/*--------------------------------*- C++ -*----------------------------------*\
  =========                 |
  \\      /  F ield         | OpenFOAM: The Open Source CFD Toolbox
   \\    /   O peration     | Website:  https://openfoam.org
    \\  /    A nd           | Version:  9
     \\/     M anipulation  |
\*---------------------------------------------------------------------------*/
FoamFile
{
    format      ascii;
    class       volScalarField;
    location    "0.07";
    object      nut;
}
// * * * * * * * * * * * * * * * * * * * * * * * * * * * * * * * * * * * * * //

dimensions      [0 2 -1 0 0 0 0];

internalField   nonuniform List<scalar> 
12225
(
8.99069e-06
7.55143e-06
6.46676e-06
5.6794e-06
5.14587e-06
4.82911e-06
4.69467e-06
4.70828e-06
4.83585e-06
5.04464e-06
5.30468e-06
5.58988e-06
5.87842e-06
6.18352e-06
6.49939e-06
6.82384e-06
7.18953e-06
7.75311e-06
6.75606e-05
4.78911e-05
4.0621e-05
3.72415e-05
3.56002e-05
3.48383e-05
3.45005e-05
3.43355e-05
3.42137e-05
3.40742e-05
3.38921e-05
3.36621e-05
3.33817e-05
3.30112e-05
3.25441e-05
3.1986e-05
3.12929e-05
3.03799e-05
0.000146209
0.000111398
9.2338e-05
7.98876e-05
7.07548e-05
6.35871e-05
5.77341e-05
5.28678e-05
4.88109e-05
4.54456e-05
4.26731e-05
4.04076e-05
3.85913e-05
3.70773e-05
3.57987e-05
3.47377e-05
3.38895e-05
3.32707e-05
0.000188887
0.00016359
0.000143954
0.000128803
0.000116684
0.000106652
9.81131e-05
9.071e-05
8.42429e-05
7.86037e-05
7.37285e-05
6.96302e-05
6.61053e-05
6.30695e-05
6.05017e-05
5.84023e-05
5.67923e-05
5.57038e-05
0.000204971
0.000192418
0.000179448
0.000167466
0.000156755
0.000147253
0.000138807
0.000131265
0.000124514
0.000118498
0.000113217
0.000108502
0.000104328
0.000100674
9.75336e-05
9.49179e-05
9.28454e-05
9.13312e-05
0.000210157
0.000204823
0.0001981
0.000190842
0.000183573
0.000176581
0.000169999
0.000163879
0.000158245
0.000153119
0.000148423
0.000144151
0.000140301
0.000136879
0.000133894
0.000131364
0.0001293
0.000127705
0.00021168
0.000209368
0.000206212
0.000202436
0.000198291
0.000193988
0.000189686
0.000185498
0.000181503
0.000177712
0.000174153
0.000170848
0.000167818
0.000165083
0.000162663
0.000160578
0.000158836
0.000157439
0.000212094
0.000210843
0.000209257
0.000207338
0.000205142
0.000202749
0.000200246
0.000197705
0.000195174
0.000192696
0.00019031
0.000188046
0.000185933
0.000183997
0.000182261
0.000180743
0.000179452
0.000178393
0.000212198
0.000211274
0.000210264
0.000209141
0.000207899
0.000206552
0.000205126
0.000203646
0.000202139
0.000200633
0.000199156
0.000197731
0.000196383
0.000195132
0.000194
0.000193
0.000192143
0.000191434
0.000212223
0.000211386
0.000210559
0.000209723
0.000208867
0.000207985
0.00020708
0.000206158
0.000205227
0.000204299
0.000203388
0.000202507
0.000201672
0.000200896
0.000200193
0.000199574
0.000199046
0.000198616
0.000212227
0.000211412
0.000210635
0.000209888
0.000209162
0.000208454
0.000207761
0.000207081
0.000206417
0.000205772
0.000205151
0.00020456
0.000204007
0.000203501
0.000203048
0.000202656
0.00020233
0.000202076
0.000212228
0.000211417
0.00021065
0.000209924
0.000209234
0.000208576
0.000207949
0.000207352
0.000206783
0.000206243
0.000205736
0.000205263
0.000204828
0.000204438
0.000204095
0.000203804
0.00020357
0.000203396
0.000212228
0.000211417
0.000210652
0.000209931
0.00020925
0.000208607
0.000208001
0.000207431
0.000206895
0.000206395
0.000205931
0.000205503
0.000205116
0.00020477
0.00020447
0.000204217
0.000204015
0.000203868
0.000212228
0.000211417
0.000210651
0.000209929
0.000209249
0.000208608
0.000208005
0.000207441
0.000206912
0.000206421
0.000205966
0.00020555
0.000205172
0.000204834
0.000204539
0.000204288
0.000204084
0.000203929
0.000212228
0.000211417
0.00021065
0.000209926
0.000209243
0.0002086
0.000207995
0.000207427
0.000206896
0.0002064
0.000205941
0.000205517
0.000205131
0.000204783
0.000204474
0.000204204
0.000203977
0.000203795
0.000212229
0.000211417
0.000210649
0.000209923
0.000209238
0.000208591
0.000207982
0.000207409
0.00020687
0.000206367
0.000205898
0.000205463
0.000205062
0.000204696
0.000204365
0.00020407
0.000203812
0.000203596
0.000212229
0.000211417
0.000210649
0.000209921
0.000209234
0.000208584
0.00020797
0.00020739
0.000206845
0.000206333
0.000205853
0.000205405
0.000204989
0.000204604
0.000204251
0.00020393
0.000203641
0.00020339
0.000212229
0.000211418
0.000210648
0.00020992
0.00020923
0.000208577
0.000207959
0.000207374
0.000206822
0.000206302
0.000205812
0.000205352
0.000204922
0.00020452
0.000204147
0.000203802
0.000203486
0.000203203
0.00021223
0.000211418
0.000210648
0.000209919
0.000209227
0.000208571
0.000207949
0.00020736
0.000206803
0.000206275
0.000205777
0.000205307
0.000204865
0.000204449
0.000204059
0.000203695
0.000203357
0.00020305
0.00021223
0.000211418
0.000210648
0.000209917
0.000209224
0.000208567
0.000207942
0.00020735
0.000206789
0.000206257
0.000205753
0.000205276
0.000204825
0.0002044
0.000203999
0.000203622
0.000203268
0.000202944
0.00021223
0.000211418
0.000210647
0.000209916
0.000209222
0.000208562
0.000207935
0.00020734
0.000206774
0.000206236
0.000205725
0.000205239
0.000204778
0.00020434
0.000203924
0.000203529
0.000203156
0.000202809
0.00021223
0.000211417
0.000210645
0.000209911
0.000209212
0.000208544
0.000207906
0.000207295
0.000206708
0.000206144
0.000205601
0.000205077
0.000204572
0.000204083
0.000203609
0.000203151
0.000202708
0.000202288
0.000212229
0.000211412
0.000210628
0.000209871
0.000209136
0.000208415
0.000207705
0.000207001
0.000206302
0.000205606
0.000204912
0.000204219
0.000203528
0.000202838
0.000202151
0.000201468
0.00020079
0.000200128
0.000212218
0.000211358
0.000210483
0.000209573
0.000208618
0.00020761
0.000206549
0.000205439
0.000204285
0.000203094
0.000201874
0.000200631
0.000199372
0.000198103
0.000196829
0.000195555
0.000194287
0.000193042
0.000212114
0.000210942
0.000209516
0.000207832
0.000205917
0.000203814
0.000201569
0.000199226
0.000196822
0.000194384
0.000191934
0.00018949
0.000187063
0.000184661
0.000182293
0.000179962
0.000177674
0.000175452
0.000211337
0.000208412
0.000204586
0.000200188
0.000195486
0.000190681
0.000185904
0.000181232
0.000176703
0.00017233
0.000168116
0.000164054
0.000160138
0.000156358
0.000152708
0.000149183
0.00014578
0.00014252
0.000206546
0.000196559
0.000186005
0.000175983
0.000166814
0.000158541
0.000151084
0.000144322
0.000138139
0.000132431
0.00012712
0.000122144
0.000117458
0.000113033
0.000108845
0.000104883
0.000101137
9.76171e-05
0.000182998
0.000156952
0.000138398
0.000124762
0.000114249
0.000105831
9.88594e-05
9.29128e-05
8.77192e-05
8.31055e-05
7.896e-05
7.52097e-05
7.18063e-05
6.87158e-05
6.59119e-05
6.33719e-05
6.10748e-05
5.90048e-05
0.00010531
7.85031e-05
6.64808e-05
5.97615e-05
5.56147e-05
5.29858e-05
5.13283e-05
5.03085e-05
4.97089e-05
4.9383e-05
4.92304e-05
4.91816e-05
4.91892e-05
4.92216e-05
4.92583e-05
4.9286e-05
4.9298e-05
4.9285e-05
1.67221e-05
1.50171e-05
1.36048e-05
1.24376e-05
1.14833e-05
1.07168e-05
1.01183e-05
9.671e-06
9.35967e-06
9.17027e-06
9.0894e-06
9.10426e-06
9.20245e-06
9.37207e-06
9.60179e-06
9.88085e-06
1.01994e-05
1.05471e-05
6.15456e-06
4.29608e-05
4.88484e-05
1.176e-05
1.26644e-05
1.38069e-05
1.49652e-05
1.60522e-05
1.6881e-05
1.74209e-05
1.77976e-05
1.80798e-05
1.83125e-05
1.85244e-05
1.87333e-05
1.89504e-05
1.91823e-05
1.94332e-05
1.97052e-05
1.99999e-05
2.03183e-05
2.0663e-05
2.10359e-05
2.14509e-05
2.1942e-05
2.24034e-05
2.28181e-05
2.31645e-05
2.34143e-05
2.35293e-05
2.34587e-05
2.31336e-05
2.24509e-05
2.12095e-05
1.89868e-05
1.55158e-05
1.22025e-05
5.01545e-05
5.09314e-05
1.0867e-05
1.18524e-05
1.28447e-05
1.36523e-05
1.42689e-05
1.48839e-05
1.55233e-05
1.63122e-05
1.76481e-05
1.84533e-05
1.87043e-05
1.83997e-05
1.76358e-05
1.68499e-05
1.59409e-05
1.50878e-05
1.4648e-05
1.4725e-05
1.48994e-05
1.49469e-05
1.48631e-05
1.52653e-05
1.77266e-05
2.1785e-05
2.47056e-05
2.70441e-05
2.88768e-05
3.0286e-05
3.13445e-05
3.21132e-05
3.26425e-05
3.29736e-05
3.31409e-05
3.31726e-05
3.30927e-05
3.29211e-05
3.26748e-05
3.2369e-05
3.19993e-05
3.16061e-05
3.11955e-05
3.07691e-05
3.03281e-05
2.98738e-05
2.94066e-05
2.8927e-05
2.84348e-05
2.79296e-05
2.74104e-05
2.68757e-05
2.63235e-05
2.57512e-05
2.51556e-05
2.45333e-05
2.38808e-05
2.31945e-05
2.24719e-05
2.17114e-05
2.09132e-05
2.00793e-05
1.9213e-05
1.83173e-05
1.73938e-05
1.64461e-05
1.57707e-05
1.55064e-05
1.52896e-05
1.50967e-05
1.49263e-05
1.47796e-05
1.46575e-05
1.45599e-05
1.44864e-05
1.44353e-05
1.44043e-05
1.43903e-05
1.43897e-05
1.43986e-05
1.44128e-05
1.44219e-05
1.43913e-05
1.42863e-05
1.4086e-05
1.37837e-05
1.33936e-05
1.29385e-05
5.10647e-05
4.61533e-05
4.28434e-05
4.08807e-05
3.98854e-05
3.94993e-05
3.9469e-05
3.96893e-05
4.02172e-05
4.12532e-05
4.29545e-05
4.55092e-05
1.14981e-05
1.18751e-05
1.2199e-05
1.24675e-05
1.28598e-05
1.50985e-05
1.75493e-05
1.94449e-05
2.08891e-05
2.19671e-05
2.27552e-05
2.33155e-05
2.37049e-05
2.40133e-05
2.42518e-05
2.43758e-05
2.43997e-05
2.43288e-05
2.41618e-05
2.38909e-05
2.35038e-05
2.29777e-05
2.22024e-05
2.1691e-05
2.1768e-05
2.18062e-05
2.18064e-05
2.17917e-05
2.1785e-05
2.1805e-05
2.18638e-05
2.19654e-05
2.21068e-05
2.22883e-05
2.25349e-05
2.27739e-05
2.27443e-05
2.21699e-05
2.08028e-05
1.86937e-05
1.66694e-05
1.57963e-05
1.55691e-05
3.91112e-06
1.38119e-05
1.20257e-05
1.37303e-05
1.99795e-05
2.64967e-05
3.13729e-05
3.44187e-05
3.60429e-05
3.66956e-05
3.67289e-05
3.63811e-05
3.58113e-05
3.51274e-05
3.44004e-05
3.36726e-05
3.29649e-05
3.22836e-05
3.16253e-05
3.09813e-05
3.03406e-05
2.96922e-05
2.90251e-05
2.83316e-05
2.73176e-05
2.57213e-05
2.39347e-05
2.23387e-05
2.1185e-05
2.05702e-05
2.04906e-05
2.08982e-05
2.17169e-05
2.28195e-05
2.40745e-05
2.5465e-05
2.66966e-05
2.70298e-05
2.56125e-05
2.28961e-05
2.19858e-05
2.40049e-05
2.83758e-05
3.27149e-05
3.50334e-05
3.82645e-05
4.22194e-05
4.57558e-05
4.74116e-05
4.64702e-05
4.34438e-05
3.93429e-05
3.54497e-05
3.37372e-05
3.4274e-05
3.61863e-05
3.80284e-05
3.77796e-05
3.57516e-05
3.46382e-05
3.42741e-05
3.44848e-05
3.50537e-05
3.58259e-05
3.69819e-05
3.86563e-05
4.09729e-05
4.40444e-05
4.7968e-05
5.28158e-05
5.86162e-05
6.53249e-05
7.27903e-05
8.07234e-05
8.86899e-05
9.61502e-05
0.000102581
0.000107496
0.000112201
0.00011689
0.000121559
0.0001262
0.000130803
0.000135359
0.000139852
0.000144263
0.000148566
0.000152724
0.000156691
0.000160408
0.000163805
0.0001668
0.000169305
0.000171227
0.00017248
0.000172985
0.000172679
0.000171513
0.000169451
0.000166449
0.000162426
0.000157239
0.000150677
0.000143447
0.000136415
0.000129404
0.000122452
0.000115613
0.000108928
0.000102432
9.61508e-05
9.01045e-05
8.4307e-05
7.87679e-05
7.34914e-05
6.84736e-05
6.36955e-05
5.90766e-05
5.41747e-05
4.80138e-05
4.19989e-05
3.72244e-05
3.38104e-05
3.16357e-05
3.06794e-05
3.3306e-05
3.60739e-05
3.88001e-05
4.12674e-05
4.33053e-05
4.47654e-05
4.54972e-05
4.53663e-05
4.43246e-05
4.24905e-05
4.01829e-05
3.75787e-05
3.65017e-05
3.86737e-05
4.40835e-05
5.1783e-05
6.09376e-05
7.15972e-05
8.55645e-05
0.000101824
0.000118958
0.000135834
0.000151721
0.000166041
0.000178148
0.000187094
0.000194822
0.000202112
0.00020899
0.000215364
0.000221021
0.000225577
0.00022848
0.00022886
0.000224909
0.000216418
0.000205853
0.00019391
0.000181124
0.00016798
0.000154883
0.000142142
0.000129969
0.000118487
0.000107706
9.75393e-05
8.75171e-05
7.35794e-05
5.87639e-05
4.98051e-05
4.69643e-05
4.902e-05
5.50496e-05
6.34849e-05
6.95052e-05
2.63503e-06
8.36707e-06
1.53658e-05
2.57405e-05
3.3167e-05
3.70571e-05
3.84938e-05
3.86038e-05
3.81347e-05
3.74812e-05
3.68191e-05
3.62161e-05
3.56955e-05
3.52625e-05
3.49128e-05
3.46349e-05
3.44126e-05
3.42264e-05
3.40554e-05
3.38775e-05
3.36697e-05
3.34087e-05
3.30722e-05
3.26361e-05
3.20804e-05
3.13289e-05
3.01581e-05
2.85587e-05
2.65525e-05
2.43918e-05
2.24604e-05
2.10662e-05
2.03411e-05
2.02763e-05
2.08119e-05
2.19416e-05
2.36442e-05
2.56068e-05
2.7005e-05
2.69377e-05
2.57386e-05
2.46714e-05
2.45913e-05
2.57163e-05
2.84835e-05
3.27363e-05
3.81104e-05
4.36206e-05
4.777e-05
4.93458e-05
4.85414e-05
4.70534e-05
4.5909e-05
4.58903e-05
4.74839e-05
4.77611e-05
4.53499e-05
4.26552e-05
4.07032e-05
4.0168e-05
4.09101e-05
4.29289e-05
4.63474e-05
5.1372e-05
5.8256e-05
6.71401e-05
7.7966e-05
9.04089e-05
0.00010388
0.000117619
0.000130857
0.000142971
0.000153583
0.000162571
0.000170011
0.000176096
0.000181046
0.000185334
0.000189473
0.000193508
0.000197452
0.00020132
0.000205128
0.00020889
0.000212617
0.000216311
0.000219966
0.000223558
0.000227048
0.000230377
0.000233467
0.000236219
0.000238522
0.000240252
0.000241292
0.000241529
0.000240874
0.000239262
0.000236655
0.000233041
0.000228423
0.000222807
0.000216188
0.000209228
0.000202264
0.000195224
0.00018816
0.000181131
0.000174185
0.000167357
0.000160672
0.000154147
0.000147791
0.000141609
0.000135598
0.000129749
0.000124032
0.00011838
0.000112612
0.000106445
9.96991e-05
9.19941e-05
8.42642e-05
7.72579e-05
7.13436e-05
6.71489e-05
6.41828e-05
6.20075e-05
6.03099e-05
5.88837e-05
5.75985e-05
5.63602e-05
5.50593e-05
5.3546e-05
5.17215e-05
4.99186e-05
4.94506e-05
5.23622e-05
5.99685e-05
7.18901e-05
8.82687e-05
0.000112413
0.000143218
0.000179836
0.000216488
0.000249229
0.000276749
0.000299193
0.000317085
0.000330915
0.000341085
0.000349291
0.000356091
0.000361608
0.000365824
0.000368549
0.000369396
0.00036773
0.000362773
0.00035407
0.000342034
0.000327584
0.000311416
0.000294227
0.000276667
0.000259278
0.000242467
0.000226497
0.0002115
0.000197482
0.000184328
0.000171518
0.000156932
0.000136436
0.000110786
8.82196e-05
7.28586e-05
6.52475e-05
6.47528e-05
6.98019e-05
6.75564e-06
2.43296e-05
3.67024e-05
4.16375e-05
4.26468e-05
4.21098e-05
4.12413e-05
4.04971e-05
3.99522e-05
3.95534e-05
3.92417e-05
3.89875e-05
3.87837e-05
3.86314e-05
3.85312e-05
3.84803e-05
3.84737e-05
3.8505e-05
3.85657e-05
3.86439e-05
3.87217e-05
3.87732e-05
3.87628e-05
3.86445e-05
3.83654e-05
3.78727e-05
3.70805e-05
3.5795e-05
3.41018e-05
3.19585e-05
2.93957e-05
2.66794e-05
2.42153e-05
2.2324e-05
2.11386e-05
2.06968e-05
2.10281e-05
2.20697e-05
2.34893e-05
2.46632e-05
2.5099e-05
2.48564e-05
2.44557e-05
2.46355e-05
2.65848e-05
3.12884e-05
3.80506e-05
4.54009e-05
5.16014e-05
5.51435e-05
5.63567e-05
5.6176e-05
5.4905e-05
5.36655e-05
5.15082e-05
4.83314e-05
4.55152e-05
4.42391e-05
4.48711e-05
4.7626e-05
5.25739e-05
5.99461e-05
6.9975e-05
8.26655e-05
9.76033e-05
0.000113879
0.00013027
0.00014559
0.000159008
0.000170184
0.000179192
0.000186352
0.000192061
0.000196684
0.000200509
0.000203732
0.00020648
0.000208971
0.000211319
0.000213545
0.000215678
0.000217755
0.000219821
0.000221929
0.000224127
0.000226463
0.000228969
0.000231661
0.000234529
0.000237535
0.000240609
0.000243648
0.000246524
0.000249086
0.000251175
0.000252635
0.00025333
0.000253149
0.000252018
0.000249899
0.000246781
0.00024267
0.000237588
0.00023214
0.000226484
0.000220644
0.000214695
0.000208703
0.000202725
0.000196801
0.000190966
0.000185241
0.000179644
0.000174182
0.000168858
0.00016367
0.000158604
0.000153625
0.000148668
0.000143636
0.000138406
0.000132838
0.000126756
0.000120417
0.000114209
0.000108415
0.000103132
9.8283e-05
9.36947e-05
8.91719e-05
8.4545e-05
7.97037e-05
7.45806e-05
6.91325e-05
6.36384e-05
5.95424e-05
5.94996e-05
6.55011e-05
7.74848e-05
9.43828e-05
0.000119559
0.000160315
0.00021026
0.000262019
0.000308491
0.000346943
0.000377448
0.00040106
0.000418815
0.000431514
0.000439899
0.000445478
0.000448858
0.000450322
0.000450035
0.000447915
0.000443773
0.000437009
0.000427525
0.000415124
0.00040007
0.00038292
0.000364343
0.000345066
0.00032577
0.000307015
0.00028921
0.000272604
0.000257314
0.000243342
0.000230581
0.000218708
0.000206858
0.000193013
0.000173252
0.00014834
0.000122456
0.000100078
8.41798e-05
7.67068e-05
2.24841e-05
3.98955e-05
4.43423e-05
4.47507e-05
4.44091e-05
4.41541e-05
4.40212e-05
4.38937e-05
4.37053e-05
4.34583e-05
4.31885e-05
4.29366e-05
4.27329e-05
4.25947e-05
4.25284e-05
4.25344e-05
4.26109e-05
4.27587e-05
4.2978e-05
4.32707e-05
4.36346e-05
4.40565e-05
4.45055e-05
4.49295e-05
4.52492e-05
4.53583e-05
4.5128e-05
4.43871e-05
4.28855e-05
4.0778e-05
3.81756e-05
3.5071e-05
3.16528e-05
2.83073e-05
2.54208e-05
2.32262e-05
2.18355e-05
2.1286e-05
2.14878e-05
2.21574e-05
2.29067e-05
2.34913e-05
2.40496e-05
2.52603e-05
2.82765e-05
3.41971e-05
4.26779e-05
5.20544e-05
6.01603e-05
6.48455e-05
6.47892e-05
6.05566e-05
5.62114e-05
5.26118e-05
4.93102e-05
4.72044e-05
4.71097e-05
4.94679e-05
5.45263e-05
6.25155e-05
7.35568e-05
8.75909e-05
0.000104083
0.000121899
0.000139533
0.000155576
0.000169128
0.000179936
0.00018824
0.000194531
0.000199334
0.00020309
0.000206118
0.000208624
0.000210731
0.000212508
0.000213984
0.000215138
0.000215985
0.000216542
0.000216851
0.000216978
0.00021701
0.000217054
0.000217227
0.000217648
0.000218428
0.000219654
0.000221382
0.000223623
0.000226341
0.000229444
0.000232792
0.000236205
0.000239475
0.000242387
0.000244739
0.000246357
0.000247107
0.000246902
0.000245694
0.000243451
0.000240255
0.000236578
0.000232528
0.000228185
0.000223632
0.000218941
0.000214171
0.000209372
0.000204581
0.00019983
0.000195144
0.000190541
0.000186035
0.000181635
0.00017734
0.000173141
0.000169011
0.000164909
0.000160773
0.000156531
0.000152096
0.000147357
0.000142436
0.00013746
0.00013248
0.000127468
0.000122287
0.000116698
0.000110372
0.000102961
9.42247e-05
8.43689e-05
7.47567e-05
6.84207e-05
6.86867e-05
7.68481e-05
9.17084e-05
0.000112668
0.000146073
0.00019829
0.000261143
0.00032211
0.000373212
0.000414101
0.000445536
0.000469018
0.000485714
0.000496425
0.000501923
0.000503773
0.000502708
0.000499162
0.000493567
0.000485943
0.000476354
0.000464796
0.000451069
0.000435154
0.000417297
0.000397983
0.000377848
0.00035758
0.000337809
0.000319036
0.000301608
0.000285717
0.000271432
0.00025872
0.000247472
0.000237476
0.000228298
0.000218977
0.000207488
0.000191034
0.000169926
0.000145781
0.000120961
9.9961e-05
2.70459e-05
4.22126e-05
4.58193e-05
4.74877e-05
4.83376e-05
4.85008e-05
4.82535e-05
4.78578e-05
4.74706e-05
4.71708e-05
4.69873e-05
4.69181e-05
4.69452e-05
4.7045e-05
4.71947e-05
4.73758e-05
4.75776e-05
4.78015e-05
4.80547e-05
4.83613e-05
4.87541e-05
4.92663e-05
4.99172e-05
5.07131e-05
5.16099e-05
5.2485e-05
5.31443e-05
5.33368e-05
5.27612e-05
5.10525e-05
4.83078e-05
4.49033e-05
4.09294e-05
3.66165e-05
3.23636e-05
2.85847e-05
2.55539e-05
2.33995e-05
2.21505e-05
2.17316e-05
2.19689e-05
2.27028e-05
2.40435e-05
2.66806e-05
3.17765e-05
3.98067e-05
5.05087e-05
6.17698e-05
7.0191e-05
7.0739e-05
6.38455e-05
5.75086e-05
5.28583e-05
4.97503e-05
4.8485e-05
4.96241e-05
5.36129e-05
6.0738e-05
7.11815e-05
8.49054e-05
0.000101434
0.000119742
0.00013833
0.00015563
0.0001705
0.000182477
0.000191707
0.000198687
0.000204002
0.000208164
0.000211542
0.000214376
0.000216798
0.000218868
0.000220602
0.000221986
0.000222927
0.000223302
0.000223077
0.000222252
0.000220864
0.000218992
0.000216759
0.000214326
0.000211888
0.000209662
0.000207863
0.000206696
0.000206323
0.000206852
0.000208316
0.000210668
0.000213779
0.000217446
0.000221415
0.000225405
0.00022913
0.000232335
0.000234807
0.000236393
0.00023699
0.000236523
0.000235136
0.000233162
0.000230708
0.00022787
0.000224732
0.000221365
0.000217829
0.000214172
0.000210436
0.000206656
0.000202863
0.000199083
0.000195339
0.00019165
0.00018803
0.000184483
0.000181006
0.000177582
0.000174182
0.000170767
0.000167287
0.000163677
0.000159866
0.000155904
0.000151767
0.000147368
0.000142521
0.00013689
0.000129967
0.000121132
0.000109945
9.68888e-05
8.4379e-05
7.65925e-05
7.70519e-05
8.64625e-05
0.000103155
0.000127587
0.000167386
0.000226668
0.000295133
0.000359688
0.00041392
0.000457023
0.000489089
0.000512211
0.000527663
0.000536161
0.000538427
0.000536207
0.000530394
0.000521514
0.000510345
0.000497275
0.000482556
0.000466314
0.000448564
0.000429428
0.000409198
0.000388342
0.000367437
0.000347074
0.00032777
0.000309914
0.000293749
0.000279383
0.000266812
0.000255952
0.000246669
0.000238786
0.000232039
0.000225925
0.000219421
0.000210572
0.000197657
0.000180099
0.00015751
0.000131611
2.98631e-05
4.51172e-05
5.10357e-05
5.3248e-05
5.32589e-05
5.25702e-05
5.19777e-05
5.16825e-05
5.1648e-05
5.17934e-05
5.20509e-05
5.23716e-05
5.27188e-05
5.3062e-05
5.33731e-05
5.36266e-05
5.38033e-05
5.38916e-05
5.38907e-05
5.3823e-05
5.37328e-05
5.36976e-05
5.3803e-05
5.41722e-05
5.49064e-05
5.60038e-05
5.73213e-05
5.85821e-05
5.93431e-05
5.91141e-05
5.74339e-05
5.42068e-05
4.99915e-05
4.51078e-05
3.99302e-05
3.49212e-05
3.05139e-05
2.6977e-05
2.44266e-05
2.2908e-05
2.2432e-05
2.30329e-05
2.4986e-05
2.91234e-05
3.66766e-05
4.78272e-05
6.03994e-05
7.16855e-05
7.44584e-05
6.66124e-05
5.86956e-05
5.32916e-05
5.02622e-05
4.96296e-05
5.17184e-05
5.69317e-05
6.55659e-05
7.77018e-05
9.30873e-05
0.000110956
0.000130011
0.000148688
0.000165582
0.000179837
0.000191263
0.000200181
0.000207154
0.00021275
0.000217424
0.000221485
0.000225112
0.000228394
0.00023135
0.000233953
0.000236148
0.000237863
0.000238864
0.000239002
0.000238203
0.000236428
0.000233686
0.000230042
0.000225622
0.00022062
0.000215288
0.000209933
0.000204889
0.000200499
0.000197073
0.000194861
0.00019402
0.000194594
0.000196502
0.000199547
0.000203446
0.000207856
0.000212411
0.000216756
0.000220583
0.000223648
0.000225782
0.000226837
0.000227047
0.000226609
0.000225631
0.000224204
0.000222408
0.00022031
0.000217963
0.000215413
0.0002127
0.000209857
0.000206917
0.00020391
0.000200865
0.000197808
0.000194762
0.000191744
0.000188766
0.000185829
0.000182927
0.000180042
0.000177149
0.000174208
0.000171152
0.000167958
0.000164561
0.000160828
0.000156515
0.000151197
0.000144218
0.000134749
0.0001222
0.00010725
9.29977e-05
8.42739e-05
8.46668e-05
9.45755e-05
0.000112351
0.000139291
0.0001827
0.0002447
0.000314761
0.00038059
0.0004361
0.000479953
0.000512663
0.000535708
0.000550146
0.000556605
0.000555773
0.000549592
0.000539181
0.000525391
0.000509105
0.000490988
0.000471528
0.000451074
0.000429863
0.000408164
0.000386322
0.000364767
0.000343961
0.000324338
0.000306255
0.000289956
0.00027557
0.000263115
0.000252519
0.000243649
0.000236345
0.000230437
0.000225739
0.000221967
0.000218576
0.00021454
0.000208134
0.000197866
0.000182232
0.00016004
3.52208e-05
5.2755e-05
5.81564e-05
5.85822e-05
5.77894e-05
5.71543e-05
5.69445e-05
5.70534e-05
5.73607e-05
5.77897e-05
5.8292e-05
5.88289e-05
5.93645e-05
5.98622e-05
6.02846e-05
6.05929e-05
6.07483e-05
6.07141e-05
6.04598e-05
5.99682e-05
5.92456e-05
5.83359e-05
5.73355e-05
5.64064e-05
5.57832e-05
5.57201e-05
5.63249e-05
5.75807e-05
5.90729e-05
6.01913e-05
6.02401e-05
5.86916e-05
5.5347e-05
5.06895e-05
4.532e-05
3.97771e-05
3.45766e-05
3.0131e-05
2.66819e-05
2.43777e-05
2.33857e-05
2.39653e-05
2.6662e-05
3.25504e-05
4.25806e-05
5.57032e-05
6.86931e-05
7.49917e-05
6.9189e-05
6.03273e-05
5.41595e-05
5.09824e-05
5.06442e-05
5.32761e-05
5.92098e-05
6.8723e-05
8.18287e-05
9.81108e-05
0.000116641
0.000136047
0.000154817
0.000171712
0.000186049
0.000197765
0.00020723
0.000214998
0.000221598
0.000227432
0.000232765
0.000237742
0.000242423
0.000246807
0.000250843
0.000254445
0.000257501
0.000259891
0.000261264
0.000261495
0.000260475
0.000258129
0.000254427
0.000249397
0.000243138
0.00023583
0.000227741
0.000219225
0.000210714
0.000202684
0.000195611
0.000189916
0.000185924
0.000183818
0.000183614
0.000185156
0.000188163
0.000192257
0.000197002
0.000201954
0.000206688
0.000210859
0.000214159
0.000216482
0.000218056
0.000218973
0.00021932
0.000219182
0.000218629
0.00021772
0.000216501
0.000215012
0.000213285
0.000211351
0.000209238
0.000206977
0.000204598
0.00020213
0.000199602
0.000197041
0.00019447
0.000191904
0.000189352
0.000186818
0.000184294
0.000181761
0.000179178
0.000176492
0.00017363
0.000170434
0.00016662
0.000161701
0.000154924
0.000145323
0.000132202
0.000116313
0.000101074
9.16362e-05
9.16577e-05
0.000101473
0.000119637
0.000147723
0.000191928
0.000253275
0.000322243
0.00038763
0.000443316
0.000487509
0.000520505
0.000543324
0.000556815
0.000561492
0.000558074
0.000548528
0.000534178
0.00051613
0.000495439
0.000473024
0.000449632
0.000425858
0.000402166
0.000378952
0.000356571
0.00033534
0.000315533
0.000297377
0.000281041
0.000266631
0.000254178
0.000243639
0.000234904
0.000227816
0.000222207
0.000217914
0.00021479
0.000212652
0.00021119
0.000209843
0.00020765
0.000203069
0.000194355
0.000179275
4.23929e-05
6.04057e-05
6.50035e-05
6.48665e-05
6.38686e-05
6.31994e-05
6.29913e-05
6.31149e-05
6.3449e-05
6.39117e-05
6.44549e-05
6.50475e-05
6.56643e-05
6.62787e-05
6.68577e-05
6.73584e-05
6.77265e-05
6.78947e-05
6.77853e-05
6.73154e-05
6.64091e-05
6.50182e-05
6.31499e-05
6.08986e-05
5.84709e-05
5.61864e-05
5.44416e-05
5.36349e-05
5.38832e-05
5.48634e-05
5.58022e-05
5.57695e-05
5.41971e-05
5.09652e-05
4.63629e-05
4.11911e-05
3.60624e-05
3.14706e-05
2.77733e-05
2.52442e-05
2.42195e-05
2.52249e-05
2.91396e-05
3.70457e-05
4.87161e-05
6.17103e-05
7.14479e-05
7.04255e-05
6.20758e-05
5.52751e-05
5.17368e-05
5.13687e-05
5.41589e-05
6.03379e-05
7.01666e-05
8.36372e-05
0.000100277
0.000119099
0.000138744
0.00015778
0.000175063
0.00018999
0.000202524
0.000213026
0.000222015
0.000229977
0.000237277
0.000244145
0.000250708
0.000257011
0.000263042
0.000268736
0.000273991
0.000278666
0.000282598
0.000285613
0.000287338
0.000287688
0.000286548
0.000283823
0.000279456
0.000273436
0.000265816
0.000256723
0.000246381
0.000235126
0.000223419
0.000211832
0.000200998
0.000191525
0.000183928
0.000178575
0.000175626
0.000174986
0.000176408
0.000179519
0.000183837
0.000188865
0.000194041
0.000198869
0.000202956
0.000206351
0.000209068
0.000211152
0.000212669
0.000213688
0.00021427
0.000214463
0.000214305
0.000213824
0.000213047
0.000211995
0.000210694
0.000209167
0.000207445
0.000205557
0.000203534
0.000201408
0.000199209
0.000196964
0.000194694
0.000192418
0.000190142
0.000187867
0.000185572
0.000183212
0.000180711
0.000177905
0.000174496
0.000169969
0.000163518
0.000154101
0.000140935
0.000124727
0.000108936
9.88212e-05
9.81643e-05
0.000107396
0.00012524
0.000153047
0.000195749
0.000254011
0.000319898
0.00038342
0.000438367
0.000482417
0.000515399
0.000537924
0.000550622
0.000553879
0.000548462
0.000536281
0.000518824
0.00049741
0.000473299
0.000447656
0.000421492
0.000395654
0.000370803
0.000347398
0.000325704
0.000305834
0.00028781
0.000271629
0.000257291
0.000244801
0.000234145
0.000225268
0.000218067
0.000212399
0.000208106
0.000205039
0.000203063
0.000202028
0.000201724
0.000201817
0.000201815
0.000200884
0.000197441
0.000189273
5.0271e-05
6.85152e-05
7.32874e-05
7.24944e-05
7.08407e-05
6.96424e-05
6.89608e-05
6.86442e-05
6.85949e-05
6.87106e-05
6.89669e-05
6.93651e-05
6.9908e-05
7.05904e-05
7.13942e-05
7.2284e-05
7.32016e-05
7.40594e-05
7.47354e-05
7.50713e-05
7.48793e-05
7.39637e-05
7.21608e-05
6.93962e-05
6.57455e-05
6.14748e-05
5.70346e-05
5.30018e-05
4.99651e-05
4.83412e-05
4.80576e-05
4.82254e-05
4.78063e-05
4.61172e-05
4.31055e-05
3.9063e-05
3.48084e-05
3.08739e-05
2.76651e-05
2.5574e-05
2.51463e-05
2.7204e-05
3.27878e-05
4.22716e-05
5.40408e-05
6.49606e-05
6.89829e-05
6.32824e-05
5.62846e-05
5.22726e-05
5.16173e-05
5.42392e-05
6.02729e-05
6.99483e-05
8.32937e-05
9.98734e-05
0.000118735
0.000138567
0.000157997
0.000175922
0.000191736
0.000205368
0.000217134
0.000227505
0.000236931
0.000245749
0.000254175
0.000262328
0.000270251
0.000277928
0.000285287
0.000292207
0.000298527
0.000304055
0.000308582
0.000311885
0.000313673
0.000313912
0.000312504
0.000309364
0.000304428
0.000297672
0.000289114
0.000278832
0.000266971
0.000253773
0.000239623
0.000225091
0.000210917
0.00019787
0.000186672
0.000177902
0.00017194
0.000168757
0.000168149
0.000169792
0.000173181
0.000177835
0.000182912
0.000187949
0.000192661
0.000196873
0.000200514
0.000203582
0.000206114
0.000208159
0.000209763
0.000210964
0.000211789
0.000212256
0.000212382
0.000212181
0.000211669
0.000210867
0.000209799
0.000208494
0.000206981
0.000205296
0.000203472
0.000201543
0.000199539
0.000197489
0.000195414
0.000193327
0.000191223
0.000189075
0.000186813
0.000184283
0.00018119
0.00017702
0.000170954
0.000161918
0.000149053
0.000132924
0.000116819
0.000105971
0.000104335
0.000112554
0.000129418
0.00015575
0.00019529
0.000248756
0.000309995
0.000370348
0.000423623
0.000466947
0.000499587
0.000521738
0.0005338
0.000536025
0.000529216
0.000515198
0.000495574
0.000471849
0.000445495
0.000417918
0.000390391
0.000363987
0.000339477
0.000317266
0.000297409
0.000279736
0.000264001
0.000250003
0.000237634
0.000226864
0.000217699
0.000210127
0.000204096
0.000199505
0.000196224
0.000194113
0.000193026
0.000192805
0.000193253
0.000194119
0.000195124
0.000195948
0.000195701
0.000192631
5.65164e-05
7.00787e-05
8.06723e-05
7.99872e-05
7.7342e-05
7.50518e-05
7.33292e-05
7.20552e-05
7.11247e-05
7.05176e-05
7.01811e-05
7.01477e-05
7.04426e-05
7.10768e-05
7.20531e-05
7.33636e-05
7.49818e-05
7.6846e-05
7.88394e-05
8.07682e-05
8.23469e-05
8.32054e-05
8.29312e-05
8.11573e-05
7.76809e-05
7.2571e-05
6.62127e-05
5.92776e-05
5.2629e-05
4.71301e-05
4.33663e-05
4.13622e-05
4.04422e-05
3.94488e-05
3.76749e-05
3.51014e-05
3.21729e-05
2.94251e-05
2.72568e-05
2.61676e-05
2.691e-05
3.04714e-05
3.75437e-05
4.73784e-05
5.7787e-05
6.48147e-05
6.32616e-05
5.70099e-05
5.24683e-05
5.1308e-05
5.34934e-05
5.90598e-05
6.82019e-05
8.10042e-05
9.71492e-05
0.000115796
0.000135712
0.000155567
0.000174247
0.00019109
0.000205941
0.000219037
0.000230794
0.000241629
0.000251868
0.000261727
0.000271336
0.000280748
0.000289955
0.000298878
0.000307378
0.000315263
0.000322308
0.000328279
0.000332942
0.000336067
0.000337501
0.000337267
0.000335306
0.000331554
0.000325961
0.000318502
0.000309196
0.000298109
0.000285345
0.000271041
0.000255433
0.000238957
0.000222364
0.000206485
0.000192188
0.000180253
0.00017139
0.000165646
0.000162862
0.000162794
0.000164946
0.000168666
0.000173334
0.000178411
0.000183482
0.000188271
0.000192632
0.000196511
0.00019991
0.000202852
0.000205367
0.000207478
0.000209201
0.000210544
0.000211513
0.000212115
0.000212359
0.000212259
0.000211833
0.000211107
0.000210111
0.000208877
0.000207442
0.000205843
0.000204116
0.000202298
0.000200418
0.0001985
0.000196553
0.000194562
0.000192473