/*--------------------------------*- C++ -*----------------------------------*\
  =========                 |
  \\      /  F ield         | OpenFOAM: The Open Source CFD Toolbox
   \\    /   O peration     | Website:  https://openfoam.org
    \\  /    A nd           | Version:  9
     \\/     M anipulation  |
\*---------------------------------------------------------------------------*/
FoamFile
{
    format      ascii;
    class       surfaceScalarField;
    location    "0.07";
    object      phi;
}
// * * * * * * * * * * * * * * * * * * * * * * * * * * * * * * * * * * * * * //

dimensions      [0 3 -1 0 0 0 0];

internalField   nonuniform List<scalar> 
24170
(
3.07515e-06
1.13256e-07
2.93998e-06
1.35172e-07
2.81933e-06
1.20644e-07
2.71153e-06
1.07802e-07
2.6148e-06
9.6735e-08
2.53094e-06
8.38614e-08
2.4604e-06
7.05336e-08
2.40262e-06
5.77857e-08
2.35683e-06
4.57844e-08
2.3224e-06
3.44303e-08
2.2988e-06
2.35989e-08
2.28582e-06
1.29837e-08
2.28281e-06
3.00513e-09
2.28964e-06
-6.82945e-09
2.30738e-06
-1.77327e-08
2.34004e-06
-3.26665e-08
2.40107e-06
-6.10272e-08
-1.25876e-07
2.52695e-06
3.4789e-06
5.1606e-08
3.51357e-06
1.00496e-07
3.53566e-06
9.85588e-08
3.54584e-06
9.76184e-08
3.54723e-06
9.53449e-08
3.5426e-06
8.84911e-08
3.53424e-06
7.89009e-08
3.52395e-06
6.8067e-08
3.51326e-06
5.64745e-08
3.50342e-06
4.42759e-08
3.49542e-06
3.15953e-08
3.49027e-06
1.81395e-08
3.4891e-06
4.17334e-09
3.49361e-06
-1.13394e-08
3.5058e-06
-2.99238e-08
3.52878e-06
-5.5646e-08
3.56561e-06
-9.78535e-08
-1.71457e-07
3.61119e-06
3.67534e-06
3.87794e-08
3.69408e-06
8.17569e-08
3.71202e-06
8.062e-08
3.73045e-06
7.91876e-08
3.74835e-06
7.74478e-08
3.76487e-06
7.19679e-08
3.78007e-06
6.36989e-08
3.79426e-06
5.38825e-08
3.8078e-06
4.29327e-08
3.82116e-06
3.09179e-08
3.83478e-06
1.7971e-08
3.84945e-06
3.47592e-09
3.86587e-06
-1.22542e-08
3.8853e-06
-3.07684e-08
3.9091e-06
-5.37196e-08
3.93829e-06
-8.48348e-08
3.97085e-06
-1.30415e-07
-1.98424e-07
3.99782e-06
3.93249e-06
3.16741e-08
3.94594e-06
6.83087e-08
3.95658e-06
6.99834e-08
3.96831e-06
6.74596e-08
3.98122e-06
6.45381e-08
3.99471e-06
5.84748e-08
4.00881e-06
4.95971e-08
4.02365e-06
3.9046e-08
4.03932e-06
2.72603e-08
4.05602e-06
1.42159e-08
4.07383e-06
1.67741e-10
4.09331e-06
-1.60096e-08
4.11496e-06
-3.39028e-08
4.13929e-06
-5.50985e-08
4.1668e-06
-8.12322e-08
4.19719e-06
-1.1522e-07
4.22755e-06
-1.60775e-07
-2.21365e-07
4.25049e-06
4.21347e-06
2.53343e-08
4.22515e-06
5.66212e-08
4.23456e-06
6.05753e-08
4.2447e-06
5.73247e-08
4.25612e-06
5.312e-08
4.26839e-06
4.62038e-08
4.28153e-06
3.64547e-08
4.29571e-06
2.48616e-08
4.31107e-06
1.19075e-08
4.32779e-06
-2.50915e-09
4.34616e-06
-1.82006e-08
4.36627e-06
-3.6123e-08
4.38864e-06
-5.62744e-08
4.41346e-06
-7.9913e-08
4.44074e-06
-1.08512e-07
4.46962e-06
-1.441e-07
4.49737e-06
-1.88529e-07
-2.42537e-07
4.51855e-06
4.51456e-06
1.9864e-08
4.52509e-06
4.60897e-08
4.53481e-06
5.08582e-08
4.54505e-06
4.70779e-08
4.55652e-06
4.16561e-08
4.56889e-06
3.38351e-08
4.58212e-06
2.32189e-08
4.59641e-06
1.05721e-08
4.61194e-06
-3.6189e-09
4.62882e-06
-1.93964e-08
4.64741e-06
-3.67895e-08
4.66773e-06
-5.64415e-08
4.69013e-06
-7.8676e-08
4.71463e-06
-1.04415e-07
4.74094e-06
-1.34817e-07
4.76798e-06
-1.71144e-07
4.79348e-06
-2.14025e-07
-2.6288e-07
4.81382e-06
4.83733e-06
1.5253e-08
4.84703e-06
3.63896e-08
4.85707e-06
4.082e-08
4.86758e-06
3.65645e-08
4.87927e-06
2.99709e-08
4.89196e-06
2.11383e-08
4.90558e-06
9.60375e-09
4.92025e-06
-4.10255e-09
4.93616e-06
-1.95255e-08
4.95343e-06
-3.6661e-08
4.97229e-06
-5.56504e-08
4.99279e-06
-7.69429e-08
5.01507e-06
-1.00961e-07
5.03903e-06
-1.28375e-07
5.0642e-06
-1.59985e-07
5.08951e-06
-1.96456e-07
5.1132e-06
-2.37715e-07
-2.82732e-07
5.13305e-06
5.18352e-06
1.13149e-08
5.1925e-06
2.7413e-08
5.20261e-06
3.07092e-08
5.21331e-06
2.58589e-08
5.22519e-06
1.80895e-08
5.23821e-06
8.12524e-09
5.25221e-06
-4.40326e-09
5.26729e-06
-1.91755e-08
5.28356e-06
-3.58004e-08
5.30115e-06
-5.42466e-08
5.32018e-06
-7.46791e-08
5.34067e-06
-9.74376e-08
5.36262e-06
-1.2291e-07
5.38581e-06
-1.51562e-07
5.40969e-06
-1.83868e-07
5.43331e-06
-2.20077e-07
5.45538e-06
-2.5978e-07
-3.01958e-07
5.4746e-06
5.55476e-06
7.88893e-09
5.56305e-06
1.91253e-08
5.57305e-06
2.07053e-08
5.58389e-06
1.50247e-08
5.59592e-06
6.06344e-09
5.60915e-06
-5.10559e-09
5.62343e-06
-1.86841e-08
5.63876e-06
-3.45112e-08
5.65525e-06
-5.2283e-08
5.67295e-06
-7.19473e-08
5.69191e-06
-9.3648e-08
5.71212e-06
-1.17644e-07
5.73344e-06
-1.44229e-07
5.75557e-06
-1.73695e-07
5.77797e-06
-2.06262e-07
5.7998e-06
-2.41915e-07
5.82015e-06
-2.80128e-07
-3.20067e-07
5.83826e-06
5.9528e-06
4.86673e-09
5.96044e-06
1.14803e-08
5.97022e-06
1.09255e-08
5.9811e-06
4.1501e-09
5.99318e-06
-6.01907e-09
6.00649e-06
-1.84167e-08
6.02088e-06
-3.30729e-08
6.0363e-06
-4.99265e-08
6.05277e-06
-6.87609e-08
6.07034e-06
-8.951e-08
6.08896e-06
-1.12274e-07
6.10855e-06
-1.37234e-07
6.1289e-06
-1.6458e-07
6.14966e-06
-1.94456e-07
6.1703e-06
-2.26899e-07
6.19013e-06
-2.61745e-07
6.20847e-06
-2.98462e-07
-3.36439e-07
6.22484e-06
6.37951e-06
2.17199e-09
6.38656e-06
4.42601e-09
6.39602e-06
1.46555e-09
6.40682e-06
-6.64617e-09
6.41884e-06
-1.80431e-08
6.43208e-06
-3.16564e-08
6.44639e-06
-4.73844e-08
6.46168e-06
-6.52092e-08
6.4779e-06
-8.49876e-08
6.49504e-06
-1.06646e-07
6.513e-06
-1.30233e-07
6.53162e-06
-1.55854e-07
6.55064e-06
-1.83599e-07
6.56968e-06
-2.13495e-07
6.58823e-06
-2.45457e-07
6.60573e-06
-2.79246e-07
6.62164e-06
-3.14365e-07
-3.50392e-07
6.63559e-06
5.74291e-06
9.28384e-11
5.74844e-06
-1.10281e-09
5.75612e-06
-6.21159e-09
5.76508e-06
-1.5605e-08
5.77509e-06
-2.80534e-08
5.78609e-06
-4.26583e-08
5.79796e-06
-5.9255e-08
5.81058e-06
-7.78321e-08
5.82389e-06
-9.82896e-08
5.83779e-06
-1.20551e-07
5.85218e-06
-1.44624e-07
5.86688e-06
-1.70552e-07
5.88163e-06
-1.9835e-07
5.89611e-06
-2.2797e-07
5.9099e-06
-2.59256e-07
5.9226e-06
-2.91939e-07
5.93379e-06
-3.2556e-07
-3.59814e-07
5.94321e-06
7.00035e-06
-2.09934e-09
7.00622e-06
-6.97759e-09
7.01459e-06
-1.45764e-08
7.02453e-06
-2.55439e-08
7.03568e-06
-3.92096e-08
7.04792e-06
-5.48956e-08
7.06108e-06
-7.24112e-08
7.07498e-06
-9.174e-08
7.08951e-06
-1.12814e-07
7.10451e-06
-1.35553e-07
7.11981e-06
-1.59922e-07
7.13516e-06
-1.859e-07
7.15024e-06
-2.13434e-07
7.16468e-06
-2.42405e-07
7.17803e-06
-2.72611e-07
7.18986e-06
-3.03769e-07
7.19976e-06
-3.35459e-07
-3.67472e-07
7.20742e-06
8.5331e-06
-4.35668e-09
8.5392e-06
-1.30739e-08
8.54807e-06
-2.34408e-08
8.55877e-06
-3.625e-08
8.57084e-06
-5.12741e-08
8.58402e-06
-6.80796e-08
8.5981e-06
-8.64933e-08
8.61285e-06
-1.06489e-07
8.62805e-06
-1.28016e-07
8.64349e-06
-1.5099e-07
8.6589e-06
-1.75335e-07
8.67397e-06
-2.0097e-07
8.68832e-06
-2.27781e-07
8.70151e-06
-2.55599e-07
8.71309e-06
-2.84189e-07
8.72259e-06
-3.13269e-07
8.72958e-06
-3.42452e-07
-3.71596e-07
8.73371e-06
1.04015e-05
-6.61079e-09
1.04076e-05
-1.91993e-08
1.04166e-05
-3.24849e-08
1.04277e-05
-4.73092e-08
1.04402e-05
-6.37564e-08
1.04537e-05
-8.16256e-08
1.0468e-05
-1.00799e-07
1.04828e-05
-1.21245e-07
1.04977e-05
-1.42918e-07
1.05124e-05
-1.65729e-07
1.05267e-05
-1.89567e-07
1.054e-05
-2.14304e-07
1.0552e-05
-2.39782e-07
1.05622e-05
-2.65797e-07
1.05701e-05
-2.92099e-07
1.05753e-05
-3.18415e-07
1.05772e-05
-3.44388e-07
-3.69927e-07
1.05755e-05
1.26789e-05
-8.76478e-09
1.26848e-05
-2.50619e-08
1.26935e-05
-4.12122e-08
1.27043e-05
-5.80401e-08
1.27163e-05
-7.58192e-08
1.27292e-05
-9.45392e-08
1.27426e-05
-1.14158e-07
1.2756e-05
-1.34654e-07
1.27691e-05
-1.5598e-07
1.27814e-05
-1.78043e-07
1.27925e-05
-2.00712e-07
1.28021e-05
-2.23832e-07
1.28095e-05
-2.47218e-07
1.28143e-05
-2.70653e-07
1.28161e-05
-2.93892e-07
1.28144e-05
-3.16682e-07
1.28087e-05
-3.38704e-07
-3.59909e-07
1.27987e-05
1.54551e-05
-1.06753e-08
1.54603e-05
-3.02408e-08
1.5468e-05
-4.89131e-08
1.54774e-05
-6.74454e-08
1.54878e-05
-8.62061e-08
1.54985e-05
-1.05323e-07
1.55092e-05
-1.24836e-07
1.55193e-05
-1.44748e-07
1.55284e-05
-1.65017e-07
1.55359e-05
-1.85555e-07
1.55414e-05
-2.06229e-07
1.55444e-05
-2.26881e-07
1.55445e-05
-2.47325e-07
1.55412e-05
-2.67358e-07
1.55341e-05
-2.86758e-07
1.55227e-05
-3.05312e-07
1.55068e-05
-3.22755e-07
-3.39084e-07
1.5486e-05
1.88391e-05
-1.21325e-08
1.8843e-05
-3.41946e-08
1.88488e-05
-5.46886e-08
1.88556e-05
-7.42476e-08
1.88627e-05
-9.32783e-08
1.88694e-05
-1.12015e-07
1.88751e-05
-1.30578e-07
1.88794e-05
-1.49014e-07
1.88817e-05
-1.67304e-07
1.88815e-05
-1.85379e-07
1.88784e-05
-2.03132e-07
1.8872e-05
-2.20427e-07
1.88617e-05
-2.37107e-07
1.88474e-05
-2.53006e-07
1.88286e-05
-2.67952e-07
1.88051e-05
-2.81787e-07
1.87766e-05
-2.94319e-07
-3.05588e-07
1.87431e-05
2.2964e-05
-1.28378e-08
2.29662e-05
-3.63313e-08
2.29691e-05
-5.75707e-08
2.29719e-05
-7.70508e-08
2.29738e-05
-9.52152e-08
2.29742e-05
-1.12422e-07
2.29725e-05
-1.28894e-07
2.29682e-05
-1.44737e-07
2.29609e-05
-1.59975e-07
2.29501e-05
-1.74591e-07
2.29355e-05
-1.8853e-07
2.29168e-05
-2.01708e-07
2.28937e-05
-2.14022e-07
2.28661e-05
-2.25363e-07
2.28338e-05
-2.35625e-07
2.27967e-05
-2.44716e-07
2.27549e-05
-2.52526e-07
-2.59122e-07
2.27084e-05
1.68109e-05
-1.29939e-08
1.68114e-05
-3.68813e-08
1.68118e-05
-5.79695e-08
1.68114e-05
-7.66488e-08
1.68097e-05
-9.34705e-08
1.68062e-05
-1.08957e-07
1.68007e-05
-1.23422e-07
1.6793e-05
-1.37002e-07
1.67828e-05
-1.49757e-07
1.67699e-05
-1.61715e-07
1.67542e-05
-1.72868e-07
1.67357e-05
-1.83171e-07
1.67142e-05
-1.92562e-07
1.66898e-05
-2.00973e-07
1.66626e-05
-2.08338e-07
1.66324e-05
-2.14604e-07
1.65996e-05
-2.19706e-07
-2.23716e-07
1.65642e-05
1.46347e-05
-1.31224e-08
1.4635e-05
-3.72139e-08
1.46349e-05
-5.78494e-08
1.46336e-05
-7.53552e-08
1.46307e-05
-9.05403e-08
1.46259e-05
-1.0416e-07
1.46191e-05
-1.16592e-07
1.461e-05
-1.27983e-07
1.45987e-05
-1.3844e-07
1.45851e-05
-1.48042e-07
1.4569e-05
-1.56815e-07
1.45506e-05
-1.64744e-07
1.45298e-05
-1.71796e-07
1.45068e-05
-1.77934e-07
1.44816e-05
-1.83123e-07
1.44543e-05
-1.87338e-07
1.44251e-05
-1.90543e-07
-1.92811e-07
1.43942e-05
1.27404e-05
-1.34317e-08
1.27411e-05
-3.79217e-08
1.27413e-05
-5.79717e-08
1.27399e-05
-7.39937e-08
1.27367e-05
-8.73798e-08
1.27317e-05
-9.91532e-08
1.27248e-05
-1.09638e-07
1.27158e-05
-1.18967e-07
1.27046e-05
-1.27317e-07
1.26914e-05
-1.34828e-07
1.26762e-05
-1.41558e-07
1.26589e-05
-1.47507e-07
1.26398e-05
-1.52664e-07
1.26189e-05
-1.57013e-07
1.25963e-05
-1.6054e-07
1.25722e-05
-1.63232e-07
1.25467e-05
-1.65069e-07
-1.66109e-07
1.252e-05
1.10916e-05
-1.40681e-08
1.10931e-05
-3.94162e-08
1.10939e-05
-5.88019e-08
1.10929e-05
-7.29726e-08
1.10899e-05
-8.44281e-08
1.10852e-05
-9.44339e-08
1.10787e-05
-1.03108e-07
1.10702e-05
-1.10549e-07
1.106e-05
-1.17018e-07
1.10478e-05
-1.22705e-07
1.10339e-05
-1.27679e-07
1.10184e-05
-1.31956e-07
1.10013e-05
-1.35545e-07
1.09827e-05
-1.38451e-07
1.09628e-05
-1.4067e-07
1.09418e-05
-1.42203e-07
1.09198e-05
-1.43049e-07
-1.43271e-07
1.0897e-05
9.65635e-06
-1.5206e-08
9.65884e-06
-4.19083e-08
9.6605e-06
-6.04575e-08
9.66004e-06
-7.25075e-08
9.65764e-06
-8.20343e-08
9.65352e-06
-9.03081e-08
9.6476e-06
-9.71972e-08
9.63992e-06
-1.0286e-07
9.63055e-06
-1.0765e-07
9.6196e-06
-1.11758e-07
9.60716e-06
-1.15236e-07
9.59331e-06
-1.18109e-07
9.57817e-06
-1.20403e-07
9.56185e-06
-1.22135e-07
9.54449e-06
-1.23312e-07
9.52623e-06
-1.2394e-07
9.50719e-06
-1.24009e-07
-1.2354e-07
9.48746e-06
8.40731e-06
-1.71605e-08
8.4111e-06
-4.57001e-08
8.41313e-06
-6.2485e-08
8.41298e-06
-7.23578e-08
8.4113e-06
-8.03559e-08
8.40807e-06
-8.7077e-08
8.40309e-06
-9.22177e-08
8.39641e-06
-9.61794e-08
8.38817e-06
-9.94178e-08
8.37852e-06
-1.02098e-07
8.36753e-06
-1.04254e-07
8.35534e-06
-1.05915e-07
8.34205e-06
-1.07114e-07
8.32779e-06
-1.07875e-07
8.31269e-06
-1.08208e-07
8.29687e-06
-1.08123e-07
8.2805e-06
-1.07635e-07
-1.06791e-07
8.26375e-06
7.32004e-06
-1.99156e-08
7.32622e-06
-5.18815e-08
7.32828e-06
-6.45433e-08
7.32787e-06
-7.19515e-08
7.3264e-06
-7.88798e-08
7.32366e-06
-8.43388e-08
7.31945e-06
-8.80077e-08
7.31385e-06
-9.05814e-08
7.30698e-06
-9.25444e-08
7.2989e-06
-9.40256e-08
7.28971e-06
-9.50635e-08
7.2795e-06
-9.57051e-08
7.26838e-06
-9.59921e-08
7.25646e-06
-9.59511e-08
7.24385e-06
-9.56001e-08
7.23068e-06
-9.49496e-08
7.21704e-06
-9.39955e-08
-9.26823e-08
7.20293e-06
6.3722e-06
-2.20453e-08
6.38167e-06
-6.13573e-08
6.38524e-06
-6.81127e-08
6.38626e-06
-7.29657e-08
6.38633e-06
-7.89525e-08
6.38513e-06
-8.3141e-08
6.38267e-06
-8.55517e-08
6.37918e-06
-8.7088e-08
6.37474e-06
-8.81076e-08
6.36938e-06
-8.86635e-08
6.36312e-06
-8.88045e-08
6.35602e-06
-8.8599e-08
6.34812e-06
-8.81001e-08
6.33952e-06
-8.73443e-08
6.33028e-06
-8.63604e-08
6.32051e-06
-8.51811e-08
6.31033e-06
-8.38204e-08
-8.23005e-08
6.29995e-06
5.54852e-06
-2.51028e-08
5.56054e-06
-7.33734e-08
5.57007e-06
-7.76432e-08
5.5789e-06
-8.17967e-08
5.58706e-06
-8.71171e-08
5.59355e-06
-8.96255e-08
5.59814e-06
-9.01463e-08
5.60096e-06
-8.9902e-08
5.60205e-06
-8.92033e-08
5.60147e-06
-8.80809e-08
5.59927e-06
-8.66059e-08
5.59554e-06
-8.48692e-08
5.59038e-06
-8.2938e-08
5.5839e-06
-8.08622e-08
5.57622e-06
-7.86811e-08
5.5675e-06
-7.64662e-08
5.55792e-06
-7.42326e-08
-7.22201e-08
5.54784e-06
4.87817e-06
-7.56701e-08
4.90891e-06
-1.04112e-07
4.93325e-06
-1.01984e-07
4.94898e-06
-9.75186e-08
4.95733e-06
-9.54695e-08
4.9592e-06
-9.14961e-08
4.95542e-06
-8.63677e-08
4.94676e-06
-8.12465e-08
4.93396e-06
-7.6398e-08
4.91768e-06
-7.17991e-08
4.89852e-06
-6.74449e-08
4.87699e-06
-6.3347e-08
4.85356e-06
-5.95046e-08
4.82861e-06
-5.59106e-08
4.80249e-06
-5.25586e-08
4.7755e-06
-4.94841e-08
4.74797e-06
-4.66958e-08
-4.46005e-08
4.72035e-06
4.12701e-06
4.02289e-06
3.92091e-06
3.82339e-06
3.72792e-06
3.63643e-06
3.55006e-06
3.46881e-06
3.39241e-06
3.32062e-06
3.25317e-06
3.18982e-06
3.13032e-06
3.07441e-06
3.02185e-06
2.97237e-06
2.92567e-06
2.88107e-06
-2.3845e-07
2.3845e-07
-4.82614e-07
2.44163e-07
-6.63285e-07
1.80672e-07
-7.44071e-07
8.07852e-08
-7.11078e-07
-3.29926e-08
-5.5714e-07
-1.53938e-07
-2.42467e-07
-3.14673e-07
2.34344e-07
-4.76811e-07
8.40831e-07
-6.06486e-07
1.5377e-06
-6.9687e-07
2.27688e-06
-7.39182e-07
3.01927e-06
-7.42387e-07
3.73765e-06
-7.18376e-07
4.41483e-06
-6.77183e-07
5.04107e-06
-6.26245e-07
5.61177e-06
-5.70696e-07
6.12547e-06
-5.13697e-07
6.58223e-06
-4.56768e-07
6.98236e-06
-4.00124e-07
7.32537e-06
-3.43012e-07
7.6091e-06
-2.83731e-07
7.82864e-06
-2.1954e-07
7.9762e-06
-1.47561e-07
8.0403e-06
-6.4097e-08
7.99391e-06
4.63852e-08
7.81892e-06
1.74993e-07
7.50565e-06
3.1327e-07
7.04711e-06
4.5854e-07
6.44205e-06
6.0506e-07
5.69856e-06
7.43494e-07
4.83833e-06
8.60226e-07
3.89962e-06
9.38713e-07
2.93935e-06
9.60266e-07
2.04748e-06
8.91875e-07
1.33928e-06
7.08195e-07
8.60882e-07
4.78399e-07
5.51059e-07
3.09823e-07
3.29806e-07
2.21253e-07
8.21257e-08
2.4768e-07
-2.91415e-07
3.7354e-07
-7.5835e-07
4.66936e-07
-1.19624e-06
4.37892e-07
-1.46179e-06
2.65544e-07
-1.46625e-06
4.46447e-09
-1.2467e-06
-2.19547e-07
-7.4277e-07
-5.03935e-07
5.95047e-08
-8.02274e-07
1.05729e-06
-9.97787e-07
2.03369e-06
-9.76401e-07
2.78023e-06
-7.46538e-07
3.1695e-06
-3.89267e-07
3.19406e-06
-2.45639e-08
2.99111e-06
2.02949e-07
2.75743e-06
2.33683e-07
2.63634e-06
1.2109e-07
2.64178e-06
-5.43914e-09
2.64809e-06
-6.31304e-09
2.52919e-06
1.18907e-07
2.16884e-06
3.60343e-07
1.52041e-06
6.4843e-07
6.07476e-07
9.12936e-07
-5.00498e-07
1.10797e-06
-1.71523e-06
1.21474e-06
-2.95874e-06
1.24351e-06
-4.17132e-06
1.21257e-06
-5.31032e-06
1.139e-06
-6.34856e-06
1.03824e-06
-7.27134e-06
9.22786e-07
-8.0731e-06
8.01759e-07
-8.75433e-06
6.81227e-07
-9.31911e-06
5.64784e-07
-9.77333e-06
4.54216e-07
-1.01235e-05
3.50214e-07
-1.03764e-05
2.52895e-07
-1.05388e-05
1.62357e-07
-1.06185e-05
7.9661e-08
-1.06266e-05
8.13555e-09
-1.05754e-05
-5.12105e-08
-1.04732e-05
-1.02185e-07
-1.03249e-05
-1.48269e-07
-1.01338e-05
-1.91095e-07
-9.90253e-06
-2.31301e-07
-9.63333e-06
-2.69201e-07
-9.32834e-06
-3.04992e-07
-8.9895e-06
-3.38831e-07
-8.61866e-06
-3.70846e-07
-8.21753e-06
-4.01125e-07
-7.78784e-06
-4.29696e-07
-7.33134e-06
-4.56494e-07
-6.85e-06
-4.81339e-07
-6.34608e-06
-5.0392e-07
-5.82229e-06
-5.23796e-07
-5.28187e-06
-5.40421e-07
-4.72867e-06
-5.53197e-07
-4.16713e-06
-5.61542e-07
-3.60216e-06
-5.64969e-07
-3.039e-06
-5.63158e-07
-2.48298e-06
-5.56017e-07
-1.93934e-06
-5.43644e-07
-1.41322e-06
-5.26125e-07
-9.09326e-07
-5.03889e-07
-4.31302e-07
-4.78024e-07
2.13151e-08
-4.52617e-07
4.44109e-07
-4.22794e-07
8.36344e-07
-3.92234e-07
1.19787e-06
-3.61523e-07
1.52885e-06
-3.30984e-07
1.82988e-06
-3.01029e-07
2.10186e-06
-2.71976e-07
2.34589e-06
-2.4403e-07
2.56321e-06
-2.17321e-07
2.75511e-06
-1.91904e-07
2.92286e-06
-1.67743e-07
3.06749e-06
-1.44635e-07
3.18976e-06
-1.22267e-07
3.29046e-06
-1.00703e-07
3.36991e-06
-7.94506e-08
3.4216e-06
-5.1687e-08
3.4314e-06
-9.80278e-09
3.38303e-06
4.83656e-08
3.28462e-06
9.84153e-08
3.14918e-06
1.35439e-07
2.99386e-06
1.55317e-07
2.83827e-06
1.55594e-07
2.69267e-06
1.456e-07
2.56934e-06
1.23332e-07
2.4763e-06
9.30397e-08
2.4071e-06
6.92007e-08
2.35666e-06
5.04351e-08
2.3197e-06
3.69625e-08
2.29148e-06
2.82183e-08
2.26952e-06
2.19571e-08
2.25396e-06
1.55631e-08
2.24849e-06
5.47402e-09
2.25799e-06
-9.50476e-09
2.28568e-06
-2.7683e-08
2.31162e-06
-2.59421e-08
2.29005e-06
2.15628e-08
2.14959e-06
1.40461e-07
1.77872e-06
3.70876e-07
1.08494e-06
6.9378e-07
1.08832e-07
9.76106e-07
-9.36001e-07
1.04483e-06
-1.88329e-06
9.47284e-07
-2.65885e-06
7.75569e-07
-3.25333e-06
5.94473e-07
-3.68203e-06
4.28697e-07
-3.96377e-06
2.81741e-07
-4.11491e-06
1.51148e-07
-4.14673e-06
3.18126e-08
-4.08513e-06
-6.15959e-08
-3.93745e-06
-1.47683e-07
-3.70653e-06
-2.30921e-07
-3.39315e-06
-3.13372e-07
-2.99814e-06
-3.95012e-07
-2.52373e-06
-4.74409e-07
-1.97521e-06
-5.48527e-07
-1.36123e-06
-6.1398e-07
-6.95593e-07
-6.65632e-07
5.10715e-09
-7.007e-07
7.18492e-07
-7.13385e-07
1.42369e-06
-7.05197e-07
2.1037e-06
-6.80006e-07
2.74532e-06
-6.41624e-07
3.33948e-06
-5.9416e-07
3.88111e-06
-5.41626e-07
4.36848e-06
-4.87372e-07
4.80123e-06
-4.3275e-07
5.17772e-06
-3.76492e-07
5.50023e-06
-3.22514e-07
5.76882e-06
-2.6859e-07
5.91485e-06
-1.46022e-07
5.79607e-06
1.18778e-07
5.33879e-06
4.57273e-07
4.58277e-06
7.5602e-07
3.67385e-06
9.08929e-07
2.81457e-06
8.59279e-07
2.17366e-06
6.40907e-07
1.83444e-06
3.39219e-07
1.4817e-07
1.68627e-06
9.26685e-08
1.45782e-07
1.66351e-07
1.70481e-07
2.66499e-07
8.05231e-08
4.50853e-07
-1.03569e-07
7.84869e-07
-3.67009e-07
1.27563e-06
-6.447e-07
1.87e-06
-9.09046e-07
2.51476e-06
-1.12157e-06
3.16815e-06
-1.25988e-06
3.79505e-06
-1.32377e-06
4.38166e-06
-1.32579e-06
4.92224e-06
-1.28297e-06
5.41614e-06
-1.21228e-06
5.86627e-06
-1.12731e-06
6.27715e-06
-1.03713e-06
6.65335e-06
-9.46899e-07
6.99865e-06
-8.58992e-07
7.31575e-06
-7.73873e-07
7.60638e-06
-6.90749e-07
7.87137e-06
-6.08003e-07
8.1112e-06
-5.2356e-07
8.32675e-06
-4.35088e-07
8.51922e-06
-3.40034e-07
8.69216e-06
-2.37031e-07
8.85847e-06
-1.1993e-07
9.01311e-06
2.03522e-08
9.13645e-06
1.89935e-07
9.20393e-06
3.91061e-07
9.18621e-06
6.22776e-07
9.05138e-06
8.78324e-07
8.76909e-06
1.14252e-06
8.31674e-06
1.39106e-06
7.68518e-06
1.59183e-06
6.87076e-06
1.7063e-06
5.86879e-06
1.71017e-06
4.7311e-06
1.61608e-06
3.59849e-06
1.44243e-06
2.60591e-06
1.21384e-06
1.83579e-06
1.01781e-06
1.2767e-06
9.32629e-07
8.55348e-07
8.88285e-07
5.36626e-07
7.56614e-07
3.18898e-07
4.83272e-07
2.30736e-07
9.26262e-08
3.62659e-07
-3.5147e-07
7.24486e-07
-8.65761e-07
1.30415e-06
-1.38194e-06
2.01281e-06
-1.70645e-06
2.6937e-06
-1.6573e-06
3.19979e-06
-1.25263e-06
3.48354e-06
-6.73017e-07
3.57248e-06
-1.13497e-07
3.52325e-06
2.52178e-07
3.39267e-06
3.64256e-07
3.14063e-06
3.73137e-07
2.60275e-06
5.32437e-07
1.66728e-06
9.29163e-07
3.50119e-07
1.43606e-06
-1.17915e-06
1.88961e-06
-2.74621e-06
2.21549e-06
-4.24049e-06
2.40722e-06
-5.59637e-06
2.46385e-06
-6.78276e-06
2.40113e-06
-7.78727e-06
2.24802e-06
-8.61154e-06
2.03685e-06
-9.26927e-06
1.79673e-06
-9.78139e-06
1.55035e-06
-1.01716e-05
1.31295e-06
-1.04628e-05
1.09305e-06
-1.06757e-05
8.94061e-07
-1.08269e-05
7.15976e-07
-1.09295e-05
5.56866e-07
-1.09934e-05
4.1407e-07
-1.10254e-05
2.84899e-07
-1.10301e-05
1.67031e-07
-1.10087e-05
5.83096e-08
-1.09568e-05
-4.37324e-08
-1.0867e-05
-1.4102e-07
-1.07352e-05
-2.33992e-07
-1.05616e-05
-3.21909e-07
-1.03477e-05
-4.04933e-07
-1.00957e-05
-4.83376e-07
-9.80733e-06
-5.57531e-07
-9.48465e-06
-6.27678e-07
-9.12939e-06
-6.94085e-07
-8.74325e-06
-7.56995e-07
-8.32778e-06
-8.16588e-07
-7.88455e-06
-8.72927e-07
-7.41515e-06
-9.25893e-07
-6.92137e-06
-9.75125e-07
-6.4053e-06
-1.01999e-06
-5.86952e-06
-1.05957e-06
-5.31721e-06
-1.09274e-06
-4.75216e-06
-1.11824e-06
-4.17885e-06
-1.13485e-06
-3.60225e-06
-1.14157e-06
-3.02769e-06
-1.13772e-06
-2.46059e-06
-1.12312e-06
-1.9062e-06
-1.09803e-06
-1.36905e-06
-1.06328e-06
-8.53125e-07
-1.01981e-06
-3.61479e-07
-9.69669e-07
1.01222e-07
-9.15319e-07
5.34986e-07
-8.56558e-07
9.38614e-07
-7.95863e-07
1.31194e-06
-7.34851e-07
1.65535e-06
-6.74388e-07
1.96957e-06
-6.1525e-07
2.25563e-06
-5.58042e-07
2.51477e-06
-5.03168e-07
2.74831e-06
-4.50864e-07
2.95762e-06
-4.01216e-07
3.14405e-06
-3.54166e-07
3.30892e-06
-3.09512e-07
3.45359e-06
-2.66931e-07
3.57883e-06
-2.25948e-07
3.68517e-06
-1.85788e-07
3.77918e-06
-1.45698e-07
3.87398e-06
-1.04598e-07
3.97937e-06
-5.70328e-08
4.08237e-06
-4.57838e-09
4.17091e-06
4.68942e-08
4.2327e-06
9.35289e-08
4.26098e-06
1.27316e-07
4.25692e-06
1.49661e-07
4.22364e-06
1.56613e-07
4.16617e-06
1.50511e-07
4.09249e-06
1.42879e-07
4.00478e-06
1.38144e-07
3.90386e-06
1.37883e-07
3.79014e-06
1.41942e-07
3.66489e-06
1.47199e-07
3.53338e-06
1.4708e-07
3.4075e-06
1.31352e-07
3.30621e-06
9.1789e-08
3.23933e-06
3.91935e-08
3.18014e-06
3.32468e-08
3.01228e-06
1.89422e-07
2.53915e-06
6.13589e-07
1.61617e-06
1.29386e-06
3.40152e-07
1.9698e-06
-8.8859e-07
2.20485e-06
-1.85907e-06
2.01532e-06
-2.54297e-06
1.63118e-06
-3.00032e-06
1.23292e-06
-3.29825e-06
8.92403e-07
-3.48637e-06
6.1681e-07
-3.5954e-06
3.90773e-07
-3.64132e-06
1.97067e-07
-3.63136e-06
2.18557e-08
-3.55088e-06
-1.42076e-07
-3.39258e-06
-3.05979e-07
-3.15457e-06
-4.68934e-07
-2.83639e-06
-6.31558e-07
-2.43831e-06
-7.93088e-07
-1.96215e-06
-9.50575e-07
-1.41321e-06
-1.09746e-06
-7.99556e-07
-1.22764e-06
-1.3439e-07
-1.3308e-06
5.62209e-07
-1.3973e-06
1.27193e-06
-1.42311e-06
1.97544e-06
-1.40871e-06
2.65583e-06
-1.36039e-06
3.30015e-06
-1.28595e-06
3.89978e-06
-1.19379e-06
4.45002e-06
-1.09186e-06
4.9491e-06
-9.86454e-07
5.39778e-06
-8.81431e-07
5.7993e-06
-7.78012e-07
6.15022e-06
-6.73433e-07
6.44114e-06
-5.59507e-07
6.71935e-06
-4.24235e-07
7.05328e-06
-2.15148e-07
7.38267e-06
1.27885e-07
7.5474e-06
5.91289e-07
7.43857e-06
1.01775e-06
7.05684e-06
1.24101e-06
6.45847e-06
1.23928e-06
5.67202e-06
1.12567e-06
1.01159e-06
4.8086e-06
1.46645e-07
-8.63203e-10
3.12837e-07
4.28894e-09
6.497e-07
-2.56339e-07
1.17876e-06
-6.32627e-07
1.82784e-06
-1.01609e-06
2.51022e-06
-1.32708e-06
3.13846e-06
-1.53728e-06
3.66599e-06
-1.6491e-06
4.08566e-06
-1.67955e-06
4.41311e-06
-1.65123e-06
4.67356e-06
-1.58623e-06
4.89268e-06
-1.50209e-06
5.0912e-06
-1.4108e-06
5.28332e-06
-1.31944e-06
5.47748e-06
-1.23128e-06
5.67767e-06
-1.14709e-06
5.88482e-06
-1.06614e-06
6.09791e-06
-9.86963e-07
6.31486e-06
-9.07698e-07
6.53312e-06
-8.26266e-07
6.75003e-06
-7.40473e-07
6.963e-06
-6.48055e-07
7.16946e-06
-5.46498e-07
7.36595e-06
-4.33518e-07
7.55373e-06
-3.07708e-07
7.74055e-06
-1.66466e-07
7.93525e-06
-4.76438e-09
8.1437e-06
1.82608e-07
8.3657e-06
4.0078e-07
8.58979e-06
6.54232e-07
8.78877e-06
9.43537e-07
8.91848e-06
1.26136e-06
8.92093e-06
1.58938e-06
8.73005e-06
1.89717e-06
8.29246e-06
2.14776e-06
7.60195e-06
2.3066e-06
6.69996e-06
2.34442e-06
5.6654e-06
2.2484e-06
4.63923e-06
2.04397e-06
3.78183e-06
1.79003e-06
3.15187e-06
1.51824e-06
2.71395e-06
1.19453e-06
2.4231e-06
7.74124e-07
2.25429e-06
2.61437e-07
2.22319e-06
-3.20367e-07
2.34077e-06
-9.83346e-07
2.61471e-06
-1.65587e-06
2.97517e-06
-2.06691e-06
3.27915e-06
-1.96127e-06
3.41005e-06
-1.38354e-06
3.36107e-06
-6.24037e-07
3.18202e-06
6.55622e-08
2.87041e-06
5.63781e-07
2.27187e-06
9.62803e-07
1.20759e-06
1.43741e-06
-2.87553e-07
2.02758e-06
-1.95901e-06
2.60062e-06
-3.56737e-06
3.04442e-06
-4.99472e-06
3.31695e-06
-6.19351e-06
3.41429e-06
-7.14831e-06
3.36201e-06
-7.87843e-06
3.19398e-06
-8.42529e-06
2.94798e-06
-8.83761e-06
2.66034e-06
-9.16117e-06
2.3604e-06
-9.43233e-06
2.06789e-06
-9.67523e-06
1.79325e-06
-9.90229e-06
1.54002e-06
-1.01168e-05
1.30753e-06
-1.03159e-05
1.09323e-06
-1.04941e-05
8.94128e-07
-1.06447e-05
7.07472e-07
-1.07617e-05
5.31092e-07
-1.08403e-05
3.63435e-07
-1.08767e-05
2.03504e-07
-1.08689e-05
5.05187e-08
-1.08169e-05
-9.57661e-08
-1.07218e-05
-2.36093e-07
-1.05857e-05
-3.70164e-07
-1.04097e-05
-4.97847e-07
-1.01955e-05
-6.19128e-07
-9.94477e-06
-7.3414e-07
-9.65917e-06
-8.43126e-07
-9.34044e-06
-9.46413e-07
-8.99014e-06
-1.04438e-06
-8.60972e-06
-1.13741e-06
-8.2005e-06
-1.22581e-06
-7.76369e-06
-1.30973e-06
-7.30057e-06
-1.38902e-06
-6.81256e-06
-1.46314e-06
-6.30142e-06
-1.53112e-06
-5.76949e-06
-1.5915e-06
-5.21978e-06
-1.64245e-06
-4.6561e-06
-1.68191e-06
-4.08308e-06
-1.70788e-06
-3.50597e-06
-1.71867e-06
-2.9305e-06
-1.7132e-06
-2.36244e-06
-1.69117e-06
-1.80733e-06
-1.65314e-06
-1.27017e-06
-1.60044e-06
-7.54894e-07
-1.53509e-06
-2.65e-07
-1.45956e-06
1.96181e-07
-1.3765e-06
6.27425e-07
-1.2878e-06
1.02817e-06
-1.19661e-06
1.39834e-06
-1.10502e-06
1.73845e-06
-1.0145e-06
2.04941e-06
-9.26213e-07
2.33242e-06
-8.41044e-07
2.58882e-06
-7.5957e-07
2.82007e-06
-6.82117e-07
3.02765e-06
-6.08798e-07
3.21303e-06
-5.39541e-07
3.37763e-06
-4.74119e-07
3.5229e-06
-4.12192e-07
3.65016e-06
-3.53208e-07
3.7606e-06
-2.9623e-07
3.85535e-06
-2.40455e-07
3.93632e-06
-1.85564e-07
4.00985e-06
-1.3056e-07
4.08151e-06
-7.62393e-08
4.15337e-06
-2.49658e-08
4.22375e-06
2.31515e-08
4.28736e-06
6.3704e-08
4.34022e-06
9.67956e-08
4.37549e-06
1.21345e-07
4.38832e-06
1.37677e-07
4.38094e-06
1.50261e-07
4.35567e-06
1.6342e-07
4.31347e-06
1.80083e-07
4.25302e-06
2.02385e-07
4.17055e-06
2.29675e-07
4.06278e-06
2.54846e-07
3.93219e-06
2.61942e-07
3.78879e-06
2.35189e-07
3.6332e-06
1.94782e-07
3.41452e-06
2.51931e-07
2.999e-06
6.04934e-07
2.22905e-06
1.38354e-06
1.1162e-06
2.40671e-06
-2.28887e-08
3.10888e-06
-9.08399e-07
3.09036e-06
-1.50111e-06
2.60803e-06
-1.9145e-06
2.04457e-06
-2.23469e-06
1.55311e-06
-2.49558e-06
1.15329e-06
-2.70057e-06
8.21801e-07
-2.84365e-06
5.33857e-07
-2.91715e-06
2.70564e-07
-2.9182e-06
2.29059e-08
-2.84297e-06
-2.17302e-07
-2.69215e-06
-4.56797e-07
-2.46483e-06
-6.96255e-07
-2.16011e-06
-9.36285e-07
-1.7778e-06
-1.17539e-06
-1.31903e-06
-1.40934e-06
-7.88649e-07
-1.62784e-06
-1.95006e-07
-1.82128e-06
4.46364e-07
-1.97217e-06
1.11852e-06
-2.06945e-06
1.80151e-06
-2.1061e-06
2.4768e-06
-2.084e-06
3.12805e-06
-2.01164e-06
3.74287e-06
-1.90077e-06
4.31331e-06
-1.76424e-06
4.83545e-06
-1.614e-06
5.30854e-06
-1.45955e-06
5.73399e-06
-1.30688e-06
6.11427e-06
-1.15829e-06
6.45198e-06
-1.01115e-06
6.74792e-06
-8.55445e-07
6.99916e-06
-6.75475e-07
7.23042e-06
-4.46402e-07
7.50332e-06
-1.4502e-07
7.85295e-06
2.41664e-07
8.20366e-06
6.67035e-07
8.41378e-06
1.0309e-06
8.36951e-06
1.28354e-06
7.99476e-06
1.50043e-06
1.67607e-06
7.33028e-06
3.2242e-08
-3.31052e-08
4.32785e-07
-3.96254e-07
1.11027e-06
-9.33822e-07
1.84513e-06
-1.36749e-06
2.47143e-06
-1.64239e-06
2.9224e-06
-1.77805e-06
3.19901e-06
-1.81389e-06
3.33941e-06
-1.7895e-06
3.3952e-06
-1.73534e-06
3.41441e-06
-1.67043e-06
3.4327e-06
-1.60452e-06
3.47197e-06
-1.54136e-06
3.5427e-06
-1.48153e-06
3.64748e-06
-1.42422e-06
3.78438e-06
-1.36818e-06
3.94934e-06
-1.31204e-06
4.13754e-06
-1.25434e-06
4.34418e-06
-1.1936e-06
4.56475e-06
-1.12827e-06
4.7952e-06
-1.05671e-06
5.03193e-06
-9.77202e-07
5.27183e-06
-8.87955e-07
5.51252e-06
-7.87187e-07
5.75214e-06
-6.73139e-07
5.98859e-06
-5.44161e-07
6.22081e-06
-3.98685e-07
6.45093e-06
-2.34884e-07
6.6843e-06
-5.07635e-08
6.92969e-06
1.55385e-07
7.19791e-06
3.86017e-07
7.49574e-06
6.45704e-07
7.81705e-06
9.40049e-07
8.13455e-06
1.27188e-06
8.39677e-06
1.63495e-06
8.53598e-06
2.00854e-06
8.48547e-06
2.35711e-06
8.19676e-06
2.63313e-06
7.66236e-06
2.7828e-06
6.94134e-06
2.76498e-06
6.15392e-06
2.57746e-06
5.42246e-06
2.2497e-06
4.81125e-06
1.80575e-06
4.32889e-06
1.25648e-06
3.96788e-06
6.22447e-07
3.7299e-06
-8.23835e-08
3.61856e-06
-8.72012e-07
3.60986e-06
-1.64717e-06
3.60534e-06
-2.06239e-06
3.47454e-06
-1.83047e-06
3.1599e-06
-1.06889e-06
2.65482e-06
-1.1896e-07
1.9452e-06
7.75177e-07
9.3943e-07
1.56955e-06
-4.18726e-07
2.32096e-06
-2.002e-06
3.02068e-06
-3.56229e-06
3.58788e-06
-4.92504e-06
3.96337e-06
-6.01827e-06
4.13766e-06
-6.83817e-06
4.13685e-06
-7.42384e-06
3.99995e-06
-7.83311e-06
3.77129e-06
-8.12985e-06
3.49071e-06
-8.37108e-06
3.18921e-06
-8.59778e-06
2.88705e-06
-8.83189e-06
2.59451e-06
-9.07891e-06
2.31491e-06
-9.33353e-06
2.04788e-06
-9.58534e-06
1.79182e-06
-9.823e-06
1.54519e-06
-1.00367e-05
1.30691e-06
-1.02189e-05
1.07634e-06
-1.03646e-05
8.53137e-07
-1.04706e-05
6.3716e-07
-1.05356e-05
4.28371e-07
-1.05587e-05
2.26647e-07
-1.05405e-05
3.22862e-08
-1.04813e-05
-1.54929e-07
-1.03825e-05
-3.34865e-07
-1.02455e-05
-5.07194e-07
-1.00716e-05
-6.71729e-07
-9.86237e-06
-8.28384e-07
-9.61927e-06
-9.77239e-07
-9.34384e-06
-1.11855e-06
-9.03751e-06
-1.25275e-06
-8.70151e-06
-1.38038e-06
-8.33688e-06
-1.50204e-06
-7.94444e-06
-1.61826e-06
-7.52482e-06
-1.72935e-06
-7.07863e-06
-1.8352e-06
-6.60661e-06
-1.93516e-06
-6.10987e-06
-2.02786e-06
-5.59019e-06
-2.11119e-06
-5.05021e-06
-2.18242e-06
-4.49367e-06
-2.23846e-06
-3.92533e-06
-2.27622e-06
-3.35091e-06
-2.29309e-06
-2.77674e-06
-2.28737e-06
-2.20932e-06
-2.25859e-06
-1.65489e-06
-2.20758e-06
-1.11896e-06
-2.13636e-06
-6.06073e-07
-2.04798e-06
-1.19914e-07
-1.94572e-06
3.36784e-07
-1.8332e-06
7.6268e-07
-1.7137e-06
1.15739e-06
-1.59132e-06
1.52104e-06
-1.46868e-06
1.85437e-06
-1.34783e-06
2.15851e-06
-1.23035e-06
2.43483e-06
-1.11736e-06
2.68485e-06
-1.0096e-06
2.91017e-06
-9.07429e-07
3.11235e-06
-8.10978e-07
3.29294e-06
-7.20137e-07
3.45344e-06
-6.34622e-07
3.59526e-06
-5.54006e-07
3.71976e-06
-4.77709e-07
3.82853e-06
-4.05004e-07
3.92335e-06
-3.3527e-07
4.00585e-06
-2.68069e-07