/*--------------------------------*- C++ -*----------------------------------*\
  =========                 |
  \\      /  F ield         | OpenFOAM: The Open Source CFD Toolbox
   \\    /   O peration     | Website:  https://openfoam.org
    \\  /    A nd           | Version:  9
     \\/     M anipulation  |
\*---------------------------------------------------------------------------*/
FoamFile
{
    format      ascii;
    class       volScalarField;
    location    "0.06";
    object      p;
}
// * * * * * * * * * * * * * * * * * * * * * * * * * * * * * * * * * * * * * //

dimensions      [0 2 -2 0 0 0 0];

internalField   nonuniform List<scalar> 
12225
(
165.784
154.289
146.458
140.303
135.347
131.272
127.882
125.012
122.56
120.485
118.729
117.241
115.975
114.916
114.054
113.373
112.84
112.24
164.786
154.074
146.391
140.242
135.293
131.225
127.84
124.975
122.525
120.446
118.688
117.196
115.928
114.861
113.983
113.269
112.666
111.95
164.551
153.756
146.23
140.122
135.198
131.15
127.771
124.91
122.464
120.385
118.623
117.122
115.84
114.749
113.83
113.042
112.311
111.403
161.807
153.188
145.967
139.943
135.05
131.013
127.64
124.792
122.361
120.29
118.53
117.024
115.728
114.614
113.653
112.795
111.958
110.995
161.033
152.6
145.599
139.673
134.827
130.826
127.479
124.65
122.232
120.165
118.402
116.889
115.58
114.441
113.439
112.525
111.628
110.672
158.856
151.779
145.133
139.319
134.537
130.564
127.234
124.431
122.037
119.986
118.234
116.725
115.407
114.248
113.212
112.257
111.329
110.381
156.33
150.834
144.561
138.859
134.148
130.229
126.944
124.176
121.808
119.772
118.021
116.507
115.178
114.002
112.943
111.964
111.024
110.092
157.686
150.172
143.859
138.275
133.663
129.798
126.552
123.825
121.494
119.484
117.754
116.251
114.922
113.734
112.657
111.66
110.71
109.788
154.88
149.029
143.055
137.569
133.042
129.245
126.076
123.417
121.132
119.15
117.434
115.935
114.604
113.409
112.323
111.318
110.368
109.459
153.136
148.756
142.133
136.697
132.267
128.564
125.477
122.885
120.654
118.715
117.036
115.566
114.252
113.06
111.97
110.96
110.009
109.108
153.689
147.773
141.02
135.638
131.316
127.727
124.761
122.272
120.113
118.226
116.578
115.124
113.82
112.635
111.551
110.547
109.604
108.716
159.629
147.348
139.765
134.389
130.23
126.809
123.969
121.57
119.489
117.668
116.073
114.659
113.384
112.219
111.147
110.15
109.214
108.332
158.856
145.93
138.185
132.916
128.962
125.73
123.056
120.799
118.825
117.08
115.534
114.15
112.895
111.748
110.69
109.704
108.774
107.894
160.356
143.989
135.737
130.822
127.233
124.301
121.846
119.737
117.883
116.243
114.782
113.464
112.26
111.153
110.126
109.162
108.248
107.379
149.54
136.756
131.593
127.799
124.826
122.342
120.242
118.392
116.721
115.218
113.861
112.617
111.465
110.395
109.396
108.456
107.565
106.716
126.636
127.957
125.957
123.768
121.699
119.798
118.101
116.545
115.112
113.803
112.596
111.468
110.411
109.418
108.48
107.588
106.733
105.909
108.045
117.23
119.052
118.728
117.766
116.658
115.505
114.334
113.205
112.133
111.1
110.104
109.15
108.236
107.357
106.511
105.696
104.914
109.252
110.52
112.439
113.18
113.189
112.837
112.206
111.449
110.684
109.911
109.115
108.313
107.524
106.75
105.987
105.235
104.496
103.768
96.7221
103.965
107.256
108.328
108.85
108.993
108.85
108.531
108.098
107.579
106.993
106.367
105.724
105.071
104.41
103.745
103.082
102.422
105.816
104.164
104.433
105.12
105.632
105.824
105.898
105.856
105.68
105.389
105.018
104.586
104.105
103.591
103.054
102.499
101.93
101.354
103.663
101.932
101.962
102.614
103.332
103.907
104.171
104.257
104.221
104.063
103.799
103.457
103.058
102.619
102.148
101.648
101.123
100.577
93.1434
96.3024
98.5714
100.052
101.222
102.023
102.542
102.838
102.967
102.931
102.777
102.536
102.223
101.855
101.448
101.015
100.557
100.077
91.5343
94.5792
97.0217
98.7371
99.943
100.84
101.486
101.934
102.152
102.188
102.094
101.908
101.648
101.323
100.947
100.536
100.096
99.6312
86.8777
92.4888
95.4613
97.3812
98.8821
99.9758
100.729
101.224
101.499
101.601
101.565
101.431
101.212
100.925
100.588
100.213
99.8074
99.3749
91.1812
92.118
94.553
96.6487
98.1794
99.3349
100.172
100.734
101.068
101.215
101.227
101.116
100.922
100.655
100.335
99.9771
99.5853
99.1624
88.4161
91.0943
93.8127
96.0673
97.6777
98.9079
99.8146
100.418
100.77
100.937
100.961
100.888
100.715
100.472
100.176
99.8398
99.4642
99.0548
85.8175
90.2403
93.2582
95.6075
97.3465
98.6257
99.5735
100.209
100.587
100.776
100.825
100.75
100.582
100.34
100.041
99.7226
99.3594
98.9587
84.1867
89.7066
92.9586
95.3657
97.1538
98.4648
99.4322
100.079
100.465
100.665
100.72
100.653
100.493
100.266
100.007
99.6799
99.3197
98.9193
83.7457
89.4262
92.7812
95.2282
97.0383
98.3707
99.3519
100.019
100.416
100.618
100.668
100.6
100.441
100.221
99.9525
99.6425
99.2906
98.8946
85.798
89.4513
92.7013
95.1716
97.0135
98.3497
99.323
99.9816
100.378
100.581
100.635
100.57
100.42
100.212
99.9535
99.6469
99.2923
98.892
89.5901
89.5747
89.7385
89.9493
89.8932
89.5587
89.0346
88.4684
87.9779
87.6336
87.3991
87.0914
86.661
86.1856
85.7457
85.368
84.9534
84.493
83.9956
83.3805
82.5526
81.7706
81.1554
80.549
79.9178
79.2885
78.5619
77.7175
76.7933
75.8038
74.7248
73.5399
72.2397
70.8302
69.3242
67.7425
66.1138
64.4728
62.8585
61.3119
59.8759
58.5936
57.5082
56.6582
56.0754
55.7804
55.7819
56.0868
56.7067
57.638
58.8567
60.3265
62.0004
63.8251
65.7375
67.6647
69.5287
71.257
72.7956
74.1239
75.2622
76.2604
77.1891
78.1205
79.0893
80.0878
81.092
82.131
83.167
84.0426
84.8035
85.4071
85.7174
85.5897
84.5969
82.6452
79.8305
76.3844
72.8566
70.3147
69.7639
71.5245
75.1542
79.3628
83.2928
84.4327
85.9299
85.4256
87.0716
86.2577
79.0382
69.1876
58.9599
49.343
41.0246
34.2117
29.0684
25.5778
23.7125
23.3603
24.4095
26.6671
29.9262
33.9577
38.5428
43.4783
48.5928
53.7449
58.8197
63.7202
68.3633
72.678
76.6095
80.1304
83.2409
85.9603
88.3199
90.353
92.0706
93.4549
94.4673
95.0634
95.2249
94.9798
94.4178
93.6635
92.7834
91.8233
90.7743
89.5813
88.1751
86.5087
84.5772
82.4114
80.0596
77.5707
74.9862
72.3412
69.6725
67.0251
64.4535
62.0169
59.775
57.788
56.1166
54.8203
53.934
53.503
53.6082
54.3557
55.6896
57.0243
57.597
57.5244
57.8599
59.1115
60.7491
62.3211
63.6681
64.6528
65.0707
64.9125
64.2369
63.1334
61.6318
59.7774
57.8316
56.1519
54.9297
54.2274
53.9767
54.0265
54.174
54.2676
54.2076
53.9686
53.5615
53.0335
52.4459
51.7458
89.0766
89.0496
89.197
89.2301
89.043
88.6385
88.1107
87.5814
87.1224
86.7745
86.5974
86.4428
86.2119
86.0761
85.9406
85.5914
85.1011
84.5471
83.8869
83.096
82.3277
81.6536
80.9482
79.9718
79.488
79.0488
78.4164
77.5761
76.6128
75.5651
74.4072
73.1189
71.699
70.1681
68.5508
66.8764
65.1771
63.4885
61.8472
60.2913
58.8596
57.593
56.533
55.7172
55.1764
54.9352
55.0112
55.4064
56.1212
57.121
58.3793
59.8657
61.5454
63.3699
65.2776
67.1977
69.0589
70.7942
72.3455
73.6835
74.8324
75.8492
76.8038
77.7646
78.7789
79.8517
80.985
82.1912
83.3457
84.3578
85.1902
85.6821
85.7415
85.2611
83.9145
81.6539
78.5253
74.6568
70.5575
67.3221
66.2005
67.8619
71.9406
77.2472
82.2662
85.1941
87.1225
85.6916
83.984
80.4429
72.3521
63.303
53.9266
45.3317
37.7822
31.5918
26.8906
23.7672
22.2075
22.1114
23.3414
25.7409
29.1168
33.2529
37.9286
42.9394
48.112
53.3074
58.4154
63.3449
68.0165
72.3605
76.3194
79.8591
82.9762
85.6911
88.0388
90.0629
91.7857
93.1947
94.2457
94.8803
95.0621
94.8189
94.2506
93.4775
92.5828
91.6182
90.5745
89.3924
87.998
86.3401
84.4127
82.2483
79.8974
77.4099
74.8271
72.183
69.5134
66.8635
64.2895
61.8505
59.6026
57.6085
55.9335
54.6088
53.6753
53.2092
53.2616
53.8561
54.9862
56.1974
56.7372
56.8807
57.6943
59.2705
61.0111
62.5615
63.8872
64.8381
65.2487
65.0326
64.3122
63.1775
61.6322
59.7174
57.7285
56.0466
54.8531
54.1672
53.9302
53.9948
54.1627
54.2691
54.2123
53.9652
53.5515
53.0152
52.4229
51.761
89.2419
89.0217
88.5915
88.0159
87.3339
86.6258
85.9808
85.463
85.1208
84.9735
85.0265
85.2316
85.5382
85.8974
86.0949
86.0184
85.7291
85.2147
84.5573
83.718
82.6996
82.0044
81.377
80.6594
79.8809
79.0631
78.176
77.174
76.0468
74.8029
73.444
71.9685
70.3789
68.6916
66.9323
65.1348
63.3361
61.5759
59.8933
58.3275
56.915
55.691
54.6895
53.9434
53.4844
53.3384
53.5137
53.9928
54.7192
55.712
56.9656
58.4546
60.1402
61.9738
63.8972
65.8459
67.7532
69.5513
71.1814
72.6139
73.8623
74.9724
76.013
77.0699
78.2273
79.5338
80.98
82.5113
84.0443
85.4216
86.5478
87.1893
87.1067
86.1276
84.1995
81.3291
77.3658
72.3943
67.0695
62.7084
60.6275
61.8711
66.2943
72.6525
79.6713
85.3035
86.1502
83.3069
78.0821
71.7459
64.1303
56.23
48.1728
40.6184
33.8273
28.1835
23.8838
21.084
19.7831
19.9159
21.3676
23.9864
27.5694
31.8949
36.7358
41.8832
47.1607
52.4333
57.6006
62.5819
67.3053
71.7041
75.7174
79.2986
82.4338
85.1427
87.4648
89.4602
91.1749
92.617
93.7401
94.4509
94.6858
94.468
93.8968
93.1037
92.1923
91.2232
90.1876
89.0206
87.6404
85.9914
84.068
81.9057
79.5574
77.0735
74.4937
71.8501
69.1765
66.5179
63.9314
61.48
59.2236
57.2147
55.5069
54.1563
53.2171
52.7191
52.689
53.1451
54.0539
55.1076
55.8954
56.6005
57.7619
59.4486
61.2723
62.9144
64.2296
65.1028
65.4312
65.166
64.3794
63.1394
61.4992
59.5887
57.6676
56.0166
54.7834
54.075
53.8238
53.9131
54.1114
54.2356
54.1874
53.9407
53.5349
52.9975
52.4143
51.7783
88.8364
88.351
87.4561
86.5456
85.7028
84.956
84.3309
83.8593
83.587
83.538
83.725
84.1353
84.7266
85.4257
86.0433
86.3522
86.2325
85.7992
85.1012
84.3588
83.5056
82.6213
81.7291
80.8245
79.8697
78.8206
77.6663
76.393
74.9978
73.478
71.8393
70.0927
68.2542
66.3448
64.3909
62.4243
60.4809
58.5993
56.8195
55.1814
53.7236
52.4827
51.4917
50.779
50.365
50.2511
50.4353
50.939
51.7977
52.9423
54.3279
55.9207
57.6876
59.5897
61.5818
63.6146
65.6346
67.5863
69.419
71.0999
72.623
74.0116
75.3179
76.6136
77.976
79.4717
81.1182
82.8644
84.6337
86.2762
87.5678
88.2629
88.0116
86.7187
84.4894
81.244
76.4735
70.1851
63.1323
57.0368
53.7536
54.5094
59.2899
66.4402
74.911
79.5841
79.8
75.689
69.8867
63.4243
56.3791
49.1982
42.007
35.2095
29.056
23.9067
20.0095
17.5455
16.5466
16.9838
18.7412
21.6484
25.4991
30.069
35.1223
40.4426
45.8485
51.2086
56.4372
61.4723
66.2551
70.7239
74.8146
78.4665
81.6466
84.3595
86.6447
88.5833
90.2598
91.7154
92.922
93.7363
94.0673
93.9054
93.3519
92.5521
91.6302
90.6585
89.6316
88.4795
87.1136
85.4746
83.5581
81.4025
79.0615
76.5844
74.009
71.3648
68.6835
66.0106
63.4063
60.9345
58.6542
56.6213
54.8908
53.5121
52.5289
51.9851
51.8939
52.2248
52.9463
53.9579
55.0233
56.1303
57.5857
59.476
61.4579
63.1872
64.5297
65.3902
65.6549
65.2972
64.4094
63.078
61.3726
59.428
57.49
55.8077
54.5562
53.8411
53.6413
53.7934
54.0496
54.211
54.1768
53.9297
53.5195
52.9781
52.3838
51.7359
87.3446
86.798
85.9954
85.2035
84.4767
83.8471
83.3469
82.9973
82.8229
82.8477
83.0877
83.5613
84.2455
85.0602
85.8245
86.2914
86.2863
85.9919
85.4512
84.7365
83.8875
82.9345
81.8843
80.7465
79.5139
78.1658
76.6922
75.0906
73.3661
71.5235
69.5733
67.5305
65.417
63.2582
61.083
58.9237
56.8156
54.7966
52.9064
51.1859
49.6759
48.4152
47.4407
46.7836
46.4643
46.491
46.8451
47.5225
48.4903
49.7454
51.2587
52.9883
54.8884
56.9132
59.0197
61.1687
63.3242
65.4539
67.5289
69.5248
71.4244
73.2252
74.9462
76.6248
78.3058
80.028
81.8076
83.6139
85.3548
86.8809
87.9856
88.4587
88.1679
87.0548
84.9593
81.6461
76.6541
69.8702
61.7685
54.072
49.055
48.6375
52.8015
59.799
66.8906
70.9279
70.687
66.9906
61.922
55.9693
49.3958
42.6905
36.0431
29.7575
24.0609
19.2829
15.7185
13.5901
12.9351
13.7005
15.7793
19.0008
23.1497
27.9949
33.2893
38.8034
44.3463
49.7863
55.0526
60.1096
64.9233
69.4463
73.6152
77.3589
80.6237
83.3856
85.6638
87.5292
89.1308
90.562
91.8214
92.7407
93.1884
93.1129
92.6076
91.8285
90.9146
89.9489
88.9308
87.7902
86.4352
84.806
82.9004
80.758
78.4301
75.962
73.3891
70.7407
68.0477
65.3542
62.7227
60.2231
57.9154
55.8517
54.0852
52.67
51.6506
51.058
50.8868
51.1116
51.728
52.7283
53.9976
55.4637
57.2752
59.415
61.5327
63.3415
64.742
65.6086
65.8108
65.363
64.378
62.9414
61.1408
59.1484
57.2057
55.5288
54.273
53.5732
53.4231
53.6533
53.9772
54.1767
54.1555
53.9126
53.5014
52.9607
52.3538
51.6963
86.0356
85.618
85.0579
84.4436
83.8337
83.2895
82.866
82.604
82.5175
82.6114
82.8988
83.3938
84.0761
84.832
85.5422
85.9425
86.0116
85.8094
85.3634
84.6945
83.8283
82.7827
81.5696
80.2027
78.6861
77.0214
75.2101
73.2588
71.1803
68.9908
66.7088
64.3548
61.9517
59.5247
57.1021
54.7157
52.4014
50.1993
48.1535
46.3096
44.7128
43.406
42.4293
41.8176
41.6014
41.8161
42.3159
43.1939
44.4087
45.9281
47.7104
49.7074
51.8665
54.1351
56.4649
58.8189
61.1725
63.5113
65.8252
68.1057
70.3475
72.5502
74.7144
76.8357
78.9041
80.9076
82.8272
84.6191
86.2105
87.5204
88.461
88.915
88.7748
87.9369
86.2419
83.4036
79.0175
72.8436
65.1943
57.4722
52.0151
50.4797
52.8492
57.7663
62.6849
65.0576
63.9724
60.4233
55.5968
49.8142
43.5056
37.0974
30.7676
24.7577
19.2906
14.7064
11.3547
9.49141
9.13845
10.2286
12.6425
16.1966
20.6618
25.7993
31.3524
37.0786
42.776
48.307
53.6074
58.6604
63.4588
67.9821
72.1846
75.9977
79.3578
82.2091
84.5335
86.3686
87.9024
89.2803
90.5388
91.5286
92.0809
92.1052
91.6773
90.9523
90.0731
89.127
88.12
86.9864
85.6373
84.016
82.1237
79.9992
77.6881
75.2282
72.6516
69.9899
67.2772
64.558
61.8944
59.3592
57.0163
54.9173
53.1139
51.6604
50.5976
49.953
49.7167
49.8607
50.3872
51.3677
52.825
54.6571
56.8185
59.2079
61.4927
63.4046
64.8466
65.7047
65.8632
65.3426
64.2516
62.7004
60.8246
58.8134
56.8789
55.2047
53.9517
53.2732
53.2072
53.521
53.9105
54.1448
54.1312
53.8855
53.469
52.9279
52.3154
51.6439
85.4978
85.2111
84.8213
84.3603
83.8897
83.4687
83.1491
82.966
82.9247
83.0211
83.2776
83.6993
84.2484
84.8393
85.3492
85.6116
85.6301
85.408
84.9446
84.2386
83.2949
82.1225
80.7342
79.1377
77.3411
75.3558
73.1955
70.8804
68.435
65.8872
63.2643
60.5911
57.8896
55.1809
52.4887
49.8422
47.2787
44.8433
42.5874
40.566
38.8335
37.4382
36.4219
35.8187
35.6413
35.8775
36.6303
37.799
39.3597
41.2607
43.4415
45.8375
48.3833
51.0188
53.6955
56.3751
59.0305
61.6466
64.2174
66.75
69.2614
71.765
74.2602
76.7257
79.121
81.3938
83.4884
85.352
86.9424
88.2275
89.1709
89.7225
89.8555
89.5301
88.5976
86.7986
83.7881
79.3595
73.6829
67.7376
63.2435
61.2027
61.547
63.2502
64.5571
63.8854
61.0391
56.6979
51.3783
45.3273
38.9935
32.645
26.4069
20.4666
15.0629
10.5632
7.34745
5.67446
5.58297
6.98076
9.71368
13.5694
18.303
23.6767
29.4424
35.3529
41.1955
46.8226
52.1683
57.2205
61.9904
66.4808
70.6712
74.4994
77.9129
80.8436
83.2367
85.0986
86.6072
87.9349
89.1683
90.187
90.8093
90.9249
90.5905
89.9471
89.1273
88.2149
87.2215
86.0913
84.7437
83.1279
81.2483
79.1419
76.8467
74.3916
71.8042
69.1192
66.3777
63.6281
60.9307
58.3571
55.9733
53.833
51.9879
50.4921
49.3832
48.6893
48.386
48.4406
48.8722
49.8397
51.4835
53.6754
56.1729
58.8252
61.3316
63.375
64.8396
65.6715
65.7941
65.2113
64.0275
62.3845
60.4532
58.4408
56.5428
54.9041
53.6737
53.0393
53.0317
53.4161
53.8518
54.1053
54.0945
53.8456
53.4244
52.8818
52.2667
51.5871
85.7163
85.5284
85.2676
84.9419
84.6086
84.3089
84.0892
83.9659
83.9347
83.9948
84.1583
84.4239
84.7618
85.1093
85.3628
85.4388
85.3146
84.9674
84.3815
83.5412
82.4403
81.0831
79.472
77.6063
75.4977
73.1659
70.6418
67.9653
65.1777
62.3169
59.4104
56.4759
53.5243
50.5644
47.6107
44.6894
41.8401
39.116
36.5804
34.3032
32.357
30.8109
29.713
29.0856
28.9507
29.3215
30.3208
31.8361
33.7879
36.1015
38.7046
41.5235
44.486
47.5291
50.6055
53.6735
56.6969
59.6514
62.5334
65.3548
68.1373
70.9039
73.6706
76.4261
79.1212
81.6787
84.0168
86.0729
87.8186
89.2505
90.3721
91.1917
91.7075
91.8936
91.6889
90.977
89.5515
87.2094
84.0331
80.5554
77.3473
74.8855
73.1962
71.6224
69.2644
65.6245
60.8801
55.3545
49.1989
42.6341
36.0421
29.568
23.2909
17.3488
11.9847
7.57382
4.50299
3.02489
3.17172
4.80509
7.74705
11.7725
16.6269
22.0783
27.9021
33.8659
39.7596
45.4277
50.7947
55.8384
60.572
65.0204
69.1817
72.9984
76.4081
79.3678
81.8189
83.7339
85.2495
86.5541
87.765
88.7873
89.445
89.6314
89.3926
88.8474
88.1044
87.2353
86.2565
85.1257
83.7749
82.162
80.293
78.2011
75.9166
73.4613
70.8584
68.1444
65.3681
62.5843
59.8516
57.2358
54.8042
52.615
50.7211
49.1763
48.0245
47.2628
46.8851
46.8502
47.1832
48.1118
49.9068
52.4567
55.325
58.2612
61.0191
63.2268
64.7269
65.5244
65.6044
64.9728
63.7222
62.011
60.0544
58.0812
56.2469
54.6486
53.4461
52.8509
52.9244
53.3566
53.806
54.0524
54.0318
53.7789
53.3579
52.8164
52.2016
51.5185
86.5343
86.4195
86.24
86.0099
85.7761
85.5689
85.4225
85.3365
85.3042
85.3121
85.3657
85.4585
85.5674
85.6502
85.643
85.4925
85.1597
84.6139
83.8283
82.7751
81.4429
79.8307
77.9307
75.7472
73.3049
70.642
67.8136
64.8785
61.8862
58.8648
55.8162
52.7273
49.5833
46.3807
43.1333
39.8733
36.6506
33.5335
30.6058
27.9611
25.697
23.9095
22.685
22.0871
22.1477
22.8436
24.1203
25.9549
28.2917
31.0499
34.1324
37.4396
40.8761
44.3539
47.7965
51.1566
54.4168
57.5882
60.695
63.7509
66.7748
69.8021
72.859
75.9336
78.9686
81.8705
84.5331
86.8788
88.879
90.543
91.9075
93.0203
93.9191
94.615
95.0841
95.2642
95.0505
94.3175
92.97
91.0187
88.5865
85.7567
82.4493
78.43
73.5602
67.9907
61.9578
55.5004
48.622
41.5668
34.667
28.0173
21.6793
15.7628
10.4872
6.19565
3.25172
1.89445
2.13857
3.86584
6.88733
10.9673
15.8361
21.2523
27.0041
32.8823
38.6971
44.2997
49.6107
54.6012
59.2745
63.6623
67.7723
71.5525
74.928
77.874
80.3532
82.3156
83.8552
85.161
86.3605
87.376
88.0465
88.2849
88.1361
87.6925
87.0318
86.2085
85.2429
84.1071
82.7492
81.1374
79.2782
77.1973
74.9172
72.4546
69.8322
67.0872
64.2716
61.4462
58.6711
56.0056
53.5147
51.2617
49.3028
47.6927
46.4747
45.6525
45.197
45.0707
45.3019
46.16
48.0542
50.9454
54.2265
57.4716
60.5014
62.9275
64.5112
65.2849
65.3167
64.6445
63.3487
61.6052
59.6668
57.7614
56.0067
54.4768
53.3403
52.8188
52.9339
53.3679
53.7827
53.9892
53.9453
53.686
53.2688
52.7355
52.1267
51.4488
87.7202
87.6489
87.5424
87.3984
87.254
87.1273
87.0397
86.9865
86.9402
86.8834
86.8159
86.7352
86.6281
86.4671
86.2085
85.8046
85.2193
84.4249
83.3843
82.061
80.4457
78.5341
76.3203
73.8288
71.1064
68.2145
65.2242
62.1897
59.1364
56.0541
52.9058
49.6435
46.2276
42.6426
38.9046
35.0628
31.1947
27.4016
23.8044
20.5344
17.7276
15.5194
14.0257
13.3445
13.541
14.4642
16.1403
18.5379
21.57
25.1096
29.0134
33.1326
37.324
41.4581
45.438
49.2034
52.7285
56.0249
59.1475
62.1869
65.2304
68.3474
71.5917
74.9716
78.4143
81.7699
84.8736
87.6159
89.9648
91.9403
93.5931
94.9876
96.1928
97.2494
98.1619
98.9054
99.4101
99.5629
99.1362
97.9664
95.8291
92.5788
88.1784
82.7413
76.5866
70.101
63.4242
56.4566
49.1518
41.7768
34.6513
27.8747
21.5152
15.6697
10.5226
6.37071
3.53474
2.20472
2.4522
4.16478
7.15377
11.1782
15.9527
21.2282
26.8
32.4814
38.1069
43.5443
48.7164
53.5984
58.1808
62.4773
66.5024
70.2124
73.529
76.4315
78.9054
80.8965
82.4649
83.7862
84.9828
85.9864
86.657
86.9347
86.8663
86.5172
85.9328
85.1517
84.1969
83.054
81.6875
80.0766
78.2268
76.154
73.8715
71.3926
68.7418
65.9588
63.0964
60.2168
57.3843
54.658
52.0975
49.7668
47.7267
46.033
44.732
43.8409
43.3097
43.0897
43.2019
43.941
45.8821
49.1024
52.8234
56.3935
59.7171
62.4354
64.1805
64.9684
64.9594
64.2515
62.9342
61.1982
59.3114
57.4946
55.8415
54.4055
53.3563
52.9095
53.0563
53.459
53.8029
53.9394
53.8523
53.5779
53.1636
52.6409
52.0414
51.3704
89.0744
89.0287
88.9679
88.8796
88.7935
88.7218
88.6769
88.647
88.6
88.5068
88.3514
88.1298
87.8417
87.4744
86.9894
86.3361
85.4907
84.4306
83.1112
81.496
79.5857
77.3794
74.8857
72.1547
69.2517
66.2483
63.2063
60.1499
57.0597
53.8721
50.5016
46.8704
42.9328
38.6836
34.1591
29.4384
24.6371
19.8985
15.3865
11.2774
7.74736
4.96238
3.06696
2.15685
2.26507
3.50211
5.73932
8.88271
12.8097
17.3635
22.3568
27.5881
32.8619
38.0078
42.8807
47.3717
51.4161
55.0107
58.2117
61.1364
63.955
66.8602
70.0196
73.5213
77.3112
81.184
84.8615
88.1292
90.902
93.2
95.1184
96.7496
98.1847
99.4626
100.597
101.575
102.336
102.74
102.622
101.65
99.5082
96.0017
91.1263
85.1478
78.5404
71.7782
64.9141
57.8223
50.4093
42.9659
35.7689
28.9568
22.632
16.9021
11.9335
7.96123
5.24126
3.93048
4.15993
5.77251
8.62342
12.4649
17.0127
22.0213
27.2955
32.6718
38.0123
43.2047
48.1737
52.8913
57.3417
61.5169
65.4247
69.0315
72.262
75.0934
77.5286
79.5252
81.1191
82.4614
83.6578
84.6457
85.3104
85.6195
85.6191
85.3489
84.8274
84.0812
83.1354
81.9868
80.614
79.0054
77.1635
75.0932
72.7986
70.291
67.5976
64.7623
61.8391
58.8902
55.9839
53.1847
50.5492
48.1346
46.0023
44.2171
42.8353
41.8739
41.2741
40.9408
40.874
41.4196
43.3485
46.886
51.0667
54.9698
58.6035
61.6938
63.7047
64.5751
64.5528
63.8243
62.5146
60.8242
59.0217
57.3166
55.7855
54.4732
53.5395
53.1656
53.2963
53.6194
53.8669
53.9236
53.7838
53.482
53.0605
52.544
51.9539
51.2928
90.4617
90.4312
90.3982
90.3424
90.2837
90.2323
90.198
90.1687
90.1166
90.0017
89.7935
89.4787
89.0612
88.5381
87.8677
86.9972
85.9195
84.6182
83.0395
81.1554
78.9821
76.5283
73.8231
70.9372
67.94
64.8954
61.8371
58.7463
55.5511
52.1381
48.3859
44.2032
39.5514
34.4498
28.9719
23.2347
17.3892
11.6141
6.11152
1.0977
-3.20987
-6.6006
-8.89387
-9.97468
-9.7749
-8.34311
-5.68269
-1.87562
2.92644
8.51379
14.6432
21.0585
27.5149
33.7979
39.7325
45.1761
50.0189
54.1914
57.6947
60.6382
63.2392
65.7765
68.5708
71.8918
75.8155
80.1255
84.4105
88.2849
91.5592
94.2082
96.349
98.0706
99.6116
101.001
102.214
103.224
103.977
104.353
104.14
103.057
100.82
97.2484
92.358
86.4322
79.7818
73.0754
66.2724
59.2943
52.1079
44.876
37.8361
31.1626
24.9929
19.4578
14.7175
10.9655
8.40685
7.2162
7.28114
8.6975
11.2805
14.7902
18.9647
23.5742
28.4393
33.4208
38.4046
43.2937
48.0131
52.5228
56.7983
60.8188
64.5782
68.0477
71.1623
73.8989
76.2673
78.2436
79.8533
81.2151
82.4082
83.3765
84.0324
84.366
84.4182
84.2069
83.7325
83.0143
82.0782
80.9284
79.5541
77.9491
76.1104
74.0323
71.7114
69.1582
66.4043
63.4991
60.5002
57.4696
54.477
51.5936
48.8758
46.3684
44.1301
42.2413
40.7843
39.7716
39.1111
38.6446
38.3485
38.647
40.4833
44.2386
48.8339
53.0937
57.0801
60.6324
63.0327
64.0825
64.1029
63.3877
62.1184
60.5131
58.8317
57.2621
55.8731
54.7061
53.8856
53.5455
53.6094
53.8192
53.9601
53.9401
53.7505
53.4178
52.9799
52.4608
51.8744
51.219
91.8084
91.7883
91.7652
91.7174
91.655
91.5876
91.5265
91.4652
91.3825
91.2424
91.0056
90.6465
90.1599
89.5414
88.7423
87.7089
86.4518
84.9676
83.1898
81.0973
78.7262
76.0963
73.2545
70.2845
67.246
64.1842
61.1004
57.9308
54.5597
50.8336
46.6092
41.7965
36.3703
30.3768
23.9193
17.1416
10.22
3.36335
-3.18806
-9.17039
-14.3179
-18.3834
-21.1567
-22.4993
-22.3393
-20.6413
-17.4668
-12.93
-7.21138
-0.554425
6.74859
14.3812
22.0359
29.4389
36.3816
42.7369
48.4092
53.296
57.3212
60.499
63.0276
65.2589
67.6212
70.5906
74.4049
78.9434
83.703
88.1067
91.8247
94.7839
97.1142
98.964
100.492
101.799
102.948
103.938
104.564
104.655
104.196
102.992
100.757
97.3014
92.6186
86.9356
80.6257
74.0958
67.4831
60.7762
53.964
47.1375
40.4718
34.1399
28.2936
23.0752
18.6368
15.1382
12.7249
11.4769
11.4374
12.5888
14.7976
17.862
21.5616
25.6943
30.0991
34.6514
39.2491
43.8038
48.2405
52.508
56.5722
60.404
63.985
67.2849
70.2531
72.8711
75.1502
77.0837
78.6953
80.0689
81.2528
82.1975
82.8411
83.1901
83.2781
83.1065
82.6661
81.9721
81.049
79.9041
78.5327
76.9296
75.0851
72.984
70.6183
68.0003
65.1672
62.1756
59.0877
55.9639
52.8705
49.8844
47.0661
44.4465
42.0757
40.0503
38.4834
37.4106
36.6996
36.1075
35.6116
35.6863
37.3418
41.1216
45.9384
50.5702
55.0159
59.1627
62.0975
63.4487
63.5948
62.938
61.7366
60.2478
58.7171
57.302
56.0655
55.0412
54.3118
53.971
53.9404
54.0284
54.067
53.9786
53.746
53.3845
52.9262
52.3963
51.8064
51.1535
93.0922
93.0895
93.0764
93.0177
92.9253
92.8041
92.674
92.5441
92.4029
92.2244
91.9685
91.5992
91.0946
90.4392
89.5775
88.4512
87.0842
85.4956
83.6039
81.3809
78.8894
76.1589
73.2417
70.2346
67.1789
64.1
60.9709
57.6896
54.1093
50.0491
45.3512
39.9293
33.7678
26.9348
19.5569
11.7998
3.86471
-4.00425
-11.5184
-18.3593
-24.2132
-28.8089
-31.938
-33.466
-33.3244
-31.4633
-27.9343
-22.8466
-16.3896
-8.82869
-0.494273
8.23932
17.0071
25.4718
33.3376
40.4418
46.7641
52.2847
56.8789
60.4264
63.0197
65.0524
67.0319
69.6768
73.3388
77.9473
82.9375
87.6367
91.6315
94.7999
97.2574
99.1938
100.753
102.006
102.984
103.693
104.13
104.174
103.595
102.187
99.8642
96.5691
92.2686
87.0592
81.2068
75.0169
68.6847
62.2933
55.8789
49.5096
43.309
37.4229
31.9941
27.1581
23.0504
19.8005
17.5173
16.2577
16.0764
16.9476
18.7671
21.3727
24.5872
28.2404
32.1875
36.3118
40.5177
44.7222
48.851
52.8458
56.6643
60.2724
63.6435
66.7449
69.5396
72.0175
74.1902
76.0641
77.6626
79.0361
80.2034
81.1196
81.7459
82.1007
82.2102
82.0645
81.6498
80.9794
80.0736
78.9387
77.5716
75.9645
74.1004
71.957
69.526
66.8243
63.8952
60.801
57.6076
54.3715
51.1507
48.0262
45.073
42.3181
39.7951
37.6096
35.8982
34.7182
33.9264
33.2289
32.6114
32.5185
33.9012
37.4113
42.2406
47.2068
52.2574
57.1865
60.8258
62.619
62.9869
62.4288
61.3007
59.9299
58.5598
57.3157
56.2432
55.3593
54.7115
54.3596
54.2442
54.2256
54.1762
54.0298
53.762
53.3767
52.8985
52.3538
51.7547
51.0998
94.3394
94.3626
94.366
94.2794
94.1451
93.9585
93.7499
93.5319
93.3154
93.084
92.8057
92.439
91.9472
91.2995
90.4393
89.2975
87.8952
86.2817
84.3659
82.0877
79.5419
76.7749
73.8227
70.7992
67.7356
64.6314
61.4411
58.0388
54.2595
49.912
44.8263
38.9174
32.1727
24.6785
16.5845
8.07937
-0.610924
-9.21307
-17.4031
-24.828
-31.1515
-36.1009
-39.4843
-41.1746
-41.0908
-39.1691
-35.4317
-29.9918
-23.0556
-14.9042
-5.8815
3.59112
13.1034
22.3262
30.9015
38.5625
45.2772
51.1749
56.1947
60.1515
62.9255
64.7936
66.5018
68.9159
72.4674
77.0784
82.0834
86.8151
90.9011
94.1978
96.7626
98.749
100.302
101.521
102.446
103.069
103.355
103.044
102.247
100.824
98.6293
95.561
91.6069
86.8828
81.5707
75.8761
69.9731
63.9802
57.9772
52.0472
46.2994
40.8589
35.8509
31.3951
27.6066
24.5914
22.4378
21.2017
20.9063
21.5289
22.9933
25.1775
27.9408
31.1404
34.6475
38.3535
42.1671
46.0088
49.8068
53.5007
57.0434
60.3977
63.5304
66.408
69.0068
71.3266
73.382
75.1873
76.7602
78.1212
79.2631
80.1457
80.7512
81.107
81.2305
81.1032
80.7102
80.0636
79.1777
78.0542
76.6879
75.0664
73.1656
70.9593
68.4421
65.6388
62.5971
59.3798
56.0537
52.6731
49.286
45.9758
42.8437
39.9322
37.2573
34.9129
33.0478
31.7289
30.8051
30.0416
29.3373
29.0758
30.0927
33.0909
37.6523
42.8643
48.6778
54.6153
59.149
61.5343
62.2155
61.7735
60.6911
59.4154
58.2166
57.1797
56.3042
55.5773
55.0226
54.6788
54.506
54.4068
54.2866
54.0909
53.7928
53.3879
52.8925
52.332
51.7207
51.0592
95.6028
95.6162
95.6067
95.5103
95.3649
95.1452
94.892
94.6184
94.3461
94.0742
93.7817
93.4292
92.9715
92.3625
91.5416
90.4508
89.0827
87.4999
85.6227
83.3572
80.7995
78.03
75.0683
72.0216
68.9336
65.7901
62.5277
59.0167
55.0802
50.5313
45.2046
39.005
31.9164
24.0323
15.5168
6.57611
-2.5471
-11.5654
-20.1422
-27.911
-34.5204
-39.6907
-43.2347
-45.0324
-45.0086
-43.0619
-39.2371
-33.6486
-26.5072
-18.1086
-8.78368
1.03901
10.8675
20.3669
29.2595
37.2023
44.0507
50.047
55.3251
59.6295
62.6567
64.5621
66.1137
68.3233
71.763
76.3244
81.2437
85.8443
89.8115
93.0635
95.667
97.7274
99.3274
100.523
101.34
101.785
101.817
101.552
100.701
99.2459
97.1192
94.2676
90.7022
86.4887
81.7363
76.5999
71.2376
65.7683
60.2749
54.8409
49.5696
44.5766
39.9777
35.8824
32.3914
29.5934
27.5601
26.347
25.9508
26.3542
27.5004
29.2998
31.6404
34.4027
37.4746
40.7572
44.165
47.623
51.0632
54.4258
57.6618
60.7306
63.5941
66.2227
68.6068
70.7574
72.6932
74.4296
75.9707
77.3083
78.4159
79.2625
79.8506
80.2105
80.3472
80.2346
79.8611
79.2375
78.3702
77.2549
75.882
74.2327
72.2766
69.9865
67.3624
64.437
61.26
57.8877
54.3852
50.8124
47.2151
43.6765
40.327
37.2419
34.4256
31.9406
29.9381
28.4971
27.4739
26.6089
25.778
25.2641
25.7609
28.0269
32.0466
37.4105
44.1608
51.3637
57.0031
60.1276
61.182
60.8316
59.746
58.5574
57.5811
56.8272
56.2082
55.6745
55.2383
54.929
54.7319
54.5764
54.3992
54.1599
53.8339
53.4119
52.9022
52.3274
51.7026
51.0316
96.6626
96.5734
96.5278
96.5402
96.4828
96.3382
96.1335
95.8878
95.6317
95.3776
95.1149
94.8074
94.4083
93.8614
93.1073
92.0954
90.8083
89.2754
87.4553
85.2569
82.7202
79.9463
76.9715
73.8776
70.7291
67.5201
64.1846
60.5972
56.5897
51.9841
46.6177
40.3855
33.2673
25.3473
16.7873
7.79925
-1.36741
-10.4234
-19.036
-26.8446
-33.502
-38.7219
-42.3124
-44.1773
-44.2396
-42.3892
-38.6554
-33.1746
-26.1472
-17.8828
-8.71576
0.984418
10.6862
19.9849
28.7462
36.6686
43.3884
49.1527
54.4279
59.029
62.3878
64.4535
66.0204
68.1436
71.4739
75.8925
80.6453
85.08
88.8887
92.0057
94.5073
96.4971
98.0486
99.2038
99.981
100.374
100.36
99.9353
99.0346
97.6032
95.5891
92.9666
89.7447
85.96
81.6986
77.0909
72.2665
67.331
62.3768
57.4916
52.7594
48.2678
44.1109
40.3873
37.1902
34.5994
32.6776
31.4629
30.9655
31.1748
32.0444
33.5003
35.4527
37.8038
40.458
43.3274
46.3331
49.405
52.4788
55.4976
58.412
61.1782
63.7579
66.1314
68.3053
70.3003
72.1356
73.8159
75.3231
76.6258
77.6935
78.5107
79.0918
79.4598
79.6059
79.5035
79.1466
78.5426
77.6891
76.5759
75.1872
73.4963
71.4674
69.0751
66.3253
63.2549
59.9122
56.3445
52.613
48.7935
44.945
41.1504
37.5639
34.2999
31.3552
28.749
26.6287
25.0986
23.9986
23.0119
21.9892
21.1268
20.918
22.1856
25.4103
30.8713
38.7417
47.4565
54.3875
58.3424
59.7628
59.4452
58.3366
57.2971
56.6568
56.2878
55.989
55.6828
55.3856
55.135
54.9329
54.739
54.5156
54.2368
53.8835
53.4444
52.9221
52.3349
51.6973
51.016
97.7855
97.5017
97.423
97.5242
97.5826
97.5533
97.4476
97.2908
97.1079
96.923
96.7325
96.5021
96.1778
95.7111
95.032
94.0921
92.8693
91.3916
89.6406
87.5183
85.0157
82.226
79.2159
76.0556
72.8183
69.5207
66.1133
62.4857
58.4842
53.9405
48.6973
42.647
35.761
28.1036
19.8204
11.1165
2.23818
-6.53445
-14.8879
-22.4869
-29.0062
-34.1673
-37.7661
-39.6851
-39.844
-38.1469
-34.628
-29.4349
-22.7596
-14.9113
-6.24391
2.93499
12.1471
20.9202
29.1578
36.7313
43.2452
48.7566
53.8207
58.4919
62.1276
64.39
66.0169
68.1215
71.3969
75.6971
80.3034
84.6029
88.292
91.2955
93.6741
95.5319
96.9557
97.9929
98.6564
98.944
98.8555
98.3759
97.4584
96.0641
94.174
91.7725
88.8543
85.4458
81.6164
77.4611
73.0841
68.593
64.0892
59.6587
55.3786
51.3296
47.5952
44.2526
41.3731
39.018
37.2304
36.0177
35.4474
35.5081
36.1571
37.3309
38.956
40.9531
43.2407
45.7412
48.3828