/*--------------------------------*- C++ -*----------------------------------*\
  =========                 |
  \\      /  F ield         | OpenFOAM: The Open Source CFD Toolbox
   \\    /   O peration     | Website:  https://openfoam.org
    \\  /    A nd           | Version:  9
     \\/     M anipulation  |
\*---------------------------------------------------------------------------*/
FoamFile
{
    format      ascii;
    class       surfaceScalarField;
    location    "0.06";
    object      phi;
}
// * * * * * * * * * * * * * * * * * * * * * * * * * * * * * * * * * * * * * //

dimensions      [0 3 -1 0 0 0 0];

internalField   nonuniform List<scalar> 
24170
(
3.02153e-06
9.30545e-08
2.96259e-06
5.89327e-08
2.88906e-06
7.35336e-08
2.79017e-06
9.88933e-08
2.68922e-06
1.00942e-07
2.59455e-06
9.46758e-08
2.50032e-06
9.42315e-08
2.40328e-06
9.70377e-08
2.30607e-06
9.72079e-08
2.209e-06
9.70673e-08
2.11272e-06
9.62813e-08
2.01522e-06
9.7508e-08
1.9157e-06
9.9519e-08
1.81188e-06
1.03814e-07
1.70098e-06
1.10907e-07
1.57452e-06
1.26451e-07
1.42177e-06
1.52753e-07
2.15424e-07
1.20635e-06
3.45698e-06
8.44076e-08
3.42882e-06
8.70943e-08
3.43191e-06
7.0446e-08
3.4482e-06
8.26004e-08
3.45337e-06
9.57701e-08
3.44092e-06
1.07129e-07
3.4203e-06
1.1485e-07
3.40482e-06
1.1252e-07
3.39877e-06
1.0326e-07
3.39362e-06
1.0221e-07
3.37688e-06
1.13023e-07
3.34198e-06
1.32408e-07
3.28999e-06
1.51517e-07
3.22716e-06
1.66638e-07
3.15822e-06
1.79846e-07
3.08482e-06
1.99849e-07
2.99571e-06
2.41865e-07
3.13504e-07
2.89763e-06
3.62649e-06
1.19057e-07
3.63331e-06
8.02774e-08
3.63656e-06
6.72007e-08
3.65359e-06
6.55634e-08
3.67632e-06
7.30378e-08
3.69043e-06
9.302e-08
3.6899e-06
1.15381e-07
3.67968e-06
1.22741e-07
3.66801e-06
1.14931e-07
3.66023e-06
1.0999e-07
3.65453e-06
1.18728e-07
3.64693e-06
1.40002e-07
3.63302e-06
1.65432e-07
3.61101e-06
1.8865e-07
3.58162e-06
2.09227e-07
3.54699e-06
2.34481e-07
3.51474e-06
2.74113e-07
3.33208e-07
3.49504e-06
3.90841e-06
-2.79349e-08
3.92757e-06
6.11273e-08
3.92713e-06
6.7632e-08
3.932e-06
6.06991e-08
3.94405e-06
6.0989e-08
3.9569e-06
8.01636e-08
3.95998e-06
1.12308e-07
3.94721e-06
1.35511e-07
3.92242e-06
1.39721e-07
3.89668e-06
1.35728e-07
3.87762e-06
1.37791e-07
3.86621e-06
1.51408e-07
3.85756e-06
1.74083e-07
3.84536e-06
2.00849e-07
3.82685e-06
2.27736e-07
3.80293e-06
2.58399e-07
3.78193e-06
2.95109e-07
3.44669e-07
3.77047e-06
4.25962e-06
4.97732e-08
4.22966e-06
9.10798e-08
4.22228e-06
7.50134e-08
4.23708e-06
4.59047e-08
4.25798e-06
4.00888e-08
4.26342e-06
7.47246e-08
4.24808e-06
1.27648e-07
4.21942e-06
1.64169e-07
4.18682e-06
1.72321e-07
4.157e-06
1.65544e-07
4.13274e-06
1.62055e-07
4.11398e-06
1.70163e-07
4.0991e-06
1.88971e-07
4.08551e-06
2.14431e-07
4.07176e-06
2.41488e-07
4.05811e-06
2.72053e-07
4.04731e-06
3.05912e-07
3.48101e-07
4.04387e-06
4.46529e-06
6.84891e-08
4.46749e-06
8.88844e-08
4.4618e-06
8.07009e-08
4.46713e-06
4.05794e-08
4.48669e-06
2.05217e-08
4.50711e-06
5.43044e-08
4.51878e-06
1.15985e-07
4.51904e-06
1.6391e-07
4.50926e-06
1.82094e-07
4.49152e-06
1.8329e-07
4.46667e-06
1.86899e-07
4.43519e-06
2.01642e-07
4.39903e-06
2.25136e-07
4.36147e-06
2.51985e-07
4.32658e-06
2.76386e-07
4.29876e-06
2.99872e-07
4.28179e-06
3.22883e-07
3.50671e-07
4.27922e-06
4.82809e-06
-1.3602e-08
4.86173e-06
5.52371e-08
4.8545e-06
8.79334e-08
4.8317e-06
6.33803e-08
4.80031e-06
5.19137e-08
4.76942e-06
8.51887e-08
4.75088e-06
1.3453e-07
4.74856e-06
1.66226e-07
4.75631e-06
1.74349e-07
4.76462e-06
1.74973e-07
4.76675e-06
1.84774e-07
4.7607e-06
2.07694e-07
4.74844e-06
2.37389e-07
4.73391e-06
2.66516e-07
4.71974e-06
2.90563e-07
4.70819e-06
3.11418e-07
4.6995e-06
3.31577e-07
3.54741e-07
4.69543e-06
5.22141e-06
6.86401e-08
5.19798e-06
7.86652e-08
5.20728e-06
7.86334e-08
5.20364e-06
6.70256e-08
5.19685e-06
5.87067e-08
5.1954e-06
8.66319e-08
5.19685e-06
1.33079e-07
5.191e-06
1.72079e-07
5.17078e-06
1.94575e-07
5.13931e-06
2.06436e-07
5.1067e-06
2.1739e-07
5.08196e-06
2.32425e-07
5.06874e-06
2.50613e-07
5.06566e-06
2.696e-07
5.06834e-06
2.87877e-07
5.07295e-06
3.06815e-07
5.07707e-06
3.27454e-07
3.50946e-07
5.08086e-06
5.62782e-06
-4.94877e-08
5.68366e-06
2.28258e-08
5.66012e-06
1.02168e-07
5.63331e-06
9.38375e-08
5.59644e-06
9.55825e-08
5.55594e-06
1.27131e-07
5.52111e-06
1.67901e-07
5.49223e-06
2.00964e-07
5.46551e-06
2.21294e-07
5.44089e-06
2.31059e-07
5.42228e-06
2.35993e-07
5.41383e-06
2.40879e-07
5.41695e-06
2.4749e-07
5.42944e-06
2.5711e-07
5.44622e-06
2.711e-07
5.4624e-06
2.90635e-07
5.47383e-06
3.16025e-07
3.44516e-07
5.48026e-06
6.02611e-06
3.7298e-08
5.97924e-06
6.97015e-08
5.95371e-06
1.27689e-07
5.8948e-06
1.52749e-07
5.84603e-06
1.44355e-07
5.84397e-06
1.29191e-07
5.88687e-06
1.25003e-07
5.94394e-06
1.43895e-07
5.98211e-06
1.83123e-07
5.98535e-06
2.27817e-07
5.95855e-06
2.62788e-07
5.91839e-06
2.81042e-07
5.8819e-06
2.83978e-07
5.85932e-06
2.79692e-07
5.85227e-06
2.78152e-07
5.85674e-06
2.86167e-07
5.86614e-06
3.06624e-07
3.37133e-07
5.87352e-06
6.4897e-06
-2.14825e-08
6.43346e-06
1.25937e-07
6.38313e-06
1.78016e-07
6.36435e-06
1.71535e-07
6.36222e-06
1.46478e-07
6.36008e-06
1.31338e-07
6.35104e-06
1.34036e-07
6.33965e-06
1.55294e-07
6.33175e-06
1.91017e-07
6.32915e-06
2.30422e-07
6.32992e-06
2.62019e-07
6.33154e-06
2.79414e-07
6.33144e-06
2.84086e-07
6.32804e-06
2.83086e-07
6.32155e-06
2.84644e-07
6.31316e-06
2.9456e-07
6.30587e-06
3.13908e-07
3.42709e-07
6.3003e-06
5.73776e-06
-2.69036e-08
5.70493e-06
1.58763e-07
5.71098e-06
1.71972e-07
5.7295e-06
1.53015e-07
5.74011e-06
1.35864e-07
5.72566e-06
1.45784e-07
5.68878e-06
1.70925e-07
5.64512e-06
1.98949e-07
5.61002e-06
2.26119e-07
5.59006e-06
2.50382e-07
5.58394e-06
2.6814e-07
5.58715e-06
2.76203e-07
5.59511e-06
2.76125e-07
5.60574e-06
2.72458e-07
5.61849e-06
2.71892e-07
5.63365e-06
2.79402e-07
5.65167e-06
2.9589e-07
3.23131e-07
5.67124e-06
6.91649e-06
4.87313e-09
6.91703e-06
1.5822e-07
6.87528e-06
2.13721e-07
6.87253e-06
1.55766e-07
6.91202e-06
9.63796e-08
6.95927e-06
9.85337e-08
6.97496e-06
1.55235e-07
6.94771e-06
2.26191e-07
6.89615e-06
2.77679e-07
6.84837e-06
2.98165e-07
6.8228e-06
2.93709e-07
6.82276e-06
2.76239e-07
6.84228e-06
2.56609e-07
6.87225e-06
2.42484e-07
6.90543e-06
2.38719e-07
6.93741e-06
2.47419e-07
6.96667e-06
2.66627e-07
2.95182e-07
6.99462e-06
8.54727e-06
2.04909e-07
8.49457e-06
2.10915e-07
8.50566e-06
2.02637e-07
8.48232e-06
1.79102e-07
8.43866e-06
1.40043e-07
8.41082e-06
1.2637e-07
8.41501e-06
1.51044e-07
8.44545e-06
1.95753e-07
8.48632e-06
2.36809e-07
8.52166e-06
2.62829e-07
8.54045e-06
2.74917e-07
8.53859e-06
2.78093e-07
8.51905e-06
2.76158e-07
8.48823e-06
2.73296e-07
8.45405e-06
2.72899e-07
8.42316e-06
2.78317e-07
8.39998e-06
2.89799e-07
3.07974e-07
8.38719e-06
1.03014e-05
7.90892e-08
1.03984e-05
1.1389e-07
1.04421e-05
1.58937e-07
1.04761e-05
1.45064e-07
1.04765e-05
1.39655e-07
1.04386e-05
1.643e-07
1.0388e-05
2.01662e-07
1.03497e-05
2.33992e-07
1.03318e-05
2.5479e-07
1.03272e-05
2.6744e-07
1.03271e-05
2.75013e-07
1.03288e-05
2.76399e-07
1.03345e-05
2.70444e-07
1.03475e-05
2.60295e-07
1.03675e-05
2.52847e-07
1.03921e-05
2.53691e-07
1.0416e-05
2.65955e-07
2.89257e-07
1.04347e-05
1.27033e-05
6.94783e-08
1.25918e-05
2.25348e-07
1.25353e-05
2.15456e-07
1.25445e-05
1.35828e-07
1.25751e-05
1.09037e-07
1.26034e-05
1.36003e-07
1.2622e-05
1.83136e-07
1.26307e-05
2.25273e-07
1.26346e-05
2.50839e-07
1.26419e-05
2.6014e-07
1.26597e-05
2.57206e-07
1.26892e-05
2.4692e-07
1.27248e-05
2.34899e-07
1.27564e-05
2.28619e-07
1.27757e-05
2.33598e-07
1.27783e-05
2.5111e-07
1.27659e-05
2.78317e-07
3.10226e-07
1.27449e-05
1.53561e-05
4.36704e-08
1.53434e-05
2.38027e-07
1.53507e-05
2.08205e-07
1.534e-05
1.46474e-07
1.53306e-05
1.18429e-07
1.533e-05
1.36669e-07
1.53358e-05
1.77314e-07
1.53485e-05
2.12577e-07
1.53656e-05
2.33695e-07
1.53803e-05
2.45466e-07
1.53849e-05
2.52646e-07
1.53761e-05
2.55647e-07
1.53571e-05
2.53944e-07
1.53362e-05
2.4946e-07
1.5325e-05
2.44859e-07
1.53317e-05
2.44436e-07
1.53618e-05
2.48156e-07
2.5954e-07
1.54125e-05
1.79932e-05
-1.73867e-07
1.82473e-05
-1.61064e-08
1.8411e-05
4.4583e-08
1.84764e-05
8.09906e-08
1.84912e-05
1.03695e-07
1.84948e-05
1.33049e-07
1.85166e-05
1.55556e-07
1.85688e-05
1.60323e-07
1.86452e-05
1.57329e-07
1.87283e-05
1.62297e-07
1.88004e-05
1.80596e-07
1.88505e-05
2.05525e-07
1.88787e-05
2.25732e-07
1.88946e-05
2.33572e-07
1.8911e-05
2.28517e-07
1.8938e-05
2.17341e-07
1.89809e-05
2.05342e-07
2.00675e-07
1.90397e-05
2.27148e-05
-3.12015e-07
2.27908e-05
-9.20402e-08
2.28646e-05
-2.92284e-08
2.29404e-05
5.13879e-09
2.2961e-05
8.31509e-08
2.29271e-05
1.66929e-07
2.28881e-05
1.9453e-07
2.28902e-05
1.58244e-07
2.29537e-05
9.38323e-08
2.30701e-05
4.58535e-08
2.3213e-05
3.77085e-08
2.33542e-05
6.43832e-08
2.34728e-05
1.07092e-07
2.35566e-05
1.49726e-07
2.36013e-05
1.83824e-07
2.36107e-05
2.07972e-07
2.35919e-05
2.24194e-07
2.35286e-07
2.35572e-05
1.64343e-05
-4.17619e-09
1.63599e-05
-1.76324e-08
1.63872e-05
-5.65231e-08
1.647e-05
-7.7657e-08
1.65879e-05
-3.47889e-08
1.67263e-05
2.85493e-08
1.68521e-05
6.86754e-08
1.69321e-05
7.82858e-08
1.69534e-05
7.25376e-08
1.69287e-05
7.04977e-08
1.6889e-05
7.74919e-08
1.68653e-05
8.80782e-08
1.68756e-05
9.67168e-08
1.69225e-05
1.02891e-07
1.69965e-05
1.09748e-07
1.70838e-05
1.20713e-07
1.71711e-05
1.36878e-07
1.59496e-07
1.72469e-05
1.51202e-05
1.41954e-07
1.50805e-05
2.20385e-08
1.50061e-05
1.79106e-08
1.48959e-05
3.24776e-08
1.48104e-05
5.08056e-08
1.47775e-05
6.13778e-08
1.4783e-05
6.31746e-08
1.47857e-05
7.55673e-08
1.47534e-05
1.04922e-07
1.46879e-05
1.36004e-07
1.46172e-05
1.48125e-07
1.45709e-05
1.34356e-07
1.45638e-05
1.03857e-07
1.45934e-05
7.32789e-08
1.46466e-05
5.65547e-08
1.47088e-05
5.84824e-08
1.47688e-05
7.69089e-08
1.05298e-07
1.4823e-05
1.24512e-05
-7.99704e-08
1.24215e-05
5.1763e-08
1.23505e-05
8.88508e-08
1.23519e-05
3.11649e-08
1.2438e-05
-3.53028e-08
1.25513e-05
-5.19442e-08
1.26403e-05
-2.57933e-08
1.26996e-05
1.62449e-08
1.27521e-05
5.23746e-08
1.28188e-05
6.9367e-08
1.29027e-05
6.41746e-08
1.29904e-05
4.66858e-08
1.30631e-05
3.11326e-08
1.31076e-05
2.87792e-08
1.31209e-05
4.32865e-08
1.31088e-05
7.05148e-08
1.30814e-05
1.04324e-07
1.36755e-07
1.305e-05
1.09326e-05
-2.26021e-07
1.10182e-05
-3.38191e-08
1.10184e-05
8.85863e-08
1.09975e-05
5.21231e-08
1.1003e-05
-4.07663e-08
1.10491e-05
-9.80986e-08
1.1121e-05
-9.76817e-08
1.1207e-05
-6.97144e-08
1.12986e-05
-3.92267e-08
1.13841e-05
-1.61916e-08
1.14486e-05
-2.68464e-10
1.14813e-05
1.38998e-08
1.14843e-05
2.81954e-08
1.14675e-05
4.55566e-08
1.14441e-05
6.66529e-08
1.1425e-05
8.96294e-08
1.14171e-05
1.12237e-07
1.30281e-07
1.14236e-05
9.573e-06
-2.48928e-07
9.72071e-06
-1.81529e-07
9.84142e-06
-3.21191e-08
9.89491e-06
-1.3709e-09
9.88519e-06
-3.10454e-08
9.8492e-06
-6.21029e-08
9.82948e-06
-7.79621e-08
9.83002e-06
-7.02585e-08
9.83413e-06
-4.33327e-08
9.82923e-06
-1.12948e-08
9.8163e-06
1.26652e-08
9.80109e-06
2.91067e-08
9.78958e-06
3.97024e-08
9.78593e-06
4.9206e-08
9.7918e-06
6.07887e-08
9.8067e-06
7.47327e-08
9.82914e-06
8.97925e-08
1.03057e-07
9.85636e-06
8.51252e-06
-1.00119e-07
8.54106e-06
-2.1007e-07
8.57965e-06
-7.07059e-08
8.55971e-06
1.85692e-08
8.5104e-06
1.82622e-08
8.45831e-06
-1.00046e-08
8.41974e-06
-3.94003e-08
8.40129e-06
-5.18091e-08
8.40041e-06
-4.24529e-08
8.40945e-06
-2.03268e-08
8.41901e-06
3.09751e-09
8.4273e-06
2.08168e-08
8.43565e-06
3.13574e-08
8.44764e-06
3.72158e-08
8.46636e-06
4.2067e-08
8.49303e-06
4.80648e-08
8.52683e-06
5.59925e-08
6.36517e-08
8.56623e-06
7.3271e-06
-1.28295e-07
7.33267e-06
-2.15641e-07
7.37821e-06
-1.16246e-07
7.39553e-06
1.24964e-09
7.38375e-06
3.00443e-08
7.36954e-06
4.20253e-09
7.3653e-06
-3.51577e-08
7.37065e-06
-5.71574e-08
7.37824e-06
-5.00473e-08
7.38192e-06
-2.40036e-08
7.38039e-06
4.62562e-09
7.37593e-06
2.52774e-08
7.37422e-06
3.30654e-08
7.38235e-06
2.90889e-08
7.40465e-06
1.97707e-08
7.4417e-06
1.10133e-08
7.4906e-06
7.09443e-09
9.73625e-09
7.54451e-06
6.29596e-06
-7.28754e-08
6.23743e-06
-1.57113e-07
6.26008e-06
-1.38899e-07
6.30064e-06
-3.93034e-08
6.32076e-06
9.92371e-09
6.33876e-06
-1.37968e-08
6.36601e-06
-6.24116e-08
6.39406e-06
-8.52116e-08
6.40989e-06
-6.58764e-08
6.4091e-06
-2.32061e-08
6.39562e-06
1.80974e-08
6.38085e-06
4.00542e-08
6.37357e-06
4.03459e-08
6.37846e-06
2.41912e-08
6.39702e-06
1.21623e-09
6.42802e-06
-1.99847e-08
6.4683e-06
-3.31894e-08
-3.6637e-08
6.51467e-06
5.56662e-06
-1.48053e-07
5.51624e-06
-1.06743e-07
5.45435e-06
-7.70037e-08
5.44157e-06
-2.65259e-08
5.47373e-06
-2.22313e-08
5.51731e-06
-5.73767e-08
5.54997e-06
-9.50702e-08
5.5731e-06
-1.08343e-07
5.59828e-06
-9.10597e-08
5.63085e-06
-5.5778e-08
5.66824e-06
-1.92944e-08
5.70295e-06
5.34809e-09
5.72914e-06
1.41602e-08
5.74494e-06
8.39082e-09
5.75116e-06
-5.00714e-09
5.75156e-06
-2.03862e-08
5.75139e-06
-3.30172e-08
-3.96663e-08
5.75442e-06
4.9023e-06
-1.92049e-07
4.89503e-06
-9.94756e-08
4.89556e-06
-7.75266e-08
4.93086e-06
-6.18332e-08
4.968e-06
-5.93639e-08
4.96876e-06
-5.81367e-08
4.93005e-06
-5.63641e-08
4.88019e-06
-5.84884e-08
4.85079e-06
-6.16524e-08
4.85549e-06
-6.04795e-08
4.88913e-06
-5.29385e-08
4.93612e-06
-4.16351e-08
4.98027e-06
-2.99891e-08
5.00993e-06
-2.12769e-08
5.02197e-06
-1.70398e-08
5.01879e-06
-1.72108e-08
5.00641e-06
-2.064e-08
-2.47848e-08
4.99153e-06
4.14373e-06
4.04425e-06
3.96673e-06
3.90489e-06
3.84553e-06
3.78739e-06
3.73103e-06
3.67254e-06
3.61089e-06
3.55041e-06
3.49747e-06
3.45583e-06
3.42584e-06
3.40457e-06
3.38753e-06
3.37032e-06
3.34968e-06
3.32489e-06
-2.48094e-07
2.48094e-07
-2.06937e-07
-4.11569e-08
1.64186e-07
-3.71123e-07
6.79591e-07
-5.15405e-07
1.21467e-06
-5.3508e-07
1.6807e-06
-4.66028e-07
2.02924e-06
-3.48539e-07
2.22626e-06
-1.97025e-07
2.26348e-06
-3.72135e-08
2.14443e-06
1.19049e-07
1.79993e-06
3.44493e-07
1.312e-06
4.87931e-07
9.35428e-07
3.76576e-07
7.20321e-07
2.15107e-07
6.42858e-07
7.74632e-08
6.24197e-07
1.86616e-08
6.51749e-07
-2.75528e-08
8.18883e-07
-1.67134e-07
1.12095e-06
-3.02063e-07
1.50082e-06
-3.79879e-07
1.70184e-06
-2.01012e-07
1.68843e-06
1.34087e-08
1.65154e-06
3.68841e-08
1.5352e-06
1.16343e-07
1.19945e-06
3.3575e-07
8.28809e-07
3.70643e-07
5.13529e-07
3.1528e-07
2.07738e-07
3.0579e-07
-1.35658e-07
3.43396e-07
-5.30272e-07
3.94615e-07
-9.63668e-07
4.33396e-07
-1.42452e-06
4.6085e-07
-1.90597e-06
4.81453e-07
-2.40387e-06
4.97899e-07
-2.91104e-06
5.07174e-07
-3.42048e-06
5.09431e-07
-3.92396e-06
5.03486e-07
-4.41431e-06
4.90354e-07
-4.88276e-06
4.68444e-07
-5.32027e-06
4.37507e-07
-5.71733e-06
3.97067e-07
-6.06578e-06
3.48444e-07
-6.35995e-06
2.94171e-07
-6.59697e-06
2.37025e-07
-6.77638e-06
1.79404e-07
-6.89826e-06
1.21879e-07
-6.96181e-06
6.35563e-08
-6.96619e-06
4.38102e-09
-6.90862e-06
-5.75712e-08
-6.78729e-06
-1.21336e-07
-6.60081e-06
-1.8648e-07
-6.34889e-06
-2.51918e-07
-6.03303e-06
-3.15852e-07
-5.65697e-06
-3.76064e-07
-5.226e-06
-4.30972e-07
-4.74696e-06
-4.79036e-07
-4.22943e-06
-5.17531e-07
-3.68783e-06
-5.41601e-07
-3.14319e-06
-5.44642e-07
-2.62252e-06
-5.20671e-07
-2.15451e-06
-4.68008e-07
-1.76553e-06
-3.8898e-07
-1.47763e-06
-2.87905e-07
-1.30471e-06
-1.72917e-07
-1.24948e-06
-5.52293e-08
-1.28054e-06
3.10628e-08
-1.34062e-06
6.00748e-08
-1.38174e-06
4.11224e-08
-1.38634e-06
4.6023e-09
-1.3114e-06
-7.494e-08
-1.08237e-06
-2.2903e-07
-6.89486e-07
-3.92885e-07
-7.48495e-08
-6.14637e-07
7.46492e-07
-8.21342e-07
1.66413e-06
-9.17635e-07
2.58779e-06
-9.23663e-07
3.50278e-06
-9.14986e-07
4.32808e-06
-8.25307e-07
4.90972e-06
-5.81635e-07
5.08405e-06
-1.74335e-07
4.72583e-06
3.58221e-07
3.8878e-06
8.38037e-07
2.68288e-06
1.20492e-06
1.28588e-06
1.39699e-06
-6.8002e-08
1.35389e-06
-8.0974e-07
7.41738e-07
-4.654e-07
-3.4434e-07
-8.23735e-07
3.58335e-07
-3.11469e-06
2.29096e-06
-5.9132e-06
2.7985e-06
-8.01943e-06
2.10623e-06
-9.79085e-06
1.77142e-06
-1.11126e-05
1.32179e-06
-1.21436e-05
1.03096e-06
-1.28969e-05
7.53262e-07
-1.34369e-05
5.39991e-07
-1.37832e-05
3.46393e-07
-1.39628e-05
1.79521e-07
-1.39905e-05
2.76904e-08
-1.3895e-05
-9.5465e-08
-1.36893e-05
-2.05733e-07
-1.33852e-05
-3.04094e-07
-1.29961e-05
-3.89044e-07
-1.25345e-05
-4.61573e-07
-1.20133e-05
-5.21233e-07
-1.14438e-05
-5.69482e-07
-1.08366e-05
-6.0723e-07
-1.02001e-05
-6.36462e-07
-9.54167e-06
-6.58466e-07
-8.8677e-06
-6.73972e-07
-8.1846e-06
-6.83098e-07
-7.49867e-06
-6.85932e-07
-6.81616e-06
-6.82513e-07
-6.14228e-06
-6.73876e-07
-5.47881e-06
-6.63477e-07
-4.82371e-06
-6.55095e-07
-4.17293e-06
-6.50784e-07
-3.5205e-06
-6.52428e-07
-2.86281e-06
-6.5769e-07
-2.20521e-06
-6.576e-07
-1.55999e-06
-6.45217e-07
-9.43506e-07
-6.16486e-07
-3.70811e-07
-5.72695e-07
1.58799e-07
-5.2961e-07
6.55161e-07
-4.96362e-07
1.13182e-06
-4.76658e-07
1.61067e-06
-4.7885e-07
2.1084e-06
-4.97733e-07
2.63038e-06
-5.21976e-07
3.17003e-06
-5.39657e-07
3.71356e-06
-5.43528e-07
4.24664e-06
-5.3308e-07
4.75939e-06
-5.12747e-07
5.24793e-06
-4.88537e-07
5.71282e-06
-4.64897e-07
6.15603e-06
-4.43209e-07
6.57814e-06
-4.22108e-07
6.9773e-06
-3.99156e-07
7.3499e-06
-3.72604e-07
7.69167e-06
-3.41769e-07
7.99739e-06
-3.05723e-07
8.25975e-06
-2.62355e-07
8.47224e-06
-2.12496e-07
8.62954e-06
-1.57299e-07
8.71519e-06
-8.5652e-08
8.70626e-06
8.93377e-09
8.60004e-06
1.06222e-07
8.42421e-06
1.75826e-07
8.20563e-06
2.18584e-07
7.85999e-06
3.45637e-07
7.15625e-06
7.03737e-07
6.0106e-06
1.14565e-06
4.69796e-06
1.31265e-06
3.57951e-06
1.11845e-06
2.81784e-06
7.61672e-07
2.35862e-06
4.59212e-07
2.1008e-06
2.57819e-07
1.98832e-06
1.12483e-07
1.97616e-06
1.21577e-08
1.99695e-06
-2.07885e-08
1.98347e-06
1.34815e-08
1.90928e-06
7.41899e-08
1.76744e-06
1.41845e-07
1.51687e-06
2.50561e-07
1.12352e-06
3.93358e-07
6.65358e-07
4.58159e-07
2.93532e-07
3.71826e-07
8.80655e-08
2.05467e-07
4.213e-08
4.59356e-08
1.1158e-07
-6.94501e-08
2.60839e-07
-1.49259e-07
4.54582e-07
-1.93742e-07
6.50449e-07
-1.95867e-07
8.11567e-07
-1.61118e-07
9.06324e-07
-9.47569e-08
9.42007e-07
-3.5683e-08
9.03547e-07
3.84599e-08
8.57887e-07
4.56595e-08
7.27405e-07
1.30482e-07
1.39754e-08
7.1343e-07
5.72089e-08
1.90885e-07
5.13921e-07
-4.97869e-07
1.07893e-06
-9.36128e-07
1.60741e-06
-1.04389e-06
2.04377e-06
-9.71443e-07
2.37711e-06
-7.99368e-07
2.61081e-06
-5.82242e-07
2.75472e-06
-3.40929e-07
2.80667e-06
-8.91646e-08
2.76716e-06
1.58558e-07
2.69241e-06
4.19246e-07
2.54362e-06
6.36722e-07
2.1952e-06
7.24993e-07
1.68105e-06
7.29256e-07
1.24931e-06
5.09201e-07
1.0546e-06
2.13369e-07
1.06841e-06
-4.13625e-08
1.17268e-06
-2.71405e-07
1.21507e-06
-3.44451e-07
1.0347e-06
-1.99502e-07
7.87988e-07
4.56966e-08
4.84337e-07
3.1706e-07
1.03391e-07
4.1783e-07
-2.48433e-07
4.68167e-07
-4.75113e-07
5.6243e-07
-7.22204e-07
6.17734e-07
-1.10173e-06
6.94808e-07
-1.55274e-06
7.56796e-07
-2.03311e-06
8.23764e-07
-2.51917e-06
8.80682e-07
-3.01029e-06
9.24507e-07
-3.49795e-06
9.48513e-07
-3.97147e-06
9.54979e-07
-4.41948e-06
9.45907e-07
-4.83651e-06
9.24198e-07
-5.21925e-06
8.92174e-07
-5.56657e-06
8.50808e-07
-5.87733e-06
8.01109e-07
-6.15198e-06
7.43097e-07
-6.39191e-06
6.77437e-07
-6.59973e-06
6.04888e-07
-6.77812e-06
5.2683e-07
-6.92843e-06
4.44487e-07
-7.04984e-06
3.58431e-07
-7.13887e-06
2.6844e-07
-7.19106e-06
1.7406e-07
-7.20333e-06
7.58311e-08
-7.17038e-06
-2.85676e-08
-7.08461e-06
-1.43343e-07
-6.94914e-06
-2.56809e-07
-6.76521e-06
-3.70403e-07
-6.53313e-06
-4.84007e-07
-6.25199e-06
-5.96988e-07
-5.91944e-06
-7.08616e-07
-5.53273e-06
-8.17683e-07
-5.09039e-06
-9.21368e-07
-4.59406e-06
-1.01386e-06
-4.04958e-06
-1.08608e-06
-3.46725e-06
-1.12697e-06
-2.86212e-06
-1.1258e-06
-2.25491e-06
-1.07522e-06
-1.66875e-06
-9.75141e-07
-1.12504e-06
-8.31609e-07
-6.43237e-07
-6.54724e-07
-2.39667e-07
-4.588e-07
6.1378e-08
-2.69982e-07
2.33723e-07
-1.1227e-07
2.97073e-07
-2.22273e-08
2.96716e-07
4.95908e-09
3.01779e-07
-8.00029e-08
3.85107e-07
-3.12358e-07
6.20912e-07
-6.2869e-07
1.04845e-06
-1.04218e-06
1.5806e-06
-1.35349e-06
2.13441e-06
-1.47145e-06
2.72256e-06
-1.51181e-06
3.36889e-06
-1.56131e-06
4.02968e-06
-1.4861e-06
4.57848e-06
-1.13043e-06
4.86473e-06
-4.60578e-07
4.78302e-06
4.39925e-07
4.24335e-06
1.37771e-06
3.32359e-06
2.12468e-06
2.07997e-06
2.64061e-06
7.2169e-07
2.71216e-06
-7.25902e-08
1.53602e-06
-2.10213e-06
1.6852e-06
-5.57113e-06
3.82733e-06
-7.81225e-06
4.53208e-06
-9.09088e-06
4.07713e-06
-1.02599e-05
3.27524e-06
-1.11465e-05
2.65802e-06
-1.18622e-05
2.0375e-06
-1.24195e-05
1.5883e-06
-1.28453e-05
1.17902e-06
-1.31562e-05
8.50866e-07
-1.33533e-05
5.43563e-07
-1.34429e-05
2.69088e-07
-1.34258e-05
1.06096e-08
-1.33002e-05
-2.21065e-07
-1.3072e-05
-4.33962e-07
-1.2751e-05
-6.25095e-07
-1.23468e-05
-7.93257e-07
-1.18717e-05
-9.36637e-07
-1.13378e-05
-1.05517e-06
-1.07568e-05
-1.15048e-06
-1.0139e-05
-1.22504e-06
-9.49287e-06
-1.28256e-06
-8.82543e-06
-1.32591e-06
-8.14284e-06
-1.35656e-06
-7.45129e-06
-1.37466e-06
-6.75712e-06
-1.3801e-06
-6.06685e-06
-1.37278e-06
-5.38613e-06
-1.3546e-06
-4.71708e-06
-1.33252e-06
-4.05709e-06
-1.31508e-06
-3.40096e-06
-1.30692e-06
-2.73979e-06
-1.3136e-06
-2.06744e-06
-1.33004e-06
-1.38807e-06
-1.33697e-06
-7.17622e-07
-1.31566e-06
-7.9712e-08
-1.2544e-06
5.17403e-07
-1.16981e-06
1.05936e-06
-1.07157e-06
1.55529e-06
-9.92294e-07
2.02883e-06
-9.50204e-07
2.50367e-06
-9.53687e-07
2.99881e-06
-9.92871e-07
3.52131e-06
-1.04448e-06
4.0648e-06
-1.08315e-06
4.61408e-06
-1.0928e-06
5.15278e-06
-1.07178e-06
5.66969e-06
-1.02967e-06
6.16079e-06
-9.79628e-07
6.62735e-06
-9.31461e-07
7.07239e-06
-8.88245e-07
7.4972e-06
-8.46926e-07
7.89998e-06
-8.01932e-07
8.27682e-06
-7.49447e-07
8.62411e-06
-6.89057e-07
8.93945e-06
-6.21058e-07
9.22024e-06
-5.43152e-07
9.45838e-06
-4.50637e-07
9.63648e-06
-3.35395e-07
9.74118e-06
-1.90352e-07
9.77885e-06
-2.87336e-08
9.75963e-06
1.25444e-07
9.66156e-06
2.73895e-07
9.46231e-06
4.17826e-07
9.21966e-06
5.88293e-07
9.01017e-06
9.13229e-07
8.77802e-06
1.3778e-06
8.40561e-06
1.68506e-06
7.87291e-06
1.65115e-06
7.21102e-06
1.42356e-06
6.46767e-06
1.20256e-06
5.72351e-06
1.00198e-06
5.0713e-06
7.64696e-07
4.55707e-06
5.26391e-07
4.16e-06
3.76281e-07
3.82992e-06
3.43559e-07
3.51745e-06
3.86661e-07
3.18792e-06
4.71379e-07
2.83305e-06
6.05424e-07
2.46311e-06
7.63302e-07
2.12062e-06
8.00651e-07
1.84498e-06
6.47461e-07
1.66202e-06
3.88425e-07
1.57408e-06
1.33876e-07
1.59815e-06
-9.35177e-08
1.72718e-06
-2.78289e-07
1.9358e-06
-4.02362e-07
2.18076e-06
-4.40825e-07
2.42824e-06
-4.08593e-07
2.64752e-06
-3.1404e-07
2.83297e-06
-2.21133e-07
2.9699e-06
-9.84762e-08
3.06449e-06
-4.89265e-08
3.11921e-06
7.57597e-08
3.82311e-08
3.09496e-06
5.68174e-07
-3.77289e-07
1.28871e-06
-1.2184e-06
1.81325e-06
-1.46067e-06
2.16851e-06
-1.39915e-06
2.40134e-06
-1.20427e-06
2.55172e-06
-9.49748e-07
2.64135e-06
-6.71875e-07
2.68175e-06
-3.81331e-07
2.67423e-06
-8.16452e-08
2.61086e-06
2.21929e-07
2.50934e-06
5.20769e-07
2.37445e-06
7.71609e-07
2.15332e-06
9.4612e-07
1.86e-06
1.02258e-06
1.47571e-06
8.93496e-07
1.09889e-06
5.90184e-07
8.86435e-07
1.71096e-07
6.63192e-07
-4.81614e-08
2.6283e-07
5.59113e-08
-2.54498e-07
3.17825e-07
-6.3828e-07
4.29479e-07
-8.80806e-07
5.59585e-07
-1.16664e-06
7.03665e-07
-1.55054e-06
8.52063e-07
-1.96651e-06
9.78399e-07
-2.43469e-06
1.08592e-06
-2.92872e-06
1.18884e-06
-3.44442e-06
1.2725e-06
-3.9621e-06
1.34145e-06
-4.4667e-06
1.38528e-06
-4.94923e-06
1.40703e-06
-5.40729e-06
1.40658e-06
-5.84011e-06
1.3878e-06
-6.2466e-06
1.35239e-06
-6.6257e-06
1.3033e-06
-6.97586e-06
1.24233e-06
-7.29623e-06
1.17118e-06
-7.58589e-06
1.09077e-06
-7.84452e-06
1.00172e-06
-8.07166e-06
9.04581e-07
-8.26675e-06
7.99978e-07
-8.42857e-06
6.88651e-07
-8.55542e-06
5.71338e-07
-8.64589e-06
4.48896e-07
-8.69936e-06
3.21916e-07
-8.71551e-06
1.90207e-07
-8.69032e-06
5.06423e-08
-8.63327e-06
-8.56227e-08
-8.5512e-06
-2.25407e-07
-8.43659e-06
-3.71419e-07
-8.28607e-06
-5.20922e-07
-8.09709e-06
-6.72989e-07
-7.8668e-06
-8.27283e-07
-7.59218e-06
-9.83235e-07
-7.27082e-06
-1.13905e-06
-6.90133e-06
-1.29085e-06
-6.48318e-06
-1.43202e-06
-6.01621e-06
-1.55305e-06
-5.50114e-06
-1.64204e-06
-4.94125e-06
-1.68568e-06
-4.34433e-06
-1.67214e-06
-3.72363e-06
-1.59584e-06
-3.09635e-06
-1.45889e-06
-2.48148e-06
-1.26959e-06
-1.8957e-06
-1.04458e-06
-1.35501e-06
-8.1067e-07
-8.71097e-07
-5.96182e-07
-4.54933e-07
-4.38391e-07
-9.83974e-08
-3.51577e-07
2.00427e-07
-3.78827e-07
4.48484e-07
-5.60415e-07
6.9138e-07
-8.71586e-07
9.22774e-07
-1.27357e-06
1.18932e-06
-1.62004e-06
1.54248e-06
-1.8246e-06
2.01425e-06
-1.98358e-06
2.57188e-06
-2.11894e-06
3.13484e-06
-2.04906e-06
3.60265e-06
-1.59825e-06
3.87403e-06
-7.31954e-07
3.82299e-06
4.90966e-07
3.34633e-06
1.85436e-06
2.48356e-06
2.98745e-06
1.39208e-06
3.7321e-06
3.88369e-07
3.71587e-06
-1.68946e-06
3.61385e-06
-5.13063e-06
5.12637e-06
-7.4444e-06
6.1411e-06
-8.53682e-06
5.6245e-06
-9.19408e-06
4.7344e-06
-9.84348e-06
3.92463e-06
-1.04221e-05
3.23667e-06
-1.09957e-05
2.61105e-06
-1.15003e-05
2.09289e-06
-1.19259e-05
1.6046e-06
-1.22472e-05
1.17217e-06
-1.24563e-05
7.52732e-07
-1.2549e-05
3.61744e-07
-1.25195e-05
-1.88455e-08
-1.23884e-05
-3.52242e-07
-1.21566e-05
-6.65685e-07
-1.18346e-05
-9.47113e-07
-1.14339e-05
-1.19398e-06
-1.09663e-05
-1.40424e-06
-1.04435e-05
-1.57798e-06
-9.87636e-06
-1.71759e-06
-9.27426e-06
-1.82714e-06
-8.64464e-06
-1.91218e-06
-7.99304e-06
-1.97751e-06
-7.32457e-06
-2.02503e-06
-6.64537e-06
-2.05386e-06
-5.9631e-06
-2.06237e-06
-5.28607e-06
-2.04981e-06
-4.62322e-06
-2.01745e-06
-3.97999e-06
-1.97576e-06
-3.35238e-06
-1.94269e-06
-2.7327e-06
-1.9266e-06
-2.10476e-06
-1.94154e-06
-1.45454e-06
-1.98026e-06
-7.78106e-07
-2.01341e-06
-9.13571e-08
-2.00241e-06
5.77688e-07
-1.92344e-06
1.19254e-06
-1.78466e-06
1.74108e-06
-1.6201e-06
2.22958e-06
-1.48079e-06
2.68409e-06
-1.40472e-06
3.13573e-06
-1.40532e-06
3.60983e-06
-1.46697e-06
4.11702e-06
-1.55167e-06
4.65061e-06
-1.61674e-06
5.19222e-06
-1.63441e-06
5.72182e-06
-1.60138e-06
6.22601e-06
-1.53385e-06
6.70078e-06
-1.4544e-06
7.14936e-06
-1.38004e-06
7.57716e-06
-1.31605e-06
7.98692e-06
-1.25668e-06
8.3767e-06
-1.19171e-06
8.7417e-06
-1.11445e-06
9.07791e-06
-1.02526e-06
9.38517e-06
-9.28322e-07
9.66361e-06
-8.21591e-07
9.90331e-06
-6.90335e-07
1.00905e-05
-5.22593e-07
1.02243e-05
-3.24125e-07
1.02944e-05
-9.88298e-08
1.02658e-05
1.54003e-07
1.0144e-05
3.95755e-07
9.97675e-06
5.85038e-07
9.80494e-06
7.60096e-07
9.66467e-06
1.0535e-06
9.5512e-06
1.49127e-06
9.38941e-06
1.84685e-06
9.12499e-06
1.91557e-06
8.74987e-06
1.79868e-06
8.23585e-06
1.71657e-06
7.55953e-06
1.6783e-06
6.78719e-06
1.53704e-06
6.048e-06
1.26558e-06
5.41987e-06
1.00441e-06
4.88499e-06
8.78431e-07
4.39323e-06
8.78423e-07
3.91964e-06
9.44968e-07
3.46937e-06
1.0557e-06
3.05993e-06
1.17274e-06
2.68547e-06
1.17511e-06
2.34443e-06
9.88498e-07
2.06589e-06
6.66968e-07
1.89478e-06
3.04983e-07
1.85851e-06
-5.72437e-08
1.95647e-06
-3.76257e-07
2.1589e-06
-6.04785e-07
2.41581e-06
-6.97741e-07
2.68467e-06
-6.77449e-07
2.93756e-06
-5.66929e-07
3.15229e-06
-4.35867e-07
3.33195e-06
-2.78138e-07
3.45753e-06
-1.74503e-07
3.5812e-06
-4.79114e-08
-1.27835e-08
3.63222e-06
7.71996e-07
-1.14929e-06
1.29348e-06
-1.73989e-06
1.54321e-06
-1.71039e-06
1.66476e-06
-1.5207e-06
1.74307e-06
-1.28258e-06
1.80613e-06
-1.01282e-06
1.85232e-06
-7.18064e-07
1.8702e-06
-3.99207e-07
1.85534e-06
-6.67926e-08
1.81707e-06
2.60203e-07
1.74778e-06
5.90058e-07
1.63797e-06
8.8142e-07
1.4723e-06
1.11179e-06
1.25775e-06
1.23713e-06
9.61539e-07
1.1897e-06
7.03447e-07
8.48276e-07
3.80608e-07
4.93935e-07
-1.24219e-07
4.56666e-07
-6.80895e-07
6.12587e-07
-1.09797e-06
7.34898e-07
-1.51412e-06
8.45634e-07
-1.98094e-06
1.02641e-06
-2.47005e-06
1.19277e-06
-2.96686e-06
1.34887e-06
-3.47865e-06
1.49019e-06
-4.00122e-06
1.60849e-06
-4.51744e-06
1.70505e-06
-5.02137e-06
1.77643e-06
-5.50346e-06
1.82353e-06
-5.96215e-06
1.84398e-06
-6.39536e-06
1.84024e-06
-6.80245e-06
1.81367e-06
-7.18272e-06
1.76806e-06
-7.53623e-06
1.70591e-06
-7.86295e-06
1.63002e-06
-8.16272e-06
1.5421e-06
-8.43511e-06
1.44357e-06
-8.67948e-06
1.33514e-06
-8.89508e-06
1.21732e-06
-9.08095e-06
1.09046e-06
-9.23598e-06
9.55005e-07
-9.35881e-06
8.11485e-07
-9.44815e-06
6.60678e-07
-9.50263e-06
5.0337e-07
-9.52151e-06
3.40804e-07
-9.50597e-06
1.7466e-07
-9.46565e-06
1.03256e-08
-9.38223e-06
-1.69044e-07
-9.26593e-06
-3.41708e-07
-9.12461e-06
-5.12739e-07
-8.96232e-06
-6.83214e-07
-8.7823e-06
-8.53007e-07
-8.58713e-06
-1.02245e-06
-8.37799e-06
-1.19238e-06
-8.15492e-06
-1.36211e-06
-7.91591e-06
-1.52987e-06
-7.65618e-06
-1.69175e-06
-7.3686e-06
-1.84063e-06
-7.0452e-06
-1.96544e-06
-6.67906e-06
-2.05182e-06
-6.26619e-06
-2.08502e-06
-5.80806e-06
-2.05397e-06
-5.31282e-06
-1.95413e-06
-4.79298e-06
-1.78943e-06
-4.26349e-06
-1.57408e-06
-3.74268e-06
-1.33147e-06
-3.24637e-06
-1.0925e-06
-2.7898e-06
-8.94958e-07
-2.37419e-06
-7.6719e-07
-2.01574e-06
-7.37271e-07
-1.73081e-06
-8.45342e-07
-1.49474e-06
-1.10766e-06
-1.27428e-06
-1.49403e-06
-9.49068e-07
-1.94526e-06
-4.44541e-07
-2.32912e-06
1.61816e-07
-2.58994e-06
7.84209e-07
-2.74134e-06
1.35621e-06
-2.62107e-06
1.80469e-06
-2.04673e-06
2.04174e-06
-9.68997e-07
2.01661e-06
5.16095e-07
1.67348e-06
2.19749e-06
1.00385e-06
3.65708e-06
4.56127e-08
4.69034e-06
-1.70512e-06
5.4666e-06
-4.53269e-06
6.44141e-06
-6.83101e-06
7.42469e-06
-7.77218e-06
7.08228e-06
-8.20561e-06
6.05793e-06
-8.66478e-06
5.19356e-06
-9.15334e-06
4.41319e-06
-9.63334e-06
3.71668e-06
-1.01061e-05
3.08378e-06
-1.0524e-05
2.51084e-06
-1.08812e-05
1.96178e-06
-1.11507e-05
1.4417e-06
-1.13223e-05
9.24243e-07
-1.13838e-05
4.23336e-07
-1.13409e-05
-6.17693e-08
-1.11916e-05
-5.01529e-07
-1.09483e-05
-9.09044e-07
-1.06222e-05
-1.27321e-06
-1.02254e-05
-1.59077e-06
-9.77054e-06
-1.85909e-06
-9.27005e-06
-2.07847e-06
-8.73488e-06
-2.25276e-06
-8.17277e-06
-2.38925e-06
-7.58846e-06
-2.49648e-06
-6.983e-06
-2.58298e-06
-6.35579e-06
-2.65223e-06
-5.70837e-06
-2.70128e-06
-5.04693e-06
-2.72381e-06
-4.38203e-06
-2.71471e-06
-3.72855e-06
-2.67093e-06
-3.10512e-06
-2.59919e-06
-2.51726e-06
-2.53054e-06
-1.95868e-06
-2.48518e-06
-1.40564e-06
-2.49458e-06
-8.3004e-07
-2.55586e-06
-2.08823e-07
-2.63462e-06
4.47086e-07
-2.65832e-06
1.10831e-06
-2.58466e-06
1.72846e-06
-2.40481e-06
2.27809e-06
-2.16973e-06
2.75654e-06
-1.95924e-06
3.18978e-06
-1.83796e-06
3.61502e-06
-1.83055e-06
4.06379e-06
-1.91575e-06
4.54973e-06