/*--------------------------------*- C++ -*----------------------------------*\
  =========                 |
  \\      /  F ield         | OpenFOAM: The Open Source CFD Toolbox
   \\    /   O peration     | Website:  https://openfoam.org
    \\  /    A nd           | Version:  9
     \\/     M anipulation  |
\*---------------------------------------------------------------------------*/
FoamFile
{
    format      ascii;
    class       volVectorField;
    location    "0.06";
    object      U;
}
// * * * * * * * * * * * * * * * * * * * * * * * * * * * * * * * * * * * * * //

dimensions      [0 1 -1 0 0 0 0];

internalField   nonuniform List<vector> 
12225
(
(9.57071 0.0433648 0)
(9.37524 0.0342905 0)
(9.21742 0.0654024 0)
(8.92241 0.0737736 0)
(8.59226 0.0638031 0)
(8.28882 0.054257 0)
(7.99187 0.057293 0)
(7.69175 0.0672808 0)
(7.38494 0.0732874 0)
(7.08629 0.0737987 0)
(6.77272 0.0695014 0)
(6.48309 0.066124 0)
(6.15453 0.0638743 0)
(5.8674 0.0672854 0)
(5.49717 0.0745352 0)
(5.19067 0.0966917 0)
(4.70464 0.116205 0)
(4.26355 0.199795 0)
(10.2376 0.0372767 0)
(10.0258 0.0412178 0)
(10.0119 0.0368863 0)
(10.073 0.0624217 0)
(10.1154 0.0813961 0)
(10.1027 0.0881851 0)
(10.0374 0.0913032 0)
(9.97634 0.0928572 0)
(9.94693 0.0934002 0)
(9.94474 0.0992525 0)
(9.9153 0.110374 0)
(9.8477 0.125574 0)
(9.70842 0.142196 0)
(9.54787 0.156983 0)
(9.34107 0.174084 0)
(9.15483 0.198194 0)
(8.92659 0.251831 0)
(8.68315 0.327572 0)
(9.95672 0.109151 0)
(9.89363 0.075658 0)
(9.90439 0.0614073 0)
(9.94836 0.0566105 0)
(10.0121 0.0645196 0)
(10.0688 0.0836729 0)
(10.0831 0.0993909 0)
(10.0619 0.0990061 0)
(10.0282 0.087724 0)
(10.002 0.0855727 0)
(9.98444 0.101346 0)
(9.96987 0.131766 0)
(9.94206 0.164239 0)
(9.89589 0.192697 0)
(9.82704 0.217396 0)
(9.74186 0.251105 0)
(9.65493 0.309564 0)
(9.57879 0.418281 0)
(9.94115 -0.0202512 0)
(9.9946 0.0245995 0)
(9.99149 0.0311838 0)
(10.0093 0.0384552 0)
(10.0326 0.0410395 0)
(10.0681 0.0534394 0)
(10.0923 0.0792668 0)
(10.08 0.102789 0)
(10.0282 0.11319 0)
(9.95767 0.117625 0)
(9.89645 0.128059 0)
(9.85897 0.149699 0)
(9.83781 0.180599 0)
(9.81696 0.216119 0)
(9.7807 0.251701 0)
(9.72853 0.294381 0)
(9.66766 0.351542 0)
(9.62325 0.436063 0)
(10.1631 0.0196861 0)
(10.0788 0.0650201 0)
(10.0223 0.0587647 0)
(10.0443 0.0458586 0)
(10.1042 0.0509257 0)
(10.1425 0.0766935 0)
(10.1261 0.1103 0)
(10.0663 0.131755 0)
(9.98993 0.134282 0)
(9.91434 0.128906 0)
(9.84849 0.130164 0)
(9.79766 0.144907 0)
(9.75937 0.172511 0)
(9.72903 0.209262 0)
(9.69835 0.251794 0)
(9.66786 0.303854 0)
(9.6367 0.367392 0)
(9.61902 0.447207 0)
(9.92076 0.0326718 0)
(9.90201 0.0511875 0)
(9.89239 0.0466211 0)
(9.8939 0.0206961 0)
(9.92596 0.0068416 0)
(9.97719 0.0323569 0)
(10.0147 0.086815 0)
(10.026 0.13781 0)
(10.0151 0.16581 0)
(9.98544 0.175866 0)
(9.93791 0.183614 0)
(9.8747 0.199299 0)
(9.79884 0.224419 0)
(9.71657 0.257143 0)
(9.63495 0.292864 0)
(9.56441 0.33395 0)
(9.51238 0.37985 0)
(9.4905 0.438014 0)
(10.0202 0.0232026 0)
(10.0256 0.0557629 0)
(10.0491 0.0687485 0)
(10.0318 0.0373606 0)
(9.97074 0.0238517 0)
(9.89905 0.0566602 0)
(9.84185 0.108477 0)
(9.81893 0.14436 0)
(9.82968 0.155348 0)
(9.85252 0.156181 0)
(9.86585 0.165836 0)
(9.86136 0.192576 0)
(9.84129 0.2327 0)
(9.81261 0.278568 0)
(9.78318 0.32294 0)
(9.75557 0.36581 0)
(9.73612 0.408472 0)
(9.71919 0.456159 0)
(10.1287 0.0113283 0)
(10.0109 0.0316516 0)
(10.0514 0.0446466 0)
(10.0614 0.0537719 0)
(10.0368 0.055668 0)
(10.0287 0.0724527 0)
(10.0343 0.101317 0)
(10.0331 0.127384 0)
(10.0092 0.14577 0)
(9.95685 0.163719 0)
(9.88987 0.189952 0)
(9.8305 0.225128 0)
(9.79383 0.263148 0)
(9.78041 0.298474 0)
(9.78315 0.329493 0)
(9.79169 0.360318 0)
(9.80099 0.395045 0)
(9.80685 0.438948 0)
(10.0834 0.021606 0)
(10.2202 0.0515341 0)
(10.2272 0.0695599 0)
(10.1821 0.0420182 0)
(10.1157 0.0309673 0)
(10.0449 0.064354 0)
(9.97625 0.120739 0)
(9.91758 0.171089 0)
(9.86819 0.201725 0)
(9.82242 0.214551 0)
(9.7814 0.219882 0)
(9.75519 0.228323 0)
(9.75028 0.245609 0)
(9.76715 0.27304 0)
(9.79612 0.308701 0)
(9.82815 0.351208 0)
(9.85409 0.398607 0)
(9.86918 0.44829 0)
(10.1581 -0.0712524 0)
(10.0486 -0.0127203 0)
(10.0563 0.0635994 0)
(9.96813 0.092047 0)
(9.84795 0.112208 0)
(9.80147 0.131065 0)
(9.84575 0.143764 0)
(9.94242 0.157635 0)
(10.034 0.17852 0)
(10.0732 0.20504 0)
(10.0484 0.232303 0)
(9.98367 0.255634 0)
(9.91289 0.272563 0)
(9.86146 0.285731 0)
(9.83743 0.302331 0)
(9.83754 0.328829 0)
(9.85169 0.370352 0)
(9.86852 0.425128 0)
(10.166 0.0832403 0)
(10.1296 0.0865221 0)
(10.056 0.121385 0)
(9.98631 0.132227 0)
(9.97239 0.102268 0)
(9.98115 0.0684571 0)
(9.97143 0.0604536 0)
(9.94899 0.0894037 0)
(9.9325 0.146401 0)
(9.92603 0.211002 0)
(9.92594 0.263584 0)
(9.92807 0.294286 0)
(9.93067 0.305309 0)
(9.92845 0.307522 0)
(9.92101 0.313746 0)
(9.90801 0.33349 0)
(9.89431 0.370978 0)
(9.88458 0.426 0)
(9.95945 -0.038907 0)
(9.94969 0.0934882 0)
(9.94373 0.113009 0)
(9.96345 0.10939 0)
(9.99591 0.115448 0)
(10.0007 0.131311 0)
(9.95059 0.146196 0)
(9.87001 0.159448 0)
(9.79663 0.17866 0)
(9.74899 0.206338 0)
(9.72782 0.237393 0)
(9.72672 0.265405 0)
(9.73829 0.288074 0)
(9.75488 0.307476 0)
(9.7759 0.328863 0)
(9.79901 0.357664 0)
(9.82841 0.395385 0)
(9.86104 0.444869 0)
(9.92583 -0.0441387 0)
(9.87863 0.0894541 0)
(9.8555 0.133485 0)
(9.80815 0.109148 0)
(9.83334 0.0814256 0)
(9.91734 0.0908821 0)
(9.97343 0.134011 0)
(9.96089 0.187494 0)
(9.89495 0.232499 0)
(9.81558 0.261828 0)
(9.75887 0.276454 0)
(9.74116 0.27903 0)
(9.75794 0.273977 0)
(9.79714 0.266863 0)
(9.84367 0.265989 0)
(9.89195 0.278358 0)
(9.9345 0.306496 0)
(9.97628 0.354537 0)
(9.98361 0.116481 0)
(9.94422 0.17225 0)
(9.99951 0.158653 0)
(9.97455 0.113283 0)
(9.9155 0.0630968 0)
(9.86787 0.0585227 0)
(9.85207 0.10728 0)
(9.87514 0.180418 0)
(9.9232 0.242221 0)
(9.97293 0.273738 0)
(10.0064 0.27707 0)
(10.0166 0.266338 0)
(10.0025 0.25614 0)
(9.97185 0.257619 0)
(9.93041 0.274446 0)
(9.89173 0.306661 0)
(9.85701 0.350052 0)
(9.83819 0.400532 0)
(9.94068 0.0806734 0)
(9.97351 0.032977 0)
(10.0093 0.100279 0)
(10.0555 0.143306 0)
(10.0849 0.14898 0)
(10.0673 0.146367 0)
(10.0128 0.147528 0)
(9.96429 0.157436 0)
(9.93986 0.177645 0)
(9.93212 0.2088 0)
(9.93061 0.24832 0)
(9.93092 0.287821 0)
(9.93393 0.317436 0)
(9.94239 0.332679 0)
(9.95907 0.337679 0)
(9.98054 0.341469 0)
(10.0063 0.351976 0)
(10.0261 0.377194 0)
(10.1218 0.00916998 0)
(9.9716 0.129621 0)
(9.89498 0.132821 0)
(9.87463 0.0593148 0)
(9.9061 0.0466105 0)
(9.93597 0.0959996 0)
(9.95107 0.168381 0)
(9.96102 0.229329 0)
(9.96619 0.26353 0)
(9.96863 0.273361 0)
(9.97688 0.266359 0)
(9.99605 0.249274 0)
(10.0236 0.229067 0)
(10.0526 0.215429 0)
(10.0737 0.218294 0)
(10.0831 0.242183 0)
(10.0777 0.28799 0)
(10.0643 0.349368 0)
(9.95675 0.0845879 0)
(9.93148 0.182664 0)
(9.93835 0.169259 0)
(9.92925 0.139418 0)
(9.92634 0.126723 0)
(9.91893 0.126394 0)
(9.91836 0.136429 0)
(9.9275 0.156101 0)
(9.93889 0.181327 0)
(9.94903 0.206864 0)
(9.95602 0.228378 0)
(9.95537 0.245272 0)
(9.94588 0.260523 0)
(9.93082 0.280684 0)
(9.91877 0.309883 0)
(9.91602 0.349377 0)
(9.92736 0.39499 0)
(9.95511 0.443285 0)
(9.65451 -0.0017304 0)
(9.63407 0.0821113 0)
(9.72286 0.0796695 0)
(9.8039 0.0458612 0)
(9.81776 0.0288656 0)
(9.80864 0.0674079 0)
(9.81627 0.13411 0)
(9.84202 0.187191 0)
(9.87688 0.21474 0)
(9.91895 0.22846 0)
(9.96251 0.240969 0)
(9.99718 0.253373 0)
(10.0174 0.259387 0)
(10.0271 0.252816 0)
(10.0337 0.233294 0)
(10.0443 0.210519 0)
(10.0625 0.190804 0)
(10.0897 0.190164 0)
(10.0063 -0.242748 0)
(9.90163 -0.118436 0)
(9.92252 -0.0194458 0)
(9.97956 0.0795297 0)
(10.0012 0.147492 0)
(9.99482 0.160505 0)
(9.97501 0.131528 0)
(9.96247 0.0880595 0)
(9.97423 0.0599421 0)
(10.0149 0.0643885 0)
(10.0755 0.0990669 0)
(10.1412 0.150522 0)
(10.1995 0.203611 0)
(10.2442 0.248057 0)
(10.2721 0.280037 0)
(10.2836 0.30123 0)
(10.2809 0.316062 0)
(10.2676 0.326853 0)
(9.77597 -0.0918335 0)
(9.75067 -0.00686276 0)
(9.74739 -0.0150498 0)
(9.76111 -0.0502787 0)
(9.81852 -0.00346557 0)
(9.90813 0.0939143 0)
(9.99429 0.16149 0)
(10.0564 0.154596 0)
(10.0865 0.0903042 0)
(10.083 0.0197249 0)
(10.0585 -0.0156442 0)
(10.0353 -0.00506654 0)
(10.03 0.0389074 0)
(10.0475 0.096339 0)
(10.0852 0.152858 0)
(10.135 0.202528 0)
(10.1889 0.244427 0)
(10.2389 0.282298 0)
(10.3369 0.0714075 0)
(10.3035 -0.0170885 0)
(10.2912 -0.0581017 0)
(10.2329 -0.0583743 0)
(10.145 -0.0441426 0)
(10.0953 -0.0331031 0)
(10.0959 -0.0250701 0)
(10.1086 -0.00113003 0)
(10.1002 0.0490925 0)
(10.0629 0.111435 0)
(10.0108 0.1589 0)
(9.96674 0.173422 0)
(9.94719 0.156434 0)
(9.95653 0.124126 0)
(9.98704 0.0954307 0)
(10.029 0.0835582 0)
(10.0719 0.0928078 0)
(10.1113 0.123481 0)
(9.82806 0.0487025 0)
(9.79166 0.0254712 0)
(9.70898 0.0670646 0)
(9.67081 0.084665 0)
(9.71271 0.0988817 0)
(9.80857 0.106516 0)
(9.89555 0.107262 0)
(9.94866 0.110528 0)
(9.98584 0.119676 0)
(10.0309 0.125903 0)
(10.092 0.117471 0)
(10.1627 0.0925824 0)
(10.2289 0.0610804 0)
(10.2772 0.0383625 0)
(10.2998 0.036779 0)
(10.2985 0.0584148 0)
(10.2806 0.0998692 0)
(10.2553 0.150736 0)
(9.81158 -0.0841205 0)
(9.91636 0.0602197 0)
(9.95418 0.0756041 0)
(9.91784 -0.0246385 0)
(9.90371 -0.128107 0)
(9.9356 -0.163425 0)
(9.99364 -0.130261 0)
(10.0626 -0.0667404 0)
(10.1428 -0.0120904 0)
(10.2278 0.0145895 0)
(10.3003 0.0160995 0)
(10.345 0.00876008 0)
(10.3591 0.00869448 0)
(10.3501 0.0242305 0)
(10.3296 0.0559539 0)
(10.3085 0.0976676 0)
(10.2949 0.142402 0)
(10.294 0.181706 0)
(9.90096 -0.222935 0)
(9.97386 -0.106108 0)
(10.1403 0.0352836 0)
(10.2473 0.0810392 0)
(10.2561 0.0525728 0)
(10.2169 0.004613 0)
(10.1851 -0.0345497 0)
(10.1781 -0.0551814 0)
(10.1842 -0.0572799 0)
(10.1857 -0.0427675 0)
(10.1758 -0.0153642 0)
(10.1591 0.0165115 0)
(10.1435 0.0463591 0)
(10.135 0.0718019 0)
(10.1361 0.0941219 0)
(10.1472 0.115479 0)
(10.1662 0.137462 0)
(10.1931 0.158803 0)
(10.0852 -0.022228 0)
(10.139 -0.101001 0)
(10.2014 -0.0672171 0)
(10.2056 -0.0692232 0)
(10.1613 -0.0888137 0)
(10.0935 -0.0983939 0)
(10.0354 -0.0900459 0)
(10.0006 -0.0608394 0)
(9.98997 -0.0184998 0)
(9.99777 0.0189136 0)
(10.0114 0.0382526 0)
(10.0219 0.0406902 0)
(10.0305 0.0358166 0)
(10.0414 0.0342687 0)
(10.0592 0.0416518 0)
(10.0861 0.0575026 0)
(10.1224 0.0784166 0)
(10.1662 0.0979712 0)
(10.004 -0.112484 0)
(10.0025 -0.176801 0)
(10.0494 -0.0314006 0)
(10.0997 0.0844238 0)
(10.1076 0.103146 0)
(10.0834 0.0730746 0)
(10.0642 0.0210961 0)
(10.0657 -0.0289151 0)
(10.0784 -0.0557054 0)
(10.0884 -0.0532439 0)
(10.0895 -0.0292318 0)
(10.0835 0.00278808 0)
(10.0772 0.030535 0)
(10.079 0.0477648 0)
(10.099 0.055751 0)
(10.1395 0.0592598 0)
(10.1996 0.0637478 0)
(10.2722 0.0709479 0)
(9.93805 -0.0415132 0)
(9.80612 -0.121545 0)
(9.78953 -0.127455 0)
(9.86022 -0.0738783 0)
(9.91464 -0.0492576 0)
(9.93768 -0.0577255 0)
(9.9681 -0.0713488 0)
(10.0161 -0.0627408 0)
(10.0567 -0.0306568 0)
(10.0692 0.00772631 0)
(10.0541 0.0354447 0)
(10.0271 0.0448878 0)
(10.0071 0.035929 0)
(10.0044 0.014257 0)
(10.0227 -0.010243 0)
(10.0622 -0.0297465 0)
(10.1187 -0.0412249 0)
(10.1883 -0.04106 0)
(10.0239 -0.0709898 0)
(10.0151 -0.0762726 0)
(9.88372 -0.0619289 0)
(9.79573 0.0130355 0)
(9.83104 0.0581478 0)
(9.91575 0.0320788 0)
(9.98381 -0.0335348 0)
(10.0285 -0.0827791 0)
(10.0692 -0.08447 0)
(10.1213 -0.0475812 0)
(10.1865 -0.000609186 0)
(10.2548 0.0347737 0)
(10.3122 0.0474355 0)
(10.3507 0.037599 0)
(10.3694 0.0131335 0)
(10.3731 -0.0140844 0)
(10.3705 -0.0361844 0)
(10.3718 -0.0485241 0)
(10.16 -0.137213 0)
(10.1412 -0.072634 0)
(10.1234 -0.0435137 0)
(10.1649 -0.0480369 0)
(10.2668 -0.0844872 0)
(10.3193 -0.111944 0)
(10.2675 -0.111312 0)
(10.1564 -0.0930741 0)
(10.0625 -0.0706552 0)
(10.035 -0.0500727 0)
(10.0801 -0.0326725 0)
(10.1725 -0.0205899 0)
(10.2752 -0.0150379 0)
(10.3566 -0.0165273 0)
(10.3996 -0.0245741 0)
(10.4064 -0.035369 0)
(10.386 -0.0454115 0)
(10.3549 -0.0516057 0)
(9.97124 -0.0468691 0)
(9.71909 -0.0545227 0)
(9.52628 -0.0620989 0)
(9.3699 -0.038267 0)
(9.22538 -0.00435967 0)
(9.08149 0.0152767 0)
(8.94443 0.00984276 0)
(8.8111 -0.0148098 0)
(8.66872 -0.0436223 0)
(8.51932 -0.0630216 0)
(8.37994 -0.0673854 0)
(8.2662 -0.0588543 0)
(8.18211 -0.043011 0)
(8.12392 -0.0255883 0)
(8.08034 -0.0111815 0)
(8.042 -0.00391766 0)
(7.99733 -0.00569046 0)
(7.94374 -0.0139342 0)
(-0.159258 0.310011 1.28766e-20)
(-0.303217 0.129217 -1.27909e-20)
(-0.0455584 -0.295552 0)
(0.362042 -0.449998 0)
(0.838936 -0.474096 0)
(1.28695 -0.409291 1.23461e-20)
(1.65661 -0.289049 0)
(1.91381 -0.12743 0)
(2.03334 0.0202394 0)
(2.02771 0.208013 0)
(1.83133 0.580806 -1.16133e-20)
(1.36614 0.704663 0)
(0.945307 0.205379 0)
(0.700089 -0.23713 0)
(0.588577 -0.217324 0)
(0.579976 0.0710035 -1.10471e-20)
(0.528664 0.087926 0)
(0.637965 -0.194234 0)
(0.850054 -0.385589 0)
(1.16851 -0.460958 0)
(1.459 -0.355942 0)
(1.57335 -0.387118 0)
(1.49141 -0.542914 0)
(1.46654 -0.322433 -9.74604e-21)
(1.29637 0.296512 9.60794e-21)
(0.879327 0.451347 -9.48383e-21)
(0.600979 0.255989 -9.35018e-21)
(0.31577 0.174226 0)
(0.0530635 0.204736 0)
(-0.292241 0.276727 8.84228e-21)
(-0.665997 0.317486 8.64202e-21)
(-1.0738 0.342088 0)
(-1.50134 0.36384 0)
(-1.94473 0.391284 7.97213e-21)
(-2.4019 0.414851 0)
(-2.86293 0.432195 0)
(-3.32374 0.439478 -7.24287e-21)
(-3.7749 0.438022 0)
(-4.21159 0.423277 -6.76909e-21)
(-4.62421 0.393309 -1.30964e-20)
(-5.00526 0.345675 0)
(-5.34567 0.282774 0)
(-5.63914 0.211317 0)
(-5.88191 0.139786 0)
(-6.07277 0.0761939 0)
(-6.21216 0.0243082 -1.13937e-20)
(-6.30051 -0.0157002 -1.13206e-20)
(-6.33553 -0.0464364 -1.13125e-20)
(-6.31219 -0.0732705 0)
(-6.2351 -0.101932 1.14832e-20)
(-6.09772 -0.135802 0)
(-5.90123 -0.175183 -1.18665e-20)
(-5.64505 -0.216543 -1.21182e-20)
(-5.33151 -0.254881 0)
(-4.96422 -0.286594 0)
(-4.54913 -0.309658 0)
(-4.09441 -0.321948 -1.32574e-20)
(-3.61129 -0.319602 0)
(-3.11599 -0.297812 0)
(-2.63024 -0.254327 0)
(-2.17868 -0.192605 0)
(-1.78633 -0.118795 0)
(-1.47476 -0.037876 0)
(-1.25656 0.0418437 0)
(-1.15041 0.102996 0)
(-1.15205 0.105442 1.44554e-20)
(-1.21854 0.0259837 0)
(-1.25752 -0.0737588 0)
(-1.25964 -0.138753 -1.47264e-20)
(-1.27791 -0.212562 -1.47963e-20)
(-1.14321 -0.299738 0)
(-0.85003 -0.35037 1.4834e-20)
(-0.413559 -0.450873 -1.47724e-20)
(0.290793 -0.578983 0)
(1.11228 -0.635356 1.42948e-20)
(1.95725 -0.618837 0)
(2.79767 -0.583167 0)
(3.6114 -0.494209 -1.24953e-20)
(4.28875 -0.316725 0)
(4.70099 -0.043035 1.12173e-20)
(4.668 0.302954 0)
(4.12656 0.569673 -1.12106e-20)
(3.22741 0.80334 -1.17639e-20)
(1.89113 0.943001 -1.24616e-20)
(0.675388 0.473118 -2.62219e-20)
(-0.829769 0.296574 2.67119e-20)
(-0.550187 -0.586601 0)
(-0.425671 -1.68345 0)
(-0.977769 0.794606 0)
(-4.62646 1.80494 2.53516e-20)
(-6.77748 1.1412 2.27985e-20)
(-8.5483 0.99978 -1.97681e-20)
(-9.99028 0.699694 0)
(-11.0181 0.543236 1.38912e-20)
(-11.873 0.385732 1.14739e-20)
(-12.4507 0.275156 9.50987e-21)
(-12.8861 0.177098 0)
(-13.1271 0.0965132 0)
(-13.2395 0.0275619 0)
(-13.2048 -0.0301661 6.39426e-21)
(-13.0743 -0.0779215 0)
(-12.8377 -0.119581 0)
(-12.5197 -0.154315 -8.14583e-21)
(-12.1245 -0.183591 0)
(-11.6688 -0.206683 0)
(-11.1609 -0.224831 -1.17095e-20)
(-10.6118 -0.238267 0)
(-10.0291 -0.248014 0)
(-9.42038 -0.254562 1.56101e-20)
(-8.79246 -0.25847 1.68219e-20)
(-8.15206 -0.25982 0)
(-7.50615 -0.258788 -1.89825e-20)
(-6.86103 -0.255519 0)
(-6.22121 -0.250523 2.07008e-20)
(-5.58785 -0.245143 0)
(-4.96013 -0.240494 2.19558e-20)
(-4.33564 -0.237166 2.24282e-20)
(-3.7099 -0.235767 0)
(-3.0799 -0.23527 0)
(-2.4482 -0.232866 0)
(-1.82106 -0.226488 0)
(-1.21088 -0.214583 0)
(-0.633419 -0.197442 0)
(-0.097976 -0.183156 0)
(0.398876 -0.173266 2.28837e-20)
(0.870531 -0.166516 -2.25385e-20)
(1.33677 -0.166764 0)
(1.81349 -0.171987 0)
(2.31253 -0.177853 0)
(2.83435 -0.180839 0)
(3.36948 -0.179405 -4.09636e-20)
(3.90364 -0.17375 0)
(4.42405 -0.165374 3.87473e-20)
(4.9233 -0.156109 -3.74937e-20)
(5.39965 -0.147205 0)
(5.85466 -0.138946 0)
(6.28999 -0.130863 0)
(6.70522 -0.122286 3.20229e-20)
(7.09752 -0.112716 3.06338e-20)
(7.46286 -0.101757 0)
(7.79666 -0.0883751 2.79619e-20)
(8.09277 -0.0713278 2.67275e-20)
(8.34252 -0.0543545 -2.55925e-20)
(8.54165 -0.0425093 0)
(8.68361 -0.0228931 0)
(8.74222 0.0198911 -2.302e-20)
(8.69577 0.0620099 0)
(8.56126 0.0617932 0)
(8.38196 0.0320285 0)
(8.17302 0.0919938 0)
(7.72284 0.329284 2.25944e-20)
(6.73179 0.555861 2.29891e-20)
(5.36407 0.521139 0)
(4.09908 0.308871 2.30023e-20)
(3.17076 0.130655 0)
(2.57202 0.0228546 0)
(2.22881 -0.0455904 2.40912e-20)
(2.06183 -0.0864427 0)
(2.01476 -0.0978345 2.49421e-20)
(2.03239 -0.075486 0)
(2.04424 -0.0325903 0)
(2.00254 -0.00239093 2.49539e-20)
(1.90551 0.0173506 0)
(1.7257 0.0751649 2.39719e-20)
(1.38538 0.156553 0)
(0.904026 0.173304 0)
(0.445792 0.116791 0)
(0.15047 0.0385128 -2.08208e-20)
(0.033363 -0.0190137 0)
(0.0591849 -0.0478571 1.98823e-20)
(0.184013 -0.0532958 0)
(0.376398 -0.0486798 0)
(0.587121 -0.0351205 0)
(0.780153 -0.0138379 0)
(0.918049 0.0102806 0)
(0.98058 0.0264344 0)
(0.994421 0.0362466 0)
(0.901563 0.0216822 -3.71119e-20)
(0.928145 0.0391308 0)
(0.580371 -0.0300302 0)
(-0.135172 0.57357 -3.85787e-20)
(0.226743 -0.305684 3.82532e-20)
(0.725666 -1.12836 0)
(1.21492 -1.4758 -2.48851e-20)
(1.62951 -1.4751 0)
(1.96564 -1.26282 -1.2306e-20)
(2.21913 -0.944253 2.38678e-20)
(2.39621 -0.558691 2.35563e-20)
(2.48567 -0.147618 0)
(2.50761 0.218196 2.3046e-20)
(2.46204 0.625205 1.15842e-20)
(2.32796 0.975514 0)
(2.17973 1.07542 0)
(1.77815 0.981816 0)
(1.24807 0.49173 0)
(0.948913 -0.0102344 1.10307e-20)
(0.922645 -0.190875 0)
(1.00343 -0.391885 -2.15884e-20)
(1.10134 -0.660995 0)
(1.0311 -0.844751 0)
(0.803773 -0.333923 2.0539e-20)
(0.638101 0.418999 0)
(0.255336 0.641963 -1.9936e-20)
(-0.0935495 0.64302 9.78793e-21)
(-0.311285 0.696104 -9.64216e-21)
(-0.514686 0.667601 9.50439e-21)
(-0.799887 0.724644 9.35062e-21)
(-1.20333 0.783208 0)
(-1.60719 0.867464 0)
(-2.04763 0.948243 -8.79704e-21)
(-2.48422 1.01861 8.44771e-21)
(-2.93452 1.06639 0)
(-3.37159 1.09252 0)
(-3.79181 1.09816 -7.92937e-21)
(-4.18435 1.08554 0)
(-4.54768 1.05894 0)
(-4.87978 1.01987 7.21049e-21)
(-5.17883 0.970926 0)
(-5.44559 0.912311 -6.42428e-21)
(-5.67972 0.845372 1.30564e-20)
(-5.88416 0.771024 0)
(-6.06087 0.690774 0)
(-6.21218 0.605404 2.33654e-20)
(-6.33834 0.51449 2.28729e-20)
(-6.43763 0.416651 2.25044e-20)
(-6.50593 0.309936 -1.08827e-20)
(-6.53804 0.194068 1.13144e-20)
(-6.53137 0.0709692 3.34989e-20)
(-6.48336 -0.0562465 -2.23256e-20)
(-6.38497 -0.184354 -1.14773e-20)
(-6.24347 -0.309992 0)
(-6.05724 -0.43002 1.18579e-20)
(-5.82676 -0.542789 -1.17431e-20)
(-5.5498 -0.647638 0)
(-5.22451 -0.74463 0)
(-4.84935 -0.832569 0)
(-4.42375 -0.907106 1.32374e-20)
(-3.9501 -0.960322 0)
(-3.43705 -0.982139 -2.70875e-20)
(-2.89906 -0.962988 0)
(-2.34965 -0.896727 -2.77359e-20)
(-1.80178 -0.782369 0)
(-1.27785 -0.624837 2.81773e-20)
(-0.799846 -0.43707 0)
(-0.383687 -0.23165 -2.86103e-20)
(-0.0561155 -0.0384927 1.43799e-20)
(0.165522 0.104484 0)
(0.28147 0.162935 2.94059e-20)
(0.286448 0.14569 1.47607e-20)
(0.259868 0.0339332 1.48234e-20)
(0.318351 -0.232172 0)
(0.402136 -0.555874 1.5145e-20)
(0.754593 -0.952841 1.4749e-20)
(1.23159 -1.27843 0)
(1.71999 -1.42233 -1.42631e-20)
(2.24306 -1.43693 2.73735e-20)
(2.78879 -1.43201 0)
(3.38118 -1.30619 1.24857e-20)
(3.96872 -0.953269 0)
(4.39218 -0.361074 -3.24163e-20)
(4.54007 0.364163 0)
(4.33565 1.04203 3.20346e-20)
(3.66296 1.5361 1.17358e-20)
(2.68564 1.81707 -1.1359e-20)
(1.34447 2.20983 -2.49983e-20)
(-0.108491 1.24012 2.69571e-20)
(-0.011633 0.00842382 0)
(-4.13437 2.45954 0)
(-6.20223 3.63119 0)
(-8.17579 3.33677 -7.10232e-20)
(-9.18935 2.61693 -2.26569e-20)
(-10.1957 2.13408 1.96806e-20)
(-10.8815 1.60966 0)
(-11.4797 1.25114 1.13106e-20)
(-11.9363 0.919662 -1.14631e-20)
(-12.2881 0.660009 -9.50688e-21)
(-12.5341 0.423401 0)
(-12.6724 0.219535 0)
(-12.7142 0.0359308 0)
(-12.6582 -0.125197 -6.39868e-21)
(-12.4983 -0.268337 0)
(-12.2457 -0.3929 1.38133e-20)
(-11.9096 -0.499477 2.37962e-20)
(-11.5009 -0.588193 -1.78721e-20)
(-11.0316 -0.65948 0)
(-10.5118 -0.714991 -1.12793e-20)
(-9.952 -0.756537 0)
(-9.35931 -0.786714 -2.83262e-20)
(-8.74119 -0.807385 1.52872e-20)
(-8.10367 -0.819842 1.65222e-20)
(-7.45396 -0.824548 0)
(-6.79869 -0.821872 5.66989e-20)
(-6.14509 -0.812144 -3.95746e-20)
(-5.49822 -0.796717 -2.07038e-20)
(-4.85926 -0.779376 0)
(-4.22616 -0.764108 -2.19599e-20)
(-3.59591 -0.752861 -6.70802e-20)
(-2.96217 -0.748033 0)
(-2.31868 -0.747611 -4.6011e-20)
(-1.6678 -0.741818 -4.64604e-20)
(-1.01535 -0.722912 -4.67358e-20)
(-0.377489 -0.685941 0)
(0.221946 -0.638314 0)
(0.76881 -0.587682 0)
(1.27276 -0.547464 2.27212e-20)
(1.74639 -0.524451 2.25036e-20)
(2.21007 -0.52385 0)
(2.68424 -0.540334 4.33571e-20)
(3.18321 -0.561943 4.25616e-20)
(3.7085 -0.576481 0)
(4.24986 -0.57677 4.08993e-20)
(4.79114 -0.562404 7.94566e-20)
(5.31771 -0.538159 -3.86883e-20)
(5.82139 -0.510303 -3.72079e-20)
(6.30075 -0.483389 0)
(6.75841 -0.458802 0)
(7.19705 -0.435129 0)
(7.61667 -0.409868 -3.19793e-20)
(8.01415 -0.381291 3.03751e-20)
(8.3852 -0.348985 5.82474e-20)
(8.72679 -0.31305 -2.79269e-20)
(9.03657 -0.272648 2.64636e-20)
(9.31176 -0.225275 2.55621e-20)
(9.54012 -0.166382 0)
(9.69731 -0.0962803 0)
(9.77823 -0.0255561 -2.27173e-20)
(9.80605 0.0461573 0)
(9.7777 0.127718 0)
(9.64774 0.204806 4.37089e-20)
(9.42362 0.28444 0)
(9.20504 0.454065 2.18827e-20)
(8.99141 0.729276 -2.29221e-20)
(8.70286 0.936183 0)
(8.29051 0.920852 2.25256e-20)
(7.701 0.728108 0)
(6.96014 0.509945 0)
(6.18707 0.344712 -2.3992e-20)
(5.47793 0.212811 4.91917e-20)
(4.88853 0.107527 -2.48706e-20)
(4.43217 0.0487607 0)
(4.07055 0.0453223 0)
(3.76085 0.0835652 2.5008e-20)
(3.45382 0.137671 0)
(3.10412 0.1996 2.39388e-20)
(2.71539 0.270199 0)
(2.33016 0.301861 0)
(2.01784 0.256485 0)
(1.80223 0.16204 2.07893e-20)
(1.66719 0.0615389 0)
(1.63534 -0.0267663 -1.9856e-20)
(1.72508 -0.097273 0)
(1.90911 -0.144939 0)
(2.15632 -0.158698 3.89537e-20)
(2.41774 -0.14452 -3.88034e-20)
(2.67539 -0.1037 0)
(2.88436 -0.0635536 0)
(3.07861 -0.00363257 0)
(3.17991 0.0167384 1.11113e-19)
(3.32152 0.0776642 0)
(3.24459 0.0407698 -7.15207e-20)
(0.147854 0.199059 3.46092e-23)
(0.85113 -1.49081 -5.06791e-20)
(1.41208 -2.31151 0)
(1.78671 -2.43398 4.92461e-20)
(2.03315 -2.18155 0)
(2.20131 -1.75354 0)
(2.3077 -1.2601 -5.17847e-22)
(2.36887 -0.745285 -2.35502e-20)
(2.3947 -0.214699 -2.28086e-20)
(2.37093 0.287112 -2.30445e-20)
(2.29769 0.773144 0)
(2.18922 1.17621 0)
(2.07228 1.41952 2.23446e-20)
(1.8151 1.52758 4.46758e-20)
(1.5121 1.2541 -4.46254e-20)
(1.10172 0.749024 0)
(0.856816 0.0656756 -4.40803e-20)
(0.70761 -0.469848 2.16104e-20)
(0.497762 -0.422495 0)
(-0.040214 0.229334 -4.22197e-20)
(-0.451989 0.491845 -2.0567e-20)
(-0.649627 0.625499 4.06852e-20)
(-0.910202 0.745096 1.9897e-20)
(-1.19984 0.933702 0)
(-1.5633 1.152 -3.85223e-20)
(-1.95788 1.31007 -3.77557e-20)
(-2.39527 1.45799 0)
(-2.86253 1.57284 -3.61087e-20)
(-3.32948 1.67556 0)
(-3.79645 1.7437 -3.42849e-20)
(-4.23957 1.77911 -1.69521e-20)
(-4.66802 1.77922 0)
(-5.07096 1.75249 0)
(-5.45375 1.70262 0)
(-5.8108 1.63466 0)
(-6.14357 1.55101 0)
(-6.44938 1.45388 0)
(-6.72824 1.34455 -2.60878e-20)
(-6.97926 1.22409 3.82642e-20)
(-7.20212 1.09394 0)
(-7.39658 0.955836 0)
(-7.562 0.811848 0)
(-7.69719 0.663854 -1.05529e-21)
(-7.80012 0.513473 -2.27943e-20)
(-7.86889 0.361563 -4.38678e-20)
(-7.90201 0.208556 4.34362e-20)
(-7.9007 0.0536317 2.11685e-20)
(-7.86878 -0.10554 -2.21253e-20)
(-7.81064 -0.266336 8.68227e-22)
(-7.72559 -0.428935 -2.16667e-20)
(-7.60998 -0.592877 0)
(-7.46066 -0.758418 -2.24935e-20)
(-7.27447 -0.925428 7.53526e-22)
(-7.04861 -1.09278 0)
(-6.78107 -1.25726 0)
(-6.47019 -1.41286 2.47865e-20)
(-6.11469 -1.55034 0)
(-5.71453 -1.65793 0)
(-5.27141 -1.7226 -2.58633e-20)
(-4.7875 -1.73142 -5.36717e-20)
(-4.26519 -1.67443 2.76034e-20)
(-3.71163 -1.54985 0)
(-3.141 -1.36399 -2.80486e-20)
(-2.56916 -1.12858 0)
(-2.00977 -0.864951 -2.82074e-20)
(-1.48426 -0.603495 -2.87683e-20)
(-1.00183 -0.368354 5.81791e-20)
(-0.590765 -0.208817 2.96204e-20)
(-0.237946 -0.128154 0)
(0.0632168 -0.191849 -6.0457e-20)
(0.328638 -0.407997 0)
(0.53192 -0.740317 -9.07899e-20)
(0.774417 -1.20392 -6.02238e-20)
(0.949059 -1.53003 -5.89752e-20)
(1.24892 -1.63663 5.71155e-20)
(1.64415 -1.71997 -8.1999e-20)
(2.09233 -1.88817 0)
(2.59872 -1.87141 0)
(3.09068 -1.46685 4.27659e-20)
(3.46339 -0.639512 6.03071e-20)
(3.60794 0.479373 0)
(3.44961 1.65177 -2.08532e-20)
(2.87524 2.61624 0)
(1.86177 3.33231 6.78855e-20)
(0.866952 3.23055 2.32061e-21)
(-0.0519546 1.99444 -1.75937e-21)
(-3.19699 3.41362 -5.14467e-20)
(-6.53 5.05836 0)
(-7.56492 4.98193 4.48414e-20)
(-8.42939 4.21422 5.12124e-21)
(-8.93801 3.43495 0)
(-9.58066 2.76976 0)
(-10.0905 2.17016 0)
(-10.6353 1.71089 -2.51884e-20)
(-11.0655 1.29032 0)
(-11.4362 0.937811 0)
(-11.6853 0.605465 0)
(-11.8337 0.306302 0)
(-11.8654 0.0252273 0)
(-11.799 -0.231027 -1.03958e-20)
(-11.6313 -0.463011 0)
(-11.3757 -0.666816 -1.38241e-20)
(-11.0394 -0.842119 -1.56578e-20)
(-10.6355 -0.98804 1.78823e-20)
(-10.174 -1.1055 0)
(-9.6663 -1.19675 2.30001e-20)
(-9.12054 -1.26493 0)
(-8.54351 -1.31422 2.83338e-20)
(-7.94012 -1.34797 -3.09058e-20)
(-7.31571 -1.36806 -9.90637e-20)
(-6.67669 -1.37514 0)
(-6.03088 -1.36975 -1.123e-19)
(-5.38726 -1.35292 -3.87958e-20)
(-4.75502 -1.32708 0)
(-4.13803 -1.29842 -8.44572e-20)
(-3.53349 -1.27406 -8.67469e-20)
(-2.93681 -1.25723 1.3324e-19)
(-2.33556 -1.25321 0)
(-1.71818 -1.25894 4.60085e-20)
(-1.07718 -1.25713 4.64563e-20)
(-0.415336 -1.22893 1.39538e-19)
(0.243342 -1.16668 0)
(0.865297 -1.07906 0)
(1.4293 -0.981133 0)
(1.93424 -0.900163 4.50711e-20)
(2.39545 -0.855087 0)
(2.83834 -0.852325 0)
(3.29072 -0.882139 -4.33018e-20)
(3.77227 -0.923228 -4.2507e-20)
(4.28633 -0.952647 0)
(4.82066 -0.956013 0)
(5.35524 -0.932139 -7.93579e-20)
(5.87218 -0.889983 0)
(6.36206 -0.841472 7.45607e-20)
(6.82461 -0.795322 7.15586e-20)
(7.26498 -0.754224 0)
(7.68812 -0.71551 0)
(8.09463 -0.674393 -6.33192e-20)
(8.48065 -0.627826 -3.6448e-22)
(8.84091 -0.57596 -3.72135e-22)
(9.1726 -0.519065 0)
(9.47781 -0.454746 -1.05842e-19)
(9.7542 -0.380553 0)
(9.98429 -0.292995 0)
(10.1589 -0.181145 0)
(10.2849 -0.0479268 4.56882e-20)
(10.3323 0.0734911 0)
(10.2652 0.168768 -8.68652e-20)
(10.1268 0.262035 -4.3679e-20)
(9.97321 0.386638 0)
(9.81963 0.589783 -4.43969e-20)
(9.69477 0.854074 0)
(9.58812 1.02299 0)
(9.41197 1.00086 -1.35462e-19)
(9.10937 0.898632 9.16848e-20)
(8.67597 0.839076 0)
(8.07919 0.77843 9.64999e-20)
(7.32405 0.643922 -4.90753e-20)
(6.53036 0.473132 0)
(5.83117 0.350642 0)
(5.2541 0.314108 0)
(4.74746 0.3277 -1.49768e-19)
(4.26321 0.358947 0)
(3.78688 0.42445 -4.78272e-20)
(3.34067 0.512884 0)
(2.94225 0.536093 0)
(2.58497 0.431091 0)
(2.26965 0.251418 0)
(2.03595 0.0773941 0)
(1.93135 -0.0691773 0)
(1.9744 -0.190742 -7.82425e-20)
(2.14045 -0.271979 0)
(2.39306 -0.29658 -3.89373e-20)
(2.67217 -0.277183 1.16318e-19)
(2.9613 -0.221695 0)
(3.2075 -0.16782 0)
(3.43357 -0.10458 -7.52012e-20)
(3.58825 -0.0756343 -7.40394e-20)
(3.74197 -0.0153112 7.27698e-20)
(3.82644 -0.0144807 7.14916e-20)
(0.397977 -1.58522 7.63235e-20)
(0.948169 -3.05783 7.51044e-20)
(1.28055 -3.18094 4.89465e-20)
(1.43207 -2.80553 2.366e-20)
(1.51093 -2.29555 0)
(1.57292 -1.75125 -4.66537e-20)
(1.61884 -1.20863 2.26569e-20)
(1.65402 -0.65951 0)
(1.66319 -0.100841 2.28571e-20)
(1.64465 0.456302 0)
(1.59934 0.998568 -4.44809e-20)
(1.5316 1.44525 0)
(1.41453 1.77551 -2.23722e-20)
(1.25464 1.91481 -4.47196e-20)
(1.02994 1.78662 4.46499e-20)
(0.708131 1.27267 0)
(0.520311 0.524748 4.41053e-20)
(0.148496 0.31868 0)
(-0.390832 0.614038 0)
(-0.830516 0.846538 4.21277e-20)
(-1.16047 0.962931 0)
(-1.55761 1.22988 2.29153e-22)
(-1.98653 1.50099 0)
(-2.42007 1.73509 0)
(-2.88528 1.94637 8.81217e-23)
(-3.3519 2.12361 3.75817e-20)
(-3.82485 2.26868 3.64306e-20)
(-4.2862 2.37418 3.59395e-20)
(-4.73279 2.44361 0)
(-5.15978 2.47346 6.75125e-20)
(-5.56375 2.46889 0)
(-5.94595 2.43125 3.11769e-20)
(-6.30327 2.36646 0)
(-6.63793 2.27843 0)
(-6.94796 2.17212 -2.77732e-20)
(-7.23473 2.05064 0)
(-7.49681 1.9168 2.55774e-20)
(-7.73442 1.77204 1.46744e-21)
(-7.94636 1.61735 -4.866e-20)
(-8.13207 1.45326 4.53879e-20)
(-8.29042 1.2804 0)
(-8.4204 1.09956 0)
(-8.52072 0.911664 1.91536e-20)
(-8.59035 0.71777 0)
(-8.62839 0.518906 2.14017e-20)
(-8.63538 0.31553 -2.12057e-20)
(-8.61395 0.107424 -2.11388e-20)
(-8.55949 -0.103748 0)
(-8.47277 -0.317947 2.13566e-20)
(-8.36056 -0.533293 2.16326e-20)
(-8.22698 -0.748722 -4.17512e-20)
(-8.07574 -0.963696 2.24568e-20)
(-7.90939 -1.17767 2.29753e-20)
(-7.72982 -1.38986 0)
(-7.5378 -1.59835 0)
(-7.33235 -1.79904 -2.473e-20)
(-7.11037 -1.98482 0)
(-6.8669 -2.14491 0)
(-6.59544 -2.26478 5.26498e-20)
(-6.28886 -2.32791 5.34706e-20)
(-5.94123 -2.32007 0)
(-5.55041 -2.23425 0)
(-5.11927 -2.07221 0)
(-4.65627 -1.84437 0)
(-4.17401 -1.57082 5.6422e-20)
(-3.68477 -1.28177 -5.72897e-20)
(-3.20523 -1.01325 -5.78932e-20)
(-2.75928 -0.800205 -1.17833e-19)
(-2.35074 -0.670489 0)
(-1.97825 -0.65358 -5.11835e-22)
(-1.6941 -0.79825 0)
(-1.44849 -1.11343 6.07015e-20)
(-1.28522 -1.49804 -3.64483e-22)
(-1.09769 -1.90592 5.89457e-20)
(-0.654821 -2.22455 -5.71402e-20)
(-0.13077 -2.46283 -1.06685e-22)
(0.432772 -2.64917 0)
(0.971788 -2.54897 -4.64205e-20)
(1.44042 -2.01959 -4.28583e-20)
(1.78476 -1.01129 -7.55421e-20)
(1.89925 0.40993 0)
(1.81421 1.90847 3.32331e-20)
(1.39942 3.17398 0)
(0.533571 3.90686 -8.42141e-20)
(-0.417546 4.06247 4.86754e-20)
(-2.71155 4.83771 -5.13603e-20)
(-5.76223 6.32356 5.10539e-20)
(-7.22355 6.51329 8.69528e-20)
(-7.44686 5.60591 -4.47918e-20)
(-7.96634 4.74996 4.06684e-20)
(-8.35365 3.97411 0)
(-8.86387 3.28126 -5.45987e-20)
(-9.2986 2.66738 0)
(-9.74943 2.13863 -3.81044e-20)
(-10.1123 1.64744 3.09528e-20)
(-10.4276 1.20394 2.50064e-20)
(-10.6334 0.775935 -2.05559e-20)
(-10.7507 0.376113 -1.78028e-20)
(-10.7583 -0.00258723 0)
(-10.6734 -0.349538 -6.90338e-21)
(-10.4891 -0.663771 0)
(-10.2257 -0.940445 0)
(-9.8872 -1.1785 -2.6904e-20)
(-9.48976 -1.37706 0)
(-9.04357 -1.53718 0)
(-8.56137 -1.66215 -4.30094e-20)
(-8.05059 -1.75676 0)