/*--------------------------------*- C++ -*----------------------------------*\
  =========                 |
  \\      /  F ield         | OpenFOAM: The Open Source CFD Toolbox
   \\    /   O peration     | Website:  https://openfoam.org
    \\  /    A nd           | Version:  9
     \\/     M anipulation  |
\*---------------------------------------------------------------------------*/
FoamFile
{
    format      ascii;
    class       volVectorField;
    location    "0.06";
    object      U_0;
}
// * * * * * * * * * * * * * * * * * * * * * * * * * * * * * * * * * * * * * //

dimensions      [0 1 -1 0 0 0 0];

internalField   nonuniform List<vector> 
12225
(
(9.55746 0.019461 0)
(9.35531 0.0347003 0)
(9.203 0.0664437 0)
(8.90611 0.0732934 0)
(8.57913 0.0627362 0)
(8.27918 0.0536994 0)
(7.98409 0.0574684 0)
(7.68517 0.0676397 0)
(7.37972 0.0733202 0)
(7.08244 0.0734305 0)
(6.7702 0.0689193 0)
(6.48194 0.0655675 0)
(6.15438 0.0634625 0)
(5.8689 0.0670862 0)
(5.49961 0.0745818 0)
(5.19538 0.0967282 0)
(4.70869 0.116443 0)
(4.26722 0.202502 0)
(10.2254 0.0224575 0)
(9.98906 0.0373582 0)
(9.99412 0.0356115 0)
(10.0613 0.0624323 0)
(10.1056 0.0808867 0)
(10.0923 0.0873551 0)
(10.0279 0.0903557 0)
(9.97107 0.0918447 0)
(9.94678 0.092557 0)
(9.94735 0.0988293 0)
(9.91713 0.110293 0)
(9.84679 0.125598 0)
(9.70497 0.141996 0)
(9.54417 0.156293 0)
(9.33885 0.172988 0)
(9.15629 0.197172 0)
(8.92978 0.250436 0)
(8.68747 0.326565 0)
(9.93734 0.0782529 0)
(9.86452 0.0686562 0)
(9.88651 0.0575496 0)
(9.93609 0.054278 0)
(10.0043 0.0634036 0)
(10.0622 0.0831124 0)
(10.0758 0.0980609 0)
(10.0544 0.0965874 0)
(10.0223 0.085299 0)
(9.99844 0.084417 0)
(9.98288 0.101667 0)
(9.96925 0.132696 0)
(9.9414 0.164638 0)
(9.89489 0.19197 0)
(9.82587 0.215649 0)
(9.74137 0.24902 0)
(9.65565 0.307792 0)
(9.58077 0.41736 0)
(9.95362 -0.0392544 0)
(9.9719 0.0181371 0)
(9.97288 0.0269109 0)
(9.99536 0.0353845 0)
(10.0229 0.038504 0)
(10.0614 0.0521159 0)
(10.0861 0.0786708 0)
(10.0724 0.101816 0)
(10.0196 0.111567 0)
(9.95018 0.116033 0)
(9.8919 0.127166 0)
(9.8576 0.149527 0)
(9.83842 0.180635 0)
(9.81798 0.215646 0)
(9.78109 0.250293 0)
(9.72823 0.292178 0)
(9.6672 0.3487 0)
(9.62347 0.43317 0)
(10.1401 0.00135138 0)
(10.0536 0.0587123 0)
(10.0024 0.052366 0)
(10.0322 0.0410748 0)
(10.0964 0.0483008 0)
(10.1345 0.0755783 0)
(10.1161 0.109267 0)
(10.0556 0.129667 0)
(9.98015 0.131201 0)
(9.90658 0.125791 0)
(9.84326 0.127903 0)
(9.79493 0.143687 0)
(9.75865 0.171923 0)
(9.72961 0.208674 0)
(9.69958 0.250793 0)
(9.66936 0.302379 0)
(9.63833 0.365515 0)
(9.6209 0.44546 0)
(9.9097 0.000380574 0)
(9.88273 0.042655 0)
(9.87397 0.0390902 0)
(9.87977 0.0137141 0)
(9.91728 0.00247916 0)
(9.97159 0.0311251 0)
(10.0098 0.0870338 0)
(10.0211 0.137346 0)
(10.0102 0.163876 0)
(9.98061 0.173154 0)
(9.93293 0.181145 0)
(9.86949 0.197483 0)
(9.79356 0.223026 0)
(9.71171 0.255596 0)
(9.63116 0.290677 0)
(9.5623 0.33099 0)
(9.51243 0.376343 0)
(9.49279 0.43456 0)
(10.0251 0.0219653 0)
(10.01 0.0504706 0)
(10.0323 0.0606938 0)
(10.0141 0.0289425 0)
(9.95419 0.0188646 0)
(9.88527 0.0548897 0)
(9.83209 0.10724 0)
(9.81376 0.141745 0)
(9.82807 0.151462 0)
(9.85256 0.152366 0)
(9.86604 0.163255 0)
(9.86118 0.19135 0)
(9.84104 0.232094 0)
(9.81294 0.277599 0)
(9.7845 0.320957 0)
(9.75793 0.362723 0)
(9.73916 0.404638 0)
(9.72253 0.452171 0)
(10.1055 0.0191075 0)
(9.9868 0.0237366 0)
(10.0362 0.0370033 0)
(10.0462 0.046499 0)
(10.0242 0.0495407 0)
(10.0202 0.0679894 0)
(10.0286 0.0978174 0)
(10.0281 0.124013 0)
(10.0033 0.142465 0)
(9.95009 0.161011 0)
(9.88376 0.188128 0)
(9.82671 0.223735 0)
(9.7931 0.261372 0)
(9.78244 0.295724 0)
(9.78697 0.325718 0)
(9.79618 0.355927 0)
(9.8053 0.390653 0)
(9.81058 0.435078 0)
(10.092 0.0116713 0)
(10.2062 0.0474941 0)
(10.2084 0.0599298 0)
(10.1636 0.0315092 0)
(10.0995 0.0237126 0)
(10.0311 0.0606244 0)
(9.96497 0.118553 0)
(9.90876 0.168523 0)
(9.86128 0.197992 0)
(9.81714 0.20992 0)
(9.77819 0.215097 0)
(9.7547 0.223989 0)
(9.75273 0.241903 0)
(9.77204 0.269805 0)
(9.8023 0.305698 0)
(9.8344 0.348287 0)
(9.85927 0.395628 0)
(9.87281 0.445202 0)
(10.1332 -0.0679335 0)
(10.0259 -0.013716 0)
(10.0349 0.0565883 0)
(9.94611 0.0833297 0)
(9.83078 0.104285 0)
(9.7934 0.123829 0)
(9.84592 0.137226 0)
(9.94677 0.152193 0)
(10.0376 0.174182 0)
(10.0729 0.201405 0)
(10.0443 0.228766 0)
(9.97813 0.251612 0)
(9.90854 0.267794 0)
(9.85987 0.280513 0)
(9.83874 0.297319 0)
(9.84092 0.324696 0)
(9.8558 0.367492 0)
(9.87183 0.42328 0)
(10.1614 0.120111 0)
(10.1028 0.078362 0)
(10.0319 0.110571 0)
(9.96959 0.119206 0)
(9.96246 0.0887649 0)
(9.97403 0.0571627 0)
(9.96507 0.0528853 0)
(9.94374 0.0854773 0)
(9.92886 0.14474 0)
(9.92397 0.20968 0)
(9.9252 0.260952 0)
(9.92836 0.289672 0)
(9.93154 0.299136 0)
(9.92936 0.300876 0)
(9.92168 0.307773 0)
(9.90836 0.328994 0)
(9.89471 0.368308 0)
(9.88507 0.424865 0)
(9.93216 -0.0121739 0)
(9.91024 0.0856309 0)
(9.92347 0.0978163 0)
(9.95201 0.0949033 0)
(9.98799 0.103821 0)
(9.99206 0.121912 0)
(9.94042 0.138094 0)
(9.86024 0.152578 0)
(9.78927 0.173222 0)
(9.74473 0.201938 0)
(9.72636 0.233233 0)
(9.72736 0.260887 0)
(9.74026 0.28308 0)
(9.75776 0.302307 0)
(9.77954 0.324023 0)
(9.8034 0.353539 0)
(9.83366 0.392226 0)
(9.8669 0.442515 0)
(9.90568 -0.0445961 0)
(9.84178 0.0770691 0)
(9.83356 0.11499 0)
(9.79457 0.0905643 0)
(9.82899 0.0667662 0)
(9.91696 0.0812016 0)
(9.97115 0.12782 0)
(9.95488 0.182661 0)
(9.88708 0.227582 0)
(9.80904 0.256213 0)
(9.75593 0.269939 0)
(9.74228 0.2716 0)
(9.76228 0.265938 0)
(9.80339 0.258851 0)
(9.85064 0.258833 0)
(9.89889 0.272667 0)
(9.94101 0.302727 0)
(9.98236 0.352612 0)
(9.93498 0.0884483 0)
(9.90431 0.136764 0)
(9.98119 0.131347 0)
(9.96078 0.0904442 0)
(9.90469 0.0452785 0)
(9.86075 0.0473448 0)
(9.84925 0.101325 0)
(9.87615 0.17639 0)
(9.92649 0.237344 0)
(9.97666 0.26695 0)
(10.0091 0.268795 0)
(10.0174 0.257695 0)
(10.0014 0.248255 0)
(9.96939 0.251212 0)
(9.9273 0.269695 0)
(9.88877 0.303384 0)
(9.85474 0.347817 0)
(9.83698 0.39892 0)
(9.93723 -0.018595 0)
(9.95089 -0.0168456 0)
(10.0033 0.0746854 0)
(10.0518 0.12335 0)
(10.0811 0.131774 0)
(10.0617 0.132115 0)
(10.0069 0.136021 0)
(9.96037 0.148242 0)
(9.93815 0.170456 0)
(9.9318 0.203344 0)
(9.93093 0.243914 0)
(9.93169 0.283369 0)
(9.93536 0.311989 0)
(9.9448 0.326005 0)
(9.96246 0.330363 0)
(9.98458 0.334431 0)
(10.0104 0.34617 0)
(10.0295 0.373065 0)
(10.131 -0.0876142 0)
(9.97069 0.0901729 0)
(9.89155 0.0992093 0)
(9.87395 0.0332448 0)
(9.90746 0.0302897 0)
(9.93706 0.0863476 0)
(9.95187 0.161452 0)
(9.96185 0.222385 0)
(9.96708 0.255612 0)
(9.97001 0.264503 0)
(9.97931 0.25678 0)
(9.99961 0.239321 0)
(10.0279 0.219429 0)
(10.0565 0.20713 0)
(10.0765 0.212212 0)
(10.0842 0.238743 0)
(10.0771 0.287042 0)
(10.0624 0.350177 0)
(9.97788 0.0534831 0)
(9.96059 0.147128 0)
(9.94934 0.139091 0)
(9.93398 0.115753 0)
(9.92932 0.108535 0)
(9.92121 0.112185 0)
(9.9208 0.125012 0)
(9.93019 0.146781 0)
(9.9416 0.173514 0)
(9.95151 0.199881 0)
(9.95787 0.221707 0)
(9.95627 0.238842 0)
(9.94588 0.254697 0)
(9.93046 0.275963 0)
(9.91888 0.306499 0)
(9.91728 0.34717 0)
(9.93034 0.393483 0)
(9.95969 0.441799 0)
(9.67848 -0.00717061 0)
(9.65215 0.0616101 0)
(9.74489 0.0585103 0)
(9.81749 0.0262598 0)
(9.82514 0.0144774 0)
(9.81404 0.0584545 0)
(9.82187 0.12735 0)
(9.84827 0.180089 0)
(9.88368 0.207003 0)
(9.92593 0.220898 0)
(9.9689 0.23401 0)
(10.0023 0.246582 0)
(10.0211 0.251963 0)
(10.0299 0.24424 0)
(10.0364 0.22391 0)
(10.0475 0.201221 0)
(10.0664 0.182808 0)
(10.0944 0.184515 0)
(10.034 -0.243814 0)
(9.92667 -0.115571 0)
(9.94213 -0.0238271 0)
(9.99348 0.0740242 0)
(10.0111 0.13911 0)
(10.0014 0.148751 0)
(9.98005 0.118368 0)
(9.96794 0.0758362 0)
(9.98132 0.0505184 0)
(10.0236 0.0584342 0)
(10.0851 0.0959433 0)
(10.1504 0.148876 0)
(10.2074 0.20209 0)
(10.2503 0.245829 0)
(10.2761 0.276893 0)
(10.2854 0.297427 0)
(10.2809 0.311939 0)
(10.2663 0.322778 0)
(9.76089 -0.0883612 0)
(9.75172 -0.0074358 0)
(9.75609 -0.0264185 0)
(9.77313 -0.059973 0)
(9.83242 -0.00744362 0)
(9.92265 0.0917346 0)
(10.0075 0.155633 0)
(10.0668 0.143545 0)
(10.0933 0.0768479 0)
(10.0865 0.00805354 0)
(10.0604 -0.0229919 0)
(10.0376 -0.00809897 0)
(10.0339 0.0386268 0)
(10.0533 0.0970789 0)
(10.0925 0.153557 0)
(10.143 0.202788 0)
(10.1967 0.244339 0)
(10.2458 0.282128 0)
(10.3297 0.0243258 0)
(10.3063 -0.0432112 0)
(10.2982 -0.074079 0)
(10.2381 -0.0695376 0)
(10.1501 -0.052835 0)
(10.1027 -0.0405571 0)
(10.1044 -0.0310792 0)
(10.1158 -0.00459779 0)
(10.1043 0.0480739 0)
(10.0641 0.110867 0)
(10.0108 0.156461 0)
(9.96779 0.1681 0)
(9.95043 0.14894 0)
(9.96198 0.116179 0)
(9.99386 0.0887701 0)
(10.0361 0.0792824 0)
(10.0785 0.0913122 0)
(10.117 0.124269 0)
(9.85515 0.00272646 0)
(9.81026 0.00799515 0)
(9.7228 0.057088 0)
(9.68552 0.0765946 0)
(9.73024 0.0916808 0)
(9.82614 0.0994076 0)
(9.91013 0.100813 0)
(9.96018 0.105299 0)
(9.99626 0.115103 0)
(10.0418 0.120828 0)
(10.1038 0.111102 0)
(10.1744 0.0852381 0)
(10.2391 0.0540501 0)
(10.2846 0.0331733 0)
(10.304 0.0343539 0)
(10.2999 0.0588017 0)
(10.2801 0.102396 0)
(10.2541 0.154163 0)
(9.83659 -0.0963661 0)
(9.94759 0.0578709 0)
(9.97275 0.0656952 0)
(9.93039 -0.0385148 0)
(9.91643 -0.13909 0)
(9.94979 -0.168558 0)
(10.0084 -0.130934 0)
(10.0774 -0.0660907 0)
(10.1574 -0.012776 0)
(10.2415 0.0117508 0)
(10.3115 0.0118826 0)
(10.3527 0.00478027 0)
(10.3634 0.00622349 0)
(10.352 0.0237907 0)
(10.3302 0.057292 0)
(10.309 0.100035 0)
(10.2962 0.144891 0)
(10.2964 0.183467 0)
(9.92076 -0.21629 0)
(10.0139 -0.0972958 0)
(10.17 0.0375962 0)
(10.2667 0.0767003 0)
(10.2677 0.0448066 0)
(10.225 -0.00315041 0)
(10.1933 -0.0408886 0)
(10.1867 -0.0598878 0)
(10.1921 -0.0602409 0)
(10.1918 -0.044086 0)
(10.1802 -0.015494 0)
(10.1625 0.016753 0)
(10.1466 0.046517 0)
(10.1384 0.0717923 0)
(10.1401 0.094133 0)
(10.1518 0.115713 0)
(10.1715 0.137921 0)
(10.1988 0.15917 0)
(10.0779 -0.00338187 0)
(10.1612 -0.0974994 0)
(10.2205 -0.0668604 0)
(10.2185 -0.0725096 0)
(10.1694 -0.093234 0)
(10.0997 -0.10175 0)
(10.0416 -0.0915243 0)
(10.0075 -0.0605819 0)
(9.99752 -0.0176319 0)
(10.0055 0.0189314 0)
(10.0183 0.0367835 0)
(10.028 0.0382244 0)
(10.0359 0.0332961 0)
(10.0469 0.0325875 0)
(10.0652 0.0411247 0)
(10.0928 0.0579376 0)
(10.1299 0.0792339 0)
(10.1742 0.0984371 0)
(10.014 -0.109134 0)
(10.0185 -0.172759 0)
(10.0687 -0.0222353 0)
(10.116 0.0870117 0)
(10.1193 0.100014 0)
(10.0929 0.0673221 0)
(10.0736 0.0147107 0)
(10.0751 -0.0342114 0)
(10.0871 -0.0587163 0)
(10.0956 -0.0538446 0)
(10.0952 -0.0282853 0)
(10.0882 0.00406 0)
(10.0816 0.0311552 0)
(10.0844 0.0474453 0)
(10.1062 0.0547938 0)
(10.1487 0.0583404 0)
(10.2106 0.0632303 0)
(10.2841 0.070723 0)
(9.93754 -0.0411698 0)
(9.81341 -0.123748 0)
(9.80616 -0.125891 0)
(9.87885 -0.0725385 0)
(9.9299 -0.0504058 0)
(9.95091 -0.0604223 0)
(9.98141 -0.0732023 0)
(10.0287 -0.0624359 0)
(10.0666 -0.0288664 0)
(10.0757 0.00946532 0)
(10.0579 0.0359264 0)
(10.0299 0.0435312 0)
(10.0105 0.032965 0)
(10.0093 0.0104528 0)
(10.0297 -0.0137553 0)
(10.071 -0.0325258 0)
(10.1291 -0.0427895 0)
(10.1997 -0.0413288 0)
(10.0401 -0.0748016 0)
(10.0244 -0.0749687 0)
(9.88937 -0.0587773 0)
(9.80718 0.0168174 0)
(9.84807 0.0578857 0)
(9.93276 0.0274009 0)
(9.99795 -0.0392827 0)
(10.0405 -0.0857955 0)
(10.0808 -0.0836113 0)
(10.1336 -0.044407 0)
(10.1991 0.00246661 0)
(10.2666 0.0361709 0)
(10.3221 0.0465143 0)
(10.3582 0.0347696 0)
(10.3744 0.00943883 0)
(10.3762 -0.0176114 0)
(10.3729 -0.0387788 0)
(10.3744 -0.0500169 0)
(10.1705 -0.114026 0)
(10.1533 -0.0678514 0)
(10.1373 -0.0426795 0)
(10.1835 -0.0500984 0)
(10.2855 -0.0876136 0)
(10.3308 -0.113591 0)
(10.2708 -0.111099 0)
(10.1566 -0.091912 0)
(10.0654 -0.069309 0)
(10.0435 -0.0488887 0)
(10.0938 -0.0318696 0)
(10.1888 -0.0203612 0)
(10.2908 -0.0154378 0)
(10.3688 -0.0175082 0)
(10.4073 -0.0261117 0)
(10.41 -0.0368868 0)
(10.3867 -0.0466504 0)
(10.3545 -0.0523276 0)
(9.95943 -0.0328551 0)
(9.7281 -0.0533407 0)
(9.5404 -0.06177 0)
(9.38505 -0.0364259 0)
(9.23951 -0.00242839 0)
(9.09424 0.0157559 0)
(8.956 0.00852144 0)
(8.82095 -0.0171926 0)
(8.67652 -0.0458879 0)
(8.52586 -0.0643625 0)
(8.38646 -0.0675931 0)
(8.27355 -0.0581748 0)
(8.19049 -0.0418258 0)
(8.13298 -0.0242803 0)
(8.08938 -0.0101762 0)
(8.05029 -0.0036187 0)
(8.00424 -0.00619639 0)
(7.94908 -0.0149324 0)
(-0.159291 0.309215 -7.34467e-20)
(-0.302401 0.128249 7.29745e-20)
(-0.0443726 -0.295383 0)
(0.363227 -0.449468 0)
(0.839546 -0.473058 0)
(1.28679 -0.407842 -7.05872e-20)
(1.65533 -0.287091 0)
(1.91104 -0.125445 0)
(2.02909 0.0222229 0)
(2.02169 0.213432 0)
(1.82121 0.586534 6.8143e-20)
(1.35446 0.700565 0)
(0.936635 0.196664 0)
(0.693336 -0.239587 0)
(0.583166 -0.214755 0)
(0.575074 0.0737397 6.59423e-20)
(0.523324 0.0874271 0)
(0.633308 -0.196652 0)
(0.846115 -0.387373 0)
(1.16513 -0.460682 0)
(1.45461 -0.356137 0)
(1.56646 -0.390566 0)
(1.48395 -0.545059 0)
(1.45896 -0.316384 6.20707e-20)
(1.28408 0.305578 -6.16051e-20)
(0.864565 0.452223 6.12015e-20)
(0.587334 0.25474 6.08569e-20)
(0.301355 0.174503 0)
(0.0383153 0.20531 0)
(-0.30727 0.277133 -5.97352e-20)
(-0.680802 0.317731 -5.92909e-20)
(-1.08808 0.342038 0)
(-1.51475 0.36316 0)
(-1.95679 0.389933 -5.80088e-20)
(-2.41219 0.412958 0)
(-2.87103 0.429994 0)
(-3.32937 0.437141 5.68139e-20)
(-3.77788 0.435858 0)
(-4.21192 0.421658 5.60334e-20)
(-4.62211 0.392607 1.11277e-19)
(-5.00111 0.346093 0)
(-5.33994 0.284144 0)
(-5.63224 0.213148 0)
(-5.8741 0.14143 0)
(-6.0642 0.0771503 0)
(-6.20295 0.0244143 1.06001e-19)
(-6.29084 -0.0162728 1.04982e-19)
(-6.32577 -0.0472486 1.03916e-19)
(-6.30277 -0.073775 0)
(-6.22636 -0.101807 -1.01625e-19)
(-6.08996 -0.135002 0)
(-5.89458 -0.173942 9.91924e-20)
(-5.6395 -0.215241 9.79429e-20)
(-5.32692 -0.25383 0)
(-4.96039 -0.28594 0)
(-4.54587 -0.309441 0)
(-4.09148 -0.3222 9.29689e-20)
(-3.60838 -0.320367 0)
(-3.11262 -0.299092 0)
(-2.62586 -0.256022 0)
(-2.17277 -0.194567 0)
(-1.77852 -0.120939 0)
(-1.46477 -0.0401453 0)
(-1.24415 0.0395913 0)
(-1.13558 0.101246 0)
(-1.1355 0.104916 -8.33428e-20)
(-1.2015 0.0268021 0)
(-1.24143 -0.0723981 0)
(-1.24471 -0.137158 8.00696e-20)
(-1.26575 -0.210242 7.90784e-20)
(-1.13548 -0.297391 0)
(-0.846131 -0.348145 -7.71882e-20)
(-0.413633 -0.44883 7.63592e-20)
(0.288039 -0.57777 0)
(1.10839 -0.634886 -7.48058e-20)
(1.95319 -0.618909 0)
(2.79451 -0.583423 0)
(3.60966 -0.493813 7.34605e-20)
(4.28806 -0.315514 0)
(4.70056 -0.0418192 -7.28384e-20)
(4.66895 0.301333 0)
(4.13538 0.564846 7.11191e-20)
(3.2461 0.799226 6.97855e-20)
(1.92016 0.938947 6.83509e-20)
(0.701833 0.47456 1.3398e-19)
(-0.812591 0.306742 -1.32108e-19)
(-0.542161 -0.574519 0)
(-0.419108 -1.6862 0)
(-0.960756 0.782793 0)
(-4.60787 1.80873 -1.25314e-19)
(-6.77046 1.14473 -1.25746e-19)
(-8.54153 1.0014 1.26762e-19)
(-9.98787 0.701426 0)
(-11.0166 0.543984 -1.28927e-19)
(-11.8732 0.386514 -1.29602e-19)
(-12.4518 0.275558 -1.2988e-19)
(-12.888 0.177501 0)
(-13.1298 0.0968125 0)
(-13.2428 0.0278561 0)
(-13.2087 -0.0299499 -1.2668e-19)
(-13.0786 -0.0777291 0)
(-12.8425 -0.119415 0)
(-12.5249 -0.154185 1.20474e-19)
(-12.13 -0.18351 0)
(-11.6744 -0.20665 0)
(-11.1666 -0.22484 1.12652e-19)
(-10.6174 -0.238321 0)
(-10.0346 -0.248113 0)
(-9.42562 -0.254702 -1.0462e-19)
(-8.79733 -0.258643 -1.02052e-19)
(-8.15649 -0.260018 0)
(-7.51009 -0.258995 9.72017e-20)
(-6.86447 -0.255729 0)
(-6.22416 -0.250727 -9.28198e-20)
(-5.59033 -0.24534 0)
(-4.96211 -0.240701 -8.89214e-20)
(-4.33708 -0.23739 -8.71347e-20)
(-3.71076 -0.235996 0)
(-3.08022 -0.235481 0)
(-2.44805 -0.233023 0)
(-1.82065 -0.226564 0)
(-1.21044 -0.214596 0)
(-0.633162 -0.197442 0)
(-0.0979032 -0.18322 0)
(0.39911 -0.173431 -7.62647e-20)
(0.871368 -0.166835 7.5224e-20)
(1.33859 -0.167202 0)
(1.8166 -0.172451 0)
(2.31694 -0.178237 0)
(2.83978 -0.181074 0)
(3.37544 -0.179481 1.40992e-19)
(3.90966 -0.173714 0)
(4.42984 -0.1653 -1.37932e-19)
(4.92882 -0.156057 1.36584e-19)
(5.40501 -0.1472 0)
(5.86001 -0.138978 0)
(6.29544 -0.130905 0)
(6.71076 -0.122316 -1.31879e-19)
(7.10309 -0.112725 -1.30781e-19)
(7.46839 -0.101718 0)
(7.80207 -0.0882254 -1.28546e-19)
(8.09785 -0.0711145 -1.27363e-19)
(8.34708 -0.0543377 1.26104e-19)
(8.54561 -0.0425416 0)
(8.68641 -0.0221451 0)
(8.74285 0.0211823 1.21645e-19)
(8.69481 0.0619359 0)
(8.5606 0.0595506 0)
(8.38368 0.0308402 0)
(8.17404 0.0966297 0)
(7.71315 0.337144 -1.10796e-19)
(6.71036 0.557463 -1.08263e-19)
(5.34544 0.514993 0)
(4.09343 0.302583 -1.04115e-19)
(3.17664 0.128299 0)
(2.58426 0.0229046 0)
(2.24276 -0.0447634 -9.67011e-20)
(2.0751 -0.0855069 0)
(2.02647 -0.0966981 -9.15852e-20)
(2.04163 -0.0742029 0)
(2.05024 -0.0312636 0)
(2.00531 -0.00149888 -8.52135e-20)
(1.90542 0.0181335 0)
(1.72297 0.0761272 -8.20302e-20)
(1.38049 0.157175 0)
(0.898701 0.173179 0)
(0.441826 0.116261 0)
(0.148528 0.0379562 7.70452e-20)
(0.0335716 -0.0194353 0)
(0.0614919 -0.0481998 -7.39189e-20)
(0.188058 -0.0535358 0)
(0.381519 -0.0487868 0)
(0.592557 -0.0350654 0)
(0.785269 -0.0136792 0)
(0.922447 0.0104403 0)
(0.984128 0.0265065 0)
(0.997299 0.0362094 0)
(0.903938 0.0215908 1.1877e-19)
(0.930334 0.0389969 0)
(0.582572 -0.0300408 0)
(-0.135259 0.572988 2.20434e-19)
(0.227237 -0.307679 -2.18819e-19)
(0.725793 -1.12897 0)
(1.2145 -1.47495 1.43284e-19)
(1.62843 -1.47294 0)
(1.96382 -1.25985 7.03588e-20)
(2.21672 -0.940563 -1.40245e-19)
(2.39316 -0.554069 -1.39345e-19)
(2.48181 -0.143323 0)
(2.50358 0.222682 -1.37407e-19)
(2.45716 0.630827 -6.79711e-20)
(2.32294 0.978174 0)
(2.17271 1.0753 0)
(1.76639 0.978634 0)
(1.23722 0.484857 0)
(0.940935 -0.0131666 -6.58454e-20)
(0.916386 -0.190446 0)
(0.997166 -0.39221 1.29732e-19)
(1.09318 -0.662793 0)
(1.02079 -0.843301 0)
(0.79236 -0.325255 -1.27164e-19)
(0.624424 0.426465 0)
(0.238617 0.644829 1.25525e-19)
(-0.108224 0.645651 -6.23372e-20)
(-0.325259 0.698617 6.18221e-20)
(-0.529286 0.668985 -6.13309e-20)
(-0.815296 0.726392 -6.0856e-20)
(-1.21921 0.784532 0)
(-1.62298 0.86795 0)
(-2.06309 0.947682 5.94294e-20)
(-2.49906 1.01723 -5.91386e-20)
(-2.94866 1.06432 0)
(-3.38504 1.08977 0)
(-3.80459 1.09474 5.76977e-20)
(-4.19639 1.08139 0)
(-4.55884 1.05414 0)
(-4.88994 1.01452 -5.65596e-20)
(-5.18781 0.965236 0)
(-5.45321 0.906506 5.61673e-20)
(-5.68571 0.839673 -1.10936e-19)
(-5.88821 0.765608 0)
(-6.06268 0.685775 0)
(-6.21155 0.600972 -2.1783e-19)
(-6.33527 0.51082 -2.16107e-19)
(-6.43234 0.414006 -2.14287e-19)
(-6.49883 0.308552 1.06443e-19)
(-6.52952 0.194011 -1.04925e-19)
(-6.52166 0.0721092 -3.12063e-19)
(-6.4726 -0.0543888 2.05907e-19)
(-6.37335 -0.182235 1.01573e-19)
(-6.2309 -0.307962 0)
(-6.04382 -0.428267 -9.91221e-20)
(-5.81265 -0.541329 9.82341e-20)
(-5.53529 -0.646368 0)
(-5.20991 -0.743434 0)
(-4.83494 -0.83145 0)
(-4.40965 -0.906226 -9.28307e-20)
(-3.93622 -0.959956 0)
(-3.42312 -0.982567 1.81352e-19)
(-2.88475 -0.964386 0)
(-2.33469 -0.899103 1.77117e-19)
(-1.78587 -0.785548 0)
(-1.26078 -0.628483 -1.73153e-19)
(-0.78169 -0.440808 0)
(-0.364719 -0.234873 1.69179e-19)
(-0.0365872 -0.0404317 -8.35906e-20)
(0.185304 0.104409 0)
(0.300639 0.164836 -1.62577e-19)
(0.303783 0.149492 -8.02506e-20)
(0.274688 0.0397221 -7.92181e-20)
(0.329085 -0.225061 0)
(0.407933 -0.548676 -7.68889e-20)
(0.756424 -0.946817 -7.62356e-20)
(1.23046 -1.2748 0)
(1.71507 -1.42108 7.46401e-20)
(2.2349 -1.43796 -1.48407e-19)
(2.77878 -1.43478 0)
(3.37199 -1.30897 -7.34045e-20)
(3.96231 -0.955876 0)
(4.39006 -0.365561 2.19779e-19)
(4.54294 0.35442 0)
(4.34396 1.02778 -2.14621e-19)
(3.6779 1.52257 -6.962e-20)
(2.70865 1.8154 6.924e-20)
(1.36882 2.2189 1.34843e-19)
(-0.0799051 1.24999 -1.31573e-19)
(0.0175228 0.00698093 0)
(-4.10771 2.45125 0)
(-6.19374 3.63511 0)
(-8.16853 3.34448 3.77075e-19)
(-9.18802 2.6223 1.24963e-19)
(-10.1934 2.13807 -1.26199e-19)
(-10.8816 1.61246 0)
(-11.4794 1.253 -1.31256e-19)
(-11.9371 0.921143 1.2948e-19)
(-12.2889 0.66113 1.2984e-19)
(-12.5356 0.424408 0)
(-12.6744 0.220405 0)
(-12.7168 0.036718 0)
(-12.6612 -0.124447 1.26768e-19)
(-12.5019 -0.267654 0)
(-12.2497 -0.392317 -2.4647e-19)
(-11.9141 -0.499013 -3.62213e-19)
(-11.5056 -0.587875 2.36572e-19)
(-11.0366 -0.659311 0)
(-10.5169 -0.714971 1.13108e-19)
(-9.95701 -0.756663 0)
(-9.36415 -0.78698 2.149e-19)
(-8.74575 -0.80778 -1.04958e-19)
(-8.10782 -0.820347 -1.02365e-19)
(-7.45764 -0.825131 0)
(-6.80182 -0.822491 -2.91893e-19)
(-6.14767 -0.812762 1.90154e-19)
(-5.50025 -0.797307 9.28333e-20)
(-4.86076 -0.77993 0)
(-4.22711 -0.764676 8.89378e-20)
(-3.59623 -0.753489 2.61673e-19)
(-2.96184 -0.74869 0)
(-2.31766 -0.748238 1.67937e-19)
(-1.66621 -0.74228 1.64901e-19)
(-1.01347 -0.723072 1.62056e-19)
(-0.375683 -0.685825 0)
(0.223355 -0.638124 0)
(0.769827 -0.587678 0)
(1.27375 -0.547842 -7.62705e-20)
(1.74786 -0.525353 -7.51075e-20)
(2.21251 -0.525194 0)
(2.68805 -0.541837 -1.46391e-19)
(3.18845 -0.563239 -1.44472e-19)
(3.71485 -0.577296 0)
(4.25677 -0.577037 -1.40771e-19)
(4.79803 -0.562264 -2.78597e-19)
(5.32424 -0.537859 1.37722e-19)
(5.82748 -0.51006 1.36611e-19)
(6.30656 -0.483306 0)
(6.76415 -0.458854 0)
(7.20284 -0.435217 0)
(7.6225 -0.409904 1.317e-19)
(8.01993 -0.38125 -1.30826e-19)
(8.39089 -0.348887 -2.59243e-19)
(8.73244 -0.31289 1.28385e-19)
(9.04221 -0.272326 -1.27439e-19)
(9.31719 -0.224579 -1.25954e-19)
(9.54451 -0.165197 0)
(9.69989 -0.0949966 0)
(9.77964 -0.0246075 1.218e-19)
(9.80697 0.0471083 0)
(9.77729 0.128578 0)
(9.64505 0.204903 -2.31575e-19)
(9.42184 0.285456 0)
(9.20706 0.458361 -1.11243e-19)
(8.99569 0.733599 1.07945e-19)
(8.70804 0.934924 0)
(8.29432 0.913929 -1.03989e-19)
(7.70092 0.720607 0)
(6.9575 0.505842 0)
(6.18453 0.343779 9.63045e-20)
(5.47658 0.213183 -1.87305e-19)
(4.88849 0.1086 9.13236e-20)
(4.4326 0.0505299 0)
(4.07012 0.0477814 0)
(3.75873 0.0860803 -8.4971e-20)
(3.44967 0.139792 0)
(3.09811 0.201138 -8.19087e-20)
(2.70852 0.270856 0)
(2.32397 0.301442 0)
(2.01354 0.255293 0)
(1.80007 0.160559 -7.69288e-20)
(1.66734 0.059971 0)
(1.63821 -0.028216 7.38209e-20)
(1.73048 -0.0984836 0)
(1.9162 -0.145622 0)
(2.16413 -0.158776 -1.3625e-19)
(2.42543 -0.144145 1.32411e-19)
(2.68244 -0.103119 0)
(2.89053 -0.0629276 0)
(3.08399 -0.00308096 0)
(3.18444 0.0171468 -3.55689e-19)
(3.32547 0.0778816 0)
(3.24775 0.0409294 2.24583e-19)
(0.148397 0.197138 1.14721e-22)
(0.851219 -1.49195 2.91033e-19)
(1.41148 -2.31058 0)
(1.78545 -2.43144 -2.86167e-19)
(2.03147 -2.1779 0)
(2.1993 -1.74928 0)
(2.30533 -1.25557 -5.90958e-22)
(2.36642 -0.740202 1.39309e-19)
(2.39207 -0.209122 1.3899e-19)
(2.36786 0.292907 1.37398e-19)
(2.29416 0.779102 0)
(2.18582 1.18036 0)
(2.06763 1.42264 -1.34414e-19)
(1.80851 1.5283 -2.66627e-19)
(1.5044 1.25107 2.64657e-19)
(1.0924 0.7445 0)
(0.84883 0.0612937 2.61299e-19)
(0.698968 -0.468763 -1.29866e-19)
(0.487005 -0.416607 0)
(-0.0537997 0.235554 2.56268e-19)
(-0.464853 0.497669 1.27331e-19)
(-0.66216 0.630635 -2.52407e-19)
(-0.923342 0.749037 -1.25273e-19)
(-1.21336 0.938144 0)
(-1.57752 1.15581 2.46518e-19)
(-1.97232 1.31292 2.44579e-19)
(-2.40972 1.45975 0)
(-2.87676 1.57356 2.40799e-19)
(-3.34362 1.67541 0)
(-3.81062 1.74284 2.37267e-19)
(-4.25377 1.7776 1.17479e-19)
(-4.68214 1.77699 0)
(-5.08487 1.74945 0)
(-5.46732 1.69872 0)
(-5.82393 1.6299 0)
(-6.15613 1.54549 0)
(-6.46124 1.44774 0)
(-6.7392 1.33798 2.25604e-19)
(-6.98911 1.21728 -3.35765e-19)
(-7.21059 1.08706 0)
(-7.40343 0.948995 0)
(-7.56701 0.805132 0)
(-7.70024 0.657335 -1.09038e-21)
(-7.80111 0.507247 2.15363e-19)
(-7.86776 0.35574 4.28191e-19)
(-7.89866 0.203229 -4.24395e-19)
(-7.89492 0.0489507 -2.10686e-19)
(-7.86068 -0.109499 2.07571e-19)
(-7.80038 -0.269507 8.91813e-22)
(-7.71329 -0.431262 2.03773e-19)
(-7.59604 -0.594364 0)
(-7.44553 -0.759065 1.98763e-19)
(-7.25858 -0.925288 7.71103e-22)
(-7.03227 -1.09199 0)
(-6.76446 -1.25608 0)
(-6.45337 -1.41167 -1.88417e-19)
(-6.0976 -1.54957 0)
(-5.69706 -1.65801 0)
(-5.25347 -1.72387 1.81647e-19)
(-4.76903 -1.73405 3.57674e-19)
(-4.2461 -1.67834 -1.76272e-19)
(-3.69167 -1.55469 0)
(-3.11995 -1.3693 1.72363e-19)
(-2.54704 -1.13372 0)
(-1.98657 -0.869047 1.68839e-19)
(-1.46028 -0.605682 1.66551e-19)
(-0.977332 -0.367731 -3.29038e-19)
(-0.566027 -0.205228 -1.6224e-19)
(-0.213636 -0.121431 0)
(0.0865695 -0.18227 3.1577e-19)
(0.350401 -0.396681 0)
(0.550684 -0.728537 4.61109e-19)
(0.790457 -1.19366 3.03524e-19)
(0.961729 -1.52087 3.00665e-19)
(1.25573 -1.62798 -2.98514e-19)
(1.64357 -1.71424 4.45441e-19)
(2.08426 -1.88768 0)
(2.58581 -1.87512 0)
(3.07694 -1.47384 -2.97232e-19)
(3.45243 -0.650152 -4.44636e-19)
(3.60286 0.463909 0)
(3.45152 1.6331 1.43696e-19)
(2.88449 2.60043 0)
(1.87957 3.32122 -4.15403e-19)
(0.897617 3.21893 2.36911e-21)
(-0.0317104 2.00331 -1.69487e-21)
(-3.18374 3.42349 2.59684e-19)
(-6.52231 5.06431 0)
(-7.5665 4.99238 -2.56701e-19)
(-8.42878 4.22284 5.13719e-21)
(-8.9383 3.44105 0)
(-9.57965 2.77434 0)
(-10.0898 2.17319 0)
(-10.6344 1.71315 2.6007e-19)
(-11.065 1.29209 0)
(-11.4361 0.939335 0)
(-11.686 0.606946 0)
(-11.835 0.307745 0)
(-11.8674 0.0266654 0)
(-11.8016 -0.229706 2.56223e-19)
(-11.6346 -0.461801 0)
(-11.3796 -0.665782 2.46664e-19)
(-11.0439 -0.841304 2.41855e-19)
(-10.6403 -0.987487 -2.36706e-19)
(-10.1792 -1.10521 0)
(-9.67159 -1.19673 -2.25871e-19)
(-9.12585 -1.26518 0)
(-8.54869 -1.31471 -2.14958e-19)
(-7.94503 -1.3487 2.09637e-19)
(-7.32022 -1.36899 6.14389e-19)
(-6.68068 -1.37623 0)
(-6.0343 -1.37093 5.84977e-19)
(-5.39009 -1.35411 1.90963e-19)
(-4.75726 -1.32823 0)
(-4.13973 -1.29949 3.64455e-19)
(-3.5346 -1.27514 3.56885e-19)
(-2.93718 -1.2584 -5.24302e-19)
(-2.33506 -1.25444 0)
(-1.71658 -1.2601 -1.67928e-19)
(-1.0745 -1.25795 -1.64886e-19)
(-0.411886 -1.22912 -4.86787e-19)
(0.246935 -1.16629 0)
(0.868399 -1.07844 0)
(1.43171 -0.980773 0)
(1.93626 -0.900547 -1.5264e-19)
(2.39769 -0.856476 0)
(2.84151 -0.854589 0)
(3.2954 -0.884773 1.46204e-19)
(3.77864 -0.925545 1.44287e-19)
(4.29404 -0.954098 0)
(4.82902 -0.956439 0)
(5.36352 -0.931794 2.78251e-19)
(5.87991 -0.889331 0)
(6.36916 -0.840931 -2.7268e-19)
(6.8313 -0.795093 -2.70571e-19)
(7.27156 -0.754266 0)
(7.69478 -0.715628 0)
(8.10131 -0.67442 2.6373e-19)
(8.48719 -0.62775 -3.65724e-22)
(8.84724 -0.575855 -3.73512e-22)
(9.17893 -0.518884 0)
(9.48437 -0.454316 5.09301e-19)
(9.76059 -0.379718 0)
(9.98974 -0.291381 0)
(10.1636 -0.178461 0)
(10.2886 -0.0452361 -2.43186e-19)
(10.3329 0.0745812 0)
(10.263 0.168485 4.72427e-19)
(10.1254 0.261924 2.31416e-19)
(9.97493 0.38835 0)
(9.82489 0.593603 2.21641e-19)
(9.70284 0.856188 0)
(9.59613 1.01935 0)
(9.4171 0.994286 6.22513e-19)
(9.11148 0.895116 -4.05075e-19)
(8.67457 0.839665 0)
(8.0726 0.779363 -3.83527e-19)
(7.31361 0.643549 1.86863e-19)
(6.51994 0.472949 0)
(5.82274 0.35218 0)
(5.24667 0.316943 0)
(4.73946 0.330629 5.09267e-19)
(4.25415 0.361523 0)
(3.77711 0.426653 1.63654e-19)
(3.33096 0.513904 0)
(2.93335 0.535137 0)
(2.57765 0.428603 0)
(2.26482 0.248358 0)
(2.03458 0.0742117 0)
(1.93367 -0.0722311 0)
(1.97985 -0.193208 2.88193e-19)
(2.14799 -0.273354 0)
(2.4015 -0.296814 1.36192e-19)
(2.68058 -0.276598 -3.97093e-19)
(2.96912 -0.220751 0)
(3.21435 -0.166898 0)
(3.43945 -0.103836 2.43561e-19)
(3.59317 -0.0750615 2.3704e-19)
(3.74637 -0.014823 -2.30651e-19)
(3.83045 -0.0139274 -2.24492e-19)
(0.397831 -1.58733 -4.41311e-19)
(0.947305 -3.05754 -4.36915e-19)
(1.27928 -3.1786 -2.89479e-19)
(1.43056 -2.80219 -1.44388e-19)
(1.50948 -2.29163 0)
(1.57154 -1.74706 2.84626e-19)
(1.61752 -1.20426 -1.4195e-19)
(1.65282 -0.654714 0)
(1.66195 -0.0954883 -1.39285e-19)
(1.64331 0.462287 0)
(1.59802 1.00454 2.74556e-19)
(1.53024 1.45029 0)
(1.41238 1.77984 1.34579e-19)
(1.25191 1.9172 2.66885e-19)
(1.02504 1.78732 -2.64799e-19)
(0.702767 1.26966 0)
(0.513292 0.524334 -2.61446e-19)
(0.13854 0.323344 0)
(-0.401329 0.620218 0)
(-0.84197 0.853746 -2.55704e-19)
(-1.17189 0.96973 0)
(-1.56908 1.23549 9.04611e-23)
(-1.99826 1.50614 0)
(-2.43195 1.73958 0)
(-2.89724 1.9498 2.1254e-22)
(-3.36383 2.12601 -2.43454e-19)
(-3.83676 2.27012 -2.41988e-19)
(-4.2981 2.37478 -2.39671e-19)
(-4.74476 2.44341 0)
(-5.17182 2.47246 -4.73301e-19)
(-5.57586 2.46709 0)
(-5.95808 2.42857 -2.34198e-19)
(-6.31533 2.36283 0)
(-6.64977 2.27374 0)
(-6.95941 2.16633 2.30281e-19)
(-7.24559 2.04376 0)
(-7.5069 1.90893 -2.27769e-19)
(-7.74355 1.76333 1.53401e-21)
(-7.95433 1.60802 4.48801e-19)
(-8.13871 1.44354 -4.47639e-19)
(-8.29561 1.27051 0)
(-8.42402 1.08971 0)
(-8.52272 0.902086 -2.20832e-19)
(-8.59076 0.708673 0)
(-8.62729 0.510501 -2.14252e-19)
(-8.63274 0.308062 2.12372e-19)
(-8.60978 0.100965 2.1039e-19)
(-8.55383 -0.109221 0)
(-8.4656 -0.322307 -2.05853e-19)
(-8.35201 -0.536562 -2.03451e-19)
(-8.21709 -0.750968 4.04262e-19)
(-8.06452 -0.965042 -1.98436e-19)
(-7.89687 -1.17829 -1.95849e-19)
(-7.71603 -1.38997 0)
(-7.5228 -1.59821 0)
(-7.31621 -1.79897 1.87987e-19)
(-7.09319 -1.98517 0)
(-6.84879 -2.14609 0)
(-6.57652 -2.26717 -3.60957e-19)
(-6.26921 -2.33175 -3.56335e-19)
(-5.92087 -2.32533 0)
(-5.52928 -2.24063 0)
(-5.09731 -2.07917 0)
(-4.63341 -1.85118 0)
(-4.15033 -1.57656 -3.35668e-19)
(-3.66038 -1.2855 3.31446e-19)
(-3.18021 -1.01407 3.27421e-19)
(-2.73391 -0.797617 6.45937e-19)
(-2.32566 -0.664348 0)
(-1.95336 -0.643759 -4.94675e-22)
(-1.67039 -0.785304 0)
(-1.42746 -1.09937 -3.06522e-19)
(-1.26883 -1.48356 -3.59314e-22)
(-1.08921 -1.88992 -3.00539e-19)
(-0.651905 -2.2061 2.98662e-19)
(-0.133523 -2.44472 -1.0943e-22)
(0.423463 -2.63678 0)
(0.956104 -2.54425 2.97923e-19)
(1.4204 -2.02451 2.97878e-19)
(1.76406 -1.02712 5.9937e-19)
(1.88122 0.3844 0)
(1.80033 1.87663 -2.96597e-19)
(1.38976 3.14233 0)
(0.529806 3.88227 5.60697e-19)
(-0.430299 4.0637 -2.70003e-19)
(-2.73211 4.85912 2.62594e-19)
(-5.77181 6.33706 -2.57691e-19)
(-7.23059 6.52232 -5.22083e-19)
(-7.45386 5.61645 2.56414e-19)
(-7.96768 4.75688 -2.57419e-19)
(-8.35457 3.97958 0)
(-8.86335 3.28544 5.28994e-19)
(-9.29785 2.67032 0)
(-9.74831 2.14099 5.32827e-19)
(-10.1113 1.64941 -5.33712e-19)
(-10.4268 1.20589 -5.33455e-19)
(-10.6333 0.777978 5.31805e-19)
(-10.7514 0.378237 5.28551e-19)
(-10.7598 -0.000429727 0)
(-10.6758 -0.347523 2.60099e-19)
(-10.4923 -0.661912 0)
(-10.2297 -0.938838 0)
(-9.89174 -1.1772 4.88686e-19)
(-9.49477 -1.37614 0)
(-9.04893 -1.53666 0)
(-8.56695 -1.66203 4.55134e-19)