/*--------------------------------*- C++ -*----------------------------------*\
  =========                 |
  \\      /  F ield         | OpenFOAM: The Open Source CFD Toolbox
   \\    /   O peration     | Website:  https://openfoam.org
    \\  /    A nd           | Version:  9
     \\/     M anipulation  |
\*---------------------------------------------------------------------------*/
FoamFile
{
    format      ascii;
    class       volVectorField;
    location    "0.06";
    object      UMean;
}
// * * * * * * * * * * * * * * * * * * * * * * * * * * * * * * * * * * * * * //

dimensions      [0 1 -1 0 0 0 0];

internalField   nonuniform List<vector> 
12225
(
(9.84854 0.0466109 0)
(9.55412 0.0621787 0)
(9.25349 0.0601275 0)
(8.94797 0.0586534 0)
(8.64693 0.057917 0)
(8.35589 0.0571183 0)
(8.07473 0.0559946 0)
(7.80387 0.055104 0)
(7.53913 0.0539945 0)
(7.28365 0.053847 0)
(7.02783 0.0531433 0)
(6.78315 0.054838 0)
(6.52319 0.0548836 0)
(6.28306 0.0606941 0)
(5.99136 0.0623498 0)
(5.74733 0.0770146 0)
(5.37156 0.0829986 0)
(5.10716 0.11683 0)
(10.0306 0.0507839 0)
(10.0889 0.0736355 0)
(10.1268 0.0735027 0)
(10.1395 0.0750329 0)
(10.1345 0.078451 0)
(10.1188 0.0816971 0)
(10.0943 0.0844445 0)
(10.0627 0.0871022 0)
(10.0222 0.0899546 0)
(9.97546 0.0932769 0)
(9.91864 0.0973012 0)
(9.85708 0.10229 0)
(9.78207 0.109405 0)
(9.70372 0.118204 0)
(9.60375 0.132999 0)
(9.50067 0.149645 0)
(9.36268 0.181222 0)
(9.21793 0.209951 0)
(10.0118 0.0326899 0)
(10.0432 0.054569 0)
(10.0717 0.0576817 0)
(10.0887 0.0600691 0)
(10.0981 0.0646514 0)
(10.1048 0.0695874 0)
(10.1104 0.0737547 0)
(10.1146 0.0779497 0)
(10.1169 0.082132 0)
(10.1164 0.0875621 0)
(10.1135 0.0932444 0)
(10.107 0.101372 0)
(10.0983 0.110455 0)
(10.0847 0.124397 0)
(10.0706 0.141762 0)
(10.0508 0.167317 0)
(10.0368 0.200865 0)
(10.0185 0.238611 0)
(10.0042 0.0291961 0)
(10.027 0.0569288 0)
(10.0492 0.063478 0)
(10.0627 0.0656778 0)
(10.0692 0.0698546 0)
(10.0728 0.0749191 0)
(10.0756 0.0795183 0)
(10.0776 0.083699 0)
(10.0785 0.0881309 0)
(10.078 0.0933415 0)
(10.0761 0.0998387 0)
(10.0726 0.107918 0)
(10.068 0.118512 0)
(10.0621 0.132286 0)
(10.0569 0.150983 0)
(10.0535 0.175212 0)
(10.0558 0.205106 0)
(10.0669 0.236234 0)
(9.99997 0.0229195 0)
(10.018 0.0480707 0)
(10.0367 0.0559934 0)
(10.0495 0.0588171 0)
(10.0558 0.063111 0)
(10.0588 0.0686649 0)
(10.0606 0.0739502 0)
(10.0618 0.0789076 0)
(10.0621 0.0839977 0)
(10.0611 0.0899798 0)
(10.0588 0.0971891 0)
(10.0553 0.106182 0)
(10.0506 0.117516 0)
(10.0457 0.131919 0)
(10.0411 0.150311 0)
(10.0393 0.172767 0)
(10.0411 0.198241 0)
(10.0495 0.223024 0)
(9.99978 0.017211 0)
(10.0131 0.0457078 0)
(10.0291 0.0555164 0)
(10.0416 0.0595199 0)
(10.0489 0.0642668 0)
(10.0528 0.0702244 0)
(10.0552 0.0760867 0)
(10.0567 0.0815082 0)
(10.0572 0.0870312 0)
(10.0565 0.0933412 0)
(10.0546 0.100909 0)
(10.0517 0.110208 0)
(10.0481 0.121704 0)
(10.0448 0.135967 0)
(10.0423 0.153338 0)
(10.0423 0.173692 0)
(10.045 0.195609 0)
(10.0522 0.217046 0)
(9.98552 0.0155001 0)
(9.99232 0.0403784 0)
(10.0042 0.0513333 0)
(10.0155 0.0564111 0)
(10.023 0.0612749 0)
(10.0275 0.0672091 0)
(10.0307 0.073374 0)
(10.0333 0.0793092 0)
(10.0351 0.0853896 0)
(10.0357 0.0922911 0)
(10.035 0.100478 0)
(10.0334 0.11034 0)
(10.0312 0.122175 0)
(10.0294 0.136364 0)
(10.0283 0.152901 0)
(10.0293 0.171652 0)
(10.0323 0.191358 0)
(10.0389 0.211101 0)
(10.0074 0.0148459 0)
(10.0121 0.0346468 0)
(10.0212 0.0476623 0)
(10.0304 0.0544767 0)
(10.0371 0.059721 0)
(10.0409 0.065663 0)
(10.043 0.0721644 0)
(10.0443 0.0787709 0)
(10.0451 0.0855601 0)
(10.0452 0.093022 0)
(10.0446 0.101596 0)
(10.0436 0.111666 0)
(10.0425 0.123463 0)
(10.0416 0.137258 0)
(10.0415 0.152917 0)
(10.0428 0.170295 0)
(10.0458 0.188431 0)
(10.0508 0.206817 0)
(9.99751 0.0149143 0)
(10.0016 0.0331301 0)
(10.0084 0.0458014 0)
(10.0163 0.0534671 0)
(10.0229 0.0593058 0)
(10.0275 0.0653393 0)
(10.0305 0.0718227 0)
(10.033 0.0785098 0)
(10.0352 0.0854615 0)
(10.0368 0.0930767 0)
(10.038 0.101791 0)
(10.0388 0.111976 0)
(10.0395 0.123764 0)
(10.0406 0.137274 0)
(10.0422 0.152275 0)
(10.0452 0.168637 0)
(10.0492 0.185576 0)
(10.0552 0.202885 0)
(9.98915 0.0111817 0)
(9.99187 0.0284054 0)
(9.99752 0.0410003 0)
(10.0049 0.0496245 0)
(10.012 0.0561888 0)
(10.0176 0.0624101 0)
(10.0216 0.0690092 0)
(10.0244 0.0760724 0)
(10.0262 0.0835529 0)
(10.0275 0.0916496 0)
(10.0284 0.100625 0)
(10.0293 0.110808 0)
(10.0303 0.122319 0)
(10.0322 0.135317 0)
(10.0347 0.149546 0)
(10.0387 0.164954 0)
(10.0435 0.180812 0)
(10.0502 0.197147 0)
(9.98358 0.0149979 0)
(9.98551 0.0288869 0)
(9.98976 0.0398075 0)
(9.99607 0.0481506 0)
(10.0024 0.0549791 0)
(10.0072 0.0614895 0)
(10.0107 0.0684402 0)
(10.0135 0.0759293 0)
(10.0159 0.0838156 0)
(10.0182 0.0921667 0)
(10.0201 0.10119 0)
(10.0219 0.11122 0)
(10.0237 0.12236 0)
(10.0261 0.134787 0)
(10.0291 0.148207 0)
(10.0334 0.16265 0)
(10.0386 0.177409 0)
(10.0456 0.192704 0)
(9.98384 0.0105546 0)
(9.98552 0.0246009 0)
(9.98993 0.0357869 0)
(9.99612 0.0448844 0)
(10.0022 0.0523496 0)
(10.007 0.05909 0)
(10.0109 0.065932 0)
(10.0143 0.0732671 0)
(10.0178 0.0811457 0)
(10.0212 0.0896202 0)
(10.0247 0.0987682 0)
(10.0282 0.108818 0)
(10.0318 0.119771 0)
(10.0356 0.131757 0)
(10.0402 0.144474 0)
(10.0452 0.158016 0)
(10.0514 0.171737 0)
(10.0581 0.185997 0)
(10.0085 0.0140325 0)
(10.0094 0.0237593 0)
(10.013 0.0342904 0)
(10.0189 0.0432625 0)
(10.0252 0.0507523 0)
(10.0304 0.0576674 0)
(10.0345 0.0646354 0)
(10.0381 0.0719613 0)
(10.0415 0.0796945 0)
(10.0452 0.0879608 0)
(10.0493 0.0968664 0)
(10.0535 0.10662 0)
(10.0581 0.11724 0)
(10.0629 0.128814 0)
(10.0683 0.141075 0)
(10.074 0.154058 0)
(10.0808 0.167203 0)
(10.0877 0.180795 0)
(10.013 0.0123104 0)
(10.018 0.0204521 0)
(10.0225 0.0304103 0)
(10.0272 0.039487 0)
(10.0324 0.0473005 0)
(10.0378 0.0545194 0)
(10.043 0.0617455 0)
(10.0477 0.0691854 0)
(10.052 0.0768836 0)
(10.0561 0.0849926 0)
(10.0602 0.0936794 0)
(10.0645 0.103144 0)
(10.0692 0.11335 0)
(10.0744 0.124355 0)
(10.0804 0.135827 0)
(10.0873 0.147882 0)
(10.0949 0.159891 0)
(10.1036 0.17237 0)
(10.0121 0.00626241 0)
(10.0163 0.0191059 0)
(10.0204 0.0286771 0)
(10.0243 0.0366013 0)
(10.0285 0.0437885 0)
(10.033 0.0507128 0)
(10.0378 0.0577095 0)
(10.0428 0.0650176 0)
(10.0478 0.0727182 0)
(10.0531 0.080855 0)
(10.0585 0.0893894 0)
(10.0643 0.0983899 0)
(10.0705 0.107795 0)
(10.0772 0.117743 0)
(10.0844 0.128011 0)
(10.0923 0.138797 0)
(10.1006 0.149546 0)
(10.11 0.160744 0)
(10.0115 0.00606938 0)
(10.0118 0.0178796 0)
(10.0141 0.0258045 0)
(10.0185 0.0329012 0)
(10.0239 0.0401104 0)
(10.0296 0.0472737 0)
(10.0353 0.0541956 0)
(10.0409 0.0609974 0)
(10.0465 0.0679248 0)
(10.0523 0.0752445 0)
(10.0584 0.0830258 0)
(10.0649 0.0913681 0)
(10.0717 0.10014 0)
(10.0789 0.109435 0)
(10.0865 0.118911 0)
(10.0949 0.128759 0)
(10.1035 0.138334 0)
(10.1132 0.148212 0)
(9.99723 0.0065198 0)
(9.99591 0.0135482 0)
(9.99666 0.0203467 0)
(10.0002 0.0270832 0)
(10.0053 0.0335673 0)
(10.0111 0.0398616 0)
(10.017 0.0461556 0)
(10.0231 0.0525885 0)
(10.0294 0.0592127 0)
(10.0361 0.0661038 0)
(10.043 0.0732381 0)
(10.0504 0.0806778 0)
(10.0582 0.0883031 0)
(10.0665 0.0962075 0)
(10.0753 0.104101 0)
(10.0847 0.112196 0)
(10.0944 0.119945 0)
(10.1048 0.127925 0)
(10.0007 0.0123454 0)
(10.0039 0.0142866 0)
(10.008 0.018244 0)
(10.013 0.0233099 0)
(10.0187 0.0287817 0)
(10.0252 0.0342829 0)
(10.0324 0.0396956 0)
(10.0399 0.0451266 0)
(10.0475 0.0507068 0)
(10.0553 0.056539 0)
(10.0633 0.0625646 0)
(10.0715 0.0687937 0)
(10.08 0.0751125 0)
(10.0889 0.0816298 0)
(10.0982 0.0881582 0)
(10.1079 0.0949248 0)
(10.1179 0.101469 0)
(10.1282 0.108282 0)
(9.9952 -0.00392404 0)
(9.99951 0.00243499 0)
(10.0051 0.00727873 0)
(10.0108 0.0112177 0)
(10.0168 0.0149248 0)
(10.0233 0.0187965 0)
(10.0303 0.0229601 0)
(10.0378 0.0274943 0)
(10.0457 0.0323526 0)
(10.0539 0.0374275 0)
(10.0623 0.0425456 0)
(10.0708 0.0476583 0)
(10.0795 0.0526439 0)
(10.0884 0.0575875 0)
(10.0974 0.0623306 0)
(10.1068 0.0670952 0)
(10.1164 0.0715356 0)
(10.1263 0.0761065 0)
(10.0043 0.000705592 0)
(10.0048 0.00285247 0)
(10.0072 0.00461458 0)
(10.0125 0.00696204 0)
(10.0195 0.00986626 0)
(10.027 0.0129038 0)
(10.0346 0.0158914 0)
(10.0422 0.0189867 0)
(10.05 0.0224124 0)
(10.0581 0.0262748 0)
(10.0666 0.0304444 0)
(10.0756 0.0347572 0)
(10.0849 0.0389744 0)
(10.0945 0.0430593 0)
(10.1042 0.0468546 0)
(10.1139 0.0505124 0)
(10.1237 0.0537975 0)
(10.1335 0.0570538 0)
(9.98902 -0.0005502 0)
(9.98992 -0.00335063 0)
(9.99295 -0.00408521 0)
(9.99804 -0.00336079 0)
(10.0047 -0.00185453 0)
(10.0121 0.00012771 0)
(10.0198 0.00248801 0)
(10.0277 0.00509672 0)
(10.036 0.00778402 0)
(10.0447 0.0104481 0)
(10.0539 0.0130422 0)
(10.0636 0.0156484 0)
(10.0736 0.0182999 0)
(10.0838 0.0210883 0)
(10.0941 0.0239001 0)
(10.1044 0.0267847 0)
(10.1147 0.0294688 0)
(10.125 0.0321346 0)
(9.98499 -0.000537194 0)
(9.98767 -0.00420665 0)
(9.99325 -0.00543498 0)
(10.0014 -0.00535841 0)
(10.0107 -0.00470029 0)
(10.0201 -0.00372513 0)
(10.0293 -0.00248201 0)
(10.0384 -0.000976105 0)
(10.0476 0.000729554 0)
(10.057 0.00258909 0)
(10.0664 0.00456204 0)
(10.0759 0.00668092 0)
(10.0853 0.00890155 0)
(10.0947 0.0112308 0)
(10.1042 0.0135021 0)
(10.1137 0.0157301 0)
(10.1234 0.0176738 0)
(10.1332 0.0195069 0)
(9.99299 -0.000858338 0)
(10.0004 -0.0108115 0)
(10.0083 -0.016601 0)
(10.0169 -0.0188027 0)
(10.0259 -0.0187024 0)
(10.0351 -0.0175755 0)
(10.0441 -0.0162277 0)
(10.053 -0.0149079 0)
(10.0619 -0.0135945 0)
(10.0708 -0.0121923 0)
(10.0797 -0.0106661 0)
(10.0885 -0.00901854 0)
(10.0975 -0.00733643 0)
(10.1065 -0.00565676 0)
(10.1158 -0.00410547 0)
(10.1251 -0.0026643 0)
(10.1346 -0.00147556 0)
(10.1441 -0.000391412 0)
(10.0184 -0.0107658 0)
(10.0266 -0.0129714 0)
(10.0361 -0.0167283 0)
(10.0452 -0.0188821 0)
(10.0536 -0.0192104 0)
(10.0616 -0.0187039 0)
(10.0697 -0.0179478 0)
(10.0781 -0.0170361 0)
(10.087 -0.0159226 0)
(10.096 -0.0146374 0)
(10.1053 -0.0133057 0)
(10.1148 -0.0120191 0)
(10.1244 -0.0108388 0)
(10.1342 -0.00974675 0)
(10.144 -0.00878454 0)
(10.1539 -0.00789856 0)
(10.1637 -0.0071911 0)
(10.1734 -0.00654711 0)
(9.99298 -0.0142609 0)
(9.99684 -0.0237391 0)
(10.005 -0.0290205 0)
(10.0151 -0.0309795 0)
(10.0247 -0.0312241 0)
(10.0337 -0.0310934 0)
(10.0427 -0.0309049 0)
(10.0522 -0.0305744 0)
(10.0623 -0.0300971 0)
(10.0726 -0.0295466 0)
(10.0829 -0.0289681 0)
(10.0933 -0.0283483 0)
(10.1037 -0.0276967 0)
(10.1141 -0.0270138 0)
(10.1246 -0.0263692 0)
(10.1349 -0.0257642 0)
(10.1452 -0.0252992 0)
(10.1553 -0.0249017 0)
(10.0231 -0.00859006 0)
(10.0342 -0.021251 0)
(10.0478 -0.025398 0)
(10.0604 -0.0265371 0)
(10.0708 -0.0274199 0)
(10.0798 -0.0285497 0)
(10.0887 -0.0294572 0)
(10.0982 -0.0297627 0)
(10.1079 -0.0295516 0)
(10.1178 -0.0291101 0)
(10.1278 -0.0286545 0)
(10.1378 -0.0282681 0)
(10.1478 -0.0279758 0)
(10.1579 -0.0277372 0)
(10.168 -0.0275517 0)
(10.178 -0.0273791 0)
(10.1879 -0.0272738 0)
(10.1975 -0.0271859 0)
(9.98504 -0.0265395 0)
(9.99911 -0.0393751 0)
(10.0154 -0.0428684 0)
(10.0295 -0.0427449 0)
(10.0405 -0.0428929 0)
(10.0501 -0.0435831 0)
(10.0597 -0.0440517 0)
(10.0696 -0.0440733 0)
(10.0798 -0.0438932 0)
(10.0899 -0.0437476 0)
(10.1 -0.0436957 0)
(10.1102 -0.0436857 0)
(10.1205 -0.0436567 0)
(10.1309 -0.043568 0)
(10.1413 -0.0434289 0)
(10.1516 -0.0432531 0)
(10.1617 -0.043095 0)
(10.1715 -0.0429457 0)
(9.99457 -0.0175703 0)
(10.0116 -0.0294345 0)
(10.0313 -0.0325616 0)
(10.0476 -0.0334601 0)
(10.0601 -0.0353096 0)
(10.0711 -0.037406 0)
(10.0821 -0.0387712 0)
(10.0934 -0.0393805 0)
(10.1047 -0.039639 0)
(10.1159 -0.0398828 0)
(10.1268 -0.0402219 0)
(10.1374 -0.0406685 0)
(10.1478 -0.0411415 0)
(10.158 -0.0416041 0)
(10.1681 -0.0419713 0)
(10.1779 -0.0422807 0)
(10.1879 -0.0425174 0)
(10.1974 -0.0427721 0)
(10.0094 -0.0415541 0)
(10.044 -0.0570632 0)
(10.0744 -0.0551049 0)
(10.0953 -0.0541586 0)
(10.1088 -0.0550842 0)
(10.1182 -0.0558011 0)
(10.1254 -0.0559413 0)
(10.1311 -0.0558888 0)
(10.1355 -0.055864 0)
(10.1385 -0.0559097 0)
(10.1399 -0.0559824 0)
(10.1398 -0.0560962 0)
(10.1383 -0.0561977 0)
(10.1358 -0.0563251 0)
(10.1322 -0.0563929 0)
(10.1282 -0.0564878 0)
(10.1232 -0.0565406 0)
(10.1186 -0.0567171 0)
(9.90598 -0.0297666 0)
(9.74156 -0.0448624 0)
(9.57547 -0.0436988 0)
(9.40746 -0.0428065 0)
(9.24281 -0.0431334 0)
(9.0847 -0.0433485 0)
(8.93395 -0.0431761 0)
(8.79038 -0.0427403 0)
(8.65353 -0.0421261 0)
(8.52321 -0.0414009 0)
(8.39899 -0.0406283 0)
(8.2808 -0.0398941 0)
(8.16789 -0.0392222 0)
(8.06051 -0.0386552 0)
(7.95741 -0.0381461 0)
(7.85977 -0.037727 0)
(7.76509 -0.0373201 0)
(7.67657 -0.037012 0)
(-0.20709 0.429354 -1.25025e-21)
(-0.468393 0.227447 1.26859e-21)
(-0.592709 0.0372946 0)
(-0.592753 -0.129002 0)
(-0.427534 -0.293278 0)
(-0.139778 -0.412705 -1.24476e-21)
(0.237344 -0.475356 0)
(0.658123 -0.48311 0)
(1.07702 -0.451794 0)
(1.4635 -0.395507 0)
(1.79865 -0.329571 1.26517e-21)
(2.08078 -0.272766 0)
(2.31188 -0.216421 0)
(2.48622 -0.143387 0)
(2.60436 -0.061469 0)
(2.66212 0.0188044 1.5795e-21)
(2.65598 0.041654 0)
(2.63194 0.0172352 0)
(2.5894 0.0268748 0)
(2.52787 0.056966 0)
(2.42741 0.0884744 0)
(2.27576 0.112181 0)
(2.06541 0.151178 0)
(1.82036 0.223229 1.46341e-21)
(1.50876 0.30625 -1.42774e-21)
(1.17714 0.286571 1.40477e-21)
(0.856749 0.220369 1.39752e-21)
(0.53313 0.120846 0)
(0.262457 0.0595344 0)
(-0.0207163 0.157528 -1.44141e-21)
(-0.337256 0.224193 -1.47616e-21)
(-0.685827 0.244668 0)
(-1.04374 0.235169 0)
(-1.36983 0.195232 -1.62702e-21)
(-1.63521 0.140312 0)
(-1.83619 0.0819463 0)
(-1.96316 0.0273903 1.69676e-21)
(-2.0305 -0.000161884 0)
(-2.07431 0.00377985 1.73123e-21)
(-2.13644 0.0471022 3.54123e-21)
(-2.25293 0.0990321 0)
(-2.42262 0.112962 0)
(-2.62311 0.117481 0)
(-2.83677 0.0539441 0)
(-2.95438 0.000926368 0)
(-3.04707 0.0247465 3.60636e-21)
(-3.13863 -0.0837451 3.62796e-21)
(-3.27003 -0.101974 3.67901e-21)
(-3.41824 0.117128 0)
(-3.72266 0.222616 -3.67312e-21)
(-3.97181 0.187781 0)
(-4.19922 0.172203 3.74289e-21)
(-4.41431 0.159098 3.80479e-21)
(-4.6133 0.13872 0)
(-4.77831 0.105295 0)
(-4.93106 0.0191347 0)
(-5.0641 0.0466476 4.1507e-21)
(-5.26367 0.108055 0)
(-5.44127 0.0949074 0)
(-5.58525 0.0921018 0)
(-5.70729 0.0739338 0)
(-5.78327 0.0496615 0)
(-5.82519 0.0226758 0)
(-5.83576 0.00231802 0)
(-5.82608 -0.0126738 0)
(-5.80645 -0.0204256 -5.16198e-21)
(-5.78701 -0.0240807 0)
(-5.77388 -0.0238946 0)
(-5.77164 -0.0201013 5.0697e-21)
(-5.7796 -0.0160232 4.97223e-21)
(-5.78903 -0.0156857 0)
(-5.79028 -0.0185631 -4.70283e-21)
(-5.77025 -0.0276408 4.54297e-21)
(-5.72312 -0.0396477 0)
(-5.6596 -0.0468917 -4.20885e-21)
(-5.58214 -0.0513767 0)
(-5.48649 -0.0573601 0)
(-5.37548 -0.0635137 3.74786e-21)
(-5.25837 -0.0660773 0)
(-5.14246 -0.0633501 -3.47454e-21)
(-5.03564 -0.0552591 0)
(-4.94341 -0.0427872 3.19076e-21)
(-4.87353 -0.026251 3.02831e-21)
(-4.83136 -0.0136806 2.84826e-21)
(-4.81454 -0.0112032 5.31109e-21)
(-4.81031 -0.0105824 -4.92383e-21)
(-4.77401 -0.0501248 0)
(-4.76465 -0.0776059 0)
(-4.81378 0.0490934 0)
(-5.01863 0.127975 -3.54139e-21)
(-5.16364 0.0928854 -3.41782e-21)
(-5.24052 0.06397 3.38905e-21)
(-5.27654 0.0344544 0)
(-5.26287 0.00969511 -3.41335e-21)
(-5.2157 -0.0111049 -3.41795e-21)
(-5.13422 -0.0284927 -3.40184e-21)
(-5.02584 -0.0432455 0)
(-4.89087 -0.0562995 0)
(-4.73203 -0.0681164 0)
(-4.54914 -0.0791147 -2.96412e-21)
(-4.34339 -0.0896052 0)
(-4.11519 -0.0992492 0)
(-3.86503 -0.108112 2.0333e-21)
(-3.59434 -0.115982 0)
(-3.30526 -0.122788 0)
(-2.9998 -0.128421 5.42513e-22)
(-2.68003 -0.132849 0)
(-2.34855 -0.136043 0)
(-2.00794 -0.13804 1.25536e-21)
(-1.661 -0.138772 1.85886e-21)
(-1.31064 -0.138225 0)
(-0.959937 -0.136401 -2.988e-21)
(-0.611781 -0.133481 0)
(-0.268463 -0.12975 3.94092e-21)
(0.0685444 -0.125547 0)
(0.398265 -0.121253 4.6774e-21)
(0.720168 -0.116815 4.96351e-21)
(1.03401 -0.112368 0)
(1.33924 -0.107822 0)
(1.63523 -0.103035 0)
(1.92134 -0.0979743 0)
(2.19682 -0.0926336 0)
(2.46072 -0.0874151 0)
(2.71217 -0.0820801 0)
(2.9517 -0.0767213 5.51317e-21)
(3.17879 -0.0711525 -5.4094e-21)
(3.39295 -0.0654254 0)
(3.59351 -0.0595111 0)
(3.77969 -0.0533967 0)
(3.95067 -0.0471412 0)
(4.10578 -0.0408315 -9.23505e-21)
(4.24459 -0.0345474 0)
(4.36688 -0.0283453 8.49958e-21)
(4.4726 -0.0222572 -8.14014e-21)
(4.5618 -0.0162818 0)
(4.63446 -0.0103836 0)
(4.69051 -0.00454542 0)
(4.72998 0.00122884 6.88404e-21)
(4.75295 0.00692328 6.63417e-21)
(4.75948 0.0125142 0)
(4.7498 0.0179821 6.22696e-21)
(4.7241 0.0232673 6.07094e-21)
(4.6828 0.0282996 -5.94616e-21)
(4.62645 0.0330678 0)
(4.55561 0.0375686 0)
(4.47105 0.0416496 -5.74193e-21)
(4.3737 0.0451596 0)
(4.26474 0.0481409 0)
(4.14543 0.0508261 0)
(4.01677 0.0530227 0)
(3.8805 0.0531459 5.76342e-21)
(3.74206 0.0494036 5.78021e-21)
(3.60973 0.0426977 0)
(3.48928 0.0356862 5.80605e-21)
(3.3826 0.0296836 0)
(3.28934 0.0249682 0)
(3.20744 0.02196 5.84925e-21)
(3.13376 0.0207713 0)
(3.06489 0.0210017 5.87429e-21)
(2.99794 0.0218804 0)
(2.93133 0.0226095 0)
(2.86487 0.0234041 5.88526e-21)
(2.79748 0.025239 0)
(2.72744 0.0267274 5.88099e-21)
(2.65721 0.0240269 0)
(2.59732 0.0162841 0)
(2.55581 0.00685414 0)
(2.53408 -0.000206325 -5.90517e-21)
(2.52456 -0.00271289 0)
(2.52149 -0.00186793 5.95632e-21)
(2.5164 0.000747129 0)
(2.5081 0.00353738 0)
(2.49082 0.00696016 0)
(2.46502 0.00897856 0)
(2.43123 0.0129357 0)
(2.3779 0.0128268 0)
(2.33563 0.0217894 0)
(2.2184 0.0181853 -1.21209e-20)
(2.20078 0.0494707 0)
(1.87005 0.0334116 0)
(-0.0059511 0.865469 3.83235e-21)
(0.059894 0.516393 -3.87266e-21)
(0.128862 0.161867 0)
(0.31411 -0.200639 2.68336e-21)
(0.600553 -0.64151 0)
(0.975345 -1.0089 1.24032e-21)
(1.37537 -1.21583 -2.689e-21)
(1.75713 -1.27741 -2.717e-21)
(2.09739 -1.22473 0)
(2.38489 -1.09272 -2.89637e-21)
(2.61123 -0.922342 -1.26224e-21)
(2.7768 -0.743154 0)
(2.88606 -0.571972 0)
(2.94648 -0.418375 0)
(2.97505 -0.276101 0)
(2.98371 -0.120431 -1.57641e-21)
(2.96894 0.0160974 0)
(2.91316 0.106246 3.56397e-21)
(2.82376 0.162714 0)
(2.71055 0.221501 0)
(2.54859 0.362701 -3.43642e-21)
(2.34229 0.52829 0)
(2.09884 0.649386 3.29027e-21)
(1.85044 0.746117 -1.45704e-21)
(1.60471 0.797072 1.42075e-21)
(1.33302 0.80701 -1.39734e-21)
(1.01637 0.855069 -1.38976e-21)
(0.640555 0.886463 0)
(0.215421 0.86944 0)
(-0.244018 0.838609 1.43576e-21)
(-0.655475 0.840155 -1.79872e-21)
(-1.01499 0.850406 0)
(-1.3528 0.817913 0)
(-1.64305 0.721638 1.62436e-21)
(-1.89831 0.572505 0)
(-2.10959 0.394497 0)
(-2.26102 0.207601 -1.69221e-21)
(-2.3709 0.0795498 0)
(-2.47201 0.0734314 2.20266e-21)
(-2.58199 0.181402 -3.53102e-21)
(-2.71353 0.30767 0)
(-2.87144 0.416547 0)
(-3.03925 0.450131 -7.97531e-21)
(-3.26476 0.368441 -7.87727e-21)
(-3.53797 0.284807 -7.85028e-21)
(-3.76871 0.236153 4.25596e-21)
(-4.04987 0.363001 -3.61948e-21)
(-4.37232 0.470385 -1.17202e-20)
(-4.53798 0.489079 8.13378e-21)
(-4.71126 0.478693 3.66309e-21)
(-4.82887 0.428637 0)
(-4.94771 0.400599 -3.73361e-21)
(-5.03245 0.357714 4.59353e-21)
(-5.12393 0.311801 0)
(-5.21184 0.292405 0)
(-5.37046 0.340168 0)
(-5.51118 0.361981 -4.14451e-21)
(-5.63349 0.333225 0)
(-5.72687 0.272812 9.33315e-21)
(-5.79652 0.212778 0)
(-5.84265 0.142526 9.84021e-21)
(-5.86207 0.0741851 0)
(-5.8646 0.0139278 -1.02927e-20)
(-5.85144 -0.0269549 0)
(-5.83163 -0.0468511 1.05855e-20)
(-5.813 -0.0450877 -5.48819e-21)
(-5.8044 -0.0274551 0)
(-5.81089 -0.00201182 -1.05673e-20)
(-5.83373 0.0202455 -5.06952e-21)
(-5.86763 0.0295624 -4.97199e-21)
(-5.9055 0.0200574 0)
(-5.93645 -0.0123225 -4.89842e-21)
(-5.93916 -0.0624341 -4.54222e-21)
(-5.92207 -0.103132 0)
(-5.88271 -0.124561 4.20755e-21)
(-5.81539 -0.152979 -8.22277e-21)
(-5.7326 -0.185256 0)
(-5.6426 -0.202317 -3.74665e-21)
(-5.54965 -0.202533 0)
(-5.4539 -0.19035 1.05525e-20)
(-5.35975 -0.168234 0)
(-5.27563 -0.135549 -9.72507e-21)
(-5.2106 -0.0952576 -3.02754e-21)
(-5.16903 -0.0540496 3.01003e-21)
(-5.16434 -0.0223064 5.61812e-21)
(-5.18728 -0.027004 -5.22034e-21)
(-5.24 -0.000329893 0)
(-5.42107 0.129955 0)
(-5.51652 0.196277 0)
(-5.5678 0.170338 1.13683e-20)
(-5.5463 0.0973501 3.41406e-21)
(-5.48971 0.030821 -3.38425e-21)
(-5.4008 -0.0333023 0)
(-5.28639 -0.0863549 -3.9624e-21)
(-5.15208 -0.131529 3.41418e-21)
(-5.00002 -0.169324 3.39925e-21)
(-4.83311 -0.202183 0)
(-4.65141 -0.231758 0)
(-4.45542 -0.259541 0)
(-4.24435 -0.286526 2.96684e-21)
(-4.01722 -0.313099 0)
(-3.77259 -0.339004 -5.14448e-21)
(-3.50996 -0.36381 -6.41142e-21)
(-3.2291 -0.386738 3.47029e-21)
(-2.93033 -0.40707 0)
(-2.61511 -0.424149 7.86088e-22)
(-2.28576 -0.437648 0)
(-1.94462 -0.447466 -1.08303e-21)
(-1.59433 -0.453658 1.07028e-21)
(-1.23746 -0.456074 1.69194e-21)
(-0.876994 -0.454614 0)
(-0.516094 -0.449331 8.8274e-21)
(-0.157863 -0.440684 -6.85958e-21)
(0.195319 -0.429577 -3.93884e-21)
(0.541974 -0.417021 0)
(0.881442 -0.404017 -4.67506e-21)
(1.21342 -0.39087 -1.47934e-20)
(1.53768 -0.37759 0)
(1.8539 -0.364007 -1.06695e-20)
(2.16136 -0.349706 -1.09371e-20)
(2.45926 -0.334462 -1.11089e-20)
(2.74675 -0.318447 0)
(3.02291 -0.302742 0)
(3.28706 -0.286717 0)
(3.53965 -0.270483 5.44489e-21)
(3.78034 -0.254023 5.40378e-21)
(4.0087 -0.237196 0)
(4.22418 -0.21987 1.02042e-20)
(4.42605 -0.202005 9.88229e-21)
(4.61355 -0.183716 0)
(4.78607 -0.16522 9.22617e-21)
(4.94321 -0.146758 1.76268e-20)
(5.0848 -0.128521 -8.49162e-21)
(5.2109 -0.110624 -8.05083e-21)
(5.32158 -0.0931032 0)
(5.41713 -0.075948 0)
(5.49785 -0.0591441 0)
(5.56397 -0.0427123 -6.8774e-21)
(5.61574 -0.0267001 6.55941e-21)
(5.65348 -0.011162 1.27504e-20)
(5.67749 0.0038379 -6.22056e-21)
(5.68825 0.0182575 6.0014e-21)
(5.68616 0.0320133 5.93964e-21)
(5.67167 0.0449961 0)
(5.64547 0.0570749 0)
(5.60839 0.0681773 -5.67793e-21)
(5.56141 0.0782891 0)
(5.50527 0.0872649 0)
(5.44091 0.0949125 1.13872e-20)
(5.36971 0.101175 0)
(5.29259 0.105445 5.71217e-21)
(5.20987 0.106026 -5.77172e-21)
(5.1226 0.101654 0)
(5.03299 0.0931796 5.78365e-21)
(4.94428 0.082871 0)
(4.86022 0.0726395 0)
(4.78361 0.0634704 -5.84043e-21)
(4.71579 0.0561263 1.17107e-20)
(4.65683 0.0511551 -5.86545e-21)
(4.6058 0.0483625 0)
(4.56146 0.0469014 0)
(4.52266 0.0458654 5.87545e-21)
(4.48865 0.044835 0)
(4.46027 0.0435862 5.87096e-21)
(4.43858 0.0404788 0)
(4.42407 0.0332352 0)
(4.41662 0.0230073 0)
(4.41419 0.0131854 5.89581e-21)
(4.41558 0.00666492 0)
(4.42022 0.00346938 -5.94687e-21)
(4.42612 0.00416145 0)
(4.43016 0.00645716 0)
(4.43222 0.0124571 1.20023e-20)
(4.42573 0.0165758 -1.20192e-20)
(4.41888 0.0268014 0)
(4.3902 0.0291848 0)
(4.37601 0.0486595 0)
(4.29938 0.0468646 3.62502e-20)
(4.29448 0.095652 0)
(4.09962 0.0903703 -2.4257e-20)
(0.113988 0.458567 -3.68199e-23)
(0.325784 0.100728 5.14929e-21)
(0.614347 -0.406066 0)
(1.01671 -0.997674 -5.35843e-21)
(1.45469 -1.53616 0)
(1.84635 -1.89097 0)
(2.14304 -2.01334 -3.60112e-22)
(2.35175 -1.94659 2.71175e-21)
(2.4875 -1.74103 3.3322e-21)
(2.57506 -1.44962 2.89286e-21)
(2.61534 -1.13664 0)
(2.6243 -0.843529 0)
(2.60129 -0.577164 -3.8582e-21)
(2.55147 -0.345498 -7.87244e-21)
(2.4774 -0.15398 7.97463e-21)
(2.38807 0.00812993 0)
(2.29632 0.157271 8.02482e-21)
(2.18006 0.289323 -3.56284e-21)
(2.04651 0.397846 0)
(1.86232 0.566971 7.7961e-21)
(1.65754 0.753475 3.43129e-21)
(1.45537 0.907498 -7.53657e-21)
(1.2515 1.03384 -3.28274e-21)
(1.05448 1.11985 0)
(0.849505 1.18904 7.15654e-21)
(0.597641 1.30136 7.07385e-21)
(0.325634 1.40634 0)
(0.0238063 1.50776 7.01687e-21)
(-0.303376 1.5756 0)
(-0.647766 1.58509 7.15461e-21)
(-0.999739 1.53129 3.25461e-21)
(-1.32015 1.43671 0)
(-1.60836 1.30872 0)
(-1.84875 1.13361 0)
(-2.07001 0.931867 0)
(-2.24975 0.696972 0)
(-2.41814 0.475603 0)
(-2.5719 0.329964 8.5488e-21)
(-2.74299 0.324669 -1.26287e-20)
(-2.94321 0.430702 0)
(-3.13791 0.556645 0)
(-3.3616 0.63786 0)
(-3.53742 0.741031 -7.71562e-22)
(-3.77156 0.77598 7.86348e-21)
(-3.99746 0.74827 1.64247e-20)
(-4.22939 0.738133 -1.64689e-20)
(-4.44973 0.735187 -8.71019e-21)
(-4.62899 0.705667 8.03711e-21)
(-4.72676 0.66301 8.28889e-22)
(-4.81053 0.607759 9.04849e-21)
(-4.85743 0.54188 0)
(-4.90763 0.475773 9.19373e-21)
(-4.94502 0.42487 8.55862e-22)
(-5.02801 0.422407 0)
(-5.11755 0.442956 0)
(-5.2024 0.4573 -9.49416e-21)
(-5.24663 0.432239 0)
(-5.27984 0.388302 0)
(-5.30784 0.332291 1.06069e-20)
(-5.33721 0.266266 2.0332e-20)
(-5.3642 0.187022 -9.84752e-21)
(-5.39018 0.106811 0)
(-5.41157 0.0347215 1.03024e-20)
(-5.42958 -0.016892 0)
(-5.44493 -0.0425612 1.14181e-20)
(-5.46119 -0.0404586 1.06611e-20)
(-5.47952 -0.0164005 -2.21531e-20)
(-5.50252 0.0187688 -1.14157e-20)
(-5.52905 0.0536346 0)
(-5.55952 0.0729761 2.11737e-20)
(-5.59527 0.0648312 0)
(-5.62879 0.0246457 2.94204e-20)
(-5.64774 -0.0386661 1.90501e-20)
(-5.6542 -0.102692 1.82912e-20)
(-5.63315 -0.17227 -1.75512e-20)
(-5.59787 -0.230301 2.5078e-20)
(-5.5546 -0.258743 0)
(-5.49012 -0.273741 0)
(-5.40727 -0.286532 -1.50251e-20)
(-5.31702 -0.284095 -2.15933e-20)
(-5.23215 -0.257301 0)
(-5.16681 -0.205726 6.54246e-21)
(-5.12641 -0.138334 0)
(-5.11412 -0.064959 -1.79975e-20)
(-5.13009 -0.00202408 4.41781e-22)
(-5.19012 0.0597107 -5.09077e-22)
(-5.29428 0.153603 1.00331e-20)
(-5.36582 0.210248 0)
(-5.33774 0.190523 -9.09854e-21)
(-5.2637 0.113584 9.40259e-22)
(-5.15618 0.0184413 0)
(-5.04295 -0.0704928 0)
(-4.9171 -0.15114 0)
(-4.78593 -0.217926 7.37783e-21)
(-4.6447 -0.27475 0)
(-4.49487 -0.322727 0)
(-4.33419 -0.365114 0)
(-4.16209 -0.404133 0)
(-3.97661 -0.442266 0)
(-3.77628 -0.480877 6.79409e-21)
(-3.55902 -0.520502 0)
(-3.32341 -0.560632 5.15756e-21)
(-3.06851 -0.600181 4.38598e-21)
(-2.79452 -0.637638 -3.48059e-21)
(-2.50237 -0.671455 0)
(-2.19391 -0.700136 -1.3383e-21)
(-1.8714 -0.722903 0)
(-1.53721 -0.739551 1.07863e-21)
(-1.19369 -0.750025 -2.32001e-21)
(-0.84312 -0.754272 -1.01011e-20)
(-0.488412 -0.752089 0)
(-0.133017 -0.743433 -1.70836e-20)
(0.219522 -0.728959 -6.46801e-21)
(0.566417 -0.710223 0)
(0.906149 -0.689088 -1.68021e-20)
(1.23823 -0.66716 -1.8191e-20)
(1.56285 -0.645352 2.91873e-20)
(1.87997 -0.623456 0)
(2.18948 -0.601055 1.06673e-20)
(2.4906 -0.577344 1.09348e-20)
(2.78216 -0.552031 3.3068e-20)
(3.06281 -0.525922 0)
(3.33147 -0.499499 0)
(3.58804 -0.472741 0)
(3.83262 -0.445983 1.073e-20)
(4.06511 -0.419104 0)
(4.28529 -0.391742 0)
(4.49267 -0.363592 -1.0197e-20)
(4.68659 -0.334554 -9.87584e-21)
(4.86631 -0.304792 0)
(5.03122 -0.274675 0)
(5.181 -0.244625 -1.7618e-20)
(5.31555 -0.215001 0)
(5.435 -0.186009 1.61769e-20)
(5.53954 -0.15775 1.53534e-20)
(5.62938 -0.130227 0)
(5.70477 -0.103409 0)
(5.76591 -0.0773201 -1.35593e-20)
(5.81307 -0.0520376 -1.17224e-22)
(5.84658 -0.0276483 -1.13114e-22)
(5.86691 -0.00424218 0)
(5.87457 0.018084 -2.4022e-20)
(5.87009 0.0391981 0)
(5.85413 0.0589587 0)
(5.82758 0.0771962 0)
(5.79134 0.093644 1.14108e-20)
(5.74643 0.108148 0)
(5.69423 0.12074 -2.2568e-20)
(5.63622 0.131359 -1.13849e-20)
(5.57352 0.139754 0)
(5.50721 0.145295 -1.14646e-20)
(5.43816 0.146704 0)
(5.3665 0.143173 0)
(5.29248 0.135652 -3.46789e-20)
(5.21716 0.125697 2.31926e-20)
(5.1422 0.114056 0)
(5.06987 0.10142 2.33489e-20)
(5.00312 0.0894011 -1.17072e-20)
(4.94442 0.079539 0)
(4.89454 0.0721297 0)
(4.85301 0.0663029 0)
(4.81926 0.0611144 -3.52353e-20)
(4.79333 0.0562823 0)
(4.77562 0.0508072 -1.17393e-20)
(4.76632 0.0423342 0)
(4.76366 0.0289468 0)
(4.76559 0.0131305 0)
(4.77031 -6.56551e-05 0)
(4.77865 -0.00737173 0)
(4.79013 -0.00995499 0)
(4.80532 -0.00759698 -2.38614e-20)
(4.82003 -0.00331812 0)
(4.83597 0.00530474 -1.19978e-20)
(4.8451 0.0118638 3.60287e-20)
(4.85603 0.0251642 0)
(4.85155 0.0310663 0)
(4.8564 0.0543164 -2.40548e-20)
(4.82929 0.0609254 -2.41382e-20)
(4.83312 0.112122 2.40976e-20)
(4.7719 0.1288 2.42436e-20)
(0.056395 -0.151948 -7.68709e-21)
(0.402028 -0.627284 -7.731e-21)
(0.901066 -1.37991 -5.37035e-21)
(1.3665 -1.98628 -3.00394e-21)
(1.73703 -2.39067 0)
(1.94865 -2.48129 6.48662e-21)
(2.02233 -2.30946 -3.86257e-21)
(2.01726 -2.01885 0)
(1.96366 -1.67735 -3.33375e-21)
(1.90507 -1.31829 0)
(1.84058 -0.979728 8.31357e-21)
(1.77569 -0.664978 0)
(1.7013 -0.376195 3.86139e-21)
(1.61652 -0.120327 7.87887e-21)
(1.51239 0.0969042 -7.98051e-21)
(1.39264 0.276493 0)
(1.25716 0.448275 -8.02879e-21)
(1.10649 0.600643 0)
(0.930675 0.762243 0)
(0.723541 0.958648 -7.79317e-21)
(0.524752 1.13196 0)
(0.333978 1.27431 -9.46198e-22)
(0.156554 1.3785 0)
(-0.0260086 1.47855 0)
(-0.232909 1.60834 1.05052e-21)
(-0.446997 1.73767 -7.06129e-21)
(-0.666091 1.86156 -8.10961e-21)
(-0.882832 1.96281 -6.99977e-21)
(-1.09625 2.02444 0)
(-1.30722 2.03697 -1.52945e-20)
(-1.52882 1.98805 0)
(-1.75147 1.87813 -8.32049e-21)
(-1.97198 1.72001 0)
(-2.17466 1.51733 0)
(-2.37268 1.28296 8.67265e-21)
(-2.55048 1.01329 0)
(-2.7392 0.790644 -8.92246e-21)
(-2.9381 0.679756 5.54038e-22)
(-3.17226 0.725708 1.79846e-20)
(-3.43104 0.864919 -1.88617e-20)
(-3.68613 1.00939 0)
(-3.91366 1.06688 0)
(-4.09456 1.0858 -1.00779e-20)
(-4.24957 1.04797 0)
(-4.3783 1.00883 -8.57873e-21)
(-4.49654 0.990762 8.62268e-21)
(-4.57503 0.942937 8.70461e-21)
(-4.61895 0.866031 0)
(-4.63318 0.779677 -8.95106e-21)
(-4.64178 0.686721 -9.04914e-21)
(-4.64288 0.604323 1.99082e-20)
(-4.66833 0.554651 -9.19568e-21)
(-4.71818 0.550459 -9.24756e-21)
(-4.80136 0.56232 0)
(-4.87096 0.55214 0)
(-4.9216 0.520923 9.50014e-21)
(-4.9534 0.473645 0)
(-4.99143 0.427199 0)
(-5.03043 0.371654 -1.99623e-20)
(-5.07377 0.303845 -2.03504e-20)
(-5.11837 0.224814 0)
(-5.16662 0.143172 0)
(-5.21424 0.070183 0)
(-5.2618 0.017299 0)
(-5.30572 -0.00924643 -2.20414e-20)
(-5.34305 -0.00883579 2.31136e-20)
(-5.36973 0.0134006 2.21822e-20)
(-5.38622 0.0472901 4.50038e-20)
(-5.39507 0.0817722 0)
(-5.39451 0.10349 8.87841e-22)
(-5.39352 0.092042 0)
(-5.38835 0.0380501 -1.98366e-20)
(-5.37737 -0.0430001 6.60553e-22)
(-5.35664 -0.128735 -1.83175e-20)
(-5.32077 -0.187459 1.75776e-20)
(-5.2746 -0.240302 4.66255e-22)
(-5.19637 -0.316747 0)
(-5.10074 -0.375737 1.59649e-20)
(-5.00736 -0.397606 1.50482e-20)
(-4.92812 -0.380692 2.93541e-20)
(-4.87156 -0.327156 0)
(-4.84058 -0.243788 -1.37618e-20)
(-4.83312 -0.142555 0)
(-4.84989 -0.0385409 2.46737e-20)
(-4.88762 0.0580732 -1.13862e-20)
(-4.94571 0.142327 1.0664e-20)
(-4.98349 0.192856 -1.0038e-20)
(-4.95387 0.17485 -2.07149e-20)
(-4.86658 0.101208 9.10333e-21)