# vtk DataFile Version 2.0
sampleSurface
ASCII
DATASET POLYDATA
POINTS 502 float
-0.0206 0 -0.0005 -0.0190172 0 -0.0005 -0.0190172 0 0.0005 -0.0206 0
0.0005 -0.0174976 0 -0.0005 -0.0174976 0 0.0005 -0.0160387 0 -0.0005
-0.0160387 0 0.0005 -0.0146381 0 -0.0005 -0.0146381 0 0.0005 -0.0132934
0 -0.0005 -0.0132934 0 0.0005 -0.0120025 0 -0.0005 -0.0120025 0
0.0005 -0.0107632 0 -0.0005 -0.0107632 0 0.0005 -0.00957337 0 -0.0005
-0.00957337 0 0.0005 -0.00843108 0 -0.0005 -0.00843108 0 0.0005 -0.00733443
0 -0.0005 -0.00733443 0 0.0005 -0.0062816 0 -0.0005 -0.0062816 0
0.0005 -0.00527083 0 -0.0005 -0.00527083 0 0.0005 -0.00430044 0 -0.0005
-0.00430044 0 0.0005 -0.00336883 0 -0.0005 -0.00336883 0 0.0005 -0.00247443
0 -0.0005 -0.00247443 0 0.0005 -0.00161577 0 -0.0005 -0.00161577 0
0.0005 -0.000791418 0 -0.0005 -0.000791418 0 0.0005 0 0 -0.0005
0 0 0.0005 0 -0.0254 -0.0005 0 -0.0254 0.0005 0
-0.0242711 0.0005 0 -0.0242711 -0.0005 0 -0.0231422 0.0005 0 -0.0231422
-0.0005 0 -0.0220133 0.0005 0 -0.0220133 -0.0005 0 -0.0208844 0.0005
0 -0.0208844 -0.0005 0 -0.0197556 0.0005 0 -0.0197556 -0.0005 0
-0.0186267 0.0005 0 -0.0186267 -0.0005 0 -0.0174978 0.0005 0 -0.0174978
-0.0005 0 -0.0163689 0.0005 0 -0.0163689 -0.0005 0 -0.01524 0.0005
0 -0.01524 -0.0005 0 -0.0141111 0.0005 0 -0.0141111 -0.0005 0
-0.0129822 0.0005 0 -0.0129822 -0.0005 0 -0.0118533 0.0005 0 -0.0118533
-0.0005 0 -0.0107244 0.0005 0 -0.0107244 -0.0005 0 -0.00959556 0.0005
0 -0.00959556 -0.0005 0 -0.00846667 0.0005 0 -0.00846667 -0.0005 0
-0.00726604 0.0005 0 -0.00726604 -0.0005 0 -0.00618989 0.0005 0 -0.00618989
-0.0005 0 -0.00522531 0.0005 0 -0.00522531 -0.0005 0 -0.00436073 0.0005
0 -0.00436073 -0.0005 0 -0.00358579 0.0005 0 -0.00358579 -0.0005 0
-0.00289118 0.0005 0 -0.00289118 -0.0005 0 -0.0022686 0.0005 0 -0.0022686
-0.0005 0 -0.00171055 0.0005 0 -0.00171055 -0.0005 0 -0.00121037 0.0005
0 -0.00121037 -0.0005 0 -0.000762037 0.0005 0 -0.000762037 -0.0005 0
-0.000360188 0.0005 0 -0.000360188 -0.0005 0.000528387 -0.0254 -0.0005 0.000528387 -0.0254
0.0005 0.00106088 -0.0254 -0.0005 0.00106088 -0.0254 0.0005 0.00159752 -0.0254 -0.0005
0.00159752 -0.0254 0.0005 0.00213833 -0.0254 -0.0005 0.00213833 -0.0254 0.0005 0.00268334
-0.0254 -0.0005 0.00268334 -0.0254 0.0005 0.00323259 -0.0254 -0.0005 0.00323259 -0.0254
0.0005 0.00378611 -0.0254 -0.0005 0.00378611 -0.0254 0.0005 0.00434393 -0.0254 -0.0005
0.00434393 -0.0254 0.0005 0.00490609 -0.0254 -0.0005 0.00490609 -0.0254 0.0005 0.00547262
-0.0254 -0.0005 0.00547262 -0.0254 0.0005 0.00604356 -0.0254 -0.0005 0.00604356 -0.0254
0.0005 0.00661893 -0.0254 -0.0005 0.00661893 -0.0254 0.0005 0.00719878 -0.0254 -0.0005
0.00719878 -0.0254 0.0005 0.00778313 -0.0254 -0.0005 0.00778313 -0.0254 0.0005 0.00837203
-0.0254 -0.0005 0.00837203 -0.0254 0.0005 0.00896551 -0.0254 -0.0005 0.00896551 -0.0254
0.0005 0.0095636 -0.0254 -0.0005 0.0095636 -0.0254 0.0005 0.0101663 -0.0254 -0.0005
0.0101663 -0.0254 0.0005 0.0107738 -0.0254 -0.0005 0.0107738 -0.0254 0.0005 0.0113859
-0.0254 -0.0005 0.0113859 -0.0254 0.0005 0.0120028 -0.0254 -0.0005 0.0120028 -0.0254
0.0005 0.0126245 -0.0254 -0.0005 0.0126245 -0.0254 0.0005 0.0132511 -0.0254 -0.0005
0.0132511 -0.0254 0.0005 0.0138825 -0.0254 -0.0005 0.0138825 -0.0254 0.0005 0.0145188
-0.0254 -0.0005 0.0145188 -0.0254 0.0005 0.0151601 -0.0254 -0.0005 0.0151601 -0.0254
0.0005 0.0158063 -0.0254 -0.0005 0.0158063 -0.0254 0.0005 0.0164576 -0.0254 -0.0005
0.0164576 -0.0254 0.0005 0.0171139 -0.0254 -0.0005 0.0171139 -0.0254 0.0005 0.0177754
-0.0254 -0.0005 0.0177754 -0.0254 0.0005 0.018442 -0.0254 -0.0005 0.018442 -0.0254
0.0005 0.0191137 -0.0254 -0.0005 0.0191137 -0.0254 0.0005 0.0197907 -0.0254 -0.0005
0.0197907 -0.0254 0.0005 0.020473 -0.0254 -0.0005 0.020473 -0.0254 0.0005 0.0211606
-0.0254 -0.0005 0.0211606 -0.0254 0.0005 0.0218535 -0.0254 -0.0005 0.0218535 -0.0254
0.0005 0.0225517 -0.0254 -0.0005 0.0225517 -0.0254 0.0005 0.0232555 -0.0254 -0.0005
0.0232555 -0.0254 0.0005 0.0239647 -0.0254 -0.0005 0.0239647 -0.0254 0.0005 0.0246794
-0.0254 -0.0005 0.0246794 -0.0254 0.0005 0.0253996 -0.0254 -0.0005 0.0253996 -0.0254
0.0005 0.0261255 -0.0254 -0.0005 0.0261255 -0.0254 0.0005 0.026857 -0.0254 -0.0005
0.026857 -0.0254 0.0005 0.0275942 -0.0254 -0.0005 0.0275942 -0.0254 0.0005 0.0283371
-0.0254 -0.0005 0.0283371 -0.0254 0.0005 0.0290858 -0.0254 -0.0005 0.0290858 -0.0254
0.0005 0.0298403 -0.0254 -0.0005 0.0298403 -0.0254 0.0005 0.0306007 -0.0254 -0.0005
0.0306007 -0.0254 0.0005 0.031367 -0.0254 -0.0005 0.031367 -0.0254 0.0005 0.0321393
-0.0254 -0.0005 0.0321393 -0.0254 0.0005 0.0329175 -0.0254 -0.0005 0.0329175 -0.0254
0.0005 0.0337019 -0.0254 -0.0005 0.0337019 -0.0254 0.0005 0.0344923 -0.0254 -0.0005
0.0344923 -0.0254 0.0005 0.0352888 -0.0254 -0.0005 0.0352888 -0.0254 0.0005 0.0360916
-0.0254 -0.0005 0.0360916 -0.0254 0.0005 0.0369006 -0.0254 -0.0005 0.0369006 -0.0254
0.0005 0.0377158 -0.0254 -0.0005 0.0377158 -0.0254 0.0005 0.0385375 -0.0254 -0.0005
0.0385375 -0.0254 0.0005 0.0393655 -0.0254 -0.0005 0.0393655 -0.0254 0.0005 0.0401999
-0.0254 -0.0005 0.0401999 -0.0254 0.0005 0.0410408 -0.0254 -0.0005 0.0410408 -0.0254
0.0005 0.0418883 -0.0254 -0.0005 0.0418883 -0.0254 0.0005 0.0427424 -0.0254 -0.0005
0.0427424 -0.0254 0.0005 0.0436031 -0.0254 -0.0005 0.0436031 -0.0254 0.0005 0.0444704
-0.0254 -0.0005 0.0444704 -0.0254 0.0005 0.0453446 -0.0254 -0.0005 0.0453446 -0.0254
0.0005 0.0462255 -0.0254 -0.0005 0.0462255 -0.0254 0.0005 0.0471133 -0.0254 -0.0005
0.0471133 -0.0254 0.0005 0.048008 -0.0254 -0.0005 0.048008 -0.0254 0.0005 0.0489096
-0.0254 -0.0005 0.0489096 -0.0254 0.0005 0.0498183 -0.0254 -0.0005 0.0498183 -0.0254
0.0005 0.050734 -0.0254 -0.0005 0.050734 -0.0254 0.0005 0.0516568 -0.0254 -0.0005
0.0516568 -0.0254 0.0005 0.0525868 -0.0254 -0.0005 0.0525868 -0.0254 0.0005 0.053524
-0.0254 -0.0005 0.053524 -0.0254 0.0005 0.0544686 -0.0254 -0.0005 0.0544686 -0.0254
0.0005 0.0554204 -0.0254 -0.0005 0.0554204 -0.0254 0.0005 0.0563797 -0.0254 -0.0005
0.0563797 -0.0254 0.0005 0.0573464 -0.0254 -0.0005 0.0573464 -0.0254 0.0005 0.0583206
-0.0254 -0.0005 0.0583206 -0.0254 0.0005 0.0593025 -0.0254 -0.0005 0.0593025 -0.0254
0.0005 0.0602919 -0.0254 -0.0005 0.0602919 -0.0254 0.0005 0.0612891 -0.0254 -0.0005
0.0612891 -0.0254 0.0005 0.0622939 -0.0254 -0.0005 0.0622939 -0.0254 0.0005 0.0633067
-0.0254 -0.0005 0.0633067 -0.0254 0.0005 0.0643272 -0.0254 -0.0005 0.0643272 -0.0254
0.0005 0.0653557 -0.0254 -0.0005 0.0653557 -0.0254 0.0005 0.0663923 -0.0254 -0.0005
0.0663923 -0.0254 0.0005 0.0674368 -0.0254 -0.0005 0.0674368 -0.0254 0.0005 0.0684895
-0.0254 -0.0005 0.0684895 -0.0254 0.0005 0.0695504 -0.0254 -0.0005 0.0695504 -0.0254
0.0005 0.0706195 -0.0254 -0.0005 0.0706195 -0.0254 0.0005 0.0716969 -0.0254 -0.0005
0.0716969 -0.0254 0.0005 0.0727828 -0.0254 -0.0005 0.0727828 -0.0254 0.0005 0.073877
-0.0254 -0.0005 0.073877 -0.0254 0.0005 0.0749798 -0.0254 -0.0005 0.0749798 -0.0254
0.0005 0.0760911 -0.0254 -0.0005 0.0760911 -0.0254 0.0005 0.0772111 -0.0254 -0.0005
0.0772111 -0.0254 0.0005 0.0783398 -0.0254 -0.0005 0.0783398 -0.0254 0.0005 0.0794772
-0.0254 -0.0005 0.0794772 -0.0254 0.0005 0.0806235 -0.0254 -0.0005 0.0806235 -0.0254
0.0005 0.0817787 -0.0254 -0.0005 0.0817787 -0.0254 0.0005 0.0829429 -0.0254 -0.0005
0.0829429 -0.0254 0.0005 0.0841162 -0.0254 -0.0005 0.0841162 -0.0254 0.0005 0.0852985
-0.0254 -0.0005 0.0852985 -0.0254 0.0005 0.0864901 -0.0254 -0.0005 0.0864901 -0.0254
0.0005 0.0876909 -0.0254 -0.0005 0.0876909 -0.0254 0.0005 0.0889011 -0.0254 -0.0005
0.0889011 -0.0254 0.0005 0.0901207 -0.0254 -0.0005 0.0901207 -0.0254 0.0005 0.0913497
-0.0254 -0.0005 0.0913497 -0.0254 0.0005 0.0925883 -0.0254 -0.0005 0.0925883 -0.0254
0.0005 0.0938366 -0.0254 -0.0005 0.0938366 -0.0254 0.0005 0.0950945 -0.0254 -0.0005
0.0950945 -0.0254 0.0005 0.0963622 -0.0254 -0.0005 0.0963622 -0.0254 0.0005 0.0976398
-0.0254 -0.0005 0.0976398 -0.0254 0.0005 0.0989273 -0.0254 -0.0005 0.0989273 -0.0254
0.0005 0.100225 -0.0254 -0.0005 0.100225 -0.0254 0.0005 0.101532 -0.0254 -0.0005
0.101532 -0.0254 0.0005 0.10285 -0.0254 -0.0005 0.10285 -0.0254 0.0005 0.104178
-0.0254 -0.0005 0.104178 -0.0254 0.0005 0.105517 -0.0254 -0.0005 0.105517 -0.0254
0.0005 0.106865 -0.0254 -0.0005 0.106865 -0.0254 0.0005 0.108225 -0.0254 -0.0005
0.108225 -0.0254 0.0005 0.109594 -0.0254 -0.0005 0.109594 -0.0254 0.0005 0.110975
-0.0254 -0.0005 0.110975 -0.0254 0.0005 0.112366 -0.0254 -0.0005 0.112366 -0.0254
0.0005 0.113768 -0.0254 -0.0005 0.113768 -0.0254 0.0005 0.115181 -0.0254 -0.0005
0.115181 -0.0254 0.0005 0.116605 -0.0254 -0.0005 0.116605 -0.0254 0.0005 0.11804
-0.0254 -0.0005 0.11804 -0.0254 0.0005 0.119486 -0.0254 -0.0005 0.119486 -0.0254
0.0005 0.120943 -0.0254 -0.0005 0.120943 -0.0254 0.0005 0.122412 -0.0254 -0.0005
0.122412 -0.0254 0.0005 0.123892 -0.0254 -0.0005 0.123892 -0.0254 0.0005 0.125384
-0.0254 -0.0005 0.125384 -0.0254 0.0005 0.126887 -0.0254 -0.0005 0.126887 -0.0254
0.0005 0.128402 -0.0254 -0.0005 0.128402 -0.0254 0.0005 0.129928 -0.0254 -0.0005
0.129928 -0.0254 0.0005 0.131467 -0.0254 -0.0005 0.131467 -0.0254 0.0005 0.133017
-0.0254 -0.0005 0.133017 -0.0254 0.0005 0.13458 -0.0254 -0.0005 0.13458 -0.0254
0.0005 0.136155 -0.0254 -0.0005 0.136155 -0.0254 0.0005 0.137742 -0.0254 -0.0005
0.137742 -0.0254 0.0005 0.139341 -0.0254 -0.0005 0.139341 -0.0254 0.0005 0.140953
-0.0254 -0.0005 0.140953 -0.0254 0.0005 0.142577 -0.0254 -0.0005 0.142577 -0.0254
0.0005 0.144214 -0.0254 -0.0005 0.144214 -0.0254 0.0005 0.145863 -0.0254 -0.0005
0.145863 -0.0254 0.0005 0.147526 -0.0254 -0.0005 0.147526 -0.0254 0.0005 0.149201
-0.0254 -0.0005 0.149201 -0.0254 0.0005 0.15089 -0.0254 -0.0005 0.15089 -0.0254
0.0005 0.152591 -0.0254 -0.0005 0.152591 -0.0254 0.0005 0.154306 -0.0254 -0.0005
0.154306 -0.0254 0.0005 0.156034 -0.0254 -0.0005 0.156034 -0.0254 0.0005 0.157775
-0.0254 -0.0005 0.157775 -0.0254 0.0005 0.159531 -0.0254 -0.0005 0.159531 -0.0254
0.0005 0.161299 -0.0254 -0.0005 0.161299 -0.0254 0.0005 0.163082 -0.0254 -0.0005
0.163082 -0.0254 0.0005 0.164878 -0.0254 -0.0005 0.164878 -0.0254 0.0005 0.166688
-0.0254 -0.0005 0.166688 -0.0254 0.0005 0.168513 -0.0254 -0.0005 0.168513 -0.0254
0.0005 0.170351 -0.0254 -0.0005 0.170351 -0.0254 0.0005 0.172204 -0.0254 -0.0005
0.172204 -0.0254 0.0005 0.174071 -0.0254 -0.0005 0.174071 -0.0254 0.0005 0.175953
-0.0254 -0.0005 0.175953 -0.0254 0.0005 0.177849 -0.0254 -0.0005 0.177849 -0.0254
0.0005 0.17976 -0.0254 -0.0005 0.17976 -0.0254 0.0005 0.181686 -0.0254 -0.0005
0.181686 -0.0254 0.0005 0.183627 -0.0254 -0.0005 0.183627 -0.0254 0.0005 0.185583
-0.0254 -0.0005 0.185583 -0.0254 0.0005 0.187555 -0.0254 -0.0005 0.187555 -0.0254
0.0005 0.189541 -0.0254 -0.0005 0.189541 -0.0254 0.0005 0.191543 -0.0254 -0.0005
0.191543 -0.0254 0.0005 0.193561 -0.0254 -0.0005 0.193561 -0.0254 0.0005 0.195594
-0.0254 -0.0005 0.195594 -0.0254 0.0005 0.197643 -0.0254 -0.0005 0.197643 -0.0254
0.0005 0.199708 -0.0254 -0.0005 0.199708 -0.0254 0.0005 0.201789 -0.0254 -0.0005
0.201789 -0.0254 0.0005 0.203886 -0.0254 -0.0005 0.203886 -0.0254 0.0005 0.206
-0.0254 -0.0005 0.206 -0.0254 0.0005 0.208047 -0.0251856 -0.0005 0.208047 -0.0251856
0.0005 0.210173 -0.0249628 -0.0005 0.210173 -0.0249628 0.0005 0.212382 -0.0247314 -0.0005
0.212382 -0.0247314 0.0005 0.214677 -0.024491 -0.0005 0.214677 -0.024491 0.0005 0.217061
-0.0242412 -0.0005 0.217061 -0.0242412 0.0005 0.219538 -0.0239817 -0.0005 0.219538 -0.0239817
0.0005 0.222112 -0.0237121 -0.0005 0.222112 -0.0237121 0.0005 0.224785 -0.023432 -0.0005
0.224785 -0.023432 0.0005 0.227563 -0.023141 -0.0005 0.227563 -0.023141 0.0005 0.230449
-0.0228387 -0.0005 0.230449 -0.0228387 0.0005 0.233447 -0.0225246 -0.0005 0.233447 -0.0225246
0.0005 0.236562 -0.0221983 -0.0005 0.236562 -0.0221983 0.0005 0.239797 -0.0218593 -0.0005
0.239797 -0.0218593 0.0005 0.243159 -0.0215071 -0.0005 0.243159 -0.0215071 0.0005 0.246652
-0.0211412 -0.0005 0.246652 -0.0211412 0.0005 0.250281 -0.0207611 -0.0005 0.250281 -0.0207611
0.0005 0.254051 -0.0203661 -0.0005 0.254051 -0.0203661 0.0005 0.257967 -0.0199558 -0.0005
0.257967 -0.0199558 0.0005 0.262036 -0.0195295 -0.0005 0.262036 -0.0195295 0.0005 0.266264
-0.0190867 -0.0005 0.266264 -0.0190867 0.0005 0.270655 -0.0186266 -0.0005 0.270655 -0.0186266
0.0005 0.275218 -0.0181486 -0.0005 0.275218 -0.0181486 0.0005 0.279959 -0.017652 -0.0005
0.279959 -0.017652 0.0005 0.284883 -0.017136 -0.0005 0.284883 -0.017136 0.0005 0.29
-0.0166 -0.0005 0.29 -0.0166 0.0005 
POLYGONS 250 1250
4 0 1 2 3 4 1 4 5 2 4
4 6 7 5 4 6 8 9 7 4
8 10 11 9 4 10 12 13 11 4
12 14 15 13 4 14 16 17 15 4
16 18 19 17 4 18 20 21 19 4
20 22 23 21 4 22 24 25 23 4
24 26 27 25 4 26 28 29 27 4
28 30 31 29 4 30 32 33 31 4
32 34 35 33 4 34 36 37 35 4
38 39 40 41 4 41 40 42 43 4
43 42 44 45 4 45 44 46 47 4
47 46 48 49 4 49 48 50 51 4
51 50 52 53 4 53 52 54 55 4
55 54 56 57 4 57 56 58 59 4
59 58 60 61 4 61 60 62 63 4
63 62 64 65 4 65 64 66 67 4
67 66 68 69 4 69 68 70 71 4
71 70 72 73 4 73 72 74 75 4
75 74 76 77 4 77 76 78 79 4
79 78 80 81 4 81 80 82 83 4
83 82 84 85 4 85 84 86 87 4
87 86 88 89 4 89 88 90 91 4
91 90 37 36 4 38 92 93 39 4
92 94 95 93 4 94 96 97 95 4
96 98 99 97 4 98 100 101 99 4
100 102 103 101 4 102 104 105 103 4
104 106 107 105 4 106 108 109 107 4
108 110 111 109 4 110 112 113 111 4
112 114 115 113 4 114 116 117 115 4
116 118 119 117 4 118 120 121 119 4
120 122 123 121 4 122 124 125 123 4
124 126 127 125 4 126 128 129 127 4
128 130 131 129 4 130 132 133 131 4
132 134 135 133 4 134 136 137 135 4
136 138 139 137 4 138 140 141 139 4
140 142 143 141 4 142 144 145 143 4
144 146 147 145 4 146 148 149 147 4
148 150 151 149 4 150 152 153 151 4
152 154 155 153 4 154 156 157 155 4
156 158 159 157 4 158 160 161 159 4
160 162 163 161 4 162 164 165 163 4
164 166 167 165 4 166 168 169 167 4
168 170 171 169 4 170 172 173 171 4
172 174 175 173 4 174 176 177 175 4
176 178 179 177 4 178 180 181 179 4
180 182 183 181 4 182 184 185 183 4
184 186 187 185 4 186 188 189 187 4
188 190 191 189 4 190 192 193 191 4
192 194 195 193 4 194 196 197 195 4
196 198 199 197 4 198 200 201 199 4
200 202 203 201 4 202 204 205 203 4
204 206 207 205 4 206 208 209 207 4
208 210 211 209 4 210 212 213 211 4
212 214 215 213 4 214 216 217 215 4
216 218 219 217 4 218 220 221 219 4
220 222 223 221 4 222 224 225 223 4
224 226 227 225 4 226 228 229 227 4
228 230 231 229 4 230 232 233 231 4
232 234 235 233 4 234 236 237 235 4
236 238 239 237 4 238 240 241 239 4
240 242 243 241 4 242 244 245 243 4
244 246 247 245 4 246 248 249 247 4
248 250 251 249 4 250 252 253 251 4
252 254 255 253 4 254 256 257 255 4
256 258 259 257 4 258 260 261 259 4
260 262 263 261 4 262 264 265 263 4
264 266 267 265 4 266 268 269 267 4
268 270 271 269 4 270 272 273 271 4
272 274 275 273 4 274 276 277 275 4
276 278 279 277 4 278 280 281 279 4
280 282 283 281 4 282 284 285 283 4
284 286 287 285 4 286 288 289 287 4
288 290 291 289 4 290 292 293 291 4
292 294 295 293 4 294 296 297 295 4
296 298 299 297 4 298 300 301 299 4
300 302 303 301 4 302 304 305 303 4
304 306 307 305 4 306 308 309 307 4
308 310 311 309 4 310 312 313 311 4
312 314 315 313 4 314 316 317 315 4
316 318 319 317 4 318 320 321 319 4
320 322 323 321 4 322 324 325 323 4
324 326 327 325 4 326 328 329 327 4
328 330 331 329 4 330 332 333 331 4
332 334 335 333 4 334 336 337 335 4
336 338 339 337 4 338 340 341 339 4
340 342 343 341 4 342 344 345 343 4
344 346 347 345 4 346 348 349 347 4
348 350 351 349 4 350 352 353 351 4
352 354 355 353 4 354 356 357 355 4
356 358 359 357 4 358 360 361 359 4
360 362 363 361 4 362 364 365 363 4
364 366 367 365 4 366 368 369 367 4
368 370 371 369 4 370 372 373 371 4
372 374 375 373 4 374 376 377 375 4
376 378 379 377 4 378 380 381 379 4
380 382 383 381 4 382 384 385 383 4
384 386 387 385 4 386 388 389 387 4
388 390 391 389 4 390 392 393 391 4
392 394 395 393 4 394 396 397 395 4
396 398 399 397 4 398 400 401 399 4
400 402 403 401 4 402 404 405 403 4
404 406 407 405 4 406 408 409 407 4
408 410 411 409 4 410 412 413 411 4
412 414 415 413 4 414 416 417 415 4
416 418 419 417 4 418 420 421 419 4
420 422 423 421 4 422 424 425 423 4
424 426 427 425 4 426 428 429 427 4
428 430 431 429 4 430 432 433 431 4
432 434 435 433 4 434 436 437 435 4
436 438 439 437 4 438 440 441 439 4
440 442 443 441 4 442 444 445 443 4
444 446 447 445 4 446 448 449 447 4
448 450 451 449 4 450 452 453 451 4
452 454 455 453 4 454 456 457 455 4
456 458 459 457 4 458 460 461 459 4
460 462 463 461 4 462 464 465 463 4
464 466 467 465 4 466 468 469 467 4
468 470 471 469 4 470 472 473 471 4
472 474 475 473 4 474 476 477 475 4
476 478 479 477 4 478 480 481 479 4
480 482 483 481 4 482 484 485 483 4
484 486 487 485 4 486 488 489 487 4
488 490 491 489 4 490 492 493 491 4
492 494 495 493 4 494 496 497 495 4
496 498 499 497 4 498 500 501 499 
POINT_DATA 502
FIELD attributes 1
U 3 502 float
3.33572 0.0344391 0.0249963 1.67447 0.0171522 0.0123182 1.67447 0.0171522 0.0123182 3.33572 0.0344391
0.0249963 0.0589862 0.000224575 0 0.0589862 0.000224575 0 0.0567605 5.89606e-05 0
0.0567605 5.89606e-05 0 0.0554516 8.70785e-05 0 0.0554516 8.70785e-05 0 0.0544574
0.000235946 0 0.0544574 0.000235946 0 0.0530412 0.000347601 0 0.0530412 0.000347601
0 0.0511006 0.000355599 0 0.0511006 0.000355599 0 0.048912 0.000326685 0
0.048912 0.000326685 0 0.0466814 0.000334142 0 0.0466814 0.000334142 0 0.0445028
0.000366463 0 0.0445028 0.000366463 0 0.0424666 0.0003793 0 0.0424666 0.0003793
0 0.0406582 0.000376321 0 0.0406582 0.000376321 0 0.0389782 0.000385865 0
0.0389782 0.000385865 0 0.0373374 0.000417541 0 0.0373374 0.000417541 0 0.0355865
0.000490682 0 0.0355865 0.000490682 0 0.0335618 0.000589632 0 0.0335618 0.000589632
0 0.0312153 0.000725861 0 0.0312153 0.000725861 0 0.0139463 0.000606738 0
0.0139463 0.000606738 0 -0.000539664 0.00111714 -5.37573e-23 -0.000539664 0.00111714 -5.37573e-23 -0.000283672
0.00296866 1.45604e-22 -0.000283672 0.00296866 1.45604e-22 0.000193111 0.00389916 1.72461e-22 0.000193111 0.00389916
1.72461e-22 -0.000129328 0.00252056 -3.45397e-22 -0.000129328 0.00252056 -3.45397e-22 -0.000431645 0.00244407 -1.15171e-22
-0.000431645 0.00244407 -1.15171e-22 0.00094835 -0.00144082 2.30205e-22 0.00094835 -0.00144082 2.30205e-22 0.00197406
-0.0100047 0 0.00197406 -0.0100047 0 0.00148784 -0.0164152 4.76423e-22 0.00148784 -0.0164152
4.76423e-22 0.000949447 -0.0202902 5.11226e-25 0.000949447 -0.0202902 5.11226e-25 0.0006267 -0.0229948 -4.75912e-22
0.0006267 -0.0229948 -4.75912e-22 0.000379278 -0.0246229 4.86846e-22 0.000379278 -0.0246229 4.86846e-22 0.000206475
-0.0255973 6.06603e-26 0.000206475 -0.0255973 6.06603e-26 6.02757e-05 -0.0259649 -4.86786e-22 6.02757e-05 -0.0259649
-4.86786e-22 -7.03519e-05 -0.0258131 -4.8094e-22 -7.03519e-05 -0.0258131 -4.8094e-22 -0.000213058 -0.0250562 3.40365e-25
-0.000213058 -0.0250562 3.40365e-25 -0.000385202 -0.0235865 4.8981e-22 -0.000385202 -0.0235865 4.8981e-22 -0.000591368
-0.0212081 0 -0.000591368 -0.0212081 0 -0.000781182 -0.0182513 0 -0.000781182 -0.0182513
0 -0.000932521 -0.0149833 0 -0.000932521 -0.0149833 0 -0.00104223 -0.0116353 0
-0.00104223 -0.0116353 0 -0.00111317 -0.00836973 0 -0.00111317 -0.00836973 0 -0.00114637
-0.00533104 0 -0.00114637 -0.00533104 0 -0.00112248 -0.00263939 0 -0.00112248 -0.00263939
0 -0.00102799 -0.000221266 0 -0.00102799 -0.000221266 0 -0.00066759 0.00160218 0
-0.00066759 0.00160218 0 0.0003422 0.00255751 0 0.0003422 0.00255751 0 0.000823794
0.00163795 0 0.000823794 0.00163795 0 -0.000876095 0.000874142 -2.2539e-25 -0.000876095 0.000874142
-2.2539e-25 -0.00145124 0.000457724 2.67218e-23 -0.00145124 0.000457724 2.67218e-23 -0.00179921 0.000109369 0
-0.00179921 0.000109369 0 -0.00176261 -0.000313515 0 -0.00176261 -0.000313515 0 -0.00131233
-0.000751093 -2.58597e-23 -0.00131233 -0.000751093 -2.58597e-23 -0.000514247 -0.00107828 -2.59061e-23 -0.000514247 -0.00107828
-2.59061e-23 0.000570048 -0.00126986 0 0.000570048 -0.00126986 0 0.0017878 -0.00132968 0
0.0017878 -0.00132968 0 0.00303281 -0.00129861 0 0.00303281 -0.00129861 0 0.00423873
-0.00119569 2.48421e-23 0.00423873 -0.00119569 2.48421e-23 0.00536201 -0.00104576 2.48895e-23 0.00536201 -0.00104576
2.48895e-23 0.00636016 -0.000869364 0 0.00636016 -0.000869364 0 0.0072058 -0.000680931 0
0.0072058 -0.000680931 0 0.00788557 -0.000489219 0 0.00788557 -0.000489219 0 0.00839265
-0.000297063 2.45737e-23 0.00839265 -0.000297063 2.45737e-23 0.00872022 -0.000103458 2.46233e-23 0.00872022 -0.000103458
2.46233e-23 0.00886365 9.49754e-05 0 0.00886365 9.49754e-05 0 0.00880448 0.000305358 0
0.00880448 0.000305358 0 0.00853179 0.000530501 0 0.00853179 0.000530501 0 0.00803162
0.000769501 0 0.00803162 0.000769501 0 0.00730766 0.00100642 0 0.00730766 0.00100642
0 0.00634461 0.00124506 0 0.00634461 0.00124506 0 0.00515678 0.00143502 2.29829e-23
0.00515678 0.00143502 2.29829e-23 0.00376025 0.00160089 2.11415e-25 0.00376025 0.00160089 2.11415e-25 0.00210478
0.00141672 -1.35719e-25 0.00210478 0.00141672 -1.35719e-25 0.000685774 0.000477083 4.5458e-23 0.000685774 0.000477083
4.5458e-23 -0.000282008 -0.000204482 2.27208e-23 -0.000282008 -0.000204482 2.27208e-23 -0.00107538 -8.81748e-05 0
-0.00107538 -8.81748e-05 0 -0.00158922 4.72933e-05 -2.22419e-23 -0.00158922 4.72933e-05 -2.22419e-23 -0.00178253
-8.62678e-05 -4.43586e-23 -0.00178253 -8.62678e-05 -4.43586e-23 -0.00168202 -0.000377177 -2.21169e-23 -0.00168202 -0.000377177
-2.21169e-23 -0.00121245 -0.000761568 0 -0.00121245 -0.000761568 0 -0.00024793 -0.00106557 -2.12823e-23
-0.00024793 -0.00106557 -2.12823e-23 0.00106897 -0.00103015 -2.13347e-23 0.00106897 -0.00103015 -2.13347e-23 0.002246
-0.000719959 0 0.002246 -0.000719959 0 0.00305724 7.63308e-05 2.07259e-23 0.00305724 7.63308e-05
2.07259e-23 0.0035026 0.00112385 2.07786e-23 0.0035026 0.00112385 2.07786e-23 0.00351298 0.000832267 2.02848e-23
0.00351298 0.000832267 2.02848e-23 0.00327521 -0.000870004 6.04444e-23 0.00327521 -0.000870004 6.04444e-23 0.00308758
-0.00191491 4.02122e-23 0.00308758 -0.00191491 4.02122e-23 0.00268468 -0.00108631 0 0.00268468 -0.00108631
0 0.00129944 0.000742972 0 0.00129944 0.000742972 0 -0.000972462 0.00185387 0
-0.000972462 0.00185387 0 -0.00334283 0.00198731 0 -0.00334283 0.00198731 0 -0.0055276
0.00185627 3.85737e-23 -0.0055276 0.00185627 3.85737e-23 -0.00752451 0.00168677 7.74553e-23 -0.00752451 0.00168677
7.74553e-23 -0.00932865 0.00150467 7.79561e-23 -0.00932865 0.00150467 7.79561e-23 -0.0109451 0.00132819 3.91839e-23
-0.0109451 0.00132819 3.91839e-23 -0.0123881 0.00116604 -3.97919e-23 -0.0123881 0.00116604 -3.97919e-23 -0.0136753
0.00102255 -3.99072e-23 -0.0136753 0.00102255 -3.99072e-23 -0.0148258 0.000898795 4.05013e-23 -0.0148258 0.000898795
4.05013e-23 -0.0158577 0.000793418 8.14399e-23 -0.0158577 0.000793418 8.14399e-23 -0.0167874 0.000703984 4.09408e-23
-0.0167874 0.000703984 4.09408e-23 -0.0176286 0.00062793 0 -0.0176286 0.00062793 0 -0.0183925
0.00056272 0 -0.0183925 0.00056272 0 -0.0190881 0.000505814 4.17355e-23 -0.0190881 0.000505814
4.17355e-23 -0.0197216 0.000454765 4.18647e-23 -0.0197216 0.000454765 4.18647e-23 -0.0202969 0.000407451 0
-0.0202969 0.000407451 0 -0.020816 0.000362297 0 -0.020816 0.000362297 0 -0.0212792
0.000318318 0 -0.0212792 0.000318318 0 -0.0216861 0.000274996 0 -0.0216861 0.000274996
0 -0.0220354 0.000231989 0 -0.0220354 0.000231989 0 -0.0223257 0.000189054 0
-0.0223257 0.000189054 0 -0.0225553 0.000146239 0 -0.0225553 0.000146239 0 -0.0227228
0.000103967 -4.09537e-23 -0.0227228 0.000103967 -4.09537e-23 -0.0228272 6.2945e-05 -4.10913e-23 -0.0228272 6.2945e-05
-4.10913e-23 -0.022869 2.41284e-05 0 -0.022869 2.41284e-05 0 -0.0228538 -1.19074e-05 3.95825e-23
-0.0228538 -1.19074e-05 3.95825e-23 -0.0227851 -4.5253e-05 7.87272e-23 -0.0227851 -4.5253e-05 7.87272e-23 -0.022664
-7.5843e-05 3.91439e-23 -0.022664 -7.5843e-05 3.91439e-23 -0.0224943 -0.000103808 -3.77152e-23 -0.0224943 -0.000103808
-3.77152e-23 -0.0222788 -0.000129298 -8.39767e-25 -0.0222788 -0.000129298 -8.39767e-25 -0.0220211 -0.000152439 3.71409e-23
-0.0220211 -0.000152439 3.71409e-23 -0.0217239 -0.000173674 -3.55074e-23 -0.0217239 -0.000173674 -3.55074e-23 -0.0213896
-0.000193431 -3.56363e-23 -0.0213896 -0.000193431 -3.56363e-23 -0.0210197 -0.000212325 0 -0.0210197 -0.000212325
0 -0.0206147 -0.000231003 3.31084e-23 -0.0206147 -0.000231003 3.31084e-23 -0.0201737 -0.000250097 3.32315e-23
-0.0201737 -0.000250097 3.32315e-23 -0.019695 -0.000270178 -3.14484e-23 -0.019695 -0.000270178 -3.14484e-23 -0.0191755
-0.000291657 -3.15672e-23 -0.0191755 -0.000291657 -3.15672e-23 -0.0186116 -0.000314748 2.97529e-23 -0.0186116 -0.000314748
2.97529e-23 -0.0179993 -0.000339422 5.87612e-23 -0.0179993 -0.000339422 5.87612e-23 -0.017335 -0.000365389 5.70355e-23
-0.017335 -0.000365389 5.70355e-23 -0.0166155 -0.000392106 8.2464e-23 -0.0166155 -0.000392106 8.2464e-23 -0.0158391
-0.000418818 1.94537e-24 -0.0158391 -0.000418818 1.94537e-24 -0.0150057 -0.000444616 -5.28014e-23 -0.0150057 -0.000444616
-5.28014e-23 -0.0141173 -0.000468507 0 -0.0141173 -0.000468507 0 -0.0131776 -0.000489543 0
-0.0131776 -0.000489543 0 -0.0121923 -0.000506991 -4.59348e-23 -0.0121923 -0.000506991 -4.59348e-23 -0.0111682
-0.000520428 -9.05321e-23 -0.0111682 -0.000520428 -9.05321e-23 -0.0101125 -0.00052973 -1.62478e-24 -0.0101125 -0.00052973
-1.62478e-24 -0.00903266 -0.000535093 4.31454e-23 -0.00903266 -0.000535093 4.31454e-23 -0.00793496 -0.00053703 -4.03664e-23
-0.00793496 -0.00053703 -4.03664e-23 -0.00682531 -0.000535948 -7.97547e-23 -0.00682531 -0.000535948 -7.97547e-23 -0.00570956
-0.000531635 -7.7562e-23 -0.00570956 -0.000531635 -7.7562e-23 -0.00459345 -0.000523491 -3.834e-23 -0.00459345 -0.000523491
-3.834e-23 -0.00348365 -0.000510766 0 -0.00348365 -0.000510766 0 -0.00239016 -0.000491862 0
-0.00239016 -0.000491862 0 -0.00132568 -0.000465101 -3.50858e-23 -0.00132568 -0.000465101 -3.50858e-23 -0.000309186
-0.00043609 -3.52394e-23 -0.000309186 -0.00043609 -3.52394e-23 0.000638735 -0.00040296 0 0.000638735 -0.00040296
0 0.00151255 -0.000363256 3.36891e-23 0.00151255 -0.000363256 3.36891e-23 0.00231204 -0.000323511 3.38395e-23
0.00231204 -0.000323511 3.38395e-23 0.00303566 -0.000285682 0 0.00303566 -0.000285682 0 0.00368765
-0.000251604 3.27754e-23 0.00368765 -0.000251604 3.27754e-23 0.00427509 -0.000222331 3.29247e-23 0.00427509 -0.000222331
3.29247e-23 0.00480689 -0.00019774 0 0.00480689 -0.00019774 0 0.00529139 -0.000176268 -3.20021e-23
0.00529139 -0.000176268 -3.20021e-23 0.00573236 -0.000155389 -6.38929e-23 0.00573236 -0.000155389 -6.38929e-23 0.00612699
-0.000133066 -3.18905e-23 0.00612699 -0.000133066 -3.18905e-23 0.00646845 -0.000109017 3.12185e-23 0.00646845 -0.000109017
3.12185e-23 0.00675148 -8.45625e-05 3.13661e-23 0.00675148 -8.45625e-05 3.13661e-23 0.00697657 -6.14892e-05 -3.06862e-23
0.00697657 -6.14892e-05 -3.06862e-23 0.00714998 -4.12259e-05 -3.0833e-23 0.00714998 -4.12259e-05 -3.0833e-23 0.00728107
-2.47025e-05 -3.01335e-23 0.00728107 -2.47025e-05 -3.01335e-23 0.00737978 -1.24137e-05 -6.01273e-23 0.00737978 -1.24137e-05
-6.01273e-23 0.00745551 -4.43669e-06 -2.99932e-23 0.00745551 -4.43669e-06 -2.99932e-23 0.0075171 -4.30759e-07 0
0.0075171 -4.30759e-07 0 0.00757275 4.31305e-07 0 0.00757275 4.31305e-07 0 0.00762932
-6.46385e-07 0 0.00762932 -6.46385e-07 0 0.0076915 -2.49636e-06 0 0.0076915 -2.49636e-06
0 0.00776138 -4.062e-06 0 0.00776138 -4.062e-06 0 0.00783816 -4.25784e-06 0
0.00783816 -4.25784e-06 0 0.00791841 -2.59294e-06 -2.73617e-23 0.00791841 -2.59294e-06 -2.73617e-23 0.00799775
5.59616e-07 -4.66905e-25 0.00799775 5.59616e-07 -4.66905e-25 0.00807197 5.01385e-06 2.71726e-23 0.00807197 5.01385e-06
2.71726e-23 0.00813677 1.06272e-05 0 0.00813677 1.06272e-05 0 0.00818926 1.63017e-05 0
0.00818926 1.63017e-05 0 0.00822883 2.13601e-05 0 0.00822883 2.13601e-05 0 0.00825468
2.66081e-05 5.07673e-23 0.00825468 2.66081e-05 5.07673e-23 0.0082658 3.30806e-05 5.1034e-23 0.0082658 3.30806e-05
5.1034e-23 0.00826126 4.13811e-05 -4.94415e-23 0.00826126 4.13811e-05 -4.94415e-23 0.00823907 5.14633e-05 -9.24884e-25
0.00823907 5.14633e-05 -9.24884e-25 0.00819721 6.22767e-05 4.9039e-23 0.00819721 6.22767e-05 4.9039e-23 0.00813476
7.19908e-05 0 0.00813476 7.19908e-05 0 0.00805285 7.86584e-05 0 0.00805285 7.86584e-05
0 0.00795505 8.10443e-05 -4.61442e-23 0.00795505 8.10443e-05 -4.61442e-23 0.00784667 7.91213e-05 -9.18852e-23
0.00784667 7.91213e-05 -9.18852e-23 0.00773354 7.39883e-05 -4.57385e-23 0.00773354 7.39883e-05 -4.57385e-23 0.00762062
6.73019e-05 -4.41847e-23 0.00762062 6.73019e-05 -4.41847e-23 0.00751128 6.06348e-05 -8.79606e-23 0.00751128 6.06348e-05
-8.79606e-23 0.00740705 5.50908e-05 -8.92671e-25 0.00740705 5.50908e-05 -8.92671e-25 0.0073079 5.12079e-05 4.31191e-23
0.0073079 5.12079e-05 4.31191e-23 0.00721279 4.90226e-05 0 0.00721279 4.90226e-05 0 0.00712023
4.81868e-05 4.09312e-23 0.00712023 4.81868e-05 4.09312e-23 0.0070289 4.80984e-05 4.11617e-23 0.0070289 4.80984e-05
4.11617e-23 0.00693804 4.80529e-05 0 0.00693804 4.80529e-05 0 0.00684777 4.74275e-05 0
0.00684777 4.74275e-05 0 0.00675899 4.58412e-05 0 0.00675899 4.58412e-05 0 0.00667326
4.32073e-05 -3.7717e-23 0.00667326 4.32073e-05 -3.7717e-23 0.00659232 3.96893e-05 -7.50129e-23 0.00659232 3.96893e-05
-7.50129e-23 0.00651772 3.56073e-05 -3.72931e-23 0.00651772 3.56073e-05 -3.72931e-23 0.00645047 3.13188e-05 -3.58062e-23
0.00645047 3.13188e-05 -3.58062e-23 0.00639095 2.71258e-05 -3.60145e-23 0.00639095 2.71258e-05 -3.60145e-23 0.00633899
2.32363e-05 0 0.00633899 2.32363e-05 0 0.00629398 1.97667e-05 -3.39042e-23 0.00629398 1.97667e-05
-3.39042e-23 0.00625509 1.67637e-05 -3.41038e-23 0.00625509 1.67637e-05 -3.41038e-23 0.00622139 1.42304e-05 -3.26425e-23
0.00622139 1.42304e-05 -3.26425e-23 0.00619199 1.21459e-05 -3.28361e-23 0.00619199 1.21459e-05 -3.28361e-23 0.00616602
1.04763e-05 0 0.00616602 1.04763e-05 0 0.00614281 9.17931e-06 -3.07614e-23 0.00614281 9.17931e-06
-3.07614e-23 0.00612166 8.21242e-06 -3.09458e-23 0.00612166 8.21242e-06 -3.09458e-23 0.00610209 7.53735e-06 -2.95152e-23
0.00610209 7.53735e-06 -2.95152e-23 0.00608348 7.13311e-06 -2.96934e-23 0.00608348 7.13311e-06 -2.96934e-23 0.00606547