/*--------------------------------*- C++ -*----------------------------------*\
  =========                 |
  \\      /  F ield         | OpenFOAM: The Open Source CFD Toolbox
   \\    /   O peration     | Website:  https://openfoam.org
    \\  /    A nd           | Version:  9
     \\/     M anipulation  |
\*---------------------------------------------------------------------------*/
FoamFile
{
    format      ascii;
    class       volScalarField;
    location    "0.23";
    object      epsilon;
}
// * * * * * * * * * * * * * * * * * * * * * * * * * * * * * * * * * * * * * //

dimensions      [0 2 -3 0 0 0 0];

internalField   nonuniform List<scalar> 
12225
(
222.789
168.12
130.332
104.781
88.3635
78.9295
74.9151
75.1104
78.5379
84.393
92.0159
100.879
110.584
120.862
131.565
142.651
154.176
169.192
40.0117
48.9411
53.1217
57.7495
65.257
77.2082
94.8688
119.241
150.97
190.302
237.148
291.243
352.355
420.466
495.873
579.065
670.439
770.128
19.9234
23.9711
26.8185
29.1822
31.6653
34.7358
38.7913
44.1766
51.1811
60.0482
71.0102
84.3454
100.452
119.929
143.651
172.812
208.941
253.961
15.8935
17.2303
18.4098
19.4396
20.4288
21.4952
22.7476
24.2825
26.1825
28.5217
31.3784
34.8555
39.1063
44.367
50.9962
59.5066
70.6218
85.1317
14.8206
15.059
15.3821
15.717
16.0549
16.4117
16.8126
17.2856
17.8575
18.554
19.4025
20.4378
21.7101
23.2958
25.3121
27.9343
31.4219
36.0806
14.5167
14.3187
14.2226
14.1861
14.1872
14.2171
14.2755
14.3668
14.4983
14.6782
14.9166
15.2262
15.6244
16.1366
16.8006
17.6721
18.8329
20.378
14.4328
14.0744
13.7888
13.5612
13.379
13.2328
13.1173
13.0299
12.9705
12.9407
12.9433
12.9831
13.0665
13.2031
13.4064
13.696
14.0988
14.641
14.4109
13.9994
13.6378
13.3219
13.0462
12.8055
12.5953
12.4124
12.2549
12.1218
12.0132
11.9304
11.8755
11.8521
11.8655
11.9231
12.0349
12.2082
14.4055
13.9782
13.59
13.2385
12.9207
12.6338
12.3747
12.1412
11.9311
11.7433
11.5767
11.4312
11.3073
11.2061
11.1296
11.0806
11.063
11.0791
14.4042
13.9728
13.5764
13.2123
12.8782
12.5715
12.2901
12.032
11.7956
11.5795
11.3827
11.2045
11.0448
10.9036
10.7815
10.6795
10.5991
10.5413
14.4039
13.9714
13.5728
13.205
12.8653
12.5513
12.261
11.9926
11.7444
11.5152
11.3038
11.1096
10.9318
10.7703
10.6251
10.4962
10.3843
10.2899
14.4038
13.9711
13.572
13.2032
12.862
12.5459
12.2529
11.9809
11.7286
11.4944
11.2773
11.0765
10.8911
10.7207
10.5651
10.424
10.2976
10.1864
14.4038
13.971
13.5718
13.2028
12.8611
12.5444
12.2505
11.9773
11.7234
11.4873
11.2679
11.0641
10.8752
10.7006
10.5397
10.3922
10.258
10.1377
14.4037
13.971
13.5717
13.2026
12.861
12.5442
12.25
11.9766
11.7223
11.4857
11.2654
11.0606
10.8703
10.6937
10.5304
10.3797
10.2413
10.1159
14.4037
13.9709
13.5716
13.2026
12.861
12.5443
12.2503
11.977
11.7227
11.4861
11.2658
11.0608
10.87
10.6927
10.5282
10.3759
10.2353
10.1069
14.4036
13.9708
13.5716
13.2027
12.8611
12.5446
12.2507
11.9776
11.7237
11.4872
11.2671
11.0622
10.8713
10.6937
10.5286
10.3753
10.2332
10.1029
14.4036
13.9708
13.5715
13.2027
12.8613
12.5449
12.2513
11.9785
11.7248
11.4887
11.2688
11.064
10.8732
10.6954
10.5298
10.3757
10.2325
10.1005
14.4035
13.9707
13.5714
13.2026
12.8614
12.5453
12.2519
11.9794
11.7261
11.4903
11.2706
11.066
10.8752
10.6973
10.5313
10.3765
10.2322
10.0988
14.4034
13.9705
13.5713
13.2026
12.8616
12.5457
12.2526
11.9805
11.7275
11.492
11.2726
11.0681
10.8773
10.6992
10.5328
10.3773
10.2321
10.0975
14.4033
13.9704
13.5712
13.2027
12.8618
12.5462
12.2534
11.9815
11.7287
11.4935
11.2742
11.0698
10.879
10.7007
10.5339
10.378
10.232
10.0965
14.4033
13.9703
13.5713
13.2028
12.8622
12.5467
12.2542
11.9826
11.73
11.495
11.2759
11.0715
10.8807
10.7023
10.5354
10.3791
10.2327
10.0967
14.4033
13.9704
13.5714
13.2033
12.8629
12.5478
12.2557
11.9845
11.7324
11.4978
11.2792
11.0753
10.8849
10.7069
10.5403
10.3843
10.2381
10.1022
14.4033
13.9707
13.5723
13.205
12.8658
12.5522
12.2619
11.9927
11.7429
11.5106
11.2944
11.0929
10.9049
10.7293
10.565
10.4112
10.2671
10.1333
14.4039
13.9732
13.5785
13.2166
12.8846
12.5794
12.2984
12.0393
11.7998
11.578
11.3722
11.1809
11.0028
10.8367
10.6815
10.5365
10.4007
10.2748
14.4093
13.9931
13.6219
13.2901
12.9922
12.723
12.4784
12.2546
12.0489
11.8589
11.6829
11.5195
11.3675
11.2263
11.0948
10.9725
10.8587
10.754
14.4519
14.1235
13.864
13.6511
13.4688
13.3072
13.1599
13.0239
12.8975
12.7803
12.672
12.5727
12.4825
12.4012
12.3288
12.2652
12.2103
12.1646
14.735
14.8104
14.9372
15.0534
15.1428
15.206
15.2501
15.2842
15.317
15.3555
15.4052
15.4699
15.5521
15.6531
15.7733
15.9126
16.0706
16.2462
16.4013
17.9375
19.0567
19.8338
20.3965
20.8435
21.2464
21.6575
22.1138
22.6407
23.2539
23.9623
24.7694
25.6749
26.6752
27.7657
28.9406
30.1917
27.1778
32.5676
34.7931
35.8605
36.6774
37.6696
39.0601
40.9694
43.4577
46.549
50.2445
54.5283
59.3716
64.7358
70.5758
76.8427
83.4943
90.4517
142.552
119.604
101.693
87.6329
76.5961
67.9758
61.315
56.2582
52.5217
49.8746
48.1261
47.1171
46.7131
46.8002
47.2822
48.0774
49.118
50.3435
20.2037
47.458
75.6275
82.1816
84.6244
86.8376
90.0924
94.8285
99.9776
102.998
102.127
95.3441
80.9078
59.053
38.5056
8.05179
7.95477
8.77349
39.4875
39.5624
9.00901
8.88125
8.89343
88.8755
203.871
333.1
467.537
595.81
709.884
804.913
878.666
930.874
962.637
975.931
973.222
957.187
930.5
895.675
854.946
810.235
763.127
717.586
673.626
631.297
590.665
551.778
514.667
479.34
445.788
413.99
383.911
355.503
328.708
303.45
279.64
257.174
235.939
215.82
196.715
178.54
161.248
144.828
129.308
114.743
101.203
88.7533
77.454
67.3765
58.6696
51.7243
47.7376
47.4212
48.1198
49.2043
50.5967
52.2925
54.3018
56.6386
59.3162
62.3441
65.7224
69.4278
73.3789
77.3704
80.9568
83.3182
83.3847
80.4402
74.4549
66.2428
57.1007
47.4952
10.1708
9.55489
9.26274
9.19427
9.27614
9.49288
9.81832
10.2872
11.0839
51.6081
58.2947
66.3224
75.0919
82.7685
86.9334
89.0937
98.8558
146.476
272.566
403.801
513.075
588.29
627.466
634.194
614.728
576.143
525.212
467.599
409.756
355.352
305.404
260.488
220.786
186.18
156.348
130.867
109.307
91.3712
77.2003
68.1983
71.5114
86.649
106.921
133.23
166.853
209.027
260.768
322.787
395.377
478.114
571.011
675.858
777.847
820.808
777.072
638.552
436.639
241.961
118.157
63.1983
11.3819
9.5478
8.62054
8.09211
7.83618
7.74457
7.67357
7.61436
7.55766
7.13521
6.42697
5.626
4.83206
4.16102
3.66182
3.36109
3.25095
3.27215
3.36474
3.45098
3.442
3.31066
3.21831
3.42239
3.82805
4.33405
5.03849
5.65805
29.5467
95.7785
84.1783
69.8646
58.7223
49.9049
43.1858
38.4864
36.6022
38.3806
42.1107
45.576
46.4703
43.0372
35.7146
27.1222
27.6202
38.8647
68.1625
120.894
149.595
166.636
185.307
209.601
234.758
254.276
265.936
268.848
263.336
250.512
231.938
209.377
184.634
159.445
135.391
113.81
95.7167
81.7485
72.1495
66.7784
65.2682
64.0117
62.915
61.9534
61.1095
60.3713
59.731
59.183
58.7231
58.3462
58.0452
57.8085
57.6181
57.4471
57.2581
57.0023
56.6206
56.0477
55.2186
54.0782
52.5914
50.7509
48.5815
46.1378
43.4973
40.7496
37.9849
35.2873
32.7402
30.4368
28.5113
27.0584
25.8156
24.7334
23.7979
22.9987
22.3265
21.7724
21.328
20.9848
20.7343
20.5686
20.4837
20.4873
20.612
20.9628
22.006
23.5312
24.7484
25.4188
25.664
24.4706
24.586
25.7218
27.4325
29.0588
29.8144
29.0565
26.7716
23.6593
20.8745
18.4885
17.1194
17.0618
19.1634
27.1061
48.2241
81.9809
117.512
144.571
163.98
168.681
160.347
142.88
120.607
97.4606
76.6736
60.5225
50.1075
45.5498
43.915
42.7319
41.9442
41.5
41.333
41.3582
41.4693
41.5419
41.4439
41.0595
40.3282
39.3287
38.3169
37.295
36.2991
35.4891
34.9818
34.8465
35.1117
35.7797
36.8352
38.2423
40.0322
42.6498
50.1338
80.0341
113.75
135.249
139.952
136.472
135.442
133.084
117.759
87.4866
58.8784
43.7801
39.5264
40.9321
42.5551
42.394
40.2861
36.1742
31.0709
25.8904
21.1559
17.2241
14.0319
11.3964
9.26471
7.60208
6.40211
5.68261
5.41481
5.49595
6.10602
8.1716
11.7447
11.7738
8.80404
7.54383
46.3133
74.025
60.9159
50.2471
40.7572
32.8928
27.1464
23.4055
21.9178
22.9804
26.1728
30.4232
34.1602
37.3942
47.3916
68.574
112.075
142.704
142.643
141.085
141.1
141.686
143.246
144.61
143.608
138.81
130.104
118.129
104.042
89.2347
75.0424
62.5101
52.2533
44.4502
38.9366
35.3478
33.2463
32.21
31.884
32.0177
32.2533
32.5009
32.7532
33.0127
33.2884
33.5947
33.9494
34.3719
34.8811
35.4933
36.2202
37.0664
38.0271
39.0851
40.2074
41.3433
42.4231
43.3601
44.0579
44.4215
44.372
43.8615
42.8836
41.4753
39.7111
37.6878
35.5076
33.2622
31.0251
28.8495
26.9158
25.264
23.7721
22.4224
21.2054
20.1124
19.1345
18.2638
17.4931
16.817
16.2317
15.7358
15.3314
15.025
14.8295
14.7648
14.8533
15.0758
15.3746
15.7036
16.0291
16.2436
16.4249
16.6527
16.9776
17.3632
17.6978
17.7592
17.3275
16.3877
15.281
14.5289
14.9646
17.7269
25.7577
42.5009
64.2774
81.231
88.9888
91.8938
88.5388
78.5498
64.9758
51.3373
40.0939
32.1628
27.325
24.8484
23.9296
23.9289
24.2848
24.8275
25.5316
26.3738
27.3243
28.3397
29.3555
30.2811
31.0003
31.3795
31.2798
30.5871
29.4636
28.0676
26.5031
24.9031
23.3669
21.9574
20.7061
19.6205
18.6933
17.913
17.2774
16.8273
16.7777
18.1112
24.6129
35.8019
46.9788
55.5346
63.2922
74.0197
90.5508
105.588
104.676
93.2803
85.6517
83.0219
79.5724
72.2167
62.4054
51.9636
42.2985
34.1765
27.7164
22.6476
18.5533
15.1024
12.1032
9.52307
7.46089
6.08992
5.54717
5.8719
7.52167
11.5051
14.6617
11.0773
7.89986
7.03118
55.8029
59.5331
57.2007
46.2898
34.0522
24.9344
19.0605
15.2432
15.2966
17.9518
22.0485
28.4683
39.2485
59.0345
90.5683
124.749
135.389
127.166
116.578
109.251
104.288
100.342
96.4156
91.4899
84.8867
76.6408
67.3977
58.0648
49.5091
42.3326
36.7898
32.8364
30.2408
28.6976
27.906
27.6121
27.6217
27.7975
28.0485
28.2676
28.3853
28.3915
28.2892
28.0922
27.826
27.5263
27.2366
27.0048
26.8798
26.9069
27.1246
27.5619
28.2356
29.1482
30.2844
31.6075
33.0553
34.5379
35.9397
37.1288
37.974
38.3666
38.2423
37.5946
36.4747
34.9766
33.2135
31.293
29.302
27.3237
25.5881
24.0086
22.5545
21.2212
20.0037
18.8953
17.8892
16.979
16.1589
15.4248
14.7744
14.2078
13.728
13.3395
13.0477
12.8569
12.7668
12.7654
12.8272
12.9211
13.0192
13.1002
13.1628
13.2164
13.2707
13.3318
13.345
13.2837
13.1702
13.078
13.2543
14.3352
17.5207
24.9833
37.9861
52.5873
62.2888
65.4581
65.0718
61.3411
53.7332
43.8905
34.5354
27.3422
22.6037
19.8352
18.3777
17.6962
17.4523
17.4751
17.6673
17.9978
18.4573
19.0408
19.7421
20.5471
21.4234
22.3111
23.1165
23.7124
23.9441
23.6724
22.9971
22.019
20.8544
19.6236
18.4224
17.3149
16.3349
15.4918
14.7779
14.1789
13.6813
13.2766
12.9789
12.8732
13.3129
15.4639
19.621
24.9163
30.7799
38.6169
52.1839
74.5705
99.1202
112.573
114.591
111.93
106.448
96.0288
79.7348
62.8232
48.298
36.8009
28.1391
21.8223
17.2706
13.9255
11.3196
9.14978
7.35383
6.12714
5.79123
6.61573
9.10996
13.1801
14.0435
9.50152
7.1698
6.65061
64.0506
68.4731
63.6628
46.6598
32.7672
24.1592
20.2284
19.98
20.873
24.1624
30.8127
42.6549
61.4937
86.3182
107.769
113.382
105.394
94.6376
86.1185
80.029
75.1751
70.5592
65.5648
59.9416
53.8554
47.7847
42.273
37.7178
34.2887
31.9505
30.5389
29.839
29.6411
29.77
30.0931
30.5163
30.9736
31.4162
31.7733
31.9217
31.8428
31.5166
30.9356
30.1095
29.0686
27.8641
26.5661
25.2594
24.0352
22.9837
22.1846
21.7003
21.5719
21.8193
22.4419
23.4203
24.712
26.2465
27.9182
29.5864
31.0845
32.2429
32.9219
33.0427
32.6048
31.6802
30.3836
28.8353
27.1386
25.502
23.9877
22.5606
21.2271
19.9898
18.8477
17.7969
16.833
15.951
15.1467
14.4167
13.759
13.1732
12.6608
12.2246
11.8685
11.596
11.4085
11.301
11.2601
11.2657
11.2952
11.3294
11.357
11.3769
11.3921
11.4051
11.4294
11.491
11.7062
12.2938
13.6731
16.7202
22.9631
33.3543
44.8469
51.6634
53.0678
52.0289
49.0939
43.6269
36.2424
28.8753
23.043
19.0985
16.6764
15.2491
14.4063
13.9072
13.6349
13.5403
13.5721
13.7077
13.943
14.2827
14.7361
15.3106
16.0009
16.7764
17.5699
18.2693
18.7168
18.7679
18.4526
17.8419
17.0355
16.1441
15.2626
14.4582
13.7681
13.2036
12.7579
12.4131
12.147
11.9403
11.785
11.6854
11.6703
11.9101
12.788
14.6085
17.5743
22.1842
30.0891
44.3023
65.362
86.3144
99.3749
103.416
100.127
91.1104
78.1418
62.7806
48.5876
36.8494
27.6811
20.7709
15.6983
12.0459
9.43873
7.57789
6.29277
5.63839
5.90944
7.43904
10.3752
13.5445
12.6857
8.42567
6.71527
6.33312
71.6295
80.7051
69.8203
51.3362
37.9302
30.8075
28.6152
29.1666
31.8847
37.7835
47.6633
61.4945
76.7983
88.096
90.7224
85.581
77.5302
70.333
64.8116
60.3918
56.3636
52.349
48.3016
44.4031
40.9371
38.1528
36.176
34.9965
34.5059
34.5492
34.9674
35.6245
36.4166
37.2692
38.1282
38.9498
39.6932
40.3177
40.7049
40.8766
40.7781
40.3516
39.5469
38.329
36.6871
34.6434
32.2618
29.6518
26.9646
24.3781
22.071
20.1924
18.8391
18.0485
17.8105
18.0876
18.8309
19.9825
21.4655
23.1671
24.9283
26.5513
27.8322
28.6072
28.7963
28.4253
27.589
26.4127
25.0763
23.7513
22.4436
21.1811
19.9817
18.8536
17.7998
16.8197
15.9111
15.071
14.2965
13.5849
12.9345
12.3445
11.8152
11.3484
10.9466
10.613
10.3499
10.1577
10.0334
9.97003
9.95628
9.97738
10.0178
10.0659
10.1192
10.1867
10.2999
10.5359
11.0531
12.1791
14.542
19.2742
27.6109
38.1693
45.3054
46.2771
44.6243
42.3757
38.6343
33.1247
26.9762
21.6443
17.7848
15.2673
13.6755
12.6463
11.9605
11.5071
11.2302
11.0972
11.0563
11.0837
11.1763
11.3438
11.6058
11.9857
12.4998
13.1435
13.8762
14.6048
15.1741
15.4347
15.3862
15.0568
14.525
13.8925
13.2547
12.6835
12.2211
11.8823
11.6608
11.5367
11.4838
11.4757
11.4894
11.5067
11.5147
11.5135
11.5867
11.9447
12.9168
15.05
19.2619
26.9599
39.0896
53.4629
65.2046
70.9304
70.0337
63.8323
55.0766
46.3628
37.8065
30.1434
23.6402
18.3175
14.0912
10.8346
8.40404
6.66906
5.58046
5.26311
6.04404
8.1933
11.2399
13.3594
11.5698
7.87259
6.42301
6.04034
79.4444
90.9078
77.856
58.6789
46.6055
41.4321
40.7109
42.0384
46.0192
52.3646
60.2015
67.6877
72.497
73.1586
70.0253
64.8689
59.5933
55.1605
51.5386
48.4024
45.5636
43.034
40.9195
39.3233
38.296
37.8193
37.817
38.18
38.7954
39.5684
40.433
41.3507
42.3018
43.2733
44.2488
45.2027
46.0963
46.877
47.5382
48.0585
48.365
48.3842
48.046
47.2831
46.0286
44.2169
41.7938
38.743
35.128
31.1304
27.0557
23.2777
20.1339
17.8248
16.3816
15.7159
15.6994
16.2209
17.2027
18.569
20.2062
21.9346
23.5253
24.7474
25.4271
25.5263
25.1002
24.2976
23.3165
22.238
21.1247
20.0188
18.9459
17.9202
16.9486
16.0341
15.1769
14.3762
13.6304
12.938
12.2976
11.7082
11.1698
10.6831
10.2501
9.87407
9.55881
9.30835
9.1256
9.01117
8.96204
8.97082
9.02652
9.11775
9.23954
9.40304
9.64782
10.0652
10.8511
12.4362
15.6324
21.6293
30.7717
39.5732
42.6322
40.6739
38.1449
35.5966
31.7453
26.74
21.7424
17.7314
14.9306
13.0796
11.8428
10.991
10.4012
10.0066
9.76179
9.63127
9.56207
9.52904
9.52817
9.57117
9.68414
9.90185
10.2572
10.7658
11.4119
12.121
12.7264
13.1315
13.2787
13.1628
12.8406
12.4045
11.9509
11.5571
11.2716
11.1132
11.0767
11.14
11.2722
11.4406
11.6156
11.7714
11.8826
11.9236
11.8781
11.8138
11.9223
12.558
14.359
18.2189
24.6251
32.5934
39.659
43.5619
43.5219
40.2506
35.2773
30.2965
25.9313
21.8855
18.1888
14.8766
11.9864
9.54903
7.59622
6.14218
5.23478
5.08656
6.13425
8.61114
11.6483
13.0076
10.8384
7.63857
6.258
5.78044
85.7352
101.415
86.7113
68.1041
57.3103
53.2098
51.5969
52.4099
54.7148
57.5842
60.0551
61.2936
60.8648
58.8377
55.6982
52.1588
48.8514
46.057
43.7731
41.959
40.6117
39.7252
39.2576
39.1375
39.282
39.6096
40.0497
40.552
41.0912
41.6663
42.2926
42.991
43.779
44.6629
45.6338
46.6669
47.7216
48.7573
49.7601
50.6441
51.3203
51.7132
51.7719
51.4748
50.8189
49.7918
48.3326
46.3043
43.5127
39.8012
35.205
30.0744
25.0399
20.7699
17.6671
15.7609
14.8359
14.6298
14.9815
15.8149
17.0683
18.6114
20.2278
21.6617
22.6537
23.098
23.0187
22.5632
21.8569
20.9985
20.0613
19.096
18.1352
17.1989
16.2986
15.4402
14.6267
13.8593
13.1379
12.4622
11.8315
11.2452
10.7031
10.2055
9.7541
9.35172
9.00295
8.71375
8.49074
8.33994
8.26512
8.26641
8.33986
8.47932
8.68231
8.9603
9.35191
9.95282
10.9892
12.9752
16.8197
23.5211
32.3683
38.8449
39.1284
36.026
33.3923
30.8238
27.1574
22.731
18.5996
15.4209
13.2155
11.7156
10.6732
9.93939
9.43263
9.09836
8.89111
8.77206
8.69062
8.62125
8.55803
8.51199
8.51214
8.60061
8.82226
9.20851
9.76365
10.3994
11.0194
11.519
11.8075
11.8526
11.6895
11.401
11.0842
10.823
10.6725
10.6556
10.7672
10.9817
11.2628
11.5719
11.8752
12.1448
12.3559
12.4819
12.4946
12.3761
12.2113
12.1829
12.6295
14.1283
17.1901
21.4193
25.4267
27.8487
28.1711
26.7559
24.3782
21.7294
19.1568
16.816
14.6097
12.5064
10.5298
8.73638
7.17973
5.93174
5.1151
5.00437
6.08831
8.64648
11.6301
12.5953
10.3994
7.57953
6.17946
5.59479
90.8891
111.275
96.1874
77.6848
66.6089
60.0998
56.8901
55.4291
54.7548
54.2639
53.6061
52.5943
51.13
49.1943
46.9189
44.6005
42.5589
40.9876
39.9452
39.3997
39.2484
39.3496
39.5673
39.8024
39.9998
40.142
40.2407
40.3285
40.4509
40.658
40.9961
41.5017
42.1973
43.088
44.1598
45.3758
46.6755
48.0824
49.5196
50.8643
51.9767
52.7197
52.9896
52.7519
52.0642
51.0641
49.9038
48.6376
47.1134
44.9522
41.6956
37.1112
31.5122
25.7918
20.9564
17.567
15.5888
14.6127
14.3218
14.5751
15.3363
16.5307
17.9665
19.4027
20.5319
21.1771
21.3675
21.1727
20.691
20.0173
19.2288
18.382
17.515
16.6528
15.8108
14.9982
14.2203
13.4801
12.779
12.1176
11.4961
10.9145
10.3727
9.87114
9.41095
8.99484
8.62745
8.31564
8.06817
7.89474
7.80454
7.80482
7.90014
8.09303
8.38699
8.79274
9.34063
10.122
11.3844
13.6902
17.9444
24.81
32.7506
37.1507
35.8242
32.3818
29.8509
27.4716
24.1607
20.2022
16.6466
13.9985
12.1457
10.8528
9.93542
9.28765
8.84461
8.55535
8.37521
8.26439
8.17521
8.08261
7.97978
7.87467
7.79599
7.78995
7.90785
8.19471
8.63882
9.21175
9.83374
10.393
10.7838
10.9503
10.9068
10.7266
10.5082
10.3424
10.2913
10.3809
10.6043
10.9301
11.3147
11.7136
12.0902
12.4188
12.6821
12.8643
12.9468
12.9006
12.7186
12.4783
12.3414
12.5954
13.6389
15.5669
17.7775
19.4118
20.0141
19.6574
18.6778
17.3949
15.9928
14.5414
13.0492
11.5195
9.97756
8.47603
7.08986
5.91591
5.1026
4.93771
5.91529
8.36166
11.2524
12.116
10.1241
7.60782
6.16688
5.47054
94.2473
119.242
103.95
84.3198
70.4491
61.9982
56.7066
53.1363
50.5752
48.67
47.1992
45.9403
44.662
43.2297
41.7108
40.3399
39.3583
38.8783
38.8517
39.1142
39.4631
39.7295
39.8168
39.7006
39.4097
39.0024
38.5493
38.1227
37.7896
37.6084
37.6262
37.8779
38.3858
39.1598
40.1964
41.4753
42.9553
44.7056
46.6231
48.5841
50.4158
51.9025
52.8161
52.9762
52.3315
51.0293
49.4095
47.8666
46.6086
45.446
43.788
40.889
36.3444
30.618
24.8784
20.2555
17.2676
15.5488
14.6687
14.3937
14.6727
15.4783
16.6329
17.8946
18.9995
19.7649
20.1255
20.1089
19.7906
19.2567
18.5834
17.8291
17.0358
16.2318
15.4357
14.6593
13.9099
13.192
12.508
11.8596
11.2474
10.6721
10.1339
9.6334
9.17166
8.75107
8.37599
8.05348
7.7934
7.608
7.5109
7.516
7.63694
7.88696
8.27849
8.82276
9.53762
10.4989
11.9567
14.4805
18.8983
25.5313
32.3705
35.2043
33.0531
29.5982
27.1902
25.0141
22.0956
18.6636
15.566
13.2048
11.5071
10.3233
9.48508
8.89053
8.48367
8.21684
8.0491
7.94387
7.85022
7.74385
7.61899
7.47962
7.35123
7.28329
7.32502
7.51831
7.885
8.40868
9.02428
9.6242
10.0919
10.3506
10.3957
10.292
10.1403
10.0392
10.0576
10.2228
10.5234
10.9194
11.3582
11.7897
12.1767
12.4988
12.7491
12.9272
13.0308
13.0478
12.94
12.7039
12.3997
12.1579
12.198
12.7303
13.6806
14.6636
15.3122
15.4967
15.2755
14.7599
14.0346
13.1433
12.1056
10.9381
9.67244
8.36289
7.08716
5.9504
5.11126
4.85283
5.64709
7.85444
10.6034
11.547
9.90674
7.66864
6.20498
5.40013
94.5467
121.858
106.372
85.5141
70.3735
60.4039
53.6949
49.0711
45.9141
43.8328
42.4773
41.4954
40.6104
39.7311
38.9702
38.5248
38.5121
38.8804
39.4344
39.9321
40.1801
40.0827
39.6396
38.9166
38.0096
37.0197
36.0396
35.1482
34.41
33.8731
33.5694
33.5155
33.7199
34.1923
34.948
36.0076
37.4574
39.2688
41.3971
43.7607
46.2139
48.5326
50.4173
51.5302
51.5865
50.5075
48.57
46.3852
44.5988
43.441
42.5419
41.041
38.0068
33.3055
27.8029
22.724
19.1311
16.8619
15.5159
14.8275
14.7039
15.1156
15.9596
17.0204
18.0406
18.8152
19.2438
19.3217
19.1028
18.6612
18.068
17.3808
16.6426
15.8834
15.1236
14.3767
13.6513
12.9529
12.2849
11.6495
11.0479
10.481
9.94963
9.45443
8.99659
8.57827
8.20349
7.87902
7.61513
7.42571
7.32782
7.34128
7.48858
7.79475
8.28426
8.97276
9.8656
11.0108
12.6352
15.2762
19.6522
25.819
31.6053
33.3716
30.8661
27.5024
25.1801
23.1898
20.6602
17.7071
14.9737
12.8171
11.2341
10.1064
9.29772
8.71958
8.31737
8.0475
7.868
7.74099
7.6298
7.51176
7.37365
7.21781
7.066
6.95862
6.94706
7.08091
7.393
7.88134
8.49391
9.12768
9.65718
9.98704
10.0961
10.0425
9.93141
9.8701
9.93324
10.1475
10.4934
10.9202
11.3655
11.7748
12.1134
12.3688
12.5461
12.6597
12.7242
12.7452
12.7032
12.5448
12.269
11.9196
11.6046
11.4827
11.6568
12.0607
12.5112
12.846
12.9833
12.9011
12.6019
12.0929
11.3825
10.485
9.43058
8.27095
7.08276
5.97369
5.10512
4.74636
5.33093
7.2317
9.78357
10.8829
9.67346
7.72425
6.27404
5.38353
90.144
115.62
102.948
83.301
67.7771
57.0727
49.8235
45.001
41.9474
40.1529
39.1578
38.5794
38.1984
37.9986
38.0921
38.5674
39.369
40.2852
41.0364
41.3899
41.2305
40.5664
39.4933
38.1463
36.663
35.1639
33.7477
32.4908
31.4458
30.638
30.0669
29.7172
29.577
29.6586
30.0135
30.7256
31.9403
33.5783
35.6216
38.0261
40.699
43.4686
46.0627
48.1089
49.1757
48.9088
47.2897
44.8422
42.4858
40.8606
39.9438
39.0529
37.0736
33.5008
28.8961
24.3259
20.6419
18.0728
16.4245
15.4506
15.0459
15.182
15.7739
16.6324
17.5172
18.2237
18.638
18.7374
18.5591
18.1658
17.6214
16.9798
16.2825
15.5591
14.8302
14.1098
13.4073
12.7287
12.0779
11.4574
10.8689
10.3136
9.79242
9.30647
8.85702
8.44616
8.07756
7.75755
7.49627
7.30839
7.21347
7.23611
7.40676
7.76222
8.34151
9.171
10.2493
11.5869
13.3602
16.0412
20.2336
25.8307
30.7186
31.8155
29.2181
25.9558
23.6653
21.8185
19.642
17.1177
14.6984
12.7051
11.1941
10.0915
9.29072
8.70833
8.28657
7.9869
7.77564
7.61573
7.48116
7.3505
7.2038
7.03994
6.87607
6.74835
6.70733
6.80655
7.08697
7.55799
8.17802
8.84697
9.43039
9.81607
9.96862
9.94282
9.8506
9.80881
9.89694
10.1377
10.5007
10.9222
11.3312
11.6719
11.9151
12.0586
12.1199
12.1264
12.1059
12.0786
12.0495
11.9611
11.7785
11.4943
11.1489
10.8396
10.6819
10.7322
10.9497
11.2326
11.4747
11.5941
11.5377
11.2752
10.7935
10.0952
9.20287
8.16309
7.04909
5.9673
5.07662
4.62796
5.00861
6.58189
8.8876
10.1383
9.37963
7.74573
6.35462
5.41382
80.162
105.202
96.8017
79.2633
64.0772
53.2798
46.0367
41.4123
38.6907
37.283
36.7006
36.6045
36.8512
37.4568
38.4705
39.836
41.3333
42.6342
43.4277
43.5273
42.9074
41.6737
40.002
38.0812
36.0776
34.1246
32.3245
30.7486
29.432
28.3697
27.5244
26.8559
26.3521
26.0444
26.0527
26.5235
27.5561
29.0378
30.9115
33.1489
35.7108
38.4928
41.2875
43.7722
45.5153
46.0468
45.0984
42.9269
40.4541
38.5092
37.3062
36.4106
34.9729
32.3429
28.6401
24.6744
21.2749
18.7801
17.0917
16.0179
15.478
15.4538
15.8695
16.5528
17.284
17.8742
18.2144
18.2775
18.092
17.7112
17.1909
16.5793
15.9138
15.2218
14.5225
13.8294
13.1516
12.4952
11.8645
11.2622
10.6903
10.1501
9.64293
9.17002
8.73287
8.33359
7.97562
7.66479
7.41072
7.22815
7.13802
7.16838
7.35606
7.74839
8.40014
9.35504
10.6152
12.155
14.0768
16.7576
20.6922
25.705
29.8745
30.5919
28.0437
24.8612
22.5462
20.7818
18.8966
16.7492
14.6186
12.7763
11.3195
10.2202
9.40116
8.78813
8.32574
7.97935
7.72624
7.54373
7.39434
7.2502
7.09443
6.92465
6.75518
6.61909
6.56546
6.64999
6.91977
7.39282
8.03471
8.74515
9.37914
9.80842
9.98649
9.96872
9.87695
9.83855
9.93589
10.1843
10.5392
10.9238
11.2609
11.4969
11.6118
11.6153
11.5371
11.4151
11.2861
11.1793
11.1102
11.0576
10.964
10.7984
10.559
10.2931
10.0867
10.0174
10.1072
10.3134
10.5541
10.7403
10.7971
10.6713
10.331
9.76597
8.98906
8.04027
6.98802
5.93448
5.03174
4.51004
4.70894
5.96537
7.99205
9.34181
9.00616
7.70991
6.42761
5.47666
68.9025
93.8888
89.9661
75.1222
60.6101
49.9058
42.7726
38.365
35.9292
34.8444
34.6398
35.0379
35.9527
37.4009
39.354
41.6232
43.8513
45.6145
46.5701
46.5592
45.6209
43.9388
41.7594
39.3229
36.8272
34.4216
32.2167
30.2857
28.657
27.3142
26.2093
25.3096
24.6235
24.1325
23.8066
24.1428
25.1501
26.555
28.2422
30.2043
32.4505
34.9333
37.503
39.8943
41.7316
42.5772
42.1267
40.5197
38.3857
36.4515
35.074
34.0401
32.7116
30.504
27.4228
24.0867
21.1852
19.0076
17.4749
16.4491
15.8928
15.8031
16.1076
16.6447
17.2174
17.6622
17.8881
17.8748
17.6485
17.2552
16.7427
16.1515
15.5135
14.8517
14.1831
13.5195
12.8694
12.2387
11.6316
11.0511
10.4993
9.97787
9.48822
9.03181
8.61031
8.22591
7.88191
7.58363
7.33996
7.16508
7.08019
7.11524
7.31138
7.72416
8.42302
9.4737
10.8956
12.6413
14.7261
17.408
21.0743
25.5466
29.1666
29.7071
27.2867
24.1591
21.7668
20.0113
18.3351
16.5041
14.6426
12.9553
11.5556
10.4548
9.60762
8.95673
8.45399
8.06662
7.77357
7.55592
7.37919
7.21432
7.0445
6.86646
6.69284
6.55461
6.49973
6.58546
6.86358
7.35824
8.03831
8.79906
9.48219
9.94383
10.1301
10.102
9.99496
9.94718
10.0412
10.281
10.6057
10.9264
11.163
11.2689
11.2358
11.0864
10.8616
10.6072
10.3656
10.1708
10.0467
9.99114
9.95321
9.8969
9.79755
9.66551
9.55007
9.51337
9.59162
9.77291
10.0028
10.2059
10.3077
10.2475
9.98432
9.49891
8.79704
7.91303
6.91043
5.8854
4.97999
4.40259
4.44762
5.41621
7.15113
8.52944
8.55511
7.60117
6.47272
5.55204
55.203
82.7309
84.139
72.2538
58.429
47.609
40.3244
35.8859
33.5173
32.5745
32.6035
33.3737
34.8465
37.054
39.9381
43.156
46.2552
48.7237
50.1609
50.3889
49.4633
47.609
45.1255
42.3051
39.3873
36.5502
33.9228
31.5913
29.5967
27.939
26.5926
25.5433
24.7949
24.357
24.2446
24.6212
25.3711
26.4254
27.7388
29.3029
31.1201
33.1548
35.2876
37.2961
38.8614
39.6127
39.2854
37.9675
36.1489
34.4169
33.0727
31.9621
30.5902
28.5272
25.8399
23.0632
20.7163
18.9502
17.6595
16.7593
16.2591
16.1654
16.4006
16.8101
17.2216
17.504
17.5926
17.4804
17.195
16.7764
16.2635
15.6884
15.076
14.4446
13.8079
13.1758
12.5558
11.9535
11.373
10.8174
10.2888
9.78924
9.32015
8.88315
8.48004
8.11308
7.78543
7.50199
7.27079
7.10495
7.02491
7.0609
7.25606
7.671
8.38653
9.49089
11.0337
12.9718
15.2394
17.9576
21.3977
25.4109
28.6297
29.1384
26.9013
23.8161
21.3026
19.4777
17.9135
16.3236
14.704
13.1789
11.8527
10.7622
9.89234
9.20591
8.66452
8.23737
7.90311
7.64498
7.43358
7.24146
7.05224
6.86234
6.68376
6.54665
6.49884
6.59936
6.90378
7.43979
8.17523
8.99571
9.72603
10.2075
10.3838
10.3276
10.1916
10.1245
10.2051
10.422
10.6969
10.931
11.046
11.0056
10.8155
10.5117
10.1446
9.76586
9.42037
9.14238
8.95507
8.87627
8.86592
8.89109
8.91942
8.93842
8.96563
9.03713
9.18064
9.39337
9.63812
9.85501
9.9781
9.94906
9.72516
9.28398
8.62808
7.78869
6.82574
5.82912
4.92894
4.31136
4.23016
4.94809
6.39734
7.73717
8.04372
7.41449
6.47143
5.61712
42.6313
72.1623
77.5673
70.6907
58.3883
47.2588
39.3181
34.3492
31.6335
30.5032
30.4955
31.3928
33.1727
35.8694
39.401
43.4437
47.4954
50.974
53.3874
54.4609
54.1729
52.7087
50.3699
47.484
44.3416
41.1715
38.1444
35.3805
32.9558
30.9081
29.2482
27.9779
27.0919
26.581
26.4247
26.6514
27.1487
27.8822
28.8402
30.0278
31.44
33.0275
34.6664
36.1482
37.1936
37.5098
36.9379
35.6264
34.0018
32.4942
31.2657
30.1194
28.6476
26.6105
24.2231
21.9726
20.1702
18.7993
17.744
16.9875
16.5766
16.5095
16.6931
16.9785
17.2234
17.3347
17.2778
17.0608
16.7125
16.2664
15.7517
15.1917
14.6044
14.0031
13.3984
12.7986
12.21
11.6378
11.086
10.5574
10.0545
9.57922
9.13312
8.71789
8.33535
7.98776
7.67816
7.41103
7.19352
7.03735
6.96137
6.99455
7.17973
7.57903
8.27955
9.38821
10.9922
13.0832
15.5467
18.3622
21.6628
25.3249
28.2714
28.8622
26.8676
23.8315
21.1596
19.182
17.6222
16.1845
14.7661
13.4052
12.1735
11.1154
10.2376
9.52309
8.94582
8.48002
8.1048
7.80309
7.55165
7.32684
7.11347
6.90831
6.7237
6.59037
6.55738
6.68615
7.03518
7.63292
8.441
9.32927
10.102
10.5873
10.7333
10.6314
10.4548
10.3607
10.4195
10.6008
10.8087
10.9381
10.9168
10.7219
10.3741
9.92182
9.4238
8.93541
8.50147
8.15426
7.91541
7.80543
7.79909
7.87263
7.99616
8.147
8.32019
8.52577
8.77332
9.05565
9.34244
9.58524
9.72814
9.71882
9.51714
9.10159
8.47488
7.66773
6.73814
5.7704
4.88222
4.23763
4.05449
4.55955
5.74276
6.99304
7.49698
7.15644
6.41288
5.65219
33.7591
68.0366
72.575
68.9563
59.6564
49.1758
40.5784
34.6566
31.0965
29.3264
28.8768
29.4962
31.1307
33.8095
37.4859
41.9144
46.6413
51.0818
54.6707
57.0039
57.9131
57.4599
55.8711
53.454
50.5235
47.356
44.1748
41.1493
38.4012
36.0103
34.0213
32.451
31.2915
30.5158
30.1168
30.0373
30.2244
30.6457
31.2829
32.1218
33.1275
34.2192
35.2544
36.0329
36.326
35.9535
34.917
33.4664
31.9676
30.6684
29.5485
28.3308
26.715
24.7125
22.6892
20.9991
19.6895
18.6286
17.7636
17.1546
16.8533
16.8223
16.9461
17.0901
17.1527
17.0854
16.884
16.5683
16.1646
15.6972
15.185
14.6426
14.0817
13.5116
12.9402
12.3743
11.8193
11.2799
10.7596
10.2613
9.78719
9.33922
8.91901
8.52818
8.16855
7.84231
7.55235
7.30274
7.09976
6.9536
6.8809
6.90809
7.07558
7.44361
8.09997
9.16222
10.7514
12.9144
15.5468
18.5107
21.7911
25.2578
28.0772
28.8454
27.147
24.191
21.359
19.1732
17.5149
16.1189
14.8233
13.5932
12.4564
11.4467
10.5798
9.85259
9.25055
8.7546
8.34596
8.00684
7.71779
7.45967
7.22025
6.99842
6.80862
6.68397
6.67634
6.85023
7.26604
7.94917
8.84853
9.81082
10.6161
11.0835
11.1744
11.0077
10.7796
10.6523
10.6819
10.8149
10.9394
10.9482
10.7789
10.4243
9.92066
9.32834
8.71272
8.13094
7.62584
7.22608
6.95022
6.81925
6.8184
6.92772
7.12133
7.3749
7.67214
8.00428
8.36239
8.72845
9.07145
9.34932
9.51467
9.52206
9.33578
8.93715
8.33095
7.54904
6.64881
5.71019
4.83945
4.17959
3.91691
4.24681
5.19446
6.32452
6.94842
6.84631
6.29794
5.64621
27.7112
70.63
73.6154
69.0551
61.3604
52.1233
43.4512
36.6675
32.0496
29.3187
28.0853
28.0737
29.1766
31.3954
34.7194
39.004
43.9108
48.9326
53.4994
57.1129
59.4505
60.4057
60.0655
58.6498
56.4413
53.7287
50.7714
47.7846
44.9359
42.3465
40.0957
38.2243
36.7407
35.6301
34.8938
34.461
34.2959
34.3651
34.6349
35.0601
35.5677
36.0449
36.3399
36.2807
35.7227
34.6384
33.1908
31.6722
30.3261
29.1979
28.0951
26.7236
24.9936
23.1721
21.6109
20.3914
19.3706
18.4635
17.7316
17.2625
17.06
17.0372
17.0707
17.0593
16.9502
16.7337
16.4241
16.0423
15.6068
15.1318
14.628
14.1043
13.5682
13.0267
12.4861
11.952
11.429
10.9211
10.4316
9.96287
9.5171
9.096
8.70115
8.33413
7.99669
7.69093
7.41958
7.18635
6.99674
6.85951
6.78901
6.80853
6.95464
7.28334
7.87848
8.85921
10.3682
12.5095
15.2362
18.3557
21.7163
25.1359
27.9554
28.9789
27.6404
24.8256
21.8616
19.4403
17.6057
16.1533
14.8978
13.7491
12.6902
11.7328
10.8896
10.1636