/*--------------------------------*- C++ -*----------------------------------*\
  =========                 |
  \\      /  F ield         | OpenFOAM: The Open Source CFD Toolbox
   \\    /   O peration     | Website:  https://openfoam.org
    \\  /    A nd           | Version:  9
     \\/     M anipulation  |
\*---------------------------------------------------------------------------*/
FoamFile
{
    format      ascii;
    class       volScalarField;
    location    "0.23";
    object      p;
}
// * * * * * * * * * * * * * * * * * * * * * * * * * * * * * * * * * * * * * //

dimensions      [0 2 -2 0 0 0 0];

internalField   nonuniform List<scalar> 
12225
(
-0.424639
-1.35574
-1.72922
-1.74176
-1.70526
-1.66354
-1.5773
-1.4278
-1.21472
-0.937968
-0.593574
-0.177337
0.311417
0.866944
1.47498
2.10847
2.73211
3.28682
-1.02765
-1.60043
-1.84024
-1.81882
-1.76029
-1.70206
-1.60684
-1.4536
-1.24012
-0.965849
-0.626687
-0.218223
0.260751
0.805567
1.40387
2.03071
2.65379
3.20229
-1.19043
-1.50584
-1.73854
-1.77422
-1.7423
-1.69578
-1.61252
-1.473
-1.27493
-1.01932
-0.704262
-0.327321
0.110987
0.604966
1.14275
1.70237
2.25622
2.73388
-1.31493
-1.53866
-1.77678
-1.83838
-1.80603
-1.75094
-1.66491
-1.52849
-1.33795
-1.09514
-0.799999
-0.452129
-0.0542515
0.385773
0.854221
1.32939
1.78345
2.17261
-1.43816
-1.60764
-1.81115
-1.87119
-1.83732
-1.77944
-1.69627
-1.56837
-1.39038
-1.16454
-0.892332
-0.575023
-0.216899
0.17287
0.57963
0.982656
1.35572
1.67337
-1.55705
-1.68136
-1.84361
-1.90339
-1.87851
-1.82507
-1.7474
-1.62932
-1.46527
-1.25789
-1.01011
-0.724723
-0.407226
-0.0674605
0.28001
0.616182
0.918283
1.16533
-1.67083
-1.7603
-1.88812
-1.94721
-1.93152
-1.88215
-1.80877
-1.70022
-1.55117
-1.36416
-1.14312
-0.892134
-0.61757
-0.329567
-0.042164
0.227364
0.45942
0.635433
-1.7812
-1.84551
-1.94514
-1.99989
-1.99104
-1.94668
-1.87932
-1.78231
-1.65075
-1.4868
-1.29507
-1.08071
-0.850771
-0.615407
-0.387916
-0.183882
-0.0201443
0.0879371
-1.88998
-1.93636
-2.01302
-2.06141
-2.05841
-2.02121
-1.96226
-1.87856
-1.76621
-1.62718
-1.46656
-1.29031
-1.10593
-0.923374
-0.755012
-0.614758
-0.517111
-0.474981
-1.99868
-2.03236
-2.09103
-2.13296
-2.1353
-2.10676
-2.05806
-1.98904
-1.8973
-1.78483
-1.65691
-1.51998
-1.38173
-1.25169
-1.14121
-1.06261
-1.02851
-1.0501
-2.1086
-2.1334
-2.17866
-2.21514
-2.2225
-2.20363
-2.16693
-2.11416
-2.04448
-1.96006
-1.86611
-1.76926
-1.67712
-1.59869
-1.54423
-1.52458
-1.55071
-1.63236
-2.21151
-2.2309
-2.26753
-2.30043
-2.31241
-2.30319
-2.27901
-2.24256
-2.19426
-2.1365
-2.07436
-2.01433
-1.96385
-1.93126
-1.92582
-1.95707
-2.03459
-2.16674
-2.3159
-2.33167
-2.36243
-2.39326
-2.4102
-2.41114
-2.40047
-2.38125
-2.35489
-2.32406
-2.2936
-2.26977
-2.25959
-2.27073
-2.31141
-2.38992
-2.51452
-2.69222
-2.43864
-2.45195
-2.479
-2.50966
-2.5331
-2.54639
-2.55228
-2.55385
-2.55326
-2.5534
-2.55881
-2.57526
-2.60917
-2.66731
-2.7567
-2.88425
-3.05669
-3.27951
-2.58261
-2.59482
-2.62084
-2.65401
-2.68617
-2.7143
-2.74
-2.76607
-2.795
-2.82979
-2.87453
-2.9343
-3.01461
-3.12115
-3.25957
-3.43523
-3.65322
-3.91731
-2.75043
-2.76304
-2.79102
-2.83
-2.87375
-2.91952
-2.96821
-3.02214
-3.08375
-3.15584
-3.24191
-3.34608
-3.47277
-3.62633
-3.81094
-4.03031
-4.28783
-4.58555
-2.94328
-2.9578
-2.99083
-3.03926
-3.09786
-3.16412
-3.23847
-3.32268
-3.41877
-3.52898
-3.65599
-3.80281
-3.97253
-4.16808
-4.39208
-4.64663
-4.93348
-5.25314
-3.15838
-3.17632
-3.21734
-3.2787
-3.35521
-3.4442
-3.54569
-3.6608
-3.79082
-3.93719
-4.10152
-4.28561
-4.49119
-4.71977
-4.97251
-5.25011
-5.55298
-5.88049
-3.384
-3.40712
-3.45924
-3.53691
-3.63393
-3.74692
-3.87537
-4.01971
-4.18034
-4.35761
-4.55199
-4.76405
-4.9943
-5.24299
-5.51014
-5.79536
-6.09812
-6.41712
-3.54475
-3.57319
-3.6366
-3.72989
-3.84464
-3.97635
-4.12425
-4.28849
-4.46878
-4.66456
-4.87546
-5.10124
-5.34162
-5.59616
-5.86419
-6.14482
-6.43704
-6.73936
-3.63353
-3.66682
-3.74075
-3.84771
-3.97638
-4.12135
-4.28222
-4.45918
-4.65135
-4.85758
-5.07706
-5.30923
-5.55343
-5.80883
-6.07441
-6.34907
-6.6317
-6.92092
-3.67657
-3.71588
-3.80232
-3.92379
-4.06481
-4.22011
-4.3909
-4.5776
-4.77844
-4.99147
-5.21561
-5.45024
-5.69457
-5.94754
-6.20797
-6.47461
-6.74618
-7.0211
-3.68359
-3.73073
-3.83307
-3.97056
-4.12239
-4.28527
-4.46332
-4.65734
-4.86495
-5.08354
-5.31167
-5.54866
-5.79357
-6.04511
-6.30202
-6.56312
-6.82732
-7.09347
-3.6613
-3.72024
-3.84318
-3.99744
-4.15855
-4.32805
-4.51265
-4.71158
-4.92216
-5.14239
-5.37109
-5.60758
-5.85066
-6.0987
-6.35045
-6.60493
-6.86097
-7.11682
-3.61482
-3.69236
-3.84295
-4.01096
-4.17557
-4.35114
-4.54572
-4.75438
-4.97081
-5.19422
-5.42561
-5.66406
-5.90792
-6.15493
-6.40374
-6.65348
-6.9039
-7.15388
-3.54704
-3.65176
-3.84329
-4.02406
-4.18283
-4.35456
-4.55001
-4.75994
-4.97725
-5.20167
-5.43375
-5.67208
-5.91455
-6.16041
-6.40844
-6.65711
-6.90426
-7.14879
-3.46248
-3.59686
-3.83634
-4.04188
-4.21153
-4.39184
-4.59285
-4.80462
-5.0222
-5.24642
-5.47773
-5.71469
-5.95542
-6.19866
-6.44304
-6.68711
-6.92961
-7.17054
-3.37236
-3.54953
-3.78601
-3.97237
-4.14506
-4.34069
-4.55418
-4.77387
-4.99767
-5.22739
-5.4632
-5.70353
-5.94663
-6.1911
-6.43559
-6.6788
-6.91975
-7.15939
-3.26735
-3.67169
-3.93604
-4.0659
-4.20732
-4.39354
-4.60056
-4.81347
-5.03196
-5.25797
-5.49085
-5.7285
-5.96897
-6.21059
-6.4518
-6.69094
-6.92686
-7.15874
-2.68024
-3.41268
-3.82387
-3.99119
-4.15401
-4.35941
-4.57947
-4.80047
-5.02463
-5.25496
-5.49102
-5.73084
-5.9726
-6.21476
-6.45573
-6.69374
-6.92723
-7.15328
-21.797
-21.6102
-20.6736
-20.2188
-20.9595
-22.7215
-24.5849
-25.7789
-26.1096
-25.7945
-25.1402
-24.4398
-23.9101
-23.6428
-23.5715
-23.5787
-23.535
-23.2836
-23.0765
-23.2571
-23.4842
-23.4983
-23.2613
-22.905
-22.7067
-22.9267
-23.7379
-25.2005
-27.2695
-29.818
-32.6714
-35.6397
-38.5418
-41.2223
-43.5596
-45.4691
-46.9059
-47.8556
-48.3024
-48.2151
-47.5697
-46.4016
-44.7971
-42.826
-40.547
-38.0116
-35.2647
-32.3453
-29.2862
-26.1149
-22.8535
-19.5208
-16.1336
-12.7088
-9.26617
-5.83013
-2.43109
0.894451
4.10537
7.15879
10.014
12.6362
14.9999
17.0903
18.9035
20.4462
21.7342
22.7895
23.6365
24.3015
24.8109
25.1903
25.4558
25.6277
25.7243
25.761
25.7514
25.7069
25.6374
25.5511
25.4555
25.3568
25.2608
25.1722
25.0975
25.053
25.019
24.9413
24.8099
24.6388
24.4422
24.2561
24.1134
24.014
23.9571
23.9411
23.9591
24.0128
24.1227
24.3234
24.6386
25.0581
25.4932
25.7938
25.8906
25.8153
25.3868
24.158
21.7704
17.915
12.333
5.19882
-2.66622
-10.3946
-17.3571
-23.1747
-27.6515
-30.6981
-32.2833
-32.4142
-31.0648
-28.3693
-24.4581
-19.4784
-13.6075
-7.05923
-0.0905554
6.99872
13.8796
20.2265
25.7642
30.3218
33.8178
36.2198
37.5607
37.9867
37.6708
36.7891
35.5014
33.9423
32.2235
30.4462
28.7095
27.1961
26.1272
25.1806
24.0522
22.2872
19.5632
16.2147
13.5099
12.5639
12.67
11.8306
8.29971
1.38436
-8.50986
-17.9128
-23.5249
-23.8225
-19.9717
-13.3287
-5.96822
0.762452
6.22935
10.4641
13.5817
15.826
17.4747
18.7286
19.7833
20.7525
21.5496
21.919
21.8113
21.3913
20.2944
17.531
13.0127
7.78961
-22.4789
-22.7895
-23.5453
-25.1084
-27.2673
-29.4849
-31.2365
-32.2026
-32.2191
-31.2127
-29.378
-27.197
-25.2501
-23.9292
-23.258
-22.9801
-22.9445
-23.0388
-23.1065
-23.2362
-23.544
-23.9593
-24.0536
-23.8471
-23.868
-24.4951
-25.8895
-28.0392
-30.7987
-33.9461
-37.2373
-40.4475
-43.3936
-45.9397
-47.9943
-49.5034
-50.4406
-50.804
-50.6279
-49.9781
-48.9288
-47.5168
-45.7498
-43.66
-41.2897
-38.6831
-35.8817
-32.9229
-29.8384
-26.6539
-23.3894
-20.0608
-16.6813
-13.2641
-9.82504
-6.38532
-2.97329
0.375138
3.61782
6.70957
9.60657
12.271
14.6746
16.8012
18.6464
20.2171
21.5294
22.6053
23.4698
24.15
24.6719
25.0608
25.3347
25.5146
25.6186
25.6622
25.6588
25.6199
25.5552
25.473
25.3805
25.284
25.1896
25.1027
25.026
24.9496
24.8744
24.8066
24.719
24.5878
24.4204
24.2374
24.0771
23.9783
23.9446
23.958
23.9977
24.0524
24.1365
24.2941
24.5809
24.9988
25.4411
25.7303
25.7775
25.6837
25.3487
24.2689
21.6479
17.0571
10.5332
2.70128
-5.45097
-13.1352
-19.8632
-25.366
-29.5011
-32.2056
-33.4781
-33.3559
-31.9159
-29.1867
-25.2615
-20.2755
-14.3999
-7.84476
-0.862394
6.25177
13.171
19.5681
25.1635
29.781
33.3241
35.7551
37.1272
37.5835
37.2977
36.446
35.1881
33.6575
31.962
30.1939
28.453
26.7902
25.1895
23.8844
22.7561
21.3143
18.9499
15.8062
13.3559
12.9066
13.4035
12.4575
8.62278
1.17158
-9.88401
-19.904
-25.4158
-25.2969
-20.8007
-13.7338
-6.0964
0.802157
6.30786
10.5732
13.6735
15.8925
17.5027
18.7206
19.7433
20.7024
21.5228
21.9076
21.776
21.3849
20.3709
17.4175
12.6007
6.93979
-24.0468
-25.2016
-28.1751
-31.3002
-33.7557
-35.5922
-36.8676
-37.5312
-37.4891
-36.5085
-34.4435
-31.4763
-28.1215
-25.1262
-23.0785
-21.9574
-21.3735
-21.4536
-22.2906
-23.0881
-23.9674
-25.1256
-26.474
-27.9866
-29.7397
-31.7782
-34.0808
-36.5721
-39.1531
-41.7242
-44.1979
-46.5006
-48.5685
-50.344
-51.7748
-52.8135
-53.4181
-53.5552
-53.2094
-52.3942
-51.1461
-49.5114
-47.533
-45.2548
-42.7227
-39.9816
-37.0738
-34.0363
-30.8999
-27.6882
-24.4174
-21.098
-17.736
-14.3366
-10.9075
-7.46259
-4.02553
-0.630699
2.67773
5.84949
8.83389
11.586
14.0719
16.2715
18.1793
19.8025
21.1579
22.2689
23.1625
23.8676
24.4123
24.8191
25.1096
25.3047
25.4225
25.4787
25.4867
25.4579
25.4022
25.3279
25.2421
25.1511
25.0601
24.9736
24.8956
24.8278
24.769
24.7088
24.6271
24.5151
24.3832
24.2506
24.1347
24.0543
24.0179
24.0189
24.0498
24.1092
24.2174
24.4103
24.7125
25.1089
25.4961
25.7235
25.7804
25.5933
24.8723
22.842
18.5675
12.3209
5.03663
-2.54996
-9.91363
-16.712
-22.6994
-27.6774
-31.4834
-33.9969
-35.1588
-34.9738
-33.4725
-30.7052
-26.7604
-21.7651
-15.8826
-9.3153
-2.3082
4.84984
11.8354
18.3182
24.0095
28.7223
32.3492
34.846
36.2783
36.7902
36.5581
35.7604
34.5561
33.0757
31.4225
29.6771
27.9084
26.1871
24.5781
23.0912
21.5196
19.6817
17.4318
14.9936
13.2669
12.9169
13.2086
12.2889
8.12821
-0.473538
-12.2276
-22.3936
-27.48
-26.8937
-21.8082
-14.2247
-6.21785
0.876005
6.50223
10.7605
13.8331
16.015
17.5825
18.7567
19.7328
20.6623
21.4939
21.9032
21.7735
21.3494
20.1309
16.607
11.2597
5.36021
-27.5017
-29.6451
-32.4885
-34.7883
-36.5169
-37.8197
-38.7425
-39.2338
-39.1041
-38.1664
-36.2935
-33.5407
-30.2865
-27.0772
-24.5216
-23.159
-22.864
-23.1409
-24.1479
-25.6818
-27.6128
-29.8304
-32.213
-34.6507
-37.0765
-39.4636
-41.8059
-44.1048
-46.356
-48.5407
-50.622
-52.5463
-54.2497
-55.6657
-56.7324
-57.3978
-57.6259
-57.4015
-56.7126
-55.5835
-54.0429
-52.1292
-49.8881
-47.3698
-44.6259
-41.7063
-38.6566
-35.5161
-32.316
-29.078
-25.8142
-22.5275
-19.2137
-15.865
-12.4755
-9.04629
-5.59161
-2.14179
1.25668
4.54553
7.66244
10.5502
13.1646
15.479
17.4849
19.1891
20.6102
21.7747
22.7132
23.4557
24.0338
24.4683
24.7838
25.0015
25.1398
25.2146
25.2393
25.2256
25.1832
25.1205
25.0446
24.9618
24.8772
24.7952
24.7181
24.646
24.577
24.5071
24.4299
24.3416
24.2456
24.1489
24.0601
23.989
23.9428
23.9351
23.9827
24.101
24.3005
24.5793
24.9359
25.3454
25.7085
25.913
25.8348
25.0347
22.9567
18.8207
12.931
6.21185
-0.715436
-7.57418
-14.1872
-20.3627
-25.8766
-30.5046
-34.0544
-36.384
-37.421
-37.1571
-35.5976
-32.7937
-28.8316
-23.8314
-17.9478
-11.3722
-4.33872
2.87308
9.9433
16.5369
22.3576
27.1983
30.9387
33.5336
35.054
35.647
35.494
34.7756
33.65
32.2436
30.6519
28.9481
27.1954
25.4423
23.7101
22.0004
20.2469
18.3192
16.1179
13.856
12.1266
11.3995
11.2914
10.1476
5.73033
-3.07014
-14.5548
-24.2914
-28.9092
-27.8636
-22.2836
-14.3186
-6.08258
1.10656
6.76607
10.9879
14.0182
16.1636
17.7046
18.8617
19.8176
20.7264
21.5642
22.0063
21.8768
21.2612
19.4204
15.2255
9.53992
3.62804
-30.0943
-31.9304
-33.5649
-34.9709
-36.1748
-37.1703
-37.9015
-38.3236
-38.3507
-37.7099
-36.327
-34.2836
-31.8646
-29.5781
-28.0114
-27.3797
-27.4895
-28.2571
-29.7013
-31.6673
-33.9532
-36.3891
-38.8553
-41.2873
-43.6653
-45.9926
-48.2785
-50.5245
-52.7163
-54.8206
-56.7881
-58.5584
-60.0662
-61.247
-62.0422
-62.4043
-62.3021
-61.7258
-60.6976
-59.228
-57.3477
-55.1007
-52.5406
-49.726
-46.7175
-43.573
-40.345
-37.0778
-33.8052
-30.5488
-27.3166
-24.1034
-20.8919
-17.6569
-14.3718
-11.0171
-7.58966
-4.10983
-0.623988
2.79976
6.0823
9.14745
11.9344
14.405
16.545
18.3605
19.8722
21.1107
22.1123
22.9097
23.5311
24.0039
24.3535
24.6018
24.7678
24.8677
24.9151
24.9217
24.8973
24.8505
24.7882
24.7165
24.6405
24.5641
24.4901
24.42
24.3537
24.2891
24.2221
24.1495
24.0719
23.994
23.9234
23.8693
23.8406
23.8477
23.9055
24.0439
24.2846
24.6259
25.0474
25.4984
25.8675
25.9847
25.5064
23.5023
19.5956
13.9189
7.50424
0.929729
-5.61886
-12.078
-18.3255
-24.1651
-29.3704
-33.7249
-37.0455
-39.1947
-40.1004
-39.7489
-38.1308
-35.2934
-31.3195
-26.3239
-20.4515
-13.8814
-6.8324
0.428225
7.58613
14.302
20.2701
25.2642
29.1421
31.8606
33.4925
34.1897
34.1385
33.5221
32.4972
31.1849
29.6734
28.026
26.2905
24.5032
22.6889
20.8543
18.9563
16.9209
14.7113
12.4389
10.4596
9.14357
8.27831
6.58787
2.23331
-5.74047
-15.9723
-24.6956
-28.6753
-27.195
-21.4664
-13.5384
-5.43474
1.59608
7.12681
11.2425
14.2044
16.3136
17.8431
19.007
19.9726
20.8825
21.7273
22.1996
22.0413
21.0722
18.4795
13.6881
7.79287
1.83174
-29.7976
-30.8635
-31.8518
-32.8567
-33.8096
-34.6517
-35.3177
-35.7578
-35.9012
-35.6671
-35.027
-34.05
-32.9705
-32.1112
-31.6997
-31.8386
-32.599
-33.9465
-35.746
-37.8446
-40.1148
-42.4677
-44.8495
-47.2385
-49.6307
-52.0243
-54.4097
-56.7637
-59.0487
-61.2143
-63.2004
-64.9413
-66.3695
-67.4199
-68.0343
-68.1656
-67.7852
-66.8917
-65.4955
-63.6206
-61.3124
-58.6299
-55.6413
-52.4193
-49.037
-45.5639
-42.0626
-38.5863
-35.1761
-31.8585
-28.6418
-25.5151
-22.4476
-19.393
-16.2972
-13.1095
-9.79747
-6.35973
-2.83416
0.704033
4.15585
7.41894
10.408
13.0667
15.3708
17.324
18.9497
20.2845
21.3669
22.2308
22.9082
23.4299
23.8228
24.1098
24.3105
24.4416
24.5171
24.5489
24.547
24.5199
24.4747
24.4175
24.3531
24.2857
24.2181
24.1521
24.0884
24.0266
23.9654
23.9038
23.8425
23.7836
23.7309
23.6901
23.6702
23.6853
23.757
23.9141
24.1823
24.5632
25.0268
25.5009
25.8393
25.7435
24.5082
21.1723
15.8141
9.43974
2.88229
-3.61852
-10.0391
-16.34
-22.3906
-28.0025
-32.9729
-37.1086
-40.2405
-42.2354
-43.0223
-42.5879
-40.9132
-38.0445
-34.0633
-29.0804
-23.2325
-16.6845
-9.63831
-2.34517
4.88885
11.7249
17.8437
23.0019
27.0331
29.8918
31.6524
32.4714
32.5402
32.0438
31.1367
29.9338
28.5145
26.9316
25.2232
23.4179
21.5356
19.5826
17.5396
15.377
13.0953
10.786
8.66175
6.90554
5.33959
3.1499
-0.914137
-7.62437
-16.0302
-23.1925
-26.3297
-24.652
-19.1718
-11.7614
-4.20538
2.38222
7.60935
11.5327
14.3869
16.4464
17.9648
19.1429
20.1321
21.0547
21.9013
22.3877
22.1566
20.7637
17.4696
12.2107
6.05593
-0.0214625
-26.6602
-27.2487
-28.0778
-28.9876
-29.8899
-30.7376
-31.5071
-32.1614
-32.6629
-32.9746
-33.0978
-33.1078
-33.1543
-33.4125
-34.0278
-35.0845
-36.5749
-38.4066
-40.4804
-42.7185
-45.0699
-47.5083
-50.023
-52.6085
-55.2566
-57.9503
-60.6595
-63.3405
-65.9363
-68.3786
-70.5906
-72.4915
-74.0008
-75.0433
-75.5539
-75.4861
-74.8194
-73.5532
-71.7042
-69.3181
-66.4587
-63.2039
-59.6406
-55.8597
-51.9506
-47.9971
-44.0742
-40.2459
-36.5634
-33.0627
-29.7602
-26.6476
-23.6889
-20.821
-17.9608
-15.0195
-11.9218
-8.62824
-5.15181
-1.56364
2.02048
5.46802
8.66157
11.5197
14.0032
16.1113
17.8702
19.318
20.4931
21.4338
22.1775
22.7571
23.201
23.5336
23.7752
23.943
24.0515
24.1128
24.1373
24.1334
24.1086
24.0688
24.0189
23.9632
23.9048
23.8459
23.7882
23.7325
23.679
23.6278
23.5791
23.5341
23.4947
23.4655
23.4553
23.4801
23.564
23.7344
24.0139
24.4027
24.8684
25.3227
25.5543
25.0582
22.9268
18.4495
12.1985
5.46402
-1.20096
-7.72441
-14.1252
-20.3524
-26.2761
-31.7271
-36.5265
-40.4995
-43.4865
-45.3579
-46.0448
-45.5368
-43.8086
-40.9087
-36.9207
-31.9542
-26.1394
-19.6285
-12.6049
-5.30248
1.98634
8.92537
15.1888
20.507
24.6949
27.7004
29.5981
30.5492
30.7493
30.3843
29.6055
28.5204
27.199
25.6841
24.0038
22.1796
20.229
18.164
15.9869
13.6971
11.3185
8.93372
6.68348
4.65057
2.67605
0.242485
-3.40988
-8.7481
-15.1136
-20.4449
-22.6167
-20.8832
-15.9674
-9.39142
-2.63333
3.34363
8.16353
11.8397
14.5589
16.5536
18.0485
19.2264
20.2269
21.1538
21.9865
22.4477
22.1044
20.3169
16.4528
10.7731
4.37584
-1.8249
-21.297
-21.8493
-22.6858
-23.6908
-24.7651
-25.817
-26.8531
-27.8441
-28.7756
-29.6475
-30.4941
-31.3922
-32.4445
-33.7425
-35.3282
-37.1839
-39.2569
-41.4976
-43.8761
-46.3796
-49.0089
-51.7718
-54.6744
-57.7134
-60.8714
-64.1144
-67.391
-70.633
-73.7572
-76.6687
-79.2671
-81.4512
-83.1256
-84.2052
-84.6191
-84.3239
-83.3199
-81.6188
-79.2515
-76.2802
-72.7891
-68.8774
-64.6525
-60.2227
-55.6906
-51.15
-46.6843
-42.3673
-38.2631
-34.4242
-30.8839
-27.6473
-24.6833
-21.9222
-19.2608
-16.5757
-13.7438
-10.675
-7.33983
-3.78843
-0.141631
3.44292
6.812
9.85443
12.5132
14.7811
16.6802
18.2444
19.5171
20.5417
21.3581
22.0017
22.5023
22.8855
23.1725
23.3812
23.5264
23.6208
23.6748
23.6972
23.6955
23.6759
23.6434
23.6021
23.5556
23.5066
23.4571
23.4088
23.3631
23.3207
23.2825
23.2489
23.221
23.2019
23.2
23.2319
23.3229
23.498
23.7745
24.1483
24.5816
24.9631
24.9872
23.9649
20.9717
15.683
8.90025
1.94414
-4.81597
-11.3971
-17.8219
-24.0245
-29.879
-35.2316
-39.92
-43.7817
-46.6652
-48.444
-49.0518
-48.4818
-46.7034
-43.7705
-39.772
-34.8192
-29.0392
-22.5743
-15.5913
-8.30455
-0.987707
6.02843
12.4184
17.8812
22.216
25.3631
27.3967
28.4814
28.816
28.5863
27.9385
26.9722
25.747
24.2954
22.6367
20.7865
18.762
16.5819
14.2649
11.835
9.33592
6.84565
4.4681
2.25333
0.077147
-2.39891
-5.60284
-9.71835
-14.2349
-17.7956
-18.9421
-17.09
-12.7331
-7.00296
-1.05846
4.29612
8.70339
12.1305
14.7078
16.6238
18.0732
19.2255
20.2114
21.1145
21.9013
22.3007
21.8214
19.7154
15.4262
9.41625
2.82433
-3.4659
-14.7318
-15.2761
-16.1575
-17.2693
-18.505
-19.8557
-21.2468
-22.6804
-24.1712
-25.747
-27.4443
-29.2983
-31.3269
-33.5214
-35.8535
-38.2946
-40.8315
-43.4705
-46.2319
-49.1444
-52.2377
-55.534
-59.0415
-62.7493
-66.6246
-70.6117
-74.633
-78.591
-82.3725
-85.8553
-88.9168
-91.4407
-93.3204
-94.4644
-94.796
-94.2677
-92.9164
-90.7373
-87.7838
-84.1447
-79.9345
-75.2843
-70.3307
-65.2055
-60.0257
-54.8887
-49.8717
-45.039
-40.4516
-36.1729
-32.2617
-28.7538
-25.641
-22.8601
-20.2961
-17.7997
-15.2076
-12.3794
-9.2355
-5.79165
-2.15767
1.49601
4.98707
8.17683
10.9901
13.4027
15.4287
17.104
18.4733
19.5823
20.4732
21.1829
21.7427
22.1792
22.5143
22.7664
22.9511
23.081
23.1671
23.2183
23.2422
23.245
23.2322
23.2079
23.1759
23.1391
23.1001
23.0611
23.0242
22.9907
22.9617
22.9378
22.9193
22.9086
22.9134
22.9499
23.0426
23.2133
23.4738
23.8133
24.1838
24.4406
24.1845
22.6255
18.9345
13.0683
6.00843
-1.08306
-7.93246
-14.5935
-21.0725
-27.2897
-33.1244
-38.4304
-43.057
-46.8509
-49.6673
-51.3837
-51.9344
-51.3154
-49.4906
-46.5234
-42.5099
-37.5659
-31.818
-25.4034
-18.4762
-11.2294
-3.91394
3.15839
9.64325
15.2235
19.6838
22.9562
25.1141
26.3248
26.7887
26.6897
26.1679
25.3135
24.175
22.7748
21.1236
19.2324
17.1186
14.8088
12.3376
9.75064
7.11069
4.49933
2.00576
-0.325841
-2.57701
-4.96325
-7.70879
-10.8299
-13.8953
-15.9911
-16.1774
-14.0855
-10.0824
-4.99907
0.279904
5.10554
9.1532
12.3573
14.8014
16.6356
18.0269
19.1304
20.0691
20.9135
21.6204
21.9257
21.31
18.982
14.4273
8.20785
1.47921
-4.88469
-8.17734
-8.68518
-9.56091
-10.7185
-12.1051
-13.6947
-15.4802
-17.4663
-19.6561
-22.0425
-24.6005
-27.2883
-30.057
-32.8666
-35.7007
-38.5698
-41.5067
-44.5575
-47.7745
-51.2089
-54.9016
-58.8765
-63.1347
-67.6513
-72.3736
-77.2218
-82.0913
-86.8566
-91.3771
-95.5053
-99.0977
-102.024
-104.166
-105.419
-105.706
-104.995
-103.28
-100.591
-97.0022
-92.6281
-87.6161
-82.1358
-76.3645
-70.4707
-64.5996
-58.8606
-53.3236
-48.0276
-43.003
-38.2968
-33.9783
-30.1178
-26.7473
-23.8272
-21.2415
-18.8267
-16.3898
-13.7533
-10.7939
-7.48685
-3.91903
-0.261728
3.29245
6.58262
9.51003
12.0363
14.1685
15.9403
17.3967
18.5841
19.5458
20.3197
20.9381
21.4281
21.8121
22.1091
22.3347
22.502
22.622
22.7038
22.7552
22.7826
22.7915
22.7864
22.771
22.7486
22.7221
22.694
22.6667
22.6423
22.622
22.6066
22.5963
22.5929
22.6029
22.6414
22.7307
22.8889
23.1224
23.4122
23.6965
23.7935
23.2391
21.2221
17.0318
10.8119
3.60079
-3.59217
-10.5465
-17.3017
-23.8475
-30.0983
-35.9448
-41.2401
-45.8412
-49.6011
-52.3809
-54.062
-54.574
-53.9154
-52.0525
-49.0558
-45.0288
-40.0934
-34.3804
-28.0252
-21.1629
-13.968
-6.67197
0.422126
6.96492
12.6271
17.1812
20.5525
22.8136
24.1336
24.7133
24.7327
24.3242
23.5673
22.499
21.131
19.466
17.5111
15.2855
12.8242
10.1781
7.41367
4.61365
1.87231
-0.722614
-3.11841
-5.3527
-7.55031
-9.82024
-12.1032
-14.0418
-15.0017
-14.3847
-12.0008
-8.16374
-3.50764
1.28911
5.70924
9.46948
12.4898
14.8208
16.5798
17.9084
18.9466
19.8114
20.5663
21.1643
21.3544
20.6197
18.171
13.5055
7.19797
0.408323
-5.98857
-2.8708
-3.30267
-4.0923
-5.22443
-6.7114
-8.55982
-10.768
-13.3132
-16.1463
-19.191
-22.3569
-25.5609
-28.7479
-31.9021
-35.0451
-38.2254
-41.5076
-44.9632
-48.6618
-52.6632
-57.0093
-61.718
-66.7787
-72.1498
-77.7585
-83.5016
-89.249
-94.8474
-100.128
-104.915
-109.041
-112.363
-114.762
-116.131
-116.387
-115.512
-113.507
-110.381
-106.219
-101.152
-95.3569
-89.0405
-82.4246
-75.7239
-69.1248
-62.7659
-56.7241
-51.0168
-45.6325
-40.5778
-35.9066
-31.7069
-28.0461
-24.9167
-22.2159
-19.793
-17.4123
-14.8915
-12.0715
-8.88821
-5.40133
-1.77247
1.80002
5.14106
8.13641
10.7375
12.9454
14.7909
16.3176
17.5715
18.596
19.4289
20.1027
20.6444
21.0769
21.4189
21.6861
21.8918
22.047
22.1609
22.2413
22.2949
22.3272
22.343
22.346
22.3399
22.3276
22.3119
22.2954
22.2805
22.2689
22.2615
22.2586
22.2616
22.2755
22.3136
22.3951
22.5344
22.7326
22.9623
23.1463
23.0728
22.2486
19.8942
15.4007
8.99986
1.71019
-5.57156
-12.6322
-19.4876
-26.1115
-32.4168
-38.2882
-43.5923
-48.1885
-51.9343
-54.6937
-56.3556
-56.8338
-56.1463
-54.27
-51.2657
-47.2407
-42.3235
-36.6486
-30.348
-23.5528
-16.4214
-9.1684
-2.08657
4.47404
10.1763
14.7843
18.2192
20.554
21.959
22.6335
22.7521
22.4374
21.757
20.7357
19.3743
17.6679
15.6205
13.2543
10.614
7.76728
4.80215
1.82335
-1.05635
-3.73893
-6.15547
-8.30451
-10.2444
-12.0183
-13.5459
-14.5512
-14.6016
-13.3243
-10.6497
-6.86371
-2.47268
1.99117
6.11327
9.65241
12.5263
14.7635
16.456
17.723
18.6895
19.4656
20.1115
20.5823
20.6483
19.82
17.3397
12.697
6.41713
-0.347402
-6.71864
0.582622
0.239834
-0.446209
-1.55057
-3.12227
-5.18253
-7.71107
-10.6411
-13.8652
-17.2556
-20.6946
-24.1018
-27.4473
-30.7491
-34.06
-37.4542
-41.0156
-44.8291
-48.9715
-53.5036
-58.4633
-63.8594
-69.6686
-75.833
-82.2601
-88.8244
-95.3698
-101.713
-107.654
-112.991
-117.54
-121.157
-123.74
-125.198
-125.455
-124.5
-122.305
-118.869
-114.275
-108.665
-102.233
-95.2167
-87.8754
-80.4634
-73.2073
-66.2808
-59.7805
-53.7202
-48.0555
-42.7505
-37.826
-33.364
-29.4479
-26.1009
-23.2543
-20.7466
-18.3605
-15.8795
-13.1267
-10.018
-6.59443
-3.00649
0.548725
3.89358
6.90932
9.54265
11.791
13.6823
15.2583
16.5634
17.6397
18.5243
19.2486
19.8393
20.3185
20.7048
21.0137
21.2582
21.4493
21.5963
21.7069
21.7879
21.845
21.883
21.906
21.9175
21.9208
21.9188
21.9141
21.9094
21.9065
21.9069
21.911
21.9196
21.9366
21.9723
22.0429
22.1594
22.3175
22.4819
22.5622
22.329
21.2916
18.7254
14.0952
7.64628
0.335431
-7.01494
-14.1674
-21.1091
-27.8033
-34.1642
-40.0769
-45.4103
-50.0251
-53.7791
-56.5348
-58.1783
-58.6475
-57.9503
-56.0629
-53.0606
-49.0486
-44.1581
-38.5267
-32.2867
-25.5659
-18.511
-11.3238
-4.28782
2.24856
7.94456
12.5605
16.0172
18.3894
19.8486
20.591
20.7837
20.5376
19.9072
18.9042
17.5185
15.738
13.5647
11.0248
8.174
5.09782
1.90736
-1.26857
-4.29503
-7.05369
-9.45701
-11.4695
-13.1053
-14.3704
-15.1914
-15.3757
-14.6486
-12.7992
-9.83916
-6.03332
-1.79766
2.44069
6.34622
9.71625
12.4734
14.6331
16.2682
17.4794
18.3768
19.0619
19.5929
19.9315
19.8753
18.9794
16.5371
12.027
5.88507
-0.770318
-7.05291
2.1978
1.96885
1.37867
0.326053
-1.26333
-3.41035
-6.07146
-9.14267
-12.4805
-15.9375
-19.3983
-22.8025
-26.1463
-29.472
-32.8514
-36.3728
-40.13
-44.2134
-48.7018
-53.6538
-59.1015
-65.0453
-71.4497
-78.2423
-85.3131
-92.5155
-99.6682
-106.56
-112.965
-118.661
-123.461
-127.226
-129.873
-131.351
-131.596
-130.596
-128.304
-124.712
-119.891
-113.977
-107.172
-99.73
-91.9326
-84.0612
-76.3678
-69.0501
-62.2247
-55.9259
-50.0754
-44.6207
-39.545
-34.9111
-30.8142
-27.3013
-24.3206
-21.7165
-19.2709
-16.7593
-14.001
-10.9086
-7.51816
-3.97167
-0.45828
2.85152
5.84401
8.46808
10.7211
12.6295
14.2326
15.5727
16.6893
17.6174
18.3868
19.0229
19.5467
19.976
20.3259
20.6091
20.8363
21.0167
21.1581
21.2674
21.3501
21.4113
21.4552
21.4856
21.5056
21.5181
21.5261
21.5322
21.5385
21.5466
21.5572
21.5708
21.59
21.6224
21.6804
21.7721
21.8885
21.9881
21.971
21.6041
20.4214
17.76
13.1322
6.74965
-0.521693
-7.90832
-15.1304
-22.1389
-28.8887
-35.2944
-41.2419
-46.601
-51.2333
-54.9977
-57.76
-59.4091
-59.8861
-59.1944
-57.3166
-54.3375
-50.3587
-45.5122
-39.9385
-33.7707
-27.1351
-20.1718
-13.0738
-6.11769
0.351022
5.99167
10.5659
13.9982
16.3675
17.846
18.6253
18.8626
18.6557
18.0443
17.0267
15.5819
13.6912
11.3555
8.60632
5.5117
2.17613
-1.26478
-4.65568
-7.83654
-10.6632
-13.0294
-14.8675
-16.1669
-16.9176
-17.0678
-16.5035
-15.0772
-12.7019
-9.44999
-5.56951
-1.40902
2.68355
6.43508
9.67727
12.3418
14.4376
16.0242
17.1879
18.0247
18.6267
19.0493
19.2631
19.096
18.1574
15.8049
11.5147
5.61175
-0.852948
-6.99117
2.7942
2.59856
2.06603
1.07265
-0.472756
-2.59026
-5.22396
-8.25278
-11.522
-14.8852
-18.2397
-21.5427
-24.807
-28.0872
-31.4642
-35.0318
-38.8872
-43.122
-47.8141
-53.0192
-58.7648
-65.0439
-71.8119
-78.9852
-86.4404
-94.0152
-101.51
-108.696
-115.331
-121.182
-126.062
-129.84
-132.448
-133.915
-134.156
-133.19
-130.94
-127.378
-122.558
-116.605
-109.722
-102.165
-94.2263
-86.2001
-78.3494
-70.8833
-63.931
-57.5231
-51.6003
-46.0824
-40.9379
-36.2219
-32.0339
-28.4293
-25.3575
-22.6618
-20.1264
-17.5324
-14.71
-11.5843
-8.19818
-4.69056
-1.23848
2.0031
4.93406
7.51193
9.7376
11.6372
13.2478
14.608
15.7542
16.7182
17.5273
18.2048
18.7704
19.2409
19.6306
19.9516
20.2144
20.4281
20.6005
20.7382
20.8471
20.9321
20.9976
21.0473
21.0847
21.1126
21.1339
21.1512
21.1669
21.1826
21.1994
21.2175
21.2383
21.2669
21.3119
21.3788
21.4549
21.4946
21.3941
20.928
19.6684
17.016
12.5103
6.29849
-0.864245
-8.24276
-15.5056
-22.5587
-29.3436
-35.7746
-41.739
-47.1083
-51.7465
-55.5169
-58.292
-59.9626
-60.4639
-59.7965
-57.9512
-55.0178
-51.0955
-46.3156
-40.8193
-34.7409
-28.2061
-21.3526
-14.3693
-7.52866
-1.17284
4.36146
8.84247
12.2029
14.5277
15.9892
16.7726
17.0229
16.8229
16.1967
15.1287
13.5874
11.5487
9.0131
6.0187
2.64694
-0.977429
-4.69298
-8.3159
-11.6585
-14.5475
-16.8607
-18.4999
-19.4426
-19.6785
-19.1863
-17.9246
-15.8502
-12.9731
-9.41471
-5.4116
-1.26125
2.74991
6.39919
9.54887
12.1422
14.1867
15.7338
16.8591
17.6473
18.1803
18.5102
18.6162
18.3568
17.3998
15.1755
11.1715
5.59537
-0.598591
-6.53879
2.97583
2.80932
2.33204
1.41015
-0.0505527
-2.06814
-4.58544
-7.48191
-10.6071
-13.823
-17.0371
-20.2154
-23.377
-26.578
-29.9022
-33.4433
-37.2974
-41.5556
-46.2942
-51.5677
-57.4009
-63.7839
-70.6682
-77.965
-85.5454
-93.2415
-100.849
-108.136
-114.857
-120.783
-125.723
-129.55
-132.193
-133.637
-133.88
-132.978
-130.757
-127.233
-122.474
-116.604
-109.82
-102.375
-94.5574
-86.654
-78.9224
-71.5652
-64.7061
-58.3709
-52.5012
-47.0179
-41.897
-37.1993
-33.0217
-29.4082
-26.295
-23.5208
-20.877
-18.1632
-15.2351
-12.0433
-8.6467
-5.18354
-1.81465
1.32783
4.1642
6.66535
8.83793
10.7083
12.3104
13.6787
14.8452
15.8378
16.6809
17.3955
17.9994
18.5082
18.9354
19.2926
19.5899
19.8361
20.0389
20.2048
20.3397
20.4487
20.536
20.6055
20.6605
20.7042
20.7391
20.7679
20.793
20.8163
20.8389
20.8609
20.883
20.9077
20.9402
20.9833
21.0227
21.0113
20.846
20.3174
19.0439
16.489
12.2088
6.26667
-0.707641
-8.01946
-15.284
-22.3535
-29.1492
-35.5831
-41.5453
-46.9102
-51.5442
-55.3147
-58.099
-59.7916
-60.3248
-59.6973
-57.9056
-55.0412
-51.2006
-46.5126
-41.1173
-35.1489
-28.7341
-22.0116
-15.1707
-8.483
-2.28707
3.08837
7.42373
10.6644
12.9029
14.311
15.0651
15.296
15.0694
14.3932
13.2379
11.5624
9.33788
6.56591
3.29191
-0.388289
-4.32864
-8.34084
-12.2112
-15.7234
-18.677
-20.9227
-22.3491
-22.9252
-22.6513
-21.5408
-19.6201
-16.9329
-13.5679
-9.68669
-5.51916
-1.32423
2.65999
6.25216
9.34159
11.8844
13.8905
15.4075
16.504
17.2563
17.7374
17.9951
18.0166
17.6886
16.7365
14.6684
10.997
5.82075
-0.0261248
-5.71002
3.27433
3.10599
2.64647
1.78475
0.431821
-1.44223
-3.79432
-6.51821
-9.477
-12.5422
-15.6252
-18.6906
-21.7541
-24.8683
-28.1092
-31.5655
-35.3296
-39.4884
-44.1152
-49.2624
-54.9542
-61.1807
-67.8945
-75.0087
-82.398
-89.8997
-97.3188
-104.435
-111.02
-116.854
-121.756
-125.596
-128.295
-129.817
-130.148
-129.294
-127.159
-123.781
-119.23
-113.633
-107.184
-100.127
-92.7313
-85.2629
-77.9556
-70.9878
-64.4593
-58.3802
-52.6958
-47.3518
-42.3566
-37.7883
-33.7312
-30.1969
-27.0929
-24.25
-21.476
-18.6039
-15.5322
-12.2527
-8.84739
-5.45118
-2.20001
0.80583
3.5133
5.90934
8.00667
9.8308
11.4114
12.7775
13.9559
14.9704
15.8419
16.5887
17.227
17.7711
18.2334
18.625
18.9555
19.2333
19.466
19.66
19.8211
19.9541
20.0635
20.1531
20.2262
20.286
20.3349
20.3757
20.4104
20.4412
20.4691
20.4944
20.5169
20.5375
20.5582
20.5793
20.5861
20.5324
20.3207
19.7631
18.5279
16.1404
12.1711
6.59519
-0.0932603
-7.25481
-14.4614
-21.5073
-28.2838
-34.6957
-40.6343
-45.9767
-50.5922
-54.3512
-57.1365
-58.849
-59.4207
-58.847
-57.1284
-54.3565
-50.6237
-46.0547
-40.7867
-34.9525
-28.6807
-22.1143
-15.4471
-8.95289
-2.96676
2.19431
6.32852
9.39852
11.5064
12.8225
13.5122
13.6895
13.402
12.6402
11.3609
9.51415
7.06719
4.02351
0.436715
-3.58208
-7.86462
-12.1946
-16.3274
-20.0167
-23.0337
-25.2088
-26.415
-26.6198
-25.8421
-24.1312
-21.5763
-18.2975
-14.4495
-10.2281
-5.86002
-1.57432
2.42949
6.00433
9.0635
11.5763
13.5576
15.0544
16.1319
16.8608
17.307
17.5144
17.4766
17.1058
16.1811
14.2884
10.9794
6.25974
0.829714
-4.53585
3.62907
3.51694
3.10042
2.31747
1.10694
-0.57952
-2.72654
-5.25273
-8.03965
-10.9676
-13.946
-16.9303
-19.9224
-22.9614
-26.111
-29.4493
-33.0591
-37.0204
-41.4019
-46.2543
-51.6026
-57.4411
-63.7296
-70.3911
-77.3131
-84.3497
-91.3266
-98.0482
-104.31
-109.913
-114.683
-118.482