/*--------------------------------*- C++ -*----------------------------------*\
  =========                 |
  \\      /  F ield         | OpenFOAM: The Open Source CFD Toolbox
   \\    /   O peration     | Website:  https://openfoam.org
    \\  /    A nd           | Version:  9
     \\/     M anipulation  |
\*---------------------------------------------------------------------------*/
FoamFile
{
    format      ascii;
    class       volScalarField;
    location    "0.072";
    object      k_0;
}
// * * * * * * * * * * * * * * * * * * * * * * * * * * * * * * * * * * * * * //

dimensions      [0 2 -2 0 0 0 0];

internalField   nonuniform List<scalar> 
12225
(
2.4853e-05
0.000100657
0.000154622
0.00015927
0.00013953
8.51701e-05
5.22947e-05
3.9868e-05
3.8448e-05
4.30731e-05
6.86829e-05
9.76345e-05
0.000108626
0.00011007
9.8344e-05
0.000146351
0.000286829
0.0032683
2.03458e-05
2.5598e-05
3.4893e-05
3.81526e-05
3.78502e-05
3.45609e-05
2.90906e-05
2.64593e-05
2.58435e-05
2.60696e-05
2.78569e-05
3.48794e-05
4.89283e-05
5.87253e-05
6.08146e-05
6.49952e-05
6.5355e-05
8.99529e-05
2.00331e-05
1.93958e-05
1.79911e-05
1.75689e-05
1.7539e-05
1.74952e-05
1.71519e-05
1.62947e-05
1.58569e-05
1.57567e-05
1.58274e-05
1.63536e-05
1.85309e-05
2.11749e-05
2.24818e-05
2.29504e-05
2.29072e-05
2.30781e-05
2.00018e-05
1.99615e-05
1.98227e-05
1.97768e-05
1.96338e-05
1.90843e-05
1.77788e-05
1.64956e-05
1.62949e-05
1.65697e-05
1.71635e-05
1.74962e-05
1.76847e-05
1.8098e-05
1.8317e-05
1.87994e-05
1.89702e-05
1.99061e-05
2.00034e-05
2.00554e-05
2.04115e-05
2.23451e-05
2.46272e-05
2.5077e-05
2.47407e-05
2.29692e-05
2.14504e-05
2.09429e-05
2.08844e-05
2.10159e-05
2.17273e-05
2.25478e-05
2.31969e-05
2.36899e-05
2.43078e-05
2.45959e-05
2.00848e-05
2.14897e-05
2.20655e-05
2.24572e-05
2.28179e-05
2.29228e-05
2.2841e-05
2.21888e-05
2.13966e-05
2.11862e-05
2.12323e-05
2.1676e-05
2.35362e-05
2.5956e-05
2.74707e-05
2.81561e-05
2.8281e-05
2.82254e-05
2.01107e-05
2.16477e-05
2.28206e-05
2.29915e-05
2.28441e-05
2.22507e-05
2.16632e-05
2.13192e-05
2.12159e-05
2.12324e-05
2.1441e-05
2.23851e-05
2.35277e-05
2.41729e-05
2.44732e-05
2.45514e-05
2.45516e-05
2.44801e-05
2.08521e-05
2.51047e-05
2.64117e-05
2.4594e-05
2.25651e-05
2.15994e-05
2.12132e-05
2.11117e-05
2.11068e-05
2.11309e-05
2.12327e-05
2.16077e-05
2.23044e-05
2.2734e-05
2.30223e-05
2.31618e-05
2.34343e-05
2.36974e-05
2.00852e-05
2.33785e-05
2.57369e-05
2.51313e-05
2.53187e-05
2.52371e-05
2.45606e-05
2.33112e-05
2.23205e-05
2.15826e-05
2.11074e-05
2.08705e-05
2.07966e-05
2.07939e-05
2.08503e-05
2.11378e-05
2.22717e-05
2.37172e-05
2.38371e-05
2.80947e-05
2.74154e-05
2.61692e-05
2.60826e-05
2.60372e-05
2.54652e-05
2.34638e-05
2.18937e-05
2.10452e-05
2.06327e-05
2.04678e-05
2.04267e-05
2.04291e-05
2.0471e-05
2.06633e-05
2.12634e-05
2.17932e-05
2.11709e-05
2.2506e-05
2.30544e-05
2.34408e-05
2.41971e-05
2.64896e-05
2.79267e-05
2.76681e-05
2.54526e-05
2.28687e-05
2.17323e-05
2.14289e-05
2.14206e-05
2.14421e-05
2.14328e-05
2.13248e-05
2.10382e-05
2.10181e-05
2.03043e-05
2.05744e-05
2.12695e-05
2.19787e-05
2.34675e-05
2.88079e-05
3.29312e-05
3.24733e-05
2.81526e-05
2.43871e-05
2.35799e-05
2.38184e-05
2.47923e-05
2.49749e-05
2.46574e-05
2.34834e-05
2.24417e-05
2.18615e-05
2.05803e-05
2.08378e-05
2.1049e-05
2.11936e-05
2.13548e-05
2.19917e-05
2.26177e-05
2.24855e-05
2.21878e-05
2.22989e-05
2.27138e-05
2.34341e-05
2.37015e-05
2.36402e-05
2.34013e-05
2.28973e-05
2.26216e-05
2.24395e-05
2.0104e-05
2.12288e-05
2.16944e-05
2.17049e-05
2.21351e-05
2.32938e-05
2.32318e-05
2.24074e-05
2.14728e-05
2.11009e-05
2.1164e-05
2.11638e-05
2.12155e-05
2.17555e-05
2.32794e-05
2.46628e-05
2.60066e-05
2.65127e-05
2.05008e-05
2.25214e-05
2.39235e-05
2.40668e-05
2.28375e-05
2.11504e-05
2.05846e-05
2.04472e-05
2.04393e-05
2.0456e-05
2.05251e-05
2.11623e-05
2.16777e-05
2.22867e-05
2.48207e-05
2.7888e-05
3.09369e-05
3.30094e-05
2.03638e-05
2.08572e-05
2.25408e-05
2.27192e-05
2.13696e-05
2.06409e-05
2.05555e-05
2.06429e-05
2.10438e-05
2.14229e-05
2.16543e-05
2.18498e-05
2.20587e-05
2.22231e-05
2.23775e-05
2.26407e-05
2.33425e-05
2.59468e-05
2.12155e-05
2.11382e-05
2.05517e-05
2.07094e-05
2.07299e-05
2.06863e-05
2.07755e-05
2.09358e-05
2.10851e-05
2.13711e-05
2.23397e-05
2.34705e-05
2.38184e-05
2.3628e-05
2.27535e-05
2.24566e-05
2.27531e-05
2.5384e-05
2.00795e-05
2.08039e-05
2.18538e-05
2.17854e-05
2.14376e-05
2.10486e-05
2.10167e-05
2.1292e-05
2.1959e-05
2.20603e-05
2.19432e-05
2.19027e-05
2.19735e-05
2.21198e-05
2.21607e-05
2.21918e-05
2.23965e-05
2.31839e-05
2.00198e-05
2.0395e-05
2.12714e-05
2.12204e-05
2.11685e-05
2.10919e-05
2.11154e-05
2.12596e-05
2.13458e-05
2.13897e-05
2.14666e-05
2.17438e-05
2.26507e-05
2.32096e-05
2.3284e-05
2.30256e-05
2.22066e-05
2.16144e-05
2.00503e-05
2.02686e-05
2.05423e-05
2.06057e-05
2.06066e-05
2.05789e-05
2.05714e-05
2.06067e-05
2.08231e-05
2.17193e-05
2.30797e-05
2.42092e-05
2.51483e-05
2.57042e-05
2.57827e-05
2.54435e-05
2.39483e-05
2.27621e-05
2.01424e-05
2.02085e-05
2.08816e-05
2.07639e-05
2.03458e-05
2.02939e-05
2.03018e-05
2.03573e-05
2.04859e-05
2.07278e-05
2.13583e-05
2.27169e-05
2.35861e-05
2.38048e-05
2.36849e-05
2.31627e-05
2.29509e-05
2.29598e-05
2.0472e-05
2.07701e-05
2.11836e-05
2.20824e-05
2.12647e-05
2.09328e-05
2.08814e-05
2.08777e-05
2.08854e-05
2.09289e-05
2.11379e-05
2.17424e-05
2.23036e-05
2.28137e-05
2.3198e-05
2.34203e-05
2.36561e-05
2.40856e-05
2.11797e-05
2.1543e-05
2.10405e-05
2.08431e-05
2.12965e-05
2.20062e-05
2.22792e-05
2.2288e-05
2.21607e-05
2.21003e-05
2.21895e-05
2.25792e-05
2.38118e-05
2.75086e-05
3.13739e-05
3.37796e-05
3.44801e-05
3.40936e-05
2.22078e-05
2.20057e-05
2.19981e-05
2.21822e-05
2.3225e-05
2.48098e-05
2.5327e-05
2.51315e-05
2.397e-05
2.27484e-05
2.24243e-05
2.24385e-05
2.27043e-05
2.3828e-05
2.72126e-05
3.3761e-05
4.18716e-05
5.00458e-05
2.13054e-05
2.15372e-05
2.1365e-05
2.119e-05
2.13522e-05
2.1704e-05
2.17326e-05
2.1563e-05
2.15585e-05
2.163e-05
2.17612e-05
2.18243e-05
2.1939e-05
2.23321e-05
2.36805e-05
2.64785e-05
2.86818e-05
3.10503e-05
2.2161e-05
2.29035e-05
2.19381e-05
2.14036e-05
2.16902e-05
2.21462e-05
2.28475e-05
2.45977e-05
3.01978e-05
3.36942e-05
3.40508e-05
3.28096e-05
2.96714e-05
2.89071e-05
2.95128e-05
3.46776e-05
4.69451e-05
5.27719e-05
2.00659e-05
2.00385e-05
1.9858e-05
1.97124e-05
1.97161e-05
1.98088e-05
2.0145e-05
2.06767e-05
2.0969e-05
2.09954e-05
2.08593e-05
2.01089e-05
1.83702e-05
1.75778e-05
1.75564e-05
1.77897e-05
1.82e-05
1.84724e-05
2.00008e-05
1.23344e-05
1.2154e-05
1.30821e-05
1.48365e-05
1.57732e-05
1.62216e-05
1.65112e-05
1.67027e-05
1.67824e-05
1.67842e-05
1.6674e-05
1.62801e-05
1.6065e-05
1.60351e-05
1.60651e-05
1.62021e-05
1.66558e-05
2.01121e-05
2.21418e-05
2.60627e-05
2.672e-05
2.65057e-05
2.58442e-05
2.44861e-05
2.36705e-05
2.34369e-05
2.34609e-05
2.37798e-05
2.44107e-05
2.49763e-05
2.55689e-05
2.66334e-05
2.8655e-05
3.1466e-05
3.43091e-05
4.05211e-05
9.29685e-05
9.92601e-05
8.6354e-05
7.00744e-05
5.73335e-05
4.68367e-05
4.10026e-05
3.91376e-05
3.90478e-05
3.97643e-05
4.11919e-05
4.34908e-05
4.81932e-05
5.45521e-05
6.09742e-05
6.6257e-05
6.95413e-05
0.12641
0.1388
0.122672
0.114977
0.115059
0.106779
0.0987462
0.0912623
0.0956586
0.0954269
0.092982
0.0868476
0.0815295
0.0781285
0.0759247
0.0743403
0.0732748
0.0727287
0.0724602
0.0721348
0.0717275
0.0715088
0.0715057
0.0715579
0.0716345
0.0717307
0.0717958
0.0717973
0.0716983
0.0716007
0.0716662
0.0719543
0.0728164
0.0733932
0.0736117
0.0743714
0.0751126
0.077157
0.0857076
0.0938898
0.0992951
0.104044
0.108063
0.110731
0.112278
0.113515
0.112609
0.111869
0.112989
0.11682
0.120163
0.12284
0.1295
0.150083
0.217573
0.438153
0.487704
0.316072
0.179535
0.21079
0.232173
0.2277
0.161656
0.138663
0.133212
0.103705
0.0960593
0.0832238
0.075327
0.0698221
0.0628962
0.0596918
0.0553996
0.0533195
0.0502611
0.0488424
0.0470071
0.0454865
0.0446293
0.0439158
0.0436389
0.0430741
0.0423457
0.0420065
0.0415865
0.041039
0.0406024
0.0400295
0.0396402
0.0391165
0.0388664
0.0385298
0.0380428
0.037742
0.0374006
0.0370136
0.036678
0.0363211
0.03593
0.0355036
0.0350804
0.0346484
0.0341814
0.0336269
0.0329266
0.0321484
0.0313484
0.0305721
0.0295822
0.0285041
0.0275374
0.0266176
0.0254253
0.0244713
0.0233222
0.0223451
0.0214109
0.0197891
0.0180384
0.0163234
0.014623
0.0131657
0.0121227
0.011388
0.010878
0.0105045
0.0102011
0.00993834
0.00971936
0.00957267
0.00951075
0.00950401
0.00951559
0.00954598
0.00960364
0.00962689
0.00961554
0.0094954
0.00926533
0.00907469
0.00892661
0.00881418
0.00873934
0.00870943
0.00872319
0.00882012
0.0090077
0.00914874
0.00922854
0.009251
0.00923099
0.00909366
0.00866446
0.0081773
0.00778613
0.0074696
0.00731894
0.00724069
0.0071032
0.00704082
0.00705141
0.00710143
0.00723707
0.00758242
0.00791699
0.00874083
0.0138902
0.0178868
0.0176807
0.0207979
0.0237785
0.0165302
0.00700165
0.0134182
0.023811
0.0247035
0.0223796
0.014172
0.00865576
0.00519844
0.117217
0.111135
0.114583
0.136382
0.135837
0.12656
0.105985
0.0809804
0.0641577
0.0562199
0.0532205
0.05305
0.0535019
0.0545379
0.0556707
0.0566745
0.0578387
0.0592938
0.0607956
0.061937
0.0625995
0.0630965
0.063891
0.0650831
0.0661687
0.0666614
0.0667064
0.0666234
0.0663882
0.0658792
0.0647094
0.0628693
0.06143
0.06112
0.0612388
0.0617234
0.0629759
0.0655868
0.0717131
0.0779886
0.0853957
0.0935578
0.0974745
0.0971731
0.0963735
0.0977185
0.0985548
0.0977492
0.0977604
0.100288
0.107476
0.126344
0.138248
0.153396
0.203201
0.389531
0.447419
0.310561
0.171531
0.2082
0.213971
0.170017
0.128238
0.111039
0.0917644
0.0805637
0.0763501
0.0718744
0.0698432
0.0679349
0.0660074
0.0649324
0.0628258
0.0615344
0.0596459
0.0585788
0.0571228
0.0552506
0.0537685
0.0521608
0.0508019
0.0491844
0.047562
0.0465989
0.0450272
0.0441136
0.043071
0.0420394
0.0411643
0.0403719
0.0398405
0.0393454
0.0388596
0.0384145
0.0379949
0.0376751
0.0375116
0.0374439
0.0374438
0.0376408
0.0380465
0.0385909
0.0392261
0.0398429
0.0402195
0.0403724
0.0404495
0.0405662
0.04054
0.0402099
0.0398736
0.0396943
0.0394645
0.0392607
0.0388202
0.0382684
0.0377202
0.0367213
0.0354239
0.0339246
0.0320452
0.029199
0.0251992
0.0205811
0.0164433
0.0138964
0.0126246
0.012052
0.0117551
0.0114796
0.0111146
0.0106676
0.0102135
0.00978929
0.00937604
0.00898546
0.00859675
0.00822387
0.00784871
0.00748152
0.00713858
0.00682736
0.00656674
0.00634722
0.00614032
0.00593252
0.00573914
0.00559731
0.00552868
0.00551307
0.00550079
0.00543255
0.00530901
0.00527421
0.00533338
0.00556329
0.00585139
0.00601708
0.00604545
0.00601163
0.00592047
0.00591633
0.00600446
0.00643575
0.00825252
0.0152147
0.040899
0.0652557
0.0749724
0.0899189
0.0967641
0.0889305
0.0518032
0.0283673
0.0204394
0.019579
0.0204621
0.019125
0.0154533
0.0106839
0.111639
0.112567
0.142693
0.141139
0.122372
0.0821064
0.053072
0.042096
0.0419865
0.0431172
0.0457962
0.049704
0.0531438
0.0567439
0.0600625
0.0630301
0.0661103
0.0695737
0.0724559
0.0743183
0.075751
0.0771989
0.0786283
0.0801984
0.0820484
0.0836955
0.0844706
0.0845047
0.0842096
0.0832182
0.080457
0.0737812
0.0676002
0.0630002
0.0593217
0.0569778
0.0564052
0.0566069
0.0577374
0.0596728
0.0626582
0.0702283
0.0752671
0.0782586
0.085353
0.0972152
0.0998738
0.0963218
0.0823359
0.0782534
0.0808461
0.0985775
0.133149
0.159793
0.222162
0.320634
0.332612
0.217719
0.172045
0.196971
0.164685
0.116504
0.096627
0.0860852
0.077535
0.0734002
0.0700872
0.064669
0.060867
0.0556144
0.0513293
0.0463326
0.0424929
0.0393211
0.0364313
0.0334496
0.0305165
0.0285764
0.0262766
0.0238261
0.0224274
0.0207523
0.0195189
0.0182343
0.0172965
0.0167491
0.0161992
0.0156674
0.0152213
0.0149419
0.0147999
0.0147388
0.0147191
0.014721
0.0147657
0.0148783
0.0150182
0.0151371
0.0153311
0.0157031
0.0162517
0.0169832
0.017938
0.019231
0.0209885
0.0229533
0.024964
0.0268202
0.0282057
0.0289821
0.0290553
0.0284708
0.0278114
0.0274411
0.0274184
0.0277172
0.0283868
0.0292788
0.0304464
0.0318899
0.0333178
0.0339947
0.0338793
0.0325096
0.0286682
0.0231371
0.0176803
0.013964
0.0121961
0.0114856
0.0112278
0.0111478
0.0111093
0.011055
0.0109572
0.0107223
0.0102778
0.0097455
0.00918398
0.00863952
0.00812002
0.00761194
0.00712263
0.00668936
0.00632152
0.00597963
0.00560458
0.0051448
0.00459292
0.00405638
0.00370964
0.00359017
0.00360646
0.00394483
0.00528724
0.00680862
0.00778467
0.00822193
0.00820696
0.00773048
0.00633871
0.00549272
0.00542855
0.00606491
0.00945355
0.028291
0.0452575
0.0455969
0.0773083
0.129514
0.131329
0.138367
0.132107
0.0906135
0.0447687
0.0265469
0.0213043
0.0201781
0.0195852
0.0164986
0.0907896
0.15262
0.133164
0.0784023
0.0432593
0.0315493
0.0319619
0.0343977
0.0397811
0.0460671
0.0544546
0.0625689
0.0695461
0.0757858
0.0810727
0.0854955
0.0888538
0.0922196
0.0948536
0.0959378
0.096294
0.0969987
0.0985135
0.0991666
0.0995463
0.100419
0.103637
0.109472
0.112531
0.112986
0.112471
0.10986
0.100483
0.0831803
0.070678
0.0629874
0.0589587
0.0575614
0.0575034
0.0577121
0.0586133
0.0612363
0.0642076
0.0703826
0.0840991
0.0916786
0.0923713
0.0893413
0.072205
0.0584726
0.0563695
0.0612482
0.0921439
0.13757
0.185708
0.21689
0.205456
0.159149
0.176813
0.173279
0.11851
0.0947256
0.083827
0.07774
0.0711332
0.0636322
0.0572083
0.0500242
0.0433575
0.036842
0.0323645
0.0274068
0.0242488
0.0225201
0.0202334
0.0188864
0.0164555
0.0150937
0.0140077
0.0129874
0.0125351
0.0118766
0.0111915
0.0107073
0.0104367
0.010336
0.0103018
0.0102966
0.0103058
0.0103417
0.0104184
0.0105375
0.010693
0.0108734
0.0110491
0.0111828
0.0112511
0.0112835
0.011302
0.0113349
0.0113784
0.0114102
0.0114358
0.0114921
0.0116072
0.0118865
0.012412
0.0132749
0.0143356
0.015404
0.0161864
0.016335
0.015727
0.0145974
0.0133424
0.0121974
0.0113476
0.0107837
0.010575
0.0108084
0.0122078
0.0161268
0.0218204
0.027451
0.0303345
0.0304306
0.0280442
0.0215476
0.0162301
0.0131248
0.0116507
0.0110082
0.010679
0.0104078
0.0101429
0.00994516
0.00982402
0.00963949
0.00930717
0.00888192
0.00843627
0.00799233
0.00754496
0.00710642
0.00670948
0.00638965
0.00617213
0.00606151
0.00600978
0.00596746
0.00594363
0.00604605
0.00696843
0.00979806
0.0118533
0.0127255
0.0129246
0.0127945
0.0119864
0.0106301
0.00972359
0.00936212
0.00972707
0.0153095
0.0508437
0.126695
0.169428
0.184857
0.187832
0.188946
0.185076
0.17635
0.171276
0.16226
0.133613
0.0666803
0.0338768
0.025143
0.0248458
0.0233675
0.0961105
0.0946836
0.0509118
0.0265576
0.0239018
0.0260384
0.031595
0.0437233
0.0550294
0.0639495
0.0719495
0.0791486
0.0853033
0.0929077
0.100251
0.107424
0.112972
0.117063
0.12042
0.121008
0.120647
0.120125
0.119676
0.118543
0.117034
0.116432
0.116685
0.119965
0.125135
0.126824
0.126815
0.12592
0.122058
0.107093
0.0876707
0.0749698
0.0674148
0.0628426
0.0604447
0.0598487
0.0600303
0.0609658
0.0630848
0.0689941
0.0804468
0.0870907
0.088047
0.0837941
0.0646898
0.0513457
0.0483757
0.0501391
0.0638109
0.0905495
0.12138
0.146852
0.143875
0.155651
0.171914
0.140177
0.0990625
0.0848944
0.0779903
0.0715504
0.0632244
0.0557713
0.0500428
0.0422579
0.0365299
0.0303423
0.025869
0.0230972
0.0208819
0.0197957
0.0182328
0.0170004
0.0151035
0.0137719
0.0130442
0.0124409
0.0121502
0.0117323
0.0113332
0.0110406
0.0109823
0.0109992
0.0110923
0.0112373
0.011394
0.0116036
0.0119006
0.0122412
0.0125976
0.0129151
0.013135
0.0132375
0.0132721
0.0132659
0.0131306
0.0129487
0.0127392
0.0124545
0.0121182
0.0117182
0.0113171
0.0110402
0.0109181
0.0109005
0.0109518
0.0111491
0.0115439
0.0120979
0.0124306
0.012188
0.0114432
0.0105006
0.00942335
0.00836818
0.00739849
0.0065227
0.00581588
0.00550706
0.00571527
0.00745
0.0134727
0.020577
0.0238701
0.0239327
0.0211742
0.0154962
0.0121498
0.0105929
0.0099761
0.00974736
0.00965463
0.00959829
0.00950776
0.00928604
0.00885948
0.00838039
0.00788007
0.00736757
0.00687415
0.00645501
0.00616104
0.00600389
0.00595724
0.00595815
0.00599288
0.00610953
0.00641203
0.00743665
0.010438
0.0129269
0.0139342
0.0140885
0.0139892
0.0134906
0.011886
0.0107319
0.0105676
0.0109313
0.0139331
0.0328264
0.104628
0.165686
0.190192
0.197365
0.200015
0.202294
0.202242
0.193766
0.172852
0.164136
0.156759
0.136434
0.0742382
0.0398304
0.0338157
0.0308834
0.0530036
0.0422602
0.0215611
0.0195027
0.0230985
0.0352115
0.0495683
0.0585894
0.0673153
0.0770279
0.0910235
0.104884
0.116817
0.124746
0.12895
0.131202
0.13195
0.131753
0.131168
0.129744
0.127639
0.126733
0.127058
0.128241
0.129988
0.133826
0.138046
0.140364
0.140726
0.140522
0.139755
0.136941
0.12572
0.102937
0.0855401
0.0753326
0.0701001
0.0679229
0.0668374
0.065407
0.0640602
0.0639592
0.0653268
0.0727629
0.0816035
0.0836345
0.0808592
0.0647237
0.049632
0.0448294
0.0446629
0.0475417
0.0569629
0.0714489
0.0913312
0.1127
0.128708
0.156414
0.161328
0.117287
0.0896715
0.080139
0.0747061
0.0673482
0.0598189
0.0549814
0.048558
0.0411852
0.0358462
0.029509
0.0251341
0.023011
0.0215689
0.0208555
0.0199261
0.018699
0.0171588
0.0164616
0.0162213
0.0161181
0.0160376
0.0158562
0.0157019
0.0155884
0.0153428
0.0151333
0.0150536
0.0150247
0.0150236
0.0150667
0.0151529
0.0152664
0.0154092
0.0154569
0.0154534
0.015409
0.0153213
0.0151893
0.015011
0.0148637
0.0147371
0.0146109
0.0144987
0.0143533
0.0140874
0.0135242
0.0127232
0.0118304
0.0109894
0.0104763
0.0101489
0.00996415
0.00993776
0.0102045
0.0104236
0.0102745
0.00950488
0.0086014
0.007626
0.00660484
0.00558587
0.00463006
0.00389249
0.00356474
0.00376908
0.00545848
0.0110229
0.0156971
0.0169317
0.0162865
0.0126602
0.00937499
0.00802185
0.00770599
0.00773527
0.00806175
0.00855432
0.00877592
0.00882429
0.00881129
0.00868448
0.00819007
0.00747911
0.00681672
0.00626908
0.00591183
0.00574199
0.00570614
0.0057329
0.0059273
0.00672602
0.00939194
0.0123788
0.0139591
0.0143778
0.0143614
0.0140901
0.012701
0.0107867
0.0102258
0.0103161
0.0114434
0.0182261
0.0535925
0.134399
0.180742
0.198854
0.210215
0.225655
0.239218
0.241861
0.237726
0.219612
0.179583
0.162039
0.151373
0.123455
0.0707189
0.050894
0.0428629
0.0303964
0.0288783
0.0167985
0.0197934
0.0350036
0.0498246
0.0596842
0.0729987
0.0934086
0.112611
0.122801
0.128074
0.13069
0.132543
0.132349
0.131536
0.129024
0.123759
0.11962
0.117949
0.118927
0.122855
0.127625
0.13491
0.141475
0.145864
0.148163
0.148696
0.148521
0.147327
0.143067
0.130786
0.108507
0.0895846
0.0785493
0.0732012
0.070765
0.0694707
0.0687747
0.068527
0.0693637
0.0731048
0.0771929
0.0797775
0.0797834
0.073929
0.0578852
0.0479916
0.0444912
0.0440257
0.0448566
0.0486434
0.056895
0.0670916
0.0804332
0.0992923
0.128291
0.15566
0.148832
0.10279
0.0849055
0.078125
0.0730244
0.0654449
0.0591712
0.0551875
0.047738
0.040117
0.0337679
0.0274304
0.0249963
0.0238528
0.0232859
0.0228204
0.0218934
0.0205841
0.0193547
0.0185692
0.0181576
0.0178365
0.0174912
0.0171566
0.0168865
0.0166253
0.0163154
0.0159759
0.015654
0.0154434
0.0153409
0.0152537
0.0151673
0.0150625
0.014909
0.0148036
0.014745
0.0146778
0.0145873
0.0144902
0.0143394
0.0140596
0.0139044
0.0138217
0.013879
0.0141614
0.0145529
0.0147066
0.0146994
0.0144582
0.0139675
0.0129659
0.0116779
0.0103647
0.00954761
0.00901139
0.00866135
0.00856955
0.00868278
0.00859348
0.00795073
0.00706593
0.00608331
0.00505501
0.00401474
0.0031146
0.00254502
0.00245699
0.00288657
0.00518543
0.00871317
0.0101744
0.0101392
0.00858687
0.00610459
0.00495359
0.00464514
0.00467475
0.005057
0.00633503
0.00748386
0.00817179
0.00850119
0.00859408
0.00858045
0.00841941
0.00778903
0.00690422
0.00621989
0.00587761
0.00581417
0.00590602
0.0065577
0.0092162
0.0123232
0.013707
0.0139424
0.0138649
0.0133806
0.0115251
0.0101035
0.0098474
0.0100924
0.0120389
0.0225372
0.0722262
0.147928
0.186363
0.212578
0.239728
0.258975
0.264562
0.260413
0.245877
0.236157
0.216702
0.179461
0.16141
0.144573
0.101412
0.0733463
0.060887
0.0277344
0.0278397
0.0151664
0.028393
0.0473091
0.0616117
0.0858113
0.109691
0.120666
0.125473
0.127986
0.128308
0.1257
0.120639
0.114219
0.107506
0.0991001
0.0943245
0.0942629
0.0967216
0.10638
0.122389
0.134435
0.142165
0.147575
0.150189
0.150703
0.150169
0.147643
0.140008
0.120239
0.0989304
0.0846861
0.0766311
0.072901
0.0715637
0.0712934
0.0721218
0.0758119
0.0782066
0.0789672
0.0788474
0.0774275
0.0722022
0.0644617
0.0574891
0.0516887
0.047911
0.0465091
0.0466832
0.0498125
0.0550874
0.0597385
0.0674162
0.0779231
0.0955325
0.129145
0.154618
0.136578
0.0953477
0.0827282
0.0773469
0.0714474
0.064054
0.0596257
0.0546987
0.0457285
0.0370338
0.0297202
0.0261146
0.0246245
0.0238401
0.0232747
0.0225856
0.0214917
0.0201123
0.0188139
0.0177447
0.0167394
0.015751
0.0149592
0.0143817
0.0138952
0.0135344
0.0132245
0.0130126
0.0127454
0.0124819
0.0122602
0.0120568
0.0120021
0.0121322
0.0124886
0.0129857
0.0135158
0.0139523
0.0142449
0.0143706
0.0143063
0.0136498
0.0130553
0.0124621
0.0118233
0.011231
0.0109486
0.0115533
0.0127549
0.013938
0.0144317
0.0145567
0.0143494
0.013745
0.0122054
0.0102108
0.0087201
0.00774338
0.00705
0.00674
0.00677975
0.00667774
0.00599139
0.0050725
0.00418656
0.00329733
0.00247566
0.00188413
0.00166257
0.00172899
0.00237263
0.00401302
0.00495245
0.00507445
0.00465349
0.00334652
0.00259094
0.00236042
0.00235505
0.00249811
0.00319168
0.00498903
0.00657594
0.00769237
0.00836305
0.00864879
0.0086927
0.00862713
0.00819403
0.00710884
0.00646641
0.00635571
0.0066178
0.00839621
0.0112175
0.0124118
0.0125972
0.0125249
0.0120828
0.0105187
0.00955228
0.00948174
0.00990433
0.0126064
0.026109
0.080999
0.149074
0.195933
0.233215
0.260344
0.273028
0.274279
0.266973
0.241755
0.229846
0.223916
0.206698
0.17593
0.159023
0.122121
0.0941727
0.080798
0.0275649
0.0285731
0.0148626
0.042861
0.0638434
0.0965033
0.114162
0.120292
0.123065
0.120564
0.113793
0.106092
0.100744
0.097345
0.0946075
0.0918515
0.08923
0.0880471
0.0889552
0.0935069
0.107908
0.125988
0.136468
0.142071
0.144965
0.145901
0.14496
0.138359
0.12071
0.101497
0.087568
0.0787649
0.0740888
0.0725123
0.0725848
0.0755037
0.0782104
0.0784472
0.0770886
0.0728843
0.0698875
0.0678367
0.0652789
0.0632475
0.0615512
0.058944
0.0561897
0.0548595
0.0551661
0.0582892
0.0693421
0.0744627
0.0726742
0.0715406
0.078081
0.0948186
0.13195
0.152941
0.127109
0.0912907
0.0811531
0.0761681
0.0696641
0.0632574
0.059642
0.0529926
0.0425625
0.0338723
0.027254
0.0245339
0.0233244
0.0225827
0.021475
0.0195549
0.0170383
0.0150439
0.0137552
0.0125797
0.0114869
0.0109704
0.0106973
0.0104708
0.010231
0.0100363
0.00983507
0.00977011
0.00975107
0.00976421
0.00986397
0.0101675
0.0107286
0.011529
0.0125587
0.0139738
0.015858
0.0177916
0.0194572
0.0202812
0.02048
0.018609
0.0164815
0.0147233
0.01316
0.0114025
0.00988098
0.00865597
0.0078665
0.00798839
0.00964423
0.0118849
0.0136455
0.0144378
0.0145945
0.0141302
0.0120376
0.0091501
0.00712804
0.00584775
0.00501549
0.00471085
0.00453304
0.00395699
0.00341842
0.00299755
0.00245116
0.00184182
0.00135707
0.00110496
0.00106352
0.00115915
0.0015817
0.00192342
0.00199545
0.00191336
0.00150135
0.00115072
0.00103235
0.00102389
0.00107247
0.00130536
0.00213074
0.00416975
0.00610557
0.00753983
0.00838875
0.00870394
0.00872684
0.00855034
0.00775535
0.00714638
0.00711506
0.00761818
0.00961129
0.0110807
0.0113995
0.0113583
0.0109386
0.00934384
0.00844091
0.00844479
0.0090998
0.0122732
0.0257215
0.0774106
0.148478
0.203704
0.243687
0.267879
0.276463
0.276135
0.26659
0.230393
0.206536
0.203848
0.204524
0.197037
0.176063
0.135211
0.109529
0.0983798
0.0276554
0.031478
0.0202906
0.0660116
0.100184
0.113864
0.11755
0.114333
0.105024
0.0982257
0.0962927
0.0957653
0.0952024
0.0943137
0.0930972
0.0912509
0.0889954
0.0880742
0.0896155
0.0953722
0.106052
0.115657
0.120842
0.122738
0.12247
0.116558
0.105504
0.0934074
0.0840486
0.0779419
0.0742076
0.0729332
0.0735479
0.0766785
0.0801308
0.077641
0.0693709
0.0610582
0.0598427
0.0604663
0.062909
0.0663782
0.0672987
0.0670836
0.0664557
0.0660216
0.066417
0.0697264
0.0723098
0.0763836
0.0854563
0.0935192
0.092761
0.0849465
0.0808026
0.0951544
0.138452
0.151117
0.118605
0.0885507
0.0800183
0.075362
0.0686441
0.062963
0.0595094
0.0516813
0.0405691
0.0314607
0.0243669
0.0214395
0.0200311
0.0187094
0.016521
0.0137065
0.0121647
0.0114149
0.0108854
0.0106888
0.0106404
0.0106848
0.01089
0.0111384
0.0112505
0.0112703
0.0110905
0.0109857
0.0109048
0.0109077
0.0110442
0.0115285
0.0125518
0.0143718
0.0171346
0.0212074
0.0259075
0.0292321
0.0306408
0.0311019
0.0310356
0.0295745
0.0264493
0.0221091
0.0195116
0.0170007
0.0139208
0.0103741
0.00775091
0.00608811
0.00516775
0.00507651
0.00667786
0.0101546
0.0133612
0.0147494
0.0148823
0.0138766
0.0102087
0.00674188
0.00479316
0.00373343
0.00322498
0.00283092
0.00228583
0.00186899
0.00170611
0.00154073
0.00124764
0.000942892
0.000733961
0.000644978
0.000638386
0.000677952
0.000744517
0.000757152
0.000733488
0.000611905
0.000496231
0.000452909
0.000447984
0.000461949
0.000539132
0.0008077
0.00167413
0.0037295
0.00567441
0.0071556
0.0080578
0.00842316
0.00844982
0.0082188
0.00804773
0.00822181
0.00943706
0.0106415
0.0108415
0.0107166
0.00987146
0.00746952
0.0063889
0.00642576
0.00728018
0.0106813
0.0230953
0.0689544
0.142067
0.200966
0.244259
0.267276
0.271767
0.268563
0.249644
0.205355
0.180888
0.177274
0.181991
0.188313
0.184683
0.154911
0.121501
0.11178
0.0283344
0.036641
0.0438079
0.0981132
0.111206
0.113173
0.103074
0.0947981
0.0938816
0.094395
0.0955052
0.0965317
0.0973324
0.097626
0.0974845
0.0961844
0.0932516
0.0918011
0.0921303
0.0946551
0.0958484
0.0956574
0.0942175
0.0903231
0.0861573
0.0823987
0.0782003
0.0752798
0.0738375
0.0734317
0.074348
0.0765861
0.0769354
0.0748964
0.0656784
0.0524725
0.0490074
0.0518829
0.0590643
0.0638791
0.0656108
0.0660272
0.0666248
0.0679479
0.0714237
0.0762856
0.0799379
0.0824898
0.0840231
0.0872184
0.0959198
0.108111
0.108969
0.10282
0.0872676
0.0974966
0.142842
0.14882
0.111556
0.0866563
0.0795863
0.0748582
0.0672601
0.0630488
0.0589377
0.0498889
0.0385456
0.0289621
0.0219046
0.0191177
0.0176825
0.0160878
0.01384
0.0125865
0.0120941
0.0119193
0.011999
0.0128831
0.0144868
0.0164517
0.0185227
0.0200394
0.0210327
0.0216252
0.0217754
0.0213836
0.0206916
0.0202417
0.0201405
0.0202676
0.0210682
0.0232079
0.026934
0.0305712
0.0327019
0.0335301
0.0337693
0.0337446
0.0334412
0.0328503
0.031387
0.0268733
0.0219229
0.0196773
0.0184667
0.0168468
0.0131412
0.00847374
0.00542125
0.00388258
0.00330395
0.0035414
0.005886
0.0111585
0.0144281
0.0150956
0.0145336
0.0110586
0.00633372
0.00383883
0.00271238
0.00229894
0.00192416
0.00140441
0.00102542
0.000864013
0.000835442
0.00078695
0.000644654
0.000506918
0.000421567
0.000388334
0.000384232
0.000387249
0.00038818
0.000381118
0.000342384
0.000291444
0.000265773
0.000258861
0.000260357
0.000276126
0.000341433
0.000540897
0.00108379
0.00247154
0.00432369
0.00621478
0.00768139
0.00833354
0.00876397
0.00976142
0.0104161
0.0104343
0.0102574
0.00967807
0.00766074
0.00472032
0.00354017
0.00358065
0.00453265
0.0078688
0.0183881
0.0549805
0.127581
0.192579
0.237866
0.254431
0.254468
0.245806
0.210257
0.173753
0.158148
0.155695
0.158512
0.174643
0.180721
0.169318
0.132965
0.121855
0.0296838
0.0454237
0.0815898
0.106605
0.108823
0.0970201
0.0923838
0.0924797
0.0941948
0.0968027
0.0985061
0.0991236
0.0992792
0.0992437
0.0988184
0.0977345
0.0960808
0.0941109
0.092688
0.0914946
0.0900023
0.087252
0.0833039
0.0794954
0.0765247
0.0749247
0.0743684
0.0742474
0.0751763
0.0756455
0.0750906
0.0725688
0.0636453
0.0476543
0.0422592
0.0429528
0.0484507
0.0569195
0.0616903
0.0630476
0.0640692
0.0664572
0.0719226
0.0808555
0.0905288
0.0972088
0.101336
0.103507
0.106099
0.107674
0.114485
0.122697
0.123433
0.116476
0.09739
0.10527
0.145577
0.145796
0.105558
0.085657
0.0794506
0.0739636
0.0666552
0.0632374
0.0588595
0.0496237
0.0383361
0.0278049
0.0212549
0.0186694
0.0172159
0.0154841
0.0140188
0.0135354
0.013686
0.0151922
0.0178217
0.0219118
0.0275554
0.0325673
0.0353577
0.0365391
0.036882
0.0364264
0.0348018
0.0333288
0.0320809
0.0311038
0.0304385
0.0302167
0.030189
0.0305007
0.0314428
0.0325913
0.0335212
0.0339453
0.0339989
0.033866
0.0335294
0.0331461
0.0322879
0.0289514
0.0228183
0.0198677
0.018859
0.0183769
0.0178103
0.0159604
0.010802
0.00587563
0.00342685
0.00264765
0.00268354
0.00402059
0.00966245
0.01406
0.0149419
0.0143376
0.0105338
0.0054511
0.0029182
0.00187582
0.00151534
0.00118923
0.000832418
0.000586373
0.00047115
0.000451452
0.000457049
0.000444858
0.000372067
0.000303968
0.000273782
0.000265417
0.000265049
0.000265858
0.000265123
0.000257798
0.00023071
0.000205954
0.000194015
0.000191044
0.000192452
0.000202908
0.000239958
0.000344936
0.000617583
0.00131569
0.00322825
0.00614888
0.00838499
0.00915429
0.00910799
0.00872323
0.00810267
0.00683251
0.00393332
0.00192712
0.00128671
0.00131037
0.00197134
0.00462463
0.0128218
0.0381834
0.105524
0.176325
0.218489
0.227891
0.224858
0.206823
0.166023
0.146885
0.142584
0.143403
0.146534
0.159476
0.175925
0.173266
0.145998
0.130058
0.0315368
0.0567543
0.0967565
0.105206
0.0969466
0.091637
0.0917275
0.093747
0.0964169
0.0978415
0.0983417
0.0985807
0.0987144
0.0987441
0.0985672
0.0978952
0.0970534
0.0953184
0.0928391
0.0908688
0.0884628
0.0852652
0.0815945
0.0795029
0.0786517
0.0778659
0.0772366
0.0767895
0.0746655
0.0712872
0.0650917
0.0501911
0.0384302
0.0359961
0.0368668
0.0430337
0.0517357
0.0584502
0.061505
0.0637238
0.0680183
0.0773004
0.0910566
0.107019
0.120309
0.130206
0.13732
0.141948
0.143099
0.141697
0.140988
0.141571
0.139023
0.127816
0.108825
0.116648
0.148721
0.143017
0.10158
0.0852028
0.0792519
0.0725931
0.0664792
0.0635966
0.0590499
0.0499594
0.0387926
0.0280757
0.0214288
0.0188164
0.0173515
0.0159938
0.0155049
0.0163416
0.0190545
0.0247932
0.0332837
0.0407125
0.0448387
0.0467188
0.0473321
0.0471303
0.0445079
0.0418883
0.0394363
0.0368282
0.0346059
0.0327682
0.0316905
0.0312498
0.0310985
0.0311541
0.0314665
0.0319799
0.0324831
0.0327949
0.0327533
0.0325365
0.0321027
0.0321628
0.0320045
0.0294503
0.0232322
0.0194817
0.0180221
0.0180134
0.0181629
0.018067
0.0172286
0.013052
0.00673289
0.003459
0.00252848
0.00266143
0.00422652
0.0102915
0.0139723
0.014453
0.0133686
0.00843897
0.00406045
0.0020257
0.0012446
0.000931974
0.000705681
0.000499704
0.00036194
0.000295161
0.000279781
0.000282687
0.000284179
0.000269275
0.000233193
0.000215512
0.000210533
0.000210353
0.000211526
0.000211662
0.000209698
0.000198528
0.000176944
0.000162783