/*--------------------------------*- C++ -*----------------------------------*\
  =========                 |
  \\      /  F ield         | OpenFOAM: The Open Source CFD Toolbox
   \\    /   O peration     | Website:  https://openfoam.org
    \\  /    A nd           | Version:  9
     \\/     M anipulation  |
\*---------------------------------------------------------------------------*/
FoamFile
{
    format      ascii;
    class       volScalarField;
    location    "0.072";
    object      nut;
}
// * * * * * * * * * * * * * * * * * * * * * * * * * * * * * * * * * * * * * //

dimensions      [0 2 -1 0 0 0 0];

internalField   nonuniform List<scalar> 
12225
(
3.80429e-10
0
0
0
0
0
0
0
0
0
0
0
0
0
0
1.2432e-09
2.59784e-09
2.65137e-08
3.86044e-10
0
0
0
0
0
0
0
0
0
0
0
0
0
0
1.13865e-09
1.15512e-09
5.769e-09
2.88294e-10
0
0
0
0
0
0
3.2342e-11
0
0
0
0
0
1.118e-10
0
1.57009e-09
2.19462e-10
5.20288e-09
0
0
0
0
1.10883e-09
2.49768e-09
2.45096e-09
1.88164e-09
4.34965e-10
0
0
0
0
3.40084e-10
0
4.76112e-09
0
1.80942e-08
0
2.10239e-08
0
0
0
0
0
0
0
0
0
0
0
0
0
0
0
0
0
0
3.58257e-09
0
0
0
0
0
0
0
0
0
0
0
0
0
0
0
0
6.73403e-08
1.1509e-07
0
0
0
0
0
0
0
0
0
0
0
0
0
0
0
2.22125e-07
7.3657e-07
1.64601e-06
0
0
0
0
0
0
0
0
0
0
0
0
0
0
0
0
1.74495e-07
2.07204e-06
0
0
0
0
0
0
0
0
0
0
0
0
0
0
0
0
0
0
0
0
0
0
0
0
0
0
0
0
0
0
0
0
0
0
0
0
0
0
0
0
0
0
0
0
0
0
0
0
0
0
5.66156e-09
0
0
0
0
0
0
2.77519e-07
5.17467e-07
1.00805e-07
0
1.44897e-07
2.74604e-07
2.06258e-07
1.25713e-07
5.66347e-08
1.75038e-08
6.46934e-09
1.16746e-08
0
0
0
0
0
0
3.29854e-07
2.28631e-07
0
1.76729e-08
4.55899e-07
9.82196e-07
9.78982e-07
7.27199e-07
3.73045e-07
7.2729e-08
0
0
0
3.0923e-07
0
0
0
2.58914e-07
2.42515e-07
0
0
0
1.66993e-07
8.15627e-07
1.45842e-06
1.58735e-06
8.48071e-07
1.42816e-07
0
0
0
0
2.38291e-06
0
0
0
0
0
0
0
0
1.65581e-07
5.46932e-07
6.07422e-07
4.46776e-07
2.21849e-07
5.09378e-08
0
0
0
0
4.50495e-07
0
0
0
0
0
0
0
0
2.21995e-07
2.79186e-07
2.58555e-07
2.0954e-07
1.49068e-07
9.38634e-08
0
0
2.83646e-07
1.41328e-07
3.60279e-07
0
0
0
0
0
3.05091e-08
1.40196e-07
1.98334e-07
1.91169e-07
1.36935e-07
8.32643e-08
6.85365e-08
9.094e-08
0
0
2.68025e-07
1.21785e-07
0
0
0
0
1.3163e-07
2.56074e-07
3.34194e-07
4.5959e-07
5.5109e-07
5.06295e-07
3.86979e-07
2.82538e-07
2.2221e-07
1.89075e-07
0
3.67261e-07
8.96233e-07
5.13674e-07
0
0
0
0
0
0
0
0
1.38876e-07
3.66308e-07
5.20404e-07
5.64708e-07
5.12301e-07
4.14342e-07
0
1.13295e-07
6.57945e-07
7.75443e-07
0
0
0
0
0
0
0
1.41584e-08
3.23687e-07
5.41581e-07
4.6886e-07
2.29335e-07
2.51646e-08
0
0
0
4.23504e-07
1.75051e-06
0
0
0
0
0
0
0
6.62471e-08
1.64716e-07
3.05645e-07
4.17444e-07
3.61271e-07
2.02796e-07
9.70365e-08
0
6.02618e-08
1.31424e-06
1.45095e-06
0
0
0
0
0
0
0
8.18695e-08
2.95613e-08
1.67309e-08
8.08569e-08
1.79789e-07
2.73771e-07
3.32941e-07
3.30018e-07
4.36346e-07
1.24747e-06
1.34914e-06
0
0
0
0
0
0
2.63759e-08
1.30302e-07
1.90315e-08
7.18971e-08
3.32584e-07
7.14674e-07
1.10379e-06
1.45524e-06
3.5757e-07
4.57644e-07
7.00321e-07
6.68574e-07
1.2697e-07
0
5.65741e-07
0
0
0
0
1.21012e-07
6.6395e-08
1.37987e-07
3.51916e-07
5.74473e-07
8.02333e-07
1.02602e-06
0
0
4.08811e-07
4.31863e-07
1.7412e-07
3.25011e-08
4.82196e-07
7.63161e-08
1.17431e-07
4.34569e-07
5.80353e-07
6.32249e-07
6.25398e-07
3.44299e-07
1.3781e-07
2.03777e-07
5.93683e-07
1.12163e-06
0
2.54837e-07
2.59648e-07
1.1616e-07
0
0
1.26649e-07
6.21736e-08
2.23301e-07
5.33545e-07
7.48201e-07
8.30243e-07
7.093e-07
2.6514e-07
0
2.8338e-09
3.40606e-07
9.31e-07
0
0
1.78619e-08
3.98632e-09
2.49777e-09
5.44407e-09
9.90357e-09
1.21627e-08
5.95955e-09
0
0
0
0
2.21479e-09
3.89731e-09
2.74406e-09
2.12935e-11
0
6.99686e-10
0
0
0
0
0
1.09177e-10
4.28611e-10
0
0
0
0
0
0
5.70254e-12
2.22961e-11
0
0
4.55203e-10
0
0
0
0
0
0
0
0
0
0
0
0
0
0
0
0
0
4.84359e-10
0
0
0
0
0
0
0
0
0
0
0
0
0
0
0
0
0
0
8.91995e-06
2.70096e-05
2.20829e-06
0
0
0
0
2.11002e-06
2.59987e-06
1.31175e-06
0
0
0
0
0
0
0
0
0
0
0
0
0
0
0
0
0
0
0
1.82907e-08
1.08372e-07
1.6745e-07
1.42937e-07
7.25126e-08
1.07869e-07
1.22484e-07
0
0
0
0
0
0
0
0
0
1.81059e-06
0
0
0
0
0
4.58419e-07
3.54195e-06
6.46862e-06
1.03049e-05
1.04371e-05
5.38621e-06
0
0
0
0
0
2.47898e-08
2.1025e-06
1.48047e-06
1.40982e-06
1.25458e-06
1.08311e-06
9.06653e-07
7.22615e-07
5.85533e-07
4.61361e-07
3.68535e-07
2.85379e-07
2.18516e-07
1.56803e-07
1.00613e-07
4.81712e-08
0
0
0
0
0
0
0
0
0
0
0
0
0
0
0
0
0
0
0
0
0
0
0
0
0
0
0
0
0
0
0
0
0
0
0
0
0
3.05362e-07
1.60264e-07
0
0
0
0
0
0
0
0
0
0
0
0
0
0
0
0
0
6.68651e-10
2.0661e-09
4.14583e-09
7.12477e-09
1.01764e-08
1.23422e-08
1.32341e-08
1.21678e-08
8.58385e-09
2.96661e-09
0
0
0
0
0
4.88202e-10
8.56596e-09
1.4491e-08
1.58711e-08
9.95179e-09
0
0
0
0
0
0
0
3.83495e-09
3.05038e-08
4.65651e-08
2.64288e-08
2.18534e-08
7.44803e-10
0
0
0
0
0
0
0
0
0
2.37256e-07
2.01632e-10
0
0
0
1.43802e-07
0
0
0
0
0
2.25939e-06
3.04444e-06
2.03415e-06
3.955e-07
0
0
0
0
0
0
0
0
0
0
0
0
0
0
0
0
0
2.68703e-09
1.62328e-07
2.75362e-07
3.43057e-07
2.82119e-07
1.00283e-07
4.96308e-08
6.77762e-08
0
0
0
0
0
0
0
0
0
0
0
0
0
0
0
4.05814e-06
1.00424e-05
1.58988e-05
2.06376e-05
1.2827e-05
2.53167e-07
0
0
0
0
0
0
2.64671e-06
1.81063e-06
1.96267e-06
1.8098e-06
1.59146e-06
1.3497e-06
1.10616e-06
9.11111e-07
7.31277e-07
5.91092e-07
4.65179e-07
3.60643e-07
2.63737e-07
1.74309e-07
9.10028e-08
1.40324e-08
0
0
0
0
0
0
0
0
0
0
0
0
0
0
0
0
0
0
0
0
0
0
0
0
0
0
0
0
0
0
0
0
0
0
0
0
4.22358e-07
5.7564e-07
3.5452e-07
1.06218e-07
0
0
0
0
0
0
0
0
0
0
0
0
0
0
0
0
0
2.77823e-09
1.30086e-08
2.1297e-08
2.6894e-08
3.03039e-08
3.16543e-08
3.08269e-08
2.82559e-08
2.38543e-08
1.78483e-08
1.18005e-08
6.70404e-09
4.07667e-09
5.00982e-09
6.99265e-09
1.02005e-08
1.54689e-08
1.85767e-08
1.37736e-08
3.97577e-09
0
0
0
0
0
0
2.33119e-08
4.82381e-08
1.7941e-08
0
0
0
0
0
0
0
0
0
0
0
0
0
0
1.02805e-05
9.54798e-06
6.39931e-06
4.51668e-06
1.87769e-06
0
0
7.25147e-07
2.38364e-06
2.87848e-06
2.42811e-06
1.62323e-06
6.8622e-07
0
0
0
0
0
0
0
0
0
0
0
0
0
0
0
2.19816e-07
1.28901e-06
2.07489e-06
2.5117e-06
2.52999e-06
2.09706e-06
1.05383e-06
0
0
0
0
0
0
0
1.48294e-06
5.73935e-06
6.784e-06
5.63956e-06
2.92686e-06
0
0
0
4.48633e-06
1.19114e-05
2.1995e-05
2.88848e-05
2.29266e-05
8.80731e-06
0
0
0
0
0
0
0
1.06511e-06
4.27426e-06
4.44676e-06
7.08662e-06
6.77e-06
5.96787e-06
4.88484e-06
3.90491e-06
3.07877e-06
2.41499e-06
1.89879e-06
1.46693e-06
1.10412e-06
7.94189e-07
5.36344e-07
3.04963e-07
1.04734e-07
0
0
0
0
0
0
0
0
0
0
0
0
0
0
0
0
0
0
0
0
0
0
0
0
0
0
0
0
0
0
0
0
0
0
0
0
0
0
0
3.39212e-08
6.64435e-08
1.71958e-08
0
0
0
0
0
0
0
0
0
0
0
0
0
0
0
0
2.59714e-08
6.35898e-08
8.8955e-08
1.0325e-07
1.09634e-07
1.14172e-07
1.2328e-07
1.33643e-07
1.34555e-07
1.19419e-07
8.78142e-08
5.06622e-08
2.19177e-08
9.34565e-10
0
2.28768e-08
9.09878e-08
1.37822e-07
1.42689e-07
1.30629e-07
8.64585e-08
3.65664e-08
3.28902e-08
3.31348e-08
0
0
4.87331e-08
0
0
0
0
0
0
0
0
0
0
0
0
0
0
7.00898e-07
1.86342e-05
6.56445e-06
4.43833e-06
3.79486e-06
3.00504e-06
2.3237e-06
1.82513e-06
2.29136e-06
3.97917e-06
5.50363e-06
6.7235e-06
7.62613e-06
8.23387e-06
8.54125e-06
8.40405e-06
7.62818e-06
5.99502e-06
3.42726e-06
6.61704e-08
0
0
0
0
0
0
0
0
1.96555e-06
5.11317e-06
5.51485e-06
4.31778e-06
2.81822e-06
1.4856e-06
1.03452e-06
1.39831e-06
1.14043e-06
0
0
0
0
1.5356e-06
1.2518e-05
1.74435e-05
1.45662e-05
9.54985e-06
4.40074e-06
1.17761e-07
0
0
0
0
0
0
1.75163e-09
1.60462e-06
0
0
0
0
0
0
0
0
0
4.60358e-06
5.80563e-06
6.78636e-06
4.74453e-06
3.89549e-06
2.61188e-06
2.21614e-06
1.7277e-06
1.53601e-06
1.43903e-06
1.32822e-06
1.31589e-06
1.19873e-06
1.13206e-06
9.45943e-07
6.24936e-07
7.65085e-08
0
0
0
0
0
0
0
0
0
0
0
0
0
0
0
0
0
0
0
0
0
0
0
0
0
0
0
0
0
0
0
0
0
0
0
0
0
0
0
0
0
0
0
0
0
0
0
0
0
0
0
0
0
0
0
0
0
0
0
6.64801e-08
1.25781e-07
1.08737e-07
6.40642e-09
0
0
0
2.32107e-08
2.01726e-07
3.26691e-07
2.02766e-07
0
0
1.71845e-06
2.18822e-06
1.03784e-06
8.81586e-08
0
0
0
0
8.08141e-07
1.46996e-06
1.81989e-06
2.32634e-06
0
0
0
5.62309e-06
1.49946e-06
0
0
0
0
0
0
0
0
5.76838e-07
2.01642e-06
1.5522e-05
7.34495e-06
3.15719e-06
1.95109e-06
2.40732e-06
3.60128e-06
6.04675e-06
8.35157e-06
9.53154e-06
9.92599e-06
9.79911e-06
8.92204e-06
6.82437e-06
3.04801e-06
0
0
0
0
0
0
0
0
0
0
0
0
0
1.75163e-06
3.27952e-06
3.4267e-06
2.73348e-06
1.83631e-06
7.97215e-07
4.94834e-08
0
0
0
0
0
0
0
4.11547e-08
2.6096e-06
4.04798e-06
1.63506e-06
0
0
0
0
0
0
0
0
0
0
0
0
0
0
0
0
0
0
1.12343e-06
4.43861e-06
3.2639e-06
2.80484e-06
1.25992e-06
7.00148e-07
1.55455e-07
6.76637e-09
0
0
0
0
0
0
9.13136e-09
9.56087e-08
1.29185e-07
1.52631e-08
0
0
0
0
0
0
0
0
0
0
0
0
0
0
0
0
0
0
0
0
0
0
0
0
0
0
0
0
0
0
0
0
0
0
0
0
0
0
0
0
0
0
0
0
0
0
0
0
0
0
0
0
0
0
0
0
0
0
0
0
1.56261e-10
1.12166e-07
9.92479e-08
0
0
0
0
8.28978e-08
4.36898e-07
4.19227e-07
0
7.60632e-07
3.25641e-06
2.533e-06
1.00708e-06
0
0
0
0
0
1.75283e-06
2.71074e-06
3.63919e-06
3.84038e-06
8.02691e-07
0
0
3.29014e-06
1.42598e-05
0
0
0
0
0
0
0
1.14832e-07
1.57912e-06
3.19628e-06
3.09071e-06
3.40377e-06
2.51464e-06
2.72106e-06
4.21233e-06
6.34454e-06
8.15171e-06
8.82997e-06
8.47902e-06
6.52273e-06
2.16398e-06
0
0
0
0
0
0
0
0
0
0
0
0
0
0
0
9.96587e-07
1.87865e-06
1.98951e-06
1.50707e-06
9.16316e-07
5.76302e-07
3.14818e-07
0
0
0
0
0
0
0
0
0
0
0
0
0
0
0
0
0
0
0
0
0
0
0
0
0
0
0
0
0
0
2.89226e-06
3.06109e-06
2.79243e-06
2.61267e-06
1.51061e-06
9.41211e-07
4.28993e-07
1.56333e-07
3.94004e-08
6.15882e-09
6.2482e-08
1.89152e-07
3.88037e-07
6.26083e-07
8.8168e-07
1.03609e-06
9.01332e-07
3.60777e-07
0
0
0
0
0
0
0
0
0
0
0
0
0
0
0
0
0
0
0
0
0
0
0
0
0
0
0
0
0
0
0
0
0
0
0
0
0
0
0
0
0
0
0
0
0
0
0
0
0
0
0
0
0
0
0
0
0
0
0
0
0
0
0
0
0
0
0
0
3.54772e-07
3.37935e-07
4.0208e-08
1.92371e-06
4.01738e-06
2.95103e-06
1.347e-06
5.10194e-07
0
0
0
4.661e-07
1.68414e-06
2.38248e-06
2.84523e-06
1.31081e-06
0
0
0
6.89754e-06
1.29263e-05
4.69306e-06
0
0
0
0
0
0
0
3.13905e-06
5.03262e-06
2.91843e-07
6.2774e-07
1.16017e-06
3.38306e-06
5.70393e-06
7.00359e-06
6.72696e-06
4.69881e-06
0
0
0
0
0
0
0
0
0
0
0
0
0
0
0
0
0
0
0
0
0
8.75252e-08
2.64274e-07
9.50588e-08
1.15923e-07
5.93085e-07
7.7197e-07
1.79953e-07
0
0
0
0
0
0
0
0
0
0
0
3.40936e-06
0
0
0
0
0
0
0
0
0
0
0
0
0
0
0
2.87139e-06
1.56215e-06
2.42973e-06
2.48881e-06
1.75409e-06
1.27112e-06
6.89179e-07
4.01273e-07
2.82067e-07
2.86027e-07
4.14522e-07
6.3591e-07
9.63504e-07
1.37214e-06
1.85531e-06
2.24622e-06
2.0913e-06
8.71084e-07
0
0
0
0
0
0
0
0
0
0
0
0
0
0
0
0
0
0
0
0
0
0
0
0
0
0
0
0
0
0
0
0
0
0
0
0
0
0
0
0
0
0
0
0
0
0
0
0
0
0
0
0
0
0
0
0
0
0
0
0
0
0
0
0
0
0
0
0
0
2.4393e-10
3.31465e-07
3.25417e-06
4.74006e-06
3.22486e-06
1.58236e-06
1.16256e-06
3.52795e-07
0
0
7.03624e-07
9.02224e-07
1.25177e-06
9.66815e-07
0
0
0
1.58342e-06
1.01451e-05
1.18918e-05
7.21226e-06
0
0
0
0
0
0
0
4.95535e-06
7.60844e-06
0
0
3.21866e-07
4.24128e-06
5.58978e-06
4.35762e-06
4.27811e-08
0
0
0
0
8.88164e-07
2.06609e-07
0
0
0
0
0
0
0
0
0
0
0
0
0
0
0
0
0
0
2.87308e-07
9.47571e-07
5.32189e-07
0
0
0
0
0
0
0
0
7.03711e-07
1.73978e-06
2.31886e-06
3.50188e-06
5.82282e-06
4.94467e-06
5.77147e-07
0
0
0
0
0
0
0
0
0
0
0
0
0
4.74294e-07
2.00267e-06
6.39572e-07
2.19861e-06
2.13419e-06
1.69986e-06
1.27253e-06
7.22668e-07
4.99056e-07
3.99689e-07
4.59496e-07
6.34083e-07
9.12364e-07
1.33818e-06
1.91998e-06
2.74051e-06
3.75587e-06
4.60665e-06
3.50761e-06
0
0
0
0
0
0
0
0
1.11742e-07
2.01809e-07
2.30306e-07
2.38337e-07
2.55274e-07
2.65191e-07
2.17277e-07
1.56146e-07
9.37406e-08
0
0
0
0
0
0
0
0
0
0
0
0
0
0
0
0
0
0
0
0
0
0
0
0
0
0
0
0
0
0
0
0
0
0
0
0
0
0
0
0
0
0
0
0
0
0
0
0
0
0
0
0
0
1.54987e-06
5.26358e-06
5.56394e-06
3.44676e-06
1.78301e-06
2.00816e-06
1.25952e-06
3.10108e-07
5.66621e-07
3.44684e-07
7.66178e-08
0
0
0
0
1.8017e-07
6.54968e-06
1.27275e-05
1.20309e-05
7.44007e-06
1.85883e-06
0
0
0
0
0
0
5.66478e-06
1.04956e-05
0
0
8.78237e-08
2.62481e-06
0
0
0
0
2.20826e-06
2.99749e-06
2.68378e-06
1.96443e-06
1.2882e-06
8.07684e-07
6.41179e-07
7.19864e-07
7.57459e-07
6.02259e-07
3.35965e-07
0
0
0
0
0
0
0
0
0
0
0
4.27394e-07
6.00797e-07
0
0
0
0
0
0
0
3.01322e-06
4.89819e-06
5.58015e-06
5.70047e-06
5.67236e-06
5.77848e-06
6.31796e-06
6.5459e-06
2.92299e-06
0
0
0
0
0
0
0
0
0
0
0
0
0
0
1.24882e-06
8.58256e-07
3.16285e-07
2.02792e-06
1.64815e-06
1.4959e-06
1.09866e-06
6.10378e-07
4.51356e-07
3.42612e-07
3.78752e-07
4.12434e-07
4.2785e-07
4.38263e-07
4.38258e-07
4.64422e-07
4.82197e-07
4.61295e-07
3.40165e-07
5.85175e-08
0
0
1.79657e-07
3.77598e-07
4.10761e-07
3.15297e-07
1.52208e-07
0
0
0
0
0
0
0
0
0
0
0
0
0
0
0
0
0
0
0
0
0
0
0
0
0
0
0
0
0
0
0
0
0
0
0
0
0
0
0
0
0
0
0
0
0
0
0
0
0
0
0
0
0
0
0
0
0
0
0
0
0
2.49628e-07
4.16321e-06
6.23103e-06
6.02666e-06
3.79679e-06
2.08084e-06
3.14618e-06
2.35617e-06
1.16246e-06
2.69615e-07
0
0
0
0
0
4.90122e-07
3.47568e-06
9.742e-06
1.44177e-05
1.28836e-05
7.37405e-06
1.90305e-06
0
0
0
0
0
0
3.93173e-06
1.30262e-05
0
0
0
0
0
0
0
1.49005e-06
2.73745e-06
3.33859e-06
3.18368e-06
2.39469e-06
1.29712e-06
2.46642e-07
0
0
0
0
0
0
0
0
0
0
0
0
0
0
0
0
0
0
0
0
0
0
6.22727e-07
3.68233e-06
5.31124e-06
6.04773e-06
6.35507e-06
6.46899e-06
6.37848e-06
6.25468e-06
6.19644e-06
5.7131e-06
3.22008e-06
6.45709e-07
0
0
0
0
0
0
0
0
0
0
0
0
0
0
1.27676e-06
0
3.82485e-07
1.91529e-06
1.28557e-06
1.39566e-06
9.49566e-07
5.14043e-07
3.46319e-07
1.68307e-07
9.0364e-08
0
0
0
0
0
1.32059e-07
2.65694e-07
0
0
0
0
0
0
0
0
0
0
0
0
0
0
0
0
0
0
0
0
0
0
0
0
0
0
0
0
0
0
0
0
0
0
0
0
0
0
0
0
0
0
0
0
0
0
0
0
0
0
0
0
0
0
0
0
0
0
0
0
0
0
0
0
0
0
0
0
0
0
1.74962e-06
4.65334e-06
4.78369e-06
5.3475e-06
4.01466e-06
2.36877e-06
2.94016e-06
2.70796e-06
2.23238e-06
0
0
0
0
0
0
1.55501e-06
6.28371e-06
1.21669e-05
1.53849e-05
1.35647e-05
7.48074e-06
1.58912e-06
0
0
0
2.70515e-06
2.24896e-06
0
1.56066e-06
1.45256e-05
0
0
0
0
0
0
0
0
0
0
0
0
0
0
0
0
0
0
0
0
0
0
0
0
0
0
0
0
0
0
0
0
0
0
1.0453e-06
2.96014e-06
4.09782e-06
5.13609e-06
6.01894e-06
6.30643e-06
6.07978e-06
5.61311e-06
4.99142e-06
3.98721e-06
2.43311e-06
1.02605e-06
5.50559e-07
2.95548e-07
0
0
0
0
0
0
0
0
0
0
0
0
0
0
1.02587e-06
0
5.81748e-07
1.79326e-06
1.08317e-06
1.41992e-06
8.82398e-07
4.84797e-07
2.71165e-07
4.24066e-08
0
0
0
8.76785e-08
4.34943e-07
1.0317e-06
1.8816e-06
2.29365e-06
0
0
0
0
0
0
0
0
0
0
0
0
0
0
0
0
0
0
0
0
0
0
0
0
0
0
0
0
0
0
0
0
0
0
0
0
0
0
0
0
0
0
0
0
0
0
0
0
0
0
0
0
0
0
0
0
0
0
0
0
0
0
0
0
0
0
0
0
0
0
1.80992e-06
2.28847e-06
2.02308e-06
2.57464e-06
1.84004e-06
7.99112e-08
0
1.17766e-06
2.51821e-06
0
0
0
0
0
0
1.59745e-06
7.35332e-06
1.30349e-05
1.54629e-05
1.34281e-05
7.07508e-06
1.29599e-06
0
0
7.64411e-07
4.75328e-06
8.10345e-06
3.40782e-06
1.929e-06
1.47087e-05
0
0
0
0
0
0
0
0
0
0
0
0
0
0
0
0
0
0
0
0
0
0
0
0
0
0
0
0
0
0
0
0
2.73481e-07
2.1866e-06
2.96161e-06
3.52333e-06
4.33816e-06
5.33834e-06
5.8607e-06
5.49015e-06
4.513e-06
3.48224e-06
2.26067e-06
3.73018e-07
0
0
0
6.5302e-07
6.16588e-07
3.72868e-08
0
0
0
0
0
0
0
0
0
0
0
0
6.8605e-07
0
7.12189e-07
1.62815e-06
9.85322e-07
1.61171e-06
1.02437e-06
6.35619e-07
3.45055e-07
1.21231e-07
1.47755e-07
2.76376e-07
5.39808e-07
1.01086e-06
1.86774e-06
3.3838e-06
5.85798e-06
4.63445e-06
0
0
0
0
0
0
0
0
0
0
0
0
0
0
0
0
0
0
0
0
4.98778e-07
4.08309e-07
0
0
0
0
0
0
0
0
0
0
0
0
0
0
0
0
8.69335e-08
6.22581e-08
0
0
0
0
0
0
0
0
0
0
0
0
0
0
0
0
0
0
0
0
0
0
0
0
0
0
0
0
0
0
0
0
0
0
0
0
0
1.34989e-07
1.38469e-06
0
0
0
0
0
0
0
5.56321e-06
1.09992e-05
1.36467e-05
1.20527e-05
5.96691e-06
6.33231e-07
0
6.06522e-07
1.81681e-06
5.42181e-06
1.12564e-05
8.74123e-06
4.88025e-06
1.38966e-05
0
0
0
0
0
0
0
0
0
0
0
0
0
0
0
8.49922e-08
8.14436e-07
1.55192e-06
2.08095e-06
2.25561e-06
1.98413e-06
1.16635e-06
0
0
0
0
0
3.2936e-06
5.56255e-06
3.70869e-06
9.15203e-07
9.73459e-07
1.44209e-06
1.97538e-06
2.53115e-06
3.20293e-06
4.29236e-06
5.3805e-06
5.50929e-06
4.33035e-06
3.09434e-06
2.37188e-06
6.81736e-07
0
0
0
0
1.03491e-06
1.48929e-06
8.73358e-07
0
0
0
0
0
0
0
0
0
0
0
1.21347e-07
3.6702e-07
0
9.26477e-07
1.65151e-06
1.23379e-06
2.32665e-06
1.45576e-06
8.56055e-07
4.71945e-07
3.38055e-07
5.37538e-07
8.47571e-07
1.30083e-06
2.02609e-06
3.144e-06
4.25513e-06
4.08062e-06
0
0
0
0
0
0
0
0
0
0
0
0
0
0
0
0
0
0
0
0
7.62436e-07
1.75147e-06
1.35201e-06
9.27928e-08
0
0
0
0
0
0
0
0
0
0
0
0
0
0
0
2.32993e-07
9.43092e-08
0
0
0
0
0
0
0
0
0
0
0
0
0
0
0
0
0
0
0
0
0
0
0
0
0
0
0
0
0
0
0
0
0
0
0
0
0
0
7.05122e-07
1.71166e-08
0
0
0
0
0
0
1.60713e-08
5.08623e-06
8.46632e-06
8.35738e-06
4.29241e-06
0
0
1.25532e-06
2.67675e-06
5.40095e-06
1.23047e-05
1.24375e-05
8.3707e-06
1.27283e-05
0
0
0
0
0
0
0
0
0
0
0
0
0
1.50718e-07
1.41983e-06
2.55414e-06
3.48983e-06
4.08785e-06
4.15261e-06
3.58062e-06
2.57292e-06
1.3621e-06
2.37616e-07
0
3.48223e-07
2.00038e-06
3.86755e-06
5.08415e-06
5.21973e-06
4.05308e-06
1.7794e-06
3.52187e-07
3.60466e-07
1.01105e-06
1.8851e-06
2.84611e-06
4.23969e-06
5.63251e-06
5.3475e-06
3.6464e-06
2.67745e-06
1.72747e-06
0
0
0
0
0
6.72696e-07
2.00643e-06
1.77165e-06
7.43745e-07
0
0
0
0
0
0
0
0
0
0
6.49435e-07
1.16384e-07
0
1.24695e-06
1.80589e-06
1.60725e-06
3.37448e-06
1.69979e-06
8.53806e-07
4.96435e-07
4.65054e-07
7.72734e-07
1.15747e-06
1.54651e-06
1.80053e-06
1.79617e-06
1.29431e-06
3.15678e-08
0
0
0
0
1.09291e-06
1.76848e-06
1.9056e-06
1.79596e-06
1.57527e-06
1.30249e-06
1.02539e-06
7.81809e-07
5.82078e-07
3.65232e-07
1.09185e-07
0
0
0
0
6.35969e-07
2.16401e-06
2.61515e-06
1.82418e-06
4.0293e-08
0
0
0
4.43529e-08
0
0
0
0
0
0
0
0
0
0
0
6.02444e-08
2.00374e-07
0
0
0
0
0
0
0
0
0
0
0
0
0
0
0
0
0
0
0
0
0
0
0
0
0
0
0
0
0
0
0
0
0
0
0
0
0
0
4.00183e-07
5.82036e-08
0
0
0
0
0
0
0
0
4.83533e-07
2.37989e-06
1.10603e-06
0
0
1.37228e-06
3.32671e-06
5.04091e-06
1.17109e-05
1.48469e-05
1.13204e-05
1.18115e-05
0
0
0
0
0
0
0
0
0
0
0
0
0
0
1.05206e-06
3.39026e-06
5.52749e-06
7.13291e-06
7.8032e-06
7.29274e-06
6.14392e-06
5.17876e-06
4.65683e-06
4.54063e-06
4.75043e-06
5.09366e-06
5.28216e-06
5.0413e-06
4.27439e-06
2.97463e-06
1.22675e-06
0
0
0
8.0699e-07
2.08486e-06
3.72931e-06
5.7225e-06
5.55994e-06
3.25164e-06
1.72982e-06
0
0
0
0
0
0
0
1.00285e-06
1.2766e-06
8.0868e-07
1.15139e-07
0
0
0
0
0
0
0
0
0
1.03299e-06
0
0
1.65642e-06
1.98891e-06
1.74671e-06
4.30694e-06
1.23425e-06
5.39928e-07
2.81042e-07
2.75244e-07
5.5335e-07
7.86483e-07
7.03286e-07
2.78044e-07
0
0
0
0
0
0
0
0
0
0
2.84341e-08
5.46324e-07
6.97435e-07
6.30795e-07
4.77906e-07
3.25639e-07
1.66077e-07
0
0
0
0
0
6.09415e-07
1.66585e-06
2.40432e-06
1.80632e-06
0
0
0
0
0
0
0
0
0
0
1.16008e-08
0
0
0
0
0
0
3.62684e-07
3.75756e-08
0
0
0
0
0
0
0
0
0
0
0
0
0
0
0
0
0
0
0
0
0
0
0
0
0
0
0
0
0
0
0
0
0
0
0
0
0
2.37214e-07
1.23526e-07
0
0
0
0
0
0
0
0
0
0
0
0
0
9.88978e-07
3.60999e-06
4.51609e-06
1.00741e-05
1.59883e-05
1.3506e-05
1.13539e-05
0
0
0
0
0
0
0
0
0
1.42483e-06
3.32441e-06
2.51895e-06
0
0
0
0
2.14307e-06
6.437e-06
9.19069e-06
9.9214e-06
8.99073e-06
7.8585e-06
7.23383e-06
6.82573e-06
6.43521e-06
6.02393e-06
5.56576e-06
4.89286e-06
3.94015e-06
2.70243e-06
1.24746e-06
0
0
0
1.00826e-06
1.92854e-06
2.79213e-06
4.91521e-06
7.03853e-06
3.82376e-06
9.28139e-08
0
0
0
0
0
0
0
0
0
0
0
0
0
0
0
0
0
0
0
0
1.22317e-06
0
0
1.97235e-06
2.10581e-06
1.11291e-06
0
0
0
0
0
0
0
0
0
0
0
0
0
0
0
0
0
0
0
0
0
0
2.92619e-07
2.30306e-07
4.42377e-08
0
0
0
0
0
0
1.2029e-07
7.23911e-07
1.39444e-06
1.4507e-06
1.94586e-07
0
0
0
0
0
0
4.56487e-09
1.02365e-07
2.6811e-07
5.72524e-07
4.93624e-07
0
0
0
0
0
0
1.87967e-07
3.76945e-09
0
0
0
0
0
0
0
0
0
0
0
0
0
0
0
0
0
0
0
0
0
0
0
0
0
0
0
0
0
0
0
0
0
0
0
0
1.46727e-07
2.4261e-07
0
0
0
0
0
0
0
0
0
0
0
0
0
4.66467e-07
3.31419e-06
3.70199e-06
7.85626e-06
1.57971e-05
1.50669e-05
1.12589e-05
0
0
0
0
0
0
0
2.30695e-06
5.7597e-06
9.90855e-06
1.44866e-05
9.12013e-06
0
0
0
0
0
0
2.17359e-06
4.23212e-06
4.72278e-06
4.72361e-06
4.95971e-06
5.20864e-06
5.32712e-06
5.17127e-06
4.75275e-06
4.19103e-06
3.56841e-06
2.66932e-06
1.37199e-06
0
0
5.60935e-06
4.10882e-06
2.37436e-06
1.63557e-06
1.6853e-06
3.67281e-06
6.31648e-06
1.10099e-06
0
0
0
0
0
0
0
0
0
0
0
0
1.77994e-07
0
0
0
0
0
0
0
1.22088e-06
0
0
1.92746e-06
1.87262e-06
3.104e-07
0
0
2.19684e-08
0
0
0
0
0
0
0
0
0
0
0
0
0
0
0
0
0
0
0
3.8339e-07
4.58269e-07
2.36968e-07
2.36801e-08
0
0
0
0
0
8.20989e-08
2.97111e-07
5.95506e-07
9.403e-07
7.32412e-07
0
0
0
0
0
6.82591e-09
3.38937e-07
4.5062e-07
5.24728e-07
6.63592e-07
7.2214e-07
3.57507e-07
0
0
0
0
0
0
5.76506e-09
0
0
0
0
0
1.36836e-08
1.85091e-08
0
0
0
0
0
0
0
0
0
0
0
0
0
0
0
0
0
0
0
0
0
0
0
0
0
0
0
0
0
7.88614e-08
3.76594e-07
0
0
0
0
0
0
0
0
0
0
0
0
0
1.19471e-07
2.22306e-06
2.15103e-06
4.91899e-06
1.40048e-05
1.59395e-05
1.12896e-05
0
0
0
0
0
0
7.68376e-07
3.05893e-06
6.10181e-06
9.63487e-06
9.84054e-06
0
0
0
0
0
0
0
0
6.69531e-07
1.41461e-06
1.23114e-06
1.29576e-06
2.09087e-06
3.09338e-06
3.66854e-06
3.69473e-06
3.39265e-06
3.07525e-06
2.64771e-06
1.40227e-06
0
0
2.39632e-06
2.3661e-06
1.27103e-06
5.56615e-07
1.04477e-07
1.05897e-07
1.11051e-06
3.49643e-06
0
0
0
0
0
0
0
0
0
0
0
0
3.43333e-07
0
0
0
0
0
0
0
1.0352e-06
0
0
1.49001e-06
1.5142e-06
6.58028e-07
0
2.85623e-07
6.51978e-07
3.30825e-07
0
0
0
0
0
0
0
0
0
0
0
0
0
0
0
0
0
0
0
3.95809e-07
2.27567e-07
0
0
0
0
0
0
8.87019e-08
1.82678e-07
0
0
0
0
0
0
0
0
3.40463e-07
5.93638e-07
6.84247e-07
7.23038e-07
7.74774e-07
8.30942e-07
7.76966e-07
2.68058e-07
0
0
0
0
0
0
0
0
0
0
0
0
2.82595e-08
4.49182e-08
0
0
0
0
0
0
0
0
0
0
0
0
0
0
0
0
0
0
0
0
0
0
0
0
0
0
0
0
0
4.65595e-07
0
0
0
0
0
0
0
0
0
0
0
0
1.68862e-06
1.36621e-07
1.64686e-07
0
6.81207e-07
1.0231e-05
1.57872e-05
1.12855e-05
0
0
0
0
0
0
0
0
0
0
0
0
0
0
0
6.73364e-07
0
0
0
0
5.22719e-07
5.67025e-07
3.38553e-07
3.23354e-07
7.1762e-07
1.68276e-06
2.3073e-06
2.31529e-06
2.25166e-06
2.24466e-06
1.39221e-06
0
0
0
5.58857e-07
3.7626e-07
6.75651e-08
0
0
0
0
5.89611e-07
0
0
0
0
0
0
0
0
0
0
0
0
5.95313e-08
0
0
0
0
0
0
8.96039e-07
0
0
1.13284e-06
1.37692e-06
2.96399e-06
1.50223e-06
8.10197e-07
7.63215e-07
6.19221e-07
4.00457e-07
2.04255e-07
0
0
0
0
0
0
0
0
0
0
0
0
0
0
0
0
0
1.91047e-07
1.60191e-07
0
0
0
0
0
0
0
2.62089e-07
9.60921e-08
0
0
0
3.45288e-07
8.99501e-07
9.938e-07
6.9051e-07
4.27929e-07
5.5149e-07
7.29565e-07
8.27285e-07
8.54765e-07
8.62091e-07
8.54396e-07
6.69579e-07
1.35601e-07
0
0
0
0
0
0
0
3.69181e-08
2.58154e-08
0
0
0
3.83517e-08
5.41938e-08
0
0
0
0
0
0
0
0
0
0
3.7604e-07
0
0
0
0
0
0
0
0
0
0
0
0
1.43679e-08
1.59436e-08
0
0
0
4.17643e-07
6.7222e-07
1.2244e-07
0
0
0
0
0
0
0
0
0
1.70743e-06
6.61648e-06
4.95125e-07
0
0
0
3.95122e-06
1.38791e-05
1.08518e-05
0
2.31386e-08
5.81326e-08
0
0
0
0
0
0
0
0
0
0
0
1.8155e-06
3.47408e-06
1.86595e-06
0
0
3.54773e-07
6.10858e-07
3.43681e-07
9.56307e-08
3.99437e-08
6.22569e-08
1.90609e-07
6.82194e-07
1.13225e-06
1.26777e-06
1.50874e-06
1.26084e-06
0
0
0
0
0
0
0
0
0
0
0
0
0
0
0
0
0
0
0
0
0
0
0
0
1.37541e-07
0
0
0
0
0
9.51596e-07
3.48249e-07
5.21608e-07
1.79905e-06
3.19894e-06
7.34418e-06
4.02416e-06
1.46668e-06
7.35287e-07
5.66215e-07
5.74364e-07
5.72955e-07
4.39173e-07
1.37521e-07
0
0
0
0
0
0
0
0
0
0
0
0
0
0
0
1.53469e-08
1.64963e-07
2.83291e-09
0
0
0
0
0
0
3.06853e-07
4.62165e-07
2.21066e-07
2.69759e-08
6.74768e-07
1.56952e-06
1.99182e-06
2.02213e-06
1.72666e-06
1.06245e-06
7.59799e-07
8.27514e-07
8.89004e-07
8.03676e-07
7.11331e-07
6.94545e-07
5.81726e-07
3.80521e-07
9.65917e-08
0
0
0
0
0
0
4.66444e-08
9.54568e-08
7.37507e-08
2.83965e-08
6.68024e-09
1.72855e-08
5.37567e-08
5.14103e-08
0
0
0
0
0
0
0
0
3.28188e-08
2.39902e-07
2.2433e-07
0
0
0
0
0
0
0
0
0
0
6.59401e-08
1.38551e-07
4.20652e-08
0
0
0
0
0
0
0
0
0
0
0
0
0
0
0
8.57466e-06
1.37279e-05
8.48418e-07
0
0
0
0
8.90557e-06
9.15814e-06
1.65521e-07
3.80425e-07
9.49196e-07
1.63382e-06
2.01833e-06
1.76826e-06
4.8782e-07
0
0
0
0
0
2.14033e-07
7.25174e-06
5.46481e-06
4.77147e-06
4.28187e-06
1.89315e-06
1.93164e-06
1.62096e-06
1.05659e-06
3.89277e-07
1.3283e-08
0
1.04454e-08
1.85206e-08
3.85271e-08
1.88703e-07
4.21831e-07
7.51966e-07
1.02247e-06
0
0
0
0
0
5.62235e-08
5.18538e-08
6.08096e-08
1.46201e-07
1.72779e-07
0
0
0
0
0
0
0
6.92597e-07
8.46609e-07
5.14856e-07
9.55143e-08
0
0
3.47546e-08
6.0792e-07
4.16925e-07
0
0
0
2.11991e-07
1.39911e-06
1.68647e-06
2.19358e-06
4.17461e-06
8.09046e-06
1.11788e-05
6.12648e-06
2.64299e-06
1.1837e-06
5.95294e-07
4.01883e-07
3.85385e-07
3.70804e-07
2.63537e-07
5.31752e-08
0
0
0
3.21901e-07
2.40436e-07
0
0
0
4.91004e-08
0
0
0
0
0
0
1.50513e-07
9.05345e-08
0
0
7.04726e-09
4.64218e-08
5.17842e-08
1.42431e-07
3.72986e-07
6.2415e-07
7.43351e-07
9.34974e-07
1.77771e-06
2.54639e-06
2.73698e-06
2.62762e-06
2.40557e-06
1.78251e-06
1.25286e-06
1.11981e-06
1.10385e-06
8.77993e-07
5.36493e-07
4.37544e-07
4.02755e-07
3.30809e-07
2.53645e-07
1.73699e-07
9.04871e-08
7.70724e-08
8.31956e-08
2.7793e-08
2.38637e-09
3.48368e-08
9.50855e-08
1.11827e-07
7.95991e-08
4.31661e-08
2.53736e-08
3.41752e-08
7.19487e-08
2.86563e-08
0
0
0
0
5.39108e-08
7.79878e-08
6.96374e-08
0
0
0
0
0
0
0
0
1.7536e-07
3.62366e-09
0
0
4.23995e-08
2.25626e-07
4.08095e-08
0
0
0
0
0
0
0
0
0
0
0
0
0
0
0
0
1.66351e-05
2.36083e-05
3.7237e-07
0
0
0
0
0
4.34203e-06
3.87943e-07
7.34604e-07
1.12109e-06
1.62386e-06
2.59699e-06
3.18177e-06
3.14173e-06
2.24521e-06
6.74728e-07
0
0
0
3.06707e-06
7.7034e-06
6.86625e-06
6.33824e-06
4.4159e-06
3.0397e-06
2.95506e-06
1.9281e-06
1.12288e-06
4.30166e-07
3.56251e-08
0
2.56743e-08
3.96746e-08
3.84712e-08
1.6409e-08
0
1.64681e-07
7.21548e-07
2.46736e-07
0
0
0
2.02961e-08
2.19052e-07
2.81658e-07
2.97175e-07
4.83258e-07
7.17111e-07
7.87054e-07
0
0
0
0
0
0
6.03539e-07
1.10594e-06
9.969e-07
4.22997e-07
0
0
8.76483e-08
8.17687e-07
1.28823e-06
5.13257e-06
1.60027e-06
4.25292e-07
1.14828e-06
2.31539e-06
3.72078e-06
4.78957e-06
8.40174e-06
1.35775e-05
1.31904e-05
7.84265e-06
4.12442e-06
2.111e-06
1.01839e-06
4.13583e-07
9.36577e-08
0
0
0
0
0
2.87971e-07
1.08245e-06
1.67438e-06
1.63485e-06
7.54853e-07
0
0
0
0
0
0
0
0
1.65219e-07
2.40765e-07
1.92483e-07
1.70117e-07
1.98026e-07
2.52503e-07
3.23167e-07
4.47942e-07
6.49546e-07
8.80874e-07
1.13199e-06
1.61404e-06
2.21842e-06
2.38005e-06
2.3625e-06
2.37086e-06
2.39127e-06
2.0206e-06
1.51402e-06
1.29924e-06
1.30607e-06
1.12581e-06
5.7385e-07
2.21044e-07
2.16631e-07
2.54292e-07
2.66115e-07
2.64518e-07
2.72761e-07
2.80033e-07
2.70685e-07
1.8133e-07
9.57951e-08
6.92498e-08
8.71146e-08
1.07705e-07
9.84924e-08
7.01908e-08
4.36012e-08
2.76785e-08
5.06484e-08
7.1189e-08
0
0
0
1.16414e-08
1.69405e-07
1.76375e-07
9.09763e-08
0
0
0
0
0
0
0
3.73754e-08
2.99745e-07
5.19956e-09
0
3.87555e-09
7.31444e-08
4.15663e-08
0
0
0
0
0
0
0
0
0
0
0
0
0
0
0
0
0
2.70573e-05
3.69484e-05
0
0
0
0
0
0
0
6.65473e-07
9.92155e-07
5.63997e-07
5.63291e-07
1.18839e-06
2.0567e-06
2.53622e-06
2.40583e-06
1.70033e-06
7.64533e-07
1.77002e-07
3.89065e-07
1.90922e-06
3.16716e-06
3.00154e-06
2.29536e-06
2.08433e-06
3.14546e-06
2.52291e-06
1.6305e-06
9.78934e-07
3.60919e-07
4.46557e-08
1.1137e-08
5.03941e-08
5.56302e-08
5.70469e-08
7.07979e-08
0
0
3.35257e-07
5.17727e-07
0
0
0
1.93662e-07
4.12037e-07
5.2497e-07
5.51559e-07
7.29617e-07
1.10729e-06
1.40218e-06
1.42461e-06
0
0
0
0
0
1.69102e-07
8.65705e-07
9.26404e-07
4.00418e-07
0
0
1.15999e-07
8.91007e-07
1.97913e-06
1.03575e-05
3.17028e-06
1.01643e-06
1.92784e-06
3.25907e-06
5.6055e-06
7.74349e-06
1.27042e-05
1.69328e-05
1.42553e-05
9.29741e-06
5.64053e-06
3.28169e-06
1.77746e-06
8.22751e-07
2.04236e-07
0
0
0
0
0
0
9.24989e-07
2.18926e-06
4.06216e-06
5.90533e-06
4.05002e-06
1.02686e-07
0
0
0
0
0
0
1.99197e-07
4.84796e-07
4.74071e-07
4.4732e-07
4.71726e-07
5.35671e-07
6.40635e-07
8.16739e-07
1.02975e-06
1.22091e-06
1.41279e-06
1.77148e-06
2.02826e-06
1.88894e-06
1.75138e-06
1.84453e-06
2.09449e-06
2.06119e-06
1.66299e-06
1.38231e-06
1.37308e-06
1.32271e-06
7.69436e-07
1.72466e-07
5.68436e-08
1.75042e-07
2.49769e-07
2.88595e-07
3.14209e-07
3.43201e-07
3.47624e-07
2.86823e-07
1.82529e-07
1.2396e-07
1.06256e-07
1.02719e-07
9.99126e-08
8.70893e-08
6.50724e-08
3.97157e-08
2.83473e-08
4.77228e-08
0
0
0
8.25471e-08
3.30339e-07
2.76088e-07
7.27371e-08
0
0
0
0
0
0
0
1.04451e-07
1.49821e-07
1.55032e-08
1.64947e-08
2.68187e-09
3.67792e-08
0
0
0
0
0
0
0
0
0
0
0
0
0
0
0
0
0
4.39977e-06
4.0577e-05
5.68402e-05
0
0
0
0
0
0
0
2.23827e-06
1.93385e-06
0
0
0
0
0
0
0
0
0
0
0
0
3.52682e-07
7.93535e-07
1.91664e-06
2.64708e-06
1.8348e-06
1.20394e-06
6.4056e-07
2.51998e-07
8.00315e-08
8.06199e-08
9.77327e-08
7.41205e-08
5.18399e-08
7.06228e-08
4.24262e-08
0
2.21736e-08
4.72161e-07
0
0
0
4.38801e-07
6.34786e-07
7.4449e-07
8.06194e-07
9.06667e-07
1.3341e-06
1.81776e-06
2.16258e-06
1.05629e-06
0
0
0
0
0
4.80102e-07
5.33259e-07
1.96313e-07
0
0
1.32326e-07
8.95746e-07
2.53927e-06
1.4076e-05
4.11119e-06
1.37599e-06
2.46505e-06
3.71326e-06
6.10688e-06
9.15227e-06
1.44e-05
1.785e-05
1.50014e-05
1.05239e-05
7.06364e-06
4.5152e-06
2.70534e-06
1.48093e-06
6.64305e-07
1.02166e-07
0
0
0
0
0
4.00875e-07
1.62533e-06
4.42693e-06
1.0758e-05
1.50312e-05
3.7935e-06
0
0
0
0
0
0
3.34546e-07
8.07505e-07
8.13762e-07
7.57783e-07
7.46882e-07
7.80061e-07
8.57806e-07
9.99212e-07
1.10696e-06
1.11757e-06
1.13635e-06
1.38242e-06
1.66266e-06
1.57655e-06
1.42966e-06
1.46117e-06
1.72284e-06
1.96572e-06
1.79188e-06
1.4981e-06
1.40526e-06
1.39983e-06
9.56154e-07
2.44296e-07
0
1.00162e-07
2.19329e-07
2.85635e-07
3.20804e-07
3.46483e-07
3.58786e-07
3.27432e-07
2.43068e-07
1.6933e-07
1.31678e-07
1.0509e-07
9.26731e-08
9.03024e-08
8.05655e-08
6.10268e-08
2.8398e-08
1.63625e-08
0
0
0
5.60305e-08
4.82425e-07
4.14757e-07
2.95698e-08
0
0
0
0
0
0
0
3.26117e-08
0
0
0
0
0
0
0
0
0
0
0
0
0
0
0
0
0
0
0
0
0
0
1.07135e-05
5.93644e-05
9.17518e-05
0
0
0
0
0
0
0
2.26906e-06
6.47425e-07
0
0
0
0
0
0
0
0
0
0
0
0
9.41632e-08
1.01342e-06
2.06337e-06
1.80575e-06
1.2466e-06
7.74275e-07
4.32762e-07
2.27115e-07
1.72198e-07
1.64723e-07
1.53038e-07
1.20228e-07
8.65096e-08
7.76318e-08
8.8863e-08
0
0
3.85897e-07
1.03572e-07
0
0
7.21458e-07
8.79889e-07
9.36904e-07
1.02516e-06
1.09533e-06
1.44023e-06
2.05603e-06
2.53982e-06
2.68187e-06
0
0
0
0
0
1.18277e-07
1.08302e-07
0
0
0
1.4073e-07
8.73654e-07
3.00877e-06
1.66791e-05
4.77699e-06
1.63562e-06
2.82131e-06
3.76807e-06
5.47292e-06
8.63226e-06
1.34292e-05
1.6815e-05
1.5223e-05
1.15833e-05
8.38017e-06
5.77491e-06
3.71793e-06
2.26254e-06
1.29573e-06
6.59619e-07
2.59486e-07
0
0
0
0
3.49189e-07
1.21467e-06
3.74973e-06
1.01459e-05
1.88314e-05
1.15591e-05
0
2.8347e-06
2.31266e-05
0
0
0
6.62227e-07
1.17872e-06
1.13695e-06
1.02109e-06
9.40848e-07
8.87854e-07
8.36636e-07
8.09291e-07
8.25269e-07
8.03686e-07
7.78041e-07
8.77305e-07
1.08273e-06
1.105e-06
1.0217e-06
1.03755e-06