/*--------------------------------*- C++ -*----------------------------------*\
  =========                 |
  \\      /  F ield         | OpenFOAM: The Open Source CFD Toolbox
   \\    /   O peration     | Website:  https://openfoam.org
    \\  /    A nd           | Version:  9
     \\/     M anipulation  |
\*---------------------------------------------------------------------------*/
FoamFile
{
    format      ascii;
    class       volScalarField;
    location    "0.072";
    object      p;
}
// * * * * * * * * * * * * * * * * * * * * * * * * * * * * * * * * * * * * * //

dimensions      [0 2 -2 0 0 0 0];

internalField   nonuniform List<scalar> 
12225
(
101.894
94.9149
91.8865
90.5612
89.8042
89.2773
88.7988
88.2302
87.5274
86.6999
85.7661
84.6827
83.4364
81.9542
80.2537
78.1908
75.8298
72.7965
101.315
94.7514
91.8419
90.5375
89.789
89.2671
88.7946
88.2343
87.5425
86.7249
85.7955
84.7229
83.4789
82.0311
80.3188
78.3624
76.0126
73.3175
100.081
94.3985
91.7212
90.4649
89.7508
89.262
88.8051
88.2554
87.5759
86.7716
85.8573
84.7995
83.5767
82.1519
80.5086
78.6227
76.4754
74.0237
97.9548
93.8572
91.5067
90.3633
89.6991
89.2423
88.8158
88.2883
87.6319
86.8482
85.945
84.9053
83.7045
82.3262
80.7527
78.9798
77.0032
74.8142
96.4481
93.1588
91.1801
90.1927
89.6234
89.2375
88.8496
88.3451
87.7036
86.9394
86.0586
85.0432
83.8773
82.5539
81.0639
79.4107
77.6081
75.686
94.2808
92.3138
90.8098
90.0443
89.5459
89.2223
88.8864
88.4188
87.806
87.0706
86.2147
85.2312
84.1094
82.8478
81.4488
79.9237
78.2991
76.6188
95.2688
91.4275
90.2414
89.7205
89.4434
89.2279
88.9507
88.5228
87.9375
87.2313
86.4052
85.4589
84.3886
83.1987
81.901
80.513
79.0656
77.6053
93.3918
90.1172
89.6062
89.4545
89.3474
89.2421
89.0356
88.6586
88.1137
87.4423
86.6542
85.7529
84.741
83.6283
82.4327
81.1779
79.8967
78.6344
89.5793
88.3262
88.6842
89.0593
89.2513
89.2872
89.1613
88.8351
88.3322
87.6941
86.944
86.0919
85.1449
84.117
83.0306
81.9133
80.7954
79.7171
84.0787
86.3422
87.8595
88.7676
89.1855
89.372
89.3292
89.0618
88.6063
88.009
87.3033
86.5052
85.6255
84.6824
83.7038
82.7188
81.7539
80.8418
78.7812
84.106
86.9007
88.3589
89.1526
89.5162
89.5646
89.3523
88.9356
88.3737
87.7103
86.9672
86.1579
85.3028
84.4307
83.5702
82.744
81.9801
76.5614
82.6091
86.4651
88.2172
89.2361
89.7332
89.8583
89.695
89.3161
88.7904
88.1672
87.4715
86.7195
85.9351
85.1495
84.3911
83.6793
83.0363
74.8901
81.144
85.4006
88.1128
89.4273
90.0535
90.2437
90.1133
89.757
89.2565
88.6674
88.0173
87.3227
86.6072
85.9012
85.2312
84.6164
84.075
71.0317
80.0941
85.4263
88.3561
89.8647
90.5711
90.8024
90.7024
90.3687
89.8905
89.3323
88.7254
88.0877
87.4433
86.8207
86.2432
85.7266
85.286
69.8159
80.2261
85.8571
89.1098
90.7406
91.4663
91.6671
91.5346
91.1848
90.7155
90.1882
89.6259
89.0448
88.4713
87.9347
87.4514
87.0304
86.6798
70.7425
80.7227
87.3377
90.8263
92.3783
92.914
92.9711
92.7446
92.3231
91.8108
91.2777
90.7415
90.2096
89.702
89.24
88.8331
88.4871
88.2085
78.839
89.242
93.6731
95.0599
95.435
95.2679
94.8973
94.4111
93.8447
93.2581
92.6891
92.1446
91.6308
91.1634
90.7557
90.4113
90.1318
89.9239
94.7369
100.301
101.53
100.685
99.5252
98.4877
97.5411
96.641
95.7927
95.0257
94.3492
93.75
93.2204
92.7642
92.383
92.0723
91.8263
91.6464
139.348
122.861
114.325
108.775
105.048
102.503
100.623
99.1554
97.9732
97.0072
96.2117
95.5474
94.9864
94.5152
94.1266
93.8125
93.5653
93.3808
146.205
129.463
119.082
112.354
107.855
104.789
102.559
100.854
99.5283
98.4703
97.6013
96.8773
96.277
95.7834
95.3822
95.061
94.81
94.6196
142.32
127.971
118.597
112.479
108.299
105.32
103.167
101.548
100.26
99.2169
98.3709
97.6779
97.1008
96.6186
96.2192
95.892
95.6288
95.4227
135.872
122.805
115.437
110.733
107.497
105.069
103.221
101.795
100.631
99.6602
98.8581
98.1861
97.6174
97.1391
96.7427
96.4178
96.1543
95.9462
119.427
114.704
111.023
108.27
106.092
104.303
102.889
101.722
100.707
99.8395
99.1148
98.505
97.9797
97.5277
97.1446
96.8229
96.5547
96.3352
108.036
107.726
106.915
105.885
104.693
103.525
102.513
101.592
100.725
99.9504
99.2827
98.6996
98.1878
97.7458
97.3721
97.0593
96.7995
96.5862
95.2887
101.259
103.307
103.739
103.452
102.827
102.123
101.39
100.654
99.9682
99.3602
98.8239
98.3463
97.9248
97.5593
97.2461
96.9794
96.7567
90.1303
97.0581
100.608
102.126
102.522
102.294
101.823
101.248
100.615
99.9893
99.4139
98.8945
98.4294
98.0181
97.6602
97.3536
97.0939
96.8759
85.3764
94.0385
98.6948
100.979
101.868
101.93
101.611
101.122
100.553
99.9793
99.4415
98.953
98.5089
98.1069
97.7482
97.4349
97.1665
96.9432
81.1852
91.916
97.4807
100.266
101.459
101.688
101.467
101.053
100.536
99.9904
99.4695
98.985
98.5414
98.1413
97.7849
97.4754
97.213
96.993
78.5134
90.7338
96.7838
99.8599
101.235
101.562
101.389
101.001
100.504
99.9789
99.4773
99.0155
98.5862
98.1868
97.823
97.5014
97.2296
97.0083
77.378
90.2221
96.5038
99.7065
101.144
101.495
101.345
100.987
100.511
99.9922
99.4909
99.0252
98.5938
98.1949
97.8338
97.5177
97.2514
97.0327
87.8659
87.5659
87.2796
87.1068
87.2606
87.7717
88.4664
89.0961
89.41
89.3655
88.9437
88.2034
87.2348
86.1142
84.8999
83.6367
82.36
81.0983
79.8758
78.7141
77.6326
76.6497
75.7819
75.0439
74.4507
74.0146
73.744
73.6554
73.7504
74.022
74.4724
75.056
75.8019
76.7038
77.6218
78.6155
79.6159
80.0049
79.3398
78.106
77.0445
76.4457
76.3002
76.7312
77.8521
79.4002
80.9869
82.2809
83.1445
83.7571
84.311
84.9192
85.826
87.1161
88.417
89.3009
89.658
89.4815
88.8651
87.8643
86.5832
84.9271
86.8006
85.7505
80.1458
70.9856
61.747
52.6408
44.4305
37.0185
30.4608
24.6774
19.5563
15.0696
11.1301
7.73909
4.8606
2.50553
0.674131
-0.621861
-1.39347
-1.62245
-1.31306
-0.47916
0.857706
2.67032
4.9256
7.58871
10.6252
14.0027
17.6933
21.6732
25.9205
30.4117
35.115
39.9856
44.9608
49.9603
54.8911
59.6553
64.1607
68.3286
72.0998
75.4367
78.3232
80.7612
82.7659
84.3618
85.5803
86.4573
87.0311
87.3403
87.4238
87.3205
87.0724
86.707
86.253
85.7314
85.155
84.5298
83.8572
83.1374
82.373
81.5698
80.7368
79.8847
79.0244
78.1606
77.2984
76.4438
75.603
74.7805
73.9801
73.205
72.4576
71.7395
71.0512
70.3921
69.7606
69.1525
68.5651
67.994
67.4347
66.8834
66.3378
65.7952
65.2504
64.6933
64.108
63.4772
62.7911
62.0558
61.3108
60.6185
60.0174
59.4879
58.9858
58.4538
57.8061
56.9505
55.831
54.4054
52.6712
50.745
48.738
46.6876
44.8236
43.471
42.6852
42.656
43.6706
46.3278
48.5432
48.3775
48.0095
49.302
50.4588
51.0432
51.1391
50.7878
86.6276
86.3815
86.2575
86.1193
86.3379
86.7884
87.3429
87.7618
87.8841
87.685
87.1906
86.4661
85.5763
84.5699
83.4823
82.3426
81.1776
80.0137
78.8757
77.7868
76.7686
75.8393
75.015
74.3128
73.7454
73.3257
73.0684
72.9708
73.0293
73.248
73.6199
74.1362
74.7406
75.4391
76.155
76.8061
77.5496
77.8153
76.8001
75.6435
75.5615
76.0382
76.4184
76.8425
77.5535
78.6102
80.0617
81.4828
82.4713
83.119
83.6509
84.0733
84.5827
85.7707
87.2963
88.5647
89.4031
89.6736
89.344
88.3086
87.4909
84.7193
81.8952
79.3004
72.463
64.3579
56.0971
48.2047
41.0186
34.4172
28.5058
23.1243
18.3269
14.0151
10.2183
6.89801
4.07722
1.75566
-0.0546573
-1.34152
-2.07504
-2.27022
-1.93196
-1.06853
0.298394
2.14171
4.42737
7.11818
10.1783
13.574
17.2771
21.2647
25.5172
30.0142
34.7277
39.6156
44.6163
49.6487
54.6165
59.418
63.9574
68.1541
71.9482
75.3031
78.2041
80.6543
82.6693
84.2737
85.4993
86.3824
86.961
87.272
87.3557
87.2476
86.9935
86.6241
86.1665
85.6433
85.069
84.4499
83.7863
83.0774
82.324
81.5308
80.7068
79.8633
79.0074
78.1452
77.2821
76.4279
75.5875
74.7657
73.9663
73.1925
72.4465
71.7299
71.0428
70.3843
69.7533
69.1447
68.5576
67.9868
67.4278
66.8769
66.3319
65.7904
65.2476
64.6937
64.1119
63.4829
62.7952
62.0534
61.2981
60.6013
60.0016
59.4756
58.9785
58.4586
57.8259
56.9821
55.8706
54.4414
52.6884
50.7497
48.7154
46.6392
44.7466
43.3294
42.4827
42.3702
43.3148
45.81
47.8464
47.632
48.2755
49.7044
50.5219
51.0276
51.1991
50.8289
87.4028
87.4095
87.4138
87.2203
86.9661
86.7752
86.6455
86.4895
86.2213
85.7992
85.2251
84.5188
83.6987
82.7808
81.7841
80.7316
79.6492
78.5639
77.502
76.4877
75.5427
74.6846
73.9291
73.2885
72.7724
72.3928
72.161
72.0916
72.1984
72.4639
72.8462
73.328
73.8614
74.3852
74.8938
75.3543
75.7161
75.9337
76.0094
76.2446
76.6442
76.9499
77.1618
77.5098
78.2403
79.519
81.0617
82.4392
83.3295
83.8372
84.1469
84.3313
84.6134
85.3
86.4457
87.6657
88.6939
89.2783
89.4202
88.4223
85.9536
81.8858
76.3055
70.4575
63.7878
57.0572
50.2494
43.6488
37.4062
31.543
26.1528
21.1648
16.6334
12.5117
8.83494
5.59597
2.81976
0.525624
-1.26534
-2.52805
-3.25446
-3.42807
-3.05774
-2.15414
-0.738985
1.15738
3.49792
6.24147
9.348
12.781
16.5107
20.515
24.7776
29.2836
34.0118
38.9263
43.9689
49.0569
54.0882
58.9536
63.5507
67.7953
71.6275
75.0128
77.9391
80.4117
82.4472
84.0709
85.314
86.2128
86.8047
87.1194
87.2038
87.0959
86.8359
86.4589
85.9945
85.467
84.8924
84.2783
83.625
82.9302
82.193
81.4163
80.6072
79.7745
78.9274
78.0754
77.226
76.3835
75.552
74.7366
73.9415
73.1704
72.4262
71.7108
71.025
70.3685
69.7382
69.1331
68.5489
67.9798
67.4216
66.8704
66.3237
65.7814
65.2408
64.6925
64.1188
63.4966
62.8069
62.0518
61.2754
60.5655
59.9653
59.4509
58.9627
58.4563
57.856
57.0462
55.9449
54.5158
52.7633
50.7692
48.6602
46.5307
44.5602
42.9881
42.0738
41.9543
42.8888
45.1856
47.4636
48.3714
48.7669
49.695
50.6743
51.2668
51.3669
51.0361
86.909
86.9696
87.0133
86.8473
86.4602
85.9908
85.5231
85.0621
84.5724
84.0169
83.3755
82.6361
81.795
80.8605
79.8565
78.8116
77.7547
76.7133
75.7122
74.7718
73.9083
73.135
72.4655
71.9133
71.4896
71.2111
71.0853
71.0941
71.273
71.6204
72.1062
72.6712
73.2581
73.8057
74.2954
74.7244
75.0794
75.3787
75.6615
75.953
76.308
76.7758
77.4185
78.3302
79.4195
80.4991
81.5236
82.4712
83.2684
83.9059
84.4683
84.9603
85.3479
85.7454
86.2944
86.981
87.6815
88.1774
87.9992
86.3419
82.3227
76.1761
69.5411
63.1472
56.8834
50.8309
44.9002
39.1245
33.5893
28.3062
23.3532
18.7101
14.4189
10.4756
6.91007
3.74319
1.00702
-1.26561
-3.04103
-4.28761
-4.98212
-5.12994
-4.71736
-3.75421
-2.26503
-0.285205
2.14199
4.96909
8.14954
11.6415
15.4121
19.4397
23.7127
28.225
32.9669
37.9133
43.0122
48.18
53.3053
58.2655
62.9464
67.2583
71.1424
74.5682
77.529
80.0336
82.1015
83.7585
85.0345
85.9639
86.5797
86.9077
87.0001
86.8935
86.6276
86.2404
85.7652
85.2297
84.652
84.0402
83.3943
82.7113
81.9898
81.2315
80.4416
79.6284
78.8012
77.9674
77.1337
76.3061
75.4897
74.6875
73.9031
73.1408
72.4042
71.6954
71.015
70.3619
69.7332
69.126
68.5417
67.9723
67.4146
66.8642
66.3185
65.7778
65.24
64.6969
64.1314
63.5168
62.8236
62.0445
61.2323
60.4998
59.9097
59.4117
58.9339
58.4467
57.8841
57.112
56.0296
54.6055
52.831
50.7738
48.5769
46.3626
44.2728
42.5293
41.4695
41.2302
42.1371
44.4181
46.8837
48.0676
48.7908
49.7866
50.7626
51.35
51.5363
51.2674
86.5981
86.5797
86.4238
86.0414
85.5031
84.9184
84.321
83.709
83.0532
82.3193
81.4892
80.5636
79.5593
78.5031
77.4243
76.3553
75.3246
74.3536
73.4559
72.6373
71.9011
71.2514
70.6944
70.2412
69.9073
69.7092
69.671
69.8254
70.1583
70.6628
71.3024
72.0256
72.7455
73.4113
73.9941
74.4401
74.7648
75.0484
75.3135
75.5631
75.8848
76.3861
77.1331
78.0877
79.0782
79.9843
80.8463
81.6766
82.4374
83.1559
83.8828
84.5838
85.1661
85.5949
85.9247
86.1825
86.3555
86.2562
85.2942
82.3136
76.557
69.397
62.9188
56.8755
51.0014
45.3497
39.8782
34.5916
29.5377
24.6927
20.1007
15.7506
11.6719
7.88161
4.413
1.30422
-1.40185
-3.65923
-5.42446
-6.65899
-7.33591
-7.4245
-6.93986
-5.88413
-4.28436
-2.18218
0.371373
3.31979
6.6071
10.1833
14.0105
18.0665
22.3458
26.8548
31.6011
36.5771
41.7426
47.0142
52.2676
57.3583
62.1532
66.5533
70.501
73.9737
76.9731
79.5146
81.6217
83.3214
84.6434
85.6177
86.2718
86.6359
86.7503
86.6526
86.3819
85.9792
85.4843
84.9318
84.3448
83.7336
83.0973
82.43
81.7268
80.9871
80.2166
79.4246
78.6192
77.8076
76.997
76.1927
75.3985
74.6177
73.8529
73.1066
72.3813
71.6797
71.0035
70.3534
69.7284
69.1273
68.5417
67.9715
67.4129
66.8621
66.3168
65.7776
65.2427
64.7035
64.1446
63.5375
62.8398
62.0315
61.1799
60.4294
59.8541
59.3753
58.9041
58.4267
57.892
57.1498
56.0854
54.6751
52.8833
50.7584
48.4682
46.1536
43.9073
41.9227
40.5648
40.1919
41.1146
43.4526
46.0858
47.6903
48.6491
49.6387
50.5966
51.2881
51.5944
51.4341
86.5205
86.2481
85.685
85.0462
84.3813
83.6924
82.9599
82.1537
81.2537
80.2588
79.1864
78.0704
76.9488
75.8553
74.8167
73.8525
72.9735
72.1812
71.4674
70.8217
70.2384
69.7191
69.2762
68.9313
68.7112
68.6409
68.7381
69.0137
69.4613
70.0865
70.8459
71.6896
72.5355
73.2768
73.887
74.3841
74.7379
74.9388
75.0781
75.2752
75.5856
76.0214
76.6202
77.3826
78.1845
78.9135
79.588
80.2702
81.0044
81.8222
82.7165
83.5933
84.3062
84.7569
84.9248
84.8127
84.4206
83.5403
81.4848
76.9456
69.9002
62.8179
56.7322
50.9815
45.4004
40.0656
34.9165
29.9909
25.2898
20.781
16.4752
12.3582
8.45284
4.78245
1.38865
-1.67788
-4.3619
-6.60587
-8.35452
-9.56244
-10.1964
-10.2301
-9.645
-8.46182
-6.71425
-4.45
-1.72902
1.38109
4.81194
8.50205
12.4048
16.4953
20.7738
25.2629
29.9949
34.9887
40.224
45.6198
51.0333
56.2878
61.2211
65.7219
69.7369
73.2552
76.2893
78.8627
81.0025
82.7393
84.1048
85.1284
85.8316
86.2484
86.4048
86.3337
86.0732
85.6664
85.1575
84.5874
83.987
83.3717
82.742
82.0904
81.4097
80.6975
79.9551
79.1878
78.4053
77.6181
76.8332
76.0544
75.2847
74.5275
73.7849
73.058
72.349
71.6607
70.9947
70.3513
69.7297
69.1283
68.5421
67.9706
67.41
66.8576
66.3124
65.7762
65.2466
64.7131
64.1602
63.5584
62.8551
62.0171
61.1305
60.3717
59.8176
59.3536
58.8797
58.4026
57.8828
57.1589
56.1167
54.734
52.9238
50.7331
48.3536
45.9266
43.4713
41.1589
39.4914
38.923
39.8447
42.2593
45.1376
47.1166
48.2278
49.2149
50.1742
50.9204
51.4069
51.3926
85.5273
85.123
84.422
83.7207
83.0092
82.2251
81.3253
80.3074
79.1951
78.0282
76.8525
75.7098
74.6342
73.65
72.77
71.996
71.3196
70.7217
70.1769
69.6666
69.1843
68.7381
68.358
68.0848
67.9545
67.9989
68.2408
68.6765
69.2936
70.049
70.9103
71.8064
72.6741
73.4753
74.1227
74.5484
74.8176
75.0253
75.1998
75.3509
75.539
75.8448
76.2779
76.7543
77.1744
77.5439
77.9523
78.4736
79.1416
79.9544
80.8565
81.7329
82.4366
82.8403
82.8634
82.4418
81.546
79.8848
76.6572
70.9001
63.3239
56.6226
50.8373
45.226
39.8735
34.8025
29.933
25.3125
20.894
16.6502
12.5674
8.62889
4.85549
1.27342
-2.06552
-5.1025
-7.77067
-10.002
-11.7325
-12.9085
-13.4919
-13.452
-12.7528
-11.4204
-9.49418
-7.02942
-4.09701
-0.778394
2.84244
6.6888
10.701
14.8472
19.1311
23.5929
28.2949
33.2916
38.5895
44.1141
49.7
55.1272
60.197
64.7883
68.8607
72.422
75.4941
78.1012
80.2699
82.0328
83.422
84.4778
85.2265
85.6939
85.9013
85.8739
85.6454
85.2574
84.7566
84.1879
83.5863
82.9712
82.3473
81.7101
81.0521
80.3681
79.6572
78.9227
78.171
77.4108
76.6509
75.8973
75.1532
74.42
73.7
72.9952
72.3061
71.6329
70.977
70.3403
69.7239
69.1264
68.5435
67.9718
67.4085
66.853
66.3057
65.7717
65.2477
64.7201
64.1726
63.5733
62.8694
62.0144
61.1106
60.3576
59.8207
59.3611
58.8751
58.3882
57.8709
57.1652
56.1603
54.8028
52.9802
50.7316
48.2643
45.6922
42.9812
40.3063
38.2485
37.5254
38.4614
40.9167
43.9529
46.2781
47.5541
48.5137
49.5072
50.2404
50.855
51.0291
83.8281
83.4552
82.9032
82.2598
81.5083
80.6146
79.5813
78.4484
77.2717
76.1069
74.9946
73.9599
73.0205
72.1905
71.4773
70.8783
70.3749
69.9348
69.5271
69.1329
68.7476
68.3896
68.1048
67.9429
67.9437
68.1349
68.5138
69.0529
69.7395
70.54
71.4209
72.3347
73.1928
73.9012
74.4689
74.9309
75.2599
75.4552
75.5946
75.7419
75.9001
76.044
76.1394
76.1587
76.1154
76.0842
76.1585
76.41
76.8736
77.5235
78.263
78.9596
79.4831
79.7124
79.5335
78.814
77.4912
75.1529
70.995
64.4833
56.9965
50.6778
45.0622
39.5568
34.4063
29.5568
24.9369
20.5757
16.3918
12.3622
8.45336
4.65033
0.975029
-2.54294
-5.84476
-8.8677
-11.5391
-13.7822
-15.5199
-16.6848
-17.2247
-17.1086
-16.288
-14.7895
-12.6556
-9.94966
-6.75465
-3.16838
0.705652
4.76941
8.94253
13.1786
17.4772
21.8917
26.5172
31.4567
36.7624
42.3832
48.1373
53.7472
58.9582
63.6361
67.7634
71.3767
74.5106
77.1818
79.412
81.2232
82.6468
83.7279
84.5032
85.0025
85.2487
85.2639
85.0764
84.7243
84.2525
83.7061
83.121
82.5182
81.9049
81.2807
80.6432
79.9906
79.3192
78.6262
77.9129
77.1866
76.4565
75.7298
75.0107
74.3011
73.6026
72.9171
72.2462
71.5907
70.951
70.3266
69.7176
69.1236
68.543
67.9731
67.4102
66.8493
66.2967
65.7621
65.2448
64.7272
64.188
63.5892
62.8928
62.0401
61.1418
60.404
59.8755
59.4083
58.9049
58.4001
57.8697
57.1783
56.2208
54.9157
53.0691
50.7705
48.2082
45.4724
42.499
39.4703
37.0184
36.1185
37.0305
39.463
42.5168
45.09
46.5703
47.5249
48.5349
49.2712
49.8979
50.252
82.3046
81.9893
81.5219
80.907
80.1222
79.1739
78.1152
77.0079
75.8973
74.815
73.7838
72.8315
71.9852
71.2603
70.6641
70.1941
69.8273
69.5303
69.2717
69.0292
68.7925
68.5846
68.4599
68.4587
68.6096
68.9316
69.4185
70.0461
70.7656
71.555
72.3625
73.144
73.8798
74.5577
75.1369
75.5796
75.9308
76.2044
76.3784
76.4391
76.3765
76.1629
75.782
75.2555
74.661
74.1235
73.7697
73.6833
73.8822
74.2986
74.8014
75.248
75.514
75.4846
75.0341
73.9938
72.345
69.4653
64.7143
57.8845
50.7878
44.827
39.3174
33.9333
28.9734
24.3138
19.9147
15.7759
11.7931
7.9398
4.16756
0.468728
-3.13445
-6.61212
-9.90644
-12.9568
-15.6846
-18.0014
-19.8122
-21.0218
-21.5539
-21.3502
-20.4082
-18.7298
-16.3519
-13.3448
-9.80788
-5.86197
-1.63983
2.72525
7.12013
11.4712
15.7611
20.0485
24.474
29.2191
34.4247
40.0953
46.0429
51.906
57.3195
62.1219
66.3273
70.0208
73.2591
76.0436
78.3781
80.2741
81.7643
82.894
83.7045
84.2302
84.5005
84.5453
84.3957
84.0864
83.6562
83.1455
82.5897
82.011
81.418
80.8128
80.1967
79.571
78.9356
78.2869
77.621
76.9382
76.2447
75.5486
74.856
74.1701
73.493
72.8271
72.174
71.5343
70.9089
70.2971
69.6994
69.1146
68.5408
67.975
67.4147
66.8564
66.3024
65.7633
65.2446
64.7331
64.2055
63.6053
62.933
62.1005
61.2292
60.5128
59.9839
59.5014
58.9811
58.4535
57.8907
57.1917
56.2701
55.0419
53.1764
50.8505
48.208
45.3183
42.0996
38.7558
36.0104
34.8412
35.6017
37.8854
40.7931
43.44
45.1283
46.1568
47.1513
47.9627
48.5396
49.0072
81.3168
81.0484
80.6379
80.0465
79.2542
78.3014
77.284
76.219
75.1306
74.0458
72.9962
72.0211
71.162
70.4566
69.928
69.5762
69.3784
69.2923
69.266
69.2591
69.2597
69.2883
69.3837
69.5762
69.884
70.3099
70.8358
71.4348
72.0833
72.7618
73.4547
74.1685
74.8579
75.4002
75.9813
76.5047
76.8582
77.0668
77.0654
76.8127
76.2865
75.4854
74.4604
73.3018
72.1264
71.1075
70.3874
70.0305
70.0225
70.2582
70.5697
70.7914
70.7942
70.4711
69.701
68.2997
66.471
63.1534
58.0801
51.2355
44.5938
38.9476
33.5397
28.3083
23.5348
19.0526
14.8541
10.9061
7.09381
3.38687
-0.273455
-3.88945
-7.44658
-10.9235
-14.2735
-17.4417
-20.3402
-22.8566
-24.8612
-26.2143
-26.7998
-26.5444
-25.4746
-23.5602
-20.8373
-17.3943
-13.3608
-8.89645
-4.17991
0.608796
5.31119
9.81756
14.0934
18.2152
22.3869
26.8883
31.9522
37.6416
43.7802
49.9206
55.524
60.4053
64.6255
68.3696
71.7436
74.7204
77.2297
79.2453
80.8051
81.9766
82.822
83.3831
83.6846
83.7542
83.633
83.3642
82.9845
82.5251
82.0144
81.4735
80.9127
80.335
79.7435
79.143
78.5368
77.9236
77.2993
76.6605
76.0082
75.3476
74.6851
74.0253
73.371
72.7249
72.0897
71.4656
70.8551
70.2557
69.6688
69.0933
68.5285
67.9718
67.4202
66.8695
66.321
65.7823
65.2604
64.7475
64.2312
63.6869
62.9934
62.1907
61.3665
60.6698
60.1336
59.6354
59.1049
58.5515
57.9415
57.2126
56.2956
54.9945
53.2865
50.9787
48.283
45.2688
41.8539
38.2479
35.2285
33.7515
34.2039
36.166
38.7525
41.2539
43.0828
44.2213
45.2593
46.2042
46.774
47.2773
81.0776
80.865
80.4698
79.8724
79.0736
78.1396
77.1061
75.9779
74.7778
73.5521
72.3642
71.2834
70.3752
69.6931
69.2642
69.0839
69.1186
69.3071
69.5771
69.8731
70.1781
70.5016
70.857
71.2515
71.6893
72.1652
72.6664
73.1803
73.7074
74.2547
74.8145
75.3774
75.9541
76.5046
76.9849
77.3658
77.5553
77.4792
77.0498
76.2334
75.0365
73.5463
71.8705
70.1329
68.4959
67.1102
66.1174
65.5727
65.4355
65.5647
65.7542
65.8128
65.5987
65.0067
63.9239
62.1496
60.2186
56.5439
51.3202
44.6278
38.4012
33.0027
27.7155
22.6602
18.0659
13.7506
9.73297
5.95135
2.29296
-1.28008
-4.84229
-8.39824
-11.9487
-15.4934
-19.0089
-22.4431
-25.6805
-28.5564
-30.878
-32.4578
-33.153
-32.8661
-31.6067
-29.3432
-26.1296
-22.0851
-17.3791
-12.22
-6.84033
-1.47324
3.67722
8.47436
12.8794
16.9906
21.0663
25.4493
30.3976
36.0059
42.1517
48.3956
53.9615
58.7557
62.8612
66.5645
70.03
73.2187
75.9712
78.1718
79.8308
81.0436
81.9092
82.4868
82.8071
82.9006
82.8083
82.5771
82.2469
81.8455
81.393
80.9057
80.3927
79.8566
79.2998
78.7283
78.1488
77.5639
76.9712
76.3675
75.7517
75.1262
74.4954
73.8636
73.2341
72.6095
71.9921
71.3859
70.7917
70.2041
69.6287
69.0635
68.5076
67.9586
67.4161
66.8786
66.3427
65.8123
65.2863
64.7667
64.2483
63.7056
63.0567
62.3001
61.5254
60.8528
60.3034
59.7923
59.2587
58.6786
58.0205
57.2591
56.3434
55.1128
53.4281
51.1618
48.4494
45.3516
41.7947
37.9847
34.7034
32.8552
32.8185
34.2472
36.3434
38.5061
40.3468
41.6291
42.7766
43.8812
44.5553
45.0627
81.5248
81.3374
80.9443
80.3226
79.4887
78.4881
77.3267
76.0164
74.6125
73.191
71.833
70.6282
69.669
69.0275
68.7364
68.7805
69.1008
69.6088
70.2118
70.8424
71.4701
72.0838
72.6767
73.2434
73.7774
74.2722
74.731
75.1672
75.5881
75.9918
76.392
76.782
77.1413
77.4563
77.7076
77.7963
77.6429
77.1026
76.1212
74.6836
72.8769
70.8207
68.6024
66.3368
64.2113
62.4236
61.1173
60.3601
60.1045
60.1767
60.3289
60.334
60.0216
59.2755
58.0067
56.0768
53.6165
49.8252
44.5705
38.1142
32.2321
27.0139
21.8465
16.9641
12.532
8.37696
4.53684
0.922021
-2.57993
-6.02167
-9.4979
-13.0196
-16.6148
-20.3222
-24.1431
-28.0037
-31.7203
-35.045
-37.7207
-39.5321
-40.3166
-39.9814
-38.4359
-35.727
-31.9377
-27.2098
-21.7435
-15.7904
-9.63361
-3.55728
2.19629
7.47942
12.2556
16.6265
20.8496
25.2911
30.1607
35.5799
41.4463
47.3284
52.6558
57.2311
61.1588
64.7645
68.2505
71.5909
74.5716
76.9913
78.7936
80.067
80.9527
81.5535
81.9032
82.0168
81.9432
81.7462
81.4666
81.1242
80.732
80.302
79.8434
79.3591
78.849
78.3168
77.7701
77.2145
76.6501
76.0749
75.4885
74.8928
74.2911
73.6869
73.0831
72.4817
71.8851
71.2958
70.7133
70.1438
69.5814
69.0269
68.4795
67.9395
67.4044
66.8732
66.3466
65.8261
65.3096
64.7895
64.262
63.7226
63.1203
62.4297
61.7184
61.0545
60.4754
59.9492
59.4114
58.8031
58.1074
57.3244
56.4061
55.2154
53.5837
51.3908
48.7053
45.5743
41.9284
37.9744
34.416
32.093
31.3816
32.0647
33.5133
35.1908
36.8786
38.3084
39.6319
40.93
41.8146
42.3647
82.2678
82.0793
81.6521
80.9633
80.0327
78.8743
77.4767
75.8752
74.1372
72.3619
70.7108
69.349
68.39
67.8924
67.8594
68.2455
68.9629
69.8948
70.9246
71.9648
72.9641
73.8937
74.7348
75.4796
76.1297
76.6937
77.1759
77.5703
77.8662
78.0567
78.1629
78.1837
78.1736
78.1368
78.0181
77.7228
77.1306
76.1371
74.6539
72.7044
70.4153
67.8597
65.0608
62.1488
59.4081
57.1056
55.4055
54.3952
54.027
54.0941
54.3029
54.3784
54.103
53.3309
51.9736
49.9319
47.1307
43.2416
37.9696
31.7467
26.1239
21.0261
15.9507
11.2272
6.94752
2.9559
-0.700703
-4.14137
-7.47801
-10.78
-14.1688
-17.6724
-21.3591
-25.3121
-29.5368
-33.8988
-38.1168
-41.8679
-44.8612
-46.865
-47.7073
-47.2812
-45.5383
-42.4835
-38.1948
-32.825
-26.6024
-19.8213
-12.8218
-5.93813
0.552245
6.47959
11.7966
16.6093
21.1661
25.7338
30.5575
35.7265
41.1842
46.6103
51.5842
55.8978
59.6173
63.0846
66.5421
69.9738
73.1192
75.7121
77.6457
78.9965
79.92
80.5487
80.9396
81.1002
81.0616
80.8966
80.6645
80.3832
80.0533
79.6805
79.2746
78.8411
78.3803
77.8934
77.3863
76.8655
76.3325
75.7857
75.2258
74.656
74.0801
73.5012
72.9218
72.3435
71.7681
71.1977
70.633
70.0768
69.5274
68.9848
68.448
67.917
67.3905
66.8661
66.3445
65.8284
65.3172
64.8031
64.281
63.7521
63.1937
62.5882
61.9196
61.2457
60.632
60.0866
59.5337
58.8997
58.1811
57.381
56.4538
55.2904
53.7366
51.6474
49.0366
45.917
42.2284
38.1517
34.2782
31.3643
29.8135
29.5613
30.2117
31.3121
32.7096
34.2246
35.7673
37.3223
38.4977
39.1817
82.4625
82.2626
81.7803
80.969
79.8149
78.3008
76.3974
74.1565
71.7457
69.4132
67.4014
65.8893
65.0029
64.7933
65.2348
66.2443
67.6875
69.3911
71.1795
72.9205
74.5364
75.976
77.2202
78.2701
79.1309
79.8026
80.2786
80.5419
80.5773
80.3934
80.0178
79.5551
79.0726
78.6001
78.0744
77.384
76.4018
75.0228
73.1541
70.8172
68.1094
65.0367
61.5754
57.9461
54.5634
51.7321
49.6288
48.357
47.8568
47.8886
48.1448
48.3206
48.1442
47.4161
46.0213
43.8782
40.9381
36.9358
31.6197
25.577
20.1296
15.0957
10.0781
5.4926
1.35239
-2.47991
-5.94752
-9.19495
-12.3359
-15.4596
-18.73
-22.2023
-25.9813
-30.1873
-34.8162
-39.6585
-44.3398
-48.4997
-51.8569
-54.174
-55.2567
-54.9373
-53.2245
-50.0294
-45.3931
-39.4666
-32.5014
-24.8378
-16.8848
-9.05075
-1.67287
4.99816
10.9853
16.3617
21.3316
26.1287
30.9675
35.9476
41.07
46.1311
50.7928
54.8183
58.2415
61.4779
64.8654
68.3856
71.6869
74.4249
76.4593
77.8697
78.8241
79.477
79.9095
80.1296
80.1499
80.0351
79.8555
79.6358
79.3704
79.0573
78.7038
78.3178
77.9025
77.4591
76.9924
76.5087
76.0102
75.4948
74.9627
74.4182
73.8665
73.3113
72.7548
72.1987
71.6442
71.0927
70.5454
70.0038
69.4679
68.9377
68.412
67.8908
67.3731
66.8567
66.3415
65.8304
65.3232
64.8152
64.3035
63.7881
63.2622
62.698
62.0607
61.3906
60.7677
60.2066
59.6351
58.986
58.2469
57.4126
56.459
55.3175
53.8484
51.8965
49.3956
46.3238
42.6441
38.4436
34.1748
30.5388
28.0197
26.7056
26.4221
26.8619
27.8799
29.39
31.1701
33.0524
34.5887
35.5198
81.0582
80.8213
80.2248
79.1665
77.5623
75.3591
72.5553
69.2863
65.8259
62.5307
59.8431
58.0537
57.3367
57.7143
59.0856
61.2834
64.1056
67.2876
70.5154
73.5251
76.1837
78.4399
80.29
81.7463
82.827
83.5386
83.8784
83.856
83.5038
82.8633
81.9926
81.0004
80.0233
79.078
78.2831
77.1804
75.8721
74.203
72.0611
69.4242
66.3345
62.7637
58.6807
54.4106
50.4573
47.1459
44.6459
43.0907
42.3805
42.2627
42.4559
42.6577
42.5562
41.8822
40.469
38.2491
35.1736
31.0408
25.6355
19.6881
14.3373
9.30863
4.30856
-0.172858
-4.194
-7.87501
-11.1382
-14.1493
-17.0389
-19.9176
-22.997
-26.3703
-30.1717
-34.5512
-39.4995
-44.7572
-49.8839
-54.5094
-58.3744
-61.2396
-62.8492
-62.9712
-61.5296
-58.4034
-53.5971
-47.2386
-39.5797
-30.9897
-21.9336
-12.9502
-4.45834
2.96153
9.77981
15.7881
21.2157
26.2944
31.2148
36.101
41.014
45.8188
50.2125
53.9623
57.1105
60.1021
63.3484
66.8723
70.2729
73.1266
75.2457
76.7162
77.7165
78.401
78.8647
79.1351
79.2207
79.1698
79.05
78.8921
78.6897
78.4362
78.1363
77.7975
77.4245
77.0208
76.5919
76.1441
75.6799
75.1972
74.6949
74.177
73.65
73.1182
72.5841
72.0493
71.5151
70.9825
70.4523
69.9256
69.4031
68.8852
68.3709
67.8603
67.3534
66.8473
66.3401
65.8352
65.3328
64.8299
64.3261
63.8204
63.3049
62.7562
62.1442
61.5002
60.8932
60.3313
59.7553
59.0988
58.325
57.4302
56.4286
55.2944
53.9043
52.0855
49.7243
46.7478
43.0823
38.7147
33.9636
29.5033
25.9222
23.464
22.1435
21.838
22.4161
23.8378
25.8564
28.1344
30.1132
31.4081
77.3498
77.0313
76.1999
74.685
72.3027
68.9516
64.5814
59.3645
53.8294
48.7707
44.9034
42.5688
42.1359
43.6002
46.6362
50.8403
55.9732
61.7647
67.6388
72.9146
77.268
80.7291
83.3823
85.3056
86.5735
87.2553
87.4205
87.1372
86.4704
85.4635
84.1772
82.7805
81.4145
80.1308
78.8667
77.4979
75.9458
74.0698
71.7336
68.8675
65.478
61.5243
56.9643
52.1712
47.6974
43.9085
41.0797
39.2153
38.163
37.7032
37.6228
37.662
37.5041
36.8227
35.3754
33.0751
29.8667
25.5672
20.0185
14.0704
8.72518
3.62743
-1.41841
-5.84239
-9.7654
-13.2941
-16.3239
-19.034
-21.5897
-24.122
-26.8878
-30.03
-33.7037
-38.0841
-43.1841
-48.7453
-54.2846
-59.41
-63.8706
-67.4159
-69.7249
-70.5432
-69.5957
-66.7489
-61.9931
-55.4308
-47.2756
-37.8722
-27.6827
-17.4394
-7.80016
0.828056
8.44766
15.1118
21.0184
26.3915
31.4216
36.2582
40.997
45.5519
49.6833
53.2347
56.2863
59.1976
62.3086
65.6758
68.9846
71.8361
73.9966
75.5176
76.5777
77.322
77.8382
78.1627
78.3105
78.3239
78.2627
78.16
78.0127
77.8127
77.5636
77.2717
76.9408
76.5753
76.1821
75.7683
75.3373
74.8873
74.4162
73.9267
73.4254
72.9178
72.4067
71.8937
71.38
70.8664
70.3534
69.8419
69.3332
68.8277
68.3249
67.8251
67.3284
66.8314
66.3325
65.8365
65.3439
64.8479
64.3464
63.8457
63.3442
62.8149
62.2247
61.6023
61.0122
60.4659
59.9033
59.2372
58.4146
57.447
56.384
55.2311
53.8892
52.1958
49.9986
47.1453
43.4598
38.8381
33.5148
28.16
23.459
19.8008
17.3625
16.2263
16.3231
17.6046
19.8532
22.5953
25.1244
26.9068
71.7065
71.2901
70.1991
68.1398
64.7113
59.6625
52.87
44.5719
35.6719
27.6181
21.764
18.9959
19.3977
22.8109
28.4831
35.3632
43.0671
51.8316
61.266
69.9593
76.8531
81.8954
85.4334
87.8273
89.3233
90.0787
90.216
89.8298
89.0587
87.9228
86.4736
84.8464
83.2396
81.7212
80.2211
78.6509
76.9239
74.9135
72.4764
69.4886
65.957
61.8356
57.0437
51.9301
47.0551
42.9828
39.8428
37.6244
36.1027
35.1078
34.5129
34.1388
33.7103
32.8644
31.2863
28.844
25.4558
20.9644
15.2028
9.12399
3.69232
-1.54865
-6.75114
-11.1873
-15.0395
-18.4362
-21.2299
-23.5938
-25.7393
-27.8127
-30.1043
-32.8261
-36.1479
-40.2782
-45.2533
-50.8693
-56.6394
-62.1233
-67.0297
-71.0734
-73.9358
-75.3264
-74.8795
-72.4806
-68.1111
-61.8495
-53.7744
-44.1219
-33.1854
-21.8833
-11.0784
-1.34292
7.13254
14.4418
20.8048
26.4497
31.5816
36.3772
40.9503
45.2596
49.1514
52.5712
55.6657
58.6591
61.6987
64.8211
67.8824
70.6119
72.7762
74.3499
75.4742
76.2875
76.8703
77.2609
77.4776
77.5558
77.5477
77.4875
77.3796
77.2194
77.0105
76.759
76.4672
76.1379
75.7781
75.3956
74.995
74.5756
74.1351
73.6743
73.1989
72.7152
72.2269
71.7354
71.242
70.7472
70.2514
69.7553
69.2602
68.767
68.2756
67.7866
67.2992
66.8102
66.3193
65.8319
65.3478
64.8585
64.3622
63.8707
63.3869
62.8768
62.3018
61.6918
61.1188
60.595
60.0453
59.3642
58.4951
57.4597
56.3248
55.1217
53.7985
52.2288
50.2049
47.4435
43.663
38.7043
32.7507
26.4687
20.6144
15.7132
12.101
10.0628
9.65089
10.7672
13.2288
16.4981
19.7046
22.1082
66.5844
66.0655
64.7156
62.1947
57.8302
51.2888
42.4477
31.582
19.9497
9.42421
1.94541
-1.26624
0.196218
5.95489
14.8845
24.6552
33.7018
43.1197
54.4781
66.3819
76.0082
82.5709
86.7501
89.4095
91.0552
91.9284
92.1401
91.8121
91.0666
89.9718
88.5628
86.9228
85.2396
83.6196
82.0283
80.3741
78.5805
76.5353
74.1055
71.0837
67.5662
63.5028
58.7446
53.5906
48.1495
44.0421
40.7246
38.2159
36.2344
34.6904
33.5181
32.6306
31.796
30.6363
28.7872
26.0676
22.4109
17.649
11.56
5.20599
-0.375114
-5.79636
-11.2461
-15.7679
-19.569
-22.8805
-25.49
-27.5387
-29.2733
-30.8525
-32.5671
-34.7465
-37.5014
-41.1545
-45.7201