/*--------------------------------*- C++ -*----------------------------------*\
  =========                 |
  \\      /  F ield         | OpenFOAM: The Open Source CFD Toolbox
   \\    /   O peration     | Website:  https://openfoam.org
    \\  /    A nd           | Version:  9
     \\/     M anipulation  |
\*---------------------------------------------------------------------------*/
FoamFile
{
    format      ascii;
    class       volScalarField;
    location    "0.072";
    object      pMean;
}
// * * * * * * * * * * * * * * * * * * * * * * * * * * * * * * * * * * * * * //

dimensions      [0 2 -2 0 0 0 0];

internalField   nonuniform List<scalar> 
12225
(
-3.25091
-3.80905
-4.10382
-4.21174
-4.25308
-4.27984
-4.30124
-4.31244
-4.30856
-4.28689
-4.24747
-4.18903
-4.11322
-4.01941
-3.91796
-3.82497
-3.78987
-3.92657
-3.48144
-3.83945
-4.10646
-4.22177
-4.2647
-4.29013
-4.31088
-4.32244
-4.31962
-4.29951
-4.26252
-4.20739
-4.13702
-4.04997
-3.96083
-3.87797
-3.86574
-4.00884
-3.53261
-3.8447
-4.10018
-4.22547
-4.2737
-4.29923
-4.31972
-4.33232
-4.33139
-4.31437
-4.28127
-4.23325
-4.17165
-4.10135
-4.03118
-3.98541
-4.00404
-4.16214
-3.67349
-3.89461
-4.11162
-4.23768
-4.29023
-4.31512
-4.33418
-4.34704
-4.3483
-4.3347
-4.30686
-4.26596
-4.21562
-4.16101
-4.11374
-4.09483
-4.13572
-4.27335
-3.76927
-3.93241
-4.11646
-4.24206
-4.30183
-4.3293
-4.34802
-4.36139
-4.36495
-4.35567
-4.3337
-4.30121
-4.26217
-4.22304
-4.19513
-4.19541
-4.24445
-4.35781
-3.86495
-3.98408
-4.13753
-4.25635
-4.32044
-4.35027
-4.3688
-4.38252
-4.38838
-4.38331
-4.36744
-4.3434
-4.31561
-4.29073
-4.27852
-4.29152
-4.34246
-4.43879
-3.98195
-4.04264
-4.15814
-4.26792
-4.33575
-4.36965
-4.38913
-4.40354
-4.41212
-4.41207
-4.40321
-4.38813
-4.37145
-4.35938
-4.35991
-4.38189
-4.43343
-4.51858
-4.05154
-4.0967
-4.19088
-4.28816
-4.35608
-4.39366
-4.41529
-4.43087
-4.44187
-4.44657
-4.44467
-4.4384
-4.43205
-4.4311
-4.44187
-4.47062
-4.52256
-4.59945
-4.11881
-4.15545
-4.22625
-4.3105
-4.37722
-4.41821
-4.44278
-4.46061
-4.47474
-4.48444
-4.48947
-4.49178
-4.4951
-4.50403
-4.52349
-4.55785
-4.61035
-4.68148
-4.20128
-4.21417
-4.26866
-4.34048
-4.40318
-4.44639
-4.47441
-4.495
-4.51237
-4.52701
-4.53899
-4.5497
-4.56206
-4.57982
-4.60689
-4.64636
-4.69996
-4.7675
-4.25183
-4.27059
-4.31569
-4.37631
-4.43357
-4.47738
-4.50869
-4.53317
-4.55472
-4.57456
-4.59301
-4.61137
-4.63204
-4.65787
-4.69161
-4.73531
-4.7902
-4.85594
-4.30503
-4.31786
-4.35535
-4.40895
-4.4629
-4.50777
-4.54257
-4.57091
-4.5965
-4.62118
-4.64577
-4.67115
-4.699
-4.73154
-4.77098
-4.81894
-4.87588
-4.94143
-4.38698
-4.37906
-4.40372
-4.45004
-4.50011
-4.54404
-4.58079
-4.61287
-4.64285
-4.67238
-4.70249
-4.73421
-4.7688
-4.80779
-4.85261
-4.90434
-4.96344
-5.02972
-4.40111
-4.42077
-4.45216
-4.49338
-4.53882
-4.58352
-4.62456
-4.66185
-4.69719
-4.73254
-4.76923
-4.80811
-4.84997
-4.89582
-4.94668
-5.00333
-5.06599
-5.1344
-4.47493
-4.49658
-4.52225
-4.55432
-4.59406
-4.63787
-4.68156
-4.72361
-4.76477
-4.8066
-4.8504
-4.89693
-4.94663
-5
-5.05759
-5.1199
-5.18704
-5.25888
-4.59951
-4.57722
-4.58085
-4.60948
-4.65286
-4.70119
-4.74933
-4.79661
-4.8441
-4.89315
-4.94477
-4.99941
-5.05725
-5.11853
-5.18361
-5.25274
-5.32599
-5.40328
-4.68679
-4.6536
-4.65058
-4.67948
-4.72559
-4.77598
-4.827
-4.87943
-4.93418
-4.99172
-5.0523
-5.11596
-5.18273
-5.25269
-5.32604
-5.40286
-5.48333
-5.56719
-4.72229
-4.71094
-4.72343
-4.75711
-4.8021
-4.85428
-4.91158
-4.97235
-5.03592
-5.10227
-5.17168
-5.24428
-5.32006
-5.39901
-5.48116
-5.56648
-5.65488
-5.74627
-4.67518
-4.71558
-4.76775
-4.82198
-4.87747
-4.93719
-5.0021
-5.0716
-5.14478
-5.22112
-5.30048
-5.38292
-5.46843
-5.55692
-5.64827
-5.74235
-5.83903
-5.93823
-4.76383
-4.78303
-4.81815
-4.86782
-4.92823
-4.99661
-5.07031
-5.14741
-5.22735
-5.31042
-5.39687
-5.4866
-5.57932
-5.67473
-5.77268
-5.87302
-5.97565
-6.08035
-4.74722
-4.77147
-4.81955
-4.88532
-4.95946
-5.03593
-5.11443
-5.19617
-5.28154
-5.37033
-5.46239
-5.55742
-5.65512
-5.75525
-5.85757
-5.96193
-6.06822
-6.17636
-4.7771
-4.78309
-4.8225
-4.88856
-4.9686
-5.05296
-5.13778
-5.22401
-5.31332
-5.40626
-5.50253
-5.60158
-5.70295
-5.80637
-5.9118
-6.01913
-6.1282
-6.23862
-4.68961
-4.74813
-4.82032
-4.9007
-4.98612
-5.07276
-5.15996
-5.24928
-5.34189
-5.43797
-5.53712
-5.63881
-5.74258
-5.84824
-5.95571
-6.06485
-6.17549
-6.28752
-4.62504
-4.6899
-4.78044
-4.87995
-4.97662
-5.0681
-5.15831
-5.25109
-5.34766
-5.44758
-5.54996
-5.6542
-5.76017
-5.86783
-5.97716
-6.08799
-6.2001
-6.31304
-4.7063
-4.70907
-4.7828
-4.89085
-4.995
-5.08713
-5.17578
-5.26841
-5.36633
-5.46777
-5.5712
-5.67626
-5.78298
-5.89138
-6.0014
-6.11285
-6.22546
-6.33906
-4.51827
-4.61248
-4.74263
-4.87042
-4.97885
-5.07249
-5.16401
-5.26051
-5.36201
-5.4662
-5.57171
-5.67834
-5.78641
-5.89611
-6.00737
-6.11989
-6.23341
-6.34766
-4.49012
-4.61522
-4.7609
-4.88813
-4.99002
-5.08016
-5.17191
-5.26982
-5.37222
-5.47658
-5.58202
-5.68877
-5.79716
-5.90722
-6.01871
-6.13133
-6.24481
-6.35884
-4.35543
-4.53526
-4.73042
-4.87361
-4.97525
-5.06601
-5.16138
-5.2627
-5.36705
-5.47253
-5.57888
-5.68649
-5.79563
-5.90628
-6.01825
-6.13126
-6.24519
-6.36005
-4.35887
-4.54847
-4.74721
-4.88189
-4.97764
-5.06802
-5.1645
-5.26627
-5.37054
-5.4759
-5.58233
-5.69014
-5.79961
-5.91055
-6.02279
-6.13582
-6.24959
-6.36367
-4.09861
-4.50618
-4.74952
-4.87519
-4.96782
-5.06074
-5.1594
-5.26216
-5.36693
-5.47269
-5.5795
-5.68767
-5.79744
-5.9086
-6.02103
-6.13406
-6.24771
-6.36093
-8.64321
-8.84682
-9.03027
-9.04662
-8.8767
-8.60359
-8.38712
-8.37228
-8.62641
-9.13116
-9.82644
-10.6337
-11.4684
-12.2604
-12.9604
-13.5424
-13.9932
-14.3052
-14.4777
-14.5218
-14.4642
-14.3129
-14.0881
-13.8222
-13.5667
-13.3782
-13.3197
-13.3984
-13.5643
-13.7677
-14.0016
-14.2912
-14.652
-15.0452
-15.4212
-15.7653
-16.0798
-16.4699
-17.0316
-17.6988
-18.305
-18.7976
-19.2276
-19.6936
-20.2823
-20.9325
-21.5882
-22.242
-22.783
-23.2273
-23.7618
-24.3271
-24.8798
-25.4313
-25.9564
-26.3918
-26.6829
-26.9741
-27.3536
-27.802
-28.2511
-28.6835
-28.9974
-29.1804
-29.3191
-29.4917
-29.7016
-29.928
-30.1489
-30.3427
-30.4937
-30.5915
-30.6255
-30.6053
-30.5533
-30.447
-30.238
-29.8682
-29.3018
-28.5414
-27.6305
-26.6422
-25.596
-24.5359
-23.4402
-22.4041
-21.3016
-20.203
-19.2817
-18.95
-19.2038
-19.6769
-20.1005
-20.3311
-20.2901
-19.9428
-19.2747
-18.2841
-16.976
-15.3627
-13.4634
-11.3055
-8.92479
-6.36486
-3.67605
-0.913991
1.86334
4.59874
7.23837
9.73436
12.0464
14.1431
16.0054
17.6281
19.0174
20.1865
21.1509
21.9256
22.5246
22.9602
23.2437
23.386
23.3986
23.2941
23.0856
22.7869
22.4114
21.9728
21.4842
20.9583
20.4065
19.839
19.2652
18.6932
18.13
17.582
17.0541
16.551
16.0763
15.6333
15.2243
14.8514
14.5158
14.2185
13.9602
13.7409
13.5605
13.4183
13.3136
13.2459
13.2145
13.2184
13.2557
13.3225
13.4119
13.5129
13.6117
13.6924
13.7407
13.7524
13.7402
13.735
13.7571
13.7862
13.8144
13.8533
13.8874
13.9101
13.9307
13.96
13.9934
14.0135
14.0161
14.0345
14.0979
14.1784
14.2522
14.3246
14.4236
14.52
-9.59944
-9.7902
-9.95465
-10.0279
-9.91158
-9.74899
-9.67737
-9.80995
-10.1791
-10.7432
-11.4312
-12.1713
-12.903
-13.5792
-14.169
-14.653
-15.0252
-15.2841
-15.4268
-15.4673
-15.4025
-15.26
-15.0746
-14.8534
-14.6149
-14.4404
-14.3458
-14.3618
-14.4516
-14.6189
-14.9548
-15.4186
-15.9405
-16.4524
-16.9083
-17.3237
-17.7169
-18.1291
-18.6213
-19.2084
-19.7772
-20.2452
-20.6267
-20.9967
-21.4929
-22.0398
-22.7449
-23.6398
-24.3123
-24.8297
-25.3862
-25.933
-26.4366
-26.8945
-27.2906
-27.6829
-27.9988
-28.2809
-28.625
-28.9967
-29.3595
-29.6968
-30.0048
-30.2469
-30.478
-30.7461
-31.028
-31.303
-31.5439
-31.7344
-31.8573
-31.9138
-31.9033
-31.8341
-31.7243
-31.5581
-31.2919
-30.8736
-30.261
-29.4545
-28.4886
-27.4386
-26.3307
-25.1994
-24.0702
-23.017
-22.0912
-21.308
-20.7138
-20.5359
-20.7517
-21.0742
-21.3271
-21.3919
-21.2107
-20.7499
-19.9927
-18.9314
-17.5671
-15.9074
-13.9678
-11.7724
-9.35559
-6.76093
-4.03927
-1.24608
1.56105
4.32522
6.99289
9.5161
11.8539
13.9735
15.8545
17.4912
18.8901
20.0658
21.0352
21.8145
22.4181
22.8584
23.1465
23.2931
23.3094
23.2087
23.0036
22.7081
22.3357
21.9002
21.4148
20.892
20.3431
19.7785
19.2072
18.6374
18.0759
17.5289
17.0017
16.4988
16.024
15.5806
15.1711
14.7975
14.4612
14.1631
13.9037
13.6828
13.5003
13.3554
13.2476
13.1758
13.1391
13.1361
13.1645
13.2196
13.2934
13.3745
13.4504
13.5093
13.5438
13.558
13.5708
13.6073
13.6618
13.6895
13.7028
13.7387
13.7743
13.8001
13.8291
13.87
13.9144
13.9456
13.9609
13.9969
14.0694
14.1451
14.2192
14.2865
14.3796
14.4481
-9.21489
-9.29862
-9.55408
-9.92855
-10.3282
-10.7402
-11.2032
-11.7543
-12.3993
-13.104
-13.8159
-14.4982
-15.1205
-15.6628
-16.1119
-16.4624
-16.7142
-16.8705
-16.9415
-16.9434
-16.8783
-16.7502
-16.578
-16.3833
-16.1765
-16.0017
-15.8688
-15.7998
-15.832
-15.9823
-16.2687
-16.6729
-17.1597
-17.6804
-18.196
-18.6761
-19.1712
-19.7335
-20.3443
-20.9746
-21.5288
-21.9628
-22.2719
-22.6373
-23.1908
-23.8616
-24.575
-25.3831
-26.1736
-26.8687
-27.4967
-28.0444
-28.4958
-28.8707
-29.2117
-29.5192
-29.8077
-30.0817
-30.3492
-30.6057
-30.8687
-31.1521
-31.4767
-31.837
-32.2249
-32.6233
-32.9972
-33.3152
-33.5507
-33.6915
-33.7357
-33.7075
-33.6277
-33.5123
-33.3616
-33.1364
-32.7925
-32.2884
-31.5877
-30.6936
-29.6357
-28.4768
-27.2707
-26.0816
-24.9887
-24.0801
-23.4464
-23.0275
-22.8018
-22.7562
-22.8358
-22.9306
-22.9566
-22.8325
-22.505
-21.9325
-21.091
-19.9647
-18.5474
-16.8409
-14.8569
-12.617
-10.1541
-7.51044
-4.73691
-1.8905
0.96924
3.78438
6.50148
9.07269
11.4562
13.6177
15.5337
17.1968
18.6149
19.8045
20.7851
21.5747
22.1885
22.6391
22.9373
23.0931
23.1184
23.0259
22.8286
22.5405
22.1755
21.7471
21.2687
20.7526
20.2101
19.6513
19.0853
18.5201
17.9627
17.4192
16.8949
16.3944
15.9215
15.4793
15.0705
14.6969
14.36
14.0609
13.7998
13.5768
13.3915
13.2432
13.1312
13.0544
13.0118
13.0015
13.021
13.0656
13.1278
13.1974
13.2635
13.3163
13.3501
13.3683
13.3827
13.4063
13.4419
13.4849
13.5348
13.5837
13.6164
13.6396
13.673
13.7239
13.7823
13.8327
13.8712
13.9161
13.9849
14.0624
14.1437
14.2074
14.2935
14.3402
-9.27234
-9.40171
-9.82029
-10.4521
-11.2153
-12.0339
-12.857
-13.6724
-14.4661
-15.2148
-15.8982
-16.5066
-17.0298
-17.4616
-17.8025
-18.0606
-18.2446
-18.3604
-18.4226
-18.432
-18.3973
-18.3211
-18.207
-18.0683
-17.9258
-17.7882
-17.6736
-17.5897
-17.553
-17.5814
-17.695
-17.9071
-18.2197
-18.6118
-19.0555
-19.5532
-20.1472
-20.8655
-21.661
-22.4275
-23.0818
-23.6144
-24.0284
-24.4612
-25.0367
-25.7618
-26.584
-27.4414
-28.2723
-29.032
-29.6902
-30.2393
-30.6818
-31.0463
-31.3745
-31.6641
-31.9146
-32.1257
-32.3096
-32.4878
-32.7059
-33.0115
-33.416
-33.8921
-34.405
-34.9121
-35.3637
-35.7155
-35.9338
-36.0024
-35.9328
-35.7806
-35.6032
-35.4221
-35.2222
-34.9705
-34.5876
-34.001
-33.1857
-32.1743
-31.008
-29.7601
-28.5194
-27.3716
-26.3821
-25.6916
-25.2917
-25.1078
-25.0305
-25.0127
-25.0143
-24.98
-24.8606
-24.5993
-24.1512
-23.4779
-22.5538
-21.3596
-19.884
-18.1231
-16.0843
-13.7869
-11.263
-8.5552
-5.7143
-2.7987
0.12956
3.01066
5.79084
8.42339
10.8669
13.0848
15.049
16.7496
18.1955
19.4059
20.4035
21.2089
21.8383
22.3045
22.6178
22.7881
22.827
22.7471
22.5618
22.285
21.9309
21.5133
21.0454
20.5395
20.0067
19.4569
18.8991
18.341
17.7898
17.2512
16.7308
16.2331
15.7623
15.3216
14.9137
14.5406
14.2039
13.9043
13.6423
13.4178
13.2305
13.0797
12.964
12.8823
12.8333
12.8155
12.8266
12.8621
12.9147
12.9753
13.0347
13.0854
13.1225
13.1482
13.1697
13.1949
13.2292
13.2691
13.3085
13.3468
13.3867
13.4182
13.4509
13.5022
13.5689
13.6339
13.6911
13.7526
13.8367
13.927
14.0189
14.0881
14.1673
14.1974
-9.59551
-9.92873
-10.6065
-11.4935
-12.4574
-13.4253
-14.3574
-15.2332
-16.0506
-16.8042
-17.4907
-18.1017
-18.6268
-19.0576
-19.3947
-19.6517
-19.8435
-19.9805
-20.0727
-20.1253
-20.1402
-20.1175
-20.0663
-19.9967
-19.9206
-19.8478
-19.7828
-19.725
-19.672
-19.6251
-19.5966
-19.6132
-19.7084
-19.9063
-20.2214
-20.671
-21.2811
-22.0479
-22.8951
-23.7243
-24.4614
-25.1105
-25.7023
-26.3054
-26.9845
-27.771
-28.6449
-29.5495
-30.4347
-31.2575
-31.9767
-32.5744
-33.0506
-33.436
-33.7647
-34.0352
-34.2482
-34.4175
-34.5652
-34.7252
-34.9585
-35.3097
-35.7612
-36.2744
-36.8131
-37.3315
-37.7745
-38.0888
-38.2379
-38.2071
-38.0192
-37.7421
-37.445
-37.1594
-36.8709
-36.5417
-36.1013
-35.4663
-34.5964
-33.5199
-32.2994
-31.0295
-29.8234
-28.7825
-27.9891
-27.5114
-27.2973
-27.2267
-27.213
-27.2209
-27.2079
-27.1268
-26.9346
-26.5867
-26.0481
-25.2886
-24.2871
-23.0253
-21.4888
-19.6692
-17.5699
-15.2083
-12.6153
-9.83323
-6.91349
-3.91675
-0.909223
2.04627
4.89535
7.59374
10.1026
12.3841
14.4048
16.1516
17.6329
18.8706
19.8909
20.7171
21.3673
21.8542
22.187
22.3758
22.4318
22.3679
22.1979
21.9361
21.5968
21.1939
20.7406
20.2486
19.7288
19.1909
18.6435
18.0945
17.5504
17.0176
16.5019
16.008
15.5401
15.1015
14.6951
14.3231
13.9869
13.6876
13.4256
13.2009
13.013
12.8608
12.743
12.6581
12.6046
12.5809
12.5848
12.6122
12.6561
12.7084
12.7617
12.81
12.8492
12.8801
12.9077
12.9386
12.9781
13.0244
13.0684
13.1095
13.1508
13.1846
13.2144
13.2546
13.3146
13.3864
13.4589
13.5362
13.6326
13.736
13.8411
13.9227
14.0044
14.0344
-10.3064
-10.8425
-11.7325
-12.7008
-13.7074
-14.7016
-15.6474
-16.5404
-17.3865
-18.1884
-18.9394
-19.6238
-20.2247
-20.73
-21.1403
-21.4684
-21.7262
-21.9227
-22.0689
-22.1747
-22.2445
-22.2823
-22.2947
-22.2886
-22.2731
-22.2553
-22.2371
-22.2136
-22.1754
-22.1151
-22.0355
-21.9591
-21.9296
-22
-22.2086
-22.5919
-23.1592
-23.8908
-24.7162
-25.5624
-26.3733
-27.1346
-27.8677
-28.6063
-29.3854
-30.2327
-31.1418
-32.0774
-32.9966
-33.8559
-34.6196
-35.269
-35.7847
-36.1733
-36.4671
-36.6858
-36.8495
-36.9833
-37.1114
-37.2799
-37.5452
-37.9188
-38.3576
-38.8209
-39.275
-39.6806
-39.9976
-40.1824
-40.201
-40.0447
-39.736
-39.3298
-38.8815
-38.4284
-37.9848
-37.5273
-36.9867
-36.2894
-35.3943
-34.3201
-33.131
-31.9493
-30.8849
-30.0323
-29.4684
-29.2015
-29.1442
-29.1783
-29.2499
-29.3238
-29.3486
-29.2771
-29.0647
-28.6722
-28.0721
-27.2445
-26.1758
-24.8514
-23.2561
-21.3783
-19.2182
-16.7909
-14.1257
-11.2647
-8.26
-5.17508
-2.08121
0.953424
3.87245
6.63401
9.20355
11.5441
13.6222
15.4192
16.9411
18.2115
19.2593
20.1115
20.7879
21.2994
21.6552
21.8653
21.9412
21.8962
21.7445
21.5009
21.18
20.7955
20.3601
19.8853
19.3814
18.8575
18.3222
17.7827
17.2464
16.7197
16.2087
15.7182
15.2528
14.816
14.4111
14.0403
13.7054
13.4074
13.1469
12.9238
12.7371
12.5858
12.4683
12.3828
12.3274
12.3002
12.299
12.3193
12.3544
12.3975
12.4429
12.4865
12.5252
12.5593
12.5926
12.6305
12.6775
12.7335
12.7919
12.8489
12.9028
12.9488
12.9876
13.0279
13.0784
13.1407
13.2135
13.2948
13.3959
13.5081
13.6241
13.718
13.8054
13.8391
-11.6825
-12.2148
-13.0225
-13.8968
-14.8021
-15.7233
-16.6399
-17.5459
-18.4414
-19.3203
-20.1655
-20.955
-21.6691
-22.2926
-22.8216
-23.2641
-23.6289
-23.9278
-24.1745
-24.3774
-24.5406
-24.6689
-24.7678
-24.843
-24.901
-24.9464
-24.9819
-25.0048
-25.0077
-24.9815
-24.9222
-24.8422
-24.7803
-24.801
-24.959
-25.305
-25.8372
-26.5261
-27.3272
-28.1893
-29.0614
-29.9191
-30.7618
-31.6008
-32.4541
-33.3346
-34.2417
-35.1569
-36.0454
-36.8765
-37.6257
-38.2731
-38.7751
-39.1154
-39.3321
-39.472
-39.5736
-39.6668
-39.7837
-39.9715
-40.2657
-40.6353
-41.0182
-41.3781
-41.6921
-41.9324
-42.0668
-42.0622
-41.898
-41.5739
-41.1092
-40.5403
-39.9076
-39.2474
-38.5857
-37.9227
-37.2234
-36.436
-35.5276
-34.5069
-33.4314
-32.4197
-31.573
-30.9731
-30.6628
-30.6063
-30.7017
-30.8626
-31.052
-31.2273
-31.3322
-31.3161
-31.1279
-30.7286
-30.0951
-29.218
-28.095
-26.7181
-25.074
-23.1469
-20.9313
-18.4404
-15.7051
-12.7671
-9.67864
-6.50572
-3.32502
-0.210562
2.7775
5.5965
8.21546
10.6047
12.7335
14.5783
16.1417
17.4469
18.5258
19.4086
20.1135
20.6515
21.0317
21.2643
21.3616
21.3374
21.2066
20.9843
20.6849
20.322
19.9075
19.4521
18.9656
18.4566
17.9332
17.4035
16.8749
16.354
15.847
15.3593
14.8957
14.4603
14.0566
13.6873
13.3544
13.0592
12.8021
12.5828
12.4
12.2522
12.1376
12.054
11.999
11.9705
11.9655
11.9793
12.0056
12.0388
12.0757
12.1137
12.1511
12.188
12.227
12.2725
12.3282
12.3957
12.4715
12.5508
12.6301
12.7045
12.7693
12.8241
12.873
12.9228
12.9804
13.0531
13.1479
13.2585
13.3773
13.4788
13.573
13.6146
-12.9684
-13.3882
-13.9789
-14.7046
-15.5245
-16.3965
-17.2959
-18.2188
-19.1672
-20.13
-21.0818
-21.9957
-22.8486
-23.6231
-24.3111
-24.9114
-25.4285
-25.8727
-26.2553
-26.5836
-26.8649
-27.1062
-27.3129
-27.488
-27.6344
-27.7561
-27.8564
-27.9363
-27.9925
-28.0177
-28.0062
-27.9667
-27.9345
-27.9718
-28.1442
-28.4959
-29.0272
-29.7156
-30.5327
-31.4361
-32.3765
-33.3231
-34.2574
-35.1693
-36.0583
-36.9304
-37.7935
-38.6416
-39.4483
-40.2
-40.8825
-41.4637
-41.8849
-42.1261
-42.2365
-42.2902
-42.3338
-42.3967
-42.507
-42.7069
-43.0071
-43.3399
-43.6394
-43.8795
-44.0427
-44.1091
-44.0565
-43.8618
-43.51
-43.0003
-42.3462
-41.5728
-40.7136
-39.8063
-38.8874
-37.9784
-37.0761
-36.159
-35.2129
-34.2522
-33.3342
-32.5431
-31.9562
-31.6305
-31.5692
-31.7042
-31.9411
-32.2311
-32.5469
-32.8383
-33.0489
-33.1212
-32.9905
-32.6125
-31.9668
-31.0557
-29.8905
-28.4731
-26.7924
-24.829
-22.5701
-20.027
-17.2334
-14.2314
-11.0735
-7.82644
-4.57
-1.38477
1.66375
4.52807
7.18337
9.60928
11.7777
13.6618
15.2618
16.6003
17.7124
18.6264
19.3601
19.9244
20.3286
20.5839
20.7034
20.7019
20.5946
20.3966
20.122
19.7832
19.3913
18.9562
18.4871
17.9926
17.481
16.9604
16.4386
15.9226
15.4189
14.9332
14.471
14.0367
13.634
13.2664
12.936
12.6443
12.3916
12.1774
12.0002
11.8581
11.7484
11.6684
11.6152
11.5862
11.578
11.5859
11.6043
11.6295
11.6595
11.6937
11.7311
11.772
11.818
11.8721
11.9378
12.0175
12.11
12.2112
12.3186
12.4284
12.533
12.6227
12.6912
12.7405
12.7839
12.8359
12.912
13.0089
13.1195
13.221
13.3187
13.367
-13.6821
-13.9945
-14.4794
-15.1214
-15.8792
-16.7137
-17.6065
-18.5544
-19.5584
-20.6021
-21.6562
-22.6944
-23.6913
-24.6251
-25.4821
-26.256
-26.9495
-27.5693
-28.1197
-28.6043
-29.0315
-29.4102
-29.7459
-30.0388
-30.2888
-30.4993
-30.6752
-30.8214
-30.9386
-31.0234
-31.0741
-31.1033
-31.1442
-31.2584
-31.509
-31.9255
-32.5102
-33.2484
-34.119
-35.0803
-36.0862
-37.1011
-38.0917
-39.0344
-39.9169
-40.7425
-41.5314
-42.2866
-42.9883
-43.634
-44.2106
-44.6769
-44.9771
-45.1041
-45.1186
-45.0994
-45.0921
-45.1243
-45.2179
-45.4034
-45.6663
-45.9258
-46.1266
-46.2531
-46.2864
-46.2037
-45.9832
-45.6057
-45.0621
-44.3532
-43.4907
-42.4961
-41.4006
-40.2431
-39.0679
-37.9155
-36.8095
-35.757
-34.7635
-33.8526
-33.0784
-32.5011
-32.1685
-32.0991
-32.2528
-32.5391
-32.8865
-33.2847
-33.7137
-34.1167
-34.4413
-34.6168
-34.5588
-34.2152
-33.5674
-32.6329
-31.4385
-29.9943
-28.2911
-26.3065
-24.0199
-21.44
-18.6037
-15.5555
-12.3494
-9.05021
-5.73941
-2.50635
0.580101
3.47297
6.14948
8.59846
10.7916
12.7012
14.3289
15.6972
16.8398
17.7829
18.5432
19.1316
19.5583
19.8358
19.9783
20.0012
19.92
19.7489
19.5009
19.1873
18.8181
18.4025
17.9497
17.4683
16.9673
16.4547
15.9385
15.4261
14.9246
14.4403
13.9789
13.5451
13.1434
12.7769
12.4485
12.1596
11.9108
11.7015
11.5301
11.394
11.2899
11.2146
11.1641
11.1354
11.1254
11.1297
11.1441
11.1661
11.1951
11.2307
11.2725
11.3204
11.3756
11.4403
11.5174
11.61
11.7182
11.8394
11.9722
12.1151
12.2607
12.3951
12.5029
12.5753
12.6211
12.6608
12.7139
12.7888
12.8809
12.9691
13.059
13.1087
-13.9461
-14.1996
-14.6201
-15.2082
-15.9297
-16.7516
-17.653
-18.6293
-19.6796
-20.7892
-21.9328
-23.0851
-24.2194
-25.3096
-26.3366
-27.2907
-28.1703
-28.9747
-29.7021
-30.3546
-30.9419
-31.4734
-31.9523
-32.3773
-32.7475
-33.0674
-33.3442
-33.5858
-33.7951
-33.972
-34.1202
-34.2584
-34.4261
-34.6753
-35.0525
-35.5779
-36.2559
-37.0728
-38.0114
-39.0299
-40.0859
-41.1378
-42.1467
-43.0845
-43.9369
-44.7087
-45.4266
-46.0849
-46.6676
-47.1828
-47.6229
-47.9418
-48.094
-48.0912
-48.0072
-47.915
-47.8478
-47.8308
-47.8857
-48.0281
-48.2204
-48.3852
-48.4834
-48.5009
-48.4125
-48.1898
-47.8098
-47.2553
-46.5197
-45.6075
-44.5339
-43.3232
-42.0089
-40.6327
-39.242
-37.887
-36.6101
-35.4425
-34.4086
-33.5398
-32.8797
-32.4726
-32.3436
-32.4769
-32.7945
-33.1842
-33.6039
-34.0796
-34.5941
-35.0843
-35.5066
-35.775
-35.7829
-35.4709
-34.8235
-33.8709
-32.6551
-31.1944
-29.4824
-27.4927
-25.1981
-22.6029
-19.7449
-16.6702
-13.4347
-10.1066
-6.77266
-3.5229
-0.427176
2.47281
5.15386
7.60609
9.80514
11.726
13.3708
14.7617
15.9288
16.8961
17.6787
18.2876
18.7347
19.0337
19.1999
19.2488
19.1951
19.052
18.8308
18.5414
18.1931
17.795
17.3563
16.886
16.3932
15.8864
15.3738
14.8635
14.3628
13.8788
13.4173
12.9838
12.5826
12.2167
11.8892
11.6018
11.3553
11.1491
10.9816
10.8503
10.7509
10.6793
10.6315
10.6044
10.5956
10.602
10.6206
10.6491
10.6865
10.7317
10.7837
10.8429
10.9103
10.9876
11.0778
11.1841
11.3071
11.4452
11.5982
11.7666
11.9453
12.1214
12.2759
12.3918
12.4669
12.5155
12.5599
12.6133
12.6823
12.7498
12.8211
12.8612
-13.8984
-14.1201
-14.5227
-15.099
-15.8185
-16.6528
-17.5837
-18.6044
-19.7112
-20.8914
-22.124
-23.3839
-24.6436
-25.8747
-27.0554
-28.172
-29.2164
-30.1817
-31.0641
-31.8678
-32.6045
-33.2839
-33.9087
-34.4766
-34.9854
-35.4384
-35.8433
-36.2086
-36.538
-36.8352
-37.1099
-37.3856
-37.6997
-38.0944
-38.6038
-39.2437
-40.0174
-40.9149
-41.9196
-42.9923
-44.0911
-45.1716
-46.1966
-47.138
-47.9799
-48.7232
-49.3914
-49.9665
-50.4398
-50.8274
-51.12
-51.2775
-51.2736
-51.135
-50.9413
-50.7615
-50.6182
-50.5292
-50.5186
-50.5923
-50.6923
-50.7495
-50.7372
-50.6367
-50.4156
-50.0431
-49.4967
-48.7618
-47.8357
-46.7275
-45.4574
-44.0548
-42.5575
-41.0116
-39.4661
-37.9724
-36.5787
-35.3333
-34.278
-33.448
-32.8783
-32.5963
-32.609
-32.8758
-33.2929
-33.7313
-34.1742
-34.686
-35.2499
-35.7916
-36.2764
-36.6032
-36.6466
-36.3464
-35.6886
-34.7164
-33.4832
-32.0162
-30.3084
-28.3295
-26.0473
-23.4589
-20.598
-17.5146
-14.2736
-10.9479
-7.62693
-4.39556
-1.32063
1.55959
4.22368
6.65956
8.84581
10.762
12.4111
13.8143
14.9978
15.9822
16.7813
17.4069
17.8722
18.1922
18.3822
18.4574
18.4311
18.3146
18.1177
17.8493
17.5185
17.1345
16.7066
16.244
15.756
15.2517
14.74
14.2294
13.7283
13.2434
12.7812
12.3472
11.9456
11.5798
11.2525
10.9658
10.7202
10.5153
10.3495
10.2198
10.1225
10.0529
10.0077
9.98462
9.98272
10.0003
10.034
10.0802
10.136
10.199
10.2684
10.3443
10.4282
10.5217
10.6276
10.7485
10.8849
11.0366
11.2041
11.3896
11.5913
11.7989
11.996
12.1632
12.2884
12.3742
12.435
12.4858
12.5371
12.5825
12.6298
12.6516
-13.7135
-13.9288
-14.3385
-14.9357
-15.6966
-16.5939
-17.6037
-18.71
-19.9031
-21.1687
-22.4881
-23.8376
-25.1908
-26.5209
-27.806
-29.0305
-30.1824
-31.2545
-32.2477
-33.1714
-34.0369
-34.8509
-35.6125
-36.3165
-36.9584
-37.5388
-38.0628
-38.5377
-38.9707
-39.3728
-39.7632
-40.1692
-40.6236
-41.156
-41.7886
-42.533
-43.3889
-44.3546
-45.4122
-46.5275
-47.6589
-48.7641
-49.8077
-50.7628
-51.6104
-52.3382
-52.9515
-53.4394
-53.8119
-54.1012
-54.2986
-54.3632
-54.2768
-54.0692
-53.8079
-53.5584
-53.3475
-53.1867
-53.098
-53.0867
-53.0816
-53.0203
-52.8831
-52.6461
-52.2707
-51.7273
-50.9981
-50.0752
-48.962
-47.6734
-46.236
-44.6829
-43.054
-41.3991
-39.7679
-38.2074
-36.7619
-35.484
-34.4289
-33.6362
-33.1276
-32.9146
-32.9962
-33.3204
-33.7752
-34.225
-34.6638
-35.1753
-35.7449
-36.298
-36.7876
-37.1114
-37.1421
-36.8196
-36.1358
-35.1425
-33.8981
-32.4306
-30.7307
-28.7672
-26.5055
-23.9396
-21.0989
-18.0367
-14.8254
-11.5414
-8.27324
-5.09883
-2.07705
0.756405
3.38066
5.77997
7.93435
9.82872
11.4683
12.8722
14.0625
15.0559
15.8655
16.5039
16.9853
17.3252
17.5383
17.6381
17.6363
17.5423
17.3648
17.1125
16.7945
16.4199
15.9981
15.5385
15.0509
14.5454
14.032
13.5197
13.0168
12.5307
12.0675
11.6326
11.23
10.8631
10.535
10.2476
10.0013
9.79559
9.62902
9.49862
9.40114
9.3335
9.29388
9.28122
9.29489
9.33261
9.38995
9.4614
9.54235
9.62991
9.72281
9.82166
9.92767
10.0424
10.1672
10.3036
10.4523
10.6138
10.7907
10.9866
11.2023
11.4318
11.6624
11.8776
12.0619
12.2063
12.3124
12.3868
12.4416
12.4742
12.4992
12.4993
-13.4882
-13.7161
-14.1683
-14.8373
-15.6979
-16.7144
-17.8514
-19.0807
-20.3815
-21.7369
-23.1283
-24.5335
-25.9285
-27.2905
-28.6026
-29.8545
-31.0393
-32.1548
-33.2072
-34.2064
-35.1602
-36.0693
-36.9277
-37.7258
-38.4565
-39.1189
-39.7185
-40.2666
-40.7777
-41.2715
-41.7723
-42.3034
-42.8854
-43.5369
-44.2728
-45.1003
-46.0227
-47.0427
-48.1433
-49.2912
-50.4455
-51.5684
-52.6276
-53.5955
-54.4537
-55.174
-55.739
-56.1568
-56.4605
-56.687
-56.8435
-56.8958
-56.8237
-56.6407
-56.394
-56.1367
-55.9051
-55.7096
-55.5596
-55.4566
-55.3352
-55.1447
-54.8671
-54.4735
-53.9212
-53.188
-52.2662
-51.1568
-49.8706
-48.4275
-46.8623
-45.208
-43.5044
-41.8019
-40.1507
-38.5911
-37.1568
-35.9034
-34.8772
-34.1123
-33.6286
-33.4307
-33.5156
-33.8282
-34.2637
-34.6904
-35.0996
-35.5648
-36.0897
-36.6032
-37.0408
-37.3058
-37.2816
-36.9095
-36.1894
-35.1747
-33.919
-32.4451
-30.7442
-28.7889
-26.5493
-24.02
-21.2281
-18.224
-15.0835
-11.8842
-8.70803
-5.62481
-2.68573
0.0759616
2.63769
4.9799
7.08372
8.94014
10.5566
11.9499
13.1369
14.1313
14.9453
15.5924
16.0873
16.4446
16.6776
16.798
16.8152
16.7377
16.5736
16.3316
16.0205
15.6496
15.2281
14.7663
14.2753
13.7664
13.2499
12.7353
12.231
11.744
11.2799
10.8434
10.4384
10.0688
9.73787
9.44718
9.19686
8.98644
8.81543
8.68232
8.58512
8.52382
8.49786
8.50571
8.54456
8.61003
8.69577
8.79558
8.90476
9.02064
9.14238
9.26976
9.4033
9.54308
9.68888
9.84112
10.0008
10.1701
10.3532
10.555
10.7792
11.0236
11.2803
11.5372
11.7794
11.9919
12.1642
12.2905
12.3752
12.4176
12.4331
12.4145
-13.244
-13.5057
-14.0318
-14.81
-15.8065
-16.9686
-18.2438
-19.5916
-20.9822
-22.3943
-23.8091
-25.2104
-26.5821
-27.9114
-29.1924
-30.4239
-31.6035
-32.7251
-33.7883
-34.7991
-35.7633
-36.6826
-37.5549
-38.3739
-39.1342
-39.8352
-40.4819
-41.0856
-41.6636
-42.237
-42.827
-43.4503
-44.121
-44.8545
-45.6629
-46.5509
-47.5253
-48.5875
-49.7215
-50.8948
-52.0706
-53.2166
-54.3053
-55.3035
-56.1915
-56.9395
-57.5148
-57.9235
-58.2207
-58.4416
-58.6127
-58.7136
-58.7235
-58.6456
-58.5016
-58.3206
-58.1387
-57.9626
-57.7893
-57.6047
-57.3595
-57.0269
-56.595
-56.032
-55.2955
-54.3729
-53.2668
-51.9858
-50.5456
-48.9745
-47.3195
-45.6174
-43.899
-42.2073
-40.5922
-39.0919
-37.7259
-36.5281
-35.5416
-34.8052
-34.3235
-34.0925
-34.1126
-34.3495
-34.7238
-35.1127
-35.4745
-35.8567
-36.2876
-36.7094
-37.0437
-37.2031
-37.091
-36.6551
-35.8977
-34.8634
-33.5945
-32.1074
-30.3943
-28.4371
-26.2183
-23.7394
-21.0232
-18.1139
-15.0806
-11.9999
-8.94581
-5.9796
-3.14632
-0.478214
1.99939
4.2644
6.30087
8.10566
9.68738
11.0592
12.2334
13.2208
14.0333
14.6847
15.189
15.5593
15.807
15.9417
15.9713
15.9037
15.7467
15.5085
15.1976
14.8233
14.3962
13.9281
13.4315
12.9182
12.3988
11.883
11.3784
10.8909
10.4259
9.987
9.57814
9.20361
8.86673
8.5681
8.30835
8.08888
7.90978
7.77183
7.67785
7.63033
7.62842
7.66721
7.74014
7.83915
7.95641
8.08622
8.2251
8.37151
8.52496
8.68471
8.84908
9.0157
9.18255
9.34941
9.5188
9.69429
9.88136
10.0872
10.3177
10.5744
10.8542
11.1484
11.4442
11.7249
11.9736
12.1724
12.314
12.3921
12.4206
12.3975
-12.8591
-13.1614
-13.7692
-14.6562
-15.7788
-17.0683
-18.4595
-19.8987
-21.3511
-22.7949
-24.2179
-25.6119
-26.9638
-28.2574
-29.4843
-30.6466
-31.7518
-32.7975
-33.7824
-34.7119
-35.5939
-36.4366
-37.2469
-38.0233
-38.7611
-39.4563
-40.1104
-40.7333
-41.3432
-41.961
-42.6053
-43.2899
-44.0259
-44.8242
-45.6927
-46.6358
-47.6566
-48.7557
-49.9192
-51.1185
-52.3216
-53.4998
-54.6302
-55.6796
-56.6209
-57.4351
-58.0843
-58.5627
-58.922
-59.2134
-59.4707
-59.6847
-59.8339
-59.9099
-59.9179
-59.8702
-59.7853
-59.6749
-59.5282
-59.3077
-58.9701
-58.5152
-57.9466
-57.2311
-56.3317
-55.2472
-53.9885
-52.5716
-51.02
-49.3671
-47.6726
-45.972
-44.287
-42.6534
-41.1172
-39.7093
-38.4381
-37.3283
-36.4035
-35.6778
-35.1638
-34.858
-34.7556
-34.8522
-35.1141
-35.4363
-35.7362
-36.0191
-36.322
-36.6089
-36.8036
-36.8278
-36.6081
-36.1035
-35.3123
-34.2623
-32.9795
-31.4756
-29.7479
-27.7909
-25.6002
-23.1824
-20.5584
-17.7649
-14.8626
-11.9214
-9.00766
-6.17507
-3.46487
-0.909592
1.46341
3.63298
5.58863
7.33141
8.86885
10.2097
11.3619
12.3348
13.1399
13.7903
14.2986
14.676
14.9319
15.074
15.1094
15.0448
14.8875
14.6451
14.3262
13.9417
13.5041
13.0273
12.5253
12.0093
11.4901
10.9764
10.4739
9.98754
9.52204
9.08049
8.66637
8.28415
7.9366
7.62502
7.35027
7.11504
6.92424
6.78261
6.69728
6.67133
6.70041
6.77516
6.886
7.02174
7.17344
7.33587
7.50676
7.68569
7.87242
8.0653
8.26013
8.4519
8.63729
8.81674
8.99421
9.17465
9.36512
9.57463
9.81194
10.0824
10.3858
10.7163
11.0633
11.4099
11.7366
12.0185
12.237
12.3759
12.4425
12.4358
-12.0738
-12.4258
-13.1097
-14.0915
-15.3273
-16.7368
-18.2489
-19.8014
-21.3539
-22.8791
-24.3573
-25.7712
-27.0974
-28.3084
-29.3925
-30.3622
-31.249
-32.0774
-32.8626
-33.6146
-34.34
-35.0472
-35.7436
-36.4283
-37.0964
-37.7436
-38.3724
-38.9925
-39.6206
-40.2764
-40.9748
-41.7245
-42.5295
-43.3959
-44.3298
-45.3325
-46.4026
-47.5417
-48.7396
-49.9728
-51.2139
-52.4361
-53.6171
-54.7289
-55.7434
-56.6491
-57.4136
-58.028
-58.5199
-58.9491
-59.35
-59.7331
-60.0641
-60.3206
-60.4982
-60.6042
-60.6483
-60.6365
-60.5541
-60.3535
-59.9898
-59.4724
-58.8164
-57.9969
-56.9859
-55.7921
-54.4353
-52.94
-51.3356
-49.6581
-47.964
-46.2946
-44.6681
-43.1161
-41.687
-40.4034
-39.2528
-38.2426
-37.3838
-36.6867
-36.1405
-35.7415
-35.4883
-35.3895
-35.4566
-35.6382
-35.8342
-36.0012
-36.1548
-36.2784
-36.3136
-36.1937
-35.8632
-35.2864
-34.4568
-33.3873
-32.0882
-30.5687
-28.8349
-26.8914
-24.743
-22.3996
-19.8786
-17.214
-14.4577
-11.6706
-8.91086
-6.22694
-3.65811
-1.23687
1.01121
3.07034
4.93552
6.60857
8.09337
9.39385
10.5153
11.4661
12.2576
12.9013
13.4079
13.7863
14.0438
14.1865
14.2201
14.1504
13.9837
13.7279
13.3936
12.9943
12.5454
12.0625
11.5591
11.0464
10.5338
10.0274
9.53195
9.05076
8.5872
8.14336
7.72236
7.32905
6.96674
6.6343
6.33629
6.07986
5.87501
5.7333
5.66173
5.66054
5.72123
5.83137
5.97921
6.15178
6.34001
6.53898
6.746
6.9602
7.18108
7.40489
7.62531
7.83668
8.03643
8.22618
8.41119
8.59679
8.79176
9.00707
9.25446
9.5423
9.87265
10.2419
10.6409
11.0533
11.4577
11.8259
12.1322
12.3506
12.4787
12.5116
-10.7223
-11.1508
-11.9237
-13.0088
-14.3651
-15.9164
-17.5882