/*--------------------------------*- C++ -*----------------------------------*\
  =========                 |
  \\      /  F ield         | OpenFOAM: The Open Source CFD Toolbox
   \\    /   O peration     | Website:  https://openfoam.org
    \\  /    A nd           | Version:  9
     \\/     M anipulation  |
\*---------------------------------------------------------------------------*/
FoamFile
{
    format      ascii;
    class       volScalarField;
    location    "0.072";
    object      pPrime2Mean;
}
// * * * * * * * * * * * * * * * * * * * * * * * * * * * * * * * * * * * * * //

dimensions      [0 4 -4 0 0 0 0];

internalField   nonuniform List<scalar> 
12225
(
295822
292902
289595
286045
282354
278602
274841
271105
267414
263776
260194
256662
253167
249689
246194
242624
238862
234630
295844
292928
289616
286062
282368
278614
274852
271115
267423
263786
260205
256675
253183
249710
246225
242674
238964
234927
295918
292987
289664
286101
282400
278641
274876
271137
267445
263809
260230
256704
253220
249758
246293
242782
239163
235382
296010
293085
289743
286165
282453
278685
274915
271174
267481
263847
260272
256753
253280
249837
246403
242950
239449
235916
296180
293232
289861
286259
282530
278751
274973
271228
267535
263902
260333
256824
253367
249950
246559
243178
239805
236489
296462
293438
290024
286390
282638
278842
275054
271303
267608
263978
260416
256921
253485
250100
246760
243460
240215
237082
296843
293713
290239
286563
282779
278963
275160
271401
267704
264078
260526
257046
253636
250290
247007
243792
240668
237687
297291
294065
290517
286785
282962
279117
275296
271527
267827
264205
260663
257203
253822
250520
247299
244169
241154
238299
297877
294511
290866
287064
283189
279309
275465
271684
267980
264362
260833
257394
254046
250790
247632
244584
241667
238916
298562
295055
291294
287406
283469
279545
275673
271875
268165
264551
261036
257621
254308
251100
248004
245032
242203
239539
299393
295716
291816
287821
283806
279829
275922
272104
268387
264777
261276
257886
254609
251449
248412
245510
242757
240167
300274
296444
292387
288273
284173
280137
276191
272352
268626
265018
261530
258163
254919
251801
248816
245972
243279
240746
301394
297290
293039
288785
284587
280484
276495
272630
268894
265288
261812
258467
255255
252177
249239
246447
243806
241323
302931
298423
293899
289455
285127
280936
276890
272991
269240
265633
262170
258850
255672
252637
249748
247007
244419
241983
305002
299919
295018
290322
285822
281516
277396
273454
269681
266072
262622
259326
256183
253191
250350
247661
245121
242731
307681
301849
296436
291410
286691
282241
278030
274033
270233
266618
263178
259906
256797
253847
251051
248409
245915
243566
310995
304132
298100
292686
287718
283105
278788
274729
270898
267275
263844
260594
257516
254603
251849
249248
246794
244481
314385
306489
299835
294032
288813
284043
279629
275512
271653
268023
264601
261372
258323
255443
252725
250160
247740
245458
316953
308204
301128
295094
289743
284891
280431
276292
272428
268806
265402
262197
259176
256328
253642
251108
248717
246460
315282
307661
301070
295273
290050
285280
280876
276780
272951
269361
265986
262810
259817
256995
254333
251820
249449
247210
313405
306574
300504
295029
290011
285373
281058
277024
273243
269690
266345
263195
260224
257421
254776
252279
249921
247694
311508
305397
299808
294648
289837
285338
281117
277151
273418
269901
266585
263458
260506
257719
255088
252603
250254
248035
309722
304287
299127
294248
289625
285251
281116
277210
273521
270036
266745
263636
260700
257926
255305
252829
250488
248274
308252
303357
298551
293901
289429
285157
281093
277235
273581
270122
266850
263757
260833
258068
255456
252985
250650
248441
307152
302649
298103
293626
289269
285075
281064
277244
273616
270176
266920
263837
260922
258165
255558
253092
250760
248554
306327
302125
297776
293424
289150
285012
281039
277246
273637
270211
266964
263890
260981
258229
255626
253163
250834
248630
305751
301761
297550
293285
289068
284967
281020
277245
273649
270232
266993
263924
261019
258270
255669
253209
250881
248679
305306
301523
297408
293197
289016
284939
281008
277244
273655
270245
267010
263944
261041
258294
255695
253236
250910
248708
305053
301389
297329
293149
288987
284923
281001
277243
273659
270252
267018
263955
261053
258308
255709
253251
250925
248724
304936
301333
297296
293130
288975
284916
280998
277242
273660
270254
267022
263959
261058
258313
255715
253257
250931
248730
198613
198593
198557
198508
198445
198369
198278
198168
198038
197884
197707
197507
197287
197046
196787
196510
196216
195905
195577
195232
194870
194492
194099
193689
193263
192819
192356
191873
191371
190851
190316
189763
189193
188606
188002
187382
186751
186108
185455
184791
184117
183432
182730
182008
181265
180501
179720
178919
178106
177283
176447
175598
174742
173877
173003
172126
171252
170366
169458
168533
167599
166660
165720
164784
163843
162880
161888
160877
159856
158823
157776
156715
155640
154551
153447
152334
151217
150098
148984
147879
146781
145684
144584
143477
142366
141243
140125
139006
137878
136713
135516
134325
133159
132022
130906
129803
128701
127592
126466
125317
124139
122928
121682
120400
119086
117743
116378
114997
113608
112217
110831
109455
108092
106743
105408
104085
102773
101471
100176
98886.8
97601.6
96319.2
95038.4
93758.3
92478.3
91198.2
89917.9
88637.5
87357.1
86077
84797.3
83518.2
82239.8
80962.2
79685.3
78409.1
77133.5
75858.4
74583.9
73309.8
72036.3
70763.3
69490.9
68219.2
66948.3
65678.3
64409.4
63141.7
61875.4
60610.9
59348.2
58087.8
56829.8
55574.6
54323.2
53076.9
51837
50604.4
49379.4
48162.1
46951.7
45745.9
44543.9
43349.4
42164
40985.3
39815
38655.4
37504.8
36362.8
35231.6
34108.6
32995.7
31896.3
30807.1
29729.4
28665
27617.6
26591.8
25596.4
198667
198648
198613
198562
198499
198421
198328
198215
198081
197924
197745
197545
197325
197086
196829
196554
196261
195950
195621
195275
194911
194531
194133
193720
193290
192842
192377
191892
191390
190871
190334
189780
189210
188624
188020
187401
186768
186124
185470
184802
184121
183429
182724
182003
181261
180497
179711
178900
178079
177250
176409
175558
174702
173842
172976
172098
171216
170327
169421
168505
167581
166652
165715
164769
163813
162840
161843
160830
159811
158784
157742
156689
155625
154539
153434
152321
151198
150080
148967
147860
146764
145670
144574
143472
142364
141245
140114
138973
137823
136651
135465
134292
133143
132018
130910
129812
128714
127606
126482
125334
124156
122945
121699
120417
119101
117758
116391
115009
113618
112226
110839
109462
108098
106748
105412
104089
102777
101474
100179
98889.4
97603.9
96321.2
95040.2
93759.9
92479.9
91199.7
89919.4
88638.9
87358.5
86078.4
84798.7
83519.6
82241.2
80963.5
79686.7
78410.5
77134.9
75859.9
74585.4
73311.4
72037.9
70765
69492.6
68221
66950.1
65680.1
64411.3
63143.7
61877.6
60613.3
59350.9
58090.8
56833.3
55578.6
54327.8
53082.3
51843.1
50610.8
49385.6
48167.6
46955.5
45748
44545.6
43352.4
42168
40988.9
39818.5
38658.9
37507.9
36366.4
35235.6
34112.9
33000.5
31900.2
30809.9
29731.6
28666.4
27617.8
26589.7
25588.2
198818
198801
198766
198712
198641
198555
198451
198329
198187
198025
197843
197643
197424
197187
196931
196657
196364
196052
195721
195371
195003
194618
194215
193795
193358
192905
192434
191948
191444
190923
190385
189831
189262
188676
188074
187457
186825
186179
185521
184850
184165
183469
182759
182032
181286
180515
179724
178912
178082
177241
176392
175535
174677
173816
172948
172072
171187
170296
169398
168493
167580
166654
165713
164755
163781
162793
161793
160784
159769
158748
157718
156673
155612
154527
153421
152302
151176
150052
148938
147835
146743
145655
144567
143470
142360
141231
140080
138915
137743
136570
135403
134253
133123
132011
130913
129821
128728
127624
126503
125357
124182
122973
121728
120446
119130
117784
116415
115031
113638
112244
110854
109475
108109
106758
105421
104098
102785
101481
100185
98895.1
97609
96325.8
95044.4
93763.8
92483.5
91203.1
89922.6
88642
87361.5
86081.3
84801.5
83522.4
82244.1
80966.4
79689.6
78413.4
77137.9
75862.9
74588.5
73314.6
72041.1
70768.2
69495.9
68224.3
66953.5
65683.7
64414.9
63147.5
61881.6
60617.4
59355.3
58095.6
56838.5
55584.4
54334.3
53089
51849.6
50616.9
49391.1
48172.1
46959.6
45753
44552.2
43358.5
42172.5
40993.9
39824.3
38665
37514.8
36374
35243.7
34121.9
33009
31907.3
30816.7
29737.1
28670
27618.6
26586.2
25577.1
199037
199020
198983
198927
198852
198758
198647
198518
198371
198205
198021
197819
197599
197360
197103
196827
196530
196214
195878
195522
195148
194755
194345
193918
193474
193013
192537
192045
191539
191017
190481
189929
189361
188777
188177
187561
186929
186283
185622
184948
184262
183562
182849
182120
181368
180589
179786
178962
178120
177268
176408
175544
174678
173810
172937
172059
171176
170290
169400
168503
167593
166662
165709
164738
163752
162755
161750
160740
159727
158713
157692
156656
155597
154513
153404
152278
151146
150021
148908
147810
146722
145638
144550
143448
142329
141185
140019
138842
137667
136502
135351
134217
133102
132002
130914
129831
128744
127646
126529
125388
124216
123010
121767
120485
119168
117820
116449
115061
113666
112269
110877
109495
108127
106774
105436
104111
102797
101492
100195
98904.1
97617.1
96333.1
95051
93769.8
92489
91208.3
89927.5
88646.7
87366
86085.7
84806
83526.8
82248.5
80970.9
79694.1
78418
77142.6
75867.7
74593.2
73319.4
72046
70773.2
69501
68229.5
66958.7
65688.9
64420.3
63153
61887.3
60623.3
59361.5
58102.1
56845.4
55591.9
54342.1
53097.1
51857.7
50624.6
49398
48178.1
46964.8
45757.9
44557.1
43363.3
42177.9
41000.6
39831.6
38672.9
37524.3
36385.2
35256.6
34135.9
33023.1
31920.4
30828.6
29747.1
28676.7
27621.3
26583.7
25566.7
199327
199308
199268
199208
199130
199033
198919
198786
198635
198465
198277
198070
197844
197600
197336
197052
196748
196423
196079
195715
195332
194931
194512
194077
193625
193158
192675
192178
191668
191145
190610
190061
189497
188917
188321
187708
187078
186431
185769
185094
184409
183711
182997
182264
181506
180718
179901
179061
178201
177330
176453
175572
174693
173816
172937
172057
171176
170293
169404
168506
167590
166652
165692
164718
163732
162734
161730
160722
159713
158703
157686
156653
155595
154509
153399
152274
151141
150015
148901
147803
146714
145628
144532
143420
142285
141126
139950
138772
137602
136445
135304
134182
133079
131991
130914
129839
128760
127668
126558
125422
124255
123053
121812
120531
119214
117864
116490
115099
113701
112301
110905
109520
108149
106794
105454
104128
102813
101507
100209
98916.4
97628.3
96343.2
95060.1
93778.1
92496.6
91215.4
89934.2
88653.1
87372.3
86091.8
84812
83532.9
82254.6
80977.1
79700.4
78424.4
77149.2
75874.4
74600.1
73326.2
72052.9
70780.2
69508.2
68236.7
66966
65696.2
64427.6
63160.4
61894.8
60631
59369.4
58110.4
56854.1
55600.9
54351.5
53106.7
51867.4
50634
49406.9
48186.3
46972.2
45764.6
44563.4
43369.1
42183.1
41005.6
39837.1
38679.2
37532.1
36396
35270.1
34151.2
33038.8
31936
30843.7
29760.6
28686.9
27626.9
26583.1
25558.3
199691
199668
199624
199562
199481
199382
199264
199128
198973
198798
198604
198390
198156
197902
197629
197334
197019
196683
196327
195952
195558
195146
194716
194271
193810
193335
192845
192343
191828
191303
190766
190218
189657
189082
188490
187881
187252
186606
185945
185270
184584
183884
183167
182429
181663
180864
180033
179173
178292
177398
176497
175596
174700
173812
172928
172048
171167
170283
169393
168490
167569
166628
165672
164706
163731
162746
161753
160755
159753
158744
157726
156690
155630
154545
153436
152311
151180
150054
148940
147837
146742
145643
144532
143403
142251
141078
139895
138716
137548
136395
135261
134148
133053
131975
130908
129842
128772
127688
126584
125455
124294
123097
121860
120581
119263
117911
116534
115141
113740
112338
110939
109551
108177
106819
105477
104149
102833
101526
100226
98931.9
97642.3
96355.9
95071.6
93788.6
92506.3
91224.3
89942.7
88661.2
87380.1
86099.6
84819.7
83540.6
82262.4
80985.1
79708.7
78433
77157.9
75883.3
74609.2
73335.5
72062.2
70789.5
69517.5
68246.1
66975.5
65705.6
64436.8
63169.7
61904.1
60640.5
59379.1
58120.3
56864.4
55611.5
54362.4
53117.9
51878.6
50645.1
49417.8
48196.7
46982
45773.8
44572.1
43377.2
42190.2
41011.7
39842.5
38684.1
37537.2
36402.3
35278.8
34162.4
33052
31950.5
30858.9
29775.2
28699.1
27635
26585.2
25552.9
200122
200098
200053
199990
199909
199808
199687
199546
199384
199203
199000
198777
198533
198267
197980
197672
197343
196994
196624
196235
195828
195403
194961
194504
194033
193548
193051
192542
192022
191491
190950
190400
189838
189264
188674
188065
187437
186791
186130
185453
184765
184061
183338
182592
181817
181006
180161
179283
178382
177466
176542
175618
174704
173806
172918
172036
171156
170272
169380
168475
167552
166616
165672
164722
163764
162797
161821
160837
159844
158839
157820
156780
155718
154633
153527
152405
151277
150150
149032
147920
146812
145695
144564
143412
142238
141050
139859
138675
137505
136352
135221
134113
133025
131954
130895
129838
128776
127700
126604
125482
124329
123138
121906
120631
119313
117960
116580
115184
113781
112376
110976
109585
108208
106847
105503
104174
102856
101547
100246
98950
97658.8
96371
95085.4
93801.2
92517.9
91235.3
89953
88671.2
87389.9
86109.2
84829.3
83550.3
82272.3
80995.3
79719.2
78443.9
77169.1
75894.9
74621
73347.4
72074.3
70801.7
69529.7
68258.3
66987.6
65717.5
64448.6
63181.3
61915.6
60652
59390.6
58132.1
56876.4
55623.8
54375.1
53130.8
51891.7
50658.3
49430.8
48209.3
46994.2
45785.6
44583.4
43387.9
42199.9
41020.4
39850
38689.8
37541.1
36405.1
35281.8
34167.5
33060.1
31961.2
30871.8
29789.3
28712
27644.8
26589.7
25551
200635
200611
200567
200503
200418
200312
200185
200036
199866
199674
199461
199225
198967
198687
198385
198061
197717
197353
196969
196566
196145
195706
195252
194783
194300
193806
193300
192784
192256
191718
191171
190614
190047
189468
188874
188262
187633
186987
186325
185647
184956
184247
183518
182763
181977
181155
180294
179400
178479
177539
176591
175645
174715
173807
172916
172033
171153
170270
169379
168475
167557
166631
165702
164770
163831
162883
161925
160955
159971
158971
157952
156912
155851
154769
153668
152552
151427
150300
149176
148054
146926
145786
144629
143449
142251
141044
139841
138648
137472
136317
135186
134079
132995
131929
130874
129824
128768
127700
126612
125498
124353
123170
121944
120673
119358
118004
116623
115225
113820
112415
111013
109620
108241
106878
105532
104201
102881
101571
100268
98970.4
97677.6
96388.2
95101.2
93815.8
92531.6
91248.1
89965.3
88683.1
87401.6
86120.8
84841
83562.2
82284.5
81007.8
79732.2
78457.3
77183.1
75909.4
74635.8
73362.6
72089.6
70817.1
69545.1
68273.7
67002.7
65732.3
64462.9
63195.2
61929.5
60665.7
59404.3
58145.8
56890.4
55638.1
54389.6
53145.7
51906.9
50673.5
49445.9
48224.3
47008.9
45799.8
44597.2
43401.3
42212.7
41032.1
39860.4
38698.2
37546.6
36407
35280.8
34166
33060.7
31965.6
30879.8
29800
28723.6
27654.8
26596.2
25552.5
201240
201215
201169
201100
201009
200895
200758
200599
200417
200212
199984
199734
199460
199164
198846
198508
198148
197769
197370
196953
196517
196065
195598
195117
194624
194119
193604
193078
192542
191995
191438
190872
190296
189708
189106
188489
187857
187209
186548
185871
185179
184468
183732
182969
182171
181336
180459
179543
178599
177635
176661
175694
174749
173831
172934
172049
171169
170287
169399
168501
167592
166680
165767
164850
163926
162995
162051
161094
160119
159125
158110
157074
156017
154940
153845
152735
151615
150490
149360
148224
147076
145909
144721
143510
142286
141059
139841
138637
137451
136290
135155
134047
132963
131899
130847
129800
128748
127685
126605
125500
124363
123188
121969
120703
119391
118039
116658
115260
113855
112450
111048
109655
108274
106910
105563
104230
102909
101597
100292
98992.7
97698.3
96407.4
95119.1
93832.4
92547.1
91262.9
89979.5
88697
87415.3
86134.6
84854.9
83576.4
82299.1
81023
79747.9
78473.8
77200.3
75927.2
74654.3
73381.5
72108.8
70836.6
69564.8
68293.2
67021.9
65751
64481.1
63212.8
61946.5
60682.3
59420.6
58162.2
56906.9
55654.8
54406.5
53162.9
51924.3
50691.1
49463.5
48241.6
47025.9
45816.4
44613.4
43417
42227.8
41046.5
39873.7
38709.8
37555.4
36411.5
35280.3
34162
33056.1
31962.8
30880.2
29803.9
28730.2
27662.5
26603
25556.2
201933
201906
201856
201781
201682
201559
201411
201239
201043
200823
200580
200313
200024
199712
199378
199024
198649
198254
197840
197408
196959
196494
196014
195521
195017
194503
193978
193443
192897
192339
191772
191194
190606
190006
189395
188770
188133
187484
186823
186147
185455
184741
184001
183228
182418
181565
180666
179725
178755
177763
176763
175775
174815
173888
172984
172096
171214
170334
169449
168557
167659
166758
165857
164952
164041
163122
162192
161247
160282
159297
158288
157257
156204
155131
154041
152938
151824
150701
149567
148419
147250
146056
144835
143593
142340
141093
139860
138642
137445
136275
135134
134022
132935
131869
130816
129768
128718
127659
126583
125486
124358
123191
121979
120718
119409
118059
116680
115285
113882
112478
111079
109686
108306
106942
105594
104260
102938
101624
100317
99016.8
97720.9
96428.6
95138.8
93851
92564.7
91279.6
89995.7
88712.8
87431.1
86150.5
84871.2
83593.2
82316.5
81041.3
79767.2
78494.2
77221.8
75949.7
74677.7
73405.5
72133.4
70861.5
69589.8
68318.1
67046.3
65774.6
64503.8
63234.8
61967.6
60702.6
59440.4
58182
56926.7
55674.6
54426.4
53182.9
51944.5
50711.2
49483.4
48261.3
47045.3
45835.4
44631.9
43434.9
42245
41063.2
39889.6
38724.4
37567.6
36420.2
35284.1
34160.6
33050.9
31956.1
30874.5
29800.6
28729.8
27664.9
26607
25560.1
202717
202688
202633
202551
202444
202311
202152
201967
201757
201523
201265
200983
200678
200350
200000
199630
199239
198829
198400
197954
197492
197014
196522
196018
195504
194980
194446
193900
193343
192775
192195
191604
191001
190387
189762
189127
188481
187827
187161
186482
185786
185069
184322
183538
182710
181836
180911
179943
178944
177923
176898
175890
174916
173979
173069
172176
171293
170413
169531
168642
167750
166857
165963
165066
164165
163257
162338
161404
160450
159474
158473
157447
156399
155330
154244
153145
152036
150917
149782
148624
147438
146219
144969
143695
142416
141149
139899
138666
137456
136276
135127
134008
132916
131844
130786
129733
128681
127621
126549
125458
124338
123178
121970
120712
119407
118061
116687
115297
113899
112499
111103
109713
108336
106973
105625
104291
102967
101652
100344
99042.5
97745.2
96451.4
95160.4
93871.4
92584.1
91298.3
90014
88730.9
87449.2
86168.9
84890.2
83613.1
82337.5
81063.5
79791
78519.6
77248.9
75978.4
74707.6
73436.1
72164.6
70893.2
69621.9
68350.1
67077.5
65804.7
64532.6
63262.4
61994
60727.7
59464.8
58205.8
56950.5
55698.3
54449.9
53206.3
51967.7
50734.2
49506
48283.6
47067.1
45856.6
44652.5
43454.8
42264.4
41082
39907.9
38741.7
37583.3
36433.3
35293.2
34164.7
33049.5
31950
30865.5
29791.2
28722.7
27660.6
26605.8
25560.8
203601
203569
203509
203421
203307
203165
202996
202802
202581
202336
202065
201770
201450
201108
200743
200356
199949
199522
199078
198617
198140
197649
197145
196631
196106
195571
195026
194469
193900
193317
192722
192113
191492
190859
190216
189563
188902
188233
187554
186863
186157
185429
184670
183872
183026
182131
181187
180201
179182
178139
177091
176063
175072
174120
173201
172300
171411
170527
169642
168752
167860
166969
166076
165183
164287
163387
162478
161554
160609
159641
158646
157626
156583
155517
154435
153341
152237
151123
149989
148827
147629
146391
145116
143815
142511
141224
139957
138709
137487
136296
135138
134010
132909
131827
130759
129700
128641
127578
126506
125417
124299
123142
121938
120683
119383
118044
116678
115295
113904
112511
111119
109735
108361
107001
105655
104321
102997
101681
100372
99069.2
97770.8
96475.8
95183.6
93893.6
92605.5
91319.2
90034.5
88751.4
87470
86190.4
84912.7
83637
82363.3
81091.4
79821.1
78552.2
77283.8
76015.3
74746
73475.7
72204.9
70934
69663
68391
67117.5
65843
64569.1
63297.2
62027.1
60759.2
59494.9
58235.1
56979.2
55726.4
54477.5
53233.5
51994.6
50760.5
49531.7
48308.7
47091.5
45880.4
44675.5
43477.2
42286.2
41103.2
39928.5
38761.8
37602.5
36450.8
35307.9
34175.2
33054.5
31948.5
30857.8
29779.7
28710.4
27650.1
26598.3
25556.2
204602
204568
204504
204412
204293
204147
203974
203775
203548
203295
203015
202708
202374
202016
201633
201228
200802
200356
199893
199414
198920
198414
197897
197369
196830
196281
195720
195147
194561
193961
193346
192716
192071
191413
190744
190065
189378
188684
187981
187268
186541
185792
185013
184196
183333
182423
181471
180481
179457
178408
177349
176307
175298
174328
173391
172477
171574
170677
169783
168886
167987
167089
166192
165296
164402
163506
162603
161685
160746
159783
158793
157778
156739
155678
154600
153511
152414
151305
150176
149016
147813
146563
145269
143947
142622
141316
140034
138774
137540
136339
135171
134032
132917
131822
130742
129672
128604
127535
126458
125364
124244
123085
121882
120631
119337
118007
116652
115280
113898
112512
111128
109750
108382
107027
105683
104350
103026
101710
100400
99096.7
97797.3
96501.4
95208.2
93917.5
92628.8
91342.2
90057.5
88774.8
87494.1
86215.7
84939.8
83666.6
82395.7
81127
79859.9
78594.2
77328.6
76062.5
74795.3
73526.1
72256
70985.8
69715.2
68442.8
67168
65891.6
64615.4
63341
62068.6
60798.5
59532.1
58270.6
57013.2
55759.4
54509.6
53264.9
52025.4
50790.7
49561.1
48337.2
47119.3
45907.2
44701.4
43502.4
42310.8
41127.5
39952.4
38785.2
37625.4
36472.8
35328
34192.1
33066.5
31953.8
30855.5
29770.7
28697.3
27635.7
26585
25545.4
205749
205713
205648
205556
205437
205292
205120
204919
204688
204425
204130
203805
203451
203071
202666
202240
201793
201326
200842
200341
199826
199298
198760
198212
197654
197084
196503
195908
195300
194675
194034
193375
192699
192008
191304
190591
189871
189143
188407
187661
186903
186127
185323
184487
183611
182695
181744
180762
179746
178704
177649
176601
175579
174589
173629
172693
171769
170852
169942
169031
168121
167213
166305
165402
164503
163605
162703
161788
160852
159890
158902
157890
156855
155800
154729
153646
152556
151456
150335
149180
147978
146724
145420
144084
142743
141421
140126
138856
137614
136402
135222
134069
132940
131830
130736
129653
128575
127496
126409
125305
124176
123012
121808
120562
119276
117957
116613
115253
113881
112505
111129
109760
108399
107048
105707
104376
103053
101738
100428
99124.3
97824.3
96527.7
95234
93942.9
92654.1
91367.5
90083.3
88801.5
87522.2
86245.9
84973.1
83703.7
82437.1
81172.5
79909.5
78647.1
77384.8
76121.9
74856.4
73588.4
72319.2
71049.4
69778.9
68506
67230.2
65951.3
64672.3
63395.2
62120.1
60847.1
59577.9
58313.5
57053.9
55798.1
54546.8
53301.1
52060.9
50825.2
49594.5
48369.7
47150.8
45937.8
44731.1
43531.3
42339.2
41155.6
39980.3
38813.1
37653.1
36500
35353.8
34215.3
33085.5
31966.7
30860.4
29767.4
28687.3
27621.2
26568.6
25529.3
207067
207030
206966
206876
206759
206615
206440
206230
205985
205702
205385
205035
204656
204250
203820
203368
202895
202403
201892
201363
200819
200264
199697
199121
198535
197938
197328
196703
196062
195403
194726
194032
193320
192592
191850
191099
190341
189574
188800
188019
187226
186419
185592
184738
183854
182936
181990
181019
180021
178997
177954
176909
175880
174876
173895
172934
171985
171043
170107
169178
168254
167331
166411
165496
164588
163684
162778
161860
160923
159962
158976
157966
156935
155886
154822
153747
152663
151569
150454
149307
148112
146861
145558
144218
142868
141535
140228
138950
137699
136477
135285
134118
132974
131849
130741
129645
128554
127461
126360
125243
124103
122932
121726
120483
119205
117896
116564
115214
113854
112489
111124
109764
108410
107065
105729
104400
103079
101765
100456
99151.7
97851.5
96554.7
95260.9
93969.8
92681.5
91395.7
90112.7
88832.5
87555.7
86282.8
85014.4
83750.2
82489.1
81229.7
79971.1
78712.5
77453.5
76192.7
74929
73662.1
72392.9
71123.1
69853.1
68579.9
67302.4
66021.4
64739.6
63460
62181.9
60905.6
59633
58365.1
57102.2
55843.8
54590.3
53343.1
52101.5
50864.6
49632.7
48406.9
47186.9
45972.9
44765.4
43564.9
42372.6
41188.8
40013.6
38846.5
37686.7
36533.4
35386.1
34245.2
33111.6
31987
30873.1
29771.4
28682.9
27609.7
26552.1
25510.2
208609
208570
208504
208411
208290
208138
207951
207724
207457
207149
206803
206423
206011
205570
205101
204609
204096
203566
203019
202455
201876
201285
200682
200068
199444
198808
198159
197493
196811
196112
195396
194662
193912
193146
192367
191578
190783
189980
189170
188352
187527
186691
185840
184971
184079
183161
182220
181260
180279
179274
178247
177210
176179
175166
174170
173189
172216
171248
170286
169333
168389
167449
166513
165585
164664
163750
162834
161909
160969
160008
159023
158015
156987
155942
154884
153815
152736
151646
150535
149392
148203
146962
145668
144337
142991
141653
140339
139051
137791
136558
135353
134174
133016
131878
130756
129645
128538
127430
126313
125181
124029
122850
121640
120399
119127
117827
116505
115167
113818
112465
111112
109763
108418
107079
105747
104422
103103
101790
100483
99179
97879.2
96582.7
95289.4
93999.1
92711.9
91427.8
90147
88869.9
87596.9
86328.9
85066.2
83808.1
82553.1
81299.1
80045
78789.9
77532.9
76272.9
75009.4
73742.9
72473.7
71204.4
69933.9
68660.2
67381.6
66099.5
64816.7
63534.6
62254
60974.6
59698.4
58426.8
57160.1
55898.2
54641.9
53392.4
52148.7
50910.2
49676.9
48449.8
47228.9
46014.2
44806
43605.2
42412.6
41228.7
40053.7
38887
37727.5
36574.1
35425.8
34282.6
33145.2
32014.9
30893.5
29782.9
28685.1
27603.2
26538.2
25490.8
210286
210243
210169
210064
209930
209763
209558
209310
209016
208674
208285
207853
207385
206888
206365
205821
205260
204686
204098
203494
202875
202243
201598
200942
200274
199596
198906
198200
197478
196740
195986
195216
194431
193632
192821
192001
191175
190343
189505
188661
187809
186948
186076
185192
184292
183374
182436
181480
180509
179517
178505
177478
176447
175425
174417
173419
172428
171441
170458
169484
168520
167563
166612
165668
164733
163805
162877
161944
160997
160033
159048
158040
157014
155972
154919
153854
152777
151686
150573
149429
148244
147011
145732
144418
143086
141757
140442
139149
137880
136638
135422
134232
133063
131912
130776
129649
128526
127401
126268
125121
123956
122769
121555
120314
119046
117753
116441
115114
113778
112438
111097
109757
108421
107088
105761
104440
103124
101814
100507
99204.9
97906.1
96610.6
95318.5
94029.8
92744.8
91463.7
90186.8
88914.3
87646.8
86384.7
85128
83875.7
82626
81376.1
80125
78870.9
77613.8
76353.5
75089.9
73821.9
72551.6
71281.8
70011.9
68738.9
67460.9
66178.9
64896.1
63614.2
62332.6
61051.5
59772.3
58497.6
57227.2
55961.5
54701.9
53449.5
52203.4
50962.5
49727.8
48499.6
47278.1
46063
44854.7
43653.7
42461
41277.1
40102.1
38935.7
37776.5
36623
35473.7
34328.1
33186.5
32050.1
30920.9
29801.3
28693.7
27602
26528.1
25473.2
211934
211883
211794
211668
211510
211317
211085
210806
210473
210084
209640
209147
208615
208054
207472
206875
206267
205650
205020
204376
203717
203045
202362
201667
200962
200248
199522
198783
198029
197261
196477
195679
194867
194043
193207
192364
191515
190661
189802
188937
188066
187186
186298
185400
184491
183568
182629
181674
180704
179718
178716
177697
176668
175640
174620
173607
172600
171598
170601
169611
168632
167661
166697
165742
164794
163853
162914
161971
161018
160049
159061
158053
157027
155987
154934
153869
152788
151691
150573
149425
148242
147018
145754
144460
143147
141831
140522
139229
137956
136707
135483
134283
133104
131941
130791
129650
128513
127373
126224
125064
123888
122692
121474
120233
118968
117682
116379
115063
113739
112411
111080
109749
108420
107094
105772
104455
103142
101834
100530
99228.7
97931.1
96637.1
95346.9
94060.9
92779.4
91502.7
90231.3
88965
87703.7
86447.3
85195.8
83947.4
82700.4
81452.4
80200.9
78945.7
77686.4
76423.9
75157.5
73887.7
72616.5
71346.5
70077.6
68806.7
67530.9
66251.5
64971.2
63691.6
62411.7
61130.7
59851.1
58574.6
57301.5
56032.6
54769.8
53514.1
52265
51022.1
49786
48557.4
47336.1
46121.4
44913.3
43712.5
42519.7
41335.7
40160.4
38993.8
37834.5
36680.7
35530.3
34382.1
33235.9
32092.9
30955.2
29825.9
28708.1
27606.1
26522.4
25458.7
213565
213500
213384
213222
213020
212780
212500
212172
211791
211351
210854
210305
209712
209087
208444
207796
207145
206488
205819
205136
204440
203733
203015
202286
201549
200804
200049
199282
198503
197710
196903
196082
195249
194406
193551
192688
191821
190949
190072
189189
188301
187407
186504
185593
184674
183744
182801
181844
180872
179887
178888
177874
176849
175817
174787
173760
172739
171724
170716
169717
168727
167745
166772
165806
164848
163897
162948
161996
161036
160061
159069
158060
157032
155990
154935
153865
152778
151673
150547
149395
148213
146997
145748
144471
143176
141874
140574
139285
138012
136760
135530
134323
133134
131961
130800
129646
128495
127342
126181
125008
123823
122621
121400
120159
118897
117617
116323
115017
113704
112385
111063
109740
108417
107097
105780
104467
103158
101852
100550
99250.6
97954.7
96662.5
95375
94092.7
92816.3
91545.7
90281.1
89021.6
87766.2
86514.2
85265
84017.5
82769.9
81520
80265.7
79006.4
77742.9
76476.4
75207.1
73935.2
72663.4
71394.2
70127.6
68860.2
67588.7
66314.1
65038.3
63762.9
62486.7
61208.8
59931.6
58655.3
57381.2
56110.4
54845.1
53586.5
52334.7
51090.1
49853.6
48625.6
47405.5
46192
44984.7
43784.2
42591.5
41407
40230.8
39063.2
37903.2
36748.4
35596.3
34444.9
33293.3
32142.8
30995.8
29856.1
28727.5
27614.6
26520.7
25447.6
215199
215112
214958
214743
214477
214166
213813
213417
212973
212477
211929
211329
210685
210007
209314
208624
207938
207245
206540
205821
205089
204347
203596
202836
202070
201297
200516
199726
198925
198111
197284
196445
195594
194734
193863
192984
192100
191212
190319
189421
188518
187610
186695
185773
184843
183904
182955
181993
181019
180032
179032
178020
176997
175964
174927
173889
172856
171830
170813
169807
168809
167820
166838
165864
164898
163938
162980
162020
161051
160071
159075
158062
157032
155985
154925
153849
152756
151643
150510
149354
148172
146962
145724
144461
143180
141889
140599
139316
138047
136795
135562
134349
133154