/*--------------------------------*- C++ -*----------------------------------*\
  =========                 |
  \\      /  F ield         | OpenFOAM: The Open Source CFD Toolbox
   \\    /   O peration     | Website:  https://openfoam.org
    \\  /    A nd           | Version:  9
     \\/     M anipulation  |
\*---------------------------------------------------------------------------*/
FoamFile
{
    format      ascii;
    class       volScalarField;
    location    "0.072";
    object      s;
}
// * * * * * * * * * * * * * * * * * * * * * * * * * * * * * * * * * * * * * //

dimensions      [0 0 0 0 0 0 0];

internalField   nonuniform List<scalar> 
12225
(
1
1
1
1
1
1
1
1
1
1
1
1
1
1
1
1
1
0.999999
1
1
1
1
1
1
1
1
1
1
1
1
1
1
1
1
1
1
1
1
1
1
1
1
1
1
1
1
1
1
1
1
1
1
1
1
1
1
1
1
1
1
1
1
1
1
1
1
1
1
1
1
1
1
1
1
1
1
1
1
1
1
1
1
1
1
1
1
1
1
1
1
1
1
1
1
1
1
1
1
1
1
1
1
1
1
1
1
1
1
1
1
1
1
1
1
1
1
1
1
1
1
1
1
1
1
1
1
1
1
1
1
1
1
1
1
1
1
1
1
1
1
1
1
1
1
1
1
1
1
1
1
1
1
1
1
1
1
1
1
1
1
1
1
1
1
1
1
1
1
1
1
1
1
1
1
1
1
1
1
1
1
1
1
1
1
1
1
1
1
1
1
1
1
1
1
1
1
1
1
1
1
1
1
1
1
1
1
1
1
1
1
1
1
1
1
1
1
1
1
1
1
1
1
1
1
1
1
1
1
1
1
1
1
1
1
1
1
1
1
1
1
1
1
1
1
1
1
1
1
1
1
1
1
1
1
1
1
1
1
1
1
1
1
1
1
1
1
1
1
1
1
1
1
1
1
1
1
1
1
1
1
1
1
1
1
1
1
1
1
1
1
1
1
1
1
1
1
1
1
1
1
1
1
1
1
1
1
1
1
1
1
1
1
1
1
1
1
1
1
1
1
1
1
1
1
1
1
1
1
1
1
1
1
1
1
1
1
1
1
1
1
1
1
1
1
1
1
1
1
1
1
1
1
1
1
1
1
1
1
1
1
1
1
1
1
1
1
1
1
1
1
1
1
1
1
1
1
1
1
1
1
1
1
1
1
1
1
1
1
1
1
1
1
1
1
1
1
1
1
1
1
1
1
1
1
1
1
1
1
1
1
1
1
1
1
1
1
1
1
1
1
1
1
1
1
1
1
1
1
1
1
1
1
1
1
1
1
1
1
1
1
1
1
1
1
1
1
1
1
1
1
1
1
1
1
1
1
1
1
1
1
1
1
1
1
1
1
1
1
1
1
1
1
1
1
1
1
1
1
1
1
1
1
1
1
1
1
1
1
1
1
1
1
1
1
1
1
1
1
1
1
1
1
1
1
1
1
1
1
1
1
1
1
1
1
1
1
1
1
1
1
1
1
1
1
1
1
1
1
1
1
1
1
1
1
1
1
1
1
1
1
0.73556
0.717529
0.712816
0.712312
0.713234
0.715451
0.719208
0.725032
0.729434
0.734004
0.738113
0.74123
0.743745
0.746171
0.747897
0.749511
0.750953
0.751739
0.751763
0.751566
0.75099
0.750075
0.748578
0.746686
0.74423
0.741848
0.739402
0.735944
0.732182
0.728478
0.724863
0.72135
0.718089
0.71467
0.711184
0.709305
0.708832
0.707794
0.695132
0.657742
0.647906
0.653296
0.667788
0.678712
0.688824
0.70245
0.721193
0.736166
0.739109
0.736836
0.730613
0.721109
0.707751
0.687168
0.670867
0.669463
0.701763
0.804247
0.831817
0.815657
0.805536
0.799198
0.758727
0.742283
0.74447
0.74889
0.751051
0.753646
0.75635
0.758489
0.760596
0.762735
0.765034
0.767284
0.769267
0.771319
0.77381
0.776421
0.778462
0.780057
0.782065
0.784752
0.78713
0.788429
0.790573
0.792819
0.794555
0.796892
0.798943
0.801125
0.802787
0.804695
0.806979
0.808883
0.810896
0.813116
0.815103
0.817039
0.818768
0.820529
0.822261
0.823961
0.825579
0.827322
0.829098
0.831223
0.833529
0.835719
0.837664
0.839783
0.841922
0.844021
0.846155
0.847853
0.849738
0.851314
0.852672
0.853709
0.854305
0.854336
0.853467
0.850073
0.844499
0.838866
0.835055
0.833766
0.834112
0.837216
0.842371
0.846783
0.850735
0.854305
0.857551
0.860488
0.863119
0.865478
0.8676
0.869563
0.871423
0.873173
0.874731
0.876023
0.877024
0.877731
0.878123
0.878236
0.878157
0.877753
0.877481
0.877569
0.878607
0.882106
0.887463
0.891354
0.894382
0.897777
0.900692
0.902035
0.903397
0.905259
0.9062
0.906884
0.908719
0.913959
0.919258
0.927136
0.936369
0.93948
0.939637
0.941288
0.942905
0.940668
0.928828
0.906728
0.895
0.873474
0.774479
0.652161
0.65067
0.714051
0.741525
0.735077
0.731657
0.725272
0.72012
0.723579
0.733077
0.750149
0.763883
0.778665
0.792006
0.801504
0.808925
0.815373
0.818591
0.82114
0.822016
0.821792
0.821074
0.819843
0.818071
0.81652
0.814778
0.812148
0.80841
0.804108
0.800211
0.794535
0.787203
0.78132
0.77558
0.767569
0.75645
0.744044
0.73207
0.721181
0.713721
0.711033
0.707016
0.69825
0.692498
0.682965
0.676298
0.674737
0.67529
0.680706
0.700595
0.756591
0.805699
0.824441
0.825733
0.818566
0.775526
0.710669
0.681447
0.677881
0.705862
0.802247
0.831158
0.813025
0.794387
0.770589
0.736884
0.726002
0.72095
0.718771
0.718298
0.718715
0.722271
0.724901
0.728932
0.733333
0.738516
0.744319
0.749589
0.754203
0.759149
0.765595
0.770243
0.776932
0.781357
0.787191
0.794629
0.798492
0.803796
0.80931
0.812835
0.816986
0.82128
0.824926
0.828357
0.831864
0.834937
0.838098
0.84125
0.844272
0.846918
0.849289
0.850725
0.851169
0.851151
0.850555
0.849374
0.847911
0.846092
0.844708
0.843836
0.84344
0.843301
0.84338
0.844651
0.846055
0.848465
0.851035
0.854027
0.857564
0.861552
0.865936
0.870659
0.875658
0.881018
0.886737
0.891228
0.892749
0.891321
0.879176
0.851237
0.8327
0.824192
0.821427
0.821183
0.822227
0.827122
0.834932
0.842132
0.848933
0.855433
0.861682
0.867587
0.873381
0.879062
0.884467
0.889389
0.893915
0.897868
0.901319
0.904364
0.90687
0.908986
0.911096
0.912736
0.913921
0.915322
0.916388
0.916662
0.916759
0.91697
0.917316
0.918125
0.919829
0.921494
0.923337
0.926928
0.938064
0.952041
0.960576
0.964082
0.964226
0.963534
0.962633
0.961679
0.960579
0.954897
0.936889
0.914544
0.902822
0.875174
0.761949
0.707602
0.729827
0.740679
0.73759
0.723359
0.721552
0.729337
0.746951
0.779713
0.805542
0.826011
0.836757
0.84239
0.845356
0.846014
0.845453
0.843955
0.842559
0.840692
0.837607
0.834454
0.83207
0.830102
0.828072
0.825782
0.823211
0.819713
0.81444
0.808318
0.802549
0.79677
0.79083
0.785292
0.781095
0.778122
0.77421
0.765823
0.746909
0.72727
0.716213
0.709258
0.704152
0.7006
0.698013
0.69334
0.689166
0.688587
0.688945
0.692992
0.723175
0.807928
0.851715
0.859737
0.85145
0.805217
0.74688
0.719458
0.718258
0.756189
0.821923
0.827663
0.79826
0.760852
0.724399
0.712466
0.709612
0.70999
0.717202
0.723403
0.733175
0.74823
0.761799
0.778395
0.795942
0.811681
0.830015
0.846076
0.860395
0.873057
0.880796
0.891225
0.903066
0.909885
0.917024
0.924499
0.928736
0.933502
0.937533
0.93967
0.942153
0.944244
0.946116
0.947788
0.949121
0.950202
0.951269
0.952259
0.952967
0.953495
0.953777
0.95388
0.953548
0.952636
0.951301
0.949466
0.947201
0.944336
0.94098
0.93715
0.933011
0.928653
0.92313
0.918182
0.91399
0.910587
0.90799
0.905753
0.903215
0.900333
0.897212
0.89376
0.890088
0.8874
0.887741
0.892821
0.902219
0.912747
0.921458
0.924483
0.922885
0.910512
0.87637
0.850732
0.8366
0.829614
0.826432
0.825578
0.825698
0.827288
0.833541
0.842324
0.850363
0.857653
0.864837
0.871717
0.878028
0.884223
0.890406
0.896446
0.902521
0.908203
0.912576
0.915031
0.915725
0.915552
0.91358
0.908039
0.903021
0.899862
0.898679
0.89902
0.902235
0.909324
0.921069
0.939108
0.956191
0.965414
0.967259
0.965371
0.956028
0.948686
0.944208
0.942585
0.944493
0.952608
0.95308
0.950317
0.938983
0.918834
0.865067
0.809468
0.804515
0.72462
0.696767
0.704673
0.730604
0.781078
0.8223
0.841523
0.85068
0.854605
0.855639
0.85486
0.85327
0.851012
0.847459
0.843766
0.840313
0.835886
0.830251
0.82538
0.823052
0.822151
0.820482
0.817918
0.815379
0.812042
0.806177
0.798064
0.79011
0.784404
0.780906
0.778743
0.777246
0.775988
0.774528
0.771828
0.765779
0.747853
0.723697
0.708537
0.701074
0.697537
0.695935
0.693054
0.690199
0.688783
0.688816
0.69237
0.721248
0.808004
0.858644
0.873107
0.871558
0.848495
0.808404
0.786103
0.784595
0.808948
0.827608
0.813998
0.765698
0.722287
0.707337
0.704301
0.706979
0.718789
0.740513
0.774175
0.799009
0.831015
0.855451
0.878922
0.904253
0.917841
0.934664
0.941852
0.946716
0.951416
0.953953
0.958252
0.961854
0.964226
0.966784
0.968692
0.970055
0.971675
0.972343
0.972683
0.972927
0.973142
0.973345
0.973403
0.973416
0.973411
0.973371
0.973274
0.9731
0.972895
0.972725
0.972569
0.972407
0.97219
0.971929
0.9716
0.971216
0.970694
0.970009
0.969126
0.968021
0.966652
0.964967
0.963319
0.961961
0.96131
0.961499
0.962744
0.964808
0.966532
0.9676
0.967786
0.966463
0.961151
0.948854
0.933103
0.918984
0.913085
0.915459
0.928953
0.940652
0.943624
0.942575
0.9353
0.91146
0.887797
0.871741
0.860667
0.854139
0.85183
0.851695
0.852
0.852984
0.855986
0.862421
0.869018
0.874544
0.878717
0.882502
0.886853
0.891949
0.897529
0.902407
0.904862
0.904964
0.90171
0.886994
0.871379
0.86375
0.861161
0.861283
0.864365
0.875876
0.899127
0.92602
0.950052
0.963557
0.966464
0.964015
0.951038
0.940939
0.937298
0.93632
0.936335
0.936319
0.936866
0.943138
0.949169
0.948836
0.944263
0.918039
0.86544
0.85306
0.686312
0.698739
0.74431
0.817112
0.845312
0.855969
0.860265
0.861156
0.8602
0.858065
0.854421
0.847992
0.83964
0.83018
0.820075
0.809755
0.800449
0.79245
0.787896
0.786691
0.786491
0.785956
0.783276
0.77799
0.773247
0.766577
0.759336
0.755538
0.755211
0.755768
0.757726
0.763516
0.768066
0.769245
0.768831
0.766109
0.755717
0.727112
0.703396
0.689999
0.684907
0.68439
0.684797
0.684528
0.683092
0.683472
0.69538
0.758686
0.839457
0.87475
0.881754
0.877532
0.857708
0.834067
0.817124
0.812782
0.821688
0.823743
0.789131
0.732148
0.705759
0.700385
0.701592
0.71504
0.745816
0.779094
0.799608
0.832093
0.859886
0.887339
0.915413
0.936738
0.951477
0.957272
0.96
0.961437
0.962547
0.963718
0.965266
0.966879
0.968353
0.969682
0.97091
0.972096
0.97289
0.973128
0.973193
0.973202
0.973193
0.973165
0.973111
0.973021
0.972912
0.97281
0.972726
0.972655
0.972606
0.972544
0.97249
0.972457
0.9724
0.972352
0.972329
0.972368
0.972472
0.972534
0.972472
0.972382
0.972248
0.971972
0.971469
0.970745
0.969918
0.969526
0.969776
0.971089
0.973447
0.97619
0.978955
0.981588
0.983882
0.985123
0.984886
0.981038
0.966372
0.947773
0.93916
0.939739
0.949149
0.9574
0.958593
0.957183
0.949746
0.927777
0.907659
0.894323
0.88597
0.881344
0.879514
0.879263
0.879384
0.880007
0.882304
0.886241
0.889434
0.891445
0.892249
0.892372
0.892353
0.892267
0.891949
0.889005
0.874601
0.858462
0.851406
0.849537
0.849668
0.851404
0.857404
0.874363
0.905159
0.935592
0.956761
0.964552
0.964214
0.955174
0.942389
0.938065
0.93789
0.939746
0.942479
0.942581
0.939912
0.93781
0.939934
0.946765
0.947253
0.940707
0.904166
0.880126
0.706698
0.743912
0.825709
0.8546
0.863531
0.86549
0.864501
0.862247
0.85709
0.846864
0.831147
0.810741
0.790855
0.772415
0.755566
0.741653
0.733469
0.728692
0.728063
0.726269
0.722085
0.715349
0.71185
0.709954
0.710314
0.711452
0.713779
0.718096
0.721894
0.725565
0.733802
0.747336
0.757616
0.762186
0.762779
0.760311
0.745697
0.71037
0.681697
0.665848
0.660187
0.659254
0.66
0.662934
0.670408
0.690104
0.754514
0.834102
0.873355
0.884019
0.883147
0.874457
0.856256
0.839056
0.826192
0.820361
0.821725
0.811389
0.763496
0.712503
0.698141
0.696751
0.705039
0.73136
0.762161
0.781448
0.806621
0.839685
0.869089
0.900161
0.929953
0.950191
0.958479
0.961635
0.963033
0.96372
0.964166
0.964707
0.965444
0.966275
0.967065
0.967773
0.968396
0.969005
0.969459
0.969609
0.969662
0.969682
0.96969
0.969694
0.969706
0.969756
0.969873
0.970075
0.970338
0.970609
0.970864
0.971018
0.971085
0.971099
0.970991
0.970764
0.970465
0.970165
0.969963
0.970074
0.970553
0.971246
0.972115
0.972678
0.973085
0.97336
0.973479
0.973081
0.972406
0.972327
0.973276
0.975493
0.978077
0.981074
0.984235
0.987301
0.989803
0.991249
0.99128
0.988831
0.978219
0.966103
0.962251
0.963515
0.970154
0.973457
0.973468
0.97164
0.964105
0.942169
0.920723
0.905934
0.896396
0.890835
0.888188
0.887342
0.887287
0.887702
0.889889
0.893041
0.894845
0.895374
0.895273
0.893991
0.887866
0.871252
0.857353
0.85041
0.848208
0.848044
0.848822
0.852844
0.866694
0.895153
0.922929
0.946875
0.960913
0.964115
0.961342
0.948719
0.941615
0.941101
0.944752
0.954134
0.960169
0.961424
0.95921
0.948118
0.941024
0.94175
0.946044
0.945129
0.928938
0.897812
0.748927
0.809446
0.857015
0.867857
0.868874
0.867068
0.861812
0.849598
0.825668
0.795171
0.757731
0.728897
0.707586
0.694809
0.687677
0.683032
0.680228
0.673724
0.669712
0.662041
0.667068
0.677483
0.685617
0.691293
0.695287
0.698954
0.702146
0.704932
0.709454
0.720384
0.736013
0.748738
0.755282
0.756334
0.753784
0.738648
0.695902
0.663061
0.648087
0.644341
0.644765
0.64833
0.656889
0.672611
0.712011
0.786592
0.848579
0.877104
0.884136
0.883004
0.871177
0.851608
0.844969
0.836633
0.827046
0.821081
0.818947
0.796956
0.74226
0.700958
0.693412
0.694681
0.711318
0.740354
0.76342
0.781891
0.814042
0.85254
0.891892
0.933182
0.95087
0.958455
0.96174
0.963211
0.963958
0.964546
0.965104
0.965578
0.966105
0.96682
0.967508
0.968045
0.968607
0.96917
0.969657
0.970003
0.970202
0.970352
0.970512
0.970707
0.971036
0.971473
0.972017
0.972632
0.97318
0.97362
0.973933
0.974111
0.974258
0.974389
0.974331
0.973982
0.973141
0.97163
0.969984
0.96893
0.96814
0.967691
0.967567
0.968477
0.970408
0.972651
0.974141
0.975308
0.976172
0.976291
0.975815
0.975842
0.977166
0.97961
0.982501
0.985651
0.988896
0.991808
0.99387
0.994674
0.994354
0.991531
0.984482
0.980557
0.980138
0.982092
0.985255
0.985887
0.985504
0.983385
0.976431
0.956132
0.933158
0.915613
0.903431
0.896006
0.89231
0.891023
0.890883
0.891389
0.893357
0.894602
0.894722
0.893751
0.887575
0.869574
0.856602
0.851776
0.851109
0.851519
0.853965
0.863544
0.892759
0.921841
0.94288
0.957538
0.964174
0.96452
0.959048
0.947672
0.9447
0.946557
0.957032
0.967387
0.972026
0.973205
0.972781
0.968883
0.952835
0.944198
0.94457
0.945152
0.93969
0.913095
0.769673
0.838171
0.870242
0.871889
0.868981
0.85848
0.834299
0.791909
0.736275
0.696344
0.671962
0.660782
0.657483
0.656801
0.652779
0.639501
0.625854
0.615605
0.620167
0.638182
0.662445
0.680251
0.690968
0.696425
0.698821
0.70007
0.702367
0.70755
0.718552
0.732059
0.743203
0.748164
0.748062
0.740728
0.70704
0.664296
0.644579
0.640089
0.641148
0.64744
0.664876
0.699869
0.746395
0.799947
0.848689
0.874501
0.882747
0.882441
0.875113
0.856085
0.832405
0.820154
0.819247
0.823794
0.824612
0.82012
0.811402
0.786422
0.726574
0.694316
0.690136
0.695277
0.717275
0.745536
0.761616
0.785859
0.830411
0.881325
0.930463
0.952093
0.960019
0.963243
0.964731
0.965522
0.966254
0.967167
0.968342
0.969666
0.971165
0.972724
0.973978
0.975018
0.975772
0.976314
0.976775
0.977114
0.977487
0.977863
0.978155
0.978377
0.97843
0.978238
0.9778
0.977208
0.976615
0.976128
0.975751
0.975571
0.975543
0.975955
0.97661
0.977452
0.978291
0.978872
0.97833
0.975936
0.972429
0.969143
0.966952
0.965324
0.96449
0.965053
0.968665
0.973259
0.976562
0.979015
0.980855
0.981472
0.981183
0.981316
0.983005
0.985699
0.988378
0.991084
0.993595
0.995534
0.996572
0.996718
0.996189
0.993917
0.99197
0.991483
0.991821
0.993232
0.993836
0.993808
0.993263
0.991228
0.985417
0.96784
0.943151
0.923064
0.908768
0.899883
0.895279
0.893265
0.892614
0.892514
0.892452
0.891934
0.888099
0.873328
0.861825
0.858615
0.858538
0.859417
0.863553
0.879475
0.912376
0.937608
0.954632
0.964111
0.96683
0.965996
0.958303
0.950021
0.949364
0.953164
0.964771
0.972699
0.976427
0.977463
0.977368
0.97607
0.969076
0.951377
0.945863
0.945394
0.943166
0.925673
0.793159
0.864032
0.875424
0.871577
0.855638
0.814365
0.745012
0.678965
0.650666
0.635534
0.631503
0.622292
0.609746
0.593991
0.577953
0.56724
0.567386
0.576041
0.598591
0.639522
0.678089
0.700316
0.70826
0.708909
0.709131
0.710417
0.7151
0.726322
0.735697
0.740098
0.74087
0.734617
0.702773
0.661252
0.642404
0.6401
0.64611
0.670482
0.726357
0.785473
0.834462
0.867156
0.882073
0.886852
0.885602
0.874155
0.859312
0.84359
0.826654
0.81382
0.804835
0.801691
0.802501
0.808262
0.816008
0.814829
0.804364
0.776581
0.71388
0.689485
0.68746
0.696705
0.72187
0.744826
0.76032
0.795841
0.852371
0.912683
0.950133
0.962436
0.966985
0.96901
0.970074
0.971109
0.972699
0.97481
0.976949
0.978803
0.98005
0.980651
0.981118
0.981424
0.981584
0.981885
0.982101
0.982143
0.982141
0.982079
0.981864
0.981361
0.980506
0.979358
0.978014
0.976443
0.974495
0.972419
0.970774
0.969853
0.969604
0.969991
0.971231
0.973238
0.976309
0.979091
0.981281
0.982797
0.983637
0.982126
0.97699
0.970527
0.965321
0.962182
0.960987
0.962173
0.968664
0.976189
0.981263
0.984643
0.986832
0.987522
0.987999
0.989563
0.990977
0.992141
0.993688
0.995414
0.996886
0.997801
0.998137
0.998125
0.997774
0.997274
0.997137
0.997214
0.997628
0.997873
0.997884
0.997766
0.997228
0.995531
0.990828
0.976286
0.951455
0.930815
0.91607
0.905878
0.898807
0.894531
0.892457
0.890906
0.887662
0.877552
0.868469
0.865863
0.865929
0.867526
0.875185
0.903639
0.935043
0.952522
0.962806
0.968136
0.969155
0.967789
0.959577
0.954086
0.95399
0.957765
0.967835
0.975009
0.978941
0.980137
0.980038
0.97898
0.975529
0.961935
0.949122
0.946309
0.944544
0.934668
0.809068
0.874527
0.875476
0.857692
0.802812
0.703623
0.642224
0.624149
0.614508
0.598174
0.581994
0.570658
0.560815
0.554242
0.550883
0.550073
0.552351
0.561516
0.586783
0.638386
0.691237
0.711923
0.720431
0.723927
0.726382
0.730465
0.734192
0.735773
0.735126
0.725264
0.686579
0.65079
0.638756
0.641322
0.660228
0.717822
0.798502
0.866452
0.900278
0.906196
0.904354
0.894548
0.866799
0.84207
0.826944
0.815237
0.806954
0.802019
0.798409
0.795572
0.793483
0.793222
0.794354
0.799902
0.807545
0.807876
0.799436
0.767036
0.704867
0.686327
0.685917
0.69872
0.725086
0.743032
0.761406
0.806434
0.870417
0.934186
0.959822
0.96819
0.971498
0.973112
0.974383
0.97623
0.978423
0.980128
0.981213
0.981668
0.981786
0.981785
0.981593
0.981286
0.981151
0.981111
0.981179
0.981115
0.980985
0.98076
0.980351
0.979493
0.977772
0.974877
0.97123
0.96762
0.964688
0.963349
0.962987
0.963178
0.963852
0.964229
0.964428
0.96451
0.964826
0.96858
0.974693
0.980777
0.984894
0.987567
0.988853
0.987518
0.980208
0.969397
0.961746
0.958575
0.95832
0.962369
0.973854
0.982863
0.987893
0.990678
0.991955
0.99302
0.994493
0.995587
0.995977
0.996374
0.997139
0.997988
0.998626
0.99898
0.999108
0.999125
0.999121
0.999131
0.999217
0.99935
0.999399
0.999401
0.999376
0.999252
0.998823
0.997519
0.99388
0.983005
0.965313
0.947402
0.92886
0.91295
0.903872
0.897011
0.88698
0.876122
0.871146
0.870945
0.872271
0.877739
0.897668
0.944267
0.970033
0.976231
0.975318
0.973613
0.972588
0.970176
0.962524
0.958625
0.958555
0.960924
0.969151
0.977148
0.981822
0.983284
0.983029
0.980487
0.977395
0.969932
0.954337
0.947887
0.945752
0.939654
0.830593
0.877554
0.866496
0.808586
0.691626
0.62963
0.612022
0.601781
0.586856
0.576728
0.568692
0.559834
0.55266
0.54914
0.547997
0.548142
0.551444
0.563006
0.591824
0.644088
0.69712
0.715461
0.72336
0.726893
0.72772
0.726729
0.721214
0.704053
0.666141
0.640962
0.63453
0.645702
0.672942
0.751186
0.842727
0.901904
0.925202
0.924208
0.914883
0.889505
0.849003
0.823101
0.80883
0.80161
0.797335
0.795019
0.793882
0.793225
0.792658
0.791691
0.790694
0.790608
0.791467
0.796043
0.802229
0.803183
0.795708
0.758401
0.697765
0.6837
0.684634
0.701409
0.72692
0.740746
0.764329
0.816828
0.887037
0.945377
0.964316
0.970366
0.97284
0.974186
0.975844
0.978205
0.979868
0.9805
0.98072
0.980659
0.979732
0.977966
0.975959
0.974337
0.973245
0.97272
0.972447
0.972275
0.972052
0.97165
0.971128
0.970301
0.968771
0.966532
0.964161
0.962451
0.961776
0.961633
0.961762
0.962354
0.963327
0.96382
0.963859
0.963409
0.96173
0.960603
0.961667
0.966698
0.97629
0.984918
0.989756
0.991921
0.992202
0.988934
0.976192
0.963029
0.95744
0.956709
0.959254
0.971778
0.984432
0.99076
0.993609
0.994606
0.995585
0.996931
0.997878
0.998275
0.998343
0.998449
0.998802
0.999176
0.999422
0.999559
0.999636
0.999696
0.999752
0.999797
0.999823
0.999832
0.999833
0.999828
0.999805
0.999724
0.99947
0.99879
0.997253
0.993844
0.985972
0.968864
0.941542
0.911335
0.888581
0.878763
0.878451
0.881107
0.888645
0.905918
0.948589
0.978784
0.990489
0.992216
0.990494
0.984732
0.979796
0.972402
0.965662
0.963061
0.963031
0.964555
0.971243
0.979992
0.984295
0.985245
0.984578
0.980037
0.976353
0.97267
0.961317
0.950661
0.947368
0.942504
0.845431
0.875017
0.834734
0.714979
0.632724
0.613002
0.604113
0.594657
0.583087
0.575916
0.56746
0.558864
0.554309
0.552894
0.552742
0.554278
0.561128
0.576833
0.603373
0.644499
0.680451
0.692763
0.69682
0.697161
0.688036
0.669174
0.642802
0.630186
0.629302
0.642645
0.673771
0.744182
0.859589
0.910782
0.931131
0.936111
0.92876
0.907307
0.85874
0.82307
0.806043
0.798939
0.796208
0.795253
0.794911
0.794848
0.794694
0.794306
0.793532
0.792155
0.790742
0.790327
0.790948
0.794688
0.799026
0.799855
0.791928
0.748111
0.692526
0.681648
0.684492
0.703787
0.726405
0.738211
0.764319
0.819128
0.896459
0.950063
0.965534
0.970611
0.972823
0.974165
0.975896
0.978102
0.978929
0.978983
0.977902
0.975215
0.971274
0.968517
0.967399
0.966943
0.96678
0.966741
0.966816
0.966902
0.96693
0.966861
0.966662
0.966307
0.965775
0.964964
0.963717
0.962607
0.962157
0.962231
0.962567
0.963098
0.964109
0.964935
0.964981
0.964504
0.96208
0.959875
0.959102
0.959434
0.961682
0.970231
0.982892
0.990507
0.993506
0.994032
0.992147
0.980605
0.963984
0.957152
0.956548
0.959514
0.973708
0.987074
0.99336
0.995923
0.996774
0.997553
0.998426
0.999003
0.999266
0.999319
0.999311
0.99934
0.999512
0.999688
0.999791
0.999853
0.999894
0.999922
0.99994
0.999949
0.999952
0.999952
0.999952
0.999946
0.999928
0.999879
0.999757
0.999465
0.998721
0.996489
0.988013
0.952735
0.914685
0.906178
0.908663
0.919354
0.942532
0.965315
0.983359
0.993582
0.997358
0.997931
0.997484
0.995231
0.987634
0.97699
0.970216
0.967954
0.967983
0.969432
0.975847
0.983552
0.986559
0.986596
0.985148
0.978463
0.972409
0.970244
0.965118
0.953764
0.949006
0.94473
0.852873
0.865021
0.776242
0.650909
0.621
0.610991
0.606841
0.602726
0.598269
0.592407
0.585092
0.583334
0.581857
0.578295
0.577198
0.57707
0.580836
0.588848
0.598963
0.609168
0.61754
0.622323
0.625447
0.62609
0.620005
0.618989
0.622535
0.63612
0.67082
0.730245
0.838403
0.906206
0.932014
0.940906
0.942621
0.933699
0.909909
0.855614
0.817306
0.801209
0.795794
0.79476
0.795112
0.796598
0.798898
0.800046
0.799938
0.799419
0.798176
0.795735
0.792162
0.790757
0.79114
0.79449
0.797184
0.797112
0.786705
0.741134
0.688529
0.679999
0.684605
0.705606
0.724931
0.735065
0.762798
0.817082
0.894845
0.949627
0.965245
0.970306
0.972474
0.97376
0.975426
0.976378
0.976179
0.973762
0.969634
0.966261
0.964774
0.964051
0.963793
0.963759
0.964295
0.964667
0.964994
0.965391
0.96572
0.9659
0.965984
0.96592
0.965691
0.965392
0.965165
0.964903
0.964657
0.964721
0.964884
0.96508
0.965483
0.965807
0.965828
0.965423
0.963183
0.960108
0.958896
0.958682
0.958893
0.960216
0.966062
0.980683
0.990617
0.994259
0.994646
0.992691
0.979837
0.963237
0.95761
0.957809
0.963421
0.980046
0.990808
0.995688
0.997532
0.998268
0.998792
0.999258
0.999551
0.999684
0.999723
0.999724
0.999725
0.99976
0.999848
0.999906
0.999941
0.999962
0.999975
0.999982
0.999986
0.999987
0.999987
0.999987
0.999985
0.99998
0.999964
0.999922
0.999787
0.999247
0.996577
0.981604
0.963065
0.961742
0.966966
0.978265
0.984809
0.990633
0.995645
0.998411
0.999392
0.999541
0.999401
0.998523
0.994765
0.984273
0.976753
0.974364
0.974438
0.976077
0.982718
0.988099
0.988723
0.987462
0.983532
0.973727
0.966581
0.965253
0.963558
0.957156
0.950811
0.946664
0.857046
0.8472
0.713675
0.635491
0.62471
0.629795
0.646194
0.653125
0.656982
0.66126
0.665807
0.667638
0.663864
0.65211
0.642509
0.631785
0.619186
0.609665
0.605732
0.60431
0.603945
0.605186
0.608449
0.612762
0.61924
0.632939
0.663911
0.712583
0.789026
0.884471
0.924709
0.941053
0.946803
0.948282
0.945065
0.928283
0.893409
0.837055
0.806149
0.795757
0.793819
0.794186
0.796645
0.799846
0.801665
0.802484
0.802496
0.802114
0.800958
0.799312
0.796152
0.792754
0.792154
0.794674
0.796332
0.795467
0.78353
0.733669
0.684988
0.678321
0.685014
0.708356
0.721755
0.731056
0.758289
0.810817
0.887671
0.946932
0.96408
0.969361
0.971452
0.972499
0.972983
0.972597
0.970246
0.966271
0.962963
0.961438
0.960695
0.960181
0.959844
0.959685
0.95981
0.961053
0.961734
0.963015
0.963966
0.964732
0.96522
0.965472
0.965548
0.965468
0.965406
0.965316
0.965174
0.965164
0.965196
0.965298
0.965548
0.965773
0.965803
0.965446
0.963489
0.960521
0.959026
0.958655
0.958684
0.959042
0.960385
0.965748
0.981211
0.991329
0.994562
0.99449
0.990877
0.974403
0.962089
0.959443
0.961366
0.972705
0.987039
0.994349
0.997457
0.998666
0.999182
0.99947
0.999682
0.999811
0.99987
0.99989
0.999895
0.999899
0.999913
0.999942
0.999965
0.999979
0.999988
0.999992
0.999995
0.999996
0.999997
0.999997
0.999997
0.999996
0.999994
0.999987
0.999961
0.999836
0.999147
0.995468
0.99226
0.992265
0.993712
0.995584
0.996604
0.997868
0.999038
0.999662
0.999871
0.999899
0.999857
0.999552
0.998077
0.991809
0.984552
0.982276
0.982441
0.984872
0.990084
0.990909
0.989935
0.984746
0.976013
0.96888
0.962194
0.960018
0.959985
0.958087
0.952508
0.948499
0.857823
0.825074
0.682728
0.644342
0.649991
0.688073
0.732909
0.756646
0.787677
0.816767
0.830108
0.836707
0.838383
0.82753
0.812195
0.786048
0.754361
0.714155
0.683094
0.658559
0.645283
0.640367
0.642377
0.657018
0.683615
0.712905
0.758572
0.823369
0.896189
0.930312
0.944949
0.951035
0.953115
0.953498
0.946894
0.92847
0.891301
0.834492
0.804028
0.794379
0.793069
0.793977
0.79743
0.800606
0.802613
0.803744
0.804304
0.804657
0.804898
0.804648
0.80328
0.799502
0.795479
0.795701
0.796241
0.794354
0.780633
0.725321
0.682015
0.677113
0.686238
0.708462
0.718485
0.726482
0.750272
0.797925
0.869774
0.939454
0.961317
0.967319
0.969109
0.969647
0.969607
0.96839
0.965389
0.961183
0.958327
0.956935
0.954655
0.952303
0.950574
0.949848
0.950581
0.951721
0.95393
0.956555
0.95897
0.961046
0.962554
0.9635
0.96398
0.964078
0.964065
0.964042
0.963925
0.96387
0.963927
0.964099
0.964414
0.964726
0.964889
0.964762
0.963515
0.960919
0.95923
0.958732
0.958776
0.959059
0.959848
0.961973
0.969618
0.984988
0.99271
0.99436
0.993255
0.984302
0.968836
0.963085
0.963118
0.969022
0.983398
0.992486
0.99683
0.99864
0.999361
0.999666
0.999804
0.999883
0.999929
0.999951
0.99996
0.999966
0.999972
0.999978
0.999984
0.99999
0.999994
0.999996
0.999998
0.999999
0.999999
0.999999
0.999999
0.999999
0.999999
0.999998
0.999995
0.999982
0.99991
0.999483
0.999006
0.998987
0.999129
0.999294
0.999378
0.999574
0.999814
0.999929
0.999954
0.999954
0.999935
0.999826
0.999262
0.996378
0.991308
0.989931
0.990372
0.992789
0.993171
0.992175
0.988274
0.976743
0.96812
0.96443
0.959746
0.956963
0.956735
0.956435
0.953661
0.94996
0.858467
0.810905
0.682869
0.663225
0.696025
0.791717
0.876857
0.910186
0.930507
0.942729
0.948356
0.951146
0.952297
0.952608
0.951515
0.948344
0.940834
0.922364
0.885259
0.830658
0.770558
0.731835
0.715094
0.711322
0.722245
0.755414
0.80036
0.856516
0.911659
0.939103
0.950602
0.955639
0.95769
0.958179
0.954421
0.940517
0.905959
0.848144
0.806763
0.794159
0.791554
0.792829
0.796712
0.800581
0.803391
0.805774
0.807541
0.809822
0.811664
0.81224
0.811298
0.808961
0.805004
0.800119
0.796536
0.793584
0.776222
0.717564
0.679778
0.676458
0.687919
0.707922
0.715765
0.721832
0.741142
0.778253
0.837928
0.91839
0.954806
0.964582
0.966594
0.966696
0.966561
0.965507
0.96217
0.957291
0.952773
0.947964
0.943171
0.939137
0.937037
0.936189
0.936705
0.938094
0.940991
0.944896
0.949846
0.954555
0.95811
0.960575
0.962172
0.963082
0.963351
0.963299
0.962911
0.962357
0.962011
0.961848
0.961797
0.961964
0.962246
0.962351
0.962239
0.960971
0.959252
0.958693
0.958818
0.959703
0.960444
0.961788
0.965852
0.978493
0.989654
0.99351
0.993525
0.989226
0.975501
0.96799
0.966899
0.969514
0.980748
0.990656
0.995918
0.998339
0.999333
0.999721
0.999875
0.999937
0.999964
0.999977
0.999985
0.999988
0.999991
0.999993
0.999995
0.999996
0.999997
0.999998
0.999999
0.999999
1
1
1
1
1
1
1
0.999998
0.999993
0.999953
0.999888
0.999882
0.999892
0.999904
0.999911
0.999931
0.999969
0.999971
0.999955
0.999936
0.999922
0.99987
0.999617
0.998172
0.995935
0.995639
0.995848
0.995542
0.994237
0.989925
0.978418
0.968898
0.962959
0.961111
0.958606
0.955353
0.954497
0.954435
0.953443
0.950934
0.860486
0.816829
0.698358
0.691059
0.770877
0.894941
0.9404
0.957726
0.964635
0.966981
0.967429
0.96648
0.965426
0.96475
0.967838
0.971685
0.977732
0.982026
0.984794
0.977308
0.953426
0.890601
0.808226
0.750854
0.728012
0.739018
0.773548
0.82585
0.886509
0.929513
0.948504
0.956136
0.959131
0.960658
0.96078
0.957193
0.939631
0.886442
0.821303
0.795419
0.790035
0.789784
0.793068
0.798716
0.803711
0.808213
0.81121
0.815143
0.817516
0.818122
0.817377
0.815618
0.811934
0.804331
0.796731
0.792619
0.771665
0.710654
0.678006
0.675856
0.688104
0.706549
0.712426
0.716967
0.727734
0.750708
0.794374
0.862304
0.935504
0.958605
0.964408
0.965367
0.965056
0.963569
0.960077
0.95476
0.947849
0.940593
0.935621
0.932627
0.931374
0.931236
0.931606
0.932543
0.93435
0.936775
0.939657
0.944585
0.951649
0.957168
0.960754
0.962603
0.963309
0.963363
0.963068
0.962365
0.961833
0.961477
0.961104
0.960696
0.960381
0.960141
0.959878
0.959487
0.958744
0.958492
0.958722
0.96065
0.962383
0.963318
0.965821
0.975053
0.987332
0.993008
0.993641
0.991326
0.981144
0.973494
0.971678
0.97273
0.980238
0.98987
0.995255
0.997971
0.999199
0.999696
0.999884
0.999954
0.999979
0.999989
0.999994
0.999996
0.999997
0.999998
0.999998
0.999999
0.999999
0.999999
1
1
1
1
1
1
1
1
1
1
0.999999
0.999995
0.999988
0.999987
0.999988
0.999989
0.99999
0.999992
0.99999
0.999966
0.999834
0.999754
0.999762
0.99978
0.999679
0.999114
0.998607
0.998246
0.997536
0.995695
0.990723
0.979284
0.970979
0.965086
0.960835
0.958982
0.958037
0.955428
0.95331
0.952953
0.952633
0.951198
0.864486
0.835058
0.717945
0.704562
0.787501
0.918591
0.956412
0.966453
0.968929
0.969153
0.967404
0.963617
0.959351
0.951104
0.9439
0.944887
0.956508
0.976259
0.989436
0.994642
0.996425
0.992443
0.973117
0.902668
0.796159
0.735154
0.727405
0.747048
0.810853
0.886845
0.930334
0.949481
0.957547
0.960727
0.96215
0.961991
0.956246
0.924951
0.849016
0.801718
0.789741
0.787429
0.789086
0.794885
0.802612
0.809417
0.813416
0.81812
0.820444
0.820994
0.820441
0.818604
0.814303
0.805305
0.796639
0.790854
0.76729
0.705228
0.676654
0.675058
0.687829
0.704695
0.708411
0.710608
0.712118
0.723716
0.750309
0.790969
0.867131
0.938723
0.958721
0.963549
0.964323
0.963395
0.960678
0.955799
0.949067
0.941362
0.935256
0.931791
0.930629
0.930586
0.930845
0.931586
0.933225
0.935483
0.937494
0.939177
0.942659
0.950654
0.957528
0.96159
0.963422
0.963996
0.964012
0.963489
0.962612
0.961987
0.961377
0.960747
0.960262
0.959908
0.959544
0.959064
0.958679
0.958628
0.958939
0.961477
0.964986
0.966202
0.967896
0.974209
0.986217
0.99292
0.994324
0.993193
0.98649
0.979452
0.977106
0.977342
0.981403
0.989866
0.995083
0.997795
0.999083
0.999646
0.999871
0.999954
0.999983
0.999993
0.999997