/*--------------------------------*- C++ -*----------------------------------*\
  =========                 |
  \\      /  F ield         | OpenFOAM: The Open Source CFD Toolbox
   \\    /   O peration     | Website:  https://openfoam.org
    \\  /    A nd           | Version:  9
     \\/     M anipulation  |
\*---------------------------------------------------------------------------*/
FoamFile
{
    format      ascii;
    class       volVectorField;
    location    "0.072";
    object      U_0;
}
// * * * * * * * * * * * * * * * * * * * * * * * * * * * * * * * * * * * * * //

dimensions      [0 1 -1 0 0 0 0];

internalField   nonuniform List<vector> 
12225
(
(9.71525 0.0939601 0)
(9.20678 0.0530364 0)
(8.92207 0.0230706 0)
(8.69002 0.0343482 0)
(8.47367 0.0510406 0)
(8.26162 0.0593154 0)
(8.04089 0.0633762 0)
(7.80501 0.0644199 0)
(7.58439 0.057586 0)
(7.38499 0.046588 0)
(7.25944 0.0327888 0)
(7.1316 0.0288936 0)
(7.11049 0.0122233 0)
(7.02107 0.0227169 0)
(7.11467 -0.0239234 0)
(7.09737 0.0153416 0)
(7.38544 -0.112188 0)
(7.45803 -0.0188156 0)
(10.0739 0.10064 0)
(10.1329 0.135745 0)
(10.0071 0.0948583 0)
(9.9253 0.0648438 0)
(9.96263 0.0469518 0)
(10.0444 0.0422222 0)
(10.0861 0.0501507 0)
(10.0612 0.0583847 0)
(10.0058 0.0619246 0)
(9.96042 0.0511093 0)
(9.96263 0.0429542 0)
(9.99347 0.0241243 0)
(10.0685 0.0179601 0)
(10.1321 -0.00885595 0)
(10.2469 -0.0245787 0)
(10.3426 -0.0785899 0)
(10.526 -0.115776 0)
(10.7066 -0.224871 0)
(9.70453 0.0380186 0)
(9.75549 0.0848888 0)
(9.84222 0.0612839 0)
(9.91676 0.0371658 0)
(9.96179 0.0242009 0)
(9.98264 0.0337714 0)
(9.99699 0.0635074 0)
(10.0109 0.0882521 0)
(10.0289 0.086466 0)
(10.0625 0.0590758 0)
(10.1253 0.0214563 0)
(10.223 -0.00760284 0)
(10.3477 -0.034316 0)
(10.4878 -0.0478392 0)
(10.6315 -0.0828739 0)
(10.7719 -0.123249 0)
(10.912 -0.206405 0)
(11.0573 -0.321861 0)
(9.84496 0.0868176 0)
(9.80823 0.105046 0)
(9.76039 0.0628792 0)
(9.7792 0.0404789 0)
(9.84164 0.0251588 0)
(9.88701 0.0237608 0)
(9.90086 0.0368227 0)
(9.90404 0.0504336 0)
(9.92085 0.0484082 0)
(9.96562 0.0215434 0)
(10.0405 -0.0169911 0)
(10.1411 -0.0557694 0)
(10.2599 -0.0881557 0)
(10.3902 -0.116729 0)
(10.5247 -0.152297 0)
(10.6579 -0.201502 0)
(10.7862 -0.273043 0)
(10.913 -0.378333 0)
(9.68814 0.0472336 0)
(9.66159 0.103124 0)
(9.71371 0.0560102 0)
(9.84735 0.00897794 0)
(9.9351 -0.00447597 0)
(9.92858 0.0213879 0)
(9.89068 0.0616509 0)
(9.89547 0.0802306 0)
(9.96113 0.0610671 0)
(10.0645 0.0130985 0)
(10.1755 -0.0455628 0)
(10.2755 -0.0954789 0)
(10.3585 -0.132198 0)
(10.4293 -0.161801 0)
(10.4972 -0.196931 0)
(10.5685 -0.25069 0)
(10.6479 -0.329236 0)
(10.7366 -0.44572 0)
(9.73082 0.13002 0)
(9.77659 0.120899 0)
(9.84097 0.0157119 0)
(9.85681 -0.0139674 0)
(9.83796 0.00328174 0)
(9.82505 0.0302761 0)
(9.84802 0.0418085 0)
(9.91096 0.0265475 0)
(9.99541 -0.0119972 0)
(10.08 -0.0578368 0)
(10.1588 -0.096873 0)
(10.2365 -0.126059 0)
(10.3178 -0.150517 0)
(10.402 -0.178074 0)
(10.4876 -0.217791 0)
(10.5707 -0.278461 0)
(10.6529 -0.362779 0)
(10.7331 -0.479409 0)
(9.71884 0.0300181 0)
(9.96599 0.0274442 0)
(9.99303 0.0135544 0)
(9.96363 0.0121569 0)
(9.95329 0.0108291 0)
(9.97179 0.0203909 0)
(10.0147 0.0298664 0)
(10.0739 0.0249229 0)
(10.136 -0.00461747 0)
(10.1942 -0.0578634 0)
(10.2495 -0.11926 0)
(10.3039 -0.173883 0)
(10.3587 -0.215553 0)
(10.414 -0.248368 0)
(10.4715 -0.284231 0)
(10.5318 -0.337715 0)
(10.5973 -0.41767 0)
(10.6673 -0.531686 0)
(10.1526 0.016415 0)
(10.0132 0.0148406 0)
(9.9026 0.0265926 0)
(9.89076 0.0135988 0)
(9.94896 0.00318453 0)
(10.0132 0.00165669 0)
(10.0509 -0.00211835 0)
(10.0762 -0.0229718 0)
(10.1083 -0.0594481 0)
(10.1532 -0.101091 0)
(10.2069 -0.138373 0)
(10.262 -0.169033 0)
(10.3136 -0.197419 0)
(10.3627 -0.23223 0)
(10.4133 -0.281676 0)
(10.4691 -0.353093 0)
(10.5313 -0.448585 0)
(10.5935 -0.569714 0)
(9.79724 0.089171 0)
(9.80692 0.0579954 0)
(9.81253 0.0364005 0)
(9.82944 -0.00543345 0)
(9.86098 -0.0314066 0)
(9.91529 -0.0208975 0)
(9.98346 0.00308242 0)
(10.0458 0.00141524 0)
(10.0936 -0.0419392 0)
(10.1345 -0.111888 0)
(10.1821 -0.18346 0)
(10.244 -0.239755 0)
(10.318 -0.278557 0)
(10.3975 -0.310016 0)
(10.4724 -0.348704 0)
(10.5375 -0.408322 0)
(10.5865 -0.492828 0)
(10.619 -0.60538 0)
(10.1766 -0.0364956 0)
(10.1488 0.0304167 0)
(10.0632 0.0214053 0)
(10.0581 0.00338115 0)
(10.06 -0.0270893 0)
(10.041 -0.0527857 0)
(10.0249 -0.064555 0)
(10.0288 -0.0744416 0)
(10.0485 -0.0973974 0)
(10.0756 -0.136754 0)
(10.1097 -0.185369 0)
(10.1526 -0.233606 0)
(10.206 -0.277173 0)
(10.2635 -0.318959 0)
(10.3188 -0.366161 0)
(10.3617 -0.427632 0)
(10.3914 -0.506032 0)
(10.4056 -0.606805 0)
(9.71061 0.0170342 0)
(9.74114 0.0777048 0)
(9.79025 0.0467495 0)
(9.83459 -0.0106375 0)
(9.84388 -0.023476 0)
(9.85028 -0.00300194 0)
(9.88303 0.0109571 0)
(9.94452 -0.0104467 0)
(10.0186 -0.0713452 0)
(10.0855 -0.155531 0)
(10.1338 -0.240148 0)
(10.1643 -0.308434 0)
(10.1854 -0.355432 0)
(10.2052 -0.387664 0)
(10.2282 -0.418243 0)
(10.256 -0.460903 0)
(10.2864 -0.524624 0)
(10.3215 -0.613814 0)
(9.9647 0.0635761 0)
(9.89991 -0.0174406 0)
(9.90056 -0.000228655 0)
(9.94239 -0.00269463 0)
(10.0097 -0.0311332 0)
(10.0669 -0.0718369 0)
(10.0938 -0.109146 0)
(10.1034 -0.137352 0)
(10.1147 -0.161925 0)
(10.1323 -0.189837 0)
(10.1474 -0.223234 0)
(10.1508 -0.260786 0)
(10.1409 -0.301169 0)
(10.1224 -0.346285 0)
(10.1043 -0.400259 0)
(10.0934 -0.468061 0)
(10.0927 -0.552478 0)
(10.1043 -0.65395 0)
(9.89785 0.0456429 0)
(9.82727 0.0468261 0)
(9.78312 0.000655945 0)
(9.83774 -0.0618503 0)
(9.94222 -0.075616 0)
(10.0282 -0.0387571 0)
(10.0728 -0.00517367 0)
(10.0887 -0.0217353 0)
(10.0966 -0.0910647 0)
(10.1037 -0.182039 0)
(10.1038 -0.261095 0)
(10.0893 -0.313734 0)
(10.0616 -0.344522 0)
(10.0284 -0.369792 0)
(10.0022 -0.405904 0)
(9.99059 -0.462223 0)
(9.99881 -0.542898 0)
(10.0202 -0.642761 0)
(9.90608 0.0658534 0)
(9.7957 0.0536095 0)
(9.78399 -0.00346419 0)
(9.81731 -0.0705608 0)
(9.86814 -0.132824 0)
(9.91138 -0.164522 0)
(9.95007 -0.170956 0)
(9.99418 -0.17206 0)
(10.0429 -0.178933 0)
(10.0886 -0.189948 0)
(10.124 -0.200873 0)
(10.1475 -0.214357 0)
(10.1602 -0.239704 0)
(10.1657 -0.287113 0)
(10.1638 -0.361183 0)
(10.1572 -0.459718 0)
(10.1442 -0.574308 0)
(10.1243 -0.698536 0)
(10.0449 0.276532 0)
(10.0217 0.126712 0)
(10.0031 -0.0504648 0)
(9.97931 -0.120842 0)
(9.93704 -0.116447 0)
(9.88552 -0.068953 0)
(9.8446 -0.0381014 0)
(9.83594 -0.0675238 0)
(9.86442 -0.150629 0)
(9.91861 -0.24918 0)
(9.98443 -0.326616 0)
(10.0493 -0.368498 0)
(10.1033 -0.382729 0)
(10.1348 -0.388725 0)
(10.1399 -0.404531 0)
(10.1159 -0.441322 0)
(10.0739 -0.499768 0)
(10.0134 -0.581028 0)
(9.84392 0.0467502 0)
(9.8756 -0.0279701 0)
(9.87326 0.0122859 0)
(9.81311 -0.00479714 0)
(9.77034 -0.0563494 0)
(9.79221 -0.104135 0)
(9.87177 -0.154716 0)
(9.98018 -0.214341 0)
(10.0748 -0.271537 0)
(10.1249 -0.31165 0)
(10.1317 -0.327863 0)
(10.1177 -0.325037 0)
(10.1055 -0.315708 0)
(10.1039 -0.315184 0)
(10.1139 -0.335462 0)
(10.1254 -0.383492 0)
(10.1372 -0.456566 0)
(10.1344 -0.552764 0)
(10.1789 0.00410884 0)
(10.0147 0.0758594 0)
(9.95195 0.0300302 0)
(9.94229 -0.0242721 0)
(9.95415 -0.0900989 0)
(9.95018 -0.168727 0)
(9.92443 -0.23634 0)
(9.89622 -0.27524 0)
(9.87666 -0.288562 0)
(9.86482 -0.293277 0)
(9.86102 -0.305467 0)
(9.87043 -0.331234 0)
(9.89543 -0.366784 0)
(9.93349 -0.406326 0)
(9.97708 -0.442932 0)
(10.0165 -0.477777 0)
(10.0428 -0.50828 0)
(10.0473 -0.542075 0)
(9.82854 0.0969765 0)
(9.83997 0.152309 0)
(9.88216 0.03426 0)
(9.97028 -0.0649971 0)
(10.0209 -0.0651039 0)
(10.0197 -0.040179 0)
(9.97993 -0.0610891 0)
(9.92504 -0.134571 0)
(9.87147 -0.226867 0)
(9.82522 -0.305794 0)
(9.78826 -0.360879 0)
(9.76107 -0.398858 0)
(9.74206 -0.42972 0)
(9.72824 -0.459599 0)
(9.71836 -0.487006 0)
(9.71129 -0.510622 0)
(9.70482 -0.526713 0)
(9.69739 -0.537314 0)
(9.83767 -0.118517 0)
(9.88778 -0.224834 0)
(9.97696 -0.176887 0)
(10.0393 -0.1402 0)
(10.043 -0.136616 0)
(10.0305 -0.141253 0)
(10.0159 -0.135142 0)
(9.99408 -0.119793 0)
(9.96263 -0.111381 0)
(9.92237 -0.122987 0)
(9.87734 -0.156394 0)
(9.83172 -0.206823 0)
(9.78822 -0.266943 0)
(9.74635 -0.329453 0)
(9.70669 -0.386134 0)
(9.66957 -0.431463 0)
(9.63648 -0.461851 0)
(9.60659 -0.476867 0)
(9.93684 -0.22502 0)
(9.87444 -0.324295 0)
(9.86685 -0.223441 0)
(9.88444 -0.123168 0)
(9.88212 -0.0474116 0)
(9.87074 -0.00253842 0)
(9.87321 0.000605364 0)
(9.88986 -0.0337874 0)
(9.90805 -0.0869591 0)
(9.92102 -0.14102 0)
(9.92745 -0.186977 0)
(9.92631 -0.224382 0)
(9.91737 -0.256952 0)
(9.89973 -0.287955 0)
(9.87235 -0.318733 0)
(9.83403 -0.347925 0)
(9.78749 -0.372952 0)
(9.73368 -0.39273 0)
(9.86167 -0.047539 0)
(9.85044 -0.266578 0)
(9.87264 -0.216325 0)
(9.86749 -0.139926 0)
(9.8828 -0.11465 0)
(9.91459 -0.122353 0)
(9.9318 -0.14072 0)
(9.92733 -0.155769 0)
(9.90774 -0.159939 0)
(9.88045 -0.159169 0)
(9.85494 -0.165321 0)
(9.83943 -0.183133 0)
(9.83523 -0.207986 0)
(9.83751 -0.230694 0)
(9.84036 -0.244132 0)
(9.83779 -0.248182 0)
(9.82825 -0.244952 0)
(9.80858 -0.243385 0)
(9.9437 -0.248056 0)
(9.93385 -0.370331 0)
(9.99439 -0.250964 0)
(9.95599 -0.138711 0)
(9.87197 -0.0830509 0)
(9.82394 -0.0499846 0)
(9.81903 -0.0249092 0)
(9.83497 -0.0139849 0)
(9.84762 -0.0291264 0)
(9.84256 -0.0731095 0)
(9.82097 -0.136491 0)
(9.79325 -0.204042 0)
(9.76862 -0.262022 0)
(9.75157 -0.302355 0)
(9.74197 -0.322344 0)
(9.73786 -0.324905 0)
(9.73504 -0.314145 0)
(9.73096 -0.296892 0)
(9.85053 -0.228225 0)
(9.72004 -0.356952 0)
(9.65839 -0.228 0)
(9.64043 -0.0601766 0)
(9.6903 -0.00786779 0)
(9.75979 -0.0688594 0)
(9.81186 -0.150315 0)
(9.85058 -0.18095 0)
(9.87819 -0.158565 0)
(9.8855 -0.120726 0)
(9.86728 -0.101772 0)
(9.82784 -0.11357 0)
(9.77432 -0.148587 0)
(9.71312 -0.190174 0)
(9.65007 -0.222783 0)
(9.59076 -0.238937 0)
(9.53785 -0.237782 0)
(9.49339 -0.225247 0)
(10.0609 -0.114811 0)
(9.84794 -0.206151 0)
(9.744 -0.17912 0)
(9.7563 -0.151042 0)
(9.8411 -0.143094 0)
(9.88339 -0.133313 0)
(9.85482 -0.11045 0)
(9.80568 -0.0825596 0)
(9.77358 -0.0637851 0)
(9.76422 -0.0631861 0)
(9.76933 -0.0803609 0)
(9.77724 -0.108087 0)
(9.7782 -0.137896 0)
(9.76689 -0.162876 0)
(9.74486 -0.178723 0)
(9.716 -0.184915 0)
(9.68687 -0.183194 0)
(9.66017 -0.178805 0)
(9.9803 -0.0792651 0)
(9.93788 -0.195638 0)
(9.88228 -0.213825 0)
(9.85072 -0.152638 0)
(9.83911 -0.102789 0)
(9.81748 -0.0948032 0)
(9.78976 -0.108984 0)
(9.7738 -0.120852 0)
(9.76809 -0.120695 0)
(9.76132 -0.113132 0)
(9.75003 -0.107833 0)
(9.73772 -0.111692 0)
(9.72776 -0.124652 0)
(9.72137 -0.142314 0)
(9.72045 -0.158442 0)
(9.72414 -0.169001 0)
(9.73122 -0.172418 0)
(9.73723 -0.169816 0)
(10.1969 -0.17656 0)
(10.0262 -0.149311 0)
(9.86126 -0.126217 0)
(9.80816 -0.11567 0)
(9.87714 -0.102461 0)
(9.95117 -0.0910349 0)
(9.94476 -0.0779445 0)
(9.86961 -0.0627915 0)
(9.78261 -0.0523952 0)
(9.72937 -0.0544452 0)
(9.7228 -0.0720454 0)
(9.74651 -0.101356 0)
(9.77251 -0.134055 0)
(9.77756 -0.162933 0)
(9.75092 -0.18286 0)
(9.69843 -0.191527 0)
(9.63142 -0.189362 0)
(9.5669 -0.176102 0)
(10.1572 -0.0809271 0)
(10.0322 -0.0323039 0)
(9.99372 -0.107586 0)
(9.92482 -0.16604 0)
(9.85904 -0.171088 0)
(9.84164 -0.127976 0)
(9.87004 -0.0673006 0)
(9.92154 -0.0304481 0)
(9.96865 -0.035091 0)
(9.98857 -0.069429 0)
(9.9729 -0.109057 0)
(9.92715 -0.133736 0)
(9.86359 -0.136201 0)
(9.79502 -0.120504 0)
(9.73016 -0.0978326 0)
(9.67348 -0.0789259 0)
(9.62573 -0.0703264 0)
(9.58711 -0.073791 0)
(10.0573 -0.128237 0)
(10.1157 -0.0453533 0)
(10.1199 -0.0641455 0)
(10.0763 -0.0693132 0)
(10.0384 -0.0800482 0)
(9.99558 -0.102249 0)
(9.94585 -0.11159 0)
(9.91544 -0.0999207 0)
(9.91039 -0.0769229 0)
(9.91159 -0.0564713 0)
(9.90137 -0.0473413 0)
(9.87576 -0.0513489 0)
(9.84155 -0.0643684 0)
(9.80807 -0.0800068 0)
(9.78262 -0.0930295 0)
(9.76676 -0.101506 0)
(9.76003 -0.106102 0)
(9.75763 -0.107777 0)
(9.90147 0.00469722 0)
(10.0028 -0.0275376 0)
(10.1331 -0.0880807 0)
(10.1308 -0.133035 0)
(10.0789 -0.125778 0)
(10.0301 -0.0834277 0)
(9.99276 -0.0447366 0)
(9.97467 -0.0344747 0)
(9.96813 -0.0477061 0)
(9.95341 -0.066609 0)
(9.92299 -0.0791455 0)
(9.88622 -0.0827552 0)
(9.85407 -0.0802409 0)
(9.83098 -0.0759977 0)
(9.81242 -0.0733027 0)
(9.79165 -0.0733287 0)
(9.7612 -0.0764969 0)
(9.71971 -0.0820458 0)
(9.99106 -0.0175339 0)
(9.96821 -0.0821748 0)
(9.74534 -0.088982 0)
(9.38617 -0.067145 0)
(9.04703 -0.061504 0)
(8.79145 -0.0712085 0)
(8.5901 -0.0792384 0)
(8.41516 -0.0742429 0)
(8.25907 -0.0556874 0)
(8.12024 -0.0351005 0)
(7.99371 -0.0257207 0)
(7.86823 -0.0320782 0)
(7.73134 -0.0478725 0)
(7.58196 -0.0620256 0)
(7.42717 -0.0673813 0)
(7.27904 -0.0634255 0)
(7.14132 -0.0539959 0)
(7.01753 -0.0448651 0)
(-0.307283 0.64572 -1.94311e-20)
(-0.721165 0.319953 1.93016e-20)
(-0.977127 0.0799332 0)
(-1.1313 -0.128594 0)
(-1.01585 -0.351054 0)
(-0.75206 -0.523596 -1.86956e-20)
(-0.308403 -0.687979 0)
(0.236161 -0.734036 0)
(0.851277 -0.748305 0)
(1.45018 -0.726587 0)
(2.03656 -0.682908 1.77969e-20)
(2.59671 -0.628152 0)
(3.11806 -0.570743 0)
(3.59832 -0.515952 0)
(4.03969 -0.465294 0)
(4.44528 -0.419828 1.76281e-20)
(4.81828 -0.37815 0)
(5.1605 -0.338964 0)
(5.47353 -0.30327 0)
(5.75894 -0.267863 0)
(6.01559 -0.233109 0)
(6.24462 -0.200912 0)
(6.44563 -0.1643 0)
(6.61479 -0.129848 1.73744e-20)
(6.75602 -0.0952312 -1.72866e-20)
(6.86247 -0.0503713 1.71816e-20)
(6.93205 -0.0163042 1.70582e-20)
(6.97211 0.0293619 0)
(6.95972 0.0859361 0)
(6.90534 0.116696 -1.65762e-20)
(6.8068 0.192641 -1.63806e-20)
(6.63643 0.259556 0)
(6.43428 0.277313 0)
(6.16506 0.431581 -1.57234e-20)
(5.76615 0.526921 0)
(5.3457 0.513326 0)
(4.78164 0.898657 1.50485e-20)
(3.84237 1.26547 0)
(2.80913 0.866051 1.48768e-20)
(2.0194 0.148366 2.97765e-20)
(1.4713 -0.300196 0)
(1.10149 -0.463721 0)
(0.891178 -0.49496 0)
(0.856234 -0.498 0)
(1.02102 -0.523053 0)
(1.37473 -0.569939 2.75875e-20)
(1.877 -0.58965 2.69485e-20)
(2.44867 -0.524606 2.63556e-20)
(2.97025 -0.358337 0)
(3.34231 -0.166046 -2.54401e-20)
(3.57349 -0.0694102 0)
(3.76894 -0.00612953 2.46567e-20)
(3.80514 0.268174 2.42379e-20)
(3.35637 0.634036 0)
(2.55292 0.631467 0)
(1.8321 0.410628 0)
(1.18681 0.359282 2.24164e-20)
(0.572208 0.302496 0)
(0.18868 0.0989755 0)
(-0.00688512 -0.103871 0)
(0.290198 -0.364866 0)
(0.0530655 -0.981226 0)
(-0.695768 -0.0935985 0)
(-3.16322 2.23416 0)
(-5.8611 1.4097 0)
(-7.01302 1.01471 -2.37688e-20)
(-8.44631 0.872342 0)
(-9.25336 0.520571 0)
(-9.96695 0.479046 2.72006e-20)
(-10.5152 0.291149 2.80942e-20)
(-10.9025 0.263934 0)
(-11.2622 0.18185 -2.94696e-20)
(-11.5006 0.154425 2.99821e-20)
(-11.7334 0.121418 0)
(-11.8941 0.0953658 -3.07078e-20)
(-12.0399 0.0796293 0)
(-12.1446 0.0563594 0)
(-12.2227 0.0430863 3.1121e-20)
(-12.2717 0.0232505 0)
(-12.2884 0.00790004 -3.09657e-20)
(-12.2789 -0.00959843 0)
(-12.2382 -0.0258537 3.04676e-20)
(-12.1704 -0.0413399 3.00951e-20)
(-12.0722 -0.0567315 2.96445e-20)
(-11.9472 -0.0704018 5.82414e-20)
(-11.795 -0.0836624 -5.70589e-20)
(-11.618 -0.0954437 0)
(-11.4179 -0.106481 0)
(-11.1956 -0.116795 0)
(-10.9526 -0.126591 -5.12369e-20)
(-10.6884 -0.136488 -4.95685e-20)
(-10.4023 -0.146759 4.7834e-20)
(-10.0924 -0.157973 0)
(-9.75575 -0.170297 -4.4197e-20)
(-9.38957 -0.183573 -4.23117e-20)
(-8.99131 -0.197483 -4.03986e-20)
(-8.55956 -0.211337 0)
(-8.09469 -0.22422 0)
(-7.59911 -0.235186 0)
(-7.07726 -0.243417 -3.28946e-20)
(-6.53516 -0.248358 0)
(-5.97983 -0.249783 0)
(-5.41869 -0.247814 2.81141e-20)
(-4.85892 -0.242878 0)
(-4.30695 -0.235494 0)
(-3.76809 -0.226121 2.45107e-20)
(-3.24668 -0.21521 0)
(-2.74622 -0.203216 0)
(-2.26925 -0.190582 -2.20374e-20)
(-1.81744 -0.177657 -2.14207e-20)
(-1.39132 -0.164639 0)
(-0.990403 -0.151776 2.04297e-20)
(-0.61585 -0.139135 0)
(-0.261735 -0.129263 -1.96857e-20)
(0.0734135 -0.122981 0)
(0.392785 -0.115846 -1.90807e-20)
(0.704008 -0.110498 -1.88116e-20)
(1.0085 -0.105828 0)
(1.30707 -0.100656 0)
(1.59824 -0.0942178 0)
(1.87748 -0.0855892 0)
(2.137 -0.0742261 0)
(2.36692 -0.0604264 0)
(2.55665 -0.0454087 0)
(2.69845 -0.0313456 -1.7159e-20)
(2.79062 -0.0188728 1.69961e-20)
(2.83476 -0.00571967 0)
(2.83542 0.00857321 0)
(2.80528 0.0195741 0)
(2.75614 0.0251528 0)
(2.69733 0.026409 3.2386e-20)
(2.63648 0.0249287 0)
(2.57903 0.0218183 -3.16993e-20)
(2.52863 0.0179176 3.13381e-20)
(2.48775 0.0138299 0)
(2.45797 0.00988412 0)
(2.44017 0.00623334 0)
(2.43471 0.0028812 -2.97589e-20)
(2.44179 -0.000156387 -2.93316e-20)
(2.46147 -0.00317539 0)
(2.49306 -0.00612267 -2.84486e-20)
(2.53551 -0.00870776 -2.79964e-20)
(2.5875 -0.0109587 2.75398e-20)
(2.64807 -0.0127562 0)
(2.7164 -0.013504 0)
(2.79075 -0.013512 2.61588e-20)
(2.86864 -0.0130252 0)
(2.94486 -0.010766 0)
(3.01022 -0.00755031 0)
(3.05761 -0.00546998 0)
(3.0824 -0.00311286 -2.39942e-20)
(3.08537 -0.00332477 -2.36214e-20)
(3.08644 -0.0122664 0)
(3.11679 -0.0244533 -2.28597e-20)
(3.19316 -0.033006 0)
(3.31925 -0.0466806 0)
(3.50188 -0.0621431 -2.14974e-20)
(3.72874 -0.0596807 0)
(3.96419 -0.0519573 -2.06273e-20)
(4.19489 -0.0600013 0)
(4.40716 -0.0426339 0)
(4.51565 0.00686631 -1.99677e-20)
(4.48789 -0.000644193 0)
(4.45208 -0.0254718 -2.00545e-20)
(4.4056 0.0389308 0)
(4.21454 0.0449554 0)
(4.09298 -0.086264 0)
(4.29143 -0.0197769 2.01345e-20)
(4.26105 0.163166 0)
(3.95301 -0.121503 -1.91102e-20)
(4.61409 -0.363488 0)
(5.49125 0.307424 0)
(4.13015 0.679581 0)
(2.38001 0.0290589 0)
(1.84406 -0.341886 0)
(1.8595 -0.17652 0)
(2.0492 0.00434116 0)
(2.07112 0.0485862 2.20649e-20)
(1.97352 0.0183299 0)
(1.84916 -0.0195146 0)
(-0.00360631 1.31696 5.83837e-20)
(0.156255 1.00663 -5.80528e-20)
(0.0514629 0.658167 0)
(0.199552 0.2629 3.822e-20)
(0.450582 -0.406369 0)
(0.887027 -1.02863 1.86642e-20)
(1.3678 -1.47324 -3.70676e-20)
(1.84251 -1.71387 -3.66847e-20)
(2.2905 -1.79614 0)
(2.71059 -1.76981 -3.61217e-20)
(3.10467 -1.68005 -1.77176e-20)
(3.47371 -1.56172 0)
(3.8203 -1.43639 0)
(4.14811 -1.3157 0)
(4.46073 -1.20382 0)
(4.75995 -1.10147 -1.75969e-20)
(5.04547 -1.00719 0)
(5.31651 -0.918845 3.55122e-20)
(5.57133 -0.83542 0)
(5.808 -0.754542 0)
(6.02573 -0.675234 -3.53383e-20)
(6.22238 -0.597757 0)
(6.3974 -0.518537 3.5117e-20)
(6.55018 -0.438922 -1.73718e-20)
(6.67638 -0.357876 1.72859e-20)
(6.77862 -0.26953 -1.71825e-20)
(6.85182 -0.180795 -1.70604e-20)
(6.89184 -0.0853489 0)
(6.91273 0.0191418 0)
(6.90501 0.114628 1.65745e-20)
(6.87527 0.222172 -1.6568e-20)
(6.83672 0.340513 0)
(6.77619 0.442115 0)
(6.70461 0.593916 1.5694e-20)
(6.65219 0.787821 0)
(6.57995 0.950157 0)
(6.43739 1.21844 -1.49722e-20)
(6.31829 1.60087 0)
(6.29398 1.84206 1.50994e-20)
(6.10576 1.83558 -2.94708e-20)
(5.57063 1.61716 0)
(4.87937 1.30049 0)
(4.23173 0.893229 -5.75025e-20)
(3.66031 0.321054 -5.68466e-20)
(3.18522 -0.319818 -5.60213e-20)
(2.86937 -0.850726 2.7477e-20)
(2.74144 -1.15834 -2.68839e-20)
(2.77349 -1.18201 -7.89356e-20)
(2.87928 -0.989898 5.16794e-20)
(2.97652 -0.753043 2.54513e-20)
(3.02132 -0.56249 0)
(3.01815 -0.278792 -2.46918e-20)
(3.03718 0.288159 2.45107e-20)
(2.95458 0.95491 0)
(2.64886 1.32626 0)
(2.15068 1.38238 0)
(1.4956 1.31288 -2.23764e-20)
(0.826873 1.09674 0)
(0.303958 0.698639 4.39165e-20)
(-0.128163 0.017836 0)
(-0.790018 0.210414 4.37603e-20)
(-3.45931 2.63976 0)
(-5.83974 4.0233 -4.49989e-20)
(-6.90417 3.72977 0)
(-8.10543 2.83898 4.77221e-20)
(-8.55346 2.25279 -2.61464e-20)
(-9.24001 1.72696 0)
(-9.54963 1.271 -5.38525e-20)
(-9.95806 1.00852 -2.71779e-20)
(-10.2108 0.740199 -2.80903e-20)
(-10.4797 0.601164 0)
(-10.6889 0.461184 -3.00901e-20)
(-10.8766 0.375931 -3.00064e-20)
(-11.0446 0.300754 0)
(-11.177 0.238982 3.07406e-20)
(-11.3025 0.188761 -6.22923e-20)
(-11.3902 0.136798 0)
(-11.4684 0.0916207 -3.11598e-20)
(-11.5134 0.0430991 0)
(-11.5399 -0.00346293 9.33255e-20)
(-11.5353 -0.0511059 0)
(-11.503 -0.0981487 -9.17964e-20)
(-11.4417 -0.143709 -3.0128e-20)
(-11.3508 -0.18817 2.99378e-20)
(-11.2327 -0.229712 5.87953e-20)
(-11.0872 -0.268654 -5.75788e-20)
(-10.9172 -0.304222 0)
(-10.7241 -0.336743 0)
(-10.5096 -0.366937 0)
(-10.2751 -0.395708 1.54186e-19)
(-10.0204 -0.424545 4.96006e-20)
(-9.74448 -0.454767 -4.78625e-20)
(-9.44513 -0.487679 0)
(-9.11911 -0.524105 -4.45493e-20)
(-8.76274 -0.563972 4.23293e-20)
(-8.37274 -0.606253 4.04129e-20)
(-7.94711 -0.648925 0)
(-7.48581 -0.689204 0)
(-6.9912 -0.724077 0)
(-6.46795 -0.750897 3.28996e-20)
(-5.92258 -0.76786 0)
(-5.36278 -0.774195 -5.93281e-20)
(-4.79668 -0.770113 -8.44845e-20)
(-4.23219 -0.756621 5.36793e-20)
(-3.67627 -0.73523 0)
(-3.13474 -0.707645 2.46106e-20)
(-2.61266 -0.675512 0)
(-2.11414 -0.640356 4.55905e-20)
(-1.642 -0.603498 -2.21148e-20)
(-1.19771 -0.565949 -2.14922e-20)
(-0.781977 -0.528572 0)
(-0.393273 -0.492559 -6.13685e-20)
(-0.0317835 -0.460576 4.01289e-20)
(0.307058 -0.432999 1.96768e-20)
(0.62755 -0.411842 0)
(0.933334 -0.393795 1.90608e-20)
(1.23008 -0.380439 5.64441e-20)
(1.52193 -0.370343 0)
(1.81213 -0.360372 3.66799e-20)
(2.10177 -0.346954 3.62304e-20)
(2.38909 -0.326403 3.58033e-20)
(2.66981 -0.295558 0)
(2.9368 -0.252711 0)
(3.18033 -0.19874 0)
(3.38747 -0.138145 -1.71738e-20)
(3.54199 -0.0781122 -1.698e-20)
(3.63429 -0.0258305 0)
(3.66936 0.0137746 -3.33437e-20)
(3.65667 0.039151 -3.30212e-20)
(3.61061 0.0525637 0)
(3.5462 0.0575454 -3.23538e-20)
(3.47485 0.0567498 -6.40536e-20)
(3.40447 0.0518065 3.16692e-20)
(3.34043 0.0438213 3.13249e-20)
(3.28635 0.0336089 0)
(3.24462 0.0217816 0)
(3.21671 0.00886807 0)
(3.20328 -0.0046442 2.97355e-20)
(3.20344 -0.0184262 -2.93186e-20)
(3.2155 -0.0315825 -5.77526e-20)
(3.23833 -0.0433085 2.84269e-20)
(3.27061 -0.0534907 -2.79812e-20)
(3.31164 -0.0621175 -2.75192e-20)
(3.36133 -0.0694717 0)
(3.42066 -0.0759388 0)
(3.49213 -0.0807544 2.61453e-20)
(3.57616 -0.0819046 0)
(3.66817 -0.0765794 0)
(3.7586 -0.0620917 -4.95722e-20)
(3.83014 -0.0392966 0)
(3.86246 -0.0139936 -2.39707e-20)
(3.85201 0.00305248 2.36049e-20)
(3.81974 -0.00255058 0)
(3.80265 -0.0348146 -2.28668e-20)
(3.8433 -0.0817132 0)
(3.96369 -0.127077 0)
(4.14461 -0.166902 2.14818e-20)
(4.36904 -0.19813 -4.20438e-20)
(4.64803 -0.205887 2.06106e-20)
(4.94497 -0.183289 0)
(5.17416 -0.135863 0)
(5.32351 -0.054227 -1.99115e-20)
(5.37936 0.0362949 0)
(5.24318 0.0676516 -2.00324e-20)
(5.02073 0.0807385 0)
(4.90104 0.12419 0)
(4.75258 0.0562405 0)
(4.5355 -0.0716337 -2.01287e-20)
(4.66173 0.00296744 0)
(4.95068 -0.0216383 1.90985e-20)
(4.93312 -0.353363 0)
(5.30698 -0.168183 0)
(6.03039 0.632965 -3.05043e-20)
(6.70304 1.03461 2.90019e-20)
(5.90204 0.648759 0)
(4.14226 0.064435 0)
(3.27405 -0.1161 0)
(3.0888 -0.0183768 -6.59761e-20)
(3.02839 0.0714104 0)
(2.83352 0.0968199 3.94963e-20)
(0.0597718 0.545531 -1.22183e-23)
(0.196214 0.509948 7.73328e-20)
(0.445076 0.0808167 0)
(0.958026 -0.746751 -7.60916e-20)
(1.53596 -1.56022 0)
(2.031 -2.15511 0)
(2.39622 -2.47183 -2.75876e-22)
(2.65181 -2.55154 3.65573e-20)
(2.84499 -2.47224 3.67445e-20)
(3.01969 -2.31291 3.60577e-20)
(3.2018 -2.13193 0)
(3.40292 -1.96188 0)
(3.62652 -1.81427 -3.62338e-20)
(3.87038 -1.68774 -7.23276e-20)
(4.12763 -1.57575 7.22152e-20)
(4.38958 -1.47169 0)
(4.64783 -1.37036 7.20284e-20)
(4.89559 -1.26843 -3.55291e-20)
(5.12774 -1.16436 0)
(5.34041 -1.05699 7.16627e-20)
(5.53182 -0.946686 3.53676e-20)
(5.70109 -0.833867 -7.12445e-20)
(5.84752 -0.716488 -3.51549e-20)
(5.97241 -0.596316 0)
(6.07518 -0.472272 7.02267e-20)
(6.15412 -0.339269 6.97647e-20)
(6.20915 -0.204792 0)
(6.23238 -0.0661106 6.86422e-20)
(6.21987 0.0820827 0)
(6.17635 0.212745 6.71855e-20)
(6.10835 0.33671 3.29984e-20)
(6.02906 0.457707 0)
(5.95027 0.543186 0)
(5.89026 0.654149 0)
(5.87604 0.816109 0)
(5.90609 0.95931 0)
(5.97631 1.15919 0)
(6.11407 1.47147 6.06349e-20)
(6.2926 1.71077 -8.97652e-20)
(6.3995 1.76089 0)
(6.36091 1.73553 0)
(6.20572 1.67122 0)
(5.98926 1.4603 1.98038e-22)
(5.66999 1.14779 5.65343e-20)
(5.22362 0.77514 1.11109e-19)
(4.71398 0.239396 -1.09137e-19)
(4.15822 -0.31441 -5.33513e-20)
(3.58002 -0.558767 5.25512e-20)
(3.05688 -0.445573 -1.45517e-22)
(2.62351 -0.223734 5.08016e-20)
(2.25996 -0.0766277 0)
(1.96967 0.117543 4.9435e-20)
(1.77939 0.58573 -1.38286e-22)
(1.66154 1.22487 0)
(1.50367 1.72165 0)
(1.20654 1.98316 -4.61384e-20)
(0.766347 2.04789 0)
(0.207002 1.85771 0)
(-0.336623 1.34025 4.4379e-20)
(-1.27102 1.5561 8.79254e-20)
(-3.59963 3.69027 -4.34069e-20)
(-5.86802 5.3152 0)
(-6.95313 5.31343 4.47843e-20)
(-7.11686 4.35435 0)
(-7.58463 3.54026 5.33142e-20)
(-7.72463 2.77224 4.98258e-20)
(-8.09507 2.16101 -1.07879e-19)
(-8.34888 1.68387 -5.7139e-20)
(-8.66665 1.3432 0)
(-8.93436 1.06247 1.16597e-19)
(-9.19321 0.874383 0)
(-9.43201 0.711319 1.80575e-19)
(-9.64592 0.596988 1.22572e-19)
(-9.84878 0.495056 1.23967e-19)
(-10.0258 0.411556 -1.25058e-19)
(-10.1894 0.334075 1.88245e-19)
(-10.328 0.259259 0)
(-10.4471 0.18648 0)
(-10.5392 0.110346 -1.26305e-19)
(-10.6052 0.0348949 -1.88201e-19)
(-10.6411 -0.0435288 0)
(-10.6455 -0.12144 6.13759e-20)
(-10.6185 -0.199123 0)
(-10.5593 -0.27446 -1.79882e-19)
(-10.4697 -0.34557 7.99448e-22)
(-10.351 -0.411777 -7.51456e-22)
(-10.2058 -0.471842 1.12839e-19)
(-10.037 -0.526341 0)
(-9.84701 -0.576102 -1.06816e-19)
(-9.63768 -0.622984 5.81951e-22)
(-9.40961 -0.669617 0)
(-9.16175 -0.71871 0)
(-8.89132 -0.772923 0)
(-8.59407 -0.834014 8.87929e-20)
(-8.26491 -0.902251 0)
(-7.8989 -0.97605 0)
(-7.49258 -1.05184 0)
(-7.04502 -1.12453 0)
(-6.55841 -1.18846 0)
(-6.03797 -1.23862 6.63149e-20)
(-5.49102 -1.27166 0)
(-4.92594 -1.28618 5.93166e-20)
(-4.35126 -1.2824 5.63563e-20)
(-3.77502 -1.26159 -5.36705e-20)
(-3.20428 -1.22585 0)
(-2.64523 -1.17785 -4.9122e-20)
(-2.10386 -1.12057 0)
(-1.58605 -1.05698 -4.55922e-20)
(-1.09687 -0.989845 4.41626e-20)
(-0.639845 -0.921363 1.29001e-19)
(-0.21758 -0.854256 0)
(0.166659 -0.790374 1.2296e-19)
(0.519511 -0.733352 4.02782e-20)
(0.844931 -0.68355 0)
(1.14583 -0.643001 7.764e-20)
(1.42739 -0.612372 7.64907e-20)
(1.69594 -0.591681 -1.13051e-19)
(1.9576 -0.578708 0)
(2.21676 -0.56889 -3.66486e-20)
(2.47518 -0.556494 -3.62011e-20)
(2.73143 -0.536133 -1.07522e-19)
(2.98165 -0.503669 0)
(3.22206 -0.456092 0)
(3.45139 -0.39107 0)
(3.67018 -0.307429 -3.44239e-20)
(3.87573 -0.20823 0)
(4.05591 -0.104121 0)
(4.19108 -0.0111108 3.33218e-20)
(4.26599 0.0590079 3.29977e-20)
(4.28011 0.102456 0)
(4.24591 0.121814 0)
(4.18162 0.123353 6.39962e-20)
(4.10435 0.113407 0)
(4.0265 0.0965886 -6.25806e-20)
(3.9556 0.0758689 -6.18546e-20)
(3.89571 0.0533089 0)
(3.84892 0.0305731 0)
(3.8161 0.00903942 5.94494e-20)
(3.79772 -0.0105865 -8.51242e-24)
(3.79321 -0.0277864 -7.70791e-24)
(3.79997 -0.0427545 0)
(3.81435 -0.0562042 1.11851e-19)
(3.8322 -0.0691874 0)
(3.85037 -0.0827863 0)
(3.86907 -0.0978244 0)
(3.89241 -0.113125 -5.22608e-20)
(3.92615 -0.124334 0)
(3.97196 -0.124468 1.0087e-19)
(4.02326 -0.106591 4.9556e-20)
(4.06265 -0.0683624 0)
(4.06389 -0.0166259 4.79381e-20)
(4.01349 0.024819 0)
(3.93834 0.0214188 0)
(3.89937 -0.0368696 1.37203e-19)
(3.94657 -0.124785 -8.97513e-20)
(4.08446 -0.213399 0)
(4.29032 -0.288865 -8.59487e-20)
(4.55119 -0.341793 4.20263e-20)
(4.85918 -0.364843 0)
(5.18782 -0.341715 0)
(5.47479 -0.249761 0)
(5.6318 -0.101598 1.1943e-19)
(5.61821 0.0509469 0)
(5.44805 0.157431 4.00574e-20)
(5.17055 0.207638 0)
(4.93791 0.194802 0)
(4.85454 0.103325 0)
(4.74814 0.00381687 0)
(4.62572 -0.041568 0)
(4.83481 -0.198279 0)
(5.20449 -0.429122 7.36584e-20)
(5.35452 -0.315353 0)
(5.88086 0.057165 3.05199e-20)
(7.10775 0.417033 -8.66592e-20)
(7.97848 0.852627 0)
(7.4166 0.952633 0)
(5.76735 0.512203 4.68023e-20)
(4.42436 0.174853 4.38583e-20)
(3.88958 0.139412 -4.10635e-20)
(3.54407 0.204549 -3.94644e-20)
(-0.159232 0.588027 -1.17041e-19)
(0.106721 0.060984 -1.16239e-19)
(0.730336 -1.21842 -7.68645e-20)
(1.35468 -2.18494 -3.83136e-20)
(1.83546 -2.73026 0)
(2.13385 -2.92169 7.53713e-20)
(2.29281 -2.87674 -3.78785e-20)
(2.39005 -2.72127 0)
(2.49938 -2.55571 -3.67595e-20)
(2.66191 -2.43299 0)
(2.88424 -2.35938 7.39363e-20)
(3.15337 -2.3146 0)
(3.44956 -2.27456 3.62135e-20)
(3.75334 -2.22147 7.2272e-20)
(4.04904 -2.14645 -7.21538e-20)
(4.32615 -2.04819 0)
(4.57873 -1.92914 -7.19786e-20)
(4.80408 -1.79346 0)
(5.00144 -1.64567 0)
(5.17181 -1.48995 -7.16618e-20)
(5.31717 -1.32994 0)
(5.43935 -1.16733 -8.89013e-22)
(5.54048 -1.00251 0)
(5.6215 -0.835115 0)
(5.68254 -0.661168 7.30228e-22)
(5.72327 -0.478545 -6.98353e-20)
(5.73872 -0.286484 -6.99427e-20)
(5.73447 -0.082536 -6.87242e-20)
(5.70957 0.12064 0)
(5.64487 0.314591 -1.3496e-19)
(5.54534 0.493345 0)
(5.43049 0.624526 -6.59265e-20)
(5.30543 0.708601 0)
(5.19416 0.781277 0)
(5.13065 0.829604 6.33193e-20)
(5.10827 0.871103 0)
(5.13048 0.992448 -6.17573e-20)
(5.24348 1.17 2.17334e-22)
(5.44139 1.30974 1.20304e-19)
(5.63162 1.45106 -1.18978e-19)
(5.75942 1.63083 0)
(5.85227 1.73806 0)
(5.85536 1.72143 -5.70342e-20)
(5.64944 1.58293 0)
(5.30132 1.20456 -5.52972e-20)
(4.93159 0.664194 5.43285e-20)
(4.48389 0.310946 5.332e-20)
(3.91904 0.245833 0)
(3.34663 0.293086 -5.15066e-20)
(2.85707 0.320945 -5.07715e-20)
(2.40763 0.325853 1.00305e-19)
(1.92663 0.44826 -4.94275e-20)
(1.47192 0.857339 -4.8751e-20)
(1.12295 1.47878 0)
(0.825091 2.05636 0)
(0.483466 2.48052 4.61823e-20)
(0.050854 2.69346 0)
(-0.475365 2.59698 0)
(-1.2119 2.64492 -8.78817e-20)
(-2.84028 4.14236 -8.73862e-20)
(-5.05825 6.18626 0)
(-6.27844 6.61923 0)
(-6.39813 5.6449 0)
(-6.47013 4.64914 0)
(-6.82072 3.87406 -1.01094e-19)
(-6.97289 3.10034 1.08784e-19)
(-7.32076 2.52965 1.07971e-19)
(-7.59152 2.04916 2.25536e-19)
(-7.88611 1.67924 0)
(-8.17451 1.38859 2.39076e-21)
(-8.43391 1.1663 0)
(-8.70094 0.988946 -1.20999e-19)
(-8.94051 0.849685 1.69287e-21)
(-9.17847 0.729684 -1.24071e-19)
(-9.3963 0.624724 1.25156e-19)
(-9.60011 0.524761 1.4308e-21)
(-9.78321 0.425212 0)
(-9.94209 0.324137 1.27938e-19)
(-10.0739 0.217684 1.26385e-19)
(-10.1736 0.107913 2.53068e-19)
(-10.2399 -0.0059693 0)
(-10.2707 -0.120985 -1.25013e-19)
(-10.2654 -0.235479 0)
(-10.2247 -0.346512 2.41678e-19)
(-10.1502 -0.450884 -1.18052e-19)
(-10.0453 -0.546857 1.15578e-19)
(-9.91323 -0.633062 -1.12862e-19)
(-9.758 -0.709733 -2.21653e-19)
(-9.58305 -0.778573 1.06826e-19)
(-9.39072 -0.842535 -1.03562e-19)
(-9.18179 -0.905828 0)
(-8.95486 -0.973125 1.94751e-19)
(-8.70626 -1.04882 0)
(-8.43029 -1.13605 1.80022e-19)
(-8.12 -1.23561 -1.72377e-19)