/*--------------------------------*- C++ -*----------------------------------*\
  =========                 |
  \\      /  F ield         | OpenFOAM: The Open Source CFD Toolbox
   \\    /   O peration     | Website:  https://openfoam.org
    \\  /    A nd           | Version:  9
     \\/     M anipulation  |
\*---------------------------------------------------------------------------*/
FoamFile
{
    format      ascii;
    class       volSymmTensorField;
    location    "0.072";
    object      UPrime2Mean;
}
// * * * * * * * * * * * * * * * * * * * * * * * * * * * * * * * * * * * * * //

dimensions      [0 2 -2 0 0 0 0];

internalField   nonuniform List<symmTensor> 
12225
(
(-48.1532 -0.236243 0 0.000991561 0 0)
(-45.3166 -0.300116 0 -0.00101596 0 0)
(-42.5169 -0.282436 0 -0.00121101 0 0)
(-39.7632 -0.267621 0 -0.00127545 0 0)
(-37.1311 -0.256131 0 -0.0013223 0 0)
(-34.6623 -0.244061 0 -0.00132522 0 0)
(-32.3465 -0.231343 0 -0.001289 0 0)
(-30.1844 -0.219682 0 -0.0012473 0 0)
(-28.1329 -0.209045 0 -0.00118323 0 0)
(-26.2109 -0.201447 0 -0.00115681 0 0)
(-24.3368 -0.195228 0 -0.0010681 0 0)
(-22.5798 -0.193999 0 -0.00110527 0 0)
(-20.7659 -0.194605 0 -0.000825789 0 0)
(-19.0802 -0.20438 0 -0.00104353 0 0)
(-17.1249 -0.221866 0 0.000385198 0 0)
(-15.3411 -0.253364 0 -0.000750023 0 0)
(-12.8351 -0.335899 0 0.00875116 0 0)
(-10.418 -0.423421 0 0.00276123 0 0)
(-50.368 -0.250235 0 0.00178538 0 0)
(-50.9376 -0.364012 0 -0.0012088 0 0)
(-51.295 -0.362818 0 -0.00159665 0 0)
(-51.417 -0.371007 0 -0.00186403 0 0)
(-51.3681 -0.389876 0 -0.00223155 0 0)
(-51.2062 -0.408268 0 -0.00257501 0 0)
(-50.9463 -0.423297 0 -0.00286454 0 0)
(-50.6111 -0.437597 0 -0.00309799 0 0)
(-50.1884 -0.451973 0 -0.00332645 0 0)
(-49.7063 -0.469111 0 -0.00346003 0 0)
(-49.1257 -0.489647 0 -0.00366438 0 0)
(-48.4939 -0.515706 0 -0.00352623 0 0)
(-47.7253 -0.552243 0 -0.00360493 0 0)
(-46.9057 -0.598414 0 -0.00239912 0 0)
(-45.8714 -0.674312 0 -0.00156651 0 0)
(-44.7585 -0.768973 0 0.0040561 0 0)
(-43.2967 -0.946009 0 0.0122606 0 0)
(-41.6303 -1.17223 0 0.0454952 0 0)
(-50.0151 -0.16862 0 0.00292994 0 0)
(-50.3553 -0.280679 0 0.000135268 0 0)
(-50.6481 -0.293685 0 -0.000547536 0 0)
(-50.8227 -0.306222 0 -0.000852826 0 0)
(-50.9211 -0.331802 0 -0.00123539 0 0)
(-50.9926 -0.358988 0 -0.00161445 0 0)
(-51.052 -0.382125 0 -0.00189672 0 0)
(-51.0967 -0.404086 0 -0.00210739 0 0)
(-51.1189 -0.426353 0 -0.00220682 0 0)
(-51.1145 -0.454133 0 -0.00227929 0 0)
(-51.0806 -0.486281 0 -0.00209256 0 0)
(-51.0111 -0.529875 0 -0.0018506 0 0)
(-50.908 -0.582049 0 -0.000684763 0 0)
(-50.7561 -0.656794 0 0.000887173 0 0)
(-50.5775 -0.752623 0 0.00590024 0 0)
(-50.3394 -0.893153 0 0.0141379 0 0)
(-50.1227 -1.08551 0 0.0364753 0 0)
(-49.8695 -1.34095 0 0.0830535 0 0)
(-49.8552 -0.139351 0 0.00324101 0 0)
(-50.0897 -0.283663 0 0.000311365 0 0)
(-50.3225 -0.313628 0 -0.00067875 0 0)
(-50.4758 -0.325606 0 -0.0010151 0 0)
(-50.556 -0.348708 0 -0.00136224 0 0)
(-50.602 -0.375997 0 -0.00171354 0 0)
(-50.6374 -0.400826 0 -0.00198321 0 0)
(-50.6644 -0.423953 0 -0.00212161 0 0)
(-50.6787 -0.448354 0 -0.00214809 0 0)
(-50.6748 -0.47722 0 -0.00199214 0 0)
(-50.6523 -0.513505 0 -0.00165295 0 0)
(-50.6075 -0.559196 0 -0.000841853 0 0)
(-50.5449 -0.618616 0 0.000723498 0 0)
(-50.4629 -0.69572 0 0.00394385 0 0)
(-50.3755 -0.798983 0 0.0103456 0 0)
(-50.297 -0.936105 0 0.0232594 0 0)
(-50.2591 -1.11128 0 0.0494775 0 0)
(-50.3097 -1.31593 0 0.100465 0 0)
(-50.1038 -0.116687 0 0.00402337 0 0)
(-50.292 -0.237554 0 0.00140049 0 0)
(-50.4919 -0.275808 0 0.000213414 0 0)
(-50.6295 -0.292154 0 -0.000151604 0 0)
(-50.6955 -0.317275 0 -0.000441105 0 0)
(-50.7259 -0.348036 0 -0.000730757 0 0)
(-50.7475 -0.376709 0 -0.000911546 0 0)
(-50.7632 -0.403207 0 -0.000928652 0 0)
(-50.7649 -0.430838 0 -0.000731554 0 0)
(-50.7467 -0.463758 0 -0.000279285 0 0)
(-50.7065 -0.504347 0 0.000576593 0 0)
(-50.647 -0.555298 0 0.00207048 0 0)
(-50.5701 -0.619271 0 0.00477609 0 0)
(-50.4846 -0.700195 0 0.00971994 0 0)
(-50.3962 -0.802905 0 0.0187443 0 0)
(-50.328 -0.931619 0 0.0356349 0 0)
(-50.2905 -1.08317 0 0.0656057 0 0)
(-50.3197 -1.24441 0 0.119296 0 0)
(-49.9473 -0.0901101 0 0.00440086 0 0)
(-50.0956 -0.220506 0 0.00159479 0 0)
(-50.2616 -0.272194 0 0.000225282 0 0)
(-50.3936 -0.296332 0 -0.000303791 0 0)
(-50.4745 -0.322239 0 -0.000617388 0 0)
(-50.5227 -0.352869 0 -0.000834246 0 0)
(-50.5572 -0.383339 0 -0.00091283 0 0)
(-50.5816 -0.412943 0 -0.000787319 0 0)
(-50.5909 -0.444673 0 -0.000414418 0 0)
(-50.5823 -0.481821 0 0.000297685 0 0)
(-50.5552 -0.526451 0 0.00154783 0 0)
(-50.5134 -0.580608 0 0.00372476 0 0)
(-50.4585 -0.64654 0 0.00750343 0 0)
(-50.3987 -0.727627 0 0.0141122 0 0)
(-50.3387 -0.826137 0 0.0254815 0 0)
(-50.2965 -0.943453 0 0.0452614 0 0)
(-50.2768 -1.07353 0 0.0779682 0 0)
(-50.3021 -1.20652 0 0.131846 0 0)
(-50.0746 -0.0611426 0 0.00521978 0 0)
(-50.1423 -0.188268 0 0.00284658 0 0)
(-50.2492 -0.249165 0 0.00137771 0 0)
(-50.3567 -0.278854 0 0.000799639 0 0)
(-50.4278 -0.305105 0 0.000577553 0 0)
(-50.4655 -0.336226 0 0.000484215 0 0)
(-50.4853 -0.369219 0 0.000535977 0 0)
(-50.4949 -0.402111 0 0.000847374 0 0)
(-50.4929 -0.436578 0 0.00153599 0 0)
(-50.4774 -0.476138 0 0.00274052 0 0)
(-50.4475 -0.523629 0 0.00467338 0 0)
(-50.4064 -0.581196 0 0.00778937 0 0)
(-50.3564 -0.650164 0 0.0128372 0 0)
(-50.3054 -0.732504 0 0.0212026 0 0)
(-50.2571 -0.828367 0 0.0348074 0 0)
(-50.2256 -0.937627 0 0.0570725 0 0)
(-50.2116 -1.05429 0 0.0917231 0 0)
(-50.2321 -1.17189 0 0.144827 0 0)
(-50.0816 -0.0855198 0 0.00415441 0 0)
(-50.1204 -0.177205 0 0.00199224 0 0)
(-50.2105 -0.239673 0 0.000789648 0 0)
(-50.3116 -0.275135 0 0.000310219 0 0)
(-50.3837 -0.30387 0 0.000160877 0 0)
(-50.4215 -0.335852 0 0.000178391 0 0)
(-50.4393 -0.370791 0 0.000377867 0 0)
(-50.4479 -0.407243 0 0.000866585 0 0)
(-50.4483 -0.446028 0 0.00177975 0 0)
(-50.4388 -0.489521 0 0.00331637 0 0)
(-50.4176 -0.539782 0 0.00578627 0 0)
(-50.3869 -0.598623 0 0.00975727 0 0)
(-50.3496 -0.667101 0 0.0160579 0 0)
(-50.3119 -0.746519 0 0.0261039 0 0)
(-50.2777 -0.836504 0 0.0416864 0 0)
(-50.2553 -0.93619 0 0.0657801 0 0)
(-50.2456 -1.04062 0 0.101252 0 0)
(-50.256 -1.14468 0 0.152578 0 0)
(-50.0404 -0.0563945 0 0.00522374 0 0)
(-50.1089 -0.149689 0 0.00314767 0 0)
(-50.1958 -0.213867 0 0.00191328 0 0)
(-50.292 -0.255609 0 0.00137642 0 0)
(-50.3689 -0.289054 0 0.00123204 0 0)
(-50.4163 -0.323379 0 0.00133578 0 0)
(-50.4414 -0.359985 0 0.00172436 0 0)
(-50.4534 -0.397997 0 0.00253763 0 0)
(-50.4563 -0.438638 0 0.00392655 0 0)
(-50.4505 -0.484462 0 0.00609381 0 0)
(-50.4358 -0.537478 0 0.00934023 0 0)
(-50.4135 -0.599052 0 0.0142412 0 0)
(-50.3857 -0.669346 0 0.0216487 0 0)
(-50.3571 -0.748525 0 0.0329592 0 0)
(-50.3308 -0.835355 0 0.0498295 0 0)
(-50.3131 -0.928675 0 0.0747825 0 0)
(-50.3042 -1.0243 0 0.109971 0 0)
(-50.3099 -1.11825 0 0.158743 0 0)
(-50.041 -0.0560415 0 0.00587693 0 0)
(-50.0385 -0.138373 0 0.00379781 0 0)
(-50.0788 -0.20365 0 0.00223796 0 0)
(-50.141 -0.250885 0 0.00163138 0 0)
(-50.1938 -0.287159 0 0.00151797 0 0)
(-50.2285 -0.322531 0 0.00171748 0 0)
(-50.2497 -0.361019 0 0.00223619 0 0)
(-50.2636 -0.40233 0 0.00321309 0 0)
(-50.2725 -0.446224 0 0.00484677 0 0)
(-50.2761 -0.494042 0 0.00740937 0 0)
(-50.2738 -0.54752 0 0.0112611 0 0)
(-50.2662 -0.608056 0 0.0170029 0 0)
(-50.2553 -0.676036 0 0.0254335 0 0)
(-50.244 -0.751343 0 0.037823 0 0)
(-50.2366 -0.832719 0 0.0555599 0 0)
(-50.2354 -0.918558 0 0.0807644 0 0)
(-50.2439 -1.00554 0 0.11493 0 0)
(-50.2594 -1.09053 0 0.160607 0 0)
(-50.1898 -0.0756725 0 0.00623334 0 0)
(-50.24 -0.133788 0 0.00452694 0 0)
(-50.3016 -0.191882 0 0.00329628 0 0)
(-50.3709 -0.239212 0 0.00274028 0 0)
(-50.4335 -0.277471 0 0.00265019 0 0)
(-50.4826 -0.312968 0 0.00303623 0 0)
(-50.5174 -0.349739 0 0.00391129 0 0)
(-50.5406 -0.38958 0 0.00535967 0 0)
(-50.5542 -0.433584 0 0.00754878 0 0)
(-50.5598 -0.483033 0 0.0107469 0 0)
(-50.5583 -0.539021 0 0.0152982 0 0)
(-50.5523 -0.602001 0 0.0217897 0 0)
(-50.5436 -0.671575 0 0.0309763 0 0)
(-50.5364 -0.746885 0 0.0440391 0 0)
(-50.5311 -0.826352 0 0.0621074 0 0)
(-50.5319 -0.908531 0 0.0869295 0 0)
(-50.5356 -0.990751 0 0.119405 0 0)
(-50.5468 -1.07118 0 0.161467 0 0)
(-49.8654 -0.0341205 0 0.00620461 0 0)
(-49.9113 -0.112146 0 0.00417598 0 0)
(-49.9616 -0.173774 0 0.00280867 0 0)
(-50.0195 -0.221844 0 0.0023643 0 0)
(-50.0742 -0.262866 0 0.00251501 0 0)
(-50.1165 -0.302265 0 0.00311884 0 0)
(-50.1458 -0.343704 0 0.00415861 0 0)
(-50.1669 -0.388378 0 0.00575575 0 0)
(-50.1834 -0.436248 0 0.00813973 0 0)
(-50.1968 -0.487615 0 0.0116521 0 0)
(-50.2074 -0.543118 0 0.0166991 0 0)
(-50.2164 -0.603641 0 0.0238592 0 0)
(-50.2248 -0.669161 0 0.0337906 0 0)
(-50.2358 -0.739538 0 0.0474764 0 0)
(-50.2498 -0.813353 0 0.0657648 0 0)
(-50.2695 -0.889877 0 0.0899869 0 0)
(-50.2908 -0.966414 0 0.120645 0 0)
(-50.317 -1.04241 0 0.159162 0 0)
(-49.984 -0.0524151 0 0.00741411 0 0)
(-49.9961 -0.114974 0 0.00615244 0 0)
(-50.0338 -0.166771 0 0.0044011 0 0)
(-50.0911 -0.213572 0 0.00387477 0 0)
(-50.1456 -0.25672 0 0.0040371 0 0)
(-50.1875 -0.296727 0 0.00471951 0 0)
(-50.218 -0.335697 0 0.00596868 0 0)
(-50.2413 -0.376505 0 0.00793571 0 0)
(-50.2608 -0.421399 0 0.010831 0 0)
(-50.2782 -0.47173 0 0.0149181 0 0)
(-50.2948 -0.527649 0 0.0205089 0 0)
(-50.3116 -0.588827 0 0.0281457 0 0)
(-50.3306 -0.654291 0 0.0384461 0 0)
(-50.3528 -0.723292 0 0.052313 0 0)
(-50.379 -0.794603 0 0.0703705 0 0)
(-50.408 -0.867556 0 0.0937241 0 0)
(-50.4395 -0.940336 0 0.12242 0 0)
(-50.469 -1.01285 0 0.157624 0 0)
(-50.0415 -0.048789 0 0.00819408 0 0)
(-50.0751 -0.0964671 0 0.00696729 0 0)
(-50.1193 -0.149856 0 0.00555519 0 0)
(-50.1732 -0.199475 0 0.00498755 0 0)
(-50.2269 -0.244413 0 0.00508866 0 0)
(-50.2753 -0.288082 0 0.00576904 0 0)
(-50.3166 -0.332762 0 0.00703629 0 0)
(-50.3509 -0.379554 0 0.00903158 0 0)
(-50.3793 -0.428814 0 0.0119751 0 0)
(-50.4038 -0.480797 0 0.0161731 0 0)
(-50.4256 -0.535484 0 0.0219782 0 0)
(-50.4463 -0.59318 0 0.029881 0 0)
(-50.466 -0.653654 0 0.0403483 0 0)
(-50.4865 -0.717223 0 0.0540347 0 0)
(-50.507 -0.783024 0 0.071287 0 0)
(-50.5302 -0.851452 0 0.0928369 0 0)
(-50.5517 -0.920403 0 0.118464 0 0)
(-50.5765 -0.990611 0 0.149007 0 0)
(-49.8322 -0.0236102 0 0.00923346 0 0)
(-49.8604 -0.0829966 0 0.00851873 0 0)
(-49.8837 -0.134607 0 0.00722272 0 0)
(-49.9128 -0.18164 0 0.00671964 0 0)
(-49.9512 -0.225918 0 0.00704148 0 0)
(-49.9965 -0.267901 0 0.00808856 0 0)
(-50.0451 -0.308408 0 0.00982555 0 0)
(-50.0937 -0.350054 0 0.0123481 0 0)
(-50.1402 -0.395492 0 0.0158184 0 0)
(-50.1834 -0.446214 0 0.020434 0 0)
(-50.2232 -0.501892 0 0.0264229 0 0)
(-50.2595 -0.561599 0 0.0342016 0 0)
(-50.2935 -0.623699 0 0.0441816 0 0)
(-50.325 -0.687559 0 0.0569482 0 0)
(-50.3572 -0.751897 0 0.0726662 0 0)
(-50.3889 -0.817222 0 0.0919435 0 0)
(-50.4246 -0.881942 0 0.114327 0 0)
(-50.4576 -0.947587 0 0.140529 0 0)
(-50.4811 -0.01975 0 0.0106873 0 0)
(-50.4656 -0.0858056 0 0.00892329 0 0)
(-50.4669 -0.128929 0 0.00661312 0 0)
(-50.5009 -0.16443 0 0.00609571 0 0)
(-50.5576 -0.202416 0 0.00670135 0 0)
(-50.6199 -0.243778 0 0.00793929 0 0)
(-50.6768 -0.287505 0 0.00969723 0 0)
(-50.7245 -0.333925 0 0.0120891 0 0)
(-50.7641 -0.383599 0 0.0152952 0 0)
(-50.7995 -0.436642 0 0.0195638 0 0)
(-50.8351 -0.492356 0 0.0251553 0 0)
(-50.8729 -0.550065 0 0.0324208 0 0)
(-50.9133 -0.60874 0 0.0416048 0 0)
(-50.9552 -0.668349 0 0.0530637 0 0)
(-50.9984 -0.728199 0 0.0667757 0 0)
(-51.0412 -0.789294 0 0.08311 0 0)
(-51.0843 -0.850507 0 0.1015 0 0)
(-51.125 -0.913761 0 0.122485 0 0)
(-49.9157 -0.0559665 0 0.0106771 0 0)
(-49.8733 -0.083708 0 0.00901785 0 0)
(-49.8596 -0.114372 0 0.00635821 0 0)
(-49.8864 -0.149147 0 0.00599432 0 0)
(-49.9332 -0.185933 0 0.00692189 0 0)
(-49.9835 -0.224559 0 0.00849563 0 0)
(-50.0339 -0.2659 0 0.0105039 0 0)
(-50.0867 -0.310276 0 0.0130346 0 0)
(-50.1425 -0.357184 0 0.0163266 0 0)
(-50.2018 -0.406292 0 0.0206444 0 0)
(-50.2634 -0.457215 0 0.0261517 0 0)
(-50.3278 -0.510299 0 0.0329997 0 0)
(-50.3916 -0.56514 0 0.0412119 0 0)
(-50.4566 -0.622153 0 0.0509553 0 0)
(-50.5179 -0.680141 0 0.0621001 0 0)
(-50.5813 -0.739826 0 0.0749445 0 0)
(-50.6381 -0.799154 0 0.0890005 0 0)
(-50.7017 -0.86011 0 0.10481 0 0)
(-49.7379 -0.071741 0 0.010672 0 0)
(-49.7436 -0.0708726 0 0.0100535 0 0)
(-49.766 -0.0872952 0 0.0081444 0 0)
(-49.8021 -0.117272 0 0.00766181 0 0)
(-49.8422 -0.150288 0 0.00802621 0 0)
(-49.886 -0.182145 0 0.00917506 0 0)
(-49.9357 -0.214323 0 0.0110576 0 0)
(-49.9919 -0.249743 0 0.013593 0 0)
(-50.054 -0.289765 0 0.0167323 0 0)
(-50.121 -0.334379 0 0.020509 0 0)
(-50.1923 -0.382271 0 0.0250031 0 0)
(-50.267 -0.432782 0 0.0303446 0 0)
(-50.3443 -0.484796 0 0.0365641 0 0)
(-50.4231 -0.538749 0 0.0437604 0 0)
(-50.5037 -0.593446 0 0.0517755 0 0)
(-50.5845 -0.650022 0 0.0608019 0 0)
(-50.6665 -0.706184 0 0.0704538 0 0)
(-50.7474 -0.764364 0 0.0810739 0 0)
(-50.0509 -0.0372531 0 0.011249 0 0)
(-50.0971 -0.0528005 0 0.0104526 0 0)
(-50.1494 -0.0763855 0 0.00792667 0 0)
(-50.1998 -0.101544 0 0.00708453 0 0)
(-50.2491 -0.127623 0 0.007395 0 0)
(-50.3024 -0.155583 0 0.00845236 0 0)
(-50.3613 -0.185645 0 0.0100528 0 0)
(-50.4257 -0.217262 0 0.012154 0 0)
(-50.4951 -0.249877 0 0.014794 0 0)
(-50.5695 -0.283867 0 0.0180277 0 0)
(-50.6492 -0.319607 0 0.0218698 0 0)
(-50.7336 -0.357871 0 0.0263243 0 0)
(-50.8226 -0.398483 0 0.031317 0 0)
(-50.9151 -0.442009 0 0.0368388 0 0)
(-51.0114 -0.487331 0 0.042727 0 0)
(-51.1095 -0.535267 0 0.0490845 0 0)
(-51.2113 -0.583495 0 0.0556573 0 0)
(-51.3128 -0.634155 0 0.0626877 0 0)
(-50.0381 -0.00479409 0 0.0133521 0 0)
(-50.0885 -0.0228813 0 0.0117912 0 0)
(-50.1446 -0.041193 0 0.00849855 0 0)
(-50.2051 -0.0580825 0 0.00712118 0 0)
(-50.271 -0.0756811 0 0.00699354 0 0)
(-50.3455 -0.0944629 0 0.00761182 0 0)
(-50.4268 -0.114711 0 0.00876794 0 0)
(-50.5108 -0.137294 0 0.0103473 0 0)
(-50.596 -0.162804 0 0.0122756 0 0)
(-50.6828 -0.191452 0 0.0145297 0 0)
(-50.7717 -0.222771 0 0.0171085 0 0)
(-50.863 -0.256564 0 0.0200328 0 0)
(-50.9568 -0.292056 0 0.0232811 0 0)
(-51.0532 -0.329484 0 0.0268607 0 0)
(-51.1522 -0.367851 0 0.0306602 0 0)
(-51.2542 -0.408137 0 0.0347441 0 0)
(-51.3592 -0.448437 0 0.0389412 0 0)
(-51.4673 -0.491054 0 0.0433204 0 0)
(-50.1925 0.0205029 0 0.0112175 0 0)
(-50.2523 0.00386762 0 0.0105304 0 0)
(-50.3219 -0.00821971 0 0.0077992 0 0)
(-50.4018 -0.0170058 0 0.00670294 0 0)
(-50.4856 -0.0283073 0 0.00662498 0 0)
(-50.5685 -0.0440941 0 0.00713618 0 0)
(-50.6516 -0.0630808 0 0.00799827 0 0)
(-50.7379 -0.0843152 0 0.00909559 0 0)
(-50.8287 -0.107179 0 0.0104076 0 0)
(-50.9242 -0.131417 0 0.0119733 0 0)
(-51.0244 -0.15685 0 0.0138122 0 0)
(-51.1287 -0.183854 0 0.0159182 0 0)
(-51.2358 -0.212243 0 0.0182473 0 0)
(-51.345 -0.242328 0 0.0207861 0 0)
(-51.4557 -0.273151 0 0.0234671 0 0)
(-51.5677 -0.305255 0 0.0263614 0 0)
(-51.6813 -0.336993 0 0.0293629 0 0)
(-51.7966 -0.370106 0 0.03252 0 0)
(-50.0595 0.0467264 0 0.011921 0 0)
(-50.0763 0.0367004 0 0.0106304 0 0)
(-50.1104 0.0256365 0 0.00768484 0 0)
(-50.1735 0.0165212 0 0.00623267 0 0)
(-50.2605 0.00645021 0 0.00578784 0 0)
(-50.358 -0.00549716 0 0.0059562 0 0)
(-50.4574 -0.0186523 0 0.00648832 0 0)
(-50.5572 -0.0325743 0 0.00726196 0 0)
(-50.6586 -0.0476281 0 0.00824712 0 0)
(-50.7631 -0.0648402 0 0.00943936 0 0)
(-50.8716 -0.0848145 0 0.0108137 0 0)
(-50.9846 -0.107937 0 0.0123275 0 0)
(-51.101 -0.133576 0 0.0139278 0 0)
(-51.2205 -0.161436 0 0.0155994 0 0)
(-51.342 -0.190245 0 0.017303 0 0)
(-51.4658 -0.220168 0 0.0191227 0 0)
(-51.5901 -0.249584 0 0.0210008 0 0)
(-51.7167 -0.279821 0 0.0229672 0 0)
(-49.8175 0.0102995 0 0.0093369 0 0)
(-49.8957 0.0374068 0 0.00807599 0 0)
(-49.9889 0.0477562 0 0.00563493 0 0)
(-50.0994 0.0512254 0 0.00465789 0 0)
(-50.2147 0.0514382 0 0.00454742 0 0)
(-50.3245 0.0479295 0 0.00483912 0 0)
(-50.4287 0.0394203 0 0.00528618 0 0)
(-50.5314 0.0268229 0 0.00577571 0 0)
(-50.6349 0.0123876 0 0.00635971 0 0)
(-50.7406 -0.00252494 0 0.00710732 0 0)
(-50.8498 -0.0176433 0 0.00802596 0 0)
(-50.9631 -0.0336877 0 0.00909674 0 0)
(-51.0807 -0.0510972 0 0.0102805 0 0)
(-51.2029 -0.0705696 0 0.0115505 0 0)
(-51.3298 -0.091483 0 0.0128498 0 0)
(-51.461 -0.114048 0 0.0142169 0 0)
(-51.5962 -0.136668 0 0.0156124 0 0)
(-51.7346 -0.160246 0 0.0170643 0 0)
(-49.9545 0.0878563 0 0.00805354 0 0)
(-50.0248 0.0835091 0 0.00575557 0 0)
(-50.1276 0.0931055 0 0.00368932 0 0)
(-50.2484 0.0955924 0 0.00296131 0 0)
(-50.3631 0.0888549 0 0.00287012 0 0)
(-50.4661 0.078705 0 0.00303114 0 0)
(-50.5669 0.0688373 0 0.00329159 0 0)
(-50.6732 0.059519 0 0.00362546 0 0)
(-50.7863 0.0498768 0 0.00404957 0 0)
(-50.9046 0.0390794 0 0.00458177 0 0)
(-51.0256 0.0269014 0 0.00522132 0 0)
(-51.1484 0.0131587 0 0.00595648 0 0)
(-51.2721 -0.00191856 0 0.00676492 0 0)
(-51.3977 -0.0183952 0 0.00762955 0 0)
(-51.5252 -0.0355637 0 0.008522 0 0)
(-51.6557 -0.0536344 0 0.00946931 0 0)
(-51.7878 -0.0714781 0 0.0104391 0 0)
(-51.9231 -0.0900524 0 0.0114398 0 0)
(-49.794 0.05652 0 0.00768271 0 0)
(-49.7975 0.110618 0 0.00551233 0 0)
(-49.8699 0.134086 0 0.00357673 0 0)
(-49.9888 0.139383 0 0.00272465 0 0)
(-50.1095 0.138036 0 0.00245547 0 0)
(-50.219 0.135443 0 0.00249403 0 0)
(-50.3258 0.13223 0 0.00267761 0 0)
(-50.4374 0.127405 0 0.00292206 0 0)
(-50.5546 0.120586 0 0.00321006 0 0)
(-50.676 0.112236 0 0.00355496 0 0)
(-50.8003 0.103007 0 0.00396842 0 0)
(-50.9274 0.0930239 0 0.00445121 0 0)
(-51.0571 0.0823155 0 0.00499325 0 0)
(-51.1889 0.0705357 0 0.00558639 0 0)
(-51.3227 0.0579276 0 0.00619894 0 0)
(-51.4572 0.0443039 0 0.00685719 0 0)
(-51.593 0.0305167 0 0.00752999 0 0)
(-51.7283 0.0159987 0 0.00820718 0 0)
(-50.1336 0.0524421 0 0.00745792 0 0)
(-50.222 0.123316 0 0.00554584 0 0)
(-50.3596 0.138708 0 0.00375624 0 0)
(-50.5098 0.135809 0 0.00301988 0 0)
(-50.6402 0.133303 0 0.00277666 0 0)
(-50.7479 0.133215 0 0.00271825 0 0)
(-50.8491 0.132835 0 0.00271978 0 0)
(-50.9581 0.130785 0 0.00276435 0 0)
(-51.0785 0.127228 0 0.00286714 0 0)
(-51.2072 0.122631 0 0.00303513 0 0)
(-51.3393 0.117057 0 0.0032631 0 0)
(-51.4717 0.110174 0 0.00353648 0 0)
(-51.6034 0.101879 0 0.00384062 0 0)
(-51.7352 0.0920658 0 0.00416781 0 0)
(-51.8689 0.0812131 0 0.00449672 0 0)
(-52.0056 0.0694907 0 0.00485675 0 0)
(-52.1464 0.0577291 0 0.00523406 0 0)
(-52.2911 0.0456969 0 0.00561167 0 0)
(-50.0152 0.10364 0 0.00576042 0 0)
(-50.1356 0.198135 0 0.0031983 0 0)
(-50.2751 0.220549 0 0.00175871 0 0)
(-50.4072 0.215193 0 0.00130493 0 0)
(-50.5246 0.210674 0 0.00110744 0 0)
(-50.6342 0.210385 0 0.00100923 0 0)
(-50.7445 0.210885 0 0.000978925 0 0)
(-50.8578 0.210517 0 0.000988898 0 0)
(-50.9723 0.208925 0 0.00103733 0 0)
(-51.0868 0.2058 0 0.00113466 0 0)
(-51.2024 0.201012 0 0.00127513 0 0)
(-51.3212 0.194746 0 0.00144663 0 0)
(-51.445 0.187635 0 0.00164423 0 0)
(-51.5744 0.180278 0 0.00187041 0 0)
(-51.709 0.173339 0 0.00211609 0 0)
(-51.8481 0.166725 0 0.00239567 0 0)
(-51.9907 0.160637 0 0.00269104 0 0)
(-52.136 0.154232 0 0.00299228 0 0)
(-50.1595 0.0679697 0 0.00476806 0 0)
(-50.3629 0.143939 0 0.00238093 0 0)
(-50.5644 0.162727 0 0.00130365 0 0)
(-50.715 0.164376 0 0.000943621 0 0)
(-50.83 0.170271 0 0.000783208 0 0)
(-50.9386 0.17735 0 0.000686807 0 0)
(-51.0559 0.18108 0 0.000625174 0 0)
(-51.182 0.181894 0 0.000593882 0 0)
(-51.312 0.181812 0 0.000588662 0 0)
(-51.4426 0.181867 0 0.000605179 0 0)
(-51.5742 0.181906 0 0.000641667 0 0)
(-51.7076 0.181548 0 0.000698185 0 0)
(-51.8442 0.180314 0 0.000777117 0 0)
(-51.9833 0.178212 0 0.000876405 0 0)
(-52.1254 0.175185 0 0.000990461 0 0)
(-52.2677 0.171617 0 0.00112759 0 0)
(-52.4122 0.167613 0 0.00128017 0 0)
(-52.5544 0.163442 0 0.00143476 0 0)
(-50.2861 0.215764 0 0.00269 0 0)
(-50.6692 0.303373 0 8.80698e-05 0 0)
(-50.9821 0.289241 0 -0.000400197 0 0)
(-51.1866 0.279239 0 -0.000509172 0 0)
(-51.3252 0.279993 0 -0.000630563 0 0)
(-51.4335 0.281965 0 -0.000717948 0 0)
(-51.5241 0.282896 0 -0.000770096 0 0)
(-51.5985 0.283217 0 -0.000801459 0 0)
(-51.6558 0.282836 0 -0.000809257 0 0)
(-51.6986 0.281673 0 -0.000794434 0 0)
(-51.7296 0.279701 0 -0.000761845 0 0)
(-51.7534 0.277279 0 -0.000717081 0 0)
(-51.7699 0.2744 0 -0.00065884 0 0)
(-51.7832 0.271455 0 -0.000590411 0 0)
(-51.7894 0.268161 0 -0.000511691 0 0)
(-51.7962 0.264984 0 -0.000422441 0 0)
(-51.7947 0.261595 0 -0.000323681 0 0)
(-51.8011 0.258656 0 -0.000230241 0 0)
(-49.0694 0.110893 0 0.0023947 0 0)
(-47.4908 0.206122 0 0.000335379 0 0)
(-45.8778 0.198881 0 5.3239e-05 0 0)
(-44.272 0.191936 0 -5.29572e-05 0 0)
(-42.7453 0.190622 0 -0.000161416 0 0)
(-41.3196 0.187769 0 -0.000227178 0 0)
(-39.9901 0.182547 0 -0.000253708 0 0)
(-38.7486 0.176417 0 -0.000261052 0 0)
(-37.587 0.170528 0 -0.000261039 0 0)
(-36.4998 0.165411 0 -0.000259845 0 0)
(-35.4801 0.16088 0 -0.000258066 0 0)
(-34.5259 0.156516 0 -0.000251977 0 0)
(-33.6307 0.151811 0 -0.000237089 0 0)
(-32.7972 0.146822 0 -0.000217392 0 0)
(-32.0145 0.141603 0 -0.000195192 0 0)
(-31.2914 0.136705 0 -0.000168756 0 0)
(-30.6052 0.132117 0 -0.000143174 0 0)
(-29.9797 0.1284 0 -0.00012943 0 0)
(-0.0145106 0.0376316 -2.52232e-22 -0.0836202 5.15947e-22 4.14951e-39)
(-0.0584851 0.00669609 6.13258e-22 0.0187037 -2.71848e-22 4.08355e-39)
(0.0670263 -0.109454 0 0.0458126 0 0)
(0.405457 -0.192106 0 0.0102015 0 0)
(0.780432 -0.13651 0 -0.0703203 0 0)
(0.957561 0.0312899 -4.78045e-22 -0.12589 -4.42359e-22 3.84007e-39)
(0.79546 0.236665 0 -0.131758 0 0)
(0.293929 0.388613 0 -0.0954947 0 0)
(-0.410288 0.442688 0 -0.0381556 0 0)
(-1.14858 0.40018 0 0.0186708 0 0)
(-1.753 0.288934 -1.67445e-21 0.0583413 4.91979e-22 3.5282e-39)
(-2.13756 0.170875 0 0.0722407 0 0)
(-2.29483 0.0754766 0 0.0727522 0 0)
(-2.23753 -0.0350482 0 0.0749744 0 0)
(-2.00744 -0.174622 0 0.0764174 0 0)
(-1.6 -0.348895 -3.30035e-21 0.0764003 1.52508e-22 3.24731e-39)
(-0.953703 -0.316387 0 0.0586748 0 0)
(-0.467571 -0.0533779 0 0.0517575 0 0)
(-0.15224 0.076427 0 0.0685422 0 0)
(0.0143332 0.106083 0 0.0888306 0 0)
(0.22276 0.0990871 0 0.109851 0 0)
(0.626957 0.0893298 0 0.133376 0 0)
(1.29028 0.0260822 0 0.143044 0 0)
(2.08382 -0.154477 -3.59808e-21 0.121764 -1.20777e-22 2.86076e-39)
(3.16326 -0.373133 3.40901e-21 0.12315 2.44723e-22 2.81631e-39)
(4.3001 -0.356119 -3.17163e-21 0.145398 -3.07484e-22 2.7724e-39)
(5.37102 -0.251839 -2.92901e-21 0.206847 -3.34767e-22 2.72893e-39)
(6.42539 -0.134555 0 0.271361 0 0)
(7.3116 -0.0436911 0 0.248968 0 0)
(8.10518 -0.145967 2.3159e-21 0.272538 1.58775e-22 2.59622e-39)
(8.88605 -0.262476 2.21937e-21 0.26771 2.00514e-22 2.55077e-39)
(9.68786 -0.33114 0 0.252253 0 0)
(10.5415 -0.369825 0 0.24468 0 0)
(11.3814 -0.384157 2.21797e-21 0.25754 1.19322e-22 2.41764e-39)
(12.1856 -0.415532 0 0.286569 0 0)
(13.032 -0.468549 0 0.332885 0 0)
(14.03 -0.593305 -2.63601e-21 0.404858 9.2937e-23 2.28969e-39)
(15.3182 -0.79008 0 0.431085 0 0)
(16.8943 -0.969685 -3.32081e-21 0.393122 2.00888e-22 2.20806e-39)
(18.4944 -0.979056 -7.32857e-21 0.316216 4.08915e-22 8.67094e-39)
(19.7326 -0.757154 0 0.267419 0 0)
(20.4249 -0.497269 0 0.262726 0 0)
(20.6199 -0.320751 0 0.293657 0 0)
(20.6362 -0.480537 0 0.302163 0 0)
(21.3181 -0.65576 0 0.351363 0 0)
(22.2448 -0.647379 -9.50593e-21 0.3893 3.94227e-22 7.75404e-39)
(23.2752 -0.988888 -9.68566e-21 0.398624 4.34753e-22 7.60679e-39)
(24.1018 -1.06255 -9.43386e-21 0.485106 4.5055e-22 7.46132e-39)
(24.8221 -0.434601 0 0.26047 0 0)
(24.7517 -0.223331 8.52781e-21 0.339412 4.21182e-22 7.17463e-39)
(25.0046 -0.278159 0 0.274511 0 0)
(25.2239 -0.255805 -7.4524e-21 0.267792 -2.28031e-22 6.89918e-39)
(25.3196 -0.184555 -7.09974e-21 0.249406 -2.14515e-22 6.76645e-39)
(25.2325 -0.194216 0 0.219372 0 0)
(25.2961 -0.240512 0 0.188042 0 0)
(25.1762 -0.537894 0 0.206231 0 0)
(25.0907 -0.335993 -7.25881e-21 0.197978 2.77604e-22 6.26383e-39)
(24.498 -0.190298 0 0.291248 0 0)
(24.37 -0.317824 0 0.234468 0 0)
(24.6108 -0.382695 0 0.206281 0 0)
(25.2739 -0.501966 0 0.172315 0 0)
(26.2769 -0.69518 0 0.152814 0 0)
(27.3186 -0.806627 0 0.130819 0 0)
(28.0322 -0.563226 0 0.164783 0 0)
(28.3391 -0.473378 0 0.232688 0 0)
(28.6769 -0.513514 1.16088e-20 0.240043 -1.9866e-22 5.25355e-39)
(29.0221 -0.546202 0 0.25163 0 0)
(29.3141 -0.562604 0 0.253022 0 0)
(29.5182 -0.543837 -1.19366e-20 0.251041 3.92915e-22 4.94215e-39)
(29.6223 -0.512571 -1.19029e-20 0.244543 2.82831e-22 4.84177e-39)
(29.7405 -0.487105 0 0.235183 0 0)
(29.9209 -0.460402 1.20308e-20 0.225127 -3.76975e-22 4.64615e-39)
(30.3258 -0.476197 -1.22901e-20 0.219441 5.02972e-22 4.5503e-39)
(30.974 -0.499535 0 0.215077 0 0)
(31.5858 -0.457397 1.27029e-20 0.203903 -6.72093e-22 4.35966e-39)
(31.9617 -0.342168 0 0.184497 0 0)
(31.9688 -0.19111 0 0.162518 0 0)
(31.4182 -0.00134745 -1.12143e-20 0.14554 1.63988e-22 4.08847e-39)
(30.1063 0.229921 0 0.140053 0 0)
(27.8545 0.473825 9.8767e-21 0.146624 -3.99139e-24 3.91938e-39)
(24.7405 0.648938 0 0.157054 0 0)
(20.9765 0.642859 -8.24193e-21 0.157466 -2.1859e-22 3.75884e-39)
(17.4358 0.535426 -7.42731e-21 0.162412 -1.54929e-22 3.68098e-39)
(13.7328 0.319491 -6.62421e-21 0.175263 -2.71767e-23 3.60431e-39)
(11.1213 -0.160345 -1.25178e-20 0.179009 5.88613e-22 1.41136e-38)
(8.16013 -0.477327 1.15718e-20 0.239077 -9.83801e-22 1.38129e-38)
(5.22626 -0.514025 0 0.255254 0 0)
(0.296402 0.326905 0 0.339604 0 0)
(-6.69409 1.87888 0 0.278064 0 0)
(-14.1795 1.73616 9.34452e-22 0.318931 1.65555e-21 1.2626e-38)
(-18.1145 0.950297 -2.22933e-21 0.229777 6.66532e-22 1.23386e-38)
(-19.82 0.391634 3.41502e-21 0.173849 1.19251e-22 1.20609e-38)
(-19.8296 -0.031646 0 0.128249 0 0)
(-18.5857 -0.328933 1.34242e-22 0.0971882 -1.15186e-21 1.15364e-38)
(-16.4182 -0.540622 4.12169e-21 0.0737141 -1.41373e-21 1.12877e-38)
(-13.5766 -0.684436 9.005e-21 0.0560083 -1.55264e-21 1.10461e-38)
(-10.2641 -0.776282 0 0.0416595 0 0)
(-6.6516 -0.825197 0 0.0298308 0 0)
(-2.88773 -0.838323 0 0.0197538 0 0)
(0.894656 -0.820996 3.01566e-20 0.0111478 -1.30438e-21 1.01276e-38)
(4.57709 -0.779707 0 0.00383499 0 0)
(8.05336 -0.715669 0 -0.002266 0 0)
(11.2381 -0.634822 -4.01454e-20 -0.00714197 6.72547e-22 9.46565e-39)
(14.0573 -0.541229 0 -0.0108111 0 0)
(16.4617 -0.439915 0 -0.0133425 0 0)
(18.4168 -0.335004 -4.09943e-20 -0.0148419 5.31804e-24 8.82039e-39)
(19.9047 -0.230777 0 -0.0154409 0 0)
(20.9259 -0.130904 0 -0.0152937 0 0)
(21.496 -0.0385108 3.37756e-20 -0.0145746 4.55662e-22 8.19912e-39)
(21.6463 0.0442766 3.02319e-20 -0.0134315 5.45805e-22 7.99894e-39)
(21.42 0.115737 0 -0.0120017 0 0)
(20.8676 0.17494 -2.25007e-20 -0.0104033 -6.34182e-22 7.61087e-39)
(20.0404 0.222242 0 -0.00869226 0 0)
(18.9888 0.258389 1.49332e-20 -0.00697892 6.24842e-22 7.23954e-39)
(17.7577 0.284629 0 -0.00535138 0 0)
(16.3858 0.303049 8.31596e-21 -0.00374849 5.60396e-22 6.88253e-39)
(14.909 0.314727 5.48035e-21 -0.00219203 5.1699e-22 6.70957e-39)
(13.3601 0.320216 0 -0.000725254 0 0)
(11.7699 0.319868 0 0.00060664 0 0)
(10.1675 0.313935 0 0.00177102 0 0)
(8.58019 0.30293 0 0.00272595 0 0)
(7.03266 0.287601 0 0.0034401 0 0)
(5.54686 0.26974 0 0.00402473 0 0)
(4.14156 0.250507 0 0.00438127 0 0)
(2.82296 0.230575 -5.95454e-21 0.00457937 1.87223e-22 5.44468e-39)
(1.59802 0.209427 6.35377e-21 0.00462782 -1.66119e-22 5.29741e-39)
(0.465491 0.188901 0 0.00456407 0 0)
(-0.577676 0.169759 0 0.00440858 0 0)
(-1.53753 0.152389 0 0.00418191 0 0)
(-2.42163 0.136916 0 0.00392297 0 0)
(-3.23829 0.123275 1.45777e-20 0.00366713 -2.27941e-22 1.84342e-38)
(-3.99562 0.111287 0 0.0034389 0 0)
(-4.70084 0.100693 -1.50039e-20 0.00325315 2.05519e-22 1.74152e-38)
(-5.36011 0.0912145 1.52007e-20 0.00311699 -1.92219e-22 1.69223e-38)
(-5.97817 0.0825931 0 0.00303438 0 0)
(-6.55853 0.0745928 0 0.00300954 0 0)
(-7.10308 0.0670078 0 0.00304438 0 0)
(-7.61256 0.0596411 -1.58012e-20 0.00313696 1.1865e-22 1.5056e-38)
(-8.08634 0.0523113 -1.587e-20 0.00328508 9.47398e-23 1.46145e-38)
(-8.52255 0.0448625 0 0.00348508 0 0)
(-8.9184 0.0371096 -1.5886e-20 0.00373287 5.1378e-23 1.37598e-38)
(-9.26986 0.0289426 -1.58322e-20 0.00402404 2.71811e-23 1.33463e-38)
(-9.57259 0.0202918 1.5735e-20 0.00435541 -2.0806e-24 1.29418e-38)
(-9.82168 0.0110612 0 0.00472454 0 0)
(-10.0116 0.00123164 0 0.00513098 0 0)
(-10.1367 -0.00915639 1.52229e-20 0.00557838 6.60075e-23 1.17801e-38)
(-10.1914 -0.0201145 0 0.00607761 0 0)
(-10.1701 -0.0314755 0 0.00664934 0 0)
(-10.0686 -0.042845 0 0.00732104 0 0)
(-9.88388 -0.0540972 0 0.00811539 0 0)
(-9.61374 -0.0649553 -1.38017e-20 0.00905782 -1.91923e-22 1.00074e-38)
(-9.25668 -0.074797 -1.33816e-20 0.0101985 -2.12984e-22 9.6762e-39)
(-8.81055 -0.0837331 0 0.0116132 0 0)
(-8.26722 -0.0924338 -1.23366e-20 0.0134714 -2.74053e-22 9.03601e-39)
(-7.6105 -0.0995773 0 0.0161759 0 0)
(-6.82429 -0.101445 0 0.0201172 0 0)
(-5.9005 -0.0944376 -9.68069e-21 0.0253558 -3.14765e-22 8.13159e-39)
(-4.84233 -0.0746065 0 0.0313299 0 0)
(-3.68271 -0.0362224 -7.11462e-21 0.0368995 -1.94048e-22 7.56543e-39)
(-2.52133 0.014894 0 0.039875 0 0)
(-1.48531 0.0552836 0 0.0379157 0 0)
(-0.680785 0.0565802 -3.79742e-21 0.0324051 4.47717e-23 6.76597e-39)
(-0.141114 0.0130485 0 0.0281668 0 0)
(0.311772 -0.0688821 -2.55136e-21 0.0266257 -2.38457e-22 6.26304e-39)
(0.856582 -0.10813 0 0.0244794 0 0)
(1.44396 -0.0969223 0 0.0201602 0 0)
(2.03318 -0.0697473 0 0.017476 0 0)
(2.59881 -0.0241791 -7.62475e-22 0.0170172 9.79031e-23 5.33035e-39)
(3.02933 0.0177226 0 0.018546 0 0)
(3.28114 0.0382137 2.18029e-21 0.019374 1.37097e-23 4.89928e-39)
(3.39976 0.0394467 0 0.0171951 0 0)
(3.42343 0.0260382 0 0.015832 0 0)
(3.4465 -0.000274002 0 0.00970118 0 0)
(3.50987 -0.00531239 0 0.00611443 0 0)
(3.53519 -0.00828023 0 0.00523285 0 0)
(3.54011 -0.0211571 0 0.00311502 0 0)
(3.56168 -0.0176745 0 0.00190208 0 0)
(3.56026 -0.013993 -8.05636e-21 0.0011269 1.06931e-22 1.35764e-38)
(3.48754 0.0292385 0 0.000659915 0 0)
(3.21729 0.0928839 0 0.00370475 0 0)
(0.00654159 -0.010989 2.14221e-23 -0.141369 -3.41977e-21 3.734e-38)
(0.0332048 -0.119987 1.00122e-23 0.286844 2.63943e-21 3.6807e-38)
(0.128169 -0.276942 0 0.601117 0 0)
(0.155634 -0.219618 -4.75261e-22 0.438689 9.09282e-23 1.58395e-38)
(-0.00302011 0.185798 0 -0.168696 0 0)
(-0.449019 0.775935 -7.81387e-22 -0.702425 1.01116e-21 3.81781e-39)