/*--------------------------------*- C++ -*----------------------------------*\
  =========                 |
  \\      /  F ield         | OpenFOAM: The Open Source CFD Toolbox
   \\    /   O peration     | Website:  https://openfoam.org
    \\  /    A nd           | Version:  9
     \\/     M anipulation  |
\*---------------------------------------------------------------------------*/
FoamFile
{
    format      ascii;
    class       volScalarField;
    location    "0.037";
    object      k;
}
// * * * * * * * * * * * * * * * * * * * * * * * * * * * * * * * * * * * * * //

dimensions      [0 2 -2 0 0 0 0];

internalField   nonuniform List<scalar> 
12225
(
0.000126016
0.000205234
0.000176698
8.52625e-05
5.28674e-05
5.28695e-05
7.52627e-05
0.000107025
0.000120323
0.000122996
0.000121236
0.000108628
7.64295e-05
5.06979e-05
3.48214e-05
2.77181e-05
2.64487e-05
0.000155837
2.4902e-05
3.78068e-05
3.68846e-05
2.87041e-05
2.44297e-05
2.442e-05
2.73284e-05
3.84381e-05
5.47984e-05
6.6782e-05
7.20546e-05
7.24711e-05
7.07756e-05
6.6295e-05
5.62196e-05
4.59503e-05
3.48096e-05
6.2349e-05
2.01747e-05
1.86394e-05
1.88791e-05
1.87314e-05
1.75121e-05
1.59234e-05
1.56622e-05
1.59219e-05
1.68869e-05
1.98615e-05
2.30482e-05
2.56086e-05
2.91389e-05
3.05869e-05
3.06217e-05
3.01291e-05
2.7466e-05
2.8907e-05
2.00227e-05
1.99766e-05
2.00055e-05
2.01073e-05
2.01036e-05
2.00381e-05
1.98641e-05
1.94802e-05
1.81549e-05
1.60204e-05
1.65669e-05
2.0281e-05
2.40601e-05
2.54828e-05
2.56931e-05
2.53882e-05
2.37101e-05
2.19994e-05
2.0018e-05
2.00441e-05
2.01356e-05
2.0447e-05
2.06648e-05
2.07625e-05
2.07884e-05
2.07843e-05
2.0912e-05
2.24934e-05
3.22819e-05
8.43728e-05
0.000152035
0.000170995
0.000168204
0.000141736
9.70102e-05
6.63304e-05
2.00016e-05
1.99989e-05
2.00205e-05
2.01333e-05
2.05218e-05
2.26652e-05
2.71147e-05
2.73376e-05
2.49756e-05
2.35674e-05
2.44699e-05
3.13784e-05
5.25351e-05
6.92015e-05
7.51162e-05
7.44459e-05
6.77218e-05
5.64453e-05
2.01362e-05
2.02503e-05
2.02837e-05
2.04078e-05
2.10065e-05
2.34574e-05
3.0574e-05
3.40075e-05
3.30111e-05
2.71699e-05
2.45406e-05
2.50027e-05
2.87616e-05
4.33783e-05
5.41052e-05
5.65213e-05
5.59048e-05
5.147e-05
2.07018e-05
2.06915e-05
2.06161e-05
2.07548e-05
2.17746e-05
2.64058e-05
4.39488e-05
5.97014e-05
6.1842e-05
5.4693e-05
3.71006e-05
2.8822e-05
2.68091e-05
2.70593e-05
2.91674e-05
3.17406e-05
3.28388e-05
3.28615e-05
2.19434e-05
2.08502e-05
2.06891e-05
2.1583e-05
2.72121e-05
4.4751e-05
5.43476e-05
5.43836e-05
4.64188e-05
3.44549e-05
2.81162e-05
2.53253e-05
2.43419e-05
2.4217e-05
2.43793e-05
2.50544e-05
2.70747e-05
3.25697e-05
2.12468e-05
2.34875e-05
2.45257e-05
2.83621e-05
3.23721e-05
3.23392e-05
2.958e-05
2.60481e-05
2.45802e-05
2.44008e-05
2.52152e-05
2.64373e-05
2.67539e-05
2.67386e-05
2.66561e-05
2.67105e-05
2.72027e-05
2.88268e-05
2.18664e-05
2.32248e-05
2.67885e-05
2.91752e-05
2.8165e-05
2.42468e-05
2.225e-05
2.18779e-05
2.21417e-05
2.43164e-05
2.8098e-05
2.9542e-05
2.99488e-05
3.00668e-05
3.0121e-05
3.02337e-05
3.06594e-05
3.25434e-05
2.10936e-05
2.36286e-05
2.46885e-05
2.54109e-05
2.51651e-05
2.36017e-05
2.24749e-05
2.21597e-05
2.22049e-05
2.2715e-05
2.45586e-05
2.64324e-05
2.74317e-05
2.78415e-05
2.80445e-05
2.83382e-05
2.89632e-05
3.07842e-05
2.15042e-05
2.36607e-05
2.3477e-05
2.23895e-05
2.17909e-05
2.18155e-05
2.23342e-05
2.30746e-05
2.34816e-05
2.37676e-05
2.40146e-05
2.42521e-05
2.46559e-05
2.58755e-05
2.75091e-05
2.88455e-05
2.955e-05
3.0711e-05
2.32787e-05
2.23356e-05
2.18441e-05
2.11888e-05
2.09602e-05
2.09797e-05
2.12754e-05
2.17072e-05
2.19471e-05
2.21268e-05
2.24196e-05
2.3125e-05
2.5293e-05
3.37523e-05
5.56377e-05
6.91861e-05
7.33792e-05
7.31883e-05
2.08201e-05
2.28999e-05
2.41794e-05
2.42211e-05
2.32617e-05
2.22533e-05
2.18828e-05
2.18567e-05
2.25337e-05
2.36972e-05
2.43942e-05
2.52915e-05
2.71233e-05
3.24878e-05
3.92571e-05
4.34821e-05
4.50589e-05
4.54804e-05
2.01396e-05
2.05553e-05
2.15531e-05
2.19758e-05
2.20349e-05
2.22255e-05
2.24728e-05
2.31483e-05
2.5097e-05
2.60826e-05
2.62296e-05
2.60997e-05
2.52493e-05
2.4355e-05
2.41221e-05
2.41401e-05
2.41658e-05
2.42776e-05
2.01108e-05
2.06433e-05
2.31372e-05
2.47897e-05
2.50335e-05
2.4946e-05
2.3801e-05
2.21631e-05
2.15326e-05
2.14444e-05
2.15648e-05
2.23916e-05
2.28268e-05
2.26798e-05
2.21497e-05
2.18529e-05
2.17452e-05
2.17331e-05
2.02664e-05
2.02172e-05
2.02745e-05
2.09943e-05
2.21677e-05
2.27919e-05
2.30142e-05
2.30328e-05
2.30222e-05
2.30341e-05
2.32027e-05
2.40934e-05
2.46152e-05
2.45595e-05
2.40723e-05
2.33387e-05
2.31438e-05
2.32194e-05
2.02296e-05
2.04216e-05
2.05509e-05
2.06128e-05
2.06445e-05
2.06974e-05
2.08223e-05
2.09251e-05
2.10123e-05
2.11529e-05
2.148e-05
2.19076e-05
2.24463e-05
2.34617e-05
2.60668e-05
3.00888e-05
3.33065e-05
3.47887e-05
2.02797e-05
2.12904e-05
2.19635e-05
2.19678e-05
2.1444e-05
2.08422e-05
2.07169e-05
2.07561e-05
2.10037e-05
2.15694e-05
2.23212e-05
2.28972e-05
2.29407e-05
2.26794e-05
2.26049e-05
2.26981e-05
2.27525e-05
2.27358e-05
2.1402e-05
2.22018e-05
2.25665e-05
2.35753e-05
2.42389e-05
2.42053e-05
2.341e-05
2.24785e-05
2.22852e-05
2.23703e-05
2.27303e-05
2.28466e-05
2.2753e-05
2.23682e-05
2.21106e-05
2.20059e-05
2.19892e-05
2.19965e-05
2.05914e-05
2.12985e-05
2.17845e-05
2.22941e-05
2.32873e-05
2.45032e-05
2.50587e-05
2.46478e-05
2.41906e-05
2.41855e-05
2.41696e-05
2.40392e-05
2.40634e-05
2.44773e-05
2.64257e-05
2.79348e-05
2.81967e-05
2.80462e-05
2.05612e-05
2.13081e-05
2.12538e-05
2.08967e-05
2.08617e-05
2.11067e-05
2.24113e-05
2.62777e-05
2.96789e-05
3.05226e-05
2.90912e-05
2.5352e-05
2.35031e-05
2.28893e-05
2.28042e-05
2.28785e-05
2.30226e-05
2.30655e-05
2.22951e-05
2.4454e-05
2.3346e-05
2.12969e-05
2.11304e-05
2.23308e-05
2.40422e-05
2.37899e-05
2.25377e-05
2.19997e-05
2.16613e-05
2.12915e-05
2.09634e-05
2.07443e-05
2.06362e-05
2.06025e-05
2.06011e-05
2.06233e-05
2.64614e-05
2.43732e-05
2.33514e-05
2.10894e-05
2.09683e-05
2.28426e-05
2.72234e-05
2.79475e-05
2.66736e-05
2.37529e-05
2.22759e-05
2.14788e-05
2.10037e-05
2.07409e-05
2.06294e-05
2.06059e-05
2.06175e-05
2.07085e-05
2.38772e-05
2.45914e-05
2.31106e-05
2.18308e-05
2.17399e-05
2.20423e-05
2.32648e-05
2.47753e-05
2.50189e-05
2.45123e-05
2.32481e-05
2.23392e-05
2.1639e-05
2.11052e-05
2.0762e-05
2.0598e-05
2.05543e-05
2.0559e-05
2.02473e-05
2.0251e-05
2.01157e-05
2.00941e-05
2.00693e-05
1.99811e-05
1.97535e-05
1.93706e-05
1.84915e-05
1.69583e-05
1.61124e-05
1.59837e-05
1.60887e-05
1.65199e-05
1.7044e-05
1.74765e-05
1.78812e-05
1.83462e-05
2.00075e-05
1.39002e-05
1.36241e-05
1.42829e-05
1.43585e-05
1.31868e-05
1.18949e-05
1.15282e-05
1.15223e-05
1.17107e-05
1.24839e-05
1.36566e-05
1.47085e-05
1.56447e-05
1.64505e-05
1.70752e-05
1.75806e-05
1.79073e-05
2.05565e-05
2.21569e-05
2.40238e-05
2.47844e-05
2.465e-05
2.31073e-05
2.17153e-05
2.1527e-05
2.19477e-05
2.4304e-05
2.73322e-05
2.88566e-05
2.92918e-05
2.92962e-05
2.92247e-05
2.92509e-05
2.94506e-05
3.01222e-05
5.78576e-05
8.16148e-05
9.01464e-05
9.10031e-05
8.34137e-05
5.25532e-05
3.39182e-05
3.03206e-05
3.22057e-05
4.09592e-05
4.69873e-05
4.92485e-05
5.03243e-05
5.19832e-05
5.61486e-05
7.20256e-05
9.50309e-05
0.00010599
0.0830703
0.0982596
0.0829289
0.0732466
0.0730538
0.0771981
0.078959
0.0767978
0.072943
0.0759608
0.086567
0.0928051
0.0921534
0.0892343
0.085652
0.081697
0.0786354
0.0759895
0.0739937
0.0725251
0.0709966
0.0704189
0.0702053
0.0695552
0.0684906
0.0658316
0.0665444
0.0696003
0.070823
0.130812
0.142272
0.122131
0.104991
0.0834138
0.0734346
0.0717372
0.0733077
0.0751863
0.0884129
0.106671
0.114676
0.109192
0.0681379
0.0622877
0.0667297
0.096774
0.247816
0.138948
0.0487044
0.0346536
0.0334015
0.0352047
0.0356893
0.0348456
0.0324747
0.0292538
0.0251236
0.0212913
0.017296
0.0137612
0.0108637
0.00877716
0.0068574
0.00540724
0.00462779
0.00374692
0.00334191
0.00296467
0.00280247
0.00274414
0.00275595
0.00276081
0.00276358
0.0027643
0.00275957
0.00275559
0.00275581
0.00275379
0.00275221
0.00274522
0.00273121
0.00271964
0.00271147
0.00270196
0.0026908
0.00267908
0.00266882
0.00265336
0.00262233
0.00259539
0.00257361
0.00255113
0.00253016
0.00251004
0.00249053
0.0024719
0.00245499
0.00243877
0.00241535
0.00240379
0.0023843
0.00236527
0.00234724
0.00232565
0.00230131
0.00227494
0.00224687
0.00222035
0.00219869
0.00218293
0.00217089
0.00216123
0.00214845
0.00212557
0.00209248
0.00204723
0.00198848
0.00192075
0.00185105
0.00177931
0.00170101
0.00160948
0.00149076
0.00133252
0.00114509
0.000954453
0.000784011
0.000644901
0.000535468
0.00046085
0.00041829
0.000382805
0.00034315
0.000302104
0.000266164
0.00023645
0.000209439
0.000184847
0.000162819
0.000143406
0.000126173
0.000109647
9.18592e-05
7.22664e-05
5.29697e-05
3.72182e-05
2.63094e-05
1.90985e-05
1.43119e-05
1.09975e-05
8.5545e-06
6.65799e-06
5.15204e-06
3.96108e-06
3.03598e-06
2.33136e-06
1.80135e-06
1.40306e-06
1.10054e-06
8.66634e-07
6.82354e-07
5.351e-07
4.16512e-07
3.20972e-07
2.44329e-07
1.83478e-07
1.35725e-07
9.89232e-08
7.09615e-08
5.01809e-08
3.48665e-08
2.38731e-08
1.59761e-08
1.05378e-08
6.72608e-09
4.22419e-09
2.58397e-09
1.32647e-09
1.43639e-09
4.18358e-07
0.0690753
0.0796791
0.0717853
0.0700266
0.0839905
0.0973782
0.0961804
0.0919521
0.0811868
0.0778007
0.0728852
0.0664087
0.0596779
0.0536581
0.04858
0.0453022
0.0428691
0.0412079
0.0400265
0.039192
0.0393286
0.0398947
0.041414
0.043141
0.0467873
0.0496576
0.0537488
0.0611949
0.0637713
0.0750541
0.114036
0.145896
0.201004
0.115237
0.0860381
0.0826747
0.0776359
0.0681112
0.0680358
0.0824963
0.0790032
0.0765505
0.0639523
0.074556
0.112797
0.103267
0.0947898
0.0476058
0.027297
0.0211467
0.0186547
0.0163537
0.0142799
0.0120701
0.010565
0.00862563
0.00734737
0.00622566
0.00535377
0.00486717
0.00453443
0.00437653
0.00429909
0.00427068
0.00426389
0.00426581
0.00427131
0.00427137
0.00426088
0.00422661
0.00418209
0.00414894
0.00411652
0.00407361
0.00402509
0.00397957
0.00393699
0.00389113
0.00383875
0.00377924
0.00371669
0.00364828
0.0035688
0.00348237
0.00339748
0.00331784
0.00323676
0.00315844
0.00309587
0.0030461
0.00299808
0.00296115
0.00292853
0.00288991
0.00285613
0.00282339
0.00279071
0.00276772
0.00273243
0.00271434
0.00269196
0.0026772
0.00266415
0.00264951
0.002633
0.00261169
0.00258826
0.00255654
0.00251018
0.00244874
0.00238369
0.00233848
0.00231543
0.00231612
0.00235186
0.00241488
0.00245068
0.00246043
0.00245516
0.00241331
0.0023262
0.0022592
0.00222458
0.00221729
0.00221975
0.00222017
0.00219709
0.00208206
0.00186472
0.00166752
0.00149016
0.00132892
0.00117971
0.00103954
0.000908099
0.000786549
0.000675666
0.000575276
0.000485353
0.000407002
0.000341453
0.000288531
0.000246919
0.000215297
0.000191839
0.000173381
0.0001573
0.000142934
0.000129899
0.000117579
0.000105219
9.24279e-05
7.94736e-05
6.69449e-05
5.54478e-05
4.54016e-05
3.69604e-05
3.00497e-05
2.44598e-05
1.99395e-05
1.62564e-05
1.32263e-05
1.07108e-05
8.61216e-06
6.85635e-06
5.39171e-06
4.17545e-06
3.18046e-06
2.37889e-06
1.75226e-06
1.26882e-06
9.05926e-07
6.32474e-07
4.3593e-07
2.9027e-07
1.92966e-07
1.1878e-07
7.89127e-08
3.7057e-08
5.91589e-08
0.0676442
0.0636847
0.0775385
0.110552
0.113739
0.109035
0.0975819
0.0768796
0.0624628
0.0499495
0.0415982
0.0370758
0.0344678
0.0329902
0.031928
0.0312153
0.0304713
0.02981
0.0291859
0.0285231
0.0281594
0.0279612
0.0280711
0.0284446
0.0292916
0.0311186
0.0332268
0.0377828
0.045192
0.051505
0.0614496
0.0826847
0.141539
0.138079
0.129809
0.123877
0.106368
0.0764493
0.0615911
0.0612635
0.0613103
0.0686757
0.0789531
0.0829735
0.0865088
0.0440535
0.0247051
0.0155183
0.0113379
0.00944775
0.00816744
0.00722318
0.00648612
0.00591808
0.00559086
0.00524419
0.00509701
0.00501711
0.0049887
0.0049885
0.00505056
0.00512436
0.00515417
0.00516406
0.00515824
0.00509492
0.00493364
0.0048122
0.00474278
0.00470441
0.00466407
0.00461151
0.00456984
0.00453982
0.0045057
0.0044645
0.00442367
0.00436848
0.00430139
0.00422996
0.00415717
0.00406924
0.00394703
0.00379845
0.00364244
0.00349344
0.0033223
0.00313576
0.00297905
0.00283557
0.00267418
0.002518
0.00244422
0.00237812
0.00231908
0.00229045
0.00227307
0.00227117
0.00227489
0.00229063
0.0023191
0.00235965
0.00240422
0.00245169
0.00250862
0.00255786
0.00259658
0.00262366
0.00263534
0.00262981
0.00259239
0.00247591
0.00231838
0.00217681
0.00211408
0.00211189
0.00214879
0.00216261
0.00214907
0.00208373
0.00184152
0.00151557
0.00135016
0.00131429
0.00131981
0.00134506
0.0013855
0.00142469
0.00143996
0.00143716
0.00140594
0.00129348
0.00113129
0.000968216
0.000815613
0.000684761
0.000582757
0.00050425
0.000439077
0.000379579
0.000322708
0.000269982
0.000224755
0.000188582
0.000161002
0.000141612
0.000129694
0.000122299
0.000116155
0.000109861
0.000103251
9.65137e-05
8.93526e-05
8.14999e-05
7.29146e-05
6.38244e-05
5.46663e-05
4.59614e-05
3.81607e-05
3.15118e-05
2.60477e-05
2.16542e-05
1.8138e-05
1.52931e-05
1.29348e-05
1.09295e-05
9.18326e-06
7.64719e-06
6.28421e-06
5.08587e-06
4.036e-06
3.14684e-06
2.39693e-06
1.79419e-06
1.30613e-06
9.30076e-07
6.46069e-07
4.22557e-07
2.94638e-07
1.47412e-07
0.0523959
0.0756715
0.123546
0.11235
0.0867787
0.0613118
0.0428055
0.0343539
0.0309327
0.0298547
0.0297872
0.0298495
0.0298615
0.0298188
0.0296531
0.0292152
0.0285316
0.0276452
0.0266319
0.0257036
0.0248067
0.0241761
0.0236546
0.0231937
0.0232306
0.0235455
0.0242926
0.0258086
0.0292876
0.0335222
0.0397726
0.0467451
0.0604974
0.0891431
0.10353
0.102375
0.0913252
0.0629368
0.0595005
0.0619734
0.0693144
0.0699983
0.0704025
0.0531414
0.0278273
0.0155163
0.0102595
0.00789936
0.00677574
0.00620726
0.00570334
0.00541274
0.00524485
0.0051832
0.00517275
0.00523906
0.00541989
0.00576063
0.00615094
0.00633356
0.00641274
0.00642739
0.00638076
0.00622464
0.00599879
0.00579725
0.0056569
0.00554521
0.00542722
0.0053322
0.0053136
0.00532549
0.00535448
0.00537455
0.00539098
0.00541824
0.00544161
0.00544998
0.00544133
0.00541963
0.00537378
0.00531573
0.0051877
0.00500113
0.00476096
0.00450224
0.00419043
0.00377644
0.00337092
0.00303897
0.00270248
0.00234669
0.00210382
0.00191245
0.00168749
0.00153958
0.00138938
0.00126342
0.00116851
0.00110582
0.00107549
0.00108944
0.00116193
0.00130541
0.00150918
0.00175205
0.00199965
0.00220808
0.00238845
0.00253805
0.00263776
0.00267793
0.00267152
0.00259147
0.00240024
0.00228089
0.00226103
0.00230072
0.00248303
0.00264245
0.00269877
0.00270028
0.00263525
0.00244382
0.00235589
0.00232208
0.0023022
0.00228653
0.00228534
0.00229316
0.00229509
0.00228542
0.00223765
0.00213677
0.00202514
0.00189336
0.00173453
0.00156059
0.00139017
0.00122854
0.00106639
0.000893591
0.000709055
0.000521875
0.000350657
0.000217172
0.000131238
8.56866e-05
6.39969e-05
5.37078e-05
4.90068e-05
4.70193e-05
4.62295e-05
4.57462e-05
4.51539e-05
4.41675e-05
4.21884e-05
3.70185e-05
2.93868e-05
2.26234e-05
1.72141e-05
1.31657e-05
1.03119e-05
8.40475e-06
7.14344e-06
6.23802e-06
5.50792e-06
4.85213e-06
4.22974e-06
3.63017e-06
3.06538e-06
2.53875e-06
2.06233e-06
1.62947e-06
1.26757e-06
9.5505e-07
7.2422e-07
5.15035e-07
3.86139e-07
2.51854e-07
0.025946
0.0734935
0.0505207
0.0319313
0.0248333
0.0249228
0.0254901
0.0266581
0.0278292
0.0288404
0.0295769
0.0300182
0.0301048
0.0300876
0.0299257
0.0294228
0.0284737
0.0274122
0.0260953
0.0246958
0.0234454
0.0225316
0.0217925
0.0212129
0.0207157
0.0204839
0.0206041
0.0210223
0.0220676
0.0241671
0.0277495
0.0336073
0.0394312
0.0526373
0.0631258
0.0631256
0.0571313
0.0540405
0.060501
0.0654129
0.0660823
0.0586607
0.037142
0.0196861
0.0117115
0.00820716
0.00673856
0.00608566
0.00576329
0.00551161
0.00532833
0.00526028
0.00524551
0.00531558
0.00553713
0.00591009
0.00645473
0.00685581
0.0070272
0.00711274
0.00714968
0.00715819
0.00715286
0.00713788
0.00712463
0.0071267
0.00717498
0.00728015
0.00743245
0.00762985
0.00790446
0.00821011
0.00848841
0.00866692
0.00875508
0.00878625
0.00876824
0.00875434
0.00866514
0.0086212
0.00843495
0.00834283
0.0081457
0.00793771
0.00773752
0.0074695
0.00709792
0.00650366
0.00585064
0.00523521
0.0045237
0.00367401
0.00296603
0.00249136
0.0020277
0.00169305
0.00142067
0.00120035
0.00101905
0.000868383
0.000745044
0.000648004
0.000576564
0.000533654
0.000536953
0.000607742
0.000792845
0.00111477
0.00148563
0.00181881
0.00213953
0.00242467
0.00260377
0.00265721
0.00263881
0.00252851
0.00243871
0.00242196
0.00244949
0.00260763
0.00274842
0.002794
0.00279774
0.00271319
0.00254591
0.00245265
0.00238919
0.00235224
0.00232329
0.00230014
0.00229872
0.0023251
0.00235292
0.00235701
0.00234654
0.00228675
0.00209687
0.00184806
0.00160699
0.00139011
0.00120473
0.00104314
0.000893272
0.000748404
0.000608978
0.000483253
0.000383268
0.000311009
0.000257085
0.000207347
0.000154442
0.000107187
8.17611e-05
7.7929e-05
7.94234e-05
8.19934e-05
8.22644e-05
8.05643e-05
7.21507e-05
5.69924e-05
4.25956e-05
2.92918e-05
1.80468e-05
1.00539e-05
5.57122e-06
3.75184e-06
3.24887e-06
3.14986e-06
3.04848e-06
2.7835e-06
2.31716e-06
1.87593e-06
1.48102e-06
1.16085e-06
9.06136e-07
6.9811e-07
5.40183e-07
4.05888e-07
3.09846e-07
2.25067e-07
0.0363521
0.0282376
0.0193981
0.0191891
0.0208421
0.0245063
0.0277509
0.0296365
0.0305625
0.0314573
0.031815
0.0325621
0.0328912
0.0335078
0.0338829
0.0338113
0.0334396
0.0324278
0.0306121
0.028602
0.0265249
0.0246336
0.0230661
0.0218782
0.0209382
0.02032
0.0198512
0.0197775
0.019953
0.020621
0.0222486
0.0258261
0.0308574
0.0368166
0.0460055
0.0461889
0.0457629
0.0572437
0.0616442
0.0620038
0.0536283
0.0285372
0.0159637
0.00994149
0.00741045
0.00638567
0.00597756
0.00579788
0.00565838
0.00551959
0.00546485
0.00549893
0.00566318
0.00588219
0.00624212
0.00663752
0.00710411
0.007444
0.00766125
0.0077926
0.00796884
0.00824843
0.00866242
0.00922454
0.00996538
0.0109828
0.0122586
0.0137686
0.0154357
0.0170919
0.0185893
0.0195864
0.0200295
0.0201245
0.0195617
0.0187891
0.0175111
0.0167888
0.0156541
0.0152073
0.0137907
0.0130618
0.0121559
0.0113664
0.0107046
0.00986948
0.00908877
0.00838672
0.00786865
0.00753632
0.00716655
0.00666396
0.00592098
0.00500769
0.00409994
0.003267
0.00259852
0.00209794
0.0016821
0.00133337
0.00104347
0.000807063
0.000624293
0.00049701
0.000416675
0.000376296
0.000368672
0.000416409
0.000603345
0.000961425
0.00130997
0.00170336
0.0021242
0.00243802
0.00257191
0.00257905
0.00253599
0.00252806
0.00254276
0.00263084
0.00281225
0.00290577
0.00293193
0.00291992
0.00279367
0.00262132
0.00252882
0.00247502
0.00244212
0.00241937
0.00238493
0.00229223
0.00216385
0.00209274
0.0020546
0.00201885
0.00195142
0.00180288
0.00159649
0.00137959
0.00118101
0.00101155
0.000868532
0.000743582
0.000628918
0.000522161
0.000428195
0.000352867
0.000296376
0.000252053
0.000211736
0.000173228
0.000140741
0.000119265
0.000109712
0.00010738
0.000107123
0.000106864
0.000105879
0.000102516
9.14208e-05
7.25428e-05
5.56095e-05
4.18876e-05
3.1391e-05
2.35862e-05
1.79098e-05
1.37283e-05
1.04998e-05
7.99212e-06
6.0728e-06
4.60761e-06
3.48812e-06
2.62342e-06
1.95849e-06
1.43988e-06
1.04834e-06
7.42433e-07
5.27277e-07
3.48055e-07
0.0170457
0.019769
0.0162175
0.0189934
0.0255932
0.0284468
0.029799
0.0307602
0.0314599
0.0326228
0.034077
0.0371421
0.0394802
0.0440812
0.0478663
0.0503635
0.0524342
0.0515863
0.0490147
0.0444666
0.0389561
0.0332826
0.0285298
0.0250602
0.0226966
0.0211708
0.0202401
0.019823
0.0197939
0.0199681
0.0206472
0.0227838
0.0257433
0.0305664
0.0364216
0.0408237
0.0523745
0.0589925
0.0587442
0.0503728
0.0261804
0.0142612
0.00916008
0.00706529
0.00628932
0.00601722
0.00591192
0.00583369
0.0057898
0.00578624
0.00588801
0.00595557
0.00607707
0.00625901
0.00656168
0.00694761
0.00737817
0.00779645
0.00823469
0.00868215
0.00925218
0.0102007
0.0117443
0.0140068
0.0171094
0.0211759
0.0261733
0.0317729
0.0373919
0.0422832
0.0451451
0.046374
0.0465813
0.0443822
0.0410616
0.0368341
0.0323092
0.02895
0.0246713
0.0219325
0.0188941
0.0165939
0.0147234
0.0130656
0.0118003
0.010662
0.00968151
0.00882794
0.00819409
0.00787468
0.00766374
0.00747322
0.00723903
0.00691356
0.00647725
0.00592184
0.00522929
0.00447123
0.00374455
0.00304055
0.00237857
0.00181588
0.00131311
0.000905913
0.000612089
0.000430455
0.000341871
0.000312852
0.000319945
0.00041539
0.000696363
0.0010418
0.00146789
0.00193302
0.00228661
0.00245377
0.00248754
0.00249003
0.00251875
0.00262224
0.0028377
0.00297066
0.00300448
0.00298695
0.00284182
0.00262807
0.00254301
0.00252402
0.00252253
0.00252002
0.00251009
0.00247604
0.00237989
0.0022922
0.00224093
0.0022062
0.00215189
0.00202978
0.00174606
0.00141714
0.00111865
0.000884158
0.000716644
0.000599452
0.000510726
0.00043589
0.000369652
0.000313944
0.000271158
0.000240583
0.000216984
0.00019114
0.000160077
0.000130337
0.000109815
0.000101021
9.99306e-05
0.000100762
0.000101681
0.000101579
0.000100577
9.68431e-05
8.51038e-05
6.86541e-05
5.37547e-05
4.09412e-05
3.04899e-05
2.2323e-05
1.60897e-05
1.14524e-05
8.12018e-06
5.79071e-06
4.18047e-06
3.0583e-06
2.25844e-06
1.6708e-06
1.23122e-06
8.95406e-07
6.44611e-07
4.51345e-07
0.0158209
0.0206987
0.0154782
0.0239167
0.0275373
0.0292406
0.0303
0.0313505
0.0331972
0.0363934
0.0410966
0.0485977
0.0571966
0.0694426
0.0811332
0.0923277
0.101576
0.100841
0.0964045
0.0858316
0.0701083
0.0549555
0.0425175
0.0335449
0.0276392
0.0238354
0.0215503
0.0203378
0.019985
0.020057
0.0205889
0.0224372
0.0251475
0.0303648
0.0358899
0.0461162
0.056177
0.057065
0.0493569
0.0259268
0.0141337
0.00895575
0.00693718
0.00622712
0.0060166
0.00597022
0.00601515
0.00607621
0.00611008
0.0061242
0.00614374
0.00616139
0.00622464
0.00637833
0.00667905
0.00711394
0.00768551
0.00832348
0.00901227
0.00990439
0.011364
0.013757
0.0177264
0.0238172
0.0324955
0.04378
0.0564012
0.0691311
0.0800914
0.0870185
0.0901654
0.0909964
0.0869895
0.0775063
0.0692862
0.0554389
0.0456998
0.0360267
0.0294881
0.0239126
0.0203608
0.0175284
0.0153364
0.0134957
0.0120618
0.0108497
0.0098107
0.00890023
0.0081856
0.00770798
0.00745184
0.00734727
0.00726349
0.00712149
0.00691735
0.00667115
0.0063985
0.00608873
0.00575573
0.00537192
0.00485282
0.0040943
0.0031543
0.00219577
0.00143726
0.000877774
0.000532784
0.000359431
0.000299386
0.000294538
0.000330302
0.000491345
0.000894109
0.00139797
0.00186125
0.00218891
0.00235266
0.0024036
0.00242902
0.00250166
0.00271678
0.00285997
0.00288421
0.00285046
0.00266329
0.00246458
0.00240965
0.00241846
0.00248718
0.00258436
0.00261012
0.00260173
0.00252941
0.00234122
0.00222039
0.00214843
0.00209728
0.00204528
0.0019507
0.0017401
0.00143669
0.0011042
0.000801307
0.000568315
0.000413421
0.000319901
0.000265256
0.00023484
0.000220259
0.000207861
0.000194889
0.000183617
0.000167838
0.000141878
0.000111544
8.85594e-05
7.90837e-05
7.90827e-05
8.38792e-05
9.02224e-05
9.21669e-05
9.21255e-05
9.09158e-05
8.64762e-05
7.4051e-05
5.93367e-05
4.58473e-05
3.41614e-05
2.46034e-05
1.71709e-05
1.16839e-05
7.8388e-06
5.25602e-06
3.56419e-06
2.46149e-06
1.73276e-06
1.2383e-06
8.91157e-07
6.39606e-07
4.54282e-07
0.0167105
0.0213322
0.015325
0.0262023
0.0283719
0.0296429
0.0308533
0.0330672
0.0368042
0.0430879
0.0529943
0.0672152
0.0878987
0.111765
0.139384
0.158072
0.168251
0.171144
0.167508
0.157715
0.138176
0.108622
0.0787163
0.0546107
0.0383769
0.0291661
0.0241319
0.0215796
0.0206607
0.0204749
0.0208836
0.0228481
0.0258006
0.0315206
0.0402414
0.0532429
0.0552115
0.0500405
0.0277983
0.0147692
0.00918548
0.00692305
0.00613423
0.00591794
0.00588917
0.00605081
0.00621536
0.00623495
0.00624237
0.00625577
0.00626556
0.00628639
0.00635718
0.00652162
0.00683299
0.00730097
0.00792179
0.00872263
0.009825
0.0115784
0.0147711
0.0208827
0.0307483
0.043878
0.0607948
0.0823546
0.106075
0.127842
0.144839
0.152984
0.156013
0.155677
0.142009
0.126977
0.107252
0.0829803
0.0628299
0.0428144
0.0326339
0.0248177
0.0206217
0.0176407
0.015298
0.0133617
0.0118373
0.0106259
0.00959848
0.00868664
0.00782356
0.0069491
0.00643275
0.00621326
0.00626962
0.00644084
0.00657676
0.00659411
0.00648788
0.00631262
0.0061348
0.00597936
0.00583746
0.00564993
0.00531022
0.00458264
0.00334705
0.00208278
0.00119642
0.000662139
0.000398244
0.000302153
0.00028703
0.000305164
0.000415083
0.000822059
0.00140147
0.00183839
0.00209701
0.00221555
0.00225983
0.00230415
0.00243995
0.00264507
0.00271354
0.00270402
0.00263373
0.0024469
0.00230638
0.00227053
0.00230312
0.00247779
0.00264739
0.00268993
0.00267109
0.00250289
0.00223595
0.00215151
0.00209973
0.00197855
0.00171506
0.00146528
0.00124788
0.00102411
0.000791984
0.000584729
0.00042328
0.000311641
0.000242715
0.000204052
0.000185928
0.000179634
0.000175074
0.00016925
0.000158894
0.000141689
0.000114942
8.2542e-05
5.82579e-05
5.19641e-05
5.84473e-05
7.39197e-05
8.17583e-05
8.45703e-05
8.49714e-05
8.44015e-05
8.18931e-05
7.41314e-05
6.1344e-05
4.82743e-05
3.61334e-05
2.57958e-05
1.76338e-05
1.16201e-05
7.45928e-06
4.73302e-06
3.01753e-06
1.95997e-06
1.30375e-06
8.88539e-07
6.14088e-07
4.34025e-07
0.0170257
0.0219797
0.0168491
0.0276307
0.0288578
0.0301373
0.0318919
0.0346407
0.0393967
0.0475802
0.0607996
0.0809518
0.1085
0.139731
0.167005
0.18204
0.189102
0.193556
0.201786
0.19296
0.17356
0.148651
0.121254
0.0917176
0.0639848
0.0436162
0.031865
0.025671
0.0227305
0.021596
0.0216102
0.0240295
0.0280133
0.0373645
0.0500543
0.0530771
0.0504208
0.032136
0.0160656
0.00973249
0.0070664
0.00605845
0.0057473
0.00568771
0.00575494
0.00604788
0.00634634
0.00645034
0.00645895
0.00646125
0.00650909
0.00658422
0.00670729
0.00690774
0.00724313
0.00774868
0.00854406
0.00985667
0.0121339
0.0158676
0.0216049
0.0303287
0.0441469
0.0672828
0.101353
0.139527
0.175573
0.2033
0.216943
0.223334
0.224975
0.218156
0.19916
0.177651
0.144729
0.110596
0.0775012
0.0501426
0.0336429
0.024865
0.0197255
0.0162987
0.0138346
0.0118346
0.0102892
0.00910162
0.00823452
0.00757085
0.00690541
0.00611218
0.00533938
0.00486965
0.00475299
0.0048064
0.00505708
0.0054316
0.00577703
0.00594636
0.00598449
0.00595956
0.00590875
0.0058539
0.00577849
0.00564473
0.00529793
0.00428852
0.00266898
0.00146236
0.000763488
0.000429334
0.000308257
0.000286627
0.000300789
0.000397659
0.00079634
0.00138274
0.00176255
0.00194729
0.00201317
0.002038
0.00208017
0.00223441
0.00249452
0.00261381
0.00263087
0.00259204
0.00238539
0.0021834
0.00212519
0.00214996
0.00234995
0.00260644
0.00268679
0.00267888
0.00255821
0.00237555
0.00232597
0.00224839
0.00203564
0.00168691
0.00131579
0.000974934
0.000710355
0.000525009
0.000393879
0.000297213
0.000228037
0.000183726
0.0001604
0.000151276
0.000147083
0.000143861
0.000140269
0.000133037
0.00011787
9.74277e-05
7.8568e-05
6.73092e-05
6.61824e-05
7.27779e-05
7.85714e-05
7.9865e-05
7.97496e-05
7.88075e-05
7.74181e-05
7.54064e-05
7.12964e-05
6.15175e-05
4.87853e-05
3.63918e-05
2.56712e-05
1.7223e-05
1.10663e-05
6.87318e-06
4.17665e-06
2.52473e-06
1.54474e-06
9.72988e-07
6.28973e-07
4.2081e-07
0.0173992
0.0228115
0.0216523
0.0281438
0.0292882
0.0307042
0.0322968
0.0351723
0.0401873
0.0489245
0.0631826
0.0849731
0.114406
0.146857
0.172958
0.185097
0.190343
0.191895
0.191158
0.182323
0.16465
0.143231
0.117445
0.0887814
0.0623925
0.0432882
0.0318583
0.0257778
0.0231005
0.0223521
0.0231244
0.0270846
0.0357357
0.0474034
0.0508133
0.0501853
0.0373057
0.0181769
0.0105429
0.00735645
0.00604908
0.00557998
0.00545448
0.00544663
0.00559883
0.00596127
0.00631614
0.00653054
0.00672931
0.00680845
0.0068494
0.00693919
0.00705705
0.00725161
0.00755452
0.00807786
0.00902572
0.0106582
0.0134824
0.0181353
0.0256431
0.0395718
0.0658797
0.104304
0.149818
0.195654
0.230854
0.249161
0.257911
0.260943
0.26061
0.247585
0.229818
0.202941
0.16486
0.121844
0.0815827
0.0510232
0.0318154
0.0204287
0.0142013
0.0113509
0.00993774
0.00879136
0.00781697
0.00705103
0.00635441
0.00577974
0.00532778
0.00505324
0.00471612
0.00435611
0.00420957
0.00416024
0.0041631
0.004212
0.00435187
0.00461928
0.00493674
0.00524113
0.00546642
0.00563759
0.00573539
0.00574279
0.00567046
0.00546444
0.00476024
0.00300243
0.00158598
0.000800027
0.000438791
0.000312476
0.000290341
0.00030325
0.00038661
0.000722657
0.00125009
0.00157392
0.0016991
0.00172242
0.00172666
0.00174448
0.00186129
0.00214334
0.00228063
0.00229649
0.0022348
0.00197558
0.00180454
0.00177725
0.0018247
0.00210204
0.00242203
0.00254114
0.00254814
0.00250642
0.00234154
0.00219647
0.00203057
0.0017865
0.00146771
0.00111621
0.000791254
0.000548367
0.000398238
0.000298902
0.000225917
0.00017724
0.000149852
0.000136908
0.000130866
0.000126852
0.000122597
0.000118414
0.000115004
0.000111095
0.000103591
9.2469e-05
8.2567e-05
7.90861e-05
7.92271e-05
7.83935e-05
7.56505e-05
7.33926e-05
7.20605e-05
7.11319e-05
6.97652e-05
6.70265e-05
6.00619e-05
4.74721e-05
3.49658e-05
2.4247e-05
1.59385e-05
1.00012e-05
6.04044e-06
3.54941e-06
2.05547e-06
1.19733e-06
7.12089e-07
4.41413e-07
0.017676
0.0236724
0.0236292
0.0285313
0.0294546
0.030898
0.0322922
0.0341982
0.0373868
0.0431088
0.0525233
0.0671268
0.0879409
0.113431
0.137773
0.152291
0.159552
0.16252
0.162761
0.154121
0.139562
0.122934
0.0991345
0.0746771
0.0529244
0.0372129
0.0288087
0.0250681
0.023905
0.0239973
0.0271977
0.0367338
0.0464896
0.0499332
0.0492581
0.0413859
0.0208569
0.0116377
0.00777107
0.00611402
0.00544127
0.00520441
0.00514637
0.00515802
0.00534468
0.00572711
0.00614324
0.00647292
0.00676154
0.00702359
0.00711157
0.00711297
0.00724799
0.00752258
0.00796555
0.00874947
0.0103276
0.0130249
0.0169702
0.0230896
0.0335881
0.052176
0.0838633
0.130049
0.182189
0.229449
0.259008
0.272902
0.27949
0.281752
0.28103
0.269729
0.251262
0.220318
0.175678
0.125389
0.0772188
0.0383721
0.0188221
0.0103269
0.00739104
0.00676536
0.00669385
0.00679366
0.00665375
0.00622022
0.00564257
0.00509898
0.00466423
0.00429387
0.00403282
0.00399031
0.0039299
0.00387617
0.0038482
0.00383014
0.00382465
0.00384896
0.00390852
0.00403232
0.00433237
0.00474714
0.00518763
0.00550359
0.00562159
0.0055951
0.00541254
0.00478452
0.00298462
0.00153709
0.000765639
0.000426543
0.000314466
0.000296356
0.000307061
0.000364094
0.000566583
0.000955453
0.00123234
0.00132907
0.00133087
0.00130163
0.00130154
0.00135655
0.0015697
0.00170764
0.00172525
0.00166945
0.00145068
0.00133823
0.00133528
0.00141766
0.00173727
0.00202049
0.00215074
0.00216849
0.00212187
0.00190768
0.0017374
0.00158744
0.00136704
0.00109636
0.000825776
0.000596516
0.000427725
0.000309053
0.000224985
0.000171126
0.000143208
0.000130268