/*--------------------------------*- C++ -*----------------------------------*\
  =========                 |
  \\      /  F ield         | OpenFOAM: The Open Source CFD Toolbox
   \\    /   O peration     | Website:  https://openfoam.org
    \\  /    A nd           | Version:  9
     \\/     M anipulation  |
\*---------------------------------------------------------------------------*/
FoamFile
{
    format      ascii;
    class       volScalarField;
    location    "0.037";
    object      nut;
}
// * * * * * * * * * * * * * * * * * * * * * * * * * * * * * * * * * * * * * //

dimensions      [0 2 -1 0 0 0 0];

internalField   nonuniform List<scalar> 
12225
(
0
0
0
0
0
0
0
0
0
0
0
0
0
0
0
0
0
4.21974e-09
0
0
0
0
0
0
0
0
0
0
0
0
0
0
0
0
6.09507e-11
6.12812e-09
0
0
0
0
0
0
0
0
0
0
0
0
0
0
0
0
1.31512e-09
6.82666e-09
5.35086e-09
0
0
0
0
0
0
0
0
0
0
0
0
1.33387e-09
3.92379e-09
4.76665e-09
3.90084e-09
5.12628e-09
0
0
0
0
0
0
0
0
0
5.82325e-08
2.71795e-07
6.514e-07
9.1393e-07
7.6379e-07
4.75411e-07
2.31758e-07
8.04451e-08
6.03725e-09
0
0
0
0
0
0
6.46698e-07
7.43225e-07
6.48007e-07
2.27771e-07
9.13282e-08
4.45965e-07
5.42413e-07
4.67799e-07
3.42321e-07
2.20848e-07
1.2001e-07
5.81061e-08
0
0
0
0
0
0
1.20856e-06
1.44451e-06
1.16996e-06
6.55254e-07
1.57944e-07
6.36309e-07
4.96248e-07
4.10766e-07
3.1241e-07
1.90099e-07
7.12959e-08
0
1.35244e-07
2.53608e-07
0
0
0
0
6.88114e-07
1.32642e-06
1.51953e-06
1.29302e-06
7.34972e-07
5.30317e-07
3.05692e-07
1.78195e-07
9.33247e-08
2.67015e-08
0
0
5.30732e-07
5.34618e-07
2.22757e-07
0
1.47599e-07
2.50437e-07
4.6531e-07
6.66496e-07
7.06559e-07
4.95619e-07
1.9049e-07
8.55132e-08
0
0
0
0
0
0
2.03237e-07
4.34088e-07
4.74511e-07
5.3866e-07
7.2993e-07
4.8597e-07
2.1538e-07
1.16964e-07
0
0
2.73615e-07
2.208e-07
0
0
0
0
0
0
4.17055e-08
2.97369e-07
5.20549e-07
5.25145e-07
3.7296e-07
1.19129e-07
0
0
0
4.92483e-08
2.33005e-07
1.57786e-07
0
0
0
0
0
0
0
2.05195e-07
4.18422e-07
2.9933e-07
8.79295e-08
0
0
0
0
3.91003e-08
1.25108e-08
0
0
0
0
0
0
0
3.6233e-07
2.16736e-07
3.53667e-07
3.89547e-07
2.43753e-08
0
0
0
0
0
0
0
0
0
0
0
0
0
5.9719e-07
5.85297e-07
4.37608e-07
9.51956e-08
0
0
0
0
0
0
0
0
0
0
0
0
0
0
0
2.01932e-07
2.69967e-07
0
0
1.64637e-07
3.18085e-07
1.47452e-07
0
0
0
0
0
0
0
0
0
0
0
3.4421e-07
0
0
0
9.28388e-08
3.13374e-07
1.06919e-07
2.90336e-07
3.17445e-07
0
0
0
0
0
0
0
0
2.24553e-07
3.15495e-07
0
0
0
4.51287e-07
8.65165e-07
1.01875e-06
2.48094e-08
0
0
1.57604e-07
3.64418e-07
1.76002e-07
0
0
0
0
0
6.10542e-08
1.09784e-07
2.02155e-07
0
0
3.20784e-07
4.02711e-08
0
0
0
3.13449e-07
6.73111e-07
3.08903e-07
0
0
0
1.63586e-07
0
0
0
0
0
8.20211e-07
2.78674e-07
0
0
0
0
2.95817e-07
5.41976e-07
0
0
2.17454e-07
7.21079e-07
9.35935e-07
0
2.22701e-07
8.40839e-08
0
4.99788e-07
1.33928e-06
3.36177e-07
0
0
0
0
1.3013e-07
2.01875e-07
1.37305e-07
0
0
3.23797e-07
7.20181e-07
4.85892e-07
1.84273e-07
0
0
4.24257e-07
9.14374e-07
5.33647e-07
2.64552e-08
0
0
1.27134e-07
2.38586e-07
2.74831e-07
2.56616e-07
2.59571e-07
3.06774e-07
3.19968e-07
3.25151e-07
1.41676e-06
7.39748e-07
0
0
0
0
8.31951e-07
4.58116e-07
2.10847e-07
7.50636e-07
9.41223e-07
6.18372e-08
0
0
1.20089e-07
2.87693e-07
3.64517e-07
3.65693e-07
8.99869e-07
0
0
0
0
0
0
0
0
7.00431e-07
9.21269e-07
0
0
0
0
0
0
0
0
0
0
0
0
0
4.58889e-07
1.20488e-06
1.13608e-06
1.31233e-07
0
0
0
0
0
0
0
0
1.11421e-06
1.89415e-06
9.71617e-07
0
0
1.0447e-07
9.07639e-07
1.55198e-06
1.49651e-06
6.28133e-07
0
0
0
0
0
0
0
0
0
2.29225e-06
1.67171e-06
8.13539e-07
0
0
7.10237e-07
1.31143e-06
1.12129e-06
3.88387e-07
0
0
0
0
0
0
0
0
0
1.9681e-09
0
0
0
3.78063e-09
1.47754e-08
1.16479e-08
4.97014e-09
7.83442e-10
0
0
0
0
1.29227e-10
8.65177e-10
1.2808e-09
1.24601e-09
0
0
0
0
0
0
0
0
0
0
0
0
0
0
0
0
0
0
0
0
0
0
0
0
0
0
0
0
0
0
0
0
0
0
0
0
0
0
0
0
0
0
0
0
0
0
0
0
0
0
0
0
0
0
0
9.29309e-06
2.50388e-05
1.82551e-06
0
0
0
0
0
1.3521e-06
2.24546e-06
1.70629e-06
7.05946e-07
0
0
0
0
0
0
0
9.49281e-08
2.44323e-07
2.60921e-07
1.18498e-07
0
0
4.85003e-07
9.22735e-07
5.95318e-07
5.93477e-06
2.08901e-05
3.37098e-05
3.29736e-05
1.99211e-05
5.04995e-06
0
0
0
0
4.52813e-06
9.39447e-06
8.51049e-06
0
0
0
1.68809e-06
2.61676e-05
1.32019e-05
3.59671e-06
7.54711e-07
7.13886e-08
1.01426e-07
2.7101e-07
3.98439e-07
4.62021e-07
4.74113e-07
4.49018e-07
4.07521e-07
3.52706e-07
2.95325e-07
2.41211e-07
1.95365e-07
1.5254e-07
1.17108e-07
9.12225e-08
6.65102e-08
4.76653e-08
2.99128e-08
1.37052e-08
0
0
0
0
0
0
0
0
0
0
0
0
0
0
0
0
0
0
0
0
0
0
0
0
0
0
0
0
0
0
0
0
0
0
0
0
0
0
0
0
0
0
0
0
0
0
0
0
0
0
0
0
0
0
0
0
0
0
0
0
0
7.47124e-10
1.62382e-09
1.69736e-09
1.12313e-09
1.7759e-10
0
0
0
0
0
0
0
0
0
0
0
0
0
0
0
0
0
0
0
0
0
0
0
0
0
0
0
0
0
0
0
0
0
0
0
0
0
0
0
0
0
0
0
0
0
0
1.98923e-06
0
0
0
0
0
0
0
2.37115e-06
3.51708e-06
3.19222e-06
2.00127e-06
7.6385e-07
0
0
0
0
0
4.77115e-08
3.00873e-07
4.77276e-07
5.24003e-07
3.65472e-07
5.40418e-08
0
7.83948e-07
3.01797e-07
0
0
4.024e-06
9.69784e-06
2.13919e-05
2.67731e-05
2.35448e-05
0
0
0
2.99186e-06
1.07453e-05
4.83362e-06
0
0
0
0
0
0
2.98729e-06
2.83207e-06
9.76638e-07
2.97585e-07
2.77208e-07
3.64746e-07
4.04015e-07
4.11198e-07
3.78405e-07
3.42699e-07
3.01531e-07
2.61966e-07
2.29781e-07
2.00615e-07
1.75466e-07
1.52412e-07
1.30809e-07
1.09989e-07
8.936e-08
6.82511e-08
4.60436e-08
2.25026e-08
0
0
0
0
0
0
0
0
0
0
0
0
0
0
0
0
0
0
0
0
0
0
0
0
0
0
0
0
0
0
0
0
0
0
0
0
0
0
0
0
0
0
0
0
0
0
0
0
0
0
0
0
0
0
0
0
0
0
0
0
0
3.10893e-10
2.09882e-09
2.58723e-09
1.9928e-09
7.12696e-10
0
0
0
0
0
0
0
0
0
0
0
0
0
0
0
0
0
0
0
0
0
0
0
0
0
0
0
0
0
0
0
0
0
0
0
0
0
0
0
0
0
0
0
0
0
1.0989e-05
5.57447e-06
4.96795e-06
5.80659e-06
5.05641e-06
3.63074e-06
2.32955e-06
1.70469e-06
1.96905e-06
2.53181e-06
2.80214e-06
2.48447e-06
1.40258e-06
0
0
0
0
0
4.3652e-07
2.43587e-06
4.13648e-06
5.28709e-06
5.56613e-06
4.56349e-06
2.87035e-06
1.0451e-06
1.01292e-06
4.02696e-07
0
0
5.21628e-08
4.71762e-07
5.4695e-06
1.37233e-05
2.25816e-05
2.71147e-05
3.41175e-07
0
1.66083e-06
6.91874e-07
0
0
0
0
0
0
0
1.74768e-06
1.84304e-06
8.03296e-07
7.65484e-07
9.97367e-07
1.19261e-06
1.25561e-06
1.23792e-06
1.15336e-06
1.06113e-06
9.61106e-07
8.59508e-07
7.58567e-07
6.64874e-07
5.77964e-07
4.96874e-07
4.22926e-07
3.54099e-07
2.86372e-07
2.17026e-07
1.48141e-07
7.81401e-08
5.42708e-09
0
0
0
0
0
0
0
0
0
0
0
0
0
0
0
0
0
0
0
0
0
0
0
0
0
0
0
0
0
0
0
0
0
0
0
0
0
0
0
0
0
0
0
0
0
0
0
0
0
0
3.83616e-09
4.00408e-09
1.04779e-10
0
0
0
0
0
0
0
0
0
0
0
1.23045e-09
2.55473e-09
2.88292e-09
2.50006e-09
1.69632e-09
6.9463e-10
0
0
0
0
0
0
0
0
0
0
0
0
0
0
0
0
0
0
0
0
0
0
0
0
0
0
0
0
0
0
0
0
0
0
0
0
0
0
1.17204e-10
0
3.30087e-06
3.81809e-06
5.67816e-06
6.36419e-06
6.00762e-06
4.59717e-06
2.51532e-06
3.59422e-07
0
0
0
0
0
0
0
0
0
0
0
8.87502e-07
1.75762e-06
1.89026e-06
1.72598e-06
1.23066e-06
1.55764e-07
0
0
0
0
4.74927e-07
2.084e-06
3.4589e-06
9.1321e-06
1.48524e-05
1.33798e-05
7.7497e-06
0
0
0
0
0
0
0
0
1.36523e-08
3.53639e-07
0
1.46617e-06
1.35487e-06
1.36517e-06
1.50125e-06
1.25407e-06
8.76204e-07
5.91121e-07
4.21345e-07
3.64065e-07
3.9125e-07
4.89531e-07
6.23508e-07
7.36118e-07
7.89789e-07
7.80803e-07
7.33102e-07
6.72143e-07
6.18612e-07
5.82484e-07
5.55725e-07
5.01333e-07
3.31469e-07
0
0
0
0
0
0
0
0
0
0
0
0
0
0
0
0
0
0
0
0
0
0
2.8306e-09
8.89551e-11
0
0
0
0
0
0
0
0
0
0
0
0
0
0
0
0
0
0
0
0
0
0
0
0
0
0
0
0
0
2.97655e-07
5.00833e-07
0
0
0
0
0
0
0
0
0
0
0
0
0
1.53995e-08
6.43046e-08
8.42682e-08
8.47041e-08
7.61186e-08
6.53442e-08
5.31807e-08
3.76909e-08
1.99825e-08
4.56697e-09
0
0
0
0
0
0
0
0
0
0
0
0
0
0
0
0
0
0
0
0
0
0
0
0
0
0
0
0
0
2.94022e-10
0
6.62708e-10
0
1.41394e-06
3.64694e-06
3.52393e-06
3.27624e-06
2.87964e-06
7.85636e-07
0
0
0
0
0
0
0
0
0
0
0
0
5.76664e-06
9.39347e-06
1.05685e-05
1.05678e-05
9.55771e-06
6.49194e-06
1.2994e-06
0
0
0
0
1.14683e-06
7.01532e-06
9.57713e-06
7.04296e-06
3.93396e-06
7.937e-07
0
0
0
0
0
0
0
0
0
0
1.69842e-08
6.60168e-07
2.70918e-06
2.41812e-06
1.59553e-06
7.99451e-07
3.23339e-07
5.74169e-08
0
0
5.97519e-08
2.02073e-07
3.70426e-07
5.14886e-07
6.01282e-07
6.22459e-07
5.97111e-07
5.45054e-07
4.81577e-07
4.27616e-07
4.06065e-07
4.26936e-07
4.64688e-07
3.69136e-07
0
0
0
0
0
0
0
0
0
0
0
0
0
0
0
0
0
0
0
0
0
0
0
0
0
0
0
0
0
0
0
0
0
0
0
0
0
0
0
0
0
0
0
0
0
0
0
0
0
0
0
0
0
5.16149e-06
3.97162e-06
1.73194e-06
0
0
0
0
0
0
0
1.89883e-07
3.14825e-07
3.46985e-07
3.17727e-07
2.37748e-07
1.38135e-07
5.37484e-08
8.0252e-09
2.20205e-09
1.97989e-08
3.81687e-08
3.82981e-08
1.13039e-08
0
0
0
0
0
0
0
0
0
0
0
0
0
0
0
0
0
0
8.84704e-10
2.11087e-09
2.56227e-09
2.8056e-09
2.65916e-09
2.38511e-09
1.5675e-09
1.14599e-09
7.13882e-11
2.63202e-10
0
6.03343e-11
0
4.3335e-10
0
4.95164e-10
0
6.53518e-07
1.26287e-06
1.98541e-06
2.35716e-06
0
0
0
0
0
0
0
0
0
0
0
0
0
1.56666e-06
5.79345e-06
7.7549e-06
7.80756e-06
7.32059e-06
7.1555e-06
7.54173e-06
7.70052e-06
5.46263e-06
1.46524e-06
0
0
3.39055e-07
1.77609e-06
2.51664e-06
1.57246e-06
0
0
0
0
0
0
0
0
0
0
0
1.1431e-06
3.45079e-06
4.04443e-06
2.96752e-06
1.885e-06
1.19173e-06
7.36678e-07
4.60151e-07
3.00499e-07
2.41064e-07
2.57899e-07
3.34275e-07
4.44892e-07
5.53479e-07
6.24137e-07
6.37699e-07
5.95196e-07
4.98327e-07
3.50639e-07
1.75892e-07
2.67407e-08
0
7.0243e-08
3.98147e-07
9.19072e-07
0
0
0
0
0
1.17304e-07
1.49648e-07
9.41075e-08
0
0
0
0
0
0
0
0
0
0
0
0
0
0
0
0
0
0
0
0
0
0
0
0
0
0
0
0
0
0
0
0
0
0
0
0
0
0
0
0
0
0
0
0
4.7741e-07
3.89387e-06
4.58423e-06
2.55308e-06
1.80182e-06
6.72409e-07
3.57276e-07
2.75629e-07
2.55792e-07
2.21773e-07
2.68451e-07
1.9563e-06
2.60479e-06
2.54375e-06
2.35995e-06
2.02508e-06
1.49087e-06
9.4054e-07
6.01964e-07
4.76406e-07
4.54363e-07
4.45991e-07
4.02769e-07
3.0753e-07
1.71009e-07
2.86036e-08
0
0
0
0
0
0
0
4.49916e-08
1.22227e-07
1.23e-07
1.11678e-07
9.80874e-08
8.14102e-08
5.88214e-08
2.92454e-08
0
0
0
0
0
0
0
0
0
0
0
0
3.56811e-11
0
4.46886e-09
0
0
0
9.20851e-08
2.54548e-07
8.38366e-07
0
0
0
0
0
0
0
0
0
0
0
0
0
0
0
7.649e-06
1.56713e-05
1.49234e-05
1.09809e-05
7.27809e-06
4.75512e-06
3.42924e-06
3.17856e-06
3.56629e-06
3.41747e-06
2.23852e-06
1.29228e-06
1.13408e-06
8.81263e-07
0
0
0
0
0
0
0
0
0
0
0
3.97646e-06
8.65266e-06
6.53561e-06
3.73213e-06
2.23587e-06
1.4355e-06
9.71995e-07
6.8683e-07
4.95977e-07
3.84295e-07
3.38406e-07
3.49136e-07
4.02938e-07
4.78382e-07
5.4191e-07
5.51194e-07
4.64813e-07
2.72012e-07
8.49412e-09
0
0
0
0
6.75654e-07
2.312e-06
4.81594e-06
0
0
0
0
7.19782e-07
1.20415e-06
1.40234e-06
1.40674e-06
1.31524e-06
1.12908e-06
9.2975e-07
6.94033e-07
4.53667e-07
2.15235e-07
0
0
0
0
0
0
0
0
0
0
0
0
0
0
0
0
0
0
0
0
0
0
0
0
0
0
0
0
0
0
0
0
0
0
0
0
0
0
2.76538e-07
1.56712e-06
3.07161e-06
1.86035e-06
1.73892e-06
1.07275e-06
4.87608e-07
3.64497e-07
3.80979e-07
4.61496e-07
5.21159e-07
4.27584e-07
1.024e-06
1.74197e-06
2.0812e-06
2.26779e-06
2.44565e-06
2.66054e-06
2.86377e-06
2.65871e-06
2.10695e-06
1.65788e-06
1.34451e-06
1.06121e-06
7.35924e-07
3.24036e-07
0
0
0
0
0
2.01213e-07
2.79441e-07
2.60957e-07
3.92453e-07
3.07691e-07
1.83773e-07
1.11833e-07
6.90705e-08
3.90427e-08
9.79911e-09
0
0
0
0
0
0
0
0
0
0
0
0
0
0
0
0
0
0
0
4.70411e-09
2.33294e-07
0
0
0
0
0
0
0
0
0
0
0
0
0
0
0
3.29182e-05
6.55233e-05
4.40199e-05
2.55331e-05
1.4054e-05
7.39817e-06
3.7092e-06
1.88292e-06
1.31795e-06
1.6411e-06
2.39123e-06
2.69883e-06
2.17912e-06
7.71347e-07
0
0
0
0
0
0
0
0
0
0
2.44719e-06
9.51832e-06
6.30652e-06
3.20811e-06
2.00716e-06
1.37666e-06
9.72116e-07
6.84888e-07
4.87609e-07
3.58955e-07
2.95974e-07
2.81906e-07
3.06993e-07
3.57781e-07
4.10489e-07
4.14396e-07
3.07357e-07
7.81102e-08
0
0
0
0
3.18236e-07
1.67415e-06
3.92241e-06
6.70192e-06
5.51929e-06
0
0
0
0
0
0
4.88462e-08
3.84423e-07
5.0813e-07
5.42166e-07
5.24411e-07
4.85916e-07
4.11656e-07
3.09779e-07
1.95613e-07
8.62777e-08
0
0
0
0
0
0
0
0
0
0
0
0
0
0
0
0
0
0
0
0
0
0
0
0
0
0
0
0
0
0
0
0
0
0
0
0
0
0
1.04696e-06
1.56011e-06
1.986e-06
1.91539e-06
4.08985e-07
1.7889e-07
2.47979e-07
3.95306e-07
5.74678e-07
7.05084e-07
6.73942e-07
1.03764e-06
1.52005e-06
1.81905e-06
1.93793e-06
1.95841e-06
1.9023e-06
1.80796e-06
1.72543e-06
1.74373e-06
1.74305e-06
1.51588e-06
1.13677e-06
7.7909e-07
4.40137e-07
0
0
0
4.20411e-08
3.80535e-07
5.14199e-07
4.79715e-07
4.03933e-07
4.32814e-07
1.98215e-07
8.42473e-08
3.97676e-08
1.26177e-08
0
0
0
0
0
0
0
0
0
0
0
0
0
0
0
0
0
0
0
0
0
1.16684e-07
0
0
0
0
0
0
0
0
0
0
0
0
0
0
0
0
2.94045e-05
3.32372e-05
2.52995e-05
1.59004e-05
8.84014e-06
4.49177e-06
2.15692e-06
1.06947e-06
8.30701e-07
1.36375e-06
2.61132e-06
2.83516e-06
8.08692e-07
0
0
0
0
0
0
0
0
0
0
0
0
0
0
4.15377e-07
4.58022e-07
3.91123e-07
2.99069e-07
2.25138e-07
1.84763e-07
1.82149e-07
2.0379e-07
2.38884e-07
2.71342e-07
2.68465e-07
1.78003e-07
0
0
0
0
0
5.40313e-07
1.8637e-06
3.89155e-06
6.06274e-06
6.26494e-06
2.12143e-07
0
0
0
0
0
0
0
0
4.7923e-08
1.21139e-07
1.4764e-07
1.60189e-07
1.45273e-07
1.03011e-07
4.69932e-08
0
0
0
0
0
0
0
0
0
0
0
0
0
0
0
0
0
0
0
0
0
0
0
0
0
0
0
0
0
0
0
0
0
0
0
0
0
0
0
0
0
1.03979e-06
1.06508e-06
0
0
0
0
2.10028e-07
5.08197e-07
8.06415e-07
1.48581e-06
2.46131e-06
3.25815e-06
3.99411e-06
4.07977e-06
3.75929e-06
3.39277e-06
2.40145e-06
1.22339e-06
6.77237e-07
4.39722e-07
2.12307e-07
3.92433e-08
8.33663e-09
3.30403e-07
2.87976e-07
0
0
4.07093e-08
3.62046e-07
4.61033e-07
4.03653e-07
3.10709e-07
2.59076e-07
5.54905e-08
8.65971e-09
0
0
0
0
0
0
0
0
0
0
0
0
0
0
0
0
0
0
0
0
0
0
0
6.6778e-07
2.96611e-06
8.20491e-06
1.48551e-05
1.28736e-05
1.02917e-05
9.9649e-06
1.12529e-05
1.34805e-05
1.56922e-05
1.66211e-05
1.52317e-05
1.16991e-05
7.6141e-06
3.67091e-06
0
0
0
9.3355e-07
2.03509e-06
2.06161e-06
1.53129e-06
1.05244e-06
9.27334e-07
1.11921e-06
1.54037e-06
2.09661e-06
2.06814e-06
1.77072e-06
1.12326e-06
0
0
0
0
0
0
0
0
0
0
0
0
0
0
0
0
0
0
3.5392e-08
8.77682e-08
1.36495e-07
1.67028e-07
1.60325e-07
9.00874e-08
0
0
0
0
0
4.50086e-07
1.37914e-06
2.84496e-06
4.50964e-06
5.21092e-06
2.90997e-06
0
0
0
0
0
0
0
0
2.33005e-07
3.82207e-07
3.45404e-07
2.96693e-07
2.70733e-07
2.49322e-07
2.18938e-07
1.76304e-07
1.27477e-07
7.61966e-08
6.16363e-09
0
0
0
0
0
0
0
0
0
0
0
0
0
0
0
0
0
0
0
0
0
0
0
0
0
0
0
0
0
0
0
0
0
0
0
0
0
0
0
0
0
0
0
0
0
0
0
2.13185e-07
1.22721e-06
3.93431e-06
2.69025e-06
1.47064e-06
1.32792e-06
1.38469e-06
1.51233e-06
1.81021e-06
1.36393e-06
2.54305e-07
0
0
0
2.18666e-07
8.5451e-07
0
0
0
0
1.79678e-07
1.83655e-07
1.07141e-07
2.03753e-08
0
0
0
0
0
0
0
0
0
0
0
0
0
0
0
0
0
0
0
0
0
0
0
0
0
1.23552e-06
4.19027e-06
6.45455e-06
7.85778e-06
8.369e-06
9.31257e-06
1.14459e-05
1.5014e-05
2.00685e-05
2.63204e-05
3.28438e-05
3.77769e-05
3.8618e-05
3.38347e-05
2.16666e-05
2.80747e-06
0
0
0
0
0
0
0
0
7.81182e-08
0
4.8467e-07
2.8245e-06
6.68596e-06
2.74334e-06
1.04522e-06
2.17904e-07
0
0
0
0
0
0
0
0
0
0
0
0
0
0
0
0
0
5.29045e-09
7.26335e-08
9.5534e-08
5.74081e-08
0
0
0
0
0
2.81885e-07
8.71633e-07
1.68998e-06
2.62548e-06
3.23146e-06
2.48986e-06
0
0
0
0
0
0
0
0
0
1.88353e-07
3.69089e-07
2.92658e-07
1.86422e-07
1.24295e-07
1.06995e-07
1.14916e-07
1.23682e-07
1.10821e-07
8.92774e-08
8.30247e-08
7.58927e-08
2.04728e-08
0
0
0
0
0
0
0
0
0
0
0
0
0
0
0
0
0
0
0
0
0
0
0
0
0
0
0
0
0
0
0
0
0
0
0
0
0
0
0
0
0
0
0
0
0
0
0
0
0
0
4.90377e-07
6.94403e-07
7.38739e-07
7.3022e-07
7.71251e-07
5.65447e-07
0
0
1.88125e-08
4.83186e-07
8.06752e-07
0
0
0
0
9.21697e-08
1.00586e-07
3.4388e-08
0
0
0
0
0
0
0
0
0
0
0
0
0
0
0
0
0
0
0
0
0
0
0
0
0
0
0
1.02738e-06
1.67892e-06
2.1607e-06
2.6174e-06
3.34194e-06
4.67381e-06
6.90801e-06
1.03399e-05
1.52581e-05
2.17947e-05
2.9529e-05
3.67833e-05
4.07227e-05
3.35607e-05
5.81712e-06
0
0
0
0
0
0
0
0
0
0
0
5.4228e-06
6.16976e-06
4.0054e-06
2.77472e-06
1.96913e-06
1.65528e-06
2.29987e-06
1.32339e-06
0
0
0
0
0
0
0
0
0
0
0
0
0
0
0
1.73486e-08
4.25174e-08
4.22688e-09
0
0
0
0
1.28528e-07
4.47684e-07
7.43909e-07
9.48304e-07
9.81511e-07
6.26686e-07
0
0
0
0
0
0
0
0
0
0
0
1.62554e-07
1.26416e-07
4.93457e-08
0
0
0
6.66877e-09
1.27287e-08
0
0
0
0
0
0
1.30945e-08
0
0
0
0
0
0
0
0
0
0
0
0
0
0
0
0
0
0
0
0
0
0
0
0
0
0
0
0
0
0
0
0
0
0
0
0
0
0
0
0
0
0
0
0
0
0
0
4.56615e-07
7.25376e-07
7.29611e-07
6.37455e-07
5.00502e-07
2.2738e-07
0
0
1.51122e-07
6.97191e-07
0
0
0
0
0
9.83112e-08
8.55362e-08
0
0
0
0
0
0
0
0
0
0
0
0
0
0
0
0
0
0
0
0
0
0
0
0
0
0
0
0
0
0
0
0
2.92604e-08
6.38183e-07
1.6596e-06
3.24915e-06
5.62127e-06
9.0881e-06
1.41099e-05
2.1125e-05
2.92327e-05
3.18244e-05
1.01713e-06
0
0
0
0
0
0
0
0
0
0
0
6.5616e-06
7.21546e-06
5.88779e-06
4.9773e-06
5.20551e-06
6.80741e-06
3.02162e-06
6.65618e-07
0
0
0
0
0
0
0
0
0
0
0
0
0
0
0
0
2.39251e-08
8.97165e-09
0
0
0
5.47826e-08
2.56558e-07
3.60189e-07
1.6062e-07
0
0
0
0
0
0
0
0
0
0
0
0
0
0
1.16109e-07
7.93722e-08
2.95809e-08
0
0
0
0
0
0
0
0
0
0
0
0
5.82892e-09
3.72243e-08
1.78773e-08
0
0
0
0
0
0
0
0
0
0
0
0
0
0
0
0
0
0
0
0
0
0
0
0
0
3.2955e-09
0
0
0
0
0
0
0
2.5177e-08
9.28959e-08
1.13994e-07
9.18279e-08
0
0
0
0
0
0
0
5.29341e-07
9.61179e-07
9.35591e-07
7.82878e-07
5.75858e-07
2.90218e-07
0
0
0
0
0
0
0
0
0
1.04397e-07
1.02784e-07
0
0
0
0
0
0
0
0
0
0
0
0
0
0
0
0
0
0
0
0
0
0
0
0
0
0
0
0
0
0
0
0
0
0
0
0
7.02311e-07
2.34411e-06
4.73614e-06
8.22492e-06
1.31217e-05
1.64875e-05
0
0
0
0
0
0
0
1.913e-07
0
0
0
0
7.94955e-06
8.57671e-06
8.40438e-06
9.30599e-06
8.03314e-06
3.54618e-06
1.46041e-06
6.19473e-07
1.67738e-07
0
0
0
0
0
0
0
0
0
0
0
0
0
0
0
2.44538e-08
3.71148e-08
3.02291e-08
3.39053e-08
9.25646e-08
2.21282e-07
3.30908e-07
1.97754e-07
0
0
0
0
0
0
0
0
0
0
0
0
0
0
2.01873e-07
2.02774e-07
5.08261e-08
0
0
0
0
0
0
0
0
0
0
0
0
0
0
0
0
0
1.08978e-09
0
0
0
0
0
0
0
3.24893e-08
0
0
0
0
0
0
0
9.20335e-09
2.43203e-08
1.70734e-08
5.45389e-09
0
0
0
0
2.20906e-08
2.26382e-08
3.21832e-09
0
3.67057e-08
1.36744e-07
2.46217e-07
2.52491e-07
2.74825e-07
2.68014e-07
2.28568e-07
2.0276e-07
1.94294e-07
1.34779e-07
0
0
0
0
4.44195e-07
1.39752e-06
1.20193e-06
1.14198e-06
8.92296e-07
5.86869e-07
3.07605e-07
1.1539e-07
2.24335e-08
0
0
0
0
0
0
0
6.98169e-08
9.09561e-08
0
0
0
0
0
0
2.10867e-07
1.4465e-07
0
0
0
0
0
0
0
2.13193e-08
1.62486e-08
0
0
0
0
0
0
0
0
0
0
0
0
0
0
0
0
0
0
0
0
0
5.68479e-07
1.95163e-06
3.21546e-06
2.72619e-06
0
0
0
0
0
0
0
0
0
0
0
2.04236e-07
5.50598e-06
7.6536e-06
8.23261e-06
6.10558e-06
3.4912e-06
1.95733e-06
1.10788e-06
6.21499e-07
3.13399e-07
8.67728e-08
0
0
0
0
0
0
0
0
0
0
0
0
0
1.17354e-08
5.79792e-08
7.59538e-08
9.24814e-08
1.48156e-07
2.71448e-07
4.45056e-07
5.53108e-07
3.45947e-07
0
0
0
0
0
0
0
0
0
0
0
0
3.05222e-07
7.71673e-07
7.42956e-07
3.69022e-07
5.05027e-08
0
0
0
0
0
0
0
0
0
0
0
0
0
0
0
0
0
0
1.27286e-09
1.1994e-08
0
0
0
0
0
0
5.03707e-08
6.17513e-09
4.1019e-08
1.11068e-07
9.34931e-08
2.51359e-09
0
0
3.73019e-08
4.52407e-08
3.36878e-08
1.67478e-08
3.92284e-09
0
0
2.48698e-08
7.11861e-08
1.00247e-07
1.33217e-07
2.01141e-07
3.07613e-07
4.35822e-07
6.93281e-07
9.19732e-07
7.10649e-07
4.48679e-07
2.80599e-07
2.35564e-07
2.09342e-07
5.25419e-08
0
0
7.09587e-07
1.41104e-06
1.65863e-06
2.07006e-07
6.55571e-07
7.19098e-07
4.40494e-07
2.3268e-07
1.29941e-07
6.8094e-08
0
0
0
0
0
0
0
0
0
0
0
0
0
0
2.86493e-08
2.11109e-07
2.05301e-07
1.7429e-07
1.36595e-07
0
0
0
0
0
4.38127e-08
5.10316e-08
1.57577e-08
0
0
0
0
0
0
0
0
0
0
0
0
0
0
0
0
0
0
0
0
0
0
0
0
0
0
0
0
0
0
0
0
0
0
0
2.50842e-06
4.8122e-06
5.54692e-06
4.6628e-06
3.33112e-06
2.29464e-06
1.49546e-06
9.95401e-07
6.72699e-07
4.45857e-07
2.82674e-07
1.77254e-07
9.42154e-08
2.31892e-08
0
0
0
0
0
0
0
0
0
0
1.77317e-08
9.57823e-08
1.33722e-07
1.47592e-07
1.96289e-07
3.42251e-07
5.92833e-07
8.1084e-07
7.56574e-07
1.38627e-07
0
0
0
0
0
0
0
0
5.00372e-06
5.88728e-06
4.29259e-06
2.52237e-06
1.55789e-06
9.91519e-07
4.20573e-07
0
0
0
0
0
0
0
0
0
0
0
0
0
0
0
0
0
0
0
0
0
0
0
0
0
0
0
4.08313e-08
4.01396e-08
8.33105e-08
2.1954e-07
3.25241e-07
2.92736e-07
1.64485e-07
6.7112e-08
4.37471e-08
5.28996e-08
5.49958e-08
4.64061e-08
2.64852e-08
3.67717e-10
0
4.29407e-08
1.69043e-07
2.87876e-07
3.82532e-07
4.56584e-07
4.56552e-07
3.98068e-07
4.32128e-07
7.02056e-07
1.27292e-06
1.16651e-06
4.08686e-07
1.5223e-07
1.28118e-07
3.08454e-08
2.17151e-08
2.2992e-07
6.66e-07
1.26142e-06
1.24087e-06
2.45925e-07
1.28442e-07
4.09286e-07
3.14931e-07
1.77419e-07
1.06844e-07
5.2275e-08
0
0
8.80249e-08
1.68334e-08
0
0
0
0
0
0
0
0
0
0
3.71051e-08
2.3724e-07
7.45644e-08
1.12529e-08
1.42951e-09
1.86007e-08
7.55708e-09
0
0
1.45453e-08
7.56059e-08
9.09272e-08
5.46899e-08
0
0
0
0
0
0
0
0
0
0
0
0
0
0
0
0
0
0
0
0
0
0
0
0
0
0
0
0
0
0
0
0
2.06204e-07
1.85219e-06
3.23208e-06
4.03322e-06
4.10864e-06
3.62115e-06
2.87446e-06
2.18651e-06
1.61572e-06
1.18889e-06
8.81143e-07
6.70531e-07
5.07939e-07
3.8317e-07
3.04379e-07
2.47606e-07
1.97537e-07
1.44869e-07
8.99086e-08
3.87212e-08
0
0
0
0
0
0
0
0
6.76232e-08
1.6088e-07
2.12193e-07
2.49135e-07
3.16467e-07
5.04383e-07
7.66101e-07
9.13459e-07
7.51051e-07
0
0
0
0
0
0
0
5.04392e-06
7.62763e-06
5.96387e-06
3.46949e-06
1.66615e-06
1.05714e-06
8.2647e-07
3.81112e-07
0
0
0
0
5.23209e-07
3.21286e-07
1.24615e-07
4.47831e-08
0
0
0
0
0
0
0
0
0
0
0
0
0
0
0
0
0
0
0
0
0
8.84649e-08
2.74002e-07
4.40582e-07
5.04349e-07
4.27302e-07
2.77781e-07
1.42583e-07
7.29675e-08
5.82906e-08
6.70826e-08
8.13406e-08
6.9823e-08
3.47324e-08
1.04185e-07
3.68827e-07
5.97641e-07
6.29981e-07
5.24285e-07
4.03681e-07
3.53668e-07
3.79757e-07
5.03657e-07
8.15984e-07
1.43744e-06
1.27314e-06
5.1142e-08
0
7.54619e-08
2.33364e-07
3.10986e-07
3.60992e-07
2.84826e-07
9.2273e-08
3.23122e-07
2.72223e-07
3.42911e-07
2.7888e-07
1.54888e-07
9.11559e-08
2.76694e-08
0
6.25251e-08
2.15854e-07
2.1962e-07
1.88848e-07
1.03465e-07
0
0
0
0
0
0
0
0
0
2.30147e-07
7.68753e-08
0
0
0
0
0
0
5.54335e-08
1.25899e-07
1.41801e-07
1.01934e-07
0
0
0
0
0
0
0
0
0
0
0
0
0
0
0
0
0
0
0
0
0
2.66312e-07
1.21567e-07
0
0
0
0
0
0
3.36838e-07
1.36011e-06
2.21367e-06
2.89942e-06
3.37714e-06
3.50141e-06
3.32436e-06
2.90101e-06
2.3787e-06
1.87209e-06
1.50021e-06
1.18097e-06
9.34646e-07
7.23952e-07
5.70354e-07
4.49038e-07
3.53393e-07
2.9623e-07
2.61854e-07
2.31507e-07
1.98988e-07
1.63624e-07
1.26991e-07
9.05429e-08
5.44084e-08
1.73894e-08
0
0
0
0
0
0
9.08899e-08
2.06502e-07
2.86522e-07
3.39869e-07
3.94366e-07
5.09672e-07
6.73372e-07
7.19864e-07
5.39671e-07
0
0
0
0
0
0
3.33188e-06
3.38017e-06
2.20518e-06
1.05108e-06
4.59622e-07
6.34483e-07
8.50769e-07
5.21854e-07
2.84589e-09
0
0
0
3.62695e-07
6.81157e-07
1.73556e-07
0
0
0
0
0
0
0
0
0
0
0
0
0
0
0
0
0
0
0
0
0
0
0
2.68007e-07
5.04444e-07
6.12971e-07
6.18736e-07
5.11491e-07
3.44677e-07
1.89513e-07
9.78563e-08
8.08918e-08
1.3339e-07
2.09868e-07
2.35903e-07
2.18487e-07
3.63533e-07
5.53208e-07
4.70582e-07
2.92506e-07
2.01242e-07
2.64027e-07
3.61716e-07
4.38785e-07
5.82158e-07
9.72825e-07
1.57647e-06
8.6095e-07
8.7635e-07
6.73134e-07
4.31517e-07
3.79344e-07
3.47894e-07
2.17296e-07
0
0
4.50367e-07
3.79116e-07
2.69308e-07
1.64346e-07
1.1598e-07
6.67524e-08
0
2.72294e-08
2.11624e-07
2.65515e-07
3.04343e-07
3.2089e-07
9.52983e-08
0
0
0
0
0
0
0
0
0
1.43524e-07
0
0
0
0
0
0
1.33737e-07
2.12075e-07
2.22593e-07
1.68597e-07
1.36963e-08
0
0
0
0
0
0
0
0
0
0
0
0
0
0
0
0
5.50757e-07
1.53594e-06
2.68762e-06
4.00092e-06
5.32918e-06
5.05704e-06
0
0
0
0
0
0
0
5.98697e-08
1.04261e-06
1.95895e-06
2.4736e-06
2.56785e-06
2.28728e-06
1.88596e-06
1.50594e-06
1.23151e-06
1.03859e-06
8.5686e-07
6.80523e-07
4.97095e-07
3.81027e-07
3.14719e-07
2.59129e-07
2.23475e-07
2.03703e-07
1.86246e-07
1.68331e-07
1.49706e-07
1.30118e-07
1.09503e-07
8.72014e-08
6.19814e-08
3.20129e-08
0
0
0
0
0
0
7.41101e-08
2.01332e-07
3.00813e-07
3.64272e-07
3.87406e-07
4.3207e-07
4.35779e-07
4.2569e-07
2.98056e-07
3.48804e-08
0
0
0
0
0
0
0
0
0
5.54884e-07
1.0681e-06
7.98529e-07
2.28356e-07
0
0
0
0
1.1538e-06
3.35602e-07
0
0
0
0
0
0
0
0
0
0
0
0
0
0
0
0
0
0
0
0
0
0
0
1.09713e-07
3.86178e-07
5.68538e-07
6.43436e-07
6.46953e-07
5.41078e-07
3.73115e-07
2.25908e-07
1.39938e-07
1.62171e-07
2.94716e-07
4.04776e-07
4.31074e-07
3.9544e-07
3.73112e-07
3.0774e-07
1.81378e-07
7.23456e-08
1.23957e-07
3.37912e-07
4.37605e-07
4.52119e-07
4.92896e-07
6.47118e-07
1.05576e-06
1.4199e-06
1.50058e-06
5.76392e-07
4.29929e-07
3.70801e-07
2.73952e-07
0
0
1.70666e-07
2.68417e-07
1.37406e-07
1.04689e-07
1.05256e-07
9.9833e-08
0
0
1.35264e-07
2.27522e-07
2.93193e-07
2.92909e-07
0
0
0
0
0
0
0
0
0
0
0
0
0
0
0
0
0
1.81067e-07
3.19899e-07
3.53671e-07
2.98169e-07
2.70277e-08
0
0
0
0
0
0
0
0
0
0
0
0
0
0
1.59528e-07
4.52722e-07
7.40325e-07
9.91932e-07
1.1886e-06
1.25018e-06
9.80789e-07
0
0
0
0
0
0
0
0
0
0
0
9.76245e-07
1.6479e-06
1.66595e-06
1.34997e-06
1.01539e-06
7.96555e-07
6.53191e-07
5.45041e-07
4.16232e-07
2.62514e-07
1.85128e-07
1.68487e-07
1.50395e-07
1.34191e-07
1.25218e-07
1.17778e-07
1.10589e-07
1.02702e-07
9.39171e-08
8.46301e-08
7.48252e-08
6.37741e-08
4.94785e-08
2.92965e-08
1.97281e-09
0
0
0
0
0
2.80615e-08
1.46295e-07
2.6255e-07
3.37422e-07
3.96207e-07
4.12202e-07
4.56704e-07
5.10783e-07
6.60259e-07
1.03489e-06
1.76417e-06
3.30083e-06
0
0
0
0
0
0
5.77861e-07
1.32238e-06
1.07038e-06
4.28659e-07
0
0
0
0
2.06895e-06
8.92789e-07
0
0
0
0
0
0
0
0
0
0
0
0
0
0
0
0
0
0
0
0
0
0
0
9.31422e-09
1.82311e-07
3.697e-07
5.33437e-07
6.24783e-07
6.39747e-07
5.40714e-07
3.90678e-07
2.65178e-07
2.09331e-07
3.01581e-07
4.5065e-07
5.31373e-07
5.38145e-07
4.49272e-07
3.38986e-07
2.54368e-07
1.66636e-07
1.11298e-07
2.49713e-07
4.34933e-07
4.17194e-07
3.49246e-07
2.12327e-07
8.10555e-08
1.65872e-06
1.32665e-06
4.56901e-07
3.95442e-07
3.65574e-07
3.04386e-07
1.22296e-07
0
0
9.30685e-08
4.12261e-08
4.40131e-08
6.51286e-08
8.06414e-08
0
0
0
1.35641e-07
2.22683e-07
1.6694e-07
0
0
2.99979e-07
1.16512e-07
0
0
0
0
0
0
0
0
0
2.70875e-07
5.8306e-08
0
0
0
9.49087e-08
3.21308e-07
4.31587e-07
0
0
0
0
0
0
0
0
0
0
0
0
0
0
0
0
2.69729e-08
6.41536e-08
1.01477e-07
1.18488e-07
6.11449e-08
0
0
0
0
0
1.94811e-07
3.41284e-07
1.40805e-07
0
0
0
0
0
1.784e-07
7.11009e-07
8.74627e-07
7.64137e-07
5.1362e-07
2.93176e-07
2.14575e-07
1.6489e-07
8.31663e-08
4.7112e-08
5.67256e-08
6.03998e-08
5.77826e-08
5.74303e-08
5.7683e-08
5.76721e-08
5.68461e-08
5.44491e-08
5.08101e-08
4.67585e-08
4.29777e-08
3.9047e-08
3.30838e-08
2.25623e-08
5.82699e-09
0
0
0
0
0
0
1.02091e-07
2.24271e-07
3.56603e-07
4.72768e-07
6.38445e-07
8.5317e-07
1.22659e-06
1.96363e-06
3.11236e-06
4.83907e-06
1.61189e-06
0
0
0
0
0
5.04963e-07
1.45271e-06
1.25514e-06
5.28419e-07
0
0
0
0
2.50906e-06
2.31761e-06
1.31973e-07
0
0
0
0
0
0
0
0
0
0
0
0
0
0
0
0
7.11782e-10
1.62379e-08
1.63731e-08
1.11179e-08
1.76536e-08
4.33987e-08
6.70036e-08
1.02321e-07
2.04378e-07
3.79072e-07
5.48268e-07
6.36412e-07
6.37505e-07
5.37146e-07
4.10608e-07
3.0232e-07
3.01945e-07
4.35721e-07
5.58717e-07
6.15672e-07
5.64096e-07
4.41147e-07
3.8016e-07
3.55486e-07
3.06942e-07
2.47778e-07
2.95927e-07
3.68724e-07
3.42662e-07
2.5882e-07
0
0
5.74064e-07
2.61979e-07
2.7712e-07
3.13831e-07
2.89696e-07
1.84268e-07
0
0
2.14324e-08
1.58796e-08
3.12165e-08
5.00245e-08
6.18905e-08
0
0
0
0
1.05089e-07
0
0
0
7.34531e-07
4.03275e-07
1.267e-07
0
0
0
0
0
0
0
0
0
3.34355e-08
8.29225e-08
1.99295e-07
0
0
1.03821e-08
6.47785e-08
0
0
0
0
0
0
0
0
0
0
0
0
0
0
0
0
0
0
0
0
0
0
0
0
0
0
0
2.8634e-07
5.04782e-07
1.23189e-07
0
0
0
0
0
0
1.67139e-07
2.07519e-07
1.45789e-07
0
0
0
0
0
0
0
0
7.5495e-09
1.5785e-08
2.13136e-08
2.4739e-08
2.62462e-08
2.56295e-08
2.33276e-08
2.05703e-08
1.87443e-08
1.82145e-08
1.80357e-08
1.63891e-08
1.11046e-08
7.61739e-10
0
0
0
0
3.5465e-08
1.3474e-07
2.85334e-07
4.73446e-07
7.44825e-07
1.09497e-06
1.58314e-06
2.42533e-06
3.63755e-06
4.7499e-06
1.66624e-06
0
0
0
0
0
2.39427e-07
1.39051e-06
1.27738e-06
4.74075e-07
0
0
0
0
0
4.89876e-06
7.39955e-07
0
0
0
0
0
0
0
0
0
0
0
0
0
0
0
0
0
2.15218e-09
2.36167e-08
4.63547e-08
8.57493e-08
1.31451e-07
1.51104e-07
1.46414e-07
1.64609e-07
2.679e-07
4.53922e-07
6.07442e-07
6.62683e-07
6.4317e-07
5.42464e-07
4.16773e-07
3.35068e-07
4.07061e-07
5.48871e-07
6.37894e-07
6.29967e-07
5.26246e-07
4.78019e-07
4.79139e-07
4.57731e-07
3.87373e-07
2.26041e-07
2.3277e-07
3.24359e-07
3.10675e-07
1.13118e-07
0
0
9.96978e-08
1.56786e-07
2.28301e-07
2.41251e-07
1.85816e-07
5.32469e-08
5.15598e-09
2.19719e-08
1.63864e-08
3.21047e-08
4.69103e-08
5.13944e-08
0
0
0
0
0
0
0
1.75283e-07
1.1727e-06
8.48411e-07
4.09041e-07
6.0594e-08
0
0
0
0
0
0
0
0
0
5.12007e-08
2.72465e-07
1.0241e-07
0
0
0
0
0
0
0
0
0
0
0
0
0
0
0
0
0
0
0
0
0
0
0
0
0
0
0
0
0
0
0
1.09112e-07
4.22188e-07
2.17729e-07
0
0
0
0
0
3.90761e-08
2.89216e-08
0
0
0
0
0
0
0
0
0
0
0
0
5.81426e-09
1.06801e-08
1.26915e-08
1.16665e-08
8.35684e-09
4.6534e-09
2.70425e-09
3.91677e-09
8.58401e-09
1.56595e-08
2.33867e-08
3.04355e-08
3.60305e-08
4.25397e-08
5.93859e-08
9.64313e-08
1.71618e-07
3.05537e-07
5.03486e-07
8.13705e-07
1.26291e-06
1.85575e-06
2.79043e-06
4.16832e-06
5.28594e-06
1.72303e-06
0
0
0
0
0
0
1.10054e-06
1.12276e-06
3.02205e-07
0
0
0
0
0
3.6109e-06
1.38923e-06
0
0
0
0
0
0
0
0
0
0
0
0
0
0
0
0
0
0
7.02988e-09
4.02788e-08
9.24319e-08
1.5863e-07
2.08725e-07
2.24898e-07
2.23797e-07
2.614e-07
4.01645e-07
5.85295e-07
6.81741e-07
7.0568e-07
6.57613e-07
5.37214e-07
4.03932e-07
3.9221e-07
5.17782e-07
6.2608e-07
6.4305e-07
5.6742e-07
5.25145e-07
4.94339e-07
4.09477e-07
3.04381e-07
2.50815e-07
1.78627e-07
2.7758e-07
3.08693e-07
1.97013e-07
0
0
0
8.19903e-08
1.40385e-07
1.77354e-07
1.65236e-07
1.01326e-07
4.31526e-08
2.47834e-08
1.35583e-08
2.44875e-08
3.81174e-08
3.9439e-08
0
0
0
0
0
0
0
8.1939e-07
1.37573e-06
1.53045e-06
9.37867e-07
2.11418e-07
7.22425e-08
1.24713e-07
1.28821e-07
0
0
7.1498e-08
0
0
0
1.72251e-07
3.4328e-07
2.39231e-07
4.79707e-08
0
0
0
0
0
0
0
0
1.33888e-09
0
0
0
0
0
0
0
0
0
0
0
0
0
0
0
0
0
0
0
0
0
0
2.67233e-07
5.12666e-07
2.01159e-07
0
0
0
7.42809e-08
1.04704e-07
1.55576e-08
0
0
0
0
0
0
0
0
0
0
0
0
0
1.99645e-09
7.92441e-09
1.01309e-08
8.33913e-09
3.67387e-09
0
0
0
9.92156e-09
2.69253e-08
5.03344e-08
7.87717e-08
1.13075e-07
1.57254e-07
2.12815e-07
2.99693e-07
4.38308e-07
6.38507e-07
9.59454e-07
1.46813e-06
2.15327e-06
3.29563e-06
5.15238e-06
7.41499e-06
2.96899e-06
0
0
0
0
0
0
6.08374e-07
8.01203e-07
9.95086e-08
0
0
0
0
0
0
9.48067e-07
0
0
0
0
0
0
0
0
0
0
0
0
0
0
0
0
0
0
1.84288e-09
2.93187e-08
7.64752e-08
1.47521e-07
2.30321e-07
2.84975e-07
3.03933e-07
3.25301e-07
4.14174e-07
5.82105e-07
7.02879e-07
7.48995e-07
7.48286e-07
6.56299e-07
5.03803e-07
4.13483e-07
4.85985e-07
5.99935e-07
6.25943e-07
5.73613e-07
5.36726e-07
4.66196e-07
3.06779e-07
1.59461e-07
1.39147e-07
1.96615e-07
2.58011e-07
2.84849e-07
2.26244e-07
3.94429e-08
0
0
4.56771e-08
7.85694e-08
1.10487e-07
1.39699e-07
1.3881e-07
9.19662e-08
3.76333e-08
7.76741e-09
6.14408e-09
1.74153e-08
1.91729e-08
0
0
0
0