/*--------------------------------*- C++ -*----------------------------------*\
  =========                 |
  \\      /  F ield         | OpenFOAM: The Open Source CFD Toolbox
   \\    /   O peration     | Website:  https://openfoam.org
    \\  /    A nd           | Version:  9
     \\/     M anipulation  |
\*---------------------------------------------------------------------------*/
FoamFile
{
    format      ascii;
    class       volScalarField;
    location    "0.037";
    object      p;
}
// * * * * * * * * * * * * * * * * * * * * * * * * * * * * * * * * * * * * * //

dimensions      [0 2 -2 0 0 0 0];

internalField   nonuniform List<scalar> 
12225
(
90.0802
83.0283
79.0429
76.398
74.5929
73.2631
72.2202
71.3594
70.6187
69.9952
69.5263
69.2652
69.2357
69.4391
69.8559
70.4464
71.2021
71.8596
88.6673
82.8251
78.9813
76.3607
74.5669
73.2382
72.1887
71.3208
70.5775
69.9556
69.4886
69.221
69.175
69.3456
69.7147
70.2406
70.8791
71.4258
89.5311
82.6281
78.8744
76.3082
74.5263
73.1956
72.1345
71.2586
70.5143
69.8964
69.43
69.1447
69.0547
69.1488
69.4097
69.7837
70.2003
70.4433
87.6666
82.1385
78.6337
76.1595
74.4372
73.1274
72.0731
71.1971
70.4516
69.8305
69.3533
69.04
68.8967
68.9081
69.0481
69.2594
69.451
69.4611
85.3021
81.5165
78.3273
76.0076
74.3404
73.0428
71.9829
71.1007
70.3516
69.7251
69.2343
68.8919
68.6983
68.6334
68.6613
68.721
68.7227
68.5516
85.3557
80.8422
77.9181
75.7431
74.1671
72.9148
71.8731
70.9986
70.2495
69.6137
69.1013
68.7207
68.4655
68.3108
68.2179
68.1293
67.965
67.6376
84.1152
79.9338
77.396
75.493
74.0149
72.7797
71.7433
70.8622
70.1061
69.4572
68.9195
68.4974
68.1801
67.9389
67.7317
67.506
67.1929
66.7246
82.9337
78.7752
76.7009
75.0621
73.7277
72.5805
71.5703
70.6992
69.9475
69.289
68.7236
68.2561
67.8736
67.5449
67.229
66.879
66.4368
65.8491
80.3465
77.3923
76.002
74.7232
73.5019
72.4017
71.3941
70.5186
69.7514
69.0711
68.4748
67.9634
67.5215
67.1178
66.7128
66.2623
65.7174
65.0349
75.6402
75.6342
75.1203
74.1948
73.1491
72.1359
71.1682
70.2991
69.5287
68.8314
68.2037
67.6449
67.1387
66.6559
66.1627
65.6217
64.9933
64.2402
70.3381
73.6339
74.3155
73.7997
72.9636
71.9443
70.9602
70.078
69.2864
68.5612
67.8985
67.2948
66.7307
66.1785
65.6085
64.9908
64.2924
63.4836
65.6373
72.3515
73.6809
73.3689
72.5842
71.6356
70.6829
69.8059
69.0045
68.2617
67.5748
66.938
66.3318
65.7287
65.1019
64.4268
63.6779
62.8343
63.2304
71.6078
73.3518
73.1616
72.3988
71.4296
70.4619
69.5665
68.7387
67.9667
67.2489
66.5747
65.9207
65.2635
64.5828
63.8614
63.0783
62.2209
68.3827
72.6865
73.5301
72.9969
72.0803
71.0739
70.0785
69.1615
68.3173
67.5325
66.8001
66.1018
65.4181
64.7329
64.0267
63.2827
62.4833
61.6169
71.2068
74.1197
74.0833
72.9916
71.8028
70.7177
69.7207
68.7817
67.9032
67.0878
66.3211
65.5813
64.8512
64.1177
63.3708
62.6011
61.7958
60.9471
84.3762
78.4162
75.3432
73.1963
71.5804
70.2571
69.1387
68.1308
67.2184
66.3939
65.6268
64.8877
64.1578
63.4265
62.686
61.9296
61.1501
60.3474
91.1934
80.2222
75.5054
72.6235
70.7711
69.4923
68.3915
67.3942
66.5182
65.7213
64.9563
64.2087
63.4715
62.7369
61.9993
61.2558
60.5002
59.7284
83.4188
78.9293
74.862
72.0978
70.0561
68.483
67.2691
66.3028
65.46
64.682
63.946
63.2445
62.5639
61.8893
61.2161
60.5446
59.8724
59.2002
70.7367
69.0154
67.9522
66.6705
66.2994
65.8505
65.2772
64.7277
64.1624
63.5579
62.9338
62.3127
61.6921
61.0671
60.4413
59.8217
59.2095
58.6048
66.015
67.1146
66.524
66.1919
65.3898
64.7334
64.1185
63.5199
62.9973
62.4863
61.9482
61.4147
60.8801
60.3413
59.7972
59.2518
58.7092
58.1717
57.386
58.587
60.8838
62.4398
62.9703
63.0341
62.8497
62.5369
62.168
61.7621
61.3265
60.8556
60.3673
59.8712
59.3684
58.8626
58.3579
57.8574
56.2102
59.8037
61.1549
61.5042
61.8421
61.9958
61.9295
61.7183
61.4401
61.1213
60.7609
60.3632
59.9368
59.4982
59.0509
58.5926
58.1283
57.6639
55.8058
58.2551
59.4895
60.3657
60.896
61.1736
61.2532
61.179
60.9864
60.7223
60.4081
60.0362
59.6413
59.2305
58.8074
58.3726
57.9342
57.4965
52.8068
56.8238
58.5859
59.6146
60.2741
60.6219
60.7594
60.7398
60.5972
60.3856
60.1115
59.7827
59.4194
59.0372
58.6414
58.2323
57.8203
57.405
58.2923
57.2464
58.2709
59.1788
59.8141
60.2089
60.4129
60.4617
60.3767
60.1798
59.9201
59.6032
59.2476
58.8733
58.4918
58.1066
57.7101
57.3142
55.0642
56.568
57.8092
58.7822
59.5181
59.9587
60.19
60.2554
60.1868
60.0173
59.7785
59.4839
59.1476
58.79
58.424
58.0516
57.667
57.2771
53.5643
56.0968
57.5789
58.6089
59.3326
59.7945
60.0435
60.1361
60.0935
59.9371
59.6967
59.3924
59.0488
58.6906
58.3316
57.9736
57.6099
57.2423
53.3379
55.6957
57.3841
58.4109
59.1946
59.6974
59.964
60.0603
60.0222
59.8744
59.6401
59.3428
59.0056
58.6536
58.3018
57.9529
57.5968
57.2374
52.4181
55.497
57.3684
58.3748
59.1416
59.6472
59.9185
60.0222
59.9939
59.8517
59.6131
59.302
58.9492
58.5895
58.2432
57.908
57.5766
57.2349
52.7877
55.4813
57.2316
58.3421
59.1286
59.6366
59.9062
60.0097
59.9857
59.8469
59.6065
59.289
58.9296
58.5663
58.2213
57.8923
57.5691
57.2388
48.2519
47.8543
47.4409
47.0039
46.6906
46.739
47.1572
47.7946
48.3471
48.5253
48.2149
47.3682
46.0601
44.4793
42.8285
41.2866
39.9958
39.0694
38.5886
38.5983
39.0965
40.0336
41.3367
42.8759
44.5079
45.9324
46.9687
47.033
46.2477
45.1664
43.9239
42.6216
41.2525
40.0057
39.6331
40.4921
42.5265
45.3288
47.7647
48.483
48.1715
47.9563
47.8263
48.1283
47.8662
47.5315
48.1852
50.1502
50.5588
48.6015
45.2232
40.9572
36.2188
31.2435
26.1834
21.1175
16.0948
11.1457
6.30344
1.60744
-2.8929
-7.14406
-11.0915
-14.6817
-17.8631
-20.5861
-22.8008
-24.4548
-25.498
-25.8888
-25.5915
-24.5907
-22.8955
-20.5412
-17.5852
-14.1016
-10.178
-5.90879
-1.39073
3.28294
8.02595
12.7619
17.4253
21.9631
26.3343
30.51
34.4719
38.2097
41.7198
45.0034
48.0653
50.9119
53.552
55.9964
58.2582
60.3511
62.2876
64.0778
65.7271
67.2347
68.5925
69.7853
70.7914
71.5925
72.1727
72.5309
72.6703
72.6032
72.349
71.9328
71.3832
70.7314
70.0084
69.2422
68.4543
67.659
66.8647
66.0783
65.3081
64.564
63.8557
63.1884
62.5603
61.9645
61.3914
60.8317
60.2774
59.7314
59.1982
58.6803
58.1787
57.6935
57.2243
56.7703
56.331
55.9055
55.4916
55.0862
54.6869
54.2916
53.899
53.508
53.1173
52.7249
52.3294
51.9299
51.5275
51.1242
50.7225
50.3241
49.9291
49.5368
49.1454
48.7533
48.3592
47.9629
47.5649
47.1661
46.7675
46.3695
45.9722
45.5754
45.1784
44.7811
44.383
43.984
43.5842
43.1839
42.783
42.3825
41.9826
41.5851
41.1907
40.8025
40.422
40.0543
39.7036
39.3747
39.0813
38.8081
47.223
46.9082
46.617
46.3287
46.0188
45.9426
46.1015
46.3507
46.4512
46.2137
45.5628
44.5
43.1258
41.5997
40.0843
38.7178
37.6084
36.8229
36.3941
36.3272
36.6669
37.4305
38.5853
40.0012
41.5566
43.0031
44.1451
44.6708
44.3939
44.334
43.5516
41.3583
39.1055
37.0978
36.2552
36.9497
38.7865
41.7738
45.308
46.9715
47.2765
47.2858
47.4978
48.0527
49.8256
47.4249
45.6916
46.7158
46.6682
44.7015
41.5299
37.5359
33.1234
28.4695
23.7029
18.879
14.0434
9.23627
4.50813
-0.0848205
-4.48361
-8.63084
-12.4765
-15.9775
-19.0912
-21.7687
-23.9545
-25.5889
-26.6101
-26.9632
-26.6213
-25.5735
-23.8268
-21.413
-18.3884
-14.8309
-10.8324
-6.49194
-1.9093
2.82026
7.60989
12.3833
17.0761
21.6364
26.0245
30.2128
34.1842
37.9295
41.4456
44.7343
47.8005
50.6506
53.2926
55.7366
57.9955
60.0837
62.0151
63.8014
65.4496
66.9602
68.3264
69.5333
70.5548
71.3724
71.9723
72.3498
72.5084
72.4598
72.2233
71.8236
71.2894
70.6509
69.939
69.1825
68.4047
67.6193
66.8323
66.0485
65.278
64.5343
63.8282
63.1636
62.5386
61.9454
61.3716
60.8079
60.2542
59.7124
59.1837
58.6702
58.1723
57.6897
57.2221
56.7688
56.3293
55.9028
55.4876
55.081
54.6803
54.2839
53.8904
53.4985
53.1072
52.7149
52.3199
51.9217
51.5207
51.1189
50.7187
50.3216
49.9279
49.5365
49.1457
48.7539
48.3601
47.9641
47.5664
47.1678
46.7693
46.3713
45.9738
45.5766
45.1793
44.7815
44.3829
43.9836
43.5834
43.1826
42.7814
42.3803
41.9799
41.5813
41.1859
40.7956
40.4132
40.0408
39.6861
39.3452
39.0413
38.7246
48.8912
48.8505
48.7315
48.2887
47.5458
46.5965
45.5837
44.5701
43.4968
42.2498
40.7913
39.1969
37.5831
36.052
34.6807
33.5267
32.6362
32.0455
31.7858
31.8742
32.2815
32.9644
33.9002
35.0457
36.3371
37.6705
38.907
39.9307
40.5057
40.6095
40.0319
38.779
37.5561
36.454
35.785
36.4749
38.2949
41.0936
44.0936
45.7273
45.6401
46.94
48.8442
47.8465
47.6567
46.6548
44.6349
42.9201
40.986
38.5924
35.6739
32.2853
28.531
24.4962
20.2501
15.8496
11.3468
6.80128
2.279
-2.14544
-6.40107
-10.4293
-14.1875
-17.6407
-20.7486
-23.4558
-25.694
-27.3891
-28.4662
-28.8591
-28.5208
-27.4354
-25.6086
-23.0812
-19.9218
-16.2194
-12.0763
-7.6001
-2.89668
1.93549
6.80875
11.6479
16.3911
20.9895
25.4063
29.6166
33.6053
37.3654
40.895
44.1959
47.2732
50.1327
52.781
55.2264
57.4813
59.5612
61.4826
63.2601
64.9043
66.4181
67.7983
69.0357
70.0866
70.9359
71.5706
71.9841
72.1794
72.1669
71.9634
71.5924
71.0836
70.4684
69.7769
69.0385
68.2776
67.5088
66.7376
65.9689
65.21
64.4725
63.7693
63.1094
62.4899
61.9009
61.3305
60.7704
60.2201
59.6817
59.1574
58.6486
58.1548
57.675
57.2088
56.7562
56.3172
55.8912
55.4763
55.0698
54.6694
54.2731
53.8794
53.4871
53.095
52.7021
52.3075
51.9111
51.5134
51.1155
50.7186
50.3234
49.93
49.538
49.1465
48.7543
48.3607
47.9655
47.569
47.1716
46.774
46.3764
45.9788
45.5811
45.183
44.7843
44.3848
43.9845
43.5834
43.1816
42.7793
42.3769
41.975
41.5742
41.1763
40.7817
40.3944
40.0133
39.6467
39.2848
38.9457
38.571
48.7883
48.9813
48.7437
48.0564
46.7627
45.0029
43.0576
41.1311
39.3115
37.6002
35.982
34.4618
33.0602
31.803
30.7153
29.821
29.1427
28.6989
28.5048
28.5918
28.9048
29.4195
30.1291
31.0254
32.0776
33.2468
34.4627
35.6662
36.749
37.6251
38.2821
38.7051
39.0542
39.4715
40.1784
41.447
43.0518
44.803
45.6755
46.0974
45.9234
45.6596
45.9495
45.6744
44.524
42.8479
40.8018
38.5987
36.1623
33.5661
30.7229
27.6204
24.2313
20.5747
16.6723
12.5657
8.30319
3.95417
-0.401
-4.6751
-8.79346
-12.705
-16.3824
-19.8041
-22.936
-25.7189
-28.0687
-29.8861
-31.0721
-31.538
-31.2167
-30.0736
-28.1268
-25.4308
-22.0706
-18.1532
-13.7977
-9.12548
-4.25195
0.720149
5.70331
10.6255
15.4294
20.0716
24.5206
28.7551
32.7637
36.5422
40.09
43.409
46.504
49.38
52.0416
54.4953
56.7518
58.8272
60.7401
62.5093
64.1485
65.663
67.0553
68.349
69.4335
70.3222
71.0018
71.4622
71.7054
71.7429
71.591
71.2679
70.7981
70.214
69.549
68.832
68.0896
67.3418
66.5936
65.8425
65.0968
64.3746
63.6877
63.038
62.4254
61.8418
61.2759
60.7187
60.1704
59.6358
59.1152
58.6118
58.1237
57.6495
57.1884
56.7396
56.303
55.878
55.4634
55.057
54.6565
54.2601
53.8663
53.4738
53.0818
52.6893
52.2959
51.9013
51.5058
51.1101
50.7148
50.3207
49.928
49.5363
49.145
48.7533
48.3607
47.9666
47.5711
47.1745
46.7772
46.3795
45.9816
45.5833
45.1845
44.785
44.3847
43.9836
43.5817
43.1789
42.7756
42.3718
41.9683
41.5653
41.1644
40.7658
40.3726
39.9829
39.6031
39.2219
38.8491
38.434
49.2257
48.8806
47.9305
46.2536
44.1192
41.9006
39.7839
37.8236
36.0305
34.403
32.9309
31.6018
30.4085
29.3517
28.4421
27.6991
27.1473
26.7989
26.6491
26.6725
26.9166
27.3651
27.9874
28.7609
29.6679
30.7008
31.8525
33.1233
34.5218
36.0419
37.7225
39.5273
41.4723
43.4743
45.562
47.4577
49.1401
49.942
49.7035
48.4942
47.4202
46.0802
44.4988
42.7921
40.8557
38.7779
36.6476
34.4222
32.0085
29.4211
26.6275
23.6253
20.3911
16.9195
13.2077
9.27872
5.17737
0.97833
-3.2271
-7.34761
-11.3185
-15.1145
-18.738
-22.1897
-25.4398
-28.4134
-30.9921
-33.0325
-34.3924
-34.9525
-34.6311
-33.3959
-31.273
-28.3334
-24.6866
-20.4679
-15.8228
-10.8928
-5.80528
-0.667001
4.43777
9.44422
14.3038
18.9817
23.4546
27.7072
31.7314
35.5253
39.0892
42.4241
45.5341
48.4245
51.0992
53.5626
55.823
57.8956
59.8013
61.564
63.2004
64.7152
66.097
67.5314
68.6282
69.5611
70.2963
70.8148
71.1136
71.2055
71.1111
70.8487
70.4359
69.8985
69.27
68.5826
67.8625
67.1313
66.402
65.675
64.9509
64.2446
63.5751
62.9457
62.3471
61.77
61.2064
60.6506
60.1044
59.5719
59.0591
58.5626
58.0819
57.6152
57.1609
56.7178
56.2851
55.8621
55.4478
55.041
54.6401
54.2436
53.85
53.458
53.0665
52.6748
52.2825
51.8894
51.4958
51.1022
50.7091
50.3167
49.9251
49.5342
49.1434
48.7522
48.3601
47.9666
47.5718
47.1758
46.779
46.3816
45.9836
45.5851
45.1859
44.7858
44.3849
43.983
43.5802
43.1764
42.7718
42.3666
41.9611
41.5557
41.1515
40.7484
40.3488
39.9506
39.5569
39.1583
38.7558
38.3122
48.9502
47.7547
45.6294
43.3608
41.1457
39.0323
37.0563
35.2342
33.5557
31.9962
30.5347
29.1653
27.8997
26.7635
25.7876
25.0024
24.4319
24.0999
24.0277
24.2175
24.6474
25.2949
26.1175
27.0707
28.1213
29.2572
30.4842
31.8275
33.3389
35.0871
37.1435
39.5345
42.2007
45.0719
47.7825
50.0729
51.7574
52.0588
51.3193
49.6833
47.5507
45.1286
42.5611
40.0409
37.6397
35.327
33.07
30.7778
28.37
25.8063
23.06
20.1212
16.9756
13.6102
10.0197
6.2202
2.25857
-1.78723
-5.82439
-9.77405
-13.6022
-17.3292
-21.0017
-24.6385
-28.1895
-31.5339
-34.4952
-36.8664
-38.4501
-39.1051
-38.7591
-37.3868
-35.0186
-31.748
-27.7193
-23.1079
-18.0939
-12.8434
-7.49706
-2.1641
3.07728
8.17348
13.0892
17.8021
22.2993
26.5732
30.6202
34.4401
38.0313
41.3894
44.5125
47.4033
50.0697
52.5201
54.7632
56.812
58.6894
60.425
62.0451
63.5624
64.9623
66.4832
67.6367
68.6454
69.4626
70.0616
70.4347
70.5924
70.5569
70.3546
70.0062
69.5292
68.9497
68.3005
67.611
66.9045
66.1969
65.492
64.7895
64.1015
63.4482
62.8367
62.2551
61.6889
61.1306
60.5771
60.0332
59.505
58.9961
58.5058
58.032
57.5728
57.1261
56.69
56.2627
55.8429
55.43
55.0234
54.6222
54.2254
53.8317
53.4402
53.0497
52.6592
52.2684
51.8771
51.4855
51.0939
50.7026
50.3117
49.9212
49.531
49.1408
48.7501
48.3585
47.9658
47.5718
47.1766
46.7804
46.3833
45.9853
45.5864
45.1867
44.7859
44.3841
43.9814
43.5776
43.1728
42.767
42.3602
41.9528
41.5448
41.1371
40.7295
40.3233
39.9165
39.5099
39.0954
38.6689
38.2039
45.6109
44.1884
42.1815
40.198
38.3006
36.4761
34.7039
32.9789
31.2992
29.6617
28.0715
26.5507
25.1345
23.8653
22.7876
21.9436
21.3678
21.0847
21.1057
21.4375
22.0697
22.9717
24.0837
25.3392
26.6815
28.0706
29.4933
30.9628
32.5267
34.2608
36.2666
38.6302
41.3025
44.2717
46.9746
49.3395
50.5253
50.7483
49.8022
47.9205
45.4466
42.7194
39.9754
37.3378
34.8365
32.4355
30.0846
27.7101
25.2586
22.6888
19.9734
17.092
14.0261
10.7565
7.27651
3.60235
-0.216651
-4.10402
-7.97892
-11.7939
-15.5651
-19.3658
-23.2758
-27.3129
-31.3903
-35.3192
-38.8379
-41.6598
-43.5319
-44.2944
-43.9083
-42.3493
-39.6651
-35.978
-31.4731
-26.3714
-20.8945
-15.2379
-9.55686
-3.96389
1.4692
6.70072
11.7097
16.4878
21.0338
25.3498
29.4388
33.3051
36.9494
40.3667
43.5466
46.4768
49.1489
51.568
53.7526
55.726
57.5208
59.1763
60.7353
62.2307
63.6827
65.1352
66.4155
67.5401
68.4758
69.1928
69.674
69.9212
69.9582
69.8192
69.532
69.1171
68.595
67.993
67.341
66.6642
65.9812
65.3018
64.6266
63.9597
63.3182
62.7161
62.1489
61.5944
61.0432
60.495
59.9561
59.4334
58.9297
58.4446
57.9765
57.5239
57.0843
56.655
56.2332
55.8173
55.4064
55.0006
54.5997
54.2032
53.8101
53.4195
53.0304
52.6417
52.2528
51.8634
51.4738
51.084
50.6944
50.3049
49.9156
49.5264
49.1371
48.7471
48.3563
47.9644
47.5712
47.1766
46.7809
46.3839
45.9859
45.5868
45.1866
44.7852
44.3828
43.9793
43.5747
43.1688
42.7618
42.3534
41.944
41.5333
41.1221
40.7098
40.297
39.8819
39.4633
39.0346
38.5891
38.1074
41.3883
40.368
39.1009
37.6314
36.0524
34.419
32.7533
31.0631
29.3524
27.6289
25.9122
24.236
22.6467
21.1996
19.9541
18.9689
18.2952
17.9732
18.0264
18.4627
19.2746
20.4256
21.845
23.4499
25.1537
26.8773
28.5655
30.1993
31.8115
33.4708
35.3052
37.3916
39.7966
42.3308
44.7028
46.4098
47.2913
47.2943
46.2629
44.4586
42.1766
39.6975
37.191
34.734
32.3327
29.9632
27.5933
25.1803
22.6962
20.1185
17.4276
14.6013
11.6145
8.44167
5.07266
1.52236
-2.16246
-5.91574
-9.68219
-13.4593
-17.3225
-21.4003
-25.7977
-30.5033
-35.3434
-40.0127
-44.1611
-47.4623
-49.6497
-50.5502
-50.1253
-48.3496
-45.2914
-41.1087
-36.0324
-30.3384
-24.3021
-18.1546
-12.0673
-6.15216
-0.470493
4.9511
10.1062
14.9975
19.6323
24.0184
28.1652
32.0843
35.7877
39.28
42.549
45.5706
48.3165
50.7729
52.9435
54.8478
56.5278
58.0453
59.473
60.872
62.2773
63.6935
65.0435
66.2786
67.3458
68.201
68.8181
69.1902
69.3291
69.2651
69.0388
68.6826
68.2179
67.6664
67.0555
66.4118
65.7557
65.1009
64.4532
63.8151
63.1938
62.5991
62.0312
61.4827
60.938
60.3984
59.8704
59.3582
58.8628
58.3834
57.9199
57.4719
57.0376
56.6138
56.1967
55.7842
55.3761
54.9726
54.5736
54.1787
53.7869
53.3977
53.0101
52.6233
52.2365
51.8492
51.4614
51.0733
50.6853
50.2971
49.909
49.5209
49.1325
48.7436
48.3537
47.9625
47.57
47.176
46.7807
46.3841
45.9861
45.5869
45.1863
44.7844
44.3812
43.9769
43.5713
43.1644
42.7561
42.3461
41.9345
41.5212
41.1063
40.6894
40.2702
39.8471
39.4179
38.9766
38.5158
38.0209
38.8883
38.217
37.263
36.053
34.6889
33.2263
31.674
30.0269
28.2814
26.4525
24.5783
22.7162
20.9298
19.2868
17.8578
16.7145
15.9191
15.5225
15.5568
16.0363
16.9606
18.2867
19.9306
21.7972
23.7796
25.776
27.7057
29.5159
31.2082
32.8269
34.4954
36.3272
38.3703
40.3532
42.1221
43.2531
43.8668
43.6647
42.67
41.0764
39.109
36.9601
34.7347
32.4868
30.2235
27.9291
25.5866
23.1772
20.6905
18.1204
15.4569
12.681
9.76517
6.68001
3.41037
-0.0342171
-3.61744
-7.29434
-11.0473
-14.928
-19.0708
-23.6422
-28.729
-34.2445
-39.91
-45.3296
-50.0989
-53.8679
-56.3545
-57.358
-56.8815
-54.852
-51.37
-46.6336
-40.9249
-34.5844
-27.9502
-21.2935
-14.7971
-8.56219
-2.6301
2.99282
8.31327
13.3407
18.0865
22.5641
26.7862
30.764
34.5157
38.0603
41.4068
44.5424
47.4215
49.9923
52.2328
54.1518
55.7863
57.2011
58.4859
59.7323
61.0065
62.3295
63.6647
64.9542
66.1277
67.1188
67.8806
68.3918
68.6543
68.6914
68.5408
68.2434
67.8319
67.3295
66.7597
66.1485
65.5189
64.8869
64.2621
63.6497
63.0534
62.4751
61.9123
61.3607
60.8181
60.2871
59.7719
59.274
58.791
58.3209
57.8633
57.419
56.9882
56.5681
56.1547
55.7451
55.3395
54.9388
54.5428
54.1507
53.7614
53.3741
52.9883
52.6032
52.2184
51.8333
51.4476
51.0614
50.6749
50.2881
49.9012
49.5141
49.1268
48.739
48.3502
47.9599
47.5681
47.1748
46.78
46.3836
45.9858
45.5864
45.1855
44.783
44.3792
43.974
43.5675
43.1596
42.7499
42.3383
41.9246
41.5086
41.0901
40.6686
40.2435
39.8129
39.3741
38.9219
38.4488
37.9432
38.1094
37.591
36.8341
35.8195
34.6218
33.2646
31.7662
30.1247
28.3418
26.4384
24.4681
22.4945
20.5823
18.8017
17.2294
15.9453
15.0216
14.5199
14.4884
14.9437
15.8861
17.2656
19.0008
20.9953
23.1276
25.2707
27.3182
29.1966
30.8989
32.4914
34.0787
35.7098
37.3611
38.873
40.0627
40.8992
41.2689
40.9665
40.0511
38.6443
36.9162
34.9955
32.9574
30.8462
28.6743
26.4336
24.1179
21.7215
19.2432
16.6863
14.0472
11.3105
8.44896
5.43093
2.23539
-1.13789
-4.67036
-8.34641
-12.1907
-16.303
-20.8575
-26.0283
-31.8594
-38.1781
-44.6038
-50.6777
-55.9796
-60.1507
-62.8958
-64.0417
-63.4059
-61.0986
-57.2059
-51.9473
-45.6436
-38.6951
-31.5056
-24.3924
-17.5489
-11.0561
-4.92371
0.869264
6.34459
11.5161
16.3921
20.985
25.3097
29.3775
33.2003
36.8013
40.198
43.3942
46.3606
49.0575
51.435
53.4611
55.1461
56.5497
57.7667
58.9006
60.0377
61.2239
62.4568
63.7005
64.8979
65.9785
66.8709
67.5242
67.9222
68.0773
68.0213
67.7965
67.4418
66.9871
66.4567
65.8763
65.2709
64.6595
64.0541
63.4616
62.885
62.3239
61.7736
61.2296
60.6923
60.1688
59.6647
59.1805
58.7118
58.2539
57.8048
57.3651
56.9375
56.5201
56.1095
55.7029
55.3
54.9019
54.5091
54.1203
53.734
53.3492
52.9654
52.5822
52.1994
51.8162
51.4326
51.0484
50.6637
50.2783
49.8926
49.5067
49.1206
48.7339
48.3461
47.9568
47.5659
47.1732
46.7788
46.3827
45.985
45.5855
45.1843
44.7814
44.3769
43.971
43.5635
43.1545
42.7435
42.3303
41.9145
41.4958
41.0738
40.6478
40.2171
39.7795
39.3323
38.8706
38.3875
37.8734
39.0014
38.6157
37.9352
36.9982
35.8643
34.5662
33.1126
31.4952
29.7136
27.7895
25.771
23.7233
21.7173
19.8294
18.1434
16.7447
15.7115
15.1127
15.0069
15.4115
16.3144
17.6657
19.3864
21.3742
23.5017
25.6359
27.663
29.5157
31.1934
32.755
34.2609
35.7199
37.0586
38.205
39.1014
39.7727
39.9783
39.6192
38.7292
37.4108
35.793
33.9699
32.0054
29.9392
27.7883
25.5529
23.2331
20.8298
18.3462
15.789
13.1578
10.4399
7.60893
4.63134
1.47895
-1.86185
-5.39415
-9.13253
-13.1373
-17.5428
-22.5409
-28.2837
-34.7657
-41.7487
-48.7888
-55.3909
-61.1204
-65.6054
-68.5324
-69.6972
-69.0236
-66.5204
-62.314
-56.6439
-49.8558
-42.4001
-34.749
-27.2754
-20.1796
-13.518
-7.25929
-1.34778
4.25612
9.56972
14.5917
19.3245
23.7742
27.9551
31.8777
35.561
39.0181
42.2577
45.2704
48.0259
50.4816
52.6046
54.3888
55.8662
57.1115
58.2245
59.2986
60.3921
61.5175
62.659
63.787
64.8605
65.8203
66.5938
67.1256
67.4043
67.4545
67.3156
67.0285
66.6274
66.1394
65.5907
65.0083
64.4153
63.8269
63.2515
62.6923
62.1477
61.6126
61.082
60.5571
60.0448
59.5516
59.0787
58.6224
58.1772
57.7391
57.3074
56.8834
56.4684
56.0608
55.658
55.2587
54.8635
54.4734
54.0876
53.7045
53.3225
52.941
52.5599
52.179
51.7979
51.4164
51.0342
50.6513
50.2675
49.8831
49.4985
49.1136
48.7282
48.3415
47.9533
47.5632
47.1711
46.7772
46.3814
45.9838
45.5843
45.1829
44.7797
44.3746
43.9678
43.5594
43.1492
42.737
42.3221
41.9042
41.4828
41.0574
40.6273
40.1912
39.7474
39.2927
38.8227
38.3314
37.8106
41.3279
40.9612
40.3162
39.4308
38.3554
37.1075
35.6844
34.0785
32.2965
30.3644
28.3282
26.251
24.2059
22.2728
20.5381
19.0905
18.0165
17.3875
17.239
17.5779
18.3917
19.6345
21.2301
23.0776
25.0567
27.05
28.9592
30.7279
32.3577
33.8758
35.2913
36.5773
37.7023
38.679
39.5194
40.0747
40.1421
39.6728
38.7087
37.3595
35.7247
33.8825
31.8897
29.7838
27.5851
25.301
22.9352
20.4915
17.9743
15.3907
12.7412
10.0148
7.1866
4.22116
1.08267
-2.25683
-5.82147
-9.651
-13.8298
-18.5084
-23.8766
-30.0525
-37.0006
-44.4446
-51.9085
-58.8772
-64.904
-69.6109
-72.6754
-73.8853
-73.1787
-70.5666
-66.1708
-60.2374
-53.1256
-45.3225
-37.3699
-29.701
-22.5089
-15.8105
-9.52962
-3.57286
2.11683
7.55641
12.7271
17.6176
22.2078
26.5041
30.5294
34.3062
37.8489
41.1574
44.2123
46.9912
49.4741
51.6405
53.4819
55.0206
56.3206
57.4744
58.5683
59.6512
60.7301
61.7951
62.8386
63.8498
64.8
65.6321
66.2723
66.6704
66.8271
66.7779
66.5645
66.2235
65.7848
65.2751
64.7211
64.1488
63.5775
63.0181
62.475
61.9476
61.4303
60.9175
60.4093
59.9116
59.4309
58.9692
58.5236
58.0894
57.662
57.2398
56.8222
56.4108
56.0063
55.6078
55.2134
54.8223
54.4353
54.0524
53.6724
53.2936
52.9149
52.5362
52.1575
51.7786
51.3993
51.0192
50.6381
50.2558
49.8727
49.4895
49.1061
48.7221
48.3366
47.9493
47.5601
47.1687
46.7752
46.3797
45.9822
45.5828
45.1813
44.7778
44.3722
43.9647
43.5553
43.144
42.7304
42.3139
41.8939
41.4699
41.0413
40.6072
40.1663
39.7166
39.2554
38.7784
38.2802
37.754
44.7843
44.433
43.7946
42.9079
41.8235
40.5705
39.1517
37.5578
35.7882
33.8609
31.8163
29.7151
27.6324
25.653
23.8693
22.376
21.2612
20.5914
20.401
20.691
21.4419
22.5996
24.0838
25.7937
27.6203
29.4655
31.2552
32.9471
34.5238
35.976
37.2966
38.4934
39.5938
40.6079
41.4306
41.8326
41.6872
40.9992
39.8525
38.3585
36.5984
34.6418
32.5383
30.3233
28.0189
25.6375
23.1846
20.6646
18.0824
15.4431
12.7468
9.98391
7.13099
4.1515
1.00364
-2.35289
-5.95957
-9.87344
-14.1888
-19.0538
-24.6447
-31.0502
-38.2276
-45.8894
-53.5564
-60.7081
-66.8863
-71.7115
-74.8683
-76.1323
-75.4357
-72.7946
-68.3396
-62.3201
-55.0943
-47.1692
-39.1481
-31.5085
-24.4226
-17.8596
-11.6886
-5.77438
-0.0547477
5.48154
10.8052
15.8685
20.6266
25.0601
29.1833
33.0308
36.6371
40.0151
43.1396
45.9661
48.4656
50.6394
52.5075
54.0924
55.4341
56.6103
57.7191
58.826
59.929
60.9866
61.977
62.9182
63.8277
64.6757
65.3859
65.8827
66.1381
66.175
66.0356
65.757
65.3705
64.9056
64.3897
63.8472
63.299
62.759
62.2339
61.7242
61.226
60.7334
60.245
59.7652
59.2995
58.8502
58.4153
57.9911
57.5738
57.1608
56.7511
56.3455
55.9457
55.5521
55.1629
54.7768
54.3937
54.0142
53.6375
53.2622
52.8869
52.5112
52.1351
51.7586
51.3816
51.0036
50.6242
50.2434
49.8616
49.4797
49.0978
48.7153
48.3311
47.9448
47.5564
47.1658
46.7729
46.3777
45.9804
45.581
45.1795
44.7758
44.3698
43.9617
43.5514
43.1389
42.7239
42.3057
41.8837
41.4573
41.0256
40.5877
40.1423
39.6875
39.2204
38.7374
38.2336
37.7029
49.0404
48.6656
47.9886
47.0579
45.9275
44.6239
43.1533
41.5113
39.699
37.731
35.6413
33.4857
31.3387
29.289
27.4353
25.8807
24.7169
24.0073
23.7859
24.0508
24.7751
25.8999
27.3422
29.0014
30.7736
32.5678
34.3192
35.9897
37.5653
39.0433
40.4388
41.7755
43.0411
44.1194
44.794
44.8971
44.4015
43.3812
41.9512
40.2151
38.2453
36.1018
33.8259
31.4508
28.9985
26.4822
23.9095
21.2838
18.6091
15.8885
13.1211
10.2981
7.39685
4.3814
1.20724
-2.17356
-5.81292
-9.77728
-14.1627
-19.102
-24.7435
-31.1609
-38.3078
-45.9155
-53.5371
-60.6682
-66.8446
-71.6803
-74.8667
-76.1888
-75.5556
-72.9796
-68.6141
-62.707
-55.5995
-47.8055
-39.9716
-32.5995
-25.8438
-19.606
-13.6884
-7.92955
-2.25154
3.3473
8.81169
14.0611
19.0174
23.6291
27.8835
31.8067
35.4461
38.8425
41.9969
44.866
47.4009
49.5938
51.4793
53.0987
54.4877
55.7002
56.8215
57.9325
59.0534
60.1365
61.1284
62.0304
62.8873
63.7184
64.4717
65.0517
65.3958
65.5095
65.4376
65.2219
64.8912
64.4735
63.9999
63.4968
62.9823
62.4694
61.9672
61.4791
61.0025
60.5318
60.0647
59.6045
59.1558
58.7205
58.2967
57.8826
57.4754
57.0722
56.6713
56.2732
55.8798
55.492
55.1087
54.7279
54.3493
53.9734
53.6004
53.2289
52.8574
52.4851
52.112
51.738
51.3632
50.9873
50.6098
50.2307
49.8504
49.4696
49.0889
48.7077
48.3248
47.9395
47.5519
47.1621
46.77
46.3753
45.9782
45.5789
45.1775
44.7737
44.3675
43.9588
43.5477
43.1341
42.7176
42.2978
41.8738
41.4449
41.0103
40.569
40.1195
39.66
39.1879
38.6997
38.1911
37.6569
53.7848
53.3865
52.6536
51.6347
50.3872
48.9502
47.3385
45.5528
43.5939
41.4753
39.2299
36.9133
34.603
32.3967
30.4009
28.7339
27.5023
26.7697
26.5431
26.8246
27.5815
28.7523
30.2536
31.9906
33.8693
35.8083
37.7447
39.6471
41.5078
43.3218
45.0749
46.7176
48.112
49.0425
49.3422
48.9671
47.9909
46.542
44.7466
42.6947
40.4553
38.0774
35.5923
33.0276
30.4028
27.7302
25.0176
22.268
19.4829
16.663
13.8065
10.9048
7.93768
4.87152
1.66203
-1.74221
-5.39756
-9.37082
-13.7492
-18.6433
-24.1679
-30.386
-37.2551
-44.5483
-51.876
-58.7725
-64.7843
-69.5208
-72.6757
-74.0476
-73.5237
-71.108
-66.9667
-61.3512
-54.5891
-47.1814
-39.7847
-32.9137
-26.7014
-20.9893
-15.5023
-10.0348
-4.4905
1.12197
6.71488
12.1632
17.3431
22.1632
26.583
30.6143
34.3042
37.7037
40.8346
43.6802
46.2117
48.4218
50.3356
51.9948
53.4373
54.7031
55.8578
56.9819
58.1131
59.2144
60.2234
61.1254
61.9622
62.7734
63.5379
64.1741
64.5991
64.7888
64.7783
64.6194
64.347
63.9838
63.5569
63.0962
62.6227
62.1467
61.6749
61.2128
60.7609
60.3145
59.8706
59.4315
59.001
58.5804
58.1691
57.7653
57.3678
56.9744
56.5837
56.195
55.8097
55.4288
55.0517
54.6765
54.3026
53.9308
53.5615
53.1939
52.8263
52.4577
52.0877
51.7165
51.3441
50.9703
50.5949
50.2178
49.8391
49.4596
49.0799
48.6997
48.3178
47.9335
47.5467
47.1578
46.7665
46.3724
45.9757
45.5766
45.1752
44.7715
44.3652
43.9561
43.5442
43.1295
42.7117
42.2902
41.8642
41.4331
40.9957
40.5512
40.098
39.6344
39.1578
38.6651
38.1525
37.6155
58.7876
58.3737
57.596
56.5058
55.1503
53.5572
51.7398
49.7052
47.4607
45.0234
42.4305
39.7436
37.0532
34.5168
32.2172
30.3087
28.9096
28.0928
27.8842
28.2935
29.2749
30.7449
32.5924
34.7105
37.01
39.4318
41.9237
44.4387
46.9281
49.3282
51.5247
53.3392
54.5679
55.0583
54.7656
53.7682
52.2134
50.2612
48.0394
45.6217
43.0705
40.4265
37.7115
34.9434
32.1358
29.2989
26.4384
23.5561
20.6509
17.7213
14.764
11.7712
8.72619
5.60024
2.35232
-1.06782
-4.71618
-8.65446
-12.954
-17.6958
-22.9598
-28.7935
-35.1632
-41.8951
-48.6757
-55.1021
-60.7547
-65.258
-68.3138
-69.7234
-69.3603
-67.2242
-63.4663
-58.331
-52.1345
-45.3552
-38.6278
-32.466
-27.0077
-22.0335
-17.1818
-12.1789
-6.88717
-1.31625
4.40412
10.0837
15.5333
20.607
25.2254
29.3808
33.1223
36.5212
39.6246
42.435
44.9357
47.1298
49.0519
50.7456
52.2421
53.5701
54.7754
55.9178
57.0432
58.147
59.18
60.111
60.9659
61.7881
62.5711
63.2466
63.7337
63.9961
64.0526
63.9505
63.7341
63.4309
63.0616
62.6508
62.2215
61.7867
61.3526
60.9232
60.4995
60.0793
59.6604
59.2448
58.8352
58.4319
58.0339
57.6409
57.253
56.8693
56.4888
56.1106
55.7348
55.362
54.9917
54.6225
54.2538
53.8863
53.521
53.1573
52.7936
52.4286
52.0619
51.6935
51.3237
50.9523
50.5793
50.2044
49.8279
49.4498
49.0709
48.6913
48.3102
47.9268
47.541
47.153
46.7626
46.3692
45.973
45.574
45.1728
44.7691
44.3627
43.9532
43.5407
43.125
42.7059
42.2828
41.8551
41.4217
40.9819
40.5344
40.0778
39.6105
39.1301
38.6336
38.1177
37.5784
63.1834
62.812
62.0913
61.0462
59.6904
58.022
56.0314
53.7148
51.0863
48.168
45.0132
41.7169
38.4147
35.2241
32.3837
30.0591
28.4
27.5056
27.4077
28.2399
29.7748
31.8768
34.4136
37.2943
40.3765
43.641
47.0015
50.3605
53.5872
56.5013
58.8883
60.5463
61.3366
61.22
60.2662
58.6171
56.4812
54.0315
51.3809
48.5991
45.7389
42.8315
39.8932
36.9344
33.9613
30.9786
27.9879
24.9879
21.9754
18.9461
15.895
12.8147
9.69245
6.50669
3.22426
-0.198483
-3.81266
-7.67287
-11.835
-16.3539
-21.2782
-26.6328
-32.3858
-38.4089
-44.4659
-50.2349
-55.3574
-59.4975
-62.3764
-63.8027
-63.658
-61.9059
-58.6598
-54.1439
-48.6698
-42.6842
-36.7694
-31.4386
-26.8725
-22.8155
-18.8081
-14.4618
-9.54394
-4.03865
1.85954
7.84832
13.635
19.0091
23.8633
28.1808
32.0057
35.4127
38.4762
41.2408
43.7159
45.9045
47.8294
49.5311
51.0498
52.4166
53.6617
54.8219
55.9296
57.0012
58.031
58.9985
59.8974
60.7496
61.5611
62.2796
62.825
63.1551
63.2824
63.2454
63.0866
62.8411
62.5333
62.1822
61.8041
61.4122
61.0157
60.6208
60.228
59.8348
59.4407
59.0488
58.6615
58.2775
57.8948
57.514
57.1366
56.7626
56.3915
56.0231
55.6571
55.293
54.9302
54.5675
54.2043
53.8416
53.4803
53.1202
52.7601
52.3987
52.0353
51.6699
51.3027
50.9338
50.5631
50.1907
49.8163
49.4399
49.0618
48.6825
48.3019
47.9195
47.5348
47.1478
46.7583
46.3658
45.97
45.5714
45.1702
44.7664
44.3597
43.95
43.537
43.1206
42.7003
42.2758
41.8463
41.411
40.9688
40.5186
40.0591
39.5885
39.1047
38.605
38.0863
37.5451
66.1236
65.8437
65.2734
64.387
63.1377
61.4812
59.3861
56.8194
53.7606
50.2319
46.2994
42.0901
37.7959
33.6636
29.9837
27.0459
25.1013
24.3152
24.7537
26.1614
28.4992
31.565
35.1551
39.0606
43.1903
47.3833
51.591
55.696
59.5039
62.7582
65.204
66.6579
67.0365
66.4056
64.9176
62.7483
60.1231
57.2604
54.2483
51.1532
48.0304
44.9059
41.7882
38.6806
35.583
32.4944
29.4118
26.3302
23.2437
20.1455
17.0282
13.8841
10.703
7.4698
4.16105
0.744174
-2.82197
-6.58348
-10.5861
-14.8693