/*--------------------------------*- C++ -*----------------------------------*\
  =========                 |
  \\      /  F ield         | OpenFOAM: The Open Source CFD Toolbox
   \\    /   O peration     | Website:  https://openfoam.org
    \\  /    A nd           | Version:  9
     \\/     M anipulation  |
\*---------------------------------------------------------------------------*/
FoamFile
{
    format      ascii;
    class       volScalarField;
    location    "0.037";
    object      s;
}
// * * * * * * * * * * * * * * * * * * * * * * * * * * * * * * * * * * * * * //

dimensions      [0 0 0 0 0 0 0];

internalField   nonuniform List<scalar> 
12225
(
1
1
1
1
1
1
1
1
1
1
1
1
1
1
1
1
1
0.999979
1
1
1
1
1
1
1
1
1
1
1
1
1
1
1
1
1
0.999998
1
1
1
1
1
1
1
1
1
1
1
1
1
1
1
1
1
1
1
1
1
1
1
1
1
1
1
1
1
1
1
1
1
1
1
1
1
1
1
1
1
1
1
1
1
1
1
1
1
1
1
1
1
1
1
1
1
1
1
1
1
1
1
1
1
1
1
1
1
1
1
1
1
1
1
1
1
1
1
1
1
1
1
1
1
1
1
1
1
1
1
1
1
1
1
1
1
1
1
1
1
1
1
1
1
1
1
1
1
1
1
1
1
1
1
1
1
1
1
1
1
1
1
1
1
1
1
1
1
1
1
1
1
1
1
1
1
1
1
1
1
1
1
1
1
1
1
1
1
1
1
1
1
1
1
1
1
1
1
1
1
1
1
1
1
1
1
1
1
1
1
1
1
1
1
1
1
1
1
1
1
1
1
1
1
1
1
1
1
1
1
1
1
1
1
1
1
1
1
1
1
1
1
1
1
1
1
1
1
1
1
1
1
1
1
1
1
1
1
1
1
1
1
1
1
1
1
1
1
1
1
1
1
1
1
1
1
1
1
1
1
1
1
1
1
1
1
1
1
1
1
1
1
1
1
1
1
1
1
1
1
1
1
1
1
1
1
1
1
1
1
1
1
1
1
1
1
1
1
1
1
1
1
1
1
1
1
1
1
1
1
1
1
1
1
1
1
1
1
1
1
1
1
1
1
1
1
1
1
1
1
1
1
1
1
1
1
1
1
1
1
1
1
1
1
1
1
1
1
1
1
1
1
1
1
1
1
1
1
1
1
1
1
1
1
1
1
1
1
1
1
1
1
1
1
1
1
1
1
1
1
1
1
1
1
1
1
1
1
1
1
1
1
1
1
1
1
1
1
1
1
1
1
1
1
1
1
1
1
1
1
1
1
1
1
1
1
1
1
1
1
1
1
1
1
1
1
1
1
1
1
1
1
1
1
1
1
1
1
1
1
1
1
1
1
1
1
1
1
1
1
1
1
1
1
1
1
1
1
1
1
1
1
1
1
1
1
1
1
1
1
1
1
1
1
1
1
1
1
1
1
1
1
1
1
1
1
1
1
1
1
1
1
1
1
1
1
1
1
1
1
1
1
1
1
1
1
1
1
1
1
1
1
1
1
1
1
1
1
1
1
1
1
1
0.243851
0.329303
0.368231
0.391998
0.415328
0.433992
0.482256
0.510002
0.527533
0.548793
0.568455
0.582289
0.590484
0.594596
0.597241
0.599455
0.600151
0.600071
0.599538
0.598602
0.596679
0.594307
0.590852
0.586158
0.579726
0.571259
0.560486
0.531219
0.339626
0.323911
0.379546
0.389116
0.391931
0.392805
0.392775
0.392211
0.411641
0.437373
0.456153
0.478253
0.481886
0.467328
0.350004
0.299885
0.305927
0.309808
0.504438
0.826401
0.844204
0.845827
0.8484
0.850414
0.852215
0.853904
0.855445
0.857313
0.859266
0.860524
0.861365
0.862975
0.864587
0.865108
0.86545
0.866079
0.867107
0.868073
0.868567
0.868913
0.869562
0.870349
0.870936
0.871606
0.872417
0.873238
0.874084
0.875002
0.875954
0.877072
0.878183
0.879183
0.880128
0.881135
0.882274
0.883377
0.884476
0.885469
0.886006
0.886448
0.887007
0.887274
0.887474
0.887797
0.888078
0.888194
0.888237
0.888221
0.888198
0.88823
0.888215
0.888088
0.887863
0.887556
0.887186
0.886675
0.886058
0.885345
0.884498
0.883408
0.881787
0.879462
0.876442
0.872948
0.869463
0.866594
0.864537
0.862947
0.861644
0.86047
0.859333
0.858211
0.857144
0.856208
0.855465
0.854919
0.854571
0.854425
0.854369
0.854299
0.854095
0.853203
0.849921
0.845962
0.841932
0.835179
0.823704
0.807697
0.788321
0.76509
0.734794
0.692931
0.636271
0.564755
0.481967
0.39424
0.308839
0.232047
0.167849
0.117509
0.0800777
0.0533917
0.0349796
0.022593
0.0144101
0.00906909
0.00562119
0.00342619
0.00205245
0.00120866
0.000700048
0.000398968
0.000223768
0.000123486
6.7017e-05
3.57428e-05
1.87176e-05
9.61553e-06
4.84074e-06
2.38593e-06
1.15011e-06
5.41746e-07
2.49058e-07
1.1168e-07
4.87632e-08
2.07242e-08
8.54599e-09
3.41895e-09
1.31798e-09
4.88168e-10
1.75823e-10
3.98962e-11
0.219006
0.262066
0.271903
0.260631
0.273362
0.316906
0.419493
0.500755
0.559239
0.593636
0.609474
0.613912
0.616258
0.617795
0.619013
0.619678
0.62098
0.622892
0.624726
0.628287
0.631822
0.632709
0.632268
0.630653
0.626828
0.619188
0.605671
0.586974
0.538103
0.41098
0.37587
0.341219
0.309239
0.292385
0.276704
0.282553
0.302839
0.346492
0.434112
0.465514
0.489183
0.482315
0.402471
0.413956
0.717826
0.766861
0.80788
0.841887
0.844804
0.845931
0.848208
0.849892
0.851746
0.85327
0.854587
0.856035
0.856868
0.857208
0.857345
0.857404
0.857181
0.855815
0.853456
0.851197
0.849607
0.848271
0.847181
0.846921
0.846955
0.847927
0.85061
0.853087
0.854131
0.8556
0.858743
0.862028
0.864947
0.868602
0.872433
0.875526
0.878383
0.881014
0.883811
0.886198
0.889043
0.892702
0.896211
0.899162
0.901664
0.903507
0.905094
0.907223
0.909362
0.911135
0.912632
0.91377
0.914931
0.916361
0.917086
0.917775
0.918061
0.918172
0.917982
0.917496
0.916575
0.915389
0.91413
0.913042
0.912453
0.912401
0.91271
0.912966
0.912342
0.90808
0.898992
0.890276
0.883249
0.879035
0.877105
0.876537
0.87651
0.876572
0.876468
0.87527
0.870098
0.864177
0.861101
0.860225
0.860386
0.862158
0.869356
0.881748
0.893443
0.902454
0.909932
0.918566
0.927876
0.934466
0.936728
0.936708
0.935373
0.93112
0.919264
0.890838
0.864297
0.844157
0.823566
0.789638
0.730176
0.641592
0.53267
0.420171
0.319164
0.235373
0.168105
0.116276
0.078
0.0508374
0.0322465
0.0199339
0.0120224
0.00708061
0.0040749
0.00229265
0.00126126
0.000678449
0.000356694
0.00018323
9.18792e-05
4.49599e-05
2.14371e-05
9.96256e-06
4.50022e-06
1.97937e-06
8.42526e-07
3.48904e-07
1.38531e-07
5.3334e-08
1.96012e-08
5.76996e-09
0.199335
0.203385
0.233267
0.318612
0.437586
0.548274
0.602659
0.6266
0.627484
0.625594
0.620887
0.613769
0.604531
0.59443
0.585619
0.576879
0.576126
0.577371
0.58071
0.58764
0.598318
0.608174
0.617098
0.624593
0.627124
0.627095
0.625703
0.621618
0.610899
0.582386
0.513466
0.416451
0.349638
0.314815
0.289016
0.277839
0.287444
0.323575
0.431599
0.467764
0.482474
0.497188
0.665371
0.772463
0.814073
0.828841
0.837286
0.840185
0.840384
0.840594
0.841355
0.842758
0.845005
0.84563
0.845814
0.845896
0.845307
0.843314
0.839288
0.832489
0.822317
0.808001
0.796059
0.791837
0.790069
0.789633
0.790091
0.794388
0.804412
0.816276
0.824854
0.830823
0.837487
0.843869
0.848008
0.850915
0.854309
0.858145
0.862187
0.866293
0.870008
0.87343
0.877029
0.881156
0.886312
0.892456
0.898511
0.904739
0.911301
0.916971
0.92134
0.925042
0.928668
0.930858
0.933243
0.9349
0.936426
0.937943
0.938969
0.939945
0.940331
0.940283
0.939528
0.93836
0.936397
0.933501
0.929818
0.925747
0.921895
0.919337
0.918702
0.919692
0.923325
0.926863
0.928262
0.927363
0.919732
0.901158
0.887982
0.882063
0.880611
0.880855
0.883405
0.887267
0.888779
0.888671
0.886045
0.874967
0.863449
0.857564
0.855632
0.855465
0.855899
0.858186
0.866064
0.877532
0.889374
0.9019
0.915083
0.928884
0.943132
0.9566
0.967272
0.973794
0.976439
0.976817
0.976463
0.974536
0.967314
0.955971
0.945652
0.929581
0.89447
0.795285
0.621674
0.460738
0.329852
0.23024
0.157068
0.104657
0.0681004
0.0432789
0.0268659
0.0162914
0.00964819
0.00557857
0.00314667
0.00173058
0.00092691
0.000483358
0.000245022
0.00012081
5.77784e-05
2.68638e-05
1.20706e-05
5.27114e-06
2.20716e-06
8.96724e-07
3.45439e-07
1.21722e-07
0.185693
0.312229
0.536722
0.628182
0.661284
0.660073
0.654827
0.643788
0.62654
0.597908
0.566987
0.536954
0.512925
0.493806
0.481047
0.471956
0.469249
0.469886
0.472767
0.480822
0.492419
0.514602
0.536559
0.564838
0.590917
0.607476
0.617609
0.618846
0.617223
0.611832
0.596589
0.566402
0.5005
0.438146
0.378483
0.366051
0.380378
0.422648
0.543911
0.549361
0.593467
0.720321
0.797959
0.821562
0.829377
0.831673
0.832407
0.826563
0.823896
0.822877
0.82267
0.824157
0.825646
0.825755
0.825532
0.824617
0.821146
0.812725
0.798164
0.777346
0.757795
0.750856
0.748139
0.747533
0.747901
0.751744
0.7622
0.777899
0.792806
0.802865
0.811089
0.822311
0.835106
0.842267
0.844956
0.84621
0.84693
0.847505
0.848253
0.849647
0.850235
0.850069
0.849851
0.851698
0.856973
0.865066
0.876697
0.890591
0.905719
0.918093
0.928066
0.936763
0.94551
0.951161
0.956847
0.961811
0.965771
0.969037
0.971705
0.973828
0.97535
0.976071
0.975769
0.974643
0.97282
0.970282
0.966364
0.960936
0.952514
0.940644
0.92902
0.922913
0.921913
0.924568
0.931464
0.935666
0.936486
0.934819
0.923218
0.899264
0.885525
0.880492
0.879879
0.881288
0.888307
0.895186
0.897409
0.897244
0.894385
0.882296
0.867911
0.859147
0.854515
0.852873
0.852763
0.85357
0.858192
0.873109
0.889264
0.903209
0.916591
0.930257
0.943967
0.956869
0.968278
0.977917
0.985267
0.989713
0.99149
0.991753
0.991562
0.990554
0.987392
0.978939
0.958978
0.910004
0.77255
0.588582
0.429181
0.302777
0.20796
0.139551
0.0915112
0.058609
0.0366295
0.0223164
0.0132347
0.00763115
0.00427169
0.00232009
0.00122101
0.000622956
0.000307558
0.000147187
6.80211e-05
3.04634e-05
1.31124e-05
5.4558e-06
2.17051e-06
7.95983e-07
0.438899
0.643347
0.692135
0.689655
0.680288
0.660564
0.6202
0.576807
0.531831
0.503645
0.484439
0.470696
0.460724
0.452002
0.444767
0.439579
0.435693
0.432504
0.432171
0.433073
0.436183
0.442944
0.458672
0.473595
0.502342
0.531385
0.572915
0.596785
0.608857
0.608976
0.606044
0.598231
0.576342
0.547971
0.504996
0.472193
0.472725
0.504937
0.599102
0.686683
0.760899
0.806079
0.823471
0.827406
0.827924
0.823795
0.813608
0.809562
0.808798
0.808859
0.811287
0.813374
0.81364
0.81305
0.81053
0.804793
0.794117
0.777248
0.755018
0.732993
0.724086
0.72088
0.719995
0.719995
0.721492
0.727543
0.739635
0.753979
0.764748
0.771291
0.778525
0.791518
0.8011
0.801702
0.799439
0.795541
0.790931
0.785929
0.779523
0.771529
0.762065
0.75317
0.743521
0.738777
0.737412
0.739968
0.754166
0.778202
0.812397
0.848214
0.880418
0.903988
0.927184
0.942265
0.953572
0.962139
0.96859
0.974007
0.978503
0.982278
0.985401
0.987907
0.989803
0.990749
0.990717
0.989827
0.987958
0.985252
0.982451
0.978572
0.969678
0.950646
0.934269
0.927603
0.927507
0.932256
0.937406
0.938521
0.937529
0.929732
0.906761
0.890781
0.884321
0.883235
0.884365
0.891167
0.899236
0.902521
0.90292
0.901955
0.896139
0.879591
0.866286
0.858678
0.855247
0.854374
0.854494
0.856057
0.863611
0.884548
0.904221
0.919912
0.933077
0.944973
0.956224
0.966639
0.975748
0.983286
0.989095
0.993132
0.995378
0.99614
0.99616
0.995752
0.994009
0.988663
0.974258
0.937364
0.827842
0.642248
0.474779
0.338494
0.234134
0.157724
0.103609
0.0662827
0.041199
0.0248319
0.0144856
0.00817067
0.00445125
0.0023428
0.00119018
0.000584299
0.000276669
0.000126588
5.57235e-05
2.36382e-05
9.63592e-06
3.63393e-06
0.722357
0.718405
0.705238
0.682089
0.63657
0.583398
0.54349
0.51519
0.494916
0.479974
0.468148
0.458276
0.450199
0.442301
0.436227
0.430228
0.425884
0.42235
0.418397
0.417286
0.417722
0.419524
0.424645
0.436074
0.448314
0.47164
0.493983
0.537212
0.579315
0.596819
0.601123
0.598243
0.589191
0.575911
0.554716
0.506151
0.493718
0.586951
0.713773
0.778305
0.809854
0.822665
0.825737
0.825757
0.819295
0.805658
0.800882
0.799772
0.79984
0.802182
0.807307
0.808901
0.809003
0.808141
0.804846
0.797239
0.783263
0.761691
0.733154
0.711097
0.703528
0.699736
0.696988
0.696215
0.696553
0.697269
0.697606
0.69743
0.694372
0.687323
0.679882
0.674992
0.668334
0.658578
0.651506
0.648704
0.645538
0.642435
0.641463
0.642048
0.641731
0.643725
0.645105
0.646098
0.648014
0.650576
0.654113
0.660166
0.671006
0.689494
0.719726
0.763794
0.815525
0.864603
0.898519
0.922344
0.939269
0.952534
0.963363
0.972495
0.98008
0.986045
0.99035
0.993208
0.994908
0.995812
0.995952
0.995087
0.992995
0.990675
0.988165
0.983748
0.970725
0.948877
0.936901
0.934053
0.935353
0.937909
0.938088
0.936187
0.925022
0.90582
0.894996
0.891269
0.89101
0.892769
0.899641
0.904682
0.90635
0.906403
0.905271
0.89932
0.884197
0.87147
0.863367
0.85948
0.858449
0.858557
0.860016
0.867071
0.889767
0.913362
0.930883
0.944104
0.954646
0.963585
0.971488
0.978578
0.984805
0.989903
0.993689
0.996164
0.997452
0.997837
0.99782
0.997454
0.995961
0.991309
0.978119
0.942184
0.832271
0.647736
0.482158
0.346203
0.240373
0.161572
0.105105
0.0660991
0.0401231
0.0234777
0.0132294
0.00718002
0.00375237
0.00189013
0.000917093
0.000429034
0.000193147
8.3651e-05
3.49043e-05
1.35291e-05
0.722901
0.709321
0.680459
0.639447
0.591852
0.553236
0.521775
0.500269
0.484679
0.472371
0.4618
0.451943
0.442384
0.432848
0.422999
0.414591
0.408377
0.404184
0.403326
0.403559
0.404507
0.406763
0.409518
0.415403
0.420623
0.432134
0.446978
0.467225
0.507399
0.564654
0.588485
0.592813
0.587771
0.576165
0.55196
0.504719
0.544831
0.707775
0.780159
0.810476
0.821385
0.823934
0.82354
0.815899
0.801413
0.794636
0.792621
0.79238
0.79353
0.798252
0.805341
0.807288
0.807457
0.80678
0.803856
0.796764
0.783376
0.762162
0.733662
0.703322
0.688281
0.682151
0.676459
0.666761
0.652845
0.638314
0.621072
0.597444
0.570998
0.547501
0.530499
0.520577
0.517722
0.519782
0.530732
0.545065
0.559609
0.574312
0.588864
0.600886
0.610255
0.619065
0.625901
0.63082
0.634963
0.638349
0.640837
0.642788
0.644332
0.646529
0.650758
0.659061
0.674971
0.704326
0.752225
0.802138
0.84174
0.872262
0.896552
0.918912
0.940066
0.958883
0.974114
0.985134
0.99199
0.99563
0.997308
0.997985
0.998079
0.997323
0.995574
0.993867
0.990451
0.980264
0.958892
0.945797
0.94094
0.939822
0.939408
0.938082
0.931532
0.914943
0.903739
0.899112
0.898349
0.899095
0.903315
0.907495
0.90894
0.909042
0.90841
0.904776
0.893063
0.881347
0.873632
0.869504
0.867944
0.8677
0.868024
0.870284
0.880087
0.907123
0.931209
0.947846
0.959244
0.967573
0.974184
0.979765
0.984612
0.988833
0.992395
0.995179
0.997107
0.998239
0.998718
0.998799
0.998723
0.998259
0.996586
0.991425
0.976366
0.932866
0.800916
0.617193
0.456965
0.325593
0.223184
0.147049
0.0930275
0.0564838
0.0329117
0.0184169
0.00990369
0.00512243
0.00254891
0.00122103
0.000562847
0.000249422
0.000106639
4.25368e-05
0.72208
0.703009
0.672432
0.625412
0.576352
0.539098
0.511669
0.49326
0.479069
0.466704
0.453452
0.437714
0.419382
0.398268
0.374434
0.354772
0.342311
0.34205
0.347268
0.360073
0.372942
0.38346
0.392211
0.401476
0.407894
0.414222
0.422729
0.442748
0.471872
0.51548
0.557177
0.577113
0.581439
0.571042
0.529247
0.523994
0.676495
0.773458
0.808373
0.820207
0.82292
0.822557
0.815489
0.803337
0.792395
0.78834
0.787407
0.787422
0.788978
0.794263
0.803046
0.806131
0.806512
0.806047
0.803429
0.796673
0.78357
0.76226
0.732302
0.696677
0.664989
0.644937
0.63456
0.618168
0.588332
0.548636
0.509887
0.475221
0.450294
0.439146
0.434488
0.433916
0.444608
0.465045
0.481091
0.500618
0.523558
0.547467
0.569855
0.588569
0.605065
0.616111
0.624307
0.630458
0.635432
0.639319
0.641977
0.643907
0.644842
0.645369
0.645972
0.647341
0.649855
0.654076
0.662895
0.679495
0.702039
0.727052
0.755858
0.789153
0.829098
0.87428
0.915118
0.948925
0.9726
0.98677
0.994115
0.997388
0.99858
0.99891
0.998871
0.998399
0.997168
0.994004
0.982606
0.963293
0.951891
0.947271
0.94556
0.943439
0.937621
0.9223
0.910416
0.90512
0.904059
0.90462
0.908061
0.911268
0.912141
0.912086
0.91116
0.90666
0.895012
0.885968
0.881057
0.879145
0.878751
0.878813
0.879329
0.881112
0.887027
0.906493
0.932641
0.953193
0.967454
0.976473
0.982004
0.985621
0.988409
0.990911
0.993246
0.995305
0.996959
0.998153
0.998897
0.999257
0.999353
0.999337
0.999172
0.998487
0.99622
0.989261
0.968499
0.904881
0.737487
0.557296
0.403126
0.278909
0.184493
0.116665
0.0705396
0.0408099
0.0226124
0.0120162
0.00613115
0.00300784
0.00141992
0.000644348
0.000282345
0.000115906
0.722035
0.701821
0.669799
0.617634
0.567861
0.532428
0.507468
0.489859
0.474372
0.457135
0.43268
0.399807
0.358
0.314466
0.280281
0.260159
0.2499
0.248508
0.2536
0.267942
0.295117
0.325229
0.35273
0.3753
0.391707
0.40316
0.413195
0.421012
0.436785
0.486961
0.538131
0.568991
0.566202
0.548366
0.533154
0.622461
0.758775
0.804721
0.81985
0.823715
0.823984
0.819995
0.811263
0.801386
0.790906
0.785094
0.784158
0.784301
0.785494
0.789452
0.797918
0.803851
0.804806
0.804567
0.80215
0.795154
0.780964
0.756995
0.721236
0.674257
0.622271
0.598711
0.584221
0.559999
0.508353
0.456258
0.415154
0.38602
0.369705
0.362108
0.359573
0.363109
0.380762
0.391049
0.416254
0.450849
0.482802
0.520523
0.554607
0.583579
0.604173
0.61719
0.628675
0.639042
0.646902
0.652008
0.655176
0.657511
0.658947
0.659224
0.658117
0.656404
0.654265
0.653037
0.653699
0.657145
0.662581
0.669013
0.676044
0.685028
0.699553
0.727049
0.779314
0.850829
0.914875
0.956429
0.979953
0.991704
0.996827
0.998712
0.99927
0.999384
0.999249
0.998429
0.994949
0.980964
0.964676
0.956522
0.953569
0.952057
0.949113
0.939162
0.923542
0.914791
0.912049
0.912035
0.913996
0.916981
0.91776
0.9176
0.916161
0.909718
0.897359
0.889054
0.885326
0.884557
0.88495
0.887156
0.889467
0.892496
0.899274
0.916579
0.937733
0.95633
0.970965
0.981404
0.988075
0.99182
0.993701
0.994715
0.995545
0.996471
0.997449
0.998315
0.998966
0.999385
0.999597
0.999662
0.999659
0.999588
0.999263
0.998132
0.994526
0.983301
0.948511
0.834857
0.639639
0.464586
0.321131
0.21136
0.132582
0.0793697
0.0454165
0.0248802
0.0130673
0.00658551
0.00318747
0.00148096
0.000664124
0.000280094
0.722337
0.703077
0.670171
0.615644
0.565302
0.530729
0.506285
0.488315
0.471038
0.445167
0.408169
0.362452
0.31466
0.274422
0.248424
0.235673
0.229343
0.224864
0.219474
0.2308
0.252973
0.279328
0.306553
0.333058
0.356367
0.376103
0.389171
0.405145
0.435899
0.491844
0.538411
0.551975
0.550669
0.549634
0.580309
0.736647
0.798266
0.818993
0.825016
0.826056
0.824818
0.819795
0.811292
0.802075
0.792236
0.78443
0.781615
0.781196
0.781538
0.783119
0.787766
0.796261
0.800339
0.800651
0.798786
0.790411
0.771541
0.737829
0.683412
0.628419
0.593895
0.573016
0.55029
0.500583
0.434754
0.370874
0.330486
0.305615
0.288979
0.281635
0.279527
0.286617
0.307215
0.332849
0.374098
0.418827
0.465713
0.509514
0.549471
0.582811
0.608033
0.628516
0.644712
0.658512
0.669416
0.677239
0.682127
0.684471
0.686324
0.686977
0.686531
0.685149
0.681645
0.67525
0.667874
0.662775
0.661656
0.663155
0.665662
0.668492
0.672314
0.67853
0.69115
0.720078
0.791833
0.883587
0.942379
0.974311
0.989755
0.996312
0.99872
0.999447
0.999591
0.999504
0.9987
0.994392
0.979029
0.966111
0.960532
0.958782
0.957732
0.95526
0.945773
0.93225
0.925468
0.923795
0.924109
0.92625
0.9274
0.927318
0.925954
0.919396
0.905187
0.895235
0.890258
0.888768
0.888755
0.889625
0.892902
0.901142
0.913592
0.929173
0.945743
0.961073
0.973748
0.983237
0.989743
0.993849
0.996151
0.99724
0.997708
0.998008
0.998353
0.998761
0.999161
0.999478
0.999687
0.999795
0.999828
0.999826
0.999787
0.999606
0.998952
0.996786
0.989739
0.966748
0.889876
0.696203
0.502939
0.344491
0.224065
0.138677
0.0818518
0.0461711
0.0249404
0.0129206
0.00642937
0.0030723
0.001417
0.000615317
0.723651
0.713155
0.681824
0.620765
0.567163
0.535198
0.510044
0.490101
0.470894
0.441602
0.400509
0.351761
0.304098
0.266616
0.244613
0.234692
0.230633
0.229528
0.231297
0.242301
0.260846
0.283039
0.307284
0.330303
0.351226
0.370247
0.38765
0.409544
0.449376
0.511966
0.540046
0.549832
0.554189
0.581008
0.709596
0.789349
0.816734
0.82577
0.827976
0.828059
0.825752
0.82037
0.812746
0.804865
0.796571
0.786635
0.781267
0.7793
0.779246
0.780089
0.78171
0.785886
0.790959
0.793146
0.790618
0.777955
0.748085
0.69796
0.644133
0.603001
0.581207
0.554495
0.505875
0.440678
0.367016
0.305286
0.27073
0.25216
0.241723
0.23822
0.238476
0.252884
0.273006
0.303882
0.348818
0.405274
0.461928
0.510833
0.55742
0.598557
0.632366
0.658009
0.672657
0.682297
0.690992
0.70047
0.709747
0.715794
0.718318
0.719194
0.71937
0.719235
0.718718
0.716312
0.708923
0.697854
0.686982
0.679447
0.675484
0.673997
0.674119
0.67615
0.68121
0.691552
0.712898
0.770599
0.868601
0.936234
0.972203
0.989204
0.996237
0.998786
0.999555
0.999699
0.999611
0.99876
0.994074
0.979716
0.969877
0.966373
0.965546
0.965183
0.964076
0.958506
0.947753
0.94212
0.940617
0.940697
0.94118
0.941135
0.940346
0.936682
0.924089
0.910478
0.902535
0.899178
0.898446
0.898656
0.900334
0.906718
0.921253
0.936676
0.951616
0.964991
0.976029
0.984446
0.990404
0.994345
0.996749
0.99805
0.998653
0.998916
0.999085
0.999264
0.999456
0.999634
0.999773
0.999861
0.999904
0.999915
0.999913
0.999885
0.999762
0.999308
0.997734
0.992333
0.973686
0.908807
0.720855
0.513161
0.34609
0.2214
0.134729
0.078203
0.0434089
0.0230879
0.0117897
0.00578164
0.00273753
0.00122561
0.726589
0.72167
0.695021
0.634314
0.579401
0.548949
0.522642
0.505452
0.487455
0.455368
0.413936
0.369189
0.331936
0.301909
0.275621
0.26311
0.257419
0.255622
0.257215
0.268801
0.280659
0.297607
0.317851
0.337817
0.357839
0.377757
0.401092
0.438015
0.495433
0.529836
0.544827
0.557037
0.585685
0.688362
0.779566
0.813186
0.825301
0.829142
0.829932
0.829753
0.827662
0.822913
0.817558
0.812258
0.805771
0.795741
0.784228
0.778999
0.776571
0.776463
0.777289
0.778056
0.781195
0.777155
0.770598
0.752516
0.714688
0.662908
0.616288
0.592219
0.568869
0.523735
0.471957
0.402183
0.323993
0.26882
0.239746
0.224941
0.217646
0.21512
0.215916
0.228905
0.249738
0.285018
0.33576
0.401499
0.474181
0.54672
0.607264
0.654212
0.685018
0.701323
0.709287
0.71191
0.713748
0.716954
0.724595
0.735268
0.744332
0.750903
0.75457
0.756136
0.756831
0.757151
0.757017
0.75356
0.743101
0.730492
0.719783
0.712209
0.706663
0.701791
0.69816
0.697999
0.706035
0.732809
0.796105
0.878402
0.939909
0.974486
0.990262
0.996675
0.998966
0.999652
0.999778
0.999704
0.999015
0.995378
0.984228
0.976285
0.973784
0.973685
0.974058
0.973942
0.972377
0.966628
0.961943
0.959875
0.959077
0.958461
0.957319
0.954683
0.946976
0.936434
0.928341
0.923382
0.921125
0.92057
0.920682
0.921973
0.927565
0.941923
0.956302
0.96852
0.97835
0.9858
0.991127
0.994721
0.996993
0.99831
0.998993
0.999318
0.999482
0.999597
0.999699
0.999791
0.999865
0.999917
0.999947
0.999959
0.999961
0.999957
0.999932
0.999827
0.999435
0.998005
0.992818
0.973983
0.905852
0.707896
0.494615
0.327123
0.205219
0.122535
0.0698569
0.0381196
0.0199585
0.0100336
0.00486969
0.00224072
0.729786
0.727614
0.707957
0.654457
0.606603
0.569834
0.536311
0.520668
0.509959
0.495855
0.47016
0.430631
0.394584
0.36478
0.33835
0.318801
0.309
0.304296
0.303075
0.308294
0.319162
0.330537
0.349133
0.36738
0.391592
0.421666
0.458974
0.498891
0.522974
0.543846
0.562014
0.595176
0.687765
0.772959
0.809549
0.823886
0.829102
0.830686
0.830975
0.830811
0.829534
0.826785
0.823448
0.819922
0.814964
0.807385
0.796033
0.782781
0.776417
0.772498
0.771427
0.773404
0.768091
0.762568
0.750388
0.72221
0.679698
0.633597
0.606277
0.584017
0.555478
0.51006
0.452565
0.380874
0.304001
0.251618
0.22525
0.212225
0.205949
0.203594
0.205758
0.216064
0.237098
0.276731
0.33141
0.415294
0.514389
0.601322
0.675363
0.729422
0.757142
0.763885
0.763565
0.761559
0.758858
0.754361
0.751137
0.753459
0.764011
0.779561
0.793566
0.803144
0.810001
0.814735
0.815925
0.815812
0.814438
0.807388
0.79538
0.785269
0.778132
0.771017
0.76124
0.750231
0.743542
0.746056
0.778482
0.848682
0.910955
0.954338
0.980067
0.992469
0.997451
0.999219
0.999748
0.999849
0.999812
0.999444
0.997603
0.991048
0.984717
0.982255
0.982027
0.982676
0.983078
0.982942
0.981757
0.978961
0.977299
0.976329
0.974831
0.971046
0.96401
0.95838
0.955185
0.953397
0.951814
0.950243
0.949199
0.948913
0.949226
0.951847
0.961287
0.972811
0.981635
0.988074
0.992563
0.995556
0.997451
0.998577
0.999197
0.999517
0.999681
0.999777
0.999843
0.999894
0.999932
0.999958
0.999974
0.999981
0.999983
0.999983
0.999977
0.99995
0.999839
0.999412
0.997779
0.991573
0.968194
0.881392
0.660144
0.451659
0.292157
0.179413
0.105009
0.0587571
0.0315207
0.0162304
0.00806579
0.00380823
0.731693
0.730661
0.715692
0.680397
0.630422
0.58742
0.560182
0.538332
0.523509
0.516709
0.507587
0.494422
0.47601
0.457876
0.443093
0.426885
0.416387
0.409612
0.406361
0.405475
0.410007
0.417968
0.430636
0.445197
0.464164
0.482893
0.504202
0.53142
0.553164
0.58094
0.626207
0.701742
0.772926
0.806767
0.821891
0.828003
0.830331
0.831087
0.831242
0.831149
0.830415
0.828859
0.826891
0.824764
0.821663
0.816769
0.809034
0.796691
0.780899
0.772846
0.768309
0.764477
0.763398
0.757345
0.743478
0.718796
0.678285
0.629815
0.593766
0.575358
0.550859
0.512809
0.459193
0.390449
0.314705
0.259682
0.229699
0.213999
0.203806
0.200268
0.203275
0.212587
0.233314
0.27503
0.343103
0.43032
0.531541
0.63039
0.718826
0.790865
0.838038
0.858637
0.861077
0.858036
0.849887
0.836756
0.820842
0.809726
0.80682
0.81586
0.83899
0.860457
0.879386
0.900022
0.912597
0.91396
0.913047
0.909905
0.900536
0.885012
0.874101
0.868771
0.862951
0.851532
0.835666
0.822573
0.820257
0.845224
0.903435
0.945719
0.972034
0.98721
0.995008
0.998302
0.999478
0.999833
0.999908
0.999899
0.999768
0.999127
0.996557
0.992636
0.990338
0.989633
0.989675
0.989991
0.990037
0.989881
0.989186
0.988585
0.987902
0.986383
0.981971
0.976959
0.97421
0.973225
0.972979
0.972803
0.972303
0.971465
0.971211
0.971401
0.97311
0.979458
0.986632
0.991643
0.994949
0.997032
0.998297
0.999038
0.999456
0.999683
0.999806
0.999877
0.999921
0.999951
0.99997
0.999982
0.999989
0.999993
0.999993
0.999993
0.999992
0.999984
0.999948
0.999803
0.999223
0.996921
0.987901
0.953272
0.823869
0.587663
0.391987
0.247512
0.14867
0.0852551
0.0468308
0.0246796
0.0125466
0.00607091
0.733525
0.736901
0.731429
0.7051
0.66815
0.640457
0.614705
0.580772
0.563347
0.549092
0.534371
0.527239
0.516868
0.508838
0.502647
0.493525
0.489011
0.485207
0.483559
0.483124
0.486047
0.492057
0.500706
0.513088
0.527789
0.547556
0.570426
0.600685
0.634805
0.683679
0.735073
0.776223
0.804602
0.818305
0.824938
0.828678
0.830334
0.830971
0.831109
0.831032
0.830454
0.829318
0.827944
0.826531
0.82461
0.821692
0.817067
0.809271
0.796491
0.777945
0.769721
0.76097
0.75403
0.752597
0.744315
0.724034
0.685831
0.637138
0.596503
0.573
0.553103
0.520405
0.476098
0.415479
0.344396
0.285515
0.247383
0.226164
0.211993
0.210819
0.214429
0.225881
0.253124
0.293774
0.354027
0.432953
0.53605
0.655914
0.770695
0.852112
0.893972
0.917482
0.931476
0.94016
0.944165
0.94278
0.931943
0.913295
0.896084
0.887442
0.893415
0.919175
0.950303
0.967213
0.976301
0.980094
0.980417
0.980089
0.978678
0.974133
0.966502
0.961341
0.958712
0.955254
0.947817
0.937144
0.923356
0.912916
0.916375
0.944924
0.97008
0.984957
0.993045
0.997181
0.999014
0.99969
0.999899
0.999948
0.999948
0.999908
0.999709
0.998909
0.997204
0.995832
0.995063
0.994793
0.994745
0.994733
0.994705
0.994606
0.994398
0.994001
0.992991
0.990433
0.988362
0.987411
0.987131
0.986965
0.986554
0.985742
0.985268
0.985213
0.985523
0.987351
0.991671
0.994985
0.997111
0.998373
0.999091
0.999489
0.999708
0.999829
0.999897
0.999938
0.999963
0.999978
0.999988
0.999993
0.999996
0.999997
0.999998
0.999998
0.999997
0.999994
0.999981
0.999925
0.999692
0.998732
0.994841
0.979413
0.920023
0.727632
0.499046
0.323826
0.199504
0.117173
0.0658543
0.0354885
0.0184384
0.00913111
0.735736
0.743655
0.746739
0.737458
0.714723
0.69068
0.671793
0.656147
0.644382
0.632023
0.624984
0.620374
0.618085
0.616331
0.615314
0.614792
0.614596
0.614814
0.616164
0.619266
0.624682
0.630074
0.636511
0.647547
0.661649
0.677155
0.694192
0.715386
0.73829
0.765026
0.786028
0.804209
0.813573
0.820297
0.824563
0.827817
0.829099
0.829466
0.829433
0.829303
0.82893
0.828281
0.82735
0.826285
0.824778
0.82261
0.819512
0.814826
0.806862
0.794235
0.777728
0.763547
0.754217
0.746648
0.742799
0.733798
0.711641
0.665593
0.612714
0.579302
0.558234
0.533837
0.506438
0.46206
0.404422
0.340612
0.290141
0.261241
0.24097
0.240503
0.245927
0.261652
0.294986
0.329025
0.381911
0.454103
0.555448
0.691295
0.811231
0.872699
0.906057
0.928079
0.944412
0.957125
0.966837
0.973497
0.977048
0.977845
0.976062
0.971895
0.969687
0.973969
0.984897
0.990992
0.994033
0.995696
0.996309
0.996331
0.996256
0.995939
0.994907
0.993307
0.992266
0.991038
0.988599
0.985789
0.983523
0.980809
0.976507
0.972742
0.975184
0.985177
0.992512
0.996593
0.998604
0.999496
0.999836
0.999945
0.999971
0.999972
0.999958
0.999882
0.999568
0.998865
0.998298
0.997985
0.997884
0.997876
0.997879
0.997871
0.997828
0.997706
0.997365
0.996415
0.995554
0.995175
0.995074
0.994966
0.994651
0.99394
0.993432
0.993274
0.993321
0.993804
0.995593
0.997425
0.998566
0.999218
0.999573
0.999761
0.999863
0.999919
0.999952
0.999972
0.999984
0.999991
0.999995
0.999998
0.999999
0.999999
0.999999
0.999999
0.999999
0.999998
0.999992
0.999967
0.999861
0.999412
0.997545
0.989953
0.960004
0.845503
0.606705
0.404867
0.255675
0.153695
0.0883243
0.0486395
0.0258078
0.0130694
0.73686
0.745651
0.752406
0.751697
0.7457
0.741041
0.738536
0.736654
0.735361
0.735052
0.736424
0.737931
0.738704
0.74152
0.744416
0.74629
0.748714
0.750009
0.751154
0.751995
0.752114
0.752038
0.752743
0.756119
0.760745
0.765206
0.77047
0.777114
0.785676
0.795068
0.804746
0.811071
0.814859
0.81927
0.821736
0.823128
0.823437
0.822512
0.821581
0.820925
0.82042
0.820589
0.821158
0.821701
0.821447
0.820492
0.818526
0.815096
0.809875
0.801726
0.793523
0.775441
0.759278
0.74818
0.741559
0.734498
0.725506
0.706973
0.666314
0.60716
0.573037
0.547974
0.523385
0.502333
0.467318
0.425535
0.382685
0.347951
0.31731
0.314253
0.318828
0.332854
0.356246
0.380766
0.423732
0.482786
0.580525
0.722643
0.823454
0.875465
0.9064
0.928071
0.944957
0.958602
0.969586
0.978282
0.984771
0.989195
0.99196
0.993452
0.994377
0.99537
0.996891
0.998094
0.998799
0.999195
0.999424
0.999491
0.999492
0.999479
0.999431
0.999279
0.999109
0.998875
0.998334
0.997351
0.996583
0.996202
0.995928
0.995377
0.993888
0.992622
0.993454
0.99653
0.998459
0.999379
0.999774
0.999924
0.999972
0.999983
0.999983
0.999974
0.999927
0.999745
0.99946
0.999263
0.99918
0.999171
0.999196
0.999224
0.999224
0.999203
0.999115
0.998801
0.998462
0.998323
0.998291
0.998252
0.998125
0.99775
0.997437
0.997324
0.997331
0.997508
0.998232
0.998994
0.999454
0.999707
0.999838
0.999907
0.999944
0.999966
0.999979
0.999988
0.999993
0.999996
0.999998
0.999999
1
1
1
1
1
0.999999
0.999996
0.999984
0.999929
0.999693
0.998694
0.994553
0.977885
0.913131
0.71089
0.484929
0.313453
0.192639
0.113069
0.0635613
0.0344038
0.0177965
0.737285
0.745954
0.756653
0.757812
0.756751
0.756381
0.758598
0.76527
0.771351
0.777589
0.784945
0.791158
0.798277
0.80292
0.808885
0.811663
0.813158
0.813628
0.812915
0.810702
0.809029
0.806284
0.803298
0.801697
0.800587
0.800253
0.800857
0.80199
0.803772
0.806972
0.80993
0.812223
0.814165
0.816207
0.81702
0.817548
0.817514
0.816729
0.8151
0.813474
0.811924
0.810473
0.809432
0.80901
0.809093
0.809628
0.81032
0.810202
0.808088
0.803045
0.797164
0.790104
0.775867
0.756588
0.744693
0.736211
0.727747
0.71955
0.705193
0.676261
0.617955
0.576654
0.548485
0.523974
0.498212
0.47997
0.449449
0.425352
0.406142
0.392866
0.393223