/*--------------------------------*- C++ -*----------------------------------*\
  =========                 |
  \\      /  F ield         | OpenFOAM: The Open Source CFD Toolbox
   \\    /   O peration     | Website:  https://openfoam.org
    \\  /    A nd           | Version:  9
     \\/     M anipulation  |
\*---------------------------------------------------------------------------*/
FoamFile
{
    format      ascii;
    class       volVectorField;
    location    "0.037";
    object      U_0;
}
// * * * * * * * * * * * * * * * * * * * * * * * * * * * * * * * * * * * * * //

dimensions      [0 1 -1 0 0 0 0];

internalField   nonuniform List<vector> 
12225
(
(9.79906 0.00222317 0)
(9.37898 0.0634712 0)
(8.93986 0.0691196 0)
(8.65204 0.0431269 0)
(8.48373 0.0250085 0)
(8.33931 0.024169 0)
(8.14768 0.0379768 0)
(7.87689 0.0572069 0)
(7.52555 0.0698993 0)
(7.13729 0.0698745 0)
(6.74833 0.0615138 0)
(6.40007 0.0548305 0)
(6.05024 0.0582798 0)
(5.71176 0.0732845 0)
(5.28377 0.100826 0)
(4.80316 0.136677 0)
(4.17676 0.177163 0)
(3.35429 0.277154 0)
(10.0306 0.0168388 0)
(9.99974 0.105094 0)
(10.0058 0.0848795 0)
(9.99508 0.0562153 0)
(9.97601 0.0477355 0)
(9.95791 0.0571086 0)
(9.94875 0.0775499 0)
(9.9562 0.105451 0)
(9.95829 0.133523 0)
(9.93438 0.154015 0)
(9.85934 0.161874 0)
(9.74517 0.163893 0)
(9.5777 0.169309 0)
(9.38305 0.186926 0)
(9.132 0.226962 0)
(8.84242 0.284401 0)
(8.48091 0.380969 0)
(8.02516 0.514004 0)
(10.0023 0.0118083 0)
(9.9798 0.0822044 0)
(9.96541 0.0912771 0)
(9.92671 0.0628355 0)
(9.88889 0.0364049 0)
(9.86082 0.0278385 0)
(9.84152 0.0333126 0)
(9.8472 0.0502077 0)
(9.88755 0.0739742 0)
(9.95212 0.0990972 0)
(10.0136 0.121538 0)
(10.0499 0.145688 0)
(10.0437 0.178402 0)
(9.9914 0.225733 0)
(9.89189 0.292809 0)
(9.75195 0.382323 0)
(9.58204 0.502524 0)
(9.38944 0.67291 0)
(10.1202 -0.0176641 0)
(10.108 0.0772299 0)
(10.2042 0.0785109 0)
(10.2656 0.0629169 0)
(10.2329 0.0630252 0)
(10.1658 0.0775364 0)
(10.1174 0.093283 0)
(10.091 0.105028 0)
(10.0646 0.113242 0)
(10.0194 0.121343 0)
(9.95003 0.133614 0)
(9.864 0.156476 0)
(9.77322 0.195507 0)
(9.68967 0.254692 0)
(9.6151 0.335795 0)
(9.54867 0.440666 0)
(9.48562 0.572323 0)
(9.43095 0.740963 0)
(10.0211 0.0639079 0)
(9.90465 0.056359 0)
(9.87533 0.0712761 0)
(9.88859 0.0758865 0)
(9.9158 0.0709811 0)
(9.94368 0.055311 0)
(9.96401 0.0420933 0)
(9.97867 0.0509567 0)
(9.98568 0.0841832 0)
(9.97427 0.130036 0)
(9.93534 0.1759 0)
(9.8712 0.217587 0)
(9.79299 0.258209 0)
(9.7158 0.307272 0)
(9.65066 0.373524 0)
(9.59928 0.46586 0)
(9.56525 0.588184 0)
(9.54296 0.745961 0)
(9.69896 0.0489264 0)
(9.73282 0.112315 0)
(9.8895 0.0775674 0)
(10.0586 0.0297865 0)
(10.1677 0.0335507 0)
(10.1912 0.064838 0)
(10.1314 0.0926695 0)
(10.0375 0.112513 0)
(9.96396 0.130815 0)
(9.93357 0.15349 0)
(9.93717 0.181661 0)
(9.95358 0.215128 0)
(9.96368 0.255224 0)
(9.95582 0.307199 0)
(9.92955 0.376687 0)
(9.8898 0.469962 0)
(9.84964 0.588896 0)
(9.82227 0.736441 0)
(9.78749 -0.0134639 0)
(9.8658 -0.0351333 0)
(9.96913 -0.0172151 0)
(10.0048 0.00608321 0)
(10.0071 0.0417758 0)
(10.0123 0.0704684 0)
(10.01 0.0890438 0)
(9.98785 0.0995645 0)
(9.95372 0.109396 0)
(9.92459 0.127141 0)
(9.90898 0.157341 0)
(9.90464 0.200943 0)
(9.90143 0.257738 0)
(9.89255 0.329064 0)
(9.87269 0.414543 0)
(9.84917 0.51581 0)
(9.82427 0.631024 0)
(9.8214 0.763039 0)
(10.0117 -0.0446764 0)
(9.92556 0.0398745 0)
(9.88454 0.0320151 0)
(9.92436 0.00714766 0)
(10.0384 0.0122203 0)
(10.1508 0.0558764 0)
(10.1926 0.105805 0)
(10.1495 0.146103 0)
(10.0579 0.17286 0)
(9.96333 0.189925 0)
(9.89001 0.205299 0)
(9.83973 0.22846 0)
(9.80265 0.266072 0)
(9.77246 0.324034 0)
(9.7445 0.401698 0)
(9.72648 0.499385 0)
(9.71762 0.610213 0)
(9.7374 0.734532 0)
(9.91729 -0.0129819 0)
(9.83711 0.00206052 0)
(9.87088 -0.00502781 0)
(9.92187 -0.0386499 0)
(9.93694 -0.0314132 0)
(9.91125 0.0192086 0)
(9.86141 0.0902167 0)
(9.82033 0.148571 0)
(9.81108 0.179532 0)
(9.83749 0.19301 0)
(9.88295 0.20859 0)
(9.92139 0.241793 0)
(9.93291 0.296246 0)
(9.91036 0.369524 0)
(9.86241 0.452874 0)
(9.80636 0.543879 0)
(9.76229 0.635663 0)
(9.74638 0.733147 0)
(9.85085 0.0561062 0)
(9.8812 0.0423646 0)
(9.95853 -0.00710313 0)
(9.97895 -0.0327032 0)
(9.92683 0.00734134 0)
(9.87304 0.0792301 0)
(9.85838 0.142805 0)
(9.87287 0.172202 0)
(9.89755 0.170564 0)
(9.91786 0.160178 0)
(9.92932 0.164936 0)
(9.93713 0.199896 0)
(9.94836 0.266623 0)
(9.96601 0.357273 0)
(9.99043 0.456486 0)
(10.0179 0.554797 0)
(10.0531 0.642855 0)
(10.0902 0.72334 0)
(10.0657 -0.0522971 0)
(10.1269 -0.0617948 0)
(10.1008 -0.0319428 0)
(9.96083 -0.00149816 0)
(9.80008 0.0284774 0)
(9.70717 0.0673158 0)
(9.70261 0.102315 0)
(9.7519 0.131602 0)
(9.80341 0.155928 0)
(9.82373 0.177712 0)
(9.80976 0.2016 0)
(9.78394 0.235064 0)
(9.7703 0.28315 0)
(9.78581 0.347008 0)
(9.82749 0.421062 0)
(9.88959 0.500132 0)
(9.95831 0.578673 0)
(10.03 0.656905 0)
(10.3092 0.0391437 0)
(10.1726 0.0408984 0)
(10.0502 0.0615293 0)
(9.99832 0.0746442 0)
(9.99379 0.0925038 0)
(9.99228 0.101664 0)
(9.98338 0.101738 0)
(9.98083 0.105327 0)
(9.99486 0.123349 0)
(10.0204 0.153986 0)
(10.0458 0.188867 0)
(10.0654 0.226318 0)
(10.0823 0.270009 0)
(10.1021 0.325443 0)
(10.1279 0.392531 0)
(10.1586 0.468404 0)
(10.1915 0.547536 0)
(10.2259 0.625615 0)
(10.3604 -0.0668478 0)
(10.2471 0.0597707 0)
(10.1591 0.0615267 0)
(10.1445 0.0381645 0)
(10.1766 0.0596408 0)
(10.1987 0.102424 0)
(10.1784 0.134515 0)
(10.1198 0.147309 0)
(10.0497 0.152588 0)
(9.9905 0.162193 0)
(9.94898 0.180911 0)
(9.92174 0.210617 0)
(9.90521 0.251867 0)
(9.89896 0.305336 0)
(9.90569 0.36877 0)
(9.9305 0.44065 0)
(9.97094 0.514376 0)
(10.0351 0.589534 0)
(10.1976 0.150549 0)
(10.138 0.220476 0)
(10.135 0.118823 0)
(10.0896 0.0423637 0)
(10.0485 0.0396548 0)
(10.0585 0.0736058 0)
(10.0932 0.114392 0)
(10.1195 0.150857 0)
(10.1361 0.18071 0)
(10.1537 0.206297 0)
(10.177 0.232381 0)
(10.2031 0.263995 0)
(10.2238 0.302361 0)
(10.2353 0.346908 0)
(10.2342 0.39225 0)
(10.2273 0.43729 0)
(10.2191 0.47751 0)
(10.2195 0.516081 0)
(9.77894 0.0559576 0)
(9.92914 0.00964078 0)
(9.98123 0.0757385 0)
(9.97752 0.0994398 0)
(9.98185 0.0912571 0)
(10.0216 0.100744 0)
(10.0746 0.12511 0)
(10.1091 0.145166 0)
(10.1149 0.149388 0)
(10.1018 0.142563 0)
(10.0869 0.140013 0)
(10.0844 0.157414 0)
(10.0982 0.200841 0)
(10.1251 0.268054 0)
(10.1565 0.349103 0)
(10.1869 0.432049 0)
(10.2117 0.507901 0)
(10.2336 0.566413 0)
(10.0036 0.0605155 0)
(9.87919 0.0874717 0)
(9.83913 0.117077 0)
(9.86176 0.0665817 0)
(9.92737 -0.00463672 0)
(10.001 -0.0346772 0)
(10.0675 0.00187684 0)
(10.1135 0.0829932 0)
(10.1267 0.164726 0)
(10.1085 0.22052 0)
(10.072 0.249456 0)
(10.0331 0.264993 0)
(10.0038 0.280467 0)
(9.99138 0.305873 0)
(9.99871 0.341912 0)
(10.0248 0.385728 0)
(10.0653 0.42838 0)
(10.1189 0.466399 0)
(9.94093 0.089249 0)
(9.96506 0.0758581 0)
(10.0293 0.0369049 0)
(10.0864 -0.00311955 0)
(10.0811 -0.0378583 0)
(10.0278 -0.0266774 0)
(9.98374 0.0368107 0)
(9.95837 0.121158 0)
(9.9446 0.191002 0)
(9.94559 0.231234 0)
(9.96213 0.24599 0)
(9.98925 0.248911 0)
(10.0206 0.252982 0)
(10.0506 0.266375 0)
(10.0763 0.289559 0)
(10.0983 0.31911 0)
(10.1202 0.348327 0)
(10.1468 0.372682 0)
(9.93962 0.115118 0)
(9.93682 0.0679647 0)
(9.98345 0.0345238 0)
(9.99629 0.081245 0)
(9.98522 0.0917506 0)
(9.96757 0.0791188 0)
(9.9637 0.0863341 0)
(9.98733 0.115289 0)
(10.0337 0.143137 0)
(10.0874 0.15237 0)
(10.1327 0.146205 0)
(10.161 0.143847 0)
(10.1743 0.163142 0)
(10.1801 0.207815 0)
(10.1883 0.265557 0)
(10.2055 0.320611 0)
(10.2359 0.358124 0)
(10.2798 0.373135 0)
(9.87966 -0.0341412 0)
(9.85657 -0.0441861 0)
(9.91173 -0.0671961 0)
(9.92029 -0.0875464 0)
(9.90687 -0.0629031 0)
(9.91668 -0.0285139 0)
(9.94049 -0.00592652 0)
(9.96933 0.0121293 0)
(10.0065 0.0417173 0)
(10.0442 0.0904087 0)
(10.0673 0.151314 0)
(10.071 0.208153 0)
(10.0626 0.244663 0)
(10.0545 0.252206 0)
(10.0555 0.231092 0)
(10.0707 0.192155 0)
(10.0982 0.143794 0)
(10.1374 0.102242 0)
(10.1252 -0.0392973 0)
(10.0499 -0.0677792 0)
(10.0077 0.0305758 0)
(9.95438 0.106832 0)
(9.90129 0.109537 0)
(9.88172 0.0654197 0)
(9.89308 0.0149442 0)
(9.90975 -0.012491 0)
(9.92776 -0.00668078 0)
(9.9583 0.0280999 0)
(10.0067 0.0823257 0)
(10.0664 0.142028 0)
(10.1245 0.192147 0)
(10.1717 0.223195 0)
(10.2019 0.230587 0)
(10.2161 0.219007 0)
(10.2169 0.193089 0)
(10.2126 0.161163 0)
(10.034 -0.0785786 0)
(9.99115 0.0307731 0)
(10.0145 0.0338892 0)
(10.0502 0.0135959 0)
(10.058 -0.00269407 0)
(10.0561 -0.0167645 0)
(10.0565 -0.0295622 0)
(10.0607 -0.0361178 0)
(10.0683 -0.0350663 0)
(10.0839 -0.0275007 0)
(10.1109 -0.00983512 0)
(10.1463 0.0219622 0)
(10.1836 0.0656732 0)
(10.2164 0.112476 0)
(10.239 0.148118 0)
(10.249 0.163192 0)
(10.2485 0.153287 0)
(10.2393 0.118795 0)
(10.0937 -0.00636526 0)
(10.1171 0.0155444 0)
(10.1771 0.0615474 0)
(10.1729 0.112072 0)
(10.1158 0.104866 0)
(10.0814 0.0563449 0)
(10.0997 0.0033572 0)
(10.1439 -0.0332913 0)
(10.1748 -0.0482824 0)
(10.1765 -0.0428289 0)
(10.1593 -0.0186477 0)
(10.1442 0.022811 0)
(10.1473 0.0760721 0)
(10.1729 0.131409 0)
(10.2187 0.177542 0)
(10.2737 0.205642 0)
(10.3287 0.212825 0)
(10.3709 0.198076 0)
(9.93126 0.0487744 0)
(10.0696 -0.0504127 0)
(10.0848 -0.0229657 0)
(10.1458 0.0591464 0)
(10.236 0.0653938 0)
(10.2929 -0.00363858 0)
(10.2743 -0.0761312 0)
(10.2011 -0.0950641 0)
(10.1179 -0.0597899 0)
(10.0559 -0.00670529 0)
(10.0279 0.0299729 0)
(10.0333 0.0396351 0)
(10.0643 0.0303912 0)
(10.1117 0.016951 0)
(10.1669 0.00862213 0)
(10.2217 0.00741782 0)
(10.2701 0.0116681 0)
(10.3069 0.0167888 0)
(10.1557 -0.0585393 0)
(10.1318 -0.0606303 0)
(10.035 0.00583068 0)
(9.98075 0.00236002 0)
(10.0211 -0.0107586 0)
(10.1009 0.0182406 0)
(10.1605 0.0659158 0)
(10.1914 0.0885315 0)
(10.2063 0.0741346 0)
(10.2167 0.0392777 0)
(10.2293 0.00546362 0)
(10.2472 -0.0131532 0)
(10.2716 -0.0123058 0)
(10.3021 0.00545221 0)
(10.3374 0.033771 0)
(10.3736 0.0635234 0)
(10.4067 0.0879324 0)
(10.4302 0.0993486 0)
(9.95953 -0.023639 0)
(9.80475 0.0463949 0)
(9.85789 0.100362 0)
(9.91909 0.0555075 0)
(9.95095 -0.0313749 0)
(9.9866 -0.101827 0)
(10.0335 -0.124748 0)
(10.086 -0.10216 0)
(10.1316 -0.0570708 0)
(10.1588 -0.0163552 0)
(10.1684 0.00162485 0)
(10.1703 -0.00596855 0)
(10.175 -0.0290645 0)
(10.1898 -0.0531624 0)
(10.2187 -0.0657708 0)
(10.2605 -0.0630592 0)
(10.3114 -0.0469332 0)
(10.3658 -0.023855 0)
(10.1007 0.044371 0)
(10.0319 -0.026826 0)
(10.0787 -0.0537862 0)
(10.111 -0.0444944 0)
(10.0888 -0.0436603 0)
(10.059 -0.0425042 0)
(10.0578 -0.0276219 0)
(10.0838 -0.00692903 0)
(10.1171 0.00426337 0)
(10.1408 0.003244 0)
(10.1505 -0.00431709 0)
(10.1484 -0.0136695 0)
(10.138 -0.0230721 0)
(10.1238 -0.0307838 0)
(10.1103 -0.0341322 0)
(10.1022 -0.0320945 0)
(10.0996 -0.0240396 0)
(10.1031 -0.012661 0)
(10.1142 -0.0571791 0)
(10.0234 0.0490072 0)
(10.0052 0.052549 0)
(10.004 0.039724 0)
(10.0163 -0.00642648 0)
(10.0355 -0.0775515 0)
(10.0453 -0.122944 0)
(10.0488 -0.117256 0)
(10.0599 -0.0764076 0)
(10.0878 -0.0313577 0)
(10.132 -0.00440767 0)
(10.1797 -0.00198255 0)
(10.2128 -0.0179302 0)
(10.2187 -0.040081 0)
(10.1975 -0.0562498 0)
(10.1624 -0.0601502 0)
(10.1276 -0.0506163 0)
(10.1084 -0.033213 0)
(9.92477 0.014474 0)
(9.96019 0.0212059 0)
(10.0701 -0.0307375 0)
(10.1925 -0.0522543 0)
(10.2689 -0.0563393 0)
(10.2684 -0.0578379 0)
(10.2036 -0.0494554 0)
(10.1282 -0.0363316 0)
(10.0916 -0.0333674 0)
(10.1081 -0.0434852 0)
(10.1611 -0.0549127 0)
(10.2225 -0.0542482 0)
(10.2675 -0.037605 0)
(10.2825 -0.0122601 0)
(10.2684 0.00973318 0)
(10.2371 0.0199635 0)
(10.2023 0.0163913 0)
(10.178 0.00219406 0)
(9.87458 -0.0949344 0)
(10.0201 -0.0328944 0)
(10.0723 -0.0182939 0)
(10.0593 -0.0294665 0)
(10.0311 -0.0427614 0)
(10.0269 -0.0506051 0)
(10.0484 -0.0532782 0)
(10.0849 -0.0548156 0)
(10.1246 -0.0591298 0)
(10.1576 -0.0660752 0)
(10.179 -0.0713673 0)
(10.192 -0.0701511 0)
(10.2033 -0.0605389 0)
(10.2185 -0.0446875 0)
(10.2378 -0.0275029 0)
(10.2581 -0.0142372 0)
(10.2758 -0.00735866 0)
(10.2869 -0.00811814 0)
(9.98556 -0.0852509 0)
(9.73889 -0.0819863 0)
(9.60718 -0.0540453 0)
(9.50645 -0.0358976 0)
(9.38597 -0.0407616 0)
(9.2262 -0.0586332 0)
(9.04136 -0.0690949 0)
(8.85851 -0.0675969 0)
(8.68613 -0.0644186 0)
(8.51382 -0.0657933 0)
(8.33533 -0.0672512 0)
(8.16309 -0.061581 0)
(8.01839 -0.0471739 0)
(7.91644 -0.0286517 0)
(7.85737 -0.0127633 0)
(7.83089 -0.00339448 0)
(7.82096 -0.00159091 0)
(7.81246 -0.00649938 0)
(-0.287588 0.644396 -1.44172e-19)
(-0.72576 0.369702 1.42965e-19)
(-0.979298 0.179827 0)
(-1.16569 -0.051173 0)
(-1.15702 -0.250263 0)
(-0.956251 -0.460891 -1.38921e-19)
(-0.588617 -0.638613 0)
(-0.0469123 -0.777623 0)
(0.629239 -0.846684 0)
(1.37084 -0.868566 0)
(2.11219 -0.842049 1.33066e-19)
(2.83732 -0.77603 0)
(3.51728 -0.683819 0)
(4.1241 -0.575537 0)
(4.63781 -0.458891 0)
(5.05385 -0.3415 1.27883e-19)
(5.36588 -0.224266 0)
(5.57658 -0.112715 0)
(5.67865 0.00193412 0)
(5.67715 0.111783 0)
(5.54997 0.23912 0)
(5.3107 0.357735 0)
(4.94792 0.505509 0)
(4.44907 0.62304 1.19896e-19)
(3.85217 0.785729 -1.1889e-19)
(3.03262 0.887187 1.17944e-19)
(2.25243 1.00801 1.17074e-19)
(0.998828 1.14407 0)
(0.119653 0.13105 0)
(-0.492661 -0.0170129 -1.14705e-19)
(-1.1378 0.482389 -1.13593e-19)
(-1.73127 0.655317 0)
(-2.29156 0.536599 0)
(-2.7959 0.332588 -1.10851e-19)
(-3.01261 0.0405883 0)
(-2.88268 -0.288337 0)
(-2.45027 -0.611436 1.07848e-19)
(-1.64066 -0.918575 0)
(-0.522225 -0.981871 1.05666e-19)
(0.395772 -0.844685 2.09226e-19)
(1.22183 -0.801022 0)
(1.31093 -0.0615147 0)
(0.649273 1.10401 0)
(0.85238 0.21907 0)
(1.10228 -1.4202 0)
(1.12609 -2.09784 1.97847e-19)
(1.06632 -0.692521 1.9603e-19)
(-0.252732 1.22559 1.93777e-19)
(-1.9841 1.33815 0)
(-3.29213 1.09072 -1.89652e-19)
(-4.47047 0.939939 0)
(-5.48206 0.804055 1.86734e-19)
(-6.39461 0.705354 1.85521e-19)
(-7.21588 0.632719 0)
(-7.97937 0.581355 0)
(-8.69308 0.543894 0)
(-9.36949 0.51241 1.81187e-19)
(-10.0082 0.481036 0)
(-10.6079 0.445605 0)
(-11.1621 0.405008 0)
(-11.6652 0.360062 0)
(-12.1126 0.312969 0)
(-12.5026 0.266321 0)
(-12.8362 0.222335 0)
(-13.116 0.182191 0)
(-13.3457 0.145867 -1.71124e-19)
(-13.5281 0.112614 0)
(-13.6644 0.081363 0)
(-13.7543 0.0510222 1.66858e-19)
(-13.7966 0.0211687 1.65262e-19)
(-13.7898 -0.00756442 0)
(-13.7391 -0.0356851 -1.6176e-19)
(-13.6391 -0.0636739 1.59867e-19)
(-13.4925 -0.0908348 0)
(-13.2979 -0.117108 -1.55838e-19)
(-13.0581 -0.141968 0)
(-12.7743 -0.164942 0)
(-12.4502 -0.185753 1.49379e-19)
(-12.0884 -0.204137 0)
(-11.6933 -0.219837 -1.44974e-19)
(-11.2688 -0.232779 0)
(-10.8197 -0.242844 1.40616e-19)
(-10.3506 -0.25012 1.38481e-19)
(-9.86631 -0.254728 1.36385e-19)
(-9.37145 -0.256951 2.68664e-19)
(-8.87 -0.257139 -2.64652e-19)
(-8.36541 -0.255694 0)
(-7.8604 -0.253013 0)
(-7.35712 -0.249451 0)
(-6.85699 -0.245331 -2.49554e-19)
(-6.36094 -0.240896 -2.4601e-19)
(-5.86957 -0.236307 2.42551e-19)
(-5.38313 -0.231711 0)
(-4.90142 -0.227321 -2.35876e-19)
(-4.42361 -0.223417 -2.3265e-19)
(-3.94837 -0.220261 -2.29493e-19)
(-3.47398 -0.217985 0)
(-2.99845 -0.216566 0)
(-2.51969 -0.215836 0)
(-2.03613 -0.215366 -2.17482e-19)
(-1.54736 -0.214481 0)
(-1.05412 -0.212889 0)
(-0.558724 -0.210888 2.09125e-19)
(-0.0666122 -0.206645 0)
(0.418801 -0.200002 0)
(0.89353 -0.190976 2.00883e-19)
(1.35159 -0.179634 0)
(1.78769 -0.166198 0)
(2.19682 -0.151061 -1.93111e-19)
(2.57411 -0.134721 -1.90674e-19)
(2.91512 -0.117781 0)
(3.21682 -0.101044 1.85981e-19)
(3.47869 -0.0854323 0)
(3.70277 -0.0714715 -1.81468e-19)
(3.89219 -0.0586385 0)
(4.04879 -0.0455993 -1.77072e-19)
(4.17243 -0.0317312 -1.74908e-19)
(4.26283 -0.0183678 0)
(4.32293 -0.00831329 0)
(4.3615 -0.00340788 0)
(4.39085 -0.0023047 0)
(4.42061 -0.00233849 0)
(4.45434 -0.00212828 0)
(4.48896 0.000255748 0)
(4.51368 0.00719513 -1.57973e-19)
(4.51611 0.0168499 1.55891e-19)
(4.49483 0.0247618 0)
(4.45519 0.0289548 0)
(4.40564 0.0293348 0)
(4.35401 0.0266935 0)
(4.30586 0.0222273 2.91329e-19)
(4.26464 0.0172852 0)
(4.2318 0.0131935 -2.83269e-19)
(4.20745 0.0104578 2.7926e-19)
(4.19096 0.00901118 0)
(4.18073 0.00909021 0)
(4.17391 0.0109443 0)
(4.16674 0.0142702 -2.63384e-19)
(4.15575 0.0183347 -2.59464e-19)
(4.1386 0.0224091 0)
(4.11376 0.0265058 -2.51692e-19)
(4.07977 0.0312258 -2.47842e-19)
(4.03489 0.0369593 2.44017e-19)
(3.97768 0.0431488 0)
(3.90803 0.048235 0)
(3.8281 0.0504803 2.32695e-19)
(3.74214 0.0490447 0)
(3.65518 0.0444101 0)
(3.57152 0.0380503 0)
(3.49365 0.0316921 0)
(3.42215 0.0266397 -2.1427e-19)
(3.35621 0.0234087 -2.10639e-19)
(3.29439 0.0217348 0)
(3.23532 0.0209504 -2.03434e-19)
(3.17825 0.0203179 0)
(3.12323 0.0192965 0)
(3.07097 0.0177089 -1.92772e-19)
(3.02249 0.015678 0)
(2.97863 0.0134743 -1.85758e-19)
(2.93986 0.0113815 0)
(2.90603 0.0095884 0)
(2.87675 0.0081597 -1.75367e-19)
(2.85115 0.00706997 0)
(2.82864 0.00624694 -1.68527e-19)
(2.80812 0.00563172 0)
(2.78938 0.0051651 0)
(2.77106 0.00486592 0)
(2.75359 0.00468854 1.55058e-19)
(2.73499 0.00477267 0)
(2.71645 0.0049784 -1.4843e-19)
(2.69497 0.00571009 0)
(2.67229 0.00636135 0)
(2.64495 0.00818434 0)
(2.61239 0.00922929 0)
(2.57597 0.0134033 0)
(2.51904 0.01451 0)
(2.47351 0.0251099 0)
(2.34897 0.0245716 2.45246e-19)
(2.31534 0.0552299 0)
(1.97561 0.0444194 0)
(0.0529786 1.26501 4.32548e-19)
(0.135105 1.05501 -4.29585e-19)
(0.325261 0.561292 0)
(0.410068 0.343959 2.82228e-19)
(0.753621 -0.100185 0)
(1.24902 -0.724932 1.38608e-19)
(1.87188 -1.3157 -2.74661e-19)
(2.56164 -1.78116 -2.72009e-19)
(3.24798 -2.07491 0)
(3.8985 -2.20342 -2.67052e-19)
(4.49768 -2.1866 -1.31894e-19)
(5.03796 -2.05513 0)
(5.51004 -1.8447 0)
(5.90921 -1.58709 0)
(6.23246 -1.30455 0)
(6.48384 -1.0137 -1.27283e-19)
(6.66355 -0.721627 0)
(6.77884 -0.434833 2.52024e-19)
(6.83058 -0.150081 0)
(6.82464 0.128666 0)
(6.76702 0.412549 -2.46006e-19)
(6.63639 0.696404 0)
(6.45224 0.995475 2.41627e-19)
(6.16647 1.29846 -1.19217e-19)
(5.85162 1.60825 1.18103e-19)
(5.36825 1.92509 -1.17037e-19)
(4.91009 2.17605 -1.16045e-19)
(4.16984 2.46001 0)
(3.43724 2.44313 0)
(2.43037 2.20985 1.13956e-19)
(1.05824 1.72967 -1.13888e-19)
(0.233835 1.18007 0)
(-0.428055 0.990627 0)
(-0.983378 0.784341 1.11236e-19)
(-1.16657 0.185309 0)
(-1.22656 -0.644241 0)
(-1.0896 -1.48109 -1.08097e-19)
(-0.623144 -2.38451 0)
(0.051322 -2.58912 1.05913e-19)
(0.709106 -2.05568 -2.08804e-19)
(0.893581 -0.522195 0)
(1.06328 0.861305 0)
(1.11303 -0.297594 -4.06526e-19)
(1.0538 -1.09162 -4.03162e-19)
(-0.496422 1.05808 -3.98517e-19)
(-2.88193 2.31424 1.97103e-19)
(-4.25915 2.68065 -1.94258e-19)
(-5.26756 2.94048 -5.75959e-19)
(-6.19885 2.63284 3.80747e-19)
(-6.94727 2.37418 1.87799e-19)
(-7.66236 2.07628 0)
(-8.2977 1.8438 -1.85346e-19)
(-8.8883 1.64451 1.85823e-19)
(-9.43242 1.49449 0)
(-9.9406 1.37414 0)
(-10.4165 1.2773 0)
(-10.8611 1.19059 -1.80472e-19)
(-11.2745 1.10585 0)
(-11.6534 1.01668 3.57932e-19)
(-11.9961 0.920744 0)
(-12.3007 0.819131 3.53961e-19)
(-12.5677 0.715214 0)
(-12.7991 0.613237 -3.49757e-19)
(-12.9986 0.516427 0)
(-13.1691 0.426066 3.45175e-19)
(-13.3123 0.341383 -1.7161e-19)
(-13.4282 0.260523 0)
(-13.5153 0.181268 -3.37302e-19)
(-13.5707 0.101614 -1.66908e-19)
(-13.5912 0.0205115 -1.65331e-19)
(-13.5739 -0.0616154 0)
(-13.5092 -0.14473 -1.62297e-19)
(-13.3996 -0.227855 -1.59904e-19)
(-13.2412 -0.309304 0)
(-13.0362 -0.387744 1.55854e-19)
(-12.7847 -0.461712 -3.0782e-19)
(-12.4901 -0.530015 0)
(-12.1546 -0.591707 -1.49371e-19)
(-11.7826 -0.646037 0)
(-11.3776 -0.692414 4.35085e-19)
(-10.9443 -0.730467 0)
(-10.4873 -0.760019 -4.21953e-19)
(-10.0116 -0.78124 -1.38454e-19)
(-9.5222 -0.794615 1.36513e-19)
(-9.02361 -0.800951 2.68903e-19)
(-8.51995 -0.801321 -2.64879e-19)
(-8.01453 -0.796947 0)
(-7.51003 -0.789017 0)
(-7.00844 -0.778595 0)
(-6.5111 -0.766636 7.48766e-19)
(-6.01875 -0.753879 2.45963e-19)
(-5.53188 -0.740793 -2.42506e-19)
(-5.05079 -0.727811 0)
(-4.57531 -0.715576 -2.36064e-19)
(-4.10462 -0.704923 2.32607e-19)
(-3.63714 -0.696647 2.29449e-19)
(-3.17088 -0.691163 0)
(-2.70362 -0.688493 0)
(-2.23298 -0.688271 0)
(-1.75694 -0.689372 2.17429e-19)
(-1.27479 -0.689841 0)
(-0.787135 -0.68838 -4.23787e-19)
(-0.296185 -0.683699 -6.27403e-19)
(0.19355 -0.673382 4.12755e-19)
(0.678247 -0.65564 0)
(1.15356 -0.631042 2.00842e-19)
(1.6132 -0.599994 0)
(2.05217 -0.562843 3.91012e-19)
(2.46709 -0.519698 -1.93051e-19)
(2.85601 -0.470943 -1.90609e-19)
(3.21632 -0.418041 0)
(3.54374 -0.363727 -5.57586e-19)
(3.83521 -0.311254 3.672e-19)
(4.09205 -0.262875 1.81334e-19)
(4.31758 -0.218585 0)
(4.5103 -0.176808 1.76943e-19)
(4.66176 -0.136638 5.24384e-19)
(4.76487 -0.099197 0)
(4.82407 -0.0681587 3.41077e-19)
(4.85506 -0.0486474 3.36848e-19)
(4.87743 -0.0427019 3.32621e-19)
(4.90854 -0.0459229 0)
(4.95668 -0.0496356 0)
(5.01667 -0.0452175 0)
(5.07743 -0.0288128 -1.57883e-19)
(5.12919 -0.0048591 -1.55784e-19)
(5.16047 0.0182306 0)
(5.16558 0.0346892 -3.033e-19)
(5.14555 0.0429745 -2.99202e-19)
(5.10619 0.0444083 0)
(5.05558 0.0411516 -2.91077e-19)
(5.00159 0.0348968 -5.7411e-19)
(4.95109 0.0268581 2.83041e-19)
(4.90959 0.017959 2.79052e-19)
(4.88048 0.00925824 0)
(4.86466 0.0021762 0)
(4.86131 -0.00210741 0)
(4.86858 -0.00312889 2.63196e-19)
(4.88352 -0.00107179 -2.59281e-19)
(4.9026 0.00343746 -5.10747e-19)
(4.92256 0.00968149 2.51487e-19)
(4.94125 0.0171127 -2.47635e-19)
(4.95792 0.0253696 -2.43788e-19)
(4.97285 0.0340122 0)
(4.98653 0.0423037 0)
(4.99888 0.0492766 2.32427e-19)
(5.00892 0.0540436 0)
(5.0149 0.0562445 0)
(5.01489 0.0561724 -4.42535e-19)
(5.00744 0.0545124 0)
(4.99208 0.0520162 -2.1394e-19)
(4.9695 0.0492691 2.10309e-19)
(4.94138 0.0465959 0)
(4.90994 0.0441443 -2.03107e-19)
(4.87731 0.0418421 0)
(4.84515 0.0394137 0)
(4.81454 0.0366025 1.92458e-19)
(4.78612 0.0333093 -3.77893e-19)
(4.76026 0.0296212 1.85455e-19)
(4.73726 0.0257839 0)
(4.71728 0.0220999 0)
(4.70048 0.0188139 -1.75081e-19)
(4.68677 0.016096 0)
(4.67601 0.0139876 -1.68254e-19)
(4.66771 0.0125219 0)
(4.66146 0.011577 0)
(4.65642 0.0112167 0)
(4.65202 0.0111608 -1.54811e-19)
(4.64733 0.0117563 0)
(4.64166 0.0123441 1.48193e-19)
(4.63451 0.0140527 0)
(4.62429 0.0152061 0)
(4.61262 0.0190196 -2.76794e-19)
(4.59341 0.020698 2.70333e-19)
(4.57628 0.0291017 0)
(4.53835 0.0309701 0)
(4.51783 0.0506719 0)
(4.43487 0.0519174 -7.34548e-19)
(4.42419 0.101585 0)
(4.22354 0.102442 4.64933e-19)
(0.119017 0.492966 -9.45688e-23)
(0.375602 0.108057 5.72364e-19)
(0.661151 -0.282461 0)
(1.29019 -0.867484 -5.61968e-19)
(2.12992 -1.66187 0)
(3.01515 -2.42983 0)
(3.81994 -3.02375 -5.38826e-22)
(4.48553 -3.38813 2.69936e-19)
(5.00257 -3.51864 2.68679e-19)
(5.39613 -3.44694 2.655e-19)
(5.69317 -3.22081 0)
(5.9109 -2.89161 0)
(6.06455 -2.50453 -2.61748e-19)
(6.169 -2.09404 -5.20331e-19)
(6.23815 -1.68158 5.1711e-19)
(6.2809 -1.28001 0)
(6.30439 -0.892622 5.10392e-19)
(6.30857 -0.52057 -2.52316e-19)
(6.2973 -0.158994 0)
(6.26319 0.193859 4.99034e-19)
(6.21908 0.544085 2.46275e-19)
(6.15668 0.897889 -4.90147e-19)
(6.09272 1.26453 -2.41698e-19)
(5.99687 1.65091 0)
(5.90268 2.04776 4.76385e-19)
(5.75418 2.46373 4.71759e-19)
(5.59717 2.84788 0)
(5.36475 3.20812 4.62805e-19)
(5.05044 3.45705 0)
(4.67455 3.55972 4.55053e-19)
(4.03141 3.47071 2.25263e-19)
(3.37328 3.05729 0)
(2.72192 2.40242 0)
(2.0564 1.62574 0)
(1.73721 0.597496 0)
(1.53547 -0.502583 0)
(1.26783 -1.35937 0)
(1.49534 -2.58809 4.26294e-19)
(1.5908 -3.22647 -6.31852e-19)
(1.55669 -2.23238 0)
(0.833976 -1.39645 0)
(0.612484 -0.305445 0)
(-0.732584 1.37554 -4.02294e-22)
(-2.87789 2.85367 4.00377e-19)
(-4.29824 3.61399 7.89914e-19)
(-5.56418 3.81748 -7.81664e-19)
(-6.26702 3.88166 -3.8779e-19)
(-6.82075 3.78842 3.82795e-19)
(-7.18593 3.47309 2.15344e-21)
(-7.53648 3.15124 3.78961e-19)
(-7.86405 2.80737 0)
(-8.22092 2.5269 3.74052e-19)
(-8.58168 2.28823 1.7628e-21)
(-8.96451 2.10221 0)
(-9.34927 1.95016 0)
(-9.7414 1.82199 -3.65244e-19)
(-10.1278 1.70339 0)
(-10.5059 1.58348 0)
(-10.865 1.45506 3.60103e-19)
(-11.1991 1.31563 7.14319e-19)
(-11.5009 1.16836 -3.54307e-19)
(-11.7687 1.0196 0)
(-12.0036 0.876298 3.50137e-19)
(-12.2097 0.742724 0)
(-12.3907 0.619409 3.4698e-19)
(-12.5481 0.503493 3.43101e-19)
(-12.6807 0.390374 -6.82445e-19)
(-12.7855 0.275574 -3.39233e-19)
(-12.8577 0.155967 0)
(-12.8917 0.0298069 6.64795e-19)
(-12.8827 -0.103491 0)
(-12.8266 -0.241005 9.74873e-19)
(-12.7203 -0.379554 6.42613e-19)
(-12.5634 -0.516144 6.34422e-19)
(-12.3566 -0.647648 -6.25918e-19)
(-12.1023 -0.771474 9.25197e-19)
(-11.8037 -0.885536 0)
(-11.465 -0.988172 0)
(-11.0904 -1.07809 -5.90203e-19)
(-10.6847 -1.15439 -8.71453e-19)
(-10.2529 -1.2164 0)
(-9.79971 -1.26389 2.81458e-19)
(-9.33031 -1.29714 0)
(-8.84943 -1.3171 -8.19333e-19)
(-8.36145 -1.32521 4.79132e-22)
(-7.87001 -1.32331 -4.61415e-22)
(-7.37792 -1.31343 5.22183e-19)
(-6.88726 -1.29759 0)
(-6.3997 -1.27755 -5.07034e-19)
(-5.91642 -1.25494 4.09234e-22)
(-5.43813 -1.23112 0)
(-4.96554 -1.20694 0)
(-4.49961 -1.18317 0)
(-4.04104 -1.16096 4.71939e-19)
(-3.5898 -1.14181 0)
(-3.14471 -1.12719 0)
(-2.70359 -1.11784 0)
(-2.26384 -1.11379 0)
(-1.82232 -1.11445 0)
(-1.37621 -1.11819 4.35405e-19)
(-0.923889 -1.12191 0)
(-0.465221 -1.12266 4.23691e-19)
(-0.00216406 -1.11611 4.18069e-19)
(0.461861 -1.0997 -4.1233e-19)
(0.922443 -1.07091 0)
(1.37498 -1.03009 -4.01152e-19)
(1.81415 -0.978369 0)
(2.23242 -0.918607 -3.90695e-19)
(2.62085 -0.853914 3.85717e-19)
(2.97555 -0.784654 1.14295e-18)
(3.30089 -0.708957 0)
(3.60172 -0.627887 1.11495e-18)
(3.87659 -0.547872 3.67257e-19)
(4.12551 -0.474884 0)
(4.36037 -0.405916 7.16508e-19)
(4.59527 -0.329419 7.07725e-19)
(4.8209 -0.239365 -1.04849e-18)
(4.99747 -0.148473 0)
(5.08879 -0.0797707 -3.4095e-19)
(5.09978 -0.0465929 -3.36747e-19)
(5.07154 -0.0463199 -9.97701e-19)
(5.04998 -0.0662037 0)
(5.06311 -0.0877356 0)
(5.1146 -0.0940832 0)
(5.18894 -0.0782483 -3.15732e-19)
(5.26464 -0.0440172 0)
(5.32521 -0.000948552 0)
(5.36091 0.0402449 3.0323e-19)
(5.36708 0.0715742 2.99115e-19)
(5.34339 0.089343 0)
(5.29463 0.0937909 0)
(5.23014 0.0875234 5.73918e-19)
(5.16122 0.0738676 0)
(5.09782 0.0560083 -5.57946e-19)
(5.04618 0.0370435 -5.50018e-19)
(5.00867 0.0198763 0)
(4.98492 0.00668754 0)
(4.97293 -0.00146551 5.26348e-19)
(4.96993 -0.00457516 -1.04607e-23)
(4.97315 -0.00321832 -1.04184e-23)
(4.98017 0.00156474 0)
(4.98929 0.00857374 9.90488e-19)
(4.99978 0.0166453 0)
(5.012 0.0246528 0)
(5.02703 0.0315927 0)
(5.0458 0.0367756 -4.64826e-19)
(5.06833 0.0400589 0)
(5.0933 0.0420711 8.99791e-19)
(5.11798 0.0438346 4.42489e-19)
(5.13873 0.0461061 0)
(5.15203 0.0489756 4.27808e-19)
(5.15568 0.0519263 0)
(5.14952 0.0542401 0)
(5.13533 0.0553265 1.21834e-18)
(5.11591 0.0548635 -7.9794e-19)
(5.09412 0.0527978 0)
(5.07217 0.0492859 -7.69614e-19)
(5.05137 0.0446644 3.77788e-19)
(5.03234 0.0393835 0)
(5.0153 0.0338675 0)
(5.00035 0.0284711 0)
(4.98761 0.0234264 1.05019e-18)
(4.97731 0.0189185 0)
(4.96961 0.0150239 3.36417e-19)
(4.96474 0.0119055 0)
(4.96249 0.00953586 0)
(4.9628 0.00816486 0)
(4.96475 0.00751617 0)
(4.96819 0.0080991 0)
(4.97139 0.00906315 0)
(4.975 0.0117441 5.79473e-19)
(4.97594 0.0140508 0)
(4.97721 0.0196182 2.76705e-19)
(4.97234 0.0231126 -8.10741e-19)
(4.96994 0.0340882 0)
(4.95475 0.0390591 0)
(4.94898 0.062272 5.02149e-19)
(4.91574 0.0706062 4.89505e-19)
(4.91038 0.123354 -4.7701e-19)
(4.84939 0.144906 -4.64688e-19)
(-0.0297001 0.00287588 -8.65838e-19)
(0.238864 -0.141454 -8.58074e-19)
(1.26933 -1.60718 -5.65729e-19)
(2.30985 -2.90516 -2.80285e-19)
(3.24161 -3.80719 0)
(3.97879 -4.32188 5.49845e-19)
(4.48228 -4.50118 -2.73964e-19)
(4.76804 -4.40908 0)
(4.88215 -4.11395 -2.68581e-19)
(4.88299 -3.68804 0)
(4.82452 -3.2 5.33644e-19)
(4.74634 -2.70201 0)
(4.67292 -2.22499 2.62778e-19)
(4.61592 -1.78254 5.22596e-19)
(4.5778 -1.37632 -5.19504e-19)
(4.55557 -1.00198 0)
(4.54239 -0.651834 -5.12884e-19)
(4.53291 -0.319645 0)
(4.52224 0.00464781 0)
(4.50878 0.328224 -5.01387e-19)
(4.50659 0.65886 0)
(4.51789 0.999912 -1.60656e-21)
(4.54994 1.35418 0)
(4.59518 1.73197 0)
(4.66222 2.12574 1.80233e-21)
(4.74382 2.54987 -4.7296e-19)
(4.83221 2.97023 -4.69892e-19)
(4.92708 3.38315 -4.63216e-19)
(4.97663 3.73437 0)
(5.00317 3.97127 -9.09875e-19)
(4.91996 4.05529 0)
(4.68565 3.87173 -4.47099e-19)
(4.37562 3.36451 0)
(3.90397 2.55244 0)
(3.50006 1.46647 4.36442e-19)
(3.11272 0.236455 0)
(2.57796 -1.03814 -4.28558e-19)
(2.49379 -2.51618 -1.81074e-21)
(1.88678 -2.80203 8.41797e-19)
(0.737653 -1.01764 -8.37018e-19)
(-0.985762 1.46683 0)
(-2.54732 3.00747 0)
(-3.98015 4.14587 -4.04437e-19)
(-5.12307 4.6909 0)
(-5.78369 4.81469 -3.93527e-19)
(-6.28515 4.68271 3.90071e-19)
(-6.53449 4.47135 3.87121e-19)
(-6.75749 4.16553 0)
(-6.92973 3.83483 -3.81617e-19)
(-7.14688 3.51513 -3.79042e-19)
(-7.37575 3.22385 7.56862e-19)
(-7.65625 2.97989 -3.74227e-19)
(-7.95844 2.77659 -3.71952e-19)
(-8.29684 2.61196 0)
(-8.64955 2.47286 0)
(-9.01736 2.34593 3.65503e-19)
(-9.38391 2.21611 0)
(-9.74099 2.0707 0)
(-10.0746 1.90307 -7.18984e-19)
(-10.3764 1.71442 -7.15042e-19)
(-10.6415 1.51401 0)
(-10.8727 1.31495 0)
(-11.078 1.12913 0)
(-11.2668 0.962423 0)
(-11.4454 0.813262 -6.93549e-19)
(-11.6153 0.674059 6.90429e-19)
(-11.7722 0.534824 6.83421e-19)
(-11.9077 0.387082 1.35781e-18)
(-12.0111 0.225897 0)
(-12.0721 0.0500616 2.13332e-21)
(-12.0807 -0.138608 0)
(-12.0307 -0.335617 -6.51245e-19)
(-11.9203 -0.53576 1.94137e-21)
(-11.7502 -0.7332 -6.35096e-19)
(-11.5239 -0.922635 6.26541e-19)
(-11.2466 -1.09953 1.43075e-21)
(-10.925 -1.26058 0)
(-10.5662 -1.40354 6.00858e-19)
(-10.1777 -1.52698 5.90694e-19)
(-9.76593 -1.63009 1.16418e-18)
(-9.33702 -1.71248 0)
(-8.89617 -1.77417 -5.64602e-19)
(-8.44795 -1.816 0)
(-7.99611 -1.83974 1.09407e-18)
(-7.54364 -1.84787 -5.38407e-19)
(-7.09257 -1.84317 5.30298e-19)
(-6.64365 -1.82848 -5.2239e-19)
(-6.19647 -1.80629 -1.03052e-18)
(-5.75029 -1.77852 5.0717e-19)
(-5.30437 -1.74678 -4.99851e-19)
(-4.85761 -1.71262 0)
(-4.40968 -1.67688 9.72567e-19)
(-3.96179 -1.64027 0)
(-3.51601 -1.60442 9.45728e-19)
(-3.07456 -1.57167 -9.32786e-19)
(-2.63895 -1.54515 -9.20125e-19)
(-2.20903 -1.52699 9.07715e-19)
(-1.78319 -1.51773 8.9553e-19)
(-1.35873 -1.51713 0)
(-0.933527 -1.52289 4.36373e-19)
(-0.505311 -1.53076 0)
(-0.0732535 -1.5344 0)