/*--------------------------------*- C++ -*----------------------------------*\
  =========                 |
  \\      /  F ield         | OpenFOAM: The Open Source CFD Toolbox
   \\    /   O peration     | Website:  https://openfoam.org
    \\  /    A nd           | Version:  9
     \\/     M anipulation  |
\*---------------------------------------------------------------------------*/
FoamFile
{
    format      ascii;
    class       volVectorField;
    location    "0.037";
    object      UMean;
}
// * * * * * * * * * * * * * * * * * * * * * * * * * * * * * * * * * * * * * //

dimensions      [0 1 -1 0 0 0 0];

internalField   nonuniform List<vector> 
12225
(
(9.854 0.0430591 0)
(9.55651 0.0597078 0)
(9.25512 0.0577826 0)
(8.94984 0.0567313 0)
(8.64742 0.0567132 0)
(8.35233 0.0565822 0)
(8.06446 0.0561188 0)
(7.78485 0.0556069 0)
(7.51007 0.0550402 0)
(7.24351 0.0549232 0)
(6.9761 0.0551238 0)
(6.71737 0.0563938 0)
(6.4438 0.0584875 0)
(6.18299 0.0621132 0)
(5.87759 0.0686233 0)
(5.59963 0.0762375 0)
(5.21429 0.0967854 0)
(4.88588 0.115261 0)
(10.0249 0.0538917 0)
(10.0818 0.0764226 0)
(10.1175 0.0752286 0)
(10.1286 0.0766473 0)
(10.1222 0.0806099 0)
(10.1046 0.0845858 0)
(10.0771 0.0879794 0)
(10.0412 0.0913087 0)
(9.99472 0.094592 0)
(9.94075 0.0985404 0)
(9.87505 0.102907 0)
(9.80381 0.109021 0)
(9.7167 0.116505 0)
(9.62588 0.127365 0)
(9.5089 0.142279 0)
(9.38966 0.163275 0)
(9.22588 0.198271 0)
(9.05966 0.246083 0)
(10.0015 0.0329427 0)
(10.0307 0.0548057 0)
(10.0565 0.0573572 0)
(10.0715 0.0599418 0)
(10.0793 0.0653475 0)
(10.0844 0.071315 0)
(10.0879 0.0767449 0)
(10.0895 0.0821846 0)
(10.0878 0.0877379 0)
(10.0822 0.0942411 0)
(10.0719 0.101505 0)
(10.057 0.11086 0)
(10.0368 0.122263 0)
(10.011 0.137755 0)
(9.9794 0.158635 0)
(9.94132 0.187975 0)
(9.90009 0.231882 0)
(9.85618 0.292604 0)
(10.0057 0.0301212 0)
(10.0246 0.0578668 0)
(10.0429 0.063956 0)
(10.0522 0.0666268 0)
(10.0543 0.0717002 0)
(10.0537 0.0777282 0)
(10.0522 0.0833455 0)
(10.0496 0.0888319 0)
(10.0451 0.094725 0)
(10.0383 0.101702 0)
(10.029 0.110061 0)
(10.017 0.120541 0)
(10.0023 0.133787 0)
(9.98471 0.151121 0)
(9.96419 0.17436 0)
(9.94242 0.20612 0)
(9.9211 0.249521 0)
(9.90727 0.306619 0)
(9.998 0.0269956 0)
(10.0133 0.0517341 0)
(10.0307 0.0594068 0)
(10.0423 0.0624648 0)
(10.0471 0.0672861 0)
(10.0479 0.0737454 0)
(10.0468 0.0804548 0)
(10.0441 0.0872323 0)
(10.0393 0.0943753 0)
(10.0321 0.102499 0)
(10.0222 0.111984 0)
(10.0099 0.123629 0)
(9.9951 0.138186 0)
(9.97831 0.157049 0)
(9.95946 0.181623 0)
(9.94096 0.214093 0)
(9.92366 0.255409 0)
(9.91353 0.306712 0)
(9.99066 0.0197937 0)
(10.0031 0.0455961 0)
(10.0181 0.0564451 0)
(10.0284 0.0617928 0)
(10.0321 0.0677202 0)
(10.0316 0.0749315 0)
(10.0294 0.0823674 0)
(10.0264 0.0897708 0)
(10.0223 0.0975852 0)
(10.0165 0.106541 0)
(10.0082 0.117129 0)
(9.99764 0.130069 0)
(9.98453 0.146014 0)
(9.96986 0.166214 0)
(9.95381 0.191587 0)
(9.93894 0.223796 0)
(9.92589 0.262689 0)
(9.91958 0.309028 0)
(9.96722 0.0219852 0)
(9.97631 0.0420932 0)
(9.98774 0.0543124 0)
(9.99717 0.0610848 0)
(10.0023 0.0672079 0)
(10.0035 0.074416 0)
(10.0026 0.0822817 0)
(10.0003 0.0904682 0)
(9.99681 0.0992636 0)
(9.9917 0.109329 0)
(9.98464 0.12115 0)
(9.97574 0.135391 0)
(9.96503 0.152564 0)
(9.95333 0.17372 0)
(9.94109 0.19937 0)
(9.93027 0.230753 0)
(9.92174 0.267241 0)
(9.91886 0.309462 0)
(10.0028 0.0148587 0)
(10.0099 0.0372522 0)
(10.0194 0.0506046 0)
(10.028 0.0591348 0)
(10.0327 0.0665396 0)
(10.0331 0.0744987 0)
(10.0307 0.0829984 0)
(10.0269 0.0918348 0)
(10.0223 0.101236 0)
(10.0168 0.111867 0)
(10.01 0.124336 0)
(10.002 0.139328 0)
(9.99299 0.157289 0)
(9.98347 0.178996 0)
(9.97415 0.204661 0)
(9.9663 0.235056 0)
(9.96101 0.269389 0)
(9.96021 0.307993 0)
(9.97431 0.0148018 0)
(9.97792 0.0348745 0)
(9.98553 0.0480675 0)
(9.99378 0.0576638 0)
(9.99952 0.0660355 0)
(10.0023 0.0747154 0)
(10.0032 0.0839426 0)
(10.0029 0.0935824 0)
(10.0016 0.103842 0)
(9.99893 0.115352 0)
(9.99457 0.12869 0)
(9.98878 0.144436 0)
(9.98188 0.162893 0)
(9.97496 0.184619 0)
(9.96857 0.20967 0)
(9.96438 0.238587 0)
(9.96265 0.270537 0)
(9.96571 0.305753 0)
(9.99222 0.0165712 0)
(9.99568 0.0299014 0)
(10.0018 0.0439832 0)
(10.0081 0.0551154 0)
(10.0129 0.0642745 0)
(10.0158 0.0731056 0)
(10.0169 0.0823475 0)
(10.0167 0.0922828 0)
(10.0153 0.103214 0)
(10.0129 0.115636 0)
(10.0094 0.12994 0)
(10.005 0.146541 0)
(10.0001 0.165552 0)
(9.99543 0.187338 0)
(9.99124 0.211753 0)
(9.98894 0.239189 0)
(9.98862 0.26878 0)
(9.99225 0.300805 0)
(9.95638 0.0126776 0)
(9.96049 0.0280321 0)
(9.96457 0.0425652 0)
(9.96943 0.0541394 0)
(9.9748 0.0638836 0)
(9.97951 0.073259 0)
(9.98278 0.0831198 0)
(9.98455 0.0938357 0)
(9.98504 0.105549 0)
(9.98453 0.118561 0)
(9.98332 0.133191 0)
(9.98179 0.149889 0)
(9.98026 0.168789 0)
(9.97923 0.190193 0)
(9.97901 0.213834 0)
(9.98042 0.239931 0)
(9.98368 0.267574 0)
(9.98994 0.296982 0)
(10.0199 0.0127236 0)
(10.0214 0.0277297 0)
(10.0246 0.0398559 0)
(10.0286 0.0506827 0)
(10.0322 0.0605731 0)
(10.0345 0.0701937 0)
(10.0354 0.0803692 0)
(10.0353 0.0916017 0)
(10.0345 0.10399 0)
(10.0331 0.117634 0)
(10.0312 0.132699 0)
(10.029 0.149572 0)
(10.0269 0.16836 0)
(10.0254 0.189312 0)
(10.025 0.212073 0)
(10.026 0.236804 0)
(10.0293 0.262549 0)
(10.035 0.289644 0)
(10.0048 0.0113569 0)
(10.0041 0.0258163 0)
(10.0062 0.0387843 0)
(10.0096 0.0507444 0)
(10.0127 0.0615185 0)
(10.0146 0.0716269 0)
(10.0154 0.0819592 0)
(10.0157 0.0931956 0)
(10.016 0.105603 0)
(10.0164 0.119342 0)
(10.017 0.134525 0)
(10.0179 0.151386 0)
(10.0193 0.169926 0)
(10.0215 0.190276 0)
(10.0249 0.212076 0)
(10.0298 0.235409 0)
(10.0365 0.259406 0)
(10.0453 0.284372 0)
(10.0336 0.0155359 0)
(10.0364 0.0254783 0)
(10.0392 0.0368622 0)
(10.0422 0.0484142 0)
(10.0455 0.0592171 0)
(10.0485 0.0696259 0)
(10.0508 0.0803618 0)
(10.0523 0.0918745 0)
(10.0532 0.104327 0)
(10.054 0.117906 0)
(10.0547 0.132738 0)
(10.0556 0.149016 0)
(10.0571 0.166674 0)
(10.0593 0.185823 0)
(10.0628 0.20608 0)
(10.0679 0.227614 0)
(10.0748 0.249546 0)
(10.0838 0.272402 0)
(10.0064 0.0069115 0)
(10.0117 0.022639 0)
(10.0164 0.035286 0)
(10.0206 0.0462556 0)
(10.0249 0.0569263 0)
(10.0291 0.0677435 0)
(10.0327 0.0789063 0)
(10.0358 0.0906769 0)
(10.0387 0.103316 0)
(10.0417 0.117098 0)
(10.0451 0.132106 0)
(10.0491 0.14841 0)
(10.0538 0.165769 0)
(10.0594 0.184165 0)
(10.0658 0.203108 0)
(10.0737 0.222761 0)
(10.0826 0.242309 0)
(10.0935 0.262365 0)
(10.0031 0.0066329 0)
(10.0047 0.0209169 0)
(10.008 0.0317905 0)
(10.0129 0.0417006 0)
(10.0182 0.0521875 0)
(10.0232 0.0634762 0)
(10.0278 0.0752614 0)
(10.032 0.0872938 0)
(10.0361 0.0995957 0)
(10.0405 0.112464 0)
(10.0456 0.126107 0)
(10.0516 0.140741 0)
(10.0585 0.156246 0)
(10.0665 0.172686 0)
(10.0755 0.189593 0)
(10.0858 0.20715 0)
(10.0969 0.224509 0)
(10.1094 0.242368 0)
(9.99467 0.00528287 0)
(9.99518 0.0154446 0)
(9.9972 0.026074 0)
(10.0006 0.036804 0)
(10.0048 0.0476896 0)
(10.0099 0.0588495 0)
(10.0157 0.0701565 0)
(10.022 0.0815385 0)
(10.0287 0.0930861 0)
(10.0359 0.105074 0)
(10.0437 0.11765 0)
(10.052 0.130992 0)
(10.0609 0.144944 0)
(10.0706 0.159574 0)
(10.081 0.174429 0)
(10.0925 0.189741 0)
(10.1046 0.204723 0)
(10.1181 0.220141 0)
(9.98957 0.0100879 0)
(9.99226 0.0160082 0)
(9.99549 0.0242435 0)
(9.99962 0.0328117 0)
(10.0049 0.0413702 0)
(10.0114 0.050336 0)
(10.0187 0.0597875 0)
(10.0264 0.0696787 0)
(10.0343 0.0799979 0)
(10.0424 0.0908607 0)
(10.051 0.102287 0)
(10.0601 0.114325 0)
(10.0698 0.126719 0)
(10.0804 0.139403 0)
(10.0917 0.151937 0)
(10.1038 0.164538 0)
(10.1165 0.176627 0)
(10.1301 0.188952 0)
(9.98404 -0.00126943 0)
(9.98973 0.00744625 0)
(9.99624 0.0151251 0)
(10.003 0.0229818 0)
(10.0105 0.0312291 0)
(10.0188 0.0397713 0)
(10.0277 0.04856 0)
(10.037 0.0576268 0)
(10.0468 0.0669361 0)
(10.0569 0.0764329 0)
(10.0675 0.0859587 0)
(10.0786 0.0955068 0)
(10.0905 0.104997 0)
(10.103 0.114633 0)
(10.1162 0.124284 0)
(10.1299 0.134281 0)
(10.1441 0.144132 0)
(10.1588 0.154447 0)
(9.98675 -0.00537792 0)
(9.9852 0.000952456 0)
(9.98695 0.0063882 0)
(9.99227 0.011236 0)
(10.0003 0.0163429 0)
(10.0098 0.0221862 0)
(10.0199 0.0288816 0)
(10.0303 0.0362799 0)
(10.0413 0.0440633 0)
(10.0529 0.0520016 0)
(10.0649 0.0599044 0)
(10.0772 0.0677248 0)
(10.0897 0.075346 0)
(10.1026 0.082901 0)
(10.1158 0.0902676 0)
(10.1295 0.0977518 0)
(10.1435 0.104978 0)
(10.1581 0.1125 0)
(10.0082 0.00564159 0)
(10.0114 0.0025649 0)
(10.0168 0.00340554 0)
(10.0241 0.00658393 0)
(10.0325 0.0107133 0)
(10.0417 0.0153598 0)
(10.0515 0.0205614 0)
(10.0619 0.0262812 0)
(10.0728 0.0323678 0)
(10.0844 0.0387334 0)
(10.0965 0.0452536 0)
(10.1089 0.0518428 0)
(10.1217 0.0583031 0)
(10.1348 0.0646183 0)
(10.1482 0.0706217 0)
(10.1618 0.07655 0)
(10.1758 0.0821583 0)
(10.19 0.0879502 0)
(10.0098 -0.00703269 0)
(10.0162 -0.00789623 0)
(10.0236 -0.00664985 0)
(10.0311 -0.0046799 0)
(10.0396 -0.00216526 0)
(10.0494 0.00110705 0)
(10.06 0.00513371 0)
(10.0709 0.00980124 0)
(10.0821 0.0149188 0)
(10.0938 0.020308 0)
(10.1062 0.0257701 0)
(10.1193 0.0311831 0)
(10.1329 0.0363679 0)
(10.1469 0.0413285 0)
(10.161 0.0459348 0)
(10.1753 0.0503903 0)
(10.1895 0.0545121 0)
(10.2039 0.0587234 0)
(10.003 -0.00491243 0)
(10.0103 -0.0077552 0)
(10.0185 -0.00892762 0)
(10.0274 -0.00885434 0)
(10.0364 -0.00757182 0)
(10.0455 -0.00522717 0)
(10.055 -0.0020511 0)
(10.0653 0.0016875 0)
(10.0769 0.00564964 0)
(10.0895 0.00959172 0)
(10.1029 0.0134532 0)
(10.1169 0.0173307 0)
(10.1312 0.021264 0)
(10.1456 0.025313 0)
(10.1601 0.0293391 0)
(10.1745 0.033385 0)
(10.1889 0.0372092 0)
(10.2034 0.0410091 0)
(10.0205 -0.0140809 0)
(10.0268 -0.0148279 0)
(10.0366 -0.0171299 0)
(10.0481 -0.01749 0)
(10.0597 -0.0157834 0)
(10.0707 -0.0134615 0)
(10.0814 -0.0113889 0)
(10.0924 -0.00949822 0)
(10.104 -0.00739233 0)
(10.1162 -0.00483549 0)
(10.1288 -0.001873 0)
(10.1417 0.00136707 0)
(10.155 0.00468425 0)
(10.1684 0.00798078 0)
(10.182 0.0110835 0)
(10.1957 0.0140494 0)
(10.2095 0.0167181 0)
(10.2232 0.0193187 0)
(9.99212 -0.0170036 0)
(9.99759 -0.0214687 0)
(10.0089 -0.0242899 0)
(10.0223 -0.025176 0)
(10.0353 -0.024475 0)
(10.0474 -0.0228365 0)
(10.0593 -0.0207518 0)
(10.0716 -0.0184812 0)
(10.0843 -0.0161711 0)
(10.0974 -0.0138974 0)
(10.1108 -0.0116684 0)
(10.1245 -0.00938042 0)
(10.1386 -0.0069773 0)
(10.1529 -0.00441412 0)
(10.1674 -0.00179788 0)
(10.182 0.000824415 0)
(10.1965 0.0032754 0)
(10.2109 0.0056112 0)
(10.0091 -0.0128724 0)
(10.0183 -0.0273403 0)
(10.0307 -0.0300838 0)
(10.0432 -0.029283 0)
(10.0548 -0.0283752 0)
(10.066 -0.0277481 0)
(10.0776 -0.0270619 0)
(10.0899 -0.0261386 0)
(10.1028 -0.0249738 0)
(10.1159 -0.0235993 0)
(10.1294 -0.022074 0)
(10.1432 -0.0204265 0)
(10.1573 -0.0187038 0)
(10.1718 -0.0168995 0)
(10.1866 -0.0150931 0)
(10.2016 -0.0132794 0)
(10.2167 -0.0115858 0)
(10.232 -0.00993122 0)
(9.9746 -0.0234735 0)
(9.99044 -0.0331401 0)
(10.0073 -0.0372144 0)
(10.0218 -0.0375284 0)
(10.0342 -0.0374857 0)
(10.0459 -0.0374368 0)
(10.058 -0.0367836 0)
(10.0709 -0.0355559 0)
(10.0846 -0.0341793 0)
(10.0985 -0.0329377 0)
(10.1126 -0.0318583 0)
(10.1267 -0.0308239 0)
(10.1408 -0.0297291 0)
(10.155 -0.0285113 0)
(10.1695 -0.0272221 0)
(10.1843 -0.0258959 0)
(10.1994 -0.0246612 0)
(10.2147 -0.0235036 0)
(10.0061 -0.0285186 0)
(10.0195 -0.0366423 0)
(10.0372 -0.0388694 0)
(10.0521 -0.0387406 0)
(10.0638 -0.039042 0)
(10.0746 -0.0395767 0)
(10.0865 -0.039758 0)
(10.0999 -0.0395973 0)
(10.1143 -0.0392461 0)
(10.1292 -0.0387458 0)
(10.1441 -0.0380723 0)
(10.1589 -0.0372954 0)
(10.1736 -0.0365062 0)
(10.1882 -0.0358268 0)
(10.203 -0.035267 0)
(10.218 -0.0348262 0)
(10.2333 -0.0344375 0)
(10.2485 -0.0340585 0)
(10.0036 -0.0306695 0)
(10.039 -0.0479205 0)
(10.0697 -0.0475232 0)
(10.0919 -0.0470524 0)
(10.1082 -0.0480609 0)
(10.1214 -0.04899 0)
(10.1326 -0.049362 0)
(10.1422 -0.0493842 0)
(10.1501 -0.0492263 0)
(10.1565 -0.0489329 0)
(10.1616 -0.0484836 0)
(10.1659 -0.0479499 0)
(10.1694 -0.0473686 0)
(10.1726 -0.0468642 0)
(10.175 -0.046417 0)
(10.1775 -0.0461142 0)
(10.179 -0.0458579 0)
(10.1811 -0.0457446 0)
(9.91255 -0.0449065 0)
(9.74398 -0.0541908 0)
(9.57636 -0.0517587 0)
(9.4085 -0.050085 0)
(9.24474 -0.0494746 0)
(9.08822 -0.0486863 0)
(8.94009 -0.0475056 0)
(8.80028 -0.0461857 0)
(8.66824 -0.0448881 0)
(8.54365 -0.0436209 0)
(8.42609 -0.042352 0)
(8.31561 -0.0411276 0)
(8.21144 -0.039996 0)
(8.11367 -0.0390361 0)
(8.02072 -0.0382165 0)
(7.93357 -0.0375488 0)
(7.84948 -0.0369376 0)
(7.77158 -0.0364367 0)
(-0.165763 0.326521 -1.66056e-21)
(-0.356486 0.136427 1.67019e-21)
(-0.410871 -0.0353723 0)
(-0.354507 -0.176553 0)
(-0.157191 -0.310767 0)
(0.138394 -0.411491 -1.61819e-21)
(0.519421 -0.4752 0)
(0.946703 -0.490743 0)
(1.38687 -0.476345 0)
(1.80496 -0.435739 0)
(2.18616 -0.376005 1.71088e-21)
(2.51524 -0.304282 0)
(2.78014 -0.225747 0)
(2.97234 -0.144302 0)
(3.08725 -0.0623239 0)
(3.12436 0.0184241 2.07666e-21)
(3.08308 0.0970186 0)
(2.96666 0.171846 0)
(2.77547 0.24214 0)
(2.51948 0.303923 0)
(2.1965 0.356046 0)
(1.83501 0.388181 0)
(1.42271 0.404676 0)
(1.02011 0.369433 1.71637e-21)
(0.590529 0.350205 -1.68089e-21)
(0.224498 0.224083 1.66507e-21)
(-0.0889463 0.0563281 1.66647e-21)
(-0.368074 -0.0791352 0)
(-0.607145 -0.128055 0)
(-0.863222 -0.0640021 -1.73351e-21)
(-1.14942 0.0315383 -1.76393e-21)
(-1.47339 0.123709 0)
(-1.82417 0.183185 0)
(-2.17845 0.213956 -1.89443e-21)
(-2.51505 0.219242 0)
(-2.82962 0.225187 0)
(-3.13443 0.242282 2.15057e-21)
(-3.44076 0.260742 0)
(-3.76229 0.280755 2.40461e-21)
(-4.11652 0.294734 5.10052e-21)
(-4.50237 0.307202 0)
(-4.92472 0.308179 0)
(-5.30697 0.23439 0)
(-5.65191 0.147967 0)
(-6.01266 0.137375 0)
(-6.39283 0.213014 6.60262e-21)
(-6.7958 0.316027 6.77992e-21)
(-7.21272 0.3425 6.93939e-21)
(-7.57187 0.296096 0)
(-7.86769 0.244941 -7.26903e-21)
(-8.10679 0.197321 0)
(-8.29355 0.154925 7.52547e-21)
(-8.43429 0.117876 7.60309e-21)
(-8.53424 0.086181 0)
(-8.59899 0.0592339 0)
(-8.63287 0.0364565 0)
(-8.64002 0.0171585 7.55638e-21)
(-8.62374 0.000715199 0)
(-8.58691 -0.0134569 0)
(-8.53174 -0.0258387 0)
(-8.46002 -0.0368478 0)
(-8.37311 -0.0468065 0)
(-8.27197 -0.0559913 0)
(-8.15722 -0.064609 0)
(-8.02922 -0.0728233 0)
(-7.88809 -0.0807216 -5.98594e-21)
(-7.73382 -0.0883799 0)
(-7.56644 -0.0957488 0)
(-7.3861 -0.102786 5.1291e-21)
(-7.19336 -0.109359 4.81003e-21)
(-6.98843 -0.115382 0)
(-6.7725 -0.120727 -4.12991e-21)
(-6.54629 -0.125378 3.77331e-21)
(-6.31093 -0.129259 0)
(-6.06759 -0.132366 -3.04048e-21)
(-5.81758 -0.134693 0)
(-5.56215 -0.136325 0)
(-5.3024 -0.137385 1.93458e-21)
(-5.0391 -0.138054 0)
(-4.7726 -0.138573 -1.21863e-21)
(-4.50294 -0.139142 0)
(-4.22968 -0.139967 5.29375e-22)
(-3.95208 -0.14122 1.95041e-22)
(-3.66921 -0.142992 -1.3262e-22)
(-3.37996 -0.145261 -9.07256e-22)
(-3.08332 -0.148002 1.53515e-21)
(-2.77855 -0.15101 0)
(-2.46522 -0.154077 0)
(-2.14336 -0.156974 0)
(-1.81349 -0.159396 3.84665e-21)
(-1.47665 -0.161146 4.35112e-21)
(-1.1344 -0.161992 -4.81517e-21)
(-0.788562 -0.161739 0)
(-0.441328 -0.160311 5.60237e-21)
(-0.0951489 -0.157615 5.91823e-21)
(0.247475 -0.153637 6.17966e-21)
(0.584088 -0.148389 0)
(0.912263 -0.141941 0)
(1.22944 -0.134384 0)
(1.53319 -0.125882 6.69994e-21)
(1.82092 -0.117241 0)
(2.09052 -0.107614 0)
(2.34124 -0.0977251 -6.63477e-21)
(2.57204 -0.0876399 0)
(2.78262 -0.0776386 0)
(2.97292 -0.06794 -6.34686e-21)
(3.14334 -0.0587064 0)
(3.29463 -0.0500622 0)
(3.42783 -0.0420899 5.97945e-21)
(3.54415 -0.0348339 5.85571e-21)
(3.64497 -0.0283055 0)
(3.73171 -0.022488 -5.61797e-21)
(3.8058 -0.0173402 0)
(3.86862 -0.0128012 5.39917e-21)
(3.92142 -0.00880646 0)
(3.96533 -0.00530786 5.20171e-21)
(4.0014 -0.0022784 5.11088e-21)
(4.03062 0.000310845 0)
(4.05388 0.00251451 0)
(4.07198 0.00442582 0)
(4.08551 0.0061458 0)
(4.09478 0.00773599 0)
(4.10001 0.00922168 0)
(4.10134 0.0106057 0)
(4.09901 0.0118314 4.54143e-21)
(4.09346 0.0128107 -4.4855e-21)
(4.08529 0.0135225 0)
(4.07502 0.0140211 0)
(4.06307 0.0143855 0)
(4.0497 0.0146922 0)
(4.03503 0.0150008 -8.48399e-21)
(4.01906 0.0153502 0)
(4.00173 0.0157478 8.31701e-21)
(3.98298 0.0161799 -8.23828e-21)
(3.96269 0.0166272 0)
(3.94082 0.0170605 0)
(3.91732 0.0174386 0)
(3.89222 0.0177238 7.94907e-21)
(3.86563 0.0178885 7.88211e-21)
(3.83774 0.0179208 0)
(3.80875 0.0178159 7.75343e-21)
(3.77893 0.0175596 7.69145e-21)
(3.74856 0.0171225 -7.63091e-21)
(3.71803 0.0164745 0)
(3.68774 0.0156113 0)
(3.6581 0.0145741 -7.45725e-21)
(3.62946 0.0134448 0)
(3.60207 0.0123183 0)
(3.57604 0.0112702 0)
(3.55139 0.0103369 0)
(3.52809 0.00951359 7.1922e-21)
(3.50607 0.00876749 7.14237e-21)
(3.48532 0.0080589 0)
(3.46583 0.00735927 7.04537e-21)
(3.44762 0.00665938 0)
(3.43072 0.00597034 0)
(3.41512 0.00531503 6.90626e-21)
(3.40079 0.00471887 0)
(3.38761 0.00419998 6.81768e-21)
(3.37548 0.00376828 0)
(3.36416 0.00342283 0)
(3.35358 0.00315908 6.69067e-21)
(3.34339 0.00296963 0)
(3.33363 0.00284795 6.60977e-21)
(3.3238 0.00279683 0)
(3.31418 0.00280567 0)
(3.30386 0.00291009 0)
(3.29362 0.00306206 -6.45842e-21)
(3.2817 0.00339927 0)
(3.26979 0.00371674 6.38996e-21)
(3.25466 0.00448366 0)
(3.2392 0.00495187 0)
(3.21841 0.00667578 0)
(3.19504 0.00712527 0)
(3.16538 0.0113213 0)
(3.12206 0.0109742 0)
(3.08147 0.02241 0)
(2.98017 0.0185617 -1.25241e-20)
(2.93788 0.0552092 0)
(2.64045 0.0448471 0)
(0.00392738 0.662238 5.05713e-21)
(0.0673272 0.320738 -5.07429e-21)
(0.131532 -0.0200537 0)
(0.317744 -0.345157 3.44073e-21)
(0.621475 -0.727459 0)
(1.01 -1.03764 1.61422e-21)
(1.42873 -1.23281 -3.45219e-21)
(1.83981 -1.31031 -3.5078e-21)
(2.22134 -1.28899 0)
(2.562 -1.19103 -3.77538e-21)
(2.85288 -1.03842 -1.70533e-21)
(3.08795 -0.850613 0)
(3.26235 -0.642934 0)
(3.37603 -0.426119 0)
(3.42981 -0.208182 0)
(3.42576 0.0054352 -2.07232e-21)
(3.36525 0.209745 0)
(3.25295 0.401583 4.56555e-21)
(3.08975 0.576579 0)
(2.88145 0.734225 0)
(2.62999 0.866139 -4.16145e-21)
(2.34107 0.971651 0)
(2.02709 1.02899 3.82995e-21)
(1.68939 1.05924 -1.70882e-21)
(1.36092 1.00667 1.67277e-21)
(1.0005 0.89701 -1.65649e-21)
(0.553881 0.914102 -1.65747e-21)
(0.0164603 0.935207 0)
(-0.588816 0.928638 0)
(-1.23085 0.944245 1.72589e-21)
(-1.8494 0.930889 -2.0087e-21)
(-2.38126 0.90325 0)
(-2.86029 0.874111 0)
(-3.27783 0.82119 1.88723e-21)
(-3.65357 0.742931 0)
(-4.00284 0.675601 0)
(-4.32796 0.644587 -2.14229e-21)
(-4.64613 0.660065 0)
(-4.97646 0.729181 2.90247e-21)
(-5.33826 0.822638 -5.084e-21)
(-5.72484 0.90347 0)
(-6.12163 0.889294 0)
(-6.5371 0.828648 -1.26363e-20)
(-6.99782 0.87645 -1.3127e-20)
(-7.46863 0.93942 -1.36074e-20)
(-7.85498 0.906351 7.48063e-21)
(-8.14945 0.832616 -6.76521e-21)
(-8.39088 0.728008 -2.17037e-20)
(-8.5769 0.604936 1.50739e-20)
(-8.72047 0.487004 7.256e-21)
(-8.82419 0.377029 0)
(-8.89359 0.279163 -7.51358e-21)
(-8.93213 0.193383 8.16729e-21)
(-8.9441 0.119369 0)
(-8.9324 0.0558876 0)
(-8.90019 0.0015782 0)
(-8.84974 -0.0449852 -7.54932e-21)
(-8.78321 -0.0851445 0)
(-8.70222 -0.120096 1.49752e-20)
(-8.60819 -0.150876 0)
(-8.50218 -0.178394 1.43447e-20)
(-8.38506 -0.203407 0)
(-8.25736 -0.226594 -1.35725e-20)
(-8.11939 -0.248527 0)
(-7.97121 -0.269663 1.26645e-20)
(-7.81269 -0.290329 -6.17218e-21)
(-7.6436 -0.310704 0)
(-7.46368 -0.330748 -1.10402e-20)
(-7.27267 -0.350272 -5.13063e-21)
(-7.07017 -0.368944 -4.8117e-21)
(-6.85669 -0.386355 0)
(-6.63223 -0.402138 -4.27261e-21)
(-6.39771 -0.415967 -3.77482e-21)
(-6.15411 -0.42758 0)
(-5.90271 -0.436858 3.04184e-21)
(-5.64482 -0.443812 -5.44576e-21)
(-5.38178 -0.448646 0)
(-5.11472 -0.451762 -1.93574e-21)
(-4.84449 -0.453694 0)
(-4.57144 -0.455138 3.74098e-21)
(-4.29554 -0.456732 0)
(-4.01633 -0.459107 -1.67259e-21)
(-3.73298 -0.462761 -1.95924e-22)
(-3.44443 -0.467993 -4.65001e-23)
(-3.1495 -0.474801 -7.31237e-22)
(-2.84708 -0.482999 1.35646e-21)
(-2.53637 -0.492077 0)
(-2.21694 -0.501361 0)
(-1.88885 -0.510085 0)
(-1.55267 -0.517448 -1.13653e-20)
(-1.20954 -0.522757 -4.34911e-21)
(-0.861033 -0.525347 4.81302e-21)
(-0.509094 -0.524732 0)
(-0.155955 -0.520624 5.45796e-21)
(0.195948 -0.512858 -5.91565e-21)
(0.544149 -0.501375 -6.17698e-21)
(0.88629 -0.486191 0)
(1.22009 -0.46741 0)
(1.54308 -0.445362 0)
(1.85268 -0.420759 -6.6962e-21)
(2.14662 -0.394114 0)
(2.42317 -0.365584 1.32855e-20)
(2.68135 -0.336033 1.98127e-20)
(2.9203 -0.305984 -1.30315e-20)
(3.13967 -0.276182 0)
(3.3395 -0.247254 -6.28629e-21)
(3.52025 -0.219679 0)
(3.68273 -0.19381 -1.21561e-20)
(3.82801 -0.169883 5.93655e-21)
(3.95727 -0.148043 5.81771e-21)
(4.07178 -0.12835 0)
(4.17288 -0.110782 1.6817e-20)
(4.26195 -0.0952407 -1.09821e-20)
(4.3403 -0.0815596 -5.39573e-21)
(4.40911 -0.069549 0)
(4.46945 -0.0590393 -5.19837e-21)
(4.52237 -0.0499001 -1.53092e-20)
(4.56898 -0.0420158 0)
(4.61043 -0.0352486 -9.87086e-21)
(4.64764 -0.0293926 -9.71895e-21)
(4.68127 -0.0241833 -9.57527e-21)
(4.71166 -0.0193751 0)
(4.73888 -0.014835 0)
(4.76292 -0.0105761 0)
(4.78389 -0.00673798 4.53234e-21)
(4.80199 -0.00347724 4.4819e-21)
(4.81754 -0.000839493 0)
(4.83101 0.00125312 8.75128e-21)
(4.8429 0.00294309 8.6545e-21)
(4.85369 0.00437774 0)
(4.86373 0.00567676 8.47625e-21)
(4.87326 0.00692933 1.67766e-20)
(4.88239 0.00819512 -8.30906e-21)
(4.89112 0.00951089 -8.22562e-21)
(4.89937 0.0108938 0)
(4.90699 0.0123329 0)
(4.91382 0.0137898 0)
(4.91972 0.0152095 -7.94046e-21)
(4.92456 0.0165353 7.8704e-21)
(4.92825 0.0177171 1.56135e-20)
(4.93078 0.0187132 -7.74443e-21)
(4.93217 0.0194898 7.68031e-21)
(4.93247 0.0200175 7.6217e-21)
(4.93172 0.0202701 0)
(4.92997 0.020232 0)
(4.92727 0.0199095 -7.44715e-21)
(4.92367 0.0193371 0)
(4.91927 0.0185725 0)
(4.91423 0.0176819 1.45707e-20)
(4.90871 0.0167231 0)
(4.90292 0.0157359 7.18304e-21)
(4.89708 0.0147414 -7.13295e-21)
(4.89134 0.0137468 0)
(4.88586 0.0127528 7.03656e-21)
(4.88071 0.0117592 0)
(4.87595 0.0107737 0)
(4.87159 0.00981478 -6.89712e-21)
(4.86761 0.00890891 1.37055e-20)
(4.86399 0.00808566 -6.80869e-21)
(4.8607 0.00736881 0)
(4.85767 0.00677758 0)
(4.85483 0.006314 6.68203e-21)
(4.85206 0.00598972 0)
(4.8493 0.00578267 6.60098e-21)
(4.84637 0.00572879 0)
(4.84323 0.00576437 0)
(4.83963 0.00601871 0)
(4.83552 0.00630333 6.45015e-21)
(4.83063 0.007018 0)
(4.82475 0.00758663 -6.38183e-21)
(4.81779 0.00917418 0)
(4.80867 0.0100483 0)
(4.79857 0.0135318 1.25851e-20)
(4.78302 0.0145561 -1.25384e-20)
(4.76853 0.0225701 0)
(4.73855 0.0231055 0)
(4.71924 0.0431299 0)
(4.65348 0.0422472 3.7453e-20)
(4.6351 0.0989928 0)
(4.47949 0.103759 -2.5063e-20)
(0.0697834 0.292371 -3.44059e-23)
(0.206296 -0.0024624 6.74812e-21)
(0.469153 -0.48268 0)
(0.894048 -1.08665 -6.88183e-21)
(1.36382 -1.61163 0)
(1.7995 -1.9579 0)
(2.17307 -2.11463 -4.36833e-22)
(2.48026 -2.10753 3.49524e-21)
(2.72681 -1.97444 4.26959e-21)
(2.91847 -1.75298 3.76633e-21)
(3.05867 -1.47495 0)
(3.15019 -1.16463 0)
(3.19586 -0.839812 -5.06739e-21)
(3.19784 -0.512794 -1.03727e-20)
(3.15723 -0.192335 1.05051e-20)
(3.07539 0.115648 0)
(2.9551 0.405932 1.04371e-20)
(2.80033 0.674518 -4.56625e-21)
(2.61565 0.917842 0)
(2.40624 1.13298 9.63659e-21)
(2.1778 1.31559 4.15989e-21)
(1.92762 1.45278 -8.85947e-21)
(1.66263 1.55032 -3.82595e-21)
(1.38892 1.55305 0)
(1.08398 1.53565 7.82197e-21)
(0.652606 1.65836 7.61433e-21)
(0.171329 1.78568 0)
(-0.369808 1.93636 7.46285e-21)
(-0.948529 2.03976 0)
(-1.52217 2.06528 7.69984e-21)
(-2.07971 2.00544 3.74835e-21)
(-2.59443 1.87639 0)
(-3.07758 1.71627 0)
(-3.51895 1.55792 0)
(-3.91938 1.42196 0)
(-4.30377 1.3291 0)
(-4.67782 1.27844 0)
(-5.05409 1.27738 1.12446e-20)
(-5.45192 1.35084 -1.70873e-20)
(-5.87078 1.44759 0)
(-6.29211 1.512 0)
(-6.70222 1.55212 0)
(-7.13593 1.56537 -1.23973e-21)
(-7.50733 1.51588 1.31194e-20)
(-7.79627 1.41069 2.84496e-20)
(-8.01626 1.26935 -2.93507e-20)
(-8.17643 1.11332 -1.56623e-20)
(-8.29287 0.941786 1.47807e-20)
(-8.37363 0.76826 1.13042e-21)
(-8.43035 0.603184 1.63821e-20)
(-8.46517 0.45211 0)
(-8.48258 0.317788 1.65368e-20)
(-8.48311 0.200293 7.5232e-22)
(-8.46853 0.0985117 0)
(-8.43937 0.0107765 0)
(-8.39667 -0.0648393 -1.6153e-20)
(-8.3411 -0.130206 0)
(-8.27344 -0.187084 0)
(-8.19432 -0.237015 1.57858e-20)
(-8.10433 -0.28135 3.01229e-20)
(-8.00395 -0.321273 -1.43597e-20)
(-7.89358 -0.35782 0)
(-7.77342 -0.391965 1.35874e-20)
(-7.6435 -0.424588 0)
(-7.50357 -0.456431 1.32546e-20)
(-7.35318 -0.488044 1.21729e-20)
(-7.19173 -0.519688 -2.38103e-20)
(-7.01863 -0.551359 -1.1588e-20)
(-6.83341 -0.582677 0)
(-6.63588 -0.613057 2.0089e-20)
(-6.42631 -0.641696 0)
(-6.20533 -0.667824 2.56946e-20)
(-5.97387 -0.690707 1.58022e-20)
(-5.73318 -0.70981 1.42927e-20)
(-5.48475 -0.724854 -1.27654e-20)
(-5.23019 -0.735837 1.66877e-20)
(-4.9711 -0.743131 0)
(-4.70888 -0.747422 0)
(-4.44456 -0.749718 -6.74399e-21)
(-4.17857 -0.751207 -7.83468e-21)
(-3.9108 -0.753076 0)
(-3.64065 -0.756428 1.14572e-21)
(-3.36706 -0.762103 0)
(-3.08864 -0.770601 2.60614e-22)
(-2.8039 -0.781957 2.73853e-22)
(-2.51147 -0.795748 -2.7898e-22)
(-2.21033 -0.811105 -3.82863e-21)
(-1.89999 -0.826808 0)
(-1.58059 -0.841496 6.15992e-21)
(-1.25287 -0.853797 2.68757e-22)
(-0.918179 -0.862493 0)
(-0.57832 -0.866538 0)
(-0.235523 -0.865186 0)
(0.107797 -0.858036 -1.10561e-20)
(0.449088 -0.844983 0)
(0.785912 -0.826004 0)
(1.1161 -0.801059 0)
(1.43759 -0.770219 0)
(1.74782 -0.734326 0)
(2.04456 -0.69388 -1.31226e-20)
(2.32593 -0.64969 0)
(2.59022 -0.602521 -1.32772e-20)
(2.83641 -0.553537 -1.31749e-20)
(3.06382 -0.503934 1.3024e-20)
(3.27217 -0.454876 0)
(3.46165 -0.407365 1.26226e-20)
(3.63282 -0.362194 0)
(3.78657 -0.319923 1.21514e-20)
(3.92404 -0.280879 -1.1908e-20)
(4.04656 -0.245208 -3.48816e-20)
(4.15545 -0.212963 0)
(4.25195 -0.184132 -3.35105e-20)
(4.33728 -0.158586 -1.09019e-20)
(4.41262 -0.136047 0)
(4.47903 -0.116178 -2.10796e-20)
(4.53722 -0.0987665 -2.07078e-20)
(4.58768 -0.0837978 3.05552e-20)
(4.63118 -0.0712763 0)
(4.66906 -0.0609531 9.86971e-21)
(4.70291 -0.052293 9.71794e-21)
(4.73395 -0.0446633 2.86957e-20)
(4.76274 -0.0375551 0)
(4.78918 -0.0307028 0)
(4.81295 -0.0241356 0)
(4.83375 -0.0180829 9.05232e-21)
(4.85156 -0.0128102 0)
(4.86663 -0.00849614 0)
(4.87936 -0.00517115 -8.7507e-21)
(4.8903 -0.00272284 -8.65395e-21)
(4.89999 -0.000941162 0)
(4.909 0.000413926 0)
(4.91779 0.00156152 -1.67756e-20)
(4.92663 0.00267212 0)
(4.93563 0.00386269 1.6455e-20)
(4.94476 0.00519791 1.62973e-20)
(4.9539 0.00669058 0)
(4.96289 0.00830991 0)
(4.97161 0.00999104 -1.58723e-20)
(4.97993 0.0116524 -4.02975e-24)
(4.98779 0.0132105 -3.59277e-24)
(4.99514 0.0145942 0)
(5.00195 0.0157507 -3.07201e-20)
(5.00824 0.016643 0)
(5.01398 0.0172506 0)
(5.01915 0.0175728 0)
(5.02367 0.0176308 1.48934e-20)
(5.02748 0.0174638 0)
(5.0305 0.0171177 -2.93486e-20)
(5.03271 0.0166272 -1.45689e-20)
(5.03416 0.0160088 0)
(5.03495 0.015265 -1.43638e-20)
(5.03527 0.0143959 0)
(5.03532 0.0134092 0)
(5.03529 0.0123244 -4.22122e-20)
(5.03531 0.0111735 2.79534e-20)
(5.03547 0.00999725 0)
(5.03581 0.00884359 2.75863e-20)
(5.03632 0.00775849 -1.37033e-20)
(5.037 0.00678607 0)
(5.03782 0.0059532 0)
(5.03877 0.00528863 0)
(5.03978 0.0047913 -4.00848e-20)
(5.04085 0.00449027 0)
(5.04185 0.00435225 -1.31998e-20)
(5.04278 0.0044453 0)
(5.04343 0.0046727 0)
(5.04384 0.00522386 0)
(5.04363 0.00583649 0)
(5.04306 0.00702862 0)
(5.0413 0.00809005 0)
(5.03919 0.0103984 -2.53831e-20)
(5.03482 0.0120374 0)
(5.03043 0.0166036 -1.25824e-20)
(5.02153 0.0190217 3.75882e-20)
(5.01381 0.0286248 0)
(4.99666 0.0323724 0)
(4.98418 0.0543175 -2.48695e-20)
(4.95231 0.0625088 -2.49386e-20)
(4.93551 0.117737 2.48592e-20)
(4.88659 0.145817 2.50539e-20)
(-0.0155035 0.0230582 -1.00916e-20)
(0.2908 -0.580317 -1.00933e-20)
(0.836765 -1.51781 -6.93107e-21)
(1.35951 -2.22432 -3.84042e-21)
(1.78879 -2.63061 0)
(2.10567 -2.77405 8.29401e-21)
(2.32013 -2.71441 -4.98083e-21)
(2.45272 -2.50878 0)
(2.52439 -2.20735 -4.26847e-21)
(2.55371 -1.85113 0)
(2.55447 -1.46845 1.08367e-20)
(2.53417 -1.07631 0)
(2.49454 -0.684211 5.07536e-21)
(2.43259 -0.299003 1.03901e-20)
(2.34453 0.0733009 -1.05229e-20)
(2.22771 0.426838 0)
(2.08388 0.755773 -1.04535e-20)
(1.9152 1.05536 0)
(1.72613 1.32319 0)
(1.52048 1.55685 -9.64856e-21)
(1.30632 1.75625 0)
(1.07839 1.91538 -8.64468e-22)
(0.854534 1.99767 0)
(0.579617 2.09225 0)
(0.212105 2.28158 8.16115e-22)
(-0.203655 2.48037 -7.6068e-21)
(-0.653959 2.67312 -8.25958e-21)
(-1.11397 2.8216 -7.4483e-21)
(-1.5678 2.88954 0)
(-2.01099 2.87286 -1.60437e-20)
(-2.44996 2.77679 0)
(-2.8829 2.62105 -8.87193e-21)
(-3.31539 2.43928 0)
(-3.74367 2.26138 0)
(-4.16061 2.1042 1.03025e-20)
(-4.57644 1.993 0)
(-4.98602 1.93628 -1.15884e-20)
(-5.4007 1.95647 1.03003e-21)
(-5.83121 2.05565 2.47289e-20)
(-6.25152 2.17122 -2.71675e-20)
(-6.63553 2.20454 0)
(-6.96615 2.15494 0)
(-7.2429 2.04188 -1.67699e-20)
(-7.4531 1.87736 0)
(-7.61056 1.68142 -1.48522e-20)
(-7.72585 1.46979 1.52928e-20)
(-7.80782 1.25372 1.56724e-20)
(-7.86419 1.03905 0)
(-7.90146 0.834568 -1.62216e-20)
(-7.92315 0.644457 -1.63962e-20)
(-7.9308 0.471884 3.50929e-20)
(-7.92589 0.317509 -1.65524e-20)
(-7.90875 0.181028 -1.65383e-20)
(-7.88012 0.0611742 0)
(-7.8404 -0.0436516 0)
(-7.7902 -0.135336 1.61703e-20)
(-7.72999 -0.215751 0)
(-7.66017 -0.286756 0)
(-7.58106 -0.350022 -3.0811e-20)
(-7.49292 -0.407032 -3.0158e-20)
(-7.396 -0.459073 0)
(-7.29053 -0.507294 0)
(-7.17669 -0.552809 0)
(-7.05435 -0.596711 0)
(-6.9231 -0.64001 -2.59665e-20)
(-6.78215 -0.683481 2.56661e-20)
(-6.6305 -0.727545 2.38419e-20)
(-6.46708 -0.772169 4.60433e-20)
(-6.29092 -0.816742 0)
(-6.10143 -0.860248 6.58932e-22)
(-5.8986 -0.901349 0)
(-5.68303 -0.93866 -1.73043e-20)
(-5.45582 -0.971114 5.55882e-22)
(-5.21854 -0.99792 -1.43135e-20)
(-4.97305 -1.01861 1.27845e-20)
(-4.7214 -1.03312 4.29769e-22)
(-4.4657 -1.04194 0)
(-4.2078 -1.0461 8.5914e-21)
(-3.94913 -1.04715 6.75669e-21)
(-3.69038 -1.047 1.09678e-20)
(-3.43156 -1.0476 0)
(-3.172 -1.05069 -2.87955e-21)
(-2.91039 -1.05759 0)
(-2.64491 -1.06905 1.83376e-22)
(-2.37351 -1.08511 1.35467e-21)
(-2.0943 -1.10504 -2.6044e-21)
(-1.80581 -1.12743 3.8259e-21)
(-1.50734 -1.1503 9.29794e-21)
(-1.19896 -1.17153 -6.15825e-21)
(-0.881563 -1.18904 7.2488e-21)
(-0.556818 -1.20107 0)
(-0.22689 -1.20623 -1.77771e-20)
(0.105556 -1.20352 0)
(0.437671 -1.19249 -2.10444e-20)
(0.766672 -1.17311 2.23662e-20)