/*--------------------------------*- C++ -*----------------------------------*\
  =========                 |
  \\      /  F ield         | OpenFOAM: The Open Source CFD Toolbox
   \\    /   O peration     | Website:  https://openfoam.org
    \\  /    A nd           | Version:  9
     \\/     M anipulation  |
\*---------------------------------------------------------------------------*/
FoamFile
{
    format      ascii;
    class       volScalarField;
    location    "0.062";
    object      k;
}
// * * * * * * * * * * * * * * * * * * * * * * * * * * * * * * * * * * * * * //

dimensions      [0 2 -2 0 0 0 0];

internalField   nonuniform List<scalar> 
12225
(
0.000311955
0.000274837
0.000271512
0.000251483
0.000168843
0.000107833
7.39765e-05
5.06825e-05
3.65251e-05
3.13616e-05
3.12931e-05
3.6262e-05
6.17656e-05
9.72415e-05
0.000114721
0.00011934
0.000117583
9.94402e-05
2.23871e-05
4.56908e-05
5.38142e-05
5.1957e-05
4.4233e-05
3.89735e-05
3.63112e-05
3.40443e-05
3.04364e-05
2.71547e-05
2.56775e-05
2.56598e-05
2.6766e-05
3.0195e-05
3.71844e-05
5.49175e-05
7.78871e-05
8.3481e-05
2.01472e-05
1.92073e-05
1.94422e-05
1.87862e-05
1.82892e-05
1.82744e-05
1.86035e-05
1.90038e-05
1.90277e-05
1.89356e-05
1.886e-05
1.88818e-05
1.90273e-05
1.94457e-05
2.04372e-05
2.36284e-05
2.67698e-05
3.38198e-05
2.09415e-05
2.02295e-05
1.99654e-05
1.96959e-05
1.9446e-05
1.93012e-05
1.91286e-05
1.89395e-05
1.88877e-05
1.89986e-05
1.95807e-05
2.2086e-05
2.66332e-05
2.88608e-05
2.95346e-05
2.9737e-05
2.95014e-05
2.7645e-05
2.96347e-05
2.832e-05
2.35208e-05
2.13902e-05
2.11738e-05
2.28884e-05
2.71155e-05
2.57078e-05
2.38323e-05
2.42113e-05
2.86479e-05
5.30201e-05
0.000139387
0.000196372
0.000206665
0.000202554
0.000177331
0.000119203
2.32675e-05
2.19441e-05
2.22458e-05
2.24922e-05
2.25344e-05
2.27848e-05
2.32304e-05
2.2742e-05
2.22936e-05
2.27047e-05
2.58074e-05
4.06241e-05
0.000110856
0.000211679
0.000252437
0.000257818
0.000250894
0.00021045
2.03991e-05
2.04252e-05
2.16221e-05
2.2771e-05
2.30659e-05
2.34686e-05
2.41548e-05
2.44154e-05
2.47315e-05
2.49772e-05
2.56853e-05
2.83548e-05
3.99103e-05
7.47412e-05
0.000100561
0.000110643
0.00011164
0.000108323
2.00456e-05
2.02215e-05
2.06527e-05
2.14038e-05
2.17246e-05
2.18664e-05
2.21992e-05
2.41135e-05
3.15686e-05
3.486e-05
3.44639e-05
3.13811e-05
2.98316e-05
3.0124e-05
3.18961e-05
3.41963e-05
3.4846e-05
3.54005e-05
2.00173e-05
2.02883e-05
2.17907e-05
2.45961e-05
2.54036e-05
2.49583e-05
2.36595e-05
2.37096e-05
2.51987e-05
2.75239e-05
2.80031e-05
2.76257e-05
2.56584e-05
2.38394e-05
2.31261e-05
2.29712e-05
2.29774e-05
2.30765e-05
2.00292e-05
2.12752e-05
2.51859e-05
2.68961e-05
2.74001e-05
2.64172e-05
2.59156e-05
2.62853e-05
2.61982e-05
2.43133e-05
2.21233e-05
2.1402e-05
2.13235e-05
2.13303e-05
2.12235e-05
2.11662e-05
2.12305e-05
2.15165e-05
2.01132e-05
2.19043e-05
2.28606e-05
2.28335e-05
2.29173e-05
2.38856e-05
2.91665e-05
3.48038e-05
3.5199e-05
3.37875e-05
2.93436e-05
2.54786e-05
2.30936e-05
2.20796e-05
2.1691e-05
2.15952e-05
2.16097e-05
2.17114e-05
2.03933e-05
2.29242e-05
2.4316e-05
2.38178e-05
2.17939e-05
2.1779e-05
2.42994e-05
3.74854e-05
5.20072e-05
5.55536e-05
5.53701e-05
5.30639e-05
4.20664e-05
3.1905e-05
2.75909e-05
2.63331e-05
2.63414e-05
2.74944e-05
2.06851e-05
2.14109e-05
2.23065e-05
2.229e-05
2.28265e-05
2.4562e-05
3.02585e-05
4.33927e-05
4.96968e-05
5.106e-05
5.04725e-05
4.56036e-05
3.5125e-05
2.8498e-05
2.52034e-05
2.3879e-05
2.35766e-05
2.37146e-05
2.13227e-05
2.1212e-05
2.15702e-05
2.14876e-05
2.28071e-05
2.43643e-05
2.44609e-05
2.45661e-05
2.48176e-05
2.58846e-05
2.83575e-05
2.94596e-05
2.95157e-05
2.86504e-05
2.65456e-05
2.53399e-05
2.45842e-05
2.40969e-05
2.19875e-05
2.18572e-05
2.12153e-05
2.15958e-05
2.53162e-05
3.08102e-05
3.16258e-05
3.02753e-05
2.64877e-05
2.4195e-05
2.32951e-05
2.31936e-05
2.32332e-05
2.31857e-05
2.29478e-05
2.29007e-05
2.29194e-05
2.29457e-05
2.06608e-05
2.03575e-05
2.03361e-05
2.08128e-05
2.24527e-05
2.42886e-05
2.51256e-05
2.51699e-05
2.48994e-05
2.40123e-05
2.31401e-05
2.25367e-05
2.21442e-05
2.19172e-05
2.18148e-05
2.17888e-05
2.17907e-05
2.18289e-05
2.03558e-05
2.0488e-05
2.04509e-05
2.03933e-05
2.04231e-05
2.06577e-05
2.19115e-05
2.42952e-05
2.49736e-05
2.48121e-05
2.39364e-05
2.26572e-05
2.18201e-05
2.13509e-05
2.11333e-05
2.1063e-05
2.10571e-05
2.10883e-05
2.03807e-05
2.05795e-05
2.0568e-05
2.04762e-05
2.03531e-05
2.03394e-05
2.04158e-05
2.09186e-05
2.18821e-05
2.22752e-05
2.2301e-05
2.21422e-05
2.17057e-05
2.13977e-05
2.12341e-05
2.1189e-05
2.12159e-05
2.14526e-05
2.29326e-05
2.29496e-05
2.14402e-05
2.10208e-05
2.10485e-05
2.1149e-05
2.11811e-05
2.12058e-05
2.12453e-05
2.12678e-05
2.12708e-05
2.12658e-05
2.12604e-05
2.12622e-05
2.12816e-05
2.13791e-05
2.15421e-05
2.16309e-05
2.09483e-05
2.15824e-05
2.14829e-05
2.08229e-05
2.04536e-05
2.03859e-05
2.04076e-05
2.05842e-05
2.15016e-05
2.44943e-05
2.55497e-05
2.49316e-05
2.33643e-05
2.2963e-05
2.30265e-05
2.37762e-05
2.49989e-05
2.54924e-05
2.04105e-05
2.0472e-05
2.13576e-05
2.19134e-05
2.17153e-05
2.16989e-05
2.19713e-05
2.24824e-05
2.36944e-05
2.61676e-05
2.73956e-05
2.71782e-05
2.49471e-05
2.30896e-05
2.2535e-05
2.24905e-05
2.26757e-05
2.34736e-05
2.19903e-05
2.08434e-05
2.10565e-05
2.23656e-05
2.25377e-05
2.2441e-05
2.24474e-05
2.26339e-05
2.31223e-05
2.32509e-05
2.30339e-05
2.28025e-05
2.28071e-05
2.30959e-05
2.44432e-05
2.9202e-05
4.66685e-05
6.48087e-05
2.06583e-05
2.08658e-05
2.14983e-05
2.39684e-05
2.43133e-05
2.36961e-05
2.2673e-05
2.20998e-05
2.18354e-05
2.17338e-05
2.17067e-05
2.17069e-05
2.17361e-05
2.18882e-05
2.24752e-05
2.49549e-05
3.02132e-05
3.43297e-05
2.02058e-05
2.05129e-05
2.10161e-05
2.27236e-05
2.76704e-05
2.90592e-05
2.82011e-05
2.51083e-05
2.31154e-05
2.23916e-05
2.21909e-05
2.21456e-05
2.21371e-05
2.2147e-05
2.22632e-05
2.29412e-05
2.40418e-05
2.45431e-05
2.05285e-05
2.09975e-05
2.15334e-05
2.30881e-05
2.53531e-05
2.60071e-05
2.55333e-05
2.35384e-05
2.22815e-05
2.17982e-05
2.16478e-05
2.1628e-05
2.16726e-05
2.20113e-05
2.27495e-05
2.29543e-05
2.27888e-05
2.2129e-05
2.01813e-05
2.13089e-05
2.16082e-05
2.14979e-05
2.11839e-05
2.11232e-05
2.12122e-05
2.18531e-05
2.23539e-05
2.24385e-05
2.23938e-05
2.21526e-05
2.20175e-05
2.20201e-05
2.22054e-05
2.23641e-05
2.23705e-05
2.23413e-05
2.02718e-05
2.02312e-05
2.00686e-05
1.99005e-05
1.95111e-05
1.94411e-05
1.94468e-05
1.93607e-05
1.90017e-05
1.87144e-05
1.85936e-05
1.84513e-05
1.81155e-05
1.68995e-05
1.54673e-05
1.51868e-05
1.5536e-05
1.65649e-05
2.0022e-05
1.68255e-05
1.27134e-05
1.06721e-05
1.04002e-05
1.05947e-05
1.14902e-05
1.23842e-05
1.28421e-05
1.30178e-05
1.30277e-05
1.29312e-05
1.26699e-05
1.23745e-05
1.22135e-05
1.22233e-05
1.25606e-05
1.32484e-05
2.21593e-05
2.4685e-05
2.33056e-05
2.16232e-05
2.1678e-05
2.35266e-05
3.13547e-05
5.06876e-05
7.00348e-05
8.49149e-05
9.22349e-05
9.33116e-05
9.15955e-05
8.35525e-05
6.44465e-05
4.90866e-05
3.89549e-05
3.3275e-05
0.000134646
0.000156391
9.38551e-05
4.40491e-05
3.83972e-05
5.2055e-05
0.000133251
0.000268628
0.000344893
0.000372658
0.000375169
0.000362937
0.000294099
0.000184161
0.000114556
7.82772e-05
6.38937e-05
6.10958e-05
0.0714207
0.0928072
0.0969613
0.101457
0.102831
0.100637
0.0944978
0.0875396
0.083986
0.0808762
0.0795744
0.0797305
0.080205
0.0825635
0.0872597
0.0870875
0.0830081
0.0731066
0.0665809
0.0615902
0.0590253
0.0589236
0.0602329
0.0650612
0.0809707
0.096905
0.121661
0.192154
0.241872
0.241013
0.213896
0.176504
0.148176
0.187312
0.247633
0.258638
0.259006
0.250255
0.233358
0.222979
0.21042
0.19134
0.181409
0.176189
0.169981
0.167102
0.165796
0.165421
0.16567
0.167981
0.171827
0.175132
0.179927
0.185498
0.192705
0.196284
0.196827
0.195897
0.191273
0.181335
0.174456
0.173214
0.173221
0.174338
0.175666
0.17568
0.174355
0.171298
0.166724
0.160157
0.151085
0.140906
0.13487
0.133475
0.135427
0.138652
0.140634
0.143049
0.145621
0.156402
0.183053
0.200317
0.232336
0.389671
0.550678
0.534499
0.375659
0.112253
0.0936505
0.064061
0.0537719
0.0452081
0.0346394
0.0296033
0.0236254
0.0210043
0.0193545
0.0188089
0.0186764
0.0183059
0.0181223
0.0177799
0.0176105
0.0171882
0.0168348
0.0165303
0.0161755
0.0159858
0.0155741
0.0153837
0.0150168
0.0148373
0.0145173
0.01433
0.0142317
0.0140512
0.0139886
0.0139553
0.0139596
0.0139824
0.014068
0.0141951
0.0143734
0.0145807
0.01482
0.0150409
0.0153652
0.0160461
0.0164629
0.0165743
0.0165522
0.0163063
0.0157877
0.0153141
0.0149112
0.0145811
0.014359
0.0142848
0.014294
0.0143314
0.0144039
0.0145284
0.0146596
0.0147991
0.0149288
0.0150277
0.0151013
0.0151654
0.0152359
0.0152965
0.015368
0.0154377
0.0154769
0.0154811
0.0153961
0.0148974
0.00625847
0.000836548
0.00080432
0.00147325
0.00154573
0.00155095
0.00160388
0.00183076
0.0025399
0.00490786
0.00509194
0.00290637
0.0012155
0.000908805
0.000829878
0.000797494
0.000766382
0.000792696
0.000867168
0.000897189
0.000672459
0.000330918
0.000152637
7.2888e-05
0.0560246
0.101571
0.0964756
0.080147
0.0650376
0.060564
0.0603246
0.0603636
0.0606094
0.0607869
0.0607018
0.0602758
0.0604008
0.0609725
0.0627031
0.0686263
0.0732478
0.0733201
0.0730283
0.0696608
0.0647465
0.0650794
0.0713859
0.0806317
0.094285
0.129967
0.168653
0.200836
0.216697
0.204517
0.170666
0.160261
0.184304
0.220876
0.231646
0.224977
0.188946
0.164879
0.147669
0.136533
0.129006
0.123091
0.121154
0.120595
0.12073
0.123089
0.12672
0.129497
0.133314
0.137992
0.14125
0.144373
0.147981
0.150685
0.152909
0.154815
0.155483
0.15537
0.154596
0.15361
0.152743
0.151254
0.147947
0.141976
0.132838
0.121341
0.108611
0.0958575
0.085503
0.0828792
0.0844611
0.0912826
0.103142
0.116764
0.132916
0.149895
0.153268
0.148272
0.134033
0.133106
0.141588
0.165495
0.205829
0.292142
0.431747
0.203046
0.124938
0.0773425
0.0585156
0.0390409
0.033073
0.0294944
0.0275088
0.0266152
0.0261278
0.025966
0.0258408
0.0257648
0.0253441
0.0246559
0.0240034
0.0234706
0.0228064
0.0221742
0.0212951
0.0206208
0.0197436
0.0190641
0.017899
0.0167703
0.0159515
0.014656
0.0136995
0.0125304
0.011959
0.0111226
0.0104847
0.00990485
0.00948469
0.00904135
0.00864393
0.00833372
0.00812851
0.00805478
0.00815029
0.00835031
0.00862652
0.00893055
0.0091977
0.0093675
0.00940908
0.00936555
0.00917565
0.0090675
0.0090732
0.00911332
0.00919088
0.00929378
0.00938518
0.00946928
0.00957626
0.00969191
0.00977676
0.00986082
0.00999997
0.0101495
0.0102701
0.0104288
0.0108216
0.0112776
0.0116012
0.012292
0.0131703
0.01391
0.014744
0.0151109
0.0143757
0.0109198
0.00676374
0.004901
0.00389815
0.00312124
0.00280015
0.00253402
0.00253067
0.00269272
0.00358924
0.00416688
0.00418045
0.00368188
0.00255528
0.00198478
0.00175772
0.00172596
0.00172965
0.00168867
0.00153504
0.00145234
0.00127939
0.00121014
0.0640751
0.0869331
0.0692717
0.0478353
0.0481957
0.0507751
0.0568912
0.0611892
0.066023
0.0688398
0.0687899
0.0679149
0.0651996
0.0633242
0.0632192
0.0637618
0.0663645
0.0714545
0.0724947
0.0719098
0.0732209
0.084255
0.113789
0.137664
0.152006
0.162455
0.170913
0.171284
0.162746
0.157883
0.15548
0.167047
0.190227
0.199092
0.180889
0.154195
0.137265
0.123976
0.117066
0.108606
0.103997
0.101304
0.10037
0.100144
0.100453
0.102226
0.104215
0.105477
0.107819
0.110329
0.110971
0.110922
0.110186
0.108638
0.1065
0.103489
0.0991371
0.0929617
0.0847826
0.0749376
0.0644183
0.0545344
0.0463208
0.0394393
0.0360136
0.0354232
0.0361851
0.0390353
0.0452891
0.0558534
0.0706903
0.0893653
0.110591
0.13797
0.17232
0.19716
0.204629
0.205464
0.196128
0.159238
0.14276
0.146265
0.162768
0.261282
0.251298
0.10296
0.06564
0.047492
0.0382486
0.0334697
0.0319624
0.0313083
0.0312647
0.0325199
0.0335599
0.0344761
0.0350539
0.0352636
0.0352042
0.0340685
0.0330287
0.0315704
0.0302033
0.0290295
0.027594
0.0266626
0.0257255
0.0248004
0.0242887
0.0233059
0.0226291
0.0216684
0.0205148
0.0189178
0.0172098
0.0152854
0.0135627
0.0121067
0.0107031
0.00958573
0.00867175
0.00795071
0.00738844
0.00692052
0.0065719
0.00639701
0.00636643
0.00638601
0.00644058
0.0065328
0.00661929
0.0066741
0.00676
0.00700629
0.00748719
0.00793448
0.0082471
0.00848107
0.00861482
0.00863784
0.00862297
0.00857138
0.00844852
0.00823292
0.00801989
0.00777556
0.00754585
0.00738323
0.00703127
0.006805
0.00681351
0.00689637
0.00719252
0.00804558
0.00900222
0.0115056
0.0133159
0.0130984
0.0120798
0.0111579
0.010882
0.0103414
0.00778015
0.00467365
0.00322352
0.00281279
0.00280078
0.00305473
0.00320658
0.00302218
0.00240775
0.00217243
0.00226844
0.0026004
0.00276714
0.00274144
0.00247295
0.00205252
0.00161664
0.00131982
0.0556616
0.0515636
0.0374343
0.0388242
0.0481559
0.0687101
0.0813284
0.0869986
0.092322
0.0941647
0.0937038
0.0919664
0.0875741
0.0775239
0.0698013
0.0671671
0.0679319
0.0705394
0.0716969
0.0748649
0.0946141
0.116539
0.12597
0.137101
0.14643
0.150818
0.150473
0.148751
0.148848
0.15035
0.155273
0.166225
0.171112
0.149538
0.127721
0.102093
0.0900322
0.075823
0.0681905
0.058909
0.0547681
0.0498526
0.0461784
0.0428945
0.0403534
0.0385142
0.036626
0.035547
0.0343654
0.0331288
0.0315207
0.0295802
0.027804
0.0261042
0.0243763
0.0224673
0.0203387
0.0180336
0.0157457
0.0138418
0.0130417
0.0126965
0.0125761
0.01259
0.0131531
0.0146133
0.01736
0.0225391
0.029989
0.0387631
0.050274
0.0683946
0.0956187
0.133541
0.17548
0.200253
0.209038
0.220584
0.219982
0.203561
0.151287
0.137836
0.163848
0.238985
0.152133
0.0655761
0.0467605
0.0391473
0.0360364
0.034863
0.0349884
0.0375941
0.0409862
0.0456436
0.0497742
0.0541722
0.0569823
0.0583168
0.0586372
0.0555096
0.0513809
0.0464344
0.0403272
0.0361922
0.0315276
0.0293845
0.0274194
0.0258401
0.0250542
0.0241076
0.0234609
0.0229771
0.0223562
0.0214644
0.0204458
0.0190638
0.0172988
0.015406
0.0135955
0.0118506
0.0102549
0.00886883
0.00775978
0.006959
0.00636782
0.00601015
0.00587509
0.00586064
0.00587009
0.00590183
0.00594236
0.00600264
0.00613706
0.00655311
0.00723992
0.00783122
0.00831831
0.00863416
0.00880725
0.00889069
0.00891586
0.00891463
0.00888546
0.00881321
0.00878151
0.00877832
0.00878206
0.00879398
0.00882965
0.00885773
0.00889321
0.00913339
0.0092606
0.00928594
0.00945976
0.0100109
0.0112695
0.0124221
0.0125547
0.0125353
0.0125844
0.0126653
0.0123
0.00964945
0.00579456
0.00393489
0.00322212
0.00308368
0.00303365
0.00289833
0.00276267
0.00304946
0.003813
0.00419503
0.00422884
0.00396803
0.00372712
0.00330838
0.00288358
0.00208713
0.0544672
0.0484681
0.0326443
0.0469405
0.0782701
0.0877891
0.0916343
0.0964128
0.101217
0.102849
0.102358
0.100207
0.094982
0.0849459
0.075117
0.0710055
0.0703633
0.0716041
0.0791648
0.102067
0.111343
0.119759
0.127757
0.13499
0.138331
0.139333
0.140437
0.141974
0.144281
0.146605
0.148916
0.148704
0.124961
0.10126
0.078694
0.0600719
0.0504166
0.0390602
0.0335367
0.027115
0.0241194
0.0201946
0.018333
0.0160882
0.0146976
0.0134202
0.0122078
0.0114649
0.0104556
0.00993937
0.00933766
0.00895778
0.00870317
0.00849199
0.00832374
0.00816001
0.00807392
0.00801548
0.00797544
0.00793501
0.00787702
0.00777418
0.00762442
0.00743812
0.00731613
0.00729565
0.00784373
0.00885008
0.0106255
0.0135862
0.0196981
0.0328882
0.0622157
0.114351
0.171723
0.192886
0.207135
0.222335
0.231386
0.221062
0.163378
0.131452
0.170579
0.206741
0.090522
0.0499557
0.0410802
0.0382757
0.0373964
0.0385151
0.0428755
0.0513601
0.0639597
0.0819635
0.102995
0.115553
0.121715
0.124054
0.123913
0.117002
0.107829
0.0964017
0.0802562
0.0657844
0.0498383
0.0390307
0.032492
0.0283834
0.0255604
0.0240445
0.022793
0.021838
0.0212177
0.0210266
0.020485
0.0194074
0.0178238
0.0159233
0.0140839
0.012289
0.0105896
0.00905957
0.00780465
0.00677991
0.00604927
0.00563803
0.00547235
0.00544972
0.00546016
0.00549692
0.00555095
0.00566147
0.00591396
0.00650595
0.00732694
0.00798314
0.00839834
0.00865968
0.00879872
0.00884467
0.00884466
0.00880969
0.0086362
0.00836882
0.00824946
0.0082342
0.00824431
0.00827903
0.00836075
0.00846266
0.00864146
0.00904917
0.0105878
0.011863
0.0119686
0.0118399
0.0119822
0.0124346
0.0127321
0.0128711
0.013241
0.0138045
0.0138382
0.0130007
0.00926565
0.0062174
0.00465531
0.00372437
0.00329649
0.00316056
0.00331778
0.00400076
0.00456614
0.00477934
0.00470317
0.0041674
0.00389894
0.00367524
0.00352043
0.00310651
0.0749486
0.0520707
0.031265
0.0695502
0.0873365
0.0912513
0.0949724
0.101053
0.105332
0.106399
0.106068
0.100521
0.0908605
0.0794146
0.0725079
0.07146
0.0743778
0.0883482
0.103435
0.108273
0.113444
0.119996
0.12411
0.125668
0.126442
0.128571
0.131323
0.13365
0.134536
0.13371
0.125012
0.1057
0.0808159
0.0612775
0.0438995
0.0330915
0.0264406
0.0202254
0.0172863
0.0143326
0.0129989
0.0115704
0.0109145
0.0101474
0.00977495
0.0092369
0.00886255
0.00854849
0.00817438
0.00797889
0.00777746
0.00771262
0.00769089
0.00768467
0.00768761
0.00771443
0.00777238
0.00786051
0.00793016
0.00795433
0.00795462
0.00782581
0.00752682
0.00705231
0.00645654
0.00572535
0.00516344
0.00496596
0.00533787
0.00668662
0.0103027
0.0195067
0.0430038
0.09606
0.159882
0.184196
0.200638
0.223004
0.230891
0.213559
0.155225
0.136176
0.172891
0.165813
0.0650982
0.0445324
0.0405117
0.039512
0.0410645
0.0465018
0.0588901
0.0840473
0.123995
0.144609
0.153969
0.157762
0.15867
0.156423
0.150197
0.14467
0.137111
0.127531
0.115821
0.100978
0.0827513
0.0638322
0.0468662
0.03745
0.0304599
0.0260822
0.0234387
0.0217045
0.0202158
0.0192458
0.0188157
0.0184177
0.0172717
0.0154058
0.0134823
0.0116252
0.00988792
0.00827543
0.00692417
0.00606029
0.00561096
0.00537239
0.00526584
0.0052369
0.00523754
0.00525785
0.00533124
0.00550926
0.00597679
0.00688488
0.00759436
0.00806772
0.00838086
0.00853667
0.00857276
0.00856447
0.00851171
0.00832122
0.00778945
0.00734402
0.00717117
0.00716041
0.00718734
0.00726975
0.00745542
0.00769513
0.00810282
0.00898112
0.0122102
0.0172611
0.0184761
0.0181639
0.0165818
0.0145651
0.0139323
0.0139706
0.0144217
0.0153476
0.0156079
0.0153042
0.0128481
0.00910828
0.00682801
0.00508576
0.00401966
0.00372186
0.00378626
0.00432905
0.00478222
0.00498799
0.0048973
0.00410295
0.00343775
0.00340726
0.00343003
0.00339257
0.0834488
0.0526586
0.0322742
0.0788634
0.0896399
0.092076
0.0961411
0.102256
0.105789
0.104221
0.0991842
0.08809
0.0770788
0.0726531
0.0730689
0.0798585
0.0921913
0.09996
0.104241
0.107222
0.110668
0.112158
0.109399
0.108983
0.110834
0.112997
0.113987
0.114247
0.110478
0.101508
0.085575
0.0663072
0.0482956
0.0338932
0.0238497
0.0189657
0.0154352
0.0132034
0.0121387
0.0113307
0.0109652
0.0105868
0.0104057
0.0101209
0.00995051
0.00969012
0.00953315
0.00940974
0.00929098
0.00925506
0.00926369
0.00937186
0.00953519
0.00961474
0.00966572
0.00970834
0.00980857
0.00986303
0.00988357
0.0098416
0.00977282
0.00961375
0.00922872
0.00832746
0.00721872
0.0058917
0.00474045
0.00403352
0.0037526
0.00406221
0.00616366
0.0133809
0.0342251
0.0835655
0.149381
0.173221
0.182684
0.199725
0.209871
0.180699
0.146276
0.145782
0.168783
0.125788
0.053497
0.0429509
0.0412924
0.0416859
0.0463722
0.0597215
0.0920683
0.137561
0.157333
0.164749
0.16663
0.166683
0.163516
0.156765
0.152
0.146426
0.139508
0.131214
0.121202
0.108205
0.0913268
0.0724902
0.053839
0.0409953
0.0327141
0.0272737
0.023999
0.0218933
0.0200366
0.0186233
0.0177979
0.0170594
0.0156511
0.0136092
0.01141
0.00941285
0.00787011
0.00687552
0.00624976
0.00584193
0.00554693
0.00535772
0.00526093
0.00522819
0.00522642
0.00524575
0.00533315
0.00562427
0.00644494
0.0072207
0.00770762
0.00802986
0.00813441
0.0081273
0.00808245
0.00795772
0.00766546
0.00694021
0.00613394
0.00563742
0.00549091
0.00549817
0.00556129
0.00571671
0.00603922
0.00655446
0.00748571
0.00940041
0.0149688
0.0309978
0.0377222
0.0375372
0.0336813
0.0244914
0.0195298
0.017904
0.0179697
0.0186469
0.0188941
0.0184469
0.0156182
0.0118554
0.00898851
0.00653211
0.00485248
0.00413334
0.00406229
0.00439837
0.00485028
0.00511484
0.00506067
0.00421466
0.00287962
0.00239094
0.00246324
0.00288005
0.0849123
0.0570645
0.0377349
0.0818903
0.0898104
0.090139
0.0936738
0.0965474
0.0960893
0.0890919
0.0791344
0.0734132
0.0712416
0.0728972
0.0828855
0.0903492
0.0944377
0.0973346
0.0989075
0.0998548
0.0969785
0.0912135
0.0898342
0.0903553
0.091531
0.0920508
0.0909565
0.0871773
0.0787934
0.0675958
0.0533258
0.0386474
0.0273801
0.0194024
0.0155903
0.0136853
0.0125984
0.0120655
0.0117526
0.0115829
0.0115403
0.0116869
0.0120172
0.0123958
0.0129315
0.0134305
0.0139823
0.0145582
0.0151779
0.015737
0.016256
0.0165927
0.016874
0.0170431
0.0171157
0.0170541
0.0170503
0.017013
0.0168397
0.0164812
0.0160557
0.0154998
0.0146727
0.0127677
0.0104017
0.00776234
0.00545631
0.00394858
0.00328525
0.00299539
0.0035058
0.00713166
0.0210609
0.0625543
0.135751
0.16577
0.170436
0.169822
0.162024
0.15137
0.146262
0.15386
0.157779
0.0915223
0.0486888
0.0433464
0.0428047
0.0456529
0.0578973
0.0865432
0.128113
0.15512
0.163186
0.164904
0.16445
0.157851
0.146369
0.137659
0.133465
0.129848
0.126166
0.121313
0.115621
0.107039
0.0914981
0.073152
0.054462
0.0411368
0.03244
0.0266456
0.0230056
0.0207699
0.0187522
0.0172189
0.0164548
0.0159348
0.0147791
0.0127331
0.0103253
0.00832669
0.00706156
0.00638973
0.00607083
0.0058282
0.00563076
0.00549287
0.00540288
0.00536098
0.00535691
0.00539197
0.00557036
0.00618523
0.00695703
0.0073942
0.00767843
0.00769126
0.00764894
0.00752652
0.00725862
0.00673927
0.0057217
0.00469177
0.00393585
0.00358645
0.00354327
0.00357849
0.003698
0.00396026
0.00448012
0.00557009
0.00828361
0.0137377
0.0254318
0.0497529
0.0683413
0.0722821
0.0702989
0.0587589
0.0392644
0.0315043
0.0291126
0.0283002
0.0270975
0.0240951
0.0189517
0.0146112
0.0110648
0.00787571
0.005528
0.00440592
0.00421382
0.00439157
0.00487763
0.00518655
0.00515446
0.00455432
0.00296689
0.00196882
0.00165888
0.00180246
0.0841314
0.0654298
0.0451324
0.0795495
0.0881088
0.0875522
0.0849862
0.0855639
0.0810217
0.0758005
0.0733409
0.0721438
0.0723595
0.0818578
0.086379
0.0881836
0.0875619
0.0864932
0.085812
0.0811574
0.073709
0.0708668
0.0704186
0.0706068
0.070588
0.0691289
0.0662218
0.0600387
0.0514685
0.0419608
0.0315499
0.0229907
0.0175249
0.0147101
0.0135015
0.0129455
0.0126465
0.0125198
0.0127538
0.0134925
0.014653
0.0164412
0.0182105
0.0199997
0.0215436
0.0230307
0.0245542
0.0257129
0.0269067
0.0280266
0.0291064
0.0296554
0.0298133
0.0295725
0.0288318
0.0279207
0.0268359
0.0260018
0.0251308
0.0244853
0.0238373
0.0232406
0.022592
0.0213285
0.0188253
0.0142948
0.00900478
0.00527902
0.00345322
0.00270465
0.00248776
0.0031281
0.00784299
0.0281475
0.0967001
0.15495
0.165862
0.162872
0.152825
0.150907
0.149814
0.155646
0.140618
0.071852
0.0477369
0.0446824
0.0460769
0.0532846
0.0710071
0.099388
0.136881
0.156052
0.160814
0.158426
0.139433
0.106847
0.0911107
0.0858043
0.0922807
0.0997506
0.104294
0.104188
0.101677
0.0956351
0.0810067
0.0608062
0.0439914
0.0328872
0.025774
0.0212267
0.0185163
0.0169258
0.0155124
0.0143534
0.0136091
0.013044
0.0119526
0.0103992
0.00861946
0.00720381
0.00637045
0.00599078
0.00598313
0.00598531
0.00598377
0.00594475
0.00587262
0.0058185
0.00581077
0.00587706
0.00624317
0.00686761
0.00719688
0.00735346
0.00732166
0.007202
0.00693688
0.00643354
0.00552334
0.0041793
0.00298996
0.00214907
0.00169316
0.00155927
0.00156479
0.00162863
0.00180748
0.00220984
0.00309549
0.00511513
0.0107059
0.0258479
0.0410896
0.0579594
0.0800062
0.0957494
0.0977993
0.0948243
0.0817548
0.069923
0.0645005
0.0604403
0.0512402
0.0379339
0.0267689
0.0188588
0.0132276
0.00888869
0.00595869
0.00460627
0.00433466
0.00441666
0.00484008
0.00516691
0.00514289
0.00470916
0.00328855
0.00201251
0.00135745
0.00127124
0.0795842
0.0732872
0.0494879
0.0739284
0.0873495
0.0868137
0.0805529
0.0785475
0.0756535
0.074478
0.0743081
0.0759501
0.0804032
0.0819254
0.081453
0.07648
0.0741214
0.0729937
0.0679079
0.0596327
0.0547604
0.0530906
0.0525771
0.0521526
0.0507419
0.0485983
0.0449467
0.0389905
0.032879
0.026455
0.0204844
0.0166197
0.0147607
0.0139336
0.0135749
0.0134443
0.0138944
0.0151788
0.0179365
0.0204744
0.0229983
0.024917
0.0265676
0.0283567
0.030455
0.0323487
0.0341652
0.0357035
0.0368865
0.037384
0.0375566
0.0374561
0.0365678
0.0353905
0.0339944
0.0322366
0.0303319
0.0286871
0.0271358
0.0261646
0.0253691
0.0249001
0.024468
0.0240495
0.0234685
0.0219169
0.0180643
0.0110328
0.00576509
0.00330122
0.00239084
0.0022506
0.00343679
0.0114256
0.0461691
0.131738
0.162549
0.166566
0.159238
0.156632
0.157945
0.155573
0.128121
0.0647792
0.0484817
0.04691
0.0498154
0.0577611
0.0718517
0.0978018
0.13329
0.152416
0.15489
0.144181
0.105479
0.0748094
0.0629326
0.0609573
0.0662083
0.0824509
0.0953562
0.0978029
0.0969587
0.0922883
0.0780276
0.0548739
0.0374796
0.0274723
0.0213271
0.0173111
0.0150063
0.0134463
0.0121984
0.0111351
0.0104718
0.00970946
0.00857734
0.0071348
0.00612693
0.0056147
0.00546799
0.00557465
0.00598179
0.00650152
0.00683907
0.00695092
0.00694096
0.00687574
0.00681968
0.0069034
0.00714524
0.00721145
0.0071761
0.00706254
0.00681976
0.00628828
0.00552505
0.00400916
0.0024866
0.0015557
0.00103226
0.000756017
0.000643271
0.000633554
0.000661626
0.000757222
0.000987831
0.00150625
0.00269031
0.00560327
0.014398
0.0340551
0.0498419
0.0646519
0.0828808
0.0995383
0.111949
0.113502
0.11081
0.10615
0.104041
0.101533
0.0954573
0.0745723
0.0466188
0.0288288
0.0180357
0.0110325
0.00683078
0.00497029
0.00449632
0.00449684
0.00480867
0.00510282
0.00508194
0.00477754
0.00366149
0.0022426
0.00133724
0.0010157
0.0710615
0.0769318
0.0615941
0.0666407
0.0861069
0.0872624
0.0790711
0.0761219
0.075419
0.0753919
0.0775263
0.0797143
0.0796989
0.0759533
0.0673399
0.0639429
0.0622636
0.0580097
0.0499414
0.0430208
0.0402264
0.0389996
0.0382182
0.0372105
0.0354725
0.0335598
0.0303647
0.0263065
0.0228733
0.019183
0.0165601
0.0152569
0.0146247
0.0143564
0.0146811
0.0160162
0.0189301
0.0217567
0.024111
0.0260472
0.0279988
0.0303409
0.0330194
0.0354567
0.0375176
0.0391449
0.0403557
0.0409473
0.0412127
0.0412928
0.0409154
0.0400361
0.0392831
0.0379306
0.0364375
0.0344019
0.0320869
0.0298931
0.0278353
0.0263055
0.0252149
0.0246239
0.0243774
0.0241725
0.0240843
0.0236751
0.0226796
0.0200116
0.0131717
0.00652674
0.00336896
0.00222988
0.00212654
0.00393076
0.0157729
0.0648497
0.143166
0.163946
0.16633
0.162569
0.159541
0.153733
0.115778
0.0620677
0.0502265
0.0494686
0.0519554
0.0577353
0.0696961
0.0909231
0.120589
0.141742
0.142073
0.127255
0.094877
0.070005
0.0586846
0.057728
0.0607368
0.075649
0.0880284
0.0917882
0.0910935
0.0862756
0.0705081
0.0477787
0.0319256
0.0232729
0.0180481
0.0145513
0.0123633
0.0105792
0.00909084
0.00775311
0.00695638
0.00631281
0.00580164
0.00543946
0.00519857
0.00510731
0.00516654
0.00544928
0.00641138
0.00768805
0.00853703
0.00886064
0.00890014
0.00887047
0.00855025
0.00802761
0.00752467
0.00729856
0.00696604
0.00648391
0.00569066
0.00437716
0.00250592
0.00141713
0.000840983
0.000531873
0.000391229
0.000336889
0.000342189
0.000376534
0.000450858
0.000587738
0.000865204
0.00148318
0.00305765
0.00749916
0.018907
0.0380681
0.0549563
0.0678064
0.0831952
0.0994335
0.111623
0.119121
0.124389
0.127039
0.127413
0.126784
0.12337
0.110396
0.0746955
0.0446228
0.0257561
0.0142681
0.00803959
0.00543979
0.00467637
0.00461312
0.00486351
0.00509216
0.00508741
0.00493808
0.00423063
0.00264289
0.00147458
0.000940249
0.0670759
0.0777453
0.0694211
0.0624803
0.0828383
0.0877822
0.079793
0.0760153
0.0760402
0.077936
0.0798877
0.0796302
0.0751331
0.0626467
0.0563325
0.0541438
0.0515231
0.0449973
0.0362125
0.031981
0.0301633
0.0292011
0.0282059
0.0271592
0.0259295
0.0245803
0.0223609
0.0201864
0.0186193
0.0168176
0.0159411
0.0154857
0.0153501
0.016422
0.0184796
0.0212333
0.0236017
0.0258078
0.0277999
0.0302374
0.0330407
0.0361606
0.0390476
0.0412922
0.0429324
0.0442199
0.0450272
0.0456283
0.0461332
0.0463196
0.0461352
0.0454842
0.0442826
0.0426659
0.0405075
0.0379613
0.0350494
0.0316659
0.0287051
0.0262212
0.0244985
0.0233152
0.0226489
0.0225074
0.0231429
0.0235416
0.0234175
0.0227057
0.0207432
0.0153365
0.00770288
0.00368345
0.00213137
0.00195601
0.00392829
0.0175863
0.0741441
0.14562
0.160822
0.162233
0.158682
0.148958
0.102714
0.0631827
0.0535868
0.0526648
0.0535326
0.0568898
0.0637881
0.0749022
0.0914069
0.109832
0.107364
0.0975105
0.0787733
0.0636049
0.0577897
0.0576484
0.0612764
0.0751619
0.0851991
0.0862397
0.0841554
0.0752433
0.05168
0.0318375
0.0215044
0.0155482
0.0121475
0.0101073
0.00877405
0.00774762
0.00692296
0.00625077
0.0057435
0.00536129
0.00509902
0.00495668
0.00491498
0.00493683
0.00507032
0.00562001
0.00751919
0.00984043
0.0113174
0.0118917
0.0119753
0.0113309
0.00963016
0.00836846
0.00755324
0.00702542
0.00607794
0.005085
0.00312069
0.00163722
0.000869507
0.000487407
0.000310312
0.00023208
0.000226097
0.000241828
0.000280782
0.000367947
0.00050022
0.0007078
0.00111597
0.00199933
0.00423325
0.0115944
0.0233235
0.0390131
0.0549448
0.0699237
0.0809028
0.0945018
0.107811
0.11765
0.126423
0.135359
0.138729
0.138516
0.135776
0.126733
0.0994277
0.0610339
0.0342559
0.0180169
0.00955682
0.00603259
0.00491832
0.00480277
0.00496449
0.00522621
0.00542367
0.00541337
0.00495816
0.0032708
0.00173953
0.000972964
0.0665988
0.0777026
0.0705614
0.0605088
0.076965
0.0880075
0.0832422
0.0760772
0.076147
0.0793183
0.0802145
0.0770297
0.0649205
0.052396
0.0484547
0.0466821
0.0428495
0.0347677
0.0279754
0.0252452
0.023996
0.0232399
0.0223917
0.0216111
0.020906
0.0201071
0.0188452
0.0179029
0.0173147
0.0165867
0.0162518
0.0163475
0.0173381
0.0197682
0.0224514
0.0249077
0.0272109
0.0296442
0.0324225
0.0358144
0.0397238
0.0432556
0.0457604
0.0478916
0.0495329
0.0509866
0.0523417
0.0535142
0.0543431
0.0547627
0.0549081
0.0544888
0.05355
0.0517499
0.0491147
0.0459851
0.0424291
0.0380171
0.0334457
0.0291615
0.0259826
0.0235616
0.0220594
0.0208657
0.0199774
0.0208077
0.0222361
0.022809
0.0223204
0.020882
0.0171471
0.00962268
0.00424835
0.00207273
0.00162442
0.0031921
0.0166879
0.0787802
0.143716
0.154431
0.154669
0.134791
0.0994092
0.0662833
0.0567844
0.0544546
0.0546971
0.0564853
0.0586257
0.0617977
0.0675074
0.0748867
0.0738908
0.0704208
0.0633355
0.0585591
0.0580662
0.0598463
0.0695326
0.0796986
0.0831326
0.0822307
0.0768811
0.0598961
0.0378805
0.0244799
0.0171524
0.0126641
0.0102406
0.00891527
0.00801169
0.00728648
0.00663311
0.00605358
0.00558177
0.00523004
0.00500818
0.00490886
0.00489505
0.00493115
0.00518211
0.00627533
0.00959814
0.0130329
0.0147176
0.0149511