/*--------------------------------*- C++ -*----------------------------------*\
  =========                 |
  \\      /  F ield         | OpenFOAM: The Open Source CFD Toolbox
   \\    /   O peration     | Website:  https://openfoam.org
    \\  /    A nd           | Version:  9
     \\/     M anipulation  |
\*---------------------------------------------------------------------------*/
FoamFile
{
    format      ascii;
    class       volScalarField;
    location    "0.062";
    object      nut;
}
// * * * * * * * * * * * * * * * * * * * * * * * * * * * * * * * * * * * * * //

dimensions      [0 2 -1 0 0 0 0];

internalField   nonuniform List<scalar> 
12225
(
1.83305e-09
0
0
0
0
0
0
0
0
0
0
0
0
0
0
0
0
0
5.37415e-10
0
0
0
0
0
0
0
0
0
0
0
0
0
0
0
0
0
4.74799e-10
0
0
0
0
0
0
0
0
0
0
0
0
0
2.01716e-10
4.20091e-10
3.73991e-10
7.83886e-10
4.41703e-08
0
0
0
2.45211e-09
2.51333e-09
4.71724e-11
0
0
0
0
0
1.66825e-09
3.08704e-09
2.93041e-09
2.00943e-09
6.51627e-10
0
4.11944e-07
3.74922e-07
0
0
0
0
4.71215e-07
4.55031e-07
0
0
0
9.98973e-08
2.80036e-07
3.72839e-07
3.08294e-07
1.93357e-07
6.82092e-08
0
2.72222e-07
0
0
0
0
1.68502e-07
5.37135e-07
5.62762e-07
0
0
0
0
7.85985e-07
1.74566e-06
1.93738e-06
1.62465e-06
1.21204e-06
8.53048e-07
2.61127e-07
0
0
0
0
0
6.87766e-07
1.02054e-06
1.3408e-06
6.95721e-07
3.39813e-07
2.31555e-07
2.76033e-07
5.35001e-07
9.7579e-07
1.45336e-06
1.46959e-06
9.8459e-07
0
0
0
0
0
0
0
8.76987e-07
2.042e-06
1.69506e-06
9.45299e-07
4.65184e-07
2.57253e-07
2.13544e-07
2.95986e-07
3.43952e-07
1.20935e-07
1.94983e-08
0
0
0
0
0
3.4563e-07
5.38913e-07
2.84008e-07
3.84479e-07
6.44873e-07
7.29503e-07
6.09042e-07
5.06017e-07
3.92118e-07
1.4565e-07
2.07327e-08
0
0
0
0
0
0
3.84531e-07
5.28942e-07
7.54137e-07
9.42802e-07
8.7285e-07
5.02581e-07
1.6868e-07
7.57195e-08
6.36636e-07
3.08991e-07
9.00135e-08
8.10944e-09
0
0
0
0
0
4.7461e-07
7.69805e-07
5.16172e-07
6.64667e-07
1.13612e-06
1.58913e-06
1.7294e-06
1.47302e-06
1.42299e-06
0
0
0
0
0
0
0
0
4.11165e-07
2.0952e-06
1.15299e-06
3.9998e-07
4.96391e-07
1.25535e-06
1.81936e-06
1.81525e-06
1.94327e-06
2.55072e-06
1.52049e-06
0
0
0
0
9.10959e-08
2.7285e-07
0
2.21608e-06
1.18007e-06
8.1944e-07
7.87128e-07
6.82888e-07
1.37229e-06
1.62186e-06
1.60679e-06
2.19329e-06
2.22993e-06
1.1781e-06
7.03242e-08
0
0
0
0
4.47252e-07
2.77667e-08
1.13565e-06
3.35691e-07
2.06972e-07
9.65155e-07
9.10146e-07
2.91724e-07
0
7.66572e-09
4.8002e-07
6.7956e-07
5.64376e-07
2.81381e-07
0
0
0
0
0
0
0
0
0
6.45073e-07
6.9924e-07
2.20965e-07
0
0
0
1.32333e-07
3.41954e-07
2.38258e-07
2.76124e-09
0
0
0
0
0
0
0
0
0
3.03714e-07
3.37648e-07
0
0
0
0
0
0
0
0
0
0
0
0
0
0
0
0
0
0
1.99136e-07
0
0
0
0
0
0
0
0
0
0
0
0
0
0
0
0
0
0
0
0
0
0
0
0
0
0
1.50132e-07
0
0
0
0
0
0
0
0
0
0
0
0
0
0
0
0
0
0
0
1.88122e-08
0
0
0
0
0
0
0
1.14427e-07
3.60577e-07
3.60104e-07
0
0
0
0
0
0
5.55215e-07
5.88109e-07
7.63602e-07
7.15235e-07
2.97523e-07
0
0
0
0
5.52492e-07
6.80726e-07
5.04557e-07
1.8329e-07
0
0
0
0
0
4.13494e-07
5.898e-08
7.60025e-07
1.24419e-06
7.57247e-07
0
0
0
0
4.24607e-07
6.44751e-07
3.34573e-07
0
0
0
0
0
0
0
0
1.19788e-07
8.37561e-07
1.04189e-06
4.95674e-07
0
0
0
0
0
0
0
0
0
1.5079e-07
4.30711e-07
6.18707e-07
0
0
1.00022e-07
0
7.19187e-07
1.11181e-06
4.47713e-07
0
0
0
0
0
0
0
9.75388e-08
2.76063e-07
2.72974e-07
2.36619e-07
0
0
0
0
1.56338e-07
8.23345e-07
5.49089e-07
3.11767e-08
0
0
0
0
0
0
1.72458e-07
2.38995e-07
1.51161e-07
5.15146e-08
0
0
0
0
0
0
0
0
2.12368e-08
0
0
0
0
0
1.42811e-07
4.19335e-07
2.69435e-07
5.52158e-08
1.28848e-07
0
0
0
0
7.50902e-09
6.06716e-09
1.37993e-09
0
2.18381e-10
2.29288e-09
3.34368e-09
3.02082e-09
2.04486e-09
1.27736e-09
1.0722e-09
1.60638e-09
2.88556e-09
1.06771e-10
0
0
0
0
0
0
0
0
0
0
0
0
0
0
0
1.18291e-11
3.25594e-10
0
0
0
0
0
0
0
0
0
0
0
0
0
0
0
0
0
0
0
0
0
0
0
0
0
0
0
0
0
0
0
0
0
0
0
0
1.81006e-06
0
0
2.4459e-06
4.20462e-06
3.12825e-06
9.29721e-07
0
0
0
0
0
0
5.46179e-07
9.02488e-07
5.05186e-07
0
0
0
1.21403e-06
1.4861e-06
1.13029e-06
8.94095e-07
9.289e-07
2.39661e-06
6.7414e-06
1.34717e-05
2.23589e-05
2.92865e-05
3.29426e-05
2.69152e-05
1.36074e-05
3.65994e-06
0
0
0
5.75045e-07
1.5534e-06
1.96702e-06
1.99011e-06
1.77579e-06
1.45808e-06
1.18401e-06
9.53925e-07
7.47102e-07
5.66803e-07
4.03398e-07
2.54273e-07
1.1469e-07
0
0
0
0
0
0
0
0
0
0
0
0
0
0
0
0
0
0
0
0
0
0
0
0
0
0
0
0
0
2.18745e-07
3.11591e-06
5.46231e-06
6.46353e-06
8.05962e-06
1.06414e-05
0
0
0
9.26914e-07
1.97815e-06
1.04001e-06
7.98164e-07
7.4962e-07
5.91497e-07
4.55183e-07
2.96584e-07
1.73149e-07
6.02625e-08
0
0
0
0
0
0
0
0
0
0
0
0
0
0
0
0
0
0
0
0
0
0
0
0
0
0
0
0
0
0
0
0
0
0
0
0
0
0
0
0
0
0
0
0
0
0
0
0
0
0
0
0
0
0
0
0
0
0
6.55359e-08
5.71183e-09
0
0
0
0
0
0
5.16975e-08
2.41669e-07
5.02277e-07
5.22981e-07
3.37747e-07
2.04745e-07
1.96274e-07
2.16083e-07
2.66794e-07
1.84594e-07
0
0
0
0
1.05928e-08
0
0
1.09753e-05
5.39984e-06
2.76281e-06
3.94077e-06
5.59743e-06
5.3997e-06
3.13026e-06
2.87549e-07
0
0
0
0
1.16864e-07
1.26784e-06
1.90798e-06
1.74481e-06
1.15903e-06
7.26073e-07
1.45437e-06
2.45749e-06
2.17623e-06
2.39767e-06
4.67913e-06
6.84511e-06
1.07268e-05
1.91514e-05
2.52345e-05
2.2884e-05
1.50949e-05
7.0183e-06
1.72995e-06
0
0
0
0
0
0
0
0
0
0
9.9822e-09
4.64042e-08
3.93905e-08
1.35734e-08
0
0
0
0
0
0
0
0
0
0
0
0
0
0
0
1.95251e-08
1.38404e-07
1.53853e-08
0
0
0
0
0
0
0
0
1.00634e-06
2.16553e-06
6.70697e-07
0
0
0
0
6.85034e-07
6.40711e-06
9.62393e-06
9.79221e-06
8.12075e-06
0
0
0
0
1.12507e-06
2.81101e-06
1.27971e-06
9.66244e-07
9.36983e-07
7.8341e-07
6.25788e-07
4.40307e-07
2.69171e-07
9.4557e-08
0
0
0
0
0
0
0
0
0
0
0
0
0
0
0
0
0
0
0
0
0
0
0
0
0
0
0
0
0
0
0
2.0026e-08
4.40348e-08
5.60797e-08
5.41513e-08
3.90396e-08
1.30555e-08
0
0
0
0
0
0
0
0
0
0
0
0
0
0
0
0
0
0
0
0
0
1.68087e-07
4.97956e-08
0
0
0
0
0
2.44084e-08
7.36763e-08
2.184e-07
3.99376e-07
4.68266e-07
3.4022e-07
3.19715e-07
4.99902e-07
6.20572e-07
6.66315e-07
5.0203e-07
0
0
0
0
0
0
0
6.25174e-06
7.61149e-06
5.62052e-06
4.47325e-06
5.16118e-06
4.28975e-06
1.26038e-06
0
0
0
0
0
1.0047e-05
1.56862e-05
1.53302e-05
1.35869e-05
1.09337e-05
7.13392e-06
3.81542e-06
9.6371e-07
0
0
0
2.39644e-06
5.34301e-06
6.58707e-06
4.95651e-06
1.93447e-06
0
0
0
0
0
0
0
0
0
0
0
0
0
0
1.92048e-07
4.67513e-07
6.31364e-07
7.00902e-07
6.88231e-07
5.98117e-07
4.45286e-07
2.41265e-07
1.27022e-09
0
0
0
0
0
0
0
0
0
0
0
0
0
0
0
0
0
0
1.16541e-06
2.718e-06
4.13617e-06
5.30526e-06
6.539e-06
7.45246e-06
6.0872e-06
1.23054e-07
0
2.60093e-06
8.04646e-06
5.88925e-06
4.15703e-06
2.09448e-06
0
0
4.70293e-07
0
2.49024e-06
4.35018e-06
2.58173e-06
3.06463e-06
3.32673e-06
2.90802e-06
2.35183e-06
1.65298e-06
1.00273e-06
3.45405e-07
0
0
0
0
0
0
0
0
0
0
0
0
0
0
0
0
0
0
0
0
0
0
0
0
0
0
0
0
0
0
0
0
2.35904e-08
2.05265e-07
3.08343e-07
3.45837e-07
3.33553e-07
2.77821e-07
1.83358e-07
7.46469e-08
0
0
0
0
0
0
0
0
0
0
0
0
0
0
0
0
0
0
4.61697e-07
3.12628e-07
0
0
0
0
3.1468e-08
3.25949e-08
2.84514e-08
1.29077e-07
3.35454e-07
4.17337e-07
2.87606e-07
3.29568e-07
6.3683e-07
8.18035e-07
7.60807e-07
4.45695e-07
0
0
0
0
0
0
0
1.27949e-06
2.5392e-06
3.83681e-06
5.03065e-06
0
0
0
0
0
0
8.8639e-06
4.29969e-05
3.21837e-05
2.01499e-05
1.05162e-05
2.39711e-06
0
0
2.2499e-07
0
0
0
0
7.40787e-07
1.64412e-06
1.59069e-06
8.23147e-07
0
0
0
0
0
0
0
0
0
0
0
0
0
0
7.92283e-07
1.68337e-06
2.51408e-06
3.22092e-06
3.73036e-06
3.92745e-06
3.77975e-06
3.18794e-06
2.16081e-06
7.60837e-07
0
0
0
0
0
0
0
0
0
0
0
0
0
0
0
0
1.0054e-07
5.32841e-07
1.18085e-06
1.97606e-06
2.88825e-06
4.12893e-06
6.05968e-06
8.02161e-06
7.73107e-06
2.79637e-06
0
8.25114e-07
2.95807e-06
1.85751e-06
1.51102e-06
1.04119e-07
0
0
4.92395e-07
3.29691e-07
3.22673e-06
4.90346e-06
2.9474e-06
2.88754e-06
1.87311e-06
1.50959e-06
8.42839e-07
2.62158e-07
0
0
0
0
0
0
0
0
0
0
0
0
0
0
0
0
0
0
0
0
0
0
0
0
0
0
0
0
0
0
0
0
0
0
0
0
0
0
0
0
0
0
0
0
0
0
0
0
0
0
0
0
0
0
1.0332e-11
0
0
3.5386e-07
0
0
1.37475e-06
9.65773e-07
0
0
0
0
2.63636e-07
3.19294e-07
2.45752e-07
2.4407e-07
4.23794e-07
5.94943e-07
5.60451e-07
6.79795e-07
1.04834e-06
1.09172e-06
4.63843e-07
0
1.1484e-07
1.06797e-06
1.37145e-07
0
0
0
0
1.77115e-07
5.10162e-07
1.68159e-06
9.89573e-07
0
0
0
0
1.24655e-05
4.51821e-05
6.37887e-05
5.59853e-05
4.07316e-05
2.41865e-05
7.2127e-06
0
0
0
0
0
0
0
0
5.74817e-07
1.09332e-06
1.21763e-06
9.47791e-07
2.57936e-07
0
0
0
0
0
0
0
0
0
0
0
0
0
1.51678e-07
7.9384e-07
1.46236e-06
2.23102e-06
3.10348e-06
4.05303e-06
5.0359e-06
5.51955e-06
4.83356e-06
1.80564e-06
0
0
0
0
0
0
0
0
0
8.89273e-08
2.80097e-07
3.81691e-07
4.16696e-07
4.07355e-07
3.6814e-07
3.17506e-07
2.63755e-07
2.51792e-07
3.65105e-07
6.62698e-07
1.15853e-06
2.22316e-06
4.41258e-06
6.04213e-06
2.46972e-06
0
0
0
3.13829e-06
1.7213e-06
9.43462e-07
0
0
0
0
0
9.95043e-09
1.57733e-06
1.0439e-06
6.60762e-07
0
0
0
0
0
0
1.88864e-07
5.63491e-07
7.08096e-07
6.84518e-07
5.56511e-07
3.59838e-07
1.67569e-07
3.5511e-09
0
0
0
0
0
0
0
0
0
0
0
0
0
0
0
0
0
0
0
0
0
0
0
0
0
0
0
0
0
0
0
0
0
0
0
0
0
0
0
0
0
0
0
0
0
3.11499e-07
1.07801e-06
1.77228e-06
1.64544e-06
1.6523e-06
2.99751e-06
3.40091e-06
5.41505e-07
0
0
5.03742e-07
1.16915e-06
1.23554e-06
1.05734e-06
8.6827e-07
9.41563e-07
1.17303e-06
1.33431e-06
1.53125e-06
1.66752e-06
1.28025e-06
0
0
4.6746e-07
1.55293e-06
4.47683e-07
0
0
0
0
0
7.96531e-08
5.71448e-07
0
0
0
5.95605e-06
1.2671e-05
2.07531e-05
2.91623e-05
3.42274e-05
3.48051e-05
3.22222e-05
2.01075e-05
0
0
0
0
0
0
0
0
6.18864e-07
1.15503e-06
1.51667e-06
1.65345e-06
1.48192e-06
8.87604e-07
0
0
0
0
0
0
0
0
0
0
0
0
0
0
0
1.6184e-08
4.37204e-07
9.36176e-07
1.56821e-06
2.3916e-06
3.41075e-06
4.13313e-06
2.09804e-07
0
0
0
0
0
0
1.2884e-07
3.9947e-07
6.43236e-07
8.55391e-07
1.01245e-06
1.09139e-06
1.08211e-06
9.92158e-07
8.31304e-07
6.36167e-07
4.33049e-07
2.42967e-07
9.12527e-08
6.43098e-09
6.07858e-08
7.59255e-07
3.50287e-06
6.12319e-06
0
0
0
0
0
7.24064e-07
1.00499e-06
0
0
0
0
0
0
8.19841e-07
9.34797e-07
6.07512e-07
0
0
0
0
0
0
0
2.92501e-07
6.58867e-07
8.32142e-07
8.0656e-07
6.38865e-07
4.13807e-07
1.95957e-07
3.27563e-08
0
0
0
0
0
0
0
0
0
0
0
0
0
0
0
0
0
0
0
0
0
0
0
0
0
0
0
0
0
0
0
0
0
0
0
0
0
0
0
0
0
0
0
0
4.52874e-07
1.30718e-06
2.37237e-06
3.08492e-06
3.09068e-06
4.55707e-06
5.41818e-06
2.04538e-06
0
1.76403e-06
3.11459e-06
3.35382e-06
3.00638e-06
2.49374e-06
2.02094e-06
1.83865e-06
2.02918e-06
2.19792e-06
2.14757e-06
1.85852e-06
9.27368e-07
0
0
8.76482e-07
2.04893e-06
8.35971e-07
0
0
0
0
3.48873e-09
3.07285e-08
1.711e-07
8.73673e-07
1.88557e-06
4.04858e-06
6.85739e-06
9.75174e-06
1.25441e-05
1.56265e-05
1.89861e-05
2.25058e-05
2.68657e-05
1.66021e-05
0
0
0
0
0
1.46926e-07
4.67235e-07
6.55332e-07
7.93917e-07
9.49391e-07
1.0695e-06
1.05621e-06
8.04901e-07
1.79361e-07
0
0
0
0
0
0
0
0
0
0
0
0
0
0
1.53138e-07
4.97401e-07
9.26689e-07
1.4896e-06
2.25673e-06
3.19469e-06
3.47822e-06
0
0
0
0
0
0
0
0
0
0
0
0
0
4.27344e-07
9.80406e-07
1.23971e-06
1.20519e-06
1.01032e-06
7.85562e-07
6.01197e-07
5.26601e-07
4.44426e-07
0
0
1.91751e-06
3.78864e-06
0
0
0
0
0
0
2.00929e-06
2.58051e-07
0
0
0
0
0
1.33371e-07
4.50592e-07
0
0
0
0
0
0
0
0
6.8648e-08
5.50599e-07
8.43652e-07
8.70691e-07
7.13786e-07
4.76826e-07
2.4028e-07
5.82417e-08
0
0
0
0
0
0
0
0
0
0
0
0
0
0
0
0
0
0
0
0
0
0
0
0
0
0
0
0
0
0
0
0
0
0
0
0
0
0
0
0
0
0
0
0
5.21276e-07
1.42778e-06
2.81847e-06
4.99039e-06
5.14516e-06
5.06347e-06
5.36247e-06
2.10904e-06
3.63633e-06
6.07154e-06
6.71444e-06
6.18015e-06
5.22208e-06
4.20453e-06
3.25555e-06
2.78504e-06
2.83363e-06
2.83914e-06
2.42336e-06
1.64444e-06
2.71656e-07
0
0
1.4654e-06
2.44842e-06
1.11839e-06
0
0
0
0
2.04409e-08
0
0
1.00824e-06
1.37396e-06
2.12514e-06
3.61412e-06
4.91106e-06
5.90687e-06
7.23969e-06
9.14751e-06
1.22642e-05
1.73777e-05
1.45378e-06
1.06159e-06
2.63014e-06
3.05967e-06
2.75719e-06
2.00951e-06
1.23289e-06
5.8794e-07
8.87558e-08
0
0
0
0
0
0
0
0
0
0
0
0
0
0
0
4.38695e-07
9.01821e-07
1.31867e-06
1.69972e-06
2.09345e-06
2.5746e-06
3.2273e-06
4.19429e-06
5.61373e-06
7.61218e-06
9.32862e-06
2.17514e-06
0
0
0
0
0
0
0
0
0
0
0
0
0
0
0
0
1.4317e-07
7.09736e-07
7.68712e-07
6.93389e-07
6.78155e-07
1.02832e-06
6.16808e-07
0
0
0
0
0
0
0
0
0
4.73017e-07
5.08637e-06
3.28583e-06
4.90638e-06
7.10165e-06
4.61559e-06
0
0
0
0
0
0
0
0
0
0
0
0
1.13942e-07
3.71522e-07
4.55925e-07
4.11559e-07
2.97339e-07
1.62864e-07
4.50021e-08
0
0
0
0
0
0
0
0
0
0
0
0
0
0
0
0
0
0
0
0
0
0
0
0
0
0
0
0
0
0
0
0
0
0
0
0
0
0
0
0
0
0
0
0
6.81048e-07
1.85576e-06
3.78248e-06
6.70703e-06
7.88657e-06
5.39306e-06
3.14932e-06
1.77524e-06
5.77489e-06
7.83376e-06
8.94046e-06
8.88892e-06
7.62679e-06
5.92582e-06
4.35855e-06
3.59019e-06
3.43076e-06
3.20965e-06
2.44649e-06
1.25687e-06
0
0
0
2.43354e-06
2.87282e-06
1.28111e-06
1.96892e-08
0
0
0
1.28064e-08
0
0
4.88443e-07
6.85825e-07
8.79655e-07
1.63162e-06
2.09065e-06
2.10894e-06
2.41512e-06
3.05525e-06
3.15275e-06
1.64237e-06
4.24268e-06
4.56556e-06
4.28397e-06
3.73039e-06
2.7452e-06
1.60687e-06
5.59728e-07
0
0
0
0
0
0
0
0
0
0
0
0
0
5.13463e-07
1.2979e-06
1.88496e-06
2.21501e-06
2.2722e-06
2.14462e-06
1.97537e-06
1.90217e-06
2.06939e-06
2.547e-06
3.41244e-06
4.64356e-06
6.06892e-06
6.98961e-06
5.67141e-06
9.47926e-07
0
0
0
0
0
0
0
0
0
0
0
0
0
0
0
0
0
0
0
1.35405e-07
2.6336e-07
5.04826e-07
9.42659e-07
0
0
0
0
0
0
0
1.88357e-06
1.24507e-06
1.22305e-06
4.93897e-06
9.13357e-06
1.57157e-05
7.05e-06
4.16001e-06
0
0
0
0
0
0
0
0
0
0
0
0
0
0
0
0
0
0
0
0
0
0
0
0
0
0
0
0
0
0
0
0
0
0
0
0
0
0
0
0
0
0
0
0
0
0
0
0
0
0
0
0
0
0
0
0
0
0
0
0
0
0
1.66895e-07
9.8755e-07
2.71172e-06
4.92074e-06
7.51768e-06
1.00057e-05
8.25609e-06
1.29792e-06
7.51385e-07
8.55518e-06
1.18749e-05
1.25953e-05
1.26801e-05
1.10392e-05
8.1445e-06
5.7294e-06
4.41746e-06
3.88059e-06
3.35064e-06
2.29522e-06
7.98237e-07
0
0
0
4.10376e-06
3.57839e-06
1.47843e-06
4.55735e-08
0
0
0
0
0
0
0
0
0
2.59409e-07
4.97067e-07
2.56032e-07
4.52125e-08
0
0
1.37052e-06
1.86817e-06
1.96062e-06
1.812e-06
1.44829e-06
8.10546e-07
9.96416e-08
0
0
0
0
0
0
0
0
0
0
0
1.12567e-07
1.08568e-06
1.84322e-06
2.3874e-06
2.7009e-06
2.7655e-06
2.63022e-06
2.34598e-06
2.00612e-06
1.61659e-06
1.34953e-06
1.28809e-06
1.47472e-06
1.89648e-06
2.47878e-06
3.03216e-06
3.28332e-06
2.93917e-06
2.0858e-06
1.33466e-06
1.19786e-06
1.58396e-06
2.04914e-06
2.35989e-06
2.46637e-06
2.35955e-06
2.03937e-06
1.49147e-06
6.67483e-07
0
0
0
0
0
0
0
0
0
0
0
0
0
0
0
0
0
0
0
0
7.06804e-07
1.26128e-06
1.17266e-06
3.75739e-06
8.19172e-06
1.08309e-05
4.29897e-06
3.08967e-06
2.07049e-07
0
0
0
0
0
0
0
0
0
0
0
0
0
0
0
0
0
0
0
0
0
0
0
0
0
0
0
0
0
0
2.84066e-08
9.66056e-08
6.10103e-08
0
0
2.46517e-07
1.98597e-08
0
0
0
0
0
0
0
0
0
0
0
0
0
0
0
0
0
0
0
0
0
0
0
0
3.31767e-07
1.3644e-06
3.16978e-06
5.24413e-06
7.78799e-06
1.07601e-05
1.09005e-05
2.35435e-06
0
9.15123e-06
1.48091e-05
1.59545e-05
1.57332e-05
1.50797e-05
1.20554e-05
8.10387e-06
5.76114e-06
4.59264e-06
3.56355e-06
2.09671e-06
2.46391e-07
0
0
1.74921e-06
6.20576e-06
4.10112e-06
1.49069e-06
1.71115e-07
0
0
0
0
0
0
0
0
0
0
0
0
0
0
0
0
0
0
0
0
0
0
0
0
0
0
0
0
0
0
8.75739e-08
7.84428e-07
1.15018e-06
1.26912e-06
1.34225e-06
1.50257e-06
1.7874e-06
2.07301e-06
2.05629e-06
1.51376e-06
5.62013e-07
0
0
0
0
4.31243e-07
1.66222e-06
3.11414e-06
4.37918e-06
4.74015e-06
3.36486e-06
5.02427e-07
0
0
0
0
0
8.44302e-07
1.57242e-06
2.02276e-06
2.21584e-06
2.19152e-06
2.01902e-06
1.71554e-06
1.21759e-06
1.53721e-07
0
0
0
0
0
0
0
0
0
0
0
0
0
0
0
0
0
0
4.17886e-07
2.97671e-06
6.69012e-06
7.36315e-06
3.3151e-06
2.72003e-06
7.92789e-07
0
0
0
0
0
0
0
0
0
0
0
0
0
0
0
0
4.68102e-08
9.3395e-08
8.75433e-08
6.59715e-08
5.00664e-08
4.12481e-08
2.95797e-08
2.64514e-08
3.6265e-08
3.34671e-08
1.76365e-08
2.6973e-08
7.8565e-08
1.76099e-07
3.27848e-07
4.44233e-07
3.81502e-07
2.98013e-07
6.05945e-07
6.60059e-07
2.24796e-07
0
0
0
0
0
0
0
0
0
0
0
0
0
0
0
0
0
0
0
0
0
0
0
0
5.04986e-07
1.78796e-06
3.47836e-06
5.2045e-06
7.37183e-06
1.03968e-05
1.20913e-05
4.77621e-06
0
6.97073e-06
1.50971e-05
1.70119e-05
1.69717e-05
1.72078e-05
1.57417e-05
1.10557e-05
7.52229e-06
5.49524e-06
3.73085e-06
1.71243e-06
0
0
0
8.71119e-06
9.37418e-06
4.02751e-06
9.01256e-07
4.87969e-07
2.31003e-07
0
0
0
0
0
0
0
0
0
0
0
0
0
0
0
0
0
0
0
0
0
0
0
0
0
0
0
6.34409e-07
1.03118e-06
1.12253e-06
1.02013e-06
8.37594e-07
7.16026e-07
7.15834e-07
8.44319e-07
9.82348e-07
7.86713e-07
6.61394e-08
0
0
0
0
0
6.81218e-07
2.70291e-06
5.36628e-06
8.51396e-06
1.15206e-05
1.19146e-05
4.20985e-06
0
0
0
0
0
0
0
0
8.29632e-07
1.30543e-06
1.35613e-06
1.08257e-06
5.34606e-07
0
0
0
0
0
0
0
0
0
0
0
0
0
0
0
0
0
0
0
3.20908e-08
1.4981e-06
3.36603e-06
5.48325e-06
5.48853e-06
2.98473e-06
2.64066e-06
1.70646e-06
4.55048e-08
6.46385e-08
8.58661e-07
2.82973e-07
0
0
0
0
0
0
0
0
0
0
0
5.84795e-08
1.6036e-07
1.70503e-07
1.54406e-07
1.37347e-07
1.32383e-07
1.3832e-07
1.46596e-07
1.63142e-07
1.94615e-07
2.14733e-07
2.11068e-07
2.33344e-07
3.36659e-07
5.22455e-07
7.12284e-07
7.84085e-07
8.47745e-07
1.0874e-06
1.06735e-06
8.54931e-07
3.71219e-07
0
0
0
0
0
0
0
0
0
0
0
0
0
0
0
0
0
0
0
0
0
0
0
0
7.53953e-07
2.22753e-06
3.93531e-06
5.33848e-06
7.03661e-06
9.73648e-06
1.24119e-05
8.83353e-06
0
1.68705e-06
1.36106e-05
1.72122e-05
1.76754e-05
1.79848e-05
1.82222e-05
1.38967e-05
9.21672e-06
6.25723e-06
3.68889e-06
1.08259e-06
0
0
3.25162e-06
1.92114e-05
1.4123e-05
8.41339e-07
0
1.19839e-06
1.34481e-06
1.81929e-07
0
0
0
0
0
0
0
0
0
0
0
0
0
0
0
0
0
0
0
0
0
0
0
0
3.55786e-07
7.49755e-07
9.17906e-07
8.9644e-07
7.80969e-07
6.36215e-07
5.01439e-07
4.18559e-07
3.86098e-07
3.20507e-07
3.89167e-08
0
0
0
0
0
0
1.6226e-06
4.04489e-06
7.27684e-06
1.1503e-05
1.69704e-05
2.33482e-05
2.33297e-05
0
0
0
0
0
0
0
0
0
2.21875e-07
1.23399e-06
1.57383e-06
1.42362e-06
9.38325e-07
0
0
0
0
0
0
0
0
0
0
0
0
1.06059e-08
0
0
0
0
0
0
8.69633e-07
2.78987e-06
3.90846e-06
4.54759e-06
4.04944e-06
1.94084e-06
2.04274e-06
2.56269e-06
1.04594e-06
1.35986e-07
6.76171e-07
5.27518e-07
0
0
0
0
0
0
0
0
0
0
3.43953e-08
2.17272e-07
2.6091e-07
2.4841e-07
2.29838e-07
2.17494e-07
2.20037e-07
2.31549e-07
2.42679e-07
2.64009e-07
3.02585e-07
3.25708e-07
3.21131e-07
3.56156e-07
4.97569e-07
6.88007e-07
8.68935e-07
1.1615e-06
1.43524e-06
1.18925e-06
1.13147e-06
9.559e-07
4.86085e-07
0
0
0
0
0
0
0
0
0
0
0
0
0
0
0
0
0
0
0
0
0
0
0
4.86034e-08
1.0231e-06
2.62462e-06
4.45805e-06
5.9216e-06
7.06772e-06
9.1961e-06
1.18099e-05
1.15385e-05
0
0
1.07168e-05
1.68897e-05
1.78605e-05
1.74738e-05
1.82016e-05
1.61394e-05
1.08796e-05
6.96748e-06
3.53848e-06
2.68141e-07
0
0
1.57074e-05
2.38326e-05
4.6297e-06
0
0
2.30184e-06
2.24464e-06
1.11766e-06
0
0
0
0
0
0
0
0
0
0
0
0
0
0
0
0
0
0
0
0
0
0
0
2.2995e-07
4.86095e-07
6.14729e-07
6.51149e-07
6.18614e-07
5.44855e-07
4.49797e-07
3.54667e-07
2.65299e-07
1.3979e-07
0
0
0
0
0
0
4.57435e-08
1.15134e-06
2.64143e-06
4.37603e-06
6.14303e-06
7.46857e-06
7.27299e-06
3.63276e-06
0
0
0
0
0
0
0
0
0
0
0
0
5.86991e-07
8.425e-07
8.91724e-07
6.78102e-07
0
0
0
0
0
0
0
0
0
0
0
0
2.64148e-08
0
0
0
0
0
9.47836e-07
2.71371e-06
3.6951e-06
3.87806e-06
2.82551e-06
1.49101e-07
4.00636e-07
2.46297e-06
1.85088e-06
6.68887e-07
6.71414e-07
5.25913e-07
1.7973e-07
0
0
0
0
0
0
0
0
0
4.6833e-08
1.78748e-07
2.17871e-07
2.29407e-07
2.31818e-07
2.28229e-07
2.18267e-07
1.99307e-07
1.76561e-07
1.76378e-07
1.99023e-07
2.02696e-07
1.97696e-07
2.62053e-07
4.26261e-07
6.52796e-07
9.39098e-07
1.1505e-06
1.03783e-06
1.01007e-06
1.14803e-06
9.78332e-07
5.53308e-07
5.63317e-08
0
0
0
0
0
0
0
0
0
0
0
0
0
0
0
0
0
0
0
0
0
0
1.85665e-07
1.28996e-06
2.83287e-06
4.78509e-06
6.45066e-06
7.29241e-06
8.49792e-06
1.05409e-05
1.12939e-05
3.084e-06
0
6.40894e-06
1.47852e-05
1.63373e-05
1.59618e-05
1.49933e-05
1.70992e-05
1.2557e-05
7.79642e-06
3.4069e-06
0
0
0
1.73212e-06
7.72652e-07
0
0
1.14738e-06
3.26823e-06
2.82355e-06
1.63492e-06
4.57137e-07
0
0
0
0
0
0
0
0
0
0
0
0
0
0
0
0
0
0
0
0
0
1.19676e-07
2.87612e-07
3.55694e-07
4.17595e-07
4.71769e-07
4.96042e-07
4.82427e-07
4.32462e-07
3.56502e-07
2.42617e-07
6.57275e-08
0
0
0
0
0
0
3.49524e-07
8.58718e-07
1.3374e-06
1.60133e-06
1.39096e-06
3.53653e-07
0
0
0
0
0
0
0
0
0
0
0
0
0
0
2.42892e-08
2.26539e-07
1.49855e-07
3.86546e-07
4.39237e-07
0
0
0
0
0
0
0
0
0
0
0
0
1.12722e-07
8.32345e-08
0
0
0
7.16576e-07
2.14298e-06
3.06851e-06
3.2152e-06
1.6877e-06
0
0
4.83306e-07
1.05665e-06
6.14834e-07
7.36242e-07
7.70301e-07
6.14336e-07
3.92341e-07
1.50471e-07
0
0
0
0
0
0
0
0
1.1755e-07
1.923e-07
2.24581e-07
2.30415e-07
2.28525e-07
2.36115e-07
2.55652e-07
2.8472e-07
3.29671e-07
3.68092e-07
3.65428e-07
3.5226e-07
3.9232e-07
4.79692e-07
5.84026e-07
6.90893e-07
7.28181e-07
7.66075e-07
9.78212e-07
1.09939e-06
9.37978e-07
6.00269e-07
2.17566e-07
0
0
0
0
0
0
0
0
0
0
0
0
0
0
0
0
0
0
0
0
0
0
2.82247e-07
1.55405e-06
2.99629e-06
4.83491e-06
6.61709e-06
7.44516e-06
7.79953e-06
8.69905e-06
9.55543e-06
5.17164e-06
0
2.74384e-06
1.01226e-05
1.17899e-05
1.05382e-05
7.72602e-06
1.58924e-05
1.38113e-05
8.95052e-06
3.49206e-06
0
0
0
0
0
0
1.76813e-06
3.18435e-06
3.696e-06
3.21832e-06
2.00019e-06
1.04698e-06
0
0
0
0
0
0
0
0
0
0
0
0
0
0
0
0
0
0
0
0
0
6.82383e-08
9.94949e-08
1.24896e-07
2.39477e-07
3.81399e-07
4.90142e-07
5.44991e-07
5.41439e-07
4.88797e-07
3.71133e-07
1.99384e-07
3.34821e-08
0
0
0
0
0
0
0
0
0
0
0
0
0
0
0
0
0
0
0
0
0
0
0
0
0
2.60311e-07
4.45213e-07
1.24248e-07
1.89082e-07
6.54884e-07
4.98425e-07
0
0
0
0
0
6.49693e-07
4.45616e-07
0
0
0
0
0
6.52517e-08
7.24022e-08
5.1243e-08
4.209e-08
1.60709e-07
8.04869e-07
1.74082e-06
2.02196e-06
6.93698e-07
0
0
0
0
0
0
0
0
0
0
0
0
0
0
0
0
1.94422e-07
3.52041e-07
4.20026e-07
4.44611e-07
4.58623e-07
4.83488e-07
5.24971e-07
5.80121e-07
6.29472e-07
6.57172e-07
6.71156e-07
6.55363e-07
5.99025e-07
5.42168e-07
5.28703e-07
5.28157e-07
5.18291e-07
5.29881e-07
5.8809e-07
7.58315e-07
1.01521e-06
1.092e-06
9.65873e-07
7.6078e-07
5.93328e-07
1.94679e-07
0
0
0
0
0
0
0
0
0
0
0
0
0
0
0
0
0
0
0
0
0
3.75838e-07
1.92317e-06
3.24914e-06
4.90979e-06
6.69131e-06
7.61293e-06
7.57731e-06
7.30705e-06
8.03949e-06
5.84453e-06
8.88745e-07
1.48549e-06
3.62286e-06
4.27323e-06
8.03779e-07
0
8.13342e-06
1.47129e-05
1.06306e-05
4.03603e-06
0
0
0
0
4.24497e-07
1.76805e-06
3.06433e-06
3.75342e-06
3.36137e-06
3.30292e-06
2.32893e-06
1.43537e-06
0
0
0
0
1.53336e-07
0
0
0
0
0
0
0
2.46736e-09
2.98415e-07
3.87027e-07
4.9939e-07
6.27121e-07
5.56221e-07
3.47825e-07
1.30969e-07
0
0
0
0
0
2.83128e-07
5.31e-07
6.67469e-07
6.77519e-07
6.04979e-07
5.06631e-07
3.96224e-07
3.03568e-07
2.58139e-07
2.4179e-07
1.85537e-07
2.73328e-08
0
0
0
0
0
0
0
0
0
0
0
0
0
0
0
0
0
0
0
0
0
5.63078e-07
6.8078e-07
1.74816e-07
4.2879e-08
5.98163e-07
9.20341e-07
1.95024e-07
0
0
0
0
3.68492e-07
6.45734e-07
1.66428e-07
0
0
0
0
0
9.49334e-08
9.54709e-08
6.79853e-08
8.08007e-08
1.87922e-07
4.17328e-07
5.98849e-07
0
0
0
0
0
0
0
0
0
0
0
0
0
0
6.23468e-08
4.07365e-07
6.07098e-07
7.11342e-07
7.59706e-07
7.86891e-07
8.24232e-07
8.90187e-07
9.74754e-07
1.06809e-06
1.14326e-06
1.1802e-06
1.16454e-06
1.10804e-06
1.01325e-06
8.87604e-07
7.74495e-07
6.91274e-07
5.98918e-07
5.05628e-07
4.92372e-07
6.06093e-07
8.39639e-07
1.08026e-06
1.2297e-06
1.42093e-06
2.14947e-06
3.44066e-06
2.43413e-06
0
0
0
0
0
0
0
0
0
0
0
0
0
0
0
0
0
0
0
0
0
3.24208e-07
2.39076e-06
3.8957e-06
5.14165e-06
6.69134e-06
7.88586e-06
7.83375e-06
6.87079e-06
7.27801e-06
6.42281e-06
1.72162e-06
1.18601e-06
0
0
0
0
7.92181e-08
1.53655e-05
1.23243e-05
4.92218e-06
0
0
4.443e-07
1.24361e-06
1.71475e-06
2.24111e-06
2.83868e-06
3.19094e-06
2.38236e-06
2.59915e-06
2.5788e-06
1.71317e-06
0
0
0
0
6.3993e-07
0
0
0
0
0
0
1.21889e-07
7.42022e-07
1.03866e-06
9.60752e-07
9.75073e-07
1.04606e-06
1.01964e-06
7.77651e-07
4.48653e-07
3.95168e-08
0
0
0
0
0
4.57751e-07
7.708e-07
8.60407e-07
7.87956e-07
6.80736e-07
6.07837e-07
5.81542e-07
5.9242e-07
5.98788e-07
5.39853e-07
3.62033e-07
2.8257e-08
0
0
0
0
0
0
0
0
0
0
0
0
0
0
0
0
0
1.31077e-07
3.16721e-07
3.20463e-07
6.68968e-07
7.64415e-07
1.49678e-07
0
3.39177e-07
9.46303e-07
5.8956e-07
0
0
0
0
4.35861e-07
6.82261e-07
3.87278e-07
0
0
0
0
0
6.33155e-08
8.47793e-08
8.30425e-08
6.38749e-08
6.54061e-08
7.45938e-08
3.81423e-08
0
0
0
0
0
0
0
0
0
0
0
0
0
7.39179e-07
1.32655e-06
1.3942e-06
1.38676e-06
1.38299e-06
1.41409e-06
1.504e-06
1.65491e-06
1.8647e-06
2.10575e-06
2.34479e-06
2.53399e-06
2.60967e-06
2.53241e-06
2.30056e-06
1.96124e-06
1.59671e-06
1.28539e-06
1.02009e-06
7.64595e-07
5.79836e-07
5.65675e-07
7.54105e-07
1.11195e-06
1.73566e-06
3.35378e-06
6.7462e-06
6.66615e-06
3.10243e-06
8.68828e-07
0
0
0
0
0
0
0
0
0
0
0
0
0
0
0
0
0
0
0
0
0
0
2.70315e-06
4.78384e-06
5.93214e-06
7.09663e-06
8.07474e-06
8.30352e-06
7.48619e-06
7.48553e-06
7.39142e-06
1.61292e-06
2.71722e-07
0
0
0
0
0
1.5797e-05
1.32796e-05
6.10659e-06
2.14079e-06
2.32925e-06
2.56287e-06
2.31612e-06
1.88971e-06
1.59622e-06
1.70713e-06
1.95962e-06
1.18358e-06
5.64437e-07
2.46335e-06
1.84532e-06
0
0
0
0
8.23025e-07
0
0
0
0
0
0
0
9.09428e-07
1.50108e-06
1.35611e-06
1.16447e-06
1.15082e-06
1.16567e-06
1.04483e-06
7.84691e-07
3.7558e-07
0
0
0
0
0
4.167e-08
5.62089e-07
8.68076e-07
9.30288e-07
8.5294e-07
7.59006e-07
7.20808e-07
7.40666e-07
7.76736e-07
7.70163e-07
6.66943e-07
4.2674e-07
2.27236e-08
0
0
0
0
0
0
0
0
0
0
0
0
0
0
0
1.72842e-07
6.3926e-07
6.89715e-07
5.0413e-07
6.98488e-07
8.48402e-07
2.95463e-07
0
1.68641e-07
8.88076e-07
7.77033e-07
0
0
0
5.04971e-07
7.65962e-07
6.11125e-07
3.18496e-07
3.35941e-08
0
0
0
0
2.89255e-08
4.26134e-08
4.10889e-08
2.17175e-08
5.89269e-10
0
0
0
0
0
0
0
0
0
0
0
0
0
0
1.39953e-06
2.47915e-06
2.54344e-06
2.40056e-06
2.29285e-06
2.26167e-06
2.30672e-06
2.42786e-06
2.60982e-06
2.84483e-06
3.14729e-06
3.54777e-06
4.00958e-06
4.5141e-06
4.95165e-06
5.01613e-06
4.5246e-06
3.70453e-06
2.87974e-06
2.10589e-06
1.43683e-06
1.07582e-06
1.18375e-06
1.90344e-06
3.8225e-06
7.09975e-06
6.67571e-06
4.61098e-06
2.41073e-06
1.01007e-06
1.92164e-07
0
0
0
0
0
0
0
0
0
0
0
0
0
0
0
0
0
0
0
0
0
0
1.48103e-06
5.63708e-06
7.03795e-06
7.8492e-06
8.70947e-06
8.73359e-06
8.33257e-06
8.16797e-06
8.60072e-06
1.96538e-06
0
0
0
0
0
0
1.55815e-05
1.34034e-05
7.93358e-06
5.45127e-06
4.60374e-06
3.56477e-06
2.34849e-06
1.14857e-06
3.18555e-07
1.53325e-07
4.15228e-07
1.01569e-07
0
1.32784e-06
1.62741e-06
0
0
0
0
4.70157e-08
1.23157e-06
0
0
0
0
0
0
7.72794e-07
1.45356e-06
1.62811e-06
1.16592e-06
9.63234e-07
9.67802e-07
9.54197e-07
8.29968e-07
5.82774e-07
1.50544e-07
0
0
0
0
0
5.19173e-08
5.07292e-07
7.74335e-07
8.36588e-07
7.77798e-07
7.02882e-07
6.68259e-07
6.82422e-07
7.09079e-07
6.92923e-07
5.88092e-07
3.66069e-07
2.66288e-08
0
0
0
0
0
0
0
0
0
0
0
0
0
6.8204e-08
4.08686e-07
7.56124e-07
7.92973e-07
6.06838e-07
7.68813e-07
9.36104e-07
4.65305e-07
0
2.82688e-07
9.69478e-07
9.44261e-07
2.80688e-07
0
1.8314e-06
1.798e-06
7.99005e-07
3.05509e-07
1.55844e-08
0
0
0
0
0
0
0
0
0
0
0
0
0
0
0
0
0
0
0
0
0
0
0
0
5.99617e-07
1.06178e-06
1.35931e-06
1.54744e-06
1.67428e-06
1.77117e-06
1.84703e-06
1.90719e-06
1.95419e-06
1.99994e-06
2.07729e-06
2.21432e-06
2.43625e-06
2.78006e-06
3.37108e-06
4.32656e-06
5.56656e-06
7.0892e-06
8.21774e-06
7.73637e-06
6.08315e-06
5.09694e-06
4.98763e-06
4.46003e-06
3.75476e-06
3.28685e-06
2.76119e-06
1.73914e-06
9.13533e-07
3.69462e-07
1.41113e-07
8.96583e-08
2.92447e-08
0
0
0
0
0
0
0
0
0
0
0
0
0
0
0
0
0
0
0
0
0
4.39132e-06
7.90003e-06
8.80085e-06
9.42446e-06
9.44869e-06
8.8628e-06
8.59549e-06
9.44914e-06
3.45813e-06
0
0
0
0
0
0
1.48226e-05
1.32546e-05
1.056e-05
8.29101e-06
5.84236e-06
3.55161e-06
1.50675e-06
0
0
0
0
0
0
0
7.47891e-07
0
0
0
0
0
7.43463e-07
0
0
0
0
0
1.03599e-07
7.08052e-07
1.12467e-06
1.3073e-06
1.05907e-06
6.9474e-07
6.32972e-07
6.79235e-07
6.58416e-07
5.52148e-07
3.03553e-07
0
0
0
0
0
0
3.12171e-09
3.28458e-07
5.31482e-07
5.84798e-07
5.38571e-07
4.6491e-07
4.15162e-07
4.04899e-07
4.10252e-07
3.97612e-07
3.39446e-07
2.31919e-07
8.57235e-08
0
0
0
0
0
0
0
0
0
0
0
0
0
1.64003e-07
6.74531e-07
8.22743e-07
7.23391e-07
9.25369e-07
1.09574e-06
6.60675e-07
1.31087e-07
5.85749e-07
1.21176e-06
1.13833e-06
9.1545e-07
3.36146e-06
8.11377e-06
3.31452e-06
8.9439e-07
3.1493e-07
5.63462e-08
0
0
0
0
0
0
0
0
0
0
0
0
0
0
0
0
0
0
0
0
0
0
0
0
1.87712e-07
3.77827e-07
5.25866e-07
6.43511e-07
7.42867e-07
8.22369e-07
8.73175e-07
9.02007e-07
9.07728e-07
9.0305e-07
9.11616e-07
9.542e-07
1.0325e-06
1.13789e-06
1.31031e-06
1.64177e-06
2.09018e-06
2.95018e-06
4.70525e-06
7.35348e-06
7.6392e-06
4.55461e-06
2.67944e-06
1.99613e-06
1.80353e-06
1.63204e-06
1.14859e-06
7.26271e-07
4.02893e-07
2.646e-07
2.14889e-07
1.66414e-07
8.32329e-08
0
0
0
0
0
0
0
0
0
0
0
0
0
0
0
0
2.58736e-06
9.07811e-06
1.13337e-05
8.47189e-06
8.02821e-07
0
5.87765e-06
9.4001e-06
1.03005e-05
1.01519e-05
9.52021e-06
8.50657e-06
9.43673e-06
5.25292e-06
0
0
0
0
0
0
1.39895e-05
1.34744e-05
1.34922e-05
1.01759e-05
6.04197e-06
2.59276e-06
1.37396e-07
0
0
0
0
0
9.90136e-07
0
0
0
0
0
0
0
0
7.06988e-07
0
0
0
0
7.18913e-09
4.62327e-07
6.57685e-07
6.17909e-07
4.11417e-07
1.54017e-07
7.71216e-08
1.55361e-07
2.36648e-07
2.56024e-07
1.83596e-07
0
0
0
0
0
0
0
0
7.06684e-08
1.98666e-07
2.32639e-07
1.88839e-07
1.14588e-07
5.31294e-08
2.2888e-08
2.35587e-08
5.19152e-08
1.11722e-07
2.14021e-07
3.69485e-07
5.92065e-07
8.88626e-07
1.27342e-06
1.75919e-06
2.35449e-06
3.10023e-06
3.89091e-06
4.12274e-06
0
0
0
0
4.38803e-08
7.64671e-07
9.51029e-07
9.03425e-07
1.15332e-06
1.28482e-06
7.98297e-07
3.40668e-07
9.71681e-07
1.49961e-06
1.32425e-06
1.38373e-06
7.08081e-06
1.23072e-05
3.8578e-06
9.41823e-07
4.21465e-07
1.90914e-07
7.07168e-08
1.01993e-08
0
0
0
0
0
0
0
0
0
0
0
0
0
0
0
0
0
0
0
0
0
0
4.84409e-08
1.46517e-07
2.31735e-07
3.06102e-07
3.70603e-07
4.21133e-07
4.53893e-07
4.70388e-07
4.73962e-07
4.71851e-07
4.73172e-07
4.84464e-07
5.0573e-07
5.30109e-07
5.63772e-07
6.32072e-07
7.30182e-07
9.11064e-07
1.29785e-06
2.24906e-06
3.96172e-06
4.5708e-06
2.90714e-06
1.81854e-06
1.30424e-06
8.60132e-07
5.79236e-07
3.89673e-07
3.08581e-07
2.69708e-07
2.35665e-07
1.92534e-07
1.00215e-07
0
0
0
0
0
0
0
0
0
0
0
0
0
0
0
2.32569e-06
1.5162e-05
2.82851e-05
3.70901e-05
3.91699e-05
3.61027e-05
1.21953e-05
0
6.97338e-06
1.11635e-05
1.10645e-05
1.01888e-05
8.79917e-06
8.9649e-06
6.43167e-06
7.49492e-07
0
0
0
0
0
1.34641e-05
1.43197e-05
1.59462e-05
1.09492e-05
5.17141e-06
8.48538e-07
0
0
0
0
0
7.47066e-07
2.57657e-06
8.19385e-07
0
0
0
0
7.24129e-07
6.92963e-07
4.56954e-07
1.01165e-06
2.45959e-06
0
0
0
0
0
2.04014e-07
1.10868e-07
0
0
0
0
0
0
0
0
0
0
0
0
0
0
0
0
0
0
0
0
0
0
0
0
0
8.49687e-08
4.28496e-07
8.77798e-07
1.40809e-06
2.01796e-06
2.70733e-06
3.54661e-06
4.6314e-06