/*--------------------------------*- C++ -*----------------------------------*\
  =========                 |
  \\      /  F ield         | OpenFOAM: The Open Source CFD Toolbox
   \\    /   O peration     | Website:  https://openfoam.org
    \\  /    A nd           | Version:  9
     \\/     M anipulation  |
\*---------------------------------------------------------------------------*/
FoamFile
{
    format      ascii;
    class       surfaceScalarField;
    location    "0.062";
    object      phi_0;
}
// * * * * * * * * * * * * * * * * * * * * * * * * * * * * * * * * * * * * * //

dimensions      [0 3 -1 0 0 0 0];

internalField   nonuniform List<scalar> 
24170
(
3.16097e-06
1.67309e-08
3.01401e-06
1.46969e-07
2.8896e-06
1.24407e-07
2.79724e-06
9.23605e-08
2.70268e-06
9.45538e-08
2.60012e-06
1.02567e-07
2.4956e-06
1.04515e-07
2.39236e-06
1.03245e-07
2.29375e-06
9.86042e-08
2.20306e-06
9.06935e-08
2.12119e-06
8.18709e-08
2.04264e-06
7.85531e-08
1.96199e-06
8.06441e-08
1.87287e-06
8.91265e-08
1.77124e-06
1.01628e-07
1.65505e-06
1.1619e-07
1.51576e-06
1.39287e-07
1.7581e-07
1.33995e-06
3.52226e-06
-4.67406e-08
3.53643e-06
1.32795e-07
3.5243e-06
1.36535e-07
3.50699e-06
1.09669e-07
3.49984e-06
1.01705e-07
3.49658e-06
1.0583e-07
3.48059e-06
1.20505e-07
3.44516e-06
1.38673e-07
3.39796e-06
1.45803e-07
3.35117e-06
1.37486e-07
3.3126e-06
1.20436e-07
3.28223e-06
1.08928e-07
3.25441e-06
1.08464e-07
3.22264e-06
1.20893e-07
3.1817e-06
1.42571e-07
3.12783e-06
1.70062e-07
3.05832e-06
2.08798e-07
2.52471e-07
2.98166e-06
3.74202e-06
-2.72151e-08
3.70114e-06
1.73676e-07
3.68578e-06
1.51896e-07
3.67987e-06
1.15583e-07
3.68749e-06
9.40803e-08
3.70115e-06
9.21702e-08
3.70966e-06
1.11992e-07
3.71059e-06
1.37742e-07
3.70883e-06
1.47565e-07
3.70903e-06
1.37291e-07
3.71065e-06
1.18814e-07
3.71077e-06
1.08812e-07
3.70505e-06
1.14176e-07
3.69082e-06
1.35124e-07
3.6674e-06
1.65997e-07
3.63585e-06
2.01604e-07
3.60304e-06
2.41614e-07
2.80213e-07
3.5753e-06
3.9603e-06
1.09086e-07
3.94519e-06
1.88792e-07
3.93237e-06
1.64712e-07
3.9273e-06
1.20651e-07
3.91999e-06
1.01396e-07
3.90696e-06
1.05194e-07
3.89543e-06
1.23524e-07
3.89076e-06
1.42415e-07
3.89075e-06
1.47572e-07
3.8899e-06
1.3814e-07
3.88448e-06
1.2423e-07
3.87561e-06
1.17685e-07
3.86565e-06
1.2414e-07
3.85663e-06
1.44141e-07
3.84908e-06
1.73547e-07
3.8423e-06
2.08379e-07
3.83917e-06
2.4475e-07
2.79321e-07
3.84006e-06
4.29188e-06
1.53565e-07
4.20578e-06
2.7489e-07
4.19885e-06
1.71641e-07
4.22716e-06
9.2348e-08
4.23643e-06
9.2121e-08
4.21849e-06
1.23136e-07
4.19835e-06
1.43664e-07
4.19591e-06
1.44852e-07
4.21206e-06
1.3142e-07
4.23651e-06
1.13695e-07
4.25769e-06
1.03049e-07
4.26844e-06
1.06936e-07
4.26677e-06
1.25811e-07
4.25472e-06
1.56188e-07
4.23617e-06
1.92099e-07
4.21544e-06
2.29112e-07
4.19694e-06
2.6325e-07
2.91352e-07
4.18491e-06
4.51495e-06
2.55101e-07
4.54423e-06
2.45616e-07
4.56537e-06
1.50496e-07
4.56147e-06
9.62507e-08
4.55623e-06
9.73593e-08
4.55619e-06
1.23173e-07
4.55884e-06
1.41012e-07
4.56448e-06
1.39218e-07
4.57405e-06
1.21845e-07
4.58557e-06
1.02182e-07
4.59452e-06
9.40972e-08
4.59656e-06
1.04896e-07
4.58943e-06
1.32935e-07
4.57312e-06
1.72496e-07
4.54967e-06
2.1555e-07
4.52249e-06
2.56291e-07
4.4955e-06
2.90246e-07
3.13495e-07
4.47336e-06
4.8364e-06
1.07694e-07
4.90902e-06
1.72996e-07
4.92496e-06
1.34553e-07
4.90837e-06
1.12842e-07
4.88901e-06
1.16718e-07
4.8725e-06
1.39685e-07
4.85458e-06
1.58938e-07
4.8354e-06
1.58391e-07
4.81785e-06
1.39398e-07
4.80412e-06
1.15909e-07
4.79494e-06
1.03284e-07
4.78976e-06
1.10068e-07
4.78687e-06
1.35825e-07
4.78474e-06
1.7463e-07
4.78239e-06
2.17903e-07
4.7802e-06
2.58474e-07
4.77916e-06
2.91294e-07
3.12369e-07
4.78028e-06
5.07277e-06
8.49144e-08
5.07818e-06
1.67579e-07
5.10498e-06
1.07757e-07
5.13861e-06
7.92133e-08
5.16873e-06
8.66029e-08
5.19663e-06
1.11776e-07
5.21828e-06
1.37294e-07
5.22706e-06
1.49613e-07
5.22068e-06
1.45772e-07
5.20304e-06
1.33553e-07
5.18143e-06
1.24895e-07
5.1625e-06
1.28993e-07
5.14938e-06
1.4895e-07
5.14232e-06
1.81683e-07
5.13972e-06
2.20511e-07
5.13996e-06
2.5823e-07
5.14191e-06
2.89343e-07
3.09985e-07
5.1443e-06
5.46181e-06
2.105e-07
5.48974e-06
1.39642e-07
5.53957e-06
5.79306e-08
5.57818e-06
4.06066e-08
5.58727e-06
7.7511e-08
5.58143e-06
1.17616e-07
5.57917e-06
1.39552e-07
5.58376e-06
1.45025e-07
5.58624e-06
1.43288e-07
5.57817e-06
1.41624e-07
5.55958e-06
1.43487e-07
5.53773e-06
1.50841e-07
5.52075e-06
1.65936e-07
5.51343e-06
1.88994e-07
5.51583e-06
2.18117e-07
5.52578e-06
2.48278e-07
5.53988e-06
2.75239e-07
2.94555e-07
5.55531e-06
6.00839e-06
2.14603e-07
6.07131e-06
7.67142e-08
6.09286e-06
3.63876e-08
6.05256e-06
8.09002e-08
5.9978e-06
1.32278e-07
5.95995e-06
1.55463e-07
5.94398e-06
1.55526e-07
5.93943e-06
1.4957e-07
5.93521e-06
1.4751e-07
5.9264e-06
1.50437e-07
5.91463e-06
1.55256e-07
5.90444e-06
1.61031e-07
5.9003e-06
1.70069e-07
5.90491e-06
1.84391e-07
5.91781e-06
2.05218e-07
5.93679e-06
2.29294e-07
5.95716e-06
2.54865e-07
2.78203e-07
5.97352e-06
6.36289e-06
3.98324e-08
6.39257e-06
4.7034e-08
6.40467e-06
2.4287e-08
6.40712e-06
7.8445e-08
6.38871e-06
1.50692e-07
6.35857e-06
1.85607e-07
6.32999e-06
1.84101e-07
6.31261e-06
1.66954e-07
6.3089e-06
1.51216e-07
6.31689e-06
1.4245e-07
6.3328e-06
1.39342e-07
6.35292e-06
1.4091e-07
6.37403e-06
1.48966e-07
6.39366e-06
1.64754e-07
6.41022e-06
1.88657e-07
6.42223e-06
2.17285e-07
6.42861e-06
2.48485e-07
2.77863e-07
6.42895e-06
5.82663e-06
-2.72584e-08
5.866e-06
7.66223e-09
5.84463e-06
4.56598e-08
5.81636e-06
1.06713e-07
5.80974e-06
1.57308e-07
5.81761e-06
1.77743e-07
5.82399e-06
1.7772e-07
5.81628e-06
1.74665e-07
5.79231e-06
1.75183e-07
5.76031e-06
1.74455e-07
5.73186e-06
1.67786e-07
5.71483e-06
1.57942e-07
5.71054e-06
1.53252e-07
5.71492e-06
1.60378e-07
5.72314e-06
1.80439e-07
5.73059e-06
2.09829e-07
5.73576e-06
2.43319e-07
2.77328e-07
5.73629e-06
7.03866e-06
-1.31062e-07
7.03525e-06
1.10727e-08
7.01714e-06
6.37706e-08
7.01512e-06
1.08734e-07
7.03142e-06
1.41007e-07
7.04864e-06
1.60524e-07
7.05048e-06
1.75877e-07
7.02858e-06
1.96562e-07
6.98708e-06
2.1669e-07
6.93962e-06
2.21914e-07
6.90056e-06
2.06843e-07
6.87769e-06
1.80814e-07
6.87169e-06
1.59254e-07
6.87709e-06
1.54975e-07
6.88657e-06
1.70958e-07
6.89386e-06
2.02538e-07
6.89551e-06
2.41668e-07
2.7794e-07
6.8949e-06
8.58399e-06
-7.32407e-08
8.62365e-06
-2.85878e-08
8.59774e-06
8.96816e-08
8.54483e-06
1.61636e-07
8.49235e-06
1.93494e-07
8.4583e-06
1.94571e-07
8.45599e-06
1.78183e-07
8.48664e-06
1.65912e-07
8.53616e-06
1.67169e-07
8.58318e-06
1.749e-07
8.61109e-06
1.78937e-07
8.61486e-06
1.77039e-07
8.59988e-06
1.74232e-07
8.57749e-06
1.77363e-07
8.55697e-06
1.91482e-07
8.54275e-06
2.16756e-07
8.5337e-06
2.50726e-07
2.89491e-07
8.52214e-06
1.05111e-05
-6.49868e-08
1.05032e-05
-2.07104e-08
1.05024e-05
9.04997e-08
1.04684e-05
1.95673e-07
1.04238e-05
2.38072e-07
1.03959e-05
2.22465e-07
1.03847e-05
1.89393e-07
1.03786e-05
1.72012e-07
1.03715e-05
1.74259e-07
1.03635e-05
1.8287e-07
1.03561e-05
1.86418e-07
1.03499e-05
1.83153e-07
1.03457e-05
1.78487e-07
1.03438e-05
1.79249e-07
1.03455e-05
1.89741e-07
1.03524e-05
2.09912e-07
1.0367e-05
2.36118e-07
2.6348e-07
1.0393e-05
1.25592e-05
-9.29703e-08
1.25144e-05
2.40918e-08
1.2613e-05
-8.06175e-09
1.27421e-05
6.65875e-08
1.28448e-05
1.35378e-07
1.29133e-05
1.5394e-07
1.29511e-05
1.51588e-07
1.29667e-05
1.56445e-07
1.29714e-05
1.69482e-07
1.2977e-05
1.77254e-07
1.29908e-05
1.72676e-07
1.30116e-05
1.62338e-07
1.30317e-05
1.58396e-07
1.30418e-05
1.69131e-07
1.30364e-05
1.95191e-07
1.30154e-05
2.30905e-07
1.29818e-05
2.69698e-07
3.0463e-07
1.29406e-05
1.53445e-05
-2.59259e-08
1.54078e-05
-3.92044e-08
1.54801e-05
-8.0387e-08
1.55488e-05
-2.09699e-09
1.55791e-05
1.05086e-07
1.55685e-05
1.6458e-07
1.55329e-05
1.87129e-07
1.54967e-05
1.92643e-07
1.54781e-05
1.88145e-07
1.54815e-05
1.73807e-07
1.55019e-05
1.52336e-07
1.55315e-05
1.32682e-07
1.55644e-05
1.25479e-07
1.5596e-05
1.37561e-07
1.56233e-05
1.6787e-07
1.56454e-05
2.08839e-07
1.56633e-05
2.51806e-07
2.87911e-07
1.568e-05
1.83293e-05
-1.47544e-07
1.85235e-05
-2.33457e-07
1.85667e-05
-1.23598e-07
1.85595e-05
5.13943e-09
1.86015e-05
6.30858e-08
1.8679e-05
8.70592e-08
1.875e-05
1.16167e-07
1.87858e-05
1.56781e-07
1.87874e-05
1.86618e-07
1.87732e-05
1.87947e-07
1.87622e-05
1.63409e-07
1.87637e-05
1.31144e-07
1.87796e-05
1.09598e-07
1.88084e-05
1.08701e-07
1.88482e-05
1.28125e-07
1.88954e-05
1.61591e-07
1.89472e-05
2.00039e-07
2.37595e-07
1.89975e-05
2.30946e-05
-1.75687e-07
2.30237e-05
-1.6256e-07
2.30183e-05
-1.18164e-07
2.307e-05
-4.65558e-08
2.31269e-05
6.15967e-09
2.3191e-05
2.30261e-08
2.32712e-05
3.59023e-08
2.3356e-05
7.20255e-08
2.34177e-05
1.24872e-07
2.34318e-05
1.7384e-07
2.33916e-05
2.036e-07
2.33118e-05
2.11011e-07
2.32187e-05
2.02709e-07
2.31373e-05
1.9006e-07
2.30852e-05
1.80257e-07
2.30697e-05
1.77029e-07
2.30917e-05
1.78051e-07
1.81372e-07
2.31479e-05
1.67447e-05
-1.32744e-07
1.66952e-05
-1.13002e-07
1.66544e-05
-7.74067e-08
1.6656e-05
-4.81631e-08
1.66693e-05
-7.09051e-09
1.66748e-05
1.7467e-08
1.66917e-05
1.90184e-08
1.67532e-05
1.05075e-08
1.68663e-05
1.18177e-08
1.70096e-05
3.05157e-08
1.71491e-05
6.41155e-08
1.72546e-05
1.05526e-07
1.73103e-05
1.47005e-07
1.73174e-05
1.8291e-07
1.72888e-05
2.08892e-07
1.72417e-05
2.24068e-07
1.71909e-05
2.28927e-07
2.25733e-07
1.71465e-05
1.448e-05
-5.09779e-08
1.45117e-05
-1.4467e-07
1.45652e-05
-1.30924e-07
1.46257e-05
-1.08645e-07
1.46863e-05
-6.76816e-08
1.47182e-05
-1.44472e-08
1.4713e-05
2.41821e-08
1.46962e-05
2.73293e-08
1.47047e-05
3.34147e-09
1.47564e-05
-2.12344e-08
1.48429e-05
-2.23595e-08
1.49464e-05
1.98346e-09
1.50511e-05
4.23423e-08
1.51491e-05
8.4933e-08
1.52384e-05
1.19567e-07
1.53203e-05
1.42191e-07
1.53955e-05
1.53762e-07
1.58365e-07
1.54628e-05
1.2861e-05
1.20201e-07
1.28052e-05
-8.88419e-08
1.28107e-05
-1.36406e-07
1.28371e-05
-1.35051e-07
1.28784e-05
-1.09001e-07
1.29187e-05
-5.47052e-08
1.29436e-05
-7.29402e-10
1.29437e-05
2.7236e-08
1.29221e-05
2.48929e-08
1.28932e-05
7.62932e-09
1.2878e-05
-7.16101e-09
1.28887e-05
-8.6198e-09
1.2924e-05
6.98303e-09
1.29734e-05
3.54977e-08
1.30227e-05
7.0285e-08
1.30606e-05
1.04293e-07
1.30805e-05
1.33895e-07
1.5681e-07
1.3082e-05
1.12302e-05
-3.06763e-09
1.11873e-05
-4.58897e-08
1.11353e-05
-8.44158e-08
1.10853e-05
-8.50482e-08
1.10434e-05
-6.7095e-08
1.1035e-05
-4.63552e-08
1.10667e-05
-3.23863e-08
1.11215e-05
-2.76156e-08
1.11734e-05
-2.69577e-08
1.1206e-05
-2.50348e-08
1.12181e-05
-1.92507e-08
1.12195e-05
-1.00103e-08
1.12243e-05
2.14848e-09
1.12411e-05
1.87037e-08
1.12701e-05
4.13355e-08
1.13059e-05
6.84806e-08
1.13421e-05
9.77207e-08
1.24003e-07
1.13749e-05
9.83661e-06
1.67013e-08
9.76439e-06
2.6327e-08
9.78843e-06
-1.08454e-07
9.83264e-06
-1.29257e-07
9.83428e-06
-6.87319e-08
9.81116e-06
-2.32362e-08
9.79789e-06
-1.91165e-08
9.80786e-06
-3.75845e-08
9.83415e-06
-5.32536e-08
9.85954e-06
-5.04238e-08
9.8718e-06
-3.15029e-08
9.86974e-06
-7.95586e-09
9.85812e-06
1.37702e-08
9.84814e-06
2.86808e-08
9.84966e-06
3.98192e-08
9.86782e-06
5.03206e-08
9.90361e-06
6.19316e-08
7.53518e-08
9.95226e-06
8.39511e-06
-2.91012e-08
8.45234e-06
-3.09098e-08
8.48583e-06
-1.41942e-07
8.49755e-06
-1.40978e-07
8.48996e-06
-6.11396e-08
8.4697e-06
-2.98187e-09
8.456e-06
-5.40793e-09
8.45759e-06
-3.91816e-08
8.46901e-06
-6.46684e-08
8.48327e-06
-6.46861e-08
8.49747e-06
-4.56989e-08
8.51161e-06
-2.21024e-08
8.52869e-06
-3.30516e-09
8.5524e-06
4.97102e-09
8.58459e-06
7.62231e-09
8.62594e-06
8.97926e-09
8.6758e-06
1.20681e-08
1.91686e-08
8.73198e-06
7.42102e-06
3.50942e-08
7.4449e-06
-5.47857e-08
7.43838e-06
-1.35431e-07
7.42178e-06
-1.24372e-07
7.43656e-06
-7.5919e-08
7.47194e-06
-3.83655e-08
7.49362e-06
-2.70868e-08
7.48872e-06
-3.42831e-08
7.46853e-06
-4.4475e-08
7.45088e-06
-4.70381e-08
7.44506e-06
-3.98809e-08
7.45013e-06
-2.71649e-08
7.46154e-06
-1.47228e-08
7.474e-06
-7.48812e-09
7.48768e-06
-6.05466e-09
7.5043e-06
-7.64307e-09
7.52634e-06
-9.96983e-09
-9.3756e-09
7.55488e-06
6.35798e-06
3.50472e-08
6.46697e-06
-1.63777e-07
6.4993e-06
-1.67764e-07
6.48074e-06
-1.05817e-07
6.4796e-06
-7.47703e-08
6.50067e-06
-5.94399e-08
6.52146e-06
-4.7878e-08
6.53034e-06
-4.31624e-08
6.53187e-06
-4.60065e-08
6.53519e-06
-5.03584e-08
6.54369e-06
-4.83808e-08
6.55336e-06
-3.68309e-08
6.55775e-06
-1.91122e-08
6.55277e-06
-2.51253e-09
6.54113e-06
5.59126e-09
6.52714e-06
6.34187e-09
6.51603e-06
1.14503e-09
-5.33015e-09
6.51198e-06
5.69542e-06
-4.70186e-08
5.65961e-06
-1.27967e-07
5.61936e-06
-1.27519e-07
5.61211e-06
-9.85587e-08
5.61437e-06
-7.70394e-08
5.61777e-06
-6.28342e-08
5.6262e-06
-5.63094e-08
5.63797e-06
-5.4927e-08
5.646e-06
-5.40374e-08
5.64696e-06
-5.13269e-08
5.64454e-06
-4.59594e-08
5.64554e-06
-3.78293e-08
5.6546e-06
-2.81729e-08
5.67172e-06
-1.9628e-08
5.69157e-06
-1.42581e-08
5.70937e-06
-1.14659e-08
5.7207e-06
-1.01781e-08
-9.16048e-09
5.72453e-06
4.90983e-06
-4.80531e-08
4.91213e-06
-1.30272e-07
4.88436e-06
-9.9747e-08
4.86351e-06
-7.77077e-08
4.86525e-06
-7.87807e-08
4.87552e-06
-7.31007e-08
4.87606e-06
-5.68459e-08
4.86504e-06
-4.39139e-08
4.85253e-06
-4.15233e-08
4.84781e-06
-4.66121e-08
4.85376e-06
-5.19049e-08
4.8683e-06
-5.23691e-08
4.88772e-06
-4.75973e-08
4.90825e-06
-4.0154e-08
4.92674e-06
-3.27463e-08
4.94197e-06
-2.66952e-08
4.95386e-06
-2.2066e-08
-1.89837e-08
4.96368e-06
4.26352e-06
4.13325e-06
4.0335e-06
3.9558e-06
3.87702e-06
3.80391e-06
3.74707e-06
3.70316e-06
3.66163e-06
3.61502e-06
3.56311e-06
3.51075e-06
3.46315e-06
3.42299e-06
3.39025e-06
3.36355e-06
3.34149e-06
3.3225e-06
-3.01312e-07
3.01312e-07
-3.67736e-07
6.64242e-08
-7.06745e-09
-3.60669e-07
5.82388e-07
-5.89456e-07
1.27459e-06
-6.92199e-07
1.96517e-06
-6.90585e-07
2.59261e-06
-6.27437e-07
3.12585e-06
-5.3324e-07
3.53706e-06
-4.11214e-07
3.82106e-06
-2.83995e-07
4.00023e-06
-1.79169e-07
4.03821e-06
-3.79816e-08
3.92365e-06
1.14563e-07
3.73906e-06
1.84584e-07
3.40322e-06
3.3584e-07
2.88594e-06
5.17279e-07
2.38554e-06
5.00403e-07
2.02103e-06
3.64506e-07
1.80564e-06
2.15397e-07
1.73432e-06
7.13148e-08
1.79514e-06
-6.08209e-08
1.97463e-06
-1.79486e-07
2.24444e-06
-2.69812e-07
2.4885e-06
-2.44058e-07
2.55427e-06
-6.57715e-08
2.4389e-06
1.15374e-07
2.24321e-06
1.95682e-07
1.97615e-06
2.67065e-07
1.62934e-06
3.46811e-07
1.25988e-06
3.69459e-07
8.61366e-07
3.98512e-07
3.69167e-07
4.92198e-07
-2.56986e-07
6.26153e-07
-9.57368e-07
7.00382e-07
-1.62231e-06
6.6494e-07
-2.22417e-06
6.01859e-07
-2.77502e-06
5.50854e-07
-3.268e-06
4.92975e-07
-3.69966e-06
4.3166e-07
-4.08146e-06
3.81801e-07
-4.42153e-06
3.40071e-07
-4.72335e-06
3.01822e-07
-4.98787e-06
2.64515e-07
-5.21583e-06
2.27961e-07
-5.40896e-06
1.93131e-07
-5.57068e-06
1.61727e-07
-5.70624e-06
1.35553e-07
-5.82171e-06
1.1547e-07
-5.9235e-06
1.01788e-07
-6.01861e-06
9.51144e-08
-6.11416e-06
9.55462e-08
-6.21623e-06
1.02069e-07
-6.32948e-06
1.13254e-07
-6.45591e-06
1.26434e-07
-6.59359e-06
1.37682e-07
-6.73478e-06
1.41181e-07
-6.86327e-06
1.28495e-07
-6.9544e-06
9.11298e-08
-6.97875e-06
2.43508e-08
-6.91352e-06
-6.52353e-08
-6.75571e-06
-1.57811e-07
-6.52028e-06
-2.35425e-07
-6.22327e-06
-2.97009e-07
-5.87402e-06
-3.49252e-07
-5.47356e-06
-4.00459e-07
-5.01747e-06
-4.56089e-07
-4.50047e-06
-5.17006e-07
-3.91948e-06
-5.8099e-07
-3.27014e-06
-6.49332e-07
-2.54131e-06
-7.2883e-07
-1.7137e-06
-8.27616e-07
-7.64644e-07
-9.49053e-07
3.08243e-07
-1.07289e-06
1.48423e-06
-1.17599e-06
2.67941e-06
-1.19518e-06
3.7597e-06
-1.08029e-06
4.50596e-06
-7.46257e-07
4.75123e-06
-2.45279e-07
4.42992e-06
3.21313e-07
3.54273e-06
8.87193e-07
2.3069e-06
1.23583e-06
1.07023e-06
1.23667e-06
7.09367e-08
9.99295e-07
-4.06543e-07
4.7748e-07
3.02717e-08
-4.36815e-07
3.02144e-07
-2.71872e-07
-4.34329e-07
7.36473e-07
-2.726e-06
2.29167e-06
-5.40607e-06
2.68008e-06
-7.48389e-06
2.07782e-06
-9.28075e-06
1.79686e-06
-1.06464e-05
1.36565e-06
-1.17327e-05
1.08628e-06
-1.25244e-05
7.91681e-07
-1.30904e-05
5.66073e-07
-1.34398e-05
3.494e-07
-1.36064e-05
1.6653e-07
-1.3602e-05
-4.3676e-09
-1.34674e-05
-1.34588e-07
-1.32152e-05
-2.52246e-07
-1.28618e-05
-3.53395e-07
-1.24264e-05
-4.35391e-07
-1.19252e-05
-5.01191e-07
-1.13748e-05
-5.50355e-07
-1.07885e-05
-5.863e-07
-1.01783e-05
-6.10265e-07
-9.5529e-06
-6.25366e-07
-8.91973e-06
-6.33168e-07
-8.28404e-06
-6.35695e-07
-7.65e-06
-6.34034e-07
-7.02075e-06
-6.29248e-07
-6.39909e-06
-6.21662e-07
-5.78735e-06
-6.11744e-07
-5.18727e-06
-6.00081e-07
-4.60053e-06
-5.86739e-07
-4.0287e-06
-5.71826e-07
-3.47228e-06
-5.56417e-07
-2.93121e-06
-5.41075e-07
-2.40541e-06
-5.25801e-07
-1.89169e-06
-5.1372e-07
-1.38536e-06
-5.06331e-07
-8.80892e-07
-5.04466e-07
-3.73072e-07
-5.0782e-07
1.36113e-07
-5.09185e-07
6.39717e-07
-5.03604e-07
1.12245e-06
-4.82733e-07
1.57022e-06
-4.47768e-07
1.97479e-06
-4.04568e-07
2.33768e-06
-3.62895e-07
2.67049e-06
-3.32805e-07
2.9909e-06
-3.2041e-07
3.31765e-06
-3.26756e-07
3.66778e-06
-3.50124e-07
4.05429e-06
-3.86515e-07
4.48396e-06
-4.29668e-07
4.95524e-06
-4.71285e-07
5.45795e-06
-5.02708e-07
5.97529e-06
-5.17335e-07
6.48746e-06
-5.12172e-07
6.97591e-06
-4.8845e-07
7.4259e-06
-4.49995e-07
7.82829e-06
-4.02383e-07
8.18008e-06
-3.51795e-07
8.47979e-06
-2.99704e-07
8.72748e-06
-2.47695e-07
8.9236e-06
-1.96124e-07
9.06456e-06
-1.40959e-07
9.15285e-06
-8.82874e-08
9.16753e-06
-1.46827e-08
9.07091e-06
9.66255e-08
8.90454e-06
1.66364e-07
8.63601e-06
2.68535e-07
8.08807e-06
5.47938e-07
7.37249e-06
7.15585e-07
6.46501e-06
9.07475e-07
4.82714e-06
1.63787e-06
2.66711e-06
2.16003e-06
9.33853e-07
1.73326e-06
2.8685e-08
9.05168e-07
-1.91667e-07
2.20352e-07
-3.50647e-08
-1.56602e-07
2.27257e-07
-2.62322e-07
4.93891e-07
-2.66634e-07
7.22955e-07
-2.29064e-07
8.66219e-07
-1.43264e-07
8.40182e-07
2.60369e-08
6.44948e-07
1.95233e-07
4.02475e-07
2.42474e-07
2.30487e-07
1.71988e-07
1.36726e-07
9.37603e-08
7.18566e-08
6.48698e-08
1.50264e-08
5.68303e-08
-7.82514e-09
2.28515e-08
3.28933e-08
-4.07185e-08
1.36781e-07
-1.03888e-07
2.81282e-07
-1.44501e-07
3.97868e-07
-1.16586e-07
5.04865e-07
-1.06997e-07
4.73187e-07
3.16782e-08
-6.04965e-08
5.33683e-07
6.29311e-08
2.38381e-07
5.37035e-07
-4.0768e-07
1.18956e-06
-1.01319e-06
1.88023e-06
-1.28013e-06
2.50404e-06
-1.31601e-06
3.04367e-06
-1.23022e-06
3.49055e-06
-1.07431e-06
3.84344e-06
-8.8614e-07
4.1135e-06
-6.81273e-07
4.30221e-06
-4.727e-07
4.39675e-06
-2.73706e-07
4.43301e-06
-7.42436e-08
4.40855e-06
1.39016e-07
4.2741e-06
3.1904e-07
4.12517e-06
4.84767e-07
3.97795e-06
6.64499e-07
3.70938e-06
7.68976e-07
3.31987e-06
7.54018e-07
2.90724e-06
6.28019e-07
2.63976e-06
3.38803e-07
2.61878e-06
-3.98463e-08
2.70201e-06
-2.62713e-07
2.70148e-06
-2.69279e-07
2.60433e-06
-1.4691e-07
2.44896e-06
8.95999e-08
2.20319e-06
3.61137e-07
1.84502e-06
5.53859e-07
1.43271e-06
6.79371e-07
9.77957e-07
8.01564e-07
4.04249e-07
9.43167e-07
-3.12036e-07
1.1148e-06
-1.08948e-06
1.26964e-06
-1.79747e-06
1.33415e-06
-2.38428e-06
1.28719e-06
-2.89848e-06
1.17914e-06
-3.38164e-06
1.08501e-06
-3.84254e-06
1.01176e-06
-4.29585e-06
9.46279e-07
-4.74856e-06
8.84374e-07
-5.18769e-06
8.20927e-07
-5.59849e-06
7.5087e-07
-5.97195e-06
6.75284e-07
-6.30498e-06
5.97547e-07
-6.59754e-06
5.20524e-07
-6.85056e-06
4.46145e-07
-7.06512e-06
3.76286e-07
-7.2423e-06
3.12737e-07
-7.38362e-06
2.56788e-07
-7.491e-06
2.09173e-07
-7.56604e-06
1.70149e-07
-7.60966e-06
1.39169e-07
-7.6224e-06
1.14804e-07
-7.60423e-06
9.50865e-08
-7.55324e-06
7.54445e-08
-7.46707e-06
5.15105e-08
-7.34429e-06
1.84e-08
-7.18276e-06
-3.30288e-08
-6.99037e-06
-1.01266e-07
-6.78137e-06
-1.84651e-07
-6.57012e-06
-2.76477e-07
-6.35856e-06
-3.69379e-07
-6.134e-06
-4.59985e-07
-5.8818e-06
-5.49207e-07
-5.59105e-06
-6.39995e-07
-5.25657e-06
-7.34946e-07
-4.87613e-06
-8.36527e-07
-4.44604e-06
-9.47094e-07
-3.95754e-06
-1.06949e-06
-3.39682e-06
-1.21004e-06
-2.74632e-06
-1.37934e-06
-1.98559e-06
-1.58835e-06
-1.09423e-06
-1.84041e-06
-5.25909e-08
-2.11452e-06
1.11913e-06
-2.34771e-06
2.3673e-06
-2.44335e-06
3.52781e-06
-2.2408e-06
4.365e-06
-1.58345e-06
4.71228e-06
-5.92553e-07
4.5592e-06
4.74393e-07
3.97554e-06
1.47085e-06
3.0433e-06
2.16807e-06
1.97248e-06
2.30749e-06
9.73061e-07
1.99871e-06
2.71838e-07
1.1787e-06
-6.91715e-07
5.26738e-07
-2.86736e-06
1.90377e-06
-5.67122e-06
3.54033e-06
-7.47128e-06
4.09173e-06
-8.72262e-06
3.93142e-06
-9.90496e-06
3.26016e-06
-1.08271e-05
2.71895e-06
-1.15883e-05
2.12695e-06
-1.21755e-05
1.67344e-06
-1.26206e-05
1.23673e-06
-1.29292e-05
8.74731e-07
-1.31114e-05
5.31563e-07
-1.31723e-05
2.27459e-07
-1.31175e-05
-5.91428e-08
-1.29415e-05
-3.10629e-07
-1.26572e-05
-5.36528e-07
-1.22797e-05
-7.30874e-07
-1.18236e-05
-8.91509e-07
-1.13063e-05
-1.01855e-06
-1.07428e-05
-1.11385e-06
-1.0147e-05
-1.18207e-06
-9.52982e-06
-1.22743e-06
-8.89991e-06
-1.25528e-06
-8.26381e-06
-1.26926e-06
-7.62638e-06
-1.27313e-06
-6.99146e-06
-1.26895e-06
-6.362e-06
-1.25871e-06
-5.74058e-06
-1.24308e-06
-5.12962e-06
-1.2227e-06
-4.53131e-06
-1.19839e-06
-3.94724e-06
-1.17081e-06
-3.37896e-06
-1.1401e-06
-2.82708e-06
-1.1083e-06
-2.29116e-06
-1.077e-06
-1.7707e-06
-1.04626e-06
-1.26255e-06
-1.02187e-06
-7.6124e-07
-1.00764e-06
-2.57249e-07
-1.00846e-06
2.55647e-07
-1.02072e-06
7.80709e-07
-1.03425e-06
1.3094e-06
-1.03229e-06
1.82453e-06
-9.9787e-07
2.30559e-06
-9.28828e-07
2.73877e-06
-8.37744e-07
3.12235e-06
-7.46473e-07
3.4663e-06
-6.76759e-07
3.78819e-06
-6.42295e-07
4.10881e-06
-6.47379e-07
4.44816e-06
-6.89474e-07
4.82243e-06
-7.60787e-07
5.24135e-06
-8.48583e-07
5.70599e-06
-9.35923e-07
6.20802e-06
-1.00474e-06
6.73135e-06
-1.04067e-06
7.25601e-06
-1.03683e-06
7.76221e-06
-9.9465e-07
8.23405e-06
-9.21834e-07
8.66113e-06
-8.29463e-07
9.03734e-06
-7.28008e-07
9.36137e-06
-6.23739e-07
9.63364e-06
-5.19957e-07
9.85753e-06
-4.20019e-07
1.00339e-05
-3.1735e-07
1.01462e-05
-2.00565e-07
1.02037e-05
-7.22109e-08
1.02126e-05
8.77727e-08
1.01217e-05
2.57271e-07
9.97972e-06
4.10493e-07
9.81202e-06
7.15635e-07
9.44204e-06
1.08556e-06
8.96279e-06
1.38673e-06
8.48812e-06
2.11254e-06
7.62548e-06
3.02266e-06
6.25735e-06
3.1014e-06
4.85027e-06
2.31224e-06
3.77552e-06
1.2951e-06
3.08511e-06
5.33814e-07
2.71017e-06
1.12612e-07
2.5247e-06
-8.11622e-08
2.44449e-06
-1.48858e-07
2.41951e-06
-1.18276e-07
2.4014e-06
4.41458e-08
2.29518e-06
3.0145e-07
2.10328e-06
4.34371e-07
1.8925e-06
3.8277e-07
1.70878e-06
2.77476e-07
1.53036e-06
2.4329e-07
1.35848e-06
2.28715e-07
1.24219e-06
1.39144e-07
1.24851e-06
-4.70393e-08
1.39142e-06
-2.46798e-07
1.645e-06
-3.98085e-07
1.9393e-06
-4.10887e-07
2.22416e-06
-3.91855e-07
2.47181e-06
-2.15968e-07
-2.04807e-07
2.61612e-06
5.32983e-07
-2.94602e-07
1.41804e-06
-1.29274e-06
2.10967e-06
-1.70482e-06
2.60412e-06
-1.77458e-06
2.96023e-06
-1.67211e-06
3.22019e-06
-1.49019e-06
3.41688e-06
-1.271e-06
3.56596e-06
-1.03522e-06
3.67333e-06
-7.88641e-07
3.74202e-06
-5.41393e-07
3.76871e-06
-3.00395e-07
3.7531e-06
-5.86298e-08
3.71213e-06
1.7998e-07
3.63132e-06
3.99856e-07
3.51667e-06
5.99413e-07
3.40847e-06
7.72698e-07
3.2906e-06
8.8685e-07
3.11045e-06
9.34165e-07
2.90635e-06
8.32124e-07
2.75618e-06
4.88971e-07
2.62579e-06
9.05446e-08
2.43547e-06
-7.23982e-08
2.13871e-06
2.74815e-08
1.76452e-06
2.27281e-07
1.40167e-06
4.52446e-07
1.06488e-06
6.97933e-07
6.76113e-07
9.42623e-07
1.80872e-07
1.17461e-06
-4.20022e-07
1.40246e-06
-1.09333e-06
1.61647e-06
-1.76518e-06
1.78665e-06
-2.3705e-06
1.87496e-06
-2.90673e-06
1.87038e-06
-3.42617e-06
1.80663e-06
-3.98227e-06
1.73524e-06
-4.57274e-06
1.67549e-06
-5.1757e-06
1.61472e-06
-5.77112e-06
1.5417e-06
-6.34048e-06
1.45373e-06
-6.87177e-06
1.35222e-06
-7.36177e-06
1.24087e-06
-7.81e-06
1.12351e-06
-8.21575e-06
1.00329e-06
-8.57835e-06
8.83122e-07
-8.89758e-06
7.65374e-07
-9.17316e-06
6.5187e-07
-9.40434e-06
5.43916e-07
-9.59009e-06
4.42535e-07
-9.72938e-06
3.48466e-07
-9.82114e-06
2.61907e-07
-9.86457e-06
1.82601e-07
-9.85862e-06
1.08854e-07
-9.80265e-06
3.91157e-08
-9.70076e-06
-2.64484e-08
-9.5519e-06
-9.73526e-08
-9.35736e-06
-1.76136e-07
-9.12419e-06
-2.662e-07
-8.85701e-06
-3.68442e-07
-8.56008e-06
-4.81585e-07
-8.23427e-06
-6.02285e-07
-7.87764e-06
-7.26012e-07
-7.48858e-06
-8.49042e-07
-7.06765e-06
-9.70134e-07
-6.61753e-06
-1.09012e-06
-6.14121e-06
-1.21126e-06
-5.64077e-06
-1.33697e-06
-5.1155e-06
-1.47237e-06
-4.55913e-06
-1.62586e-06
-3.95913e-06
-1.81004e-06
-3.29731e-06
-2.04116e-06
-2.54856e-06
-2.3371e-06
-1.68148e-06
-2.70749e-06
-6.61382e-07
-3.13462e-06
5.21885e-07
-3.53098e-06
1.79456e-06
-3.71602e-06
2.95674e-06
-3.40298e-06
3.74998e-06
-2.37669e-06
4.03554e-06
-8.78114e-07
3.82288e-06
6.87058e-07
3.22289e-06
2.07084e-06
2.37511e-06
3.01585e-06
1.35999e-06
3.32261e-06
2.54665e-07
3.10404e-06
-9.31315e-07
2.36468e-06
-3.02117e-06
2.61659e-06
-5.53242e-06
4.41502e-06
-7.29673e-06
5.30464e-06
-8.32814e-06
5.12314e-06
-8.95226e-06
4.55555e-06
-9.5989e-06
3.90679e-06
-1.01941e-05
3.31417e-06
-1.07852e-05
2.718e-06
-1.12975e-05
2.1858e-06
-1.17217e-05
1.66086e-06
-1.2023e-05
1.17604e-06
-1.21985e-05
7.07121e-07
-1.22398e-05
2.68699e-07
-1.21564e-05
-1.42476e-07
-1.1957e-05
-5.10101e-07
-1.16527e-05
-8.40753e-07
-1.12592e-05
-1.12446e-06
-1.07934e-05
-1.35726e-06
-1.02727e-05
-1.53929e-06
-9.71234e-06
-1.67416e-06
-9.12548e-06
-1.76893e-06
-8.52208e-06
-1.83083e-06
-7.90947e-06
-1.86789e-06
-7.29276e-06
-1.88597e-06
-6.67562e-06
-1.89027e-06
-6.06089e-06
-1.88368e-06
-5.45101e-06
-1.86859e-06
-4.8481e-06
-1.84599e-06
-4.25467e-06
-1.81613e-06
-3.67361e-06
-1.77946e-06
-3.10769e-06
-1.73673e-06
-2.56014e-06
-1.68765e-06
-2.0334e-06
-1.63504e-06
-1.52893e-06
-1.58147e-06
-1.047e-06
-1.52819e-06
-5.86338e-07
-1.48253e-06
-1.40149e-07
-1.45383e-06
3.03739e-07
-1.45235e-06
7.59915e-07
-1.47689e-06
1.2402e-06
-1.51453e-06
1.74246e-06
-1.53456e-06
2.25164e-06
-1.50705e-06
2.74329e-06
-1.42047e-06
3.1949e-06
-1.28936e-06
3.59528e-06
-1.14685e-06
3.94773e-06
-1.02921e-06
4.26767e-06
-9.62233e-07
4.57699e-06
-9.56699e-07
4.89844e-06
-1.01093e-06
5.2514e-06
-1.11374e-06
5.64825e-06
-1.24544e-06
6.09174e-06
-1.37941e-06
6.57423e-06
-1.48723e-06
7.07986e-06
-1.5463e-06
7.58896e-06
-1.54593e-06
8.08258e-06
-1.48827e-06
8.54536e-06
-1.38461e-06
8.96668e-06
-1.25079e-06
9.34033e-06
-1.10166e-06
9.66346e-06
-9.46867e-07
9.93624e-06
-7.92735e-07
1.01613e-05
-6.45067e-07
1.03418e-05
-4.97865e-07
1.04717e-05
-3.3042e-07
1.05424e-05
-1.42961e-07
1.05625e-05
6.77229e-08
1.05009e-05
3.18791e-07
1.03531e-05
5.58348e-07
1.02056e-05
8.63151e-07
9.9862e-06
1.30493e-06
9.65651e-06
1.71642e-06
9.47357e-06
2.29548e-06
9.3359e-06
3.16033e-06
8.84777e-06
3.58952e-06
7.99813e-06
3.16189e-06
7.03251e-06
2.26072e-06
6.11796e-06
1.44836e-06
5.28777e-06
9.42805e-07
4.56362e-06
6.42982e-07
4.00373e-06
4.11032e-07
3.63284e-06
2.52619e-07
3.41735e-06
2.59636e-07
3.27032e-06
4.48479e-07
3.07328e-06
6.31413e-07
2.78109e-06
6.74963e-07
2.41242e-06
6.46142e-07
2.01592e-06
6.3979e-07
1.66677e-06
5.7787e-07
1.448e-06
3.57908e-07
1.41501e-06
-1.4045e-08
1.56328e-06
-3.95072e-07
1.83567e-06
-6.70473e-07
2.17311e-06
-7.48329e-07
2.49455e-06
-7.13292e-07
2.80572e-06
-5.27143e-07
-4.06851e-07
3.00777e-06
8.88275e-07
-1.18288e-06
1.57165e-06
-1.97611e-06
1.92621e-06
-2.05938e-06
2.10829e-06
-1.95666e-06
2.23024e-06
-1.79405e-06
2.32672e-06
-1.58667e-06
2.40379e-06
-1.34807e-06
2.4625e-06
-1.09393e-06
2.50113e-06
-8.27269e-07
2.51951e-06
-5.59778e-07
2.52146e-06
-3.02342e-07
2.50559e-06
-4.27549e-08
2.474e-06
2.11566e-07
2.42349e-06
4.50368e-07
2.36019e-06
6.62714e-07
2.28229e-06
8.50593e-07
2.16693e-06
1.00222e-06
2.09563e-06
1.00546e-06
2.15802e-06
7.69733e-07
2.19408e-06
4.52915e-07
2.00453e-06
2.80094e-07
1.63522e-06
2.9691e-07
1.21345e-06
4.49257e-07
7.67055e-07
6.73672e-07
2.8689e-07
9.32611e-07
-2.20072e-07
1.20489e-06
-7.58708e-07
1.48126e-06
-1.33379e-06
1.7497e-06
-1.92854e-06
1.99721e-06
-2.51349e-06
2.20142e-06
-3.06657e-06
2.33973e-06
-3.59633e-06
2.40472e-06
-4.13921e-06
2.41326e-06
-4.72354e-06
2.39096e-06
-5.34033e-06
2.35203e-06
-5.95798e-06
2.29314e-06
-6.55228e-06
2.20902e-06
-7.11194e-06
2.10136e-06
-7.63359e-06
1.97539e-06
-8.11819e-06
1.83682e-06
-8.56748e-06
1.69016e-06
-8.98273e-06
1.53876e-06
-9.36472e-06
1.38528e-06
-9.71306e-06
1.23147e-06
-1.0026e-05
1.07833e-06
-1.03008e-05
9.26639e-07
-1.0534e-05
7.77102e-07
-1.07218e-05
6.30354e-07
-1.08602e-05
4.86907e-07
-1.09454e-05
3.47094e-07
-1.09736e-05
2.10792e-07
-1.09409e-05
7.60952e-08
-1.08505e-05
-5.12378e-08
-1.06986e-05
-1.78361e-07
-1.04865e-05
-3.09424e-07
-1.02176e-05
-4.45009e-07
-9.89681e-06
-5.8704e-07
-9.52884e-06
-7.36408e-07
-9.11823e-06
-8.92196e-07
-8.66909e-06
-1.05143e-06
-8.18537e-06
-1.20973e-06
-7.67198e-06
-1.36243e-06
-7.13565e-06
-1.50646e-06
-6.58512e-06
-1.64064e-06
-6.02933e-06
-1.76705e-06
-5.47517e-06
-1.89114e-06
-4.92541e-06
-2.02212e-06
-4.3777e-06
-2.17357e-06
-3.82395e-06
-2.36379e-06
-3.24798e-06
-2.61713e-06
-2.6227e-06
-2.96238e-06
-1.90762e-06
-3.42257e-06
-1.05374e-06
-3.98851e-06
-2.77248e-08
-4.55699e-06
1.10735e-06
-4.8511e-06
2.13615e-06
-4.43178e-06
2.79801e-06
-3.03855e-06
2.98776e-06
-1.06787e-06
2.70905e-06
9.65765e-07
2.08505e-06
2.69484e-06
1.23681e-06
3.86409e-06
2.33613e-07
4.32581e-06
-8.69808e-07
4.20746e-06
-2.38346e-06
3.87833e-06
-4.59583e-06
4.82896e-06
-6.38446e-06
6.20365e-06
-7.31437e-06
6.23456e-06
-7.86573e-06
5.67449e-06
-8.3814e-06
5.07122e-06
-8.90254e-06
4.42793e-06
-9.42144e-06
3.83308e-06
-9.9336e-06
3.23015e-06
-1.03765e-05
2.6287e-06
-1.0734e-05
2.01836e-06
-1.09762e-05
1.41822e-06
-1.11003e-05
8.31265e-07
-1.10993e-05
2.67713e-07
-1.09832e-05
-2.58606e-07
-1.0755e-05
-7.38344e-07
-1.04275e-05
-1.16823e-06
-1.00155e-05
-1.53644e-06
-9.53781e-06
-1.83495e-06
-9.01328e-06
-2.06382e-06
-8.45865e-06
-2.22879e-06
-7.88693e-06
-2.34066e-06
-7.30708e-06
-2.41068e-06
-6.72484e-06
-2.45014e-06
-6.14335e-06
-2.46746e-06
-5.5643e-06
-2.46932e-06
-4.98843e-06
-2.45954e-06
-4.4164e-06
-2.44063e-06
-3.84851e-06
-2.41388e-06
-3.28576e-06
-2.37888e-06
-2.72967e-06
-2.33554e-06
-2.18222e-06
-2.28419e-06
-1.64695e-06
-2.22291e-06
-1.12768e-06
-2.15431e-06
-6.30269e-07
-2.07888e-06
-1.61751e-07
-1.9967e-06
2.7448e-07
-1.91876e-06
6.76597e-07
-1.85595e-06
1.05225e-06
-1.828e-06
1.42445e-06
-1.84909e-06
1.81439e-06
-1.90447e-06
2.23216e-06
-1.95233e-06
2.67208e-06
-1.94697e-06
3.11695e-06
-1.86534e-06
3.54584e-06