/*--------------------------------*- C++ -*----------------------------------*\
  =========                 |
  \\      /  F ield         | OpenFOAM: The Open Source CFD Toolbox
   \\    /   O peration     | Website:  https://openfoam.org
    \\  /    A nd           | Version:  9
     \\/     M anipulation  |
\*---------------------------------------------------------------------------*/
FoamFile
{
    format      ascii;
    class       volScalarField;
    location    "0.062";
    object      pMean;
}
// * * * * * * * * * * * * * * * * * * * * * * * * * * * * * * * * * * * * * //

dimensions      [0 2 -2 0 0 0 0];

internalField   nonuniform List<scalar> 
12225
(
-2.49319
-3.05368
-3.35374
-3.46587
-3.5088
-3.5347
-3.55312
-3.55889
-3.54646
-3.51244
-3.45638
-3.37575
-3.27266
-3.14377
-3.00381
-2.86422
-2.79355
-2.91077
-2.72836
-3.08406
-3.35654
-3.4762
-3.52056
-3.54511
-3.563
-3.56918
-3.55794
-3.52568
-3.4725
-3.39586
-3.29915
-3.17888
-3.05254
-2.92799
-2.88197
-3.02
-2.77105
-3.0885
-3.35055
-3.48003
-3.52957
-3.55437
-3.57219
-3.57959
-3.57049
-3.54183
-3.49331
-3.42523
-3.33907
-3.23892
-3.13587
-3.05602
-3.04749
-3.19563
-2.91115
-3.13931
-3.36323
-3.49255
-3.54616
-3.57071
-3.58752
-3.5955
-3.58901
-3.56441
-3.5221
-3.4627
-3.38996
-3.30914
-3.23349
-3.18685
-3.20452
-3.32719
-2.9922
-3.17611
-3.36928
-3.49753
-3.5583
-3.58569
-3.60243
-3.61122
-3.60749
-3.58809
-3.55291
-3.50375
-3.44482
-3.3831
-3.33134
-3.3086
-3.33736
-3.43421
-3.09419
-3.22803
-3.39059
-3.51263
-3.5777
-3.60776
-3.62483
-3.63451
-3.63367
-3.61936
-3.59168
-3.55302
-3.5081
-3.46429
-3.43245
-3.42663
-3.46066
-3.54245
-3.22437
-3.28896
-3.4106
-3.52498
-3.59465
-3.62886
-3.64713
-3.65807
-3.66088
-3.65285
-3.6338
-3.6063
-3.57531
-3.54782
-3.53288
-3.54045
-3.57944
-3.6542
-3.28435
-3.33925
-3.44353
-3.5461
-3.61608
-3.65461
-3.67568
-3.68837
-3.69438
-3.69235
-3.68205
-3.6658
-3.64827
-3.63568
-3.6352
-3.65407
-3.69832
-3.7704
-3.35339
-3.40455
-3.48378
-3.57057
-3.63905
-3.68183
-3.70664
-3.7224
-3.73262
-3.73712
-3.73575
-3.73055
-3.72572
-3.72664
-3.73914
-3.7685
-3.81878
-3.89124
-3.42524
-3.459
-3.52517
-3.60132
-3.66668
-3.71233
-3.74124
-3.76065
-3.7754
-3.78655
-3.79435
-3.80031
-3.80784
-3.8215
-3.84599
-3.8852
-3.942
-4.01711
-3.49443
-3.52393
-3.57469
-3.63955
-3.70111
-3.74798
-3.78047
-3.80453
-3.82477
-3.84289
-3.85927
-3.87544
-3.89439
-3.91979
-3.95527
-4.00378
-4.06737
-4.14681
-3.56758
-3.57143
-3.61267
-3.67388
-3.73345
-3.78161
-3.81809
-3.84689
-3.87252
-3.89719
-3.92184
-3.94756
-3.97667
-4.01224
-4.05717
-4.11386
-4.18384
-4.2679
-3.64238
-3.6358
-3.66635
-3.71944
-3.77474
-3.8224
-3.8614
-3.89504
-3.92652
-3.95775
-3.98981
-4.02411
-4.06255
-4.10749
-4.16117
-4.22552
-4.30171
-4.39054
-3.64755
-3.67843
-3.71807
-3.76553
-3.81692
-3.86638
-3.91088
-3.95101
-3.98934
-4.02819
-4.06903
-4.11306
-4.16177
-4.21692
-4.28019
-4.35302
-4.4364
-4.53092
-3.71896
-3.7577
-3.79516
-3.83445
-3.88006
-3.92871
-3.97662
-4.02284
-4.06865
-4.11589
-4.16608
-4.22034
-4.27973
-4.34539
-4.41852
-4.50012
-4.59102
-4.69164
-3.84573
-3.83946
-3.85477
-3.89267
-3.94266
-3.99646
-4.05034
-4.10389
-4.15827
-4.21499
-4.27533
-4.34016
-4.41029
-4.48644
-4.56944
-4.65984
-4.7582
-4.86456
-3.95585
-3.9364
-3.94539
-3.98086
-4.03099
-4.08614
-4.14321
-4.20255
-4.26503
-4.33138
-4.4021
-4.4776
-4.55829
-4.64459
-4.73692
-4.83559
-4.94095
-5.05305
-3.99484
-3.99886
-4.02221
-4.06186
-4.11209
-4.17102
-4.23615
-4.30545
-4.37836
-4.45508
-4.53603
-4.62154
-4.71191
-4.80732
-4.90793
-5.01374
-5.12474
-5.24074
-4.01545
-4.04569
-4.09155
-4.14518
-4.20597
-4.27302
-4.34511
-4.42187
-4.50331
-4.58926
-4.6795
-4.77401
-4.87282
-4.97584
-5.08293
-5.19391
-5.30866
-5.42694
-4.1202
-4.12019
-4.14478
-4.19365
-4.25978
-4.33583
-4.41689
-4.5012
-4.58896
-4.68087
-4.77721
-4.8777
-4.98194
-5.08954
-5.20027
-5.31389
-5.43021
-5.54885
-4.09699
-4.1109
-4.15267
-4.21964
-4.29918
-4.38217
-4.46717
-4.5556
-4.64826
-4.74517
-4.84597
-4.95016
-5.05742
-5.16744
-5.27992
-5.39458
-5.51123
-5.62965
-4.09079
-4.10313
-4.15034
-4.22274
-4.30751
-4.3968
-4.4879
-4.5812
-4.67805
-4.77889
-4.88322
-4.99039
-5.09998
-5.21172
-5.32544
-5.44086
-5.55768
-5.67549
-4.00214
-4.07261
-4.15411
-4.23886
-4.32778
-4.41971
-4.51345
-4.60966
-4.70929
-4.81246
-4.91861
-5.02716
-5.13774
-5.25014
-5.36408
-5.47933
-5.59558
-5.71265
-3.90225
-3.99694
-4.10786
-4.21603
-4.31773
-4.41466
-4.51112
-4.61046
-4.71367
-4.82025
-4.92915
-5.03966
-5.15166
-5.2651
-5.37984
-5.49559
-5.61202
-5.72869
-4.00003
-4.02795
-4.11629
-4.2297
-4.33672
-4.43395
-4.52926
-4.62851
-4.73271
-4.84025
-4.9496
-5.06028
-5.17228
-5.28554
-5.39991
-5.51511
-5.63079
-5.74668
-3.81856
-3.92903
-4.0722
-4.20743
-4.32048
-4.41941
-4.5173
-4.62016
-4.72771
-4.83776
-4.94893
-5.06089
-5.17387
-5.28795
-5.40293
-5.51844
-5.63419
-5.74982
-3.80872
-3.93634
-4.09017
-4.22484
-4.33242
-4.4281
-4.52571
-4.62952
-4.73771
-4.84772
-4.95856
-5.07028
-5.18306
-5.29686
-5.41141
-5.52642
-5.64158
-5.75646
-3.69819
-3.86446
-4.05938
-4.20955
-4.31812
-4.4145
-4.5152
-4.62204
-4.73206
-4.84312
-4.95474
-5.06711
-5.18042
-5.29456
-5.40932
-5.52436
-5.6395
-5.75469
-3.69241
-3.87574
-4.07499
-4.21654
-4.32002
-4.41652
-4.51825
-4.62535
-4.73522
-4.84619
-4.95784
-5.07026
-5.1836
-5.29768
-5.41231
-5.52698
-5.64161
-5.75566
-3.43618
-3.8363
-4.07834
-4.20998
-4.31026
-4.40942
-4.51325
-4.62116
-4.7314
-4.84269
-4.95465
-5.06733
-5.18087
-5.29504
-5.40971
-5.52422
-5.63851
-5.75147
-8.13414
-8.31979
-8.51233
-8.62372
-8.5799
-8.38313
-8.14817
-8.01863
-8.09077
-8.38303
-8.86385
-9.4728
-10.1312
-10.768
-11.3328
-11.799
-12.1517
-12.3806
-12.4842
-12.4767
-12.3923
-12.2379
-12.0328
-11.8081
-11.6158
-11.509
-11.5448
-11.7052
-11.9266
-12.171
-12.4557
-12.825
-13.2879
-13.781
-14.217
-14.555
-14.7903
-15.0689
-15.548
-16.1842
-16.7618
-17.1821
-17.4387
-17.6285
-17.8796
-18.142
-18.3708
-18.5884
-18.6739
-18.6762
-18.869
-19.1898
-19.5913
-20.0914
-20.6532
-21.187
-21.6131
-22.1155
-22.8007
-23.6266
-24.491
-25.3278
-26.0672
-26.6749
-27.1266
-27.4091
-27.5113
-27.4257
-27.1539
-26.7135
-26.1364
-25.4621
-24.7277
-23.989
-23.3182
-22.7273
-22.1999
-21.6878
-21.1233
-20.4481
-19.624
-18.6561
-17.5852
-16.5037
-15.4208
-14.4025
-13.3889
-12.2643
-11.039
-10.3778
-10.5354
-11.1225
-11.8507
-12.5534
-13.1341
-13.5392
-13.733
-13.6886
-13.3816
-12.7907
-11.9007
-10.7063
-9.21541
-7.44894
-5.44071
-3.23515
-0.883136
1.56171
4.04463
6.51045
8.90488
11.1782
13.2902
15.2139
16.9347
18.4478
19.754
20.8564
21.7593
22.4677
22.9875
23.326
23.4924
23.4992
23.3602
23.0922
22.7125
22.2395
21.6914
21.0853
20.4366
19.7595
19.0666
18.3695
17.6788
17.0044
16.3559
15.742
15.1716
14.6526
14.1922
13.7959
13.4679
13.2106
13.0249
12.9099
12.8626
12.878
12.9495
13.0683
13.2243
13.4055
13.5956
13.778
13.9336
14.0319
14.0742
14.1313
14.2805
14.5061
14.7436
14.9596
15.1459
15.3045
15.437
15.5452
15.6417
15.7471
15.8734
16.0157
16.1656
16.3208
16.4813
16.6482
16.8162
16.985
17.1525
17.326
17.5206
17.7007
-8.98398
-9.16753
-9.33553
-9.48658
-9.46273
-9.31843
-9.18275
-9.18349
-9.38334
-9.76622
-10.2773
-10.8529
-11.4336
-11.9704
-12.4322
-12.8008
-13.0707
-13.2417
-13.3123
-13.3011
-13.2021
-13.05
-12.8867
-12.7127
-12.5404
-12.4619
-12.4788
-12.6123
-12.8132
-13.1104
-13.6059
-14.2253
-14.8977
-15.5394
-16.0672
-16.4804
-16.7992
-17.1134
-17.5242
-18.041
-18.5114
-18.8357
-18.9858
-19.0229
-19.1421
-19.269
-19.5734
-20.1235
-20.3907
-20.4915
-20.7095
-20.9973
-21.3261
-21.6978
-22.0872
-22.5687
-23.0382
-23.5408
-24.1932
-24.9314
-25.6975
-26.4233
-27.0564
-27.5694
-27.9397
-28.1502
-28.1867
-28.0405
-27.7158
-27.2302
-26.6085
-25.8968
-25.1367
-24.3798
-23.6922
-23.0972
-22.5845
-22.1047
-21.5788
-20.9374
-20.1343
-19.1679
-18.0683
-16.9026
-15.7315
-14.5899
-13.5994
-12.814
-12.019
-11.6611
-11.8839
-12.38
-12.9742
-13.5288
-13.98
-14.2791
-14.3921
-14.2846
-13.9276
-13.2957
-12.3703
-11.1425
-9.61859
-7.81981
-5.78102
-3.54685
-1.16822
1.30129
3.80755
6.29623
8.7131
11.0072
13.1365
15.073
16.8025
18.3213
19.6317
20.7379
21.6449
22.3578
22.8823
23.2254
23.3959
23.4069
23.2718
23.0072
22.6307
22.1607
21.6155
21.0122
20.3664
19.692
19.0017
18.3068
17.6179
16.9448
16.2971
15.6838
15.1136
14.5948
14.1343
13.7379
13.4099
13.1526
12.9668
12.8513
12.8031
12.8172
12.8872
13.0045
13.1587
13.3377
13.5261
13.7066
13.8637
13.9724
14.0314
14.1129
14.2832
14.5152
14.7507
14.9631
15.1475
15.3051
15.4367
15.5438
15.6387
15.7436
15.8702
16.0126
16.1621
16.3165
16.4766
16.6425
16.81
16.975
17.1401
17.302
17.4854
17.6312
-8.6874
-8.79373
-9.01443
-9.33901
-9.68685
-10.0329
-10.4074
-10.855
-11.3941
-11.9941
-12.599
-13.1697
-13.6734
-14.0908
-14.4113
-14.6342
-14.7659
-14.8157
-14.8012
-14.745
-14.6469
-14.5096
-14.3558
-14.2096
-14.0786
-14.0147
-14.0235
-14.1252
-14.3575
-14.7275
-15.2351
-15.8546
-16.5534
-17.2506
-17.8811
-18.3927
-18.8537
-19.3391
-19.8519
-20.359
-20.7265
-20.8931
-20.8463
-20.8231
-21.0021
-21.2934
-21.6091
-22.039
-22.4559
-22.7791
-23.0695
-23.3296
-23.5548
-23.7825
-24.0706
-24.4165
-24.8351
-25.3227
-25.8788
-26.4701
-27.069
-27.6429
-28.1644
-28.6067
-28.9426
-29.1415
-29.1716
-29.0067
-28.6408
-28.0884
-27.3826
-26.5837
-25.7636
-24.9839
-24.2938
-23.7065
-23.2235
-22.8004
-22.3398
-21.7479
-20.9645
-19.9867
-18.8378
-17.5788
-16.3154
-15.2275
-14.4496
-13.9418
-13.6475
-13.5969
-13.7737
-14.082
-14.4581
-14.8227
-15.1258
-15.3145
-15.3484
-15.1856
-14.79
-14.1275
-13.1734
-11.9145
-10.3546
-8.51386
-6.42792
-4.14469
-1.71864
0.794952
3.34272
5.87199
8.3291
10.6613
12.823
14.7841
16.5306
18.0609
19.3798
20.4938
21.4088
22.1301
22.6634
23.0148
23.1941
23.2134
23.0863
22.829
22.4592
21.9956
21.4566
20.8592
20.2191
19.5502
18.8648
18.1745
17.4899
16.8208
16.1767
15.5667
14.9996
14.4835
14.0255
13.631
13.3044
13.0484
12.8635
12.7485
12.7006
12.715
12.7851
12.9026
13.0569
13.2361
13.4259
13.6114
13.7795
13.9164
14.0239
14.1434
14.3169
14.5363
14.7643
14.9735
15.1553
15.3103
15.441
15.5505
15.649
15.754
15.8757
16.0107
16.1536
16.3035
16.4621
16.6266
16.7935
16.9533
17.1108
17.2547
17.41
17.5186
-8.74592
-8.85232
-9.19264
-9.72159
-10.3976
-11.1536
-11.93
-12.7093
-13.4672
-14.169
-14.7858
-15.3051
-15.7159
-16.0161
-16.2145
-16.3299
-16.3813
-16.3838
-16.3598
-16.3107
-16.2479
-16.175
-16.0959
-16.0262
-15.9895
-15.9922
-16.0532
-16.1766
-16.3767
-16.6651
-17.0504
-17.5292
-18.081
-18.657
-19.2115
-19.734
-20.2832
-20.9115
-21.5761
-22.1558
-22.551
-22.7527
-22.7612
-22.7573
-22.9075
-23.2262
-23.6545
-24.1262
-24.5782
-24.973
-25.2883
-25.5289
-25.7111
-25.8855
-26.1172
-26.4052
-26.7441
-27.123
-27.5381
-27.9806
-28.4433
-28.9127
-29.3698
-29.7868
-30.1327
-30.3656
-30.4365
-30.3002
-29.9296
-29.3221
-28.5147
-27.6037
-26.6962
-25.8508
-25.1126
-24.5307
-24.0879
-23.698
-23.2572
-22.6705
-21.8658
-20.8538
-19.678
-18.4354
-17.2577
-16.3649
-15.8189
-15.5732
-15.4961
-15.5473
-15.6967
-15.9065
-16.15
-16.3829
-16.5686
-16.6622
-16.6236
-16.4089
-15.975
-15.2798
-14.2911
-12.9911
-11.3816
-9.48333
-7.33359
-4.98416
-2.4945
0.077143
2.67794
5.2586
7.76788
10.1515
12.3586
14.3547
16.1259
17.6729
19.0042
20.1292
21.0551
21.7878
22.3324
22.6954
22.8862
22.9167
22.8004
22.5534
22.1936
21.7396
21.21
20.6218
19.9904
19.3295
18.6517
17.9683
17.2899
16.6264
15.9872
15.3818
14.8189
14.3068
13.8525
13.4619
13.1393
12.887
12.7058
12.5946
12.5506
12.5689
12.6427
12.7633
12.9207
13.1036
13.2994
13.4951
13.6802
13.8466
13.994
14.1446
14.3291
14.5478
14.772
14.9763
15.1535
15.3048
15.4339
15.5449
15.6458
15.7502
15.8683
15.999
16.139
16.2873
16.4455
16.6097
16.7749
16.9297
17.0771
17.2051
17.3313
17.4091
-8.99571
-9.26371
-9.82329
-10.6303
-11.5494
-12.4969
-13.4253
-14.3003
-15.1061
-15.8263
-16.4531
-16.976
-17.3862
-17.6799
-17.8674
-17.9776
-18.0388
-18.0695
-18.0858
-18.0954
-18.101
-18.1032
-18.1144
-18.148
-18.2166
-18.3276
-18.4795
-18.6649
-18.874
-19.1006
-19.3454
-19.6137
-19.9127
-20.2468
-20.6196
-21.0485
-21.5697
-22.2003
-22.8693
-23.4689
-23.9113
-24.2034
-24.3826
-24.5391
-24.763
-25.1064
-25.5567
-26.0556
-26.5545
-27.0129
-27.3908
-27.6759
-27.8794
-28.0529
-28.2494
-28.4716
-28.7185
-28.9962
-29.3077
-29.6472
-30.0098
-30.3876
-30.768
-31.1309
-31.4491
-31.6794
-31.7618
-31.6336
-31.2543
-30.6133
-29.7525
-28.7762
-27.7951
-26.8778
-26.069
-25.4128
-24.9307
-24.525
-24.0707
-23.4507
-22.6089
-21.5717
-20.4259
-19.3038
-18.3477
-17.7107
-17.418
-17.3379
-17.3633
-17.4715
-17.6308
-17.8111
-17.9903
-18.1403
-18.2372
-18.2497
-18.1445
-17.8798
-17.4083
-16.6804
-15.6556
-14.3106
-12.6444
-10.6774
-8.44987
-6.01925
-3.45266
-0.813909
1.84426
4.47814
7.04255
9.48384
11.7453
13.7853
15.5883
17.1574
18.5051
19.6439
20.5836
21.3303
21.8879
22.2636
22.467
22.5099
22.4062
22.172
21.8252
21.3845
20.868
20.2926
19.673
19.023
18.3547
17.6799
17.0088
16.3518
15.7189
15.1196
14.5628
14.0567
13.6085
13.2241
12.9077
12.662
12.4878
12.3841
12.3481
12.3746
12.4568
12.586
12.7521
12.9443
13.151
13.3611
13.5659
13.7592
13.9394
14.1195
14.3209
14.5441
14.7667
14.9689
15.1451
15.2965
15.4264
15.5388
15.6411
15.7451
15.8601
15.9866
16.1229
16.269
16.4264
16.5902
16.7537
16.9038
17.0404
17.1542
17.2544
17.3096
-9.4232
-9.92276
-10.7719
-11.7295
-12.7506
-13.7721
-14.7463
-15.6559
-16.4987
-17.2754
-17.978
-18.591
-19.0996
-19.4962
-19.7895
-20.0032
-20.1596
-20.2737
-20.3621
-20.4392
-20.5121
-20.5884
-20.68
-20.798
-20.9526
-21.1464
-21.3715
-21.6115
-21.8447
-22.0515
-22.2214
-22.3581
-22.4839
-22.6354
-22.8482
-23.168
-23.6093
-24.173
-24.7942
-25.3882
-25.8845
-26.2657
-26.5615
-26.8213
-27.1024
-27.4575
-27.8965
-28.3914
-28.9014
-29.3815
-29.7935
-30.121
-30.3469
-30.4912
-30.6071
-30.7263
-30.8696
-31.0511
-31.2718
-31.524
-31.799
-32.0837
-32.3667
-32.6333
-32.8581
-33.0018
-33.0154
-32.8407
-32.4332
-31.7819
-30.9205
-29.9283
-28.8882
-27.8705
-26.9468
-26.178
-25.5801
-25.0663
-24.5178
-23.8259
-22.9515
-21.9617
-20.9524
-20.0451
-19.3702
-19.0186
-18.9497
-19.0157
-19.1557
-19.3493
-19.5574
-19.7531
-19.9121
-20.0141
-20.0454
-19.9891
-19.823
-19.5107
-19.0034
-18.2442
-17.1848
-15.7952
-14.0693
-12.0275
-9.71255
-7.18899
-4.5339
-1.82008
0.897368
3.58021
6.19269
8.68686
11.0029
13.0909
14.9307
16.5262
17.8931
19.0488
20.0055
20.7673
21.3388
21.7273
21.9432
21.999
21.9091
21.6898
21.359
20.9351
20.4354
19.876
19.2713
18.6343
17.9774
17.3115
16.6484
15.9987
15.3728
14.7801
14.23
13.7307
13.2898
12.9131
12.6051
12.3686
12.2048
12.1125
12.0889
12.1286
12.2247
12.3686
12.55
12.758
12.9815
13.2104
13.437
13.656
13.8658
14.0742
14.2941
14.5245
14.7489
14.9526
15.1305
15.2833
15.4141
15.5279
15.6319
15.736
15.8486
15.9717
16.1057
16.2509
16.408
16.5713
16.7319
16.8766
17.0024
17.1026
17.1811
17.2176
-10.5752
-11.1075
-11.9447
-12.8597
-13.8082
-14.7788
-15.7434
-16.6847
-17.5983
-18.478
-19.3055
-20.0594
-20.7222
-21.2825
-21.7439
-22.123
-22.4341
-22.6944
-22.9223
-23.1292
-23.3213
-23.5078
-23.7012
-23.9142
-24.1554
-24.4244
-24.7126
-25.0021
-25.2697
-25.491
-25.6485
-25.7397
-25.7857
-25.8402
-25.9629
-26.2192
-26.6094
-27.1162
-27.6954
-28.2824
-28.8107
-29.2506
-29.6084
-29.9142
-30.2124
-30.5431
-30.9266
-31.355
-31.7937
-32.2093
-32.5754
-32.8717
-33.0504
-33.1044
-33.0965
-33.0876
-33.1128
-33.1916
-33.3237
-33.4976
-33.6959
-33.897
-34.0834
-34.242
-34.3544
-34.389
-34.2992
-34.0359
-33.5669
-32.8869
-32.0195
-31.0127
-29.9229
-28.8091
-27.7437
-26.801
-26.0156
-25.3249
-24.6279
-23.8502
-22.9802
-22.0922
-21.2797
-20.6424
-20.2689
-20.1898
-20.3144
-20.5298
-20.8041
-21.1088
-21.4004
-21.6512
-21.8296
-21.9162
-21.9035
-21.7892
-21.5669
-21.2104
-20.6723
-19.8878
-18.797
-17.3626
-15.5774
-13.4604
-11.056
-8.43504
-5.68562
-2.89121
-0.112056
2.61606
5.2672
7.80296
10.1656
12.2979
14.1732
15.7949
17.1819
18.3566
19.3298
20.1062
20.6905
21.091
21.3188
21.3878
21.3129
21.1107
20.799
20.395
19.9152
19.3743
18.7859
18.1629
17.5171
16.861
16.2063
15.5641
14.9448
14.3585
13.8146
13.3219
12.8881
12.5198
12.2216
11.9969
11.8468
11.7701
11.7636
11.8223
11.9388
12.104
12.3077
12.5387
12.7861
13.0397
13.2921
13.5386
13.7777
14.0131
14.2517
14.492
14.7222
14.9309
15.1132
15.2699
15.4042
15.5212
15.6276
15.7319
15.8423
15.9628
16.0944
16.2377
16.3929
16.5541
16.7105
16.8486
16.9639
17.0513
17.1122
17.1334
-11.7314
-12.1699
-12.7977
-13.5769
-14.4602
-15.4014
-16.3647
-17.3363
-18.3204
-19.3075
-20.2716
-21.1877
-22.0344
-22.7975
-23.4745
-24.0712
-24.5972
-25.0685
-25.4987
-25.8938
-26.2592
-26.6039
-26.9394
-27.2764
-27.6206
-27.9715
-28.321
-28.655
-28.9546
-29.1986
-29.3693
-29.4631
-29.4998
-29.5389
-29.6547
-29.9025
-30.2819
-30.7773
-31.3538
-31.952
-32.5071
-32.9863
-33.3827
-33.7079
-33.9886
-34.2567
-34.5413
-34.8467
-35.1455
-35.4242
-35.6689
-35.847
-35.8954
-35.8014
-35.6354
-35.4835
-35.3912
-35.3726
-35.4174
-35.5144
-35.6436
-35.7733
-35.8809
-35.9503
-35.9624
-35.8925
-35.706
-35.3649
-34.8399
-34.1195
-33.2137
-32.1512
-30.975
-29.7393
-28.5133
-27.3737
-26.3683
-25.4668
-24.6038
-23.7425
-22.9075
-22.1579
-21.5645
-21.1951
-21.0933
-21.2371
-21.5159
-21.8626
-22.2651
-22.6848
-23.0801
-23.4163
-23.645
-23.7401
-23.6974
-23.531
-23.254
-22.8538
-22.2862
-21.4798
-20.3613
-18.887
-17.0496
-14.867
-12.3851
-9.67837
-6.84318
-3.97355
-1.13669
1.63134
4.31166
6.87761
9.27453
11.4392
13.3413
14.9836
16.39
17.5814
18.5688
19.3572
19.9522
20.3631
20.6026
20.6856
20.6277
20.4455
20.1558
19.7744
19.3162
18.7947
18.2229
17.6136
16.9791
16.3322
15.6851
15.0492
14.4355
13.8543
13.3156
12.8287
12.4015
12.0414
11.7537
11.5421
11.4079
11.3504
11.3662
11.45
11.5936
11.7875
12.0209
12.2827
12.5613
12.8466
13.1305
13.4084
13.6781
13.9407
14.1991
14.4521
14.6913
14.9074
15.0965
15.2591
15.3982
15.5187
15.6274
15.7321
15.8412
15.9594
16.0884
16.2292
16.3817
16.5393
16.69
16.8203
16.9251
17.0007
17.0474
17.0561
-12.3402
-12.6713
-13.2015
-13.9087
-14.7421
-15.6561
-16.6223
-17.6318
-18.6908
-19.785
-20.8841
-21.965
-23.0048
-23.9851
-24.8966
-25.7382
-26.5166
-27.2412
-27.9153
-28.5392
-29.117
-29.6564
-30.1657
-30.6509
-31.1151
-31.5577
-31.9734
-32.354
-32.6874
-32.9591
-33.1579
-33.2869
-33.3694
-33.4663
-33.6482
-33.9503
-34.3735
-34.9028
-35.5047
-36.1206
-36.6946
-37.1938
-37.6005
-37.912
-38.1386
-38.3038
-38.4484
-38.5869
-38.7001
-38.7913
-38.8526
-38.8414
-38.6972
-38.4221
-38.0969
-37.8121
-37.611
-37.5021
-37.4674
-37.4931
-37.5573
-37.6295
-37.6824
-37.6964
-37.6488
-37.5133
-37.2581
-36.8501
-36.263
-35.4818
-34.5078
-33.3594
-32.0737
-30.7031
-29.3142
-27.9836
-26.7691
-25.6742
-24.6715
-23.7554
-22.9655
-22.3506
-21.9556
-21.8123
-21.9207
-22.2183
-22.5993
-23.0398
-23.5441
-24.0657
-24.5677
-25.0017
-25.2926
-25.403
-25.332
-25.1141
-24.7851
-24.344
-23.7486
-22.9222
-21.7782
-20.2664
-18.3812
-16.1431
-13.6005
-10.8286
-7.92998
-5.0057
-2.12759
0.668624
3.3669
5.95114
8.36534
10.544
12.4595
14.1154
15.5354
16.739
17.7364
18.5331
19.1358
19.5558
19.8072
19.9056
19.867
19.7073
19.4414
19.0833
18.6463
18.143
17.5863
16.9891
16.3646
15.7255
15.0841
14.4524
13.8419
13.2638
12.7284
12.2454
11.8237
11.4709
11.1934
10.9955
10.8791
10.8438
10.8865
11.0008
11.1783
11.4091
11.6812
11.9825
12.3012
12.6263
12.9492
13.2641
13.568
13.8601
14.1414
14.4104
14.6612
14.8871
15.085
15.2552
15.4006
15.5259
15.6376
15.7435
15.8517
15.9678
16.0938
16.231
16.3787
16.5302
16.6729
16.7939
16.888
16.9526
16.9874
16.9859
-12.5662
-12.8392
-13.3079
-13.9661
-14.7704
-15.6816
-16.6679
-17.7205
-18.8451
-20.0311
-21.2547
-22.495
-23.728
-24.9297
-26.0836
-27.1824
-28.2259
-29.2129
-30.1389
-31.0006
-31.8022
-32.5493
-33.2457
-33.8938
-34.4956
-35.0523
-35.5628
-36.024
-36.4291
-36.7706
-37.0455
-37.2646
-37.4589
-37.6796
-37.9799
-38.3806
-38.8814
-39.4672
-40.1036
-40.7358
-41.3155
-41.8071
-42.187
-42.444
-42.5784
-42.6103
-42.5895
-42.5229
-42.4008
-42.2461
-42.0614
-41.7973
-41.407
-40.9172
-40.4229
-40.0073
-39.6969
-39.4965
-39.3919
-39.3618
-39.3793
-39.4156
-39.4413
-39.4297
-39.3523
-39.1775
-38.8715
-38.4035
-37.7491
-36.894
-35.8375
-34.5953
-33.2025
-31.7121
-30.1884
-28.704
-27.3227
-26.0778
-24.9776
-24.0392
-23.2971
-22.7902
-22.5435
-22.5619
-22.8108
-23.1967
-23.6315
-24.1265
-24.6995
-25.2967
-25.8866
-26.4036
-26.7417
-26.8535
-26.7443
-26.4684
-26.0844
-25.6029
-24.9825
-24.1392
-22.9749
-21.4319
-19.5061
-17.2208
-14.6303
-11.8144
-8.88094
-5.93214
-3.03854
-0.231146
2.47215
5.05469
7.46427
9.63913
11.5535
13.2127
14.6382
15.8472
16.8487
17.6488
18.2565
18.6845
18.9482
19.0636
19.046
18.9096
18.667
18.3305
17.9119
17.4238
16.8792
16.2912
15.6732
15.0384
14.3993
13.7683
13.1578
12.5798
12.0452
11.5648
11.1478
10.8024
10.5355
10.3522
10.2554
10.2449
10.3176
10.4676
10.6857
10.9606
11.2795
11.6293
11.9972
12.3713
12.7416
13.1011
13.4454
13.7725
14.0817
14.3712
14.637
14.8749
15.083
15.2619
15.4141
15.5445
15.6595
15.7666
15.8741
15.9876
16.1098
16.2419
16.3832
16.5269
16.6599
16.7705
16.8537
16.9079
16.9325
16.9224
-12.5817
-12.8247
-13.282
-13.9378
-14.7527
-15.6912
-16.7254
-17.8455
-19.0536
-20.3427
-21.6954
-23.0911
-24.5049
-25.9099
-27.2849
-28.6168
-29.8963
-31.1133
-32.2588
-33.3318
-34.3378
-35.2811
-36.1636
-36.9853
-37.7457
-38.4449
-39.0833
-39.6611
-40.1761
-40.627
-41.0172
-41.3595
-41.6851
-42.0367
-42.4527
-42.9467
-43.5189
-44.1545
-44.8191
-45.4637
-46.0423
-46.5162
-46.8577
-47.0492
-47.0849
-46.9821
-46.7931
-46.513
-46.1467
-45.73
-45.2655
-44.7146
-44.0574
-43.3367
-42.6526
-42.086
-41.6536
-41.354
-41.1773
-41.0982
-41.0803
-41.0928
-41.1044
-41.0797
-40.9826
-40.7746
-40.4195
-39.8891
-39.1629
-38.232
-37.0984
-35.7773
-34.3033
-32.7301
-31.1217
-29.5444
-28.0592
-26.72
-25.5661
-24.6303
-23.9388
-23.515
-23.3677
-23.4832
-23.8058
-24.2272
-24.6761
-25.1935
-25.8042
-26.4438
-27.0813
-27.6347
-27.9756
-28.0553
-27.8851
-27.5391
-27.0945
-26.573
-25.93
-25.0724
-23.8927
-22.3241
-20.3605
-18.0352
-15.4149
-12.5851
-9.65333
-6.71388
-3.83218
-1.03733
1.65204
4.21326
6.59693
8.74856
10.6462
12.2964
13.7175
14.9233
15.9218
16.7206
17.3305
17.7657
18.0423
18.1754
18.1787
18.0636
17.8409
17.5213
17.1164
16.6386
16.1011
15.5171
14.9002
14.264
13.6217
12.987
12.3733
11.7925
11.2573
10.7784
10.3663
10.0294
9.77502
9.60902
9.53472
9.55251
9.65957
9.84968
10.1137
10.4388
10.8111
11.2164
11.6409
12.072
12.4981
12.9105
13.3035
13.6732
14.0174
14.3337
14.6195
14.873
15.0935
15.2823
15.4422
15.5781
15.6964
15.8045
15.9108
16.0213
16.1387
16.2645
16.3978
16.5313
16.6529
16.752
16.8243
16.8685
16.8839
16.8663
-12.597
-12.8393
-13.3135
-14.0073
-14.8886
-15.9216
-17.0715
-18.3169
-19.651
-21.0653
-22.5467
-24.0756
-25.628
-27.1786
-28.706
-30.1942
-31.6288
-32.9985
-34.2998
-35.5369
-36.7142
-37.8324
-38.889
-39.8783
-40.7941
-41.6322
-42.3912
-43.0733
-43.6819
-44.2243
-44.7121
-45.1626
-45.6049
-46.0712
-46.5842
-47.1511
-47.7721
-48.4345
-49.1073
-49.7467
-50.3072
-50.747
-51.0342
-51.1476
-51.08
-50.8387
-50.4569
-49.9424
-49.3259
-48.6677
-47.9736
-47.2063
-46.3577
-45.4741
-44.642
-43.9434
-43.4062
-43.0219
-42.7775
-42.6547
-42.6102
-42.6039
-42.6
-42.5561
-42.4293
-42.1768
-41.7624
-41.1624
-40.362
-39.3583
-38.161
-36.7881
-35.2725
-33.6675
-32.0351
-30.4359
-28.9234
-27.5587
-26.4017
-25.4958
-24.8568
-24.4901
-24.3961
-24.5524
-24.8969
-25.3205
-25.7642
-26.283
-26.8959
-27.5408
-28.171
-28.6927
-28.979
-28.9829
-28.7268
-28.3008
-27.792
-27.2249
-26.5484
-25.662
-24.4542
-22.8578
-20.8676
-18.5257
-15.9094
-13.1057
-10.2166
-7.32469
-4.48492
-1.72667
0.927455
3.44658
5.78301
7.89174
9.75678
11.385
12.7906
13.984
14.9726
15.7655
16.3753
16.817
17.1057
17.2549
17.2754
17.1765
16.9672
16.6576
16.2595
15.7852
15.2475
14.66
14.0368
13.3925
12.7422
12.1004
11.4807
10.8969
10.361
9.88472
9.47843
9.15135
8.91156
8.76555
8.71726
8.76759
8.914
9.14983
9.46501
9.84607
10.2779
10.7449
11.2321
11.7254
12.213
12.6847
13.1331
13.5528
13.9397
14.2903
14.6026
14.8766
15.1134
15.3148
15.484
15.6262
15.7479
15.857
15.9617
16.0684
16.1801
16.2984
16.4217
16.5433
16.6519
16.7386
16.8
16.8347
16.8415
16.8171
-12.7074
-12.972
-13.5094
-14.3077
-15.3324
-16.5353
-17.8664
-19.2879
-20.7779
-22.3242
-23.9144
-25.5313
-27.1543
-28.7627
-30.341
-31.8794
-33.3688
-34.8036
-36.1861
-37.522
-38.8131
-40.0538
-41.2341
-42.3399
-43.3587
-44.2835
-45.1151
-45.8617
-46.5352
-47.15
-47.7215
-48.2666
-48.8061
-49.3594
-49.9386
-50.5504
-51.1979
-51.8704
-52.5383
-53.1579
-53.6817
-54.0674
-54.2805
-54.2992
-54.1245
-53.747
-53.1696
-52.4262
-51.5825
-50.7084
-49.8334
-48.9315
-47.9944
-47.0484
-46.1585
-45.3965
-44.8082
-44.3846
-44.0994
-43.941
-43.8733
-43.8513
-43.8286
-43.7557
-43.5837
-43.2717
-42.7895
-42.1181
-41.2475
-40.181
-38.94
-37.5438
-36.0246
-34.4355
-32.8364
-31.281
-29.8148
-28.5072
-27.411
-26.5571
-25.9647
-25.6337
-25.5569
-25.7096
-26.0382
-26.4423
-26.8752
-27.3718
-27.9484
-28.5515
-29.1151
-29.5441
-29.7281
-29.6263
-29.2741
-28.7681
-28.1908
-27.5601
-26.822
-25.8771
-24.6217
-22.9968
-21.0016
-18.678
-16.1075
-13.3744
-10.5669
-7.75438
-4.98298
-2.28393
0.312417
2.76724
5.03531
7.08299
8.90071
10.4945
11.8737
13.0456
14.0177
14.8005
15.4075
15.8532
16.1508
16.311
16.3418
16.2508
16.0462
15.7382
15.3381
14.8581
14.3111
13.7116
13.0754
12.419
11.7581
11.108
10.4833
9.89755
9.36245
8.88939
8.48957
8.17316
7.9492
7.82506
7.80542
7.89123
8.08062
8.36724
8.7395
9.18329
9.68179
10.2176
10.7736
11.3348
11.888
12.4228
12.9307
13.4054
13.8412
14.233
14.5785
14.8784
15.1357
15.3532
15.5342
15.6844
15.8107
15.9211
16.0243
16.1269
16.2322
16.3416
16.4534
16.5613
16.6559
16.7302
16.7809
16.8064
16.8052
16.7744
-12.8875
-13.202
-13.8445
-14.7967
-16.0121
-17.4188
-18.9436
-20.5322
-22.1501
-23.7804
-25.4121
-27.0375
-28.6471
-30.2334
-31.7939
-33.329
-34.8331
-36.2929
-37.7006
-39.0573
-40.3645
-41.6202
-42.8187
-43.9483
-44.9974
-45.9588
-46.8318
-47.6231
-48.3435
-49.0059
-49.6252
-50.2179
-50.8015
-51.3905
-51.9965
-52.628
-53.286
-53.9573
-54.6108
-55.203
-55.6878
-56.0238
-56.1788
-56.127
-55.8745
-55.4099
-54.7152
-53.8233
-52.8327
-51.8126
-50.8195
-49.8488
-48.892
-47.9645
-47.1046
-46.3611
-45.7859
-45.3688
-45.0758
-44.8903
-44.7905
-44.7398
-44.6855
-44.5725
-44.3478
-43.9732
-43.4255
-42.6901
-41.7598
-40.6469
-39.3872
-38.0051
-36.525
-34.9926
-33.4693
-32.0098
-30.6504
-29.4436
-28.4419
-27.6826
-27.1581
-26.8561
-26.7661
-26.8754
-27.153
-27.5226
-27.9289
-28.3783
-28.8829
-29.3964
-29.8445
-30.1393
-30.1942
-29.9818
-29.544
-28.9691
-28.3235
-27.6128
-26.7835
-25.7492
-24.4286
-22.7803
-20.8043
-18.537
-16.0493
-13.4191
-10.7189
-8.00567
-5.32112
-2.70161
-0.186419
2.18088
4.36127
6.33275
8.09062
9.63849
10.981
12.1229
13.0722
13.8403
14.4405
14.8855
15.1856
15.3485
15.3802
15.2873
15.0777
14.7613
14.3488
13.8527
13.2875
12.6699
12.0176
11.3478
10.6771
10.0212
9.39411
8.80804
8.27516
7.80627
7.41362
7.10854
6.90114
6.79926
6.80889
6.93276
7.1679
7.50736
7.94036
8.45159
9.0229
9.63447
10.267
10.9028
11.5273
12.1292
12.6996
13.2317
13.7195
14.1573
14.5415
14.8727
15.1546
15.3911
15.5865
15.7468
15.8791
15.9919
16.0941
16.1925
16.291
16.3907
16.49
16.5836
16.6642
16.7262
16.7665
16.7833
16.7746
16.7378
-12.9037
-13.2764
-14.0329
-15.136
-16.5249
-18.1048
-19.7855
-21.4948
-23.1932
-24.8658
-26.514
-28.1444
-29.7529
-31.3268
-32.8582
-34.3479
-35.7997
-37.2015
-38.5416
-39.8196
-41.0399
-42.21
-43.3358
-44.4116
-45.4258
-46.3661
-47.2256
-48.0046
-48.7132
-49.3662
-49.9825
-50.5806
-51.1761
-51.7797
-52.4024
-53.0506
-53.7182
-54.3882
-55.0302
-55.6037
-56.0655
-56.3743
-56.5023
-56.4282
-56.1495
-55.6678
-54.9594
-54.0431
-53.0113
-51.9535
-50.9373
-49.9739
-49.0575
-48.1962
-47.4167
-46.7541
-46.2406
-45.875
-45.6213
-45.4408
-45.3126
-45.217
-45.1135
-44.9465
-44.665
-44.2347
-43.6374
-42.8629
-41.9088
-40.7884
-39.5489
-38.2118
-36.7938
-35.3388
-33.9125
-32.5708
-31.3444
-30.2809
-29.4178
-28.7637
-28.3071
-28.0303
-27.9161
-27.9613
-28.1651
-28.4771
-28.8316
-29.2048
-29.6031
-29.9885
-30.2903
-30.434
-30.3592
-30.0525
-29.5514
-28.922
-28.2089
-27.4095
-26.4769
-25.3475
-23.965
-22.3017
-20.3604
-18.1694
-15.7852
-13.272
-10.6884
-8.08321
-5.49936
-2.98028
-0.571219
1.6862
3.76337
5.64758
7.33575
8.82762
10.1237
11.2276
12.1478
12.8959
13.4835
13.9208
14.2147
14.3705
14.3928
14.2876
14.0624
13.7263
13.2905
12.7694
12.1802
11.5424
10.8752
10.1956
9.52011
8.8636
8.23783
7.65445
7.12534
6.66216
6.27789
5.98442
5.79264
5.71321
5.75227
5.91222
6.1926
6.58555
7.08014
7.6608
8.30788
8.99914
9.71355
10.4309
11.1337
11.8086
12.4456
13.0375
13.5788
14.0642
14.4901
14.8564
15.1666
15.425
15.6368
15.8087
15.9485
16.0648
16.1666
16.2612
16.3527
16.4424
16.529
16.6086
16.6759
16.7263
16.7569
16.7653
16.7495
16.707
-12.3506
-12.792
-13.6522
-14.8824
-16.4191
-18.1505
-19.9772
-21.8165
-23.6241
-25.385
-27.0996
-28.7695
-30.3811
-31.9051
-33.3239
-34.6461
-35.901
-37.1054
-38.2622
-39.3719
-40.4367
-41.4641
-42.4612
-43.4239
-44.3405
-45.1976
-45.9875
-46.7105
-47.3772
-48.0072
-48.619
-49.2269
-49.8402
-50.4672
-51.1178
-51.7927
-52.4795
-53.1606
-53.8079
-54.3858
-54.8546
-55.1736
-55.3147
-55.2642
-55.0171
-54.5833
-53.9476
-53.1229
-52.1649
-51.1755
-50.2252
-49.3548
-48.5442
-47.7905
-47.1151
-46.552
-46.1237
-45.8249
-45.6249
-45.4807
-45.3592
-45.2386
-45.09
-44.873
-44.5445
-44.0771
-43.4579
-42.6814
-41.7458
-40.6617
-39.4686
-38.1941
-36.8524
-35.4862
-34.1747
-32.9713
-31.8948
-30.9814
-30.2497
-29.7051
-29.3245
-29.0759
-28.9415
-28.9198
-29.032
-29.2566
-29.5228
-29.787
-30.0464
-30.2729
-30.4093
-30.3986
-30.2043
-29.8185
-29.2685
-28.5945
-27.8192
-26.9361
-25.9121
-24.7047
-23.2781
-21.6154
-19.7186
-17.6122
-15.3374
-12.9433
-10.4788
-7.99112
-5.52783
-3.13672
-0.861102
1.26716
3.23014
5.01929
6.62912
8.05483
9.29456
10.3523
11.2368
11.9586
12.5266
12.9476
13.2258
13.3642
13.3667
13.2381
12.9854
12.6182
12.1503
11.5993
10.9862
10.332
9.65586
8.97442
8.30273
7.65242
7.03468
6.45967
5.93841
5.48378
5.10936
4.82748
4.65188
4.59167
4.6562
4.84937
5.17116
5.61574
6.17037
6.81919
7.54184
8.31486
9.11487
9.91859
10.7061
11.461
12.171
12.8275
13.4248
13.9589
14.4274
14.8305
15.1713
15.4535
15.6831
15.8677
16.0158
16.1364
16.2386
16.3298
16.4144
16.4942
16.5687
16.6354
16.6905
16.7302
16.7515
16.752
16.7295
16.6816
-10.9185
-11.461
-12.4356
-13.7957
-15.4769
-17.368