/*--------------------------------*- C++ -*----------------------------------*\
  =========                 |
  \\      /  F ield         | OpenFOAM: The Open Source CFD Toolbox
   \\    /   O peration     | Website:  https://openfoam.org
    \\  /    A nd           | Version:  9
     \\/     M anipulation  |
\*---------------------------------------------------------------------------*/
FoamFile
{
    format      ascii;
    class       volScalarField;
    location    "0.062";
    object      s;
}
// * * * * * * * * * * * * * * * * * * * * * * * * * * * * * * * * * * * * * //

dimensions      [0 0 0 0 0 0 0];

internalField   nonuniform List<scalar> 
12225
(
1
1
1
1
1
1
1
1
1
1
1
1
1
1
1
1
1
0.99999
1
1
1
1
1
1
1
1
1
1
1
1
1
1
1
1
1
1
1
1
1
1
1
1
1
1
1
1
1
1
1
1
1
1
1
1
1
1
1
1
1
1
1
1
1
1
1
1
1
1
1
1
1
1
1
1
1
1
1
1
1
1
1
1
1
1
1
1
1
1
1
1
1
1
1
1
1
1
1
1
1
1
1
1
1
1
1
1
1
1
1
1
1
1
1
1
1
1
1
1
1
1
1
1
1
1
1
1
1
1
1
1
1
1
1
1
1
1
1
1
1
1
1
1
1
1
1
1
1
1
1
1
1
1
1
1
1
1
1
1
1
1
1
1
1
1
1
1
1
1
1
1
1
1
1
1
1
1
1
1
1
1
1
1
1
1
1
1
1
1
1
1
1
1
1
1
1
1
1
1
1
1
1
1
1
1
1
1
1
1
1
1
1
1
1
1
1
1
1
1
1
1
1
1
1
1
1
1
1
1
1
1
1
1
1
1
1
1
1
1
1
1
1
1
1
1
1
1
1
1
1
1
1
1
1
1
1
1
1
1
1
1
1
1
1
1
1
1
1
1
1
1
1
1
1
1
1
1
1
1
1
1
1
1
1
1
1
1
1
1
1
1
1
1
1
1
1
1
1
1
1
1
1
1
1
1
1
1
1
1
1
1
1
1
1
1
1
1
1
1
1
1
1
1
1
1
1
1
1
1
1
1
1
1
1
1
1
1
1
1
1
1
1
1
1
1
1
1
1
1
1
1
1
1
1
1
1
1
1
1
1
1
1
1
1
1
1
1
1
1
1
1
1
1
1
1
1
1
1
1
1
1
1
1
1
1
1
1
1
1
1
1
1
1
1
1
1
1
1
1
1
1
1
1
1
1
1
1
1
1
1
1
1
1
1
1
1
1
1
1
1
1
1
1
1
1
1
1
1
1
1
1
1
1
1
1
1
1
1
1
1
1
1
1
1
1
1
1
1
1
1
1
1
1
1
1
1
1
1
1
1
1
1
1
1
1
1
1
1
1
1
1
1
1
1
1
1
1
1
1
1
1
1
1
1
1
1
1
1
1
1
1
1
1
1
1
1
1
1
1
1
1
1
1
1
1
1
1
1
1
1
1
1
1
1
1
1
1
1
1
1
1
1
1
1
1
1
1
1
1
1
1
1
1
1
1
1
1
1
1
1
1
0.641216
0.633841
0.635397
0.6408
0.646523
0.646098
0.643883
0.639356
0.633894
0.628565
0.622956
0.617202
0.612015
0.608779
0.608073
0.609712
0.621169
0.630508
0.632886
0.635882
0.636665
0.635833
0.63059
0.622408
0.617266
0.607596
0.600368
0.600036
0.610485
0.667718
0.709212
0.705762
0.680835
0.65616
0.643422
0.642697
0.646425
0.655903
0.669507
0.68389
0.6965
0.706966
0.715856
0.723288
0.72869
0.730802
0.731366
0.731387
0.73083
0.72866
0.723577
0.715131
0.703745
0.689373
0.67155
0.649846
0.635735
0.632552
0.632263
0.633701
0.637707
0.642321
0.646276
0.649846
0.65396
0.659517
0.666777
0.675502
0.68659
0.699723
0.712805
0.725569
0.737481
0.744117
0.750835
0.754102
0.752727
0.747721
0.736828
0.718256
0.701741
0.697876
0.705751
0.749172
0.822404
0.841294
0.834481
0.788738
0.786922
0.78746
0.787662
0.78784
0.787987
0.788276
0.78866
0.789052
0.789236
0.789323
0.789391
0.790493
0.791719
0.793774
0.795986
0.798678
0.801809
0.804844
0.807948
0.810634
0.813104
0.815668
0.818278
0.821436
0.824392
0.827189
0.829898
0.831934
0.834195
0.836692
0.838996
0.840883
0.842503
0.843309
0.843465
0.843606
0.843461
0.843403
0.843486
0.843736
0.844233
0.845063
0.846236
0.847734
0.849476
0.851239
0.853024
0.854692
0.855694
0.85597
0.855926
0.855701
0.855037
0.853963
0.853011
0.852096
0.851442
0.850786
0.850215
0.849533
0.848219
0.846718
0.845316
0.844038
0.841919
0.838161
0.834695
0.834244
0.844228
0.894799
0.920259
0.924626
0.92623
0.928281
0.929835
0.930613
0.930465
0.926131
0.899867
0.875901
0.874262
0.877692
0.880054
0.880697
0.879371
0.87425
0.859122
0.814974
0.679525
0.467101
0.335967
0.212375
0.643543
0.645049
0.658383
0.675398
0.672715
0.665004
0.652536
0.642271
0.630423
0.619159
0.614191
0.612541
0.608227
0.597718
0.594056
0.594632
0.599019
0.613221
0.625283
0.630293
0.630485
0.629888
0.627791
0.61814
0.607481
0.607777
0.619848
0.652117
0.680314
0.702585
0.702925
0.683414
0.66193
0.652035
0.65021
0.660152
0.683729
0.720369
0.765982
0.786168
0.796778
0.806307
0.810999
0.812883
0.813386
0.812894
0.809628
0.805297
0.802358
0.798651
0.793595
0.788943
0.783438
0.777467
0.770524
0.763072
0.755727
0.749244
0.743731
0.738184
0.730917
0.726139
0.72619
0.730203
0.739011
0.752478
0.768988
0.78554
0.79797
0.804158
0.806221
0.806117
0.803612
0.802783
0.803203
0.803796
0.805477
0.809444
0.807408
0.796192
0.76481
0.725737
0.715558
0.73046
0.789399
0.813361
0.795093
0.781032
0.775599
0.763387
0.748918
0.741406
0.733573
0.729794
0.727071
0.725945
0.725631
0.726545
0.728542
0.729609
0.732036
0.733523
0.73626
0.738074
0.74108
0.744111
0.748601
0.75352
0.759149
0.765773
0.773435
0.782308
0.791246
0.801396
0.811604
0.821022
0.829103
0.837434
0.844452
0.851929
0.858668
0.865364
0.871537
0.87634
0.878833
0.878984
0.878383
0.877762
0.877792
0.878877
0.881878
0.886018
0.890916
0.895996
0.900674
0.904254
0.906437
0.907281
0.90735
0.907142
0.906302
0.904552
0.902605
0.900542
0.898894
0.897857
0.897175
0.896593
0.895789
0.893663
0.891233
0.888298
0.880173
0.872603
0.860107
0.844771
0.844195
0.853037
0.868903
0.877125
0.890525
0.903205
0.912247
0.920129
0.926145
0.927797
0.925194
0.912056
0.907411
0.910344
0.918824
0.923608
0.926177
0.92769
0.928499
0.928631
0.927959
0.925646
0.913246
0.868855
0.653865
0.674389
0.69753
0.691383
0.676586
0.646623
0.612
0.586539
0.571343
0.558414
0.550839
0.550645
0.552521
0.555337
0.558094
0.561833
0.566241
0.575621
0.601457
0.616317
0.621263
0.628289
0.649185
0.687497
0.689447
0.684725
0.690018
0.695941
0.697175
0.69527
0.681584
0.670803
0.666247
0.668152
0.697131
0.753526
0.798252
0.817487
0.825042
0.827408
0.82787
0.827184
0.824137
0.822164
0.820977
0.817777
0.813367
0.810087
0.80733
0.803859
0.800692
0.798431
0.79752
0.797492
0.798036
0.799426
0.801885
0.805691
0.810999
0.817647
0.825516
0.834281
0.842134
0.84508
0.845545
0.844783
0.842144
0.837569
0.831802
0.825177
0.818145
0.809435
0.799671
0.794086
0.79173
0.794435
0.801773
0.810111
0.817042
0.816312
0.807414
0.782731
0.741825
0.744989
0.802064
0.801204
0.771545
0.75483
0.732284
0.719283
0.714321
0.712344
0.711833
0.712559
0.713937
0.715417
0.717589
0.718888
0.721021
0.722876
0.725575
0.72775
0.729193
0.729877
0.730112
0.729798
0.730276
0.731442
0.732722
0.734408
0.737135
0.740173
0.74448
0.750344
0.758022
0.768287
0.781702
0.798187
0.814853
0.831863
0.847691
0.861876
0.87399
0.884357
0.893106
0.899749
0.904017
0.906502
0.908163
0.909792
0.911944
0.914666
0.917578
0.920266
0.922429
0.923992
0.925001
0.925551
0.925735
0.925732
0.925599
0.925156
0.924918
0.924919
0.92518
0.926657
0.927941
0.92985
0.932595
0.933394
0.933144
0.932175
0.929523
0.922514
0.913716
0.892547
0.861956
0.856198
0.856486
0.856588
0.856315
0.856512
0.861846
0.882821
0.904881
0.919618
0.924634
0.924508
0.923108
0.92315
0.924263
0.926091
0.92739
0.928256
0.929271
0.930797
0.932468
0.934925
0.940778
0.94302
0.713824
0.723912
0.714524
0.687029
0.623775
0.566197
0.543335
0.53063
0.522458
0.515735
0.512396
0.512595
0.514299
0.519424
0.524971
0.529966
0.541239
0.573681
0.599902
0.612542
0.643694
0.709053
0.722662
0.714119
0.703591
0.700125
0.697834
0.69626
0.692571
0.686607
0.682736
0.681696
0.700148
0.749316
0.79588
0.819994
0.831491
0.836617
0.83896
0.841118
0.842471
0.843576
0.844142
0.845234
0.847211
0.848617
0.849756
0.851847
0.853753
0.856097
0.85899
0.86204
0.864622
0.867305
0.870478
0.874546
0.879487
0.88517
0.888852
0.8899
0.89014
0.889584
0.88711
0.883056
0.877528
0.870503
0.862794
0.854479
0.846282
0.836949
0.82604
0.811088
0.795554
0.788423
0.786435
0.792822
0.812632
0.827143
0.826452
0.823934
0.818694
0.804843
0.76709
0.768118
0.796648
0.774809
0.736346
0.721352
0.712517
0.709935
0.709698
0.710988
0.711442
0.711961
0.712074
0.711934
0.711232
0.710827
0.712295
0.71807
0.723409
0.731241
0.738214
0.742892
0.747032
0.748944
0.749522
0.747448
0.743746
0.741367
0.739975
0.739414
0.74079
0.743101
0.746469
0.75152
0.758704
0.768925
0.784084
0.801535
0.82136
0.842151
0.862181
0.879242
0.893021
0.903496
0.910798
0.915515
0.918462
0.920533
0.922353
0.924135
0.925743
0.927056
0.928048
0.928711
0.929189
0.929559
0.929891
0.930164
0.930466
0.930962
0.931645
0.932692
0.934728
0.939696
0.946174
0.95115
0.955798
0.960768
0.963676
0.964027
0.963507
0.961402
0.956086
0.946305
0.920844
0.882347
0.866398
0.860505
0.856795
0.854045
0.85393
0.856976
0.872666
0.899485
0.917065
0.922936
0.92387
0.923768
0.923207
0.92137
0.917625
0.915388
0.916095
0.920933
0.926774
0.93087
0.93286
0.936534
0.755318
0.745763
0.715591
0.627875
0.560164
0.534289
0.525646
0.515745
0.507729
0.503107
0.501932
0.502278
0.503645
0.507298
0.515598
0.529154
0.555794
0.587982
0.611903
0.676374
0.725603
0.72508
0.71441
0.706453
0.702277
0.700098
0.697748
0.695729
0.694063
0.693812
0.703794
0.73358
0.77471
0.804581
0.826246
0.837568
0.84846
0.855386
0.863277
0.873743
0.883625
0.894289
0.902711
0.910255
0.915803
0.920536
0.923865
0.926013
0.927691
0.928973
0.930073
0.931296
0.932631
0.93357
0.934424
0.934798
0.934869
0.934771
0.934401
0.933155
0.932351
0.930657
0.928195
0.924721
0.919801
0.912954
0.905594
0.897077
0.887967
0.874623
0.855314
0.827701
0.798725
0.788344
0.786751
0.803846
0.838692
0.848482
0.845661
0.837023
0.826649
0.811822
0.779502
0.777968
0.783027
0.736476
0.716498
0.709423
0.707093
0.706731
0.706705
0.705084
0.6972
0.681697
0.657486
0.630149
0.616504
0.611598
0.61201
0.628638
0.647667
0.671782
0.703007
0.726053
0.745137
0.753603
0.758411
0.762006
0.764313
0.765012
0.764148
0.761919
0.759406
0.757629
0.756709
0.75645
0.759905
0.767411
0.781071
0.797632
0.817046
0.838416
0.859814
0.87822
0.894012
0.906085
0.914595
0.92018
0.923588
0.925721
0.927177
0.928235
0.929025
0.929605
0.930066
0.930394
0.930704
0.931011
0.931444
0.932018
0.932664
0.93368
0.935754
0.939829
0.944965
0.950833
0.957426
0.963556
0.968475
0.972787
0.9763
0.977954
0.978066
0.977634
0.976047
0.972134
0.962922
0.94092
0.905371
0.881989
0.868164
0.859134
0.855415
0.855441
0.858971
0.876818
0.903034
0.917593
0.921753
0.921566
0.91651
0.907136
0.901583
0.89821
0.898336
0.905655
0.918959
0.928839
0.933181
0.935106
0.790684
0.759293
0.702347
0.599594
0.540859
0.526014
0.519967
0.508199
0.501029
0.498976
0.498821
0.500797
0.505335
0.512799
0.528659
0.557727
0.591868
0.637011
0.707637
0.730354
0.722524
0.712973
0.707617
0.705056
0.703027
0.701982
0.701487
0.703344
0.710243
0.728146
0.760072
0.789659
0.815579
0.836516
0.85497
0.868851
0.884893
0.898288
0.914241
0.925539
0.933558
0.941338
0.945161
0.949299
0.951328
0.95364
0.954804
0.956199
0.957063
0.958226
0.959285
0.960546
0.961818
0.963023
0.964132
0.96542
0.966626
0.967887
0.969082
0.97008
0.971108
0.972043
0.972764
0.973194
0.973175
0.971321
0.967029
0.958454
0.942948
0.922552
0.897003
0.861593
0.81241
0.791376
0.78968
0.811331
0.84585
0.852491
0.851482
0.839796
0.827547
0.81
0.780255
0.774354
0.756397
0.717147
0.707114
0.704379
0.703612
0.702705
0.696512
0.676983
0.629472
0.559966
0.530479
0.518202
0.515097
0.517909
0.531826
0.545857
0.563522
0.586922
0.616169
0.653586
0.700056
0.73534
0.75279
0.761945
0.767736
0.771542
0.773329
0.774067
0.77439
0.774499
0.775105
0.776138
0.77733
0.781157
0.793429
0.810881
0.830058
0.851621
0.872076
0.88901
0.900943
0.9104
0.917798
0.923091
0.926501
0.928509
0.929616
0.930199
0.930542
0.930802
0.931034
0.931302
0.931815
0.932413
0.933303
0.934803
0.936626
0.940062
0.945804
0.952835
0.960004
0.966447
0.971875
0.976202
0.979416
0.981855
0.983614
0.984382
0.984435
0.984287
0.983731
0.982273
0.97876
0.969337
0.950895
0.935995
0.907312
0.880036
0.864031
0.858219
0.858569
0.864673
0.888834
0.908613
0.914625
0.91319
0.905384
0.899238
0.888538
0.877002
0.873711
0.881385
0.908307
0.926819
0.936373
0.938755
0.804099
0.765996
0.697361
0.589927
0.533475
0.523933
0.518069
0.505626
0.499669
0.500018
0.503383
0.510092
0.522825
0.545689
0.581981
0.62337
0.688221
0.72344
0.731462
0.721692
0.714623
0.711643
0.709957
0.709837
0.711215
0.714369
0.721247
0.736246
0.759767
0.787402
0.810751
0.835654
0.858251
0.879159
0.898438
0.913843
0.928066
0.939818
0.948472
0.953398
0.956514
0.958772
0.95983
0.960983
0.961646
0.962598
0.963315
0.96416
0.964828
0.965357
0.965818
0.96638
0.967154
0.967721
0.968469
0.969603
0.970644
0.971808
0.973033
0.974302
0.975754
0.977147
0.979014
0.981081
0.983437
0.985446
0.986501
0.985507
0.980981
0.969397
0.944747
0.903769
0.840639
0.797843
0.79061
0.812768
0.846505
0.851757
0.849768
0.838154
0.825386
0.80573
0.777261
0.765638
0.732027
0.708169
0.703364
0.701975
0.700302
0.693335
0.667715
0.594648
0.524682
0.500773
0.493853
0.492886
0.498229
0.513402
0.5245
0.5372
0.553213
0.57254
0.596411
0.626313
0.668995
0.714728
0.743996
0.759802
0.76885
0.774784
0.778096
0.779687
0.780769
0.7814
0.782395
0.784641
0.788832
0.797142
0.816223
0.841022
0.863528
0.878364
0.88736
0.894329
0.902288
0.910556
0.917767
0.923211
0.926818
0.928942
0.930193
0.930887
0.93121
0.931528
0.931952
0.932717
0.934026
0.936014
0.938634
0.942668
0.948759
0.955665
0.962351
0.96844
0.973918
0.978438
0.982015
0.984813
0.986858
0.987865
0.988069
0.988035
0.987872
0.987483
0.987069
0.986337
0.984795
0.980563
0.971412
0.963483
0.952479
0.92816
0.889379
0.867771
0.861607
0.863008
0.875821
0.899249
0.906972
0.906577
0.901715
0.888669
0.866101
0.852566
0.851668
0.864527
0.903449
0.930515
0.943942
0.946186
0.807132
0.782271
0.700247
0.589254
0.531887
0.524406
0.520349
0.51018
0.507889
0.511717
0.523603
0.545383
0.583422
0.623902
0.672433
0.714565
0.729761
0.732862
0.725812
0.720269
0.718045
0.720062
0.725326
0.733319
0.744292
0.758686
0.775865
0.796812
0.818037
0.839652
0.86069
0.883078
0.902614
0.920525
0.934719
0.944375
0.952497
0.956476
0.958467
0.959231
0.959441
0.95936
0.959196
0.958699
0.957884
0.957345
0.956789
0.956495
0.956351
0.956319
0.956691
0.957261
0.958214
0.958719
0.959402
0.960102
0.960843
0.961734
0.962714
0.96389
0.965223
0.966942
0.969635
0.973295
0.978549
0.98457
0.98829
0.990443
0.991282
0.989444
0.980847
0.952265
0.885656
0.811725
0.78989
0.797041
0.839066
0.84846
0.846869
0.834174
0.819307
0.796976
0.768915
0.74974
0.715818
0.702732
0.699368
0.697595
0.691564
0.667947
0.607232
0.532327
0.505207
0.499219
0.499436
0.514266
0.541036
0.557299
0.564088
0.569303
0.575853
0.585775
0.599468
0.622883
0.663285
0.711112
0.742733
0.761966
0.774591
0.782768
0.787624
0.7902
0.791801
0.793285
0.794203
0.795623
0.79893
0.807188
0.827509
0.859092
0.879075
0.888073
0.8916
0.895025
0.900559
0.907783
0.915373
0.921734
0.926068
0.928574
0.930109
0.930938
0.931623
0.932432
0.933673
0.935853
0.939405
0.944105
0.951428
0.959778
0.968508
0.976182
0.982267
0.986889
0.989902
0.991737
0.992868
0.993161
0.99308
0.992822
0.992203
0.991438
0.990587
0.989734
0.989088
0.988418
0.987169
0.983752
0.978641
0.974623
0.969505
0.958698
0.929431
0.889228
0.869034
0.865333
0.869478
0.888092
0.899152
0.900071
0.896449
0.8784
0.852288
0.842593
0.843732
0.859257
0.905548
0.941885
0.9582
0.960481
0.807551
0.795085
0.721936
0.610805
0.536375
0.528955
0.532644
0.527047
0.526452
0.542753
0.572698
0.609279
0.648862
0.701391
0.73019
0.737329
0.737034
0.731045
0.728511
0.729365
0.739607
0.759261
0.778839
0.796001
0.807184
0.820652
0.834238
0.850374
0.869808
0.886155
0.904677
0.920741
0.935317
0.944787
0.952733
0.956483
0.958399
0.958997
0.959041
0.958368
0.956659
0.954982
0.953309
0.952499
0.952173
0.952091
0.952155
0.95275
0.953785
0.95496
0.956237
0.957544
0.958514
0.959099
0.959571
0.959849
0.959953
0.96011
0.960437
0.960748
0.961004
0.961157
0.961248
0.961578
0.963394
0.969022
0.979678
0.988325
0.992006
0.993001
0.992082
0.983474
0.949414
0.851406
0.792886
0.786586
0.820865
0.843349
0.843752
0.830234
0.810868
0.786453
0.756512
0.735709
0.707052
0.699229
0.696827
0.694197
0.68316
0.649882
0.582976
0.52578
0.511021
0.514497
0.561961
0.6434
0.679872
0.690165
0.664385
0.641589
0.627235
0.624566
0.629913
0.643148
0.67735
0.726665
0.756789
0.776943
0.789753
0.796561
0.800536
0.804324
0.807295
0.809808
0.812013
0.815014
0.820925
0.83429
0.859137
0.878649
0.889466
0.89374
0.893306
0.893788
0.895873
0.901229
0.90943
0.917603
0.923361
0.926927
0.929297
0.930634
0.932231
0.933965
0.937577
0.942618
0.950763
0.961558
0.972738
0.982088
0.988172
0.991924
0.994299
0.995783
0.99667
0.997097
0.997127
0.997044
0.996751
0.996121
0.995326
0.994196
0.992834
0.991648
0.990798
0.989875
0.988062
0.984407
0.980649
0.978141
0.975417
0.96986
0.955249
0.913861
0.880126
0.868442
0.868626
0.878152
0.888705
0.889978
0.886233
0.865407
0.843574
0.838588
0.841417
0.86182
0.914247
0.953449
0.973436
0.97743
0.806831
0.799206
0.751118
0.641906
0.543781
0.530575
0.542037
0.552472
0.55581
0.581589
0.617875
0.660347
0.710238
0.74032
0.746136
0.744265
0.738848
0.737192
0.745275
0.76687
0.809205
0.830121
0.841288
0.853089
0.860312
0.871339
0.881704
0.894786
0.909749
0.921385
0.934758
0.943409
0.951798
0.955794
0.958407
0.959256
0.959459
0.958901
0.957892
0.956189
0.955157
0.954297
0.953993
0.954548
0.956552
0.959483
0.962302
0.964983
0.967332
0.968979
0.969965
0.970485
0.970965
0.971292
0.971453
0.971423
0.971057
0.970314
0.968987
0.967261
0.964906
0.962595
0.960961
0.959922
0.959195
0.958884
0.96165
0.972963
0.986158
0.992162
0.993816
0.992873
0.982002
0.931046
0.817472
0.783424
0.789021
0.831122
0.837949
0.82921
0.806752
0.781436
0.747524
0.720533
0.702002
0.69733
0.696084
0.69424
0.683965
0.652852
0.589837
0.534573
0.524616
0.544196
0.63569
0.714833
0.743281
0.746772
0.731195
0.68557
0.648755
0.638852
0.640665
0.652143
0.688621
0.73761
0.769731
0.788057
0.80148
0.808724
0.813139
0.818525
0.824908
0.83033
0.834177
0.838824
0.848897
0.869569
0.890587
0.898989
0.900315
0.897411
0.892799
0.889859
0.888968
0.890194
0.89735
0.909472
0.917784
0.923737
0.928146
0.930743
0.934095
0.93861
0.946322
0.95788
0.97222
0.98398
0.990484
0.994155
0.996284
0.997548
0.998304
0.998737
0.998923
0.998933
0.998885
0.998721
0.998242
0.997152
0.996131
0.995043
0.9939
0.992996
0.992364
0.991509
0.989507
0.985369
0.981498
0.978956
0.977099
0.973782
0.965735
0.9389
0.895478
0.873591
0.869517
0.872406
0.878096
0.878314
0.873178
0.852361
0.839159
0.837878
0.843743
0.875736
0.927376
0.961584
0.980775
0.98695
0.802783
0.800479
0.782429
0.683859
0.55832
0.531405
0.543856
0.57005
0.583813
0.607963
0.6466
0.699383
0.742195
0.752537
0.752637
0.748723
0.747963
0.761677
0.801495
0.848228
0.869328
0.87978
0.88763
0.895157
0.900725
0.909079
0.916217
0.925912
0.934907
0.942652
0.950264
0.95425
0.958
0.959448
0.960054
0.960143
0.959778
0.958908
0.957801
0.95716
0.957218
0.95909
0.961992
0.964924
0.967566
0.968892
0.97003
0.97081
0.971275
0.971529
0.97163
0.972099
0.972589
0.973119
0.973675
0.974003
0.974191
0.97425
0.974084
0.973425
0.971775
0.968625
0.963986
0.960159
0.958437
0.956597
0.955528
0.95637
0.965332
0.982722
0.991246
0.994194
0.993209
0.979838
0.914015
0.797905
0.772919
0.789292
0.823578
0.824219
0.801397
0.772602
0.739893
0.71142
0.699598
0.696807
0.696226
0.695157
0.687882
0.664224
0.614111
0.560929
0.554443
0.58531
0.660586
0.723646
0.750981
0.752914
0.743775
0.70153
0.660387
0.649948
0.651032
0.661874
0.699844
0.749048
0.779462
0.797242
0.810757
0.821355
0.830096
0.84011
0.850901
0.860671
0.867931
0.875953
0.888676
0.898714
0.904274
0.905563
0.904086
0.897877
0.885926
0.877936
0.87461
0.874718
0.878725
0.895357
0.910698
0.921771
0.927722
0.93339
0.939918
0.950024
0.965625
0.981506
0.990053
0.994552
0.996931
0.998214
0.998916
0.999307
0.999511
0.999596
0.9996
0.999573
0.999482
0.999254
0.998644
0.997355
0.996272
0.995362
0.994418
0.993679
0.993227
0.992701
0.991557
0.987968
0.982886
0.97966
0.977723
0.97572
0.971493
0.958172
0.916737
0.883009
0.871189
0.869974
0.870613
0.869765
0.861814
0.844559
0.838268
0.838846
0.848333
0.887211
0.934708
0.965667
0.983617
0.991068
0.79405
0.800098
0.791049
0.717852
0.586047
0.532173
0.538602
0.575722
0.599649
0.631544
0.672484
0.727934
0.755533
0.759805
0.759454
0.759658
0.774756
0.820413
0.871504
0.895281
0.906691
0.913711
0.919394
0.923536
0.928014
0.933295
0.938144
0.944214
0.948892
0.95353
0.956905
0.958802
0.960322
0.960766
0.960894
0.960864
0.960394
0.959908
0.959936
0.961806
0.963608
0.965296
0.966398
0.967143
0.967526
0.967662
0.966919
0.965719
0.964593
0.964139
0.964279
0.965332
0.966888
0.96884
0.970906
0.972589
0.973722
0.974259
0.974418
0.974239
0.973432
0.970779
0.965196
0.95979
0.957413
0.95573
0.953363
0.951328
0.950453
0.956762
0.97637
0.989674
0.994455
0.993857
0.980086
0.906907
0.782728
0.757441
0.778465
0.80209
0.792871
0.75486
0.724377
0.705064
0.697898
0.696244
0.696734
0.699115
0.69708
0.688733
0.668829
0.634856
0.638264
0.658931
0.701748
0.738055
0.750629
0.749678
0.736367
0.691618
0.663385
0.659262
0.663791
0.684889
0.740524
0.781996
0.807076
0.821937
0.834592
0.847874
0.859462
0.869283
0.877227
0.883758
0.889486
0.895885
0.902051
0.906261
0.907703
0.907398
0.904692
0.892597
0.869953
0.855054
0.849312
0.850018
0.862267
0.889226
0.908426
0.922158
0.931613
0.942323
0.955119
0.974047
0.986898
0.993437
0.996694
0.998299
0.999101
0.999503
0.999702
0.999794
0.999823
0.999816
0.999787
0.999724
0.999594
0.999291
0.998508
0.997394
0.996211
0.995334
0.994663
0.993999
0.993597
0.9933
0.992723
0.991123
0.985989
0.981165
0.979268
0.978514
0.976852
0.969973
0.939372
0.895156
0.87454
0.868966
0.86746
0.864704
0.854638
0.842503
0.839685
0.842174
0.858798
0.904001
0.942044
0.96821
0.984526
0.992546
0.78729
0.796716
0.791966
0.729734
0.630347
0.535005
0.530933
0.570353
0.601437
0.638889
0.693131
0.750572
0.76826
0.771369
0.772905
0.785117
0.821307
0.870832
0.908449
0.923126
0.930278
0.935041
0.939075
0.941501
0.944812
0.947504
0.95064
0.953728
0.955933
0.958762
0.960407
0.961409
0.962307
0.962623
0.962728
0.962683
0.962586
0.962969
0.963925
0.964885
0.965323
0.96551
0.965572
0.964376
0.961544
0.956517
0.952003
0.94861
0.946744
0.946097
0.94698
0.949188
0.952834
0.957068
0.961693
0.966046
0.969928
0.972542
0.973841
0.974286
0.974094
0.97257
0.967067
0.959028
0.954724
0.952872
0.952241
0.950194
0.947155
0.94501
0.949703
0.968927
0.987855
0.994781
0.995409
0.985726
0.924535
0.771512
0.734009
0.749355
0.763439
0.747177
0.718153
0.703382
0.697206
0.69565
0.696472
0.700572
0.705811
0.709753
0.709067
0.704725
0.707543
0.717628
0.734314
0.74514
0.745286
0.738403
0.705602
0.674281
0.664429
0.666068
0.67829
0.71906
0.768386
0.797916
0.81989
0.838389
0.854621
0.866287
0.873493
0.878972
0.883757
0.888347
0.893328
0.898888
0.903932
0.906952
0.907557
0.906512
0.899928
0.876058
0.84422
0.83045
0.829115
0.834343
0.857552
0.887836
0.911071
0.930128
0.945233
0.964166
0.981961
0.991113
0.995723
0.997972
0.999038
0.999532
0.999765
0.999862
0.9999
0.999899
0.999886
0.999856
0.999797
0.999695
0.999484
0.998937
0.997949
0.996984
0.996007
0.995162
0.99463
0.994236
0.993779
0.99351
0.993185
0.992402
0.989454
0.984702
0.982936
0.982474
0.981598
0.977518
0.957144
0.908258
0.879784
0.86932
0.865864
0.862288
0.851706
0.843438
0.843238
0.848593
0.872865
0.91196
0.944618
0.96883
0.984547
0.992837
0.784657
0.791428
0.787559
0.733326
0.662677
0.544853
0.525931
0.553684
0.600236
0.636133
0.693218
0.761133
0.78189
0.78658
0.791531
0.807369
0.847903
0.902837
0.927685
0.938603
0.944147
0.948175
0.950794
0.952157
0.954088
0.955409
0.957363
0.958944
0.960049
0.961716
0.962749
0.963481
0.9643
0.964607
0.964768
0.964805
0.964857
0.964979
0.965136
0.965059
0.964855
0.963547
0.959724
0.95265
0.945345
0.940228
0.936427
0.934111
0.932742
0.932234
0.932763
0.934383
0.937481
0.942993
0.949691
0.956095
0.962156
0.967715
0.971721
0.973651
0.97425
0.973949
0.971322
0.961907
0.954736
0.952011
0.951217
0.950381
0.947449
0.943451
0.942653
0.946864
0.963099
0.985112
0.995202
0.997514
0.992867
0.943732
0.781889
0.730598
0.726783
0.725321
0.707634
0.700744
0.696436
0.694523
0.695119
0.698745
0.705396
0.712271
0.71796
0.72185
0.726706
0.732061
0.736251
0.735798
0.728168
0.699972
0.677036
0.667938
0.669125
0.679099
0.711229
0.765315
0.803665
0.829717
0.848167
0.861248
0.868726
0.873463
0.877012
0.880519
0.884197
0.887942
0.892077
0.896763
0.900702
0.90222
0.901974
0.898118
0.882005
0.843049
0.825349
0.821462
0.823165
0.831558
0.860171
0.896032
0.9273
0.951509
0.975395
0.988067
0.994286
0.997333
0.998788
0.99946
0.999757
0.999884
0.999933
0.99994
0.999933
0.999913
0.999869
0.999775
0.999577
0.999339
0.998858
0.998084
0.997202
0.996362
0.995583
0.994912
0.994485
0.994241
0.993968
0.993586
0.993295
0.992817
0.991371
0.987866
0.986092
0.985564
0.984792
0.981906
0.968264
0.922818
0.886097
0.870445
0.865967
0.860609
0.85106
0.848223
0.849955
0.858207
0.88248
0.915087
0.94529
0.968705
0.984151
0.992706
0.78151
0.784289
0.776308
0.73573
0.685838
0.563661
0.524087
0.533815
0.591111
0.627714
0.684188
0.762653
0.796729
0.799823
0.803167
0.825317
0.865897
0.916457
0.940024
0.948558
0.952454
0.954962
0.957074
0.958194
0.959279
0.95984
0.960748
0.961641
0.962401
0.963691
0.964795
0.965454
0.965961
0.966169
0.966264
0.966284
0.9661
0.965754
0.965245
0.964645
0.962753
0.957015
0.948248
0.941133
0.935562
0.931778
0.929191
0.927749
0.927056
0.926813
0.927264
0.928355
0.930322
0.933849
0.94035
0.948848
0.95627
0.962094
0.967338
0.971889
0.973899
0.974208
0.973522
0.968559
0.958828
0.954249
0.953417
0.953443
0.951904
0.946917
0.943164
0.943412
0.948526
0.961442
0.981413
0.993985
0.998282
0.998653
0.981348
0.85748
0.743575
0.724059
0.706708
0.698834
0.694065
0.690638
0.688573
0.689639
0.693479
0.701394
0.708374
0.714477
0.716909
0.716391
0.712624
0.700396
0.682843
0.671665
0.669821
0.67271
0.685067
0.717458
0.774947
0.814594
0.837199
0.85474
0.865727
0.871392
0.874297
0.876241
0.877679
0.879323
0.880077
0.880509
0.881597
0.883415
0.884894
0.885357
0.88384
0.873237
0.842807
0.824706
0.819267
0.819332
0.82284
0.83846
0.881556
0.925348
0.960853
0.982504
0.992142
0.996452
0.998412
0.999306
0.999705
0.999876
0.999942
0.999963
0.999961
0.999949
0.999915
0.999835
0.999673
0.999316
0.998676
0.997984
0.997422
0.996919
0.996365
0.995774
0.995186
0.994658
0.994299
0.994147
0.994005
0.993728
0.99327
0.992845
0.991978
0.989688
0.987968
0.987294
0.98649
0.984232
0.974927
0.937517
0.893235
0.872806
0.865963
0.858959
0.854127
0.854385
0.857091
0.865046
0.885383
0.915612
0.944781
0.967803
0.983318
0.992247
0.774142
0.773293
0.770383
0.742108
0.70443
0.596731
0.52525
0.520496
0.56034
0.6141
0.661829
0.74543
0.804722
0.819169
0.817748
0.828828
0.867255
0.914336
0.941414
0.952234
0.957313
0.959648
0.960835
0.96145
0.962078
0.962504
0.963014
0.963544
0.964098
0.964945
0.96595
0.966808
0.967296
0.967413
0.967393
0.967168
0.966738
0.966043
0.965095
0.962777
0.956402
0.947419
0.939873
0.934164
0.930252
0.927705
0.92618
0.925374
0.925039
0.925122
0.925464
0.926273
0.927783
0.930224
0.9353
0.944431
0.953556
0.960001
0.964709
0.969025
0.972651
0.974088
0.974032
0.972028
0.964615
0.959379
0.958507
0.959815
0.963188
0.962421
0.955191
0.949561
0.948672
0.954393
0.96631
0.980087
0.991855
0.997847
0.998869
0.986461
0.921386
0.800449
0.736282
0.709717
0.698272
0.692016
0.688103
0.685014
0.68292
0.682978
0.683414
0.684563
0.683961
0.682225
0.678398
0.674225
0.674204
0.67673
0.685321
0.703787
0.744088
0.797582
0.830806
0.851078
0.864212
0.87203
0.875295
0.87706
0.877548
0.878166
0.877845
0.876704
0.873753
0.869631
0.865494
0.861736
0.858902
0.855809
0.850037
0.837115
0.824875
0.819378
0.818551
0.820807
0.832513
0.871696
0.928645
0.969106
0.987078
0.994673
0.997797
0.999084
0.999623
0.999848
0.999939
0.999971
0.999978
0.999974
0.999956
0.999903
0.999764
0.999478
0.998962
0.99762
0.995959
0.99516
0.994951
0.995062
0.995144
0.995064
0.994785
0.994438
0.994164
0.99403
0.993954
0.993798
0.993337
0.992752
0.992109
0.990557
0.988896
0.98802
0.987225
0.985424
0.978997
0.950898
0.902112
0.876492
0.8655
0.859109
0.85767
0.858208
0.860807
0.867266
0.882911
0.912026
0.941739
0.965579
0.981836
0.991424
0.770826
0.767769
0.770487
0.755029
0.718851
0.618754
0.531474
0.516979
0.530248
0.584637
0.632562
0.696808
0.794821
0.82858
0.838022
0.836947
0.862205
0.907058
0.938938
0.951582
0.957632
0.961085
0.962902
0.963699
0.964064
0.964222
0.964528
0.965012
0.965642
0.966318
0.966972
0.967579
0.968016
0.96817
0.968127
0.967867
0.967301
0.966452
0.964949
0.960788
0.953062
0.945009
0.9384
0.933508
0.930064
0.927695
0.926237
0.925337
0.924954
0.92498
0.925216
0.925884
0.927382
0.929525
0.933821
0.942857
0.952711
0.959517
0.964038
0.967961
0.971611
0.973735
0.974149
0.973384
0.967869
0.961332
0.959539
0.960593
0.966009
0.97464
0.9789
0.974879
0.967362
0.962712
0.964994
0.974386
0.983178
0.991225
0.997268
0.998294
0.992243
0.96691
0.899043
0.807383
0.749038
0.719988
0.704567
0.695401
0.689357
0.686018
0.683942
0.683084
0.682826
0.68285
0.683638
0.687279
0.697417
0.715643
0.748909
0.792754
0.825557
0.846856
0.86098
0.871159
0.877346
0.88123
0.883079
0.883716
0.883661
0.883135
0.881585
0.878208
0.873938
0.868624
0.862765
0.857134
0.851885
0.845504
0.836942
0.828579
0.8222
0.820943
0.822861
0.832737
0.86489
0.933384
0.972415
0.989154
0.995881
0.998459
0.999423
0.999784
0.99992
0.99997
0.999986
0.999986
0.999981
0.999957
0.999881
0.999684
0.999196
0.998313
0.996712
0.992571
0.989091
0.988784
0.989312
0.990874
0.9928
0.993826
0.994161
0.994173
0.994086
0.993977
0.993915
0.99381
0.993451
0.992741
0.992137
0.990868
0.989276
0.988245
0.987498
0.986054
0.981504
0.96172
0.911625
0.880192
0.865688
0.859945
0.858979
0.859447
0.861377
0.86501
0.87339
0.899836
0.934946
0.961679
0.979603
0.990234
0.770411
0.767201
0.774164
0.771113
0.736984
0.642812
0.541205
0.517592
0.518147
0.549885
0.599976
0.646834
0.744973
0.823787
0.845237
0.853876
0.859283
0.891329
0.931587
0.948507
0.956543
0.960822
0.963051
0.964361
0.965136
0.965477
0.965646
0.965987
0.966589
0.967276
0.967875
0.968391
0.968639
0.968693
0.968643
0.968421
0.967846
0.967022
0.965358
0.961369
0.953799
0.945981
0.939433
0.934535
0.931018
0.928597
0.927127
0.926064
0.925834
0.925962
0.92638
0.927313
0.92941
0.932033
0.936849
0.945875
0.956179
0.962403
0.965034
0.9678
0.971293
0.973596
0.974199
0.973828
0.970378
0.962578
0.959595
0.959417
0.961994
0.973303
0.983924
0.989526
0.990981
0.98971
0.98455
0.981114
0.982419
0.98806
0.992789
0.997208
0.998261
0.996126
0.985759
0.961261
0.909265
0.851847
0.804029
0.766994
0.742759
0.729014
0.718572
0.714373
0.715199
0.718866
0.72759
0.747516
0.773239
0.801747
0.828074
0.846896
0.860376
0.870805
0.879328
0.886257
0.891919
0.896318
0.899616
0.901009
0.901084
0.900553
0.898348
0.893198
0.886844
0.879586
0.871327
0.863095