/*--------------------------------*- C++ -*----------------------------------*\
  =========                 |
  \\      /  F ield         | OpenFOAM: The Open Source CFD Toolbox
   \\    /   O peration     | Website:  https://openfoam.org
    \\  /    A nd           | Version:  9
     \\/     M anipulation  |
\*---------------------------------------------------------------------------*/
FoamFile
{
    format      ascii;
    class       volScalarField;
    location    "0.062";
    object      s_0;
}
// * * * * * * * * * * * * * * * * * * * * * * * * * * * * * * * * * * * * * //

dimensions      [0 0 0 0 0 0 0];

internalField   nonuniform List<scalar> 
12225
(
1
1
1
1
1
1
1
1
1
1
1
1
1
1
1
1
1
0.99999
1
1
1
1
1
1
1
1
1
1
1
1
1
1
1
1
1
1
1
1
1
1
1
1
1
1
1
1
1
1
1
1
1
1
1
1
1
1
1
1
1
1
1
1
1
1
1
1
1
1
1
1
1
1
1
1
1
1
1
1
1
1
1
1
1
1
1
1
1
1
1
1
1
1
1
1
1
1
1
1
1
1
1
1
1
1
1
1
1
1
1
1
1
1
1
1
1
1
1
1
1
1
1
1
1
1
1
1
1
1
1
1
1
1
1
1
1
1
1
1
1
1
1
1
1
1
1
1
1
1
1
1
1
1
1
1
1
1
1
1
1
1
1
1
1
1
1
1
1
1
1
1
1
1
1
1
1
1
1
1
1
1
1
1
1
1
1
1
1
1
1
1
1
1
1
1
1
1
1
1
1
1
1
1
1
1
1
1
1
1
1
1
1
1
1
1
1
1
1
1
1
1
1
1
1
1
1
1
1
1
1
1
1
1
1
1
1
1
1
1
1
1
1
1
1
1
1
1
1
1
1
1
1
1
1
1
1
1
1
1
1
1
1
1
1
1
1
1
1
1
1
1
1
1
1
1
1
1
1
1
1
1
1
1
1
1
1
1
1
1
1
1
1
1
1
1
1
1
1
1
1
1
1
1
1
1
1
1
1
1
1
1
1
1
1
1
1
1
1
1
1
1
1
1
1
1
1
1
1
1
1
1
1
1
1
1
1
1
1
1
1
1
1
1
1
1
1
1
1
1
1
1
1
1
1
1
1
1
1
1
1
1
1
1
1
1
1
1
1
1
1
1
1
1
1
1
1
1
1
1
1
1
1
1
1
1
1
1
1
1
1
1
1
1
1
1
1
1
1
1
1
1
1
1
1
1
1
1
1
1
1
1
1
1
1
1
1
1
1
1
1
1
1
1
1
1
1
1
1
1
1
1
1
1
1
1
1
1
1
1
1
1
1
1
1
1
1
1
1
1
1
1
1
1
1
1
1
1
1
1
1
1
1
1
1
1
1
1
1
1
1
1
1
1
1
1
1
1
1
1
1
1
1
1
1
1
1
1
1
1
1
1
1
1
1
1
1
1
1
1
1
1
1
1
1
1
1
1
1
1
1
1
1
1
1
1
1
1
1
1
1
1
1
1
1
1
1
1
1
1
1
1
1
1
1
1
1
1
1
1
1
1
0.641256
0.633832
0.63532
0.640643
0.646298
0.645864
0.643647
0.6391
0.633621
0.62827
0.622622
0.616865
0.61176
0.608665
0.608055
0.60988
0.621754
0.630708
0.63296
0.635932
0.636678
0.6358
0.630345
0.622201
0.617013
0.607301
0.600234
0.600009
0.610957
0.669107
0.709602
0.70571
0.680774
0.656352
0.643446
0.642642
0.646201
0.655446
0.668877
0.683218
0.695875
0.706404
0.715356
0.722847
0.728432
0.730717
0.731352
0.731399
0.730915
0.728903
0.724043
0.715826
0.70466
0.690532
0.672996
0.651481
0.636226
0.632596
0.632203
0.633456
0.637304
0.641901
0.645885
0.649446
0.653488
0.65894
0.666102
0.674731
0.685629
0.698705
0.711832
0.724665
0.736725
0.743482
0.750302
0.753612
0.752226
0.747181
0.736157
0.717577
0.701414
0.697829
0.705827
0.748989
0.822481
0.841341
0.834643
0.788787
0.786907
0.787446
0.787652
0.78783
0.787971
0.788247
0.788621
0.789022
0.789229
0.789322
0.78939
0.790483
0.791704
0.793753
0.795964
0.798643
0.801773
0.804817
0.807929
0.810625
0.813076
0.815636
0.818228
0.821375
0.824338
0.827135
0.829851
0.831889
0.83414
0.836632
0.838933
0.840812
0.842425
0.843225
0.843369
0.843515
0.843384
0.843339
0.843431
0.84369
0.844198
0.845038
0.84622
0.847723
0.849464
0.851223
0.852994
0.854635
0.855605
0.855859
0.85581
0.855577
0.854896
0.853834
0.852901
0.852006
0.851367
0.85072
0.850155
0.849461
0.848134
0.846634
0.84524
0.843945
0.841771
0.837994
0.834611
0.834235
0.844672
0.895478
0.920332
0.92463
0.926249
0.928302
0.929852
0.930622
0.930466
0.926091
0.899723
0.875853
0.874256
0.877693
0.880051
0.880693
0.879365
0.874232
0.859065
0.814796
0.679005
0.46642
0.335586
0.211973
0.643562
0.644967
0.658212
0.675086
0.672403
0.664685
0.652297
0.642018
0.630029
0.61888
0.61412
0.612415
0.607689
0.59714
0.593765
0.594437
0.599159
0.613763
0.625591
0.630369
0.630498
0.629848
0.627604
0.617556
0.60727
0.60779
0.620745
0.653285
0.681183
0.702923
0.702831
0.683364
0.662108
0.652098
0.650183
0.659823
0.68305
0.719093
0.765089
0.785919
0.796678
0.806229
0.811116
0.813088
0.813631
0.813227
0.810093
0.805729
0.802746
0.799123
0.79411
0.789485
0.784051
0.77816
0.7713
0.763876
0.756462
0.749816
0.744124
0.7385
0.731237
0.7258
0.725531
0.729153
0.737623
0.750876
0.767381
0.784175
0.797084
0.803718
0.806027
0.806071
0.803669
0.802889
0.803358
0.803992
0.805644
0.809542
0.807469
0.796177
0.764677
0.726013
0.715734
0.730541
0.789355
0.813528
0.795133
0.78105
0.775591
0.763415
0.74888
0.741351
0.733475
0.729675
0.72693
0.725796
0.725477
0.726381
0.728388
0.729449
0.731875
0.733374
0.736127
0.737967
0.740979
0.744025
0.748528
0.753493
0.759163
0.765799
0.773472
0.782381
0.791331
0.801481
0.811702
0.821112
0.829125
0.837447
0.844461
0.851927
0.85866
0.865354
0.87151
0.876264
0.878686
0.878807
0.878195
0.877596
0.87765
0.878796
0.881851
0.886014
0.890926
0.896002
0.90066
0.904204
0.906341
0.907144
0.907199
0.906974
0.906088
0.904325
0.902376
0.900329
0.898729
0.89774
0.897088
0.896519
0.895705
0.893547
0.891149
0.888158
0.879876
0.872341
0.859697
0.844585
0.844177
0.853289
0.868949
0.877246
0.890742
0.903389
0.912405
0.920249
0.926206
0.927809
0.925157
0.911965
0.907433
0.91043
0.918914
0.923656
0.926202
0.927703
0.928508
0.928638
0.927959
0.925628
0.913099
0.86845
0.653732
0.674145
0.697091
0.690979
0.676237
0.646359
0.611792
0.586479
0.571278
0.558296
0.550877
0.550702
0.552544
0.555234
0.557961
0.561689
0.566212
0.576085
0.602342
0.616675
0.621491
0.628583
0.650218
0.688104
0.689633
0.685106
0.690563
0.696183
0.697276
0.695189
0.681616
0.670947
0.666391
0.668113
0.696687
0.752359
0.797684
0.817383
0.825173
0.827662
0.828162
0.827564
0.82456
0.822458
0.821299
0.818238
0.813825
0.810458
0.807708
0.804258
0.801028
0.798676
0.797547
0.797457
0.7979
0.799155
0.801445
0.805052
0.81016
0.816631
0.824352
0.833024
0.841162
0.844525
0.84512
0.844482
0.841986
0.837507
0.831769
0.82516
0.818186
0.80958
0.799946
0.794392
0.79206
0.794657
0.801936
0.810322
0.81723
0.816482
0.807569
0.783099
0.742236
0.744909
0.802144
0.801371
0.77162
0.754772
0.732244
0.719124
0.714134
0.712146
0.711633
0.712356
0.713732
0.715193
0.717393
0.718718
0.720848
0.722686
0.725365
0.727542
0.728981
0.729661
0.729892
0.72957
0.73007
0.731246
0.732556
0.734246
0.736983
0.740045
0.744388
0.750304
0.758047
0.768394
0.781921
0.798448
0.815118
0.832124
0.847922
0.862062
0.874132
0.884468
0.893186
0.899778
0.903998
0.906453
0.90811
0.909754
0.911932
0.914676
0.917598
0.920284
0.922436
0.923986
0.92498
0.925515
0.925686
0.925679
0.925533
0.92508
0.924858
0.924867
0.925161
0.926713
0.927986
0.929957
0.93269
0.933436
0.933174
0.932178
0.929448
0.922307
0.913409
0.891828
0.861592
0.856156
0.856418
0.856513
0.85625
0.856503
0.862128
0.883434
0.905254
0.919797
0.924679
0.924519
0.923107
0.923164
0.92429
0.926109
0.9274
0.928265
0.929296
0.930829
0.932502
0.934979
0.940862
0.943066
0.713266
0.723248
0.713928
0.686577
0.623514
0.566085
0.543275
0.530597
0.522452
0.515718
0.512411
0.512619
0.514343
0.519498
0.524962
0.53003
0.541661
0.574748
0.600495
0.613109
0.645365
0.710182
0.722848
0.71396
0.703573
0.700198
0.697897
0.696304
0.692594
0.686686
0.68288
0.681873
0.700174
0.748954
0.79522
0.819694
0.831437
0.836754
0.839179
0.841378
0.842763
0.843908
0.844509
0.845547
0.847517
0.849001
0.850102
0.852068
0.853866
0.856057
0.858807
0.861781
0.864294
0.866865
0.869891
0.873804
0.8786
0.884204
0.888225
0.889368
0.889633
0.889154
0.8868
0.882821
0.877347
0.870349
0.862624
0.85426
0.846013
0.836688
0.825886
0.811136
0.795684
0.788454
0.786426
0.792786
0.812427
0.827091
0.826537
0.824075
0.818886
0.805206
0.767641
0.767914
0.796743
0.774983
0.736295
0.72121
0.712346
0.709744
0.70951
0.710876
0.711375
0.711934
0.712056
0.711946
0.711289
0.71088
0.712306
0.71804
0.723354
0.731101
0.738071
0.74272
0.74684
0.748717
0.749269
0.74719
0.743473
0.741072
0.73971
0.739184
0.74057
0.742907
0.746303
0.751392
0.758605
0.768887
0.784115
0.80164
0.821533
0.842365
0.8624
0.879441
0.893184
0.903608
0.910858
0.915534
0.918459
0.920527
0.922356
0.924145
0.925755
0.927066
0.928051
0.928709
0.929183
0.929552
0.92988
0.93015
0.930456
0.93096
0.931655
0.932736
0.934867
0.94003
0.946489
0.951422
0.956091
0.961029
0.963823
0.96412
0.963572
0.961395
0.955933
0.946003
0.920005
0.881839
0.866177
0.860373
0.856653
0.853977
0.853913
0.857137
0.873311
0.899963
0.917281
0.922994
0.923881
0.923766
0.923183
0.921298
0.917555
0.915379
0.916149
0.921059
0.926864
0.930921
0.9329
0.936604
0.754261
0.744892
0.714985
0.627549
0.560027
0.534239
0.525612
0.515728
0.50772
0.503097
0.501939
0.502289
0.503673
0.50737
0.515756
0.529468
0.556693
0.588826
0.612826
0.678266
0.726291
0.725098
0.714255
0.706389
0.702295
0.700143
0.697805
0.695809
0.69417
0.694034
0.7041
0.733804
0.774444
0.804185
0.825952
0.837438
0.848473
0.85553
0.863387
0.873842
0.883715
0.894434
0.902904
0.91049
0.91604
0.920744
0.924066
0.926201
0.92783
0.92905
0.930062
0.931182
0.932437
0.933304
0.934085
0.934432
0.93441
0.934236
0.933818
0.932471
0.931559
0.929794
0.927254
0.923706
0.918727
0.91182
0.904452
0.896077
0.8871
0.873928
0.854843
0.827542
0.798726
0.788309
0.786625
0.803394
0.83842
0.848449
0.845732
0.837156
0.826803
0.812262
0.779808
0.777982
0.783149
0.736447
0.716345
0.709246
0.706931
0.706582
0.706602
0.705134
0.697447
0.682219
0.658261
0.63105
0.617033
0.611997
0.612264
0.628646
0.647785
0.671691
0.702982
0.725914
0.744986
0.753489
0.75829
0.76187
0.764144
0.764824
0.763911
0.761617
0.759088
0.757309
0.756392
0.756173
0.759706
0.767282
0.781007
0.797633
0.81713
0.838566
0.859999
0.878413
0.894172
0.906213
0.914682
0.920225
0.923603
0.925722
0.927176
0.928237
0.929026
0.929606
0.930065
0.930391
0.9307
0.931008
0.931445
0.932018
0.93267
0.933715
0.935867
0.940024
0.945219
0.951153
0.957779
0.963878
0.96876
0.973046
0.97649
0.978053
0.978136
0.97768
0.97604
0.972028
0.962615
0.940181
0.904803
0.881694
0.867918
0.858962
0.855366
0.85544
0.859163
0.877494
0.903473
0.917757
0.921769
0.921526
0.916289
0.906965
0.901484
0.898195
0.898416
0.905942
0.919181
0.928964
0.933223
0.935136
0.789873
0.75845
0.701876
0.599241
0.54076
0.525975
0.519934
0.508162
0.501001
0.498957
0.49881
0.500817
0.505374
0.512921
0.529004
0.55857
0.592742
0.638253
0.708853
0.730634
0.722469
0.712898
0.707632
0.705101
0.703115
0.702127
0.70168
0.70364
0.710678
0.728805
0.76043
0.789751
0.81551
0.836446
0.855038
0.868985
0.885031
0.898418
0.914295
0.925727
0.9337
0.941518
0.945343
0.949458
0.951471
0.953749
0.954896
0.956254
0.957082
0.958187
0.959197
0.960404
0.961649
0.962845
0.963935
0.965202
0.966397
0.967646
0.968839
0.969821
0.97082
0.971732
0.972387
0.972765
0.972647
0.970659
0.966225
0.957454
0.94189
0.92165
0.896274
0.861237
0.812388
0.791192
0.789401
0.810688
0.845662
0.852501
0.851581
0.839973
0.827778
0.810436
0.780478
0.774386
0.756521
0.717062
0.706962
0.704234
0.703488
0.702652
0.696658
0.677553
0.631018
0.560836
0.53075
0.518116
0.51489
0.517376
0.531026
0.54509
0.562663
0.586059
0.61538
0.652886
0.699534
0.735032
0.752615
0.761786
0.767571
0.771364
0.773141
0.773863
0.774169
0.774265
0.774864
0.775866
0.777036
0.780894
0.793228
0.81068
0.829908
0.851558
0.872133
0.889137
0.901136
0.910597
0.917962
0.923207
0.926571
0.928546
0.929629
0.9302
0.930541
0.930799
0.93103
0.931301
0.931812
0.932405
0.933302
0.934804
0.936651
0.940181
0.946031
0.953129
0.960311
0.966734
0.972129
0.976412
0.979586
0.981996
0.983712
0.984433
0.984473
0.984316
0.98374
0.982241
0.978643
0.968896
0.950685
0.935757
0.906789
0.879601
0.86378
0.858172
0.858595
0.864995
0.889494
0.908858
0.914612
0.91304
0.905159
0.899045
0.888312
0.876913
0.873808
0.881791
0.908832
0.927048
0.93645
0.938774
0.803893
0.765252
0.696909
0.589555
0.533395
0.523893
0.518028
0.505572
0.499622
0.499978
0.503348
0.510074
0.522888
0.546017
0.58264
0.623983
0.688855
0.723878
0.731664
0.721704
0.71465
0.711719
0.710078
0.710077
0.711599
0.714902
0.721975
0.73729
0.760714
0.788083
0.811255
0.835969
0.858498
0.879376
0.898686
0.914107
0.928225
0.939946
0.948587
0.953541
0.956613
0.958852
0.95989
0.961012
0.961655
0.962577
0.963284
0.964116
0.96479
0.965319
0.965768
0.966314
0.967117
0.967719
0.968468
0.969618
0.970682
0.971857
0.973096
0.974361
0.975802
0.977178
0.979027
0.98107
0.983395
0.985352
0.986394
0.985267
0.980552
0.968611
0.94383
0.903314
0.840761
0.797698
0.790329
0.812081
0.84635
0.851806
0.849918
0.838388
0.825638
0.806144
0.777459
0.765682
0.732144
0.708035
0.703216
0.70185
0.700255
0.693486
0.668386
0.596221
0.525229
0.500865
0.493702
0.492635
0.497645
0.512539
0.523621
0.536192
0.552135
0.571451
0.595345
0.625291
0.66802
0.713967
0.743573
0.759541
0.768639
0.774568
0.777873
0.779456
0.78053
0.781152
0.782157
0.784426
0.788642
0.797011
0.816203
0.840923
0.863421
0.878342
0.887417
0.894484
0.902511
0.910791
0.917968
0.923357
0.926912
0.928999
0.930227
0.930904
0.931214
0.93153
0.931954
0.932721
0.934031
0.936013
0.938632
0.942716
0.948858
0.955787
0.962488
0.968591
0.974069
0.978582
0.982149
0.984935
0.986944
0.987906
0.988088
0.98805
0.987878
0.987487
0.987069
0.98632
0.98474
0.980304
0.971253
0.963403
0.952283
0.927412
0.888698
0.867469
0.861579
0.863096
0.876398
0.899552
0.906973
0.906477
0.901489
0.888247
0.865724
0.852461
0.851732
0.865077
0.904149
0.930844
0.94403
0.946192
0.807105
0.781512
0.699724
0.588862
0.531808
0.52434
0.520265
0.510066
0.507762
0.511564
0.523417
0.545212
0.583419
0.62405
0.672501
0.714828
0.729966
0.733007
0.725885
0.720383
0.718176
0.72038
0.725912
0.734303
0.745686
0.760251
0.777361
0.79796
0.819106
0.840475
0.861346
0.88353
0.902981
0.920756
0.934954
0.944529
0.9526
0.95656
0.95854
0.959293
0.959495
0.959384
0.959194
0.958647
0.957803
0.957248
0.956691
0.9564
0.956262
0.95624
0.956616
0.957177
0.958135
0.958656
0.959333
0.960046
0.960808
0.961731
0.962744
0.963972
0.965374
0.96714
0.96987
0.973538
0.97875
0.984647
0.988319
0.990413
0.991254
0.98933
0.980572
0.951724
0.885768
0.811808
0.789667
0.7964
0.838768
0.848536
0.847112
0.834576
0.819627
0.797353
0.769063
0.749904
0.715804
0.702614
0.699265
0.69752
0.691633
0.668446
0.60858
0.533121
0.505443
0.499197
0.499278
0.513687
0.540033
0.55614
0.562861
0.568038
0.574541
0.584523
0.59833
0.621863
0.662297
0.710294
0.742226
0.761567
0.774209
0.782415
0.787282
0.789834
0.791418
0.792886
0.793802
0.795242
0.798595
0.806966
0.827557
0.859226
0.879132
0.88807
0.891623
0.895159
0.900803
0.908092
0.915663
0.921952
0.926208
0.928659
0.930159
0.930973
0.931644
0.932453
0.933693
0.935883
0.939424
0.944134
0.951485
0.959856
0.968575
0.976237
0.982315
0.986925
0.989924
0.991747
0.992863
0.993138
0.993054
0.992792
0.992165
0.991404
0.990555
0.989712
0.989074
0.988389
0.987088
0.983523
0.9785
0.974556
0.969383
0.958369
0.928389
0.888438
0.868746
0.865326
0.8697
0.888508
0.899173
0.89996
0.896191
0.877747
0.851895
0.842511
0.843808
0.859847
0.90647
0.942329
0.958293
0.960456
0.807572
0.794836
0.721153
0.610297
0.53625
0.528864
0.532468
0.526827
0.526196
0.542354
0.572279
0.608934
0.648514
0.701051
0.730309
0.737529
0.737209
0.731158
0.72862
0.729626
0.740157
0.76053
0.78037
0.797807
0.808854
0.82228
0.835712
0.851525
0.870828
0.88696
0.905283
0.921108
0.935617
0.944939
0.952847
0.956561
0.958457
0.959045
0.959084
0.958409
0.956689
0.954987
0.953276
0.952447
0.952118
0.95203
0.952079
0.952638
0.953657
0.954828
0.956097
0.957365
0.958324
0.958894
0.959353
0.959634
0.959743
0.959923
0.960286
0.960624
0.960925
0.961124
0.961257
0.961651
0.96352
0.969294
0.979918
0.988447
0.992061
0.993035
0.992084
0.983386
0.949158
0.85214
0.792728
0.786085
0.819919
0.843405
0.843992
0.830852
0.811461
0.787049
0.756764
0.735794
0.706992
0.699157
0.696802
0.694297
0.683571
0.650874
0.584613
0.52651
0.511327
0.51447
0.561444
0.64272
0.679194
0.689492
0.66321
0.640576
0.626432
0.623861
0.629274
0.642505
0.676729
0.726123
0.756335
0.776547
0.789347
0.796164
0.800153
0.803907
0.80681
0.809278
0.811468
0.81449
0.820439
0.833947
0.858853
0.878484
0.889393
0.893668
0.893301
0.893875
0.896111
0.901641
0.909876
0.91795
0.923597
0.927078
0.929389
0.930692
0.932276
0.934014
0.937636
0.942678
0.950849
0.961646
0.972788
0.982101
0.988176
0.991925
0.994298
0.995779
0.996661
0.997077
0.997102
0.997015
0.996707
0.996071
0.995267
0.994124
0.992767
0.991605
0.990769
0.98982
0.987923
0.984213
0.980513
0.978059
0.975309
0.969648
0.954591
0.912581
0.879506
0.868304
0.868639
0.878454
0.888689
0.889816
0.885885
0.864653
0.843256
0.838539
0.841533
0.862593
0.915254
0.954012
0.973613
0.977428
0.806926
0.799147
0.750007
0.641384
0.543625
0.530484
0.541843
0.552195
0.555477
0.581092
0.61731
0.659744
0.709617
0.740323
0.746312
0.744502
0.73901
0.737336
0.745536
0.767514
0.810389
0.831534
0.842819
0.854642
0.861854
0.87275
0.882952
0.895761
0.910524
0.921992
0.935179
0.943656
0.951955
0.95589
0.95848
0.959316
0.959514
0.95896
0.957951
0.95625
0.955219
0.95434
0.95402
0.954563
0.956567
0.959489
0.962293
0.964942
0.967269
0.968907
0.969883
0.970412
0.970886
0.971199
0.971355
0.971303
0.970911
0.970127
0.968773
0.967061
0.964748
0.962502
0.960941
0.959948
0.959261
0.958986
0.961818
0.973333
0.986389
0.992284
0.993889
0.992941
0.982086
0.931477
0.817549
0.782979
0.788251
0.830865
0.838053
0.829786
0.807439
0.782073
0.74798
0.720492
0.70195
0.697293
0.696093
0.694357
0.684406
0.653881
0.591557
0.535511
0.525131
0.544365
0.635433
0.714625
0.743193
0.746674
0.730817
0.684827
0.648159
0.638408
0.640293
0.651927
0.688615
0.737607
0.769617
0.78791
0.801262
0.808377
0.812711
0.818034
0.824313
0.829618
0.833413
0.838102
0.848178
0.869115
0.890401
0.898857
0.900175
0.897241
0.892769
0.889977
0.889195
0.890583
0.898084
0.910072
0.918196
0.924006
0.928303
0.930837
0.934179
0.938697
0.946432
0.958027
0.972325
0.984022
0.990496
0.994155
0.996282
0.997544
0.998299
0.99873
0.998911
0.998918
0.998867
0.998693
0.998179
0.997075
0.996059
0.994971
0.993841
0.992962
0.992339
0.99146
0.989353
0.985176
0.981352
0.978861
0.977001
0.973626
0.965368
0.937724
0.894597
0.873262
0.86948
0.872505
0.878011
0.878137
0.872717
0.851712
0.838976
0.837862
0.844005
0.87685
0.928289
0.96215
0.98103
0.987013
0.803029
0.800501
0.782043
0.683331
0.558135
0.531312
0.543653
0.569718
0.583479
0.607487
0.645888
0.698434
0.741953
0.75266
0.752849
0.748916
0.74811
0.76182
0.801871
0.849096
0.870389
0.880985
0.88888
0.896377
0.901917
0.910139
0.917132
0.926614
0.935413
0.94302
0.950486
0.954384
0.958079
0.959506
0.960108
0.960197
0.959845
0.95898
0.957887
0.957251
0.957328
0.959221
0.962097
0.96499
0.967573
0.968891
0.970013
0.97079
0.971253
0.971518
0.971622
0.972094
0.972595
0.973124
0.97368
0.974005
0.974191
0.974253
0.97408
0.973419
0.971774
0.968646
0.964066
0.960248
0.958524
0.956707
0.955656
0.956611
0.965905
0.983103
0.991462
0.994311
0.993318
0.979995
0.914576
0.797772
0.772365
0.788298
0.823413
0.824399
0.801974
0.772831
0.74005
0.711356
0.699548
0.696784
0.696253
0.695282
0.688305
0.665205
0.615857
0.562458
0.555738
0.586839
0.661555
0.724105
0.751138
0.752948
0.743594
0.700853
0.659823
0.649495
0.650628
0.661624
0.699858
0.74899
0.77923
0.796951
0.810419
0.820864
0.829495
0.839335
0.850074
0.859807
0.867062
0.875198
0.888308
0.898567
0.904204
0.905493
0.903962
0.897601
0.885867
0.878154
0.875025
0.875215
0.87952
0.896331
0.911303
0.922105
0.927919
0.933512
0.940027
0.950166
0.965801
0.981596
0.990089
0.994564
0.996932
0.998213
0.998914
0.999304
0.999508
0.999591
0.999593
0.999565
0.999468
0.999226
0.998569
0.99727
0.996202
0.995299
0.994367
0.993648
0.993208
0.992672
0.991489
0.987768
0.982719
0.979557
0.977653
0.97565
0.971362
0.957607
0.915475
0.882397
0.87101
0.869916
0.870522
0.869583
0.861243
0.844194
0.838186
0.838875
0.848761
0.888419
0.935608
0.966227
0.983905
0.991176
0.794383
0.800186
0.79112
0.717901
0.58597
0.532089
0.538398
0.575338
0.599219
0.630986
0.671733
0.727113
0.755502
0.759979
0.759667
0.759825
0.774773
0.820267
0.871813
0.895917
0.907479
0.914576
0.920302
0.924402
0.92883
0.933989
0.938733
0.94465
0.949196
0.953743
0.957035
0.958884
0.960397
0.960838
0.960963
0.960938
0.960488
0.960015
0.960088
0.961938
0.963725
0.965331
0.966414
0.96713
0.967497
0.967624
0.966868
0.965676
0.964562
0.964117
0.96431
0.965383
0.966955
0.968908
0.970972
0.972646
0.973757
0.974281
0.974435
0.974256
0.973446
0.970832
0.965311
0.959933
0.957601
0.955869
0.953483
0.951469
0.950674
0.957467
0.977088
0.989979
0.994606
0.993978
0.980246
0.9075
0.782679
0.756871
0.777238
0.801546
0.793084
0.755077
0.72427
0.704978
0.697848
0.69621
0.696754
0.699327
0.697532
0.689609
0.67041
0.63733
0.640723
0.660997
0.703102
0.738709
0.750818
0.749721
0.735997
0.690678
0.662822
0.658903
0.663545
0.684939
0.740894
0.782111
0.806943
0.82156
0.834157
0.847339
0.858877
0.868926
0.87703
0.883657
0.889447
0.895919
0.902122
0.90632
0.90773
0.907385
0.904573
0.892159
0.869807
0.85535
0.849881
0.850721
0.863422
0.890207
0.909061
0.922539
0.931822
0.942436
0.955252
0.974173
0.98696
0.993464
0.996704
0.998301
0.999101
0.999502
0.999701
0.999793
0.99982
0.999813
0.999783
0.999717
0.99958
0.999255
0.998433
0.99731
0.996137
0.995279
0.994619
0.993969
0.993581
0.993283
0.992693
0.991032
0.985771
0.981066
0.97929
0.978573
0.976889
0.969719
0.938036
0.89422
0.87417
0.868833
0.86734
0.864504
0.854173
0.842285
0.839662
0.842305
0.859582
0.90514
0.94284
0.968736
0.984824
0.992681
0.787447
0.796899
0.792182
0.730089
0.630697
0.534957
0.53075
0.569933
0.600939
0.638151
0.691979
0.750104
0.768366
0.771586
0.773086
0.785023
0.82093
0.87045
0.908616
0.923549
0.930817
0.935616
0.939663
0.942062
0.945322
0.947933
0.950995
0.953995
0.956117
0.958881
0.960506
0.961489
0.962392
0.962718
0.96284
0.96281
0.962729
0.963104
0.964012
0.96493
0.965345
0.965512
0.965534
0.964288
0.9614
0.956331
0.951844
0.948529
0.946697
0.946066
0.947008
0.949252
0.952926
0.957182
0.961818
0.966171
0.970035
0.972609
0.973876
0.974305
0.974101
0.97256
0.967079
0.959105
0.954793
0.95298
0.952332
0.950225
0.947204
0.94511
0.950121
0.969744
0.988236
0.994946
0.995518
0.985847
0.925361
0.772151
0.733692
0.748246
0.762508
0.747047
0.717975
0.703304
0.697159
0.6956
0.696466
0.700709
0.706122
0.710298
0.709964
0.705954
0.708811
0.71882
0.73501
0.74537
0.745377
0.738163
0.704568
0.673707
0.664112
0.66585
0.67836
0.719723
0.768772
0.798016
0.819891
0.838257
0.854451
0.866225
0.87351
0.879067
0.883912
0.888543
0.893551
0.899122
0.904128
0.907082
0.907638
0.906544
0.899753
0.875469
0.844021
0.830574
0.829398
0.834917
0.858848
0.888837
0.911716
0.930466
0.945373
0.964253
0.982003
0.991135
0.995734
0.997976
0.999039
0.999532
0.999765
0.999861
0.999899
0.999898
0.999885
0.999854
0.999794
0.999687
0.999465
0.998878
0.997877
0.996911
0.995939
0.99511
0.994598
0.99421
0.99376
0.993496
0.993165
0.992355
0.989293
0.984662
0.98301
0.982563
0.981666
0.977378
0.955968
0.907013
0.879209
0.869089
0.86573
0.862075
0.851345
0.843341
0.843263
0.848902
0.873873
0.912907
0.945369
0.969346
0.984848
0.992985
0.784759
0.791662
0.787981
0.733757
0.663433
0.545002
0.52579
0.553248
0.599693
0.635379
0.691934
0.760518
0.78202
0.786793
0.791658
0.807169
0.847113
0.902404
0.927761
0.93885
0.944464
0.948511
0.95115
0.952506
0.954391
0.955664
0.95756
0.959104
0.960173
0.961802
0.962838
0.963563
0.964386
0.964697
0.964867
0.964909
0.964959
0.965055
0.965178
0.965072
0.964839
0.963469
0.95948
0.952394
0.945118
0.940092
0.936328
0.934062
0.932727
0.932233
0.932798
0.934447
0.937585
0.943142
0.949846
0.95625
0.962316
0.967889
0.971816
0.973692
0.974261
0.97394
0.971205
0.961787
0.954699
0.951976
0.951178
0.950328
0.947384
0.943394
0.942622
0.947049
0.963953
0.985689
0.995383
0.997596
0.992989
0.944231
0.782947
0.730595
0.726361
0.724807
0.707352
0.700577
0.696326
0.694423
0.695041
0.698776
0.705594
0.712568
0.71832
0.722301
0.72717
0.732412
0.736369
0.73578
0.727726
0.698903
0.676426
0.66761
0.668929
0.679214
0.712036
0.765867
0.803936
0.829672
0.848006
0.861128
0.868689
0.873501
0.877129
0.8807
0.884427
0.888233
0.892438
0.897163
0.901077
0.902536
0.902245
0.898226
0.881636
0.842589
0.825224
0.821502
0.823327
0.83211
0.861454
0.896953
0.927798
0.951705
0.975444
0.988079
0.994289
0.997334
0.998788
0.99946
0.999757
0.999883
0.999933
0.999939
0.999932
0.999913
0.999868
0.999772
0.999575
0.99933
0.998824
0.998029
0.997138
0.996299
0.995526
0.994869
0.994458
0.994223
0.99395
0.993568
0.993274
0.992783
0.991273
0.987813
0.986132
0.985621
0.984821
0.981792
0.967482
0.921259
0.885289
0.870135
0.865802
0.86033
0.850861
0.848265
0.8501
0.85865
0.883394
0.915967
0.946022
0.969219
0.984461
0.992864
0.781686
0.78461
0.776825
0.736074
0.686591
0.564123
0.524015
0.533442
0.590491
0.626985
0.682903
0.761617
0.796889
0.800167
0.803269
0.82495
0.86512
0.915717
0.939959
0.948698
0.952665
0.955166
0.957269
0.95839
0.959454
0.959998
0.960868
0.961738
0.962482
0.963751
0.964862
0.965532
0.966037
0.966245
0.966341
0.966358
0.966166
0.9658
0.965266
0.964631
0.962645
0.95672
0.947998
0.940921
0.935424
0.931685
0.929136
0.927718
0.927046
0.926815
0.927281
0.928392
0.930392
0.933982
0.940564
0.949031
0.956416
0.96224
0.967534
0.972017
0.97394
0.974211
0.973476
0.968299
0.958609
0.954067
0.953189
0.953126
0.951478
0.946523
0.942919
0.943297
0.948521
0.961967
0.982052
0.994227
0.998351
0.998664
0.981215
0.858402
0.74386
0.723858
0.706505
0.698645
0.693861
0.690413
0.688311
0.689357
0.693183
0.701135
0.708175
0.714367
0.716623
0.71596
0.71198
0.699363
0.682012
0.671177
0.669584
0.672625
0.685363
0.718594
0.775824
0.814852
0.837185
0.854721
0.865652
0.871314
0.874256
0.876242
0.877753
0.879499
0.880385
0.880969
0.882221
0.884168
0.885664
0.886062
0.884412
0.873381
0.842444
0.824494
0.819195
0.819321
0.823008
0.839126
0.882729
0.925982
0.961102
0.982588
0.992164
0.996456
0.998412
0.999306
0.999705
0.999876
0.999941
0.999963
0.99996
0.999949
0.999915
0.999835
0.999672
0.999313
0.998676
0.997982
0.997412
0.996891
0.996323
0.995726
0.99514
0.994622
0.994278
0.994133
0.993992
0.993708
0.993242
0.992809
0.991916
0.989623
0.987965
0.987307
0.986478
0.984127
0.974393
0.935919
0.892219
0.872392
0.865716
0.858742
0.854143
0.854466
0.857284
0.865455
0.886203
0.916469
0.94551
0.968327
0.983642
0.992419
0.77435
0.773602
0.770536
0.74224
0.70492
0.597634
0.525302
0.520298
0.559655
0.613371
0.660676
0.743753
0.804434
0.819562
0.818188
0.828625
0.866616
0.913528
0.941174
0.952183
0.957371
0.959762
0.960959
0.961571
0.962185
0.962604
0.9631
0.963621
0.964173
0.965006
0.966002
0.966861
0.967351
0.96747
0.967449
0.967219
0.96678
0.966072
0.965092
0.962652
0.9561
0.947132
0.93966
0.934018
0.930162
0.92765
0.926149
0.925358
0.925032
0.925123
0.925471
0.926293
0.927816
0.9303
0.935489
0.944669
0.953723
0.960119
0.964846
0.969193
0.972758
0.974112
0.97402
0.971861
0.964314
0.959219
0.958412
0.959751
0.962888
0.961505
0.954127
0.948902
0.948322
0.954386
0.966551
0.980558
0.992184
0.997943
0.998883
0.986482
0.921888
0.801579
0.736685
0.709794
0.698203
0.69186
0.6879
0.684783
0.682686
0.682712
0.683107
0.684152
0.68353
0.681856
0.678012
0.674025
0.674078
0.67677
0.685619
0.704395
0.745567
0.798635
0.831181
0.851176
0.864152
0.871877
0.875122
0.876901
0.877413
0.878066
0.877752
0.876578
0.873569
0.869515
0.865493
0.861872
0.859181
0.856181
0.850331
0.836944
0.824622
0.819219
0.818472
0.820823
0.832878
0.872846
0.929399
0.969439
0.987205
0.994715
0.997808
0.999087
0.999623
0.999848
0.999939
0.999971
0.999978
0.999973
0.999956
0.999903
0.999764
0.999481
0.998964
0.997618
0.996012
0.995234
0.995015
0.995103
0.995151
0.995043
0.994752
0.99441
0.994147
0.994021
0.993944
0.993784
0.993304
0.992713
0.992057
0.990489
0.98886
0.987999
0.987189
0.985331
0.978628
0.949396
0.900935
0.875914
0.865176
0.858987
0.857694
0.858276
0.86097
0.867585
0.883637
0.912912
0.942511
0.966137
0.982186
0.991615
0.770865
0.767783
0.77052
0.754989
0.719304
0.619788
0.531698
0.516909
0.529819
0.58381
0.631594
0.694861
0.793872
0.828554
0.838461
0.837327
0.861721
0.906304
0.938612
0.951475
0.95762
0.961109
0.962951
0.963768
0.964139
0.964295
0.964594
0.965075
0.965709
0.966383
0.96703
0.967629
0.968058
0.96821
0.968165
0.967901
0.967328
0.966467
0.964904
0.960601
0.9528
0.944785
0.938234
0.933395
0.929988
0.927645
0.926207
0.925319
0.924948
0.924978
0.92522
0.925901
0.927409
0.92958
0.933974
0.943107
0.952894
0.959619
0.96415
0.96811
0.971741
0.973789
0.97415
0.973298
0.967499
0.961155
0.959514
0.960669
0.966313
0.974803
0.978387
0.973581
0.966096
0.961842
0.964808
0.974548
0.98343
0.991505
0.997398
0.998327
0.992296
0.96727
0.899947
0.808812
0.74982
0.720428
0.70479
0.695476
0.689359
0.685956
0.683849
0.683025
0.682807
0.68287
0.683775
0.687637
0.698219
0.716854
0.7507
0.79413
0.826166
0.847075
0.861072
0.871127
0.877188
0.88097
0.882707
0.883298
0.883233
0.882685
0.881088
0.877724
0.873474
0.868164
0.862346
0.85678
0.851556
0.845131
0.836523
0.828196
0.821905
0.820729
0.822721
0.832896
0.865979
0.934306
0.972818
0.989313
0.995937
0.998477
0.999429
0.999786
0.99992
0.99997
0.999986
0.999986
0.999981
0.999957
0.999881
0.999686
0.999201
0.998335
0.996738
0.992641
0.989361
0.989095
0.98961
0.991126
0.99293
0.993869
0.994162
0.994166
0.994073
0.993969
0.993909
0.9938
0.993418
0.992702
0.992087
0.990798
0.989221
0.988207
0.987455
0.985976
0.98124
0.960498
0.910166
0.879433
0.865328
0.859845
0.858976
0.859488
0.861482
0.865171
0.873819
0.900925
0.935843
0.962306
0.979994
0.99045
0.770422
0.76714
0.774057
0.77103
0.737427
0.644012
0.541656
0.517574
0.51796
0.549215
0.59908
0.645443
0.742346
0.823395
0.845333
0.854299
0.859231
0.890822
0.931122
0.948302
0.956473
0.960821
0.963072
0.964389
0.965172
0.965523
0.965695
0.966036
0.966637
0.967323
0.967922
0.968435
0.968679
0.968727
0.968675
0.968448
0.967867
0.967027
0.965317
0.96119
0.953556
0.945769
0.939272
0.934424
0.930942
0.928551
0.927095
0.926046
0.925832
0.925963
0.926387
0.927337
0.92945
0.932086
0.936964
0.946094
0.956363
0.962431
0.965044
0.967926
0.971428
0.973659
0.974207
0.973781
0.97004
0.962327
0.959554
0.959472
0.962346
0.973951
0.984242
0.989494
0.990637
0.988977
0.983606
0.980543
0.982401
0.988248
0.992978
0.997323
0.998307
0.996179
0.985912
0.961555
0.910395
0.853365
0.805531
0.768283
0.743753
0.729844
0.719221
0.715108
0.715999
0.71981
0.728838
0.749253
0.774825
0.802981
0.828713
0.847092
0.86035
0.870641
0.879042
0.885859
0.891385
0.895641
0.898765
0.900006
0.90004
0.899455
0.897094
0.89191
0.885631
0.878426
0.870268
0.862199
0.85454
0.846104
0.837745
0.830677
0.830048
0.831866