/*--------------------------------*- C++ -*----------------------------------*\
  =========                 |
  \\      /  F ield         | OpenFOAM: The Open Source CFD Toolbox
   \\    /   O peration     | Website:  https://openfoam.org
    \\  /    A nd           | Version:  9
     \\/     M anipulation  |
\*---------------------------------------------------------------------------*/
FoamFile
{
    format      ascii;
    class       volScalarField;
    location    "0.16";
    object      p;
}
// * * * * * * * * * * * * * * * * * * * * * * * * * * * * * * * * * * * * * //

dimensions      [0 2 -2 0 0 0 0];

internalField   nonuniform List<scalar> 
12225
(
-1.12693
-3.40991
-4.57234
-4.88047
-5.04867
-5.2083
-5.33277
-5.42105
-5.49048
-5.55128
-5.60522
-5.6521
-5.69221
-5.7248
-5.74867
-5.75327
-5.74826
-5.63635
-4.59444
-5.29653
-5.38672
-5.25161
-5.21148
-5.27869
-5.35934
-5.42507
-5.48192
-5.53512
-5.58443
-5.62869
-5.66757
-5.70014
-5.72592
-5.73771
-5.74855
-5.73047
-4.79919
-4.69621
-4.85295
-4.97504
-5.08235
-5.20459
-5.31279
-5.39535
-5.46241
-5.52208
-5.57602
-5.62398
-5.66608
-5.70202
-5.7322
-5.75341
-5.78017
-5.81119
-4.6619
-4.58375
-4.85978
-5.03847
-5.13287
-5.22994
-5.32498
-5.40244
-5.46691
-5.52497
-5.57808
-5.62586
-5.66843
-5.70591
-5.73933
-5.76871
-5.806
-5.85759
-4.66887
-4.68611
-4.92616
-5.07602
-5.15201
-5.23667
-5.32621
-5.4022
-5.46606
-5.52367
-5.57668
-5.62489
-5.66854
-5.7082
-5.74533
-5.78168
-5.82604
-5.88538
-4.73057
-4.77301
-4.95077
-5.08146
-5.15941
-5.2419
-5.32815
-5.40293
-5.46647
-5.52386
-5.57692
-5.62568
-5.6705
-5.71226
-5.75266
-5.79405
-5.84269
-5.90416
-4.79032
-4.82983
-4.9662
-5.08837
-5.17073
-5.25041
-5.33204
-5.40485
-5.46785
-5.52497
-5.57803
-5.62728
-5.6732
-5.71682
-5.75986
-5.80465
-5.85552
-5.91612
-4.84349
-4.87837
-4.98864
-5.10124
-5.18376
-5.25963
-5.33655
-5.40719
-5.46955
-5.52635
-5.57938
-5.62907
-5.67597
-5.72113
-5.76615
-5.81301
-5.86457
-5.9228
-4.8933
-4.92502
-5.01578
-5.11656
-5.1966
-5.26904
-5.34177
-5.41009
-5.47159
-5.52798
-5.58088
-5.6309
-5.67858
-5.72489
-5.7712
-5.81904
-5.8702
-5.92551
-4.94069
-4.9693
-5.04445
-5.13332
-5.20968
-5.27905
-5.34795
-5.41375
-5.4741
-5.52993
-5.58259
-5.63274
-5.68092
-5.72794
-5.7749
-5.82289
-5.87296
-5.92525
-4.98549
-5.01076
-5.07353
-5.15158
-5.22344
-5.2897
-5.35503
-5.41818
-5.47714
-5.53224
-5.5845
-5.63457
-5.68293
-5.73024
-5.7773
-5.82484
-5.87342
-5.92283
-5.02403
-5.04636
-5.10017
-5.16942
-5.23666
-5.29993
-5.36219
-5.42289
-5.4804
-5.53467
-5.58641
-5.6362
-5.68445
-5.73167
-5.77842
-5.82518
-5.87222
-5.9192
-5.05977
-5.07956
-5.12607
-5.18758
-5.25013
-5.31034
-5.36972
-5.42802
-5.48399
-5.5373
-5.5884
-5.63774
-5.68566
-5.73252
-5.77871
-5.82448
-5.86995
-5.91472
-5.09735
-5.11464
-5.15442
-5.20839
-5.26573
-5.32241
-5.37867
-5.43434
-5.48845
-5.54052
-5.59072
-5.63934
-5.68663
-5.73281
-5.77808
-5.82255
-5.86623
-5.90876
-5.13554
-5.15043
-5.18427
-5.23127
-5.28317
-5.33593
-5.38892
-5.44178
-5.49374
-5.54426
-5.59325
-5.64085
-5.68716
-5.73229
-5.77631
-5.81922
-5.86097
-5.90127
-5.1724
-5.18514
-5.214
-5.25492
-5.30157
-5.3503
-5.39995
-5.44993
-5.49956
-5.54825
-5.59574
-5.64199
-5.687
-5.73075
-5.77324
-5.8144
-5.85416
-5.89233
-5.20506
-5.21606
-5.24104
-5.27705
-5.31916
-5.36416
-5.41066
-5.4579
-5.50519
-5.5519
-5.59768
-5.64235
-5.6858
-5.72795
-5.76873
-5.80806
-5.84589
-5.88206
-5.22915
-5.23895
-5.26134
-5.29404
-5.3329
-5.37506
-5.41907
-5.46407
-5.50932
-5.55422
-5.59832
-5.64138
-5.68322
-5.72373
-5.76281
-5.80039
-5.83641
-5.87081
-5.23772
-5.24708
-5.26856
-5.30012
-5.33784
-5.37888
-5.42176
-5.4656
-5.50969
-5.55341
-5.5963
-5.63808
-5.67858
-5.71768
-5.75531
-5.79141
-5.82595
-5.85891
-5.2229
-5.23296
-5.25597
-5.28964
-5.32948
-5.37214
-5.41607
-5.46061
-5.50513
-5.54899
-5.59175
-5.63319
-5.67318
-5.71164
-5.74853
-5.78381
-5.81748
-5.84958
-5.1968
-5.208
-5.23381
-5.27158
-5.31539
-5.36102
-5.40714
-5.45344
-5.49928
-5.54398
-5.58718
-5.62879
-5.66877
-5.70707
-5.74367
-5.77858
-5.81183
-5.8435
-5.16193
-5.17432
-5.20438
-5.2489
-5.29845
-5.34766
-5.39648
-5.44527
-5.49309
-5.53906
-5.58301
-5.62505
-5.66524
-5.70357
-5.74007
-5.77479
-5.8078
-5.8392
-5.12136
-5.13398
-5.16938
-5.22401
-5.28119
-5.33427
-5.38593
-5.43742
-5.48731
-5.53462
-5.57944
-5.62207
-5.66261
-5.70108
-5.73758
-5.77223
-5.80511
-5.83635
-5.07756
-5.08914
-5.13156
-5.19822
-5.26297
-5.32069
-5.37668
-5.43146
-5.48309
-5.53128
-5.57676
-5.6199
-5.66072
-5.69929
-5.73577
-5.77034
-5.80311
-5.83421
-5.03073
-5.0385
-5.09957
-5.17941
-5.2446
-5.30434
-5.36632
-5.426
-5.47986
-5.52904
-5.5752
-5.61882
-5.65986
-5.69847
-5.73488
-5.76935
-5.80201
-5.83305
-4.98279
-4.95916
-5.06998
-5.17896
-5.23959
-5.29375
-5.35726
-5.41971
-5.47509
-5.5252
-5.57219
-5.6164
-5.65777
-5.69652
-5.73299
-5.76745
-5.80008
-5.83106
-4.97349
-4.82918
-4.98824
-5.15448
-5.23902
-5.30009
-5.36496
-5.42619
-5.48002
-5.52925
-5.57575
-5.61953
-5.66044
-5.69875
-5.7348
-5.76886
-5.80119
-5.83196
-5.1189
-4.83511
-4.86987
-5.00036
-5.11998
-5.22704
-5.32115
-5.39698
-5.45929
-5.5146
-5.56542
-5.61209
-5.65496
-5.69464
-5.73165
-5.76639
-5.79934
-5.83116
-5.05571
-5.55541
-5.56555
-5.40632
-5.32538
-5.34963
-5.40382
-5.45328
-5.49844
-5.54306
-5.58677
-5.62827
-5.6672
-5.70377
-5.73816
-5.77047
-5.80098
-5.83152
-1.71703
-3.5876
-4.65889
-4.95197
-5.08684
-5.22363
-5.33559
-5.41563
-5.47864
-5.53472
-5.58608
-5.63282
-5.67548
-5.71483
-5.75126
-5.78479
-5.81509
-5.84037
-6.73234
-6.73232
-6.73272
-6.7335
-6.73457
-6.73592
-6.73754
-6.73946
-6.74168
-6.74423
-6.74713
-6.75042
-6.75414
-6.75833
-6.76302
-6.76824
-6.77405
-6.78046
-6.78752
-6.79527
-6.80373
-6.81294
-6.82295
-6.8338
-6.84553
-6.85819
-6.87184
-6.88656
-6.90235
-6.91921
-6.93712
-6.95475
-6.97394
-6.99727
-7.02388
-7.05068
-7.06322
-7.06836
-7.09609
-7.13671
-7.17191
-7.20727
-7.22882
-7.24278
-7.26604
-7.29239
-7.32041
-7.34947
-7.37922
-7.40946
-7.44004
-7.47082
-7.50172
-7.53263
-7.56344
-7.59406
-7.62438
-7.65429
-7.68369
-7.71245
-7.74044
-7.76755
-7.79362
-7.81853
-7.84212
-7.86424
-7.88473
-7.90344
-7.92018
-7.93479
-7.9471
-7.95692
-7.96407
-7.96836
-7.96962
-7.96764
-7.96225
-7.95325
-7.94046
-7.92368
-7.90274
-7.87745
-7.84763
-7.81309
-7.77368
-7.72922
-7.67954
-7.62448
-7.56389
-7.49763
-7.42555
-7.34751
-7.2634
-7.1731
-7.07649
-6.97351
-6.86415
-6.74841
-6.62618
-6.4973
-6.36136
-6.21842
-6.06858
-5.91188
-5.74835
-5.57799
-5.40086
-5.21699
-5.02644
-4.8293
-4.62565
-4.41561
-4.19931
-3.97687
-3.74846
-3.51425
-3.27443
-3.02919
-2.77875
-2.52334
-2.26319
-1.99856
-1.7297
-1.45689
-1.18041
-0.900556
-0.617615
-0.331895
-0.0437033
0.246644
0.538831
0.832537
1.12744
1.42322
1.71956
2.01614
2.31264
2.60875
2.90417
3.19859
3.49173
3.78329
4.07301
4.36061
4.64583
4.92844
5.20819
5.48487
5.75826
6.02817
6.2944
6.5568
6.81519
7.06943
7.31939
7.56495
7.80598
8.0424
8.27412
8.50106
8.72316
8.94036
9.15264
9.35998
9.56233
9.75961
9.95163
10.1383
10.3198
10.4959
10.6668
10.8324
10.9928
11.148
11.2981
11.4435
11.585
11.7241
11.8703
12.0242
-6.73066
-6.73102
-6.73155
-6.73219
-6.73279
-6.73338
-6.73414
-6.73521
-6.73664
-6.73848
-6.74074
-6.74345
-6.74662
-6.75027
-6.75443
-6.75912
-6.76439
-6.77026
-6.77676
-6.78392
-6.79177
-6.80035
-6.80966
-6.81975
-6.83062
-6.84229
-6.85473
-6.86788
-6.88168
-6.89615
-6.91104
-6.92788
-6.94669
-6.96457
-6.98037
-6.99315
-7.0163
-7.0544
-7.08113
-7.09678
-7.11661
-7.13586
-7.16613
-7.20548
-7.238
-7.26829
-7.29811
-7.32798
-7.35807
-7.3884
-7.41893
-7.44962
-7.48039
-7.51116
-7.54183
-7.57232
-7.60253
-7.63235
-7.66168
-7.69039
-7.71837
-7.74548
-7.7716
-7.79658
-7.82028
-7.84255
-7.86323
-7.88215
-7.89915
-7.91406
-7.92671
-7.9369
-7.94447
-7.94923
-7.95099
-7.94957
-7.94477
-7.93641
-7.9243
-7.90826
-7.88809
-7.86362
-7.83466
-7.80104
-7.76259
-7.71913
-7.67051
-7.61657
-7.55714
-7.4921
-7.4213
-7.3446
-7.26188
-7.17303
-7.07793
-6.97646
-6.86853
-6.75401
-6.63271
-6.50441
-6.36951
-6.22798
-6.0797
-5.92461
-5.76272
-5.59403
-5.41857
-5.23638
-5.04751
-4.85205
-4.65008
-4.44171
-4.22706
-4.00626
-3.77948
-3.54687
-3.30862
-3.06493
-2.816
-2.56207
-2.30336
-2.04013
-1.77263
-1.50113
-1.22591
-0.947263
-0.665476
-0.380854
-0.0937035
0.195663
0.486931
0.77978
1.07389
1.36894
1.66462
1.9606
2.25657
2.55221
2.84723
3.14132
3.43418
3.72554
4.01511
4.30262
4.58783
4.87047
5.15031
5.42713
5.70071
5.97086
6.23739
6.50012
6.75888
7.01354
7.26394
7.50997
7.75151
7.98847
8.22074
8.44827
8.67097
8.8888
9.10172
9.3097
9.51271
9.71063
9.90331
10.0907
10.2728
10.4497
10.6213
10.7877
10.9488
11.1049
11.2561
11.4027
11.5461
11.6873
11.8368
11.9845
-6.72646
-6.7278
-6.7292
-6.73038
-6.73119
-6.7318
-6.73247
-6.73336
-6.73458
-6.73619
-6.73822
-6.74071
-6.74367
-6.74713
-6.75112
-6.75567
-6.76079
-6.76652
-6.7729
-6.77993
-6.78767
-6.79612
-6.80532
-6.81528
-6.82604
-6.83761
-6.85002
-6.86326
-6.87732
-6.89222
-6.90792
-6.92463
-6.94285
-6.96166
-6.98043
-6.99977
-7.02213
-7.04858
-7.07434
-7.09691
-7.1188
-7.1411
-7.16635
-7.19522
-7.22439
-7.25363
-7.28299
-7.31252
-7.34224
-7.37217
-7.40228
-7.43251
-7.46281
-7.49311
-7.52332
-7.55337
-7.58315
-7.61257
-7.64152
-7.66989
-7.69755
-7.72438
-7.75026
-7.77504
-7.79857
-7.82072
-7.84131
-7.8602
-7.87722
-7.8922
-7.90496
-7.91533
-7.92312
-7.92816
-7.93025
-7.92922
-7.92487
-7.91702
-7.90548
-7.89006
-7.87059
-7.84686
-7.81872
-7.78597
-7.74845
-7.70599
-7.65843
-7.6056
-7.54735
-7.48354
-7.41402
-7.33866
-7.25733
-7.16991
-7.07629
-6.97635
-6.86997
-6.75701
-6.63744
-6.5111
-6.37808
-6.23837
-6.09193
-5.93872
-5.77872
-5.61195
-5.43843
-5.25818
-5.07127
-4.87777
-4.67777
-4.47135
-4.25865
-4.0398
-3.81494
-3.58423
-3.34787
-3.10603
-2.85893
-2.60679
-2.34983
-2.0883
-1.82246
-1.55257
-1.27891
-1.00176
-0.721418
-0.438176
-0.152342
0.135776
0.425864
0.717604
1.01068
1.30477
1.59956
1.89473
2.18996
2.48495
2.77939
3.07298
3.36542
3.65643
3.94572
4.23304
4.51811
4.8007
5.08055
5.35746
5.63118
5.90154
6.16833
6.43138
6.69051
6.94559
7.19646
7.443
7.68509
7.92263
8.15552
8.38369
8.60705
8.82554
9.03913
9.24776
9.45138
9.64994
9.84336
10.0316
10.2146
10.3923
10.5648
10.7321
10.8943
11.0514
11.2038
11.3519
11.4973
11.6402
11.7922
11.9294
-6.72029
-6.72259
-6.72528
-6.72748
-6.72899
-6.73009
-6.73108
-6.73216
-6.73347
-6.73511
-6.73713
-6.73958
-6.7425
-6.74592
-6.74986
-6.75435
-6.75943
-6.76511
-6.77142
-6.77839
-6.78605
-6.79442
-6.80352
-6.81337
-6.82401
-6.83543
-6.84767
-6.86073
-6.87463
-6.88939
-6.90504
-6.92163
-6.93923
-6.95773
-6.97697
-6.99725
-7.01899
-7.04223
-7.06614
-7.09
-7.11391
-7.13836
-7.16386
-7.19067
-7.21834
-7.24655
-7.27517
-7.30413
-7.33338
-7.36287
-7.39256
-7.42239
-7.45231
-7.48223
-7.5121
-7.54181
-7.57128
-7.60042
-7.62911
-7.65724
-7.68471
-7.71137
-7.73712
-7.76179
-7.78526
-7.80738
-7.82798
-7.84692
-7.86402
-7.87912
-7.89204
-7.90261
-7.91065
-7.91598
-7.9184
-7.91774
-7.91381
-7.90642
-7.89538
-7.88051
-7.86162
-7.83853
-7.81107
-7.77904
-7.74229
-7.70064
-7.65393
-7.60199
-7.54468
-7.48185
-7.41334
-7.33903
-7.25878
-7.17247
-7.07998
-6.98119
-6.87598
-6.76426
-6.64594
-6.52099
-6.3894
-6.25113
-6.10613
-5.95438
-5.79586
-5.63058
-5.45856
-5.27983
-5.09444
-4.90246
-4.70397
-4.49908
-4.28789
-4.07054
-3.84717
-3.61795
-3.38304
-3.14264
-2.89696
-2.6462
-2.3906
-2.1304
-1.86586
-1.59723
-1.32478
-1.04881
-0.769594
-0.487435
-0.202634
0.0845016
0.373659
0.664523
0.956777
1.2501
1.54419
1.83871
2.13335
2.42781
2.72178
3.01496
3.30705
3.59777
3.88684
4.17398
4.45894
4.74146
5.02131
5.29826
5.57209
5.84259
6.10957
6.37286
6.63228
6.88767
7.13891
7.38584
7.62836
7.86634
8.09971
8.32837
8.55225
8.7713
8.98544
9.19462
9.39875
9.59779
9.79172
9.98051
10.1641
10.3425
10.5156
10.6836
10.8465
11.0044
11.1576
11.3066
11.4529
11.5959
11.7467
11.8714
-6.71372
-6.71705
-6.72109
-6.72445
-6.72683
-6.72861
-6.73012
-6.73161
-6.73323
-6.7351
-6.73731
-6.73991
-6.74296
-6.7465
-6.75055
-6.75514
-6.7603
-6.76607
-6.77247
-6.77952
-6.78725
-6.79569
-6.80486
-6.81478
-6.82548
-6.83697
-6.84928
-6.86241
-6.8764
-6.89124
-6.90698
-6.92365
-6.94125
-6.95972
-6.97907
-6.99937
-7.02071
-7.04306
-7.06614
-7.08973
-7.11389
-7.13872
-7.16434
-7.19076
-7.21785
-7.24548
-7.27358
-7.30207
-7.3309
-7.36002
-7.38937
-7.41888
-7.4485
-7.47816
-7.50777
-7.53725
-7.56651
-7.59545
-7.62398
-7.65198
-7.67933
-7.7059
-7.73158
-7.75622
-7.77968
-7.80181
-7.82246
-7.84147
-7.85867
-7.8739
-7.88698
-7.89774
-7.90599
-7.91155
-7.91425
-7.91389
-7.91028
-7.90324
-7.89259
-7.87813
-7.85969
-7.83707
-7.8101
-7.77861
-7.74241
-7.70135
-7.65525
-7.60395
-7.54731
-7.48517
-7.41739
-7.34382
-7.26435
-7.17883
-7.08715
-6.9892
-6.88486
-6.77406
-6.6567
-6.53275
-6.40216
-6.26489
-6.1209
-5.97016
-5.81266
-5.64841
-5.47741
-5.29971
-5.11536
-4.92441
-4.72696
-4.52309
-4.31293
-4.0966
-3.87425
-3.64602
-3.41211
-3.17269
-2.92796
-2.67815
-2.42347
-2.16417
-1.90051
-1.63273
-1.36111
-1.08594
-0.807493
-0.526073
-0.241978
0.0444846
0.333004
0.623265
0.914954
1.20775
1.50135
1.79542
2.08965
2.38375
2.67739
2.97027
3.26212
3.55263
3.84153
4.12854
4.41341
4.69588
4.97572
5.25269
5.52658
5.79717
6.06429
6.32773
6.58734
6.84295
7.09443
7.34163
7.58443
7.82273
8.05644
8.28547
8.50972
8.72915
8.94367
9.15321
9.35768
9.55703
9.75127
9.94039
10.1243
10.3031
10.4766
10.645
10.8083
10.9666
11.1203
11.2696
11.4158
11.5576
11.7055
11.8184
-6.70816
-6.71234
-6.71756
-6.722
-6.72528
-6.72779
-6.72992
-6.73193
-6.73399
-6.73624
-6.73877
-6.74167
-6.74499
-6.74877
-6.75305
-6.75787
-6.76326
-6.76924
-6.77584
-6.7831
-6.79103
-6.79967
-6.80904
-6.81916
-6.83005
-6.84174
-6.85424
-6.86757
-6.88174
-6.89677
-6.91267
-6.92945
-6.9471
-6.96563
-6.98502
-7.00528
-7.02644
-7.04842
-7.07113
-7.09447
-7.11846
-7.14312
-7.1685
-7.19456
-7.22123
-7.24846
-7.27617
-7.30431
-7.33283
-7.36165
-7.39074
-7.42002
-7.44942
-7.47888
-7.50833
-7.53766
-7.5668
-7.59564
-7.62408
-7.65202
-7.67932
-7.70588
-7.73156
-7.75622
-7.77973
-7.80192
-7.82265
-7.84176
-7.85908
-7.87445
-7.88769
-7.89862
-7.90706
-7.91284
-7.91576
-7.91565
-7.91231
-7.90555
-7.89519
-7.88105
-7.86294
-7.84067
-7.81407
-7.78295
-7.74716
-7.70651
-7.66084
-7.61
-7.55383
-7.49217
-7.42489
-7.35185
-7.27292
-7.18796
-7.09686
-6.99951
-6.8958
-6.78564
-6.66897
-6.5457
-6.4158
-6.27921
-6.13589
-5.98584
-5.82902
-5.66544
-5.49513
-5.31811
-5.13444
-4.94418
-4.74741
-4.54423
-4.33474
-4.11908
-3.8974
-3.66984
-3.43658
-3.19781
-2.95372
-2.70453
-2.45047
-2.19178
-1.9287
-1.6615
-1.39044
-1.11581
-0.837886
-0.55697
-0.273359
0.0126408
0.300719
0.590562
0.881855
1.17428
1.46753
1.76128
2.05522
2.34904
2.64244
2.93511
3.22677
3.51712
3.80588
4.09278
4.37757
4.65999
4.9398
5.21676
5.49067
5.76131
6.02849
6.29203
6.55175
6.80749
7.05912
7.3065
7.5495
7.78802
8.02195
8.25121
8.47571
8.69538
8.91013
9.1199
9.3246
9.52416
9.71862
9.90794
10.0921
10.2711
10.4449
10.6135
10.777
10.9356
11.0894
11.2386
11.3842
11.5242
11.6689
11.7714
-6.70448
-6.70931
-6.71545
-6.72078
-6.72484
-6.72805
-6.73079
-6.73334
-6.73589
-6.73857
-6.7415
-6.74476
-6.74842
-6.75252
-6.75712
-6.76223
-6.76791
-6.77418
-6.78106
-6.78859
-6.79679
-6.80569
-6.81531
-6.82568
-6.83681
-6.84872
-6.86143
-6.87495
-6.8893
-6.90447
-6.92049
-6.93734
-6.95504
-6.97357
-6.99292
-7.01311
-7.0341
-7.05587
-7.07837
-7.10154
-7.12538
-7.14988
-7.17504
-7.20084
-7.22725
-7.2542
-7.28166
-7.30956
-7.33785
-7.36649
-7.3954
-7.42453
-7.45382
-7.48318
-7.51254
-7.54181
-7.57091
-7.59973
-7.62817
-7.65612
-7.68346
-7.71006
-7.7358
-7.76054
-7.78414
-7.80644
-7.82728
-7.84652
-7.86398
-7.8795
-7.8929
-7.904
-7.91262
-7.91858
-7.9217
-7.92179
-7.91865
-7.91211
-7.90198
-7.88806
-7.87019
-7.84816
-7.82181
-7.79096
-7.75543
-7.71506
-7.66968
-7.61913
-7.56327
-7.50193
-7.43499
-7.36229
-7.28371
-7.19912
-7.1084
-7.01144
-6.90815
-6.79842
-6.68218
-6.55935
-6.42988
-6.29372
-6.15083
-6.0012
-5.8448
-5.68165
-5.51176
-5.33516
-5.15191
-4.96207
-4.76572
-4.56296
-4.3539
-4.13866
-3.9174
-3.69025
-3.45741
-3.21905
-2.97537
-2.72659
-2.47293
-2.21464
-1.95195
-1.68512
-1.41444
-1.14018
-0.862612
-0.582042
-0.298767
-0.0130916
0.274674
0.564217
0.855224
1.14738
1.44037
1.73388
2.02759
2.3212
2.6144
2.9069
3.19839
3.4886
3.77723
4.06403
4.34873
4.63107
4.91083
5.18776
5.46165
5.73228
5.99948
6.26304
6.52281
6.77863
7.03034
7.27781
7.52093
7.75957
7.99364
8.22303
8.44768
8.6675
8.8824
9.09231
9.29715
9.49688
9.69148
9.88095
10.0653
10.2444
10.4183
10.5871
10.7508
10.9093
11.063
11.2119
11.3566
11.4947
11.6364
11.7297
-6.70318
-6.70843
-6.71519
-6.72118
-6.72587
-6.72966
-6.73295
-6.736
-6.73901
-6.74212
-6.74545
-6.74909
-6.75311
-6.75756
-6.76248
-6.76792
-6.77391
-6.78048
-6.78766
-6.79548
-6.80396
-6.81312
-6.823
-6.8336
-6.84496
-6.85708
-6.86997
-6.88366
-6.89814
-6.91343
-6.92953
-6.94643
-6.96415
-6.98267
-7.00198
-7.02208
-7.04296
-7.06458
-7.08693
-7.10997
-7.13369
-7.15807
-7.18309
-7.20874
-7.23498
-7.26178
-7.28908
-7.31685
-7.34503
-7.37358
-7.40242
-7.4315
-7.46075
-7.4901
-7.51946
-7.54876
-7.57789
-7.60676
-7.63527
-7.6633
-7.69074
-7.71745
-7.74331
-7.76817
-7.79189
-7.81433
-7.83532
-7.85471
-7.87232
-7.88799
-7.90154
-7.91279
-7.92157
-7.92769
-7.93096
-7.9312
-7.92822
-7.92183
-7.91185
-7.89808
-7.88036
-7.85848
-7.83228
-7.80158
-7.7662
-7.72599
-7.68077
-7.63039
-7.57469
-7.51353
-7.44676
-7.37426
-7.29588
-7.21149
-7.12099
-7.02426
-6.9212
-6.81171
-6.69571
-6.57311
-6.44387
-6.30793
-6.16527
-6.01585
-5.85967
-5.69673
-5.52705
-5.35067
-5.16764
-4.97802
-4.7819
-4.57936
-4.37053
-4.15552
-3.93449
-3.70758
-3.47498
-3.23686
-2.99342
-2.74489
-2.49147
-2.23341
-1.97097
-1.70439
-1.43395
-1.15993
-0.882603
-0.602269
-0.319225
-0.0337784
0.253763
0.543088
0.83388
1.12583
1.41862
1.71193
2.00546
2.2989
2.59193
2.88427
3.17561
3.46568
3.75419
4.04087
4.32546
4.60771
4.88738
5.16424
5.43807
5.70867
5.97583
6.23938
6.49915
6.75497
7.0067
7.25421
7.49737
7.73606
7.97019
8.19966
8.42439
8.64428
8.85927
9.06926
9.2742
9.47403
9.66873
9.8583
10.0427
10.2219
10.396
10.5648
10.7285
10.887
11.0404
11.1887
11.3323
11.4683
11.6074
11.6927
-6.70442
-6.70988
-6.71697
-6.72337
-6.7285
-6.73273
-6.73646
-6.73994
-6.74335
-6.74685
-6.75054
-6.75452
-6.75887
-6.76363
-6.76886
-6.7746
-6.78087
-6.78772
-6.79517
-6.80324
-6.81197
-6.82136
-6.83146
-6.84226
-6.8538
-6.86608
-6.87912
-6.89293
-6.90751
-6.92288
-6.93903
-6.95596
-6.97368
-6.99218
-7.01146
-7.0315
-7.0523
-7.07384
-7.0961
-7.11905
-7.14269
-7.167
-7.19196
-7.21753
-7.24371
-7.27044
-7.2977
-7.32543
-7.3536
-7.38213
-7.41099
-7.44011
-7.46941
-7.49882
-7.52827
-7.55766
-7.5869
-7.61589
-7.64453
-7.6727
-7.70028
-7.72714
-7.75314
-7.77816
-7.80204
-7.82463
-7.84578
-7.86531
-7.88307
-7.89888
-7.91257
-7.92396
-7.93286
-7.93909
-7.94247
-7.9428
-7.93991
-7.93361
-7.9237
-7.91001
-7.89234
-7.87053
-7.84438
-7.81373
-7.7784
-7.73823
-7.69306
-7.64272
-7.58707
-7.52596
-7.45925
-7.38681
-7.30849
-7.22418
-7.13376
-7.03711
-6.93413
-6.82472
-6.70879
-6.58626
-6.45708
-6.32121
-6.1786
-6.02923
-5.87311
-5.71022
-5.5406
-5.36428
-5.18132
-4.99176
-4.79571
-4.59325
-4.3845
-4.16959
-3.94866
-3.72186
-3.48936
-3.25136
-3.00805
-2.75964
-2.50635
-2.24844
-1.98614
-1.71971
-1.44942
-1.17556
-0.898394
-0.618224
-0.335346
-0.0500672
0.237305
0.526459
0.817082
1.10886
1.40148
1.69463
1.98799
2.28126
2.57414
2.86632
3.15751
3.44743
3.7358
4.02235
4.30681
4.58895
4.86851
5.14527
5.41901
5.68952
5.95661
6.2201
6.47981
6.73559
6.98729
7.23477
7.47792
7.71661
7.95075
8.18024
8.40498
8.6249
8.83992
9.04995
9.25494
9.45483
9.6496
9.83923
10.0237
10.203
10.377
10.5458
10.7094
10.8677
11.0208
11.1684
11.3108
11.4448
11.5814
11.6598
-6.70812
-6.71358
-6.72075
-6.72732
-6.73269
-6.73723
-6.74127
-6.74506
-6.74879
-6.75258
-6.75656
-6.76082
-6.76543
-6.77045
-6.77593
-6.78189
-6.7884
-6.79546
-6.80311
-6.81138
-6.82029
-6.82985
-6.8401
-6.85105
-6.86271
-6.87511
-6.88824
-6.90212
-6.91677
-6.93218
-6.94835
-6.9653
-6.98302
-7.00151
-7.02076
-7.04077
-7.06153
-7.08303
-7.10525
-7.12818
-7.1518
-7.1761
-7.20105
-7.22664
-7.25282
-7.27958
-7.30688
-7.33466
-7.36289
-7.39151
-7.42046
-7.44968
-7.4791
-7.50865
-7.53824
-7.56778
-7.59719
-7.62635
-7.65515
-7.68349
-7.71124
-7.73827
-7.76445
-7.78963
-7.81367
-7.83642
-7.8577
-7.87737
-7.89525
-7.91117
-7.92496
-7.93643
-7.9454
-7.95169
-7.95511
-7.95548
-7.95261
-7.94631
-7.9364
-7.92269
-7.905
-7.88315
-7.85697
-7.82627
-7.79089
-7.75066
-7.70543
-7.65504
-7.59933
-7.53817
-7.47141
-7.39891
-7.32055
-7.23621
-7.14575
-7.04906
-6.94603
-6.83657
-6.72057
-6.59798
-6.46873
-6.33279
-6.19011
-6.04067
-5.88447
-5.72153
-5.55184
-5.37547
-5.19245
-5.00286
-4.80678
-4.6043
-4.39553
-4.18062
-3.95969
-3.7329
-3.50044
-3.26247
-3.0192
-2.77085
-2.51764
-2.2598
-1.99758
-1.73125
-1.46107
-1.18731
-0.91027
-0.630228
-0.347485
-0.062347
0.224879
0.513882
0.804349
1.09597
1.38842
1.6814
1.97459
2.26769
2.5604
2.85241
3.14344
3.43319
3.72139
4.00778
4.29209
4.57407
4.85349
5.13011
5.40371
5.6741
5.94107
6.20445
6.46406
6.71975
6.97137
7.21878
7.46187
7.70051
7.93461
8.16406
8.38878
8.60868
8.82369
9.03373
9.23873
9.43864
9.63344
9.82309
10.0076
10.1869
10.3609
10.5296
10.6931
10.8511
11.0037
11.1505
11.2917
11.4236
11.5581
11.6306
-6.71401
-6.71931
-6.72632
-6.73284
-6.73829
-6.74297
-6.74719
-6.75118
-6.7551
-6.75909
-6.76327
-6.76771
-6.77249
-6.77768
-6.78331
-6.78943
-6.79607
-6.80326
-6.81103
-6.81942
-6.82843
-6.83809
-6.84843
-6.85945
-6.87118
-6.88363
-6.89681
-6.91073
-6.9254
-6.94083
-6.95702
-6.97397
-6.99169
-7.01017
-7.02942
-7.04943
-7.07019
-7.09169
-7.11393
-7.13689
-7.16055
-7.18489
-7.20991
-7.23556
-7.26184
-7.28869
-7.31609
-7.344
-7.37236
-7.40112
-7.43023
-7.45961
-7.48921
-7.51893
-7.54871
-7.57844
-7.60803
-7.63738
-7.66637
-7.69489
-7.72281
-7.75001
-7.77635
-7.80167
-7.82584
-7.84871
-7.8701
-7.88985
-7.9078
-7.92378
-7.9376
-7.94909
-7.95806
-7.96433
-7.96772
-7.96804
-7.9651
-7.95872
-7.94872
-7.9349
-7.9171
-7.89512
-7.8688
-7.83797
-7.80244
-7.76207
-7.71669
-7.66615
-7.6103
-7.54899
-7.48209
-7.40946
-7.33097
-7.24649
-7.1559
-7.05907
-6.95588
-6.84625
-6.73009
-6.60733
-6.47791
-6.3418
-6.19895
-6.04936
-5.893
-5.72991
-5.56008
-5.38358
-5.20044
-5.01074
-4.81456
-4.61199
-4.40316
-4.18818
-3.96721
-3.7404
-3.50791
-3.26994
-3.02669
-2.77836
-2.52518
-2.2674
-2.00525
-1.73899
-1.4689
-1.19524
-0.918313
-0.638398
-0.355795
-0.0708058
0.216263
0.505102
0.795398
1.08684
1.37911
1.6719
1.9649
2.2578
2.55031
2.84212
3.13294
3.42249
3.71049
3.99668
4.28079
4.56258
4.8418
5.11824
5.39166
5.66188
5.92868
6.19191
6.45137
6.70692
6.95841
7.20571
7.44869
7.68723
7.92124
8.15062
8.37527
8.59512
8.81008
9.02009
9.22507
9.42497
9.61977
9.80942
9.99389
10.1731
10.3471
10.5158
10.679
10.8367
10.9888
11.1347
11.2746
11.4046
11.537
11.6046
-6.72172
-6.72673
-6.73339
-6.73969
-6.74505
-6.74971
-6.75397
-6.75802
-6.76202
-6.76609
-6.77035
-6.77486
-6.77971
-6.78495
-6.79064
-6.7968
-6.80348
-6.81071
-6.81852
-6.82693
-6.83597
-6.84565
-6.85601
-6.86704
-6.87878
-6.89123
-6.90442
-6.91834
-6.93301
-6.94843
-6.96462
-6.98158
-6.99931
-7.01781
-7.03708
-7.05711
-7.07791
-7.09946
-7.12176
-7.14479
-7.16854
-7.19299
-7.21812
-7.2439
-7.27031
-7.29732
-7.32488
-7.35295
-7.38149
-7.41044
-7.43973
-7.46931
-7.4991
-7.52902
-7.55898
-7.5889
-7.61867
-7.64819
-7.67735
-7.70602
-7.73408
-7.76141
-7.78785
-7.81326
-7.8375
-7.86042
-7.88184
-7.9016
-7.91954
-7.93548
-7.94925
-7.96066
-7.96954
-7.9757
-7.97895
-7.97912
-7.97602
-7.96947
-7.95928
-7.94526
-7.92725
-7.90506
-7.87852
-7.84746
-7.81171
-7.77112
-7.72551
-7.67475
-7.61868
-7.55716
-7.49005
-7.41722
-7.33854
-7.25385
-7.16304
-7.06597
-6.96254
-6.85266
-6.73625
-6.61325
-6.4836
-6.34726
-6.20419
-6.05437
-5.89782
-5.73452
-5.56452
-5.38785
-5.20456
-5.01472
-4.81841
-4.61574
-4.40681
-4.19176
-3.97073
-3.74388
-3.51137
-3.2734
-3.03016
-2.78187
-2.52874
-2.27102
-2.00895
-1.74279
-1.47281
-1.19928
-0.922492
-0.64273
-0.360295
-0.0754844
0.211395
0.500034
0.790122
1.08135
1.37339
1.66594
1.9587
2.25136
2.54362
2.83518
3.12575
3.41504
3.70279
3.98872
4.27258
4.55412
4.8331
5.10929
5.38249
5.65247
5.91906
6.18208
6.44134
6.6967
6.94802
7.19515
7.43798
7.67638
7.91026
8.13953
8.36408
8.58383
8.79872
9.00866
9.2136
9.41347
9.60824
9.79787
9.9823
10.1615
10.3354
10.5039
10.6669
10.8242
10.9757
11.1207
11.2593
11.3875
11.5179
11.5814
-6.73084
-6.73546
-6.74165
-6.74758
-6.75269
-6.7572
-6.76135
-6.76533
-6.76926
-6.77328
-6.77748
-6.78194
-6.78674
-6.79192
-6.79755
-6.80365
-6.81027
-6.81744
-6.82519
-6.83355
-6.84253
-6.85216
-6.86247
-6.87346
-6.88516
-6.89758
-6.91073
-6.92463
-6.93928
-6.9547
-6.97089
-6.98785
-7.0056
-7.02413
-7.04344
-7.06353
-7.0844
-7.10603
-7.12843
-7.15157
-7.17545
-7.20003
-7.22531
-7.25126
-7.27784
-7.30502
-7.33276
-7.36102
-7.38974
-7.41887
-7.44835
-7.47811
-7.50807
-7.53815
-7.56826
-7.59832
-7.62822
-7.65785
-7.6871
-7.71584
-7.74396
-7.77131
-7.79776
-7.82317
-7.84737
-7.87022
-7.89156
-7.91122
-7.92903
-7.94482
-7.95842
-7.96964
-7.97831
-7.98424
-7.98725
-7.98717
-7.9838
-7.97697
-7.96649
-7.95219
-7.93388
-7.9114
-7.88456
-7.85321
-7.81717
-7.77629
-7.73041
-7.67938
-7.62305
-7.56127
-7.49392
-7.42085
-7.34191
-7.25695
-7.16584
-7.06847
-6.96475
-6.85458
-6.73788
-6.6146
-6.48468
-6.34808
-6.20477
-6.05472
-5.89795
-5.73446
-5.56428
-5.38744
-5.204
-5.01404
-4.81762
-4.61486
-4.40587
-4.19077
-3.96971
-3.74285
-3.51035
-3.27241
-3.02923
-2.78101
-2.52797
-2.27036
-2.00842
-1.74241
-1.47259
-1.19924
-0.922644
-0.643092
-0.360882
-0.0763109
0.210317
0.498692
0.788505
1.07944
1.3712
1.66345
1.9559
2.24825
2.54019
2.83143
3.12167
3.41065
3.69807
3.98368
4.26723
4.54845
4.82712
5.10301
5.37591
5.64562
5.91193
6.17468
6.43369
6.68881
6.9399
7.18682
7.42945
7.66767
7.90138
8.13049
8.35491
8.57454
8.78933
8.99918
9.20405
9.40387
9.59859
9.78817
9.97255
10.1517
10.3254
10.4937
10.6565
10.8134
10.9642
11.1083
11.2457
11.3721
11.5006
11.5609
-6.74098
-6.74517
-6.75079
-6.75623
-6.76098
-6.76519
-6.76908
-6.77282
-6.77654
-6.78036
-6.78436
-6.78863
-6.79324
-6.79824
-6.80369
-6.80963
-6.81609
-6.82311
-6.83071
-6.83894
-6.8478
-6.85732
-6.86752
-6.87842
-6.89004
-6.90239
-6.91549
-6.92935
-6.94397
-6.95937
-6.97556
-6.99254
-7.01032
-7.02889
-7.04826
-7.06843
-7.08938
-7.11112
-7.13363
-7.1569
-7.18091
-7.20564
-7.23107
-7.25717
-7.2839
-7.31124
-7.33913
-7.36753
-7.39639
-7.42565
-7.45524
-7.4851
-7.51515
-7.5453
-7.57546
-7.60555
-7.63545
-7.66507
-7.69427
-7.72295
-7.75098
-7.77822
-7.80453
-7.82977
-7.85379
-7.87643
-7.89754
-7.91694
-7.93448
-7.94998
-7.96327
-7.97417
-7.9825
-7.98809
-7.99074
-7.9903
-7.98656
-7.97936
-7.96852
-7.95385
-7.93519
-7.91236
-7.88518
-7.8535
-7.81714
-7.77596
-7.72978
-7.67847
-7.62187
-7.55984
-7.49224
-7.4189
-7.33965
-7.25436
-7.16293
-7.06524
-6.96121
-6.85074
-6.73376
-6.61021
-6.48003
-6.34319
-6.19965
-6.04941
-5.89245
-5.7288
-5.55847
-5.38151
-5.19797
-5.00792
-4.81145
-4.60866
-4.39965
-4.18456
-3.96354
-3.73673
-3.50432
-3.26648
-3.02342
-2.77535
-2.52249
-2.26507
-2.00333
-1.73755
-1.46798
-1.19489
-0.918578
-0.639324
-0.357425
-0.0731805
0.213107
0.501131
0.790581
1.08115
1.37252
1.66439
1.95645
2.24839
2.53993
2.83076
3.12061
3.40917
3.6962
3.98141
4.26456
4.5454
4.82369
5.09921
5.37175
5.6411
5.90707
6.1695
6.4282
6.68303
6.93383
7.18049
7.42287
7.66087
7.89438
8.1233
8.34754
8.56703
8.78169
8.99144
9.19621
9.39596
9.59062
9.78014
9.96445
10.1435
10.3171
10.4852
10.6476
10.8041
10.9543
11.0975
11.2336
11.3584
11.4851
11.5428
-6.75184
-6.75558
-6.7606
-6.76547
-6.76972
-6.77347
-6.77694
-6.78028
-6.7836
-6.78704
-6.79068
-6.79461
-6.79889
-6.80358
-6.80874
-6.8144
-6.82061
-6.82739
-6.83478
-6.8428
-6.85148
-6.86084
-6.8709
-6.88167
-6.89318
-6.90544
-6.91846
-6.93226
-6.94685
-6.96223
-6.97841
-6.9954
-7.0132
-7.03181
-7.05123
-7.07146
-7.09249
-7.11431
-7.1369
-7.16026
-7.18437
-7.20919
-7.23471
-7.26088
-7.28769
-7.31508
-7.34301
-7.37144
-7.40031
-7.42955
-7.4591
-7.4889
-7.51886
-7.5489
-7.57893
-7.60885
-7.63857
-7.66797
-7.69694
-7.72537
-7.75311
-7.78005
-7.80603
-7.83093
-7.85459
-7.87685
-7.89757
-7.91657
-7.93369
-7.94876
-7.96162
-7.97208
-7.97997
-7.98511
-7.98733
-7.98644
-7.98228
-7.97466
-7.9634
-7.94834
-7.92929
-7.90609
-7.87857
-7.84656
-7.80989
-7.76841
-7.72197
-7.67041
-7.61358
-7.55132
-7.48344
-7.40978
-7.3302
-7.24459
-7.15285
-7.05487
-6.95056
-6.83983
-6.72262
-6.59884
-6.46846
-6.33143
-6.18774
-6.03736
-5.88029
-5.71655
-5.54616
-5.36916
-5.18561
-4.99557
-4.79914
-4.59641
-4.38749
-4.17251
-3.95163
-3.72498
-3.49276
-3.25513
-3.01231
-2.7645
-2.51191
-2.25479
-1.99338
-1.72794
-1.45873
-1.18602
-0.910105
-0.631262
-0.34979
-0.0659843
0.219851
0.507411
0.796388
1.08647
1.37735
1.66873
1.96029
2.25174
2.54277
2.8331
3.12244
3.41051
3.69704
3.98177
4.26444
4.5448
4.82263
5.0977
5.36981
5.63874
5.90431
6.16634
6.42467
6.67915
6.92962
7.17597
7.41806
7.65579
7.88905
8.11776
8.3418
8.56112
8.77563
8.98525
9.18993
9.38959
9.58418
9.77363
9.95787
10.1368
10.3103
10.4782
10.6403
10.7963
10.9458
11.0881
11.223
11.3462
11.4712
11.5269
-6.76368
-6.767
-6.7714
-6.77561
-6.77919
-6.78229
-6.7851
-6.78779
-6.7905
-6.79334
-6.79642
-6.79981
-6.8036
-6.80783
-6.81257
-6.81784
-6.82369
-6.83015
-6.83724
-6.84499
-6.85342
-6.86256
-6.87242
-6.88302
-6.89437
-6.9065
-6.9194
-6.9331
-6.9476
-6.96292
-6.97904
-6.99599
-7.01376
-7.03234
-7.05174
-7.07195
-7.09295
-7.11475
-7.13731
-7.16063
-7.18468
-7.20943
-7.23486
-7.26093
-7.2876
-7.31484
-7.34259
-7.37081
-7.39944
-7.42842
-7.45769
-7.48717
-7.51679
-7.54646
-7.5761
-7.60561
-7.63489
-7.66384
-7.69234
-7.72027
-7.74751
-7.77393
-7.79939
-7.82376
-7.84687
-7.86859
-7.88876
-7.90721
-7.92378
-7.93831
-7.95062
-7.96055
-7.96792
-7.97255
-7.97428
-7.97292
-7.96829
-7.96024
-7.94857
-7.93311
-7.9137
-7.89017
-7.86234
-7.83005
-7.79314
-7.75145
-7.70483
-7.6531
-7.59608
-7.53355
-7.46538
-7.39142
-7.31156
-7.2257
-7.13372
-7.03553
-6.93103
-6.82013
-6.70277
-6.57887
-6.44839
-6.3113
-6.16756
-6.01716
-5.8601
-5.6964
-5.52607
-5.34917
-5.16574
-4.97585
-4.77959
-4.57707
-4.36838
-4.15367
-3.93306
-3.70673
-3.47485
-3.23758
-2.99515
-2.74774
-2.49559
-2.23893
-1.978
-1.71305
-1.44436
-1.17218
-0.896813
-0.618533
-0.337637