/*--------------------------------*- C++ -*----------------------------------*\
  =========                 |
  \\      /  F ield         | OpenFOAM: The Open Source CFD Toolbox
   \\    /   O peration     | Website:  https://openfoam.org
    \\  /    A nd           | Version:  9
     \\/     M anipulation  |
\*---------------------------------------------------------------------------*/
FoamFile
{
    format      ascii;
    class       volScalarField;
    location    "0.28";
    object      epsilon;
}
// * * * * * * * * * * * * * * * * * * * * * * * * * * * * * * * * * * * * * //

dimensions      [0 2 -3 0 0 0 0];

internalField   nonuniform List<scalar> 
12225
(
278.515
263.66
249.434
236.839
226.738
219.483
215.069
213.262
213.704
215.988
219.71
224.499
230.037
236.058
242.362
248.779
255.344
264.849
61.116
86.6952
97.9911
107.207
118.464
132.555
149.408
168.607
189.57
211.672
234.322
257.009
279.327
300.978
321.87
341.836
362.387
380.912
25.2776
36.183
43.3817
48.6211
53.386
58.3356
63.7696
69.824
76.5238
83.8207
91.6244
99.8255
108.312
116.985
125.776
134.663
143.795
153.162
17.5217
21.2986
24.7145
27.6099
30.1618
32.5398
34.8663
37.2274
39.6762
42.2394
44.9242
47.7263
50.6345
53.6363
56.7229
59.9015
63.1904
66.6149
15.4878
16.7519
18.1858
19.5888
20.9094
22.1489
23.3262
24.465
25.586
26.7046
27.8305
28.9694
30.124
31.2959
32.4866
33.7009
34.9436
36.2113
14.9084
15.2396
15.7463
16.334
16.9476
17.5589
18.1557
18.7355
19.3
19.8524
20.3958
20.9331
21.4661
21.9969
22.5269
23.0586
23.5936
24.1261
14.7451
14.7391
14.8342
15.0036
15.2215
15.4679
15.7285
15.9948
16.2619
16.5273
16.79
17.0497
17.3062
17.56
17.8116
18.0616
18.3104
18.554
14.7012
14.5825
14.5116
14.4858
14.4981
14.5403
14.6043
14.6837
14.7736
14.8707
14.9724
15.0771
15.1835
15.2911
15.3994
15.5081
15.617
15.7234
14.6901
14.5373
14.407
14.3009
14.2182
14.1571
14.1145
14.0875
14.0732
14.0692
14.0735
14.0844
14.1006
14.1211
14.1451
14.1721
14.2015
14.2317
14.6874
14.5252
14.3761
14.2411
14.1204
14.0137
13.9203
13.8391
13.7688
13.7083
13.6564
13.6119
13.574
13.5418
13.5147
13.4919
13.473
13.4572
14.6868
14.5221
14.3677
14.2236
14.0896
13.9656
13.8512
13.746
13.6495
13.5611
13.4801
13.4061
13.3383
13.2764
13.2197
13.1678
13.1203
13.0771
14.6866
14.5213
14.3656
14.219
14.0812
13.9518
13.8305
13.7169
13.6105
13.5111
13.4182
13.3314
13.2504
13.1747
13.104
13.038
12.9764
12.9194
14.6865
14.521
14.3648
14.2175
14.0785
13.9473
13.8234
13.7065
13.5963
13.4922
13.3941
13.3016
13.2143
13.1319
13.0543
12.9811
12.912
12.8476
14.6864
14.5208
14.3645
14.2169
14.0774
13.9456
13.8209
13.7029
13.5913
13.4855
13.3853
13.2904
13.2005
13.1153
13.0345
12.9579
12.8853
12.8172
14.6864
14.5207
14.3643
14.2165
14.0769
13.9449
13.8199
13.7016
13.5895
13.4832
13.3824
13.2868
13.196
13.1098
13.0279
12.9501
12.8762
12.8068
14.6863
14.5206
14.3641
14.2163
14.0766
13.9444
13.8194
13.7009
13.5886
13.4822
13.3812
13.2854
13.1943
13.1079
13.0257
12.9475
12.8732
12.8034
14.6863
14.5205
14.364
14.2161
14.0763
13.9441
13.8189
13.7004
13.5881
13.4815
13.3805
13.2845
13.1934
13.1068
13.0245
12.9462
12.8718
12.8018
14.6863
14.5204
14.3639
14.216
14.0761
13.9439
13.8186
13.7001
13.5877
13.4811
13.3799
13.2839
13.1927
13.1061
13.0237
12.9454
12.8709
12.8007
14.6863
14.5204
14.3639
14.2159
14.0761
13.9438
13.8185
13.6999
13.5875
13.4809
13.3797
13.2837
13.1924
13.1057
13.0233
12.9449
12.8704
12.8002
14.6863
14.5205
14.3639
14.216
14.0762
13.9439
13.8187
13.7001
13.5877
13.4811
13.38
13.284
13.1928
13.1061
13.0237
12.9453
12.8709
12.8007
14.6863
14.5205
14.364
14.2162
14.0764
13.9443
13.8192
13.7007
13.5885
13.4821
13.3812
13.2854
13.1945
13.1082
13.0262
12.9482
12.8742
12.8046
14.6863
14.5206
14.3643
14.2167
14.0773
13.9457
13.8214
13.7039
13.5928
13.4878
13.3886
13.2947
13.2059
13.1218
13.0423
12.9669
12.8956
12.8288
14.6865
14.5212
14.3659
14.2202
14.0837
13.956
13.8368
13.7255
13.6218
13.525
13.4348
13.3506
13.272
13.1986
13.13
13.0659
13.006
12.9505
14.6876
14.5264
14.3793
14.2467
14.1282
14.0231
13.9302
13.8484
13.7762
13.7126
13.6565
13.6068
13.5628
13.5237
13.489
13.4581
13.4306
13.4066
14.6976
14.5664
14.4707
14.4075
14.3715
14.3568
14.3585
14.372
14.3941
14.4224
14.4551
14.4908
14.5287
14.5681
14.6085
14.6497
14.6914
14.7334
14.7737
14.8187
14.9603
15.1591
15.3863
15.6233
15.8598
16.0905
16.3135
16.5285
16.7359
16.9366
17.1314
17.3211
17.5066
17.6884
17.867
18.0419
15.2587
16.1151
17.0712
17.9727
18.7879
19.5239
20.1945
20.8149
21.3989
21.9574
22.4988
23.0292
23.5529
24.0728
24.5905
25.1071
25.6226
26.1345
18.0414
22.0079
24.9885
27.1533
28.8884
30.405
31.8126
33.1787
34.5441
35.9315
37.3518
38.8089
40.302
41.827
43.3784
44.9498
46.5347
48.12
34.024
45.6879
51.3769
54.9426
58.0812
61.2985
64.7516
68.4843
72.4808
76.698
81.0856
85.594
90.1767
94.7919
99.4038
103.984
108.516
112.973
163.308
157.417
151.704
146.261
141.3
136.947
133.25
130.206
127.781
125.919
124.559
123.638
123.094
122.871
122.918
123.188
123.643
124.244
0.188861
0.236022
0.392406
0.529823
0.668939
0.83538
1.02911
1.25625
1.52359
1.83031
2.15506
2.49879
2.85923
3.23334
3.61802
4.01031
4.40734
4.80635
5.20464
5.59955
5.98841
6.3686
6.73747
7.09245
7.431
7.75062
8.04879
8.32281
8.56965
8.78577
8.96749
9.11194
9.21891
9.29261
9.34109
39.5527
39.6551
9.40321
9.30953
9.37582
9.32891
9.44197
40.8955
40.5212
42.4012
45.3289
48.5088
51.8731
55.4115
59.1215
63.0024
67.0548
71.2802
75.6804
80.2574
85.0132
89.9501
95.0699
100.375
105.866
111.544
117.412
123.468
129.715
136.151
142.776
149.59
156.591
163.776
171.145
178.693
186.419
194.317
202.384
210.616
219.006
227.55
236.241
245.073
254.039
263.131
272.342
281.664
291.088
300.606
310.208
319.884
329.625
339.421
349.26
359.131
369.023
378.923
388.821
398.703
408.56
418.384
428.172
437.934
447.699
457.444
467.059
476.541
485.884
495.074
504.097
512.938
521.579
530.007
538.205
546.158
553.851
561.269
568.399
575.228
581.741
587.927
593.774
599.271
604.407
609.173
613.56
617.562
621.169
624.377
627.18
629.574
631.555
633.122
634.272
635.006
635.325
635.229
634.722
633.808
632.49
630.775
628.67
626.18
623.317
620.087
616.502
612.571
608.307
603.722
598.829
593.64
588.17
582.434
576.445
570.22
563.773
557.12
550.278
543.262
536.086
528.771
521.329
513.778
506.135
498.401
490.628
482.787
474.949
467.192
460.362
457.148
454.49
451.85
449.199
446.537
443.864
441.172
438.44
435.624
432.619
429.194
424.743
417.789
401.876
0.729259
0.457674
0.4722
0.541988
0.64509
0.776995
0.935916
1.12299
1.33803
1.57875
1.84114
2.12254
2.42071
2.73362
3.05943
3.39643
3.74305
4.09787
4.45963
4.82727
5.20001
5.57741
5.95948
6.34678
6.7406
7.14311
7.55765
7.98923
8.44532
8.93689
9.47932
10.0921
10.7987
11.637
12.73
14.605
15.5577
15.8934
17.3309
18.6384
20.2126
21.6825
23.7125
25.5494
27.1886
28.8056
30.4531
32.1541
33.9141
35.7351
37.6189
39.567
41.5807
43.661
45.8089
48.0252
50.3106
52.6657
55.0909
57.5865
60.1527
62.7894
65.4966
68.274
71.1213
74.038
77.0233
80.0765
83.1966
86.3826
89.6331
92.9467
96.322
99.7572
103.25
106.8
110.403
114.058
117.763
121.514
125.309
129.146
133.021
136.931
140.873
144.844
148.84
152.858
156.893
160.943
165.001
169.066
173.132
177.195
181.253
185.301
189.341
193.374
197.407
201.46
205.544
209.591
213.591
217.538
221.426
225.251
229.005
232.683
236.279
239.786
243.2
246.513
249.721
252.818
255.798
258.657
261.39
263.991
266.456
268.781
270.962
272.996
274.879
276.608
278.18
279.592
280.844
281.932
282.856
283.614
284.207
284.633
284.893
284.987
284.917
284.683
284.287
283.731
283.017
282.149
281.128
279.96
278.646
277.191
275.6
273.877
272.027
270.054
267.964
265.762
263.455
261.047
258.544
255.953
253.28
250.529
247.71
244.826
241.885
238.893
235.847
232.777
229.649
226.526
223.454
220.612
218.443
216.469
214.536
212.614
210.699
208.79
206.888
204.993
203.099
201.201
199.274
197.306
195.173
193.922
1.46377
0.772915
0.716183
0.765275
0.855524
0.977311
1.12798
1.30633
1.51085
1.73931
1.98908
2.25773
2.54321
2.84385
3.15835
3.48569
3.82511
4.17613
4.53848
4.91222
5.29774
5.69582
6.10774
6.53532
6.98099
7.44789
7.93998
8.4622
9.02071
9.623
10.2774
10.9915
11.7695
12.6114
13.517
14.5039
15.4983
16.5111
17.6064
18.7119
19.8624
21.0569
22.3438
23.6788
25.0146
26.368
27.7594
29.1983
30.6876
32.2282
33.8208
35.4657
37.1634
38.9144
40.7189
42.5773
44.4898
46.4566
48.478
50.5539
52.6843
54.8693
57.1085
59.4018
61.7488
64.1492
66.6023
69.1076
71.6644
74.2718
76.9289
79.6348
82.3882
85.188
88.0327
90.921
93.8513
96.8219
99.831
102.877
105.957
109.071
112.214
115.386
118.583
121.804
125.046
128.306
131.581
134.869
138.167
141.474
144.785
148.1
151.417
154.735
158.054
161.376
164.701
168.033
171.35
174.639
177.89
181.099
184.261
187.372
190.425
193.416
196.341
199.194
201.971
204.666
207.276
209.795
212.22
214.546
216.77
218.886
220.893
222.785
224.56
226.216
227.749
229.156
230.436
231.587
232.606
233.493
234.246
234.865
235.349
235.698
235.912
235.991
235.936
235.748
235.429
234.98
234.402
233.699
232.872
231.925
230.86
229.68
228.389
226.99
225.488
223.886
222.189
220.4
218.526
216.569
214.534
212.428
210.254
208.015
205.721
203.372
200.976
198.539
196.047
193.549
191.026
188.499
186
183.604
181.441
179.387
177.376
175.384
173.407
171.445
169.501
167.577
165.681
163.822
162.018
160.332
158.852
158.372
2.3479
1.1405
0.997523
1.01388
1.09088
1.20643
1.35347
1.52882
1.73023
1.95544
2.20219
2.46832
2.752
3.0518
3.36669
3.69598
4.03936
4.39676
4.76845
5.15496
5.55714
5.97616
6.41352
6.87107
7.35102
7.85588
8.38852
8.95207
9.54999
10.1859
10.8632
11.5842
12.3497
13.1586
14.009
14.9015
15.8323
16.8028
17.8156
18.8652
19.9571
21.0954
22.2827
23.5125
24.7767
26.0769
27.4183
28.8046
30.2381
31.7197
33.2504
34.8306
36.4609
38.1417
39.8734
41.6564
43.4909
45.3774
47.3161
49.3072
51.3509
53.4472
55.5962
57.7979
60.0521
62.3587
64.7174
67.1278
69.5894
72.1017
74.664
77.2754
79.9352
82.6422
85.3953
88.1933
91.0348
93.9184
96.8423
99.8048
102.804
105.839
108.906
112.003
115.13
118.282
121.458
124.655
127.871
131.103
134.35
137.607
140.875
144.149
147.429
150.714
154.001
157.29
160.577
163.853
167.108
170.332
173.519
176.665
179.764
182.811
185.801
188.729
191.59
194.379
197.091
199.721
202.266
204.719
207.078
209.337
211.493
213.542
215.48
217.303
219.01
220.596
222.059
223.396
224.607
225.687
226.637
227.455
228.14
228.69
229.107
229.389
229.538
229.553
229.435
229.186
228.807
228.3
227.667
226.91
226.032
225.036
223.924
222.701
221.369
219.932
218.395
216.761
215.035
213.221
211.324
209.348
207.296
205.178
202.994
200.747
198.45
196.099
193.702
191.278
188.817
186.339
183.843
181.342
178.858
176.43
174.108
171.856
169.643
167.454
165.287
163.142
161.024
158.938
156.896
154.916
153.031
151.318
149.89
149.214
3.23648
1.52119
1.27636
1.25944
1.32287
1.43225
1.57602
1.74914
1.94857
2.17194
2.41713
2.6822
2.96555
3.26591
3.58242
3.91456
4.26216
4.62538
5.00463
5.40056
5.8141
6.24638
6.69877
7.17283
7.6703
8.19308
8.74317
9.32269
9.93377
10.5785
11.2589
11.9765
12.732
13.5257
14.3581
15.2296
16.1412
17.0939
18.0884
19.1246
20.204
21.328
22.4965
23.7081
24.9617
26.2578
27.5983
28.985
30.4194
31.9027
33.4358
35.0195
36.6546
38.3417
40.0815
41.8747
43.7218
45.6234
47.5801
49.5923
51.6606
53.7852
55.9666
58.2049
60.5003
62.8529
65.2628
67.7297
70.2534
72.8336
75.4697
78.1612
80.9073
83.7071
86.5595
89.4634
92.4174
95.42
98.4695
101.564
104.702
107.881
111.1
114.354
117.644
120.965
124.315
127.692
131.092
134.514
137.954
141.41
144.879
148.358
151.845
155.337
158.831
162.326
165.81
169.275
172.714
176.119
179.485
182.805
186.075
189.288
192.439
195.523
198.534
201.467
204.316
207.076
209.742
212.309
214.772
217.128
219.371
221.498
223.504
225.386
227.141
228.765
230.256
231.612
232.829
233.908
234.845
235.64
236.291
236.8
237.164
237.384
237.462
237.397
237.19
236.844
236.361
235.741
234.988
234.105
233.093
231.958
230.702
229.328
227.842
226.245
224.546
222.746
220.85
218.863
216.792
214.641
212.41
210.113
207.752
205.32
202.847
200.328
197.766
195.173
192.55
189.906
187.247
184.583
181.928
179.307
176.745
174.231
171.753
169.303
166.88
164.487
162.129
159.816
157.56
155.385
153.329
151.467
149.892
148.866
4.07257
1.87015
1.53469
1.48746
1.53798
1.64101
1.78108
1.9514
2.14824
2.36904
2.61172
2.87452
3.15602
3.45509
3.77097
4.10323
4.45179
4.81681
5.19874
5.59823
6.01616
6.45355
6.91161
7.3917
7.89529
8.42396
8.97936
9.56323
10.1773
10.8234
11.5031
12.2179
12.9692
13.758
14.5853
15.4523
16.3602
17.31
18.3026
19.3387
20.4193
21.5451
22.7166
23.9338
25.1969
26.5068
27.8645
29.2714
30.7289
32.2381
33.8003
35.4164
37.0877
38.8151
40.5996
42.4423
44.3441
46.3059
48.3286
50.4132
52.5604
54.771
57.0456
59.3848
61.7891
64.259
66.7946
69.3962
72.0636
74.7969
77.5956
80.4592
83.3872
86.3787
89.4326
92.5478
95.7228
98.956
102.246
105.59
108.987
112.433
115.927
119.466
123.048
126.668
130.325
134.015
137.736
141.482
145.253
149.043
152.85
156.67
160.499
164.334
168.171
172.005
175.82
179.611
183.37
187.091
190.767
194.393
197.961
201.465
204.899
208.257
211.532
214.719
217.811
220.803
223.688
226.463
229.12
231.655
234.064
236.342
238.485
240.488
242.348
244.062
245.627
247.04
248.3
249.404
250.352
251.141
251.771
252.242
252.554
252.708
252.703
252.542
252.226
251.756
251.136
250.368
249.454
248.398
247.203
245.874
244.414
242.829
241.121
239.296
237.36
235.319
233.175
230.932
228.604
226.192
223.691
221.127
218.5
215.809
213.07
210.285
207.459
204.6
201.713
198.805
195.884
192.956
190.035
187.137
184.276
181.452
178.662
175.905
173.18
170.493
167.85
165.263
162.746
160.325
158.039
155.953
154.134
152.727
4.79191
2.17959
1.76474
1.69002
1.72819
1.82455
1.96014
2.12666
2.31972
2.53651
2.77499
3.03352
3.31079
3.60583
3.91796
4.24682
4.59235
4.95475
5.33444
5.73208
6.14848
6.58462
7.04165
7.52081
8.02351
8.55122
9.1055
9.68801
10.3004
10.9444
11.6217
12.3339
13.0825
13.8689
14.6945
15.5606
16.4685
17.4194
18.4145
19.4547
20.5411
21.6747
22.8564
24.0869
25.3671
26.698
28.0809
29.5171
31.0081
32.5553
34.1602
35.8243
37.549
39.3357
41.186
43.1012
45.0828
47.1321
49.2505
51.4393
53.6997
56.0329
58.44
60.9219
63.4796
66.1138
68.825
71.6137
74.4802
77.4244
80.4463
83.5456
86.7215
89.9734
93.3002
96.7005
100.173
103.716
107.326
111.003
114.744
118.545
122.404
126.318
130.283
134.297
138.355
142.454
146.59
150.759
154.957
159.179
163.422
167.681
171.95
176.227
180.505
184.77
189.011
193.222
197.396
201.526
205.603
209.621
213.573
217.452
221.249
224.958
228.573
232.085
235.488
238.776
241.942
244.98
247.885
250.65
253.271
255.742
258.058
260.216
262.211
264.041
265.701
267.191
268.506
269.646
270.609
271.394
272
272.428
272.678
272.751
272.648
272.37
271.919
271.299
270.512
269.561
268.45
267.183
265.762
264.195
262.486
260.64
258.661
256.552
254.326
251.987
249.537
246.978
244.333
241.6
238.783
235.894
232.939
229.921
226.851
223.734
220.576
217.385
214.167
210.929
207.678
204.422
201.171
197.936
194.731
191.558
188.419
185.316
182.252
179.234
176.269
173.37
170.555
167.848
165.285
162.923
160.802
159.007
5.40664
2.44866
1.96329
1.86307
1.889
1.97806
2.10819
2.26971
2.4576
2.66882
2.9013
3.15348
3.42419
3.71255
4.018
4.34025
4.67928
5.03532
5.40881
5.8004
6.21092
6.64134
7.09279
7.56652
8.06391
8.58643
9.13566
9.71321
10.3208
10.9601
11.633
12.341
13.0858
13.8691
14.6924
15.5572
16.4649
17.417
18.4149
19.4598
20.5532
21.6964
22.8907
24.1373
25.4377
26.7933
28.2055
29.6762
31.207
32.7997
34.4563
36.1787
37.9687
39.8283
41.7595
43.7642
45.8444
48.0019
50.2385
52.5563
54.9567
57.4416
60.0124
62.6707
65.4176
68.2543
71.1818
74.2007
77.3116
80.5148
83.8102
87.1976
90.6766
94.2462
97.9054
101.653
105.486
109.404
113.404
117.483
121.638
125.867
130.165
134.529
138.955
143.439
147.977
152.563
157.194
161.865
166.571
171.306
176.064
180.842
185.632
190.428
195.223
199.995
204.737
209.442
214.102
218.709
223.255
227.731
232.13
236.442
240.659
244.774
248.777
252.663
256.422
260.047
263.532
266.87
270.053
273.076
275.934
278.62
281.129
283.457
285.599
287.552
289.313
290.88
292.249
293.421
294.392
295.163
295.732
296.101
296.271
296.242
296.016
295.595
294.982
294.18
293.193
292.026
290.682
289.165
287.479
285.632
283.631
281.481
279.186
276.744
274.182
271.499
268.699
265.789
262.781
259.681
256.494
253.229
249.895
246.498
243.046
239.546
236.005
232.431
228.831
225.212
221.582
217.948
214.319
210.706
207.118
203.562
200.041
196.562
193.128
189.748
186.43
183.189
180.042
177.015
174.139
171.46
169.001
166.814
5.91211
2.67467
2.12822
2.00451
2.01822
2.09927
2.22287
2.37815
2.5595
2.76366
2.98851
3.23256
3.49472
3.77426
4.07069
4.38382
4.71369
5.06058
5.42497
5.80754
6.20914
6.63077
7.07356
7.5388
8.02788
8.54227
9.08357
9.65344
10.2536
10.8858
11.5519
12.2536
12.9927
13.771
14.5902
15.4521
16.3584
17.3106
18.3106
19.3601
20.4607
21.6142
22.8223
24.0869
25.4098
26.793
28.2383
29.7481
31.3245
32.9697
34.6863
36.4765
38.343
40.2882
42.3147
44.425
46.6216
48.9071
51.2838
53.7543
56.3207
58.9853
61.7502
64.6172
67.588
70.6643
73.8473
77.138
80.5373
84.0455
87.6628
91.389
95.2237
99.1657
103.214
107.367
111.622
115.977
120.429
124.975
129.612
134.335
139.14
144.023
148.979
154.003
159.09
164.235
169.432
174.675
179.959
185.276
190.62
195.986
201.365
206.752
212.121
217.459
222.76
228.016
233.217
238.355
243.419
248.4
253.289
258.075
262.75
267.305
271.73
276.016
280.157
284.142
287.965
291.617
295.093
298.384
301.485
304.39
307.094
309.589
311.874
313.944
315.796
317.427
318.836
320.021
320.981
321.716
322.225
322.51
322.571
322.411
322.032
321.436
320.627
319.608
318.385
316.964
315.349
313.543
311.55
309.382
307.049
304.554
301.903
299.102
296.164
293.097
289.906
286.599
283.186
279.676
276.076
272.394
268.64
264.82
260.944
257.02
253.055
249.057
245.035
240.995
236.946
232.896
228.852
224.826
220.824
216.856
212.928
209.045
205.216
201.448
197.752
194.143
190.638
187.262
184.043
181.017
178.193
175.611
6.30816
2.85675
2.25902
2.11403
2.11564
2.18799
2.30405
2.45193
2.62551
2.82132
3.03721
3.27171
3.52384
3.79296
4.0787
4.38095
4.69983
5.03567
5.38901
5.76056
6.1512
6.56197
6.99403
7.44867
7.9273
8.43144
8.96269
9.52276
10.1134
10.7365
11.3938
12.0873
12.819
13.5908
14.4046
15.2625
16.1665
17.1185
18.1207
19.1751
20.2839
21.4494
22.6738
23.9594
25.3086
26.724
28.2081
29.7637
31.3935
33.1004
34.8876
36.758
38.7148
40.7611
42.9003
45.1355
47.47
49.9068
52.4492
55.1002
57.8625
60.7391
63.7324
66.8449
70.0789
73.4361
76.9183
80.5267
84.2624
88.1259
92.1173
96.2366
100.483
104.855
109.352
113.971
118.709
123.565
128.534
133.612
138.796
144.079
149.458
154.926
160.478
166.108
171.811
177.579
183.406
189.285
195.209
201.172
207.163
213.177
219.205
225.23
231.221
237.173
243.077
248.924
254.704
260.406
266.02
271.535
276.939
282.221
287.372
292.381
297.239
301.936
306.462
310.809
314.969
318.932
322.693
326.243
329.576
332.686
335.567
338.211
340.617
342.779
344.696
346.365
347.785
348.953
349.87
350.536
350.95
351.114
351.03
350.701
350.13
349.32
348.275
346.997
345.499
343.783
341.856
339.723
337.39
334.867
332.162
329.285
326.24
323.037
319.686
316.196
312.576
308.834
304.98
301.023
296.973
292.838
288.628
284.351
280.017
275.634
271.212
266.758
262.282
257.79
253.292
248.795
244.309
239.841
235.402
231
226.642
222.336
218.09
213.914
209.82
205.822
201.939
198.192
194.606
191.21
188.004
185.023
6.5989
2.99601
2.3568
2.19289
2.18266
2.24577
2.35343
2.49291
2.65769
2.84415
3.05006
3.27402
3.51512
3.77281
4.04682
4.33712
4.64391
4.96758
5.30871
5.66807
6.04655
6.44522
6.86528
7.30803
7.77493
8.26751
8.78744
9.33646
9.91642
10.5293
11.177
11.8616
12.5854
13.3504
14.159
15.0135
15.9162
16.8696
17.8761
18.9385
20.0593
21.2413
22.4874
23.8005
25.1837
26.6401
28.1731
29.786
31.4824
33.2658
35.1401
37.1091
39.1767
41.3468
43.6235
46.0107
48.5125
51.1327
53.8751
56.7434
59.741
62.8714
66.1376
69.5424
73.0885
76.7782
80.6132
84.5951
88.725
93.0034
97.4304
102.005
106.728
111.596
116.607
121.759
127.049
132.473
138.027
143.706
149.504
155.415
161.434
167.553
173.765
180.064
186.443
192.894
199.41
205.982
212.603
219.264
225.955
232.667
239.39
246.078
252.723
259.316
265.848
272.308
278.684
284.965
291.138
297.193
303.114
308.891
314.512
319.967
325.245
330.336
335.23
339.918
344.39
348.638
352.655
356.432
359.964
363.244
366.264
369.019
371.505
373.718
375.657
377.319
378.704
379.81
380.638
381.188
381.46
381.456
381.18
380.635
379.826
378.756
377.431
375.856
374.039
371.988
369.707
367.206
364.491
361.573
358.46
355.161
351.685
348.042
344.243
340.296
336.212
332.001
327.673
323.238
318.707
314.089
309.394
304.632
299.813
294.946
290.041
285.106
280.151
275.184
270.215
265.25
260.3
255.373
250.479
245.626
240.823
236.079
231.402
226.804
222.298
217.897
213.619
209.485
205.515
201.734
198.136
194.754
6.79235
3.09519
2.42393
2.24356
2.22192
2.27547
2.37409
2.50442
2.65967
2.83607
3.03139
3.24425
3.47382
3.71963
3.98148
4.25943
4.55373
4.86485
5.1934
5.54018
5.90614
6.29238
6.70011
7.13071
7.58566
8.06658
8.57519
9.11335
9.68303
10.2863
10.9254
11.6026
12.3204
13.0811
13.8876
14.7424
15.6484
16.6086
17.626
18.7038
19.8453
21.054
22.3333
23.687
25.1189
26.6329
28.2332
29.9239
31.7094
33.5942
35.5831
37.6805
39.8914
42.2206
44.6729
47.2532
49.9662
52.8167
55.8091
58.9477
62.2366
65.6793
69.2795
73.0404
76.9648
81.0551
85.3133
89.7408
94.3386
99.1068
104.045
109.153
114.428
119.869
125.473
131.235
137.152
143.219
149.432
155.783
162.266
168.874
175.599
182.432
189.366
196.392
203.502
210.689
217.942
225.255
232.616
240.016
247.447
254.896
262.31
269.675
276.983
284.222
291.381
298.447
305.409
312.253
318.969
325.541
331.953
338.193
344.25
350.112
355.769
361.21
366.424
371.402
376.135
380.613
384.83
388.776
392.448
395.839
398.941
401.743
404.246
406.448
408.346
409.94
411.228
412.21
412.887
413.261
413.332
413.104
412.581
411.767
410.667
409.287
407.632
405.709
403.527
401.093
398.415
395.503
392.364
389.009
385.449
381.692
377.75
373.632
369.351
364.916
360.339
355.631
350.802
345.864
340.827
335.703
330.502
325.234
319.91
314.541
309.135
303.703
298.254
292.797
287.342
281.896
276.471
271.073
265.713
260.401
255.144
249.954
244.839
239.812
234.884
230.072
225.39
220.86
216.498
212.324
208.328
204.546
6.89983
3.15831
2.46373
2.26938
2.237
2.28092
2.37016
2.49093
2.63627
2.80233
2.98689
3.18861
3.40671
3.6408
3.89075
4.15669
4.43892
4.73797
5.0545
5.38937
5.74358
6.11826
6.51473
6.93442
7.37892
7.84996
8.34941
8.8793
9.4418
10.0392
10.6741
11.349
12.0668
12.8303
13.6428
14.5074
15.4275
16.4068
17.4489
18.5579
19.7378
20.9928
22.3275
23.7464
25.2542
26.8558
28.5562
30.3607
32.2746
34.3033
36.4526
38.7281
41.1356
43.6807
46.3693
49.2071
52.1996
55.3523
58.6704
62.1587
65.8211
69.6616
73.6837
77.8907
82.2855
86.8704
91.6469
96.616
101.778
107.133
112.679
118.415
124.337
130.444
136.729
143.189
149.818
156.611
163.559
170.657
177.897
185.27
192.763
200.367
208.074
215.874
223.758
231.718
239.743
247.825
255.952
264.114
272.302
280.453
288.545
296.569
304.514
312.367
320.115
327.746
335.245
342.6
349.801
356.835
363.671
370.304
376.724
382.917
388.875
394.584
400.036
405.221
410.128
414.75
419.079
423.106
426.828
430.237
433.327
436.092
438.529
440.637
442.414
443.859
444.972
445.754
446.207
446.332
446.132
445.612
444.776
443.628
442.176
440.426
438.384
436.059
433.46
430.594
427.473
424.104
420.499
416.668
412.623
408.374
403.932
399.309
394.518
389.569
384.475
379.247
373.897
368.437
362.878
357.233
351.511
345.726
339.886
334.004
328.09
322.153
316.203
310.251
304.305
298.375
292.471
286.6
280.774
275
269.291
263.654
258.101
252.644
247.295
242.069
236.983
232.054
227.297
222.729
218.338
214.163
6.93544
3.19034
2.48013
2.27431
2.23208
2.26668
2.3466
2.45788
2.59345
2.74947
2.92373
3.11496
3.32243
3.54581
3.78506
4.04034
4.31207
4.6008
4.90731
5.23251
5.57751
5.94357
6.33211
6.74474
7.18321
7.64948
8.14566
8.67407
9.23721
9.8378
10.4787
11.1631
11.8944
12.676
13.5117
14.4055
15.3616
16.3844
17.4786
18.6491
19.901
21.2397
22.6709
24.2003
25.8337
27.577
29.4362
31.4178
33.5283
35.7743
38.1624
40.6994
43.392
46.2468
49.2703
52.469
55.849
59.4164
63.1771
67.1361
71.2967
75.6612
80.2332
85.0155
90.0106
95.2199
100.644
106.283
112.136
118.201
124.475
130.955
137.637
144.516
151.585
158.839
166.269
173.868
181.628
189.541
197.598
205.797
214.105
222.519
231.029
239.627
248.303
257.047
265.85
274.701
283.588
292.501
301.361
310.152
318.86
327.474
335.98
344.364
352.614
360.713
368.65
376.41
383.98
391.346
398.49
405.399
412.062
418.468
424.604
430.461
436.028
441.296
446.256
450.899
455.219
459.209
462.862
466.175
469.14
471.755
474.017
475.924
477.475
478.67
479.511
479.999
480.136
479.925
479.37
478.477
477.25
475.697
473.823
471.637
469.146
466.36
463.288
459.94
456.327
452.458
448.346
444.002
439.438
434.665
429.696
424.543
419.22
413.737
408.109
402.347
396.464
390.472
384.384
378.211
371.966
365.66
359.305
352.91
346.489
340.05
333.604
327.161
320.731
314.323
307.946
301.61
295.325
289.1
282.945
276.872
270.889
265.01
259.248
253.617
248.132
242.81
237.664
232.709
227.931
223.373
6.91558
3.19683
2.47748
2.2627
2.21191
2.238
2.30934
2.41191
2.53869
2.68586
2.85131
3.0338
3.2327
3.44776
3.67901
3.92674
4.19145
4.47383
4.77479
5.09543
5.43703
5.80108
6.18926
6.60346
7.04579
7.51858
8.02438
8.56602
9.14654
9.76927
10.4378
11.156
11.9282
12.7587
13.6524
14.6142
15.6494
16.7636
17.9627
19.2531
20.6413
22.1343
23.7392
25.4636
27.3148
29.2991
31.4238
33.6966
36.1252
38.7175
41.481
44.4233
47.5516
50.8732
54.3947
58.1226
62.0632
66.2225
70.6067
75.2234
80.0708
85.1453
90.4516
95.9917
101.767
107.776
114.018
120.491
127.193
134.117
141.261
148.618
156.181
163.944
171.897
180.033
188.341
196.813
205.437
214.204
223.103
232.123
241.247
250.465
259.765
269.139
278.575
288.066
297.599
307.172
316.743
326.237
335.645
344.952
354.144
363.207
372.128
380.891
389.483
397.891
406.1
414.096
421.866
429.396
436.672
443.682
450.413
456.854
462.995
468.825
474.336
479.518
484.363
488.864
493.015
496.808
500.24
503.306
506.002
508.325
510.274
511.847
513.045
513.869
514.32
514.401
514.115
513.467
512.461
511.104
509.401
507.36
504.99
502.298
499.293
495.986
492.387
488.506
484.356
479.946
475.291
470.401
465.289
459.968
454.452
448.753
442.883
436.858
430.688
424.388
417.971
411.449
404.835
398.141
391.38
384.563
377.702
370.809
363.894
356.968
350.042
343.126
336.228
329.36
322.53
315.748
309.023
302.365
295.785
289.293
282.9
276.617
270.458
264.438
258.569
252.869
247.349
242.022
236.874
231.95
6.8559
3.18318
2.45995
2.23881
2.1812
2.20031
2.26466
2.36039
2.48057
2.62154
2.78126
2.95863
3.15316
3.36472
3.59353
3.84005
4.10502
4.38939
4.69439
5.02146
5.37229
5.74882
6.15328
6.58814
7.05617
7.56046
8.1044
8.69172
9.32655
10.0133
10.7567
11.562
12.4349
13.3817
14.4088
15.5229
16.7304
18.0388
19.4561
20.9906
22.6508
24.4458
26.385
28.4786
30.7388
33.1666
35.7707
38.5609
41.5459
44.7342
48.1335
51.7511
55.5938
59.6678
63.9786
68.5312
73.3298
78.378
83.6788
89.2342
95.0431
101.103
107.414
113.972
120.776
127.822
135.105
142.62
150.36
158.318
166.487
174.858
183.421
192.166
201.084
210.163
219.393
228.761
238.256
247.866
257.58
267.385
277.268
287.22
297.228
307.284
317.377
327.505
337.647
347.722
357.696
367.556
377.287
386.878
396.313
405.579
414.662
423.549
432.227
440.682
448.9
456.87
464.579
472.014
479.163
486.014
492.558
498.782
504.679
510.239
515.453
520.314
524.814
528.949
532.711
536.097
539.102
541.724
543.958
545.805
547.263
548.332
549.013
549.309
549.222
548.755
547.913
546.701
545.126
543.193
540.909
538.285
535.327
532.045
528.45
524.552
520.361
515.89
511.151
506.155
500.915
495.444
489.756
483.863
477.778
471.516
465.09
458.513
451.799
444.961
438.013
430.966
423.835
416.631
409.367
402.055
394.707
387.333
379.946
372.556
365.172
357.806
350.466
343.163
335.905
328.702
321.564
314.5
307.52
300.635
293.855
287.193
280.661
274.273
268.043
261.985
256.111
250.433
244.935
239.668
6.78866
3.15926
2.43595
2.21215
2.15138
2.16746
2.2293
2.32328
2.44272
2.58416
2.74577
2.9267
3.1267
3.34598
3.58514
3.84508
4.12705
4.43263
4.76371
5.12254
5.5117
5.93417
6.39329
6.89282
7.43699
8.03046
8.67823
9.38601
10.1602
11.0077
11.9345
12.9486
14.0585
15.2739
16.6057
18.0636
19.6518
21.3822
23.2659
25.3137
27.5367
29.9456
32.551
35.3636
38.393
41.6463
45.1312
48.855
52.8249
57.0467
61.5254
66.2652
71.269
76.5388
82.0757
87.8798
93.9502
100.285
106.882
113.738
120.846
128.202
135.798
143.628
151.685
159.96
168.445
177.13
186.007
195.066
204.295
213.684
223.222
232.898
242.701
252.618
262.639
272.751
282.944
293.206
303.527
313.896
324.303
334.742
345.199
355.677
366.155
376.555
386.826
396.967
406.963
416.801
426.469
435.953
445.242
454.323
463.183
471.811
480.196
488.324
496.185
503.767
511.061
518.054
524.736
531.099
537.132
542.826
548.174
553.168
557.801
562.066
565.958
569.472
572.603
575.348
577.704
579.669
581.242
582.421
583.208
583.604
583.61
583.229
582.465
581.322
579.806
577.921
575.676
573.077
570.133
566.851
563.243
559.316
555.083
550.553
545.739
540.653
535.306
529.711
523.882
517.83
511.57
505.116
498.479
491.675
484.716
477.617
470.39
463.049
455.607
448.077
440.472
432.803
425.084
417.326
409.54
401.739
393.931
386.128
378.341
370.578
362.849
355.164
347.531
339.96
332.46
325.039
317.709
310.48
303.361
296.365
289.503
282.79
276.238
269.861
263.671
257.678
251.867
246.293
6.73655
3.13375
2.41415
2.193
2.13514
2.15514
2.22243
2.32384
2.45305
2.607
2.7843
2.98464
3.2084
3.45653
3.7305
4.03228
4.36433
4.72959
5.13158
5.57438
6.0626
6.60157
7.1973
7.85623
8.586
9.39509
10.291
11.2837
12.385
13.6099
14.9604
16.451
18.0954
19.9072
21.9
24.0867
26.4784
29.0876
31.9263
35.0061
38.3374
41.9295
45.7907
49.9277
54.3457
59.0477
64.0356
69.3098
74.8697
80.7133
86.8374
93.2377
99.9086
106.844
114.036
121.478
129.161
137.076
145.213
153.564
162.118
170.864
179.793
188.894
198.156
207.569
217.123
226.808
236.612
246.526
256.54
266.643
276.826
287.078
297.39
307.753
318.157
328.595
339.056
349.534
360.023
370.515
380.995
391.493
401.952
412.3
422.495
432.542
442.426
452.139
461.668
471.005
480.137
489.055
497.748
506.205
514.416
522.371
530.061
537.475
544.603
551.436
557.966
564.183
570.077
575.643
580.87
585.753
590.284
594.457
598.267
601.707
604.774
607.464
609.773
611.699
613.24
614.395
615.163
615.545