/*--------------------------------*- C++ -*----------------------------------*\
  =========                 |
  \\      /  F ield         | OpenFOAM: The Open Source CFD Toolbox
   \\    /   O peration     | Website:  https://openfoam.org
    \\  /    A nd           | Version:  9
     \\/     M anipulation  |
\*---------------------------------------------------------------------------*/
FoamFile
{
    format      ascii;
    class       volScalarField;
    location    "0.096";
    object      p;
}
// * * * * * * * * * * * * * * * * * * * * * * * * * * * * * * * * * * * * * //

dimensions      [0 2 -2 0 0 0 0];

internalField   nonuniform List<scalar> 
12225
(
1124.79
1121.8
1117.29
1111.98
1105.98
1099.53
1092.83
1085.96
1078.99
1071.98
1064.98
1057.96
1050.91
1043.76
1036.49
1028.99
1021.06
1012.01
1124.27
1121.88
1117.35
1112.03
1106.02
1099.56
1092.86
1085.98
1079
1072
1065
1057.98
1050.93
1043.79
1036.54
1029.1
1021.27
1012.69
1125.27
1122.13
1117.51
1112.14
1106.09
1099.63
1092.92
1086.04
1079.06
1072.04
1065.04
1058.02
1050.98
1043.88
1036.7
1029.35
1021.73
1013.73
1124.89
1122.36
1117.72
1112.3
1106.23
1099.76
1093.03
1086.13
1079.14
1072.13
1065.12
1058.11
1051.1
1044.04
1036.93
1029.71
1022.36
1014.91
1127.4
1122.88
1118.05
1112.57
1106.45
1099.94
1093.19
1086.27
1079.27
1072.25
1065.25
1058.26
1051.27
1044.28
1037.26
1030.21
1023.15
1016.17
1127.91
1123.35
1118.47
1112.91
1106.74
1100.2
1093.41
1086.47
1079.46
1072.43
1065.43
1058.46
1051.51
1044.59
1037.68
1030.81
1024.03
1017.45
1129.52
1124.1
1119.02
1113.37
1107.15
1100.55
1093.71
1086.74
1079.7
1072.67
1065.67
1058.73
1051.84
1045
1038.22
1031.53
1025
1018.75
1129.64
1124.72
1119.65
1113.95
1107.67
1100.99
1094.09
1087.08
1080.02
1072.98
1065.98
1059.06
1052.22
1045.47
1038.82
1032.32
1026.02
1020.03
1130.82
1125.57
1120.63
1114.82
1108.34
1101.54
1094.57
1087.51
1080.42
1073.36
1066.38
1059.49
1052.71
1046.06
1039.54
1033.21
1027.11
1021.34
1128.31
1126.26
1121.5
1115.7
1109.16
1102.25
1095.17
1088.03
1080.9
1073.82
1066.86
1060
1053.28
1046.71
1040.32
1034.14
1028.23
1022.64
1127.58
1127.65
1123.18
1117
1110.18
1103.09
1095.89
1088.67
1081.48
1074.38
1067.42
1060.6
1053.94
1047.46
1041.19
1035.15
1029.39
1023.95
1130.34
1129.67
1124.69
1118.29
1111.29
1104.03
1096.69
1089.36
1082.11
1074.98
1068.02
1061.23
1054.62
1048.21
1042.04
1036.11
1030.48
1025.14
1135.17
1132.6
1126.84
1119.93
1112.6
1105.09
1097.56
1090.13
1082.81
1075.65
1068.69
1061.92
1055.36
1049.02
1042.94
1037.12
1031.58
1026.35
1146.31
1137.01
1129.53
1122.06
1114.3
1106.49
1098.75
1091.16
1083.74
1076.53
1069.55
1062.8
1056.28
1050.01
1044.01
1038.28
1032.85
1027.71
1150.51
1142.45
1133.89
1125.04
1116.57
1108.28
1100.24
1092.46
1084.92
1077.64
1070.63
1063.89
1057.41
1051.21
1045.29
1039.66
1034.31
1029.25
1156.5
1147.65
1137.74
1128.46
1119.38
1110.57
1102.15
1094.1
1086.4
1079.02
1071.96
1065.22
1058.77
1052.62
1046.76
1041.21
1035.93
1030.95
1171.3
1156.85
1144.42
1133.15
1122.9
1113.33
1104.41
1096.06
1088.16
1080.66
1073.55
1066.79
1060.35
1054.24
1048.43
1042.93
1037.72
1032.79
1182.28
1165.42
1150.45
1137.72
1126.45
1116.26
1106.9
1098.23
1090.11
1082.48
1075.29
1068.5
1062.07
1055.98
1050.23
1044.77
1039.6
1034.71
1196.48
1174.61
1157.02
1142.48
1129.98
1119
1109.2
1100.25
1091.99
1084.29
1077.08
1070.28
1063.87
1057.81
1052.08
1046.65
1041.5
1036.62
1200.87
1175.51
1156.93
1142.43
1130.24
1119.5
1109.86
1101.05
1092.89
1085.24
1078.12
1071.39
1065.04
1059.03
1053.36
1047.98
1042.88
1038.03
1190.41
1168.86
1152.96
1140.04
1128.88
1118.87
1109.69
1101.16
1093.21
1085.78
1078.73
1072.06
1065.75
1059.79
1054.14
1048.78
1043.69
1038.85
1173.14
1159.57
1147.77
1136.97
1127.02
1117.75
1109.06
1100.89
1093.17
1085.88
1078.98
1072.42
1066.19
1060.29
1054.69
1049.36
1044.3
1039.47
1154.07
1150.08
1142.24
1133.72
1125.06
1116.59
1108.4
1100.54
1093.05
1085.91
1079.1
1072.62
1066.45
1060.59
1055.02
1049.71
1044.67
1039.87
1144.3
1144.18
1138.78
1131.32
1123.5
1115.59
1107.77
1100.19
1092.88
1085.86
1079.17
1072.73
1066.61
1060.79
1055.24
1049.96
1044.93
1040.14
1138.63
1140.15
1136.11
1129.58
1122.35
1114.84
1107.3
1099.89
1092.71
1085.78
1079.1
1072.76
1066.69
1060.9
1055.37
1050.11
1045.1
1040.32
1139.76
1139.07
1134.7
1128.48
1121.57
1114.31
1106.95
1099.69
1092.6
1085.74
1079.13
1072.8
1066.75
1060.97
1055.46
1050.21
1045.21
1040.44
1143.21
1138.81
1133.81
1127.74
1121.05
1113.97
1106.72
1099.52
1092.5
1085.69
1079.11
1072.81
1066.78
1061.01
1055.52
1050.27
1045.28
1040.51
1144.04
1138.53
1133.33
1127.33
1120.75
1113.76
1106.58
1099.44
1092.46
1085.68
1079.12
1072.82
1066.79
1061.03
1055.54
1050.3
1045.31
1040.55
1143.1
1138.26
1133.05
1127.09
1120.57
1113.65
1106.51
1099.39
1092.43
1085.65
1079.11
1072.82
1066.8
1061.04
1055.55
1050.32
1045.33
1040.58
1141.43
1138.09
1132.97
1127.02
1120.51
1113.61
1106.48
1099.38
1092.43
1085.67
1079.12
1072.82
1066.79
1061.03
1055.54
1050.3
1045.32
1040.58
924.935
924.885
924.793
924.658
924.486
924.238
923.878
923.37
922.687
921.816
920.762
919.542
918.182
916.717
915.184
913.622
912.063
910.537
909.07
907.684
906.392
905.202
904.113
903.108
902.167
901.26
900.355
899.428
898.46
897.422
896.257
894.945
893.459
891.891
890.35
888.702
886.952
885.186
883.274
880.938
878.834
877.136
875.295
873.284
871.333
869.391
867.38
865.229
863.241
862.695
863.423
862.063
857.29
850.275
843.583
837.467
831.281
825.472
820.325
815.711
811.581
807.94
804.764
802.026
799.682
797.69
796
794.562
793.327
792.249
791.288
790.406
789.57
788.752
787.929
787.086
786.209
785.292
784.329
783.322
782.273
781.186
780.065
778.919
777.754
776.572
775.378
774.17
772.941
771.682
770.38
769.018
767.582
766.055
764.414
762.644
760.738
758.693
756.508
754.174
751.68
749.072
746.478
743.88
741.016
737.658
733.803
729.391
724.645
719.922
715.2
710.811
707.002
702.847
698.052
692.521
685.789
678.252
670.208
661.822
653.184
644.372
635.494
626.704
618.198
610.185
602.864
596.401
590.923
586.494
583.153
580.829
579.394
578.667
578.425
578.429
578.443
578.259
577.711
576.684
575.108
572.966
570.263
567.059
563.428
559.442
555.165
550.653
545.952
541.094
536.106
531.004
525.797
520.49
515.08
509.557
503.896
498.064
492.018
485.714
479.114
472.211
465.015
457.625
450.161
442.726
435.804
429.338
423.375
419.205
412.814
400.744
388.34
377.562
366.875
359.482
355.337
352.524
349.697
345.898
925.112
925.079
925.013
924.905
924.721
924.429
923.992
923.383
922.586
921.601
920.44
919.13
917.708
916.207
914.662
913.102
911.556
910.048
908.598
907.221
905.926
904.72
903.612
902.608
901.693
900.842
900.018
899.185
898.31
897.36
896.282
895.043
893.67
892.195
890.651
889.006
887.141
885.23
883.198
880.724
878.246
876.416
874.927
873.254
871.033
868.645
866.755
865.356
863.452
860.146
857.58
856.225
851.964
845.685
840.082
834.397
828.728
823.546
818.731
814.32
810.388
806.915
803.886
801.272
799.038
797.137
795.525
794.159
792.99
791.974
791.069
790.238
789.445
788.664
787.872
787.052
786.192
785.285
784.326
783.317
782.262
781.164
780.032
778.872
777.692
776.498
775.29
774.07
772.833
771.571
770.271
768.919
767.499
765.994
764.379
762.633
760.743
758.698
756.501
754.151
751.616
748.897
746.134
743.37
740.47
737.221
733.504
729.2
724.436
719.598
714.928
710.668
707.032
703.044
698.099
692.193
685.233
677.659
669.664
661.343
652.747
643.939
635.035
626.205
617.657
609.61
602.266
595.791
590.305
585.916
582.591
580.286
578.883
578.201
578.014
578.079
578.156
578.032
577.539
576.558
575.022
572.912
570.226
567.043
563.423
559.441
555.165
550.65
545.945
541.084
536.091
530.984
525.773
520.463
515.049
509.522
503.858
498.022
491.971
485.662
479.057
472.145
464.937
457.523
450.052
442.555
435.41
428.913
422.366
417.638
410.891
399.284
388.396
377.54
366.077
358.668
354.948
352.436
349.751
345.957
925.498
925.501
925.51
925.403
925.158
924.716
924.049
923.161
922.084
920.853
919.502
918.061
916.554
915.005
913.438
911.877
910.341
908.85
907.419
906.064
904.799
903.632
902.576
901.629
900.78
900.009
899.299
898.627
897.954
897.222
896.371
895.372
894.226
892.921
891.437
889.717
887.791
885.567
882.978
880.867
878.963
876.378
874.057
872.458
870.729
868.555
865.534
862.34
859.857
856.907
853.293
849.937
845.824
840.947
835.913
830.794
825.76
820.929
816.389
812.247
808.526
805.239
802.382
799.925
797.837
796.081
794.612
793.381
792.341
791.444
790.645
789.907
789.194
788.48
787.741
786.963
786.132
785.243
784.291
783.278
782.209
781.093
779.94
778.757
777.555
776.339
775.113
773.879
772.632
771.365
770.065
768.72
767.316
765.834
764.25
762.537
760.678
758.663
756.485
754.13
751.571
748.779
745.797
742.741
739.673
736.536
733.002
728.93
724.31
719.418
714.603
710.493
706.943
702.691
697.155
690.851
683.934
676.585
668.822
660.652
652.113
643.296
634.339
625.432
616.796
608.662
601.244
594.715
589.213
584.778
581.456
579.189
577.851
577.258
577.18
577.368
577.571
577.568
577.184
576.296
574.834
572.782
570.142
566.989
563.388
559.417
555.144
550.629
545.921
541.055
536.057
530.945
525.727
520.409
514.988
509.453
503.781
497.935
491.873
485.552
478.927
471.995
464.762
457.302
449.776
442.221
434.939
428.205
421.545
415.645
408.622
398.295
387.281
375.988
365.591
358.481
354.75
352.332
349.744
345.954
925.82
925.805
925.74
925.537
925.065
924.299
923.275
922.058
920.714
919.294
917.835
916.355
914.862
913.361
911.857
910.353
908.868
907.416
906.009
904.667
903.421
902.287
901.27
900.373
899.592
898.912
898.325
897.816
897.355
896.897
896.373
895.729
894.882
893.802
892.443
890.686
888.476
886.363
884.024
880.633
878.284
876.213
874.073
871.894
869.457
866.573
863.128
859.361
855.888
852.492
848.833
844.966
840.682
836.102
831.425
826.65
821.933
817.415
813.182
809.31
805.842
802.797
800.177
797.938
796.064
794.518
793.254
792.22
791.363
790.635
789.989
789.384
788.787
788.168
787.507
786.788
786.001
785.139
784.202
783.191
782.113
780.978
779.8
778.589
777.358
776.115
774.866
773.614
772.355
771.081
769.781
768.441
767.049
765.588
764.032
762.35
760.524
758.545
756.4
754.07
751.53
748.762
745.709
742.434
739.095
735.777
732.249
728.159
723.291
718.1
713.389
709.513
706.003
701.48
695.792
689.484
682.767
675.617
667.99
659.877
651.315
642.402
633.303
624.235
615.448
607.189
599.672
593.065
587.499
583.055
579.762
577.56
576.324
575.868
575.959
576.333
576.728
576.909
576.687
575.937
574.584
572.611
570.031
566.917
563.341
559.381
555.11
550.593
545.879
541.007
536.001
530.879
525.651
520.321
514.887
509.338
503.652
497.79
491.709
485.367
478.715
471.743
464.468
456.935
449.323
441.686
434.219
427.26
420.325
413.73
406.636
397.046
386.314
375.831
366.109
358.999
355.164
352.711
349.955
346.023
925.959
925.961
925.762
925.205
924.292
923.118
921.807
920.445
919.079
917.725
916.381
915.036
913.673
912.283
910.861
909.406
907.94
906.476
905.022
903.616
902.303
901.108
900.047
899.142
898.402
897.815
897.36
897.014
896.747
896.526
896.29
895.913
895.322
894.463
893.216
891.635
889.749
886.842
884.491
881.844
879.017
876.231
873.492
870.611
867.386
863.76
859.806
855.706
851.72
847.908
844.119
840.116
835.704
831.059
826.406
821.799
817.315
813.058
809.113
805.537
802.363
799.606
797.263
795.329
793.76
792.509
791.523
790.749
790.132
789.62
789.165
788.727
788.271
787.769
787.201
786.552
785.814
784.982
784.057
783.043
781.949
780.786
779.571
778.32
777.048
775.77
774.493
773.222
771.954
770.681
769.389
768.064
766.691
765.254
763.725
762.076
760.283
758.33
756.207
753.9
751.391
748.687
745.709
742.384
738.874
735.311
731.564
727.219
722.009
716.63
711.919
708.292
704.709
700.098
694.477
688.366
681.813
674.748
667.12
658.927
650.219
641.118
631.815
622.557
613.608
605.22
597.594
590.895
585.234
580.814
577.563
575.439
574.331
574.054
574.367
574.991
575.644
576.07
576.065
575.494
574.282
572.409
569.896
566.831
563.281
559.331
555.059
550.533
545.808
540.924
535.905
530.768
525.523
520.176
514.726
509.161
503.457
497.578
491.477
485.106
478.418
471.394
464.052
456.433
448.691
440.919
433.263
426.017
418.849
411.85
404.629
395.56
385.508
375.885
367.056
360.375
356.337
353.409
350.249
346.121
927.176
926.744
925.961
924.85
923.556
922.226
920.921
919.661
918.446
917.254
916.062
914.838
913.56
912.216
910.794
909.301
907.762
906.188
904.587
903.01
901.522
900.169
898.991
898.015
897.265
896.737
896.408
896.233
896.154
896.128
896.085
895.907
895.506
894.762
893.668
892.048
889.983
887.513
884.833
881.966
878.917
875.707
872.34
868.696
864.692
860.427
856.109
851.877
847.726
843.562
839.319
834.927
830.337
825.649
821.003
816.478
812.157
808.12
804.433
801.144
798.279
795.853
793.861
792.286
791.074
790.169
789.514
789.05
788.719
788.464
788.236
787.992
787.699
787.328
786.861
786.286
785.597
784.793
783.875
782.851
781.73
780.527
779.261
777.955
776.63
775.304
773.99
772.695
771.415
770.143
768.863
767.557
766.21
764.803
763.309
761.702
759.957
758.046
755.953
753.664
751.159
748.493
745.588
742.383
738.884
735.212
731.321
726.793
721.416
716.069
711.472
707.768
703.833
699.098
693.538
687.535
680.992
673.868
666.113
657.732
648.797
639.461
629.947
620.515
611.416
602.874
595.1
588.279
582.561
578.079
574.819
572.759
571.793
571.733
572.326
573.273
574.262
575.008
575.283
574.94
573.902
572.141
569.716
566.705
563.185
559.243
554.966
550.427
545.686
540.783
535.746
530.591
525.328
519.964
514.498
508.92
503.204
497.313
491.194
484.797
478.07
470.985
463.558
455.829
447.934
439.996
432.128
424.588
417.204
409.907
402.525
393.958
384.651
375.769
367.792
361.532
357.271
353.977
350.532
346.219
928.286
927.476
926.133
924.781
923.506
922.317
921.203
920.133
919.082
918.017
916.906
915.716
914.426
913.025
911.501
909.858
908.119
906.308
904.453
902.595
900.801
899.149
897.713
896.574
895.766
895.288
895.11
895.161
895.336
895.545
895.71
895.718
895.447
894.849
893.724
892.058
889.896
887.323
884.474
881.412
878.115
874.529
870.608
866.327
861.771
857.142
852.616
848.212
843.81
839.27
834.551
829.717
824.861
820.071
815.406
810.919
806.692
802.808
799.333
796.311
793.768
791.703
790.094
788.9
788.076
787.559
787.281
787.172
787.167
787.205
787.233
787.207
787.092
786.864
786.508
786.013
785.378
784.604
783.694
782.658
781.507
780.259
778.935
777.563
776.17
774.783
773.422
772.095
770.801
769.529
768.262
766.978
765.659
764.283
762.822
761.252
759.548
757.686
755.643
753.403
750.945
748.272
745.428
742.369
738.97
735.324
731.449
726.938
721.71
716.625
712.174
708.106
703.641
698.617
693.016
686.923
680.248
672.938
664.957
656.323
647.133
637.564
627.845
618.209
608.886
600.093
592.058
585.01
579.164
574.56
571.274
569.291
568.502
568.715
569.666
571.032
572.464
573.633
574.278
574.228
573.405
571.786
569.456
566.499
563.007
559.075
554.794
550.243
545.487
540.567
535.513
530.341
525.063
519.688
514.217
508.637
502.92
497.024
490.895
484.472
477.699
470.539
463.005
455.141
447.068
438.933
430.844
423.029
415.417
407.887
400.396
392.278
383.643
375.433
368.176
362.306
357.962
354.398
350.703
346.261
928.362
927.53
926.431
925.39
924.428
923.506
922.604
921.669
920.69
919.639
918.49
917.217
915.802
914.235
912.501
910.596
908.531
906.334
904.057
901.762
899.53
897.469
895.687
894.315
893.431
893.025
893.051
893.428
893.982
894.557
895.033
895.249
895.151
894.569
893.358
891.55
889.211
886.497
883.522
880.294
876.756
872.837
868.51
863.837
858.997
854.186
849.473
844.778
839.975
834.994
829.864
824.678
819.537
814.513
809.669
805.08
800.838
797.028
793.714
790.933
788.695
787.007
785.821
785.082
784.72
784.658
784.813
785.109
785.471
785.833
786.14
786.348
786.423
786.346
786.105
785.696
785.121
784.384
783.493
782.454
781.283
779.996
778.618
777.18
775.717
774.264
772.848
771.485
770.176
768.909
767.663
766.412
765.132
763.797
762.378
760.844
759.17
757.341
755.338
753.145
750.757
748.137
745.335
742.4
739.172
735.626
731.891
727.623
722.869
718.145
713.827
709.116
704.04
698.581
692.823
686.492
679.575
671.99
663.722
654.801
645.343
635.52
625.537
615.597
605.916
596.74
588.342
580.991
574.907
570.219
566.931
565.043
564.455
564.982
566.356
568.23
570.211
571.914
573.027
573.351
572.793
571.354
569.132
566.232
562.762
558.834
554.548
549.988
545.22
540.286
535.217
530.033
524.748
519.374
513.908
508.336
502.624
496.728
490.588
484.135
477.304
470.05
462.38
454.345
446.063
437.698
429.375
421.289
413.463
405.782
398.259
390.505
382.468
374.88
368.225
362.729
358.396
354.635
350.747
346.217
928.962
928.425
927.77
927.068
926.332
925.548
924.711
923.809
922.819
921.718
920.485
919.1
917.542
915.791
913.816
911.617
909.201
906.585
903.808
900.944
898.125
895.521
893.299
891.642
890.629
890.265
890.514
891.241
892.202
893.169
893.972
894.45
894.442
893.791
892.482
890.556
888.135
885.356
882.288
878.926
875.202
871.053
866.485
861.607
856.607
851.633
846.676
841.612
836.337
830.853
825.247
819.625
814.068
808.658
803.498
798.699
794.365
790.584
787.415
784.88
782.961
781.734
781.051
780.842
781.02
781.488
782.151
782.915
783.695
784.419
785.028
785.481
785.747
785.813
785.677
785.346
784.828
784.134
783.271
782.246
781.072
779.762
778.34
776.836
775.291
773.75
772.254
770.83
769.489
768.221
767
765.792
764.567
763.296
761.946
760.484
758.874
757.091
755.127
752.969
750.631
748.105
745.369
742.517
739.476
736.105
732.552
728.649
724.495
720.255
715.813
710.399
704.712
698.897
692.853
686.232
679
671.085
662.489
653.251
643.484
633.339
622.989
612.624
602.475
592.837
584.032
576.359
570.047
565.23
561.93
560.129
559.735
560.578
562.405
564.856
567.49
569.844
571.536
572.32
572.077
570.857
568.766
565.932
562.485
558.556
554.259
549.688
544.907
539.96
534.879
529.687
524.402
519.034
513.579
508.017
502.312
496.417
490.265
483.774
476.867
469.493
461.652
453.405
444.873
436.238
427.655
419.309
411.291
403.53
396.038
388.6
381.12
374.115
367.99
362.846
358.577
354.7
350.677
346.087
930.72
930.439
929.99
929.446
928.817
928.099
927.294
926.392
925.379
924.243
922.97
921.533
919.898
918.037
915.938
913.588
910.974
908.097
904.987
901.714
898.415
895.301
892.534
890.442
889.1
888.588
888.838
889.655
890.766
891.919
892.879
893.429
893.398
892.726
891.414
889.507
887.117
884.345
881.236
877.785
873.931
869.632
864.914
859.896
854.735
849.525
844.22
838.694
832.875
826.803
820.6
814.395
808.296
802.418
796.889
791.83
787.349
783.543
780.486
778.221
776.755
775.916
775.735
776.108
776.909
778.003
779.264
780.577
781.844
782.985
783.937
784.66
785.129
785.339
785.301
785.032
784.558
783.899
783.066
782.065
780.898
779.572
778.102
776.517
774.861
773.192
771.571
770.046
768.642
767.351
766.137
764.962
763.794
762.61
761.375
760.039
758.555
756.876
754.985
752.887
750.596
748.152
745.517
742.732
739.843
736.699
733.344
729.796
726.103
722.315
717.703
711.661
705.481
699.429
693.069
686.134
678.548
670.27
661.31
651.716
641.581
631.031
620.224
609.358
598.706
588.6
579.394
571.402
564.858
559.887
556.53
554.763
554.501
555.604
557.853
560.901
564.266
567.394
569.79
571.139
571.259
570.297
568.359
565.606
562.192
558.266
553.957
549.368
544.568
539.605
534.513
529.317
524.034
518.672
513.226
507.673
501.976
496.082
489.914
483.376
476.378
468.858
460.813
452.309
443.48
434.528
425.646
417.036
408.842
401.047
393.642
386.521
379.578
373.136
367.504
362.691
358.53
354.612
350.506
345.879
933.286
933.089
932.753
932.3
931.736
931.06
930.281
929.398
928.401
927.28
926.017
924.587
922.964
921.129
919.061
916.727
914.09
911.142
907.911
904.473
900.963
897.576
894.546
892.14
890.491
889.651
889.56
890.068
890.936
891.895
892.674
893.062
892.932
892.212
890.876
888.983
886.63
883.875
880.746
877.224
873.263
868.837
863.984
858.808
853.428
847.889
842.129
836.039
829.583
822.838
815.959
809.105
802.408
795.994
789.988
784.521
779.732
775.762
772.718
770.631
769.468
769.148
769.591
770.666
772.208
774.04
776.001
777.954
779.788
781.415
782.766
783.8
784.498
784.865
784.926
784.72
784.286
783.658
782.853
781.875
780.718
779.376
777.856
776.183
774.411
772.612
770.868
769.25
767.792
766.484
765.27
764.091
762.921
761.764
760.618
759.427
758.118
756.608
754.845
752.84
750.612
748.232
745.712
743.015
740.226
737.282
734.141
730.841
727.372
723.996
719.253
712.826
706.31
700.068
693.417
686.165
678.223
669.564
660.217
650.233
639.686
628.687
617.393
606.03
594.902
584.363
574.784
566.492
559.726
554.593
551.154
549.356
549.118
550.35
552.898
556.471
560.575
564.56
567.781
569.787
570.38
569.697
567.918
565.249
561.875
557.96
553.643
549.034
544.211
539.229
534.127
528.927
523.645
518.286
512.847
507.302
501.612
495.717
489.533
482.945
475.843
468.15
459.859
451.045
441.863
432.542
423.32
414.429
406.063
398.264
391.001
384.224
377.815
371.935
366.785
362.305
358.29
354.386
350.244
345.606
936.398
936.244
935.956
935.543
935.017
934.38
933.642
932.798
931.842
930.773
929.577
928.23
926.698
924.967
923.034
920.88
918.456
915.729
912.715
909.468
906.103
902.803
899.785
897.264
895.368
894.157
893.599
893.573
893.878
894.283
894.559
894.524
894.036
893.01
891.451
889.429
887.001
884.189
880.992
877.377
873.3
868.742
863.737
858.364
852.7
846.755
840.463
833.738
826.58
819.107
811.502
803.942
796.561
789.479
782.837
776.82
771.63
767.442
764.373
762.47
761.676
761.918
763.056
764.902
767.243
769.858
772.551
775.167
777.592
779.73
781.507
782.878
783.83
784.377
784.549
784.396
783.978
783.353
782.557
781.598
780.464
779.132
777.597
775.88
774.042
772.177
770.385
768.75
767.307
766.032
764.844
763.654
762.429
761.198
760.013
758.862
757.657
756.293
754.677
752.784
750.638
748.302
745.861
743.277
740.571
737.75
734.8
731.644
728.239
725.139
720.382
713.828
707.139
700.723
693.835
686.29
678
668.975
659.237
648.86
637.898
626.463
614.723
602.926
591.392
580.482
570.574
562.013
555.051
549.796
546.269
544.386
544.063
545.253
547.9
551.818
556.561
561.411
565.547
568.307
569.448
569.085
567.473
564.882
561.54
557.632
553.307
548.679
543.834
538.836
533.723
528.516
523.23
517.875
512.443
506.906
501.219
495.325
489.128
482.487
475.26
467.351
458.748
449.543
439.925
430.166
420.565
411.393
402.88
395.112
388.059
381.667
375.805
370.504
365.849
361.72
357.889
354.045
349.906
345.278
939.888
939.752
939.49
939.106
938.608
938.003
937.299
936.497
935.598
934.601
933.49
932.249
930.867
929.335
927.641
925.765
923.675
921.353
918.812
916.091
913.254
910.425
907.771
905.41
903.449
901.952
900.912
900.25
899.816
899.429
898.91
898.105
896.914
895.311
893.329
891.005
888.351
885.356
882.001
878.241
874.028
869.332
864.166
858.572
852.588
846.199
839.342
831.96
824.086
815.871
807.524
799.228
791.118
783.328
776.038
769.493
763.961
759.641
756.636
755.005
754.522
755.22
756.942
759.475
762.566
765.942
769.345
772.589
775.555
778.154
780.31
781.974
783.142
783.849
784.139
784.053
783.652
783.02
782.226
781.289
780.184
778.872
777.34
775.615
773.763
771.884
770.092
768.48
767.087
765.874
764.735
763.561
762.312
761.035
759.788
758.581
757.363
756.042
754.51
752.713
750.649
748.35
745.938
743.431
740.802
738.044
735.183
732.145
728.742
725.597
721.046
714.626
707.887
701.313
694.251
686.462
677.86
668.493
658.404
647.663
636.341
624.541
612.444
600.313
588.46
577.237
567.03
558.216
551.083
545.748
542.159
540.185
539.713
540.727
543.263
547.279
552.458
558.089
563.174
566.747
568.492
568.486
567.051
564.532
561.21
557.298
552.957
548.307
543.442
538.428
533.303
528.086
522.796
517.445
512.018
506.481
500.795
494.909
488.705
481.998
474.601
466.395
457.37
447.653
437.481
427.187
417.151
407.703
399.109
391.451
384.724
378.806
373.531
368.833
364.702
360.958
357.351
353.61
349.509
344.907
943.635
943.508
943.263
942.899
942.421
941.839
941.162
940.395
939.542
938.606
937.58
936.458
935.229
933.89
932.441
930.872
929.161
927.296
925.288
923.157
920.945
918.716
916.542
914.474
912.589
910.924
909.479
908.2
906.995
905.749
904.348
902.708
900.793
898.609
896.176
893.491
890.533
887.279
883.7
879.753
875.386
870.553
865.232
859.425
853.128
846.308
838.914
830.913
822.368
813.458
804.413
795.428
786.65
778.236
770.399
763.422
757.596
753.12
750.062
748.424
748.257
749.359
751.572
754.676
758.411
762.473
766.535
770.353
773.805
776.815
779.301
781.196
782.502
783.291
783.651
783.644
783.304
782.691
781.889
780.955
779.886
778.629
777.13
775.39
773.482
771.521
769.64
767.958
766.546
765.382
764.344
763.29
762.149
760.948
759.729
758.479
757.173
755.811
754.316
752.565
750.556
748.32
745.929
743.445
740.859
738.128
735.247
732.289
728.895
725.392
721.239
715.171
708.468
701.764
694.599
686.64
677.794
668.14
657.753
646.72
635.124
623.071
610.735
598.371
586.271
574.778
564.296
555.231
547.96
542.575
538.966
536.926
536.296
537.068
539.346
543.225
548.573
554.792
560.794
565.179
567.554
567.926
566.671
564.216
560.901
556.974
552.612
547.939
543.052
538.02
532.879
527.649
522.354
517.001
511.568
506.022
500.342
494.475
488.26
481.446
473.796
465.178
455.605
445.25
434.414
423.486
412.932
403.161
394.497
387.073
380.835
375.546
370.957
366.921
363.351
360.032
356.695
353.099
349.066
344.507
947.605
947.473
947.229
946.871
946.401
945.827
945.156
944.403
943.575
942.676
941.711
940.682
939.584
938.413
937.174
935.865
934.473
932.991
931.422
929.779
928.074
926.304
924.486
922.654
920.839
919.051
917.28
915.494
913.65
911.698
909.597
907.327
904.884
902.274
899.487
896.493
893.255
889.747
885.941
881.801
877.279
872.317
866.861
860.874
854.315
847.135
839.293
830.78
821.678
812.19
802.566
793.021
783.722
774.843
766.623
759.355
753.327
748.737
745.661
744.117
744.119
745.48
747.987
751.396
755.475
759.955
764.461
768.669
772.45
775.758
778.497
780.562
781.938
782.738
783.107
783.142
782.887
782.366
781.626
780.72
779.675
778.456
776.982
775.204
773.156
770.96
768.792
766.843
765.275
764.137
763.303
762.554
761.712
760.735
759.634
758.393
757.032
755.585
754.04
752.31
750.336
748.12
745.736
743.262
740.679
737.967
735.036
732.038
728.665
724.851
720.942
715.361
708.822
702.051
694.84
686.803
677.809
667.948
657.343
646.109
634.343
622.15
609.688
597.178
584.892
573.169
562.45
553.209
545.82
540.386
536.77
534.667
533.883
534.404
536.369
539.961
545.23
551.821
558.488
563.691
566.697
567.44
566.354
563.944
560.619
556.667
552.28
547.584
542.674
537.619
532.457
527.212
521.908
516.543
511.092
505.537
499.872
494.025
487.768
480.774
472.769
463.624
453.398
442.313
430.726
419.087
407.944
397.792
389.023
381.862
376.23
371.752
368.017
364.751
361.805
358.956
355.934
352.526
348.592
344.091
951.935
951.793
951.535
951.161
950.672
950.077
949.386
948.614
947.773
946.874
945.928
944.948
943.936
942.891
941.817
940.715
939.58
938.4
937.161
935.834
934.423
932.932
931.343
929.634
927.799
925.843
923.769
921.579
919.268
916.836
914.287
911.628
908.867
905.994
902.98
899.778
896.343
892.638
888.639
884.323
879.652
874.57
869.004
862.882
856.132
848.692
840.526
831.65
822.184
812.28
802.241
792.308
782.672
773.528
765.119
757.728
751.626
747.004
743.94
742.473
742.576
744.069
746.702
750.189
754.31
758.879
763.541
767.892
771.767
775.17
778.026
780.162
781.509
782.209
782.482
782.491
782.307
781.934
781.367
780.605
779.645
778.455
776.976
775.131
772.904
770.385
767.785
765.394
763.494
762.272
761.678
761.423
761.136
760.575
759.633
758.294
756.748
755.262
753.774
752.013
749.978
747.773
745.384
742.864
740.236
737.516
734.566
731.436
728.088
724.232
720.138
715.083
708.888
702.172
694.968
686.95
677.928
667.967
657.239
645.9
634.065
621.837
609.347
596.784
584.393
572.521
561.641
552.271
544.798
539.317
535.642
533.426
532.451
532.706
534.358
537.619
542.651
549.304
556.461
562.39
565.988
567.067
566.118
563.728
560.371
556.38
551.961
547.237
542.3
537.22
532.035
526.774
521.455
516.068
510.592
505.032
499.384
493.538
487.183
479.924
471.465
461.699
450.735
438.835
426.406
413.97
402.167
391.61
382.741
375.835
370.843
367.305
364.612
362.281
360.063
357.744
355.084
351.901
348.098
343.671
956.435
956.275
955.987
955.572
955.033
954.382
953.63
952.797
951.898
950.949
949.968
948.978
947.993
947.019
946.054
945.1
944.144
943.164
942.126
941.015
939.786
938.407
936.854
935.111
933.163
931.009
928.664
926.158
923.526
920.802
918.014
915.175
912.284
909.317
906.228
902.959
899.452
895.654
891.54
887.093
882.295
877.103
871.449
865.245
858.405
850.853
842.554
833.533
823.906
813.857
803.651
793.556
783.803
774.613
766.221
758.883
752.832
748.245
745.213
743.766
743.863
745.327
747.891
751.243
755.147
759.499
764.045
768.309
772.041
775.315
778.122
780.212
781.42
781.895
781.931
781.773
781.553
781.286
780.925
780.399
779.649
778.606
777.163
775.235
772.811
769.98
766.953
764.065
761.7
760.202
759.702
759.94
760.348
760.384
759.739
758.365
756.606
754.974
753.523
751.807
749.638
747.28
744.86
742.323
739.638
736.826
733.858
730.623
727.236
723.399
719.099
714.322
708.594
702.107
694.997
687.088
678.173
668.258
657.528
646.185
634.38
622.218
609.807
597.302
584.926
573.023
562.082
552.635
545.066
539.473
535.664
533.266
532.047
532.019
533.379
536.334
541.054
547.552
554.956
561.434
565.526
566.863
565.989
563.58
560.17
556.125
551.664
546.906
541.939
536.831
531.622
526.342
521.002
515.585
510.083
504.516
498.875
492.993
486.476
478.873
469.88
459.419
447.644
434.844
421.466
408.132
395.587
384.595
375.665
369.052
364.743
362.214
360.697
359.471
358.119
356.411
354.16
351.239
347.595
343.259
960.744
960.56
960.228
959.751
959.137
958.397
957.549
956.613
955.611
954.564
953.501
952.451
951.445
950.497
949.607
948.768
947.96
947.143
946.279
945.317
944.203
942.879
941.298
939.435
937.288
934.879
932.249
929.455
926.562
923.628
920.696
917.783
914.875
911.932
908.89
905.668
902.196
898.41
894.27
889.759
884.868
879.576
873.839
867.587
860.735
853.208
844.962
836.017
826.468
816.497
806.356
796.321
786.65
777.581
769.346
762.174
756.267
751.783
748.809
747.343
747.319
748.572
750.864
753.9
757.423
761.365
765.586
769.595
773.035
776.034
778.684
780.656
781.655
781.813
781.517
781.096
780.732
780.474
780.278
780.022
779.54
778.676
777.332
775.436
772.93
769.883
766.532
763.234
760.421
758.557
757.972
758.515
759.488
760.082
759.792
758.537
756.692
754.831
753.198
751.457
749.266
746.789
744.255
741.67
738.963
736.074
733.048
729.762
726.26
722.45
718.115
713.34
707.976
701.846
694.957
687.236
678.53
668.802
658.201
646.956