/*--------------------------------*- C++ -*----------------------------------*\
  =========                 |
  \\      /  F ield         | OpenFOAM: The Open Source CFD Toolbox
   \\    /   O peration     | Website:  https://openfoam.org
    \\  /    A nd           | Version:  9
     \\/     M anipulation  |
\*---------------------------------------------------------------------------*/
FoamFile
{
    format      ascii;
    class       surfaceScalarField;
    location    "0.096";
    object      phi_0;
}
// * * * * * * * * * * * * * * * * * * * * * * * * * * * * * * * * * * * * * //

dimensions      [0 3 -1 0 0 0 0];

internalField   nonuniform List<scalar> 
24170
(
3.02101e-06
1.21555e-07
2.90318e-06
1.17837e-07
2.81046e-06
9.27137e-08
2.72224e-06
8.82229e-08
2.63842e-06
8.38146e-08
2.56066e-06
7.77602e-08
2.48513e-06
7.55337e-08
2.41056e-06
7.45744e-08
2.3391e-06
7.14563e-08
2.26968e-06
6.94163e-08
2.19746e-06
7.22269e-08
2.11962e-06
7.78345e-08
2.0354e-06
8.4217e-08
1.9516e-06
8.38079e-08
1.87174e-06
7.98601e-08
1.79961e-06
7.21311e-08
1.73195e-06
6.76571e-08
6.71413e-08
1.66481e-06
3.4e-06
1.67305e-07
3.40133e-06
1.16509e-07
3.4078e-06
8.62377e-08
3.40594e-06
9.00832e-08
3.39642e-06
9.33385e-08
3.38927e-06
8.49115e-08
3.38611e-06
7.86896e-08
3.38315e-06
7.75423e-08
3.37744e-06
7.71638e-08
3.36835e-06
7.85073e-08
3.35526e-06
8.53169e-08
3.33787e-06
9.52259e-08
3.31533e-06
1.0675e-07
3.28721e-06
1.11927e-07
3.25523e-06
1.11846e-07
3.22194e-06
1.0542e-07
3.1876e-06
1.02e-07
9.75575e-08
3.15718e-06
3.67996e-06
1.85761e-07
3.66995e-06
1.26525e-07
3.65806e-06
9.81297e-08
3.6546e-06
9.35354e-08
3.65007e-06
9.78708e-08
3.64385e-06
9.11295e-08
3.64274e-06
7.98048e-08
3.64977e-06
7.05121e-08
3.66161e-06
6.53222e-08
3.67273e-06
6.73843e-08
3.67931e-06
7.87433e-08
3.67989e-06
9.46427e-08
3.67603e-06
1.10609e-07
3.66793e-06
1.20025e-07
3.65823e-06
1.21553e-07
3.64641e-06
1.17236e-07
3.6351e-06
1.13315e-07
1.07849e-07
3.62481e-06
3.87917e-06
4.21915e-08
3.91522e-06
9.04758e-08
3.90514e-06
1.08206e-07
3.88997e-06
1.08704e-07
3.89128e-06
9.65606e-08
3.90907e-06
7.33397e-08
3.93281e-06
5.60673e-08
3.95198e-06
5.13406e-08
3.96213e-06
5.51777e-08
3.9656e-06
6.39093e-08
3.96782e-06
7.65214e-08
3.97231e-06
9.01559e-08
3.98035e-06
1.02566e-07
3.98897e-06
1.11413e-07
3.99478e-06
1.15737e-07
3.99431e-06
1.17711e-07
3.98587e-06
1.21753e-07
1.26213e-07
3.96751e-06
4.23344e-06
1.6482e-07
4.22484e-06
9.90788e-08
4.24563e-06
8.74153e-08
4.25049e-06
1.03846e-07
4.23802e-06
1.09033e-07
4.21547e-06
9.58895e-08
4.19916e-06
7.23763e-08
4.19945e-06
5.10521e-08
4.2138e-06
4.08227e-08
4.23236e-06
4.53471e-08
4.24586e-06
6.30282e-08
4.24935e-06
8.66623e-08
4.24347e-06
1.08451e-07
4.23102e-06
1.23857e-07
4.21577e-06
1.30986e-07
4.20032e-06
1.33164e-07
4.18743e-06
1.3464e-07
1.36384e-07
4.17726e-06
4.51601e-06
1.88915e-07
4.55793e-06
5.71609e-08
4.60155e-06
4.37952e-08
4.61005e-06
9.53418e-08
4.5953e-06
1.23784e-07
4.56963e-06
1.21558e-07
4.54481e-06
9.72016e-08
4.52985e-06
6.60044e-08
4.52694e-06
4.37365e-08
4.53197e-06
4.03198e-08
4.53819e-06
5.68075e-08
4.53926e-06
8.55853e-08
4.53176e-06
1.15954e-07
4.51622e-06
1.39403e-07
4.49584e-06
1.51362e-07
4.47533e-06
1.53672e-07
4.4589e-06
1.51071e-07
1.49199e-07
4.44609e-06
4.84443e-06
3.28702e-07
4.83341e-06
6.8174e-08
4.86313e-06
1.40782e-08
4.88446e-06
7.4017e-08
4.89322e-06
1.15021e-07
4.89655e-06
1.18227e-07
4.90482e-06
8.89292e-08
4.9209e-06
4.99263e-08
4.93637e-06
2.82696e-08
4.93988e-06
3.68022e-08
4.92675e-06
6.99437e-08
4.90115e-06
1.11186e-07
4.87194e-06
1.4516e-07
4.84758e-06
1.6376e-07
4.83226e-06
1.66683e-07
4.82675e-06
1.5918e-07
4.82859e-06
1.49232e-07
1.42232e-07
4.83556e-06
5.18537e-06
2.27783e-07
5.17701e-06
7.65339e-08
5.21109e-06
-2.00048e-08
5.28347e-06
1.63755e-09
5.33408e-06
6.44091e-08
5.34206e-06
1.10256e-07
5.32013e-06
1.10856e-07
5.29003e-06
8.00259e-08
5.26536e-06
5.29412e-08
5.25012e-06
5.20431e-08
5.24391e-06
7.61485e-08
5.24495e-06
1.10149e-07
5.252e-06
1.38111e-07
5.26253e-06
1.53228e-07
5.27265e-06
1.5656e-07
5.27811e-06
1.5372e-07
5.27591e-06
1.51437e-07
1.52023e-07
5.26612e-06
5.59025e-06
1.57441e-07
5.63032e-06
3.64683e-08
5.63587e-06
-2.55561e-08
5.64041e-06
-2.89948e-09
5.64801e-06
5.68032e-08
5.65091e-06
1.07362e-07
5.63604e-06
1.25722e-07
5.60047e-06
1.156e-07
5.55476e-06
9.86497e-08
5.51483e-06
9.19754e-08
5.4924e-06
9.85769e-08
5.48975e-06
1.12797e-07
5.50135e-06
1.26518e-07
5.51838e-06
1.36191e-07
5.53249e-06
1.42452e-07
5.53825e-06
1.47963e-07
5.53383e-06
1.5585e-07
1.65366e-07
5.52049e-06
6.02282e-06
1.34743e-07
6.02679e-06
3.24994e-08
6.02981e-06
-2.8577e-08
6.01384e-06
1.30701e-08
5.99085e-06
7.9795e-08
5.97333e-06
1.2488e-07
5.965e-06
1.34057e-07
5.96453e-06
1.1607e-07
5.96895e-06
9.42256e-08
5.97527e-06
8.56635e-08
5.98158e-06
9.22608e-08
5.98705e-06
1.07329e-07
5.9897e-06
1.23867e-07
5.98859e-06
1.37298e-07
5.9838e-06
1.47251e-07
5.97671e-06
1.5505e-07
5.97077e-06
1.61789e-07
1.69544e-07
5.96659e-06
6.32508e-06
1.10047e-07
6.26038e-06
9.71997e-08
6.23932e-06
-7.51795e-09
6.27269e-06
-2.02983e-08
6.3225e-06
2.99837e-08
6.36583e-06
8.15517e-08
6.39943e-06
1.00455e-07
6.42789e-06
8.76091e-08
6.45015e-06
7.1968e-08
6.46007e-06
7.57396e-08
6.45291e-06
9.9422e-08
6.4296e-06
1.30645e-07
6.39627e-06
1.57191e-07
6.36161e-06
1.71958e-07
6.33388e-06
1.74981e-07
6.3181e-06
1.70833e-07
6.31665e-06
1.63235e-07
1.57866e-07
6.32833e-06
5.77886e-06
1.24622e-07
5.77545e-06
1.00612e-07
5.73043e-06
3.75023e-08
5.69473e-06
1.54026e-08
5.70173e-06
2.29832e-08
5.75066e-06
3.26194e-08
5.81134e-06
3.97789e-08
5.84696e-06
5.19827e-08
5.84226e-06
7.66762e-08
5.80764e-06
1.10357e-07
5.76467e-06
1.42392e-07
5.72982e-06
1.65492e-07
5.70973e-06
1.77281e-07
5.7029e-06
1.78787e-07
5.70471e-06
1.73179e-07
5.71089e-06
1.64646e-07
5.71771e-06
1.56418e-07
1.50984e-07
5.72459e-06
7.06277e-06
1.02038e-07
7.08472e-06
7.86648e-08
7.02139e-06
1.00829e-07
6.94188e-06
9.49129e-08
6.89415e-06
7.07125e-08
6.89601e-06
3.0761e-08
6.93179e-06
4.0051e-09
6.9699e-06
1.38684e-08
6.9878e-06
5.87751e-08
6.98282e-06
1.15341e-07
6.96614e-06
1.59065e-07
6.95139e-06
1.8025e-07
6.94698e-06
1.81685e-07
6.95334e-06
1.72424e-07
6.96555e-06
1.6097e-07
6.97754e-06
1.5266e-07
6.98364e-06
1.50312e-07
1.52024e-07
6.9826e-06
8.3931e-06
3.14236e-08
8.46548e-06
6.28509e-09
8.5635e-06
2.80353e-09
8.61908e-06
3.93317e-08
8.61428e-06
7.55146e-08
8.56995e-06
7.50897e-08
8.52375e-06
5.02026e-08
8.49906e-06
3.8561e-08
8.49861e-06
5.9224e-08
8.51132e-06
1.02637e-07
8.5255e-06
1.44885e-07
8.53507e-06
1.70672e-07
8.5392e-06
1.7756e-07
8.53918e-06
1.72448e-07
8.53605e-06
1.64095e-07
8.52977e-06
1.58936e-07
8.52047e-06
1.59618e-07
1.65295e-07
8.5072e-06
1.02364e-05
-5.21455e-08
1.02422e-05
4.82409e-10
1.02453e-05
-2.8583e-10
1.02525e-05
3.2135e-08
1.0268e-05
5.99677e-08
1.02975e-05
4.56111e-08
1.0325e-05
2.27216e-08
1.03422e-05
2.13142e-08
1.03489e-05
5.25602e-08
1.03524e-05
9.90998e-08
1.03562e-05
1.41106e-07
1.03591e-05
1.67745e-07
1.03585e-05
1.78228e-07
1.03538e-05
1.77165e-07
1.03467e-05
1.71103e-07
1.03405e-05
1.65217e-07
1.03382e-05
1.61884e-07
1.62208e-07
1.03413e-05
1.26864e-05
1.53342e-08
1.27644e-05
-7.75482e-08
1.27439e-05
2.02493e-08
1.26791e-05
9.69299e-08
1.2646e-05
9.30502e-08
1.26658e-05
2.58311e-08
1.27143e-05
-2.58156e-08
1.27474e-05
-1.18014e-08
1.27416e-05
5.83955e-08
1.27019e-05
1.38757e-07
1.26505e-05
1.92497e-07
1.26104e-05
2.07835e-07
1.25955e-05
1.93123e-07
1.26085e-05
1.64217e-07
1.26432e-05
1.36379e-07
1.26897e-05
1.18691e-07
1.27383e-05
1.1338e-07
1.20868e-07
1.27796e-05
1.56281e-05
1.34662e-07
1.5444e-05
1.06521e-07
1.53659e-05
9.8421e-08
1.53965e-05
6.62916e-08
1.54733e-05
1.62566e-08
1.55189e-05
-1.97609e-08
1.55049e-05
-1.18323e-08
1.54538e-05
3.92661e-08
1.54034e-05
1.08876e-07
1.53743e-05
1.6781e-07
1.53673e-05
1.99511e-07
1.53735e-05
2.01629e-07
1.53845e-05
1.82117e-07
1.53961e-05
1.52614e-07
1.54088e-05
1.23733e-07
1.54246e-05
1.02809e-07
1.54462e-05
9.18364e-08
9.21485e-08
1.54749e-05
1.85293e-05
1.70575e-07
1.86133e-05
2.25801e-08
1.873e-05
-1.82755e-08
1.88291e-05
-3.28461e-08
1.88781e-05
-3.2771e-08
1.8878e-05
-1.9624e-08
1.88589e-05
7.22705e-09
1.88516e-05
4.6562e-08
1.88714e-05
8.91415e-08
1.89163e-05
1.22914e-07
1.89762e-05
1.39581e-07
1.90396e-05
1.38206e-07
1.90976e-05
1.24089e-07
1.9145e-05
1.05221e-07
1.91794e-05
8.94165e-08
1.92007e-05
8.14813e-08
1.92094e-05
8.3075e-08
9.35049e-08
1.92081e-05
2.32122e-05
8.76557e-09
2.3198e-05
3.68349e-08
2.31357e-05
4.39964e-08
2.30643e-05
3.85859e-08
2.30066e-05
2.48591e-08
2.29773e-05
9.73914e-09
2.29734e-05
1.11135e-08
2.29878e-05
3.21692e-08
2.30172e-05
5.97222e-08
2.30635e-05
7.65982e-08
2.31249e-05
7.81479e-08
2.31921e-05
7.10516e-08
2.32511e-05
6.50544e-08
2.32884e-05
6.79931e-08
2.32964e-05
8.13232e-08
2.32767e-05
1.01261e-07
2.32375e-05
1.22282e-07
1.37241e-07
2.31937e-05
1.66617e-05
-2.56257e-08
1.66298e-05
6.87567e-08
1.66366e-05
3.71693e-08
1.67242e-05
-4.89578e-08
1.6832e-05
-8.29922e-08
1.69079e-05
-6.61714e-08
1.69385e-05
-1.94917e-08
1.69563e-05
1.44164e-08
1.69991e-05
1.69186e-08
1.70771e-05
-1.43004e-09
1.71683e-05
-1.30669e-08
1.72398e-05
-4.07563e-10
1.72672e-05
3.76192e-08
1.72443e-05
9.09476e-08
1.71826e-05
1.42984e-07
1.71024e-05
1.81499e-07
1.70249e-05
1.99771e-07
1.97207e-07
1.69649e-05
1.45063e-05
-1.49531e-07
1.46706e-05
-9.55732e-08
1.47885e-05
-8.0772e-08
1.48438e-05
-1.04237e-07
1.48458e-05
-8.50131e-08
1.47958e-05
-1.61393e-08
1.47208e-05
5.55015e-08
1.46612e-05
7.40675e-08
1.46404e-05
3.76381e-08
1.46516e-05
-1.26408e-08
1.46775e-05
-3.89617e-08
1.46989e-05
-2.17479e-08
1.47078e-05
2.87183e-08
1.47066e-05
9.20966e-08
1.47044e-05
1.45217e-07
1.47105e-05
1.75416e-07
1.47313e-05
1.7894e-07
1.60266e-07
1.47683e-05
1.29279e-05
6.1746e-08
1.27746e-05
5.77283e-08
1.27441e-05
-5.02678e-08
1.27847e-05
-1.4482e-07
1.28545e-05
-1.54871e-07
1.29124e-05
-7.4047e-08
1.29382e-05
2.97399e-08
1.29286e-05
8.37078e-08
1.28955e-05
7.06632e-08
1.28576e-05
2.52934e-08
1.28297e-05
-1.10666e-08
1.28244e-05
-1.64072e-08
1.28449e-05
8.20788e-09
1.28896e-05
4.73813e-08
1.2953e-05
8.1808e-08
1.30276e-05
1.00776e-07
1.31053e-05
1.01287e-07
8.71691e-08
1.31784e-05
1.11443e-05
-1.03142e-08
1.11635e-05
3.8578e-08
1.11571e-05
-4.39459e-08
1.11399e-05
-1.27592e-07
1.11314e-05
-1.46371e-07
1.11426e-05
-8.52327e-08
1.11684e-05
3.90952e-09
1.11947e-05
5.74751e-08
1.12091e-05
5.61803e-08
1.12098e-05
2.46656e-08
1.1205e-05
-6.24985e-09
1.12065e-05
-1.79677e-08
1.12251e-05
-1.03923e-08
1.12649e-05
7.57431e-09
1.1321e-05
2.57206e-08
1.13836e-05
3.81583e-08
1.14418e-05
4.30735e-08
4.24875e-08
1.14865e-05
9.62645e-06
-1.1789e-07
9.75455e-06
-8.95138e-08
9.78861e-06
-7.80075e-08
9.78244e-06
-1.21427e-07
9.75711e-06
-1.2104e-07
9.72813e-06
-5.62564e-08
9.7056e-06
2.64399e-08
9.69014e-06
7.29416e-08
9.67771e-06
6.86101e-08
9.66713e-06
3.5243e-08
9.6609e-06
-2.37392e-11
9.66603e-06
-2.30953e-08
9.68759e-06
-3.19479e-08
9.72509e-06
-2.99243e-08
9.77277e-06
-2.19646e-08
9.82279e-06
-1.18591e-08
9.86742e-06
-1.56091e-09
8.8176e-09
9.90109e-06
8.34391e-06
-1.69191e-07
8.38805e-06
-1.33659e-07
8.43651e-06
-1.26462e-07
8.45824e-06
-1.43156e-07
8.45624e-06
-1.19045e-07
8.45167e-06
-5.16808e-08
8.46493e-06
1.31799e-08
8.49861e-06
3.92571e-08
8.53926e-06
2.79637e-08
8.57095e-06
3.55492e-09
8.58505e-06
-1.41257e-08
8.57887e-06
-1.69134e-08
8.55818e-06
-1.12618e-08
8.53229e-06
-4.03807e-09
8.50957e-06
7.60599e-10
8.49518e-06
2.53351e-09
8.49126e-06
2.35791e-09
2.80264e-09
8.49727e-06
7.40741e-06
-2.22203e-07
7.38257e-06
-1.08816e-07
7.37245e-06
-1.16342e-07
7.36227e-06
-1.32977e-07
7.34794e-06
-1.04713e-07
7.34867e-06
-5.24087e-08
7.37449e-06
-1.26435e-08
7.41663e-06
-2.87715e-09
7.46024e-06
-1.56541e-08
7.49539e-06
-3.15937e-08
7.51735e-06
-3.60812e-08
7.52594e-06
-2.55103e-08
7.5219e-06
-7.21329e-09
7.50856e-06
9.30248e-09
7.49125e-06
1.8061e-08
7.47537e-06
1.842e-08
7.46505e-06
1.26714e-08
5.44455e-09
7.46241e-06
6.42787e-06
-1.61642e-07
6.46499e-06
-1.45938e-07
6.43186e-06
-8.32153e-08
6.37911e-06
-8.02266e-08
6.36227e-06
-8.78731e-08
6.38135e-06
-7.14853e-08
6.40919e-06
-4.04813e-08
6.42394e-06
-1.76321e-08
6.42144e-06
-1.31493e-08
6.41182e-06
-2.19746e-08
6.40809e-06
-3.23504e-08
6.41851e-06
-3.59345e-08
6.44361e-06
-3.23101e-08
6.47853e-06
-2.56196e-08
6.51646e-06
-1.98623e-08
6.55161e-06
-1.67388e-08
6.5804e-06
-1.61116e-08
-1.62239e-08
6.60207e-06
5.5743e-06
-1.99518e-07
5.50231e-06
-7.39505e-08
5.4564e-06
-3.73031e-08
5.45446e-06
-7.82877e-08
5.46727e-06
-1.00677e-07
5.48023e-06
-8.44439e-08
5.49369e-06
-5.39486e-08
5.51164e-06
-3.55772e-08
5.53461e-06
-3.61206e-08
5.56046e-06
-4.7824e-08
5.58723e-06
-5.91203e-08
5.61388e-06
-6.25823e-08
5.63948e-06
-5.79149e-08
5.66293e-06
-4.90723e-08
5.6827e-06
-3.96243e-08
5.69764e-06
-3.16784e-08
5.70687e-06
-2.53454e-08
-2.02041e-08
5.71085e-06
4.89879e-06
-1.75063e-07
4.89657e-06
-7.17253e-08
4.90803e-06
-4.87657e-08
4.88335e-06
-5.36114e-08
4.84325e-06
-6.05692e-08
4.82765e-06
-6.88477e-08
4.84729e-06
-7.35902e-08
4.88441e-06
-7.27007e-08
4.91692e-06
-6.86237e-08
4.93364e-06
-6.45514e-08
4.93529e-06
-6.07687e-08
4.92833e-06
-5.56243e-08
4.91854e-06
-4.81197e-08
4.90863e-06
-3.91633e-08
4.89938e-06
-3.03759e-08
4.89109e-06
-2.33889e-08
4.88451e-06
-1.87676e-08
-1.642e-08
4.88073e-06
4.17746e-06
4.10574e-06
4.05697e-06
4.00336e-06
3.94279e-06
3.87395e-06
3.80036e-06
3.72765e-06
3.65903e-06
3.59448e-06
3.53371e-06
3.47809e-06
3.42997e-06
3.3908e-06
3.36043e-06
3.33704e-06
3.31827e-06
3.30185e-06
-4.03994e-08
4.03994e-08
-9.28595e-08
5.24602e-08
-9.77837e-08
4.92421e-09
-2.62507e-08
-7.15331e-08
1.26225e-07
-1.52476e-07
3.52856e-07
-2.26631e-07
6.44966e-07
-2.9211e-07
9.86432e-07
-3.41465e-07
1.35895e-06
-3.72521e-07
1.74512e-06
-3.86164e-07
2.13016e-06
-3.85043e-07
2.50193e-06
-3.71766e-07
2.85127e-06
-3.49348e-07
3.17164e-06
-3.20371e-07
3.45825e-06
-2.86611e-07
3.70755e-06
-2.493e-07
3.91687e-06
-2.09314e-07
4.0842e-06
-1.67333e-07
4.20783e-06
-1.23629e-07
4.28494e-06
-7.71061e-08
4.31152e-06
-2.65867e-08
4.28627e-06
2.525e-08
4.20749e-06
7.87808e-08
4.07273e-06
1.34767e-07
3.88239e-06
1.90332e-07
3.64077e-06
2.41624e-07
3.36268e-06
2.78085e-07
3.06739e-06
2.95291e-07
2.77138e-06
2.96015e-07
2.46928e-06
3.02098e-07
2.17046e-06
2.98824e-07
1.89715e-06
2.73302e-07
1.667e-06
2.30155e-07
1.59632e-06
7.06813e-08
1.62226e-06
-2.5943e-08
1.66544e-06
-4.31754e-08
1.83656e-06
-1.71127e-07
2.00435e-06
-1.67782e-07
1.97302e-06
3.13243e-08
1.82278e-06
1.50237e-07
1.94475e-06
-1.21962e-07
2.21877e-06
-2.74023e-07
2.32586e-06
-1.07095e-07
2.27952e-06
4.63457e-08
2.11969e-06
1.59832e-07
1.78544e-06
3.34246e-07
1.40518e-06
3.80263e-07
1.02348e-06
3.81698e-07
3.59676e-07
6.63803e-07
-7.50513e-07
1.11019e-06
-2.34899e-06
1.59847e-06
-4.34132e-06
1.99234e-06
-5.86001e-06
1.51869e-06
-6.68456e-06
8.24555e-07
-7.56136e-06
8.76796e-07
-8.39272e-06
8.31358e-07
-8.87083e-06
4.78109e-07
-9.20089e-06
3.30064e-07
-9.50457e-06
3.0368e-07
-9.72734e-06
2.2277e-07
-9.86395e-06
1.36613e-07
-9.93412e-06
7.01692e-08
-9.9458e-06
1.16803e-08
-9.90972e-06
-3.60863e-08
-9.83069e-06
-7.90296e-08
-9.71559e-06
-1.15093e-07
-9.57276e-06
-1.4283e-07
-9.40863e-06
-1.64138e-07
-9.22923e-06
-1.79393e-07
-9.03969e-06
-1.89543e-07
-8.84392e-06
-1.95773e-07
-8.64507e-06
-1.98843e-07
-8.4458e-06
-1.99275e-07
-8.24859e-06
-1.97204e-07
-8.05603e-06
-1.92562e-07
-7.87054e-06
-1.85487e-07
-7.6939e-06
-1.76646e-07
-7.52647e-06
-1.67429e-07
-7.36676e-06
-1.59712e-07
-7.21141e-06
-1.55352e-07
-7.0559e-06
-1.55509e-07
-6.89585e-06
-1.60051e-07
-6.72804e-06
-1.67805e-07
-6.55023e-06
-1.77812e-07
-6.36003e-06
-1.90197e-07
-6.15436e-06
-2.05676e-07
-5.92988e-06
-2.24476e-07
-5.68429e-06
-2.4559e-07
-5.41763e-06
-2.66657e-07
-5.13247e-06
-2.85164e-07
-4.83257e-06
-2.99898e-07
-4.52279e-06
-3.09776e-07
-4.21049e-06
-3.12303e-07
-3.90547e-06
-3.05025e-07
-3.61701e-06
-2.88458e-07
-3.3478e-06
-2.69204e-07
-3.08836e-06
-2.59448e-07
-2.82328e-06
-2.65073e-07
-2.54561e-06
-2.77676e-07
-2.2693e-06
-2.76304e-07
-2.00176e-06
-2.67544e-07
-1.69408e-06
-3.07683e-07
-1.21555e-06
-4.78529e-07
-5.17059e-07
-6.98488e-07
2.76812e-07
-7.93871e-07
1.02317e-06
-7.46358e-07
1.70918e-06
-6.8601e-07
2.30591e-06
-5.96727e-07
2.57238e-06
-2.66471e-07
2.2887e-06
2.83682e-07
1.81156e-06
4.77137e-07
1.7381e-06
7.34562e-08
1.93169e-06
-1.93586e-07
1.72354e-06
2.08149e-07
8.82333e-07
8.41208e-07
-1.95017e-07
1.07735e-06
-1.18928e-06
9.94268e-07
-2.05903e-06
8.69748e-07
-2.82918e-06
7.70151e-07
-3.52818e-06
6.98998e-07
-4.17453e-06
6.46347e-07
-4.77394e-06
5.99411e-07
-5.32137e-06
5.4743e-07
-5.80457e-06
4.83207e-07
-6.20864e-06
4.04066e-07
-6.5196e-06
3.10955e-07
-6.72683e-06
2.07237e-07
-6.82323e-06
9.63951e-08
-6.80831e-06
-1.49187e-08
-6.68484e-06
-1.23465e-07
-6.45446e-06
-2.30388e-07
-6.12374e-06
-3.30714e-07
-5.70114e-06
-4.22606e-07
-5.1977e-06
-5.03438e-07
-4.62743e-06
-5.70273e-07
-4.00666e-06
-6.20762e-07
-3.35287e-06
-6.53791e-07
-2.68435e-06
-6.68525e-07
-2.01852e-06
-6.65829e-07
-1.37192e-06
-6.46604e-07
-7.59457e-07
-6.12458e-07
-1.93731e-07
-5.65726e-07
3.1678e-07
-5.10511e-07
7.67413e-07
-4.50633e-07
1.15815e-06
-3.90736e-07
1.49472e-06
-3.36574e-07
1.78718e-06
-2.9246e-07
2.04776e-06
-2.60575e-07
2.28856e-06
-2.40802e-07
2.51999e-06
-2.31429e-07
2.75033e-06
-2.3034e-07
2.9863e-06
-2.35969e-07
3.23354e-06
-2.47244e-07
3.49745e-06
-2.6391e-07
3.78499e-06
-2.87542e-07
4.10205e-06
-3.17054e-07
4.45081e-06
-3.4876e-07
4.8344e-06
-3.83587e-07
5.24836e-06
-4.13964e-07
5.68663e-06
-4.38267e-07
6.14061e-06
-4.53984e-07
6.57237e-06
-4.3176e-07
7.00058e-06
-4.28214e-07
7.37818e-06
-3.776e-07
7.6151e-06
-2.36917e-07
7.84811e-06
-2.33004e-07
7.83182e-06
1.62888e-08
7.48809e-06
3.43725e-07
7.10185e-06
3.86245e-07
5.56345e-06
1.53839e-06
2.91868e-06
2.64477e-06
9.91915e-07
1.92676e-06
6.45761e-08
9.27339e-07
-6.23074e-07
6.8765e-07
-1.20363e-06
5.8056e-07
-1.30521e-06
1.0158e-07
-1.01463e-06
-2.90579e-07
-5.4017e-07
-4.74464e-07
-1.30128e-07
-4.10042e-07
-3.20243e-07
1.90115e-07
6.73885e-08
-2.69891e-08
1.35765e-07
-1.5916e-08
2.52311e-07
-1.11622e-07
4.59667e-07
-2.78889e-07
7.67078e-07
-4.59886e-07
1.15586e-06
-6.15416e-07
1.59195e-06
-7.28194e-07
2.04547e-06
-7.94986e-07
2.49381e-06
-8.20863e-07
2.92149e-06
-8.13849e-07
3.3184e-06
-7.81952e-07
3.67771e-06
-7.31068e-07
3.99807e-06
-6.69714e-07
4.27878e-06
-6.01076e-07
4.51926e-06
-5.27095e-07
4.7192e-06
-4.49234e-07
4.87855e-06
-3.6867e-07
4.99775e-06
-2.8653e-07
5.07751e-06
-2.03393e-07
5.11973e-06
-1.19328e-07
5.12688e-06
-3.3733e-08
5.09355e-06
5.85783e-08
5.02013e-06
1.52203e-07
4.91158e-06
2.43313e-07
4.76598e-06
3.35932e-07
4.5789e-06
4.2871e-07
4.35251e-06
5.04472e-07
4.09545e-06
5.52349e-07
3.81344e-06
5.78025e-07
3.5146e-06
6.00938e-07
3.20019e-06
6.13234e-07
2.89509e-06
5.78407e-07
2.66341e-06
4.61833e-07
2.43876e-06
2.9533e-07
2.32732e-06
8.54935e-08
2.39955e-06
-1.15399e-07
2.35764e-06
-1.29222e-07
2.38069e-06
-1.90835e-07
2.74657e-06
-3.34556e-07
3.0805e-06
-1.83688e-07
2.96144e-06
-2.8989e-09
2.55802e-06
1.29393e-07
1.89104e-06
5.59881e-07
1.07303e-06
8.64358e-07
3.4241e-07
8.90453e-07
-2.87409e-07
9.64065e-07
-1.11875e-06
1.2116e-06
-2.47668e-06
1.73962e-06
-4.2787e-06
2.46582e-06
-6.09731e-06
2.9288e-06
-7.2801e-06
2.78126e-06
-7.65439e-06
2.36662e-06
-7.94124e-06
1.80554e-06
-8.5467e-06
1.43002e-06
-9.01111e-06
1.3412e-06
-9.24057e-06
1.06081e-06
-9.51777e-06
7.55309e-07
-9.81619e-06
6.28487e-07
-1.00212e-05
5.08681e-07
-1.01542e-05
3.55777e-07
-1.02435e-05
2.25869e-07
-1.02879e-05
1.14605e-07
-1.02886e-05
1.23379e-08
-1.02424e-05
-8.22074e-08
-1.01595e-05
-1.61965e-07
-1.00459e-05
-2.28667e-07
-9.90522e-06
-2.83535e-07
-9.74266e-06
-3.2669e-07
-9.56288e-06
-3.59182e-07
-9.36987e-06
-3.82553e-07
-9.16729e-06
-3.9835e-07
-8.95824e-06
-4.07894e-07
-8.74552e-06
-4.1199e-07
-8.53177e-06
-4.10954e-07
-8.31936e-06
-4.04971e-07
-8.11015e-06
-3.94699e-07
-7.90499e-06
-3.81811e-07
-7.70343e-06
-3.68986e-07
-7.50391e-06
-3.59233e-07
-7.30432e-06
-3.54945e-07
-7.10269e-06
-3.57136e-07
-6.8975e-06
-3.65243e-07
-6.68739e-06
-3.77912e-07
-6.47077e-06
-3.94435e-07
-6.24569e-06
-4.15276e-07
-6.01035e-06
-4.41009e-07
-5.76371e-06
-4.71119e-07
-5.50543e-06
-5.03871e-07
-5.23525e-06
-5.36835e-07
-4.95283e-06
-5.67589e-07
-4.6579e-06
-5.94826e-07
-4.34974e-06
-6.17931e-07
-4.02792e-06
-6.34122e-07
-3.69459e-06
-6.3836e-07
-3.35633e-06
-6.26719e-07
-3.02386e-06
-6.01678e-07
-2.7059e-06
-5.77407e-07
-2.40674e-06
-5.6423e-07
-2.12642e-06
-5.57996e-07
-1.84964e-06
-5.53083e-07
-1.55972e-06
-5.57464e-07
-1.23938e-06
-6.28025e-07
-8.81785e-07
-8.36122e-07
-4.46678e-07
-1.1336e-06
1.52959e-07
-1.39351e-06
8.49247e-07
-1.44265e-06
1.52922e-06
-1.36598e-06
2.0843e-06
-1.15181e-06
2.3895e-06
-5.71671e-07
2.53618e-06
1.37001e-07
2.69915e-06
3.14171e-07
2.70141e-06
7.11939e-08
2.11847e-06
3.89351e-07
8.77716e-07
1.4489e-06
-4.47776e-07
2.1667e-06
-1.46434e-06
2.09391e-06
-2.26118e-06
1.79111e-06
-2.92755e-06
1.53612e-06
-3.51717e-06
1.35977e-06
-4.0598e-06
1.24163e-06
-4.57106e-06
1.15761e-06
-5.05462e-06
1.08297e-06
-5.50372e-06
9.96535e-07
-5.9061e-06
8.85592e-07
-6.24691e-06
7.44874e-07
-6.51244e-06
5.76481e-07
-6.69165e-06
3.86446e-07
-6.77809e-06
1.82837e-07
-6.76222e-06
-3.07897e-08
-6.63763e-06
-2.48056e-07
-6.40804e-06
-4.59979e-07
-6.07679e-06
-6.61964e-07
-5.65176e-06
-8.47633e-07
-5.14427e-06
-1.01093e-06
-4.56869e-06
-1.14585e-06
-3.94145e-06
-1.248e-06
-3.2801e-06
-1.31514e-06
-2.60204e-06
-1.34659e-06
-1.92415e-06
-1.34372e-06
-1.26153e-06
-1.30923e-06
-6.27605e-07
-1.24638e-06
-3.21378e-08
-1.16119e-06
5.16571e-07
-1.05922e-06
1.01213e-06
-9.46196e-07
1.45285e-06
-8.31453e-07
1.84051e-06
-7.24234e-07
2.18058e-06
-6.32533e-07
2.48167e-06
-5.6166e-07
2.75406e-06
-5.13192e-07
3.00823e-06
-4.85598e-07
3.25364e-06
-4.75755e-07
3.49837e-06
-4.80697e-07
3.7504e-06
-4.99275e-07
4.01836e-06
-5.3187e-07
4.31003e-06
-5.79204e-07
4.63361e-06
-6.40637e-07
4.99467e-06
-7.09819e-07
5.39364e-06
-7.82555e-07
5.83104e-06
-8.51369e-07
6.28927e-06
-8.96491e-07
6.76459e-06
-9.29306e-07
7.24908e-06
-9.16252e-07
7.67397e-06
-8.53109e-07
8.08787e-06
-7.91499e-07
8.42811e-06
-5.77152e-07
8.60052e-06
-4.05411e-07
8.78326e-06
-1.66455e-07
8.71424e-06
4.12743e-07
8.44684e-06
6.53641e-07
8.32986e-06
1.65538e-06
7.57602e-06
3.39861e-06
5.57449e-06
3.9283e-06
3.15344e-06
3.34838e-06
1.39892e-06
2.44217e-06
6.49056e-07
1.33043e-06
5.04622e-07
2.46014e-07
6.82454e-07
-4.6841e-07
1.04793e-06
-8.39942e-07
1.39305e-06
-7.55158e-07
-5.60218e-07
1.63302e-06
3.25624e-08
-5.95515e-08
1.23032e-07
-1.06385e-07
4.00681e-07
-3.89271e-07
8.55753e-07
-7.33962e-07
1.4118e-06
-1.01594e-06
1.99562e-06
-1.19924e-06
2.55548e-06
-1.28806e-06
3.06182e-06
-1.30132e-06
3.50535e-06
-1.2644e-06
3.88665e-06
-1.19515e-06
4.21028e-06
-1.10558e-06
4.48473e-06
-1.00552e-06
4.7154e-06
-9.00381e-07
4.90733e-06
-7.93011e-07
5.06487e-06
-6.84633e-07
5.19016e-06
-5.74525e-07
5.2846e-06
-4.63105e-07
5.34963e-06
-3.5156e-07
5.38462e-06
-2.3839e-07
5.38839e-06
-1.23098e-07
5.36337e-06
-8.70938e-09
5.30448e-06
1.17464e-07
5.21275e-06
2.43939e-07
5.08921e-06
3.6685e-07
4.94091e-06
4.84233e-07
4.7682e-06
6.01417e-07
4.55985e-06
7.12823e-07
4.30461e-06
8.0759e-07
4.00498e-06
8.7766e-07
3.69278e-06
9.13135e-07
3.40245e-06
9.03561e-07
3.1697e-06
8.11158e-07
2.94643e-06
6.85109e-07
2.71084e-06
5.30919e-07
2.50998e-06
2.86346e-07
2.26183e-06
1.32759e-07
2.17127e-06
-3.86634e-08
2.17803e-06
-1.97597e-07
2.01348e-06
-1.70009e-07
1.64588e-06
1.83913e-07
8.5755e-07
7.85432e-07
-8.41557e-08
1.0711e-06
-8.04274e-07
1.28e-06
-1.44917e-06
1.50926e-06
-2.35683e-06
1.79811e-06
-3.62903e-06
2.23627e-06
-5.20092e-06
2.7835e-06
-6.69907e-06
3.23777e-06
-7.67413e-06
3.44088e-06
-8.03951e-06
3.29419e-06
-8.08847e-06
2.83022e-06
-8.05262e-06
2.33078e-06
-8.22689e-06
1.9798e-06
-8.60194e-06
1.80507e-06
-8.89029e-06
1.62956e-06
-9.14297e-06
1.31349e-06
-9.44781e-06
1.06015e-06
-9.71681e-06
8.97492e-07
-9.91019e-06
7.02061e-07
-1.0052e-05
4.97568e-07
-1.0149e-05
3.229e-07
-1.01986e-05
1.64209e-07
-1.02007e-05
1.43752e-08
-1.01626e-05
-1.20229e-07
-1.00862e-05
-2.38435e-07
-9.97384e-06
-3.40992e-07
-9.82892e-06
-4.28454e-07
-9.65487e-06
-5.00744e-07
-9.45552e-06
-5.58526e-07
-9.23543e-06
-6.02645e-07
-8.99976e-06
-6.34017e-07
-8.75395e-06
-6.53708e-07
-8.50315e-06
-6.62793e-07
-8.25165e-06
-6.62449e-07
-8.0025e-06
-6.54127e-07
-7.75742e-06
-6.39773e-07
-7.51721e-06
-6.22018e-07
-7.28214e-06
-6.0406e-07
-7.05217e-06
-5.89204e-07
-6.8269e-06
-5.80213e-07
-6.60528e-06
-5.7876e-07
-6.3854e-06
-5.85125e-07
-6.16471e-06
-5.98598e-07
-5.94063e-06
-6.18514e-07
-5.71099e-06
-6.44915e-07
-5.4741e-06
-6.779e-07
-5.22885e-06
-7.1637e-07
-4.97498e-06
-7.57747e-07
-4.71277e-06
-7.99039e-07
-4.44233e-06
-8.38028e-07
-4.16326e-06
-8.73903e-07
-3.87392e-06
-9.07271e-07
-3.57061e-06
-9.37425e-07
-3.2497e-06
-9.59273e-07
-2.91021e-06
-9.66215e-07
-2.55353e-06
-9.58349e-07
-2.18193e-06
-9.49008e-07
-1.80268e-06
-9.4348e-07
-1.43041e-06
-9.30268e-07
-1.07443e-06
-9.09067e-07
-7.27386e-07
-9.04507e-07
-4.24341e-07
-9.3107e-07
-2.38823e-07
-1.02164e-06
-1.27195e-07
-1.24522e-06
1.36535e-07
-1.65724e-06
6.51323e-07
-1.95743e-06
1.34024e-06
-2.05489e-06
2.05121e-06
-1.86279e-06
2.62919e-06
-1.14964e-06
3.06163e-06
-2.9544e-07
3.21016e-06
1.65639e-07
2.71295e-06
5.68406e-07
1.4307e-06
1.6716e-06
-1.78952e-08
2.8975e-06
-9.63902e-07
3.11271e-06
-1.54475e-06
2.67476e-06
-2.03022e-06
2.27658e-06
-2.50522e-06
2.01112e-06
-3.00155e-06
1.8561e-06
-3.52592e-06
1.766e-06
-4.07169e-06
1.70338e-06
-4.62348e-06
1.63476e-06
-5.1577e-06
1.53075e-06
-5.64622e-06
1.37411e-06
-6.06172e-06
1.16037e-06
-6.38389e-06
8.98658e-07
-6.60151e-06
6.04065e-07
-6.70672e-06
2.88041e-07
-6.69883e-06
-3.86755e-08
-6.58179e-06
-3.65097e-07
-6.35595e-06
-6.85815e-07
-6.02744e-06
-9.90474e-07
-5.60536e-06
-1.26972e-06
-5.10184e-06
-1.51445e-06
-4.53165e-06
-1.71604e-06
-3.91159e-06
-1.86806e-06
-3.25952e-06
-1.96721e-06
-2.59286e-06
-2.01324e-06
-1.92773e-06
-2.00885e-06
-1.27862e-06
-1.95834e-06
-6.56609e-07
-1.86839e-06
-7.16236e-08
-1.74618e-06
4.71341e-07
-1.60218e-06
9.6713e-07
-1.44199e-06
1.41463e-06
-1.27895e-06
1.81579e-06
-1.1254e-06
2.17483e-06
-9.91567e-07
2.49801e-06
-8.84841e-07
2.79296e-06
-8.08149e-07
3.06793e-06
-7.6056e-07
3.33162e-06
-7.39447e-07
3.59367e-06
-7.42748e-07
3.86473e-06
-7.70338e-07
4.15631e-06
-8.23446e-07
4.47911e-06
-9.02007e-07
4.84041e-06
-1.00193e-06
5.24356e-06
-1.11297e-06
5.68443e-06
-1.22343e-06
6.15631e-06
-1.32324e-06
6.65118e-06
-1.39137e-06
7.14708e-06
-1.42521e-06
7.63966e-06
-1.40883e-06
8.10079e-06
-1.31424e-06
8.50188e-06
-1.19258e-06
8.8598e-06
-9.35072e-07
9.0746e-06
-6.20218e-07
9.19311e-06
-2.8496e-07
9.2209e-06
3.84956e-07
8.97503e-06
8.99506e-07
8.90773e-06
1.72268e-06
9.0298e-06
3.27654e-06
8.60887e-06
4.34923e-06
7.38176e-06
4.5755e-06
5.80308e-06
4.02085e-06
4.46978e-06
2.66373e-06
3.53113e-06
1.18466e-06
3.00142e-06
6.1299e-08
2.83782e-06
-6.76341e-07
2.9156e-06
-8.32939e-07
-6.86567e-07
3.04195e-06
-5.43383e-08
-5.21321e-09
2.29921e-07
-3.90645e-07
8.3963e-07
-9.9898e-07
1.55773e-06
-1.45207e-06
2.23831e-06
-1.69651e-06
2.81602e-06
-1.77694e-06
3.27836e-06
-1.7504e-06
3.63721e-06
-1.66016e-06
3.90915e-06
-1.53634e-06
4.11266e-06
-1.39866e-06
4.26563e-06
-1.25855e-06
4.38354e-06
-1.12343e-06
4.47707e-06
-9.9391e-07
4.55498e-06
-8.70919e-07
4.62274e-06
-7.52388e-07
4.68119e-06
-6.32977e-07
4.73062e-06
-5.12536e-07
4.77095e-06
-3.91894e-07
4.79795e-06
-2.6539e-07
4.80293e-06
-1.28079e-07
4.77841e-06
1.58134e-08
4.73015e-06
1.65728e-07
4.65621e-06
3.17875e-07
4.55362e-06
4.69437e-07
4.42676e-06
6.11099e-07
4.2875e-06
7.40679e-07
4.13313e-06
8.67191e-07
3.94543e-06
9.95283e-07
3.71231e-06
1.11079e-06
3.44337e-06
1.18208e-06
3.16954e-06
1.17738e-06
2.86602e-06
1.11468e-06
2.53698e-06
1.01415e-06
2.25631e-06
8.11585e-07
1.91666e-06
6.25999e-07
1.73591e-06
3.13512e-07
1.62439e-06
7.2858e-08
1.07277e-06
3.54022e-07
1.29713e-08
8.89787e-07
-9.45225e-07
1.14211e-06
-1.567e-06
1.40721e-06
-2.22395e-06
1.72804e-06
-3.0709e-06
2.12695e-06
-4.14397e-06
2.58233e-06
-5.41361e-06
3.06775e-06
-6.68378e-06
3.50643e-06
-7.68335e-06
3.78307e-06
-8.24521e-06
3.79962e-06
-8.35026e-06
3.54594e-06
-8.19158e-06
3.1355e-06
-8.11163e-06
2.75027e-06
-8.2827e-06
2.50185e-06
-8.62748e-06
2.32458e-06
-8.9561e-06
2.13369e-06
-9.20684e-06
1.88031e-06
-9.47935e-06
1.586e-06
-9.748e-06
1.3288e-06
-9.94071e-06
1.0902e-06
-1.00785e-05
8.3981e-07
-1.01826e-05
6.01672e-07
-1.02425e-05
3.82795e-07
-1.02548e-05
1.7652e-07
-1.02256e-05
-1.47786e-08
-1.01629e-05
-1.82893e-07
-1.00665e-05
-3.34877e-07
-9.93879e-06
-4.68703e-07
-9.78354e-06
-5.83706e-07
-9.60402e-06
-6.80262e-07
-9.40353e-06
-7.59025e-07
-9.18543e-06
-8.2074e-07
-8.95314e-06
-8.6631e-07
-8.71004e-06
-8.96801e-07
-8.45928e-06
-9.13558e-07
-8.20341e-06
-9.18316e-07
-7.94429e-06
-9.13248e-07
-7.68317e-06
-9.00897e-07
-7.42117e-06
-8.84012e-07
-7.15985e-06
-8.65382e-07
-6.9013e-06
-8.47754e-07
-6.64768e-06
-8.33838e-07
-6.40019e-06
-8.26248e-07
-6.15811e-06
-8.272e-07
-5.91861e-06
-8.38097e-07
-5.67794e-06
-8.59187e-07
-5.43288e-06
-8.89973e-07
-5.18151e-06
-9.29269e-07
-4.92281e-06
-9.75074e-07
-4.65591e-06
-1.02465e-06
-4.38009e-06
-1.07486e-06
-4.0952e-06
-1.12292e-06
-3.80158e-06
-1.16753e-06
-3.4996e-06
-1.20925e-06
-3.18854e-06
-1.24849e-06
-2.8674e-06
-1.28041e-06
-2.53754e-06
-1.29608e-06
-2.19987e-06
-1.29602e-06
-1.85371e-06
-1.29517e-06
-1.48182e-06
-1.31536e-06
-1.08255e-06
-1.32954e-06
-6.54628e-07
-1.33699e-06
-1.91455e-07
-1.36768e-06
2.56492e-07
-1.37902e-06
5.60723e-07
-1.32587e-06
6.59546e-07
-1.34405e-06
6.89437e-07
-1.68713e-06
9.26466e-07
-2.19446e-06
1.47857e-06
-2.607e-06
2.20574e-06
-2.58996e-06
2.88197e-06
-1.82587e-06
3.2837e-06
-6.97169e-07
3.06162e-06
3.87723e-07
2.01917e-06
1.61085e-06
5.71666e-07
3.1191e-06
-4.53339e-07
3.92251e-06
-8.95809e-07
3.55518e-06
-1.22241e-06
3.00136e-06
-1.60994e-06
2.66411e-06
-2.08572e-06
2.4869e-06
-2.63855e-06
2.40892e-06
-3.25169e-06
2.37914e-06
-3.89785e-06
2.34954e-06
-4.54111e-06
2.27801e-06
-5.13896e-06
2.12861e-06
-5.65443e-06
1.88958e-06
-6.06475e-06
1.5707e-06