/*--------------------------------*- C++ -*----------------------------------*\
  =========                 |
  \\      /  F ield         | OpenFOAM: The Open Source CFD Toolbox
   \\    /   O peration     | Website:  https://openfoam.org
    \\  /    A nd           | Version:  9
     \\/     M anipulation  |
\*---------------------------------------------------------------------------*/
FoamFile
{
    format      ascii;
    class       volScalarField;
    location    "0.096";
    object      s_0;
}
// * * * * * * * * * * * * * * * * * * * * * * * * * * * * * * * * * * * * * //

dimensions      [0 0 0 0 0 0 0];

internalField   nonuniform List<scalar> 
12225
(
1
1
1
1
1
1
1
1
1
1
1
1
1
1
1
1
1
0.999999
1
1
1
1
1
1
1
1
1
1
1
1
1
1
1
1
1
1
1
1
1
1
1
1
1
1
1
1
1
1
1
1
1
1
1
1
1
1
1
1
1
1
1
1
1
1
1
1
1
1
1
1
1
1
1
1
1
1
1
1
1
1
1
1
1
1
1
1
1
1
1
1
1
1
1
1
1
1
1
1
1
1
1
1
1
1
1
1
1
1
1
1
1
1
1
1
1
1
1
1
1
1
1
1
1
1
1
1
1
1
1
1
1
1
1
1
1
1
1
1
1
1
1
1
1
1
1
1
1
1
1
1
1
1
1
1
1
1
1
1
1
1
1
1
1
1
1
1
1
1
1
1
1
1
1
1
1
1
1
1
1
1
1
1
1
1
1
1
1
1
1
1
1
1
1
1
1
1
1
1
1
1
1
1
1
1
1
1
1
1
1
1
1
1
1
1
1
1
1
1
1
1
1
1
1
1
1
1
1
1
1
1
1
1
1
1
1
1
1
1
1
1
1
1
1
1
1
1
1
1
1
1
1
1
1
1
1
1
1
1
1
1
1
1
1
1
1
1
1
1
1
1
1
1
1
1
1
1
1
1
1
1
1
1
1
1
1
1
1
1
1
1
1
1
1
1
1
1
1
1
1
1
1
1
1
1
1
1
1
1
1
1
1
1
1
1
1
1
1
1
1
1
1
1
1
1
1
1
1
1
1
1
1
1
1
1
1
1
1
1
1
1
1
1
1
1
1
1
1
1
1
1
1
1
1
1
1
1
1
1
1
1
1
1
1
1
1
1
1
1
1
1
1
1
1
1
1
1
1
1
1
1
1
1
1
1
1
1
1
1
1
1
1
1
1
1
1
1
1
1
1
1
1
1
1
1
1
1
1
1
1
1
1
1
1
1
1
1
1
1
1
1
1
1
1
1
1
1
1
1
1
1
1
1
1
1
1
1
1
1
1
1
1
1
1
1
1
1
1
1
1
1
1
1
1
1
1
1
1
1
1
1
1
1
1
1
1
1
1
1
1
1
1
1
1
1
1
1
1
1
1
1
1
1
1
1
1
1
1
1
1
1
1
1
1
1
1
1
1
1
1
1
1
1
1
1
1
1
1
1
1
1
1
1
1
1
1
1
1
1
1
1
1
1
1
1
1
1
1
1
1
1
1
1
1
1
1
1
1
1
1
1
0.712663
0.711384
0.713926
0.715287
0.715746
0.716903
0.718626
0.722039
0.725277
0.728833
0.732944
0.736785
0.740054
0.743414
0.746439
0.747886
0.747924
0.747633
0.746845
0.745295
0.742488
0.738521
0.73459
0.731448
0.729495
0.728624
0.728395
0.728406
0.728627
0.729601
0.734283
0.745575
0.75121
0.754891
0.758659
0.762732
0.767801
0.774116
0.778411
0.780226
0.782007
0.786182
0.7897
0.795261
0.809679
0.848162
0.872904
0.876243
0.870983
0.857319
0.855098
0.875183
0.885809
0.888993
0.892481
0.898066
0.900875
0.902169
0.903662
0.905818
0.907816
0.909839
0.911832
0.913539
0.915032
0.916343
0.917286
0.917941
0.918439
0.918738
0.918967
0.91927
0.919422
0.919484
0.919573
0.919891
0.920612
0.921879
0.924031
0.927558
0.93292
0.940028
0.947734
0.954366
0.957835
0.959426
0.960561
0.96217
0.964127
0.964865
0.965118
0.965221
0.965262
0.965269
0.965292
0.965646
0.966669
0.967117
0.967135
0.966635
0.965311
0.964458
0.964231
0.963148
0.961224
0.960495
0.960475
0.960693
0.960294
0.95746
0.953
0.94806
0.944553
0.944322
0.947236
0.949961
0.95099
0.951614
0.95225
0.952937
0.953688
0.954485
0.955511
0.956688
0.957898
0.959131
0.96029
0.961317
0.962313
0.963102
0.963535
0.963741
0.963802
0.963623
0.96303
0.962545
0.961665
0.960361
0.958847
0.956781
0.954252
0.951245
0.947837
0.944051
0.940174
0.936744
0.934093
0.932363
0.93135
0.93085
0.93071
0.930724
0.930905
0.931338
0.931947
0.932645
0.933298
0.933942
0.934558
0.935035
0.935172
0.935121
0.935012
0.934733
0.934106
0.933537
0.932594
0.931854
0.931682
0.931754
0.927718
0.896357
0.884245
0.884652
0.885438
0.886029
0.886022
0.885117
0.884324
0.887886
0.714307
0.711306
0.711141
0.713054
0.717932
0.727349
0.738542
0.750818
0.760627
0.768027
0.774099
0.778454
0.781
0.783001
0.784972
0.786105
0.786422
0.78644
0.786299
0.785664
0.784261
0.782773
0.780522
0.776137
0.766488
0.753293
0.742374
0.735912
0.733185
0.732939
0.734545
0.741678
0.748129
0.750235
0.750913
0.752143
0.756358
0.766502
0.773364
0.777442
0.780165
0.787101
0.815553
0.857173
0.867868
0.868559
0.859419
0.856177
0.857966
0.860702
0.867981
0.885624
0.892555
0.895991
0.899454
0.903022
0.906351
0.907887
0.908886
0.910617
0.912816
0.914972
0.917024
0.919016
0.920308
0.921255
0.922058
0.92307
0.924144
0.925887
0.928315
0.931031
0.934345
0.938557
0.942841
0.947144
0.951667
0.955443
0.958407
0.960649
0.963151
0.966168
0.967621
0.968413
0.969634
0.971071
0.97165
0.972179
0.97338
0.974404
0.974866
0.975437
0.976319
0.976963
0.977305
0.977854
0.978323
0.978679
0.978751
0.9784
0.976899
0.974422
0.972503
0.968535
0.96284
0.959724
0.958281
0.957789
0.959501
0.96016
0.959715
0.958901
0.953097
0.94687
0.948723
0.951215
0.952961
0.95472
0.956785
0.959306
0.962096
0.964891
0.967878
0.970606
0.97259
0.974111
0.97512
0.97574
0.976085
0.976402
0.976643
0.976809
0.97696
0.977089
0.977169
0.977312
0.977444
0.977541
0.977594
0.977581
0.977395
0.976898
0.975951
0.974426
0.972113
0.968914
0.965005
0.960688
0.956523
0.953453
0.951829
0.951357
0.951359
0.95148
0.951955
0.952942
0.953688
0.953859
0.953823
0.953665
0.953391
0.952752
0.952307
0.951645
0.950074
0.948981
0.947312
0.943102
0.937385
0.934789
0.931321
0.920985
0.898135
0.891647
0.899162
0.912312
0.916765
0.914937
0.901329
0.885129
0.7247
0.720248
0.724891
0.741126
0.762626
0.777084
0.784214
0.786256
0.788032
0.787887
0.78746
0.786523
0.785231
0.784069
0.783411
0.783073
0.782231
0.78167
0.781556
0.781866
0.782826
0.783836
0.784071
0.783877
0.782741
0.779633
0.772286
0.760005
0.748843
0.742558
0.741208
0.743074
0.748308
0.750723
0.751861
0.754298
0.762808
0.77159
0.781063
0.803868
0.857527
0.868727
0.869707
0.866165
0.862104
0.855993
0.855108
0.858931
0.864279
0.874904
0.893047
0.916156
0.930673
0.937639
0.942586
0.950019
0.957867
0.960919
0.962966
0.965416
0.966756
0.967298
0.967394
0.966372
0.964578
0.961482
0.957784
0.952443
0.947015
0.941586
0.936691
0.933201
0.931292
0.930418
0.930175
0.93127
0.935389
0.939848
0.94242
0.944157
0.94687
0.950276
0.952633
0.954082
0.955553
0.957637
0.958939
0.959787
0.961208
0.962896
0.964294
0.965441
0.967178
0.968824
0.969672
0.971635
0.97342
0.976216
0.978047
0.979097
0.979469
0.978235
0.975651
0.971813
0.969616
0.964676
0.960946
0.956284
0.953672
0.954156
0.956152
0.956325
0.951781
0.947672
0.951068
0.955113
0.959344
0.963182
0.966579
0.969422
0.972205
0.974398
0.975616
0.976138
0.976304
0.976323
0.976069
0.975654
0.975506
0.975466
0.975491
0.975596
0.975694
0.975771
0.975804
0.975828
0.975905
0.976152
0.976549
0.977086
0.977676
0.978273
0.978479
0.978306
0.977822
0.976947
0.976033
0.974851
0.973489
0.972473
0.971252
0.970294
0.96903
0.967419
0.965663
0.963942
0.962325
0.960855
0.959754
0.959122
0.958781
0.958592
0.958411
0.958252
0.957887
0.957145
0.956425
0.95526
0.95321
0.947528
0.938221
0.932486
0.920384
0.910953
0.91156
0.91631
0.926424
0.933521
0.937098
0.935232
0.738498
0.742094
0.768681
0.788699
0.792236
0.791328
0.78829
0.781919
0.775712
0.764703
0.755657
0.745182
0.736066
0.729265
0.723968
0.721138
0.716808
0.716227
0.717127
0.71973
0.724715
0.735076
0.747824
0.759748
0.767714
0.769657
0.768693
0.765367
0.757933
0.75194
0.749574
0.749541
0.751432
0.752992
0.755482
0.764034
0.772534
0.798117
0.86545
0.876457
0.875697
0.867741
0.862965
0.855887
0.853835
0.85554
0.860505
0.870925
0.885296
0.910529
0.947956
0.964291
0.971261
0.974582
0.976881
0.97988
0.981637
0.982348
0.982901
0.983318
0.983484
0.983535
0.983431
0.983069
0.982814
0.982392
0.981933
0.981285
0.980518
0.979514
0.977936
0.975819
0.973113
0.969585
0.965328
0.960493
0.956194
0.953925
0.952409
0.95178
0.9516
0.95197
0.953961
0.955801
0.956628
0.957956
0.959958
0.961047
0.961808
0.963139
0.964377
0.965049
0.966068
0.966692
0.966778
0.966789
0.96736
0.969446
0.971817
0.974102
0.975908
0.976697
0.97591
0.972842
0.972549
0.973623
0.971761
0.963226
0.952746
0.94987
0.950129
0.950808
0.948999
0.950144
0.956536
0.963114
0.967533
0.971043
0.973866
0.97551
0.976296
0.976532
0.976419
0.975694
0.97489
0.973653
0.973194
0.973116
0.973659
0.9747
0.975473
0.976205
0.976578
0.976665
0.976506
0.976061
0.975495
0.974847
0.97431
0.973961
0.973761
0.973786
0.974445
0.975358
0.976178
0.97649
0.976354
0.975714
0.974742
0.973891
0.972473
0.971088
0.968914
0.966371
0.964074
0.962015
0.960842
0.960101
0.959745
0.959887
0.960275
0.961125
0.962108
0.962325
0.962175
0.96169
0.960518
0.958505
0.957251
0.955426
0.950716
0.943868
0.932453
0.9226
0.921054
0.921965
0.924737
0.929564
0.937092
0.940672
0.73865
0.773075
0.795104
0.794037
0.787062
0.770133
0.745167
0.722781
0.704257
0.692397
0.684801
0.679955
0.677577
0.67631
0.676424
0.676857
0.677498
0.678895
0.680883
0.685653
0.690697
0.700971
0.71581
0.730256
0.741145
0.751408
0.759499
0.7611
0.759525
0.755141
0.753378
0.753539
0.754958
0.758367
0.767899
0.776267
0.823769
0.875636
0.882088
0.873873
0.863858
0.854189
0.851302
0.851057
0.855218
0.861103
0.874199
0.89126
0.919485
0.958512
0.974098
0.979197
0.980705
0.98117
0.981327
0.981381
0.981211
0.980998
0.980466
0.980147
0.979817
0.979671
0.979622
0.979725
0.979864
0.980306
0.980782
0.981038
0.981331
0.981654
0.98185
0.981932
0.981943
0.981757
0.981368
0.981007
0.980512
0.979942
0.979418
0.978879
0.978246
0.977841
0.977728
0.977723
0.977768
0.977881
0.978045
0.978245
0.978451
0.978611
0.97881
0.979082
0.9793
0.979414
0.979206
0.978072
0.976733
0.976245
0.976165
0.976754
0.977803
0.978086
0.976891
0.973978
0.974096
0.977402
0.978194
0.968879
0.95238
0.947635
0.947572
0.948441
0.948999
0.95512
0.962169
0.967881
0.971945
0.97486
0.976163
0.976517
0.976529
0.976086
0.974815
0.972345
0.970647
0.970228
0.970672
0.973136
0.97577
0.977892
0.980549
0.982908
0.984962
0.986404
0.987041
0.986819
0.98544
0.983157
0.980202
0.977223
0.974873
0.973093
0.97192
0.971225
0.970883
0.970795
0.970905
0.970877
0.970448
0.969079
0.967104
0.965112
0.963062
0.96191
0.960987
0.960394
0.960477
0.960925
0.96208
0.964775
0.967748
0.971189
0.975139
0.976933
0.976823
0.975922
0.973739
0.968684
0.963577
0.959896
0.956626
0.95284
0.944774
0.934996
0.929582
0.928767
0.929032
0.93015
0.932862
0.938356
0.778652
0.80107
0.795817
0.775475
0.736903
0.702181
0.686513
0.678393
0.674583
0.672043
0.671303
0.672652
0.676039
0.68081
0.68978
0.697053
0.704283
0.717209
0.729734
0.735502
0.737233
0.738328
0.744869
0.751458
0.755067
0.760453
0.765087
0.765804
0.765141
0.761889
0.759698
0.759878
0.763359
0.774413
0.778582
0.82125
0.878719
0.885781
0.875643
0.855544
0.847643
0.846364
0.847443
0.852288
0.858847
0.870072
0.88732
0.915998
0.95723
0.974558
0.979368
0.98034
0.980411
0.97949
0.977318
0.975477
0.974329
0.972888
0.972228
0.971754
0.971529
0.971446
0.97144
0.971588
0.971744
0.972208
0.972601
0.972939
0.973471
0.974005
0.974624
0.975216
0.976117
0.976839
0.977482
0.97824
0.978701
0.979273
0.979585
0.979855
0.980077
0.980241
0.980341
0.980406
0.980456
0.980477
0.980477
0.980478
0.980491
0.980507
0.980609
0.980858
0.981312
0.981888
0.982524
0.982909
0.983309
0.983857
0.984523
0.985206
0.98619
0.986918
0.986441
0.982619
0.981142
0.983385
0.983793
0.971146
0.950056
0.945732
0.946309
0.948368
0.951242
0.958824
0.96491
0.969554
0.97342
0.975586
0.976233
0.976301
0.975424
0.972628
0.968665
0.967047
0.966735
0.96749
0.970001
0.97277
0.975064
0.978476
0.981039
0.983911
0.986638
0.989309
0.991241
0.99299
0.994153
0.994696
0.994207
0.992263
0.98818
0.982862
0.977416
0.973456
0.970975
0.96933
0.968228
0.967423
0.966412
0.965422
0.964195
0.963415
0.962551
0.962315
0.962543
0.963368
0.965497
0.968471
0.974271
0.981073
0.986875
0.990689
0.993141
0.994277
0.994299
0.993984
0.993008
0.990525
0.983688
0.971959
0.964043
0.958851
0.951923
0.943629
0.936814
0.933259
0.932393
0.932422
0.93316
0.935863
0.81156
0.804521
0.767013
0.709903
0.688943
0.680534
0.676401
0.675272
0.67784
0.685623
0.700201
0.722717
0.754113
0.783788
0.816457
0.836056
0.852532
0.863296
0.868414
0.870282
0.869048
0.867838
0.864355
0.857099
0.845008
0.830897
0.818207
0.807422
0.799273
0.788644
0.78141
0.780728
0.783428
0.782762
0.807814
0.87707
0.889824
0.88129
0.855093
0.843849
0.842189
0.843254
0.847685
0.854229
0.863084
0.877738
0.903661
0.945877
0.970526
0.977027
0.978444
0.978433
0.976191
0.973122
0.971659
0.970906
0.969944
0.968781
0.968158
0.96775
0.967542
0.967473
0.967584
0.967839
0.968122
0.968654
0.969265
0.96968
0.970356
0.970871
0.971486
0.971882
0.972445
0.972943
0.973331
0.973697
0.973983
0.974251
0.974496
0.974802
0.975192
0.975653
0.976173
0.976691
0.977194
0.977432
0.977504
0.977504
0.977354
0.976907
0.976387
0.975696
0.974963
0.974483
0.97466
0.9757
0.977338
0.979534
0.981972
0.984313
0.986329
0.98797
0.988772
0.98878
0.989287
0.990411
0.990136
0.974788
0.949307
0.945128
0.946389
0.948853
0.955192
0.960281
0.965489
0.969712
0.973491
0.975346
0.975734
0.975076
0.972589
0.967994
0.963637
0.961883
0.96131
0.961401
0.963339
0.964935
0.966993
0.969222
0.971735
0.975687
0.979629
0.984439
0.988582
0.99204
0.994549
0.996173
0.997166
0.997745
0.997661
0.9966
0.993826
0.988329
0.981881
0.976352
0.972835
0.970651
0.9693
0.96867
0.968318
0.968395
0.968757
0.969582
0.971131
0.974822
0.980249
0.987952
0.992703
0.995624
0.997175
0.997924
0.998232
0.998177
0.997994
0.997846
0.997745
0.997484
0.99639
0.993054
0.982131
0.971456
0.963469
0.952926
0.943714
0.937856
0.935049
0.934416
0.934491
0.935523
0.812183
0.780901
0.710464
0.689283
0.682482
0.6812
0.688073
0.705597
0.734709
0.780804
0.830849
0.871508
0.892924
0.902175
0.905742
0.905292
0.903692
0.901082
0.898349
0.896353
0.892326
0.889726
0.888258
0.884234
0.874837
0.866516
0.859647
0.850148
0.838333
0.822524
0.808076
0.796899
0.789565
0.802016
0.869772
0.894143
0.893159
0.866761
0.844625
0.840455
0.840337
0.842695
0.848139
0.855975
0.86737
0.887917
0.926074
0.963009
0.973423
0.975952
0.976237
0.974897
0.971576
0.968391
0.966845
0.964731
0.962003
0.96068
0.959706
0.959077
0.958843
0.958806
0.959256
0.959549
0.960208
0.961261
0.962054
0.963139
0.964644
0.965926
0.967513
0.968942
0.970326
0.971431
0.972338
0.973132
0.973789
0.974304
0.974774
0.975177
0.975599
0.976062
0.976644
0.977293
0.978021
0.978439
0.978582
0.978575
0.978357
0.977743
0.976983
0.975876
0.974387
0.972593
0.971074
0.970051
0.969603
0.969943
0.97118
0.973436
0.977233
0.982113
0.986008
0.9885
0.990478
0.991768
0.9916
0.980154
0.949499
0.945042
0.946744
0.950679
0.956501
0.960395
0.965339
0.969342
0.972748
0.974005
0.973734
0.971463
0.966197
0.958416
0.953192
0.949472
0.947238
0.945984
0.945379
0.94486
0.944157
0.944962
0.947071
0.951824
0.958604
0.966469
0.975407
0.983243
0.989782
0.994191
0.996767
0.998065
0.99872
0.999025
0.998942
0.998272
0.996502
0.993277
0.989262
0.986094
0.984473
0.984089
0.984142
0.984407
0.985031
0.986238
0.989152
0.992792
0.995556
0.997461
0.998486
0.999033
0.999091
0.998975
0.998714
0.998229
0.997325
0.99719
0.997321
0.997797
0.997893
0.99753
0.995403
0.98796
0.978874
0.969706
0.957435
0.946873
0.940196
0.936988
0.936224
0.936386
0.810327
0.748414
0.698976
0.688312
0.691862
0.710568
0.746969
0.804675
0.86401
0.899346
0.915037
0.920755
0.919959
0.915884
0.912347
0.909424
0.905786
0.901277
0.896049
0.888214
0.877351
0.866833
0.860856
0.860085
0.860974
0.861402
0.859684
0.854405
0.843012
0.826882
0.810244
0.800109
0.801471
0.849346
0.899418
0.904391
0.890644
0.856245
0.842367
0.840116
0.840242
0.842836
0.849014
0.858787
0.874457
0.903901
0.950582
0.968166
0.972781
0.973704
0.972682
0.968471
0.962116
0.958462
0.956008
0.953075
0.951955
0.951489
0.951382
0.951926
0.952728
0.953244
0.954561
0.955525
0.956469
0.957319
0.958104
0.958671
0.9592
0.959691
0.960458
0.961452
0.962764
0.96454
0.966696
0.969021
0.971455
0.973631
0.975235
0.976563
0.977817
0.97897
0.980039
0.981014
0.98157
0.981711
0.981649
0.981274
0.980818
0.980386
0.980024
0.979593
0.978921
0.977748
0.975631
0.97305
0.970715
0.969511
0.969419
0.969845
0.970967
0.972977
0.976433
0.982354
0.988476
0.991504
0.991779
0.98636
0.953088
0.945209
0.947637
0.952347
0.956496
0.960132
0.964407
0.967321
0.969452
0.969617
0.967442
0.961092
0.9518
0.944407
0.93885
0.934959
0.932567
0.930615
0.92891
0.927202
0.926407
0.92618
0.926609
0.928408
0.931942
0.939149
0.950488
0.964422
0.976967
0.986716
0.993151
0.996737
0.998458
0.99917
0.999476
0.999577
0.999467
0.999002
0.998202
0.997468
0.997023
0.996851
0.996823
0.996844
0.996935
0.997223
0.997947
0.998704
0.999212
0.999529
0.999556
0.999476
0.99921
0.99827
0.996759
0.994326
0.990938
0.990481
0.991008
0.992696
0.995797
0.997122
0.9971
0.995888
0.991244
0.984312
0.975588
0.962451
0.95049
0.942344
0.938641
0.937899
0.809559
0.738653
0.699914
0.701898
0.726543
0.771893
0.836063
0.887468
0.913102
0.924982
0.928221
0.926868
0.920511
0.915181
0.912731
0.91156
0.909186
0.903822
0.893552
0.876227
0.855891
0.840465
0.832699
0.831589
0.834346
0.840412
0.846773
0.847038
0.836777
0.819535
0.810294
0.808067
0.835267
0.901216
0.916131
0.913413
0.890376
0.855395
0.843337
0.841304
0.841431
0.844187
0.851493
0.8648
0.88836
0.932323
0.960535
0.968862
0.970775
0.970108
0.965235
0.956598
0.952082
0.949611
0.94772
0.946896
0.946653
0.946656
0.947421
0.948
0.949133
0.950698
0.951857
0.953811
0.955469
0.956694
0.957895
0.958758
0.959147
0.959293
0.959487
0.959874
0.96028
0.960812
0.96151
0.962372
0.963554
0.965328
0.967859
0.970723
0.973612
0.976414
0.978719
0.980262
0.980766
0.980803
0.98037
0.979222
0.978113
0.977694
0.977683
0.978267
0.978774
0.978911
0.978756
0.978292
0.977839
0.977306
0.976292
0.974538
0.972758
0.972298
0.972938
0.975013
0.980832
0.988697
0.99129
0.98952
0.961145
0.945872
0.947659
0.952472
0.956098
0.959223
0.961429
0.960286
0.958086
0.955525
0.951026
0.944398
0.937818
0.932682
0.92901
0.926747
0.925399
0.924003
0.922763
0.92155
0.920564
0.919924
0.919622
0.919957
0.921207
0.923694
0.928496
0.938968
0.956796
0.97311
0.985251
0.992844
0.99686
0.998695
0.999427
0.999699
0.999806
0.999813
0.999731
0.999611
0.999528
0.999486
0.999469
0.999468
0.999478
0.999528
0.999668
0.999795
0.999827
0.999788
0.999637
0.99913
0.997713
0.993785
0.987572
0.98116
0.973054
0.971321
0.972368
0.975648
0.983635
0.991628
0.995611
0.996204
0.995636
0.993395
0.988775
0.980833
0.965246
0.95151
0.943037
0.939917
0.809646
0.736052
0.708802
0.724156
0.765746
0.823691
0.879146
0.907725
0.922397
0.930813
0.931903
0.927179
0.91977
0.919396
0.92608
0.929408
0.927615
0.915867
0.892568
0.866826
0.843382
0.830897
0.826284
0.825108
0.82526
0.826666
0.827951
0.827333
0.821942
0.818561
0.817734
0.84032
0.905094
0.928472
0.932166
0.926293
0.900253
0.863675
0.851377
0.848766
0.848577
0.851091
0.860213
0.880208
0.915543
0.949906
0.963628
0.967194
0.967261
0.963264
0.953803
0.947653
0.944884
0.943027
0.941508
0.940778
0.940147
0.939836
0.939739
0.940113
0.940958
0.942528
0.944656
0.947709
0.951058
0.954636
0.957214
0.959328
0.960567
0.961562
0.961948
0.962036
0.962076
0.962145
0.962252
0.962426
0.962724
0.963114
0.963835
0.964809
0.965916
0.96718
0.968906
0.970784
0.971864
0.972213
0.971975
0.97102
0.970088
0.969385
0.968983
0.969166
0.970074
0.971832
0.974132
0.976477
0.978299
0.980117
0.982343
0.984301
0.984611
0.981593
0.976649
0.974653
0.975852
0.981719
0.98921
0.989928
0.974521
0.947862
0.947631
0.952073
0.954997
0.957061
0.952827
0.943677
0.940117
0.937922
0.934515
0.930669
0.927164
0.924701
0.923374
0.922756
0.922188
0.921418
0.92054
0.919274
0.917878
0.916677
0.916042
0.915806
0.916439
0.91769
0.919935
0.924142
0.933345
0.954292
0.97296
0.986111
0.993653
0.997364
0.998979
0.999606
0.999826
0.999907
0.999935
0.999936
0.999928
0.999921
0.999918
0.999918
0.99992
0.99993
0.999947
0.999935
0.999888
0.999695
0.998985
0.99684
0.991422
0.979363
0.965106
0.95586
0.951417
0.950097
0.950365
0.951856
0.956465
0.971032
0.98666
0.993674
0.995408
0.995352
0.994298
0.991012
0.98303
0.964843
0.95037
0.943121
0.811805
0.735351
0.711538
0.73442
0.790339
0.849784
0.895238
0.913335
0.924532
0.933823
0.934503
0.929156
0.926004
0.927669
0.935867
0.9385
0.934781
0.92222
0.902467
0.879161
0.855495
0.836913
0.829418
0.826628
0.825873
0.825925
0.8262
0.826195
0.825613
0.832494
0.859829
0.914312
0.938838
0.946034
0.946886
0.942879
0.927803
0.900571
0.884808
0.880062
0.878767
0.879626
0.888306
0.908936
0.936288
0.956815
0.963328
0.964833
0.962592
0.95401
0.945071
0.941312
0.939339
0.937629
0.93634
0.935484
0.934705
0.934318
0.934147
0.934124
0.934656
0.935333
0.936436
0.938113
0.940721
0.945209
0.951485
0.956841
0.960446
0.962458
0.963649
0.964139
0.964472
0.964684
0.964958
0.9654
0.966028
0.966857
0.967361
0.96745
0.96711
0.96655
0.966622
0.967187
0.967959
0.968715
0.969225
0.969285
0.969058
0.968464
0.967727
0.966972
0.966406
0.966149
0.966246
0.96723
0.969797
0.974081
0.979613
0.98462
0.988156
0.989916
0.989185
0.982423
0.977092
0.977721
0.984114
0.989124
0.985474
0.954815
0.948059
0.951165
0.953187
0.951415
0.940842
0.929791
0.925613
0.923846
0.92301
0.921318
0.920156
0.919861
0.9202
0.920626
0.920552
0.92017
0.919128
0.916974
0.914102
0.911345
0.909875
0.90948
0.910957
0.91328
0.915667
0.918154
0.922374
0.933113
0.956495
0.976125
0.988627
0.995141
0.998095
0.999302
0.999751
0.999904
0.999957
0.999978
0.999985
0.999987
0.999987
0.999988
0.999988
0.999987
0.999977
0.999938
0.999745
0.998965
0.996345
0.988935
0.971364
0.954115
0.947791
0.945706
0.945533
0.945574
0.945474
0.945384
0.945768
0.948481
0.959788
0.982183
0.992064
0.994886
0.995261
0.994597
0.991451
0.980855
0.960641
0.948103
0.811915
0.734578
0.71222
0.738615
0.804336
0.87057
0.902697
0.915318
0.924693
0.937127
0.940268
0.935465
0.930007
0.930598
0.939642
0.945865
0.945438
0.937997
0.923907
0.907615
0.889982
0.869575
0.851026
0.842318
0.838558
0.837371
0.838316
0.844894
0.858829
0.888351
0.928044
0.947963
0.955875
0.958149
0.958349
0.95628
0.948932
0.9357
0.923752
0.919511
0.91809
0.917982
0.921045
0.930972
0.947289
0.958827
0.961728
0.961082
0.956094
0.945506
0.939711
0.93722
0.935742
0.934453
0.933587
0.933081
0.932703
0.932538
0.932482
0.932542
0.932743
0.933143
0.93377
0.934735
0.936169
0.938347
0.942379
0.949469
0.958062
0.963182
0.965756
0.966217
0.966021
0.96582
0.965619
0.96567
0.966098
0.967369
0.969498
0.971737
0.973924
0.975497
0.975447
0.97442
0.97361
0.973715
0.974529
0.97576
0.976688
0.976859
0.975948
0.973244
0.96985
0.967209
0.965809
0.965373
0.965486
0.966143
0.968085
0.973829
0.982718
0.989402
0.992076
0.991957
0.985921
0.979319
0.980054
0.98652
0.98777
0.968764
0.949971
0.949767
0.950424
0.947561
0.932266
0.920641
0.916395
0.915159
0.914928
0.915473
0.91602
0.917212
0.91859
0.919557
0.919627
0.919232
0.917058
0.912647
0.906751
0.900802
0.897017
0.89571
0.898245
0.903529
0.909532
0.914272
0.917569
0.922368
0.938514
0.962905
0.981326
0.99178
0.996736
0.998803
0.999586
0.999861
0.999952
0.999982
0.999992
0.999996
0.999997
0.999998
0.999996
0.999991
0.999963
0.999811
0.99912
0.996483
0.988066
0.96564
0.949118
0.94415
0.943859
0.944283
0.94526
0.946293
0.946254
0.945705
0.944384
0.944426
0.946521
0.956734
0.980987
0.991661
0.994779
0.99525
0.99445
0.989877
0.973259
0.954742
0.8103
0.732464
0.712187
0.73943
0.808575
0.877933
0.906259
0.916307
0.92364
0.937453
0.944028
0.943748
0.935577
0.933852
0.939507
0.950069
0.952336
0.951184
0.943835
0.933033
0.922759
0.911335
0.899332
0.890966
0.886226
0.884714
0.888977
0.902811
0.918962
0.939694
0.955728
0.962632
0.965306
0.966043
0.966054
0.964892
0.961161
0.954658
0.947461
0.943654
0.942007
0.941444
0.941881
0.945114
0.952308
0.958299
0.959443
0.958175
0.950764
0.941146
0.936936
0.934981
0.933833
0.932943
0.932417
0.932147
0.931997
0.931929
0.931899
0.93189
0.931981
0.932182
0.932563
0.933225
0.934307
0.935682
0.938173
0.94388
0.953385
0.963126
0.968806
0.971404
0.971683
0.970651
0.968778
0.966665
0.965318
0.964466
0.964919
0.96813
0.973042
0.977175
0.980427
0.98283
0.984588
0.985826
0.986894
0.987957
0.988931
0.989737
0.990047
0.989249
0.985168
0.976871
0.970737
0.967702
0.96649
0.966039
0.965969
0.966464
0.968833
0.978116
0.98876
0.992857
0.99276
0.986722
0.981041
0.982597
0.98734
0.98307
0.957095
0.950329
0.949427
0.946577
0.932279
0.91497
0.909899
0.909213
0.90974
0.911265
0.913029
0.915481
0.917638
0.919128
0.919392
0.918123
0.914205
0.907362
0.897819
0.887402
0.879282
0.875737
0.877168
0.884368
0.895515
0.906411
0.913704
0.917814
0.925444
0.948219
0.97195
0.98707
0.994749
0.998068
0.999339
0.999784
0.999931
0.999978
0.999993
0.999998
0.999999
0.999999
0.999997
0.999981
0.999885
0.999399
0.997259
0.989254
0.965167
0.946808
0.941939
0.942214
0.943511
0.946375
0.948893
0.950115
0.950457
0.950322
0.949221
0.945777
0.94503
0.946884
0.957908
0.982314
0.992191
0.994912
0.995066
0.993387
0.984024
0.962364
0.803204
0.725657
0.710994
0.738479
0.808387
0.880626
0.911046
0.919504
0.923622
0.932327
0.945704
0.948977
0.946376
0.938188
0.93773
0.946656
0.955722
0.95709
0.956279
0.951858
0.945761
0.939995
0.93364
0.929672
0.928181
0.928103
0.933456
0.941087
0.949807
0.96163
0.967369
0.969856
0.970766
0.970974
0.970839
0.969841
0.967389
0.963476
0.958972
0.955942
0.954626
0.953742
0.953141
0.95326
0.954909
0.957421
0.958161
0.955241
0.946325
0.938138
0.934969
0.933519
0.932733
0.932206
0.931935
0.931815
0.931758
0.931727
0.931674
0.931644
0.931683
0.931798
0.93203
0.932468
0.933367
0.934599
0.936093
0.93885
0.947551
0.960295
0.96852
0.972542
0.974272
0.974889
0.974736
0.973264
0.96951
0.965151
0.962435
0.961285
0.96247
0.968871
0.976836
0.98214
0.985451
0.987488
0.988712
0.989508
0.990275
0.991292
0.992463
0.993174
0.993017
0.989924
0.98038
0.974842
0.972851
0.97156
0.969494
0.967165
0.966485
0.967575
0.975365
0.988376
0.993037
0.992571
0.986007
0.982492
0.984931
0.986031
0.971862
0.953522
0.950069
0.946861
0.934068
0.915285
0.905725
0.904711
0.905628
0.908556
0.911169
0.914264
0.917069
0.918966
0.919389
0.918329
0.914333
0.9056
0.894135
0.881593
0.868722
0.858532
0.855034
0.858805
0.872293
0.890754
0.905832
0.91419
0.919587
0.934989
0.961527
0.981242
0.992116
0.997051
0.998991
0.999676
0.9999
0.99997
0.999991
0.999998
0.999999
0.999998
0.999991
0.999943
0.999664
0.998285
0.992301
0.970239
0.946523
0.940227
0.940484
0.942443
0.94721
0.94946
0.950393
0.950873
0.95127
0.951721
0.951753
0.950836
0.946905
0.946156
0.948688
0.963181
0.98523
0.993194
0.994886
0.994446
0.989685
0.971112
0.786257
0.711835
0.707825
0.73547
0.80253
0.87713
0.914193
0.924172
0.926461
0.929129
0.939242
0.951071
0.95353
0.950411
0.941974
0.940927
0.947516
0.958526
0.96083
0.960873
0.959497
0.956991
0.954421
0.952199
0.951329
0.951304
0.954411
0.959092
0.963284
0.969015
0.972268
0.973446
0.973812
0.973861
0.973707
0.972959
0.971046
0.96777
0.963758
0.960639
0.959325
0.958761
0.958219
0.957566
0.95696
0.95671
0.955409
0.951403
0.944387
0.938058
0.934769
0.933194
0.93239
0.931952
0.931727
0.931622
0.931583
0.931564
0.93155
0.931557
0.931598
0.9317
0.931892
0.932224
0.932899
0.93426
0.935634
0.937471
0.941536
0.9539
0.965108
0.971233
0.97396
0.975086
0.975637
0.975854
0.97565
0.973553
0.96751
0.961894
0.959268
0.958925
0.961761
0.970394
0.978121
0.982135
0.983506
0.983636
0.983938
0.985542
0.988894
0.992107
0.993551
0.9933
0.989165
0.984239
0.983954
0.984303
0.982989
0.97649
0.969079
0.966907
0.967878
0.976505
0.989299
0.992878
0.991557
0.98502
0.983926
0.98569
0.983309
0.964552
0.952994
0.948577
0.938979
0.918007
0.905964
0.902225
0.902658
0.905914
0.909747
0.913884
0.9173
0.919193
0.919723
0.919128
0.916119
0.909185
0.899356
0.885444
0.86854
0.852265
0.841097
0.837492
0.843031
0.866693
0.892027
0.908078
0.915728
0.925991
0.950987
0.974629
0.988938
0.995775
0.998544
0.999535
0.99986
0.99996
0.999989
0.999997
0.999998
0.999996
0.999977
0.999846
0.999102
0.995507
0.980727
0.949305
0.938608
0.938153
0.940383
0.946129
0.948733
0.949829
0.950178
0.949925
0.949886
0.950216
0.951506
0.951868
0.951008
0.947381
0.947298
0.951647
0.971052
0.988668
0.993994
0.994379
0.992169
0.97879
0.763899
0.700504
0.702233
0.730904
0.789179
0.855657
0.910996
0.929525
0.933789
0.934213
0.935026
0.942153
0.954084
0.957513
0.956153
0.947693
0.944994
0.94736
0.956746
0.961947
0.963277
0.963519
0.963312
0.962969
0.962801
0.962825
0.963906
0.966293
0.968579
0.971073
0.973049
0.974367
0.974925
0.975096
0.975078
0.974774
0.973738
0.97133
0.967277
0.962826
0.960655
0.95958
0.959222
0.958795
0.958056
0.956918
0.954838
0.950703
0.944781
0.938816
0.935255
0.933443
0.93251
0.932015
0.931758
0.93163
0.931572
0.931547
0.931541
0.931552
0.931604
0.931769
0.932063
0.932342
0.932843
0.934222
0.935839
0.937346
0.940247
0.947074
0.959838
0.967715
0.971189
0.972608
0.973757
0.975139
0.976146
0.976563
0.976112
0.972698
0.964868
0.959174
0.957076
0.957075
0.959831
0.964321
0.965828
0.965498
0.965344
0.967448
0.974386
0.98362
0.990428
0.993308
0.993783
0.994026
0.994763
0.995663
0.995462
0.992929
0.98079
0.969877
0.967581
0.969466
0.981016
0.99069
0.992194
0.989338
0.984843
0.985232
0.985247
0.980168
0.961238
0.952571
0.945272
0.925148
0.908397
0.901951
0.900905
0.902354
0.907188
0.913017
0.917764
0.920862
0.921639
0.921603
0.920746
0.918266
0.913062
0.899843
0.876122
0.852144
0.834793
0.827339
0.827414
0.83794
0.872226
0.899138
0.911656
0.920559
0.941597
0.96779
0.985419
0.994321
0.998027
0.999373
0.999814
0.999948
0.999986
0.999996
0.999997
0.999992
0.999944
0.99962
0.9978
0.989143
0.959463
0.939194
0.935563
0.937355
0.943971
0.947428
0.948895
0.948776
0.947943
0.946109
0.944827
0.945031
0.946422
0.95016
0.950921
0.949953
0.947753
0.948769
0.957186
0.98026
0.991623
0.993962
0.992994
0.984531
0.753301
0.697293
0.698638
0.728045
0.780023
0.836182
0.890705
0.9282
0.938652
0.941424
0.941826
0.941679
0.94461
0.954192
0.959955
0.960171
0.954674
0.949478
0.949705
0.954521
0.961172
0.96383
0.96498
0.965722
0.966483
0.96718
0.967867
0.968938
0.970137
0.971369
0.972849
0.974234
0.974967
0.975321
0.975454
0.975436
0.975088
0.973942
0.971353
0.966356
0.962088
0.959976
0.958766
0.958409
0.957953
0.957019
0.955073
0.951216
0.945927
0.940517
0.936577
0.934278
0.933016
0.932335
0.931968
0.93178
0.931676
0.931659
0.931676
0.931749
0.931928
0.932315
0.932826
0.933295
0.933845
0.935114
0.937619
0.939185
0.940803
0.944965
0.955798
0.963721
0.966328
0.966457
0.967046
0.969661
0.973906
0.976507
0.977697
0.977766
0.976634
0.970954
0.962109
0.956898
0.954944
0.954377
0.953956
0.9537
0.953738
0.954527
0.95739
0.965845
0.979666
0.989399
0.994046
0.996247
0.997611
0.998072
0.99799
0.996966
0.991698
0.97696
0.969379
0.968929
0.974256
0.986537
0.990968
0.990669
0.986531
0.985029
0.985484
0.984592
0.976051
0.958806
0.952145
0.938874