/*--------------------------------*- C++ -*----------------------------------*\
  =========                 |
  \\      /  F ield         | OpenFOAM: The Open Source CFD Toolbox
   \\    /   O peration     | Website:  https://openfoam.org
    \\  /    A nd           | Version:  9
     \\/     M anipulation  |
\*---------------------------------------------------------------------------*/
FoamFile
{
    format      ascii;
    class       volVectorField;
    location    "0.096";
    object      UMean;
}
// * * * * * * * * * * * * * * * * * * * * * * * * * * * * * * * * * * * * * //

dimensions      [0 1 -1 0 0 0 0];

internalField   nonuniform List<vector> 
12225
(
(9.83642 0.0442392 0)
(9.54168 0.0593998 0)
(9.2423 0.0574588 0)
(8.93893 0.0561707 0)
(8.64004 0.0556234 0)
(8.35086 0.0548804 0)
(8.0716 0.053836 0)
(7.80257 0.0529876 0)
(7.54044 0.0520902 0)
(7.28725 0.0518632 0)
(7.03601 0.0513129 0)
(6.79469 0.0522615 0)
(6.54519 0.052229 0)
(6.31114 0.0557963 0)
(6.0447 0.0570575 0)
(5.81104 0.0666507 0)
(5.49084 0.0718688 0)
(5.24407 0.0956266 0)
(10.0248 0.0536176 0)
(10.0841 0.0760598 0)
(10.1221 0.0753618 0)
(10.1354 0.0766154 0)
(10.1316 0.0799565 0)
(10.1172 0.0830807 0)
(10.0941 0.0856464 0)
(10.0637 0.0880572 0)
(10.0251 0.0905679 0)
(9.98044 0.093402 0)
(9.92693 0.096757 0)
(9.86911 0.100749 0)
(9.79995 0.106254 0)
(9.72803 0.112772 0)
(9.6387 0.123675 0)
(9.54789 0.135669 0)
(9.42957 0.159577 0)
(9.30943 0.18308 0)
(10.0006 0.029642 0)
(10.0319 0.051891 0)
(10.0603 0.0545552 0)
(10.0778 0.0570525 0)
(10.088 0.0618007 0)
(10.0958 0.066686 0)
(10.1026 0.0708373 0)
(10.1082 0.0749483 0)
(10.1118 0.0790396 0)
(10.113 0.0839684 0)
(10.1116 0.0890779 0)
(10.1073 0.0958474 0)
(10.1005 0.103268 0)
(10.0901 0.114051 0)
(10.0778 0.127271 0)
(10.0614 0.146556 0)
(10.0471 0.172594 0)
(10.0309 0.204889 0)
(9.99957 0.031647 0)
(10.0217 0.0592893 0)
(10.044 0.0650183 0)
(10.0583 0.0670385 0)
(10.0657 0.0709911 0)
(10.0703 0.0756267 0)
(10.0741 0.0798099 0)
(10.0771 0.0836682 0)
(10.0789 0.0877066 0)
(10.0793 0.0923053 0)
(10.0782 0.0978131 0)
(10.0756 0.104462 0)
(10.0717 0.112933 0)
(10.0666 0.123706 0)
(10.0611 0.138122 0)
(10.0564 0.156956 0)
(10.0546 0.181022 0)
(10.0594 0.208448 0)
(10.008 0.0204063 0)
(10.0248 0.0448766 0)
(10.0437 0.052807 0)
(10.0569 0.055706 0)
(10.0638 0.0598232 0)
(10.0675 0.0651216 0)
(10.0704 0.070308 0)
(10.0729 0.0752531 0)
(10.0743 0.0802479 0)
(10.0743 0.0858238 0)
(10.0727 0.0921827 0)
(10.0699 0.0997823 0)
(10.0657 0.109035 0)
(10.061 0.120601 0)
(10.0561 0.135228 0)
(10.0527 0.153404 0)
(10.0515 0.174773 0)
(10.0555 0.197527 0)
(9.98718 0.0213756 0)
(10.0006 0.045988 0)
(10.0168 0.0567125 0)
(10.0295 0.0609742 0)
(10.0368 0.0651059 0)
(10.0408 0.0702607 0)
(10.0439 0.0755198 0)
(10.0465 0.0805654 0)
(10.0484 0.0857447 0)
(10.0491 0.0915432 0)
(10.0485 0.0982625 0)
(10.0469 0.106243 0)
(10.0442 0.115796 0)
(10.0414 0.12747 0)
(10.0386 0.141595 0)
(10.0373 0.158456 0)
(10.0379 0.177214 0)
(10.042 0.196908 0)
(10.0123 0.0142722 0)
(10.0224 0.036313 0)
(10.0354 0.0481441 0)
(10.0467 0.0536349 0)
(10.0538 0.0580687 0)
(10.0577 0.0633627 0)
(10.0602 0.0691043 0)
(10.062 0.0748333 0)
(10.0632 0.080682 0)
(10.0633 0.0870841 0)
(10.0624 0.0943785 0)
(10.0606 0.102897 0)
(10.0584 0.112888 0)
(10.0561 0.124761 0)
(10.0543 0.1386 0)
(10.0537 0.15457 0)
(10.0547 0.171819 0)
(10.0584 0.189933 0)
(10.0118 0.0154582 0)
(10.0197 0.0364783 0)
(10.0309 0.0487207 0)
(10.0413 0.0555114 0)
(10.0484 0.0606884 0)
(10.0523 0.0662005 0)
(10.0547 0.0721603 0)
(10.0565 0.0782896 0)
(10.0579 0.0845925 0)
(10.0587 0.0913913 0)
(10.0587 0.0989898 0)
(10.058 0.107705 0)
(10.0568 0.11774 0)
(10.0557 0.129386 0)
(10.0548 0.142629 0)
(10.0551 0.157526 0)
(10.0564 0.173398 0)
(10.0599 0.189952 0)
(10.0074 0.00963895 0)
(10.012 0.028988 0)
(10.0203 0.0418627 0)
(10.0294 0.0497347 0)
(10.0365 0.0554632 0)
(10.0412 0.061123 0)
(10.0443 0.0672082 0)
(10.0467 0.0735802 0)
(10.0488 0.0802236 0)
(10.0505 0.087385 0)
(10.0517 0.0953416 0)
(10.0525 0.104377 0)
(10.053 0.114618 0)
(10.0536 0.126264 0)
(10.0544 0.139196 0)
(10.0562 0.153457 0)
(10.0589 0.168406 0)
(10.0634 0.183928 0)
(9.99739 0.0133215 0)
(10.0014 0.0282585 0)
(10.0081 0.0414581 0)
(10.0157 0.0504091 0)
(10.0225 0.0568077 0)
(10.0275 0.0627155 0)
(10.0312 0.0689437 0)
(10.0341 0.0755107 0)
(10.0366 0.082368 0)
(10.0387 0.0896971 0)
(10.0402 0.0977401 0)
(10.0415 0.106777 0)
(10.0425 0.116901 0)
(10.0438 0.128247 0)
(10.0454 0.140633 0)
(10.0482 0.154067 0)
(10.0516 0.167972 0)
(10.0568 0.182368 0)
(9.99198 0.00835289 0)
(9.9979 0.0244325 0)
(10.005 0.0361896 0)
(10.0125 0.0448467 0)
(10.0193 0.0517064 0)
(10.0246 0.0579208 0)
(10.0284 0.064227 0)
(10.0314 0.0709653 0)
(10.0339 0.0781879 0)
(10.0359 0.0859713 0)
(10.0376 0.0943994 0)
(10.0391 0.103655 0)
(10.0405 0.113759 0)
(10.0424 0.124841 0)
(10.0447 0.136706 0)
(10.0479 0.149428 0)
(10.0518 0.162488 0)
(10.0569 0.176047 0)
(10.003 0.00654412 0)
(10.0041 0.0231763 0)
(10.0082 0.0346363 0)
(10.0145 0.0437607 0)
(10.0211 0.0513649 0)
(10.0267 0.0581813 0)
(10.0309 0.0649077 0)
(10.0342 0.0719264 0)
(10.037 0.0793306 0)
(10.0396 0.0871764 0)
(10.0421 0.0955383 0)
(10.0447 0.104598 0)
(10.0475 0.11439 0)
(10.0505 0.125035 0)
(10.054 0.136344 0)
(10.058 0.148396 0)
(10.0626 0.1607 0)
(10.068 0.173494 0)
(9.99567 0.00937778 0)
(9.99573 0.0200086 0)
(9.99899 0.0308069 0)
(10.0046 0.0397806 0)
(10.0108 0.0470897 0)
(10.0167 0.0537838 0)
(10.0217 0.060622 0)
(10.0261 0.0678331 0)
(10.0301 0.0753832 0)
(10.0338 0.0833 0)
(10.0375 0.0916514 0)
(10.0413 0.100619 0)
(10.0452 0.110238 0)
(10.0494 0.120611 0)
(10.0539 0.131535 0)
(10.0591 0.143089 0)
(10.0645 0.154804 0)
(10.0709 0.166979 0)
(9.99709 0.00903464 0)
(10.001 0.0193618 0)
(10.0049 0.030184 0)
(10.0093 0.0391881 0)
(10.0141 0.0464982 0)
(10.019 0.0531453 0)
(10.0236 0.0599175 0)
(10.0279 0.0671131 0)
(10.032 0.0746749 0)
(10.0361 0.0825633 0)
(10.0402 0.090784 0)
(10.0443 0.0995003 0)
(10.0486 0.108729 0)
(10.0532 0.118619 0)
(10.0581 0.128941 0)
(10.0636 0.139845 0)
(10.0694 0.1508 0)
(10.0761 0.162213 0)
(9.99221 0.00301353 0)
(9.99566 0.0154956 0)
(9.99943 0.0252145 0)
(10.0039 0.0333648 0)
(10.0091 0.0406641 0)
(10.0145 0.0475794 0)
(10.0197 0.0544306 0)
(10.0247 0.0614742 0)
(10.0295 0.0688332 0)
(10.0343 0.0765734 0)
(10.0392 0.0846783 0)
(10.0443 0.0932179 0)
(10.0496 0.102129 0)
(10.0552 0.11151 0)
(10.0611 0.121157 0)
(10.0675 0.131242 0)
(10.0743 0.141316 0)
(10.0817 0.151818 0)
(10.0138 0.00411197 0)
(10.0134 0.015457 0)
(10.0143 0.0238702 0)
(10.0175 0.0310015 0)
(10.0225 0.0377396 0)
(10.028 0.0444862 0)
(10.0335 0.0513976 0)
(10.0386 0.0585029 0)
(10.0437 0.0657603 0)
(10.049 0.0731948 0)
(10.0545 0.0808187 0)
(10.0603 0.0887552 0)
(10.0665 0.0969785 0)
(10.0729 0.10562 0)
(10.0797 0.114476 0)
(10.0868 0.123732 0)
(10.0941 0.132919 0)
(10.1019 0.14251 0)
(9.99312 0.00580475 0)
(9.99134 0.0129211 0)
(9.99199 0.0196849 0)
(9.99553 0.0259689 0)
(10.0007 0.0319896 0)
(10.0062 0.0380023 0)
(10.0117 0.0441832 0)
(10.0173 0.0505842 0)
(10.0232 0.057141 0)
(10.0295 0.0638562 0)
(10.0361 0.0707251 0)
(10.043 0.077865 0)
(10.0502 0.0852534 0)
(10.0576 0.0930261 0)
(10.0653 0.100982 0)
(10.0734 0.109308 0)
(10.0815 0.117538 0)
(10.0904 0.126143 0)
(9.98665 0.0104045 0)
(9.98712 0.0119028 0)
(9.989 0.0157924 0)
(9.99272 0.0209522 0)
(9.99767 0.0264673 0)
(10.0033 0.0319948 0)
(10.0095 0.0375274 0)
(10.0159 0.0431504 0)
(10.0225 0.0488985 0)
(10.0294 0.0548286 0)
(10.0364 0.0609208 0)
(10.0437 0.0672447 0)
(10.0512 0.0737204 0)
(10.059 0.0804523 0)
(10.0669 0.0872397 0)
(10.0752 0.0942951 0)
(10.0836 0.101205 0)
(10.0924 0.108454 0)
(9.9906 0.0036587 0)
(9.9948 0.00653217 0)
(9.99963 0.00990372 0)
(10.0048 0.0133334 0)
(10.0104 0.016898 0)
(10.0166 0.0207639 0)
(10.0233 0.0249793 0)
(10.0305 0.029495 0)
(10.038 0.0341992 0)
(10.0458 0.0390549 0)
(10.0538 0.0440283 0)
(10.0619 0.0491912 0)
(10.0703 0.0544978 0)
(10.0789 0.0600389 0)
(10.0877 0.0656311 0)
(10.0967 0.0714199 0)
(10.1059 0.0770259 0)
(10.1154 0.0828304 0)
(10.0019 -0.000557646 0)
(10.004 0.00262352 0)
(10.0076 0.00421503 0)
(10.0129 0.00590105 0)
(10.0194 0.00833418 0)
(10.0265 0.0114269 0)
(10.0339 0.0148819 0)
(10.0415 0.0184921 0)
(10.0494 0.0221933 0)
(10.0575 0.0260451 0)
(10.0659 0.0300703 0)
(10.0744 0.0342941 0)
(10.083 0.0385999 0)
(10.0919 0.042989 0)
(10.101 0.0472717 0)
(10.1103 0.051587 0)
(10.1199 0.0556566 0)
(10.1297 0.0598758 0)
(10.0021 -0.000238641 0)
(10.003 -0.00125365 0)
(10.0061 -0.00204931 0)
(10.0117 -0.00182594 0)
(10.0186 -0.000524033 0)
(10.0261 0.00147017 0)
(10.0339 0.00377313 0)
(10.042 0.00625307 0)
(10.0505 0.0089475 0)
(10.0593 0.0119436 0)
(10.0684 0.0152022 0)
(10.0777 0.0186397 0)
(10.0872 0.0220793 0)
(10.0968 0.025481 0)
(10.1065 0.0287134 0)
(10.1164 0.0319201 0)
(10.1264 0.0349318 0)
(10.1365 0.0380755 0)
(9.99866 0.000537628 0)
(9.99974 -0.00493547 0)
(10.0039 -0.00669324 0)
(10.0107 -0.00653267 0)
(10.0189 -0.00560649 0)
(10.0273 -0.00438609 0)
(10.0355 -0.00302214 0)
(10.0438 -0.00146955 0)
(10.0523 0.000379323 0)
(10.0612 0.00258767 0)
(10.0705 0.0050792 0)
(10.08 0.00775055 0)
(10.0898 0.0104289 0)
(10.0996 0.0130789 0)
(10.1095 0.0155872 0)
(10.1194 0.0180875 0)
(10.1293 0.0204371 0)
(10.1392 0.0229257 0)
(9.98589 0.00122825 0)
(9.99227 -0.00892555 0)
(9.99993 -0.0139181 0)
(10.0082 -0.0153545 0)
(10.0169 -0.015081 0)
(10.0258 -0.0142737 0)
(10.0347 -0.0134377 0)
(10.0437 -0.0125756 0)
(10.0529 -0.0115006 0)
(10.0623 -0.0100839 0)
(10.0719 -0.00836518 0)
(10.0817 -0.00643319 0)
(10.0916 -0.00441759 0)
(10.1016 -0.00235653 0)
(10.1116 -0.000349712 0)
(10.1216 0.00166732 0)
(10.1316 0.0035751 0)
(10.1414 0.00555107 0)
(10.0153 -0.0078504 0)
(10.023 -0.0120735 0)
(10.0324 -0.0169955 0)
(10.042 -0.0193044 0)
(10.0512 -0.0194111 0)
(10.0601 -0.0188042 0)
(10.0689 -0.0182485 0)
(10.0779 -0.0177039 0)
(10.0872 -0.0169325 0)
(10.0969 -0.0158346 0)
(10.1067 -0.0144947 0)
(10.1167 -0.0130126 0)
(10.1268 -0.0114899 0)
(10.1369 -0.00994059 0)
(10.147 -0.00843367 0)
(10.1571 -0.00690675 0)
(10.1671 -0.0054739 0)
(10.1771 -0.00398756 0)
(9.98803 -0.00971815 0)
(9.99208 -0.0207754 0)
(10.0015 -0.0265525 0)
(10.013 -0.0285404 0)
(10.0237 -0.0288032 0)
(10.0332 -0.0288116 0)
(10.0424 -0.0289695 0)
(10.0519 -0.0290838 0)
(10.0616 -0.0289269 0)
(10.0715 -0.028437 0)
(10.0814 -0.0276778 0)
(10.0914 -0.0267178 0)
(10.1014 -0.0256399 0)
(10.1116 -0.0244713 0)
(10.1219 -0.0232868 0)
(10.1323 -0.0220803 0)
(10.1428 -0.0209504 0)
(10.1532 -0.0198187 0)
(10.0197 -0.00639682 0)
(10.0311 -0.0232329 0)
(10.0452 -0.0278957 0)
(10.0581 -0.0282768 0)
(10.0689 -0.0284745 0)
(10.0784 -0.0292066 0)
(10.0876 -0.0299437 0)
(10.0972 -0.0302798 0)
(10.107 -0.0301751 0)
(10.1168 -0.0297762 0)
(10.1266 -0.0292464 0)
(10.1364 -0.0286835 0)
(10.1462 -0.028141 0)
(10.1561 -0.0276015 0)
(10.1661 -0.0270803 0)
(10.1762 -0.0265261 0)
(10.1863 -0.0259908 0)
(10.1965 -0.0253884 0)
(9.99669 -0.0208026 0)
(10.013 -0.0351868 0)
(10.0296 -0.0403609 0)
(10.043 -0.040728 0)
(10.0537 -0.0408739 0)
(10.0633 -0.0416628 0)
(10.0728 -0.042396 0)
(10.0828 -0.0426998 0)
(10.093 -0.0426589 0)
(10.1034 -0.0424348 0)
(10.1138 -0.0421108 0)
(10.1242 -0.0417179 0)
(10.1347 -0.0412868 0)
(10.1451 -0.0408413 0)
(10.1555 -0.0404189 0)
(10.1658 -0.0400108 0)
(10.1761 -0.0396538 0)
(10.1862 -0.0392915 0)
(10.0006 -0.0202009 0)
(10.0185 -0.0309359 0)
(10.0396 -0.034584 0)
(10.0563 -0.0355697 0)
(10.0687 -0.0368518 0)
(10.0797 -0.0383192 0)
(10.091 -0.0394114 0)
(10.1028 -0.040093 0)
(10.1147 -0.0405473 0)
(10.1264 -0.0408937 0)
(10.138 -0.0411391 0)
(10.1494 -0.0413022 0)
(10.1607 -0.0413758 0)
(10.1718 -0.0414136 0)
(10.1829 -0.0414017 0)
(10.1936 -0.0414005 0)
(10.2044 -0.041387 0)
(10.2149 -0.0414192 0)
(10.0121 -0.0357132 0)
(10.049 -0.0540894 0)
(10.0812 -0.0523962 0)
(10.1029 -0.0514852 0)
(10.1173 -0.0526011 0)
(10.1281 -0.0536936 0)
(10.1368 -0.0542705 0)
(10.1435 -0.054579 0)
(10.1481 -0.0547657 0)
(10.1509 -0.0548652 0)
(10.1521 -0.0548544 0)
(10.1521 -0.0547847 0)
(10.1511 -0.0546539 0)
(10.1495 -0.0545458 0)
(10.1471 -0.0544137 0)
(10.1445 -0.0543579 0)
(10.1409 -0.0543053 0)
(10.1377 -0.0544028 0)
(9.91549 -0.0319406 0)
(9.75443 -0.0478818 0)
(9.58989 -0.0463421 0)
(9.42193 -0.0453731 0)
(9.25675 -0.0456471 0)
(9.09808 -0.0456029 0)
(8.94693 -0.0450212 0)
(8.80316 -0.0442053 0)
(8.66625 -0.0433642 0)
(8.5359 -0.0425715 0)
(8.41165 -0.0418161 0)
(8.29353 -0.041097 0)
(8.18092 -0.0403878 0)
(8.07417 -0.0397198 0)
(7.97202 -0.0390602 0)
(7.87564 -0.0384651 0)
(7.78247 -0.0378825 0)
(7.69563 -0.0374187 0)
(-0.183434 0.398353 -7.51726e-22)
(-0.470035 0.23276 7.69356e-22)
(-0.625493 0.0754063 0)
(-0.64482 -0.0884553 0)
(-0.507548 -0.239292 0)
(-0.261774 -0.349651 -7.50446e-22)
(0.0589057 -0.414816 0)
(0.416666 -0.433697 0)
(0.776525 -0.415824 0)
(1.11289 -0.364345 0)
(1.41021 -0.301193 7.9999e-22)
(1.67639 -0.250947 0)
(1.90171 -0.173895 0)
(2.05645 -0.108969 0)
(2.16382 -0.0688625 0)
(2.23727 -0.0355978 1.06242e-21)
(2.27683 -0.0243132 0)
(2.30004 -0.0332811 0)
(2.30431 -0.02787 0)
(2.28878 -0.00626751 0)
(2.24432 0.0315035 0)
(2.16273 0.069051 0)
(2.04103 0.0953117 0)
(1.89422 0.129347 1.10895e-21)
(1.70767 0.176636 -1.09628e-21)
(1.49538 0.18506 1.0874e-21)
(1.27183 0.171275 1.0842e-21)
(1.0303 0.13477 0)
(0.802621 0.0962106 0)
(0.570932 0.126995 -1.10013e-21)
(0.324434 0.165413 -1.11096e-21)
(0.0662783 0.187873 0)
(-0.197104 0.1883 0)
(-0.447159 0.163532 -1.16157e-21)
(-0.673872 0.127103 0)
(-0.871592 0.102265 0)
(-1.0441 0.0928772 1.20786e-21)
(-1.20153 0.0793278 0)
(-1.3436 0.0615767 1.25682e-21)
(-1.50942 0.0651176 2.59206e-21)
(-1.72358 0.110574 0)
(-1.99365 0.180997 0)
(-2.32241 0.216176 0)
(-2.64499 0.202757 0)
(-2.93982 0.182741 0)
(-3.19266 0.129627 3.12027e-21)
(-3.39036 0.033906 3.24865e-21)
(-3.56888 0.000767164 3.37835e-21)
(-3.72129 0.0743299 0)
(-3.91007 0.108971 -3.56092e-21)
(-4.05717 0.0921223 0)
(-4.17899 0.0888187 3.69097e-21)
(-4.28089 0.0842242 3.72784e-21)
(-4.35936 0.0651351 0)
(-4.4048 0.0365976 0)
(-4.42857 -0.0102555 0)
(-4.42915 -0.0117227 3.68452e-21)
(-4.44513 -0.00024339 0)
(-4.43017 -0.019268 0)
(-4.38882 -0.0384017 0)
(-4.30224 -0.061301 0)
(-4.20204 -0.115813 0)
(-4.08369 -0.111315 0)
(-4.01729 -0.0610411 0)
(-3.96028 -0.0586919 0)
(-3.89286 -0.0567037 -3.02903e-21)
(-3.82876 -0.0594281 0)
(-3.75682 -0.060223 0)
(-3.68785 -0.0592095 2.85702e-21)
(-3.6191 -0.0561273 2.80619e-21)
(-3.55528 -0.0527568 0)
(-3.49875 -0.0467318 -2.71752e-21)
(-3.45398 -0.0338511 2.69146e-21)
(-3.42895 -0.0175504 0)
(-3.42989 -0.00250315 -2.69734e-21)
(-3.45784 0.0170525 0)
(-3.5271 0.0360984 0)
(-3.63205 0.058697 2.72448e-21)
(-3.79103 0.0813677 0)
(-3.99696 0.101537 -2.61109e-21)
(-4.25133 0.0990346 0)
(-4.48895 0.0529066 2.44129e-21)
(-4.61658 0.0330137 2.36703e-21)
(-4.71556 0.00858701 2.28688e-21)
(-4.72474 -0.0452533 4.38996e-21)
(-4.72343 -0.0616061 -4.20861e-21)
(-4.72558 -0.0493794 0)
(-4.81021 0.0120713 0)
(-4.97503 0.106193 0)
(-5.18053 0.113694 -3.61409e-21)
(-5.31049 0.0738043 -3.60128e-21)
(-5.38109 0.0378591 3.60581e-21)
(-5.39463 0.00601136 0)
(-5.35638 -0.0193268 -3.54591e-21)
(-5.27007 -0.0415512 -3.45817e-21)
(-5.14201 -0.0603349 -3.33091e-21)
(-4.97717 -0.076018 0)
(-4.78843 -0.0861642 0)
(-4.58322 -0.0895259 0)
(-4.37891 -0.0884258 -2.45927e-21)
(-4.17479 -0.0820364 0)
(-3.98777 -0.0719791 0)
(-3.83235 -0.0531134 1.2482e-21)
(-3.70907 -0.0491868 0)
(-3.58075 -0.0516829 0)
(-3.43196 -0.120209 -1.70055e-22)
(-3.26273 -0.0761168 0)
(-3.33604 0.026818 0)
(-3.42825 0.0409525 1.04711e-21)
(-3.52481 0.0504823 1.06756e-21)
(-3.62831 0.0477718 0)
(-3.70415 0.0388895 -8.29128e-22)
(-3.75332 0.0275248 0)
(-3.76135 0.0129296 4.6051e-22)
(-3.72261 -0.00792716 0)
(-3.62645 -0.0320344 2.61824e-22)
(-3.4778 -0.053908 2.88238e-22)
(-3.28251 -0.0719484 0)
(-3.04852 -0.0866689 0)
(-2.78032 -0.0989773 0)
(-2.482 -0.109288 0)
(-2.15706 -0.117728 0)
(-1.81029 -0.124206 0)
(-1.44696 -0.128615 0)
(-1.07246 -0.130861 3.26453e-21)
(-0.692217 -0.130942 -3.72687e-21)
(-0.31056 -0.129418 0)
(0.0691836 -0.126747 0)
(0.444419 -0.123313 0)
(0.813082 -0.11923 0)
(1.17338 -0.114495 -1.06164e-20)
(1.52328 -0.108889 0)
(1.8602 -0.102221 1.11214e-20)
(2.18093 -0.0943013 -1.1219e-20)
(2.48163 -0.085279 0)
(2.759 -0.0777785 0)
(3.01195 -0.0684565 0)
(3.24087 -0.0594192 1.08299e-20)
(3.44551 -0.0509089 1.06158e-20)
(3.62693 -0.0430366 0)
(3.78666 -0.0359118 1.01356e-20)
(3.92633 -0.0295324 9.88539e-21)
(4.04777 -0.0238473 -9.63595e-21)
(4.15272 -0.0187586 0)
(4.24264 -0.0141586 0)
(4.31866 -0.00991933 -8.92911e-21)
(4.38149 -0.00590028 0)
(4.43144 -0.00198711 0)
(4.46867 0.00186537 0)
(4.49313 0.00567083 0)
(4.50455 0.00946908 8.00172e-21)
(4.50251 0.0132725 7.86037e-21)
(4.48637 0.0170885 0)
(4.45531 0.0210036 7.62035e-21)
(4.40833 0.0249893 0)
(4.34434 0.0287737 0)
(4.26257 0.0319182 7.34446e-21)
(4.16288 0.0339973 0)
(4.04652 0.0342073 7.18729e-21)
(3.9179 0.0324531 0)
(3.78355 0.0302368 0)
(3.64894 0.030258 6.98194e-21)
(3.51715 0.0334208 0)
(3.38073 0.041625 6.88932e-21)
(3.22777 0.0473651 0)
(3.06032 0.0483312 0)
(2.87735 0.0460014 0)
(2.68598 0.0371659 -6.718e-21)
(2.50326 0.0277206 0)
(2.32864 0.0153453 6.59553e-21)
(2.18898 -0.00267316 0)
(2.11104 -0.00711011 0)
(2.06245 0.00362811 0)
(2.01438 0.0118218 0)
(1.963 0.0131774 0)
(1.90356 0.00909148 0)
(1.85754 0.0141738 0)
(1.75922 0.0126876 -1.31668e-20)
(1.73217 0.0364152 0)
(1.48483 0.0158472 0)
(-0.00994063 0.866648 2.32943e-21)
(-0.0183122 0.635916 -2.37005e-21)
(0.0300203 0.256129 0)
(0.192507 -0.155128 1.68041e-21)
(0.432117 -0.562241 0)
(0.734404 -0.865924 7.47968e-22)
(1.05661 -1.03251 -1.69621e-21)
(1.36458 -1.07788 -1.71844e-21)
(1.64421 -1.03305 0)
(1.87858 -0.935788 -1.84861e-21)
(2.07504 -0.841329 -7.97816e-22)
(2.22187 -0.734435 0)
(2.32469 -0.571564 0)
(2.41453 -0.401824 0)
(2.48111 -0.287155 0)
(2.5135 -0.191521 -1.06056e-21)
(2.51412 -0.101395 0)
(2.48747 -0.0220721 2.43912e-21)
(2.43369 0.0420973 0)
(2.36301 0.0980318 0)
(2.26853 0.183486 -2.46236e-21)
(2.15327 0.283759 0)
(2.01433 0.367807 2.43416e-21)
(1.86186 0.443443 -1.10584e-21)
(1.69938 0.501494 1.09279e-21)
(1.51438 0.544422 -1.08362e-21)
(1.29887 0.603138 -1.08021e-21)
(1.04313 0.652732 0)
(0.751441 0.671589 0)
(0.427026 0.666243 1.09672e-21)
(0.106008 0.652558 -1.29375e-21)
(-0.193783 0.638416 0)
(-0.483747 0.623008 0)
(-0.751471 0.586064 1.15857e-21)
(-1.00463 0.527824 0)
(-1.23358 0.45753 0)
(-1.44092 0.382274 -1.20439e-21)
(-1.64506 0.336726 0)
(-1.87313 0.380884 1.5216e-21)
(-2.14174 0.49471 -2.5865e-21)
(-2.42348 0.606629 0)
(-2.6965 0.690479 0)
(-2.95761 0.713612 -6.1856e-21)
(-3.20939 0.655729 -6.33853e-21)
(-3.46209 0.589264 -6.54175e-21)
(-3.67813 0.506479 3.65867e-21)
(-3.91133 0.481361 -3.24229e-21)
(-4.15819 0.449115 -1.06505e-20)
(-4.33389 0.39185 7.50456e-21)
(-4.49574 0.330178 3.55271e-21)
(-4.61108 0.258561 0)
(-4.69915 0.19804 -3.68248e-21)
(-4.74298 0.132698 4.31656e-21)
(-4.7673 0.0710714 0)
(-4.77032 0.0303234 0)
(-4.78655 0.020006 0)
(-4.78208 0.00486827 -3.67882e-21)
(-4.76515 -0.031137 0)
(-4.71547 -0.0851706 7.61249e-21)
(-4.65427 -0.15157 0)
(-4.56857 -0.205957 7.29312e-21)
(-4.53841 -0.174904 0)
(-4.50898 -0.139509 -6.97613e-21)
(-4.47089 -0.125634 0)
(-4.42378 -0.131004 6.67575e-21)
(-4.36748 -0.130659 -3.52655e-21)
(-4.30878 -0.13317 0)
(-4.24269 -0.132128 -6.34049e-21)
(-4.17644 -0.12997 -2.85487e-21)
(-4.10908 -0.124766 -2.80419e-21)
(-4.04562 -0.117267 0)
(-3.98948 -0.104665 -3.22438e-21)
(-3.93299 -0.0853384 -2.68961e-21)
(-3.88619 -0.0512696 0)
(-3.85461 -0.000156699 2.69582e-21)
(-3.84161 0.0603631 -5.8758e-21)
(-3.86587 0.129113 0)
(-3.93221 0.216219 -2.72293e-21)
(-4.04773 0.30112 0)
(-4.20636 0.367966 8.18596e-21)
(-4.40314 0.395114 0)
(-4.65619 0.319059 -7.59677e-21)
(-4.86076 0.196696 -2.36571e-21)
(-5.00505 0.0985322 2.50497e-21)
(-5.10187 0.034999 4.80358e-21)
(-5.22775 0.0470675 -4.61738e-21)
(-5.35278 0.126219 0)
(-5.53376 0.230213 0)
(-5.64308 0.238988 0)
(-5.71267 0.184899 1.15425e-20)
(-5.72671 0.10879 3.5989e-21)
(-5.70709 0.0331956 -3.60308e-21)
(-5.64273 -0.0420231 0)
(-5.54183 -0.112213 -4.00599e-21)
(-5.40346 -0.176396 3.45666e-21)
(-5.23575 -0.230831 3.33013e-21)
(-5.03893 -0.272482 0)
(-4.83118 -0.295371 0)
(-4.60964 -0.302561 0)
(-4.39836 -0.294476 2.46062e-21)
(-4.18587 -0.278761 0)
(-4.00435 -0.240375 -3.79398e-21)
(-3.82913 -0.206081 -4.10485e-21)
(-3.6945 -0.188916 1.83287e-21)
(-3.5619 -0.20766 0)
(-3.52962 -0.149257 1.60634e-22)
(-3.57392 -0.00049844 0)
(-3.62688 0.0763909 -1.15937e-21)
(-3.64668 0.0902378 3.41008e-22)
(-3.68044 0.0988279 3.37059e-22)
(-3.69797 0.0786879 0)
(-3.69624 0.0454992 1.81228e-21)
(-3.66097 0.00196545 -6.72196e-22)
(-3.58429 -0.0502093 -4.59961e-22)
(-3.46012 -0.111629 0)
(-3.2945 -0.171615 -2.5993e-22)
(-3.09529 -0.223938 -4.84554e-22)
(-2.86639 -0.268647 0)
(-2.60801 -0.307601 -9.51205e-22)
(-2.32036 -0.341715 -1.59645e-21)
(-2.00489 -0.371275 -2.39644e-21)
(-1.66424 -0.395834 0)
(-1.30258 -0.41503 0)
(-0.92536 -0.427706 0)
(-0.537968 -0.43384 3.0831e-21)
(-0.146067 -0.433956 3.72289e-21)
(0.245981 -0.429361 0)
(0.635167 -0.421528 8.89657e-21)
(1.01951 -0.41166 9.54172e-21)
(1.39744 -0.400203 0)
(1.76749 -0.386958 1.0608e-20)
(2.12791 -0.371171 2.16321e-20)
(2.4764 -0.352151 -1.11133e-20)
(2.80996 -0.329542 -1.10477e-20)
(3.12429 -0.305583 0)
(3.41579 -0.279791 0)
(3.68504 -0.25263 0)
(3.93146 -0.225972 -1.08193e-20)
(4.15535 -0.20067 1.05036e-20)
(4.35786 -0.177176 2.06505e-20)
(4.54042 -0.155737 -1.01264e-20)
(4.70467 -0.136377 9.79718e-21)
(4.85229 -0.118947 9.62723e-21)
(4.98481 -0.103229 0)
(5.10354 -0.0889634 0)
(5.20955 -0.0758431 -8.85242e-21)
(5.30378 -0.0635237 0)
(5.38708 -0.051702 0)
(5.45988 -0.0401245 1.65712e-20)
(5.52244 -0.0286039 0)
(5.57475 -0.0169868 7.91847e-21)
(5.6166 -0.00507679 -7.85138e-21)
(5.64766 0.00726199 0)
(5.66744 0.0201792 7.52373e-21)
(5.67518 0.0337909 0)
(5.66991 0.0481039 0)
(5.65043 0.0628211 -7.33481e-21)
(5.61506 0.0773799 1.43955e-20)
(5.56212 0.0905154 -7.17743e-21)
(5.48987 0.100539 0)
(5.39672 0.105464 0)
(5.28163 0.105486 6.86307e-21)
(5.14643 0.102995 0)
(5.00603 0.103346 6.7703e-21)
(4.87495 0.110595 0)
(4.7533 0.121646 0)
(4.63581 0.133525 0)
(4.50575 0.140046 6.7058e-21)
(4.36288 0.13809 0)
(4.20753 0.127365 -6.58421e-21)
(4.04407 0.102188 0)
(3.88266 0.0654841 0)
(3.74304 0.0399442 1.28412e-20)
(3.64882 0.0309398 -1.28408e-20)
(3.59696 0.0348523 0)
(3.54422 0.0346992 0)
(3.50833 0.0476648 0)
(3.42392 0.0443 3.9362e-20)
(3.39367 0.0785573 0)
(3.22086 0.067275 -2.63465e-20)
(0.0763388 0.565151 -3.65358e-23)
(0.285379 0.263921 3.15022e-21)
(0.582039 -0.272197 0)
(0.93819 -0.825012 -3.37021e-21)
(1.29936 -1.27587 0)
(1.61913 -1.55977 0)
(1.8769 -1.66215 -2.8213e-22)
(2.07456 -1.61411 1.71566e-21)
(2.2179 -1.45579 2.16473e-21)
(2.3166 -1.22834 1.84759e-21)
(2.37022 -0.982509 0)
(2.37723 -0.744225 0)
(2.33148 -0.546086 -2.51211e-21)
(2.28144 -0.41019 -5.14568e-21)
(2.22795 -0.262037 5.23702e-21)
(2.16724 -0.0985125 0)
(2.09588 0.0270991 5.35602e-21)
(2.01111 0.126788 -2.44072e-21)
(1.91635 0.203621 0)
(1.7984 0.309939 5.40631e-21)
(1.66908 0.425711 2.46168e-21)
(1.53907 0.52666 -5.38738e-21)
(1.40309 0.619457 -2.43188e-21)
(1.2629 0.703045 0)
(1.11061 0.785941 5.31503e-21)
(0.929965 0.889413 5.2911e-21)
(0.729979 0.990652 0)
(0.50379 1.08819 5.25032e-21)
(0.251106 1.16665 0)
(-0.0285683 1.21256 5.23679e-21)
(-0.333467 1.21789 2.39288e-21)
(-0.638331 1.18794 0)
(-0.934427 1.12628 0)
(-1.20683 1.03481 0)
(-1.46582 0.935732 0)
(-1.71158 0.840657 0)
(-1.96602 0.779535 0)
(-2.23697 0.771346 5.91089e-21)
(-2.52661 0.840327 -8.88513e-21)
(-2.81616 0.941736 0)
(-3.07289 1.00928 0)
(-3.30884 1.02272 0)
(-3.49803 1.02248 -6.7224e-22)
(-3.69381 0.975972 6.32748e-21)
(-3.87476 0.901044 1.37445e-20)
(-4.05258 0.822853 -1.42138e-20)
(-4.22587 0.748509 -7.70352e-21)
(-4.38303 0.669068 7.26964e-21)
(-4.50176 0.588547 7.09029e-22)
(-4.60324 0.500639 8.41072e-21)
(-4.6754 0.403556 0)
(-4.73293 0.302345 8.689e-21)
(-4.76888 0.206815 7.16742e-22)
(-4.80779 0.135476 0)
(-4.83377 0.0823562 0)
(-4.84355 0.0360724 -8.65837e-21)
(-4.82435 -0.0186717 0)
(-4.79531 -0.0788968 0)
(-4.7523 -0.148699 8.85095e-21)
(-4.71607 -0.20392 1.60864e-20)
(-4.71576 -0.200342 -7.29222e-21)
(-4.73352 -0.176342 0)
(-4.72658 -0.166369 6.97419e-21)
(-4.70516 -0.171901 0)
(-4.67147 -0.186427 7.94276e-21)
(-4.62305 -0.198555 6.54892e-21)
(-4.56252 -0.212689 -1.42282e-20)
(-4.49149 -0.220264 -7.70652e-21)
(-4.41566 -0.218346 0)
(-4.34002 -0.208823 1.3633e-20)
(-4.2689 -0.196831 0)
(-4.20329 -0.18243 1.9145e-20)
(-4.13977 -0.157843 1.30451e-20)
(-4.08283 -0.113041 1.29468e-20)
(-4.03123 -0.0522669 -1.28917e-20)
(-3.99591 0.0337804 1.87367e-20)
(-3.98919 0.151912 0)
(-4.01249 0.289508 0)
(-4.0654 0.416639 -1.23605e-20)
(-4.16535 0.517758 -1.75579e-20)
(-4.27691 0.595653 0)
(-4.46614 0.554236 5.1631e-21)
(-4.6674 0.420413 0)
(-4.8591 0.282646 -1.49513e-20)
(-5.03911 0.203914 5.74677e-22)
(-5.20441 0.206159 -6.1276e-22)
(-5.35575 0.289576 9.20977e-21)
(-5.44338 0.328887 0)
(-5.45318 0.277226 -8.90921e-21)
(-5.43401 0.186323 8.56774e-22)
(-5.38372 0.077673 0)
(-5.31767 -0.0348322 0)
(-5.22685 -0.143739 0)
(-5.11752 -0.242404 7.55912e-21)
(-4.98409 -0.330465 0)
(-4.83134 -0.405501 0)
(-4.65592 -0.461409 0)
(-4.46738 -0.491291 0)
(-4.26485 -0.494927 0)
(-4.06957 -0.474694 5.73737e-21)
(-3.88017 -0.437347 0)
(-3.73783 -0.38027 3.80354e-21)
(-3.59676 -0.334229 2.86327e-21)
(-3.50533 -0.287843 -1.83999e-21)
(-3.44255 -0.234426 0)
(-3.48063 -0.111386 2.42326e-24)
(-3.49557 0.0117868 0)
(-3.45547 0.0577527 1.1519e-21)
(-3.41611 0.0830764 -1.37701e-21)
(-3.39624 0.0912675 -2.26757e-21)
(-3.36388 0.0622581 0)
(-3.32346 0.012185 -1.16915e-21)
(-3.25095 -0.0581492 9.59244e-22)
(-3.14311 -0.142916 0)
(-2.99585 -0.234082 9.87504e-22)
(-2.82215 -0.317218 1.00561e-21)
(-2.62181 -0.390218 -5.19689e-22)
(-2.39552 -0.455153 0)
(-2.14086 -0.514463 9.45955e-22)
(-1.85801 -0.568313 1.59201e-21)
(-1.54724 -0.616077 6.32065e-21)
(-1.21107 -0.656393 0)
(-0.853169 -0.68748 0)
(-0.479032 -0.707656 0)
(-0.0949956 -0.716659 5.7516e-21)
(0.292418 -0.715524 0)
(0.678224 -0.706576 0)
(1.05914 -0.69255 -8.89087e-21)
(1.43339 -0.675714 -9.53621e-21)
(1.79986 -0.656912 0)
(2.15764 -0.635622 0)
(2.50531 -0.610394 -2.16217e-20)
(2.84095 -0.57987 0)
(3.16126 -0.543843 2.22447e-20)
(3.46255 -0.504931 2.20084e-20)
(3.74208 -0.462205 0)
(3.99967 -0.418149 0)
(4.23509 -0.374975 -2.13196e-20)
(4.4491 -0.334136 -1.73484e-22)
(4.64314 -0.296418 -1.57912e-22)
(4.81883 -0.262126 0)
(4.97788 -0.23121 -3.91923e-20)
(5.12193 -0.203405 0)
(5.25241 -0.178346 0)
(5.37054 -0.155631 0)
(5.47731 -0.134848 1.77656e-20)
(5.5735 -0.115591 0)
(5.65979 -0.0974888 -3.36505e-20)
(5.73666 -0.0801583 -1.65644e-20)
(5.80455 -0.0631804 0)
(5.86374 -0.0462787 -1.59046e-20)
(5.91439 -0.0291967 0)
(5.95646 -0.0116933 0)
(5.98983 0.00648185 -4.51278e-20)
(6.01428 0.0255802 2.95737e-20)
(6.02945 0.0457107 0)
(6.03472 0.0666793 2.8828e-20)
(6.02922 0.088123 -1.43883e-20)
(6.0116 0.109318 0)
(5.98025 0.129324 0)
(5.93254 0.147076 0)
(5.86622 0.162326 -4.12008e-20)
(5.77822 0.174929 0)
(5.6664 0.181758 -1.36402e-20)
(5.53596 0.180747 0)
(5.39584 0.177309 0)
(5.26241 0.178869 0)
(5.14558 0.184069 0)
(5.03459 0.185931 0)
(4.91703 0.180995 0)
(4.79167 0.165451 -2.57266e-20)
(4.65259 0.138343 0)
(4.50837 0.11024 -1.28321e-20)
(4.37499 0.0815662 3.83754e-20)
(4.27589 0.0635591 0)
(4.19157 0.0520662 0)
(4.14155 0.0640918 -2.59465e-20)
(4.07185 0.0699511 -2.61965e-20)
(4.04249 0.109483 2.61676e-20)
(3.92804 0.112778 2.63307e-20)
(0.0662839 0.0577448 -4.66167e-21)
(0.428433 -0.497375 -4.72575e-21)
(0.880888 -1.16431 -3.36505e-21)
(1.29961 -1.67082 -1.95031e-21)
(1.63492 -1.98603 0)
(1.86253 -2.07562 4.27836e-21)
(1.9935 -1.98025 -2.6055e-21)
(2.05911 -1.77598 0)
(2.07778 -1.51012 -2.1667e-21)
(2.07524 -1.21277 0)
(2.05272 -0.916559 5.51789e-21)
(2.01537 -0.631589 0)
(1.94996 -0.372287 2.51635e-21)
(1.86102 -0.168703 5.15392e-21)
(1.73273 -0.0315289 -5.24442e-21)
(1.60648 0.0872439 0)
(1.49228 0.222323 -5.36127e-21)
(1.37008 0.332804 0)
(1.23672 0.441497 0)
(1.08808 0.562539 -5.40732e-21)
(0.943907 0.672516 0)
(0.796432 0.77879 -5.60084e-22)
(0.646712 0.878459 0)
(0.488285 0.98101 0)
(0.312636 1.10039 6.21304e-22)
(0.124807 1.2262 -5.28477e-21)
(-0.0759593 1.35666 -5.91653e-21)
(-0.287873 1.48152 -5.24201e-21)
(-0.510312 1.58678 0)
(-0.742682 1.66095 -1.10826e-20)
(-0.990228 1.68734 0)
(-1.24536 1.65645 -5.82045e-21)
(-1.50456 1.57716 0)
(-1.76015 1.47045 0)
(-2.01829 1.3684 5.94439e-21)
(-2.27938 1.2798 0)
(-2.55857 1.23869 -6.21526e-21)
(-2.85253 1.26225 5.24986e-22)
(-3.13731 1.31529 1.27837e-20)
(-3.39484 1.3623 -1.3861e-20)
(-3.62152 1.38421 0)
(-3.81864 1.3545 0)
(-3.98383 1.29905 -8.30283e-21)
(-4.1321 1.21371 0)
(-4.26409 1.12538 -7.20319e-21)
(-4.38705 1.0432 7.44188e-21)
(-4.48974 0.946663 7.69468e-21)
(-4.573 0.836009 0)
(-4.63626 0.71733 -8.19868e-21)
(-4.68744 0.590465 -8.40569e-21)
(-4.72598 0.462254 1.88319e-20)
(-4.76489 0.344971 -8.68623e-21)
(-4.80474 0.24885 -8.74664e-21)
(-4.84897 0.166974 0)
(-4.8773 0.0878012 0)
(-4.88977 0.0136684 8.65803e-21)
(-4.88673 -0.0565097 0)
(-4.88387 -0.121037 0)
(-4.87721 -0.182821 -1.64605e-20)
(-4.89489 -0.200834 -1.60831e-20)
(-4.93916 -0.181755 0)
(-4.97424 -0.172885 0)
(-4.97637 -0.179642 0)
(-4.96807 -0.196268 0)
(-4.94438 -0.227871 -1.46053e-20)
(-4.89851 -0.261325 1.58627e-20)
(-4.83395 -0.291528 1.42214e-20)
(-4.75691 -0.307306 2.9539e-20)
(-4.67453 -0.305728 0)
(-4.58806 -0.293433 1.43815e-21)
(-4.5022 -0.28118 0)
(-4.41901 -0.267702 -1.32045e-20)
(-4.34135 -0.239548 1.3185e-21)
(-4.27161 -0.188433 -1.29585e-20)
(-4.20991 -0.104715 1.2906e-20)
(-4.15773 0.00776197 1.05642e-21)
(-4.10904 0.139682 0)
(-4.07233 0.296962 1.35433e-20)
(-4.06045 0.458526 1.23762e-20)
(-4.09829 0.596969 2.47546e-20)
(-4.1471 0.718352 0)
(-4.26122 0.725666 -1.16788e-20)
(-4.40808 0.621334 0)
(-4.58292 0.490899 2.09812e-20)
(-4.74685 0.3885 -9.78428e-21)
(-4.89997 0.355848 9.45584e-21)
(-4.99646 0.362718 -9.21981e-21)
(-5.00178 0.328107 -1.9833e-20)