/*--------------------------------*- C++ -*----------------------------------*\
  =========                 |
  \\      /  F ield         | OpenFOAM: The Open Source CFD Toolbox
   \\    /   O peration     | Website:  https://openfoam.org
    \\  /    A nd           | Version:  9
     \\/     M anipulation  |
\*---------------------------------------------------------------------------*/
FoamFile
{
    format      ascii;
    class       volSymmTensorField;
    location    "0.096";
    object      UPrime2Mean;
}
// * * * * * * * * * * * * * * * * * * * * * * * * * * * * * * * * * * * * * //

dimensions      [0 2 -2 0 0 0 0];

internalField   nonuniform List<symmTensor> 
12225
(
(-48.2402 -0.21209 0 0.00119509 0 0)
(-45.3938 -0.274197 0 -0.000651174 0 0)
(-42.5924 -0.257196 0 -0.000856854 0 0)
(-39.8481 -0.243506 0 -0.000928683 0 0)
(-37.2319 -0.233348 0 -0.000986942 0 0)
(-34.782 -0.222672 0 -0.00100809 0 0)
(-32.4902 -0.211664 0 -0.00100022 0 0)
(-30.3533 -0.201741 0 -0.000988372 0 0)
(-28.334 -0.192752 0 -0.000963005 0 0)
(-26.4466 -0.185784 0 -0.000957586 0 0)
(-24.6232 -0.179523 0 -0.000903485 0 0)
(-22.9302 -0.176214 0 -0.000914013 0 0)
(-21.2105 -0.174702 0 -0.000714446 0 0)
(-19.6528 -0.177601 0 -0.000798867 0 0)
(-17.8725 -0.190785 0 0.000146885 0 0)
(-16.342 -0.204389 0 -0.000391695 0 0)
(-14.1618 -0.276155 0 0.00564362 0 0)
(-12.3199 -0.317309 0 0.00242159 0 0)
(-50.2354 -0.2778 0 0.00127057 0 0)
(-50.8325 -0.390216 0 -0.00178722 0 0)
(-51.2163 -0.388391 0 -0.00211215 0 0)
(-51.3541 -0.395494 0 -0.00236058 0 0)
(-51.3187 -0.412021 0 -0.00270855 0 0)
(-51.1755 -0.427315 0 -0.00301339 0 0)
(-50.9418 -0.43938 0 -0.00325649 0 0)
(-50.6365 -0.450751 0 -0.0034525 0 0)
(-50.2452 -0.461527 0 -0.00363392 0 0)
(-49.7954 -0.474622 0 -0.00375465 0 0)
(-49.2532 -0.488567 0 -0.00390175 0 0)
(-48.6722 -0.507723 0 -0.00382401 0 0)
(-47.9704 -0.530801 0 -0.003835 0 0)
(-47.2497 -0.563975 0 -0.00302047 0 0)
(-46.336 -0.613078 0 -0.00235597 0 0)
(-45.4163 -0.682304 0 0.00139956 0 0)
(-44.1725 -0.81135 0 0.00690984 0 0)
(-42.8906 -0.992727 0 0.0279338 0 0)
(-49.8987 -0.137029 0 0.00299671 0 0)
(-50.2116 -0.247894 0 0.000467075 0 0)
(-50.4989 -0.262638 0 -0.000195131 0 0)
(-50.6815 -0.277177 0 -0.000522938 0 0)
(-50.7903 -0.302224 0 -0.000893607 0 0)
(-50.8728 -0.327511 0 -0.00124749 0 0)
(-50.9443 -0.349616 0 -0.00153616 0 0)
(-51.0039 -0.371684 0 -0.0017852 0 0)
(-51.0407 -0.394269 0 -0.00196403 0 0)
(-51.0525 -0.42064 0 -0.00211611 0 0)
(-51.0331 -0.448675 0 -0.00206543 0 0)
(-50.9846 -0.483682 0 -0.00192701 0 0)
(-50.9013 -0.523351 0 -0.00111754 0 0)
(-50.7815 -0.577889 0 1.86885e-05 0 0)
(-50.6247 -0.648957 0 0.00342674 0 0)
(-50.4222 -0.751786 0 0.00903261 0 0)
(-50.2097 -0.904488 0 0.023573 0 0)
(-49.9781 -1.11512 0 0.0530194 0 0)
(-49.9609 -0.173192 0 0.00294373 0 0)
(-50.1839 -0.3058 0 -3.70231e-05 0 0)
(-50.4066 -0.334796 0 -0.00100827 0 0)
(-50.5532 -0.345826 0 -0.00135093 0 0)
(-50.6316 -0.365531 0 -0.00169899 0 0)
(-50.6798 -0.388656 0 -0.00204028 0 0)
(-50.7168 -0.409873 0 -0.00231029 0 0)
(-50.7438 -0.430016 0 -0.00248466 0 0)
(-50.7563 -0.45095 0 -0.00257862 0 0)
(-50.7522 -0.475097 0 -0.00254707 0 0)
(-50.7313 -0.503534 0 -0.0023672 0 0)
(-50.6929 -0.538384 0 -0.0018376 0 0)
(-50.6365 -0.582268 0 -0.000759982 0 0)
(-50.5615 -0.639094 0 0.00145172 0 0)
(-50.4698 -0.715993 0 0.00578838 0 0)
(-50.3736 -0.820453 0 0.0143611 0 0)
(-50.2872 -0.962551 0 0.0313408 0 0)
(-50.2568 -1.14026 0 0.063556 0 0)
(-50.0808 -0.0897417 0 0.00367167 0 0)
(-50.2572 -0.210371 0 0.00137016 0 0)
(-50.4486 -0.252452 0 0.000279599 0 0)
(-50.5811 -0.269137 0 -0.00010737 0 0)
(-50.6484 -0.290773 0 -0.000378512 0 0)
(-50.6844 -0.3183 0 -0.000645742 0 0)
(-50.7133 -0.346007 0 -0.000867771 0 0)
(-50.7377 -0.37307 0 -0.00100446 0 0)
(-50.7504 -0.400665 0 -0.00100133 0 0)
(-50.7462 -0.431197 0 -0.000809695 0 0)
(-50.7227 -0.465637 0 -0.00029612 0 0)
(-50.6819 -0.506449 0 0.000710788 0 0)
(-50.6238 -0.556098 0 0.00259537 0 0)
(-50.554 -0.618825 0 0.00600029 0 0)
(-50.4731 -0.699709 0 0.0120989 0 0)
(-50.3981 -0.804423 0 0.0232431 0 0)
(-50.3337 -0.934598 0 0.0426459 0 0)
(-50.315 -1.08673 0 0.0766403 0 0)
(-49.8146 -0.120523 0 0.00421685 0 0)
(-49.9577 -0.236359 0 0.00154977 0 0)
(-50.1216 -0.291864 0 0.000134812 0 0)
(-50.246 -0.314643 0 -0.000429094 0 0)
(-50.3153 -0.335224 0 -0.000771265 0 0)
(-50.3525 -0.360538 0 -0.00104352 0 0)
(-50.38 -0.38679 0 -0.0012095 0 0)
(-50.404 -0.41272 0 -0.00122035 0 0)
(-50.4198 -0.439964 0 -0.00104795 0 0)
(-50.4229 -0.47089 0 -0.000625621 0 0)
(-50.4103 -0.506879 0 0.000195965 0 0)
(-50.3836 -0.549689 0 0.00168208 0 0)
(-50.3435 -0.601195 0 0.00429094 0 0)
(-50.2953 -0.664993 0 0.00880203 0 0)
(-50.2421 -0.744187 0 0.0164528 0 0)
(-50.1961 -0.842619 0 0.0295134 0 0)
(-50.163 -0.958616 0 0.0508179 0 0)
(-50.1629 -1.09005 0 0.0853187 0 0)
(-50.2444 -0.0608476 0 0.00505402 0 0)
(-50.3633 -0.169288 0 0.00271629 0 0)
(-50.4985 -0.231846 0 0.00126259 0 0)
(-50.6091 -0.261895 0 0.000654692 0 0)
(-50.6757 -0.285331 0 0.000395871 0 0)
(-50.7091 -0.312692 0 0.000262304 0 0)
(-50.7271 -0.34281 0 0.0002287 0 0)
(-50.7377 -0.373751 0 0.000363128 0 0)
(-50.7391 -0.405975 0 0.000750256 0 0)
(-50.7282 -0.441387 0 0.0015102 0 0)
(-50.7045 -0.481578 0 0.00282809 0 0)
(-50.6705 -0.528428 0 0.00503069 0 0)
(-50.6289 -0.583633 0 0.00861981 0 0)
(-50.5837 -0.650239 0 0.014468 0 0)
(-50.5383 -0.729966 0 0.0237921 0 0)
(-50.5 -0.825466 0 0.0387122 0 0)
(-50.4751 -0.933864 0 0.0615918 0 0)
(-50.4735 -1.05398 0 0.0961306 0 0)
(-50.1719 -0.0838487 0 0.00461081 0 0)
(-50.2648 -0.190369 0 0.00246101 0 0)
(-50.3833 -0.25092 0 0.000985674 0 0)
(-50.489 -0.286331 0 0.000236096 0 0)
(-50.5549 -0.313858 0 -9.99017e-05 0 0)
(-50.5866 -0.342396 0 -0.000211852 0 0)
(-50.6021 -0.37313 0 -0.000151599 0 0)
(-50.6124 -0.405429 0 0.000117908 0 0)
(-50.6189 -0.439469 0 0.000682092 0 0)
(-50.619 -0.476648 0 0.00169451 0 0)
(-50.6097 -0.518302 0 0.0033971 0 0)
(-50.5918 -0.566149 0 0.00617697 0 0)
(-50.5654 -0.621694 0 0.0105794 0 0)
(-50.5354 -0.687245 0 0.017506 0 0)
(-50.5031 -0.763813 0 0.0281194 0 0)
(-50.4781 -0.852874 0 0.0442937 0 0)
(-50.4608 -0.951708 0 0.0679185 0 0)
(-50.4672 -1.05883 0 0.101793 0 0)
(-50.134 -0.0344602 0 0.00535862 0 0)
(-50.1815 -0.134895 0 0.00357126 0 0)
(-50.2638 -0.201818 0 0.00205202 0 0)
(-50.3531 -0.244035 0 0.00128989 0 0)
(-50.4201 -0.275053 0 0.000992144 0 0)
(-50.4608 -0.304942 0 0.000978878 0 0)
(-50.4848 -0.336729 0 0.00119897 0 0)
(-50.5021 -0.370433 0 0.00170819 0 0)
(-50.5166 -0.406322 0 0.00261366 0 0)
(-50.5284 -0.445631 0 0.0040846 0 0)
(-50.5352 -0.489643 0 0.00637582 0 0)
(-50.5367 -0.539889 0 0.00990104 0 0)
(-50.5324 -0.597394 0 0.015225 0 0)
(-50.5256 -0.66386 0 0.0232308 0 0)
(-50.5178 -0.739334 0 0.034992 0 0)
(-50.5164 -0.824717 0 0.0521174 0 0)
(-50.522 -0.91678 0 0.0760846 0 0)
(-50.5457 -1.01461 0 0.108999 0 0)
(-49.9992 -0.0731243 0 0.00561522 0 0)
(-50.0421 -0.143453 0 0.0036143 0 0)
(-50.1063 -0.213785 0 0.00194307 0 0)
(-50.1795 -0.261614 0 0.00117887 0 0)
(-50.2428 -0.294948 0 0.000929742 0 0)
(-50.2898 -0.325509 0 0.000969503 0 0)
(-50.3235 -0.35799 0 0.00127077 0 0)
(-50.3498 -0.392525 0 0.00191953 0 0)
(-50.3706 -0.428961 0 0.0030512 0 0)
(-50.386 -0.468332 0 0.00486476 0 0)
(-50.3945 -0.512076 0 0.00762937 0 0)
(-50.3979 -0.561888 0 0.0117616 0 0)
(-50.3964 -0.618579 0 0.0178051 0 0)
(-50.3961 -0.683166 0 0.0265859 0 0)
(-50.3968 -0.755107 0 0.0390266 0 0)
(-50.408 -0.834565 0 0.0565046 0 0)
(-50.4249 -0.918514 0 0.0800942 0 0)
(-50.4611 -1.00625 0 0.111449 0 0)
(-49.9629 -0.0327601 0 0.0063788 0 0)
(-50.048 -0.116101 0 0.00487204 0 0)
(-50.1328 -0.177583 0 0.00347016 0 0)
(-50.2158 -0.222922 0 0.00270053 0 0)
(-50.2872 -0.258731 0 0.00242693 0 0)
(-50.3402 -0.291021 0 0.00257002 0 0)
(-50.377 -0.32371 0 0.00308415 0 0)
(-50.4031 -0.3592 0 0.00401137 0 0)
(-50.4218 -0.398146 0 0.00547504 0 0)
(-50.4345 -0.440885 0 0.00769449 0 0)
(-50.4417 -0.487638 0 0.01097 0 0)
(-50.4457 -0.539291 0 0.0157331 0 0)
(-50.4486 -0.596146 0 0.022499 0 0)
(-50.4544 -0.659127 0 0.032004 0 0)
(-50.4645 -0.727612 0 0.0449984 0 0)
(-50.4829 -0.802063 0 0.0626066 0 0)
(-50.5084 -0.879694 0 0.0855468 0 0)
(-50.5455 -0.960648 0 0.115079 0 0)
(-50.0238 -0.0206689 0 0.00647842 0 0)
(-50.0353 -0.114204 0 0.00443105 0 0)
(-50.0741 -0.173878 0 0.00285984 0 0)
(-50.1388 -0.221862 0 0.0021548 0 0)
(-50.2089 -0.262682 0 0.00199489 0 0)
(-50.268 -0.299286 0 0.00223871 0 0)
(-50.3105 -0.335122 0 0.00287164 0 0)
(-50.3396 -0.372507 0 0.00398411 0 0)
(-50.3611 -0.412242 0 0.00572857 0 0)
(-50.3802 -0.454675 0 0.00833282 0 0)
(-50.3998 -0.500208 0 0.0120788 0 0)
(-50.4208 -0.5498 0 0.0173664 0 0)
(-50.4433 -0.603896 0 0.024654 0 0)
(-50.468 -0.663328 0 0.0345999 0 0)
(-50.4954 -0.727471 0 0.0478125 0 0)
(-50.528 -0.796634 0 0.0652058 0 0)
(-50.565 -0.868149 0 0.0872384 0 0)
(-50.6104 -0.94245 0 0.114917 0 0)
(-49.8963 -0.0455392 0 0.00734312 0 0)
(-49.8928 -0.0998632 0 0.00569061 0 0)
(-49.9208 -0.154125 0 0.00391168 0 0)
(-49.9755 -0.198914 0 0.00334325 0 0)
(-50.0413 -0.236202 0 0.00342517 0 0)
(-50.1052 -0.271655 0 0.00389187 0 0)
(-50.16 -0.308777 0 0.00471224 0 0)
(-50.2055 -0.348076 0 0.0060199 0 0)
(-50.244 -0.389081 0 0.00801591 0 0)
(-50.2791 -0.431913 0 0.0109442 0 0)
(-50.3128 -0.477159 0 0.0150712 0 0)
(-50.3475 -0.526023 0 0.0207658 0 0)
(-50.3824 -0.578948 0 0.0284295 0 0)
(-50.4205 -0.636609 0 0.0386393 0 0)
(-50.4594 -0.698018 0 0.0518523 0 0)
(-50.5053 -0.763439 0 0.0688402 0 0)
(-50.5516 -0.830118 0 0.0897934 0 0)
(-50.6106 -0.899044 0 0.115554 0 0)
(-49.7948 -0.0367398 0 0.00799465 0 0)
(-49.8425 -0.0954363 0 0.00673429 0 0)
(-49.8809 -0.153303 0 0.00484373 0 0)
(-49.9207 -0.199978 0 0.00394654 0 0)
(-49.9649 -0.237602 0 0.00390042 0 0)
(-50.0105 -0.272336 0 0.00444517 0 0)
(-50.0548 -0.308496 0 0.00543999 0 0)
(-50.0974 -0.347585 0 0.00694214 0 0)
(-50.1384 -0.388857 0 0.00914593 0 0)
(-50.1782 -0.431709 0 0.0123066 0 0)
(-50.2169 -0.476108 0 0.0166778 0 0)
(-50.2557 -0.523181 0 0.0225853 0 0)
(-50.2943 -0.573354 0 0.0303566 0 0)
(-50.3355 -0.627623 0 0.0404598 0 0)
(-50.3785 -0.684779 0 0.0532013 0 0)
(-50.428 -0.745388 0 0.0691711 0 0)
(-50.4798 -0.806282 0 0.0883922 0 0)
(-50.5416 -0.868964 0 0.111551 0 0)
(-49.7887 -0.00847321 0 0.00900135 0 0)
(-49.8241 -0.076378 0 0.00807718 0 0)
(-49.8604 -0.126707 0 0.00639977 0 0)
(-49.9066 -0.168712 0 0.0057238 0 0)
(-49.9609 -0.206688 0 0.0059119 0 0)
(-50.016 -0.242985 0 0.00669658 0 0)
(-50.0676 -0.279199 0 0.00794964 0 0)
(-50.1154 -0.316734 0 0.00973156 0 0)
(-50.1608 -0.356247 0 0.0122151 0 0)
(-50.2055 -0.398006 0 0.0156448 0 0)
(-50.2508 -0.441874 0 0.0202618 0 0)
(-50.2975 -0.488197 0 0.0263612 0 0)
(-50.3457 -0.53668 0 0.0341854 0 0)
(-50.3962 -0.587779 0 0.0441058 0 0)
(-50.4497 -0.64043 0 0.0562474 0 0)
(-50.507 -0.695309 0 0.0710884 0 0)
(-50.5684 -0.749974 0 0.0884193 0 0)
(-50.6334 -0.806196 0 0.108823 0 0)
(-50.0846 -0.0136003 0 0.0107893 0 0)
(-50.0671 -0.0742079 0 0.00928397 0 0)
(-50.0627 -0.118779 0 0.00659436 0 0)
(-50.0887 -0.155952 0 0.00566054 0 0)
(-50.1384 -0.190763 0 0.00592306 0 0)
(-50.1953 -0.226441 0 0.00682192 0 0)
(-50.249 -0.264275 0 0.00812039 0 0)
(-50.2983 -0.30381 0 0.00988499 0 0)
(-50.3458 -0.343996 0 0.012344 0 0)
(-50.3945 -0.384534 0 0.0157419 0 0)
(-50.4468 -0.425583 0 0.020257 0 0)
(-50.5031 -0.468068 0 0.0260956 0 0)
(-50.563 -0.512204 0 0.0334057 0 0)
(-50.6258 -0.558739 0 0.0424458 0 0)
(-50.6909 -0.606665 0 0.0532412 0 0)
(-50.7582 -0.656593 0 0.0661253 0 0)
(-50.8273 -0.705999 0 0.0808331 0 0)
(-50.8986 -0.756719 0 0.0978131 0 0)
(-49.883 -0.0446518 0 0.0115959 0 0)
(-49.8594 -0.0767519 0 0.0102491 0 0)
(-49.8599 -0.109121 0 0.00702659 0 0)
(-49.8941 -0.139451 0 0.00601308 0 0)
(-49.9457 -0.169042 0 0.0064108 0 0)
(-49.9993 -0.199682 0 0.00753035 0 0)
(-50.0511 -0.232288 0 0.00910202 0 0)
(-50.1044 -0.266602 0 0.0111514 0 0)
(-50.1614 -0.30165 0 0.013851 0 0)
(-50.2231 -0.337131 0 0.0173929 0 0)
(-50.2883 -0.373131 0 0.0219074 0 0)
(-50.3571 -0.41052 0 0.0275453 0 0)
(-50.4276 -0.449511 0 0.0343722 0 0)
(-50.5014 -0.490856 0 0.0425444 0 0)
(-50.5761 -0.533532 0 0.0519779 0 0)
(-50.6556 -0.578173 0 0.0629206 0 0)
(-50.7339 -0.622208 0 0.0750508 0 0)
(-50.8194 -0.667611 0 0.0887762 0 0)
(-49.7609 -0.0515273 0 0.0113594 0 0)
(-49.769 -0.0563913 0 0.0108233 0 0)
(-49.7874 -0.0753233 0 0.00864573 0 0)
(-49.8241 -0.103098 0 0.00779682 0 0)
(-49.8724 -0.133885 0 0.00774982 0 0)
(-49.9271 -0.164791 0 0.00835163 0 0)
(-49.9861 -0.195298 0 0.009523 0 0)
(-50.0484 -0.225741 0 0.011233 0 0)
(-50.1128 -0.256333 0 0.0135311 0 0)
(-50.179 -0.287494 0 0.016524 0 0)
(-50.2468 -0.319309 0 0.0202937 0 0)
(-50.3164 -0.352295 0 0.0249236 0 0)
(-50.3875 -0.386159 0 0.0304175 0 0)
(-50.4607 -0.421439 0 0.0368602 0 0)
(-50.5354 -0.457094 0 0.0441365 0 0)
(-50.6126 -0.494085 0 0.0524184 0 0)
(-50.691 -0.530249 0 0.0614169 0 0)
(-50.7728 -0.56787 0 0.0713826 0 0)
(-49.8134 -0.0321022 0 0.0107007 0 0)
(-49.8531 -0.0461491 0 0.0102561 0 0)
(-49.8966 -0.0632903 0 0.00771248 0 0)
(-49.9453 -0.0801915 0 0.00677789 0 0)
(-49.9997 -0.0976697 0 0.00699849 0 0)
(-50.0608 -0.117164 0 0.00788849 0 0)
(-50.1283 -0.139166 0 0.00922065 0 0)
(-50.2005 -0.16314 0 0.0109344 0 0)
(-50.276 -0.188078 0 0.0130652 0 0)
(-50.3541 -0.213571 0 0.0156832 0 0)
(-50.4345 -0.239485 0 0.0188277 0 0)
(-50.5165 -0.266384 0 0.0225385 0 0)
(-50.6001 -0.29422 0 0.0267987 0 0)
(-50.6849 -0.323529 0 0.031648 0 0)
(-50.7718 -0.353314 0 0.0369827 0 0)
(-50.8602 -0.384135 0 0.0429178 0 0)
(-50.9518 -0.413853 0 0.0492506 0 0)
(-51.0446 -0.444188 0 0.0561655 0 0)
(-50.0172 -0.00291892 0 0.013271 0 0)
(-50.0498 -0.0198549 0 0.0117884 0 0)
(-50.0926 -0.0263145 0 0.00876273 0 0)
(-50.1522 -0.0339714 0 0.00751456 0 0)
(-50.2224 -0.0466668 0 0.00742226 0 0)
(-50.2962 -0.0635182 0 0.0079813 0 0)
(-50.3717 -0.0823539 0 0.00889542 0 0)
(-50.4493 -0.101643 0 0.0100598 0 0)
(-50.5294 -0.12107 0 0.0114939 0 0)
(-50.6116 -0.141261 0 0.0132652 0 0)
(-50.6953 -0.162607 0 0.0154111 0 0)
(-50.7797 -0.185235 0 0.0179453 0 0)
(-50.865 -0.208324 0 0.0208363 0 0)
(-50.9519 -0.231601 0 0.0240956 0 0)
(-51.0416 -0.253873 0 0.0276375 0 0)
(-51.1345 -0.27584 0 0.0315437 0 0)
(-51.231 -0.296054 0 0.0356718 0 0)
(-51.3302 -0.316853 0 0.0400958 0 0)
(-50.0329 -0.00326473 0 0.0113535 0 0)
(-50.0365 0.00155286 0 0.0111937 0 0)
(-50.059 0.00608449 0 0.00889934 0 0)
(-50.1089 0.00483902 0 0.00775235 0 0)
(-50.176 -0.00302282 0 0.00756024 0 0)
(-50.2506 -0.014625 0 0.00794738 0 0)
(-50.3292 -0.0272354 0 0.00863459 0 0)
(-50.4119 -0.0403334 0 0.00950149 0 0)
(-50.4994 -0.054679 0 0.0105582 0 0)
(-50.5913 -0.0711242 0 0.0118628 0 0)
(-50.6863 -0.0894258 0 0.0134434 0 0)
(-50.7832 -0.108711 0 0.0153084 0 0)
(-50.8814 -0.127566 0 0.0174352 0 0)
(-50.9814 -0.145453 0 0.0198163 0 0)
(-51.0829 -0.161634 0 0.0223533 0 0)
(-51.1863 -0.177067 0 0.0251131 0 0)
(-51.29 -0.191104 0 0.027997 0 0)
(-51.3954 -0.205851 0 0.0310432 0 0)
(-49.9262 -0.0229023 0 0.0117748 0 0)
(-49.9329 0.0110473 0 0.0105146 0 0)
(-49.9703 0.022492 0 0.00763558 0 0)
(-50.0408 0.0221443 0 0.00632571 0 0)
(-50.1259 0.0172018 0 0.00594036 0 0)
(-50.2111 0.0112427 0 0.00604134 0 0)
(-50.2932 0.00540551 0 0.0064109 0 0)
(-50.3748 -0.00103597 0 0.00695463 0 0)
(-50.459 -0.00940421 0 0.00767097 0 0)
(-50.5483 -0.0204243 0 0.00857797 0 0)
(-50.6427 -0.033572 0 0.00967264 0 0)
(-50.741 -0.0478793 0 0.0109561 0 0)
(-50.8414 -0.0619625 0 0.0124204 0 0)
(-50.9429 -0.0753741 0 0.0140605 0 0)
(-51.0445 -0.0874708 0 0.0158108 0 0)
(-51.1458 -0.0992019 0 0.0177195 0 0)
(-51.2457 -0.109999 0 0.0197182 0 0)
(-51.345 -0.121759 0 0.0218212 0 0)
(-49.7857 -0.0162128 0 0.00960693 0 0)
(-49.8499 0.0400195 0 0.00901961 0 0)
(-49.9264 0.0669216 0 0.00693197 0 0)
(-50.0111 0.0728973 0 0.00587605 0 0)
(-50.1012 0.069223 0 0.00555777 0 0)
(-50.1939 0.0632382 0 0.00562448 0 0)
(-50.2868 0.0582653 0 0.0058903 0 0)
(-50.3796 0.0542115 0 0.00626064 0 0)
(-50.4737 0.0493588 0 0.0067386 0 0)
(-50.57 0.0423954 0 0.00736876 0 0)
(-50.6693 0.0333914 0 0.0081584 0 0)
(-50.7707 0.0229988 0 0.00908928 0 0)
(-50.8739 0.0121554 0 0.010134 0 0)
(-50.9772 0.00127354 0 0.0112904 0 0)
(-51.0807 -0.00905253 0 0.0125169 0 0)
(-51.1826 -0.0192186 0 0.0138573 0 0)
(-51.2845 -0.0287262 0 0.0152614 0 0)
(-51.3837 -0.0386142 0 0.0167265 0 0)
(-50.1874 0.0176327 0 0.00908685 0 0)
(-50.2754 0.0440267 0 0.0064736 0 0)
(-50.3714 0.0734227 0 0.00413891 0 0)
(-50.4673 0.0873913 0 0.00331937 0 0)
(-50.5612 0.0886455 0 0.0031413 0 0)
(-50.6526 0.0859596 0 0.00317504 0 0)
(-50.7431 0.0839503 0 0.00329872 0 0)
(-50.8363 0.0822922 0 0.00350435 0 0)
(-50.9337 0.0793384 0 0.0038152 0 0)
(-51.0351 0.0743028 0 0.00424322 0 0)
(-51.1394 0.0676363 0 0.00477619 0 0)
(-51.2456 0.0600172 0 0.00540034 0 0)
(-51.353 0.0521518 0 0.00610515 0 0)
(-51.4604 0.0442079 0 0.00688717 0 0)
(-51.5673 0.0366034 0 0.00772051 0 0)
(-51.6731 0.0289642 0 0.00863395 0 0)
(-51.7774 0.0218956 0 0.00958581 0 0)
(-51.8804 0.0145269 0 0.0105772 0 0)
(-49.8009 0.0356797 0 0.00732762 0 0)
(-49.8496 0.0967287 0 0.00552791 0 0)
(-49.9513 0.128147 0 0.00383596 0 0)
(-50.0722 0.138268 0 0.0030798 0 0)
(-50.1831 0.138566 0 0.00277882 0 0)
(-50.2817 0.137805 0 0.00272137 0 0)
(-50.3766 0.138777 0 0.00280082 0 0)
(-50.474 0.140398 0 0.00293875 0 0)
(-50.574 0.140898 0 0.0031208 0 0)
(-50.6746 0.139405 0 0.00337366 0 0)
(-50.7748 0.136018 0 0.00371028 0 0)
(-50.8751 0.131118 0 0.00412231 0 0)
(-50.9769 0.125278 0 0.00459272 0 0)
(-51.0808 0.118786 0 0.00511683 0 0)
(-51.1872 0.112171 0 0.00567105 0 0)
(-51.2954 0.105494 0 0.00628222 0 0)
(-51.4049 0.0993461 0 0.00692658 0 0)
(-51.5147 0.0933316 0 0.00758702 0 0)
(-50.2306 0.0154889 0 0.00679585 0 0)
(-50.3557 0.109901 0 0.00484617 0 0)
(-50.5062 0.134661 0 0.00324437 0 0)
(-50.6415 0.136101 0 0.00257798 0 0)
(-50.7538 0.137012 0 0.00231978 0 0)
(-50.8539 0.141268 0 0.00222401 0 0)
(-50.9522 0.145793 0 0.00218509 0 0)
(-51.0531 0.148195 0 0.00218642 0 0)
(-51.1554 0.148023 0 0.00224799 0 0)
(-51.2571 0.146008 0 0.00237498 0 0)
(-51.3576 0.143208 0 0.00255723 0 0)
(-51.4573 0.1404 0 0.00278136 0 0)
(-51.5577 0.137988 0 0.00303713 0 0)
(-51.6593 0.135856 0 0.0033211 0 0)
(-51.763 0.133973 0 0.00362044 0 0)
(-51.8679 0.131907 0 0.00396183 0 0)
(-51.9747 0.129845 0 0.00433237 0 0)
(-52.0816 0.127218 0 0.00471562 0 0)
(-49.9728 0.0891475 0 0.00559684 0 0)
(-50.1629 0.166525 0 0.00293651 0 0)
(-50.3409 0.196628 0 0.00160375 0 0)
(-50.4827 0.199348 0 0.00115523 0 0)
(-50.5972 0.199854 0 0.000958911 0 0)
(-50.7006 0.203917 0 0.000841158 0 0)
(-50.8034 0.208136 0 0.000770147 0 0)
(-50.909 0.210352 0 0.000745198 0 0)
(-51.0174 0.210747 0 0.000767382 0 0)
(-51.1277 0.210003 0 0.000832174 0 0)
(-51.2392 0.208511 0 0.000932834 0 0)
(-51.3513 0.206517 0 0.00106444 0 0)
(-51.4638 0.204313 0 0.00122377 0 0)
(-51.5755 0.202115 0 0.00140883 0 0)
(-51.6861 0.200144 0 0.00161069 0 0)
(-51.795 0.198324 0 0.00184217 0 0)
(-51.9027 0.196822 0 0.00208976 0 0)
(-52.0086 0.195304 0 0.00234744 0 0)
(-49.9733 0.0993213 0 0.00492525 0 0)
(-50.168 0.150107 0 0.00241613 0 0)
(-50.4004 0.170758 0 0.00126503 0 0)
(-50.5867 0.177292 0 0.000876394 0 0)
(-50.7253 0.183967 0 0.000703475 0 0)
(-50.8477 0.191146 0 0.000597037 0 0)
(-50.9721 0.196686 0 0.000519103 0 0)
(-51.1006 0.200476 0 0.000465589 0 0)
(-51.2303 0.203293 0 0.00043356 0 0)
(-51.3581 0.205561 0 0.000422791 0 0)
(-51.4834 0.207225 0 0.000433808 0 0)
(-51.6059 0.208371 0 0.000464963 0 0)
(-51.7264 0.209005 0 0.000516028 0 0)
(-51.8444 0.209443 0 0.000584179 0 0)
(-51.9611 0.20964 0 0.000666531 0 0)
(-52.0749 0.209891 0 0.000772293 0 0)
(-52.1888 0.210091 0 0.000894098 0 0)
(-52.299 0.210498 0 0.00101926 0 0)
(-50.1503 0.167613 0 0.00338844 0 0)
(-50.539 0.27021 0 0.000558439 0 0)
(-50.8766 0.26203 0 -5.91353e-05 0 0)
(-51.1022 0.257704 0 -0.000242371 0 0)
(-51.2533 0.263988 0 -0.000435134 0 0)
(-51.3711 0.269961 0 -0.000583645 0 0)
(-51.4681 0.27328 0 -0.00067974 0 0)
(-51.5437 0.275318 0 -0.000742596 0 0)
(-51.5962 0.276644 0 -0.000780536 0 0)
(-51.6284 0.27726 0 -0.000796949 0 0)
(-51.6434 0.277029 0 -0.000794038 0 0)
(-51.6467 0.276343 0 -0.000776586 0 0)
(-51.6394 0.275354 0 -0.000744205 0 0)
(-51.6269 0.274616 0 -0.00070186 0 0)
(-51.6057 0.273939 0 -0.000650792 0 0)
(-51.5836 0.273842 0 -0.000592529 0 0)
(-51.5512 0.273908 0 -0.000527526 0 0)
(-51.5237 0.274869 0 -0.000471892 0 0)
(-49.1617 0.152022 0 0.00232251 0 0)
(-47.6132 0.234805 0 0.000162621 0 0)
(-46.0387 0.222284 0 -0.000110847 0 0)
(-44.4466 0.214173 0 -0.000220985 0 0)
(-42.9025 0.212983 0 -0.000346868 0 0)
(-41.4431 0.209862 0 -0.000412924 0 0)
(-40.0758 0.203729 0 -0.000423083 0 0)
(-38.7968 0.196472 0 -0.000412004 0 0)
(-37.5987 0.189407 0 -0.000396539 0 0)
(-36.4758 0.182988 0 -0.000381554 0 0)
(-35.4214 0.177128 0 -0.000367543 0 0)
(-34.4333 0.171757 0 -0.000354311 0 0)
(-33.5038 0.166706 0 -0.000340096 0 0)
(-32.6337 0.162075 0 -0.000327675 0 0)
(-31.8106 0.157682 0 -0.000316024 0 0)
(-31.0418 0.153741 0 -0.000301443 0 0)
(-30.3053 0.149971 0 -0.000288213 0 0)
(-29.6245 0.146816 0 -0.00028559 0 0)
(-1.56031e-05 0.00501838 -2.10364e-23 -0.0140682 3.10991e-23 4.09936e-39)
(-0.0205488 0.0152087 9.1048e-23 0.00187876 -6.79371e-23 4.03414e-39)
(0.0174354 -0.0284019 0 0.0364199 0 0)
(0.173339 -0.0967088 0 0.0591142 0 0)
(0.425769 -0.139627 0 0.0516855 0 0)
(0.703099 -0.14364 -5.07844e-22 0.0358613 4.95295e-23 3.7952e-39)
(0.957992 -0.11573 0 0.019937 0 0)
(1.16619 -0.0766492 0 0.0118138 0 0)
(1.34658 -0.0500563 0 0.0173956 0 0)
(1.52699 -0.0642525 0 0.0382984 0 0)
(1.74203 -0.101616 8.1613e-22 0.053977 8.23759e-23 3.50132e-39)
(1.91697 -0.0977425 0 0.0536783 0 0)
(2.07903 -0.183676 0 0.0696942 0 0)
(2.42911 -0.24453 0 0.0686501 0 0)
(2.82399 -0.215592 0 0.0597081 0 0)
(3.16904 -0.168424 7.79066e-22 0.0577637 1.75468e-22 3.22477e-39)
(3.47179 -0.0679333 0 0.0487232 0 0)
(3.64153 0.0966621 0 0.0426428 0 0)
(3.69914 0.206779 0 0.0533767 0 0)
(3.67809 0.237687 0 0.0668224 0 0)
(3.66287 0.184438 0 0.0821623 0 0)
(3.75566 0.107065 0 0.101259 0 0)
(3.9749 0.0698785 0 0.110512 0 0)
(4.25914 0.00197499 -8.12348e-22 0.111356 1.489e-22 2.83036e-39)
(4.7051 -0.117348 1.02544e-21 0.130571 -1.20874e-22 2.78437e-39)
(5.26869 -0.170863 -1.20567e-21 0.13828 6.19802e-23 2.73901e-39)
(5.91412 -0.185674 -1.35585e-21 0.154933 -1.22155e-23 2.69425e-39)
(6.65072 -0.180875 0 0.169411 0 0)
(7.39104 -0.149665 0 0.146234 0 0)
(8.11134 -0.195339 1.70442e-21 0.158707 8.06522e-23 2.56087e-39)
(8.83103 -0.252439 1.8519e-21 0.15718 7.64184e-23 2.51642e-39)
(9.55871 -0.281512 0 0.148452 0 0)
(10.3033 -0.290326 0 0.143492 0 0)
(11.0047 -0.284464 2.51386e-21 0.152132 2.10958e-23 2.38692e-39)
(11.6012 -0.277953 0 0.172586 0 0)
(12.1297 -0.267603 0 0.206743 0 0)
(12.6381 -0.289755 -3.10099e-21 0.268862 -1.25225e-23 2.26243e-39)
(13.2027 -0.384397 0 0.300595 0 0)
(13.9282 -0.518744 -3.32863e-21 0.30191 -7.78265e-23 2.18178e-39)
(14.5976 -0.572033 -6.74439e-21 0.282438 -1.3752e-22 8.56746e-39)
(14.9397 -0.421071 0 0.256554 0 0)
(14.7811 -0.136016 0 0.249294 0 0)
(14.0053 0.0486982 0 0.251508 0 0)
(13.0834 0.0669325 0 0.254099 0 0)
(12.2454 0.035965 0 0.296835 0 0)
(11.7241 -0.236423 -5.49154e-21 0.287693 1.86486e-22 7.65705e-39)
(11.7162 -0.686424 -5.36378e-21 0.304539 3.94444e-22 7.51154e-39)
(11.8373 -0.835309 -5.24994e-21 0.344138 4.95265e-22 7.36839e-39)
(12.1298 -0.472609 0 0.199196 0 0)
(12.0778 -0.341152 5.57593e-21 0.239939 -4.11166e-22 7.08883e-39)
(12.3387 -0.344393 0 0.189727 0 0)
(12.6909 -0.270939 -6.36229e-21 0.189059 2.81114e-22 6.82123e-39)
(13.1285 -0.213511 -7.03669e-21 0.19308 2.38099e-22 6.69218e-39)
(13.6544 -0.253071 0 0.174452 0 0)
(14.4029 -0.319192 0 0.154822 0 0)
(15.1429 -0.517483 0 0.162366 0 0)
(16.0098 -0.464497 -1.15602e-20 0.158243 6.23297e-22 6.20379e-39)
(16.6642 -0.447558 0 0.214503 0 0)
(17.7798 -0.556429 0 0.174958 0 0)
(19.0978 -0.671024 0 0.152133 0 0)
(20.9882 -0.758519 0 0.128341 0 0)
(22.7149 -1.08011 0 0.139996 0 0)
(24.4564 -0.90388 0 0.108341 0 0)
(25.2863 -0.552802 0 0.206449 0 0)
(26.1797 -0.569123 0 0.203118 0 0)
(27.262 -0.580058 2.10122e-20 0.205181 -3.49491e-22 5.20988e-39)
(28.4516 -0.608126 0 0.200086 0 0)
(29.7297 -0.605118 0 0.197121 0 0)
(31.0192 -0.580932 -2.32738e-20 0.194981 6.5591e-22 4.90635e-39)
(32.2597 -0.539683 -2.43738e-20 0.195541 6.74497e-22 4.80881e-39)
(33.4309 -0.508805 0 0.199769 0 0)
(34.523 -0.488506 2.67025e-20 0.208378 -6.69697e-22 4.61858e-39)
(35.5767 -0.45081 -2.76075e-20 0.222952 5.72502e-22 4.52514e-39)
(36.5444 -0.41034 0 0.230986 0 0)
(37.3556 -0.35371 2.80388e-20 0.215975 -3.18187e-22 4.33909e-39)
(37.8706 -0.218004 0 0.191319 0 0)
(37.7319 -0.0277129 0 0.169911 0 0)
(36.8497 0.24486 -2.55655e-20 0.153404 -1.89894e-22 4.07006e-39)
(34.7812 0.537547 0 0.151778 0 0)
(31.6083 0.797895 2.35319e-20 0.162244 2.52989e-22 3.90272e-39)
(27.3046 0.790414 0 0.162738 0 0)
(23.2606 0.376539 -2.15699e-20 0.125007 5.36499e-23 3.74371e-39)
(21.041 0.250425 -2.11578e-20 0.11681 1.24996e-22 3.66542e-39)
(19.2165 0.0715842 -2.09176e-20 0.119612 2.34299e-22 3.58822e-39)
(18.7533 -0.353334 -4.23317e-20 0.116118 9.64641e-22 1.40498e-38)
(18.5373 -0.500963 4.28118e-20 0.147783 -1.03137e-21 1.37515e-38)
(18.2881 -0.42822 0 0.152144 0 0)
(16.9817 -0.0442185 0 0.198297 0 0)
(14.9237 0.473129 0 0.188681 0 0)
(12.9164 0.322207 3.97183e-20 0.214796 6.14785e-23 1.25847e-38)
(12.2835 -0.0108663 3.87331e-20 0.151486 -2.8928e-22 1.23049e-38)
(12.5601 -0.248538 -3.86553e-20 0.112736 6.07428e-22 1.20327e-38)
(13.4832 -0.389801 0 0.0816975 0 0)
(14.8826 -0.465025 4.07462e-20 0.0611224 -9.54118e-22 1.15089e-38)
(16.6816 -0.511123 4.24164e-20 0.046438 -1.0179e-21 1.1256e-38)
(18.7376 -0.536896 4.41046e-20 0.0362292 -1.02976e-21 1.10082e-38)
(20.9697 -0.541051 0 0.0287588 0 0)
(23.108 -0.498491 0 0.0234915 0 0)
(25.0203 -0.391888 0 0.0201883 0 0)
(26.3288 -0.239009 4.67088e-20 0.0186616 -5.90837e-22 1.00586e-38)
(27.0262 -0.0288635 0 0.021435 0 0)
(26.7666 0.19318 0 0.0323133 0 0)
(25.4515 0.440778 -4.49386e-20 0.0547188 1.2432e-22 9.38701e-39)
(23.305 0.454817 0 0.0686208 0 0)
(21.4308 0.363582 0 0.0707431 0 0)
(20.095 -0.191709 -4.02515e-20 0.0640182 7.20165e-23 8.74511e-39)
(19.2965 0.0342588 0 0.0991409 0 0)
(16.5891 0.196354 0 0.290333 0 0)
(15.2265 -0.0173101 3.41962e-20 0.251857 -3.69849e-22 8.1211e-39)
(14.7117 -0.173898 3.27505e-20 0.228038 -1.8852e-22 7.92207e-39)
(15.0951 -0.332714 0 0.1981 0 0)
(16.2368 -0.446658 -3.30498e-20 0.164504 3.79596e-22 7.54111e-39)
(18.0097 -0.486467 0 0.127732 0 0)
(20.0892 -0.475761 3.77751e-20 0.0940381 -7.17706e-22 7.18278e-39)
(22.4372 -0.472035 0 0.0671711 0 0)
(24.9204 -0.463862 4.33011e-20 0.0452722 -6.69253e-22 6.8392e-39)
(27.3446 -0.419171 4.52723e-20 0.0287552 -5.54255e-22 6.6705e-39)
(29.4528 -0.338302 0 0.01777 0 0)
(31.1193 -0.237465 0 0.0108203 0 0)
(32.2508 -0.126547 0 0.00662279 0 0)
(32.8119 -0.0142717 0 0.00432864 0 0)
(32.7966 0.0921755 0 0.00331884 0 0)
(32.2464 0.18614 0 0.00315786 0 0)
(31.2242 0.263467 0 0.00335066 0 0)
(29.8171 0.323195 2.44921e-20 0.00363298 3.82716e-22 5.3835e-39)
(28.1051 0.367334 -1.96553e-20 0.00389141 -3.85672e-22 5.23542e-39)
(26.1583 0.398332 0 0.0041041 0 0)
(24.0289 0.419406 0 0.00433252 0 0)
(21.7604 0.432843 0 0.00461958 0 0)
(19.3915 0.439169 0 0.0049535 0 0)
(16.9599 0.438089 -4.2592e-22 0.00524395 -5.83996e-22 1.82134e-38)
(14.5055 0.428749 0 0.00541524 0 0)
(12.0732 0.41082 -9.6422e-21 0.00541914 4.74154e-22 1.72133e-38)
(9.71067 0.384278 1.35044e-20 0.00525151 -4.20112e-22 1.67299e-38)
(7.46761 0.35085 0 0.00499042 0 0)
(5.38297 0.323783 0 0.00501414 0 0)
(3.47304 0.28665 0 0.00481039 0 0)
(1.74088 0.250194 -2.26266e-20 0.00464096 2.33396e-22 1.48721e-38)
(0.194818 0.215797 -2.3749e-20 0.00450417 1.93159e-22 1.44312e-38)
(-1.1712 0.184206 0 0.00440048 0 0)
(-2.36898 0.15629 -2.50922e-20 0.00434467 1.22691e-22 1.35796e-38)
(-3.41348 0.13223 -2.54134e-20 0.00434879 8.95893e-23 1.31682e-38)
(-4.32283 0.11188 2.55517e-20 0.00442512 -5.8254e-23 1.27662e-38)
(-5.11526 0.0946968 0 0.00457871 0 0)
(-5.80657 0.0800584 0 0.00481343 0 0)
(-6.40847 0.0671861 2.51664e-20 0.0051297 2.16225e-23 1.16143e-38)
(-6.92953 0.0553326 0 0.0055338 0 0)
(-7.37263 0.0438822 0 0.00603498 0 0)
(-7.73868 0.0325289 0 0.00663624 0 0)
(-8.02575 0.0211319 0 0.00733223 0 0)
(-8.2299 0.00961804 -2.29339e-20 0.00811822 -1.33217e-22 9.86078e-39)
(-8.34556 -0.00197717 -2.23114e-20 0.00900437 -1.56444e-22 9.53338e-39)
(-8.3659 -0.013625 0 0.0100289 0 0)
(-8.28239 -0.0254698 -2.08669e-20 0.0112972 -2.30999e-22 8.90079e-39)
(-8.0834 -0.0370847 0 0.0130297 0 0)
(-7.75673 -0.0464589 0 0.0154265 0 0)
(-7.29457 -0.050957 -1.79531e-20 0.0185329 -2.87473e-22 8.0071e-39)
(-6.6959 -0.0485768 0 0.0220045 0 0)
(-5.97348 -0.0361587 -1.55973e-20 0.0251552 -2.20708e-22 7.44755e-39)
(-5.17908 -0.0149627 0 0.0269322 0 0)
(-4.38861 0.00290428 0 0.0262289 0 0)
(-3.67102 0.00110486 -1.25559e-20 0.0239156 -3.81291e-23 6.65887e-39)
(-3.05761 -0.0237996 0 0.022571 0 0)
(-2.46114 -0.0672297 -1.13781e-20 0.0227996 -1.39514e-22 6.16416e-39)
(-1.79488 -0.0837575 0 0.0232556 0 0)
(-1.09029 -0.0674832 0 0.0231616 0 0)
(-0.39307 -0.0356165 0 0.0251178 0 0)
(0.271634 0.00553239 8.12997e-21 0.0288405 2.64035e-22 5.24534e-39)
(0.857661 0.0515737 0 0.0322838 0 0)
(1.27095 0.0767923 -5.11501e-21 0.0322453 -1.27827e-22 4.82269e-39)
(1.60936 0.0718848 0 0.0187126 0 0)
(1.82921 0.0649344 0 0.012359 0 0)
(1.89466 0.0265844 0 0.011652 0 0)
(1.92142 -0.00264212 0 0.0125834 0 0)
(1.9291 0.00432065 0 0.0118652 0 0)
(1.87641 0.0259538 0 0.0108369 0 0)
(1.77044 0.0358794 0 0.00989811 0 0)
(1.68284 0.030347 3.8673e-21 0.00814167 -8.04651e-24 1.33544e-38)
(1.53484 0.0297089 0 0.00650135 0 0)
(1.47264 0.0575227 0 0.0072308 0 0)
(0.00509309 -0.0049652 2.07789e-23 -0.0578356 -5.91062e-22 3.68876e-38)
(0.0411279 -0.0564511 -2.02046e-22 0.109107 8.68119e-22 3.63578e-38)
(0.161649 -0.216146 0 0.364565 0 0)
(0.35664 -0.355994 4.46528e-22 0.466323 -7.6983e-22 1.56662e-38)
(0.573061 -0.387961 0 0.37475 0 0)
(0.780129 -0.346617 3.1083e-22 0.277015 -2.56022e-22 3.78467e-39)