/*--------------------------------*- C++ -*----------------------------------*\
  =========                 |
  \\      /  F ield         | OpenFOAM: The Open Source CFD Toolbox
   \\    /   O peration     | Website:  https://openfoam.org
    \\  /    A nd           | Version:  9
     \\/     M anipulation  |
\*---------------------------------------------------------------------------*/
FoamFile
{
    format      ascii;
    class       surfaceScalarField;
    location    "0.049";
    object      phi;
}
// * * * * * * * * * * * * * * * * * * * * * * * * * * * * * * * * * * * * * //

dimensions      [0 3 -1 0 0 0 0];

internalField   nonuniform List<scalar> 
24170
(
3.02281e-06
1.35555e-07
2.92703e-06
9.57758e-08
2.85202e-06
7.50118e-08
2.77185e-06
8.01677e-08
2.67857e-06
9.32805e-08
2.57714e-06
1.01431e-07
2.47927e-06
9.78726e-08
2.39213e-06
8.71414e-08
2.3197e-06
7.24254e-08
2.2553e-06
6.44022e-08
2.19489e-06
6.04088e-08
2.13258e-06
6.23064e-08
2.07104e-06
6.15457e-08
2.00619e-06
6.48518e-08
1.9492e-06
5.69888e-08
1.88454e-06
6.466e-08
1.79856e-06
8.59751e-08
1.0164e-07
1.69692e-06
3.44367e-06
8.88203e-08
3.45717e-06
8.22783e-08
3.45305e-06
7.91367e-08
3.44827e-06
8.49419e-08
3.43826e-06
1.03288e-07
3.41718e-06
1.22512e-07
3.39226e-06
1.22799e-07
3.37378e-06
1.05623e-07
3.36388e-06
8.23174e-08
3.35679e-06
7.14986e-08
3.34487e-06
7.23257e-08
3.32551e-06
8.16693e-08
3.30091e-06
8.6142e-08
3.27392e-06
9.18396e-08
3.24681e-06
8.41043e-08
3.21807e-06
9.33955e-08
3.18739e-06
1.16656e-07
1.2921e-07
3.15982e-06
3.63096e-06
1.00717e-07
3.66131e-06
5.1933e-08
3.65085e-06
8.95961e-08
3.62726e-06
1.08528e-07
3.60705e-06
1.235e-07
3.60091e-06
1.28655e-07
3.61085e-06
1.12851e-07
3.6307e-06
8.5774e-08
3.64879e-06
6.42264e-08
3.65858e-06
6.17092e-08
3.65633e-06
7.45783e-08
3.64674e-06
9.12612e-08
3.63269e-06
1.00193e-07
3.62189e-06
1.02642e-07
3.61002e-06
9.59649e-08
3.60859e-06
9.48332e-08
3.61664e-06
1.08603e-07
1.1969e-07
3.62616e-06
3.97156e-06
9.75749e-08
3.97339e-06
5.0099e-08
3.97499e-06
8.79983e-08
3.9596e-06
1.23917e-07
3.94354e-06
1.39561e-07
3.9316e-06
1.40597e-07
3.92283e-06
1.2162e-07
3.91957e-06
8.90334e-08
3.92331e-06
6.04868e-08
3.93381e-06
5.12089e-08
3.94646e-06
6.19291e-08
3.95664e-06
8.10781e-08
3.96035e-06
9.64811e-08
3.95753e-06
1.05468e-07
3.94778e-06
1.05716e-07
3.93691e-06
1.05702e-07
3.93113e-06
1.14383e-07
1.24067e-07
3.92675e-06
4.11501e-06
9.65158e-08
4.13875e-06
2.63547e-08
4.17014e-06
5.66097e-08
4.18117e-06
1.12888e-07
4.17622e-06
1.44511e-07
4.17422e-06
1.42599e-07
4.18107e-06
1.14765e-07
4.18954e-06
8.05608e-08
4.19203e-06
5.80048e-08
4.19e-06
5.32322e-08
4.18964e-06
6.22909e-08
4.19499e-06
7.57294e-08
4.20532e-06
8.61468e-08
4.21742e-06
9.33718e-08
4.22618e-06
9.69524e-08
4.23028e-06
1.01608e-07
4.2322e-06
1.1246e-07
1.26098e-07
4.23017e-06
4.54884e-06
6.2498e-08
4.54734e-06
2.78475e-08
4.55101e-06
5.29377e-08
4.54266e-06
1.21245e-07
4.53706e-06
1.50109e-07
4.54921e-06
1.30448e-07
4.56756e-06
9.6419e-08
4.57329e-06
7.48308e-08
4.56039e-06
7.09022e-08
4.53739e-06
7.62291e-08
4.51747e-06
8.22142e-08
4.50864e-06
8.4554e-08
4.5115e-06
8.32935e-08
4.52188e-06
8.29894e-08
4.53336e-06
8.54694e-08
4.54202e-06
9.29472e-08
4.54735e-06
1.07138e-07
1.2459e-07
4.54885e-06
4.83689e-06
3.53341e-08
4.8175e-06
4.72406e-08
4.82205e-06
4.83834e-08
4.84476e-06
9.85316e-08
4.86557e-06
1.29302e-07
4.86798e-06
1.28035e-07
4.85553e-06
1.08871e-07
4.84042e-06
8.99404e-08
4.83094e-06
8.03835e-08
4.82851e-06
7.86611e-08
4.83106e-06
7.96621e-08
4.83574e-06
7.98797e-08
4.84063e-06
7.83984e-08
4.84553e-06
7.80952e-08
4.85041e-06
8.0589e-08
4.85565e-06
8.77025e-08
4.86305e-06
9.97421e-08
1.16228e-07
4.87141e-06
5.247e-06
-3.02537e-08
5.25424e-06
4.00081e-08
5.18637e-06
1.16247e-07
5.13641e-06
1.48492e-07
5.12434e-06
1.41373e-07
5.13166e-06
1.20719e-07
5.14073e-06
9.97959e-08
5.14498e-06
8.56917e-08
5.14285e-06
8.25172e-08
5.13411e-06
8.73954e-08
5.1209e-06
9.28745e-08
5.1074e-06
9.33765e-08
5.09815e-06
8.76521e-08
5.09683e-06
7.94105e-08
5.10412e-06
7.33044e-08
5.11915e-06
7.26726e-08
5.14019e-06
7.86995e-08
9.1917e-08
5.1645e-06
5.54364e-06
-1.08717e-08
5.57513e-06
8.51396e-09
5.56555e-06
1.25835e-07
5.53127e-06
1.82767e-07
5.50547e-06
1.67175e-07
5.49881e-06
1.27378e-07
5.49938e-06
9.92233e-08
5.49463e-06
9.0445e-08
5.48372e-06
9.34273e-08
5.47474e-06
9.63769e-08
5.47585e-06
9.17597e-08
5.49003e-06
7.92021e-08
5.51447e-06
6.32109e-08
5.54454e-06
4.934e-08
5.57528e-06
4.2562e-08
5.60386e-06
4.40959e-08
5.62856e-06
5.39958e-08
7.09598e-08
5.64952e-06
5.95252e-06
3.11104e-08
5.92631e-06
3.47251e-08
5.91922e-06
1.32924e-07
5.90734e-06
1.94648e-07
5.88785e-06
1.86672e-07
5.87751e-06
1.37711e-07
5.887e-06
8.97389e-08
5.91316e-06
6.42787e-08
5.94597e-06
6.06247e-08
5.97633e-06
6.60135e-08
5.99889e-06
6.92036e-08
6.01225e-06
6.58385e-08
6.0182e-06
5.72628e-08
6.02043e-06
4.71081e-08
6.02382e-06
3.91737e-08
6.03099e-06
3.69264e-08
6.0444e-06
4.05865e-08
5.30172e-08
6.06234e-06
6.34849e-06
-1.01362e-07
6.33424e-06
4.89793e-08
6.33096e-06
1.36199e-07
6.33901e-06
1.86594e-07
6.33443e-06
1.9126e-07
6.31872e-06
1.53419e-07
6.31015e-06
9.83079e-08
6.32287e-06
5.15548e-08
6.35651e-06
2.69836e-08
6.39725e-06
2.52795e-08
6.42793e-06
3.85206e-08
6.4376e-06
5.61753e-08
6.42594e-06
6.89167e-08
6.40071e-06
7.23396e-08
6.3736e-06
6.6283e-08
6.35344e-06
5.70864e-08
6.34621e-06
4.78167e-08
4.60921e-08
6.35314e-06
5.57209e-06
-6.75907e-10
5.5426e-06
7.84712e-08
5.55478e-06
1.24013e-07
5.5931e-06
1.48277e-07
5.6477e-06
1.36666e-07
5.69346e-06
1.07657e-07
5.71819e-06
7.35767e-08
5.72779e-06
4.19575e-08
5.7331e-06
2.16737e-08
5.73882e-06
1.95538e-08
5.74362e-06
3.37209e-08
5.74451e-06
5.52869e-08
5.74042e-06
7.3011e-08
5.73318e-06
7.95717e-08
5.72595e-06
7.35184e-08
5.72198e-06
6.10516e-08
5.72299e-06
4.68116e-08
3.84344e-08
5.73065e-06
6.94181e-06
5.56094e-08
6.94281e-06
7.74701e-08
6.95023e-06
1.16593e-07
6.96562e-06
1.32892e-07
6.97651e-06
1.25776e-07
6.97622e-06
1.07943e-07
6.97854e-06
7.12607e-08
6.99539e-06
2.51044e-08
7.02291e-06
-5.84302e-09
7.04898e-06
-6.51694e-09
7.06242e-06
2.02748e-08
7.06068e-06
5.70308e-08
7.0481e-06
8.55939e-08
7.03215e-06
9.55234e-08
7.01964e-06
8.60237e-08
7.01447e-06
6.62268e-08
7.01771e-06
4.35642e-08
2.7385e-08
7.02876e-06
8.37979e-06
-1.17068e-07
8.45131e-06
5.95142e-09
8.50496e-06
6.29377e-08
8.51844e-06
1.19414e-07
8.49149e-06
1.52728e-07
8.47152e-06
1.27914e-07
8.48752e-06
5.52534e-08
8.52796e-06
-1.53284e-08
8.56519e-06
-4.3073e-08
8.57883e-06
-2.01585e-08
8.57125e-06
2.78527e-08
8.55333e-06
7.49529e-08
8.53837e-06
1.00548e-07
8.53288e-06
1.01016e-07
8.53641e-06
8.24903e-08
8.5457e-06
5.69436e-08
8.55758e-06
3.16818e-08
1.33266e-08
8.57164e-06
1.03117e-05
-2.02421e-07
1.03416e-05
-2.39605e-08
1.03779e-05
2.65968e-08
1.03849e-05
1.12457e-07
1.0385e-05
1.52629e-07
1.04109e-05
1.02031e-07
1.04538e-05
1.23559e-08
1.04718e-05
-3.33771e-08
1.04535e-05
-2.47291e-08
1.04129e-05
2.04323e-08
1.03775e-05
6.32716e-08
1.03688e-05
8.36003e-08
1.03905e-05
7.89061e-08
1.04334e-05
5.81064e-08
1.04831e-05
3.27825e-08
1.05289e-05
1.11353e-08
1.05655e-05
-4.93776e-09
-1.60188e-08
1.05948e-05
1.23037e-05
8.80876e-09
1.23023e-05
-2.25364e-08
1.23511e-05
-2.22728e-08
1.24345e-05
2.90866e-08
1.25442e-05
4.28945e-08
1.26367e-05
9.59117e-09
1.26739e-05
-2.48935e-08
1.26516e-05
-1.10817e-08
1.25999e-05
2.69648e-08
1.25604e-05
5.99417e-08
1.25592e-05
6.4478e-08
1.26019e-05
4.09314e-08
1.26756e-05
5.16125e-09
1.27624e-05
-2.86103e-08
1.2844e-05
-4.88692e-08
1.29115e-05
-5.63318e-08
1.29619e-05
-5.53641e-08
-5.26595e-08
1.29985e-05
1.53799e-05
-2.24277e-07
1.55113e-05
-1.53949e-07
1.55035e-05
-1.44269e-08
1.54989e-05
3.36556e-08
1.55127e-05
2.90609e-08
1.55108e-05
1.15719e-08
1.54761e-05
9.7455e-09
1.54359e-05
2.9151e-08
1.54118e-05
5.10194e-08
1.54144e-05
5.74054e-08
1.54378e-05
4.09953e-08
1.54718e-05
7.00019e-09
1.55068e-05
-2.98496e-08
1.55416e-05
-6.34528e-08
1.55781e-05
-8.53735e-08
1.56171e-05
-9.53078e-08
1.56569e-05
-9.51405e-08
-8.87392e-08
1.5693e-05
1.84659e-05
-5.98602e-08
1.83973e-05
-8.53228e-08
1.84927e-05
-1.09857e-07
1.8633e-05
-1.06646e-07
1.87377e-05
-7.56275e-08
1.87992e-05
-4.99727e-08
1.88526e-05
-4.36214e-08
1.89275e-05
-4.57343e-08
1.9024e-05
-4.55119e-08
1.91229e-05
-4.14596e-08
1.92012e-05
-3.728e-08
1.92465e-05
-3.83317e-08
1.92637e-05
-4.70222e-08
1.92634e-05
-6.31949e-08
1.92594e-05
-8.13591e-08
1.92603e-05
-9.62664e-08
1.92684e-05
-1.03176e-07
-1.00526e-07
1.92802e-05
2.31167e-05
1.52993e-07
2.30452e-05
-1.3894e-08
2.30857e-05
-1.50343e-07
2.31113e-05
-1.32186e-07
2.30755e-05
-3.98086e-08
2.2984e-05
4.14668e-08
2.28898e-05
5.05908e-08
2.28439e-05
1.62224e-10
2.28672e-05
-6.88056e-08
2.29612e-05
-1.35442e-07
2.31054e-05
-1.8145e-07
2.32669e-05
-1.99856e-07
2.341e-05
-1.90169e-07
2.35054e-05
-1.58558e-07
2.35392e-05
-1.15151e-07
2.35146e-05
-7.17039e-08
2.34464e-05
-3.49328e-08
-1.18467e-08
2.33577e-05
1.67234e-05
2.1392e-07
1.67736e-05
-6.40568e-08
1.68289e-05
-2.05662e-07
1.68441e-05
-1.47392e-07
1.68427e-05
-3.8377e-08
1.68591e-05
2.50259e-08
1.68818e-05
2.78985e-08
1.6903e-05
-2.10421e-08
1.69263e-05
-9.20376e-08
1.69475e-05
-1.56702e-07
1.69629e-05
-1.96774e-07
1.69672e-05
-2.04212e-07
1.69577e-05
-1.80619e-07
1.69338e-05
-1.34723e-07
1.68981e-05
-7.94663e-08
1.68548e-05
-2.83831e-08
1.68117e-05
8.17859e-09
2.60425e-08
1.67738e-05
1.46877e-05
8.76073e-08
1.46812e-05
-5.75714e-08
1.46591e-05
-1.83609e-07
1.46536e-05
-1.41896e-07
1.46767e-05
-6.14732e-08
1.47205e-05
-1.87816e-08
1.47707e-05
-2.22218e-08
1.48072e-05
-5.75803e-08
1.48143e-05
-9.90901e-08
1.47821e-05
-1.24502e-07
1.47109e-05
-1.25576e-07
1.46129e-05
-1.0623e-07
1.45085e-05
-7.61997e-08
1.44186e-05
-4.48536e-08
1.43581e-05
-1.89907e-08
1.43328e-05
-3.01896e-09
1.43385e-05
2.38928e-09
-2.87238e-09
1.43675e-05
1.24133e-05
5.74621e-08
1.2427e-05
-7.12259e-08
1.24444e-05
-2.01099e-07
1.2499e-05
-1.96483e-07
1.25859e-05
-1.48334e-07
1.26606e-05
-9.35289e-08
1.26913e-05
-5.29235e-08
1.2678e-05
-4.42127e-08
1.26432e-05
-6.43448e-08
1.26121e-05
-9.33232e-08
1.25997e-05
-1.13213e-07
1.26077e-05
-1.14215e-07
1.26286e-05
-9.71489e-08
1.26539e-05
-7.00829e-08
1.26776e-05
-4.27426e-08
1.26975e-05
-2.28894e-08
1.27129e-05
-1.29972e-08
-1.37594e-08
1.27238e-05
1.13117e-05
-2.94883e-08
1.13102e-05
-6.97076e-08
1.12411e-05
-1.32054e-07
1.11953e-05
-1.50682e-07
1.11731e-05
-1.261e-07
1.11672e-05
-8.76368e-08
1.11582e-05
-4.3892e-08
1.11271e-05
-1.32002e-08
1.10758e-05
-1.29686e-08
1.10233e-05
-4.08998e-08
1.09904e-05
-8.02872e-08
1.09869e-05
-1.10698e-07
1.10098e-05
-1.20071e-07
1.10476e-05
-1.07893e-07
1.10872e-05
-8.23075e-08
1.11187e-05
-5.43436e-08
1.11375e-05
-3.18331e-08
-2.07355e-08
1.11445e-05
9.70593e-06
6.61188e-08
9.69638e-06
-6.01595e-08
9.70571e-06
-1.41384e-07
9.68676e-06
-1.31735e-07
9.64451e-06
-8.38532e-08
9.59492e-06
-3.8041e-08
9.55809e-06
-7.05987e-09
9.54376e-06
1.12683e-09
9.54635e-06
-1.55637e-08
9.5556e-06
-5.01442e-08
9.56169e-06
-8.63799e-08
9.56276e-06
-1.1177e-07
9.56253e-06
-1.1984e-07
9.56528e-06
-1.10641e-07
9.57294e-06
-8.99659e-08
9.58499e-06
-6.63954e-08
9.60027e-06
-4.71123e-08
-3.84473e-08
9.61798e-06
8.43454e-06
-6.21983e-09
8.3854e-06
-1.10161e-08
8.31156e-06
-6.75433e-08
8.27981e-06
-9.99906e-08
8.29903e-06
-1.03066e-07
8.34374e-06
-8.2755e-08
8.39219e-06
-5.55078e-08
8.43191e-06
-3.85904e-08
8.45452e-06
-3.81798e-08
8.45402e-06
-4.96418e-08
8.43444e-06
-6.68045e-08
8.4091e-06
-8.64231e-08
8.39251e-06
-1.03252e-07
8.39365e-06
-1.11782e-07
8.41283e-06
-1.09143e-07
8.44452e-06
-9.80903e-08
8.48049e-06
-8.30771e-08
-6.99489e-08
8.51199e-06
7.34691e-06
7.09863e-08
7.34021e-06
-4.31343e-09
7.35293e-06
-8.02633e-08
7.38123e-06
-1.28298e-07
7.41095e-06
-1.32781e-07
7.43659e-06
-1.08395e-07
7.4522e-06
-7.1117e-08
7.44723e-06
-3.36247e-08
7.41577e-06
-6.71378e-09
7.36508e-06
1.04681e-09
7.31136e-06
-1.30889e-08
7.2706e-06
-4.56626e-08
7.25076e-06
-8.34107e-08
7.25221e-06
-1.13231e-07
7.26973e-06
-1.26666e-07
7.29561e-06
-1.23967e-07
7.3216e-06
-1.09069e-07
-8.97968e-08
7.34145e-06
6.40032e-06
1.09465e-07
6.44351e-06
-4.7503e-08
6.44001e-06
-7.67656e-08
6.40978e-06
-9.80692e-08
6.38824e-06
-1.11237e-07
6.37971e-06
-9.98694e-08
6.37836e-06
-6.97616e-08
6.38445e-06
-3.97192e-08
6.40281e-06
-2.50715e-08
6.43296e-06
-2.91074e-08
6.46597e-06
-4.60954e-08
6.48758e-06
-6.72718e-08
6.48817e-06
-8.4002e-08
6.46716e-06
-9.22238e-08
6.4328e-06
-9.22985e-08
6.39623e-06
-8.74052e-08
6.36757e-06
-8.0409e-08
-7.39127e-08
6.35169e-06
5.50484e-06
2.30796e-08
5.55189e-06
-9.45551e-08
5.58158e-06
-1.06458e-07
5.58424e-06
-1.00733e-07
5.57286e-06
-9.98524e-08
5.55499e-06
-8.19977e-08
5.54172e-06
-5.64967e-08
5.54551e-06
-4.35064e-08
5.56939e-06
-4.89521e-08
5.60482e-06
-6.45374e-08
5.63864e-06
-7.9914e-08
5.66047e-06
-8.91021e-08
5.66624e-06
-8.97764e-08
5.65745e-06
-8.34292e-08
5.63946e-06
-7.43081e-08
5.61855e-06
-6.64942e-08
5.6003e-06
-6.21629e-08
-6.17148e-08
5.5881e-06
4.91682e-06
-5.38955e-08
4.9266e-06
-1.04338e-07
4.92247e-06
-1.02331e-07
4.90358e-06
-8.18372e-08
4.86302e-06
-5.92891e-08
4.83064e-06
-4.96222e-08
4.83072e-06
-5.65744e-08
4.86151e-06
-7.43012e-08
4.90286e-06
-9.02974e-08
4.93268e-06
-9.43578e-08
4.93837e-06
-8.56065e-08
4.91992e-06
-7.06504e-08
4.88676e-06
-5.66166e-08
4.85057e-06
-4.72428e-08
4.81935e-06
-4.30862e-08
4.79573e-06
-4.28727e-08
4.77898e-06
-4.541e-08
-4.95597e-08
4.76682e-06
4.22452e-06
4.12018e-06
4.01785e-06
3.93602e-06
3.87673e-06
3.8271e-06
3.77053e-06
3.69623e-06
3.60593e-06
3.51157e-06
3.42597e-06
3.35532e-06
3.2987e-06
3.25146e-06
3.20837e-06
3.1655e-06
3.12009e-06
3.07053e-06
-6.03252e-07
6.03252e-07
-1.07694e-06
4.73687e-07
-1.41275e-06
3.35811e-07
-1.56631e-06
1.53562e-07
-1.48884e-06
-7.74709e-08
-1.21028e-06
-2.78557e-07
-8.04257e-07
-4.06028e-07
-3.51731e-07
-4.52525e-07
7.606e-08
-4.27791e-07
4.50153e-07
-3.74093e-07
7.54391e-07
-3.04239e-07
9.94707e-07
-2.40316e-07
1.1845e-06
-1.89795e-07
1.33898e-06
-1.54475e-07
1.4724e-06
-1.3342e-07
1.59745e-06
-1.25057e-07
1.72509e-06
-1.27637e-07
1.86514e-06
-1.40046e-07
2.02427e-06
-1.59135e-07
2.20654e-06
-1.82273e-07
2.41486e-06
-2.08318e-07
2.65126e-06
-2.36395e-07
2.91587e-06
-2.64617e-07
3.20582e-06
-2.89944e-07
3.51859e-06
-3.12771e-07
3.84688e-06
-3.28287e-07
4.18128e-06
-3.34404e-07
4.51666e-06
-3.3538e-07
4.83569e-06
-3.19033e-07
5.13072e-06
-2.9503e-07
5.38941e-06
-2.58686e-07
5.5842e-06
-1.94792e-07
5.72387e-06
-1.39665e-07
5.76209e-06
-3.82242e-08
5.68776e-06
7.43315e-08
5.48267e-06
2.05086e-07
5.04106e-06
4.41612e-07
4.47166e-06
5.69399e-07
3.57259e-06
8.99073e-07
2.32851e-06
1.24408e-06
1.17709e-06
1.15142e-06
2.39783e-07
9.37305e-07
-4.54654e-07
6.94437e-07
-1.0781e-06
6.23446e-07
-1.78446e-06
7.0636e-07
-2.46327e-06
6.78813e-07
-2.92309e-06
4.59815e-07
-3.03059e-06
1.07502e-07
-2.76698e-06
-2.63609e-07
-2.09646e-06
-6.70523e-07
-9.96895e-07
-1.09956e-06
5.14058e-07
-1.51095e-06
2.12574e-06
-1.61168e-06
3.36371e-06
-1.23797e-06
4.00155e-06
-6.37839e-07
3.72759e-06
2.7396e-07
2.82344e-06
9.04156e-07
2.29803e-06
5.254e-07
2.0882e-06
2.09836e-07
1.56761e-06
5.20594e-07
6.88997e-07
8.78609e-07
-1.95593e-07
8.8459e-07
-9.70209e-07
7.74615e-07
-1.65663e-06
6.86425e-07
-2.27927e-06
6.22636e-07
-2.85919e-06
5.7992e-07
-3.41319e-06
5.53997e-07
-3.95416e-06
5.40973e-07
-4.49016e-06
5.36e-07
-5.02551e-06
5.35353e-07
-5.55981e-06
5.34296e-07
-6.08966e-06
5.29857e-07
-6.60919e-06
5.19526e-07
-7.11192e-06
5.02731e-07
-7.59166e-06
4.79741e-07
-8.04362e-06
4.51957e-07
-8.46422e-06
4.20599e-07
-8.85092e-06
3.86699e-07
-9.20185e-06
3.50928e-07
-9.5158e-06
3.13953e-07
-9.792e-06
2.76205e-07
-1.00298e-05
2.37793e-07
-1.02283e-05
1.98478e-07
-1.03863e-05
1.58003e-07
-1.05028e-05
1.16505e-07
-1.05769e-05
7.41128e-08
-1.06072e-05
3.02591e-08
-1.05942e-05
-1.29214e-08
-1.05398e-05
-5.44454e-08
-1.04436e-05
-9.61872e-08
-1.03062e-05
-1.37396e-07
-1.01287e-05
-1.77552e-07
-9.91238e-06
-2.16273e-07
-9.65931e-06
-2.53067e-07
-9.37181e-06
-2.87501e-07
-9.05255e-06
-3.1926e-07
-8.70451e-06
-3.48046e-07
-8.3308e-06
-3.73704e-07
-7.9346e-06
-3.96198e-07
-7.51902e-06
-4.1558e-07
-7.08707e-06
-4.31958e-07
-6.64155e-06
-4.45514e-07
-6.18506e-06
-4.56489e-07
-5.71996e-06
-4.65102e-07
-5.24838e-06
-4.71582e-07
-4.77228e-06
-4.76103e-07
-4.29364e-06
-4.7864e-07
-3.81455e-06
-4.79085e-07
-3.3373e-06
-4.77253e-07
-2.86441e-06
-4.72893e-07
-2.39868e-06
-4.65729e-07
-1.94316e-06
-4.55521e-07
-1.50101e-06
-4.42151e-07
-1.07549e-06
-4.25521e-07
-6.70076e-07
-4.05409e-07
-2.8712e-07
-3.82956e-07
7.20567e-08
-3.59177e-07
4.0583e-07
-3.33773e-07
7.12167e-07
-3.06337e-07
9.90505e-07
-2.78339e-07
1.24095e-06
-2.50441e-07
1.46426e-06
-2.23311e-07
1.66185e-06
-1.97593e-07
1.83576e-06
-1.73908e-07
1.98863e-06
-1.52873e-07
2.12372e-06
-1.35087e-07
2.24484e-06
-1.21125e-07
2.35635e-06
-1.11507e-07
2.46299e-06
-1.06638e-07
2.56972e-06
-1.06728e-07
2.68143e-06
-1.11711e-07
2.80258e-06
-1.21156e-07
2.93674e-06
-1.34155e-07
3.08594e-06
-1.49202e-07
3.25011e-06
-1.6417e-07
3.42666e-06
-1.76554e-07
3.61068e-06
-1.84017e-07
3.79564e-06
-1.84957e-07
3.97409e-06
-1.78449e-07
4.13813e-06
-1.64046e-07
4.28098e-06
-1.42847e-07
4.39898e-06
-1.17997e-07
4.49192e-06
-9.29432e-08
4.56192e-06
-7.00019e-08
4.61031e-06
-4.83834e-08
4.63462e-06
-2.43118e-08
4.63376e-06
8.61353e-10
4.6138e-06
1.99583e-08
4.57744e-06
3.63559e-08
4.50981e-06
6.76324e-08
4.38571e-06
1.241e-07
4.19652e-06
1.89191e-07
3.96383e-06
2.32689e-07
3.72401e-06
2.3982e-07
3.50511e-06
2.18899e-07
3.31977e-06
1.85345e-07
3.17267e-06
1.47091e-07
3.06676e-06
1.05914e-07
3.0005e-06
6.62596e-08
2.96602e-06
3.4479e-08
2.94923e-06
1.67886e-08
2.93327e-06
1.59647e-08
2.90295e-06
3.0314e-08
2.84515e-06
5.7804e-08
2.75308e-06
9.20681e-08
2.63198e-06
1.21101e-07
2.49907e-06
1.32913e-07
2.37733e-06
1.21742e-07
2.28073e-06
9.6598e-08
2.21085e-06
6.98824e-08
2.15925e-06
5.15937e-08
2.11771e-06
4.15446e-08
2.07666e-06
4.10439e-08
2.0353e-06
4.13593e-08
1.98355e-06
5.17583e-08
1.92911e-06
5.44322e-08
1.84668e-06
8.24378e-08
1.76358e-06
8.30921e-08
1.60449e-06
1.59098e-07
1.35946e-07
1.46854e-06
-2.04778e-07
8.08031e-07
-4.24531e-07
6.9344e-07
-5.31317e-07
4.42597e-07
-4.94062e-07
1.16307e-07
-3.23652e-07
-2.47882e-07
-4.16931e-08
-5.60516e-07
2.77135e-07
-7.24855e-07
5.52625e-07
-7.28016e-07
7.61674e-07
-6.3684e-07
9.05862e-07
-5.18281e-07
9.84491e-07
-3.82867e-07
1.01029e-06
-2.66114e-07
1.00782e-06
-1.87329e-07
9.97841e-07
-1.44494e-07
9.93223e-07
-1.28801e-07
1.00162e-06
-1.33454e-07
1.02824e-06
-1.54254e-07
1.07695e-06
-1.88755e-07
1.15274e-06
-2.34929e-07
1.26118e-06
-2.90713e-07
1.40602e-06
-3.53156e-07
1.58926e-06
-4.19639e-07
1.81103e-06
-4.86386e-07
2.07055e-06
-5.49467e-07
2.36303e-06
-6.05247e-07
2.68386e-06
-6.4912e-07
3.02691e-06
-6.77449e-07
3.37863e-06
-6.87106e-07
3.73108e-06
-6.71482e-07
4.07002e-06
-6.33967e-07
4.3821e-06
-5.70768e-07
4.66648e-06
-4.79175e-07
4.89976e-06
-3.7294e-07
5.0833e-06
-2.21769e-07
5.20956e-06
-5.1922e-08
5.2731e-06
1.41539e-07
5.29485e-06
4.19868e-07
5.18333e-06
6.80919e-07
5.04696e-06
1.03544e-06
4.84064e-06
1.4504e-06
4.20037e-06
1.79169e-06
3.17535e-06
1.96232e-06
2.07052e-06
1.79927e-06
1.08401e-06
1.60995e-06
2.74942e-07
1.51543e-06
-3.38464e-07
1.29222e-06
-7.4259e-07
8.63941e-07
-9.44025e-07
3.08938e-07
-9.49248e-07
-2.58387e-07
-7.41118e-07
-8.78653e-07
-2.8549e-07
-1.55519e-06
4.84231e-07
-2.28067e-06
1.52942e-06
-2.65687e-06
2.3667e-06
-2.07525e-06
2.60455e-06
-8.75695e-07
2.52874e-06
3.49773e-07
2.47028e-06
9.62614e-07
1.91697e-06
1.07871e-06
7.06338e-07
1.42047e-06
-5.46269e-07
1.7732e-06
-1.47283e-06
1.80517e-06
-2.24284e-06
1.6546e-06
-2.95218e-06
1.48395e-06
-3.60142e-06
1.33566e-06
-4.19563e-06
1.21685e-06
-4.74304e-06
1.12733e-06
-5.25334e-06
1.0643e-06
-5.73469e-06
1.02232e-06
-6.19145e-06
9.9276e-07
-6.62552e-06
9.69429e-07
-7.03728e-06
9.46052e-07
-7.42612e-06
9.18697e-07
-7.79119e-06
8.84597e-07
-8.13234e-06
8.43883e-07
-8.45012e-06
7.9752e-07
-8.74539e-06
7.47226e-07
-9.01897e-06
6.94177e-07
-9.2712e-06
6.38926e-07
-9.50168e-06
5.8141e-07
-9.70929e-06
5.21569e-07
-9.89235e-06
4.59262e-07
-1.0049e-05
3.94425e-07
-1.01775e-05
3.26965e-07
-1.02762e-05
2.56724e-07
-1.03433e-05
1.83651e-07
-1.03772e-05
1.08014e-07
-1.0376e-05
2.90291e-08
-1.03388e-05
-5.01099e-08
-1.02625e-05
-1.30815e-07
-1.01464e-05
-2.12251e-07
-9.99097e-06
-2.92812e-07
-9.7971e-06
-3.71422e-07
-9.56629e-06
-4.47089e-07
-9.30049e-06
-5.18866e-07
-9.00205e-06
-5.85938e-07
-8.67369e-06
-6.47623e-07
-8.31835e-06
-7.03388e-07
-7.93915e-06
-7.52905e-07
-7.53922e-06
-7.96122e-07
-7.12161e-06
-8.33195e-07
-6.68919e-06
-8.64378e-07
-6.24465e-06
-8.90052e-07
-5.79041e-06
-9.10723e-07
-5.32862e-06
-9.26899e-07
-4.86116e-06
-9.39041e-07
-4.38973e-06
-9.47527e-07
-3.91602e-06
-9.52352e-07
-3.44184e-06
-9.53271e-07
-2.96922e-06
-9.49874e-07
-2.50038e-06
-9.41728e-07
-2.03776e-06
-9.28348e-07
-1.58434e-06
-9.08944e-07
-1.14332e-06
-8.83168e-07
-7.17852e-07
-8.50989e-07
-3.11502e-07
-8.11759e-07
7.56293e-08
-7.70088e-07
4.39847e-07
-7.23395e-07
7.78437e-07
-6.72362e-07
1.09067e-06
-6.18568e-07
1.3758e-06
-5.63475e-07
1.63374e-06
-5.08376e-07
1.86495e-06
-4.54521e-07
2.07051e-06
-4.03152e-07
2.25212e-06
-3.55519e-07
2.41213e-06
-3.12886e-07
2.55357e-06
-2.76526e-07
2.68015e-06
-2.477e-07
2.79623e-06
-2.2759e-07
2.90673e-06
-2.17136e-07
3.01689e-06
-2.16888e-07
3.13201e-06
-2.26836e-07
3.25707e-06
-2.46215e-07
3.39621e-06
-2.73294e-07
3.55214e-06
-3.05136e-07
3.7255e-06
-3.3753e-07
3.9143e-06
-3.65355e-07
4.11376e-06
-3.83475e-07
4.31648e-06
-3.87674e-07
4.51327e-06
-3.75238e-07
4.6951e-06
-3.45878e-07
4.85504e-06
-3.02783e-07
4.98881e-06
-2.51765e-07
5.09453e-06
-1.9867e-07
5.17204e-06
-1.47513e-07
5.22398e-06
-1.00318e-07
5.25889e-06
-5.92206e-08
5.2857e-06
-2.59514e-08
5.30831e-06
-2.65121e-09
5.32785e-06
1.68167e-08
5.34715e-06
4.83357e-08
5.36475e-06
1.06494e-07
5.37441e-06
1.79532e-07
5.37587e-06
2.31226e-07
5.37877e-06
2.36927e-07
5.39156e-06
2.06108e-07
5.40512e-06
1.71782e-07
5.39318e-06
1.59031e-07
5.33523e-06
1.63862e-07
5.23963e-06
1.61866e-07
5.13667e-06
1.37433e-07
5.05115e-06
1.02307e-07
4.98268e-06
8.44403e-08
4.91156e-06
1.01429e-07
4.82189e-06
1.4748e-07
4.71355e-06
2.00404e-07
4.59909e-06
2.35561e-07
4.49339e-06
2.38613e-07
4.40336e-06
2.11772e-07
4.33179e-06
1.6817e-07
4.2792e-06
1.22471e-07
4.24256e-06
8.82356e-08
4.2182e-06
6.59058e-08
4.19876e-06
6.04792e-08
4.1814e-06
5.87221e-08
4.15738e-06
7.57725e-08
4.12765e-06
8.41634e-08
4.07735e-06
1.3274e-07
4.01215e-06
1.48291e-07
3.91009e-06
2.61158e-07
2.76023e-07
3.77001e-06
1.92801e-07
6.15229e-07
2.73727e-07
6.12514e-07
3.77949e-07
3.38376e-07
4.95587e-07
-1.33095e-09
6.60808e-07
-4.13103e-07
7.53529e-07
-6.53237e-07
7.24923e-07
-6.96249e-07
5.23204e-07
-5.26298e-07
2.25284e-07
-3.3892e-07
-4.61937e-08
-2.46803e-07
-2.62382e-07
-1.66679e-07
-4.42795e-07
-8.56999e-08
-5.95983e-07
-3.41406e-08
-7.21185e-07
-1.92925e-08
-8.18559e-07
-3.14268e-08
-8.84289e-07
-6.77245e-08
-9.14392e-07
-1.2415e-07
-9.05121e-07
-1.98027e-07
-8.53788e-07
-2.86262e-07
-7.58546e-07
-3.85955e-07
-6.17974e-07
-4.93728e-07
-4.3211e-07
-6.05502e-07
-2.01233e-07
-7.17264e-07
7.26487e-08
-8.23349e-07
3.85571e-07
-9.18169e-07
7.32476e-07
-9.96026e-07
1.10618e-06
-1.05115e-06
1.49656e-06
-1.07749e-06
1.89478e-06
-1.0697e-06
2.28515e-06
-1.02433e-06
2.6596e-06
-9.45223e-07
3.01322e-06
-8.32796e-07
3.32686e-06
-6.86578e-07
3.60621e-06
-5.01118e-07
3.85152e-06
-2.97227e-07
4.05532e-06
-6.22635e-08
4.25537e-06
2.19817e-07
4.43841e-06
4.97881e-07
4.64382e-06
8.30032e-07
4.89109e-06
1.20313e-06
5.08771e-06
1.59507e-06
5.09947e-06
1.95057e-06
4.76948e-06
2.12925e-06
4.25222e-06
2.12722e-06
3.75627e-06
2.01137e-06
3.3258e-06
1.72269e-06
2.94649e-06
1.24326e-06
2.58826e-06
6.6717e-07
2.28652e-06
4.33534e-08
2.07532e-06
-6.67454e-07
1.82237e-06
-1.30224e-06
1.64819e-06
-2.10649e-06
1.54932e-06
-2.558e-06
1.34345e-06
-1.86938e-06
1.08957e-06
-6.2181e-07
1.04898e-06
3.90358e-07
8.02741e-07
1.20885e-06
-1.00393e-07
1.98185e-06
-1.14925e-06
2.46933e-06
-1.92105e-06
2.54499e-06
-2.48623e-06
2.37036e-06
-2.97558e-06
2.14395e-06
-3.4286e-06
1.93697e-06
-3.86191e-06
1.76898e-06
-4.28534e-06
1.64028e-06
-4.70167e-06
1.54366e-06
-5.10755e-06
1.47017e-06
-5.49989e-06
1.41466e-06
-5.87631e-06
1.36918e-06
-6.23495e-06
1.32807e-06
-6.57435e-06
1.28545e-06
-6.89433e-06
1.23867e-06
-7.19555e-06
1.18582e-06
-7.47922e-06
1.12755e-06
-7.74714e-06
1.06544e-06
-8.00108e-06
1.00117e-06
-8.24191e-06
9.35007e-07
-8.46924e-06
8.66252e-07
-8.68152e-06
7.93694e-07
-8.87629e-06
7.16342e-07
-9.05058e-06
6.33548e-07
-9.2013e-06
5.45144e-07
-9.32542e-06
4.51088e-07
-9.42011e-06
3.51419e-07
-9.48305e-06
2.46583e-07
-9.51205e-06
1.37024e-07
-9.50796e-06
2.49385e-08
-9.46307e-06
-9.50062e-08
-9.37889e-06
-2.14989e-07
-9.2559e-06
-3.35241e-07
-9.09434e-06
-4.54379e-07
-8.89495e-06
-5.70805e-07
-8.65921e-06
-6.82836e-07
-8.38915e-06
-7.8892e-07
-8.08737e-06
-8.87723e-07
-7.75681e-06
-9.78181e-07
-7.40071e-06
-1.05948e-06
-7.02251e-06
-1.13111e-06
-6.62568e-06
-1.19295e-06
-6.21358e-06
-1.24529e-06
-5.78933e-06
-1.28863e-06
-5.35576e-06
-1.32362e-06
-4.91546e-06
-1.35103e-06
-4.47053e-06
-1.37182e-06
-4.02279e-06
-1.38679e-06
-3.57377e-06
-1.39654e-06
-3.12486e-06
-1.40127e-06
-2.67762e-06
-1.40051e-06
-2.23382e-06
-1.39368e-06
-1.79539e-06
-1.38016e-06
-1.36472e-06
-1.35902e-06
-9.44178e-07
-1.32949e-06
-5.3663e-07
-1.29072e-06
-1.44214e-07
-1.24341e-06
2.33232e-07
-1.1892e-06
5.89478e-07
-1.12633e-06
9.2305e-07
-1.05697e-06
1.23302e-06
-9.82333e-07
1.51861e-06
-9.04157e-07
1.77938e-06
-8.24247e-07
2.01539e-06
-7.44385e-07
2.22719e-06
-6.66316e-07
2.4158e-06
-5.91764e-07
2.58274e-06
-5.22463e-07
2.73006e-06
-4.60203e-07
2.8604e-06
-4.06868e-07
2.97713e-06
-3.64427e-07
3.08433e-06
-3.34793e-07
3.18667e-06
-3.19471e-07
3.28917e-06
-3.19387e-07
3.39693e-06
-3.346e-07
3.51477e-06
-3.64053e-07
3.64677e-06
-4.05291e-07
3.79578e-06
-4.54145e-07
3.96279e-06
-5.0455e-07
4.14636e-06
-5.48923e-07
4.34239e-06
-5.79501e-07
4.54492e-06
-5.90209e-07
4.74753e-06
-5.77844e-07
4.94349e-06
-5.41839e-07
5.12413e-06
-4.83425e-07
5.27817e-06
-4.05805e-07
5.39453e-06
-3.15026e-07
5.46535e-06
-2.18337e-07
5.48732e-06
-1.22285e-07
5.46388e-06
-3.57885e-08
5.41185e-06
2.60808e-08
5.35653e-06
5.26763e-08
5.32316e-06
5.01845e-08
5.32577e-06
4.57192e-08
5.3585e-06
7.37667e-08
5.39821e-06
1.39824e-07
5.4238e-06
2.05638e-07
5.43884e-06
2.21886e-07
5.47029e-06
1.74656e-07
5.54004e-06
1.02036e-07
5.63576e-06
6.33088e-08
5.71085e-06
8.87735e-08
5.71808e-06
1.54637e-07
5.64966e-06
2.05852e-07
5.54413e-06
2.07832e-07
5.45304e-06
1.75538e-07
5.39922e-06
1.55245e-07
5.36464e-06
1.82055e-07
5.31678e-06
2.48269e-07
5.23757e-06
3.14771e-07
5.131e-06
3.45181e-07
5.01478e-06
3.27992e-07
4.90745e-06
2.755e-07
4.82158e-06
2.08347e-07
4.76156e-06
1.48252e-07
4.72481e-06
1.02658e-07
4.70393e-06
8.13572e-08
4.69086e-06
7.17891e-08
4.68015e-06
8.64852e-08
4.66739e-06
9.69203e-08
4.65532e-06
1.44816e-07
4.63238e-06
1.71229e-07
4.61587e-06
2.77662e-07
3.35489e-07
4.55641e-06
2.50578e-07
3.64651e-07
4.02468e-07
4.60624e-07
5.17712e-07
2.23132e-07
6.22499e-07
-1.06118e-07
6.12516e-07
-4.03119e-07
2.61167e-07
-3.01888e-07
-2.51536e-07
-1.83547e-07
-6.83663e-07
-9.41703e-08
-1.09374e-06
7.11542e-08
-1.45352e-06
1.12978e-07
-1.72349e-06
1.03296e-07
-1.93633e-06
1.27136e-07
-2.11069e-06
1.40217e-07
-2.26129e-06
1.31305e-07
-2.39056e-06
9.78461e-08
-2.49663e-06
3.83443e-08
-2.5703e-06
-5.04749e-08
-2.60672e-06
-1.61606e-07
-2.60093e-06
-2.92056e-07
-2.54864e-06
-4.38241e-07
-2.4471e-06
-5.95268e-07
-2.295e-06
-7.57607e-07
-2.09291e-06
-9.19356e-07
-1.84224e-06
-1.07402e-06
-1.54592e-06
-1.21448e-06
-1.20877e-06
-1.33317e-06
-8.36785e-07
-1.42314e-06
-4.36292e-07
-1.47798e-06
-1.39765e-08
-1.49202e-06
4.23727e-07
-1.46203e-06
8.62137e-07
-1.38363e-06
1.29078e-06
-1.26144e-06
1.70107e-06
-1.09687e-06
2.09602e-06
-8.96067e-07
2.46384e-06
-6.65043e-07
2.79866e-06
-3.97089e-07
3.12534e-06
-1.06858e-07
3.44634e-06
1.76877e-07
3.78772e-06
4.88655e-07
4.18468e-06
8.06171e-07
4.66527e-06
1.11447e-06
5.17195e-06
1.44389e-06
5.56904e-06
1.73216e-06
5.80179e-06
1.89447e-06
5.87877e-06
1.9344e-06
5.80032e-06
1.80114e-06
5.55571e-06
1.48786e-06
5.17329e-06
1.04959e-06
4.77679e-06
4.39847e-07
4.28334e-06
-1.73997e-07
3.66179e-06
-6.80701e-07
2.90249e-06
-1.34719e-06
2.05196e-06
-1.70747e-06
1.31949e-06
-1.13691e-06
8.71094e-07
-1.73412e-07
3.87224e-07
8.74227e-07
-4.55304e-07
2.05138e-06
-1.31229e-06
2.83884e-06
-1.90478e-06
3.06181e-06
-2.29243e-06
2.93264e-06
-2.62316e-06
2.7011e-06
-2.94983e-06
2.47062e-06
-3.27857e-06
2.26571e-06
-3.60816e-06
2.09857e-06
-3.93767e-06
1.96979e-06
-4.26977e-06
1.87576e-06
-4.60359e-06
1.80398e-06
-4.93433e-06
1.74541e-06
-5.25703e-06
1.69188e-06
-5.56815e-06
1.63919e-06
-5.86455e-06
1.58185e-06
-6.14384e-06
1.51796e-06
-6.4061e-06
1.44809e-06
-6.65372e-06
1.37517e-06
-6.89088e-06
1.3026e-06
-7.12255e-06
1.23284e-06
-7.35285e-06
1.16531e-06
-7.58277e-06
1.09618e-06
-7.8091e-06
1.02002e-06
-8.02598e-06
9.3322e-07
-8.22706e-06
8.34633e-07
-8.40641e-06
7.24495e-07
-8.55902e-06
6.03698e-07
-8.68119e-06
4.7358e-07
-8.76965e-06
3.35048e-07
-8.8216e-06
1.88968e-07
-8.83604e-06
3.93861e-08
-8.80695e-06
-1.24099e-07
-8.73439e-06
-2.87549e-07
-8.61835e-06
-4.5128e-07
-8.45883e-06
-6.13905e-07
-8.25658e-06
-7.7305e-07
-8.01322e-06
-9.26195e-07
-7.73113e-06
-1.07101e-06
-7.41338e-06
-1.20547e-06
-7.06351e-06
-1.32806e-06
-6.68537e-06
-1.43762e-06
-6.2831e-06
-1.53338e-06
-5.86094e-06
-1.61512e-06
-5.42304e-06
-1.6832e-06
-4.97327e-06
-1.7384e-06
-4.51516e-06
-1.78172e-06
-4.05192e-06
-1.81427e-06
-3.58629e-06
-1.83746e-06
-3.1206e-06
-1.85248e-06
-2.65692e-06
-1.86021e-06
-2.19716e-06
-1.86103e-06
-1.74325e-06
-1.85441e-06
-1.29717e-06
-1.83976e-06
-8.61432e-07
-1.81589e-06
-4.39083e-07
-1.78137e-06
-3.11267e-08
-1.73744e-06
3.60015e-07
-1.68186e-06
7.31273e-07
-1.61466e-06
1.07984e-06
-1.53777e-06
1.40521e-06
-1.4517e-06
1.70653e-06
-1.35829e-06
1.98345e-06
-1.25926e-06
2.23584e-06
-1.15655e-06
2.46381e-06
-1.05221e-06
2.66783e-06
-9.48406e-07
2.84891e-06
-8.47402e-07
3.00867e-06
-7.51518e-07
3.14928e-06