/*--------------------------------*- C++ -*----------------------------------*\
  =========                 |
  \\      /  F ield         | OpenFOAM: The Open Source CFD Toolbox
   \\    /   O peration     | Website:  https://openfoam.org
    \\  /    A nd           | Version:  9
     \\/     M anipulation  |
\*---------------------------------------------------------------------------*/
FoamFile
{
    format      ascii;
    class       volScalarField;
    location    "0.049";
    object      pMean;
}
// * * * * * * * * * * * * * * * * * * * * * * * * * * * * * * * * * * * * * //

dimensions      [0 2 -2 0 0 0 0];

internalField   nonuniform List<scalar> 
12225
(
-2.47713
-3.04779
-3.35558
-3.47981
-3.54049
-3.59126
-3.64173
-3.68716
-3.72247
-3.74659
-3.75949
-3.76321
-3.75903
-3.75606
-3.76616
-3.83837
-4.03092
-4.57851
-2.72862
-3.07825
-3.35727
-3.48983
-3.55185
-3.60093
-3.65053
-3.69601
-3.73221
-3.75746
-3.77281
-3.77899
-3.78087
-3.7825
-3.80667
-3.87746
-4.08314
-4.52628
-2.7757
-3.08298
-3.35006
-3.49201
-3.55903
-3.60804
-3.65705
-3.7032
-3.74077
-3.76864
-3.78718
-3.80036
-3.81036
-3.8286
-3.86882
-3.96777
-4.1712
-4.54685
-2.88515
-3.13124
-3.36341
-3.50383
-3.57451
-3.62274
-3.67001
-3.71587
-3.75527
-3.78574
-3.80892
-3.82782
-3.84823
-3.87949
-3.93775
-4.04943
-4.2458
-4.55075
-2.98279
-3.16805
-3.36579
-3.50509
-3.58324
-3.63398
-3.68028
-3.72578
-3.76659
-3.80069
-3.82886
-3.85488
-3.88464
-3.92755
-3.99793
-4.11422
-4.29447
-4.54355
-3.10486
-3.22208
-3.38538
-3.51791
-3.5997
-3.65229
-3.6979
-3.743
-3.78501
-3.8218
-3.85443
-3.88673
-3.92468
-3.97686
-4.0543
-4.16935
-4.33152
-4.54075
-3.18982
-3.27225
-3.40206
-3.52506
-3.6107
-3.66704
-3.71273
-3.75746
-3.80123
-3.84175
-3.87946
-3.91797
-3.96299
-4.02185
-4.10298
-4.21419
-4.36045
-4.54024
-3.26874
-3.32784
-3.43252
-3.54221
-3.6275
-3.6869
-3.73382
-3.77819
-3.82248
-3.86568
-3.9079
-3.95197
-4.00282
-4.06631
-4.14846
-4.25428
-4.3863
-4.54252
-3.3551
-3.388
-3.46505
-3.56011
-3.64286
-3.70491
-3.75389
-3.79931
-3.84502
-3.89093
-3.93707
-3.98568
-4.04078
-4.107
-4.18877
-4.28909
-4.40894
-4.54589
-3.40516
-3.43505
-3.49945
-3.58231
-3.66192
-3.72569
-3.77658
-3.82288
-3.86963
-3.9178
-3.96769
-4.02059
-4.07929
-4.14729
-4.22779
-4.32252
-4.43163
-4.55274
-3.48356
-3.49748
-3.54319
-3.61297
-3.68593
-3.74845
-3.80054
-3.84878
-3.89747
-3.94793
-4.00028
-4.05576
-4.11661
-4.18529
-4.26379
-4.35308
-4.45273
-4.56094
-3.54919
-3.53415
-3.56908
-3.63605
-3.70702
-3.76918
-3.82299
-3.87277
-3.9228
-3.97493
-4.02984
-4.08794
-4.15051
-4.21937
-4.29585
-4.3805
-4.47262
-4.57084
-3.61604
-3.58934
-3.61335
-3.67096
-3.73545
-3.79503
-3.8491
-3.90103
-3.9532
-4.007
-4.06322
-4.12266
-4.18612
-4.25462
-4.32894
-4.40926
-4.4948
-4.58438
-3.5847
-3.61489
-3.65424
-3.70464
-3.76186
-3.82
-3.87613
-3.93021
-3.98402
-4.03947
-4.09755
-4.15866
-4.2231
-4.2913
-4.36356
-4.43985
-4.51949
-4.60141
-3.63707
-3.67526
-3.71099
-3.75115
-3.80113
-3.85694
-3.91382
-3.96997
-4.02583
-4.08305
-4.14269
-4.20494
-4.26977
-4.33723
-4.40739
-4.47998
-4.55454
-4.63028
-3.73354
-3.73299
-3.75035
-3.78748
-3.83774
-3.89419
-3.95182
-4.00902
-4.06649
-4.12549
-4.18671
-4.25005
-4.31534
-4.38238
-4.4511
-4.52106
-4.59181
-4.66253
-3.81076
-3.79051
-3.80107
-3.83702
-3.88605
-3.9405
-3.99745
-4.05564
-4.11512
-4.17637
-4.23956
-4.30436
-4.37044
-4.43759
-4.50563
-4.57426
-4.64326
-4.71226
-3.8726
-3.85421
-3.85746
-3.88871
-3.93558
-3.98919
-4.04649
-4.10612
-4.16748
-4.23058
-4.29546
-4.36181
-4.42924
-4.49753
-4.56643
-4.63576
-4.70527
-4.7748
-3.72606
-3.78459
-3.84593
-3.90393
-3.96157
-4.02129
-4.08421
-4.14962
-4.21652
-4.28438
-4.35308
-4.42263
-4.49299
-4.56407
-4.63564
-4.70745
-4.77933
-4.85122
-3.85983
-3.87092
-3.89767
-3.9411
-3.99611
-4.05714
-4.12151
-4.18808
-4.25633
-4.32615
-4.3973
-4.46943
-4.54243
-4.61611
-4.69033
-4.76496
-4.84002
-4.91544
-3.84819
-3.8398
-3.86671
-3.92451
-3.99504
-4.0658
-4.13466
-4.20383
-4.27475
-4.34758
-4.42188
-4.49706
-4.57276
-4.64889
-4.72541
-4.8023
-4.87949
-4.95694
-3.81947
-3.82653
-3.86437
-3.92563
-3.99667
-4.07005
-4.1429
-4.21508
-4.28808
-4.36281
-4.43902
-4.51604
-4.59344
-4.6712
-4.74943
-4.82807
-4.90709
-4.98643
-3.68303
-3.75953
-3.84077
-3.91675
-3.99194
-4.06753
-4.14269
-4.21797
-4.29408
-4.37131
-4.44945
-4.5281
-4.60702
-4.68628
-4.76589
-4.84587
-4.92618
-5.00683
-3.65108
-3.7164
-3.80603
-3.8991
-3.98519
-4.06398
-4.13978
-4.21639
-4.29479
-4.3743
-4.45418
-4.53406
-4.61399
-4.69415
-4.77468
-4.85559
-4.9368
-5.01812
-3.65037
-3.69652
-3.7892
-3.89356
-3.98594
-4.06576
-4.14148
-4.21889
-4.29869
-4.37944
-4.46011
-4.54059
-4.62111
-4.70184
-4.78295
-4.86443
-4.94623
-5.02833
-3.52979
-3.63362
-3.76108
-3.87829
-3.97387
-4.05466
-4.13192
-4.21156
-4.29365
-4.37622
-4.45818
-4.53951
-4.62066
-4.70204
-4.78377
-4.86581
-4.94813
-5.0306
-3.46741
-3.60861
-3.76184
-3.88399
-3.97543
-4.05344
-4.13106
-4.21221
-4.29532
-4.37819
-4.46005
-4.54133
-4.62259
-4.70411
-4.78599
-4.8682
-4.95066
-5.03325
-3.40392
-3.56066
-3.73897
-3.87234
-3.96437
-4.04255
-4.12233
-4.20576
-4.29029
-4.37391
-4.45629
-4.53798
-4.61957
-4.70132
-4.78335
-4.86565
-4.94827
-5.03137
-3.38478
-3.55931
-3.74626
-3.87461
-3.96269
-4.04092
-4.12171
-4.20568
-4.29038
-4.37408
-4.45654
-4.53829
-4.61994
-4.70174
-4.78385
-4.86607
-4.94853
-5.03094
-3.17475
-3.52709
-3.74947
-3.8695
-3.95441
-4.03445
-4.1169
-4.20155
-4.28656
-4.3705
-4.45318
-4.5351
-4.61687
-4.6987
-4.78081
-4.86287
-4.94507
-5.02653
-5.48122
-5.72823
-5.99402
-6.15157
-6.05087
-5.68797
-5.20869
-4.84639
-4.78497
-5.09024
-5.73563
-6.62985
-7.64493
-8.66075
-9.58298
-10.3457
-10.9093
-11.2573
-11.3949
-11.3436
-11.1394
-10.8256
-10.4568
-10.0802
-9.76622
-9.55676
-9.51622
-9.62534
-9.7863
-9.95493
-10.1737
-10.5287
-11.0463
-11.6302
-12.1489
-12.5519
-12.8506
-13.2994
-14.1657
-15.3784
-16.5782
-17.5682
-18.3008
-18.9202
-19.6211
-20.3287
-20.9468
-21.5065
-21.8546
-22.1166
-22.7782
-23.7572
-24.9612
-26.3378
-27.7835
-29.183
-30.4198
-31.7755
-33.3962
-35.1928
-37.0002
-38.7218
-40.2534
-41.537
-42.5353
-43.232
-43.6185
-43.6957
-43.4683
-42.9472
-42.1484
-41.0928
-39.806
-38.3166
-36.6548
-34.8512
-32.935
-30.9328
-28.8666
-26.7539
-24.6064
-22.4307
-20.2291
-18.0006
-15.7429
-13.4539
-11.1333
-8.78356
-6.41143
-4.0287
-1.65386
0.688096
2.96748
5.15253
7.21277
9.12275
10.865
12.431
13.8204
15.04
16.1012
17.0179
17.804
18.473
19.0369
19.5062
19.8896
20.195
20.4293
20.599
20.7104
20.7698
20.7829
20.7558
20.6938
20.6022
20.486
20.3498
20.1979
20.0339
19.8615
19.6837
19.5034
19.3231
19.1449
18.9707
18.8022
18.6406
18.4871
18.3423
18.2069
18.0811
17.965
17.8585
17.7613
17.6732
17.5937
17.5227
17.46
17.4054
17.3589
17.32
17.2885
17.2638
17.2452
17.2319
17.2231
17.218
17.2156
17.2151
17.2157
17.217
17.2191
17.2225
17.2277
17.2347
17.2434
17.2534
17.264
17.274
17.2826
17.289
17.2932
17.296
17.2981
17.3013
17.3072
17.3173
17.332
17.3517
17.3758
17.4054
17.4411
17.4861
17.5418
17.6149
17.7086
17.8338
18.0014
18.209
-6.58546
-6.82286
-7.01951
-7.17312
-7.05264
-6.73208
-6.38454
-6.21631
-6.35702
-6.82487
-7.56469
-8.4746
-9.44146
-10.3692
-11.1871
-11.8483
-12.3274
-12.6172
-12.7225
-12.657
-12.4436
-12.1224
-11.7437
-11.3639
-11.0326
-10.8169
-10.705
-10.7353
-10.837
-11.07
-11.607
-12.3396
-13.168
-13.9691
-14.6188
-15.1291
-15.5501
-16.0471
-16.789
-17.7983
-18.8304
-19.691
-20.3277
-20.8019
-21.3731
-21.8899
-22.5792
-23.6171
-24.1991
-24.5675
-25.2137
-26.0836
-27.1344
-28.2994
-29.4699
-30.8036
-32.1527
-33.5612
-35.1742
-36.8645
-38.5411
-40.1091
-41.4921
-42.6392
-43.5184
-44.1115
-44.4088
-44.4082
-44.1134
-43.5339
-42.6839
-41.5831
-40.255
-38.7274
-37.0305
-35.1953
-33.2519
-31.2276
-29.145
-27.0217
-24.8691
-22.6932
-20.4949
-18.2721
-16.0212
-13.7386
-11.4221
-9.07299
-6.69689
-4.30573
-1.9177
0.442116
2.74281
4.95078
7.03336
8.96308
10.7213
12.2991
13.697
14.9225
15.9884
16.9097
17.7006
18.375
18.9448
19.4203
19.8102
20.1219
20.362
20.5373
20.654
20.7181
20.7356
20.7122
20.6534
20.5647
20.4511
20.3172
20.1671
20.0048
19.8338
19.6572
19.478
19.2987
19.1214
18.9481
18.7805
18.6198
18.4672
18.3235
18.1891
18.0644
17.9494
17.844
17.7479
17.6607
17.5822
17.5121
17.4502
17.3964
17.3504
17.3121
17.2811
17.2569
17.2388
17.2259
17.2175
17.2128
17.2109
17.2111
17.2125
17.2147
17.2176
17.2218
17.2277
17.2352
17.2443
17.2543
17.2645
17.2743
17.2826
17.2891
17.2935
17.2962
17.2981
17.3011
17.3068
17.3167
17.3312
17.3503
17.3738
17.4023
17.4369
17.4797
17.5337
17.6018
17.6916
17.8018
17.9536
18.0945
-6.18025
-6.24876
-6.40275
-6.66803
-6.9739
-7.2881
-7.65396
-8.15922
-8.85121
-9.70613
-10.6587
-11.6308
-12.5544
-13.3779
-14.0638
-14.5869
-14.9339
-15.1019
-15.0998
-14.9495
-14.6804
-14.322
-13.9088
-13.487
-13.0809
-12.7659
-12.548
-12.4547
-12.55
-12.8537
-13.3751
-14.0835
-14.9374
-15.8189
-16.6349
-17.3151
-17.9817
-18.7636
-19.6746
-20.6713
-21.5369
-22.1573
-22.4892
-22.8764
-23.5633
-24.3722
-25.1658
-26.0717
-26.9081
-27.6267
-28.3761
-29.1832
-30.0596
-31.0284
-32.1114
-33.3141
-34.6744
-36.1461
-37.6846
-39.2147
-40.6841
-42.0337
-43.2181
-44.1974
-44.9414
-45.4266
-45.6367
-45.5617
-45.1991
-44.5533
-43.6369
-42.4692
-41.0745
-39.4816
-37.7225
-35.8301
-33.8366
-31.7713
-29.6584
-27.516
-25.3554
-23.1813
-20.993
-18.7857
-16.5525
-14.2865
-11.9826
-9.63949
-7.26118
-4.85731
-2.44541
-0.0515897
2.29057
4.54346
6.67006
8.63901
10.4291
12.0309
13.4457
14.6836
15.7594
16.6897
17.4904
18.1755
18.7569
19.2446
19.6469
19.9706
20.2226
20.4091
20.5362
20.6098
20.6358
20.6201
20.5683
20.4857
20.3775
20.2482
20.1023
19.9435
19.7756
19.6019
19.4252
19.2483
19.0732
18.9021
18.7366
18.5781
18.4277
18.2862
18.1541
18.0317
17.9191
17.8161
17.7223
17.6375
17.5612
17.4931
17.433
17.3809
17.3365
17.2996
17.2699
17.2468
17.2298
17.2181
17.2108
17.2071
17.2063
17.2075
17.2102
17.2139
17.2184
17.2241
17.2308
17.2386
17.2473
17.2566
17.2661
17.275
17.2827
17.2887
17.2932
17.2965
17.2995
17.3035
17.3096
17.3192
17.3326
17.3499
17.3714
17.3974
17.4293
17.4678
17.5168
17.576
17.6539
17.7414
17.8563
17.9379
-6.17392
-6.17021
-6.40142
-6.9134
-7.67584
-8.58796
-9.56365
-10.5668
-11.5961
-12.6224
-13.6126
-14.5318
-15.3483
-16.0377
-16.5815
-16.9696
-17.2009
-17.2818
-17.2244
-17.0452
-16.7674
-16.4172
-16.0191
-15.6108
-15.2368
-14.9096
-14.6631
-14.506
-14.4671
-14.5728
-14.8461
-15.292
-15.8882
-16.5669
-17.2655
-17.9773
-18.8064
-19.8466
-21.0368
-22.1876
-23.1377
-23.8628
-24.3419
-24.8355
-25.5703
-26.5257
-27.5881
-28.6595
-29.6655
-30.5889
-31.4312
-32.227
-33.0402
-33.9557
-35.0314
-36.2552
-37.6017
-39.0035
-40.4114
-41.7773
-43.0655
-44.2383
-45.2622
-46.1023
-46.7286
-47.1139
-47.2364
-47.0801
-46.6386
-45.914
-44.9162
-43.6634
-42.1809
-40.4999
-38.6551
-36.683
-34.6195
-32.4971
-30.3422
-28.1743
-26.0046
-23.8367
-21.6671
-19.487
-17.2848
-15.0488
-12.7699
-10.4427
-8.06751
-5.65167
-3.21067
-0.771131
1.62964
3.94789
6.13964
8.16692
10.0037
11.6393
13.0776
14.3322
15.4216
16.3651
17.18
17.8809
18.4796
18.9855
19.4062
19.7484
20.0181
20.2211
20.3634
20.4509
20.4896
20.4853
20.4436
20.3701
20.2698
20.1474
20.0075
19.8541
19.6909
19.5213
19.3484
19.1748
19.003
18.835
18.6726
18.5172
18.3699
18.2316
18.1029
17.9839
17.8748
17.7753
17.6851
17.6037
17.5306
17.4655
17.4082
17.3586
17.3166
17.282
17.2545
17.2334
17.2182
17.208
17.2019
17.1993
17.1996
17.2021
17.2062
17.2111
17.2169
17.2235
17.2309
17.2391
17.248
17.2571
17.2661
17.2746
17.2821
17.2882
17.293
17.2968
17.3002
17.3044
17.3104
17.3191
17.3313
17.347
17.3666
17.3901
17.4189
17.4531
17.4962
17.5466
17.6109
17.6784
17.7585
17.7991
-6.11271
-6.34874
-6.95975
-7.94453
-9.12322
-10.3604
-11.5984
-12.7925
-13.9231
-14.9769
-15.9492
-16.8281
-17.5941
-18.225
-18.7045
-19.0268
-19.1982
-19.233
-19.1506
-18.9675
-18.696
-18.3565
-17.9862
-17.6206
-17.2891
-17.0106
-16.7913
-16.6275
-16.5137
-16.4499
-16.4474
-16.5253
-16.7046
-17.0012
-17.4293
-18.025
-18.8547
-19.9521
-21.2072
-22.4503
-23.5381
-24.4722
-25.2966
-26.1353
-27.103
-28.2449
-29.51
-30.7986
-32.0433
-33.199
-34.2264
-35.1366
-36.0096
-36.9679
-38.0682
-39.2869
-40.5772
-41.8801
-43.1632
-44.3944
-45.5482
-46.5952
-47.5051
-48.2442
-48.7798
-49.0817
-49.1255
-48.8918
-48.3696
-47.5573
-46.4634
-45.1064
-43.5139
-41.7199
-39.7634
-37.6862
-35.5295
-33.3303
-31.1188
-28.9161
-26.7337
-24.5735
-22.4289
-20.2866
-18.1299
-15.9421
-13.7086
-11.4187
-9.06638
-6.65303
-4.19144
-1.70709
0.760623
3.16086
5.43932
7.54668
9.44828
11.1298
12.5981
13.8729
14.9782
15.9376
16.7704
17.4918
18.1134
18.6439
19.0897
19.4564
19.7493
19.9738
20.1358
20.2412
20.2959
20.306
20.2772
20.215
20.1246
20.0111
19.8789
19.7324
19.5754
19.4114
19.2437
19.075
18.9078
18.7443
18.5863
18.4352
18.2923
18.1585
18.0342
17.9199
17.8153
17.7204
17.6347
17.5577
17.4889
17.4279
17.3744
17.3283
17.2895
17.2578
17.2331
17.2147
17.202
17.1941
17.1904
17.19
17.1922
17.1962
17.2016
17.208
17.215
17.2227
17.231
17.2398
17.2488
17.2579
17.2667
17.2749
17.2822
17.2882
17.2929
17.2968
17.3006
17.305
17.311
17.3193
17.3304
17.3444
17.3618
17.3825
17.4077
17.4372
17.4736
17.5151
17.5652
17.6145
17.6641
17.6756
-6.46061
-7.09967
-8.24839
-9.53683
-10.8941
-12.2569
-13.5633
-14.8005
-15.9775
-17.0942
-18.141
-19.0936
-19.9227
-20.6002
-21.107
-21.4392
-21.6043
-21.6185
-21.5033
-21.2823
-20.9788
-20.6203
-20.2398
-19.869
-19.5366
-19.2591
-19.0368
-18.8561
-18.6951
-18.5353
-18.371
-18.2185
-18.1218
-18.147
-18.3571
-18.8302
-19.5931
-20.6515
-21.9032
-23.212
-24.4591
-25.6064
-26.6893
-27.7721
-28.9248
-30.2009
-31.5817
-33.0096
-34.4224
-35.7496
-36.9414
-38.0057
-39.0026
-40.0283
-41.1337
-42.3148
-43.5359
-44.7547
-45.9462
-47.0866
-48.1535
-49.1182
-49.95
-50.6154
-51.0809
-51.3145
-51.2896
-50.9833
-50.3799
-49.4734
-48.2707
-46.7923
-45.0681
-43.1364
-41.0418
-38.8325
-36.5566
-34.2575
-31.9695
-29.7158
-27.5078
-25.3458
-23.2199
-21.1136
-19.0061
-16.8762
-14.7035
-12.4713
-10.1678
-7.78657
-5.33105
-2.82158
-0.296217
2.18829
4.5656
6.77081
8.75637
10.501
12.0112
13.3136
14.4401
15.4193
16.2744
17.0215
17.6719
18.2327
18.7091
19.1052
19.4257
19.6758
19.8612
19.9878
20.0618
20.089
20.0755
20.0268
19.9485
19.8456
19.723
19.585
19.4358
19.2789
19.1178
18.9553
18.794
18.6361
18.4835
18.3379
18.2003
18.0717
17.9527
17.8435
17.7443
17.6546
17.574
17.5021
17.4382
17.3819
17.3329
17.2912
17.2566
17.2289
17.2079
17.193
17.1834
17.1784
17.1773
17.1792
17.1835
17.1895
17.1967
17.2047
17.2131
17.2219
17.231
17.2403
17.2497
17.2588
17.2674
17.2754
17.2824
17.2883
17.2931
17.2972
17.3011
17.3056
17.3114
17.319
17.3288
17.341
17.3559
17.3736
17.3949
17.4195
17.449
17.4816
17.5182
17.5509
17.5758
17.5658
-8.34621
-9.08239
-10.2402
-11.4769
-12.7415
-14.0269
-15.3065
-16.5623
-17.7955
-18.9988
-20.1442
-21.1945
-22.1127
-22.8649
-23.4315
-23.8089
-24.0075
-24.0483
-23.9554
-23.7507
-23.4556
-23.096
-22.7045
-22.316
-21.9602
-21.6542
-21.4013
-21.1903
-21.0005
-20.8072
-20.5939
-20.3654
-20.1613
-20.0717
-20.1941
-20.6352
-21.3976
-22.4528
-23.7259
-25.1082
-26.4855
-27.8027
-29.0607
-30.2954
-31.5591
-32.8912
-34.2927
-35.7362
-37.1694
-38.5355
-39.7961
-40.9542
-42.038
-43.1057
-44.2045
-45.3459
-46.5109
-47.6745
-48.8144
-49.9074
-50.927
-51.8424
-52.6224
-53.2356
-53.6497
-53.8323
-53.7521
-53.3817
-52.6989
-51.6952
-50.3776
-48.7664
-46.895
-44.8066
-42.5528
-40.1898
-37.7732
-35.3526
-32.9663
-30.6396
-28.3843
-26.1993
-24.0722
-21.9835
-19.9103
-17.8271
-15.7094
-13.5364
-11.292
-8.96348
-6.5431
-4.03816
-1.48009
1.07295
3.54392
5.85161
7.93078
9.75033
11.3143
12.6545
13.8105
14.8175
15.7022
16.4817
17.1669
17.7634
18.2746
18.7038
19.0555
19.3345
19.5465
19.6972
19.7929
19.8396
19.8433
19.8099
19.7451
19.6543
19.5424
19.4141
19.2737
19.125
18.9715
18.8161
18.6616
18.5102
18.3639
18.2244
18.0928
17.9701
17.8568
17.7534
17.6598
17.5759
17.501
17.4348
17.3765
17.3258
17.2823
17.2458
17.2163
17.1935
17.1771
17.1665
17.161
17.1597
17.1618
17.1667
17.1737
17.1821
17.1914
17.2011
17.2111
17.2211
17.2311
17.2411
17.2508
17.26
17.2685
17.2763
17.2832
17.2889
17.2937
17.2977
17.3017
17.306
17.3114
17.3182
17.3266
17.3369
17.3494
17.364
17.3812
17.4008
17.4234
17.4472
17.4714
17.4893
17.4945
17.4676
-10.6128
-11.2144
-12.0596
-13.085
-14.2331
-15.4477
-16.6855
-17.9296
-19.1894
-20.4503
-21.6706
-22.8057
-23.8136
-24.6591
-25.3203
-25.7909
-26.0798
-26.2051
-26.1867
-26.0414
-25.7882
-25.4525
-25.068
-24.6702
-24.2906
-23.9518
-23.6639
-23.4252
-23.2223
-23.0336
-22.8401
-22.6422
-22.4736
-22.4298
-22.6277
-23.1523
-23.9979
-25.1338
-26.4986
-27.9911
-29.5008
-30.9679
-32.3719
-33.7213
-35.0436
-36.368
-37.7111
-39.0697
-40.4098
-41.702
-42.9275
-44.0781
-45.1591
-46.2086
-47.2736
-48.3751
-49.5035
-50.6387
-51.7584
-52.8359
-53.8396
-54.7357
-55.4933
-56.0827
-56.472
-56.6246
-56.503
-56.0761
-55.3191
-54.2199
-52.7838
-51.032
-49.0023
-46.745
-44.321
-41.7963
-39.2353
-36.6922
-34.2052
-31.7964
-29.475
-27.2391
-25.0769
-22.9698
-20.8946
-18.8241
-16.732
-14.5958
-12.3984
-10.1225
-7.74938
-5.2725
-2.70996
-0.114902
2.42916
4.82672
6.99553
8.89277
10.5185
11.9056
13.1007
14.1448
15.0679
15.8872
16.6128
17.2488
17.7977
18.2626
18.6475
18.9575
19.1979
19.3747
19.4938
19.5614
19.5836
19.5666
19.5162
19.4382
19.338
19.2203
19.0898
18.9502
18.8054
18.6582
18.5115
18.3676
18.2285
18.0959
17.9709
17.8547
17.7478
17.6505
17.563
17.485
17.4162
17.3559
17.3038
17.2593
17.2221
17.1919
17.1685
17.1516
17.1409
17.1356
17.1349
17.1382
17.1443
17.1528
17.1628
17.174
17.1857
17.1975
17.2092
17.2205
17.2315
17.2421
17.2522
17.2616
17.27
17.2776
17.2843
17.2899
17.2945
17.2984
17.3021
17.3062
17.3111
17.3169
17.324
17.3324
17.3423
17.3537
17.3669
17.3814
17.3972
17.4126
17.4256
17.4304
17.4198
17.3794
-12.2031
-12.6431
-13.327
-14.2262
-15.2735
-16.4079
-17.5938
-18.8199
-20.0962
-21.3973
-22.6715
-23.8752
-24.9656
-25.9046
-26.6681
-27.2472
-27.6469
-27.8787
-27.9536
-27.8835
-27.6866
-27.3905
-27.0297
-26.6393
-26.2529
-25.8981
-25.5921
-25.3418
-25.1422
-24.9793
-24.84
-24.73
-24.6849
-24.7987
-25.1801
-25.8799
-26.8949
-28.1954
-29.7219
-31.3737
-33.0513
-34.6901
-36.249
-37.7136
-39.0864
-40.3856
-41.6481
-42.885
-44.0746
-45.2193
-46.3239
-47.3719
-48.3625
-49.3366
-50.3436
-51.4017
-52.5012
-53.6191
-54.7306
-55.8055
-56.8099
-57.7095
-58.4718
-59.0637
-59.4492
-59.5876
-59.4358
-58.9564
-58.1245
-56.9283
-55.3726
-53.4796
-51.2922
-48.868
-46.2769
-43.5965
-40.9021
-38.2525
-35.6802
-33.1968
-30.8055
-28.5051
-26.2866
-24.1321
-22.019
-19.9203
-17.8119
-15.6743
-13.4927
-11.2496
-8.91895
-6.4785
-3.92956
-1.31623
1.27718
3.74429
5.98886
7.95722
9.64598
11.0864
12.3295
13.42
14.3891
15.2538
16.0228
16.6998
17.2873
17.7884
18.2074
18.5493
18.8195
19.0234
19.1671
19.2565
19.2981
19.2981
19.263
19.1987
19.1108
19.0046
18.8848
18.7553
18.62
18.4819
18.3439
18.2083
18.0771
17.9519
17.8341
17.7247
17.6244
17.5335
17.4522
17.3805
17.3179
17.2642
17.2188
17.1812
17.1511
17.1281
17.1119
17.1021
17.0981
17.0992
17.1045
17.113
17.124
17.1366
17.1503
17.1646
17.179
17.1932
17.2069
17.2198
17.2319
17.2433
17.2538
17.2633
17.2717
17.2791
17.2855
17.2909
17.2953
17.299
17.3025
17.3061
17.3103
17.3151
17.3208
17.3273
17.3347
17.3429
17.352
17.3615
17.3709
17.3783
17.3813
17.3747
17.3513
17.2999
-13.195
-13.5475
-14.135
-14.9493
-15.9297
-17.0215
-18.1805
-19.3939
-20.6667
-21.9762
-23.277
-24.5291
-25.6883
-26.7116
-27.5695
-28.2474
-28.744
-29.0631
-29.2115
-29.1993
-29.0478
-28.7863
-28.4489
-28.0708
-27.6877
-27.331
-27.023
-26.7769
-26.5945
-26.4716
-26.4067
-26.4174
-26.5517
-26.8891
-27.5109
-28.4466
-29.6902
-31.2111
-32.9457
-34.7954
-36.6696
-38.496
-40.2214
-41.8144
-43.2577
-44.5574
-45.76
-46.8774
-47.9058
-48.8782
-49.8237
-50.7268
-51.5954
-52.4759
-53.4141
-54.423
-55.4887
-56.5857
-57.6859
-58.7561
-59.7637
-60.6741
-61.4514
-62.057
-62.4483
-62.578
-62.3983
-61.8676
-60.9596
-59.666
-57.995
-55.9722
-53.6426
-51.068
-48.3264
-45.5082
-42.7013
-39.9701
-37.3387
-34.8025
-32.3529
-29.9869
-27.7012
-25.4831
-23.3116
-21.1594
-19.0046
-16.8302
-14.625
-12.3765
-10.0597
-7.64172
-5.1083
-2.49052
0.131514
2.64746
4.95165
6.98071
8.7287
10.2243
11.5204
12.6628
13.6817
14.5936
15.4064
16.1239
16.7492
17.2861
17.7392
18.1136
18.4141
18.6461
18.815
18.9271
18.9887
19.0066
18.9874
18.9376
18.8629
18.7689
18.6603
18.5416
18.4164
18.2879
18.1591
18.0322
17.9093
17.7921
17.6819
17.5797
17.4863
17.4021
17.3275
17.2624
17.2068
17.1601
17.1221
17.0923
17.0702
17.0554
17.0474
17.0456
17.0493
17.0576
17.0697
17.0844
17.1009
17.1184
17.1363
17.1542
17.1716
17.1883
17.2042
17.2188
17.2322
17.2444
17.2553
17.265
17.2733
17.2805
17.2867
17.2919
17.2961
17.2996
17.3027
17.3059
17.3092
17.3129
17.3171
17.3216
17.3266
17.3317
17.3369
17.3416
17.3449
17.345
17.3391
17.3224
17.2885
17.2282
-13.7665
-14.0786
-14.6526
-15.4615
-16.4463
-17.5532
-18.7394
-19.9847
-21.2842
-22.6167
-23.9457
-25.2319
-26.4325
-27.5047
-28.4159
-29.1462
-29.6867
-30.0341
-30.1916
-30.1735
-30.0073
-29.7281
-29.3729
-28.9787
-28.581
-28.2115
-27.896
-27.6532
-27.4923
-27.42
-27.4482
-27.6028
-27.9365
-28.5157
-29.3943
-30.5833
-32.0703
-33.8195
-35.7649
-37.816
-39.8869
-41.9012
-43.7986
-45.5341
-47.0743
-48.4133
-49.5897
-50.6135
-51.5131
-52.3477
-53.165
-53.9527
-54.7259
-55.5303
-56.408
-57.368
-58.3962
-59.4686
-60.5537
-61.6155
-62.6216
-63.5369
-64.3223
-64.9325
-65.3171
-65.4223
-65.1975
-64.6016
-63.6107
-62.2228
-60.4523
-58.3261
-55.8884
-53.2025
-50.3509
-47.4326
-44.5472
-41.7655
-39.1051
-36.5466
-34.0652
-31.6509
-29.3039
-27.0208
-24.784
-22.5671
-20.3464
-18.1067
-15.8414
-13.5457
-11.2014
-8.77352
-6.23752
-3.61418
-0.972513
1.57715
3.92349
5.99935
7.79758
9.34531
10.6942
11.8891
12.958
13.9163
14.7711
15.5269
16.1882
16.7597
17.2464
17.6531
17.9844
18.2448
18.4396
18.5748
18.657
18.6933
18.6905
18.6555
18.5945
18.5132
18.4165
18.3088
18.1942
18.0758
17.9565
17.8388
17.7247
17.6159
17.5137
17.4193
17.3333
17.2565
17.1892
17.1316
17.0835
17.0448
17.015
16.9937
16.9805
16.9747
16.9758
16.9829
16.9951
17.0115
17.031
17.0525
17.0752
17.0982
17.1209
17.1427
17.1635
17.1829
17.201
17.2175
17.2323
17.2454
17.2568
17.2667
17.275
17.2819
17.2878
17.2928
17.2968
17.3
17.3029
17.3055
17.308
17.3105
17.3132
17.3158
17.3182
17.3204
17.3218
17.3219
17.3196
17.3129
17.299
17.2737
17.231
17.1634
-14.2456
-14.5646
-15.1732
-16.0452
-17.1286
-18.3638
-19.6915
-21.0669
-22.4658
-23.8613
-25.2233
-26.5162
-27.7033
-28.7477
-29.6188
-30.2945
-30.7613
-31.0171
-31.0733
-30.9532
-30.6899
-30.3224
-29.8902
-29.4311
-28.9803
-28.5699
-28.2278
-27.9769
-27.833
-27.8113
-27.9325
-28.2275
-28.746
-29.5395
-30.6378
-32.0403
-33.7304
-35.6704
-37.7954
-40.0223
-42.2659
-44.4466
-46.4978
-48.3691
-50.0245
-51.4424
-52.6319
-53.621
-54.4645
-55.2468
-56.0213
-56.7722
-57.516
-58.2951
-59.1478
-60.0821
-61.0878
-62.1445
-63.2178
-64.2682
-65.2622
-66.1659
-66.9377
-67.5263
-67.8738
-67.9229
-67.6244
-66.9416
-65.8558
-64.3732
-62.5187
-60.3234
-57.8269
-55.0887
-52.1908
-49.2356
-46.3269
-43.5391
-40.8861
-38.3379
-35.8549
-33.4165
-31.0269
-28.6915
-26.3979
-24.1181
-21.8247
-19.5034
-17.1539
-14.7794
-12.3696
-9.89379
-7.32546
-4.67938
-2.01512
0.558616
2.93075
5.0374
6.87393
8.46733
9.86621
11.1117
12.2287
13.2305
14.1241
14.9153
15.61
16.2142
16.7332
17.1714
17.5329
17.8216
18.0423
18.2008
18.3038
18.3586
18.3725
18.3527
18.3056
18.2373
18.1529
18.0569
17.9533
17.8454
17.7362
17.6281
17.5233
17.4234
17.3299
17.2439
17.1663
17.0978
17.0387
16.9894
16.9499
16.92
16.8993
16.8875
16.8839
16.8878
16.8985
16.9151
16.9364
16.9614
16.9889
17.0177
17.047
17.0761
17.104
17.1303
17.1547
17.1771
17.1976
17.2161
17.2324
17.2465
17.2585
17.2686
17.2768
17.2836
17.2892
17.2939
17.2976
17.3007
17.3032
17.3052
17.3069
17.3082
17.3092
17.3099
17.31
17.3092
17.307
17.3028
17.2952
17.2823
17.2614
17.2285
17.1785
17.1048
-14.8404
-15.2003
-15.9153
-16.956
-18.2614
-19.7473
-21.3251
-22.9185
-24.4756
-25.9619
-27.3487
-28.6063
-29.7045
-30.6145
-31.3147
-31.7935
-32.0481
-32.0868
-31.9314
-31.6128
-31.1688
-30.6412
-30.0709
-29.4948
-28.9476
-28.4619
-28.0679
-27.7916
-27.6526
-27.6678
-27.857
-28.2512
-28.8935
-29.8234
-31.0586
-32.597
-34.4215
-36.4931
-38.7462
-41.0987
-43.465
-45.7677
-47.9387
-49.9251
-51.7054
-53.2344
-54.492
-55.5244
-56.4135
-57.2436
-58.0716
-58.8824
-59.6829
-60.5089
-61.3961
-62.3524
-63.3718
-64.4366
-65.5098
-66.5482
-67.5182
-68.3887
-69.1185
-69.653
-69.9307
-69.8964
-69.5052
-68.7239
-67.5383
-65.9641
-64.046
-61.8157
-59.31
-56.5813
-53.7059
-50.7827
-47.9136
-45.1758
-42.5786
-40.0804
-37.6281
-35.1924
-32.7797
-30.4053
-28.0674
-25.7356
-23.373
-20.9648
-18.5205
-16.051
-13.5522
-11.0002
-8.373
-5.68494
-2.9933
-0.40383
1.97912
4.10332
5.9678
7.60131
9.0472
10.3406
11.5023
12.5434
13.4718
14.2951
15.0205
15.6551
16.2043
16.6724
17.0627
17.3786
17.6245
17.8058
17.9295
18.0029
18.0337
18.0292
17.9965
17.9415
17.8697
17.7857
17.6935
17.5967
17.4983
17.4006
17.3059
17.2158
17.132
17.0555
16.9873
16.9281
16.8784
16.8385
16.8084
16.788
16.7772
16.7753
16.7819
16.796
16.8168
16.8432
16.874
16.9079
16.9437
16.9803
17.0167
17.052
17.0856
17.1167
17.1451
17.1707
17.1938
17.2142
17.2321
17.2474
17.2602
17.2706
17.279
17.2857
17.2911
17.2954
17.2989
17.3016
17.3037
17.3051
17.3059
17.306
17.3055
17.3042
17.3019
17.2983
17.2927
17.2844
17.2719
17.2535
17.2263
17.1869
17.1306
17.0519
-15.5934
-16.0305
-16.913
-18.1982
-19.8
-21.5918
-23.4451
-25.2547
-26.9466
-28.477
-29.8186
-30.9565
-31.8777
-32.5735
-33.0426
-33.2915
-33.3259
-33.1457
-32.7599
-32.1982
-31.5077
-30.7457
-29.966
-29.2132
-28.5235
-27.9271
-27.4498
-27.1157
-26.9459
-26.9565
-27.1642
-27.5948
-28.2849
-29.2668
-30.5581
-32.1582
-34.0462
-36.1779
-38.4873
-40.8957
-43.3237
-45.6986
-47.9583
-50.0441
-51.9433
-53.6123
-55.0066
-56.1575
-57.1737
-58.1353
-59.1012
-60.0581
-61.0003
-61.9503
-62.936
-63.9662
-65.0375
-66.1337
-67.2192
-68.2483
-69.1872
-70.0086
-70.6743
-71.1317
-71.3233
-71.197
-70.7117
-69.8363
-68.5584
-66.9071
-64.9517
-62.7339
-60.277
-57.6179
-54.8257
-51.9927
-49.2191
-46.5826
-44.0852
-41.6748
-39.2854
-36.8806
-34.463
-32.0555
-29.6803
-27.3084
-24.8899
-22.4058
-19.8736
-17.3105
-14.7162
-12.0745
-9.37276
-6.63204
-3.91381
-1.31888
1.06496
3.1982
5.08524
6.75591
8.2461
9.58338
10.7844
11.8599
12.8191
13.6711
14.4247
15.0871
15.6643
16.1601
16.5774
16.9188
17.1884
17.3915
17.535
17.6266
17.674
17.6851
17.6668
17.6255
17.5668
17.4955
17.4157
17.331
17.2444
17.1584
17.0751
16.9962
16.9232
16.8572
16.7993
16.7502
16.7103
16.6802
16.6599
16.6496
16.649
16.6576
16.6747
16.6994
16.7308
16.7675
16.8082
16.8516
16.8962
16.941
16.9847
17.0266
17.0659
17.1021
17.1347
17.1637
17.1895
17.2121
17.2316
17.2482
17.2618
17.2727
17.2813
17.288
17.2933
17.2974
17.3006
17.303
17.3045
17.3053
17.3051
17.304
17.3019
17.2988
17.2942
17.2879
17.2791
17.267
17.2501
17.2265
17.1939
17.1487
17.0871
17.0041
-16.2176
-16.7347
-17.789
-19.3071
-21.1732
-23.2238
-25.3007
-27.2703
-29.05
-30.5972
-31.9024
-32.9711
-33.7974
-34.3639
-34.6609
-34.6983
-34.4999
-34.0722
-33.4199
-32.5717
-31.5851
-30.5367
-29.4993
-28.5276
-27.6588
-26.9171
-26.3199
-25.8846
-25.6336
-25.5881
-25.7635
-26.1774
-26.8577
-27.8322
-29.1235
-30.7311
-32.6252
-34.7562
-37.0597
-39.465
-41.9018
-44.3014
-46.6111
-48.7797
-50.7811
-52.5977
-54.1718
-55.5122
-56.71
-57.8578
-59.0194
-60.1871
-61.3367
-62.473
-63.6127
-64.7623
-65.9186
-67.0679
-68.1773
-69.2026
-70.1091
-70.8734
-71.466
-71.8413
-71.9478
-71.7394
-71.1798
-70.2427
-68.9236
-67.2522
-65.3154
-63.1507
-60.7727
-58.2134
-55.5414
-52.8421
-50.2033
-47.7025
-45.3339
-43.0347
-40.7319
-38.3792
-35.9719
-33.541
-31.135
-28.7362
-26.2839
-23.7448
-21.144
-18.5003
-15.8151
-13.0818
-10.3033
-7.51241
-4.77785
-2.1878
0.188794
2.32617
4.23395
5.93917
7.46918
8.84423
10.0784
11.1831
12.1694
13.0475
13.8266
14.5146
15.1173
15.6386
16.0806
16.4454
16.7364
16.9592
17.1209
17.2296
17.2934
17.32
17.3168
17.2901
17.2458
17.1887
17.1228
17.0517
16.9784
16.9053
16.8344
16.7674
16.7057
16.6507
16.6032
16.5641
16.5341
16.5137
16.5034
16.5033
16.5131
16.5326
16.5608
16.5969
16.6396
16.6874
16.7389
16.7925
16.8467
16.9001
16.9515
17.0001
17.0454
17.0867
17.1238
17.1564
17.1849
17.2097
17.2309
17.2488
17.2633
17.2749
17.2839
17.2907
17.2959
17.2999
17.3028
17.3047
17.3057
17.3056
17.3045
17.3022
17.2986
17.2937
17.287
17.2781
17.2663
17.2506
17.2297
17.2016
17.164
17.1139
17.0477
16.9612
-16.1307
-16.7296
-17.9237
-19.6246
-21.711
-23.9914
-26.2915
-28.4615
-30.4108
-32.0961
-33.5032
-34.6255
-35.4389
-35.8983
-35.9804
-35.7088
-35.1513
-34.3634
-33.3726
-32.2105
-30.9324
-29.6152
-28.335
-27.1491
-26.0937
-25.1917
-24.4597
-23.9107
-23.5682
-23.4633
-23.6078
-24.0033
-24.6626
-25.6132
-26.8826
-28.4657
-30.323
-32.4046
-34.653
-37.0096
-39.4151
-41.8066
-44.1322
-46.3544
-48.4414
-50.3887
-52.1531
-53.7223
-55.1438
-56.5128
-57.8921
-59.2969
-60.6911
-62.0553
-63.3869
-64.6872
-65.951
-67.1668
-68.3093
-69.3397
-70.224
-70.9391
-71.4633
-71.7659
-71.804
-71.5397
-70.9446
-70.0011
-68.7071
-67.0859
-65.2097
-63.1249
-60.8438
-58.4017
-55.8816
-53.351
-50.87
-48.5181
-46.2875
-44.109
-41.9064
-39.6243
-37.2551
-34.8238
-32.3971
-29.9836
-27.5117
-24.9369
-22.2821
-19.5682
-16.7992
-13.9817
-11.1402
-8.3192
-5.5883
-3.01925
-0.659248
1.47878
3.40555
5.14154
6.70501
8.11082
9.3724
10.5027
11.5137
12.4161
13.2191
13.9307
14.5568
15.1011
15.5653
15.9508
16.2608
16.5012
16.6798
16.8051
16.8855
16.9289
16.9424
16.9325
16.9046
16.8636
16.8135
16.7575
16.6985
16.639
16.5809
16.526
16.4757
16.4314
16.3941
16.3649
16.3447
16.3342
16.3341
16.3445
16.3654
16.3964
16.4368
16.4853
16.5406
16.601
16.6646
16.7298
16.7946
16.8574
16.9172
16.973
17.0244
17.071
17.1125
17.1489
17.1803
17.2073
17.2303
17.2494
17.2649
17.2772
17.2866
17.2937
17.2989
17.3027
17.3053
17.3067
17.3071
17.3062
17.3041
17.3006
17.2956
17.2889
17.2802
17.269
17.2544
17.2354
17.2108
17.1787
17.1368
17.0824
17.0122
16.9226
-14.777
-15.5037
-16.8408
-18.7183
-21.0217
-23.5569
-26.1383
-28.5778
-30.7472
-32.5675
-34.0087
-35.062
-35.7234
-35.9667
-35.773
-35.1859
-34.3067
-33.2359
-32.0064
-30.6336
-29.1638
-27.6695
-26.226
-24.8909
-23.7017
-22.6828
-21.8544
-21.2356
-20.8543
-20.7425
-20.9083