/*--------------------------------*- C++ -*----------------------------------*\
  =========                 |
  \\      /  F ield         | OpenFOAM: The Open Source CFD Toolbox
   \\    /   O peration     | Website:  https://openfoam.org
    \\  /    A nd           | Version:  9
     \\/     M anipulation  |
\*---------------------------------------------------------------------------*/
FoamFile
{
    format      ascii;
    class       volScalarField;
    location    "0.049";
    object      pPrime2Mean;
}
// * * * * * * * * * * * * * * * * * * * * * * * * * * * * * * * * * * * * * //

dimensions      [0 4 -4 0 0 0 0];

internalField   nonuniform List<scalar> 
12225
(
296907
294153
290955
287476
283832
280110
276368
272642
268953
265314
261726
258186
254682
251194
247687
244106
240330
236085
296933
294181
290978
287494
283847
280123
276379
272652
268964
265325
261738
258200
254699
251215
247718
244156
240432
236378
297012
294245
291029
287535
283881
280151
276404
272675
268986
265348
261764
258230
254736
251264
247787
244263
240630
236833
297127
294350
291114
287603
283937
280199
276446
272713
269024
265387
261806
258279
254796
251343
247897
244431
240916
237367
297304
294509
291240
287704
284019
280268
276507
272770
269079
265444
261869
258352
254885
251457
248053
244659
241272
237941
297604
294729
291413
287843
284133
280364
276591
272848
269155
265522
261955
258450
255004
251609
248256
244942
241683
238536
297986
295024
291644
288027
284283
280491
276703
272951
269255
265625
262067
258578
255158
251801
248505
245277
242138
239143
298480
295402
291940
288264
284476
280654
276845
273082
269382
265756
262208
258739
255347
252033
248799
245656
242627
239758
299141
295883
292313
288559
284717
280857
277023
273246
269541
265918
262382
258934
255575
252307
249136
246074
243145
240380
299894
296467
292769
288922
285013
281105
277241
273446
269734
266114
262591
259166
255842
252622
249513
246527
243685
241008
300793
297176
293323
289361
285369
281404
277503
273685
269965
266348
262838
259437
256148
252976
249926
247011
244244
241641
301747
297954
293931
289840
285756
281729
277786
273944
270213
266597
263099
259721
256465
253334
250336
247478
244772
242227
302956
298851
294618
290381
286193
282095
278105
274236
270492
266876
263389
260032
256807
253717
250765
247960
245306
242810
304541
300040
295523
291088
286764
282572
278520
274614
270852
267234
263759
260425
257233
254185
251282
248529
245927
243479
306695
301590
296694
291999
287497
283183
279053
275098
271313
267690
264225
260914
257757
254750
251895
249192
246640
244237
309411
303590
298185
293148
288415
283949
279720
275706
271889
268257
264800
261512
258386
255420
252610
249954
247447
245085
312691
305970
299941
294503
289504
284864
280521
276438
272585
268940
265489
262220
259124
256195
253425
250809
248341
246016
316605
308555
301814
295948
290678
285864
281413
277264
273376
269720
266275
263024
259955
257057
254321
251740
249306
247010
319487
310504
303268
297127
291694
286781
282271
278091
274191
270538
267107
263877
260834
257966
255261
252710
250303
248032
317935
310037
303264
297347
292042
287207
282749
278609
274742
271119
267715
264512
261495
258652
255970
253440
251052
248798
315895
308873
302677
297106
292015
287315
282948
278871
275051
271464
268089
264911
261916
259091
256426
253910
251535
249291
313723
307594
301942
296714
291841
287286
283016
279007
275236
271686
268340
265184
262208
259398
256746
254242
251876
249640
311768
306408
301226
296299
291624
287200
283020
279073
275346
271827
268506
265370
262408
259612
256970
254474
252115
249885
310384
305487
300641
295944
291424
287106
282998
279101
275410
271918
268616
265495
262545
259758
257124
254634
252281
250055
309357
304780
300188
295665
291262
287024
282970
279111
275447
271975
268688
265578
262638
259858
257229
254744
252394
250171
308549
304255
299858
295461
291142
286960
282946
279114
275470
272012
268735
265633
262699
259924
257299
254817
252469
250249
307925
303886
299629
295319
291058
286915
282927
279114
275483
272034
268764
265668
262738
259966
257344
254864
252518
250299
307436
303639
299483
295231
291006
286887
282915
279113
275490
272047
268782
265689
262761
259991
257371
254892
252547
250329
307181
303500
299402
295182
290977
286871
282908
279113
275494
272054
268791
265700
262774
260005
257385
254908
252563
250345
307055
303442
299369
295162
290965
286864
282906
279112
275495
272057
268795
265705
262779
260011
257391
254914
252570
250352
199950
199929
199892
199839
199773
199697
199610
199507
199385
199241
199073
198880
198663
198424
198163
197882
197582
197265
196930
196577
196208
195823
195421
195004
194571
194122
193658
193178
192680
192167
191638
191090
190525
189941
189339
188723
188098
187468
186827
186170
185499
184816
184122
183413
182680
181924
181148
180351
179541
178717
177861
176973
176063
175130
174180
173226
172285
171317
170294
169231
168153
167074
166006
164954
163918
162898
161892
160896
159907
158923
157939
156954
155965
154970
153967
152956
151936
150906
149867
148818
147760
146691
145612
144522
143420
142305
141175
140030
138868
137689
136490
135275
134042
132796
131538
130272
128999
127722
126443
125162
123881
122599
121318
120037
118756
117477
116198
114920
113643
112366
111090
109813
108536
107259
105981
104702
103422
102141
100859
99575
98290
97003.7
95716.1
94427.2
93137.1
91845.9
90553.5
89260.1
87965.7
86670.6
85374.8
84078.4
82781.6
81484.6
80187.6
78890.6
77594
76297.9
75002.5
73708.1
72414.7
71122.7
69832.1
68543.2
67256.2
65971.3
64688.9
63409.1
62132.1
60858.3
59587.8
58321
57058.1
55799.3
54544.9
53295
52050
50810.1
49575.7
48347.1
47124.6
45908.5
44699.1
43496.9
42302
41114.7
39935.5
38764.6
37602.4
36449.4
35306.1
34173
33050.7
31939.9
30841.5
29756.4
28686.1
27632.8
26600
25597.1
200005
199984
199949
199895
199830
199754
199666
199561
199436
199288
199117
198922
198704
198464
198204
197925
197626
197309
196974
196621
196251
195864
195460
195039
194602
194150
193681
193197
192696
192180
191649
191101
190535
189953
189355
188740
188112
187478
186832
186171
185492
184799
184097
183385
182651
181896
181113
180290
179465
178634
177773
176886
175979
175059
174129
173170
172197
171203
170170
169116
168052
166990
165938
164900
163876
162865
161865
160875
159890
158909
157928
156945
155958
154964
153963
152953
151933
150904
149866
148817
147759
146691
145612
144523
143421
142307
141178
140034
138872
137693
136496
135280
134048
132801
131542
130275
129002
127725
126445
125165
123883
122602
121320
120039
118759
117479
116200
114922
113645
112368
111091
109815
108538
107260
105982
104703
103423
102142
100860
99576
98290.9
97004.6
95716.9
94428
93137.9
91846.6
90554.2
89260.8
87966.4
86671.2
85375.4
84079
82782.2
81485.1
80188
78891
77594.4
76298.3
75002.9
73708.4
72415
71122.9
69832.3
68543.4
67256.4
65971.5
64689.1
63409.3
62132.3
60858.4
59587.9
58321.1
57058.2
55799.4
54544.9
53295
52050
50810.1
49575.7
48347.1
47124.5
45908.4
44699.1
43496.8
42301.9
41114.7
39935.4
38764.5
37602.3
36449.3
35305.9
34172.8
33050.4
31939.6
30841
29755.8
28685.2
27631.3
26597
25588.9
200157
200139
200106
200055
199986
199904
199807
199692
199558
199402
199225
199026
198807
198566
198306
198025
197726
197407
197071
196716
196343
195953
195545
195120
194678
194219
193745
193254
192749
192228
191691
191139
190572
189989
189392
188780
188155
187519
186870
186206
185525
184835
184136
183418
182674
181898
181098
180270
179423
178565
177690
176796
175889
174968
174025
173059
172062
171042
170006
168964
167920
166881
165850
164829
163818
162817
161825
160840
159861
158884
157908
156928
155943
154952
153953
152945
151928
150900
149863
148815
147758
146690
145612
144523
143422
142309
141182
140039
138880
137702
136506
135290
134058
132810
131550
130281
129007
127729
126450
125169
123888
122606
121325
120044
118764
117484
116205
114926
113649
112372
111095
109818
108541
107263
105985
104706
103426
102144
100862
99577.9
98292.8
97006.4
95718.7
94429.7
93139.4
91848.1
90555.6
89262.1
87967.7
86672.5
85376.6
84080.1
82783.2
81486
80188.9
78891.8
77595.1
76298.9
75003.4
73708.9
72415.5
71123.3
69832.7
68543.7
67256.7
65971.8
64689.3
63409.5
62132.4
60858.6
59588.1
58321.2
57058.2
55799.3
54544.8
53294.8
52049.8
50810
49575.6
48347
47124.5
45908.4
44699.1
43496.7
42301.8
41114.5
39935.2
38764.2
37602
36448.9
35305.5
34172.3
33049.9
31938.9
30840.1
29754.6
28683.4
27628.6
26592.2
25578.2
200380
200364
200331
200281
200212
200126
200022
199900
199758
199595
199411
199207
198983
198739
198475
198192
197888
197566
197225
196866
196489
196094
195681
195251
194804
194339
193859
193364
192854
192330
191793
191241
190676
190096
189504
188900
188284
187652
187003
186340
185663
184973
184273
183553
182797
182000
181167
180308
179430
178541
177642
176735
175816
174878
173914
172924
171911
170887
169857
168826
167798
166776
165760
164751
163751
162758
161774
160795
159821
158850
157878
156903
155923
154935
153940
152935
151920
150894
149859
148813
147756
146689
145612
144524
143424
142313
141188
140048
138891
137716
136521
135306
134072
132823
131561
130291
129015
127737
126457
125176
123895
122614
121332
120051
118771
117491
116211
114933
113655
112377
111100
109822
108545
107267
105989
104709
103429
102148
100865
99580.9
98295.6
97009.1
95721.2
94432.1
93141.8
91850.3
90557.7
89264.1
87969.6
86674.3
85378.3
84081.7
82784.7
81487.5
80190.1
78893
77596.1
76299.8
75004.3
73709.7
72416.2
71124
69833.2
68544.2
67257.1
65972.2
64689.6
63409.7
62132.7
60858.8
59588.2
58321.3
57058.2
55799.3
54544.7
53294.8
52049.8
50810
49575.6
48347
47124.5
45908.4
44699
43496.6
42301.6
41114.3
39934.9
38763.9
37601.6
36448.5
35305
34171.7
33049.1
31937.9
30838.8
29752.7
28680.7
27624.4
26585.3
25565.4
200674
200659
200627
200576
200507
200418
200309
200180
200031
199862
199673
199463
199233
198981
198709
198417
198106
197776
197428
197062
196679
196277
195858
195422
194969
194498
194013
193514
193002
192478
191944
191399
190843
190277
189699
189110
188505
187883
187242
186587
185922
185242
184543
183815
183045
182226
181359
180456
179529
178590
177649
176706
175758
174793
173805
172797
171777
170753
169728
168707
167689
166677
165671
164671
163678
162693
161714
160741
159773
158806
157839
156869
155894
154912
153921
152920
151908
150886
149853
148808
147754
146688
145612
144525
143428
142318
141196
140059
138905
137734
136541
135328
134094
132843
131578
130304
129026
127746
126466
125185
123904
122623
121342
120061
118780
117500
116220
114941
113662
112384
111106
109829
108551
107273
105994
104714
103434
102152
100869
99584.9
98299.5
97012.7
95724.7
94435.4
93144.9
91853.3
90560.5
89266.8
87972.2
86676.8
85380.6
84083.9
82786.7
81489.3
80191.9
78894.5
77597.6
76301.1
75005.4
73710.7
72417.1
71124.8
69834
68544.9
67257.7
65972.7
64690
63410
62132.9
60859
59588.4
58321.4
57058.3
55799.3
54544.7
53294.8
52049.7
50809.9
49575.5
48346.9
47124.4
45908.3
44698.9
43496.5
42301.4
41114
39934.6
38763.5
37601.1
36447.9
35304.3
34170.8
33048
31936.5
30836.9
29750.2
28677.1
27619.1
26577
25551.7
201052
201034
200999
200946
200872
200778
200663
200529
200375
200199
200001
199783
199542
199280
198998
198695
198374
198034
197677
197302
196910
196501
196074
195630
195169
194693
194203
193700
193187
192664
192133
191595
191051
190499
189937
189361
188768
188155
187524
186878
186220
185546
184850
184120
183341
182503
181607
180664
179687
178693
177698
176706
175714
174717
173707
172687
171661
170636
169615
168598
167586
166579
165578
164585
163598
162619
161646
160678
159715
158754
157793
156829
155860
154883
153897
152902
151894
150875
149846
148805
147752
146690
145616
144531
143435
142327
141207
140073
138924
137757
136569
135358
134124
132870
131602
130324
129043
127761
126479
125197
123916
122635
121354
120073
118791
117510
116230
114950
113671
112393
111115
109836
108558
107280
106000
104720
103439
102157
100874
99589.9
98304.2
97017.2
95729
94439.4
93148.7
91856.9
90564
89270.1
87975.3
86679.7
85383.4
84086.5
82789.2
81491.6
80194
78896.5
77599.3
76302.7
75006.9
73712
72418.3
71125.8
69834.9
68545.7
67258.4
65973.2
64690.5
63410.4
62133.3
60859.2
59588.6
58321.5
57058.4
55799.3
54544.7
53294.7
52049.7
50809.8
49575.4
48346.8
47124.3
45908.1
44698.7
43496.3
42301.1
41113.7
39934.2
38763
37600.5
36447.2
35303.4
34169.7
33046.6
31934.7
30834.6
29747
28672.9
27612.9
26567.9
25537.6
201502
201483
201442
201382
201305
201207
201087
200945
200781
200596
200388
200158
199905
199630
199334
199019
198685
198335
197966
197581
197179
196760
196324
195872
195405
194923
194429
193923
193408
192885
192355
191821
191283
190740
190188
189621
189034
188429
187805
187166
186513
185843
185147
184413
183627
182775
181857
180882
179865
178825
177777
176731
175692
174658
173624
172590
171559
170531
169509
168492
167481
166476
165480
164491
163511
162537
161570
160608
159651
158696
157742
156785
155822
154851
153871
152881
151878
150864
149839
148803
147756
146698
145627
144544
143449
142342
141223
140092
138946
137784
136601
135394
134162
132906
131633
130351
129065
127779
126495
125213
123931
122650
121368
120086
118805
117523
116242
114962
113682
112403
111124
109845
108567
107287
106008
104727
103446
102164
100880
99595.6
98309.7
97022.5
95733.9
94444.1
93153.2
91861.1
90568
89273.9
87978.9
86683.1
85386.6
84089.5
82792.1
81494.3
80196.5
78898.8
77601.4
76304.7
75008.7
73713.6
72419.7
71127.1
69836
68546.6
67259.2
65973.9
64691.1
63410.9
62133.6
60859.5
59588.7
58321.6
57058.4
55799.3
54544.7
53294.7
52049.6
50809.7
49575.3
48346.7
47124.2
45908
44698.5
43496
42300.8
41113.3
39933.7
38762.4
37599.8
36446.4
35302.4
34168.5
33045
31932.7
30831.9
29743.5
28668
27606.1
26558.1
25523.7
202022
202000
201957
201894
201809
201701
201571
201418
201243
201045
200823
200578
200310
200020
199710
199381
199035
198673
198293
197898
197486
197057
196613
196154
195680
195194
194697
194188
193671
193146
192615
192081
191544
191002
190452
189887
189306
188708
188092
187460
186813
186146
185449
184709
183912
183046
182108
181105
180052
178967
177867
176770
175685
174617
173559
172510
171469
170435
169409
168389
167376
166372
165377
164393
163417
162449
161488
160534
159584
158636
157689
156738
155782
154818
153844
152860
151863
150855
149836
148807
147767
146715
145649
144569
143475
142368
141247
140115
138970
137811
136633
135432
134202
132946
131670
130382
129092
127803
126517
125232
123950
122667
121385
120103
118820
117538
116256
114975
113695
112415
111135
109856
108576
107296
106016
104735
103454
102171
100887
99602.2
98315.9
97028.4
95739.6
94449.5
93158.2
91865.9
90572.5
89278.2
87983
86687
85390.3
84093
82795.4
81497.4
80199.4
78901.5
77604
76307
75010.8
73715.6
72421.4
71128.6
69837.3
68547.7
67260.1
65974.7
64691.7
63411.4
62134
60859.8
59588.9
58321.8
57058.5
55799.3
54544.6
53294.6
52049.5
50809.6
49575.2
48346.6
47124
45907.8
44698.3
43495.8
42300.5
41112.9
39933.2
38761.8
37599.1
36445.4
35301.3
34167.1
33043.3
31930.4
30828.9
29739.5
28662.7
27598.9
26548.2
25510
202622
202597
202549
202478
202382
202262
202117
201950
201758
201543
201304
201042
200758
200454
200130
199789
199431
199057
198666
198260
197838
197401
196949
196483
196005
195514
195013
194503
193983
193456
192923
192385
191845
191301
190749
190187
189612
189024
188421
187803
187167
186506
185807
185058
184245
183359
182393
181354
180259
179126
177974
176826
175700
174598
173515
172447
171394
170351
169318
168294
167277
166271
165276
164293
163320
162357
161403
160456
159514
158576
157636
156693
155743
154785
153816
152837
151846
150845
149835
148815
147784
146741
145682
144606
143513
142405
141282
140146
138999
137839
136664
135466
134239
132984
131706
130415
129121
127829
126541
125255
123971
122688
121404
120121
118838
117555
116272
114990
113709
112428
111147
109867
108587
107306
106026
104744
103462
102179
100895
99609.5
98322.9
97035
95745.9
94455.5
93163.9
91871.3
90577.6
89283
87987.6
86691.4
85394.5
84097
82799.1
81501
80202.8
78904.7
77607
76309.8
75013.4
73717.9
72423.5
71130.4
69838.9
68549.1
67261.3
65975.6
64692.5
63412
62134.5
60860.1
59589.2
58321.9
57058.5
55799.4
54544.6
53294.5
52049.4
50809.5
49575
48346.4
47123.8
45907.6
44698
43495.4
42300.1
41112.4
39932.6
38761.1
37598.3
36444.4
35300
34165.5
33041.3
31927.9
30825.7
29735.3
28657.1
27591.4
26538.1
25496.7
203297
203269
203214
203132
203024
202890
202729
202544
202334
202100
201843
201564
201264
200944
200607
200253
199883
199497
199096
198679
198248
197802
197343
196871
196387
195893
195389
194876
194353
193823
193286
192746
192203
191656
191106
190550
189986
189414
188830
188231
187610
186956
186255
185493
184659
183743
182739
181656
180512
179325
178116
176918
175748
174609
173498
172409
171340
170286
169244
168212
167191
166180
165180
164194
163222
162263
161316
160378
159447
158517
157586
156649
155705
154752
153788
152814
151829
150836
149836
148827
147809
146776
145726
144656
143565
142455
141328
140187
139034
137871
136694
135497
134272
133018
131740
130447
129151
127857
126567
125280
123995
122710
121425
120141
118857
117573
116289
115007
113724
112442
111161
109880
108598
107317
106036
104754
103471
102188
100903
99617.4
98330.4
97042.2
95752.8
94462.1
93170.2
91877.2
90583.3
89288.4
87992.7
86696.3
85399.2
84101.5
82803.4
81505.1
80206.7
78908.4
77610.4
76313
75016.3
73720.5
72425.9
71132.5
69840.7
68550.7
67262.6
65976.7
64693.3
63412.7
62135
60860.5
59589.4
58322.1
57058.6
55799.4
54544.5
53294.4
52049.3
50809.3
49574.9
48346.2
47123.6
45907.4
44697.8
43495.1
42299.8
41112
39932.1
38760.4
37597.4
36443.4
35298.7
34163.9
33039.2
31925.2
30822.3
29730.9
28651.3
27583.8
26528.2
25484
204053
204020
203957
203865
203744
203594
203417
203215
202987
202735
202461
202165
201850
201515
201164
200796
200413
200015
199601
199173
198732
198277
197809
197330
196840
196341
195833
195315
194790
194257
193718
193176
192632
192088
191543
190996
190446
189890
189325
188743
188135
187487
186782
186004
185142
184189
183143
182014
180819
179575
178308
177056
175838
174660
173516
172404
171316
170246
169192
168150
167119
166100
165093
164102
163128
162172
161233
160306
159385
158465
157542
156611
155671
154720
153760
152790
151811
150827
149839
148846
147843
146823
145783
144718
143629
142517
141386
140240
139081
137911
136729
135529
134303
133049
131771
130478
129181
127886
126594
125306
124020
122733
121448
120162
118877
117592
116308
115024
113741
112458
111175
109893
108611
107329
106047
104764
103481
102197
100912
99625.9
98338.6
97050
95760.2
94469.2
93177
91883.8
90589.6
89294.4
87998.4
86701.7
85404.3
84106.4
82808.2
81509.6
80211
78912.5
77614.3
76316.6
75019.6
73723.5
72428.6
71134.9
69842.8
68552.4
67264
65977.9
64694.3
63413.4
62135.6
60860.9
59589.7
58322.3
57058.7
55799.4
54544.5
53294.3
52049.1
50809.2
49574.7
48346.1
47123.4
45907.1
44697.5
43494.8
42299.3
41111.5
39931.5
38759.7
37596.5
36442.3
35297.4
34162.2
33037.1
31922.5
30818.8
29726.3
28645.4
27576.2
26518.5
25471.8
204898
204861
204791
204688
204555
204391
204199
203982
203741
203476
203189
202881
202553
202206
201841
201459
201061
200647
200219
199776
199320
198850
198370
197879
197378
196870
196354
195831
195302
194766
194227
193686
193144
192603
192062
191520
190976
190427
189869
189292
188687
188035
187320
186521
185626
184635
183552
182385
181148
179855
178536
177233
175970
174753
173578
172440
171330
170242
169171
168114
167071
166040
165024
164026
163049
162096
161164
160246
159336
158424
157506
156579
155641
154692
153733
152766
151793
150819
149847
148871
147886
146881
145851
144790
143702
142589
141455
140303
139137
137960
136771
135565
134336
133080
131801
130508
129211
127915
126623
125333
124045
122758
121470
120184
118898
117613
116328
115043
113758
112474
111190
109907
108624
107342
106059
104776
103492
102207
100922
99635
98347.3
97058.4
95768.3
94476.9
93184.5
91890.9
90596.4
89300.9
88004.7
86707.7
85410
84111.9
82813.3
81514.6
80215.7
78917
77618.5
76320.5
75023.2
73726.8
72431.5
71137.5
69845
68554.3
67265.6
65979.2
64695.4
63414.3
62136.2
60861.4
59590
58322.5
57058.8
55799.4
54544.5
53294.2
52049
50809
49574.6
48345.9
47123.2
45906.9
44697.2
43494.5
42298.9
41110.9
39930.8
38758.9
37595.6
36441.1
35295.9
34160.4
33034.8
31919.6
30815.2
29721.8
28639.6
27568.8
26509.1
25460.2
205858
205818
205742
205631
205488
205316
205116
204892
204643
204372
204078
203761
203421
203061
202682
202284
201868
201434
200983
200518
200038
199547
199044
198534
198016
197492
196964
196432
195896
195356
194814
194269
193724
193177
192628
192078
191524
190965
190394
189804
189182
188510
187771
186947
186024
185003
183896
182708
181446
180125
178773
177434
176138
174890
173688
172524
171391
170281
169190
168116
167057
166013
164986
163980
163000
162046
161117
160205
159301
158395
157480
156554
155616
154667
153709
152744
151777
150816
149859
148903
147935
146944
145921
144865
143778
142665
141529
140373
139202
138017
136821
135608
134373
133113
131832
130538
129241
127945
126651
125360
124070
122782
121493
120206
118919
117633
116348
115062
113776
112491
111206
109922
108638
107355
106071
104787
103503
102218
100932
99644.7
98356.6
97067.3
95776.8
94485.2
93192.4
91898.6
90603.7
89308
88011.4
86714.1
85416.2
84117.7
82818.9
81519.8
80220.7
78921.7
77622.9
76324.6
75027
73730.2
72434.5
71140.2
69847.3
68556.3
67267.4
65980.7
64696.5
63415.2
62136.9
60861.9
59590.4
58322.7
57058.9
55799.5
54544.4
53294.2
52048.9
50808.9
49574.4
48345.7
47123
45906.6
44696.9
43494.1
42298.5
41110.4
39930.2
38758.2
37594.6
36440
35294.5
34158.6
33032.6
31916.8
30811.6
29717.2
28633.8
27561.5
26500.2
25449.3
206978
206936
206858
206746
206603
206430
206230
206003
205749
205468
205160
204827
204470
204091
203693
203276
202839
202382
201905
201410
200900
200376
199842
199302
198758
198211
197663
197113
196562
196008
195450
194888
194323
193754
193181
192604
192020
191428
190823
190198
189540
188836
188066
187220
186277
185242
184127
182940
181679
180357
178999
177648
176333
175065
173842
172656
171500
170368
169256
168164
167090
166032
164993
163978
162991
162033
161102
160189
159286
158381
157465
156537
155596
154646
153689
152727
151767
150816
149875
148936
147984
147004
145987
144932
143847
142736
141601
140444
139269
138081
136877
135657
134414
133149
131864
130570
129272
127975
126679
125386
124095
122805
121516
120228
118941
117654
116367
115081
113795
112509
111223
109938
108653
107368
106084
104800
103515
102229
100943
99655
98366.5
97076.8
95786
94494
93200.9
91906.7
90611.5
89315.4
88018.5
86720.8
85422.6
84123.8
82824.7
81525.4
80226
78926.6
77627.6
76328.9
75030.9
73733.8
72437.7
71143
69849.8
68558.5
67269.2
65982.2
64697.8
63416.2
62137.6
60862.4
59590.8
58322.9
57059.1
55799.5
54544.4
53294.1
52048.8
50808.7
49574.2
48345.4
47122.7
45906.4
44696.6
43493.7
42298
41109.9
39929.5
38757.4
37593.7
36438.8
35293
34156.7
33030.3
31913.9
30808
29712.7
28628.2
27554.6
26491.6
25439
208304
208262
208187
208079
207940
207768
207563
207323
207050
206745
206410
206051
205670
205268
204847
204408
203948
203466
202960
202432
201884
201321
200747
200168
199587
199006
198424
197841
197257
196672
196082
195487
194886
194280
193666
193045
192414
191772
191117
190442
189738
188994
188194
187328
186380
185345
184238
183069
181835
180540
179204
177862
176546
175269
174031
172828
171653
170502
169372
168263
167174
166103
165053
164027
163030
162063
161123
160203
159294
158385
157464
156531
155587
154635
153679
152720
151764
150821
149891
148964
148024
147052
146038
144984
143902
142795
141665
140510
139335
138143
136934
135705
134455
133184
131898
130602
129303
128005
126707
125412
124119
122828
121538
120249
118961
117674
116387
115100
113813
112526
111239
109953
108668
107383
106098
104813
103527
102241
100954
99666
98377
97086.8
95795.6
94503.2
93209.7
91915.1
90619.6
89323.1
88025.8
86727.9
85429.3
84130.3
82830.9
81531.2
80231.5
78931.9
77632.5
76333.6
75035.2
73737.7
72441.2
71146.1
69852.5
68560.7
67271.1
65983.7
64699
63417.2
62138.4
60863
59591.2
58323.2
57059.2
55799.6
54544.4
53294
52048.7
50808.6
49574
48345.2
47122.5
45906.1
44696.3
43493.3
42297.6
41109.3
39928.9
38756.6
37592.7
36437.6
35291.6
34154.9
33028
31911.1
30804.5
29708.4
28622.8
27547.9
26483.6
25429.5
209892
209850
209777
209672
209531
209351
209130
208865
208560
208220
207849
207454
207039
206606
206152
205678
205182
204664
204122
203553
202963
202356
201734
201103
200471
199840
199209
198578
197947
197316
196681
196040
195393
194738
194073
193398
192712
192016
191306
190578
189826
189040
188212
187328
186380
185358
184271
183129
181935
180686
179392
178077
176772
175495
174250
173035
171846
170680
169535
168411
167310
166228
165167
164129
163119
162138
161183
160249
159327
158408
157480
156541
155593
154639
153682
152725
151772
150831
149905
148983
148048
147081
146072
145021
143942
142843
141719
140569
139394
138200
136986
135751
134494
133219
131931
130635
129335
128035
126735
125438
124143
122850
121560
120270
118982
117694
116406
115119
113831
112543
111256
109969
108683
107398
106112
104826
103540
102254
100966
99677.6
98388.1
97097.5
95805.7
94512.9
93219
91924
90628.1
89331.2
88033.6
86735.4
85436.5
84137.2
82837.5
81537.7
80237.7
78937.8
77638.1
76338.8
75040
73742.1
72445.1
71149.5
69855.4
68563.2
67273.1
65985.4
64700.4
63418.2
62139.2
60863.6
59591.6
58323.5
57059.4
55799.7
54544.5
53294
52048.6
50808.5
49573.9
48345.1
47122.3
45905.8
44696
43493
42297.2
41108.9
39928.3
38755.9
37591.8
36436.5
35290.2
34153.3
33025.9
31908.5
30801.2
29704.2
28617.7
27541.7
26476.1
25420.6
211620
211578
211503
211393
211246
211054
210814
210522
210179
209790
209364
208909
208435
207948
207449
206930
206392
205833
205251
204639
204001
203344
202671
201987
201301
200617
199936
199255
198574
197894
197211
196522
195827
195123
194408
193683
192948
192203
191446
190673
189879
189057
188201
187302
186352
185345
184280
183166
182007
180804
179558
178281
176997
175726
174480
173258
172060
170884
169730
168595
167482
166390
165319
164270
163246
162249
161277
160325
159387
158453
157516
156570
155618
154662
153704
152746
151793
150849
149918
148992
148054
147088
146084
145042
143971
142879
141761
140614
139440
138244
137026
135786
134526
133249
131961
130665
129364
128062
126760
125461
124165
122871
121580
120290
119001
117713
116425
115137
113849
112560
111273
109985
108699
107413
106127
104841
103554
102267
100979
99689.4
98399.3
97108.2
95815.9
94522.6
93228.3
91932.9
90636.6
89339.5
88041.6
86743.1
85444
84144.4
82844.5
81544.4
80244.2
78944
77643.9
76344.2
75045.1
73746.6
72449.2
71153.1
69858.5
68565.7
67275.2
65987.1
64701.6
63419.2
62139.9
60864.1
59591.9
58323.6
57059.5
55799.6
54544.3
53293.8
52048.4
50808.2
49573.6
48344.7
47121.9
45905.4
44695.5
43492.5
42296.6
41108.2
39927.6
38755
37590.8
36435.3
35288.7
34151.5
33023.7
31905.8
30797.9
29700.2
28612.8
27535.8
26469
25412.3
213298
213251
213167
213044
212883
212674
212411
212085
211692
211238
210740
210211
209670
209122
208572
208011
207433
206833
206210
205557
204876
204176
203461
202736
202007
201282
200560
199838
199117
198396
197673
196945
196211
195469
194715
193950
193177
192393
191598
190789
189962
189110
188228
187312
186357
185357
184308
183213
182078
180906
179699
178459
177200
175942
174697
173473
172270
171089
169929
168787
167665
166563
165481
164422
163386
162375
161388
160420
159465
158517
157569
156616
155659
154700
153740
152782
151825
150874
149933
148995
148050
147083
146083
145051
143990
142903
141788
140643
139469
138271
137050
135808
134547
133271
131983
130687
129387
128084
126781
125481
124184
122889
121597
120307
119018
117729
116441
115153
113865
112576
111288
110001
108714
107428
106141
104854
103567
102279
100991
99700.9
98410.2
97118.5
95825.8
94532.1
93237.4
91941.7
90645.1
89347.8
88049.6
86750.9
85451.6
84151.8
82851.8
81551.4
80250.9
78950.4
77650.1
76350
75050.4
73751.5
72453.5
71156.8
69861.6
68568.4
67277.3
65988.7
64702.9
63420.1
62140.6
60864.5
59592.2
58323.7
57059.5
55799.5
54544.2
53293.6
52048.1
50807.9
49573.3
48344.4
47121.6
45905
44695.1
43492
42296.1
41107.6
39926.9
38754.2
37589.9
36434.1
35287.4
34149.8
33021.6
31903.2
30794.8
29696.4
28608.2
27530.2
26462.5
25404.7
214941
214881
214773
214619
214421
214175
213872
213499
213049
212530
211960
211362
210754
210148
209547
208944
208326
207687
207025
206336
205622
204888
204141
203384
202625
201868
201114
200361
199608
198855
198100
197340
196576
195802
195018
194222
193416
192601
191774
190935
190079
189201
188298
187365
186401
185401
184359
183277
182158
181006
179824
178614
177382
176141
174903
173679
172473
171288
170124
168977
167848
166737
165647
164578
163533
162511
161510
160527
159556
158594
157635
156676
155715
154752
153789
152827
151865
150906
149953
149003
148049
147078
146081
145055
144000
142914
141799
140655
139482
138282
137060
135817
134557
133283
131997
130702
129402
128100
126798
125497
124199
122905
121612
120322
119033
117744
116456
115168
113879
112591
111303
110015
108729
107442
106155
104868
103580
102292
101002
99712
98420.8
97128.7
95835.6
94541.4
93246.4
91950.4
90653.6
89356
88057.7
86758.8
85459.4
84159.5
82859.2
81558.7
80258
78957.2
77656.5
76356
75056
73756.6
72458
71160.7
69865
68571.1
67279.5
65990.4
64704.1
63421
62141.2
60864.9
59592.4
58323.8
57059.4
55799.4
54544
53293.4
52047.9
50807.7
49573
48344.1
47121.2
45904.7
44694.7
43491.6
42295.6
41107.1
39926.3
38753.5
37589
36433.1
35286.1
34148.2
33019.7
31900.9
30791.9
29692.9
28604
27525.2
26456.6
25397.9
216581
216497
216350
216146
215888
215576
215206
214767
214253
213669
213034
212373
211709
211056
210417
209781
209130
208455
207758
207035
206289
205525
204749
203965
203180
202398
201618
200839
200061
199282
198500
197713
196922
196123
195312
194491
193659
192817
191964
191098
190217
189318
188395
187447
186472
185467
184428
183353
182245
181107
179942
178753
177544
176321
175095
173874
172668
171480
170311
169160
168025
166908
165811
164735
163682
162649
161636
160638
159655
158682
157715
156749
155782
154813
153845
152878
151911
150946
149982
149021
148057
147081
146083
145057
144000
142913
141796
140651
139478
138279
137057
135816
134558
133287
132003
130711
129412
128111
126810