/*--------------------------------*- C++ -*----------------------------------*\
  =========                 |
  \\      /  F ield         | OpenFOAM: The Open Source CFD Toolbox
   \\    /   O peration     | Website:  https://openfoam.org
    \\  /    A nd           | Version:  9
     \\/     M anipulation  |
\*---------------------------------------------------------------------------*/
FoamFile
{
    format      ascii;
    class       volScalarField;
    location    "0.03";
    object      pMean;
}
// * * * * * * * * * * * * * * * * * * * * * * * * * * * * * * * * * * * * * //

dimensions      [0 2 -2 0 0 0 0];

internalField   nonuniform List<scalar> 
12225
(
-2.60801
-3.17509
-3.45975
-3.55405
-3.58134
-3.58982
-3.5862
-3.56493
-3.52122
-3.4514
-3.35473
-3.2266
-3.06749
-2.86628
-2.62961
-2.33801
-2.02639
-1.68199
-2.85915
-3.20614
-3.4618
-3.56471
-3.59389
-3.60097
-3.59677
-3.57596
-3.53335
-3.46519
-3.37071
-3.24611
-3.09129
-2.89831
-2.67037
-2.39993
-2.11511
-1.87273
-2.90038
-3.21209
-3.45602
-3.56979
-3.60425
-3.61122
-3.6069
-3.58747
-3.54722
-3.48247
-3.39226
-3.27427
-3.12789
-2.94987
-2.74202
-2.51113
-2.282
-2.11457
-3.05977
-3.26
-3.46613
-3.58294
-3.62236
-3.62903
-3.62374
-3.60502
-3.56718
-3.50627
-3.42137
-3.31116
-3.17574
-3.01467
-2.83188
-2.63852
-2.45688
-2.3257
-3.17163
-3.30159
-3.47414
-3.59114
-3.63764
-3.64681
-3.64152
-3.62396
-3.58923
-3.53331
-3.45503
-3.35409
-3.23135
-3.08862
-2.93131
-2.77079
-2.62475
-2.51554
-3.23456
-3.34684
-3.49303
-3.60367
-3.65607
-3.66945
-3.66505
-3.64867
-3.61727
-3.56701
-3.4965
-3.40607
-3.29747
-3.17389
-3.04127
-2.9095
-2.79201
-2.70326
-3.32771
-3.41506
-3.52789
-3.62454
-3.67879
-3.69628
-3.69347
-3.67851
-3.65062
-3.60659
-3.54484
-3.466
-3.37247
-3.26817
-3.159
-3.05316
-2.96091
-2.89227
-3.37053
-3.44941
-3.54947
-3.64167
-3.70009
-3.72317
-3.72409
-3.71231
-3.68921
-3.65245
-3.60059
-3.53446
-3.45689
-3.37198
-3.28527
-3.2035
-3.1346
-3.08561
-3.53892
-3.54099
-3.60071
-3.67848
-3.73344
-3.75842
-3.76258
-3.75412
-3.73575
-3.70643
-3.66502
-3.61229
-3.55099
-3.48523
-3.42006
-3.36105
-3.31423
-3.28451
-3.54475
-3.5714
-3.63301
-3.7046
-3.76092
-3.79228
-3.80268
-3.79986
-3.78796
-3.76732
-3.73733
-3.69877
-3.65432
-3.60779
-3.56368
-3.52654
-3.50097
-3.49051
-3.59326
-3.64812
-3.70344
-3.75801
-3.8057
-3.83687
-3.85122
-3.85402
-3.84908
-3.83742
-3.81901
-3.79471
-3.7669
-3.73913
-3.71522
-3.69904
-3.69404
-3.70315
-3.67956
-3.69743
-3.73648
-3.79161
-3.84274
-3.87786
-3.89798
-3.90784
-3.9108
-3.9084
-3.9013
-3.89056
-3.87836
-3.86777
-3.8621
-3.8646
-3.87814
-3.9053
-3.75955
-3.76038
-3.7993
-3.8496
-3.89418
-3.92824
-3.9523
-3.96874
-3.97954
-3.98631
-3.99034
-3.99294
-3.99597
-4.00199
-4.01381
-4.0342
-4.06561
-4.10999
-3.76334
-3.81423
-3.86196
-3.90651
-3.94757
-3.98461
-4.01667
-4.04265
-4.06372
-4.08209
-4.0995
-4.11741
-4.13754
-4.16207
-4.19326
-4.23344
-4.28452
-4.34823
-3.87732
-3.90592
-3.94264
-3.98268
-4.02456
-4.06595
-4.10429
-4.1387
-4.17057
-4.20204
-4.23467
-4.26967
-4.30855
-4.35306
-4.40501
-4.46612
-4.53807
-4.62239
-3.98038
-4.00071
-4.0294
-4.06794
-4.11207
-4.15835
-4.20403
-4.24891
-4.29434
-4.34152
-4.39133
-4.44492
-4.50372
-4.56914
-4.64259
-4.72529
-4.81839
-4.92256
-4.13662
-4.11573
-4.12615
-4.16553
-4.21855
-4.27435
-4.33009
-4.38728
-4.44729
-4.51091
-4.5788
-4.65179
-4.731
-4.81747
-4.91212
-5.01571
-5.12918
-5.25318
-4.21843
-4.2343
-4.26076
-4.29801
-4.34702
-4.4076
-4.4744
-4.54437
-4.61819
-4.69736
-4.78275
-4.87469
-4.97353
-5.07967
-5.19366
-5.31585
-5.44665
-5.5861
-4.21785
-4.26518
-4.32305
-4.38634
-4.45506
-4.52992
-4.61149
-4.69911
-4.79246
-4.89136
-4.99586
-5.10626
-5.22293
-5.34614
-5.47605
-5.61258
-5.75578
-5.90549
-4.51015
-4.46356
-4.46303
-4.50785
-4.57863
-4.66113
-4.74982
-4.8443
-4.94506
-5.0524
-5.16624
-5.28626
-5.41238
-5.54446
-5.68231
-5.82567
-5.9744
-6.12821
-4.37343
-4.40675
-4.45949
-4.53234
-4.61921
-4.71289
-4.81174
-4.9163
-5.02707
-5.14395
-5.26641
-5.39439
-5.52757
-5.66561
-5.80814
-5.9549
-6.10551
-6.25959
-4.39404
-4.4344
-4.49969
-4.57857
-4.66851
-4.76657
-4.87032
-4.97889
-5.09341
-5.21425
-5.34096
-5.47281
-5.60946
-5.75039
-5.89521
-6.04354
-6.19509
-6.34942
-4.35793
-4.41025
-4.49145
-4.58752
-4.6878
-4.79106
-4.89961
-5.01455
-5.13534
-5.26149
-5.39253
-5.52804
-5.66746
-5.81052
-5.95674
-6.10559
-6.2567
-6.40953
-4.31464
-4.37758
-4.47385
-4.58812
-4.7022
-4.81167
-4.9222
-5.03852
-5.16164
-5.29064
-5.42424
-5.56152
-5.70242
-5.84657
-5.99365
-6.14311
-6.29437
-6.44685
-4.27883
-4.36005
-4.47472
-4.59637
-4.71226
-4.82309
-4.93593
-5.05536
-5.18182
-5.31371
-5.44948
-5.58852
-5.73053
-5.87546
-6.02289
-6.17224
-6.32289
-6.47423
-4.17678
-4.31219
-4.45842
-4.59326
-4.7134
-4.82553
-4.93981
-5.06151
-5.19019
-5.32377
-5.46088
-5.60098
-5.74398
-5.88971
-6.03771
-6.18734
-6.33795
-6.48899
-4.16014
-4.29317
-4.45683
-4.60142
-4.72021
-4.82985
-4.94487
-5.06888
-5.19954
-5.33425
-5.47201
-5.61267
-5.75618
-5.90229
-6.05051
-6.20014
-6.35051
-6.50091
-4.12992
-4.25871
-4.44022
-4.59569
-4.71564
-4.82564
-4.94253
-5.06841
-5.20018
-5.33562
-5.47405
-5.61533
-5.75936
-5.90582
-6.05422
-6.20385
-6.35412
-6.50458
-4.06342
-4.25282
-4.45127
-4.59922
-4.71437
-4.82513
-4.94389
-5.0708
-5.20303
-5.33886
-5.47777
-5.61953
-5.76399
-5.91078
-6.05944
-6.20905
-6.35908
-6.5086
-3.88629
-4.22546
-4.45502
-4.59576
-4.70824
-4.82105
-4.94137
-5.06865
-5.20091
-5.33694
-5.47618
-5.61827
-5.76301
-5.91
-6.05883
-6.20841
-6.35822
-6.50671
-10.8491
-10.9258
-10.9949
-11.0043
-10.979
-10.9835
-11.0897
-11.3471
-11.7582
-12.2859
-12.8712
-13.4439
-13.938
-14.303
-14.5087
-14.548
-14.4357
-14.2059
-13.9059
-13.5885
-13.309
-13.1082
-13.0179
-13.0076
-13.0762
-13.1266
-13.2297
-13.3481
-13.4597
-13.5926
-13.776
-14.1064
-14.706
-15.6696
-17.0422
-18.8112
-20.9302
-23.3312
-25.8926
-28.4682
-30.9498
-33.2527
-35.3146
-37.09
-38.5481
-39.6692
-40.443
-40.8678
-40.9512
-40.7087
-40.162
-39.3368
-38.2619
-36.9678
-35.4851
-33.8445
-32.0751
-30.2044
-28.2578
-26.2579
-24.225
-22.176
-20.1246
-18.0818
-16.0554
-14.0515
-12.0746
-10.1288
-8.2182
-6.34745
-4.52185
-2.74725
-1.02979
0.624531
2.21023
3.72295
5.16004
6.52107
7.80822
9.02592
10.1805
11.2791
12.3294
13.3378
14.3096
15.2477
16.1522
17.0208
17.8481
18.6268
19.348
20.0019
20.5791
21.0715
21.4733
21.7816
21.9969
22.1232
22.1676
22.1402
22.0538
21.9209
21.7542
21.5648
21.3623
21.1539
20.9454
20.7406
20.5424
20.3525
20.1717
20.0006
19.8392
19.6875
19.5452
19.4121
19.2877
19.1717
19.0637
18.9633
18.8698
18.783
18.7023
18.6274
18.5577
18.4929
18.4326
18.3765
18.3243
18.2758
18.2308
18.189
18.1502
18.1142
18.0806
18.0494
18.0203
17.9932
17.9677
17.944
17.9217
17.9009
17.8814
17.8632
17.8462
17.8303
17.8155
17.8017
17.7889
17.7768
17.7654
17.7548
17.7447
17.7352
17.7262
17.7177
17.7097
17.7021
17.695
17.6884
17.6824
17.677
17.6724
17.6687
17.666
17.6646
17.6649
17.6673
17.6723
17.6809
17.6937
17.7129
17.7392
17.7775
17.8289
17.9039
18.0049
18.1568
18.3667
18.6791
-11.3495
-11.445
-11.5433
-11.5778
-11.5662
-11.604
-11.7624
-12.0778
-12.5383
-13.101
-13.7033
-14.2786
-14.769
-15.1303
-15.3351
-15.3711
-15.2426
-14.9697
-14.596
-14.1788
-13.7781
-13.4505
-13.2336
-13.139
-13.1443
-13.2661
-13.3978
-13.6911
-14.0741
-14.5486
-15.1282
-15.8454
-16.7495
-17.9538
-19.5248
-21.364
-23.4384
-25.734
-28.1491
-30.5645
-32.8831
-35.028
-36.941
-38.5783
-39.9079
-40.9088
-41.5705
-41.8929
-41.884
-41.5572
-40.9319
-40.0328
-38.8885
-37.5298
-35.988
-34.2933
-32.4749
-30.56
-28.574
-26.5398
-24.4776
-22.4046
-20.3343
-18.2772
-16.2404
-14.229
-12.2465
-10.2961
-8.38105
-6.50535
-4.674
-2.89283
-1.16807
0.493967
2.08739
3.60727
5.05042
6.416
7.70593
8.92478
10.0791
11.1767
12.2253
13.2323
14.2032
15.1412
16.0468
16.9175
17.7482
18.5312
19.2574
19.917
20.5001
20.9986
21.4064
21.7204
21.941
22.072
22.1204
22.0966
22.013
21.8826
21.7182
21.5311
21.3308
21.1248
20.9186
20.7162
20.5203
20.3326
20.1539
19.9846
19.825
19.6748
19.5338
19.4018
19.2784
19.1632
19.0559
18.956
18.8631
18.7768
18.6965
18.622
18.5527
18.4883
18.4284
18.3727
18.321
18.273
18.2283
18.1868
18.1483
18.1125
18.0792
18.0482
18.0192
17.9922
17.9669
17.9433
17.9212
17.9004
17.8811
17.8629
17.846
17.8302
17.8155
17.8017
17.7889
17.7768
17.7655
17.7548
17.7447
17.7352
17.7262
17.7177
17.7096
17.702
17.6949
17.6883
17.6822
17.6768
17.672
17.6682
17.6654
17.6639
17.6639
17.6661
17.6708
17.6789
17.6912
17.7094
17.735
17.7709
17.8208
17.8895
17.9866
18.1164
18.2991
18.4874
-11.3864
-11.4476
-11.6036
-11.8013
-12.0444
-12.3667
-12.7974
-13.3436
-13.9838
-14.6709
-15.346
-15.9508
-16.4345
-16.758
-16.8937
-16.8338
-16.5921
-16.201
-15.7044
-15.1495
-14.5835
-14.0543
-13.6168
-13.3355
-13.202
-13.3305
-13.6486
-14.1397
-14.8577
-15.7637
-16.8478
-18.1333
-19.5694
-21.1567
-22.9434
-24.9023
-26.9851
-29.1576
-31.3667
-33.5502
-35.643
-37.5841
-39.3185
-40.7998
-41.9912
-42.8676
-43.4149
-43.6266
-43.5038
-43.0598
-42.3163
-41.3004
-40.0426
-38.5752
-36.9306
-35.1405
-33.2348
-31.2411
-29.1848
-27.0887
-24.9731
-22.8554
-20.7496
-18.6654
-16.6093
-14.5847
-12.5929
-10.6351
-8.71262
-6.82832
-4.98646
-3.19269
-1.45352
0.224133
1.83344
3.36834
4.82445
6.2
7.4964
8.71835
9.87298
10.9689
12.0149
13.0194
13.9888
14.9269
15.8347
16.7099
17.5471
18.3385
19.0745
19.7447
20.3391
20.8488
21.2676
21.592
21.8225
21.9625
22.0193
22.0028
21.9254
21.8005
21.6412
21.4592
21.264
21.0631
20.862
20.6646
20.4735
20.2903
20.1159
19.9506
19.7946
19.6476
19.5095
19.3801
19.2589
19.1458
19.0403
18.942
18.8506
18.7655
18.6864
18.6129
18.5446
18.481
18.4219
18.367
18.3159
18.2684
18.2243
18.1833
18.1452
18.1098
18.0768
18.0461
18.0175
17.9907
17.9657
17.9424
17.9205
17.9
17.8809
17.863
17.8462
17.8306
17.8159
17.8022
17.7894
17.7773
17.7659
17.7552
17.7451
17.7355
17.7265
17.7179
17.7097
17.7021
17.6949
17.6882
17.682
17.6764
17.6716
17.6675
17.6645
17.6627
17.6625
17.6641
17.6683
17.6755
17.6869
17.7034
17.7272
17.7597
17.8055
17.8657
17.9502
18.0529
18.1901
18.2992
-11.3791
-11.4697
-11.7565
-12.2151
-12.7969
-13.4681
-14.2116
-15.0047
-15.8164
-16.6105
-17.3435
-17.967
-18.4337
-18.7034
-18.749
-18.5699
-18.1904
-17.6551
-17.0148
-16.3211
-15.6249
-14.9869
-14.4609
-14.1285
-14.0778
-14.2991
-14.829
-15.6197
-16.6576
-17.9375
-19.406
-21.0253
-22.7776
-24.6367
-26.5879
-28.6174
-30.7042
-32.8208
-34.9306
-36.99
-38.949
-40.7559
-42.3603
-43.7171
-44.7878
-45.5426
-45.9603
-46.03
-45.7565
-45.1557
-44.2511
-43.0733
-41.6562
-40.0353
-38.2462
-36.3224
-34.2946
-32.1907
-30.0356
-27.8522
-25.6612
-23.4808
-21.3254
-19.2049
-17.124
-15.0837
-13.0827
-11.1185
-9.18938
-7.29595
-5.44134
-3.63105
-1.87207
-0.172265
1.46028
3.01778
4.49402
5.88565
7.19323
8.4214
9.57798
10.6727
11.716
12.7174
13.6847
14.6229
15.5335
16.4145
17.2603
18.0627
18.8114
19.4955
20.1041
20.628
21.0606
21.3985
21.6421
21.795
21.8639
21.8584
21.7909
21.6749
21.5243
21.3509
21.1643
20.972
20.7792
20.5896
20.406
20.2297
20.0617
19.9023
19.7516
19.6093
19.4755
19.3498
19.232
19.1218
19.0188
18.9228
18.8334
18.7501
18.6726
18.6005
18.5334
18.4709
18.4128
18.3588
18.3085
18.2618
18.2184
18.178
18.1405
18.1056
18.0731
18.0429
18.0146
17.9882
17.9636
17.9405
17.919
17.8988
17.8798
17.8621
17.8456
17.8301
17.8155
17.8019
17.7891
17.7771
17.7658
17.7551
17.7449
17.7354
17.7263
17.7177
17.7095
17.7018
17.6945
17.6877
17.6815
17.6758
17.6708
17.6665
17.6632
17.6611
17.6604
17.6615
17.6649
17.6711
17.6812
17.6959
17.7171
17.7459
17.7861
17.8374
17.9071
17.9861
18.082
18.138
-11.5056
-11.7701
-12.3308
-13.0737
-13.9256
-14.8433
-15.7948
-16.7511
-17.6867
-18.572
-19.3632
-20.0053
-20.4455
-20.6394
-20.569
-20.2486
-19.7228
-19.0527
-18.3072
-17.5499
-16.8347
-16.2111
-15.7559
-15.5442
-15.6368
-16.0725
-16.8505
-17.9385
-19.2771
-20.8142
-22.5109
-24.3253
-26.2305
-28.2079
-30.2439
-32.326
-34.4396
-36.5614
-38.6592
-40.6929
-42.6159
-44.3778
-45.9281
-47.2179
-48.2033
-48.8469
-49.1243
-49.0327
-48.58
-47.7844
-46.6754
-45.29
-43.6689
-41.853
-39.8813
-37.789
-35.6077
-33.3649
-31.085
-28.7904
-26.5019
-24.2388
-22.0173
-19.8482
-17.736
-15.6793
-13.6725
-11.7076
-9.77784
-7.88003
-6.01537
-4.18909
-2.40875
-0.683263
0.977786
2.56434
4.06749
5.48142
6.80521
8.04328
9.20433
10.2995
11.3409
12.3398
13.3055
14.2444
15.1587
16.0468
16.903
17.7181
18.4812
19.1804
19.8042
20.3429
20.7899
21.1422
21.4002
21.5678
21.6517
21.6608
21.6067
21.5034
21.3651
21.2041
21.03
20.8498
20.6686
20.4901
20.3166
20.1496
19.9901
19.8383
19.6944
19.5583
19.43
19.3091
19.1956
19.0892
18.9896
18.8966
18.8099
18.7289
18.6535
18.5833
18.5179
18.457
18.4004
18.3476
18.2985
18.2529
18.2104
18.1709
18.1342
18.1
18.0681
18.0384
18.0107
17.9848
17.9606
17.9379
17.9167
17.8969
17.8783
17.8608
17.8445
17.8292
17.8149
17.8014
17.7887
17.7768
17.7655
17.7549
17.7448
17.7352
17.7261
17.7174
17.7092
17.7015
17.6941
17.6872
17.6809
17.675
17.6698
17.6653
17.6617
17.6592
17.6579
17.6583
17.6609
17.6659
17.6744
17.687
17.7053
17.7298
17.7636
17.8056
17.86
17.9175
17.978
17.9973
-12.2648
-12.6691
-13.3835
-14.2476
-15.2145
-16.2484
-17.3117
-18.3761
-19.4214
-20.4124
-21.2854
-21.9661
-22.3879
-22.5048
-22.3099
-21.8429
-21.1747
-20.3949
-19.594
-18.8442
-18.1983
-17.711
-17.4417
-17.4444
-17.7697
-18.4391
-19.4438
-20.74
-22.2665
-23.967
-25.7918
-27.7068
-29.6937
-31.743
-33.848
-35.9993
-38.1829
-40.3761
-42.5468
-44.653
-46.6437
-48.4609
-50.0419
-51.3253
-52.2594
-52.8088
-52.9557
-52.6927
-52.0311
-50.9986
-49.6348
-47.9867
-46.105
-44.0396
-41.8357
-39.5323
-37.162
-34.7517
-32.3233
-29.8956
-27.4869
-25.1168
-22.8047
-20.5655
-18.4054
-16.3219
-14.3056
-12.3429
-10.4201
-8.5277
-6.66251
-4.82787
-3.03136
-1.28257
0.407484
2.02622
3.5614
5.00358
6.34912
7.60155
8.7703
9.86822
10.9095
11.9073
12.8729
13.8137
14.733
15.6294
16.497
17.326
18.1042
18.8188
19.4574
20.0099
20.4702
20.8349
21.106
21.2879
21.3874
21.413
21.3756
21.2887
21.1668
21.0222
20.8644
20.7
20.5337
20.3691
20.2084
20.053
19.9038
19.7613
19.6257
19.497
19.3752
19.2602
19.1519
19.0501
18.9547
18.8654
18.7819
18.7039
18.6311
18.5633
18.5
18.4409
18.3859
18.3346
18.2868
18.2424
18.201
18.1625
18.1266
18.0932
18.0621
18.0331
18.0059
17.9806
17.9569
17.9347
17.9139
17.8944
17.8762
17.859
17.843
17.828
17.8138
17.8005
17.788
17.7761
17.7649
17.7543
17.7443
17.7347
17.7256
17.717
17.7087
17.7009
17.6935
17.6865
17.68
17.674
17.6686
17.6638
17.6598
17.6568
17.655
17.6547
17.6562
17.6599
17.6666
17.6768
17.6918
17.7118
17.7387
17.7713
17.8109
17.8492
17.8809
17.8741
-13.4565
-13.8619
-14.4903
-15.2995
-16.2513
-17.2959
-18.3905
-19.51
-20.6361
-21.7135
-22.649
-23.3503
-23.7468
-23.8002
-23.5247
-22.9826
-22.2687
-21.4895
-20.7419
-20.0988
-19.6138
-19.3329
-19.3018
-19.5657
-20.1478
-21.0449
-22.2337
-23.6681
-25.3012
-27.0849
-28.9803
-30.9646
-33.0266
-35.1624
-37.3702
-39.6447
-41.9738
-44.3341
-46.689
-48.9874
-51.1645
-53.1444
-54.8465
-56.1966
-57.1348
-57.6219
-57.6368
-57.179
-56.2678
-54.9412
-53.252
-51.2629
-49.0408
-46.6498
-44.1461
-41.5747
-38.9695
-36.3556
-33.7511
-31.169
-28.6222
-26.1269
-23.7033
-21.3705
-19.139
-17.0081
-14.9671
-12.9983
-11.0813
-9.19883
-7.34063
-5.50564
-3.70024
-1.93462
-0.220896
1.42692
2.99395
4.46698
5.83858
7.11014
8.29076
9.395
10.439
11.4382
12.4051
13.3487
14.2734
15.1786
16.0582
16.9014
17.6948
18.4244
19.0769
19.6419
20.1132
20.4883
20.7694
20.9623
21.0753
21.1176
21.0998
21.0337
20.9326
20.8087
20.671
20.5259
20.3775
20.2293
20.0834
19.9413
19.8041
19.6722
19.546
19.4257
19.3114
19.2031
19.1007
19.0043
18.9136
18.8285
18.7487
18.6741
18.6043
18.539
18.4781
18.4212
18.3682
18.3187
18.2725
18.2295
18.1895
18.1522
18.1174
18.085
18.0547
18.0265
18.0001
17.9754
17.9522
17.9306
17.9103
17.8913
17.8734
17.8567
17.841
17.8262
17.8123
17.7992
17.7869
17.7752
17.7641
17.7536
17.7436
17.7341
17.725
17.7164
17.7081
17.7003
17.6928
17.6857
17.6791
17.6729
17.6672
17.6621
17.6577
17.6542
17.6517
17.6505
17.6509
17.6532
17.658
17.6656
17.677
17.6922
17.7122
17.7355
17.7615
17.7828
17.7916
17.7651
-14.21
-14.5275
-15.0416
-15.7566
-16.6287
-17.6016
-18.6389
-19.7244
-20.8414
-21.9178
-22.8415
-23.5184
-23.8897
-23.9388
-23.6955
-23.2291
-22.6367
-22.0214
-21.4726
-21.0556
-20.8176
-20.7988
-21.04
-21.5694
-22.3921
-23.4934
-24.8393
-26.3913
-28.1108
-29.9636
-31.9269
-33.9903
-36.1529
-38.4207
-40.7998
-43.2902
-45.8796
-48.5387
-51.2183
-53.8496
-56.3465
-58.6109
-60.5436
-62.0498
-63.0499
-63.4918
-63.3563
-62.6557
-61.4223
-59.7113
-57.597
-55.165
-52.5033
-49.6948
-46.8093
-43.8993
-41.0001
-38.1347
-35.3183
-32.5594
-29.8628
-27.2362
-24.6951
-22.2599
-19.9451
-17.7526
-15.6717
-13.682
-11.7589
-9.87932
-8.02594
-6.19188
-4.38156
-2.60479
-0.873887
0.796579
2.38988
3.88967
5.28545
6.57694
7.77263
8.88746
9.93862
10.9427
11.9136
12.8615
13.7924
14.7059
15.596
16.4517
17.2588
18.0027
18.6685
19.2456
19.7268
20.1095
20.3972
20.5978
20.7219
20.7808
20.7851
20.7444
20.669
20.5699
20.4559
20.3329
20.2048
20.075
19.9454
19.818
19.6937
19.5733
19.4575
19.3463
19.2402
19.1392
19.0434
18.9528
18.8673
18.7869
18.7113
18.6404
18.574
18.5118
18.4536
18.3992
18.3484
18.3009
18.2565
18.2152
18.1766
18.1406
18.1071
18.0757
18.0465
18.0191
17.9935
17.9695
17.947
17.9259
17.9062
17.8876
17.8703
17.8539
17.8386
17.8241
17.8105
17.7977
17.7855
17.774
17.7631
17.7527
17.7428
17.7333
17.7243
17.7156
17.7074
17.6995
17.6919
17.6847
17.6779
17.6715
17.6656
17.6602
17.6554
17.6513
17.6481
17.646
17.6452
17.6459
17.6487
17.6536
17.6613
17.6716
17.6847
17.6991
17.7128
17.7192
17.7099
17.6679
-14.2623
-14.501
-14.9132
-15.5094
-16.2479
-17.0796
-17.9758
-18.9309
-19.9364
-20.9181
-21.7631
-22.3963
-22.7772
-22.9025
-22.8043
-22.5457
-22.2099
-21.8831
-21.638
-21.5281
-21.5955
-21.88
-22.4135
-23.2106
-24.2673
-25.5625
-27.0639
-28.7388
-30.5563
-32.4959
-34.5517
-36.7309
-39.0497
-41.5273
-44.1777
-47.0027
-49.9849
-53.0828
-56.229
-59.3318
-62.279
-64.9456
-67.2005
-68.9205
-70.0094
-70.4133
-70.1157
-69.1316
-67.5105
-65.3321
-62.6984
-59.7228
-56.5205
-53.1968
-49.8392
-46.5107
-43.25
-40.078
-37.0056
-34.0367
-31.1691
-28.4014
-25.7408
-23.2039
-20.8053
-18.5472
-16.4177
-14.395
-12.4527
-10.5638
-8.70653
-6.86963
-5.05504
-3.27118
-1.52898
0.156931
1.768
3.28575
4.6986
6.00691
7.21902
8.34891
9.41293
10.4274
11.4066
12.362
13.3
14.2205
15.1184
15.9831
16.8005
17.5551
18.2321
18.8194
19.3087
19.6976
19.991
20.2
20.3377
20.4162
20.4453
20.4325
20.3856
20.3138
20.2256
20.1263
20.0199
19.9095
19.7974
19.6853
19.5747
19.4665
19.3614
19.26
19.1625
19.0693
18.9804
18.896
18.8162
18.7408
18.6697
18.6029
18.5402
18.4813
18.4261
18.3743
18.3259
18.2807
18.2384
18.1988
18.1619
18.1275
18.0953
18.0652
18.037
18.0106
17.9859
17.9627
17.941
17.9206
17.9014
17.8834
17.8665
17.8506
17.8357
17.8216
17.8083
17.7958
17.7839
17.7726
17.7618
17.7515
17.7417
17.7323
17.7234
17.7147
17.7065
17.6985
17.6909
17.6836
17.6767
17.6701
17.6639
17.6581
17.6528
17.6482
17.6442
17.6411
17.6391
17.6382
17.6388
17.6409
17.6449
17.6503
17.6569
17.6628
17.6655
17.659
17.6352
17.5807
-13.6798
-13.8504
-14.1648
-14.6344
-15.2169
-15.8744
-16.5797
-17.3358
-18.1422
-18.947
-19.6668
-20.2503
-20.6716
-20.9311
-21.0551
-21.0903
-21.0948
-21.1278
-21.2415
-21.481
-21.8878
-22.4979
-23.3336
-24.4012
-25.6916
-27.1825
-28.8452
-30.6525
-32.5853
-34.6407
-36.8324
-39.1871
-41.7386
-44.518
-47.5428
-50.8101
-54.2911
-57.9278
-61.6308
-65.2818
-68.7401
-71.8509
-74.4572
-76.4173
-77.6235
-78.0133
-77.5677
-76.3065
-74.2919
-71.6255
-68.4378
-64.8731
-61.0749
-57.174
-53.2796
-49.4703
-45.7898
-42.2567
-38.8771
-35.6507
-32.5716
-29.6324
-26.8335
-24.1847
-21.6959
-19.3661
-17.1806
-15.116
-13.1442
-11.2368
-9.36989
-7.52973
-5.7133
-3.92573
-2.17723
-0.483559
1.13524
2.66059
4.08334
5.40562
6.63605
7.78691
8.87173
9.90461
10.8985
11.8653
12.811
13.7364
14.6375
15.5052
16.3268
17.0869
17.7701
18.3634
18.8588
19.255
19.5586
19.7825
19.9406
20.0438
20.1001
20.1152
20.096
20.0509
19.988
19.9125
19.8278
19.7369
19.6423
19.5458
19.4491
19.3533
19.2594
19.168
19.0795
18.9943
18.9127
18.8348
18.7609
18.6908
18.6246
18.5621
18.5033
18.448
18.396
18.3472
18.3015
18.2587
18.2185
18.181
18.1459
18.1131
18.0824
18.0536
18.0266
18.0013
17.9776
17.9553
17.9344
17.9147
17.8962
17.8788
17.8624
17.847
17.8325
17.8188
17.8059
17.7936
17.782
17.7709
17.7603
17.7502
17.7405
17.7312
17.7223
17.7137
17.7054
17.6975
17.6898
17.6824
17.6753
17.6685
17.662
17.6559
17.6501
17.6449
17.6401
17.636
17.6326
17.6301
17.6285
17.6279
17.6281
17.6288
17.6291
17.6272
17.6201
17.6025
17.5668
17.5024
-12.6516
-12.7774
-13.0202
-13.3815
-13.8261
-14.3212
-14.8461
-15.4015
-15.995
-16.6073
-17.1958
-17.7307
-18.196
-18.5923
-18.9359
-19.2557
-19.5875
-19.969
-20.437
-21.0275
-21.7747
-22.7049
-23.8332
-25.1613
-26.6777
-28.36
-30.1845
-32.1346
-34.207
-36.4168
-38.7958
-41.3868
-44.2345
-47.3747
-50.8212
-54.5611
-58.5505
-62.7138
-66.944
-71.1054
-75.0389
-78.57
-81.5212
-83.7304
-85.0745
-85.4831
-84.9377
-83.461
-81.1224
-78.0379
-74.3597
-70.2567
-65.8977
-61.4386
-57.0107
-52.7104
-48.5881
-44.6649
-40.9458
-37.4272
-34.1013
-30.957
-27.9911
-25.208
-22.6118
-20.1955
-17.9414
-15.8245
-13.8164
-11.8888
-10.0135
-8.17093
-6.35394
-4.56585
-2.81772
-1.12603
0.490457
2.01656
3.44712
4.78534
6.03913
7.2182
8.33175
9.39046
10.4052
11.3854
12.3372
13.2632
14.1618
15.0271
15.8481
16.6097
17.2958
17.893
18.3949
18.8023
19.1222
19.3668
19.5488
19.6777
19.76
19.8013
19.8082
19.7885
19.7495
19.6963
19.6323
19.5601
19.4825
19.4014
19.3184
19.235
19.1522
19.0708
18.9915
18.9146
18.8405
18.7694
18.7016
18.6371
18.576
18.5182
18.4635
18.412
18.3635
18.3179
18.275
18.2348
18.197
18.1616
18.1285
18.0974
18.0683
18.041
18.0153
17.9912
17.9685
17.9472
17.9271
17.9082
17.8904
17.8736
17.8578
17.8429
17.8289
17.8156
17.8031
17.7911
17.7798
17.769
17.7586
17.7487
17.7391
17.7299
17.7211
17.7125
17.7043
17.6963
17.6886
17.6811
17.6738
17.6668
17.66
17.6535
17.6473
17.6414
17.6359
17.6307
17.626
17.6218
17.618
17.6146
17.6112
17.6073
17.6018
17.5927
17.577
17.5498
17.5044
17.4319
-11.3837
-11.4839
-11.68
-11.9724
-12.331
-12.7259
-13.1357
-13.5556
-13.9986
-14.4674
-14.9547
-15.4483
-15.9423
-16.4394
-16.9502
-17.4897
-18.0782
-18.7392
-19.499
-20.3844
-21.4197
-22.623
-24.0044
-25.561
-27.2793
-29.1398
-31.1264
-33.2336
-35.4705
-37.8655
-40.4608
-43.3047
-46.4431
-49.9079
-53.7052
-57.8143
-62.1854
-66.7377
-71.3582
-75.903
-80.2003
-84.0587
-87.284
-89.7024
-91.1835
-91.6543
-91.0937
-89.5193
-86.999
-83.6552
-79.6537
-75.1768
-70.4115
-65.531
-60.6805
-55.9688
-51.4555
-47.1704
-43.1226
-39.3099
-35.7241
-32.3567
-29.2039
-26.2669
-23.5441
-21.0249
-18.6904
-16.5159
-14.4721
-12.5246
-10.6388
-8.79134
-6.97394
-5.18934
-3.4483
-1.76556
-0.15556
1.37167
2.81361
4.17279
5.45452
6.66467
7.80907
8.89461
9.92896
10.92
11.8747
12.7987
13.6943
14.5582
15.3796
16.1429
16.8317
17.4343
17.946
18.3679
18.7056
18.9697
19.1723
19.3226
19.4274
19.4925
19.524
19.5287
19.5126
19.4802
19.4353
19.3807
19.3191
19.2527
19.1831
19.1119
19.0402
18.969
18.899
18.8306
18.7642
18.7001
18.6387
18.5801
18.5243
18.4714
18.4212
18.3737
18.3288
18.2865
18.2467
18.2092
18.1739
18.1408
18.1098
18.0806
18.0532
18.0274
18.0031
17.9803
17.9587
17.9384
17.9192
17.9012
17.8841
17.8681
17.8529
17.8386
17.825
17.8122
17.8
17.7884
17.7774
17.7668
17.7567
17.747
17.7376
17.7285
17.7198
17.7113
17.703
17.695
17.6873
17.6797
17.6723
17.665
17.658
17.6511
17.6444
17.6378
17.6315
17.6253
17.6193
17.6134
17.6074
17.6012
17.5944
17.5861
17.5752
17.5596
17.5363
17.5008
17.4473
17.3683
-10.0213
-10.1092
-10.2837
-10.5441
-10.8645
-11.2184
-11.5835
-11.9516
-12.3314
-12.7373
-13.178
-13.6565
-14.175
-14.7388
-15.3556
-16.0364
-16.7953
-17.6493
-18.6166
-19.7155
-20.9633
-22.3734
-23.9517
-25.6915
-27.5791
-29.5995
-31.7426
-34.0078
-36.4078
-38.9718
-41.7408
-44.7604
-48.073
-51.71
-55.6789
-59.9626
-64.5151
-69.256
-74.0683
-78.8019
-83.2789
-87.3048
-90.685
-93.2484
-94.8645
-95.4531
-94.9794
-93.456
-90.9442
-87.5627
-83.4781
-78.8775
-73.9517
-68.8779
-63.8058
-58.8499
-54.0785
-49.5297
-45.2199
-41.1537
-37.3306
-33.7491
-30.4102
-27.3156
-24.4615
-21.8371
-19.4248
-17.1977
-15.1191
-13.1472
-11.2451
-9.39005
-7.5732
-5.79498
-4.0621
-2.3858
-0.776818
0.75723
2.21355
3.59296
4.8982
6.13265
7.29993
8.40472
9.45324
10.4533
11.4141
12.3437
13.2459
14.116
14.9419
15.7075
16.3987
17.0061
17.5267
17.961
18.3133
18.5925
18.8109
18.9787
19.1032
19.1899
19.2443
19.2716
19.2768
19.2641
19.2368
19.1986
19.1522
19.0998
19.0434
18.9842
18.9237
18.8627
18.8021
18.7424
18.684
18.6273
18.5726
18.5201
18.4699
18.422
18.3765
18.3332
18.2922
18.2534
18.2167
18.1821
18.1495
18.1188
18.0899
18.0627
18.037
18.0129
17.9901
17.9686
17.9482
17.929
17.9109
17.8937
17.8775
17.8621
17.8476
17.8339
17.8208
17.8085
17.7967
17.7855
17.7748
17.7645
17.7546
17.7451
17.7359
17.727
17.7183
17.7099
17.7017
17.6937
17.6859
17.6782
17.6706
17.6632
17.6558
17.6486
17.6414
17.6342
17.627
17.6198
17.6125
17.6049
17.5969
17.5881
17.5779
17.5655
17.5496
17.5281
17.4981
17.4556
17.3952
17.3109
-8.64175
-8.72532
-8.89389
-9.14598
-9.46118
-9.81514
-10.1855
-10.5596
-10.9401
-11.3413
-11.7786
-12.266
-12.8127
-13.4264
-14.1155
-14.8895
-15.7602
-16.7406
-17.8447
-19.0864
-20.4797
-22.0348
-23.7531
-25.6256
-27.6393
-29.7817
-32.042
-34.4162
-36.9116
-39.5512
-42.3716
-45.4178
-48.7339
-52.3537
-56.2915
-60.5349
-65.0415
-69.7339
-74.4992
-79.1938
-83.6511
-87.6871
-91.1163
-93.7727
-95.5233
-96.2832
-96.0077
-94.6899
-92.3828
-89.1994
-85.2947
-80.8454
-76.0319
-71.0234
-65.9646
-60.968
-56.108
-51.4324
-46.9696
-42.7351
-38.7393
-34.9923
-31.5039
-28.2799
-25.3191
-22.6127
-20.141
-17.8704
-15.7568
-13.7553
-11.832
-9.96578
-8.14576
-6.36875
-4.63821
-2.96252
-1.35122
0.188323
1.65285
3.04241
4.35875
5.60464
6.78399
7.90216
8.96623
9.98484
10.9667
11.9178
12.838
13.7194
14.5494
15.315
16.0051
16.6127
17.1356
17.5756
17.9371
18.2287
18.4614
18.6454
18.7881
18.8945
18.9693
19.0169
19.0414
19.0466
19.0362
19.0135
18.9817
18.943
18.8995
18.8525
18.8032
18.7527
18.7017
18.6509
18.6007
18.5516
18.5038
18.4576
18.4132
18.3706
18.3298
18.2909
18.2539
18.2187
18.1853
18.1537
18.1238
18.0956
18.0689
18.0438
18.02
17.9976
17.9763
17.9562
17.9372
17.9191
17.902
17.8858
17.8704
17.8558
17.842
17.8289
17.8164
17.8045
17.7932
17.7824
17.772
17.762
17.7524
17.7431
17.7341
17.7253
17.7168
17.7084
17.7003
17.6923
17.6844
17.6766
17.6689
17.6613
17.6537
17.646
17.6384
17.6306
17.6226
17.6144
17.6058
17.5966
17.5865
17.5752
17.5619
17.5457
17.5253
17.4985
17.4626
17.4139
17.3479
17.2591
-7.30448
-7.38262
-7.54491
-7.79289
-8.11142
-8.47851
-8.87364
-9.28067
-9.69757
-10.1336
-10.6028
-11.1211
-11.7033
-12.3614
-13.1064
-13.9481
-14.8959
-15.9593
-17.1489
-18.4779
-19.9588
-21.5978
-23.391
-25.3266
-27.3908
-29.5707
-31.8529
-34.2287
-36.7024
-39.2938
-42.0348
-44.9694
-48.1401
-51.5801
-55.3054
-59.3103
-63.5587
-67.9841
-72.488
-76.9451
-81.2082
-85.1133
-88.4914
-91.1855
-93.064
-94.0332
-94.0386
-93.0637
-91.1436
-88.371
-84.8823
-80.8325
-76.381
-71.6797
-66.8607
-62.0293
-57.2635
-52.6202
-48.1396
-43.851
-39.7799
-35.9513
-32.3852
-29.0927
-26.0756
-23.3262
-20.8192
-18.5152
-16.3687
-14.3375
-12.3907
-10.5077
-8.67699
-6.89438
-5.16257
-3.48841
-1.87987
-0.343005
1.11942
2.50754
3.82383
5.07277
6.26089
7.39629
8.48732
9.5405
10.5589
11.5412
12.4817
13.3718
14.2019
14.9631
15.647
16.2484
16.7666
17.2058
17.5725
17.8746
18.1213
18.3211
18.4807
18.6048
18.6977
18.7633
18.8054
18.8275
18.8332
18.8258
18.8083
18.7833
18.7526
18.7177
18.6798
18.6399
18.5987
18.5569
18.5151
18.4736
18.4329
18.3932
18.3547
18.3174
18.2816
18.2472
18.2142
18.1828
18.1528
18.1242
18.0972
18.0715
18.0471
18.024
18.0022
17.9815
17.9619
17.9432
17.9255
17.9087
17.8926
17.8774
17.8629
17.8491
17.836
17.8236
17.8117
17.8003
17.7895
17.7791
17.769
17.7594
17.75
17.741
17.7321
17.7235
17.7151
17.7069
17.6988
17.6908
17.6829
17.6751
17.6672
17.6594
17.6515
17.6435
17.6354
17.627
17.6182
17.609
17.5992
17.5885
17.5765
17.5628
17.5466
17.5269
17.5023
17.4707
17.4297
17.3758
17.3048
17.2124
-6.04215
-6.1089
-6.24792
-6.48173
-6.79463
-7.16668
-7.58123
-8.02206
-8.48273
-8.96651
-9.48431
-10.0492
-10.676
-11.3782
-12.167
-13.0522
-14.0424
-15.1459
-16.3724
-17.7328
-19.234
-20.8753
-22.6477
-24.5407
-26.5444
-28.6513
-30.852
-33.138
-35.5113
-37.9829
-40.5744
-43.3185
-46.2501
-49.3988
-52.7836
-56.4058
-60.243
-64.2456
-68.3362
-72.4125
-76.3505
-80.0098
-83.2426
-85.9064
-87.8774
-89.0609
-89.3972
-88.8581
-87.4594
-85.2651
-82.3777
-78.9223
-75.0318
-70.8339
-66.4425
-61.9543
-57.4484
-52.9882
-48.6266
-44.4091
-40.378
-36.5711
-33.0161
-29.7293
-26.7149
-23.9623
-21.4436
-19.1193
-16.9469
-14.8892
-12.9188
-11.0173
-9.17466
-7.38757
-5.65754
-3.98886
-2.38705
-0.856776
0.599683
1.98328
3.29863
4.55363
5.75812
6.92174
8.051
9.14665
10.2037
11.2139
12.1692
13.0622
13.8867
14.6368
15.3072
15.8959
16.4051
16.8412
17.2114
17.5229
17.7826
17.9973
18.1727
18.3133
18.4231
18.5056
18.5645
18.6031
18.6248
18.6328
18.6301
18.6189
18.6014
18.5788
18.5524
18.5233
18.4921
18.4596
18.4263
18.3927
18.3592
18.3261
18.2936
18.2619
18.2312
18.2014
18.1727
18.1451
18.1186
18.0933
18.0691
18.046
18.0241
18.0032
17.9834
17.9646
17.9466
17.9295
17.9132
17.8976
17.8827
17.8685
17.855
17.842
17.8297
17.8179
17.8067
17.7959
17.7855
17.7755
17.7659
17.7566
17.7475
17.7387
17.7301
17.7217
17.7134
17.7052
17.6972
17.6893
17.6813
17.6734
17.6655
17.6575
17.6493
17.641
17.6324
17.6234
17.6139
17.6038
17.5928
17.5806
17.5668
17.5509
17.532
17.5091
17.4807
17.445
17.3994
17.341
17.2659
17.1704
-4.9321
-4.97744
-5.09806
-5.31525
-5.61943
-5.99279
-6.42028
-6.88633
-7.37975
-7.89845
-8.44765
-9.03648
-9.67717
-10.3827
-11.1657
-12.0366
-13.0046
-14.0773
-15.2644
-16.5735
-18.0094
-19.5684
-21.2437
-23.0285
-24.9185
-26.9083
-28.9899
-31.1561
-33.4049
-35.7398
-38.171
-40.7187
-43.4082
-46.2635
-49.302
-52.5283
-55.9293
-59.4712
-63.0968
-66.7274
-70.2652
-73.5969
-76.6005
-79.1562
-81.1561
-82.5092
-83.1517
-83.0425
-82.1768
-80.5897
-78.35
-75.5504
-72.2943
-68.684
-64.8147
-60.7731
-56.637
-52.4755
-48.3529
-44.329
-40.4569
-36.78
-33.3304
-30.1279
-27.1757
-24.4598
-21.9535
-19.6244
-17.4395
-15.3682