/*--------------------------------*- C++ -*----------------------------------*\
  =========                 |
  \\      /  F ield         | OpenFOAM: The Open Source CFD Toolbox
   \\    /   O peration     | Website:  https://openfoam.org
    \\  /    A nd           | Version:  9
     \\/     M anipulation  |
\*---------------------------------------------------------------------------*/
FoamFile
{
    format      ascii;
    class       volScalarField;
    location    "0.03";
    object      pPrime2Mean;
}
// * * * * * * * * * * * * * * * * * * * * * * * * * * * * * * * * * * * * * //

dimensions      [0 4 -4 0 0 0 0];

internalField   nonuniform List<scalar> 
12225
(
287611
284869
281697
278268
274696
271060
267413
263788
260206
256673
253194
249761
246364
242981
239580
236105
232441
228322
287625
284897
281719
278286
274710
271072
267424
263798
260215
256684
253205
249774
246380
243003
239612
236155
232542
228610
287717
284958
281766
278324
274741
271098
267447
263820
260237
256706
253230
249803
246416
243050
239679
236262
232739
229058
287876
285060
281846
278387
274793
271142
267486
263856
260272
256743
253271
249851
246475
243128
239788
236428
233021
229581
288041
285211
281964
278481
274870
271207
267543
263909
260324
256797
253331
249921
246561
243239
239941
236652
233370
230143
288291
285416
282126
278611
274975
271296
267622
263983
260396
256872
253413
250016
246677
243387
240139
236929
233772
230724
288656
285693
282342
278782
275115
271415
267726
264079
260491
256970
253520
250140
246825
243573
240381
237255
234216
231316
289127
286048
282619
279001
275294
271566
267859
264203
260612
257095
253656
250294
247009
243799
240667
237624
234692
231915
289764
286499
282964
279275
275518
271754
268026
264357
260762
257249
253822
250482
247229
244064
240994
238030
235195
232520
290457
287044
283390
279612
275792
271985
268229
264544
260944
257435
254022
250705
247486
244368
241359
238470
235719
233129
291274
287700
283901
280018
276122
272264
268473
264769
261162
257657
254257
250964
247781
244710
241758
238937
236261
233743
292190
288426
284463
280461
276480
272565
268737
265012
261397
257894
254507
251237
248085
245055
242154
239389
236771
234309
293367
289260
285098
280959
276885
272905
269035
265286
261660
258159
254784
251535
248414
245424
242568
239854
237287
234873
294828
290361
285934
281611
277411
273346
269423
265641
262000
258499
255137
251911
248823
245874
243066
240403
237887
235519
296744
291774
287003
282445
278086
273914
269920
266096
262435
258932
255581
252379
249325
246418
243657
241042
238574
236250
299350
293582
288351
283495
278933
274624
270543
266666
262980
259470
256130
252951
249930
247062
244345
241775
239350
237066
301961
295657
289926
284726
279932
275472
271292
267356
263639
260120
256787
253629
250637
247805
245127
242598
240211
237961
305438
297999
291648
286070
281030
276413
272134
268140
264393
260866
257539
254400
251434
248634
245990
243494
241139
238918
308359
299864
293016
287179
281995
277287
272956
268934
265176
261653
258340
255222
252282
249509
246894
244427
242099
239902
306959
299552
293112
287458
282371
277726
273437
269447
265717
262219
258932
255838
252922
250173
247579
245132
242822
240640
305331
298593
292648
287294
282394
277865
273653
269717
266028
262562
259300
256228
253331
250599
248021
245587
243288
241117
303425
297498
292037
286987
282277
277872
273744
269867
266220
262786
259549
256497
253617
250899
248332
245908
243618
241454
301743
296488
291439
286650
282111
277821
273770
269946
266338
262931
259716
256680
253814
251107
248550
246134
243850
241691
300486
295700
290947
286358
281955
277755
273767
269987
266409
263025
259827
256805
253949
251251
248700
246290
244011
241856
299635
295103
290567
286129
281826
277696
273754
270007
266453
263087
259901
256889
254041
251348
248803
246397
244121
241969
299001
294667
290290
285959
281729
277648
273741
270017
266480
263126
259950
256944
254101
251413
248871
246468
244194
242044
298486
294357
290099
285843
281662
277614
273730
270022
266496
263150
259980
256979
254140
251455
248915
246513
244242
242092
298058
294143
289977
285769
281619
277593
273722
270024
266505
263164
259998
257000
254164
251480
248942
246541
244270
242122
297794
294020
289909
285728
281596
277580
273717
270025
266510
263172
260008
257012
254176
251494
248956
246556
244285
242137
297659
293968
289880
285711
281586
277575
273716
270025
266512
263175
260012
257016
254181
251499
248962
246562
244291
242143
193220
193203
193171
193123
193061
192982
192886
192771
192636
192480
192305
192111
191900
191672
191429
191172
190899
190611
190306
189983
189641
189279
188898
188497
188078
187642
187187
186717
186230
185728
185211
184675
184121
183544
182944
182320
181666
180980
180261
179514
178744
177958
177160
176356
175550
174746
173947
173154
172370
171593
170823
170059
169298
168537
167772
167002
166223
165432
164626
163805
162966
162108
161231
160335
159420
158486
157535
156567
155583
154583
153569
152540
151499
150445
149379
148302
147215
146118
145013
143899
142777
141648
140511
139368
138219
137064
135904
134739
133571
132399
131226
130050
128874
127696
126518
125340
124160
122980
121799
120616
119431
118244
117053
115860
114663
113463
112259
111052
109842
108628
107411
106190
104967
103740
102511
101279
100045
98807.5
97568.1
96326.6
95083.1
93837.7
92590.6
91341.9
90091.7
88840.3
87587.6
86334
85079.6
83824.4
82568.7
81312.7
80056.5
78800.2
77544.1
76288.3
75033
73778.4
72524.6
71271.9
70020.4
68770.3
67521.8
66275.2
65030.5
63788
62548
61310.5
60075.9
58844.3
57615.9
56391.1
55170.1
53953
52740.1
51531.7
50328.1
49129.4
47936
46748.2
45566.2
44390.3
43220.9
42058.1
40902.5
39754.2
38613.7
37481.3
36357.4
35242.4
34136.8
33041.1
31955.7
30881.5
29819.1
28769.4
27733.8
26714.2
25714.1
24741.3
193282
193266
193233
193184
193121
193041
192943
192825
192688
192530
192353
192158
191945
191717
191473
191215
190941
190652
190347
190025
189684
189324
188943
188543
188124
187686
187231
186757
186263
185753
185225
184681
184118
183530
182918
182283
181622
180931
180209
179461
178692
177907
177112
176311
175508
174708
173912
173123
172342
171569
170803
170042
169284
168526
167765
166998
166221
165431
164627
163807
162969
162111
161234
160338
159423
158489
157538
156570
155585
154585
153571
152543
151501
150447
149381
148305
147218
146122
145016
143903
142781
141652
140516
139373
138224
137069
135909
134744
133576
132404
131230
130054
128877
127700
126521
125343
124163
122983
121801
120618
119433
118245
117055
115861
114665
113464
112261
111054
109843
108629
107412
106191
104968
103741
102512
101280
100045
98807.8
97568.5
96326.9
95083.4
93838
92590.9
91342.1
90091.9
88840.5
87587.8
86334.2
85079.7
83824.5
82568.8
81312.8
80056.5
78800.3
77544.2
76288.4
75033.1
73778.4
72524.7
71271.9
70020.4
68770.3
67521.9
66275.2
65030.5
63788
62548
61310.5
60075.9
58844.3
57615.9
56391.1
55170.1
53953
52740.1
51531.7
50328.1
49129.4
47936
46748.2
45566.2
44390.3
43220.8
42058.1
40902.4
39754.2
38613.6
37481.2
36357.3
35242.3
34136.7
33040.9
31955.5
30881.2
29818.6
28768.8
27733
26713
25711.6
24735.2
193424
193407
193373
193322
193254
193167
193063
192939
192795
192632
192450
192251
192036
191806
191561
191302
191028
190740
190435
190112
189773
189414
189036
188639
188222
187781
187322
186841
186341
185820
185277
184714
184130
183525
182897
182244
181566
180864
180138
179391
178624
177843
177051
176253
175453
174654
173861
173075
172297
171528
170767
170012
169259
168507
167751
166988
166216
165430
164629
163811
162974
162117
161241
160345
159429
158495
157543
156574
155590
154590
153575
152547
151506
150452
149387
148310
147224
146128
145023
143910
142789
141661
140525
139383
138234
137079
135919
134754
133586
132414
131239
130063
128885
127707
126528
125349
124169
122988
121806
120622
119437
118249
117058
115864
114667
113467
112263
111056
109845
108631
107413
106193
104969
103742
102513
101281
100046
98808.6
97569.1
96327.5
95083.9
93838.5
92591.3
91342.5
90092.3
88840.7
87588.1
86334.4
85079.9
83824.7
82569
81312.9
80056.7
78800.4
77544.3
76288.4
75033.1
73778.5
72524.7
71272
70020.4
68770.3
67521.9
66275.2
65030.5
63788
62548
61310.5
60075.8
58844.3
57615.9
56391.1
55170.1
53953
52740.1
51531.7
50328
49129.4
47936
46748.2
45566.1
44390.3
43220.8
42058.1
40902.4
39754.1
38613.5
37481.1
36357.1
35242.1
34136.4
33040.5
31955
30880.5
29817.8
28767.7
27731.3
26710.6
25707.4
24725.9
193636
193619
193583
193527
193452
193359
193246
193115
192965
192796
192609
192405
192186
191952
191705
191444
191169
190878
190572
190249
189908
189548
189170
188769
188349
187905
187439
186951
186440
185904
185346
184765
184162
183537
182889
182220
181529
180815
180081
179328
178558
177774
176980
176181
175380
174582
173790
173006
172232
171469
170715
169967
169223
168479
167731
166975
166209
165428
164631
163816
162981
162126
161251
160354
159438
158503
157551
156581
155596
154596
153582
152554
151512
150459
149394
148318
147232
146137
145032
143920
142800
141672
140538
139396
138248
137094
135934
134769
133600
132427
131252
130075
128897
127718
126538
125358
124177
122996
121813
120629
119443
118255
117063
115869
114672
113471
112267
111059
109848
108633
107416
106195
104971
103744
102514
101282
100047
98809.6
97570.1
96328.4
95084.7
93839.1
92591.9
91343
90092.7
88841.2
87588.4
86334.7
85080.2
83824.9
82569.2
81313.1
80056.8
78800.5
77544.4
76288.6
75033.2
73778.6
72524.8
71272
70020.5
68770.4
67521.9
66275.2
65030.5
63788.1
62548
61310.5
60075.9
58844.3
57615.9
56391.1
55170.1
53953
52740.1
51531.7
50328
49129.4
47936
46748.1
45566.1
44390.2
43220.7
42058
40902.3
39753.9
38613.4
37480.9
36356.8
35241.7
34135.9
33039.9
31954.2
30879.5
29816.4
28765.9
27728.8
26706.7
25701.1
24714.3
193919
193899
193858
193797
193717
193617
193499
193362
193206
193031
192838
192628
192403
192164
191912
191647
191369
191075
190765
190437
190091
189726
189341
188935
188506
188055
187578
187077
186551
186000
185425
184827
184207
183565
182902
182217
181512
180786
180039
179275
178495
177703
176901
176096
175290
174489
173696
172915
172146
171390
170644
169908
169175
168442
167705
166959
166201
165427
164635
163824
162992
162139
161264
160368
159451
158515
157561
156590
155604
154604
153589
152562
151521
150468
149403
148328
147243
146148
145044
143933
142814
141687
140553
139412
138265
137111
135952
134787
133618
132445
131269
130091
128911
127731
126551
125370
124188
123006
121823
120638
119451
118262
117070
115876
114678
113476
112271
111063
109852
108637
107419
106198
104973
103746
102516
101284
100049
98811.1
97571.4
96329.5
95085.7
93840.1
92592.7
91343.8
90093.4
88841.7
87588.9
86335.2
85080.6
83825.3
82569.5
81313.4
80057.1
78800.7
77544.6
76288.7
75033.3
73778.7
72524.9
71272.1
70020.6
68770.5
67522
66275.3
65030.6
63788.1
62548
61310.5
60075.9
58844.3
57616
56391.1
55170.1
53953
52740.1
51531.7
50328
49129.4
47936
46748.1
45566.1
44390.1
43220.6
42057.9
40902.1
39753.8
38613.1
37480.6
36356.5
35241.2
34135.3
33039.1
31953.2
30878.2
29814.7
28763.4
27725.4
26701.8
25693.5
24701.5
194270
194246
194202
194137
194054
193950
193827
193685
193522
193340
193139
192921
192688
192443
192185
191914
191630
191330
191013
190677
190322
189947
189551
189133
188693
188228
187738
187222
186680
186113
185522
184908
184272
183615
182937
182237
181515
180773
180011
179230
178434
177626
176810
175992
175177
174369
173574
172793
172030
171283
170551
169829
169112
168395
167672
166939
166191
165426
164641
163834
163006
162155
161281
160385
159468
158531
157575
156603
155615
154614
153600
152572
151532
150479
149415
148340
147255
146161
145058
143948
142829
141704
140571
139431
138285
137132
135972
134808
133638
132464
131288
130109
128929
127748
126566
125384
124202
123019
121835
120649
119461
118272
117079
115884
114685
113483
112277
111069
109856
108641
107423
106201
104976
103749
102519
101286
100050
98812.8
97572.9
96330.9
95087
93841.2
92593.7
91344.6
90094.2
88842.4
87589.5
86335.7
85081
83825.7
82569.9
81313.7
80057.3
78801
77544.8
76288.9
75033.5
73778.8
72525
71272.2
70020.7
68770.6
67522.1
66275.4
65030.7
63788.2
62548.1
61310.6
60075.9
58844.3
57616
56391.2
55170.1
53953
52740.1
51531.7
50328
49129.3
47935.9
46748
45566
44390.1
43220.5
42057.7
40901.9
39753.5
38612.8
37480.2
36356
35240.6
34134.5
33038.1
31952
30876.5
29812.5
28760.5
27721.4
26696
25685
24688.4
194690
194666
194621
194557
194471
194365
194239
194091
193922
193733
193523
193297
193055
192801
192534
192254
191960
191649
191320
190972
190603
190214
189803
189370
188913
188432
187925
187393
186835
186253
185647
185019
184368
183695
182999
182281
181539
180775
179990
179186
178366
177534
176696
175859
175028
174209
173408
172629
171872
171137
170422
169721
169027
168332
167630
166915
166181
165426
164649
163848
163023
162175
161303
160408
159490
158552
157594
156620
155631
154629
153614
152586
151546
150494
149430
148356
147271
146177
145075
143965
142847
141722
140590
139451
138306
137153
135994
134830
133660
132486
131308
130129
128948
127766
126584
125401
124218
123034
121849
120662
119474
118283
117089
115893
114693
113490
112284
111075
109862
108646
107427
106205
104980
103752
102521
101288
100053
98814.8
97574.7
96332.5
95088.4
93842.5
92594.8
91345.7
90095.1
88843.2
87590.3
86336.3
85081.6
83826.2
82570.3
81314.1
80057.7
78801.3
77545
76289.1
75033.7
73779
72525.1
71272.4
70020.8
68770.7
67522.2
66275.5
65030.7
63788.2
62548.1
61310.6
60076
58844.4
57616
56391.2
55170.1
53953
52740.1
51531.7
50328
49129.3
47935.9
46748
45565.9
44390
43220.4
42057.6
40901.7
39753.3
38612.5
37479.8
36355.5
35239.9
34133.6
33037
31950.5
30874.6
29810
28757.1
27716.8
26689.6
25675.9
24675.3
195196
195173
195129
195063
194976
194868
194738
194586
194412
194216
194000
193765
193514
193249
192970
192676
192366
192039
191694
191328
190942
190535
190106
189654
189178
188679
188155
187606
187032
186435
185815
185171
184503
183811
183094
182352
181584
180791
179975
179138
178285
177421
176552
175686
174831
173995
173184
172404
171655
170938
170247
169575
168912
168249
167575
166884
166169
165429
164661
163866
163045
162198
161328
160433
159515
158576
157617
156642
155651
154647
153631
152604
151564
150512
149449
148374
147290
146196
145094
143984
142867
141742
140611
139473
138328
137176
136018
134853
133683
132509
131330
130150
128968
127786
126603
125419
124235
123051
121865
120677
119488
118296
117101
115903
114703
113499
112292
111082
109868
108652
107432
106209
104984
103756
102525
101291
100055
98817.1
97576.8
96334.4
95090.1
93844
92596.2
91346.8
90096.1
88844.1
87591.1
86337
85082.2
83826.7
82570.8
81314.5
80058
78801.6
77545.3
76289.4
75033.9
73779.2
72525.3
71272.5
70021
68770.8
67522.3
66275.6
65030.8
63788.3
62548.2
61310.7
60076
58844.4
57616.1
56391.2
55170.1
53953
52740.1
51531.7
50328
49129.3
47935.8
46747.9
45565.8
44389.9
43220.3
42057.4
40901.5
39753
38612.1
37479.3
36354.8
35239.2
34132.6
33035.7
31948.8
30872.5
29807.2
28753.4
27711.8
26682.8
25666.4
24662.4
195796
195772
195727
195660
195571
195460
195327
195171
194992
194790
194567
194324
194063
193786
193491
193181
192852
192506
192140
191754
191348
190920
190470
189998
189502
188984
188441
187876
187287
186674
186037
185375
184687
183972
183229
182456
181655
180825
179969
179090
178194
177285
176373
175467
174578
173716
172890
172106
171368
170673
170014
169381
168761
168139
167504
166844
166155
165433
164678
163890
163073
162227
161357
160462
159543
158603
157644
156667
155675
154670
153654
152625
151586
150534
149471
148396
147312
146218
145116
144006
142889
141764
140633
139496
138352
137200
136043
134878
133708
132533
131354
130173
128990
127807
126623
125440
124255
123069
121883
120694
119503
118310
117114
115915
114713
113508
112300
111089
109875
108658
107437
106214
104988
103759
102528
101294
100058
98819.7
97579.1
96336.5
95091.9
93845.6
92597.6
91348.1
90097.3
88845.2
87592
86337.8
85082.9
83827.4
82571.3
81315
80058.5
78802
77545.6
76289.6
75034.2
73779.4
72525.5
71272.7
70021.1
68771
67522.4
66275.7
65031
63788.4
62548.3
61310.8
60076.1
58844.5
57616.1
56391.3
55170.2
53953
52740.1
51531.7
50328
49129.3
47935.8
46747.9
45565.8
44389.7
43220.1
42057.2
40901.3
39752.6
38611.7
37478.8
36354.2
35238.3
34131.5
33034.3
31947
30870.1
29804.1
28749.4
27706.5
26675.7
25657
24649.8
196490
196465
196418
196349
196257
196142
196004
195843
195658
195450
195220
194968
194697
194406
194095
193766
193417
193050
192662
192254
191826
191376
190904
190411
189896
189359
188799
188216
187610
186981
186325
185644
184933
184192
183419
182611
181770
180896
179991
179059
178106
177140
176171
175212
174276
173377
172528
171736
171007
170337
169718
169134
168567
168000
167413
166795
166138
165440
164700
163922
163109
162264
161392
160495
159575
158633
157673
156696
155704
154698
153681
152652
151611
150559
149496
148422
147337
146243
145141
144030
142913
141788
140657
139520
138376
137225
136068
134904
133734
132558
131379
130197
129013
127830
126645
125461
124276
123089
121901
120711
119519
118324
117127
115927
114724
113518
112309
111097
109882
108664
107443
106219
104993
103764
102532
101298
100061
98822.5
97581.6
96338.7
95094
93847.4
92599.2
91349.6
90098.6
88846.3
87593
86338.7
85083.7
83828.1
82571.9
81315.5
80058.9
78802.4
77546
76290
75034.5
73779.7
72525.8
71272.9
70021.3
68771.2
67522.6
66275.9
65031.1
63788.6
62548.4
61310.9
60076.2
58844.5
57616.2
56391.3
55170.2
53953.1
52740.1
51531.7
50328
49129.2
47935.8
46747.8
45565.7
44389.6
43220
42057
40901
39752.3
38611.3
37478.2
36353.4
35237.4
34130.4
33032.8
31945.1
30867.7
29800.9
28745.3
27701.1
26668.5
25647.6
24637.7
197281
197255
197205
197132
197035
196915
196771
196603
196410
196194
195954
195692
195408
195101
194774
194426
194058
193669
193260
192830
192380
191909
191417
190904
190370
189815
189238
188638
188016
187369
186697
185995
185263
184496
183691
182846
181960
181034
180070
179073
178050
177013
175973
174946
173950
173004
172122
171317
170594
169951
169376
168848
168345
167840
167311
166741
166122
165451
164729
163962
163154
162310
161436
160535
159611
158667
157706
156729
155736
154730
153712
152682
151640
150588
149524
148450
147365
146271
145168
144057
142939
141814
140682
139544
138400
137249
136092
134929
133760
132584
131404
130221
129038
127853
126669
125483
124296
123109
121919
120728
119535
118339
117140
115939
114735
113528
112318
111105
109889
108671
107449
106225
104998
103768
102536
101301
100065
98825.5
97584.3
96341.1
95096.1
93849.4
92601
91351.1
90099.9
88847.5
87594.1
86339.7
85084.6
83828.8
82572.6
81316.1
80059.5
78802.8
77546.4
76290.3
75034.8
73780
72526
71273.2
70021.6
68771.4
67522.8
66276
65031.3
63788.7
62548.5
61311
60076.3
58844.6
57616.2
56391.4
55170.2
53953.1
52740.2
51531.7
50328
49129.2
47935.7
46747.7
45565.6
44389.5
43219.8
42056.7
40900.7
39751.9
38610.8
37477.6
36352.7
35236.4
34129.1
33031.2
31943.1
30865.1
29797.6
28741
27695.5
26661.4
25638.4
24626.1
198173
198144
198091
198013
197910
197782
197629
197450
197247
197020
196767
196491
196191
195869
195524
195158
194770
194361
193932
193483
193013
192524
192014
191483
190932
190360
189768
189153
188517
187857
187170
186453
185702
184911
184075
183188
182250
181263
180231
179159
178059
176941
175821
174719
173656
172654
171735
170913
170196
169579
169048
168577
168136
167693
167221
166699
166117
165473
164770
164012
163208
162365
161488
160583
159655
158708
157744
156765
155772
154766
153747
152716
151674
150621
149556
148481
147396
146302
145199
144087
142968
141841
140708
139569
138424
137273
136117
134954
133785
132610
131430
130246
129062
127877
126692
125505
124318
123128
121938
120745
119551
118354
117154
115952
114746
113538
112328
111114
109897
108678
107456
106231
105003
103773
102540
101305
100068
98828.7
97587.2
96343.7
95098.4
93851.4
92602.8
91352.8
90101.4
88848.8
87595.2
86340.7
85085.5
83829.6
82573.3
81316.7
80060
78803.3
77546.8
76290.7
75035.2
73780.3
72526.3
71273.4
70021.8
68771.6
67523
66276.2
65031.4
63788.8
62548.7
61311.1
60076.4
58844.7
57616.3
56391.4
55170.3
53953.1
52740.2
51531.7
50328
49129.2
47935.7
46747.7
45565.5
44389.4
43219.6
42056.5
40900.4
39751.5
38610.3
37477
36351.9
35235.4
34127.8
33029.6
31941
30862.4
29794.2
28736.6
27690
26654.3
25629.5
24615.1
199172
199141
199083
198998
198886
198748
198583
198391
198174
197931
197662
197369
197052
196711
196348
195963
195558
195132
194686
194220
193735
193229
192704
192158
191592
191007
190401
189775
189129
188458
187759
187027
186254
185433
184557
183624
182631
181581
180480
179336
178159
176964
175770
174599
173475
172425
171473
170636
169922
169326
168829
168400
168006
167608
167178
166693
166139
165516
164825
164074
163273
162428
161549
160640
159708
158756
157789
156807
155812
154804
153785
152754
151711
150657
149591
148515
147429
146334
145231
144119
142998
141870
140736
139595
138449
137298
136141
134978
133809
132634
131454
130270
129085
127900
126714
125527
124338
123148
121956
120762
119567
118368
117168
115964
114758
113549
112337
111123
109905
108685
107462
106237
105009
103778
102545
101309
100072
98832
97590.2
96346.5
95100.9
93853.6
92604.8
91354.5
90103
88850.2
87596.5
86341.8
85086.5
83830.5
82574.1
81317.4
80060.6
78803.9
77547.3
76291.1
75035.5
73780.7
72526.7
71273.7
70022.1
68771.8
67523.2
66276.4
65031.6
63789
62548.8
61311.2
60076.5
58844.8
57616.4
56391.5
55170.4
53953.2
52740.2
51531.7
50328
49129.2
47935.6
46747.6
45565.4
44389.2
43219.4
42056.3
40900.1
39751.2
38609.8
37476.3
36351.1
35234.3
34126.5
33027.9
31938.9
30859.7
29790.8
28732.3
27684.5
26647.4
25621
24604.7
200290
200254
200190
200097
199974
199822
199642
199434
199198
198936
198648
198335
197998
197639
197258
196856
196435
195994
195534
195055
194556
194038
193498
192939
192360
191762
191144
190505
189842
189152
188429
187667
186859
185999
185080
184100
183057
181955
180799
179600
178368
177120
175877
174662
173501
172421
171447
170598
169881
169290
168803
168388
168009
167628
167213
166741
166200
165584
164899
164150
163347
162499
161616
160703
159766
158810
157839
156854
155856
154846
153825
152793
151750
150695
149629
148552
147465
146369
145265
144152
143031
141902
140766
139624
138476
137323
136165
135001
133832
132656
131476
130293
129108
127922
126735
125547
124358
123168
121975
120780
119583
118383
117181
115977
114770
113560
112347
111132
109914
108693
107469
106243
105014
103783
102550
101314
100076
98835.5
97593.4
96349.3
95103.4
93855.9
92606.9
91356.4
90104.6
88851.7
87597.8
86343
85087.5
83831.4
82574.9
81318.1
80061.2
78804.4
77547.8
76291.6
75036
73781
72527
71274.1
70022.4
68772.1
67523.5
66276.6
65031.8
63789.2
62549
61311.4
60076.6
58844.9
57616.5
56391.6
55170.4
53953.2
52740.3
51531.7
50328
49129.2
47935.6
46747.6
45565.3
44389.1
43219.3
42056.1
40899.8
39750.8
38609.3
37475.7
36350.2
35233.3
34125.2
33026.3
31936.8
30857.1
29787.5
28728.1
27679.2
26640.8
25612.8
24594.9
201537
201498
201426
201321
201185
201016
200817
200588
200331
200047
199737
199403
199046
198668
198271
197854
197419
196966
196494
196002
195489
194955
194399
193821
193221
192598
191951
191278
190578
189847
189081
188276
187426
186525
185568
184554
183481
182351
181172
179953
178705
177444
176190
174966
173797
172709
171726
170865
170133
169525
169017
168579
168176
167774
167341
166855
166302
165679
164988
164236
163429
162576
161687
160769
159828
158868
157894
156906
155906
154893
153869
152835
151791
150735
149668
148590
147502
146405
145300
144187
143066
141936
140799
139655
138504
137349
136188
135023
133852
132677
131497
130314
129129
127943
126756
125568
124378
123187
121993
120797
119599
118398
117195
115990
114781
113571
112357
111141
109922
108700
107476
106250
105020
103789
102554
101318
100080
98839.2
97596.6
96352.2
95106.1
93858.3
92609
91358.3
90106.3
88853.2
87599.1
86344.2
85088.5
83832.3
82575.7
81318.9
80061.9
78805
77548.4
76292.1
75036.4
73781.4
72527.4
71274.4
70022.7
68772.4
67523.7
66276.8
65032
63789.4
62549.1
61311.5
60076.7
58845
57616.6
56391.7
55170.5
53953.3
52740.3
51531.8
50328
49129.2
47935.6
46747.5
45565.2
44389
43219.1
42055.8
40899.5
39750.4
38608.8
37475
36349.4
35232.3
34123.9
33024.6
31934.7
30854.5
29784.2
28724
27674.1
26634.5
25605.2
24585.8
202978
202932
202849
202730
202575
202386
202163
201911
201629
201321
200988
200633
200256
199860
199444
199011
198559
198087
197594
197079
196538
195971
195376
194754
194104
193428
192726
191999
191246
190464
189650
188800
187911
186978
185998
184970
183893
182770
181605
180406
179184
177951
176725
175525
174375
173298
172313
171436
170674
170022
169460
168963
168500
168041
167558
167031
166447
165802
165097
164334
163520
162661
161764
160840
159893
158931
157955
156966
155963
154947
153920
152883
151836
150779
149711
148632
147543
146444
145338
144224
143102
141972
140833
139686
138533
137374
136211
135044
133873
132697
131517
130335
129150
127964
126777
125588
124398
123206
122011
120815
119615
118414
117210
116003
114794
113582
112368
111151
109931
108709
107484
106256
105026
103794
102560
101323
100084
98843
97600.1
96355.3
95108.9
93860.8
92611.2
91360.3
90108.1
88854.8
87600.6
86345.5
85089.7
83833.4
82576.7
81319.7
80062.7
78805.7
77549
76292.7
75036.9
73781.9
72527.8
71274.8
70023.1
68772.7
67524
66277.1
65032.3
63789.6
62549.4
61311.7
60076.9
58845.2
57616.8
56391.8
55170.6
53953.4
52740.4
51531.9
50328
49129.2
47935.6
46747.5
45565.2
44388.9
43219
42055.7
40899.3
39750.1
38608.4
37474.5
36348.7
35231.4
34122.7
33023.1
31932.8
30852
29781.1
28720.1
27669.3
26628.7
25598.1
24577.4
204571
204517
204420
204282
204104
203889
203641
203363
203058
202727
202372
201993
201591
201167
200720
200250
199758
199241
198698
198126
197525
196893
196234
195549
194840
194107
193351
192574
191774
190949
190097
189216
188304
187358
186377
185358
184303
183212
182087
180935
179764
178584
177407
176251
175134
174075
173090
172192
171389
170676
170042
169464
168919
168382
167833
167250
166622
165945
165217
164438
163613
162746
161843
160912
159962
158996
158019
157029
156025
155006
153975
152935
151885
150826
149756
148676
147585
146485
145376
144261
143137
142006
140865
139717
138561
137399
136233
135065
133893
132717
131538
130356
129171
127985
126798
125609
124418
123225
122029
120832
119632
118429
117224
116016
114806
113593
112378
111160
109940
108717
107491
106263
105033
103800
102565
101327
100088
98846.7
97603.4
96358.3
95111.6
93863.2
92613.4
91362.2
90109.8
88856.4
87601.9
86346.7
85090.8
83834.3
82577.5
81320.5
80063.3
78806.3
77549.5
76293.1
75037.4
73782.3
72528.2
71275.1
70023.3
68773
67524.2
66277.3
65032.4
63789.7
62549.4
61311.8
60077
58845.2
57616.8
56391.8
55170.6
53953.4
52740.3
51531.8
50328
49129.1
47935.5
46747.4
45565
44388.7
43218.7
42055.4
40898.9
39749.6
38607.8
37473.8
36347.9
35230.3
34121.4
33021.5
31930.7
30849.5
29778
28716.3
27664.6
26623
25591.3
24569.5
206177
206113
206001
205841
205639
205399
205126
204824
204495
204139
203753
203335
202886
202407
201898
201362
200800
200212
199598
198959
198293
197602
196888
196154
195400
194628
193836
193026
192198
191349
190478
189584
188664
187718
186744
185743
184712
183653
182568
181461
180338
179207
178077
176962
175876
174833
173848
172932
172090
171321
170618
169963
169340
168730
168114
167476
166803
166091
165337
164540
163701
162825
161915
160980
160027
159060
158082
157090
156084
155064
154030
152986
151933
150871
149800
148718
147625
146522
145411
144293
143168
142034
140891
139741
138584
137421
136254
135084
133912
132736
131557
130375
129191
128005
126817
125628
124436
123242
122046
120847
119646
118443
117237
116028
114817
113604
112388
111169
109948
108724
107498
106269
105038
103805
102569
101332
100092
98850.2
97606.6
96361.2
95114.2
93865.5
92615.5
91364.1
90111.5
88857.8
87603.3
86347.9
85091.8
83835.3
82578.3
81321.2
80064
78806.9
77550.1
76293.6
75037.8
73782.7
72528.5
71275.4
70023.6
68773.2
67524.4
66277.5
65032.6
63789.8
62549.5
61311.9
60077
58845.3
57616.8
56391.8
55170.6
53953.3
52740.3
51531.7
50327.9
49129
47935.4
46747.2
45564.8
44388.5
43218.5
42055.1
40898.5
39749.2
38607.3
37473.1
36347.1
35229.3
34120.2
33019.9
31928.8
30847.1
29775.1
28712.7
27660.3
26617.8
25585.1
24562.2
207789
207714
207583
207400
207172
206905
206604
206270
205901
205494
205046
204557
204031
203473
202888
202278
201646
200993
200321
199627
198914
198182
197432
196665
195882
195083
194270
193440
192595
191733
190851
189950
189028
188084
187117
186128
185115
184080
183023
181949
180862
179768
178674
177591
176530
175502
174518
173587
172715
171901
171141
170423
169734
169060
168386
167696
166981
166235
165456
164639
163786
162899
161984
161046
160091
159124
158143
157149
156141
155119
154084
153037
151981
150915
149841
148757
147663
146558
145443
144322
143194
142057
140912
139760
138602
137439
136271
135102
133929
132753
131574
130393
129209
128023
126835
125645
124453
123258
122061
120862
119660
118456
117249
116040
114828
113614
112397
111178
109956
108731
107505
106275
105044
103810
102574
101336
100096
98853.7
97609.7
96364
95116.7
93867.8
92617.5
91365.9
90113.1
88859.3
87604.6
86349
85092.9
83836.2
82579.2
81321.9
80064.7
78807.5
77550.6
76294.1
75038.2
73783.1
72528.9
71275.7
70023.9
68773.4
67524.6
66277.7
65032.7
63790
62549.6
61311.9
60077.1
58845.3
57616.8
56391.8
55170.6
53953.3
52740.3
51531.7
50327.8
49128.9
47935.3
46747.1
45564.7
44388.3
43218.3
42054.8
40898.2
39748.8
38606.8
37472.6
36346.3
35228.4
34119
33018.5
31927.1
30845
29772.4
28709.5
27656.3
26613
25579.5
24555.7
209404
209317
209164
208953
208694
208388
208037
207640
207195
206702
206167
205595
204992
204363
203714
203047
202364
201665
200951
200220
199472
198710
197932
197141
196337
195520
194690
193846
192988
192115
191225
190317
189392
188448
187484
186501
185500
184479
183441
182388
181325
180257
179189
178129
177086
176069
175087
174147
173252
172405
171600
170832
170090
169363
168639
167904
167151
166374
165571
164736
163870
162974
162052
161112
160156
159186
158202
157204
156194
155172
154137
153087
152026
150956
149878
148792
147696
146589
145472
144347
143215
142077
140930
139776
138618
137454
136287
135118
133945
132770
131591
130410
129226
128040
126852
125661