/*--------------------------------*- C++ -*----------------------------------*\
  =========                 |
  \\      /  F ield         | OpenFOAM: The Open Source CFD Toolbox
   \\    /   O peration     | Website:  https://openfoam.org
    \\  /    A nd           | Version:  9
     \\/     M anipulation  |
\*---------------------------------------------------------------------------*/
FoamFile
{
    format      ascii;
    class       volScalarField;
    location    "0.03";
    object      s_0;
}
// * * * * * * * * * * * * * * * * * * * * * * * * * * * * * * * * * * * * * //

dimensions      [0 0 0 0 0 0 0];

internalField   nonuniform List<scalar> 
12225
(
1
1
1
1
1
1
1
1
1
1
1
1
1
1
1
1
1
0.999959
1
1
1
1
1
1
1
1
1
1
1
1
1
1
1
1
1
0.999998
1
1
1
1
1
1
1
1
1
1
1
1
1
1
1
1
1
1
1
1
1
1
1
1
1
1
1
1
1
1
1
1
1
1
1
1
1
1
1
1
1
1
1
1
1
1
1
1
1
1
1
1
1
1
1
1
1
1
1
1
1
1
1
1
1
1
1
1
1
1
1
1
1
1
1
1
1
1
1
1
1
1
1
1
1
1
1
1
1
1
1
1
1
1
1
1
1
1
1
1
1
1
1
1
1
1
1
1
1
1
1
1
1
1
1
1
1
1
1
1
1
1
1
1
1
1
1
1
1
1
1
1
1
1
1
1
1
1
1
1
1
1
1
1
1
1
1
1
1
1
1
1
1
1
1
1
1
1
1
1
1
1
1
1
1
1
1
1
1
1
1
1
1
1
1
1
1
1
1
1
1
1
1
1
1
1
1
1
1
1
1
1
1
1
1
1
1
1
1
1
1
1
1
1
1
1
1
1
1
1
1
1
1
1
1
1
1
1
1
1
1
1
1
1
1
1
1
1
1
1
1
1
1
1
1
1
1
1
1
1
1
1
1
1
1
1
1
1
1
1
1
1
1
1
1
1
1
1
1
1
1
1
1
1
1
1
1
1
1
1
1
1
1
1
1
1
1
1
1
1
1
1
1
1
1
1
1
1
1
1
1
1
1
1
1
1
1
1
1
1
1
1
1
1
1
1
1
1
1
1
1
1
1
1
1
1
1
1
1
1
1
1
1
1
1
1
1
1
1
1
1
1
1
1
1
1
1
1
1
1
1
1
1
1
1
1
1
1
1
1
1
1
1
1
1
1
1
1
1
1
1
1
1
1
1
1
1
1
1
1
1
1
1
1
1
1
1
1
1
1
1
1
1
1
1
1
1
1
1
1
1
1
1
1
1
1
1
1
1
1
1
1
1
1
1
1
1
1
1
1
1
1
1
1
1
1
1
1
1
1
1
1
1
1
1
1
1
1
1
1
1
1
1
1
1
1
1
1
1
1
1
1
1
1
1
1
1
1
1
1
1
1
1
1
1
1
1
1
1
1
1
1
1
1
1
1
1
1
1
1
1
1
1
1
1
1
1
1
1
1
1
1
1
1
1
1
1
1
1
1
1
1
1
1
1
1
1
1
1
1
1
1
1
1
0.128171
0.208992
0.221807
0.221918
0.217305
0.247379
0.275946
0.316809
0.34734
0.37077
0.386056
0.398654
0.411967
0.423404
0.433877
0.438515
0.439407
0.439429
0.438855
0.436803
0.431469
0.422319
0.403264
0.34769
0.170332
0.0401508
0.00845917
0.00772787
0.015716
0.026578
0.0396197
0.0643178
0.0856794
0.0906515
0.104853
0.208014
0.624131
0.802885
0.80941
0.810657
0.81153
0.812317
0.812648
0.813052
0.813623
0.814248
0.814755
0.814979
0.815316
0.815786
0.815993
0.816161
0.816531
0.817086
0.817432
0.817588
0.817759
0.818097
0.818567
0.818984
0.81933
0.819827
0.820391
0.820608
0.820822
0.821331
0.82197
0.822393
0.822796
0.823492
0.824217
0.824738
0.825289
0.825905
0.826442
0.826946
0.827615
0.828364
0.829057
0.829726
0.830463
0.831315
0.832196
0.833129
0.833882
0.83452
0.835234
0.83604
0.836784
0.837527
0.838274
0.838936
0.83978
0.840855
0.841719
0.842771
0.84381
0.844874
0.845972
0.847091
0.84816
0.849223
0.850147
0.85075
0.850917
0.850572
0.849033
0.846025
0.84177
0.836118
0.828836
0.81964
0.80828
0.793964
0.77601
0.75419
0.727551
0.695317
0.658249
0.615994
0.566998
0.512428
0.45328
0.3867
0.314604
0.246245
0.186753
0.137474
0.0982715
0.0682136
0.0459997
0.0301786
0.0193019
0.0120597
0.00737256
0.00441505
0.00259146
0.00149108
0.000840859
0.000464604
0.000251466
0.00013332
6.92512e-05
3.52591e-05
1.76064e-05
8.62721e-06
4.14995e-06
1.96001e-06
9.08806e-07
4.13554e-07
1.84595e-07
8.0775e-08
3.46296e-08
1.45376e-08
5.9733e-09
2.40136e-09
9.44312e-10
3.63179e-10
1.36598e-10
5.02447e-11
1.8075e-11
6.35992e-12
2.18907e-12
7.3717e-13
2.42906e-13
7.83323e-14
2.47243e-14
7.63889e-15
2.31021e-15
6.83869e-16
1.98099e-16
5.6141e-17
1.55546e-17
4.21091e-18
1.11201e-18
2.86089e-19
7.14217e-20
1.724e-20
3.99502e-21
7.77442e-22
0.0887698
0.155266
0.147027
0.10194
0.112121
0.155159
0.22918
0.305482
0.3786
0.430734
0.463182
0.484291
0.496123
0.501678
0.502301
0.502053
0.500991
0.498413
0.492687
0.485458
0.479273
0.465688
0.450252
0.426453
0.374161
0.259043
0.145685
0.0694071
0.0465996
0.0548301
0.100806
0.11721
0.146482
0.434685
0.671493
0.723931
0.787502
0.805847
0.806606
0.805746
0.804576
0.803027
0.800709
0.798659
0.796811
0.794897
0.792397
0.790378
0.78931
0.787581
0.785984
0.785278
0.784877
0.784678
0.784576
0.784491
0.784479
0.784921
0.786177
0.787568
0.789006
0.791177
0.793449
0.795352
0.797407
0.799533
0.801123
0.802344
0.803676
0.804918
0.806162
0.8076
0.80901
0.810185
0.811262
0.812419
0.813729
0.814944
0.816005
0.81692
0.817579
0.818097
0.818858
0.819917
0.821053
0.822086
0.82309
0.824138
0.825094
0.826267
0.827602
0.829569
0.832133
0.834688
0.836663
0.838564
0.840234
0.841753
0.843199
0.84484
0.846876
0.849481
0.853029
0.857796
0.864004
0.87187
0.881468
0.892438
0.903701
0.91413
0.92302
0.930666
0.937897
0.945086
0.951966
0.957886
0.962503
0.965872
0.967916
0.968627
0.968432
0.966016
0.957526
0.949364
0.942098
0.928354
0.897608
0.830319
0.735019
0.6207
0.499909
0.385883
0.287777
0.208311
0.146496
0.100152
0.0665821
0.0430521
0.0270811
0.0165785
0.00988358
0.00574306
0.00325577
0.0018024
0.00097516
0.000515887
0.000266921
0.000135061
6.68157e-05
3.23034e-05
1.52562e-05
7.03542e-06
3.16682e-06
1.39103e-06
5.96158e-07
2.49275e-07
1.01696e-07
4.04842e-08
1.5729e-08
5.96551e-09
2.20916e-09
7.99018e-10
2.82326e-10
9.74844e-11
3.29018e-11
1.08573e-11
3.50359e-12
1.10585e-12
3.41394e-13
1.03107e-13
3.04524e-14
8.79832e-15
2.48353e-15
6.85487e-16
1.84375e-16
4.84398e-17
1.23193e-17
3.05195e-18
7.19866e-19
1.58171e-19
0.0313666
0.044453
0.0582507
0.0914458
0.16415
0.309467
0.43779
0.507298
0.538824
0.539472
0.537105
0.531697
0.525592
0.519903
0.513148
0.510798
0.507736
0.502958
0.498317
0.49264
0.488688
0.483818
0.473113
0.461833
0.444408
0.396616
0.354526
0.263735
0.162892
0.15531
0.25279
0.567909
0.648459
0.738446
0.7749
0.787612
0.79391
0.795533
0.785849
0.779348
0.773235
0.766636
0.762018
0.757395
0.755216
0.752952
0.75175
0.751227
0.751061
0.751057
0.751531
0.752312
0.75345
0.755301
0.757228
0.759536
0.762001
0.764654
0.767894
0.771278
0.775093
0.779015
0.782969
0.78698
0.790498
0.793587
0.796226
0.79814
0.79978
0.801424
0.803077
0.80488
0.806709
0.808394
0.809906
0.811284
0.812545
0.813528
0.814434
0.814801
0.814836
0.814634
0.813921
0.812622
0.811995
0.811889
0.812078
0.812947
0.814457
0.817709
0.822352
0.827257
0.831133
0.835155
0.838793
0.841725
0.843655
0.844564
0.844663
0.844119
0.843304
0.842222
0.841321
0.840825
0.840739
0.84117
0.842619
0.845584
0.851245
0.860389
0.872456
0.885039
0.896711
0.907435
0.917892
0.929219
0.941974
0.955083
0.967224
0.977142
0.984278
0.988849
0.991555
0.992978
0.993551
0.993634
0.993433
0.992446
0.989556
0.982908
0.968394
0.932716
0.829785
0.673161
0.522212
0.389651
0.28117
0.196406
0.132871
0.0871541
0.0555074
0.0343771
0.0207329
0.012191
0.00699507
0.00391869
0.00214363
0.00114487
0.000596769
0.000303474
0.000150494
7.27542e-05
3.42795e-05
1.574e-05
7.04312e-06
3.07156e-06
1.30574e-06
5.41196e-07
2.18759e-07
8.62607e-08
3.31909e-08
1.24656e-08
4.57103e-09
1.63701e-09
5.72702e-10
1.95778e-10
6.54054e-11
2.13592e-11
6.8179e-12
2.12779e-12
6.48968e-13
1.93526e-13
5.63509e-14
1.60391e-14
4.44738e-15
1.2046e-15
3.16032e-16
8.08347e-17
1.97632e-17
4.6122e-18
0.0227369
0.100565
0.153795
0.258356
0.462539
0.551595
0.578503
0.575734
0.56574
0.544829
0.516596
0.491212
0.473514
0.452589
0.442977
0.429342
0.428907
0.43212
0.439669
0.454459
0.468334
0.472104
0.469383
0.461414
0.449867
0.429788
0.392466
0.263809
0.216213
0.453221
0.660752
0.725386
0.755944
0.774898
0.780546
0.781902
0.773421
0.763773
0.755924
0.751101
0.748331
0.745514
0.744266
0.743716
0.743617
0.743947
0.744709
0.745685
0.746989
0.748354
0.749985
0.751561
0.753571
0.755972
0.758411
0.761146
0.763975
0.766969
0.770203
0.773358
0.776896
0.780719
0.784229
0.787618
0.79088
0.793929
0.79675
0.799202
0.801307
0.803251
0.805168
0.80717
0.809232
0.811351
0.813479
0.815175
0.815726
0.815868
0.815879
0.815781
0.815388
0.814424
0.81254
0.809639
0.808186
0.807916
0.808018
0.808883
0.811241
0.815643
0.82171
0.82878
0.837104
0.846095
0.85495
0.863404
0.870434
0.874583
0.874763
0.871132
0.86681
0.862373
0.858359
0.855009
0.851587
0.847937
0.844888
0.843469
0.843311
0.844359
0.848922
0.861377
0.877725
0.893197
0.905751
0.915575
0.923472
0.931216
0.940104
0.950724
0.962438
0.97366
0.982835
0.989392
0.993607
0.996143
0.997564
0.998231
0.998411
0.998372
0.998004
0.996588
0.99244
0.982518
0.959354
0.894898
0.732351
0.558542
0.408906
0.28887
0.197552
0.130945
0.0842113
0.0526041
0.0319463
0.0188709
0.0108438
0.00606038
0.00329308
0.00173916
0.000892494
0.00044501
0.000215611
0.000101535
4.64902e-05
2.07061e-05
8.97503e-06
3.78782e-06
1.55731e-06
6.24015e-07
2.43807e-07
9.29205e-08
3.45586e-08
1.2547e-08
4.4483e-09
1.54048e-09
5.21204e-10
1.7233e-10
5.56815e-11
1.75863e-11
5.42747e-12
1.63734e-12
4.8233e-13
1.38842e-13
3.8954e-14
1.06687e-14
2.83559e-15
7.33824e-16
1.82692e-16
4.35329e-17
0.14942
0.182555
0.279863
0.501884
0.597393
0.605844
0.593871
0.560617
0.493221
0.4504
0.426232
0.407898
0.387552
0.368557
0.358105
0.353595
0.354499
0.357651
0.364632
0.375469
0.395938
0.431751
0.452588
0.452468
0.445687
0.427274
0.361914
0.269137
0.501577
0.68821
0.742719
0.761931
0.76954
0.772409
0.770266
0.758207
0.750248
0.74644
0.743477
0.742276
0.741836
0.741775
0.742378
0.742909
0.744005
0.745561
0.74755
0.749723
0.752505
0.755844
0.758505
0.760746
0.763033
0.764811
0.765982
0.768054
0.770127
0.771408
0.772283
0.773345
0.77509
0.777166
0.778993
0.780354
0.781867
0.783781
0.785811
0.787998
0.790658
0.793331
0.795844
0.798742
0.801583
0.804165
0.806783
0.809911
0.811366
0.811918
0.812094
0.812104
0.811959
0.811372
0.81027
0.809293
0.808421
0.808408
0.809096
0.81081
0.813789
0.818483
0.824938
0.832997
0.841043
0.848047
0.85715
0.868281
0.879391
0.890148
0.89928
0.904131
0.900394
0.887856
0.877562
0.871683
0.868105
0.864834
0.861129
0.856084
0.850167
0.846078
0.844988
0.84556
0.849878
0.867008
0.893314
0.913085
0.92549
0.932908
0.938517
0.945014
0.952723
0.961219
0.969941
0.978232
0.985356
0.990816
0.994589
0.996972
0.998359
0.999071
0.999328
0.99935
0.999259
0.998816
0.997347
0.993007
0.981407
0.950862
0.856176
0.668067
0.49399
0.351142
0.241064
0.160285
0.103317
0.064552
0.0390848
0.022925
0.0130213
0.00716046
0.003812
0.00196508
0.000981317
0.000475005
0.000223027
0.000101653
4.50113e-05
1.93772e-05
8.11588e-06
3.3093e-06
1.31447e-06
5.08876e-07
1.92099e-07
7.07428e-08
2.54239e-08
8.9199e-09
3.0559e-09
1.02259e-09
3.34256e-10
1.0675e-10
3.33025e-11
1.01509e-11
3.02085e-12
8.77977e-13
2.4877e-13
6.87531e-14
1.84638e-14
4.82246e-15
1.21701e-15
2.94346e-16
0.157333
0.218942
0.469264
0.616344
0.632204
0.610631
0.530588
0.453828
0.42854
0.415106
0.400094
0.374889
0.347474
0.312043
0.301419
0.304407
0.315218
0.322359
0.326307
0.335745
0.359664
0.380205
0.409932
0.429435
0.434565
0.402412
0.327779
0.470491
0.690001
0.746696
0.761277
0.764991
0.765935
0.758468
0.749372
0.744845
0.742283
0.741176
0.740765
0.7409
0.741949
0.742863
0.745022
0.747071
0.749973
0.753061
0.75613
0.758321
0.759451
0.761001
0.762905
0.763716
0.764118
0.764415
0.764767
0.765104
0.765173
0.764928
0.764214
0.763847
0.763799
0.764474
0.765482
0.765994
0.766711
0.768123
0.768803
0.769519
0.771589
0.773873
0.775655
0.778624
0.781614
0.784339
0.787139
0.789725
0.792361
0.7945
0.796654
0.798089
0.800151
0.802872
0.807089
0.811221
0.814668
0.818108
0.8228
0.82832
0.833255
0.837528
0.840881
0.843615
0.845025
0.84722
0.849622
0.852186
0.860533
0.876079
0.895595
0.911996
0.922194
0.923948
0.912445
0.890808
0.878218
0.872011
0.868612
0.866577
0.864465
0.859335
0.851838
0.847556
0.846924
0.84866
0.858553
0.890421
0.922187
0.941164
0.950338
0.953524
0.95644
0.961296
0.967484
0.97413
0.980535
0.986174
0.990767
0.994233
0.996634
0.998155
0.999038
0.999488
0.999658
0.999679
0.999637
0.999403
0.998567
0.995937
0.988041
0.965462
0.895746
0.71587
0.531211
0.378512
0.259707
0.171902
0.109846
0.0677554
0.040317
0.0231361
0.0128055
0.00683927
0.00352748
0.00175864
0.000848419
0.0003965
0.000179696
7.90562e-05
3.37934e-05
1.4047e-05
5.68212e-06
2.23817e-06
8.58969e-07
3.21356e-07
1.17248e-07
4.17358e-08
1.44986e-08
4.91689e-09
1.62802e-09
5.26411e-10
1.66207e-10
5.12494e-11
1.54254e-11
4.53209e-12
1.29829e-12
3.62572e-13
9.8478e-14
2.60041e-14
6.6538e-15
1.63505e-15
0.151991
0.306585
0.594417
0.652433
0.636882
0.536651
0.448347
0.424609
0.417897
0.404166
0.367193
0.293151
0.222418
0.188048
0.187561
0.197725
0.232909
0.286763
0.312655
0.318905
0.325503
0.353118
0.401906
0.42418
0.405062
0.379585
0.415171
0.672226
0.744671
0.760412
0.76292
0.762095
0.753228
0.745253
0.74192
0.740464
0.739934
0.739857
0.740446
0.741757
0.743915
0.746347
0.748847
0.750768
0.752347
0.754335
0.756724
0.757624
0.757962
0.758097
0.757739
0.756521
0.754158
0.7507
0.746663
0.742692
0.739279
0.737116
0.736111
0.735823
0.736464
0.738748
0.741126
0.742869
0.744676
0.748249
0.750827
0.75251
0.754091
0.755872
0.756779
0.758288
0.760098
0.76209
0.764683
0.76749
0.770681
0.774516
0.779207
0.784777
0.791366
0.798897
0.807148
0.815347
0.824466
0.833746
0.840084
0.843253
0.845137
0.846734
0.848456
0.850972
0.855183
0.858415
0.855731
0.84698
0.840655
0.838188
0.844874
0.873066
0.91115
0.930526
0.934357
0.928909
0.905547
0.885868
0.875388
0.870233
0.868314
0.867552
0.866414
0.862068
0.855678
0.853812
0.854758
0.862999
0.894242
0.931626
0.954983
0.967669
0.973
0.974277
0.974716
0.975852
0.979854
0.985136
0.989462
0.992867
0.995416
0.997224
0.998422
0.999156
0.999567
0.999766
0.999832
0.999835
0.999796
0.999604
0.998901
0.996577
0.989154
0.966253
0.892215
0.705709
0.520012
0.367133
0.248669
0.161685
0.10095
0.0605412
0.0348914
0.0193387
0.010319
0.00530779
0.00263555
0.00126509
0.000587838
0.000264738
0.000115688
4.91018e-05
2.02593e-05
8.13201e-06
3.17762e-06
1.20946e-06
4.48622e-07
1.62243e-07
5.72269e-08
1.96938e-08
6.61368e-09
2.16789e-09
6.93612e-10
2.1663e-10
6.6027e-11
1.96371e-11
5.69451e-12
1.60945e-12
4.42696e-13
1.18406e-13
3.07484e-14
7.68709e-15
0.152456
0.401385
0.642996
0.66182
0.607452
0.479155
0.429355
0.421538
0.415052
0.377097
0.274115
0.198321
0.164541
0.151983
0.152719
0.177732
0.231675
0.269394
0.285663
0.298595
0.321523
0.361203
0.404407
0.409841
0.401544
0.424556
0.637812
0.737448
0.758768
0.762019
0.761288
0.753637
0.744455
0.740867
0.739507
0.739102
0.739055
0.739412
0.740436
0.742184
0.744512
0.746805
0.748935
0.750368
0.751213
0.752071
0.75259
0.751437
0.748312
0.743857
0.737236
0.729161
0.719924
0.709937
0.70259
0.697584
0.695665
0.695199
0.697236
0.702688
0.706539
0.712942
0.720641
0.726414
0.731722
0.737906
0.742723
0.745695
0.747867
0.749648
0.750478
0.751425
0.753064
0.754921
0.757474
0.760602
0.764373
0.768881
0.774218
0.780835
0.78872
0.797823
0.808975
0.820577
0.830941
0.838665
0.841861
0.841509
0.838012
0.834004
0.831608
0.834288
0.845367
0.860819
0.872687
0.875215
0.859099
0.837618
0.829535
0.831602
0.852777
0.906748
0.933322
0.937182
0.932272
0.909422
0.887572
0.876319
0.871411
0.870216
0.870472
0.872558
0.873677
0.871456
0.869434
0.870188
0.878771
0.910915
0.945479
0.967203
0.979352
0.98543
0.987857
0.988488
0.988585
0.988824
0.990084
0.992893
0.995193
0.996907
0.998111
0.998908
0.999404
0.999691
0.999841
0.999904
0.999917
0.99991
0.999856
0.999625
0.998793
0.995963
0.986602
0.956308
0.853088
0.650845
0.469358
0.322896
0.212213
0.133337
0.0801623
0.0461702
0.0255152
0.0135541
0.00693395
0.003422
0.00163183
0.000753031
0.000336716
0.00014606
6.15243e-05
2.51877e-05
1.00295e-05
3.88695e-06
1.46696e-06
5.39416e-07
1.93335e-07
6.75672e-08
2.30314e-08
7.65896e-09
2.485e-09
7.86736e-10
2.43008e-10
7.32211e-11
2.15117e-11
6.15919e-12
1.71712e-12
4.65708e-13
1.22806e-13
3.12508e-14
0.15789
0.47864
0.666502
0.664784
0.579458
0.461155
0.426315
0.425633
0.413369
0.346139
0.242105
0.181059
0.15946
0.162979
0.177578
0.206681
0.242355
0.266263
0.283568
0.303095
0.33697
0.388137
0.407167
0.411597
0.435202
0.595874
0.724928
0.755954
0.761048
0.761109
0.755795
0.747457
0.743075
0.739605
0.738689
0.738519
0.738568
0.739036
0.740161
0.741905
0.743976
0.745877
0.746823
0.746966
0.745254
0.742231
0.736908
0.72874
0.7167
0.701021
0.683608
0.665995
0.654914
0.648612
0.643787
0.641745
0.641264
0.643732
0.647134
0.654808
0.663173
0.672441
0.681615
0.692932
0.704643
0.716448
0.727426
0.734071
0.741667
0.74525
0.747431
0.749201
0.751125
0.752883
0.755272
0.758325
0.762165
0.766727
0.77194
0.778062
0.785386
0.793363
0.803363
0.813236
0.821275
0.824497
0.821993
0.808954
0.790004
0.775834
0.770673
0.771543
0.780562
0.80882
0.853655
0.885164
0.895309
0.887847
0.852771
0.832304
0.834561
0.859046
0.910777
0.932549
0.934654
0.927157
0.902914
0.884587
0.875426
0.872196
0.871992
0.873938
0.882682
0.890925
0.892453
0.892432
0.893801
0.904231
0.935174
0.961449
0.977989
0.987366
0.992335
0.994724
0.995704
0.996002
0.996037
0.996047
0.996266
0.997186
0.998191
0.998892
0.999356
0.999645
0.999814
0.999906
0.999947
0.999958
0.999956
0.999937
0.999842
0.999477
0.998172
0.993657
0.978267
0.925921
0.761343
0.554828
0.384489
0.253475
0.159206
0.0954398
0.0547125
0.030055
0.0158541
0.00804831
0.00394011
0.00186376
0.000853142
0.000378406
0.000162811
6.8017e-05
2.76133e-05
1.0902e-05
4.1884e-06
1.56671e-06
5.7087e-07
2.02707e-07
7.01668e-08
2.36835e-08
7.79635e-09
2.50332e-09
7.83997e-10
2.39464e-10
7.13137e-11
2.06983e-11
5.85189e-12
1.6104e-12
4.31349e-13
1.11738e-13
0.170287
0.525878
0.676804
0.665802
0.570185
0.457308
0.431379
0.427566
0.412471
0.341879
0.255957
0.218588
0.201116
0.196834
0.214253
0.232128
0.255821
0.274924
0.297939
0.334992
0.379983
0.403177
0.416988
0.444594
0.573845
0.709727
0.751634
0.76011
0.760828
0.758251
0.750365
0.74624
0.742074
0.738908
0.738063
0.737893
0.73792
0.738247
0.739171
0.740517
0.741304
0.741479
0.739541
0.73542
0.727414
0.715258
0.699272
0.679933
0.657662
0.635568
0.615308
0.5993
0.587326
0.578948
0.572314
0.569171
0.567987
0.568606
0.572615
0.577588
0.58629
0.599233
0.615395
0.632958
0.649956
0.6696
0.689554
0.706477
0.722796
0.735219
0.744023
0.749997
0.753823
0.756427
0.758438
0.761028
0.764519
0.768598
0.773134
0.778129
0.783607
0.78852
0.793876
0.797373
0.79791
0.793915
0.784769
0.770402
0.758443
0.753362
0.754018
0.756527
0.760999
0.770606
0.79078
0.84421
0.893926
0.906205
0.902634
0.87033
0.845358
0.850156
0.883778
0.916338
0.926164
0.925761
0.914465
0.894463
0.881871
0.875569
0.873843
0.874355
0.879596
0.897199
0.911724
0.916219
0.917521
0.920627
0.93385
0.958107
0.975532
0.986435
0.992658
0.995994
0.997683
0.998442
0.998708
0.998753
0.998738
0.998726
0.998775
0.999057
0.99943
0.999671
0.999819
0.999905
0.999952
0.999973
0.999979
0.999979
0.999969
0.999919
0.999721
0.998985
0.996332
0.986887
0.953506
0.834072
0.615217
0.42635
0.280017
0.174796
0.103979
0.0591004
0.0321794
0.016825
0.00846585
0.00410736
0.00192493
0.000872839
0.000383481
0.000163453
6.76532e-05
2.72114e-05
1.06431e-05
4.05046e-06
1.50065e-06
5.41497e-07
1.90379e-07
6.52366e-08
2.17931e-08
7.0986e-09
2.2547e-09
6.98311e-10
2.10864e-10
6.2061e-11
1.77985e-11
4.97122e-12
1.35258e-12
3.56583e-13
0.189297
0.561738
0.681721
0.667152
0.57448
0.468932
0.434195
0.433188
0.432661
0.404789
0.33179
0.281249
0.25987
0.252559
0.254631
0.269297
0.290969
0.318847
0.352343
0.385828
0.40333
0.422022
0.456223
0.56508
0.698322
0.746496
0.758739
0.76039
0.758706
0.751081
0.746681
0.743568
0.739031
0.737214
0.736803
0.736737
0.73663
0.736495
0.736498
0.736183
0.734113
0.729044
0.717841
0.699603
0.683761
0.668412
0.645122
0.613796
0.585876
0.565596
0.551877
0.541295
0.530054
0.521656
0.51327
0.505622
0.501247
0.499782
0.503171
0.512167
0.521993
0.533255
0.553657
0.570803
0.591342
0.611222
0.636801
0.666727
0.694253
0.718463
0.738554
0.751761
0.762796
0.772705
0.781868
0.789017
0.79461
0.79924
0.80323
0.806947
0.810311
0.812399
0.813264
0.811512
0.806855
0.798633
0.786859
0.773768
0.76577
0.765739
0.772037
0.783787
0.787239
0.786227
0.785658
0.802664
0.853367
0.899889
0.907897
0.900857
0.874764
0.866823
0.878784
0.91032
0.920953
0.921099
0.915853
0.903226
0.892442
0.884349
0.879905
0.878919
0.880212
0.889878
0.914937
0.932115
0.938133
0.940648
0.94564
0.959652
0.974879
0.985523
0.992128
0.995897
0.997906
0.998916
0.999376
0.999546
0.999581
0.999575
0.99956
0.999563
0.999612
0.99975
0.999856
0.999921
0.999959
0.999979
0.999988
0.99999
0.999989
0.999983
0.99995
0.999816
0.999301
0.997374
0.990226
0.963932
0.867307
0.644644
0.443865
0.288795
0.178334
0.104878
0.0589281
0.0317255
0.0164083
0.00817083
0.00392508
0.00182188
0.000818222
0.000355972
0.000150186
6.15112e-05
2.44786e-05
9.47312e-06
3.56736e-06
1.30781e-06
4.66943e-07
1.62426e-07
5.50613e-08
1.81941e-08
5.86109e-09
1.84079e-09
5.6365e-10
1.68238e-10
4.89456e-11
1.38751e-11
3.83425e-12
1.02831e-12
0.206957
0.577879
0.687937
0.677385
0.598417
0.484669
0.43988
0.435672
0.439032
0.431269
0.404964
0.372815
0.351471
0.341525
0.339033
0.35034
0.364554
0.377893
0.398518
0.409927
0.42825
0.468945
0.569688
0.690312
0.741584
0.757299
0.760269
0.759729
0.755051
0.74718
0.743646
0.73812
0.735602
0.734847
0.734587
0.734387
0.733804
0.732297
0.729624
0.724348
0.712683
0.695449
0.678752
0.665897
0.650279
0.629263
0.59817
0.565203
0.543588
0.53349
0.523717
0.507844
0.491388
0.473055
0.453055
0.433594
0.420143
0.413196
0.411139
0.420397
0.435399
0.454223
0.478788
0.502969
0.52608
0.549224
0.569754
0.591857
0.621809
0.658677
0.697367
0.730356
0.752368
0.770129
0.786477
0.802437
0.817807
0.831837
0.843989
0.854307
0.863229
0.871378
0.879203
0.886321
0.890514
0.888408
0.875383
0.856098
0.845991
0.847097
0.862906
0.891098
0.896795
0.891212
0.851165
0.816969
0.828919
0.8724
0.898761
0.900206
0.889186
0.882861
0.886691
0.908977
0.920967
0.921145
0.915575
0.909393
0.905867
0.901868
0.896809
0.893249
0.892366
0.894153
0.907615
0.934776
0.951357
0.957369
0.960503
0.967146
0.977124
0.985796
0.991913
0.995689
0.997814
0.998929
0.99948
0.999729
0.999824
0.999849
0.99985
0.999847
0.999849
0.999867
0.999915
0.99995
0.999972
0.999985
0.999992
0.999995
0.999995
0.999994
0.999989
0.999961
0.999849
0.999403
0.997668
0.990989
0.96561
0.870317
0.642351
0.43646
0.279994
0.170422
0.0988112
0.0547646
0.0291018
0.0148659
0.00731586
0.00347486
0.00159541
0.000708986
0.000305285
0.000127493
5.16809e-05
2.0349e-05
7.78801e-06
2.89919e-06
1.05042e-06
3.70633e-07
1.27421e-07
4.26939e-08
1.39443e-08
4.43989e-09
1.37828e-09
4.1713e-10
1.23085e-10
3.54054e-11
9.93369e-12
2.70869e-12
0.215654
0.589967
0.692967
0.683097
0.620908
0.518696
0.44961
0.437628
0.441519
0.442182
0.433446
0.416936
0.404362
0.398222
0.396122
0.400056
0.404441
0.409133
0.422956
0.438362
0.481302
0.582162
0.686573
0.736948
0.755228
0.759706
0.760046
0.75722
0.748949
0.744263
0.739999
0.733102
0.730842
0.730312
0.730063
0.729073
0.726469
0.720972
0.712158
0.699866
0.686943
0.672946
0.659596
0.647265
0.624437
0.5888
0.552789
0.530399
0.515419
0.499653
0.480213
0.447847
0.407867
0.364207
0.325668
0.299167
0.286391
0.281849
0.287742
0.305363
0.332918
0.368593
0.410616
0.454943
0.49494
0.528339
0.551756
0.565568
0.576252
0.588286
0.606404
0.633779
0.666042
0.694681
0.72187
0.751741
0.783674
0.811203
0.83284
0.848954
0.861241
0.87231
0.884543
0.899122
0.915246
0.930378
0.942053
0.949082
0.952793
0.956977
0.965564
0.975463
0.978016
0.976703
0.962041
0.888653
0.850675
0.861011
0.886941
0.893667
0.891225
0.88787
0.890127
0.909144
0.926976
0.927974
0.922399
0.91578
0.915076
0.917787
0.922986
0.923221
0.91998
0.918209
0.919444
0.931699
0.955178
0.968228
0.973759
0.977855
0.982948
0.988298
0.992768
0.995908
0.997846
0.99893
0.999492
0.999763
0.999883
0.99993
0.999945
0.999947
0.999948
0.999952
0.999964
0.999977
0.999987
0.999993
0.999996
0.999998
0.999998
0.999998
0.999997
0.99999
0.999962
0.999846
0.999369
0.997449
0.989837
0.960249
0.847392
0.609468
0.406851
0.256387
0.153406
0.0875157
0.0477703
0.0250237
0.0126107
0.0061264
0.00287403
0.0013038
0.000572642
0.000243758
0.000100652
4.03482e-05
1.5713e-05
5.94835e-06
2.19014e-06
7.84662e-07
2.73656e-07
9.29455e-08
3.0756e-08
9.91874e-09
3.11884e-09
9.56376e-10
2.86039e-10
8.34384e-11
2.37533e-11
6.58022e-12
0.220991
0.595694
0.698264
0.693923
0.638164
0.551686
0.468261
0.44419
0.441627
0.445035
0.444597
0.438249
0.430636
0.42693
0.425349
0.425318
0.428656
0.433827
0.453326
0.495614
0.595918
0.686585
0.733144
0.752659
0.758691
0.759735
0.758325
0.75152
0.743912
0.74036
0.734109
0.72702
0.724022
0.721786
0.720042
0.716492
0.709479
0.699322
0.687056
0.674307
0.66099
0.648447
0.636125
0.620215
0.596092
0.560571
0.524568
0.500324
0.481097
0.453298
0.414846
0.366567
0.315039
0.269461
0.239081
0.223977
0.217235
0.21519
0.222757
0.237638
0.266197
0.308377
0.360185
0.415966
0.471046
0.517942
0.551848
0.569195
0.57702
0.582127
0.587542
0.594629
0.602387
0.609502
0.616674
0.627321
0.646504
0.678603
0.714736
0.743099
0.761727
0.776371
0.795617
0.826192
0.866683
0.906726
0.938164
0.957577
0.970328
0.980126
0.987814
0.992166
0.993304
0.992774
0.987056
0.951932
0.890725
0.876299
0.88505
0.893137
0.892638
0.890517
0.891774
0.905616
0.936084
0.944984
0.942197
0.930852
0.92573
0.926558
0.936451
0.950668
0.955686
0.955329
0.952475
0.952018
0.957537
0.972626
0.982349
0.987725
0.990975
0.993406
0.995463
0.997135
0.998346
0.999118
0.999559
0.999791
0.999904
0.999953
0.999973
0.999979
0.999983
0.999986
0.99999
0.999993
0.999996
0.999997
0.999998
0.999999
0.999999
0.999999
0.999999
0.999997
0.999989
0.999954
0.999806
0.999183
0.996611
0.986222
0.945406
0.79362
0.552219
0.360311
0.222475
0.130617
0.073216
0.0393165
0.0202822
0.0100742
0.00482696
0.00223443
0.00100059
0.00043393
0.000182424
7.44066e-05
2.94673e-05
1.13387e-05
4.24177e-06
1.54358e-06
5.46667e-07
1.88498e-07
6.3306e-08
2.07134e-08
6.60436e-09
2.05235e-09
6.21846e-10
1.83746e-10
5.29973e-11
1.48933e-11
0.223209
0.598412
0.702832
0.702964
0.668808
0.586932
0.493146
0.455297
0.44614
0.445289
0.44724
0.446076
0.442209
0.440229
0.439547
0.441643
0.450022
0.468541
0.518268
0.610595
0.688843
0.731629
0.751032
0.758209
0.759939
0.759055
0.754811
0.745206
0.739728
0.735676
0.727497
0.720867
0.717976
0.714199
0.710359
0.704365
0.694351
0.68267
0.669621
0.657623
0.64592
0.634325
0.622741
0.606116
0.577492
0.537397
0.500065
0.474712
0.448643
0.408644
0.355342
0.299796
0.251938
0.218309
0.19851
0.188671
0.184604
0.185809
0.192963
0.204952
0.222846
0.253415
0.303593
0.369025
0.442231
0.505409
0.559367
0.600923
0.611957
0.612261
0.609373
0.605397
0.603946
0.60385
0.602918
0.602065
0.602268
0.604347
0.610241
0.618874
0.625967
0.631043
0.638426
0.654566
0.694421
0.772022
0.864957
0.926987
0.961612
0.979667
0.989288
0.994009
0.99545
0.995207
0.991341
0.968844
0.919238
0.896201
0.894163
0.899315
0.900479
0.898556
0.898379
0.905238
0.935122
0.959412
0.964351
0.959074
0.94663
0.942972
0.945235
0.959409
0.973619
0.97994
0.981224
0.980464
0.97915
0.980011
0.986029
0.992184
0.99547
0.997223
0.998213
0.998832
0.999254
0.999548
0.999744
0.999864
0.999933
0.999968
0.999984
0.999991
0.999994
0.999996
0.999997
0.999998
0.999999
0.999999
1
1
1
1
1
0.999999
0.999996
0.999984
0.999932
0.999702
0.998723
0.994631
0.978013
0.912788
0.706613
0.476451
0.30352
0.183343
0.105499
0.0580522
0.0306433
0.0155555
0.00760931
0.00359285
0.00163972
0.000724187
0.000309835
0.000128531
5.1741e-05
2.02271e-05
7.68421e-06
2.83852e-06
1.02012e-06
3.56857e-07
1.21567e-07
4.03444e-08
1.30486e-08
4.11425e-09
1.26513e-09
3.79489e-10
1.11116e-10
3.17011e-11
0.223578
0.598793
0.707013
0.709591
0.68678
0.629459
0.531159
0.476406
0.457617
0.451488
0.449949
0.44948
0.448279
0.448073
0.451636
0.462073
0.486379
0.538746
0.625985
0.694536
0.732496
0.750857
0.758273
0.760263
0.759872
0.756482
0.747555
0.737311
0.732727
0.727934
0.719396
0.712811
0.709311
0.705777
0.701432
0.694836
0.683801
0.669686
0.654642
0.642589
0.632425
0.622616
0.612949
0.5963
0.566697
0.527363
0.485034
0.448022
0.411983
0.369221
0.319129
0.270147
0.229796
0.202481
0.185715
0.176842
0.173927
0.175231
0.182237
0.194682
0.208188
0.230862
0.273838
0.338007
0.407723
0.477401
0.550469
0.612216
0.655752
0.669468
0.67236
0.669251
0.659553
0.649615
0.638165
0.625617
0.614511
0.606771
0.603101
0.602461
0.603299
0.603898
0.605131
0.608074
0.615185
0.634886
0.695969
0.819373
0.910496
0.958582
0.981985
0.992144
0.99529
0.995317
0.992142
0.973637
0.933786
0.912541
0.909467
0.91611
0.923154
0.92228
0.919809
0.920577
0.934113
0.96257
0.977684
0.981213
0.978889
0.970792
0.967506
0.969115
0.979283
0.98808
0.991996
0.993128
0.993148
0.992986
0.993196
0.995019
0.997397
0.998652
0.999264
0.999572
0.999741
0.999843
0.999905
0.999944
0.999968
0.999983
0.999991
0.999996
0.999998
0.999999
0.999999
1
1
1
1
1
1
1
1
1
0.999999
0.999994
0.999972
0.999877
0.999459
0.997666
0.990183
0.960034
0.842576
0.597616
0.393097
0.244197
0.144186
0.08127
0.0438792
0.0227564
0.011361
0.00546979
0.00254337
0.00114362
0.000497803
0.000209972
8.58964e-05
3.41067e-05
1.31545e-05
4.9313e-06
1.79793e-06
6.37895e-07
2.20353e-07
7.41452e-08
2.43136e-08
7.77302e-09
2.42396e-09
7.37591e-10
2.1918e-10
6.35442e-11
0.212568
0.584497
0.709349
0.71869
0.709065
0.668122
0.589488
0.509786
0.478614
0.465106
0.459709
0.458171
0.458442
0.463814
0.476173
0.503084
0.557707
0.635946
0.699159
0.733612
0.750896
0.758496
0.761031
0.761459
0.759372
0.752908
0.738774
0.729364
0.724777
0.719534
0.711617
0.705556
0.700776
0.69688
0.692898
0.68676
0.676518
0.662787
0.648004
0.634539
0.623471
0.613267
0.603999
0.59224
0.568532
0.531513
0.489158
0.4499
0.412372
0.370647
0.323047
0.276179
0.236618
0.209109
0.191304
0.18079
0.178551
0.179618
0.183803
0.194605
0.207128
0.22614
0.265143
0.328066
0.397025
0.450529
0.509306
0.597033
0.673897
0.726032
0.75065
0.76301
0.767137
0.765862
0.755201
0.730337
0.699773
0.671131
0.649739
0.63582
0.626598
0.619317
0.613354
0.610266
0.610934
0.61761
0.635354
0.682702
0.809653
0.907673
0.960193
0.984543
0.993248
0.994413
0.992105
0.975562
0.942111
0.925275
0.922683
0.92819
0.948672
0.960083
0.960919
0.957573
0.956203
0.96479
0.981468
0.989555
0.991832
0.991674
0.989765
0.988168
0.98829
0.991651
0.995545
0.997242
0.997812
0.99795
0.998088
0.998497
0.99908
0.999484
0.999718
0.999843
0.99991
0.999947
0.999968
0.999981
0.999988
0.999993
0.999996
0.999998
0.999999
1
1
1
1
1
1
1
1
1
1
1
0.999999
0.999997
0.999987
0.999942
0.999739
0.998853
0.995075
0.979513
0.917839
0.716844
0.483883
0.308692
0.186834
0.107769
0.0594658
0.0314823