/*--------------------------------*- C++ -*----------------------------------*\
  =========                 |
  \\      /  F ield         | OpenFOAM: The Open Source CFD Toolbox
   \\    /   O peration     | Website:  https://openfoam.org
    \\  /    A nd           | Version:  9
     \\/     M anipulation  |
\*---------------------------------------------------------------------------*/
FoamFile
{
    format      ascii;
    class       volScalarField;
    location    "0.08";
    object      epsilonU;
}
// * * * * * * * * * * * * * * * * * * * * * * * * * * * * * * * * * * * * * //

dimensions      [0 2 -3 0 0 0 0];

internalField   nonuniform List<scalar> 
12225
(
222.795
168.158
130.419
104.906
88.4741
78.9166
74.6037
74.2503
76.7978
81.3574
87.1855
93.6732
100.343
106.847
112.955
118.557
123.644
129.493
39.9778
48.8313
52.8664
57.1948
64.0911
74.8552
90.3557
111.06
136.966
167.596
202.089
239.372
278.366
318.174
358.268
398.647
440.274
484.243
19.915
23.9341
26.7246
28.9873
31.2931
34.0506
37.5605
42.0244
47.5352
54.0795
61.5607
69.8388
78.7794
88.3106
98.4979
109.662
122.622
138.959
15.8905
17.2162
18.3725
19.3618
20.2843
21.2414
22.3165
23.5691
25.0311
26.7083
28.5874
30.6465
32.8673
35.2492
37.8286
40.7092
44.1194
48.443
14.8194
15.0531
15.3659
15.6829
15.9922
16.3044
16.6372
17.0071
17.4259
17.8989
18.4259
19.0046
19.6331
20.3138
21.0585
21.895
22.8768
24.0798
14.5162
14.3163
14.2157
14.1707
14.1581
14.167
14.1945
14.2409
14.3079
14.3967
14.5077
14.6407
14.7961
14.9753
15.1822
15.4248
15.7161
16.0668
14.4325
14.0734
13.786
13.5547
13.366
13.2097
13.0792
12.9703
12.8805
12.8084
12.7529
12.7133
12.6894
12.6816
12.691
12.7199
12.7714
12.8453
14.4106
13.9989
13.6369
13.3196
13.0412
12.7959
12.5786
12.3853
12.2128
12.0588
11.9216
11.7997
11.6923
11.5991
11.5198
11.4548
11.4046
11.3678
14.4052
13.9779
13.5898
13.238
12.9194
12.6307
12.3687
12.1303
11.9131
11.7148
11.5336
11.3679
11.2167
11.0791
10.9545
10.8424
10.7426
10.6542
14.4039
13.9724
13.5762
13.2123
12.8782
12.5711
12.2887
12.0287
11.7891
11.5679
11.3636
11.1747
11.0001
10.8387
10.6899
10.5529
10.4272
10.3126
14.4036
13.9711
13.5725
13.205
12.8655
12.5517
12.2613
11.9923
11.7427
11.511
11.2957
11.0954
10.9091
10.7357
10.5745
10.4247
10.2856
10.1576
14.4035
13.9707
13.5716
13.203
12.8621
12.5463
12.2534
11.9813
11.7282
11.4926
11.2731
11.0683
10.8772
10.6988
10.5323
10.3768
10.2319
10.098
14.4035
13.9705
13.5713
13.2024
12.861
12.5445
12.2506
11.9774
11.7231
11.486
11.2647
11.0581
10.8649
10.6843
10.5154
10.3573
10.2096
10.0729
14.4034
13.9704
13.5711
13.202
12.8605
12.5438
12.2496
11.9761
11.7213
11.4837
11.2619
11.0546
10.8607
10.6793
10.5095
10.3504
10.2016
10.0636
14.4034
13.9703
13.5709
13.2018
12.8602
12.5434
12.2492
11.9756
11.7207
11.483
11.2611
11.0538
10.8598
10.6782
10.5082
10.3489
10.1997
10.0613
14.4033
13.9703
13.5708
13.2017
12.86
12.5432
12.249
11.9753
11.7205
11.4829
11.261
11.0537
10.8598
10.6783
10.5083
10.3489
10.1997
10.0612
14.4033
13.9702
13.5707
13.2016
12.8598
12.543
12.2488
11.9752
11.7205
11.4829
11.2611
11.0539
10.8601
10.6786
10.5086
10.3493
10.1999
10.0612
14.4033
13.9702
13.5706
13.2015
12.8598
12.543
12.2488
11.9753
11.7205
11.483
11.2613
11.0542
10.8603
10.6789
10.5088
10.3494
10.1999
10.0609
14.4032
13.9701
13.5706
13.2015
12.8598
12.5431
12.2489
11.9754
11.7208
11.4833
11.2616
11.0545
10.8606
10.6791
10.5089
10.3492
10.1994
10.06
14.4032
13.9701
13.5706
13.2016
12.86
12.5433
12.2492
11.9758
11.7212
11.4838
11.2621
11.0549
10.8609
10.6793
10.5089
10.349
10.1989
10.0591
14.4032
13.9701
13.5707
13.2017
12.8602
12.5436
12.2497
11.9764
11.7218
11.4845
11.2628
11.0556
10.8617
10.68
10.5096
10.3496
10.1993
10.0594
14.4033
13.9702
13.5709
13.2021
12.8608
12.5445
12.2509
11.9779
11.7238
11.4869
11.2657
11.059
10.8656
10.6844
10.5145
10.355
10.2053
10.0659
14.4033
13.9706
13.5718
13.2038
12.8637
12.5489
12.2572
11.9864
11.7348
11.5005
11.2822
11.0785
10.8882
10.7101
10.5434
10.3872
10.2408
10.1047
14.4039
13.9731
13.5781
13.2157
12.883
12.5772
12.2956
12.0358
11.7957
11.5733
11.3669
11.1752
10.9968
10.8306
10.6756
10.5309
10.396
10.2712
14.4093
13.9932
13.622
13.2905
12.9932
12.7252
12.4821
12.2604
12.0573
11.8707
11.6989
11.5404
11.3942
11.2595
11.1355
11.0216
10.9173
10.823
14.4521
14.1243
13.8664
13.6559
13.4774
13.3208
13.1801
13.0521
12.9357
12.8305
12.7366
12.6544
12.5843
12.5266
12.4814
12.449
12.4292
12.4223
14.7358
14.8139
14.9464
15.0713
15.1727
15.2515
15.3156
15.3749
15.4392
15.517
15.6152
15.7391
15.8926
16.0782
16.2978
16.5523
16.8422
17.1663
16.4042
17.9492
19.0843
19.8856
20.4821
20.9752
21.4397
21.9325
22.4964
23.1633
23.956
24.8912
25.9797
27.2282
28.6398
30.2155
31.9546
33.8511
27.1924
32.6111
34.8805
36.0142
36.9325
38.0783
39.6963
41.9332
44.88
48.595
53.115
58.4605
64.6368
71.6359
79.4382
88.0144
97.3364
107.32
142.551
119.594
101.666
87.5836
76.5255
67.892
61.2344
56.2061
52.5325
49.9916
48.4011
47.6086
47.4857
47.923
48.8267
50.1168
51.7255
53.5895
14.8154
48.4851
62.8681
67.2322
67.3378
65.5672
62.803
59.1405
53.6085
45.9426
37.8319
7.88125
7.13659
6.8816
7.23583
7.96391
8.31803
8.72042
8.94704
48.9874
127.225
233.125
352.602
474.09
588.042
687.812
769.459
831.286
873.301
896.713
903.508
896.109
877.105
849.027
814.206
774.708
732.855
691.82
651.767
612.862
575.251
539.04
504.301
471.07
439.356
409.144
380.393
353.046
327.031
302.267
278.672
256.172
234.714
214.269
194.842
176.468
159.213
143.168
128.454
115.249
103.875
95.041
90.5455
92.1189
96.2366
101.592
108.056
115.659
124.457
134.483
145.713
158.015
171.034
184.064
195.778
204.125
206.262
199.92
183.95
159.344
129.428
98.3328
70.1695
46.4493
8.32592
6.64482
5.84902
5.85937
6.58822
7.95624
9.67543
50.6083
61.2777
71.3709
80.1733
86.2045
89.084
91.8984
105.224
160.547
301.385
453.692
590.373
696.02
765.352
799.342
802.483
780.898
741.049
688.958
629.623
569.672
511.528
456.193
404.367
356.471
312.691
273.031
237.35
205.406
176.904
151.547
129.107
109.557
93.5199
85.0842
91.5142
101.966
114.402
128.94
145.866
165.397
187.569
212.116
238.476
266.003
291.442
303.026
292.514
258.341
205.999
148.72
100.638
72.2727
61.4008
61.6193
62.2359
13.9818
12.5339
10.5575
8.44808
6.53546
5.03386
4.04486
3.50883
3.28769
3.24349
3.32634
3.64608
4.46024
6.02392
8.58982
11.052
12.0253
10.8541
10.4892
10.9648
11.448
11.9249
12.3327
12.5586
12.5379
12.1961
11.4951
10.4773
9.53209
8.91975
8.81343
9.95663
13.2544
45.6328
70.469
64.3841
56.4898
48.3042
40.9176
34.9294
30.9742
28.4875
26.113
22.9913
19.0416
19.9401
28.8543
47.7106
80.2499
133.013
160.818
178.999
199.494
223.447
246.967
265.51
276.699
279.581
274.319
261.861
243.662
221.478
197.195
172.684
149.664
129.573
113.484
102.037
95.423
93.8078
92.6757
91.736
90.9225
90.1856
89.4886
88.8052
88.116
87.405
86.6558
85.8482
84.956
83.9457
82.7768
81.4054
79.7881
77.8893
75.6886
73.1875
70.4139
67.4223
64.2905
61.1148
58.0047
55.0803
52.4685
50.2962
48.7004
47.5622
46.6941
46.0686
45.6707
45.4823
45.48
45.6342
45.9136
46.2927
46.7723
47.3944
48.2566
49.5409
51.7021
55.2992
57.8435
58.3926
57.4019
55.4558
52.5563
48.1249
42.7052
35.797
28.2362
21.3725
16.2139
13.1805
12.1653
12.2518
13.4162
16.5392
25.169
46.4926
82.8402
125.34
158.78
188.961
206.97
210.294
200.605
181.564
157.314
131.818
108.459
89.7056
76.9185
70.4667
68.6939
67.253
66.0717
65.1203
64.3697
63.7879
63.3338
62.9503
62.5565
62.0472
61.2999
60.1965
58.6533
56.6553
54.4297
52.5379
50.4988
48.3318
46.1595
44.0755
42.1476
40.4198
38.9061
37.5929
36.4924
35.7839
38.4212
44.8693
50.5123
53.0417
53.1141
53.5764
57.5214
65.4509
76.0589
85.144
87.7703
84.9242
76.6511
64.7673
51.5172
38.8007
27.8393
19.2097
13.0323
9.07992
6.82237
5.84301
6.17319
8.82323
14.9203
19.061
15.9658
11.6394
10.2304
10.2644
10.6892
11.2999
12.0103
12.6965
13.1829
13.2412
12.6693
11.408
9.85701
8.46245
7.30051
6.57571
6.60194
67.549
69.7993
62.2649
53.2728
43.8782
35.888
29.9089
26.2881
24.813
25.4334
29.652
41.9096
70.8286
117.611
148.724
158.344
160.072
160.046
160.385
161.674
162.605
161.243
156.324
147.626
135.728
121.764
107.125
93.1538
80.8972
70.9726
63.5663
58.5261
55.4928
54.0198
53.6667
54.0755
54.7285
55.415
56.0848
56.7122
57.2871
57.8159
58.3173
58.8179
59.3442
59.9157
60.5374
61.1948
61.851
62.4478
62.9086
63.1466
63.0744
62.6171
61.7253
60.3858
58.6255
56.509
54.1277
51.5873
48.9934
46.4367
43.9823
41.8762
40.055
38.448
37.0488
35.8554
34.8637
34.0672
33.4561
33.0181
32.7409
32.6176
32.656
32.8846
33.3493
34.0775
35.0099
35.9365
36.7456
37.0819
36.7608
36.1776
35.4775
34.3706
32.2623
28.8729
24.5874
20.2593
16.7696
14.9029
15.0922
18.2091
27.6639
47.673
74.6264
96.7726
107.891
114.451
116.271
110.724
98.9507
84.0885
69.5098
57.5138
48.9794
43.7347
41.0933
40.252
40.5214
41.2328
42.0638
42.9711
43.932
44.9352
45.9763
47.0485
48.1308
49.1749
50.0962
50.7753
51.0766
50.8631
49.9991
48.6356
46.9521
44.9085
42.6153
40.1798
37.6844
35.1919
32.7487
30.3889
28.1369
26.018
24.0516
22.3008
21.1428
21.0432
21.6751
22.5449
23.5651
25.1434
27.6738
31.2066
35.1958
38.7321
41.1274
41.8601
40.7332
37.8363
33.4687
28.0981
22.3104
16.7001
11.8706
8.48751
6.91739
7.50202
11.1792
17.1461
18.3385
14.5439
11.4573
10.6668
10.6801
10.9184
11.3186
11.8055
12.3107
12.6963
12.7444
12.2204
11.0275
9.56321
8.10699
6.78612
5.71196
4.94056
84.3753
76.3774
69.7673
56.6804
44.6137
35.3504
30.9038
31.8774
37.8772
50.0866
70.7281
98.5739
125.519
139.978
140.204
134.167
127.924
122.845
118.563
114.28
109.048
102.265
93.9665
84.7436
75.4449
66.8866
59.6469
53.9955
49.9335
47.2845
45.7876
45.167
45.1738
45.6039
46.3006
47.0917
47.7774
48.2874
48.5778
48.6293
48.4536
48.0969
47.6371
47.1753
46.8208
46.6733
46.8051
47.2474
47.9831
48.948
50.0376
51.1183
52.0407
52.6568
52.8399
52.5059
51.6278
50.2386
48.4214
46.2888
43.9599
41.5398
39.1537
37.0567
35.1333
33.3812
31.809
30.4244
29.2335
28.2414
27.4518
26.8663
26.4836
26.2978
26.295
26.4486
26.7216
27.0719
27.4574
27.8458
28.208
28.4788
28.6352
28.4113
28.0013
27.4975
26.6981
25.2847
23.1875
20.797
18.9119
18.6165
21.6094
30.5891
46.8285
65.2846
77.8097
82.3103
83.4003
81.7873
76.4128
67.3163
56.7917
47.2898
40.141
35.5072
32.9175
31.7412
31.4303
31.5976
32.0131
32.5673
33.1849
33.8335
34.4996
35.1891
35.9235
36.7296
37.6233
38.5913
39.5769
40.4724
41.1383
41.4213
41.2225
40.6255
39.6606
38.385
36.8833
35.2328
33.4949
31.7153
29.9266
28.1518
26.4079
24.707
23.0593
21.4676
19.9219
18.4653
17.1888
16.1982
15.563
15.3252
15.5099
16.1047
17.0154
18.0732
19.089
19.8755
20.2685
20.1281
19.3374
17.8342
15.6649
13.0352
10.3876
8.36023
7.61363
8.86255
12.5686
16.9865
16.7977
13.6762
11.6476
11.084
10.9521
10.9482
11.028
11.1807
11.4022
11.6115
11.6269
11.1979
10.226
8.99561
7.6698
6.41965
5.35439
4.51596
99.5296
92.9021
80.6176
64.4119
52.9774
48.7495
50.6808
56.6888
67.6236
82.2968
97.9967
110.33
115.687
113.911
108.191
101.885
96.3816
91.5206
86.7465
81.5992
75.8859
69.7656
63.659
58.0477
53.3078
49.6372
47.0647
45.4984
44.7813
44.7367
45.1971
46.0183
47.081
48.2845
49.5399
50.6294
51.4579
51.9213
51.9206
51.3802
50.2691
48.6209
46.5454
44.2278
41.9083
39.8453
38.2685
37.334
37.098
37.5159
38.4636
39.7661
41.2174
42.5961
43.6863
44.3062
44.339
43.7524
42.598
40.9857
39.0481
36.9104
34.8475
32.9046
31.0685
29.3586
27.7904
26.3761
25.1267
24.0524
23.1625
22.4646
21.9632
21.658
21.5419
21.5969
21.7892
22.0648
22.3564
22.6132
22.8312
23.0387
23.2429
23.3887
23.3031
23.073
22.7739
22.371
21.8306
21.4099
21.9522
24.9995
32.5482
45.0582
58.33
65.9818
67.6366
67.0174
64.9749
60.678
53.921
45.9706
38.682
33.124
29.4317
27.2339
26.053
25.5038
25.3373
25.4101
25.6431
25.9788
26.3443
26.7028
27.0412
27.3742
27.7416
28.1975
28.7894
29.5347
30.4025
31.2962
32.0771
32.6005
32.7728
32.6304
32.196
31.5222
30.6712
29.7006
28.6554
27.5677
26.4583
25.3398
24.2186
23.0947
21.9609
20.8027
19.5988
18.324
16.9875
15.6341
14.3507
13.2423
12.3886
11.818
11.5073
11.3983
11.4181
11.4916
11.5466
11.5111
11.308
10.8652
10.1404
9.15587
8.10323
7.46713
7.87695
9.77611
13.103
16.1683
15.6973
13.3311
11.9762
11.5112
11.254
10.9988
10.738
10.5442
10.4732
10.4888
10.4418
10.0909
9.36438
8.35426
7.20217
6.07363
5.07922
4.26427
114.987
111.442
96.3341
78.4013
68.6119
66.7195
68.3233
73.2674
80.0205
86.71
91.4925
93.1121
91.4871
87.6566
83.0537
78.6055
74.48
70.4658
66.386
62.2345
58.1636
54.4152
51.2287
48.77
47.1067
46.2181
46.0228
46.4095
47.2622
48.4748
49.9547
51.6182
53.3822
55.1571
56.8423
58.4838
59.9725
61.1453
61.8071
61.7488
60.7757
58.7513
55.6489
51.6012
46.9257
42.0998
37.672
34.1262
31.7535
30.6009
30.5189
31.2648
32.5698
34.1546
35.7324
37.0278
37.8159
37.9632
37.4553
36.3728
34.8477
33.1074
31.3548
29.6128
27.926
26.3253
24.8309
23.457
22.2156
21.1181
20.1758
19.3985
18.7932
18.3618
18.0996
17.9945
18.0251
18.1587
18.3519
18.5605
18.7618
18.9675
19.2075
19.5006
19.6966
19.7917
19.9088
20.2074
20.8372
22.1402
25.0387
31.1592
41.4658
52.9022
59.167
59.1326
57.3293
55.2778
52.0784
47.0759
40.8308
34.6643
29.6362
26.0538
23.7099
22.2452
21.3605
20.8687
20.6627
20.6726
20.8476
21.0924
21.3331
21.5268
21.6569
21.741
21.8311
22.0032
22.3312
22.8581
23.5701
24.3796
25.1516
25.7148
26.0559
26.1551
26.0312
25.726
25.2888
24.7644
24.1876
23.5821
22.9618
22.3325
21.694
21.0399
20.3579
19.6288
18.8221
17.8976
16.8462
15.683
14.4507
13.2157
12.0519
11.0201
10.1549
9.46246
8.92763
8.52143
8.20745
7.94524
7.69223
7.41099
7.08369
6.72957
6.47182
6.66619
7.82968
10.1595
13.1149
15.3177
14.9549
13.385
12.3666
11.944
11.5798
11.098
10.5348
10.034
9.70107
9.53416
9.39384
9.10343
8.54967
7.7309
6.7526
5.75597
4.84723
4.07687
127.455
132.08
113.463
93.0929
81.0585
75.0886
73.5632
74.2737
75.7061
76.7633
76.7583
75.4514
73.0324
69.9634
66.7127
63.5311
60.4598
57.487
54.6507
52.0392
49.7611
47.9158
46.5672
45.7304
45.3742
45.439
45.8573
46.5712
47.5391
48.7339
50.1353
51.7215
53.4617
55.3087
57.3508
59.6673
62.1602
64.6742
66.9963
68.8515
69.9064
69.7879
68.1312
64.6716
59.3844
52.6332
45.2232
38.2351
32.6391
28.9206
27.0008
26.5104
27.0469
28.2546
29.8
31.3488
32.5872
33.2683
33.2827
32.657
31.5404
30.1844
28.6912
27.1486
25.6187
24.1418
22.7431
21.4389
20.2409
19.1598
18.2061
17.3897
16.7182
16.1944
15.8154
15.5723
15.4514
15.4357
15.5037
15.6304
15.7942
15.99
16.2327
16.5401
16.8982
17.249
17.7062
18.5123
19.9895
22.6477
27.4726
35.6994
46.4196
54.2408
54.8847
51.6962
49.1333
46.649
43.0533
38.1715
32.8268
28.0321
24.3264
21.7068
19.9232
18.7257
17.9511
17.5053
17.3215
17.3359
17.5022
17.7012
17.8727
17.9698
17.9704
17.8884
17.7806
17.7378
17.856
18.1976
18.7583
19.4379
20.0908
20.6473
21.0451
21.2622
21.3113
21.2247
21.0413
20.7962
20.5167
20.2209
19.9188
19.6141
19.3045
18.9822
18.6325
18.2328
17.7499
17.1438
16.3956
15.5039
14.4911
13.3986
12.277
11.1761
10.1375
9.19205
8.35878
7.64574
7.0502
6.5596
6.15395
5.81406
5.53791
5.36117
5.40471
5.97395
7.51535
10.0655
12.7968
14.5478
14.4407
13.4864
12.7487
12.3395
11.8802
11.2167
10.4295
9.69143
9.13213
8.78499
8.54573
8.26585
7.81696
7.15284
6.33163
5.46325
4.64424
3.92826
135.023
146.752
125.846
101.339
84.9075
76.0311
71.4577
69.0553
67.6182
66.42
65.0382
63.2852
61.1733
58.8508
56.4971
54.2349
52.1219
50.1846
48.4421
46.9118
45.6096
44.5433
43.7046
43.0708
42.6153
42.32
42.1816
42.2107
42.4279
42.8595
43.5368
44.494
45.7629
47.3638
49.4931
52.1175
55.1836
58.5961
62.2072
65.8095
69.1265
71.7972
73.3508
73.1931
70.6719
65.3248
57.3248
47.8367
38.7589
31.7577
27.3481
25.1344
24.4913
24.9078
25.9953
27.3911
28.7355
29.6918
30.0429
29.7708
29.0258
27.9568
26.6908
25.3287
23.9432
22.583
21.2796
20.0521
18.9131
17.8723
16.9384
16.1198
15.4234
14.8515
14.401
14.0635
13.8286
13.6885
13.639
13.6754
13.7876
13.962
14.1958
14.5021
14.9087
15.3972
16.0674
17.19
19.215
22.8095
28.9348
38.0728
47.584
51.8341
49.4896
45.4249
42.8635
40.2735
36.6471
32.1523
27.6168
23.7619
20.835
18.7253
17.2274
16.1852
15.5044
15.119
14.9644
14.9722
15.0954
15.2425
15.3593
15.3977
15.3283
15.1561
14.9337
14.7571
14.7378
14.9509
15.3614
15.89
16.4519
16.9624
17.3648
17.6372
17.7863
17.8354
17.8136
17.7473
17.6572
17.5568
17.4541
17.3524
17.2511
17.1444
17.0198
16.8556
16.6173
16.2694
15.7843
15.1474
14.365
13.4628
12.4782
11.4512
10.4194
9.41553
8.46756
7.59829
6.82444
6.15546
5.59334
5.13696
4.79582
4.61367
4.71349
5.37844
7.01599
9.61442
12.2336
13.8061
13.978
13.4817
12.9641
12.5612
12.0466
11.2999
10.3952
9.50602
8.77485
8.25057
7.88796
7.5732
7.18138
6.63474
5.94656
5.19418
4.46146
3.80286
134.166
147.297
126.083
101.065
83.5271
73.0569
66.8696
63.0681
60.5752
58.7327
57.1225
55.5127
53.8377
52.1491
50.5349
49.0495
47.6951
46.4401
45.2437
44.0727
42.9056
41.7318
40.5533
39.3874
38.2659
37.2281
36.3127
35.5538
34.9847
34.646
34.592
34.8932
35.6294
36.8774
38.7992
41.3329
44.4623
48.1332
52.2398
56.6225
61.0753
65.3588
69.1883
72.1461
73.5209
72.2377
67.2301
58.4146
47.5299
37.5724
30.4595
26.2735
24.2564
23.6755
24.0517
25.0033
26.1549
27.136
27.6242
27.5948
27.1017
26.2554
25.1758
23.9663
22.7054
21.448
20.2308
19.0768
18.0005
17.0114
16.1166
15.3226
14.6345
14.0535
13.5753
13.19
12.887
12.6624
12.5237
12.4844
12.5505
12.7089
12.9377
13.2362
13.6399
14.1712
14.9288
16.202
18.5275
22.6675
29.4361
38.4883
46.22
47.955
44.4293
40.5056
38.0543
35.4937
32.0013
27.9324
24.039
20.8223
18.3742
16.565
15.2461
14.3169
13.7068
13.3493
13.1785
13.135
13.1885
13.2712
13.3374
13.3413
13.2479
13.0518
12.7964
12.5711
12.4937
12.6129
12.9166
13.3466
13.8268
14.287
14.6794
14.9831
15.1992
15.3425
15.4328
15.4885
15.5238
15.5475
15.5652
15.5807
15.5963
15.6119
15.6219
15.6103
15.545
15.395
15.124
14.7068
14.1354
13.4207
12.5883
11.6714
10.7049
9.72221
8.75384
7.82722
6.96582
6.18846
5.50927
4.94026
4.5015
4.24301
4.2864
4.8938
6.44264
8.94288
11.4785
13.0236
13.4503
13.2989
12.9668
12.5846
12.0495
11.2894
10.3604
9.39631
8.5374
7.86166
7.37404
7.00646
6.64347
6.18429
5.60438
4.95144
4.29628
3.69258
123.774
135.722
118.67
95.9897
78.9306
68.2497
61.7423
57.7001
55.1053
53.3194
51.9318
50.7124
49.5771
48.5254
47.5655
46.6686
45.7681
44.7852
43.6527
42.3293
40.8061
39.1115
37.3079
35.4769
33.6968
32.0248
30.4933
29.1192
27.9218
26.9397
26.243
25.9364
26.1514
27.0875
28.6956
30.9655
33.9071
37.5034
41.6901
46.3346
51.2308
56.1373
60.8556
65.2431
69.0059
71.2906
70.4837
65.0353
55.1593
43.9992
34.8919
28.9202
25.5692
23.9696
23.5462
23.9062
24.6562
25.4253
25.9212
25.9992
25.6514
24.9536
24.01
22.9193
21.7601
20.5899
19.4484
18.3617
17.3465
16.413
15.5678
14.8155
14.1591
13.5983
13.1272
12.7337
12.4047
12.1361
11.9416
11.8506
11.8869
12.0459
12.2923
12.5955
12.9751
13.4791
14.2211
15.5173
17.9549
22.3129
29.1696
37.5274
43.5608
43.8259
40.1002
36.5875
34.334
31.8926
28.5975
24.8841
21.482
18.7015
16.5607
14.9454
13.7501
12.8987
12.3228
11.9508
11.724
11.6072
11.587
11.6049
11.6225
11.6025
11.5089
11.3267
11.0932
10.8912
10.8047
10.8874
11.1361
11.5033
11.9273
12.3536
12.7438
13.078
13.352
13.5729
13.7524
13.9018
14.0286
14.1363
14.2268
14.3026
14.3686
14.4315
14.4957
14.5568
14.5937
14.5791
14.4719
14.2366
13.8511
13.311
12.6289
11.8299
10.9457
10.0102
9.05716
8.11788
7.21992
6.38631
5.63575
4.98511
4.45845
4.10812
4.05204
4.52903
5.88406
8.17227
10.5931
12.1678
12.807
12.9176
12.755
12.429
11.9186
11.1945
10.2892
9.29142
8.33937
7.54229
6.95159
6.53748
6.19385
5.80236
5.30902
4.73779
4.14857
3.59379
111.907
120.366
107.726
88.5671
73.033
62.9774
56.8475
53.1319
50.8733
49.4701
48.5431
47.8767
47.3652
46.9474
46.5525
46.0827
45.4265
44.4822
43.178
41.4882
39.4471
37.151
34.7358
32.3361
30.0482
27.9162
25.943
24.1163
22.4369
20.9461
19.744
18.9857
18.8585
19.6193
21.0132
23.0303
25.6777
28.9746
32.9234
37.4656
42.434
47.5469
52.5229
57.2675
61.8078
65.8532
68.0179
66.1352
58.9284
48.6099
39.0386
32.0397
27.6655
25.187
23.9895
23.6961
23.9721
24.4537
24.8211
24.8802
24.5767
23.9524
23.0922
22.0843
21.0033
19.9051
18.8297
17.8045
16.8478
15.9709
15.1803
14.4795
13.87
13.3497
12.9112
12.5404
12.2206
11.9448
11.7287
11.6131
11.6412
11.8224
12.1128
12.4451
12.8003
13.2359
13.8914
15.1185
17.5252
21.8425
28.3894
35.7751
40.4232
39.9622
36.4974
33.4305
31.3457
29.0479
26.0388
22.7219
19.6757
17.1533
15.1902
13.7094
12.6018
11.7953
11.2216
10.8112
10.5182
10.3446
10.2696
10.2335
10.2028
10.1512
10.0571
9.90785
9.72328
9.56281
9.5025
9.59054
9.82356
10.1623
10.5604
10.9781
11.385
11.7607
12.096
12.3916
12.6529
12.8853
13.0901
13.2645
13.4047
13.5095
13.5839
13.6397
13.6917
13.7503
13.8139
13.8661
13.8656
13.7689
13.5399
13.1574
12.6191
11.9389
11.143
10.2648
9.34037
8.40543
7.49218
6.62799
5.83496
5.13162
4.54079
4.11069
3.95033
4.27345
5.38922
7.39435
9.64662
11.2428
12.0414
12.3468
12.3403
12.1042
11.6561
10.9932
10.1311
9.12394
8.11096
7.23098
6.57479
6.13884
5.81998
5.4854
5.0606
4.5538
4.0178
3.50425
98.8824
104.878
96.504
81.1784
67.4414
58.1738
52.5589
49.2986
47.4935
46.5803
46.2087
46.1654
46.31
46.5192
46.6585
46.5822
46.1494
45.2408
43.7779
41.7493
39.2339
36.3991
33.453
30.5794
27.8903
25.4152
23.1291
20.9897
18.9746
17.1155
15.5273
14.4517
14.2856
15.1479
16.5686
18.4761
20.8648
23.7847
27.2979
31.4288
36.0989
41.0642
45.9785
50.6858
55.1959
59.6163
62.9795
63.2403
58.8477
50.7259
41.8216
34.5925
29.674
26.5955
24.8144
23.9925
23.8339
23.9979
24.1636
24.1176
23.7784
23.1637
22.3394
21.3819
20.3576
19.3182
18.3013
17.3335
16.4333
15.6129
14.8793
14.2357
13.682
13.2151
12.8264
12.5
12.2163
11.9639
11.7569
11.6433
11.6844
11.9085
12.2705
12.6675
13.0203
13.3779
13.9094
15.0038
17.2687
21.348
27.3315
33.6721
37.2637
36.5318
33.5001
30.834
28.8953
26.7594
24.0475
21.0888
18.3437
16.0411
14.2186
12.8192
11.7653
10.9779
10.3811
9.91876
9.57025
9.36043
9.2415
9.15895
9.08516
9.00435
8.90516
8.7769
8.63209
8.51881
8.50102
8.6169
8.85984
9.19812
9.59959
10.0366
10.4825
10.9147
11.3192
11.692
12.0346
12.348
12.6281
12.8653
13.0487
13.1711
13.2346
13.2523
13.2469
13.2435
13.2639
13.3097
13.3487
13.3362
13.2247
12.9763
12.5703
12.0063
11.3016
10.4862
9.59747
8.67453
7.75454
6.86989
6.04704
5.307
4.67113
4.18029
3.92889
4.10279
4.97379
6.66693
8.70194
10.2775
11.1762
11.6151
11.7393
11.6067
11.2408
10.6484
9.83591
8.83769
7.79865
6.88472
6.21367
5.79214
5.51173
5.22815
4.85612
4.39722
3.90181
3.42146
84.1818
92.1083
87.5294
75.4787
63.259
54.474
49.1052
46.1179
44.6538
44.1635
44.3066
44.8598
45.6454
46.4876
47.2032
47.6128
47.5517
46.8773
45.4853
43.3477
40.5517
37.311
33.9046
30.5734
27.5144
24.7488
22.2488
19.9648
17.8693
15.9954
14.4402
13.3321
13.2603
14.1186
15.506
17.2658
19.3846
21.9277
24.9784
28.5917
32.7402
37.2454
41.7905
46.1484
50.3919
54.6077
58.1677
59.4046
56.6746
50.2587
42.5268
35.8316
30.9841
27.7102
25.6134
24.4449
23.9566
23.8362
23.7808
23.5825
23.1544
22.5021
21.6778
20.7453
19.7616
18.7714
17.808
16.8955
16.0514
15.2879
14.6125
14.0284
13.5353
13.1291
12.8002
12.5321
12.3027
12.0957
11.921
11.8296
11.8984
12.1784
12.6336
13.1328
13.5332
13.8386
14.2451
15.1703
17.2083
20.9047
26.1801
31.5066
34.3085
33.5487
30.9775
28.6531
26.8493
24.8852
22.4647
19.8314
17.3493
15.2266
13.5154
12.1845
11.1714
10.3975
9.78787
9.29412
8.91147
8.65526
8.48889
8.36422
8.25564
8.14955
8.03781
7.91626
7.79816
7.72539
7.75121
7.90313
8.17122
8.53145
8.96365
9.44674
9.95326
10.4558
10.9362
11.3883
11.8121
12.2058
12.5605
12.86
13.0863
13.2257
13.2752
13.246
13.1632
13.0624
12.9869
12.9604
12.9695
12.9776
12.9338
12.7856
12.4933
12.0382
11.4244
10.6755
9.82735
8.92159
7.99972
7.09916
6.25123
5.48074
4.80969
4.27277
3.94765
3.98994
4.63341
6.01788
7.80608
9.31214
10.2538
10.7676
10.9814
10.939
10.6539
10.1289
9.36578
8.3963
7.37505
6.48714
5.85932
5.49157
5.26374
5.02502
4.6901
4.26317
3.79652
3.34204
71.4806
83.4971
80.335
71.9609
61.2276
52.5212
46.901
43.7625
42.3197
42.0111
42.4803
43.4816
44.8029
46.2268
47.5323
48.5133
48.9857
48.786
47.7821
45.9099
43.2278
39.9402
36.3488
32.7521
29.3809
26.3372
23.6437
21.2857
19.2551
17.5805
16.3268
15.5891
15.6089
16.1993
17.2169
18.5943
20.3362
22.4921
25.1224
28.2659
31.8984
35.875
39.937
43.8871
47.7585
51.5892
54.8237
56.029
53.7953
48.364
41.7551
35.9306
31.5296
28.3567
26.1753
24.837
24.1357
23.7873
23.5194
23.1497
22.6037
21.8859
21.0396
20.1171
19.1648
18.2193
17.3078
16.4508
15.6638
14.9581
14.3415
13.8178
13.3868
13.0441
12.78
12.5775
12.4127
12.2647
12.1365
12.0772
12.1756
12.5077
13.0592
13.6887
14.1997
14.5168
14.838
15.5911
17.3477
20.5656
25.0659
29.4534
31.6553
30.9732
28.824
26.7887
25.1154
23.3249
21.1802
18.8454
16.6027
14.6401
13.0257
11.7505
10.7632
9.99338
9.37522
8.86936
8.46904
8.18212
7.97833
7.81829
7.67858
7.54769
7.42018
7.2967
7.19385
7.15179
7.21616
7.40578
7.7097
8.1122
8.60103
9.15472
9.73944
10.3216
10.8805
11.4101
11.9108
12.379
12.8012
13.1556
13.4192
13.5742
13.6139
13.545
13.3899
13.1864
12.9907
12.8468
12.7667
12.7325
12.6997
12.6085
12.4023
12.042
11.5148
10.8333
10.0292
9.14481
8.2251
7.31207
6.44178
5.64325
4.94084
4.3659
3.98127
3.9126
4.35568
5.45416
6.98759
8.38625
9.32417
9.86213
10.1163
10.1288
9.90251
9.43014
8.71364
7.7992
6.84957
6.05312
5.52456
5.24302
5.0745
4.86958
4.55445
4.14426
3.69614
3.26167
60.7433
82.3296
76.1043
69.553
61.0408
52.7993
46.6542
42.8366
40.8915
40.3162
40.7328
41.864
43.4685
45.3018
47.1162
48.6809
49.793
50.2742
49.9723
48.7856
46.7122
43.8859
40.5568
37.0221
33.5498
30.3246
27.4498
24.9723
22.9138
21.292
20.1251
19.4406
19.3637
19.7251
20.4578
21.5423
22.9983
24.8658
27.1814
29.9558
33.1422
36.5981
40.1129
43.5583
46.9695
50.2856
52.8641
53.3975
50.877
45.8724
40.2166
35.3224
31.487
28.5558
26.4413
25.0658
24.2429
23.7147
23.25
22.7063
22.0329
21.2401
20.3651
19.4491
18.5274
17.6276
16.7702
15.9712
15.2434
14.5969
14.0395
13.5755
13.2057
12.9262
12.7275
12.5929
12.4977
12.416
12.3418
12.3165
12.4341
12.7953
13.4197
14.181
14.8503
15.2702
15.5857
16.2029
17.6612
20.3525
24.0663
27.6036
29.3307
28.7526
26.9628
25.1728
23.6274
22.0055
20.1156
18.0561
16.0391
14.2304
12.7082
11.4815
10.5138
9.74727
9.12744
8.61872
8.20809
7.89778
7.66335
7.47371
7.30792
7.15495
7.01087
6.88033
6.7847
6.76539
6.86345
7.09235
7.44382
7.91019
8.48078
9.12579
9.80043
10.4649
11.0983
11.6973
12.2633
12.79
13.259
13.6447
13.9236
14.0804
14.1097
14.0155
13.8128
13.5318
13.2264
12.9526
12.749
12.6237
12.5488
12.4679
12.3134
12.0276
11.5776
10.9615
10.2031
9.34334
8.42938
7.50729
6.61749
5.79299
5.06104
4.45192
4.01731
3.85622
4.12781
4.97102
6.2576
7.52783
8.43225
8.95984
9.21074
9.23478
9.03297
8.59256
7.92219
7.09568
6.27409
5.62745
5.23915
5.05905
4.94257
4.75261
4.43806
4.03093
3.59361
3.1754
52.8111
94.8507
82.0146
71.2373
62.6717
55.0068
48.5885
43.8969
40.9702
39.5684
39.3927
40.1702
41.648
43.5702
45.6743
47.7082
49.4466
50.6954
51.2901
51.104
50.0766
48.2466
45.759
42.8367
39.7271
36.6522
33.7816
31.2296
29.0642
27.3194
26.0067
25.1504
24.7654
24.7867
25.199
26.0008
27.2029
28.8184
30.849
33.2701
36.0054
38.9103
41.8321
44.7234
47.6032
50.2412
51.8234
51.2036
47.9847
43.216
38.4388
34.3859
31.058
28.3989
26.4315
25.0932
24.1959
23.5119
22.8623
22.1525
21.3593
20.4996
19.6041
18.7027
17.819
16.9713
16.1734
15.4368
14.7714
14.1859
13.6878
13.2824
12.9713
12.7521
12.6164
12.5485
12.5236
12.5124
12.4979
12.5073
12.6301
12.9863
13.6368
14.4967
15.3405
15.9479
16.3624
16.9198
18.1039
20.2587
23.1971
25.9503
27.2664
26.7765
25.2845
23.7086
22.2911
20.8335
19.1831
17.3867
15.5947
13.9463
12.5226
11.3469
10.3994
9.63752
9.0175
8.50704
8.09027
7.76453
7.50712
7.29338
7.10507
6.93154
6.76993
6.62879
6.53531
6.53425
6.66478
6.93925
7.35537
7.91056
8.58688
9.33832
10.1068
10.8483
11.5452
12.1979
12.8076
13.3624
13.8377
14.2077
14.4565
14.581
14.5859
14.4773
14.2619
13.9537
13.5841
13.2072
12.8821
12.644
12.4902
12.3787
12.2408
12.0052
11.6196
11.0644
10.3521
9.51946
8.61444
7.68659
6.78036
5.9324
5.17273
4.53155
4.05269
3.81324
3.93861
4.55606
5.60897
6.74223
7.60124
8.10574
8.32972
8.33272
8.126
7.703
7.08788
6.38415
5.735
5.27314
5.03849
4.94997
4.86093
4.65952
4.32636
3.91197
3.48128
3.07817
50.3989
111.29
99.748
82.2776
69.4109
59.9984
52.7047
47.0894
43.0679
40.548
39.3649
39.3162
40.1843
41.7343
43.7141
45.8664
47.9486
49.7473
51.083
51.8141
51.8471
51.1548
49.7887
47.8739
45.5854
43.1151
40.6419
38.3134
36.2392
34.492
33.1162
32.1819
31.6122
31.4166
31.5993
32.1625
33.1058
34.4204
36.0834
38.0454
40.213
42.4657
44.7332
47.0212
49.2317
50.8571
50.9504
48.8175
44.92
40.569
36.643
33.2376
30.3008
27.9183
26.1383
24.8593
23.8897
23.0479
22.2198
21.3609
20.4718
19.5712
18.68
17.8146
16.987
16.2061
15.4795
14.8143
14.218
13.6981
13.2617
12.9148
12.6608
12.4989
12.423
12.4193
12.4647
12.5278
12.5816
12.6337
12.7574
13.0806
13.705
14.6025
15.5831
16.3991
16.9844
17.5713
18.5648
20.272
22.5584
24.6716
25.6541
25.213
23.9325
22.5197
21.21
19.8895
18.4367
16.864
15.2735
13.7772
12.452
11.3301
10.4058
9.65079
9.03122
8.51896
8.09649
7.75693
7.47969
7.24441
7.0344
6.83916
6.65738
6.50255
6.40921
6.42712
6.59616
6.93202
7.43997
8.11555
8.92226
9.79098
10.6508
11.4583
12.2019
12.8858
13.5056
14.0391
14.4558
14.7364
14.8839
14.9185
14.8648
14.7383
14.5401
14.2617
13.8945
13.4773
13.075
12.7434
12.5063
12.3431
12.1947
11.9844
11.6454
11.1409
10.4706
9.66472
8.77058
7.84022
6.92162
6.05461
5.2714
4.60226
4.08556
3.78184
3.78796
4.21445
5.05532
6.05293
6.86785
7.35704
7.55626
7.52973
7.30705
6.89982
6.35165
5.78622
5.32354
5.04685
4.94565
4.91195
4.81059
4.56818
4.20127
3.7751
3.35144
2.9651
50.0902
107.352
116.618
101.711
84.5911
70.8917
60.6758
53.0999
47.5432
43.6497
41.1941
39.9925
39.8642
40.6144
42.0265
43.8659
45.8934
47.8837
49.6396
51.0005
51.8491
52.1191
51.8019
50.947
49.6535
48.0534
46.2913
44.5063
42.8197
41.3291
40.1086
39.2251
38.6005
38.269
38.2507
38.5548
39.1802
40.1153
41.3332
42.7787
44.369
46.0398
47.7786
49.5179
50.8914
51.1242
49.4892
46.1586
42.2112
38.507
35.1497
32.0668
29.3832
27.2375
25.6083
24.3463
23.2813
22.294
21.3299
20.3791
19.4508
18.5563
17.7037
16.8971
16.1391
15.4319
14.7788
14.1844
13.6543
13.1954
12.8147
12.5187
12.3124
12.1971
12.1691
12.2176
12.3221
12.452
12.5738
12.6765
12.8094
13.0935
13.6605
14.5412
15.6012
16.5996
17.3848
18.0715
18.9664
20.3354
22.1012
23.6998
24.4041
23.9757
22.8393
21.5479
20.3256
19.1159
17.8234
16.4386
15.0267
13.6736
12.4477
11.3851
10.4904
9.74716
9.13102
8.61843
8.19219
7.84268
7.55058