/*--------------------------------*- C++ -*----------------------------------*\
  =========                 |
  \\      /  F ield         | OpenFOAM: The Open Source CFD Toolbox
   \\    /   O peration     | Website:  https://openfoam.org
    \\  /    A nd           | Version:  9
     \\/     M anipulation  |
\*---------------------------------------------------------------------------*/
FoamFile
{
    format      ascii;
    class       surfaceScalarField;
    location    "0.08";
    object      phi;
}
// * * * * * * * * * * * * * * * * * * * * * * * * * * * * * * * * * * * * * //

dimensions      [0 3 -1 0 0 0 0];

internalField   nonuniform List<scalar> 
24170
(
3.05099e-06
1.37418e-07
2.89119e-06
1.598e-07
2.74177e-06
1.49421e-07
2.60018e-06
1.41584e-07
2.46605e-06
1.34134e-07
2.34086e-06
1.25192e-07
2.2251e-06
1.15757e-07
2.11842e-06
1.06681e-07
2.02011e-06
9.83105e-08
1.92924e-06
9.08682e-08
1.84463e-06
8.46045e-08
1.76483e-06
7.98064e-08
1.688e-06
7.68243e-08
1.61185e-06
7.61496e-08
1.53324e-06
7.8612e-08
1.4474e-06
8.58385e-08
1.34554e-06
1.01862e-07
1.38005e-07
1.20754e-06
3.49149e-06
6.31743e-08
3.53947e-06
1.11822e-07
3.57043e-06
1.18459e-07
3.58588e-06
1.26141e-07
3.58776e-06
1.32253e-07
3.57885e-06
1.34098e-07
3.56151e-06
1.33095e-07
3.53756e-06
1.30636e-07
3.50843e-06
1.27443e-07
3.47522e-06
1.24077e-07
3.43867e-06
1.21151e-07
3.39914e-06
1.19339e-07
3.35654e-06
1.19417e-07
3.31031e-06
1.22386e-07
3.25912e-06
1.29801e-07
3.20055e-06
1.4441e-07
3.13087e-06
1.71539e-07
2.21352e-07
3.04752e-06
3.67733e-06
4.83603e-08
3.69339e-06
9.57629e-08
3.70957e-06
1.0228e-07
3.72734e-06
1.08371e-07
3.74503e-06
1.14566e-07
3.76143e-06
1.17694e-07
3.77595e-06
1.18577e-07
3.78814e-06
1.1844e-07
3.79771e-06
1.17876e-07
3.80448e-06
1.17307e-07
3.80839e-06
1.17248e-07
3.80939e-06
1.18336e-07
3.80746e-06
1.21349e-07
3.80252e-06
1.27326e-07
3.79447e-06
1.37849e-07
3.78352e-06
1.55355e-07
3.77154e-06
1.83524e-07
2.25302e-07
3.76759e-06
3.93335e-06
4.03949e-08
3.94288e-06
8.62341e-08
3.94868e-06
9.64836e-08
3.95449e-06
1.02555e-07
3.96043e-06
1.08632e-07
3.96609e-06
1.12033e-07
3.97149e-06
1.13182e-07
3.97655e-06
1.1337e-07
3.9811e-06
1.13328e-07
3.98491e-06
1.13497e-07
3.98779e-06
1.14367e-07
3.98959e-06
1.16539e-07
3.9902e-06
1.20742e-07
3.98961e-06
1.27915e-07
3.98812e-06
1.39341e-07
3.98673e-06
1.56738e-07
3.98857e-06
1.81693e-07
2.15285e-07
3.99858e-06
4.21359e-06
3.39302e-08
4.2225e-06
7.73227e-08
4.22762e-06
9.13696e-08
4.23184e-06
9.83325e-08
4.23572e-06
1.04753e-07
4.23884e-06
1.08915e-07
4.24118e-06
1.10836e-07
4.24282e-06
1.11737e-07
4.24369e-06
1.12458e-07
4.2437e-06
1.13485e-07
4.24276e-06
1.15299e-07
4.24082e-06
1.18483e-07
4.23785e-06
1.23716e-07
4.23395e-06
1.31813e-07
4.22956e-06
1.43726e-07
4.2258e-06
1.60496e-07
4.22499e-06
1.82504e-07
2.09374e-07
4.23091e-06
4.51424e-06
2.87783e-08
4.52229e-06
6.92763e-08
4.52766e-06
8.59921e-08
4.53197e-06
9.40232e-08
4.53595e-06
1.00777e-07
4.53919e-06
1.05671e-07
4.54155e-06
1.08481e-07
4.54304e-06
1.10247e-07
4.54364e-06
1.11859e-07
4.54328e-06
1.13843e-07
4.54191e-06
1.16665e-07
4.53953e-06
1.20868e-07
4.53618e-06
1.2706e-07
4.53209e-06
1.35901e-07
4.52778e-06
1.4804e-07
4.52431e-06
1.63966e-07
4.5234e-06
1.83412e-07
2.05084e-07
4.52769e-06
4.83676e-06
2.47332e-08
4.84393e-06
6.21085e-08
4.84949e-06
8.04383e-08
4.85388e-06
8.96247e-08
4.8579e-06
9.67608e-08
4.86129e-06
1.0228e-07
4.86384e-06
1.05931e-07
4.86554e-06
1.08546e-07
4.86639e-06
1.11011e-07
4.86635e-06
1.13886e-07
4.86539e-06
1.17621e-07
4.86356e-06
1.227e-07
4.86098e-06
1.29638e-07
4.85795e-06
1.38931e-07
4.85503e-06
1.50959e-07
4.85317e-06
1.65828e-07
4.85361e-06
1.82969e-07
2.01002e-07
4.8577e-06
5.18278e-06
2.15336e-08
5.18912e-06
5.57705e-08
5.19467e-06
7.48897e-08
5.19912e-06
8.51758e-08
5.20313e-06
9.27452e-08
5.20663e-06
9.87825e-08
5.20937e-06
1.03187e-07
5.21132e-06
1.06601e-07
5.21247e-06
1.09858e-07
5.21282e-06
1.13533e-07
5.21239e-06
1.18051e-07
5.21126e-06
1.23831e-07
5.20962e-06
1.31284e-07
5.2078e-06
1.40749e-07
5.20636e-06
1.52402e-07
5.20606e-06
1.66125e-07
5.20775e-06
1.81274e-07
1.96712e-07
5.21204e-06
5.55391e-06
1.89651e-08
5.55946e-06
5.02121e-08
5.56487e-06
6.94831e-08
5.56938e-06
8.06678e-08
5.57344e-06
8.86857e-08
5.57706e-06
9.51577e-08
5.58003e-06
1.00217e-07
5.58227e-06
1.04365e-07
5.58379e-06
1.08341e-07
5.58461e-06
1.12709e-07
5.58479e-06
1.17867e-07
5.58446e-06
1.24163e-07
5.58384e-06
1.31906e-07
5.58328e-06
1.41307e-07
5.58328e-06
1.52401e-07
5.58444e-06
1.64969e-07
5.5873e-06
1.78411e-07
1.91923e-07
5.59209e-06
5.95187e-06
1.68691e-08
5.95673e-06
4.53508e-08
5.96192e-06
6.42928e-08
5.96649e-06
7.60984e-08
5.97064e-06
8.45382e-08
5.97442e-06
9.13791e-08
5.97765e-06
9.69847e-08
5.98024e-06
1.01773e-07
5.98221e-06
1.06372e-07
5.98361e-06
1.11308e-07
5.98453e-06
1.16946e-07
5.98513e-06
1.23568e-07
5.98565e-06
1.31391e-07
5.98642e-06
1.40529e-07
5.98789e-06
1.50934e-07
5.9905e-06
1.6236e-07
5.99461e-06
1.74305e-07
1.8626e-07
6.00027e-06
6.37855e-06
1.51264e-08
6.38282e-06
4.10829e-08
6.38777e-06
5.93498e-08
6.39239e-06
7.14771e-08
6.39666e-06
8.02633e-08
6.40064e-06
8.74052e-08
6.40418e-06
9.34394e-08
6.40721e-06
9.87472e-08
6.40973e-06
1.03849e-07
6.41183e-06
1.09212e-07
6.41361e-06
1.15161e-07
6.41526e-06
1.21918e-07
6.41702e-06
1.29628e-07
6.41922e-06
1.38335e-07
6.42221e-06
1.47947e-07
6.42633e-06
1.58236e-07
6.43183e-06
1.68801e-07
1.79361e-07
6.43873e-06
5.74211e-06
1.38487e-08
5.74534e-06
3.7853e-08
5.74933e-06
5.53639e-08
5.75327e-06
6.75365e-08
5.75701e-06
7.65202e-08
5.76056e-06
8.38523e-08
5.76385e-06
9.01524e-08
5.76681e-06
9.57912e-08
5.76945e-06
1.01209e-07
5.77184e-06
1.06815e-07
5.77411e-06
1.12894e-07
5.7764e-06
1.19625e-07
5.77893e-06
1.27102e-07
5.78194e-06
1.35329e-07
5.78568e-06
1.442e-07
5.7904e-06
1.53516e-07
5.79626e-06
1.62947e-07
1.72353e-07
5.80327e-06
6.99945e-06
1.25512e-08
7.00281e-06
3.44935e-08
7.00718e-06
5.09964e-08
7.01173e-06
6.29872e-08
7.01619e-06
7.20563e-08
7.02053e-06
7.95119e-08
7.02468e-06
8.60011e-08
7.02859e-06
9.18868e-08
7.03227e-06
9.75315e-08
7.03581e-06
1.03273e-07
7.03936e-06
1.09347e-07
7.04309e-06
1.15891e-07
7.04724e-06
1.22955e-07
7.05205e-06
1.30515e-07
7.05779e-06
1.3846e-07
7.06468e-06
1.46628e-07
7.07287e-06
1.54757e-07
1.62805e-07
7.08242e-06
8.53217e-06
1.12322e-08
8.53566e-06
3.10003e-08
8.54043e-06
4.62252e-08
8.54567e-06
5.77433e-08
8.55102e-06
6.67057e-08
8.55638e-06
7.41543e-08
8.56168e-06
8.06989e-08
8.56689e-06
8.66836e-08
8.57202e-06
9.23984e-08
8.57719e-06
9.81029e-08
8.58256e-06
1.03979e-07
8.58833e-06
1.1012e-07
8.59474e-06
1.16545e-07
8.60204e-06
1.23211e-07
8.61049e-06
1.30014e-07
8.62029e-06
1.36825e-07
8.63161e-06
1.43437e-07
1.49871e-07
8.64455e-06
1.04006e-05
9.87184e-09
1.04043e-05
2.73143e-08
1.04095e-05
4.09683e-08
1.04156e-05
5.16633e-08
1.04221e-05
6.02343e-08
1.04288e-05
6.74573e-08
1.04356e-05
7.38474e-08
1.04426e-05
7.97068e-08
1.04497e-05
8.52574e-08
1.04572e-05
9.0682e-08
1.0465e-05
9.61042e-08
1.04736e-05
1.01579e-07
1.0483e-05
1.071e-07
1.04936e-05
1.12616e-07
1.05056e-05
1.18037e-07
1.05192e-05
1.23262e-07
1.05345e-05
1.28125e-07
1.32683e-07
1.05517e-05
1.26782e-05
8.41962e-09
1.26823e-05
2.32971e-08
1.26882e-05
3.50395e-08
1.26954e-05
4.45007e-08
1.27033e-05
5.22998e-08
1.27118e-05
5.89756e-08
1.27207e-05
6.49115e-08
1.27301e-05
7.03414e-08
1.27399e-05
7.54192e-08
1.27503e-05
8.02567e-08
1.27615e-05
8.49224e-08
1.27737e-05
8.94365e-08
1.2787e-05
9.37774e-08
1.28017e-05
9.78932e-08
1.2818e-05
1.01708e-07
1.28361e-05
1.05145e-07
1.28562e-05
1.08078e-07
1.10578e-07
1.28783e-05
1.54548e-05
6.78385e-09
1.54594e-05
1.86985e-08
1.54664e-05
2.80941e-08
1.5475e-05
3.58383e-08
1.54849e-05
4.23975e-08
1.54958e-05
4.81095e-08
1.55075e-05
5.321e-08
1.552e-05
5.78432e-08
1.55333e-05
6.20939e-08
1.55476e-05
6.60112e-08
1.55629e-05
6.96154e-08
1.55794e-05
7.28988e-08
1.55974e-05
7.58305e-08
1.56169e-05
7.83643e-08
1.56381e-05
8.04425e-08
1.56613e-05
8.20145e-08
1.56864e-05
8.29933e-08
8.3456e-08
1.57135e-05
1.88396e-05
4.81512e-09
1.88452e-05
1.31092e-08
1.88537e-05
1.95603e-08
1.88646e-05
2.50131e-08
1.88771e-05
2.98021e-08
1.88912e-05
3.40809e-08
1.89065e-05
3.7931e-08
1.89229e-05
4.13952e-08
1.89405e-05
4.44884e-08
1.89593e-05
4.72048e-08
1.89794e-05
4.95246e-08
1.90009e-05
5.14193e-08
1.90239e-05
5.28547e-08
1.90484e-05
5.37947e-08
1.90747e-05
5.42034e-08
1.91026e-05
5.40552e-08
1.91323e-05
5.33062e-08
5.20262e-08
1.91637e-05
2.29659e-05
2.23697e-09
2.29732e-05
5.84279e-09
2.29842e-05
8.50131e-09
2.29983e-05
1.09985e-08
2.30146e-05
1.34935e-08
2.30327e-05
1.5915e-08
2.30525e-05
1.81735e-08
2.30737e-05
2.02108e-08
2.30962e-05
2.19753e-08
2.312e-05
2.34075e-08
2.31451e-05
2.44495e-08
2.31714e-05
2.50548e-08
2.31991e-05
2.51893e-08
2.32281e-05
2.48266e-08
2.32583e-05
2.39511e-08
2.32898e-05
2.25586e-08
2.33225e-05
2.06431e-08
1.82613e-08
2.33562e-05
1.68129e-05
6.69382e-11
1.68189e-05
-1.72606e-10
1.68279e-05
-4.85645e-10
1.6839e-05
-1.48561e-10
1.68518e-05
7.6062e-10
1.68657e-05
1.92996e-09
1.68808e-05
3.14481e-09
1.68967e-05
4.29657e-09
1.69134e-05
5.29484e-09
1.69307e-05
6.04086e-09
1.69487e-05
6.4508e-09
1.69673e-05
6.4671e-09
1.69865e-05
6.05276e-09
1.70061e-05
5.18574e-09
1.70262e-05
3.85519e-09
1.70467e-05
2.06736e-09
1.70675e-05
-1.64881e-10
-2.79877e-09
1.70886e-05
1.46368e-05
-2.11862e-09
1.46428e-05
-6.22865e-09
1.46516e-05
-9.28591e-09
1.46622e-05
-1.07192e-08
1.4674e-05
-1.10161e-08
1.46867e-05
-1.07882e-08
1.47001e-05
-1.0328e-08
1.47142e-05
-9.76199e-09
1.47287e-05
-9.22691e-09
1.47436e-05
-8.86581e-09
1.47589e-05
-8.78214e-09
1.47744e-05
-9.03761e-09
1.47901e-05
-9.66988e-09
1.4806e-05
-1.07015e-08
1.4822e-05
-1.2141e-08
1.4838e-05
-1.39826e-08
1.48541e-05
-1.62111e-08
-1.87996e-08
1.48701e-05
1.27425e-05
-4.44328e-09
1.27488e-05
-1.25576e-08
1.27576e-05
-1.80744e-08
1.27676e-05
-2.0772e-08
1.27785e-05
-2.18872e-08
1.27901e-05
-2.23497e-08
1.28021e-05
-2.2408e-08
1.28145e-05
-2.21718e-08
1.28272e-05
-2.18429e-08
1.28399e-05
-2.16173e-08
1.28527e-05
-2.1614e-08
1.28656e-05
-2.18971e-08
1.28784e-05
-2.25075e-08
1.28912e-05
-2.34706e-08
1.29039e-05
-2.47945e-08
1.29164e-05
-2.64703e-08
1.29286e-05
-2.84687e-08
-3.07571e-08
1.29406e-05
1.10935e-05
-7.03973e-09
1.11004e-05
-1.94061e-08
1.11093e-05
-2.69728e-08
1.11188e-05
-3.03173e-08
1.11288e-05
-3.18805e-08
1.11393e-05
-3.28158e-08
1.11501e-05
-3.31911e-08
1.1161e-05
-3.31038e-08
1.1172e-05
-3.28338e-08
1.1183e-05
-3.26098e-08
1.11939e-05
-3.25487e-08
1.12047e-05
-3.27157e-08
1.12154e-05
-3.31596e-08
1.12258e-05
-3.39133e-08
1.1236e-05
-3.49897e-08
1.12459e-05
-3.6386e-08
1.12556e-05
-3.809e-08
-4.01078e-08
1.12649e-05
9.65829e-06
-1.01155e-08
9.66586e-06
-2.69775e-08
9.67481e-06
-3.5923e-08
9.68384e-06
-3.93499e-08
9.69312e-06
-4.11562e-08
9.70266e-06
-4.23517e-08
9.71224e-06
-4.27774e-08
9.72177e-06
-4.26267e-08
9.73121e-06
-4.22763e-08
9.74055e-06
-4.19512e-08
9.74975e-06
-4.17451e-08
9.75875e-06
-4.17194e-08
9.76752e-06
-4.19293e-08
9.77602e-06
-4.24129e-08
9.78422e-06
-4.31866e-08
9.79208e-06
-4.42489e-08
9.79956e-06
-4.55675e-08
-4.71016e-08
9.80655e-06
8.40925e-06
-1.401e-08
8.41781e-06
-3.5542e-08
8.42644e-06
-4.45506e-08
8.43472e-06
-4.76303e-08
8.44334e-06
-4.97814e-08
8.45218e-06
-5.11827e-08
8.4609e-06
-5.15013e-08
8.46943e-06
-5.1157e-08
8.47777e-06
-5.0617e-08
8.4859e-06
-5.00835e-08
8.49379e-06
-4.96324e-08
8.5014e-06
-4.93286e-08
8.5087e-06
-4.92331e-08
8.51568e-06
-4.93867e-08
8.5223e-06
-4.98094e-08
8.52855e-06
-5.05031e-08
8.53446e-06
-5.14705e-08
-5.27402e-08
8.5401e-06
7.32223e-06
-1.89566e-08
7.33232e-06
-4.56351e-08
7.34043e-06
-5.2658e-08
7.34769e-06
-5.48882e-08
7.35526e-06
-5.73507e-08
7.3629e-06
-5.8828e-08
7.37039e-06
-5.89923e-08
7.37774e-06
-5.84997e-08
7.38494e-06
-5.78163e-08
7.39195e-06
-5.70942e-08
7.39872e-06
-5.6406e-08
7.40522e-06
-5.58292e-08
7.41142e-06
-5.5433e-08
7.4173e-06
-5.52631e-08
7.42284e-06
-5.53477e-08
7.42803e-06
-5.56924e-08
7.43284e-06
-5.62807e-08
-5.7006e-08
7.4371e-06
6.3758e-06
-2.46939e-08
6.38715e-06
-5.69834e-08
6.39528e-06
-6.07886e-08
6.40265e-06
-6.22561e-08
6.41019e-06
-6.4892e-08
6.41757e-06
-6.62088e-08
6.42478e-06
-6.62022e-08
6.43197e-06
-6.56838e-08
6.43916e-06
-6.50108e-08
6.44633e-06
-6.42601e-08
6.45342e-06
-6.34958e-08
6.46039e-06
-6.28022e-08
6.46721e-06
-6.2252e-08
6.47384e-06
-6.1898e-08
6.48027e-06
-6.17788e-08
6.48651e-06
-6.193e-08
6.49258e-06
-6.23529e-08
-6.30151e-08
6.49859e-06
5.55463e-06
-3.38624e-08
5.56769e-06
-7.00404e-08
5.57997e-06
-7.30681e-08
5.59369e-06
-7.59778e-08
5.6084e-06
-7.96038e-08
5.62331e-06
-8.11152e-08
5.63815e-06
-8.10405e-08
5.6528e-06
-8.03369e-08
5.66713e-06
-7.93441e-08
5.68103e-06
-7.81524e-08
5.69439e-06
-7.68598e-08
5.70717e-06
-7.55781e-08
5.71931e-06
-7.43992e-08
5.73081e-06
-7.33953e-08
5.74165e-06
-7.26197e-08
5.75188e-06
-7.21603e-08
5.76155e-06
-7.20246e-08
-7.25701e-08
5.77111e-06
4.88792e-06
-9.41752e-08
4.93435e-06
-1.16466e-07
4.97219e-06
-1.10909e-07
5.00238e-06
-1.06174e-07
5.02518e-06
-1.02403e-07
5.04163e-06
-9.7559e-08
5.05275e-06
-9.21642e-08
5.05935e-06
-8.69383e-08
5.06209e-06
-8.20843e-08
5.06154e-06
-7.76066e-08
5.0582e-06
-7.35131e-08
5.05244e-06
-6.98242e-08
5.0446e-06
-6.65511e-08
5.0349e-06
-6.36971e-08
5.02354e-06
-6.12603e-08
5.01065e-06
-5.92738e-08
4.99637e-06
-5.77433e-08
-5.70096e-08
4.98081e-06
4.1085e-06
3.99204e-06
3.88113e-06
3.77495e-06
3.67255e-06
3.57499e-06
3.48283e-06
3.39589e-06
3.3138e-06
3.2362e-06
3.16268e-06
3.09286e-06
3.02631e-06
2.96261e-06
2.90135e-06
2.84208e-06
2.78433e-06
2.72732e-06
6.03082e-08
-6.03082e-08
8.1128e-07
-7.50972e-07
1.76369e-06
-9.52409e-07
2.58908e-06
-8.25395e-07
3.17031e-06
-5.81224e-07
3.48906e-06
-3.18754e-07
3.56742e-06
-7.83569e-08
3.40324e-06
1.64179e-07
3.04919e-06
3.54053e-07
2.57905e-06
4.70137e-07
2.07785e-06
5.012e-07
1.62092e-06
4.56933e-07
1.2651e-06
3.5582e-07
1.06948e-06
1.9562e-07
1.08058e-06
-1.11079e-08
1.20908e-06
-1.28498e-07
1.23134e-06
-2.22543e-08
1.12808e-06
1.03256e-07
8.05347e-07
3.22734e-07
2.08445e-07
5.96902e-07
-6.29479e-07
8.37923e-07
-1.62517e-06
9.95688e-07
-2.71798e-06
1.09281e-06
-3.85371e-06
1.13572e-06
-4.98506e-06
1.13136e-06
-6.073e-06
1.08794e-06
-7.0871e-06
1.0141e-06
-8.00532e-06
9.18217e-07
-8.81297e-06
8.07654e-07
-9.50148e-06
6.88506e-07
-1.00671e-05
5.65581e-07
-1.05095e-05
4.42456e-07
-1.08313e-05
3.2183e-07
-1.10376e-05
2.06268e-07
-1.11364e-05
9.88336e-08
-1.11386e-05
2.20101e-09
-1.10641e-05
-7.45573e-08
-1.09247e-05
-1.39441e-07
-1.07299e-05
-1.94786e-07
-1.0487e-05
-2.4283e-07
-1.02022e-05
-2.84831e-07
-9.88065e-06
-3.21558e-07
-9.52705e-06
-3.53598e-07
-9.14554e-06
-3.81512e-07
-8.73966e-06
-4.05872e-07
-8.31242e-06
-4.27243e-07
-7.86628e-06
-4.46141e-07
-7.40331e-06
-4.62973e-07
-6.92532e-06
-4.77985e-07
-6.4341e-06
-4.91225e-07
-5.93155e-06
-5.02546e-07
-5.41991e-06
-5.1164e-07
-4.9018e-06
-5.18111e-07
-4.38023e-06
-5.21567e-07
-3.85852e-06
-5.21715e-07
-3.34008e-06
-5.18436e-07
-2.82827e-06
-5.11809e-07
-2.32618e-06
-5.02096e-07
-1.83649e-06
-4.89689e-07
-1.3614e-06
-4.75089e-07
-9.0242e-07
-4.58978e-07
-4.60032e-07
-4.42388e-07
-3.3482e-08
-4.2655e-07
3.7899e-07
-4.12472e-07
7.78232e-07
-3.99243e-07
1.16556e-06
-3.87323e-07
1.54283e-06
-3.77279e-07
1.91229e-06
-3.69452e-07
2.27633e-06
-3.64046e-07
2.63744e-06
-3.61106e-07
2.99798e-06
-3.60545e-07
3.35987e-06
-3.61891e-07
3.72349e-06
-3.63611e-07
4.08444e-06
-3.60957e-07
4.42487e-06
-3.40424e-07
4.70391e-06
-2.79042e-07
4.85869e-06
-1.54784e-07
4.84497e-06
1.37242e-08
4.67008e-06
1.74887e-07
4.37269e-06
2.97393e-07
4.00463e-06
3.68061e-07
3.62002e-06
3.84605e-07
3.26658e-06
3.53441e-07
2.97673e-06
2.89851e-07
2.75884e-06
2.17889e-07
2.6031e-06
1.5574e-07
2.49547e-06
1.07627e-07
2.4297e-06
6.5776e-08
2.41454e-06
1.51542e-08
2.47377e-06
-5.9228e-08
2.62802e-06
-1.54245e-07
2.86732e-06
-2.39302e-07
3.13955e-06
-2.72228e-07
3.37451e-06
-2.34962e-07
3.52348e-06
-1.48971e-07
3.56471e-06
-4.1233e-08
3.44046e-06
1.24255e-07
2.99869e-06
4.41768e-07
2.06784e-06
9.30851e-07
6.50224e-07
1.41761e-06
-1.0679e-06
1.71812e-06
-2.83248e-06
1.76459e-06
-4.47278e-06
1.6403e-06
-5.90067e-06
1.42789e-06
-7.08273e-06
1.18206e-06
-8.01728e-06
9.34549e-07
-8.71774e-06
7.00462e-07
-9.20326e-06
4.85518e-07
-9.49477e-06
2.91511e-07
-9.61428e-06
1.19512e-07
-9.5947e-06
-1.95805e-08
-9.46156e-06
-1.33141e-07
-9.22985e-06
-2.3171e-07
-8.9081e-06
-3.21751e-07
-8.50231e-06
-4.05786e-07
-8.01727e-06
-4.85046e-07
-7.45692e-06
-5.60353e-07
-6.82477e-06
-6.32148e-07
-6.1245e-06
-7.00271e-07
-5.36072e-06
-7.63781e-07
-4.53982e-06
-8.20892e-07
-3.67066e-06
-8.69159e-07
-2.7649e-06
-9.05763e-07
-1.83703e-06
-9.27869e-07
-9.02895e-07
-9.34138e-07
2.19048e-08
-9.248e-07
9.14996e-07
-8.93091e-07
1.76324e-06
-8.4824e-07
2.55719e-06
-7.93958e-07
3.2877e-06
-7.3051e-07
3.94757e-06
-6.59862e-07
4.53154e-06
-5.83976e-07
5.03527e-06
-5.03726e-07
5.45493e-06
-4.19668e-07
5.79148e-06
-3.36543e-07
6.04158e-06
-2.50104e-07
6.16067e-06
-1.19092e-07
6.07201e-06
8.86672e-08
5.75882e-06
3.13182e-07
5.24993e-06
5.08894e-07
4.60709e-06
6.42843e-07
3.91497e-06
6.92119e-07
3.25844e-06
6.56529e-07
2.69872e-06
5.59722e-07
2.26235e-06
4.36365e-07
1.94779e-06
3.14568e-07
1.73646e-06
2.11324e-07
1.60274e-06
1.3372e-07
1.52233e-06
8.04067e-08
1.47697e-06
4.53644e-08
1.45375e-06
2.32247e-08
1.44305e-06
1.06959e-08
1.43899e-06
4.05946e-09
1.44427e-06
-5.28305e-09
1.4743e-06
-3.00274e-08
1.55985e-06
-8.55506e-08
1.73817e-06
-1.78315e-07
2.00442e-06
-2.66251e-07
2.25395e-06
-2.4953e-07
2.33743e-06
-8.34837e-08
2.16321e-06
1.7422e-07
1.60809e-06
5.55121e-07
5.56359e-07
1.05173e-06
-7.23871e-07
1.28023e-06
-1.91701e-06
1.19314e-06
-2.83124e-06
9.14227e-07
-3.42153e-06
5.90295e-07
-3.69846e-06
2.76921e-07
-3.70666e-06
8.2069e-09
-3.48854e-06
-2.18121e-07
-3.07081e-06
-4.17733e-07
-2.47761e-06
-5.93196e-07
-1.74643e-06
-7.31186e-07
-9.30647e-07
-8.15779e-07
-9.90671e-08
-8.3158e-07
6.84928e-07
-7.83995e-07
1.37166e-06
-6.86732e-07
1.93661e-06
-5.64949e-07
2.34842e-06
-4.11813e-07
-2.08823e-07
2.55724e-06
7.93555e-07
-8.53864e-07
1.75727e-06
-1.71468e-06
2.47147e-06
-1.66661e-06
2.93279e-06
-1.28672e-06
3.19376e-06
-8.42194e-07
3.29578e-06
-4.20774e-07
3.27326e-06
-5.58349e-08
3.14951e-06
2.87926e-07
2.93759e-06
5.65981e-07
2.63481e-06
7.72909e-07
2.26461e-06
8.71403e-07
1.89424e-06
8.27302e-07
1.60232e-06
6.47738e-07
1.30484e-06
4.93104e-07
8.30864e-07
4.62867e-07
3.75999e-08
6.64766e-07
-1.03257e-06
1.04791e-06
-2.3127e-06
1.38339e-06
-3.65255e-06
1.66258e-06
-4.94658e-06
1.89093e-06
-6.15284e-06
2.04418e-06
-7.26496e-06
2.10782e-06
-8.26014e-06
2.08799e-06
-9.12168e-06
1.99726e-06
-9.84225e-06
1.85193e-06
-1.04234e-05
1.66912e-06
-1.0874e-05
1.46468e-06
-1.12076e-05
1.25185e-06
-1.14406e-05
1.04062e-06
-1.15899e-05
8.3779e-07
-1.16716e-05
6.47321e-07
-1.17001e-05
4.7094e-07
-1.16873e-05
3.0903e-07
-1.1642e-05
1.60984e-07
-1.15705e-05
2.72683e-08
-1.14687e-05
-9.95261e-08
-1.13272e-05
-2.16058e-07
-1.11415e-05
-3.25194e-07
-1.09113e-05
-4.24941e-07
-1.06394e-05
-5.14736e-07
-1.03297e-05
-5.94604e-07
-9.98626e-06
-6.64954e-07
-9.61338e-06
-7.26473e-07
-9.21482e-06
-7.80076e-07
-8.79385e-06
-8.26839e-07
-8.35319e-06
-8.67904e-07
-7.89499e-06
-9.04345e-07
-7.42094e-06
-9.37018e-07
-6.9325e-06
-9.66427e-07
-6.43109e-06
-9.92635e-07
-5.91838e-06
-1.01525e-06
-5.3965e-06
-1.03352e-06
-4.86812e-06
-1.04649e-06
-4.33646e-06
-1.05322e-06
-3.80516e-06
-1.05302e-06
-3.27798e-06
-1.04561e-06
-2.7586e-06
-1.03119e-06
-2.25028e-06
-1.01041e-06
-1.75571e-06
-9.84263e-07
-1.27685e-06
-9.53947e-07
-8.14942e-07
-9.20885e-07
-3.70569e-07
-8.86761e-07
5.6707e-08
-8.53826e-07
4.66968e-07
-8.22733e-07
8.61782e-07
-7.94057e-07
1.24305e-06
-7.68589e-07
1.61284e-06
-7.47068e-07
1.97344e-06
-7.30055e-07
2.32723e-06
-7.17841e-07
2.67646e-06
-7.10332e-07
3.02277e-06
-7.06857e-07
3.3668e-06
-7.0592e-07
3.70798e-06
-7.04789e-07
4.04615e-06
-6.99133e-07
4.38797e-06
-6.82237e-07
4.75444e-06
-6.45515e-07
5.17652e-06
-5.76866e-07
5.64995e-06
-4.59708e-07
6.11292e-06
-2.88075e-07
6.48408e-06
-7.37759e-08
6.69993e-06
1.5222e-07
6.72556e-06
3.58975e-07
6.55549e-06
5.2351e-07
6.21375e-06
6.3159e-07
5.75196e-06
6.79682e-07
5.23655e-06
6.71151e-07
4.73384e-06
6.10336e-07
4.30187e-06
4.97737e-07
3.99042e-06
3.26608e-07
3.83305e-06
9.81464e-08
3.84207e-06
-1.63273e-07
3.99721e-06
-3.94433e-07
4.2303e-06
-5.05322e-07
4.43262e-06
-4.37279e-07
4.4432e-06
-1.59557e-07
4.01034e-06
3.91629e-07
2.84755e-06
1.28705e-06
9.57598e-07
2.33172e-06
-1.26937e-06
3.15782e-06
-3.37052e-06
3.51876e-06
-5.12563e-06
3.47323e-06
-6.4965e-06
3.13546e-06
-7.50939e-06
2.65318e-06
-8.22262e-06
2.14113e-06
-8.70538e-06
1.66481e-06
-9.02037e-06
1.24954e-06
-9.21606e-06
8.96153e-07
-9.32537e-06
5.94836e-07
-9.36746e-06
3.33601e-07
-9.35003e-06
1.02075e-07
-9.25977e-06
-1.09839e-07
-9.08378e-06
-3.09127e-07
-8.82017e-06
-4.95323e-07
-8.47272e-06
-6.69204e-07
-8.04603e-06
-8.32476e-07
-7.54418e-06
-9.86888e-07
-6.97057e-06
-1.13397e-06
-6.32809e-06
-1.27463e-06
-5.61976e-06
-1.4086e-06
-4.84955e-06
-1.53398e-06
-4.02343e-06
-1.64702e-06
-3.15008e-06
-1.74251e-06
-2.24113e-06
-1.81471e-06
-1.31051e-06
-1.85849e-06
-3.74505e-07
-1.87014e-06
5.46056e-07
-1.84536e-06
1.43674e-06
-1.78377e-06
2.28468e-06
-1.69619e-06
3.07784e-06
-1.58712e-06
3.80744e-06
-1.46011e-06
4.46689e-06
-1.31931e-06
5.05149e-06
-1.16857e-06
5.5588e-06
-1.01104e-06
5.98813e-06
-8.49001e-07
6.33446e-06
-6.82871e-07
6.59722e-06
-5.1287e-07
6.82038e-06
-3.42253e-07
7.05763e-06
-1.4858e-07
7.28798e-06
8.2838e-08
7.43558e-06
3.61294e-07
7.44088e-06
6.37535e-07
7.28009e-06
8.52912e-07
6.96956e-06
9.67061e-07
6.55224e-06
9.77038e-07
6.07899e-06
9.0962e-07
5.59119e-06
8.02369e-07
5.11524e-06
6.87275e-07
4.66595e-06
5.83e-07
4.25028e-06
4.96085e-07
3.87048e-06
4.25163e-07
3.52763e-06
3.66072e-07
3.22395e-06
3.14381e-07
2.9641e-06
2.63901e-07
2.75559e-06
2.03226e-07
2.60968e-06
1.15891e-07
2.5427e-06
-1.85788e-08
2.58319e-06
-2.18803e-07
2.75199e-06
-4.35052e-07
2.96722e-06
-4.64762e-07
2.96313e-06
-7.9385e-08
2.39023e-06
7.47113e-07
1.11396e-06
1.8314e-06
-4.59222e-07
2.62491e-06
-1.76958e-06
2.59059e-06
-2.64928e-06
2.07284e-06
-3.184e-06
1.44895e-06
-3.47683e-06
8.8313e-07
-3.59139e-06
3.91481e-07
-3.54354e-06
-3.96418e-08
-3.31093e-06
-4.50734e-07
-2.88746e-06
-8.41206e-07
-2.29192e-06
-1.18873e-06
-1.56026e-06
-1.46285e-06
-7.44466e-07
-1.63158e-06
8.79189e-08
-1.66396e-06
8.75372e-07
-1.57145e-06
1.57667e-06
-1.38803e-06
2.1652e-06
-1.15349e-06
2.63097e-06
-8.7758e-07
-5.53253e-07
2.9754e-06
1.00594e-06
-1.8598e-06
1.60142e-06
-2.31016e-06
1.8246e-06
-1.88979e-06
1.88338e-06
-1.3455e-06
1.85889e-06
-8.177e-07
1.77329e-06
-3.35177e-07
1.62577e-06
9.16867e-08
1.44975e-06
4.63942e-07
1.25632e-06
7.59415e-07
1.04955e-06
9.79677e-07
8.13699e-07
1.10726e-06
4.82369e-07
1.15863e-06
-8.06768e-08
1.21078e-06
-9.92862e-07
1.40529e-06
-2.25847e-06
1.72847e-06
-3.67094e-06
2.07724e-06
-5.01312e-06
2.39009e-06
-6.24866e-06
2.61893e-06
-7.34192e-06
2.75585e-06
-8.25612e-06
2.80512e-06
-8.98464e-06
2.77271e-06
-9.54546e-06
2.66863e-06
-9.96584e-06
2.50837e-06
-1.02778e-05
2.30925e-06
-1.05135e-05
2.08765e-06
-1.07011e-05
1.8567e-06
-1.08617e-05
1.62527e-06
-1.1008e-05
1.39815e-06
-1.11444e-05
1.17704e-06
-1.12685e-05
9.61896e-07
-1.13733e-05
7.52093e-07
-1.14496e-05
5.47208e-07
-1.1488e-05
3.47435e-07
-1.14807e-05
1.53748e-07
-1.14213e-05
-3.21309e-08
-1.13114e-05
-2.09439e-07
-1.11516e-05
-3.75919e-07
-1.09467e-05
-5.30115e-07
-1.07006e-05
-6.70981e-07
-1.04174e-05
-7.97926e-07
-1.01011e-05
-9.10887e-07
-9.75574e-06
-1.01035e-06
-9.38491e-06
-1.0973e-06
-8.99183e-06
-1.17315e-06
-8.57907e-06
-1.2396e-06
-8.1485e-06
-1.29847e-06
-7.70135e-06
-1.3515e-06
-7.23831e-06
-1.40006e-06
-6.75982e-06
-1.44492e-06
-6.26641e-06
-1.48605e-06
-5.75907e-06
-1.52259e-06
-5.23963e-06
-1.55296e-06
-4.7109e-06
-1.57523e-06
-4.17664e-06
-1.58748e-06
-3.64132e-06
-1.58833e-06
-3.10973e-06
-1.5772e-06
-2.58648e-06
-1.55445e-06
-2.07558e-06
-1.52131e-06
-1.5802e-06
-1.47964e-06
-1.10249e-06
-1.43166e-06
-6.43647e-07
-1.37973e-06
-2.04144e-07
-1.32626e-06
2.1589e-07
-1.27386e-06
6.17027e-07
-1.22387e-06
1.00062e-06
-1.17765e-06
1.36843e-06
-1.1364e-06
1.72252e-06
-1.10116e-06
2.06522e-06
-1.07275e-06
2.39909e-06
-1.05171e-06
2.72689e-06
-1.03813e-06
3.05141e-06
-1.03137e-06
3.37518e-06
-1.0297e-06
3.70015e-06
-1.02975e-06
4.0272e-06
-1.02618e-06
4.35661e-06
-1.01165e-06
4.68911e-06
-9.7802e-07
5.02979e-06
-9.1754e-07
5.39352e-06
-8.23446e-07
5.79726e-06
-6.91812e-07
6.23949e-06
-5.16009e-07
6.67678e-06
-2.85062e-07
7.03389e-06
1.85822e-09
7.23633e-06
3.21073e-07
7.23946e-06
6.28457e-07
7.0425e-06
8.76645e-07
6.68543e-06
1.02822e-06
6.23386e-06
1.06191e-06
5.76089e-06
9.70704e-07
5.33183e-06
7.55668e-07
5.00571e-06
4.24268e-07
4.82338e-06
1.90588e-08
4.76982e-06
-3.40873e-07
4.74394e-06
-4.79444e-07
4.52727e-06
-2.20608e-07
3.80041e-06
5.67306e-07
2.29571e-06
1.89632e-06
1.90843e-07
3.39192e-06
-1.96446e-06
4.48702e-06
-3.74801e-06
4.94138e-06
-5.06225e-06
4.833e-06
-5.95995e-06
4.37092e-06
-6.57337e-06
3.74888e-06
-7.02877e-06
3.10858e-06
-7.40874e-06
2.5211e-06
-7.74804e-06
2.00411e-06
-8.04769e-06
1.54919e-06
-8.29294e-06
1.14141e-06
-8.46638e-06
7.68275e-07
-8.55491e-06
4.22131e-07
-8.55168e-06
9.88428e-08
-8.45633e-06
-2.05192e-07
-8.2735e-06
-4.91959e-07
-8.0074e-06
-7.61414e-07
-7.66218e-06
-1.01443e-06
-7.24199e-06
-1.25266e-06
-6.75049e-06
-1.47839e-06
-6.19046e-06
-1.69399e-06
-5.56394e-06
-1.90114e-06
-4.87283e-06
-2.09972e-06
-4.11991e-06
-2.28691e-06
-3.31011e-06
-2.45682e-06
-2.45174e-06
-2.60088e-06
-1.5563e-06
-2.71016e-06
-6.38627e-07
-2.77616e-06
2.81306e-07
-2.79007e-06
1.18423e-06
-2.74828e-06
2.05766e-06
-2.65721e-06
2.88679e-06
-2.52531e-06
3.65964e-06
-2.35997e-06
4.36763e-06
-2.1681e-06
5.00458e-06
-1.95626e-06
5.56617e-06
-1.73017e-06
6.04968e-06
-1.49454e-06
6.454e-06
-1.25332e-06
6.78003e-06
-1.0089e-06
7.02868e-06
-7.61523e-07
7.19833e-06
-5.11901e-07
7.30935e-06
-2.59594e-07
7.39992e-06
-7.73204e-09
7.51316e-06
2.48054e-07
7.64793e-06
5.02756e-07
7.76324e-06
7.37607e-07
7.80754e-06
9.22757e-07
7.74891e-06
1.03567e-06
7.58332e-06
1.07521e-06
7.32621e-06
1.05948e-06
7.00042e-06
1.01306e-06
6.62782e-06
9.55599e-07
6.22616e-06
8.97742e-07
5.80885e-06
8.42479e-07
5.38663e-06
7.88288e-07
4.97028e-06
7.30731e-07
4.57269e-06
6.61496e-07
4.20657e-06
5.69345e-07
3.87819e-06
4.44265e-07
3.59335e-06
2.66266e-07
3.37876e-06
-4.20945e-09
3.26383e-06
-3.20124e-07
3.18158e-06
-3.82517e-07
2.84144e-06
2.60762e-07
1.9113e-06
1.67725e-06
5.00789e-07
3.24191e-06
-7.72225e-07
3.89793e-06
-1.65097e-06
3.46933e-06
-2.25723e-06
2.6791e-06
-2.70966e-06
1.90139e-06
-3.02465e-06
1.19811e-06
-3.17505e-06
5.41878e-07
-3.14656e-06
-6.81248e-08
-2.93181e-06
-6.65487e-07
-2.53439e-06
-1.23863e-06
-1.9694e-06
-1.75372e-06
-1.26923e-06
-2.16302e-06
-4.87547e-07
-2.41326e-06
3.10557e-07
-2.46207e-06
1.06555e-06
-2.32644e-06
1.73711e-06
-2.05958e-06
2.30154e-06
-1.71791e-06
2.75824e-06
-1.33429e-06
-9.12757e-07
3.11775e-06
6.30764e-07
-2.49056e-06
6.88759e-07
-2.36816e-06
6.29315e-07
-1.83035e-06
5.4531e-07
-1.2615e-06
4.33741e-07
-7.06131e-07
2.91495e-07
-1.92931e-07
1.15506e-07
2.67675e-07
-1.11084e-07
6.90532e-07
-3.96673e-07
1.045e-06
-7.66576e-07
1.34958e-06
-1.28884e-06
1.62952e-06
-2.05307e-06
1.92286e-06
-3.09906e-06
2.25677e-06
-4.30866e-06
2.61489e-06
-5.51381e-06
2.93363e-06
-6.60159e-06
3.16501e-06
-7.51121e-06
3.29971e-06
-8.23559e-06
3.34331e-06
-8.78696e-06
3.30722e-06
-9.18863e-06
3.2068e-06
-9.4743e-06
3.05837e-06
-9.68326e-06
2.87759e-06
-9.85275e-06
2.67787e-06
-1.0012e-05
2.46845e-06
-1.01784e-05
2.25405e-06
-1.03574e-05
2.03579e-06
-1.05449e-05
1.81269e-06
-1.073e-05
1.58332e-06
-1.08999e-05
1.34685e-06
-1.10415e-05
1.10358e-06
-1.11445e-05
8.55033e-07
-1.1201e-05
6.03739e-07
-1.12065e-05
3.52952e-07
-1.11593e-05
1.06472e-07
-1.10593e-05
-1.32056e-07
-1.09094e-05
-3.59415e-07
-1.07128e-05
-5.72468e-07
-1.04745e-05
-7.68463e-07
-1.02e-05
-9.454e-07
-9.89569e-06
-1.10228e-06
-9.56737e-06
-1.2392e-06
-9.22033e-06
-1.35739e-06
-8.85863e-06
-1.459e-06
-8.48488e-06
-1.54691e-06
-8.10018e-06
-1.6243e-06
-7.70426e-06
-1.69439e-06
-7.29574e-06
-1.76002e-06
-6.87253e-06
-1.82327e-06
-6.43232e-06
-1.88512e-06
-5.97322e-06
-1.94515e-06
-5.49436e-06
-2.00144e-06
-4.99651e-06
-2.05081e-06
-4.48233e-06
-2.08941e-06
-3.95636e-06
-2.11346e-06
-3.42453e-06
-2.12016e-06
-2.89345e-06
-2.10828e-06
-2.36953e-06
-2.07837e-06
-1.85829e-06
-2.03255e-06
-1.36391e-06
-1.97402e-06
-8.89121e-07
-1.90645e-06
-4.35259e-07
-1.83359e-06
-2.79627e-09
-1.75873e-06
4.08469e-07
-1.68513e-06
7.99358e-07
-1.61476e-06
1.17118e-06
-1.54948e-06
1.52557e-06
-1.49079e-06
1.86442e-06
-1.44e-06
2.18985e-06
-1.39818e-06
2.50428e-06
-1.36615e-06
2.81047e-06
-1.34432e-06
3.11153e-06
-1.33243e-06
3.41098e-06
-1.32915e-06
3.71278e-06
-1.33155e-06
4.02117e-06
-1.33458e-06
4.34023e-06
-1.3307e-06
4.67237e-06
-1.31015e-06
5.01677e-06
-1.26195e-06
5.36938e-06
-1.17605e-06
5.72387e-06
-1.0463e-06
6.07739e-06
-8.69527e-07
6.43263e-06
-6.4031e-07
6.78175e-06
-3.47254e-07
7.0864e-06
1.64239e-08
7.286e-06
4.28855e-07
7.32931e-06
8.33333e-07
7.19902e-06
1.15851e-06
6.91666e-06
1.34426e-06
6.53153e-06
1.35583e-06
6.10601e-06
1.18119e-06
5.7035e-06
8.26777e-07
5.36676e-06
3.55792e-07
5.06401e-06
-3.81146e-08
4.6302e-06
-4.56421e-08
3.76534e-06
6.44259e-07
2.23074e-06
2.1019e-06
1.93916e-07
3.93314e-06
-1.76424e-06
5.35007e-06
-3.26366e-06
5.98644e-06
-4.2657e-06
5.94342e-06
-4.903e-06
5.4703e-06
-5.34549e-06
4.8134e-06
-5.72791e-06
4.13131e-06
-6.113e-06
3.49367e-06
-6.50301e-06
2.91111e-06
-6.8715e-06
2.37261e-06
-7.18881e-06
1.86649e-06
-7.43336e-06
1.38596e-06
-7.59312e-06
9.2804e-07
-7.66328e-06
4.92288e-07
-7.64358e-06
7.91385e-08
-7.5361e-06
-3.12672e-07
-7.34515e-06
-6.82901e-07
-7.0753e-06
-1.03127e-06
-6.73131e-06
-1.35842e-06
-6.31773e-06
-1.66624e-06
-5.83828e-06
-1.95784e-06
-5.29534e-06
-2.23693e-06
-4.68993e-06
-2.50656e-06
-4.02231e-06
-2.76734e-06
-3.29337e-06
-3.01585e-06
-2.5063e-06
-3.24389e-06
-1.66828e-06
-3.4389e-06
-7.90937e-07
-3.5875e-06
1.0748e-07
-3.67457e-06
1.00658e-06
-3.68917e-06
1.89004e-06