/*--------------------------------*- C++ -*----------------------------------*\
  =========                 |
  \\      /  F ield         | OpenFOAM: The Open Source CFD Toolbox
   \\    /   O peration     | Website:  https://openfoam.org
    \\  /    A nd           | Version:  9
     \\/     M anipulation  |
\*---------------------------------------------------------------------------*/
FoamFile
{
    format      ascii;
    class       volVectorField;
    location    "0.08";
    object      U;
}
// * * * * * * * * * * * * * * * * * * * * * * * * * * * * * * * * * * * * * //

dimensions      [0 1 -1 0 0 0 0];

internalField   nonuniform List<vector> 
12225
(
(9.76877 -0.0580451 0)
(9.30944 -0.0328604 0)
(8.84278 -0.00488544 0)
(8.38027 0.0154281 0)
(7.94136 0.0285512 0)
(7.53359 0.0357879 0)
(7.1564 0.0391132 0)
(6.80795 0.0401101 0)
(6.48666 0.039766 0)
(6.19039 0.0387497 0)
(5.91595 0.0376029 0)
(5.65913 0.0368157 0)
(5.41479 0.0368868 0)
(5.17662 0.038412 0)
(4.93631 0.0422738 0)
(4.68333 0.0498812 0)
(4.39879 0.0659093 0)
(4.07584 0.0908959 0)
(10.098 0.0957973 0)
(10.2942 0.158489 0)
(10.4205 0.161981 0)
(10.4839 0.157494 0)
(10.5043 0.153028 0)
(10.4923 0.147894 0)
(10.4533 0.142509 0)
(10.3921 0.137437 0)
(10.3135 0.132876 0)
(10.2216 0.128973 0)
(10.1192 0.126017 0)
(10.0078 0.124459 0)
(9.88789 0.124955 0)
(9.75854 0.128477 0)
(9.61724 0.136633 0)
(9.45953 0.152406 0)
(9.27773 0.18123 0)
(9.06667 0.238848 0)
(10.0086 0.0399827 0)
(10.0552 0.0539204 0)
(10.1068 0.0497073 0)
(10.1542 0.054857 0)
(10.2011 0.0649421 0)
(10.2476 0.07425 0)
(10.2907 0.0819548 0)
(10.3277 0.0885684 0)
(10.3576 0.0944337 0)
(10.38 0.0998922 0)
(10.3946 0.105482 0)
(10.4014 0.11195 0)
(10.4002 0.120297 0)
(10.3909 0.131932 0)
(10.3735 0.149084 0)
(10.3482 0.175451 0)
(10.3171 0.217858 0)
(10.2921 0.287909 0)
(10.0044 0.027508 0)
(10.0278 0.0546221 0)
(10.0523 0.0668049 0)
(10.0689 0.0781993 0)
(10.082 0.088157 0)
(10.0959 0.0948331 0)
(10.1103 0.099181 0)
(10.124 0.102576 0)
(10.1364 0.105763 0)
(10.1471 0.109208 0)
(10.1557 0.11345 0)
(10.1618 0.119199 0)
(10.1649 0.127398 0)
(10.165 0.139382 0)
(10.1623 0.157197 0)
(10.1587 0.18401 0)
(10.1573 0.224383 0)
(10.173 0.282853 0)
(10.0033 0.0231431 0)
(10.0221 0.0535002 0)
(10.0428 0.066166 0)
(10.056 0.0735147 0)
(10.0642 0.0799161 0)
(10.0715 0.0849914 0)
(10.0782 0.0889905 0)
(10.0832 0.0927066 0)
(10.0863 0.0966527 0)
(10.0873 0.101168 0)
(10.0863 0.1067 0)
(10.0829 0.113902 0)
(10.0772 0.123662 0)
(10.069 0.137199 0)
(10.0591 0.156195 0)
(10.0492 0.182925 0)
(10.0424 0.219411 0)
(10.048 0.266676 0)
(10.0024 0.0198266 0)
(10.0171 0.0481414 0)
(10.0349 0.0608087 0)
(10.0476 0.0682301 0)
(10.056 0.0756095 0)
(10.0632 0.0824041 0)
(10.0695 0.0881052 0)
(10.074 0.0932349 0)
(10.0764 0.0984023 0)
(10.0767 0.104066 0)
(10.0748 0.110737 0)
(10.0707 0.119092 0)
(10.0644 0.130001 0)
(10.0561 0.144557 0)
(10.0467 0.164082 0)
(10.0377 0.190031 0)
(10.0319 0.223109 0)
(10.0349 0.262729 0)
(10.0018 0.0169752 0)
(10.0132 0.0429453 0)
(10.0282 0.0567174 0)
(10.0403 0.0653652 0)
(10.0487 0.0734107 0)
(10.0557 0.080685 0)
(10.0619 0.0867582 0)
(10.0665 0.092203 0)
(10.0692 0.09776 0)
(10.0701 0.103973 0)
(10.069 0.111359 0)
(10.0662 0.120553 0)
(10.0616 0.132333 0)
(10.0557 0.147606 0)
(10.0494 0.16733 0)
(10.0441 0.192317 0)
(10.042 0.222561 0)
(10.0463 0.25675 0)
(10.0013 0.0146735 0)
(10.0102 0.0385195 0)
(10.0229 0.0530009 0)
(10.034 0.0623796 0)
(10.0423 0.0705048 0)
(10.049 0.0778816 0)
(10.0549 0.0843345 0)
(10.0596 0.0903493 0)
(10.0627 0.0966089 0)
(10.0642 0.103641 0)
(10.0641 0.111925 0)
(10.0626 0.122024 0)
(10.0599 0.1346 0)
(10.0565 0.150365 0)
(10.0531 0.169963 0)
(10.0512 0.193768 0)
(10.052 0.221426 0)
(10.0578 0.251598 0)
(10.001 0.0128428 0)
(10.0079 0.0346713 0)
(10.0185 0.0492866 0)
(10.0287 0.059147 0)
(10.0367 0.0674272 0)
(10.0433 0.0750507 0)
(10.0491 0.0820073 0)
(10.0539 0.0886422 0)
(10.0574 0.0955443 0)
(10.0595 0.103233 0)
(10.0604 0.11217 0)
(10.0602 0.12286 0)
(10.0593 0.135855 0)
(10.0581 0.15169 0)
(10.0575 0.170773 0)
(10.0583 0.193216 0)
(10.0616 0.218558 0)
(10.0686 0.245787 0)
(10.0007 0.0113644 0)
(10.0062 0.0312948 0)
(10.0151 0.0456676 0)
(10.0243 0.0558703 0)
(10.032 0.0643614 0)
(10.0384 0.0722054 0)
(10.0442 0.0795415 0)
(10.0492 0.0866465 0)
(10.0531 0.0940377 0)
(10.0559 0.10222 0)
(10.0578 0.111633 0)
(10.0591 0.122709 0)
(10.06 0.135886 0)
(10.0609 0.151545 0)
(10.0627 0.169918 0)
(10.0659 0.190983 0)
(10.0713 0.214299 0)
(10.0797 0.239213 0)
(10.0006 0.0101431 0)
(10.005 0.0283351 0)
(10.0124 0.0422282 0)
(10.0207 0.0525931 0)
(10.028 0.061239 0)
(10.0344 0.0692195 0)
(10.0402 0.076814 0)
(10.0454 0.0842812 0)
(10.0498 0.0920642 0)
(10.0534 0.100623 0)
(10.0564 0.110351 0)
(10.0591 0.121608 0)
(10.0617 0.134723 0)
(10.0647 0.149957 0)
(10.0686 0.167426 0)
(10.0741 0.187055 0)
(10.0815 0.208475 0)
(10.0913 0.231326 0)
(10.0005 0.009181 0)
(10.0041 0.0258982 0)
(10.0105 0.0392052 0)
(10.018 0.0495553 0)
(10.025 0.0582698 0)
(10.0314 0.0663166 0)
(10.0373 0.074065 0)
(10.0427 0.08177 0)
(10.0476 0.0898049 0)
(10.052 0.0985715 0)
(10.056 0.108416 0)
(10.06 0.119634 0)
(10.0641 0.132471 0)
(10.0688 0.147102 0)
(10.0746 0.163575 0)
(10.0819 0.181802 0)
(10.0909 0.201482 0)
(10.1023 0.22246 0)
(10.0004 0.00836254 0)
(10.0035 0.0237384 0)
(10.009 0.0363439 0)
(10.0158 0.0465114 0)
(10.0226 0.0552052 0)
(10.0289 0.0632568 0)
(10.0349 0.0710694 0)
(10.0407 0.0788986 0)
(10.0461 0.0870588 0)
(10.0513 0.0958907 0)
(10.0563 0.10569 0)
(10.0615 0.116692 0)
(10.067 0.129078 0)
(10.0734 0.142955 0)
(10.0808 0.158327 0)
(10.0897 0.175104 0)
(10.1004 0.193036 0)
(10.1132 0.212086 0)
(10.0003 0.00753779 0)
(10.003 0.0214909 0)
(10.0078 0.0332092 0)
(10.014 0.043 0)
(10.0204 0.0515427 0)
(10.0268 0.0595003 0)
(10.033 0.067266 0)
(10.0392 0.0750899 0)
(10.0452 0.0832303 0)
(10.0513 0.0919581 0)
(10.0574 0.101507 0)
(10.0639 0.112051 0)
(10.0709 0.123707 0)
(10.0789 0.136524 0)
(10.0881 0.150474 0)
(10.0987 0.165466 0)
(10.111 0.181287 0)
(10.1253 0.197974 0)
(10.0003 0.00669113 0)
(10.0025 0.0191369 0)
(10.0068 0.0297804 0)
(10.0125 0.0389581 0)
(10.0187 0.0471463 0)
(10.0251 0.05484 0)
(10.0316 0.0623826 0)
(10.0383 0.0700005 0)
(10.0451 0.0778958 0)
(10.052 0.0862653 0)
(10.0594 0.0952733 0)
(10.0672 0.105032 0)
(10.0758 0.1156 0)
(10.0854 0.126979 0)
(10.0962 0.139113 0)
(10.1084 0.15191 0)
(10.1222 0.165174 0)
(10.1379 0.17897 0)
(10.0003 0.00579844 0)
(10.0023 0.0166151 0)
(10.0061 0.0259686 0)
(10.0114 0.0342493 0)
(10.0175 0.0418042 0)
(10.0241 0.0489804 0)
(10.031 0.0560423 0)
(10.0382 0.0631703 0)
(10.0458 0.0705068 0)
(10.0537 0.0781755 0)
(10.0622 0.0862709 0)
(10.0714 0.0948448 0)
(10.0814 0.103904 0)
(10.0924 0.113411 0)
(10.1046 0.123288 0)
(10.1181 0.133435 0)
(10.1331 0.143665 0)
(10.1498 0.154031 0)
(10.0002 0.00481402 0)
(10.0021 0.0137994 0)
(10.0058 0.0215938 0)
(10.0109 0.0286402 0)
(10.0171 0.035207 0)
(10.0239 0.0415203 0)
(10.0312 0.0477527 0)
(10.039 0.05402 0)
(10.0474 0.0604018 0)
(10.0563 0.0669533 0)
(10.0658 0.073704 0)
(10.0761 0.0806514 0)
(10.0872 0.0877596 0)
(10.0993 0.0949629 0)
(10.1124 0.102165 0)
(10.1268 0.109262 0)
(10.1423 0.116078 0)
(10.1593 0.122646 0)
(10.0002 0.00365904 0)
(10.0021 0.0104758 0)
(10.0058 0.0163522 0)
(10.011 0.0217613 0)
(10.0173 0.0269156 0)
(10.0245 0.0319414 0)
(10.0323 0.0369187 0)
(10.0407 0.0418913 0)
(10.0497 0.0468756 0)
(10.0594 0.0518653 0)
(10.0697 0.0568338 0)
(10.0807 0.0617338 0)
(10.0925 0.0664981 0)
(10.1051 0.0710426 0)
(10.1185 0.0752663 0)
(10.1329 0.0790668 0)
(10.1482 0.0822964 0)
(10.1645 0.0849646 0)
(10.0003 0.00220306 0)
(10.0023 0.00628119 0)
(10.0062 0.00972239 0)
(10.0117 0.013001 0)
(10.0184 0.0162664 0)
(10.026 0.0195442 0)
(10.0343 0.022822 0)
(10.0432 0.0260747 0)
(10.0527 0.0292634 0)
(10.0628 0.0323334 0)
(10.0735 0.0352172 0)
(10.0846 0.0378381 0)
(10.0964 0.0401126 0)
(10.1087 0.041952 0)
(10.1216 0.0432634 0)
(10.1351 0.0439583 0)
(10.149 0.0439297 0)
(10.1635 0.0431635 0)
(10.0003 0.00069887 0)
(10.0026 0.00193925 0)
(10.007 0.00290381 0)
(10.0131 0.0040623 0)
(10.0203 0.00547934 0)
(10.0283 0.00706888 0)
(10.037 0.00873701 0)
(10.0462 0.0104082 0)
(10.0559 0.0120041 0)
(10.066 0.0134358 0)
(10.0766 0.0146118 0)
(10.0875 0.0154449 0)
(10.0987 0.0158517 0)
(10.1102 0.0157518 0)
(10.122 0.0150681 0)
(10.1341 0.0137314 0)
(10.1464 0.0116709 0)
(10.1589 0.00886699 0)
(10.0003 -0.000684933 0)
(10.003 -0.00201135 0)
(10.008 -0.00315932 0)
(10.0148 -0.00367835 0)
(10.0226 -0.00365455 0)
(10.0311 -0.00331641 0)
(10.04 -0.0028137 0)
(10.0494 -0.00223646 0)
(10.0592 -0.00168558 0)
(10.0693 -0.00128119 0)
(10.0796 -0.00113843 0)
(10.0901 -0.00135596 0)
(10.1008 -0.00201924 0)
(10.1116 -0.00320474 0)
(10.1225 -0.00498067 0)
(10.1334 -0.00740493 0)
(10.1444 -0.0105276 0)
(10.1554 -0.0143803 0)
(10.0004 -0.0021294 0)
(10.0036 -0.00605142 0)
(10.0095 -0.00914094 0)
(10.0172 -0.0110203 0)
(10.0256 -0.0120611 0)
(10.0345 -0.0126938 0)
(10.0437 -0.0131088 0)
(10.0534 -0.0133861 0)
(10.0632 -0.0136306 0)
(10.0732 -0.0139718 0)
(10.0833 -0.0145269 0)
(10.0933 -0.0153936 0)
(10.1034 -0.0166585 0)
(10.1135 -0.0184003 0)
(10.1235 -0.0206875 0)
(10.1334 -0.0235757 0)
(10.1431 -0.0271057 0)
(10.1526 -0.0313053 0)
(10.0005 -0.00370135 0)
(10.0045 -0.0103136 0)
(10.0116 -0.0151429 0)
(10.0204 -0.0180675 0)
(10.0296 -0.0198972 0)
(10.0388 -0.0212189 0)
(10.0483 -0.0222207 0)
(10.0581 -0.0230255 0)
(10.068 -0.0238092 0)
(10.0779 -0.0247306 0)
(10.0878 -0.0258937 0)
(10.0977 -0.0273726 0)
(10.1073 -0.0292348 0)
(10.1169 -0.0315444 0)
(10.1262 -0.034356 0)
(10.1353 -0.0377135 0)
(10.1441 -0.0416447 0)
(10.1526 -0.0461948 0)
(10.0007 -0.00552439 0)
(10.0059 -0.0149627 0)
(10.0147 -0.0210941 0)
(10.0247 -0.0246754 0)
(10.0345 -0.0272619 0)
(10.0441 -0.0293355 0)
(10.0539 -0.0308091 0)
(10.0639 -0.0317865 0)
(10.0737 -0.0325586 0)
(10.0835 -0.0333704 0)
(10.0931 -0.034366 0)
(10.1025 -0.0356432 0)
(10.1117 -0.0372889 0)
(10.1207 -0.0393787 0)
(10.1294 -0.0419719 0)
(10.1377 -0.0451125 0)
(10.1456 -0.0488257 0)
(10.1532 -0.0531376 0)
(10.001 -0.0077422 0)
(10.008 -0.0203598 0)
(10.019 -0.027049 0)
(10.0301 -0.0303078 0)
(10.0403 -0.0331516 0)
(10.0503 -0.0360935 0)
(10.0607 -0.0386856 0)
(10.0711 -0.0408375 0)
(10.0812 -0.0427441 0)
(10.091 -0.044575 0)
(10.1005 -0.0464297 0)
(10.1097 -0.0483957 0)
(10.1186 -0.0505671 0)
(10.1271 -0.053031 0)
(10.1352 -0.0558588 0)
(10.1429 -0.0591057 0)
(10.1501 -0.0628038 0)
(10.157 -0.067011 0)
(10.0014 -0.0102983 0)
(10.0113 -0.0267346 0)
(10.0252 -0.034381 0)
(10.0373 -0.0369043 0)
(10.0472 -0.0381575 0)
(10.0569 -0.0390834 0)
(10.0672 -0.0397414 0)
(10.0775 -0.040369 0)
(10.0875 -0.0411882 0)
(10.0972 -0.0422685 0)
(10.1066 -0.0436206 0)
(10.1157 -0.045272 0)
(10.1244 -0.0472689 0)
(10.1327 -0.049657 0)
(10.1405 -0.0524782 0)
(10.1478 -0.0557602 0)
(10.1547 -0.0595255 0)
(10.1609 -0.0637375 0)
(10.0019 -0.0130722 0)
(10.0148 -0.0310046 0)
(10.0322 -0.0415056 0)
(10.0465 -0.0498312 0)
(10.0577 -0.0566342 0)
(10.0686 -0.0611108 0)
(10.0799 -0.0636759 0)
(10.0914 -0.0652451 0)
(10.1028 -0.0663822 0)
(10.114 -0.0673216 0)
(10.1252 -0.0682065 0)
(10.1362 -0.0691728 0)
(10.1471 -0.07034 0)
(10.1577 -0.0718031 0)
(10.1679 -0.0736417 0)
(10.1779 -0.0759206 0)
(10.1876 -0.0786872 0)
(10.1968 -0.0818899 0)
(10.0033 -0.0196811 0)
(10.0242 -0.0249718 0)
(10.0504 -0.0179349 0)
(10.0752 -0.0171098 0)
(10.1 -0.0213551 0)
(10.1263 -0.0262753 0)
(10.1534 -0.030703 0)
(10.1803 -0.0348852 0)
(10.2064 -0.0389491 0)
(10.2319 -0.0428575 0)
(10.2565 -0.0466191 0)
(10.2801 -0.0503099 0)
(10.3026 -0.0540235 0)
(10.3239 -0.0578533 0)
(10.3441 -0.0618883 0)
(10.3631 -0.0662501 0)
(10.3811 -0.0710101 0)
(10.3978 -0.0764376 0)
(10.0508 -0.0660324 0)
(10.1721 -0.116578 0)
(10.2678 -0.121535 0)
(10.3363 -0.118668 0)
(10.3884 -0.116112 0)
(10.4284 -0.113213 0)
(10.4571 -0.11006 0)
(10.4753 -0.107203 0)
(10.4847 -0.104825 0)
(10.4867 -0.102884 0)
(10.4825 -0.101343 0)
(10.4729 -0.100211 0)
(10.4588 -0.0995079 0)
(10.4405 -0.099264 0)
(10.4187 -0.0995086 0)
(10.3935 -0.100331 0)
(10.3653 -0.101749 0)
(10.3347 -0.104266 0)
(9.87617 0.0447086 0)
(9.63088 0.0259733 0)
(9.37421 0.00516932 0)
(9.1126 -0.0101197 0)
(8.85973 -0.0209892 0)
(8.62097 -0.0280958 0)
(8.3958 -0.0325431 0)
(8.183 -0.0353641 0)
(7.98191 -0.0371769 0)
(7.79195 -0.0383223 0)
(7.61229 -0.0390297 0)
(7.44193 -0.039476 0)
(7.27985 -0.0397958 0)
(7.12507 -0.0400937 0)
(6.97658 -0.0404521 0)
(6.83344 -0.040965 0)
(6.69432 -0.041699 0)
(6.55922 -0.0429792 0)
(-0.169504 0.395749 -2.43318e-20)
(0.397273 -0.51078 1.96042e-20)
(1.14654 -0.947192 0)
(1.91065 -0.945027 0)
(2.56219 -0.727404 0)
(2.99599 -0.440118 -2.01998e-20)
(3.20311 -0.143085 0)
(3.16371 0.134469 0)
(2.91478 0.362403 0)
(2.5264 0.505979 0)
(2.07571 0.535242 2.07501e-20)
(1.63206 0.458106 0)
(1.25219 0.32288 0)
(0.999022 0.184925 0)
(0.931732 0.0197758 0)
(1.00889 -0.208756 2.04567e-20)
(1.09423 -0.466345 0)
(1.08069 -0.620568 0)
(0.933595 -0.492452 0)
(0.549464 -0.0871095 0)
(-0.127637 0.352199 0)
(-0.974419 0.66006 0)
(-1.93247 0.879049 0)
(-2.94758 1.01637 1.61424e-20)
(-3.97624 1.07987 -1.66452e-20)
(-4.9809 1.08053 1.7813e-20)
(-5.93117 1.03101 1.93348e-20)
(-6.80411 0.944185 0)
(-7.58373 0.832097 0)
(-8.25984 0.705318 -2.40236e-20)
(-8.82691 0.572634 -2.52349e-20)
(-9.2834 0.441142 0)
(-9.63086 0.316826 0)
(-9.87282 0.204835 -2.70969e-20)
(-10.0141 0.108868 0)
(-10.0615 0.0305715 0)
(-10.0262 -0.0305139 2.58414e-20)
(-9.93366 -0.0785492 0)
(-9.78686 -0.118578 2.31394e-20)
(-9.59355 -0.152678 4.26242e-20)
(-9.35952 -0.181977 0)
(-9.08976 -0.207171 0)
(-8.78875 -0.22878 0)
(-8.4604 -0.247274 0)
(-8.10812 -0.263105 0)
(-7.73483 -0.276704 9.82384e-21)
(-7.3429 -0.288458 2.79962e-21)
(-6.93432 -0.298676 -4.64971e-21)
(-6.51076 -0.307561 0)
(-6.07379 -0.315191 2.08781e-20)
(-5.62505 -0.321526 0)
(-5.16639 -0.32643 -3.90056e-20)
(-4.70003 -0.329713 -4.88283e-20)
(-4.22856 -0.331191 0)
(-3.75491 -0.330737 0)
(-3.28221 -0.328317 0)
(-2.81362 -0.323999 -9.35363e-20)
(-2.35222 -0.317933 0)
(-1.90078 -0.310307 0)
(-1.46158 -0.301308 0)
(-1.03619 -0.291104 0)
(-0.625154 -0.279817 0)
(-0.228004 -0.267472 0)
(0.156998 -0.255119 0)
(0.530913 -0.243466 0)
(0.893695 -0.233157 1.54922e-19)
(1.24642 -0.224411 0)
(1.59115 -0.21735 0)
(1.93009 -0.212063 -1.32787e-19)
(2.26558 -0.208614 -1.2648e-19)
(2.59985 -0.207081 0)
(2.93503 -0.207248 1.14965e-19)
(3.27234 -0.20757 -1.09694e-19)
(3.61126 -0.201666 0)
(3.94414 -0.17256 1.00661e-19)
(4.25023 -0.0918976 0)
(4.476 0.0540872 0)
(4.5426 0.224872 -9.49823e-20)
(4.44801 0.35358 0)
(4.21989 0.399765 9.54745e-20)
(3.9 0.36219 0)
(3.54085 0.267879 -9.85866e-20)
(3.19403 0.150732 -1.00371e-19)
(2.89671 0.036068 -1.01973e-19)
(2.66194 -0.0453426 -2.07153e-19)
(2.49125 -0.0788651 2.09767e-19)
(2.3717 -0.0793189 0)
(2.29378 -0.0658507 0)
(2.25695 -0.0584271 0)
(2.27772 -0.0667187 2.08534e-19)
(2.38047 -0.0853592 2.04912e-19)
(2.57244 -0.0962587 -2.01236e-19)
(2.82616 -0.0846236 0)
(3.08165 -0.052662 1.93952e-19)
(3.28132 -0.0223819 1.91225e-19)
(3.38907 -0.0305493 1.89622e-19)
(3.37693 -0.0766005 0)
(3.15642 -0.0617333 0)
(2.53951 0.144948 0)
(1.38368 0.50573 1.92002e-19)
(-0.207819 0.784946 0)
(-1.91562 0.87 0)
(-3.54526 0.832416 -4.95764e-20)
(-5.00516 0.72944 0)
(-6.24457 0.600157 0)
(-7.25023 0.46773 3.53936e-20)
(-8.02913 0.344003 0)
(-8.59661 0.234505 0)
(-8.9708 0.141253 -7.03045e-20)
(-9.17148 0.0648971 -7.39356e-20)
(-9.21685 0.00515532 0)
(-9.14872 -0.0415389 6.98896e-20)
(-8.98158 -0.0818014 0)
(-8.72413 -0.118262 -5.30207e-20)
(-8.38271 -0.151966 0)
(-7.96208 -0.183447 -2.47046e-20)
(-7.46601 -0.213063 -6.43227e-21)
(-6.89755 -0.241009 0)
(-6.25964 -0.267247 0)
(-5.55587 -0.291432 0)
(-4.79145 -0.312889 0)
(-3.97427 -0.330683 0)
(-3.11543 -0.343793 0)
(-2.22889 -0.351244 0)
(-1.32979 -0.352264 2.42576e-19)
(-0.433332 -0.345525 -2.76375e-19)
(0.448144 -0.328091 0)
(1.30265 -0.306332 0)
(2.11325 -0.282523 0)
(2.86664 -0.256268 0)
(3.55519 -0.228102 -4.17409e-19)
(4.17292 -0.198586 0)
(4.71517 -0.167477 3.59327e-19)
(5.17757 -0.135083 -3.34624e-19)
(5.55596 -0.106628 0)
(5.85642 -0.0814141 0)
(6.07735 -0.0273755 0)
(6.11111 0.0740355 2.70783e-19)
(5.91517 0.19631 2.64214e-19)
(5.50215 0.29767 0)
(4.91525 0.341826 2.62933e-19)
(4.23152 0.315254 2.65721e-19)
(3.54677 0.235035 -2.69264e-19)
(2.93855 0.13655 0)
(2.44952 0.0515961 0)
(2.08405 -0.00584597 -2.80482e-19)
(1.83061 -0.036726 0)
(1.66522 -0.051421 0)
(1.56336 -0.0569453 0)
(1.50453 -0.0573404 0)
(1.47352 -0.0538943 2.96817e-19)
(1.45916 -0.0469999 2.98375e-19)
(1.45366 -0.0384061 0)
(1.45495 -0.0321942 2.99876e-19)
(1.47283 -0.0331626 0)
(1.53229 -0.0431314 0)
(1.67168 -0.058825 2.94809e-19)
(1.91573 -0.0657549 0)
(2.21771 -0.0446541 2.88589e-19)
(2.43512 -0.00554093 0)
(2.41771 0.0317063 0)
(2.05394 0.114453 2.79976e-19)
(1.17971 0.268026 0)
(-0.145879 0.36213 2.32825e-19)
(-1.4774 0.34536 0)
(-2.56067 0.261904 0)
(-3.3276 0.164304 0)
(-3.76708 0.0753702 -7.25247e-20)
(-3.8984 0.00206777 0)
(-3.77396 -0.057682 7.518e-20)
(-3.43393 -0.109039 0)
(-2.89802 -0.153238 0)
(-2.20223 -0.186995 0)
(-1.39825 -0.206205 0)
(-0.543696 -0.206288 0)
(0.304632 -0.189943 0)
(1.09008 -0.16106 0)
(1.76056 -0.127766 -5.23061e-19)
(2.30557 -0.0878529 0)
(2.64455 -0.0388799 0)
(0.34397 -0.646425 6.90635e-20)
(1.17284 -2.39622 -5.24667e-20)
(1.88546 -2.77967 0)
(2.40864 -2.35481 4.32613e-20)
(2.7389 -1.6654 0)
(2.91019 -0.960814 1.98925e-20)
(2.93748 -0.320745 -5.62492e-20)
(2.88351 0.24548 -5.44865e-20)
(2.74988 0.71422 0)
(2.5201 1.04524 -4.72236e-20)
(2.20496 1.20696 -1.91884e-20)
(1.84872 1.20437 0)
(1.53326 1.03218 0)
(1.30077 0.610727 0)
(1.02416 0.0162153 0)
(0.497399 -0.068974 -2.231e-20)
(-0.405165 0.524379 0)
(-1.51501 1.14365 3.27001e-20)
(-2.67647 1.68602 0)
(-3.84264 2.14549 0)
(-4.97119 2.47612 -2.46861e-20)
(-6.02323 2.65939 0)
(-6.97922 2.7122 2.51829e-20)
(-7.82006 2.65356 -9.0066e-21)
(-8.53509 2.50728 1.01308e-20)
(-9.12217 2.29828 -1.17354e-20)
(-9.58663 2.04963 -1.36806e-20)
(-9.93924 1.78073 0)
(-10.194 1.50647 0)
(-10.3664 1.23728 2.01208e-20)
(-10.4715 0.979722 -2.96822e-20)
(-10.5231 0.737487 0)
(-10.5324 0.512598 0)
(-10.5093 0.306462 2.57493e-20)
(-10.461 0.120747 0)
(-10.3894 -0.0433725 0)
(-10.2913 -0.186457 -2.50603e-20)
(-10.1486 -0.310674 0)
(-9.96577 -0.419139 2.54697e-20)
(-9.74369 -0.513609 -4.119e-20)
(-9.48543 -0.595381 0)
(-9.19468 -0.665589 0)
(-8.87519 -0.725374 -5.88366e-20)
(-8.53051 -0.775961 -4.74785e-20)
(-8.16379 -0.818637 -3.53883e-20)
(-7.77769 -0.854683 1.32097e-20)
(-7.37433 -0.885262 -2.66877e-21)
(-6.95536 -0.911304 9.51292e-21)
(-6.52212 -0.933403 -2.00279e-20)
(-6.07584 -0.951759 -1.9752e-20)
(-5.61787 -0.966186 0)
(-5.1499 -0.976195 3.66958e-20)
(-4.67414 -0.981144 -4.21577e-20)
(-4.19332 -0.980425 0)
(-3.7106 -0.973648 0)
(-3.22942 -0.960782 0)
(-2.75324 -0.9422 8.68021e-20)
(-2.28528 -0.91864 0)
(-1.82835 -0.891087 -2.17342e-19)
(-1.38469 -0.860635 0)
(-0.955724 -0.828358 -2.68987e-19)
(-0.541872 -0.795212 0)
(-0.143359 -0.761941 3.14073e-19)
(0.240541 -0.729619 0)
(0.611043 -0.699628 -2.94173e-19)
(0.968622 -0.673016 1.39074e-19)
(1.3149 -0.650286 0)
(1.652 -0.631744 2.57019e-19)
(1.98213 -0.617476 1.24245e-19)
(2.30746 -0.607258 1.19017e-19)
(2.62996 -0.600468 0)
(2.95073 -0.595938 1.07253e-19)
(3.26993 -0.59155 1.04859e-19)
(3.58646 -0.583243 0)
(3.90212 -0.562091 -9.68349e-20)
(4.22552 -0.511245 1.84896e-19)
(4.58508 -0.409215 0)
(5.01658 -0.246565 8.55789e-20)
(5.47541 -0.0380449 0)
(5.88289 0.182881 -2.32175e-19)
(6.16884 0.375261 0)
(6.29226 0.508025 2.16509e-19)
(6.23065 0.567574 7.21959e-20)
(5.98966 0.559747 -7.22674e-20)
(5.6062 0.502386 -1.4967e-19)
(5.13606 0.414858 1.56459e-19)
(4.64662 0.313583 0)
(4.19983 0.203318 0)
(3.84842 0.0761632 0)
(3.6331 -0.0729555 -5.41047e-19)
(3.57193 -0.233349 -1.78028e-19)
(3.66028 -0.371297 1.75343e-19)
(3.86075 -0.435136 0)
(4.09468 -0.396717 1.72943e-19)
(4.2491 -0.271146 -1.75082e-19)
(4.14906 -0.0515998 -1.76505e-19)
(3.46943 0.379079 0)
(1.95945 1.08902 0)
(-0.152004 1.83343 0)
(-2.27994 2.24921 -1.24599e-19)
(-4.14167 2.33736 0)
(-5.62792 2.18527 9.78894e-20)
(-6.74629 1.90165 8.12578e-20)
(-7.54873 1.57278 3.5785e-21)
(-8.10298 1.24947 0)
(-8.47408 0.954999 5.12816e-20)
(-8.71419 0.695645 0)
(-8.86094 0.469904 1.36745e-19)
(-8.93801 0.273929 -8.19665e-20)
(-8.9575 0.104403 -8.49499e-20)
(-8.92241 -0.04112 0)
(-8.80526 -0.167147 -2.18882e-19)
(-8.60259 -0.279914 1.33368e-19)
(-8.31722 -0.382772 5.30388e-20)
(-7.95313 -0.477613 0)
(-7.5141 -0.565751 2.45146e-20)
(-7.00329 -0.648205 2.53719e-20)
(-6.42322 -0.725581 0)
(-5.77622 -0.797816 -6.86278e-20)
(-5.06524 -0.863962 -1.20067e-19)
(-4.29494 -0.922136 -1.76632e-19)
(-3.47284 -0.969813 0)
(-2.6099 -1.00439 0)
(-1.72018 -1.02361 0)
(-0.818157 -1.0257 2.23356e-19)
(0.0815667 -1.00691 2.47871e-19)
(0.96434 -0.964746 0)
(1.81822 -0.909784 4.50758e-19)
(2.62661 -0.845624 4.26418e-19)
(3.37837 -0.773384 0)
(4.066 -0.695113 3.79811e-19)
(4.68379 -0.612899 7.06367e-19)
(5.22768 -0.528295 -3.33325e-19)
(5.69629 -0.44216 -3.08664e-19)
(6.08999 -0.355669 0)
(6.39878 -0.267211 0)
(6.6232 -0.161859 0)
(6.86021 -0.02892 -2.53831e-19)
(7.1205 0.130087 2.33276e-19)
(7.33509 0.29971 4.45446e-19)
(7.42936 0.451685 -2.14994e-19)
(7.35954 0.553209 2.02775e-19)
(7.12581 0.585356 2.02303e-19)
(6.76237 0.552741 0)
(6.31753 0.477091 0)
(5.84029 0.383546 -2.05343e-19)
(5.36164 0.291766 0)
(4.90223 0.214812 0)
(4.47326 0.156519 4.53244e-19)
(4.07901 0.114078 0)
(3.7202 0.0828073 2.42933e-19)
(3.39765 0.059213 -2.50422e-19)
(3.11496 0.040087 0)
(2.87957 0.0184114 2.636e-19)
(2.70216 -0.017658 0)
(2.5994 -0.0785475 0)
(2.59212 -0.166933 -2.70139e-19)
(2.70704 -0.251364 5.35778e-19)
(2.94206 -0.24821 -2.67838e-19)
(3.15784 -0.094022 0)
(2.9788 0.199571 0)
(1.97206 0.612299 2.62364e-19)
(0.255873 0.99017 0)
(-1.32866 1.03871 1.82065e-19)
(-2.42213 0.870476 0)
(-3.10751 0.627235 0)
(-3.50561 0.3892 0)
(-3.70157 0.17683 7.1994e-20)
(-3.7398 -0.00877654 0)
(-3.59708 -0.174472 -7.43336e-20)
(-3.24854 -0.324534 0)
(-2.70972 -0.455075 0)
(-2.01196 -0.55582 3.03186e-19)
(-1.20463 -0.615353 -3.82866e-19)
(-0.34528 -0.622061 0)
(0.508575 -0.58206 0)
(1.30197 -0.509131 0)
(1.99429 -0.419583 1.47238e-18)
(2.56744 -0.313352 0)
(3.00148 -0.184455 -9.68392e-19)
(0.493588 -2.82635 1.12836e-20)
(1.17449 -4.24504 7.90901e-20)
(1.52466 -3.67467 0)
(1.65447 -2.64639 -1.06162e-19)
(1.66708 -1.65085 0)
(1.62691 -0.771261 0)
(1.51802 0.00656765 -1.03013e-20)
(1.38266 0.649027 6.93673e-20)
(1.22655 1.16982 7.29267e-20)
(1.05678 1.55482 5.85988e-20)
(0.866231 1.7282 0)
(0.623685 1.60598 0)
(0.280856 1.26351 -5.31009e-20)
(-0.384845 1.23176 -8.73924e-20)
(-1.43527 1.67562 6.79702e-20)
(-2.65126 2.32824 0)
(-3.89105 2.97468 5.01189e-20)
(-5.06237 3.4835 -1.81104e-20)
(-6.11456 3.84038 0)
(-7.01545 4.04903 5.12204e-20)
(-7.75014 4.10869 1.82343e-20)
(-8.32592 4.02554 -5.98911e-20)
(-8.76328 3.82241 -2.11328e-20)
(-9.08879 3.52951 0)
(-9.33202 3.17878 7.98429e-20)
(-9.52082 2.79929 8.75789e-20)
(-9.67793 2.41423 0)
(-9.81871 2.03975 1.02922e-19)
(-9.95065 1.68529 0)
(-10.0741 1.35483 1.16091e-19)
(-10.1843 1.0487 5.20875e-20)
(-10.2734 0.765166 0)
(-10.3326 0.50156 0)
(-10.353 0.255122 0)
(-10.3284 0.0239385 0)
(-10.2571 -0.192899 0)
(-10.1401 -0.39548 0)
(-9.98027 -0.581686 1.12121e-19)
(-9.7814 -0.749299 -1.51887e-19)
(-9.54698 -0.897795 0)
(-9.28066 -1.02745 0)
(-8.98607 -1.13914 0)
(-8.66663 -1.23428 -6.73927e-21)
(-8.32544 -1.31467 4.66541e-20)
(-7.96504 -1.3824 7.54497e-20)
(-7.58737 -1.43968 -5.009e-20)
(-7.19375 -1.48853 -1.4701e-20)
(-6.78494 -1.53062 -4.95309e-21)
(-6.36132 -1.56693 5.83595e-21)
(-5.92322 -1.59772 -2.8718e-20)
(-5.47126 -1.62245 0)
(-5.0067 -1.63996 -6.12448e-20)
(-4.53165 -1.64878 5.66812e-21)
(-4.04918 -1.64752 0)
(-3.56313 -1.63521 0)
(-3.07781 -1.61161 1.364e-19)
(-2.59758 -1.57733 0)
(-2.12642 -1.53372 0)
(-1.66768 -1.48272 -1.97036e-19)
(-1.22391 -1.42659 -4.50703e-19)
(-0.796695 -1.3677 2.54727e-19)
(-0.38646 -1.3082 0)
(0.00689854 -1.25005 -2.89703e-19)
(0.383727 -1.19453 0)
(0.744826 -1.14336 -2.60967e-19)
(1.09091 -1.09772 -2.59187e-19)
(1.42372 -1.0584 4.91935e-19)
(1.74531 -1.02603 2.33468e-19)
(2.05796 -1.00084 0)
(2.36413 -0.982564 -4.39826e-19)
(2.66639 -0.970154 0)
(2.9673 -0.961422 -6.14579e-19)
(3.26901 -0.9526 -3.92566e-19)
(3.57301 -0.938277 -3.78141e-19)
(3.87981 -0.912059 3.64641e-19)
(4.18941 -0.868617 -5.30724e-19)
(4.50305 -0.802604 0)
(4.82932 -0.703595 0)
(5.1833 -0.558421 3.18772e-19)
(5.58243 -0.356434 4.6123e-19)
(6.01328 -0.0999712 0)
(6.40935 0.184092 -1.3979e-19)
(6.69182 0.455497 0)
(6.80005 0.675885 3.8808e-19)
(6.7101 0.818963 3.79522e-21)
(6.44175 0.873889 -3.13276e-21)
(6.04953 0.840246 -2.75513e-19)
(5.60436 0.720554 0)
(5.17531 0.514727 3.07194e-19)
(4.8189 0.226535 -1.91113e-21)
(4.58366 -0.107606 0)
(4.48811 -0.40148 0)
(4.4831 -0.541667 0)
(4.43687 -0.435166 -3.45834e-19)
(4.09885 -0.0102243 0)
(3.09917 0.834227 0)
(1.28112 2.023 0)
(-0.905988 3.08058 0)
(-2.83767 3.65452 0)
(-4.30197 3.74633 -1.44225e-19)
(-5.32143 3.48919 0)
(-6.00477 3.03208 -9.21734e-20)
(-6.48841 2.50877 -4.4076e-20)
(-6.87593 2.00594 -3.64057e-21)
(-7.22035 1.56196 0)
(-7.5334 1.18274 -8.67068e-20)
(-7.80399 0.858947 0)
(-8.01418 0.577464 -1.42589e-19)
(-8.14809 0.327019 1.59021e-19)
(-8.1965 0.0995695 5.29636e-19)
(-8.15667 -0.110466 0)
(-8.03076 -0.305617 4.83138e-19)
(-7.82283 -0.485629 1.58722e-19)
(-7.53666 -0.651657 0)
(-7.17607 -0.805335 1.96087e-19)
(-6.7445 -0.948424 1.31577e-19)
(-6.24465 -1.08255 -7.70042e-20)
(-5.6783 -1.20875 0)
(-5.0468 -1.32694 6.85219e-20)
(-4.35193 -1.43545 1.19227e-19)
(-3.59729 -1.53089 5.02652e-19)
(-2.78981 -1.60878 0)
(-1.94044 -1.66458 0)
(-1.06305 -1.69447 0)
(-0.172892 -1.69358 3.96034e-19)
(0.713655 -1.65739 0)
(1.5828 -1.5911 0)
(2.419 -1.50255 -3.99196e-19)
(3.20795 -1.39618 -3.82556e-19)
(3.93923 -1.27588 0)
(4.60538 -1.14562 0)
(5.20108 -1.00883 -6.54174e-19)
(5.72267 -0.868432 0)
(6.16781 -0.72676 5.85402e-19)
(6.536 -0.583947 5.49346e-19)
(6.82922 -0.438972 0)
(7.04668 -0.297656 0)
(7.18868 -0.162322 -4.85815e-19)
(7.28453 -0.0187861 -6.18552e-21)
(7.38853 0.143998 -6.52611e-21)
(7.52735 0.318387 0)
(7.67561 0.477783 -7.90344e-19)
(7.77769 0.591609 0)
(7.78681 0.643822 0)
(7.68507 0.63928 0)
(7.48036 0.597286 3.62075e-19)
(7.19381 0.539568 0)
(6.84894 0.480903 -7.51164e-19)
(6.46601 0.427674 -3.87138e-19)
(6.06048 0.380743 0)
(5.64374 0.338564 -4.14322e-19)
(5.22553 0.298552 0)
(4.81751 0.256441 0)
(4.43468 0.205932 -1.38267e-18)
(4.08933 0.139351 9.57337e-19)
(3.78449 0.0428411 0)
(3.53724 -0.0988225 1.01669e-18)
(3.37884 -0.254511 -5.10189e-19)
(3.31732 -0.283148 0)
(3.22399 0.000846058 0)
(2.66343 0.617516 0)
(1.29195 1.34761 -1.45665e-18)
(-0.313692 1.74995 0)
(-1.38653 1.62276 -3.5179e-19)
(-2.08793 1.2643 0)
(-2.61582 0.882782 0)
(-3.01437 0.543009 0)
(-3.25777 0.242847 0)
(-3.32084 -0.0313926 0)
(-3.19076 -0.291046 0)
(-2.86677 -0.534466 -3.28306e-19)
(-2.35863 -0.748373 0)
(-1.69377 -0.913955 -2.92828e-19)
(-0.918291 -1.01158 1.08338e-18)
(-0.0904671 -1.02385 0)
(0.729742 -0.960124 0)
(1.49022 -0.844135 -9.18132e-19)
(2.15246 -0.69979 -9.31095e-19)
(2.70288 -0.53758 9.28169e-19)
(3.13949 -0.354343 9.36028e-19)
(0.291894 -4.48816 -1.46103e-19)
(0.597484 -4.66465 -1.50567e-19)
(0.568081 -3.53658 -1.23233e-19)
(0.503878 -2.45724 -7.66976e-20)
(0.421417 -1.47422 0)
(0.31655 -0.57523 2.15221e-19)
(0.198879 0.243802 -1.16167e-19)
(0.0316898 0.948809 0)
(-0.195326 1.49535 -8.41547e-20)
(-0.469098 1.88395 0)
(-0.839945 2.14608 1.17956e-19)
(-1.4079 2.41011 0)
(-2.2394 2.83862 3.11332e-20)
(-3.28875 3.45933 4.84749e-20)
(-4.4046 4.10412 -4.0733e-20)
(-5.44547 4.62404 0)
(-6.34283 4.97686 -3.66727e-20)
(-7.07513 5.15905 0)
(-7.64475 5.18363 0)
(-8.06696 5.0736 -4.56584e-20)
(-8.36859 4.85411 0)
(-8.58436 4.55292 -2.19282e-20)
(-8.74999 4.19994 0)
(-8.89629 3.82143 0)
(-9.04452 3.43646 2.29475e-20)
(-9.20459 3.05576 -8.80525e-20)
(-9.37614 2.68308 -1.18387e-19)
(-9.55148 2.31781 -1.03221e-19)
(-9.71915 1.95778 0)
(-9.86697 1.60132 -2.54081e-19)
(-9.98413 1.24839 0)
(-10.0623 0.900823 -1.46468e-19)
(-10.0959 0.56198 0)
(-10.082 0.236088 0)
(-10.0202 -0.0732772 1.47679e-19)
(-9.91213 -0.363577 0)
(-9.76014 -0.632094 -1.35195e-19)
(-9.56798 -0.877018 1.35409e-20)
(-9.34043 -1.09689 2.23968e-19)
(-9.08292 -1.29114 -2.16347e-19)
(-8.80101 -1.46018 0)
(-8.49983 -1.60535 0)
(-8.18362 -1.72881 -8.24361e-20)
(-7.85539 -1.83329 0)
(-7.51673 -1.9219 -4.09893e-20)
(-7.1679 -1.99786 2.80668e-20)
(-6.80798 -2.06419 1.46892e-20)
(-6.43522 -2.12329 0)
(-6.04743 -2.17657 1.34728e-20)
(-5.64252 -2.22408 2.83396e-20)
(-5.21914 -2.26452 -7.19437e-20)
(-4.77716 -2.29547 5.99523e-20)
(-4.3182 -2.31395 7.68224e-20)
(-3.84565 -2.31712 0)
(-3.36444 -2.30298 0)
(-2.88043 -2.27095 -1.32198e-19)
(-2.39969 -2.22194 0)
(-1.92773 -2.15823 0)
(-1.46907 -2.08306 3.90112e-19)
(-1.02695 -2.00011 4.35443e-19)
(-0.603251 -1.91306 0)
(-0.198288 -1.82498 0)
(0.188184 -1.73882 0)
(0.556655 -1.65675 0)
(0.907608 -1.58096 4.91737e-19)
(1.24211 -1.51289 -4.67364e-19)
(1.5618 -1.45372 -4.62212e-19)
(1.86851 -1.40436 -8.87134e-19)
(2.16433 -1.36535 0)
(2.45162 -1.3367 7.91511e-21)
(2.73306 -1.31765 0)
(3.01171 -1.30626 3.92296e-19)
(3.29103 -1.29885 7.034e-21)
(3.57487 -1.2895 3.6575e-19)
(3.86729 -1.26978 -3.53077e-19)
(4.17165 -1.22962 6.32494e-21)
(4.48901 -1.15933 0)
(4.81703 -1.05273 -3.13014e-19)
(5.15005 -0.910085 -3.09798e-19)
(5.48232 -0.731685 -5.95741e-19)
(5.81441 -0.506302 0)
(6.15139 -0.214538 2.76619e-19)
(6.47654 0.141881 0)
(6.73422 0.52106 -5.02444e-19)
(6.86296 0.859419 2.47881e-19)
(6.82675 1.09717 -2.47634e-19)
(6.62889 1.19502 2.52926e-19)
(6.30703 1.13795 5.23845e-19)
(5.91825 0.928193 -2.78934e-19)
(5.52608 0.580465 2.99625e-19)
(5.18429 0.146183 0)
(4.90744 -0.234553 -6.6163e-19)
(4.61988 -0.340435 0)
(4.09965 0.0528073 -7.19722e-19)
(3.01438 1.08296 7.12539e-19)
(1.21494 2.60769 6.41732e-19)
(-0.841535 4.00956 -4.98389e-19)
(-2.52389 4.78566 -3.72483e-19)
(-3.68502 4.93253 0)
(-4.41495 4.62131 -5.49775e-20)
(-4.88613 4.071 0)