/*--------------------------------*- C++ -*----------------------------------*\
  =========                 |
  \\      /  F ield         | OpenFOAM: The Open Source CFD Toolbox
   \\    /   O peration     | Website:  https://openfoam.org
    \\  /    A nd           | Version:  9
     \\/     M anipulation  |
\*---------------------------------------------------------------------------*/
FoamFile
{
    format      ascii;
    class       volVectorField;
    location    "0.17";
    object      U;
}
// * * * * * * * * * * * * * * * * * * * * * * * * * * * * * * * * * * * * * //

dimensions      [0 1 -1 0 0 0 0];

internalField   nonuniform List<vector> 
12225
(
(9.86107 -0.874317 0)
(9.67247 -0.700191 0)
(9.45895 -0.38759 0)
(9.22462 -0.188475 0)
(9.00343 -0.0843897 0)
(8.8103 -0.0328709 0)
(8.64499 -0.00754429 0)
(8.50395 0.00503296 0)
(8.38372 0.0113469 0)
(8.28077 0.0144857 0)
(8.19173 0.0159846 0)
(8.11371 0.0166592 0)
(8.04431 0.0169529 0)
(7.98172 0.0171595 0)
(7.92298 0.0174721 0)
(7.86909 0.0186214 0)
(7.79917 0.0216123 0)
(7.77271 0.030442 0)
(10.0547 0.26307 0)
(10.1201 0.360742 0)
(10.118 0.273824 0)
(10.0826 0.187092 0)
(10.0405 0.131168 0)
(9.99388 0.0969354 0)
(9.94006 0.0755682 0)
(9.8803 0.061764 0)
(9.81771 0.0523622 0)
(9.75475 0.0455501 0)
(9.69287 0.0403851 0)
(9.63289 0.0364073 0)
(9.57517 0.0333619 0)
(9.52011 0.0312331 0)
(9.46691 0.029858 0)
(9.41805 0.0310261 0)
(9.36647 0.032195 0)
(9.34133 0.052911 0)
(9.99919 0.0460875 0)
(10.0244 0.034212 0)
(10.0538 0.0149541 0)
(10.0708 0.0218174 0)
(10.0778 0.0366816 0)
(10.0782 0.0460206 0)
(10.0722 0.0499643 0)
(10.0602 0.0511595 0)
(10.0438 0.0510712 0)
(10.0244 0.0503614 0)
(10.0028 0.0494018 0)
(9.97975 0.0484396 0)
(9.95554 0.0476264 0)
(9.93068 0.0471996 0)
(9.9051 0.0472356 0)
(9.87986 0.0490904 0)
(9.85416 0.0519317 0)
(9.83418 0.0635503 0)
(9.9968 0.00642883 0)
(10.0085 0.0250213 0)
(10.0342 0.038943 0)
(10.0528 0.0503097 0)
(10.0644 0.0571179 0)
(10.073 0.0591774 0)
(10.0789 0.0588696 0)
(10.0815 0.0579547 0)
(10.0815 0.0569547 0)
(10.0793 0.0559456 0)
(10.0756 0.0549809 0)
(10.0705 0.0541486 0)
(10.0641 0.0535407 0)
(10.0569 0.053355 0)
(10.0488 0.0537293 0)
(10.0405 0.0555545 0)
(10.0325 0.0584963 0)
(10.027 0.0651048 0)
(9.99922 0.00673863 0)
(10.0081 0.0335776 0)
(10.0271 0.0460497 0)
(10.0418 0.0508543 0)
(10.0524 0.0539263 0)
(10.0622 0.0555189 0)
(10.0708 0.0558705 0)
(10.0774 0.0556926 0)
(10.0822 0.0553317 0)
(10.0856 0.0548797 0)
(10.0879 0.0544119 0)
(10.0892 0.0540341 0)
(10.0897 0.053858 0)
(10.0894 0.054061 0)
(10.0887 0.0547982 0)
(10.0879 0.0565693 0)
(10.0877 0.0591889 0)
(10.0893 0.0631602 0)
(10.0002 0.00907557 0)
(10.0078 0.0321294 0)
(10.0225 0.0419191 0)
(10.035 0.0456768 0)
(10.0448 0.0491405 0)
(10.0541 0.0516819 0)
(10.0629 0.0528269 0)
(10.0704 0.0531864 0)
(10.0766 0.0532361 0)
(10.0818 0.0531409 0)
(10.0862 0.0529934 0)
(10.0898 0.0529027 0)
(10.0929 0.0529814 0)
(10.0955 0.0533756 0)
(10.0978 0.0542119 0)
(10.1002 0.0557371 0)
(10.1031 0.0577934 0)
(10.1075 0.0602321 0)
(10.0003 0.00880238 0)
(10.0068 0.0275237 0)
(10.0189 0.0370924 0)
(10.0303 0.0417544 0)
(10.0395 0.0456799 0)
(10.0482 0.0485105 0)
(10.0566 0.0499278 0)
(10.064 0.0505301 0)
(10.0705 0.0508037 0)
(10.0762 0.0509216 0)
(10.0813 0.0509714 0)
(10.0859 0.0510542 0)
(10.0901 0.051273 0)
(10.0939 0.0517398 0)
(10.0976 0.0525396 0)
(10.1014 0.0537678 0)
(10.1057 0.0552632 0)
(10.1111 0.0567058 0)
(10.0004 0.0078398 0)
(10.0057 0.0237019 0)
(10.016 0.0333806 0)
(10.0264 0.0386035 0)
(10.0351 0.0425041 0)
(10.0433 0.0453045 0)
(10.0511 0.0468668 0)
(10.0584 0.0476567 0)
(10.0648 0.0480998 0)
(10.0707 0.0483702 0)
(10.0761 0.048556 0)
(10.081 0.04875 0)
(10.0857 0.0490419 0)
(10.0901 0.0495124 0)
(10.0944 0.0502076 0)
(10.0989 0.0511371 0)
(10.1038 0.0521398 0)
(10.1093 0.0529048 0)
(10.0004 0.00695425 0)
(10.0049 0.0207162 0)
(10.0136 0.0300488 0)
(10.023 0.0354203 0)
(10.0312 0.0392112 0)
(10.0389 0.0419791 0)
(10.0464 0.0436785 0)
(10.0533 0.0446352 0)
(10.0597 0.0452142 0)
(10.0655 0.0455976 0)
(10.0709 0.0458781 0)
(10.0761 0.0461393 0)
(10.0809 0.0464562 0)
(10.0856 0.0468838 0)
(10.0902 0.0474387 0)
(10.095 0.0480877 0)
(10.1001 0.0486834 0)
(10.1056 0.0489833 0)
(10.0004 0.00616797 0)
(10.0042 0.0181322 0)
(10.0116 0.0268138 0)
(10.0199 0.0321609 0)
(10.0277 0.035877 0)
(10.0349 0.0386152 0)
(10.042 0.0404089 0)
(10.0487 0.041492 0)
(10.0549 0.042175 0)
(10.0607 0.0426411 0)
(10.0661 0.0429853 0)
(10.0713 0.0432814 0)
(10.0762 0.0435898 0)
(10.081 0.0439466 0)
(10.0858 0.0443499 0)
(10.0907 0.0447509 0)
(10.0957 0.0450258 0)
(10.101 0.0450068 0)
(10.0003 0.00543168 0)
(10.0036 0.0158111 0)
(10.0099 0.0237302 0)
(10.0173 0.0289351 0)
(10.0245 0.0325607 0)
(10.0314 0.0352334 0)
(10.0381 0.0370622 0)
(10.0445 0.0382277 0)
(10.0505 0.0389856 0)
(10.0562 0.0395094 0)
(10.0616 0.0398925 0)
(10.0667 0.0401993 0)
(10.0717 0.040478 0)
(10.0765 0.0407515 0)
(10.0813 0.0410091 0)
(10.0862 0.0412019 0)
(10.0911 0.041234 0)
(10.0961 0.0409997 0)
(10.0003 0.00477971 0)
(10.0031 0.0138674 0)
(10.0086 0.0210584 0)
(10.0152 0.0260312 0)
(10.0219 0.0295304 0)
(10.0284 0.0321093 0)
(10.0348 0.0339252 0)
(10.041 0.0351288 0)
(10.0468 0.0359289 0)
(10.0524 0.0364833 0)
(10.0577 0.0368817 0)
(10.0628 0.0371809 0)
(10.0678 0.0374197 0)
(10.0726 0.0376139 0)
(10.0774 0.0377505 0)
(10.0821 0.0377881 0)
(10.0869 0.0376552 0)
(10.0917 0.0372911 0)
(10.0003 0.00417371 0)
(10.0028 0.0121017 0)
(10.0075 0.0185464 0)
(10.0134 0.0231967 0)
(10.0196 0.0265267 0)
(10.0258 0.0289881 0)
(10.0319 0.030757 0)
(10.0378 0.0319664 0)
(10.0435 0.0327854 0)
(10.0489 0.0333524 0)
(10.0541 0.0337509 0)
(10.0592 0.0340316 0)
(10.0641 0.0342264 0)
(10.0688 0.0343465 0)
(10.0735 0.0343806 0)
(10.0782 0.0342969 0)
(10.0828 0.0340445 0)
(10.0874 0.0335952 0)
(10.0003 0.00354235 0)
(10.0024 0.0102649 0)
(10.0064 0.0158565 0)
(10.0117 0.0200531 0)
(10.0174 0.0231263 0)
(10.0231 0.0254115 0)
(10.0289 0.0270817 0)
(10.0345 0.0282548 0)
(10.04 0.0290625 0)
(10.0453 0.0296191 0)
(10.0504 0.0299989 0)
(10.0554 0.0302462 0)
(10.0602 0.030387 0)
(10.0649 0.0304305 0)
(10.0695 0.030369 0)
(10.074 0.0301823 0)
(10.0784 0.0298382 0)
(10.0827 0.0293335 0)
(10.0002 0.002884 0)
(10.002 0.00835604 0)
(10.0055 0.0129988 0)
(10.0101 0.0166068 0)
(10.0153 0.0193137 0)
(10.0206 0.0213453 0)
(10.026 0.0228504 0)
(10.0313 0.0239298 0)
(10.0366 0.0246822 0)
(10.0417 0.0251957 0)
(10.0467 0.0255318 0)
(10.0515 0.0257283 0)
(10.0562 0.0258065 0)
(10.0608 0.0257749 0)
(10.0652 0.025631 0)
(10.0695 0.0253654 0)
(10.0737 0.0249614 0)
(10.0778 0.0244324 0)
(10.0002 0.0021989 0)
(10.0017 0.00637568 0)
(10.0047 0.00997791 0)
(10.0088 0.0128588 0)
(10.0134 0.0150713 0)
(10.0183 0.0167509 0)
(10.0233 0.0180081 0)
(10.0284 0.0189213 0)
(10.0334 0.0195603 0)
(10.0383 0.0199874 0)
(10.0431 0.0202494 0)
(10.0477 0.0203758 0)
(10.0523 0.020384 0)
(10.0567 0.0202827 0)
(10.061 0.0200738 0)
(10.0651 0.0197561 0)
(10.0691 0.0193239 0)
(10.073 0.0187992 0)
(10.0002 0.00148389 0)
(10.0015 0.00430703 0)
(10.0041 0.00677137 0)
(10.0077 0.00878482 0)
(10.0119 0.0103622 0)
(10.0164 0.0115731 0)
(10.021 0.0124845 0)
(10.0258 0.0131472 0)
(10.0306 0.0136044 0)
(10.0353 0.0138947 0)
(10.0399 0.0140481 0)
(10.0444 0.0140849 0)
(10.0488 0.0140177 0)
(10.053 0.0138543 0)
(10.0571 0.0135989 0)
(10.0611 0.0132548 0)
(10.0648 0.0128221 0)
(10.0685 0.0123254 0)
(10.0001 0.000721203 0)
(10.0013 0.00209391 0)
(10.0037 0.00329929 0)
(10.0069 0.0042963 0)
(10.0108 0.00508751 0)
(10.015 0.00569769 0)
(10.0194 0.00615191 0)
(10.024 0.0064703 0)
(10.0285 0.00667063 0)
(10.033 0.0067687 0)
(10.0375 0.00677701 0)
(10.0418 0.00670431 0)
(10.046 0.0065566 0)
(10.0501 0.00633823 0)
(10.054 0.0060527 0)
(10.0577 0.00570393 0)
(10.0614 0.00529354 0)
(10.0648 0.00484403 0)
(10.0001 -0.000135938 0)
(10.0013 -0.000396058 0)
(10.0035 -0.000627945 0)
(10.0067 -0.000818776 0)
(10.0104 -0.000965813 0)
(10.0145 -0.00108274 0)
(10.0188 -0.0011887 0)
(10.0232 -0.00129752 0)
(10.0277 -0.00141789 0)
(10.0321 -0.00155706 0)
(10.0364 -0.00172165 0)
(10.0406 -0.00191681 0)
(10.0446 -0.00214594 0)
(10.0485 -0.00241093 0)
(10.0523 -0.00271249 0)
(10.0559 -0.00304965 0)
(10.0594 -0.00342251 0)
(10.0627 -0.00381424 0)
(10.0001 -0.000960278 0)
(10.0014 -0.00279747 0)
(10.0038 -0.00442169 0)
(10.0071 -0.0057507 0)
(10.0111 -0.00677803 0)
(10.0153 -0.00756512 0)
(10.0197 -0.00817885 0)
(10.0242 -0.00866448 0)
(10.0287 -0.00905656 0)
(10.0331 -0.00938716 0)
(10.0374 -0.0096829 0)
(10.0416 -0.00996251 0)
(10.0456 -0.0102386 0)
(10.0495 -0.0105199 0)
(10.0532 -0.0108123 0)
(10.0567 -0.0111191 0)
(10.0601 -0.011443 0)
(10.0633 -0.0117729 0)
(10.0002 -0.00167459 0)
(10.0015 -0.00490198 0)
(10.0042 -0.00774654 0)
(10.008 -0.0100048 0)
(10.0123 -0.0116921 0)
(10.0169 -0.012965 0)
(10.0215 -0.0139413 0)
(10.0262 -0.0146802 0)
(10.0308 -0.0152362 0)
(10.0353 -0.0156681 0)
(10.0396 -0.016023 0)
(10.0438 -0.0163312 0)
(10.0478 -0.0166125 0)
(10.0517 -0.0168808 0)
(10.0554 -0.017146 0)
(10.0589 -0.0174139 0)
(10.0622 -0.017689 0)
(10.0654 -0.0179637 0)
(10.0002 -0.00235692 0)
(10.0017 -0.00699186 0)
(10.0048 -0.0110845 0)
(10.0092 -0.0141768 0)
(10.0141 -0.0163626 0)
(10.019 -0.0179793 0)
(10.024 -0.0192072 0)
(10.0289 -0.0201107 0)
(10.0337 -0.0207618 0)
(10.0383 -0.0212433 0)
(10.0428 -0.0216165 0)
(10.047 -0.0219198 0)
(10.0511 -0.0221793 0)
(10.0549 -0.0224145 0)
(10.0586 -0.0226384 0)
(10.0621 -0.0228589 0)
(10.0654 -0.0230814 0)
(10.0686 -0.0233008 0)
(10.0002 -0.0029929 0)
(10.0018 -0.00910193 0)
(10.0056 -0.0144682 0)
(10.0108 -0.0183064 0)
(10.0164 -0.0209192 0)
(10.0217 -0.0228067 0)
(10.027 -0.0241635 0)
(10.0322 -0.0250953 0)
(10.0372 -0.0257399 0)
(10.042 -0.0262087 0)
(10.0465 -0.026562 0)
(10.0508 -0.0268347 0)
(10.0549 -0.0270556 0)
(10.0588 -0.0272476 0)
(10.0625 -0.0274254 0)
(10.066 -0.0275975 0)
(10.0693 -0.0277693 0)
(10.0724 -0.0279375 0)
(10.0001 -0.00356931 0)
(10.0019 -0.0115339 0)
(10.0065 -0.0179233 0)
(10.0127 -0.0220454 0)
(10.0189 -0.0250232 0)
(10.0248 -0.0273179 0)
(10.0305 -0.0288539 0)
(10.036 -0.0297607 0)
(10.0412 -0.0303151 0)
(10.0461 -0.0306953 0)
(10.0507 -0.0309673 0)
(10.0551 -0.0311632 0)
(10.0592 -0.0313125 0)
(10.0631 -0.0314387 0)
(10.0668 -0.0315555 0)
(10.0702 -0.0316699 0)
(10.0735 -0.0317854 0)
(10.0766 -0.031898 0)
(9.99997 -0.00368948 0)
(10.0018 -0.0151786 0)
(10.0076 -0.0226476 0)
(10.0148 -0.0259747 0)
(10.0214 -0.028534 0)
(10.0277 -0.0309922 0)
(10.034 -0.0327664 0)
(10.04 -0.0338012 0)
(10.0455 -0.0343977 0)
(10.0506 -0.034765 0)
(10.0553 -0.0349863 0)
(10.0597 -0.0351105 0)
(10.0638 -0.0351798 0)
(10.0677 -0.0352239 0)
(10.0712 -0.0352591 0)
(10.0745 -0.035294 0)
(10.0776 -0.035332 0)
(10.0805 -0.0353707 0)
(9.99898 -0.00130894 0)
(9.99999 -0.0179731 0)
(10.0085 -0.0290674 0)
(10.0174 -0.0326899 0)
(10.0244 -0.0341107 0)
(10.0312 -0.0353336 0)
(10.0382 -0.036277 0)
(10.0449 -0.0369157 0)
(10.0507 -0.0373625 0)
(10.0559 -0.0376576 0)
(10.0606 -0.0378156 0)
(10.0648 -0.0378726 0)
(10.0685 -0.0378698 0)
(10.0718 -0.0378367 0)
(10.0747 -0.0377916 0)
(10.0772 -0.0377458 0)
(10.0795 -0.0377026 0)
(10.0815 -0.0376616 0)
(9.99528 0.00386911 0)
(9.99334 -0.010311 0)
(10.007 -0.0271018 0)
(10.0212 -0.0389231 0)
(10.0311 -0.044859 0)
(10.0392 -0.046463 0)
(10.0466 -0.0459769 0)
(10.053 -0.0450173 0)
(10.0581 -0.0441394 0)
(10.0621 -0.0433641 0)
(10.0652 -0.0426483 0)
(10.0675 -0.0419889 0)
(10.0691 -0.0413924 0)
(10.07 -0.0408586 0)
(10.0704 -0.0403849 0)
(10.0704 -0.0399705 0)
(10.0701 -0.0396058 0)
(10.0694 -0.0392639 0)
(9.99144 -0.0172933 0)
(9.99189 0.000366109 0)
(10.01 0.0176666 0)
(10.0296 0.0115899 0)
(10.0441 -0.00510645 0)
(10.0541 -0.0188217 0)
(10.06 -0.0271673 0)
(10.0623 -0.0320437 0)
(10.0617 -0.0349245 0)
(10.0591 -0.0365293 0)
(10.0549 -0.0373056 0)
(10.0495 -0.0375785 0)
(10.0432 -0.0375609 0)
(10.0361 -0.0373825 0)
(10.0286 -0.0371269 0)
(10.0207 -0.0368552 0)
(10.0126 -0.0366231 0)
(10.0044 -0.0363993 0)
(10.0236 -0.206007 0)
(10.0684 -0.312338 0)
(10.0788 -0.255591 0)
(10.0704 -0.184175 0)
(10.0605 -0.134899 0)
(10.0499 -0.102724 0)
(10.0342 -0.0811629 0)
(10.0129 -0.0666161 0)
(9.9878 -0.0566239 0)
(9.96056 -0.0494678 0)
(9.93235 -0.0441102 0)
(9.90385 -0.0399615 0)
(9.87556 -0.0366634 0)
(9.84781 -0.0339833 0)
(9.82084 -0.0317731 0)
(9.79477 -0.0299694 0)
(9.76984 -0.0285418 0)
(9.74607 -0.0278069 0)
(9.94226 0.671595 0)
(9.87996 0.567455 0)
(9.77444 0.338467 0)
(9.63238 0.18332 0)
(9.48764 0.094907 0)
(9.35652 0.0470843 0)
(9.24096 0.0212998 0)
(9.13946 0.0070786 0)
(9.05052 -0.000980473 0)
(8.97253 -0.00562137 0)
(8.90376 -0.00831021 0)
(8.84269 -0.00987212 0)
(8.78806 -0.0107773 0)
(8.73888 -0.0112946 0)
(8.69433 -0.0115848 0)
(8.6537 -0.0117727 0)
(8.61616 -0.0119519 0)
(8.5813 -0.0124835 0)
(0.00512262 -0.0121804 -3.49763e-20)
(0.0158128 -0.0159828 3.44201e-20)
(0.0234692 -0.0115107 0)
(0.0268954 -0.00436422 0)
(0.0253227 0.00267225 0)
(0.019565 0.00822253 -3.19591e-20)
(0.0105996 0.0120289 0)
(-0.00072461 0.0144293 0)
(-0.0137366 0.0159215 0)
(-0.028021 0.0169015 0)
(-0.0433186 0.0176173 2.87979e-20)
(-0.0594643 0.0182103 0)
(-0.0763648 0.0187513 0)
(-0.0939659 0.0192705 0)
(-0.112233 0.019777 0)
(-0.13114 0.0202705 2.57111e-20)
(-0.150664 0.0207473 0)
(-0.170784 0.021203 0)
(-0.191478 0.0216339 0)
(-0.212723 0.0220369 0)
(-0.234496 0.0224085 0)
(-0.256771 0.0227434 0)
(-0.279522 0.0230343 0)
(-0.302717 0.0232771 2.22192e-20)
(-0.326324 0.0234828 -2.18947e-20)
(-0.350323 0.0236915 2.1594e-20)
(-0.374713 0.0239638 2.13169e-20)
(-0.399489 0.0243406 0)
(-0.424667 0.0249027 0)
(-0.450456 0.0261786 -2.06277e-20)
(-0.47713 0.0288045 -2.04424e-20)
(-0.504568 0.0306643 0)
(-0.532481 0.0284803 0)
(-0.560261 0.0265612 -1.99357e-20)
(-0.588219 0.0294699 0)
(-0.617768 0.0362965 0)
(-0.648797 0.0408269 1.94488e-20)
(-0.681336 0.0366418 0)
(-0.71451 0.0431992 1.9116e-20)
(-0.74945 0.0538826 3.79125e-20)
(-0.788331 0.0644701 0)
(-0.826696 0.059469 0)
(-0.864687 0.03282 0)
(-0.898561 0.0265848 0)
(-0.933226 0.0309894 0)
(-0.970869 0.0320352 3.98702e-20)
(-1.0092 0.0327817 3.94331e-20)
(-1.04826 0.0331602 3.90052e-20)
(-1.08774 0.0333321 0)
(-1.12751 0.0333699 -3.81807e-20)
(-1.16747 0.0333186 0)
(-1.20753 0.033205 3.7399e-20)
(-1.24766 0.0330455 3.70234e-20)
(-1.28781 0.03285 0)
(-1.32794 0.032625 0)
(-1.36802 0.032374 0)
(-1.40801 0.0320994 3.56104e-20)
(-1.4479 0.0318024 0)
(-1.48764 0.0314836 0)
(-1.52722 0.0311431 0)
(-1.56659 0.0307809 0)
(-1.60573 0.0303967 0)
(-1.64461 0.0299901 0)
(-1.68319 0.029561 0)
(-1.72144 0.0291091 0)
(-1.75933 0.028634 -3.27932e-20)
(-1.79681 0.0281357 0)
(-1.83385 0.0276142 0)
(-1.87042 0.0270694 3.19094e-20)
(-1.90647 0.0265017 3.16159e-20)
(-1.94197 0.0259112 0)
(-1.97687 0.0252983 -3.10275e-20)
(-2.01115 0.0246635 3.07314e-20)
(-2.04476 0.0240074 0)
(-2.07765 0.0233306 -3.01326e-20)
(-2.1098 0.0226338 0)
(-2.14116 0.0219179 0)
(-2.1717 0.0211835 2.92103e-20)
(-2.20138 0.0204316 0)
(-2.23015 0.019663 -2.85733e-20)
(-2.25799 0.0188785 0)
(-2.28486 0.0180788 2.7914e-20)
(-2.31072 0.0172648 2.75748e-20)
(-2.33554 0.0164369 2.72286e-20)
(-2.35928 0.0155955 5.37501e-20)
(-2.3819 0.0147407 -5.30273e-20)
(-2.40339 0.0138724 0)
(-2.42369 0.0129896 0)
(-2.44279 0.0120912 0)
(-2.46063 0.0111751 -4.99642e-20)
(-2.47719 0.010238 -4.91518e-20)
(-2.49242 0.00927596 4.83196e-20)
(-2.50629 0.00828404 0)
(-2.51874 0.00725655 -4.65932e-20)
(-2.52971 0.00618657 -4.56982e-20)
(-2.53915 0.00506842 -4.47817e-20)
(-2.54698 0.00390493 0)
(-2.5531 0.00272027 0)
(-2.5574 0.00156528 0)
(-2.55977 0.000500682 -4.08928e-20)
(-2.56053 -0.000424008 0)
(-2.55985 -0.00126324 0)
(-2.5577 -0.00207791 3.77027e-20)
(-2.55409 -0.00288183 0)
(-2.54902 -0.0036801 0)
(-2.54248 -0.00447362 3.42761e-20)
(-2.53444 -0.00526218 0)
(-2.52491 -0.00604513 0)
(-2.51388 -0.00682164 -3.06094e-20)
(-2.50133 -0.00759086 -2.9334e-20)
(-2.48727 -0.00835191 0)
(-2.47168 -0.00910392 2.67042e-20)
(-2.45459 -0.00984606 0)
(-2.43597 -0.0105775 -2.39713e-20)
(-2.41584 -0.0112974 0)
(-2.39421 -0.0120049 -2.11381e-20)
(-2.37107 -0.0126994 -1.96851e-20)
(-2.34644 -0.01338 0)
(-2.32033 -0.0140459 0)
(-2.29276 -0.0146965 0)
(-2.26374 -0.015331 0)
(-2.23328 -0.0159489 0)
(-2.20141 -0.0165494 0)
(-2.16815 -0.017132 0)
(-2.13352 -0.0176962 -7.27703e-21)
(-2.09754 -0.0182415 5.64048e-21)
(-2.06024 -0.0187672 0)
(-2.02165 -0.019273 0)
(-1.9818 -0.0197584 0)
(-1.94072 -0.0202229 0)
(-1.89844 -0.0206663 -5.51181e-21)
(-1.855 -0.0210882 0)
(-1.81043 -0.0214883 1.23836e-20)
(-1.76477 -0.0218666 -1.58425e-20)
(-1.71806 -0.0222227 0)
(-1.67033 -0.0225566 0)
(-1.62163 -0.0228681 0)
(-1.572 -0.0231572 2.97679e-20)
(-1.52148 -0.023424 3.32577e-20)
(-1.47011 -0.0236685 0)
(-1.41793 -0.023891 4.02279e-20)
(-1.365 -0.0240915 4.37026e-20)
(-1.31134 -0.0242703 -4.71666e-20)
(-1.25701 -0.0244278 0)
(-1.20205 -0.0245643 0)
(-1.14651 -0.0246802 -5.7466e-20)
(-1.09041 -0.0247761 0)
(-1.03382 -0.0248524 0)
(-0.976764 -0.0249098 0)
(-0.919289 -0.024949 0)
(-0.861433 -0.0249707 7.41616e-20)
(-0.803236 -0.0249756 7.74071e-20)
(-0.744734 -0.0249646 0)
(-0.685964 -0.0249385 8.37854e-20)
(-0.626958 -0.0248982 0)
(-0.56775 -0.0248446 0)
(-0.508369 -0.0247786 9.3039e-20)
(-0.448846 -0.0247008 0)
(-0.389206 -0.024612 9.89758e-20)
(-0.329478 -0.0245119 0)
(-0.269689 -0.0244001 0)
(-0.209867 -0.0242726 1.07498e-19)
(-0.150044 -0.0241222 0)
(-0.0902467 -0.0239459 1.12907e-19)
(-0.030496 -0.0237344 0)
(0.0291073 -0.0234121 0)
(0.0885386 -0.0230131 0)
(0.14785 -0.0226318 -1.19092e-19)
(0.207044 -0.022275 0)
(0.266135 -0.0219332 1.20555e-19)
(0.325126 -0.021597 0)
(0.383999 -0.0212562 0)
(0.442706 -0.0208966 0)
(0.501137 -0.0204945 0)
(0.55911 -0.0200042 0)
(0.616113 -0.019333 0)
(0.671724 -0.0182321 0)
(0.721811 -0.0160683 -2.48113e-19)
(0.77047 -0.01117 0)
(0.771897 0.00649118 0)
(0.00373339 -0.0315082 1.03822e-19)
(0.00677976 -0.0259689 -9.90785e-20)
(0.00467753 -0.0121555 0)
(0.000110407 0.00143652 5.92724e-20)
(-0.00659985 0.0135571 0)
(-0.0154092 0.0236012 2.76576e-20)
(-0.0262114 0.0314421 -5.37989e-20)
(-0.0388704 0.0373266 -5.24198e-20)
(-0.053203 0.0416916 0)
(-0.0689949 0.0449845 -4.98424e-20)
(-0.0860394 0.0475623 -2.43285e-20)
(-0.104164 0.0496765 0)
(-0.123239 0.0514908 0)
(-0.143168 0.0531044 0)
(-0.163886 0.0545743 0)
(-0.18535 0.0559321 -2.16917e-20)
(-0.207532 0.0571947 0)
(-0.230414 0.0583715 4.16101e-20)
(-0.253989 0.0594685 0)
(-0.278257 0.0604899 0)
(-0.303222 0.0614392 -3.9381e-20)
(-0.328899 0.0623188 0)
(-0.355309 0.063132 3.81323e-20)
(-0.382484 0.0638859 -1.88136e-20)
(-0.410471 0.0645975 1.85618e-20)
(-0.439322 0.0652944 -1.8335e-20)
(-0.469093 0.0660027 -1.81341e-20)
(-0.499857 0.0667291 0)
(-0.531701 0.0674783 0)
(-0.564586 0.0683513 1.77066e-20)
(-0.598253 0.0695183 -1.756e-20)
(-0.632788 0.0707179 0)
(-0.668819 0.0713104 0)
(-0.706454 0.0716933 1.73895e-20)
(-0.745014 0.0725553 0)
(-0.783609 0.0739725 0)
(-0.822479 0.0755854 -1.7051e-20)
(-0.862493 0.0764924 0)
(-0.902364 0.076991 1.66568e-20)
(-0.941804 0.0779589 -3.32661e-20)
(-0.978785 0.0789214 0)
(-1.01678 0.0808508 0)
(-1.05643 0.0821503 -6.52515e-20)
(-1.09759 0.0834716 -6.45101e-20)
(-1.1377 0.0849403 -6.37503e-20)
(-1.17626 0.0856874 3.14347e-20)
(-1.21411 0.0859214 -3.12445e-20)
(-1.25156 0.0858283 -9.25569e-20)
(-1.28871 0.0855022 6.09935e-20)
(-1.32562 0.0850127 3.02514e-20)
(-1.36231 0.0844034 0)
(-1.39879 0.0837032 -2.96357e-20)
(-1.43505 0.0829311 2.91893e-20)
(-1.47108 0.0820991 0)
(-1.50688 0.0812148 0)
(-1.54241 0.0802828 0)
(-1.57767 0.0793058 -2.82268e-20)
(-1.61264 0.0782851 0)
(-1.64729 0.077221 5.5257e-20)
(-1.6816 0.0761135 0)
(-1.71556 0.0749621 5.42474e-20)
(-1.74913 0.0737664 0)
(-1.7823 0.0725256 -5.32654e-20)
(-1.81504 0.0712393 0)
(-1.84732 0.0699072 5.23035e-20)
(-1.87911 0.0685289 -2.58421e-20)
(-1.91038 0.0671045 0)
(-1.94112 0.0656341 -5.08822e-20)
(-1.97128 0.0641181 -2.52738e-20)
(-2.00084 0.0625571 -2.50365e-20)
(-2.02977 0.0609519 0)
(-2.05804 0.0593036 -2.44306e-20)
(-2.08563 0.0576133 -2.43183e-20)
(-2.11249 0.0558825 0)
(-2.13861 0.0541127 2.38301e-20)
(-2.16394 0.0523055 -4.70497e-20)
(-2.18847 0.0504629 0)
(-2.21216 0.0485865 -2.30755e-20)
(-2.23499 0.0466785 0)
(-2.25693 0.0447407 6.75629e-20)
(-2.27794 0.0427753 0)
(-2.298 0.040784 -6.5949e-20)
(-2.31709 0.0387688 -2.17331e-20)
(-2.33517 0.0367314 2.13736e-20)
(-2.35222 0.0346735 4.21777e-20)
(-2.36822 0.0325965 -4.1596e-20)
(-2.38314 0.0305014 0)
(-2.39695 0.0283891 0)
(-2.40962 0.0262601 0)
(-2.42114 0.0241141 1.17554e-19)
(-2.43148 0.0219505 3.85443e-20)
(-2.44062 0.0197678 -3.78629e-20)
(-2.44854 0.017564 0)
(-2.45522 0.0153368 -3.64329e-20)
(-2.46066 0.0130829 3.57203e-20)
(-2.46486 0.0107977 3.49721e-20)
(-2.46784 0.00848024 0)
(-2.46967 0.00614737 0)
(-2.47044 0.00384772 0)
(-2.47025 0.00163312 3.17916e-20)
(-2.46888 -0.000469488 0)
(-2.46615 -0.00249875 -6.02533e-20)
(-2.46203 -0.0044947 -8.76992e-20)
(-2.45648 -0.00646911 5.67153e-20)
(-2.44949 -0.00842637 0)
(-2.44104 -0.0103664 2.65941e-20)
(-2.43113 -0.0122877 0)
(-2.41973 -0.014188 4.92e-20)
(-2.40685 -0.0160651 -2.37179e-20)
(-2.39247 -0.0179167 -2.27232e-20)
(-2.3766 -0.0197405 0)
(-2.35922 -0.0215341 -6.15372e-20)
(-2.34035 -0.0232956 3.89997e-20)
(-2.31997 -0.0250227 1.82868e-20)
(-2.29811 -0.0267136 0)
(-2.27475 -0.0283662 1.60807e-20)
(-2.24991 -0.0299787 4.51914e-20)
(-2.2236 -0.0315493 0)
(-2.19582 -0.0330763 2.56732e-20)
(-2.1666 -0.034558 2.33497e-20)
(-2.13595 -0.0359928 2.1e-20)
(-2.10388 -0.0373794 0)
(-2.07042 -0.0387164 0)
(-2.03558 -0.0400026 0)
(-1.99938 -0.0412369 -5.8988e-21)
(-1.96186 -0.0424184 -4.23227e-21)
(-1.92303 -0.0435462 0)
(-1.88294 -0.0446193 -3.937e-21)
(-1.84159 -0.045637 -1.43027e-21)
(-1.79903 -0.0465986 0)
(-1.75529 -0.0475036 4.10838e-21)
(-1.7104 -0.0483517 1.23124e-20)
(-1.6644 -0.0491428 -9.20684e-21)
(-1.61733 -0.0498768 -1.07382e-20)
(-1.56921 -0.0505536 0)
(-1.5201 -0.0511734 0)
(-1.47002 -0.0517364 0)
(-1.41903 -0.0522429 -2.19962e-20)
(-1.36716 -0.0526936 2.34683e-20)
(-1.31446 -0.0530891 5.30933e-20)
(-1.26096 -0.0534304 -2.96232e-20)
(-1.20672 -0.0537183 3.10506e-20)
(-1.15176 -0.0539537 3.4657e-20)
(-1.09615 -0.0541379 0)
(-1.03991 -0.0542724 0)
(-0.983098 -0.0543585 -4.09902e-20)
(-0.92575 -0.0543979 0)
(-0.86791 -0.0543922 0)
(-0.809618 -0.0543433 9.76106e-20)
(-0.750915 -0.0542531 0)
(-0.69184 -0.0541238 5.29825e-20)
(-0.632431 -0.0539573 -5.63956e-20)
(-0.572725 -0.0537561 0)
(-0.512758 -0.0535224 5.98698e-20)
(-0.452562 -0.0532585 0)
(-0.392169 -0.0529666 0)
(-0.33161 -0.0526492 -6.75328e-20)
(-0.270912 -0.0523078 1.38274e-19)
(-0.210103 -0.0519442 -7.17496e-20)
(-0.149207 -0.0515582 0)
(-0.08825 -0.0511488 0)
(-0.0272554 -0.050714 7.67651e-20)
(0.0337526 -0.0502492 0)
(0.0947481 -0.0497546 7.93989e-20)
(0.155717 -0.0492416 0)
(0.216638 -0.0486949 0)
(0.277515 -0.0481183 0)
(0.338359 -0.0475451 8.43395e-20)
(0.399162 -0.0469897 0)
(0.459919 -0.0464459 -8.60678e-20)
(0.520617 -0.0459006 0)
(0.581229 -0.0453341 0)
(0.641698 -0.0447161 1.75755e-19)
(0.70191 -0.0439943 -1.77058e-19)
(0.761674 -0.0430677 0)
(0.82055 -0.0417404 0)
(0.878083 -0.0395067 0)
(0.931712 -0.0354029 5.46222e-19)
(0.983994 -0.0261252 0)
(1.0143 -0.00369544 -3.71572e-19)
(-0.000222218 -0.0335832 -5.12886e-23)
(-0.00500289 -0.0165338 1.27951e-19)
(-0.0128144 0.00227302 0)
(-0.0218335 0.0190205 -1.08451e-19)
(-0.0321195 0.0337771 0)
(-0.0435269 0.0464774 0)
(-0.0560797 0.0571043 1.10369e-23)
(-0.0698551 0.0657878 4.64567e-20)
(-0.0848869 0.0727947 4.5248e-20)
(-0.101144 0.0784567 4.41504e-20)
(-0.118552 0.0830994 0)
(-0.13702 0.0869994 0)
(-0.156463 0.09037 -4.11641e-20)
(-0.176806 0.093365 -8.05445e-20)
(-0.197992 0.0960901 7.88558e-20)
(-0.219982 0.0986167 0)
(-0.242749 0.100993 7.57548e-20)
(-0.26628 0.103253 -3.71829e-20)
(-0.290569 0.105422 0)
(-0.315622 0.107521 7.1755e-20)
(-0.341448 0.10957 3.53073e-20)
(-0.368063 0.111589 -6.94915e-20)
(-0.395488 0.113597 -3.42523e-20)
(-0.423748 0.115622 0)
(-0.452866 0.117694 6.66554e-20)
(-0.482863 0.119851 6.5851e-20)
(-0.513742 0.12212 0)
(-0.545496 0.124512 6.44343e-20)
(-0.578115 0.127034 0)
(-0.611516 0.129701 6.3241e-20)
(-0.64549 0.132452 3.1368e-20)
(-0.679925 0.135015 0)
(-0.714962 0.137139 0)
(-0.750634 0.138992 0)
(-0.786636 0.140922 0)
(-0.822452 0.142846 0)
(-0.857945 0.144359 0)
(-0.893392 0.145231 5.84586e-20)
(-0.92865 0.145944 -8.66483e-20)
(-0.963267 0.14651 0)
(-0.996884 0.146328 0)
(-1.03013 0.144779 0)
(-1.06403 0.14229 4.20298e-23)
(-1.09857 0.140503 5.44377e-20)
(-1.13284 0.139392 1.07457e-19)
(-1.16656 0.138379 -1.06141e-19)
(-1.19991 0.137345 -5.239e-20)
(-1.23297 0.136238 5.18469e-20)
(-1.2658 0.135042 -8.35372e-23)
(-1.29844 0.133759 5.05646e-20)
(-1.33092 0.132397 0)
(-1.36323 0.130964 4.94255e-20)
(-1.39538 0.129465 -9.00754e-23)
(-1.42736 0.127905 0)
(-1.45917 0.126286 0)
(-1.49079 0.12461 -4.73072e-20)
(-1.52221 0.122877 0)
(-1.55341 0.121086 0)
(-1.58437 0.119236 4.57359e-20)
(-1.61508 0.117326 9.07166e-20)
(-1.64551 0.115354 -4.49887e-20)
(-1.67563 0.113319 0)
(-1.70543 0.111221 4.40739e-20)
(-1.73489 0.109057 0)
(-1.76397 0.106827 4.29859e-20)
(-1.79264 0.104531 4.2736e-20)
(-1.82089 0.102168 -8.44035e-20)
(-1.84868 0.09974 -4.16717e-20)
(-1.87599 0.0972462 0)
(-1.90278 0.0946879 8.17905e-20)
(-1.92903 0.0920664 0)
(-1.9547 0.0893832 1.20163e-19)
(-1.97977 0.0866401 7.91777e-20)
(-2.00421 0.0838393 7.83006e-20)
(-2.02798 0.080983 -7.74182e-20)
(-2.05106 0.0780738 1.14871e-19)
(-2.07342 0.0751144 0)
(-2.09502 0.0721075 0)
(-2.11584 0.0690561 -7.38112e-20)
(-2.13585 0.0659631 -1.09391e-19)
(-2.15502 0.0628316 0)
(-2.17331 0.0596645 3.55532e-20)
(-2.19071 0.0564646 0)
(-2.20718 0.0532348 -1.03612e-19)
(-2.2227 0.0499777 -9.02655e-23)
(-2.23724 0.0466957 8.16295e-23)
(-2.25078 0.043391 6.59901e-20)
(-2.26329 0.0400657 0)
(-2.27474 0.0367215 -6.38615e-20)
(-2.28512 0.0333599 -4.44648e-23)
(-2.2944 0.0299827 0)
(-2.30257 0.0265915 0)
(-2.30961 0.0231887 0)
(-2.31551 0.0197781 5.81705e-20)
(-2.32025 0.0163655 0)
(-2.32384 0.0129608 0)
(-2.32627 0.00957879 0)
(-2.32755 0.00623813 0)
(-2.32765 0.00295232 0)
(-2.32654 -0.000276424 5.05112e-20)
(-2.32414 -0.00348085 0)
(-2.3204 -0.00667328 4.76481e-20)
(-2.31531 -0.00984806 4.62102e-20)
(-2.30883 -0.0130019 -4.47466e-20)
(-2.30095 -0.0161316 0)
(-2.29166 -0.0192333 -4.17426e-20)
(-2.28094 -0.0223032 0)
(-2.26878 -0.0253374 -3.86375e-20)
(-2.25518 -0.0283319 3.70476e-20)
(-2.24013 -0.0312828 1.06661e-19)
(-2.22363 -0.0341865 0)
(-2.20566 -0.0370392 9.68091e-20)
(-2.18624 -0.0398377 3.08793e-20)
(-2.16537 -0.0425784 0)
(-2.14304 -0.0452583 5.45058e-20)
(-2.11926 -0.0478742 5.10307e-20)
(-2.09404 -0.0504233 -7.10153e-20)
(-2.06739 -0.0529026 0)
(-2.03932 -0.0553095 -1.99075e-20)
(-2.00984 -0.0576413 -1.80852e-20)
(-1.97897 -0.0598956 -4.93367e-20)
(-1.94671 -0.0620701 0)
(-1.91311 -0.0641628 0)
(-1.87816 -0.0661719 0)
(-1.84189 -0.0680956 -9.42143e-21)
(-1.80434 -0.0699325 0)
(-1.76551 -0.0716813 0)
(-1.72545 -0.0733406 3.02251e-21)
(-1.68417 -0.0749094 1.09687e-21)
(-1.64171 -0.0763866 0)
(-1.5981 -0.0777717 0)
(-1.55337 -0.079064 -9.41273e-21)
(-1.50756 -0.0802636 0)
(-1.4607 -0.0813704 1.71674e-20)
(-1.41283 -0.0823847 2.02476e-20)
(-1.36399 -0.0833067 0)
(-1.31421 -0.0841369 0)
(-1.26354 -0.0848759 -3.18027e-20)
(-1.21201 -0.085525 -8.22696e-22)
(-1.15967 -0.0860854 -8.27813e-22)
(-1.10656 -0.0865586 0)
(-1.05272 -0.0869462 -9.48681e-20)
(-0.998191 -0.0872499 0)
(-0.943015 -0.0874717 0)
(-0.887235 -0.0876142 0)
(-0.830893 -0.0876798 6.26994e-20)
(-0.774029 -0.0876711 0)
(-0.716685 -0.0875909 -1.3818e-19)
(-0.658902 -0.0874424 -7.34905e-20)
(-0.600718 -0.0872289 0)
(-0.542171 -0.0869536 -8.04879e-20)
(-0.483299 -0.0866202 0)
(-0.424136 -0.0862323 0)
(-0.364718 -0.0857938 -2.70308e-19)
(-0.305077 -0.0853083 1.86251e-19)
(-0.245243 -0.0847796 0)
(-0.185245 -0.0842114 1.9913e-19)
(-0.125111 -0.0836065 -1.03503e-19)
(-0.0648653 -0.0829677 0)
(-0.0045317 -0.0822972 0)
(0.0558671 -0.0815959 0)
(0.116311 -0.0808632 -3.39995e-19)
(0.176781 -0.0800979 0)
(0.237262 -0.0793023 -1.1767e-19)
(0.297746 -0.0784866 0)
(0.358245 -0.0776629 0)
(0.418774 -0.0768411 0)
(0.479319 -0.0760285 0)
(0.539866 -0.0752293 0)
(0.600398 -0.0744357 0)
(0.660896 -0.0736304 -2.57158e-19)
(0.721325 -0.0727846 0)
(0.781628 -0.0718516 -1.31917e-19)
(0.841696 -0.0707503 3.98273e-19)
(0.90135 -0.0693311 0)
(0.960224 -0.0673092 0)
(1.01797 -0.0640629 -2.72182e-19)
(1.07288 -0.0584062 -2.75701e-19)
(1.12762 -0.0473567 2.77702e-19)
(1.17016 -0.0245554 2.82531e-19)
(-0.00427069 -0.0214849 -2.04652e-19)
(-0.0141102 0.00296031 -1.86821e-19)
(-0.0255066 0.0243593 -1.11115e-19)
(-0.0376872 0.0427271 -5.08468e-20)
(-0.0506278 0.0589115 0)
(-0.0641554 0.0731221 9.10944e-20)
(-0.0783342 0.085436 -4.38757e-20)
(-0.0932924 0.0959573 0)
(-0.109131 0.104863 -4.13929e-20)
(-0.125903 0.112389 0)
(-0.143619 0.11879 7.88237e-20)
(-0.162257 0.124312 0)
(-0.181784 0.129163 3.76954e-20)
(-0.20216 0.133513 7.38147e-20)
(-0.223347 0.137488 -7.23244e-20)
(-0.245317 0.141186 0)
(-0.268047 0.144675 -6.95849e-20)
(-0.291522 0.148009 0)
(-0.315731 0.151228 0)
(-0.34067 0.154362 -6.60255e-20)
(-0.366335 0.157439 0)
(-0.392721 0.160479 2.94362e-24)
(-0.419824 0.163502 0)
(-0.447632 0.166524 0)
(-0.476124 0.169558 -3.29325e-24)
(-0.505267 0.17261 -6.05215e-20)
(-0.535008 0.175672 -5.97605e-20)
(-0.565278 0.178715 -5.90378e-20)
(-0.595994 0.181697 0)
(-0.627049 0.184569 -1.15298e-19)
(-0.658305 0.187247 0)
(-0.689659 0.189581 -5.62989e-20)
(-0.721089 0.191452 0)
(-0.752577 0.192909 0)
(-0.784016 0.194075 5.42193e-20)
(-0.81525 0.194954 0)
(-0.846205 0.195414 -5.28092e-20)
(-0.876922 0.195422 -1.74931e-23)
(-0.907412 0.195134 1.02818e-19)
(-0.937584 0.194577 -1.01406e-19)
(-0.967438 0.193612 0)
(-0.997169 0.192056 0)
(-1.02702 0.190037 -4.86595e-20)
(-1.05703 0.188064 0)
(-1.087 0.186253 -4.7399e-20)
(-1.11684 0.184503 4.67822e-20)
(-1.14655 0.182765 4.61822e-20)
(-1.17614 0.181003 0)
(-1.20562 0.179198 -4.50302e-20)
(-1.235 0.177339 -4.44771e-20)
(-1.26429 0.175422 8.78035e-20)
(-1.29348 0.173443 -4.34131e-20)
(-1.32258 0.1714 -4.29009e-20)
(-1.35158 0.169292 0)
(-1.38046 0.167118 0)