/*--------------------------------*- C++ -*----------------------------------*\
  =========                 |
  \\      /  F ield         | OpenFOAM: The Open Source CFD Toolbox
   \\    /   O peration     | Website:  https://openfoam.org
    \\  /    A nd           | Version:  9
     \\/     M anipulation  |
\*---------------------------------------------------------------------------*/
FoamFile
{
    format      ascii;
    class       volScalarField;
    location    "0.016";
    object      k;
}
// * * * * * * * * * * * * * * * * * * * * * * * * * * * * * * * * * * * * * //

dimensions      [0 2 -2 0 0 0 0];

internalField   nonuniform List<scalar> 
12225
(
2.2117e-05
2.10941e-05
3.20279e-05
4.86817e-05
6.19016e-05
9.14928e-05
0.00012296
0.000135637
0.000135838
0.000124337
8.37928e-05
5.42311e-05
4.14382e-05
3.71537e-05
3.60798e-05
3.57324e-05
3.44535e-05
3.78405e-05
2.00038e-05
2.0205e-05
2.18007e-05
2.46732e-05
2.76885e-05
3.44631e-05
4.52828e-05
5.28543e-05
5.60548e-05
5.62283e-05
5.43375e-05
4.64097e-05
3.7642e-05
3.2845e-05
3.08464e-05
3.04341e-05
3.05478e-05
3.11588e-05
2.00013e-05
1.31183e-05
1.0558e-05
1.12436e-05
1.43853e-05
1.774e-05
1.96212e-05
2.04102e-05
2.05928e-05
2.05646e-05
2.02354e-05
1.94637e-05
1.87395e-05
1.82665e-05
1.81068e-05
1.81131e-05
1.8305e-05
1.9048e-05
2.12349e-05
1.99135e-05
1.93198e-05
1.93514e-05
1.94389e-05
1.93911e-05
1.84696e-05
1.30077e-05
1.04522e-05
1.12797e-05
1.3788e-05
1.65665e-05
1.84978e-05
1.94282e-05
1.96754e-05
1.96426e-05
1.92277e-05
1.82384e-05
2.01734e-05
2.01809e-05
2.05086e-05
2.14511e-05
2.41812e-05
2.72202e-05
2.75577e-05
2.66771e-05
2.49172e-05
2.4801e-05
2.62397e-05
3.39718e-05
5.84375e-05
7.56004e-05
7.99213e-05
7.91588e-05
7.32361e-05
5.58222e-05
2.00243e-05
2.00652e-05
2.03603e-05
2.14598e-05
2.43945e-05
2.6975e-05
2.69677e-05
2.48483e-05
2.36868e-05
2.36373e-05
2.43847e-05
2.8377e-05
4.35223e-05
5.6389e-05
5.98935e-05
5.9536e-05
5.61143e-05
4.56154e-05
2.00331e-05
2.00974e-05
2.052e-05
2.14928e-05
2.22662e-05
2.26383e-05
2.30753e-05
2.30294e-05
2.30628e-05
2.31763e-05
2.43999e-05
3.11625e-05
4.69164e-05
5.38113e-05
5.41182e-05
5.13554e-05
4.17775e-05
3.37536e-05
2.01118e-05
2.13062e-05
2.5616e-05
2.57944e-05
2.3041e-05
2.149e-05
2.12333e-05
2.14534e-05
2.34663e-05
2.86448e-05
3.37846e-05
3.87168e-05
4.11128e-05
4.11292e-05
3.92027e-05
3.38822e-05
2.99001e-05
2.71322e-05
2.10588e-05
2.81808e-05
3.1092e-05
2.75955e-05
2.26745e-05
2.1262e-05
2.1199e-05
2.19847e-05
2.64216e-05
3.29873e-05
3.55944e-05
3.59129e-05
3.48518e-05
3.06522e-05
2.77805e-05
2.69651e-05
2.71402e-05
2.89679e-05
2.1257e-05
2.42879e-05
2.65729e-05
2.68795e-05
2.45179e-05
2.29407e-05
2.25935e-05
2.26687e-05
2.34499e-05
2.62632e-05
2.82749e-05
2.87818e-05
2.8687e-05
2.75721e-05
2.62777e-05
2.58755e-05
2.58672e-05
2.62206e-05
2.73784e-05
3.03099e-05
2.74256e-05
2.63582e-05
2.61873e-05
2.55487e-05
2.36985e-05
2.29573e-05
2.29608e-05
2.35716e-05
2.4452e-05
2.47281e-05
2.47237e-05
2.44489e-05
2.38959e-05
2.36045e-05
2.35154e-05
2.35452e-05
2.36407e-05
2.70982e-05
2.77249e-05
2.51188e-05
2.26478e-05
2.17878e-05
2.14588e-05
2.1425e-05
2.15255e-05
2.21935e-05
2.34012e-05
2.4106e-05
2.44201e-05
2.45572e-05
2.44876e-05
2.42104e-05
2.38143e-05
2.36457e-05
2.2449e-05
2.40071e-05
2.38065e-05
2.27046e-05
2.17201e-05
2.1162e-05
2.1057e-05
2.1142e-05
2.14726e-05
2.23741e-05
2.53016e-05
2.81562e-05
2.87106e-05
2.77253e-05
2.62344e-05
2.51606e-05
2.45225e-05
2.36567e-05
2.14254e-05
2.24873e-05
2.27222e-05
2.25387e-05
2.19058e-05
2.18935e-05
2.29658e-05
2.61508e-05
2.68562e-05
2.66423e-05
2.69567e-05
2.83375e-05
2.83852e-05
2.66047e-05
2.46685e-05
2.41055e-05
2.40863e-05
2.44039e-05
2.13938e-05
2.12049e-05
2.14354e-05
2.19231e-05
2.20935e-05
2.21886e-05
2.24273e-05
2.35424e-05
2.88845e-05
3.36622e-05
3.39732e-05
3.22987e-05
2.86297e-05
2.71261e-05
2.6957e-05
2.75496e-05
3.14689e-05
3.47902e-05
2.14726e-05
2.34553e-05
2.34333e-05
2.27087e-05
2.22453e-05
2.21004e-05
2.20992e-05
2.22791e-05
2.35317e-05
2.78892e-05
2.98178e-05
2.92763e-05
2.89239e-05
3.01668e-05
3.79085e-05
6.26471e-05
8.06809e-05
8.69304e-05
2.02636e-05
2.0625e-05
2.07181e-05
2.08805e-05
2.13008e-05
2.1659e-05
2.20183e-05
2.26269e-05
2.41314e-05
2.4765e-05
2.45416e-05
2.34711e-05
2.30294e-05
2.30755e-05
2.38237e-05
2.73055e-05
3.03292e-05
3.17305e-05
2.0253e-05
2.10261e-05
2.1395e-05
2.1639e-05
2.22241e-05
2.3425e-05
2.43466e-05
2.45727e-05
2.42713e-05
2.29098e-05
2.16555e-05
2.10471e-05
2.08009e-05
2.07347e-05
2.07363e-05
2.07918e-05
2.08557e-05
2.09602e-05
2.09412e-05
2.08242e-05
2.06186e-05
2.0672e-05
2.17181e-05
2.39729e-05
2.40494e-05
2.30826e-05
2.27706e-05
2.3186e-05
2.58384e-05
2.77475e-05
2.78612e-05
2.70983e-05
2.47867e-05
2.30556e-05
2.2048e-05
2.1361e-05
2.08813e-05
2.0866e-05
2.08671e-05
2.09894e-05
2.11095e-05
2.12304e-05
2.14627e-05
2.18031e-05
2.20555e-05
2.22922e-05
2.25706e-05
2.27428e-05
2.28711e-05
2.33216e-05
2.56283e-05
3.06697e-05
3.33608e-05
3.38701e-05
2.0167e-05
2.12451e-05
2.34133e-05
2.43699e-05
2.41881e-05
2.276e-05
2.16587e-05
2.13364e-05
2.12068e-05
2.11136e-05
2.10713e-05
2.1069e-05
2.11043e-05
2.13096e-05
2.22532e-05
2.52558e-05
2.73479e-05
2.79534e-05
2.3141e-05
2.35279e-05
2.17774e-05
2.07107e-05
2.05408e-05
2.06364e-05
2.10436e-05
2.12671e-05
2.13029e-05
2.12669e-05
2.10971e-05
2.09747e-05
2.0943e-05
2.09491e-05
2.10174e-05
2.13672e-05
2.18678e-05
2.20433e-05
2.13964e-05
2.22695e-05
2.20656e-05
2.12194e-05
2.10488e-05
2.15047e-05
2.40585e-05
2.58682e-05
2.5938e-05
2.44939e-05
2.27397e-05
2.20572e-05
2.18369e-05
2.17502e-05
2.17037e-05
2.16868e-05
2.16873e-05
2.17022e-05
2.04997e-05
2.1088e-05
2.10703e-05
2.10316e-05
2.11303e-05
2.19459e-05
2.63625e-05
3.25468e-05
3.37181e-05
3.14972e-05
2.62731e-05
2.35261e-05
2.24013e-05
2.21034e-05
2.20451e-05
2.20536e-05
2.22645e-05
2.30706e-05
2.00392e-05
2.13438e-05
2.30655e-05
2.32771e-05
2.33468e-05
2.4302e-05
2.92958e-05
3.1266e-05
2.98762e-05
2.56955e-05
2.33667e-05
2.26697e-05
2.26825e-05
2.34155e-05
2.49378e-05
2.55754e-05
2.56209e-05
2.5303e-05
2.01176e-05
2.16393e-05
2.40467e-05
2.43027e-05
2.33018e-05
2.1893e-05
2.147e-05
2.12641e-05
2.11739e-05
2.11807e-05
2.13904e-05
2.25798e-05
2.79087e-05
4.91288e-05
7.02084e-05
7.78372e-05
7.53366e-05
5.80496e-05
2.11822e-05
2.05859e-05
2.08079e-05
2.16816e-05
2.18863e-05
2.16488e-05
2.06444e-05
1.94923e-05
1.90994e-05
1.9071e-05
1.91032e-05
1.92297e-05
1.96669e-05
2.0418e-05
2.09294e-05
2.12081e-05
2.12712e-05
2.12554e-05
2.00039e-05
1.69453e-05
1.3979e-05
1.40116e-05
1.42155e-05
1.40726e-05
1.38498e-05
1.35516e-05
1.29332e-05
1.21336e-05
1.14581e-05
1.10688e-05
1.09381e-05
1.09338e-05
1.10069e-05
1.13299e-05
1.25355e-05
1.41816e-05
2.001e-05
2.04679e-05
2.21614e-05
2.3159e-05
2.31047e-05
2.22509e-05
2.19235e-05
2.21773e-05
2.32114e-05
2.36859e-05
2.37159e-05
2.35205e-05
2.3244e-05
2.32054e-05
2.32852e-05
2.37017e-05
2.4928e-05
2.84547e-05
2.00987e-05
3.17294e-05
6.36609e-05
7.10058e-05
6.49679e-05
4.29721e-05
3.3262e-05
3.23224e-05
3.44283e-05
3.64945e-05
3.65922e-05
3.56035e-05
3.48883e-05
3.50566e-05
3.69162e-05
4.55937e-05
5.78808e-05
6.49332e-05
1.95075e-05
4.4646e-05
0.000100176
0.000165131
0.000273407
0.000430205
0.000610999
0.000802407
0.00101565
0.00123786
0.00146728
0.00174788
0.00217992
0.0026083
0.00296908
0.00379122
0.00585263
0.00868473
0.0106482
0.0129538
0.0190334
0.0377146
0.0553583
0.0548941
0.0327203
0.0160237
0.0107528
0.00957517
0.0099968
0.0101963
0.0103876
0.0104919
0.0099495
0.00916766
0.00807349
0.00686155
0.00558765
0.00428693
0.00325798
0.00238459
0.00159213
0.00105283
0.000748141
0.000504903
0.00040619
0.000372211
0.000395628
0.000409161
0.000416419
0.000420858
0.00042171
0.000417744
0.000402117
0.0003811
0.000360427
0.000340493
0.000319924
0.00030041
0.00028013
0.00026259
0.000247217
0.000232043
0.0002171
0.000202403
0.000190443
0.000179761
0.000168883
0.000154716
0.000145781
0.000133739
0.000121543
0.000109414
9.68643e-05
8.4458e-05
7.25855e-05
6.04115e-05
5.07297e-05
4.35112e-05
3.77974e-05
3.29967e-05
2.88001e-05
2.50973e-05
2.18291e-05
1.89503e-05
1.64171e-05
1.41869e-05
1.2218e-05
1.04757e-05
8.93271e-06
7.56215e-06
6.37982e-06
5.33609e-06
4.40615e-06
3.59114e-06
2.89541e-06
2.31452e-06
1.83212e-06
1.43534e-06
1.11301e-06
8.54325e-07
6.49156e-07
4.88258e-07
3.63457e-07
2.67695e-07
1.95014e-07
1.40454e-07
9.99722e-08
7.02905e-08
4.88052e-08
3.34669e-08
2.26315e-08
1.51639e-08
1.00742e-08
6.63728e-09
4.33727e-09
2.81145e-09
1.80774e-09
1.15295e-09
7.29354e-10
4.57625e-10
2.84791e-10
1.758e-10
1.07657e-10
6.54155e-11
3.94495e-11
2.36183e-11
1.40421e-11
8.29322e-12
4.86687e-12
2.83876e-12
1.64615e-12
9.49232e-13
5.44405e-13
3.10589e-13
1.76283e-13
9.95506e-14
5.59453e-14
3.13006e-14
1.745e-14
9.71076e-15
5.41191e-15
3.0384e-15
1.7359e-15
1.02562e-15
6.40951e-16
4.34383e-16
3.24841e-16
2.68015e-16
2.39812e-16
2.27143e-16
2.2274e-16
2.22045e-16
2.22045e-16
2.22045e-16
2.22045e-16
2.22045e-16
2.22045e-16
2.22045e-16
2.22045e-16
2.22045e-16
2.22045e-16
2.22045e-16
2.22045e-16
2.22045e-16
2.22045e-16
2.22045e-16
2.22045e-16
2.22045e-16
2.22045e-16
2.22045e-16
2.22045e-16
2.22045e-16
2.22045e-16
2.22045e-16
2.22045e-16
2.22045e-16
4.88076e-16
2.72275e-13
2.73562e-10
2.71104e-07
6.22295e-05
0.000220131
0.000521374
0.000911689
0.00142138
0.00205628
0.00275031
0.00348701
0.00431661
0.00524343
0.00628211
0.0075363
0.00939687
0.012856
0.0180338
0.024055
0.0299196
0.0345109
0.0365963
0.0366855
0.0354187
0.0348872
0.0282192
0.0209778
0.0133508
0.00959618
0.00777559
0.00674604
0.00602705
0.00525934
0.00453468
0.00384308
0.00313778
0.00257279
0.00207139
0.00173658
0.00145723
0.00129295
0.00120903
0.00117149
0.00116241
0.00120077
0.00127217
0.00134496
0.00141738
0.00148345
0.0015445
0.00159274
0.00161941
0.00163039
0.00163267
0.00161675
0.00156062
0.00148078
0.00139082
0.00129514
0.00120185
0.00110137
0.000992747
0.000909512
0.000840307
0.000775014
0.000723986
0.000679399
0.00063409
0.000591799
0.000555381
0.000524195
0.000496466
0.000466558
0.000436284
0.000405234
0.000373591
0.00034103
0.000309624
0.000263026
0.000206775
0.00016985
0.000143839
0.000125467
0.000110011
9.63894e-05
8.42908e-05
7.36295e-05
6.4381e-05
5.64555e-05
4.96508e-05
4.37439e-05
3.85804e-05
3.40383e-05
2.99579e-05
2.62657e-05
2.28947e-05
1.97702e-05
1.68754e-05
1.42308e-05
1.18675e-05
9.79831e-06
8.01689e-06
6.50346e-06
5.2326e-06
4.17678e-06
3.30835e-06
2.6009e-06
2.02988e-06
1.57291e-06
1.20997e-06
9.23454e-07
6.98315e-07
5.22666e-07
3.8698e-07
2.83218e-07
2.04815e-07
1.46319e-07
1.03241e-07
7.1937e-08
4.94934e-08
3.36196e-08
2.25565e-08
1.49497e-08
9.7893e-09
6.33508e-09
4.05312e-09
2.56481e-09
1.60611e-09
9.95823e-10
6.1168e-10
3.72423e-10
2.24872e-10
1.34714e-10
8.01015e-11
4.72892e-11
2.77268e-11
1.61492e-11
9.34499e-12
5.37305e-12
3.06966e-12
1.74259e-12
9.82988e-13
5.51059e-13
3.07079e-13
1.70179e-13
9.38638e-14
5.15873e-14
2.83013e-14
1.55383e-14
8.56965e-15
4.77407e-15
2.70857e-15
1.58365e-15
9.69672e-16
6.33899e-16
4.49891e-16
3.48774e-16
2.93018e-16
2.62147e-16
2.44964e-16
2.35333e-16
2.29883e-16
2.2676e-16
2.24941e-16
2.23863e-16
2.23211e-16
2.22807e-16
2.22551e-16
2.22385e-16
2.22273e-16
2.22196e-16
2.22144e-16
2.22108e-16
2.22084e-16
2.22068e-16
2.22058e-16
2.22052e-16
2.22051e-16
2.22069e-16
2.40933e-16
2.06553e-14
2.24008e-11
2.06885e-08
0.000103026
0.000397518
0.000819865
0.00136488
0.00212321
0.00304546
0.00404882
0.00519275
0.00655115
0.00805314
0.00965846
0.0113658
0.0132599
0.0155051
0.0180798
0.0206451
0.0221459
0.022673
0.0215656
0.0191428
0.0152288
0.0113704
0.00857114
0.00633631
0.00503177
0.00407423
0.00333379
0.00282226
0.00234889
0.00209193
0.00179899
0.00165577
0.00154335
0.00149165
0.00146861
0.00146356
0.00147924
0.00152884
0.00165016
0.00180046
0.00196509
0.00211968
0.00227603
0.00240194
0.00253678
0.00264716
0.00274736
0.0028294
0.00288932
0.00292371
0.00293876
0.00294304
0.0029349
0.00288262
0.00278591
0.0026433
0.0024396
0.00220714
0.00197105
0.0017484
0.00157017
0.00141478
0.00129759
0.00120554
0.00107932
0.000997734
0.000896415
0.000847724
0.000794533
0.000729464
0.000698211
0.000643804
0.000586711
0.000529942
0.000474148
0.000418276
0.00036311
0.000309516
0.000261166
0.000225971
0.000198009
0.000173702
0.000151458
0.000130322
0.000110232
9.23011e-05
7.78261e-05
6.59918e-05
5.61821e-05
4.80377e-05
4.12557e-05
3.55897e-05
3.08387e-05
2.68541e-05
2.34732e-05
2.05146e-05
1.78965e-05
1.5553e-05
1.34393e-05
1.15355e-05
9.82861e-06
8.30793e-06
6.96297e-06
5.78317e-06
4.7583e-06
3.8786e-06
3.13171e-06
2.50434e-06
1.98338e-06
1.55533e-06
1.20718e-06
9.26991e-07
7.03968e-07
5.2849e-07
3.92083e-07
2.87365e-07
2.08005e-07
1.48657e-07
1.04872e-07
7.30292e-08
5.021e-08
3.40975e-08
2.28872e-08
1.51964e-08
9.99006e-09
6.50802e-09
4.20422e-09
2.69462e-09
1.71402e-09
1.08216e-09
6.78119e-10
4.21694e-10
2.60182e-10
1.59237e-10
9.66489e-11
5.81621e-11
3.4698e-11
2.0519e-11
1.20285e-11
6.99118e-12
4.03028e-12
2.30576e-12
1.31017e-12
7.40115e-13
4.16119e-13
2.33134e-13
1.30316e-13
7.27648e-14
4.06369e-14
2.2731e-14
1.27603e-14
7.21078e-15
4.12263e-15
2.40413e-15
1.44743e-15
9.14247e-16
6.16428e-16
4.49416e-16
3.55139e-16
3.01385e-16
2.7032e-16
2.52063e-16
2.41133e-16
2.34448e-16
2.30255e-16
2.27562e-16
2.25764e-16
2.24554e-16
2.23726e-16
2.23144e-16
2.22784e-16
2.22521e-16
2.22391e-16
2.22398e-16
2.22681e-16
2.24465e-16
2.87474e-16
1.33384e-15
9.33966e-13
7.74701e-10
0.000123142
0.000458359
0.00087949
0.0013258
0.00189663
0.0025461
0.00333951
0.00440294
0.00555283
0.00654815
0.00748643
0.00852739
0.00959984
0.0103931
0.0107377
0.0107799
0.0102675
0.00935337
0.00812926
0.00675547
0.00525146
0.00424422
0.00363892
0.00283814
0.00245274
0.00212137
0.00183847
0.00170865
0.00163028
0.0016007
0.00158968
0.00160692
0.00162612
0.00172411
0.00185503
0.00204631
0.00224472
0.00247715
0.00261742
0.00277018
0.00291307
0.00305989
0.00321078
0.00333908
0.00346218
0.00355324
0.00363749
0.00368437
0.00370542
0.00371192
0.0036932
0.00364287
0.00362319
0.00358287
0.00351507
0.00343939
0.0032743
0.00308036
0.00286674
0.00259293
0.00235699
0.00216037
0.00195134
0.00184579
0.00167552
0.0015848
0.00141102
0.00129159
0.00117454
0.00102254
0.000907684
0.000789645
0.000688947
0.000602538
0.000528065
0.000461963
0.000405604
0.000357923
0.000316171
0.000279148
0.000246194
0.000217785
0.000194137
0.00017451
0.000156905
0.000138148
0.000116935
9.57232e-05
7.6997e-05
6.21244e-05
5.04008e-05
4.14054e-05
3.45489e-05
2.92668e-05
2.51255e-05
2.18579e-05
1.9228e-05
1.70098e-05
1.4991e-05
1.31061e-05
1.13664e-05
9.77407e-06
8.33445e-06
7.04954e-06
5.91519e-06
4.92169e-06
4.06023e-06
3.32157e-06
2.69501e-06
2.16877e-06
1.73084e-06
1.36969e-06
1.07454e-06
8.35417e-07
6.43472e-07
4.90911e-07
3.70808e-07
2.77205e-07
2.05038e-07
1.5004e-07
1.08642e-07
7.78771e-08
5.53019e-08
3.89294e-08
2.71822e-08
1.88315e-08
1.29445e-08
8.8268e-09
5.96889e-09
4.00114e-09
2.65757e-09
1.74828e-09
1.13869e-09
7.3407e-10
4.6831e-10
2.95641e-10
1.84694e-10
1.142e-10
6.99053e-11
4.23784e-11
2.54545e-11
1.5157e-11
8.95323e-12
5.25102e-12
3.06052e-12
1.7741e-12
1.02348e-12
5.87927e-13
3.36424e-13
1.91839e-13
1.09066e-13
6.18727e-14
3.50736e-14
1.99122e-14
1.13604e-14
6.54487e-15
3.83312e-15
2.30375e-15
1.43814e-15
9.44596e-16
6.5995e-16
4.93259e-16
3.93915e-16
3.33663e-16
2.95832e-16
2.72236e-16
2.56019e-16
2.45198e-16
2.38367e-16
2.32823e-16
2.30845e-16
2.31356e-16
2.36585e-16
2.56049e-16
3.87541e-16
9.97267e-16
3.25994e-14
5.73949e-14
2.55161e-13
3.27154e-11
0.000121933
0.000428644
0.000760564
0.00112734
0.00157249
0.00204281
0.00256634
0.00313332
0.00364148
0.00407276
0.00452403
0.00506273
0.00556263
0.00577496
0.00582876
0.00559252
0.00500461
0.00443757
0.00379762
0.00324492
0.00269587
0.00233343
0.00213743
0.00186424
0.00171845
0.00163745
0.00160156
0.00159608
0.00162178
0.00167753
0.00179606
0.00199464
0.00228263
0.00254059
0.00281482
0.00302206
0.00326338
0.0034742
0.00374298
0.00403412
0.00435236
0.0047088
0.00508533
0.00545743
0.00574629
0.00589034
0.00594587
0.00590165
0.00569721
0.00560145
0.00529945
0.00487969
0.00470724
0.00445443
0.00421789
0.00410292
0.00386409
0.00362505
0.00343084
0.00314382
0.00286192
0.00260419
0.0023509
0.00218433
0.00200277
0.00188381
0.00172711
0.00159317
0.00145288
0.00129461
0.00112669
0.000960759
0.000806837
0.000673156
0.00056668
0.000482686
0.000417492
0.000366585
0.000326034
0.000290973
0.000259905
0.000231507
0.000205986
0.000184176
0.000167141
0.000154349
0.000143433
0.000131243
0.000115074
9.46729e-05
7.35632e-05
5.58092e-05
4.25606e-05
3.28518e-05
2.59302e-05
2.10162e-05
1.7453e-05
1.48259e-05
1.29351e-05
1.15445e-05
1.03828e-05
9.24443e-06
8.09102e-06
6.9787e-06
5.94097e-06
4.99946e-06
4.16379e-06
3.43492e-06
2.8085e-06
2.27692e-06
1.83088e-06
1.46043e-06
1.15564e-06
9.0712e-07
7.06213e-07
5.45194e-07
4.17273e-07
3.16548e-07
2.37958e-07
1.77211e-07
1.30707e-07
9.54607e-08
6.90178e-08
4.93895e-08
3.49717e-08
2.44965e-08
1.6971e-08
1.1625e-08
7.8721e-09
5.26799e-09
3.48213e-09
2.27436e-09
1.46739e-09
9.34811e-10
5.87803e-10
3.64696e-10
2.23205e-10
1.34729e-10
8.01983e-11
4.70825e-11
2.72714e-11
1.55969e-11
8.81762e-12
4.93371e-12
2.73719e-12
1.50957e-12
8.30105e-13
4.56717e-13
2.52386e-13
1.40663e-13
7.93797e-14
4.54924e-14
2.65181e-14
1.57518e-14
9.56242e-15
5.95789e-15
3.83016e-15
2.54886e-15
1.75777e-15
1.2581e-15
9.33027e-16
7.18133e-16
5.74107e-16
4.72417e-16
4.0566e-16
3.58405e-16
3.20226e-16
3.14063e-16
3.25647e-16
3.88891e-16
6.02259e-16
1.20134e-15
3.39883e-15
9.17275e-15
6.46219e-14
2.44591e-13
9.03556e-12
9.34908e-12
7.23948e-11
7.27872e-11
0.000103353
0.000358419
0.000626292
0.000908866
0.00124458
0.00158444
0.00194063
0.00229442
0.00257426
0.00278756
0.0030108
0.00326207
0.0034188
0.00347043
0.00346647
0.00327058
0.0029725
0.00275998
0.00250225
0.00229083
0.00205744
0.00186313
0.001741
0.0016581
0.00162737
0.00161951
0.00162813
0.00171343
0.00189768
0.00218564
0.00253689
0.00290984
0.00320301
0.00350422
0.00384177
0.00423941
0.00475216
0.00533757
0.00603464
0.00692645
0.00793522
0.00906907
0.0102258
0.0113199
0.0120727
0.0124279
0.0125349
0.0120831
0.0113128
0.0106161
0.00967423
0.00809755
0.00744867
0.0064967
0.00567158
0.00535363
0.00497991
0.00462567
0.00444604
0.00416341
0.00397257
0.00372766
0.00347552
0.00322142
0.00297294
0.00273041
0.00250324
0.00226913
0.00203485
0.00182353
0.00159576
0.00136183
0.00111912
0.000869543
0.000667552
0.00052557
0.000429517
0.000365452
0.000319517
0.000286125
0.000260162
0.00023538
0.000211334
0.000188895
0.000168981
0.000154202
0.000145097
0.000138309
0.000131951
0.000124564
0.000113481
9.59632e-05
7.39885e-05
5.36365e-05
3.83393e-05
2.73845e-05
1.98958e-05
1.4931e-05
1.16468e-05
9.42823e-06
7.92225e-06
6.96285e-06
6.32972e-06
5.77353e-06
5.1643e-06
4.51887e-06
3.87892e-06
3.2737e-06
2.72195e-06
2.2334e-06
1.81089e-06
1.45251e-06
1.15343e-06
9.07291e-07
7.07201e-07
5.46336e-07
4.18328e-07
3.1746e-07
2.38737e-07
1.77881e-07
1.31289e-07
9.59652e-08
6.94505e-08
4.97512e-08
3.52682e-08
2.47343e-08
1.71564e-08
1.17662e-08
7.97618e-09
5.34277e-09
3.53507e-09
2.30958e-09
1.48936e-09
9.47568e-10
5.9451e-10
3.67648e-10
2.23984e-10
1.34363e-10
7.93119e-11
4.60368e-11
2.62596e-11
1.47091e-11
8.08596e-12
4.36156e-12
2.30808e-12
1.19821e-12
6.10463e-13
3.05525e-13
1.5047e-13
7.31292e-14
3.52451e-14
1.70088e-14
8.37649e-15
4.31654e-15
2.39439e-15
1.45426e-15
9.63161e-16
6.99832e-16
5.36934e-16
4.38243e-16
3.84889e-16
3.26032e-16
3.0498e-16
3.2091e-16
4.09008e-16
7.17291e-16
1.67566e-15
4.50631e-15
1.26758e-14
3.5653e-14
1.0016e-13
2.75555e-13
7.56479e-13
1.96467e-12
5.29181e-12
1.12666e-11
4.25359e-11
4.50107e-11
6.86119e-11
7.27085e-11
8.1518e-05
0.000286407
0.000494913
0.000708301
0.000960713
0.00121052
0.00146064
0.00170636
0.00189746
0.00202716
0.00214744
0.00228525
0.0023941
0.00243415
0.00244054
0.002405
0.00234764
0.00230343
0.00222852
0.00212736
0.00197117
0.00179333
0.00169777
0.00165958
0.00164853
0.00166873
0.00176203
0.00196784
0.00226502
0.00265707
0.00309056
0.00354181
0.00400715
0.00456931
0.00526225
0.00614865
0.00728016
0.00872017
0.0107097
0.0129888
0.0157869
0.0188835
0.0219905
0.0248253
0.0268066
0.0277614
0.0280154
0.0264712
0.0246894
0.0218669
0.019767
0.0153194
0.0133729
0.0112204
0.00850544
0.00744455
0.0062923
0.00542808
0.00497509
0.00457307
0.00437109
0.00416574
0.00393426
0.00368417
0.00341133
0.00312717
0.00284283
0.00256825
0.0022994
0.00203867
0.00180459
0.00160645
0.00143231
0.00123287
0.000973311
0.00070868
0.000511062
0.000391154
0.000319024
0.000272417
0.000240236
0.000219996
0.000205602
0.000189131
0.000170035
0.000150723
0.000135676
0.00012904
0.000126729
0.000124477
0.0001212
0.000116225
0.000107919
9.28339e-05
7.13452e-05
5.02003e-05
3.42181e-05
2.2951e-05
1.54598e-05
1.06998e-05
7.75825e-06
5.9318e-06
4.7788e-06
4.07448e-06
3.67807e-06
3.39454e-06
3.08627e-06
2.73511e-06
2.36676e-06
2.00449e-06
1.6657e-06
1.36117e-06
1.09593e-06
8.70737e-07
6.8352e-07
5.30602e-07
4.07584e-07
3.09938e-07
2.33369e-07
1.74005e-07
1.28476e-07
9.39261e-08
6.79813e-08
4.87024e-08
3.45282e-08
2.42189e-08
1.68028e-08
1.15276e-08
7.81795e-09
5.23969e-09
3.46917e-09
2.26824e-09
1.46393e-09
9.32236e-10
5.85466e-10
3.62422e-10
2.21006e-10
1.32677e-10
7.83665e-11
4.55102e-11
2.59664e-11
1.45449e-11
7.99262e-12
4.30556e-12
2.27217e-12
1.17397e-12
5.93553e-13
2.93556e-13
1.42004e-13
6.72089e-14
3.11604e-14
1.41979e-14
6.40668e-15
2.911e-15
1.3783e-15
7.18246e-16
4.39449e-16
3.20654e-16
2.71787e-16
2.48938e-16
2.3736e-16
2.43883e-16
2.70412e-16
3.39289e-16
5.03748e-16
8.96754e-16
1.88387e-15
4.4303e-15
1.12936e-14
2.95636e-14
7.95747e-14
2.09637e-13
5.5744e-13
1.37873e-12
3.86806e-12
7.34919e-12
2.32959e-11
2.47079e-11
2.70898e-11
3.39899e-11
6.10527e-05
0.000220498
0.000378241
0.000539446
0.000732273
0.000926203
0.00111308
0.00129731
0.00144904
0.00155952
0.00165347
0.00176081
0.00185063
0.0019168
0.00197268
0.00202931
0.00212047
0.00218943
0.00219417
0.00213551
0.00198885
0.00181353
0.00174119
0.001726
0.00177122
0.00193435
0.00221868
0.00261573
0.00310663
0.00367798
0.00432486
0.00506785
0.00601595
0.00715865
0.00850644
0.0101679
0.0123668
0.0154989
0.0197822
0.0256965
0.0331689
0.0413958
0.0500723
0.0580085
0.0631507
0.065265
0.0653825
0.0587423
0.0529304
0.0435538
0.0386897
0.0305578
0.0247139
0.0212598
0.0154853
0.0128772
0.0101932
0.00825603
0.00682686
0.00563161
0.00488228
0.0045497
0.00426069
0.0039709
0.0036572
0.00332374
0.0029861
0.00266284
0.00235821
0.00205949
0.00177789
0.00155825
0.00143302
0.00130296
0.00113328
0.000928338
0.000712033
0.000520247
0.000382068
0.000293048
0.000239402
0.000206272
0.000184778
0.00017348
0.000165335
0.000151389
0.000133166
0.000117487
0.000109185
0.000107968
0.000108813
0.000110326
0.000110418
0.000108423
0.000101232
8.60141e-05
6.4669e-05
4.39593e-05
2.86891e-05
1.8251e-05
1.15497e-05
7.45611e-06
5.04311e-06
3.63975e-06
2.81254e-06
2.33586e-06
2.0913e-06
1.94472e-06
1.79069e-06
1.60282e-06
1.395e-06
1.18352e-06
9.81586e-07
7.98027e-07
6.3749e-07
5.0137e-07
3.88831e-07
2.97724e-07
2.25273e-07
1.68546e-07
1.24743e-07
9.13481e-08
6.61923e-08
4.74605e-08
3.36691e-08
2.36286e-08
1.64009e-08
1.12568e-08
7.63781e-09
5.12149e-09
3.39278e-09
2.21969e-09
1.43361e-09
9.13672e-10
5.74331e-10
3.55898e-10
2.17287e-10
1.30625e-10
7.72708e-11
4.4947e-11
2.569e-11
1.44172e-11
7.93818e-12
4.28505e-12
2.26607e-12
1.17322e-12
5.94307e-13
2.94422e-13
1.42608e-13
6.75429e-14
3.13079e-14
1.42382e-14
6.39185e-15
2.87339e-15
1.33466e-15
6.78218e-16
4.05143e-16
2.94163e-16
2.5009e-16
2.33284e-16
2.258e-16
2.29748e-16
2.50089e-16
3.05061e-16
4.36713e-16
7.45001e-16
1.50384e-15
3.4023e-15
8.38444e-15
2.12251e-14
5.53856e-14
1.40355e-13
3.56501e-13
8.30893e-13
2.37516e-12
3.89001e-12
8.72105e-12
9.63343e-12
1.0347e-11
1.28685e-11
4.32443e-05
0.000163719
0.000279611
0.000400575
0.000546471
0.000705716
0.00085611
0.00100253
0.00113301
0.00124018
0.00133766
0.0014415
0.00154312
0.00164537
0.00172951
0.0018303
0.00199579
0.00219543
0.00224158
0.00220877
0.00208318
0.00194058
0.00189715
0.00189091
0.00194162
0.00214481
0.00250817
0.00298678
0.00356149
0.00426124
0.00513333
0.00624157
0.00766718
0.00940613
0.0116313
0.0147587
0.0194591
0.0266219
0.0371601
0.0518718
0.0707194
0.0932308
0.117934
0.136307
0.144993
0.147703
0.14065
0.123807
0.103865
0.0814684
0.0631648
0.0511868
0.038638
0.0309234
0.0238672
0.0183048
0.0142408
0.0113876
0.0092169
0.00786785
0.0066523
0.00570128
0.00522091
0.00478731
0.00433506
0.0038598
0.00339034
0.0029168
0.0025032
0.00211033
0.00171783
0.00134753
0.00108444
0.00103068
0.00103072
0.00093413
0.000765495
0.000595403
0.000457555
0.000353935
0.000276275
0.000219736
0.000183511
0.000162388
0.00015073
0.000143295
0.00013117
0.0001147
9.99393e-05
9.12752e-05
8.93662e-05
9.02374e-05
9.46698e-05
9.90584e-05
0.000100345
9.93258e-05
9.36126e-05
7.68908e-05
5.40837e-05
3.51497e-05
2.18977e-05
1.3263e-05
7.96312e-06
4.86119e-06
3.10737e-06
2.13246e-06
1.58582e-06
1.28566e-06
1.14095e-06
1.06578e-06
9.90579e-07
8.94245e-07
7.8246e-07
6.64962e-07
5.50511e-07
4.45352e-07
3.53033e-07
2.74873e-07
2.10619e-07
1.59067e-07
1.18546e-07
8.72543e-08
6.3465e-08
4.56338e-08
3.24437e-08
2.28081e-08
1.58543e-08
1.08955e-08
7.40126e-09
4.96846e-09
3.29511e-09
2.15826e-09
1.39562e-09
8.90589e-10
5.60582e-10
3.47885e-10
2.1273e-10
1.28104e-10
7.59199e-11
4.42498e-11
2.53465e-11
1.42578e-11
7.87025e-12
4.25995e-12
2.25937e-12
1.1734e-12
5.96386e-13
2.96493e-13
1.44136e-13
6.85195e-14
3.18746e-14
1.45426e-14
6.54559e-15
2.94693e-15
1.36777e-15
6.92101e-16
4.10261e-16
2.95659e-16
2.50077e-16
2.32766e-16
2.25237e-16
2.25346e-16
2.37781e-16
2.7702e-16
3.73877e-16
5.97746e-16
1.13448e-15
2.4366e-15
5.75399e-15
1.40146e-14
3.51105e-14
8.50177e-14
2.03185e-13
4.59831e-13
9.09932e-13
2.00803e-12
2.16645e-12
2.52327e-12
2.80287e-12
3.77336e-12
2.86816e-05
0.000115995
0.000197049
0.000290148
0.000397324
0.000528123
0.000660494
0.000795054
0.000915971
0.00102052
0.0011103
0.00121373
0.00133952
0.00145382
0.00156781
0.0016908
0.00186886
0.00215985
0.00245115
0.0025399
0.00241875
0.0022356
0.00219831
0.00226509
0.00241333
0.00264311
0.00304834
0.0036338
0.00431402
0.00528918
0.0068729
0.00918918
0.0119435
0.0154064
0.0202988
0.0270919
0.0371883
0.0523982
0.0756155
0.112922
0.158228
0.204137
0.238291
0.258546
0.267528
0.269164
0.248353
0.223307
0.17845
0.135333
0.091179
0.0639826
0.0456589
0.0347386
0.0266356
0.020005
0.0152133
0.0120333
0.00969929
0.00832064
0.00733745
0.00641416
0.00593424
0.00575412
0.00559514
0.00528293
0.00474649
0.00399954
0.00318376
0.00249015
0.00187904
0.00136291
0.000954699
0.000675625
0.000570202
0.000614073
0.000645672
0.000578553
0.000461803
0.000367719
0.00029722
0.000244427
0.000202129
0.000169559
0.000149692
0.000137363
0.000125592
0.000112121
9.78347e-05
8.53908e-05
7.75502e-05
7.52435e-05
7.57561e-05
8.01863e-05
8.81858e-05
9.26791e-05
9.35887e-05
9.20675e-05
8.43574e-05
6.2938e-05
4.10393e-05
2.53362e-05
1.50132e-05
8.66996e-06
4.97522e-06
2.90915e-06
1.78525e-06
1.18121e-06
8.5393e-07
6.81387e-07
6.02561e-07
5.64978e-07
5.28676e-07
4.80223e-07
4.21656e-07
3.58455e-07
2.95934e-07
2.38053e-07
1.87158e-07
1.442e-07
1.09124e-07
8.12566e-08
5.96206e-08
4.31513e-08
3.08306e-08
2.17562e-08
1.51678e-08
1.04488e-08
7.11231e-09
4.78315e-09
3.17756e-09
2.08468e-09
1.35024e-09
8.63071e-10
5.44207e-10
3.38342e-10
2.07298e-10
1.25092e-10
7.43e-11
4.34093e-11
2.49291e-11
1.40618e-11
7.78511e-12
4.22728e-12
2.24967e-12
1.17259e-12
5.98245e-13
2.98613e-13
1.45781e-13
6.96081e-14
3.25305e-14
1.49121e-14
6.74251e-15
3.04688e-15
1.41632e-15
7.14728e-16
4.20331e-16
2.99902e-16
2.51835e-16
2.33202e-16
2.26149e-16
2.23275e-16
2.28287e-16
2.51041e-16
3.12534e-16
4.56e-16
7.92721e-16
1.58287e-15
3.51599e-15
8.1232e-15
1.92313e-14
4.37298e-14
1.10265e-13
1.96905e-13
4.39227e-13
5.0455e-13
5.49566e-13
6.50041e-13
7.28154e-13
1.00934e-12
1.74391e-05
7.78918e-05
0.000132605
0.000205411
0.000278995
0.000382294
0.000495479
0.000615092
0.00073279
0.00084302
0.000936557
0.00103393
0.00115073
0.00129221
0.00142707
0.00155948
0.00173075
0.00200155
0.00242476
0.00281023
0.00301831
0.00295972
0.00276917
0.00265346
0.00272217
0.00301656
0.00355676
0.00436357
0.00557818
0.00721542
0.00917151
0.0116379
0.0150894
0.0195338
0.0252178
0.0340999
0.0494628
0.076098
0.12511
0.188968
0.249563
0.300245
0.334083
0.352183
0.359598
0.360213
0.339329
0.311097
0.267374
0.209915
0.143207
0.0885091
0.0541907
0.036964
0.0272067
0.0202508
0.0149909
0.0114313
0.00918672
0.00754913
0.00664316
0.00620737
0.00580478
0.00576481
0.00585946
0.00585138
0.0057146
0.00528084
0.00429969
0.00326041
0.00239732
0.00163982
0.00104774
0.000653575
0.0004344
0.000326404
0.000313266
0.000353049
0.000367886
0.000339084
0.000289144
0.000246423
0.000209842
0.000180584
0.000157627
0.000140113
0.000125927
0.000112176
9.82276e-05
8.51472e-05
7.44231e-05
6.70759e-05
6.40964e-05
6.41952e-05
6.76052e-05
7.81076e-05
8.60103e-05
8.89328e-05
8.8775e-05
8.50637e-05
6.96078e-05
4.5574e-05
2.78959e-05
1.62731e-05
9.16344e-06
5.06026e-06
2.79626e-06
1.58539e-06
9.48419e-07
6.1364e-07
4.35363e-07
3.43818e-07
3.03416e-07
2.85279e-07
2.68636e-07
2.45587e-07
2.16482e-07
1.84191e-07
1.51725e-07
1.21424e-07
9.4725e-08
7.22482e-08
5.40117e-08
3.96595e-08
2.86501e-08
2.03882e-08
1.43058e-08
9.90414e-09
6.76816e-09
4.56636e-09
3.04186e-09
2.00053e-09
1.29869e-09
8.3196e-10
5.25756e-10
3.27619e-10
2.01209e-10
1.21726e-10
7.24977e-11
4.24801e-11
2.44722e-11
1.38509e-11
7.69641e-12
4.19556e-12
2.24223e-12
1.17402e-12
6.01902e-13
3.02006e-13
1.48254e-13
7.12038e-14
3.34802e-14
1.54439e-14
7.02558e-15
3.19105e-15
1.48686e-15
7.47986e-16
4.35499e-16
3.06595e-16
2.5474e-16
2.34356e-16
2.2663e-16
2.2362e-16
2.22614e-16
2.29383e-16
2.57413e-16
3.29334e-16
4.98328e-16
8.80606e-16
1.76492e-15
3.73168e-15
8.04912e-15
1.85644e-14
3.2381e-14
6.13021e-14
6.86375e-14
8.55165e-14
9.78222e-14
1.25127e-13
1.46039e-13
2.21069e-13
9.79262e-06
5.00327e-05
8.56273e-05
0.000137237
0.000190889
0.00026885
0.000360861
0.000465519
0.000580169
0.000693462
0.000792061
0.000888862
0.000995747
0.00114431
0.00131829
0.00146445
0.00161025
0.00180905
0.00217216
0.00272087
0.00312948
0.00339112