/*--------------------------------*- C++ -*----------------------------------*\
  =========                 |
  \\      /  F ield         | OpenFOAM: The Open Source CFD Toolbox
   \\    /   O peration     | Website:  https://openfoam.org
    \\  /    A nd           | Version:  9
     \\/     M anipulation  |
\*---------------------------------------------------------------------------*/
FoamFile
{
    format      ascii;
    class       volScalarField;
    location    "0.016";
    object      k_0;
}
// * * * * * * * * * * * * * * * * * * * * * * * * * * * * * * * * * * * * * //

dimensions      [0 2 -2 0 0 0 0];

internalField   nonuniform List<scalar> 
12225
(
2.02994e-05
2.12065e-05
3.33243e-05
4.97638e-05
6.33028e-05
9.3836e-05
0.000124669
0.000136378
0.000136155
0.000122943
8.11297e-05
5.29559e-05
4.09673e-05
3.7058e-05
3.61098e-05
3.57751e-05
3.4455e-05
3.7594e-05
2.00003e-05
2.02347e-05
2.19565e-05
2.47944e-05
2.78939e-05
3.50178e-05
4.57998e-05
5.30788e-05
5.59782e-05
5.60218e-05
5.38358e-05
4.53739e-05
3.69698e-05
3.24914e-05
3.07043e-05
3.03896e-05
3.05677e-05
3.12248e-05
2.00007e-05
1.28546e-05
1.05477e-05
1.13455e-05
1.46727e-05
1.79105e-05
1.96795e-05
2.03879e-05
2.05319e-05
2.0484e-05
2.00958e-05
1.93168e-05
1.86268e-05
1.81984e-05
1.80697e-05
1.80858e-05
1.8313e-05
1.91652e-05
2.10029e-05
1.98424e-05
1.93437e-05
1.93867e-05
1.94641e-05
1.93972e-05
1.83348e-05
1.2657e-05
1.06509e-05
1.15587e-05
1.41495e-05
1.68301e-05
1.86445e-05
1.94821e-05
1.96803e-05
1.96241e-05
1.91106e-05
1.81249e-05
2.01613e-05
2.01869e-05
2.05602e-05
2.15672e-05
2.44018e-05
2.72298e-05
2.74611e-05
2.64802e-05
2.48612e-05
2.48388e-05
2.65605e-05
3.55486e-05
6.0851e-05
7.65813e-05
8.0069e-05
7.90017e-05
7.18979e-05
5.39477e-05
2.00218e-05
2.00708e-05
2.04005e-05
2.16133e-05
2.46217e-05
2.69878e-05
2.6812e-05
2.46209e-05
2.36332e-05
2.36353e-05
2.45372e-05
2.91868e-05
4.51109e-05
5.68567e-05
5.96806e-05
5.91273e-05
5.50224e-05
4.41241e-05
2.00144e-05
2.01075e-05
2.05774e-05
2.15506e-05
2.2294e-05
2.26537e-05
2.30521e-05
2.29713e-05
2.30267e-05
2.31935e-05
2.46425e-05
3.25439e-05
4.78946e-05
5.3871e-05
5.38802e-05
5.04461e-05
4.04568e-05
3.28896e-05
2.01066e-05
2.14746e-05
2.5693e-05
2.56026e-05
2.27849e-05
2.14231e-05
2.12214e-05
2.14938e-05
2.37765e-05
2.90453e-05
3.42064e-05
3.89417e-05
4.09891e-05
4.08522e-05
3.85191e-05
3.31915e-05
2.94532e-05
2.68698e-05
2.13195e-05
2.8507e-05
3.08857e-05
2.71152e-05
2.24534e-05
2.12103e-05
2.1199e-05
2.21354e-05
2.70425e-05
3.33595e-05
3.56627e-05
3.58499e-05
3.44896e-05
3.01112e-05
2.753e-05
2.69096e-05
2.71971e-05
2.94809e-05
2.14393e-05
2.44503e-05
2.66193e-05
2.66981e-05
2.42932e-05
2.28747e-05
2.25844e-05
2.2686e-05
2.35911e-05
2.65135e-05
2.83548e-05
2.87674e-05
2.86126e-05
2.73656e-05
2.61814e-05
2.58494e-05
2.58642e-05
2.62873e-05
2.79539e-05
3.02842e-05
2.71469e-05
2.63153e-05
2.61772e-05
2.54533e-05
2.35855e-05
2.29298e-05
2.29659e-05
2.36622e-05
2.44981e-05
2.4734e-05
2.47136e-05
2.43853e-05
2.38465e-05
2.35796e-05
2.3506e-05
2.35444e-05
2.3976e-05
2.7151e-05
2.74617e-05
2.46834e-05
2.25128e-05
2.17411e-05
2.14444e-05
2.14215e-05
2.15455e-05
2.23015e-05
2.34882e-05
2.41524e-05
2.44399e-05
2.45485e-05
2.44648e-05
2.4167e-05
2.37834e-05
2.36313e-05
2.26525e-05
2.40474e-05
2.37059e-05
2.26072e-05
2.16645e-05
2.11388e-05
2.10538e-05
2.11519e-05
2.15102e-05
2.25156e-05
2.56272e-05
2.82672e-05
2.86303e-05
2.74979e-05
2.60947e-05
2.50664e-05
2.44344e-05
2.358e-05
2.14504e-05
2.25262e-05
2.27282e-05
2.25074e-05
2.18779e-05
2.18985e-05
2.31612e-05
2.62557e-05
2.67931e-05
2.65925e-05
2.70266e-05
2.83535e-05
2.82635e-05
2.62633e-05
2.45335e-05
2.4073e-05
2.40872e-05
2.45188e-05
2.13042e-05
2.11575e-05
2.14689e-05
2.19455e-05
2.21038e-05
2.21999e-05
2.24598e-05
2.37146e-05
2.9417e-05
3.37288e-05
3.38671e-05
3.18919e-05
2.83642e-05
2.70474e-05
2.69573e-05
2.77293e-05
3.20893e-05
3.52714e-05
2.16318e-05
2.35213e-05
2.34224e-05
2.26496e-05
2.22242e-05
2.20955e-05
2.21e-05
2.23104e-05
2.37576e-05
2.81807e-05
2.97654e-05
2.91239e-05
2.89117e-05
3.04829e-05
3.98567e-05
6.54979e-05
8.19637e-05
8.71341e-05
2.02916e-05
2.06362e-05
2.07244e-05
2.08984e-05
2.13326e-05
2.16862e-05
2.20477e-05
2.2697e-05
2.42123e-05
2.4743e-05
2.44485e-05
2.3365e-05
2.30031e-05
2.3084e-05
2.39995e-05
2.77456e-05
3.05014e-05
3.17183e-05
2.02939e-05
2.1063e-05
2.14105e-05
2.16644e-05
2.22959e-05
2.34998e-05
2.43772e-05
2.45498e-05
2.41943e-05
2.27524e-05
2.15681e-05
2.10061e-05
2.0785e-05
2.07304e-05
2.0736e-05
2.07982e-05
2.08608e-05
2.09544e-05
2.0995e-05
2.07981e-05
2.06119e-05
2.06811e-05
2.18788e-05
2.40284e-05
2.40063e-05
2.29941e-05
2.27583e-05
2.3278e-05
2.60839e-05
2.77533e-05
2.77852e-05
2.68598e-05
2.45209e-05
2.28942e-05
2.19446e-05
2.12993e-05
2.09264e-05
2.08615e-05
2.08676e-05
2.10024e-05
2.11187e-05
2.12429e-05
2.14854e-05
2.18276e-05
2.20768e-05
2.23153e-05
2.25899e-05
2.27465e-05
2.28845e-05
2.341e-05
2.61149e-05
3.10368e-05
3.34251e-05
3.37678e-05
2.02055e-05
2.1364e-05
2.35181e-05
2.43662e-05
2.41271e-05
2.26213e-05
2.16052e-05
2.13186e-05
2.11973e-05
2.11075e-05
2.1069e-05
2.10686e-05
2.11119e-05
2.13517e-05
2.24757e-05
2.55614e-05
2.7437e-05
2.79093e-05
2.33549e-05
2.35348e-05
2.16217e-05
2.06665e-05
2.05322e-05
2.06538e-05
2.10749e-05
2.1277e-05
2.13041e-05
2.12588e-05
2.10794e-05
2.09676e-05
2.09416e-05
2.09509e-05
2.10343e-05
2.14306e-05
2.19004e-05
2.20398e-05
2.15101e-05
2.22953e-05
2.20305e-05
2.1175e-05
2.1044e-05
2.15873e-05
2.42969e-05
2.5936e-05
2.59121e-05
2.42764e-05
2.26292e-05
2.20163e-05
2.18229e-05
2.17438e-05
2.17007e-05
2.16862e-05
2.16878e-05
2.17069e-05
2.05404e-05
2.1098e-05
2.10665e-05
2.103e-05
2.11466e-05
2.20779e-05
2.69249e-05
3.28231e-05
3.36833e-05
3.10292e-05
2.58982e-05
2.33416e-05
2.23325e-05
2.20857e-05
2.20328e-05
2.20591e-05
2.23194e-05
2.32648e-05
2.00479e-05
2.14825e-05
2.31296e-05
2.3288e-05
2.33551e-05
2.44691e-05
2.96853e-05
3.12688e-05
2.95904e-05
2.53714e-05
2.32306e-05
2.26379e-05
2.26904e-05
2.35634e-05
2.50243e-05
2.55717e-05
2.55826e-05
2.51982e-05
2.00952e-05
2.18158e-05
2.41353e-05
2.43111e-05
2.31695e-05
2.18247e-05
2.14448e-05
2.12502e-05
2.11692e-05
2.11835e-05
2.14349e-05
2.28148e-05
2.90654e-05
5.19245e-05
7.15856e-05
7.77966e-05
7.40483e-05
5.52388e-05
2.10649e-05
2.05528e-05
2.08487e-05
2.17213e-05
2.18789e-05
2.16081e-05
2.05442e-05
1.94513e-05
1.91075e-05
1.90872e-05
1.91231e-05
1.92628e-05
1.9749e-05
2.049e-05
2.0977e-05
2.1229e-05
2.12767e-05
2.12445e-05
2.00039e-05
1.68248e-05
1.40129e-05
1.40818e-05
1.42472e-05
1.40595e-05
1.38289e-05
1.35086e-05
1.28609e-05
1.2057e-05
1.13994e-05
1.1036e-05
1.0924e-05
1.09255e-05
1.10161e-05
1.13958e-05
1.27402e-05
1.4358e-05
2.00119e-05
2.05054e-05
2.22328e-05
2.31411e-05
2.30351e-05
2.21507e-05
2.18922e-05
2.22132e-05
2.32744e-05
2.36886e-05
2.37005e-05
2.34722e-05
2.32146e-05
2.31883e-05
2.32869e-05
2.37613e-05
2.51504e-05
2.89651e-05
2.01493e-05
3.34303e-05
6.51583e-05
7.13369e-05
6.40699e-05
4.16694e-05
3.29456e-05
3.23368e-05
3.472e-05
3.66215e-05
3.66399e-05
3.55378e-05
3.49056e-05
3.51403e-05
3.73169e-05
4.68722e-05
5.88611e-05
6.55249e-05
1.93569e-05
4.45279e-05
9.99534e-05
0.000164874
0.000273443
0.00043053
0.000611421
0.000802993
0.00101642
0.0012387
0.00146893
0.00175278
0.0021873
0.00261005
0.00297218
0.00380694
0.00588656
0.00866462
0.0105907
0.0129316
0.0191486
0.0379416
0.0550969
0.0542951
0.0320939
0.0158215
0.0106961
0.00955465
0.009988
0.0101888
0.0103705
0.0104693
0.00991928
0.00913143
0.00803866
0.00682983
0.00556704
0.00427041
0.0032388
0.00237669
0.00159292
0.0010487
0.000747993
0.0005043
0.000405297
0.000370836
0.000392854
0.000406984
0.000414268
0.00041898
0.000419954
0.000416611
0.000401783
0.000380936
0.000360144
0.000340202
0.000319648
0.000300201
0.000279966
0.000262311
0.000246906
0.00023177
0.000216829
0.000202047
0.000189989
0.000179291
0.000168485
0.000154267
0.000145274
0.000133275
0.000121075
0.000108951
9.6412e-05
8.40174e-05
7.21603e-05
6.00358e-05
5.04308e-05
4.32651e-05
3.75892e-05
3.28147e-05
2.86398e-05
2.49562e-05
2.17052e-05
1.88416e-05
1.63219e-05
1.41031e-05
1.21441e-05
1.04103e-05
8.87479e-06
7.51127e-06
6.33487e-06
5.29583e-06
4.37061e-06
3.56064e-06
2.87003e-06
2.29359e-06
1.81489e-06
1.42132e-06
1.10174e-06
8.45383e-07
6.42146e-07
4.82826e-07
3.59295e-07
2.64543e-07
1.92652e-07
1.38706e-07
9.86929e-08
6.93658e-08
4.81458e-08
3.30025e-08
2.23097e-08
1.49436e-08
9.92469e-09
6.53671e-09
4.27022e-09
2.76713e-09
1.7787e-09
1.13408e-09
7.172e-10
4.49864e-10
2.79879e-10
1.72718e-10
1.05741e-10
6.42342e-11
3.87276e-11
2.31807e-11
1.37789e-11
8.13615e-12
4.7738e-12
2.78399e-12
1.61413e-12
9.30625e-13
5.33659e-13
3.04418e-13
1.7276e-13
9.75497e-14
5.48154e-14
3.06661e-14
1.70958e-14
9.5142e-15
5.30347e-15
2.97894e-15
1.7035e-15
1.00809e-15
6.31529e-16
4.29373e-16
3.22222e-16
2.66689e-16
2.39184e-16
2.26891e-16
2.22677e-16
2.22045e-16
2.22045e-16
2.22045e-16
2.22045e-16
2.22045e-16
2.22045e-16
2.22045e-16
2.22045e-16
2.22045e-16
2.22045e-16
2.22045e-16
2.22045e-16
2.22045e-16
2.22045e-16
2.22045e-16
2.22045e-16
2.22045e-16
2.22045e-16
2.22045e-16
2.22045e-16
2.22045e-16
2.22045e-16
2.22045e-16
2.22045e-16
2.22045e-16
4.87884e-16
2.72095e-13
2.73385e-10
2.70927e-07
6.19423e-05
0.000219803
0.00052101
0.000910969
0.00142051
0.00205515
0.0027487
0.0034849
0.0043142
0.00524131
0.00628203
0.00754319
0.00942205
0.0129051
0.0180642
0.0240267
0.0298087
0.0343213
0.0363579
0.0364416
0.0351796
0.0346674
0.027909
0.0207029
0.0132084
0.00953087
0.00774461
0.006724
0.00600534
0.00524238
0.00451544
0.00382574
0.0031237
0.00256061
0.00206098
0.00172795
0.00145185
0.00128729
0.00120363
0.00116622
0.001157
0.00119391
0.00126512
0.00133739
0.00140932
0.00147495
0.00153587
0.00158474
0.00161294
0.00162455
0.0016273
0.00161368
0.00156027
0.00148141
0.00139166
0.00129579
0.00120275
0.00110326
0.000994309
0.0009099
0.000840323
0.000774672
0.000723108
0.000678392
0.000633252
0.000590781
0.000554285
0.000522876
0.000495133
0.000465341
0.000435004
0.000404015
0.0003724
0.000339765
0.000308402
0.000261401
0.000205375
0.000168836
0.000143087
0.000124842
0.000109459
9.58976e-05
8.38547e-05
7.3249e-05
6.40551e-05
5.61787e-05
4.94134e-05
4.35381e-05
3.84005e-05
3.38788e-05
2.98148e-05
2.61362e-05
2.27747e-05
1.9657e-05
1.67696e-05
1.4134e-05
1.17813e-05
9.72308e-06
7.95225e-06
6.44864e-06
5.18668e-06
4.13875e-06
3.2772e-06
2.57565e-06
2.00963e-06
1.55681e-06
1.19727e-06
9.13486e-07
6.90535e-07
5.16648e-07
3.82373e-07
2.79731e-07
2.02209e-07
1.44397e-07
1.01841e-07
7.09313e-08
4.87806e-08
3.31214e-08
2.2213e-08
1.47159e-08
9.6324e-09
6.23115e-09
3.98516e-09
2.52094e-09
1.57812e-09
9.7818e-10
6.00677e-10
3.65631e-10
2.20719e-10
1.32198e-10
7.85896e-11
4.6388e-11
2.71937e-11
1.58361e-11
9.16234e-12
5.26723e-12
3.00876e-12
1.70777e-12
9.63209e-13
5.39899e-13
3.00825e-13
1.66697e-13
9.19374e-14
5.0528e-14
2.77219e-14
1.52228e-14
8.39841e-15
4.68129e-15
2.65831e-15
1.55639e-15
9.54854e-16
6.25832e-16
4.4549e-16
3.46366e-16
2.91696e-16
2.61417e-16
2.44559e-16
2.35106e-16
2.29755e-16
2.26686e-16
2.24898e-16
2.23837e-16
2.23195e-16
2.22797e-16
2.22545e-16
2.22381e-16
2.2227e-16
2.22195e-16
2.22143e-16
2.22107e-16
2.22083e-16
2.22068e-16
2.22058e-16
2.22052e-16
2.22051e-16
2.22069e-16
2.40923e-16
2.06449e-14
2.23901e-11
2.0683e-08
0.000102784
0.000396838
0.000818937
0.00136386
0.00212181
0.00304377
0.00404608
0.0051877
0.00654292
0.0080407
0.00963963
0.0113369
0.0132172
0.0154439
0.0179982
0.0205238
0.0219905
0.0225055
0.0213846
0.0189743
0.0150598
0.0111821
0.0085037
0.00627809
0.00499582
0.00405578
0.00332013
0.00281215
0.00233813
0.00208369
0.00179377
0.00165063
0.00153881
0.00148703
0.00146381
0.00145859
0.00147337
0.00152202
0.00164137
0.00179016
0.00195456
0.0021082
0.00226396
0.00239063
0.00252548
0.0026365
0.00273641
0.00281883
0.00287948
0.00291515
0.00293085
0.00293549
0.00292901
0.00288041
0.00278719
0.00264855
0.00244824
0.0022164
0.00197914
0.00175416
0.00157341
0.00141586
0.00129693
0.00120483
0.00107852
0.000996012
0.000894235
0.000844831
0.000792224
0.000727369
0.000696034
0.000641753
0.000584689
0.000528099
0.000472425
0.000416645
0.000361519
0.000308003
0.000259852
0.000224927
0.000197109
0.000172887
0.00015068
0.000129556
0.000109509
9.16975e-05
7.73531e-05
6.56071e-05
5.58699e-05
4.77835e-05
4.10476e-05
3.54178e-05
3.06962e-05
2.67356e-05
2.33712e-05
2.0423e-05
1.78134e-05
1.54765e-05
1.33687e-05
1.14706e-05
9.76962e-06
8.25482e-06
6.91565e-06
5.7415e-06
4.7221e-06
3.84759e-06
3.10546e-06
2.48241e-06
1.96528e-06
1.54055e-06
1.19525e-06
9.17459e-07
6.96446e-07
5.22625e-07
3.87568e-07
2.83934e-07
2.05432e-07
1.46753e-07
1.03484e-07
7.20312e-08
4.95032e-08
3.36043e-08
2.2548e-08
1.49663e-08
9.83594e-09
6.40598e-09
4.13734e-09
2.6512e-09
1.68607e-09
1.0643e-09
6.668e-10
4.14573e-10
2.55737e-10
1.56484e-10
9.49572e-11
5.71315e-11
3.40756e-11
2.01464e-11
1.18075e-11
6.86133e-12
3.95468e-12
2.26213e-12
1.28521e-12
7.25949e-13
4.08134e-13
2.28659e-13
1.2782e-13
7.13777e-14
3.98678e-14
2.23051e-14
1.25247e-14
7.08051e-15
4.05062e-15
2.36432e-15
1.42541e-15
9.02044e-16
6.09647e-16
4.45629e-16
3.53007e-16
3.00171e-16
2.69618e-16
2.5165e-16
2.40885e-16
2.34296e-16
2.30159e-16
2.275e-16
2.25723e-16
2.24526e-16
2.23707e-16
2.23132e-16
2.22776e-16
2.22515e-16
2.22388e-16
2.22396e-16
2.2268e-16
2.24471e-16
2.87652e-16
1.33407e-15
9.33528e-13
7.74576e-10
0.000122831
0.000457419
0.000877674
0.00132266
0.00189204
0.00253949
0.00332868
0.00438615
0.00553218
0.00652393
0.00745422
0.00848343
0.00954308
0.0103271
0.010664
0.0107036
0.0101967
0.00928127
0.00806093
0.00670034
0.00520772
0.0042013
0.00361482
0.00282714
0.00243925
0.00211712
0.00183325
0.00170376
0.00162604
0.00159709
0.00158647
0.00160452
0.00162381
0.00172222
0.00185368
0.00204553
0.00224263
0.00247452
0.00261388
0.00276309
0.00290397
0.00304835
0.00319885
0.00332688
0.00345044
0.00354061
0.00362318
0.00367064
0.00369183
0.00369874
0.0036831
0.00363284
0.00361306
0.00357599
0.00351057
0.00343866
0.00327877
0.00308628
0.00287387
0.00259973
0.00236022
0.00216215
0.00195027
0.00184297
0.00167187
0.00158029
0.00140666
0.00128576
0.00116915
0.0010174
0.000902957
0.000785742
0.000685775
0.000600015
0.000525985
0.00046023
0.000404204
0.000356684
0.000315041
0.000278096
0.000245227
0.000216966
0.000193465
0.000173935
0.000156308
0.000137419
0.00011611
9.49362e-05
7.63582e-05
6.1618e-05
5.0011e-05
4.1113e-05
3.43293e-05
2.90994e-05
2.49961e-05
2.1758e-05
1.91474e-05
1.69395e-05
1.49231e-05
1.3042e-05
1.13064e-05
9.71875e-06
8.28427e-06
7.0047e-06
5.87553e-06
4.88696e-06
4.03019e-06
3.29592e-06
2.67336e-06
2.15069e-06
1.71589e-06
1.35745e-06
1.06462e-06
8.2745e-07
6.3714e-07
4.85928e-07
3.66926e-07
2.74214e-07
2.02759e-07
1.48324e-07
1.07365e-07
7.6938e-08
5.46192e-08
3.84383e-08
2.68322e-08
1.85844e-08
1.27715e-08
8.70664e-09
5.88617e-09
3.94469e-09
2.61939e-09
1.7227e-09
1.12171e-09
7.22926e-10
4.61072e-10
2.90992e-10
1.81741e-10
1.12344e-10
6.8753e-11
4.16704e-11
2.50241e-11
1.4898e-11
8.79893e-12
5.15994e-12
3.00719e-12
1.7431e-12
1.00557e-12
5.77631e-13
3.30534e-13
1.88483e-13
1.07162e-13
6.07973e-14
3.44684e-14
1.95728e-14
1.11705e-14
6.4387e-15
3.77373e-15
2.27047e-15
1.41941e-15
9.33954e-16
6.53826e-16
4.89676e-16
3.91782e-16
3.3236e-16
2.95021e-16
2.71713e-16
2.55671e-16
2.44971e-16
2.38205e-16
2.32715e-16
2.30784e-16
2.31305e-16
2.36551e-16
2.56064e-16
3.87907e-16
1.00003e-15
3.26893e-14
5.75627e-14
2.55596e-13
3.27085e-11
0.000121523
0.000427397
0.000758255
0.00112346
0.00156685
0.00203509
0.00255594
0.00312085
0.00362762
0.00405577
0.00450033
0.00502928
0.00552579
0.00573779
0.00579195
0.00556091
0.0049761
0.00441071
0.003775
0.00322887
0.00268699
0.00232324
0.00212965
0.00186341
0.00171598
0.00163578
0.00159925
0.00159348
0.00161811
0.00167412
0.00179316
0.00199316
0.00228382
0.00254155
0.00281543
0.0030215
0.00326328
0.00347322
0.00373862
0.00402564
0.00433815
0.00468834
0.00505987
0.00543263
0.00572583
0.00587088
0.00592696
0.00588384
0.00567035
0.00557502
0.00529358
0.00486701
0.0046913
0.00444872
0.00421076
0.00409775
0.00386549
0.0036256
0.00343188
0.00314491
0.00285928
0.00260083
0.00234479
0.00217784
0.00199531
0.0018769
0.00171882
0.00158409
0.00144407
0.00128498
0.00111813
0.000953236
0.000800713
0.000668737
0.000563596
0.000480521
0.000415917
0.000365423
0.000325082
0.000290105
0.000259087
0.0002307
0.000205248
0.000183571
0.000166708
0.000154016
0.000143079
0.000130736
0.000114325
9.37836e-05
7.27298e-05
5.51788e-05
4.20942e-05
3.25212e-05
2.57014e-05
2.08567e-05
1.73394e-05
1.4745e-05
1.28817e-05
1.15049e-05
1.03466e-05
9.205e-06
8.05079e-06
6.93967e-06
5.90452e-06
4.96645e-06
4.13456e-06
3.40952e-06
2.78676e-06
2.25856e-06
1.81556e-06
1.44777e-06
1.14529e-06
8.98733e-07
6.99478e-07
5.39835e-07
4.13048e-07
3.13249e-07
2.35406e-07
1.75255e-07
1.29223e-07
9.43471e-08
6.81905e-08
4.87815e-08
3.45298e-08
2.41789e-08
1.67453e-08
1.14664e-08
7.76203e-09
5.19248e-09
3.43097e-09
2.24013e-09
1.44477e-09
9.20052e-10
5.78299e-10
3.58659e-10
2.19423e-10
1.32394e-10
7.87769e-11
4.62302e-11
2.67679e-11
1.53039e-11
8.64948e-12
4.83845e-12
2.6839e-12
1.48008e-12
8.13932e-13
4.479e-13
2.47594e-13
1.38057e-13
7.79559e-14
4.47072e-14
2.60798e-14
1.55042e-14
9.42088e-15
5.87596e-15
3.78202e-15
2.51989e-15
1.73992e-15
1.24681e-15
9.2571e-16
7.13316e-16
5.70832e-16
4.70175e-16
4.0413e-16
3.57244e-16
3.1951e-16
3.1357e-16
3.25263e-16
3.88679e-16
6.02284e-16
1.20142e-15
3.40117e-15
9.19406e-15
6.48507e-14
2.45932e-13
9.06617e-12
9.37554e-12
7.25465e-11
7.29272e-11
0.000102944
0.000357118
0.000623926
0.000905024
0.00123911
0.00157725
0.00193149
0.00228405
0.00256332
0.00277477
0.00299422
0.0032417
0.00339863
0.00345081
0.00344807
0.0032578
0.00296218
0.00275172
0.00249834
0.00229052
0.00206096
0.00186566
0.00174209
0.00165873
0.00162714
0.00161895
0.00162635
0.00171068
0.00189366
0.00218051
0.0025313
0.00290496
0.00319991
0.00350193
0.00383926
0.00423558
0.00474752
0.00533409
0.00602716
0.00691254
0.00791282
0.00903518
0.0101794
0.0112681
0.0120253
0.0123822
0.0124904
0.012043
0.0112531
0.0105506
0.00965725
0.00806651
0.00741042
0.00649256
0.00565458
0.00533767
0.00497555
0.00462187
0.00444227
0.00416335
0.00397102
0.00372568
0.00347218
0.00321681
0.00296779
0.0027247
0.0024975
0.00226292
0.00202781
0.00181527
0.00158545
0.00134986
0.00110598
0.000858203
0.000660695
0.000521161
0.000426967
0.00036391
0.000318497
0.000285502
0.000259646
0.000234743
0.000210677
0.000188264
0.000168451
0.000153878
0.000144913
0.000138144
0.000131754
0.000124266
0.00011292
9.50929e-05
7.30415e-05
5.28732e-05
3.77851e-05
2.70009e-05
1.96423e-05
1.4768e-05
1.15404e-05
9.35803e-06
7.87783e-06
6.9383e-06
6.31286e-06
5.75531e-06
5.14273e-06
4.49597e-06
3.85624e-06
3.25234e-06
2.70259e-06
2.21638e-06
1.79627e-06
1.4402e-06
1.14323e-06
8.98961e-07
7.0048e-07
5.40974e-07
4.14095e-07
3.14151e-07
2.36176e-07
1.75919e-07
1.29801e-07
9.48471e-08
6.86193e-08
4.91398e-08
3.48232e-08
2.4414e-08
1.69285e-08
1.16058e-08
7.86468e-09
5.26617e-09
3.48311e-09
2.27477e-09
1.46634e-09
9.32545e-10
5.84841e-10
3.61514e-10
2.20149e-10
1.32002e-10
7.78804e-11
4.51831e-11
2.57591e-11
1.44208e-11
7.923e-12
4.27125e-12
2.25898e-12
1.17205e-12
5.96797e-13
2.98529e-13
1.46957e-13
7.1397e-14
3.44054e-14
1.66082e-14
8.18752e-15
4.22717e-15
2.35129e-15
1.43245e-15
9.51488e-16
6.93191e-16
5.32848e-16
4.3584e-16
3.83144e-16
3.24796e-16
3.04466e-16
3.20693e-16
4.0952e-16
7.19409e-16
1.68094e-15
4.51722e-15
1.26962e-14
3.56902e-14
1.00228e-13
2.75691e-13
7.56775e-13
1.96539e-12
5.29324e-12
1.12706e-11
4.25489e-11
4.50277e-11
6.86405e-11
7.27676e-11
8.11396e-05
0.000285209
0.00049276
0.000704882
0.000955931
0.00120443
0.00145309
0.00169783
0.00188874
0.00201787
0.00213625
0.00227174
0.00238094
0.00242207
0.00242898
0.00239567
0.00234137
0.0023
0.0022291
0.0021317
0.00197867
0.00180032
0.00170089
0.0016611
0.00164945
0.00166853
0.00176061
0.00196455
0.00226026
0.00265098
0.00308472
0.00353714
0.0040055
0.00457019
0.00526566
0.00615311
0.00728205
0.00870771
0.0106902
0.0129597
0.0157372
0.0188097
0.021887
0.0247067
0.0266777
0.0276269
0.0278791
0.0263353
0.0245444
0.0217306
0.0197023
0.0152445
0.0132554
0.0111748
0.00844315
0.00738243
0.00626213
0.00540557
0.00496169
0.00456711
0.00436785
0.00416382
0.00393313
0.00368353
0.00341126
0.00312785
0.0028445
0.00257069
0.00230216
0.00204176
0.00180726
0.00160738
0.00143064
0.00122609
0.000961709
0.000697833
0.000504149
0.000387585
0.000317039
0.000271228
0.000239545
0.000219765
0.000205391
0.000188664
0.000169463
0.000150182
0.000135375
0.000129008
0.000126741
0.000124445
0.000121103
0.000116016
0.00010748
9.20239e-05
7.03634e-05
4.93889e-05
3.36329e-05
2.25532e-05
1.52044e-05
1.05429e-05
7.6638e-06
5.87403e-06
4.7437e-06
4.05594e-06
3.66866e-06
3.386e-06
3.07529e-06
2.7225e-06
2.35357e-06
1.99162e-06
1.65378e-06
1.35057e-06
1.08679e-06
8.63053e-07
6.77192e-07
5.25481e-07
4.03502e-07
3.06727e-07
2.30874e-07
1.72088e-07
1.2702e-07
9.28316e-08
6.71674e-08
4.81036e-08
3.40924e-08
2.39052e-08
1.65796e-08
1.13705e-08
7.70873e-09
5.16463e-09
3.41822e-09
2.23409e-09
1.44133e-09
9.17479e-10
5.7596e-10
3.56384e-10
2.17227e-10
1.30348e-10
7.69536e-11
4.46671e-11
2.54718e-11
1.426e-11
7.83152e-12
4.21624e-12
2.22364e-12
1.14816e-12
5.80117e-13
2.86717e-13
1.38601e-13
6.55554e-14
3.03755e-14
1.3834e-14
6.24191e-15
2.83804e-15
1.34664e-15
7.04717e-16
4.3371e-16
3.18212e-16
2.70724e-16
2.48414e-16
2.37163e-16
2.43756e-16
2.70352e-16
3.39296e-16
5.03857e-16
8.97027e-16
1.88447e-15
4.43172e-15
1.12968e-14
2.95707e-14
7.95921e-14
2.09684e-13
5.57569e-13
1.37909e-12
3.86891e-12
7.35138e-12
2.32993e-11
2.47168e-11
2.70968e-11
3.39899e-11
6.07313e-05
0.000219465
0.000376414
0.000536576
0.000728269
0.000921241
0.00110708
0.00129046
0.00144191
0.00155222
0.00164536
0.00175184
0.00184148
0.00190799
0.00196408
0.00202079
0.00211244
0.00218758
0.00219495
0.00214042
0.00199791
0.0018213
0.00174587
0.00172965
0.00177247
0.00193378
0.00221662
0.00261128
0.00309991
0.00367018
0.00431939
0.00506598
0.00601974
0.00716759
0.00851822
0.0101763
0.0123636
0.0154846
0.0197438
0.0256205
0.0330455
0.0412077
0.0498181
0.0577111
0.0628524
0.0649774
0.0651103
0.0585401
0.0527668
0.0433975
0.038565
0.0304972
0.0245833
0.0211627
0.0153653
0.0127647
0.0101099
0.00818132
0.00677524
0.00559055
0.00485927
0.00453604
0.00424984
0.00396254
0.00365116
0.00331975
0.00298367
0.00266208
0.00235843
0.00206066
0.00178141
0.00156626
0.00143824
0.00130484
0.00113134
0.000923712
0.00070497
0.000513411
0.000377262
0.000290176
0.000237927
0.000205407
0.000184353
0.000173429
0.000165168
0.000150914
0.000132638
0.000117133
0.000109158
0.000108091
0.000108981
0.000110441
0.00011047
0.000108302
0.000100779
8.52018e-05
6.36902e-05
4.31786e-05
2.8135e-05
1.78863e-05
1.13235e-05
7.32237e-06
4.96662e-06
3.59602e-06
2.78755e-06
2.32319e-06
2.08589e-06
1.94068e-06
1.7852e-06
1.59597e-06
1.38749e-06
1.17597e-06
9.74482e-07
7.91658e-07
6.31993e-07
4.96765e-07
3.85068e-07
2.94711e-07
2.22902e-07
1.66708e-07
1.23338e-07
9.02883e-08
6.54021e-08
4.68781e-08
3.32447e-08
2.33229e-08
1.61832e-08
1.11036e-08
7.53121e-09
5.04821e-09
3.34302e-09
2.18631e-09
1.41151e-09
8.99233e-10
5.65024e-10
3.49982e-10
2.13582e-10
1.28338e-10
7.58818e-11
4.41169e-11
2.52024e-11
1.41358e-11
7.77875e-12
4.19648e-12
2.21785e-12
1.14751e-12
5.80898e-13
2.87584e-13
1.392e-13
6.58841e-14
3.05196e-14
1.38726e-14
6.22638e-15
2.80033e-15
1.30319e-15
6.64993e-16
3.99718e-16
2.91986e-16
2.49239e-16
2.32945e-16
2.25694e-16
2.29707e-16
2.50103e-16
3.0512e-16
4.36841e-16
7.45258e-16
1.50433e-15
3.40319e-15
8.38638e-15
2.12299e-14
5.5398e-14
1.40388e-13
3.5659e-13
8.31127e-13
2.37574e-12
3.89125e-12
8.72378e-12
9.63687e-12
1.0351e-11
1.28726e-11
4.29912e-05
0.000162872
0.000278141
0.000398291
0.000543222
0.000701698
0.000851411
0.000997214
0.00112735
0.00123429
0.00133128
0.00143455
0.00153602
0.00163847
0.00172276
0.00182265
0.0019856
0.00219223
0.00224502
0.00221597
0.00209509
0.00195231
0.00190785
0.00190071
0.00194642
0.00214428
0.00250507
0.00298148
0.00355367
0.00425316
0.0051303
0.00624433
0.00767911
0.00942797
0.0116583
0.0147826
0.0194699
0.0266067
0.0370905
0.0517262
0.0704824
0.0928802
0.117501
0.135976
0.144711
0.147454
0.140527
0.123734
0.103949
0.0815938
0.0633163
0.0513245
0.0387905
0.0310445
0.0239242
0.0183479
0.0142613
0.0113913
0.00920746
0.00784728
0.00661537
0.00567062
0.00519007
0.00475339
0.00430266
0.00383344
0.0033675
0.00289807
0.00248954
0.00209914
0.00170963
0.00134258
0.00109228
0.0010459
0.00104147
0.000934888
0.00076297
0.000591694
0.00045408
0.000350803
0.000273608
0.000217886
0.000182511
0.000161856
0.000150477
0.000143108
0.000130775
0.000114215
9.9577e-05
9.11902e-05
8.94716e-05
9.04283e-05
9.49908e-05
9.92487e-05
0.000100406
9.92646e-05
9.32115e-05
7.59063e-05
5.31285e-05
3.44519e-05
2.14284e-05
1.2968e-05
7.78783e-06
4.76164e-06
3.05264e-06
2.10259e-06
1.56952e-06
1.27768e-06
1.13784e-06
1.06385e-06
9.87909e-07
8.90688e-07
7.78381e-07
6.60752e-07
5.46487e-07
4.41719e-07
3.49894e-07
2.72254e-07
2.08495e-07
1.57385e-07
1.17239e-07
8.62569e-08
6.27151e-08
4.5078e-08
3.2037e-08
2.25143e-08
1.56445e-08
1.07476e-08
7.29822e-09
4.89754e-09
3.24689e-09
2.12589e-09
1.37416e-09
8.76552e-10
5.51523e-10
3.4212e-10
2.09114e-10
1.25869e-10
7.45601e-11
4.34357e-11
2.48673e-11
1.39807e-11
7.71291e-12
4.17232e-12
2.21154e-12
1.14783e-12
5.83005e-13
2.89646e-13
1.40712e-13
6.68464e-14
3.10765e-14
1.41711e-14
6.37685e-15
2.87219e-15
1.33548e-15
6.78497e-16
4.04673e-16
2.93419e-16
2.49204e-16
2.32424e-16
2.25133e-16
2.25311e-16
2.37801e-16
2.77081e-16
3.73998e-16
5.97974e-16
1.1349e-15
2.43739e-15
5.75561e-15
1.40183e-14
3.51196e-14
8.50407e-14
2.03243e-13
4.59952e-13
9.10235e-13
2.00877e-12
2.16697e-12
2.5243e-12
2.80408e-12
3.77487e-12
2.84982e-05
0.000115335
0.000195928
0.000288425
0.000394811
0.000524899
0.000656694
0.000790801
0.000911461
0.0010159
0.00110531
0.00120802
0.00133347
0.0014479
0.00156198
0.00168425
0.00185995
0.00214917
0.00245039
0.00255438
0.00244421
0.00225631
0.00221485
0.00227793
0.00242605
0.00265247
0.0030527
0.00363966
0.00432585
0.00530314
0.00688456
0.00921249
0.0119896
0.015467
0.0203596
0.0271317
0.0371858
0.0523057
0.075403
0.112644
0.157859
0.203839
0.23815
0.258454
0.267473
0.269133
0.248377
0.22331
0.178536
0.135504
0.0915254
0.0642786
0.0459199
0.034925
0.026788
0.0201148
0.0152894
0.0120767
0.00971832
0.00833237
0.00734065
0.00640993
0.00593566
0.00575117
0.00557778
0.00524714
0.0046978
0.00394625
0.00314238
0.00245898
0.00185783
0.00134943
0.000946168
0.000673639
0.000579162
0.000628375
0.000654329
0.000578241
0.000459876
0.000365536
0.000295364
0.000242818
0.00020065
0.000168504
0.000149102
0.00013695
0.000125166
0.000111644
9.73647e-05
8.50364e-05
7.74238e-05
7.53123e-05
7.59097e-05
8.05978e-05
8.85217e-05
9.28416e-05
9.36273e-05
9.19548e-05
8.37561e-05
6.18547e-05
4.02222e-05
2.4777e-05
1.46596e-05
8.4597e-06
4.85625e-06
2.84433e-06
1.75082e-06
1.16302e-06
8.44327e-07
6.76876e-07
6.00903e-07
5.64054e-07
5.27385e-07
4.78409e-07
4.19501e-07
3.56185e-07
2.93741e-07
2.36065e-07
1.85442e-07
1.42776e-07
1.07979e-07
8.03601e-08
5.89339e-08
4.26352e-08
3.04492e-08
2.14786e-08
1.49686e-08
1.03078e-08
7.01376e-09
4.71515e-09
3.13124e-09
2.05352e-09
1.32955e-09
8.49516e-10
5.35444e-10
3.32756e-10
2.03787e-10
1.22919e-10
7.29751e-11
4.26144e-11
2.44601e-11
1.37899e-11
7.63031e-12
4.14082e-12
2.20233e-12
1.14719e-12
5.84907e-13
2.91762e-13
1.4234e-13
6.79201e-14
3.17217e-14
1.45338e-14
6.56984e-15
2.96999e-15
1.38292e-15
7.00578e-16
4.14485e-16
2.97547e-16
2.5091e-16
2.32848e-16
2.26014e-16
2.23235e-16
2.28296e-16
2.51085e-16
3.12609e-16
4.56148e-16
7.93021e-16
1.58347e-15
3.51721e-15
8.12586e-15
1.92375e-14
4.37445e-14
1.10297e-13
1.96978e-13
4.39412e-13
5.04767e-13
5.49832e-13
6.50371e-13
7.28498e-13
1.00978e-12
1.73229e-05
7.74175e-05
0.000131814
0.000204156
0.00027718
0.000379864
0.000492506
0.000611645
0.000729079
0.000839231
0.000932642
0.00102955
0.0011456
0.00128703
0.00142233
0.00155445
0.00172385
0.00198971
0.00241552
0.00280708
0.00303176
0.00298709
0.00280034
0.00267814
0.00273805
0.00302483
0.00355772
0.00435972
0.00557687
0.00722435
0.00919448
0.0116653
0.0151283
0.0195885
0.0252818
0.0341675
0.0495054
0.0761108
0.125136
0.188922
0.249522
0.300224
0.334118
0.352196
0.359618
0.360239
0.339363
0.311131
0.267369
0.209872
0.143047
0.0885674
0.0543506
0.0371309
0.0273817
0.0203794
0.0150997
0.0115412
0.00925753
0.00760416
0.00669039
0.00623475
0.00582471
0.00578469
0.00586677
0.00585184
0.00570556
0.00525424
0.00426163
0.00323162
0.0023699
0.001615
0.00102957
0.000644487
0.000430529
0.000327458
0.000318904
0.000361074
0.000372417
0.000339115
0.000288363
0.000245293
0.000208753
0.000179655
0.000156845
0.000139497
0.000125382
0.000111651
9.7712e-05
8.46967e-05
7.40844e-05
6.6907e-05
6.41226e-05
6.43072e-05
6.79935e-05
7.86407e-05
8.62898e-05
8.90214e-05
8.87668e-05
8.47648e-05
6.85586e-05
4.46556e-05
2.72675e-05
1.58762e-05
8.92883e-06
4.92874e-06
2.72546e-06
1.54831e-06
9.29267e-07
6.03697e-07
4.3021e-07
3.41467e-07
3.02575e-07
2.84851e-07
2.68045e-07
2.4471e-07
2.15401e-07
1.83028e-07
1.50589e-07
1.20389e-07
9.38331e-08
7.15117e-08
5.34245e-08
3.92048e-08
2.83064e-08
2.01338e-08
1.4121e-08
9.77208e-09
6.67525e-09
4.50192e-09
2.99778e-09
1.97078e-09
1.27889e-09
8.18955e-10
5.1733e-10
3.22235e-10
1.97818e-10
1.19622e-10
7.12118e-11
4.17066e-11
2.40146e-11
1.35848e-11
7.5444e-12
4.11034e-12
2.19538e-12
1.14879e-12
5.88593e-13
2.95136e-13
1.44787e-13
6.94931e-14
3.26557e-14
1.50558e-14
6.84728e-15
3.1111e-15
1.45188e-15
7.33051e-16
4.2928e-16
3.04069e-16
2.53739e-16
2.33969e-16
2.26484e-16
2.23565e-16
2.22598e-16
2.2941e-16
2.57467e-16
3.29421e-16
4.98508e-16
8.80994e-16
1.76573e-15
3.73336e-15
8.05278e-15
1.85719e-14
3.23972e-14
6.13413e-14
6.86737e-14
8.5582e-14
9.78969e-14
1.25209e-13
1.46128e-13
2.21191e-13
9.7309e-06
4.97098e-05
8.51106e-05
0.000136384
0.000189629
0.000267087
0.000358636
0.0004629
0.000577216
0.000690254
0.00078888
0.000885402
0.000991752
0.00113952
0.00131359
0.00146078
0.00160618
0.00180265
0.00215777
0.00271007