/*--------------------------------*- C++ -*----------------------------------*\
  =========                 |
  \\      /  F ield         | OpenFOAM: The Open Source CFD Toolbox
   \\    /   O peration     | Website:  https://openfoam.org
    \\  /    A nd           | Version:  9
     \\/     M anipulation  |
\*---------------------------------------------------------------------------*/
FoamFile
{
    format      ascii;
    class       surfaceScalarField;
    location    "0.016";
    object      phi;
}
// * * * * * * * * * * * * * * * * * * * * * * * * * * * * * * * * * * * * * //

dimensions      [0 3 -1 0 0 0 0];

internalField   nonuniform List<scalar> 
24170
(
3.18769e-06
7.61786e-08
3.06573e-06
1.21962e-07
2.93861e-06
1.27116e-07
2.80895e-06
1.29661e-07
2.68368e-06
1.25267e-07
2.57765e-06
1.06027e-07
2.49637e-06
8.12833e-08
2.43017e-06
6.61971e-08
2.36507e-06
6.51048e-08
2.29041e-06
7.46615e-08
2.20592e-06
8.44914e-08
2.11914e-06
8.67802e-08
2.03817e-06
8.0971e-08
1.96855e-06
6.96156e-08
1.90479e-06
6.37562e-08
1.84e-06
6.47908e-08
1.76364e-06
7.63624e-08
1.09247e-07
1.65439e-06
3.43795e-06
1.21162e-07
3.41757e-06
1.42342e-07
3.41333e-06
1.31361e-07
3.43928e-06
1.03709e-07
3.4653e-06
9.92457e-08
3.46817e-06
1.03154e-07
3.44984e-06
9.9617e-08
3.42347e-06
9.25631e-08
3.39915e-06
8.94335e-08
3.37911e-06
9.46957e-08
3.36103e-06
1.0257e-07
3.34346e-06
1.04352e-07
3.32515e-06
9.92823e-08
3.3045e-06
9.02678e-08
3.27955e-06
8.87089e-08
3.24685e-06
9.74879e-08
3.20269e-06
1.20525e-07
1.53134e-07
3.1588e-06
3.77327e-06
1.35388e-07
3.71415e-06
2.01467e-07
3.66807e-06
1.77437e-07
3.65706e-06
1.1472e-07
3.67108e-06
8.52242e-08
3.68535e-06
8.8888e-08
3.68513e-06
9.98302e-08
3.67384e-06
1.03853e-07
3.66262e-06
1.00652e-07
3.66004e-06
9.72782e-08
3.66605e-06
9.65636e-08
3.67512e-06
9.52768e-08
3.68058e-06
9.38278e-08
3.67745e-06
9.3395e-08
3.66631e-06
9.98531e-08
3.64894e-06
1.14851e-07
3.6321e-06
1.37363e-07
1.62799e-07
3.62244e-06
3.93865e-06
1.55273e-07
3.9503e-06
1.89816e-07
3.9444e-06
1.83346e-07
3.92623e-06
1.3289e-07
3.91394e-06
9.75107e-08
3.91516e-06
8.76626e-08
3.92455e-06
9.04403e-08
3.93215e-06
9.62529e-08
3.93089e-06
1.0192e-07
3.92072e-06
1.07449e-07
3.90575e-06
1.11531e-07
3.88986e-06
1.11164e-07
3.8751e-06
1.08588e-07
3.8608e-06
1.07696e-07
3.84773e-06
1.12917e-07
3.83697e-06
1.25618e-07
3.8304e-06
1.43927e-07
1.62565e-07
3.83064e-06
4.21266e-06
1.97991e-07
4.22455e-06
1.7793e-07
4.25346e-06
1.54427e-07
4.27496e-06
1.11391e-07
4.28447e-06
8.79987e-08
4.27546e-06
9.66815e-08
4.24859e-06
1.17301e-07
4.21548e-06
1.29367e-07
4.18941e-06
1.27988e-07
4.17702e-06
1.19839e-07
4.17607e-06
1.12486e-07
4.17904e-06
1.08198e-07
4.17919e-06
1.08438e-07
4.17286e-06
1.1402e-07
4.16125e-06
1.24534e-07
4.14785e-06
1.3901e-07
4.13741e-06
1.54375e-07
1.64341e-07
4.13563e-06
4.50812e-06
1.5475e-07
4.54023e-06
1.45815e-07
4.59594e-06
9.87228e-08
4.62272e-06
8.46096e-08
4.60371e-06
1.07002e-07
4.56348e-06
1.3692e-07
4.52923e-06
1.51549e-07
4.51473e-06
1.43868e-07
4.52029e-06
1.22428e-07
4.53825e-06
1.01875e-07
4.5578e-06
9.29359e-08
4.56858e-06
9.74195e-08
4.56508e-06
1.11939e-07
4.54712e-06
1.31972e-07
4.51996e-06
1.51694e-07
4.49115e-06
1.67824e-07
4.46786e-06
1.7767e-07
1.77663e-07
4.45453e-06
4.875e-06
1.60561e-07
4.91004e-06
1.10783e-07
4.92895e-06
7.98126e-08
4.93116e-06
8.24016e-08
4.9195e-06
1.18653e-07
4.89829e-06
1.58135e-07
4.87635e-06
1.73486e-07
4.86321e-06
1.5701e-07
4.8635e-06
1.22134e-07
4.8753e-06
9.00764e-08
4.89171e-06
7.653e-08
4.90363e-06
8.5498e-08
4.90487e-06
1.10698e-07
4.89408e-06
1.42762e-07
4.87412e-06
1.71651e-07
4.85058e-06
1.91365e-07
4.82768e-06
2.00573e-07
1.97524e-07
4.80782e-06
5.18471e-06
9.27044e-08
5.19302e-06
1.02475e-07
5.19632e-06
7.65109e-08
5.19731e-06
8.14122e-08
5.21872e-06
9.72424e-08
5.24798e-06
1.2888e-07
5.2677e-06
1.53763e-07
5.26953e-06
1.55175e-07
5.25286e-06
1.38805e-07
5.22289e-06
1.20052e-07
5.18865e-06
1.10769e-07
5.15906e-06
1.15088e-07
5.13974e-06
1.30016e-07
5.1325e-06
1.50005e-07
5.13561e-06
1.68539e-07
5.14579e-06
1.81189e-07
5.15904e-06
1.87316e-07
1.86306e-07
5.17026e-06
5.59574e-06
1.0085e-07
5.55905e-06
1.39165e-07
5.47075e-06
1.64807e-07
5.42654e-06
1.25623e-07
5.44477e-06
7.90181e-08
5.49628e-06
7.73643e-08
5.54331e-06
1.06732e-07
5.56529e-06
1.33195e-07
5.56157e-06
1.42529e-07
5.54361e-06
1.38008e-07
5.52412e-06
1.30263e-07
5.51048e-06
1.28731e-07
5.50451e-06
1.35988e-07
5.50456e-06
1.49949e-07
5.5078e-06
1.65301e-07
5.51138e-06
1.77612e-07
5.51356e-06
1.85128e-07
1.85827e-07
5.51404e-06
5.95618e-06
2.26278e-07
5.9602e-06
1.35149e-07
5.96268e-06
1.62324e-07
5.94645e-06
1.41853e-07
5.92906e-06
9.64108e-08
5.93299e-06
7.343e-08
5.96291e-06
7.68089e-08
6.00088e-06
9.52308e-08
6.02536e-06
1.18047e-07
6.02743e-06
1.35941e-07
6.01204e-06
1.4565e-07
5.99065e-06
1.50123e-07
5.9726e-06
1.54035e-07
5.96203e-06
1.60523e-07
5.95774e-06
1.69593e-07
5.95641e-06
1.78935e-07
5.95515e-06
1.86392e-07
1.90063e-07
5.95091e-06
6.4484e-06
2.17543e-07
6.3761e-06
2.07449e-07
6.3602e-06
1.78229e-07
6.36169e-06
1.40354e-07
6.351e-06
1.07107e-07
6.34495e-06
7.94753e-08
6.35605e-06
6.57089e-08
6.37273e-06
7.85534e-08
6.37766e-06
1.13119e-07
6.36349e-06
1.50109e-07
6.33603e-06
1.73108e-07
6.30752e-06
1.78637e-07
6.2873e-06
1.74249e-07
6.27906e-06
1.68771e-07
6.28219e-06
1.66457e-07
6.29368e-06
1.6745e-07
6.31205e-06
1.68014e-07
1.6756e-07
6.33456e-06
5.79362e-06
1.04684e-07
5.82007e-06
1.81001e-07
5.78261e-06
2.15683e-07
5.75171e-06
1.71261e-07
5.74191e-06
1.16908e-07
5.74024e-06
8.11373e-08
5.73307e-06
7.28843e-08
5.72244e-06
8.918e-08
5.71603e-06
1.19529e-07
5.71774e-06
1.484e-07
5.72431e-06
1.66537e-07
5.72934e-06
1.73614e-07
5.72898e-06
1.74602e-07
5.72356e-06
1.74197e-07
5.71729e-06
1.72727e-07
5.7143e-06
1.70441e-07
5.71781e-06
1.64505e-07
1.57652e-07
5.72771e-06
6.88654e-06
6.51068e-08
6.88284e-06
1.847e-07
6.90736e-06
1.91165e-07
6.93996e-06
1.38656e-07
6.96286e-06
9.4014e-08
6.97722e-06
6.6773e-08
6.98499e-06
6.51146e-08
6.98444e-06
8.9728e-08
6.97745e-06
1.26524e-07
6.96379e-06
1.6206e-07
6.94285e-06
1.87473e-07
6.91676e-06
1.99705e-07
6.89168e-06
1.99681e-07
6.87502e-06
1.90856e-07
6.87116e-06
1.76591e-07
6.88082e-06
1.6078e-07
6.90005e-06
1.45274e-07
1.33159e-07
6.92454e-06
8.49599e-06
-2.89167e-08
8.55687e-06
1.23817e-07
8.55574e-06
1.92295e-07
8.53756e-06
1.56837e-07
8.53572e-06
9.58617e-08
8.53782e-06
6.46668e-08
8.52863e-06
7.43094e-08
8.51107e-06
1.07286e-07
8.49479e-06
1.42807e-07
8.49067e-06
1.66178e-07
8.50216e-06
1.75979e-07
8.52602e-06
1.75845e-07
8.55651e-06
1.69191e-07
8.58821e-06
1.5916e-07
8.61703e-06
1.47769e-07
8.64047e-06
1.37339e-07
8.65706e-06
1.28683e-07
1.23388e-07
8.66684e-06
1.04566e-05
1.66411e-07
1.03204e-05
2.60016e-07
1.03263e-05
1.86338e-07
1.03669e-05
1.16242e-07
1.04178e-05
4.50355e-08
1.04785e-05
3.89598e-09
1.05312e-05
2.16511e-08
1.05519e-05
8.66258e-08
1.05301e-05
1.64537e-07
1.04785e-05
2.17785e-07
1.04189e-05
2.35599e-07
1.03698e-05
2.2495e-07
1.0339e-05
1.99935e-07
1.03245e-05
1.73716e-07
1.03196e-05
1.52651e-07
1.03183e-05
1.38627e-07
1.03171e-05
1.29872e-07
1.24358e-07
1.03162e-05
1.26366e-05
7.30883e-08
1.26326e-05
2.63991e-07
1.26414e-05
1.77571e-07
1.26757e-05
8.19326e-08
1.26775e-05
4.31857e-08
1.26388e-05
4.26152e-08
1.25889e-05
7.15612e-08
1.25623e-05
1.132e-07
1.25779e-05
1.48934e-07
1.26322e-05
1.6354e-07
1.27116e-05
1.56136e-07
1.27976e-05
1.3896e-07
1.2872e-05
1.25519e-07
1.29228e-05
1.22903e-07
1.29461e-05
1.29402e-07
1.29453e-05
1.39399e-07
1.29278e-05
1.47377e-07
1.49342e-07
1.29028e-05
1.52528e-05
1.22707e-07
1.52649e-05
2.51877e-07
1.52619e-05
1.80567e-07
1.52815e-05
6.23389e-08
1.53079e-05
1.68752e-08
1.53276e-05
2.29042e-08
1.53541e-05
4.50562e-08
1.5393e-05
7.4256e-08
1.54445e-05
9.74412e-08
1.54962e-05
1.11882e-07
1.55338e-05
1.18521e-07
1.55512e-05
1.21588e-07
1.5551e-05
1.25662e-07
1.55412e-05
1.32733e-07
1.55301e-05
1.4044e-07
1.55235e-05
1.46028e-07
1.55241e-05
1.46777e-07
1.425e-07
1.5531e-05
1.86599e-05
1.72373e-07
1.86678e-05
2.43986e-07
1.8687e-05
1.6142e-07
1.87084e-05
4.09159e-08
1.8736e-05
-1.07607e-08
1.87544e-05
4.51619e-09
1.87554e-05
4.40336e-08
1.87499e-05
7.97831e-08
1.87402e-05
1.07196e-07
1.87262e-05
1.25827e-07
1.87094e-05
1.35378e-07
1.86961e-05
1.34898e-07
1.86949e-05
1.26771e-07
1.87113e-05
1.16382e-07
1.87446e-05
1.07136e-07
1.879e-05
1.00589e-07
1.88412e-05
9.56147e-08
9.13164e-08
1.88924e-05
2.28223e-05
8.46637e-08
2.27923e-05
2.73937e-07
2.28005e-05
1.53313e-07
2.27857e-05
5.56435e-08
2.27312e-05
4.37834e-08
2.26599e-05
7.57792e-08
2.26045e-05
9.94226e-08
2.2585e-05
9.93211e-08
2.26079e-05
8.42421e-08
2.26673e-05
6.65127e-08
2.27497e-05
5.29788e-08
2.28362e-05
4.8328e-08
2.29104e-05
5.26291e-08
2.29632e-05
6.35681e-08
2.29941e-05
7.61844e-08
2.30085e-05
8.62633e-08
2.30132e-05
9.08631e-08
8.86015e-08
2.30159e-05
1.66971e-05
4.32053e-08
1.67892e-05
1.81778e-07
1.68007e-05
1.41881e-07
1.67624e-05
9.38808e-08
1.67352e-05
7.10539e-08
1.6752e-05
5.89694e-08
1.68043e-05
4.70788e-08
1.68599e-05
4.37622e-08
1.68872e-05
5.68852e-08
1.68772e-05
7.65298e-08
1.68413e-05
8.89126e-08
1.68014e-05
8.82042e-08
1.67774e-05
7.66871e-08
1.67802e-05
6.06763e-08
1.68114e-05
4.50636e-08
1.68655e-05
3.20939e-08
1.69351e-05
2.13332e-08
1.2463e-08
1.70112e-05
1.46354e-05
6.4713e-08
1.47134e-05
1.03818e-07
1.46952e-05
1.60024e-07
1.4601e-05
1.8808e-07
1.45103e-05
1.61766e-07
1.44668e-05
1.02509e-07
1.44657e-05
4.81959e-08
1.44843e-05
2.51239e-08
1.45081e-05
3.30939e-08
1.45316e-05
5.30117e-08
1.45523e-05
6.82456e-08
1.45708e-05
6.96553e-08
1.45903e-05
5.72039e-08
1.46149e-05
3.60411e-08
1.46472e-05
1.27971e-08
1.46884e-05
-9.05481e-09
1.47337e-05
-2.39947e-08
-3.14561e-08
1.47776e-05
1.25465e-05
1.56397e-07
1.25402e-05
1.10048e-07
1.25967e-05
1.03554e-07
1.26445e-05
1.40301e-07
1.26662e-05
1.40048e-07
1.26834e-05
8.53074e-08
1.27105e-05
2.10874e-08
1.27485e-05
-1.28961e-08
1.27888e-05
-7.14615e-09
1.28279e-05
1.38249e-08
1.28663e-05
2.98846e-08
1.29021e-05
3.38663e-08
1.29307e-05
2.85656e-08
1.29474e-05
1.93834e-08
1.295e-05
1.01874e-08
1.29385e-05
2.46019e-09
1.29172e-05
-2.71921e-09
-7.77099e-09
1.28935e-05
1.0957e-05
-1.06457e-07
1.10475e-05
1.95855e-08
1.10395e-05
1.11495e-07
1.10283e-05
1.51492e-07
1.1039e-05
1.29395e-07
1.10723e-05
5.20414e-08
1.11164e-05
-2.30678e-08
1.11593e-05
-5.57704e-08
1.11925e-05
-4.03668e-08
1.12112e-05
-4.85188e-09
1.12185e-05
2.25946e-08
1.12164e-05
3.58891e-08
1.12085e-05
3.65297e-08
1.1197e-05
3.08332e-08
1.11841e-05
2.3156e-08
1.11712e-05
1.5325e-08
1.11608e-05
7.66034e-09
-3.15321e-09
1.11562e-05
9.57014e-06
-1.48323e-07
9.62543e-06
-3.57092e-08
9.68035e-06
5.65768e-08
9.75853e-06
7.33147e-08
9.84465e-06
4.32734e-08
9.8915e-06
5.1868e-09
9.89463e-06
-2.61989e-08
9.86877e-06
-2.99107e-08
9.83838e-06
-9.97389e-09
9.8128e-06
2.0734e-08
9.79378e-06
4.16084e-08
9.7855e-06
4.4175e-08
9.79006e-06
3.19676e-08
9.80708e-06
1.38084e-08
9.83138e-06
-1.13935e-09
9.8568e-06
-1.00954e-08
9.87818e-06
-1.37205e-08
-1.50818e-08
9.89011e-06
8.28486e-06
-1.79201e-07
8.34268e-06
-9.35328e-08
8.37313e-06
2.61228e-08
8.4066e-06
3.98434e-08
8.43539e-06
1.44838e-08
8.43294e-06
7.63794e-09
8.39315e-06
1.35979e-08
8.34756e-06
1.5677e-08
8.32433e-06
1.32535e-08
8.33578e-06
9.28482e-09
8.37367e-06
3.71901e-09
8.42444e-06
-6.59949e-09
8.47579e-06
-1.9375e-08
8.52202e-06
-3.24267e-08
8.56256e-06
-4.16769e-08
8.59791e-06
-4.54436e-08
8.62786e-06
-4.36697e-08
-3.82381e-08
8.65101e-06
7.34018e-06
-4.09104e-08
7.33579e-06
-8.91375e-08
7.37228e-06
-1.03756e-08
7.38781e-06
2.4313e-08
7.36999e-06
3.23057e-08
7.3435e-06
3.4131e-08
7.33417e-06
2.29283e-08
7.35426e-06
-4.41843e-09
7.40165e-06
-3.41273e-08
7.46097e-06
-5.00356e-08
7.511e-06
-4.63179e-08
7.53336e-06
-2.89536e-08
7.52195e-06
-7.97202e-09
7.48119e-06
8.33477e-09
7.42545e-06
1.40679e-08
7.37078e-06
9.2253e-09
7.32869e-06
-1.58521e-09
-1.43207e-08
7.30478e-06
6.27189e-06
-1.18169e-07
6.22607e-06
-4.33221e-08
6.2146e-06
1.09792e-09
6.24702e-06
-8.10594e-09
6.29594e-06
-1.66121e-08
6.3418e-06
-1.17285e-08
6.38062e-06
-1.58967e-08
6.41173e-06
-3.55282e-08
6.43243e-06
-5.48297e-08
6.44158e-06
-5.91842e-08
6.44223e-06
-4.69695e-08
6.43974e-06
-2.64552e-08
6.43942e-06
-7.65973e-09
6.4458e-06
1.95472e-09
6.45929e-06
5.78569e-10
6.47874e-06
-1.02251e-08
6.50189e-06
-2.47293e-08
-3.82598e-08
6.52583e-06
5.32537e-06
-3.64397e-08
5.40042e-06
-1.18373e-07
5.43047e-06
-2.89435e-08
5.43189e-06
-9.52677e-09
5.43904e-06
-2.37602e-08
5.47437e-06
-4.70601e-08
5.52878e-06
-7.03139e-08
5.57677e-06
-8.3511e-08
5.6025e-06
-8.05663e-08
5.60815e-06
-6.48312e-08
5.60673e-06
-4.55528e-08
5.61065e-06
-3.03666e-08
5.62489e-06
-2.19093e-08
5.64635e-06
-1.95037e-08
5.66818e-06
-2.12471e-08
5.68382e-06
-2.58712e-08
5.69057e-06
-3.14716e-08
-3.72904e-08
5.6896e-06
4.80528e-06
-9.25618e-08
4.79655e-06
-1.09649e-07
4.81423e-06
-4.66219e-08
4.85006e-06
-4.53586e-08
4.88376e-06
-5.74552e-08
4.90407e-06
-6.73746e-08
4.90425e-06
-7.04892e-08
4.88541e-06
-6.46727e-08
4.85853e-06
-5.36818e-08
4.83774e-06
-4.40401e-08
4.83225e-06
-4.00665e-08
4.8433e-06
-4.14181e-08
4.8661e-06
-4.47049e-08
4.89348e-06
-4.68858e-08
4.91909e-06
-4.68579e-08
4.9387e-06
-4.54825e-08
4.9508e-06
-4.35748e-08
-4.24673e-08
4.95598e-06
4.12854e-06
4.0189e-06
3.97227e-06
3.92691e-06
3.86946e-06
3.80208e-06
3.7316e-06
3.66692e-06
3.61324e-06
3.5692e-06
3.52913e-06
3.48772e-06
3.44301e-06
3.39613e-06
3.34927e-06
3.30379e-06
3.26021e-06
3.21774e-06
1.62478e-07
-1.62478e-07
3.58485e-07
-1.96007e-07
5.52955e-07
-1.9447e-07
7.43026e-07
-1.90071e-07
9.29514e-07
-1.86488e-07
1.11317e-06
-1.83658e-07
1.29418e-06
-1.81012e-07
1.47182e-06
-1.77632e-07
1.64429e-06
-1.72472e-07
1.80882e-06
-1.64536e-07
1.96196e-06
-1.53139e-07
2.1e-06
-1.38036e-07
2.21935e-06
-1.19353e-07
2.31551e-06
-9.6159e-08
2.38236e-06
-6.6845e-08
2.41322e-06
-3.08589e-08
2.40206e-06
1.1157e-08
2.34097e-06
6.10914e-08
2.22943e-06
1.11532e-07
2.0611e-06
1.68337e-07
1.82649e-06
2.34604e-07
1.50997e-06
3.16526e-07
1.08692e-06
4.23049e-07
5.27908e-07
5.59011e-07
-1.63228e-07
6.91136e-07
-9.15935e-07
7.52707e-07
-1.68354e-06
7.67602e-07
-2.46106e-06
7.77526e-07
-3.24068e-06
7.79616e-07
-4.01167e-06
7.70992e-07
-4.7657e-06
7.54033e-07
-5.49643e-06
7.30723e-07
-6.19938e-06
7.02958e-07
-6.87137e-06
6.71984e-07
-7.50994e-06
6.38571e-07
-8.11286e-06
6.02923e-07
-8.67754e-06
5.64676e-07
-9.20066e-06
5.23118e-07
-9.67816e-06
4.77501e-07
-1.01054e-05
4.27214e-07
-1.04773e-05
3.71881e-07
-1.07887e-05
3.11436e-07
-1.10348e-05
2.46131e-07
-1.12115e-05
1.76643e-07
-1.13158e-05
1.04353e-07
-1.13472e-05
3.13763e-08
-1.13093e-05
-3.78709e-08
-1.12041e-05
-1.05234e-07
-1.10361e-05
-1.68007e-07
-1.08108e-05
-2.25261e-07
-1.05344e-05
-2.7641e-07
-1.02137e-05
-3.20741e-07
-9.85595e-06
-3.57713e-07
-9.46883e-06
-3.87127e-07
-9.05974e-06
-4.09084e-07
-8.63559e-06
-4.24152e-07
-8.20236e-06
-4.33228e-07
-7.7648e-06
-4.37558e-07
-7.32625e-06
-4.38552e-07
-6.88854e-06
-4.37717e-07
-6.45211e-06
-4.36425e-07
-6.01636e-06
-4.35752e-07
-5.57993e-06
-4.36432e-07
-5.1411e-06
-4.38831e-07
-4.69821e-06
-4.42888e-07
-4.25009e-06
-4.48115e-07
-3.79639e-06
-4.53704e-07
-3.33779e-06
-4.58603e-07
-2.87616e-06
-4.61629e-07
-2.41449e-06
-4.61669e-07
-1.95662e-06
-4.57868e-07
-1.50678e-06
-4.49843e-07
-1.06927e-06
-4.37507e-07
-6.48161e-07
-4.21108e-07
-2.46491e-07
-4.01671e-07
1.33249e-07
-3.7974e-07
4.89801e-07
-3.56552e-07
8.22364e-07
-3.32563e-07
1.13084e-06
-3.0848e-07
1.41573e-06
-2.84884e-07
1.67792e-06
-2.62189e-07
1.91858e-06
-2.40666e-07
2.13907e-06
-2.20485e-07
2.3408e-06
-2.01729e-07
2.52522e-06
-1.84419e-07
2.69374e-06
-1.68529e-07
2.84774e-06
-1.53993e-07
2.98846e-06
-1.40723e-07
3.11707e-06
-1.28614e-07
3.23463e-06
-1.17555e-07
3.34206e-06
-1.07432e-07
3.4402e-06
-9.81375e-08
3.52977e-06
-8.9567e-08
3.61139e-06
-8.16266e-08
3.68562e-06
-7.42314e-08
3.75293e-06
-6.73075e-08
3.81372e-06
-6.07922e-08
3.86836e-06
-5.46347e-08
3.91716e-06
-4.87965e-08
3.96041e-06
-4.32499e-08
3.99838e-06
-3.79784e-08
4.03136e-06
-3.29735e-08
4.05959e-06
-2.82348e-08
4.08336e-06
-2.37656e-08
4.10293e-06
-1.95726e-08
4.11859e-06
-1.5664e-08
4.13064e-06
-1.20422e-08
4.13935e-06
-8.718e-09
4.14503e-06
-5.67251e-09
4.14794e-06
-2.91375e-09
4.14835e-06
-4.13572e-10
4.14644e-06
1.91952e-09
4.14243e-06
4.00533e-09
4.13663e-06
5.79751e-09
4.12932e-06
7.30835e-09
4.12076e-06
8.56665e-09
4.11116e-06
9.59976e-09
4.10073e-06
1.04281e-08
4.08966e-06
1.10676e-08
4.0781e-06
1.15602e-08
4.06617e-06
1.19288e-08
4.05399e-06
1.21873e-08
4.04163e-06
1.23557e-08
4.02918e-06
1.24495e-08
4.0167e-06
1.24837e-08
4.00422e-06
1.24728e-08
3.9918e-06
1.24263e-08
3.97945e-06
1.23515e-08
3.96719e-06
1.22581e-08
3.95503e-06
1.21559e-08
3.94298e-06
1.20513e-08
3.93104e-06
1.19454e-08
3.9192e-06
1.18376e-08
3.90747e-06
1.17328e-08
3.89582e-06
1.16419e-08
3.88425e-06
1.15745e-08
3.87272e-06
1.15293e-08
3.86123e-06
1.14918e-08
3.84979e-06
1.14389e-08
3.83844e-06
1.13515e-08
3.82721e-06
1.12227e-08
3.81615e-06
1.106e-08
3.80527e-06
1.08801e-08
3.79457e-06
1.07019e-08
3.78403e-06
1.05396e-08
3.77363e-06
1.04012e-08
3.76334e-06
1.02884e-08
3.75314e-06
1.01995e-08
3.74301e-06
1.01312e-08
3.73293e-06
1.00805e-08
3.72289e-06
1.00452e-08
3.71286e-06
1.00243e-08
3.70285e-06
1.00171e-08
3.69282e-06
1.00241e-08
3.68278e-06
1.00455e-08
3.67269e-06
1.00828e-08
3.66256e-06
1.0137e-08
3.65235e-06
1.02109e-08
3.64204e-06
1.03067e-08
3.63161e-06
1.04289e-08
3.62103e-06
1.05828e-08
3.61025e-06
1.07733e-08
3.59924e-06
1.10158e-08
3.58793e-06
1.13071e-08
3.57623e-06
1.16959e-08
3.5641e-06
1.21371e-08
3.55131e-06
1.27888e-08
3.53786e-06
1.34458e-08
3.52325e-06
1.46162e-08
3.5077e-06
1.55479e-08
3.48986e-06
1.78431e-08
3.47086e-06
1.8998e-08
3.44687e-06
2.39857e-08
3.42201e-06
2.48659e-08
3.38507e-06
3.69363e-08
3.3494e-06
3.5666e-08
3.28093e-06
6.84775e-08
3.21958e-06
6.13499e-08
3.04765e-06
1.71924e-07
1.7618e-07
2.87147e-06
1.01554e-07
-2.64032e-07
1.92712e-07
-2.87166e-07
2.80869e-07
-2.82626e-07
3.6866e-07
-2.77861e-07
4.56937e-07
-2.74766e-07
5.44849e-07
-2.7157e-07
6.31291e-07
-2.67453e-07
7.14464e-07
-2.60805e-07
7.91609e-07
-2.49617e-07
8.58508e-07
-2.31435e-07
9.09435e-07
-2.04066e-07
9.37682e-07
-1.66284e-07
9.36026e-07
-1.17697e-07
8.96342e-07
-5.64745e-08
8.09166e-07
2.03305e-08
6.65012e-07
1.13295e-07
4.51192e-07
2.24977e-07
1.58622e-07
3.53662e-07
-2.29616e-07
4.9977e-07
-7.19511e-07
6.58232e-07
-1.30168e-06
8.16768e-07
-1.94598e-06
9.60828e-07
-2.60961e-06
1.08669e-06
-3.24752e-06
1.19691e-06
-3.83686e-06
1.28048e-06
-4.41077e-06
1.32662e-06
-4.98951e-06
1.34634e-06
-5.55866e-06
1.34668e-06
-6.11054e-06
1.3315e-06
-6.64404e-06
1.30449e-06
-7.15893e-06
1.26892e-06
-7.65544e-06
1.22724e-06
-8.13366e-06
1.18117e-06
-8.59334e-06
1.13167e-06
-9.03348e-06
1.07871e-06
-9.4522e-06
1.02165e-06
-9.84724e-06
9.59714e-07
-1.02152e-05
8.91076e-07
-1.05518e-05
8.14085e-07
-1.08522e-05
7.27613e-07
-1.11114e-05
6.31118e-07
-1.13247e-05
5.24695e-07
-1.14876e-05
4.09091e-07
-1.15967e-05
2.8573e-07
-1.16491e-05
1.56708e-07
-1.16432e-05
2.54712e-08
-1.15738e-05
-1.07219e-07
-1.14432e-05
-2.35836e-07
-1.12534e-05
-3.57878e-07
-1.10077e-05
-4.70931e-07
-1.07117e-05
-5.72439e-07
-1.03719e-05
-6.60467e-07
-9.99587e-06
-7.33769e-07
-9.59122e-06
-7.91779e-07
-9.16563e-06
-8.34674e-07
-8.72635e-06
-8.6344e-07
-8.27966e-06
-8.79912e-07
-7.83061e-06
-8.86609e-07
-7.38261e-06
-8.86557e-07
-6.93733e-06
-8.82988e-07
-6.49488e-06
-8.78875e-07
-6.05414e-06
-8.76492e-07
-5.61324e-06
-8.77335e-07
-5.16991e-06
-8.82168e-07
-4.72192e-06
-8.90872e-07
-4.26764e-06
-9.024e-07
-3.80634e-06
-9.14998e-07
-3.3386e-06
-9.26342e-07
-2.86647e-06
-9.33764e-07
-2.39324e-06
-9.34898e-07
-1.92335e-06
-9.27758e-07
-1.46165e-06
-9.11538e-07
-1.01287e-06
-8.86294e-07
-5.81128e-07
-8.52847e-07
-1.70001e-07
-8.12798e-07
2.1918e-07
-7.6892e-07
5.84502e-07
-7.21874e-07
9.25641e-07
-6.73702e-07
1.24289e-06
-6.25732e-07
1.53703e-06
-5.79023e-07
1.80915e-06
-5.34306e-07
2.06053e-06
-4.92044e-07
2.29255e-06
-4.52506e-07
2.50664e-06
-4.15822e-07
2.70424e-06
-3.82013e-07
2.88672e-06
-3.51016e-07
3.05543e-06
-3.22703e-07
3.21161e-06
-2.969e-07
3.3564e-06
-2.73401e-07
3.49083e-06
-2.51986e-07
3.61583e-06
-2.32432e-07
3.73221e-06
-2.14521e-07
3.84069e-06
-1.98051e-07
3.9419e-06
-1.8283e-07
4.03636e-06
-1.6869e-07
4.12453e-06
-1.5548e-07
4.20681e-06
-1.4307e-07
4.28353e-06
-1.31353e-07
4.35497e-06
-1.20244e-07
4.4214e-06
-1.09681e-07
4.48304e-06
-9.96184e-08
4.5401e-06
-9.00318e-08
4.59278e-06
-8.09087e-08
4.64126e-06
-7.22475e-08
4.68574e-06
-6.4053e-08
4.72641e-06
-5.63325e-08
4.76346e-06
-4.9093e-08
4.79708e-06
-4.23386e-08
4.82748e-06
-3.60697e-08
4.85484e-06
-3.02786e-08
4.8794e-06
-2.49752e-08
4.90147e-06
-2.01483e-08
4.92124e-06
-1.57613e-08
4.93882e-06
-1.17807e-08
4.95433e-06
-8.20412e-09
4.9679e-06
-5.00715e-09
4.97965e-06
-2.15282e-09
4.9897e-06
3.81215e-10
4.99819e-06
2.58252e-09
5.0052e-06
4.54636e-09
5.01086e-06
6.2665e-09
5.01528e-06
7.76518e-09
5.01856e-06
9.07756e-09
5.0208e-06
1.02152e-08
5.02208e-06
1.12031e-08
5.02249e-06
1.20615e-08
5.02211e-06
1.28057e-08
5.02101e-06
1.34511e-08
5.01926e-06
1.40121e-08
5.01691e-06
1.45021e-08
5.01403e-06
1.49316e-08
5.01067e-06
1.53076e-08
5.00687e-06
1.5637e-08
5.00267e-06
1.59295e-08
4.99812e-06
1.61967e-08
4.99324e-06
1.64461e-08
4.9881e-06
1.66779e-08
4.9827e-06
1.6883e-08
4.9771e-06
1.70488e-08
4.97128e-06
1.71645e-08
4.96528e-06
1.72263e-08
4.9591e-06
1.72379e-08
4.95277e-06
1.72102e-08
4.94631e-06
1.71583e-08
4.93975e-06
1.70995e-08
4.93311e-06
1.70501e-08
4.92637e-06
1.70233e-08
4.91954e-06
1.70278e-08
4.91261e-06
1.70671e-08
4.90555e-06
1.71405e-08
4.89835e-06
1.72441e-08
4.891e-06
1.73735e-08
4.88349e-06
1.75242e-08
4.87582e-06
1.76935e-08
4.86799e-06
1.788e-08
4.85999e-06
1.80839e-08
4.85181e-06
1.83081e-08
4.84347e-06
1.85547e-08
4.83495e-06
1.8832e-08
4.82623e-06
1.91415e-08
4.81731e-06
1.95026e-08
4.80818e-06
1.991e-08
4.79878e-06
2.04099e-08
4.78912e-06
2.09703e-08
4.7791e-06
2.17102e-08
4.76873e-06
2.25071e-08
4.75784e-06
2.36824e-08
4.74645e-06
2.48347e-08
4.73422e-06
2.68522e-08
4.72126e-06
2.85055e-08
4.70683e-06
3.2271e-08
4.6913e-06
3.45328e-08
4.67306e-06
4.22217e-08
4.65293e-06
4.49987e-08
4.62754e-06
6.23205e-08
4.59787e-06
6.53407e-08
4.55695e-06
1.09398e-07
4.50226e-06
1.16033e-07
4.42945e-06
2.44736e-07
2.83527e-07
4.32211e-06
-1.62206e-08
-2.47811e-07
-5.27459e-08
-2.50641e-07
-8.84606e-08
-2.46912e-07
-1.24447e-07
-2.41875e-07
-1.61968e-07
-2.37245e-07
-2.03554e-07
-2.29983e-07
-2.5202e-07
-2.18988e-07
-3.11066e-07
-2.01759e-07
-3.85384e-07
-1.75299e-07
-4.79883e-07
-1.36936e-07
-5.99368e-07
-8.45813e-08
-7.49596e-07
-1.60551e-08
-9.31323e-07
6.40297e-08
-1.14988e-06
1.62078e-07
-1.41052e-06
2.80975e-07
-1.71846e-06
4.21234e-07
-2.07362e-06
5.80137e-07
-2.4706e-06
7.50641e-07
-2.89446e-06
9.23632e-07
-3.32624e-06
1.09001e-06
-3.75126e-06
1.24178e-06
-4.1634e-06
1.37297e-06
-4.55793e-06
1.48121e-06
-4.9259e-06
1.56489e-06
-5.26855e-06
1.62313e-06
-5.6017e-06
1.65977e-06
-5.93585e-06
1.68048e-06
-6.27628e-06
1.68711e-06
-6.62714e-06
1.68236e-06
-6.99107e-06
1.66842e-06
-7.36914e-06
1.647e-06
-7.76095e-06
1.61905e-06
-8.16429e-06
1.58451e-06
-8.57525e-06
1.54263e-06
-8.98862e-06
1.49208e-06
-9.39809e-06
1.43111e-06
-9.79613e-06
1.35775e-06
-1.01749e-05
1.26989e-06
-1.05265e-05
1.16565e-06
-1.08428e-05
1.04387e-06
-1.11159e-05
9.04284e-07
-1.13389e-05
7.47652e-07
-1.15056e-05
5.7585e-07
-1.16116e-05
3.91736e-07
-1.1654e-05
1.99011e-07
-1.1625e-05
-3.51275e-09
-1.1539e-05
-1.93231e-07
-1.13932e-05
-3.81585e-07
-1.11908e-05
-5.60285e-07
-1.09368e-05
-7.24956e-07
-1.06368e-05
-8.72389e-07
-1.02971e-05
-1.00015e-06
-9.92407e-06
-1.10685e-06
-9.52399e-06
-1.19186e-06
-9.10331e-06
-1.25536e-06
-8.66839e-06
-1.29836e-06
-8.22532e-06
-1.32298e-06
-7.77944e-06
-1.33249e-06
-7.33473e-06
-1.33127e-06
-6.89336e-06
-1.32436e-06
-6.45554e-06
-1.31669e-06
-6.0199e-06
-1.31213e-06
-5.58401e-06
-1.31323e-06
-5.14484e-06
-1.32134e-06
-4.69928e-06
-1.33644e-06
-4.24475e-06
-1.35693e-06
-3.77989e-06
-1.37986e-06
-3.30512e-06
-1.40111e-06
-2.82299e-06
-1.41589e-06
-2.33787e-06
-1.42002e-06
-1.85568e-06
-1.40995e-06
-1.38284e-06
-1.38437e-06
-9.25346e-07
-1.34379e-06
-4.88494e-07
-1.2897e-06
-7.61775e-08
-1.22511e-06
3.11372e-07
-1.15647e-06
6.71636e-07
-1.08214e-06
1.00506e-06
-1.00713e-06
1.31278e-06
-9.33447e-07
1.59635e-06
-8.62598e-07
1.85762e-06
-7.95571e-07
2.09846e-06
-7.32891e-07
2.3207e-06
-6.74744e-07
2.52599e-06
-6.21108e-07
2.71582e-06
-5.71842e-07
2.89154e-06
-5.26736e-07
3.05438e-06
-4.85543e-07
3.20546e-06
-4.47984e-07
3.34582e-06
-4.13762e-07
3.4764e-06
-3.82568e-07
3.59806e-06
-3.5409e-07
3.71157e-06
-3.28025e-07
3.81759e-06
-3.0408e-07
3.91675e-06
-2.81981e-07
4.00954e-06
-2.6148e-07
4.09641e-06
-2.42354e-07
4.17775e-06
-2.24409e-07
4.25388e-06
-2.07484e-07
4.32509e-06
-1.91451e-07
4.39162e-06
-1.76211e-07
4.4537e-06
-1.61697e-07
4.51153e-06
-1.47866e-07
4.56532e-06
-1.34694e-07
4.61524e-06
-1.22175e-07
4.6615e-06
-1.10309e-07
4.70427e-06
-9.91019e-08
4.74373e-06
-8.85594e-08
4.78008e-06
-7.8683e-08
4.81348e-06
-6.94729e-08
4.84412e-06
-6.09178e-08
4.87215e-06
-5.30037e-08
4.89772e-06
-4.57186e-08
4.92099e-06
-3.90309e-08
4.94211e-06
-3.29032e-08
4.96122e-06
-2.73099e-08
4.97843e-06
-2.22183e-08
4.99387e-06
-1.75969e-08
5.00768e-06
-1.34227e-08
5.01992e-06
-9.6622e-09
5.03073e-06
-6.25686e-09
5.04018e-06
-3.18381e-09
5.04837e-06
-4.28389e-10
5.05536e-06
2.08808e-09
5.06124e-06
4.33468e-09
5.06608e-06
6.36493e-09
5.06995e-06
8.19419e-09
5.07291e-06
9.84314e-09
5.07503e-06
1.13318e-08
5.07636e-06
1.2677e-08
5.07697e-06
1.38949e-08
5.0769e-06
1.49989e-08
5.07621e-06
1.59999e-08
5.07494e-06
1.69087e-08
5.07313e-06
1.77372e-08
5.07083e-06
1.84973e-08
5.06808e-06
1.91977e-08
5.06492e-06
1.98407e-08
5.06137e-06
2.04238e-08
5.05748e-06
2.09421e-08
5.05325e-06
2.13922e-08
5.04871e-06
2.17745e-08
5.04385e-06
2.20929e-08
5.03871e-06
2.23552e-08
5.03329e-06
2.2573e-08
5.02763e-06
2.27609e-08
5.02174e-06
2.29355e-08
5.01565e-06
2.31127e-08
5.00938e-06
2.33053e-08
5.00292e-06
2.35211e-08
4.9963e-06
2.3763e-08
4.98951e-06
2.403e-08
4.98257e-06
2.4319e-08
4.97547e-06
2.46271e-08
4.96821e-06
2.49514e-08
4.9608e-06
2.52922e-08
4.95323e-06
2.56494e-08
4.94551e-06
2.6029e-08
4.93763e-06
2.64322e-08
4.92959e-06
2.68731e-08
4.92138e-06
2.73507e-08
4.91299e-06
2.78957e-08
4.9044e-06
2.84956e-08
4.89559e-06
2.92192e-08
4.88655e-06
3.00171e-08
4.8772e-06
3.10522e-08
4.86755e-06
3.21662e-08
4.85747e-06
3.37598e-08
4.84693e-06
3.53732e-08
4.83577e-06
3.80129e-08
4.82387e-06
4.04041e-08
4.81103e-06
4.5108e-08
4.79686e-06
4.87063e-08
4.78132e-06
5.77569e-08
4.76296e-06
6.33636e-08
4.74292e-06
8.23579e-08
4.71587e-06
9.23943e-08
4.68877e-06
1.36496e-07
4.64379e-06
1.61014e-07
4.61465e-06
2.73878e-07
3.49538e-07
4.54864e-06
-1.01282e-07
-1.46529e-07
-2.19935e-07
-1.31988e-07
-3.41132e-07
-1.25715e-07
-4.68086e-07
-1.14921e-07
-6.02411e-07
-1.0292e-07
-7.46368e-07
-8.60259e-08
-9.02464e-07
-6.28919e-08
-1.07392e-06
-3.02995e-08
-1.26321e-06
1.39869e-08
-1.46997e-06
6.9826e-08
-1.69489e-06
1.40339e-07
-1.93634e-06
2.2539e-07
-2.19894e-06
3.26635e-07
-2.48261e-06
4.45742e-07
-2.78438e-06
5.82748e-07
-3.09782e-06
7.3467e-07
-3.41358e-06
8.95899e-07
-3.72226e-06
1.05932e-06
-4.01593e-06
1.2173e-06
-4.28888e-06
1.36297e-06
-4.53922e-06
1.49213e-06
-4.77042e-06
1.60417e-06
-4.98975e-06
1.70054e-06
-5.20685e-06
1.78199e-06
-5.43313e-06
1.8494e-06
-5.6787e-06
1.90534e-06
-5.95021e-06
1.95199e-06
-6.25233e-06
1.98923e-06
-6.58614e-06
2.01617e-06
-6.94904e-06
2.03132e-06
-7.33572e-06
2.03368e-06
-7.73938e-06
2.02271e-06
-8.152e-06
1.99712e-06
-8.56541e-06
1.95604e-06
-8.97179e-06
1.89847e-06
-9.36364e-06
1.82296e-06
-9.73371e-06
1.72783e-06
-1.00753e-05
1.61149e-06
-1.03822e-05
1.47254e-06
-1.06484e-05
1.3101e-06
-1.08686e-05
1.12445e-06
-1.10381e-05
9.17168e-07
-1.11536e-05
6.91354e-07
-1.12133e-05
4.51457e-07
-1.1215e-05
2.00713e-07
-1.11616e-05
-5.69452e-08
-1.10511e-05
-3.03782e-07
-1.08873e-05
-5.45334e-07
-1.06751e-05
-7.72449e-07
-1.04217e-05
-9.78434e-07
-1.01347e-05
-1.15938e-06
-9.82103e-06
-1.31379e-06
-9.48607e-06
-1.44181e-06
-9.13353e-06
-1.5444e-06
-8.76597e-06
-1.62291e-06
-8.38548e-06
-1.67884e-06
-7.99436e-06
-1.7141e-06
-7.59534e-06
-1.73151e-06
-7.19148e-06
-1.73513e-06
-6.78539e-06
-1.73045e-06
-6.37825e-06
-1.72383e-06
-5.96933e-06
-1.72106e-06
-5.55627e-06
-1.72628e-06
-5.13569e-06
-1.74192e-06
-4.70349e-06
-1.76863e-06
-4.25579e-06
-1.80464e-06
-3.79004e-06
-1.84561e-06
-3.3061e-06
-1.88504e-06
-2.80702e-06
-1.91498e-06
-2.29881e-06
-1.92823e-06
-1.79021e-06
-1.91854e-06
-1.29089e-06
-1.8837e-06
-8.09624e-07
-1.82506e-06
-3.53098e-07
-1.74623e-06
7.4617e-08
-1.65283e-06
4.70082e-07
-1.55193e-06
8.34225e-07
-1.44628e-06
1.16733e-06
-1.34024e-06
1.47066e-06
-1.23677e-06
1.7461e-06
-1.13804e-06
1.99612e-06
-1.04559e-06
2.22359e-06
-9.60354e-07
2.43149e-06
-8.82649e-07
2.62266e-06
-8.12274e-07
2.79949e-06
-7.48672e-07
2.96388e-06
-6.9113e-07
3.11726e-06
-6.3892e-07
3.26067e-06
-5.9139e-07
3.39489e-06
-5.4799e-07
3.52059e-06
-5.08265e-07
3.63833e-06
-4.71825e-07
3.74863e-06
-4.38325e-07
3.85199e-06
-4.07442e-07
3.94887e-06
-3.78867e-07
4.0397e-06
-3.52309e-07
4.12484e-06
-3.27496e-07
4.20462e-06
-3.04187e-07
4.27931e-06
-2.82176e-07
4.34916e-06
-2.613e-07
4.41439e-06
-2.41433e-07
4.47518e-06
-2.22492e-07
4.53174e-06
-2.04422e-07
4.58424e-06
-1.872e-07
4.63288e-06
-1.70817e-07
4.67785e-06
-1.55276e-07
4.71934e-06
-1.40587e-07
4.75753e-06
-1.26756e-07
4.79263e-06
-1.13785e-07
4.82483e-06
-1.01669e-07
4.8543e-06
-9.0392e-08
4.88124e-06
-7.99341e-08
4.90579e-06
-7.027e-08
4.92812e-06
-6.1363e-08
4.94839e-06
-5.31694e-08
4.96672e-06
-4.56469e-08
4.98326e-06
-3.87551e-08
4.99812e-06
-3.24539e-08
5.01139e-06
-2.67005e-08
5.02318e-06
-2.14533e-08
5.03359e-06
-1.66666e-08
5.04271e-06
-1.23012e-08
5.0506e-06
-8.3207e-09
5.05738e-06
-4.68478e-09
5.06309e-06
-1.38178e-09
5.06781e-06
1.64474e-09
5.07161e-06
4.39826e-09
5.07454e-06
6.91306e-09
5.07666e-06
9.21131e-09
5.07803e-06
1.13123e-08
5.07869e-06
1.32343e-08
5.07869e-06
1.49939e-08
5.07808e-06
1.66057e-08
5.07691e-06
1.80835e-08
5.07521e-06