/*--------------------------------*- C++ -*----------------------------------*\
  =========                 |
  \\      /  F ield         | OpenFOAM: The Open Source CFD Toolbox
   \\    /   O peration     | Website:  https://openfoam.org
    \\  /    A nd           | Version:  9
     \\/     M anipulation  |
\*---------------------------------------------------------------------------*/
FoamFile
{
    format      ascii;
    class       volScalarField;
    location    "0.016";
    object      pMean;
}
// * * * * * * * * * * * * * * * * * * * * * * * * * * * * * * * * * * * * * //

dimensions      [0 2 -2 0 0 0 0];

internalField   nonuniform List<scalar> 
12225
(
-5.43397
-6.06522
-6.40093
-6.53734
-6.61772
-6.69444
-6.77371
-6.85164
-6.92576
-6.99495
-7.06006
-7.1182
-7.17269
-7.21664
-7.26272
-7.29654
-7.3568
-7.43477
-5.68303
-6.09761
-6.40235
-6.5473
-6.62868
-6.70278
-6.78061
-6.85813
-6.93228
-7.00122
-7.06629
-7.12456
-7.1797
-7.22535
-7.27321
-7.31238
-7.37915
-7.48988
-5.73534
-6.09723
-6.38934
-6.54771
-6.63463
-6.70745
-6.78401
-6.86172
-6.93625
-7.00559
-7.07045
-7.12986
-7.18529
-7.23564
-7.28529
-7.33872
-7.41072
-7.52227
-5.96107
-6.15518
-6.39682
-6.55932
-6.65052
-6.72045
-6.79379
-6.87006
-6.9442
-7.01321
-7.07803
-7.13812
-7.1952
-7.24914
-7.30397
-7.36464
-7.43864
-7.53431
-6.01838
-6.18326
-6.39807
-6.56001
-6.65742
-6.7285
-6.79991
-6.87506
-6.94908
-7.01865
-7.08388
-7.14525
-7.20397
-7.26128
-7.32002
-7.38446
-7.45789
-7.54306
-6.10013
-6.23701
-6.41648
-6.5676
-6.66834
-6.74133
-6.81116
-6.88434
-6.95754
-7.02721
-7.09291
-7.15546
-7.21607
-7.27637
-7.33831
-7.40491
-7.47795
-7.55873
-6.19689
-6.29755
-6.44523
-6.58098
-6.6806
-6.75518
-6.8237
-6.89419
-6.96554
-7.03491
-7.10119
-7.16496
-7.22734
-7.29003
-7.35469
-7.42339
-7.49722
-7.57667
-6.21886
-6.33007
-6.46034
-6.58504
-6.68524
-6.76392
-6.83349
-6.90317
-6.97436
-7.04431
-7.11163
-7.17679
-7.24113
-7.30615
-7.37326
-7.44402
-7.51938
-7.59956
-6.37234
-6.41472
-6.50727
-6.61194
-6.70601
-6.78251
-6.84994
-6.91667
-6.98496
-7.05343
-7.12072
-7.18694
-7.25291
-7.31995
-7.38945
-7.46249
-7.54005
-7.62232
-6.37585
-6.43158
-6.51593
-6.61438
-6.70787
-6.7878
-6.85742
-6.92474
-6.99299
-7.06178
-7.13007
-7.19764
-7.26532
-7.33422
-7.40577
-7.48092
-7.5607
-7.64535
-6.49142
-6.5146
-6.57545
-6.65663
-6.73838
-6.81036
-6.87609
-6.94104
-7.00721
-7.0744
-7.14208
-7.20994
-7.27849
-7.34882
-7.4221
-7.49926
-7.58109
-7.66832
-6.56426
-6.53338
-6.57947
-6.65939
-6.7418
-6.81627
-6.88423
-6.9497
-7.01524
-7.08195
-7.14988
-7.21863
-7.2883
-7.35988
-7.43452
-7.51317
-7.59669
-7.68576
-6.54436
-6.59932
-6.65039
-6.70428
-6.76874
-6.83588
-6.90082
-6.9642
-7.02773
-7.09286
-7.16004
-7.22887
-7.2992
-7.37166
-7.44722
-7.52686
-7.61141
-7.70172
-6.50735
-6.5908
-6.65759
-6.71243
-6.77331
-6.84092
-6.90802
-6.97217
-7.03585
-7.10125
-7.16855
-7.23729
-7.30775
-7.38063
-7.45683
-7.5371
-7.62216
-7.71253
-6.81848
-6.73895
-6.7165
-6.75447
-6.81634
-6.87717
-6.93429
-6.99148
-7.0511
-7.11381
-7.17939
-7.24706
-7.3168
-7.38922
-7.46506
-7.54471
-7.62877
-7.7176
-6.70836
-6.70234
-6.72932
-6.77205
-6.82139
-6.87558
-6.93408
-6.9948
-7.05634
-7.11881
-7.18273
-7.2485
-7.31649
-7.38705
-7.46073
-7.53786
-7.61892
-7.70403
-6.65303
-6.73427
-6.79675
-6.83365
-6.86577
-6.90668
-6.95736
-7.01302
-7.06984
-7.12764
-7.18724
-7.24913
-7.31359
-7.38073
-7.4505
-7.52286
-7.59808
-7.67621
-6.93211
-6.86622
-6.83043
-6.83335
-6.86374
-6.90891
-6.95862
-7.00877
-7.05984
-7.11282
-7.16819
-7.22589
-7.28556
-7.34696
-7.41
-7.47474
-7.54124
-7.60949
-6.83434
-6.81694
-6.82871
-6.85074
-6.87898
-6.91659
-6.96059
-7.00643
-7.05298
-7.10086
-7.15024
-7.20071
-7.25181
-7.30332
-7.35531
-7.40777
-7.46072
-7.51393
-6.76119
-6.76607
-6.78528
-6.81215
-6.84615
-6.88679
-6.92993
-6.97264
-7.01497
-7.05795
-7.10191
-7.14635
-7.19065
-7.23443
-7.27764
-7.32036
-7.36256
-7.40397
-6.81503
-6.78989
-6.79387
-6.81548
-6.84762
-6.88661
-6.92699
-6.96631
-7.00534
-7.04466
-7.08366
-7.12176
-7.1588
-7.19481
-7.22975
-7.26345
-7.29574
-7.3265
-6.68744
-6.682
-6.7126
-6.75837
-6.80343
-6.84636
-6.88748
-6.92683
-6.9658
-7.00488
-7.04306
-7.07929
-7.11328
-7.14519
-7.1752
-7.20332
-7.22941
-7.25337
-6.62247
-6.67147
-6.72376
-6.76614
-6.80504
-6.84559
-6.88586
-6.92379
-6.9599
-6.99495
-7.0286
-7.06024
-7.08941
-7.11619
-7.1407
-7.16285
-7.18232
-7.19901
-6.55266
-6.57479
-6.6411
-6.71221
-6.76618
-6.80972
-6.85063
-6.89068
-6.92907
-6.96581
-7.00023
-7.03128
-7.05888
-7.08339
-7.10513
-7.1241
-7.14003
-7.15296
-6.56304
-6.56209
-6.63022
-6.71077
-6.77048
-6.8133
-6.85062
-6.88742
-6.92406
-6.95888
-6.9906
-7.01854
-7.04298
-7.0644
-7.08289
-7.09831
-7.11039
-7.11909
-6.3749
-6.4698
-6.58266
-6.67926
-6.7446
-6.78839
-6.82689
-6.8664
-6.90547
-6.9416
-6.97356
-7.00111
-7.02467
-7.04492
-7.06194
-7.07552
-7.08546
-7.09164
-6.31407
-6.43498
-6.57891
-6.6848
-6.74528
-6.78513
-6.82302
-6.86284
-6.90147
-6.93625
-6.96647
-6.9924
-7.01451
-7.03314
-7.04841
-7.06004
-7.06783
-7.07181
-6.22718
-6.38544
-6.56052
-6.67217
-6.72992
-6.76992
-6.81063
-6.85266
-6.89199
-6.92674
-6.95675
-6.98234
-7.00396
-7.02195
-7.0363
-7.04681
-7.05333
-7.05605
-6.08845
-6.35911
-6.5646
-6.67168
-6.72431
-6.76437
-6.80642
-6.84887
-6.88789
-6.92211
-6.95162
-6.97676
-6.99795
-7.01537
-7.02899
-7.03841
-7.04363
-7.04454
-5.9703
-6.33282
-6.56461
-6.66729
-6.71673
-6.75765
-6.80106
-6.844
-6.88286
-6.91662
-6.94567
-6.97039
-6.99122
-7.00822
-7.0214
-7.03023
-7.03479
-7.03437
-7.94167
-7.96086
-8.00663
-8.07504
-8.16507
-8.27587
-8.40683
-8.55738
-8.72682
-8.91417
-9.11795
-9.33639
-9.5673
-9.80823
-10.0562
-10.3085
-10.5625
-10.8172
-11.0723
-11.3282
-11.5859
-11.8493
-12.1285
-12.4423
-12.8146
-13.2744
-13.8357
-14.4956
-15.243
-16.0626
-16.9354
-17.8393
-18.7498
-19.6403
-20.4826
-21.2477
-21.9057
-22.4273
-22.7844
-22.9513
-22.9063
-22.6321
-22.1171
-21.3566
-20.3542
-19.1206
-17.6724
-16.0323
-14.2305
-12.3004
-10.2763
-8.19148
-6.07697
-3.96096
-1.86798
0.180766
2.16723
4.07581
5.89302
7.6076
9.2102
10.6942
12.0559
13.294
14.4099
15.4067
16.2884
17.06
17.7271
18.2955
18.7716
19.162
19.474
19.7149
19.8924
20.0143
20.089
20.1234
20.124
20.0971
20.0479
19.9811
19.9008
19.8103
19.7125
19.6097
19.5038
19.3963
19.2886
19.1814
19.0758
18.9722
18.8712
18.773
18.6781
18.5865
18.4985
18.414
18.3332
18.256
18.1825
18.1126
18.0462
17.9833
17.9237
17.8675
17.8145
17.7645
17.7175
17.6734
17.632
17.5933
17.5569
17.5229
17.491
17.4614
17.4337
17.408
17.3841
17.3619
17.3413
17.3222
17.3045
17.2882
17.2731
17.2592
17.2464
17.2347
17.2239
17.2139
17.2049
17.1966
17.189
17.1821
17.1758
17.1701
17.1649
17.1602
17.1561
17.1523
17.149
17.146
17.1434
17.1411
17.1391
17.1374
17.136
17.1348
17.1338
17.133
17.1325
17.1321
17.132
17.132
17.1323
17.1328
17.1336
17.1346
17.1359
17.1376
17.1397
17.1424
17.1456
17.1497
17.1547
17.161
17.1689
17.1788
17.1913
17.2074
17.2278
17.2547
17.289
17.3362
17.397
17.4852
17.602
17.7861
18.0412
18.4694
-7.91243
-7.93432
-7.9803
-8.04814
-8.13792
-8.24908
-8.38142
-8.53459
-8.70808
-8.90103
-9.11208
-9.33929
-9.58028
-9.83232
-10.0927
-10.3592
-10.6297
-10.9041
-11.1838
-11.4717
-11.7726
-12.0948
-12.4474
-12.8368
-13.2774
-13.7976
-14.4133
-15.1218
-15.912
-16.7683
-17.6718
-18.6008
-19.5315
-20.4381
-21.2931
-22.0676
-22.7316
-23.2551
-23.609
-23.7667
-23.7055
-23.4081
-22.8629
-22.0661
-21.0207
-19.7383
-18.239
-16.5507
-14.7038
-12.7313
-10.6674
-8.54594
-6.39861
-4.2539
-2.13619
-0.0660366
1.93934
3.86524
5.69895
7.42944
9.04733
10.5457
11.9206
13.1707
14.2977
15.3047
16.1961
16.9769
17.6526
18.2289
18.7122
19.1088
19.426
19.6713
19.8524
19.9774
20.0547
20.0912
20.0939
20.0688
20.0213
19.9562
19.8775
19.7885
19.6922
19.5908
19.4862
19.38
19.2734
19.1674
19.0628
18.9601
18.86
18.7627
18.6685
18.5776
18.4902
18.4063
18.326
18.2494
18.1763
18.1068
18.0408
17.9782
17.919
17.8631
17.8104
17.7607
17.7139
17.67
17.6287
17.5901
17.5539
17.52
17.4884
17.459
17.4315
17.406
17.3823
17.3602
17.3397
17.3208
17.3032
17.287
17.272
17.2582
17.2455
17.2338
17.2231
17.2132
17.2042
17.196
17.1884
17.1816
17.1753
17.1696
17.1645
17.1599
17.1557
17.152
17.1487
17.1457
17.1431
17.1408
17.1389
17.1372
17.1357
17.1345
17.1335
17.1328
17.1322
17.1319
17.1317
17.1318
17.1321
17.1326
17.1333
17.1343
17.1356
17.1373
17.1394
17.142
17.1452
17.1492
17.1541
17.1603
17.168
17.1777
17.1899
17.2056
17.2256
17.2515
17.2853
17.33
17.3898
17.4709
17.5842
17.7385
17.9537
18.1878
-7.86191
-7.88291
-7.92687
-7.99178
-8.07773
-8.18456
-8.31237
-8.4612
-8.63095
-8.82117
-9.03113
-9.25982
-9.50605
-9.76869
-10.0463
-10.3378
-10.643
-10.9634
-11.3008
-11.6581
-12.0404
-12.4566
-12.9162
-13.4265
-13.9956
-14.6321
-15.3407
-16.12
-16.9643
-17.8633
-18.8031
-19.7661
-20.731
-21.6727
-22.5634
-23.373
-24.07
-24.6229
-25.0008
-25.1748
-25.1196
-24.8153
-24.248
-23.4123
-22.3119
-20.9616
-19.3872
-17.617
-15.6841
-13.6248
-11.4771
-9.27807
-7.06169
-4.8573
-2.68887
-0.575615
1.46734
3.42755
5.29411
7.05686
8.70636
10.2349
11.6377
12.9133
14.0635
15.0919
16.0035
16.8034
17.497
18.09
18.588
18.9974
19.3255
19.5798
19.7683
19.8994
19.9819
20.023
20.0298
20.0085
19.9646
19.903
19.8276
19.7419
19.6487
19.5503
19.4486
19.345
19.241
19.1373
19.0349
18.9344
18.8361
18.7406
18.6481
18.5587
18.4727
18.3901
18.3111
18.2355
18.1635
18.0949
18.0298
17.9681
17.9097
17.8545
17.8024
17.7533
17.7071
17.6637
17.623
17.5849
17.5492
17.5158
17.4846
17.4555
17.4283
17.4031
17.3796
17.3577
17.3375
17.3187
17.3014
17.2853
17.2705
17.2569
17.2443
17.2327
17.2221
17.2123
17.2034
17.1952
17.1878
17.181
17.1748
17.1692
17.1641
17.1595
17.1554
17.1517
17.1484
17.1455
17.1429
17.1406
17.1387
17.137
17.1356
17.1344
17.1334
17.1326
17.1321
17.1318
17.1316
17.1317
17.1319
17.1324
17.1331
17.1341
17.1354
17.137
17.139
17.1415
17.1446
17.1485
17.1533
17.1593
17.1667
17.1761
17.1879
17.2029
17.2221
17.2468
17.279
17.3209
17.3771
17.4503
17.5512
17.6759
17.8409
17.9843
-7.84703
-7.8659
-7.90669
-7.9677
-8.04919
-8.15106
-8.27353
-8.41682
-8.58117
-8.76674
-8.97366
-9.20202
-9.45224
-9.72468
-10.0199
-10.3389
-10.6831
-11.0551
-11.4582
-11.8961
-12.3735
-12.8957
-13.4686
-14.0982
-14.7895
-15.5461
-16.3694
-17.2578
-18.2068
-19.2082
-20.2497
-21.3141
-22.3798
-23.4204
-24.4065
-25.306
-26.0853
-26.7101
-27.1455
-27.358
-27.3175
-27.0011
-26.3962
-25.5
-24.319
-22.8707
-21.1805
-19.2786
-17.2039
-15.0011
-12.7158
-10.3912
-8.06513
-5.76824
-3.5235
-1.34734
0.749112
2.7576
4.67096
6.48115
8.1788
9.75458
11.2017
12.5176
13.7043
14.7663
15.7093
16.539
17.2606
17.8793
18.4003
18.8297
19.1745
19.4425
19.6422
19.7829
19.8733
19.9214
19.9345
19.919
19.8807
19.8244
19.7541
19.6733
19.5849
19.4909
19.3935
19.294
19.1938
19.0937
18.9946
18.8971
18.8018
18.7089
18.6188
18.5317
18.4478
18.3672
18.2899
18.216
18.1454
18.0783
18.0145
17.9539
17.8966
17.8424
17.7912
17.743
17.6976
17.655
17.615
17.5775
17.5423
17.5095
17.4788
17.4501
17.4234
17.3985
17.3754
17.3539
17.334
17.3156
17.2985
17.2827
17.2681
17.2547
17.2423
17.2309
17.2204
17.2108
17.202
17.194
17.1866
17.1799
17.1738
17.1683
17.1633
17.1588
17.1547
17.1511
17.1479
17.145
17.1424
17.1402
17.1383
17.1366
17.1352
17.134
17.1331
17.1324
17.1318
17.1315
17.1313
17.1314
17.1316
17.1321
17.1328
17.1337
17.135
17.1365
17.1385
17.1409
17.1439
17.1476
17.1521
17.1578
17.1649
17.1738
17.185
17.1991
17.2172
17.2403
17.2704
17.3087
17.3598
17.4242
17.5096
17.609
17.7286
17.8112
-7.90976
-7.92691
-7.96489
-8.02203
-8.09886
-8.19556
-8.3127
-8.45095
-8.61129
-8.79476
-9.00237
-9.23529
-9.49496
-9.78304
-10.1015
-10.4526
-10.8391
-11.2645
-11.7325
-12.2476
-12.8141
-13.4368
-14.1203
-14.8694
-15.6891
-16.583
-17.5531
-18.5982
-19.7133
-20.8878
-22.1056
-23.3457
-24.5827
-25.7877
-26.9288
-27.9712
-28.8776
-29.609
-30.1262
-30.391
-30.3708
-30.0417
-29.3925
-28.4196
-27.1286
-25.5309
-23.6508
-21.5368
-19.2441
-16.8289
-14.3454
-11.8439
-9.36683
-6.94696
-4.60588
-2.35525
-0.19948
1.86076
3.8252
5.69049
7.44857
9.08757
10.5964
11.9692
13.2071
14.3159
15.3027
16.1741
16.9353
17.5906
18.1443
18.6019
18.9704
19.2575
19.4727
19.6264
19.7276
19.7852
19.8069
19.7995
19.7687
19.7196
19.6562
19.582
19.4997
19.4118
19.32
19.2259
19.1307
19.0354
18.9407
18.8474
18.7558
18.6665
18.5797
18.4956
18.4145
18.3364
18.2615
18.1898
18.1213
18.056
17.9939
17.9349
17.8791
17.8262
17.7763
17.7293
17.685
17.6434
17.6043
17.5676
17.5333
17.5012
17.4711
17.4431
17.417
17.3927
17.3701
17.3491
17.3296
17.3115
17.2948
17.2793
17.2651
17.2519
17.2397
17.2286
17.2183
17.2089
17.2003
17.1924
17.1852
17.1786
17.1727
17.1672
17.1623
17.1579
17.154
17.1504
17.1472
17.1444
17.1419
17.1397
17.1378
17.1362
17.1348
17.1337
17.1328
17.132
17.1315
17.1312
17.131
17.1311
17.1313
17.1318
17.1324
17.1333
17.1345
17.136
17.1378
17.1401
17.1429
17.1464
17.1507
17.156
17.1627
17.171
17.1814
17.1945
17.2113
17.2324
17.2597
17.2941
17.3389
17.3938
17.4635
17.5392
17.6204
17.6595
-8.06601
-8.08222
-8.11858
-8.17346
-8.24767
-8.34162
-8.45629
-8.59283
-8.75273
-8.93768
-9.14966
-9.3909
-9.66388
-9.97134
-10.3163
-10.7021
-11.1325
-11.6116
-12.1441
-12.735
-13.3899
-14.1148
-14.9165
-15.8018
-16.7778
-17.8495
-19.0186
-20.2813
-21.627
-23.0386
-24.4933
-25.9639
-27.4206
-28.8311
-30.16
-31.369
-32.4183
-33.2666
-33.8735
-34.1997
-34.2092
-33.8716
-33.1601
-32.0616
-30.5809
-28.7464
-26.609
-24.2267
-21.6628
-18.9825
-16.2498
-13.5243
-10.8564
-8.28375
-5.82794
-3.49599
-1.28443
0.815887
2.81582
4.72288
6.53561
8.24149
9.82261
11.2655
12.5676
13.7352
14.7772
15.7017
16.514
17.2175
17.815
18.3106
18.7107
19.0233
19.259
19.4294
19.5447
19.6147
19.6476
19.6506
19.6297
19.5899
19.5353
19.4694
19.395
19.3145
19.2297
19.1422
19.0532
18.9637
18.8744
18.7862
18.6993
18.6144
18.5316
18.4513
18.3736
18.2987
18.2267
18.1577
18.0917
18.0287
17.9687
17.9117
17.8577
17.8065
17.7581
17.7125
17.6696
17.6292
17.5912
17.5556
17.5222
17.491
17.4619
17.4346
17.4092
17.3856
17.3635
17.3431
17.3241
17.3065
17.2902
17.2752
17.2612
17.2484
17.2366
17.2257
17.2157
17.2065
17.1981
17.1904
17.1834
17.177
17.1712
17.1659
17.1611
17.1568
17.1529
17.1495
17.1464
17.1436
17.1412
17.1391
17.1373
17.1357
17.1343
17.1332
17.1323
17.1316
17.1311
17.1308
17.1306
17.1307
17.1309
17.1313
17.132
17.1328
17.1339
17.1353
17.137
17.1392
17.1418
17.145
17.149
17.1539
17.1601
17.1677
17.1772
17.1891
17.2042
17.2231
17.2472
17.2772
17.3152
17.3604
17.4146
17.4693
17.5189
17.5281
-8.29792
-8.3138
-8.34981
-8.40419
-8.47817
-8.57238
-8.68823
-8.82727
-8.99144
-9.183
-9.40464
-9.65939
-9.95051
-10.2817
-10.6569
-11.0807
-11.558
-12.0939
-12.6946
-13.3669
-14.1192
-14.9613
-15.9044
-16.9599
-18.1372
-19.4408
-20.8677
-22.4053
-24.0322
-25.7202
-27.437
-29.1496
-30.8259
-32.4347
-33.9443
-35.321
-36.5281
-37.5239
-38.2616
-38.6902
-38.7568
-38.4094
-37.6086
-36.346
-34.6442
-32.5518
-30.1217
-27.4155
-24.5095
-21.487
-18.4298
-15.4113
-12.4927
-9.71869
-7.11376
-4.68088
-2.40673
-0.270727
1.74987
3.67614
5.51932
7.27452
8.92092
10.4349
11.8061
13.0384
14.1422
15.1273
15.9995
16.7608
17.4118
17.9545
18.3938
18.7382
18.9999
19.1911
19.324
19.4093
19.4562
19.4723
19.4637
19.4355
19.3918
19.3361
19.2712
19.1996
19.1231
19.0433
18.9616
18.8789
18.796
18.7137
18.6324
18.5525
18.4746
18.3987
18.3251
18.2539
18.1854
18.1196
18.0566
17.9963
17.9388
17.8842
17.8322
17.7831
17.7366
17.6927
17.6513
17.6123
17.5757
17.5414
17.5092
17.479
17.4508
17.4245
17.4
17.3771
17.3558
17.336
17.3176
17.3006
17.2848
17.2702
17.2567
17.2443
17.2328
17.2222
17.2126
17.2037
17.1955
17.1881
17.1813
17.1751
17.1694
17.1643
17.1597
17.1555
17.1518
17.1484
17.1454
17.1428
17.1404
17.1384
17.1366
17.1351
17.1338
17.1327
17.1318
17.1312
17.1307
17.1304
17.1302
17.1302
17.1305
17.1308
17.1314
17.1322
17.1332
17.1345
17.1361
17.1381
17.1405
17.1435
17.1471
17.1516
17.1571
17.1639
17.1724
17.1829
17.1962
17.2127
17.2333
17.2586
17.2895
17.3251
17.3648
17.401
17.4255
17.4127
-8.57954
-8.59606
-8.63337
-8.68944
-8.76597
-8.86384
-8.98479
-9.1307
-9.30397
-9.50743
-9.74433
-10.0183
-10.3334
-10.6943
-11.1063
-11.5749
-12.1063
-12.7075
-13.3865
-14.1537
-15.0225
-16.0087
-17.13
-18.4016
-19.8326
-21.4211
-23.1518
-24.9967
-26.9189
-28.8785
-30.8381
-32.7667
-34.642
-36.4477
-38.1669
-39.776
-41.2376
-42.499
-43.4916
-44.1374
-44.3535
-44.0678
-43.2394
-41.855
-39.93
-37.5074
-34.6559
-31.4715
-28.0658
-24.5529
-21.0385
-17.6129
-14.3477
-11.2936
-8.47731
-5.89763
-3.53014
-1.34042
0.706293
2.64341
4.49797
6.27832
7.9688
9.53972
10.972
12.2654
13.4297
14.4763
15.4116
16.2355
16.9455
17.5403
18.0236
18.4047
18.6963
18.9122
19.0661
19.17
19.2339
19.2658
19.2719
19.2576
19.2268
19.1832
19.1296
19.0683
19.0014
18.9306
18.8571
18.7821
18.7064
18.6308
18.5557
18.4817
18.4092
18.3383
18.2694
18.2026
18.1381
18.0759
18.0163
17.9591
17.9046
17.8526
17.8031
17.7562
17.7118
17.6699
17.6303
17.593
17.558
17.525
17.4942
17.4652
17.4382
17.4129
17.3893
17.3673
17.3469
17.3278
17.3102
17.2938
17.2786
17.2645
17.2515
17.2395
17.2285
17.2183
17.209
17.2004
17.1925
17.1854
17.1788
17.1728
17.1674
17.1625
17.158
17.154
17.1504
17.1472
17.1443
17.1417
17.1395
17.1375
17.1358
17.1343
17.1331
17.1321
17.1313
17.1306
17.1301
17.1298
17.1297
17.1297
17.1299
17.1303
17.1308
17.1316
17.1325
17.1337
17.1351
17.1369
17.1391
17.1417
17.145
17.1489
17.1538
17.1597
17.1671
17.1762
17.1875
17.2013
17.2183
17.2386
17.2626
17.2888
17.3154
17.3356
17.3401
17.3101
-8.88042
-8.89873
-8.93946
-8.99988
-9.08233
-9.18781
-9.31841
-9.47636
-9.66455
-9.88625
-10.1452
-10.4457
-10.7929
-11.1926
-11.6512
-12.1758
-12.774
-13.4547
-14.2295
-15.1142
-16.129
-17.2976
-18.6428
-20.1802
-21.9115
-23.8203
-25.8723
-28.02
-30.2129
-32.4082
-34.5802
-36.7225
-38.8385
-40.9314
-42.9934
-44.9973
-46.8889
-48.5872
-49.9902
-50.9837
-51.4529
-51.2996
-50.451
-48.8741
-46.5909
-43.6774
-40.2412
-36.4165
-32.3533
-28.202
-24.0985
-20.1534
-16.4484
-13.0372
-9.94581
-7.16778
-4.66765
-2.3944
-0.298433
1.66368
3.53008
5.32181
7.03351
8.63659
10.1086
11.4473
12.6629
13.7681
14.768
15.6588
16.4309
17.0789
17.6076
18.0269
18.3506
18.5942
18.7725
18.8984
18.9825
19.0329
19.0563
19.0579
19.042
19.0122
18.9712
18.9218
18.8657
18.8049
18.7407
18.6742
18.6064
18.5381
18.47
18.4024
18.3359
18.2706
18.2069
18.1449
18.0848
18.0268
17.971
17.9173
17.866
17.817
17.7703
17.726
17.684
17.6442
17.6067
17.5713
17.538
17.5067
17.4773
17.4498
17.424
17.3999
17.3774
17.3564
17.3368
17.3186
17.3018
17.2861
17.2715
17.2581
17.2457
17.2342
17.2236
17.2139
17.2049
17.1967
17.1892
17.1823
17.176
17.1703
17.1651
17.1604
17.1561
17.1523
17.1488
17.1458
17.143
17.1406
17.1384
17.1366
17.1349
17.1335
17.1324
17.1314
17.1306
17.13
17.1296
17.1293
17.1292
17.1292
17.1294
17.1297
17.1302
17.1309
17.1317
17.1328
17.1341
17.1356
17.1376
17.1399
17.1427
17.146
17.1502
17.1552
17.1614
17.1689
17.1781
17.1892
17.2025
17.2179
17.2351
17.2524
17.2673
17.2735
17.2622
17.2185
-9.17105
-9.19299
-9.24003
-9.30813
-9.40065
-9.51863
-9.66447
-9.84076
-10.0508
-10.2983
-10.5877
-10.9243
-11.3145
-11.7655
-12.2849
-12.8814
-13.5644
-14.3461
-15.2432
-16.278
-17.4786
-18.8743
-20.4886
-22.3297
-24.3841
-26.6156
-28.9688
-31.3833
-33.8113
-36.2309
-38.6473
-41.0847
-43.5726
-46.1257
-48.7255
-51.3157
-53.8034
-56.0645
-57.9523
-59.3087
-59.9837
-59.851
-58.8287
-56.9017
-54.1247
-50.6035
-46.473
-41.9003
-37.0753
-32.1889
-27.4127
-22.8815
-18.6856
-14.877
-11.477
-8.47352
-5.81773
-3.44191
-1.28039
0.721566
2.61024
4.41652
6.13896
7.75385
9.24065
10.6009
11.8516
13.009
14.0758
15.039
15.8771
16.5809
17.1551
17.612
17.9684
18.2414
18.4468
18.5977
18.7048
18.7766
18.8197
18.8392
18.8398
18.8251
18.7982
18.7616
18.7174
18.6675
18.6133
18.5561
18.497
18.4367
18.376
18.3154
18.2553
18.1961
18.138
18.0813
18.0261
17.9726
17.921
17.8712
17.8235
17.7778
17.7341
17.6926
17.6532
17.6159
17.5806
17.5473
17.5159
17.4864
17.4586
17.4326
17.4083
17.3854
17.3641
17.3443
17.3257
17.3085
17.2925
17.2776
17.2638
17.251
17.2392
17.2283
17.2182
17.2089
17.2004
17.1926
17.1855
17.1789
17.1729
17.1675
17.1626
17.1581
17.154
17.1504
17.1471
17.1442
17.1416
17.1393
17.1373
17.1355
17.134
17.1326
17.1315
17.1306
17.1299
17.1293
17.1289
17.1287
17.1286
17.1286
17.1288
17.1291
17.1295
17.1301
17.1309
17.1318
17.1329
17.1343
17.1359
17.1379
17.1402
17.143
17.1464
17.1504
17.1554
17.1613
17.1683
17.1766
17.1862
17.1967
17.2074
17.2166
17.2211
17.2153
17.1911
17.1366
-9.4251
-9.45349
-9.5103
-9.59023
-9.69801
-9.83424
-10.0018
-10.2037
-10.4437
-10.7265
-11.0575
-11.4431
-11.8908
-12.4091
-13.0077
-13.6975
-14.4918
-15.4072
-16.4653
-17.6933
-19.1224
-20.7815
-22.6879
-24.8361
-27.1962
-29.7149
-32.3293
-34.9879
-37.6654
-40.369
-43.1345
-46.0082
-49.0249
-52.1851
-55.4343
-58.6691
-61.7427
-64.4838
-66.7141
-68.2634
-68.9779
-68.731
-67.4418
-65.0994
-61.7677
-57.5701
-52.6793
-47.3057
-41.6837
-36.0463
-30.5993
-25.4962
-20.8312
-16.6492
-12.9626
-9.75289
-6.95237
-4.47693
-2.2506
-0.20671
1.70797
3.53345
5.26704
6.88888
8.38286
9.75836
11.0352
12.2352
13.3624
14.3952
15.2999
16.0597
16.6781
17.171
17.5591
17.8618
18.0954
18.2731
18.4054
18.5005
18.565
18.6042
18.6226
18.6242
18.6122
18.5893
18.5578
18.5196
18.4762
18.4289
18.379
18.3272
18.2744
18.2212
18.168
18.1153
18.0633
18.0122
17.9623
17.9137
17.8666
17.821
17.7771
17.735
17.6947
17.6563
17.6197
17.585
17.5522
17.5211
17.4918
17.4642
17.4383
17.4139
17.3911
17.3697
17.3497
17.331
17.3136
17.2974
17.2823
17.2683
17.2553
17.2432
17.2321
17.2218
17.2123
17.2036
17.1955
17.1882
17.1814
17.1752
17.1696
17.1644
17.1598
17.1556
17.1517
17.1483
17.1452
17.1425
17.14
17.1379
17.136
17.1343
17.1329
17.1317
17.1306
17.1298
17.1291
17.1286
17.1282
17.128
17.1279
17.128
17.1281
17.1284
17.1288
17.1293
17.13
17.1307
17.1317
17.1328
17.1342
17.1357
17.1376
17.1398
17.1424
17.1455
17.1491
17.1533
17.1582
17.1637
17.1696
17.1754
17.1801
17.1817
17.177
17.161
17.1262
17.063
-9.62107
-9.65899
-9.73004
-9.82778
-9.95717
-10.1185
-10.3157
-10.5522
-10.8329
-11.1632
-11.5496
-11.9997
-12.5228
-13.1303
-13.8353
-14.6527
-15.5988
-16.6919
-17.9536
-19.4097
-21.0877
-23.0105
-25.1869
-27.602
-30.2205
-32.9913
-35.8603
-38.7936
-41.7848
-44.8611
-48.0677
-51.4444
-55.0031
-58.7063
-62.4529
-66.104
-69.4896
-72.4292
-74.7466
-76.2768
-76.8682
-76.3871
-74.7439
-71.9302
-68.0287
-63.1884
-57.6185
-51.5643
-45.2937
-39.0684
-33.1177
-27.5926
-22.5892
-18.148
-14.2711
-10.9249
-8.02332
-5.47334
-3.19445
-1.11654
0.823933
2.67008
4.42271
6.06052
7.5713
8.96947
10.2768
11.5137
12.6856
13.77
14.7272
15.5334
16.1902
16.7159
17.1341
17.4658
17.7276
17.9323
18.0902
18.2093
18.296
18.3557
18.3927
18.4114
18.415
18.4066
18.3884
18.3624
18.3303
18.2935
18.2532
18.2105
18.1661
18.1207
18.0748
18.0289
17.9832
17.9381
17.8938
17.8504
17.808
17.767
17.7272
17.689
17.6522
17.6171
17.5836
17.5518
17.5215
17.4929
17.4659
17.4404
17.4164
17.3938
17.3726
17.3527
17.3341
17.3168
17.3005
17.2854
17.2713
17.2582
17.2461
17.2348
17.2244
17.2148
17.2059
17.1977
17.1902
17.1833
17.177
17.1712
17.1659
17.1611
17.1568
17.1528
17.1493
17.1461
17.1432
17.1406
17.1383
17.1363
17.1346
17.1331
17.1317
17.1306
17.1297
17.1289
17.1283
17.1278
17.1275
17.1273
17.1272
17.1273
17.1274
17.1277
17.128
17.1285
17.129
17.1297
17.1304
17.1313
17.1324
17.1336
17.135
17.1365
17.1383
17.1404
17.1427
17.1453
17.148
17.1508
17.1531
17.1544
17.1535
17.1482
17.1355
17.1105
17.067
16.9968
-9.74315
-9.79333
-9.88526
-10.008
-10.1661
-10.3613
-10.5979
-10.8805
-11.2149
-11.6078
-12.0676
-12.6049
-13.2324
-13.9651
-14.8186
-15.8081
-16.9483
-18.2537
-19.7404
-21.4279
-23.3378
-25.4884
-27.8871
-30.5225
-33.367
-36.3796
-39.5171
-42.7513
-46.0731
-49.4964
-53.0465
-56.7378
-60.5551
-64.4453
-68.2998
-71.9843
-75.3372
-78.1824
-80.339
-81.6328
-81.9109
-81.0536
-78.9948
-75.7481
-71.4117
-66.1439
-60.1734
-53.7593
-47.1817
-40.7031
-34.55
-28.871
-23.7526
-19.2305
-15.2973
-11.9058
-8.9677
-6.38665
-4.08081
-1.97778
-0.00987995
1.86643
3.65124
5.31882
6.85649
8.27722
9.60502
10.8645
12.0649
13.1834
14.1755
15.014
15.7007
16.2553
16.7021
17.062
17.3514
17.5826
17.7654
17.9079
18.0164
18.0964
18.1524
18.1884
18.2081
18.2144
18.2099
18.1967
18.1763
18.1505
18.1203
18.087
18.0514
18.0143
17.9761
17.9373
17.8984
17.8595
17.821
17.783
17.7458
17.7094
17.6741
17.6399
17.607
17.5754
17.5451
17.5163
17.4889
17.4628
17.4382
17.4149
17.393
17.3723
17.3529
17.3346
17.3175
17.3015
17.2866
17.2726
17.2596
17.2475
17.2363
17.2259
17.2162
17.2073
17.1991
17.1915
17.1845
17.1781
17.1723
17.1669
17.162
17.1576
17.1536
17.1499
17.1466
17.1436
17.141
17.1386
17.1365
17.1347
17.1331
17.1317
17.1305
17.1295
17.1286
17.128
17.1274
17.127
17.1267
17.1266
17.1265
17.1265
17.1267
17.1269
17.1272
17.1276
17.128
17.1286
17.1292
17.1298
17.1306
17.1314
17.1322
17.1332
17.1342
17.1352
17.1362
17.1372
17.1378
17.1379
17.1369
17.134
17.1278
17.1163
17.0965
17.0639
17.0131
16.9372
-9.78204
-9.84726
-9.96803
-10.124
-10.3206
-10.5606
-10.8493
-11.1926
-11.5989
-12.0782
-12.6427
-13.3054
-14.0808
-14.9834
-16.0267
-17.2219
-18.5785
-20.1047
-21.8093
-23.7049
-25.8087
-28.1385
-30.7055
-33.5066
-36.5216
-39.7141
-43.0373
-46.4477
-49.9126
-53.4198
-56.9765
-60.5914
-64.2522
-67.9153
-71.4906
-74.8542
-77.8505
-80.3086
-82.0543
-82.9266
-82.7994
-81.5827
-79.2355
-75.7832
-71.3145
-65.9821
-59.999
-53.6256
-47.1356
-40.7813
-34.7666
-29.2264
-24.2353
-19.8234
-15.9785
-12.6447
-9.73807
-7.17115
-4.86445
-2.74336
-0.741659
1.17539
2.99751
4.69357
6.24694
7.66926
8.99654
10.2679
11.4925
12.6376
13.6521
14.5105
15.2184
15.797
16.2697
16.6563
16.9719
17.2282
17.4348
17.5996
17.7291
17.8288
17.9033
17.9567
17.9924
18.0138
18.0233
18.0231
18.015
18.0005
17.9809
17.9575
17.9311
17.9025
17.8724
17.8412
17.8092
17.7769
17.7444
17.7121
17.6802
17.6488
17.618
17.5881
17.5592
17.5312
17.5044
17.4788
17.4543
17.431
17.4089
17.388
17.3682
17.3495
17.332
17.3154
17.2999
17.2854
17.2717
17.259
17.2472
17.2361
17.2259
17.2164
17.2075
17.1994
17.1918
17.1849
17.1785
17.1726
17.1673
17.1624
17.1579
17.1538
17.1501
17.1468
17.1438
17.1411
17.1387
17.1365
17.1346
17.133
17.1315
17.1303
17.1292
17.1283
17.1275
17.1269
17.1265
17.1261
17.1259
17.1258
17.1257
17.1258
17.1259
17.1261
17.1264
17.1267
17.127
17.1274
17.1278
17.1283
17.1287
17.1291
17.1295
17.1299
17.1301
17.1301
17.1298
17.1291
17.1277
17.1252
17.121
17.1142
17.1033
17.0862
17.0601
17.0211
16.9642
16.8836
-9.74865
-9.82722
-9.98192
-10.1805
-10.4269
-10.7248
-11.0824
-11.51
-12.0207
-12.6273
-13.3417
-14.1752
-15.139
-16.2436
-17.4977
-18.906
-20.47
-22.1893
-24.0661
-26.1083
-28.3302
-30.7472
-33.3683
-36.1885
-39.1857
-42.322
-45.5464
-48.8064
-52.0618
-55.2948
-58.5064
-61.71
-64.8981
-68.0352
-71.0466
-73.8288
-76.2431
-78.1406
-79.373
-79.8085
-79.3468
-77.9215
-75.5051
-72.1212
-67.8467
-62.814
-57.2119
-51.2806
-45.2716
-39.4062
-33.8525
-28.7213
-24.0764
-19.9447
-16.312
-13.1232
-10.3053
-7.78703
-5.49718
-3.36321
-1.32785
0.624659
2.46867
4.1692
5.71545
7.12898
8.45721
9.74369
10.9881
12.1461
13.1671
14.0329
14.7536
15.3505
15.8447
16.2542
16.5932
16.8724
17.101
17.2866
17.436
17.5546
17.6471
17.7175
17.7693
17.8058
17.8294
17.8426
17.8469
17.8441
17.8355
17.8222
17.8054
17.7858
17.7641
17.7407
17.7161
17.6905
17.6644
17.638
17.6115
17.5852
17.5593
17.5338
17.509
17.485
17.4617
17.4394
17.418
17.3976
17.3782
17.3597
17.3422
17.3256
17.31
17.2953
17.2814
17.2684
17.2562
17.2448
17.2341
17.2242
17.2149
17.2063
17.1984
17.191
17.1842
17.1779
17.1721
17.1668
17.162
17.1576
17.1535
17.1498
17.1465
17.1435
17.1408
17.1384
17.1362
17.1343
17.1326
17.1311
17.1298
17.1287
17.1278
17.127
17.1264
17.1259
17.1255
17.1252
17.1251
17.125
17.125
17.125
17.1251
17.1253
17.1255
17.1258
17.126
17.1263
17.1265
17.1267
17.1269
17.1269
17.1268
17.1265
17.126
17.125
17.1235
17.1213
17.1179
17.113
17.1058
17.0953
17.0801
17.0581
17.0265
16.9819
16.9198
16.8353
-9.6783
-9.76027
-9.94263
-10.1921
-10.504
-10.8832
-11.344
-11.9018
-12.57
-13.3564
-14.2656
-15.3027
-16.4722
-17.7757
-19.2111
-20.7756
-22.4653
-24.2758
-26.2033
-28.2467
-30.4073
-32.6881
-35.09
-37.6148
-40.2515
-42.9845
-45.7843
-48.6096
-51.4226
-54.1907
-56.8971
-59.5339
-62.091
-64.5431
-66.8413
-68.9126
-70.6591
-71.9686
-72.7269
-72.8301
-72.1943
-70.7628
-68.5126
-65.4624
-61.6781
-57.2685
-52.3931
-47.2529
-42.052
-36.9614
-32.1077
-27.5787
-23.4321
-19.6941
-16.3518
-13.3608
-10.6669
-8.21683
-5.95297
-3.81662
-1.76838
0.191474
2.03249
3.72253
5.25839
6.67031
8.00818
9.30637
10.5534
11.7029
12.7135
13.5761
14.3031
14.9129
15.4239
15.852
16.2106
16.5101
16.7588
16.9641
17.1324
17.2694
17.3797
17.4671
17.5351
17.5868
17.625
17.6519
17.6692
17.6786
17.6815
17.6791
17.6724
17.6623
17.6494
17.6343
17.6174
17.5991
17.5797
17.5595
17.5388
17.5179
17.497
17.4762
17.4558
17.4358
17.4164
17.3976
17.3795
17.3622
17.3455
17.3297
17.3146
17.3002
17.2867
17.2738
17.2617
17.2503
17.2396
17.2296
17.2202
17.2115
17.2033
17.1957
17.1886
17.1821
17.1761
17.1705
17.1654
17.1607
17.1564
17.1524
17.1489
17.1456
17.1427
17.14
17.1376
17.1355
17.1336
17.1319
17.1304
17.1292
17.1281
17.1271
17.1263
17.1257
17.1252
17.1248
17.1245
17.1243
17.1242
17.1241
17.1241
17.1242
17.1243
17.1245
17.1247
17.1249
17.125
17.1252
17.1252
17.1252
17.1251
17.1247
17.1242
17.1233
17.122
17.1201
17.1174
17.1137
17.1085
17.1013
17.0913
17.0775
17.0584
17.0319
16.9956
16.9462
16.8797
16.792
-9.57318
-9.65234
-9.86857
-10.185
-10.5913
-11.0912
-11.7017
-12.4344
-13.292
-14.27
-15.3598
-16.5518
-17.838
-19.211
-20.6664
-22.1981
-23.7992
-25.4577
-27.167
-28.9214
-30.7289
-32.5968
-34.541
-36.5736
-38.7011
-40.918
-43.2051
-45.5303
-47.8547
-50.1376
-52.3461
-54.4588
-56.4612
-58.3352
-60.0494
-61.555
-62.7868
-63.6668
-64.112
-64.0442
-63.3984
-62.1298
-60.2202
-57.6857
-54.5772
-50.9648
-46.9696
-42.7467
-38.4449
-34.1854
-30.0645
-26.1596
-22.5263
-19.1898
-16.1421
-13.3534
-10.7888
-8.41343
-6.18878
-4.07513
-2.04808
-0.111597
1.70703
3.38126
4.91333
6.3332
7.68041
8.97542
10.2025
11.3245
12.3133
13.1654
13.8917
14.5076
15.0286
15.4695
15.843
16.159
16.4249
16.6476
16.8331
16.987
17.1138
17.2173
17.3008
17.3674
17.4197
17.46
17.4901
17.5116
17.526
17.5344
17.5378
17.5372
17.5332
17.5264
17.5172
17.5062
17.4935
17.4796
17.4648
17.4493
17.4335