/*--------------------------------*- C++ -*----------------------------------*\
  =========                 |
  \\      /  F ield         | OpenFOAM: The Open Source CFD Toolbox
   \\    /   O peration     | Website:  https://openfoam.org
    \\  /    A nd           | Version:  9
     \\/     M anipulation  |
\*---------------------------------------------------------------------------*/
FoamFile
{
    format      ascii;
    class       volScalarField;
    location    "0.016";
    object      pPrime2Mean;
}
// * * * * * * * * * * * * * * * * * * * * * * * * * * * * * * * * * * * * * //

dimensions      [0 4 -4 0 0 0 0];

internalField   nonuniform List<scalar> 
12225
(
313373
310264
306640
302763
298759
294708
290664
286658
282708
278824
275004
271242
267524
263826
260113
256325
252341
247888
313411
310294
306662
302780
298773
294721
290675
286668
282718
278834
275015
271256
267541
263849
260147
256378
252448
248173
313538
310361
306711
302819
298805
294747
290699
286690
282740
278857
275041
271286
267579
263900
260219
256493
252658
248651
313736
310471
306793
302884
298857
294792
290738
286727
282777
278896
275085
271337
267643
263983
260337
256672
252960
249215
313926
310629
306914
302980
298935
294858
290796
286781
282831
278952
275148
271411
267734
264103
260501
256913
253336
249820
314219
310842
307080
303111
299042
294948
290876
286856
282905
279030
275234
271512
267857
264261
260713
257211
253769
250448
314583
311122
307296
303284
299184
295068
290982
286955
283002
279132
275346
271642
268015
264460
260974
257562
254248
251087
315040
311478
307579
303508
299365
295221
291117
287081
283126
279261
275487
271805
268210
264701
261281
257959
254762
251734
315604
311922
307926
303783
299591
295412
291286
287237
283280
279420
275661
272002
268443
264984
261631
258396
255303
252387
316276
312470
308358
304126
299869
295645
291491
287427
283466
279613
275870
272237
268716
265309
262022
258869
255868
253044
317095
313129
308876
304537
300203
295927
291739
287656
283689
279842
276115
272510
269028
265672
262450
259371
256451
253706
318051
313867
309446
304988
300566
296230
292004
287902
283928
280085
276374
272795
269349
266040
262872
259856
257000
254316
319180
314709
310091
305492
300973
296572
292305
288180
284197
280358
276661
273108
269696
266430
263314
260353
257555
254923
320678
315852
310952
306157
301505
297016
292694
288537
284542
280706
277026
273500
270127
266908
263845
260940
258197
255617
322738
317320
312045
307001
302183
297583
293190
288993
284981
281147
277483
273986
270653
267482
264471
261622
258933
256402
325607
319261
313439
308058
303023
298285
293807
289560
285527
281693
278046
274578
271284
268159
265199
262401
259762
257276
328705
321465
315037
309278
304002
299111
294538
290238
286182
282346
278714
275275
272018
268936
266023
263272
260678
258232
331828
323632
316635
310520
305022
299992
295335
290991
286918
283085
279471
276060
272839
269798
266926
264216
261660
259249
333989
325025
317712
311436
305844
300761
296080
291729
287664
283850
280264
276886
273702
270699
267866
265192
262670
260289
332056
324264
317476
311473
306045
301071
296465
292173
288156
284384
280837
277496
274346
271374
268571
265924
263425
261066
329695
322970
316789
311146
305943
301113
296606
292387
288426
284698
281186
277876
274752
271805
269022
266393
263910
261564
327752
321703
316014
310705
305722
301041
296638
292492
288584
284898
281419
278135
275034
272105
269338
266723
264252
261916
326052
320620
315322
310278
305480
300928
296616
292535
288674
285023
281572
278310
275227
272313
269558
266954
264491
262163
324871
319750
314742
309915
305269
300818
296578
292549
288725
285103
281674
278429
275359
272456
269710
267113
264657
262334
323855
319045
314287
309629
305095
300725
296540
292549
288754
285153
281740
278507
275448
272552
269813
267222
264771
262451
322853
318493
313952
309419
304969
300655
296509
292546
288771
285185
281783
278559
275506
272617
269882
267295
264846
262529
322143
318094
313715
309274
304882
300606
296486
292541
288780
285204
281809
278591
275543
272658
269926
267341
264895
262579
321690
317841
313567
309183
304826
300575
296471
292538
288785
285215
281825
278611
275566
272682
269953
267369
264924
262609
321430
317698
313484
309133
304796
300557
296463
292536
288788
285221
281834
278622
275578
272696
269967
267385
264940
262626
321275
317638
313450
309112
304783
300550
296459
292535
288789
285224
281837
278626
275583
272701
269973
267391
264946
262632
209751
209734
209700
209649
209579
209492
209386
209261
209118
208955
208773
208572
208351
208110
207849
207568
207268
206948
206607
206247
205868
205468
205049
204610
204152
203672
203171
202651
202111
201552
200975
200380
199770
199145
198506
197854
197192
196520
195838
195147
194447
193738
193017
192284
191536
190772
189989
189186
188360
187512
186641
185747
184831
183894
182936
181960
180966
179957
178934
177899
176853
175796
174731
173658
172578
171490
170397
169297
168192
167081
165964
164842
163715
162582
161443
160299
159149
157993
156831
155662
154488
153307
152119
150926
149726
148521
147309
146091
144867
143637
142402
141161
139914
138662
137405
136143
134875
133603
132326
131044
129757
128466
127171
125872
124568
123260
121949
120634
119315
117993
116667
115338
114006
112671
111333
109993
108650
107304
105957
104607
103255
101901
100546
99188.6
97830.1
96470.3
95109.4
93747.5
92384.7
91021.3
89657.5
88293.3
86929
85564.7
84200.6
82837
81473.9
80111.6
78750.2
77390
76031.2
74673.9
73318.4
71965
70613.6
69264.8
67918.5
66575.1
65234.8
63897.8
62564.3
61234.7
59909.2
58588
57271.3
55959.6
54653
53351.8
52056.4
50767
49483.9
48207.4
46938
45675.8
44421.4
43174.9
41936.9
40707.6
39487.7
38277.3
37077.2
35887.8
34709.7
33543.7
32390.5
31251.1
30127
29019.9
27933.7
26875.8
209827
209810
209776
209724
209654
209566
209459
209334
209190
209026
208843
208641
208418
208176
207914
207632
207330
207008
206666
206303
205921
205519
205098
204656
204194
203712
203209
202686
202143
201582
201003
200406
199794
199166
198526
197873
197210
196537
195855
195164
194465
193756
193036
192303
191556
190793
190010
189207
188382
187534
186663
185768
184852
183913
182955
181978
180984
179974
178950
177914
176867
175810
174744
173670
172589
171501
170407
169307
168200
167089
165972
164849
163721
162588
161449
160304
159154
157997
156835
155666
154491
153310
152123
150929
149729
148523
147311
146093
144869
143639
142404
141162
139916
138664
137406
136144
134876
133604
132327
131045
129758
128467
127172
125872
124569
123261
121949
120634
119315
117993
116667
115338
114006
112671
111334
109993
108650
107305
105957
104607
103255
101901
100546
99188.7
97830.2
96470.4
95109.4
93747.5
92384.8
91021.4
89657.5
88293.3
86929
85564.7
84200.7
82837
81473.9
80111.6
78750.2
77390
76031.2
74673.9
73318.5
71965
70613.7
69264.8
67918.5
66575.1
65234.8
63897.8
62564.3
61234.7
59909.2
58588
57271.4
55959.6
54653
53351.8
52056.4
50767
49483.9
48207.4
46938
45675.8
44421.3
43174.9
41936.8
40707.6
39487.6
38277.2
37077.1
35887.6
34709.5
33543.3
32390
31250.4
30126
29018.6
27931.4
26870.9
209979
209962
209927
209875
209804
209715
209607
209481
209335
209169
208984
208780
208555
208310
208046
207761
207455
207130
206784
206417
206031
205624
205197
204750
204282
203795
203287
202759
202212
201647
201063
200462
199845
199214
198569
197913
197247
196571
195888
195196
194496
193788
193069
192339
191594
190832
190051
189249
188425
187577
186705
185810
184892
183953
182993
182015
181019
180008
178983
177945
176896
175838
174770
173695
172612
171523
170427
169325
168218
167105
165986
164863
163734
162599
161459
160314
159163
158006
156843
155674
154498
153317
152129
150935
149735
148528
147316
146097
144873
143643
142407
141166
139919
138667
137409
136146
134879
133606
132328
131046
129760
128469
127173
125873
124570
123262
121950
120635
119316
117994
116668
115339
114007
112672
111334
109994
108650
107305
105957
104607
103255
101901
100546
99188.9
97830.3
96470.5
95109.6
93747.6
92384.9
91021.5
89657.6
88293.4
86929.1
85564.8
84200.7
82837
81473.9
80111.6
78750.2
77390
76031.2
74674
73318.5
71965
70613.7
69264.8
67918.5
66575.1
65234.8
63897.8
62564.3
61234.7
59909.2
58588
57271.4
55959.6
54653
53351.8
52056.4
50766.9
49483.8
48207.4
46937.9
45675.7
44421.2
43174.8
41936.7
40707.4
39487.3
38276.9
37076.7
35887.2
34708.9
33542.5
32388.9
31249
30124
29015.8
27926.7
26861
210208
210190
210155
210101
210029
209939
209829
209700
209552
209384
209196
208988
208759
208511
208242
207952
207642
207311
206960
206588
206195
205782
205348
204894
204419
203924
203409
202874
202319
201746
201154
200546
199921
199283
198631
197969
197297
196618
195931
195238
194538
193831
193115
192388
191646
190888
190110
189310
188487
187640
186767
185871
184952
184011
183049
182069
181072
180059
179032
177992
176941
175880
174810
173732
172647
171556
170458
169354
168244
167129
166009
164883
163752
162617
161476
160329
159177
158019
156855
155685
154509
153327
152138
150944
149743
148536
147323
146104
144879
143649
142412
141171
139923
138671
137413
136150
134882
133609
132331
131049
129762
128471
127175
125875
124571
123264
121952
120636
119317
117995
116669
115340
114008
112673
111335
109994
108651
107305
105958
104608
103256
101902
100546
99189.1
97830.6
96470.7
95109.7
93747.8
92385
91021.6
89657.7
88293.5
86929.1
85564.8
84200.8
82837.1
81474
80111.6
78750.3
77390.1
76031.2
74674
73318.5
71965
70613.7
69264.8
67918.5
66575.1
65234.8
63897.8
62564.4
61234.7
59909.2
58588
57271.4
55959.6
54653
53351.8
52056.3
50766.9
49483.8
48207.3
46937.8
45675.7
44421.1
43174.6
41936.5
40707.1
39487
38276.5
37076.2
35886.5
34708
33541.4
32387.4
31246.9
30121.1
29011.5
27919.8
26848.2
210515
210496
210460
210405
210331
210238
210126
209994
209842
209670
209478
209265
209032
208778
208503
208207
207891
207553
207195
206815
206415
205994
205551
205088
204604
204099
203574
203028
202462
201877
201273
200652
200016
199366
198704
198032
197353
196666
195976
195280
194581
193876
193164
192442
191706
190953
190180
189384
188563
187717
186844
185947
185027
184084
183121
182139
181140
180126
179097
178054
177000
175936
174863
173782
172694
171600
170499
169392
168279
167161
166039
164910
163778
162640
161497
160350
159196
158037
156872
155701
154524
153340
152151
150955
149754
148546
147332
146113
144887
143656
142419
141177
139929
138676
137418
136155
134886
133613
132335
131052
129765
128474
127178
125878
124574
123266
121954
120638
119319
117996
116670
115341
114009
112674
111336
109995
108652
107306
105958
104608
103256
101902
100547
99189.5
97830.9
96471
95110
93748
92385.2
91021.8
89657.8
88293.6
86929.2
85564.9
84200.8
82837.1
81474
80111.7
78750.3
77390.1
76031.3
74674
73318.5
71965.1
70613.7
69264.8
67918.6
66575.2
65234.8
63897.8
62564.4
61234.8
59909.2
58588
57271.4
55959.6
54653
53351.8
52056.3
50766.9
49483.7
48207.3
46937.7
45675.5
44421
43174.4
41936.2
40706.8
39486.6
38276
37075.5
35885.6
34706.8
33539.9
32385.4
31244.2
30117.4
29006.1
27911.4
26834.4
210900
210881
210843
210786
210710
210614
210499
210363
210206
210029
209832
209613
209373
209113
208831
208527
208203
207857
207490
207101
206691
206259
205806
205332
204836
204318
203778
203217
202635
202033
201413
200775
200123
199457
198780
198095
197404
196709
196011
195312
194613
193911
193204
192490
191763
191019
190254
189464
188647
187803
186931
186032
185110
184166
183201
182218
181219
180203
179173
178129
177073
176006
174929
173845
172754
171656
170551
169440
168324
167203
166076
164945
163809
162669
161525
160375
159220
158059
156892
155720
154542
153357
152166
150970
149767
148559
147344
146124
144897
143666
142428
141185
139937
138683
137424
136161
134892
133618
132340
131057
129769
128477
127181
125881
124576
123268
121956
120640
119321
117998
116672
115343
114010
112675
111337
109996
108653
107307
105959
104609
103257
101903
100547
99189.9
97831.3
96471.3
95110.3
93748.3
92385.4
91022
89658
88293.8
86929.4
85565
84200.9
82837.2
81474.1
80111.7
78750.4
77390.2
76031.3
74674.1
73318.6
71965.1
70613.8
69264.9
67918.6
66575.2
65234.9
63897.9
62564.4
61234.8
59909.2
58588
57271.4
55959.6
54653
53351.8
52056.3
50766.8
49483.7
48207.2
46937.6
45675.4
44420.8
43174.1
41935.9
40706.4
39486.1
38275.3
37074.6
35884.5
34705.4
33538
32382.9
31240.9
30112.9
28999.7
27902
26820
211368
211348
211309
211249
211170
211070
210950
210809
210647
210464
210260
210034
209786
209517
209226
208913
208579
208223
207845
207445
207023
206579
206113
205624
205112
204577
204019
203438
202836
202212
201570
200912
200238
199553
198857
198154
197447
196738
196030
195325
194625
193928
193231
192530
191817
191087
190334
189553
188742
187900
187027
186127
185203
184255
183288
182304
181302
180286
179256
178211
177154
176085
175005
173918
172823
171721
170613
169498
168377
167251
166121
164986
163847
162705
161557
160405
159248
158085
156917
155743
154563
153377
152185
150987
149783
148574
147358
146137
144909
143677
142438
141195
139946
138691
137432
136168
134898
133624
132345
131062
129774
128482
127185
125885
124580
123271
121959
120643
119323
118000
116674
115344
114012
112676
111338
109997
108654
107308
105960
104610
103258
101903
100548
99190.5
97831.7
96471.8
95110.6
93748.6
92385.7
91022.2
89658.2
88293.9
86929.5
85565.2
84201
82837.3
81474.2
80111.8
78750.4
77390.2
76031.4
74674.2
73318.7
71965.2
70613.9
69264.9
67918.7
66575.2
65234.9
63897.9
62564.4
61234.8
59909.2
58588
57271.4
55959.6
54653
53351.7
52056.2
50766.8
49483.6
48207.1
46937.5
45675.2
44420.5
43173.8
41935.5
40705.9
39485.4
38274.5
37073.6
35883.2
34703.7
33535.9
32380.1
31237.2
30107.8
28992.6
27892
26805.7
211922
211901
211859
211797
211714
211609
211484
211337
211168
210977
210764
210529
210272
209993
209691
209367
209021
208653
208262
207849
207413
206954
206472
205965
205434
204878
204297
203692
203064
202415
201748
201065
200366
199656
198934
198204
197472
196740
196016
195302
194600
193912
193231
192551
191862
191155
190421
189654
188852
188013
187140
186237
185307
184356
183384
182396
181392
180374
179342
178297
177239
176169
175087
173997
172899
171794
170682
169563
168438
167307
166172
165033
163891
162745
161595
160440
159280
158116
156945
155769
154587
153400
152206
151007
149802
148591
147374
146151
144923
143689
142450
141206
139956
138701
137441
136176
134906
133631
132352
131068
129779
128487
127190
125889
124584
123275
121962
120646
119326
118003
116676
115346
114014
112678
111340
109999
108655
107309
105961
104611
103258
101904
100548
99191.1
97832.3
96472.2
95111.1
93748.9
92386
91022.5
89658.5
88294.2
86929.7
85565.3
84201.2
82837.4
81474.3
80111.9
78750.5
77390.3
76031.5
74674.2
73318.7
71965.2
70613.9
69265
67918.7
66575.3
65235
63897.9
62564.5
61234.8
59909.3
58588
57271.4
55959.6
54652.9
53351.7
52056.2
50766.7
49483.5
48206.9
46937.3
45675
44420.3
43173.5
41935.1
40705.4
39484.8
38273.7
37072.5
35881.8
34701.9
33533.5
32377
31233.1
30102.3
28985.1
27881.7
26791.6
212566
212543
212499
212433
212345
212236
212103
211949
211771
211571
211348
211102
210834
210542
210228
209891
209531
209149
208744
208315
207863
207386
206885
206357
205803
205222
204614
203982
203327
202651
201956
201242
200511
199763
199001
198230
197457
196689
195937
195207
194504
193828
193171
192525
191874
191204
190502
189759
188972
188140
187268
186361
185426
184468
183491
182498
181490
180469
179435
178388
177328
176256
175172
174080
172981
171874
170760
169637
168507
167370
166230
165087
163940
162791
161637
160480
159317
158150
156977
155799
154615
153426
152230
151029
149823
148610
147392
146168
144939
143704
142464
141218
139967
138712
137451
136185
134914
133639
132359
131074
129786
128492
127195
125893
124588
123279
121966
120649
119329
118005
116679
115349
114016
112680
111341
110000
108656
107310
105962
104612
103259
101905
100549
99191.8
97832.9
96472.8
95111.5
93749.3
92386.4
91022.8
89658.7
88294.4
86929.9
85565.5
84201.3
82837.6
81474.4
80112
78750.6
77390.4
76031.6
74674.3
73318.8
71965.3
70614
69265.1
67918.8
66575.4
65235
63898
62564.5
61234.9
59909.3
58588
57271.4
55959.6
54652.9
53351.7
52056.2
50766.6
49483.4
48206.8
46937.2
45674.8
44420
43173.1
41934.6
40704.8
39484
38272.7
37071.3
35880.2
34699.9
33530.9
32373.6
31228.7
30096.4
28977.3
27871.3
26777.8
213306
213281
213234
213163
213070
212953
212813
212649
212462
212251
212016
211757
211475
211169
210840
210488
210113
209714
209292
208847
208377
207881
207358
206807
206228
205620
204984
204323
203639
202932
202203
201451
200674
199873
199051
198217
197381
196559
195764
195009
194303
193644
193025
192428
191833
191217
190562
189856
189093
188273
187405
186496
185556
184591
183608
182609
181596
180571
179535
178486
177424
176349
175262
174167
173065
171957
170842
169717
168583
167442
166295
165145
163994
162840
161684
160523
159358
158188
157012
155832
154646
153454
152257
151054
149845
148631
147412
146187
144956
143720
142479
141232
139980
138723
137462
136195
134924
133648
132367
131082
129792
128499
127201
125899
124593
123283
121970
120653
119332
118009
116681
115351
114018
112682
111343
110002
108658
107312
105963
104613
103260
101906
100550
99192.5
97833.5
96473.3
95112
93749.8
92386.8
91023.1
89659
88294.7
86930.2
85565.7
84201.5
82837.7
81474.5
80112.2
78750.8
77390.5
76031.7
74674.4
73318.9
71965.4
70614.1
69265.2
67918.9
66575.4
65235.1
63898
62564.6
61234.9
59909.3
58588.1
57271.4
55959.6
54652.9
53351.7
52056.1
50766.6
49483.3
48206.7
46937
45674.5
44419.7
43172.8
41934.1
40704.1
39483.2
38271.7
37070
35878.5
34697.7
33528.1
32370.1
31224
30090.4
28969.4
27861
26764.6
214149
214121
214070
213994
213894
213769
213619
213444
213245
213020
212771
212497
212200
211878
211532
211163
210770
210355
209916
209452
208964
208449
207905
207331
206726
206090
205426
204735
204018
203276
202506
201705
200869
199999
199097
198177
197257
196360
195509
194721
194008
193371
192797
192262
191735
191188
190593
189935
189204
188404
187543
186635
185691
184721
183731
182726
181709
180680
179639
178589
177527
176451
175361
174261
173153
172041
170923
169797
168661
167516
166364
165209
164052
162894
161734
160570
159402
158229
157051
155868
154679
153485
152286
151081
149870
148655
147433
146207
144975
143737
142495
141247
139994
138736
137474
136206
134934
133657
132376
131090
129800
128505
127207
125905
124598
123288
121974
120657
119336
118012
116685
115354
114021
112684
111345
110004
108660
107313
105965
104614
103262
101907
100551
99193.3
97834.3
96474
95112.6
93750.3
92387.2
91023.5
89659.4
88294.9
86930.4
85565.9
84201.7
82837.9
81474.7
80112.3
78750.9
77390.7
76031.8
74674.6
73319
71965.5
70614.2
69265.3
67918.9
66575.5
65235.1
63898.1
62564.6
61235
59909.4
58588.1
57271.4
55959.6
54652.9
53351.6
52056
50766.5
49483.2
48206.5
46936.8
45674.3
44419.4
43172.3
41933.6
40703.5
39482.3
38270.6
37068.6
35876.7
34695.5
33525.2
32366.4
31219.3
30084.3
28961.6
27850.9
26751.9
215102
215072
215015
214933
214824
214689
214528
214340
214126
213886
213620
213329
213014
212674
212311
211924
211515
211083
210628
210150
209645
209113
208550
207954
207325
206662
205968
205246
204496
203716
202901
202046
201144
200193
199199
198181
197163
196180
195263
194436
193714
193096
192564
192088
191627
191145
190609
189997
189301
188522
187672
186768
185824
184852
183858
182849
181828
180794
179750
178696
177633
176556
175465
174361
173248
172129
171005
169875
168738
167590
166434
165275
164114
162952
161788
160620
159448
158272
157092
155906
154715
153518
152317
151110
149897
148680
147457
146228
144995
143756
142512
141263
140009
138750
137486
136218
134945
133667
132385
131099
129808
128513
127214
125911
124604
123293
121979
120661
119340
118016
116688
115357
114023
112687
111348
110006
108662
107315
105966
104616
103263
101908
100552
99194.2
97835.1
96474.7
95113.2
93750.8
92387.7
91023.9
89659.7
88295.3
86930.7
85566.2
84201.9
82838.1
81474.9
80112.5
78751.1
77390.8
76032
74674.7
73319.2
71965.6
70614.3
69265.3
67919
66575.6
65235.2
63898.2
62564.7
61235
59909.4
58588.1
57271.4
55959.6
54652.9
53351.6
52056
50766.4
49483.1
48206.4
46936.6
45674
44419
43171.9
41933
40702.8
39481.4
38269.4
37067.1
35874.9
34693.2
33522.3
32362.7
31214.5
30078.2
28953.8
27841.2
26739.9
216175
216141
216079
215989
215870
215723
215548
215344
215113
214855
214571
214262
213928
213570
213190
212789
212366
211923
211458
210969
210453
209908
209329
208715
208063
207375
206654
205903
205121
204304
203445
202532
201560
200525
199440
198327
197219
196159
195184
194322
193587
192976
192468
192026
191603
191158
190655
190072
189396
188633
187793
186895
185955
184983
183987
182975
181950
180914
179867
178810
177742
176664
175571
174463
173345
172221
171091
169957
168816
167665
166507
165344
164179
163013
161845
160673
159498
158319
157135
155946
154752
153554
152350
151140
149926
148706
147481
146251
145016
143776
142531
141280
140025
138765
137500
136231
134957
133678
132395
131108
129816
128521
127221
125917
124610
123299
121984
120666
119344
118020
116691
115360
114026
112690
111350
110008
108664
107317
105968
104617
103264
101909
100553
99195.1
97835.9
96475.4
95113.9
93751.4
92388.2
91024.4
89660.1
88295.6
86931
85566.4
84202.2
82838.3
81475.1
80112.7
78751.2
77391
76032.1
74674.8
73319.3
71965.8
70614.4
69265.5
67919.1
66575.7
65235.3
63898.2
62564.7
61235.1
59909.4
58588.1
57271.4
55959.6
54652.9
53351.6
52055.9
50766.3
49483
48206.2
46936.4
45673.8
44418.7
43171.5
41932.5
40702.1
39480.5
38268.3
37065.7
35873.1
34690.9
33519.4
32358.9
31209.8
30072.3
28946.3
27831.9
26728.5
217381
217343
217274
217174
217043
216881
216689
216468
216218
215940
215637
215309
214958
214587
214197
213788
213362
212915
212448
211955
211434
210880
210290
209660
208990
208280
207532
206747
205924
205058
204139
203160
202116
201010
199856
198681
197521
196416
195406
194522
193771
193147
192627
192174
191741
191287
190778
190190
189514
188753
187918
187023
186085
185115
184119
183104
182076
181038
179989
178928
177857
176773
175676
174565
173442
172313
171180
170043
168897
167743
166580
165414
164246
163076
161904
160729
159550
158367
157180
155989
154792
153591
152384
151173
149956
148734
147508
146276
145039
143797
142550
141299
140042
138781
137515
136244
134969
133690
132406
131118
129825
128529
127229
125924
124617
123305
121990
120671
119349
118024
116695
115364
114030
112693
111353
110011
108666
107319
105970
104619
103266
101911
100554
99196.1
97836.8
96476.2
95114.6
93752
92388.7
91024.8
89660.5
88296
86931.3
85566.7
84202.4
82838.6
81475.3
80112.9
78751.4
77391.2
76032.3
74675
73319.5
71965.9
70614.5
69265.6
67919.2
66575.8
65235.4
63898.3
62564.8
61235.1
59909.5
58588.2
57271.5
55959.6
54652.9
53351.5
52055.9
50766.2
49482.9
48206.1
46936.2
45673.5
44418.3
43171
41931.9
40701.3
39479.6
38267.2
37064.2
35871.3
34688.5
33516.4
32355.2
31205.2
30066.4
28939.1
27823
26717.8
218735
218691
218614
218502
218356
218177
217967
217726
217456
217161
216842
216501
216142
215767
215377
214973
214553
214113
213649
213157
212631
212068
211462
210809
210107
209354
208551
207701
206806
205864
204873
203832
202738
201596
200421
199238
198079
196975
195964
195070
194298
193637
193066
192554
192063
191553
190997
190372
189671
188896
188056
187160
186221
185252
184256
183237
182205
181163
180112
179050
177975
176885
175781
174664
173537
172404
171268
170128
168979
167820
166654
165485
164313
163140
161964
160786
159604
158418
157228
156033
154834
153630
152421
151207
149988
148764
147535
146302
145063
143819
142571
141318
140060
138797
137530
136259
134982
133702
132417
131128
129835
128538
127237
125932
124623
123311
121995
120676
119354
118028
116699
115368
114033
112696
111356
110013
108668
107321
105972
104620
103267
101912
100555
99197.2
97837.7
96477
95115.3
93752.7
92389.3
91025.3
89661
88296.4
86931.7
85567
84202.7
82838.8
81475.6
80113.1
78751.7
77391.4
76032.5
74675.2
73319.6
71966
70614.7
69265.7
67919.3
66575.9
65235.5
63898.4
62564.9
61235.2
59909.5
58588.2
57271.5
55959.6
54652.9
53351.5
52055.9
50766.2
49482.8
48205.9
46936
45673.2
44418
43170.6
41931.4
40700.6
39478.7
38266
37062.8
35869.5
34686.3
33513.6
32351.6
31200.7
30060.8
28932.2
27814.6
26707.8
220303
220253
220165
220038
219875
219677
219447
219189
218907
218603
218280
217941
217587
217220
216839
216443
216027
215586
215113
214601
214043
213432
212763
212037
211250
210407
209514
208577
207604
206593
205549
204471
203362
202227
201079
199938
198827
197768
196782
195888
195089
194376
193729
193127
192541
191943
191309
190623
189878
189075
188220
187316
186372
185399
184401
183379
182341
181294
180240
179177
178100
177006
175895
174770
173636
172497
171357
170213
169061
167899
166730
165557
164383
163206
162027
160846
159660
158471
157278
156080
154878
153671
152459
151243
150022
148796
147565
146329
145088
143843
142593
141338
140079
138815
137547
136274
134996
133715
132429
131139
129845
128547
127245
125940
124631
123318
122002
120682
119359
118033
116704
115371
114036
112699
111358
110016
108671
107323
105974
104622
103269
101913
100557
99198.3
97838.7
96477.9
95116.1
93753.4
92389.9
91025.9
89661.5
88296.8
86932.1
85567.4
84203.1
82839.2
81475.9
80113.4
78752
77391.7
76032.8
74675.4
73319.8
71966.3
70614.9
69265.9
67919.5
66576
65235.6
63898.5
62565
61235.3
59909.6
58588.3
57271.6
55959.7
54652.9
53351.6
52055.9
50766.2
49482.7
48205.9
46935.9
45673.1
44417.8
43170.3
41930.9
40700
39477.9
38265
37061.5
35867.8
34684.1
33510.8
32348.2
31196.4
30055.6
28925.7
27806.8
26698.6
222042
221985
221884
221740
221558
221344
221104
220845
220569
220278
219969
219641
219290
218913
218511
218078
217610
217101
216545
215934
215267
214542
213764
212936
212062
211146
210190
209202
208188
207149
206089
205011
203923
202829
201737
200662
199617
198612
197660
196770
195945
195177
194453
193757
193073
192381
191665
190913
190119
189283
188406
187488
186534
185553
184550
183524
182479
181424
180365
179300
178222
177126
176010
174879
173738
172591
171443
170294
169139
167974
166803
165629
164451
163272
162090
160905
159717
158525
157328
156127
154922
153713
152499
151280
150056
148828
147595
146357
145114
143867
142616
141359
140098
138833
137563
136289
135011
133728
132441
131150
129856
128557
127254
125948
124638
123325
122008
120688
119364
118037
116708
115375
114040
112702
111361
110018
108673
107325
105975
104624
103270
101915
100558
99199.4
97839.6
96478.7
95116.8
93754
92390.5
91026.4
89661.9
88297.2
86932.4
85567.7
84203.3
82839.4
81476.1
80113.6
78752.1
77391.8
76032.9
74675.5
73319.9
71966.3
70614.9
69265.9
67919.5
66576
65235.6
63898.5
62565
61235.3
59909.6
58588.3
57271.5
55959.6
54652.8
53351.4
52055.7
50766
49482.5
48205.6
46935.6
45672.7
44417.3
43169.7
41930.3
40699.3
39477
38263.8
37060
35865.9
34681.9
33508.1
32344.8
31192.2
30050.4
28919.5
27799.4
26689.9
223798
223734
223620
223462
223270
223054
222824
222583
222329
222053
221741
221385
220977
220516
220006
219449
218847
218203
217515
216783
216008
215190
214335
213448
212533
211590
210619
209627
208615
207588
206545
205493
204438
203386
202342
201317
200317
199347
198413
197521
196671
195857
195072
194306
193546
192782
192001
191195
190359
189492
188593
187659
186694
185704
184694
183662
182609
181547
180481
179413
178332
177233
176113
174978
173831
172678
171524
170369
169210
168044
166872
165695
164516
163334
162149
160962
159770
158575
157376
156172
154964
153752
152536
151314
150088
148858
147623
146383
145139
143890
142637
141379
140117
138850
137579
136304
135024
133741
132453
131161
129865
128566
127263
125956
124645
123331
122014
120693
119369
118042
116712
115379
114043
112705
111364
110021
108675
107327
105977
104625
103272
101916
100559
99200.4
97840.5
96479.5
95117.5
93754.6
92391
91026.8
89662.3
88297.5
86932.7
85568
84203.6
82839.6
81476.3
80113.8
78752.3
77391.9
76033
74675.6
73320
71966.4
70615
69266
67919.6
66576
65235.6
63898.5
62564.9
61235.2
59909.5
58588.2
57271.4
55959.5
54652.7
53351.3
52055.6
50765.8
49482.4
48205.4
46935.3
45672.4
44416.9
43169.3
41929.7
40698.5
39476.1
38262.7
37058.7
35864.3
34679.8
33505.5
32341.6
31188.3
30045.7
28913.8
27792.6
26682
225564
225492
225368
225204
225016
224813
224599
224366
224095
223765
223363
222884
222331
221721
221063
220366
219637
218880
218097
217288
216453
215593
214709
213803
212880
211938
210977
210001
209011
208007
206991
205967
204941
203919
202906
201907
200928
199972
199041
198139
197265
196416
195586
194769
193955
193138
192308
191460
190590
189695
188773
187823
186847
185849
184832
183792
182732
181662
180592
179519
178434
177330
176206
175065
173914
172758
171599
170440
169277
168109
166936
165758
164577
163393
162205
161015
159821
158623
157421
156214
155004
153790
152571
151347
150119
148887
147650
146408
145162
143912
142657
141398
140134
138867
137594
136318
135037
133753
132464
131172
129875
128575
127271
125963
124652
123337
122019
120698
119374
118046
116716
115383
114047
112708
111367
110023
108677
107329
105979
104627
103273
101917
100560
99201.4
97841.4
96480.3
95118.2
93755.2
92391.5
91027.3
89662.7
88297.9
86933
85568.3
84203.8
82839.9
81476.5
80114
78752.4
77392.1
76033.1
74675.7
73320.1
71966.5
70615
69266
67919.6
66576.1
65235.6
63898.5
62564.9
61235.2
59909.5
58588.2
57271.4
55959.5
54652.6
53351.2
52055.5
50765.7
49482.2
48205.2
46935.1
45672.1
44416.6
43168.9
41929.2
40697.9
39475.3
38261.7
37057.4
35862.7
34677.9
33503.1
32338.7
31184.7
30041.3
28908.6
27786.5
26674.9
227334
227254
227122
226961
226784
226580
226337
226029
225637
225155
224589
223954
223262
222528
221764
220980
220178
219363
218533
217689
216828
215950
215056
214148
213227
212293
211345
210385
209413
208429
207434
206431
205426
204421
203424
202437
201465
200510
199573
198657
197761
196884
196019
195164
194310
193453
192587
191706
190807
189887
188946
187981
186995
185988
184961
183913
182846
181771
180697
179620
178531
177423
176292
175145
173989
172829
171668
170506
169341
168171
166996
165816
164633
163447
162257
161064
159867
158667
157462
156254
155041
153824
152603
151378
150148
148914
147675
146432
145184
143933
142676
141416
140151
138882
137609
136331
135050
133764
132475
131181
129884
128583
127278
125970
124659
123343
122025
120703
119378
118051