/*--------------------------------*- C++ -*----------------------------------*\
  =========                 |
  \\      /  F ield         | OpenFOAM: The Open Source CFD Toolbox
   \\    /   O peration     | Website:  https://openfoam.org
    \\  /    A nd           | Version:  9
     \\/     M anipulation  |
\*---------------------------------------------------------------------------*/
FoamFile
{
    format      ascii;
    class       volSymmTensorField;
    location    "0.016";
    object      UPrime2Mean;
}
// * * * * * * * * * * * * * * * * * * * * * * * * * * * * * * * * * * * * * //

dimensions      [0 2 -2 0 0 0 0];

internalField   nonuniform List<symmTensor> 
12225
(
(-48.8523 -0.217049 0 0.00122023 0 0)
(-45.9201 -0.30034 0 -0.00105711 0 0)
(-42.9773 -0.271027 0 -0.00108401 0 0)
(-40.1149 -0.248204 0 -0.00105719 0 0)
(-37.4264 -0.234096 0 -0.00107107 0 0)
(-34.949 -0.221689 0 -0.00104724 0 0)
(-32.6147 -0.214905 0 -0.00105893 0 0)
(-30.4283 -0.208217 0 -0.00109608 0 0)
(-28.2851 -0.208083 0 -0.00112503 0 0)
(-26.304 -0.198636 0 -0.00115208 0 0)
(-24.2847 -0.202689 0 -0.00104316 0 0)
(-22.5365 -0.183133 0 -0.00107933 0 0)
(-20.5523 -0.207764 0 -0.000644307 0 0)
(-19.0392 -0.167488 0 -0.000937902 0 0)
(-16.842 -0.255087 0 0.000995835 0 0)
(-15.5104 -0.14808 0 -0.000165081 0 0)
(-12.6464 -0.431949 0 0.0122378 0 0)
(-11.2364 -0.185614 0 0.00123565 0 0)
(-49.8712 -0.257612 0 0.000938342 0 0)
(-50.5203 -0.395533 0 -0.00202814 0 0)
(-50.9512 -0.388778 0 -0.00227537 0 0)
(-51.1298 -0.399715 0 -0.00254689 0 0)
(-51.1 -0.418913 0 -0.00289259 0 0)
(-50.9243 -0.435586 0 -0.00314861 0 0)
(-50.637 -0.445554 0 -0.00330354 0 0)
(-50.2784 -0.464284 0 -0.00347033 0 0)
(-49.8358 -0.4759 0 -0.00363515 0 0)
(-49.3384 -0.503068 0 -0.00369793 0 0)
(-48.735 -0.50902 0 -0.00380954 0 0)
(-48.0888 -0.546333 0 -0.00348524 0 0)
(-47.2887 -0.547872 0 -0.0036563 0 0)
(-46.473 -0.614228 0 -0.00241083 0 0)
(-45.4035 -0.629438 0 -0.0028853 0 0)
(-44.3485 -0.758486 0 0.00171828 0 0)
(-42.8788 -0.873883 0 0.00352748 0 0)
(-41.4714 -1.20647 0 0.0342857 0 0)
(-49.9804 -0.152599 0 0.00274906 0 0)
(-50.2029 -0.28802 0 -0.000178859 0 0)
(-50.4412 -0.281613 0 -0.000680756 0 0)
(-50.625 -0.286225 0 -0.000918505 0 0)
(-50.7502 -0.316129 0 -0.00128793 0 0)
(-50.8282 -0.346429 0 -0.0016519 0 0)
(-50.8654 -0.373347 0 -0.001908 0 0)
(-50.8831 -0.397554 0 -0.00213162 0 0)
(-50.8788 -0.428071 0 -0.00221347 0 0)
(-50.8587 -0.456851 0 -0.00237323 0 0)
(-50.7949 -0.496721 0 -0.00208467 0 0)
(-50.6864 -0.528945 0 -0.00209101 0 0)
(-50.5048 -0.588153 0 -0.000889879 0 0)
(-50.2593 -0.636113 0 -0.000631036 0 0)
(-49.9301 -0.745603 0 0.00317049 0 0)
(-49.5226 -0.850378 0 0.00607803 0 0)
(-49.0487 -1.08604 0 0.0219636 0 0)
(-48.5301 -1.39879 0 0.0594627 0 0)
(-48.99 -0.154887 0 0.00279807 0 0)
(-49.1727 -0.293163 0 -0.000170463 0 0)
(-49.3399 -0.317988 0 -0.000967094 0 0)
(-49.4563 -0.329423 0 -0.00130246 0 0)
(-49.5309 -0.356949 0 -0.00169121 0 0)
(-49.5831 -0.39025 0 -0.00205029 0 0)
(-49.6147 -0.417869 0 -0.002279 0 0)
(-49.62 -0.445576 0 -0.0023665 0 0)
(-49.5992 -0.472075 0 -0.00238566 0 0)
(-49.5568 -0.506191 0 -0.00220485 0 0)
(-49.4955 -0.54119 0 -0.00191728 0 0)
(-49.4105 -0.588449 0 -0.00112151 0 0)
(-49.2933 -0.643139 0 8.87465e-06 0 0)
(-49.1376 -0.719386 0 0.00242724 0 0)
(-48.9316 -0.82258 0 0.00659169 0 0)
(-48.688 -0.965499 0 0.015245 0 0)
(-48.3979 -1.18286 0 0.035067 0 0)
(-48.1273 -1.46282 0 0.0749312 0 0)
(-49.691 -0.154526 0 0.00366316 0 0)
(-49.8611 -0.269506 0 0.000508081 0 0)
(-49.9931 -0.297495 0 -0.000372187 0 0)
(-50.0598 -0.300713 0 -0.00060341 0 0)
(-50.0509 -0.318576 0 -0.000778783 0 0)
(-49.9939 -0.348385 0 -0.000972135 0 0)
(-49.9237 -0.381098 0 -0.00110665 0 0)
(-49.8601 -0.413469 0 -0.00114836 0 0)
(-49.8034 -0.447684 0 -0.000980458 0 0)
(-49.7433 -0.484284 0 -0.00061402 0 0)
(-49.6635 -0.526773 0 0.000179642 0 0)
(-49.5526 -0.576915 0 0.0014474 0 0)
(-49.4005 -0.641741 0 0.00370014 0 0)
(-49.2099 -0.726089 0 0.00747359 0 0)
(-48.9781 -0.839906 0 0.0141277 0 0)
(-48.7225 -0.996209 0 0.0270576 0 0)
(-48.4452 -1.20256 0 0.0505401 0 0)
(-48.1906 -1.47516 0 0.0981439 0 0)
(-49.9696 -0.0688457 0 0.00434807 0 0)
(-50.0951 -0.209494 0 0.00205409 0 0)
(-50.1929 -0.275349 0 0.00052014 0 0)
(-50.2212 -0.311201 0 -0.000291418 0 0)
(-50.1853 -0.346821 0 -0.000779251 0 0)
(-50.1272 -0.384827 0 -0.00104527 0 0)
(-50.0765 -0.418337 0 -0.00108704 0 0)
(-50.0338 -0.447955 0 -0.000912011 0 0)
(-49.9831 -0.479093 0 -0.000493564 0 0)
(-49.9076 -0.517996 0 0.000244123 0 0)
(-49.7966 -0.56726 0 0.00147518 0 0)
(-49.646 -0.62853 0 0.00348342 0 0)
(-49.4588 -0.704902 0 0.00681177 0 0)
(-49.241 -0.800729 0 0.0123191 0 0)
(-49.0029 -0.923554 0 0.0217027 0 0)
(-48.7538 -1.08242 0 0.0380433 0 0)
(-48.5107 -1.28375 0 0.0662746 0 0)
(-48.2884 -1.5383 0 0.11573 0 0)
(-50.6461 -0.156401 0 0.00415991 0 0)
(-50.6807 -0.250565 0 0.00224771 0 0)
(-50.7236 -0.305691 0 0.000783192 0 0)
(-50.7582 -0.337914 0 0.000238064 0 0)
(-50.7564 -0.360854 0 0.000145283 0 0)
(-50.7247 -0.385242 0 0.000203275 0 0)
(-50.683 -0.413624 0 0.000387027 0 0)
(-50.64 -0.446941 0 0.000781814 0 0)
(-50.5908 -0.487094 0 0.00146543 0 0)
(-50.5228 -0.535795 0 0.00258946 0 0)
(-50.4267 -0.593769 0 0.00439179 0 0)
(-50.2957 -0.662604 0 0.00731473 0 0)
(-50.1336 -0.744411 0 0.0119403 0 0)
(-49.9431 -0.844514 0 0.019432 0 0)
(-49.7393 -0.967876 0 0.0313897 0 0)
(-49.5257 -1.12398 0 0.0510675 0 0)
(-49.3294 -1.31622 0 0.0824647 0 0)
(-49.1477 -1.55174 0 0.132147 0 0)
(-50.1344 -0.0366343 0 0.00649819 0 0)
(-50.2172 -0.163889 0 0.00326735 0 0)
(-50.2958 -0.252388 0 0.00179548 0 0)
(-50.3942 -0.304791 0 0.00121979 0 0)
(-50.4703 -0.345056 0 0.000890239 0 0)
(-50.4953 -0.382579 0 0.000877403 0 0)
(-50.4731 -0.417182 0 0.00118833 0 0)
(-50.4225 -0.451359 0 0.00179036 0 0)
(-50.3576 -0.491672 0 0.00278898 0 0)
(-50.2876 -0.543655 0 0.00438135 0 0)
(-50.2155 -0.609459 0 0.00684704 0 0)
(-50.1425 -0.689345 0 0.0107045 0 0)
(-50.062 -0.783261 0 0.0166857 0 0)
(-49.9735 -0.893892 0 0.0260369 0 0)
(-49.8702 -1.02426 0 0.0403648 0 0)
(-49.7625 -1.18108 0 0.0625694 0 0)
(-49.6497 -1.36632 0 0.0957932 0 0)
(-49.5596 -1.58433 0 0.144929 0 0)
(-49.2887 -0.127449 0 0.00598597 0 0)
(-49.2574 -0.215242 0 0.00342829 0 0)
(-49.2974 -0.279281 0 0.00191458 0 0)
(-49.4348 -0.322607 0 0.00133436 0 0)
(-49.5949 -0.359997 0 0.00118554 0 0)
(-49.7077 -0.399267 0 0.00131297 0 0)
(-49.7559 -0.44054 0 0.00178574 0 0)
(-49.7565 -0.484267 0 0.00270313 0 0)
(-49.7322 -0.530867 0 0.00420587 0 0)
(-49.6994 -0.58252 0 0.00650046 0 0)
(-49.6617 -0.641772 0 0.00988948 0 0)
(-49.6202 -0.712583 0 0.0149255 0 0)
(-49.5682 -0.798222 0 0.0223713 0 0)
(-49.5094 -0.903677 0 0.0335206 0 0)
(-49.4393 -1.03122 0 0.0499654 0 0)
(-49.3744 -1.18626 0 0.074234 0 0)
(-49.3103 -1.36704 0 0.108772 0 0)
(-49.2802 -1.57729 0 0.157076 0 0)
(-49.8819 -0.0687184 0 0.00581811 0 0)
(-49.9278 -0.153757 0 0.00363849 0 0)
(-49.9618 -0.214388 0 0.00276241 0 0)
(-50.0151 -0.253666 0 0.00225346 0 0)
(-50.0803 -0.29626 0 0.00198616 0 0)
(-50.1339 -0.346113 0 0.00212266 0 0)
(-50.1584 -0.39642 0 0.0028166 0 0)
(-50.1486 -0.445137 0 0.00408429 0 0)
(-50.1067 -0.495504 0 0.00595919 0 0)
(-50.044 -0.553618 0 0.00868145 0 0)
(-49.9698 -0.624137 0 0.0126598 0 0)
(-49.8942 -0.709793 0 0.0185497 0 0)
(-49.817 -0.810074 0 0.0271954 0 0)
(-49.7443 -0.926394 0 0.0398522 0 0)
(-49.6717 -1.05784 0 0.057913 0 0)
(-49.6122 -1.20843 0 0.0834408 0 0)
(-49.5617 -1.37576 0 0.118183 0 0)
(-49.5441 -1.56411 0 0.164567 0 0)
(-49.4073 -0.0823115 0 0.00756638 0 0)
(-49.3981 -0.17341 0 0.00590058 0 0)
(-49.4043 -0.2344 0 0.00388085 0 0)
(-49.4389 -0.285347 0 0.00302486 0 0)
(-49.4854 -0.330514 0 0.00307885 0 0)
(-49.523 -0.376276 0 0.00366109 0 0)
(-49.5437 -0.42981 0 0.00462935 0 0)
(-49.5449 -0.490455 0 0.00611385 0 0)
(-49.5283 -0.552827 0 0.00842555 0 0)
(-49.5026 -0.614458 0 0.011901 0 0)
(-49.4759 -0.677186 0 0.0168716 0 0)
(-49.4538 -0.747369 0 0.0238989 0 0)
(-49.4365 -0.830218 0 0.033793 0 0)
(-49.4248 -0.931367 0 0.0477446 0 0)
(-49.419 -1.0517 0 0.0669772 0 0)
(-49.4216 -1.19362 0 0.093217 0 0)
(-49.4376 -1.35286 0 0.127677 0 0)
(-49.4709 -1.53137 0 0.172175 0 0)
(-50.0547 -0.0877634 0 0.00647517 0 0)
(-49.9404 -0.161541 0 0.00634111 0 0)
(-49.8809 -0.212114 0 0.00426424 0 0)
(-49.9054 -0.254449 0 0.00286267 0 0)
(-49.9591 -0.297037 0 0.00265775 0 0)
(-49.9969 -0.344414 0 0.00335797 0 0)
(-50.0136 -0.396865 0 0.0046783 0 0)
(-50.021 -0.452802 0 0.00660431 0 0)
(-50.0271 -0.510985 0 0.00933836 0 0)
(-50.0315 -0.573552 0 0.0132507 0 0)
(-50.0306 -0.643928 0 0.0188209 0 0)
(-50.0216 -0.726273 0 0.0266964 0 0)
(-50.0081 -0.821657 0 0.0376162 0 0)
(-49.9956 -0.931352 0 0.0525838 0 0)
(-49.9936 -1.05346 0 0.0725479 0 0)
(-50.0055 -1.1899 0 0.0988915 0 0)
(-50.0393 -1.33657 0 0.132381 0 0)
(-50.0931 -1.49805 0 0.174404 0 0)
(-49.2703 -0.143319 0 0.00742324 0 0)
(-49.3571 -0.161397 0 0.00666974 0 0)
(-49.417 -0.221336 0 0.00478298 0 0)
(-49.4836 -0.275749 0 0.00416026 0 0)
(-49.5518 -0.319788 0 0.00453915 0 0)
(-49.6022 -0.36695 0 0.00549699 0 0)
(-49.6323 -0.422746 0 0.00692978 0 0)
(-49.6492 -0.483621 0 0.00906667 0 0)
(-49.6605 -0.545558 0 0.012255 0 0)
(-49.6724 -0.607987 0 0.0168366 0 0)
(-49.6895 -0.672622 0 0.0231554 0 0)
(-49.7133 -0.74305 0 0.0317323 0 0)
(-49.7478 -0.822402 0 0.0432147 0 0)
(-49.7936 -0.914873 0 0.0585388 0 0)
(-49.8551 -1.02107 0 0.0785402 0 0)
(-49.9277 -1.14392 0 0.104418 0 0)
(-50.0193 -1.27895 0 0.136633 0 0)
(-50.1202 -1.42939 0 0.176371 0 0)
(-50.237 -0.0322573 0 0.00843311 0 0)
(-50.3478 -0.136248 0 0.00657333 0 0)
(-50.3753 -0.18263 0 0.00458752 0 0)
(-50.4026 -0.221754 0 0.00389866 0 0)
(-50.4537 -0.270911 0 0.00401472 0 0)
(-50.5065 -0.326486 0 0.00497358 0 0)
(-50.5437 -0.383298 0 0.00678159 0 0)
(-50.5701 -0.439497 0 0.00944257 0 0)
(-50.598 -0.496518 0 0.0130888 0 0)
(-50.6327 -0.557874 0 0.0180498 0 0)
(-50.6701 -0.626147 0 0.0247922 0 0)
(-50.7056 -0.703571 0 0.0339261 0 0)
(-50.7362 -0.790451 0 0.0460397 0 0)
(-50.7665 -0.888309 0 0.0618955 0 0)
(-50.798 -0.995584 0 0.0820336 0 0)
(-50.8412 -1.11392 0 0.107352 0 0)
(-50.8942 -1.23866 0 0.137962 0 0)
(-50.9737 -1.37293 0 0.174771 0 0)
(-49.7554 -0.031647 0 0.0091734 0 0)
(-49.6558 -0.150195 0 0.00758024 0 0)
(-49.6013 -0.199583 0 0.0056399 0 0)
(-49.6365 -0.234631 0 0.00536942 0 0)
(-49.6985 -0.28097 0 0.00613345 0 0)
(-49.7369 -0.337815 0 0.00756265 0 0)
(-49.743 -0.398906 0 0.00962134 0 0)
(-49.7279 -0.460148 0 0.0125697 0 0)
(-49.7087 -0.519697 0 0.0167133 0 0)
(-49.703 -0.579012 0 0.0223315 0 0)
(-49.7183 -0.640427 0 0.0297223 0 0)
(-49.7558 -0.707501 0 0.0393419 0 0)
(-49.8114 -0.781741 0 0.0516375 0 0)
(-49.8851 -0.865951 0 0.0672754 0 0)
(-49.9733 -0.958592 0 0.0866182 0 0)
(-50.0809 -1.06209 0 0.110406 0 0)
(-50.2035 -1.17038 0 0.138502 0 0)
(-50.3524 -1.28794 0 0.171765 0 0)
(-50.3196 -0.176923 0 0.0119268 0 0)
(-50.2722 -0.122203 0 0.0115076 0 0)
(-50.2805 -0.144136 0 0.00851998 0 0)
(-50.3285 -0.202824 0 0.00790148 0 0)
(-50.3799 -0.265121 0 0.00884915 0 0)
(-50.432 -0.32755 0 0.0102347 0 0)
(-50.4935 -0.390494 0 0.0120439 0 0)
(-50.5657 -0.449868 0 0.0148498 0 0)
(-50.6438 -0.501915 0 0.0189702 0 0)
(-50.7224 -0.548742 0 0.0244993 0 0)
(-50.794 -0.59593 0 0.0316632 0 0)
(-50.8555 -0.650289 0 0.0409447 0 0)
(-50.9069 -0.714603 0 0.052766 0 0)
(-50.9565 -0.790059 0 0.0675779 0 0)
(-51.0094 -0.87253 0 0.08547 0 0)
(-51.0774 -0.961582 0 0.10695 0 0)
(-51.1612 -1.05073 0 0.131678 0 0)
(-51.2719 -1.14344 0 0.160266 0 0)
(-49.2696 -0.0685496 0 0.0149546 0 0)
(-49.3895 -0.111994 0 0.0143908 0 0)
(-49.4775 -0.145686 0 0.00890798 0 0)
(-49.546 -0.18713 0 0.00673832 0 0)
(-49.6088 -0.232953 0 0.0073847 0 0)
(-49.673 -0.279427 0 0.00950452 0 0)
(-49.7404 -0.324779 0 0.0123252 0 0)
(-49.808 -0.371127 0 0.0157473 0 0)
(-49.872 -0.422634 0 0.0201161 0 0)
(-49.9335 -0.482667 0 0.02591 0 0)
(-49.9944 -0.550868 0 0.0334765 0 0)
(-50.0596 -0.625154 0 0.0431105 0 0)
(-50.1327 -0.700872 0 0.0549149 0 0)
(-50.2198 -0.775955 0 0.0690793 0 0)
(-50.3205 -0.846851 0 0.085429 0 0)
(-50.44 -0.916133 0 0.10432 0 0)
(-50.5721 -0.980467 0 0.125264 0 0)
(-50.7258 -1.04627 0 0.14903 0 0)
(-49.7884 0.00153101 0 0.0134817 0 0)
(-49.7476 -0.0570384 0 0.0136895 0 0)
(-49.7196 -0.0925992 0 0.0110884 0 0)
(-49.742 -0.137233 0 0.0102602 0 0)
(-49.8024 -0.193071 0 0.0109378 0 0)
(-49.8784 -0.255084 0 0.012301 0 0)
(-49.9552 -0.31874 0 0.0141497 0 0)
(-50.0328 -0.378514 0 0.0168795 0 0)
(-50.1175 -0.429975 0 0.0208516 0 0)
(-50.2132 -0.472312 0 0.0261282 0 0)
(-50.3222 -0.507985 0 0.0326092 0 0)
(-50.4445 -0.542216 0 0.0403829 0 0)
(-50.5798 -0.578473 0 0.049572 0 0)
(-50.7256 -0.619529 0 0.0604452 0 0)
(-50.8811 -0.663498 0 0.0729336 0 0)
(-51.0432 -0.710957 0 0.0873226 0 0)
(-51.213 -0.756673 0 0.103195 0 0)
(-51.3877 -0.80393 0 0.121015 0 0)
(-49.4423 -0.149173 0 0.0116456 0 0)
(-49.4328 -0.12521 0 0.011877 0 0)
(-49.468 -0.1086 0 0.00923821 0 0)
(-49.5266 -0.116575 0 0.00813518 0 0)
(-49.6012 -0.142813 0 0.00853583 0 0)
(-49.7015 -0.170573 0 0.00999482 0 0)
(-49.8195 -0.192151 0 0.0122361 0 0)
(-49.946 -0.211852 0 0.0151151 0 0)
(-50.0799 -0.237028 0 0.0187133 0 0)
(-50.2213 -0.271249 0 0.023166 0 0)
(-50.3662 -0.312746 0 0.0285504 0 0)
(-50.5111 -0.358001 0 0.0349835 0 0)
(-50.6542 -0.402827 0 0.0424896 0 0)
(-50.798 -0.445687 0 0.0511604 0 0)
(-50.944 -0.484247 0 0.0608023 0 0)
(-51.097 -0.520201 0 0.0716129 0 0)
(-51.2559 -0.550753 0 0.0831512 0 0)
(-51.4244 -0.580044 0 0.0958399 0 0)
(-49.9201 -0.0219009 0 0.0113962 0 0)
(-49.952 -0.0124417 0 0.0115544 0 0)
(-49.9766 -0.0219693 0 0.00836921 0 0)
(-50.0201 -0.0465712 0 0.00682269 0 0)
(-50.0912 -0.0733835 0 0.00705525 0 0)
(-50.182 -0.0999291 0 0.00835753 0 0)
(-50.274 -0.127312 0 0.0102277 0 0)
(-50.3592 -0.155058 0 0.0124213 0 0)
(-50.4419 -0.181516 0 0.0149155 0 0)
(-50.5308 -0.206159 0 0.0178388 0 0)
(-50.632 -0.229412 0 0.0213247 0 0)
(-50.7484 -0.252037 0 0.0254815 0 0)
(-50.8785 -0.273495 0 0.0302983 0 0)
(-51.0189 -0.2932 0 0.0357736 0 0)
(-51.1651 -0.3092 0 0.0417343 0 0)
(-51.3138 -0.321937 0 0.0482634 0 0)
(-51.4615 -0.329746 0 0.0550867 0 0)
(-51.6065 -0.335656 0 0.0624702 0 0)
(-49.9284 -0.0625315 0 0.0104834 0 0)
(-49.9027 -0.0600102 0 0.0112564 0 0)
(-49.885 -0.0454176 0 0.00898393 0 0)
(-49.894 -0.0344773 0 0.00742408 0 0)
(-49.955 -0.0337019 0 0.00712135 0 0)
(-50.0591 -0.03981 0 0.00774882 0 0)
(-50.1761 -0.0510568 0 0.00896813 0 0)
(-50.2938 -0.066035 0 0.0105989 0 0)
(-50.4148 -0.0817558 0 0.0125487 0 0)
(-50.5412 -0.0958024 0 0.014793 0 0)
(-50.6716 -0.107388 0 0.0173445 0 0)
(-50.8047 -0.117764 0 0.0202897 0 0)
(-50.9407 -0.128721 0 0.0237075 0 0)
(-51.0793 -0.142116 0 0.0276742 0 0)
(-51.2196 -0.158027 0 0.0321109 0 0)
(-51.3597 -0.176353 0 0.0370793 0 0)
(-51.4977 -0.194571 0 0.0423351 0 0)
(-51.6326 -0.212714 0 0.0479827 0 0)
(-49.8636 -0.0515008 0 0.0103612 0 0)
(-49.9363 -0.0368851 0 0.00772353 0 0)
(-50.0486 -0.0296937 0 0.00560017 0 0)
(-50.1646 -0.0174193 0 0.00519043 0 0)
(-50.2745 -0.00406158 0 0.0051906 0 0)
(-50.3871 0.000621721 0 0.00558725 0 0)
(-50.5001 -0.00619398 0 0.0064079 0 0)
(-50.609 -0.0201049 0 0.00751019 0 0)
(-50.7166 -0.035001 0 0.00880859 0 0)
(-50.8262 -0.0472256 0 0.0102889 0 0)
(-50.9368 -0.0563998 0 0.0119736 0 0)
(-51.0459 -0.0638231 0 0.0139191 0 0)
(-51.1534 -0.0702541 0 0.0161425 0 0)
(-51.2603 -0.0764077 0 0.0186794 0 0)
(-51.3693 -0.0818676 0 0.0214644 0 0)
(-51.4818 -0.086863 0 0.0245447 0 0)
(-51.5994 -0.0898768 0 0.027786 0 0)
(-51.7225 -0.0915526 0 0.0312497 0 0)
(-49.9418 0.00984491 0 0.00863035 0 0)
(-50.0028 0.0198635 0 0.00629756 0 0)
(-50.0702 0.040943 0 0.00429824 0 0)
(-50.1644 0.0557196 0 0.00364233 0 0)
(-50.2817 0.0672237 0 0.00355508 0 0)
(-50.4079 0.0750863 0 0.00374418 0 0)
(-50.5259 0.0743342 0 0.00421336 0 0)
(-50.6316 0.06518 0 0.00493415 0 0)
(-50.7309 0.0529209 0 0.00585141 0 0)
(-50.831 0.0419008 0 0.00693229 0 0)
(-50.9353 0.0332742 0 0.00815618 0 0)
(-51.0443 0.0261487 0 0.00954713 0 0)
(-51.1578 0.0196183 0 0.0111311 0 0)
(-51.277 0.0131375 0 0.0129336 0 0)
(-51.4017 0.00747709 0 0.0149019 0 0)
(-51.5318 0.00259458 0 0.0170703 0 0)
(-51.6648 -0.000117003 0 0.0193183 0 0)
(-51.8008 -0.00176845 0 0.0216991 0 0)
(-50.5309 -0.000869792 0 0.00794208 0 0)
(-50.4914 -0.000418127 0 0.00648439 0 0)
(-50.5482 0.0326525 0 0.00528931 0 0)
(-50.6504 0.0661375 0 0.00457284 0 0)
(-50.7237 0.0866505 0 0.00423858 0 0)
(-50.7637 0.0929529 0 0.00427151 0 0)
(-50.7925 0.0874241 0 0.00454209 0 0)
(-50.8275 0.0752424 0 0.00496747 0 0)
(-50.8791 0.0631559 0 0.00554318 0 0)
(-50.9503 0.0557057 0 0.00622407 0 0)
(-51.0373 0.0539672 0 0.00692285 0 0)
(-51.1341 0.0567131 0 0.00760613 0 0)
(-51.2365 0.062113 0 0.00830629 0 0)
(-51.3402 0.0684908 0 0.00908938 0 0)
(-51.4436 0.0754057 0 0.00995489 0 0)
(-51.5428 0.0823828 0 0.0109495 0 0)
(-51.6395 0.0900189 0 0.012018 0 0)
(-51.7297 0.0977231 0 0.0131627 0 0)
(-50.4832 0.00287031 0 0.00714553 0 0)
(-50.5072 0.0749076 0 0.00432408 0 0)
(-50.6114 0.100962 0 0.00267346 0 0)
(-50.7493 0.110502 0 0.0022715 0 0)
(-50.871 0.111998 0 0.00226992 0 0)
(-50.9722 0.11149 0 0.00247194 0 0)
(-51.0735 0.11231 0 0.00276079 0 0)
(-51.1955 0.113737 0 0.00307426 0 0)
(-51.3434 0.115358 0 0.00340405 0 0)
(-51.5076 0.118334 0 0.00374925 0 0)
(-51.6728 0.122801 0 0.0041215 0 0)
(-51.8271 0.127163 0 0.00456266 0 0)
(-51.967 0.129588 0 0.0051181 0 0)
(-52.0934 0.129022 0 0.00581375 0 0)
(-52.2095 0.126187 0 0.00661479 0 0)
(-52.3162 0.122627 0 0.00751976 0 0)
(-52.4153 0.120226 0 0.00846473 0 0)
(-52.5064 0.120341 0 0.00943349 0 0)
(-50.1825 -0.00602747 0 0.00723287 0 0)
(-50.282 0.0701438 0 0.00434464 0 0)
(-50.3932 0.0996703 0 0.00239092 0 0)
(-50.5007 0.11772 0 0.00166481 0 0)
(-50.5946 0.131009 0 0.00138311 0 0)
(-50.6875 0.142475 0 0.0012893 0 0)
(-50.7932 0.153444 0 0.00125028 0 0)
(-50.9108 0.1628 0 0.00124628 0 0)
(-51.0292 0.168969 0 0.001302 0 0)
(-51.1373 0.171832 0 0.00143168 0 0)
(-51.2292 0.172675 0 0.00162113 0 0)
(-51.307 0.172786 0 0.00185634 0 0)
(-51.38 0.173142 0 0.00212792 0 0)
(-51.4599 0.174161 0 0.00243348 0 0)
(-51.5552 0.176084 0 0.00276228 0 0)
(-51.6688 0.178843 0 0.00313319 0 0)
(-51.7976 0.182842 0 0.00351569 0 0)
(-51.9369 0.18786 0 0.00390388 0 0)
(-49.9894 0.0453228 0 0.00511 0 0)
(-50.1729 0.127328 0 0.0030173 0 0)
(-50.4171 0.154539 0 0.00174382 0 0)
(-50.6551 0.155017 0 0.00151462 0 0)
(-50.8436 0.161014 0 0.00147664 0 0)
(-50.9934 0.17618 0 0.00134644 0 0)
(-51.1233 0.190811 0 0.00118227 0 0)
(-51.2413 0.197716 0 0.00113886 0 0)
(-51.351 0.196432 0 0.00123506 0 0)
(-51.4574 0.190871 0 0.00140779 0 0)
(-51.565 0.185956 0 0.00161076 0 0)
(-51.6758 0.18523 0 0.00180557 0 0)
(-51.7898 0.189978 0 0.00193822 0 0)
(-51.9057 0.199534 0 0.00197648 0 0)
(-52.0209 0.212056 0 0.00193505 0 0)
(-52.1317 0.225287 0 0.00188741 0 0)
(-52.2356 0.237819 0 0.00187997 0 0)
(-52.3307 0.248197 0 0.00195332 0 0)
(-49.3443 0.0729572 0 0.00502049 0 0)
(-49.6242 0.156058 0 0.00205455 0 0)
(-49.8978 0.179503 0 0.00100451 0 0)
(-50.122 0.191603 0 0.000558074 0 0)
(-50.3169 0.201465 0 0.000299609 0 0)
(-50.5033 0.209636 0 0.000155481 0 0)
(-50.6731 0.216327 0 7.68013e-05 0 0)
(-50.8159 0.22176 0 2.06946e-05 0 0)
(-50.9375 0.226271 0 -3.07775e-05 0 0)
(-51.0529 0.230647 0 -8.06949e-05 0 0)
(-51.1726 0.235537 0 -0.000132589 0 0)
(-51.2976 0.241216 0 -0.000189958 0 0)
(-51.4239 0.247108 0 -0.000243866 0 0)
(-51.5454 0.252651 0 -0.000282485 0 0)
(-51.6593 0.257156 0 -0.000296043 0 0)
(-51.7637 0.260794 0 -0.000274808 0 0)
(-51.8619 0.263568 0 -0.00022719 0 0)
(-51.9541 0.266431 0 -0.0001689 0 0)
(-49.7427 0.125623 0 0.00359043 0 0)
(-50.2022 0.229415 0 0.000886934 0 0)
(-50.5816 0.227973 0 0.000501719 0 0)
(-50.8432 0.23026 0 0.000345905 0 0)
(-51.0149 0.245498 0 0.000104858 0 0)
(-51.1313 0.259331 0 -0.000106075 0 0)
(-51.2124 0.264062 0 -0.000188481 0 0)
(-51.2739 0.261258 0 -0.000187037 0 0)
(-51.3302 0.256032 0 -0.000155384 0 0)
(-51.3894 0.252956 0 -0.000118012 0 0)
(-51.4469 0.253771 0 -9.81663e-05 0 0)
(-51.4938 0.258216 0 -0.000115357 0 0)
(-51.519 0.264839 0 -0.000166946 0 0)
(-51.5211 0.272841 0 -0.00024457 0 0)
(-51.4952 0.281349 0 -0.000342621 0 0)
(-51.4505 0.29034 0 -0.000447599 0 0)
(-51.3814 0.299158 0 -0.000552158 0 0)
(-51.306 0.308024 0 -0.000663197 0 0)
(-49.5198 0.24547 0 0.00198974 0 0)
(-47.9563 0.261705 0 -1.08234e-05 0 0)
(-46.3814 0.256585 0 -0.000398414 0 0)
(-44.7852 0.249734 0 -0.000523832 0 0)
(-43.2232 0.240072 0 -0.000566542 0 0)
(-41.7365 0.229337 0 -0.000575028 0 0)
(-40.3405 0.221089 0 -0.000577217 0 0)
(-39.0341 0.21685 0 -0.000619218 0 0)
(-37.8072 0.215562 0 -0.000712205 0 0)
(-36.6492 0.215039 0 -0.000817834 0 0)
(-35.5479 0.213244 0 -0.000890192 0 0)
(-34.4998 0.209185 0 -0.000913536 0 0)
(-33.5002 0.202789 0 -0.000898587 0 0)
(-32.5549 0.194944 0 -0.000866755 0 0)
(-31.6548 0.186433 0 -0.000829401 0 0)
(-30.8085 0.178419 0 -0.000791843 0 0)
(-29.9944 0.171106 0 -0.000752891 0 0)
(-29.2348 0.165474 0 -0.000723334 0 0)
(0.00196623 -0.00414679 2.21804e-23 0.00807896 -7.81852e-23 4.79285e-39)
(0.0195886 -0.0150629 -6.55256e-23 0.0100081 9.06702e-23 4.72316e-39)
(0.0576446 -0.0263001 0 0.0106677 0 0)
(0.116824 -0.0382964 0 0.0114713 0 0)
(0.197642 -0.0512634 0 0.012464 0 0)
(0.302034 -0.065507 2.09331e-22 0.0136191 -7.09345e-23 4.44257e-39)
(0.430975 -0.0808243 0 0.0148106 0 0)
(0.585538 -0.0968591 0 0.0159078 0 0)
(0.76557 -0.113007 0 0.0167854 0 0)
(0.970135 -0.128648 0 0.017366 0 0)
(1.1967 -0.143106 -2.22343e-22 0.0176087 3.10981e-23 4.10821e-39)
(1.44117 -0.155776 0 0.0175188 0 0)
(1.69775 -0.166043 0 0.0171098 0 0)
(1.95822 -0.17328 0 0.0164087 0 0)
(2.21108 -0.176934 0 0.0154667 0 0)
(2.44203 -0.176429 3.10371e-23 0.0143541 -1.76772e-23 3.79139e-39)
(2.63206 -0.1719 0 0.0132384 0 0)
(2.76039 -0.162616 0 0.0121038 0 0)
(2.80572 -0.145071 0 0.0106255 0 0)
(2.74236 -0.112093 0 0.00821229 0 0)
(2.53818 -0.0531474 0 0.0037613 0 0)
(2.15579 0.0391797 0 -0.00403117 0 0)
(1.55996 0.166743 0 -0.0151346 0 0)
(0.741263 0.33336 1.19966e-21 -0.0265298 -2.22418e-22 3.31661e-39)
(-0.288254 0.502893 -1.44633e-21 -0.0308893 2.35255e-22 3.25865e-39)
(-1.4968 0.605884 1.7296e-21 -0.0290439 -2.43533e-22 3.20053e-39)
(-2.80157 0.649922 2.05308e-21 -0.025685 -2.43344e-22 3.14296e-39)
(-4.14673 0.670462 0 -0.0212693 0 0)
(-5.5113 0.674831 0 -0.0159887 0 0)
(-6.86592 0.662174 -3.1632e-21 -0.0101752 2.01775e-22 2.97536e-39)
(-8.17961 0.633408 -3.54009e-21 -0.00411757 1.78593e-22 2.92134e-39)
(-9.42097 0.589533 0 0.00190394 0 0)
(-10.5583 0.531632 0 0.00768375 0 0)
(-11.5607 0.461095 -4.45518e-21 0.0130054 7.37785e-23 2.76512e-39)
(-12.3982 0.379433 0 0.0176817 0 0)
(-13.0434 0.288371 0 0.0215576 0 0)
(-13.4717 0.189994 4.64444e-21 0.0244858 7.12529e-23 2.61794e-39)
(-13.663 0.086733 0 0.0263487 0 0)
(-13.6028 -0.0186207 4.15134e-21 0.0270691 1.72295e-22 2.52485e-39)
(-13.2836 -0.123001 7.38996e-21 0.0266246 4.37407e-22 9.91918e-39)
(-12.7058 -0.223222 0 0.0250523 0 0)
(-11.8776 -0.316134 0 0.022445 0 0)
(-10.8152 -0.398843 0 0.0189499 0 0)
(-9.5449 -0.468963 0 0.0147673 0 0)
(-8.09905 -0.524826 0 0.0101438 0 0)
(-6.51394 -0.56515 -2.61881e-21 0.00534705 6.64608e-22 8.9118e-39)
(-4.83071 -0.589788 -4.57767e-21 0.000630581 6.35477e-22 8.75422e-39)
(-3.09074 -0.599387 -6.45824e-21 -0.00383862 5.9018e-22 8.59904e-39)
(-1.3345 -0.594557 0 -0.00797905 0 0)
(0.399692 -0.576841 9.76054e-21 -0.0116914 -4.59377e-22 8.29562e-39)
(2.07554 -0.547706 0 -0.0149072 0 0)
(3.66267 -0.508575 -1.2188e-20 -0.0175722 2.96475e-22 8.00033e-39)
(5.13439 -0.461908 -1.30168e-20 -0.0196823 2.11296e-22 7.85547e-39)
(6.46807 -0.409089 0 -0.0212388 0 0)
(7.64668 -0.352241 0 -0.0222813 0 0)
(8.65798 -0.293006 0 -0.0228502 0 0)
(9.49374 -0.232889 -1.37529e-20 -0.0229844 -9.90732e-23 7.29374e-39)
(10.1506 -0.173366 0 -0.022725 0 0)
(10.6287 -0.115904 0 -0.0221202 0 0)
(10.9338 -0.0615214 0 -0.0212041 0 0)
(11.0747 -0.0114008 0 -0.0200516 0 0)
(11.0625 0.0338736 0 -0.0187185 0 0)
(10.9108 0.0738896 0 -0.0172853 0 0)
(10.6336 0.108608 0 -0.0158079 0 0)
(10.245 0.138162 0 -0.0143405 0 0)
(9.75898 0.162804 6.17778e-21 -0.0128964 3.58575e-22 6.12722e-39)
(9.18959 0.182835 0 -0.0115224 0 0)
(8.5505 0.198294 0 -0.010203 0 0)
(7.85483 0.209661 -3.18871e-21 -0.00896979 -3.36428e-22 5.76789e-39)
(7.11576 0.216941 -2.28394e-21 -0.00782052 -3.23089e-22 5.65132e-39)
(6.34642 0.220558 0 -0.00676944 0 0)
(5.55886 0.220534 6.56882e-22 -0.00581532 2.90042e-22 5.42251e-39)
(4.76437 0.217672 5.60434e-23 -0.00496676 -2.71551e-22 5.3103e-39)
(3.97297 0.212127 0 -0.00421944 0 0)
(3.19372 0.204628 -1.27769e-21 -0.00356785 2.32922e-22 5.09081e-39)
(2.43372 0.195498 0 -0.00300445 0 0)
(1.69707 0.185105 0 -0.0025218 0 0)
(0.987574 0.173971 2.63637e-21 -0.00210967 -1.76757e-22 4.77373e-39)
(0.309054 0.162436 0 -0.0017591 0 0)
(-0.336503 0.150785 -3.28189e-21 -0.00146176 1.43697e-22 4.57211e-39)
(-0.948052 0.139246 0 -0.00121023 0 0)
(-1.5253 0.127986 3.76241e-21 -0.00099801 -1.15152e-22 4.37809e-39)
(-2.06851 0.117124 3.95176e-21 -0.000819474 -1.02601e-22 4.2838e-39)
(-2.57837 0.106741 4.11235e-21 -0.000669739 -9.11516e-23 4.19128e-39)
(-3.05586 0.096883 8.49523e-21 -0.000544589 -1.6149e-22 1.64019e-38)
(-3.50211 0.087574 -8.72127e-21 -0.000440377 1.42628e-22 1.60455e-38)
(-3.91838 0.0788178 0 -0.000353953 0 0)
(-4.30594 0.0706065 0 -0.000282592 0 0)
(-4.66608 0.0629238 0 -0.00022395 0 0)
(-5.00005 0.0557486 -9.27984e-21 -0.000176007 8.37215e-23 1.46842e-38)
(-5.30908 0.0490583 -9.35289e-21 -0.000137031 7.24186e-23 1.43594e-38)
(-5.59433 0.0428295 9.40556e-21 -0.000105541 -6.22304e-23 1.40405e-38)
(-5.85693 0.0370402 0 -8.02728e-05 0 0)
(-6.09796 0.0316701 -9.45921e-21 -6.01484e-05 4.47776e-23 1.34202e-38)
(-6.31847 0.0267009 -9.46419e-21 -4.42534e-05 3.73334e-23 1.31186e-38)
(-6.51945 0.0221167 -9.4569e-21 -3.18128e-05 3.06419e-23 1.28226e-38)
(-6.70192 0.0179029 0 -2.21729e-05 0 0)
(-6.86683 0.0140467 0 -1.47857e-05 0 0)
(-7.01515 0.0105359 0 -9.19421e-06 0 0)
(-7.14784 0.00735895 -9.33178e-21 -5.02173e-06 1.02145e-23 1.16918e-38)
(-7.26585 0.00450437 0 -1.96033e-06 0 0)
(-7.37011 0.00196005 0 2.3741e-07 0 0)
(-7.46157 -0.000286787 9.1667e-21 1.76795e-06 -2.85154e-25 1.08974e-38)
(-7.54115 -0.00225043 0 2.78494e-06 0 0)
(-7.60977 -0.00394611 0 3.40594e-06 0 0)
(-7.66833 -0.0053909 8.96492e-21 3.72184e-06 6.02443e-24 1.01464e-38)
(-7.71769 -0.00660347 0 3.79876e-06 0 0)
(-7.75869 -0.00760318 0 3.68925e-06 0 0)
(-7.79211 -0.00841819 -8.74278e-21 3.43356e-06 -9.59983e-24 9.43667e-39)
(-7.81872 -0.00907181 -8.66644e-21 3.06083e-06 -1.03239e-23 9.20894e-39)
(-7.83924 -0.00962089 0 2.61075e-06 0 0)
(-7.85384 -0.0100853 8.51232e-21 2.116e-06 1.13716e-23 8.76625e-39)
(-7.86326 -0.0104436 0 1.57728e-06 0 0)
(-7.86814 -0.010683 -8.35767e-21 1.00769e-06 -1.19148e-23 8.3402e-39)
(-7.86907 -0.0108127 0 4.36355e-07 0 0)
(-7.86659 -0.0108473 -8.20476e-21 -1.11643e-07 -1.19511e-23 7.93025e-39)
(-7.86118 -0.0108036 -8.1295e-21 -6.17642e-07 -1.18221e-23 7.73115e-39)
(-7.85331 -0.0106859 0 -1.06673e-06 0 0)
(-7.84338 -0.010503 0 -1.4605e-06 0 0)
(-7.83173 -0.0102747 0 -1.79654e-06 0 0)
(-7.81863 -0.0100169 0 -2.0731e-06 0 0)
(-7.80434 -0.00974116 0 -2.2915e-06 0 0)
(-7.78905 -0.00945628 0 -2.4543e-06 0 0)
(-7.77296 -0.00916795 0 -2.56659e-06 0 0)
(-7.75621 -0.00888083 -7.57117e-21 -2.63416e-06 -9.06571e-24 6.27129e-39)
(-7.73894 -0.00859869 7.5074e-21 -2.66294e-06 8.69686e-24 6.10455e-39)
(-7.72126 -0.00832451 0 -2.65855e-06 0 0)
(-7.70325 -0.00806035 0 -2.62643e-06 0 0)
(-7.685 -0.00780733 0 -2.5717e-06 0 0)
(-7.66656 -0.00756499 0 -2.49927e-06 0 0)
(-7.648 -0.00733189 1.44153e-20 -2.41359e-06 1.41817e-23 2.12779e-38)
(-7.62937 -0.0071065 0 -2.31841e-06 0 0)
(-7.61072 -0.00688821 -1.4192e-20 -2.21678e-06 -1.30972e-23 2.01088e-38)
(-7.5921 -0.00667631 1.40836e-20 -2.11123e-06 1.25888e-23 1.95421e-38)
(-7.57354 -0.00646845 0 -2.00396e-06 0 0)
(-7.5551 -0.00625969 0 -1.89688e-06 0 0)
(-7.53682 -0.00604412 0 -1.79166e-06 0 0)
(-7.51877 -0.00581775 -1.36702e-20 -1.69007e-06 -1.06738e-23 1.73897e-38)
(-7.50102 -0.00558106 -1.35717e-20 -1.59375e-06 -1.01894e-23 1.68794e-38)
(-7.48362 -0.00533927 0 -1.50395e-06 0 0)
(-7.4666 -0.0051004 -1.33803e-20 -1.42112e-06 -9.21833e-24 1.58907e-38)
(-7.44997 -0.00487227 -1.32873e-20 -1.34524e-06 -8.75459e-24 1.5412e-38)
(-7.43371 -0.00466025 1.31961e-20 -1.27603e-06 8.32038e-24 1.49436e-38)
(-7.41779 -0.00446652 0 -1.21319e-06 0 0)
(-7.40216 -0.00429062 0 -1.15635e-06 0 0)
(-7.38677 -0.0041308 1.29317e-20 -1.10509e-06 7.23147e-24 1.3598e-38)
(-7.37159 -0.00398508 0 -1.05894e-06 0 0)
(-7.35657 -0.00385203 0 -1.01756e-06 0 0)
(-7.34167 -0.00373075 0 -9.80667e-07 0 0)
(-7.32687 -0.00362098 0 -9.48154e-07 0 0)
(-7.31213 -0.0035225 -1.25175e-20 -9.19902e-07 -5.98663e-24 1.1545e-38)
(-7.29742 -0.00343555 -1.2438e-20 -8.96034e-07 -5.80504e-24 1.11615e-38)
(-7.2827 -0.00335982 0 -8.76481e-07 0 0)
(-7.26795 -0.00329596 -1.2282e-20 -8.61665e-07 -5.50533e-24 1.04205e-38)
(-7.25312 -0.00324329 0 -8.51473e-07 0 0)
(-7.23817 -0.00320345 0 -8.46928e-07 0 0)
(-7.22304 -0.00317519 -1.20547e-20 -8.4775e-07 -5.21548e-24 9.37179e-39)
(-7.20771 -0.00316212 0 -8.56167e-07 0 0)
(-7.19203 -0.00316202 -1.19071e-20 -8.71484e-07 -5.13883e-24 8.713e-39)
(-7.17606 -0.00318167 0 -8.98222e-07 0 0)
(-7.15946 -0.00321779 0 -9.35066e-07 0 0)
(-7.14248 -0.00328092 -1.16911e-20 -9.904e-07 -5.25315e-24 7.78286e-39)
(-7.12439 -0.00336945 0 -1.06341e-06 0 0)
(-7.10586 -0.00349309 -1.155e-20 -1.16676e-06 -5.54297e-24 7.20007e-39)
(-7.0853 -0.00366707 0 -1.30912e-06 0 0)
(-7.06443 -0.00387409 0 -1.49639e-06 0 0)
(-7.03972 -0.00420524 0 -1.79336e-06 0 0)
(-7.01522 -0.00451574 1.12728e-20 -2.12518e-06 7.0637e-24 6.12005e-39)
(-6.98347 -0.00517139 0 -2.83083e-06 0 0)
(-6.95306 -0.00556698 -1.11347e-20 -3.37333e-06 -8.66825e-24 5.62119e-39)
(-6.90933 -0.00696399 0 -5.37345e-06 0 0)
(-6.86822 -0.00726949 0 -5.96307e-06 0 0)
(-6.80445 -0.0105027 0 -1.28812e-05 0 0)
(-6.74043 -0.0100311 0 -1.15535e-05 0 0)
(-6.64521 -0.0181635 0 -4.11468e-05 0 0)
(-6.52186 -0.0147051 0 -2.43759e-05 0 0)
(-6.38463 -0.0371685 0 -0.000188249 0 0)