/*--------------------------------*- C++ -*----------------------------------*\
  =========                 |
  \\      /  F ield         | OpenFOAM: The Open Source CFD Toolbox
   \\    /   O peration     | Website:  https://openfoam.org
    \\  /    A nd           | Version:  9
     \\/     M anipulation  |
\*---------------------------------------------------------------------------*/
FoamFile
{
    format      ascii;
    class       volScalarField;
    location    "0.045";
    object      k_0;
}
// * * * * * * * * * * * * * * * * * * * * * * * * * * * * * * * * * * * * * //

dimensions      [0 2 -2 0 0 0 0];

internalField   nonuniform List<scalar> 
12225
(
0.000126983
0.00012333
7.03968e-05
4.37216e-05
3.66205e-05
3.60057e-05
3.8101e-05
4.36598e-05
4.64097e-05
4.69941e-05
4.67366e-05
4.48515e-05
3.99532e-05
3.59157e-05
3.27557e-05
7.02608e-05
0.000258974
0.00593869
2.23428e-05
2.48973e-05
2.39335e-05
2.27365e-05
2.26788e-05
2.33593e-05
2.62139e-05
2.88581e-05
2.97139e-05
2.9749e-05
2.95928e-05
2.90749e-05
2.76343e-05
2.71761e-05
2.59288e-05
2.62366e-05
2.72322e-05
6.70918e-05
2.0028e-05
1.66074e-05
1.51806e-05
1.30687e-05
1.20593e-05
1.1965e-05
1.22482e-05
1.37186e-05
1.54896e-05
1.62507e-05
1.64125e-05
1.63856e-05
1.61255e-05
1.53411e-05
1.45961e-05
1.4341e-05
1.43193e-05
1.48469e-05
2.00923e-05
2.00124e-05
1.9728e-05
1.93753e-05
1.87403e-05
1.66232e-05
1.51808e-05
1.54393e-05
1.63606e-05
1.64569e-05
1.57262e-05
1.48614e-05
1.4826e-05
1.53586e-05
1.6153e-05
1.74105e-05
1.77707e-05
1.90575e-05
2.35947e-05
2.25622e-05
2.44707e-05
2.64032e-05
2.60687e-05
2.38368e-05
2.19622e-05
2.14131e-05
2.1342e-05
2.13342e-05
2.12847e-05
2.1054e-05
2.07594e-05
2.06176e-05
2.05917e-05
2.06031e-05
2.06492e-05
2.07603e-05
2.21791e-05
2.26404e-05
2.66872e-05
2.85068e-05
2.80217e-05
2.4933e-05
2.24577e-05
2.15394e-05
2.12834e-05
2.11873e-05
2.1071e-05
2.1001e-05
2.09955e-05
2.1006e-05
2.10403e-05
2.11142e-05
2.13011e-05
2.15515e-05
2.47225e-05
2.26122e-05
2.21438e-05
2.23883e-05
2.23577e-05
2.18533e-05
2.11857e-05
2.08819e-05
2.0823e-05
2.08581e-05
2.1083e-05
2.15244e-05
2.18107e-05
2.19777e-05
2.21236e-05
2.23808e-05
2.29759e-05
2.45074e-05
2.53387e-05
2.23574e-05
2.14356e-05
2.16925e-05
2.28974e-05
2.39655e-05
2.44962e-05
2.46802e-05
2.46924e-05
2.45297e-05
2.37832e-05
2.30622e-05
2.27349e-05
2.26689e-05
2.27112e-05
2.29916e-05
2.42488e-05
2.72109e-05
3.06678e-05
3.29531e-05
2.7956e-05
2.46411e-05
2.44459e-05
2.57819e-05
2.81499e-05
2.88515e-05
2.87696e-05
2.76813e-05
2.51801e-05
2.36258e-05
2.29311e-05
2.2772e-05
2.2836e-05
2.33542e-05
2.55396e-05
2.90414e-05
2.42122e-05
2.86929e-05
2.64036e-05
2.35663e-05
2.39837e-05
2.66575e-05
2.79277e-05
2.79317e-05
2.68385e-05
2.46131e-05
2.32109e-05
2.24814e-05
2.22422e-05
2.22484e-05
2.25152e-05
2.3704e-05
2.69543e-05
3.04187e-05
3.03165e-05
3.00895e-05
2.34822e-05
2.11049e-05
2.10765e-05
2.25599e-05
2.9087e-05
3.45161e-05
3.58594e-05
3.55059e-05
3.23714e-05
2.77457e-05
2.52774e-05
2.42757e-05
2.40118e-05
2.40091e-05
2.42622e-05
2.52967e-05
2.1735e-05
2.16574e-05
2.07384e-05
2.04906e-05
2.05094e-05
2.06947e-05
2.1334e-05
2.38304e-05
2.66024e-05
2.74568e-05
2.74312e-05
2.65409e-05
2.48803e-05
2.40217e-05
2.37396e-05
2.3714e-05
2.37818e-05
2.41068e-05
2.45159e-05
2.26193e-05
2.09523e-05
2.08091e-05
2.08511e-05
2.09163e-05
2.10484e-05
2.14912e-05
2.25021e-05
2.33009e-05
2.39397e-05
2.44837e-05
2.50152e-05
2.55232e-05
2.59213e-05
2.61541e-05
2.64057e-05
2.64355e-05
3.2118e-05
2.69357e-05
2.26661e-05
2.19459e-05
2.18526e-05
2.18302e-05
2.15135e-05
2.13176e-05
2.13331e-05
2.15379e-05
2.23809e-05
2.40814e-05
2.56352e-05
2.72707e-05
2.90847e-05
3.0789e-05
3.21201e-05
3.26789e-05
2.90494e-05
2.37928e-05
2.08954e-05
2.043e-05
2.0419e-05
2.06058e-05
2.10747e-05
2.15241e-05
2.18088e-05
2.19382e-05
2.20144e-05
2.21443e-05
2.24846e-05
2.3665e-05
2.76016e-05
3.13651e-05
3.3623e-05
3.46802e-05
2.06949e-05
2.06359e-05
2.0291e-05
2.02086e-05
2.02398e-05
2.04542e-05
2.07307e-05
2.08793e-05
2.11112e-05
2.1116e-05
2.10577e-05
2.10547e-05
2.11081e-05
2.13681e-05
2.23015e-05
2.52229e-05
2.80559e-05
3.03598e-05
2.00479e-05
2.01235e-05
2.01661e-05
2.0184e-05
2.02132e-05
2.03398e-05
2.07115e-05
2.11107e-05
2.17588e-05
2.25785e-05
2.2939e-05
2.2793e-05
2.2079e-05
2.15426e-05
2.12899e-05
2.12068e-05
2.12028e-05
2.13101e-05
2.00456e-05
2.01988e-05
2.02702e-05
2.02964e-05
2.03466e-05
2.04261e-05
2.05178e-05
2.07141e-05
2.14927e-05
2.29209e-05
2.3454e-05
2.33916e-05
2.25714e-05
2.1435e-05
2.09372e-05
2.07346e-05
2.06664e-05
2.06549e-05
2.00171e-05
2.06109e-05
2.09436e-05
2.11937e-05
2.20512e-05
2.29663e-05
2.33215e-05
2.35753e-05
2.41479e-05
2.48638e-05
2.52767e-05
2.53803e-05
2.53552e-05
2.51011e-05
2.42142e-05
2.33222e-05
2.27627e-05
2.23812e-05
2.01462e-05
2.11e-05
2.30237e-05
2.34303e-05
2.33312e-05
2.28832e-05
2.22751e-05
2.20438e-05
2.22321e-05
2.39522e-05
2.66933e-05
2.80037e-05
2.93009e-05
3.08e-05
3.16306e-05
3.16568e-05
3.11102e-05
2.9034e-05
2.25793e-05
2.29087e-05
2.17095e-05
2.10183e-05
2.11456e-05
2.17692e-05
2.20395e-05
2.21916e-05
2.2698e-05
2.38873e-05
2.41328e-05
2.37949e-05
2.30507e-05
2.27276e-05
2.26278e-05
2.25308e-05
2.24097e-05
2.22768e-05
2.19408e-05
2.3173e-05
2.24844e-05
2.12722e-05
2.11468e-05
2.15781e-05
2.15986e-05
2.1584e-05
2.19397e-05
2.23882e-05
2.26861e-05
2.28385e-05
2.28185e-05
2.23503e-05
2.1752e-05
2.15943e-05
2.16027e-05
2.17824e-05
2.06351e-05
2.09567e-05
2.14811e-05
2.21783e-05
2.21606e-05
2.21001e-05
2.19802e-05
2.20179e-05
2.27341e-05
2.54657e-05
2.7422e-05
2.77476e-05
2.7339e-05
2.56518e-05
2.38163e-05
2.29535e-05
2.27181e-05
2.27388e-05
2.09675e-05
2.10235e-05
2.28639e-05
2.57471e-05
2.55547e-05
2.30515e-05
2.15885e-05
2.17091e-05
2.41461e-05
3.81452e-05
5.37596e-05
5.74718e-05
5.67823e-05
5.09787e-05
4.0571e-05
3.38367e-05
3.0462e-05
2.9491e-05
2.0548e-05
2.11685e-05
2.1305e-05
2.24835e-05
2.31243e-05
2.2029e-05
2.10048e-05
2.09566e-05
2.1678e-05
2.4238e-05
3.04695e-05
5.03849e-05
6.85963e-05
7.39638e-05
7.32132e-05
6.53421e-05
5.02198e-05
4.22223e-05
2.44127e-05
2.3227e-05
2.12659e-05
2.05534e-05
2.03638e-05
2.0364e-05
2.05136e-05
2.10664e-05
2.30349e-05
3.25187e-05
5.83541e-05
7.09782e-05
7.16418e-05
6.46869e-05
4.58757e-05
3.50141e-05
3.00979e-05
2.77478e-05
2.25115e-05
2.29968e-05
2.1102e-05
2.01082e-05
1.9919e-05
1.98561e-05
1.97551e-05
1.9549e-05
1.94023e-05
1.93527e-05
1.93669e-05
1.94076e-05
1.93833e-05
1.91721e-05
1.87441e-05
1.8426e-05
1.79343e-05
1.67858e-05
2.00569e-05
1.82633e-05
1.20214e-05
1.20308e-05
1.43645e-05
1.65722e-05
1.78121e-05
1.86981e-05
1.89743e-05
1.8911e-05
1.86008e-05
1.82082e-05
1.75544e-05
1.66841e-05
1.58864e-05
1.53279e-05
1.50218e-05
1.48961e-05
2.41956e-05
2.30564e-05
2.46358e-05
4.03007e-05
7.24392e-05
9.02757e-05
9.77016e-05
9.84772e-05
9.54409e-05
8.36808e-05
6.6281e-05
5.21011e-05
4.1283e-05
3.35731e-05
2.85703e-05
2.57282e-05
2.44306e-05
2.40859e-05
0.000381741
0.000176374
0.000100544
0.000199106
0.000433625
0.00052739
0.000538105
0.000510329
0.000386402
0.000256124
0.000167474
0.00010761
6.90245e-05
4.62254e-05
3.46575e-05
3.02702e-05
2.95667e-05
3.03918e-05
0.129858
0.150921
0.137527
0.111671
0.103918
0.102878
0.0949364
0.0903898
0.0879683
0.100501
0.104749
0.102353
0.0957499
0.0897617
0.0855088
0.0823109
0.0795607
0.0777675
0.0761699
0.0750348
0.0743425
0.0736001
0.0734809
0.0736072
0.0739052
0.0744679
0.0749018
0.0758565
0.078344
0.0798475
0.083031
0.0865062
0.0935498
0.159084
0.235448
0.241292
0.231889
0.219646
0.192006
0.180223
0.179464
0.179704
0.169667
0.145225
0.139804
0.13839
0.142951
0.16641
0.189765
0.192015
0.200194
0.268896
0.336876
0.16806
0.0563904
0.0419563
0.0388501
0.038964
0.0398195
0.0442499
0.0464506
0.0429849
0.0265337
0.0167541
0.0122692
0.00914617
0.00807828
0.00787453
0.00825209
0.00833967
0.00835865
0.00829914
0.00806941
0.00780721
0.00755116
0.00713718
0.00659485
0.00609009
0.00563772
0.00521385
0.00483509
0.00448085
0.00407404
0.0038278
0.00354469
0.00334826
0.0032046
0.00304167
0.00290641
0.00277865
0.00270265
0.00259005
0.00250051
0.00244955
0.00241211
0.00238309
0.00234827
0.00232369
0.00230654
0.0022997
0.0022931
0.00228258
0.00227884
0.00227396
0.00226423
0.00224647
0.0022397
0.00221984
0.00220137
0.00218551
0.00216735
0.00215076
0.00213451
0.00211897
0.00210423
0.00209148
0.00208085
0.00206504
0.002053
0.00203938
0.00202148
0.00199919
0.00197514
0.00194926
0.0019211
0.00189081
0.0018593
0.00183036
0.00181133
0.00179918
0.00179386
0.00179456
0.00180473
0.00183872
0.00187476
0.00189578
0.00190758
0.00191555
0.00192091
0.00192255
0.00191569
0.00187424
0.00178159
0.00172219
0.00167741
0.00159093
0.00134824
0.000914476
0.000597308
0.000456008
0.000431811
0.000452568
0.000557818
0.000638806
0.000647827
0.000561649
0.000317471
0.000167786
9.70871e-05
5.96694e-05
3.81651e-05
2.58009e-05
1.87599e-05
1.45996e-05
1.18731e-05
9.882e-06
8.29387e-06
6.99388e-06
5.87e-06
4.90984e-06
4.03482e-06
3.29316e-06
2.61571e-06
2.07665e-06
1.59041e-06
1.22734e-06
9.19115e-07
6.19531e-07
8.69434e-07
1.55742e-06
0.111757
0.125188
0.115909
0.113148
0.122521
0.119442
0.111711
0.0954265
0.0805612
0.0673662
0.0573961
0.0510053
0.0461704
0.0433481
0.041636
0.0405126
0.0397436
0.0393586
0.0391186
0.0390577
0.0390935
0.0392076
0.039495
0.0397329
0.0401992
0.0408984
0.0424836
0.0441302
0.0475884
0.0514684
0.0562102
0.065849
0.0734888
0.0915197
0.141743
0.209537
0.26175
0.235343
0.211034
0.223572
0.236292
0.225175
0.187573
0.149541
0.137988
0.138165
0.137149
0.142498
0.165469
0.187211
0.193799
0.186283
0.12054
0.0639416
0.0416084
0.034195
0.0309757
0.0298655
0.0295255
0.0290601
0.0256531
0.0193163
0.0165114
0.0157667
0.0158248
0.0168122
0.0171885
0.0174622
0.0176557
0.0177447
0.0178461
0.0178867
0.0179011
0.0178974
0.0178095
0.0175853
0.017263
0.0168213
0.0162021
0.0154243
0.0144103
0.0130766
0.0116764
0.0102087
0.00878132
0.00757571
0.00699369
0.00628603
0.00576829
0.00547587
0.00517483
0.00487985
0.00462041
0.00441869
0.00427913
0.00420115
0.00406418
0.00396521
0.00390513
0.00386483
0.00384672
0.00381819
0.00376915
0.00374084
0.00370745
0.00360738
0.00354257
0.00343135
0.00332413
0.00321408
0.00311401
0.00302448
0.00293918
0.00285704
0.00277769
0.00270196
0.00263306
0.00256951
0.00251003
0.00245866
0.00241585
0.00238189
0.00235729
0.00234118
0.00232644
0.00230477
0.00227458
0.00222384
0.00213444
0.00200952
0.0018585
0.00169959
0.00156785
0.00146519
0.00139731
0.00137556
0.00138257
0.00143923
0.00154747
0.00164723
0.00172293
0.00176999
0.00181653
0.00188563
0.00196671
0.00202328
0.00203826
0.00203503
0.00200928
0.00192653
0.00186968
0.00184899
0.00183212
0.00179311
0.00168458
0.00147893
0.00124627
0.00101674
0.000812065
0.00064039
0.000501817
0.000394014
0.000312294
0.000251434
0.000206238
0.00017337
0.000149263
0.0001316
0.000116884
0.000103825
9.01587e-05
7.68995e-05
6.33943e-05
5.13815e-05
4.06447e-05
3.12715e-05
2.56012e-05
1.83681e-05
1.60433e-05
1.04371e-05
0.107288
0.0924542
0.0921147
0.112298
0.114223
0.10746
0.0885637
0.0637026
0.0477254
0.040485
0.0369196
0.0349874
0.0338381
0.033203
0.0328681
0.0326703
0.0326306
0.0326607
0.0327379
0.0329282
0.033124
0.03351
0.0340072
0.0343861
0.0352539
0.0358464
0.0368917
0.0378348
0.0388002
0.0404459
0.0420001
0.0454278
0.0499372
0.0565473
0.071162
0.103918
0.200188
0.225774
0.241551
0.282526
0.288308
0.272109
0.223622
0.156374
0.133323
0.139858
0.147073
0.147759
0.158814
0.148959
0.0994872
0.0538295
0.0351015
0.0268179
0.0241115
0.0230898
0.0225367
0.0218994
0.0213126
0.0203593
0.0186312
0.0176083
0.0173647
0.0176356
0.0181046
0.0182061
0.018259
0.0183938
0.0185497
0.0186173
0.0187204
0.0188714
0.0189904
0.019137
0.0193248
0.0194682
0.019541
0.0195784
0.019593
0.0195827
0.0194359
0.0191057
0.0186565
0.0178867
0.0165986
0.0147971
0.012533
0.0104807
0.00877326
0.00790742
0.00716534
0.00663778
0.00638012
0.00608481
0.00589955
0.00577835
0.00565775
0.00559839
0.00552191
0.00547556
0.00542526
0.00538912
0.00533059
0.00526757
0.00522007
0.00512832
0.00503839
0.00492339
0.00478107
0.00461683
0.00442481
0.00420478
0.00397247
0.00373706
0.0035134
0.003302
0.00310145
0.00291333
0.00274406
0.00259569
0.00245885
0.0023369
0.0022326
0.00215248
0.00211011
0.00211376
0.00217897
0.00230542
0.00242301
0.00247963
0.00248466
0.00243513
0.00219418
0.00176198
0.00133408
0.000986523
0.000785398
0.00069131
0.000619676
0.000570425
0.000561187
0.000575039
0.000634654
0.00082665
0.00111357
0.00134781
0.00149374
0.00154862
0.00155041
0.00151622
0.00142647
0.00138163
0.00137027
0.00136762
0.00136076
0.00133933
0.00128114
0.00111713
0.000916656
0.000750835
0.000618581
0.000511763
0.00042293
0.000347874
0.000285753
0.000236264
0.000199059
0.000170857
0.000149975
0.000133293
0.000120817
0.000109408
0.000100065
8.88978e-05
7.94359e-05
6.68659e-05
5.80621e-05
4.53276e-05
3.91816e-05
2.79618e-05
0.0937937
0.103685
0.148872
0.137151
0.107802
0.0664527
0.0456992
0.0377777
0.034852
0.033528
0.0327243
0.0320753
0.0315655
0.0312287
0.0310335
0.0309664
0.0309919
0.0311017
0.0312031
0.0314442
0.0316615
0.0319198
0.0322077
0.0323635
0.0327334
0.0329952
0.0334219
0.0345093
0.0356553
0.0377263
0.0393694
0.040951
0.0435623
0.0462752
0.0511945
0.0616926
0.0873172
0.152888
0.204268
0.25653
0.279243
0.275666
0.243723
0.165769
0.109687
0.110641
0.128675
0.12342
0.098701
0.0582147
0.0325968
0.0202538
0.0161076
0.0150877
0.0150701
0.0166365
0.0182438
0.0193335
0.0196236
0.01951
0.0190047
0.0186688
0.0185913
0.0183984
0.0181784
0.0181138
0.0180886
0.0180734
0.0180015
0.0178343
0.0175862
0.0173081
0.017103
0.0170114
0.016983
0.0170683
0.0172089
0.0174708
0.0178451
0.0182904
0.0187022
0.0190722
0.0192466
0.0193122
0.0190808
0.0185155
0.0177225
0.0164871
0.0146918
0.012384
0.0103148
0.00859869
0.00756086
0.00702451
0.00669324
0.00643678
0.00627745
0.00614328
0.00603947
0.00596487
0.00586169
0.00576551
0.00568077
0.0055849
0.00550593
0.00542946
0.00535868
0.00529094
0.00521067
0.00512858
0.00504048
0.00494344
0.00484013
0.00473104
0.00460684
0.00446573
0.00430349
0.00411533
0.00388954
0.00361996
0.00332035
0.00299024
0.00263442
0.00227696
0.00196885
0.00173213
0.00155733
0.00146537
0.00145898
0.00162789
0.00210233
0.00252847
0.00280488
0.00289964
0.00289137
0.00274778
0.00230192
0.00185156
0.00152315
0.0013512
0.00128369
0.00125287
0.00127153
0.0015115
0.00175471
0.0018101
0.00179319
0.00172374
0.00166672
0.00153925
0.00126524
0.00109007
0.00105127
0.00106474
0.00115713
0.00125961
0.00128015
0.00126557
0.00120862
0.00116486
0.00112531
0.00104087
0.000878366
0.000699231
0.000533554
0.000395838
0.000289728
0.000211314
0.000155935
0.000117837
9.43428e-05
8.05349e-05
7.35919e-05
6.86336e-05
6.44749e-05
5.8628e-05
5.18436e-05
4.37732e-05
3.60586e-05
2.79803e-05
0.0704848
0.120605
0.0934858
0.0538984
0.0400196
0.035352
0.0339366
0.0334359
0.0331709
0.0327532
0.0322568
0.0318055
0.0315417
0.0315472
0.0317902
0.0322771
0.0329209
0.0339716
0.0345391
0.0358403
0.0366554
0.0372482
0.0379103
0.0377066
0.0370599
0.0357476
0.0339477
0.0332831
0.033253
0.0335294
0.0345111
0.0363015
0.0383212
0.0405166
0.0430643
0.0469911
0.0552718
0.0769734
0.110034
0.171718
0.231554
0.239854
0.22918
0.169042
0.0767971
0.0770588
0.0827662
0.064791
0.0413268
0.022084
0.0135764
0.0102724
0.00947585
0.00947938
0.0106799
0.0130551
0.0154002
0.017489
0.0186232
0.0188913
0.018896
0.0187218
0.0185505
0.0182601
0.0180139
0.0179634
0.0179552
0.0178875
0.0175356
0.0167549
0.0155302
0.0140192
0.0124983
0.0113917
0.0106824
0.0100987
0.00970444
0.0095395
0.00950005
0.0100338
0.0108633
0.0121714
0.0136305
0.0152917
0.0166762
0.0174117
0.0177223
0.0175465
0.0168447
0.0158344
0.0146181
0.0129652
0.0109996
0.00930459
0.00800796
0.00724467
0.00671416
0.0063822
0.00617094
0.00600472
0.00585757
0.00568773
0.00555816
0.00541321
0.00528556
0.00515937
0.00505085
0.0049656
0.00490251
0.00487183
0.00485572
0.0048403
0.00481481
0.00477425
0.00472398
0.00466385
0.00459049
0.00450547
0.0044194
0.00433373
0.00423442
0.00411382
0.00395678
0.0037255
0.00335551
0.00281886
0.00219417
0.00162059
0.00123545
0.00100817
0.000925204
0.000942385
0.00121083
0.00204891
0.0026864
0.00294347
0.00296989
0.00286988
0.00240268
0.00180382
0.00142786
0.00126235
0.00121714
0.00123688
0.00146246
0.00187239
0.0020484
0.00206931
0.00203768
0.00193162
0.00187229
0.00179595
0.00164586
0.00151856
0.00147332
0.00147461
0.0015042
0.00161393
0.00171589
0.00176737
0.00178088
0.00177378
0.00171321
0.00147551
0.00115113
0.000897076
0.000698288
0.000523822
0.000359248
0.000219566
0.000123785
7.35443e-05
5.29266e-05
4.68446e-05
4.60886e-05
4.66258e-05
4.68103e-05
4.61107e-05
4.32525e-05
3.40922e-05
0.0616647
0.0484794
0.0360805
0.0335817
0.0332624
0.0333997
0.0335927
0.0335513
0.0334728
0.033385
0.0334945
0.0342576
0.0357617
0.0378351
0.0403816
0.0434277
0.0467568
0.0507267
0.0541296
0.0605882
0.0650063
0.0694666
0.0743702
0.0748554
0.0734759
0.0689725
0.061671
0.0527635
0.0450844
0.0398169
0.0375299
0.0374636
0.037917
0.0391479
0.0403459
0.0418491
0.0449123
0.0519367
0.066841
0.0908923
0.143629
0.181475
0.180192
0.149001
0.0653755
0.0534805
0.050138
0.0297298
0.018265
0.0103516
0.0074229
0.00648006
0.00632942
0.00668394
0.00816268
0.0105013
0.0133245
0.0163157
0.0180931
0.0185924
0.0186644
0.0186
0.0183857
0.0180307
0.0178162
0.0177753
0.0177623
0.0175748
0.016725
0.0148102
0.0120224
0.00956675
0.00856155
0.00807667
0.00766254
0.00712274
0.00664157
0.00625596
0.00569997
0.00520284
0.00484523
0.00462
0.00464905
0.00527429
0.00666835
0.00885338
0.0113221
0.0134499
0.0147886
0.0152643
0.0149747
0.0141654
0.0130419
0.0118205
0.01056
0.00946706
0.00846484
0.00766967
0.00712616
0.00666924
0.00634125
0.00601298
0.00574177
0.00550765
0.00531759
0.00515036
0.00500699
0.00488301
0.00478585
0.00470998
0.00465134
0.00460622
0.00457117
0.00454188
0.00451946
0.00450116
0.00448263
0.00445476
0.00441283
0.00435625
0.00428832
0.00421289
0.0041397
0.00406982
0.00398771
0.0038712
0.00364538
0.00316498
0.00238036
0.00157371
0.00102175
0.000723795
0.000618919
0.000623917
0.000807383
0.00165196
0.00249146
0.00281084
0.00283957
0.00269981
0.00212503
0.00156963
0.0012771
0.0011719
0.00118509
0.0013906
0.00189161
0.00216601
0.00227184
0.00234352
0.00241
0.0024408
0.00244222
0.00242244
0.00231351
0.00201303
0.00183851
0.00181435
0.00182749
0.00185363
0.0018573
0.00184215
0.00175593
0.00151365
0.00125281
0.00101906
0.000823972
0.00066883
0.000538876
0.000418346
0.000305422
0.000210905
0.000143706
0.000104686
8.64548e-05
7.96959e-05
7.78685e-05
7.73562e-05
7.63028e-05
6.88204e-05
0.0272299
0.0307733
0.0314875
0.0331498
0.0340897
0.0345839
0.0344526
0.0342045
0.0341666
0.0347248
0.0364801
0.0391264
0.0416966
0.0447174
0.0485997
0.0534994
0.0591674
0.0657058
0.0742829
0.0843791
0.0945668
0.104927
0.114868
0.123368
0.129823
0.131296
0.129279
0.121962
0.104276
0.0790305
0.0599093
0.0483402
0.0425723
0.0408175
0.0408568
0.0412679
0.0422491
0.0447687
0.0505967
0.0622008
0.0897916
0.139205
0.151702
0.13777
0.0607519
0.0384473
0.0306555
0.0156884
0.00938652
0.00621506
0.00514507
0.00486881
0.00485945
0.00532133
0.00646435
0.00821182
0.0105637
0.0135211
0.0167476
0.0178521
0.0179931
0.0178053
0.0173613
0.0172326
0.0173157
0.0176031
0.0175658
0.0168472
0.0148117
0.0113948
0.00924103
0.00856012
0.00824436
0.00804794
0.0077511
0.00732773
0.00686107
0.0064163
0.00571093
0.00497032
0.00435187
0.00357777
0.00294235
0.00236639
0.00212663
0.00219764
0.00275963
0.00386915
0.00580875
0.00829065
0.0105524
0.011996
0.0123731
0.0118623
0.0109201
0.0100035
0.00912533
0.00831815
0.00765883
0.00716154
0.00671189
0.0062873
0.00592093
0.00561336
0.0053705
0.0051732
0.00501884
0.00489375
0.00479942
0.00472927
0.00466695
0.00461348
0.00457131
0.00453432
0.00450493
0.00448022
0.00445573
0.00442666
0.00438755
0.00433914
0.00427143
0.00417485
0.0040577
0.00396005
0.00392962
0.00390121
0.00383684
0.00372728
0.00351797
0.00301093
0.0020977
0.00127932
0.000757562
0.000506629
0.000444504
0.0004768
0.000767184
0.00173345
0.00238551
0.00256291
0.00252992
0.00217858
0.00156771
0.00128792
0.00123958
0.00128403
0.00158435
0.00207237
0.00238933
0.00260145
0.00273454
0.0027897
0.00279622
0.00278257
0.00270829
0.00245608
0.00217019
0.00199341
0.00193147
0.00191721
0.00189344
0.00182096
0.00160309
0.00134913
0.0011298
0.000932954
0.000757281
0.00060724
0.000485345
0.000389986
0.000315098
0.000252567
0.00019954
0.000157717
0.000128759
0.000111751
0.000103843
0.000100867
9.95776e-05
9.55971e-05
0.0303054
0.0322407
0.0334361
0.0350563
0.0350669
0.0346416
0.0339157
0.0336447
0.0337314
0.0347839
0.0369112
0.0395029
0.0416327
0.0446165
0.0486968
0.0541621
0.0605046
0.067866
0.0772125
0.0877655
0.0991234
0.110505
0.121904
0.132574
0.142904
0.152843
0.159141
0.159906
0.157322
0.148645
0.127194
0.0883377
0.0616036
0.0488101
0.0437358
0.0422075
0.0423758
0.0430985
0.045397
0.0512117
0.0659508
0.108602
0.132553
0.126725
0.059072
0.0293695
0.0201228
0.00971099
0.006122
0.0046799
0.004267
0.00419647
0.00434265
0.00483007
0.00572765
0.00704875
0.00878732
0.0108787
0.0131797
0.0151512
0.0160075
0.0165369
0.0171642
0.0178607
0.0186899
0.0187709
0.0179224
0.0150757
0.010987
0.00977895
0.00957378
0.00961689
0.00998765
0.0105614
0.0107412
0.0106783
0.00998603
0.00911867
0.00789843
0.00648866
0.00509625
0.00392629
0.00313743
0.00226056
0.00166815
0.0012945
0.0011085
0.00108606
0.00131412
0.00183176
0.00272874
0.00423266
0.00638753
0.00819461
0.00909051
0.0090581
0.00864389
0.00808605
0.00749926
0.00699623
0.00656856
0.00614377
0.00574358
0.00540994
0.00514922
0.00496327
0.00485017
0.00479532
0.00476309
0.00472965
0.00470286
0.00467207
0.00464361
0.00461453
0.00459451
0.00458516
0.00458121
0.00457277
0.0045472
0.00451053
0.00446003
0.00434773
0.00413314
0.00387273
0.00365025
0.00358062
0.00358287
0.00359376
0.00357703
0.00346551
0.00314058
0.00236236
0.00147442
0.000837479
0.000484942
0.000366267
0.000369717
0.00050609
0.00118686
0.00197318
0.00224206
0.00224342
0.00201067
0.00155183
0.00137818
0.00136758
0.00147315
0.00191754
0.00235337
0.00263139
0.00278067
0.00282489
0.00282276
0.00279511
0.00271818
0.00257198
0.0023961
0.0022546
0.00217933
0.00214858
0.00211209
0.00202351
0.00177338
0.00146416
0.00119392
0.000955052
0.000735009
0.000536592
0.000378799
0.000280706
0.00023511
0.000212558
0.000190074
0.000163385
0.000137577
0.000117769
0.000106303
0.000101266
9.96476e-05
9.82011e-05
0.0308072
0.0332405
0.0349455
0.03513
0.0334824
0.0306102
0.0293147
0.0288467
0.0287777
0.0294354
0.0293636
0.0286325
0.0283356
0.0301972
0.0332928
0.0394313
0.0465431
0.0540034
0.0608131
0.0697622
0.0805498
0.0930617
0.107151
0.122386
0.137029
0.150614
0.160958
0.166919
0.168397
0.167025
0.160547
0.143233
0.106649
0.0716115
0.0522793
0.0451566
0.0431085
0.0431671
0.0438595
0.0465589
0.0551039
0.0881516
0.11861
0.117453
0.0593074
0.0240531
0.0142907
0.00702147
0.00481672
0.00410711
0.00396187
0.00400994
0.00426231
0.00478204
0.00565082
0.00689061
0.00847796
0.0103206
0.0122958
0.0141772
0.0156744
0.0167758
0.0180586
0.0188403
0.0188757
0.0179733
0.0153156
0.0115229
0.0106405
0.0105947
0.0112924
0.0128665
0.0134175
0.0134666
0.0131118
0.0125376
0.0120384
0.0112533
0.00989116
0.00801212
0.005688
0.0039656
0.00323652
0.00245239
0.00171935
0.00127497
0.000956679
0.000735109
0.000620705
0.0006231
0.00076447
0.00108534
0.00164358
0.00246206
0.0036095
0.00484156
0.00558849
0.00592801
0.00597964
0.00580388
0.00546922
0.00523254
0.00507041
0.00493797
0.00483657
0.00476848
0.0047285
0.00471137
0.00470548
0.00470474
0.00470822
0.00472102
0.00473375
0.00474572
0.00475865
0.00477293
0.0047844
0.00479019
0.00478727
0.00474981
0.00465504
0.00457028
0.00443711
0.00412274
0.00365025
0.00326201
0.00309314
0.00307605
0.00313082
0.00320835
0.00319997
0.00301697
0.00235851
0.00147283
0.000827501
0.000457982
0.000324012
0.000319483
0.000418198
0.000958086
0.0017189
0.00199707
0.002003
0.00181958
0.00153476
0.00146336
0.00149383
0.00175073
0.00224209
0.0025453
0.0026732
0.00268437
0.00262486
0.00253591
0.00250771
0.00248611
0.00244811
0.00240879
0.00237986
0.00234553
0.00227245
0.00208578
0.00180741
0.001517
0.00123687
0.000976501
0.000742508
0.000540062
0.000374296
0.000255121
0.000193575
0.000176807
0.000171964
0.000164002
0.000142812
0.000116738
9.96926e-05
9.19274e-05
9.01171e-05
9.08004e-05
0.031353
0.0344448
0.0344301
0.0306264
0.0240905
0.0220274
0.0214272
0.0211479
0.0208044
0.0200674
0.0184601
0.0160922
0.0143118
0.0135956
0.0137157
0.0157101
0.0194912
0.0249644
0.0316549
0.0391876
0.0464319
0.0545969
0.0636598
0.0761769
0.0934464
0.11586
0.137989
0.154271
0.164085
0.167235
0.16581
0.156685
0.129794
0.0986069
0.071184
0.0537198
0.0458725
0.0436475
0.0436987
0.0449336
0.0504427
0.0768865
0.108648
0.109801
0.0601526
0.0212146
0.0110429
0.00571348
0.00427876
0.00393044
0.00390122
0.00402577
0.00437813
0.00506569
0.00613446
0.00758786
0.00939276
0.0114525
0.013572
0.0155022
0.0172558
0.0184599
0.0188577
0.018651
0.0177823
0.0146728
0.0113589
0.0106844
0.0109178
0.012601
0.0142775
0.0146387
0.0146352
0.0141332
0.0132798
0.0126407
0.0122555
0.0116447
0.0103587
0.00842044
0.00588435
0.00378268
0.00283233
0.00224501
0.00165227
0.00124682
0.000938621
0.000691219
0.000508198
0.000401427
0.000363774
0.000385953
0.000495231
0.000749228
0.00119745
0.00186958
0.00267591
0.00340917
0.0039951
0.0044127
0.00466671
0.00477606
0.00479571
0.00477142
0.0047278
0.00469816
0.00468171
0.00467879
0.00468009
0.00468535
0.00470021
0.00473826
0.00479682
0.00485989
0.00491342
0.00494837
0.00496299
0.00496402
0.00495308
0.00489299
0.00472006
0.00459491
0.00448638
0.00428072
0.00380076
0.00318549
0.00272461
0.00253118
0.00251427
0.0026008
0.00278501
0.00282981
0.00273023
0.00218191
0.00132428
0.000726995
0.000399404
0.00028812
0.000288073
0.00039607
0.000951587
0.00161407
0.00183078
0.0018245
0.00166239
0.00152192
0.001516
0.00162138
0.00197921
0.00224158
0.0023437
0.00235241
0.00230895
0.00222596
0.00222184
0.00228176
0.0023616
0.00237513
0.00236915
0.00234104
0.00225552
0.00201603
0.00170105
0.00140936
0.00114878
0.000911082
0.000693616
0.00050375
0.000351883
0.000246197
0.000190053
0.000172584
0.000167157
0.000160274
0.000142047
0.000110203
8.64823e-05
7.46374e-05
7.13437e-05
7.23713e-05
0.0319304
0.0332325
0.0279672
0.0199534
0.0185092
0.0184356
0.0192325
0.0194914
0.0194426
0.0187927
0.0169791
0.01426
0.0120479
0.0099073
0.00904452
0.0088054
0.00986505
0.0130897
0.0203305
0.0275172
0.0338588
0.0404013
0.0461894
0.0516161
0.0575412
0.0659379
0.0823653
0.107022
0.130845
0.144906
0.149805
0.145259
0.124324
0.0974645
0.074711
0.0582859
0.0485674
0.044471
0.0437819
0.0445083
0.0486167
0.0708718
0.100198
0.102952
0.0618475
0.0199903
0.00928009
0.00505904
0.00405365
0.00389522
0.00392555
0.00421394
0.00498584
0.00645878
0.0085175
0.0114002
0.015314
0.0182218
0.0196075
0.0197637
0.0196897
0.0188183
0.0184495
0.0170493
0.0132697
0.0109673
0.0103072
0.010501
0.0123277
0.0146448
0.0152269
0.0152699
0.0148741
0.0138592
0.0121861
0.0113561
0.01123
0.0112368
0.0102122
0.00814082
0.00521653
0.00285204
0.00168966
0.00121993
0.00102343
0.000877681
0.000745798
0.000606171
0.000459055
0.000340476
0.000268997
0.000233997
0.000225907
0.000245915
0.000327041
0.000538279
0.000995173
0.00169811
0.00250554
0.00323819
0.00375771
0.00411046
0.00433114
0.00445601
0.00451829
0.00455374
0.00457821
0.00459651
0.00460971
0.00462481
0.00465298
0.00471422
0.00479498
0.00487727
0.00494516
0.0049866
0.00500098
0.00500079
0.0049882
0.00493222
0.00475014
0.00452763
0.00436475
0.00418001
0.00378744
0.00314045
0.00249086
0.00207688
0.00194287
0.00194723
0.00209342
0.00237257
0.00245229
0.00237881
0.00188241
0.0010972
0.00058443
0.000328516
0.000257108
0.000270129
0.000428445
0.00106238
0.00157472
0.00170873
0.00168486
0.00154662
0.00149428
0.00152373
0.00173305
0.00201183
0.00216073
0.00220883
0.00220469
0.00214331
0.0020674
0.00207439
0.0021678
0.00224486
0.00224915
0.00220694
0.00208596
0.00191622
0.00167352
0.00138064
0.00109492
0.000848849
0.000643579
0.000472262
0.000333492
0.0002334
0.000179749
0.000161527
0.000155249
0.000149956
0.000137859
0.000110001
8.51015e-05
7.09323e-05
6.58482e-05
6.56253e-05
0.031605
0.0305791
0.020091
0.0170432
0.0170429
0.0187078
0.0204798
0.021205
0.0214366
0.0210059
0.0177335
0.014514
0.0125276
0.00964024
0.00801563
0.00690345
0.0061384
0.00578924
0.00740397
0.0117192
0.0201365
0.0302642
0.0376281
0.043212
0.0471744
0.0504745
0.0537784
0.0595738
0.0717013
0.0902603
0.105807
0.111483
0.105692
0.0894004
0.0717333
0.057501
0.0484434
0.0445357
0.043602
0.0436886
0.0471235
0.0643314
0.093668
0.0980573
0.0642076
0.0204377
0.00837558
0.00475661
0.0039877
0.00390554
0.00410258
0.00477074
0.0065955
0.010542
0.0191531
0.0238145
0.0256195
0.0249563
0.0221519
0.0206252
0.0195598
0.017553
0.0153384
0.0122166
0.0100702
0.00957285
0.00975212
0.0112235
0.0140207
0.0151576
0.0153333
0.0149804
0.0138935
0.0120298
0.0103196
0.0100519
0.00992746
0.00948795
0.00829063
0.00571206
0.0028375
0.00159659
0.000971142
0.000634111
0.000454627
0.000366459
0.000331015
0.000321788
0.000313139
0.000279881
0.00022957
0.000188908
0.000165005
0.000152476
0.00014952
0.000157482
0.00019377
0.000293584
0.000527727
0.000970501
0.00163857
0.00237696
0.00302811
0.00349143
0.00381221
0.00404167
0.00420182
0.00431092
0.00438006
0.0044338
0.00450137
0.0045897
0.00469078
0.00478576
0.00485742
0.00489879
0.00491135
0.00490906
0.00489219
0.00483725
0.00466432
0.0042702
0.00388144
0.00355513
0.00318015
0.00265761
0.00206396
0.00160201
0.00138881
0.00135601
0.00139169
0.00164024
0.00196918
0.00205157
0.00197839
0.00149952
0.000837216
0.000437476
0.000264895
0.000234054
0.000271544
0.000545474
0.00120741
0.00154108
0.00160053
0.00154874
0.00144114
0.0014326
0.001512
0.00180831
0.00202807
0.00210736
0.00211218
0.00207639
0.00196576
0.00190923
0.0019185
0.0019935
0.00202006
0.00199036
0.0018563
0.00177995
0.00171086
0.00154575
0.00122895
0.000927699
0.00068307
0.000493223
0.000347903
0.000244315
0.000184617
0.000156348
0.000143459
0.000138133
0.000131836
0.000116372
9.33526e-05
7.68476e-05
6.90365e-05
6.71101e-05
0.0309065
0.0256152
0.0172987
0.0164185
0.0178628
0.0213894
0.0267385
0.0292345
0.0301082
0.0295182
0.024166
0.0188519
0.0160518