/*--------------------------------*- C++ -*----------------------------------*\
  =========                 |
  \\      /  F ield         | OpenFOAM: The Open Source CFD Toolbox
   \\    /   O peration     | Website:  https://openfoam.org
    \\  /    A nd           | Version:  9
     \\/     M anipulation  |
\*---------------------------------------------------------------------------*/
FoamFile
{
    format      ascii;
    class       volScalarField;
    location    "0.045";
    object      p;
}
// * * * * * * * * * * * * * * * * * * * * * * * * * * * * * * * * * * * * * //

dimensions      [0 2 -2 0 0 0 0];

internalField   nonuniform List<scalar> 
12225
(
-188.251
-177.349
-171.382
-167.514
-164.731
-162.734
-161.286
-160.186
-159.283
-158.517
-157.886
-157.457
-157.228
-157.287
-157.57
-158.278
-159.34
-161.286
-187.501
-177.154
-171.273
-167.47
-164.715
-162.723
-161.265
-160.155
-159.251
-158.486
-157.86
-157.412
-157.195
-157.195
-157.508
-158.08
-159.061
-160.172
-186.977
-176.709
-171.031
-167.347
-164.649
-162.677
-161.213
-160.092
-159.182
-158.426
-157.809
-157.372
-157.133
-157.111
-157.332
-157.789
-158.45
-159.191
-184.381
-175.954
-170.687
-167.153
-164.536
-162.604
-161.15
-160.029
-159.123
-158.363
-157.744
-157.292
-157.032
-156.961
-157.096
-157.409
-157.847
-158.323
-182.853
-175.058
-170.188
-166.848
-164.356
-162.475
-161.029
-159.906
-159.001
-158.257
-157.646
-157.187
-156.9
-156.776
-156.813
-156.985
-157.237
-157.494
-177.782
-173.761
-169.567
-166.461
-164.121
-162.318
-160.909
-159.809
-158.911
-158.151
-157.529
-157.053
-156.728
-156.545
-156.489
-156.533
-156.626
-156.709
-177.222
-172.532
-168.798
-165.97
-163.804
-162.085
-160.703
-159.611
-158.743
-157.999
-157.373
-156.881
-156.518
-156.271
-156.123
-156.046
-156
-155.939
-175.652
-171.042
-167.862
-165.331
-163.39
-161.801
-160.498
-159.447
-158.577
-157.827
-157.189
-156.669
-156.26
-155.947
-155.712
-155.528
-155.364
-155.182
-170.449
-169.446
-166.962
-164.758
-162.942
-161.464
-160.226
-159.206
-158.35
-157.605
-156.957
-156.41
-155.956
-155.579
-155.261
-154.98
-154.71
-154.423
-168.421
-167.797
-165.716
-163.904
-162.351
-161.029
-159.891
-158.931
-158.104
-157.365
-156.706
-156.132
-155.633
-155.192
-154.796
-154.425
-154.058
-153.669
-167.915
-166.478
-164.793
-163.214
-161.779
-160.574
-159.526
-158.619
-157.818
-157.09
-156.428
-155.833
-155.29
-154.788
-154.315
-153.858
-153.401
-152.923
-168.389
-165.162
-163.507
-162.212
-161.059
-160.034
-159.109
-158.275
-157.506
-156.787
-156.121
-155.508
-154.936
-154.392
-153.867
-153.35
-152.823
-152.272
-166.392
-163.479
-162.391
-161.376
-160.439
-159.565
-158.728
-157.938
-157.19
-156.481
-155.814
-155.185
-154.581
-153.993
-153.412
-152.828
-152.229
-151.606
-164.26
-161.453
-160.7
-160.121
-159.464
-158.817
-158.153
-157.468
-156.771
-156.084
-155.422
-154.779
-154.142
-153.506
-152.87
-152.227
-151.566
-150.873
-151.927
-157.254
-158.71
-158.851
-158.582
-158.149
-157.609
-156.986
-156.314
-155.639
-154.972
-154.303
-153.621
-152.923
-152.214
-151.495
-150.765
-150.018
-150.397
-155.036
-156.79
-157.311
-157.336
-157.155
-156.831
-156.348
-155.749
-155.102
-154.431
-153.733
-153.014
-152.284
-151.546
-150.794
-150.022
-149.227
-153.506
-153.929
-155.263
-156.09
-156.453
-156.5
-156.281
-155.836
-155.252
-154.6
-153.903
-153.168
-152.404
-151.619
-150.817
-149.997
-149.154
-148.287
-148.808
-151.766
-153.854
-154.947
-155.598
-155.799
-155.678
-155.31
-154.777
-154.137
-153.418
-152.643
-151.832
-150.998
-150.149
-149.291
-148.427
-147.555
-131.673
-144.267
-151.035
-154.369
-155.716
-156.042
-155.871
-155.418
-154.767
-153.993
-153.156
-152.291
-151.406
-150.508
-149.602
-148.693
-147.785
-146.879
-147.529
-155.914
-158.19
-158.57
-158.245
-157.547
-156.762
-155.95
-155.063
-154.117
-153.159
-152.209
-151.257
-150.299
-149.342
-148.394
-147.458
-146.535
-182.324
-169.052
-164.616
-162.252
-160.591
-159.205
-157.938
-156.744
-155.584
-154.443
-153.338
-152.274
-151.233
-150.209
-149.205
-148.225
-147.266
-146.33
-186.771
-176.801
-169.405
-165.272
-162.518
-160.416
-158.714
-157.261
-155.937
-154.685
-153.496
-152.36
-151.261
-150.192
-149.156
-148.153
-147.181
-146.238
-190.141
-177.785
-170.89
-166.617
-163.577
-161.301
-159.432
-157.795
-156.309
-154.938
-153.659
-152.455
-151.306
-150.202
-149.137
-148.11
-147.119
-146.162
-194.492
-179.58
-171.791
-167.276
-164.133
-161.713
-159.734
-158.026
-156.488
-155.072
-153.752
-152.507
-151.322
-150.19
-149.108
-148.074
-147.081
-146.126
-184.007
-175.71
-170.854
-167.222
-164.382
-162.049
-160.05
-158.276
-156.678
-155.214
-153.853
-152.574
-151.362
-150.208
-149.109
-148.061
-147.058
-146.094
-175.581
-173.116
-169.983
-167.02
-164.382
-162.121
-160.128
-158.343
-156.733
-155.251
-153.866
-152.566
-151.342
-150.185
-149.087
-148.044
-147.046
-146.087
-169.943
-170.589
-169.023
-166.756
-164.391
-162.22
-160.241
-158.445
-156.824
-155.331
-153.93
-152.609
-151.363
-150.186
-149.075
-148.024
-147.026
-146.069
-164.194
-168.752
-168.371
-166.539
-164.322
-162.209
-160.245
-158.453
-156.833
-155.337
-153.931
-152.603
-151.348
-150.164
-149.053
-148.009
-147.019
-146.067
-164.358
-167.92
-168.007
-166.403
-164.306
-162.24
-160.279
-158.483
-156.865
-155.373
-153.961
-152.617
-151.34
-150.138
-149.018
-147.978
-147.002
-146.066
-161.561
-167.425
-167.87
-166.338
-164.271
-162.226
-160.269
-158.472
-156.855
-155.367
-153.959
-152.615
-151.333
-150.124
-149
-147.959
-146.985
-146.049
-110.916
-111.513
-112.123
-112.678
-112.746
-112.127
-110.871
-109.425
-108.201
-107.579
-107.607
-108.251
-109.349
-110.722
-112.228
-113.762
-115.253
-116.65
-117.917
-119.023
-119.938
-120.626
-121.047
-121.161
-120.908
-120.28
-119.202
-117.718
-115.799
-113.624
-111.435
-109.493
-108.964
-109.905
-111.544
-112.843
-113.788
-115.487
-117.266
-118.02
-117.347
-115.275
-112.788
-112.053
-113.587
-115.801
-117.026
-116.672
-116.08
-115.594
-115.459
-115.786
-115.853
-115.794
-116.852
-119.535
-122.897
-126.48
-130.269
-134.843
-140.881
-148.548
-157.325
-166.302
-174.552
-181.379
-186.454
-189.832
-191.742
-192.361
-191.956
-190.675
-188.618
-185.856
-182.446
-178.458
-173.98
-169.119
-164.003
-158.765
-153.533
-148.416
-143.501
-138.844
-134.476
-130.408
-126.638
-123.152
-119.933
-116.962
-114.223
-111.699
-109.375
-107.236
-105.267
-103.454
-101.778
-100.222
-98.7659
-97.3855
-96.0578
-94.7619
-93.4827
-92.2119
-90.9469
-89.6908
-88.4513
-87.2389
-86.0634
-84.9314
-83.8447
-82.8002
-81.7907
-80.8056
-79.8343
-78.8629
-77.8861
-76.9003
-75.9081
-74.9175
-73.941
-72.9937
-72.0909
-71.2463
-70.4692
-69.7645
-69.1318
-68.5661
-68.0581
-67.5953
-67.1628
-66.7449
-66.3263
-65.8928
-65.4329
-64.9391
-64.4069
-63.8335
-63.2165
-62.5548
-61.8537
-61.1339
-60.4077
-59.6821
-58.9536
-58.2112
-57.4498
-56.6808
-55.9131
-55.1375
-54.3381
-53.5091
-52.6546
-51.7894
-50.9221
-50.0596
-49.2064
-48.3668
-47.5434
-46.7353
-45.9367
-45.1366
-44.3218
-43.4845
-42.6258
-41.7522
-40.87
-39.9821
-39.0885
-38.187
-37.2759
-36.3538
-35.4204
-34.4742
-33.5146
-32.5396
-31.5467
-30.5381
-29.5029
-28.4923
-113.174
-113.697
-114.053
-114.559
-114.71
-114.097
-112.914
-111.625
-110.684
-110.286
-110.471
-111.149
-112.153
-113.342
-114.614
-115.9
-117.157
-118.352
-119.458
-120.451
-121.302
-121.983
-122.456
-122.691
-122.648
-122.286
-121.569
-120.449
-118.986
-117.158
-115.335
-113.47
-112.418
-112.732
-112.43
-112.557
-114.596
-117.283
-120.041
-121.471
-121.513
-120.117
-117.636
-116.019
-116.758
-118.094
-118.847
-118.568
-117.317
-115.542
-113.393
-114.376
-115.715
-116.364
-117.955
-121.116
-125.389
-130.199
-135.339
-141.179
-148.238
-156.489
-165.284
-173.735
-181.049
-186.74
-190.662
-192.971
-193.996
-194.146
-193.465
-192.035
-189.919
-187.126
-183.685
-179.652
-175.104
-170.15
-164.921
-159.56
-154.206
-148.976
-143.961
-139.219
-134.779
-130.65
-126.826
-123.292
-120.031
-117.025
-114.255
-111.705
-109.36
-107.206
-105.23
-103.414
-101.743
-100.196
-98.7524
-97.3871
-96.0758
-94.7956
-93.5297
-92.2688
-91.01
-89.7566
-88.5174
-87.304
-86.1273
-84.9949
-83.9088
-82.8666
-81.8612
-80.8814
-79.9141
-78.9475
-77.9737
-76.989
-75.9956
-75.0016
-74.0201
-73.0667
-72.1574
-71.3062
-70.5227
-69.812
-69.1739
-68.6039
-68.0926
-67.6271
-67.1923
-66.7727
-66.3533
-65.9195
-65.459
-64.9639
-64.4309
-63.8568
-63.2394
-62.5813
-61.8914
-61.1736
-60.4467
-59.7209
-58.9862
-58.2314
-57.4562
-56.6792
-55.9093
-55.1363
-54.3388
-53.5056
-52.6465
-51.7773
-50.9104
-50.0529
-49.2062
-48.3718
-47.5508
-46.7432
-45.9432
-45.1407
-44.3232
-43.4837
-42.6239
-41.7505
-40.8692
-39.9821
-39.0887
-38.1869
-37.2757
-36.3541
-35.4217
-34.4776
-33.5203
-32.5497
-31.5603
-30.5609
-29.5316
-28.537
-112.176
-112.379
-112.556
-112.911
-113.37
-113.564
-113.436
-113.229
-113.211
-113.499
-114.06
-114.8
-115.648
-116.56
-117.514
-118.493
-119.481
-120.46
-121.409
-122.305
-123.119
-123.821
-124.375
-124.744
-124.889
-124.775
-124.369
-123.704
-122.829
-121.709
-120.484
-119.185
-117.997
-117.229
-116.654
-116.937
-117.957
-119.608
-122.257
-123.982
-124.19
-122.923
-120.325
-118.48
-118.612
-119.966
-120.55
-119.387
-117.624
-116.781
-116.185
-116.314
-117.736
-119.853
-122.741
-126.475
-131.124
-136.674
-143.075
-150.261
-158.14
-166.424
-174.578
-181.947
-187.981
-192.381
-195.154
-196.631
-197.13
-196.869
-195.953
-194.427
-192.274
-189.458
-185.974
-181.858
-177.183
-172.061
-166.633
-161.057
-155.489
-150.061
-144.871
-139.977
-135.406
-131.162
-127.234
-123.607
-120.263
-117.182
-114.347
-111.743
-109.355
-107.169
-105.172
-103.347
-101.677
-100.142
-98.7193
-97.3822
-96.1022
-94.853
-93.6145
-92.3757
-91.1321
-89.8872
-88.6512
-87.4374
-86.2594
-85.126
-84.041
-83.0034
-82.0054
-81.0337
-80.0749
-79.1159
-78.147
-77.1635
-76.1673
-75.1667
-74.1757
-73.2112
-72.2901
-71.4269
-70.6315
-69.9088
-69.259
-68.678
-68.1579
-67.6875
-67.2512
-66.8308
-66.4098
-65.9747
-65.5144
-65.0205
-64.4863
-63.9089
-63.2879
-62.6257
-61.931
-61.2148
-60.4845
-59.7455
-58.9995
-58.2457
-57.4787
-56.7005
-55.9151
-55.1195
-54.3068
-53.475
-52.6299
-51.7767
-50.9216
-50.0684
-49.223
-48.3901
-47.5697
-46.7581
-45.9489
-45.1341
-44.3065
-43.4632
-42.6051
-41.7356
-40.8579
-39.9737
-39.0825
-38.1835
-37.2753
-36.3573
-35.4289
-34.4902
-33.5382
-32.5759
-31.5966
-30.6138
-29.6107
-28.6485
-111.637
-111.643
-111.853
-112.238
-112.82
-113.477
-114.099
-114.679
-115.264
-115.887
-116.555
-117.261
-117.994
-118.749
-119.534
-120.353
-121.202
-122.073
-122.947
-123.799
-124.602
-125.323
-125.929
-126.385
-126.666
-126.75
-126.652
-126.324
-125.8
-125.089
-124.25
-123.322
-122.356
-121.541
-120.865
-120.55
-120.642
-121.259
-122.333
-122.788
-122.194
-120.759
-118.363
-116.401
-116.515
-117.899
-119.126
-119.439
-118.821
-118.525
-119.056
-120.413
-122.543
-125.358
-128.903
-133.219
-138.403
-144.508
-151.526
-159.304
-167.532
-175.755
-183.402
-189.88
-194.75
-197.913
-199.616
-200.225
-200.2
-199.692
-198.723
-197.229
-195.119
-192.318
-188.802
-184.601
-179.785
-174.466
-168.796
-162.953
-157.121
-151.453
-146.056
-140.987
-136.266
-131.888
-127.834
-124.085
-120.623
-117.432
-114.497
-111.805
-109.347
-107.111
-105.082
-103.243
-101.575
-100.058
-98.6673
-97.3727
-96.1407
-94.9398
-93.7442
-92.5398
-91.3202
-90.0889
-88.8579
-87.6433
-86.4627
-85.3271
-84.243
-83.2116
-82.2232
-81.2644
-80.3192
-79.3723
-78.4115
-77.4305
-76.4304
-75.4202
-74.4149
-73.4334
-72.4947
-71.6143
-70.8027
-70.0646
-69.4
-68.8047
-68.2701
-67.7839
-67.3332
-66.9045
-66.4823
-66.0482
-65.5882
-65.0956
-64.563
-63.9813
-63.351
-62.6805
-61.9809
-61.2602
-60.5254
-59.7826
-59.0313
-58.2725
-57.5032
-56.7164
-55.9164
-55.1092
-54.2934
-53.4651
-52.6263
-51.7811
-50.9319
-50.0819
-49.2377
-48.4041
-47.5809
-46.7638
-45.9474
-45.1264
-44.2962
-43.453
-42.5966
-41.7292
-40.8536
-39.9712
-39.0818
-38.1845
-37.2784
-36.3635
-35.4386
-34.5045
-33.5584
-32.6039
-31.636
-30.6681
-29.6904
-28.7518
-111.546
-111.618
-111.841
-112.428
-113.245
-114.095
-114.914
-115.722
-116.521
-117.289
-118.019
-118.734
-119.46
-120.215
-121.007
-121.84
-122.709
-123.604
-124.509
-125.403
-126.26
-127.05
-127.739
-128.294
-128.688
-128.895
-128.905
-128.709
-128.316
-127.746
-127.049
-126.271
-125.429
-124.59
-123.73
-122.838
-121.932
-121.024
-120.048
-118.741
-116.881
-114.498
-112.02
-110.088
-110.171
-111.876
-113.664
-115.583
-117.531
-119.58
-121.898
-124.558
-127.579
-131.064
-135.154
-139.98
-145.645
-152.179
-159.511
-167.438
-175.601
-183.488
-190.493
-196.05
-199.835
-201.975
-202.994
-203.134
-202.973
-202.521
-201.706
-200.387
-198.423
-195.713
-192.21
-187.931
-182.951
-177.388
-171.408
-165.22
-159.045
-153.076
-147.433
-142.169
-137.292
-132.778
-128.598
-124.724
-121.136
-117.817
-114.759
-111.955
-109.399
-107.083
-104.996
-103.127
-101.455
-99.9576
-98.6027
-97.3568
-96.1828
-95.0424
-93.9004
-92.7403
-91.5531
-90.3418
-89.1205
-87.9064
-86.7256
-85.5897
-84.5081
-83.4837
-82.5085
-81.5675
-80.6423
-79.7141
-78.7676
-77.7938
-76.7928
-75.7735
-74.753
-73.7527
-72.794
-71.8937
-71.0618
-70.3022
-69.615
-68.9975
-68.4445
-67.9465
-67.4881
-67.0492
-66.6094
-66.1567
-65.6854
-65.1882
-64.6566
-64.0753
-63.4403
-62.7574
-62.0434
-61.3114
-60.5691
-59.8158
-59.057
-58.2924
-57.521
-56.7335
-55.9268
-55.1068
-54.2794
-53.448
-52.6155
-51.7815
-50.9428
-50.0989
-49.2555
-48.419
-47.591
-46.7685
-45.9466
-45.1205
-44.2861
-43.4406
-42.5839
-41.7181
-40.8448
-39.9648
-39.0779
-38.1833
-37.2803
-36.369
-35.4484
-34.5193
-33.5799
-32.6333
-31.6772
-30.7225
-29.7673
-28.8453
-111.325
-111.776
-112.478
-113.193
-113.98
-114.885
-115.811
-116.681
-117.499
-118.301
-119.115
-119.944
-120.788
-121.649
-122.532
-123.439
-124.375
-125.33
-126.294
-127.25
-128.175
-129.041
-129.813
-130.456
-130.938
-131.228
-131.305
-131.167
-130.836
-130.293
-129.569
-128.719
-127.769
-126.738
-125.596
-124.282
-122.725
-120.819
-118.514
-115.826
-112.759
-109.602
-106.905
-105.317
-105.294
-107.203
-110.07
-113.489
-117.162
-120.895
-124.6
-128.311
-132.158
-136.316
-140.961
-146.25
-152.277
-159.054
-166.466
-174.263
-182.046
-189.29
-195.431
-200.033
-202.974
-204.496
-205.072
-205.432
-205.607
-205.544
-205.144
-204.215
-202.566
-200.036
-196.56
-192.17
-186.966
-181.082
-174.693
-168.04
-161.407
-155.04
-149.086
-143.586
-138.525
-133.857
-129.535
-125.524
-121.797
-118.341
-115.151
-112.224
-109.558
-107.15
-104.995
-103.078
-101.38
-99.8746
-98.5343
-97.3207
-96.188
-95.0978
-94.0038
-92.8894
-91.7432
-90.5671
-89.3736
-88.1818
-87.0143
-85.8884
-84.816
-83.8021
-82.8406
-81.9169
-81.0112
-80.1021
-79.1711
-78.2067
-77.207
-76.1811
-75.1478
-74.1316
-73.1568
-72.2416
-71.3949
-70.6183
-69.9103
-69.2678
-68.6875
-68.1636
-67.6848
-67.2334
-66.7889
-66.3306
-65.8433
-65.3199
-64.766
-64.1748
-63.5333
-62.8406
-62.1139
-61.3664
-60.6134
-59.8527
-59.0848
-58.3125
-57.5367
-56.7475
-55.9354
-55.104
-54.266
-53.4323
-52.6062
-51.7827
-50.9534
-50.1149
-49.2718
-48.4314
-47.5973
-46.7679
-45.9398
-45.1091
-44.2721
-43.4265
-42.5715
-41.7081
-40.8376
-39.9603
-39.0758
-38.1839
-37.2837
-36.3756
-35.4591
-34.535
-33.6023
-32.6635
-31.7185
-30.7758
-29.8384
-28.9288
-112.585
-112.978
-113.624
-114.398
-115.185
-115.934
-116.716
-117.566
-118.482
-119.437
-120.406
-121.37
-122.324
-123.271
-124.222
-125.185
-126.167
-127.158
-128.152
-129.137
-130.097
-131.007
-131.838
-132.553
-133.118
-133.497
-133.655
-133.581
-133.245
-132.672
-131.866
-130.877
-129.742
-128.476
-127.078
-125.498
-123.658
-121.44
-118.731
-115.509
-111.94
-108.513
-105.875
-104.407
-104.518
-106.491
-109.908
-114.144
-118.666
-123.18
-127.589
-131.944
-136.392
-141.098
-146.217
-151.863
-158.092
-164.874
-172.068
-179.411
-186.513
-192.912
-198.169
-202.027
-204.541
-206.061
-207.048
-207.875
-208.609
-209.251
-209.514
-209.097
-207.797
-205.429
-201.951
-197.434
-192.005
-185.797
-178.964
-171.76
-164.546
-157.664
-151.301
-145.487
-140.171
-135.282
-130.756
-126.552
-122.643
-119.02
-115.676
-112.61
-109.823
-107.315
-105.08
-103.104
-101.37
-99.8453
-98.5001
-97.2947
-96.1829
-95.1211
-94.0678
-92.9976
-91.8962
-90.7628
-89.6092
-88.4526
-87.3127
-86.208
-85.1527
-84.1538
-83.2073
-82.2996
-81.4105
-80.5171
-79.5984
-78.6407
-77.6407
-76.6077
-75.5624
-74.533
-73.5475
-72.6254
-71.774
-70.9907
-70.2701
-69.6085
-69.0032
-68.4498
-67.9412
-67.4659
-67.0046
-66.534
-66.0363
-65.5023
-64.9239
-64.3058
-63.6427
-62.9348
-62.1975
-61.43
-60.6631
-59.8914
-59.1122
-58.3295
-57.546
-56.7538
-55.9401
-55.1037
-54.258
-53.4199
-52.5965
-51.7804
-50.9591
-50.1261
-49.2842
-48.4407
-47.6003
-46.7642
-45.9306
-45.0968
-44.2591
-43.4143
-42.5609
-41.6993
-40.8305
-39.9552
-39.0731
-38.1839
-37.2869
-36.3823
-35.4701
-34.551
-33.6249
-32.6938
-31.7589
-30.8272
-29.9034
-29.0036
-113.993
-114.446
-114.928
-115.476
-116.177
-117.01
-117.944
-118.977
-120.086
-121.227
-122.368
-123.476
-124.531
-125.53
-126.487
-127.418
-128.333
-129.232
-130.115
-130.983
-131.829
-132.646
-133.402
-134.073
-134.632
-135.04
-135.256
-135.244
-134.984
-134.436
-133.619
-132.558
-131.297
-129.883
-128.337
-126.649
-124.802
-122.686
-120.152
-117.134
-113.789
-110.566
-108.12
-106.881
-107.059
-109.111
-112.668
-117.054
-121.713
-126.379
-130.999
-135.643
-140.437
-145.502
-150.93
-156.768
-163.009
-169.582
-176.336
-183.038
-189.378
-195.026
-199.712
-203.337
-206.02
-208.049
-209.743
-211.31
-212.794
-214.08
-214.9
-214.947
-213.967
-211.761
-208.286
-203.649
-198.035
-191.577
-184.365
-176.602
-168.715
-161.19
-154.302
-148.08
-142.429
-137.239
-132.427
-127.947
-123.779
-119.918
-116.37
-113.13
-110.199
-107.576
-105.249
-103.206
-101.422
-99.8658
-98.5027
-97.2916
-96.1869
-95.1434
-94.1202
-93.0888
-92.0315
-90.9435
-89.8337
-88.7175
-87.6124
-86.536
-85.5038
-84.5249
-83.5973
-82.7086
-81.8382
-80.9618
-80.0564
-79.1057
-78.105
-77.0639
-76.0056
-74.9628
-73.9678
-73.0424
-72.1922
-71.4101
-70.6853
-70.0106
-69.3848
-68.8062
-68.2683
-67.7603
-67.2686
-66.7754
-66.2603
-65.7082
-65.111
-64.4687
-63.7789
-63.0451
-62.2731
-61.4988
-60.7159
-59.9307
-59.1392
-58.3439
-57.5506
-56.7541
-55.941
-55.104
-54.2544
-53.4127
-52.5892
-51.7762
-50.9592
-50.1303
-49.2909
-48.4465
-47.602
-46.7603
-45.9223
-45.086
-44.2476
-43.4031
-42.5507
-41.6904
-40.8233
-39.9501
-39.0705
-38.1842
-37.2904
-36.3895
-35.4815
-34.5672
-33.6472
-32.7235
-31.7977
-30.8756
-29.9626
-29.0706
-114.822
-115.115
-115.696
-116.525
-117.581
-118.8
-120.141
-121.579
-123.045
-124.484
-125.849
-127.085
-128.163
-129.086
-129.887
-130.602
-131.255
-131.86
-132.435
-132.993
-133.538
-134.064
-134.56
-135.011
-135.419
-135.714
-135.877
-135.863
-135.631
-135.15
-134.394
-133.363
-132.116
-130.7
-129.143
-127.49
-125.755
-123.868
-121.744
-119.287
-116.559
-113.905
-111.926
-111.034
-111.378
-113.311
-116.81
-121.012
-125.481
-130.023
-134.617
-139.352
-144.328
-149.61
-155.22
-161.131
-167.285
-173.585
-179.902
-186.058
-191.846
-197.056
-201.537
-205.25
-208.294
-210.874
-213.209
-215.447
-217.602
-219.533
-220.928
-221.41
-220.718
-218.561
-214.931
-210.055
-204.247
-197.671
-190.282
-182.126
-173.646
-165.489
-158.046
-151.356
-145.301
-139.737
-134.567
-129.744
-125.252
-121.095
-117.287
-113.823
-110.71
-107.941
-105.503
-103.376
-101.53
-99.9309
-98.5398
-97.3122
-96.2015
-95.1641
-94.1613
-93.1626
-92.1473
-91.1062
-90.0438
-88.9723
-87.9073
-86.8653
-85.8619
-84.907
-84.0007
-83.1316
-82.2799
-81.4206
-80.5294
-79.5885
-78.5917
-77.5481
-76.4818
-75.4293
-74.4281
-73.503
-72.658
-71.8817
-71.1589
-70.4781
-69.8348
-69.2297
-68.661
-68.1197
-67.5927
-67.0652
-66.5204
-65.943
-65.3243
-64.6588
-63.944
-63.183
-62.3885
-61.5852
-60.7793
-59.9746
-59.1676
-58.3584
-57.5529
-56.7495
-55.9361
-55.1025
-54.2561
-53.4156
-52.5906
-51.7746
-50.9559
-50.1282
-49.2913
-48.4479
-47.6018
-46.757
-45.9158
-45.0773
-44.2378
-43.3934
-42.5418
-41.6829
-40.8173
-39.9459
-39.0686
-38.1848
-37.2942
-36.3968
-35.4929
-34.5834
-33.6692
-32.7522
-31.8344
-30.9208
-30.0164
-29.1308
-116.561
-117.031
-117.902
-119.152
-120.74
-122.567
-124.515
-126.458
-128.352
-130.126
-131.682
-132.952
-133.911
-134.581
-135.017
-135.278
-135.415
-135.469
-135.474
-135.463
-135.46
-135.473
-135.502
-135.543
-135.587
-135.602
-135.558
-135.417
-135.126
-134.663
-134.032
-133.032
-131.88
-130.576
-129.157
-127.682
-126.162
-124.604
-122.974
-121.143
-119.155
-117.25
-115.903
-115.443
-115.998
-117.911
-121.149
-125.11
-129.335
-133.685
-138.197
-142.972
-148.076
-153.528
-159.276
-165.236
-171.314
-177.41
-183.419
-189.216
-194.671
-199.657
-204.092
-207.967
-211.365
-214.432
-217.322
-220.13
-222.834
-225.253
-227.039
-227.764
-226.9
-224.366
-220.278
-215.023
-209.046
-202.52
-195.26
-187.138
-178.507
-170.068
-162.27
-155.179
-148.702
-142.71
-137.122
-131.9
-127.037
-122.546
-118.433
-114.709
-111.378
-108.433
-105.856
-103.623
-101.698
-100.042
-98.6085
-97.3516
-96.2261
-95.1877
-94.1964
-93.2215
-92.2413
-91.2446
-90.231
-89.2084
-88.1892
-87.1881
-86.219
-85.292
-84.4076
-83.5555
-82.7165
-81.8673
-80.9849
-80.0526
-79.0651
-78.0307
-76.9726
-75.9264
-74.9315
-74.0145
-73.1789
-72.4103
-71.6908
-71.0077
-70.3539
-69.7275
-69.1273
-68.5476
-67.9784
-67.4079
-66.8228
-66.2092
-65.5587
-64.8675
-64.1309
-63.3463
-62.5246
-61.6895
-60.8552
-60.026
-59.1996
-58.3747
-57.5558
-56.7437
-55.9284
-55.0996
-54.261
-53.426
-52.6003
-51.7779
-50.9523
-50.1216
-49.2858
-48.4444
-47.599
-46.7534
-45.9109
-45.071
-44.2303
-43.3853
-42.534
-41.6761
-40.812
-39.9422
-39.0669
-38.1855
-37.2978
-36.4039
-35.504
-34.5991
-33.6903
-32.7795
-31.8688
-30.9625
-30.0652
-29.1847
-121.275
-121.893
-123.172
-125.035
-127.367
-129.94
-132.554
-135.097
-137.391
-139.343
-140.878
-141.942
-142.523
-142.669
-142.457
-141.971
-141.286
-140.469
-139.581
-138.686
-137.839
-137.066
-136.385
-135.799
-135.294
-134.848
-134.431
-134.003
-133.516
-132.919
-132.157
-131.428
-130.487
-129.415
-128.266
-127.084
-125.899
-124.767
-123.634
-122.396
-121.14
-120
-119.317
-119.292
-120.082
-122.066
-125.173
-128.919
-132.966
-137.142
-141.615
-146.461
-151.715
-157.344
-163.233
-169.254
-175.296
-181.264
-187.076
-192.651
-197.908
-202.78
-207.231
-211.273
-214.973
-218.432
-221.738
-224.921
-227.889
-230.396
-232.039
-232.343
-230.99
-227.926
-223.45
-218.031
-212.104
-205.766
-198.775
-190.99
-182.677
-174.423
-166.605
-159.29
-152.443
-146.007
-139.96
-134.303
-129.045
-124.209
-119.782
-115.784
-112.22
-109.081
-106.347
-103.985
-101.956
-100.218
-98.7235
-97.4258
-96.2748
-95.2242
-94.2351
-93.2766
-92.3259
-91.3692
-90.4019
-89.4279
-88.4559
-87.4978
-86.5657
-85.6684
-84.8062
-83.9689
-83.1384
-82.2935
-81.4143
-80.4875
-79.5107
-78.4943
-77.4597
-76.4397
-75.4705
-74.5766
-73.7588
-73.0012
-72.2849
-71.5979
-70.9334
-70.2879
-69.6593
-69.0426
-68.4294
-67.8103
-67.1752
-66.5136
-65.8198
-65.0936
-64.3307
-63.5254
-62.6799
-61.8136
-60.9475
-60.0901
-59.2405
-58.3972
-57.5637
-56.7415
-55.9228
-55.0976
-54.2663
-53.437
-52.611
-51.7826
-50.9487
-50.1124
-49.2754
-48.4358
-47.5923
-46.7478
-45.9055
-45.0653
-44.2239
-43.3782
-42.5268
-41.6696
-40.807
-39.9389
-39.0655
-38.1863
-37.3014
-36.4107
-35.5147
-34.6143
-33.7105
-32.8053
-31.9008
-31.0007
-30.1093
-29.2327
-130.476
-131.367
-133.186
-135.857
-139.197
-142.83
-146.367
-149.519
-152.154
-154.181
-155.467
-155.951
-155.669
-154.723
-153.258
-151.415
-149.338
-147.157
-144.966
-142.847
-140.861
-139.039
-137.416
-135.995
-134.769
-133.713
-132.79
-131.961
-131.185
-130.426
-129.649
-128.847
-128.059
-127.216
-126.359
-125.513
-124.715
-124.004
-123.323
-122.667
-122.131
-121.778
-121.787
-122.206
-123.278
-125.44
-128.585
-132.285
-136.334
-140.251
-144.823
-149.804
-155.25
-161.073
-167.101
-173.183
-179.203
-185.083
-190.765
-196.205
-201.361
-206.203
-210.722
-214.93
-218.862
-222.556
-226.03
-229.24
-232.037
-234.161
-235.256
-234.935
-233.011
-229.604
-225.085
-219.901
-214.34
-208.338
-201.674
-194.3
-186.44
-178.529
-170.828
-163.393
-156.239
-149.397
-142.906
-136.816
-131.165
-125.974
-121.247
-116.991
-113.204
-109.874
-106.976
-104.477
-102.335
-100.503
-98.9298
-97.5673
-96.3683
-95.29
-94.2928
-93.3423
-92.4131
-91.4888
-90.5621
-89.6325
-88.7046
-87.7864
-86.8882
-86.0181
-85.1763
-84.3523
-83.5289
-82.6873
-81.8116
-80.8924
-79.9311
-78.9409
-77.9423
-76.9623
-76.0316
-75.1705
-74.3781
-73.6368
-72.9281
-72.2401
-71.5664
-70.9033
-70.2474
-69.5937
-68.9348
-68.2643
-67.5759
-66.862
-66.1173
-65.3434
-64.5434
-63.7127
-62.846
-61.9534
-61.0566
-60.1695
-59.2938
-58.4293
-57.5795
-56.7461
-55.9224
-55.098
-54.2702
-53.4428
-52.6155
-51.7824
-50.9422
-50.1003
-49.2611
-48.4228
-47.582
-46.7395
-45.8983
-45.0583
-44.2167
-43.3707
-42.5195
-41.6633
-40.8021
-39.9358
-39.0641
-38.187
-37.3046
-36.4171
-35.5247
-34.6283
-33.7292
-32.8292
-31.9302
-31.0355
-30.1489
-29.2757
-144.289
-145.569
-148.217
-152.162
-157.015
-162.152
-167.031
-171.151
-174.245
-176.196
-176.993
-176.515
-174.798
-172.028
-168.467
-164.358
-159.98
-155.638
-151.548
-147.805
-144.412
-141.354
-138.633
-136.244
-134.181
-132.428
-130.942
-129.676
-128.578
-127.6
-126.703
-125.867
-125.073
-124.379
-123.758
-123.221
-122.788
-122.465
-122.246
-122.195
-122.342
-122.699
-123.331
-124.187
-125.582
-127.992
-131.29
-135.045
-139.064
-143.279
-147.885
-152.986
-158.625
-164.631
-170.786
-176.919
-182.922
-188.742
-194.355
-199.742
-204.888
-209.776
-214.391
-218.72
-222.745
-226.443
-229.776
-232.663
-234.947
-236.414
-236.81
-235.851
-233.555
-230.174
-226.062
-221.547
-216.643
-211.095
-204.741
-197.676
-190.181
-182.555
-174.93
-167.365
-159.935
-152.728
-145.834
-139.34
-133.313
-127.786
-122.773
-118.271
-114.272
-110.761
-107.71
-105.081
-102.827
-100.896
-99.2379
-97.8034
-96.5474
-95.4265
-94.4013
-93.4397
-92.5162
-91.6122
-90.7157
-89.8219
-88.931
-88.0469
-87.1766
-86.3267
-85.4976
-84.6804
-83.8599
-83.0205
-82.1505
-81.2449
-80.3092
-79.3584
-78.4114
-77.4879
-76.6085
-75.7862
-75.0183
-74.2911
-73.5906
-72.9059
-72.2282
-71.5517
-70.8731
-70.1874
-69.4865
-68.7643
-68.0194
-67.2493
-66.4494
-65.6216
-64.7745
-63.909
-63.0182
-62.1029
-61.179
-60.2631
-59.3608
-58.4737
-57.6055
-56.7588
-55.9275
-55.1007
-54.2722
-53.443
-52.6122
-51.7754
-50.9314
-50.0858
-49.2445
-48.4071
-47.5691
-46.7292
-45.8892
-45.0496
-44.2083
-43.3626
-42.5119
-41.6566
-40.7969
-39.9323
-39.0623
-38.1873
-37.3074
-36.4229
-35.534
-34.6413
-33.7464
-32.851
-31.9569
-31.0669
-30.1844
-29.3139
-162.226
-163.902
-167.429
-172.656
-178.898
-185.23
-191.069
-195.974
-199.687
-201.923
-202.245
-200.675
-197.398
-192.744
-187.033
-180.441
-173.247
-165.965
-159.186
-153.254
-148.122
-143.676
-139.81
-136.454
-133.56
-131.1
-129.039
-127.331
-125.921
-124.746
-123.75
-122.897
-122.17
-121.638
-121.203
-120.964
-120.917
-121.04
-121.349
-121.861
-122.484
-123.257
-124.296
-125.509
-127.199
-129.867
-133.384
-137.315
-141.471
-145.854
-150.618
-155.891
-161.684
-167.867
-174.148
-180.333
-186.341
-192.148
-197.754
-203.159
-208.352
-213.304
-217.976
-222.316
-226.262
-229.744
-232.69
-235.018
-236.619
-237.383
-237.18
-235.949
-233.77
-230.862
-227.511
-223.841
-219.542
-214.256
-208.027
-201.154
-193.958
-186.557
-178.973
-171.273
-163.582
-156.032
-148.753
-141.875
-135.477
-129.621
-124.327
-119.59
-115.394
-111.714
-108.516
-105.76
-103.398
-101.375
-99.6376
-98.1335
-96.8163
-95.645
-94.584
-93.6019
-92.6717
-91.7722
-90.8888
-90.0139
-89.1445
-88.2816
-87.4289
-86.5909
-85.7674
-84.9509
-84.1294
-83.2915
-82.4306
-81.5465
-80.6472
-79.747
-78.8607
-78.0012
-77.1801
-76.4031
-75.6644
-74.9521
-74.2577
-73.5756
-72.8967
-72.2114
-71.5145
-70.8019
-70.0655
-69.2982
-68.4993
-67.6714
-66.8142
-65.9295
-65.0282
-64.1184
-63.1963
-62.2573
-61.3092
-60.3671
-59.4396
-58.5299
-57.6422
-56.7798
-55.9379
-55.105
-54.2725
-53.4386
-52.6027
-51.7621
-50.9161
-50.0692
-49.2271
-48.3905
-47.555
-46.7176
-45.8791
-45.0401
-44.1992
-43.3541
-42.504
-41.6495
-40.7909
-39.9278
-39.0598
-38.1869
-37.3097
-36.4282
-35.5425
-34.6532
-33.762
-32.8707
-31.9808
-31.0948
-30.2159
-29.3477
-179.981
-181.827
-185.709
-191.32
-197.801
-204.125
-209.752
-214.306
-217.555
-219.357
-219.188
-217.164
-213.368
-208.175
-202.176
-195.325
-186.995
-177.311
-167.526
-158.841
-151.592
-145.621
-140.645
-136.449
-132.893
-129.881
-127.343
-125.221
-123.471
-122.061
-120.939
-120.02
-119.261
-118.7
-118.514
-118.554
-118.859
-119.403
-120.165
-121.108
-122.145
-123.344
-124.763
-126.223
-128.168
-131.132
-134.936
-139.107
-143.454
-148.009
-152.939
-158.383
-164.347
-170.67
-177.066
-183.347
-189.42
-195.288
-200.968
-206.466
-211.757
-216.786
-221.485
-225.771
-229.558
-232.767
-235.33
-237.204
-238.352
-238.723
-238.248
-236.996
-234.992
-232.499
-229.784
-226.75
-222.692
-217.386
-211.219
-204.651
-197.82
-190.652
-183.112
-175.286
-167.333
-159.43
-151.738
-144.454
-137.676
-131.477
-125.89
-120.913
-116.523
-112.683
-109.352
-106.482
-104.02
-101.91
-100.095
-98.5254
-97.1533
-95.9374
-94.841
-93.8327
-92.8859
-91.9794
-91.0976
-90.2298
-89.3699
-88.5156
-87.6678
-86.8293
-86.0008
-85.1783
-84.3538
-83.5196
-82.673
-81.8184
-80.9644
-80.1209
-79.2954
-78.4938
-77.7231
-76.9871
-76.2806
-75.593
-74.9156
-74.2426
-73.5659
-72.8754
-72.1643
-71.4287
-70.6617
-69.8549
-69.0062
-68.1227
-67.208
-66.2654
-65.3067
-64.3453
-63.3832
-62.4153
-61.4429
-60.4765
-59.5255
-58.5943
-57.6873
-56.8078
-55.9523
-55.1102
-54.271
-53.4305
-52.5882
-51.7436
-50.8968
-50.0506
-49.2093
-48.3738
-47.5403
-46.7052
-45.8681
-45.0298
-44.1895
-43.3452
-42.4958
-41.6419
-40.7841
-39.9224
-39.0564
-38.1859
-37.3113
-36.4328
-35.5501
-34.664
-33.7761
-32.8884
-32.0022
-31.1196
-30.2438
-29.3775
-192.534
-194.555
-198.64
-204.303
-210.788
-217.08
-222.722
-227.254
-230.312
-231.541
-231.339
-229.211
-225.069
-218.907
-211.692
-204.684
-196.845
-186.793
-174.945
-163.634
-154.248
-146.858
-140.974
-136.155
-132.137
-128.781
-125.986
-123.648
-121.69
-120.093
-118.853
-117.833
-116.968
-116.283
-115.875
-115.859
-116.204
-116.874
-117.827
-119.064
-120.71
-122.72
-124.681
-126.313
-128.49
-131.837
-136.013
-140.467
-145.024
-149.746
-154.817
-160.404
-166.536
-173.022
-179.572
-186.004
-192.243