/*--------------------------------*- C++ -*----------------------------------*\
  =========                 |
  \\      /  F ield         | OpenFOAM: The Open Source CFD Toolbox
   \\    /   O peration     | Website:  https://openfoam.org
    \\  /    A nd           | Version:  9
     \\/     M anipulation  |
\*---------------------------------------------------------------------------*/
FoamFile
{
    format      ascii;
    class       volScalarField;
    location    "0.045";
    object      pMean;
}
// * * * * * * * * * * * * * * * * * * * * * * * * * * * * * * * * * * * * * //

dimensions      [0 2 -2 0 0 0 0];

internalField   nonuniform List<scalar> 
12225
(
-1.7939
-2.36159
-2.66505
-2.77847
-2.82532
-2.85907
-2.88772
-2.90584
-2.90825
-2.89431
-2.86313
-2.81847
-2.75769
-2.69741
-2.63825
-2.65973
-2.78201
-3.3524
-2.03054
-2.39193
-2.66759
-2.78873
-2.83705
-2.86937
-2.89745
-2.91613
-2.91998
-2.90787
-2.88002
-2.83859
-2.78581
-2.73034
-2.69081
-2.70323
-2.84944
-3.23643
-2.08605
-2.39851
-2.66119
-2.7919
-2.84562
-2.87818
-2.90605
-2.92606
-2.9321
-2.92381
-2.90066
-2.86805
-2.82613
-2.79015
-2.77129
-2.81432
-2.9615
-3.2869
-2.20617
-2.44806
-2.67474
-2.80455
-2.86223
-2.89429
-2.92093
-2.94141
-2.95033
-2.94569
-2.92896
-2.90397
-2.87595
-2.85583
-2.86065
-2.91943
-3.06724
-3.33035
-2.29883
-2.48421
-2.67786
-2.80798
-2.8737
-2.9086
-2.93495
-2.95605
-2.96767
-2.96823
-2.95833
-2.94248
-2.92671
-2.92158
-2.94287
-3.01121
-3.14833
-3.36152
-2.43506
-2.54202
-2.69795
-2.82224
-2.8923
-2.92938
-2.95569
-2.97738
-2.9915
-2.99628
-2.99319
-2.98632
-2.98208
-2.99001
-3.02275
-3.09448
-3.21763
-3.39449
-2.52477
-2.59361
-2.71635
-2.83276
-2.90782
-2.94928
-2.97651
-2.99903
-3.01644
-3.02667
-3.03074
-3.03268
-3.03869
-3.05701
-3.09751
-3.16958
-3.2802
-3.42966
-2.59175
-2.64812
-2.74907
-2.85237
-2.9277
-2.97308
-3.00259
-3.02624
-3.04603
-3.06117
-3.07231
-3.08277
-3.09803
-3.12483
-3.17033
-3.24082
-3.34018
-3.46738
-2.69079
-2.71555
-2.78593
-2.87548
-2.94926
-2.9981
-3.03064
-3.05655
-3.07946
-3.09954
-3.11727
-3.13537
-3.15843
-3.19181
-3.24084
-3.30945
-3.39929
-3.50833
-2.72885
-2.75698
-2.82042
-2.90053
-2.97308
-3.02519
-3.06128
-3.09001
-3.11618
-3.14104
-3.16536
-3.19093
-3.22107
-3.25995
-3.3114
-3.37774
-3.45945
-3.55424
-2.81679
-2.82893
-2.87397
-2.94001
-3.00512
-3.05687
-3.09572
-3.1281
-3.1584
-3.18812
-3.21777
-3.24908
-3.28484
-3.32805
-3.38115
-3.44549
-3.52075
-3.60502
-2.86124
-2.85938
-2.90179
-2.96814
-3.03306
-3.08631
-3.12875
-3.16484
-3.19868
-3.23262
-3.26779
-3.30494
-3.34581
-3.39271
-3.44729
-3.51033
-3.58115
-3.65829
-2.93195
-2.92674
-2.95668
-3.01159
-3.07061
-3.1227
-3.16703
-3.20679
-3.24497
-3.28333
-3.32282
-3.36457
-3.40979
-3.45992
-3.51594
-3.57825
-3.64609
-3.71831
-2.89655
-2.9506
-3.00359
-3.05455
-3.10764
-3.16047
-3.20967
-3.25466
-3.29759
-3.34087
-3.38579
-3.43302
-3.48327
-3.53735
-3.59571
-3.6585
-3.72508
-3.79441
-2.98033
-3.02834
-3.07246
-3.11534
-3.16428
-3.21664
-3.26798
-3.31695
-3.36502
-3.41394
-3.4646
-3.51746
-3.57294
-3.63139
-3.69309
-3.7579
-3.82549
-3.89521
-3.10838
-3.10809
-3.12663
-3.16718
-3.22087
-3.27792
-3.33307
-3.38656
-3.44044
-3.4958
-3.55295
-3.61215
-3.6737
-3.73771
-3.80416
-3.87278
-3.94326
-4.015
-3.15555
-3.16724
-3.19855
-3.24386
-3.29718
-3.35312
-3.40979
-3.46792
-3.52823
-3.59069
-3.65514
-3.7216
-3.79022
-3.86101
-3.93388
-4.00869
-4.08542
-4.16398
-3.28099
-3.27745
-3.29344
-3.32946
-3.37925
-3.43777
-3.50089
-3.56628
-3.63344
-3.70272
-3.77451
-3.84885
-3.92559
-4.00456
-4.08567
-4.16889
-4.25408
-4.34121
-3.18317
-3.25502
-3.32488
-3.38798
-3.45055
-3.51747
-3.58881
-3.66307
-3.73969
-3.81875
-3.90038
-3.98452
-4.07107
-4.15989
-4.25091
-4.34395
-4.43891
-4.53567
-3.37908
-3.37952
-3.40528
-3.455
-3.51954
-3.59215
-3.66881
-3.74794
-3.82981
-3.91516
-4.00398
-4.09566
-4.18982
-4.28631
-4.38512
-4.48614
-4.58938
-4.69474
-3.40884
-3.39359
-3.41863
-3.4777
-3.55289
-3.6321
-3.7129
-3.79644
-3.88363
-3.97472
-4.06931
-4.16671
-4.26648
-4.36847
-4.47261
-4.5788
-4.68685
-4.79663
-3.37886
-3.37984
-3.42028
-3.48799
-3.56848
-3.65406
-3.74126
-3.82958
-3.92076
-4.0159
-4.11461
-4.21607
-4.31981
-4.42574
-4.53386
-4.64401
-4.756
-4.8696
-3.296
-3.3574
-3.42854
-3.50413
-3.58641
-3.67322
-3.76245
-3.85422
-3.94922
-4.0478
-4.14963
-4.2541
-4.3608
-4.46964
-4.58048
-4.69318
-4.80761
-4.92365
-3.22405
-3.29318
-3.38816
-3.48766
-3.5832
-3.67514
-3.76686
-3.86147
-3.9602
-4.06262
-4.16776
-4.27495
-4.38408
-4.49522
-4.60837
-4.72335
-4.83986
-4.95749
-3.2696
-3.30478
-3.38979
-3.49603
-3.59766
-3.69058
-3.78173
-3.87686
-3.97715
-4.08117
-4.1876
-4.296
-4.40642
-4.51886
-4.6333
-4.74951
-4.86722
-4.98624
-3.13842
-3.23263
-3.35676
-3.47961
-3.58657
-3.6813
-3.77474
-3.87324
-3.97689
-4.08358
-4.19214
-4.30232
-4.41438
-4.52847
-4.64446
-4.76203
-4.88095
-5.0009
-3.07928
-3.21581
-3.36743
-3.49374
-3.59487
-3.68606
-3.77985
-3.88009
-3.98495
-4.0921
-4.20079
-4.31127
-4.42388
-4.5386
-4.65525
-4.77345
-4.89291
-5.01331
-3.02175
-3.16559
-3.34272
-3.48204
-3.58427
-3.67599
-3.77259
-3.87571
-3.98235
-4.09054
-4.20009
-4.31141
-4.42482
-4.54029
-4.65761
-4.77641
-4.89646
-5.01775
-2.99205
-3.16512
-3.35319
-3.48709
-3.58478
-3.67634
-3.7741
-3.87796
-3.98487
-4.09321
-4.20298
-4.31463
-4.42851
-4.54452
-4.66244
-4.78162
-4.90187
-5.02264
-2.76316
-3.13177
-3.35798
-3.48224
-3.57671
-3.67049
-3.77021
-3.87497
-3.98231
-4.09096
-4.20104
-4.31298
-4.42716
-4.54346
-4.66167
-4.78099
-4.90122
-5.02124
-7.86386
-8.06911
-8.28483
-8.38855
-8.24406
-7.8696
-7.43122
-7.16151
-7.22804
-7.6722
-8.45758
-9.48278
-10.615
-11.7291
-12.7248
-13.5309
-14.1038
-14.4246
-14.4993
-14.3524
-14.0258
-13.5711
-13.0542
-12.5336
-12.0967
-11.7983
-11.7211
-11.8495
-12.0743
-12.3493
-12.7239
-13.2963
-14.0736
-14.9003
-15.5945
-16.095
-16.4344
-16.9001
-17.7855
-19.0165
-20.2051
-21.1778
-21.9419
-22.6762
-23.5419
-24.3785
-25.0717
-25.7055
-26.1494
-26.5507
-27.4682
-28.769
-30.3139
-32.0475
-33.8758
-35.6973
-37.4271
-39.0141
-40.4253
-41.6453
-42.6674
-43.4887
-44.1031
-44.5001
-44.6653
-44.5838
-44.2417
-43.63
-42.7462
-41.595
-40.1885
-38.5452
-36.6894
-34.6498
-32.4578
-30.1458
-27.746
-25.2884
-22.8
-20.3032
-17.8154
-15.3486
-12.9095
-10.5005
-8.12081
-5.76793
-3.43919
-1.13317
1.14864
3.39997
5.60766
7.7512
9.8045
11.7385
13.525
15.1409
16.5713
17.8112
18.8639
19.7406
20.4568
21.0306
21.4799
21.8216
22.0712
22.2418
22.3447
22.3898
22.3855
22.3395
22.2587
22.1493
22.0167
21.8657
21.7001
21.5232
21.3376
21.1455
20.9486
20.7484
20.5464
20.344
20.1426
19.9437
19.7489
19.5598
19.3778
19.2043
19.0406
18.8875
18.7456
18.6155
18.4971
18.3901
18.2942
18.2087
18.1328
18.0656
18.0061
17.9534
17.9064
17.8642
17.8264
17.7926
17.7626
17.736
17.7122
17.691
17.6723
17.656
17.6419
17.6291
17.6171
17.6053
17.5933
17.581
17.5686
17.5562
17.5442
17.5331
17.5236
17.5162
17.5111
17.5082
17.5073
17.5082
17.511
17.5161
17.5239
17.5354
17.551
17.5725
17.6006
17.6391
17.6892
17.7583
17.8496
17.9763
18.1488
18.3735
-8.82964
-9.03267
-9.19899
-9.32836
-9.18035
-8.87448
-8.59327
-8.53929
-8.81565
-9.42623
-10.3073
-11.3517
-12.4439
-13.4822
-14.3885
-15.1088
-15.6128
-15.8909
-15.9477
-15.7986
-15.4702
-15.0106
-14.4804
-13.9489
-13.4781
-13.1525
-12.9633
-12.9638
-13.0774
-13.382
-14.0852
-15.0549
-16.1641
-17.2316
-18.1004
-18.7977
-19.339
-19.8726
-20.5912
-21.5405
-22.4693
-23.1951
-23.7159
-24.1501
-24.7677
-25.3183
-26.097
-27.3297
-28.0974
-28.6972
-29.7026
-30.9914
-32.4572
-34.0401
-35.6843
-37.3114
-38.8591
-40.2852
-41.5627
-42.6764
-43.6175
-44.3781
-44.9455
-45.3029
-45.431
-45.3107
-44.9266
-44.2699
-43.3393
-42.1408
-40.6879
-38.9998
-37.1011
-35.0205
-32.7899
-30.4426
-28.0119
-25.5289
-23.0213
-20.512
-18.0186
-15.5527
-13.1201
-10.722
-8.35558
-6.01627
-3.69921
-1.40113
0.877602
3.13089
5.34617
7.50312
9.57444
11.5291
13.3364
14.9709
16.4164
17.6674
18.7281
19.6104
20.3314
20.9101
21.3649
21.7128
21.9692
22.1469
22.257
22.3089
22.311
22.2709
22.1957
22.0914
21.9636
21.8169
21.6554
21.4824
21.3004
21.1115
20.9176
20.7202
20.5207
20.3204
20.121
19.9238
19.7305
19.5426
19.3618
19.1894
19.0266
18.8744
18.7335
18.6041
18.4864
18.3801
18.2849
18.1999
18.1246
18.0579
17.999
17.9468
17.9005
17.8592
17.8223
17.7894
17.7602
17.7342
17.711
17.6901
17.6715
17.6554
17.6413
17.6287
17.6166
17.6047
17.5926
17.5803
17.5679
17.5556
17.5438
17.533
17.5237
17.5165
17.5114
17.5085
17.5074
17.5081
17.5107
17.5155
17.5229
17.5338
17.5488
17.5691
17.5963
17.6325
17.6808
17.7446
17.8319
17.9424
18.0971
18.2456
-8.44766
-8.49493
-8.64406
-8.92857
-9.26815
-9.64139
-10.1037
-10.7349
-11.5708
-12.5813
-13.69
-14.8105
-15.8687
-16.8065
-17.5799
-18.1585
-18.5253
-18.6755
-18.6181
-18.3782
-17.9896
-17.4875
-16.9137
-16.3247
-15.7523
-15.2904
-14.9517
-14.7747
-14.841
-15.1795
-15.8058
-16.6835
-17.7626
-18.8922
-19.9509
-20.8381
-21.669
-22.5758
-23.544
-24.517
-25.2792
-25.7461
-25.9227
-26.2574
-26.985
-27.8316
-28.6808
-29.7566
-30.8824
-31.9588
-33.1013
-34.3158
-35.608
-36.9393
-38.2862
-39.6115
-40.8874
-42.0864
-43.187
-44.1687
-45.0131
-45.7006
-46.2108
-46.5205
-46.6064
-46.4463
-46.0219
-45.3206
-44.3396
-43.0853
-41.5716
-39.8187
-37.8526
-35.704
-33.4071
-30.9977
-28.5116
-25.9823
-23.4395
-20.9074
-18.4039
-15.9403
-13.5208
-11.1441
-8.80442
-6.49362
-4.20313
-1.92634
0.33954
2.59188
4.81955
7.00156
9.10788
11.1031
12.9516
14.6234
16.0993
17.3731
18.4499
19.3444
20.0757
20.6646
21.1307
21.4912
21.7611
21.9528
22.0769
22.1422
22.1571
22.1291
22.065
21.971
21.8528
21.7151
21.562
21.3968
21.2221
21.04
20.8524
20.6607
20.4663
20.2708
20.0756
19.8823
19.6924
19.5078
19.3298
19.16
18.9995
18.8494
18.7104
18.5829
18.4669
18.3624
18.2687
18.1853
18.1114
18.0462
17.9886
17.9376
17.8924
17.8523
17.8165
17.7846
17.7562
17.731
17.7085
17.6886
17.6708
17.655
17.6408
17.6278
17.6156
17.6036
17.5917
17.5799
17.568
17.5564
17.5453
17.5352
17.5264
17.5194
17.5143
17.5109
17.5092
17.5092
17.511
17.5149
17.5215
17.5311
17.5447
17.563
17.5878
17.62
17.6638
17.7189
17.7942
17.8813
17.9973
18.0818
-8.51816
-8.5132
-8.76761
-9.3492
-10.2269
-11.2782
-12.4083
-13.5719
-14.7449
-15.9059
-17.0249
-18.0662
-18.9941
-19.7769
-20.3889
-20.8151
-21.0513
-21.1032
-20.9837
-20.7114
-20.3133
-19.8205
-19.2625
-18.6855
-18.1446
-17.6581
-17.2708
-16.9984
-16.8813
-16.9567
-17.2572
-17.7907
-18.5315
-19.3942
-20.2959
-21.2168
-22.2622
-23.5235
-24.9057
-26.1833
-27.1939
-27.9417
-28.4305
-28.9945
-29.8364
-30.8582
-31.9608
-33.1083
-34.2604
-35.4142
-36.5645
-37.7012
-38.8346
-39.959
-41.0743
-42.1681
-43.2298
-44.2426
-45.1892
-46.0486
-46.7984
-47.4133
-47.8663
-48.1281
-48.1698
-47.9645
-47.4904
-46.733
-45.6885
-44.3625
-42.7687
-40.9286
-38.8702
-36.6271
-34.2369
-31.7394
-29.1745
-26.5796
-23.9871
-21.4234
-18.9074
-16.4499
-14.0536
-11.7135
-9.41916
-7.157
-4.91279
-2.67428
-0.433393
1.81098
4.05103
6.26598
8.42208
10.4771
12.3875
14.1156
15.6366
16.9425
18.0416
18.9522
19.6976
20.3011
20.7837
21.1628
21.453
21.6659
21.811
21.897
21.9314
21.9215
21.8741
21.7956
21.6917
21.5674
21.4267
21.273
21.1091
20.937
20.7585
20.5753
20.3886
20.1999
20.011
19.8232
19.6385
19.4584
19.2846
19.1186
18.9615
18.8146
18.6785
18.5536
18.4402
18.3379
18.2465
18.1652
18.0934
18.0301
17.9742
17.9249
17.8812
17.8424
17.808
17.7773
17.7501
17.726
17.7045
17.6854
17.6682
17.6527
17.6387
17.6258
17.6136
17.6018
17.5903
17.5789
17.5675
17.5564
17.5458
17.5361
17.5276
17.5206
17.5152
17.5114
17.5093
17.5087
17.5099
17.5131
17.5186
17.5269
17.5389
17.555
17.577
17.6052
17.6432
17.6896
17.7511
17.8174
17.8973
17.9382
-8.45866
-8.73647
-9.45215
-10.589
-11.9605
-13.3935
-14.8021
-16.1481
-17.4162
-18.6001
-19.6914
-20.6727
-21.5207
-22.2094
-22.7199
-23.0453
-23.1924
-23.177
-23.0204
-22.7405
-22.35
-21.8723
-21.3507
-20.8278
-20.3402
-19.9134
-19.5584
-19.2766
-19.068
-18.9387
-18.9075
-19.0002
-19.243
-19.6519
-20.2396
-21.0431
-22.1332
-23.5413
-25.1298
-26.6961
-28.0795
-29.2939
-30.3969
-31.5223
-32.741
-34.0162
-35.3123
-36.5676
-37.757
-38.889
-39.9671
-40.9965
-41.9884
-42.9518
-43.8963
-44.8229
-45.7296
-46.6057
-47.4361
-48.1997
-48.8717
-49.4236
-49.8237
-50.0377
-50.0311
-49.7728
-49.2399
-48.4176
-47.2998
-45.8893
-44.1985
-42.2505
-40.0761
-37.7125
-35.2017
-32.5888
-29.9195
-27.2364
-24.5763
-21.9685
-19.4338
-16.983
-14.617
-12.3269
-10.0973
-7.90803
-5.73793
-3.567
-1.37896
0.835392
3.07258
5.31424
7.5249
9.65455
11.6478
13.4539
15.0378
16.3873
17.5136
18.4421
19.2023
19.8222
20.3246
20.7272
21.044
21.2853
21.4594
21.5733
21.6341
21.6483
21.6232
21.565
21.4797
21.3726
21.2479
21.1091
20.9589
20.7997
20.6331
20.4607
20.284
20.1044
19.9236
19.7434
19.5654
19.3916
19.2234
19.0626
18.9104
18.7679
18.6359
18.515
18.4052
18.3063
18.218
18.1396
18.0705
18.0098
17.9564
17.9094
17.8678
17.8308
17.798
17.7688
17.7428
17.7198
17.6994
17.6812
17.6648
17.6499
17.6361
17.6233
17.6112
17.5997
17.5885
17.5776
17.5668
17.5563
17.5462
17.5369
17.5287
17.5218
17.5163
17.5122
17.5096
17.5084
17.5088
17.511
17.5154
17.5223
17.5324
17.546
17.5647
17.5885
17.6201
17.6576
17.7049
17.7524
17.8009
17.8113
-8.83227
-9.57486
-10.9239
-12.4379
-13.9911
-15.5288
-17.0078
-18.4015
-19.7079
-20.9354
-22.0763
-23.107
-23.996
-24.7115
-25.2313
-25.5505
-25.6769
-25.6281
-25.4282
-25.1036
-24.6805
-24.1901
-23.6703
-23.1583
-22.6889
-22.2833
-21.9454
-21.6633
-21.4169
-21.1901
-20.9827
-20.8183
-20.7511
-20.8594
-21.2157
-21.9092
-22.9679
-24.3965
-26.0757
-27.8455
-29.5685
-31.1999
-32.7684
-34.3115
-35.8487
-37.3625
-38.7988
-40.1197
-41.315
-42.3944
-43.3753
-44.2804
-45.1328
-45.9533
-46.7589
-47.5583
-48.3533
-49.1354
-49.8883
-50.5871
-51.2027
-51.7024
-52.0517
-52.2141
-52.1532
-51.8362
-51.2396
-50.3458
-49.1455
-47.6391
-45.8375
-43.7644
-41.4528
-38.9434
-36.2835
-33.5248
-30.7204
-27.92
-25.1661
-22.4918
-19.92
-17.4625
-15.1189
-12.8781
-10.7198
-8.61813
-6.5442
-4.47029
-2.37169
-0.228732
1.96784
4.20691
6.45551
8.65727
10.7429
12.6433
14.3081
15.7167
16.88
17.8313
18.609
19.2471
19.772
20.2023
20.5511
20.8269
21.0358
21.1834
21.2757
21.3193
21.321
21.2874
21.2247
21.1384
21.0329
20.9119
20.7782
20.6342
20.4816
20.3222
20.1573
19.9885
19.8176
19.6464
19.4768
19.3106
19.1496
18.9953
18.8491
18.7122
18.5854
18.4693
18.364
18.2695
18.1853
18.1106
18.0449
17.9872
17.9367
17.8922
17.8529
17.8179
17.7868
17.7592
17.7347
17.7129
17.6936
17.6763
17.6608
17.6466
17.6332
17.6206
17.6087
17.5975
17.5867
17.5763
17.5662
17.5562
17.5466
17.5377
17.5297
17.5227
17.517
17.5125
17.5093
17.5074
17.507
17.5082
17.5113
17.5166
17.5247
17.5358
17.551
17.5702
17.5949
17.6236
17.6573
17.6878
17.711
17.6989
-10.9584
-11.8212
-13.141
-14.555
-16.0025
-17.4505
-18.8687
-20.2399
-21.5695
-22.8573
-24.0748
-25.1825
-26.1396
-26.9087
-27.4684
-27.8158
-27.9641
-27.9375
-27.7638
-27.4674
-27.0714
-26.6043
-26.1026
-25.6063
-25.1495
-24.7531
-24.4231
-24.1491
-23.9107
-23.6841
-23.4552
-23.2349
-23.073
-23.0776
-23.3627
-24.0516
-25.1444
-26.6064
-28.3523
-30.2575
-32.1922
-34.0887
-35.9279
-37.7127
-39.4417
-41.0803
-42.574
-43.8965
-45.0451
-46.0343
-46.8918
-47.6537
-48.3572
-49.0363
-49.7172
-50.4146
-51.1304
-51.8532
-52.561
-53.2225
-53.8019
-54.2619
-54.5659
-54.6783
-54.564
-54.1912
-53.5329
-52.5688
-51.2847
-49.6776
-47.7578
-45.5474
-43.08
-40.4003
-37.5618
-34.6242
-31.6489
-28.6938
-25.8079
-23.0294
-20.3855
-17.8907
-15.5452
-13.3352
-11.2366
-9.21766
-7.24355
-5.27967
-3.29395
-1.25697
0.855239
3.04832
5.29807
7.54702
9.71334
11.7085
13.461
14.9386
16.1488
17.1309
17.9322
18.5942
19.1471
19.6104
19.9964
20.3112
20.5587
20.7434
20.8706
20.9467
20.9785
20.9727
20.9356
20.8728
20.7889
20.6878
20.5724
20.4452
20.3081
20.1628
20.0108
19.8538
19.6937
19.5325
19.3722
19.2148
19.062
18.9154
18.7765
18.6463
18.5257
18.4153
18.3154
18.226
18.1466
18.0766
18.015
17.9611
17.9139
17.8724
17.8358
17.8032
17.7742
17.7484
17.7255
17.7051
17.6869
17.6707
17.656
17.6425
17.6297
17.6175
17.6059
17.595
17.5847
17.5749
17.5653
17.5559
17.5468
17.5381
17.5302
17.5232
17.5172
17.5123
17.5086
17.5061
17.5048
17.505
17.5068
17.5104
17.5163
17.5247
17.5361
17.5506
17.5686
17.5886
17.6097
17.6251
17.6281
17.5987
-13.493
-14.1687
-15.1147
-16.2462
-17.4966
-18.7998
-20.1097
-21.4092
-22.7139
-24.012
-25.2604
-26.413
-27.4266
-28.2646
-28.9049
-29.3426
-29.5895
-29.667
-29.5978
-29.3996
-29.0918
-28.7006
-28.2624
-27.8162
-27.3972
-27.0311
-26.73
-26.4929
-26.3063
-26.1484
-26.0007
-25.8678
-25.7929
-25.8903
-26.2974
-27.1119
-28.3234
-29.8933
-31.7502
-33.7797
-35.8576
-37.9141
-39.9121
-41.8283
-43.6383
-45.2996
-46.7614
-48.0066
-49.0379
-49.8785
-50.5678
-51.155
-51.6921
-52.2261
-52.7911
-53.4032
-54.0602
-54.7443
-55.4265
-56.0697
-56.632
-57.0712
-57.3486
-57.4289
-57.2785
-56.8645
-56.1556
-55.1285
-53.7658
-52.06
-50.0177
-47.658
-45.0169
-42.1436
-39.0993
-35.9538
-32.7792
-29.642
-26.5967
-23.684
-20.9331
-18.3616
-15.9726
-13.7537
-11.6787
-9.71298
-7.81681
-5.95081
-4.0783
-2.16158
-0.160942
1.94726
4.1556
6.41271
8.62896
10.6985
12.5295
14.0751
15.3378
16.358
17.191
17.8845
18.473
18.9757
19.4032
19.7594
20.0472
20.2702
20.4335
20.5434
20.6068
20.6303
20.6204
20.5827
20.5218
20.4418
20.3458
20.2363
20.1154
19.9849
19.8465
19.7021
19.5535
19.403
19.2528
19.105
18.9615
18.8237
18.693
18.5706
18.4574
18.3539
18.2604
18.1769
18.1031
18.0381
17.9814
17.9319
17.8886
17.8506
17.817
17.7871
17.7604
17.7367
17.7155
17.6965
17.6795
17.6643
17.6506
17.6379
17.6258
17.6141
17.603
17.5925
17.5827
17.5733
17.5642
17.5553
17.5466
17.5382
17.5304
17.5233
17.5171
17.5119
17.5077
17.5044
17.5023
17.5013
17.5017
17.5036
17.5073
17.5128
17.5205
17.5301
17.5416
17.5532
17.5631
17.5651
17.552
17.5087
-15.0988
-15.5685
-16.2805
-17.2048
-18.2665
-19.398
-20.5626
-21.7537
-22.991
-24.2536
-25.489
-26.6547
-27.7079
-28.6115
-29.343
-29.8965
-30.2805
-30.5081
-30.5897
-30.5348
-30.3602
-30.0931
-29.769
-29.4243
-29.0946
-28.8089
-28.5853
-28.4313
-28.3412
-28.2997
-28.2939
-28.333
-28.4611
-28.7901
-29.4481
-30.4926
-31.9167
-33.6823
-35.7194
-37.9121
-40.1472
-42.3525
-44.4761
-46.4747
-48.3093
-49.9377
-51.316
-52.4303
-53.2917
-53.9364
-54.4186
-54.804
-55.1599
-55.5434
-55.9927
-56.5217
-57.1214
-57.7667
-58.4232
-59.0508
-59.6046
-60.0383
-60.3081
-60.3758
-60.2062
-59.7641
-59.0149
-57.9299
-56.49
-54.6859
-52.5207
-50.0104
-47.1921
-44.1185
-40.8574
-37.4894
-34.0996
-30.7657
-27.5469
-24.4834
-21.6052
-18.9339
-16.4756
-14.2167
-12.13
-10.1781
-8.32109
-6.51959
-4.7357
-2.92767
-1.04448
0.958406
3.09466
5.32394
7.55545
9.66995
11.5583
13.1602
14.4736
15.5363
16.4086
17.1424
17.773
18.3193
18.7897
19.1875
19.5148
19.7752
19.9739
20.1174
20.2125
20.2658
20.2835
20.2712
20.2338
20.1753
20.099
20.0076
19.9034
19.7882
19.6638
19.5323
19.3958
19.2566
19.1173
18.98
18.8465
18.7186
18.5974
18.484
18.3792
18.2837
18.1976
18.121
18.0534
17.9944
17.943
17.8985
17.8598
17.8259
17.7958
17.769
17.745
17.7235
17.7042
17.6868
17.6711
17.657
17.6442
17.6323
17.621
17.6101
17.5996
17.5897
17.5804
17.5714
17.5628
17.5543
17.5459
17.5379
17.5302
17.523
17.5166
17.511
17.5063
17.5023
17.4993
17.4972
17.4962
17.4963
17.4977
17.5004
17.5044
17.5092
17.5144
17.5181
17.5179
17.5083
17.4822
17.4277
-15.6825
-16.0335
-16.5945
-17.3588
-18.2648
-19.256
-20.2891
-21.3586
-22.4822
-23.6461
-24.8108
-25.9431
-27.004
-27.9546
-28.769
-29.4362
-29.9567
-30.3336
-30.5704
-30.6722
-30.6576
-30.5537
-30.3914
-30.2028
-30.0209
-29.8753
-29.7866
-29.7668
-29.8166
-29.931
-30.1094
-30.3738
-30.7822
-31.4289
-32.4098
-33.7579
-35.4636
-37.489
-39.7583
-42.1563
-44.5786
-46.9465
-49.1961
-51.2722
-53.1282
-54.7201
-56.0107
-56.9892
-57.6762
-58.1205
-58.3937
-58.5789
-58.7562
-58.9901
-59.3194
-59.7555
-60.2844
-60.8761
-61.4932
-62.0943
-62.6329
-63.0587
-63.3232
-63.3828
-63.1985
-62.7312
-61.9436
-60.8032
-59.2894
-57.3929
-55.1145
-52.4676
-49.4854
-46.2207
-42.7472
-39.1572
-35.5517
-32.0217
-28.6306
-25.4156
-22.4038
-19.6202
-17.0771
-14.7613
-12.6426
-10.6811
-8.83657
-7.06725
-5.33555
-3.60166
-1.81252
0.0915064
2.1443
4.32178
6.53789
8.66794
10.5907
12.2334
13.5904
14.6956
15.6111
16.3898
17.0656
17.6561
18.1685
18.6057
18.9701
19.2657
19.4982
19.6743
19.8003
19.8829
19.9279
19.941
19.9269
19.8899
19.8333
19.7599
19.6722
19.5723
19.4621
19.3439
19.2199
19.0928
18.9651
18.8392
18.7168
18.5997
18.4891
18.3859
18.2909
18.2045
18.127
18.0583
17.998
17.9457
17.9004
17.8614
17.8278
17.7984
17.7725
17.7492
17.7282
17.7092
17.692
17.6763
17.662
17.649
17.6371
17.6261
17.6157
17.6056
17.596
17.5868
17.578
17.5694
17.5611
17.553
17.545
17.5371
17.5295
17.5224
17.5158
17.5099
17.5046
17.5
17.4961
17.4929
17.4905
17.4888
17.4879
17.4877
17.488
17.4882
17.4874
17.4838
17.4747
17.455
17.4181
17.3546
-15.4287
-15.7079
-16.2009
-16.8879
-17.7083
-18.6065
-19.542
-20.5033
-21.5035
-22.5405
-23.5961
-24.6469
-25.6627
-26.6084
-27.4573
-28.1929
-28.8072
-29.2957
-29.656
-29.8949
-30.0322
-30.0949
-30.1109
-30.1078
-30.1123
-30.1482
-30.2358
-30.3899
-30.6178
-30.926
-31.3298
-31.8612
-32.5837
-33.5772
-34.906
-36.5819
-38.5898
-40.8875
-43.396
-46.0087
-48.6275
-51.1684
-53.5574
-55.7283
-57.6273
-59.2099
-60.444
-61.3262
-61.8827
-62.1733
-62.284
-62.3113
-62.3439
-62.4497
-62.6673
-63.0074
-63.455
-63.9802
-64.5453
-65.1071
-65.6164
-66.0189
-66.2625
-66.2993
-66.0846
-65.5748
-64.7315
-63.525
-61.9362
-59.957
-57.5852
-54.8276
-51.7093
-48.2815
-44.6221
-40.8342
-37.0327
-33.3228
-29.7744
-26.4233
-23.2918
-20.4045
-17.7765
-15.3992
-13.2418
-11.2614
-9.41201
-7.6497
-5.9371
-4.23871
-2.50574
-0.672971
1.30777
3.42601
5.60934
7.7321
9.66506
11.3297
12.7179
13.8608
14.8183
15.6417
16.3621
16.995
17.5466
18.0199
18.4183
18.7468
19.0113
19.2183
19.3741
19.4848
19.5564
19.5941
19.6027
19.5865
19.549
19.4931
19.4215
19.3365
19.2404
19.1356
19.0247
18.9104
18.7953
18.6817
18.5716
18.4665
18.3677
18.2758
18.1917
18.1157
18.048
17.9884
17.9365
17.8917
17.8532
17.8204
17.7923
17.768
17.7467
17.7275
17.7099
17.6938
17.679
17.6652
17.6525
17.6407
17.6299
17.6198
17.6102
17.6011
17.5923
17.5839
17.5756
17.5675
17.5595
17.5516
17.5438
17.5361
17.5286
17.5215
17.5148
17.5085
17.5028
17.4975
17.4927
17.4884
17.4845
17.4811
17.4779
17.4749
17.4716
17.4673
17.461
17.4507
17.4336
17.4052
17.3594
17.2885
-14.675
-14.9375
-15.4182
-16.0936
-16.9057
-17.7931
-18.7035
-19.6104
-20.5188
-21.4326
-22.3516
-23.2656
-24.1575
-25.0052
-25.7889
-26.494
-27.1101
-27.6315
-28.0587
-28.3976
-28.6622
-28.8734
-29.0557
-29.2331
-29.4277
-29.6587
-29.9427
-30.2945
-30.7261
-31.2534
-31.9021
-32.7109
-33.7414
-35.0567
-36.6944
-38.6555
-40.9224
-43.4522
-46.1683
-48.9739
-51.7723
-54.474
-56.9965
-59.2676
-61.2318
-62.8458
-64.0814
-64.9375
-65.4443
-65.6686
-65.7069
-65.6614
-65.6245
-65.6628
-65.8116
-66.0822
-66.4619
-66.9252
-67.4355
-67.9477
-68.4098
-68.7657
-68.9622
-68.9474
-68.6709
-68.0871
-67.16
-65.8667
-64.1939
-62.1336
-59.6812
-56.8383
-53.6225
-50.0808
-46.291
-42.3605
-38.412
-34.5609
-30.8859
-27.4262
-24.2019
-21.2346
-18.543
-16.1183
-13.9281
-11.9253
-10.06
-8.28758
-6.57142
-4.87918
-3.16581
-1.36755
0.568349
2.64008
4.78726
6.88612
8.80622
10.4714
11.8748
13.0466
14.0419
14.9073
15.6696
16.3416
16.9285
17.4343
17.8636
18.2224
18.5166
18.7525
18.9362
19.0735
19.17
19.2311
19.2613
19.265
19.2456
19.2066
19.1505
19.0802
18.9981
18.907
18.8097
18.7089
18.6073
18.5073
18.4106
18.3187
18.2328
18.1535
18.0815
18.0171
17.9603
17.9108
17.8682
17.8319
17.8012
17.7752
17.7532
17.7345
17.7182
17.7035
17.6899
17.6771
17.665
17.6535
17.6426
17.6323
17.6227
17.6136
17.605
17.5968
17.5888
17.5811
17.5734
17.5657
17.558
17.5503
17.5426
17.5351
17.5277
17.5205
17.5136
17.507
17.5008
17.4948
17.4892
17.4837
17.4785
17.4733
17.4679
17.4621
17.4554
17.4469
17.4355
17.419
17.3949
17.3589
17.3057
17.2287
-13.7473
-14.0248
-14.5538
-15.3026
-16.2023
-17.172
-18.1406
-19.0636
-19.9313
-20.7539
-21.5398
-22.2896
-22.9985
-23.6599
-24.2697
-24.8272
-25.3318
-25.7833
-26.1849
-26.5418
-26.8632
-27.1643
-27.4643
-27.7819
-28.1353
-28.5407
-29.0116
-29.5593
-30.1948
-30.9355
-31.8081
-32.8534
-34.1274
-35.6797
-37.5354
-39.6966
-42.1474
-44.8446
-47.7129
-50.6586
-53.5854
-56.4031
-59.0299
-61.3955
-63.4458
-65.137
-66.4385
-67.3513
-67.9075
-68.1758
-68.2551
-68.2492
-68.2465
-68.3067
-68.4598
-68.717
-69.0702
-69.4973
-69.963
-70.4208
-70.8193
-71.1042
-71.2236
-71.1237
-70.7518
-70.0645
-69.0319
-67.6372
-65.8717
-63.7293
-61.2084
-58.3049
-55.0347
-51.4381
-47.5866
-43.5863
-39.5609
-35.6323
-31.8859
-28.3638
-25.0862
-22.0747
-19.3501
-16.9003
-14.688
-12.6623
-10.7714
-8.97206
-7.23301
-5.52375
-3.80081
-2.00377
-0.0830706
1.9618
4.07407
6.13421
8.01934
9.66583
11.0696
12.2617
13.2905
14.1941
14.9939
15.6998
16.3172
16.8515
17.3087
17.695
18.0164
18.2789
18.4882
18.6501
18.7698
18.8526
18.9031
18.9254
18.9234
18.9003
18.8594
18.8034
18.7356
18.6586
18.5756
18.4893
18.4023
18.3167
18.2345
18.1568
18.0849
18.0192
17.9604
17.9087
17.8638
17.8255
17.7932
17.7663
17.7441
17.7258
17.7106
17.6978
17.6869
17.6771
17.6677
17.6586
17.6497
17.6408
17.632
17.6234
17.6152
17.6074
17.5999
17.5925
17.5854
17.5783
17.5712
17.5638
17.5564
17.5489
17.5414
17.534
17.5266
17.5194
17.5123
17.5054
17.4987
17.4921
17.4856
17.4791
17.4725
17.4655
17.4581
17.4496
17.4397
17.4272
17.411
17.389
17.3587
17.3161
17.2566
17.1746
-12.8824
-13.2072
-13.8391
-14.7337
-15.8027
-16.9355
-18.0355
-19.0446
-19.9355
-20.7054
-21.366
-21.9342
-22.4209
-22.8338
-23.1855
-23.4968
-23.7884
-24.0703
-24.3479
-24.6271
-24.9165
-25.228
-25.5751
-25.9716
-26.4308
-26.9639
-27.5779
-28.2772
-29.0676
-29.9629
-30.989
-32.1864
-33.6059
-35.2903
-37.2656
-39.5383
-42.09
-44.874
-47.8168
-50.8295
-53.822
-56.7076
-59.4098
-61.8641
-64.0168
-65.8241
-67.2543
-68.3029
-69.0024
-69.4214
-69.6541
-69.7981
-69.9332
-70.1075
-70.3439
-70.651
-71.0246
-71.4459
-71.8817
-72.2869
-72.6119
-72.8082
-72.8285
-72.6213
-72.137
-71.3364
-70.1954
-68.6995
-66.8422
-64.6227
-62.0449
-59.1151
-55.8419
-52.2541
-48.4153
-44.4253
-40.4061
-36.4771
-32.7249
-29.1977
-25.9172
-22.9055
-20.1787
-17.7211
-15.4908
-13.4361
-11.508
-9.66949
-7.89389
-6.1517
-4.39889
-2.579
-0.6497
1.38325
3.45929
5.46544
7.2996
8.91309
10.3074
11.5137
12.5708
13.5068
14.3375
15.071
15.7141
16.2733
16.7553
17.1663
17.5123
17.799
18.0318
18.2163
18.3575
18.4605
18.5297
18.5694
18.5836
18.5758
18.5494
18.5079
18.4545
18.3923
18.3244
18.2535
18.1821
18.1121
18.0452
17.9827
17.9255
17.8743
17.8296
17.7913
17.7592
17.7329
17.7118
17.6952
17.6823
17.6724
17.6646
17.6583
17.6531
17.6484
17.6437
17.6386
17.633
17.627
17.6207
17.6141
17.6075
17.601
17.5946
17.5883
17.5819
17.5755
17.5688
17.5619
17.5548
17.5475
17.5402
17.5329
17.5255
17.5182
17.511
17.5038
17.4966
17.4894
17.4821
17.4745
17.4665
17.458
17.4484
17.4375
17.4245
17.4084
17.3878
17.3609
17.325
17.2767
17.2119
17.1256
-12.1616
-12.5397
-13.2931
-14.3575
-15.6238
-16.9572
-18.2333
-19.3575
-20.2863
-21.0127
-21.5597
-21.9666
-22.2586
-22.4455
-22.5386
-22.5671
-22.5828
-22.62
-22.6954
-22.8189
-22.9991
-23.2454
-23.5656
-23.9661
-24.4532
-25.0309
-25.6999
-26.4588
-27.3109
-28.2694
-29.3601
-30.6214
-32.0992
-33.8328
-35.8523
-38.1642
-40.7421
-43.5356
-46.4764
-49.4868
-52.4875
-55.3957
-58.1419
-60.6697
-62.9301
-64.8781
-66.4788
-67.726
-68.6469
-69.3029
-69.779
-70.1609
-70.5165
-70.8823
-71.2709
-71.6858
-72.124
-72.57
-72.9929
-73.3512
-73.6012
-73.7026
-73.6166
-73.2982
-72.7038
-71.8008
-70.5695
-68.9981
-67.08
-64.818
-62.2244
-59.306
-56.0704
-52.5421
-48.7785
-44.8744
-40.9399
-37.0844
-33.3927
-29.9157
-26.6803
-23.7053
-20.9997
-18.5435
-16.2928
-14.201
-12.2279
-10.3443
-8.52714
-6.74327
-4.94643
-3.0862
-1.13328
0.893523
2.92606
4.86755
6.64004
8.21245
9.59256
10.808
11.8865
12.8468
13.7004
14.4555
15.1198
15.7006
16.2047
16.6381
17.0064
17.3152
17.5694
17.7744
17.9351
18.0563
18.1425
18.1982
18.2274
18.2343
18.2225
18.1958
18.1576
18.1112
18.0593
18.0046
17.9494
17.8956
17.8446
17.7979
17.7562
17.7202
17.6901
17.6659
17.6472
17.6337
17.6246
17.6191
17.6163
17.6154
17.6156
17.6164
17.6174
17.6181
17.6182
17.6173
17.6154
17.6125
17.6087
17.6043
17.5995
17.5945
17.5893
17.584
17.5784
17.5726
17.5664
17.5599
17.5531
17.546
17.5389
17.5317
17.5244
17.517
17.5096
17.5021
17.4945
17.4867
17.4786
17.47
17.4608
17.4506
17.4392
17.4259
17.41
17.3905
17.366
17.3346
17.2939
17.2407
17.1713
17.0815
-11.387
-11.8015
-12.6469
-13.8463
-15.2815
-16.7969
-18.2425
-19.4973
-20.5004
-21.2418
-21.7482
-22.0581
-22.2015
-22.1887
-22.0376
-21.7872
-21.5036
-21.2504
-21.0697
-20.9828
-20.9955
-21.1097
-21.3251
-21.6428
-22.064
-22.5901
-23.2201
-23.9537
-24.7971
-25.7653
-26.8793
-28.1673
-29.6641
-31.4088
-33.4355
-35.7435
-38.2946
-41.0391
-43.9179
-46.8691
-49.8267
-52.7156
-55.471
-58.0456
-60.3985
-62.4878
-64.2786
-65.7608
-66.9536
-67.9055
-68.6854
-69.3634
-69.9933
-70.6011
-71.1893
-71.7539
-72.2892
-72.7817
-73.2068
-73.53
-73.7153
-73.7299
-73.5435
-73.1249
-72.4377
-71.4556
-70.1632
-68.5532
-66.6214
-64.3705
-61.8076
-58.941
-55.7827
-52.3606
-48.7336
-44.9814
-41.1958
-37.4751
-33.9022
-30.527
-27.3761
-24.4651
-21.7946
-19.3408
-17.0659
-14.9333
-12.914
-10.9859
-9.12285
-7.28715
-5.43244
-3.519
-1.53967
0.473546
2.45092
4.31686
6.02105
7.54959
8.91364
10.133
11.2246
12.2004
13.0698
13.8417
14.5242
15.1245
15.6489
16.1028
16.4917
16.8205
17.0942
17.3176
17.4957
17.6333
17.7352
17.806
17.8503
17.8723
17.876
17.8652
17.8435
17.8137
17.7787
17.741
17.7025
17.6653
17.6309
17.6004
17.5749
17.5548
17.5402
17.531
17.5269
17.5272
17.531
17.5375
17.5457
17.5547
17.5637
17.5722
17.5798
17.5863
17.5914
17.5949
17.5969
17.5972
17.5963
17.5942
17.5913
17.5879
17.584
17.5796
17.5748
17.5696
17.5639
17.5577
17.5512
17.5445
17.5375
17.5304
17.5232
17.5158
17.5082
17.5005
17.4925
17.4841
17.4752
17.4656
17.4552
17.4435
17.4303
17.4148
17.3963
17.3737
17.3456
17.3103
17.2653
17.2079
17.1346
17.0418
-10.3265
-10.7708
-11.6736
-12.9686
-14.5515
-16.2579
-17.9194
-19.3682
-20.5098
-21.3049
-21.7709
-21.9605
-21.9296
-21.7078
-21.3212
-20.8042
-20.2236
-19.68
-19.2346
-18.9203
-18.7384
-18.6822
-18.7464
-18.9284
-19.2287
-19.6492
-20.1934
-20.867
-21.6821
-22.6559
-23.8033
-25.1336
-26.6648
-28.435
-30.4771
-32.7795