/*--------------------------------*- C++ -*----------------------------------*\
  =========                 |
  \\      /  F ield         | OpenFOAM: The Open Source CFD Toolbox
   \\    /   O peration     | Website:  https://openfoam.org
    \\  /    A nd           | Version:  9
     \\/     M anipulation  |
\*---------------------------------------------------------------------------*/
FoamFile
{
    format      ascii;
    class       volScalarField;
    location    "0.045";
    object      pPrime2Mean;
}
// * * * * * * * * * * * * * * * * * * * * * * * * * * * * * * * * * * * * * //

dimensions      [0 4 -4 0 0 0 0];

internalField   nonuniform List<scalar> 
12225
(
301145
298321
295062
291526
287825
284047
280249
276468
272726
269033
265394
261803
258248
254710
251155
247523
243697
239397
301167
298349
295085
291544
287840
284060
280260
276478
272736
269044
265406
261816
258265
254733
251186
247574
243800
239692
301240
298412
295136
291586
287874
284089
280286
276502
272759
269068
265432
261847
258303
254781
251255
247682
244000
240151
301359
298516
295221
291654
287931
284136
280328
276540
272797
269107
265475
261897
258364
254862
251367
247852
244289
240691
301537
298674
295347
291756
288014
284207
280390
276598
272852
269165
265538
261970
258454
254977
251525
248083
244649
241272
301819
298892
295521
291896
288129
284304
280475
276677
272929
269244
265625
262070
258575
255131
251730
248370
245066
241874
302204
299186
295752
292081
288281
284432
280588
276781
273031
269348
265738
262200
258730
255325
251983
248709
245526
242489
302693
299564
296050
292319
288475
284596
280732
276913
273160
269481
265881
262362
258922
255561
252281
249093
246022
243112
303326
300042
296425
292618
288719
284802
280912
277079
273320
269645
266057
262560
259153
255838
252622
249517
246546
243742
304069
300629
296885
292985
289018
285053
281132
277281
273515
269843
266269
262795
259423
256157
253004
249976
247093
244378
304976
301342
297445
293429
289379
285356
281397
277524
273749
270079
266519
263069
259733
256515
253422
250466
247660
245020
305937
302131
298061
293914
289771
285684
281684
277786
274000
270332
266784
263357
260054
256878
253837
250939
248195
245613
307194
303045
298759
294462
290214
286055
282007
278081
274282
270614
267077
263672
260400
257266
254272
251427
248736
246205
308829
304261
299679
295180
290792
286537
282427
278463
274647
270976
267451
264069
260832
257740
254796
252003
249365
246882
311016
305839
300870
296105
291535
287157
282966
278953
275113
271437
267922
264564
261361
258312
255417
252675
250087
247651
313805
307881
302386
297270
292464
287932
283640
279567
275694
272010
268504
265168
261999
258991
256141
253447
250904
248509
317147
310294
304166
298641
293566
288856
284450
280307
276397
272700
269200
265885
262745
259774
256965
254312
251810
249452
321059
312911
306065
300105
294751
289865
285348
281139
277196
273488
269993
266697
263584
260646
257872
255255
252786
250458
324046
314877
307516
301280
295767
290783
286210
281970
278016
274312
270832
267558
264473
261564
258822
256235
253794
251492
322335
314337
307472
301478
296102
291201
286684
282487
278568
274895
271444
268198
265139
262256
259537
256972
254552
252266
320134
313089
306843
301212
296060
291301
286877
282746
278876
275240
271820
268599
265563
262699
259998
257447
255039
252765
317886
311770
306081
300802
295874
291264
286940
282879
279059
275462
272071
268873
265856
263009
260321
257782
255384
253117
315995
310585
305356
300377
295649
291172
286940
282942
279167
275603
272237
269059
266058
263224
260546
258016
255625
253365
314605
309661
304765
300016
295444
291074
286915
282969
279230
275693
272347
269185
266196
263371
260701
258178
255792
253536
313605
308955
304308
299733
295278
290989
286885
282978
279267
275750
272419
269269
266289
263471
260807
258288
255906
253654
312784
308425
303974
299525
295155
290923
286859
282980
279289
275786
272466
269323
266350
263538
260878
258362
255983
253732
312144
308050
303742
299382
295070
290877
286840
282979
279301
275808
272495
269358
266389
263580
260923
258409
256032
253782
311631
307797
303594
299292
295017
290848
286827
282978
279308
275821
272513
269379
266413
263606
260950
258438
256061
253812
311364
307654
303511
299242
294987
290831
286820
282977
279312
275828
272522
269390
266425
263619
260965
258453
256077
253829
311231
307594
303478
299222
294975
290825
286817
282977
279313
275831
272526
269395
266430
263625
260971
258460
256084
253835
202682
202661
202624
202572
202508
202433
202346
202241
202113
201960
201780
201573
201342
201087
200812
200520
200211
199888
199551
199199
198834
198453
198056
197642
197211
196763
196295
195807
195299
194773
194226
193656
193065
192453
191829
191199
190567
189933
189285
188618
187939
187250
186545
185815
185053
184270
183473
182659
181831
180985
180085
179136
178151
177135
176095
175045
173995
172954
171925
170910
169908
168919
167940
166972
166013
165063
164119
163179
162240
161297
160347
159386
158411
157420
156410
155380
154330
153260
152172
151067
149945
148810
147662
146503
145333
144154
142963
141762
140548
139320
138080
136826
135562
134289
133011
131730
130448
129167
127888
126611
125334
124059
122783
121508
120232
118956
117679
116401
115121
113840
112558
111274
109988
108700
107410
106118
104825
103529
102231
100932
99630.9
98328.2
97024.1
95718.4
94411.4
93103.1
91793.6
90482.9
89171.1
87858.5
86545
85231
83916.5
82601.6
81286.7
79971.8
78657.2
77343.1
76029.7
74717.3
73406.1
72096.2
70788
69481.5
68177.1
66874.9
65575.2
64278.2
62984.1
61693.1
60405.6
59121.7
57841.7
56565.9
55294.6
54028
52766.5
51510.1
50259.4
49014.4
47775.5
46543
45317.1
44098.3
42886.9
41683.2
40487.6
39300.5
38122.4
36953.5
35794.6
34645.9
33508.3
32382.2
31268.7
30168.6
29083.5
28015.5
26968.3
25950.9
202738
202717
202682
202627
202563
202488
202398
202288
202156
201998
201813
201604
201370
201115
200841
200549
200241
199918
199580
199228
198861
198478
198079
197663
197230
196779
196309
195821
195313
194785
194236
193662
193067
192454
191829
191190
190546
189904
189256
188593
187916
187230
186531
185815
185066
184293
183487
182629
181772
180905
179989
179030
178041
177029
175998
174960
173921
172890
171869
170860
169863
168878
167903
166938
165984
165038
164098
163162
162226
161287
160340
159381
158408
157418
156410
155381
154331
153262
152174
151068
149946
148811
147663
146504
145336
144157
142968
141767
140555
139329
138089
136835
135570
134297
133017
131735
130453
129172
127893
126615
125339
124063
122788
121512
120236
118959
117682
116403
115124
113843
112560
111276
109990
108702
107412
106120
104826
103530
102232
100933
99631.7
98329
97024.8
95719.1
94412
93103.7
91794.1
90483.4
89171.6
87858.9
86545.4
85231.4
83916.8
82602
81287
79972.1
78657.5
77343.4
76030
74717.5
73406.3
72096.4
70788.1
69481.6
68177.2
66875
65575.2
64278.2
62984.1
61693.1
60405.6
59121.7
57841.7
56565.9
55294.6
54028.1
52766.5
51510.2
50259.4
49014.4
47775.5
46542.9
45317.1
44098.3
42886.8
41683.1
40487.5
39300.4
38122.3
36953.4
35794.4
34645.7
33508
32381.9
31268.2
30168
29082.6
28014
26965.3
25942.9
202893
202875
202841
202787
202716
202629
202525
202401
202254
202084
201890
201674
201436
201179
200903
200611
200303
199979
199642
199289
198921
198537
198137
197719
197284
196829
196356
195865
195354
194824
194273
193701
193108
192497
191871
191233
190587
189932
189272
188602
187926
187247
186559
185838
185079
184283
183460
182597
181701
180784
179841
178872
177881
176875
175858
174837
173816
172799
171790
170789
169799
168819
167849
166890
165941
165000
164065
163134
162203
161268
160325
159371
158401
157414
156408
155380
154333
153264
152176
151070
149948
148812
147664
146506
145339
144162
142976
141778
140568
139345
138106
136853
135587
134312
133031
131747
130463
129181
127901
126624
125347
124071
122796
121520
120243
118966
117688
116409
115129
113848
112565
111280
109994
108706
107415
106123
104829
103533
102235
100935
99633.6
98330.7
97026.3
95720.5
94413.3
93104.8
91795.1
90484.3
89172.5
87859.7
86546.2
85232.1
83917.4
82602.5
81287.5
79972.6
78657.9
77343.7
76030.3
74717.8
73406.5
72096.6
70788.3
69481.8
68177.3
66875.1
65575.3
64278.3
62984.1
61693.2
60405.6
59121.7
57841.7
56566
55294.7
54028.1
52766.5
51510.1
50259.3
49014.3
47775.3
46542.8
45316.9
44098.1
42886.7
41683
40487.4
39300.2
38122
36953.1
35794.1
34645.3
33507.5
32381.2
31267.3
30166.8
29080.8
28011.3
26960.4
25932.3
203116
203100
203065
203009
202931
202833
202715
202576
202417
202237
202036
201814
201573
201313
201036
200741
200431
200105
199765
199409
199037
198650
198246
197824
197385
196926
196450
195957
195446
194918
194372
193808
193226
192625
192010
191384
190743
190084
189409
188725
188036
187338
186632
185896
185113
184289
183430
182539
181620
180676
179711
178729
177735
176732
175723
174713
173703
172697
171697
170704
169720
168747
167783
166830
165886
164951
164022
163096
162171
161241
160304
159354
158390
157407
156404
155380
154333
153266
152178
151072
149950
148814
147666
146509
145344
144170
142988
141794
140588
139368
138132
136880
135613
134335
133051
131764
130478
129194
127914
126636
125360
124084
122808
121532
120255
118977
117698
116418
115137
113855
112572
111287
110000
108711
107420
106127
104833
103536
102238
100938
99636.4
98333.2
97028.6
95722.5
94415.1
93106.5
91796.6
90485.7
89173.7
87860.9
86547.3
85233
83918.3
82603.3
81288.2
79973.2
78658.5
77344.3
76030.8
74718.2
73406.9
72096.9
70788.6
69482
68177.5
66875.2
65575.4
64278.4
62984.2
61693.2
60405.7
59121.8
57841.8
56566
55294.7
54028.1
52766.5
51510.1
50259.3
49014.2
47775.3
46542.7
45316.8
44098
42886.5
41682.8
40487.1
39300
38121.7
36952.7
35793.6
34644.7
33506.7
32380.2
31265.9
30164.9
29078.1
28007.1
26953.5
25919.5
203415
203397
203358
203295
203209
203101
202973
202825
202657
202470
202262
202035
201788
201523
201240
200940
200625
200293
199947
199584
199207
198813
198403
197975
197529
197065
196584
196088
195578
195055
194519
193970
193407
192829
192238
191631
191001
190347
189667
188971
188266
187546
186804
186026
185203
184340
183439
182509
181558
180588
179604
178611
177611
176607
175601
174595
173591
172591
171597
170610
169633
168665
167708
166761
165824
164895
163971
163051
162131
161207
160275
159331
158372
157395
156396
155375
154331
153265
152178
151072
149949
148813
147666
146511
145348
144179
143001
141813
140614
139399
138167
136917
135649
134367
133078
131787
130497
129212
127931
126653
125376
124100
122824
121547
120269
118990
117711
116430
115148
113865
112581
111295
110007
108718
107427
106133
104838
103541
102242
100942
99640.1
98336.6
97031.6
95725.3
94417.6
93108.7
91798.6
90487.5
89175.4
87862.4
86548.6
85234.3
83919.5
82604.4
81289.2
79974
78659.2
77344.9
76031.3
74718.7
73407.3
72097.3
70788.9
69482.3
68177.8
66875.4
65575.6
64278.5
62984.3
61693.3
60405.8
59121.9
57841.9
56566.1
55294.8
54028.1
52766.5
51510.1
50259.2
49014.1
47775.1
46542.5
45316.7
44097.8
42886.3
41682.5
40486.8
39299.6
38121.3
36952.2
35792.9
34643.9
33505.6
32378.8
31264.1
30162.3
29074.5
28001.8
26945.2
25905.6
203797
203772
203721
203649
203556
203441
203306
203150
202975
202780
202565
202329
202073
201798
201505
201195
200870
200530
200176
199806
199420
199018
198599
198162
197709
197239
196753
196254
195744
195224
194695
194158
193613
193057
192486
191895
191276
190627
189948
189244
188521
187775
186999
186183
185320
184412
183469
182503
181518
180523
179520
178513
177504
176496
175488
174482
173480
172482
171491
170509
169536
168575
167625
166685
165755
164832
163915
163000
162085
161167
160241
159303
158350
157378
156384
155367
154326
153262
152175
151069
149946
148810
147663
146509
145349
144183
143011
141831
140639
139433
138208
136961
135694
134409
133114
131817
130523
129234
127951
126673
125396
124120
122843
121566
120287
119007
117726
116444
115161
113877
112592
111305
110017
108727
107434
106141
104845
103547
102248
100947
99644.6
98340.7
97035.3
95728.6
94420.6
93111.4
91801.1
90489.8
89177.4
87864.2
86550.3
85235.8
83920.8
82605.6
81290.3
79975
78660
77345.6
76032
74719.3
73407.8
72097.7
70789.3
69482.6
68178
66875.7
65575.8
64278.6
62984.4
61693.4
60405.9
59122
57842
56566.2
55294.8
54028.2
52766.5
51510
50259.1
49014
47775
46542.4
45316.5
44097.6
42886.1
41682.2
40486.5
39299.2
38120.8
36951.6
35792.1
34642.8
33504.3
32377
31261.8
30159.2
29070.1
27995.5
26936
25891.5
204235
204205
204148
204071
203974
203855
203715
203554
203372
203169
202944
202697
202430
202142
201836
201515
201178
200826
200460
200078
199681
199267
198837
198390
197927
197449
196958
196455
195942
195421
194893
194361
193825
193280
192720
192136
191521
190873
190193
189484
188750
187986
187185
186339
185442
184498
183519
182517
181502
180479
179454
178431
177411
176394
175380
174371
173366
172368
171378
170398
169430
168475
167532
166599
165677
164761
163851
162943
162034
161122
160204
159273
158327
157360
156372
155359
154321
153259
152173
151066
149943
148807
147660
146506
145346
144183
143015
141841
140658
139462
138247
137008
135744
134457
133157
131853
130553
129260
127976
126696
125419
124142
122865
121586
120306
119025
117743
116460
115176
113891
112604
111317
110027
108736
107443
106149
104852
103554
102254
100953
99649.9
98345.5
97039.7
95732.6
94424.2
93114.7
91804.1
90492.4
89179.9
87866.4
86552.3
85237.6
83922.4
82607
81291.5
79976.1
78661
77346.5
76032.7
74719.9
73408.3
72098.2
70789.7
69483
68178.3
66875.9
65576
64278.8
62984.6
61693.6
60406
59122.1
57842.1
56566.3
55294.9
54028.2
52766.5
51510
50259.1
49013.9
47774.9
46542.2
45316.3
44097.4
42885.8
41681.9
40486.1
39298.7
38120.2
36950.8
35791.1
34641.6
33502.7
32375
31259.1
30155.6
29065.2
27988.6
26926.1
25877.3
204736
204705
204651
204575
204475
204352
204207
204040
203851
203639
203404
203146
202865
202565
202246
201910
201559
201193
200811
200414
200001
199572
199129
198669
198196
197709
197210
196700
196181
195655
195123
194587
194048
193502
192939
192351
191735
191087
190407
189697
188959
188187
187372
186505
185583
184609
183598
182562
181513
180460
179409
178364
177326
176296
175273
174257
173249
172249
171259
170281
169316
168365
167427
166502
165587
164679
163777
162878
161978
161075
160164
159243
158305
157346
156364
155356
154321
153260
152174
151067
149943
148805
147657
146503
145343
144180
143013
141843
140666
139480
138276
137048
135790
134505
133201
131891
130586
129290
128002
126721
125443
124166
122888
121608
120327
119045
117761
116477
115192
113906
112618
111329
110039
108747
107453
106158
104860
103562
102261
100959
99655.8
98350.9
97044.7
95737.2
94428.4
93118.5
91807.5
90495.5
89182.7
87869
86554.6
85239.6
83924.3
82608.6
81292.9
79977.4
78662.1
77347.4
76033.5
74720.6
73408.9
72098.7
70790.1
69483.4
68178.7
66876.2
65576.3
64279
62984.8
61693.7
60406.1
59122.2
57842.2
56566.3
55294.9
54028.2
52766.5
51510
50259
49013.8
47774.8
46542.1
45316.1
44097.1
42885.5
41681.6
40485.7
39298.2
38119.5
36950
35790.1
34640.2
33500.9
32372.7
31256.1
30151.6
29059.9
27981.3
26916.1
25863.5
205334
205305
205251
205172
205068
204941
204789
204615
204416
204194
203948
203679
203387
203074
202742
202393
202027
201644
201245
200829
200399
199953
199493
199019
198532
198033
197524
197004
196476
195940
195398
194852
194303
193745
193171
192577
191958
191310
190634
189930
189195
188423
187600
186719
185775
184773
183727
182653
181564
180472
179387
178312
177251
176203
175166
174142
173129
172128
171140
170163
169200
168251
167316
166395
165487
164587
163695
162806
161918
161026
160127
159215
158287
157336
156360
155357
154325
153265
152180
151072
149946
148807
147658
146502
145341
144177
143011
141840
140667
139487
138293
137075
135825
134544
133241
131928
130619
129320
128031
126749
125470
124191
122912
121631
120349
119065
117781
116495
115209
113921
112633
111343
110051
108758
107464
106167
104869
103570
102269
100966
99662.3
98357
97050.4
95742.4
94433.2
93122.9
91811.5
90499.1
89185.9
87871.9
86557.2
85242
83926.3
82610.5
81294.6
79978.8
78663.3
77348.5
76034.4
74721.4
73409.6
72099.3
70790.6
69483.8
68179
66876.5
65576.5
64279.3
62985
61693.9
60406.3
59122.3
57842.3
56566.4
55295
54028.2
52766.5
51509.9
50258.9
49013.7
47774.6
46541.9
45315.9
44096.9
42885.2
41681.2
40485.2
39297.6
38118.7
36949
35788.9
34638.7
33499
32370.2
31252.8
30147.4
29054.2
27973.7
26905.9
25850.1
206038
206007
205951
205867
205758
205623
205463
205279
205071
204839
204582
204302
203999
203675
203331
202968
202587
202187
201770
201336
200886
200422
199943
199452
198949
198436
197914
197382
196841
196292
195737
195177
194612
194040
193455
192854
192234
191590
190922
190227
189500
188729
187902
187007
186040
185006
183920
182800
181663
180523
179394
178282
177189
176117
175065
174031
173014
172012
171024
170048
169085
168136
167202
166284
165381
164490
163609
162734
161859
160980
160093
159192
158273
157331
156361
155363
154333
153275
152189
151080
149952
148812
147662
146505
145343
144178
143010
141839
140666
139488
138300
137089
135848
134574
133273
131960
130651
129350
128060
126777
125497
124217
122936
121654
120371
119086
117800
116514
115226
113938
112648
111357
110064
108770
107475
106178
104879
103579
102277
100974
99669.6
98363.7
97056.6
95748.2
94438.6
93127.8
91816
90503.3
89189.6
87875.3
86560.2
85244.6
83928.7
82612.6
81296.4
79980.4
78664.7
77349.7
76035.5
74722.3
73410.4
72099.9
70791.1
69484.2
68179.4
66876.9
65576.8
64279.5
62985.2
61694.1
60406.4
59122.4
57842.4
56566.5
55295
54028.3
52766.5
51509.9
50258.9
49013.7
47774.5
46541.8
45315.7
44096.6
42884.9
41680.8
40484.7
39296.9
38117.9
36948
35787.6
34637.1
33497
32367.6
31249.4
30142.9
29048.4
27966.1
26895.9
25837.2
206846
206813
206751
206662
206544
206399
206229
206035
205816
205572
205305
205015
204701
204366
204009
203632
203235
202819
202385
201933
201465
200982
200485
199977
199458
198929
198391
197845
197289
196725
196155
195581
195002
194417
193823
193217
192595
191955
191292
190603
189878
189106
188269
187358
186364
185294
184164
182994
181803
180611
179433
178277
177149
176051
174981
173937
172915
171910
170920
169943
168978
168027
167093
166177
165278
164396
163527
162666
161806
160941
160065
159174
158264
157329
156366
155371
154344
153287
152201
151091
149962
148820
147669
146511
145349
144183
143015
141843
140668
139490
138303
137097
135862
134594
133298
131988
130679
129380
128089
126805
125524
124243
122960
121677
120392
119107
117820
116533
115244
113954
112664
111372
110078
108783
107487
106189
104889
103589
102286
100983
99677.5
98371.2
97063.6
95754.7
94444.6
93133.4
91821.1
90507.9
89193.9
87879
86563.6
85247.6
83931.4
82614.9
81298.4
79982.2
78666.3
77351
76036.6
74723.3
73411.2
72100.6
70791.7
69484.7
68179.8
66877.2
65577.2
64279.8
62985.5
61694.3
60406.6
59122.6
57842.5
56566.6
55295.1
54028.3
52766.5
51509.9
50258.8
49013.6
47774.4
46541.6
45315.5
44096.3
42884.5
41680.3
40484.1
39296.3
38117.1
36947
35786.3
34635.4
33494.8
32364.8
31245.9
30138.3
29042.5
27958.4
26886.1
25824.9
207752
207716
207648
207550
207423
207267
207086
206879
206648
206393
206114
205812
205486
205138
204768
204377
203966
203535
203084
202616
202132
201632
201119
200595
200060
199516
198962
198400
197830
197253
196670
196083
195492
194894
194288
193671
193040
192391
191722
191025
190291
189505
188651
187714
186690
185583
184412
183197
181960
180722
179500
178305
177144
176020
174932
173876
172846
171835
170840
169858
168889
167935
166999
166084
165189
164316
163459
162611
161764
160910
160044
159161
158258
157328
156369
155378
154354
153298
152213
151104
149974
148832
147680
146522
145359
144193
143024
141851
140675
139495
138308
137103
135871
134607
133316
132011
130706
129408
128118
126833
125551
124268
122984
121700
120414
119128
117840
116552
115262
113972
112680
111387
110092
108796
107499
106201
104900
103599
102296
100992
99686.2
98379.4
97071.3
95761.9
94451.3
93139.6
91826.8
90513.1
89198.6
87883.3
86567.4
85251
83934.3
82617.5
81300.7
79984.2
78668
77352.6
76037.9
74724.4
73412.1
72101.4
70792.4
69485.3
68180.3
66877.6
65577.5
64280.1
62985.7
61694.5
60406.8
59122.7
57842.6
56566.6
55295.1
54028.3
52766.5
51509.9
50258.8
49013.5
47774.3
46541.4
45315.3
44096.1
42884.2
41679.9
40483.6
39295.6
38116.2
36945.9
35784.9
34633.7
33492.6
32362
31242.3
30133.7
29036.6
27950.9
26876.6
25813.2
208761
208722
208649
208543
208406
208240
208048
207829
207585
207316
207020
206700
206357
205991
205605
205199
204773
204327
203862
203380
202881
202368
201841
201303
200754
200195
199628
199052
198469
197879
197282
196680
196072
195454
194825
194184
193527
192853
192157
191433
190670
189853
188968
188001
186948
185813
184614
183371
182106
180841
179591
178370
177185
176041
174936
173866
172825
171804
170800
169811
168836
167878
166939
166024
165132
164265
163416
162576
161737
160891
160031
159153
158253
157326
156370
155382
154360
153308
152225
151118
149989
148846
147694
146536
145373
144206
143036
141863
140686
139505
138316
137110
135878
134616
133329
132030
130730
129435
128146
126860
125577
124293
123008
121722
120436
119149
117860
116571
115280
113989
112696
111402
110107
108810
107512
106213
104912
103610
102306
101002
99695.6
98388.2
97079.6
95769.7
94458.6
93146.4
91833.1
90518.8
89203.8
87888
86571.6
85254.7
83937.6
82620.4
81303.2
79986.4
78670
77354.2
76039.4
74725.6
73413.2
72102.3
70793.1
69485.9
68180.8
66878
65577.8
64280.4
62986
61694.7
60406.9
59122.8
57842.7
56566.7
55295.2
54028.3
52766.5
51509.8
50258.7
49013.4
47774.1
46541.3
45315
44095.8
42883.8
41679.5
40483
39294.9
38115.3
36944.8
35783.5
34631.9
33490.3
32359.2
31238.7
30129.1
29030.8
27943.6
26867.6
25802.1
209905
209863
209787
209677
209536
209364
209163
208933
208672
208382
208062
207714
207342
206948
206535
206106
205661
205199
204720
204225
203714
203188
202648
202097
201535
200963
200381
199790
199190
198581
197962
197334
196695
196044
195378
194697
193997
193278
192534
191763
190954
190095
189175
188180
187106
185958
184750
183502
182233
180963
179707
178476
177279
176121
175002
173918
172864
171831
170817
169819
168838
167874
166932
166014
165122
164255
163407
162570
161733
160888
160028
159149
158247
157322
156367
155382
154364
153315
152236
151131
150004
148862
147710
146552
145389
144222
143051
141878
140701
139519
138326
137117
135882
134621
133338
132044
130750
129459
128172
126886
125602
124317
123031
121745
120457
119169
117880
116590
115299
114006
112712
111418
110121
108824
107525
106225
104924
103621
102317
101012
99705.6
98397.7
97088.5
95778.1
94466.5
93153.7
91839.8
90525
89209.4
87893.1
86576.2
85258.8
83941.2
82623.6
81306
79988.8
78672
77356
76040.9
74727
73414.3
72103.2
70793.9
69486.5
68181.3
66878.5
65578.2
64280.7
62986.2
61694.9
60407.1
59123
57842.8
56566.8
55295.2
54028.4
52766.5
51509.8
50258.7
49013.3
47774
46541.1
45314.8
44095.5
42883.5
41679
40482.5
39294.2
38114.5
36943.6
35782.1
34630.1
33488.1
32356.3
31235.1
30124.6
29025.1
27936.6
26858.9
25791.8
211231
211189
211114
211006
210865
210692
210483
210235
209948
209623
209263
208875
208462
208029
207578
207116
206643
206159
205664
205153
204628
204088
203534
202966
202386
201794
201189
200572
199942
199300
198646
197980
197300
196604
195890
195156
194401
193624
192823
191995
191134
190231
189277
188261
187178
186031
184834
183602
182351
181096
179851
178625
177426
176261
175131
174035
172967
171923
170899
169894
168906
167937
166990
166066
165168
164295
163441
162597
161755
160904
160038
159153
158248
157319
156364
155380
154365
153319
152243
151141
150018
148878
147729
146571
145409
144242
143071
141897
140720
139534
138337
137121
135882
134621
133342
132056
130768
129481
128195
126910
125625
124340
123053
121766
120478
119190
117900
116609
115317
114023
112729
111433
110136
108838
107539
106238
104937
103634
102329
101023
99716.1
98407.7
97097.9
95787
94474.8
93161.4
91847
90531.6
89215.4
87898.5
86581.1
85263.2
83945.1
82627
81309
79991.4
78674.3
77358
76042.6
74728.4
73415.5
72104.3
70794.8
69487.2
68181.9
66879
65578.6
64281
62986.5
61695.2
60407.3
59123.1
57842.9
56566.9
55295.3
54028.4
52766.5
51509.8
50258.6
49013.2
47773.9
46540.9
45314.6
44095.2
42883.1
41678.6
40481.9
39293.5
38113.6
36942.5
35780.7
34628.4
33485.9
32353.5
31231.6
30120.3
29019.7
27929.9
26850.8
25782.1
212821
212778
212705
212599
212457
212275
212048
211770
211443
211070
210657
210214
209749
209269
208774
208270
207760
207246
206724
206190
205641
205075
204493
203893
203279
202649
202006
201350
200680
199996
199299
198586
197858
197111
196342
195551
194738
193904
193048
192168
191258
190316
189334
188303
187220
186086
184911
183707
182485
181258
180034
178821
177627
176459
175322
174214
173134
172079
171047
170035
169042
168069
167115
166182
165274
164388
163519
162661
161805
160943
160066
159172
158258
157324
156366
155381
154367
153322
152248
151150
150031
148896
147749
146594
145433
144267
143097
141923
140742
139552
138347
137124
135880
134618
133345
132065
130784
129501
128217
126933
125648
124362
123075
121787
120499
119210
117919
116628
115335
114041
112746
111449
110152
108853
107553
106252
104950
103646
102341
101035
99727.3
98418.3
97108
95796.4
94483.6
93169.7
91854.7
90538.7
89221.9
87904.5
86586.4
85268
83949.4
82630.8
81312.3
79994.2
78676.8
77360.1
76044.4
74729.9
73416.9
72105.4
70795.7
69488
68182.6
66879.5
65579.1
64281.4
62986.8
61695.4
60407.5
59123.3
57843
56567
55295.4
54028.5
52766.6
51509.9
50258.7
49013.2
47773.9
46540.8
45314.5
44095
42882.8
41678.2
40481.4
39292.9
38112.8
36941.5
35779.4
34626.7
33483.8
32350.9
31228.3
30116.1
29014.6
27923.7
26843.3
25773.2
214575
214530
214453
214343
214194
214001
213756
213450
213080
212651
212173
211661
211129
210590
210047
209497
208941
208382
207817
207240
206646
206035
205406
204762
204103
203431
202747
202049
201339
200614
199873
199117
198344
197551
196734
195895
195035
194156
193257
192337
191392
190419
189416
188376
187295
186176
185024
183847
182654
181453
180251
179053
177866
176698
175555
174439
173349
172285
171245
170226
169227
168247
167286
166343
165421
164518
163632
162757
161884
161004
160114
159207
158283
157341
156378
155390
154373
153328
152256
151161
150045
148915
147772
146620
145461
144297
143128
141952
140767
139570
138357
137126
135878
134618
133349
132075
130798
129518
128236
126953
125668
124382
123095
121807
120518
119229
117938
116646
115352
114058
112762
111465
110167
108868
107568
106266
104963
103659
102354
101047
99738.5
98429
97118.1
95805.9
94492.6
93178.1
91862.6
90546
89228.7
87910.6
86592
85273
83953.8
82634.6
81315.6
79997.1
78679.2
77362.2
76046.2
74731.4
73418.1
72106.4
70796.5
69488.7
68183.1
66879.9
65579.4
64281.7
62987
61695.5
60407.6
59123.3
57843
56567
55295.3
54028.4
52766.5
51509.7
50258.5
49013.1
47773.7
46540.6
45314.2
44094.7
42882.4
41677.7
40480.8
39292.1
38111.8
36940.4
35778
34625
33481.6
32348.2
31225
30112
29009.6
27917.6
26836.1
25764.8
216291
216241
216154
216029
215868
215661
215399
215065
214652
214162
213613
213028
212430
211831
211233
210630
210024
209413
208795
208165
207521
206861
206187
205500
204802
204094
203374
202644
201901
201143
200369
199580
198774
197948
197098
196224
195332
194420
193491
192542
191571
190576
189556
188507
187426
186315
185177
184019
182845
181663
180477
179291
178111
176945
175798
174676
173579
172508
171460
170434
169428
168440
167468
166515
165580
164662
163760
162866
161975
161080
160174
159254
158320
157369
156400
155407
154388
153341
152269
151175
150063
148936
147796
146646
145489
144326
143157
141980
140790
139586
138364
137128
135878
134620
133355
132084
130810
129532
128252
126969
125685
124400
123113
121825
120536
119245
117954
116662
115368
114073
112777
111480
110182
108882
107581
106279
104976
103671
102365
101058
99749.4
98439.4
97128
95815.4
94501.6
93186.6
91870.5
90553.5
89235.5
87916.9
86597.7
85278.1
83958.3
82638.6
81319.1
80000
78681.7
77364.2
76047.9
74732.8
73419.3
72107.4
70797.3
69489.4
68183.6
66880.3
65579.7
64281.9
62987.1
61695.6
60407.6
59123.4
57843.1
56567
55295.3
54028.4
52766.4
51509.6
50258.4
49012.9
47773.5
46540.4
45313.9
44094.4
42882
41677.2
40480.2
39291.4
38111
36939.3
35776.7
34623.3
33479.6
32345.7
31221.9
30108.3
29005
27912.1
26829.5
25757.1
217968
217905
217795
217640
217442
217199
216899
216525
216062
215515
214903
214255
213598
212945
212295
211646
210994
210334
209666
208988
208296
207592
206876
206152
205420
204680
203932
203174
202404
201621
200822
200007
199177
198327
197452
196554
195637
194702
193748
192777
191786
190773
189739
188680
187597
186488
185358
184209
183047
181877
180703
179527
178353
177190
176042
174915
173812
172734
171679
170646
169631
168633
167652
166688
165742
164811
163893
162982
162073
161162
160243
159312
158367
157408
156431
155433
154410
153360
152288
151195
150085
148961
147823
146674
145518
144354
143184
142003
140808
139596
138368
137128
135878
134622
133360
132093
130820
129544
128265
126983
125700
124415
123128
121840
120551
119261
117969
116677
115383
114088
112791
111494
110195
108896
107595
106292
104988
103683
102377
101069
99760
98449.6
97137.8
95824.8
94510.6
93195.2
91878.7
90561.1
89242.7
87923.4
86603.6
85283.4
83963
82642.6
81322.6
80003
78684.2
77366.3
76049.6
74734.3
73420.4
72108.3
70798.1
69490
68184.1
66880.7
65580
64282.1
62987.3
61695.7
60407.7
59123.4
57843.1
56566.9
55295.3
54028.3
52766.3
51509.5
50258.3
49012.8
47773.3
46540.2
45313.7
44094.1
42881.7
41676.8
40479.7
39290.7
38110.2
36938.3
35775.4
34621.8
33477.7
32343.4
31219
30104.8
29000.8
27907
26823.6
25750.2
219634
219549
219401
219195
218937
218627
218259
217819
217298
216696
216032
215336
214638
213948
213265
212585
211897
211195
210482
209755
209016
208267
207511
206750
205985
205216
204441
203659
202867
202061
201240
200404
199554
198684
197790
196874
195939
194985
194013
193023
192015
190988
189941
188874
187786
186677
185549
184406
183251
182089
180922
179753
178586
177426
176278
175148
174040
172955
171893
170851
169827
168821
167831
166859
165902
164959
164024
163097
162173
161250
160320
159378
158424
157454
156469
155465
154437
153386
152313
151221
150113
148990
147854
146704
145545
144379
143204
142018
140818
139601
138369
137128
135880
134625
133365
132100
130829
129554