/*--------------------------------*- C++ -*----------------------------------*\
  =========                 |
  \\      /  F ield         | OpenFOAM: The Open Source CFD Toolbox
   \\    /   O peration     | Website:  https://openfoam.org
    \\  /    A nd           | Version:  9
     \\/     M anipulation  |
\*---------------------------------------------------------------------------*/
FoamFile
{
    format      ascii;
    class       volVectorField;
    location    "0.045";
    object      UMean;
}
// * * * * * * * * * * * * * * * * * * * * * * * * * * * * * * * * * * * * * //

dimensions      [0 1 -1 0 0 0 0];

internalField   nonuniform List<vector> 
12225
(
(9.85744 0.0457592 0)
(9.56111 0.0615978 0)
(9.25932 0.0593836 0)
(8.95245 0.0580514 0)
(8.64987 0.0576079 0)
(8.35671 0.0569173 0)
(8.07499 0.0557374 0)
(7.80213 0.0548512 0)
(7.53825 0.0539613 0)
(7.27704 0.0542427 0)
(7.02334 0.0540218 0)
(6.76281 0.0565496 0)
(6.51186 0.0565153 0)
(6.23507 0.0645137 0)
(5.97464 0.0633755 0)
(5.64964 0.0863175 0)
(5.36108 0.0754559 0)
(4.92488 0.133668 0)
(10.0251 0.0513485 0)
(10.0841 0.0750711 0)
(10.1214 0.0747755 0)
(10.133 0.0761009 0)
(10.1281 0.0795126 0)
(10.1122 0.0824769 0)
(10.0884 0.0851617 0)
(10.0559 0.0874955 0)
(10.0165 0.0909549 0)
(9.96773 0.0940069 0)
(9.91334 0.0996586 0)
(9.84712 0.103955 0)
(9.7771 0.114178 0)
(9.68729 0.121349 0)
(9.59806 0.140924 0)
(9.47046 0.154385 0)
(9.35479 0.185873 0)
(9.15935 0.202761 0)
(10.0028 0.0322314 0)
(10.0339 0.0544153 0)
(10.0614 0.0576569 0)
(10.0775 0.0600616 0)
(10.0867 0.0647946 0)
(10.0932 0.0697066 0)
(10.0988 0.0739232 0)
(10.1025 0.078102 0)
(10.1048 0.0826557 0)
(10.1036 0.088349 0)
(10.1014 0.0948224 0)
(10.0943 0.103661 0)
(10.0876 0.113899 0)
(10.0738 0.129328 0)
(10.0641 0.147228 0)
(10.0449 0.174293 0)
(10.0369 0.201592 0)
(10.0152 0.23283 0)
(10.0164 0.0296423 0)
(10.0394 0.0579192 0)
(10.0606 0.064136 0)
(10.0727 0.0661513 0)
(10.0783 0.0703711 0)
(10.0813 0.0752382 0)
(10.0837 0.0797938 0)
(10.0851 0.0839017 0)
(10.0853 0.0888007 0)
(10.0836 0.094255 0)
(10.081 0.10163 0)
(10.0768 0.110102 0)
(10.0727 0.121815 0)
(10.0675 0.136176 0)
(10.0647 0.155379 0)
(10.0643 0.17902 0)
(10.0707 0.204609 0)
(10.0847 0.229634 0)
(10.0087 0.02193 0)
(10.026 0.0501434 0)
(10.0443 0.0576499 0)
(10.0569 0.0601165 0)
(10.0634 0.0642916 0)
(10.0666 0.0696394 0)
(10.0688 0.0748922 0)
(10.0702 0.0799853 0)
(10.0705 0.0854647 0)
(10.0696 0.0917917 0)
(10.0673 0.0995272 0)
(10.064 0.108989 0)
(10.0598 0.12087 0)
(10.0559 0.135639 0)
(10.0531 0.15374 0)
(10.0539 0.174864 0)
(10.0588 0.196648 0)
(10.0704 0.215628 0)
(9.98179 0.0177034 0)
(9.99479 0.045889 0)
(10.0113 0.0559501 0)
(10.0248 0.0599072 0)
(10.0333 0.0645116 0)
(10.0382 0.0702616 0)
(10.0413 0.076092 0)
(10.0434 0.0816746 0)
(10.0441 0.0876368 0)
(10.0436 0.0944147 0)
(10.0421 0.102554 0)
(10.0399 0.112419 0)
(10.0372 0.124388 0)
(10.0352 0.138865 0)
(10.0342 0.15571 0)
(10.0361 0.174456 0)
(10.0408 0.192964 0)
(10.05 0.208947 0)
(9.98581 0.0179846 0)
(9.99324 0.0408435 0)
(10.0051 0.0521802 0)
(10.016 0.0570353 0)
(10.0228 0.0614869 0)
(10.0263 0.0672424 0)
(10.0282 0.0735985 0)
(10.0295 0.0799278 0)
(10.0301 0.0864677 0)
(10.0298 0.093749 0)
(10.0285 0.102241 0)
(10.0266 0.112346 0)
(10.0243 0.124322 0)
(10.0226 0.138382 0)
(10.0219 0.154178 0)
(10.0235 0.171153 0)
(10.0273 0.187686 0)
(10.0341 0.202382 0)
(10.0006 0.0132423 0)
(10.0084 0.035401 0)
(10.0199 0.0486049 0)
(10.0311 0.0556422 0)
(10.0388 0.0610371 0)
(10.0429 0.0670021 0)
(10.0449 0.0735396 0)
(10.0459 0.0802339 0)
(10.0462 0.0871709 0)
(10.0457 0.0948778 0)
(10.0444 0.103804 0)
(10.0426 0.11425 0)
(10.0407 0.126299 0)
(10.0392 0.139959 0)
(10.0389 0.154821 0)
(10.0401 0.170341 0)
(10.043 0.18538 0)
(10.0475 0.198976 0)
(9.99898 0.0143181 0)
(10.0032 0.0326419 0)
(10.0103 0.0450012 0)
(10.0189 0.0525897 0)
(10.0258 0.0586313 0)
(10.03 0.0650915 0)
(10.0324 0.0721626 0)
(10.0337 0.0795145 0)
(10.0343 0.0871282 0)
(10.0343 0.0953104 0)
(10.0338 0.10445 0)
(10.033 0.11484 0)
(10.0324 0.126551 0)
(10.0325 0.13954 0)
(10.0335 0.153475 0)
(10.0358 0.167909 0)
(10.0392 0.181993 0)
(10.0439 0.195045 0)
(9.9828 0.0121228 0)
(9.98433 0.0287806 0)
(9.98951 0.041806 0)
(9.99675 0.0507688 0)
(10.0033 0.0575882 0)
(10.008 0.0641445 0)
(10.0114 0.0711051 0)
(10.0143 0.0785172 0)
(10.0169 0.0863895 0)
(10.0194 0.0949182 0)
(10.0214 0.104313 0)
(10.0231 0.11478 0)
(10.0244 0.126349 0)
(10.0261 0.138973 0)
(10.0279 0.152285 0)
(10.0308 0.165924 0)
(10.034 0.179184 0)
(10.0385 0.19171 0)
(9.96788 0.0123661 0)
(9.97181 0.0273832 0)
(9.97898 0.0384548 0)
(9.98735 0.0474104 0)
(9.99438 0.0549787 0)
(9.99899 0.0620249 0)
(10.0016 0.0692079 0)
(10.003 0.0767736 0)
(10.004 0.0848264 0)
(10.0049 0.09357 0)
(10.0055 0.103192 0)
(10.006 0.113836 0)
(10.0067 0.12541 0)
(10.0077 0.137842 0)
(10.0094 0.150736 0)
(10.0118 0.163884 0)
(10.015 0.176684 0)
(10.0187 0.189078 0)
(10.0108 0.0117496 0)
(10.0123 0.0248551 0)
(10.0171 0.035593 0)
(10.0234 0.0449943 0)
(10.0291 0.0533993 0)
(10.0333 0.0612151 0)
(10.0362 0.0689636 0)
(10.038 0.0769061 0)
(10.0392 0.0851779 0)
(10.0404 0.0939538 0)
(10.0416 0.103411 0)
(10.0429 0.113717 0)
(10.0447 0.124813 0)
(10.0466 0.136618 0)
(10.0491 0.148822 0)
(10.0516 0.161272 0)
(10.0548 0.173541 0)
(10.0571 0.18565 0)
(10.0023 0.010795 0)
(10.0045 0.0197828 0)
(10.0085 0.0315703 0)
(10.014 0.0420557 0)
(10.0193 0.0507586 0)
(10.0238 0.0586611 0)
(10.0276 0.0665203 0)
(10.0308 0.0746404 0)
(10.0339 0.0831014 0)
(10.0368 0.0920412 0)
(10.0397 0.101556 0)
(10.0428 0.111784 0)
(10.0461 0.122742 0)
(10.0496 0.1344 0)
(10.0535 0.146526 0)
(10.0572 0.158983 0)
(10.0611 0.171442 0)
(10.0644 0.183898 0)
(10.0317 0.0135763 0)
(10.0357 0.0211094 0)
(10.0395 0.0316701 0)
(10.0434 0.0416861 0)
(10.0476 0.0502845 0)
(10.052 0.0581017 0)
(10.0561 0.0658042 0)
(10.0596 0.07372 0)
(10.0629 0.0819857 0)
(10.0661 0.0907124 0)
(10.0693 0.0999771 0)
(10.0724 0.109892 0)
(10.0755 0.120462 0)
(10.0785 0.131739 0)
(10.0816 0.143504 0)
(10.0845 0.155741 0)
(10.0876 0.168032 0)
(10.0905 0.180569 0)
(10.0023 0.00251637 0)
(10.0081 0.0160303 0)
(10.0138 0.0261426 0)
(10.0192 0.0350007 0)
(10.0249 0.0435487 0)
(10.0307 0.0520903 0)
(10.0363 0.0605525 0)
(10.0415 0.06893 0)
(10.0463 0.0773998 0)
(10.0508 0.0862245 0)
(10.0549 0.0955899 0)
(10.059 0.105659 0)
(10.0629 0.116393 0)
(10.0671 0.127755 0)
(10.0715 0.139451 0)
(10.0765 0.151467 0)
(10.0816 0.163424 0)
(10.0874 0.175646 0)
(10.0028 0.0083031 0)
(10.004 0.0175525 0)
(10.0062 0.0256365 0)
(10.0101 0.0338939 0)
(10.0155 0.0421581 0)
(10.0214 0.050059 0)
(10.0273 0.0576634 0)
(10.0329 0.0654496 0)
(10.0382 0.0737935 0)
(10.0433 0.0828118 0)
(10.0483 0.0923257 0)
(10.0533 0.102209 0)
(10.0584 0.112268 0)
(10.0638 0.122616 0)
(10.0693 0.133146 0)
(10.0751 0.144179 0)
(10.0806 0.155425 0)
(10.0863 0.167398 0)
(9.99478 -0.000540092 0)
(9.99655 0.00777656 0)
(9.99971 0.0163629 0)
(10.0046 0.0249401 0)
(10.0107 0.0330831 0)
(10.017 0.0409542 0)
(10.0228 0.0489355 0)
(10.0283 0.0572457 0)
(10.0336 0.0658008 0)
(10.039 0.0745154 0)
(10.0446 0.0833448 0)
(10.0503 0.0924966 0)
(10.0562 0.102028 0)
(10.0621 0.112182 0)
(10.068 0.122757 0)
(10.074 0.13394 0)
(10.0799 0.145238 0)
(10.0862 0.157051 0)
(9.99644 0.00868411 0)
(9.99673 0.0125271 0)
(9.99867 0.0171659 0)
(10.0026 0.0225532 0)
(10.008 0.0286506 0)
(10.0142 0.0354056 0)
(10.0208 0.0427109 0)
(10.0276 0.0503988 0)
(10.0347 0.0583065 0)
(10.0419 0.066455 0)
(10.0493 0.0748782 0)
(10.057 0.0837003 0)
(10.0647 0.0928335 0)
(10.0727 0.102351 0)
(10.0808 0.11201 0)
(10.0892 0.122013 0)
(10.0978 0.131957 0)
(10.1065 0.142367 0)
(10.0102 -0.00229048 0)
(10.0167 0.00208241 0)
(10.023 0.00619688 0)
(10.0284 0.010921 0)
(10.0339 0.0164775 0)
(10.04 0.022597 0)
(10.0467 0.0290268 0)
(10.0537 0.0356345 0)
(10.0611 0.0423262 0)
(10.0687 0.0491361 0)
(10.0767 0.0560904 0)
(10.085 0.063325 0)
(10.0937 0.0708298 0)
(10.1026 0.0787721 0)
(10.1118 0.086993 0)
(10.1213 0.0957263 0)
(10.1309 0.104559 0)
(10.1408 0.113983 0)
(9.99735 -0.00943801 0)
(9.99714 -0.00204209 0)
(9.99893 0.00274821 0)
(10.0028 0.00634045 0)
(10.0084 0.0101348 0)
(10.0153 0.0145921 0)
(10.023 0.0196449 0)
(10.0312 0.0250843 0)
(10.0399 0.0306957 0)
(10.049 0.0364512 0)
(10.0583 0.042384 0)
(10.0676 0.0486238 0)
(10.077 0.0551183 0)
(10.0865 0.0619339 0)
(10.0961 0.0688568 0)
(10.1061 0.0760459 0)
(10.1162 0.0831594 0)
(10.1269 0.0906283 0)
(9.99509 -0.00131008 0)
(9.99445 -0.00181022 0)
(9.9977 -0.00145185 0)
(10.0043 -0.000473294 0)
(10.0122 0.00141002 0)
(10.0203 0.00424142 0)
(10.0285 0.00775344 0)
(10.0372 0.0117184 0)
(10.0466 0.016093 0)
(10.0565 0.020955 0)
(10.067 0.0262535 0)
(10.0779 0.0319133 0)
(10.089 0.0377204 0)
(10.1002 0.0436296 0)
(10.1117 0.049456 0)
(10.1232 0.0553854 0)
(10.1349 0.0611889 0)
(10.1465 0.0673025 0)
(10.0161 -0.00339404 0)
(10.0181 -0.00866017 0)
(10.0232 -0.00932243 0)
(10.0301 -0.00780442 0)
(10.038 -0.0054892 0)
(10.0466 -0.00293179 0)
(10.0556 -0.000304297 0)
(10.0649 0.00246429 0)
(10.0747 0.0054918 0)
(10.0849 0.00887973 0)
(10.0955 0.0126505 0)
(10.1064 0.0168485 0)
(10.1175 0.0213989 0)
(10.1289 0.0262965 0)
(10.1404 0.0313354 0)
(10.1523 0.0365653 0)
(10.1642 0.0417036 0)
(10.1764 0.0470355 0)
(9.98571 -0.00250238 0)
(9.99331 -0.0102755 0)
(10.0014 -0.01354 0)
(10.0102 -0.0142171 0)
(10.0197 -0.0136785 0)
(10.0296 -0.0125898 0)
(10.0397 -0.0111579 0)
(10.05 -0.00928148 0)
(10.0605 -0.00684091 0)
(10.0712 -0.00381735 0)
(10.0821 -0.000325358 0)
(10.0932 0.00349845 0)
(10.1045 0.00745091 0)
(10.1159 0.0114589 0)
(10.1275 0.0153747 0)
(10.1393 0.0193297 0)
(10.1513 0.0231856 0)
(10.1636 0.0272621 0)
(10.0223 -0.0129132 0)
(10.0295 -0.0162564 0)
(10.0386 -0.0200974 0)
(10.0481 -0.0213304 0)
(10.0575 -0.0205098 0)
(10.0665 -0.0190495 0)
(10.0754 -0.0176045 0)
(10.0846 -0.0161277 0)
(10.0943 -0.014389 0)
(10.1046 -0.0122459 0)
(10.1155 -0.00969978 0)
(10.1267 -0.00677813 0)
(10.1384 -0.0035942 0)
(10.1502 -0.000216291 0)
(10.1621 0.00317644 0)
(10.1742 0.00661905 0)
(10.1863 0.00993044 0)
(10.1986 0.0133235 0)
(9.98673 -0.0151061 0)
(9.99249 -0.0221899 0)
(10.0012 -0.0263081 0)
(10.0114 -0.0281335 0)
(10.0215 -0.0283255 0)
(10.0315 -0.0278378 0)
(10.0417 -0.0271949 0)
(10.0521 -0.0263929 0)
(10.0626 -0.0252935 0)
(10.0732 -0.0238156 0)
(10.0837 -0.0219568 0)
(10.0944 -0.0197336 0)
(10.1053 -0.0172564 0)
(10.1168 -0.0145982 0)
(10.1287 -0.0119318 0)
(10.1411 -0.00927434 0)
(10.1538 -0.00677629 0)
(10.1669 -0.00429057 0)
(10.002 -0.0132763 0)
(10.0112 -0.0259543 0)
(10.0234 -0.0289857 0)
(10.0353 -0.028988 0)
(10.0458 -0.0291916 0)
(10.0551 -0.0297994 0)
(10.0645 -0.0300821 0)
(10.0744 -0.0296182 0)
(10.0849 -0.0285153 0)
(10.0957 -0.0270579 0)
(10.1069 -0.0254694 0)
(10.1187 -0.0238345 0)
(10.131 -0.0222023 0)
(10.1438 -0.0205353 0)
(10.157 -0.0188748 0)
(10.1705 -0.0171617 0)
(10.184 -0.0154909 0)
(10.1974 -0.0137343 0)
(9.97822 -0.0246675 0)
(9.9908 -0.0366048 0)
(10.0052 -0.0405385 0)
(10.0176 -0.0406206 0)
(10.0278 -0.0406436 0)
(10.0369 -0.0411081 0)
(10.0462 -0.0413096 0)
(10.056 -0.0409693 0)
(10.0665 -0.0402835 0)
(10.0773 -0.0394799 0)
(10.0886 -0.0386394 0)
(10.1004 -0.0377199 0)
(10.1125 -0.0366724 0)
(10.125 -0.0354598 0)
(10.1378 -0.034125 0)
(10.1507 -0.0326725 0)
(10.1637 -0.0312053 0)
(10.1768 -0.0296707 0)
(9.99278 -0.0230126 0)
(10.0097 -0.0319701 0)
(10.0288 -0.0344646 0)
(10.0444 -0.0351544 0)
(10.0565 -0.0365124 0)
(10.0675 -0.0381207 0)
(10.0789 -0.0391493 0)
(10.0911 -0.0394792 0)
(10.1037 -0.0394003 0)
(10.1165 -0.0391983 0)
(10.1293 -0.0389646 0)
(10.1421 -0.038696 0)
(10.155 -0.038318 0)
(10.1679 -0.0378076 0)
(10.1811 -0.0371421 0)
(10.1942 -0.0363931 0)
(10.2076 -0.0356004 0)
(10.2208 -0.0348499 0)
(9.99956 -0.0378206 0)
(10.0337 -0.0538435 0)
(10.0651 -0.0520832 0)
(10.0876 -0.0512188 0)
(10.1029 -0.0521065 0)
(10.1139 -0.0529327 0)
(10.1225 -0.0532694 0)
(10.1292 -0.0532891 0)
(10.1343 -0.0531308 0)
(10.138 -0.0528725 0)
(10.1404 -0.0525322 0)
(10.1422 -0.0521653 0)
(10.1432 -0.0517328 0)
(10.1441 -0.0512612 0)
(10.1443 -0.0506585 0)
(10.1446 -0.0500059 0)
(10.1442 -0.0492497 0)
(10.1443 -0.0485664 0)
(9.9136 -0.03489 0)
(9.74705 -0.048898 0)
(9.57899 -0.0473186 0)
(9.41033 -0.0459641 0)
(9.24622 -0.0457112 0)
(9.08919 -0.0454031 0)
(8.93987 -0.044767 0)
(8.79822 -0.0438947 0)
(8.66388 -0.042932 0)
(8.53666 -0.0420183 0)
(8.41599 -0.0412079 0)
(8.30172 -0.0404901 0)
(8.19312 -0.0397634 0)
(8.09065 -0.038973 0)
(7.99326 -0.0380527 0)
(7.90236 -0.0370881 0)
(7.81549 -0.0360902 0)
(7.73587 -0.0352561 0)
(-0.214569 0.449045 -1.20327e-21)
(-0.477825 0.220453 1.22311e-21)
(-0.611095 0.0248274 0)
(-0.614827 -0.146866 0)
(-0.42813 -0.328501 0)
(-0.106253 -0.469757 -1.16196e-21)
(0.339555 -0.563672 0)
(0.854589 -0.596685 0)
(1.39442 -0.591202 0)
(1.91741 -0.552545 0)
(2.40484 -0.490583 1.24845e-21)
(2.83929 -0.414379 0)
(3.20726 -0.330616 0)
(3.50025 -0.244114 0)
(3.71422 -0.157526 0)
(3.84856 -0.0726068 1.83195e-21)
(3.90307 0.0102457 0)
(3.87953 0.0902847 0)
(3.77754 0.168077 0)
(3.60209 0.241508 0)
(3.35102 0.310654 0)
(3.04016 0.368204 0)
(2.66163 0.41746 0)
(2.25012 0.432412 1.60565e-21)
(1.78566 0.457333 -1.54151e-21)
(1.31833 0.402184 1.49494e-21)
(0.859896 0.284167 1.46996e-21)
(0.405595 0.100982 0)
(0.0433021 -0.012535 0)
(-0.337325 0.151286 -1.49908e-21)
(-0.770727 0.259695 -1.54854e-21)
(-1.25773 0.283745 0)
(-1.74501 0.242259 0)
(-2.15689 0.166544 -1.81031e-21)
(-2.45868 0.0944852 0)
(-2.65012 0.00972415 0)
(-2.71795 -0.0855571 1.96832e-21)
(-2.68483 -0.147937 0)
(-2.59686 -0.148794 2.07713e-21)
(-2.54025 -0.0779111 4.35438e-21)
(-2.57331 0.00852592 0)
(-2.70409 0.0802449 0)
(-2.94259 0.144993 0)
(-3.24619 0.151867 0)
(-3.52124 0.166224 0)
(-3.83872 0.170887 5.0951e-21)
(-4.16065 -0.0425154 5.20735e-21)
(-4.53944 -0.0782804 5.35848e-21)
(-4.92888 0.291225 0)
(-5.58815 0.453611 -5.49781e-21)
(-6.15761 0.399917 0)
(-6.68876 0.405707 5.86017e-21)
(-7.19189 0.393564 6.11076e-21)
(-7.63376 0.352818 0)
(-8.01129 0.29458 0)
(-8.32202 0.242662 0)
(-8.58117 0.197403 7.21249e-21)
(-8.79203 0.160209 0)
(-8.96523 0.130031 0)
(-9.1045 0.105743 0)
(-9.21551 0.0850223 0)
(-9.29949 0.0661029 0)
(-9.35805 0.0479514 0)
(-9.39093 0.0301301 0)
(-9.39813 0.0123985 0)
(-9.37897 -0.00517634 -7.95778e-21)
(-9.33317 -0.0223776 0)
(-9.26069 -0.0389096 0)
(-9.16283 -0.0545332 7.45961e-21)
(-9.04034 -0.0690163 7.2052e-21)
(-8.89459 -0.0822075 0)
(-8.72749 -0.0940137 -6.58026e-21)
(-8.54074 -0.104363 6.21866e-21)
(-8.33645 -0.113199 0)
(-8.1168 -0.12055 -5.42406e-21)
(-7.88408 -0.126429 0)
(-7.64053 -0.130951 0)
(-7.38822 -0.134297 4.13941e-21)
(-7.12885 -0.136691 0)
(-6.86371 -0.138423 -3.27969e-21)
(-6.59361 -0.139784 0)
(-6.31879 -0.141091 2.44863e-21)
(-6.03895 -0.142643 2.04763e-21)
(-5.75336 -0.144682 1.65671e-21)
(-5.46085 -0.147354 2.55082e-21)
(-5.16003 -0.15076 -1.806e-21)
(-4.84949 -0.154811 0)
(-4.52791 -0.159331 0)
(-4.19433 -0.16405 0)
(-3.84845 -0.168595 1.01319e-21)
(-3.49095 -0.17263 1.67273e-21)
(-3.12322 -0.175719 -2.30568e-21)
(-2.74766 -0.177436 0)
(-2.36731 -0.177505 3.46093e-21)
(-1.98578 -0.175751 3.96699e-21)
(-1.60667 -0.172215 4.41647e-21)
(-1.23325 -0.167107 0)
(-0.868227 -0.16078 0)
(-0.513762 -0.153604 0)
(-0.171351 -0.145933 5.62082e-21)
(0.1578 -0.138457 0)
(0.472991 -0.130651 0)
(0.774331 -0.122957 -5.99802e-21)
(1.0615 -0.115257 0)
(1.33451 -0.107661 0)
(1.59325 -0.100109 -6.08942e-21)
(1.83768 -0.0926867 0)
(2.06771 -0.0854261 0)
(2.28334 -0.0784429 6.00891e-21)
(2.48482 -0.0717066 5.95692e-21)
(2.67269 -0.0652803 0)
(2.84746 -0.0591761 -5.82812e-21)
(3.00973 -0.053436 0)
(3.16011 -0.0480613 5.67718e-21)
(3.29926 -0.0430348 0)
(3.42775 -0.0383276 5.5142e-21)
(3.5461 -0.0338987 5.43044e-21)
(3.65476 -0.0297018 0)
(3.75406 -0.0256942 0)
(3.84427 -0.0218432 0)
(3.9256 -0.0181242 0)
(3.99817 -0.0145189 0)
(4.06212 -0.0110198 0)
(4.11756 -0.00762644 0)
(4.16462 -0.00434596 4.76884e-21)
(4.20349 -0.00119384 -4.69262e-21)
(4.23438 0.00181047 0)
(4.25756 0.00464966 0)
(4.27334 0.00730659 0)
(4.28209 0.00977291 0)
(4.28421 0.0120385 -8.70989e-21)
(4.28012 0.0140951 0)
(4.27027 0.0159511 8.48557e-21)
(4.25506 0.0176452 -8.38313e-21)
(4.23482 0.0192037 0)
(4.20987 0.0205815 0)
(4.18057 0.0217125 0)
(4.14735 0.0226467 8.02996e-21)
(4.11054 0.0235118 7.9535e-21)
(4.07041 0.0242785 0)
(4.02741 0.0246925 7.81124e-21)
(3.98233 0.0244823 7.74453e-21)
(3.9362 0.0236161 -7.68033e-21)
(3.89005 0.0224095 0)
(3.8445 0.0212852 0)
(3.7998 0.0204019 -7.50096e-21)
(3.75609 0.0195855 0)
(3.71355 0.0186061 0)
(3.67246 0.0174518 0)
(3.63294 0.016339 0)
(3.5948 0.0155248 7.23523e-21)
(3.55757 0.0151347 7.18591e-21)
(3.52074 0.0151052 0)
(3.48392 0.0152511 7.08915e-21)
(3.44692 0.0153663 0)
(3.40977 0.0152951 0)
(3.37268 0.0149353 6.94681e-21)
(3.33609 0.0142001 0)
(3.30061 0.0130284 6.85407e-21)
(3.26705 0.0114674 0)
(3.23608 0.00971396 0)
(3.20818 0.00803452 6.72128e-21)
(3.18318 0.00662933 0)
(3.16093 0.0055648 6.63859e-21)
(3.14057 0.00480729 0)
(3.12206 0.00426993 0)
(3.10424 0.00393304 0)
(3.0877 0.0037401 -6.48602e-21)
(3.07056 0.00383069 0)
(3.05419 0.00403539 6.41721e-21)
(3.03536 0.00477471 0)
(3.0163 0.00537768 0)
(2.9925 0.00720767 0)
(2.96521 0.00799809 0)
(2.93272 0.0122577 0)
(2.8838 0.0125598 0)
(2.84117 0.0236945 0)
(2.73025 0.0211035 -1.25527e-20)
(2.69154 0.0554749 0)
(2.37657 0.04486 0)
(0.0061282 0.869718 3.69326e-21)
(0.0659675 0.536347 -3.73154e-21)
(0.0903408 0.192283 0)
(0.292367 -0.21144 2.57105e-21)
(0.644638 -0.733805 0)
(1.12035 -1.17513 1.15755e-21)
(1.63454 -1.46402 -2.56203e-21)
(2.14091 -1.59805 -2.61816e-21)
(2.61453 -1.60389 0)
(3.04335 -1.51371 -2.93979e-21)
(3.41927 -1.35823 -1.24405e-21)
(3.73686 -1.1629 0)
(3.99264 -0.946514 0)
(4.18701 -0.72145 0)
(4.32143 -0.495807 0)
(4.39819 -0.274258 -1.82712e-21)
(4.41924 -0.0602134 0)
(4.38826 0.144834 4.34551e-21)
(4.30701 0.338642 0)
(4.17809 0.522023 0)
(4.00296 0.690288 -4.11699e-21)
(3.78232 0.844365 0)
(3.52577 0.969363 3.81024e-21)
(3.2284 1.07998 -1.59735e-21)
(2.91532 1.13422 1.53265e-21)
(2.54731 1.14777 -1.48563e-21)
(2.09118 1.22856 -1.4603e-21)
(1.52602 1.28578 0)
(0.861402 1.25767 0)
(0.126367 1.2026 1.49337e-21)
(-0.531871 1.20026 -1.89787e-21)
(-1.10645 1.20841 0)
(-1.64488 1.13024 0)
(-2.10122 0.933546 1.80835e-21)
(-2.49346 0.6441 0)
(-2.78231 0.325177 0)
(-2.94919 0.0130421 -1.96246e-21)
(-3.04659 -0.204998 0)
(-3.13541 -0.217889 2.69386e-21)
(-3.25712 -0.0293562 -4.3424e-21)
(-3.43504 0.205011 0)
(-3.66487 0.452188 0)
(-3.936 0.605212 -1.03903e-20)
(-4.31547 0.623425 -1.04718e-20)
(-4.78966 0.694159 -1.06725e-20)
(-5.22301 0.78471 5.79277e-21)
(-5.83538 1.02234 -5.19406e-21)
(-6.54355 1.16228 -1.68451e-20)
(-7.00683 1.1779 1.17936e-20)
(-7.49885 1.17503 5.48143e-21)
(-7.90142 1.08862 0)
(-8.25714 0.994105 -5.84491e-21)
(-8.53881 0.860575 7.12611e-21)
(-8.77277 0.730921 0)
(-8.96152 0.604049 0)
(-9.11593 0.4956 0)
(-9.24053 0.401375 -7.20026e-21)
(-9.33961 0.323147 0)
(-9.41615 0.256363 1.57704e-20)
(-9.47187 0.198837 0)
(-9.50819 0.146877 1.62571e-20)
(-9.52559 0.0985095 0)
(-9.52427 0.0518665 -1.64821e-20)
(-9.50385 0.00603466 0)
(-9.46392 -0.0396084 1.6406e-20)
(-9.40393 -0.0850776 -8.28528e-21)
(-9.32359 -0.130118 0)
(-9.22258 -0.174146 -1.56361e-20)
(-9.10011 -0.21648 -7.45958e-21)
(-8.95662 -0.256443 -7.2055e-21)
(-8.79282 -0.293399 0)
(-8.60945 -0.32688 -6.79728e-21)
(-8.40822 -0.356485 -6.2192e-21)
(-8.1909 -0.381955 0)
(-7.95959 -0.403204 5.4246e-21)
(-7.71643 -0.420299 -1.01475e-20)
(-7.46357 -0.433508 0)
(-7.20295 -0.443317 -4.13988e-21)
(-6.9362 -0.450369 0)
(-6.66447 -0.455487 9.93788e-21)
(-6.38841 -0.459527 0)
(-6.10814 -0.463389 -7.44132e-21)
(-5.82321 -0.467909 -2.04797e-21)
(-5.53269 -0.473788 1.75843e-21)
(-5.23528 -0.481472 2.76557e-21)
(-4.92944 -0.491185 -2.03255e-21)
(-4.61363 -0.502781 0)
(-4.28651 -0.515799 0)
(-3.9471 -0.529505 0)
(-3.59505 -0.542908 -2.79102e-21)
(-3.23074 -0.55483 -1.67151e-21)
(-2.85585 -0.563945 2.3044e-21)
(-2.47294 -0.569014 0)
(-2.08546 -0.569144 3.2714e-21)
(-1.69732 -0.563891 -3.96536e-21)
(-1.31244 -0.553384 -4.41472e-21)
(-0.934234 -0.538297 0)
(-0.565345 -0.519659 0)
(-0.20772 -0.498652 0)
(0.13731 -0.476498 -5.61813e-21)
(0.469065 -0.453975 0)
(0.787333 -0.431274 1.17122e-20)
(1.09227 -0.40878 1.78852e-20)
(1.38378 -0.386428 -1.20076e-20)
(1.6619 -0.364289 0)
(1.92652 -0.342291 -6.00648e-21)
(2.1776 -0.320584 0)
(2.41496 -0.299336 -1.20255e-20)
(2.63861 -0.278789 5.94386e-21)
(2.84889 -0.258943 5.89713e-21)
(3.04628 -0.239939 0)
(3.23133 -0.221931 1.74264e-20)
(3.40462 -0.205005 -1.14591e-20)
(3.56682 -0.189145 -5.67345e-21)
(3.7186 -0.174307 0)
(3.86054 -0.160399 -5.51057e-21)
(3.99318 -0.1473 -1.62512e-20)
(4.11697 -0.13488 0)
(4.23227 -0.123019 -1.04915e-20)
(4.33935 -0.111617 -1.03248e-20)
(4.43842 -0.100603 -1.01589e-20)
(4.52967 -0.0899292 0)
(4.61324 -0.0795813 0)
(4.6893 -0.0695632 0)
(4.75803 -0.059896 4.75179e-21)
(4.81965 -0.0506135 4.68917e-21)
(4.87442 -0.0417563 0)
(4.92266 -0.033368 9.07886e-21)
(4.96471 -0.0254891 8.94422e-21)
(5.00094 -0.0181509 0)
(5.03174 -0.0113739 8.70258e-21)
(5.05751 -0.00515955 1.7159e-20)
(5.07861 0.000516504 -8.47802e-21)
(5.09545 0.00570596 -8.36279e-21)
(5.10841 0.0104693 0)
(5.11783 0.014845 0)
(5.12384 0.0188304 0)
(5.1265 0.0224105 -8.02158e-21)
(5.12603 0.0255797 7.93722e-21)
(5.12296 0.0283235 1.57372e-20)
(5.11775 0.030597 -7.80239e-21)
(5.11054 0.0323083 7.73036e-21)
(5.10109 0.0333558 7.67118e-21)
(5.08909 0.0337076 0)
(5.07457 0.0334309 0)
(5.05821 0.0326813 -7.48936e-21)
(5.04113 0.0316531 0)
(5.02429 0.0305035 0)
(5.00809 0.0293322 1.46545e-20)
(4.99239 0.0282251 0)
(4.97682 0.0272601 7.22514e-21)
(4.96114 0.0264693 -7.17624e-21)
(4.94542 0.02584 0)
(4.93006 0.025353 7.07879e-21)
(4.91556 0.024975 0)
(4.90224 0.02464 0)
(4.89018 0.0242457 -6.93709e-21)
(4.87922 0.0236684 1.37809e-20)
(4.86908 0.0227904 -6.84434e-21)
(4.85943 0.0215392 0)
(4.84998 0.0199397 0)
(4.84058 0.0181286 6.71286e-21)
(4.83115 0.0163358 0)
(4.82177 0.0147298 6.63005e-21)
(4.81237 0.0134432 0)
(4.80299 0.0124203 0)
(4.79337 0.0117574 0)
(4.78346 0.011231 6.47681e-21)
(4.77296 0.0112282 0)
(4.7617 0.0111847 -6.40817e-21)
(4.7497 0.012273 0)
(4.7358 0.0128059 0)
(4.72156 0.0160692 1.26358e-20)
(4.70181 0.0171258 -1.25874e-20)
(4.68439 0.0251673 0)
(4.65 0.0261622 0)
(4.62964 0.0460716 0)
(4.55697 0.0459498 3.75371e-20)
(4.54192 0.10003 0)
(4.36959 0.103159 -2.50708e-20)
(0.0835473 0.453703 -4.48627e-23)
(0.209201 0.219146 4.93809e-21)
(0.515362 -0.347829 0)
(1.05112 -1.15046 -5.1247e-21)
(1.64556 -1.86827 0)
(2.18814 -2.35207 0)
(2.64301 -2.58384 -5.19324e-22)
(3.01118 -2.60346 2.60854e-21)
(3.30577 -2.46757 3.53093e-21)
(3.53899 -2.22955 2.93227e-21)
(3.71947 -1.93191 0)
(3.85386 -1.60478 0)
(3.94757 -1.26807 -4.54181e-21)
(4.00426 -0.933914 -9.46402e-21)
(4.02594 -0.609432 9.75257e-21)
(4.01371 -0.298251 0)
(3.96927 -0.00272075 1.00226e-20)
(3.89445 0.276001 -4.34695e-21)
(3.79209 0.537032 0)
(3.66548 0.780121 9.68701e-21)
(3.51934 1.0038 4.11635e-21)
(3.35102 1.20144 -9.11083e-21)
(3.16565 1.3777 -3.80682e-21)
(2.96495 1.49649 0)
(2.73391 1.60585 8.10046e-21)
(2.4032 1.81216 7.81708e-21)
(2.02234 2.01487 0)
(1.57569 2.21828 7.4299e-21)
(1.07047 2.36283 0)
(0.521354 2.40183 7.4092e-21)
(-0.0551752 2.32258 3.42417e-21)
(-0.590781 2.16414 0)
(-1.08379 1.93633 0)
(-1.50655 1.61609 0)
(-1.90994 1.23953 0)
(-2.24417 0.801404 0)
(-2.55655 0.398247 0)
(-2.83232 0.1477 1.00158e-20)
(-3.13614 0.163874 -1.521e-20)
(-3.51245 0.391333 0)
(-3.90063 0.663649 0)
(-4.36656 0.88117 0)
(-4.77263 1.17802 -9.87444e-22)
(-5.31538 1.40609 1.04625e-20)
(-5.83811 1.54395 2.23595e-20)
(-6.35475 1.68361 -2.28526e-20)
(-6.84807 1.78893 -1.22986e-20)
(-7.27926 1.79589 1.14913e-20)
(-7.59203 1.74646 1.2333e-21)
(-7.86963 1.64007 1.33706e-20)
(-8.06075 1.47442 0)
(-8.2291 1.29904 1.40934e-20)
(-8.35489 1.11066 1.23992e-21)
(-8.47215 0.937676 0)
(-8.57137 0.776736 0)
(-8.66471 0.638401 -1.55597e-20)
(-8.74594 0.517699 0)
(-8.81811 0.415201 0)
(-8.87725 0.325501 1.7135e-20)
(-8.92353 0.245935 3.33653e-20)
(-8.95467 0.172319 -1.62724e-20)
(-8.9703 0.102398 0)
(-8.96906 0.0339198 1.64989e-20)
(-8.95013 -0.0342651 0)
(-8.91216 -0.10295 1.74017e-20)
(-8.85404 -0.172136 1.62597e-20)
(-8.77461 -0.241379 -3.29115e-20)
(-8.67313 -0.309782 -1.65167e-20)
(-8.54943 -0.376201 0)
(-8.40406 -0.43944 3.01385e-20)
(-8.23798 -0.498315 0)
(-8.05269 -0.551788 4.08397e-20)
(-7.85 -0.599041 2.58984e-20)
(-7.63206 -0.639541 2.42491e-20)
(-7.40125 -0.673051 -2.25237e-20)
(-7.16004 -0.699654 3.09077e-20)
(-6.9109 -0.719826 0)
(-6.6561 -0.734384 0)
(-6.39751 -0.744484 -1.53693e-20)
(-6.13642 -0.751532 -2.02899e-20)
(-5.87349 -0.757051 0)
(-5.60873 -0.762604 4.99772e-21)
(-5.34143 -0.769626 0)
(-5.0702 -0.7793 -1.05701e-20)
(-4.79313 -0.792394 3.3306e-22)
(-4.508 -0.809186 -3.54911e-22)
(-4.21243 -0.829398 2.77237e-21)
(-3.90428 -0.852184 0)
(-3.58185 -0.876203 1.3888e-23)
(-3.2442 -0.899652 4.00244e-22)
(-2.89148 -0.920394 0)
(-2.52532 -0.936083 0)
(-2.14881 -0.944572 0)
(-1.76619 -0.944295 -6.72971e-21)
(-1.38245 -0.934582 0)
(-1.00255 -0.915679 0)
(-0.630656 -0.888772 0)
(-0.269801 -0.85576 0)
(0.0778515 -0.819179 0)
(0.41127 -0.780887 -1.09303e-20)
(0.730452 -0.742313 0)
(1.03564 -0.704104 -1.17065e-20)
(1.32745 -0.666648 -1.18852e-20)
(1.60612 -0.62989 1.20021e-20)
(1.87197 -0.593812 0)
(2.12496 -0.558146 1.20873e-20)
(2.36505 -0.523014 0)
(2.59205 -0.488671 1.20211e-20)
(2.80591 -0.45517 -1.19447e-20)
(3.00699 -0.422775 -3.53508e-20)
(3.19564 -0.391807 0)
(3.37233 -0.36252 -3.46357e-20)
(3.53771 -0.335044 -1.13123e-20)
(3.69246 -0.309372 0)
(3.83725 -0.285426 -2.21747e-20)
(3.97267 -0.263041 -2.18629e-20)
(4.09926 -0.242008 3.23656e-20)
(4.21745 -0.222112 0)
(4.32755 -0.20315 1.04888e-20)
(4.42981 -0.184959 1.03223e-20)
(4.52437 -0.167419 3.04045e-20)
(4.61136 -0.150462 0)
(4.69088 -0.134071 0)
(4.76305 -0.118271 0)
(4.82805 -0.103109 9.47134e-21)
(4.88609 -0.0886486 0)
(4.93748 -0.0749663 0)
(4.98261 -0.062127 -9.07776e-21)
(5.02195 -0.0501664 -8.94321e-21)
(5.05604 -0.0390979 0)
(5.08544 -0.0289186 0)
(5.11064 -0.019627 -1.71574e-20)
(5.13207 -0.0112128 0)
(5.15011 -0.00362923 1.67368e-20)
(5.16515 0.00321881 1.65276e-20)
(5.17752 0.0094684 0)
(5.18741 0.015249 0)
(5.19474 0.0205535 -1.60207e-20)
(5.19932 0.0252034 -1.09282e-23)
(5.20123 0.0290215 -9.62977e-24)
(5.20107 0.0320171 0)
(5.19963 0.0343795 -3.09211e-20)
(5.19723 0.0363567 0)
(5.19353 0.0380639 0)
(5.18779 0.0393341 0)
(5.17965 0.0397869 1.49787e-20)
(5.16953 0.0391522 0)
(5.15855 0.0375778 -2.95122e-20)
(5.14784 0.0356017 -1.46521e-20)
(5.13799 0.0338489 0)
(5.1289 0.0326921 -1.44483e-20)
(5.12012 0.0320798 0)
(5.11119 0.0316404 0)
(5.10205 0.030964 -4.24646e-20)
(5.09313 0.0298512 2.81183e-20)
(5.08517 0.0283572 0)
(5.07881 0.0266449 2.77422e-20)
(5.07431 0.0248318 -1.37782e-20)
(5.07151 0.0229572 0)
(5.06991 0.0210208 0)
(5.0689 0.019066 0)
(5.0679 0.0171843 -4.02677e-20)
(5.06662 0.0155379 0)
(5.06486 0.0141874 -1.3256e-20)
(5.06269 0.01323 0)
(5.05998 0.0125535 0)
(5.05691 0.0123252 0)
(5.05309 0.0122599 0)
(5.04882 0.0128689 0)
(5.04316 0.0134157 0)
(5.03712 0.0152815 -2.54873e-20)
(5.02865 0.0165115 0)
(5.02056 0.0207625 -1.26324e-20)
(5.00786 0.0229224 3.77322e-20)
(4.99757 0.0324293 0)
(4.97739 0.0361132 0)
(4.96462 0.0580697 -2.4942e-20)
(4.93017 0.0658957 -2.49943e-20)
(4.91656 0.119736 2.48998e-20)
(4.86228 0.144697 2.50601e-20)
(-0.0612235 0.154939 -7.33753e-21)
(0.307382 -0.463198 -7.35202e-21)
(1.00742 -1.67573 -5.14451e-21)
(1.67382 -2.61097 -3.0177e-21)
(2.20706 -3.14718 0)
(2.58242 -3.33545 6.77034e-21)
(2.82085 -3.26699 -4.34166e-21)
(2.96033 -3.03034 0)
(3.03695 -2.6974 -3.53061e-21)
(3.07806 -2.31956 0)
(3.10082 -1.92796 9.71318e-21)
(3.11324 -1.53843 0)
(3.11678 -1.15769 4.55005e-21)
(3.10852 -0.789025 9.48258e-21)
(3.08446 -0.434635 -9.77241e-21)
(3.04109 -0.0965764 0)
(2.97786 0.223019 -1.0043e-20)
(2.89456 0.522674 0)
(2.79298 0.802496 0)
(2.67564 1.06236 -9.70428e-21)
(2.54879 1.30298 0)
(2.40973 1.52113 -1.07188e-21)
(2.27174 1.6927 0)
(2.09843 1.87931 0)
(1.8624 2.13687 1.09578e-21)
(1.59316 2.40676 -7.81514e-21)
(1.29725 2.67487 -8.66573e-21)
(0.987705 2.9068 -7.41846e-21)
(0.666722 3.06817 0)
(0.332662 3.1402 -1.56436e-20)
(-0.0378036 3.09803 0)
(-0.428527 2.94096 -8.33884e-21)
(-0.834571 2.68873 0)
(-1.22875 2.34748 0)
(-1.6363 1.93972 8.99802e-21)
(-2.02788 1.45808 0)
(-2.45517 1.05497 -9.70754e-21)
(-2.90797 0.857908 2.01625e-22)
(-3.42455 0.959229 2.12352e-20)
(-3.99116 1.25522 -2.26317e-20)
(-4.5581 1.59263 0)
(-5.09195 1.81455 0)
(-5.56139 2.00907 -1.32213e-20)
(-6.01086 2.13742 0)
(-6.41492 2.24868 -1.16899e-20)
(-6.79733 2.33695 1.19866e-20)
(-7.09256 2.30557 1.22978e-20)
(-7.31252 2.19399 0)
(-7.47502 2.04518 -1.30269e-20)
(-7.60552 1.85785 -1.33796e-20)
(-7.69807 1.6524 3.01875e-20)
(-7.78388 1.44623 -1.41047e-20)
(-7.85379 1.24477 -1.44787e-20)
(-7.92728 1.06058 0)
(-7.99479 0.892166 0)
(-8.06387 0.743993 1.55743e-20)
(-8.12713 0.611904 0)
(-8.18632 0.495165 0)
(-8.23638 0.389215 -3.29523e-20)
(-8.27697 0.291547 -3.33998e-20)
(-8.30495 0.198516 0)
(-8.31941 0.107907 0)
(-8.31806 0.0174473 0)
(-8.29948 -0.0741319 0)
(-8.26159 -0.167578 -3.38674e-20)
(-8.20286 -0.262585 3.46849e-20)
(-8.12179 -0.358182 3.29566e-20)
(-8.01757 -0.452891 6.55191e-20)
(-7.89001 -0.545008 0)
(-7.73965 -0.632607 9.69145e-22)
(-7.56761 -0.713887 0)
(-7.3756 -0.787242 -2.7486e-20)
(-7.16578 -0.851515 7.53284e-22)
(-6.94075 -0.90592 -2.42856e-20)
(-6.70337 -0.950091 2.25582e-20)
(-6.45671 -0.98409 5.28618e-22)
(-6.20387 -1.00856 0)
(-5.94774 -1.02472 1.75881e-20)
(-5.69084 -1.03431 1.53943e-20)
(-5.43503 -1.03951 2.76382e-20)
(-5.18148 -1.04277 0)
(-4.93052 -1.04653 -1.06326e-20)
(-4.68153 -1.05314 0)
(-4.43296 -1.0645 1.46998e-20)
(-4.18243 -1.08191 -5.66649e-21)
(-3.927 -1.10586 4.20744e-21)
(-3.66334 -1.13597 -2.77897e-21)
(-3.38814 -1.17089 -3.75657e-21)
(-3.09836 -1.20846 -1.00412e-23)
(-2.79166 -1.24569 1.37387e-21)
(-2.46688 -1.27909 0)
(-2.12451 -1.30496 -7.01188e-21)
(-1.76731 -1.31971 0)
(-1.39999 -1.32074 -1.1978e-20)
(-1.02869 -1.30708 1.41941e-20)