/*--------------------------------*- C++ -*----------------------------------*\
  =========                 |
  \\      /  F ield         | OpenFOAM: The Open Source CFD Toolbox
   \\    /   O peration     | Website:  https://openfoam.org
    \\  /    A nd           | Version:  9
     \\/     M anipulation  |
\*---------------------------------------------------------------------------*/
FoamFile
{
    format      ascii;
    class       volScalarField;
    location    "0.08";
    object      kU;
}
// * * * * * * * * * * * * * * * * * * * * * * * * * * * * * * * * * * * * * //

dimensions      [0 2 -2 0 0 0 0];

internalField   nonuniform List<scalar> 
12225
(
0.157229
0.132058
0.113087
0.0993351
0.0900827
0.0847319
0.0827352
0.083546
0.0866119
0.0913908
0.0973741
0.104108
0.111212
0.118385
0.125411
0.132159
0.138619
0.146941
0.180979
0.175007
0.173505
0.17818
0.189117
0.2057
0.22689
0.251372
0.277751
0.304729
0.331232
0.356463
0.379917
0.40136
0.420815
0.438497
0.455126
0.470542
0.184254
0.181314
0.178517
0.17646
0.175708
0.176464
0.178705
0.182275
0.186933
0.192391
0.198364
0.204601
0.21091
0.217171
0.223351
0.229535
0.235981
0.243127
0.184876
0.182078
0.179362
0.176858
0.174738
0.173096
0.171936
0.171208
0.170837
0.170736
0.170821
0.17102
0.171282
0.171574
0.171892
0.172262
0.172752
0.17347
0.185144
0.182629
0.180143
0.177741
0.175482
0.173413
0.171554
0.169897
0.168423
0.1671
0.165894
0.164777
0.163722
0.162711
0.161734
0.16079
0.159886
0.159048
0.185257
0.182933
0.180651
0.178425
0.176277
0.174232
0.172303
0.170494
0.168801
0.167213
0.165719
0.164304
0.162958
0.161667
0.160425
0.159226
0.158067
0.156957
0.1853
0.183073
0.180921
0.178837
0.176825
0.17489
0.17304
0.171275
0.169596
0.168
0.166481
0.165034
0.163652
0.16233
0.161062
0.159843
0.158672
0.157555
0.185314
0.183129
0.181046
0.179052
0.177138
0.175303
0.173545
0.171862
0.170253
0.168715
0.167246
0.165842
0.1645
0.163215
0.161985
0.160807
0.159679
0.15861
0.185317
0.183148
0.181096
0.179147
0.177292
0.175523
0.173834
0.172221
0.170679
0.169206
0.167799
0.166453
0.165166
0.163936
0.16276
0.161635
0.160561
0.159547
0.185317
0.183153
0.181112
0.179183
0.177355
0.175622
0.173974
0.172407
0.170913
0.16949
0.168132
0.166837
0.1656
0.164419
0.163292
0.162217
0.161192
0.160228
0.185317
0.183153
0.181115
0.179193
0.177377
0.175659
0.174032
0.172488
0.171023
0.16963
0.168305
0.167043
0.165842
0.164698
0.163609
0.162571
0.161585
0.16066
0.185316
0.183152
0.181114
0.179194
0.177381
0.175668
0.174049
0.172516
0.171062
0.169684
0.168375
0.167131
0.16595
0.164827
0.163759
0.162744
0.161782
0.160881
0.185315
0.183151
0.181113
0.179192
0.17738
0.175669
0.174053
0.172524
0.171076
0.169704
0.168404
0.16717
0.166
0.164889
0.163834
0.162834
0.161887
0.161
0.185315
0.18315
0.181111
0.17919
0.177378
0.175667
0.174051
0.172524
0.171078
0.169709
0.168413
0.167184
0.166019
0.164915
0.163868
0.162876
0.161937
0.16106
0.185314
0.183149
0.18111
0.179188
0.177375
0.175664
0.174048
0.172521
0.171076
0.169708
0.168413
0.167187
0.166024
0.164923
0.163879
0.162891
0.161956
0.161082
0.185314
0.183148
0.181108
0.179186
0.177373
0.175662
0.174046
0.172518
0.171073
0.169706
0.168411
0.167186
0.166024
0.164924
0.163882
0.162894
0.16196
0.161087
0.185314
0.183148
0.181107
0.179185
0.177371
0.17566
0.174043
0.172516
0.171071
0.169704
0.16841
0.167184
0.166023
0.164923
0.163881
0.162893
0.161959
0.161085
0.185314
0.183147
0.181107
0.179184
0.17737
0.175659
0.174042
0.172515
0.17107
0.169703
0.168409
0.167183
0.166022
0.164922
0.163879
0.16289
0.161954
0.161077
0.185313
0.183147
0.181106
0.179184
0.17737
0.175659
0.174042
0.172515
0.17107
0.169703
0.168409
0.167183
0.166021
0.16492
0.163875
0.162885
0.161945
0.161065
0.185313
0.183147
0.181107
0.179184
0.177371
0.17566
0.174044
0.172517
0.171072
0.169706
0.168411
0.167185
0.166022
0.164919
0.163873
0.16288
0.161938
0.161055
0.185314
0.183147
0.181108
0.179186
0.177373
0.175663
0.174047
0.17252
0.171076
0.169709
0.168414
0.167186
0.166022
0.164918
0.16387
0.162874
0.161929
0.161042
0.185314
0.183148
0.181109
0.179188
0.177376
0.175665
0.174049
0.172521
0.171075
0.169706
0.168408
0.167177
0.166009
0.164899
0.163845
0.162843
0.16189
0.160996
0.185314
0.183149
0.18111
0.179188
0.177373
0.175659
0.174037
0.172502
0.171046
0.169664
0.168353
0.167106
0.165921
0.164793
0.16372
0.162697
0.161724
0.160808
0.185314
0.183147
0.181103
0.179171
0.177341
0.175605
0.173957
0.17239
0.170898
0.169478
0.168125
0.166836
0.165607
0.164436
0.163319
0.162255
0.16124
0.160285
0.185311
0.18313
0.181059
0.179083
0.177194
0.175386
0.173657
0.172005
0.170428
0.168924
0.167492
0.166129
0.164834
0.163604
0.162436
0.161327
0.160275
0.159288
0.185287
0.183044
0.180875
0.178774
0.17674
0.174778
0.172901
0.171115
0.169425
0.167835
0.166343
0.164948
0.163644
0.162429
0.161295
0.160237
0.159251
0.158338
0.185186
0.182759
0.18034
0.177947
0.175634
0.173458
0.171453
0.169635
0.168009
0.166571
0.165315
0.164226
0.163292
0.162497
0.161825
0.161261
0.160791
0.160408
0.184847
0.182088
0.179143
0.17625
0.173699
0.171629
0.170078
0.169045
0.168512
0.168452
0.168824
0.169584
0.170682
0.172071
0.173703
0.175533
0.177523
0.17963
0.182893
0.177315
0.172684
0.170051
0.169642
0.171386
0.175122
0.180636
0.187681
0.195999
0.205338
0.215458
0.226135
0.23717
0.248393
0.259659
0.270863
0.281852
0.168316
0.151167
0.136971
0.125241
0.115644
0.107915
0.10184
0.0972357
0.0939359
0.0917888
0.0906527
0.0903956
0.0908948
0.0920369
0.0937179
0.095844
0.0983325
0.101101
0.0167857
0.0365299
0.0465369
0.0575118
0.0709729
0.0775696
0.0898301
0.101738
0.112318
0.121488
0.128658
0.132253
0.129235
0.124444
0.119962
0.115961
0.114176
0.121012
0.151406
0.200347
0.250333
0.299212
0.34478
0.385848
0.4219
0.452844
0.478851
0.500244
0.517429
0.53085
0.540965
0.548224
0.553071
0.555932
0.557228
0.557377
0.5565
0.554372
0.551104
0.546766
0.5414
0.535031
0.52768
0.519363
0.510106
0.49994
0.488909
0.477075
0.464522
0.451358
0.437722
0.42379
0.409784
0.396009
0.38293
0.371378
0.363038
0.360738
0.362545
0.363535
0.361763
0.355678
0.343685
0.324392
0.297516
0.265042
0.23204
0.201669
0.17345
0.148093
0.126537
0.109559
0.0975511
0.0904174
0.0876412
0.0885011
0.0922123
0.0980362
0.104338
0.110149
0.115
0.118758
0.121627
0.12408
0.126695
0.13005
0.134458
0.139791
0.145887
0.154313
0.171068
0.208531
0.275173
0.339776
0.394265
0.438534
0.473103
0.499002
0.517387
0.529386
0.53604
0.538282
0.53695
0.532796
0.526499
0.518689
0.509554
0.49922
0.487766
0.475233
0.461633
0.446952
0.431159
0.414214
0.396083
0.376746
0.356219
0.334565
0.31193
0.28861
0.265144
0.242333
0.222933
0.213661
0.209132
0.204918
0.200881
0.197124
0.193755
0.190848
0.188439
0.186525
0.185019
0.183647
0.181763
0.178306
0.172293
0.163337
0.151698
0.138149
0.123757
0.109241
0.0959133
0.0859505
0.0823459
0.0818747
0.0821925
0.0817478
0.0798561
0.0766931
0.0731341
0.0704155
0.0696724
0.0713443
0.0753608
0.0813088
0.0882722
0.091996
0.104593
0.135331
0.172508
0.203213
0.227181
0.244805
0.257052
0.265295
0.271563
0.273822
0.271878
0.26572
0.255176
0.240252
0.222073
0.208448
0.205495
0.202288
0.198677
0.195019
0.191293
0.185829
0.0135366
0.0363786
0.0544198
0.0838799
0.127323
0.174866
0.217325
0.253249
0.284421
0.312172
0.340755
0.384245
0.431287
0.461218
0.476265
0.485264
0.490542
0.493824
0.497351
0.501808
0.506718
0.512185
0.518264
0.525097
0.532846
0.541636
0.55152
0.562484
0.574456
0.587327
0.600965
0.615231
0.629994
0.645129
0.660523
0.676045
0.691638
0.707484
0.723306
0.738778
0.753579
0.767401
0.77995
0.790954
0.800165
0.807368
0.812391
0.815118
0.815501
0.813581
0.809486
0.803438
0.795735
0.786728
0.776786
0.766257
0.755428
0.744408
0.732782
0.721042
0.70765
0.691423
0.671086
0.645118
0.61176
0.569223
0.516537
0.458967
0.406306
0.362811
0.325924
0.292155
0.259335
0.227809
0.199798
0.177563
0.162276
0.153769
0.151056
0.151005
0.151207
0.150174
0.147874
0.146099
0.148569
0.16221
0.195199
0.249883
0.3107
0.350232
0.363478
0.370896
0.380947
0.391089
0.401286
0.412224
0.424229
0.437318
0.451339
0.466097
0.481415
0.497165
0.513273
0.529721
0.54654
0.563321
0.579786
0.595729
0.610888
0.62495
0.637545
0.648248
0.656578
0.662009
0.663996
0.662001
0.655553
0.64429
0.628015
0.606745
0.580763
0.550579
0.516621
0.483481
0.451443
0.419576
0.38835
0.3582
0.329451
0.302313
0.276891
0.253194
0.231203
0.210948
0.192353
0.175087
0.159567
0.146718
0.136745
0.129936
0.126867
0.128318
0.134366
0.143998
0.154713
0.16425
0.170643
0.172376
0.16866
0.15965
0.146659
0.132367
0.120481
0.114654
0.117558
0.132009
0.162424
0.207646
0.259265
0.310249
0.356167
0.399442
0.436998
0.46795
0.49288
0.512718
0.528572
0.541228
0.550351
0.55479
0.552654
0.541774
0.520382
0.491206
0.458189
0.422349
0.386121
0.351671
0.319869
0.293041
0.010015
0.0344735
0.0697559
0.129356
0.207868
0.290013
0.36526
0.4328
0.495645
0.55036
0.584362
0.593272
0.589938
0.580063
0.567053
0.553763
0.541993
0.533043
0.5278
0.526464
0.528747
0.53419
0.542213
0.552199
0.563538
0.575675
0.588152
0.60066
0.613046
0.625313
0.637566
0.649956
0.662616
0.675608
0.688891
0.70263
0.717407
0.733065
0.749317
0.765824
0.782229
0.798167
0.813272
0.827174
0.839495
0.849855
0.85788
0.863226
0.86561
0.864858
0.860935
0.853985
0.844327
0.832443
0.818928
0.804433
0.78961
0.77503
0.761071
0.748902
0.73828
0.728329
0.718232
0.70677
0.692039
0.67125
0.640941
0.59823
0.542803
0.481158
0.424686
0.376764
0.336337
0.30097
0.269175
0.240952
0.21714
0.198576
0.18624
0.180407
0.179331
0.181233
0.185998
0.197411
0.226137
0.280751
0.350691
0.400584
0.407145
0.394954
0.386974
0.388424
0.398656
0.415069
0.435346
0.457304
0.479154
0.499868
0.519221
0.537529
0.55532
0.573073
0.591092
0.609461
0.628053
0.646696
0.665355
0.683753
0.701573
0.718455
0.733992
0.747714
0.759085
0.767496
0.772284
0.772765
0.768291
0.758325
0.742508
0.720726
0.693151
0.660168
0.62279
0.586024
0.548833
0.51143
0.474489
0.438577
0.404123
0.371424
0.340665
0.311935
0.285261
0.260619
0.237841
0.216598
0.196674
0.177895
0.161031
0.146353
0.134177
0.124899
0.118844
0.11602
0.116067
0.118313
0.121839
0.125575
0.128401
0.129268
0.1275
0.123599
0.120408
0.123302
0.138586
0.172005
0.225755
0.291856
0.362927
0.439223
0.507894
0.564
0.604112
0.631298
0.649966
0.663322
0.672877
0.679286
0.682399
0.681077
0.673181
0.655912
0.627408
0.591238
0.549091
0.503826
0.458577
0.416045
0.377727
0.345604
0.0228689
0.0652432
0.1279
0.224182
0.347395
0.47491
0.579397
0.652197
0.687079
0.687016
0.66631
0.635743
0.604224
0.576551
0.554623
0.538935
0.529332
0.525364
0.526329
0.531272
0.539084
0.548633
0.558844
0.568773
0.577679
0.585101
0.590911
0.595315
0.598777
0.60189
0.605243
0.609306
0.614377
0.620555
0.627771
0.636681
0.647355
0.659554
0.673006
0.687439
0.702587
0.718189
0.733971
0.749624
0.764778
0.778981
0.791689
0.802292
0.810157
0.814705
0.8155
0.812328
0.805253
0.794627
0.78106
0.765357
0.748456
0.731327
0.714851
0.700586
0.689099
0.679866
0.672545
0.666556
0.660944
0.654247
0.644291
0.627891
0.601042
0.560603
0.507424
0.451093
0.398993
0.3538
0.31545
0.28317
0.256506
0.235371
0.220016
0.212414
0.213332
0.222967
0.243451
0.283743
0.346192
0.409052
0.437131
0.422768
0.400897
0.389452
0.392572
0.407927
0.431175
0.457833
0.484287
0.508272
0.529034
0.547014
0.563227
0.578705
0.594193
0.610075
0.626434
0.643146
0.659976
0.676908
0.693864
0.710595
0.726836
0.742303
0.756688
0.769632
0.780703
0.789369
0.794998
0.796873
0.794255
0.786456
0.77294
0.753407
0.727809
0.696232
0.661806
0.626484
0.589833
0.552563
0.515413
0.478988
0.443759
0.410063
0.37813
0.3481
0.320041
0.293941
0.269706
0.247161
0.226076
0.20623
0.187607
0.170599
0.155366
0.142036
0.130706
0.12144
0.114252
0.10909
0.105808
0.104163
0.103801
0.104273
0.105195
0.106936
0.11202
0.125972
0.155559
0.204938
0.271924
0.348653
0.43375
0.526731
0.612607
0.67498
0.715936
0.741159
0.755707
0.76254
0.763394
0.760114
0.753279
0.742308
0.725616
0.700183
0.666414
0.625091
0.578131
0.528685
0.480011
0.434859
0.394827
0.361381
0.0887002
0.157313
0.24794
0.386125
0.539615
0.666971
0.745497
0.774798
0.763736
0.725381
0.675541
0.627
0.586995
0.557777
0.538803
0.528482
0.524999
0.526576
0.531519
0.538223
0.545209
0.551183
0.555128
0.55642
0.554909
0.550916
0.545125
0.538411
0.531662
0.525648
0.520949
0.517944
0.516841
0.517702
0.520483
0.525731
0.532927
0.54176
0.55199
0.563451
0.576055
0.589782
0.604646
0.620641
0.637663
0.65543
0.673427
0.690884
0.706831
0.720195
0.729955
0.735307
0.735795
0.731386
0.722474
0.709818
0.69443
0.677455
0.660042
0.64425
0.630784
0.619635
0.61087
0.604373
0.599807
0.596573
0.593699
0.589575
0.581571
0.565796
0.537968
0.496445
0.446739
0.397218
0.353272
0.317175
0.289414
0.269784
0.258033
0.254554
0.263271
0.287826
0.333782
0.394614
0.444943
0.455291
0.42813
0.400133
0.387123
0.391611
0.410247
0.437408
0.467446
0.495938
0.52037
0.54024
0.556462
0.570459
0.583487
0.59637
0.609516
0.623042
0.636889
0.650899
0.664861
0.678792
0.692563
0.705966
0.718812
0.730936
0.742188
0.752401
0.761341
0.768654
0.773827
0.776184
0.77494
0.769291
0.758537
0.74217
0.719915
0.692634
0.663328
0.631681
0.598287
0.563932
0.529336
0.495091
0.461662
0.429396
0.398538
0.369249
0.34162
0.315668
0.291353
0.268582
0.247225
0.227149
0.208223
0.19058
0.174314
0.1595
0.146187
0.1344
0.124151
0.11544
0.108261
0.102612
0.0985121
0.0960625
0.095599
0.0982119
0.106896
0.127514
0.166917
0.227103
0.301911
0.385137
0.479278
0.582036
0.676115
0.746451
0.791965
0.817402
0.828946
0.82934
0.820502
0.805746
0.786805
0.763825
0.736315
0.703303
0.66396
0.618655
0.569191
0.518458
0.469439
0.4246
0.385344
0.35262
0.18593
0.290379
0.41315
0.550038
0.680733
0.776917
0.823848
0.822061
0.782972
0.724224
0.6632
0.611437
0.573454
0.548894
0.535238
0.529506
0.528927
0.531083
0.533897
0.535623
0.534917
0.530942
0.523445
0.512741
0.499592
0.485018
0.470099
0.455823
0.442995
0.432207
0.423855
0.41816
0.415212
0.414992
0.417463
0.42205
0.427941
0.434728
0.442131
0.450016
0.458437
0.467656
0.478123
0.490399
0.505018
0.522301
0.542178
0.564074
0.586909
0.60921
0.629306
0.645601
0.656844
0.662316
0.661906
0.656095
0.645778
0.6321
0.616459
0.601115
0.586657
0.573585
0.562269
0.552877
0.545387
0.539613
0.535194
0.531494
0.52735
0.520693
0.508335
0.486697
0.454254
0.413876
0.373396
0.338916
0.31369
0.298848
0.294814
0.303226
0.327782
0.372776
0.429162
0.471883
0.473097
0.435102
0.399665
0.382943
0.386259
0.40546
0.434186
0.465957
0.495654
0.520458
0.539922
0.555153
0.567736
0.579009
0.589837
0.600675
0.611708
0.622965
0.634371
0.645779
0.657
0.667977
0.678494
0.688339
0.697364
0.705503
0.712775
0.719243
0.724938
0.729762
0.733405
0.735303
0.734669
0.730612
0.722271
0.708957
0.690447
0.668817
0.644138
0.616848
0.587657
0.557299
0.526432
0.495599
0.465228
0.435642
0.407071
0.379676
0.353556
0.328755
0.305272
0.283066
0.262075
0.242232
0.223476
0.20584
0.189385
0.174147
0.160137
0.147354
0.135792
0.125454
0.116352
0.108528
0.102092
0.0973297
0.094932
0.0965048
0.105558
0.128401
0.172249
0.238188
0.317731
0.404991
0.503851
0.611584
0.710862
0.786775
0.836494
0.86398
0.873849
0.868666
0.850552
0.824296
0.793037
0.758393
0.720947
0.680286
0.635761
0.587604
0.537279
0.48716
0.439712
0.396915
0.359852
0.329032
0.277958
0.422391
0.548336
0.667149
0.768941
0.834793
0.854305
0.830086
0.775731
0.709884
0.648618
0.600791
0.568272
0.548788
0.538626
0.534093
0.532005
0.529788
0.525497
0.517877
0.506411
0.491278
0.473216
0.453316
0.4328
0.412853
0.394495
0.378527
0.365504
0.355754
0.349391
0.346353
0.346426
0.349271
0.354683
0.361108
0.367909
0.374524
0.380444
0.385299
0.388971
0.391727
0.394303
0.39789
0.40396
0.413927
0.428739
0.448566
0.472705
0.499656
0.527316
0.553306
0.575402
0.591919
0.601903
0.605298
0.602644
0.594936
0.584025
0.571484
0.558211
0.544972
0.532323
0.520595
0.509915
0.500246
0.491437
0.483246
0.475254
0.466675
0.456115
0.441585
0.421273
0.395074
0.365242
0.338466
0.319887
0.312313
0.317594
0.338958
0.380161
0.436807
0.485261
0.492516
0.451493
0.403727
0.379417
0.378174
0.395168
0.423439
0.455817
0.486489
0.512124
0.53202
0.547208
0.559281
0.569622
0.579158
0.588422
0.597698
0.607116
0.616705
0.626389
0.636001
0.645315
0.654111
0.662047
0.668847
0.674345
0.678529
0.681559
0.683737
0.685406
0.686795
0.687869
0.688252
0.687211
0.683805
0.677062
0.666198
0.652036
0.634557
0.614031
0.590988
0.566071
0.539927
0.513132
0.486158
0.459373
0.433047
0.407377
0.3825
0.358509
0.335457
0.31337
0.29225
0.272086
0.252871
0.234606
0.217298
0.20101
0.185783
0.171629
0.158539
0.146495
0.135481
0.125498
0.116584
0.108859
0.102636
0.0986902
0.0987961
0.106666
0.128807
0.172811
0.240096
0.321624
0.410689
0.510876
0.619745
0.721203
0.800694
0.853985
0.883279
0.892057
0.882688
0.857458
0.82185
0.780215
0.735504
0.689326
0.642052
0.593464
0.543763
0.494
0.445893
0.40125
0.36149
0.327345
0.299002
0.309998
0.503471
0.642329
0.747018
0.823019
0.862235
0.859924
0.821244
0.760491
0.695029
0.638248
0.596223
0.568796
0.552506
0.543014
0.536335
0.529296
0.519681
0.506279
0.48883
0.467862
0.444432
0.419864
0.395525
0.37267
0.352342
0.335322
0.322106
0.312915
0.307712
0.306247
0.308098
0.312726
0.319523
0.328028
0.337432
0.347122
0.356344
0.364199
0.369721
0.372059
0.37076
0.366115
0.359458
0.353163
0.35017
0.353114
0.363523
0.3816
0.406346
0.435745
0.466985
0.496986
0.523027
0.542989
0.556033
0.562093
0.562113
0.55768
0.550048
0.540218
0.529037
0.517169
0.505056
0.492903
0.480709
0.468337
0.455594
0.442284
0.428189
0.413011
0.396318
0.377723
0.357648
0.337126
0.319161
0.308539
0.309028
0.324144
0.358335
0.412564
0.471628
0.500532
0.475191
0.417981
0.379682
0.369782
0.381505
0.407262
0.439194
0.470699
0.497672
0.518818
0.534843
0.547242
0.557431
0.566419
0.574839
0.583076
0.591375
0.599869
0.608586
0.617419
0.626148
0.634454
0.64189
0.647993
0.652388
0.65485
0.655367
0.654198
0.651855
0.649013
0.646278
0.643925
0.641856
0.639399
0.635662
0.629688
0.621191
0.60982
0.595515
0.578512
0.559256
0.538294
0.516175
0.493386
0.470317
0.447258
0.424415
0.401929
0.379897
0.358387
0.33745
0.317122
0.297437
0.278424
0.260123
0.242582
0.225819
0.209914
0.194922
0.180873
0.167772
0.155611
0.144375
0.134058
0.124684
0.116349
0.109331
0.10435
0.103121
0.109261
0.129119
0.170397
0.235434
0.316002
0.404498
0.503183
0.610055
0.710988
0.792068
0.847785
0.878609
0.886938
0.874986
0.845096
0.802893
0.753635
0.701305
0.648496
0.596423
0.545408
0.495665
0.447781
0.402757
0.361699
0.325479
0.294515
0.268795
0.324751
0.556489
0.703811
0.798069
0.854645
0.873607
0.855808
0.808832
0.746715
0.684634
0.633173
0.59614
0.57201
0.556641
0.545417
0.534407
0.520857
0.503327
0.48159
0.456344
0.428853
0.400606
0.37308
0.347582
0.325167
0.306594
0.292301
0.282413
0.276775
0.275023
0.27666
0.281142
0.287933
0.296532
0.307058
0.319306
0.332844
0.346947
0.360539
0.372156
0.380014
0.382252
0.377489
0.365724
0.349169
0.332212
0.319989
0.316229
0.322543
0.338805
0.363602
0.394303
0.427378
0.45941
0.487006
0.508422
0.522656
0.530644
0.533464
0.532043
0.527261
0.519934
0.510767
0.500287
0.488789
0.476318
0.46272
0.447728
0.431055
0.4125
0.392087
0.370213
0.347766
0.326361
0.308302
0.295214
0.290387
0.297845
0.322275
0.367686
0.42909
0.481029
0.487782
0.444041
0.389124
0.364375
0.367086
0.387813
0.417914
0.449849
0.478467
0.501538
0.519181
0.532664
0.543416
0.552548
0.560797
0.568647
0.576437
0.584408
0.592689
0.601264
0.609944
0.618394
0.626185
0.632691
0.63737
0.639763
0.639573
0.636757
0.631616
0.624811
0.617317
0.610156
0.603875
0.598758
0.594151
0.589471
0.583779
0.576366
0.566765
0.554821
0.540665
0.524631
0.507163
0.488713
0.469675
0.450351
0.430951
0.411604
0.392386
0.373344
0.354508
0.335909
0.317582
0.299574
0.281943
0.264763
0.248113
0.232052
0.216677
0.202065
0.188267
0.17531
0.163203
0.151948
0.141547
0.132025
0.123462
0.116091
0.110522
0.10828
0.112668
0.129585
0.166493
0.226657
0.303477
0.389002
0.483743
0.586039
0.684045
0.764764
0.821653
0.853669
0.862186
0.849179
0.816956
0.771001
0.717073
0.659922
0.603014
0.548388
0.496879
0.448672
0.403849
0.362693
0.325652
0.293132
0.265317
0.242108
0.297359
0.577886
0.736298
0.826619
0.871627
0.877717
0.850458
0.799499
0.738321
0.679995
0.632835
0.599062
0.576315
0.56011
0.545809
0.529791
0.509936
0.485648
0.457526
0.426895
0.395363
0.364512
0.33573
0.310129
0.288506
0.271312
0.258648
0.250299
0.245813
0.24463
0.246207
0.250132
0.256168
0.264256
0.275175
0.288926
0.305307
0.323808
0.343547
0.363162
0.380655
0.393259
0.397613
0.390812
0.372483
0.346628
0.32095
0.30243
0.294861
0.299241
0.314994
0.340232
0.371385
0.40503
0.436876
0.463547
0.484577
0.499851
0.50974
0.514839
0.515825
0.513389
0.508185
0.500771
0.491527
0.480603
0.467918
0.453215
0.436105
0.416157
0.393118
0.36734
0.340201
0.314214
0.292904
0.279573
0.276838
0.288847
0.320349
0.372625
0.433564
0.472496
0.461829
0.412758
0.367886
0.355277
0.367521
0.393657
0.425038
0.455207
0.480659
0.500596
0.515865
0.527835
0.537724
0.546395
0.554429
0.562241
0.570148
0.578368
0.586976
0.595858
0.604694
0.612989
0.6202
0.62571
0.628948
0.629423
0.626786
0.620952
0.612233
0.601341
0.589447
0.578073
0.567844
0.559544
0.552706
0.546573
0.540309
0.533156
0.524579
0.51432
0.502398
0.489039
0.474588
0.459399
0.443777
0.427935
0.411995
0.396013
0.379999
0.363944
0.347838
0.331682
0.315497
0.299328
0.283245
0.267341
0.251715
0.236472
0.221735
0.207605
0.194156
0.181439
0.169486
0.158316
0.147946
0.138412
0.129795
0.122298
0.116433
0.113488
0.116332
0.130209
0.162049
0.215762
0.28664
0.367019
0.455719
0.55127
0.644176
0.722649
0.779429
0.812185
0.821354
0.808543
0.77596
0.728801
0.672986
0.613804
0.555457
0.500685
0.450693
0.405521
0.364718
0.327915
0.295025
0.266119
0.241249
0.220313
0.335406
0.592719
0.749821
0.83894
0.879517
0.879826
0.848379
0.796354
0.736835
0.681398
0.636879
0.604581
0.58174
0.563764
0.546143
0.525624
0.500668
0.471316
0.438691
0.404429
0.370229
0.337617
0.307849
0.281881
0.260324
0.243401
0.230937
0.222421
0.217146
0.214412
0.213731
0.214985
0.218479
0.224921
0.2353
0.249631
0.267746
0.289162
0.31316
0.3387
0.364285
0.387537
0.40455
0.410032
0.399569
0.373684
0.340703
0.310874
0.290918
0.283391
0.28857
0.305739
0.331421
0.362113
0.393972
0.423815
0.449668
0.470623
0.486513
0.497577
0.504236
0.506981
0.506325
0.50276
0.496687
0.488349
0.477798
0.464924
0.449443
0.430841
0.408453
0.381974
0.352298
0.32211
0.295769
0.278535
0.274553
0.288143
0.322857
0.375872
0.429623
0.454123
0.432794
0.386305
0.352848
0.349709
0.368387
0.3973
0.428267
0.4562
0.478979
0.496695
0.510499
0.521682
0.531258
0.539926
0.548174
0.556373
0.564803
0.573614
0.582774
0.592018
0.600862
0.608667
0.614876
0.618978
0.620464
0.618888
0.613875
0.605301
0.593557
0.579278
0.563557
0.548679
0.53536
0.524136
0.514865
0.506974
0.499718
0.492357
0.484307
0.475233
0.465058
0.453916
0.442058
0.429747
0.417194
0.404522
0.391769
0.378916
0.365913
0.352703
0.33924
0.325498
0.31148
0.297217
0.282774
0.268246
0.253744
0.239414
0.2254
0.211827
0.198798
0.186389
0.174654
0.163632
0.153357
0.143875
0.135275
0.127745
0.121725
0.11829
0.11984
0.130868
0.157575
0.204178
0.267726
0.341274
0.422279
0.509317
0.595157
0.669529
0.724852
0.757728
0.767714
0.755966
0.724536
0.678239
0.622965
0.564362
0.507187
0.454653
0.408079
0.367209
0.331072
0.298791
0.269925
0.244368
0.222137
0.203193
0.310971
0.584853
0.746041
0.839172
0.881983
0.88294
0.851923
0.80104
0.743256
0.689448
0.645836
0.613464
0.589547
0.569564
0.549142
0.525274
0.496757
0.463973
0.428289
0.391442
0.355116
0.320768
0.289599
0.262531
0.240114
0.222428
0.209046
0.199143
0.191736
0.186009
0.181665
0.17914
0.17959
0.184652
0.194825
0.209979
0.229765
0.253529
0.280552
0.309835
0.340256
0.370318
0.396979
0.414541
0.415855
0.39686
0.363952
0.328812
0.30056
0.283659
0.279273
0.287034
0.30531
0.331196
0.361036
0.391361
0.41959
0.444199
0.464521
0.480421
0.492042
0.499648
0.503557
0.504111
0.501633
0.496366
0.488441
0.477905
0.464721
0.448603
0.428798
0.404352
0.37516
0.343238
0.313149
0.291429
0.284432
0.296753
0.330142
0.37803
0.420515
0.432131
0.405888
0.365599
0.342327
0.346121
0.368172
0.397779
0.42761
0.453629
0.474611
0.490946
0.503956
0.514854
0.524497
0.533473
0.542212
0.551031
0.560136
0.569574
0.579163
0.588478
0.596886
0.603644
0.608304
0.610503
0.609851
0.60602
0.598648
0.587466
0.573235
0.556522
0.538608
0.521068
0.505102
0.491382
0.479957
0.470421
0.462133
0.454397
0.446624
0.438431
0.429675
0.420416
0.410824
0.401075
0.391285
0.381482
0.371615
0.361592
0.35131
0.340678
0.329629
0.318125
0.306156
0.293741
0.280931
0.267797
0.254477
0.241125
0.227897
0.214942
0.202387
0.190333
0.178861
0.168029
0.157889
0.148498
0.139948
0.132419
0.1263
0.122486
0.122951
0.13143
0.153299
0.192795
0.248414
0.314126
0.386394
0.46367
0.540754
0.609192
0.661567
0.693698
0.704309
0.69405
0.664795
0.62096
0.56831
0.512689
0.45916
0.411065
0.369522
0.333852
0.302654
0.274756
0.249571
0.226971
0.207026
0.18979
0.328176
0.566954
0.730307
0.830537
0.880693
0.887871
0.861649
0.814233
0.758546
0.705404
0.661198
0.627407
0.601693
0.579777
0.557386
0.531538
0.501054
0.466343
0.428787
0.390096
0.351893
0.31559
0.282412
0.253376
0.229135
0.209774
0.194742
0.182986
0.173284
0.164648
0.156698
0.150126
0.147568
0.152885
0.163713
0.17998
0.201176
0.226609
0.255723
0.287373
0.320361
0.353597
0.384973
0.409558
0.419757
0.409895
0.382264
0.346807
0.314241
0.290899
0.279149
0.279426
0.290904
0.311414
0.337781
0.366634
0.395171
0.421499
0.444566
0.46391
0.479416
0.491132
0.499184
0.503735
0.504956
0.502991
0.497927
0.489844
0.478882
0.465124
0.448164
0.426889
0.400315
0.369381
0.338127
0.313548
0.303276
0.312117
0.340276
0.378986
0.40889
0.410392
0.383103
0.349894
0.33469
0.343002
0.366506
0.395657
0.424032
0.448415
0.468076
0.483686
0.49646
0.507461
0.517438
0.526912
0.536268
0.545774
0.555531
0.565458
0.57517
0.584095
0.591496
0.596614
0.59917
0.598963
0.595775
0.589444
0.579804
0.566831
0.550839
0.532472
0.512912
0.493622
0.475874
0.46042
0.447436
0.436656
0.427559
0.419527
0.411993
0.404559
0.397047
0.389467
0.381925
0.374515
0.367256
0.360071
0.352812
0.345311
0.337413
0.329006
0.320022
0.310435
0.300244
0.289471
0.278149
0.266339
0.254184
0.241823
0.229413
0.217112
0.205067
0.193405
0.182228
0.171616
0.161638
0.152362
0.143883
0.136373
0.130175
0.126043
0.12558
0.131826
0.149316
0.182102
0.229809
0.287385
0.3506
0.417559
0.484677
0.545483
0.593284
0.623504
0.634161
0.625384
0.598916
0.558803
0.51061
0.460183
0.412532
0.370698
0.335312
0.305249
0.278859
0.254924
0.232923
0.212827
0.194809
0.17902
0.326452
0.544576
0.704561
0.811936
0.872309
0.890169
0.873476
0.833384
0.782177
0.730563
0.685469
0.649329
0.620835
0.596504
0.572425
0.545606
0.51463
0.479601
0.441634
0.402243
0.362923
0.325016
0.289755
0.25826
0.231362
0.209337
0.191789
0.17779
0.16626
0.156384
0.147846
0.1411
0.138519
0.142784
0.153098
0.168813
0.189557
0.21504
0.244647
0.277196
0.311277
0.345659
0.378618
0.406088
0.420935
0.416505
0.393015
0.359001
0.325175
0.298589
0.282361
0.277551
0.283886
0.299743
0.322427
0.348873
0.376354
0.402867
0.42716
0.448549
0.46672
0.481554
0.493028
0.501146
0.50592
0.50734
0.505363
0.499952
0.491222
0.479497
0.464919
0.446794
0.423792
0.395735
0.365668
0.340047
0.326816
0.33076
0.35119
0.378852
0.396783
0.390973
0.364756
0.338033
0.328671
0.339513
0.363134
0.391204
0.418134
0.441274
0.460155
0.475488
0.488348
0.499661
0.51009
0.520097
0.530013
0.540033
0.550149
0.56012
0.56944
0.577417
0.58328
0.586361
0.586614
0.583944
0.578281
0.569604
0.557922
0.543288
0.525942
0.506486
0.486006
0.465855
0.447231
0.430873
0.417023
0.40554
0.396022
0.387936
0.380756
0.374096
0.367773
0.361778
0.35617
0.350969
0.346094
0.341352
0.336488
0.331239
0.325397
0.31883
0.311491
0.303392
0.294574
0.285087
0.274953
0.264291
0.253185
0.241751
0.230132
0.218485
0.206964
0.195712
0.18485
0.174478
0.164681
0.155538
0.147148
0.13967
0.133411
0.129001
0.127736
0.132049
0.145676
0.172342
0.212534
0.262225
0.316766
0.373668
0.430369
0.482294
0.523947
0.550879
0.560668
0.553017
0.529661
0.494319
0.45223
0.408925
0.368905
0.334509
0.305723
0.281094
0.258988
0.238388
0.218997
0.200954
0.184538
0.16998
0.290753
0.51065
0.669916
0.783496
0.855438
0.887157
0.884066
0.855311
0.811835
0.7639
0.718958
0.680664
0.649152
0.622162
0.59649
0.569287
0.538853
0.504816
0.467826
0.429054
0.389778
0.351213
0.314516
0.280805
0.251026
0.225723
0.204874
0.187977
0.174323
0.163324
0.154718
0.148858
0.147572
0.151976
0.161797
0.176874
0.197094
0.222222
0.25162
0.284073
0.318049
0.35212
0.384467
0.411212
0.425619
0.421358
0.39858
0.365269
0.331403
0.303653
0.285262
0.27761
0.280707
0.293216
0.312787
0.336692
0.362438
0.388112
0.41243
0.434621
0.454262
0.47114
0.48514
0.49617
0.504122
0.508847
0.510139
0.507772
0.501659
0.492083
0.479596
0.464255
0.445038
0.420941
0.393534
0.368047
0.352082
0.350293
0.36181
0.378179
0.385647
0.374769
0.35045
0.32897
0.323465
0.335316
0.358158
0.384824
0.410427
0.432666
0.45115
0.4665
0.479633
0.491348
0.502229
0.512684
0.522978
0.533214
0.543275
0.552803
0.561229
0.567872
0.572003
0.573038
0.571078
0.566096
0.558124
0.547279
0.533711
0.517586
0.499187
0.479101
0.458318
0.438041
0.419314
0.402795
0.38875
0.377133
0.367645
0.359824
0.35319
0.347392
0.342275
0.337836
0.334113
0.331062
0.328498
0.326105
0.323499
0.32031
0.316257
0.311185
0.305068
0.297978
0.290035
0.281356
0.272033
0.262188
0.251884
0.241208
0.230276
0.219225
0.208204
0.197357
0.186816
0.176694
0.167089
0.158091
0.149803
0.142373
0.136072
0.131425
0.129472
0.132132
0.142416
0.163626
0.196875
0.239224
0.285953
0.33382
0.380611
0.423245
0.45766
0.480045
0.487964
0.48093
0.46085
0.431143
0.396476
0.361641
0.330173
0.303458
0.280894
0.260955
0.2423
0.224301
0.206958
0.190576
0.175507
0.162023
0.277988
0.482777
0.633052
0.745805
0.826413
0.873069
0.887075
0.874269
0.843299
0.803266
0.76169
0.723302
0.689837
0.66062
0.633583
0.606368
0.577175
0.545166
0.510431
0.473678
0.43588
0.398055
0.361208
0.326338
0.294382
0.266072
0.241799
0.221583
0.205202
0.192371
0.182909
0.176926
0.175767
0.179963
0.189517
0.204383
0.224423
0.249274
0.278137
0.309666
0.342247
0.374311
0.403727
0.426295
0.435507
0.426322
0.400515
0.366362
0.332643
0.304894
0.286026
0.277408
0.279024
0.289575