/*--------------------------------*- C++ -*----------------------------------*\
  =========                 |
  \\      /  F ield         | OpenFOAM: The Open Source CFD Toolbox
   \\    /   O peration     | Website:  https://openfoam.org
    \\  /    A nd           | Version:  9
     \\/     M anipulation  |
\*---------------------------------------------------------------------------*/
FoamFile
{
    format      ascii;
    class       volScalarField;
    location    "0.08";
    object      p;
}
// * * * * * * * * * * * * * * * * * * * * * * * * * * * * * * * * * * * * * //

dimensions      [0 2 -2 0 0 0 0];

internalField   nonuniform List<scalar> 
12225
(
-4.1154
-5.298
-5.86868
-6.00382
-6.1024
-6.22076
-6.31887
-6.38344
-6.42055
-6.43516
-6.42707
-6.39387
-6.33256
-6.23914
-6.1076
-5.92762
-5.69251
-5.38358
-5.23251
-5.86708
-6.10466
-6.13531
-6.1818
-6.26492
-6.3414
-6.39276
-6.42136
-6.43061
-6.41962
-6.38558
-6.32542
-6.23541
-6.1106
-5.94353
-5.73515
-5.49566
-5.35286
-5.60212
-5.86696
-6.00403
-6.1
-6.20287
-6.29358
-6.35682
-6.39464
-6.41149
-6.40759
-6.38093
-6.32925
-6.25004
-6.1407
-5.99919
-5.83579
-5.68356
-5.43459
-5.62835
-5.92736
-6.08528
-6.1667
-6.24905
-6.32705
-6.38311
-6.41616
-6.43003
-6.4252
-6.39989
-6.35229
-6.28098
-6.1855
-6.06794
-5.94213
-5.8353
-5.53191
-5.69854
-5.95468
-6.09668
-6.16932
-6.24445
-6.31967
-6.37616
-6.41073
-6.42682
-6.42546
-6.4054
-6.36549
-6.30539
-6.22635
-6.13264
-6.03695
-5.95812
-5.62745
-5.75882
-5.96564
-6.10179
-6.18045
-6.25516
-6.32831
-6.38457
-6.42021
-6.43827
-6.4402
-6.42541
-6.39339
-6.3447
-6.28167
-6.20934
-6.13807
-6.08114
-5.71511
-5.8156
-5.98507
-6.11682
-6.19954
-6.27096
-6.33921
-6.3937
-6.43003
-6.45022
-6.45592
-6.4471
-6.42381
-6.38729
-6.3404
-6.28817
-6.23864
-6.20055
-5.79576
-5.87329
-6.01312
-6.13598
-6.21881
-6.28689
-6.35115
-6.40469
-6.44264
-6.46597
-6.47641
-6.47451
-6.46087
-6.43713
-6.40637
-6.3732
-6.3437
-6.32355
-5.87077
-5.93139
-6.0464
-6.15772
-6.239
-6.30504
-6.36652
-6.41944
-6.4592
-6.48604
-6.5017
-6.50725
-6.50368
-6.4929
-6.47796
-6.4629
-6.45244
-6.45053
-5.94095
-5.98888
-6.08341
-6.18275
-6.26139
-6.32595
-6.38525
-6.43762
-6.47929
-6.51006
-6.53149
-6.54498
-6.55186
-6.55412
-6.55469
-6.55708
-6.56511
-6.58188
-6.00691
-6.04522
-6.12325
-6.21117
-6.28621
-6.34933
-6.40705
-6.45922
-6.50309
-6.53818
-6.56585
-6.58763
-6.6051
-6.62029
-6.63589
-6.65504
-6.68096
-6.71635
-6.06391
-6.09565
-6.16166
-6.24002
-6.31116
-6.37297
-6.42981
-6.48224
-6.52836
-6.56766
-6.60128
-6.63081
-6.65791
-6.68463
-6.71345
-6.74717
-6.78869
-6.84049
-6.11764
-6.14436
-6.20068
-6.27058
-6.33772
-6.39823
-6.45461
-6.50766
-6.55619
-6.59978
-6.63939
-6.67657
-6.71304
-6.75075
-6.79201
-6.83934
-6.89535
-6.96232
-6.17552
-6.19788
-6.24561
-6.3074
-6.37021
-6.4293
-6.48558
-6.53976
-6.59126
-6.63981
-6.68621
-6.73191
-6.77857
-6.82803
-6.88236
-6.94378
-7.01458
-7.0968
-6.23666
-6.2554
-6.296
-6.35064
-6.40919
-6.46691
-6.52351
-6.57944
-6.63449
-6.68857
-6.74236
-6.7971
-6.85431
-6.91564
-6.98287
-7.05785
-7.14251
-7.2385
-6.29946
-6.31545
-6.35061
-6.39955
-6.45451
-6.51117
-6.5686
-6.62691
-6.68601
-6.74594
-6.80724
-6.87091
-6.93823
-7.01054
-7.08926
-7.17583
-7.27169
-7.378
-6.36117
-6.37532
-6.40688
-6.45202
-6.50463
-6.56096
-6.6198
-6.68096
-6.74434
-6.80994
-6.87816
-6.94969
-7.02546
-7.10643
-7.1936
-7.28789
-7.39022
-7.50118
-6.41688
-6.43016
-6.46011
-6.50371
-6.55576
-6.61289
-6.67379
-6.73806
-6.80547
-6.87589
-6.94948
-7.02661
-7.1078
-7.19359
-7.2845
-7.38099
-7.48345
-7.59199
-6.45753
-6.47114
-6.5019
-6.54681
-6.60069
-6.66014
-6.72383
-6.79124
-6.86195
-6.9356
-7.01202
-7.09125
-7.17345
-7.25877
-7.34731
-7.43913
-7.53424
-7.63237
-6.46395
-6.47934
-6.51385
-6.56349
-6.62182
-6.68493
-6.75167
-6.82171
-6.89452
-6.96948
-7.04619
-7.12448
-7.2043
-7.28556
-7.36818
-7.45198
-7.53676
-7.62238
-6.44778
-6.46584
-6.50597
-6.56226
-6.62619
-6.69337
-6.76319
-6.83565
-6.91007
-6.98567
-7.06201
-7.13894
-7.21632
-7.29396
-7.37163
-7.44912
-7.5262
-7.60266
-6.41476
-6.43698
-6.48567
-6.55121
-6.62166
-6.69289
-6.76601
-6.84143
-6.91782
-6.99402
-7.0697
-7.14487
-7.21944
-7.29318
-7.36584
-7.4372
-7.50697
-7.57487
-6.36834
-6.39662
-6.45764
-6.53554
-6.61302
-6.68745
-6.76317
-6.84132
-6.91991
-6.99737
-7.07344
-7.14819
-7.22144
-7.2929
-7.36235
-7.42962
-7.49455
-7.55712
-6.31082
-6.34816
-6.42564
-6.51776
-6.60279
-6.68145
-6.76047
-6.84045
-6.91913
-6.99571
-7.07052
-7.14365
-7.21477
-7.28354
-7.34972
-7.41317
-7.47361
-7.53072
-6.2431
-6.29528
-6.39646
-6.49926
-6.58617
-6.66999
-6.75752
-6.84428
-6.92649
-7.00465
-7.08009
-7.15308
-7.22321
-7.29023
-7.35404
-7.41458
-7.4718
-7.5259
-6.16476
-6.23608
-6.38107
-6.49571
-6.57077
-6.64661
-6.73425
-6.82301
-6.90653
-6.98571
-7.06212
-7.13575
-7.20602
-7.27265
-7.3356
-7.39487
-7.45032
-7.5017
-6.08174
-6.15413
-6.35867
-6.51658
-6.60496
-6.68392
-6.77154
-6.85797
-6.93838
-7.01467
-7.0884
-7.15932
-7.22675
-7.2904
-7.35021
-7.40622
-7.45854
-7.50795
-6.02039
-6.07497
-6.23524
-6.37927
-6.4888
-6.59639
-6.70374
-6.80218
-6.89155
-6.97538
-7.0552
-7.13081
-7.20181
-7.26813
-7.32979
-7.38689
-7.43972
-7.48962
-5.95638
-6.38742
-6.54643
-6.56347
-6.60434
-6.68699
-6.77782
-6.86142
-6.93936
-7.01483
-7.08802
-7.15793
-7.22387
-7.28557
-7.34282
-7.39535
-7.44321
-7.48707
-4.86729
-5.7761
-6.2835
-6.40896
-6.49743
-6.61607
-6.73066
-6.82894
-6.9172
-7.0006
-7.0799
-7.15445
-7.22392
-7.28825
-7.34735
-7.40083
-7.44838
-7.48816
-11.7377
-11.7801
-11.8504
-11.9545
-12.0875
-12.2792
-12.5489
-12.9037
-13.3354
-13.8154
-14.3087
-14.7813
-15.1985
-15.5468
-15.8163
-16.0344
-16.2212
-16.3923
-16.5785
-16.8339
-17.2261
-17.8209
-18.6634
-19.7688
-21.1194
-22.6666
-24.3387
-26.0495
-27.7078
-29.2241
-30.5183
-31.5263
-32.202
-32.5144
-32.4269
-31.8769
-30.827
-29.3141
-27.391
-25.1111
-22.5275
-19.6941
-16.6662
-13.4988
-10.2459
-6.95983
-3.68992
-0.481682
2.62374
5.5902
8.38685
10.9883
13.3745
15.5305
17.4468
19.1199
20.5528
21.7434
22.6779
23.3488
23.7605
23.9275
23.8807
23.6698
23.3541
22.9703
22.4442
21.7871
21.0529
20.283
19.5046
18.726
17.9475
17.1828
16.4788
15.9192
15.5781
15.4723
15.5959
15.8604
16.137
16.3155
16.3496
16.2609
16.113
15.9536
15.7731
15.4307
14.7085
13.4299
11.5093
8.80978
5.19959
0.665048
-4.56439
-10.1181
-15.6417
-20.8499
-25.5382
-29.5716
-32.8688
-35.3864
-37.107
-38.0263
-38.1265
-37.3989
-35.8908
-33.6689
-30.7993
-27.3545
-23.4166
-19.0776
-14.4394
-9.61181
-4.71115
0.14292
4.83186
9.24471
13.2846
16.8723
19.9515
22.4994
24.5278
26.0593
27.1161
27.7414
28.0005
27.9602
27.6862
27.2404
26.6779
26.047
25.3887
24.7382
24.1376
23.5747
23.0017
22.4245
21.8571
21.3224
20.8438
20.434
20.1406
19.9423
19.7657
19.6143
19.4964
19.4086
19.3458
19.3008
19.2684
19.2556
19.2835
19.3503
19.3913
19.2619
18.7541
17.5833
15.5811
12.8363
9.94555
7.20875
4.89948
3.1632
2.08098
1.70356
1.99412
2.98934
4.60666
6.71944
9.14309
11.6539
14.0288
16.0972
17.7507
18.9543
19.7586
20.2647
20.6145
20.9371
-11.6065
-11.6669
-11.775
-11.8894
-12.0499
-12.2841
-12.6138
-13.0351
-13.5281
-14.0634
-14.5952
-15.0717
-15.4841
-15.7885
-15.9931
-16.1482
-16.3036
-16.4956
-16.7475
-17.1107
-17.6722
-18.5098
-19.6652
-21.1335
-22.8655
-24.7789
-26.7711
-28.7323
-30.5565
-32.1483
-33.4257
-34.3223
-34.7893
-34.7949
-34.3375
-33.4577
-32.1988
-30.5628
-28.5617
-26.2257
-23.5976
-20.7266
-17.6655
-14.4683
-11.1883
-7.87705
-4.58348
-1.35279
1.77413
4.76146
7.57889
10.2019
12.6117
14.7949
16.742
18.446
19.9007
21.1079
22.0728
22.7958
23.2814
23.5419
23.5961
23.4656
23.1593
22.6756
22.1013
21.4804
20.8159
20.1206
19.4181
18.7025
17.9571
17.1876
16.4439
15.8135
15.3955
15.2534
15.3922
15.7087
16.0505
16.2798
16.3298
16.2231
16.0373
15.853
15.6767
15.4263
14.8427
13.6047
11.4832
8.35879
4.21734
-0.816181
-6.39868
-12.1377
-17.698
-22.8375
-27.3956
-31.2691
-34.3918
-36.724
-38.2457
-38.9566
-38.8868
-38.0713
-36.5295
-34.2929
-31.4156
-27.9658
-24.0233
-19.6786
-15.0318
-10.1916
-5.2733
-0.39603
4.32214
8.77003
12.8492
16.479
19.6036
22.1961
24.2617
25.8198
26.897
27.5439
27.8241
27.8041
27.5493
27.1211
26.5744
25.9567
25.3088
24.6624
24.0249
23.4122
22.8434
22.3065
21.7842
21.2896
20.85
20.4961
20.2053
19.961
19.7736
19.6257
19.5084
19.4195
19.3556
19.3105
19.2778
19.2624
19.287
19.3543
19.3997
19.2859
18.8187
17.6487
15.5211
12.6555
9.65498
6.90009
4.61035
2.90075
1.84104
1.46116
1.78382
2.77084
4.37555
6.48079
8.90731
11.4336
13.8334
15.9258
17.5993
18.8222
19.6446
20.1641
20.5114
20.7658
-11.2728
-11.3204
-11.3875
-11.5002
-11.669
-11.9215
-12.2667
-12.6866
-13.1578
-13.658
-14.17
-14.6784
-15.1392
-15.5505
-15.9377
-16.3551
-16.867
-17.5284
-18.3737
-19.4201
-20.6711
-22.115
-23.723
-25.4526
-27.2515
-29.0631
-30.8297
-32.494
-33.9998
-35.2923
-36.3188
-37.0277
-37.3689
-37.3009
-36.801
-35.8678
-34.5155
-32.7662
-30.6489
-28.2007
-25.4664
-22.4962
-19.343
-16.061
-12.7034
-9.32155
-5.96411
-2.67634
0.500582
3.53039
6.38255
9.0329
11.4639
13.6641
15.6271
17.3493
18.8289
20.0669
21.0713
21.8508
22.4108
22.7609
22.9126
22.8777
22.6657
22.2865
21.7615
21.1077
20.3989
19.704
19.0238
18.339
17.6263
16.8829
16.1565
15.5418
15.1418
15.0412
15.2087
15.5582
15.9328
16.1736
16.2032
16.0712
15.9049
15.774
15.5936
15.1563
14.1099
12.0998
8.9341
4.78562
-0.0331429
-5.23547
-10.5651
-15.8116
-20.808
-25.4218
-29.5445
-33.0874
-35.9776
-38.1571
-39.5827
-40.2316
-40.1153
-39.25
-37.6624
-35.389
-32.4809
-29.0034
-25.0337
-20.66
-15.9803
-11.1018
-6.13877
-1.21016
3.56531
8.07488
12.2176
15.9104
19.0953
21.7445
23.8608
25.4618
26.5759
27.2565
27.5669
27.5739
27.3432
26.9365
26.4088
25.8073
25.1709
24.5308
23.9084
23.3169
22.7527
22.2036
21.6832
21.2034
20.7799
20.425
20.1324
19.9002
19.723
19.5817
19.4705
19.3886
19.3317
19.2932
19.2664
19.2576
19.2945
19.3877
19.4518
19.3404
18.8107
17.4475
15.0449
12.0291
9.06115
6.4213
4.23108
2.58035
1.54426
1.17102
1.47248
2.44477
4.03601
6.13518
8.56845
11.1167
13.5467
15.6717
17.3754
18.6252
19.4695
20.0023
20.3417
20.5427
-10.701
-10.7085
-10.7613
-10.837
-10.9604
-11.1579
-11.4323
-11.783
-12.2019
-12.6866
-13.2219
-13.8152
-14.4809
-15.2412
-16.1185
-17.1315
-18.2916
-19.6001
-21.0476
-22.6162
-24.2846
-26.0311
-27.8341
-29.6716
-31.5176
-33.3399
-35.0976
-36.7417
-38.2165
-39.4631
-40.4231
-41.0426
-41.2747
-41.0857
-40.46
-39.3928
-37.8936
-35.9849
-33.7003
-31.0827
-28.1813
-25.0497
-21.7434
-18.3174
-14.8253
-11.318
-7.8437
-4.44783
-1.17226
1.94543
4.87317
7.58569
10.0652
12.3014
14.2905
16.0335
17.5345
18.8005
19.8431
20.6736
21.2988
21.727
21.9655
22.0201
21.896
21.6006
21.1486
20.5634
19.883
19.1613
18.4564
17.7842
17.1346
16.5057
15.9275
15.4641
15.1922
15.1658
15.3679
15.7124
16.0543
16.2412
16.2098
16.0543
15.8523
15.5579
14.9598
13.682
11.4129
8.16554
4.17556
-0.287839
-5.00845
-9.84836
-14.7027
-19.4702
-24.0402
-28.2969
-32.1286
-35.4356
-38.1344
-40.1592
-41.4618
-42.0179
-41.8264
-40.8953
-39.248
-36.9211
-33.9647
-30.4415
-26.4265
-22.0049
-17.2723
-12.3332
-7.30072
-2.29353
2.56825
7.16858
11.4023
15.182
18.4468
21.1718
23.3554
25.0109
26.1722
26.8938
27.2397
27.2779
27.075
26.6931
26.1875
25.6055
24.986
24.359
23.7436
23.1505
22.5855
22.0509
21.5523
21.0946
20.6884
20.3433
20.0585
19.8285
19.6461
19.5025
19.3932
19.315
19.2643
19.2362
19.2269
19.2409
19.2992
19.4065
19.4791
19.3308
18.6229
16.9297
14.2734
11.2535
8.41303
5.89853
3.78757
2.17733
1.15672
0.785925
1.07639
2.03768
3.62003
5.71888
8.16521
10.7444
13.2105
15.3745
17.1114
18.3881
19.2523
19.7957
20.1264
20.2929
-10.1416
-10.1367
-10.1222
-10.1205
-10.1566
-10.2591
-10.4527
-10.7452
-11.1552
-11.7057
-12.4162
-13.301
-14.3649
-15.6031
-17.0031
-18.5461
-20.2103
-21.9737
-23.8181
-25.7302
-27.7007
-29.7212
-31.7804
-33.8606
-35.9345
-37.9642
-39.9016
-41.6905
-43.2698
-44.5775
-45.5542
-46.1465
-46.3106
-46.0174
-45.2551
-44.0205
-42.3291
-40.2098
-37.7033
-34.8595
-31.7342
-28.3864
-24.8748
-21.2558
-17.5826
-13.9044
-10.2679
-6.71756
-3.296
-0.0431068
3.00607
5.82351
8.38999
10.6955
12.7382
14.5229
16.0589
17.3591
18.4402
19.3159
19.9953
20.4884
20.8018
20.9396
20.9041
20.6984
20.3309
19.8191
19.194
18.4994
17.7884
17.1192
16.531
16.0406
15.6648
15.4309
15.3674
15.4867
15.7597
16.1105
16.4101
16.5263
16.4375
16.1659
15.691
14.824
13.2719
10.7861
7.48174
3.61995
-0.57361
-4.962
-9.4734
-14.0578
-18.6495
-23.1585
-27.4775
-31.4939
-35.1008
-38.2033
-40.7207
-42.588
-43.7572
-44.2033
-43.9209
-42.911
-41.1938
-38.804
-35.79
-32.2128
-28.1443
-23.6669
-18.8724
-13.8624
-8.74742
-3.64558
1.32137
6.033
10.3783
14.265
17.6325
20.4524
22.7174
24.4402
25.6595
26.4309
26.8203
26.8968
26.7282
26.3772
25.8993
25.3419
24.7433
24.1331
23.5316
22.9521
22.4022
21.8842
21.4022
20.9631
20.5745
20.2416
19.9633
19.7352
19.5524
19.4086
19.2986
19.2193
19.1686
19.1447
19.1464
19.1766
19.248
19.3569
19.4134
19.188
18.2713
16.2996
13.5011
10.5307
7.79219
5.3595
3.30105
1.72347
0.720389
0.355478
0.639717
1.5915
3.16549
5.2644
7.72565
10.3313
12.8373
15.0392
16.8074
18.1087
18.9909
19.5439
19.869
20.0141
-9.60082
-9.6023
-9.57144
-9.52443
-9.50661
-9.56368
-9.73758
-10.0668
-10.5897
-11.3378
-12.3275
-13.556
-15.0032
-16.6382
-18.4281
-20.3433
-22.3611
-24.4666
-26.651
-28.9094
-31.2362
-33.6218
-36.0485
-38.4885
-40.9034
-43.2442
-45.4532
-47.4672
-49.2202
-50.6472
-51.6859
-52.2806
-52.3871
-51.981
-51.0575
-49.6204
-47.6924
-45.3115
-42.5285
-39.4039
-36.0032
-32.393
-28.6367
-24.7921
-20.9094
-17.0332
-13.2045
-9.46422
-5.855
-2.42007
0.799842
3.7709
6.46975
8.88487
11.0155
12.8696
14.4614
15.8103
16.9376
17.8585
18.5868
19.1351
19.5119
19.7214
19.7649
19.6426
19.3575
18.92
18.3532
17.6959
17.0037
16.3423
15.7817
15.3848
15.1828
15.1789
15.3539
15.6667
16.0605
16.4553
16.7442
16.8225
16.6215
16.0957
15.0388
13.2943
10.6666
7.30132
3.46587
-0.634781
-4.88834
-9.24783
-13.6864
-18.164
-22.6149
-26.9522
-31.078
-34.8929
-38.3022
-41.2201
-43.571
-45.291
-46.3317
-46.6677
-46.2906
-45.1976
-43.4062
-40.9496
-37.8746
-34.2403
-30.1164
-25.5817
-20.7241
-15.6406
-10.4383
-5.23404
-0.151475
4.68347
9.15339
13.1634
16.6508
19.5793
21.9361
23.7377
25.0246
25.8546
26.2954
26.4178
26.2906
25.9772
25.5336
25.007
24.4358
23.8494
23.269
22.7083
22.1759
21.6763
21.2148
20.797
20.4276
20.1095
19.842
19.6213
19.4428
19.3007
19.1904
19.1091
19.0552
19.0279
19.0277
19.0574
19.1223
19.2093
19.2222
18.9059
17.8268
15.6921
12.8317
9.89803
7.21706
4.83492
2.818
1.27154
0.287066
-0.0715929
0.2092
1.15067
2.71317
4.80778
7.2784
9.90731
12.4452
14.6773
16.4704
17.7914
18.6885
19.2507
19.574
19.7089
-9.07254
-9.08956
-9.07205
-9.0477
-9.06391
-9.1775
-9.44385
-9.91472
-10.6329
-11.6228
-12.8852
-14.3996
-16.1324
-18.0475
-20.1139
-22.3106
-24.6261
-27.0551
-29.5953
-32.2415
-34.9832
-37.8008
-40.6644
-43.5334
-46.3571
-49.0754
-51.621
-53.922
-55.9051
-57.4985
-58.6338
-59.2502
-59.3042
-58.7792
-57.6748
-56.0001
-53.7859
-51.0826
-47.956
-44.4827
-40.7445
-36.8214
-32.7861
-28.6987
-24.6044
-20.5365
-16.522
-12.5906
-8.77996
-5.13577
-1.70729
1.46096
4.33669
6.90324
9.15881
11.114
12.7884
14.2069
15.3944
16.3678
17.1469
17.7477
18.1813
18.4543
18.5682
18.5222
18.3156
17.9528
17.4496
16.8381
16.1719
15.5256
14.9834
14.6244
14.5156
14.6614
15.0128
15.488
15.9993
16.4572
16.7554
16.7775
16.4072
15.4562
13.6893
11.0386
7.62511
3.74437
-0.379551
-4.62737
-8.95426
-13.3428
-17.769
-22.1883
-26.5362
-30.7346
-34.6985
-38.3418
-41.5812
-44.3385
-46.5427
-48.1307
-49.0535
-49.2863
-48.8186
-47.6442
-45.7793
-43.256
-40.1202
-36.4303
-32.2538
-27.6663
-22.7509
-17.5991
-12.3133
-7.0085
-1.80988
3.15037
7.75141
11.8958
15.5117
18.5544
21.011
22.8989
24.2607
25.1564
25.6559
25.8315
25.7532
25.485
25.0829
24.5943
24.0574
23.5018
22.949
22.4138
21.9057
21.4308
20.9941
20.5998
20.2514
19.9507
19.6965
19.4856
19.3133
19.1749
19.066
18.9838
18.9259
18.8916
18.881
18.8951
18.933
18.9749
18.9229
18.5171
17.3336
15.1278
12.2604
9.35958
6.71502
4.36823
2.38553
0.867321
-0.100134
-0.45878
-0.17435
0.756119
2.30385
4.38866
6.86061
9.50133
12.057
14.3061
16.1131
17.446
18.3538
18.9246
19.25
19.3836
-8.60023
-8.63853
-8.66765
-8.71303
-8.82456
-9.06285
-9.48685
-10.1479
-11.0811
-12.2979
-13.7859
-15.5172
-17.4592
-19.5844
-21.8755
-24.325
-26.932
-29.6969
-32.6169
-35.6816
-38.8712
-42.1556
-45.4938
-48.8349
-52.1183
-55.2739
-58.2235
-60.8837
-63.1695
-64.9987
-66.295
-66.9896
-67.0349
-66.4163
-65.1255
-63.1752
-60.6089
-57.4947
-53.9204
-49.9872
-45.8022
-41.4693
-37.0808
-32.7073
-28.392
-24.1515
-19.9871
-15.9018
-11.9151
-8.06851
-4.41957
-1.02874
2.0559
4.80742
7.21967
9.305
11.0894
12.5999
13.8611
14.8986
15.736
16.3925
16.8829
17.2162
17.3965
17.4232
17.2941
17.0098
16.5797
16.0294
15.4066
14.785
14.2579
13.9148
13.8284
14.0216
14.4387
14.9801
15.5401
16.0191
16.3012
16.2324
15.603
14.1289
11.6914
8.35049
4.45508
0.278484
-4.02074
-8.38062
-12.7835
-17.2145
-21.6429
-26.0208
-30.2872
-34.3732
-38.2058
-41.7096
-44.8101
-47.4351
-49.5167
-50.9926
-51.8133
-51.9555
-51.4051
-50.1543
-48.2188
-45.6306
-42.436
-38.6933
-34.469
-29.8359
-24.872
-19.6625
-14.3039
-8.90975
-3.60376
1.47579
6.20855
10.4867
14.2297
17.3876
19.946
21.9233
23.364
24.3306
24.8947
25.1304
25.1084
24.8931
24.5403
24.0975
23.6026
23.0853
22.5677
22.0651
21.5879
21.1428
20.7346
20.3671
20.0428
19.7623
19.5244
19.3257
19.1623
19.0297
18.9239
18.8415
18.78
18.7374
18.7122
18.702
18.7008
18.6833
18.5544
18.0666
16.8262
14.6195
11.7939
8.93407
6.31742
3.99823
2.04514
0.552611
-0.398632
-0.754234
-0.470635
0.446798
1.97603
4.04378
6.50527
9.14173
11.6964
13.9443
15.7504
17.085
17.998
18.576
18.9068
19.0462
-8.25483
-8.31251
-8.39273
-8.52286
-8.74918
-9.13053
-9.72275
-10.5701
-11.6966
-13.102
-14.7678
-16.6677
-18.7784
-21.0865
-23.589
-26.2898
-29.1945
-32.3045
-35.6135
-39.105
-42.7521
-46.5183
-50.3574
-54.2131
-58.0171
-61.6886
-65.1341
-68.2525
-70.9409
-73.1006
-74.6413
-75.4799
-75.5555
-74.8653
-73.3804
-71.1245
-68.1548
-64.5567
-60.4394
-55.9303
-51.1672
-46.2882
-41.4197
-36.6602
-32.0655
-27.6413
-23.3551
-19.166
-15.0553
-11.045
-7.19465
-3.58206
-0.277262
2.67714
5.26759
7.50564
9.41927
11.0342
12.383
13.4963
14.401
15.1199
15.671
16.0668
16.314
16.4146
16.3669
16.1698
15.8286
15.3619
14.8095
14.2374
13.7352
13.3974
13.2905
13.4459
13.8151
14.3059
14.8189
15.2502
15.4558
15.2162
14.2463
12.2851
9.29689
5.52927
1.36412
-2.97808
-7.39205
-11.8441
-16.3187
-20.792
-25.2259
-29.5714
-33.7733
-37.7718
-41.5029
-44.8997
-47.8936
-50.4162
-52.4013
-53.7872
-54.525
-54.5916
-53.9685
-52.6481
-50.6464
-47.9962
-44.7451
-40.9523
-36.6849
-32.0131
-27.0109
-21.7574
-16.343
-10.8787
-5.47815
-0.291309
4.56171
8.96376
12.825
16.0916
18.7477
20.8124
22.3324
23.3724
24.0059
24.3079
24.3495
24.1948
23.8997
23.5107
23.0661
22.5953
22.1207
21.6582
21.2186
20.8091
20.4345
20.0981
19.8013
19.5443
19.3256
19.142
18.9899
18.865
18.7634
18.6817
18.6168
18.5655
18.5241
18.4868
18.4424
18.3616
18.155
17.5992
16.3436
14.1936
11.4502
8.64167
6.05036
3.75547
1.82953
0.360954
-0.574283
-0.920665
-0.647102
0.254524
1.76103
3.80342
6.24043
8.8532
11.3841
13.6092
15.397
16.7214
17.6332
18.2166
18.5549
18.705
-8.05337
-8.13229
-8.25445
-8.4559
-8.78209
-9.28741
-10.0215
-11.0202
-12.2978
-13.8476
-15.6507
-17.687
-19.9447
-22.4232
-25.1304
-28.0775
-31.273
-34.7174
-38.4016
-42.3059
-46.402
-50.6531
-55.0129
-59.4216
-63.8021
-68.056
-72.0657
-75.7026
-78.8382
-81.3526
-83.1409
-84.1092
-84.1917
-83.4328
-81.7706
-79.2391
-75.9006
-71.8478
-67.2004
-62.1019
-56.7125
-51.2033
-45.7448
-40.4846
-35.5159
-30.8529
-26.4353
-22.1706
-17.9864
-13.8671
-9.86088
-6.05627
-2.54568
0.609771
3.38522
5.78397
7.83041
9.55782
11.0025
12.1992
13.1784
13.9658
14.5825
15.0441
15.3609
15.538
15.5762
15.4754
15.2388
14.8802
14.4303
13.942
13.4903
13.1591
13.0083
13.0659
13.3035
13.6552
14.0412
14.3514
14.4008
13.9091
12.5675
10.1939
6.83206
2.81473
-1.50049
-5.94509
-10.4472
-14.9788
-19.5152
-24.0225
-28.4587
-32.7777
-36.9304
-40.8644
-44.5227
-47.8437
-50.762
-53.2111
-55.1257
-56.444
-57.1167
-57.1226
-56.4383
-55.0568
-52.995
-50.2869
-46.982
-43.1417
-38.8349
-34.1315
-29.1018
-23.8202
-18.3699
-12.8523
-7.38509
-2.1059
2.84906
7.35584
11.3187
14.68
17.4232
19.5686
21.1649
22.2787
22.9849
23.3587
23.4709
23.3849
23.1556
22.8292
22.4433
22.0274
21.6041
21.1894
20.7946
20.4272
20.0918
19.791
19.5259
19.2961
19.0999
18.9345
18.796
18.6808
18.5849
18.5048
18.4368
18.3769
18.3194
18.2553
18.1693
18.0293
17.7534
17.149
15.9135
13.8639
11.2355
8.49463
5.93403
3.66375
1.76365
0.317594
-0.602802
-0.943299
-0.67971
0.203639
1.68286
3.69078
6.08764
8.65478
11.1368
13.3153
15.066
16.3676
17.2711
17.8572
18.204
18.3673
-7.93999
-8.04078
-8.18928
-8.43724
-8.83291
-9.42654
-10.2613
-11.3658
-12.7485
-14.4004
-16.3053
-18.4505
-20.8336
-23.4633
-26.3546
-29.523
-32.9779
-36.7197
-40.7386
-45.016
-49.5263
-54.2358
-59.0988
-64.0496
-68.995
-73.8109
-78.3466
-82.4396
-85.9374
-88.7118
-90.663
-91.7182
-91.8428
-91.0159
-89.2261
-86.4945
-82.8789
-78.4748
-73.4105
-67.8368
-61.9205
-55.8453
-49.8134
-44.0252
-38.6301
-33.6754
-29.0949
-24.7565
-20.5326
-16.359
-12.2568
-8.31182
-4.6294
-1.29378
1.65187
4.20179
6.37782
8.2162
9.75717
11.039
12.0953
12.9545
13.6397
14.1693
14.5568
14.8105
14.9349
14.9318
14.8052
14.5659
14.2372
13.8582
13.4829
13.1726
12.9755
12.9153
12.99
13.1655
13.3805
13.5121
13.3365
12.5403
10.8361
8.11957
4.51879
0.355847
-4.05534
-8.57793
-13.1532
-17.7491
-22.3314
-26.861
-31.2961
-35.5945
-39.713
-43.6041
-47.2153
-50.4876
-53.3568
-55.7573
-57.6238
-58.8938
-59.5177
-59.4779
-58.7441
-57.3109
-55.1966
-52.4373
-49.0842
-45.2014
-40.8615
-36.136
-31.0936
-25.8013
-20.3337
-14.7835
-9.26771
-3.92388
1.10558
5.69068
9.73093
13.1664
15.9806
18.1955
19.8619
21.048
21.8289
22.2793
22.4687
22.4591
22.304
22.0487
21.7303
21.378
21.0143
20.6556
20.3132
19.9946
19.7044
19.4445
19.2156
19.0172
18.8473
18.7031
18.5811
18.4778
18.3893
18.312
18.2419
18.1741
18.1013
18.0126
17.8896
17.699
17.3676
16.7347
15.546
13.6275
11.145
8.49698
5.98151
3.74051
1.86633
0.441605
-0.465501
-0.80301
-0.550065
0.3121
1.75872
3.72178
6.06093
8.55852
10.9651
13.0726
14.7674
16.0336
16.9216
17.507
17.8617
18.0393
-7.84903
-7.92093
-8.0777
-8.35403
-8.79285
-9.44054
-10.3356
-11.5022
-12.9468
-14.6612
-16.633
-18.8552
-21.3321
-24.078
-27.1123
-30.4527
-34.1097
-38.0844
-42.3684
-46.9462
-51.7958
-56.8862
-62.1698
-67.5711
-72.9767
-78.2332
-83.1577
-87.5613
-91.2798
-94.1949
-96.2304
-97.3337
-97.4814
-96.6451
-94.791
-91.9368
-88.1403
-83.5041
-78.1682
-72.2927
-66.0443
-59.6008
-53.1677
-46.9736
-41.2166
-35.993
-31.252
-26.8515
-22.6172
-18.4323
-14.2814
-10.2404
-6.42583
-2.94406
0.143109
2.82124
5.11019
7.04774
8.67699
10.039
11.1698
12.0996
12.8531
13.4505
13.9072
14.2347
14.4402
14.5281
14.5032
14.3746
14.1602
13.8878
13.5939
13.318
13.0935
12.9418
12.8776
12.8911
12.9286
12.8515
12.4122
11.2965
9.2592
6.26338
2.48357
-1.77596
-6.2586
-10.8431
-15.4744
-20.1157
-24.7283
-29.2712
-33.7044
-37.9896
-42.0873
-45.9534
-49.5373
-52.7822
-55.6221
-57.9922
-59.8269
-61.0634
-61.6513
-61.5787
-60.8067
-59.3333
-57.1779
-54.3785
-50.9896
-47.0793
-42.7209
-37.9856
-32.9417
-27.6515
-22.1833
-16.6236
-11.0861
-5.70867
-0.637522
3.99321
8.08038
11.5636
14.4278
16.6975
18.4255
19.6806
20.5375
21.0687
21.3414
21.4154
21.3425
21.1667
20.9241
20.644
20.3485
20.054
19.7719
19.5095
19.2708
19.0575
18.87
18.7074
18.5678
18.4484
18.3459
18.257
18.1781
18.1053
18.0344
17.9599
17.8739
17.7638
17.6099
17.379
17.0071
16.3636
15.2401
13.4742
11.1669
8.64359
6.19635
3.9954
2.15012
0.746462
-0.148861
-0.485867
-0.245444
0.591794
1.99894
3.90457
6.16616
8.56859
10.8727
12.8858
14.5071
15.7264
16.5919
17.1728
17.5341
17.7252
-7.64829
-7.69372
-7.84525
-8.13257
-8.58994
-9.2596
-10.1769
-11.3643
-12.829
-14.5653
-16.5642
-18.8228
-21.3486
-24.1587
-27.2747
-30.7157
-34.4936
-38.6108
-43.0607
-47.8299
-52.8981
-58.2347
-63.7879
-69.4722
-75.158
-80.6709
-85.808
-90.3668
-94.1802
-97.138
-99.183
-100.287
-100.447
-99.6333
-97.7865
-94.9157
-91.0853
-86.3938
-80.9743
-74.9957
-68.6313
-62.0525
-55.4509
-49.0559
-43.0947
-37.7042
-32.8697
-28.4407
-24.213
-20.0319
-15.8557
-11.7534
-7.85183
-4.27091
-1.08432
1.68721
4.06178
6.07795
7.78041
9.21188
10.4096
11.4049
12.2231
12.8853
13.4081
13.8045
14.0838
14.2522
14.3148
14.2788
14.1573
13.9702
13.743
13.503
13.275
13.0778
12.9283
12.8228
12.703
12.416
11.7083
10.2888
7.96086
4.73601
0.814019
-3.52626
-8.06881
-12.7056
-17.3816
-22.0556
-26.6872
-31.2367
-35.6673
-39.9437
-44.0291
-47.8805
-51.4469
-54.678
-57.4996
-59.8502
-61.6633
-62.8758
-63.4367
-63.344
-62.5499
-61.0547
-58.8778
-56.0579
-52.6507
-48.726
-44.3598
-39.6277
-34.5973
-29.3272
-23.8796
-18.3356
-12.8064
-7.43004
-2.35472
2.28376
6.38223
9.88228
12.7722
15.0795
16.859
18.1792
19.1123
19.7278
20.0894
20.2537
20.2702
20.1815
20.0229
19.8232
19.6043
19.3825
19.1687
18.9702
18.79
18.6295
18.4889
18.3671
18.2621
18.1712
18.0915
18.0199
17.9528
17.8866
17.8169
17.7379
17.6412
17.5138
17.3357
17.0751
16.6769
16.0374
14.9907
13.3901
11.2824
8.91852
6.57032
4.42789
2.61955
1.23908
0.354864
0.0160808
0.241101
1.04805
2.40626
4.23871
6.40019
8.6809
10.8568
12.7544
14.2871
15.4498
16.2867
16.8593
17.2249
17.4279
-7.27507
-7.32649
-7.47616
-7.75859
-8.21107
-8.87261
-9.77633
-10.9446
-12.3867
-14.1007
-16.0811
-18.327
-20.8471
-23.6591
-26.785
-30.245
-34.0523
-38.2106
-42.7146
-47.551
-52.6994
-58.1272
-63.7801
-69.5685
-75.3577
-80.9681
-86.1921
-90.8244
-94.6957
-97.6958
-99.7751
-100.919
-101.118
-100.326
-98.5037
-95.6685
-91.8692
-87.2027
-81.8104
-75.8649
-69.5422
-63.006
-56.4325
-50.0421
-44.0724
-38.6827
-33.8703
-29.4776
-25.2844
-21.1214
-16.9398
-12.8105
-8.86764
-5.23851
-2.00139
0.821185
3.24721
5.31561
7.07145
8.5576
9.81137
10.8639
11.7408
12.4628
13.047
13.507
13.853
14.0922
14.2297
14.2705
14.2232
14.1021
13.9267
13.72
13.5055
13.2993
13.113
12.9329
12.6861
12.2095
11.2564
9.56936
6.99876
3.59082
-0.445655
-4.85498
-9.44903
-14.1286
-18.8385
-23.5361
-28.1812
-32.7361
-37.1666
-41.4401
-45.5209
-49.3669
-52.9272
-56.1452
-58.9561
-61.2945
-63.0944
-64.2949
-64.8524
-64.7355
-63.9238
-62.4169
-60.2321
-57.4076
-53.9996
-50.0792
-45.7258
-41.0173
-36.0207
-30.7922
-25.3891
-19.889
-14.4016
-9.06504
-4.02753
0.576343
4.64661
8.12973
11.0191
13.3462
15.1666
16.5473
17.5565
18.259
18.7137
18.9738
19.0861
19.0917
19.0249
18.9138
18.78
18.6393
18.5024
18.3755
18.261
18.1601
18.0725
17.9968
17.931
17.8728
17.8194
17.768
17.7154
17.6583
17.5922
17.5114
17.4073
17.2672
17.0716
16.7912
16.3793
15.755
14.7904
13.359
11.4668
9.29499
7.08173
5.02444
3.26801
1.91727
1.04558
0.703357
0.909011
1.67786
2.97399
4.71373
6.75029
8.88318
10.908
12.6731
14.1061
15.2048
16.0081
16.5688
16.9362
17.1487
-6.82316
-6.84633
-6.98049
-7.25071
-7.68176
-8.30781
-9.16118
-10.2653
-11.6329
-13.2676
-15.1686
-17.3374
-19.7824
-22.5199
-25.5706
-28.9542
-32.6844
-36.7655
-41.1923
-45.9503
-51.0166
-56.3558
-61.9124
-67.5993
-73.2884
-78.8108
-83.9701
-88.5688
-92.4382
-95.4609
-97.578
-98.7726
-99.035
-98.3068
-96.5645
-93.8348
-90.1694
-85.6649
-80.4625
-74.7313
-68.6399
-62.3428
-56.0065
-49.8438
-44.0861
-38.8841
-34.2239
-29.9394
-25.8114
-21.6805
-17.5124
-13.3904
-9.45456
-5.83213
-2.59787
0.229075
2.66849
4.75942
6.5459
8.06944
9.36603
10.4657
11.3933
12.1689
12.8091
13.3274
13.7342
14.037
14.2406
14.3485
14.3657
14.3019
14.1733
14.002
13.8121
13.6191
13.4263
13.2036
12.86
12.2249
11.0654
9.15872
6.39568
2.84672
-1.27926
-5.74614
-10.384
-15.0983
-19.8334
-24.5463
-29.198
-33.7535
-38.1811
-42.4498
-46.525
-50.3647
-53.9183
-57.1282
-59.9306
-62.2595
-64.0496
-65.2406
-65.7873
-65.6673
-64.853
-63.3497
-61.1747
-58.3658
-54.9795
-51.0881
-46.7728
-42.113
-37.1752
-32.0131
-26.6814
-21.2566
-15.8482
-10.5941
-5.64058
-1.11749
2.88211
6.31264
9.17447
11.5029
13.3536
14.7896
15.8735
16.664
17.2146
17.5746
17.7881
17.8944
17.9269
17.9128
17.873
17.8225
17.7715
17.7246
17.6838
17.6497
17.6214
17.5975
17.5759
17.5545
17.5311
17.5032
17.4682
17.4229
17.3632
17.2835
17.1757
17.0277
16.8213
16.5301
16.115
15.5139
14.6313
13.3638
11.6928
9.73823
7.69603
5.7565
4.0744
2.76578
1.91154
1.56546
1.74679
2.46683
3.68383
5.3081
7.19438
9.15617
11.0123
12.6334
13.9598
14.9901
15.7564
16.3023
16.6686
16.8882
-6.39343
-6.3631
-6.45478
-6.6968
-7.0878
-7.64937
-8.41146
-9.39901
-10.6302
-12.1164
-13.864
-15.8787
-18.169
-20.7489
-23.6356
-26.846
-30.3922
-34.2778
-38.4964
-43.0314
-47.8564
-52.9328
-58.2052
-63.5933
-68.9848
-74.234
-79.1706
-83.6186
-87.4183
-90.4451
-92.6185
-93.8917
-94.2278
-93.5813
-91.966
-89.4223
-86.0045
-81.8072
-76.9654
-71.6348
-65.9662
-60.1018
-54.2061
-48.489
-43.1602
-38.3304
-33.9475
-29.8336
-25.7896
-21.6952
-17.5546
-13.4747
-9.5988
-6.04392
-2.87165
-0.0917732
2.3193
4.40023
6.19257
7.73469
9.05976
10.1956
11.1653
11.9879
12.6791
13.2517
13.7157
14.0786
14.3448
14.5164
14.596
14.5899
14.5118
14.3833
14.2284
14.0618
13.8776
13.6298
13.2117
12.449
11.1244
9.04679
6.13913
2.48721
-1.70459
-6.21617
-10.8888
-15.6294
-20.3812
-25.1012
-29.7523
-34.302
-38.7207
-42.9787
-47.042
-50.8692
-54.4098
-57.6062
-60.3954
-62.7123
-64.493
-65.678
-66.2226
-66.1032
-65.2974
-63.812
-61.6644
-58.8926
-55.5531
-51.7185
-47.4711
-42.8902
-38.041
-32.9749
-27.7459
-22.4318
-17.1438
-12.0194
-7.20039
-2.80856
1.07408
4.41333
7.21833
9.52817
11.3968
12.8815
14.0374
14.9157
15.5644
16.0285
16.3495
16.5649
16.7065
16.8003
16.8659
16.9175
16.9638
17.0076
17.0504
17.092
17.1309
17.1656
17.1941
17.2147
17.2256
17.2251
17.2109
17.1804
17.1302
17.055
16.9475
16.7963
16.5854
16.2913
15.8818
15.3098
14.5061
13.3914
11.9361
10.2129
8.37239
6.58507
5.00561
3.75768
2.93002
2.58137
2.7324
3.39005
4.50757
5.99216
7.70469
9.47713
11.1534
12.6251
13.8424
14.8027
15.5302
16.0588
16.4218
16.6463
-6.12136
-6.06134
-6.08829
-6.26489
-6.5869
-7.05143
-7.67722
-8.4911
-9.5196
-10.7854
-12.3056
-14.0928
-16.1576
-18.5114
-21.1667
-24.1351
-27.4246
-31.0359
-34.9605
-39.1793
-43.6624
-48.3684
-53.2422
-58.2098
-63.175
-68.0166
-72.5935
-76.7551
-80.3567
-83.2726
-85.4077
-86.6953
-87.1
-86.5941
-85.1979
-82.9484
-79.9026
-76.1527
-71.8219
-67.0438
-61.9474
-56.6673
-51.3731
-46.2676
-41.518
-37.1682
-33.1174
-29.1867