/*--------------------------------*- C++ -*----------------------------------*\
  =========                 |
  \\      /  F ield         | OpenFOAM: The Open Source CFD Toolbox
   \\    /   O peration     | Website:  https://openfoam.org
    \\  /    A nd           | Version:  9
     \\/     M anipulation  |
\*---------------------------------------------------------------------------*/
FoamFile
{
    format      ascii;
    class       surfaceScalarField;
    location    "0.02";
    object      phi;
}
// * * * * * * * * * * * * * * * * * * * * * * * * * * * * * * * * * * * * * //

dimensions      [0 3 -1 0 0 0 0];

internalField   nonuniform List<scalar> 
24170
(
3.07104e-06
1.17363e-07
2.93034e-06
1.40707e-07
2.79995e-06
1.30383e-07
2.67894e-06
1.21009e-07
2.56536e-06
1.13582e-07
2.46066e-06
1.04698e-07
2.36506e-06
9.56074e-08
2.27761e-06
8.74461e-08
2.19703e-06
8.05775e-08
2.12188e-06
7.51511e-08
2.05056e-06
7.13214e-08
1.98129e-06
6.9274e-08
1.91204e-06
6.92419e-08
1.84047e-06
7.15775e-08
1.76364e-06
7.68242e-08
1.6777e-06
8.59442e-08
1.57692e-06
1.00783e-07
1.24462e-07
1.45245e-06
3.48014e-06
5.44741e-08
3.51351e-06
1.0733e-07
3.53238e-06
1.11517e-07
3.53718e-06
1.16215e-07
3.53065e-06
1.2011e-07
3.51527e-06
1.2007e-07
3.49301e-06
1.17876e-07
3.46528e-06
1.15177e-07
3.43315e-06
1.12706e-07
3.39735e-06
1.10943e-07
3.35829e-06
1.10381e-07
3.31602e-06
1.11545e-07
3.27024e-06
1.15025e-07
3.22023e-06
1.21587e-07
3.16477e-06
1.32283e-07
3.10183e-06
1.48892e-07
3.02867e-06
1.73938e-07
2.13703e-07
2.93943e-06
3.67513e-06
4.18585e-08
3.69084e-06
9.16238e-08
3.70474e-06
9.76162e-08
3.71785e-06
1.03105e-07
3.72905e-06
1.08908e-07
3.73738e-06
1.11737e-07
3.74264e-06
1.12625e-07
3.74479e-06
1.13025e-07
3.74384e-06
1.13649e-07
3.73983e-06
1.14954e-07
3.73277e-06
1.17441e-07
3.72264e-06
1.2168e-07
3.70933e-06
1.28336e-07
3.69265e-06
1.38265e-07
3.6723e-06
1.52631e-07
3.64802e-06
1.73174e-07
3.61976e-06
2.02194e-07
2.42279e-07
3.59119e-06
3.93124e-06
3.60026e-08
3.94122e-06
8.16444e-08
3.94682e-06
9.20185e-08
3.95174e-06
9.81823e-08
3.95611e-06
1.04539e-07
3.95933e-06
1.08521e-07
3.96131e-06
1.10647e-07
3.96201e-06
1.12325e-07
3.9613e-06
1.14355e-07
3.95905e-06
1.17201e-07
3.95516e-06
1.21337e-07
3.94952e-06
1.2732e-07
3.94205e-06
1.358e-07
3.93273e-06
1.47584e-07
3.92166e-06
1.63709e-07
3.90926e-06
1.85567e-07
3.89692e-06
2.14533e-07
2.52254e-07
3.88695e-06
4.21209e-06
3.10367e-08
4.22028e-06
7.3455e-08
4.22421e-06
8.80917e-08
4.2268e-06
9.55892e-08
4.2287e-06
1.02641e-07
4.22945e-06
1.07775e-07
4.22895e-06
1.11139e-07
4.22724e-06
1.1404e-07
4.22423e-06
1.17361e-07
4.21984e-06
1.21594e-07
4.21398e-06
1.27202e-07
4.20657e-06
1.34724e-07
4.1976e-06
1.44775e-07
4.1871e-06
1.58082e-07
4.17532e-06
1.75487e-07
4.16289e-06
1.98001e-07
4.15111e-06
2.26307e-07
2.61406e-07
4.14196e-06
4.5132e-06
2.69224e-08
4.52008e-06
6.65799e-08
4.52396e-06
8.421e-08
4.52625e-06
9.33009e-08
4.52768e-06
1.01207e-07
4.5279e-06
1.07551e-07
4.52677e-06
1.12276e-07
4.5243e-06
1.16511e-07
4.52047e-06
1.21182e-07
4.51525e-06
1.26818e-07
4.50857e-06
1.33878e-07
4.50042e-06
1.42875e-07
4.49082e-06
1.54376e-07
4.4799e-06
1.69005e-07
4.46798e-06
1.8741e-07
4.45572e-06
2.10257e-07
4.44423e-06
2.37793e-07
2.70317e-07
4.43532e-06
4.83596e-06
2.36829e-08
4.84183e-06
6.07132e-08
4.84577e-06
8.02625e-08
4.84803e-06
9.10451e-08
4.84931e-06
9.99253e-08
4.84942e-06
1.07444e-07
4.84816e-06
1.13531e-07
4.84555e-06
1.19124e-07
4.84159e-06
1.25142e-07
4.83626e-06
1.32149e-07
4.82955e-06
1.40591e-07
4.82148e-06
1.50944e-07
4.81215e-06
1.63705e-07
4.80177e-06
1.7938e-07
4.79076e-06
1.98428e-07
4.77979e-06
2.21225e-07
4.76986e-06
2.47725e-07
2.77838e-07
4.76234e-06
5.18212e-06
2.11466e-08
5.18713e-06
5.56983e-08
5.19096e-06
7.64304e-08
5.19317e-06
8.88404e-08
5.19435e-06
9.87468e-08
5.19443e-06
1.07359e-07
5.19322e-06
1.14744e-07
5.19068e-06
1.21663e-07
5.18684e-06
1.28986e-07
5.1817e-06
1.37289e-07
5.17528e-06
1.47003e-07
5.16768e-06
1.58547e-07
5.15905e-06
1.72338e-07
5.14967e-06
1.88756e-07
5.14001e-06
2.08089e-07
5.13075e-06
2.30484e-07
5.12276e-06
2.55712e-07
2.83504e-07
5.1171e-06
5.55334e-06
1.91444e-08
5.55758e-06
5.14529e-08
5.56118e-06
7.28363e-08
5.56334e-06
8.66757e-08
5.56448e-06
9.76136e-08
5.56459e-06
1.07245e-07
5.56349e-06
1.1584e-07
5.56113e-06
1.24023e-07
5.55754e-06
1.32576e-07
5.55277e-06
1.42068e-07
5.54687e-06
1.52904e-07
5.53997e-06
1.65441e-07
5.5323e-06
1.80007e-07
5.5242e-06
1.96862e-07
5.51614e-06
2.16148e-07
5.50878e-06
2.37847e-07
5.50287e-06
2.61619e-07
2.87133e-07
5.49924e-06
5.95137e-06
1.75522e-08
5.95494e-06
4.78853e-08
5.95825e-06
6.95234e-08
5.96039e-06
8.45306e-08
5.96154e-06
9.64657e-08
5.96174e-06
1.07051e-07
5.96083e-06
1.1675e-07
5.95875e-06
1.26097e-07
5.95555e-06
1.35774e-07
5.95131e-06
1.46315e-07
5.94612e-06
1.58093e-07
5.94016e-06
1.71401e-07
5.93369e-06
1.86476e-07
5.92708e-06
2.03472e-07
5.92082e-06
2.22412e-07
5.91549e-06
2.43168e-07
5.91177e-06
2.65345e-07
2.88608e-07
5.91029e-06
6.37809e-06
1.62751e-08
6.38109e-06
4.48865e-08
6.38412e-06
6.6489e-08
6.38627e-06
8.23864e-08
6.38749e-06
9.5238e-08
6.38785e-06
1.06698e-07
6.38722e-06
1.17377e-07
6.38556e-06
1.27758e-07
6.38291e-06
1.38419e-07
6.37938e-06
1.49844e-07
6.37512e-06
1.62362e-07
6.37031e-06
1.76202e-07
6.36527e-06
1.91519e-07
6.36037e-06
2.08376e-07
6.35607e-06
2.26707e-07
6.35292e-06
2.46317e-07
6.35148e-06
2.66793e-07
2.87833e-07
6.35225e-06
5.74174e-06
1.53736e-08
5.74391e-06
4.27083e-08
5.74629e-06
6.41157e-08
5.74812e-06
8.05509e-08
5.74928e-06
9.40777e-08
5.74978e-06
1.06201e-07
5.74956e-06
1.17597e-07
5.74859e-06
1.28728e-07
5.74692e-06
1.40093e-07
5.74464e-06
1.52119e-07
5.74191e-06
1.65093e-07
5.73892e-06
1.79194e-07
5.73592e-06
1.94515e-07
5.73324e-06
2.11054e-07
5.73126e-06
2.28695e-07
5.73037e-06
2.47209e-07
5.73097e-06
2.66191e-07
2.85381e-07
5.73342e-06
6.99904e-06
1.44905e-08
7.00123e-06
4.05176e-08
7.00377e-06
6.15728e-08
7.00592e-06
7.83994e-08
7.00745e-06
9.25468e-08
7.00834e-06
1.05313e-07
7.00855e-06
1.17391e-07
7.00805e-06
1.29223e-07
7.00692e-06
1.41227e-07
7.00528e-06
1.53759e-07
7.00332e-06
1.67055e-07
7.00127e-06
1.81238e-07
6.99945e-06
1.96341e-07
6.99819e-06
2.1231e-07
6.9979e-06
2.28988e-07
6.99898e-06
2.46132e-07
7.00181e-06
2.63361e-07
2.80464e-07
7.00672e-06
8.53172e-06
1.36209e-08
8.53394e-06
3.8297e-08
8.5367e-06
5.88091e-08
8.53929e-06
7.58067e-08
8.54141e-06
9.04323e-08
8.54298e-06
1.03743e-07
8.54398e-06
1.16394e-07
8.5444e-06
1.28794e-07
8.54435e-06
1.41284e-07
8.54397e-06
1.54139e-07
8.54349e-06
1.67534e-07
8.54319e-06
1.81538e-07
8.5434e-06
1.96132e-07
8.54449e-06
2.1122e-07
8.54685e-06
2.26624e-07
8.55088e-06
2.42106e-07
8.55691e-06
2.57326e-07
2.72132e-07
8.56524e-06
1.04001e-05
1.27355e-08
1.04024e-05
3.59524e-08
1.04056e-05
5.56724e-08
1.04089e-05
7.2531e-08
1.04119e-05
8.73746e-08
1.04146e-05
1.01017e-07
1.0417e-05
1.14021e-07
1.04191e-05
1.26747e-07
1.04209e-05
1.39457e-07
1.04227e-05
1.52346e-07
1.04247e-05
1.65521e-07
1.04272e-05
1.79003e-07
1.04306e-05
1.92733e-07
1.04353e-05
2.06591e-07
1.04415e-05
2.20398e-07
1.04497e-05
2.33939e-07
1.04601e-05
2.46926e-07
2.59275e-07
1.04729e-05
1.26778e-05
1.1761e-08
1.26804e-05
3.32682e-08
1.26843e-05
5.18401e-08
1.26887e-05
6.81316e-08
1.26933e-05
8.27845e-08
1.26979e-05
9.63914e-08
1.27025e-05
1.09391e-07
1.27072e-05
1.22067e-07
1.27121e-05
1.34606e-07
1.27173e-05
1.47126e-07
1.27231e-05
1.59674e-07
1.27299e-05
1.72227e-07
1.27379e-05
1.84706e-07
1.27475e-05
1.96983e-07
1.2759e-05
2.08895e-07
1.27727e-05
2.20268e-07
1.27888e-05
2.30872e-07
2.40685e-07
1.28074e-05
1.54544e-05
1.05615e-08
1.54578e-05
2.98535e-08
1.54629e-05
4.6728e-08
1.54692e-05
6.18553e-08
1.54762e-05
7.57316e-08
1.54839e-05
8.87584e-08
1.5492e-05
1.01232e-07
1.55008e-05
1.13344e-07
1.55102e-05
1.25205e-07
1.55204e-05
1.36865e-07
1.55318e-05
1.4832e-07
1.55445e-05
1.59521e-07
1.55588e-05
1.70378e-07
1.5575e-05
1.80776e-07
1.55933e-05
1.90582e-07
1.56139e-05
1.99665e-07
1.56369e-05
2.07861e-07
2.15195e-07
1.56624e-05
1.88393e-05
8.90406e-09
1.88441e-05
2.50681e-08
1.88514e-05
3.93839e-08
1.88608e-05
5.25118e-08
1.88717e-05
6.48239e-08
1.88839e-05
7.65463e-08
1.88973e-05
8.78243e-08
1.89119e-05
9.87458e-08
1.89277e-05
1.09348e-07
1.8945e-05
1.19625e-07
1.89638e-05
1.29534e-07
1.89843e-05
1.39008e-07
1.90067e-05
1.47964e-07
1.90312e-05
1.56306e-07
1.90578e-05
1.63938e-07
1.90867e-05
1.70774e-07
1.91179e-05
1.76708e-07
1.81796e-07
1.91513e-05
2.29659e-05
6.35218e-09
2.29731e-05
1.78538e-08
2.29842e-05
2.82837e-08
2.29984e-05
3.82772e-08
2.30152e-05
4.8048e-08
2.30342e-05
5.7608e-08
2.3055e-05
6.69335e-08
2.30778e-05
7.60075e-08
2.31023e-05
8.47976e-08
2.31287e-05
9.3244e-08
2.3157e-05
1.01272e-07
2.31872e-05
1.08804e-07
2.32194e-05
1.15764e-07
2.32536e-05
1.22082e-07
2.32898e-05
1.27692e-07
2.33281e-05
1.32546e-07
2.33682e-05
1.36584e-07
1.39869e-07
2.34101e-05
1.68131e-05
4.00064e-09
1.68196e-05
1.13248e-08
1.68295e-05
1.83591e-08
1.68421e-05
2.57138e-08
1.68567e-05
3.34016e-08
1.68731e-05
4.12033e-08
1.68911e-05
4.89619e-08
1.69105e-05
5.66046e-08
1.69312e-05
6.40585e-08
1.69533e-05
7.12267e-08
1.69765e-05
7.8012e-08
1.7001e-05
8.43311e-08
1.70266e-05
9.01121e-08
1.70534e-05
9.52934e-08
1.70813e-05
9.98248e-08
1.71102e-05
1.03675e-07
1.71399e-05
1.06812e-07
1.09295e-07
1.71705e-05
1.4637e-05
1.55068e-09
1.46438e-05
4.53057e-09
1.4654e-05
8.2156e-09
1.46665e-05
1.31464e-08
1.46809e-05
1.89903e-08
1.46969e-05
2.52363e-08
1.47142e-05
3.16297e-08
1.47328e-05
3.80663e-08
1.47524e-05
4.44268e-08
1.47731e-05
5.05733e-08
1.47947e-05
5.63922e-08
1.48172e-05
6.18033e-08
1.48406e-05
6.67394e-08
1.48647e-05
7.11421e-08
1.48896e-05
7.49677e-08
1.49151e-05
7.81916e-08
1.49411e-05
8.07885e-08
8.2805e-08
1.49676e-05
1.27427e-05
-1.03112e-09
1.27498e-05
-2.59321e-09
1.27601e-05
-2.08592e-09
1.27724e-05
8.38505e-10
1.27863e-05
5.16956e-09
1.28014e-05
1.00678e-08
1.28178e-05
1.53037e-08
1.2835e-05
2.07785e-08
1.28532e-05
2.6299e-08
1.28721e-05
3.16751e-08
1.28917e-05
3.67859e-08
1.29119e-05
4.15491e-08
1.29328e-05
4.58939e-08
1.29542e-05
4.97706e-08
1.2976e-05
5.31438e-08
1.29982e-05
5.59963e-08
1.30206e-05
5.83215e-08
6.01729e-08
1.30433e-05
1.10937e-05
-3.80045e-09
1.11013e-05
-1.01593e-08
1.11117e-05
-1.25537e-08
1.11236e-05
-1.10398e-08
1.11366e-05
-7.82127e-09
1.11507e-05
-4.04825e-09
1.11658e-05
2.24262e-10
1.11816e-05
4.92557e-09
1.11982e-05
9.77267e-09
1.12153e-05
1.45218e-08
1.1233e-05
1.91093e-08
1.12511e-05
2.3434e-08
1.12696e-05
2.73803e-08
1.12885e-05
3.09138e-08
1.13076e-05
3.40017e-08
1.1327e-05
3.66306e-08
1.13465e-05
3.87933e-08
4.05049e-08
1.13662e-05
9.65831e-06
-6.89673e-09
9.66641e-06
-1.8254e-08
9.67691e-06
-2.30586e-08
9.68828e-06
-2.24108e-08
9.70049e-06
-2.00248e-08
9.71353e-06
-1.70896e-08
9.72721e-06
-1.34634e-08
9.74143e-06
-9.28747e-09
9.75613e-06
-4.92895e-09
9.77137e-06
-7.18992e-10
9.78704e-06
3.43859e-09
9.80303e-06
7.44671e-09
9.81931e-06
1.10944e-08
9.83581e-06
1.44203e-08
9.8525e-06
1.73074e-08
9.86934e-06
1.97955e-08
9.88621e-06
2.19237e-08
2.37279e-08
9.90298e-06
8.40902e-06
-1.05625e-08
8.41799e-06
-2.7227e-08
8.428e-06
-3.30673e-08
8.43848e-06
-3.28912e-08
8.44993e-06
-3.14747e-08
8.46214e-06
-2.92956e-08
8.47475e-06
-2.60729e-08
8.48767e-06
-2.22094e-08
8.50093e-06
-1.81907e-08
8.51445e-06
-1.42396e-08
8.52825e-06
-1.03618e-08
8.54235e-06
-6.64921e-09
8.55665e-06
-3.21e-09
8.57102e-06
5.27511e-11
8.58553e-06
2.79916e-09
8.60014e-06
5.18111e-09
8.61479e-06
7.27469e-09
9.0089e-09
8.62951e-06
7.32132e-06
-1.45999e-08
7.33227e-06
-3.81735e-08
7.34158e-06
-4.23793e-08
7.35063e-06
-4.19387e-08
7.36076e-06
-4.16099e-08
7.37166e-06
-4.01955e-08
7.38297e-06
-3.73793e-08
7.39463e-06
-3.38726e-08
7.40663e-06
-3.0189e-08
7.41888e-06
-2.6492e-08
7.43136e-06
-2.28393e-08
7.44402e-06
-1.93137e-08
7.45681e-06
-1.59936e-08
7.46977e-06
-1.29094e-08
7.48276e-06
-1.01858e-08
7.49571e-06
-7.77676e-09
7.50863e-06
-5.64458e-09
-3.72624e-09
7.52137e-06
6.37322e-06
-1.77493e-08
6.38647e-06
-5.14299e-08
6.39672e-06
-5.26255e-08
6.40619e-06
-5.14082e-08
6.41647e-06
-5.1894e-08
6.42711e-06
-5.08335e-08
6.43796e-06
-4.82248e-08
6.44912e-06
-4.50357e-08
6.46059e-06
-4.16636e-08
6.47229e-06
-3.81874e-08
6.48413e-06
-3.46812e-08
6.49606e-06
-3.12435e-08
6.50802e-06
-2.7958e-08
6.52e-06
-2.48836e-08
6.5319e-06
-2.20849e-08
6.5437e-06
-1.95798e-08
6.55542e-06
-1.73669e-08
-1.544e-08
6.56714e-06
5.55078e-06
-2.30604e-08
5.56476e-06
-6.54107e-08
5.57928e-06
-6.7153e-08
5.59442e-06
-6.654e-08
5.61017e-06
-6.76499e-08
5.62549e-06
-6.6152e-08
5.64005e-06
-6.27868e-08
5.65391e-06
-5.889e-08
5.66709e-06
-5.48451e-08
5.67961e-06
-5.07099e-08
5.6915e-06
-4.6575e-08
5.70281e-06
-4.25502e-08
5.71357e-06
-3.87205e-08
5.72384e-06
-3.51462e-08
5.73363e-06
-3.18745e-08
5.74301e-06
-2.89639e-08
5.75205e-06
-2.64058e-08
-2.43419e-08
5.76095e-06
4.87966e-06
-7.51128e-08
4.91217e-06
-9.79196e-08
4.93869e-06
-9.36702e-08
4.95826e-06
-8.61126e-08
4.97191e-06
-8.13028e-08
4.9808e-06
-7.50381e-08
4.98585e-06
-6.78364e-08
4.98783e-06
-6.08686e-08
4.98741e-06
-5.44338e-08
4.98521e-06
-4.85089e-08
4.98172e-06
-4.30831e-08
4.97734e-06
-3.81648e-08
4.97237e-06
-3.37511e-08
4.96705e-06
-2.98298e-08
4.96156e-06
-2.63872e-08
4.95605e-06
-2.3447e-08
4.95066e-06
-2.10178e-08
-1.9565e-08
4.94588e-06
4.12756e-06
4.02964e-06
3.93597e-06
3.84986e-06
3.76856e-06
3.69352e-06
3.62568e-06
3.56482e-06
3.51038e-06
3.46187e-06
3.41879e-06
3.38062e-06
3.34687e-06
3.31704e-06
3.29066e-06
3.26721e-06
3.24619e-06
3.22663e-06
-1.24916e-07
1.24916e-07
1.79193e-07
-3.04109e-07
7.87538e-07
-6.08345e-07
1.50309e-06
-7.15554e-07
2.209e-06
-7.05912e-07
2.85502e-06
-6.46018e-07
3.42153e-06
-5.66506e-07
3.89974e-06
-4.78214e-07
4.28423e-06
-3.84491e-07
4.57016e-06
-2.85926e-07
4.75199e-06
-1.81831e-07
4.82351e-06
-7.15244e-08
4.77746e-06
4.60581e-08
4.60292e-06
1.74534e-07
4.30721e-06
2.95711e-07
3.90263e-06
4.04586e-07
3.40786e-06
4.94764e-07
2.84868e-06
5.59179e-07
2.2589e-06
5.8978e-07
1.6799e-06
5.78997e-07
1.15697e-06
5.22938e-07
7.3408e-07
4.22887e-07
4.45697e-07
2.88383e-07
3.12246e-07
1.33451e-07
3.32821e-07
-2.05752e-08
4.94415e-07
-1.61594e-07
7.56191e-07
-2.61776e-07
1.05558e-06
-2.99384e-07
1.2946e-06
-2.39023e-07
1.38306e-06
-8.84661e-08
1.32244e-06
6.06239e-08
1.08776e-06
2.34677e-07
6.35092e-07
4.52671e-07
-4.5299e-08
6.80391e-07
-9.04989e-07
8.5969e-07
-1.88154e-06
9.76548e-07
-2.91846e-06
1.03692e-06
-3.9656e-06
1.04714e-06
-4.98145e-06
1.01586e-06
-5.93408e-06
9.52629e-07
-6.80107e-06
8.66986e-07
-7.56852e-06
7.67449e-07
-8.2295e-06
6.60981e-07
-8.78241e-06
5.52912e-07
-9.22947e-06
4.47062e-07
-9.57545e-06
3.45981e-07
-9.82677e-06
2.51316e-07
-9.99102e-06
1.64251e-07
-1.00769e-05
8.59236e-08
-1.00938e-05
1.68259e-08
-1.00591e-05
-3.46515e-08
-9.98337e-06
-7.57425e-08
-9.87458e-06
-1.08793e-07
-9.73882e-06
-1.3576e-07
-9.58091e-06
-1.57907e-07
-9.40496e-06
-1.75957e-07
-9.21448e-06
-1.90477e-07
-9.01246e-06
-2.02023e-07
-8.80126e-06
-2.11193e-07
-8.58261e-06
-2.18654e-07
-8.35746e-06
-2.25145e-07
-8.126e-06
-2.31466e-07
-7.88755e-06
-2.38452e-07
-7.64061e-06
-2.46936e-07
-7.38293e-06
-2.57685e-07
-7.11159e-06
-2.71335e-07
-6.82328e-06
-2.88306e-07
-6.51457e-06
-3.08717e-07
-6.18226e-06
-3.32305e-07
-5.82389e-06
-3.58377e-07
-5.43808e-06
-3.85804e-07
-5.025e-06
-4.13082e-07
-4.58653e-06
-4.38472e-07
-4.12632e-06
-4.60206e-07
-3.64959e-06
-4.76726e-07
-3.1627e-06
-4.86895e-07
-2.67257e-06
-4.90128e-07
-2.18614e-06
-4.86432e-07
-1.70984e-06
-4.76297e-07
-1.24933e-06
-4.60514e-07
-8.09272e-07
-4.40056e-07
-3.92843e-07
-4.16429e-07
-1.80709e-09
-3.91036e-07
3.641e-07
-3.65907e-07
7.04131e-07
-3.40031e-07
1.01867e-06
-3.1454e-07
1.30861e-06
-2.89941e-07
1.57514e-06
-2.66529e-07
1.81963e-06
-2.44492e-07
2.04355e-06
-2.23919e-07
2.24837e-06
-2.04823e-07
2.43555e-06
-1.87173e-07
2.60645e-06
-1.70903e-07
2.76238e-06
-1.55929e-07
2.90454e-06
-1.42156e-07
3.03402e-06
-1.29488e-07
3.15185e-06
-1.17826e-07
3.25893e-06
-1.07076e-07
3.35608e-06
-9.71505e-08
3.44404e-06
-8.79657e-08
3.52349e-06
-7.94446e-08
3.595e-06
-7.15165e-08
3.65912e-06
-6.41163e-08
3.7163e-06
-5.71846e-08
3.76697e-06
-5.0668e-08
3.81149e-06
-4.45181e-08
3.85018e-06
-3.86913e-08
3.88333e-06
-3.31489e-08
3.91119e-06
-2.78601e-08
3.93398e-06
-2.27847e-08
3.95183e-06
-1.78562e-08
3.96492e-06
-1.30839e-08
3.97312e-06
-8.2084e-09
3.9756e-06
-2.47913e-09
3.97082e-06
4.78455e-09
3.95935e-06
1.14702e-08
3.94232e-06
1.70258e-08
3.92097e-06
2.13496e-08
3.89646e-06
2.45121e-08
3.86985e-06
2.66099e-08
3.8421e-06
2.77554e-08
3.81386e-06
2.82381e-08
3.78565e-06
2.82106e-08
3.75785e-06
2.77934e-08
3.73075e-06
2.71072e-08
3.7045e-06
2.62452e-08
3.67922e-06
2.52766e-08
3.65497e-06
2.42514e-08
3.63177e-06
2.32042e-08
3.60961e-06
2.21575e-08
3.58849e-06
2.11243e-08
3.56837e-06
2.01122e-08
3.54925e-06
1.91257e-08
3.53108e-06
1.81688e-08
3.51383e-06
1.72455e-08
3.49747e-06
1.6361e-08
3.48195e-06
1.55212e-08
3.46722e-06
1.47325e-08
3.45322e-06
1.39999e-08
3.43989e-06
1.33274e-08
3.42718e-06
1.27167e-08
3.41501e-06
1.21672e-08
3.40333e-06
1.16765e-08
3.39209e-06
1.12404e-08
3.38124e-06
1.08544e-08
3.37072e-06
1.05135e-08
3.36051e-06
1.02131e-08
3.35056e-06
9.94946e-09
3.34084e-06
9.71944e-09
3.33132e-06
9.52077e-09
3.32197e-06
9.35188e-09
3.31276e-06
9.21196e-09
3.30366e-06
9.1007e-09
3.29464e-06
9.01827e-09
3.28567e-06
8.9656e-09
3.27673e-06
8.94421e-09
3.26777e-06
8.95659e-09
3.25877e-06
9.00612e-09
3.24967e-06
9.09768e-09
3.24043e-06
9.23786e-09
3.23099e-06
9.43565e-09
3.22129e-06
9.70286e-09
3.21124e-06
1.00553e-08
3.20072e-06
1.0514e-08
3.18962e-06
1.11069e-08
3.17774e-06
1.18713e-08
3.16489e-06
1.28576e-08
3.15075e-06
1.41345e-08
3.13496e-06
1.57964e-08
3.11698e-06
1.79752e-08
3.09612e-06
2.08581e-08
3.07141e-06
2.47153e-08
3.04146e-06
2.99463e-08
3.00431e-06
3.71472e-08
2.95705e-06
4.72642e-08
2.89543e-06
6.16188e-08
2.81237e-06
8.3057e-08
2.69969e-06
1.12686e-07
2.53516e-06
1.64525e-07
2.13343e-07
2.32182e-06
3.05879e-07
-1.80963e-07
9.16671e-07
-9.14901e-07
1.56618e-06
-1.25785e-06
2.16364e-06
-1.31301e-06
2.70036e-06
-1.24264e-06
3.18217e-06
-1.12783e-06
3.61117e-06
-9.95503e-07
3.98428e-06
-8.51323e-07
4.29547e-06
-6.95689e-07
4.53898e-06
-5.29429e-07
4.71225e-06
-3.55107e-07
4.81768e-06
-1.76954e-07
4.86066e-06
3.07563e-09
4.85369e-06
1.81507e-07
4.78776e-06
3.6164e-07
4.65326e-06
5.39089e-07
4.44059e-06
7.07437e-07
4.14442e-06
8.55343e-07
3.76766e-06
9.66546e-07
3.3257e-06
1.02096e-06
2.84985e-06
9.98789e-07
2.38407e-06
8.88662e-07
1.9727e-06
6.99755e-07
1.64898e-06
4.57169e-07
1.45134e-06
1.77063e-07
1.41035e-06
-1.20596e-07
1.35388e-06
-2.05307e-07
1.04874e-06
5.75253e-09
5.06302e-07
3.03415e-07
-3.12489e-07
7.30325e-07
-1.36627e-06
1.11441e-06
-2.55748e-06
1.42589e-06
-3.78322e-06
1.67841e-06
-4.96461e-06
1.86178e-06
-6.06396e-06
1.95904e-06
-7.05548e-06
1.96807e-06
-7.91835e-06
1.89978e-06
-8.64212e-06
1.77091e-06
-9.22659e-06
1.60033e-06
-9.68019e-06
1.40622e-06
-1.00172e-05
1.20403e-06
-1.02552e-05
1.00546e-06
-1.04125e-05
8.18275e-07
-1.05064e-05
6.46807e-07
-1.05521e-05
4.92719e-07
-1.0562e-05
3.55859e-07
-1.05457e-05
2.3507e-07
-1.05103e-05
1.28792e-07
-1.04602e-05
3.58195e-08
-1.03963e-05
-4.70359e-08
-1.03105e-05
-1.2045e-07
-1.01996e-05
-1.86616e-07
-1.0064e-05
-2.44398e-07
-9.90599e-06
-2.93791e-07
-9.72873e-06
-3.35165e-07
-9.53556e-06
-3.69129e-07
-9.3296e-06
-3.9644e-07
-9.1136e-06
-4.18019e-07
-8.88984e-06
-4.34958e-07
-8.65995e-06
-4.48536e-07
-8.42489e-06
-4.60206e-07
-8.18479e-06
-4.71571e-07
-7.93891e-06
-4.8433e-07
-7.68565e-06
-5.00194e-07
-7.42257e-06
-5.20772e-07
-7.14648e-06
-5.47416e-07
-6.85374e-06
-5.8105e-07
-6.54048e-06
-6.2198e-07
-6.20306e-06
-6.69718e-07
-5.83858e-06
-7.22858e-07
-5.44534e-06
-7.79049e-07
-5.02331e-06
-8.35113e-07
-4.57444e-06
-8.87345e-07
-4.10267e-06
-9.31969e-07
-3.61373e-06
-9.65669e-07
-3.11456e-06
-9.86067e-07
-2.61266e-06
-9.92021e-07
-2.11541e-06
-9.83686e-07
-1.6294e-06
-9.62308e-07
-1.16009e-06
-9.2982e-07
-7.11629e-07
-8.8852e-07
-2.86998e-07
-8.4106e-07
1.1306e-07
-7.91093e-07
4.85605e-07
-7.38451e-07
8.31506e-07
-6.85933e-07
1.15174e-06
-6.34771e-07
1.44745e-06
-5.85658e-07
1.72004e-06
-5.39116e-07
1.97101e-06
-4.95456e-07
2.2019e-06
-4.54809e-07
2.41425e-06
-4.17178e-07
2.60956e-06
-3.82478e-07
2.78922e-06
-3.5057e-07
2.95457e-06
-3.21278e-07
3.10683e-06
-2.94414e-07
3.24713e-06
-2.69785e-07
3.3765e-06
-2.47199e-07
3.4959e-06
-2.26474e-07
3.60619e-06
-2.07439e-07
3.70815e-06
-1.89932e-07
3.80251e-06
-1.73805e-07
3.88992e-06
-1.5892e-07
3.97095e-06
-1.45151e-07
4.04615e-06
-1.32381e-07
4.11598e-06
-1.20503e-07
4.18088e-06
-1.09419e-07
4.24123e-06
-9.90403e-08
4.29737e-06
-8.92831e-08
4.34958e-06
-8.00712e-08
4.39812e-06
-7.13288e-08
4.44325e-06
-6.29803e-08
4.48511e-06
-5.49441e-08
4.52409e-06
-4.71941e-08
4.56149e-06
-3.98733e-08
4.59896e-06
-3.26919e-08
4.63617e-06
-2.57396e-08
4.67237e-06
-1.91755e-08
4.70687e-06
-1.31444e-08
4.7391e-06
-7.7174e-09
4.76855e-06
-2.83966e-09
4.79496e-06
1.34132e-09
4.81816e-06
5.03587e-09
4.83818e-06
8.19489e-09
4.85511e-06
1.0857e-08
4.86913e-06
1.30937e-08
4.88041e-06
1.49614e-08
4.88918e-06
1.65131e-08
4.89563e-06
1.77936e-08
4.89999e-06
1.88429e-08
4.90246e-06
1.96923e-08
4.90322e-06
2.03657e-08
4.90245e-06
2.08826e-08
4.90031e-06
2.12598e-08
4.89697e-06
2.15125e-08
4.89256e-06
2.16554e-08
4.88722e-06
2.17034e-08
4.88107e-06
2.16718e-08
4.87422e-06
2.15753e-08
4.8668e-06
2.14284e-08
4.85888e-06
2.12441e-08
4.85056e-06
2.10337e-08
4.84192e-06
2.08064e-08
4.83303e-06
2.05697e-08
4.82394e-06
2.03292e-08
4.81471e-06
2.00895e-08
4.80536e-06
1.98541e-08
4.79595e-06
1.96263e-08
4.78649e-06
1.94092e-08
4.77701e-06
1.92061e-08
4.76751e-06
1.90203e-08
4.758e-06
1.88553e-08
4.7485e-06
1.87147e-08
4.739e-06
1.86023e-08
4.72949e-06
1.85223e-08
4.71998e-06
1.84786e-08
4.71045e-06
1.84763e-08
4.70089e-06
1.85204e-08
4.69127e-06
1.86174e-08
4.6816e-06
1.87751e-08
4.67183e-06
1.90033e-08
4.66195e-06
1.93149e-08
4.65193e-06
1.97262e-08
4.64172e-06
2.02593e-08
4.6313e-06
2.09429e-08
4.62059e-06
2.18153e-08
4.60953e-06
2.2928e-08
4.59804e-06
2.43501e-08
4.586e-06
2.61757e-08
4.57326e-06
2.85342e-08
4.55963e-06
3.16063e-08
4.54484e-06
3.56477e-08
4.52853e-06
4.10266e-08
4.51018e-06
4.82914e-08
4.48908e-06
5.82475e-08
4.46412e-06
7.22302e-08
4.43374e-06
9.19965e-08
4.39495e-06
1.2185e-07
4.34425e-06
1.63383e-07
4.26878e-06
2.39994e-07
3.24281e-07
4.15784e-06
5.77784e-07
-7.58747e-07
1.25433e-06
-1.59145e-06
1.77565e-06
-1.77916e-06
2.19435e-06
-1.73172e-06
2.57489e-06
-1.62318e-06
2.93939e-06
-1.49232e-06
3.28305e-06
-1.33916e-06
3.59133e-06
-1.1596e-06
3.8492e-06
-9.53561e-07
4.04503e-06
-7.25258e-07
4.17167e-06
-4.81741e-07
4.22638e-06
-2.31665e-07
4.21932e-06
1.01334e-08
4.1469e-06
2.53932e-07
4.03125e-06
4.77284e-07
3.88542e-06
6.84916e-07
3.71632e-06
8.76545e-07
3.52122e-06
1.05044e-06
3.28937e-06
1.19839e-06
3.008e-06
1.30232e-06
2.6701e-06
1.33669e-06
2.28383e-06
1.27493e-06
1.8888e-06
1.09478e-06
1.55882e-06
7.87152e-07
1.27062e-06
4.65262e-07
7.53751e-07
3.96272e-07
-1.37049e-07
6.85493e-07
-1.31794e-06
1.18665e-06
-2.64735e-06
1.63283e-06
-3.93546e-06
2.01843e-06
-5.14005e-06
2.319e-06
-6.23132e-06
2.51716e-06
-7.16724e-06
2.61433e-06
-7.92258e-06
2.61712e-06
-8.50027e-06
2.53673e-06
-8.92159e-06
2.38939e-06
-9.21684e-06
2.19504e-06
-9.41968e-06
1.97375e-06
-9.56199e-06
1.74265e-06
-9.66997e-06
1.51419e-06
-9.76174e-06
1.2958e-06
-9.84707e-06
1.09079e-06
-9.9285e-06
8.99715e-07
-1.00035e-05
7.21778e-07
-1.00666e-05
5.55798e-07
-1.01115e-05
4.00782e-07
-1.01326e-05
2.56193e-07
-1.01258e-05
1.21973e-07
-1.00883e-05
-1.6952e-09
-1.00207e-05
-1.14628e-07
-9.92445e-06
-2.16678e-07
-9.80364e-06
-3.07428e-07
-9.6613e-06
-3.86729e-07
-9.50037e-06
-4.54722e-07
-9.32377e-06
-5.11765e-07
-9.1344e-06
-5.58502e-07
-8.93499e-06
-5.95855e-07
-8.72798e-06
-6.25024e-07
-8.51544e-06
-6.47504e-07
-8.29888e-06
-6.65092e-07
-8.07919e-06
-6.79892e-07
-7.85647e-06
-6.94292e-07
-7.6299e-06
-7.109e-07
-7.39768e-06
-7.3242e-07
-7.15698e-06
-7.61471e-07
-6.90406e-06
-8.00337e-07
-6.63444e-06
-8.5067e-07
-6.34326e-06
-9.1316e-07
-6.02576e-06
-9.87218e-07
-5.67789e-06
-1.07072e-06
-5.29702e-06
-1.15992e-06
-4.88255e-06
-1.24958e-06
-4.4364e-06
-1.33349e-06
-3.96312e-06
-1.40525e-06
-3.46954e-06
-1.45925e-06
-2.96408e-06
-1.49153e-06
-2.45571e-06
-1.50039e-06
-1.95304e-06
-1.48636e-06
-1.46351e-06
-1.45183e-06
-9.92918e-07
-1.40041e-06
-5.4529e-07
-1.33615e-06
-1.23134e-07
-1.26322e-06
2.71156e-07
-1.18538e-06
6.37637e-07
-1.10493e-06
9.76939e-07
-1.02524e-06
1.29011e-06
-9.4794e-07
1.57856e-06
-8.74112e-07
1.8439e-06
-8.04449e-07
2.08777e-06
-7.39331e-07
2.31184e-06
-6.78882e-07
2.51772e-06
-6.23051e-07
2.70691e-06
-5.71673e-07
2.88085e-06
-5.24508e-07
3.04085e-06
-4.81282e-07
3.18814e-06
-4.41702e-07
3.32383e-06
-4.05478e-07
3.44896e-06
-3.72326e-07
3.56446e-06
-3.41978e-07
3.67121e-06
-3.14183e-07
3.76998e-06
-2.88705e-07
3.86151e-06
-2.65329e-07
3.94644e-06
-2.43854e-07
4.02538e-06
-2.24094e-07
4.09888e-06
-2.05879e-07
4.16743e-06
-1.89048e-07
4.23146e-06
-1.73456e-07
4.29139e-06
-1.58967e-07
4.34756e-06
-1.45456e-07
4.4003e-06
-1.32805e-07
4.44988e-06
-1.20908e-07
4.49657e-06
-1.09671e-07
4.54062e-06
-9.89976e-08
4.58223e-06
-8.87991e-08
4.62143e-06
-7.90792e-08
4.65855e-06
-6.98061e-08
4.6938e-06
-6.09954e-08
4.72733e-06
-5.27015e-08
4.75915e-06
-4.49626e-08
4.78923e-06
-3.77981e-08
4.81762e-06
-3.12311e-08
4.84427e-06
-2.53085e-08
4.86923e-06
-1.99245e-08
4.89247e-06
-1.50417e-08
4.91396e-06
-1.06337e-08
4.93371e-06
-6.65575e-09
4.95173e-06
-3.06127e-09
4.96804e-06
1.99758e-10
4.98268e-06
3.15514e-09
4.99569e-06
5.83274e-09
5.00713e-06
8.25609e-09
5.01705e-06
1.04435e-08
5.02552e-06
1.24111e-08
5.03261e-06
1.41727e-08
5.03838e-06
1.57411e-08
5.04291e-06
1.71289e-08
5.04626e-06
1.83494e-08
5.04852e-06
1.94164e-08
5.04975e-06
2.0344e-08
5.05003e-06
2.11463e-08
5.04944e-06
2.18372e-08
5.04804e-06
2.24298e-08
5.04591e-06
2.29359e-08
5.04311e-06
2.33661e-08
5.03971e-06
2.37301e-08
5.03577e-06
2.40369e-08
5.03133e-06
2.42942e-08
5.02644e-06
2.45101e-08
5.02116e-06
2.46922e-08
5.01552e-06
2.48481e-08
5.00955e-06
2.49854e-08
5.0033e-06
2.51119e-08
4.99677e-06
2.52356e-08
4.99001e-06
2.53645e-08
4.98303e-06
2.55068e-08
4.97584e-06
2.56709e-08
4.96845e-06
2.58656e-08
4.96087e-06
2.61003e-08
4.9531e-06
2.63854e-08
4.94514e-06
2.67327e-08
4.93699e-06
2.71562e-08
4.92863e-06
2.7673e-08
4.92005e-06
2.83046e-08
4.91123e-06
2.90785e-08
4.90214e-06
3.00301e-08
4.89275e-06
3.12062e-08
4.88301e-06
3.26686e-08
4.87286e-06
3.45001e-08
4.86223e-06
3.6812e-08
4.851e-06
3.97565e-08
4.83907e-06
4.35433e-08
4.82625e-06
4.84666e-08
4.81233e-06
5.49436e-08
4.79704e-06
6.35847e-08
4.78001e-06
7.52715e-08
4.76082e-06
9.14206e-08
4.73891e-06
1.13915e-07
4.71389e-06
1.46869e-07
4.68417e-06
1.93104e-07
4.6534e-06
2.70763e-07
3.70335e-07
4.60734e-06
6.62635e-07
-1.42138e-06
1.17529e-06
-2.10411e-06
1.51514e-06
-2.11901e-06
1.81688e-06
-2.03347e-06
2.12499e-06
-1.93128e-06
2.43168e-06
-1.79902e-06
2.71623e-06
-1.62371e-06
2.95936e-06
-1.40273e-06
3.14694e-06
-1.14114e-06
3.27066e-06
-8.48984e-07
3.32801e-06
-5.3909e-07
3.32235e-06
-2.26002e-07
3.2539e-06
7.85764e-08
3.13179e-06
3.76047e-07
2.96198e-06
6.47096e-07
2.75812e-06
8.88774e-07
2.53415e-06
1.10051e-06
2.29783e-06
1.28677e-06
2.04599e-06
1.45023e-06
1.76867e-06
1.57964e-06
1.46656e-06
1.63881e-06
1.16624e-06
1.57525e-06
8.65724e-07
1.3953e-06
4.28696e-07
1.22418e-06
-3.73061e-07
1.26702e-06
-1.60366e-06
1.62687e-06
-3.00314e-06
2.08497e-06
-4.3196e-06
2.5031e-06
-5.50179e-06
2.81501e-06
-6.50064e-06
3.01728e-06
-7.29508e-06
3.11345e-06
-7.88983e-06
3.1119e-06
-8.30415e-06
3.02865e-06
-8.56993e-06
2.8829e-06
-8.7276e-06
2.69441e-06
-8.81949e-06
2.48127e-06
-8.88244e-06
2.25798e-06
-8.94276e-06
2.03407e-06
-9.01448e-06
1.81438e-06
-9.10066e-06
1.60037e-06
-9.19656e-06
1.39171e-06
-9.29343e-06
1.18766e-06
-9.38155e-06
9.87833e-07
-9.4523e-06
7.92527e-07
-9.49916e-06
6.02661e-07
-9.51799e-06
4.1961e-07
-9.50683e-06
2.45035e-07
-9.46552e-06
8.06636e-08
-9.39529e-06
-7.1924e-08
-9.29835e-06
-2.11567e-07
-9.17771e-06
-3.37322e-07
-9.03673e-06
-4.48403e-07
-8.87909e-06
-5.44375e-07
-8.70853e-06
-6.25277e-07
-8.52867e-06
-6.91627e-07
-8.34277e-06
-7.44409e-07
-8.15358e-06
-7.85038e-07
-7.9633e-06
-8.15309e-07
-7.77345e-06
-8.3735e-07
-7.58494e-06
-8.53604e-07
-7.39799e-06
-8.66837e-07
-7.21213e-06
-8.80154e-07
-7.02604e-06
-8.96997e-07
-6.83739e-06
-9.21064e-07
-6.64276e-06
-9.56105e-07
-6.43751e-06
-1.00559e-06
-6.21594e-06
-1.07224e-06
-5.97159e-06
-1.15751e-06
-5.6978e-06
-1.261e-06
-5.38852e-06
-1.38001e-06
-5.03924e-06
-1.5092e-06
-4.64807e-06
-1.64075e-06
-4.2165e-06
-1.76506e-06
-3.74976e-06
-1.87199e-06
-3.25637e-06
-1.95264e-06
-2.74706e-06
-2.00085e-06
-2.23328e-06
-2.01417e-06
-1.72571e-06
-1.99393e-06
-1.23329e-06
-1.94425e-06
-7.62633e-07
-1.87107e-06
-3.17891e-07
-1.78089e-06
9.8238e-08
-1.67934e-06
4.84377e-07
-1.57152e-06
8.41501e-07
-1.46206e-06
1.17058e-06
-1.35431e-06
1.47308e-06
-1.25044e-06
1.75077e-06
-1.1518e-06
2.00552e-06
-1.0592e-06
2.23918e-06
-9.72986e-07
2.4535e-06
-8.93201e-07
2.65013e-06
-8.19685e-07
2.8306e-06
-7.52148e-07
2.99633e-06
-6.90231e-07
3.14858e-06
-6.33538e-07
3.28855e-06
-5.8167e-07
3.41731e-06
-5.34238e-07
3.53586e-06
-4.9087e-07
3.6451e-06
-4.51218e-07
3.74587e-06
-4.14958e-07
3.83895e-06
-3.8179e-07
3.92506e-06
-3.51436e-07
4.00485e-06
-3.23638e-07
4.07891e-06
-2.98159e-07
4.14781e-06
-2.74775e-07
4.21203e-06
-2.53277e-07
4.27205e-06
-2.33474e-07
4.32827e-06
-2.15182e-07
4.38104e-06
-1.98233e-07
4.43071e-06
-1.8247e-07
4.47755e-06
-1.67748e-07
4.52181e-06
-1.53936e-07
4.56373e-06
-1.40911e-07
4.6035e-06
-1.28573e-07
4.6413e-06
-1.16877e-07
4.67727e-06
-1.0578e-07
4.71152e-06
-9.52415e-08
4.74408e-06
-8.52609e-08
4.77497e-06
-7.58546e-08
4.80421e-06
-6.70352e-08
4.83178e-06
-5.88063e-08
4.85765e-06
-5.11732e-08
4.88182e-06
-4.41039e-08
4.90434e-06
-3.7553e-08
4.92519e-06
-3.14886e-08
4.94441e-06
-2.58751e-08
4.96202e-06
-2.06748e-08
4.97808e-06
-1.58532e-08
4.99262e-06
-1.13842e-08
5.00569e-06
-7.24207e-09
5.01735e-06
-3.40554e-09
5.02765e-06
1.42411e-10
5.03665e-06
3.41586e-09
5.04439e-06