/*--------------------------------*- C++ -*----------------------------------*\
  =========                 |
  \\      /  F ield         | OpenFOAM: The Open Source CFD Toolbox
   \\    /   O peration     | Website:  https://openfoam.org
    \\  /    A nd           | Version:  9
     \\/     M anipulation  |
\*---------------------------------------------------------------------------*/
FoamFile
{
    format      ascii;
    class       volScalarField;
    location    "0.18";
    object      k;
}
// * * * * * * * * * * * * * * * * * * * * * * * * * * * * * * * * * * * * * //

dimensions      [0 2 -2 0 0 0 0];

internalField   nonuniform List<scalar> 
12225
(
0.283134
0.213787
0.165955
0.133632
0.112706
0.100236
0.0940003
0.0922226
0.0934388
0.0964446
0.100265
0.10443
0.109558
0.11494
0.120326
0.125741
0.131676
0.13887
0.34924
0.324682
0.310152
0.307129
0.314975
0.33211
0.356271
0.384753
0.414742
0.443693
0.469488
0.490189
0.504079
0.51128
0.511922
0.506084
0.49334
0.472472
0.361992
0.348161
0.335973
0.326069
0.318854
0.314348
0.312254
0.312061
0.313123
0.314755
0.316337
0.317596
0.318317
0.318191
0.317082
0.314985
0.312017
0.308493
0.36562
0.3551
0.344901
0.335494
0.327169
0.320038
0.314044
0.309028
0.30478
0.301094
0.297804
0.294817
0.292075
0.289554
0.287284
0.285381
0.284089
0.283838
0.366993
0.358307
0.34971
0.341452
0.333709
0.326586
0.320118
0.314285
0.309046
0.304331
0.300081
0.296263
0.292867
0.289914
0.287465
0.285644
0.284661
0.284791
0.367522
0.359778
0.352207
0.344887
0.337902
0.33132
0.325185
0.319516
0.314304
0.309535
0.305199
0.301296
0.29784
0.294867
0.292443
0.290676
0.289724
0.289731
0.367713
0.360404
0.353406
0.346706
0.340319
0.334273
0.328592
0.323283
0.318351
0.3138
0.309636
0.305873
0.302534
0.299659
0.297307
0.29556
0.294521
0.294243
0.367776
0.360644
0.353926
0.347576
0.341572
0.335909
0.330585
0.325598
0.32095
0.316644
0.31269
0.309103
0.305907
0.303136
0.300838
0.29907
0.297887
0.297294
0.367795
0.360725
0.354123
0.34794
0.34214
0.3367
0.331605
0.326842
0.322406
0.318296
0.314516
0.311077
0.307997
0.305303
0.303026
0.301199
0.299847
0.298954
0.367799
0.360747
0.354184
0.348067
0.342356
0.337024
0.332048
0.327411
0.323101
0.31911
0.315437
0.312088
0.309072
0.306406
0.304108
0.302194
0.300668
0.29951
0.367799
0.36075
0.354197
0.348098
0.342417
0.337125
0.332197
0.327614
0.323359
0.31942
0.315794
0.312478
0.309477
0.306796
0.304444
0.302423
0.30073
0.299346
0.367799
0.360749
0.354195
0.348096
0.34242
0.337135
0.332217
0.327644
0.3234
0.31947
0.315846
0.312524
0.309501
0.306777
0.304352
0.302224
0.300382
0.298813
0.367799
0.360748
0.35419
0.348088
0.342407
0.337118
0.332195
0.327617
0.323365
0.319424
0.315783
0.312435
0.309373
0.306593
0.30409
0.301856
0.299881
0.298157
0.367799
0.360747
0.354185
0.348077
0.342389
0.33709
0.332155
0.327561
0.32329
0.319324
0.315652
0.312262
0.309146
0.306295
0.303703
0.301357
0.299248
0.297374
0.3678
0.360747
0.354181
0.348067
0.342369
0.337058
0.332106
0.327492
0.323195
0.319198
0.315485
0.312045
0.308866
0.305938
0.303251
0.300793
0.298554
0.296538
0.367801
0.360747
0.354179
0.348058
0.34235
0.337026
0.332057
0.32742
0.323094
0.319061
0.315305
0.311811
0.308567
0.305561
0.302781
0.300217
0.297858
0.295713
0.367802
0.360748
0.354177
0.348051
0.342334
0.336996
0.332009
0.327348
0.322993
0.318924
0.315124
0.311577
0.30827
0.305191
0.302326
0.299665
0.297199
0.294939
0.367803
0.36075
0.354176
0.348045
0.342319
0.336968
0.331963
0.327281
0.322898
0.318794
0.314953
0.311358
0.307994
0.304849
0.301909
0.299165
0.296606
0.294247
0.367804
0.36075
0.354175
0.348038
0.342304
0.336941
0.33192
0.327218
0.322809
0.318676
0.314799
0.311163
0.307751
0.304551
0.301551
0.298738
0.296105
0.293668
0.367804
0.36075
0.354172
0.348031
0.342291
0.33692
0.331888
0.327172
0.322746
0.318593
0.314692
0.311027
0.307584
0.304348
0.301307
0.298449
0.295766
0.293276
0.367804
0.360749
0.35417
0.348026
0.342282
0.336905
0.331867
0.327141
0.322705
0.318538
0.314621
0.310938
0.307473
0.304212
0.301142
0.298252
0.295533
0.293003
0.367804
0.360748
0.354167
0.348021
0.342272
0.336888
0.331841
0.327103
0.322651
0.318465
0.314525
0.310813
0.307316
0.304017
0.300904
0.297966
0.295195
0.292608
0.367804
0.360746
0.35416
0.348004
0.34224
0.336835
0.331757
0.32698
0.322481
0.318238
0.314233
0.310448
0.306869
0.303482
0.300275
0.297236
0.294359
0.291663
0.367801
0.360731
0.354119
0.347917
0.342087
0.336593
0.331405
0.326498
0.321852
0.317448
0.313271
0.309307
0.305544
0.301971
0.298577
0.295354
0.292295
0.289422
0.367782
0.360645
0.353909
0.347525
0.341459
0.335688
0.330196
0.324969
0.319998
0.315274
0.310789
0.306533
0.302499
0.298678
0.29506
0.291637
0.2884
0.285371
0.367672
0.360248
0.353074
0.346148
0.339483
0.3331
0.327019
0.321254
0.315812
0.310697
0.305905
0.301431
0.297264
0.293392
0.2898
0.286468
0.283381
0.280544
0.367177
0.358794
0.350472
0.34238
0.334652
0.327396
0.320679
0.314538
0.308987
0.304031
0.29966
0.295855
0.292588
0.289823
0.287518
0.285629
0.284108
0.282913
0.365291
0.354371
0.343694
0.333766
0.324938
0.31739
0.311182
0.306326
0.302823
0.300664
0.299827
0.300281
0.301977
0.30485
0.30882
0.313785
0.319633
0.326215
0.357567
0.338079
0.32163
0.309732
0.302788
0.300825
0.303762
0.311455
0.323717
0.340318
0.36098
0.385371
0.413094
0.4437
0.47669
0.511522
0.547668
0.584387
0.314719
0.263993
0.224325
0.193121
0.1686
0.149479
0.134814
0.123898
0.116184
0.111243
0.108733
0.108373
0.109925
0.113179
0.117944
0.124035
0.131275
0.139462
0.0368356
0.0621874
0.0661869
0.0689396
0.0721004
0.0759081
0.0804236
0.085579
0.0916094
0.0988219
0.107457
0.117433
0.128077
0.137893
0.144961
0.154317
0.166919
0.185835
0.2064
0.227906
0.249545
0.2716
0.294767
0.319604
0.348217
0.377133
0.405562
0.432985
0.45928
0.484451
0.508642
0.532189
0.555702
0.580174
0.607009
0.638
0.674578
0.714659
0.747522
0.761
0.743921
0.685669
0.582557
0.44625
0.308414
0.201406
0.128998
0.0869716
0.0691201
0.0648623
0.0661764
0.0686265
0.0711234
0.0737941
0.0769912
0.0802358
0.0811159
0.078616
0.0735389
0.068604
0.0672611
0.0725123
0.0870548
0.117416
0.156529
0.188064
0.218826
0.266819
0.375482
0.592416
0.802105
0.987699
1.14136
1.26083
1.34724
1.40343
1.43303
1.43989
1.42783
1.40045
1.36101
1.31238
1.25691
1.19825
1.13916
1.08014
1.02164
0.964077
0.907797
0.853082
0.800156
0.749183
0.700269
0.653453
0.608713
0.565957
0.525033
0.485747
0.447887
0.411264
0.375756
0.341369
0.308406
0.277833
0.253807
0.249545
0.255637
0.263386
0.272368
0.282743
0.294716
0.308431
0.323931
0.341132
0.35981
0.379607
0.400037
0.420491
0.440441
0.459129
0.472962
0.479062
0.476241
0.463776
0.441572
0.41026
0.371077
0.325237
0.27166
0.204091
0.140887
0.0963299
0.0676245
0.051623
0.0446671
0.0433571
0.0450368
0.0478428
0.0505541
0.0524356
0.0531417
0.0526774
0.0514129
0.0496381
0.0471693
0.0440971
0.0406863
0.0373306
0.0344888
0.0326461
0.0323243
0.0343651
0.0401119
0.0514918
0.0705887
0.0972412
0.122811
0.111456
0.108843
0.114712
0.120792
0.126738
0.13266
0.138796
0.14414
0.148249
0.150516
0.150076
0.145981
0.137676
0.128314
0.126456
0.140181
0.198451
0.25522
0.312543
0.369773
0.404375
0.394365
0.326429
0.0460236
0.0855273
0.0744436
0.0682553
0.0712629
0.0806957
0.0935378
0.109206
0.128677
0.152673
0.181587
0.21544
0.254157
0.297707
0.346508
0.398811
0.454022
0.508395
0.56132
0.612061
0.659871
0.704135
0.744287
0.7794
0.808531
0.830598
0.844109
0.847549
0.841443
0.825949
0.801385
0.768382
0.727942
0.681479
0.630979
0.579476
0.530924
0.488378
0.457038
0.438881
0.429529
0.422082
0.410391
0.392303
0.367705
0.331708
0.278577
0.212989
0.152902
0.111236
0.0859884
0.0711772
0.0652319
0.0677131
0.0757406
0.0867734
0.0967332
0.100302
0.095591
0.086274
0.078601
0.0797445
0.0969285
0.140711
0.21818
0.309552
0.37802
0.4166
0.456501
0.496785
0.52269
0.53473
0.535908
0.530034
0.520633
0.51047
0.501442
0.494696
0.490851
0.490241
0.493075
0.499515
0.509764
0.521832
0.533742
0.54553
0.557259
0.569001
0.580831
0.592815
0.604995
0.617365
0.629849
0.642263
0.654291
0.665456
0.675109
0.682445
0.686545
0.686462
0.68132
0.670421
0.653291
0.629788
0.59973
0.568453
0.537267
0.505171
0.472865
0.440974
0.409973
0.380202
0.351875
0.325097
0.299889
0.276208
0.253973
0.233071
0.213398
0.194896
0.17863
0.164988
0.153595
0.143929
0.135469
0.127659
0.120005
0.11227
0.104903
0.100537
0.0971693
0.0966229
0.100223
0.108473
0.120866
0.136017
0.152062
0.16715
0.179776
0.188904
0.193898
0.194376
0.190041
0.18084
0.167451
0.150817
0.132067
0.112419
0.0934216
0.076837
0.0641348
0.0562388
0.0540131
0.0610293
0.0881085
0.148925
0.218913
0.193796
0.157608
0.146602
0.149793
0.15861
0.168971
0.179117
0.18989
0.200406
0.209125
0.213847
0.211922
0.20047
0.181276
0.161509
0.141232
0.122002
0.10598
0.0926848
0.0820398
0.0815024
0.0919163
0.100215
0.0435206
0.0867458
0.0838811
0.0862534
0.103717
0.13677
0.174526
0.214354
0.25804
0.305443
0.356368
0.410434
0.466933
0.524964
0.583399
0.640975
0.696435
0.748549
0.796984
0.841483
0.881732
0.917332
0.947789
0.972461
0.990567
1.0012
1.00328
0.9953
0.976328
0.946999
0.907967
0.86017
0.805056
0.74465
0.681431
0.618172
0.557959
0.50401
0.458803
0.422767
0.394683
0.370352
0.347996
0.328408
0.312842
0.299722
0.282797
0.25381
0.210757
0.162295
0.119748
0.0889678
0.070676
0.0639212
0.0682222
0.080138
0.0957988
0.108869
0.11313
0.110514
0.112987
0.140953
0.205819
0.288752
0.340582
0.354884
0.363315
0.371546
0.382476
0.39352
0.402662
0.411394
0.421078
0.432211
0.44444
0.457034
0.469378
0.481213
0.492593
0.503693
0.514628
0.525367
0.535798
0.546079
0.556139
0.565962
0.575603
0.585184
0.594882
0.604908
0.615483
0.626797
0.638967
0.651986
0.665671
0.679617
0.69317
0.705425
0.71527
0.72149
0.72289
0.718454
0.707394
0.68911
0.663793
0.636429
0.60655
0.574729
0.541864
0.508706
0.475856
0.443785
0.412838
0.383253
0.355179
0.328692
0.303817
0.280525
0.258757
0.238428
0.219396
0.201344
0.18412
0.167727
0.152152
0.137459
0.123766
0.111242
0.100139
0.0908317
0.0833188
0.0776146
0.073759
0.071774
0.0716402
0.0732808
0.0765227
0.0810463
0.0863695
0.0918925
0.0969809
0.101035
0.103511
0.103955
0.102072
0.0977863
0.0912637
0.0828994
0.0732634
0.0633346
0.0547754
0.0499011
0.0519444
0.0684914
0.110364
0.172576
0.19825
0.171423
0.151783
0.14905
0.151815
0.155975
0.161056
0.166869
0.173855
0.181484
0.188687
0.193626
0.193672
0.185455
0.171484
0.155365
0.138361
0.122221
0.107899
0.0956322
0.0852674
0.0763092
0.0687603
0.0639398
0.039035
0.0879525
0.104402
0.134583
0.192362
0.253596
0.304841
0.356446
0.410411
0.466684
0.524778
0.583793
0.642619
0.700006
0.754774
0.805904
0.852788
0.895176
0.933167
0.966826
0.99608
1.02069
1.04024
1.05417
1.06179
1.06229
1.05476
1.03814
1.0111
0.972471
0.924477
0.867727
0.803522
0.733946
0.661782
0.590191
0.52233
0.461065
0.408706
0.367029
0.337245
0.319075
0.305
0.289997
0.27465
0.26136
0.250256
0.237119
0.216089
0.185684
0.150927
0.119158
0.0954831
0.081973
0.0797389
0.0893951
0.10771
0.128969
0.145035
0.158787
0.194442
0.254522
0.310023
0.326417
0.325051
0.322577
0.325795
0.334667
0.34808
0.364263
0.382063
0.400678
0.418884
0.435461
0.449725
0.46171
0.471948
0.481083
0.489585
0.497652
0.505268
0.512298
0.518919
0.525195
0.530966
0.53614
0.54074
0.544917
0.548945
0.553195
0.558104
0.564118
0.571635
0.58093
0.592082
0.604912
0.618922
0.633277
0.646835
0.658257
0.666102
0.669096
0.666058
0.655917
0.64055
0.621399
0.598759
0.573489
0.546423
0.518282
0.489675
0.461101
0.432955
0.405541
0.379086
0.353749
0.329633
0.306798
0.285265
0.265028
0.246043
0.228188
0.211231
0.195095
0.179683
0.164962
0.150981
0.137855
0.125743
0.114805
0.105129
0.0967351
0.0895988
0.0836646
0.0788615
0.0751203
0.0723772
0.0705596
0.0695619
0.0692288
0.0693558
0.0697031
0.0700107
0.0700099
0.0694399
0.0680745
0.0657419
0.0623036
0.0577334
0.0525515
0.0483396
0.0477249
0.0555117
0.0795656
0.123095
0.165803
0.171073
0.155085
0.145223
0.142399
0.1414
0.141458
0.142552
0.144801
0.14829
0.153029
0.158521
0.163366
0.165028
0.160382
0.151164
0.139044
0.125744
0.112816
0.101135
0.0910341
0.0825301
0.0754408
0.0692565
0.0634124
0.0353776
0.0930426
0.138267
0.212272
0.306524
0.37935
0.440309
0.500599
0.560084
0.619231
0.677687
0.734312
0.787809
0.8371
0.88147
0.920544
0.95443
0.983934
1.00969
1.03209
1.0512
1.06678
1.07833
1.08515
1.08644
1.08131
1.06884
1.04809
1.01806
0.97749
0.924557
0.86315
0.793733
0.717887
0.638182
0.558168
0.481983
0.413483
0.355278
0.308346
0.272825
0.249328
0.238958
0.234987
0.230993
0.224376
0.216127
0.207259
0.196106
0.180045
0.15898
0.136186
0.116338
0.103622
0.100595
0.110411
0.133538
0.166839
0.202393
0.246229
0.286231
0.306687
0.306519
0.298727
0.2942
0.297133
0.307616
0.323771
0.343418
0.36434
0.384558
0.402413
0.416836
0.427654
0.435488
0.441332
0.446162
0.450709
0.455407
0.460427
0.465726
0.471109
0.476399
0.481031
0.484656
0.487069
0.488241
0.488334
0.487701
0.486859
0.486445
0.487148
0.489635
0.49446
0.501976
0.512249
0.524992
0.539511
0.554726
0.569294
0.581663
0.590422
0.594009
0.591984
0.585285
0.574369
0.559802
0.542273
0.522462
0.500992
0.478404
0.455164
0.431659
0.408207
0.385069
0.362449
0.340509
0.319373
0.299128
0.279827
0.261495
0.244124
0.227637
0.211982
0.197109
0.18297
0.169543
0.156845
0.144939
0.133918
0.123863
0.114811
0.106749
0.0996215
0.0933537
0.087868
0.0830994
0.0789948
0.0755047
0.072571
0.0701198
0.0680607
0.0662896
0.0646909
0.0631341
0.0614765
0.059564
0.0572006
0.0541927
0.050808
0.0485025
0.0503886
0.0615874
0.0879851
0.125065
0.151376
0.152524
0.144472
0.138028
0.133907
0.130947
0.128884
0.127541
0.127161
0.127809
0.130011
0.133758
0.138074
0.140542
0.138551
0.132482
0.123388
0.112876
0.102359
0.0926828
0.0842159
0.0770499
0.0711256
0.0662957
0.0621447
0.0350276
0.108792
0.196164
0.316308
0.427847
0.507697
0.576979
0.641423
0.70196
0.759219
0.812406
0.860317
0.902
0.937024
0.965481
0.987892
1.00499
1.01959
1.03304
1.04592
1.05822
1.06939
1.07849
1.08431
1.08554
1.0809
1.06926
1.04963
1.02112
0.982682
0.93293
0.869894
0.798374
0.719141
0.633978
0.546018
0.45988
0.380749
0.312942
0.258685
0.217898
0.189418
0.172899
0.169515
0.172878
0.177232
0.178097
0.175042
0.169367
0.161271
0.150327
0.137335
0.125114
0.118194
0.121261
0.136911
0.170667
0.223685
0.284603
0.312144
0.302298
0.28885
0.277646
0.272533
0.275905
0.2873
0.30469
0.325451
0.346952
0.366821
0.383292
0.395498
0.403557
0.408351
0.411113
0.413058
0.415165
0.418088
0.422149
0.427362
0.433491
0.440118
0.446108
0.450671
0.453367
0.453947
0.452389
0.44892
0.444017
0.438366
0.432813
0.428271
0.425634
0.425666
0.428914
0.435607
0.445624
0.458432
0.473058
0.488202
0.502416
0.514214
0.521801
0.525251
0.524725
0.5204
0.512644
0.501931
0.488769
0.473639
0.456981
0.439185
0.420588
0.401484
0.382125
0.36273
0.343487
0.324556
0.306067
0.28813
0.270829
0.254223
0.238329
0.223145
0.208678
0.19493
0.181898
0.169586
0.15801
0.1472
0.137186
0.127983
0.119584
0.111957
0.105054
0.0988155
0.0931888
0.0881275
0.083593
0.0795484
0.0759535
0.072761
0.0699169
0.0673583
0.0650087
0.0627717
0.0605237
0.0580827
0.0552659
0.0523606
0.0508778
0.0541158
0.066885
0.0920141
0.120962
0.138375
0.140714
0.137041
0.131569
0.127019
0.123614
0.120664
0.117825
0.115326
0.113552
0.113463
0.115456
0.118903
0.121651
0.121339
0.117515
0.110749
0.102389
0.0937261
0.0855858
0.0783525
0.0721405
0.0669316
0.0626728
0.0592959
0.0414446
0.144659
0.28102
0.43136
0.54702
0.632994
0.706858
0.771043
0.827419
0.875959
0.915707
0.946093
0.9673
0.980269
0.986413
0.987347
0.984674
0.983986
0.987321
0.995026
1.00655
1.02067
1.03562
1.04924
1.05922
1.06338
1.05993
1.0476
1.02556
0.993091
0.949217
0.892064
0.820872
0.740837
0.652658
0.55837
0.46259
0.371738
0.292185
0.228082
0.180284
0.147069
0.126066
0.116277
0.117927
0.125834
0.134586
0.1396
0.140196
0.137873
0.133744
0.128557
0.124286
0.125399
0.137885
0.16568
0.215376
0.290308
0.333402
0.309454
0.279266
0.26204
0.25528
0.258132
0.269443
0.287006
0.308099
0.32995
0.350108
0.366799
0.379216
0.387515
0.392573
0.395632
0.397975
0.400687
0.404519
0.409829
0.416599
0.42448
0.432885
0.441008
0.447512
0.451732
0.453162
0.451498
0.446708
0.439073
0.4292
0.417984
0.406534
0.396047
0.387666
0.382333
0.380718
0.383069
0.3893
0.398961
0.411256
0.424779
0.438626
0.450287
0.459642
0.466164
0.469581
0.469863
0.467171
0.461785
0.454033
0.444251
0.43276
0.41985
0.405788
0.390812
0.375144
0.358986
0.342524
0.325931
0.309364
0.292965
0.276858
0.261151
0.24593
0.23124
0.217139
0.20367
0.190868
0.17876
0.167365
0.156701
0.146775
0.137584
0.12911
0.121318
0.114166
0.107604
0.101585
0.0960685
0.0910204
0.0864122
0.0822168
0.0784062
0.0749481
0.0718023
0.0689147
0.0662056
0.0635518
0.0607687
0.0577262
0.0548193
0.0536599
0.0575893
0.0705556
0.092603
0.114761
0.128071
0.132983
0.131413
0.12641
0.122339
0.119326
0.116196
0.112364
0.108105
0.104216
0.102015
0.102327
0.104737
0.107319
0.108143
0.10603
0.101109
0.0944448
0.0872186
0.0802515
0.0739508
0.0684512
0.0637552
0.0598378
0.0567044
0.0577478
0.203487
0.380381
0.541623
0.656588
0.744521
0.815125
0.86997
0.91058
0.936846
0.949116
0.9489
0.938737
0.921757
0.901161
0.879878
0.860429
0.849795
0.849658
0.859526
0.878196
0.903879
0.934145
0.965889
0.995472
1.01915
1.0337
1.03696
1.02789
1.00616
0.971504
0.922996
0.858211
0.779866
0.691436
0.593042
0.488657
0.385502
0.292333
0.216154
0.159557
0.120832
0.0962667
0.0827108
0.0793399
0.084376
0.0943164
0.104266
0.110645
0.113431
0.11434
0.114987
0.117681
0.12724
0.150358
0.193006
0.260853
0.328161
0.327487
0.282366
0.253584
0.241904
0.242524
0.25261
0.269613
0.290755
0.313268
0.334698
0.353248
0.367994
0.37887
0.38647
0.39182
0.396138
0.400585
0.406052
0.413018
0.421522
0.431211
0.441433
0.451366
0.459916
0.466408
0.470126
0.470448
0.466949
0.459489
0.448285
0.433957
0.41753
0.400349
0.383935
0.369786
0.359034
0.352533
0.350449
0.352615
0.358507
0.367663
0.378147
0.389198
0.399907
0.409467
0.417245
0.422832
0.426038
0.426848
0.425368
0.421767
0.416246
0.409003
0.400234
0.390119
0.378834
0.366549
0.35343
0.339644
0.325356
0.310728
0.295918
0.281075
0.266347
0.251859
0.2377
0.223968
0.210746
0.198104
0.186096
0.174761
0.164126
0.154201
0.144979
0.136439
0.128547
0.121261
0.114536
0.108327
0.102594
0.097303
0.0924256
0.0879369
0.0838133
0.0800292
0.0765517
0.073334
0.0702986
0.0673061
0.0641568
0.0607808
0.0576916
0.0565733
0.0606209
0.0727254
0.0911753
0.108407
0.119982
0.12702
0.12688
0.122537
0.119481
0.117348
0.114433
0.109859
0.104128
0.0984585
0.0943457
0.0930744
0.0942915
0.0966936
0.0983108
0.097563
0.0941375
0.0888097
0.0826699
0.0765563
0.0709197
0.0659281
0.061604
0.0579326
0.0549046
0.0836949
0.276035
0.475675
0.634666
0.744332
0.823927
0.877626
0.907315
0.914971
0.902724
0.874245
0.834395
0.788541
0.741927
0.69924
0.664314
0.6399
0.629868
0.634025
0.651385
0.680971
0.721564
0.771246
0.826924
0.884059
0.936981
0.979996
1.00877
1.02107
1.01647
0.995553
0.958545
0.904194
0.831712
0.746203
0.646498
0.535497
0.42038
0.311946
0.220945
0.153121
0.107528
0.0792668
0.0632521
0.0563349
0.0576417
0.0649385
0.0752253
0.084535
0.0909648
0.0955044
0.100338
0.108566
0.125303
0.156351
0.206552
0.277416
0.326261
0.299034
0.254821
0.233374
0.229044
0.236425
0.251994
0.272772
0.295973
0.319137
0.340365
0.358472
0.372946
0.383863
0.391845
0.397972
0.403523
0.40963
0.417019
0.425916
0.436101
0.44702
0.457905
0.467881
0.476158
0.482308
0.48556
0.485202
0.480697
0.471783
0.458558
0.44154
0.42173
0.400571
0.379759
0.36123
0.346192
0.33578
0.330091
0.328785
0.331186
0.336363
0.343556
0.352032
0.361026
0.369804
0.377727
0.38431
0.38924
0.392362
0.393641
0.393119
0.390879
0.387018
0.381642
0.374853
0.36676
0.357475
0.347118
0.335822
0.32373
0.310992
0.297767
0.284217
0.270523
0.25681
0.243218
0.229879
0.216908
0.204406
0.192457
0.181122
0.170445
0.160448
0.151132
0.142482
0.134467
0.127049
0.120185
0.113833
0.107953
0.102512
0.0974801
0.0928326
0.0885477
0.0846021
0.0809653
0.0775904
0.0743918
0.0712029
0.0677965
0.0641381
0.0608184
0.059535
0.0632154
0.0737938
0.0887965
0.102545
0.113333
0.121547
0.122688
0.119704
0.117828
0.116691
0.114043
0.108814
0.101914
0.0948868
0.089337
0.0865283
0.0867457
0.0889838
0.0912653
0.0916794
0.0894904
0.0852067
0.0798523
0.0743081
0.0690893
0.0644109
0.0603213
0.0568137
0.0538672
0.114547
0.345872
0.550735
0.699149
0.795369
0.853375
0.875974
0.867329
0.832576
0.778089
0.711202
0.639239
0.568926
0.506109
0.455523
0.420472
0.402568
0.399286
0.408747
0.430549
0.465039
0.512864
0.574279
0.648129
0.7307
0.815147
0.892661
0.955085
0.997235
1.01719
1.01578
0.994434
0.953261
0.891562
0.812607
0.71492
0.600152
0.474607
0.3501
0.241282
0.158786
0.103996
0.0711083
0.0528586
0.0440676
0.0425426
0.0468768
0.0552789
0.064806
0.0729179
0.0796483
0.0872692
0.0995311
0.121504
0.157431
0.210896
0.277106
0.305386
0.267588
0.231857
0.21875
0.22124
0.234079
0.253669
0.277078
0.301788
0.325762
0.347483
0.365886
0.380365
0.390978
0.398566
0.404525
0.41029
0.416911
0.424871
0.43414
0.444327
0.454827
0.464911
0.473786
0.481141
0.486488
0.489044
0.488049
0.482888
0.473223
0.45909
0.440908
0.419589
0.396638
0.373569
0.352856
0.335579
0.322954
0.315191
0.311364
0.310844
0.313034
0.317409
0.323469
0.330651
0.338336
0.345909
0.352841
0.358738
0.363346
0.36653
0.368238
0.368466
0.367233
0.364572
0.360521
0.355126
0.348443
0.340543
0.331518
0.321476
0.310545
0.298872
0.286619
0.273975
0.26108
0.248098
0.235188
0.222493
0.210143
0.198248
0.186895
0.176147
0.166041
0.156593
0.147795
0.139627
0.132054
0.125039
0.118542
0.112523
0.106948
0.101789
0.0970199
0.0926206
0.0885706
0.0848433
0.0813945
0.0781331
0.0748719
0.0713545
0.0675411
0.0640272
0.0624529
0.0654329
0.0741831
0.0861258
0.0973028
0.107461
0.11611
0.118542
0.117207
0.116437
0.115912
0.113515
0.10818
0.100593
0.0924522
0.0856498
0.0817146
0.0812663
0.0835454
0.0865272
0.0879904
0.0868283
0.0833331
0.0785004
0.0732796
0.0682655
0.063729
0.0597478
0.0563232
0.0534273
0.14313
0.397749
0.595185
0.727505
0.802857
0.831458
0.818666
0.773013
0.70401
0.621318
0.533759
0.448911
0.37312
0.311336
0.266698
0.240296
0.231426
0.233124
0.243335
0.26233
0.291553
0.333463
0.391093
0.466958
0.560952
0.667782
0.776648
0.874641
0.951662
1.00217
1.02601
1.02518
1.00075
0.954135
0.885781
0.794135
0.67943
0.54639
0.406512
0.277452
0.176038
0.108494
0.0691606
0.0482203
0.0380951
0.0348116
0.0370533
0.0433867
0.051847
0.060161
0.0678893
0.0772033
0.0921568
0.117326
0.155398
0.208721
0.265558
0.277637
0.239999
0.213816
0.208283
0.216451
0.233515
0.256107
0.281573
0.307747
0.332834
0.355247
0.373627
0.387268
0.396564
0.402902
0.408027
0.41338
0.419767
0.427375
0.435951
0.44501
0.453968
0.462222
0.469199
0.474943
0.478928
0.48041
0.478599
0.472797
0.462581
0.44801
0.429471
0.407697
0.38458
0.361081
0.340107
0.323086
0.310192
0.301375
0.296121
0.293811
0.293972
0.296301
0.300522
0.306256
0.312984
0.320124
0.32713
0.333563
0.339114
0.343591
0.346884
0.348931
0.3497
0.349168
0.347323
0.344159
0.339687
0.333932
0.326941
0.318784
0.309558
0.299385
0.288423
0.276838
0.264789
0.252455
0.240013
0.227632
0.215464
0.203643
0.192279
0.181457
0.171233
0.161635
0.152672
0.14433
0.136585
0.129404
0.122749
0.116584
0.110873
0.105588
0.100702
0.0961952
0.0920497
0.0882435
0.0847377
0.0814441
0.0781711
0.0746469
0.0707996
0.0671616
0.0652467
0.0673591
0.0742463
0.0835492
0.0926594
0.102009
0.11058
0.114194
0.114462
0.114596
0.114411
0.112205
0.106833
0.098824
0.0899827
0.0824103
0.0778852
0.0772639
0.0799192
0.0837209
0.0861526
0.0858136
0.0828625
0.0783178
0.0732177
0.0682407
0.0637124
0.0597388
0.0563285
0.0534482
0.162913
0.423537
0.606858
0.721425
0.774712
0.776331
0.73602
0.666563
0.580133
0.487038
0.395602
0.312722
0.243922
0.192661
0.159762
0.143659
0.141533
0.145675
0.154408
0.167885
0.187568
0.216435
0.259067
0.321323
0.408408
0.520314
0.648
0.775138
0.885854
0.968664
1.02116
1.04501
1.04181
1.01363
0.960011
0.879035
0.769348
0.633404
0.480975
0.330906
0.206221
0.120985
0.0721924
0.047454
0.0359063
0.0316739
0.0325171
0.0372541
0.0444095
0.0522014
0.0601782
0.0704391
0.0870247
0.113662
0.1519
0.202516
0.248294
0.24992
0.217636
0.199801
0.200544
0.213177
0.23343
0.258317
0.285551
0.313215
0.339404
0.362095
0.379637
0.391602
0.399056
0.403947
0.408177
0.413006
0.41893
0.425837
0.433255
0.440593
0.447279
0.452873
0.457274
0.460721
0.46278
0.462792
0.45996
0.453486
0.442768
0.427913
0.409472
0.387672
0.365209
0.343476
0.32386
0.30758
0.295195
0.286534
0.280979
0.277914
0.277005
0.278155
0.281279
0.286126
0.292245
0.299081
0.306091
0.312829
0.318974
0.324315
0.328717
0.332089
0.334359
0.335467
0.335361
0.334
0.331357
0.327424
0.32221
0.315749
0.308102
0.29936
0.289657
0.27913
0.26795
0.256302
0.244373
0.232348
0.220401
0.208688
0.19734
0.18646
0.176126
0.166382
0.15725
0.14873
0.140805
0.133449
0.126629
0.120309
0.114457
0.109041
0.104035
0.099419
0.0951753
0.0912853
0.0877159
0.0843864
0.0811149
0.0776305
0.0738243
0.0701277
0.0678764
0.0690898
0.0742458
0.0812953
0.0885939
0.0968586
0.104953
0.109447
0.111061
0.111905
0.111897
0.109715
0.104255
0.0960379
0.0869252
0.0791429
0.074634
0.0743989
0.0778153
0.0825639
0.0858551
0.0861046
0.0834504
0.0789924
0.073864
0.0688135
0.0642086
0.0601763
0.0567319
0.0538385
0.16877
0.424692
0.592257
0.691928
0.728629
0.712752
0.657758
0.578843
0.488471
0.395841
0.308216
0.232027
0.172388
0.131767
0.109387
0.101963
0.105128
0.111944
0.120603
0.130678
0.143062
0.160262
0.186753
0.229568
0.297799
0.398081
0.527497
0.670444
0.807191
0.918738
0.999294
1.04959
1.07086
1.06408
1.02893
0.963309
0.864426
0.731947
0.572467
0.403559
0.25254
0.14351
0.0804938
0.0498791
0.0364201
0.0313694
0.0313258
0.0349591
0.0409677
0.0480114
0.0558628
0.066631
0.0840728
0.11089
0.147999
0.19411
0.229182
0.225222
0.199873
0.188804
0.194366
0.210339
0.232912
0.259549
0.288326
0.317373
0.344377
0.366784
0.382917
0.392947
0.398661
0.402385
0.406002
0.410527
0.416138
0.422399
0.428576
0.433917
0.437845
0.440233
0.441718
0.442369
0.441999
0.440119
0.436003
0.428781
0.417587
0.402377
0.384336
0.364071
0.34294
0.322474
0.30424
0.289389
0.278298
0.270575
0.265478
0.262428
0.261248
0.262015
0.264762
0.269294
0.275186
0.281901
0.288923
0.295838
0.302353
0.308271
0.313458
0.317802
0.321203
0.323565
0.324805
0.324854
0.323665
0.32121
0.31748
0.312481
0.306244
0.298825
0.290311
0.28083
0.270536
0.259606
0.248233
0.236613
0.224934
0.21337
0.202073
0.191167
0.180746
0.170873
0.161584
0.152892
0.14479
0.137259
0.130272
0.123795
0.117797
0.112248
0.107119
0.102391
0.0980457
0.0940666
0.0904252
0.0870496
0.0837738
0.080339
0.076605
0.0728954
0.0703424
0.0707139
0.0743585
0.0795043
0.0851252
0.0920441
0.0993108
0.104239
0.106801
0.108142
0.108163
0.105846
0.100275
0.0920689
0.0831151
0.0756944
0.071831
0.0725494
0.0770839
0.0828378
0.0867971
0.0873473
0.0847435
0.0802167
0.0749786
0.0698119
0.0651003
0.0609812
0.0574758
0.0545478
0.16626
0.404192
0.559316
0.65202
0.68173
0.659155
0.600259
0.521549
0.434582
0.346777
0.264151
0.192823
0.138118
0.102838
0.0863344
0.0856024
0.0946744
0.105386
0.116015
0.125723
0.13492
0.145499
0.161076
0.188065
0.236432
0.316983
0.433878
0.576712
0.724244
0.856584
0.962566
1.03853
1.08425
1.1002
1.08603
1.03966
0.957329
0.835924
0.677722
0.496255
0.319303
0.1805
0.0962519
0.0559368
0.0393471
0.0333216
0.0325474
0.0353304
0.0403519
0.0466165
0.0542088
0.0652598
0.0829591
0.109067
0.144176
0.184665
0.210536
0.204396
0.18574
0.180267
0.189184
0.207327
0.231323
0.259069
0.288964
0.3191
0.346733
0.368839
0.383526
0.391886
0.396287
0.399271
0.402635
0.407161
0.412713
0.418519
0.423596
0.427014
0.428279
0.427608
0.426049
0.42376
0.420581
0.416233
0.410377
0.402108
0.390718
0.376057
0.358532
0.339039
0.318918
0.299781
0.283172
0.270087
0.260645
0.254218
0.249984
0.247462
0.24663
0.24767
0.250639
0.255322
0.261286
0.268021
0.275069
0.282086
0.28884
0.295174
0.300961
0.306072
0.31037
0.313716
0.31599
0.317101
0.316996
0.315647
0.31305
0.309208
0.304136
0.297847
0.290416
0.281929
0.27251
0.262319
0.251539
0.24037
0.229008
0.217643
0.206442
0.195549
0.185074
0.1751
0.165676
0.156829
0.148563
0.140867
0.133717
0.127088
0.120946
0.115263
0.110012
0.105171
0.100723
0.096652
0.0929339
0.0895053
0.0862177
0.0828285
0.0791734
0.0754784
0.0726713
0.0723022
0.0746906
0.0782629
0.0823116
0.0876967
0.0938215
0.098666
0.10169
0.103265
0.103172
0.100623
0.0949818
0.087035
0.0786754
0.0721829
0.0695766
0.0717627
0.0776676
0.0843459
0.0886622
0.0891739
0.0863958
0.0817119
0.0763622
0.0711072
0.0663124
0.0621132
0.0585381
0.0555583
0.160507
0.381131
0.512173
0.605354
0.636326
0.616519
0.562994
0.491664
0.413312
0.334283
0.259595
0.194578
0.144012
0.110455
0.0934324
0.0913645
0.100509
0.112996
0.125221
0.1355
0.143784
0.151584
0.161728
0.179381
0.213161
0.274573
0.372638
0.504378
0.652564
0.795747
0.918686
1.0144
1.08098
1.11816
1.12533
1.10041
1.03918
0.936364
0.789708
0.606455
0.409844
0.238404
0.124206
0.0674847
0.0450946
0.0374188
0.035782
0.0377613
0.0418616
0.047383
0.0547183
0.0658813
0.0832884
0.108092
0.140521
0.174897
0.193521
0.18733
0.174507
0.173332
0.184492
0.203851
0.228543
0.25687
0.287444
0.318201
0.345989
0.367575
0.381499
0.389032
0.392815
0.395502
0.398864
0.403532
0.409117
0.414548
0.418622
0.420274
0.419198
0.415991
0.411841
0.406856
0.401014
0.394355
0.386647
0.377187
0.365251
0.350501
0.333205
0.314256
0.295052
0.277254
0.262347
0.251115
0.243382
0.238331
0.235151
0.233508
0.2335
0.235314
0.238932
0.244067
0.25027
0.257086
0.264154
0.271236
0.278187
0.284896
0.291242
0.297062
0.302165
0.306352
0.309449
0.311338
0.311963
0.31132
0.30944
0.306359
0.302096
0.296668
0.290122
0.282501
0.273892
0.264421
0.254251
0.243567
0.232569
0.221451
0.210396
0.19956
0.189074
0.179033
0.169505
0.160529
0.152119
0.144273
0.136975
0.130202
0.123924
0.118113
0.112743
0.107792
0.103243
0.0990808
0.0952849
0.0918008
0.0884975
0.0851494
0.0815724
0.0779085
0.0748994
0.0739023
0.0752874
0.0776123
0.0802296
0.0839933
0.0887178
0.0929701
0.0959415
0.0974441
0.0970983
0.0942846
0.0886898
0.0812909
0.0739605
0.0689374
0.0681435
0.0721953
0.0795409
0.0868652
0.0910987
0.0912128
0.0880949
0.0832511
0.0778666
0.0726124
0.0678003
0.0635539
0.0599124
0.056864
0.152544
0.401909
0.468017
0.546176
0.587938
0.581293
0.540492
0.481853