/*--------------------------------*- C++ -*----------------------------------*\
  =========                 |
  \\      /  F ield         | OpenFOAM: The Open Source CFD Toolbox
   \\    /   O peration     | Website:  https://openfoam.org
    \\  /    A nd           | Version:  9
     \\/     M anipulation  |
\*---------------------------------------------------------------------------*/
FoamFile
{
    format      ascii;
    class       volScalarField;
    location    "0.18";
    object      kU;
}
// * * * * * * * * * * * * * * * * * * * * * * * * * * * * * * * * * * * * * //

dimensions      [0 2 -2 0 0 0 0];

internalField   nonuniform List<scalar> 
12225
(
0.0849401
0.0641362
0.0497864
0.0400896
0.0338119
0.0300709
0.0282001
0.0276668
0.0280316
0.0289334
0.0300796
0.031329
0.0328674
0.034482
0.0360979
0.0377224
0.0395027
0.041661
0.104772
0.0974046
0.0930457
0.0921388
0.0944926
0.099633
0.106881
0.115426
0.124423
0.133108
0.140847
0.147057
0.151224
0.153384
0.153577
0.151825
0.148002
0.141742
0.108598
0.104448
0.100792
0.0978207
0.0956561
0.0943043
0.0936763
0.0936183
0.0939368
0.0944265
0.094901
0.0952789
0.0954952
0.0954574
0.0951246
0.0944955
0.0936051
0.0925479
0.109686
0.10653
0.10347
0.100648
0.0981508
0.0960115
0.0942133
0.0927085
0.091434
0.0903283
0.0893412
0.0884451
0.0876226
0.0868662
0.0861852
0.0856143
0.0852268
0.0851514
0.110098
0.107492
0.104913
0.102436
0.100113
0.0979759
0.0960354
0.0942855
0.0927137
0.0912992
0.0900242
0.0888789
0.0878602
0.0869742
0.0862396
0.0856932
0.0853983
0.0854372
0.110256
0.107933
0.105662
0.103466
0.10137
0.0993961
0.0975555
0.0958549
0.0942912
0.0928604
0.0915597
0.0903889
0.089352
0.08846
0.0877329
0.0872029
0.0869172
0.0869192
0.110314
0.108121
0.106022
0.104012
0.102096
0.100282
0.0985775
0.096985
0.0955054
0.09414
0.0928909
0.0917619
0.0907602
0.0898976
0.089192
0.0886681
0.0883563
0.0882729
0.110333
0.108193
0.106178
0.104273
0.102471
0.100773
0.0991755
0.0976795
0.096285
0.0949933
0.0938071
0.092731
0.0917721
0.0909409
0.0902515
0.089721
0.0893661
0.0891883
0.110338
0.108218
0.106237
0.104382
0.102642
0.10101
0.0994814
0.0980527
0.0967219
0.0954888
0.0943547
0.0933231
0.0923992
0.0915909
0.0909077
0.0903597
0.0899542
0.0896861
0.11034
0.108224
0.106255
0.10442
0.102707
0.101107
0.0996144
0.0982234
0.0969302
0.0957329
0.0946311
0.0936263
0.0927217
0.0919219
0.0912325
0.0906581
0.0902004
0.0898529
0.11034
0.108225
0.106259
0.104429
0.102725
0.101137
0.0996592
0.0982842
0.0970076
0.0958261
0.0947382
0.0937435
0.0928431
0.0920389
0.0913332
0.090727
0.090219
0.0898037
0.11034
0.108225
0.106258
0.104429
0.102726
0.10114
0.099665
0.0982932
0.0970199
0.095841
0.0947539
0.0937572
0.0928502
0.0920331
0.0913057
0.0906671
0.0901145
0.089644
0.11034
0.108224
0.106257
0.104426
0.102722
0.101135
0.0996586
0.0982851
0.0970095
0.0958272
0.094735
0.0937305
0.0928118
0.0919778
0.0912269
0.0905568
0.0899643
0.0894472
0.11034
0.108224
0.106256
0.104423
0.102717
0.101127
0.0996464
0.0982683
0.0969869
0.0957973
0.0946956
0.0936787
0.0927438
0.0918886
0.0911108
0.0904071
0.0897744
0.0892121
0.11034
0.108224
0.106254
0.10442
0.102711
0.101117
0.0996319
0.0982477
0.0969585
0.0957593
0.0946456
0.0936135
0.0926598
0.0917814
0.0909752
0.0902378
0.0895662
0.0889614
0.11034
0.108224
0.106254
0.104417
0.102705
0.101108
0.099617
0.0982259
0.0969282
0.0957183
0.0945914
0.0935433
0.09257
0.0916682
0.0908343
0.090065
0.0893573
0.0887138
0.110341
0.108225
0.106253
0.104415
0.1027
0.101099
0.0996026
0.0982045
0.0968979
0.0956772
0.0945371
0.0934731
0.0924811
0.0915572
0.0906977
0.0898994
0.0891596
0.0884816
0.110341
0.108225
0.106253
0.104413
0.102696
0.10109
0.099589
0.0981842
0.0968693
0.0956383
0.0944859
0.0934074
0.0923983
0.0914547
0.0905728
0.0897494
0.0889818
0.0882742
0.110341
0.108225
0.106252
0.104411
0.102691
0.101082
0.0995761
0.0981653
0.0968428
0.0956028
0.0944398
0.0933488
0.0923253
0.0913654
0.0904653
0.0896215
0.0888315
0.0881003
0.110341
0.108225
0.106252
0.104409
0.102687
0.101076
0.0995665
0.0981515
0.0968239
0.0955778
0.0944076
0.0933082
0.0922753
0.0913045
0.0903922
0.0895348
0.0887299
0.0879827
0.110341
0.108225
0.106251
0.104408
0.102685
0.101072
0.09956
0.0981423
0.0968115
0.0955613
0.0943863
0.0932814
0.0922419
0.0912636
0.0903427
0.0894756
0.08866
0.087901
0.110341
0.108224
0.10625
0.104406
0.102682
0.101066
0.0995522
0.0981309
0.0967954
0.0955395
0.0943574
0.093244
0.0921947
0.0912051
0.0902713
0.0893899
0.0885584
0.0877824
0.110341
0.108224
0.106248
0.104401
0.102672
0.10105
0.099527
0.098094
0.0967443
0.0954714
0.0942699
0.0931345
0.0920608
0.0910447
0.0900825
0.0891709
0.0883076
0.087499
0.11034
0.108219
0.106236
0.104375
0.102626
0.100978
0.0994214
0.0979494
0.0965555
0.0952344
0.0939813
0.0927922
0.0916633
0.0905913
0.0895732
0.0886062
0.0876884
0.0868267
0.110335
0.108194
0.106173
0.104257
0.102438
0.100707
0.0990588
0.0974908
0.0959995
0.0945823
0.0932366
0.0919599
0.0907496
0.0896033
0.088518
0.087491
0.08652
0.0856113
0.110302
0.108074
0.105922
0.103844
0.101845
0.0999301
0.0981057
0.0963761
0.0947436
0.093209
0.0917715
0.0904293
0.0891793
0.0880177
0.0869399
0.0859404
0.0850144
0.0841631
0.110153
0.107638
0.105142
0.102714
0.100396
0.0982188
0.0962038
0.0943613
0.0926962
0.0912094
0.0898981
0.0887565
0.0877763
0.0869468
0.0862555
0.0856888
0.0852323
0.0848739
0.109587
0.106311
0.103108
0.10013
0.0974813
0.0952171
0.0933546
0.0918979
0.0908469
0.0901991
0.0899482
0.0900842
0.090593
0.0914551
0.0926459
0.0941355
0.0958898
0.0978645
0.10727
0.101424
0.096489
0.0929197
0.0908363
0.0902476
0.0911285
0.0934364
0.097115
0.102095
0.108294
0.115611
0.123928
0.13311
0.143007
0.153457
0.1643
0.175316
0.0944157
0.0791978
0.0672974
0.0579363
0.05058
0.0448436
0.0404443
0.0371695
0.0348551
0.0333729
0.0326199
0.032512
0.0329776
0.0339538
0.0353831
0.0372105
0.0393826
0.0418385
0.0110507
0.0186562
0.0198561
0.0206819
0.0216301
0.0227724
0.0241271
0.0256737
0.0274828
0.0296466
0.032237
0.0352299
0.038423
0.0413679
0.0434883
0.0462952
0.0500756
0.0557504
0.0619201
0.0683718
0.0748634
0.0814799
0.08843
0.0958813
0.104465
0.11314
0.121669
0.129896
0.137784
0.145335
0.152593
0.159657
0.166711
0.174052
0.182103
0.1914
0.202373
0.214398
0.224257
0.2283
0.223176
0.205701
0.174767
0.133875
0.0925243
0.0604219
0.0386995
0.0260915
0.020736
0.0194587
0.0198529
0.020588
0.021337
0.0221382
0.0230974
0.0240707
0.0243348
0.0235848
0.0220617
0.0205812
0.0201783
0.0217537
0.0261164
0.0352247
0.0469587
0.0564192
0.0656479
0.0800456
0.112645
0.177725
0.240631
0.29631
0.342408
0.378249
0.404172
0.42103
0.429909
0.431968
0.42835
0.420134
0.408302
0.393713
0.377072
0.359474
0.341749
0.324042
0.306492
0.289223
0.272339
0.255925
0.240047
0.224755
0.210081
0.196036
0.182614
0.169787
0.15751
0.145724
0.134366
0.123379
0.112727
0.102411
0.0925217
0.0833499
0.0761422
0.0748636
0.076691
0.0790159
0.0817104
0.0848228
0.0884147
0.0925292
0.0971792
0.102339
0.107943
0.113882
0.120011
0.126147
0.132132
0.137739
0.141889
0.143718
0.142872
0.139133
0.132472
0.123078
0.111323
0.097571
0.081498
0.0612273
0.0422662
0.028899
0.0202873
0.0154869
0.0134001
0.0130071
0.013511
0.0143528
0.0151662
0.0157307
0.0159425
0.0158032
0.0154239
0.0148914
0.0141508
0.0132291
0.0122059
0.0111992
0.0103466
0.00979384
0.0096973
0.0103095
0.0120336
0.0154476
0.0211766
0.0291723
0.0368432
0.0334368
0.0326528
0.0344136
0.0362375
0.0380214
0.0397979
0.0416387
0.043242
0.0444746
0.0451547
0.0450228
0.0437942
0.0413027
0.0384942
0.0379367
0.0420543
0.0595354
0.0765659
0.093763
0.110932
0.121313
0.118309
0.0979288
0.0138071
0.0256582
0.0223331
0.0204766
0.0213789
0.0242087
0.0280613
0.0327619
0.038603
0.0458019
0.054476
0.0646321
0.0762472
0.089312
0.103952
0.119643
0.136207
0.152519
0.168396
0.183618
0.197961
0.21124
0.223286
0.23382
0.242559
0.249179
0.253233
0.254265
0.252433
0.247785
0.240415
0.230515
0.218383
0.204444
0.189294
0.173843
0.159277
0.146513
0.137111
0.131664
0.128859
0.126625
0.123117
0.117691
0.110311
0.0995125
0.083573
0.0638966
0.0458706
0.0333707
0.0257965
0.0213532
0.0195696
0.0203139
0.0227222
0.026032
0.02902
0.0300905
0.0286773
0.0258822
0.0235803
0.0239234
0.0290786
0.0422134
0.0654539
0.0928656
0.113406
0.12498
0.13695
0.149036
0.156807
0.160419
0.160773
0.15901
0.15619
0.153141
0.150433
0.148409
0.147255
0.147072
0.147923
0.149855
0.152929
0.15655
0.160123
0.163659
0.167178
0.1707
0.174249
0.177845
0.181498
0.18521
0.188955
0.192679
0.196287
0.199637
0.202533
0.204734
0.205964
0.205939
0.204396
0.201126
0.195987
0.188936
0.179919
0.170536
0.16118
0.151551
0.14186
0.132292
0.122992
0.114061
0.105562
0.0975291
0.0899666
0.0828624
0.0761918
0.0699213
0.0640195
0.0584689
0.0535889
0.0494964
0.0460786
0.0431787
0.0406407
0.0382978
0.0360014
0.0336811
0.031471
0.0301612
0.0291508
0.0289869
0.030067
0.032542
0.0362599
0.040805
0.0456187
0.0501449
0.0539328
0.0566712
0.0581693
0.0583127
0.0570123
0.0542521
0.0502352
0.0452451
0.0396202
0.0337257
0.0280265
0.0230511
0.0192404
0.0168716
0.0162039
0.0183088
0.0264325
0.0446774
0.065674
0.0581388
0.0472823
0.0439807
0.044938
0.047583
0.0506912
0.0537351
0.0569671
0.0601217
0.0627376
0.064154
0.0635766
0.060141
0.0543829
0.0484528
0.0423696
0.0366006
0.031794
0.0278055
0.0246119
0.0244507
0.0275749
0.0300645
0.0130562
0.0260237
0.0251643
0.025876
0.031115
0.0410311
0.0523579
0.0643063
0.0774121
0.0916328
0.10691
0.12313
0.14008
0.157489
0.17502
0.192292
0.208931
0.224565
0.239095
0.252445
0.26452
0.2752
0.284337
0.291738
0.29717
0.300361
0.300985
0.29859
0.292899
0.2841
0.27239
0.258051
0.241517
0.223395
0.204429
0.185452
0.167388
0.151203
0.137641
0.12683
0.118405
0.111106
0.104399
0.0985224
0.0938525
0.0899167
0.0848391
0.0761431
0.063227
0.0486886
0.0359245
0.0266903
0.0212028
0.0191764
0.0204666
0.0240414
0.0287396
0.0326608
0.0339391
0.0331542
0.033896
0.042286
0.0617457
0.0866257
0.102175
0.106465
0.108994
0.111464
0.114743
0.118056
0.120799
0.123418
0.126323
0.129663
0.133332
0.13711
0.140813
0.144364
0.147778
0.151108
0.154388
0.15761
0.160739
0.163824
0.166842
0.169789
0.172681
0.175555
0.178465
0.181472
0.184645
0.188039
0.19169
0.195596
0.199701
0.203885
0.207951
0.211627
0.214581
0.216447
0.216867
0.215536
0.212218
0.206733
0.199138
0.190929
0.181965
0.172419
0.162559
0.152612
0.142757
0.133135
0.123851
0.114976
0.106554
0.0986077
0.091145
0.0841575
0.077627
0.0715284
0.0658187
0.0604033
0.0552361
0.050318
0.0456457
0.0412376
0.0371298
0.0333726
0.0300417
0.0272495
0.0249956
0.0232844
0.0221277
0.0215322
0.0214921
0.0219842
0.0229568
0.0243139
0.0259109
0.0275678
0.0290943
0.0303105
0.0310534
0.0311865
0.0306215
0.0293359
0.0273791
0.0248698
0.021979
0.0190004
0.0164326
0.0149703
0.0155833
0.0205474
0.0331091
0.0517729
0.0594749
0.0514269
0.045535
0.044715
0.0455445
0.0467924
0.0483168
0.0500607
0.0521566
0.0544453
0.0566062
0.0580878
0.0581016
0.0556365
0.0514452
0.0466096
0.0415082
0.0366662
0.0323698
0.0286897
0.0255802
0.0228928
0.0206281
0.0191819
0.0117105
0.0263858
0.0313206
0.040375
0.0577086
0.0760787
0.0914524
0.106934
0.123123
0.140005
0.157433
0.175138
0.192786
0.210002
0.226432
0.241771
0.255836
0.268553
0.27995
0.290048
0.298824
0.306207
0.312073
0.316251
0.318537
0.318688
0.316429
0.311443
0.30333
0.291741
0.277343
0.260318
0.241057
0.220184
0.198535
0.177057
0.156699
0.13832
0.122612
0.110109
0.101173
0.0957225
0.0915
0.0869991
0.082395
0.078408
0.0750768
0.0711356
0.0648267
0.0557052
0.0452782
0.0357473
0.0286449
0.0245919
0.0239217
0.0268185
0.0323129
0.0386906
0.0435104
0.0476362
0.0583326
0.0763565
0.0930068
0.0979252
0.0975152
0.0967732
0.0977384
0.1004
0.104424
0.109279
0.114619
0.120203
0.125665
0.130638
0.134918
0.138513
0.141584
0.144325
0.146875
0.149296
0.15158
0.153689
0.155676
0.157558
0.15929
0.160842
0.162222
0.163475
0.164683
0.165958
0.167431
0.169236
0.171491
0.174279
0.177625
0.181474
0.185677
0.189983
0.19405
0.197477
0.199831
0.200729
0.199818
0.196775
0.192165
0.18642
0.179628
0.172047
0.163927
0.155485
0.146903
0.13833
0.129886
0.121662
0.113726
0.106125
0.0988899
0.0920394
0.0855794
0.0795083
0.0738129
0.0684565
0.0633692
0.0585284
0.0539049
0.0494886
0.0452942
0.0413565
0.0377229
0.0344414
0.0315387
0.0290205
0.0268796
0.0250994
0.0236585
0.0225361
0.0217132
0.0211679
0.0208686
0.0207686
0.0208067
0.0209109
0.0210032
0.021003
0.020832
0.0204224
0.0197226
0.0186911
0.01732
0.0157655
0.0145019
0.0143175
0.0166535
0.0238697
0.0369285
0.0497408
0.0513219
0.0465255
0.043567
0.0427197
0.0424201
0.0424375
0.0427657
0.0434402
0.0444869
0.0459086
0.0475563
0.0490097
0.0495085
0.0481147
0.0453491
0.0417131
0.0377231
0.0338449
0.0303404
0.0273102
0.024759
0.0226322
0.020777
0.0190237
0.0106133
0.0279128
0.0414802
0.0636817
0.0919572
0.113805
0.132093
0.15018
0.168025
0.185769
0.203306
0.220294
0.236343
0.25113
0.264441
0.276163
0.286329
0.29518
0.302908
0.309628
0.31536
0.320034
0.323499
0.325546
0.325932
0.324392
0.320651
0.314426
0.305418
0.293247
0.277367
0.258945
0.23812
0.215366
0.191455
0.167451
0.144595
0.124045
0.106583
0.0925037
0.0818475
0.0747985
0.0716873
0.070496
0.0692978
0.0673128
0.0648381
0.0621778
0.0588319
0.0540134
0.047694
0.0408559
0.0349015
0.0310866
0.0301784
0.0331234
0.0400613
0.0500518
0.060718
0.0738688
0.0858693
0.092006
0.0919557
0.0896181
0.08826
0.0891398
0.0922848
0.0971314
0.103026
0.109302
0.115367
0.120724
0.125051
0.128296
0.130646
0.1324
0.133849
0.135213
0.136622
0.138128
0.139718
0.141333
0.14292
0.144309
0.145397
0.146121
0.146472
0.1465
0.14631
0.146058
0.145933
0.146144
0.14689
0.148338
0.150593
0.153675
0.157497
0.161853
0.166418
0.170788
0.174499
0.177126
0.178203
0.177595
0.175586
0.172311
0.167941
0.162682
0.156739
0.150297
0.143521
0.136549
0.129498
0.122462
0.115521
0.108735
0.102153
0.095812
0.0897384
0.0839481
0.0784485
0.0732373
0.0682912
0.0635946
0.0591326
0.0548911
0.0508629
0.0470535
0.0434817
0.0401753
0.0371588
0.0344433
0.0320246
0.0298865
0.0280061
0.0263604
0.0249298
0.0236985
0.0226514
0.0217713
0.0210359
0.0204182
0.0198869
0.0194073
0.0189402
0.0184429
0.0178692
0.0171602
0.0162578
0.0152424
0.0145508
0.0151166
0.0184762
0.0263955
0.0375195
0.0454127
0.0457571
0.0433417
0.0414083
0.040172
0.0392841
0.0386652
0.0382623
0.0381482
0.0383427
0.0390032
0.0401275
0.0414223
0.0421627
0.0415652
0.0397447
0.0370164
0.0338629
0.0307076
0.0278049
0.0252648
0.023115
0.0213377
0.0198887
0.0186434
0.0105083
0.0326377
0.0588491
0.0948925
0.128354
0.152309
0.173094
0.192427
0.210588
0.227766
0.243722
0.258095
0.2706
0.281107
0.289644
0.296367
0.301497
0.305878
0.309912
0.313777
0.317467
0.320818
0.323547
0.325292
0.325661
0.32427
0.320778
0.31489
0.306336
0.294805
0.279879
0.260968
0.239512
0.215742
0.190193
0.163805
0.137964
0.114225
0.0938826
0.0776055
0.0653694
0.0568253
0.0518698
0.0508545
0.0518633
0.0531697
0.0534292
0.0525127
0.0508102
0.0483814
0.0450981
0.0412004
0.0375343
0.0354582
0.0363784
0.0410732
0.0512
0.0671056
0.085381
0.0936433
0.0906894
0.086655
0.0832938
0.08176
0.0827715
0.0861899
0.091407
0.0976353
0.104085
0.110046
0.114988
0.118649
0.121067
0.122505
0.123334
0.123917
0.124549
0.125427
0.126645
0.128209
0.130047
0.132036
0.133832
0.135201
0.13601
0.136184
0.135717
0.134676
0.133205
0.13151
0.129844
0.128481
0.12769
0.1277
0.128674
0.130682
0.133687
0.13753
0.141917
0.146461
0.150725
0.154264
0.15654
0.157575
0.157418
0.15612
0.153793
0.150579
0.146631
0.142092
0.137094
0.131755
0.126176
0.120445
0.114637
0.108819
0.103046
0.0973667
0.0918201
0.0864389
0.0812486
0.0762669
0.0714988
0.0669434
0.0626035
0.058479
0.0545693
0.0508757
0.0474031
0.0441601
0.0411558
0.0383948
0.0358751
0.0335872
0.0315161
0.0296447
0.0279566
0.0264383
0.0250779
0.0238645
0.022786
0.0218283
0.0209751
0.0202075
0.0195026
0.0188315
0.0181571
0.0174248
0.0165798
0.0157082
0.0152633
0.0162347
0.0200655
0.0276042
0.0362887
0.0415126
0.0422142
0.0411124
0.0394706
0.0381058
0.0370841
0.0361991
0.0353476
0.0345979
0.0340656
0.034039
0.0346369
0.0356708
0.0364952
0.0364017
0.0352544
0.0332246
0.0307168
0.0281178
0.0256757
0.0235058
0.0216422
0.0200795
0.0188018
0.0177888
0.0124334
0.0433978
0.0843061
0.129408
0.164106
0.189898
0.212057
0.231313
0.248226
0.262788
0.274712
0.283828
0.29019
0.294081
0.295924
0.296204
0.295402
0.295196
0.296196
0.298508
0.301966
0.306201
0.310685
0.314771
0.317767
0.319015
0.317979
0.31428
0.307668
0.297927
0.284765
0.267619
0.246262
0.222251
0.195797
0.167511
0.138777
0.111521
0.0876555
0.0684245
0.0540852
0.0441206
0.0378199
0.0348831
0.035378
0.0377502
0.0403758
0.0418801
0.0420589
0.0413619
0.0401231
0.0385671
0.0372859
0.0376197
0.0413654
0.049704
0.0646127
0.0870924
0.100021
0.0928361
0.0837797
0.0786121
0.0765841
0.0774397
0.0808328
0.0861018
0.0924298
0.0989851
0.105032
0.11004
0.113765
0.116255
0.117772
0.11869
0.119393
0.120206
0.121356
0.122949
0.12498
0.127344
0.129866
0.132302
0.134254
0.13552
0.135949
0.135449
0.134012
0.131722
0.12876
0.125395
0.12196
0.118814
0.1163
0.1147
0.114215
0.114921
0.11679
0.119688
0.123377
0.127434
0.131588
0.135086
0.137893
0.139849
0.140874
0.140959
0.140151
0.138535
0.13621
0.133275
0.129828
0.125955
0.121736
0.117244
0.112543
0.107696
0.102757
0.0977792
0.0928092
0.0878894
0.0830573
0.0783454
0.073779
0.0693719
0.0651416
0.0611011
0.0572605
0.0536279
0.0502095
0.0470102
0.0440325
0.0412752
0.0387329
0.0363955
0.0342498
0.0322812
0.0304755
0.0288205
0.0273061
0.0259236
0.024665
0.0235219
0.0224844
0.0215407
0.0206744
0.0198617
0.0190655
0.0182306
0.0173179
0.0164458
0.016098
0.0172768
0.0211667
0.0277809
0.0344282
0.0384213
0.039895
0.039424
0.0379229
0.0367017
0.0357977
0.0348588
0.0337093
0.0324315
0.0312648
0.0306045
0.030698
0.0314211
0.0321958
0.0324429
0.0318089
0.0303328
0.0283334
0.0261656
0.0240754
0.0221852
0.0205354
0.0191266
0.0179513
0.0170113
0.0173243
0.0610461
0.114114
0.162487
0.196976
0.223356
0.244538
0.260991
0.273174
0.281054
0.284735
0.28467
0.281621
0.276527
0.270348
0.263963
0.258129
0.254939
0.254897
0.257858
0.263459
0.271164
0.280244
0.289767
0.298642
0.305745
0.31011
0.311088
0.308367
0.301847
0.291451
0.276899
0.257463
0.23396
0.207431
0.177913
0.146597
0.115651
0.0876998
0.0648462
0.0478672
0.0362495
0.02888
0.0248133
0.023802
0.0253128
0.0282949
0.0312797
0.0331935
0.0340293
0.0343019
0.034496
0.0353044
0.038172
0.0451073
0.0579018
0.0782559
0.0984484
0.098246
0.0847099
0.0760752
0.0725712
0.0727572
0.075783
0.0808838
0.0872265
0.0939803
0.10041
0.105975
0.110398
0.113661
0.115941
0.117546
0.118841
0.120176
0.121816
0.123905
0.126457
0.129363
0.13243
0.13541
0.137975
0.139923
0.141038
0.141134
0.140085
0.137847
0.134485
0.130187
0.125259
0.120105
0.115181
0.110936
0.10771
0.10576
0.105135
0.105785
0.107552
0.110299
0.113444
0.11676
0.119972
0.12284
0.125173
0.12685
0.127811
0.128055
0.12761
0.12653
0.124874
0.122701
0.12007
0.117036
0.11365
0.109965
0.106029
0.101893
0.0976067
0.0932185
0.0887754
0.0843225
0.0799042
0.0755577
0.0713099
0.0671903
0.0632239
0.0594313
0.0558288
0.0524284
0.0492378
0.0462602
0.0434936
0.0409316
0.0385641
0.0363783
0.0343608
0.032498
0.0307781
0.0291909
0.0277277
0.0263811
0.025144
0.0240088
0.0229655
0.0220002
0.0210896
0.0201918
0.019247
0.0182342
0.0173075
0.016972
0.0181863
0.0218176
0.0273526
0.032522
0.0359946
0.0381059
0.038064
0.036761
0.0358444
0.0352044
0.03433
0.0329576
0.0312384
0.0295375
0.0283037
0.0279223
0.0282874
0.0290081
0.0294932
0.0292689
0.0282413
0.0266429
0.024801
0.0229669
0.0212759
0.0197784
0.0184812
0.0173798
0.0164714
0.0251085
0.0828105
0.142702
0.1904
0.2233
0.247178
0.263288
0.272195
0.274491
0.270817
0.262273
0.250319
0.236562
0.222578
0.209772
0.199294
0.19197
0.188961
0.190208
0.195415
0.204291
0.216469
0.231374
0.248077
0.265218
0.281094
0.293999
0.30263
0.306321
0.304942
0.298666
0.287563
0.271258
0.249514
0.223861
0.193949
0.160649
0.126114
0.0935839
0.0662834
0.0459364
0.0322584
0.02378
0.0189756
0.0169005
0.0172925
0.0194815
0.0225676
0.0253605
0.0272894
0.0286513
0.0301014
0.0325697
0.037591
0.0469052
0.0619655
0.0832249
0.0978784
0.0897103
0.0764463
0.0700123
0.0687132
0.0709276
0.0755982
0.0818317
0.0887919
0.095741
0.10211
0.107541
0.111884
0.115159
0.117553
0.119392
0.121057
0.122889
0.125106
0.127775
0.13083
0.134106
0.137371
0.140364
0.142847
0.144692
0.145668
0.145561
0.144209
0.141535
0.137567
0.132462
0.126519
0.120171
0.113928
0.108369
0.103858
0.100734
0.0990273
0.0986354
0.0993557
0.100909
0.103067
0.10561
0.108308
0.110941
0.113318
0.115293
0.116772
0.117709
0.118092
0.117936
0.117264
0.116105
0.114492
0.112456
0.110028
0.107243
0.104136
0.100747
0.0971189
0.0932976
0.0893301
0.0852651
0.0811569
0.077043
0.0729655
0.0689637
0.0650724
0.0613219
0.057737
0.0543366
0.0511336
0.0481344
0.0453397
0.0427446
0.0403401
0.0381146
0.0360555
0.0341499
0.032386
0.0307537
0.029244
0.0278498
0.0265643
0.0253806
0.0242896
0.0232771
0.0223175
0.0213609
0.020339
0.0192414
0.0182455
0.0178605
0.0189646
0.0221381
0.026639
0.0307635
0.0339999
0.0364641
0.0368063
0.0359113
0.0353485
0.0350074
0.034213
0.0326442
0.0305742
0.028466
0.0268011
0.0259585
0.0260237
0.0266951
0.0273796
0.0275038
0.0268471
0.025562
0.0239557
0.0222924
0.0207268
0.0193233
0.0180964
0.0170441
0.0161601
0.0343641
0.103762
0.16522
0.209745
0.238611
0.256013
0.262792
0.260199
0.249773
0.233427
0.213361
0.191772
0.170678
0.151833
0.136657
0.126142
0.12077
0.119786
0.122624
0.129165
0.139512
0.153859
0.172284
0.194439
0.21921
0.244544
0.267798
0.286526
0.29917
0.305158
0.304733
0.29833
0.285978
0.267469
0.243782
0.214476
0.180046
0.142382
0.10503
0.0723847
0.0476359
0.0311987
0.0213325
0.0158576
0.0132203
0.0127628
0.014063
0.0165837
0.0194418
0.0218754
0.0238945
0.0261808
0.0298593
0.0364512
0.0472292
0.0632688
0.0831318
0.0916158
0.0802764
0.0695572
0.0656251
0.0663719
0.0702237
0.0761008
0.0831233
0.0905363
0.0977286
0.104245
0.109766
0.11411
0.117293
0.11957
0.121357
0.123087
0.125073
0.127461
0.130242
0.133298
0.136448
0.139473
0.142136
0.144342
0.145946
0.146713
0.146415
0.144866
0.141967
0.137727
0.132272
0.125877
0.118991
0.112071
0.105857
0.100674
0.0968863
0.0945573
0.0934091
0.0932533
0.0939101
0.0952227
0.0970406
0.0991954
0.101501
0.103773
0.105852
0.107621
0.109004
0.109959
0.110471
0.11054
0.11017
0.109372
0.108156
0.106538
0.104533
0.102163
0.0994554
0.0964427
0.0931635
0.0896615
0.0859858
0.0821926
0.0783239
0.0744295
0.0705563
0.0667479
0.0630429
0.0594745
0.0560686
0.0528441
0.0498124
0.0469778
0.0443386
0.041888
0.0396163
0.0375118
0.0355625
0.0337568
0.0320845
0.0305367
0.029106
0.0277862
0.0265712
0.025453
0.0244183
0.0234399
0.0224616
0.0214064
0.0202623
0.0192082
0.0187359
0.0196299
0.0222549
0.0258377
0.0291909
0.0322382
0.0348331
0.0355625
0.0351622
0.034931
0.0347736
0.0340546
0.0324539
0.0301778
0.0277356
0.0256949
0.0245144
0.0243799
0.0250636
0.0259581
0.0263971
0.0260485
0.0249999
0.0235501
0.0219839
0.0204796
0.0191187
0.0179243
0.016897
0.0160282
0.042939
0.119325
0.178555
0.218252
0.240857
0.249437
0.2456
0.231904
0.211203
0.186395
0.160128
0.134673
0.111936
0.0934007
0.0800095
0.0720889
0.0694278
0.0699372
0.0730004
0.078699
0.0874659
0.100039
0.117328
0.140087
0.168286
0.200335
0.232994
0.262392
0.285499
0.30065
0.307802
0.307554
0.300226
0.286241
0.265734
0.23824
0.203829
0.163917
0.121954
0.0832356
0.0528115
0.0325483
0.0207482
0.0144661
0.0114285
0.0104435
0.011116
0.013016
0.0155541
0.0180483
0.0203668
0.023161
0.027647
0.0351978
0.0466193
0.0626164
0.0796673
0.083291
0.0719996
0.0641447
0.062485
0.0649352
0.0700545
0.0768321
0.0844719
0.0923241
0.0998503
0.106574
0.112088
0.11618
0.118969
0.120871
0.122408
0.124014
0.12593
0.128212
0.130785
0.133503
0.13619
0.138667
0.14076
0.142483
0.143678
0.144123
0.14358
0.141839
0.138774
0.134403
0.128841
0.122309
0.115374
0.108324
0.102032
0.0969257
0.0930577
0.0904126
0.0888363
0.0881433
0.0881916
0.0888902
0.0901567
0.0918768
0.0938951
0.0960371
0.0981389
0.100069
0.101734
0.103077
0.104065
0.104679
0.10491
0.104751
0.104197
0.103248
0.101906
0.10018
0.0980822
0.0956351
0.0928673
0.0898156
0.0865269
0.0830514
0.0794366
0.0757365
0.072004
0.0682895
0.0646391
0.0610928
0.0576838
0.0544372
0.0513698
0.0484905
0.0458015
0.0432991
0.0409756
0.0388212
0.0368248
0.0349751
0.033262
0.0316763
0.0302106
0.0288586
0.0276149
0.026473
0.0254213
0.0244332
0.0234513
0.0223941
0.0212399
0.0201485
0.019574
0.0202077
0.0222739
0.0250647
0.0277978
0.0306027
0.0331741
0.0342581
0.0343387
0.0343789
0.0343234
0.0336614
0.0320498
0.0296472
0.0269948
0.0247231
0.0233655
0.0231792
0.0239758
0.0251163
0.0258458
0.0257441
0.0248587
0.0234954
0.0219653
0.0204722
0.0191137
0.0179216
0.0168985
0.0160345
0.0488739
0.127061
0.182058
0.216428
0.232414
0.232899
0.220806
0.199969
0.17404
0.146111
0.118681
0.0938167
0.0731765
0.0577983
0.0479287
0.0430977
0.04246
0.0437024
0.0463224
0.0503655
0.0562703
0.0649304
0.0777202
0.0963969
0.122522
0.156094
0.1944
0.232541
0.265756
0.290599
0.306347
0.313503
0.312542
0.304089
0.288003
0.26371
0.230804
0.190021
0.144293
0.0992718
0.0618664
0.0362955
0.0216577
0.0142362
0.0107719
0.00950218
0.00975513
0.0111762
0.0133228
0.0156604
0.0180535
0.0211317
0.0261074
0.0340985
0.04557
0.0607548
0.0744882
0.0749759
0.0652909
0.0599403
0.0601632
0.0639532
0.0700291
0.077495
0.0856654
0.0939644
0.101821
0.108628
0.113891
0.11748
0.119717
0.121184
0.122453
0.123902
0.125679
0.127751
0.129977
0.132178
0.134184
0.135862
0.137182
0.138216
0.138834
0.138838
0.137988
0.136046
0.13283
0.128374
0.122842
0.116301
0.109563
0.103043
0.0971579
0.0922739
0.0885585
0.0859603
0.0842936
0.0833743
0.0831016
0.0834464
0.0843837
0.0858377
0.0876735
0.0897243
0.0918272
0.0938486
0.0956921
0.0972944
0.0986151
0.0996267
0.100308
0.10064
0.100608
0.1002
0.0994072
0.0982272
0.0966629
0.0947247
0.0924305
0.0898081
0.086897
0.0837389
0.0803851
0.0768906
0.0733119
0.0697044
0.0661204
0.0626064
0.0592019
0.0559381
0.0528377
0.0499146
0.0471751
0.044619
0.0422416
0.0400348
0.0379886
0.0360928
0.0343371
0.0327123
0.0312106
0.0298257
0.0285526
0.0273856
0.0263148
0.0253159
0.0243345
0.0232892
0.0221473
0.0210383
0.0203629
0.0207269
0.0222737
0.0243886
0.0265782
0.0290576
0.0314858
0.0328342
0.0333184
0.0335715
0.033569
0.0329146
0.0312765
0.0288114
0.0260776
0.0237429
0.0223902
0.0223197
0.0233446
0.0247692
0.0257565
0.0258314
0.0250351
0.0236977
0.0221592
0.020644
0.0192626
0.0180529
0.0170196
0.0161515
0.0506311
0.127408
0.177677
0.207578
0.218589
0.213826
0.197327
0.173653
0.146541
0.118752
0.0924647
0.0696082
0.0517163
0.0395301
0.0328161
0.030589
0.0315383
0.0335832
0.036181
0.0392035
0.0429186
0.0480786
0.056026
0.0688703
0.0893397
0.119424
0.158249
0.201133
0.242157
0.275621
0.299788
0.314876
0.321257
0.319224
0.308679
0.288993
0.259328
0.219584
0.17174
0.121068
0.075762
0.043053
0.0241481
0.0149637
0.010926
0.00941083
0.00939775
0.0104877
0.0122903
0.0144034
0.0167589
0.0199893
0.0252218
0.033267
0.0443997
0.058233
0.0687547
0.0675667
0.0599618
0.0566412
0.0583098
0.0631017
0.0698736
0.0778648
0.0864979
0.0952119
0.103313
0.110035
0.114875
0.117884
0.119598
0.120715
0.1218
0.123158
0.124841
0.12672
0.128573
0.130175
0.131353
0.13207
0.132515
0.132711
0.1326
0.132036
0.130801
0.128634
0.125276
0.120713
0.115301
0.109221
0.102882
0.0967422
0.091272
0.0868167
0.0834894
0.0811726
0.0796433
0.0787284
0.0783744
0.0786044
0.0794286
0.0807883
0.0825559
0.0845703
0.0866769
0.0887514
0.0907058
0.0924813
0.0940373
0.0953406
0.0963609
0.0970696
0.0974415
0.0974561
0.0970995
0.096363
0.0952439
0.0937444
0.0918732
0.0896474
0.0870932
0.084249
0.0811607
0.0778819
0.07447
0.0709838
0.0674801
0.064011
0.0606219
0.0573502
0.0542238
0.0512618
0.0484752
0.0458675
0.043437
0.0411778
0.0390815
0.0371386
0.0353392
0.0336743
0.0321358
0.0307173
0.0294137
0.02822
0.0271276
0.0261149
0.0251321
0.0241017
0.0229815
0.0218686
0.0211027
0.0212142
0.0223075
0.0238513
0.0255376
0.0276132
0.0297932
0.0312717
0.0320402
0.0324427
0.0324488
0.0317539
0.0300824
0.0276207
0.0249345
0.0227083
0.0215493
0.0217648
0.0231252
0.0248513
0.0260391
0.0262042
0.025423
0.024065
0.0224936
0.0209436
0.0195301
0.0182944
0.0172427
0.0163643
0.0498781
0.121258
0.167795
0.195606
0.204519
0.197747
0.180078
0.156465
0.130375
0.104033
0.0792453
0.057847
0.0414355
0.0308515
0.0259003
0.0256807
0.0284023
0.0316158
0.0348044
0.037717
0.0404761
0.0436497
0.0483227
0.0564195
0.0709295
0.0950948
0.130163
0.173014
0.217273
0.256975
0.28877
0.311559
0.325276
0.330061
0.32581
0.311899
0.287199
0.250777
0.203317
0.148877
0.0957909
0.0541499
0.0288756
0.016781
0.0118041
0.00999649
0.00976423
0.0105991
0.0121056
0.0139849
0.0162626
0.0195779
0.0248877
0.0327201
0.0432527
0.0553994
0.0631607
0.0613187
0.0557221
0.05408
0.0567551
0.0621981
0.069397
0.0777207
0.0866893
0.0957301
0.10402
0.110652
0.115058
0.117566
0.118886
0.119781
0.120791
0.122148
0.123814
0.125556
0.127079
0.128104
0.128484
0.128282
0.127815
0.127128
0.126174
0.12487
0.123113
0.120633
0.117216
0.112817
0.10756
0.101712
0.0956755
0.0899342
0.0849516
0.0810262
0.0781934
0.0762653
0.0749952
0.0742385
0.0739889
0.0743009
0.0751916
0.0765966
0.0783859
0.0804064
0.0825207
0.0846257
0.0866519
0.0885522
0.0902883
0.0918216
0.0931109
0.0941147
0.0947969
0.0951304
0.0950987
0.0946941
0.0939149
0.0927625
0.0912408
0.089354
0.0871248
0.0845786
0.081753
0.0786956
0.0754618
0.0721109
0.0687024
0.0652928
0.0619327
0.0586646
0.0555223
0.0525299
0.0497029
0.0470488
0.0445689
0.04226
0.0401152
0.0381263
0.0362838
0.0345789
0.0330036
0.0315512
0.0302168
0.0289956
0.0278802
0.0268516
0.0258653
0.0248485
0.023752
0.0226435
0.0218014
0.0216907
0.0224072
0.0234789
0.0246935
0.026309
0.0281465
0.0295998
0.030507
0.0309795
0.0309515
0.030187
0.0284945
0.0261105
0.0236026
0.0216549
0.020873
0.0215288
0.0233003
0.0253038
0.0265987
0.0267522
0.0259187
0.0245136
0.0229087
0.0213322
0.0198937
0.018634
0.0175614
0.0166675
0.0481521
0.114339
0.153652
0.181606
0.190898
0.184956
0.168898
0.147499
0.123993
0.100285
0.0778784
0.0583734
0.0432037
0.0331365
0.0280297
0.0274093
0.0301526
0.0338988
0.0375664
0.0406499
0.0431351
0.0454751
0.0485184
0.0538144
0.0639482
0.082372
0.111791
0.151313
0.195769
0.238724
0.275606
0.304321
0.324295
0.335447