/*--------------------------------*- C++ -*----------------------------------*\
  =========                 |
  \\      /  F ield         | OpenFOAM: The Open Source CFD Toolbox
   \\    /   O peration     | Website:  https://openfoam.org
    \\  /    A nd           | Version:  9
     \\/     M anipulation  |
\*---------------------------------------------------------------------------*/
FoamFile
{
    format      ascii;
    class       surfaceScalarField;
    location    "0.18";
    object      phi;
}
// * * * * * * * * * * * * * * * * * * * * * * * * * * * * * * * * * * * * * //

dimensions      [0 3 -1 0 0 0 0];

internalField   nonuniform List<scalar> 
24170
(
3.05452e-06
1.33888e-07
2.90188e-06
1.52633e-07
2.76472e-06
1.37168e-07
2.64075e-06
1.23965e-07
2.53021e-06
1.10545e-07
2.43523e-06
9.49795e-08
2.35689e-06
7.83366e-08
2.29541e-06
6.14758e-08
2.25069e-06
4.4721e-08
2.22255e-06
2.81451e-08
2.21012e-06
1.24268e-08
2.21206e-06
-1.9373e-09
2.22734e-06
-1.52825e-08
2.25669e-06
-2.9346e-08
2.30248e-06
-4.57958e-08
2.36879e-06
-6.63015e-08
2.46502e-06
-9.62309e-08
-1.35732e-07
2.60075e-06
3.4907e-06
6.04408e-08
3.53977e-06
1.03559e-07
3.57353e-06
1.03406e-07
3.59424e-06
1.03263e-07
3.60451e-06
1.00275e-07
3.60779e-06
9.16913e-08
3.6071e-06
7.90299e-08
3.60484e-06
6.37398e-08
3.60295e-06
4.66054e-08
3.60323e-06
2.78676e-08
3.60654e-06
9.11564e-09
3.6146e-06
-1.00011e-08
3.62901e-06
-2.96921e-08
3.65126e-06
-5.15964e-08
3.68328e-06
-7.78069e-08
3.72829e-06
-1.11316e-07
3.79002e-06
-1.57963e-07
-2.29939e-07
3.88423e-06
3.67809e-06
4.48692e-08
3.69682e-06
8.48315e-08
3.71669e-06
8.353e-08
3.73901e-06
8.09392e-08
3.76205e-06
7.72391e-08
3.78467e-06
6.90686e-08
3.80652e-06
5.71855e-08
3.82748e-06
4.27785e-08
3.84759e-06
2.64985e-08
3.86746e-06
7.99537e-09
3.88775e-06
-1.1181e-08
3.91016e-06
-3.24044e-08
3.93613e-06
-5.5669e-08
3.96691e-06
-8.23694e-08
4.00394e-06
-1.14836e-07
4.04929e-06
-1.56669e-07
4.10536e-06
-2.14036e-07
-3.00895e-07
4.17632e-06
3.93461e-06
3.56474e-08
3.94762e-06
7.18172e-08
3.95879e-06
7.23649e-08
3.97173e-06
6.80013e-08
3.98643e-06
6.25319e-08
4.00244e-06
5.30679e-08
4.01977e-06
3.98525e-08
4.03855e-06
2.40012e-08
4.05861e-06
6.4377e-09
4.08032e-06
-1.37159e-08
4.10425e-06
-3.51152e-08
4.13084e-06
-5.89887e-08
4.16096e-06
-8.57902e-08
4.19553e-06
-1.16945e-07
4.23559e-06
-1.5489e-07
4.28231e-06
-2.0339e-07
4.33634e-06
-2.68065e-07
-3.60404e-07
4.39585e-06
4.2149e-06
2.78741e-08
4.22737e-06
5.93455e-08
4.23816e-06
6.15736e-08
4.25014e-06
5.6029e-08
4.26382e-06
4.88432e-08
4.27884e-06
3.80512e-08
4.29524e-06
2.34524e-08
4.31332e-06
5.91793e-09
4.33327e-06
-1.35104e-08
4.35512e-06
-3.55588e-08
4.37953e-06
-5.9528e-08
4.40682e-06
-8.62756e-08
4.43766e-06
-1.1663e-07
4.47272e-06
-1.5201e-07
4.51257e-06
-1.94737e-07
4.55745e-06
-2.48276e-07
4.60645e-06
-3.17064e-07
-4.09068e-07
4.65512e-06
4.51556e-06
2.14018e-08
4.52729e-06
4.76189e-08
4.53856e-06
5.03031e-08
4.55089e-06
4.36951e-08
4.56501e-06
3.47208e-08
4.58058e-06
2.24817e-08
4.59757e-06
6.46852e-09
4.61609e-06
-1.26091e-08
4.63654e-06
-3.39608e-08
4.65893e-06
-5.79405e-08
4.68381e-06
-8.44141e-08
4.71152e-06
-1.13985e-07
4.74249e-06
-1.47604e-07
4.77712e-06
-1.86633e-07
4.81548e-06
-2.33099e-07
4.85703e-06
-2.89828e-07
4.89981e-06
-3.59848e-07
-4.47862e-07
4.93861e-06
4.83811e-06
1.60143e-08
4.84908e-06
3.66427e-08
4.86072e-06
3.86675e-08
4.87337e-06
3.10393e-08
4.88781e-06
2.02849e-08
4.90383e-06
6.45981e-09
4.92132e-06
-1.10189e-08
4.94039e-06
-3.16789e-08
4.96135e-06
-5.49247e-08
4.98429e-06
-8.08775e-08
5.00957e-06
-1.09692e-07
5.03745e-06
-1.41871e-07
5.06817e-06
-1.78317e-07
5.10178e-06
-2.20248e-07
5.13796e-06
-2.69278e-07
5.17556e-06
-3.27429e-07
5.21212e-06
-3.964e-07
-4.78335e-07
5.24259e-06
5.18414e-06
1.14507e-08
5.19438e-06
2.64065e-08
5.20615e-06
2.69026e-08
5.21903e-06
1.8157e-08
5.23367e-06
5.63938e-09
5.25003e-06
-9.89974e-09
5.26794e-06
-2.89279e-08
5.28746e-06
-5.11996e-08
5.3088e-06
-7.6264e-08
5.33206e-06
-1.04139e-07
5.35745e-06
-1.35075e-07
5.3851e-06
-1.69527e-07
5.41504e-06
-2.08259e-07
5.44705e-06
-2.52255e-07
5.48043e-06
-3.02661e-07
5.51371e-06
-3.60704e-07
5.54431e-06
-4.27004e-07
-5.01996e-07
5.56797e-06
5.55528e-06
7.50691e-09
5.56479e-06
1.69017e-08
5.57648e-06
1.52048e-08
5.58952e-06
5.12162e-09
5.60431e-06
-9.14938e-09
5.62087e-06
-2.64649e-08
5.63904e-06
-4.70946e-08
5.65879e-06
-7.09536e-08
5.68025e-06
-9.77241e-08
5.7035e-06
-1.27382e-07
5.72859e-06
-1.60166e-07
5.75553e-06
-1.96472e-07
5.78415e-06
-2.36878e-07
5.81398e-06
-2.82084e-07
5.8441e-06
-3.32775e-07
5.87289e-06
-3.89495e-07
5.89797e-06
-4.52088e-07
-5.19982e-07
5.91596e-06
5.95324e-06
4.03984e-09
5.96205e-06
8.0924e-09
5.97353e-06
3.72478e-09
5.98661e-06
-7.95865e-09
6.00144e-06
-2.39723e-08
6.01804e-06
-4.30659e-08
6.03625e-06
-6.53042e-08
6.05598e-06
-9.06904e-08
6.07728e-06
-1.1902e-07
6.10014e-06
-1.50248e-07
6.12453e-06
-1.8455e-07
6.15028e-06
-2.22225e-07
6.17706e-06
-2.63658e-07
6.20423e-06
-3.09249e-07
6.23073e-06
-3.59278e-07
6.255e-06
-4.13768e-07
6.27499e-06
-4.72081e-07
-5.33177e-07
6.28819e-06
6.37991e-06
9.45554e-10
6.38806e-06
-6.53067e-11
6.3992e-06
-7.4071e-09
6.41217e-06
-2.0935e-08
6.42689e-06
-3.86864e-08
6.44333e-06
-5.95125e-08
6.46135e-06
-8.33171e-08
6.48078e-06
-1.10129e-07
6.50159e-06
-1.39823e-07
6.52368e-06
-1.72339e-07
6.5469e-06
-2.0777e-07
6.57097e-06
-2.46293e-07
6.59541e-06
-2.88097e-07
6.61948e-06
-3.33318e-07
6.64211e-06
-3.81909e-07
6.66188e-06
-4.33542e-07
6.67713e-06
-4.87334e-07
-5.42122e-07
6.68608e-06
5.74323e-06
-1.45405e-09
5.74965e-06
-6.47867e-09
5.75869e-06
-1.64535e-08
5.76944e-06
-3.16858e-08
5.78166e-06
-5.08994e-08
5.79527e-06
-7.31224e-08
5.81013e-06
-9.81748e-08
5.82607e-06
-1.26075e-07
5.84298e-06
-1.56736e-07
5.86073e-06
-1.90084e-07
5.87909e-06
-2.26136e-07
5.89776e-06
-2.6496e-07
5.91626e-06
-3.06598e-07
5.93394e-06
-3.50991e-07
5.94992e-06
-3.97891e-07
5.96316e-06
-4.46787e-07
5.97255e-06
-4.96721e-07
-5.46579e-07
5.97701e-06
7.00068e-06
-3.98114e-09
7.00751e-06
-1.33044e-08
7.01737e-06
-2.63163e-08
7.02928e-06
-4.35993e-08
7.04285e-06
-6.44676e-08
7.05792e-06
-8.81869e-08
7.07428e-06
-1.14537e-07
7.09171e-06
-1.43506e-07
7.11e-06
-1.75027e-07
7.12892e-06
-2.09001e-07
7.14815e-06
-2.45364e-07
7.16725e-06
-2.84066e-07
7.18565e-06
-3.24997e-07
7.20259e-06
-3.67935e-07
7.21718e-06
-4.12476e-07
7.2284e-06
-4.58006e-07
7.23527e-06
-5.03589e-07
-5.48267e-07
7.23695e-06
8.53345e-06
-6.58498e-09
8.54054e-06
-2.03963e-08
8.55099e-06
-3.67625e-08
8.56379e-06
-5.63969e-08
8.57839e-06
-7.907e-08
8.59451e-06
-1.04308e-07
8.61187e-06
-1.31899e-07
8.63016e-06
-1.61796e-07
8.64906e-06
-1.93925e-07
8.66821e-06
-2.28155e-07
8.68719e-06
-2.64342e-07
8.70545e-06
-3.02321e-07
8.72231e-06
-3.41856e-07
8.73697e-06
-3.82603e-07
8.74857e-06
-4.24073e-07
8.7562e-06
-4.65636e-07
8.75907e-06
-5.06455e-07
-5.45798e-07
8.7566e-06
1.04018e-05
-9.1906e-09
1.04089e-05
-2.75216e-08
1.04196e-05
-4.73948e-08
1.04327e-05
-6.95495e-08
1.04477e-05
-9.40662e-08
1.04641e-05
-1.20712e-07
1.04816e-05
-1.49323e-07
1.04996e-05
-1.79824e-07
1.05178e-05
-2.12115e-07
1.05357e-05
-2.46031e-07
1.05527e-05
-2.8136e-07
1.05682e-05
-3.17848e-07
1.05815e-05
-3.55174e-07
1.05918e-05
-3.92934e-07
1.05984e-05
-4.30624e-07
1.06004e-05
-4.67675e-07
1.05974e-05
-5.03393e-07
-5.3729e-07
1.05889e-05
1.26793e-05
-1.16824e-08
1.26861e-05
-3.4323e-08
1.26963e-05
-5.75972e-08
1.27089e-05
-8.21975e-08
1.27233e-05
-1.08384e-07
1.27387e-05
-1.36112e-07
1.27546e-05
-1.65288e-07
1.27706e-05
-1.95825e-07
1.27861e-05
-2.27597e-07
1.28005e-05
-2.60411e-07
1.28131e-05
-2.94016e-07
1.28234e-05
-3.28109e-07
1.28306e-05
-3.62339e-07
1.28339e-05
-3.96303e-07
1.28329e-05
-4.29547e-07
1.28268e-05
-4.61606e-07
1.28153e-05
-4.91946e-07
-5.20296e-07
1.27983e-05
1.54554e-05
-1.38872e-08
1.54613e-05
-4.02827e-08
1.54702e-05
-6.64846e-08
1.54811e-05
-9.30859e-08
1.54932e-05
-1.20427e-07
1.55057e-05
-1.48599e-07
1.55179e-05
-1.77581e-07
1.55294e-05
-2.07298e-07
1.55394e-05
-2.37617e-07
1.55474e-05
-2.68337e-07
1.55525e-05
-2.99203e-07
1.55544e-05
-3.29918e-07
1.55522e-05
-3.60152e-07
1.55454e-05
-3.89554e-07
1.55336e-05
-4.1776e-07
1.55165e-05
-4.44425e-07
1.54937e-05
-4.69168e-07
-4.91889e-07
1.54653e-05
1.88393e-05
-1.55453e-08
1.88437e-05
-4.47224e-08
1.88502e-05
-7.292e-08
1.88577e-05
-1.00593e-07
1.88654e-05
-1.28113e-07
1.88724e-05
-1.55676e-07
1.88782e-05
-1.83343e-07
1.8882e-05
-2.11077e-07
1.88831e-05
-2.38765e-07
1.8881e-05
-2.66233e-07
1.88751e-05
-2.93263e-07
1.88648e-05
-3.19606e-07
1.88496e-05
-3.44994e-07
1.88292e-05
-3.69163e-07
1.88033e-05
-3.91849e-07
1.87717e-05
-4.12828e-07
1.87344e-05
-4.31849e-07
-4.48931e-07
1.86914e-05
2.29641e-05
-1.62649e-08
2.29662e-05
-4.68412e-08
2.29688e-05
-7.55899e-08
2.29711e-05
-1.02843e-07
2.2972e-05
-1.2902e-07
2.29708e-05
-1.54454e-07
2.29668e-05
-1.79314e-07
2.29593e-05
-2.03625e-07
2.29479e-05
-2.27327e-07
2.29319e-05
-2.50308e-07
2.29111e-05
-2.72421e-07
2.2885e-05
-2.93492e-07
2.28533e-05
-3.13341e-07
2.2816e-05
-3.3179e-07
2.27728e-05
-3.48679e-07
2.27238e-05
-3.63884e-07
2.26693e-05
-3.77265e-07
-3.88902e-07
2.26092e-05
1.68108e-05
-1.63117e-08
1.6811e-05
-4.70422e-08
1.68106e-05
-7.52532e-08
1.6809e-05
-1.01212e-07
1.68054e-05
-1.25484e-07
1.67996e-05
-1.48582e-07
1.6791e-05
-1.70767e-07
1.67795e-05
-1.92101e-07
1.67647e-05
-2.12563e-07
1.67465e-05
-2.32096e-07
1.67247e-05
-2.50606e-07
1.66992e-05
-2.67973e-07
1.66699e-05
-2.84063e-07
1.66369e-05
-2.98757e-07
1.66002e-05
-3.11945e-07
1.65598e-05
-3.23555e-07
1.65161e-05
-3.33499e-07
-3.41868e-07
1.6469e-05
1.46346e-05
-1.62934e-08
1.46344e-05
-4.68947e-08
1.46333e-05
-7.41488e-08
1.46304e-05
-9.83292e-08
1.46253e-05
-1.20332e-07
1.46176e-05
-1.40925e-07
1.46073e-05
-1.60419e-07
1.4594e-05
-1.78888e-07
1.45778e-05
-1.96357e-07
1.45586e-05
-2.1283e-07
1.45362e-05
-2.28254e-07
1.45108e-05
-2.42539e-07
1.44823e-05
-2.55587e-07
1.44509e-05
-2.6731e-07
1.44166e-05
-2.77636e-07
1.43795e-05
-2.86518e-07
1.43399e-05
-2.93905e-07
-2.99887e-07
1.42979e-05
1.27403e-05
-1.64618e-08
1.27405e-05
-4.70932e-08
1.27395e-05
-7.31707e-08
1.27364e-05
-9.51978e-08
1.27308e-05
-1.14745e-07
1.27227e-05
-1.32855e-07
1.27121e-05
-1.49781e-07
1.26988e-05
-1.65572e-07
1.26827e-05
-1.80327e-07
1.2664e-05
-1.94107e-07
1.26427e-05
-2.0689e-07
1.26187e-05
-2.18604e-07
1.25923e-05
-2.29174e-07
1.25635e-05
-2.3853e-07
1.25325e-05
-2.4662e-07
1.24994e-05
-2.53408e-07
1.24644e-05
-2.58857e-07
-2.63035e-07
1.24275e-05
1.10915e-05
-1.70258e-08
1.10925e-05
-4.81342e-08
1.10922e-05
-7.28306e-08
1.10893e-05
-9.23299e-08
1.10839e-05
-1.09329e-07
1.10761e-05
-1.25055e-07
1.10659e-05
-1.3957e-07
1.10532e-05
-1.52908e-07
1.10382e-05
-1.65252e-07
1.10208e-05
-1.76701e-07
1.10011e-05
-1.87242e-07
1.09793e-05
-1.96812e-07
1.09555e-05
-2.05352e-07
1.09298e-05
-2.12806e-07
1.09023e-05
-2.1913e-07
1.08732e-05
-2.24297e-07
1.08426e-05
-2.28284e-07
-2.3116e-07
1.08107e-05
9.65642e-06
-1.82348e-08
9.65862e-06
-5.0331e-08
9.65905e-06
-7.32568e-08
9.65666e-06
-8.99473e-08
9.65182e-06
-1.04488e-07
9.64471e-06
-1.17945e-07
9.63528e-06
-1.30134e-07
9.62355e-06
-1.41183e-07
9.60967e-06
-1.5137e-07
9.59377e-06
-1.608e-07
9.57596e-06
-1.69437e-07
9.55638e-06
-1.77223e-07
9.53513e-06
-1.84104e-07
9.51235e-06
-1.9003e-07
9.48818e-06
-1.94958e-07
9.46274e-06
-1.98854e-07
9.43614e-06
-2.01689e-07
-2.03477e-07
9.40846e-06
8.40758e-06
-2.0461e-08
8.41122e-06
-5.39684e-08
8.41211e-06
-7.41513e-08
8.41006e-06
-8.78933e-08
8.40592e-06
-1.00347e-07
8.39973e-06
-1.11756e-07
8.39134e-06
-1.21748e-07
8.38083e-06
-1.30674e-07
8.36836e-06
-1.38902e-07
8.35408e-06
-1.46515e-07
8.33811e-06
-1.53465e-07
8.32058e-06
-1.59696e-07
8.30164e-06
-1.6516e-07
8.28141e-06
-1.69806e-07
8.26004e-06
-1.73587e-07
8.23765e-06
-1.76464e-07
8.21439e-06
-1.78425e-07
-1.79493e-07
8.1904e-06
7.32081e-06
-2.39825e-08
7.3264e-06
-5.95615e-08
7.32755e-06
-7.52997e-08
7.32553e-06
-8.58806e-08
7.32167e-06
-9.64846e-08
7.31588e-06
-1.05968e-07
7.30809e-06
-1.13958e-07
7.29847e-06
-1.21047e-07
7.28717e-06
-1.27609e-07
7.27435e-06
-1.3369e-07
7.26013e-06
-1.39244e-07
7.24466e-06
-1.44231e-07
7.22811e-06
-1.4861e-07
7.21064e-06
-1.52331e-07
7.1924e-06
-1.55346e-07
7.17354e-06
-1.57605e-07
7.15418e-06
-1.59068e-07
-1.5961e-07
7.1343e-06
6.37458e-06
-2.84972e-08
6.38192e-06
-6.68996e-08
6.38378e-06
-7.71585e-08
6.38283e-06
-8.4937e-08
6.38025e-06
-9.39053e-08
6.37592e-06
-1.01631e-07
6.37003e-06
-1.08071e-07
6.36296e-06
-1.13971e-07
6.35495e-06
-1.19602e-07
6.34619e-06
-1.24932e-07
6.33685e-06
-1.29905e-07
6.32709e-06
-1.34472e-07
6.31706e-06
-1.38575e-07
6.30687e-06
-1.42141e-07
6.29662e-06
-1.45098e-07
6.28641e-06
-1.47399e-07
6.27632e-06
-1.48974e-07
-1.49765e-07
6.26647e-06
5.55334e-06
-3.63701e-08
5.56346e-06
-7.70204e-08
5.57112e-06
-8.48199e-08
5.57902e-06
-9.28328e-08
5.58699e-06
-1.01884e-07
5.59445e-06
-1.09083e-07
5.60127e-06
-1.14894e-07
5.60746e-06
-1.20162e-07
5.61295e-06
-1.25092e-07
5.61764e-06
-1.29625e-07
5.62144e-06
-1.33699e-07
5.62422e-06
-1.37259e-07
5.62589e-06
-1.40237e-07
5.6263e-06
-1.42556e-07
5.62535e-06
-1.44145e-07
5.62295e-06
-1.45002e-07
5.61907e-06
-1.45088e-07
-1.44783e-07
5.61408e-06
4.8876e-06
-9.63648e-08
4.93334e-06
-1.22757e-07
4.96922e-06
-1.20697e-07
4.99615e-06
-1.19769e-07
5.01405e-06
-1.19788e-07
5.02365e-06
-1.18679e-07
5.0257e-06
-1.16947e-07
5.02078e-06
-1.15234e-07
5.00933e-06
-1.13647e-07
4.9918e-06
-1.12095e-07
4.96859e-06
-1.10492e-07
4.9401e-06
-1.08765e-07
4.90671e-06
-1.06846e-07
4.86883e-06
-1.04675e-07
4.82689e-06
-1.02209e-07
4.78136e-06
-9.94664e-08
4.73271e-06
-9.64426e-08
-9.34138e-08
4.68134e-06
4.10631e-06
3.98355e-06
3.86286e-06
3.74309e-06
3.6233e-06
3.50462e-06
3.38768e-06
3.27244e-06
3.15879e-06
3.0467e-06
2.93621e-06
2.82744e-06
2.7206e-06
2.61592e-06
2.51371e-06
2.41425e-06
2.3178e-06
2.22439e-06
-4.82613e-07
4.82613e-07
-9.77262e-07
4.94649e-07
-1.38344e-06
4.06183e-07
-1.62689e-06
2.43444e-07
-1.69814e-06
7.1253e-08
-1.68961e-06
-8.53028e-09
-1.68298e-06
-6.62757e-09
-1.68887e-06
5.88755e-09
-1.70972e-06
2.08514e-08
-1.74499e-06
3.52678e-08
-1.78859e-06
4.35953e-08
-1.83334e-06
4.47541e-08
-1.87105e-06
3.771e-08
-1.89605e-06
2.49988e-08
-1.89813e-06
2.08517e-09
-1.86619e-06
-3.19431e-08
-1.79333e-06
-7.2859e-08
-1.67416e-06
-1.19172e-07
-1.50445e-06
-1.69714e-07
-1.28049e-06
-2.23951e-07
-9.99924e-07
-2.80571e-07
-6.61703e-07
-3.3822e-07
-2.65295e-07
-3.96409e-07
1.88101e-07
-4.53395e-07
6.95651e-07
-5.0755e-07
1.2532e-06
-5.57551e-07
1.8561e-06
-6.02898e-07
2.49927e-06
-6.43171e-07
3.17658e-06
-6.7731e-07
3.88057e-06
-7.03984e-07
4.60167e-06
-7.21108e-07
5.32713e-06
-7.25453e-07
6.04013e-06
-7.13003e-07
6.72058e-06
-6.80448e-07
7.34495e-06
-6.24372e-07
7.87641e-06
-5.31459e-07
8.24598e-06
-3.69571e-07
8.35907e-06
-1.13091e-07
8.13707e-06
2.21998e-07
7.57365e-06
5.63428e-07
6.69614e-06
8.77505e-07
5.59766e-06
1.09848e-06
4.44474e-06
1.15292e-06
3.42294e-06
1.02179e-06
2.64822e-06
7.74728e-07
2.12491e-06
5.23306e-07
1.75996e-06
3.64954e-07
1.39884e-06
3.61119e-07
9.18193e-07
4.80645e-07
3.25781e-07
5.92412e-07
-2.61986e-07
5.87767e-07
-6.89344e-07
4.27357e-07
-8.21944e-07
1.32601e-07
-6.85451e-07
-1.36493e-07
-2.07809e-07
-4.77642e-07
6.21487e-07
-8.29296e-07
1.6343e-06
-1.01281e-06
2.56097e-06
-9.26671e-07
3.16618e-06
-6.05213e-07
3.37042e-06
-2.04242e-07
3.29111e-06
7.93128e-08
3.14314e-06
1.47968e-07
3.0897e-06
5.3438e-08
3.15197e-06
-6.22672e-08
3.1785e-06
-2.65272e-08
2.99619e-06
1.8231e-07
2.43654e-06
5.59648e-07
1.4476e-06
9.88935e-07
9.11751e-08
1.35643e-06
-1.48125e-06
1.57242e-06
-3.11684e-06
1.63559e-06
-4.70375e-06
1.58691e-06
-6.16796e-06
1.4642e-06
-7.46729e-06
1.29933e-06
-8.58338e-06
1.11609e-06
-9.51386e-06
9.30474e-07
-1.02658e-05
7.51974e-07
-1.08511e-05
5.85301e-07
-1.12833e-05
4.32135e-07
-1.15762e-05
2.9298e-07
-1.17447e-05
1.68452e-07
-1.18036e-05
5.89226e-08
-1.17756e-05
-2.80437e-08
-1.16765e-05
-9.90633e-08
-1.15168e-05
-1.59699e-07
-1.13031e-05
-2.13736e-07
-1.10401e-05
-2.6302e-07
-1.07314e-05
-3.08667e-07
-1.03798e-05
-3.51611e-07
-9.98703e-06
-3.92756e-07
-9.55406e-06
-4.32967e-07
-9.08106e-06
-4.72999e-07
-8.56766e-06
-5.13397e-07
-8.01328e-06
-5.5438e-07
-7.41755e-06
-5.95739e-07
-6.78076e-06
-6.36782e-07
-6.10443e-06
-6.7633e-07
-5.39163e-06
-7.12808e-07
-4.64719e-06
-7.4444e-07
-3.87772e-06
-7.69466e-07
-3.09143e-06
-7.86287e-07
-2.29797e-06
-7.93458e-07
-1.50748e-06
-7.90494e-07
-7.31526e-07
-7.75955e-07
2.16193e-08
-7.53145e-07
7.41884e-07
-7.20265e-07
1.42184e-06
-6.79953e-07
2.05663e-06
-6.3479e-07
2.64228e-06
-5.85648e-07
3.17605e-06
-5.33776e-07
3.6565e-06
-4.80446e-07
4.08321e-06
-4.26718e-07
4.45667e-06
-3.73454e-07
4.77799e-06
-3.21323e-07
5.04885e-06
-2.70854e-07
5.2712e-06
-2.22353e-07
5.44668e-06
-1.7548e-07
5.57704e-06
-1.30365e-07
5.6625e-06
-8.54517e-08
5.6935e-06
-3.10063e-08
5.6501e-06
4.34033e-08
5.53049e-06
1.19613e-07
5.33981e-06
1.90673e-07
5.08454e-06
2.55269e-07
4.7742e-06
3.10348e-07
4.422e-06
3.52199e-07
4.04542e-06
3.76579e-07
3.66471e-06
3.80705e-07
3.30002e-06
3.64689e-07
2.97178e-06
3.28241e-07
2.69334e-06
2.78445e-07
2.46826e-06
2.25082e-07
2.29637e-06
1.71882e-07
2.17194e-06
1.24434e-07
2.08487e-06
8.70717e-08
2.02324e-06
6.16257e-08
1.97613e-06
4.71146e-08
1.9362e-06
3.99335e-08
1.9006e-06
3.55918e-08
1.87031e-06
3.02962e-08
1.8482e-06
2.21109e-08
1.83693e-06
1.12682e-08
1.83776e-06
-8.36125e-10
1.85124e-06
-1.3471e-08
1.87859e-06
-2.73577e-08
1.9214e-06
-4.28026e-08
1.98083e-06
-5.94301e-08
2.05766e-06
-7.68323e-08
2.15216e-06
-9.45053e-08
2.26604e-06
-1.13873e-07
2.39582e-06
-1.2978e-07
2.52255e-06
-1.2673e-07
2.61524e-06
-9.26936e-08
2.63418e-06
-1.89445e-08
2.46556e-06
1.68621e-07
1.80703e-06
6.58533e-07
4.30028e-07
1.377e-06
-1.35495e-06
1.78498e-06
-3.10304e-06
1.74809e-06
-4.48702e-06
1.38398e-06
-5.41284e-06
9.25829e-07
-5.89575e-06
4.82905e-07
-5.98347e-06
8.77161e-08
-5.76498e-06
-2.18486e-07
-5.28832e-06
-4.76661e-07
-4.57641e-06
-7.11908e-07
-3.65686e-06
-9.1955e-07
-2.57502e-06
-1.08184e-06
-1.39981e-06
-1.17521e-06
-2.1923e-07
-1.18058e-06
9.1336e-07
-1.13259e-06
1.90703e-06
-9.93665e-07
2.7454e-06
-8.38379e-07
3.41854e-06
-6.73135e-07
3.92871e-06
-5.10174e-07
4.29049e-06
-3.61775e-07
4.45352e-06
-1.63034e-07
4.29196e-06
1.61565e-07
3.75249e-06
5.39468e-07
7.88479e-07
2.96401e-06
-5.80994e-07
1.06361e-06
-1.07592e-06
9.89574e-07
-1.38081e-06
7.11072e-07
-1.47334e-06
3.35978e-07
-1.48381e-06
8.17248e-08
-1.53446e-06
4.21187e-08
-1.64948e-06
1.08386e-07
-1.8064e-06
1.62808e-07
-1.98974e-06
2.04193e-07
-2.18502e-06
2.30548e-07
-2.37969e-06
2.38269e-07
-2.5599e-06
2.24962e-07
-2.7142e-06
1.92011e-07
-2.82946e-06
1.40259e-07
-2.90023e-06
7.2851e-08
-2.91694e-06
-1.52257e-08
-2.87821e-06
-1.11592e-07
-2.78047e-06
-2.16909e-07
-2.62188e-06
-3.28306e-07
-2.40249e-06
-4.43346e-07
-2.12302e-06
-5.60035e-07
-1.7848e-06
-6.76444e-07
-1.39016e-06
-7.91048e-07
-9.40931e-07
-9.02626e-07
-4.3879e-07
-1.00969e-06
1.14882e-07
-1.11122e-06
7.16592e-07
-1.20461e-06
1.36054e-06
-1.28711e-06
2.04031e-06
-1.35708e-06
2.74897e-06
-1.41264e-06
3.47869e-06
-1.45083e-06
4.22062e-06
-1.46738e-06
4.96451e-06
-1.45689e-06
5.69753e-06
-1.41347e-06
6.40535e-06
-1.33219e-06
7.08461e-06
-1.21072e-06
7.75991e-06
-1.04487e-06
8.45675e-06
-8.09926e-07
9.14218e-06
-4.63433e-07
9.69703e-06
8.57446e-09
1.00033e-05
5.71279e-07
9.96675e-06
1.13499e-06
9.52996e-06
1.58971e-06
8.68724e-06
1.86451e-06
7.51767e-06
1.9443e-06
6.19332e-06
1.84765e-06
4.91317e-06
1.6451e-06
3.80705e-06
1.46724e-06
2.89041e-06
1.39728e-06
2.11526e-06
1.36757e-06
1.46174e-06
1.24129e-06
9.4763e-07
9.41467e-07
6.11328e-07
4.68903e-07
5.74094e-07
-9.92596e-08
8.49969e-07
-7.53517e-07
1.4022e-06
-1.38152e-06
2.14645e-06
-1.75706e-06
2.91106e-06
-1.69128e-06
3.52793e-06
-1.22208e-06
3.91639e-06
-5.92703e-07
4.08816e-06
-9.24548e-08
4.10836e-06
1.2777e-07
3.94393e-06
2.17865e-07
3.3822e-06
4.99466e-07
2.22408e-06
1.13159e-06
4.79631e-07
1.92676e-06
-1.57045e-06
2.60973e-06
-3.62174e-06
3.04022e-06
-5.49108e-06
3.22577e-06
-7.10171e-06
3.18305e-06
-8.43062e-06
2.96451e-06
-9.48123e-06
2.63752e-06
-1.02793e-05
2.26229e-06
-1.08638e-05
1.88386e-06
-1.12777e-05
1.52994e-06
-1.15608e-05
1.21357e-06
-1.17465e-05
9.37676e-07
-1.18603e-05
6.99159e-07
-1.19208e-05
4.92588e-07
-1.194e-05
3.12194e-07
-1.19243e-05
1.52738e-07
-1.18753e-05
9.95127e-09
-1.17826e-05
-1.20746e-07
-1.16393e-05
-2.42397e-07
-1.14449e-05
-3.54093e-07
-1.12022e-05
-4.5641e-07
-1.09147e-05
-5.50584e-07
-1.05852e-05
-6.38089e-07
-1.02163e-05
-7.20546e-07
-9.80936e-06
-7.99685e-07
-9.3651e-06
-8.77234e-07
-8.88335e-06
-9.54742e-07
-8.3634e-06
-1.03335e-06
-7.80426e-06
-1.11353e-06
-7.2051e-06
-1.19489e-06
-6.56585e-06
-1.27604e-06
-5.88762e-06
-1.35456e-06
-5.17323e-06
-1.42719e-06
-4.42746e-06
-1.49021e-06
-3.65704e-06
-1.53989e-06
-2.87043e-06
-1.5729e-06
-2.07724e-06
-1.58665e-06
-1.28832e-06
-1.57941e-06
-5.11445e-07
-1.55283e-06
2.40802e-07
-1.50539e-06
9.60027e-07
-1.43949e-06
1.63998e-06
-1.3599e-06
2.27542e-06
-1.27023e-06
2.86271e-06
-1.17294e-06
3.39965e-06
-1.07071e-06
3.88522e-06
-9.66014e-07
4.31945e-06
-8.60952e-07
4.70322e-06
-7.57221e-07
5.03804e-06
-6.56147e-07
5.32587e-06
-5.58687e-07
5.56895e-06
-4.65425e-07
5.77004e-06
-3.76572e-07
5.93156e-06
-2.91887e-07
6.0575e-06
-2.11395e-07
6.16284e-06
-1.3634e-07
6.2667e-06
-6.04594e-08
6.36991e-06
1.64003e-08
6.46221e-06
9.83787e-08
6.53234e-06
1.85133e-07
6.56922e-06
2.73473e-07
6.5633e-06
3.58121e-07
6.50857e-06
4.31309e-07
6.40413e-06
4.85144e-07
6.25539e-06
5.13424e-07
6.07303e-06
5.10605e-07
5.8709e-06
4.80568e-07
5.66205e-06
4.3394e-07
5.45476e-06
3.79172e-07
5.25422e-06
3.24973e-07
5.06271e-06
2.78582e-07
4.88056e-06
2.43769e-07
4.70723e-06
2.20444e-07
4.54169e-06
2.05478e-07
4.38277e-06
1.94512e-07
4.22945e-06
1.83617e-07
4.08117e-06
1.70392e-07
3.93826e-06
1.54178e-07
3.80234e-06
1.3508e-07
3.67588e-06
1.12992e-07
3.5612e-06
8.73169e-08
3.46051e-06
5.78895e-08
3.3752e-06
2.58823e-08
3.30753e-06
-9.16819e-09
3.26103e-06
-4.79984e-08
3.24868e-06
-1.01521e-07
3.29032e-06
-1.71423e-07
3.38547e-06
-2.21877e-07
3.46256e-06
-1.69789e-07
3.29751e-06
1.46105e-07
2.45619e-06
1.00994e-06
6.33432e-07
2.48129e-06
-1.58221e-06
3.59264e-06
-3.44071e-06
3.64348e-06
-4.67054e-06
2.97792e-06
-5.38073e-06
2.09417e-06
-5.73796e-06
1.28305e-06
-5.86401e-06
6.08959e-07
-5.8142e-06
3.79109e-08
-5.55505e-06
-4.77636e-07
-5.05978e-06
-9.71934e-07
-4.33802e-06
-1.43367e-06
-3.41452e-06
-1.84305e-06
-2.33462e-06
-2.16174e-06
-1.16512e-06
-2.34471e-06
2.36998e-08
-2.3694e-06
1.12945e-06
-2.23834e-06
2.11763e-06
-1.98184e-06
2.9548e-06
-1.67555e-06
3.63682e-06
-1.35515e-06
4.16868e-06
-1.04203e-06
4.55557e-06
-7.4867e-07
4.86734e-06
-4.74803e-07
5.19209e-06
-1.63187e-07
5.43534e-06
2.96225e-07
7.54816e-07
5.469e-06
-4.34176e-07
1.49778e-06
-8.19421e-07
1.37482e-06
-1.08116e-06
9.72808e-07
-1.25376e-06
5.08578e-07
-1.46563e-06
2.93599e-07
-1.77599e-06
3.52477e-07
-2.11956e-06
4.51956e-07
-2.46597e-06
5.09218e-07
-2.80091e-06
5.39135e-07
-3.11025e-06
5.39885e-07
-3.38306e-06
5.11078e-07
-3.61153e-06
4.53434e-07
-3.7877e-06
3.68183e-07
-3.90674e-06
2.59293e-07
-3.96434e-06
1.30453e-07
-3.96516e-06
-1.44073e-08
-3.90589e-06
-1.70859e-07
-3.78706e-06
-3.35739e-07
-3.60942e-06
-5.05945e-07
-3.37409e-06
-6.78677e-07
-3.08274e-06
-8.51386e-07
-2.7374e-06
-1.02179e-06
-2.34046e-06
-1.18799e-06
-1.89472e-06
-1.34837e-06
-1.40294e-06
-1.50147e-06
-8.68137e-07
-1.64602e-06
-2.91743e-07
-1.781e-06
3.25207e-07
-1.90406e-06
9.79026e-07
-2.0109e-06
1.66376e-06
-2.09738e-06
2.3732e-06
-2.16028e-06
3.10054e-06
-2.19472e-06
3.8378e-06
-2.19415e-06
4.57519e-06
-2.15086e-06
5.29987e-06
-2.05688e-06
5.99521e-06
-1.90605e-06
6.64616e-06
-1.69582e-06
7.26261e-06
-1.42638e-06
7.89517e-06
-1.09599e-06
8.59123e-06
-6.87488e-07
9.33427e-06
-1.7176e-07
1.00101e-05
4.59194e-07
1.04416e-05
1.15821e-06
1.04734e-05
1.83272e-06
1.00379e-05
2.37974e-06
9.17008e-06
2.7155e-06
8.00312e-06
2.81206e-06
6.74842e-06
2.72194e-06
5.605e-06
2.5407e-06
4.65942e-06
2.31315e-06
3.90132e-06
1.99939e-06
3.29866e-06
1.54412e-06
2.83362e-06
9.33945e-07
2.55096e-06
1.83406e-07
2.48621e-06
-6.88767e-07
2.67378e-06
-1.5691e-06
3.0717e-06
-2.15498e-06
3.52014e-06
-2.13972e-06
3.84926e-06
-1.5512e-06
4.00074e-06
-7.44184e-07
3.9361e-06
-2.78166e-08
3.47431e-06
5.89564e-07
2.33637e-06
1.3558e-06
4.96757e-07
2.33908e-06
-1.6829e-06
3.31124e-06
-3.77946e-06
4.02332e-06
-5.57702e-06
4.4073e-06
-7.0074e-06
4.4706e-06
-8.06495e-06
4.28331e-06
-8.80717e-06
3.92528e-06
-9.31901e-06
3.47635e-06
-9.68404e-06
3.00254e-06
-9.96876e-06
2.54702e-06
-1.02156e-05
2.13068e-06
-1.0444e-05
1.75836e-06
-1.06567e-05
1.42626e-06
-1.08467e-05
1.12767e-06
-1.10036e-05
8.56047e-07
-1.11174e-05
6.06408e-07
-1.11806e-05
3.75391e-07
-1.11886e-05
1.607e-07
-1.11406e-05
-3.80652e-08
-1.10382e-05
-2.23081e-07
-1.0886e-05
-3.94583e-07
-1.06873e-05
-5.52836e-07
-1.04451e-05
-6.98567e-07
-1.01627e-05
-8.33035e-07
-9.84272e-06
-9.58045e-07
-9.4874e-06
-1.07587e-06
-9.09798e-06
-1.18911e-06
-8.67474e-06
-1.30047e-06
-8.21703e-06
-1.41246e-06
-7.72341e-06
-1.52697e-06
-7.19205e-06
-1.64489e-06
-6.62123e-06
-1.7657e-06
-6.00999e-06
-1.88728e-06
-5.35872e-06
-2.00583e-06
-4.66977e-06
-2.11614e-06
-3.94776e-06
-2.21222e-06
-3.19958e-06
-2.28806e-06
-2.43417e-06
-2.33831e-06
-1.66167e-06
-2.35914e-06
-8.92153e-07
-2.34893e-06
-1.37401e-07
-2.30758e-06
5.92676e-07
-2.23547e-06
1.2895e-06
-2.13631e-06
1.9468e-06
-2.0172e-06
2.55932e-06
-1.88275e-06
3.12365e-06
-1.73728e-06
3.63789e-06
-1.58495e-06
4.10134e-06
-1.42946e-06
4.51432e-06
-1.27393e-06
4.87796e-06
-1.12086e-06
5.19401e-06
-9.72192e-07
5.46467e-06
-8.29349e-07
5.69251e-06
-6.93268e-07
5.88047e-06
-5.64532e-07
6.03181e-06
-4.43224e-07
6.1492e-06
-3.28792e-07
6.23387e-06
-2.21007e-07
6.2925e-06
-1.19087e-07
6.33355e-06
-2.46555e-08
6.36422e-06
6.77118e-08
6.39446e-06
1.54889e-07
6.42956e-06
2.38382e-07
6.47067e-06
3.17007e-07
6.51358e-06
3.88396e-07
6.55014e-06
4.48588e-07
6.57063e-06
4.92929e-07
6.56461e-06
5.16625e-07
6.52667e-06
5.18515e-07
6.45831e-06
5.02299e-07
6.36367e-06
4.73808e-07
6.24853e-06
4.40116e-07
6.11902e-06
4.08089e-07
5.98047e-06
3.82324e-07
5.83668e-06
3.64228e-07
5.68974e-06
3.52423e-07
5.54022e-06
3.44026e-07
5.38782e-06
3.36018e-07
5.23198e-06
3.26236e-07
5.07251e-06
3.13646e-07
4.90975e-06
2.97841e-07
4.74439e-06
2.78356e-07
4.57755e-06
2.54157e-07
4.41127e-06
2.24163e-07
4.24799e-06
1.89168e-07
4.08807e-06
1.50744e-07
3.93679e-06
1.03288e-07
3.81362e-06
2.16485e-08
3.74586e-06
-1.03662e-07
3.71545e-06
-1.91471e-07
3.56251e-06
-1.68488e-08
2.92037e-06
7.88245e-07
1.39472e-06
2.53559e-06
-7.10538e-07
4.58655e-06
-2.46981e-06
5.35191e-06
-3.59609e-06
4.76976e-06
-4.29841e-06
3.68025e-06
-4.79672e-06
2.59248e-06
-5.15001e-06
1.63634e-06
-5.32624e-06
7.85184e-07
-5.2927e-06
4.3665e-09
-5.03434e-06
-7.35991e-07
-4.55514e-06
-1.45114e-06
-3.86042e-06
-2.12839e-06
-2.97006e-06
-2.7334e-06
-1.92551e-06
-3.2063e-06
-7.90766e-07
-3.47945e-06
3.48621e-07
-3.50879e-06
1.41246e-06
-3.30218e-06
2.3567e-06
-2.92608e-06
3.15116e-06
-2.47002e-06
3.79031e-06
-1.9943e-06
4.28564e-06
-1.53735e-06
4.65463e-06
-1.11766e-06
4.91015e-06
-7.3032e-07
5.10705e-06
-3.60094e-07
5.35469e-06
4.85856e-08
4.979e-07
5.61161e-06
-3.4339e-07
1.84117e-06
-6.70425e-07
1.70185e-06
-9.46969e-07
1.24935e-06
-1.26292e-06
8.24531e-07
-1.70658e-06
7.37262e-07
-2.19531e-06
8.41201e-07
-2.65507e-06
9.11715e-07
-3.08275e-06
9.36904e-07
-3.47436e-06
9.30737e-07
-3.82285e-06
8.88374e-07
-4.12086e-06
8.09092e-07
-4.36277e-06
6.95346e-07
-4.54607e-06
5.51484e-07
-4.66914e-06
3.82356e-07
-4.73065e-06
1.91969e-07
-4.73075e-06
-1.4312e-08
-4.6691e-06
-2.32509e-07
-4.54595e-06
-4.58891e-07
-4.36239e-06
-6.895e-07
-4.12046e-06
-9.20609e-07
-3.823e-06
-1.14885e-06
-3.47347e-06
-1.37131e-06
-3.07581e-06
-1.58565e-06
-2.63413e-06
-1.79004e-06
-2.15246e-06
-1.98314e-06
-1.63455e-06
-2.16394e-06
-1.08393e-06
-2.33163e-06
-5.0284e-07
-2.48515e-06
1.0907e-07
-2.62281e-06
7.51594e-07
-2.7399e-06
1.42137e-06
-2.83006e-06
2.11428e-06
-2.88762e-06
2.82535e-06
-2.90522e-06
3.54835e-06
-2.87386e-06
4.27592e-06
-2.78446e-06
4.99903e-06
-2.62916e-06
5.70515e-06
-2.40194e-06
6.37748e-06
-2.09871e-06
7.00131e-06
-1.71983e-06
7.5886e-06
-1.27478e-06
8.19259e-06
-7.7575e-07
8.86181e-06
-2.1002e-07
9.56372e-06
4.56294e-07
1.01664e-05
1.23006e-06
1.04961e-05
2.05004e-06
1.04191e-05
2.79252e-06
9.9089e-06
3.32221e-06
9.06725e-06
3.56359e-06
8.07582e-06
3.53213e-06
7.10092e-06
3.28805e-06
6.23023e-06
2.87008e-06
5.48574e-06
2.28861e-06
4.864e-06
1.55569e-06
4.37239e-06
6.75013e-07
4.04145e-06
-3.57826e-07
3.91168e-06
-1.43934e-06
3.95533e-06
-2.19863e-06
4.02383e-06
-2.20822e-06
3.93782e-06
-1.46519e-06
3.55471e-06
-3.61075e-07
2.67842e-06
8.48467e-07
1.15849e-06
2.1095e-06
-8.58371e-07
3.37266e-06
-2.95143e-06
4.43214e-06
-4.76665e-06
5.12646e-06
-6.16543e-06
5.42211e-06
-7.13997e-06
5.38184e-06
-7.76634e-06
5.09696e-06
-8.15062e-06
4.6676e-06
-8.40186e-06
4.17652e-06
-8.60636e-06
3.68085e-06
-8.81446e-06
3.21065e-06
-9.04262e-06
2.77517e-06
-9.28456e-06
2.37262e-06
-9.52385e-06
1.99766e-06
-9.74295e-06
1.64536e-06
-9.92757e-06
1.31229e-06
-1.0068e-05
9.96448e-07
-1.01584e-05
6.96882e-07
-1.01964e-05
4.13354e-07
-1.01816e-05
1.4593e-07
-1.01149e-05
-1.04828e-07
-9.99885e-06
-3.39103e-07
-9.83689e-06
-5.56546e-07
-9.6326e-06
-7.57126e-07
-9.38975e-06
-9.41415e-07
-9.11199e-06
-1.1108e-06
-8.8025e-06
-1.26753e-06
-8.46367e-06
-1.41471e-06
-8.09676e-06
-1.55601e-06
-7.70178e-06
-1.69545e-06
-7.27745e-06
-1.83679e-06
-6.82135e-06
-1.98307e-06
-6.33039e-06
-2.13585e-06
-5.80138e-06
-2.29471e-06
-5.23186e-06
-2.4568e-06
-4.62094e-06
-2.61675e-06
-3.97007e-06
-2.76702e-06
-3.28344e-06
-2.89885e-06
-2.56806e-06
-3.00344e-06
-1.83349e-06
-3.07288e-06
-1.09042e-06
-3.10222e-06
-3.50265e-07
-3.08908e-06
3.74566e-07
-3.03242e-06
1.07339e-06
-2.9343e-06
1.73934e-06
-2.80226e-06
2.36547e-06
-2.64333e-06
2.94681e-06
-2.4641e-06
3.4803e-06
-2.27077e-06
3.96436e-06
-2.069e-06
4.39858e-06
-1.86369e-06
4.78357e-06
-1.65892e-06
5.12064e-06
-1.45793e-06
5.41171e-06
-1.26326e-06
5.65913e-06
-1.07677e-06