# vtk DataFile Version 2.0
sampleSurface
ASCII
DATASET POLYDATA
POINTS 502 float
-0.0206 0 -0.0005 -0.0190172 0 -0.0005 -0.0190172 0 0.0005 -0.0206 0
0.0005 -0.0174976 0 -0.0005 -0.0174976 0 0.0005 -0.0160387 0 -0.0005
-0.0160387 0 0.0005 -0.0146381 0 -0.0005 -0.0146381 0 0.0005 -0.0132934
0 -0.0005 -0.0132934 0 0.0005 -0.0120025 0 -0.0005 -0.0120025 0
0.0005 -0.0107632 0 -0.0005 -0.0107632 0 0.0005 -0.00957337 0 -0.0005
-0.00957337 0 0.0005 -0.00843108 0 -0.0005 -0.00843108 0 0.0005 -0.00733443
0 -0.0005 -0.00733443 0 0.0005 -0.0062816 0 -0.0005 -0.0062816 0
0.0005 -0.00527083 0 -0.0005 -0.00527083 0 0.0005 -0.00430044 0 -0.0005
-0.00430044 0 0.0005 -0.00336883 0 -0.0005 -0.00336883 0 0.0005 -0.00247443
0 -0.0005 -0.00247443 0 0.0005 -0.00161577 0 -0.0005 -0.00161577 0
0.0005 -0.000791418 0 -0.0005 -0.000791418 0 0.0005 0 0 -0.0005
0 0 0.0005 0 -0.0254 -0.0005 0 -0.0254 0.0005 0
-0.0242711 0.0005 0 -0.0242711 -0.0005 0 -0.0231422 0.0005 0 -0.0231422
-0.0005 0 -0.0220133 0.0005 0 -0.0220133 -0.0005 0 -0.0208844 0.0005
0 -0.0208844 -0.0005 0 -0.0197556 0.0005 0 -0.0197556 -0.0005 0
-0.0186267 0.0005 0 -0.0186267 -0.0005 0 -0.0174978 0.0005 0 -0.0174978
-0.0005 0 -0.0163689 0.0005 0 -0.0163689 -0.0005 0 -0.01524 0.0005
0 -0.01524 -0.0005 0 -0.0141111 0.0005 0 -0.0141111 -0.0005 0
-0.0129822 0.0005 0 -0.0129822 -0.0005 0 -0.0118533 0.0005 0 -0.0118533
-0.0005 0 -0.0107244 0.0005 0 -0.0107244 -0.0005 0 -0.00959556 0.0005
0 -0.00959556 -0.0005 0 -0.00846667 0.0005 0 -0.00846667 -0.0005 0
-0.00726604 0.0005 0 -0.00726604 -0.0005 0 -0.00618989 0.0005 0 -0.00618989
-0.0005 0 -0.00522531 0.0005 0 -0.00522531 -0.0005 0 -0.00436073 0.0005
0 -0.00436073 -0.0005 0 -0.00358579 0.0005 0 -0.00358579 -0.0005 0
-0.00289118 0.0005 0 -0.00289118 -0.0005 0 -0.0022686 0.0005 0 -0.0022686
-0.0005 0 -0.00171055 0.0005 0 -0.00171055 -0.0005 0 -0.00121037 0.0005
0 -0.00121037 -0.0005 0 -0.000762037 0.0005 0 -0.000762037 -0.0005 0
-0.000360188 0.0005 0 -0.000360188 -0.0005 0.000528387 -0.0254 -0.0005 0.000528387 -0.0254
0.0005 0.00106088 -0.0254 -0.0005 0.00106088 -0.0254 0.0005 0.00159752 -0.0254 -0.0005
0.00159752 -0.0254 0.0005 0.00213833 -0.0254 -0.0005 0.00213833 -0.0254 0.0005 0.00268334
-0.0254 -0.0005 0.00268334 -0.0254 0.0005 0.00323259 -0.0254 -0.0005 0.00323259 -0.0254
0.0005 0.00378611 -0.0254 -0.0005 0.00378611 -0.0254 0.0005 0.00434393 -0.0254 -0.0005
0.00434393 -0.0254 0.0005 0.00490609 -0.0254 -0.0005 0.00490609 -0.0254 0.0005 0.00547262
-0.0254 -0.0005 0.00547262 -0.0254 0.0005 0.00604356 -0.0254 -0.0005 0.00604356 -0.0254
0.0005 0.00661893 -0.0254 -0.0005 0.00661893 -0.0254 0.0005 0.00719878 -0.0254 -0.0005
0.00719878 -0.0254 0.0005 0.00778313 -0.0254 -0.0005 0.00778313 -0.0254 0.0005 0.00837203
-0.0254 -0.0005 0.00837203 -0.0254 0.0005 0.00896551 -0.0254 -0.0005 0.00896551 -0.0254
0.0005 0.0095636 -0.0254 -0.0005 0.0095636 -0.0254 0.0005 0.0101663 -0.0254 -0.0005
0.0101663 -0.0254 0.0005 0.0107738 -0.0254 -0.0005 0.0107738 -0.0254 0.0005 0.0113859
-0.0254 -0.0005 0.0113859 -0.0254 0.0005 0.0120028 -0.0254 -0.0005 0.0120028 -0.0254
0.0005 0.0126245 -0.0254 -0.0005 0.0126245 -0.0254 0.0005 0.0132511 -0.0254 -0.0005
0.0132511 -0.0254 0.0005 0.0138825 -0.0254 -0.0005 0.0138825 -0.0254 0.0005 0.0145188
-0.0254 -0.0005 0.0145188 -0.0254 0.0005 0.0151601 -0.0254 -0.0005 0.0151601 -0.0254
0.0005 0.0158063 -0.0254 -0.0005 0.0158063 -0.0254 0.0005 0.0164576 -0.0254 -0.0005
0.0164576 -0.0254 0.0005 0.0171139 -0.0254 -0.0005 0.0171139 -0.0254 0.0005 0.0177754
-0.0254 -0.0005 0.0177754 -0.0254 0.0005 0.018442 -0.0254 -0.0005 0.018442 -0.0254
0.0005 0.0191137 -0.0254 -0.0005 0.0191137 -0.0254 0.0005 0.0197907 -0.0254 -0.0005
0.0197907 -0.0254 0.0005 0.020473 -0.0254 -0.0005 0.020473 -0.0254 0.0005 0.0211606
-0.0254 -0.0005 0.0211606 -0.0254 0.0005 0.0218535 -0.0254 -0.0005 0.0218535 -0.0254
0.0005 0.0225517 -0.0254 -0.0005 0.0225517 -0.0254 0.0005 0.0232555 -0.0254 -0.0005
0.0232555 -0.0254 0.0005 0.0239647 -0.0254 -0.0005 0.0239647 -0.0254 0.0005 0.0246794
-0.0254 -0.0005 0.0246794 -0.0254 0.0005 0.0253996 -0.0254 -0.0005 0.0253996 -0.0254
0.0005 0.0261255 -0.0254 -0.0005 0.0261255 -0.0254 0.0005 0.026857 -0.0254 -0.0005
0.026857 -0.0254 0.0005 0.0275942 -0.0254 -0.0005 0.0275942 -0.0254 0.0005 0.0283371
-0.0254 -0.0005 0.0283371 -0.0254 0.0005 0.0290858 -0.0254 -0.0005 0.0290858 -0.0254
0.0005 0.0298403 -0.0254 -0.0005 0.0298403 -0.0254 0.0005 0.0306007 -0.0254 -0.0005
0.0306007 -0.0254 0.0005 0.031367 -0.0254 -0.0005 0.031367 -0.0254 0.0005 0.0321393
-0.0254 -0.0005 0.0321393 -0.0254 0.0005 0.0329175 -0.0254 -0.0005 0.0329175 -0.0254
0.0005 0.0337019 -0.0254 -0.0005 0.0337019 -0.0254 0.0005 0.0344923 -0.0254 -0.0005
0.0344923 -0.0254 0.0005 0.0352888 -0.0254 -0.0005 0.0352888 -0.0254 0.0005 0.0360916
-0.0254 -0.0005 0.0360916 -0.0254 0.0005 0.0369006 -0.0254 -0.0005 0.0369006 -0.0254
0.0005 0.0377158 -0.0254 -0.0005 0.0377158 -0.0254 0.0005 0.0385375 -0.0254 -0.0005
0.0385375 -0.0254 0.0005 0.0393655 -0.0254 -0.0005 0.0393655 -0.0254 0.0005 0.0401999
-0.0254 -0.0005 0.0401999 -0.0254 0.0005 0.0410408 -0.0254 -0.0005 0.0410408 -0.0254
0.0005 0.0418883 -0.0254 -0.0005 0.0418883 -0.0254 0.0005 0.0427424 -0.0254 -0.0005
0.0427424 -0.0254 0.0005 0.0436031 -0.0254 -0.0005 0.0436031 -0.0254 0.0005 0.0444704
-0.0254 -0.0005 0.0444704 -0.0254 0.0005 0.0453446 -0.0254 -0.0005 0.0453446 -0.0254
0.0005 0.0462255 -0.0254 -0.0005 0.0462255 -0.0254 0.0005 0.0471133 -0.0254 -0.0005
0.0471133 -0.0254 0.0005 0.048008 -0.0254 -0.0005 0.048008 -0.0254 0.0005 0.0489096
-0.0254 -0.0005 0.0489096 -0.0254 0.0005 0.0498183 -0.0254 -0.0005 0.0498183 -0.0254
0.0005 0.050734 -0.0254 -0.0005 0.050734 -0.0254 0.0005 0.0516568 -0.0254 -0.0005
0.0516568 -0.0254 0.0005 0.0525868 -0.0254 -0.0005 0.0525868 -0.0254 0.0005 0.053524
-0.0254 -0.0005 0.053524 -0.0254 0.0005 0.0544686 -0.0254 -0.0005 0.0544686 -0.0254
0.0005 0.0554204 -0.0254 -0.0005 0.0554204 -0.0254 0.0005 0.0563797 -0.0254 -0.0005
0.0563797 -0.0254 0.0005 0.0573464 -0.0254 -0.0005 0.0573464 -0.0254 0.0005 0.0583206
-0.0254 -0.0005 0.0583206 -0.0254 0.0005 0.0593025 -0.0254 -0.0005 0.0593025 -0.0254
0.0005 0.0602919 -0.0254 -0.0005 0.0602919 -0.0254 0.0005 0.0612891 -0.0254 -0.0005
0.0612891 -0.0254 0.0005 0.0622939 -0.0254 -0.0005 0.0622939 -0.0254 0.0005 0.0633067
-0.0254 -0.0005 0.0633067 -0.0254 0.0005 0.0643272 -0.0254 -0.0005 0.0643272 -0.0254
0.0005 0.0653557 -0.0254 -0.0005 0.0653557 -0.0254 0.0005 0.0663923 -0.0254 -0.0005
0.0663923 -0.0254 0.0005 0.0674368 -0.0254 -0.0005 0.0674368 -0.0254 0.0005 0.0684895
-0.0254 -0.0005 0.0684895 -0.0254 0.0005 0.0695504 -0.0254 -0.0005 0.0695504 -0.0254
0.0005 0.0706195 -0.0254 -0.0005 0.0706195 -0.0254 0.0005 0.0716969 -0.0254 -0.0005
0.0716969 -0.0254 0.0005 0.0727828 -0.0254 -0.0005 0.0727828 -0.0254 0.0005 0.073877
-0.0254 -0.0005 0.073877 -0.0254 0.0005 0.0749798 -0.0254 -0.0005 0.0749798 -0.0254
0.0005 0.0760911 -0.0254 -0.0005 0.0760911 -0.0254 0.0005 0.0772111 -0.0254 -0.0005
0.0772111 -0.0254 0.0005 0.0783398 -0.0254 -0.0005 0.0783398 -0.0254 0.0005 0.0794772
-0.0254 -0.0005 0.0794772 -0.0254 0.0005 0.0806235 -0.0254 -0.0005 0.0806235 -0.0254
0.0005 0.0817787 -0.0254 -0.0005 0.0817787 -0.0254 0.0005 0.0829429 -0.0254 -0.0005
0.0829429 -0.0254 0.0005 0.0841162 -0.0254 -0.0005 0.0841162 -0.0254 0.0005 0.0852985
-0.0254 -0.0005 0.0852985 -0.0254 0.0005 0.0864901 -0.0254 -0.0005 0.0864901 -0.0254
0.0005 0.0876909 -0.0254 -0.0005 0.0876909 -0.0254 0.0005 0.0889011 -0.0254 -0.0005
0.0889011 -0.0254 0.0005 0.0901207 -0.0254 -0.0005 0.0901207 -0.0254 0.0005 0.0913497
-0.0254 -0.0005 0.0913497 -0.0254 0.0005 0.0925883 -0.0254 -0.0005 0.0925883 -0.0254
0.0005 0.0938366 -0.0254 -0.0005 0.0938366 -0.0254 0.0005 0.0950945 -0.0254 -0.0005
0.0950945 -0.0254 0.0005 0.0963622 -0.0254 -0.0005 0.0963622 -0.0254 0.0005 0.0976398
-0.0254 -0.0005 0.0976398 -0.0254 0.0005 0.0989273 -0.0254 -0.0005 0.0989273 -0.0254
0.0005 0.100225 -0.0254 -0.0005 0.100225 -0.0254 0.0005 0.101532 -0.0254 -0.0005
0.101532 -0.0254 0.0005 0.10285 -0.0254 -0.0005 0.10285 -0.0254 0.0005 0.104178
-0.0254 -0.0005 0.104178 -0.0254 0.0005 0.105517 -0.0254 -0.0005 0.105517 -0.0254
0.0005 0.106865 -0.0254 -0.0005 0.106865 -0.0254 0.0005 0.108225 -0.0254 -0.0005
0.108225 -0.0254 0.0005 0.109594 -0.0254 -0.0005 0.109594 -0.0254 0.0005 0.110975
-0.0254 -0.0005 0.110975 -0.0254 0.0005 0.112366 -0.0254 -0.0005 0.112366 -0.0254
0.0005 0.113768 -0.0254 -0.0005 0.113768 -0.0254 0.0005 0.115181 -0.0254 -0.0005
0.115181 -0.0254 0.0005 0.116605 -0.0254 -0.0005 0.116605 -0.0254 0.0005 0.11804
-0.0254 -0.0005 0.11804 -0.0254 0.0005 0.119486 -0.0254 -0.0005 0.119486 -0.0254
0.0005 0.120943 -0.0254 -0.0005 0.120943 -0.0254 0.0005 0.122412 -0.0254 -0.0005
0.122412 -0.0254 0.0005 0.123892 -0.0254 -0.0005 0.123892 -0.0254 0.0005 0.125384
-0.0254 -0.0005 0.125384 -0.0254 0.0005 0.126887 -0.0254 -0.0005 0.126887 -0.0254
0.0005 0.128402 -0.0254 -0.0005 0.128402 -0.0254 0.0005 0.129928 -0.0254 -0.0005
0.129928 -0.0254 0.0005 0.131467 -0.0254 -0.0005 0.131467 -0.0254 0.0005 0.133017
-0.0254 -0.0005 0.133017 -0.0254 0.0005 0.13458 -0.0254 -0.0005 0.13458 -0.0254
0.0005 0.136155 -0.0254 -0.0005 0.136155 -0.0254 0.0005 0.137742 -0.0254 -0.0005
0.137742 -0.0254 0.0005 0.139341 -0.0254 -0.0005 0.139341 -0.0254 0.0005 0.140953
-0.0254 -0.0005 0.140953 -0.0254 0.0005 0.142577 -0.0254 -0.0005 0.142577 -0.0254
0.0005 0.144214 -0.0254 -0.0005 0.144214 -0.0254 0.0005 0.145863 -0.0254 -0.0005
0.145863 -0.0254 0.0005 0.147526 -0.0254 -0.0005 0.147526 -0.0254 0.0005 0.149201
-0.0254 -0.0005 0.149201 -0.0254 0.0005 0.15089 -0.0254 -0.0005 0.15089 -0.0254
0.0005 0.152591 -0.0254 -0.0005 0.152591 -0.0254 0.0005 0.154306 -0.0254 -0.0005
0.154306 -0.0254 0.0005 0.156034 -0.0254 -0.0005 0.156034 -0.0254 0.0005 0.157775
-0.0254 -0.0005 0.157775 -0.0254 0.0005 0.159531 -0.0254 -0.0005 0.159531 -0.0254
0.0005 0.161299 -0.0254 -0.0005 0.161299 -0.0254 0.0005 0.163082 -0.0254 -0.0005
0.163082 -0.0254 0.0005 0.164878 -0.0254 -0.0005 0.164878 -0.0254 0.0005 0.166688
-0.0254 -0.0005 0.166688 -0.0254 0.0005 0.168513 -0.0254 -0.0005 0.168513 -0.0254
0.0005 0.170351 -0.0254 -0.0005 0.170351 -0.0254 0.0005 0.172204 -0.0254 -0.0005
0.172204 -0.0254 0.0005 0.174071 -0.0254 -0.0005 0.174071 -0.0254 0.0005 0.175953
-0.0254 -0.0005 0.175953 -0.0254 0.0005 0.177849 -0.0254 -0.0005 0.177849 -0.0254
0.0005 0.17976 -0.0254 -0.0005 0.17976 -0.0254 0.0005 0.181686 -0.0254 -0.0005
0.181686 -0.0254 0.0005 0.183627 -0.0254 -0.0005 0.183627 -0.0254 0.0005 0.185583
-0.0254 -0.0005 0.185583 -0.0254 0.0005 0.187555 -0.0254 -0.0005 0.187555 -0.0254
0.0005 0.189541 -0.0254 -0.0005 0.189541 -0.0254 0.0005 0.191543 -0.0254 -0.0005
0.191543 -0.0254 0.0005 0.193561 -0.0254 -0.0005 0.193561 -0.0254 0.0005 0.195594
-0.0254 -0.0005 0.195594 -0.0254 0.0005 0.197643 -0.0254 -0.0005 0.197643 -0.0254
0.0005 0.199708 -0.0254 -0.0005 0.199708 -0.0254 0.0005 0.201789 -0.0254 -0.0005
0.201789 -0.0254 0.0005 0.203886 -0.0254 -0.0005 0.203886 -0.0254 0.0005 0.206
-0.0254 -0.0005 0.206 -0.0254 0.0005 0.208047 -0.0251856 -0.0005 0.208047 -0.0251856
0.0005 0.210173 -0.0249628 -0.0005 0.210173 -0.0249628 0.0005 0.212382 -0.0247314 -0.0005
0.212382 -0.0247314 0.0005 0.214677 -0.024491 -0.0005 0.214677 -0.024491 0.0005 0.217061
-0.0242412 -0.0005 0.217061 -0.0242412 0.0005 0.219538 -0.0239817 -0.0005 0.219538 -0.0239817
0.0005 0.222112 -0.0237121 -0.0005 0.222112 -0.0237121 0.0005 0.224785 -0.023432 -0.0005
0.224785 -0.023432 0.0005 0.227563 -0.023141 -0.0005 0.227563 -0.023141 0.0005 0.230449
-0.0228387 -0.0005 0.230449 -0.0228387 0.0005 0.233447 -0.0225246 -0.0005 0.233447 -0.0225246
0.0005 0.236562 -0.0221983 -0.0005 0.236562 -0.0221983 0.0005 0.239797 -0.0218593 -0.0005
0.239797 -0.0218593 0.0005 0.243159 -0.0215071 -0.0005 0.243159 -0.0215071 0.0005 0.246652
-0.0211412 -0.0005 0.246652 -0.0211412 0.0005 0.250281 -0.0207611 -0.0005 0.250281 -0.0207611
0.0005 0.254051 -0.0203661 -0.0005 0.254051 -0.0203661 0.0005 0.257967 -0.0199558 -0.0005
0.257967 -0.0199558 0.0005 0.262036 -0.0195295 -0.0005 0.262036 -0.0195295 0.0005 0.266264
-0.0190867 -0.0005 0.266264 -0.0190867 0.0005 0.270655 -0.0186266 -0.0005 0.270655 -0.0186266
0.0005 0.275218 -0.0181486 -0.0005 0.275218 -0.0181486 0.0005 0.279959 -0.017652 -0.0005
0.279959 -0.017652 0.0005 0.284883 -0.017136 -0.0005 0.284883 -0.017136 0.0005 0.29
-0.0166 -0.0005 0.29 -0.0166 0.0005 
POLYGONS 250 1250
4 0 1 2 3 4 1 4 5 2 4
4 6 7 5 4 6 8 9 7 4
8 10 11 9 4 10 12 13 11 4
12 14 15 13 4 14 16 17 15 4
16 18 19 17 4 18 20 21 19 4
20 22 23 21 4 22 24 25 23 4
24 26 27 25 4 26 28 29 27 4
28 30 31 29 4 30 32 33 31 4
32 34 35 33 4 34 36 37 35 4
38 39 40 41 4 41 40 42 43 4
43 42 44 45 4 45 44 46 47 4
47 46 48 49 4 49 48 50 51 4
51 50 52 53 4 53 52 54 55 4
55 54 56 57 4 57 56 58 59 4
59 58 60 61 4 61 60 62 63 4
63 62 64 65 4 65 64 66 67 4
67 66 68 69 4 69 68 70 71 4
71 70 72 73 4 73 72 74 75 4
75 74 76 77 4 77 76 78 79 4
79 78 80 81 4 81 80 82 83 4
83 82 84 85 4 85 84 86 87 4
87 86 88 89 4 89 88 90 91 4
91 90 37 36 4 38 92 93 39 4
92 94 95 93 4 94 96 97 95 4
96 98 99 97 4 98 100 101 99 4
100 102 103 101 4 102 104 105 103 4
104 106 107 105 4 106 108 109 107 4
108 110 111 109 4 110 112 113 111 4
112 114 115 113 4 114 116 117 115 4
116 118 119 117 4 118 120 121 119 4
120 122 123 121 4 122 124 125 123 4
124 126 127 125 4 126 128 129 127 4
128 130 131 129 4 130 132 133 131 4
132 134 135 133 4 134 136 137 135 4
136 138 139 137 4 138 140 141 139 4
140 142 143 141 4 142 144 145 143 4
144 146 147 145 4 146 148 149 147 4
148 150 151 149 4 150 152 153 151 4
152 154 155 153 4 154 156 157 155 4
156 158 159 157 4 158 160 161 159 4
160 162 163 161 4 162 164 165 163 4
164 166 167 165 4 166 168 169 167 4
168 170 171 169 4 170 172 173 171 4
172 174 175 173 4 174 176 177 175 4
176 178 179 177 4 178 180 181 179 4
180 182 183 181 4 182 184 185 183 4
184 186 187 185 4 186 188 189 187 4
188 190 191 189 4 190 192 193 191 4
192 194 195 193 4 194 196 197 195 4
196 198 199 197 4 198 200 201 199 4
200 202 203 201 4 202 204 205 203 4
204 206 207 205 4 206 208 209 207 4
208 210 211 209 4 210 212 213 211 4
212 214 215 213 4 214 216 217 215 4
216 218 219 217 4 218 220 221 219 4
220 222 223 221 4 222 224 225 223 4
224 226 227 225 4 226 228 229 227 4
228 230 231 229 4 230 232 233 231 4
232 234 235 233 4 234 236 237 235 4
236 238 239 237 4 238 240 241 239 4
240 242 243 241 4 242 244 245 243 4
244 246 247 245 4 246 248 249 247 4
248 250 251 249 4 250 252 253 251 4
252 254 255 253 4 254 256 257 255 4
256 258 259 257 4 258 260 261 259 4
260 262 263 261 4 262 264 265 263 4
264 266 267 265 4 266 268 269 267 4
268 270 271 269 4 270 272 273 271 4
272 274 275 273 4 274 276 277 275 4
276 278 279 277 4 278 280 281 279 4
280 282 283 281 4 282 284 285 283 4
284 286 287 285 4 286 288 289 287 4
288 290 291 289 4 290 292 293 291 4
292 294 295 293 4 294 296 297 295 4
296 298 299 297 4 298 300 301 299 4
300 302 303 301 4 302 304 305 303 4
304 306 307 305 4 306 308 309 307 4
308 310 311 309 4 310 312 313 311 4
312 314 315 313 4 314 316 317 315 4
316 318 319 317 4 318 320 321 319 4
320 322 323 321 4 322 324 325 323 4
324 326 327 325 4 326 328 329 327 4
328 330 331 329 4 330 332 333 331 4
332 334 335 333 4 334 336 337 335 4
336 338 339 337 4 338 340 341 339 4
340 342 343 341 4 342 344 345 343 4
344 346 347 345 4 346 348 349 347 4
348 350 351 349 4 350 352 353 351 4
352 354 355 353 4 354 356 357 355 4
356 358 359 357 4 358 360 361 359 4
360 362 363 361 4 362 364 365 363 4
364 366 367 365 4 366 368 369 367 4
368 370 371 369 4 370 372 373 371 4
372 374 375 373 4 374 376 377 375 4
376 378 379 377 4 378 380 381 379 4
380 382 383 381 4 382 384 385 383 4
384 386 387 385 4 386 388 389 387 4
388 390 391 389 4 390 392 393 391 4
392 394 395 393 4 394 396 397 395 4
396 398 399 397 4 398 400 401 399 4
400 402 403 401 4 402 404 405 403 4
404 406 407 405 4 406 408 409 407 4
408 410 411 409 4 410 412 413 411 4
412 414 415 413 4 414 416 417 415 4
416 418 419 417 4 418 420 421 419 4
420 422 423 421 4 422 424 425 423 4
424 426 427 425 4 426 428 429 427 4
428 430 431 429 4 430 432 433 431 4
432 434 435 433 4 434 436 437 435 4
436 438 439 437 4 438 440 441 439 4
440 442 443 441 4 442 444 445 443 4
444 446 447 445 4 446 448 449 447 4
448 450 451 449 4 450 452 453 451 4
452 454 455 453 4 454 456 457 455 4
456 458 459 457 4 458 460 461 459 4
460 462 463 461 4 462 464 465 463 4
464 466 467 465 4 466 468 469 467 4
468 470 471 469 4 470 472 473 471 4
472 474 475 473 4 474 476 477 475 4
476 478 479 477 4 478 480 481 479 4
480 482 483 481 4 482 484 485 483 4
484 486 487 485 4 486 488 489 487 4
488 490 491 489 4 490 492 493 491 4
492 494 495 493 4 494 496 497 495 4
496 498 499 497 4 498 500 501 499 
POINT_DATA 502
FIELD attributes 1
U 3 502 float
3.18126 -0.0091663 -0.00572765 1.59782 -0.00434868 -0.00282259 1.59782 -0.00434868 -0.00282259 3.18126 -0.0091663
-0.00572765 0.0586162 0.00028558 0 0.0586162 0.00028558 0 0.0571741 0.000233441 0
0.0571741 0.000233441 0 0.0555601 0.000271717 0 0.0555601 0.000271717 0 0.0536693
0.00036735 0 0.0536693 0.00036735 0 0.0516348 0.000430384 0 0.0516348 0.000430384
0 0.0497654 0.000405931 0 0.0497654 0.000405931 0 0.0482407 0.000313777 0
0.0482407 0.000313777 0 0.0470609 0.000225977 0 0.0470609 0.000225977 0 0.0460419
0.0002031 0 0.0460419 0.0002031 0 0.0450415 0.000251491 0 0.0450415 0.000251491
0 0.0438722 0.000342852 0 0.0438722 0.000342852 0 0.0425947 0.000419675 0
0.0425947 0.000419675 0 0.0411232 0.000442264 0 0.0411232 0.000442264 0 0.0397877
0.000400988 0 0.0397877 0.000400988 0 0.0383745 0.000379547 0 0.0383745 0.000379547
0 0.037317 0.000285994 0 0.037317 0.000285994 0 0.0161941 0.000501189 0
0.0161941 0.000501189 0 -3.12576e-05 6.43633e-06 -6.06809e-23 -3.12576e-05 6.43633e-06 -6.06809e-23 -0.000116489
0.000380157 1.64037e-22 -0.000116489 0.000380157 1.64037e-22 -0.000213242 0.00135816 1.94464e-22 -0.000213242 0.00135816
1.94464e-22 -0.000212723 0.00250787 -3.88907e-22 -0.000212723 0.00250787 -3.88907e-22 -0.000185652 0.00354338 -1.29656e-22
-0.000185652 0.00354338 -1.29656e-22 -0.00015639 0.00446235 2.59337e-22 -0.00015639 0.00446235 2.59337e-22 -0.000129077
0.00526146 0 -0.000129077 0.00526146 0 -0.00010204 0.00594575 5.22136e-22 -0.00010204 0.00594575
5.22136e-22 -7.18151e-05 0.00651266 8.82065e-26 -7.18151e-05 0.00651266 8.82065e-26 -3.62979e-05 0.00694491 -5.22048e-22
-3.62979e-05 0.00694491 -5.22048e-22 5.02739e-06 0.00721852 5.24758e-22 5.02739e-06 0.00721852 5.24758e-22 5.39236e-05
0.00730834 2.58957e-28 5.39236e-05 0.00730834 2.58957e-28 0.000115924 0.00717733 -5.24757e-22 0.000115924 0.00717733
-5.24757e-22 0.000193974 0.0067738 -5.26431e-22 0.000193974 0.0067738 -5.26431e-22 0.000289248 0.00604818 1.07066e-25
0.000289248 0.00604818 1.07066e-25 0.000410288 0.00491016 5.3587e-22 0.000410288 0.00491016 5.3587e-22 0.000560819
0.0031752 0 0.000560819 0.0031752 0 0.00061528 0.000973727 0 0.00061528 0.000973727
0 0.000317442 -0.00120874 0 0.000317442 -0.00120874 0 5.52695e-05 -0.00250791 0
5.52695e-05 -0.00250791 0 0.000356458 -0.00342613 0 0.000356458 -0.00342613 0 0.000515556
-0.00475401 0 0.000515556 -0.00475401 0 -0.000102523 -0.00535828 0 -0.000102523 -0.00535828
0 -0.00097187 -0.0044969 0 -0.00097187 -0.0044969 0 -0.00168487 -0.00298308 0
-0.00168487 -0.00298308 0 -0.00155852 -0.0005391 0 -0.00155852 -0.0005391 0 -0.00121083
0.000933512 0 -0.00121083 0.000933512 0 -7.8879e-05 1.35134e-05 -2.55971e-25 -7.8879e-05 1.35134e-05
-2.55971e-25 -0.000178114 2.71893e-05 3.01618e-23 -0.000178114 2.71893e-05 3.01618e-23 -0.000287228 4.3457e-05 0
-0.000287228 4.3457e-05 0 -0.000410779 6.53297e-05 0 -0.000410779 6.53297e-05 0 -0.000552505
9.14146e-05 -2.92899e-23 -0.000552505 9.14146e-05 -2.92899e-23 -0.000714289 0.000120028 -2.93425e-23 -0.000714289 0.000120028
-2.93425e-23 -0.000897194 0.000149604 0 -0.000897194 0.000149604 0 -0.00110153 0.00017894 0
-0.00110153 0.00017894 0 -0.00132709 0.000207222 0 -0.00132709 0.000207222 0 -0.00157349
0.00023401 2.83222e-23 -0.00157349 0.00023401 2.83222e-23 -0.00184015 0.000259113 2.83761e-23 -0.00184015 0.000259113
2.83761e-23 -0.00212645 0.000282433 0 -0.00212645 0.000282433 0 -0.00243171 0.000303925 0
-0.00243171 0.000303925 0 -0.00275522 0.000323562 0 -0.00275522 0.000323562 0 -0.00309626
0.000341302 2.7441e-23 -0.00309626 0.000341302 2.7441e-23 -0.00345392 0.000357107 2.74964e-23 -0.00345392 0.000357107
2.74964e-23 -0.00382694 0.000370911 0 -0.00382694 0.000370911 0 -0.00421355 0.000382502 0
-0.00421355 0.000382502 0 -0.00461167 0.000391538 0 -0.00461167 0.000391538 0 -0.00501894
0.000397656 0 -0.00501894 0.000397656 0 -0.0054326 0.000400483 0 -0.0054326 0.000400483
0 -0.0058495 0.000399623 0 -0.0058495 0.000399623 0 -0.00626598 0.000394689 2.62531e-23
-0.00626598 0.000394689 2.62531e-23 -0.00667794 0.000385367 1.94442e-25 -0.00667794 0.000385367 1.94442e-25 -0.00708078
0.000371442 -1.95848e-25 -0.00708078 0.000371442 -1.95848e-25 -0.00746954 0.000352786 5.18766e-23 -0.00746954 0.000352786
5.18766e-23 -0.00783887 0.000329347 2.58978e-23 -0.00783887 0.000329347 2.58978e-23 -0.00818317 0.000301169 0
-0.00818317 0.000301169 0 -0.00849666 0.000268426 -2.53772e-23 -0.00849666 0.000268426 -2.53772e-23 -0.00877361
0.000231463 -5.06388e-23 -0.00877361 0.000231463 -5.06388e-23 -0.00900848 0.0001908 -2.52618e-23 -0.00900848 0.0001908
-2.52618e-23 -0.00919619 0.000147126 0 -0.00919619 0.000147126 0 -0.009332 0.000101345 -2.4579e-23
-0.009332 0.000101345 -2.4579e-23 -0.00941215 5.44174e-05 -2.46396e-23 -0.00941215 5.44174e-05 -2.46396e-23 -0.00943321
7.05309e-06 0 -0.00943321 7.05309e-06 0 -0.00939462 -3.97857e-05 2.37791e-23 -0.00939462 -3.97857e-05
2.37791e-23 -0.00929709 -8.54136e-05 2.38395e-23 -0.00929709 -8.54136e-05 2.38395e-23 -0.00914056 -0.00012957 2.31457e-23
-0.00914056 -0.00012957 2.31457e-23 -0.00892652 -0.00017168 6.88141e-23 -0.00892652 -0.00017168 6.88141e-23 -0.00865722
-0.000211164 4.57278e-23 -0.00865722 -0.000211164 4.57278e-23 -0.00833568 -0.000247476 0 -0.00833568 -0.000247476
0 -0.00796566 -0.000280121 0 -0.00796566 -0.000280121 0 -0.00755163 -0.000308692 0
-0.00755163 -0.000308692 0 -0.00709864 -0.000332903 0 -0.00709864 -0.000332903 0 -0.00661213
-0.000352593 4.11868e-23 -0.00661213 -0.000352593 4.11868e-23 -0.00609786 -0.00036767 8.17596e-23 -0.00609786 -0.00036767
8.17596e-23 -0.00556162 -0.000378143 8.0319e-23 -0.00556162 -0.000378143 8.0319e-23 -0.00500914 -0.000384287 3.986e-23
-0.00500914 -0.000384287 3.986e-23 -0.00444614 -0.000386502 -3.83946e-23 -0.00444614 -0.000386502 -3.83946e-23 -0.00387805
-0.000384874 -3.85059e-23 -0.00387805 -0.000384874 -3.85059e-23 -0.00330942 -0.000379758 3.71504e-23 -0.00330942 -0.000379758
3.71504e-23 -0.00274431 -0.000372065 7.38314e-23 -0.00274431 -0.000372065 7.38314e-23 -0.00218679 -0.000361944 3.66804e-23
-0.00218679 -0.000361944 3.66804e-23 -0.00164022 -0.000349728 0 -0.00164022 -0.000349728 0 -0.00110702
-0.000336246 0 -0.00110702 -0.000336246 0 -0.000589517 -0.000321681 3.45302e-23 -0.000589517 -0.000321681
3.45302e-23 -9.07197e-05 -0.000306809 3.46371e-23 -9.07197e-05 -0.000306809 3.46371e-23 0.000388035 -0.000291592 0
0.000388035 -0.000291592 0 0.00084816 -0.000275823 0 0.00084816 -0.000275823 0 0.00128958
-0.000260163 0 0.00128958 -0.000260163 0 0.00171112 -0.000244737 0 0.00171112 -0.000244737
0 0.00211274 -0.000229659 0 0.00211274 -0.000229659 0 0.00249462 -0.00021502 0
0.00249462 -0.00021502 0 0.00285708 -0.00020089 0 0.00285708 -0.00020089 0 0.00320057
-0.000187317 -3.08945e-23 0.00320057 -0.000187317 -3.08945e-23 0.00352561 -0.000174334 -3.09983e-23 0.00352561 -0.000174334
-3.09983e-23 0.00383281 -0.00016196 0 0.00383281 -0.00016196 0 0.00412279 -0.000150205 2.99193e-23
0.00412279 -0.000150205 2.99193e-23 0.00439621 -0.000139069 5.96329e-23 0.00439621 -0.000139069 5.96329e-23 0.00465374
-0.000128547 2.97133e-23 0.00465374 -0.000128547 2.97133e-23 0.00489608 -0.000118629 -2.90114e-23 0.00489608 -0.000118629
-2.90114e-23 0.0051239 -0.000109301 -3.94004e-25 0.0051239 -0.000109301 -3.94004e-25 0.00533788 -0.000100546 2.88225e-23
0.00533788 -0.000100546 2.88225e-23 0.00553869 -9.23459e-05 -2.81508e-23 0.00553869 -9.23459e-05 -2.81508e-23 0.00572699
-8.46803e-05 -2.82529e-23 0.00572699 -8.46803e-05 -2.82529e-23 0.00590341 -7.75283e-05 0 0.00590341 -7.75283e-05
0 0.0060686 -7.08678e-05 2.73239e-23 0.0060686 -7.08678e-05 2.73239e-23 0.00622315 -6.46767e-05 2.74255e-23
0.00622315 -6.46767e-05 2.74255e-23 0.00636766 -5.89323e-05 -2.67867e-23 0.00636766 -5.89323e-05 -2.67867e-23 0.00650269
-5.36122e-05 -2.68879e-23 0.00650269 -5.36122e-05 -2.68879e-23 0.00662879 -4.86936e-05 2.62586e-23 0.00662879 -4.86936e-05
2.62586e-23 0.00674649 -4.41545e-05 5.23569e-23 0.00674649 -4.41545e-05 5.23569e-23 0.00685631 -3.99727e-05 5.18362e-23
0.00685631 -3.99727e-05 5.18362e-23 0.00695871 -3.61266e-05 7.67994e-23 0.00695871 -3.61266e-05 7.67994e-23 0.00705418
-3.25951e-05 7.12482e-25 0.00705418 -3.25951e-05 7.12482e-25 0.00714315 -2.93575e-05 -5.06484e-23 0.00714315 -2.93575e-05
-5.06484e-23 0.00722605 -2.6394e-05 0 0.00722605 -2.6394e-05 0 0.00730327 -2.36856e-05 0
0.00730327 -2.36856e-05 0 0.00737521 -2.12143e-05 -4.84278e-23 0.00737521 -2.12143e-05 -4.84278e-23 0.00744222
-1.89626e-05 -9.65546e-23 0.00744222 -1.89626e-05 -9.65546e-23 0.00750464 -1.69143e-05 -6.93175e-25 0.00750464 -1.69143e-05
-6.93175e-25 0.00756279 -1.50538e-05 4.76293e-23 0.00756279 -1.50538e-05 4.76293e-23 0.00761699 -1.33663e-05 -4.64477e-23
0.00761699 -1.33663e-05 -4.64477e-23 0.00766752 -1.18375e-05 -9.26013e-23 0.00766752 -1.18375e-05 -9.26013e-23 0.00771463
-1.04544e-05 -9.16247e-23 0.00771463 -1.04544e-05 -9.16247e-23 0.0077586 -9.20497e-06 -4.56654e-23 0.0077586 -9.20497e-06
-4.56654e-23 0.00779964 -8.07666e-06 0 0.00779964 -8.07666e-06 0 0.00783799 -7.05916e-06 0
0.00783799 -7.05916e-06 0 0.00787385 -6.14405e-06 -4.35471e-23 0.00787385 -6.14405e-06 -4.35471e-23 0.0079074
-5.31954e-06 -4.37378e-23 0.0079074 -5.31954e-06 -4.37378e-23 0.00793883 -4.57623e-06 0 0.00793883 -4.57623e-06
0 0.00796831 -3.91088e-06 4.21272e-23 0.00796831 -3.91088e-06 4.21272e-23 0.00799598 -3.31313e-06 4.23154e-23
0.00799598 -3.31313e-06 4.23154e-23 0.00802199 -2.77353e-06 0 0.00802199 -2.77353e-06 0 0.00804647
-2.28976e-06 4.07273e-23 0.00804647 -2.28976e-06 4.07273e-23 0.00806954 -1.85539e-06 4.09128e-23 0.00806954 -1.85539e-06
4.09128e-23 0.00809132 -1.46702e-06 0 0.00809132 -1.46702e-06 0 0.00811191 -1.11175e-06 -3.93475e-23
0.00811191 -1.11175e-06 -3.93475e-23 0.0081314 -7.80853e-07 -7.84221e-23 0.0081314 -7.80853e-07 -7.84221e-23 0.00814988
-4.74434e-07 -3.90736e-23 0.00814988 -4.74434e-07 -3.90736e-23 0.0081674 -1.7643e-07 3.79876e-23 0.0081674 -1.7643e-07
3.79876e-23 0.00818395 1.32714e-07 3.81672e-23 0.00818395 1.32714e-07 3.81672e-23 0.00819959 4.59759e-07 -3.70921e-23
0.00819959 4.59759e-07 -3.70921e-23 0.00821437 7.84145e-07 -3.72696e-23 0.00821437 7.84145e-07 -3.72696e-23 0.00822836
1.07689e-06 -3.62056e-23 0.00822836 1.07689e-06 -3.62056e-23 0.00824161 1.3415e-06 -7.21465e-23 0.00824161 1.3415e-06
-7.21465e-23 0.00825418 1.60546e-06 -3.59398e-23 0.00825418 1.60546e-06 -3.59398e-23 0.00826609 1.89086e-06 0
0.00826609 1.89086e-06 0 0.00827733 2.20043e-06 0 0.00827733 2.20043e-06 0 0.00828794
2.5092e-06 0 0.00828794 2.5092e-06 0 0.00829795 2.77669e-06 0 0.00829795 2.77669e-06
0 0.00830747 2.96896e-06 0 0.00830747 2.96896e-06 0 0.00831661 3.07272e-06 0
0.00831661 3.07272e-06 0 0.00832549 3.09635e-06 -3.23246e-23 0.00832549 3.09635e-06 -3.23246e-23 0.0083342
3.06151e-06 -5.85123e-25 0.0083342 3.06151e-06 -5.85123e-25 0.00834282 2.99229e-06 3.20674e-23 0.00834282 2.99229e-06
3.20674e-23 0.00835137 2.90784e-06 0 0.00835137 2.90784e-06 0 0.00835989 2.82006e-06 0
0.00835989 2.82006e-06 0 0.00836838 2.73479e-06 0 0.00836838 2.73479e-06 0 0.00837684
2.65421e-06 5.96645e-23 0.00837684 2.65421e-06 5.96645e-23 0.00838529 2.57885e-06 5.9978e-23 0.00838529 2.57885e-06
5.9978e-23 0.00839372 2.50871e-06 -5.80352e-23 0.00839372 2.50871e-06 -5.80352e-23 0.00840214 2.4437e-06 -1.11669e-24
0.00840214 2.4437e-06 -1.11669e-24 0.00841056 2.38371e-06 5.75315e-23 0.00841056 2.38371e-06 5.75315e-23 0.00841899
2.3286e-06 0 0.00841899 2.3286e-06 0 0.00842743 2.27821e-06 0 0.00842743 2.27821e-06
0 0.00843589 2.23234e-06 -5.40294e-23 0.00843589 2.23234e-06 -5.40294e-23 0.00844437 2.19078e-06 -1.07563e-22
0.00844437 2.19078e-06 -1.07563e-22 0.00845288 2.15327e-06 -5.35302e-23 0.00845288 2.15327e-06 -5.35302e-23 0.00846142
2.11954e-06 -5.16707e-23 0.00846142 2.11954e-06 -5.16707e-23 0.00847 2.08932e-06 -1.02847e-22 0.00847 2.08932e-06
-1.02847e-22 0.00847862 2.06237e-06 -1.05724e-24 0.00847862 2.06237e-06 -1.05724e-24 0.00848727 2.03855e-06 5.03946e-23
0.00848727 2.03855e-06 5.03946e-23 0.00849598 2.01772e-06 0 0.00849598 2.01772e-06 0 0.00850473
1.99977e-06 4.78096e-23 0.00850473 1.99977e-06 4.78096e-23 0.00851353 1.98463e-06 4.80789e-23 0.00851353 1.98463e-06
4.80789e-23 0.00852237 1.97225e-06 0 0.00852237 1.97225e-06 0 0.00853127 1.96263e-06 0
0.00853127 1.96263e-06 0 0.00854022 1.95582e-06 0 0.00854022 1.95582e-06 0 0.00854922
1.95191e-06 -4.40301e-23 0.00854922 1.95191e-06 -4.40301e-23 0.00855826 1.95106e-06 -8.75665e-23 0.00855826 1.95106e-06
-8.75665e-23 0.00856734 1.95348e-06 -4.35331e-23 0.00856734 1.95348e-06 -4.35331e-23 0.00857646 1.95955e-06 -4.17982e-23
0.00857646 1.95955e-06 -4.17982e-23 0.00858562 1.96968e-06 -4.20414e-23 0.00858562 1.96968e-06 -4.20414e-23 0.00859479
1.98467e-06 0 0.00859479 1.98467e-06 0 0.00860398 2.00507e-06 -3.95912e-23 0.00860398 2.00507e-06
-3.95912e-23 0.00861316 2.03255e-06 -3.98242e-23 0.00861316 2.03255e-06 -3.98242e-23 0.00862231 2.06763e-06 -3.81326e-23
0.00862231 2.06763e-06 -3.81326e-23 0.00863141 2.11355e-06 -3.83587e-23 0.00863141 2.11355e-06 -3.83587e-23 0.00864041
2.17086e-06 0 0.00864041 2.17086e-06 0 0.00864929 2.2449e-06 -3.59623e-23 0.00864929 2.2449e-06
-3.59623e-23 0.00865796 2.33783e-06 -3.61779e-23 0.00865796 2.33783e-06 -3.61779e-23 0.00866639 2.45555e-06 -3.4526e-23