/*--------------------------------*- C++ -*----------------------------------*\
  =========                 |
  \\      /  F ield         | OpenFOAM: The Open Source CFD Toolbox
   \\    /   O peration     | Website:  https://openfoam.org
    \\  /    A nd           | Version:  9
     \\/     M anipulation  |
\*---------------------------------------------------------------------------*/
FoamFile
{
    format      ascii;
    class       volScalarField;
    location    "0.01";
    object      epsilonU;
}
// * * * * * * * * * * * * * * * * * * * * * * * * * * * * * * * * * * * * * //

dimensions      [0 2 -3 0 0 0 0];

internalField   nonuniform List<scalar> 
12225
(
222.798
168.172
130.45
104.951
88.5132
78.9131
74.5011
73.9723
76.2491
80.4258
85.7443
91.5839
97.4563
102.999
107.966
112.215
115.68
119.23
39.9611
48.7839
52.7617
56.9777
63.651
73.9965
88.7635
108.27
132.348
160.346
191.231
223.758
256.657
288.793
319.283
347.573
373.315
397.184
19.911
23.9181
26.6854
28.9093
31.1496
33.796
37.12
41.2837
46.3295
52.1835
58.678
65.5874
72.6677
79.695
86.4971
92.9713
99.1188
104.92
15.8892
17.21
18.3569
19.3305
20.2282
21.146
22.1599
23.3193
24.6429
26.1209
27.7204
29.3955
31.0958
32.7753
34.3994
35.9485
37.4255
38.8205
14.8189
15.0506
15.3593
15.6694
15.968
16.2643
16.5734
16.909
17.2787
17.6831
18.1162
18.5682
19.0274
19.4829
19.926
20.3517
20.7593
21.1455
14.5159
14.3153
14.2129
14.1648
14.1472
14.1487
14.1656
14.197
14.2434
14.3041
14.3773
14.4602
14.5497
14.6425
14.7359
14.8282
14.9187
15.0052
14.4324
14.073
13.7851
13.5525
13.3614
13.2018
13.0664
12.9506
12.8514
12.7665
12.6941
12.6322
12.5793
12.5336
12.4938
12.4591
12.4288
12.4015
14.4105
13.9988
13.6367
13.3191
13.0399
12.7933
12.5739
12.3776
12.2009
12.0411
11.8961
11.7639
11.643
11.532
11.4299
11.3356
11.2486
11.1683
14.4051
13.9779
13.5898
13.2381
12.9195
12.6305
12.368
12.1286
11.9098
11.7092
11.5247
11.3545
11.1971
11.0513
10.9158
10.7898
10.6726
10.564
14.4039
13.9724
13.5763
13.2127
12.8788
12.572
12.2898
12.0298
11.7899
11.5682
11.3628
11.1722
10.9951
10.8302
10.6764
10.5328
10.3987
10.2743
14.4035
13.971
13.5726
13.2053
12.8662
12.5529
12.2629
11.9943
11.7451
11.5137
11.2983
11.0978
10.9107
10.736
10.5726
10.4197
10.2766
10.1436
14.4034
13.9706
13.5716
13.2033
12.8628
12.5474
12.2549
11.9834
11.7309
11.4958
11.2766
11.072
10.8809
10.702
10.5345
10.3776
10.2304
10.0936
14.4034
13.9704
13.5713
13.2026
12.8615
12.5454
12.252
11.9793
11.7255
11.4889
11.2681
11.0618
10.8689
10.6882
10.5188
10.3599
10.2108
10.0721
14.4033
13.9703
13.571
13.2022
12.8608
12.5444
12.2507
11.9775
11.7232
11.486
11.2646
11.0576
10.8639
10.6824
10.5122
10.3525
10.2026
10.063
14.4033
13.9702
13.5708
13.2019
12.8604
12.5438
12.2498
11.9765
11.7219
11.4845
11.2628
11.0556
10.8616
10.6798
10.5093
10.3493
10.1991
10.0592
14.4033
13.9702
13.5707
13.2016
12.86
12.5433
12.2492
11.9757
11.721
11.4834
11.2616
11.0542
10.86
10.6781
10.5075
10.3473
10.1969
10.0569
14.4032
13.9701
13.5706
13.2014
12.8597
12.5429
12.2487
11.9751
11.7202
11.4825
11.2605
11.053
10.8587
10.6766
10.5058
10.3455
10.1949
10.0547
14.4032
13.9701
13.5705
13.2013
12.8595
12.5426
12.2483
11.9746
11.7196
11.4818
11.2596
11.0519
10.8575
10.6752
10.5043
10.3437
10.1929
10.0525
14.4032
13.9701
13.5705
13.2013
12.8595
12.5425
12.2481
11.9743
11.7192
11.4812
11.2589
11.0511
10.8564
10.674
10.5028
10.3421
10.191
10.0503
14.4032
13.9701
13.5706
13.2013
12.8595
12.5426
12.2482
11.9743
11.7192
11.4811
11.2588
11.0508
10.856
10.6734
10.5021
10.3411
10.1899
10.0489
14.4033
13.9701
13.5706
13.2015
12.8597
12.5428
12.2485
11.9746
11.7195
11.4815
11.2592
11.0512
10.8564
10.6739
10.5025
10.3415
10.1902
10.0492
14.4033
13.9702
13.5708
13.2018
12.8602
12.5436
12.2495
11.976
11.7213
11.4838
11.2619
11.0545
10.8603
10.6784
10.5077
10.3474
10.1968
10.0565
14.4034
13.9706
13.5717
13.2035
12.8631
12.548
12.2559
11.9847
11.7326
11.4978
11.2791
11.0749
10.8841
10.7056
10.5385
10.3818
10.2349
10.0984
14.404
13.9731
13.5779
13.2155
12.8826
12.5767
12.295
12.0351
11.7949
11.5726
11.3663
11.1748
10.9966
10.8307
10.6761
10.5318
10.3973
10.273
14.4094
13.9933
13.6221
13.2908
12.9938
12.7263
12.484
12.2632
12.0613
11.876
11.7057
11.549
11.4048
11.2722
11.1505
11.0391
10.9374
10.8458
14.4522
14.1247
13.8673
13.6579
13.4809
13.3263
13.188
13.0631
12.9502
12.8492
12.7602
12.6836
12.6197
12.569
12.5316
12.5075
12.4966
12.4989
14.7361
14.8153
14.95
15.0783
15.184
15.2685
15.3396
15.4076
15.4825
15.5731
15.6865
15.8284
16.0026
16.2121
16.4585
16.7425
17.064
17.4211
16.4053
17.9537
19.0946
19.9046
20.5131
21.0221
21.5073
22.0268
22.6247
23.3343
24.1803
25.1804
26.3468
27.6866
29.2027
30.8951
32.7612
34.7913
27.1973
32.6276
34.9128
36.0701
37.0237
38.2217
39.915
42.2571
45.3463
49.2485
54.0078
59.6504
66.1858
73.6071
81.8927
91.007
100.912
111.506
142.55
119.59
101.656
87.5657
76.4999
67.8614
61.2039
56.1832
52.5269
50.0148
48.4658
47.7289
47.6758
48.197
49.1979
50.5969
52.3239
54.3124
2.32089
2.48919
3.46107
4.11112
4.56749
4.89995
5.15742
5.35234
5.50763
5.66482
5.87974
6.20751
6.65475
7.20081
7.7959
8.36802
8.93539
44.3218
55.0354
67.3063
80.8991
95.5159
110.769
126.211
141.364
155.761
168.975
180.645
190.494
198.342
204.103
207.78
209.458
209.287
207.466
204.227
199.825
194.533
188.464
181.722
174.401
166.588
158.365
149.81
141.005
132.035
122.987
113.95
105.018
96.2838
87.8427
79.788
72.2175
65.2355
58.9393
53.3995
48.9671
46.2636
46.614
43.728
44.663
9.82636
9.9683
43.3239
9.97147
42.7858
9.97579
9.82033
9.78111
9.92367
43.6701
46.2776
49.1248
52.2129
55.5202
59.0196
62.6821
66.4776
70.3749
74.3426
78.3494
82.3649
86.3603
90.3086
94.1851
97.9681
101.639
105.181
108.582
111.832
114.924
117.853
120.618
123.219
125.657
127.937
130.063
132.041
133.877
135.579
137.154
138.61
139.955
141.197
142.343
143.401
144.349
145.197
145.953
146.621
147.206
147.71
148.137
148.493
148.784
149.02
149.207
149.356
149.477
149.579
149.67
149.756
149.841
149.929
150.021
150.119
150.221
150.329
150.442
150.56
150.682
150.808
150.939
151.073
151.211
151.353
151.498
151.647
151.799
151.953
152.111
152.272
152.436
152.602
152.771
152.943
153.116
153.292
153.47
153.649
153.83
154.012
154.196
154.379
154.563
154.745
154.926
155.105
155.28
155.449
155.61
155.761
155.897
156.016
156.109
156.171
156.189
156.152
156.042
155.833
155.492
154.975
154.214
153.117
151.542
149.268
145.987
140.998
134.115
120.731
8.58107
5.65649
6.25434
7.21453
8.2515
9.31934
10.4059
11.4961
12.6038
13.7615
15.0373
16.5323
18.3581
20.6125
23.3688
26.7048
30.7642
35.835
39.615
43.3219
46.8643
50.1109
52.9306
55.2048
56.8387
57.7707
57.9802
57.4905
56.3691
54.7236
52.6951
50.4478
48.1593
46.0092
44.1709
42.8022
42.0335
41.9737
42.1476
42.2788
42.3296
42.2721
42.0802
41.7309
41.2059
40.493
39.5872
38.4914
37.2161
35.7796
34.2068
32.5288
30.7806
28.9989
27.218
25.4667
23.7745
22.1362
20.505
19.1684
17.7258
15.9287
14.8091
14.3472
12.8873
12.3238
10.851
10.1854
9.88938
9.84693
10.4112
10.5137
10.4392
10.3107
10.1771
10.0565
9.95388
9.86936
9.80105
9.74642
9.7029
9.66804
9.63968
9.61593
9.59518
9.57612
9.55767
9.539
9.51947
9.49866
9.47628
9.4522
9.42638
9.39889
9.36986
9.33948
9.30798
9.27559
9.24259
9.20921
9.17572
9.14235
9.10932
9.07683
9.04508
9.01655
9.00804
9.01251
9.02533
9.04307
9.06322
9.0838
9.10284
9.11753
9.12726
9.13168
9.13033
9.12317
9.11065
9.09377
9.07384
9.05222
9.03021
9.0089
8.98904
8.97107
8.9552
8.94139
8.92953
8.91941
8.91082
8.90355
8.89744
8.89234
8.88814
8.88476
8.88211
8.88014
8.8788
8.87805
8.87785
8.87817
8.87898
8.88026
8.88198
8.88411
8.88666
8.88959
8.89291
8.8966
8.90068
8.90513
8.90998
8.91525
8.92098
8.9272
8.93398
8.94141
8.94958
8.95866
8.96882
8.98031
8.99346
9.00868
9.02653
9.04777
9.07341
9.10481
9.14389
9.19332
9.25697
9.34051
9.45254
9.60633
9.82346
10.1369
10.6126
11.2992
12.5134
13.7263
15.2534
9.03596
9.2706
10.0495
10.8546
11.6332
12.4087
13.217
14.0969
15.0901
16.2383
17.5766
19.1224
20.8661
22.7706
24.7793
26.8175
28.7825
30.5087
32.0563
33.3822
34.4458
35.2218
35.7046
35.9107
35.8785
35.6647
35.339
34.9766
34.6512
34.4279
34.358
34.4753
34.795
35.3142
36.0141
36.8635
37.8079
38.7292
39.5853
40.3437
40.9709
41.4336
41.7015
41.7485
41.5543
41.1063
40.4
39.4407
38.2432
36.8319
35.2393
33.5039
31.6667
29.7686
27.8484
25.9411
24.0704
22.2532
20.5419
18.9058
17.4377
16.1206
14.9269
13.8031
12.7924
11.8632
11.0596
10.3661
9.76111
9.23422
8.74228
8.28329
7.8603
7.47445
7.12485
6.80936
6.52531
6.26986
6.0402
5.83372
5.64796
5.4807
5.32991
5.19379
5.0707
4.9592
4.858
4.76594
4.68203
4.60538
4.53519
4.47079
4.41158
4.35701
4.30663
4.26004
4.21688
4.17683
4.13963
4.10503
4.07283
4.04282
4.01485
3.98876
3.96445
3.94213
3.92184
3.9035
3.887
3.87218
3.85888
3.84691
3.83671
3.82832
3.8212
3.81486
3.80888
3.80305
3.79725
3.7914
3.78552
3.77965
3.77385
3.76819
3.76274
3.75755
3.75264
3.74803
3.74372
3.73971
3.73598
3.73252
3.7293
3.72631
3.72353
3.72095
3.71855
3.71632
3.71425
3.71233
3.71055
3.70891
3.70739
3.70599
3.7047
3.70351
3.70242
3.70143
3.70053
3.69971
3.69897
3.69832
3.69775
3.69727
3.69688
3.69658
3.69639
3.69632
3.69639
3.69662
3.69705
3.69773
3.69871
3.70007
3.70193
3.70443
3.70777
3.71222
3.71819
3.72625
3.73725
3.75252
3.77414
3.80572
3.85323
3.92934
4.05219
4.29019
4.65453
18.6946
10.9011
10.9247
11.5805
12.246
12.8772
13.5199
14.2274
15.0416
15.9904
17.0881
18.3342
19.7119
21.1887
22.7207
24.2597
25.7591
27.1775
28.4844
29.6712
30.7235
31.6333
32.4019
33.0397
33.5666
34.0099
34.4029
34.7821
35.1839
35.6417
36.1822
36.8237
37.5737
38.4294
39.3779
40.3969
41.4568
42.5138
43.5343
44.4878
45.3424
46.0647
46.621
46.9787
47.1079
46.982
46.5797
45.8874
44.9009
43.628
42.0896
40.3188
38.3588
36.2593
34.0717
31.8454
29.6253
27.4489
25.3443
23.3332
21.4436
19.7692
18.2372
16.8255
15.5266
14.3375
13.2531
12.2692
11.3789
10.5738
9.84599
9.18655
8.58919
8.04893
7.56125
7.12183
6.7265
6.3713
6.05248
5.76655
5.51028
5.2807
5.07511
4.89101
4.72617
4.57856
4.44635
4.32788
4.22167
4.12641
4.04089
3.96408
3.89501
3.83286
3.77688
3.72641
3.68085
3.6397
3.60248
3.56879
3.53827
3.51058
3.48544
3.4626
3.44182
3.42291
3.4057
3.39004
3.3758
3.36286
3.35113
3.34049
3.33086
3.32218
3.31437
3.30738
3.30115
3.29566
3.29077
3.28635
3.28232
3.27861
3.27516
3.27194
3.26892
3.26607
3.26338
3.26084
3.25844
3.25616
3.25401
3.25197
3.25005
3.24822
3.24649
3.24485
3.2433
3.24182
3.24042
3.23908
3.23782
3.23661
3.23546
3.23437
3.23333
3.23233
3.23138
3.23046
3.22959
3.22875
3.22794
3.22717
3.22642
3.2257
3.225
3.22433
3.22368
3.22307
3.22248
3.22192
3.22139
3.22091
3.22047
3.22009
3.21979
3.21958
3.2195
3.21957
3.21986
3.22043
3.22141
3.22295
3.2253
3.22889
3.23439
3.24301
3.25719
3.28129
3.32802
3.41264
19.9638
11.5899
11.4756
12.0987
12.7784
13.4597
14.1858
15.007
15.9582
17.0563
18.302
19.6828
21.1739
22.7423
24.3507
25.9631
27.5472
29.0754
30.5245
31.8749
33.1091
34.2146
35.187
36.0311
36.7615
37.4017
37.9814
38.5333
39.089
39.6761
40.3152
41.0191
41.7918
42.6294
43.5201
44.4446
45.3778
46.3011
47.2149
48.0926
48.9036
49.6166
50.2005
50.624
50.8549
50.8597
50.6041
50.0561
49.1912
47.9976
46.481
44.6672
42.5999
40.3369
37.9418
35.4783
33.005
30.5717
28.2137
25.9541
23.8814
22.015
20.2901
18.6961
17.2274
15.8789
14.6442
13.5167
12.4896
11.5556
10.7076
9.9388
9.24273
8.61347
8.04551
7.53367
7.07309
6.65923
6.28783
5.95495
5.65691
5.39034
5.15212
4.93939
4.74954
4.5802
4.42919
4.29458
4.17459
4.06763
3.97229
3.88728
3.81147
3.74383
3.68347
3.62958
3.58145
3.53843
3.49998
3.46558
3.4348
3.40724
3.38257
3.36045
3.34063
3.32286
3.30691
3.2926
3.27976
3.26823
3.25788
3.24859
3.24025
3.23277
3.22606
3.22005
3.21466
3.20986
3.20558
3.20178
3.19838
3.19533
3.19259
3.19011
3.18786
3.18579
3.18389
3.18213
3.18049
3.17897
3.17754
3.17619
3.17492
3.17372
3.17258
3.17149
3.17046
3.16948
3.16854
3.16764
3.16678
3.16595
3.16516
3.1644
3.16366
3.16295
3.16227
3.1616
3.16095
3.16033
3.15971
3.15911
3.15853
3.15795
3.15739
3.15683
3.15629
3.15575
3.15522
3.1547
3.15418
3.15367
3.15318
3.15269
3.15222
3.15177
3.15134
3.15095
3.1506
3.15031
3.15011
3.15004
3.15017
3.15061
3.15155
3.15332
3.15661
3.16275
3.17491
3.19828
20.0196
11.579
11.3691
12.0153
12.8025
13.6509
14.5883
15.6555
16.8804
18.2735
19.83
21.5317
23.3493
25.2453
27.178
29.1052
30.9858
32.7806
34.4534
35.973
37.3154
38.4671
39.4268
40.2056
40.8255
41.3167
41.7142
42.0543
42.3719
42.6981
43.0589
43.4735
43.9542
44.5051
45.1221
45.7922
46.495
47.2327
48
48.7646
49.4956
50.1683
50.7639
51.2659
51.6538
51.8968
51.9507
51.76
51.2664
50.4201
49.1926
47.5847
45.6298
43.3885
40.9379
38.3604
35.7341
33.1261
30.5866
28.1627
25.9802
23.9583
22.0804
20.3421
18.7386
17.2638
15.9109
14.6725
13.541
12.5089
11.5689
10.7142
9.93814
9.23465
8.598
8.02282
7.50408
7.03705
6.61729
6.24063
5.9032
5.60135
5.3317
5.09113
4.87674
4.68587
4.51609
4.36518
4.2311
4.11204
4.00635
3.91253
3.82926
3.75536
3.68976
3.63152
3.5798
3.53386
3.49306
3.4568
3.42457
3.39592
3.37045
3.3478
3.32766
3.30974
3.29381
3.27964
3.26703
3.25581
3.24584
3.23696
3.22907
3.22204
3.21579
3.21024
3.20529
3.2009
3.19699
3.19353
3.19045
3.18772
3.18529
3.18312
3.18118
3.17943
3.17785
3.17641
3.1751
3.1739
3.1728
3.17177
3.17081
3.16992
3.16908
3.16829
3.16754
3.16683
3.16615
3.1655
3.16488
3.16429
3.16372
3.16317
3.16264
3.16213
3.16163
3.16114
3.16067
3.1602
3.15975
3.1593
3.15886
3.15843
3.158
3.15758
3.15715
3.15673
3.15632
3.1559
3.15548
3.15507
3.15465
3.15424
3.15382
3.1534
3.15298
3.15257
3.15216
3.15175
3.15136
3.151
3.15069
3.15047
3.15041
3.15067
3.1515
3.15348
3.15769
3.1661
19.5332
11.2923
11.0173
11.7104
12.6401
13.7014
14.9048
16.2808
17.8513
19.6217
21.581
23.7021
25.9443
28.2557
30.5781
32.8514
35.0168
37.0197
38.8124
40.3578
41.6314
42.6239
43.3407
43.8015
44.0385
44.0935
44.0156
43.8574
43.6717
43.5085
43.4112
43.4139
43.54
43.8004
44.1945
44.7093
45.3221
46.0072
46.708
47.3738
47.971
48.4889
48.9403
49.3534
49.7552
50.1515
50.5113
50.764
50.8103
50.543
49.8722
48.746
47.163
45.172
42.8582
40.3241
37.6715
34.991
32.3583
29.9197
27.6439
25.5127
23.527
21.6861
19.9861
18.421
16.9834
15.6653
14.4584
13.3547
12.3467
11.427
10.5891
9.82665
9.13406
8.50598
7.93746
7.42387
6.96084
6.54423
6.17017
5.83498
5.5352
5.26757
5.02905
4.81682
4.62823
4.46086
4.31248
4.18106
4.06473
3.96183
3.87084
3.7904
3.71929
3.65645
3.6009
3.55179
3.50838
3.46999
3.43604
3.40601
3.37945
3.35595
3.33516
3.31677
3.3005
3.2861
3.27338
3.26212
3.25217
3.24337
3.2356
3.22872
3.22265
3.21729
3.21255
3.20836
3.20466
3.20139
3.1985
3.19595
3.19369
3.19169
3.18991
3.18833
3.18692
3.18565
3.18451
3.18348
3.18255
3.18169
3.18091
3.18019
3.17952
3.17889
3.17831
3.17776
3.17725
3.17676
3.17629
3.17584
3.17542
3.17501
3.17462
3.17423
3.17386
3.1735
3.17315
3.17281
3.17247
3.17214
3.17181
3.17149
3.17117
3.17085
3.17053
3.17021
3.1699
3.16958
3.16926
3.16894
3.16861
3.16829
3.16795
3.16762
3.16727
3.16693
3.16657
3.16621
3.16585
3.16549
3.16514
3.16482
3.16459
3.16453
3.16479
3.16568
3.16774
3.17185
18.854
10.9673
10.6459
11.3872
12.4565
13.7296
15.2023
16.8962
18.8268
20.9929
23.3738
25.929
28.6005
31.3167
33.9988
36.5665
38.9427
41.0583
42.8551
44.2898
45.3366
45.9891
46.262
46.1913
45.8332
45.2608
44.5583
43.8139
43.1122
42.527
42.1168
41.9219
41.9637
42.245
42.7517
43.4524
44.3018
45.1737
45.9538
46.557
46.9289
47.0637
47.016
46.8956
46.8361
46.9458
47.2612
47.7297
48.2215
48.5621
48.5746
48.1194
47.124
45.5957
43.6101
41.2844
38.7421
36.1069
33.5707
31.1387
28.8207
26.6338
24.5881
22.6869
20.9284
19.3076
17.8171
16.449
15.1945
14.0452
12.993
12.0304
11.1504
10.3468
9.61375
8.94612
8.33911
7.78831
7.28959
6.83906
6.43303
6.068
5.74062
5.4477
5.18621
4.95329
4.74623
4.56249
4.39973
4.25574
4.12854
4.01627
3.91728
3.83003
3.75319
3.68553
3.62596
3.57352
3.52736
3.48672
3.45094
3.41943
3.39169
3.36725
3.34572
3.32676
3.31006
3.29536
3.28241
3.27101
3.26098
3.25215
3.24439
3.23756
3.23156
3.22628
3.22164
3.21757
3.21399
3.21084
3.20808
3.20565
3.20351
3.20162
3.19996
3.19849
3.19719
3.19604
3.19501
3.1941
3.19327
3.19253
3.19186
3.19125
3.1907
3.19018
3.18971
3.18927
3.18886
3.18848
3.18812
3.18778
3.18745
3.18714
3.18684
3.18656
3.18628
3.18601
3.18575
3.1855
3.18525
3.185
3.18476
3.18452
3.18428
3.18405
3.18381
3.18357
3.18334
3.1831
3.18286
3.18262
3.18238
3.18213
3.18188
3.18162
3.18136
3.18109
3.18081
3.18053
3.18024
3.17995
3.17967
3.17941
3.17922
3.17916
3.17934
3.18
3.18146
3.18419
18.1007
10.6926
10.332
11.1081
12.2925
13.7481
15.4601
17.4425
19.7048
22.2381
25.0103
27.966
31.0287
34.1069
37.1005
39.9087
42.435
44.5922
46.3076
47.5274
48.2232
48.3971
48.0869
47.3665
46.3418
45.1404
43.8974
42.7404
41.7784
41.0948
40.7456
40.76
41.1416
41.8685
42.8925
44.138
45.5042
46.8072
47.9028
48.6363
48.8711
48.5356
47.6771
46.4913
45.2879
44.3811
43.9702
44.0837
44.5947
45.271
45.8396
46.0486
45.7176
44.7712
43.2449
41.262
38.9524
36.5754
34.1669
31.79
29.4928
27.3066
25.2498
23.3305
21.5505
19.9067
18.393
17.0019
15.7251
14.5538
13.4798
12.4952
11.5928
10.7661
10.0093
9.3171
8.68492
8.10852
7.58405
7.10792
6.67679
6.28743
5.93679
5.62189
5.33989
5.08803
4.86369
4.66434
4.4876
4.33124
4.19316
4.07142
3.96424
3.86998
3.78717
3.71446
3.65067
3.59471
3.54563
3.50259
3.46486
3.43176
3.40274
3.37729
3.35496
3.33538
3.3182
3.30313
3.28991
3.27833
3.26817
3.25927
3.25147
3.24464
3.23866
3.23343
3.22885
3.22485
3.22135
3.21829
3.21561
3.21327
3.21122
3.20942
3.20785
3.20647
3.20526
3.2042
3.20326
3.20243
3.20169
3.20103
3.20045
3.19992
3.19945
3.19902
3.19863
3.19827
3.19794
3.19764
3.19736
3.19709
3.19684
3.19661
3.19638
3.19617
3.19596
3.19577
3.19557
3.19539
3.19521
3.19503
3.19485
3.19468
3.1945
3.19433
3.19416
3.19399
3.19382
3.19365
3.19348
3.1933
3.19312
3.19294
3.19276
3.19257
3.19238
3.19218
3.19198
3.19177
3.19156
3.19135
3.19116
3.19099
3.19089
3.19091
3.19117
3.19182
3.19312
3.19537
17.249
10.4849
10.083
10.8722
12.1361
13.7301
15.632
17.8507
20.3909
23.2371
26.3473
29.6527
33.0603
36.4598
39.7308
42.7503
45.3981
47.5636
49.1531
50.1
50.377
50.0082
49.0752
47.7137
46.0979
44.4152
42.8417
41.5222
40.5627
40.0309
39.9621
40.3644
41.2208
42.4863
44.0825
45.8913
47.764
49.6871
51.4931
52.9271
53.6748
53.4362
52.0615
49.7067
46.8821
44.2577
42.3566
41.3929
41.2951
41.8021
42.5578
43.1953
43.4128
43.0199
41.9763
40.4211
38.5186
36.3925
34.1549
31.8949
29.6768
27.5434
25.521
23.6238
21.8572
20.2211
18.7115
17.3221
16.0452
14.8726
13.7963
12.8081
11.9008
11.0678
10.3029
9.60084
8.95708
8.36744
7.82829
7.33631
6.88848
6.48193
6.11395
5.78192
5.48326
5.21548
4.97613
4.76285
4.57333
4.40539
4.25694
4.126
4.01075
3.90947
3.82061
3.74274
3.67456
3.61492
3.56276
3.51718
3.47735
3.44255
3.41214
3.38557
3.36236
3.34208
3.32435
3.30887
3.29534
3.28351
3.27319
3.26417
3.2563
3.24944
3.24345
3.23822
3.23367
3.22971
3.22626
3.22326
3.22064
3.21837
3.21639
3.21466
3.21316
3.21185
3.21071
3.20972
3.20885
3.20809
3.20742
3.20683
3.20631
3.20586
3.20545
3.20508
3.20476
3.20446
3.2042
3.20395
3.20373
3.20353
3.20334
3.20316
3.20299
3.20283
3.20268
3.20254
3.2024
3.20227
3.20214
3.20201
3.20188
3.20176
3.20164
3.20152
3.2014
3.20128
3.20116
3.20104
3.20092
3.2008
3.20068
3.20055
3.20042
3.20029
3.20016
3.20002
3.19988
3.19974
3.1996
3.19947
3.19935
3.19927
3.19927
3.19938
3.19972
3.20042
3.20169
3.20375
16.2918
10.3815
9.89632
10.6679
11.9705
13.6519
15.6853
18.0769
20.8289
23.9219
27.3082
30.909
34.6187
38.3113
41.8468
45.0785
47.8588
50.0472
51.5234
52.2056
52.0729
51.183
49.6769
47.7626
45.679
43.6537
41.8683
40.4441
39.4474
38.9062
38.83
39.2195
40.064
41.3314
42.9534
44.8257
46.9412
49.4775
52.3159
55.1711
57.5635
58.8395
58.3411
55.7842
51.6679
47.1283
43.26
40.6502
39.3684
39.1661
39.6383
40.32
40.8104
40.8006
40.2069
39.0758
37.5145
35.6553
33.6233
31.5204
29.4226
27.3817
25.4311
23.5899
21.8676
20.2668
18.7859
17.4201
16.163
15.0073
13.9452
12.9692
12.0719
11.2466
10.4873
9.7885
9.14552
8.5543
8.01127
7.51332
7.05768
6.6418
6.26333
5.91999
5.60957
5.3299
5.07881
4.85417
4.65387
4.47586
4.31814
4.17879
4.056
3.94804
3.85332
3.77037
3.69781
3.63444
3.57914
3.53092
3.4889
3.45228
3.4204
3.39262
3.36844
3.34738
3.32904
3.31307
3.29917
3.28706
3.27652
3.26735
3.25937
3.25243
3.2464
3.24116
3.2366
3.23265
3.22922
3.22625
3.22368
3.22144
3.21951
3.21783
3.21638
3.21513
3.21404
3.2131
3.21228
3.21157
3.21096
3.21042
3.20996
3.20955
3.20919
3.20888
3.2086
3.20835
3.20814
3.20794
3.20776
3.2076
3.20745
3.20732
3.20719
3.20708
3.20697
3.20687
3.20677
3.20668
3.20659
3.2065
3.20641
3.20633
3.20625
3.20617
3.20609
3.20601
3.20593
3.20585
3.20577
3.20569
3.20561
3.20552
3.20544
3.20535
3.20526
3.20517
3.20508
3.205
3.20491
3.20484
3.2048
3.20479
3.20486
3.20506
3.20547
3.20621
3.20747
3.2094
15.4209
10.4661
9.8084
10.5088
11.7975
13.5058
15.6036
18.103
20.9988
24.266
27.8603
31.6997
35.6719
39.6399
43.4478
46.9254
49.8958
52.1833
53.6329
54.1426
53.6946
52.3805
50.4007
48.0288
45.5507
43.2029
41.1365
39.4192
38.0682
37.0888
36.4973
36.3127
36.5302
37.1167
38.0453
39.3602
41.298
44.0488
47.6182
51.8527
56.3407
60.2724
62.427
61.5949
57.6408
51.9409
46.2996
41.9261
39.184
37.9059
37.7052
38.0435
38.4621
38.6064
38.2793
37.439
36.1505
34.5292
32.6978
30.762
28.803
26.878
25.0243
23.2646
21.611
20.0686
18.6374
17.3144
16.0944
14.9713
13.938
12.9874
12.1125
11.3069
10.5644
9.87971
9.24803
8.66529
8.12797
7.63308
7.17802
6.76049
6.37844
6.02993
5.7131
5.42612
5.16715
4.93436
4.7259
4.53991
4.37457
4.22809
4.09871
3.98478
3.88471
3.79701
3.72031
3.65334
3.59496
3.54412
3.49989
3.46144
3.42802
3.39899
3.37377
3.35188
3.33287
3.31637
3.30204
3.2896
3.27881
3.26944
3.26132
3.25427
3.24816
3.24287
3.23828
3.23432
3.23089
3.22792
3.22536
3.22315
3.22124
3.2196
3.21818
3.21696
3.21591
3.215
3.21422
3.21355
3.21297
3.21247
3.21204
3.21167
3.21135
3.21107
3.21083
3.21062
3.21043
3.21027
3.21012
3.21
3.20988
3.20978
3.20968
3.2096
3.20952
3.20944
3.20938
3.20931
3.20925
3.20919
3.20914
3.20908
3.20903
3.20898
3.20893
3.20887
3.20882
3.20877
3.20872
3.20867
3.20862
3.20857
3.20851
3.20846
3.20841
3.20835
3.2083
3.20825
3.20821
3.20819
3.20819
3.20824
3.20837
3.20862
3.20908
3.20985
3.21108
3.21291
14.4735
10.783
9.85684
10.4403
11.6797
13.3705
15.4746
17.9964
20.9384
24.2871
28.0002
32.0005
36.1777
40.3941
44.4871
48.2713
51.5439
54.0849
55.6779
56.2018
55.6255
54.0553
51.7329
48.9823
46.1221
43.3863
40.8937
38.6725
36.7325
35.1092
33.8466
32.9525
32.3686
32.0243
31.9661
32.4927
33.9971
36.5344
40.1678
44.906
50.5967
56.6629
61.7789
63.9209
61.8137
56.4944
50.1048
44.4812
40.4439
38.0258
36.9038
36.6256
36.7124
36.7504
36.4675
35.7537
34.6264
33.1735
31.5041
29.7188
27.8969
26.0954
24.352
22.6902
21.1229
19.6564
18.2919
17.0276
15.8596
14.7825
13.7903
12.8765
12.0346
11.2584
10.5421
9.88035
9.26853
8.70255
8.17894
7.69479
7.24761
6.8353
6.45603
6.10816
5.79014
5.50048
5.23767
5.00019
4.78649
4.59497
4.42402
4.27201
4.13735
4.01845
3.9138
3.82195
3.74154
3.6713
3.61006
3.55675
3.51041
3.47017
3.43524
3.40496
3.37871
3.35596
3.33626
3.31919
3.30441
3.29161
3.28053
3.27094
3.26264
3.25546
3.24925
3.24388
3.23925
3.23524
3.23179
3.22881
3.22625
3.22404
3.22214
3.22051
3.21911
3.21791
3.21688
3.21599
3.21524
3.21459
3.21403
3.21356
3.21315
3.21281
3.21251
3.21225
3.21203
3.21184
3.21168
3.21154
3.21142
3.21131
3.21122
3.21113
3.21106
3.21099
3.21094
3.21088
3.21083
3.21079
3.21075
3.21071
3.21067
3.21064
3.2106
3.21057
3.21054
3.2105
3.21047
3.21044
3.21041
3.21038
3.21035
3.21032
3.21029
3.21026
3.21023
3.2102
3.21018
3.21016
3.21015
3.21015
3.21019
3.21028
3.21044
3.21073
3.21121
3.21198
3.21317
3.21489
13.3945
11.4958
10.1261
10.4824
11.6206
13.2479
15.3045
17.7923
20.7197
24.0812
27.843
31.9368
36.2606
40.6814
45.0369
49.136
52.7575
55.6581
57.6023
58.4145
58.0223
56.5047
54.0976
51.1372
47.9632
44.8196
41.8295
39.0245
36.4413
34.1715
32.2989
30.8134
29.5671
28.371
27.3667
27.3424
28.6059
30.9438
34.3643
38.9464
44.7314
51.4563
58.0732
62.5712
63.0092
59.2493
53.1706
47.0371
42.1562
38.8398
36.8999
35.9599
35.5743
35.3232
34.9014
34.1567
33.0692
31.6993
30.1374
28.4714
26.7724
25.0917
23.4634
21.9086
20.4395
19.0619
17.7773
16.5846
15.4807
14.461
13.5203
12.6528
11.8526
11.114
10.4315
9.79992
9.21485
8.67228
8.16882
7.70163
7.26835
6.86701
6.49599
6.15386
5.83936
5.5513
5.28848
5.04971
4.83371
4.63918
4.46475
4.30901
4.17052
4.04785
3.93958
3.84435
3.76083
3.68778
3.62403
3.56852
3.52027
3.47838
3.44205
3.41058
3.38334
3.35977
3.33938
3.32176
3.30652
3.29335
3.28197
3.27214
3.26365
3.25632
3.25
3.24454
3.23984
3.23579
3.2323
3.22929
3.22671
3.2245
3.22259
3.22096
3.21957
3.21837
3.21735
3.21648
3.21573
3.2151
3.21456
3.2141
3.21371
3.21337
3.21309
3.21285
3.21264
3.21247
3.21232
3.21219
3.21208
3.21199
3.2119
3.21183
3.21177
3.21172
3.21168
3.21163
3.2116
3.21157
3.21154
3.21151
3.21148
3.21146
3.21144
3.21142
3.2114
3.21138
3.21136
3.21134
3.21133
3.21131
3.21129
3.21127
3.21126
3.21124
3.21123
3.21121
3.21121
3.2112
3.21121
3.21124
3.2113
3.21141
3.21159
3.2119
3.21238
3.21314
3.21427
3.21588
12.2333
12.9825
10.8787
10.7269
11.6291
13.1257
15.0772
17.4712
20.3211
23.6296
27.3737
31.4976
35.9117
40.4937
45.0899
49.5142
53.5449
56.9312
59.4168
60.7829
60.9037
59.7993
57.654
54.7711
51.4828
48.0515
44.632
41.3038
38.1501
35.2955
32.8498
30.8287
29.1257
27.6184
26.4588
26.2446
27.1592
29.143
32.2027
36.4022
41.8225
48.3771
55.3249
60.8339
62.6789
60.1216
54.6726
48.6292
43.4759
39.6805
37.1807
35.6952
34.8397
34.2249
33.5524
32.6616
31.5153
30.1539
28.6486
27.0708
25.4784
23.9126
22.4003
20.9581
19.5952
18.316
17.1215
16.0106
14.9805
14.0274
13.1468
12.3335
11.5823
10.888
10.2454
9.64977
9.0969
8.58296
8.10469
7.65936
7.24473
6.85898
6.50064
6.16849
5.86151
5.57876
5.31935
5.08235
4.8668
4.67166
4.49584
4.33813
4.19732
4.07213
3.96128
3.8635
3.77755
3.70224
3.63643
3.57906
3.52916
3.48583
3.44827
3.41574
3.38759
3.36327
3.34225
3.3241
3.30843
3.29491
3.28324
3.27318
3.26451
3.25703
3.25058
3.24503
3.24025
3.23614
3.23261
3.22957
3.22697
3.22474
3.22282
3.22118
3.21979
3.21859
3.21757
3.2167
3.21596
3.21533
3.2148
3.21435
3.21396
3.21364
3.21336
3.21313
3.21293
3.21276
3.21262
3.2125
3.2124
3.21231
3.21224
3.21218
3.21212
3.21208
3.21204
3.21201
3.21198
3.21195
3.21193
3.21191
3.21189
3.21188
3.21186
3.21185
3.21184
3.21182
3.21181
3.2118
3.21179
3.21178
3.21177
3.21176
3.21176
3.21175
3.21174
3.21174
3.21174
3.21175
3.21177
3.21181
3.21189
3.212
3.2122
3.2125
3.21298
3.21371
3.21478
3.21627
11.1377
16.0022
12.9451
11.6237
11.8556
13.0029
14.7388
16.9604
19.6615
22.8504
26.5158
30.6153
35.074
39.7845
44.6084
49.3744
53.8753
57.8691
61.0939
63.3018
64.3103
64.058
62.6353
60.2659
57.2369
53.8153
50.1968
46.5175
42.9062
39.5124
36.4779
33.8831
31.7326
30.0293
28.8813
28.6363
29.3598
31.0973
33.9046
37.8364
42.9399
49.1244
55.7037
60.9345
62.6697
60.207
55.0064
49.2019
44.1097
40.1596
37.353
35.4855
34.2329
33.2536
32.2851
31.1863
29.9226
28.5238
27.0439
25.5357
24.0406
22.5871
21.1928
19.8681
18.6181
17.4451
16.3488
15.3278
14.3796
13.5007
12.6872
11.9346
11.2383
10.5936
9.99598
9.44097
8.92465
8.44345
7.99432
7.57469
7.18245
6.81593
6.47383
6.1551
5.85893
5.58461
5.3315
5.09895
4.88628
4.69271
4.51739
4.35939
4.21767
4.09117
3.97874
3.87925
3.79154
3.71451
3.64708
3.5882
3.53694
3.4924
3.45377
3.42032
3.39139
3.36639
3.34481
3.32619
3.31013
3.29629
3.28436
3.27409
3.26524
3.25762
3.25106
3.24542
3.24057
3.23641
3.23283
3.22976
3.22713
3.22487
3.22295
3.2213
3.21989
3.21869
3.21767
3.2168
3.21606
3.21544
3.21491
3.21446
3.21407
3.21375
3.21348
3.21325
3.21306
3.2129
3.21276
3.21264
3.21255
3.21246
3.21239
3.21234
3.21229
3.21225
3.21221
3.21218
3.21216
3.21214
3.21212
3.2121
3.21209
3.21208
3.21206
3.21206
3.21205
3.21204
3.21203
3.21203
3.21202
3.21201
3.21201
3.21201
3.212
3.212
3.212
3.212
3.21201
3.21203
3.21205
3.2121
3.21218
3.2123
3.21249
3.2128
3.21326
3.21395
3.21496
3.21635
10.9188
20.8545
17.6277
14.2453
12.9443
13.1795
14.3984
16.3074
18.7884
21.8093
25.3555
29.394
33.8612
38.6631
43.6759
48.7463
53.688
58.28
62.2736
65.4146
67.4833
68.3453
67.9909
66.541
64.2084
61.2342
57.8344
54.1866
50.4533
46.806
43.4177
40.4317
37.9465
36.0308
34.7938
34.5266
35.2284
36.9475
39.7162
43.5368
48.3821
54.0505
59.6898
63.4849
63.634
60.0932
54.6054
48.96
44.0324
40.0895
37.1407
35.0166
33.4351
32.1099
30.8355
29.5106
28.1155
26.6739
25.2218
23.7913
22.4049
21.0766
19.8138
18.6197
17.4956
16.4409
15.4544
14.5341
13.6776
12.8819
12.1437
11.4592
10.8244
10.2353
9.68784
9.17819
8.70275
8.2583
7.84203
7.4516
7.08508
6.74099
6.41818
6.11582
5.83327
5.57005
5.32577
5.10002
4.89237
4.70232
4.52927
4.37251
4.23124
4.10457
3.99155
3.89117
3.8024
3.72423
3.65563
3.59563
3.54331
3.4978
3.45831
3.4241
3.39451
3.36895
3.3469
3.32788
3.31149
3.29738
3.28523
3.27477
3.26578
3.25804
3.2514
3.24568
3.24078
3.23657
3.23295
3.22986
3.22721
3.22494
3.223
3.22134
3.21993
3.21873
3.2177
3.21683
3.21609
3.21547
3.21494
3.21449
3.21411
3.21379
3.21352
3.2133
3.21311
3.21295
3.21281
3.2127
3.2126
3.21252
3.21246
3.2124
3.21236
3.21232
3.21228
3.21226
3.21223
3.21221
3.2122
3.21219
3.21217
3.21216
3.21216
3.21215
3.21214
3.21214
3.21213
3.21213
3.21212
3.21212
3.21212
3.21212
3.21212
3.21212
3.21212
3.21213
3.21214
3.21216
3.21219
3.21224
3.21231
3.21244
3.21263
3.21292
3.21337
3.21402
3.21497
3.21627
11.6239
24.2354
25.2991
19.9631
15.9696
14.3531
14.4547
15.7248
17.8432
20.6413
24.0418
27.9959
32.4447
37.304
42.4626
47.7829
53.0989
58.2149
62.9063
66.932
70.0613
72.1137
72.9981
72.7355
71.4481
69.3221
66.5611
63.3599
59.9032
56.3787
52.9798
49.8917
47.275
45.2676
44.0775
43.8388
44.5654
46.2882
48.9849
52.582
56.9606
61.714
65.647
66.9142
64.5305
59.4934
53.6416
48.1141
43.3271
39.439
36.442
34.159
32.3329
30.7343
29.2191
27.7266
26.2497
24.8038
23.4064
22.0699
20.8004
19.5995
18.4665
17.3997
16.3967
15.4556
14.5742
13.7503
12.9817
12.2658
11.5998
10.9807
10.4049
9.86924
9.37011
8.90414
8.46817
8.0593
7.675
7.31314
6.97201
6.65027
6.34696
6.06138
5.7931
5.54181
5.30732
5.08942
4.88792
4.70252
4.53284
4.37839
4.23857
4.11265
3.99986
3.89932
3.81013
3.73134
3.66204
3.6013
3.54824
3.50203
3.46189
3.42709
3.39698
3.37097
3.34852
3.32918
3.31252
3.29819
3.28586
3.27526
3.26615
3.25832
3.2516
3.24583
3.24088
3.23664
3.233