/*--------------------------------*- C++ -*----------------------------------*\
  =========                 |
  \\      /  F ield         | OpenFOAM: The Open Source CFD Toolbox
   \\    /   O peration     | Website:  https://openfoam.org
    \\  /    A nd           | Version:  9
     \\/     M anipulation  |
\*---------------------------------------------------------------------------*/
FoamFile
{
    format      ascii;
    class       volScalarField;
    location    "0.01";
    object      k;
}
// * * * * * * * * * * * * * * * * * * * * * * * * * * * * * * * * * * * * * //

dimensions      [0 2 -2 0 0 0 0];

internalField   nonuniform List<scalar> 
12225
(
0.283118
0.213702
0.165767
0.133363
0.112475
0.100279
0.0946797
0.0940208
0.0969347
0.102272
0.10907
0.116542
0.124068
0.131186
0.137584
0.143079
0.147586
0.152224
0.349229
0.324738
0.310532
0.30846
0.318383
0.339272
0.369384
0.406403
0.447732
0.490822
0.533429
0.573768
0.610576
0.643091
0.671
0.694381
0.713412
0.729448
0.361969
0.348141
0.336012
0.326247
0.319327
0.315402
0.314331
0.315759
0.319165
0.323939
0.329466
0.335197
0.340692
0.34564
0.349866
0.353323
0.356102
0.358303
0.36561
0.355064
0.344835
0.335397
0.327062
0.319973
0.314111
0.309337
0.305446
0.302201
0.299375
0.296768
0.294228
0.291649
0.28897
0.286169
0.283264
0.280285
0.366989
0.358272
0.349616
0.341269
0.333409
0.326146
0.319519
0.31351
0.308058
0.303079
0.298483
0.294182
0.290104
0.28619
0.282397
0.278698
0.275079
0.27156
0.36752
0.359749
0.35212
0.344708
0.337593
0.33084
0.324483
0.318532
0.312974
0.307781
0.302917
0.298343
0.294021
0.289919
0.286006
0.28226
0.278665
0.275238
0.367714
0.360383
0.353334
0.346552
0.340044
0.333828
0.327918
0.322317
0.317023
0.312023
0.307304
0.302844
0.298624
0.294624
0.290825
0.287209
0.283764
0.280512
0.367778
0.36063
0.353869
0.347447
0.341336
0.33552
0.32999
0.324737
0.319753
0.315027
0.310549
0.306304
0.30228
0.298462
0.294838
0.291394
0.288121
0.285044
0.367797
0.360715
0.354078
0.347833
0.341941
0.33637
0.331097
0.326102
0.321368
0.31688
0.312626
0.308592
0.304765
0.301134
0.297686
0.294412
0.291304
0.288387
0.367801
0.36074
0.354148
0.347978
0.342188
0.336744
0.331616
0.326777
0.322206
0.317885
0.313795
0.309923
0.306253
0.302774
0.299475
0.296344
0.293375
0.290591
0.367801
0.360744
0.354166
0.348022
0.342273
0.336884
0.331824
0.327065
0.322584
0.318358
0.314369
0.310599
0.307035
0.303661
0.300465
0.297438
0.294571
0.291886
0.367801
0.360744
0.354168
0.34803
0.342293
0.336922
0.331886
0.327159
0.322715
0.318531
0.314589
0.31087
0.307359
0.304041
0.300903
0.297934
0.295126
0.292499
0.3678
0.360742
0.354166
0.348029
0.342294
0.336928
0.331902
0.327186
0.322757
0.318593
0.314673
0.31098
0.307496
0.304208
0.301102
0.298166
0.295393
0.292801
0.367799
0.360741
0.354163
0.348024
0.342289
0.336923
0.331898
0.327185
0.322761
0.318603
0.314692
0.311008
0.307537
0.304263
0.301172
0.298253
0.295498
0.292924
0.367799
0.360739
0.35416
0.348019
0.342282
0.336915
0.331887
0.327174
0.322749
0.318591
0.31468
0.310999
0.30753
0.30426
0.301174
0.29826
0.295511
0.292944
0.367798
0.360738
0.354157
0.348015
0.342276
0.336906
0.331877
0.32716
0.322733
0.318573
0.314661
0.310978
0.307508
0.304237
0.30115
0.298236
0.295487
0.29292
0.367798
0.360737
0.354155
0.348012
0.342271
0.336899
0.331867
0.327149
0.322719
0.318557
0.314642
0.310956
0.307484
0.304209
0.30112
0.298204
0.295451
0.292881
0.367798
0.360737
0.354154
0.34801
0.342267
0.336894
0.33186
0.32714
0.322708
0.318543
0.314625
0.310936
0.307461
0.304183
0.30109
0.29817
0.295413
0.292839
0.367798
0.360737
0.354154
0.348009
0.342266
0.336892
0.331856
0.327134
0.3227
0.318533
0.314612
0.31092
0.307441
0.30416
0.301063
0.298137
0.295375
0.292795
0.367798
0.360737
0.354155
0.34801
0.342267
0.336893
0.331857
0.327134
0.322699
0.31853
0.314608
0.310914
0.307432
0.304147
0.301046
0.298116
0.295349
0.292763
0.367798
0.360738
0.354156
0.348012
0.34227
0.336896
0.331861
0.327137
0.322701
0.31853
0.314606
0.310908
0.307423
0.304133
0.301027
0.298091
0.295317
0.292723
0.367798
0.360739
0.354158
0.348015
0.342272
0.336897
0.331858
0.32713
0.322688
0.318509
0.314574
0.310865
0.307365
0.304059
0.300935
0.297979
0.295183
0.292567
0.367799
0.360739
0.354156
0.348007
0.342255
0.336864
0.331804
0.327048
0.322572
0.318353
0.314372
0.310612
0.307057
0.303693
0.300507
0.297488
0.294627
0.291945
0.367797
0.360727
0.354122
0.347934
0.342122
0.336653
0.331498
0.32663
0.32203
0.317677
0.313556
0.309651
0.30595
0.302439
0.299108
0.295946
0.292946
0.29013
0.367779
0.360647
0.353924
0.347562
0.341527
0.335797
0.330355
0.325188
0.320285
0.315636
0.31123
0.307056
0.303103
0.299362
0.29582
0.292468
0.289297
0.286326
0.367671
0.360255
0.353104
0.346214
0.339598
0.333276
0.327264
0.321572
0.316204
0.311156
0.306422
0.301989
0.297845
0.293972
0.290355
0.286975
0.283816
0.280888
0.367179
0.358811
0.350512
0.342449
0.334754
0.327527
0.320826
0.314672
0.309067
0.303998
0.29944
0.295362
0.291728
0.288498
0.285633
0.283093
0.280843
0.278863
0.3653
0.354413
0.343762
0.333822
0.324925
0.317232
0.310773
0.305522
0.301434
0.298443
0.296476
0.295445
0.29526
0.295828
0.297058
0.298861
0.301158
0.303871
0.357575
0.338107
0.321601
0.309456
0.301938
0.298917
0.300132
0.305248
0.31389
0.325661
0.340157
0.356975
0.375717
0.396004
0.417485
0.439837
0.462803
0.486011
0.314724
0.264034
0.224439
0.193331
0.1689
0.149829
0.13513
0.124044
0.115968
0.110415
0.106986
0.105346
0.105211
0.106338
0.108519
0.111573
0.115346
0.119689
0.0080207
0.0391472
0.0546056
0.0649057
0.0720229
0.0769966
0.0806363
0.0834736
0.0856476
0.0877937
0.0908024
0.0955618
0.102468
0.110928
0.120141
0.129231
0.138441
0.149344
0.174266
0.201109
0.229316
0.258229
0.287139
0.315331
0.342129
0.366928
0.389226
0.408634
0.424889
0.437845
0.447476
0.453855
0.457143
0.457574
0.455431
0.451034
0.444732
0.436888
0.4278
0.41758
0.406344
0.394188
0.381199
0.367461
0.353054
0.338068
0.322597
0.306747
0.290636
0.274397
0.258176
0.242138
0.226467
0.211375
0.197096
0.183926
0.172566
0.164218
0.161464
0.151238
0.150641
0.15448
0.154383
0.147554
0.150605
0.147299
0.148829
0.146397
0.144414
0.144406
0.1487
0.154096
0.16008
0.166536
0.173377
0.180523
0.187899
0.195431
0.203049
0.210689
0.21829
0.225795
0.233155
0.240327
0.247271
0.253958
0.260362
0.266463
0.272249
0.277711
0.282845
0.287651
0.292134
0.2963
0.30016
0.303723
0.307005
0.310018
0.312778
0.315299
0.317599
0.319691
0.321591
0.323315
0.324875
0.326282
0.32751
0.328575
0.32949
0.330265
0.330907
0.331424
0.33182
0.332106
0.33229
0.332385
0.332404
0.332361
0.332271
0.332147
0.332003
0.331847
0.331688
0.33153
0.331377
0.33123
0.331089
0.330955
0.330827
0.330704
0.330586
0.330472
0.330362
0.330255
0.330152
0.330052
0.329955
0.32986
0.329767
0.329676
0.329587
0.329499
0.329413
0.329327
0.329243
0.329159
0.329075
0.328991
0.328906
0.328821
0.328735
0.328647
0.328557
0.328464
0.328368
0.328267
0.32816
0.328046
0.327922
0.327787
0.327637
0.327469
0.327277
0.327054
0.326794
0.326484
0.326111
0.325656
0.325094
0.324391
0.323501
0.32236
0.320875
0.318914
0.31628
0.312655
0.307592
0.300068
0.289746
0.269629
0.0292964
0.0900075
0.119202
0.138796
0.152669
0.16197
0.16706
0.168149
0.166116
0.162313
0.158569
0.156645
0.15758
0.161475
0.167853
0.176288
0.186746
0.199245
0.213387
0.227954
0.242733
0.257564
0.272302
0.286821
0.301023
0.314836
0.328219
0.341162
0.353679
0.365807
0.377604
0.38914
0.400495
0.411752
0.422994
0.434301
0.445735
0.457273
0.468236
0.478447
0.487683
0.495704
0.502266
0.507138
0.510114
0.51102
0.50973
0.50617
0.500327
0.492252
0.482059
0.469928
0.456091
0.440824
0.424433
0.40724
0.389555
0.371596
0.353012
0.336014
0.318511
0.303593
0.289093
0.27452
0.261712
0.248295
0.235962
0.223693
0.211757
0.200447
0.189884
0.180101
0.171232
0.163162
0.155763
0.148931
0.142589
0.136679
0.131158
0.125988
0.121141
0.116591
0.112317
0.108299
0.104521
0.100967
0.097625
0.0944815
0.0915256
0.088747
0.086136
0.0836837
0.0813817
0.079222
0.077197
0.0752996
0.0735228
0.07186
0.0703048
0.0688512
0.0674932
0.0662252
0.0650418
0.0639377
0.062908
0.061952
0.0610935
0.0603124
0.0595942
0.0589283
0.0583063
0.0577214
0.0571675
0.0566448
0.0561535
0.05569
0.0552512
0.0548353
0.0544419
0.0540711
0.0537237
0.0534003
0.0531009
0.0528251
0.0525716
0.0523388
0.0521246
0.0519268
0.0517434
0.0515722
0.0514117
0.0512603
0.0511168
0.0509802
0.0508498
0.050725
0.0506051
0.0504897
0.0503785
0.0502711
0.0501671
0.0500663
0.0499685
0.0498733
0.0497806
0.04969
0.0496015
0.0495148
0.0494298
0.0493462
0.0492641
0.0491831
0.0491033
0.0490244
0.0489466
0.0488696
0.0487935
0.0487182
0.0486439
0.0485704
0.0484981
0.048427
0.0483574
0.0482896
0.0482243
0.0481621
0.0481041
0.0480518
0.0480074
0.0479741
0.0479569
0.0479633
0.0480057
0.0481046
0.0482957
0.0486387
0.0492615
0.0502966
0.0524289
0.0549717
0.0536178
0.134981
0.169817
0.189247
0.199502
0.203434
0.202977
0.199834
0.195727
0.192344
0.19108
0.192786
0.197665
0.205413
0.215509
0.227482
0.240996
0.255747
0.27141
0.287696
0.304447
0.321505
0.338704
0.355873
0.372849
0.389489
0.405684
0.421365
0.436517
0.451171
0.465402
0.479312
0.493011
0.506589
0.520101
0.533541
0.546843
0.559749
0.572254
0.584154
0.595195
0.605085
0.613521
0.620205
0.624856
0.627222
0.627095
0.62432
0.618809
0.61055
0.599619
0.586176
0.570459
0.552768
0.533447
0.512868
0.491413
0.469401
0.447095
0.424931
0.402966
0.382551
0.363355
0.344994
0.327549
0.310875
0.295156
0.280326
0.266393
0.253342
0.241144
0.229772
0.219216
0.209435
0.200376
0.191985
0.184209
0.177003
0.17032
0.164123
0.158372
0.153035
0.14808
0.143477
0.139199
0.135223
0.131523
0.12808
0.124875
0.121888
0.119104
0.116508
0.114086
0.111825
0.109713
0.107741
0.105898
0.104176
0.102565
0.101059
0.09965
0.0983319
0.0970986
0.0959443
0.094864
0.0938528
0.0929068
0.0920217
0.0911932
0.090417
0.089689
0.0890054
0.0883621
0.0877506
0.0871651
0.0866048
0.0860714
0.0855685
0.0850943
0.0846473
0.0842261
0.0838291
0.0834549
0.083102
0.0827688
0.0824537
0.0821554
0.0818724
0.0816035
0.0813474
0.0811033
0.0808702
0.0806475
0.0804343
0.0802303
0.0800348
0.0798474
0.0796677
0.0794951
0.0793293
0.0791698
0.0790163
0.0788682
0.0787253
0.078587
0.078453
0.0783228
0.0781963
0.0780729
0.0779523
0.0778342
0.0777184
0.0776043
0.0774919
0.0773806
0.0772703
0.0771606
0.0770512
0.0769416
0.0768315
0.0767203
0.0766075
0.0764924
0.0763741
0.0762517
0.0761236
0.0759882
0.0758433
0.0756857
0.0755113
0.0753147
0.0750878
0.0748194
0.0744931
0.0740836
0.073553
0.0728338
0.0718413
0.0703505
0.0683503
0.0664244
0.159736
0.198858
0.219611
0.229724
0.233219
0.232945
0.231192
0.229839
0.230341
0.233635
0.240111
0.249675
0.261916
0.276309
0.292366
0.309682
0.327915
0.346762
0.365952
0.385232
0.404333
0.422983
0.44092
0.45792
0.473824
0.48856
0.502159
0.514751
0.526548
0.537806
0.548783
0.559701
0.570706
0.581857
0.593104
0.604302
0.615303
0.626253
0.636977
0.647237
0.656762
0.665257
0.672417
0.67793
0.681483
0.682778
0.681544
0.677561
0.670684
0.660868
0.648175
0.632782
0.614963
0.595067
0.57349
0.550651
0.526957
0.502774
0.478418
0.454334
0.431905
0.410535
0.390061
0.370515
0.351932
0.334347
0.317773
0.302208
0.287639
0.274036
0.26136
0.24957
0.238624
0.228475
0.219077
0.210384
0.202348
0.194925
0.188072
0.181747
0.175911
0.170527
0.16556
0.160979
0.156752
0.152852
0.149252
0.145928
0.142857
0.14002
0.137398
0.134972
0.132727
0.130648
0.128722
0.126937
0.125281
0.123745
0.122318
0.120993
0.119761
0.118615
0.11755
0.116558
0.115633
0.114772
0.11397
0.113221
0.112523
0.111871
0.111262
0.110692
0.110159
0.109659
0.109188
0.108742
0.108315
0.107911
0.10753
0.10717
0.10683
0.106507
0.1062
0.105909
0.105631
0.105366
0.105113
0.10487
0.104638
0.104415
0.104201
0.103995
0.103798
0.103608
0.103425
0.103249
0.103081
0.102918
0.102761
0.10261
0.102464
0.102324
0.102187
0.102055
0.101927
0.101803
0.101681
0.101563
0.101447
0.101333
0.101221
0.101111
0.101003
0.100895
0.100789
0.100683
0.100577
0.100471
0.100365
0.100258
0.100149
0.100039
0.0999261
0.0998096
0.0996885
0.0995614
0.0994265
0.0992812
0.0991223
0.0989452
0.0987436
0.0985084
0.0982264
0.097877
0.0974292
0.0968282
0.0959923
0.0947301
0.0928778
0.0710877
0.169767
0.211829
0.235137
0.24792
0.254529
0.258005
0.260669
0.264263
0.270001
0.27857
0.290169
0.304602
0.321417
0.340061
0.359993
0.380725
0.401816
0.422852
0.443432
0.463165
0.481683
0.49867
0.513901
0.527272
0.538814
0.548688
0.557165
0.564583
0.571303
0.577666
0.583959
0.590389
0.59708
0.604065
0.61129
0.618629
0.62622
0.634361
0.642915
0.651673
0.660398
0.668837
0.676712
0.683713
0.689484
0.693628
0.695719
0.695339
0.692123
0.685808
0.676274
0.663563
0.647875
0.629537
0.608961
0.586619
0.562987
0.538487
0.513472
0.489062
0.465874
0.443442
0.421794
0.401015
0.381172
0.362316
0.344475
0.327662
0.311873
0.297091
0.28329
0.270435
0.258489
0.247411
0.237155
0.227678
0.218932
0.210871
0.20345
0.196625
0.190351
0.184589
0.1793
0.174446
0.169992
0.165907
0.16216
0.158724
0.155571
0.152678
0.150023
0.147585
0.145347
0.14329
0.141399
0.139659
0.138059
0.136585
0.135227
0.133975
0.13282
0.131754
0.130769
0.129858
0.129016
0.128236
0.127514
0.126845
0.126223
0.125647
0.125111
0.124612
0.124148
0.123715
0.123311
0.122933
0.122577
0.122239
0.121919
0.121618
0.121332
0.121061
0.120804
0.120559
0.120325
0.120101
0.119886
0.119681
0.119483
0.119293
0.11911
0.118934
0.118764
0.118601
0.118443
0.118291
0.118144
0.118003
0.117866
0.117734
0.117607
0.117483
0.117363
0.117247
0.117134
0.117023
0.116916
0.11681
0.116707
0.116606
0.116506
0.116408
0.11631
0.116214
0.116118
0.116023
0.115928
0.115832
0.115737
0.11564
0.115543
0.115443
0.115342
0.115238
0.11513
0.115017
0.114897
0.11477
0.114632
0.114479
0.114307
0.11411
0.113877
0.113594
0.113239
0.112777
0.112155
0.111267
0.11001
0.0710814
0.170808
0.214579
0.240737
0.257357
0.268577
0.277233
0.285446
0.294757
0.306191
0.320287
0.337137
0.356466
0.377749
0.400337
0.423558
0.446763
0.469346
0.490746
0.510456
0.52805
0.543207
0.55574
0.565614
0.572947
0.577996
0.581122
0.582758
0.583363
0.583386
0.583239
0.583269
0.583746
0.584858
0.586703
0.589293
0.592564
0.596901
0.602421
0.608923
0.616198
0.624075
0.632412
0.641075
0.649877
0.658531
0.666612
0.673557
0.678709
0.681392
0.681009
0.677128
0.669544
0.658299
0.64365
0.626016
0.605918
0.58391
0.560516
0.536326
0.512893
0.489842
0.467222
0.445177
0.423841
0.403316
0.383679
0.364984
0.347263
0.330534
0.314799
0.300048
0.286263
0.273418
0.261483
0.25042
0.240192
0.230755
0.222065
0.214078
0.206747
0.200029
0.19388
0.188257
0.183119
0.178428
0.174148
0.170244
0.166685
0.163439
0.160481
0.157785
0.155326
0.153085
0.151041
0.149176
0.147474
0.14592
0.1445
0.143202
0.142016
0.14093
0.139935
0.139024
0.138188
0.137422
0.136717
0.13607
0.135474
0.134925
0.134419
0.133953
0.133521
0.133123
0.132753
0.13241
0.132092
0.131795
0.131516
0.131253
0.131005
0.130771
0.130549
0.130339
0.130139
0.129948
0.129765
0.12959
0.129422
0.129261
0.129106
0.128956
0.128812
0.128674
0.12854
0.12841
0.128286
0.128165
0.128048
0.127936
0.127827
0.127721
0.127619
0.127519
0.127422
0.127328
0.127236
0.127146
0.127057
0.126971
0.126885
0.126801
0.126718
0.126636
0.126555
0.126474
0.126393
0.126312
0.126231
0.12615
0.126068
0.125985
0.1259
0.125814
0.125726
0.125634
0.125538
0.125438
0.12533
0.125215
0.125088
0.124946
0.124785
0.124597
0.124372
0.124095
0.123744
0.123286
0.122661
0.121824
0.0689136
0.167827
0.212543
0.241339
0.261892
0.27792
0.291924
0.305757
0.320753
0.33777
0.35721
0.379042
0.402869
0.428027
0.453711
0.479081
0.503327
0.525714
0.545604
0.562486
0.575991
0.585919
0.592244
0.595117
0.594853
0.591913
0.58686
0.580329
0.572973
0.565423
0.558249
0.551929
0.546833
0.543212
0.541208
0.54085
0.542075
0.545011
0.549169
0.55417
0.559783
0.565961
0.572831
0.580627
0.589573
0.599729
0.610869
0.62243
0.633556
0.643209
0.650331
0.654009
0.653614
0.648878
0.639893
0.62702
0.61081
0.591894
0.57095
0.549458
0.527644
0.505639
0.483692
0.462027
0.440827
0.420233
0.400356
0.381277
0.363055
0.345731
0.329328
0.313858
0.299321
0.285711
0.27301
0.261198
0.250247
0.240123
0.23079
0.222209
0.214337
0.207131
0.200548
0.194543
0.189075
0.184101
0.179582
0.17548
0.17176
0.168388
0.165332
0.162565
0.160059
0.157789
0.155735
0.153875
0.15219
0.150664
0.149281
0.148027
0.14689
0.145859
0.144922
0.144072
0.143299
0.142595
0.141955
0.141372
0.14084
0.140354
0.139911
0.139505
0.139133
0.138792
0.138479
0.13819
0.137925
0.137679
0.137451
0.137238
0.137038
0.13685
0.136672
0.136505
0.136346
0.136194
0.13605
0.135912
0.135781
0.135654
0.135532
0.135415
0.135303
0.135194
0.135089
0.134988
0.134891
0.134796
0.134705
0.134617
0.134531
0.134448
0.134368
0.134289
0.134213
0.134138
0.134065
0.133994
0.133924
0.133855
0.133788
0.133721
0.133654
0.133589
0.133524
0.133459
0.133394
0.133329
0.133264
0.133199
0.133133
0.133066
0.132998
0.132929
0.132857
0.132783
0.132707
0.132626
0.13254
0.132447
0.132346
0.132234
0.132108
0.131961
0.131789
0.13158
0.131321
0.130991
0.13056
0.130008
0.0659596
0.163687
0.208919
0.239927
0.263961
0.284324
0.303178
0.322113
0.342259
0.364305
0.388494
0.414645
0.442206
0.470354
0.498126
0.524534
0.548642
0.569628
0.586811
0.599686
0.607942
0.611484
0.61045
0.605213
0.596374
0.584722
0.571177
0.556715
0.542289
0.528752
0.516815
0.507012
0.499697
0.495049
0.493085
0.493668
0.496537
0.500735
0.505164
0.509176
0.512425
0.514955
0.517261
0.52023
0.524916
0.5322
0.542477
0.55549
0.570357
0.585721
0.6
0.611646
0.619379
0.622387
0.620438
0.613696
0.602691
0.588128
0.571466
0.55326
0.533912
0.513831
0.493369
0.47282
0.452423
0.432366
0.412798
0.393834
0.375562
0.358046
0.341332
0.325453
0.310429
0.296271
0.28298
0.270551
0.258971
0.248221
0.238277
0.229109
0.220683
0.212962
0.205906
0.199475
0.193625
0.188316
0.183505
0.179154
0.175223
0.171675
0.168477
0.165597
0.163003
0.16067
0.158571
0.156684
0.154987
0.153462
0.15209
0.150856
0.149747
0.148749
0.147851
0.147042
0.146314
0.145657
0.145065
0.144531
0.144049
0.143613
0.143218
0.142861
0.142537
0.142243
0.141976
0.141733
0.141511
0.141308
0.141121
0.140949
0.140789
0.140639
0.140499
0.140368
0.140245
0.140128
0.140017
0.139912
0.139812
0.139716
0.139624
0.139536
0.139452
0.13937
0.139292
0.139217
0.139144
0.139074
0.139006
0.13894
0.138876
0.138814
0.138754
0.138696
0.138639
0.138583
0.138528
0.138475
0.138422
0.138371
0.13832
0.138269
0.13822
0.13817
0.138121
0.138072
0.138023
0.137973
0.137924
0.137874
0.137824
0.137773
0.137722
0.137669
0.137614
0.137558
0.137499
0.137438
0.137372
0.137302
0.137226
0.137141
0.137047
0.136938
0.136812
0.136661
0.136479
0.136253
0.135966
0.135615
0.0627492
0.15952
0.20495
0.237653
0.264496
0.288435
0.311344
0.334579
0.359079
0.385364
0.41352
0.443209
0.473729
0.504112
0.533255
0.560035
0.583396
0.602413
0.616334
0.624629
0.627032
0.62359
0.614704
0.601133
0.583958
0.564487
0.544121
0.52422
0.505981
0.49037
0.478089
0.469568
0.464973
0.464204
0.466905
0.472465
0.480069
0.48784
0.494439
0.498749
0.49991
0.497611
0.492421
0.485934
0.480496
0.478488
0.481565
0.490253
0.503946
0.521147
0.539815
0.557735
0.572826
0.583432
0.588822
0.588762
0.583711
0.574826
0.562886
0.548553
0.532412
0.51497
0.496661
0.477845
0.458819
0.439823
0.421051
0.402655
0.384754
0.367441
0.350783
0.334833
0.31963
0.305199
0.291559
0.278718
0.26668
0.25544
0.244987
0.235305
0.226371
0.218158
0.210634
0.203765
0.197512
0.191836
0.186697
0.182055
0.177871
0.174106
0.170723
0.167688
0.164968
0.162533
0.160355
0.158407
0.156667
0.155112
0.153724
0.152484
0.151377
0.150389
0.149507
0.14872
0.148017
0.147388
0.146827
0.146325
0.145876
0.145475
0.145115
0.144793
0.144504
0.144245
0.144012
0.143802
0.143613
0.143442
0.143287
0.143146
0.143016
0.142897
0.142787
0.142684
0.142589
0.1425
0.142416
0.142338
0.142263
0.142193
0.142126
0.142062
0.142001
0.141942
0.141886
0.141832
0.14178
0.141731
0.141682
0.141636
0.141591
0.141547
0.141504
0.141463
0.141423
0.141383
0.141344
0.141307
0.141269
0.141233
0.141196
0.141161
0.141125
0.14109
0.141055
0.14102
0.140985
0.140949
0.140914
0.140878
0.140842
0.140806
0.140768
0.14073
0.140691
0.14065
0.140608
0.140564
0.140517
0.140466
0.140411
0.140351
0.140284
0.140208
0.140121
0.140019
0.139898
0.139752
0.139574
0.139365
0.0592616
0.155526
0.200844
0.234725
0.263676
0.290379
0.316477
0.343135
0.37113
0.400833
0.432193
0.46474
0.497642
0.529809
0.560007
0.586973
0.609504
0.626529
0.63718
0.640878
0.63743
0.627126
0.610789
0.58975
0.565722
0.540587
0.51617
0.494053
0.475478
0.461318
0.452092
0.447986
0.448856
0.454223
0.463265
0.474829
0.487538
0.500388
0.511982
0.520484
0.523812
0.520171
0.508947
0.491642
0.472069
0.455031
0.444473
0.442396
0.448882
0.462553
0.481078
0.501713
0.521678
0.5382
0.550002
0.556217
0.557319
0.554019
0.54699
0.536907
0.524404
0.510047
0.494329
0.477669
0.460418
0.44287
0.425263
0.407789
0.390601
0.373818
0.357535
0.341821
0.326731
0.312305
0.298574
0.28556
0.273277
0.261734
0.250932
0.240867
0.23153
0.222904
0.214969
0.207697
0.20106
0.195022
0.189549
0.184603
0.180145
0.176137
0.172542
0.169324
0.166448
0.163881
0.161594
0.159558
0.157747
0.156138
0.154708
0.15344
0.152314
0.151315
0.150429
0.149644
0.148947
0.14833
0.147783
0.147298
0.146867
0.146486
0.146147
0.145847
0.145581
0.145344
0.145133
0.144946
0.144779
0.144631
0.144498
0.144378
0.144271
0.144173
0.144084
0.144003
0.143928
0.143859
0.143796
0.143737
0.143682
0.143631
0.143582
0.143537
0.143494
0.143453
0.143414
0.143377
0.143341
0.143307
0.143274
0.143243
0.143212
0.143183
0.143154
0.143127
0.143099
0.143073
0.143047
0.143022
0.142997
0.142972
0.142948
0.142924
0.1429
0.142876
0.142853
0.142829
0.142805
0.142781
0.142758
0.142733
0.142709
0.142684
0.142659
0.142633
0.142606
0.142578
0.14255
0.142519
0.142487
0.142453
0.142416
0.142376
0.142331
0.142281
0.142225
0.14216
0.142087
0.142001
0.141902
0.141791
0.0556372
0.150961
0.196369
0.231041
0.261486
0.290213
0.318692
0.347947
0.378626
0.41099
0.44489
0.479764
0.514686
0.548467
0.579754
0.607132
0.62922
0.644754
0.652704
0.652425
0.643827
0.627523
0.604867
0.577841
0.548771
0.519972
0.493441
0.470687
0.452713
0.440091
0.433061
0.431581
0.435317
0.443616
0.455468
0.469601
0.485378
0.503485
0.522801
0.541065
0.554829
0.559785
0.55201
0.530359
0.498821
0.465245
0.43739
0.41995
0.414283
0.419479
0.433142
0.452169
0.473544
0.493249
0.509161
0.520486
0.526936
0.528733
0.526373
0.520466
0.511638
0.500476
0.487506
0.473189
0.457922
0.442039
0.425822
0.409499
0.393256
0.377241
0.36157
0.346331
0.331595
0.317414
0.303827
0.290866
0.278554
0.266908
0.255941
0.245657
0.236059
0.22714
0.218891
0.211295
0.204332
0.197976
0.192196
0.18696
0.182234
0.177982
0.174167
0.170754
0.167707
0.164992
0.162579
0.160436
0.158536
0.156854
0.155366
0.15405
0.152888
0.151862
0.150957
0.150159
0.149455
0.148835
0.148289
0.147808
0.147384
0.147011
0.146683
0.146394
0.146139
0.145915
0.145718
0.145544
0.145391
0.145256
0.145137
0.145031
0.144938
0.144854
0.144779
0.144712
0.144651
0.144597
0.144547
0.144502
0.14446
0.144422
0.144387
0.144354
0.144324
0.144296
0.144269
0.144244
0.14422
0.144197
0.144176
0.144155
0.144135
0.144116
0.144098
0.14408
0.144062
0.144046
0.144029
0.144013
0.143997
0.143981
0.143966
0.143951
0.143936
0.14392
0.143905
0.14389
0.143875
0.14386
0.143845
0.143829
0.143814
0.143798
0.143782
0.143765
0.143748
0.14373
0.143712
0.143692
0.143672
0.14365
0.143626
0.143601
0.143573
0.143543
0.14351
0.143473
0.143433
0.14339
0.143344
0.143299
0.0524104
0.145873
0.190886
0.226241
0.257779
0.287923
0.318086
0.34927
0.381958
0.416301
0.452157
0.48893
0.525655
0.561083
0.593765
0.622139
0.644629
0.659736
0.666205
0.66328
0.650936
0.630082
0.602576
0.570976
0.538069
0.506371
0.477777
0.453486
0.434158
0.420133
0.41155
0.408309
0.409925
0.41557
0.42439
0.436048
0.451786
0.472933
0.499082
0.528459
0.557484
0.580231
0.588797
0.576215
0.542958
0.498439
0.454989
0.421519
0.40165
0.395482
0.400996
0.414781
0.433298
0.453041
0.471192
0.485918
0.496312
0.502178
0.503759
0.501528
0.496042
0.487864
0.477524
0.465503
0.452222
0.43805
0.423298
0.408227
0.39305
0.377941
0.363035
0.348437
0.33423
0.320475
0.307221
0.294504
0.282353
0.270791
0.259836
0.249502
0.239796
0.230723
0.222281
0.214465
0.207263
0.200657
0.194625
0.189142
0.184178
0.179702
0.175679
0.172076
0.168859
0.165994
0.163448
0.161191
0.159193
0.157428
0.15587
0.154498
0.153289
0.152226
0.151292
0.150471
0.14975
0.149118
0.148564
0.148078
0.147652
0.147279
0.146953
0.146667
0.146417
0.146199
0.146008
0.145841
0.145695
0.145567
0.145456
0.145358
0.145272
0.145197
0.14513
0.145072
0.14502
0.144974
0.144933
0.144897
0.144864
0.144834
0.144808
0.144784
0.144761
0.144741
0.144722
0.144705
0.144689
0.144674
0.14466
0.144646
0.144634
0.144622
0.14461
0.144599
0.144588
0.144578
0.144568
0.144558
0.144548
0.144539
0.14453
0.14452
0.144511
0.144502
0.144493
0.144484
0.144475
0.144466
0.144457
0.144447
0.144438
0.144428
0.144418
0.144408
0.144398
0.144387
0.144376
0.144364
0.144352
0.144339
0.144325
0.14431
0.144295
0.144278
0.144261
0.144243
0.144226
0.144211
0.1442
0.144196
0.0490014
0.140768
0.184638
0.220594
0.253074
0.28426
0.31554
0.347833
0.38167
0.417257
0.454428
0.492612
0.530878
0.567997
0.6025
0.632732
0.656935
0.673293
0.680164
0.676669
0.662704
0.639293
0.608602
0.573585
0.537337
0.502453
0.470691
0.443024
0.420047
0.402224
0.389763
0.38235
0.379018
0.378625
0.380857
0.38724
0.400768
0.42222
0.451474
0.487513
0.527887
0.567335
0.596416
0.602482
0.579536
0.535111
0.483758
0.438498
0.406109
0.388183
0.383627
0.389948
0.403765
0.421385
0.439489
0.455625
0.468326
0.476959
0.481465
0.482124
0.479378
0.473731
0.465684
0.455712
0.444249
0.431679
0.418336
0.404502
0.390413
0.376258
0.362191
0.348329
0.334762
0.321562
0.308778
0.296453
0.284617
0.273296
0.262511
0.252278
0.242611
0.233522
0.225015
0.217092
0.20975
0.20298
0.196768
0.191097
0.185943
0.181279
0.177077
0.173305
0.169932
0.166924
0.164251
0.161882
0.159786
0.157936
0.156306
0.154872
0.153612
0.152506
0.151537
0.150688
0.149945
0.149295
0.148727
0.148231
0.147798
0.14742
0.147091
0.146804
0.146554
0.146336
0.146147
0.145982
0.145839
0.145715
0.145607
0.145513
0.145431
0.14536
0.145299
0.145245
0.145198
0.145157
0.145121
0.14509
0.145062
0.145037
0.145016
0.144997
0.14498
0.144964
0.144951
0.144938
0.144927
0.144916
0.144907
0.144898
0.14489
0.144882
0.144875
0.144868
0.144862
0.144855
0.144849
0.144843
0.144838
0.144832
0.144827
0.144821
0.144816
0.144811
0.144806
0.144801
0.144795
0.14479
0.144785
0.14478
0.144774
0.144769
0.144763
0.144757
0.144751
0.144745
0.144739
0.144732
0.144725
0.144718
0.14471
0.144703
0.144695
0.144687
0.14468
0.144675
0.144672
0.144674
0.144684
0.144704
0.0452173
0.136672
0.177575
0.213532
0.246868
0.278915
0.310957
0.343951
0.378496
0.414847
0.452884
0.492103
0.531645
0.570345
0.60677
0.639254
0.66594
0.684883
0.694307
0.692958
0.68044
0.657556
0.626378
0.589883
0.551276
0.51322
0.477539
0.445285
0.417283
0.394394
0.377077
0.364826
0.355969
0.3485
0.342931
0.344813
0.357227
0.378806
0.408929
0.44695
0.491504
0.538907
0.580733
0.603801
0.597025
0.561173
0.509556
0.458103
0.416924
0.389698
0.376514
0.375645
0.384154
0.398446
0.415008
0.431015
0.444586
0.454721
0.461079
0.463734
0.462996
0.459283
0.45305
0.444751
0.434815
0.42363
0.41154
0.398842
0.385782
0.372563
0.359347
0.346259
0.333395
0.320828
0.308611
0.296785
0.285382
0.274426
0.263939
0.253938
0.244441
0.23546
0.227006
0.219088
0.211708
0.204865
0.198553
0.192761
0.187474
0.18267
0.178326
0.174416
0.17091
0.167779
0.164993
0.16252
0.160332
0.158402
0.156701
0.155207
0.153896
0.152747
0.151741
0.150862
0.150094
0.149425
0.14884
0.148332
0.147889
0.147503
0.147168
0.146877
0.146624
0.146404
0.146214
0.146049
0.145906
0.145783
0.145676
0.145583
0.145504
0.145435
0.145375
0.145324
0.145279
0.145241
0.145208
0.145179
0.145154
0.145132
0.145114
0.145097
0.145083
0.145071
0.14506
0.14505
0.145041
0.145034
0.145027
0.14502
0.145015
0.14501
0.145005
0.145001
0.144997
0.144993
0.144989
0.144986
0.144982
0.144979
0.144976
0.144973
0.14497
0.144967
0.144964
0.144962
0.144959
0.144956
0.144953
0.14495
0.144947
0.144944
0.144941
0.144938
0.144935
0.144931
0.144928
0.144924
0.144921
0.144917
0.144914
0.14491
0.144907
0.144905
0.144904
0.144906
0.144911
0.144923
0.144944
0.144977
0.0412366
0.13583
0.170941
0.204636
0.238117
0.270893
0.303528
0.336955
0.371883
0.408662
0.447258
0.487264
0.527925
0.568179
0.606688
0.641862
0.671879
0.694767
0.708617
0.711889
0.703808
0.684738
0.656317
0.621184
0.582366
0.542551
0.503732
0.46729
0.434404
0.406217
0.383412
0.365705
0.351755
0.340133
0.331832
0.332031
0.342472
0.362424
0.391272
0.428344
0.472591
0.521391
0.567846
0.59914
0.601802
0.572846
0.523609
0.470557
0.425208
0.3925
0.373533
0.367335
0.371447
0.38251
0.397036
0.412071
0.42552
0.436151
0.44341
0.447208
0.447729
0.445309
0.440354
0.433286
0.424521
0.414443
0.403396
0.39168
0.379546
0.3672
0.354807
0.342494
0.330358
0.318469
0.30688
0.295629
0.284745
0.27425
0.264163
0.254502
0.245281
0.236517
0.228223
0.22041
0.213087
0.206259
0.199926
0.194084
0.188725
0.183833
0.179392
0.17538
0.171771
0.16854
0.165658
0.163097
0.160829
0.158826
0.157062
0.155511
0.154152
0.152961
0.151921
0.151013
0.15022
0.14953
0.14893
0.148407
0.147954
0.147559
0.147217
0.146921
0.146664
0.146441
0.146249
0.146082
0.145938
0.145814
0.145707
0.145615
0.145536
0.145467
0.145408
0.145358
0.145315
0.145277
0.145245
0.145218
0.145195
0.145174
0.145157
0.145142
0.145129
0.145118
0.145109
0.145101
0.145094
0.145087
0.145082
0.145077
0.145073
0.145069
0.145066
0.145063
0.14506
0.145058
0.145055
0.145053
0.145051
0.14505
0.145048
0.145046
0.145044
0.145043
0.145041
0.14504
0.145038
0.145037
0.145035
0.145034
0.145032
0.145031
0.145029
0.145027
0.145026
0.145024
0.145022
0.145021
0.145019
0.145017
0.145016
0.145015
0.145015
0.145016
0.145018
0.145024
0.145034
0.145051
0.145077
0.145115
0.0375966
0.141451
0.169348
0.195449
0.225792
0.258093
0.291062
0.324827
0.360025
0.397128
0.436227
0.477025
0.518884
0.560869
0.601784
0.640188
0.674401
0.70255
0.72271
0.733155
0.732726
0.721201
0.69951
0.669625
0.634098
0.595471
0.555871
0.516983
0.480287
0.447162
0.418647
0.395107
0.376246
0.361847
0.352833
0.352557