/*--------------------------------*- C++ -*----------------------------------*\
  =========                 |
  \\      /  F ield         | OpenFOAM: The Open Source CFD Toolbox
   \\    /   O peration     | Website:  https://openfoam.org
    \\  /    A nd           | Version:  9
     \\/     M anipulation  |
\*---------------------------------------------------------------------------*/
FoamFile
{
    format      ascii;
    class       volVectorField;
    location    "0.18";
    object      U;
}
// * * * * * * * * * * * * * * * * * * * * * * * * * * * * * * * * * * * * * //

dimensions      [0 1 -1 0 0 0 0];

internalField   nonuniform List<vector> 
12225
(
(9.80102 -0.21861 0)
(9.4261 -0.183551 0)
(9.05728 -0.116828 0)
(8.70884 -0.0689905 0)
(8.40243 -0.0388776 0)
(8.14622 -0.0217598 0)
(7.9397 -0.0130134 0)
(7.78091 -0.00950479 0)
(7.66907 -0.00961766 0)
(7.60338 -0.0123003 0)
(7.58385 -0.0166803 0)
(7.60165 -0.0214285 0)
(7.65841 -0.0276129 0)
(7.76037 -0.0364963 0)
(7.9205 -0.0503268 0)
(8.15909 -0.0699778 0)
(8.53292 -0.122055 0)
(9.10988 -0.17404 0)
(10.0789 0.140696 0)
(10.2368 0.219973 0)
(10.331 0.200491 0)
(10.3767 0.170341 0)
(10.3973 0.14439 0)
(10.4028 0.120926 0)
(10.3988 0.0993012 0)
(10.3907 0.0792127 0)
(10.384 0.0595593 0)
(10.3838 0.0399489 0)
(10.3932 0.0203104 0)
(10.4213 0.000540168 0)
(10.4742 -0.0218442 0)
(10.5584 -0.0498334 0)
(10.6829 -0.0873619 0)
(10.8641 -0.144292 0)
(11.1198 -0.241606 0)
(11.4706 -0.459663 0)
(10.0078 0.0305916 0)
(10.0562 0.0208733 0)
(10.116 0.0063404 0)
(10.1734 0.00864335 0)
(10.2293 0.0151022 0)
(10.2853 0.0175598 0)
(10.3406 0.0154141 0)
(10.3952 0.00983143 0)
(10.4505 0.000770591 0)
(10.5091 -0.0120236 0)
(10.5735 -0.0283071 0)
(10.6486 -0.0484947 0)
(10.7387 -0.0748954 0)
(10.8488 -0.110943 0)
(10.9854 -0.162516 0)
(11.1565 -0.241177 0)
(11.3646 -0.374143 0)
(11.5943 -0.616732 0)
(10.0041 0.0187306 0)
(10.0328 0.0400841 0)
(10.0723 0.049536 0)
(10.11 0.0535853 0)
(10.1487 0.0521468 0)
(10.1925 0.0452946 0)
(10.2416 0.0344914 0)
(10.2951 0.0208328 0)
(10.3534 0.00506268 0)
(10.4181 -0.0141857 0)
(10.4911 -0.0377717 0)
(10.5746 -0.0669365 0)
(10.6711 -0.103903 0)
(10.7841 -0.152617 0)
(10.9174 -0.219773 0)
(11.0735 -0.317448 0)
(11.2488 -0.466698 0)
(11.422 -0.698296 0)
(10.0036 0.0159251 0)
(10.0274 0.0374852 0)
(10.0603 0.0399862 0)
(10.0924 0.0346695 0)
(10.1259 0.0274394 0)
(10.1646 0.0179543 0)
(10.209 0.00578619 0)
(10.2587 -0.00976927 0)
(10.3141 -0.0281197 0)
(10.3761 -0.0501903 0)
(10.4465 -0.0772894 0)
(10.527 -0.111199 0)
(10.6193 -0.154429 0)
(10.7256 -0.211185 0)
(10.8476 -0.288182 0)
(10.9844 -0.396028 0)
(11.1299 -0.54911 0)
(11.2636 -0.765706 0)
(10.0029 0.0125777 0)
(10.0227 0.0286961 0)
(10.052 0.0288008 0)
(10.0827 0.0228793 0)
(10.115 0.01577 0)
(10.152 0.00611364 0)
(10.1941 -0.00711031 0)
(10.2412 -0.024341 0)
(10.2938 -0.0457694 0)
(10.3529 -0.0718303 0)
(10.4197 -0.103806 0)
(10.4955 -0.143627 0)
(10.5816 -0.194004 0)
(10.6788 -0.259102 0)
(10.7872 -0.345009 0)
(10.9042 -0.460222 0)
(11.0225 -0.614187 0)
(11.125 -0.81717 0)
(10.0023 0.00906641 0)
(10.0189 0.020468 0)
(10.0452 0.0199538 0)
(10.0746 0.0134909 0)
(10.106 0.0046455 0)
(10.1414 -0.00741465 0)
(10.1816 -0.0236773 0)
(10.2267 -0.0439934 0)
(10.277 -0.0688634 0)
(10.3331 -0.098935 0)
(10.3961 -0.135582 0)
(10.4667 -0.180819 0)
(10.5456 -0.237386 0)
(10.6328 -0.309132 0)
(10.7271 -0.401191 0)
(10.8249 -0.519951 0)
(10.919 -0.671189 0)
(10.9961 -0.860017 0)
(10.0019 0.00595639 0)
(10.0159 0.0132142 0)
(10.0394 0.0113991 0)
(10.0672 0.00346967 0)
(10.0973 -0.00766585 0)
(10.1311 -0.0221405 0)
(10.1694 -0.0407483 0)
(10.2123 -0.0636872 0)
(10.26 -0.0915662 0)
(10.3128 -0.125227 0)
(10.3714 -0.166062 0)
(10.4361 -0.216042 0)
(10.5071 -0.277747 0)
(10.5836 -0.354531 0)
(10.6636 -0.450471 0)
(10.7432 -0.570058 0)
(10.8159 -0.716446 0)
(10.8717 -0.891729 0)
(10.0016 0.00324567 0)
(10.0135 0.00648706 0)
(10.0345 0.00268263 0)
(10.0603 -0.00697083 0)
(10.0889 -0.0202336 0)
(10.1209 -0.0369396 0)
(10.157 -0.0578383 0)
(10.1973 -0.0834236 0)
(10.2419 -0.114325 0)
(10.2908 -0.151449 0)
(10.3443 -0.196147 0)
(10.4025 -0.250251 0)
(10.4649 -0.316057 0)
(10.5302 -0.396324 0)
(10.5962 -0.494089 0)
(10.6588 -0.612269 0)
(10.7127 -0.752239 0)
(10.7503 -0.914438 0)
(10.0013 0.000827113 0)
(10.0116 0.000162233 0)
(10.0301 -0.00598163 0)
(10.0539 -0.0174574 0)
(10.0807 -0.0327821 0)
(10.1106 -0.0517344 0)
(10.1442 -0.0749848 0)
(10.1816 -0.103154 0)
(10.2225 -0.136893 0)
(10.2669 -0.177113 0)
(10.3148 -0.225083 0)
(10.3659 -0.282435 0)
(10.4192 -0.351099 0)
(10.4733 -0.433217 0)
(10.5257 -0.53089 0)
(10.5727 -0.645811 0)
(10.61 -0.778206 0)
(10.6318 -0.927669 0)
(10.0011 -0.00135096 0)
(10.0099 -0.00574212 0)
(10.0263 -0.0144049 0)
(10.0479 -0.027831 0)
(10.0726 -0.0452154 0)
(10.1002 -0.066388 0)
(10.131 -0.0919206 0)
(10.165 -0.122477 0)
(10.2018 -0.158738 0)
(10.2413 -0.201574 0)
(10.2831 -0.252124 0)
(10.3266 -0.311767 0)
(10.3706 -0.382033 0)
(10.4136 -0.464465 0)
(10.4531 -0.560377 0)
(10.4859 -0.670563 0)
(10.5086 -0.794535 0)
(10.5169 -0.931516 0)
(10.001 -0.00319372 0)
(10.0087 -0.0108405 0)
(10.0232 -0.0218903 0)
(10.0427 -0.037191 0)
(10.0653 -0.0564355 0)
(10.0906 -0.0795522 0)
(10.1185 -0.107042 0)
(10.1491 -0.139567 0)
(10.1818 -0.177809 0)
(10.2164 -0.222569 0)
(10.2522 -0.27483 0)
(10.2885 -0.335711 0)
(10.3241 -0.406366 0)
(10.3572 -0.487841 0)
(10.3857 -0.580859 0)
(10.4068 -0.685617 0)
(10.4176 -0.801237 0)
(10.4151 -0.926812 0)
(10.0009 -0.00486066 0)
(10.0076 -0.0155354 0)
(10.0203 -0.0289639 0)
(10.0377 -0.0461614 0)
(10.0581 -0.0671814 0)
(10.0808 -0.0920825 0)
(10.1058 -0.121322 0)
(10.1327 -0.15553 0)
(10.1611 -0.195352 0)
(10.1906 -0.241499 0)
(10.2204 -0.294778 0)
(10.2495 -0.356049 0)
(10.2769 -0.426118 0)
(10.3007 -0.505612 0)
(10.319 -0.594796 0)
(10.3297 -0.693455 0)
(10.3303 -0.800488 0)
(10.3186 -0.914969 0)
(10.0007 -0.00657739 0)
(10.0064 -0.0204485 0)
(10.0173 -0.0365053 0)
(10.0323 -0.0558276 0)
(10.05 -0.0787507 0)
(10.0696 -0.105474 0)
(10.0908 -0.136422 0)
(10.1133 -0.172159 0)
(10.1366 -0.213261 0)
(10.1601 -0.260311 0)
(10.1829 -0.313911 0)
(10.204 -0.374635 0)
(10.2223 -0.44294 0)
(10.2363 -0.519059 0)
(10.2443 -0.602873 0)
(10.2444 -0.693863 0)
(10.2352 -0.790812 0)
(10.2148 -0.89285 0)
(10.0006 -0.00830049 0)
(10.0052 -0.0254174 0)
(10.014 -0.0442216 0)
(10.0263 -0.065783 0)
(10.0407 -0.0906206 0)
(10.0566 -0.119047 0)
(10.0734 -0.151457 0)
(10.0908 -0.188324 0)
(10.1081 -0.230112 0)
(10.1247 -0.277247 0)
(10.1397 -0.330103 0)
(10.1522 -0.388968 0)
(10.161 -0.453975 0)
(10.165 -0.525026 0)
(10.1628 -0.601721 0)
(10.1531 -0.683357 0)
(10.1349 -0.768716 0)
(10.1069 -0.857044 0)
(10.0004 -0.00994134 0)
(10.0039 -0.0301577 0)
(10.0106 -0.0516176 0)
(10.0197 -0.0753209 0)
(10.0304 -0.101868 0)
(10.0419 -0.131632 0)
(10.0537 -0.164969 0)
(10.0652 -0.202243 0)
(10.0758 -0.243777 0)
(10.0849 -0.289818 0)
(10.0916 -0.340517 0)
(10.0952 -0.395905 0)
(10.0946 -0.455852 0)
(10.089 -0.520025 0)
(10.0775 -0.58786 0)
(10.0591 -0.658591 0)
(10.0333 -0.73109 0)
(9.99923 -0.804759 0)
(10.0003 -0.011359 0)
(10.0026 -0.0342432 0)
(10.0069 -0.0579589 0)
(10.0127 -0.0833794 0)
(10.0193 -0.111092 0)
(10.0259 -0.141473 0)
(10.032 -0.174819 0)
(10.0372 -0.211378 0)
(10.0407 -0.251324 0)
(10.042 -0.294732 0)
(10.0405 -0.341566 0)
(10.0354 -0.391661 0)
(10.0262 -0.444713 0)
(10.0121 -0.500268 0)
(9.99262 -0.557711 0)
(9.9673 -0.616319 0)
(9.93591 -0.67513 0)
(9.89795 -0.733714 0)
(10.0001 -0.0123518 0)
(10.0012 -0.0370751 0)
(10.0031 -0.06224 0)
(10.0055 -0.0885398 0)
(10.0078 -0.116473 0)
(10.0093 -0.146364 0)
(10.0096 -0.178434 0)
(10.0083 -0.212817 0)
(10.0049 -0.249556 0)
(9.9988 -0.288591 0)
(9.98966 -0.329756 0)
(9.97701 -0.372778 0)
(9.96044 -0.417281 0)
(9.93963 -0.462791 0)
(9.91431 -0.508744 0)
(9.88431 -0.554531 0)
(9.8497 -0.599408 0)
(9.81018 -0.643093 0)
(9.99998 -0.0126865 0)
(9.99983 -0.0378948 0)
(9.99945 -0.0631006 0)
(9.99854 -0.0887973 0)
(9.99665 -0.115374 0)
(9.99335 -0.143097 0)
(9.98826 -0.172122 0)
(9.98107 -0.202502 0)
(9.97145 -0.234199 0)
(9.95913 -0.267084 0)
(9.94385 -0.300945 0)
(9.9254 -0.335497 0)
(9.90363 -0.370386 0)
(9.87845 -0.405207 0)
(9.84985 -0.439515 0)
(9.81787 -0.472861 0)
(9.78272 -0.504724 0)
(9.74427 -0.53494 0)
(9.99989 -0.0124454 0)
(9.99908 -0.0369624 0)
(9.99738 -0.0610149 0)
(9.99447 -0.0849316 0)
(9.99 -0.109046 0)
(9.98361 -0.133616 0)
(9.97508 -0.158783 0)
(9.96423 -0.184574 0)
(9.95089 -0.210935 0)
(9.93491 -0.237739 0)
(9.91621 -0.264799 0)
(9.89473 -0.29187 0)
(9.87048 -0.318667 0)
(9.84352 -0.344878 0)
(9.81394 -0.370178 0)
(9.78189 -0.394252 0)
(9.74765 -0.41675 0)
(9.71119 -0.437583 0)
(9.99987 -0.0119932 0)
(9.99885 -0.0354411 0)
(9.99667 -0.0580077 0)
(9.99288 -0.0798989 0)
(9.9871 -0.101489 0)
(9.97907 -0.123098 0)
(9.96866 -0.144872 0)
(9.95582 -0.166824 0)
(9.94047 -0.188912 0)
(9.92258 -0.211046 0)
(9.90215 -0.233085 0)
(9.87925 -0.254833 0)
(9.85396 -0.276064 0)
(9.82643 -0.296536 0)
(9.79681 -0.316 0)
(9.76531 -0.334224 0)
(9.73223 -0.350955 0)
(9.69758 -0.366139 0)
(9.99989 -0.0115827 0)
(9.999 -0.034026 0)
(9.9969 -0.0550712 0)
(9.99292 -0.0748265 0)
(9.98652 -0.0938468 0)
(9.97755 -0.112611 0)
(9.96608 -0.131278 0)
(9.95213 -0.149832 0)
(9.93567 -0.168233 0)
(9.91673 -0.186422 0)
(9.8954 -0.204295 0)
(9.87181 -0.221706 0)
(9.84612 -0.238484 0)
(9.81852 -0.25445 0)
(9.78922 -0.269421 0)
(9.75843 -0.28323 0)
(9.72648 -0.295695 0)
(9.69338 -0.306779 0)
(9.99995 -0.0113667 0)
(9.99951 -0.0330772 0)
(9.99807 -0.0526823 0)
(9.99445 -0.0703068 0)
(9.98789 -0.0867996 0)
(9.97841 -0.102801 0)
(9.96633 -0.118502 0)
(9.95178 -0.133934 0)
(9.93475 -0.149113 0)
(9.91529 -0.164009 0)
(9.89355 -0.178526 0)
(9.86971 -0.192534 0)
(9.84398 -0.205895 0)
(9.81657 -0.218471 0)
(9.7877 -0.230126 0)
(9.75763 -0.240737 0)
(9.72667 -0.250171 0)
(9.69489 -0.258416 0)
(10.0001 -0.0114911 0)
(10.0005 -0.0328134 0)
(10.0002 -0.0508464 0)
(9.99734 -0.0664042 0)
(9.99098 -0.0808509 0)
(9.98136 -0.0946178 0)
(9.96903 -0.107665 0)
(9.95414 -0.120108 0)
(9.93672 -0.132147 0)
(9.91691 -0.143865 0)
(9.89494 -0.155213 0)
(9.87101 -0.166092 0)
(9.84534 -0.176402 0)
(9.81816 -0.186036 0)
(9.78971 -0.194891 0)
(9.76025 -0.202868 0)
(9.73008 -0.209868 0)
(9.69924 -0.215865 0)
(10.0003 -0.0121115 0)
(10.0022 -0.0338411 0)
(10.0035 -0.0495517 0)
(10.0014 -0.0620541 0)
(9.99516 -0.0744205 0)
(9.98576 -0.0868199 0)
(9.97371 -0.098526 0)
(9.95896 -0.109391 0)
(9.9415 -0.119612 0)
(9.92161 -0.12931 0)
(9.89958 -0.138483 0)
(9.87568 -0.147096 0)
(9.85013 -0.155105 0)
(9.82319 -0.162465 0)
(9.79512 -0.169116 0)
(9.76619 -0.175001 0)
(9.73669 -0.180057 0)
(9.70678 -0.184274 0)
(10.0006 -0.0128152 0)
(10.0051 -0.0372248 0)
(10.0091 -0.0516773 0)
(10.0075 -0.0597469 0)
(10.0006 -0.0669995 0)
(9.99084 -0.0747881 0)
(9.97897 -0.0827198 0)
(9.9646 -0.0905942 0)
(9.94759 -0.0983772 0)
(9.92823 -0.105972 0)
(9.90685 -0.113252 0)
(9.88371 -0.120124 0)
(9.85904 -0.12652 0)
(9.83309 -0.132383 0)
(9.80614 -0.137661 0)
(9.77844 -0.142304 0)
(9.7503 -0.146265 0)
(9.72168 -0.149479 0)
(10.0005 -0.0119562 0)
(10.0072 -0.0383093 0)
(10.0162 -0.0594553 0)
(10.0181 -0.0748807 0)
(10.013 -0.0858531 0)
(10.0049 -0.0934307 0)
(9.99499 -0.0990096 0)
(9.98295 -0.103748 0)
(9.96865 -0.108151 0)
(9.95233 -0.112317 0)
(9.93424 -0.116243 0)
(9.91454 -0.119914 0)
(9.89339 -0.123303 0)
(9.87097 -0.126372 0)
(9.84749 -0.129081 0)
(9.82316 -0.131397 0)
(9.79832 -0.133279 0)
(9.77292 -0.134652 0)
(9.99998 -0.0150002 0)
(10.0115 -0.00746486 0)
(10.0303 0.000928139 0)
(10.0457 -0.00556306 0)
(10.0565 -0.0190304 0)
(10.0641 -0.032157 0)
(10.0684 -0.0435155 0)
(10.0688 -0.0535822 0)
(10.0653 -0.0626002 0)
(10.0582 -0.0705911 0)
(10.0476 -0.0776052 0)
(10.0337 -0.0837309 0)
(10.0167 -0.0890451 0)
(9.99691 -0.0936066 0)
(9.97459 -0.0974654 0)
(9.95007 -0.100694 0)
(9.92386 -0.103336 0)
(9.89595 -0.10557 0)
(10.0401 -0.104473 0)
(10.1356 -0.179837 0)
(10.1995 -0.177136 0)
(10.235 -0.162925 0)
(10.2541 -0.151837 0)
(10.2599 -0.142542 0)
(10.2522 -0.134564 0)
(10.2318 -0.128103 0)
(10.2005 -0.12293 0)
(10.16 -0.11864 0)
(10.1121 -0.114934 0)
(10.0579 -0.111624 0)
(9.99871 -0.108573 0)
(9.93561 -0.105682 0)
(9.86962 -0.102876 0)
(9.80168 -0.10016 0)
(9.73259 -0.0974924 0)
(9.66325 -0.0953196 0)
(9.89489 0.164882 0)
(9.68625 0.13964 0)
(9.45213 0.0894026 0)
(9.20225 0.0517385 0)
(8.95502 0.025138 0)
(8.7184 0.0070748 0)
(8.49303 -0.00516014 0)
(8.27854 -0.0137033 0)
(8.0751 -0.0197865 0)
(7.88284 -0.0240914 0)
(7.70165 -0.027061 0)
(7.53124 -0.0290129 0)
(7.37132 -0.0301758 0)
(7.22158 -0.0307184 0)
(7.08169 -0.0307652 0)
(6.95128 -0.0304485 0)
(6.82961 -0.0298656 0)
(6.71711 -0.0293539 0)
(-0.214363 0.393349 5.88365e-20)
(-0.590714 0.378831 -5.31023e-20)
(-0.962308 0.254802 0)
(-1.284 0.0762925 0)
(-1.5045 -0.130192 0)
(-1.53276 -0.342722 4.27374e-20)
(-1.31107 -0.54839 0)
(-0.890711 -0.766512 0)
(-0.309468 -0.957893 0)
(0.414273 -1.07176 0)
(1.26125 -1.13309 -4.69516e-20)
(2.14391 -1.136 0)
(3.03161 -1.09512 0)
(3.8966 -1.02753 0)
(4.71582 -0.9456 0)
(5.47601 -0.856734 -1.79736e-20)
(6.17162 -0.764988 0)
(6.80019 -0.672282 0)
(7.35941 -0.578949 0)
(7.84562 -0.484206 0)
(8.25473 -0.385709 0)
(8.57815 -0.279961 0)
(8.80588 -0.161868 0)
(8.93952 -0.016887 4.71702e-21)
(8.91653 0.161887 -5.57453e-21)
(8.72803 0.367962 5.9961e-21)
(8.36944 0.586081 6.04394e-21)
(7.83362 0.797673 0)
(7.12038 0.980612 0)
(6.24259 1.10804 -4.92275e-21)
(5.23046 1.14959 -4.83751e-21)
(4.12606 1.07663 0)
(3.00154 0.841282 0)
(2.01534 0.406062 -9.67901e-21)
(1.30287 -0.0326682 0)
(0.833571 -0.153712 0)
(0.525935 -0.0112399 1.59617e-20)
(0.255505 0.149702 0)
(-0.100385 0.219593 1.99872e-20)
(-0.54793 0.18634 4.22918e-20)
(-0.960333 0.0687245 0)
(-1.21002 -0.11515 0)
(-1.21028 -0.342193 0)
(-0.965693 -0.588273 0)
(-0.445717 -0.816934 0)
(0.34222 -0.962248 2.69571e-20)
(1.29394 -0.929115 1.89686e-20)
(2.21899 -0.716302 1.66188e-20)
(2.90552 -0.376459 0)
(3.17402 -0.0270693 -1.88609e-20)
(3.04903 0.197874 0)
(2.78515 0.250189 2.03773e-20)
(2.58734 0.163276 2.07697e-20)
(2.53421 -0.0158476 0)
(2.56664 -0.231552 0)
(2.54978 -0.369177 0)
(2.3475 -0.297369 2.31571e-20)
(1.85249 -0.00674378 0)
(1.0348 0.358084 0)
(-0.0369043 0.654359 0)
(-1.24913 0.83749 0)
(-2.51064 0.928803 0)
(-3.76215 0.947073 0)
(-4.95432 0.912022 0)
(-6.05398 0.841903 0)
(-7.04207 0.751785 -6.14917e-20)
(-7.91041 0.652931 0)
(-8.65841 0.553012 0)
(-9.29018 0.456796 7.33719e-20)
(-9.8123 0.366958 7.62041e-20)
(-10.2324 0.284823 0)
(-10.5581 0.211062 -8.01878e-20)
(-10.7966 0.14614 8.13835e-20)
(-10.955 0.0902726 0)
(-11.0395 0.0439199 -8.22794e-20)
(-11.0556 0.00709424 0)
(-11.0218 -0.0223632 0)
(-10.9425 -0.0482206 7.91623e-20)
(-10.821 -0.0720935 0)
(-10.6593 -0.0947761 -7.45154e-20)
(-10.4584 -0.116654 0)
(-10.2192 -0.137967 6.79546e-20)
(-9.94184 -0.158882 6.39743e-20)
(-9.6266 -0.179511 5.95303e-20)
(-9.27341 -0.199911 1.09242e-19)
(-8.88222 -0.220065 -9.84889e-20)
(-8.4531 -0.239863 0)
(-7.98645 -0.259091 0)
(-7.48325 -0.277421 0)
(-6.94526 -0.294416 -4.62222e-20)
(-6.3753 -0.309562 -3.1009e-20)
(-5.77734 -0.322307 1.50982e-20)
(-5.15656 -0.332131 0)
(-4.51927 -0.338606 1.82287e-20)
(-3.87261 -0.34144 3.52784e-20)
(-3.22429 -0.340476 5.23083e-20)
(-2.58232 -0.335609 0)
(-1.95451 -0.326675 0)
(-1.34708 -0.31362 0)
(-0.764447 -0.296975 1.16025e-19)
(-0.212951 -0.276925 0)
(0.305153 -0.253316 0)
(0.791764 -0.229441 -1.26352e-19)
(1.24216 -0.206584 0)
(1.65449 -0.184789 0)
(2.02961 -0.164139 -1.13214e-19)
(2.36866 -0.144735 0)
(2.67301 -0.126618 0)
(2.94427 -0.109788 9.99911e-20)
(3.18421 -0.0942221 9.59624e-20)
(3.39464 -0.0798754 0)
(3.57737 -0.0666829 -8.86685e-20)
(3.7342 -0.054565 0)
(3.8668 -0.043465 8.24521e-20)
(3.97677 -0.0332563 0)
(4.06548 -0.0236019 7.7306e-20)
(4.13327 -0.0147165 7.51234e-20)
(4.18197 -0.00571025 0)
(4.2101 0.00918933 0)
(4.20025 0.0310519 0)
(4.14976 0.0572227 0)
(4.05892 0.0836561 0)
(3.92935 0.107347 0)
(3.76505 0.125415 0)
(3.57365 0.134549 6.64423e-20)
(3.36793 0.130468 -6.61664e-20)
(3.16397 0.112355 0)
(2.97521 0.0906591 0)
(2.81208 0.0791619 0)
(2.69019 0.0525886 0)
(2.59465 0.0118791 -1.29683e-19)
(2.5259 -0.00900916 0)
(2.47243 -0.0148167 1.29065e-19)
(2.42304 -0.0133798 -1.28693e-19)
(2.37372 -0.00970883 0)
(2.32336 -0.00661995 0)
(2.27231 -0.00521393 0)
(2.22201 -0.00560956 1.27497e-19)
(2.17429 -0.00737762 1.27341e-19)
(2.13097 -0.00988109 0)
(2.09375 -0.0125217 1.27175e-19)
(2.06415 -0.0147563 1.27133e-19)
(2.04359 -0.0163023 -1.27091e-19)
(2.03415 -0.0184177 0)
(2.04121 -0.0258621 0)
(2.08355 -0.0411986 -1.26214e-19)
(2.17996 -0.0562593 0)
(2.31962 -0.0475136 0)
(2.43305 -0.0158184 0)
(2.41248 0.0141051 0)
(2.12442 0.087889 1.2104e-19)
(1.34587 0.264285 1.10604e-19)
(0.0440975 0.411867 0)
(-1.3746 0.42833 4.62732e-20)
(-2.61708 0.356213 0)
(-3.58943 0.258243 0)
(-4.27942 0.164554 -3.59257e-20)
(-4.70934 0.0844119 0)
(-4.9069 0.0178339 -5.29152e-20)
(-4.89524 -0.0381277 0)
(-4.73161 -0.0829984 0)
(-4.41866 -0.125145 -2.87706e-20)
(-3.96354 -0.165055 0)
(-3.3762 -0.201411 1.46781e-20)
(-2.67456 -0.231702 0)
(-1.88505 -0.252488 0)
(-1.04008 -0.260375 0)
(-0.173738 -0.254038 -1.22094e-19)
(0.680337 -0.233887 0)
(1.49174 -0.20848 1.34816e-19)
(2.23414 -0.181283 0)
(2.89374 -0.153981 0)
(3.46706 -0.128063 0)
(3.95636 -0.103926 0)
(4.36594 -0.0805688 0)
(4.69524 -0.0607983 0)
(4.95932 -0.0437662 0)
(5.13982 0.00609066 -1.9977e-19)
(5.11378 0.109857 0)
(4.58427 0.208927 0)
(-0.0093671 1.01785 -1.73759e-19)
(-0.0768387 0.964661 1.68877e-19)
(-0.138506 0.810379 0)
(-0.0431481 0.591231 -1.12744e-19)
(0.0352907 0.340135 0)
(0.403218 -0.112985 -4.9753e-20)
(0.85152 -0.783578 8.59267e-20)
(1.44053 -1.46991 7.50741e-20)
(2.10392 -2.02698 0)
(2.79256 -2.38407 5.98888e-20)
(3.48104 -2.55518 3.08143e-20)
(4.14971 -2.57853 0)
(4.79079 -2.50081 0)
(5.40229 -2.36286 0)
(5.98348 -2.1931 0)
(6.5338 -2.00822 1.52884e-20)
(7.05246 -1.81667 0)
(7.53787 -1.62174 -1.07403e-20)
(7.98735 -1.42348 0)
(8.39779 -1.21996 0)
(8.76496 -1.00773 -4.65738e-21)
(9.08752 -0.782149 0)
(9.36423 -0.537779 1.24733e-20)
(9.58337 -0.265181 -4.41932e-21)
(9.79052 0.0444748 5.17089e-21)
(9.96907 0.391968 -5.38328e-21)
(10.0962 0.773118 -5.19907e-21)
(10.1445 1.18018 0)
(10.0807 1.599 0)
(9.86864 2.00329 3.54162e-21)
(9.47561 2.3522 -1.18056e-20)
(8.87726 2.59441 0)
(8.06503 2.66529 0)
(7.06841 2.50719 5.40759e-21)
(5.90886 2.14064 0)
(4.61808 1.64381 0)
(3.36394 1.12793 -1.00419e-20)
(2.34449 0.821245 0)
(1.60137 0.835283 1.7563e-20)
(1.06812 0.924755 -3.71984e-20)
(0.717021 0.800176 0)
(0.497757 0.398129 0)
(0.382438 -0.210389 -1.1195e-19)
(0.506092 -0.895913 -9.4131e-20)
(0.862512 -1.58092 -7.12193e-20)
(1.41683 -2.06764 3.02863e-20)
(2.0822 -2.10907 -1.58195e-20)
(2.70668 -1.68129 -5.20554e-20)
(3.14549 -0.971499 3.97417e-20)
(3.37514 -0.220087 1.81608e-20)
(3.41646 0.314701 0)
(3.31403 0.451246 -1.87484e-20)
(3.14989 0.236089 1.94785e-20)
(2.80971 0.0308177 0)
(2.06708 0.241203 0)
(0.857588 0.846783 0)
(-0.649672 1.48911 -2.2287e-20)
(-2.24444 1.99895 0)
(-3.81375 2.33888 4.75642e-20)
(-5.27165 2.49949 0)
(-6.56548 2.50508 5.76378e-20)
(-7.67229 2.39245 0)
(-8.58775 2.20117 -7.59636e-20)
(-9.32202 1.96631 0)
(-9.89536 1.71536 9.79881e-20)
(-10.3328 1.46744 -6.0335e-20)
(-10.6599 1.23411 0)
(-10.9001 1.02103 -1.29409e-19)
(-11.073 0.829786 -6.51471e-20)
(-11.1943 0.659494 -6.94471e-20)
(-11.2759 0.508016 0)
(-11.3262 0.372878 -8.11863e-20)
(-11.3515 0.251963 -7.79688e-20)
(-11.3552 0.143704 0)
(-11.3392 0.0473087 7.99323e-20)
(-11.3031 -0.0379203 -1.62094e-19)
(-11.2323 -0.113904 0)
(-11.1248 -0.183769 -7.66859e-20)
(-10.9798 -0.24936 0)
(-10.7978 -0.311853 2.18288e-19)
(-10.5789 -0.372011 0)
(-10.3236 -0.430389 -1.98395e-19)
(-10.032 -0.48741 -6.13098e-20)
(-9.70388 -0.543373 5.95043e-20)
(-9.33914 -0.598418 1.09459e-19)
(-8.93746 -0.652482 -9.90753e-20)
(-8.49866 -0.705239 0)
(-8.02287 -0.756052 0)
(-7.51077 -0.803949 0)
(-6.9639 -0.847644 1.35685e-19)
(-6.38486 -0.885617 2.88644e-20)
(-5.7775 -0.91626 -1.39948e-20)
(-5.14701 -0.938064 0)
(-4.49976 -0.94982 1.12317e-20)
(-3.84305 -0.950803 -3.23271e-20)
(-3.18474 -0.940897 -4.77851e-20)
(-2.53274 -0.920605 0)
(-1.89469 -0.890801 0)
(-1.27704 -0.852492 0)
(-0.68433 -0.807169 -1.0541e-19)
(-0.121888 -0.756387 0)
(0.406327 -0.70051 2.31208e-19)
(0.901049 -0.643159 3.42359e-19)
(1.35931 -0.586602 -2.22131e-19)
(1.78043 -0.531535 0)
(2.16525 -0.478557 -1.03742e-19)
(2.51496 -0.428156 0)
(2.831 -0.380627 -1.94896e-19)
(3.11505 -0.336123 9.34021e-20)
(3.36894 -0.294692 9.00714e-20)
(3.59454 -0.256299 0)
(3.79371 -0.220845 2.5307e-19)
(3.96828 -0.188179 -1.62744e-19)
(4.12003 -0.158121 -7.90021e-20)
(4.25056 -0.130415 0)
(4.3614 -0.104629 -7.42751e-20)
(4.45462 -0.0804106 -2.16275e-19)
(4.53067 -0.0566136 0)
(4.59298 -0.0297322 -1.37058e-19)
(4.65848 -8.9337e-06 -1.33724e-19)
(4.72806 0.0315907 -1.30467e-19)
(4.79852 0.0647763 0)
(4.865 0.0978656 0)
(4.92032 0.128811 0)
(4.95736 0.154728 5.93037e-20)
(4.97063 0.171987 5.8536e-20)
(4.95669 0.1786 0)
(4.9148 0.173166 1.13685e-19)
(4.84838 0.152915 1.12793e-19)
(4.75404 0.126195 0)
(4.64603 0.107602 1.11721e-19)
(4.52701 0.0967775 2.2367e-19)
(4.40112 0.089445 -1.11991e-19)
(4.27221 0.0844843 -1.1216e-19)
(4.14226 0.0811619 0)
(4.01216 0.0784143 0)
(3.88253 0.0754975 0)
(3.75399 0.0719663 -1.13479e-19)
(3.62704 0.0675225 1.13898e-19)
(3.5022 0.0619 2.29024e-19)
(3.38015 0.0547646 -1.15194e-19)
(3.26219 0.0457127 1.15925e-19)
(3.15075 0.0343375 1.16715e-19)
(3.05051 0.0190544 0)
(2.9727 -0.00651803 0)
(2.93491 -0.0480134 -1.18482e-19)
(2.95959 -0.0970191 0)
(3.05008 -0.111085 0)
(3.13189 -0.0309276 2.38766e-19)
(2.94294 0.195145 0)
(2.03477 0.613927 1.14702e-19)
(0.303374 1.08625 -1.00709e-19)
(-1.44981 1.22882 0)
(-2.72628 1.09184 2.47177e-20)
(-3.54898 0.844314 0)
(-4.04781 0.597414 0)
(-4.3382 0.385676 3.44613e-20)
(-4.4918 0.208978 -1.01085e-19)
(-4.54252 0.0578986 5.24882e-20)
(-4.50131 -0.0757555 0)
(-4.32131 -0.195639 0)
(-4.00219 -0.308934 -3.37348e-20)
(-3.54503 -0.415573 0)
(-2.95771 -0.512025 7.86842e-21)
(-2.25654 -0.592555 0)
(-1.46686 -0.650033 0)
(-0.620561 -0.677832 0)
(0.248435 -0.67306 1.11304e-19)
(1.10531 -0.637132 0)
(1.92062 -0.583329 -1.22118e-19)
(2.67081 -0.520288 0)
(3.34331 -0.454018 0)
(3.93485 -0.389151 2.25924e-19)
(4.44741 -0.328294 -2.16632e-19)
(4.88664 -0.271555 0)
(5.26037 -0.218492 0)
(5.56575 -0.1628 0)
(5.78961 -0.0827172 5.63998e-19)
(6.08569 0.0542094 0)
(6.31529 0.221353 -3.52976e-19)
(0.142828 0.760111 -4.42339e-22)
(0.324977 1.01115 -2.14372e-19)
(0.459043 0.772292 0)
(0.659708 0.307373 2.00203e-19)
(1.02932 -0.415765 0)
(1.5963 -1.34116 0)
(2.22452 -2.24335 1.38649e-22)
(2.81608 -2.95188 -5.70048e-20)
(3.33081 -3.40062 -4.89336e-20)
(3.76939 -3.60728 -4.99621e-20)
(4.15379 -3.63295 0)
(4.51069 -3.54293 0)
(4.86192 -3.38832 3.02127e-20)
(5.22093 -3.20192 5.03382e-20)
(5.59296 -3.00099 -3.9726e-20)
(5.97704 -2.79216 0)
(6.36849 -2.57617 -1.76447e-20)
(6.76067 -2.35101 1.0977e-20)
(7.14619 -2.11379 0)
(7.51766 -1.86152 1.43626e-20)
(7.86818 -1.59176 4.83283e-21)
(8.19144 -1.30249 -3.26785e-20)
(8.48255 -0.992221 -1.2998e-20)
(8.73586 -0.663421 0)
(8.94776 -0.315129 5.28486e-20)
(9.12903 0.0625723 5.62292e-20)
(9.28834 0.481445 0)
(9.43761 0.95058 5.70174e-20)
(9.58244 1.47257 0)
(9.71324 2.03725 5.29842e-20)
(9.80127 2.61571 1.43139e-20)
(9.79832 3.15771 0)
(9.63966 3.59316 0)
(9.25768 3.84762 0)
(8.60125 3.87078 0)
(7.67016 3.64776 0)
(6.54648 3.20909 0)
(5.36046 2.66153 4.41275e-20)
(4.26493 2.1558 -7.41695e-20)
(3.41369 1.74178 0)
(2.84809 1.29292 0)
(2.48852 0.687243 0)
(2.27181 -0.0676349 2.48928e-21)
(2.20458 -0.969938 7.44379e-20)
(2.30626 -1.96974 1.16348e-19)
(2.55878 -2.74063 -8.93438e-20)
(2.86634 -2.84979 -3.96604e-20)
(3.09867 -2.24028 3.53287e-20)
(3.16334 -1.25455 6.57442e-21)
(3.07102 -0.313309 5.01665e-20)
(2.86414 0.303402 0)
(2.45927 0.597079 4.64488e-20)
(1.61705 0.940703 3.87174e-21)
(0.230853 1.6351 0)
(-1.44755 2.47405 0)
(-3.14007 3.19546 -4.02533e-20)
(-4.69481 3.69528 0)
(-6.02338 3.95904 0)
(-7.09695 4.00825 6.91872e-20)
(-7.92034 3.87643 1.20199e-19)
(-8.52744 3.60823 -4.92844e-20)
(-8.96673 3.25404 0)
(-9.2895 2.86064 7.11397e-20)
(-9.54074 2.46463 0)
(-9.75382 2.09037 1.27659e-19)
(-9.9492 1.75089 1.08889e-19)
(-10.1361 1.45052 -2.64093e-19)
(-10.3158 1.18802 -1.50737e-19)
(-10.4847 0.959202 0)
(-10.6374 0.758792 3.09053e-19)
(-10.7682 0.581482 0)
(-10.8719 0.422383 4.85543e-19)
(-10.9441 0.277296 3.33651e-19)
(-10.9819 0.142889 3.37354e-19)
(-10.9836 0.0164792 -3.37376e-19)
(-10.9487 -0.104085 4.9507e-19)
(-10.8778 -0.219377 0)
(-10.7719 -0.329165 0)
(-10.6313 -0.434046 -3.09343e-19)
(-10.4562 -0.534805 -4.43066e-19)
(-10.2468 -0.632245 0)
(-10.0031 -0.7271 1.31332e-19)
(-9.72496 -0.820003 0)
(-9.41192 -0.911437 -3.50419e-19)
(-9.0634 -1.00166 7.94178e-21)
(-8.67864 -1.09059 -8.15039e-21)
(-8.25693 -1.17771 1.73538e-19)
(-7.79777 -1.26197 0)
(-7.30124 -1.3417 -1.24249e-19)
(-6.76828 -1.41466 8.66117e-21)
(-6.20105 -1.47818 0)
(-5.60319 -1.52937 0)
(-4.9799 -1.5655 0)
(-4.33784 -1.58435 -2.65286e-20)
(-3.68482 -1.58456 0)
(-3.02931 -1.56582 0)
(-2.37986 -1.52894 0)
(-1.74456 -1.47575 0)
(-1.13028 -1.40876 0)
(-0.541618 -1.33125 -1.89364e-19)
(0.0158834 -1.24714 0)
(0.538382 -1.15668 -2.12871e-19)
(1.02667 -1.06449 -2.10913e-19)
(1.47808 -0.97296 2.07384e-19)
(1.89242 -0.883459 0)
(2.27063 -0.797157 1.97437e-19)
(2.61403 -0.714924 0)
(2.92417 -0.637307 1.85714e-19)
(3.20286 -0.564601 -1.79721e-19)
(3.45197 -0.496912 -5.18888e-19)
(3.67341 -0.434204 0)
(3.86908 -0.376332 -4.85991e-19)
(4.04083 -0.323075 -1.55699e-19)
(4.19046 -0.27414 0)
(4.31967 -0.229172 -2.95121e-19)
(4.43014 -0.187777 -2.87093e-19)
(4.52357 -0.149304 4.20278e-19)
(4.60154 -0.113258 0)
(4.66477 -0.0806258 1.34094e-19)
(4.71496 -0.0509719 1.31406e-19)
(4.75659 -0.0222474 3.85593e-19)
(4.79394 0.00754308 0)
(4.8304 0.0383429 0)
(4.86955 0.0695713 0)
(4.91285 0.0995076 1.17407e-19)
(4.95795 0.125102 0)
(4.9992 0.143148 0)
(5.0309 0.152968 -1.11739e-19)
(5.04939 0.157918 -1.10208e-19)
(5.05051 0.159119 0)
(5.03088 0.156401 0)
(4.99202 0.153264 -2.15164e-19)
(4.93915 0.1525 0)
(4.87545 0.154224 2.1404e-19)
(4.80156 0.156959 2.13437e-19)
(4.71759 0.159133 0)
(4.62379 0.159717 0)
(4.52056 0.158234 -2.1399e-19)
(4.40859 0.154614 -2.38099e-22)
(4.28876 0.14897 -1.9585e-22)
(4.16227 0.141264 0)
(4.03065 0.131041 -4.37399e-19)
(3.8955 0.11701 0)
(3.75805 0.0952869 0)
(3.62235 0.0566277 0)
(3.50131 -0.0125919 2.28756e-19)
(3.41477 -0.100044 0)
(3.35269 -0.117203 -4.6888e-19)
(3.19269 0.0978828 -2.3353e-19)
(2.60148 0.65632 0)
(1.21893 1.4529 -2.16965e-19)
(-0.531058 1.98964 0)
(-1.72972 1.93478 0)
(-2.43712 1.56471 -1.4333e-19)
(-2.9106 1.14583 -2.18649e-20)
(-3.28745 0.789688 0)
(-3.59166 0.504066 -1.76175e-19)
(-3.80386 0.266821 1.01208e-19)
(-3.90153 0.0570678 0)
(-3.87152 -0.138179 0)
(-3.70878 -0.327324 0)
(-3.4118 -0.50904 1.96862e-19)
(-2.98095 -0.680706 0)
(-2.42223 -0.835355 -2.10574e-20)
(-1.7504 -0.963241 0)
(-0.989608 -1.05347 0)
(-0.17146 -1.0964 0)
(0.668253 -1.08881 0)
(1.4948 -1.03671 0)
(2.27884 -0.954351 0)
(2.9986 -0.854878 -4.37999e-19)
(3.64274 -0.749215 0)
(4.20887 -0.645396 -2.13285e-19)
(4.70024 -0.547989 6.12265e-19)
(5.12306 -0.458221 0)
(5.48381 -0.373852 0)
(5.7898 -0.28689 -3.66167e-19)
(6.04001 -0.195199 -3.61959e-19)
(6.24459 -0.0722691 3.52696e-19)
(6.46657 0.102423 3.4865e-19)
(0.00790516 0.097297 3.69514e-19)
(0.163688 0.463081 3.48623e-19)
(0.392636 0.157791 2.14826e-19)
(0.892177 -0.761133 9.18791e-20)
(1.54097 -1.85452 0)
(2.15233 -2.80488 -1.24491e-19)
(2.62052 -3.47278 5.21082e-20)
(2.93228 -3.85445 0)
(3.13234 -4.01819 4.75296e-20)
(3.28172 -4.04707 0)
(3.43128 -4.00559 -6.8708e-20)
(3.61245 -3.93044 0)
(3.83868 -3.83604 -3.2014e-20)
(4.11111 -3.72436 -5.3616e-20)
(4.42398 -3.59243 4.24174e-20)
(4.76836 -3.43628 0)
(5.13434 -3.25259 1.88639e-20)
(5.51206 -3.03906 0)
(5.89228 -2.79438 0)
(6.26659 -2.51815 -1.53542e-20)
(6.6276 -2.21069 0)
(6.96917 -1.87293 -1.55481e-20)
(7.28663 -1.50606 0)
(7.57697 -1.11134 0)
(7.83731 -0.689609 1.68675e-20)
(8.06637 -0.242014 -6.08384e-20)
(8.26415 0.228717 -8.00682e-20)
(8.43403 0.721181 -6.15374e-20)
(8.58736 1.23791 0)
(8.73909 1.78575 -1.31635e-19)
(8.90071 2.3707 0)
(9.06983 2.98765 -6.64516e-20)
(9.2187 3.60829 0)
(9.28907 4.17632 0)
(9.20452 4.61545 5.09121e-20)
(8.89513 4.84224 0)
(8.32514 4.78453 -4.38395e-20)
(7.51743 4.4224 7.75423e-21)
(6.57462 3.82473 8.34481e-20)
(5.65581 3.09601 -9.29158e-20)
(4.88462 2.28183 0)
(4.28937 1.37665 0)
(3.84323 0.371037 -4.23753e-20)
(3.55453 -0.764924 0)
(3.4258 -2.00544 -5.20868e-20)
(3.38896 -2.93384 4.22001e-20)
(3.30396 -2.98533 3.85588e-20)
(3.07573 -2.13947 0)
(2.6905 -0.905267 -5.08928e-20)
(2.11808 0.252028 -5.44008e-20)
(1.26271 1.22546 1.16442e-19)
(0.0269943 2.16433 -4.68747e-20)
(-1.54512 3.15588 -3.57172e-20)
(-3.18821 4.06252 0)
(-4.68139 4.73398 0)
(-5.90977 5.12054 3.08191e-20)
(-6.8448 5.23673 0)
(-7.50657 5.12464 0)
(-7.94712 4.8428 -9.71055e-20)
(-8.23244 4.45109 -1.15679e-19)
(-8.42892 4.00479 0)
(-8.59072 3.54811 0)
(-8.75293 3.11016 0)
(-8.93126 2.70559 0)
(-9.12673 2.33847 -2.2669e-19)
(-9.33199 2.00682 2.74065e-19)
(-9.53662 1.70624 2.66606e-19)
(-9.73051 1.43202 5.90205e-19)
(-9.90549 1.18004 0)
(-10.0557 0.947028 1.83497e-20)
(-10.1773 0.730436 0)
(-10.2681 0.528345 -3.34157e-19)
(-10.3269 0.339072 1.43526e-20)
(-10.3533 0.161079 -3.46126e-19)
(-10.3473 -0.00711821 3.45597e-19)
(-10.3094 -0.166886 1.17975e-20)
(-10.2401 -0.319444 0)
(-10.1397 -0.465557 3.35911e-19)
(-10.0087 -0.606009 3.1481e-19)
(-9.84717 -0.741656 6.15201e-19)
(-9.6552 -0.873422 0)
(-9.43263 -1.00225 -2.82987e-19)
(-9.17901 -1.12902 0)
(-8.89355 -1.25448 4.85007e-19)
(-8.57509 -1.37912 -2.17388e-19)
(-8.22218 -1.50295 1.95786e-19)
(-7.83317 -1.62535 -1.72765e-19)
(-7.40651 -1.7449 -3.18848e-19)
(-6.94113 -1.8592 1.2275e-19)
(-6.43685 -1.96494 -9.5975e-20)
(-5.89491 -2.05806 0)
(-5.31836 -2.1341 1.01092e-19)
(-4.71224 -2.18878 0)
(-4.08351 -2.21858 -1.74086e-20)
(-3.44069 -2.22129 7.69945e-20)
(-2.79319 -2.19638 1.35882e-19)