/*--------------------------------*- C++ -*----------------------------------*\
  =========                 |
  \\      /  F ield         | OpenFOAM: The Open Source CFD Toolbox
   \\    /   O peration     | Website:  https://openfoam.org
    \\  /    A nd           | Version:  9
     \\/     M anipulation  |
\*---------------------------------------------------------------------------*/
FoamFile
{
    format      ascii;
    class       volScalarField;
    location    "0.015";
    object      pPrime2Mean;
}
// * * * * * * * * * * * * * * * * * * * * * * * * * * * * * * * * * * * * * //

dimensions      [0 4 -4 0 0 0 0];

internalField   nonuniform List<scalar> 
12225
(
316110
312902
309202
305267
301215
297122
293038
288995
285010
281091
277238
273443
269693
265964
262219
258401
254386
249903
316149
312931
309223
305284
301229
297134
293049
289005
285020
281102
277250
273457
269711
265987
262253
258454
254493
250185
316270
312995
309270
305322
301260
297161
293073
289027
285042
281125
277276
273488
269749
266039
262327
258570
254703
250664
316463
313100
309349
305385
301312
297205
293112
289064
285079
281164
277319
273539
269813
266123
262445
258750
255007
251230
316641
313250
309466
305479
301389
297270
293170
289119
285133
281221
277383
273614
269905
266243
262611
258992
255386
251840
316901
313452
309627
305607
301495
297360
293250
289194
285207
281299
277469
273715
270029
266402
262825
259293
255822
252473
317268
313720
309836
305777
301635
297480
293356
289293
285305
281401
277582
273846
270188
266603
263087
259647
256305
253117
317680
314060
310110
305997
301815
297632
293491
289419
285429
281531
277725
274010
270385
266846
263397
260047
256823
253769
318213
314482
310449
306269
302039
297823
293660
289576
285584
281691
277899
274209
270620
267131
263750
260488
257369
254427
318829
315008
310870
306607
302316
298055
293865
289766
285771
281885
278109
274446
270894
267458
264144
260964
257938
255090
319556
315641
311381
307015
302648
298337
294113
289996
285995
282115
278356
274720
271209
267825
264575
261470
258526
255758
320455
316362
311945
307462
303010
298640
294380
290243
286235
282360
278617
275008
271532
268195
265001
261959
259080
256373
321578
317199
312591
307969
303419
298984
294681
290522
286505
282634
278906
275322
271882
268589
265446
262461
259639
256985
323075
318343
313449
308635
303953
299431
295072
290881
286853
282984
279273
275717
272316
269070
265981
263052
260286
257685
325219
319852
314564
309489
304636
299999
295571
291339
287294
283428
279734
276207
272846
269648
266613
263739
261028
258476
328244
321843
315983
310561
305484
300708
296193
291910
287843
283977
280300
276803
273481
270330
267346
264525
261864
259357
331570
324149
317622
311799
306474
301540
296928
292592
288502
284634
280972
277504
274220
271113
268176
265403
262787
260321
334637
326306
319223
313046
307498
302425
297729
293349
289241
285377
281733
278294
275047
271981
269086
266354
263777
261347
336561
327630
320284
313959
308321
303196
298476
294090
289990
286146
282530
279125
275915
272888
270032
267337
264795
262395
334730
326883
320039
313985
308514
303499
298857
294531
290482
286680
283105
279738
276563
273568
270742
268074
265556
263177
332460
325592
319344
313651
308405
303538
298996
294744
290751
286995
283456
280119
276971
274000
271195
268547
266044
263680
330411
324290
318542
313192
308172
303457
299022
294844
290907
287193
283688
280379
277254
274302
271514
268879
266389
264034
328529
323124
317821
312750
307922
303340
298997
294885
290996
287318
283841
280555
277448
274511
271735
269111
266629
264282
327226
322220
317223
312375
307703
303224
298955
294897
291046
287397
283942
280673
277580
274655
271888
269271
266796
264455
326209
321507
316761
312086
307526
303129
298915
294896
291074
287447
284008
280751
277669
274752
271992
269381
266910
264573
325315
320974
316425
311871
307396
303056
298882
294892
291090
287478
284051
280803
277728
274816
272061
269454
266986
264651
324697
320592
316191
311727
307308
303006
298859
294887
291099
287497
284077
280836
277765
274857
272105
269501
267035
264702
324267
320350
316044
311635
307252
302974
298843
294883
291104
287508
284093
280855
277787
274882
272132
269529
267065
264733
323984
320209
315963
311585
307222
302956
298835
294881
291106
287514
284102
280866
277799
274896
272146
269544
267081
264749
323826
320150
315929
311564
307209
302949
298831
294880
291107
287516
284105
280870
277804
274901
272152
269551
267088
264756
211441
211424
211389
211338
211268
211180
211073
210948
210804
210640
210457
210255
210033
209790
209528
209246
208943
208621
208278
207915
207532
207128
206704
206260
205796
205312
204809
204287
203747
203189
202613
202022
201416
200796
200163
199518
198862
198196
197519
196832
196133
195422
194697
193955
193196
192418
191618
190796
189950
189082
188190
187277
186341
185386
184412
183420
182413
181391
180357
179311
178256
177193
176121
175043
173958
172867
171770
170668
169559
168445
167324
166198
165065
163926
162781
161630
160472
159308
158137
156960
155776
154586
153389
152185
150976
149760
148538
147310
146075
144835
143589
142338
141081
139818
138550
137277
135999
134716
133428
132135
130838
129536
128230
126920
125605
124287
122964
121638
120308
118975
117638
116299
114955
113609
112261
110909
109555
108198
106839
105478
104115
102750
101384
100015
98645.7
97274.7
95902.5
94529.3
93155.4
91780.8
90405.6
89030.2
87654.7
86279.1
84903.8
83528.9
82154.6
80781
79408.5
78037.1
76667
75298.6
73931.9
72567.3
71204.9
69844.8
68487.5
67133
65781.6
64433.6
63089.2
61748.6
60412.1
59080
57752.5
56429.9
55112.5
53800.6
52494.5
51194.4
49900.7
48613.8
47333.8
46061.2
44796.4
43539.6
42291.4
41052
39821.9
38601.6
37391.5
36192.3
35004.5
33828.8
32666.1
31517.3
30383.9
29267.8
28172.7
27106.2
211517
211500
211466
211413
211343
211255
211148
211022
210876
210712
210528
210324
210101
209857
209593
209310
209005
208681
208336
207971
207586
207180
206754
206307
205841
205355
204849
204325
203782
203221
202644
202051
201442
200821
200186
199541
198884
198218
197541
196854
196156
195445
194720
193979
193221
192442
191642
190820
189974
189105
188213
187299
186363
185407
184432
183439
182431
181409
180373
179327
178271
177206
176134
175054
173969
172877
171780
170676
169567
168452
167331
166204
165071
163932
162787
161635
160477
159312
158141
156963
155779
154589
153392
152188
150978
149762
148540
147312
146077
144837
143591
142339
141082
139820
138552
137278
136000
134717
133429
132136
130839
129537
128231
126920
125606
124287
122965
121639
120309
118976
117639
116299
114956
113610
112261
110909
109555
108198
106840
105478
104115
102750
101384
100015
98645.8
97274.7
95902.6
94529.4
93155.4
91780.8
90405.7
89030.3
87654.7
86279.2
84903.8
83528.9
82154.6
80781.1
79408.5
78037.1
76667.1
75298.6
73932
72567.3
71204.9
69844.8
68487.5
67133
65781.6
64433.6
63089.2
61748.6
60412.1
59080
57752.5
56429.9
55112.5
53800.6
52494.5
51194.4
49900.7
48613.7
47333.8
46061.2
44796.4
43539.6
42291.3
41051.9
39821.8
38601.5
37391.4
36192.1
35004.2
33828.4
32665.6
31516.6
30382.9
29266.5
28170.3
27101.1
211670
211653
211618
211565
211494
211404
211296
211168
211022
210855
210669
210463
210237
209990
209724
209437
209129
208801
208453
208084
207694
207284
206853
206403
205932
205441
204931
204402
203855
203290
202708
202110
201498
200872
200235
199586
198927
198259
197581
196894
196197
195487
194763
194024
193267
192489
191690
190868
190022
189152
188259
187343
186406
185448
184471
183477
182468
181444
180407
179358
178300
177233
176159
175078
173991
172897
171798
170694
169583
168467
167345
166217
165083
163943
162797
161645
160486
159321
158149
156971
155786
154595
153398
152194
150984
149767
148545
147316
146081
144841
143594
142343
141085
139822
138554
137281
136002
134719
133431
132138
130840
129539
128232
126922
125607
124288
122966
121640
120310
118976
117639
116299
114956
113610
112261
110910
109555
108199
106840
105479
104116
102751
101384
100016
98645.9
97274.9
95902.7
94529.5
93155.5
91780.9
90405.7
89030.3
87654.7
86279.2
84903.9
83529
82154.6
80781.1
79408.5
78037.1
76667.1
75298.6
73932
72567.3
71204.9
69844.9
68487.5
67133
65781.6
64433.6
63089.2
61748.6
60412.1
59080
57752.5
56429.9
55112.5
53800.6
52494.5
51194.4
49900.7
48613.7
47333.7
46061.1
44796.3
43539.5
42291.2
41051.7
39821.6
38601.2
37391
36191.6
35003.6
33827.6
32664.5
31515.2
30380.9
29263.6
28165.5
27091
211900
211882
211846
211792
211720
211628
211518
211388
211238
211069
210880
210670
210440
210190
209919
209627
209314
208981
208627
208253
207857
207441
207004
206547
206070
205572
205055
204519
203964
203392
202802
202197
201578
200946
200303
199649
198986
198316
197637
196950
196253
195546
194825
194089
193334
192559
191761
190939
190093
189222
188327
187409
186469
185509
184531
183535
182523
181497
180457
179406
178345
177275
176198
175114
174024
172928
171827
170720
169607
168489
167365
166236
165101
163960
162812
161659
160499
159333
158161
156982
155797
154605
153407
152202
150992
149775
148552
147322
146087
144846
143600
142347
141090
139826
138558
137284
136006
134722
133434
132141
130843
129541
128234
126924
125609
124290
122967
121641
120311
118977
117640
116300
114957
113611
112262
110910
109556
108199
106840
105479
104116
102751
101384
100016
98646.1
97275.1
95902.9
94529.7
93155.7
91781
90405.9
89030.4
87654.8
86279.3
84903.9
83529
82154.7
80781.1
79408.5
78037.1
76667.1
75298.7
73932
72567.4
71204.9
69844.9
68487.5
67133
65781.7
64433.6
63089.2
61748.6
60412.1
59080
57752.5
56429.9
55112.5
53800.6
52494.5
51194.4
49900.7
48613.6
47333.7
46061
44796.1
43539.3
42291
41051.5
39821.2
38600.8
37390.5
36190.9
35002.7
33826.5
32662.9
31513.1
30378
29259.2
28158.5
27078.1
212207
212188
212151
212096
212022
211928
211815
211682
211529
211355
211161
210947
210712
210456
210179
209881
209562
209222
208861
208479
208076
207652
207207
206741
206254
205747
205220
204674
204108
203524
202923
202307
201677
201035
200383
199723
199054
198380
197700
197013
196319
195615
194899
194168
193418
192647
191852
191031
190184
189312
188414
187493
186551
185588
184608
183610
182596
181567
180526
179471
178406
177332
176250
175162
174068
172969
171865
170755
169639
168519
167393
166261
165124
163982
162833
161678
160517
159350
158177
156997
155811
154618
153419
152214
151002
149785
148561
147331
146095
144854
143606
142354
141095
139832
138563
137289
136010
134726
133437
132144
130846
129544
128237
126926
125611
124292
122969
121643
120312
118979
117642
116302
114958
113612
112263
110911
109557
108200
106841
105480
104117
102751
101385
100016
98646.5
97275.3
95903.1
94529.9
93155.8
91781.2
90406
89030.5
87654.9
86279.4
84904
83529.1
82154.7
80781.2
79408.6
78037.2
76667.1
75298.7
73932.1
72567.4
71204.9
69844.9
68487.6
67133.1
65781.7
64433.7
63089.2
61748.6
60412.1
59080
57752.5
56429.9
55112.5
53800.6
52494.4
51194.3
49900.6
48613.6
47333.6
46060.9
44796
43539.1
42290.7
41051.1
39820.8
38600.2
37389.8
36190
35001.5
33824.9
32660.9
31510.3
30374.1
29253.7
28150
27064
212594
212574
212536
212479
212402
212305
212188
212051
211894
211715
211516
211295
211054
210791
210506
210201
209873
209525
209155
208763
208350
207916
207460
206983
206484
205964
205423
204862
204280
203681
203064
202432
201787
201132
200467
199796
199120
198440
197758
197071
196381
195683
194974
194251
193509
192744
191953
191134
190287
189413
188514
187590
186644
185679
184696
183697
182682
181652
180609
179552
178483
177404
176317
175224
174125
173022
171913
170798
169680
168556
167427
166293
165154
164009
162858
161702
160540
159371
158196
157015
155828
154634
153434
152228
151015
149797
148572
147341
146105
144863
143615
142362
141103
139839
138569
137295
136015
134731
133442
132148
130850
129547
128240
126929
125614
124294
122971
121645
120314
118980
117643
116303
114960
113613
112264
110912
109558
108201
106842
105480
104117
102752
101385
100017
98646.8
97275.7
95903.4
94530.1
93156.1
91781.4
90406.2
89030.7
87655
86279.5
84904.1
83529.2
82154.8
80781.2
79408.6
78037.2
76667.2
75298.8
73932.1
72567.4
71205
69845
68487.6
67133.1
65781.7
64433.7
63089.2
61748.6
60412.2
59080
57752.5
56429.9
55112.5
53800.6
52494.4
51194.3
49900.5
48613.5
47333.4
46060.8
44795.8
43538.9
42290.4
41050.7
39820.3
38599.5
37388.9
36188.9
35000.1
33823
32658.4
31507
30369.6
29247.2
28140.4
27049.5
213064
213043
213003
212944
212864
212763
212642
212499
212336
212151
211945
211717
211467
211195
210902
210586
210249
209890
209509
209105
208680
208233
207764
207272
206758
206221
205661
205079
204477
203856
203218
202565
201901
201227
200547
199861
199174
198486
197799
197113
196428
195739
195042
194331
193600
192845
192062
191247
190402
189526
188623
187695
186745
185777
184791
183790
182773
181743
180699
179642
178571
177488
176397
175298
174193
173084
171970
170851
169728
168600
167468
166331
165189
164041
162889
161730
160566
159396
158220
157037
155848
154653
153452
152244
151031
149811
148586
147354
146117
144874
143625
142371
141111
139847
138577
137302
136022
134737
133447
132153
130854
129551
128244
126933
125617
124297
122974
121647
120317
118983
117645
116305
114961
113615
112265
110913
109559
108202
106843
105481
104118
102753
101386
100017
98647.3
97276.1
95903.7
94530.4
93156.3
91781.6
90406.4
89030.8
87655.2
86279.6
84904.2
83529.3
82154.9
80781.3
79408.7
78037.3
76667.3
75298.8
73932.2
72567.5
71205.1
69845
68487.7
67133.1
65781.8
64433.7
63089.3
61748.7
60412.2
59080
57752.5
56429.9
55112.5
53800.5
52494.3
51194.2
49900.5
48613.4
47333.3
46060.6
44795.5
43538.6
42290
41050.2
39819.7
38598.7
37387.9
36187.6
34998.4
33820.8
32655.5
31503.2
30364.4
29240
28130.3
27034.9
213620
213599
213556
213494
213410
213304
213178
213029
212858
212666
212451
212213
211954
211671
211367
211040
210690
210318
209924
209507
209067
208604
208118
207608
207074
206515
205931
205324
204695
204047
203384
202706
202018
201321
200618
199912
199206
198506
197812
197128
196451
195778
195102
194412
193702
192964
192192
191384
190539
189660
188751
187816
186859
185884
184893
183889
182870
181838
180793
179735
178663
177579
176484
175380
174271
173156
172037
170913
169784
168652
167515
166374
165229
164079
162924
161763
160597
159425
158247
157062
155872
154675
153472
152264
151049
149828
148601
147368
146130
144886
143637
142382
141121
139856
138585
137310
136029
134744
133454
132159
130860
129556
128249
126937
125621
124301
122977
121650
120319
118985
117647
116307
114963
113616
112267
110915
109560
108203
106844
105482
104119
102753
101386
100018
98647.8
97276.5
95904.1
94530.8
93156.6
91781.9
90406.6
89031.1
87655.4
86279.8
84904.4
83529.4
82155
80781.4
79408.8
78037.4
76667.4
75298.9
73932.2
72567.6
71205.1
69845.1
68487.7
67133.2
65781.8
64433.8
63089.3
61748.7
60412.2
59080.1
57752.5
56429.9
55112.5
53800.5
52494.3
51194.2
49900.4
48613.3
47333.1
46060.4
44795.3
43538.2
42289.6
41049.7
39819
38597.8
37386.7
36186.1
34996.5
33818.4
32652.4
31499
30358.8
29232.4
28119.8
27020.6
214268
214245
214200
214134
214045
213934
213800
213644
213465
213262
213037
212788
212517
212222
211904
211563
211199
210812
210402
209969
209512
209031
208525
207993
207434
206848
206235
205598
204939
204262
203569
202861
202141
201410
200672
199932
199197
198474
197769
197087
196425
195777
195133
194479
193803
193093
192340
191542
190700
189817
188901
187956
186990
186006
185007
183996
182973
181938
180891
179832
178759
177673
176575
175468
174354
173235
172110
170981
169848
168710
167569
166423
165275
164121
162964
161801
160632
159457
158277
157091
155898
154700
153496
152285
151069
149847
148619
147385
146145
144900
143650
142394
141133
139866
138595
137318
136037
134751
133461
132165
130866
129562
128254
126941
125625
124305
122981
121653
120322
118988
117650
116309
114965
113618
112269
110916
109561
108204
106845
105483
104120
102754
101387
100018
98648.4
97277.1
95904.6
94531.2
93157
91782.2
90406.9
89031.3
87655.6
86279.9
84904.5
83529.5
82155.1
80781.5
79408.9
78037.5
76667.5
75299
73932.3
72567.7
71205.2
69845.2
68487.8
67133.3
65781.9
64433.8
63089.4
61748.7
60412.2
59080.1
57752.5
56429.9
55112.5
53800.5
52494.3
51194.1
49900.3
48613.1
47333
46060.1
44795
43537.8
42289.1
41049.1
39818.2
38596.9
37385.5
36184.5
34994.5
33815.8
32648.9
31494.5
30352.9
29224.5
28109.3
27006.7
215013
214987
214939
214868
214774
214656
214514
214348
214159
213945
213707
213445
213160
212850
212517
212160
211780
211376
210948
210497
210020
209518
208989
208432
207845
207228
206584
205914
205222
204511
203781
203034
202268
201487
200694
199900
199116
198357
197633
196950
196308
195697
195102
194502
193876
193209
192488
191710
190875
189991
189067
188112
187134
186139
185131
184112
183083
182044
180994
179933
178859
177772
176671
175560
174441
173317
172188
171055
169917
168774
167628
166478
165325
164169
163008
161842
160670
159494
158311
157122
155928
154728
153521
152309
151091
149867
148638
147403
146162
144916
143664
142407
141145
139878
138606
137328
136046
134760
133468
132173
130872
129568
128259
126946
125630
124309
122985
121657
120326
118991
117653
116312
114967
113620
112270
110918
109563
108206
106846
105484
104121
102755
101388
100019
98649.1
97277.6
95905.1
94531.6
93157.4
91782.5
90407.2
89031.5
87655.8
86280.1
84904.7
83529.7
82155.3
80781.6
79409
78037.6
76667.6
75299.1
73932.4
72567.8
71205.3
69845.2
68487.8
67133.3
65781.9
64433.9
63089.4
61748.8
60412.3
59080.1
57752.6
56429.9
55112.5
53800.5
52494.2
51194
49900.2
48613
47332.8
46059.9
44794.7
43537.4
42288.6
41048.4
39817.4
38595.8
37384.2
36182.8
34992.3
33813
32645.3
31489.8
30346.8
29216.5
28098.8
26993.3
215861
215833
215781
215705
215603
215477
215325
215148
214946
214718
214466
214189
213887
213561
213210
212836
212437
212015
211569
211098
210601
210077
209524
208940
208324
207675
206997
206292
205563
204811
204036
203235
202407
201554
200685
199813
198961
198150
197398
196712
196094
195530
194997
194466
193907
193297
192620
191870
191049
190168
189238
188274
187286
186281
185264
184236
183200
182156
181101
180037
178963
177876
176774
175658
174533
173404
172270
171132
169989
168842
167692
166538
165381
164220
163056
161887
160713
159533
158348
157157
155960
154758
153549
152335
151116
149890
148659
147422
146180
144933
143680
142422
141159
139890
138617
137339
136056
134769
133477
132180
130880
129575
128265
126952
125635
124314
122989
121661
120329
118994
117656
116314
114970
113623
112272
110920
109565
108207
106847
105486
104122
102756
101389
100020
98649.8
97278.3
95905.7
94532.1
93157.8
91782.9
90407.5
89031.8
87656.1
86280.3
84904.9
83529.8
82155.4
80781.8
79409.2
78037.7
76667.7
75299.2
73932.5
72567.9
71205.4
69845.3
68487.9
67133.4
65782
64433.9
63089.4
61748.8
60412.3
59080.1
57752.6
56429.9
55112.4
53800.4
52494.2
51193.9
49900.1
48612.8
47332.6
46059.7
44794.4
43537
42288
41047.7
39816.5
38594.7
37382.8
36181.1
34990
33810.1
32641.6
31485
30340.6
29208.5
28088.6
26980.4
216821
216790
216733
216650
216540
216403
216240
216049
215832
215589
215320
215025
214705
214360
213991
213598
213182
212742
212278
211790
211275
210731
210155
209545
208900
208219
207506
206763
205992
205194
204365
203501
202599
201661
200700
199737
198801
197926
197135
196442
195845
195326
194856
194395
193904
193353
192722
192003
191201
190328
189399
188430
187437
186425
185400
184366
183325
182275
181215
180147
179071
177983
176880
175763
174634
173497
172356
171212
170064
168914
167759
166601
165441
164276
163108
161936
160758
159576
158388
157194
155995
154790
153580
152363
151142
149915
148682
147444
146200
144951
143697
142438
141173
139904
138630
137351
136067
134779
133486
132189
130888
129582
128272
126958
125641
124319
122994
121665
120333
118998
117659
116317
114973
113625
112275
110922
109567
108209
106849
105487
104123
102757
101390
100021
98650.5
97279
95906.3
94532.7
93158.3
91783.3
90407.9
89032.1
87656.3
86280.6
84905.1
83530
82155.6
80782
79409.3
78037.9
76667.8
75299.4
73932.7
72568
71205.5
69845.4
68488
67133.5
65782.1
64434
63089.5
61748.9
60412.3
59080.1
57752.6
56429.9
55112.4
53800.4
52494.1
51193.8
49899.9
48612.7
47332.4
46059.4
44794
43536.6
42287.5
41047
39815.6
38593.6
37381.3
36179.2
34987.7
33807.1
32637.8
31480.2
30334.4
29200.7
28078.8
26968.2
217903
217868
217806
217714
217594
217445
217267
217061
216827
216565
216277
215963
215624
215261
214874
214466
214035
213583
213107
212606
212077
211517
210921
210288
209615
208904
208157
207376
206564
205718
204833
203900
202919
201892
200837
199784
198768
197830
197000
196293
195705
195214
194784
194369
193922
193410
192810
192115
191329
190466
189542
188575
187582
186568
185539
184501
183455
182401
181338
180264
179183
178092
176989
175870
174738
173596
172447
171296
170143
168988
167830
166669
165504
164336
163164
161988
160807
159621
158430
157234
156032
154825
153612
152393
151170
149941
148706
147466
146221
144971
143715
142455
141189
139919
138643
137363
136079
134790
133496
132198
130896
129590
128279
126965
125647
124325
122999
121670
120337
119002
117663
116320
114975
113628
112277
110924
109569
108211
106851
105488
104124
102758
101391
100022
98651.4
97279.7
95906.9
94533.2
93158.8
91783.7
90408.2
89032.5
87656.6
86280.8
84905.3
83530.2
82155.8
80782.1
79409.5
78038.1
76668
75299.5
73932.8
72568.1
71205.6
69845.5
68488.1
67133.6
65782.1
64434.1
63089.6
61748.9
60412.4
59080.2
57752.6
56429.9
55112.4
53800.4
52494
51193.8
49899.8
48612.5
47332.2
46059.1
44793.7
43536.1
42286.9
41046.3
39814.7
38592.4
37379.8
36177.4
34985.3
33804.1
32634
31475.4
30328.4
29193.1
28069.3
26956.7
219119
219080
219010
218909
218776
218612
218418
218194
217940
217659
217351
217018
216662
216285
215888
215472
215037
214581
214103
213597
213060
212488
211876
211222
210526
209786
209005
208184
207322
206417
205464
204457
203398
202295
201171
200056
198990
198010
197150
196425
195826
195328
194893
194474
194028
193516
192918
192227
191446
190590
189674
188712
187722
186710
185681
184638
183588
182532
181466
180388
179300
178203
177095
175974
174840
173694
172541
171384
170225
169065
167903
166738
165570
164399
163223
162043
160859
159669
158475
157276
156071
154861
153646
152425
151199
149968
148732
147490
146243
144991
143735
142473
141206
139934
138658
137377
136091
134801
133507
132208
130905
129598
128287
126972
125653
124330
123004
121675
120342
119006
117666
116324
114979
113630
112280
110926
109571
108213
106852
105490
104126
102760
101392
100023
98652.2
97280.4
95907.6
94533.8
93159.3
91784.2
90408.6
89032.8
87656.9
86281.1
84905.6
83530.5
82156
80782.4
79409.7
78038.2
76668.2
75299.7
73933
72568.2
71205.7
69845.7
68488.2
67133.7
65782.2
64434.1
63089.6
61749
60412.4
59080.2
57752.6
56429.9
55112.4
53800.3
52494
51193.7
49899.7
48612.4
47332
46058.9
44793.3
43535.7
42286.3
41045.6
39813.8
38591.2
37378.4
36175.5
34983
33801.1
32630.3
31470.7
30322.5
29185.7
28060.3
26945.8
220485
220441
220362
220249
220101
219920
219707
219463
219191
218891
218568
218223
217860
217480
217085
216675
216247
215799
215324
214818
214274
213689
213058
212376
211641
210853
210012
209122
208185
207202
206174
205104
203994
202854
201707
200582
199510
198522
197647
196898
196263
195717
195226
194751
194254
193701
193073
192362
191573
190716
189804
188848
187861
186853
185825
184780
183725
182665
181596
180514
179420
178315
177201
176076
174939
173791
172634
171472
170308
169144
167978
166810
165638
164463
163284
162100
160912
159719
158522
157319
156112
154899
153682
152459
151230
149997
148759
147515
146267
145013
143755
142491
141223
139950
138673
137391
136104
134813
133518
132218
130914
129606
128295
126979
125660
124337
123010
121680
120347
119010
117670
116327
114982
113633
112282
110929
109573
108215
106854
105492
104127
102761
101393
100024
98653.1
97281.3
95908.3
94534.5
93159.9
91784.7
90409.1
89033.2
87657.3
86281.4
84905.9
83530.7
82156.3
80782.6
79409.9
78038.4
76668.3
75299.8
73933.1
72568.4
71205.9
69845.8
68488.3
67133.8
65782.3
64434.2
63089.7
61749
60412.5
59080.2
57752.6
56429.9
55112.4
53800.3
52494
51193.6
49899.6
48612.2
47331.8
46058.6
44793
43535.3
42285.8
41044.9
39812.9
38590.1
37376.9
36173.7
34980.7
33798.2
32626.6
31466.1
30316.8
29178.7
28051.8
26935.7
222069
222019
221929
221801
221635
221436
221204
220944
220660
220354
220030
219689
219333
218964
218581
218182
217761
217312
216828
216301
215723
215087
214388
213627
212803
211921
210987
210011
208999
207954
206878
205778
204658
203528
202406
201314
200276
199310
198433
197654
196964
196341
195759
195189
194604
193977
193292
192543
191730
190863
189950
188996
188010
187002
185975
184928
183868
182802
181729
180644
179544
178434
177314
176184
175042
173889
172727
171561
170394
169226
168056
166884
165709
164530
163347
162160
160968
159772
158572
157366
156155
154940
153720
152494
151264
150028
148788
147542
146292
145037
143776
142512
141242
139968
138689
137406
136118
134826
133529
132229
130924
129616
128303
126987
125667
124343
123016
121685
120352
119015
117674
116331
114985
113637
112285
110931
109575
108217
106856
105493
104129
102762
101394
100025
98654.2
97282.2
95909.1
94535.2
93160.5
91785.3
90409.6
89033.7
87657.7
86281.8
84906.2
83531.1
82156.6
80782.9
79410.2
78038.7
76668.6
75300.1
73933.3
72568.6
71206.1
69846
68488.5
67133.9
65782.5
64434.4
63089.8
61749.2
60412.6
59080.3
57752.7
56430
55112.5
53800.4
52494
51193.6
49899.6
48612.2
47331.7
46058.4
44792.7
43534.9
42285.3
41044.2
39812
38589
37375.6
36171.9
34978.5
33795.5
32623.2
31461.8
30311.5
29172.2
28043.9
26926.4
223826
223769
223666
223521
223338
223123
222884
222627
222354
222066
221762
221437
221088
220713
220309
219872
219398
218878
218307
217676
216985
216230
215417
214553
213642
212687
211694
210673
209628
208564
207484
206394
205303
204219
203151
202115
201126
200190
199314
198505
197755
197050
196372
195701
195020
194311
193561
192764
191921
191037
190115
189156
188167
187156
186126
185076
184010
182937
181857
180767
179666
178552
177427
176291
175143
173984
172818
171648
170478
169307
168134
166959
165780
164597
163411
162220
161025
159826
158622
157413
156200
154981
153758
152530
151297
150060
148817
147570
146317
145060
143799
142532
141261
139985
138705
137421
136132
134839
133541
132240
130934
129625
128312
126995
125674
124350
123022
121691
120357
119019
117679
116335
114989
113640
112288
110934
109578
108219
106858
105495
104130
102764
101396
100026
98655
97282.9
95909.8
94535.8
93161
91785.7
90410
89034
87658
86282.1
84906.5
83531.3
82156.8
80783.1
79410.4
78038.8
76668.7
75300.2
73933.4
72568.7
71206.1
69846
68488.5
67133.9
65782.5
64434.3
63089.8
61749.1
60412.5
59080.3
57752.7
56429.9
55112.4
53800.2
52493.8
51193.4
49899.4
48611.9
47331.4
46058.1
44792.3
43534.4
42284.7
41043.5
39811.1
38587.8
37374.1
36170.1
34976.2
33792.7
32619.7
31457.5
30306.2
29165.9
28036.4
26917.6
225601
225536
225422
225264
225074
224862
224638
224406
224162
223897
223595
223244
222837
222373
221855
221287
220671
220009
219299
218542
217739
216891
216004
215084
214136
213160
212158
211138
210104
209059
208005
206948
205896
204856
203834
202841
201883
200963
200082
199244
198445
197675
196921
196171
195415
194639
193835
192997
192124
191220
190284
189316
188321
187304
186270
185215
184143
183061
181974
180880
179775
178659
177530
176387
175233
174069
172901
171730
170557
169383
168207
167028
165846
164660
163470
162276
161078
159876
158669
157457
156241
155020
153795
152565
151330
150090
148845
147596
146342
145083
143820
142552
141279
140002
138721
137435
136145
134851
133553
132251
130944
129634
128320
127002
125681
124356
123028
121696
120362
119024
117683
116339
114992
113643
112291
110936
109580
108221
106860
105497
104132
102765
101397
100027
98655.9
97283.7
95910.5
94536.4
93161.5
91786.2
90410.4
89034.4
87658.3
86282.4
84906.7
83531.5
82157
80783.2
79410.5
78039
76668.8
75300.3
73933.5
72568.7
71206.2
69846
68488.5
67133.9
65782.5
64434.3
63089.8
61749.1
60412.5
59080.2
57752.6
56429.8
55112.3
53800.1
52493.7
51193.3
49899.2
48611.7
47331.1
46057.7
44791.9
43533.9
42284.1
41042.7
39810.2
38586.7
37372.7
36168.4
34974.1
33790
32616.5
31453.6
30301.4
29160.1
28029.6
26909.7
227386
227314
227190
227030
226849
226658
226459
226242
225986
225668
225272
224790
224230
223605
222930
222214
221463
220684
219877
219043
218182
217296
216384
215452
214501
213533
212548
211550
210542
209526
208502
207477
206457
205447
204454
203482
202535
201615
200722
199857
199018
198198
197389
196583
195771
194945
194098
193226
192327
191402
190450
189471
188469
187447
186406
185345
184266
183178
182085
180985
179876
178756
177622
176474
175314
174147
172977
171805
170631
169455
168276
167094
165908
164719
163526
162329
161128
159923
158713
157499
156280
155057
153829
152597
151360
150118
148871
147620
146365
145104
143840
142570
141296
140018
138736
137449
136158
134863
133564
132261
130954
129643
128328
127010
125688
124362
123034
121702
120366
119028
117687
116342
114995
113646
112294
110939
109582
108223
106861
105498
104133
102766
101398
100028
98656.8
97284.5
95911.1
94537
93162.1
91786.6
90410.8
89034.7
87658.6
86282.6
84907
83531.8
82157.2
80783.4
79410.7
78039.1
76669
75300.4
73933.6
72568.8
71206.2
69846.1
68488.6
67134
65782.5
64434.3
63089.8
61749.1
60412.4
59080.2
57752.5
56429.8
55112.2
53800
52493.6
51193.2
49899
48611.5
47330.9
46057.5
44791.6
43533.5
42283.6
41042.1
39809.4
38585.7
37371.5
36166.8
34972.1
33787.6
32613.5
31449.9
30297
29154.8
28023.3
26902.4
229174
229096
228969
228817
228656
228470
228246
227953
227571
227090
226518
225869
225161
224405
223619
222813
221989
221151
220299
219433
218551
217652
216736
215807
214865
213910
212943
211966
210980
209986
208986
207983
206983
205990
205009
204044
203097
202169
201260
200370
199499
198641
197791
196942
196089
195224
194344
193444
192522
191577
190610
189621
188611
187583
186535
185466
184381
183287
182189
181084
179971
178846
177706
176551
175387
174219
173048
171875
170699
169520
168339
167154
165966
164774
163578
162378
161175
159967
158755
157538
156317
155092
153862
152627
151388
150145
148896
147644
146386
145125
143859
142588
141313
140034
138750
137462
136170
134874
133574
132270
130963
129651
128336
127017