/*--------------------------------*- C++ -*----------------------------------*\
  =========                 |
  \\      /  F ield         | OpenFOAM: The Open Source CFD Toolbox
   \\    /   O peration     | Website:  https://openfoam.org
    \\  /    A nd           | Version:  9
     \\/     M anipulation  |
\*---------------------------------------------------------------------------*/
FoamFile
{
    format      ascii;
    class       volVectorField;
    location    "0.19";
    object      U;
}
// * * * * * * * * * * * * * * * * * * * * * * * * * * * * * * * * * * * * * //

dimensions      [0 1 -1 0 0 0 0];

internalField   nonuniform List<vector> 
12225
(
(9.86107 -0.874318 0)
(9.67247 -0.700191 0)
(9.45896 -0.387591 0)
(9.22464 -0.188476 0)
(9.00345 -0.0843917 0)
(8.81034 -0.0328735 0)
(8.64504 -0.00754762 0)
(8.50402 0.00502869 0)
(8.38382 0.0113415 0)
(8.28091 0.0144789 0)
(8.1919 0.0159758 0)
(8.11392 0.0166477 0)
(8.04458 0.0169376 0)
(7.98206 0.017138 0)
(7.92344 0.0174417 0)
(7.86968 0.0185666 0)
(7.80008 0.0215442 0)
(7.77368 0.03015 0)
(10.0547 0.263069 0)
(10.1201 0.360741 0)
(10.118 0.273822 0)
(10.0826 0.18709 0)
(10.0405 0.131165 0)
(9.9939 0.0969307 0)
(9.94008 0.0755621 0)
(9.88034 0.0617561 0)
(9.81776 0.0523522 0)
(9.75482 0.0455374 0)
(9.69297 0.0403688 0)
(9.63301 0.036386 0)
(9.57533 0.0333336 0)
(9.52031 0.0311937 0)
(9.46716 0.0298018 0)
(9.41836 0.030932 0)
(9.36688 0.0320516 0)
(9.34167 0.0525594 0)
(9.99919 0.0460871 0)
(10.0244 0.0342105 0)
(10.0538 0.0149515 0)
(10.0708 0.0218133 0)
(10.0778 0.036676 0)
(10.0783 0.0460134 0)
(10.0722 0.049955 0)
(10.0602 0.0511477 0)
(10.0439 0.0510563 0)
(10.0245 0.0503425 0)
(10.0029 0.0493777 0)
(9.97987 0.0484084 0)
(9.95569 0.0475853 0)
(9.93087 0.0471436 0)
(9.90534 0.0471577 0)
(9.88016 0.0489698 0)
(9.85454 0.0517521 0)
(9.83459 0.063216 0)
(9.9968 0.00642822 0)
(10.0085 0.0250193 0)
(10.0342 0.0389396 0)
(10.0528 0.0503047 0)
(10.0644 0.0571108 0)
(10.0731 0.059168 0)
(10.079 0.0588573 0)
(10.0816 0.057939 0)
(10.0815 0.0569347 0)
(10.0794 0.0559202 0)
(10.0757 0.0549485 0)
(10.0706 0.0541067 0)
(10.0643 0.053486 0)
(10.0571 0.0532813 0)
(10.049 0.0536283 0)
(10.0408 0.0554072 0)
(10.0328 0.058284 0)
(10.0273 0.064774 0)
(9.99922 0.00673781 0)
(10.0081 0.033575 0)
(10.0271 0.0460451 0)
(10.0418 0.0508476 0)
(10.0524 0.0539171 0)
(10.0622 0.0555067 0)
(10.0708 0.0558548 0)
(10.0774 0.0556726 0)
(10.0822 0.0553065 0)
(10.0856 0.0548478 0)
(10.088 0.0543714 0)
(10.0893 0.0539822 0)
(10.0898 0.0537907 0)
(10.0896 0.0539721 0)
(10.0889 0.0546786 0)
(10.0882 0.0564034 0)
(10.088 0.0589601 0)
(10.0896 0.062841 0)
(10.0002 0.0090745 0)
(10.0078 0.0321261 0)
(10.0225 0.0419134 0)
(10.035 0.0456684 0)
(10.0448 0.0491292 0)
(10.0542 0.051667 0)
(10.063 0.0528077 0)
(10.0704 0.0531621 0)
(10.0766 0.0532055 0)
(10.0818 0.0531024 0)
(10.0862 0.0529448 0)
(10.09 0.052841 0)
(10.093 0.0529023 0)
(10.0957 0.0532728 0)
(10.098 0.0540769 0)
(10.1004 0.0555573 0)
(10.1034 0.0575558 0)
(10.1077 0.0599218 0)
(10.0003 0.00880105 0)
(10.0068 0.0275197 0)
(10.0189 0.0370855 0)
(10.0303 0.0417444 0)
(10.0395 0.0456663 0)
(10.0482 0.0484926 0)
(10.0566 0.049905 0)
(10.064 0.0505013 0)
(10.0705 0.0507676 0)
(10.0763 0.0508764 0)
(10.0814 0.0509147 0)
(10.086 0.0509828 0)
(10.0902 0.0511827 0)
(10.0941 0.0516245 0)
(10.0978 0.0523917 0)
(10.1016 0.0535773 0)
(10.1059 0.0550206 0)
(10.1113 0.0564026 0)
(10.0004 0.00783821 0)
(10.0057 0.0236971 0)
(10.016 0.0333724 0)
(10.0264 0.0385917 0)
(10.0351 0.0424881 0)
(10.0433 0.0452836 0)
(10.0512 0.0468401 0)
(10.0584 0.0476233 0)
(10.0649 0.048058 0)
(10.0707 0.0483182 0)
(10.0761 0.0484913 0)
(10.0811 0.0486694 0)
(10.0858 0.0489412 0)
(10.0902 0.0493861 0)
(10.0946 0.0500491 0)
(10.0991 0.0509388 0)
(10.104 0.0518946 0)
(10.1095 0.0526079 0)
(10.0004 0.0069524 0)
(10.0049 0.0207107 0)
(10.0136 0.0300393 0)
(10.023 0.0354065 0)
(10.0312 0.0391927 0)
(10.0389 0.0419551 0)
(10.0464 0.043648 0)
(10.0534 0.044597 0)
(10.0597 0.0451668 0)
(10.0656 0.045539 0)
(10.071 0.0458058 0)
(10.0761 0.0460501 0)
(10.081 0.0463461 0)
(10.0857 0.046748 0)
(10.0904 0.0472717 0)
(10.0952 0.0478837 0)
(10.1002 0.0484374 0)
(10.1057 0.0486925 0)
(10.0004 0.00616586 0)
(10.0042 0.0181259 0)
(10.0116 0.026803 0)
(10.0199 0.0321454 0)
(10.0277 0.035856 0)
(10.035 0.038588 0)
(10.042 0.0403745 0)
(10.0487 0.0414492 0)
(10.055 0.0421221 0)
(10.0607 0.0425762 0)
(10.0662 0.0429059 0)
(10.0713 0.0431843 0)
(10.0763 0.0434715 0)
(10.0811 0.043803 0)
(10.0859 0.0441764 0)
(10.0908 0.0445431 0)
(10.0958 0.0447803 0)
(10.1011 0.0447219 0)
(10.0003 0.00542931 0)
(10.0036 0.015804 0)
(10.0099 0.0237182 0)
(10.0173 0.0289177 0)
(10.0245 0.0325373 0)
(10.0314 0.0352032 0)
(10.0381 0.0370241 0)
(10.0445 0.0381805 0)
(10.0506 0.0389276 0)
(10.0563 0.0394386 0)
(10.0616 0.0398065 0)
(10.0668 0.0400954 0)
(10.0718 0.0403528 0)
(10.0766 0.0406017 0)
(10.0814 0.040831 0)
(10.0863 0.0409922 0)
(10.0912 0.0409903 0)
(10.0962 0.040721 0)
(10.0003 0.0047771 0)
(10.0031 0.0138596 0)
(10.0086 0.0210451 0)
(10.0152 0.0260121 0)
(10.0219 0.0295048 0)
(10.0284 0.0320764 0)
(10.0348 0.0338839 0)
(10.041 0.0350777 0)
(10.0469 0.0358664 0)
(10.0525 0.0364076 0)
(10.0578 0.0367905 0)
(10.0629 0.0370716 0)
(10.0678 0.0372896 0)
(10.0727 0.0374599 0)
(10.0774 0.0375698 0)
(10.0822 0.0375782 0)
(10.0869 0.0374145 0)
(10.0917 0.0370188 0)
(10.0003 0.00417087 0)
(10.0028 0.0120932 0)
(10.0075 0.0185321 0)
(10.0134 0.023176 0)
(10.0197 0.0264991 0)
(10.0258 0.0289526 0)
(10.0319 0.0307126 0)
(10.0378 0.0319118 0)
(10.0435 0.032719 0)
(10.049 0.0332725 0)
(10.0542 0.0336553 0)
(10.0592 0.0339181 0)
(10.0641 0.0340924 0)
(10.0689 0.0341898 0)
(10.0736 0.0341987 0)
(10.0783 0.0340881 0)
(10.0828 0.0338075 0)
(10.0874 0.0333298 0)
(10.0003 0.00353927 0)
(10.0024 0.0102557 0)
(10.0064 0.015841 0)
(10.0117 0.0200308 0)
(10.0174 0.0230966 0)
(10.0232 0.0253735 0)
(10.0289 0.0270343 0)
(10.0345 0.0281968 0)
(10.04 0.0289924 0)
(10.0453 0.0295352 0)
(10.0504 0.0298994 0)
(10.0554 0.0301291 0)
(10.0602 0.0302503 0)
(10.0649 0.0302723 0)
(10.0695 0.0301876 0)
(10.074 0.0299764 0)
(10.0784 0.029607 0)
(10.0827 0.0290768 0)
(10.0002 0.00288068 0)
(10.002 0.00834611 0)
(10.0055 0.012982 0)
(10.0101 0.0165828 0)
(10.0153 0.0192819 0)
(10.0206 0.0213048 0)
(10.026 0.0228002 0)
(10.0313 0.0238687 0)
(10.0366 0.0246089 0)
(10.0417 0.0251086 0)
(10.0467 0.0254295 0)
(10.0515 0.0256091 0)
(10.0562 0.0256688 0)
(10.0608 0.0256173 0)
(10.0652 0.0254524 0)
(10.0696 0.0251648 0)
(10.0737 0.0247385 0)
(10.0778 0.0241871 0)
(10.0002 0.00219538 0)
(10.0017 0.00636512 0)
(10.0047 0.00996016 0)
(10.0088 0.0128334 0)
(10.0134 0.0150377 0)
(10.0183 0.0167084 0)
(10.0233 0.0179557 0)
(10.0284 0.018858 0)
(10.0334 0.0194848 0)
(10.0383 0.0198987 0)
(10.0431 0.020146 0)
(10.0478 0.0202567 0)
(10.0523 0.020248 0)
(10.0567 0.0201287 0)
(10.061 0.0199011 0)
(10.0651 0.0195642 0)
(10.0691 0.0191126 0)
(10.073 0.0185687 0)
(10.0002 0.00148022 0)
(10.0015 0.00429605 0)
(10.0041 0.00675295 0)
(10.0077 0.0087586 0)
(10.0119 0.0103276 0)
(10.0164 0.0115295 0)
(10.021 0.0124312 0)
(10.0258 0.0130832 0)
(10.0306 0.0135289 0)
(10.0353 0.0138066 0)
(10.0399 0.0139466 0)
(10.0444 0.013969 0)
(10.0487 0.0138867 0)
(10.053 0.0137076 0)
(10.0571 0.0134361 0)
(10.061 0.0130757 0)
(10.0648 0.0126267 0)
(10.0684 0.0121138 0)
(10.0001 0.000717541 0)
(10.0013 0.00208291 0)
(10.0037 0.00328086 0)
(10.0069 0.00427017 0)
(10.0108 0.00505324 0)
(10.015 0.00565475 0)
(10.0194 0.00609968 0)
(10.024 0.00640812 0)
(10.0285 0.00659782 0)
(10.033 0.00668459 0)
(10.0374 0.00668097 0)
(10.0418 0.00659581 0)
(10.046 0.00643518 0)
(10.05 0.0062036 0)
(10.0539 0.00590469 0)
(10.0577 0.00554254 0)
(10.0613 0.00511891 0)
(10.0647 0.00465642 0)
(10.0001 -0.000139378 0)
(10.0013 -0.000406424 0)
(10.0035 -0.000645265 0)
(10.0067 -0.000843247 0)
(10.0104 -0.000997749 0)
(10.0145 -0.00112253 0)
(10.0188 -0.00123677 0)
(10.0232 -0.00135433 0)
(10.0276 -0.00148388 0)
(10.032 -0.00163265 0)
(10.0363 -0.00180721 0)
(10.0405 -0.00201263 0)
(10.0446 -0.00225221 0)
(10.0485 -0.00252776 0)
(10.0523 -0.00283987 0)
(10.0559 -0.00318746 0)
(10.0593 -0.00357055 0)
(10.0626 -0.00397221 0)
(10.0001 -0.000963344 0)
(10.0014 -0.00280671 0)
(10.0038 -0.00443709 0)
(10.0071 -0.00577238 0)
(10.0111 -0.00680621 0)
(10.0153 -0.00760005 0)
(10.0197 -0.00822084 0)
(10.0242 -0.00871382 0)
(10.0287 -0.00911353 0)
(10.0331 -0.00945203 0)
(10.0374 -0.00975587 0)
(10.0415 -0.0100437 0)
(10.0456 -0.0103281 0)
(10.0494 -0.0106177 0)
(10.0531 -0.0109184 0)
(10.0566 -0.0112333 0)
(10.06 -0.011565 0)
(10.0632 -0.0119026 0)
(10.0002 -0.00167725 0)
(10.0015 -0.00491002 0)
(10.0042 -0.00775992 0)
(10.0079 -0.0100236 0)
(10.0123 -0.0117165 0)
(10.0168 -0.0129952 0)
(10.0215 -0.0139774 0)
(10.0261 -0.0147226 0)
(10.0308 -0.0152849 0)
(10.0352 -0.0157234 0)
(10.0396 -0.016085 0)
(10.0438 -0.0164 0)
(10.0478 -0.016688 0)
(10.0516 -0.0169631 0)
(10.0553 -0.0172349 0)
(10.0588 -0.0175093 0)
(10.0621 -0.0177907 0)
(10.0653 -0.0180715 0)
(10.0002 -0.00235918 0)
(10.0017 -0.00699869 0)
(10.0048 -0.0110959 0)
(10.0092 -0.0141928 0)
(10.0141 -0.0163832 0)
(10.019 -0.0180047 0)
(10.0239 -0.0192377 0)
(10.0289 -0.0201463 0)
(10.0337 -0.0208028 0)
(10.0383 -0.0212896 0)
(10.0427 -0.0216684 0)
(10.047 -0.0219772 0)
(10.051 -0.0222422 0)
(10.0549 -0.0224828 0)
(10.0585 -0.0227121 0)
(10.062 -0.0229378 0)
(10.0653 -0.0231653 0)
(10.0685 -0.0233896 0)
(10.0002 -0.00299478 0)
(10.0018 -0.0091076 0)
(10.0056 -0.0144777 0)
(10.0108 -0.0183196 0)
(10.0164 -0.0209363 0)
(10.0217 -0.0228278 0)
(10.027 -0.0241887 0)
(10.0322 -0.0251248 0)
(10.0372 -0.0257737 0)
(10.042 -0.0262469 0)
(10.0465 -0.0266046 0)
(10.0508 -0.0268819 0)
(10.0549 -0.0271073 0)
(10.0587 -0.0273036 0)
(10.0624 -0.0274857 0)
(10.0659 -0.027662 0)
(10.0692 -0.0278378 0)
(10.0723 -0.02801 0)
(10.0001 -0.00357084 0)
(10.0019 -0.0115385 0)
(10.0064 -0.0179309 0)
(10.0127 -0.0220561 0)
(10.0189 -0.0250371 0)
(10.0248 -0.027335 0)
(10.0304 -0.0288743 0)
(10.0359 -0.0297845 0)
(10.0411 -0.0303425 0)
(10.046 -0.0307263 0)
(10.0506 -0.0310019 0)
(10.055 -0.0312013 0)
(10.0591 -0.0313542 0)
(10.063 -0.0314839 0)
(10.0667 -0.0316042 0)
(10.0701 -0.0317219 0)
(10.0734 -0.0318407 0)
(10.0765 -0.0319564 0)
(9.99997 -0.00369066 0)
(10.0018 -0.0151822 0)
(10.0076 -0.0226537 0)
(10.0148 -0.0259832 0)
(10.0214 -0.028545 0)
(10.0277 -0.0310057 0)
(10.034 -0.0327825 0)
(10.04 -0.03382 0)
(10.0455 -0.0344194 0)
(10.0505 -0.0347894 0)
(10.0553 -0.0350136 0)
(10.0597 -0.0351406 0)
(10.0638 -0.0352128 0)
(10.0676 -0.0352597 0)
(10.0711 -0.0352977 0)
(10.0744 -0.0353352 0)
(10.0775 -0.0353757 0)
(10.0804 -0.0354169 0)
(9.99898 -0.00130981 0)
(9.99999 -0.0179758 0)
(10.0085 -0.029072 0)
(10.0174 -0.0326965 0)
(10.0244 -0.0341192 0)
(10.0312 -0.0353441 0)
(10.0382 -0.0362895 0)
(10.0448 -0.0369303 0)
(10.0507 -0.0373793 0)
(10.0559 -0.0376766 0)
(10.0606 -0.0378368 0)
(10.0647 -0.037896 0)
(10.0684 -0.0378954 0)
(10.0717 -0.0378645 0)
(10.0746 -0.0378215 0)
(10.0771 -0.0377777 0)
(10.0794 -0.0377365 0)
(10.0814 -0.0376973 0)
(9.99528 0.0038685 0)
(9.99333 -0.0103128 0)
(10.007 -0.0271048 0)
(10.0212 -0.0389274 0)
(10.0311 -0.0448648 0)
(10.0391 -0.0464705 0)
(10.0466 -0.045986 0)
(10.0529 -0.045028 0)
(10.058 -0.0441517 0)
(10.062 -0.0433782 0)
(10.0651 -0.042664 0)
(10.0674 -0.0420063 0)
(10.069 -0.0414115 0)
(10.0699 -0.0408793 0)
(10.0703 -0.0404072 0)
(10.0703 -0.0399944 0)
(10.07 -0.0396311 0)
(10.0693 -0.0392907 0)
(9.99144 -0.0172937 0)
(9.99189 0.000364851 0)
(10.01 0.0176644 0)
(10.0295 0.0115868 0)
(10.0441 -0.00511085 0)
(10.0541 -0.0188273 0)
(10.06 -0.027174 0)
(10.0622 -0.0320514 0)
(10.0617 -0.0349334 0)
(10.059 -0.0365392 0)
(10.0549 -0.0373167 0)
(10.0495 -0.0375907 0)
(10.0431 -0.0375743 0)
(10.0361 -0.037397 0)
(10.0285 -0.0371425 0)
(10.0206 -0.036872 0)
(10.0125 -0.0366409 0)
(10.0043 -0.0364181 0)
(10.0236 -0.206008 0)
(10.0684 -0.312339 0)
(10.0788 -0.255593 0)
(10.0704 -0.184178 0)
(10.0605 -0.134902 0)
(10.0499 -0.102727 0)
(10.0342 -0.0811671 0)
(10.0129 -0.0666211 0)
(9.98777 -0.0566296 0)
(9.96053 -0.0494742 0)
(9.93231 -0.0441172 0)
(9.9038 -0.0399692 0)
(9.8755 -0.0366718 0)
(9.84774 -0.0339922 0)
(9.82076 -0.0317826 0)
(9.79468 -0.0299794 0)
(9.76973 -0.0285524 0)
(9.74595 -0.0278179 0)
(9.94226 0.671595 0)
(9.87995 0.567455 0)
(9.77444 0.338466 0)
(9.63237 0.183319 0)
(9.48762 0.0949055 0)
(9.3565 0.0470825 0)
(9.24093 0.0212976 0)
(9.13941 0.00707604 0)
(9.05046 -0.000983437 0)
(8.97246 -0.00562471 0)
(8.90368 -0.00831393 0)
(8.8426 -0.00987619 0)
(8.78795 -0.0107817 0)
(8.73876 -0.0112993 0)
(8.69419 -0.0115899 0)
(8.65355 -0.011778 0)
(8.61599 -0.0119575 0)
(8.58112 -0.0124893 0)
(0.00475887 -0.0114714 -3.50101e-20)
(0.0151013 -0.0155564 3.45144e-20)
(0.0228324 -0.0116222 0)
(0.026604 -0.00496698 0)
(0.0256697 0.00171662 0)
(0.0206829 0.00707196 -3.22056e-20)
(0.0125969 0.0107954 0)
(0.00220411 0.0131722 0)
(-0.00985498 0.0146674 0)
(-0.0231684 0.0156621 0)
(-0.0374967 0.0163947 2.92421e-20)
(-0.0526799 0.0170028 0)
(-0.068629 0.0175568 0)
(-0.0852935 0.0180888 0)
(-0.102643 0.0186107 0)
(-0.120655 0.0191246 2.61318e-20)
(-0.139314 0.019629 0)
(-0.158602 0.0201208 0)
(-0.178503 0.0205965 0)
(-0.199 0.0210522 0)
(-0.220074 0.0214838 0)
(-0.241703 0.0218862 0)
(-0.263864 0.0222529 0)
(-0.286529 0.022574 2.24709e-20)
(-0.309668 0.022837 -2.21226e-20)
(-0.333242 0.0230407 2.17982e-20)
(-0.357213 0.0232344 2.1498e-20)
(-0.381583 0.0235781 0)
(-0.406477 0.0243468 0)
(-0.432094 0.0256381 -2.07429e-20)
(-0.458471 0.0268173 -2.05337e-20)
(-0.485396 0.0269796 0)
(-0.512625 0.0266837 0)
(-0.540143 0.0273959 -1.99823e-20)
(-0.568386 0.0297784 0)
(-0.597527 0.0330687 0)
(-0.627727 0.0341247 1.949e-20)
(-0.659206 0.0378193 0)
(-0.692014 0.0459149 1.9176e-20)
(-0.727215 0.0485216 3.80401e-20)
(-0.76419 0.0454202 0)
(-0.801835 0.0597982 0)
(-0.840054 0.0625179 0)
(-0.879181 0.0366911 0)
(-0.914508 0.0277666 0)
(-0.950129 0.0315876 4.00132e-20)
(-0.988565 0.0326844 3.95704e-20)
(-1.0278 0.0333876 3.91348e-20)
(-1.06772 0.0337211 0)
(-1.10803 0.0338478 -3.82935e-20)
(-1.14858 0.0338414 0)
(-1.18928 0.0337465 3.7496e-20)
(-1.23004 0.0335898 3.71134e-20)
(-1.27082 0.0333875 0)
(-1.31158 0.0331496 0)
(-1.35226 0.0328824 0)
(-1.39285 0.0325897 3.56781e-20)
(-1.43332 0.0322739 0)
(-1.47362 0.0319362 0)
(-1.51373 0.0315772 0)
(-1.55363 0.0311972 0)
(-1.59328 0.0307961 0)
(-1.63265 0.0303737 0)
(-1.6717 0.0299296 0)
(-1.71042 0.0294637 0)
(-1.74875 0.0289755 -3.28379e-20)
(-1.78666 0.0284651 0)
(-1.82413 0.0279321 0)
(-1.86111 0.0273767 3.19519e-20)
(-1.89757 0.0267989 3.16582e-20)
(-1.93346 0.0261989 0)
(-1.96875 0.025577 -3.10697e-20)
(-2.0034 0.0249336 3.07738e-20)
(-2.03737 0.0242693 0)
(-2.07063 0.0235846 -3.0176e-20)
(-2.10313 0.0228802 0)
(-2.13483 0.0221569 0)
(-2.16571 0.0214154 2.9256e-20)
(-2.19571 0.0206566 0)
(-2.22481 0.0198812 -2.8621e-20)
(-2.25296 0.0190902 0)
(-2.28013 0.0182843 2.79641e-20)
(-2.30629 0.0174642 2.76263e-20)
(-2.3314 0.0166305 2.72815e-20)
(-2.35543 0.0157836 5.38587e-20)
(-2.37834 0.0149237 -5.3139e-20)
(-2.4001 0.0140505 0)
(-2.42068 0.0131635 0)
(-2.44003 0.0122615 0)
(-2.45814 0.0113423 -5.00888e-20)
(-2.47495 0.0104031 -4.92799e-20)
(-2.49044 0.00943986 4.84511e-20)
(-2.50455 0.00844786 0)
(-2.51725 0.0074215 -4.67317e-20)
(-2.52848 0.00635398 -4.58403e-20)
(-2.53817 0.00523924 -4.49273e-20)
(-2.54625 0.0040783 0)
(-2.55264 0.0028915 0)
(-2.55721 0.00172652 0)
(-2.55986 0.000644357 -4.10542e-20)
(-2.5608 -0.000306852 0)
(-2.56032 -0.00115239 0)
(-2.55837 -0.00197006 3.78764e-20)
(-2.55496 -0.00277514 0)
(-2.55007 -0.00357406 0)
(-2.54372 -0.00436791 3.44627e-20)
(-2.53587 -0.00515665 0)
(-2.52653 -0.00593964 0)
(-2.51569 -0.00671608 -3.08094e-20)
(-2.50333 -0.00748511 -2.95385e-20)
(-2.48946 -0.00824587 0)
(-2.47407 -0.00899749 2.69182e-20)
(-2.45716 -0.00973915 0)
(-2.43874 -0.01047 -2.41948e-20)
(-2.41881 -0.0111893 0)
(-2.39737 -0.0118961 -2.13716e-20)
(-2.37444 -0.0125898 -1.99237e-20)
(-2.35001 -0.0132696 0)
(-2.32411 -0.0139347 0)
(-2.29674 -0.0145844 0)
(-2.26793 -0.0152181 0)
(-2.23768 -0.0158351 0)
(-2.20602 -0.0164347 0)
(-2.17298 -0.0170165 0)
(-2.13856 -0.01758 -7.55853e-21)
(-2.1028 -0.0181244 5.92761e-21)
(-2.06572 -0.0186495 0)
(-2.02735 -0.0191547 0)
(-1.98773 -0.0196395 0)
(-1.94687 -0.0201036 0)
(-1.90482 -0.0205466 -4.88025e-21)
(-1.8616 -0.0209682 0)
(-1.81726 -0.0213682 1.17291e-20)
(-1.77183 -0.0217464 -1.51765e-20)
(-1.72535 -0.0221027 0)
(-1.67785 -0.0224367 0)
(-1.62938 -0.0227486 0)
(-1.57998 -0.0230381 2.9057e-20)
(-1.52969 -0.0233055 3.2536e-20)
(-1.47855 -0.0235508 0)
(-1.4266 -0.0237742 3.9485e-20)
(-1.37389 -0.0239757 4.29495e-20)
(-1.32045 -0.0241557 -4.64034e-20)
(-1.26634 -0.0243145 0)
(-1.2116 -0.0244524 0)
(-1.15627 -0.02457 -5.66746e-20)
(-1.10039 -0.0246676 0)
(-1.044 -0.0247458 0)
(-0.987147 -0.0248052 0)
(-0.929871 -0.0248466 0)
(-0.872209 -0.0248706 7.33302e-20)
(-0.814201 -0.0248779 7.65689e-20)
(-0.755883 -0.0248696 0)
(-0.697289 -0.0248463 8.29351e-20)
(-0.638455 -0.0248089 0)
(-0.579411 -0.0247585 0)
(-0.520187 -0.0246958 9.21743e-20)
(-0.460813 -0.0246216 0)
(-0.401314 -0.0245366 9.81043e-20)
(-0.341717 -0.0244408 0)
(-0.282049 -0.0243341 0)
(-0.222336 -0.0242133 1.0662e-19)
(-0.162607 -0.0240714 0)
(-0.102893 -0.0239045 1.12029e-19)
(-0.0432121 -0.0237056 0)
(0.0163743 -0.0234161 0)
(0.0757663 -0.0230318 0)
(0.135052 -0.0226502 -1.18584e-19)
(0.194227 -0.0222929 0)
(0.253303 -0.0219524 1.20076e-19)
(0.312287 -0.0216186 0)
(0.371163 -0.021281 0)
(0.429884 -0.0209251 0)
(0.488342 -0.0205275 0)
(0.546357 -0.0200422 0)
(0.603423 -0.019377 0)
(0.659117 -0.0182843 0)
(0.70934 -0.0161329 -2.47346e-19)
(0.758155 -0.0112832 0)
(0.760125 0.00635841 0)
(0.00363807 -0.0300708 1.03982e-19)
(0.00688365 -0.0258296 -9.95354e-20)
(0.00518316 -0.0129467 0)
(0.00107686 -6.29755e-05 5.98706e-20)
(-0.00508553 0.011522 0)
(-0.0132258 0.0211955 2.80279e-20)
(-0.0232674 0.0288066 -5.45841e-20)
(-0.0350884 0.0345674 -5.32416e-20)
(-0.048523 0.0388781 0)
(-0.0633752 0.0421634 -5.07074e-20)
(-0.0794533 0.044765 -2.47631e-20)
(-0.0965974 0.0469245 0)
(-0.114686 0.0487998 0)
(-0.133633 0.0504875 0)
(-0.153379 0.0520436 0)
(-0.173884 0.0534992 -2.20812e-20)
(-0.195126 0.054871 0)
(-0.217091 0.0561679 4.23205e-20)
(-0.239773 0.0573943 0)
(-0.263173 0.0585525 0)
(-0.287297 0.0596439 -3.99686e-20)
(-0.312157 0.0606693 0)
(-0.337772 0.0616288 3.86306e-20)
(-0.364167 0.0625212 -1.90378e-20)
(-0.39138 0.0633468 1.87613e-20)
(-0.419463 0.0641178 -1.8509e-20)
(-0.448485 0.0648781 -1.82828e-20)
(-0.478515 0.065717 0)
(-0.509579 0.0667375 0)
(-0.54164 0.0679411 1.77783e-20)
(-0.574728 0.0691033 -1.76009e-20)
(-0.609031 0.0699401 0)
(-0.644716 0.0705527 0)
(-0.681676 0.0712905 1.73573e-20)
(-0.719576 0.0722803 0)
(-0.758243 0.0735288 0)
(-0.797999 0.0746238 -1.70566e-20)
(-0.838297 0.0757433 0)
(-0.878403 0.0773526 1.67276e-20)
(-0.918385 0.0789818 -3.3415e-20)
(-0.958691 0.0795682 0)
(-0.997463 0.0795963 0)
(-1.03634 0.0812579 -6.53896e-20)
(-1.07655 0.0829983 -6.48307e-20)
(-1.1181 0.0846371 -6.41139e-20)
(-1.15885 0.0860882 3.15944e-20)
(-1.19799 0.0867671 -3.14008e-20)
(-1.23634 0.0869208 -9.29936e-20)
(-1.27425 0.0867347 6.12676e-20)
(-1.31183 0.0863121 3.03802e-20)
(-1.34913 0.0857248 0)
(-1.38619 0.0850177 -2.97503e-20)
(-1.42299 0.0842204 2.92996e-20)
(-1.45953 0.0833521 0)
(-1.49581 0.0824252 0)
(-1.53181 0.0814475 0)
(-1.56752 0.0804238 -2.83155e-20)
(-1.60291 0.0793567 0)
(-1.63797 0.0782476 5.54217e-20)
(-1.67268 0.077097 0)
(-1.70702 0.0759048 5.44002e-20)
(-1.74096 0.0746706 0)
(-1.77448 0.0733938 -5.34087e-20)
(-1.80756 0.0720739 0)
(-1.84017 0.0707103 5.24394e-20)
(-1.87229 0.0693027 -2.59089e-20)
(-1.90388 0.0678509 0)
(-1.93492 0.0663548 -5.10101e-20)
(-1.96538 0.0648148 -2.53366e-20)
(-1.99523 0.0632311 -2.50985e-20)
(-2.02445 0.0616045 0)
(-2.053 0.0599358 -2.44917e-20)
(-2.08086 0.0582261 -2.43788e-20)
(-2.10799 0.0564767 0)
(-2.13436 0.0546891 2.38902e-20)
(-2.15996 0.0528648 -4.71698e-20)
(-2.18474 0.0510055 0)
(-2.20868 0.0491131 -2.31358e-20)
(-2.23175 0.0471895 0)
(-2.25392 0.0452367 6.7745e-20)
(-2.27516 0.0432566 0)
(-2.29545 0.0412512 -6.61335e-20)
(-2.31476 0.0392223 -2.17952e-20)
(-2.33306 0.0371718 2.14357e-20)
(-2.35033 0.0351012 4.23031e-20)
(-2.36654 0.0330121 -4.17225e-20)
(-2.38166 0.0309055 0)
(-2.39568 0.0287824 0)
(-2.40856 0.0266432 0)
(-2.42027 0.024488 1.17953e-19)
(-2.43081 0.0223159 3.86793e-20)
(-2.44014 0.0201258 -3.79996e-20)
(-2.44824 0.0179156 0)
(-2.45511 0.0156832 -3.65712e-20)
(-2.46073 0.0134252 3.58621e-20)
(-2.4651 0.0111376 3.51157e-20)
(-2.46825 0.0088182 0)
(-2.47023 0.00647942 0)
(-2.47113 0.00416416 0)
(-2.47106 0.001932 3.19439e-20)
(-2.46987 -0.000190718 0)
(-2.46731 -0.00222831 -6.05632e-20)
(-2.46336 -0.00422971 -8.81711e-20)
(-2.45799 -0.00620755 5.70331e-20)
(-2.45118 -0.00816745 0)
(-2.44291 -0.0101096 2.67559e-20)
(-2.43318 -0.0120327 0)
(-2.42196 -0.0139346 4.95348e-20)
(-2.40926 -0.015813 -2.38862e-20)
(-2.39506 -0.0176657 -2.28938e-20)
(-2.37937 -0.0194902 0)
(-2.36218 -0.0212845 -6.20687e-20)
(-2.34349 -0.0230463 3.9358e-20)
(-2.3233 -0.0247736 1.84699e-20)
(-2.30162 -0.0264644 0)
(-2.27846 -0.0281169 1.62691e-20)
(-2.25381 -0.0297291 4.57617e-20)
(-2.22769 -0.0312993 0)
(-2.20011 -0.0328259 2.60636e-20)
(-2.17109 -0.034307 2.37458e-20)
(-2.14063 -0.0357413 2.14019e-20)
(-2.10877 -0.0371274 0)
(-2.07551 -0.0384639 0)
(-2.04087 -0.0397497 0)
(-2.00489 -0.0409837 -6.1104e-21)
(-1.96757 -0.0421649 -4.45027e-21)
(-1.92896 -0.0432925 0)
(-1.88908 -0.0443657 -4.38274e-21)
(-1.84795 -0.0453836 -1.88258e-21)
(-1.80561 -0.0463457 0)
(-1.76208 -0.0472515 3.63958e-21)
(-1.71741 -0.0481005 1.13679e-20)
(-1.67163 -0.0488928 -8.72471e-21)
(-1.62478 -0.0496281 -1.02557e-20)
(-1.57689 -0.0503067 0)
(-1.528 -0.0509285 0)
(-1.47815 -0.0514937 0)
(-1.42738 -0.0520028 -2.14811e-20)
(-1.37573 -0.0524562 2.29529e-20)
(-1.32324 -0.0528549 5.20438e-20)
(-1.26997 -0.0531996 -2.90893e-20)
(-1.21594 -0.0534911 3.05163e-20)
(-1.1612 -0.0537305 3.4111e-20)
(-1.1058 -0.053919 0)
(-1.04977 -0.0540579 0)
(-0.993167 -0.0541489 -4.04325e-20)
(-0.936024 -0.0541933 0)
(-0.878384 -0.0541929 0)
(-0.820289 -0.0541496 9.64589e-20)
(-0.761779 -0.0540653 0)
(-0.702892 -0.053942 5.23995e-20)
(-0.643666 -0.0537819 -5.5804e-20)
(-0.584138 -0.0535873 0)
(-0.524343 -0.0533604 5.92743e-20)
(-0.464312 -0.0531037 0)
(-0.404079 -0.0528193 0)
(-0.343672 -0.0525096 -6.69239e-20)
(-0.283119 -0.0521765 1.37054e-19)
(-0.222446 -0.0518216 -7.11358e-20)
(-0.161677 -0.0514455 0)
(-0.100837 -0.0510471 0)
(-0.0399493 -0.0506247 7.617e-20)
(0.0209643 -0.050174 0)
(0.0818781 -0.0496933 7.89569e-20)
(0.142776 -0.0491915 0)
(0.203641 -0.0486633 0)
(0.264461 -0.0481008 0)
(0.325262 -0.0475335 8.39083e-20)
(0.386032 -0.0469824 0)
(0.446764 -0.046444 -8.5651e-20)
(0.507448 -0.0459054 0)
(0.568055 -0.0453469 0)
(0.628531 -0.0447378 1.74963e-19)
(0.688763 -0.0440263 -1.7628e-19)
(0.748562 -0.0431116 0)
(0.80749 -0.0417987 0)
(0.865096 -0.039585 0)
(0.918832 -0.0355129 5.44026e-19)
(0.97126 -0.0263179 0)
(1.00175 -0.00405241 -3.70111e-19)
(3.81007e-05 -0.0327843 -4.78527e-23)
(-0.00431116 -0.0173815 1.28722e-19)
(-0.0116183 0.000409126 0)
(-0.02009 0.0163572 -1.09825e-19)
(-0.0297827 0.0304598 0)
(-0.0405498 0.0426451 0)
(-0.052409 0.0528921 1.12754e-23)
(-0.0654335 0.0613157 4.72487e-20)
(-0.0796608 0.068161 4.60464e-20)
(-0.0950682 0.0737385 4.49499e-20)
(-0.111592 0.0783554 0)
(-0.129152 0.0822742 0)
(-0.147673 0.0856983 -4.19325e-20)
(-0.167088 0.088775 -8.20413e-20)
(-0.187348 0.0916059 8.03048e-20)
(-0.208419 0.0942589 0)
(-0.23028 0.0967797 7.70902e-20)
(-0.252919 0.0991992 -3.7819e-20)
(-0.276336 0.10154 0)
(-0.300536 0.103819 7.28914e-20)
(-0.325533 0.106052 3.58403e-20)
(-0.351345 0.108253 -7.04855e-20)
(-0.377993 0.110438 -3.47129e-20)
(-0.405506 0.112623 0)
(-0.433914 0.114828 6.74287e-20)
(-0.463248 0.117087 6.65515e-20)
(-0.493536 0.11945 0)
(-0.524788 0.121983 6.50073e-20)
(-0.556958 0.124725 0)
(-0.589951 0.127625 6.37222e-20)
(-0.623699 0.130507 3.15883e-20)
(-0.65822 0.133194 0)
(-0.693516 0.135675 0)
(-0.729447 0.138067 0)
(-0.765737 0.140409 0)
(-0.80215 0.142591 0)
(-0.838615 0.144481 0)
(-0.874972 0.146107 5.88824e-20)
(-0.910891 0.147404 -8.73436e-20)
(-0.946272 0.147954 0)
(-0.981383 0.147856 0)
(-1.0159 0.147527 0)
(-1.04988 0.146266 -2.28629e-23)
(-1.08414 0.143897 5.48297e-20)
(-1.11896 0.141972 1.08276e-19)
(-1.15358 0.140717 -1.06925e-19)
(-1.18765 0.139583 -5.27654e-20)
(-1.22133 0.138428 5.22007e-20)
(-1.2547 0.137194 -8.04215e-23)
(-1.28782 0.135865 5.08879e-20)
(-1.32072 0.134447 0)
(-1.35343 0.132949 4.97187e-20)
(-1.38596 0.131379 -8.72771e-23)
(-1.4183 0.129744 0)
(-1.45044 0.12805 0)
(-1.48239 0.126299 -4.75513e-20)
(-1.51412 0.124493 0)
(-1.54562 0.122633 0)
(-1.57688 0.120716 4.59537e-20)
(-1.60787 0.118744 9.11324e-20)
(-1.63858 0.116714 -4.51877e-20)
(-1.66898 0.114625 0)
(-1.69905 0.112475 4.42602e-20)
(-1.72876 0.110264 0)
(-1.7581 0.10799 4.31633e-20)
(-1.78702 0.105653 4.29069e-20)
(-1.81552 0.103253 -8.4738e-20)
(-1.84355 0.100789 -4.18355e-20)
(-1.8711 0.0982612 0)
(-1.89813 0.0956712 8.21027e-20)
(-1.92461 0.0930197 0)
(-1.95052 0.0903079 1.20614e-19)
(-1.97582 0.0875376 7.94732e-20)
(-2.00048 0.0847107 7.85915e-20)
(-2.02448 0.0818293 -7.77051e-20)
(-2.04778 0.0788959 1.15296e-19)
(-2.07035 0.075913 0)
(-2.09217 0.0728834 0)
(-2.1132 0.06981 -7.40858e-20)
(-2.13342 0.0666956 -1.098e-19)
(-2.15279 0.0635434 0)
(-2.17129 0.0603561 3.56879e-20)
(-2.18889 0.0571368 0)
(-2.20556 0.0538881 -1.04012e-19)
(-2.22128 0.0506129 -9.11385e-23)
(-2.23601 0.0473135 8.25686e-23)
(-2.24974 0.0439923 6.62545e-20)
(-2.26243 0.0406511 0)
(-2.27407 0.0372919 -6.41254e-20)
(-2.28463 0.0339163 -4.56363e-23)
(-2.2941 0.0305259 0)
(-2.30244 0.0271223 0)
(-2.30965 0.0237078 0)
(-2.31572 0.0202859 5.84371e-20)
(-2.32063 0.0168621 0)
(-2.32438 0.0134454 0)
(-2.32697 0.0100492 0)
(-2.3284 0.00669197 0)
(-2.32865 0.00339185 0)
(-2.3277 0.00015204 5.07838e-20)
(-2.32547 -0.00305644 0)
(-2.3219 -0.00625377 4.79245e-20)
(-2.31698 -0.00943315 4.64878e-20)
(-2.31067 -0.0125912 -4.50256e-20)
(-2.30296 -0.0157245 0)
(-2.29384 -0.0188296 -4.20248e-20)
(-2.28329 -0.0219024 0)
(-2.2713 -0.0249391 -3.89231e-20)
(-2.25788 -0.0279357 3.73351e-20)
(-2.243 -0.0308885 1.07526e-19)
(-2.22667 -0.0337935 0)
(-2.20888 -0.0366474 9.76862e-20)
(-2.18964 -0.0394465 3.11711e-20)
(-2.16894 -0.0421877 0)
(-2.14679 -0.0448677 5.51034e-20)
(-2.12319 -0.0474835 5.16336e-20)
(-2.09815 -0.0500322 -7.19301e-20)
(-2.07169 -0.0525111 0)
(-2.0438 -0.0549174 -2.02197e-20)
(-2.01451 -0.0572486 -1.84006e-20)
(-1.98383 -0.0595022 -5.02876e-20)
(-1.95177 -0.0616761 0)
(-1.91836 -0.0637682 0)
(-1.88361 -0.0657767 0)
(-1.84755 -0.0677001 -9.74883e-21)
(-1.81019 -0.0695369 0)
(-1.77157 -0.0712857 0)
(-1.73171 -0.0729453 3.36604e-21)
(-1.69064 -0.0745148 1.4443e-21)
(-1.64839 -0.075993 0)
(-1.60499 -0.0773794 0)
(-1.56048 -0.0786735 -8.69383e-21)
(-1.51488 -0.0798752 0)
(-1.46823 -0.0809845 1.64321e-20)
(-1.42058 -0.0820018 1.95087e-20)
(-1.37195 -0.0829272 0)
(-1.32239 -0.0837612 0)
(-1.27193 -0.0845046 -3.1039e-20)
(-1.22062 -0.0851584 -8.18227e-22)
(-1.16849 -0.085724 -8.23416e-22)
(-1.11559 -0.0862028 0)
(-1.06196 -0.0865965 -9.32713e-20)
(-1.00763 -0.0869067 0)
(-0.952664 -0.0871355 0)
(-0.897088 -0.0872854 0)
(-0.840946 -0.0873588 6.18685e-20)
(-0.78428 -0.0873584 0)
(-0.72713 -0.0872869 -1.36498e-19)
(-0.669537 -0.0871474 -7.26386e-20)
(-0.611538 -0.0869433 0)
(-0.553173 -0.0866779 -7.96231e-20)
(-0.494477 -0.0863546 0)
(-0.435487 -0.0859774 0)
(-0.376234 -0.0855498 -2.67667e-19)
(-0.316753 -0.0850757 1.84481e-19)
(-0.257072 -0.0845589 0)
(-0.197221 -0.0840031 1.97341e-19)
(-0.137226 -0.0834113 -1.02602e-19)
(-0.077112 -0.0827863 0)
(-0.0169014 -0.0821305 0)
(0.043384 -0.0814454 0)
(0.103724 -0.0807303 -3.3782e-19)
(0.1641 -0.0799839 0)
(0.224497 -0.0792072 -1.16959e-19)
(0.284906 -0.0784079 0)
(0.345333 -0.0775991 0)
(0.405796 -0.0767902 0)
(0.46629 -0.0759882 0)
(0.526797 -0.0751987 0)
(0.587301 -0.0744155 0)
(0.64778 -0.0736219 -2.55782e-19)
(0.708203 -0.0727892 0)
(0.768511 -0.0718707 -1.31245e-19)
(0.828595 -0.0707857 3.96274e-19)
(0.888281 -0.0693852 0)
(0.947202 -0.0673855 0)
(1.00502 -0.064169 -2.70885e-19)
(1.06002 -0.0585576 -2.74415e-19)
(1.11487 -0.0475988 2.76416e-19)
(1.15754 -0.0249866 2.81232e-19)
(-0.00379188 -0.0218759 -2.05098e-19)
(-0.0130949 0.000882736 -1.88168e-19)
(-0.023905 0.021256 -1.12386e-19)
(-0.0354659 0.0387998 -5.15546e-20)
(-0.0477735 0.0542928 0)
(-0.0606546 0.0679332 9.26109e-20)
(-0.0741636 0.079796 -4.46411e-20)
(-0.0884205 0.0899802 0)
(-0.103524 0.0986522 -4.21585e-20)
(-0.119528 0.106034 0)
(-0.136448 0.112367 8.03189e-20)
(-0.15427 0.117883 0)
(-0.172967 0.12278 3.84124e-20)
(-0.192508 0.127219 7.52086e-20)
(-0.212862 0.13132 -7.36734e-20)
(-0.234006 0.135175 0)
(-0.255925 0.138848 -7.08329e-20)
(-0.278607 0.142389 0)
(-0.302049 0.145832 0)
(-0.326251 0.149207 -6.71069e-20)
(-0.351214 0.152535 0)
(-0.376943 0.155836 3.74133e-24)
(-0.40344 0.159125 0)
(-0.430702 0.162414 0)
(-0.458724 0.165716 -3.73665e-24)
(-0.487487 0.16904 -6.12829e-20)
(-0.516958 0.172399 -6.04786e-20)
(-0.547078 0.175794 -5.97203e-20)
(-0.577756 0.179201 0)
(-0.608873 0.182545 -1.16567e-19)
(-0.640325 0.185692 0)
(-0.672044 0.188512 -5.69043e-20)
(-0.703971 0.19095 0)
(-0.736011 0.193021 0)
(-0.768038 0.194741 5.4803e-20)
(-0.79993 0.196078 0)
(-0.831612 0.196993 -5.33774e-20)
(-0.86303 0.197508 -1.43518e-23)
(-0.894132 0.197621 1.03917e-19)
(-0.92492 0.197245 -1.0249e-19)
(-0.955459 0.196422 0)
(-0.985777 0.195307 0)
(-1.01594 0.193741 -4.9154e-20)
(-1.04613 0.191687 0)
(-1.07641 0.189601 -4.7838e-20)
(-1.10666 0.187649 4.72011e-20)
(-1.13677 0.185754 4.65814e-20)
(-1.16674 0.183865 0)
(-1.19658 0.18195 -4.53925e-20)
(-1.22628 0.179986 -4.48223e-20)
(-1.25588 0.177967 8.84677e-20)
(-1.28536 0.175887 -4.37271e-20)
(-1.31473 0.173744 -4.32007e-20)
(-1.34399 0.171539 0)
(-1.37313 0.16927 0)
(-1.40213 0.166936 4.16966e-20)