/*--------------------------------*- C++ -*----------------------------------*\
  =========                 |
  \\      /  F ield         | OpenFOAM: The Open Source CFD Toolbox
   \\    /   O peration     | Website:  https://openfoam.org
    \\  /    A nd           | Version:  9
     \\/     M anipulation  |
\*---------------------------------------------------------------------------*/
FoamFile
{
    format      ascii;
    class       volScalarField;
    location    "0.069";
    object      s;
}
// * * * * * * * * * * * * * * * * * * * * * * * * * * * * * * * * * * * * * //

dimensions      [0 0 0 0 0 0 0];

internalField   nonuniform List<scalar> 
12225
(
1
1
1
1
1
1
1
1
1
1
1
1
1
1
1
1
1
0.999989
1
1
1
1
1
1
1
1
1
1
1
1
1
1
1
1
1
1
1
1
1
1
1
1
1
1
1
1
1
1
1
1
1
1
1
1
1
1
1
1
1
1
1
1
1
1
1
1
1
1
1
1
1
1
1
1
1
1
1
1
1
1
1
1
1
1
1
1
1
1
1
1
1
1
1
1
1
1
1
1
1
1
1
1
1
1
1
1
1
1
1
1
1
1
1
1
1
1
1
1
1
1
1
1
1
1
1
1
1
1
1
1
1
1
1
1
1
1
1
1
1
1
1
1
1
1
1
1
1
1
1
1
1
1
1
1
1
1
1
1
1
1
1
1
1
1
1
1
1
1
1
1
1
1
1
1
1
1
1
1
1
1
1
1
1
1
1
1
1
1
1
1
1
1
1
1
1
1
1
1
1
1
1
1
1
1
1
1
1
1
1
1
1
1
1
1
1
1
1
1
1
1
1
1
1
1
1
1
1
1
1
1
1
1
1
1
1
1
1
1
1
1
1
1
1
1
1
1
1
1
1
1
1
1
1
1
1
1
1
1
1
1
1
1
1
1
1
1
1
1
1
1
1
1
1
1
1
1
1
1
1
1
1
1
1
1
1
1
1
1
1
1
1
1
1
1
1
1
1
1
1
1
1
1
1
1
1
1
1
1
1
1
1
1
1
1
1
1
1
1
1
1
1
1
1
1
1
1
1
1
1
1
1
1
1
1
1
1
1
1
1
1
1
1
1
1
1
1
1
1
1
1
1
1
1
1
1
1
1
1
1
1
1
1
1
1
1
1
1
1
1
1
1
1
1
1
1
1
1
1
1
1
1
1
1
1
1
1
1
1
1
1
1
1
1
1
1
1
1
1
1
1
1
1
1
1
1
1
1
1
1
1
1
1
1
1
1
1
1
1
1
1
1
1
1
1
1
1
1
1
1
1
1
1
1
1
1
1
1
1
1
1
1
1
1
1
1
1
1
1
1
1
1
1
1
1
1
1
1
1
1
1
1
1
1
1
1
1
1
1
1
1
1
1
1
1
1
1
1
1
1
1
1
1
1
1
1
1
1
1
1
1
1
1
1
1
1
1
1
1
1
1
1
1
1
1
1
1
1
1
1
1
1
1
1
1
1
1
1
1
1
1
1
1
1
1
1
1
1
1
1
1
1
1
1
1
1
1
1
1
1
1
0.743392
0.748935
0.747006
0.744405
0.741308
0.736202
0.730551
0.724937
0.720911
0.718592
0.716774
0.71547
0.714515
0.714317
0.714478
0.714906
0.715748
0.717113
0.718588
0.720275
0.721409
0.721937
0.722026
0.721831
0.720476
0.718525
0.717797
0.718302
0.72296
0.707365
0.639122
0.620415
0.621489
0.624162
0.628078
0.632118
0.635239
0.643125
0.651463
0.655058
0.657973
0.663502
0.674985
0.707683
0.788591
0.837152
0.851616
0.852754
0.850302
0.843818
0.838465
0.83387
0.829357
0.824983
0.821024
0.817488
0.814201
0.811078
0.808271
0.805944
0.804045
0.802717
0.802183
0.802233
0.803462
0.807028
0.809421
0.806866
0.791569
0.780138
0.787155
0.808854
0.812368
0.812425
0.812102
0.811394
0.810371
0.809091
0.807602
0.805955
0.804129
0.80209
0.800379
0.79933
0.798425
0.798086
0.797976
0.798067
0.798747
0.799595
0.800726
0.802222
0.80372
0.80568
0.807559
0.809476
0.811792
0.814245
0.816388
0.818845
0.821752
0.824386
0.826812
0.82961
0.832307
0.834919
0.837522
0.839679
0.841366
0.843193
0.844356
0.84417
0.842384
0.838779
0.834362
0.830167
0.827984
0.826976
0.827154
0.828939
0.832219
0.836055
0.840305
0.844605
0.848614
0.852179
0.85533
0.858173
0.860781
0.863183
0.865385
0.867391
0.869193
0.870768
0.872114
0.873191
0.873944
0.874317
0.874393
0.874319
0.874084
0.873964
0.874057
0.874699
0.876124
0.878322
0.881446
0.884409
0.887381
0.890934
0.89388
0.896632
0.899995
0.90264
0.904361
0.906443
0.908345
0.909762
0.91232
0.913902
0.913938
0.913834
0.913372
0.911319
0.909383
0.907909
0.904098
0.901771
0.899942
0.894579
0.892695
0.891108
0.879252
0.831282
0.734992
0.604238
0.554316
0.558139
0.60472
0.713984
0.735509
0.740801
0.730873
0.728347
0.721879
0.708016
0.696576
0.691079
0.687993
0.686466
0.685561
0.684635
0.682978
0.680885
0.679285
0.677694
0.674456
0.672495
0.670308
0.666867
0.66555
0.664152
0.664253
0.665128
0.667071
0.671341
0.67784
0.685035
0.704785
0.707907
0.703288
0.685015
0.646314
0.640578
0.644859
0.658421
0.673558
0.687994
0.690792
0.687672
0.693822
0.745121
0.805867
0.83888
0.851108
0.850387
0.843006
0.834607
0.826416
0.819031
0.812104
0.805038
0.799317
0.795256
0.792607
0.791136
0.790621
0.790798
0.791338
0.79221
0.793289
0.794677
0.796521
0.799117
0.803907
0.807449
0.805932
0.795009
0.792899
0.798883
0.805451
0.807395
0.806378
0.797631
0.787887
0.774878
0.757338
0.740987
0.720935
0.705424
0.694882
0.683652
0.67861
0.672837
0.669883
0.668578
0.668124
0.668243
0.670067
0.673305
0.67655
0.680347
0.685857
0.692316
0.698305
0.704846
0.713179
0.721942
0.730035
0.738097
0.746478
0.755681
0.76435
0.772951
0.782279
0.792725
0.804247
0.816119
0.827542
0.839993
0.854056
0.866828
0.877127
0.884205
0.888699
0.888083
0.877457
0.858933
0.840724
0.827224
0.819601
0.815927
0.814942
0.815276
0.817692
0.822824
0.828786
0.835569
0.842809
0.850184
0.857382
0.864359
0.871066
0.87736
0.883544
0.889046
0.893956
0.898177
0.901676
0.904738
0.907391
0.909632
0.911448
0.913077
0.914571
0.915865
0.917021
0.918083
0.919155
0.920485
0.921431
0.922052
0.923356
0.925396
0.927241
0.931567
0.938113
0.942022
0.948606
0.954756
0.956476
0.956502
0.95588
0.952204
0.947135
0.940991
0.924807
0.91074
0.905028
0.899196
0.89559
0.895228
0.892282
0.877937
0.863196
0.869509
0.888228
0.880914
0.874673
0.885723
0.698575
0.70445
0.718404
0.70987
0.694561
0.689471
0.687812
0.689168
0.69148
0.694583
0.699343
0.702761
0.702756
0.701759
0.698781
0.694987
0.68783
0.68066
0.67201
0.663565
0.655572
0.64701
0.639638
0.632678
0.62673
0.62571
0.627006
0.631006
0.642845
0.67534
0.695129
0.695455
0.692862
0.682
0.669641
0.692118
0.735107
0.763549
0.802748
0.812325
0.834186
0.848892
0.854758
0.852885
0.844523
0.840427
0.836151
0.828001
0.817576
0.806153
0.796626
0.792178
0.790572
0.789738
0.789592
0.789637
0.790009
0.790851
0.791672
0.792496
0.793334
0.794572
0.796684
0.800679
0.804951
0.804751
0.798813
0.797786
0.799566
0.801327
0.801312
0.793556
0.773418
0.739666
0.698909
0.664787
0.633532
0.616866
0.608726
0.604422
0.602968
0.60276
0.602968
0.603399
0.60407
0.605171
0.606879
0.609377
0.612658
0.616381
0.620104
0.624347
0.629783
0.635854
0.642593
0.650499
0.659119
0.668856
0.679719
0.690647
0.702064
0.712957
0.722648
0.731291
0.737865
0.745571
0.753148
0.760828
0.768384
0.77665
0.7873
0.802709
0.825572
0.853569
0.883871
0.909057
0.923584
0.929994
0.929052
0.914886
0.88781
0.865386
0.848115
0.835128
0.826598
0.822386
0.821217
0.821348
0.823057
0.828879
0.836301
0.843949
0.851844
0.859317
0.866802
0.873941
0.88128
0.888588
0.895231
0.901293
0.906356
0.910364
0.913398
0.91567
0.917129
0.917957
0.918003
0.917877
0.917883
0.91819
0.919027
0.920021
0.921737
0.92629
0.931808
0.943339
0.957836
0.968498
0.97391
0.975756
0.975913
0.975939
0.975932
0.975714
0.974276
0.96993
0.958968
0.932158
0.916483
0.905953
0.898857
0.897311
0.897437
0.895098
0.894658
0.902055
0.910876
0.914687
0.917004
0.918893
0.698554
0.718881
0.700542
0.682181
0.684097
0.691311
0.710372
0.735328
0.754995
0.768791
0.774017
0.775236
0.774101
0.771501
0.767752
0.763058
0.75815
0.751014
0.740702
0.730524
0.717197
0.694515
0.670303
0.64777
0.632011
0.625306
0.616802
0.614828
0.61703
0.627284
0.663691
0.688423
0.692228
0.68858
0.676267
0.710342
0.815313
0.842351
0.85236
0.857878
0.861974
0.863311
0.862989
0.862144
0.862432
0.855706
0.840465
0.819532
0.799939
0.792207
0.790086
0.789831
0.790314
0.792003
0.795075
0.799551
0.804012
0.80796
0.808206
0.805079
0.801606
0.799522
0.800386
0.80341
0.803725
0.799781
0.79824
0.797981
0.797903
0.794278
0.779648
0.746819
0.690869
0.647785
0.622203
0.601779
0.595122
0.592855
0.592448
0.593215
0.596887
0.60262
0.606762
0.609026
0.610892
0.612227
0.612712
0.613438
0.615666
0.618961
0.622119
0.625664
0.630504
0.635952
0.64203
0.649538
0.657703
0.666823
0.67744
0.688547
0.700765
0.712918
0.724425
0.73649
0.746876
0.756367
0.764799
0.771576
0.777209
0.779356
0.781615
0.784756
0.791073
0.802807
0.821996
0.853936
0.895512
0.929132
0.946463
0.952407
0.950956
0.938754
0.917288
0.900735
0.887818
0.876683
0.86668
0.858435
0.853067
0.850834
0.850554
0.851054
0.853929
0.860816
0.866904
0.871639
0.876441
0.881508
0.886383
0.891318
0.895982
0.901129
0.904678
0.905636
0.905298
0.903255
0.898707
0.894671
0.893046
0.893541
0.89655
0.906113
0.915143
0.928165
0.952321
0.971493
0.979763
0.981098
0.980424
0.978047
0.975675
0.97531
0.975625
0.977127
0.980469
0.980913
0.979245
0.971207
0.945472
0.919802
0.904863
0.899115
0.898318
0.896189
0.892423
0.890683
0.88968
0.895899
0.909516
0.918354
0.713937
0.679493
0.670169
0.680805
0.717613
0.766908
0.796684
0.804324
0.802016
0.798995
0.79432
0.790186
0.785485
0.781314
0.777854
0.774214
0.772002
0.767434
0.763565
0.759168
0.753184
0.746756
0.734593
0.707345
0.675688
0.647172
0.627031
0.6122
0.608065
0.610958
0.629004
0.671849
0.6886
0.684032
0.681594
0.776767
0.852887
0.867046
0.872792
0.877117
0.882686
0.8856
0.886865
0.885026
0.870179
0.84708
0.815772
0.795363
0.790085
0.789081
0.789641
0.792076
0.798183
0.808943
0.819848
0.826581
0.827761
0.826808
0.823796
0.817203
0.808426
0.803978
0.80303
0.802856
0.800946
0.797993
0.797007
0.795202
0.788469
0.769083
0.725525
0.668216
0.632696
0.606851
0.595212
0.591929
0.591646
0.593915
0.601552
0.616512
0.637637
0.655534
0.662971
0.666252
0.667173
0.66647
0.662859
0.660266
0.659971
0.660314
0.661521
0.663833
0.668217
0.674129
0.680119
0.687553
0.695847
0.704392
0.713732
0.723492
0.735553
0.748159
0.761042
0.777409
0.796239
0.813064
0.829437
0.845114
0.863505
0.867503
0.86388
0.852612
0.837498
0.824998
0.823242
0.833026
0.860042
0.895099
0.931889
0.956421
0.966841
0.967835
0.962967
0.943217
0.92169
0.906705
0.896168
0.888445
0.882915
0.879525
0.878078
0.877858
0.878141
0.879842
0.884747
0.888754
0.890681
0.891197
0.891334
0.891645
0.891864
0.891895
0.89167
0.889444
0.880234
0.86748
0.85997
0.857606
0.858128
0.863803
0.880917
0.897991
0.925906
0.957442
0.977106
0.983116
0.982826
0.979262
0.970089
0.960044
0.954685
0.953218
0.953519
0.955223
0.960641
0.973557
0.979792
0.979791
0.974425
0.952044
0.91801
0.903466
0.899557
0.89411
0.885054
0.883501
0.884295
0.887287
0.891607
0.904502
0.650062
0.652315
0.676135
0.756515
0.815682
0.823639
0.81886
0.810111
0.798312
0.785989
0.774206
0.764996
0.755987
0.750451
0.74764
0.746844
0.747594
0.749456
0.75128
0.751708
0.750787
0.748066
0.74367
0.733204
0.719364
0.701691
0.666793
0.625085
0.604209
0.602432
0.615059
0.659968
0.684686
0.673783
0.702908
0.837469
0.875272
0.886523
0.893782
0.903083
0.906901
0.908038
0.905146
0.88905
0.861218
0.825262
0.796982
0.789295
0.78805
0.788666
0.792404
0.801433
0.8154
0.825988
0.829322
0.829888
0.829658
0.827887
0.823549
0.816298
0.807688
0.80385
0.802449
0.800819
0.797654
0.796161
0.793064
0.784736
0.762098
0.715462
0.665456
0.633612
0.61073
0.597586
0.594123
0.593787
0.596901
0.608581
0.633113
0.669183
0.689348
0.694399
0.695599
0.695567
0.693792
0.690195
0.688932
0.689225
0.69154
0.696766
0.704984
0.715568
0.72651
0.737971
0.751321
0.764297
0.778518
0.792362
0.804438
0.815044
0.828576
0.839998
0.847815
0.854217
0.863389
0.876219
0.893235
0.912317
0.928387
0.941006
0.948248
0.950118
0.946976
0.933454
0.907915
0.883606
0.875346
0.886295
0.917819
0.946711
0.96789
0.978831
0.981653
0.980902
0.974735
0.952852
0.928555
0.911247
0.899547
0.892013
0.88763
0.885628
0.885139
0.885262
0.886436
0.890472
0.894292
0.896303
0.896918
0.896877
0.896083
0.892688
0.8814
0.865342
0.853132
0.846713
0.844814
0.844985
0.847318
0.855501
0.87968
0.92115
0.956828
0.978046
0.984705
0.983853
0.976105
0.956365
0.946105
0.942276
0.941432
0.941786
0.943573
0.944983
0.945982
0.949037
0.962467
0.97581
0.977224
0.97237
0.945752
0.913435
0.902557
0.890016
0.882452
0.883961
0.889428
0.890803
0.890055
0.893431
0.645672
0.665599
0.769532
0.83503
0.834962
0.825396
0.804221
0.786342
0.77531
0.766076
0.756452
0.746711
0.736045
0.727883
0.721142
0.715996
0.715194
0.715877
0.718223
0.724449
0.734482
0.739711
0.739657
0.737136
0.731483
0.719691
0.68472
0.627054
0.597055
0.593351
0.601927
0.653103
0.681323
0.672386
0.772657
0.870132
0.894191
0.904677
0.915837
0.921515
0.922953
0.921641
0.910195
0.885331
0.850521
0.808689
0.79058
0.786986
0.786862
0.789183
0.796272
0.809158
0.822289
0.82682
0.828333
0.82872
0.82837
0.825857
0.820409
0.812437
0.804994
0.802001
0.800071
0.797295
0.795158
0.79166
0.782407
0.759232
0.71775
0.67683
0.648422
0.631507
0.611983
0.60143
0.599987
0.602656
0.613225
0.635203
0.668582
0.693767
0.700146
0.701308
0.701248
0.70003
0.697517
0.695891
0.695883
0.697468
0.701913
0.710206
0.722862
0.740092
0.762079
0.787254
0.812983
0.836953
0.860198
0.881772
0.89907
0.912459
0.921373
0.926123
0.929416
0.931664
0.931852
0.931277
0.934364
0.940624
0.948158
0.957325
0.966152
0.972991
0.977256
0.978578
0.977029
0.96915
0.949865
0.932593
0.929945
0.943532
0.965547
0.980065
0.987817
0.990486
0.990616
0.989307
0.982834
0.961473
0.936246
0.916828
0.903135
0.89454
0.890057
0.88839
0.888172
0.888695
0.891522
0.895405
0.897258
0.897524
0.896828
0.892145
0.874626
0.856361
0.846676
0.843204
0.842758
0.843494
0.847818
0.864349
0.909846
0.951136
0.975886
0.985345
0.985336
0.975867
0.951663
0.940722
0.937018
0.9365
0.936725
0.937738
0.9417
0.94478
0.94509
0.945229
0.947034
0.958303
0.973211
0.974346
0.967014
0.933847
0.908706
0.890675
0.882427
0.883839
0.890579
0.895398
0.896067
0.893502
0.648664
0.707313
0.829683
0.845943
0.831361
0.800212
0.788029
0.78112
0.775033
0.768068
0.757766
0.745647
0.733034
0.721435
0.712083
0.705857
0.704303
0.704612
0.705963
0.709063
0.716194
0.726155
0.733438
0.734393
0.731143
0.719161
0.678979
0.618252
0.583784
0.574034
0.599117
0.658044
0.674077
0.6902
0.837381
0.893082
0.910993
0.921766
0.931362
0.934229
0.934547
0.930131
0.914197
0.885443
0.844599
0.80167
0.787527
0.785073
0.78525
0.788189
0.795589
0.807014
0.817717
0.822157
0.82401
0.824511
0.82388
0.819634
0.811712
0.804331
0.8006
0.798818
0.797175
0.794608
0.790366
0.781708
0.760619
0.72656
0.69181
0.666501
0.651514
0.636899
0.62374
0.619818
0.622702
0.633472
0.650717
0.671534
0.691113
0.699437
0.701462
0.701711
0.701276
0.700009
0.698705
0.698712
0.700586
0.70588
0.716197
0.732923
0.756398
0.785864
0.820189
0.859427
0.894602
0.922138
0.93981
0.950454
0.955594
0.956814
0.955879
0.954286
0.953967
0.955221
0.957318
0.958786
0.95804
0.955563
0.956882
0.961785
0.968674
0.976042
0.982069
0.986525
0.989237
0.989935
0.988707
0.983346
0.974803
0.969816
0.971223
0.980899
0.989564
0.993988
0.995631
0.995864
0.995562
0.993837
0.987429
0.967601
0.942658
0.921862
0.90654
0.896763
0.891588
0.889577
0.8893
0.890011
0.893255
0.895157
0.895018
0.891541
0.875501
0.856482
0.84719
0.844772
0.844945
0.847485
0.858996
0.89863
0.94318
0.971217
0.984611
0.986784
0.981163
0.957055
0.941167
0.934759
0.932752
0.932556
0.932965
0.93455
0.939901
0.947735
0.949638
0.948159
0.94622
0.947434
0.958194
0.971375
0.970923
0.958915
0.921575
0.893774
0.883015
0.883206
0.886743
0.893534
0.89999
0.8991
0.655281
0.752248
0.846691
0.845949
0.812112
0.7943
0.793116
0.799776
0.801655
0.796369
0.779024
0.753509
0.732736
0.715291
0.702573
0.698304
0.698544
0.699925
0.702477
0.707675
0.71533
0.723559
0.728729
0.729285
0.725573
0.707811
0.653268
0.588595
0.557462
0.564534
0.607009
0.663779
0.677999
0.742711
0.87622
0.910446
0.924273
0.935511
0.941989
0.94353
0.943292
0.937665
0.921129
0.89147
0.8466
0.800208
0.786163
0.783763
0.783974
0.786839
0.79344
0.802562
0.809091
0.811797
0.813054
0.813344
0.811634
0.806173
0.80158
0.799287
0.797639
0.796434
0.794131
0.789396
0.78003
0.761943
0.735251
0.707373
0.685056
0.669779
0.661485
0.658095
0.65727
0.66065
0.666625
0.674556
0.684223
0.693018
0.698117
0.69964
0.700002
0.700109
0.700154
0.700623
0.702436
0.706824
0.715436
0.730268
0.752715
0.784081
0.823351
0.869707
0.913077
0.939044
0.954192
0.964016
0.970478
0.97426
0.975691
0.974612
0.970215
0.965189
0.962059
0.961146
0.962136
0.964839
0.966804
0.966429
0.963864
0.964221
0.968402
0.975172
0.981904
0.98708
0.990944
0.99367
0.995068
0.995186
0.994239
0.992305
0.991071
0.990907
0.992615
0.995825
0.997592
0.99828
0.998397
0.998316
0.997825
0.996041
0.990351
0.972762
0.947718
0.925912
0.909304
0.898154
0.891777
0.889067
0.888615
0.889195
0.889549
0.887959
0.877063
0.859123
0.851198
0.849966
0.850914
0.856751
0.881514
0.929039
0.962589
0.981304
0.987439
0.986159
0.970326
0.94805
0.937887
0.933162
0.930755
0.929698
0.929594
0.930381
0.934699
0.946845
0.955229
0.956319
0.952808
0.948422
0.949515
0.960981
0.969169
0.966374
0.944604
0.901682
0.885136
0.882582
0.882862
0.886372
0.899712
0.904296
0.662279
0.778129
0.852394
0.838503
0.808364
0.802259
0.825867
0.836994
0.835072
0.822758
0.799555
0.770319
0.735798
0.712138
0.692598
0.689208
0.692375
0.699542
0.703872
0.707723
0.71139
0.713035
0.711936
0.707519
0.693243
0.650103
0.587866
0.54911
0.545422
0.568682
0.629756
0.67199
0.6936
0.815214
0.900566
0.923618
0.934681
0.945199
0.949567
0.950625
0.950363
0.94576
0.931888
0.905113
0.861502
0.806431
0.786383
0.782911
0.782887
0.785257
0.790636
0.796887
0.801109
0.803169
0.804129
0.804334
0.803242
0.799951
0.797941
0.796671
0.794515
0.791902
0.787378
0.778281
0.762894
0.743303
0.721624
0.703456
0.686813
0.679803
0.678801
0.679059
0.681076
0.684619
0.688743
0.692774
0.69643
0.698509
0.699417
0.700163
0.701466
0.703599
0.707574
0.713958
0.723354
0.736856
0.756369
0.784104
0.819608
0.864588
0.908246
0.936043
0.950637
0.959756
0.966447
0.971834
0.976146
0.979402
0.981628
0.982315
0.978792
0.971976
0.966514
0.963568
0.963143
0.964831
0.968027
0.970125
0.970715
0.969289
0.969461
0.972994
0.979175
0.985393
0.990309
0.993789
0.996046
0.99736
0.997828
0.997822
0.997616
0.997536
0.997658
0.998211
0.99885
0.999255
0.999422
0.999446
0.999417
0.999262
0.99873
0.997125
0.992316
0.977237
0.953373
0.931661
0.91339
0.899371
0.890482
0.886463
0.884755
0.881834
0.871489
0.858976
0.855099
0.855278
0.858184
0.870226
0.908493
0.948759
0.974125
0.98612
0.9882
0.983651
0.962046
0.945344
0.937388
0.933247
0.930805
0.929396
0.928879
0.928959
0.930437
0.939026
0.954048
0.960938
0.960971
0.954645
0.950156
0.951914
0.963575
0.966142
0.958788
0.920496
0.890783
0.883381
0.882601
0.884434
0.897934
0.908986
0.668585
0.791493
0.854789
0.835542
0.812497
0.825333
0.845651
0.848763
0.843631
0.826891
0.802765
0.776682
0.748374
0.711976
0.688412
0.675648
0.68243
0.688847
0.687286
0.678141
0.658
0.641171
0.631181
0.621329
0.600565
0.569742
0.542684
0.534663
0.547478
0.584128
0.651511
0.680845
0.731387
0.867462
0.91689
0.933584
0.942621
0.951589
0.955027
0.956054
0.956047
0.953424
0.944162
0.924116
0.887785
0.829954
0.790707
0.782851
0.782213
0.784203
0.789789
0.793883
0.795349
0.796357
0.797048
0.797225
0.796915
0.795443
0.794425
0.793644
0.791013
0.786324
0.778066
0.76546
0.750419
0.73589
0.722118
0.705752
0.693685
0.690608
0.690744
0.691955
0.693744
0.695834
0.697977
0.700167
0.702149
0.704696
0.708319
0.713425
0.720403
0.729909
0.743027
0.75992
0.780115
0.804095
0.835341
0.872749
0.909779
0.935072
0.948957
0.956503
0.961002
0.964609
0.968466
0.972683
0.976544
0.979778
0.982486
0.984545
0.985286
0.982748
0.975064
0.967732
0.964256
0.963981
0.96564
0.969522
0.972831
0.975013
0.974961
0.975146
0.978324
0.98439
0.989416
0.99317
0.99584
0.997547
0.998521
0.998981
0.999146
0.999203
0.999273
0.999399
0.999558
0.9997
0.999788
0.99982
0.999822
0.999811
0.999756
0.999584
0.999101
0.997801
0.994254
0.983771
0.961182
0.938793
0.918847
0.901446
0.88586
0.871754
0.861908
0.858869
0.859305
0.862248
0.871116
0.897896
0.938553
0.967779
0.983667
0.989196
0.988973
0.980467
0.958091
0.94484
0.938895
0.935989
0.933386
0.930905
0.929315
0.928854
0.929153
0.93177
0.944851
0.959904
0.964546
0.963349
0.954437
0.951715
0.955287
0.964525
0.963256
0.946629
0.902832
0.886486
0.883586
0.885193
0.898734
0.915077
0.674267
0.805396
0.857387
0.835474
0.823239
0.835091
0.85218
0.853556
0.846105
0.826293
0.800792
0.776162
0.753581
0.72695
0.687626
0.664752
0.649845
0.642758
0.621453
0.592979
0.573024
0.56456
0.559956
0.553839
0.543996
0.534129
0.529342
0.535683
0.559172
0.622093
0.669916
0.698544
0.788807
0.896319
0.927814
0.940282
0.948261
0.95564
0.958549
0.959754
0.960011
0.959132
0.954576
0.943075
0.919795
0.877127
0.812847
0.785726
0.781587
0.78167
0.78494
0.790998
0.793242
0.794032
0.794327
0.794377
0.793981
0.792803
0.791527
0.789099
0.783426
0.775467
0.766236
0.756067
0.746308
0.736899
0.72587
0.716338
0.710215
0.708924
0.708933
0.709855
0.711423
0.713534
0.71634
0.720555
0.727247
0.736518
0.748715
0.763682
0.781367
0.802246
0.827715
0.855351
0.881877
0.906335
0.925847
0.940064
0.950011
0.95645
0.960306
0.96245
0.96374
0.96532
0.968306
0.971607
0.974638
0.977584
0.980829
0.984087
0.986511
0.987691
0.986855
0.979739
0.969748
0.965265
0.964782
0.966459
0.971393
0.976977
0.981293
0.983018
0.983627
0.985774
0.989885
0.993174
0.995685
0.997448
0.998566
0.999198
0.999519
0.99967
0.999744
0.999794
0.999841
0.999887
0.999923
0.999942
0.999947
0.999946
0.999941
0.99992
0.999859
0.9997
0.999306
0.998354
0.99606
0.990331
0.974084
0.938535
0.904218
0.881716
0.873872
0.873952
0.877028
0.885521
0.906129
0.939165
0.968092
0.984892
0.991294
0.992163
0.990387
0.977933
0.956929
0.946755
0.944109
0.943079
0.940293
0.935789
0.93199
0.929761
0.929197
0.929783
0.934498
0.951787
0.964101
0.966524
0.96322
0.95377
0.953475
0.959547
0.962479
0.956789
0.926314
0.894791
0.887576
0.889463
0.905364
0.924338
0.67934
0.815428
0.862364
0.838283
0.827807
0.841401
0.857226
0.857624
0.847087
0.82327
0.794763
0.770416
0.753317
0.737396
0.708062
0.66073
0.635155
0.611502
0.581332
0.559748
0.550609
0.54463
0.537331
0.530992
0.528206
0.527318
0.530714
0.54665
0.593395
0.652371
0.679666
0.724577
0.837969
0.913499
0.935456
0.945171
0.952333
0.958378
0.960825
0.962257
0.962726
0.962567
0.960748
0.955232
0.943249
0.919607
0.875482
0.810036
0.785278
0.781697
0.781738
0.783859
0.788118
0.790503
0.791196
0.791349
0.790963
0.789095
0.785922
0.781588
0.775298
0.767928
0.761122
0.754317
0.747167
0.74001
0.73368
0.728694
0.725889
0.725408
0.726455
0.729426
0.733805
0.740192
0.752343
0.770932
0.793584
0.819191
0.846095
0.871907
0.895546
0.914827
0.929129
0.939356
0.946362
0.951314
0.954955
0.95777
0.960125
0.961976
0.963187
0.963863
0.964282
0.965218
0.966704
0.96798
0.969145
0.970808
0.974016
0.978915
0.984058
0.987638
0.989152
0.988954
0.983386
0.972385
0.967424
0.966865
0.969331
0.976065
0.98292
0.988181
0.991513
0.993499
0.994555
0.99542
0.996464
0.997632
0.998595
0.999238
0.9996
0.999784
0.999873
0.999917
0.999942
0.999959
0.999973
0.999981
0.999984
0.999985
0.999985
0.999982
0.999974
0.999952
0.999898
0.999769
0.999464
0.998673
0.996213
0.986804
0.953075
0.922839
0.91461
0.915371
0.920797
0.936663
0.956972
0.975197
0.988294
0.994336
0.995487
0.995048
0.991791
0.976457
0.957831
0.952038
0.952586
0.953058
0.951079
0.943766
0.93759
0.93296
0.930336
0.929821
0.931016
0.94008
0.958563
0.966796
0.967199
0.960729
0.954427
0.955181
0.960038
0.959398
0.949011
0.914976
0.899077
0.901957
0.920621
0.937057
0.684191
0.820886
0.866537
0.843187
0.832406
0.850217
0.865148
0.864634
0.850524
0.821558
0.787765
0.761354
0.74926
0.740499
0.726626
0.693475
0.636846
0.596907
0.570265
0.555905
0.549482
0.543334
0.534624
0.529946
0.528848
0.531581
0.544723
0.582567
0.635008
0.663918
0.689539
0.753397
0.873757
0.923681
0.940509
0.948647
0.955792
0.960186
0.961986
0.963305
0.964327
0.96449
0.963905
0.9614
0.955521
0.944126
0.922469
0.882178
0.819701
0.788358
0.782978
0.782594
0.783336
0.784687
0.785296
0.78547
0.785298
0.783854
0.781108
0.777502
0.772933
0.767573
0.761648
0.75608
0.751105
0.748003
0.746684
0.746314
0.749088
0.755112
0.765482
0.782573
0.810185
0.851065
0.884022
0.907899
0.925034
0.936613
0.944723
0.950198
0.953952
0.956467
0.958334
0.959596
0.960457
0.961034
0.961424
0.961761
0.962241
0.962928
0.963589
0.964
0.96429
0.964546
0.964142
0.963309
0.962491
0.962082
0.962593
0.966008
0.973756
0.982063
0.987669
0.990044
0.990318
0.986569
0.976952
0.972194
0.971753
0.975293
0.98294
0.989305
0.993729
0.99646
0.997934
0.998559
0.998712
0.998761
0.99899
0.999358
0.999647
0.999821
0.999911
0.999953
0.999974
0.999984
0.99999
0.999994
0.999995
0.999996
0.999996
0.999996
0.999995
0.999992
0.999984
0.999965
0.999918
0.999783
0.999298
0.99717
0.98685
0.973164
0.969879
0.970675
0.97467
0.98109
0.986688
0.992582
0.996662
0.998044
0.998003
0.997112
0.992929
0.976344
0.961206
0.95994
0.961779
0.962324
0.957816
0.950728
0.944504
0.938927
0.933886
0.931025
0.930757
0.933327
0.948199
0.963627
0.967973
0.96689
0.958415
0.955532
0.957493
0.95919
0.956467
0.93827
0.92259
0.92456
0.937389
0.948257
0.688599
0.827617
0.8713
0.848556
0.838821
0.853789
0.873072
0.873438
0.858688
0.824968
0.784863
0.758495
0.746877
0.740813
0.731473
0.710927
0.669079
0.607758
0.572555
0.561278
0.55709
0.553758
0.547498
0.543872
0.544183
0.558677
0.591383
0.626442
0.653634
0.672383
0.710511
0.797475
0.895469
0.929794
0.943304
0.950291
0.957002
0.961863
0.963263
0.963929
0.96475
0.965362
0.965384
0.964449
0.961454
0.955549
0.945707
0.928314
0.896146
0.844816
0.800486
0.787771
0.784818
0.784362
0.784205
0.783976
0.783596
0.782605
0.780664
0.777709
0.774026
0.770075
0.76739
0.766353
0.769436
0.779317
0.797457
0.825623
0.857485
0.889883
0.921537
0.948684
0.96164
0.963264
0.963392
0.963214
0.963055
0.962947
0.963036
0.963227
0.963484
0.963711
0.963924
0.963995
0.963896
0.963634
0.963289
0.962987
0.962852
0.963034
0.963472
0.963683
0.963763
0.963585
0.963144
0.962029
0.960735
0.95972
0.958908
0.958403
0.95937
0.966901
0.978718
0.986988
0.990875
0.992026
0.990736
0.984761
0.980292
0.979701
0.98318
0.989722
0.994348
0.997121
0.998598
0.999299
0.999581
0.999663
0.999672
0.999679
0.999757
0.999864
0.999931
0.999967
0.999984
0.999992
0.999996
0.999998
0.999999
0.999999
0.999999
0.999999
0.999999
0.999999
0.999998
0.999995
0.999988
0.999968
0.999889
0.999553
0.998016
0.994867
0.993602
0.993624
0.994105
0.995149
0.996561
0.998197
0.999168
0.999361
0.999203
0.998226
0.993936
0.977505
0.967259
0.967417
0.969395
0.967499
0.959756
0.953935
0.949764
0.946411
0.941227
0.934842
0.931913
0.932075
0.937416
0.956235
0.966387
0.967789
0.965095
0.957218
0.956816
0.95825
0.957843
0.950784
0.94147
0.942635
0.950149
0.95671
0.692244
0.831295
0.877213
0.856097
0.843248
0.854373
0.876966
0.880568
0.870112
0.837007
0.789991
0.759001
0.746224
0.739515
0.731485
0.716596
0.691282
0.648814
0.594465
0.573701
0.569583
0.569569
0.574718
0.584665
0.591653
0.604149
0.627412
0.646854
0.662824
0.68692
0.737348
0.830307
0.907368
0.933368
0.944437
0.950432
0.956567
0.962259
0.964465
0.965158
0.965338
0.965657
0.965901
0.965817
0.964673
0.96143
0.955727
0.947817
0.935904
0.914781
0.881509
0.842422
0.811138
0.796893
0.791348
0.788997
0.787818
0.786888
0.78573
0.784874
0.785273
0.788967
0.799755
0.822853
0.854711
0.889216
0.918725
0.937187
0.950982
0.959493
0.963767
0.965218
0.965223
0.965149
0.965016
0.964892
0.964823
0.964959
0.965179
0.965482
0.965854
0.966251
0.966592
0.966809
0.966822
0.966588
0.966009
0.965244
0.964504
0.963985
0.963793
0.963679
0.96353
0.963307
0.962965
0.962059
0.960742
0.959724
0.958782
0.957559
0.956013
0.955515
0.960482
0.974829
0.986339
0.992104
0.994343
0.994834
0.993229
0.990019
0.988697
0.990524
0.994694
0.997382
0.998809
0.999476
0.999763
0.999873
0.999907
0.999915
0.999923
0.999939
0.999961
0.999979
0.99999
0.999995
0.999998
0.999999
0.999999
1
1
1
1
1
1
0.999999
0.999999
0.999996
0.999988
0.999954
0.999811
0.999259
0.998841
0.998806
0.99886
0.99898
0.999275
0.999635
0.9998
0.999802
0.999645
0.998782
0.994875
0.980161
0.973741
0.97438
0.974378
0.969992
0.961049
0.955683
0.953156
0.950945
0.948647
0.943198
0.93552
0.933123
0.934151
0.943254
0.960846
0.966726
0.96653
0.961981
0.957495
0.957496
0.957944
0.955988
0.952768
0.953539
0.95859
0.962737
0.695681
0.833084
0.883146
0.865094
0.847266
0.853399
0.878259
0.885191
0.881092
0.858917
0.817441
0.772337
0.74946
0.738486
0.728663
0.713584
0.696393
0.673714
0.638483
0.601386
0.588549
0.586443
0.588539
0.599708
0.614735
0.625261
0.638298
0.652695
0.667109
0.696891
0.755813
0.841001
0.909531
0.934395
0.944848
0.950164
0.954891
0.961403
0.964459
0.965777
0.966337
0.966367
0.966239
0.966225
0.966036
0.964852
0.961633
0.956146
0.949431
0.941598
0.929595
0.911787
0.891299
0.865945
0.843258
0.828785
0.823405
0.821985
0.822824
0.829274
0.843159
0.864179
0.890267
0.914209
0.933841
0.948352
0.956524
0.960867
0.963049
0.963889
0.964059
0.964183
0.964382
0.964566
0.964715
0.964834
0.965079
0.965817
0.9674
0.969373
0.971482
0.973546
0.975396
0.976875
0.977713
0.977808
0.976927
0.974774
0.972222
0.969881
0.967842
0.966249
0.965021
0.964074
0.963424
0.962637
0.961636
0.960876
0.960226
0.95904
0.956466
0.953247
0.952316
0.956006
0.9725
0.986788
0.99374
0.996488
0.997564
0.997559
0.996629
0.995631
0.995905
0.99767
0.998931
0.999546
0.999814
0.999921
0.999961
0.999975
0.99998
0.999984
0.999988
0.999991
0.999995
0.999997
0.999999
0.999999
1
1
1
1
1
1
1
1
1
1
0.999999
0.999996
0.999981
0.999908
0.999826
0.999816
0.999822
0.999835
0.999877
0.999933
0.999948
0.999931
0.999792
0.999097
0.995667
0.983877
0.979709
0.979489
0.977875
0.970755
0.962906
0.958113
0.955597
0.952537
0.950011
0.94828
0.943175
0.935846
0.934688
0.937355
0.949164
0.96225
0.965384
0.964139
0.959636
0.957822
0.957995
0.957743
0.95744
0.958568
0.963861
0.96658
0.699562
0.833579
0.888866
0.876236
0.852226
0.852108
0.873419
0.888656
0.889918
0.880717
0.850901
0.804405
0.764697
0.745466
0.730533
0.711267
0.695049
0.682821
0.663484
0.637364
0.616254
0.608623
0.60714
0.609738
0.619947
0.63152
0.642143
0.654923
0.671409
0.705078
0.764026
0.840515
0.908722
0.934309
0.945107
0.950152
0.953511
0.958165
0.963496
0.965598
0.966502
0.966985
0.96707
0.966687
0.966434
0.966103
0.965027
0.962108
0.956886
0.950427
0.944257
0.93741
0.928451
0.918787
0.908384
0.899061
0.895133
0.894204
0.895357
0.900848
0.910432
0.921823
0.93273
0.941546
0.948352
0.953393
0.956355
0.957631
0.957649
0.957884
0.958876
0.960279
0.961759
0.962981
0.963802
0.964365
0.964993
0.966225
0.969033
0.972844
0.977003
0.981026
0.984498
0.98727
0.989362
0.990834
0.991615
0.99149
0.989729
0.986025
0.981216
0.976204
0.972089
0.968588
0.965974
0.963956
0.962317
0.961171
0.960541
0.959772
0.958056
0.9534
0.949713
0.949429
0.955341
0.975296
0.989265
0.995586
0.997968
0.998861
0.999061
0.998968
0.998811
0.99881
0.999228
0.999641
0.999846
0.999938
0.999975
0.999988
0.999993
0.999995
0.999997
0.999998
0.999998