/*--------------------------------*- C++ -*----------------------------------*\
  =========                 |
  \\      /  F ield         | OpenFOAM: The Open Source CFD Toolbox
   \\    /   O peration     | Website:  https://openfoam.org
    \\  /    A nd           | Version:  9
     \\/     M anipulation  |
\*---------------------------------------------------------------------------*/
FoamFile
{
    format      ascii;
    class       volScalarField;
    location    "0.069";
    object      s_0;
}
// * * * * * * * * * * * * * * * * * * * * * * * * * * * * * * * * * * * * * //

dimensions      [0 0 0 0 0 0 0];

internalField   nonuniform List<scalar> 
12225
(
1
1
1
1
1
1
1
1
1
1
1
1
1
1
1
1
1
0.999988
1
1
1
1
1
1
1
1
1
1
1
1
1
1
1
1
1
1
1
1
1
1
1
1
1
1
1
1
1
1
1
1
1
1
1
1
1
1
1
1
1
1
1
1
1
1
1
1
1
1
1
1
1
1
1
1
1
1
1
1
1
1
1
1
1
1
1
1
1
1
1
1
1
1
1
1
1
1
1
1
1
1
1
1
1
1
1
1
1
1
1
1
1
1
1
1
1
1
1
1
1
1
1
1
1
1
1
1
1
1
1
1
1
1
1
1
1
1
1
1
1
1
1
1
1
1
1
1
1
1
1
1
1
1
1
1
1
1
1
1
1
1
1
1
1
1
1
1
1
1
1
1
1
1
1
1
1
1
1
1
1
1
1
1
1
1
1
1
1
1
1
1
1
1
1
1
1
1
1
1
1
1
1
1
1
1
1
1
1
1
1
1
1
1
1
1
1
1
1
1
1
1
1
1
1
1
1
1
1
1
1
1
1
1
1
1
1
1
1
1
1
1
1
1
1
1
1
1
1
1
1
1
1
1
1
1
1
1
1
1
1
1
1
1
1
1
1
1
1
1
1
1
1
1
1
1
1
1
1
1
1
1
1
1
1
1
1
1
1
1
1
1
1
1
1
1
1
1
1
1
1
1
1
1
1
1
1
1
1
1
1
1
1
1
1
1
1
1
1
1
1
1
1
1
1
1
1
1
1
1
1
1
1
1
1
1
1
1
1
1
1
1
1
1
1
1
1
1
1
1
1
1
1
1
1
1
1
1
1
1
1
1
1
1
1
1
1
1
1
1
1
1
1
1
1
1
1
1
1
1
1
1
1
1
1
1
1
1
1
1
1
1
1
1
1
1
1
1
1
1
1
1
1
1
1
1
1
1
1
1
1
1
1
1
1
1
1
1
1
1
1
1
1
1
1
1
1
1
1
1
1
1
1
1
1
1
1
1
1
1
1
1
1
1
1
1
1
1
1
1
1
1
1
1
1
1
1
1
1
1
1
1
1
1
1
1
1
1
1
1
1
1
1
1
1
1
1
1
1
1
1
1
1
1
1
1
1
1
1
1
1
1
1
1
1
1
1
1
1
1
1
1
1
1
1
1
1
1
1
1
1
1
1
1
1
1
1
1
1
1
1
1
1
1
1
1
1
1
1
1
1
1
1
1
1
1
1
1
1
1
1
1
0.743337
0.748954
0.747047
0.744477
0.741436
0.73638
0.730822
0.725248
0.721207
0.718847
0.716981
0.715645
0.714686
0.714492
0.714657
0.715088
0.715943
0.717304
0.718758
0.7204
0.721483
0.721967
0.722034
0.721801
0.720333
0.718444
0.71778
0.718354
0.723125
0.706763
0.638343
0.620341
0.621492
0.624145
0.628047
0.632038
0.635212
0.643315
0.651618
0.655175
0.65816
0.663849
0.675704
0.710123
0.791539
0.838417
0.851922
0.852797
0.850113
0.843569
0.838269
0.833686
0.829172
0.824796
0.820836
0.817311
0.814042
0.810941
0.808165
0.805871
0.804001
0.802698
0.80218
0.802233
0.803445
0.806975
0.809446
0.807048
0.791981
0.780031
0.786126
0.808332
0.812351
0.812446
0.812174
0.811528
0.810563
0.809332
0.807884
0.806271
0.804482
0.802479
0.800734
0.799685
0.798755
0.798402
0.798291
0.798373
0.799028
0.799862
0.80096
0.802441
0.803906
0.805834
0.807717
0.809612
0.811895
0.814347
0.816485
0.818909
0.821804
0.824445
0.82686
0.829644
0.832336
0.834938
0.837534
0.839687
0.841363
0.843168
0.844315
0.844083
0.842258
0.838615
0.834169
0.830043
0.827909
0.826939
0.827149
0.828985
0.832279
0.836123
0.840375
0.844671
0.848672
0.85223
0.855376
0.858215
0.86082
0.863219
0.865417
0.867419
0.869217
0.870787
0.872127
0.873198
0.873942
0.874308
0.874379
0.874302
0.874066
0.873952
0.874053
0.874713
0.876146
0.878354
0.88148
0.884438
0.887416
0.89097
0.893912
0.896673
0.900036
0.902662
0.904379
0.906463
0.908345
0.909768
0.912315
0.913841
0.913859
0.913749
0.91327
0.91119
0.9093
0.907808
0.903957
0.901715
0.899898
0.894519
0.892675
0.891085
0.879102
0.831162
0.735618
0.60521
0.554248
0.557646
0.602815
0.713066
0.735372
0.740702
0.730798
0.72844
0.722092
0.708267
0.696596
0.69095
0.687829
0.686317
0.68539
0.684418
0.682721
0.680641
0.679078
0.677434
0.6742
0.672299
0.670055
0.66664
0.665354
0.66393
0.664027
0.6649
0.666843
0.671182
0.677656
0.685016
0.705123
0.708013
0.703298
0.684341
0.645906
0.640462
0.644721
0.65834
0.673356
0.687822
0.690499
0.687501
0.694301
0.747392
0.807092
0.839504
0.851334
0.850378
0.842769
0.8344
0.82622
0.81886
0.811934
0.804872
0.799167
0.795135
0.792522
0.791069
0.790553
0.790732
0.791269
0.792139
0.793223
0.794621
0.796472
0.799058
0.803809
0.807472
0.806192
0.795204
0.792688
0.798366
0.805347
0.807387
0.806695
0.798362
0.788761
0.776315
0.759117
0.743072
0.723376
0.707349
0.696753
0.68521
0.679925
0.674174
0.670917
0.66952
0.668996
0.669039
0.67069
0.673886
0.677147
0.680857
0.686266
0.692739
0.698741
0.705184
0.713435
0.722211
0.730318
0.738359
0.7467
0.755905
0.764598
0.773199
0.782533
0.79298
0.804528
0.816447
0.827909
0.840391
0.854457
0.867151
0.877332
0.884345
0.888733
0.887881
0.876905
0.858329
0.84023
0.826927
0.819445
0.81586
0.814922
0.815286
0.817779
0.82293
0.828908
0.835704
0.842952
0.85033
0.857527
0.864501
0.871204
0.877495
0.883672
0.889161
0.894057
0.898262
0.901749
0.904802
0.907446
0.909677
0.911488
0.913113
0.914603
0.915893
0.917047
0.91811
0.919187
0.920516
0.921455
0.922078
0.923403
0.925446
0.927305
0.931685
0.938174
0.942055
0.948628
0.954675
0.956305
0.956317
0.955656
0.951868
0.94686
0.940655
0.924341
0.910528
0.904927
0.899103
0.895557
0.895236
0.892303
0.878218
0.864196
0.870863
0.889124
0.881
0.874368
0.885298
0.698328
0.704292
0.718597
0.710116
0.694694
0.68928
0.687446
0.688714
0.690882
0.693899
0.698559
0.70189
0.701875
0.700881
0.697921
0.694156
0.687006
0.67991
0.671333
0.662973
0.654973
0.646425
0.639091
0.632144
0.626335
0.625434
0.626771
0.63088
0.642986
0.676012
0.695363
0.695549
0.692823
0.681529
0.669351
0.692667
0.734883
0.763472
0.802764
0.812376
0.834545
0.849148
0.854856
0.85288
0.844437
0.840295
0.836029
0.82789
0.817453
0.806039
0.79653
0.792121
0.790539
0.78972
0.789588
0.789636
0.790024
0.790871
0.791695
0.792516
0.793339
0.794558
0.796639
0.800575
0.804966
0.804903
0.798898
0.797745
0.799438
0.801359
0.801461
0.794419
0.775136
0.742594
0.702146
0.667943
0.636277
0.618097
0.609483
0.604733
0.603034
0.602745
0.602905
0.603291
0.603906
0.604935
0.606562
0.608984
0.612214
0.615935
0.619661
0.623852
0.629239
0.6353
0.642027
0.649921
0.658545
0.668286
0.679182
0.690153
0.701608
0.712558
0.72232
0.731027
0.737625
0.745342
0.75295
0.760668
0.768265
0.776591
0.787405
0.8031
0.826271
0.854453
0.884811
0.909634
0.923874
0.930061
0.928871
0.914078
0.887068
0.864825
0.847711
0.834852
0.826436
0.822315
0.821197
0.821351
0.823132
0.829055
0.836472
0.844126
0.85202
0.85949
0.866971
0.874113
0.881458
0.88876
0.895389
0.901432
0.906466
0.910447
0.91346
0.915713
0.917157
0.917973
0.918019
0.917899
0.917915
0.91824
0.919084
0.920075
0.921823
0.926436
0.931993
0.943604
0.958019
0.968557
0.973918
0.97575
0.97592
0.975945
0.975933
0.97568
0.974131
0.969602
0.958291
0.931514
0.916201
0.905765
0.898768
0.89731
0.897472
0.895185
0.894848
0.902168
0.910877
0.914687
0.91702
0.918883
0.698539
0.719279
0.70085
0.681944
0.68371
0.690698
0.709379
0.734141
0.753932
0.767953
0.773402
0.774763
0.773641
0.771067
0.767298
0.762593
0.757625
0.750365
0.740016
0.729861
0.716318
0.693475
0.669377
0.646977
0.631524
0.624926
0.61647
0.614625
0.616907
0.627472
0.664541
0.688746
0.692286
0.688352
0.67599
0.711249
0.81571
0.842316
0.85239
0.857936
0.86203
0.863348
0.862986
0.862058
0.862355
0.855739
0.840522
0.819629
0.799975
0.792206
0.790079
0.789821
0.790304
0.792008
0.795123
0.799689
0.804287
0.808342
0.808656
0.805526
0.801978
0.799723
0.800417
0.803416
0.803791
0.799907
0.798239
0.797991
0.797961
0.794742
0.780879
0.749597
0.694723
0.650533
0.62467
0.602634
0.595421
0.592856
0.592347
0.592908
0.596195
0.601773
0.606039
0.608366
0.610207
0.611564
0.612117
0.612772
0.614886
0.618166
0.621349
0.624862
0.629662
0.635096
0.641146
0.648636
0.656807
0.66593
0.676579
0.687737
0.700007
0.712234
0.723784
0.735854
0.746216
0.755704
0.764137
0.770912
0.776507
0.778715
0.781065
0.78435
0.79088
0.802881
0.822399
0.855036
0.896728
0.929897
0.946788
0.952448
0.95079
0.938084
0.916704
0.900304
0.887483
0.876397
0.866434
0.858251
0.852961
0.850795
0.850541
0.851069
0.854061
0.860985
0.867029
0.871749
0.876561
0.881635
0.886509
0.891442
0.896111
0.901239
0.904732
0.905645
0.905284
0.90319
0.898667
0.894698
0.893137
0.893675
0.896781
0.906454
0.915433
0.928639
0.952825
0.971758
0.979854
0.981133
0.980455
0.978082
0.975783
0.975458
0.975791
0.977354
0.980595
0.980946
0.979162
0.970834
0.944592
0.91933
0.90463
0.899058
0.898317
0.89616
0.892282
0.890434
0.88949
0.895864
0.909619
0.918436
0.714663
0.680003
0.669914
0.68028
0.716402
0.765494
0.796071
0.804146
0.801916
0.798994
0.794349
0.79023
0.785523
0.781344
0.777841
0.774173
0.771879
0.767215
0.76333
0.758888
0.752896
0.746402
0.733938
0.706427
0.675026
0.646714
0.626629
0.611807
0.607861
0.610892
0.629568
0.672486
0.688731
0.683745
0.681597
0.778144
0.853021
0.867113
0.87286
0.877161
0.882686
0.885575
0.886827
0.885102
0.870461
0.847514
0.816286
0.795529
0.790127
0.789089
0.789622
0.792014
0.798068
0.808824
0.819822
0.826665
0.827907
0.82701
0.824081
0.817605
0.808844
0.804149
0.8031
0.802887
0.801051
0.798036
0.79705
0.795387
0.789091
0.770692
0.728796
0.671645
0.635101
0.608834
0.595645
0.591922
0.591486
0.593342
0.600293
0.614387
0.63493
0.653613
0.661694
0.665251
0.66632
0.665825
0.662295
0.659317
0.658901
0.65915
0.660216
0.662389
0.666635
0.672445
0.678334
0.685688
0.693932
0.702457
0.711827
0.721636
0.733735
0.746436
0.759442
0.775966
0.79494
0.81187
0.828292
0.843895
0.862133
0.865919
0.862136
0.850769
0.835789
0.823866
0.822647
0.833172
0.860753
0.896164
0.932849
0.956934
0.96699
0.967798
0.962612
0.942395
0.921112
0.906312
0.895892
0.888247
0.882782
0.879452
0.878052
0.877851
0.878153
0.879932
0.884895
0.888837
0.890709
0.891198
0.891335
0.891652
0.891867
0.891894
0.891649
0.88932
0.879911
0.867273
0.859915
0.857656
0.858244
0.864184
0.881486
0.898603
0.926714
0.958101
0.977412
0.983191
0.982849
0.979245
0.970079
0.96013
0.954867
0.953463
0.953778
0.955553
0.961255
0.974086
0.979973
0.979857
0.974217
0.951094
0.91747
0.903293
0.899485
0.893847
0.884806
0.883419
0.88426
0.887257
0.891612
0.90473
0.650226
0.65213
0.675343
0.754905
0.81521
0.823625
0.818826
0.810345
0.798598
0.786245
0.774463
0.765256
0.756267
0.750774
0.747991
0.747177
0.747905
0.749668
0.75135
0.75169
0.750666
0.747888
0.743415
0.732839
0.719141
0.701392
0.666151
0.62435
0.603761
0.602197
0.615284
0.660605
0.684808
0.673503
0.70375
0.838007
0.875391
0.886608
0.893814
0.903099
0.906932
0.90809
0.905366
0.889623
0.862054
0.826331
0.797397
0.789388
0.788062
0.788617
0.792226
0.80109
0.814996
0.825841
0.829296
0.829904
0.829709
0.82803
0.823819
0.816689
0.808038
0.803988
0.802514
0.800872
0.797698
0.796231
0.793298
0.785426
0.763889
0.718589
0.668416
0.636045
0.612808
0.598255
0.594212
0.593706
0.596289
0.60697
0.630183
0.665724
0.688284
0.694006
0.695419
0.695466
0.693877
0.690237
0.688664
0.688821
0.690889
0.695818
0.703719
0.713971
0.724615
0.73578
0.748859
0.761642
0.775707
0.789472
0.801556
0.812122
0.825551
0.837128
0.845162
0.851893
0.8616
0.874964
0.892269
0.911653
0.927978
0.940629
0.947732
0.94941
0.945931
0.931643
0.905868
0.881982
0.874685
0.886697
0.918707
0.947475
0.968374
0.97903
0.981673
0.980833
0.97433
0.951935
0.927875
0.910779
0.899238
0.891822
0.887527
0.885586
0.885128
0.885267
0.886505
0.890618
0.894383
0.896344
0.896927
0.896874
0.896039
0.892516
0.880956
0.86495
0.852888
0.846616
0.844802
0.84501
0.847449
0.855904
0.880725
0.922227
0.957615
0.978424
0.984793
0.983838
0.975925
0.956211
0.946141
0.942373
0.941564
0.941936
0.943724
0.945055
0.946077
0.949293
0.963198
0.976097
0.9773
0.972183
0.944732
0.913038
0.902342
0.889677
0.882329
0.883999
0.889515
0.89078
0.890008
0.893443
0.645614
0.664857
0.767604
0.834718
0.835037
0.825676
0.804525
0.786306
0.775029
0.765723
0.756077
0.746368
0.735782
0.727738
0.721074
0.716024
0.715289
0.715993
0.718389
0.724739
0.734663
0.73968
0.739561
0.736988
0.731302
0.719324
0.683498
0.626006
0.59644
0.592944
0.601928
0.65359
0.681259
0.672288
0.773638
0.870319
0.894277
0.90473
0.915834
0.921589
0.92306
0.921876
0.910813
0.88636
0.852001
0.810006
0.790884
0.787023
0.786836
0.789017
0.795894
0.808557
0.821961
0.826696
0.828278
0.828695
0.828399
0.825997
0.820658
0.812779
0.805158
0.802035
0.800106
0.797354
0.795218
0.791897
0.783112
0.76093
0.720337
0.679362
0.650499
0.633405
0.614076
0.602022
0.600169
0.602363
0.612143
0.633056
0.665679
0.692705
0.699925
0.701295
0.701286
0.700147
0.697652
0.695794
0.695677
0.697072
0.701237
0.709178
0.72143
0.73822
0.75975
0.784481
0.809945
0.833799
0.856874
0.878577
0.896211
0.910081
0.919629
0.924736
0.928208
0.93049
0.930591
0.930056
0.933623
0.940247
0.94801
0.957328
0.966177
0.972968
0.977126
0.978318
0.976569
0.968177
0.948395
0.931598
0.929608
0.944173
0.966081
0.9804
0.98797
0.990519
0.990609
0.989211
0.982426
0.960542
0.935491
0.916272
0.902763
0.894323
0.889956
0.888357
0.888166
0.888729
0.891659
0.8955
0.897292
0.897529
0.896784
0.891877
0.873988
0.855962
0.846493
0.843147
0.842745
0.843526
0.84803
0.865154
0.911238
0.95208
0.976383
0.985479
0.985337
0.975469
0.951383
0.940719
0.93711
0.936624
0.936858
0.937918
0.941974
0.944831
0.945088
0.945237
0.947162
0.958958
0.97348
0.974413
0.966711
0.932971
0.908247
0.890295
0.882313
0.883876
0.890661
0.895417
0.895956
0.89343
0.648462
0.706167
0.829148
0.846035
0.831666
0.800335
0.787766
0.780646
0.774407
0.767337
0.757105
0.745174
0.732675
0.721224
0.711971
0.705826
0.704336
0.704658
0.70603
0.709177
0.716408
0.72634
0.733486
0.734314
0.73097
0.718678
0.677555
0.61698
0.582919
0.57354
0.599328
0.658418
0.673899
0.690275
0.837662
0.89315
0.911023
0.921744
0.931419
0.934353
0.934722
0.930583
0.915152
0.886953
0.846753
0.802926
0.787798
0.785087
0.785188
0.787938
0.795097
0.806346
0.817273
0.821887
0.823831
0.824373
0.823842
0.819754
0.811915
0.804516
0.80065
0.79882
0.797204
0.794718
0.790595
0.782329
0.762084
0.728653
0.694016
0.668289
0.65323
0.638817
0.625313
0.620666
0.623019
0.633102
0.649745
0.670244
0.690077
0.699194
0.701452
0.701754
0.701345
0.700085
0.69865
0.698514
0.700146
0.705067
0.714889
0.731023
0.753875
0.782728
0.816405
0.855236
0.890844
0.919019
0.937545
0.948811
0.954359
0.955864
0.955165
0.953757
0.953588
0.954948
0.957077
0.958456
0.957603
0.955215
0.956761
0.961822
0.968798
0.976169
0.982171
0.986576
0.989208
0.989816
0.988457
0.982824
0.974224
0.969485
0.971216
0.981251
0.989758
0.994076
0.995654
0.995862
0.995538
0.993725
0.987034
0.966701
0.941863
0.92124
0.906112
0.89651
0.891466
0.889536
0.889294
0.890062
0.89337
0.895186
0.895001
0.891319
0.874833
0.856057
0.847014
0.844722
0.844931
0.847601
0.859573
0.900077
0.944227
0.971835
0.984849
0.986814
0.98087
0.956501
0.940951
0.934709
0.932845
0.9327
0.933147
0.934809
0.940399
0.948008
0.949625
0.948011
0.946155
0.947481
0.958753
0.971559
0.970946
0.958446
0.920717
0.893299
0.88289
0.88318
0.88672
0.893625
0.900029
0.898975
0.654968
0.751122
0.846523
0.846138
0.812137
0.794063
0.792361
0.798513
0.800231
0.794908
0.777689
0.752682
0.732325
0.715118
0.702577
0.698361
0.6986
0.699977
0.702548
0.707803
0.715489
0.723652
0.728674
0.729146
0.725217
0.706801
0.651172
0.586963
0.556753
0.564392
0.607365
0.663929
0.677823
0.74296
0.876241
0.910439
0.924252
0.935457
0.942071
0.943676
0.943516
0.938243
0.922293
0.893372
0.849468
0.801704
0.786455
0.783771
0.78389
0.786547
0.792922
0.801952
0.808726
0.811502
0.812793
0.813112
0.811557
0.806231
0.801579
0.799275
0.797598
0.796387
0.794209
0.789653
0.780572
0.763048
0.736815
0.709156
0.686652
0.671246
0.662636
0.65921
0.658237
0.661196
0.666805
0.674411
0.68387
0.692626
0.697978
0.699609
0.699983
0.700071
0.700055
0.700398
0.70198
0.706042
0.714208
0.728468
0.750275
0.78096
0.819748
0.865663
0.909975
0.93734
0.953177
0.963366
0.970012
0.973862
0.975269
0.974123
0.96979
0.964862
0.961834
0.961027
0.962116
0.96487
0.966748
0.966224
0.963652
0.964159
0.968526
0.975365
0.98207
0.987199
0.991028
0.993716
0.995053
0.995127
0.994105
0.992164
0.990963
0.990846
0.992699
0.995896
0.997627
0.99829
0.998396
0.998308
0.997792
0.99593
0.990004
0.971893
0.946889
0.92524
0.90882
0.897847
0.891614
0.889009
0.888607
0.88922
0.889544
0.887833
0.876477
0.858715
0.851046
0.849921
0.850934
0.857044
0.882812
0.930256
0.963389
0.981699
0.987537
0.986075
0.969651
0.947648
0.937676
0.933037
0.93069
0.929702
0.929647
0.930563
0.935309
0.947569
0.955503
0.95634
0.952546
0.948321
0.949535
0.961419
0.969247
0.966246
0.943599
0.901078
0.88496
0.882517
0.88282
0.886527
0.899984
0.904234
0.661953
0.777403
0.852314
0.838724
0.808235
0.801553
0.824738
0.836239
0.834465
0.822291
0.799115
0.76961
0.735304
0.711946
0.692624
0.689336
0.692491
0.699614
0.703912
0.707758
0.711349
0.712803
0.711424
0.706657
0.691625
0.647421
0.585857
0.548204
0.545174
0.568678
0.630313
0.671911
0.693373
0.81502
0.900498
0.923568
0.934602
0.945152
0.949648
0.950762
0.950576
0.946308
0.933044
0.907135
0.864756
0.808877
0.786854
0.782926
0.782806
0.784972
0.790181
0.796422
0.800755
0.802864
0.803876
0.804111
0.803161
0.799974
0.797918
0.79669
0.794576
0.791967
0.787568
0.778782
0.763751
0.744523
0.723083
0.704947
0.688142
0.680522
0.679352
0.679538
0.681404
0.68478
0.688771
0.692711
0.69633
0.698435
0.699335
0.700026
0.701222
0.703184
0.706902
0.712947
0.721933
0.734968
0.753928
0.781098
0.816119
0.860705
0.905092
0.934459
0.949839
0.95935
0.966254
0.971745
0.976102
0.979365
0.981555
0.982129
0.978378
0.971593
0.966238
0.963435
0.963106
0.964914
0.968111
0.970158
0.970614
0.969122
0.969401
0.973127
0.979376
0.98558
0.990446
0.993879
0.996097
0.997378
0.997817
0.997799
0.997587
0.997516
0.997652
0.998227
0.998863
0.999262
0.999424
0.999445
0.999414
0.999251
0.998696
0.997027
0.992024
0.976436
0.952551
0.930936
0.912801
0.898953
0.890249
0.886365
0.884673
0.881662
0.870999
0.858699
0.855024
0.855258
0.858314
0.870862
0.909932
0.949779
0.974722
0.986356
0.988236
0.983358
0.961354
0.944989
0.937172
0.933081
0.930678
0.929325
0.928859
0.928981
0.930694
0.940065
0.954751
0.961141
0.961
0.954304
0.950048
0.951971
0.963871
0.966206
0.958528
0.919709
0.890492
0.883287
0.882581
0.884559
0.898433
0.909025
0.668273
0.790846
0.854722
0.835607
0.812132
0.824664
0.845243
0.848477
0.843481
0.826911
0.802795
0.776673
0.748039
0.711787
0.688442
0.675803
0.682577
0.688932
0.687265
0.677884
0.657247
0.639957
0.629561
0.619329
0.598439
0.568145
0.541831
0.534372
0.547361
0.58445
0.651688
0.680627
0.730956
0.867143
0.916768
0.933512
0.942522
0.95154
0.955072
0.956162
0.9562
0.95382
0.945074
0.925882
0.890832
0.834076
0.791845
0.782969
0.782136
0.783881
0.789292
0.793645
0.795161
0.796145
0.796852
0.797041
0.796789
0.795385
0.794324
0.793585
0.791069
0.786494
0.778489
0.766155
0.75131
0.736911
0.723376
0.707268
0.694701
0.691173
0.691191
0.692277
0.693958
0.695948
0.698005
0.700123
0.702024
0.704449
0.707893
0.712752
0.719416
0.728534
0.741187
0.757585
0.777335
0.800869
0.831536
0.86907
0.906842
0.933528
0.948144
0.956073
0.9608
0.964552
0.968475
0.972714
0.976594
0.979837
0.982536
0.984566
0.985177
0.982255
0.974412
0.967346
0.96411
0.963959
0.965781
0.969706
0.972918
0.974937
0.974786
0.975041
0.978446
0.984546
0.989546
0.99327
0.995911
0.99759
0.998542
0.998986
0.999143
0.999199
0.999272
0.999401
0.999561
0.999703
0.99979
0.999821
0.999822
0.999809
0.999752
0.999573
0.999072
0.997723
0.994043
0.983104
0.960328
0.937989
0.918151
0.900863
0.885342
0.871322
0.861669
0.858809
0.859297
0.862352
0.871502
0.899086
0.939626
0.968467
0.984013
0.989298
0.988961
0.979917
0.957512
0.944523
0.938646
0.935695
0.933074
0.930672
0.929201
0.928826
0.929193
0.9322
0.946076
0.960511
0.964696
0.963284
0.954109
0.951628
0.955523
0.964658
0.963241
0.945996
0.902201
0.886321
0.883601
0.885357
0.899465
0.915254
0.673911
0.80472
0.857291
0.83551
0.822913
0.83463
0.851929
0.8534
0.846131
0.826503
0.801085
0.776402
0.753737
0.726832
0.687668
0.664991
0.650126
0.642996
0.621625
0.5929
0.572725
0.564075
0.559264
0.552963
0.543151
0.533582
0.52908
0.535526
0.559251
0.622671
0.669691
0.698077
0.788015
0.895981
0.927674
0.940199
0.948159
0.955593
0.958555
0.959815
0.960106
0.959346
0.955112
0.944224
0.922036
0.881051
0.817112
0.786473
0.781599
0.781521
0.784408
0.790484
0.793034
0.793877
0.794197
0.794258
0.793908
0.792753
0.791463
0.789154
0.783645
0.775776
0.766669
0.756659
0.747011
0.737795
0.726956
0.717597
0.711108
0.709526
0.709399
0.710194
0.711651
0.713651
0.716326
0.720346
0.726762
0.735673
0.747439
0.761945
0.779179
0.799333
0.824284
0.851755
0.878415
0.90335
0.923892
0.938876
0.949331
0.95607
0.960104
0.96235
0.963705
0.965339
0.968366
0.971729
0.974818
0.977804
0.981048
0.984245
0.98659
0.987692
0.986606
0.978944
0.969233
0.965065
0.964735
0.966555
0.971647
0.977143
0.981302
0.982858
0.983455
0.985782
0.989957
0.993251
0.99575
0.997494
0.998594
0.999212
0.999526
0.999672
0.999744
0.999794
0.999842
0.999888
0.999924
0.999942
0.999947
0.999946
0.99994
0.999919
0.999856
0.999691
0.999283
0.998297
0.995923
0.98998
0.97303
0.937228
0.903216
0.881194
0.873751
0.873922
0.877123
0.885813
0.906951
0.940102
0.96876
0.985218
0.991408
0.992192
0.990276
0.977249
0.956432
0.946474
0.943819
0.942648
0.939703
0.935284
0.931648
0.929604
0.929163
0.929866
0.935229
0.952941
0.96455
0.966626
0.962959
0.953574
0.95342
0.959692
0.962463
0.956532
0.925569
0.894558
0.887705
0.889803
0.906389
0.924639
0.678933
0.81487
0.862276
0.838264
0.827559
0.840858
0.856962
0.857466
0.847211
0.823714
0.795339
0.770963
0.753585
0.737563
0.708189
0.661049
0.6355
0.611973
0.581736
0.559895
0.550646
0.544614
0.537235
0.530805
0.528023
0.527175
0.530601
0.546743
0.593932
0.65227
0.679134
0.723672
0.836865
0.913167
0.935312
0.945089
0.952253
0.958339
0.960805
0.96227
0.962785
0.962669
0.96101
0.955831
0.944493
0.922095
0.880087
0.814584
0.78603
0.781719
0.781619
0.78346
0.787557
0.79019
0.790954
0.791135
0.790829
0.789092
0.785993
0.781767
0.775655
0.768374
0.761596
0.754864
0.747811
0.740726
0.734488
0.729533
0.72658
0.726
0.726915
0.729728
0.733951
0.740129
0.751873
0.769916
0.791914
0.816989
0.843542
0.869198
0.892848
0.912628
0.927487
0.938168
0.945511
0.95072
0.954558
0.957532
0.960005
0.961922
0.963165
0.963858
0.96429
0.965253
0.96682
0.968208
0.96948
0.971255
0.97455
0.979402
0.984419
0.987809
0.989197
0.988835
0.982587
0.971761
0.967147
0.96677
0.969468
0.976349
0.983129
0.988286
0.991511
0.993423
0.994479
0.995385
0.996473
0.997659
0.99862
0.999254
0.999609
0.999788
0.999875
0.999918
0.999943
0.99996
0.999973
0.999981
0.999984
0.999985
0.999984
0.999982
0.999974
0.999951
0.999894
0.999761
0.999446
0.998624
0.996055
0.986176
0.951653
0.922169
0.914447
0.915317
0.920924
0.937122
0.957464
0.975636
0.988553
0.994426
0.995502
0.995031
0.991587
0.975735
0.957405
0.951797
0.9523
0.95262
0.950345
0.942993
0.936994
0.932554
0.930161
0.92979
0.931199
0.941232
0.959328
0.967065
0.967276
0.960441
0.954323
0.955156
0.960103
0.95941
0.948825
0.914595
0.899567
0.902751
0.921878
0.937385
0.683742
0.820331
0.866481
0.843183
0.832084
0.849637
0.864843
0.864451
0.850693
0.822089
0.788572
0.761898
0.749572
0.74071
0.726943
0.694101
0.637755
0.59761
0.570736
0.556115
0.549629
0.543513
0.534806
0.529992
0.52885
0.531634
0.544968
0.583164
0.635117
0.663536
0.688901
0.752172
0.872764
0.92334
0.940338
0.948535
0.955703
0.960174
0.96198
0.963281
0.964342
0.964537
0.964024
0.96169
0.956131
0.945358
0.924954
0.886748
0.82543
0.789629
0.78314
0.782547
0.783164
0.78446
0.785099
0.785281
0.785156
0.78385
0.781237
0.777741
0.77329
0.768027
0.762148
0.756623
0.751689
0.748629
0.74738
0.747039
0.749788
0.755714
0.765961
0.782839
0.810068
0.850289
0.882881
0.906636
0.923905
0.935675
0.943979
0.949617
0.953501
0.956116
0.958066
0.959383
0.960282
0.960897
0.961325
0.961699
0.96222
0.962938
0.963606
0.964018
0.964308
0.96459
0.964203
0.963405
0.962634
0.962294
0.962969
0.966749
0.974662
0.982687
0.987989
0.990137
0.990261
0.98587
0.976216
0.971826
0.971582
0.975492
0.983187
0.989485
0.993837
0.996512
0.997947
0.998546
0.998687
0.998744
0.998994
0.999367
0.999654
0.999826
0.999913
0.999954
0.999974
0.999984
0.99999
0.999994
0.999996
0.999996
0.999996
0.999996
0.999995
0.999992
0.999984
0.999964
0.999915
0.999775
0.999266
0.997026
0.986295
0.972841
0.969776
0.97063
0.974755
0.981186
0.986828
0.99272
0.996731
0.998053
0.997996
0.997059
0.992661
0.975635
0.960876
0.959745
0.961541
0.96197
0.957301
0.950112
0.943846
0.938284
0.933428
0.930859
0.93074
0.93372
0.949395
0.964132
0.968117
0.966877
0.958188
0.955482
0.957567
0.959217
0.956429
0.937972
0.923197
0.925367
0.938404
0.948536
0.688115
0.827044
0.871255
0.848549
0.838512
0.853288
0.87283
0.873315
0.858922
0.825655
0.785714
0.75896
0.747155
0.741039
0.731877
0.711671
0.67037
0.609315
0.573117
0.561515
0.557311
0.554146
0.548234
0.544595
0.544837
0.559342
0.592076
0.626666
0.653443
0.671969
0.709729
0.796161
0.894744
0.929476
0.943119
0.950148
0.956843
0.961848
0.963284
0.96394
0.964736
0.965375
0.965427
0.964582
0.961759
0.956131
0.946809
0.930521
0.900271
0.851086
0.803721
0.788664
0.785042
0.784381
0.784198
0.783963
0.783602
0.782681
0.780834
0.777973
0.774407
0.770568
0.76803
0.767073
0.770372
0.780549
0.799172
0.827467
0.85919
0.891244
0.922374
0.948981
0.961686
0.963248
0.963364
0.963168
0.962996
0.962882
0.962962
0.963141
0.963386
0.963598
0.963797
0.963865
0.963771
0.963517
0.963189
0.962912
0.962806
0.963026
0.963477
0.963693
0.963786
0.963599
0.963136
0.961988
0.960702
0.959698
0.958908
0.958486
0.959794
0.968019
0.979612
0.987484
0.991037
0.992019
0.990335
0.984042
0.979822
0.979476
0.983357
0.989913
0.994472
0.99719
0.998631
0.999311
0.999582
0.999659
0.999667
0.999676
0.999759
0.999867
0.999933
0.999968
0.999985
0.999992
0.999996
0.999998
0.999999
0.999999
0.999999
0.999999
0.999999
0.999999
0.999998
0.999995
0.999988
0.999966
0.999883
0.99953
0.99791
0.994775
0.993563
0.9936
0.994101
0.995163
0.996599
0.998232
0.999181
0.999359
0.999189
0.998163
0.993645
0.976867
0.967015
0.967266
0.969213
0.967112
0.959272
0.953524
0.949284
0.945772
0.940423
0.934349
0.931775
0.932114
0.938126
0.957149
0.966652
0.967847
0.964934
0.957075
0.956782
0.958265
0.957842
0.950646
0.941981
0.94325
0.950857
0.956931
0.691748
0.83072
0.877166
0.856143
0.843011
0.853875
0.876717
0.880519
0.870397
0.837752
0.79091
0.759463
0.746532
0.739815
0.731933
0.717307
0.692415
0.650728
0.596069
0.574169
0.569749
0.569679
0.574745
0.585057
0.592468
0.604508
0.627399
0.646693
0.662398
0.686262
0.736239
0.828575
0.906611
0.933062
0.94427
0.9503
0.956385
0.962188
0.964462
0.965186
0.96536
0.965661
0.965915
0.96586
0.964811
0.961732
0.956245
0.948682
0.937535
0.917823
0.886461
0.847892
0.815287
0.79883
0.792378
0.789689
0.788393
0.787471
0.786421
0.785666
0.786311
0.790348
0.801594
0.825247
0.857021
0.891238
0.920141
0.938146
0.951559
0.959763
0.963857
0.965232
0.965228
0.965154
0.965019
0.964892
0.964811
0.96493
0.965122
0.965393
0.96573
0.966087
0.966388
0.966565
0.966546
0.966282
0.965702
0.96497
0.964284
0.963829
0.963698
0.963622
0.963493
0.96328
0.962935
0.961996
0.960676
0.959653
0.9587
0.957477
0.955972
0.955747
0.96158
0.976075
0.987021
0.992344
0.994398
0.994718
0.992812
0.989591
0.988451
0.990604
0.994806
0.997453
0.998843
0.999492
0.999769
0.999874
0.999906
0.999914
0.999922
0.999939
0.999961
0.999979
0.99999
0.999995
0.999998
0.999999
1
1
1
1
1
1
1
0.999999
0.999999
0.999996
0.999987
0.999952
0.999801
0.999234
0.998829
0.9988
0.998856
0.99898
0.999284
0.999642
0.999801
0.999801
0.999632
0.998722
0.994594
0.97962
0.97356
0.974259
0.9742
0.96952
0.960599
0.955331
0.952792
0.950638
0.948265
0.942391
0.935069
0.933036
0.934302
0.944155
0.961285
0.966823
0.966532
0.961828
0.957441
0.957476
0.957976
0.955994
0.953104
0.95393
0.95911
0.962915
0.695172
0.832471
0.883108
0.865202
0.84707
0.852954
0.877967
0.885116
0.881231
0.859423
0.818234
0.773118
0.749917
0.738863
0.72919
0.714312
0.697219
0.674901
0.640349
0.602762
0.589075
0.586752
0.588601
0.59943
0.614577
0.625222
0.638024
0.65233
0.666577
0.695988
0.754446
0.839005
0.908616
0.934072
0.944708
0.950065
0.954716
0.961252
0.964429
0.965773
0.966356
0.966396
0.966256
0.966242
0.966078
0.964982
0.961917
0.956604
0.950084
0.942656
0.931457
0.91464
0.895436
0.871201
0.848479
0.833203
0.827447
0.825894
0.826675
0.83299
0.846748
0.867458
0.892835
0.915758
0.934871
0.948936
0.956803
0.961002
0.963097
0.9639
0.964068
0.964205
0.964407
0.964588
0.96473
0.964843
0.965087
0.965817
0.96735
0.969233
0.971233
0.973194
0.974942
0.976317
0.977051
0.977062
0.976068
0.973907
0.971505
0.96927
0.967359
0.9659
0.964779
0.963922
0.963326
0.962553
0.961559
0.960812
0.960144
0.958882
0.956248
0.95316
0.952504
0.956952
0.973991
0.987569
0.994031
0.996579
0.997552
0.997466
0.996428
0.99547
0.995874
0.997731
0.998962
0.99956
0.99982
0.999923
0.999962
0.999975
0.99998
0.999984
0.999988
0.999991
0.999995
0.999997
0.999999
0.999999
1
1
1
1
1
1
1
1
1
1
0.999999
0.999995
0.99998
0.999904
0.999824
0.999815
0.999821
0.999835
0.999878
0.999934
0.999948
0.999929
0.999781
0.999047
0.995403
0.983462
0.979566
0.979356
0.977599
0.970283
0.962445
0.957744
0.955326
0.952307
0.949872
0.948069
0.942484
0.93553
0.934659
0.937679
0.949794
0.962419
0.965366
0.964046
0.959496
0.957791
0.958008
0.957781
0.957586
0.958876
0.964282
0.966713
0.699045
0.832882
0.888823
0.876396
0.852049
0.851786
0.872871
0.888507
0.88991
0.881012
0.851666
0.805375
0.765374
0.745974
0.731216
0.712075
0.695724
0.683543
0.664598
0.638807
0.617284
0.609229
0.607589
0.609893
0.619757
0.631318
0.641903
0.654596
0.670958
0.704302
0.762651
0.838499
0.907715
0.933972
0.944992
0.950102
0.953437
0.95796
0.963387
0.965576
0.966501
0.966995
0.967097
0.966713
0.966457
0.966145
0.965141
0.962359
0.957295
0.950957
0.944944
0.938431
0.929961
0.920906
0.911116
0.902076
0.898111
0.897194
0.898205
0.903363
0.912468
0.923282
0.933579
0.941926
0.948468
0.953377
0.95629
0.95752
0.957551
0.957867
0.958934
0.960374
0.961857
0.963059
0.963853
0.964399
0.965029
0.966291
0.96915
0.972975
0.977127
0.9811
0.984516
0.987236
0.989274
0.990669
0.991324
0.990985
0.98882
0.984915
0.980017
0.975179
0.971313
0.96802
0.96561
0.963738
0.962194
0.961127
0.960526
0.959729
0.957903
0.953145
0.949728
0.94967
0.956602
0.97674
0.989943
0.99584
0.998048
0.998877
0.999038
0.998923
0.998762
0.998781
0.999241
0.999649
0.999851
0.99994
0.999975
0.999988
0.999993
0.999995
0.999997
0.999998
0.999998
0.999999
0.999999
1
1
1
1
1
1
1
1
1
1
1
1