/*--------------------------------*- C++ -*----------------------------------*\
  =========                 |
  \\      /  F ield         | OpenFOAM: The Open Source CFD Toolbox
   \\    /   O peration     | Website:  https://openfoam.org
    \\  /    A nd           | Version:  9
     \\/     M anipulation  |
\*---------------------------------------------------------------------------*/
FoamFile
{
    format      ascii;
    class       volVectorField;
    location    "0.069";
    object      U_0;
}
// * * * * * * * * * * * * * * * * * * * * * * * * * * * * * * * * * * * * * //

dimensions      [0 1 -1 0 0 0 0];

internalField   nonuniform List<vector> 
12225
(
(9.65568 -0.0218654 0)
(9.65526 0.0115648 0)
(9.50873 0.0258221 0)
(9.1388 0.0372229 0)
(8.68343 0.0389222 0)
(8.28735 0.0333283 0)
(7.9887 0.0321979 0)
(7.75375 0.0409002 0)
(7.5225 0.054563 0)
(7.25876 0.0664641 0)
(6.94528 0.071685 0)
(6.6153 0.0672256 0)
(6.28686 0.0579356 0)
(5.99231 0.0452284 0)
(5.71757 0.0412014 0)
(5.49 0.0431148 0)
(5.19325 0.0617919 0)
(4.94759 0.0990288 0)
(10.1731 -0.00641663 0)
(10.2915 0.02161 0)
(10.3763 0.0869853 0)
(10.3241 0.143261 0)
(10.1883 0.16189 0)
(10.0572 0.140795 0)
(9.97732 0.104427 0)
(9.95422 0.0805678 0)
(9.96002 0.0790873 0)
(9.95759 0.0948989 0)
(9.91508 0.117602 0)
(9.82862 0.136604 0)
(9.70535 0.146551 0)
(9.56931 0.149207 0)
(9.42334 0.143544 0)
(9.29571 0.146926 0)
(9.1577 0.163576 0)
(9.03105 0.168899 0)
(9.97264 -0.0643928 0)
(10.0991 -0.0141861 0)
(10.1778 0.0313224 0)
(10.1538 0.0903226 0)
(10.1361 0.114879 0)
(10.1295 0.0942891 0)
(10.0831 0.0625051 0)
(9.9922 0.0497429 0)
(9.89283 0.061511 0)
(9.81781 0.0890776 0)
(9.77893 0.120573 0)
(9.77095 0.143654 0)
(9.78091 0.153089 0)
(9.79772 0.151564 0)
(9.81306 0.144452 0)
(9.82146 0.14519 0)
(9.82914 0.158257 0)
(9.83235 0.184016 0)
(10.0629 -0.0410904 0)
(10.1511 -0.0245296 0)
(10.0658 0.0754906 0)
(9.96145 0.142291 0)
(9.93352 0.15566 0)
(9.95923 0.14638 0)
(9.9939 0.136164 0)
(10.0166 0.130795 0)
(10.0213 0.12842 0)
(10.0121 0.128242 0)
(10.0031 0.131129 0)
(10.0083 0.134804 0)
(10.0286 0.136504 0)
(10.0527 0.137321 0)
(10.0679 0.139188 0)
(10.065 0.149815 0)
(10.0487 0.172235 0)
(10.0259 0.199377 0)
(10.1573 -0.0759044 0)
(9.98233 -0.014134 0)
(9.90866 0.0890495 0)
(9.99686 0.140813 0)
(10.1063 0.129687 0)
(10.1647 0.0856448 0)
(10.1866 0.0511028 0)
(10.2033 0.0486397 0)
(10.2138 0.0721348 0)
(10.199 0.102363 0)
(10.1564 0.124811 0)
(10.1039 0.133999 0)
(10.0611 0.133481 0)
(10.0365 0.132492 0)
(10.0315 0.136949 0)
(10.0404 0.150964 0)
(10.0604 0.172214 0)
(10.0858 0.193072 0)
(9.99901 -0.0573578 0)
(9.95589 0.0525082 0)
(10.0072 0.0678042 0)
(10.0911 0.0719766 0)
(10.1433 0.0968246 0)
(10.1116 0.116007 0)
(10.0387 0.115846 0)
(10.0042 0.110597 0)
(10.0328 0.118233 0)
(10.0884 0.139582 0)
(10.1218 0.162289 0)
(10.1101 0.174152 0)
(10.0587 0.171449 0)
(9.99129 0.159643 0)
(9.93232 0.14807 0)
(9.89944 0.144852 0)
(9.89648 0.153936 0)
(9.92473 0.17288 0)
(10.0007 -0.0408723 0)
(10.0653 -0.0131486 0)
(10.0501 0.0443944 0)
(9.92862 0.0964628 0)
(9.8534 0.127371 0)
(9.84755 0.125461 0)
(9.88832 0.0935062 0)
(9.95974 0.0595742 0)
(10.0402 0.0524558 0)
(10.1052 0.078701 0)
(10.1406 0.123252 0)
(10.1457 0.163709 0)
(10.1264 0.185607 0)
(10.0908 0.186962 0)
(10.0469 0.174832 0)
(10.0069 0.159493 0)
(9.97436 0.147267 0)
(9.96269 0.143757 0)
(10.1831 -0.00136968 0)
(10.1443 0.0817138 0)
(10.0864 0.135329 0)
(10.0189 0.147925 0)
(10.0067 0.13514 0)
(10.0341 0.103962 0)
(10.0739 0.0638014 0)
(10.1157 0.0374403 0)
(10.1564 0.0439995 0)
(10.1889 0.0818918 0)
(10.2019 0.133647 0)
(10.1877 0.178702 0)
(10.1473 0.204159 0)
(10.09 0.210038 0)
(10.0235 0.204265 0)
(9.95985 0.196495 0)
(9.90185 0.19078 0)
(9.85676 0.188564 0)
(9.8441 0.0684411 0)
(9.93018 0.0324078 0)
(10.0436 0.0604468 0)
(10.1482 0.0976701 0)
(10.253 0.110696 0)
(10.3201 0.0958137 0)
(10.3065 0.0604129 0)
(10.2116 0.0308535 0)
(10.0722 0.0329308 0)
(9.9366 0.0724928 0)
(9.8382 0.13376 0)
(9.78735 0.193501 0)
(9.77544 0.233435 0)
(9.79127 0.24717 0)
(9.82402 0.239104 0)
(9.8632 0.219904 0)
(9.90279 0.198891 0)
(9.92663 0.182116 0)
(10.3164 0.0922811 0)
(10.2652 0.0467615 0)
(10.2165 0.0726292 0)
(10.1931 0.0857791 0)
(10.1908 0.0848079 0)
(10.1824 0.0905369 0)
(10.1691 0.109978 0)
(10.1578 0.139034 0)
(10.1386 0.168307 0)
(10.0984 0.192791 0)
(10.0385 0.209483 0)
(9.97456 0.21452 0)
(9.92266 0.20562 0)
(9.89124 0.185712 0)
(9.88046 0.165113 0)
(9.88439 0.151833 0)
(9.89592 0.154566 0)
(9.90266 0.171721 0)
(10.1631 0.145679 0)
(10.2459 0.0677411 0)
(10.2305 0.0726601 0)
(10.1505 0.0896943 0)
(10.1223 0.104855 0)
(10.1271 0.098562 0)
(10.1163 0.0711582 0)
(10.0824 0.0543817 0)
(10.0426 0.0755295 0)
(10.012 0.133388 0)
(9.99822 0.204257 0)
(9.99865 0.260122 0)
(10.0081 0.283577 0)
(10.0161 0.272903 0)
(10.0167 0.240725 0)
(10.0057 0.204182 0)
(9.98553 0.178644 0)
(9.95916 0.175002 0)
(10.1459 -0.0234329 0)
(10.1473 0.0706783 0)
(10.062 0.135275 0)
(9.97514 0.143507 0)
(9.95451 0.113815 0)
(9.95498 0.103417 0)
(9.93419 0.126124 0)
(9.89134 0.158795 0)
(9.85235 0.183938 0)
(9.8445 0.20022 0)
(9.87862 0.209007 0)
(9.94557 0.208438 0)
(10.0255 0.199246 0)
(10.0962 0.187232 0)
(10.1363 0.179747 0)
(10.1389 0.181742 0)
(10.102 0.195186 0)
(10.0425 0.216437 0)
(9.91706 0.0784665 0)
(9.97927 0.146997 0)
(10.0322 0.136958 0)
(10.0695 0.108892 0)
(10.0875 0.0945237 0)
(10.078 0.09977 0)
(10.0649 0.107566 0)
(10.0636 0.111776 0)
(10.0675 0.120015 0)
(10.066 0.136603 0)
(10.0563 0.157629 0)
(10.0408 0.176241 0)
(10.0195 0.18826 0)
(9.99354 0.196633 0)
(9.96155 0.206056 0)
(9.92723 0.221422 0)
(9.8893 0.24334 0)
(9.85466 0.268115 0)
(9.91446 0.0362314 0)
(10.0804 0.00456945 0)
(10.1265 0.0844233 0)
(10.0601 0.123931 0)
(9.97504 0.12591 0)
(9.91156 0.127663 0)
(9.88691 0.135333 0)
(9.90255 0.14958 0)
(9.94482 0.172077 0)
(9.99723 0.199058 0)
(10.0459 0.221699 0)
(10.0795 0.234542 0)
(10.0905 0.237793 0)
(10.077 0.237599 0)
(10.0428 0.239817 0)
(9.99569 0.248584 0)
(9.94465 0.26412 0)
(9.89633 0.283524 0)
(10.0468 0.0573896 0)
(9.97149 0.116993 0)
(9.96438 0.194149 0)
(9.96816 0.211936 0)
(9.98153 0.185502 0)
(9.98869 0.150574 0)
(9.99114 0.109218 0)
(10.0052 0.068778 0)
(10.0352 0.0478896 0)
(10.0733 0.055716 0)
(10.1094 0.0872432 0)
(10.135 0.132885 0)
(10.1434 0.183151 0)
(10.1311 0.232875 0)
(10.1002 0.277267 0)
(10.0558 0.314113 0)
(10.007 0.342387 0)
(9.95833 0.359114 0)
(9.88248 0.0126014 0)
(9.88478 0.0830516 0)
(9.88233 0.0389291 0)
(9.90545 0.0412498 0)
(9.971 0.0888787 0)
(10.0434 0.120739 0)
(10.0978 0.122527 0)
(10.1322 0.115628 0)
(10.1431 0.118986 0)
(10.1341 0.137013 0)
(10.118 0.167033 0)
(10.1058 0.205377 0)
(10.0993 0.247724 0)
(10.0954 0.291043 0)
(10.0919 0.331193 0)
(10.0862 0.364256 0)
(10.0809 0.387807 0)
(10.0726 0.397968 0)
(10.0724 0.133979 0)
(10.0937 0.183952 0)
(10.0324 0.224888 0)
(9.99096 0.183784 0)
(10.032 0.103596 0)
(10.0896 0.0284006 0)
(10.1172 -0.00432214 0)
(10.1177 0.00874768 0)
(10.1026 0.0453917 0)
(10.0804 0.0854426 0)
(10.0606 0.121541 0)
(10.0506 0.156103 0)
(10.0511 0.193546 0)
(10.0598 0.23545 0)
(10.0748 0.279299 0)
(10.0932 0.319101 0)
(10.1141 0.351087 0)
(10.1336 0.371242 0)
(9.74008 0.12813 0)
(9.83465 0.104176 0)
(9.88224 0.035687 0)
(9.95573 -0.0135786 0)
(10.0305 -0.018023 0)
(10.0423 0.0227486 0)
(9.99963 0.0908215 0)
(9.94288 0.152241 0)
(9.89844 0.1868 0)
(9.87477 0.199505 0)
(9.87082 0.205746 0)
(9.88222 0.216505 0)
(9.90478 0.234359 0)
(9.93426 0.256139 0)
(9.96907 0.278331 0)
(10.0069 0.298589 0)
(10.0467 0.316419 0)
(10.0851 0.334681 0)
(9.99619 -0.0686264 0)
(9.93741 0.0377607 0)
(9.93623 0.0627346 0)
(9.96816 0.0161543 0)
(9.98177 0.0135824 0)
(9.95946 0.0741438 0)
(9.93812 0.141099 0)
(9.95141 0.17054 0)
(9.99955 0.159429 0)
(10.0604 0.129002 0)
(10.113 0.100568 0)
(10.1468 0.0846821 0)
(10.1619 0.0827503 0)
(10.1642 0.0917409 0)
(10.1622 0.107934 0)
(10.1642 0.129772 0)
(10.1748 0.154185 0)
(10.1977 0.183603 0)
(10.057 0.182633 0)
(9.9307 0.105758 0)
(9.8902 -0.0165639 0)
(9.87273 -0.0447383 0)
(9.90951 0.016139 0)
(9.96046 0.0838663 0)
(10.0051 0.0924199 0)
(10.0372 0.0442236 0)
(10.0534 -0.00899241 0)
(10.0633 -0.019543 0)
(10.0781 0.0247637 0)
(10.1 0.104248 0)
(10.1225 0.18742 0)
(10.1394 0.248078 0)
(10.1462 0.272118 0)
(10.1448 0.263718 0)
(10.1374 0.232381 0)
(10.1303 0.197528 0)
(10.0035 0.0509605 0)
(10.0488 0.220763 0)
(10.0979 0.0793927 0)
(10.0966 -0.0480676 0)
(10.096 -0.0806259 0)
(10.1303 -0.0334364 0)
(10.1693 0.0409199 0)
(10.1834 0.0894174 0)
(10.1711 0.0935747 0)
(10.147 0.0670223 0)
(10.1313 0.0370874 0)
(10.1402 0.0266192 0)
(10.1778 0.0436933 0)
(10.2354 0.0826993 0)
(10.2977 0.128301 0)
(10.3506 0.167209 0)
(10.3875 0.191169 0)
(10.4047 0.19636 0)
(10.0657 -0.0046079 0)
(10.0981 0.104995 0)
(10.1219 0.00854972 0)
(10.0819 -0.053946 0)
(10.0145 -0.0443735 0)
(9.9773 -0.00705186 0)
(9.97958 0.0232625 0)
(10.0172 0.038875 0)
(10.0766 0.0426882 0)
(10.1315 0.0385238 0)
(10.1594 0.0312975 0)
(10.1571 0.0281381 0)
(10.1382 0.0353859 0)
(10.1207 0.0559409 0)
(10.1182 0.0862432 0)
(10.1357 0.119531 0)
(10.1712 0.149192 0)
(10.2184 0.169099 0)
(9.90217 -0.01264 0)
(10.003 0.0716996 0)
(10.0128 0.0672692 0)
(9.96587 0.0206049 0)
(9.91812 0.0140421 0)
(9.93107 0.019322 0)
(9.98253 0.00877362 0)
(10.0314 -0.0141521 0)
(10.0564 -0.0302526 0)
(10.056 -0.022806 0)
(10.0414 0.00879771 0)
(10.0286 0.0501532 0)
(10.0284 0.0836271 0)
(10.0446 0.098611 0)
(10.0748 0.093917 0)
(10.1152 0.0769346 0)
(10.1601 0.0550812 0)
(10.2064 0.0390575 0)
(9.88298 -0.123684 0)
(9.83869 0.0326506 0)
(9.91586 0.0714432 0)
(9.98262 0.0290161 0)
(10.0091 -0.0182309 0)
(10.0385 -0.0558222 0)
(10.0916 -0.0635031 0)
(10.1481 -0.0347336 0)
(10.1848 0.0113327 0)
(10.1936 0.0472113 0)
(10.1828 0.058558 0)
(10.1699 0.0492049 0)
(10.167 0.0312511 0)
(10.1759 0.0168566 0)
(10.1887 0.0121606 0)
(10.1975 0.0176398 0)
(10.1961 0.0301782 0)
(10.182 0.0439021 0)
(9.5873 0.143121 0)
(9.72736 -0.0182501 0)
(9.87925 -0.0422198 0)
(9.91839 -0.0184966 0)
(9.86688 -0.021151 0)
(9.82204 -0.0522519 0)
(9.82143 -0.0858612 0)
(9.85191 -0.0916393 0)
(9.89891 -0.0624822 0)
(9.95189 -0.0152795 0)
(10.002 0.028773 0)
(10.0456 0.056005 0)
(10.0837 0.0632745 0)
(10.1193 0.0591817 0)
(10.1569 0.0543644 0)
(10.1971 0.0546133 0)
(10.2399 0.0619839 0)
(10.2807 0.0720638 0)
(10.1919 -0.0916272 0)
(10.1408 -0.148168 0)
(10.1126 -0.0488948 0)
(10.1155 0.0353917 0)
(10.1094 0.0330812 0)
(10.0924 -0.023493 0)
(10.0716 -0.0738832 0)
(10.0502 -0.0832367 0)
(10.0317 -0.0596042 0)
(10.0218 -0.028438 0)
(10.0235 -0.00853204 0)
(10.0334 -0.00600906 0)
(10.0484 -0.0166745 0)
(10.0659 -0.0330126 0)
(10.0841 -0.0456562 0)
(10.1049 -0.048743 0)
(10.1295 -0.0403738 0)
(10.1585 -0.0223849 0)
(10.1849 0.0452575 0)
(9.98006 -0.00212089 0)
(9.8683 -0.0288839 0)
(9.88827 -0.00309387 0)
(9.95583 0.000560538 0)
(9.98059 -0.035783 0)
(9.96357 -0.0742518 0)
(9.95229 -0.0816639 0)
(9.9796 -0.0564962 0)
(10.0459 -0.0183579 0)
(10.1318 0.011968 0)
(10.2132 0.0255989 0)
(10.2696 0.0249687 0)
(10.2907 0.0158081 0)
(10.2776 0.00587439 0)
(10.2428 0.000787308 0)
(10.1989 0.00134897 0)
(10.1617 0.00634371 0)
(9.90201 -0.00679513 0)
(10.0616 -0.0187082 0)
(10.0741 -0.0113953 0)
(10.1348 -0.00871171 0)
(10.189 -0.0113912 0)
(10.1693 -0.0229718 0)
(10.104 -0.0485945 0)
(10.0462 -0.0772916 0)
(10.0203 -0.0957456 0)
(10.0251 -0.100272 0)
(10.0491 -0.0921565 0)
(10.0802 -0.0744498 0)
(10.1109 -0.051347 0)
(10.1376 -0.0255812 0)
(10.1604 -0.00172942 0)
(10.1803 0.0163135 0)
(10.1996 0.0256428 0)
(10.2227 0.026467 0)
(10.0326 -0.0924359 0)
(10.0677 -0.0730135 0)
(10.0851 -0.0545177 0)
(10.1189 -0.0359098 0)
(10.1556 -0.0139894 0)
(10.1908 -0.010806 0)
(10.2206 -0.0322554 0)
(10.2347 -0.0560434 0)
(10.2319 -0.0635696 0)
(10.2228 -0.0551604 0)
(10.214 -0.041346 0)
(10.2033 -0.0309057 0)
(10.1871 -0.0262185 0)
(10.1682 -0.0246522 0)
(10.1559 -0.0236963 0)
(10.1585 -0.0227421 0)
(10.1791 -0.0225884 0)
(10.218 -0.0253152 0)
(9.88108 -0.0112167 0)
(9.67941 -0.0539683 0)
(9.48235 -0.0375004 0)
(9.35188 -0.0307371 0)
(9.27219 -0.0333091 0)
(9.19471 -0.0414802 0)
(9.08026 -0.0529426 0)
(8.9173 -0.0661839 0)
(8.72114 -0.0769297 0)
(8.5247 -0.0784872 0)
(8.35881 -0.0671239 0)
(8.2388 -0.0457367 0)
(8.16247 -0.0219846 0)
(8.11997 -0.00403122 0)
(8.0959 0.00300344 0)
(8.07696 -0.000963161 0)
(8.04977 -0.0134914 0)
(8.00663 -0.0289792 0)
(-0.33784 0.578042 -1.85756e-20)
(-0.694616 0.179525 1.84576e-20)
(-1.05369 0.0433878 0)
(-1.03616 -0.271029 0)
(-0.716376 -0.587029 0)
(-0.144842 -0.787095 -1.77596e-20)
(0.543073 -0.848712 0)
(1.26302 -0.840103 0)
(1.95915 -0.781295 0)
(2.60702 -0.694346 0)
(3.18394 -0.595345 1.72732e-20)
(3.68252 -0.497241 0)
(4.10524 -0.404877 0)
(4.45624 -0.321181 0)
(4.74278 -0.244663 0)
(4.96707 -0.175848 1.73948e-20)
(5.13827 -0.111577 0)
(5.25186 -0.0512891 0)
(5.32099 0.00654465 0)
(5.3307 0.0675945 0)
(5.29768 0.125196 0)
(5.18729 0.202468 0)
(5.03408 0.260987 0)
(4.79219 0.376132 1.66018e-20)
(4.47512 0.430847 -1.64164e-20)
(4.09971 0.605601 1.62204e-20)
(3.50133 0.681434 1.60347e-20)
(3.02323 0.796631 0)
(2.01017 1.26347 0)
(1.11357 0.349981 -1.57331e-20)
(0.656302 -0.403581 -1.57164e-20)
(0.246899 -0.135118 0)
(0.108572 -0.0218584 0)
(0.24102 -0.176429 -1.55566e-20)
(0.669083 -0.479641 0)
(1.3756 -0.616211 0)
(2.12087 -0.438064 1.52846e-20)
(2.66399 -0.284153 0)
(3.04028 -0.139573 1.53816e-20)
(3.34612 0.0924011 3.08449e-20)
(3.38796 0.0791229 0)
(3.25641 -0.299319 0)
(3.25054 -0.517527 0)
(3.25171 -0.228514 0)
(3.12247 0.151784 0)
(3.00125 0.223036 3.15399e-20)
(3.00146 0.103677 3.18186e-20)
(3.10077 -0.0142463 3.21335e-20)
(3.27029 -0.0873277 0)
(3.4795 -0.12425 -3.2807e-20)
(3.70097 -0.13443 0)
(3.9109 -0.125763 3.34229e-20)
(4.08994 -0.103192 3.36591e-20)
(4.22219 -0.0681649 0)
(4.29154 -0.0194984 0)
(4.27976 0.0440938 0)
(4.16286 0.119841 3.35318e-20)
(3.9271 0.203029 0)
(3.56483 0.288587 0)
(3.07619 0.37035 0)
(2.46727 0.439663 0)
(1.75808 0.482373 0)
(0.98775 0.486929 0)
(0.214418 0.445898 0)
(-0.496173 0.384966 0)
(-1.10803 0.3152 -2.77282e-20)
(-1.58852 0.30528 0)
(-1.82521 0.205404 0)
(-1.88666 -0.461706 2.69627e-20)
(-2.31558 -1.29674 2.70753e-20)
(-3.39387 -0.53158 0)
(-5.73942 2.09825 -2.53021e-20)
(-9.39135 2.53362 2.51195e-20)
(-11.9746 1.22544 0)
(-13.4141 1.18106 -2.72645e-20)
(-14.9997 0.933658 0)
(-16.0007 0.540538 0)
(-16.7176 0.497011 2.97593e-20)
(-17.3195 0.275077 0)
(-17.5956 0.164898 -3.00821e-20)
(-17.7808 0.087997 0)
(-17.7862 -0.0242379 2.93477e-20)
(-17.6662 -0.0627088 2.86665e-20)
(-17.4741 -0.124093 2.78208e-20)
(-17.1648 -0.172218 5.36908e-20)
(-16.7993 -0.20002 -5.15529e-20)
(-16.3601 -0.238846 0)
(-15.8613 -0.261322 0)
(-15.3232 -0.280437 0)
(-14.7386 -0.299553 -4.21929e-20)
(-14.1246 -0.309308 -3.98821e-20)
(-13.4874 -0.318065 3.76491e-20)
(-12.8281 -0.324588 0)
(-12.1563 -0.32645 -3.34869e-20)
(-11.4757 -0.327469 -3.15824e-20)
(-10.788 -0.327059 -2.98019e-20)
(-10.0979 -0.324286 0)
(-9.40831 -0.320668 0)
(-8.72044 -0.316332 0)
(-8.03672 -0.310684 -2.39341e-20)
(-7.35955 -0.304011 0)
(-6.69086 -0.296497 0)
(-6.03306 -0.287766 2.07873e-20)
(-5.38911 -0.277553 0)
(-4.76191 -0.266023 0)
(-4.1538 -0.253619 1.86089e-20)
(-3.56611 -0.240991 0)
(-2.99888 -0.228895 0)
(-2.45101 -0.217643 -1.71848e-20)
(-1.92043 -0.207393 -1.68223e-20)
(-1.40489 -0.197951 0)
(-0.904393 -0.188496 1.62128e-20)
(-0.422707 -0.1775 0)
(0.0357397 -0.163787 -1.57299e-20)
(0.461812 -0.150188 0)
(0.84395 -0.131317 -1.53545e-20)
(1.17386 -0.109393 -1.52173e-20)
(1.44346 -0.0862654 0)
(1.65158 -0.0639975 0)
(1.8026 -0.0439476 0)
(1.9051 -0.0269341 0)
(1.96949 -0.0138143 0)
(2.00596 -0.00416257 0)
(2.02394 0.00207368 0)
(2.031 0.00483485 -1.45474e-20)
(2.033 0.00532236 1.44455e-20)
(2.03475 0.00454627 0)
(2.03976 0.00312143 0)
(2.05028 0.00113731 0)
(2.06774 -0.00126613 0)
(2.093 -0.00382747 2.75956e-20)
(2.12645 -0.00631521 0)
(2.16805 -0.00861709 -2.69692e-20)
(2.21728 -0.0106478 2.66399e-20)
(2.27316 -0.0123234 0)
(2.33449 -0.0135753 0)
(2.40008 -0.0143019 0)
(2.46876 -0.0143093 -2.52808e-20)
(2.53846 -0.0132081 -2.49452e-20)
(2.60527 -0.0107044 0)
(2.66349 -0.00715355 -2.43016e-20)
(2.70787 -0.00351521 -2.39998e-20)
(2.73726 -0.00161567 2.37091e-20)
(2.75762 -0.00357629 0)
(2.78161 -0.00906847 0)
(2.82196 -0.0168414 2.27824e-20)
(2.88777 -0.0267361 0)
(2.98351 -0.0346137 0)
(3.10113 -0.0386637 0)
(3.23053 -0.0437425 0)
(3.37319 -0.04495 -2.07598e-20)
(3.51383 -0.0421678 -2.03076e-20)
(3.65214 -0.0526301 0)
(3.82841 -0.0619097 -1.92485e-20)
(4.03659 -0.0667896 0)
(4.30862 -0.112247 0)
(4.74793 -0.147781 -1.68302e-20)
(5.28534 -0.136694 0)
(5.86629 -0.195166 -1.50155e-20)
(6.64077 -0.212073 0)
(7.34971 -0.111795 0)
(7.85892 -0.179078 -1.3686e-20)
(8.59923 -0.13259 0)
(8.84614 0.0835983 -1.33131e-20)
(8.70162 -0.0458865 0)
(9.02573 0.246875 0)
(7.6044 0.871718 0)
(4.67453 0.499478 1.13415e-20)
(3.00384 -0.0653788 0)
(2.41966 -0.135659 -1.22716e-20)
(2.30773 -0.0507843 0)
(2.12305 0.0627709 0)
(1.52014 0.201185 0)
(0.450305 0.288873 0)
(-0.949315 0.307029 0)
(-2.20539 0.251513 0)
(-2.91106 0.128103 0)
(-3.05752 0.00222615 4.59143e-20)
(-2.76785 -0.116087 0)
(-2.21213 -0.202052 0)
(0.0589665 1.39711 5.58336e-20)
(0.0659955 1.11939 -5.55263e-20)
(-0.0876992 0.730906 0)
(0.333309 -0.399562 3.66258e-20)
(0.878263 -1.37347 0)
(1.52297 -1.96049 1.76628e-20)
(2.12378 -2.19579 -3.54069e-20)
(2.66626 -2.19206 -3.51844e-20)
(3.15458 -2.04568 0)
(3.58466 -1.83105 -3.50545e-20)
(3.95623 -1.59479 -1.72135e-20)
(4.27389 -1.36299 0)
(4.54441 -1.14666 0)
(4.77258 -0.949297 0)
(4.96282 -0.769528 0)
(5.11633 -0.604951 -1.73804e-20)
(5.23639 -0.452199 0)
(5.32214 -0.306779 3.49709e-20)
(5.37695 -0.168737 0)
(5.4 -0.0284293 0)
(5.39812 0.104912 -3.44154e-20)
(5.37082 0.254754 0)
(5.30676 0.396657 3.38418e-20)
(5.2294 0.580089 -1.6574e-20)
(5.08804 0.754522 1.63781e-20)
(4.9677 0.980854 -1.61689e-20)
(4.70158 1.23017 -1.59677e-20)
(4.53335 1.43177 0)
(4.07625 1.79883 0)
(3.78226 1.87665 1.5611e-20)
(3.18427 1.78848 -1.57338e-20)
(2.09165 1.15871 0)
(1.46781 0.0162754 0)
(1.09936 -0.739938 1.55235e-20)
(1.19475 -1.52037 0)
(1.5369 -2.03061 0)
(2.02778 -1.70595 -1.52691e-20)
(2.36549 -1.25833 0)
(2.3541 -1.0016 1.54235e-20)
(2.3024 -0.534914 -3.09155e-20)
(2.20045 0.0847629 0)
(1.8993 0.46776 0)
(1.60526 0.529948 -6.18994e-20)
(1.4775 0.384825 -6.22582e-20)
(1.52154 0.184063 -6.26643e-20)
(1.67901 -0.0373161 3.15e-20)
(1.90272 -0.225164 -3.18893e-20)
(2.14413 -0.35687 -9.66012e-20)
(2.38349 -0.44001 6.51535e-20)
(2.62225 -0.477295 3.28547e-20)
(2.84801 -0.472126 0)
(3.04864 -0.427624 -3.34733e-20)
(3.21341 -0.345925 3.4193e-20)
(3.32945 -0.227183 0)
(3.38177 -0.0715328 0)
(3.35285 0.120119 0)
(3.23169 0.34066 -3.3581e-20)
(3.00408 0.578659 0)
(2.6626 0.81847 6.60296e-20)
(2.2079 1.04346 0)
(1.64514 1.24039 6.29016e-20)
(0.981794 1.38197 0)
(0.211548 1.46071 -5.94836e-20)
(-0.630754 1.4441 0)
(-1.47243 1.32914 5.64839e-20)
(-2.20742 1.11804 -2.78078e-20)
(-2.79694 0.66029 0)
(-3.52412 0.102022 -5.44249e-20)
(-5.18712 0.944296 -2.67143e-20)
(-8.87067 3.61874 -2.6688e-20)
(-11.8591 4.72063 0)
(-12.7114 4.45842 -2.90271e-20)
(-14.0434 3.90034 -2.48255e-20)
(-15.1109 2.84629 0)
(-15.6072 2.35651 2.71053e-20)
(-16.2444 1.79092 -5.91516e-20)
(-16.5851 1.25852 0)
(-16.8827 0.955059 -2.97278e-20)
(-17.0607 0.582097 0)
(-17.1322 0.317438 9.13947e-20)
(-17.1445 0.0939948 0)
(-17.036 -0.127943 -8.88574e-20)
(-16.8782 -0.282811 -2.86956e-20)
(-16.6082 -0.435237 2.83544e-20)
(-16.2689 -0.563718 5.45996e-20)
(-15.8699 -0.661926 -5.23508e-20)
(-15.4008 -0.755481 0)
(-14.8899 -0.826321 0)
(-14.3356 -0.882579 0)
(-13.745 -0.930098 1.27179e-19)
(-13.1302 -0.962339 3.99053e-20)
(-12.4936 -0.985557 -3.76697e-20)
(-11.8415 -1.00131 0)
(-11.1799 -1.00832 -3.39538e-20)
(-10.5117 -1.00992 3.15966e-20)
(-9.84045 -1.0072 2.98144e-20)
(-9.16918 -0.999958 0)
(-8.49997 -0.989494 0)
(-7.83495 -0.976503 0)
(-7.17602 -0.960822 2.39415e-20)
(-6.5249 -0.942591 0)
(-5.8836 -0.921797 -4.38146e-20)
(-5.25456 -0.897855 -6.27131e-20)
(-4.64059 -0.870175 4.02439e-20)
(-4.04447 -0.838874 0)
(-3.46847 -0.804982 1.889e-20)
(-2.91355 -0.770404 0)
(-2.37845 -0.737542 3.54552e-20)
(-1.86063 -0.707078 -1.74378e-20)
(-1.35681 -0.679255 -1.70658e-20)
(-0.861501 -0.652409 0)
(-0.371328 -0.623232 -4.88561e-20)
(0.111539 -0.588379 3.2096e-20)
(0.585651 -0.548759 1.57139e-20)
(1.04047 -0.499415 0)
(1.46238 -0.435309 1.53355e-20)
(1.83366 -0.360693 4.56782e-20)
(2.13866 -0.282655 0)
(2.37042 -0.208992 3.00545e-20)
(2.5322 -0.14572 2.98949e-20)
(2.63474 -0.095797 2.97479e-20)
(2.69251 -0.0593694 0)
(2.71953 -0.0347434 0)
(2.72756 -0.019581 0)
(2.72613 -0.0113633 -1.45539e-20)
(2.72182 -0.00845628 -1.44343e-20)
(2.71884 -0.0096619 0)
(2.71994 -0.0142081 -2.84184e-20)
(2.72689 -0.0212089 -2.81582e-20)
(2.74097 -0.0295257 0)
(2.7628 -0.038371 -2.75752e-20)
(2.79235 -0.0472732 -5.45547e-20)
(2.82916 -0.0557405 2.69493e-20)
(2.87234 -0.0632142 2.66337e-20)
(2.9207 -0.0692117 0)
(2.97318 -0.0735728 0)
(3.02946 -0.0765252 0)
(3.09008 -0.0780494 2.52634e-20)
(3.15531 -0.0770284 -2.4929e-20)
(3.22313 -0.0713347 -4.92003e-20)
(3.28797 -0.0595356 2.42856e-20)
(3.34148 -0.0435241 -2.39847e-20)
(3.37845 -0.0288781 -2.36941e-20)
(3.40176 -0.0226557 0)
(3.42165 -0.0297974 0)
(3.45558 -0.0487188 2.2799e-20)
(3.5173 -0.073447 0)
(3.60803 -0.097302 0)
(3.72613 -0.112384 -4.32177e-20)
(3.86047 -0.11941 0)
(3.99815 -0.123501 -2.07893e-20)
(4.13969 -0.121014 2.02937e-20)
(4.28252 -0.125851 0)
(4.42834 -0.155338 -1.93601e-20)
(4.61847 -0.202618 0)
(4.90341 -0.285334 0)
(5.28207 -0.404422 1.68153e-20)
(5.7994 -0.487838 -3.18664e-20)
(6.47944 -0.544476 1.49993e-20)
(7.1633 -0.602592 0)
(7.89125 -0.54167 0)
(8.6413 -0.455677 -1.38556e-20)
(9.14761 -0.411672 0)
(9.64186 -0.13942 -1.36473e-20)
(9.88575 0.067497 0)
(9.88573 0.250165 0)
(9.85025 1.04233 0)
(9.3781 1.70365 -1.12852e-20)
(7.73532 1.32512 0)
(5.38214 0.506242 1.2229e-20)
(3.95056 0.187533 0)
(3.15255 0.333525 0)
(2.25132 0.62322 -2.48957e-20)
(1.0622 0.84623 2.84255e-20)
(-0.341672 0.888559 0)
(-1.54594 0.707904 0)
(-2.16439 0.316102 0)
(-2.21536 -0.0539884 -1.39648e-19)
(-1.80966 -0.29737 0)
(-1.29807 -0.387451 7.90039e-20)
(0.0821231 0.578181 -1.03066e-22)
(0.179071 0.766991 7.38754e-20)
(0.805859 -0.407945 0)
(1.60966 -1.85938 -7.28036e-20)
(2.26765 -2.83034 0)
(2.70706 -3.24224 0)
(2.98664 -3.23309 -5.58755e-22)
(3.17828 -2.9831 3.50926e-20)
(3.32608 -2.63266 3.5698e-20)
(3.45678 -2.26742 3.50412e-20)
(3.58459 -1.92696 0)
(3.71472 -1.62328 0)
(3.84642 -1.35403 -3.56714e-20)
(3.97396 -1.11302 -7.13137e-20)
(4.09152 -0.893423 7.12507e-20)
(4.19221 -0.690391 0)
(4.27337 -0.499745 7.09692e-20)
(4.32865 -0.317788 -3.50616e-20)
(4.35903 -0.14399 0)
(4.36022 0.0277911 7.00406e-20)
(4.33394 0.194724 3.45064e-20)
(4.29713 0.371988 -6.90028e-20)
(4.23979 0.544913 -3.39209e-20)
(4.18982 0.746983 0)
(4.11512 0.958923 6.70678e-20)
(4.08943 1.21619 6.63563e-20)
(4.02217 1.5162 0)
(4.04147 1.80717 6.48748e-20)
(3.94337 2.14977 0)
(3.91866 2.35374 6.33517e-20)
(3.75981 2.49765 3.1237e-20)
(3.3307 2.26671 0)
(2.91926 1.64007 0)
(2.24603 0.593107 0)
(1.88229 -1.065 0)
(1.53213 -1.99811 0)
(1.1623 -1.54571 0)
(0.763806 -0.494042 6.09467e-20)
(0.311629 0.124373 -9.22218e-20)
(-0.0131133 0.414135 0)
(-0.136271 0.508509 0)
(-0.0722059 0.430794 0)
(0.0758506 0.245372 3.55285e-22)
(0.268637 0.0194579 6.24557e-20)
(0.499921 -0.191518 1.25371e-19)
(0.767608 -0.403909 -1.26373e-19)
(1.0501 -0.595761 -6.38308e-20)
(1.33066 -0.738224 6.44917e-20)
(1.5896 -0.81471 2.30608e-22)
(1.82069 -0.823862 6.63259e-20)
(2.01494 -0.774004 0)
(2.17034 -0.67038 6.79726e-20)
(2.28607 -0.518605 6.72654e-22)
(2.35753 -0.316572 0)
(2.37313 -0.0604355 0)
(2.31017 0.256009 -6.97582e-20)
(2.14278 0.620842 0)
(1.8512 1.0164 0)
(1.42773 1.41282 6.87695e-20)
(0.880542 1.77417 1.31875e-19)
(0.215126 2.08983 -6.30132e-20)
(-0.519463 2.34105 0)
(-1.30323 2.48725 5.92983e-20)
(-2.15331 2.50876 0)
(-3.02128 2.32728 5.80419e-20)
(-3.85381 1.88095 5.51711e-20)
(-5.18176 1.98305 -1.109e-19)
(-7.97469 3.68379 -5.7e-20)
(-10.7917 5.33755 0)
(-12.4807 5.8169 1.12053e-19)
(-13.6704 5.79885 0)
(-13.8717 5.25776 1.69391e-19)
(-14.1197 4.40619 1.17264e-19)
(-14.4739 3.45185 1.19885e-19)
(-14.6826 2.81866 -1.21974e-19)
(-14.9987 2.12809 1.83264e-19)
(-15.2516 1.55867 0)
(-15.4537 1.13731 0)
(-15.565 0.670889 -1.26371e-19)
(-15.5962 0.330839 -1.869e-19)
(-15.5274 0.00444103 0)
(-15.3675 -0.300921 5.96234e-20)
(-15.1424 -0.541581 0)
(-14.8303 -0.777036 -1.70331e-19)
(-14.4586 -0.967488 1.16959e-21)
(-14.0331 -1.12647 -1.03678e-21)
(-13.5549 -1.26784 1.00453e-19)
(-13.0382 -1.37601 0)
(-12.4868 -1.46441 -9.0711e-20)
(-11.9075 -1.53387 7.7029e-22)
(-11.3079 -1.5817 0)
(-10.6925 -1.61498 0)
(-10.0672 -1.63465 0)
(-9.43595 -1.6417 6.75649e-20)
(-8.80205 -1.63994 0)
(-8.16863 -1.63079 0)
(-7.53786 -1.61506 0)
(-6.91157 -1.59422 0)
(-6.29162 -1.56903 0)
(-5.6797 -1.53968 4.89683e-20)
(-5.07728 -1.5064 0)
(-4.48623 -1.46904 4.38625e-20)
(-3.90938 -1.42683 4.19642e-20)
(-3.35057 -1.37899 -4.02831e-20)
(-2.81405 -1.3258 0)
(-2.30384 -1.26909 -3.75344e-20)
(-1.823 -1.21243 0)
(-1.37034 -1.16206 -3.54799e-20)
(-0.941939 -1.11843 3.46457e-20)
(-0.534152 -1.08434 1.0247e-19)
(-0.13769 -1.05503 0)
(0.253279 -1.02642 9.85498e-20)
(0.644345 -0.992352 3.26764e-20)
(1.04477 -0.949243 0)
(1.45446 -0.88175 6.27162e-20)
(1.86772 -0.784136 6.19018e-20)
(2.26758 -0.659039 -9.16782e-20)
(2.62963 -0.517993 0)
(2.93061 -0.377615 -3.00245e-20)
(3.15717 -0.253077 -2.98656e-20)
(3.30975 -0.153331 -8.92987e-20)
(3.39965 -0.0805579 0)
(3.44283 -0.0325438 0)
(3.45504 -0.00504088 0)
(3.4488 0.00706862 -2.91301e-20)
(3.43313 0.00863286 0)
(3.41482 0.00347222 0)
(3.39866 -0.00601921 2.83954e-20)
(3.38805 -0.0178185 2.81363e-20)
(3.38485 -0.0305228 0)
(3.38999 -0.0434372 0)
(3.40409 -0.055619 5.45148e-20)
(3.4269 -0.066327 0)
(3.45609 -0.0752073 -5.32168e-20)
(3.48716 -0.0824697 -5.25582e-20)
(3.51488 -0.0888587 0)
(3.53612 -0.0952441 0)
(3.55177 -0.101464 5.05039e-20)
(3.56568 -0.105084 1.84245e-24)
(3.5807 -0.101636 4.77276e-24)
(3.59488 -0.0872921 0)
(3.60177 -0.0635751 9.59093e-20)
(3.59503 -0.0397721 0)
(3.57677 -0.0288157 0)
(3.56137 -0.0404298 0)
(3.56948 -0.0740588 -4.55596e-20)
(3.61929 -0.119054 0)
(3.71517 -0.16143 8.81451e-20)
(3.84602 -0.189377 4.32067e-20)
(3.99908 -0.202952 0)
(4.16145 -0.208441 4.15221e-20)
(4.31976 -0.204618 0)
(4.47327 -0.212401 0)
(4.62689 -0.253486 1.16155e-19)
(4.79543 -0.332522 -7.49974e-20)
(5.03205 -0.47806 0)
(5.39538 -0.661679 -6.81092e-20)
(5.88908 -0.811364 3.18463e-20)
(6.53218 -0.935568 0)
(7.29985 -0.996797 0)
(8.00802 -0.92824 0)
(8.75834 -0.81311 8.3175e-20)
(9.41632 -0.665894 0)
(9.77124 -0.338673 2.69348e-20)
(10.2439 -0.0129218 0)
(10.3 0.295234 0)
(10.0519 0.98211 0)
(10.3635 1.80132 0)
(10.0925 2.08004 0)
(8.32079 1.67879 0)
(6.04229 1.03789 4.77969e-20)
(4.41785 0.87579 0)
(3.22656 1.1738 2.48498e-20)
(1.84434 1.50391 -8.56337e-20)
(0.184027 1.5448 0)
(-1.27329 1.19973 0)
(-2.03933 0.512079 9.66136e-20)
(-2.0814 -0.14285 9.36995e-20)
(-1.5596 -0.541631 -8.92815e-20)
(-1.01961 -0.634524 -7.89894e-20)
(-0.183279 0.669633 -1.11336e-19)
(0.537467 -0.691577 -1.10477e-19)
(1.46426 -2.42415 -7.31457e-20)
(2.14448 -3.45799 -3.6616e-20)
(2.49126 -3.76992 0)
(2.59017 -3.59671 7.26785e-20)
(2.58029 -3.2118 -3.67587e-20)
(2.56978 -2.80567 0)
(2.60909 -2.45845 -3.57673e-20)
(2.70651 -2.17837 0)
(2.84799 -1.94257 7.23935e-20)
(3.01381 -1.72582 0)
(3.18575 -1.51128 3.57242e-20)
(3.34807 -1.2922 7.14142e-20)
(3.48919 -1.06778 -7.13502e-20)
(3.60057 -0.839904 0)
(3.6784 -0.609858 -7.1076e-20)
(3.7225 -0.38064 0)
(3.7326 -0.157614 0)
(3.71682 0.0588721 -7.01191e-20)
(3.67669 0.271201 0)
(3.60692 0.487598 -5.0992e-22)
(3.50283 0.692691 0)
(3.38837 0.89241 0)
(3.26389 1.07372 4.15228e-22)
(3.18405 1.26915 -6.6477e-20)
(3.11657 1.50028 -6.61192e-20)
(3.13356 1.76861 -6.49711e-20)
(3.12492 2.10222 0)
(3.16768 2.38093 -1.27061e-19)
(3.16408 2.66497 0)
(3.02839 2.67044 -6.1667e-20)
(2.70391 2.23455 0)
(2.17866 1.12694 0)
(1.8601 -0.472131 5.96579e-20)
(1.12288 -0.84041 0)
(0.231137 -0.318854 -5.99103e-20)
(-0.316688 0.0641137 -8.34756e-22)
(-0.629478 0.257108 1.21565e-19)
(-0.799313 0.345736 -1.21087e-19)
(-0.856177 0.340275 0)
(-0.805821 0.217969 0)
(-0.6715 -0.0123969 -6.096e-20)
(-0.474544 -0.294803 0)
(-0.224051 -0.586311 -6.25613e-20)
(0.0516029 -0.845824 6.31811e-20)
(0.32335 -1.03628 6.38952e-20)
(0.558311 -1.13709 0)
(0.745492 -1.14804 -6.55586e-20)
(0.882071 -1.08489 -6.64394e-20)
(0.978001 -0.968482 1.35471e-19)
(1.05076 -0.811194 -6.81203e-20)
(1.1125 -0.611624 -6.8853e-20)
(1.16344 -0.353224 0)
(1.18638 -0.00970884 0)
(1.13499 0.435108 6.99169e-20)
(0.964333 0.963071 0)
(0.642151 1.5361 0)
(0.148162 2.10226 -1.35112e-19)
(-0.492139 2.6022 -1.31809e-19)
(-1.25698 3.00263 0)
(-2.11976 3.33936 0)
(-3.05443 3.61361 0)
(-3.99459 3.64986 0)
(-4.97228 3.45434 -1.13594e-19)
(-6.54952 3.87103 1.15402e-19)
(-8.98416 5.33273 1.0978e-19)
(-11.2638 6.64774 2.24968e-19)
(-12.5542 6.97749 0)
(-12.9695 6.54653 6.87362e-21)
(-13.2039 6.01215 0)
(-13.1912 5.37624 -1.15709e-19)
(-13.2268 4.54262 7.05759e-21)
(-13.4303 3.74725 -1.20023e-19)
(-13.5402 3.0943 1.22151e-19)
(-13.6789 2.37844 5.18581e-21)
(-13.8133 1.77153 0)
(-13.8695 1.2424 1.30428e-19)
(-13.8599 0.696827 1.26726e-19)
(-13.7872 0.254497 2.54301e-19)
(-13.6305 -0.164584 0)
(-13.4082 -0.554209 -1.23291e-19)
(-13.1256 -0.872903 0)
(-12.7809 -1.16591 2.30016e-19)
(-12.388 -1.41506 -1.10037e-19)
(-11.952 -1.61984 1.05475e-19)
(-11.4781 -1.79612 -1.007e-19)
(-10.9728 -1.93805 -1.93611e-19)
(-10.4404 -2.04906 9.09179e-20)
(-9.88783 -2.13433 -8.60771e-20)
(-9.32018 -2.19438 0)
(-8.74207 -2.23252 1.55456e-19)
(-8.15834 -2.2525 0)
(-7.57248 -2.25721 1.3862e-19)
(-6.98737 -2.24967 -1.30932e-19)
(-6.40504 -2.23261 -1.23735e-19)
(-5.82685 -2.20778 1.17025e-19)
(-5.25437 -2.17624 1.10796e-19)
(-4.68857 -2.13889 0)
(-4.13052 -2.0961 5.07144e-20)
(-3.58082 -2.04789 0)
(-3.04013 -1.99352 0)
(-2.50979 -1.93133 8.65793e-20)
(-1.99316 -1.85895 0)
(-1.49465 -1.77521 0)
(-1.01955 -1.68202 7.72391e-20)