/*--------------------------------*- C++ -*----------------------------------*\
  =========                 |
  \\      /  F ield         | OpenFOAM: The Open Source CFD Toolbox
   \\    /   O peration     | Website:  https://openfoam.org
    \\  /    A nd           | Version:  9
     \\/     M anipulation  |
\*---------------------------------------------------------------------------*/
FoamFile
{
    format      ascii;
    class       volScalarField;
    location    "0.27";
    object      kU;
}
// * * * * * * * * * * * * * * * * * * * * * * * * * * * * * * * * * * * * * //

dimensions      [0 2 -2 0 0 0 0];

internalField   nonuniform List<scalar> 
12225
(
0.15723
0.132057
0.113085
0.0993397
0.0901177
0.0848425
0.0829914
0.0840449
0.0874776
0.092774
0.0994507
0.107081
0.115313
0.12389
0.132659
0.14159
0.150852
0.163893
0.180997
0.175075
0.173665
0.178535
0.189844
0.207049
0.229178
0.254976
0.283097
0.312286
0.341518
0.370062
0.39752
0.423824
0.449259
0.474458
0.500776
0.529605
0.184249
0.181318
0.178549
0.176537
0.175861
0.176751
0.179214
0.183131
0.188299
0.194474
0.201427
0.208975
0.217025
0.2256
0.234885
0.245305
0.257673
0.273392
0.184875
0.182076
0.179366
0.176872
0.174769
0.173157
0.172047
0.171398
0.171142
0.171205
0.171518
0.172031
0.172726
0.173625
0.174802
0.176422
0.17878
0.182363
0.185144
0.182626
0.180135
0.177727
0.175463
0.173392
0.171534
0.169886
0.168428
0.167131
0.165967
0.164909
0.16394
0.163054
0.162261
0.161594
0.161119
0.160948
0.185257
0.18293
0.180641
0.178407
0.176251
0.174196
0.172257
0.170439
0.168737
0.167144
0.165647
0.164235
0.162899
0.161632
0.160432
0.159304
0.158258
0.157315
0.185301
0.183071
0.180913
0.178821
0.1768
0.174855
0.172992
0.171214
0.169521
0.167912
0.166382
0.164928
0.163546
0.162234
0.160991
0.15982
0.158725
0.15771
0.185315
0.183129
0.181041
0.179039
0.177117
0.175272
0.173502
0.171807
0.170184
0.168635
0.167156
0.165746
0.164406
0.163136
0.161938
0.160814
0.15977
0.158812
0.185318
0.183149
0.181093
0.179138
0.177275
0.175498
0.173799
0.172175
0.170623
0.169141
0.167727
0.16638
0.165101
0.163891
0.162753
0.16169
0.160709
0.159818
0.185319
0.183154
0.18111
0.179177
0.177344
0.175603
0.173948
0.172372
0.170871
0.169442
0.168082
0.166789
0.165565
0.164409
0.163325
0.162316
0.161387
0.16055
0.185318
0.183155
0.181115
0.179189
0.177369
0.175646
0.174013
0.172464
0.170993
0.169598
0.168273
0.167019
0.165834
0.164718
0.163673
0.162703
0.161811
0.161007
0.185318
0.183155
0.181116
0.179192
0.177376
0.17566
0.174036
0.172499
0.171042
0.169663
0.168358
0.167124
0.16596
0.164866
0.163844
0.162894
0.16202
0.161231
0.185317
0.183154
0.181115
0.179193
0.177378
0.175665
0.174045
0.172513
0.171065
0.169694
0.168399
0.167177
0.166025
0.164944
0.163933
0.162993
0.162126
0.161341
0.185317
0.183153
0.181114
0.179192
0.177379
0.175666
0.174049
0.17252
0.171075
0.169709
0.16842
0.167203
0.166057
0.164982
0.163975
0.163037
0.16217
0.16138
0.185316
0.183152
0.181114
0.179192
0.177379
0.175667
0.174051
0.172524
0.171081
0.169718
0.168431
0.167217
0.166074
0.164999
0.163991
0.16305
0.162175
0.161374
0.185316
0.183151
0.181113
0.179191
0.177378
0.175668
0.174053
0.172527
0.171086
0.169725
0.16844
0.167227
0.166084
0.165008
0.163997
0.16305
0.162165
0.16135
0.185315
0.183151
0.181112
0.17919
0.177378
0.175669
0.174055
0.172531
0.171091
0.169732
0.168448
0.167236
0.166093
0.165015
0.164
0.163046
0.162151
0.161322
0.185315
0.18315
0.181111
0.17919
0.177378
0.17567
0.174057
0.172535
0.171097
0.169739
0.168457
0.167245
0.166101
0.165021
0.164002
0.163041
0.162136
0.161294
0.185314
0.183149
0.18111
0.179189
0.177379
0.175672
0.174061
0.17254
0.171104
0.169747
0.168466
0.167254
0.166109
0.165026
0.164003
0.163035
0.162121
0.161268
0.185314
0.183148
0.18111
0.17919
0.177381
0.175675
0.174065
0.172546
0.171111
0.169756
0.168474
0.167262
0.166116
0.165031
0.164004
0.163031
0.162111
0.16125
0.185314
0.183148
0.18111
0.179191
0.177383
0.175679
0.174071
0.172553
0.171119
0.169763
0.168482
0.167269
0.166121
0.165034
0.164004
0.163027
0.162102
0.161234
0.185314
0.183148
0.181111
0.179194
0.177387
0.175683
0.174075
0.172557
0.171122
0.169766
0.168482
0.167266
0.166114
0.165022
0.163986
0.163002
0.162069
0.161193
0.185314
0.183149
0.181113
0.179195
0.177386
0.17568
0.174067
0.172542
0.171098
0.169731
0.168434
0.167203
0.166035
0.164925
0.163871
0.162867
0.161913
0.161017
0.185314
0.183148
0.181107
0.17918
0.177356
0.175629
0.173991
0.172436
0.170959
0.169554
0.168218
0.166946
0.165737
0.164585
0.163488
0.162444
0.16145
0.160514
0.18531
0.183131
0.181064
0.179094
0.177212
0.175413
0.173695
0.172055
0.170492
0.169003
0.167587
0.166242
0.164964
0.163751
0.162599
0.161507
0.160471
0.159499
0.185287
0.183046
0.180882
0.178789
0.176764
0.174814
0.172949
0.171175
0.169497
0.167917
0.166435
0.165048
0.163751
0.16254
0.161409
0.160351
0.159363
0.158447
0.185187
0.182762
0.180346
0.177956
0.175646
0.173473
0.171468
0.169646
0.168011
0.166559
0.165281
0.164164
0.163194
0.162355
0.161632
0.161011
0.160477
0.160025
0.184849
0.182103
0.179169
0.176275
0.173711
0.171613
0.170017
0.168921
0.168303
0.168132
0.168366
0.168958
0.169859
0.17102
0.172393
0.173938
0.175616
0.177389
0.182899
0.177329
0.172682
0.169998
0.169491
0.171073
0.174571
0.179758
0.186381
0.194174
0.202886
0.212276
0.222129
0.232254
0.242488
0.252698
0.262793
0.272633
0.168317
0.151172
0.136983
0.12526
0.115667
0.107934
0.101842
0.0972021
0.0938437
0.0916097
0.0903546
0.0899432
0.0902505
0.091162
0.0925738
0.0943929
0.096538
0.0989305
0.129903
0.218907
0.249004
0.25553
0.25157
0.242627
0.231221
0.219042
0.20616
0.191181
0.173228
0.152263
0.130106
0.111779
0.104359
0.121466
0.130995
0.125132
0.122185
0.124586
0.158452
0.249688
0.331236
0.403522
0.465185
0.516189
0.557195
0.589166
0.613168
0.630262
0.641453
0.647664
0.649728
0.648388
0.644297
0.638025
0.630068
0.620868
0.611053
0.600776
0.590123
0.579166
0.567973
0.556604
0.545113
0.533542
0.521921
0.510265
0.498571
0.486817
0.474962
0.462946
0.450692
0.438114
0.425127
0.411656
0.397652
0.383109
0.368068
0.352631
0.336961
0.321283
0.3059
0.291239
0.278013
0.267667
0.262971
0.264202
0.267493
0.271978
0.27749
0.283949
0.291258
0.299263
0.307725
0.316227
0.324018
0.329691
0.331154
0.32606
0.31424
0.297624
0.275242
0.248268
0.219596
0.192669
0.169935
0.152238
0.139554
0.131975
0.130102
0.132425
0.136526
0.14103
0.145173
0.14901
0.153225
0.159245
0.167681
0.179924
0.205553
0.268349
0.369601
0.454342
0.523582
0.577769
0.618775
0.648703
0.669516
0.682947
0.690506
0.693538
0.693281
0.690928
0.686296
0.67972
0.67143
0.661567
0.650187
0.637253
0.622621
0.606029
0.587115
0.565459
0.540692
0.512707
0.482331
0.454869
0.44966
0.451482
0.453172
0.454673
0.456354
0.45851
0.461305
0.464775
0.468844
0.473317
0.477908
0.482295
0.485587
0.484906
0.47667
0.45767
0.425332
0.378798
0.32039
0.256729
0.197998
0.153975
0.128326
0.116775
0.111935
0.109514
0.109068
0.105805
0.100573
0.0966808
0.0934441
0.0928892
0.0915055
0.0907685
0.0825549
0.0738979
0.0670865
0.0629625
0.061385
0.0617515
0.0634319
0.0664544
0.0721856
0.0811234
0.0903756
0.0948437
0.117061
0.157266
0.18854
0.210179
0.223458
0.231971
0.259994
0.37615
0.387938
0.378543
0.355012
0.325739
0.296974
0.270016
0.245152
0.224146
0.207769
0.196895
0.19847
0.234272
0.319591
0.42554
0.537851
0.58951
0.577895
0.553856
0.539503
0.536394
0.53447
0.531928
0.528819
0.525739
0.523274
0.52184
0.521672
0.522847
0.525334
0.529035
0.533819
0.539549
0.546099
0.553369
0.561275
0.569612
0.577968
0.586131
0.594019
0.601594
0.608876
0.615922
0.622819
0.629655
0.636508
0.643421
0.650389
0.657343
0.664141
0.67056
0.676304
0.681008
0.684267
0.685668
0.684836
0.681489
0.675477
0.666822
0.655723
0.642542
0.627771
0.611983
0.595792
0.579814
0.564859
0.552431
0.541689
0.532483
0.524782
0.518507
0.513492
0.509463
0.506052
0.502865
0.499653
0.4964
0.493149
0.4886
0.478219
0.459053
0.437323
0.420656
0.412207
0.410756
0.409954
0.400761
0.37691
0.339571
0.296595
0.258983
0.234687
0.222532
0.218252
0.221221
0.241095
0.295323
0.379256
0.45009
0.478654
0.49496
0.518024
0.542632
0.569861
0.599822
0.631755
0.664526
0.697111
0.728812
0.759298
0.788568
0.816905
0.844107
0.8707
0.896845
0.922606
0.947957
0.972743
0.996616
1.01893
1.03865
1.05424
1.06372
1.06485
1.05552
1.03395
0.99975
0.961245
0.918112
0.871899
0.824673
0.777942
0.73268
0.689429
0.64841
0.609654
0.573085
0.538516
0.505839
0.474969
0.445423
0.418529
0.395599
0.37806
0.367892
0.367539
0.379355
0.403995
0.438517
0.475794
0.506001
0.519865
0.511399
0.479756
0.434515
0.38518
0.337152
0.293923
0.256152
0.224925
0.198363
0.175361
0.154195
0.134892
0.118154
0.105472
0.0977535
0.0953085
0.0976684
0.106738
0.129778
0.16848
0.209303
0.246205
0.280746
0.31487
0.345223
0.371499
0.395412
0.316647
0.378036
0.408817
0.406161
0.378351
0.342319
0.308893
0.282922
0.263344
0.2527
0.260381
0.30401
0.401664
0.55926
0.69097
0.724305
0.684105
0.628382
0.579489
0.543695
0.521041
0.508196
0.501352
0.498815
0.499666
0.503227
0.508857
0.51593
0.523865
0.532197
0.54062
0.54899
0.557281
0.565513
0.573683
0.581713
0.589449
0.596682
0.603288
0.609121
0.614124
0.618351
0.621968
0.625245
0.628517
0.632151
0.636499
0.641854
0.648412
0.656238
0.665248
0.675198
0.685683
0.696157
0.705954
0.714345
0.720598
0.724064
0.724253
0.720908
0.71403
0.703877
0.690916
0.675753
0.659049
0.641427
0.62432
0.608909
0.594857
0.582289
0.571347
0.562126
0.554643
0.548817
0.544458
0.541279
0.538968
0.537322
0.536304
0.535774
0.534715
0.530509
0.518634
0.496721
0.47001
0.445666
0.427467
0.41358
0.398316
0.376706
0.348583
0.319107
0.296036
0.288313
0.299001
0.337096
0.414399
0.504335
0.548684
0.542664
0.538302
0.553382
0.587458
0.633733
0.685434
0.736032
0.781337
0.820153
0.853379
0.88266
0.909464
0.934683
0.958594
0.981268
1.00333
1.02485
1.04589
1.06652
1.08677
1.10655
1.12546
1.14264
1.15652
1.16484
1.16481
1.15356
1.1284
1.09225
1.04951
1.00112
0.949738
0.897769
0.846907
0.798194
0.752158
0.70897
0.668599
0.630911
0.595706
0.562826
0.531905
0.501668
0.470546
0.438618
0.4071
0.377994
0.353994
0.337848
0.331113
0.333058
0.340488
0.348753
0.353581
0.352487
0.344955
0.331961
0.31526
0.296806
0.278248
0.260447
0.24335
0.226161
0.20803
0.188655
0.168337
0.147956
0.129118
0.115429
0.110207
0.115439
0.135522
0.178226
0.236605
0.290597
0.341642
0.391323
0.432276
0.460343
0.480377
0.498869
0.36544
0.43762
0.496897
0.480349
0.431378
0.377991
0.337815
0.316908
0.319342
0.34988
0.418328
0.524527
0.641633
0.71666
0.71341
0.660002
0.597474
0.547597
0.514109
0.49487
0.486621
0.486024
0.490387
0.497909
0.507276
0.517439
0.527549
0.536999
0.545499
0.553095
0.560086
0.566855
0.57371
0.580778
0.587984
0.595073
0.601437
0.606345
0.60936
0.610186
0.608687
0.604938
0.599242
0.592133
0.58434
0.576729
0.570215
0.565662
0.56379
0.565086
0.569756
0.577695
0.588497
0.60149
0.615775
0.630291
0.643898
0.655478
0.664058
0.668925
0.669698
0.666354
0.659178
0.648679
0.635478
0.620285
0.605036
0.590204
0.576009
0.562776
0.550802
0.540342
0.531606
0.524741
0.519815
0.516793
0.515513
0.515671
0.516803
0.51831
0.519437
0.519062
0.515493
0.506412
0.489611
0.466113
0.441404
0.420144
0.402947
0.38746
0.372024
0.358977
0.355252
0.370304
0.417312
0.496768
0.573997
0.595272
0.569793
0.554033
0.567395
0.607682
0.664569
0.726243
0.783651
0.832059
0.870956
0.902264
0.928373
0.951053
0.971218
0.989128
1.00471
1.01857
1.03121
1.04268
1.05305
1.06249
1.07128
1.07973
1.08795
1.09562
1.10161
1.10384
1.0994
1.085
1.05871
1.02445
0.983155
0.937214
0.889392
0.841968
0.796481
0.753783
0.714211
0.677774
0.644307
0.613579
0.585359
0.559416
0.535475
0.512978
0.490616
0.466408
0.439664
0.410746
0.381346
0.353742
0.329835
0.310535
0.295523
0.283476
0.272774
0.262186
0.251134
0.239626
0.228079
0.217126
0.207413
0.199359
0.192907
0.18736
0.181455
0.173757
0.16332
0.150338
0.136549
0.125493
0.123024
0.134784
0.165819
0.21879
0.283791
0.349123
0.419185
0.478864
0.519724
0.543184
0.557019
0.568143
0.404562
0.547939
0.597392
0.559555
0.494709
0.440618
0.418261
0.420093
0.448654
0.501568
0.569511
0.630743
0.659167
0.644617
0.600905
0.552112
0.51361
0.489797
0.478989
0.477983
0.483723
0.493699
0.506028
0.519314
0.532461
0.544679
0.55558
0.565214
0.573979
0.58242
0.59103
0.600114
0.609739
0.619745
0.629792
0.639414
0.647236
0.652568
0.65468
0.652908
0.646748
0.635952
0.620615
0.601243
0.578785
0.554604
0.530373
0.50791
0.488954
0.47494
0.466808
0.464915
0.469043
0.478486
0.492169
0.50875
0.526711
0.544462
0.560477
0.573461
0.582489
0.587099
0.587266
0.583304
0.575701
0.565604
0.554406
0.542568
0.530558
0.518785
0.50762
0.497413
0.488494
0.481167
0.475682
0.472206
0.470784
0.471295
0.473393
0.476445
0.479481
0.481281
0.480675
0.476718
0.46848
0.455062
0.436908
0.418326
0.403531
0.394452
0.391491
0.397037
0.418622
0.466929
0.543088
0.617205
0.633824
0.590039
0.559
0.564195
0.602981
0.66277
0.729159
0.790777
0.841593
0.880756
0.910457
0.933481
0.951922
0.966974
0.979175
0.988675
0.995439
1.0002
1.00321
1.00439
1.00373
1.00144
0.997973
0.993968
0.990092
0.986631
0.983068
0.977688
0.967676
0.949801
0.924531
0.892153
0.854143
0.813021
0.771359
0.731161
0.693675
0.65947
0.628646
0.601033
0.576351
0.554312
0.534661
0.517173
0.501605
0.487579
0.474295
0.46006
0.443545
0.423777
0.400598
0.375136
0.349339
0.324927
0.302732
0.282728
0.264399
0.247136
0.230526
0.214466
0.199156
0.185018
0.172572
0.162296
0.154451
0.14891
0.145036
0.141722
0.137737
0.13243
0.126696
0.123995
0.130193
0.15203
0.192765
0.250908
0.318863
0.393666
0.47585
0.545394
0.586781
0.607373
0.61626
0.618235
0.426157
0.643845
0.688789
0.638741
0.571741
0.529917
0.511776
0.517541
0.538828
0.565242
0.585072
0.58831
0.572097
0.542726
0.511251
0.486939
0.473576
0.470643
0.475802
0.486574
0.500857
0.51693
0.533397
0.549204
0.563738
0.576875
0.58892
0.600425
0.611993
0.624113
0.637069
0.650907
0.665438
0.680266
0.694809
0.708257
0.719992
0.729382
0.735405
0.736956
0.732952
0.722439
0.704723
0.679529
0.647173
0.608732
0.566146
0.522166
0.480056
0.443076
0.413865
0.393975
0.383743
0.382499
0.388948
0.401468
0.418264
0.437423
0.456993
0.475137
0.490319
0.501521
0.508267
0.510576
0.508844
0.504307
0.497869
0.490126
0.481553
0.472552
0.463492
0.454734
0.446643
0.439583
0.433897
0.429864
0.427656
0.427297
0.428615
0.4312
0.434348
0.437078
0.438346
0.437362
0.433673
0.427013
0.416993
0.405486
0.396861
0.395368
0.403887
0.426138
0.469942
0.542338
0.626157
0.665409
0.624011
0.567112
0.554323
0.583263
0.640043
0.707976
0.773076
0.827061
0.867813
0.897174
0.918113
0.933101
0.943765
0.951072
0.955552
0.957446
0.956807
0.95422
0.949617
0.942753
0.933486
0.921937
0.908593
0.894333
0.88027
0.867242
0.855355
0.843227
0.828276
0.809062
0.784166
0.753658
0.719141
0.682976
0.647446
0.614219
0.584209
0.557699
0.534568
0.514508
0.497171
0.482254
0.469532
0.458842
0.450036
0.442881
0.436887
0.430863
0.423411
0.413387
0.399868
0.382636
0.362444
0.34073
0.318907
0.297812
0.277619
0.258103
0.238983
0.220157
0.201774
0.184199
0.167928
0.153485
0.141316
0.131675
0.124508
0.119409
0.115751
0.113123
0.112171
0.115937
0.130528
0.162375
0.212519
0.275299
0.345656
0.42664
0.516278
0.591372
0.636723
0.656238
0.661461
0.653945
0.436623
0.735129
0.779442
0.720207
0.645929
0.589327
0.558978
0.54719
0.543415
0.53969
0.531228
0.516738
0.498407
0.480669
0.468002
0.463
0.465852
0.475242
0.489365
0.506424
0.524749
0.54291
0.559885
0.575172
0.588782
0.601109
0.612755
0.624368
0.636517
0.649618
0.663888
0.679339
0.695769
0.712777
0.729775
0.746323
0.762678
0.777998
0.791139
0.800804
0.805611
0.804152
0.795045
0.777006
0.748984
0.710416
0.661656
0.604522
0.542669
0.481366
0.426405
0.382462
0.351846
0.334397
0.328436
0.331778
0.342247
0.357742
0.376131
0.39527
0.413129
0.428106
0.439224
0.446172
0.449184
0.449385
0.447434
0.443837
0.439003
0.433278
0.426982
0.42043
0.413957
0.407913
0.402654
0.398497
0.395678
0.394308
0.394352
0.395619
0.397739
0.400122
0.40199
0.402581
0.401418
0.398396
0.393788
0.388414
0.385818
0.390936
0.408597
0.444257
0.505293
0.590498
0.66294
0.66279
0.595171
0.549531
0.558219
0.604985
0.670787
0.738542
0.796851
0.841252
0.872474
0.893341
0.90666
0.914528
0.918381
0.919175
0.917489
0.913599
0.907617
0.89988
0.890053
0.877749
0.862688
0.844868
0.824726
0.803203
0.781787
0.761678
0.743603
0.726265
0.70872
0.688292
0.663707
0.63515
0.604089
0.572601
0.542606
0.515401
0.49157
0.471137
0.45381
0.439191
0.426905
0.41667
0.408321
0.401782
0.39703
0.394007
0.392501
0.39187
0.390837
0.388253
0.383034
0.374437
0.362319
0.347187
0.329961
0.311563
0.292595
0.27329
0.253684
0.233844
0.213984
0.194481
0.17582
0.158516
0.143049
0.129794
0.118966
0.110602
0.104634
0.101185
0.101219
0.107731
0.126771
0.165216
0.223255
0.291344
0.364219
0.448388
0.541669
0.620279
0.668837
0.689366
0.691836
0.677086
0.432169
0.806782
0.853598
0.781951
0.684937
0.609803
0.562186
0.532655
0.512439
0.496425
0.482428
0.47022
0.460829
0.45581
0.456409
0.462953
0.474789
0.490615
0.508806
0.527669
0.545708
0.561866
0.575639
0.58705
0.596515
0.604694
0.612349
0.620217
0.628928
0.638942
0.650535
0.663796
0.678648
0.694841
0.711953
0.730613
0.750593
0.771002
0.790676
0.808276
0.822378
0.831558
0.834433
0.829629
0.815656
0.790807
0.753288
0.701877
0.637214
0.563213
0.487396
0.418971
0.365175
0.328512
0.307503
0.299076
0.3003
0.308812
0.322473
0.3391
0.35644
0.372309
0.385363
0.394726
0.401087
0.40491
0.406632
0.406633
0.405235
0.40271
0.399304
0.395269
0.390873
0.386417
0.38222
0.378589
0.37577
0.373903
0.373015
0.373055
0.373917
0.375403
0.3771
0.378367
0.37856
0.377459
0.375562
0.373811
0.375077
0.38449
0.408341
0.453475
0.525208
0.611883
0.664659
0.637855
0.56798
0.539011
0.565555
0.6233
0.691434
0.754565
0.804708
0.840428
0.863834
0.877865
0.885055
0.8873
0.885962
0.881979
0.875907
0.867988
0.858336
0.847081
0.833747
0.817888
0.799126
0.777356
0.752987
0.726835
0.700704
0.675928
0.653839
0.633914
0.614178
0.592827
0.568869
0.542483
0.514896
0.48781
0.46275
0.440648
0.421793
0.406006
0.39288
0.38197
0.372901
0.365422
0.359411
0.354864
0.351863
0.35051
0.350835
0.352725
0.355251
0.357374
0.357984
0.356129
0.351222
0.343128
0.332104
0.318611
0.303111
0.285959
0.26743
0.247824
0.227545
0.207102
0.187072
0.16803
0.150491
0.134863
0.121431
0.110379
0.101897
0.0964435
0.0952974
0.101574
0.121352
0.16218
0.224972
0.298122
0.373656
0.458856
0.552633
0.632857
0.684124
0.706189
0.706132
0.68718
0.408894
0.835719
0.881467
0.800127
0.692797
0.606183
0.547364
0.508963
0.483549
0.466633
0.455878
0.450202
0.4493
0.453245
0.46203
0.475188
0.491662
0.509929
0.528272
0.545125
0.55935
0.570371
0.578163
0.583152
0.586078
0.58784
0.589347
0.591399
0.594621
0.599465
0.606243
0.615176
0.626413
0.64
0.655816
0.67508
0.697123
0.721068
0.74573
0.769657
0.791253
0.808942
0.821346
0.827372
0.826077
0.81625
0.795859
0.761896
0.711313
0.64334
0.562307
0.478566
0.405002
0.349674
0.313456
0.292927
0.284141
0.284334
0.291466
0.30341
0.318128
0.332438
0.345199
0.355816
0.364183
0.370456
0.374889
0.377734
0.379211
0.379506
0.378793
0.377251
0.375085
0.37253
0.369854
0.367326
0.365175
0.363538
0.362453
0.361918
0.361977
0.362732
0.364145
0.365782
0.366849
0.366727
0.365788
0.365292
0.36793
0.379169
0.406383
0.456918
0.532594
0.612796
0.646715
0.607408
0.546394
0.533015
0.571429
0.634929
0.701485
0.758647
0.801427
0.830174
0.847545
0.856376
0.859006
0.857203
0.852242
0.84499
0.835904
0.825145
0.81284
0.799006
0.783132
0.764808
0.743619
0.719355
0.692611
0.663849
0.635001
0.60844
0.584398
0.562403
0.541216
0.519566
0.496713
0.472763
0.448629
0.42562
0.40488
0.387032
0.372137
0.359883
0.349806
0.341458
0.334479
0.328635
0.323816
0.320042
0.317441
0.316219
0.316602
0.318845
0.322507
0.32683
0.330831
0.333493
0.333969
0.331718
0.326505
0.318323
0.307285
0.293569
0.277435
0.259266
0.239598
0.219086
0.198446
0.178375
0.159488
0.142272
0.127067
0.114108
0.103639
0.096194
0.093137
0.0975832
0.115548
0.155152
0.219006
0.295589
0.37357
0.458399
0.550328
0.630366
0.683383
0.70709
0.706015
0.684229
0.367554
0.803509
0.858013
0.785392
0.679853
0.590504
0.528519
0.488869
0.464742
0.451415
0.445964
0.446629
0.452421
0.46274
0.476923
0.493925
0.512253
0.530173
0.546045
0.558613
0.56717
0.571591
0.572278
0.570036
0.565895
0.560915
0.556022
0.55192
0.549102
0.547924
0.54871
0.551841
0.557786
0.567066
0.580633
0.598817
0.621081
0.646693
0.674543
0.703147
0.730729
0.75539
0.775383
0.789439
0.796939
0.797605
0.790563
0.773233
0.74116
0.689796
0.618293
0.533377
0.45013
0.381785
0.333222
0.302205
0.284247
0.276239
0.276488
0.282823
0.293011
0.304825
0.316583
0.327292
0.336536
0.344249
0.350517
0.355461
0.359195
0.361819
0.363435
0.364161
0.364143
0.363561
0.362628
0.361569
0.360586
0.359802
0.359246
0.358913
0.358902
0.359498
0.360982
0.363182
0.365216
0.365949
0.365109
0.364194
0.366191
0.377181
0.405245
0.45729
0.531203
0.600992
0.620615
0.578952
0.53052
0.529598
0.573969
0.637776
0.700957
0.752944
0.79044
0.814053
0.827044
0.832177
0.831653
0.827107
0.819703
0.810204
0.798928
0.785974
0.77162
0.755742
0.737883
0.717714
0.694853
0.668796
0.640784
0.611512
0.582381
0.554884
0.529709
0.506654
0.484949
0.46376
0.442532
0.421222
0.4004
0.381013
0.363905
0.349472
0.337632
0.328013
0.320157
0.313642
0.308134
0.303392
0.299286
0.295804
0.293062
0.291295
0.290836
0.29217
0.295329
0.299926
0.305262
0.310417
0.314434
0.316489
0.315979
0.312511
0.305858
0.295947
0.282877
0.266972
0.24878
0.229026
0.208525
0.188089
0.168444
0.150177
0.133719
0.119365
0.107384
0.0982753
0.0933038
0.0953843
0.110235
0.146157
0.207609
0.284978
0.364509
0.447971
0.53636
0.614535
0.668177
0.693288
0.692425
0.66949
0.356763
0.743591
0.806903
0.749853
0.654537
0.569607
0.510047
0.473304
0.453176
0.444755
0.44479
0.451214
0.462686
0.478126
0.496308
0.515678
0.534441
0.550839
0.563429
0.571278
0.574054
0.572027
0.565995
0.557107
0.54662
0.535659
0.52506
0.515354
0.506839
0.499729
0.494324
0.491184
0.491204
0.495546
0.50616
0.522091
0.54297
0.568182
0.596796
0.627508
0.65862
0.688103
0.713832
0.73402
0.747752
0.755131
0.756442
0.75042
0.733034
0.698253
0.641681
0.565141
0.483096
0.410895
0.355773
0.31757
0.292451
0.277404
0.270932
0.27165
0.277591
0.286552
0.296676
0.306737
0.3161
0.324518
0.331928
0.338332
0.343744
0.348185
0.351696
0.354347
0.356242
0.357516
0.358337
0.358889
0.359341
0.359803
0.360295
0.360797
0.361412
0.362515
0.364625
0.367848
0.371297
0.373272
0.372606
0.370542
0.370702
0.379899
0.406602
0.45668
0.524685
0.582922
0.593068
0.554721
0.518551
0.526044
0.572201
0.633683
0.692598
0.739893
0.77313
0.793521
0.803891
0.806827
0.804412
0.798184
0.789187
0.778107
0.765188
0.750527
0.734417
0.716694
0.697106
0.675388
0.651357
0.624999
0.596802
0.567559
0.538535
0.511026
0.485734
0.462644
0.441363
0.421403
0.402264
0.383667
0.365856
0.349511
0.335286
0.323448
0.313854
0.30614
0.299899
0.294758
0.290396
0.286547
0.28303
0.279769
0.276822
0.274392
0.272833
0.272729
0.274486
0.278093
0.283218
0.289191
0.29511
0.300005
0.302988
0.303337
0.300516
0.294193
0.284277
0.270963
0.254733
0.236309
0.216551
0.196344
0.176501
0.157695
0.140438
0.125095
0.11197
0.101529
0.0948831
0.0946237
0.10595
0.136873
0.193255
0.268409
0.347851
0.429023
0.512662
0.587476
0.640547
0.666609
0.666635
0.644005
0.344021
0.669552
0.74169
0.704537
0.624757
0.548255
0.493455
0.460749
0.444955
0.441269
0.44635
0.457986
0.474551
0.494528
0.51621
0.537672
0.556966
0.572365
0.582576
0.586871
0.585159
0.578005
0.566532
0.552183
0.536414
0.520414
0.504968
0.490462
0.477029
0.464776
0.454004
0.445421
0.440424
0.441009
0.44879
0.462315
0.480955
0.50409
0.531057
0.560921
0.592304
0.623345
0.651839
0.675631
0.693306
0.704765
0.71078
0.711038
0.702443
0.679044
0.635453
0.572307
0.499059
0.429365
0.372817
0.331043
0.301211
0.280973
0.269442
0.26572
0.268102
0.274457
0.282874
0.292016
0.301114
0.309789
0.317858
0.325221
0.331808
0.33758
0.342534
0.346708
0.350181
0.353065
0.355493
0.357612
0.359557
0.36142
0.363216
0.364919
0.366617
0.368722
0.371921
0.376602
0.381991
0.385928
0.386268
0.383381
0.381455
0.387924
0.411413
0.456651
0.516074
0.56307
0.567429
0.534721
0.508676
0.520898
0.565925
0.623589
0.678108
0.721518
0.751778
0.770107
0.778959
0.780714
0.777315
0.770201
0.76031
0.748161
0.734051
0.718137
0.700785
0.681761
0.660904
0.638086
0.613286
0.586621
0.558478
0.529637
0.501257
0.474467
0.449891
0.427646
0.407643
0.389585
0.372854
0.356867
0.341615
0.327647
0.315552
0.305552
0.297513
0.291132
0.286078
0.282021
0.278626
0.275584
0.272649
0.26968
0.266667
0.263745
0.261223
0.259669
0.259707
0.261648
0.265539
0.271055
0.2775
0.283915
0.289243
0.292485
0.292813
0.289636
0.282657
0.271918
0.257802
0.240986
0.222332
0.202766
0.18316
0.164257
0.146628
0.130692
0.116783
0.105341
0.0973324
0.0949989
0.102902
0.128394
0.17806
0.248288
0.325526
0.403412
0.481433
0.551584
0.602831
0.6292
0.630327
0.60896
0.325736
0.594614
0.675378
0.659352
0.597219
0.530318
0.480026
0.450281
0.437513
0.437309
0.446353
0.462326
0.483353
0.507552
0.532854
0.557086
0.578181
0.594392
0.604435
0.607599
0.603842
0.593832
0.578869
0.560621
0.540769
0.520681
0.501259
0.482938
0.465857
0.450178
0.436304
0.424853
0.416589
0.414823
0.420228
0.431151
0.446549
0.465929
0.489013
0.515294
0.543775
0.572893
0.600612
0.62476
0.643699
0.657009
0.665297
0.668657
0.664704
0.648139
0.613465
0.560091
0.495535
0.432058
0.378702
0.337235
0.305621
0.2826
0.268097
0.261612
0.261616
0.266072
0.27312
0.281425
0.290169
0.298892
0.30732
0.315271
0.322617
0.329277
0.335227
0.340498
0.345163
0.349326
0.353103
0.35661
0.35995
0.363188
0.366328
0.369333
0.372275
0.375565
0.380012
0.386295
0.393913
0.400534
0.403089
0.400712
0.397455
0.401013
0.419997
0.458302
0.507644
0.544263
0.545132
0.518264
0.499686
0.513719
0.5557
0.60875
0.659028
0.699297
0.727551
0.74473
0.752918
0.754261
0.750548
0.743102
0.732776
0.720065
0.705266
0.68854
0.670302
0.650363
0.628595
0.60499
0.579653
0.552808
0.524903
0.496736
0.469384
0.443815
0.420573
0.399898
0.381896
0.366253
0.352049
0.338378
0.325111
0.312829
0.302159
0.293348
0.286317
0.280855
0.276697
0.273515
0.270932
0.268577
0.266155
0.263493
0.260547
0.257395
0.25426
0.251594
0.250049
0.250159
0.252299
0.256517
0.262432
0.269245
0.275869
0.281121
0.283906
0.283371
0.278995
0.270651
0.258605
0.243463
0.22607
0.207366
0.18827
0.169575
0.151906
0.135719
0.121369
0.109265
0.100237
0.0961915
0.101032
0.121248
0.163512
0.226822
0.299713
0.373253
0.445055
0.509464
0.557607
0.583418
0.585472
0.565829
0.312246
0.525487
0.61504
0.619766
0.575863
0.518743
0.471626
0.442503
0.430261
0.431295
0.442425
0.461293
0.485875
0.513856
0.54287
0.570612
0.594912
0.613942
0.62633
0.631251
0.628536
0.61875
0.603149
0.583449
0.561471
0.538816
0.516665
0.495744
0.476497
0.459336
0.444749
0.43327
0.425464
0.422921
0.424961
0.431079
0.441029
0.454766
0.472234
0.493108
0.516604
0.541402
0.565706
0.587527
0.605263
0.618313
0.626959
0.631054
0.628293
0.613837
0.58283
0.535113
0.477868
0.421852
0.374022
0.335119
0.303835
0.280192
0.264809
0.257338
0.256293
0.259744
0.265968
0.273724
0.282214
0.290935
0.299549
0.307816
0.31557
0.322717
0.329239
0.335179
0.340626
0.345693
0.350493
0.355125
0.35966
0.364131
0.368517
0.372759
0.37689
0.381283
0.386813
0.394454
0.404161
0.413829
0.419772
0.419742
0.416742
0.418069
0.432076
0.4623
0.501004
0.528195
0.526677
0.504695
0.491029
0.504719
0.542435
0.590432
0.636634
0.674294
0.701221
0.71794
0.726132
0.727669
0.724174
0.716861
0.706536
0.69369
0.678605
0.66144
0.642612
0.622032
0.599644
0.575527
0.549883
0.523042
0.495552
0.468262
0.44219
0.418187
0.396758
0.378257
0.362842
0.349929
0.338141
0.326312
0.314383
0.303123
0.29327
0.285133
0.278723
0.273907
0.270437
0.267928
0.265918
0.263982
0.261822
0.2593
0.256407
0.253214
0.249862
0.246618
0.243974
0.242543
0.242916
0.245473
0.25019
0.256548
0.263576
0.270022
0.274596
0.276193
0.274054
0.267861
0.257744
0.24423
0.228124
0.210373
0.191924
0.173614
0.156115
0.139921
0.125401
0.112934
0.103223
0.0978546
0.100105
0.115536
0.15045
0.205736
0.272513
0.340713
0.405941
0.463849
0.507691
0.531904
0.534385
0.516574
0.30174
0.468455
0.554631
0.580703
0.558042
0.51379
0.471008
0.441261
0.426899
0.42615
0.436445
0.455484
0.481097
0.510969
0.542655
0.573714
0.601869
0.625171
0.642091
0.6516
0.653259
0.647317
0.634715
0.616938
0.59574
0.572841
0.549717
0.527485
0.506969
0.488818
0.473532
0.461495
0.453032
0.448642
0.447415
0.449309
0.454486
0.46316
0.475391
0.490909
0.509009
0.528518
0.547871
0.565379
0.579731
0.590415
0.597431
0.600071
0.595602
0.579431
0.547953
0.502744
0.451517
0.403015
0.361119
0.32546
0.295832
0.273403
0.259017
0.252151
0.251262
0.254564
0.260547
0.268118
0.276535
0.285276
0.293961
0.302316
0.310166
0.317433
0.324126
0.330324
0.336146
0.341728
0.347195
0.352641
0.358116
0.363616
0.369088
0.374436
0.379627
0.384943
0.391235
0.399723
0.41095
0.423421
0.433435
0.437519
0.436817
0.43737
0.446871
0.468878
0.497141
0.515775
0.51215
0.493605
0.482653
0.494458
0.52713
0.569774
0.611945
0.647271
0.673272
0.689988
0.698659
0.70085
0.697996
0.691208
0.681254
0.668612
0.653566
0.636273
0.617153
0.596228
0.57352
0.549175
0.523471
0.496839
0.469943
0.443702
0.419113
0.39696
0.377775
0.36199
0.3496
0.339498
0.329773
0.319163
0.307906
0.29708
0.287563
0.279746
0.27372
0.269385
0.266421
0.264315
0.2625
0.260526
0.258164
0.255397
0.252335
0.249115
0.245836
0.242565
0.239507
0.237184
0.236237
0.237258
0.240555
0.245953
0.25272
0.259674
0.265424
0.268659
0.268385
0.264078
0.255715
0.243725
0.228866
0.212077
0.194327
0.176491
0.15928
0.143224
0.128711
0.116102
0.105987
0.0996593
0.0998116
0.1111
0.139192
0.186154
0.245665
0.307753
0.366326
0.417421
0.456072
0.477656
0.479886
0.463783
0.289275
0.448083
0.506125
0.538598
0.537257
0.511083
0.477062
0.448162
0.430389
0.424919
0.430773
0.446306
0.469617
0.498565
0.530793
0.563857
0.59541
0.623365
0.646007
0.662053
0.670736
0.671872
0.6659
0.65383
0.637072
0.617212
0.595801
0.574204
0.553531
0.534633
0.518101
0.504308
0.493571
0.485727
0.480739
0.478763
0.479965
0.484455
0.492163
0.50273
0.515446
0.529251
0.542827
0.554881
0.564532
0.571435
0.575208
0.574313
0.565366
0.544297
0.509718
0.465816
0.420371
0.37883
0.341995
0.309544
0.282698
0.263114