/*--------------------------------*- C++ -*----------------------------------*\
  =========                 |
  \\      /  F ield         | OpenFOAM: The Open Source CFD Toolbox
   \\    /   O peration     | Website:  https://openfoam.org
    \\  /    A nd           | Version:  9
     \\/     M anipulation  |
\*---------------------------------------------------------------------------*/
FoamFile
{
    format      ascii;
    class       volScalarField;
    location    "0.27";
    object      p;
}
// * * * * * * * * * * * * * * * * * * * * * * * * * * * * * * * * * * * * * //

dimensions      [0 2 -2 0 0 0 0];

internalField   nonuniform List<scalar> 
12225
(
0.236462
-0.927689
-1.46761
-1.55617
-1.59296
-1.63467
-1.63962
-1.59228
-1.49624
-1.35327
-1.15912
-0.906312
-0.585662
-0.185737
0.307894
0.914325
1.64799
2.52156
-0.872875
-1.49786
-1.70723
-1.69126
-1.67615
-1.68299
-1.66681
-1.60701
-1.50353
-1.35674
-1.16191
-0.911403
-0.596337
-0.206063
0.272249
0.854131
1.54727
2.33964
-1.00134
-1.2407
-1.47392
-1.56319
-1.59833
-1.62627
-1.62603
-1.58032
-1.48906
-1.35392
-1.17176
-0.936449
-0.640999
-0.277644
0.161695
0.683446
1.27934
1.90193
-1.08609
-1.26647
-1.53431
-1.64678
-1.66943
-1.67863
-1.66763
-1.61733
-1.52477
-1.39143
-1.21496
-0.99035
-0.712323
-0.376083
0.0214035
0.478158
0.974851
1.46417
-1.18713
-1.34074
-1.5676
-1.66567
-1.68058
-1.68393
-1.67228
-1.62538
-1.5384
-1.41283
-1.24745
-1.03868
-0.783118
-0.478888
-0.127241
0.264199
0.672746
1.0593
-1.2882
-1.40729
-1.58582
-1.67884
-1.70109
-1.70613
-1.6953
-1.65201
-1.57115
-1.45429
-1.3013
-1.11012
-0.879271
-0.609437
-0.305164
0.0226201
0.351274
0.647255
-1.38326
-1.47202
-1.61412
-1.70413
-1.73253
-1.7371
-1.72502
-1.68461
-1.61055
-1.50388
-1.36531
-1.19426
-0.991001
-0.758361
-0.503185
-0.238052
0.0157671
0.230204
-1.47335
-1.53969
-1.65333
-1.73632
-1.76737
-1.77188
-1.76004
-1.7242
-1.65891
-1.56468
-1.44298
-1.29466
-1.12157
-0.928178
-0.722749
-0.518322
-0.334069
-0.192835
-1.56011
-1.61015
-1.70042
-1.77406
-1.8065
-1.81283
-1.80321
-1.77319
-1.71799
-1.63787
-1.53495
-1.41134
-1.27018
-1.11708
-0.960987
-0.814563
-0.694621
-0.619698
-1.64469
-1.68272
-1.75417
-1.81838
-1.85162
-1.86094
-1.85492
-1.83172
-1.78776
-1.72331
-1.64091
-1.54363
-1.4356
-1.32307
-1.21508
-1.12338
-1.06248
-1.04738
-1.72799
-1.7572
-1.81402
-1.86974
-1.90332
-1.91632
-1.91525
-1.90008
-1.86861
-1.82125
-1.76079
-1.69097
-1.61654
-1.54402
-1.48207
-1.44128
-1.4339
-1.472
-1.8039
-1.82735
-1.8741
-1.92329
-1.95706
-1.974
-1.97869
-1.97207
-1.95305
-1.92235
-1.88287
-1.83867
-1.7948
-1.7577
-1.73543
-1.73733
-1.77377
-1.85444
-1.87913
-1.89843
-1.93761
-1.98164
-2.01585
-2.03716
-2.04847
-2.05122
-2.04527
-2.03167
-2.01336
-1.99452
-1.98024
-1.97669
-1.99115
-2.03169
-2.1069
-2.22449
-1.96538
-1.98139
-2.01463
-2.05471
-2.0901
-2.11699
-2.13689
-2.15135
-2.16105
-2.16737
-2.17322
-2.1827
-2.20067
-2.23272
-2.28513
-2.36448
-2.47754
-2.62997
-2.06379
-2.07756
-2.10694
-2.14497
-2.1829
-2.21692
-2.24756
-2.27627
-2.30421
-2.33303
-2.36551
-2.40536
-2.45692
-2.52494
-2.61446
-2.73047
-2.87788
-3.06039
-2.17517
-2.18788
-2.2158
-2.2543
-2.29676
-2.33979
-2.38337
-2.4287
-2.47711
-2.53027
-2.59063
-2.6613
-2.7458
-2.84779
-2.97095
-3.11865
-3.29405
-3.49912
-2.29918
-2.31206
-2.34107
-2.38298
-2.43246
-2.4866
-2.5451
-2.60885
-2.67897
-2.75691
-2.84456
-2.94421
-3.05836
-3.18944
-3.33974
-3.51116
-3.70529
-3.92271
-2.43259
-2.44691
-2.47958
-2.52792
-2.58708
-2.65428
-2.72902
-2.81178
-2.90329
-3.00444
-3.11639
-3.24051
-3.37819
-3.53071
-3.69908
-3.884
-4.08587
-4.30431
-2.56583
-2.58313
-2.62226
-2.68023
-2.75169
-2.83349
-2.92483
-3.02578
-3.13646
-3.25702
-3.38779
-3.52921
-3.68172
-3.84558
-4.02088
-4.20742
-4.40483
-4.61222
-2.65185
-2.67286
-2.71987
-2.78856
-2.87194
-2.96602
-3.06989
-3.18353
-3.30661
-3.43867
-3.5794
-3.72867
-3.88635
-4.05219
-4.22576
-4.40647
-4.59363
-4.78623
-2.69124
-2.71596
-2.7711
-2.85025
-2.94394
-3.04744
-3.16019
-3.28231
-3.41311
-3.55171
-3.69756
-3.85034
-4.00965
-4.17494
-4.34552
-4.52064
-4.6995
-4.88119
-2.69992
-2.7294
-2.79484
-2.88598
-2.98953
-3.10082
-3.22083
-3.34999
-3.48681
-3.62983
-3.77838
-3.93222
-4.09096
-4.2539
-4.42026
-4.58921
-4.75984
-4.93113
-2.68402
-2.72006
-2.79908
-2.90448
-3.0174
-3.13441
-3.25978
-3.39451
-3.53635
-3.68342
-3.83472
-3.99002
-4.14893
-4.31057
-4.47414
-4.63886
-4.80396
-4.9687
-2.64841
-2.69387
-2.79027
-2.91124
-3.03334
-3.15641
-3.28687
-3.42518
-3.56869
-3.71612
-3.86774
-4.02299
-4.18079
-4.3403
-4.50072
-4.6613
-4.82118
-4.9794
-2.59605
-2.65655
-2.77741
-2.91006
-3.03523
-3.16483
-3.30534
-3.45196
-3.60048
-3.75092
-3.90428
-4.06019
-4.21762
-4.37572
-4.53381
-4.69125
-4.84738
-5.00182
-2.52829
-2.60769
-2.77296
-2.91837
-3.03228
-3.15438
-3.29567
-3.44511
-3.59577
-3.74802
-3.90294
-4.05997
-4.21791
-4.37585
-4.53317
-4.68924
-4.84333
-4.99454
-2.45258
-2.53284
-2.75706
-2.94708
-3.07562
-3.20166
-3.34356
-3.49125
-3.63933
-3.78915
-3.94176
-4.09635
-4.25163
-4.4067
-4.56086
-4.71352
-4.86422
-5.01309
-2.3953
-2.46149
-2.63935
-2.81376
-2.96337
-3.11859
-3.28077
-3.44096
-3.59847
-3.75626
-3.91533
-4.07491
-4.234
-4.3919
-4.54799
-4.70176
-4.85289
-5.00208
-2.32645
-2.77106
-2.95478
-3.0029
-3.08329
-3.21358
-3.35943
-3.50497
-3.65126
-3.80092
-3.9536
-4.10769
-4.26193
-4.41538
-4.56721
-4.71653
-4.86282
-5.00625
-1.2491
-2.16212
-2.69191
-2.84942
-2.97797
-3.14464
-3.31455
-3.47494
-3.63163
-3.78925
-3.94801
-4.10666
-4.26428
-4.42019
-4.57365
-4.72364
-4.86924
-5.00796
-13.8441
-13.5275
-13.493
-14.2377
-15.626
-17.0168
-17.9098
-18.2124
-18.0895
-17.7329
-17.3044
-16.9148
-16.6264
-16.4399
-16.3056
-16.1863
-16.1783
-16.2875
-16.3358
-16.2892
-16.1255
-15.963
-16.021
-16.4767
-17.4385
-18.9317
-20.9029
-23.238
-25.788
-28.3925
-30.898
-33.1708
-35.106
-36.6324
-37.7133
-38.332
-38.4599
-38.0461
-37.0672
-35.6131
-33.7589
-31.5732
-29.1161
-26.4422
-23.6004
-20.6338
-17.5797
-14.4694
-11.3289
-8.18007
-5.04175
-1.9317
1.1319
4.12916
7.03785
9.83368
12.4913
14.9863
17.297
19.4063
21.3032
22.9835
24.4493
25.7096
26.779
27.6767
28.4235
29.0361
29.5229
29.8996
30.1795
30.3734
30.4885
30.5291
30.4961
30.3879
30.2016
29.9391
29.6371
29.3859
29.0949
28.6438
28.0208
27.2836
26.5291
25.8761
25.4095
25.1451
25.0476
25.0826
25.2425
25.5394
25.9501
26.3733
26.6585
26.7299
26.6437
26.3954
25.7382
24.3814
22.1218
18.7032
13.9199
7.85433
1.10138
-5.67426
-11.9544
-17.4095
-21.8653
-25.251
-27.556
-28.797
-28.9787
-28.1085
-26.2401
-23.4603
-19.8459
-15.4777
-10.4489
-4.86998
1.12581
7.37607
13.6837
19.8161
25.5163
30.5358
34.684
37.8752
40.0671
41.2383
41.4608
40.8753
39.6358
37.8974
35.8066
33.4968
31.0883
28.6914
26.4079
24.3408
22.6481
21.2781
20.1752
19.2342
18.3569
17.4067
16.2863
15.0259
13.7873
12.7905
12.2204
12.173
12.6314
13.4687
14.4958
15.5321
16.4729
17.2965
18.0097
18.6181
19.121
19.541
19.8951
20.1841
20.4446
20.7075
21.014
21.4034
21.8379
22.1678
22.2517
22.0143
21.1748
19.2566
16.2191
12.6196
9.10632
6.2983
4.75161
4.50437
-14.9612
-15.1798
-16.2951
-18.0003
-19.6777
-20.9441
-21.639
-21.702
-21.1205
-20.0309
-18.7078
-17.4719
-16.5467
-15.9888
-15.7357
-15.6247
-15.5577
-15.6314
-16.0195
-16.4205
-16.5539
-16.6207
-16.9889
-17.8889
-19.4182
-21.5443
-24.1362
-27.0075
-29.9554
-32.7909
-35.3568
-37.5322
-39.2307
-40.3973
-41.0059
-41.0562
-40.5842
-39.6716
-38.3957
-36.7523
-34.7685
-32.4853
-29.9513
-27.2162
-24.3268
-21.3249
-18.2469
-15.1225
-11.9758
-8.82612
-5.68947
-2.58057
0.485105
3.48973
6.4122
9.22821
11.9115
14.4358
16.7776
18.9181
20.8452
22.5541
24.0471
25.3329
26.4245
27.3391
28.0936
28.705
29.1897
29.5641
29.842
30.034
30.1478
30.1877
30.1549
30.0489
29.8704
29.6263
29.3207
28.9223
28.4931
28.0658
27.5728
26.9554
26.295
25.738
25.3773
25.2045
25.1518
25.1703
25.2793
25.5321
25.936
26.3779
26.6645
26.6971
26.5477
26.3143
25.8131
24.5532
21.999
17.9148
12.3087
5.59574
-1.48865
-8.30137
-14.4207
-19.6186
-23.7875
-26.8858
-28.9073
-29.8718
-29.8359
-28.852
-26.9553
-24.1788
-20.5822
-16.2407
-11.2436
-5.69748
0.269076
6.49883
12.7997
18.9433
24.6753
29.7458
33.9586
37.2063
39.4303
40.6264
40.8844
40.3396
39.1441
37.4512
35.4051
33.1373
30.7663
28.3996
26.1367
24.0648
22.1964
20.6154
19.4031
18.4602
17.6803
16.8932
15.945
14.8125
13.6496
12.7016
12.1732
12.162
12.6501
13.512
14.5495
15.579
16.5126
17.3342
18.0489
18.6578
19.1631
19.5693
19.8973
20.182
20.4376
20.6979
20.9976
21.3874
21.8365
22.181
22.2618
22.0514
21.2574
19.2437
16.0285
12.2755
8.7212
5.93042
4.30939
3.85857
-17.3665
-18.3487
-20.1827
-21.9309
-23.2409
-24.0493
-24.3469
-24.1372
-23.3846
-22.1132
-20.4854
-18.8052
-17.3633
-16.2454
-15.5781
-15.5221
-15.788
-16.1696
-16.8821
-17.9359
-19.2302
-20.7426
-22.4969
-24.4955
-26.7017
-29.0454
-31.4418
-33.8062
-36.0611
-38.1379
-39.9742
-41.5134
-42.7039
-43.4976
-43.8491
-43.7268
-43.1289
-42.0713
-40.5971
-38.7484
-36.5707
-34.1129
-31.4265
-28.5621
-25.5672
-22.4836
-19.3466
-16.1836
-13.0153
-9.85584
-6.71544
-3.60265
-0.527273
2.49712
5.45154
8.3114
11.0479
13.6306
16.0314
18.2273
20.2033
21.9531
23.4786
24.7887
25.8973
26.823
27.5844
28.1984
28.6832
29.056
29.3312
29.5203
29.6323
29.6725
29.6433
29.5449
29.377
29.1423
28.8468
28.492
28.0817
27.5765
26.9631
26.3253
25.7677
25.3682
25.1543
25.0921
25.122
25.2113
25.3843
25.6903
26.1212
26.5504
26.7716
26.7592
26.5625
26.1299
25.1656
22.8815
18.7952
13.2563
6.91457
0.324497
-6.0896
-12.0484
-17.3727
-21.9398
-25.6601
-28.4673
-30.3147
-31.1798
-31.0886
-30.0618
-28.1357
-25.3512
-21.7642
-17.4455
-12.4798
-6.96816
-1.03232
5.17802
11.4772
17.6401
23.4108
28.5352
32.8177
36.1311
38.4078
39.6593
39.9758
39.4917
38.3592
36.7297
34.745
32.5334
30.211
27.8824
25.6396
23.563
21.7141
20.1684
18.856
17.7808
16.8451
15.965
15.0775
14.1679
13.3087
12.6416
12.3072
12.3893
12.8858
13.6998
14.6725
15.656
16.5662
17.3747
18.0784
18.6788
19.1805
19.5904
19.9237
20.2049
20.4545
20.7031
21.0009
21.388
21.852
22.2223
22.3187
22.0901
21.1529
18.83
15.3309
11.5605
8.13292
5.45977
3.83073
3.27593
-19.6706
-20.9672
-22.348
-23.5498
-24.4365
-24.947
-25.0717
-24.8193
-24.1679
-23.1168
-21.7159
-20.1535
-18.7675
-17.8621
-17.4859
-17.666
-18.3512
-19.4571
-20.9537
-22.7703
-24.8024
-26.9511
-29.1506
-31.3636
-33.5703
-35.757
-37.9056
-39.9861
-41.9539
-43.7517
-45.3146
-46.5761
-47.4751
-47.9604
-47.9947
-47.5623
-46.6666
-45.3277
-43.5773
-41.4583
-39.0221
-36.3248
-33.4239
-30.3752
-27.2296
-24.0307
-20.8133
-17.6023
-14.4129
-11.2519
-8.11984
-5.01493
-1.93713
1.1077
4.10474
7.02925
9.8481
12.5238
15.0197
17.3054
19.3603
21.1751
22.7507
24.0969
25.2303
26.1733
26.9455
27.5647
28.051
28.4225
28.6947
28.8803
28.9894
29.0288
29.0022
28.9106
28.7526
28.5257
28.2258
27.8491
27.3958
26.8661
26.2733
25.6507
25.0759
24.6659
24.5002
24.5755
24.8282
25.18
25.5866
26.0536
26.5671
26.9995
27.1893
27.0228
26.435
25.1406
22.6169
18.4442
13.0993
7.19784
1.18111
-4.72288
-10.3756
-15.6544
-20.4287
-24.5695
-27.9642
-30.5254
-32.1914
-32.9319
-32.758
-31.6754
-29.7142
-26.9155
-23.3337
-19.0362
-14.1033
-8.62956
-2.72777
3.46247
9.7639
15.9539
21.7731
26.9666
31.3304
34.72
37.0623
38.3779
38.7604
38.3469
37.2895
35.7372
33.8277
31.6854
29.4226
27.1404
24.93
22.8711
21.0224
19.4246
18.0658
16.9405
15.9783
15.111
14.2994
13.5494
12.9201
12.5003
12.3708
12.5764
13.1067
13.8882
14.8037
15.7371
16.6131
17.4007
18.093
18.6894
19.191
19.6033
19.9406
20.2257
20.4826
20.7418
21.0475
21.4405
21.9212
22.3223
22.4341
22.0983
20.8021
18.0687
14.417
10.7531
7.4486
4.84925
3.21858
2.64696
-19.7196
-20.7879
-21.7861
-22.7785
-23.6051
-24.1632
-24.4224
-24.3589
-23.9738
-23.2979
-22.4326
-21.5817
-20.9719
-20.7447
-20.9647
-21.6919
-22.9167
-24.5411
-26.4449
-28.5199
-30.6856
-32.8937
-35.1206
-37.3555
-39.5891
-41.8051
-43.9741
-46.052
-47.9822
-49.6997
-51.1366
-52.2267
-52.9103
-53.1393
-52.8854
-52.145
-50.9275
-49.2542
-47.1629
-44.7042
-41.9384
-38.9312
-35.7495
-32.4577
-29.1135
-25.7655
-22.4503
-19.1912
-15.9975
-12.8656
-9.78196
-6.72827
-3.68786
-0.652648
2.37128
5.36092
8.27778
11.0734
13.698
16.1084
18.2748
20.1825
21.8308
23.2316
24.4068
25.3797
26.1708
26.8023
27.2962
27.6716
27.9452
28.1309
28.2395
28.2792
28.2546
28.1674
28.0159
27.7955
27.4992
27.1197
26.6528
26.1014
25.485
24.8514
24.2782
23.8636
23.7115
23.8693
24.299
24.901
25.5738
26.2624
26.9121
27.377
27.4622
26.9844
25.4999
22.789
18.5453
13.2888
7.63496
1.93708
-3.66388
-9.11049
-14.3287
-19.2081
-23.6192
-27.4364
-30.552
-32.8816
-34.3645
-34.9727
-34.6998
-33.5521
-31.5522
-28.7385
-25.1634
-20.8922
-16.0011
-10.5782
-4.72622
1.42718
7.7151
13.9193
19.7816
25.0452
29.4897
32.9524
35.3629
36.7471
37.2047
36.8751
35.9092
34.4517
32.6347
30.5771
28.3866
26.1616
23.991
21.9522
20.1051
18.4915
17.1216
15.9824
15.031
14.2163
13.5068
12.906
12.4574
12.2262
12.2667
12.5979
13.194
13.9857
14.8773
15.7768
16.6231
17.3891
18.0672
18.6565
19.1583
19.579
19.9318
20.2364
20.5163
20.801
21.1279
21.5395
22.0299
22.4558
22.5577
22.0384
20.326
17.2471
13.54
9.94906
6.70226
4.14491
2.52595
1.97057
-16.8177
-17.5894
-18.5915
-19.6845
-20.688
-21.5027
-22.0959
-22.4347
-22.5467
-22.4976
-22.404
-22.4136
-22.6663
-23.2663
-24.2656
-25.65
-27.356
-29.3018
-31.414
-33.6359
-35.9314
-38.2817
-40.6756
-43.0998
-45.5323
-47.9391
-50.2734
-52.4773
-54.4848
-56.2256
-57.6296
-58.6297
-59.1661
-59.1927
-58.685
-57.6418
-56.0717
-54.0064
-51.4961
-48.6059
-45.4108
-41.9911
-38.4275
-34.7963
-31.1661
-27.5939
-24.123
-20.7796
-17.5712
-14.4853
-11.4918
-8.54911
-5.61412
-2.65373
0.344717
3.36692
6.37122
9.29581
12.0715
14.6362
16.9443
18.9723
20.7175
22.1954
23.4304
24.4463
25.2682
25.9225
26.4331
26.8208
27.1032
27.2952
27.4083
27.4514
27.4302
27.347
27.2
26.9837
26.6891
26.3063
25.8288
25.2612
24.6278
23.9815
23.4042
22.9922
22.8461
23.0368
23.5594
24.3262
25.2064
26.0836
26.8378
27.2845
27.1696
26.1145
23.5404
19.4474
14.2205
8.57635
2.91958
-2.60961
-7.98454
-13.1784
-18.1212
-22.7095
-26.8296
-30.3733
-33.2459
-35.3697
-36.6859
-37.1647
-36.8002
-35.5888
-33.551
-30.7235
-27.1574
-22.9166
-18.0749
-12.7142
-6.928
-0.831262
5.41984
11.6164
17.5062
22.8245
27.3326
30.8578
33.3306
34.7837
35.3226
35.0881
34.2276
32.8796
31.1688
29.2076
27.0991
24.9385
22.8136
20.8023
18.9678
17.3552
15.9844
14.8503
13.9286
13.1832
12.5898
12.1475
11.8821
11.8348
12.0377
12.4926
13.1648
13.9879
14.8804
15.7677
16.5993
17.3516
18.0179
18.5993
19.1003
19.5293
19.8986
20.2257
20.533
20.8485
21.2034
21.6308
22.1247
22.5436
22.6067
21.8889
19.8329
16.5016
12.7383
9.17351
5.94258
3.42109
1.82718
1.29645
-11.4135
-12.1687
-13.2224
-14.4363
-15.6708
-16.8419
-17.8846
-18.7915
-19.5975
-20.371
-21.2056
-22.1993
-23.4287
-24.9277
-26.6837
-28.656
-30.7996
-33.0792
-35.4722
-37.9657
-40.5514
-43.2209
-45.96
-48.7452
-51.5407
-54.2981
-56.9569
-59.4459
-61.6868
-63.5982
-65.1005
-66.1192
-66.5882
-66.4593
-65.712
-64.3447
-62.3741
-59.847
-56.8304
-53.4072
-49.671
-45.7203
-41.6524
-37.559
-33.5221
-29.6107
-25.878
-22.3586
-19.0646
-15.9823
-13.0712
-10.2675
-7.49568
-4.68566
-1.7906
1.19827
4.24573
7.27879
10.2049
12.9358
15.4038
17.5725
19.4364
21.0114
22.3208
23.3922
24.2572
24.9453
25.483
25.8926
26.1928
26.3992
26.5238
26.5761
26.5624
26.4855
26.3444
26.1336
25.8434
25.4626
24.9828
24.4079
23.7632
23.104
22.5156
22.0983
21.9483
22.1451
22.6965
23.5255
24.4897
25.4346
26.1915
26.5246
26.0676
24.2907
20.7798
15.765
10.0829
4.31702
-1.29935
-6.72458
-11.9595
-16.9754
-21.7049
-26.0579
-29.9381
-33.2535
-35.9208
-37.868
-39.039
-39.4041
-38.957
-37.6884
-35.6174
-32.7796
-29.2255
-25.0186
-20.2311
-14.9412
-9.23376
-3.21325
2.97651
9.14066
15.0317
20.3782
24.9242
28.4915
31.0137
32.5307
33.1528
33.0204
32.2749
31.0459
29.4495
27.5911
25.5691
23.4762
21.4
19.4203
17.6042
16.0022
14.6438
13.5338
12.6615
12.0025
11.5378
11.2622
11.1855
11.3259
11.6932
12.2752
13.0323
13.9032
14.8175
15.7127
16.546
17.2964
17.9587
18.5361
19.0359
19.4684
19.8473
20.1896
20.5171
20.8556
21.2307
21.6639
22.1405
22.5243
22.5193
21.6327
19.3385
15.8369
12.0186
8.43808
5.24575
2.74369
1.18193
0.675441
-5.3454
-6.07292
-7.13152
-8.38294
-9.78785
-11.2746
-12.809
-14.3843
-16.0159
-17.7348
-19.5734
-21.5527
-23.6754
-25.9288
-28.2949
-30.7609
-33.3232
-35.9864
-38.7597
-41.6525
-44.6687
-47.8023
-51.0347
-54.3327
-57.6474
-60.9145
-64.0554
-66.9798
-69.5901
-71.7879
-73.4805
-74.5839
-75.0233
-74.7479
-73.7516
-72.0367
-69.6325
-66.6006
-63.0269
-59.0148
-54.6774
-50.1312
-45.489
-40.8549
-36.322
-31.9704
-27.866
-24.0573
-20.5698
-17.3981
-14.5009
-11.8013
-9.19587
-6.57437
-3.84501
-0.959801
2.06814
5.16429
8.21394
11.0991
13.7267
16.0445
18.0392
19.7199
21.1117
22.2489
23.167
23.8988
24.4731
24.9139
25.241
25.4703
25.6145
25.6834
25.6835
25.6184
25.4877
25.2867
25.0062
24.6344
24.1619
23.5906
22.9447
22.2792
21.6816
21.2584
21.0942
21.2742
21.8
22.594
23.5134
24.3913
25.0311
25.135
24.2313
21.7871
17.5936
12.1007
6.24336
0.472546
-5.08565
-10.4304
-15.5602
-20.4379
-24.9985
-29.1635
-32.8508
-35.9809
-38.4795
-40.2802
-41.3292
-41.5996
-41.0827
-39.7671
-37.6705
-34.8279
-31.2895
-27.1187
-22.3882
-17.1738
-11.5552
-5.62806
0.478718
6.58593
12.4508
17.7912
22.3426
25.9249
28.4777
30.0487
30.7515
30.7226
30.0947
28.9867
27.5053
25.7488
23.8112
21.7838
19.7547
17.8064
16.0116
14.4275
13.093
12.0227
11.2173
10.6606
10.3358
10.2329
10.3481
10.6798
11.2188
11.9397
12.7982
13.7364
14.6924
15.6131
16.4621
17.2219
17.8891
18.4684
18.969
19.403
19.7854
20.1336
20.4684
20.8131
21.1893
21.6081
22.0446
22.367
22.278
21.2681
18.8405
15.2568
11.4086
7.81335
4.64288
2.1654
0.634199
0.160311
-0.471835
-1.09819
-2.05864
-3.31722
-4.8497
-6.63647
-8.64915
-10.8557
-13.2262
-15.7306
-18.3368
-21.0143
-23.74
-26.504
-29.3116
-32.1808
-35.1374
-38.2095
-41.4225
-44.7944
-48.3316
-52.0259
-55.8518
-59.7648
-63.7003
-67.5739
-71.2838
-74.7161
-77.7525
-80.2779
-82.188
-83.3931
-83.8165
-83.4041
-82.1754
-80.1166
-77.2745
-73.729
-69.5868
-64.9742
-60.0273
-54.8824
-49.6674
-44.4962
-39.4655
-34.6567
-30.1399
-25.9749
-22.2058
-18.8475
-15.8712
-13.1984
-10.7066
-8.25238
-5.70071
-2.9581
-0.00300987
3.10354
6.23251
9.24045
12.0103
14.4692
16.5875
18.3713
19.8483
21.0559
22.033
22.8153
23.4336
23.9133
24.2751
24.5354
24.7072
24.8004
24.822
24.7762
24.6635
24.48
24.2179
23.8658
23.4138
22.8618
22.2308
21.5727
20.9727
20.5361
20.3599
20.5017
20.9561
21.6413
22.4199
23.1282
23.5527
23.34
21.9689
18.9815
14.372
8.6928
2.81398
-2.91369
-8.41674
-13.6999
-18.7481
-23.5166
-27.9437
-31.9602
-35.4947
-38.4771
-40.8398
-42.5216
-43.4718
-43.6668
-43.0953
-41.7443
-39.6316
-36.7917
-33.2743
-29.143
-24.4728
-19.3395
-13.82
-7.99747
-1.98625
4.04303
9.85001
15.1478
19.6684
23.2348
25.7957
27.4064
28.1816
28.2507
27.735
26.7415
25.3673
23.7042
21.8426
19.8726
17.884
15.9633
14.1892
12.6267
11.3237
10.3052
9.5809
9.14049
8.96736
9.0452
9.35797
9.8876
10.6086
11.4833
12.462
13.4877
14.5048
15.4675
16.3456
17.1255
17.8059
18.3933
18.8984
19.3347
19.7179
20.0651
20.3955
20.7298
21.0857
21.4673
21.8419
22.0832
21.9066
20.8221
18.3605
14.7815
10.9351
7.33407
4.18235
1.73207
0.229774
-0.223848
2.30373
1.76448
0.872784
-0.366024
-1.99018
-3.99091
-6.32701
-8.93503
-11.7422
-14.6763
-17.6769
-20.7039
-23.7423
-26.8001
-29.9033
-33.0881
-36.3945
-39.8601
-43.5153
-47.3794
-51.4571
-55.7351
-60.1789
-64.7298
-69.3042
-73.7949
-78.0759
-82.0104
-85.4613
-88.3021
-90.4232
-91.7342
-92.1635
-91.6698
-90.2406
-87.8831
-84.649
-80.6301
-75.9534
-70.7697
-65.2414
-59.5287
-53.7786
-48.1161
-42.6406
-37.4283
-32.5412
-28.0384
-23.9754
-20.3877
-17.2666
-14.544
-12.0903
-9.74203
-7.33157
-4.72647
-1.8682
1.2115
4.37414
7.4687
10.3503
12.9241
15.1477
17.0231
18.5787
19.8544
20.8914
21.7273
22.3942
22.9183
23.3208
23.6186
23.8248
23.9498
24.0008
23.9825
23.8964
23.7401
23.5073
23.188
22.7726
22.2593
21.6651
21.0363
20.4531
20.0177
19.8166
19.8997
20.2487
20.7773
21.3582
21.8368
21.9869
21.4221
19.6261
16.24
11.3923
5.68139
-0.155384
-5.8307
-11.2864
-16.5178
-21.4978
-26.1771
-30.4973
-34.3961
-37.8091
-40.675
-42.9288
-44.5156
-45.3878
-45.5255
-44.9137
-43.54
-41.4222
-38.5946
-35.1078
-31.0248
-26.4255
-21.378
-15.9585
-10.2448
-4.34138
1.58907
7.30798
12.5268
16.9792
20.4968
23.0403
24.6725
25.5061
25.6602
25.2427
24.3486
23.0659
21.4806
19.6801
17.7544
15.7954
13.8942
12.1366
10.5962
9.32994
8.37223
7.74091
7.42992
7.42091
7.69066
8.21093
8.9485
9.86337
10.9069
12.0237
13.1564
14.2535
15.2747
16.1953
17.0056
17.7071
18.3084
18.822
19.2625
19.6458
19.9885
20.3075
20.6203
20.9406
21.2675
21.5641
21.7127
21.4528
20.3367
17.9241
14.4241
10.6162
7.02649
3.89985
1.47924
0.00379868
-0.437671
3.03151
2.55455
1.72822
0.528575
-1.10402
-3.16333
-5.59802
-8.32577
-11.2541
-14.2992
-17.4004
-20.5275
-23.6795
-26.8789
-30.1628
-33.575
-37.1598
-40.9565
-44.9952
-49.2936
-53.8532
-58.6543
-63.6519
-68.7719
-73.9108
-78.9394
-83.7102
-88.0671
-91.8593
-94.9548
-97.2472
-98.6521
-99.104
-98.5675
-97.0228
-94.4579
-90.9266
-86.5318
-81.4193
-75.7636
-69.7514
-63.566
-57.3731
-51.3108
-45.4831
-39.9614
-34.7964
-30.0376
-25.7407
-21.9524
-18.6807
-15.875
-13.4032
-11.1014
-8.7808
-6.27704
-3.49781
-0.458191
2.72259
5.87302
8.83014
11.4832
13.7826
15.7278
17.3477
18.6829
19.7758
20.6644
21.3812
21.9524
22.3996
22.7395
22.9857
23.1486
23.2359
23.2528
23.202
23.0825
22.8898
22.6164
22.2539
21.7994
21.2658
20.6923
20.1489
19.7271
19.5036
19.516
19.7389
20.0876
20.4475
20.6722
20.5266
19.6176
17.467
13.805
8.83249
3.14298
-2.64204
-8.27313
-13.6914
-18.8769
-23.7948
-28.3966
-32.6275
-36.4291
-39.7412
-42.5166
-44.6821
-46.1934
-47.0054
-47.1018
-46.4642
-45.0843
-42.9778
-40.1774
-36.7331
-32.7087
-28.1798
-23.2211
-17.9053
-12.3059
-6.52051
-0.707634
4.89483
9.99916
14.3459
17.7811
20.28
21.9116
22.7834
23.0017
22.6603
21.8426
20.6286
19.0995
17.3401
15.4404
13.4953
11.6018
9.85337
8.33285
7.10646
6.21709
5.68937
5.52016
5.68811
6.16262
6.90316
7.86186
8.98488
10.2133
11.4858
12.7442
13.9392
15.0349
16.0111
16.8619
17.5919
18.2125
18.7382
19.1848
19.5686
19.9054
20.2103
20.4968
20.7743
21.0378
21.2492
21.3019
20.9672
19.8516
17.5465
14.1876
10.463
6.91073
3.8197
1.43261
-0.0181769
-0.453582
2.39186
1.9949
1.27314
0.166481
-1.38208
-3.36436
-5.72511
-8.37765
-11.2288
-14.1999
-17.2404
-20.3317
-23.4833
-26.7249
-30.0976
-33.6468
-37.4162
-41.4436
-45.7576
-50.3734
-55.2888
-60.4778
-65.8853
-71.4236
-76.9729
-82.3862
-87.4995
-92.1438
-96.1596
-99.4115
-101.798
-103.244
-103.695
-103.13
-101.517
-98.8369
-95.1393
-90.5293
-85.1627
-79.2285
-72.9294
-66.4628
-60.0066
-53.7076
-47.6746
-41.9785
-36.6623
-31.7645
-27.3335
-23.4194
-20.0432
-17.1632
-14.6634
-12.371
-10.0854
-7.62496
-4.87936
-1.85212
1.3395
4.51679
7.5091
10.2005
12.5401
14.5274
16.1915
17.5732
18.7139
19.651
20.416
21.0347
21.5281
21.9128
22.2025
22.4078
22.5367
22.5951
22.5866
22.5118
22.3684
22.1513
21.8541
21.4743
21.0212
20.5258
20.045
19.6541
19.4168
19.3576
19.4507
19.6187
19.7597
19.7326
19.2989
18.0782
15.6447
11.7958
6.76349
1.11103
-4.62489
-10.2168
-15.6
-20.7443
-25.6105
-30.15
-34.3102
-38.0365
-41.273
-43.9679
-46.0664
-47.5209
-48.2897
-48.3587
-47.7072
-46.3294
-44.2422
-41.4774
-38.0837
-34.1246
-29.6749
-24.8107
-19.6034
-14.1232
-8.46511
-2.78697
2.67205
7.62725
11.8317
15.1509
17.5763
19.1815
20.0654
20.3201
20.0253
19.2544
18.0805
16.5804
14.8364
12.9392
10.9875
9.08514
7.33513
5.83031
4.64607
3.83275
3.41988
3.40543
3.76391
4.45712
5.43247
6.62771
7.97544
9.40622
10.8527
12.2549
13.5649
14.7501
15.7942
16.695
17.4607
18.1055
18.6464
19.1009
19.4859
19.8168
20.1069
20.3665
20.6005
20.8005
20.9285
20.8905
20.4917
19.3974
17.2372
14.071
10.4794
6.99816
3.95763
1.60929
0.181633
-0.252979
1.44146
1.12796
0.495053
-0.513465
-1.94693
-3.79803
-6.01434
-8.51466
-11.2138
-14.0431
-16.962
-19.9599
-23.052
-26.2702
-29.6557
-33.2521
-37.1009
-41.2373
-45.6876
-50.4643
-55.5618
-60.9491
-66.5647
-72.3122
-78.0625
-83.659
-88.9281
-93.6934
-97.7905
-101.082
-103.474
-104.911
-105.347
-104.798
-103.202
-100.533
-96.8343
-92.2078
-86.811
-80.8373
-74.4943
-67.9834
-61.4855
-55.1494
-49.085
-43.3623
-38.0215
-33.0962
-28.6324
-24.6829
-21.2743
-18.3698
-15.8536
-13.5475
-11.2467
-8.7672
-5.99988
-2.95322
0.250178
3.42981
6.41846
9.10653
11.4488
13.4484
15.1348
16.5474
17.7257
18.7047
19.514
20.1782
20.7172
21.1475
21.4824
21.7326
21.9065
22.0106
22.0492
22.0245
21.9362
21.7816
21.5566
21.2597
20.8977
20.494
20.0916
19.7475
19.5094
19.3913
19.3688
19.3748
19.3181
19.0612
18.368
16.882
14.2309
10.2607
5.21074
-0.396688
-6.08827
-11.6466
-16.998
-22.1041
-26.9235
-31.4084
-35.5086
-39.1722
-42.3469
-44.9826
-47.0298
-48.4431
-49.1827
-49.2354
-48.5797
-47.2146
-45.1571
-42.4377
-39.1043
-35.2196
-30.8578
-26.0952
-21.0019
-15.6468
-10.1253
-4.59887
0.690255
5.4629
9.48987
12.6604
14.9828
16.5324
17.3972
17.6544
17.3712
16.6122
15.4446
13.9405
12.18
10.255
8.2694
6.33641
4.57021
3.07492
1.93537
1.20782
0.924131
1.08051
1.64575
2.57362
3.79986
5.2485
6.83881
8.49059
10.1297
11.6935
13.1346
14.4232
15.5467
16.5066
17.3146
17.9883
18.5474
19.0114
19.3983
19.7236
19.9994
20.2335
20.4272
20.5691
20.6225
20.5052
20.0553
18.9962
17.0022
14.0684
10.6597
7.28919
4.31992
2.01834
0.613636
0.175236
0.979326
0.6863
0.0834821
-0.864549
-2.2064
-3.93792
-6.01369
-8.36262
-10.9101
-13.5968
-16.3892
-19.2798
-22.2866
-25.4398
-28.7785
-32.3436
-36.1737
-40.3013
-44.7499
-49.5298
-54.6334
-60.0284
-65.6524
-71.4088
-77.1687
-82.7759
-88.0581
-92.839
-96.954
-100.266
-102.674
-104.117
-104.573
-104.034
-102.446
-99.8074
-96.172
-91.642
-86.3706
-80.5455
-74.3662
-68.0257
-61.6963
-55.5201
-49.6012
-44.0058
-38.7734
-33.9396
-29.5535
-25.67
-22.3135
-19.4407
-16.928
-14.5933
-12.2353
-9.68232
-6.84551
-3.75424
-0.542346
2.61354
5.5608
8.20637
10.517
12.5013
14.189
15.6173
16.822
17.8349
18.6831
19.3891
19.9717
20.4464
20.8264
21.1223
21.3427
21.4945
21.5828
21.6108
21.5801
21.4899
21.3384
21.125
20.8551
20.5455
20.2268
19.9389
19.7144
19.5591
19.449
19.3262
19.1071
18.6572
17.7485
16.0536
13.2482
9.21328
4.17964
-1.3761
-7.02676
-12.5564
-17.8797
-22.9513
-27.7283
-32.1648
-36.2128
-39.823
-42.9461
-45.5343
-47.5414
-48.9247
-49.6457
-49.6916
-49.0411
-47.698
-45.6791
-43.0142
-39.7501
-35.9489
-31.6838
-27.0304
-22.0574
-16.8342
-11.4604
-6.10491
-1.0131
3.54467
7.36181
10.3536
12.5438
14.0065
14.8171
15.0389
14.7282
13.9423
12.7421
11.1945
9.37775
7.38609
5.33154
3.33937
1.53775
0.0437989
-1.04777
-1.6765
-1.81149
-1.46246
-0.668935
0.513574
2.00924
3.72938
5.58072
7.47231
9.32259
11.0653
12.6531
14.0584
15.272
16.2992
17.1558
17.8628
18.4428
18.918
19.3077
19.6278
19.8902
20.101
20.2591
20.3511
20.3421
20.1608
19.6747
18.661
16.8426
14.1674
10.9872
7.77155
4.90107
2.659
1.27954
0.834108
1.22604
0.90786
0.272984
-0.661043
-1.94287
-3.58058
-5.5412
-7.76503
-10.1866
-12.7528
-15.433
-18.2206
-21.1298
-24.1888
-27.4329
-30.8992
-34.6218
-38.6292
-42.9412
-47.5652
-52.4916
-57.689
-63.0984
-68.6303
-74.1651
-79.558
-84.6484
-89.2714
-93.2718
-96.5165
-98.903
-100.363
-100.859
-100.39
-98.8928
-96.3973
-92.9711
-88.7161
-83.775
-78.3199
-72.532
-66.586
-60.638
-54.8162
-49.2152
-43.8969
-38.9036
-34.2792
-30.08
-26.3596
-23.1309
-20.3337
-17.8334
-15.4487
-12.9933
-10.3239
-7.38829
-4.24727
-1.04518
2.05404
4.92265
7.49113
9.74121
11.6871
13.3584
14.7882
16.0084
17.0467
17.9271
18.6699
19.2923
19.8091
20.2325
20.5732
20.8398
21.0393
21.1775
21.2584
21.2847
21.2574
21.1764
21.042
20.8581
20.6365
20.3981
20.1692
19.9696
19.8005
19.6362
19.4249
19.0872
18.4919
17.4226
15.5825
12.6882
8.64243
3.65745
-1.83625
-7.4442
-12.9463
-18.2439
-23.2842
-28.0233
-32.4168
-36.4186
-39.9823
-43.061
-45.6093
-47.5838
-48.9439
-49.6525
-49.6983
-49.0606
-47.7472
-45.7746
-43.1719
-39.9854
-36.2758
-32.1154
-27.5778
-22.731
-17.647
-12.4338
-7.27063
-2.4054
1.90516
5.4818
8.26681
10.2962
11.6391
12.3579
12.5034
12.1235
11.2681
9.99083
8.35303
6.43139
4.32533
2.15839
0.0717993
-1.7891
-3.29225
-4.33227
-4.8461
-4.80703
-4.23594
-3.18494
-1.72154
0.0662038
2.07792
4.20924
6.35918
8.43857
10.3769
12.1261
13.6604
14.974
16.0763
16.9871
17.7312
18.335
18.8229
19.2162
19.532
19.7821
19.9721
20.0996
20.1506
20.0923
19.8631
19.3561
18.3954
16.7531
14.3498
11.4356
8.41958
5.68153
3.51773
2.16959
1.71575
1.90595
1.65403
0.99763
0.0527839
-1.17501
-2.71287
-4.55181
-6.64853
-8.94793
-11.4015
-13.9776
-16.6654
-19.4729
-22.4214
-25.5398
-28.8591
-32.4081
-36.2102
-40.2807
-44.6234
-49.2277
-54.0641
-59.0806
-64.1997
-69.319
-74.3139
-79.0447
-83.3657
-87.1362
-90.2294
-92.5409
-93.9922
-94.5311
-94.1506
-92.8225
-90.5896
-87.5195
-83.7075
-79.2806
-74.3877
-69.1845
-63.8209
-58.4309
-53.1244
-47.9838
-43.0691
-38.4319
-34.1309
-30.2294
-26.7697
-23.7373
-21.0444
-18.5446
-16.0673
-13.4592
-10.6283
-7.57795
-4.40454
-1.25267
1.74169
4.48698
6.94206
9.10375
10.9903
12.6288
14.0474
15.2727
16.328
17.2339
18.0082
18.6665
19.2222
19.6871
20.0711
20.3828
20.6294
20.8169
20.9498
21.0317
21.0648
21.0499
20.988
20.8817
20.7388
20.5733
20.402
20.2359
20.0722
19.8837
19.6213
19.2071
18.5144
17.3416
15.421
12.5024
8.50049
3.60238
-1.80643
-7.35746
-12.824
-18.0926
-23.1014
-27.804
-32.1567
-36.1156
-39.6364
-42.6748
-45.1874
-47.1334
-48.4747
-49.1758
-49.2267
-48.6082
-47.3316
-45.4123
-42.8795
-39.7784
-36.1688
-32.121
-27.7061
-22.9914
-18.0542
-13.0154
-8.06758
-3.46111
0.565361
3.86508
6.40915
8.24372
9.42983
10.0159
10.0416
9.54682
8.57372
7.16743
5.38324
3.29832
1.02083
-1.3097
-3.53177
-5.47947
-7.00372
-7.98763
-8.36701
-8.1216
-7.2887
-5.93878
-4.15641
-2.04433
0.285767
2.72021
5.14959
7.47766
9.62944
11.5554
13.2314
14.655
15.8399
16.8104
17.5958
18.2258
18.7282
19.1263
19.4388
19.678
19.8497
19.9513
19.9692
19.8736
19.6117
19.0977
18.1956
16.7243
14.5943
11.9719
9.19648
6.62773
4.56649
3.25997
2.79835
2.51213
2.44936
1.91102
1.02041
-0.110799
-1.5085
-3.1894
-5.12915
-7.28626
-9.61833
-12.0914
-14.6861
-17.3996
-20.2426
-23.2344
-26.3978
-29.7549
-33.3234
-37.1138
-41.1267
-45.3505
-49.758
-54.3041
-58.9238
-63.5322
-68.026
-72.2884
-76.1955
-79.6244
-82.4616
-84.6102
-85.9955
-86.5716
-86.3213
-85.239
-83.361
-80.7466
-77.4799
-73.6689
-69.4374
-64.9137
-60.2212
-55.4702
-50.7523
-46.1406
-41.6988
-37.4936
-33.5965
-30.0663