/*--------------------------------*- C++ -*----------------------------------*\
  =========                 |
  \\      /  F ield         | OpenFOAM: The Open Source CFD Toolbox
   \\    /   O peration     | Website:  https://openfoam.org
    \\  /    A nd           | Version:  9
     \\/     M anipulation  |
\*---------------------------------------------------------------------------*/
FoamFile
{
    format      ascii;
    class       volScalarField;
    location    "0.068";
    object      k;
}
// * * * * * * * * * * * * * * * * * * * * * * * * * * * * * * * * * * * * * //

dimensions      [0 2 -2 0 0 0 0];

internalField   nonuniform List<scalar> 
12225
(
1.97501e-05
2.00131e-05
2.00939e-05
1.95111e-05
1.85766e-05
1.8498e-05
1.9052e-05
2.19456e-05
3.34919e-05
5.05051e-05
5.97912e-05
6.25814e-05
6.23404e-05
5.81346e-05
4.63132e-05
3.81189e-05
3.38283e-05
3.47091e-05
2.00019e-05
2.00436e-05
2.00501e-05
1.99891e-05
1.98706e-05
1.98621e-05
1.99584e-05
2.04651e-05
2.20047e-05
2.62425e-05
3.20173e-05
3.72172e-05
4.08312e-05
4.20119e-05
4.182e-05
4.10699e-05
3.89347e-05
3.55626e-05
2.00073e-05
1.91663e-05
1.90332e-05
1.8394e-05
1.73115e-05
1.68625e-05
1.6779e-05
1.67847e-05
1.6968e-05
1.77425e-05
1.89767e-05
2.0405e-05
2.13872e-05
2.20558e-05
2.34408e-05
2.4549e-05
2.49697e-05
2.49736e-05
2.00666e-05
2.08852e-05
2.22862e-05
2.23558e-05
2.14256e-05
2.03292e-05
1.97846e-05
1.94058e-05
1.93186e-05
1.93896e-05
1.94694e-05
1.93797e-05
1.90046e-05
1.89198e-05
1.90177e-05
1.94405e-05
1.99704e-05
2.01803e-05
2.14548e-05
2.20701e-05
2.16279e-05
2.12924e-05
2.11272e-05
2.10553e-05
2.10598e-05
2.1185e-05
2.15427e-05
2.24968e-05
2.38361e-05
2.54029e-05
2.87015e-05
3.32697e-05
3.59814e-05
3.6439e-05
3.62302e-05
3.48123e-05
2.01804e-05
2.04037e-05
2.08615e-05
2.313e-05
2.85039e-05
2.85504e-05
2.47129e-05
2.2601e-05
2.23132e-05
2.27255e-05
2.55487e-05
3.7882e-05
8.57316e-05
0.000154245
0.000187877
0.000193056
0.000189299
0.000172814
2.12023e-05
2.17586e-05
2.29724e-05
2.31367e-05
2.33067e-05
2.32532e-05
2.21737e-05
2.09695e-05
2.06898e-05
2.07461e-05
2.13523e-05
2.41324e-05
3.4873e-05
6.24249e-05
8.49679e-05
9.69838e-05
9.92109e-05
9.79375e-05
2.06518e-05
3.02643e-05
7.08298e-05
7.18071e-05
4.89931e-05
3.04323e-05
2.38207e-05
2.16504e-05
2.10892e-05
2.1022e-05
2.11197e-05
2.17618e-05
2.40986e-05
2.70403e-05
2.98818e-05
3.27101e-05
3.38875e-05
3.46426e-05
2.37491e-05
6.65863e-05
6.72697e-05
4.25586e-05
2.7781e-05
2.2976e-05
2.20936e-05
2.28948e-05
2.88977e-05
3.30735e-05
3.32665e-05
3.26877e-05
3.03394e-05
2.62644e-05
2.41159e-05
2.33733e-05
2.31697e-05
2.32502e-05
2.02451e-05
2.71272e-05
6.91255e-05
7.93642e-05
5.46755e-05
3.08405e-05
2.36865e-05
2.25888e-05
2.35943e-05
2.91082e-05
3.28569e-05
3.29923e-05
3.00858e-05
2.50431e-05
2.26968e-05
2.17632e-05
2.14619e-05
2.14105e-05
2.17423e-05
3.2354e-05
3.39753e-05
3.00643e-05
2.47354e-05
2.4127e-05
2.72666e-05
2.87577e-05
2.75113e-05
2.57015e-05
2.49e-05
2.34556e-05
2.2035e-05
2.14523e-05
2.13807e-05
2.16306e-05
2.27916e-05
2.34379e-05
2.09668e-05
2.22103e-05
2.20472e-05
2.10303e-05
2.10602e-05
2.29967e-05
3.30566e-05
3.87361e-05
3.77649e-05
3.10298e-05
2.50843e-05
2.27294e-05
2.21048e-05
2.21553e-05
2.30913e-05
2.81805e-05
4.20604e-05
4.8129e-05
2.0068e-05
2.11494e-05
2.12987e-05
2.06712e-05
2.13591e-05
2.77871e-05
3.53205e-05
3.5545e-05
3.21671e-05
2.60669e-05
2.29052e-05
2.16607e-05
2.13775e-05
2.14471e-05
2.21514e-05
2.52636e-05
3.89644e-05
5.74409e-05
2.03773e-05
2.02364e-05
2.02871e-05
2.04653e-05
2.25245e-05
3.01495e-05
3.36544e-05
3.32438e-05
2.92167e-05
2.42783e-05
2.21555e-05
2.14687e-05
2.13766e-05
2.15268e-05
2.23983e-05
2.59111e-05
3.04817e-05
3.70323e-05
2.07905e-05
2.09192e-05
2.09758e-05
2.13025e-05
2.30685e-05
2.52479e-05
2.57826e-05
2.53859e-05
2.34525e-05
2.17656e-05
2.10825e-05
2.09746e-05
2.10428e-05
2.12912e-05
2.19442e-05
2.43628e-05
2.9107e-05
3.69627e-05
2.10544e-05
2.22646e-05
2.21312e-05
2.15138e-05
2.14656e-05
2.17224e-05
2.19869e-05
2.20323e-05
2.19459e-05
2.14595e-05
2.09828e-05
2.07914e-05
2.07398e-05
2.07234e-05
2.07343e-05
2.09338e-05
2.17327e-05
2.44356e-05
2.10946e-05
2.15282e-05
2.10398e-05
2.06023e-05
2.04919e-05
2.04901e-05
2.05441e-05
2.06198e-05
2.07345e-05
2.10423e-05
2.20432e-05
2.27204e-05
2.27726e-05
2.23898e-05
2.1682e-05
2.14274e-05
2.14244e-05
2.15757e-05
2.08908e-05
2.09823e-05
2.0782e-05
2.08623e-05
2.10389e-05
2.10623e-05
2.08548e-05
2.06726e-05
2.07406e-05
2.13672e-05
2.28773e-05
2.39994e-05
2.43614e-05
2.42421e-05
2.34258e-05
2.23815e-05
2.18218e-05
2.16128e-05
2.10019e-05
2.26881e-05
2.27678e-05
2.30182e-05
2.40301e-05
2.41663e-05
2.36305e-05
2.28007e-05
2.25385e-05
2.25078e-05
2.25593e-05
2.28645e-05
2.3857e-05
2.45683e-05
2.47852e-05
2.47754e-05
2.45152e-05
2.35294e-05
2.01658e-05
2.05127e-05
2.15526e-05
2.3557e-05
2.42808e-05
2.45821e-05
2.51523e-05
2.51156e-05
2.40421e-05
2.23056e-05
2.14731e-05
2.12472e-05
2.12647e-05
2.15488e-05
2.2418e-05
2.2982e-05
2.31838e-05
2.31987e-05
2.066e-05
2.12345e-05
2.1249e-05
2.11724e-05
2.12081e-05
2.14948e-05
2.26231e-05
2.70438e-05
3.00408e-05
3.00712e-05
2.80018e-05
2.52143e-05
2.44238e-05
2.44038e-05
2.48309e-05
2.53609e-05
2.54006e-05
2.53217e-05
2.00455e-05
2.08431e-05
2.4251e-05
2.65176e-05
2.62282e-05
2.45568e-05
2.27004e-05
2.20945e-05
2.20389e-05
2.2234e-05
2.28269e-05
2.31332e-05
2.32062e-05
2.31904e-05
2.30262e-05
2.27576e-05
2.25244e-05
2.23765e-05
2.01824e-05
2.19359e-05
2.4268e-05
2.35732e-05
2.16619e-05
2.10485e-05
2.10967e-05
2.19439e-05
2.43195e-05
2.56083e-05
2.59341e-05
2.58964e-05
2.53914e-05
2.39278e-05
2.28601e-05
2.22783e-05
2.20199e-05
2.19453e-05
2.03891e-05
2.19032e-05
2.3941e-05
2.4134e-05
2.27801e-05
2.23819e-05
2.36029e-05
3.41402e-05
4.61329e-05
4.61144e-05
3.83608e-05
2.96703e-05
2.52254e-05
2.29959e-05
2.19298e-05
2.14692e-05
2.13063e-05
2.12755e-05
2.15602e-05
2.26033e-05
2.25425e-05
2.20975e-05
2.21425e-05
2.2505e-05
2.33467e-05
2.53851e-05
3.28898e-05
4.7814e-05
5.2483e-05
4.97129e-05
3.8681e-05
3.04429e-05
2.60127e-05
2.3622e-05
2.23052e-05
2.15201e-05
2.16278e-05
2.10876e-05
2.04647e-05
2.04868e-05
2.0878e-05
2.19554e-05
2.56379e-05
3.08093e-05
3.16706e-05
3.0439e-05
2.89701e-05
2.89313e-05
3.0674e-05
3.62695e-05
3.85098e-05
3.8433e-05
3.64821e-05
3.12671e-05
2.13466e-05
2.02963e-05
2.00482e-05
2.0049e-05
2.0179e-05
2.04307e-05
2.05089e-05
2.05716e-05
2.06111e-05
2.05489e-05
2.01598e-05
1.96517e-05
1.93483e-05
1.91646e-05
1.90361e-05
1.88883e-05
1.86116e-05
1.8021e-05
2.00294e-05
1.60694e-05
1.35652e-05
1.41097e-05
1.50538e-05
1.54069e-05
1.54902e-05
1.54911e-05
1.53642e-05
1.53387e-05
1.54503e-05
1.58629e-05
1.61406e-05
1.61633e-05
1.60178e-05
1.54914e-05
1.51394e-05
1.50132e-05
2.04437e-05
2.44315e-05
2.60818e-05
2.54366e-05
2.34594e-05
2.27043e-05
2.27207e-05
2.36212e-05
2.70456e-05
3.81029e-05
5.37739e-05
6.31531e-05
6.57397e-05
6.54351e-05
6.32928e-05
5.65843e-05
5.03536e-05
4.65823e-05
7.81074e-05
9.58128e-05
9.84014e-05
8.16616e-05
5.46204e-05
4.88278e-05
5.27728e-05
8.30646e-05
0.000158565
0.000203413
0.000218248
0.000218537
0.000206514
0.00016151
0.00012419
0.000105446
9.86524e-05
9.77596e-05
0.112812
0.141822
0.134575
0.133217
0.117578
0.107222
0.112364
0.111517
0.108108
0.0998539
0.0940007
0.0900964
0.0880998
0.0868228
0.0866187
0.0867922
0.0872041
0.0879725
0.0891324
0.0905764
0.0918065
0.094173
0.0976526
0.101151
0.105873
0.10809
0.111919
0.110037
0.0829465
0.0606705
0.083863
0.0997249
0.115907
0.124402
0.137215
0.171973
0.19882
0.228221
0.226146
0.212374
0.233143
0.283217
0.188578
0.0948152
0.0780913
0.0768533
0.0827393
0.0900879
0.0986385
0.105338
0.110691
0.116313
0.122699
0.129115
0.134617
0.138975
0.143408
0.148391
0.152807
0.156644
0.159541
0.162116
0.167974
0.177447
0.19114
0.205867
0.215313
0.216259
0.214439
0.23175
0.307799
0.363804
0.365986
0.341095
0.258599
0.111761
0.0704137
0.0664936
0.0475137
0.0383248
0.0343366
0.0262067
0.0226202
0.0202125
0.0184835
0.0179955
0.0180509
0.018854
0.0191425
0.019453
0.0197734
0.0199229
0.020017
0.0200532
0.0200523
0.0199073
0.019714
0.0194839
0.0191362
0.0188519
0.0184476
0.0179972
0.0175512
0.0170248
0.0163912
0.0158037
0.0150666
0.0142679
0.0136225
0.0132058
0.0127405
0.0123272
0.0120233
0.0118239
0.0116266
0.0114793
0.0112815
0.0111058
0.0110125
0.0107966
0.0106174
0.0104581
0.0103293
0.0102545
0.0102089
0.0101896
0.0102049
0.0103227
0.0104797
0.0105027
0.0104771
0.0103371
0.0100992
0.00992418
0.00985768
0.00986499
0.0099208
0.0100958
0.0102945
0.0104051
0.0104377
0.0104331
0.0103704
0.0102316
0.0100261
0.00974717
0.00948415
0.00919609
0.00887047
0.0086012
0.00835945
0.00809525
0.0079067
0.00781487
0.00774609
0.00773181
0.00774415
0.0077624
0.00781681
0.00791568
0.00807171
0.00841067
0.00859508
0.00897296
0.00921324
0.00866424
0.00926546
0.0191899
0.0321098
0.0323863
0.025831
0.0155319
0.00713796
0.00368705
0.00318414
0.00311617
0.00266381
0.0018342
0.00123098
0.00102927
0.11308
0.124586
0.155615
0.146355
0.123038
0.0902203
0.07076
0.0635157
0.0596297
0.057288
0.057065
0.0571763
0.0574345
0.0580799
0.058605
0.0596015
0.0604305
0.0612292
0.0620849
0.0628696
0.064578
0.0659619
0.0689386
0.0713182
0.0762761
0.0813917
0.0874078
0.0997066
0.0981995
0.0932274
0.0875026
0.0754339
0.0696619
0.072936
0.100453
0.161302
0.183408
0.21815
0.21847
0.196413
0.16451
0.132445
0.0989335
0.0864005
0.0921759
0.10021
0.105615
0.113379
0.11671
0.120201
0.127597
0.135118
0.139741
0.144079
0.149986
0.155929
0.161737
0.166868
0.170776
0.173701
0.175797
0.177674
0.182048
0.189836
0.200228
0.210265
0.217089
0.219321
0.22341
0.247195
0.275181
0.270571
0.190979
0.124936
0.0995071
0.0551644
0.0414599
0.0348617
0.0305689
0.0297037
0.0296435
0.0306586
0.0332986
0.0358877
0.0380838
0.0408393
0.0427781
0.0443836
0.0464262
0.0473907
0.0485019
0.0492268
0.0495277
0.0496266
0.0495421
0.0489761
0.0483534
0.0476118
0.0464607
0.0454716
0.0443926
0.0431027
0.0422868
0.0409944
0.0392057
0.036887
0.0337608
0.0302766
0.0264262
0.0230316
0.0199527
0.0172657
0.015098
0.0138222
0.0130118
0.012567
0.0123453
0.012252
0.0122242
0.0121219
0.0119184
0.0116505
0.0112653
0.0108219
0.0103666
0.0098704
0.00938019
0.00894554
0.00854798
0.00815288
0.00775073
0.00735821
0.0070036
0.0067015
0.00644658
0.00623578
0.00606641
0.0059325
0.00583292
0.00576163
0.0057141
0.0056743
0.00563327
0.00560989
0.00558185
0.00558187
0.00559928
0.00562188
0.00566062
0.00575114
0.00586121
0.00596375
0.00599921
0.00598721
0.00598788
0.00600202
0.00606866
0.00619503
0.00625487
0.00625197
0.0062308
0.00625388
0.00637298
0.00670096
0.00798441
0.00835907
0.00882446
0.01068
0.0216966
0.0370429
0.0337722
0.016758
0.00715028
0.00552386
0.00574061
0.00554994
0.00563459
0.00684873
0.00777646
0.00590301
0.105055
0.177199
0.166512
0.120763
0.0706615
0.0544273
0.0507856
0.0510227
0.0520893
0.054356
0.0563932
0.0586963
0.060967
0.0630102
0.0646736
0.0662446
0.0675747
0.0683977
0.0690453
0.0693361
0.0697834
0.0700325
0.0705823
0.0709994
0.0715494
0.0724758
0.0744504
0.0782297
0.0876623
0.0902603
0.0892694
0.08454
0.0788954
0.0810989
0.154248
0.205996
0.195484
0.178124
0.13182
0.107089
0.0893448
0.0838702
0.0824399
0.0854585
0.0903513
0.0921563
0.0926867
0.0933165
0.0938325
0.0974141
0.103856
0.111411
0.119978
0.131056
0.142196
0.152346
0.161947
0.169466
0.174708
0.178158
0.180837
0.183351
0.185797
0.189471
0.195578
0.20363
0.2121
0.220448
0.227798
0.230172
0.208938
0.114789
0.0753637
0.0571308
0.0416299
0.0342773
0.0324828
0.0322296
0.0335708
0.0381779
0.0447952
0.0518195
0.0577399
0.0624821
0.0673798
0.072519
0.0765297
0.080509
0.0849042
0.0869853
0.0887766
0.0896899
0.0899359
0.0896327
0.0878821
0.0858626
0.0838006
0.0806867
0.0776355
0.0748417
0.0714644
0.0680572
0.0652377
0.0629862
0.0611461
0.0590427
0.057014
0.0551011
0.0520827
0.0481151
0.0418249
0.0338877
0.0255456
0.0195223
0.0155698
0.0133278
0.0121986
0.0116261
0.011406
0.0113802
0.0114071
0.0115039
0.0115575
0.0115572
0.0114922
0.011212
0.0107206
0.0102206
0.00969079
0.00911598
0.00852518
0.00795446
0.0074155
0.00693283
0.0065232
0.00618648
0.00588887
0.00561634
0.00534197
0.00504577
0.00480808
0.00469567
0.00468544
0.00473937
0.00487337
0.00507551
0.00533528
0.0054858
0.00572241
0.00630084
0.00637776
0.00628618
0.00605165
0.00592693
0.00599907
0.0063102
0.0073011
0.00871429
0.00878168
0.00849148
0.00768886
0.00607704
0.00536195
0.00523748
0.00543419
0.00643211
0.00730125
0.00895527
0.0193851
0.0391355
0.0370288
0.0171861
0.00963106
0.0101974
0.0107736
0.00851595
0.00585228
0.00475804
0.00459408
0.0041358
0.10081
0.110482
0.0787443
0.0517134
0.045881
0.0465312
0.0488621
0.0542788
0.0576333
0.0602308
0.0619486
0.0634641
0.0646673
0.0659754
0.0672109
0.068598
0.0700161
0.0710439
0.0713019
0.0712689
0.0712309
0.071282
0.0714223
0.0715599
0.0720301
0.072837
0.0745248
0.0762371
0.0795351
0.0834345
0.0864422
0.0854494
0.0817137
0.0830535
0.170514
0.188256
0.137349
0.0965233
0.0824631
0.0764143
0.0738468
0.0730005
0.0712878
0.067474
0.0601301
0.0572156
0.0563656
0.0584042
0.0658102
0.0745451
0.086048
0.100861
0.117299
0.135695
0.153094
0.166694
0.173302
0.176578
0.179049
0.181874
0.185291
0.18912
0.192108
0.194296
0.197669
0.20551
0.214459
0.216919
0.212228
0.171593
0.0863129
0.0554069
0.0424347
0.0365169
0.0341319
0.0338203
0.0359239
0.0427463
0.0542171
0.0645372
0.0701042
0.0760795
0.0843826
0.0914767
0.0988813
0.107874
0.113664
0.116829
0.119536
0.12065
0.12123
0.121413
0.121332
0.120122
0.117586
0.114701
0.110974
0.10582
0.0996091
0.0936286
0.0869928
0.0803755
0.0746394
0.0695752
0.0656619
0.0626968
0.0609098
0.0598486
0.0586182
0.0574017
0.0556918
0.0526891
0.046701
0.0354792
0.0241789
0.0170921
0.0133014
0.0116203
0.010984
0.0106422
0.0103908
0.0101523
0.00992952
0.00974441
0.00960382
0.00952436
0.00948134
0.00941524
0.00924596
0.00880665
0.00833681
0.00794992
0.00758164
0.00719316
0.00677596
0.00637102
0.00606576
0.00591219
0.0058678
0.00587205
0.00594879
0.00621398
0.00654158
0.00717152
0.0076791
0.00809019
0.00876741
0.00927962
0.00930163
0.00890084
0.00794214
0.00667788
0.00633514
0.0066217
0.00808118
0.0117992
0.0199797
0.0286891
0.0300732
0.0290495
0.0262632
0.0195281
0.012369
0.00814535
0.00644355
0.00616934
0.00628482
0.00765348
0.0193961
0.0415515
0.0401331
0.0185497
0.012048
0.0143768
0.0159163
0.0169415
0.0127182
0.00697043
0.0046091
0.00393847
0.0444239
0.058363
0.0476604
0.0430496
0.0453033
0.0521361
0.05587
0.0573077
0.0581365
0.0585693
0.0594411
0.0607457
0.0619049
0.0638254
0.0655032
0.0672174
0.0693829
0.0707523
0.0711736
0.0712117
0.0710106
0.0707862
0.0707875
0.0709115
0.0714928
0.0740673
0.0762927
0.0776201
0.0797095
0.0820246
0.0838535
0.0842501
0.0819146
0.0873469
0.180736
0.143741
0.0850258
0.0694192
0.0644161
0.0621268
0.0597647
0.0544027
0.0476962
0.0439305
0.0424511
0.0422112
0.0441937
0.050292
0.0582821
0.0685573
0.0828987
0.100624
0.121559
0.143508
0.162651
0.171457
0.175369
0.178053
0.181884
0.187722
0.194836
0.198845
0.200148
0.201126
0.204338
0.208077
0.209037
0.198428
0.153646
0.0741246
0.0474386
0.0381029
0.0350317
0.0343608
0.0350562
0.038815
0.0486362
0.0623779
0.0686174
0.0741926
0.0833143
0.093098
0.104379
0.117652
0.124599
0.126839
0.127508
0.127616
0.127512
0.127408
0.127391
0.127421
0.127572
0.127142
0.125491
0.123206
0.120091
0.116408
0.111393
0.105393
0.0978245
0.0892201
0.0805877
0.0720753
0.066597
0.0628356
0.0604194
0.0587918
0.0577146
0.0571846
0.0564586
0.0553287
0.0533
0.0492981
0.0389669
0.0247051
0.015732
0.0112341
0.00972966
0.00969169
0.0098131
0.0098947
0.00986776
0.00968231
0.0093344
0.00896394
0.00860149
0.00826494
0.00791187
0.0074796
0.00699546
0.00658611
0.00633461
0.00619685
0.00610386
0.0060442
0.00602879
0.00603447
0.00607593
0.00624861
0.00678744
0.00783628
0.00911209
0.0103989
0.0115902
0.012259
0.0123452
0.0120895
0.0112004
0.00905746
0.00651123
0.00599558
0.00656402
0.0100631
0.0213831
0.0448159
0.0727025
0.0981731
0.10345
0.101037
0.0933454
0.0741628
0.0474439
0.0264498
0.0139819
0.00834383
0.00670507
0.00712635
0.0161174
0.0441465
0.0442514
0.0205286
0.0122179
0.0121667
0.0138703
0.0182599
0.0203907
0.015099
0.00731097
0.00462012
0.0238279
0.047365
0.0397208
0.0438248
0.0506838
0.0533563
0.0532596
0.053586
0.0549368
0.0578907
0.0617435
0.0658748
0.0693054
0.0733375
0.0753917
0.0765557
0.0785449
0.0789238
0.07854
0.0775322
0.0753504
0.0736117
0.0726575
0.0723818
0.0726264
0.0745833
0.0805166
0.0821956
0.0820544
0.0825686
0.0832103
0.0836125
0.0813612
0.108405
0.173599
0.0972021
0.0633982
0.055902
0.0531221
0.0504527
0.0450007
0.0378283
0.0341568
0.0325636
0.0320702
0.0321828
0.0344268
0.0394074
0.0457582
0.0543592
0.0677459
0.0872066
0.111737
0.138586
0.16076
0.170168
0.17485
0.179289
0.186019
0.194297
0.198598
0.200058
0.200773
0.201533
0.201983
0.199937
0.183615
0.136355
0.0669325
0.0440184
0.0363583
0.0343197
0.0340948
0.0355962
0.0401536
0.0511882
0.0648935
0.0711879
0.0760221
0.0841779
0.0949754
0.106506
0.119495
0.125691
0.126747
0.126315
0.123911
0.119757
0.11491
0.112349
0.11161
0.112564
0.117332
0.119654
0.120362
0.120183
0.118146
0.115729
0.111517
0.106102
0.0988867
0.0902958
0.0812985
0.071943
0.0647168
0.0590627
0.05492
0.0518954
0.0501269
0.0502484
0.0508006
0.0517503
0.052092
0.0508563
0.0464109
0.0355276
0.0218651
0.0127239
0.00805452
0.00647164
0.00649658
0.00730712
0.00845682
0.00910953
0.00934988
0.00936365
0.00922955
0.00877515
0.00821137
0.00762476
0.00705667
0.00653977
0.0061065
0.00579769
0.00563198
0.00558414
0.00559109
0.00566209
0.00592731
0.00673556
0.00873638
0.011103
0.012892
0.0138047
0.0140334
0.0139872
0.0136966
0.0128408
0.0101323
0.00635502
0.00545622
0.00612637
0.0114327
0.0317983
0.0849546
0.141882
0.174277
0.188324
0.189319
0.187636
0.183144
0.173432
0.149493
0.0959558
0.0481366
0.0216785
0.0103965
0.00798749
0.0119545
0.0395051
0.0456818
0.0242308
0.01268
0.0107206
0.0108215
0.013729
0.0216202
0.022656
0.0153658
0.00710422
0.0366584
0.0525269
0.0357556
0.0452517
0.0480336
0.0480126
0.0501257
0.0546735
0.0635918
0.0752749
0.0887412
0.0995135
0.106959
0.111179
0.110741
0.109081
0.106022
0.101842
0.0984334
0.0938519
0.0876904
0.0828481
0.0794476
0.0769534
0.0762651
0.0773519
0.08406
0.0885577
0.0879598
0.0853117
0.0834139
0.0823869
0.0835352
0.142309
0.152026
0.0709286
0.051442
0.0469767
0.0447764
0.0408245
0.0339856
0.0293473
0.0275685
0.0269322
0.0268459
0.0276983
0.0306698
0.035201
0.0404085
0.0474175
0.0582537
0.0742326
0.0963622
0.123587
0.149094
0.160761
0.166539
0.172373
0.181082
0.189587
0.192939
0.194169
0.194387
0.192535
0.184246
0.163208
0.111835
0.0603108
0.0415846
0.0353125
0.0337638
0.033706
0.0352665
0.0398598
0.0501676
0.0625239
0.0691291
0.072306
0.0759929
0.0828216
0.0918264
0.101624
0.110682
0.112862
0.111678
0.106225
0.0968944
0.0872393
0.0837154
0.0832379
0.0845179
0.0881468
0.0930701
0.0978189
0.100976
0.102293
0.102673
0.102187
0.0998735
0.0957311
0.0891077
0.0809802
0.0719211
0.062164
0.0537116
0.0474569
0.0424
0.0391161
0.0370711
0.0370354
0.0376935
0.0397202
0.0429035
0.0449151
0.0446776
0.0391216
0.0263326
0.0156715
0.00877232
0.00503852
0.0035513
0.00336365
0.00372631
0.0053452
0.00723005
0.00840409
0.00896821
0.00913223
0.00912207
0.00893507
0.00832662
0.00758458
0.00683885
0.00618252
0.00573085
0.00551806
0.00547994
0.00552391
0.00582655
0.00717855
0.0104453
0.0129446
0.0141996
0.0145357
0.014526
0.014328
0.0135627
0.01071
0.00615233
0.00477308
0.00521994
0.0104934
0.0358697
0.117138
0.18474
0.207585
0.212455
0.210353
0.206342
0.203075
0.200498
0.198891
0.195498
0.185341
0.151858
0.0724521
0.0290726
0.0123669
0.0118221
0.029607
0.0431977
0.0297128
0.0141975
0.0110359
0.0108268
0.0118043
0.0190257
0.0258408
0.0239882
0.0128926
0.0460327
0.0532582
0.0239252
0.0427223
0.0444701
0.0476787
0.0569258
0.0762009
0.102862
0.124604
0.13717
0.144231
0.148406
0.14963
0.148937
0.14663
0.141347
0.131211
0.120226
0.111313
0.103628
0.0961735
0.088964
0.0834537
0.0818436
0.0825467
0.0908181
0.0961894
0.0953145
0.0867557
0.0832239
0.0819389
0.0934584
0.151348
0.123466
0.0552598
0.0435917
0.040587
0.0384556
0.0337715
0.0276592
0.0250798
0.0241377
0.0239047
0.0240704
0.0254355
0.0284266
0.0322176
0.0360851
0.0408123
0.0479388
0.0589162
0.0750657
0.0969813
0.122345
0.141275
0.149218
0.154548
0.161979
0.169184
0.171927
0.172717
0.170098
0.156491
0.127999
0.087525
0.0537194
0.0398225
0.0349834
0.0337731
0.0336876
0.0346321
0.0387497
0.0473458
0.0577971
0.0658898
0.0692682
0.0712964
0.0739442
0.078069
0.083014
0.0871067
0.0880525
0.0869009
0.0830438
0.0779508
0.0748658
0.0742175
0.0746709
0.0765418
0.0796158
0.0831928
0.0864224
0.0887389
0.0894307
0.0892077
0.0876116
0.0843872
0.081041
0.0765462
0.0691279
0.0610016
0.0524495
0.0464059
0.0426326
0.0387338
0.033375
0.0274093
0.0238656
0.0225323
0.0229955
0.0246951
0.0282784
0.0320014
0.0342691
0.0340295
0.0273252
0.0163724
0.0092638
0.00501316
0.00275669
0.00182182
0.00163428
0.00173063
0.00235747
0.00437976
0.00649741
0.00793517
0.0087605
0.00913551
0.00923952
0.00922633
0.00900464
0.00808631
0.00683517
0.00599874
0.00566415
0.00564362
0.00587842
0.00724428
0.0107303
0.0132164
0.0143227
0.0145338
0.0144407
0.0138638
0.011369
0.00627593
0.00425786
0.00429663
0.00760409
0.029568
0.12129
0.19758
0.220066
0.221278
0.218282
0.209822
0.199842
0.195854
0.195106
0.195847
0.197031
0.196352
0.19077
0.167025
0.0888316
0.031967
0.015391
0.0182127
0.033988
0.0305552
0.0183281
0.0129987
0.0118438
0.0120236
0.0162006
0.026845
0.0278962
0.0209599
0.0485969
0.0523032
0.0175042
0.0414231
0.0447843
0.0570532
0.0878567
0.120162
0.136295
0.145314
0.150752
0.154184
0.156519
0.157297
0.157155
0.156046
0.152363
0.142412
0.130662
0.116916
0.10468
0.0957694
0.0886418
0.0853725
0.0858451
0.0917284
0.100188
0.101795
0.0965536
0.0859559
0.0823187
0.083234
0.111803
0.149277
0.0943477
0.0452389
0.0379013
0.0357946
0.0336685
0.0289254
0.0244995
0.0228822
0.0222772
0.0221527
0.0224157
0.0238058
0.0265744
0.029988
0.0333452
0.0368455
0.0411713
0.0473876
0.0568144
0.0699004
0.0865625
0.105106
0.117017
0.122249
0.126387
0.128605
0.129073
0.125974
0.113601
0.0930433
0.0700047
0.0485146
0.0389673
0.0352411
0.0341336
0.0339391
0.0342753
0.0365238
0.0419503
0.0503842
0.0602182
0.0660515
0.0684163
0.0695318
0.070376
0.071644
0.0731437
0.0736051
0.073392
0.0725067
0.0717659
0.0716135
0.0718358
0.0726916
0.0745968
0.0773205
0.0800417
0.0823443
0.0840964
0.0847275
0.0839222
0.0822503
0.0792026
0.0746677
0.0676121
0.0607117
0.0529917
0.0465377
0.0412338
0.0395211
0.0382404
0.0355876
0.0302652
0.0229003
0.0161427
0.0121739
0.0108375
0.0111385
0.0133076
0.0163515
0.0189663
0.0203182
0.0197234
0.0144114
0.00848788
0.00472342
0.00249444
0.00134954
0.000885818
0.000782093
0.000812289
0.00103706
0.00192475
0.00408962
0.00617266
0.0077851
0.00887531
0.0094673
0.00966673
0.00965789
0.00931608
0.00786923
0.00659741
0.00621005
0.00628806
0.00719907
0.0103528
0.0129157
0.0138439
0.0139118
0.0136638
0.012317
0.00772723
0.00444245
0.0038363
0.00509741
0.0175844
0.0921393
0.193424
0.225578
0.228147
0.22346
0.208433
0.186272
0.167613
0.163328
0.164705
0.169133
0.180398
0.189472
0.190365
0.186992
0.166671
0.0903422
0.0320827
0.0203743
0.0226876
0.0269306
0.0227533
0.0168294
0.0131594
0.0125933
0.0156424
0.0265658
0.0297952
0.026536
0.0493311
0.0487594
0.0149658
0.0427954
0.0509498
0.0846877
0.117571
0.132388
0.141292
0.147215
0.151142
0.153917
0.155936
0.156879
0.156927
0.155677
0.150965
0.139263
0.123879
0.109479
0.0970965
0.0892479
0.0865158
0.087763
0.0938505
0.100667
0.104132
0.102457
0.095239
0.0841991
0.0815851
0.0890357
0.132909
0.143811
0.0709831
0.0383672
0.0335979
0.0321437
0.0302382
0.0260307
0.0229487
0.0218351
0.0213538
0.0212466
0.0214941
0.0227881
0.025396
0.0286089
0.0316597
0.0343996
0.0373453
0.0413378
0.0466187
0.0535958
0.0630124
0.0735102
0.0808159
0.0840316
0.0857161
0.0862777
0.0857343
0.0803227
0.0685965
0.0552085
0.0449051
0.0385665
0.0358413
0.0347504
0.0344479
0.0346376
0.0361816
0.0398331
0.0455016
0.0525934
0.0597703
0.0650111
0.0672444
0.0683934
0.069129
0.069766
0.0704035
0.0709639
0.0712748
0.07157
0.0722949
0.073649
0.0753653
0.0775434
0.0791952
0.0804727
0.0813346
0.081525
0.0803218
0.0775098
0.07326
0.0667428
0.0593275
0.0508681
0.0427001
0.0349834
0.0291343
0.0268897
0.0280391
0.0308416
0.0321751
0.0315253
0.0272875
0.0196428
0.0126327
0.00870008
0.00635233
0.00516235
0.00492393
0.00530269
0.00601338
0.00643181
0.00641398
0.0057935
0.00447515
0.00304097
0.00185153
0.00105561
0.000624301
0.000444048
0.000403678
0.000415413
0.000501915
0.000825446
0.00188568
0.00398341
0.00610853
0.00792286
0.00919275
0.00982052
0.00995045
0.00980304
0.00876329
0.00767224
0.00750542
0.00793158
0.0102036
0.0124523
0.0130701
0.0130492
0.0125899
0.0102083
0.00567753
0.00387588
0.00401962
0.00870921
0.0455968
0.164797
0.224007
0.234504
0.230657
0.210358
0.172914
0.14451
0.12502
0.120414
0.121854
0.127056
0.138226
0.161434
0.18027
0.184181
0.181063
0.15982
0.0799732
0.0320869
0.0234188
0.0213774
0.0204784
0.0173828
0.0131779
0.0126865
0.0158921
0.0262962
0.0301426
0.0287021
0.0494221
0.0456229
0.0151543
0.0468676
0.0661193
0.104143
0.122346
0.132248
0.136534
0.138378
0.140132
0.142753
0.145818
0.148016
0.148299
0.145377
0.136322
0.120378
0.102731
0.0896094
0.0845478
0.0837306
0.0869244
0.0928646
0.0991621
0.102745
0.103975
0.100774
0.0896737
0.0817121
0.0825681
0.104367
0.138515
0.131975
0.0551904
0.0331911
0.0300946
0.0292104
0.0277358
0.0244045
0.0221719
0.0213575
0.0209013
0.0207832
0.0209927
0.0221751
0.0246882
0.0279534
0.031208
0.0337259
0.0357176
0.0380185
0.0413013
0.0457089
0.0513881
0.0586138
0.0639367
0.0652059
0.0654407
0.0652011
0.0631904
0.0580033
0.0502226
0.0432823
0.0400621
0.037902
0.0358121
0.035009
0.0348201
0.035011
0.0364328
0.0395702
0.0446561
0.0515857
0.0587812
0.0641653
0.0670404
0.0685503
0.0696055
0.0703926
0.0711124
0.0720144
0.0731041
0.0744729
0.0759327
0.0773788
0.0783603
0.0790734
0.0790008
0.0781337
0.0760323
0.0721603
0.066155
0.0587397
0.0502385
0.0407147
0.0322475
0.0263132
0.0230508
0.0207396
0.0188253
0.0173653
0.0169357
0.0181711
0.0219179
0.0230201
0.0211761
0.0153054
0.0111202
0.00792434
0.00552164
0.0038345
0.00279084
0.00227141
0.00207951
0.00201537
0.00192904
0.00176239
0.00152067
0.00123435
0.000939876
0.000672071
0.000465192
0.00033401
0.000268655
0.000251837
0.000255886
0.000288077
0.000406259
0.000763636
0.00181516
0.00378894
0.00598266
0.0079976
0.0094199
0.0100711
0.0101653
0.0100147
0.00993693
0.0102004
0.0116008
0.0125637
0.0126527
0.0124988
0.0117304
0.00838546
0.00456551
0.00374409
0.00489178
0.0176077
0.0983753
0.20492
0.236915
0.237312
0.223871
0.178367
0.138062
0.11439
0.097548
0.0902295
0.0905264
0.0941434
0.104115
0.116682
0.145822
0.171842
0.177605
0.173714
0.148028
0.067032
0.0309859
0.0220478
0.0188476
0.0154499
0.0125135
0.0131461
0.0172343
0.0255624
0.0293917
0.0288024
0.0493682
0.0443646
0.0212003
0.0500939
0.0781323
0.107393
0.117973
0.11672
0.112928
0.112365
0.114849
0.120599
0.128116
0.132889
0.134097
0.132272
0.122744
0.104101
0.0868481
0.0811907
0.0806555
0.0832847
0.0886942
0.0942876
0.0987217
0.100629
0.0996287
0.0907486
0.0818426
0.0797964
0.0851253
0.111569
0.138001
0.114545
0.0441372
0.029097
0.0271142
0.0266562
0.0258909
0.0235731
0.0217829
0.0211651
0.0207319
0.0205668
0.0207097
0.021787
0.0242742
0.0278493
0.0314647
0.0342712
0.0360725
0.0377319
0.0395576
0.0410937
0.0432223
0.047165
0.0531237
0.0594475
0.0612439
0.0613705
0.0603778
0.0570178
0.0506864
0.0436374
0.0406089
0.0389367
0.0370678
0.0358416
0.0355832
0.035655
0.0363175
0.0379246
0.0406075
0.0447765
0.0503898
0.05676
0.06265
0.0667371
0.0695421
0.071297
0.0726192
0.0737705
0.0745567
0.0750187
0.0751168
0.0746651
0.0734103
0.0709589
0.0676951
0.0632611
0.0572023
0.0489843
0.0395439
0.031085
0.0246952
0.0206102
0.0182422
0.0171179
0.0167821
0.0167079
0.0163258
0.0155388
0.0144289
0.0137227
0.0142012
0.015334
0.015139
0.0133255
0.0107156
0.00794389
0.00555633
0.00375308
0.00248411
0.00165469
0.00117459
0.000915296
0.000770093
0.000680097
0.000613858
0.000559211
0.000510985
0.000446378
0.000367231
0.00029268
0.000235626
0.000201484
0.000189672
0.000189948
0.000200163
0.000240065
0.00035636
0.000661082
0.00145998
0.00331573
0.00581506
0.00821227
0.00952697
0.0101734
0.011046
0.0119841
0.0123565
0.0123408
0.0121498
0.0116809
0.0102642
0.00602497
0.00359878
0.00356778
0.00685211
0.0339715
0.147043
0.226771
0.242809
0.238142
0.203847
0.153939
0.120291
0.098639
0.0836144
0.0745848
0.0724676
0.0732279
0.0774712
0.088933
0.102464
0.135907
0.165079
0.170427
0.164919
0.132297
0.0559043
0.0284489
0.0201396
0.0148186
0.0131823
0.0148879
0.0184608
0.0233468
0.0274745
0.0276908
0.0491725
0.0436523
0.0273192
0.0510286
0.0816414
0.0993743
0.096376
0.084114
0.0798639
0.0815163
0.088959
0.10164
0.116661
0.126779
0.129413
0.128284
0.119799
0.104406
0.0871656
0.0815309
0.0810336
0.0834683
0.0878197
0.090383
0.0914832
0.0908895
0.0862261
0.0816941
0.0800592
0.0814892
0.0932349
0.125919
0.138216
0.0986802
0.0369077
0.0255719
0.0243543
0.0243959
0.024129
0.022991
0.0216299
0.0211013
0.0207258
0.0204931
0.0205695
0.0215697
0.0242319
0.0285384
0.0340837
0.0377835
0.0393346
0.0404616
0.0418387
0.0426535
0.0432338
0.0437206
0.0442679
0.0457492
0.0487205
0.0539085
0.0602309
0.0621527
0.0619536
0.0600113
0.0569586
0.0541213
0.0510959
0.0471619
0.0429527
0.0398951
0.0388305
0.0387532
0.0391368
0.0397811
0.0407635
0.042163
0.0442466
0.0467885
0.0491205
0.0514556
0.0535836
0.0548582
0.0559396
0.0560877
0.0555183
0.0541409
0.0514026
0.0476411
0.0430954
0.03792
0.0311934
0.0253714
0.0205687
0.0172889
0.0148191
0.0133412
0.0128381
0.0130371
0.0137852
0.014902
0.0153542
0.0152217
0.014175
0.0125177
0.0109437
0.0102407
0.0109066
0.0112346
0.0103949
0.00809204
0.00573829
0.00387948
0.00252426
0.00159661
0.00101387
0.000676933
0.00048462
0.000375563
0.000320042
0.000297889
0.000293702
0.000293185
0.000287446
0.000263393
0.000227764
0.000193586
0.000169337
0.000158366
0.000156685
0.000159029
0.000171069
0.000208423
0.000308005
0.000570296
0.00130811
0.00328646
0.00594679
0.00844708
0.0101819
0.0108187
0.0108427
0.0107107
0.0103563
0.00958826
0.0069646
0.00350141
0.00253855
0.00319105
0.0101881
0.0572003
0.181662
0.238817
0.246745