/*--------------------------------*- C++ -*----------------------------------*\
  =========                 |
  \\      /  F ield         | OpenFOAM: The Open Source CFD Toolbox
   \\    /   O peration     | Website:  https://openfoam.org
    \\  /    A nd           | Version:  9
     \\/     M anipulation  |
\*---------------------------------------------------------------------------*/
FoamFile
{
    format      ascii;
    class       volScalarField;
    location    "0.068";
    object      p;
}
// * * * * * * * * * * * * * * * * * * * * * * * * * * * * * * * * * * * * * //

dimensions      [0 2 -2 0 0 0 0];

internalField   nonuniform List<scalar> 
12225
(
806.001
795.546
785.58
776.855
769.04
761.792
754.944
748.463
742.325
736.508
730.974
725.656
720.474
715.387
710.341
705.288
700.055
694.122
807.019
795.468
785.502
776.805
769.002
761.767
754.93
748.457
742.325
736.507
730.968
725.644
720.46
715.37
710.332
705.282
700.084
694.37
808.143
795.538
785.458
776.742
768.95
761.726
754.896
748.435
742.317
736.507
730.962
725.627
720.437
715.349
710.325
705.294
700.158
694.714
807.884
795.247
785.284
776.625
768.87
761.674
754.866
748.422
742.315
736.504
730.952
725.612
720.429
715.356
710.356
705.37
700.335
695.193
807.554
794.919
785.085
776.491
768.77
761.593
754.799
748.373
742.287
736.489
730.944
725.611
720.44
715.387
710.421
705.501
700.604
695.753
807.365
794.207
784.62
776.276
768.634
761.506
754.746
748.344
742.273
736.485
730.943
725.613
720.454
715.43
710.514
705.683
700.937
696.331
804.213
793.325
784.375
776.041
768.463
761.368
754.638
748.267
742.226
736.459
730.936
725.629
720.502
715.522
710.668
705.933
701.329
696.918
801.473
792.092
783.591
775.706
768.256
761.24
754.561
748.222
742.197
736.448
730.941
725.652
720.553
715.618
710.835
706.202
701.737
697.489
796.022
791.113
783.3
775.386
768.004
761.034
754.404
748.109
742.126
736.412
730.944
725.695
720.64
715.76
711.048
706.511
702.165
698.047
795.266
789.654
782.5
774.981
767.744
760.846
754.272
748.027
742.072
736.388
730.949
725.735
720.724
715.905
711.272
706.83
702.593
698.586
797.016
789.468
782.064
774.614
767.446
760.591
754.077
747.882
741.977
736.336
730.947
725.787
720.835
716.082
711.525
707.169
703.024
699.104
796.379
787.856
781.301
774.21
767.162
760.374
753.916
747.769
741.896
736.292
730.943
725.827
720.927
716.233
711.744
707.465
703.399
699.55
791.076
788.294
781.033
773.877
766.869
760.106
753.689
747.593
741.771
736.219
730.926
725.869
721.028
716.397
711.975
707.765
703.767
699.982
790.597
787.015
780.263
773.425
766.486
759.797
753.45
747.409
741.637
736.139
730.904
725.908
721.135
716.576
712.23
708.094
704.165
700.437
796.596
788.745
780.642
773.039
766.034
759.374
753.074
747.105
741.418
736.003
730.85
725.935
721.243
716.767
712.5
708.441
704.586
700.934
792.814
786.031
779.485
772.273
765.382
758.82
752.607
746.722
741.128
735.811
730.753
725.932
721.331
716.942
712.762
708.787
705.006
701.41
807.013
791.401
780.245
771.897
764.621
758.004
751.865
746.117
740.681
735.509
730.577
725.873
721.386
717.105
713.024
709.14
705.447
701.938
800.666
786.426
776.954
769.346
762.718
756.612
750.815
745.33
740.115
735.11
730.311
725.733
721.368
717.197
713.215
709.417
705.796
702.339
783.08
777.663
771.89
766.001
760.301
754.697
749.299
744.155
739.205
734.424
729.829
725.428
721.22
717.194
713.339
709.651
706.127
702.762
768.673
769.814
766.832
762.542
757.837
752.981
748.088
743.22
738.469
733.883
729.454
725.177
721.068
717.126
713.344
709.72
706.249
702.925
771.137
767.348
764.626
760.773
756.398
751.78
747.057
742.406
737.855
733.418
729.108
724.946
720.926
717.058
713.341
709.776
706.358
703.083
760.666
764.665
763.511
760.011
755.817
751.317
746.722
742.152
737.647
733.236
728.947
724.815
720.83
716.992
713.305
709.768
706.373
703.115
762.781
766.037
763.81
759.928
755.559
750.961
746.344
741.796
737.351
732.995
728.767
724.693
720.751
716.953
713.301
709.792
706.422
703.189
774.432
769.706
765.108
760.516
755.825
751.065
746.371
741.778
737.304
732.943
728.727
724.638
720.705
716.922
713.284
709.789
706.433
703.214
783.063
772.567
766.228
760.838
755.8
750.943
746.231
741.66
737.188
732.856
728.657
724.597
720.679
716.903
713.271
709.783
706.436
703.228
785.497
774.26
767.103
761.311
756.055
751.063
746.285
741.668
737.186
732.833
728.635
724.58
720.662
716.887
713.261
709.778
706.438
703.236
783.69
774.788
767.522
761.512
756.101
751.049
746.248
741.63
737.158
732.814
728.617
724.567
720.654
716.877
713.242
709.759
706.422
703.226
784.913
775.104
767.732
761.714
756.25
751.124
746.268
741.62
737.148
732.81
728.62
724.569
720.654
716.875
713.241
709.759
706.424
703.23
783.407
775.096
767.81
761.753
756.25
751.11
746.258
741.635
737.154
732.818
728.626
724.57
720.647
716.859
713.219
709.735
706.404
703.219
781.939
775.057
767.849
761.81
756.292
751.121
746.25
741.618
737.15
732.831
728.651
724.596
720.665
716.866
713.217
709.728
706.397
703.214
629.428
629.127
628.791
628.942
629.531
630.2
630.482
630.183
629.304
627.982
626.399
624.708
623.019
621.41
619.934
618.627
617.509
616.597
615.902
615.417
615.163
615.132
615.322
615.686
616.211
616.708
617.127
616.845
615.576
613.872
612.113
610.912
609.95
609.008
607.724
605.972
603.959
601.843
599.66
597.596
595.641
593.738
591.691
589.087
585.645
581.892
577.817
573.507
568.942
564.129
559.072
553.79
548.316
542.704
537.018
531.334
525.735
520.33
515.276
510.789
507.127
504.496
503.153
503.1
504.151
505.998
508.145
509.917
510.847
510.696
509.487
507.498
504.424
501.12
501.919
506.451
508.644
504.571
496.443
488.871
481.721
475.04
469.884
465.695
462.659
460.847
460
460.264
461.504
463.596
466.462
469.959
473.943
478.272
482.795
487.364
491.846
496.116
500.07
503.62
506.695
509.239
511.216
512.606
513.41
513.648
513.348
512.546
511.277
509.579
507.484
505.019
502.202
499.06
495.64
492.017
488.243
484.378
480.476
476.572
472.691
468.843
465.035
461.268
457.543
453.855
450.203
446.581
442.986
439.413
435.856
432.31
428.767
425.217
421.654
418.073
414.471
410.845
407.197
403.533
399.874
396.248
392.681
389.186
385.761
382.393
379.07
375.792
372.566
369.409
366.338
363.345
360.389
357.345
354.023
350.269
345.935
341.02
335.787
330.278
324.919
320.357
316.05
313.079
311.569
306.875
299.364
294.382
290.339
284.653
276.175
263.71
246.232
233.152
227.123
227.511
230.017
231.854
232.07
230.657
628.065
627.831
627.583
627.746
628.329
628.727
628.689
628.143
627.133
625.81
624.331
622.806
621.309
619.887
618.576
617.398
616.369
615.499
614.792
614.262
613.916
613.749
613.762
613.927
614.227
614.574
614.819
614.79
613.828
612.889
612.197
610.816
609.489
608.562
607.242
605.306
603.083
601.07
599.401
597.845
595.496
593.274
591.44
588.957
585.748
582.087
578.076
573.747
569.123
564.212
559.035
553.622
548.024
542.304
536.515
530.725
524.984
519.383
514.066
509.258
505.254
502.367
500.859
500.8
502.009
504.226
506.775
509.016
510.373
510.505
509.25
507.515
506.686
503.202
497.403
498.125
501.044
496.013
489.16
483.292
476.849
471.498
466.987
463.316
460.797
459.225
458.749
459.178
460.506
462.703
465.618
469.171
473.205
477.572
482.134
486.734
491.241
495.533
499.503
503.066
506.153
508.709
510.696
512.096
512.906
513.145
512.847
512.051
510.801
509.137
507.092
504.689
501.944
498.862
495.505
491.915
488.162
484.311
480.417
476.518
472.64
468.795
464.99
461.227
457.504
453.82
450.171
446.552
442.959
439.388
435.835
432.292
428.751
425.204
421.643
418.064
414.463
410.837
407.185
403.515
399.848
396.215
392.643
389.147
385.723
382.353
379.026
375.74
372.502
369.335
366.255
363.256
360.303
357.267
353.945
350.185
345.841
340.892
335.633
330.112
324.627
319.957
315.461
311.835
309.972
305.133
298.847
294.669
290.613
284.995
276.357
263.411
245.042
231.509
225.778
226.812
229.856
231.982
232.264
230.777
629.032
629.061
628.685
628.231
627.783
627.259
626.532
625.577
624.45
623.224
621.954
620.68
619.427
618.219
617.078
616.025
615.08
614.263
613.592
613.071
612.667
612.366
612.161
612.042
611.995
612.03
612.099
612.228
612.248
612.235
611.948
611.178
610.497
609.696
608.349
606.409
604.255
601.873
599.818
598.112
596.197
594.015
591.625
588.875
585.707
582.12
578.154
573.824
569.147
564.13
558.799
553.209
547.438
541.565
535.649
529.717
523.785
517.905
512.221
506.977
502.547
499.259
497.606
497.564
498.895
501.255
504.151
506.963
508.919
509.688
509.369
507.096
503.912
501.593
497.261
493.201
491.512
487.38
482.329
477.514
472.393
467.831
463.905
460.733
458.479
457.167
456.822
457.368
458.819
461.117
464.128
467.764
471.874
476.307
480.925
485.574
490.119
494.441
498.432
502.012
505.113
507.684
509.685
511.095
511.909
512.147
511.847
511.056
509.827
508.205
506.228
503.922
501.295
498.347
495.096
491.588
487.896
484.089
480.229
476.358
472.503
468.676
464.887
461.135
457.422
453.746
450.105
446.492
442.905
439.34
435.792
432.256
428.722
425.181
421.624
418.046
414.444
410.816
407.157
403.475
399.792
396.145
392.566
389.07
385.647
382.276
378.94
375.638
372.381
369.19
366.091
363.085
360.134
357.112
353.793
350.005
345.629
340.628
335.284
329.703
324.147
319.227
314.678
310.681
307.775
303.526
298.319
294.192
290.414
285.002
276.12
262.406
242.814
228.344
223.065
225.337
229.462
232.192
232.63
231.105
629.02
629.046
628.641
627.782
626.756
625.723
624.705
623.684
622.645
621.587
620.51
619.418
618.325
617.251
616.22
615.259
614.385
613.606
612.929
612.355
611.895
611.534
611.245
611.012
610.829
610.722
610.7
610.826
611.111
611.609
612.244
612.735
612.763
612.113
610.769
608.741
606.48
604.066
601.61
599.207
596.811
594.352
591.707
588.794
585.573
582.01
578.08
573.758
569.031
563.903
558.414
552.647
546.712
540.71
534.693
528.642
522.503
516.266
510.077
504.286
499.424
495.798
493.948
493.898
495.366
497.914
500.973
503.903
506.066
506.772
505.761
503.559
500.174
496.464
492.921
488.993
485.212
480.967
476.498
472.153
467.873
463.933
460.485
457.769
455.808
454.693
454.556
455.24
456.815
459.222
462.329
466.051
470.236
474.732
479.4
484.09
488.667
493.011
497.017
500.606
503.717
506.3
508.316
509.74
510.561
510.798
510.491
509.697
508.47
506.877
504.96
502.754
500.262
497.472
494.376
491.003
487.416
483.692
479.898
476.081
472.27
468.481
464.722
460.997
457.305
453.646
450.017
446.415
442.836
439.277
435.734
432.204
428.679
425.148
421.599
418.026
414.426
410.794
407.124
403.422
399.712
396.042
392.449
388.952
385.533
382.161
378.811
375.484
372.197
368.972
365.845
362.832
359.891
356.888
353.572
349.738
345.302
340.215
334.747
329.088
323.387
318.245
313.494
309.139
305.738
301.765
296.908
292.915
289.405
284.212
275.207
260.427
239.424
223.458
218.757
223.181
228.929
232.496
233.183
231.587
629.796
629.28
628.225
626.962
625.743
624.629
623.6
622.607
621.605
620.569
619.494
618.39
617.278
616.184
615.133
614.148
613.252
612.466
611.805
611.269
610.847
610.519
610.252
610.02
609.824
609.697
609.672
609.814
610.178
610.857
611.878
612.965
613.5
613.146
611.859
609.938
607.551
604.996
602.391
599.769
597.119
594.411
591.573
588.546
585.277
581.714
577.806
573.499
568.753
563.559
557.96
552.064
546.017
539.944
533.895
527.817
521.597
515.179
508.708
502.563
497.26
493.601
491.653
491.488
492.771
495.032
497.727
500.225
501.846
502.062
500.818
498.405
495.237
491.546
487.899
484.381
480.618
476.372
471.998
467.842
464.004
460.473
457.389
455
453.3
452.368
452.344
453.158
454.83
457.317
460.502
464.281
468.511
473.04
477.727
482.427
487.006
491.343
495.338
498.913
502.014
504.595
506.622
508.064
508.906
509.161
508.871
508.1
506.888
505.335
503.464
501.325
498.941
496.299
493.371
490.158
486.71
483.105
479.411
475.679
471.939
468.208
464.495
460.806
457.144
453.51
449.901
446.315
442.748
439.198
435.662
432.139
428.622
425.102
421.564
417.999
414.402
410.765
407.082
403.352
399.606
395.906
392.296
388.799
385.387
382.011
378.641
375.281
371.951
368.686
365.528
362.511
359.591
356.609
353.288
349.393
344.853
339.653
334.042
328.254
322.402
317.015
312.016
307.385
303.621
299.578
294.868
290.884
287.425
282.373
273.302
257.411
234.841
217.89
214.069
221.032
228.49
232.959
233.909
232.222
629.462
628.628
627.218
625.941
624.825
623.807
622.814
621.795
620.726
619.606
618.446
617.265
616.09
614.949
613.869
612.871
611.972
611.184
610.522
609.995
609.603
609.328
609.12
608.925
608.743
608.621
608.609
608.765
609.141
609.821
610.867
612.092
612.811
612.525
611.396
609.641
607.388
604.917
602.333
599.657
596.891
594.039
591.082
587.983
584.695
581.16
577.307
573.06
568.36
563.179
557.552
551.601
545.501
539.41
533.393
527.396
521.294
515.022
508.698
502.746
497.661
493.959
491.839
491.263
491.929
493.378
495.127
496.68
497.56
497.409
496.025
493.752
491.102
487.929
484.176
480.468
476.879
472.926
468.716
464.736
461.15
457.863
455.011
452.824
451.324
450.509
450.566
451.473
453.212
455.741
458.957
462.746
466.969
471.475
476.123
480.775
485.299
489.579
493.516
497.035
500.086
502.633
504.646
506.093
506.955
507.233
506.972
506.244
505.111
503.632
501.841
499.779
497.486
494.962
492.176
489.118
485.822
482.354
478.782
475.158
471.512
467.86
464.212
460.574
456.951
453.346
449.761
446.196
442.645
439.107
435.578
432.06
428.549
425.039
421.515
417.962
414.373
410.732
407.03
403.265
399.474
395.735
392.11
388.622
385.22
381.836
378.435
375.03
371.652
368.339
365.145
362.119
359.22
356.252
352.907
348.921
344.236
338.887
333.097
327.157
321.164
315.529
310.346
305.44
301.286
297.118
292.469
288.33
284.587
279.489
270.402
253.948
230.397
213.012
210.264
219.264
228.399
233.649
234.76
232.932
627.738
626.947
625.93
624.991
624.091
623.156
622.148
621.063
619.911
618.702
617.457
616.198
614.956
613.764
612.652
611.643
610.748
609.972
609.321
608.805
608.434
608.192
608.015
607.833
607.65
607.528
607.519
607.67
608.016
608.626
609.554
610.627
611.212
610.843
609.867
608.318
606.316
604.045
601.559
598.891
596.088
593.186
590.19
587.076
583.811
580.341
576.588
572.474
567.896
562.826
557.272
551.343
545.226
539.112
533.115
527.223
521.342
515.401
509.472
504.161
499.581
496.076
493.776
492.652
492.49
492.956
493.679
494.303
494.49
493.913
492.496
490.57
488.341
485.456
481.774
477.943
474.336
470.567
466.566
462.771
459.381
456.291
453.604
451.528
450.093
449.444
449.58
450.539
452.303
454.815
457.987
461.711
465.851
470.258
474.794
479.327
483.735
487.902
491.732
495.148
498.107
500.579
502.541
503.961
504.817
505.104
504.866
504.189
503.144
501.775
500.104
498.154
495.961
493.539
490.876
487.964
484.823
481.502
478.062
474.554
471.009
467.445
463.871
460.294
456.72
453.153
449.598
446.055
442.524
439
435.481
431.969
428.465
424.963
421.45
417.908
414.323
410.682
406.963
403.162
399.326
395.55
391.923
388.446
385.049
381.645
378.202
374.744
371.31
367.94
364.689
361.627
358.734
355.765
352.361
348.234
343.345
337.8
331.816
325.689
319.554
313.694
308.302
303.194
298.707
294.443
289.821
285.435
281.246
275.876
266.851
250.549
226.799
209.329
207.823
218.427
228.933
234.605
235.67
233.665
626.28
625.748
625.101
624.387
623.582
622.659
621.619
620.479
619.254
617.96
616.624
615.278
613.962
612.714
611.567
610.549
609.663
608.908
608.282
607.795
607.45
607.219
607.024
606.803
606.602
606.49
606.511
606.681
607.006
607.529
608.275
609.057
609.315
608.905
608.006
606.598
604.792
602.682
600.285
597.65
594.858
591.965
588.982
585.898
582.688
579.309
575.691
571.743
567.39
562.537
557.16
551.326
545.214
539.045
532.995
527.127
521.409
515.833
510.541
505.51
501.266
497.948
495.613
494.195
493.52
493.344
493.374
493.285
492.787
491.77
490.373
488.772
486.804
484.013
480.424
476.679
473.118
469.46
465.626
461.98
458.743
455.844
453.312
451.314
449.975
449.376
449.549
450.503
452.217
454.638
457.689
461.268
465.246
469.48
473.835
478.186
482.416
486.418
490.096
493.375
496.211
498.579
500.46
501.83
502.659
502.94
502.718
502.084
501.118
499.86
498.317
496.498
494.42
492.102
489.547
486.763
483.768
480.598
477.296
473.908
470.464
466.987
463.488
459.976
456.455
452.932
449.411
445.897
442.388
438.88
435.372
431.866
428.367
424.876
421.378
417.851
414.276
410.629
406.891
403.058
399.188
395.392
391.766
388.297
384.891
381.451
377.953
374.434
370.935
367.484
364.134
361.007
358.106
355.105
351.586
347.267
342.149
336.4
330.232
323.91
317.605
311.525
305.873
300.619
295.867
291.491
286.903
282.313
277.722
271.985
263.094
247.548
224.7
207.891
206.805
218.956
230.185
235.808
236.583
234.345
625.721
625.351
624.873
624.267
623.496
622.566
621.498
620.309
619.009
617.623
616.189
614.751
613.361
612.066
610.909
609.917
609.081
608.379
607.801
607.341
606.982
606.657
606.307
605.942
605.669
605.563
605.643
605.871
606.218
606.686
607.25
607.688
607.68
607.183
606.278
604.924
603.218
601.19
598.841
596.238
593.481
590.629
587.693
584.666
581.535
578.26
574.783
571.028
566.899
562.298
557.164
551.498
545.436
539.202
533.031
527.068
521.362
515.923
510.851
506.251
502.341
499.253
497.015
495.552
494.695
494.19
493.719
492.983
491.864
490.523
489.196
487.88
486.146
483.486
480.002
476.364
472.929
469.474
465.868
462.353
459.165
456.35
453.965
452.079
450.83
450.272
450.432
451.323
452.928
455.202
458.07
461.436
465.181
469.171
473.291
477.399
481.395
485.177
488.657
491.768
494.462
496.712
498.503
499.812
500.61
500.886
500.681
500.086
499.188
498.028
496.605
494.91
492.947
490.728
488.272
485.598
482.73
479.692
476.518
473.242
469.897
466.503
463.075
459.625
456.159
452.682
449.2
445.717
442.233
438.749
435.258
431.763
428.269
424.784
421.3
417.791
414.224
410.58
406.828
402.972
399.082
395.28
391.657
388.185
384.755
381.262
377.696
374.106
370.526
366.96
363.461
360.251
357.318
354.248
350.57
346.05
340.747
334.846
328.536
322.039
315.535
309.214
303.305
297.822
292.809
288.249
283.683
279.019
274.169
268.197
259.606
245.412
224.8
209.663
209.571
221.256
232.073
237.127
237.434
234.922
626.149
625.868
625.462
624.892
624.13
623.199
622.124
620.905
619.553
618.101
616.594
615.082
613.621
612.268
611.074
610.063
609.233
608.563
608.028
607.574
607.136
606.626
606.03
605.457
605.066
604.929
605.037
605.315
605.699
606.153
606.594
606.785
606.549
605.948
604.974
603.602
601.915
599.901
597.557
594.968
592.245
589.442
586.565
583.605
580.547
577.351
573.969
570.336
566.374
561.993
557.1
551.648
545.689
539.398
533.056
526.944
521.116
515.72
510.813
506.492
502.888
500.075
498.043
496.682
495.781
495.035
494.104
492.777
491.161
489.615
488.393
487.343
485.917
483.589
480.376
476.855
473.465
470.171
466.844
463.581
460.568
457.888
455.569
453.769
452.549
451.975
452.083
452.875
454.331
456.418
459.051
462.146
465.596
469.285
473.103
476.926
480.649
484.176
487.428
490.346
492.885
495.018
496.725
497.981
498.756
499.029
498.833
498.263
497.42
496.352
495.046
493.472
491.615
489.488
487.116
484.53
481.759
478.826
475.756
472.577
469.318
466
462.639
459.248
455.834
452.404
448.963
445.514
442.061
438.601
435.133
431.656
428.175
424.698
421.223
417.728
414.179
410.539
406.781
402.913
399.019
395.227
391.608
388.119
384.643
381.078
377.431
373.761
370.081
366.348
362.659
359.353
356.366
353.197
349.366
344.706
339.301
333.315
326.905
320.262
313.566
306.994
300.782
294.994
289.673
284.844
280.229
275.584
270.667
264.722
256.746
244.527
227.318
214.669
214.95
225.014
234.338
238.399
238.158
235.374
627.53
627.293
626.915
626.363
625.623
624.719
623.661
622.447
621.094
619.633
618.106
616.562
615.057
613.653
612.408
611.352
610.484
609.773
609.171
608.628
608.041
607.328
606.508
605.742
605.225
605.021
605.1
605.377
605.774
606.205
606.511
606.487
606.066
605.353
604.274
602.843
601.119
599.067
596.685
594.079
591.366
588.596
585.763
582.85
579.828
576.653
573.282
569.665
565.751
561.464
556.705
551.397
545.534
539.27
532.831
526.453
520.452
514.963
510.108
505.983
502.659
500.153
498.4
497.231
496.372
495.47
494.201
492.455
490.493
488.785
487.601
486.743
485.661
483.84
481.158
477.977
474.718
471.514
468.36
465.313
462.481
459.915
457.72
455.995
454.819
454.241
454.288
454.962
456.245
458.099
460.458
463.241
466.357
469.71
473.196
476.708
480.142
483.403
486.417
489.132
491.51
493.526
495.156
496.37
497.125
497.389
497.184
496.611
495.8
494.813
493.624
492.172
490.422
488.382
486.084
483.566
480.865
478.007
475.016
471.915
468.73
465.48
462.182
458.848
455.487
452.103
448.702
445.288
441.866
438.435
434.995
431.543
428.08
424.61
421.14
417.654
414.121
410.493
406.742
402.881
399.007
395.238
391.618
388.091
384.545
380.894
377.162
373.401
369.594
365.633
361.729
358.307
355.245
351.976
348.039
343.305
337.841
331.786
325.285
318.511
311.654
304.877
298.389
292.285
286.637
281.485
276.706
272.071
267.248
261.573
254.447
244.46
231.084
221.282
221.669
229.622
236.669
239.486
238.707
235.696
629.777
629.563
629.196
628.656
627.941
627.067
626.034
624.846
623.513
622.059
620.525
618.959
617.417
615.961
614.644
613.506
612.549
611.747
611.051
610.404
609.712
608.904
608.013
607.177
606.584
606.31
606.328
606.555
606.888
607.18
607.245
606.969
606.377
605.516
604.303
602.784
600.986
598.854
596.389
593.72
590.968
588.185
585.354
582.437
579.39
576.162
572.71
568.998
564.982
560.602
555.763
550.394
544.499
538.163
531.558
524.977
518.765
513.158
508.291
504.255
501.114
498.862
497.392
496.484
495.818
495.012
493.751
491.961
489.923
488.116
486.843
485.973
485.058
483.66
481.598
478.991
476.119
473.187
470.267
467.435
464.727
462.321
460.269
458.631
457.477
456.861
456.815
457.35
458.448
460.063
462.136
464.595
467.362
470.36
473.504
476.703
479.856
482.866
485.654
488.169
490.385
492.281
493.833
494.997
495.717
495.948
495.705
495.107
494.305
493.38
492.291
490.946
489.294
487.336
485.107
482.651
480.009
477.21
474.282
471.247
468.127
464.94
461.702
458.424
455.115
451.779
448.421
445.045
441.655
438.252
434.837
431.41
427.97
424.517
421.048
417.56
414.035
410.432
406.711
402.884
399.052
395.315
391.677
388.083
384.448
380.709
376.895
373.037
369.066
364.829
360.686
357.113
353.953
350.6
346.608
341.832
336.307
330.156
323.531
316.61
309.601
302.675
295.991
289.649
283.723
278.29
273.293
268.599
263.92
258.66
252.438
244.505
234.626
227.535
227.954
233.759
238.741
240.35
239.079
235.902
632.749
632.547
632.187
631.659
630.965
630.111
629.099
627.928
626.604
625.146
623.59
621.984
620.388
618.856
617.44
616.184
615.104
614.188
613.402
612.7
612.016
611.288
610.515
609.783
609.227
608.92
608.85
608.935
609.059
609.071
608.832
608.307
607.543
606.502
605.135
603.503
601.61
599.362
596.768
593.975
591.119
588.256
585.361
582.379
579.24
575.878
572.256
568.343
564.094
559.441
554.294
548.586
542.344
535.702
528.876
522.125
515.709
509.869
504.829
500.763
497.726
495.672
494.476
493.913
493.657
493.331
492.607
491.339
489.703
488.071
486.728
485.69
484.703
483.448
481.717
479.512
477.096
474.525
471.944
469.397
466.969
464.768
462.87
461.341
460.24
459.62
459.513
459.927
460.841
462.213
463.985
466.097
468.493
471.124
473.931
476.839
479.747
482.54
485.122
487.444
489.491
491.259
492.722
493.819
494.478
494.652
494.365
493.741
492.938
492.042
491.008
489.729
488.145
486.258
484.098
481.708
479.128
476.392
473.527
470.558
467.503
464.379
461.2
457.978
454.72
451.434
448.121
444.785
441.429
438.057
434.669
431.264
427.844
424.408
420.951
417.467
413.946
410.368
406.698
402.934
399.16
395.437
391.754
388.072
384.345
380.53
376.639
372.676
368.489
363.97
359.554
355.797
352.514
349.095
345.078
340.269
334.663
328.376
321.588
314.488
307.299
300.213
293.374
286.883
280.789
275.181
270.03
265.27
260.721
255.908
250.546
244.305
237.227
232.416
232.956
237.098
240.396
240.99
239.308
236.019
636.298
636.1
635.744
635.226
634.544
633.706
632.708
631.547
630.222
628.746
627.146
625.468
623.771
622.112
620.546
619.126
617.886
616.827
615.942
615.199
614.555
613.964
613.395
612.87
612.442
612.149
611.976
611.86
611.716
611.447
610.982
610.304
609.41
608.226
606.737
605.006
603.014
600.632
597.87
594.893
591.856
588.835
585.805
582.691
579.396
575.829
571.949
567.729
563.114
558.025
552.37
546.094
539.256
532.026
524.657
517.456
510.726
504.727
499.65
495.586
492.548
490.523
489.44
489.129
489.317
489.664
489.83
489.51
488.776
487.838
486.885
485.953
484.934
483.705
482.178
480.352
478.217
475.979
473.712
471.464
469.313
467.342
465.625
464.223
463.189
462.564
462.375
462.627
463.306
464.379
465.802
467.537
469.554
471.834
474.343
477.013
479.727
482.347
484.756
486.894
488.762
490.376
491.716
492.715
493.293
493.414
493.11
492.492
491.696
490.796
489.76
488.495
486.944
485.11
483.02
480.705
478.2
475.536
472.742
469.843
466.857
463.799
460.681
457.515
454.31
451.072
447.804
444.509
441.191
437.851
434.491
431.111
427.711
424.291
420.849
417.378
413.871
410.321
406.695
402.991
399.258
395.537
391.804
388.044
384.242
380.364
376.404
372.336
367.93
363.101
358.389
354.414
350.978
347.488
343.452
338.606
332.904
326.462
319.487
312.196
304.808
297.528
290.51
283.856
277.653
271.972
266.798
262.062
257.67
253.284
248.705
243.82
238.839
235.789
236.538
239.55
241.626
241.451
239.439
236.077
640.286
640.091
639.741
639.232
638.563
637.739
636.758
635.612
634.293
632.806
631.166
629.411
627.594
625.776
624.014
622.368
620.889
619.616
618.54
617.675
616.988
616.439
615.994
615.629
615.335
615.094
614.873
614.626
614.311
613.894
613.346
612.641
611.732
610.53
609.015
607.235
605.166
602.657
599.708
596.504
593.215
589.951
586.706
583.399
579.902
576.085
571.879
567.259
562.164
556.495
550.161
543.119
535.469
527.463
519.437
511.73
504.612
498.281
492.915
488.637
485.484
483.444
482.458
482.378
482.964
483.911
485.056
485.594
485.843
485.796
485.514
485.026
484.344
483.419
482.213
480.75
479.057
477.217
475.301
473.378
471.512
469.771
468.219
466.914
465.903
465.229
464.921
464.996
465.449
466.256
467.381
468.798
470.5
472.492
474.756
477.219
479.75
482.201
484.45
486.436
488.15
489.606
490.796
491.662
492.14
492.21
491.911
491.325
490.545
489.628
488.558
487.274
485.735
483.941
481.913
479.673
477.246
474.66
471.943
469.118
466.202
463.21
460.154
457.044
453.891
450.7
447.476
444.222
440.941
437.636
434.306
430.952
427.575
424.173
420.748
417.292
413.799
410.264
406.666
403
399.296
395.573
391.813
388.013
384.154
380.218
376.201
372.028
367.4
362.266
357.261
353.027
349.387
345.796
341.727
336.831
331.022
324.433
317.286
309.815
302.223
294.711
287.463
280.602
274.264
268.529
263.422
258.844
254.699
250.754
246.888
243.113
239.717
238.007
238.986
241.266
242.505
241.78
239.515
236.108
644.723
644.529
644.182
643.682
643.028
642.226
641.275
640.162
638.876
637.412
635.775
633.987
632.09
630.14
628.192
626.3
624.521
622.907
621.525
620.379
619.466
618.761
618.231
617.848
617.577
617.377
617.193
616.97
616.678
616.305
615.843
615.274
614.527
613.461
612.016
610.233
608.1
605.468
602.326
598.876
595.284
591.69
588.136
584.55
580.797
576.713
572.17
567.117
561.507
555.24
548.223
540.415
531.969
523.151
514.348
505.942
498.228
491.417
485.678
481.102
477.691
475.438
474.323
474.266
475.112
476.309
477.637
479.404
480.946
482.098
482.818
483.093
482.963
482.476
481.685
480.632
479.374
477.967
476.464
474.917
473.377
471.899
470.539
469.348
468.374
467.666
467.268
467.21
467.499
468.111
469.006
470.16
471.583
473.301
475.31
477.538
479.851
482.098
484.167
486.004
487.595
488.931
489.988
490.725
491.102
491.118
490.812
490.242
489.464
488.519
487.408
486.098
484.563
482.803
480.828
478.653
476.297
473.786
471.144
468.392
465.546
462.618
459.622
456.568
453.465
450.321
447.14
443.926
440.682
437.411
434.113
430.787
427.435
424.054
420.646
417.205
413.726
410.201
406.619
402.977
399.291
395.573
391.815
387.998
384.093
380.106
376.037
371.763
366.926
361.513
356.219
351.677
347.769
344.028
339.891
334.919
328.999
322.28
314.987
307.347
299.548
291.766
284.223
277.087
270.553
264.755
259.773
255.463
251.679
248.245
245.061
242.223
240.069
239.408
240.615
242.435
243.118
242.019
239.567
236.132
649.285
649.087
648.739
648.239
647.59
646.803
645.88
644.813
643.586
642.191
640.621
638.888
637.017
635.044
633.01
630.962
628.951
627.039
625.294
623.763
622.474
621.434
620.634
620.054
619.667
619.43
619.284
619.169
619.039
618.878
618.681
618.408
617.929
617.054
615.695
613.902
611.693
608.94
605.627
601.921
597.99
594.007
590.063
586.123
582.076
577.733
572.914
567.511
561.481
554.757
547.265
538.798
529.815
520.388
510.925
501.863
493.543
486.176
479.885
474.745
470.802
468.103
466.663
466.416
467.096
468.679
470.803
473.301
475.827
478.051
479.732
480.751
481.206
481.188
480.826
480.204
479.387
478.424
477.353
476.212
475.038
473.871
472.753
471.727
470.838
470.134
469.673
469.502
469.642
470.065
470.722
471.585
472.682
474.075
475.802
477.815
479.974
482.1
484.049
485.755
487.209
488.409
489.335
489.957
490.252
490.223
489.9
489.324
488.532
487.551
486.394
485.053
483.515
481.776
479.839
477.712
475.413
472.962
470.383
467.696
464.913
462.046
459.105
456.103
453.049
449.949
446.809
443.633
440.425
437.187
433.919
430.621
427.293
423.935
420.546
417.121
413.657
410.148
406.585
402.965
399.296
395.584
391.827
388
384.069
380.043
375.921
371.561
366.551
360.911
355.348
350.461
346.228
342.273
338.008
332.924
326.885
320.027
312.553
304.687
296.622
288.508
280.606
273.151
266.37
260.515
255.731
251.798
248.506
245.693
243.218
241.184
240.012
240.195
241.647
243.204
243.538
242.198
239.617
236.167
653.532
653.326
652.965
652.448
651.781
650.983
650.064
649.021
647.843
646.523
645.051
643.428
641.665
639.782
637.801
635.742
633.641
631.548
629.522
627.63
625.935
624.491
623.329
622.461
621.882
621.561
621.447
621.479
621.603
621.779
621.953
622.006
621.738
620.964
619.613
617.771
615.473
612.607
609.149
605.218
600.974
596.604
592.246
587.919
583.548
578.959
573.947
568.342
562.06
555.049
547.243
538.607
529.292
519.514
509.63
500.068
491.206
483.279
476.437
470.745
466.302
463.168
461.34
460.77
461.343
462.923
465.283
468.199
471.376
474.397
476.809
478.457
479.393
479.789
479.812
479.58
479.166
478.61
477.939
477.174
476.343
475.481
474.621
473.795
473.034
472.376
471.877
471.598
471.576
471.793
472.186
472.723
473.463
474.537
476.042
477.947
480.085
482.225
484.172
485.819
487.148
488.177
488.925
489.395
489.584
489.497
489.151
488.569
487.765
486.758
485.563
484.19
482.637
480.902
478.984
476.887