/*--------------------------------*- C++ -*----------------------------------*\
  =========                 |
  \\      /  F ield         | OpenFOAM: The Open Source CFD Toolbox
   \\    /   O peration     | Website:  https://openfoam.org
    \\  /    A nd           | Version:  9
     \\/     M anipulation  |
\*---------------------------------------------------------------------------*/
FoamFile
{
    format      ascii;
    class       volScalarField;
    location    "0.068";
    object      s;
}
// * * * * * * * * * * * * * * * * * * * * * * * * * * * * * * * * * * * * * //

dimensions      [0 0 0 0 0 0 0];

internalField   nonuniform List<scalar> 
12225
(
1
1
1
1
1
1
1
1
1
1
1
1
1
1
1
1
1
0.999991
1
1
1
1
1
1
1
1
1
1
1
1
1
1
1
1
1
1
1
1
1
1
1
1
1
1
1
1
1
1
1
1
1
1
1
1
1
1
1
1
1
1
1
1
1
1
1
1
1
1
1
1
1
1
1
1
1
1
1
1
1
1
1
1
1
1
1
1
1
1
1
1
1
1
1
1
1
1
1
1
1
1
1
1
1
1
1
1
1
1
1
1
1
1
1
1
1
1
1
1
1
1
1
1
1
1
1
1
1
1
1
1
1
1
1
1
1
1
1
1
1
1
1
1
1
1
1
1
1
1
1
1
1
1
1
1
1
1
1
1
1
1
1
1
1
1
1
1
1
1
1
1
1
1
1
1
1
1
1
1
1
1
1
1
1
1
1
1
1
1
1
1
1
1
1
1
1
1
1
1
1
1
1
1
1
1
1
1
1
1
1
1
1
1
1
1
1
1
1
1
1
1
1
1
1
1
1
1
1
1
1
1
1
1
1
1
1
1
1
1
1
1
1
1
1
1
1
1
1
1
1
1
1
1
1
1
1
1
1
1
1
1
1
1
1
1
1
1
1
1
1
1
1
1
1
1
1
1
1
1
1
1
1
1
1
1
1
1
1
1
1
1
1
1
1
1
1
1
1
1
1
1
1
1
1
1
1
1
1
1
1
1
1
1
1
1
1
1
1
1
1
1
1
1
1
1
1
1
1
1
1
1
1
1
1
1
1
1
1
1
1
1
1
1
1
1
1
1
1
1
1
1
1
1
1
1
1
1
1
1
1
1
1
1
1
1
1
1
1
1
1
1
1
1
1
1
1
1
1
1
1
1
1
1
1
1
1
1
1
1
1
1
1
1
1
1
1
1
1
1
1
1
1
1
1
1
1
1
1
1
1
1
1
1
1
1
1
1
1
1
1
1
1
1
1
1
1
1
1
1
1
1
1
1
1
1
1
1
1
1
1
1
1
1
1
1
1
1
1
1
1
1
1
1
1
1
1
1
1
1
1
1
1
1
1
1
1
1
1
1
1
1
1
1
1
1
1
1
1
1
1
1
1
1
1
1
1
1
1
1
1
1
1
1
1
1
1
1
1
1
1
1
1
1
1
1
1
1
1
1
1
1
1
1
1
1
1
1
1
1
1
1
1
1
1
1
1
1
1
1
1
1
1
1
1
1
1
1
1
1
1
1
0.733236
0.75051
0.750216
0.748726
0.749977
0.749096
0.747509
0.744762
0.741656
0.739008
0.737268
0.735133
0.732749
0.729902
0.726948
0.724883
0.722889
0.720007
0.718476
0.717747
0.717583
0.717646
0.71812
0.719894
0.722998
0.728449
0.734877
0.735623
0.703168
0.632462
0.619525
0.618989
0.619728
0.622197
0.62755
0.635808
0.653692
0.660604
0.664807
0.674935
0.688841
0.731574
0.832857
0.857955
0.858283
0.856135
0.85265
0.848189
0.842374
0.83622
0.831155
0.826967
0.822224
0.817137
0.812584
0.808911
0.80622
0.804368
0.803171
0.80241
0.802176
0.80232
0.802656
0.803245
0.804055
0.8053
0.807003
0.809529
0.813425
0.814746
0.807195
0.781902
0.76945
0.76794
0.772065
0.791566
0.804213
0.806687
0.807768
0.808862
0.809855
0.810362
0.811181
0.811704
0.812039
0.812534
0.812748
0.813032
0.813376
0.813659
0.814316
0.814814
0.815582
0.816334
0.817346
0.818554
0.819627
0.821224
0.822331
0.823758
0.825631
0.827137
0.828691
0.830417
0.831877
0.833281
0.834434
0.835158
0.835456
0.834291
0.832303
0.829001
0.826026
0.824258
0.823475
0.823829
0.825159
0.827304
0.830552
0.834437
0.838434
0.8426
0.846733
0.850517
0.853816
0.856733
0.859434
0.861932
0.86421
0.866269
0.868084
0.86961
0.870855
0.871836
0.872538
0.87292
0.872998
0.872896
0.872694
0.872667
0.872856
0.87346
0.874351
0.875797
0.878003
0.881002
0.884101
0.887198
0.890866
0.894076
0.896812
0.899724
0.901735
0.90334
0.905093
0.90627
0.907337
0.907926
0.907799
0.907451
0.906954
0.905534
0.904231
0.902964
0.898517
0.897275
0.902753
0.901107
0.892015
0.89129
0.892315
0.890013
0.881096
0.862362
0.827606
0.754104
0.605998
0.487502
0.458001
0.603073
0.712319
0.72259
0.722567
0.737812
0.739809
0.73631
0.728565
0.715462
0.701585
0.691612
0.683639
0.676934
0.670825
0.666026
0.661062
0.655439
0.649529
0.64578
0.639915
0.635451
0.635159
0.636029
0.639047
0.645261
0.656256
0.671959
0.698148
0.721523
0.719702
0.708603
0.667414
0.635086
0.630854
0.629485
0.634995
0.648519
0.679472
0.68622
0.690959
0.726336
0.806542
0.839363
0.859161
0.862008
0.858149
0.850334
0.842535
0.83345
0.823924
0.817297
0.811455
0.803316
0.795864
0.791808
0.790032
0.78923
0.788914
0.788913
0.789104
0.789552
0.790276
0.791165
0.792569
0.794533
0.79702
0.800089
0.803926
0.809233
0.813705
0.813309
0.801476
0.786926
0.785365
0.788684
0.796887
0.802417
0.804424
0.804826
0.804536
0.803286
0.801031
0.798272
0.795541
0.791606
0.787964
0.784307
0.780108
0.777243
0.774214
0.77201
0.770883
0.770217
0.770084
0.770964
0.772687
0.775351
0.778612
0.782577
0.787121
0.791168
0.796108
0.801456
0.806892
0.813703
0.823112
0.833026
0.841526
0.850609
0.860032
0.867263
0.87434
0.879394
0.878287
0.867802
0.8529
0.837518
0.826323
0.81935
0.814994
0.81301
0.812778
0.813861
0.817149
0.821751
0.827616
0.834535
0.842085
0.84979
0.857347
0.864609
0.871524
0.87814
0.884302
0.889862
0.894689
0.898691
0.902346
0.905291
0.907844
0.910086
0.911887
0.913426
0.914808
0.916106
0.917273
0.918488
0.919825
0.921105
0.922307
0.9233
0.92436
0.926413
0.928175
0.929819
0.933575
0.936274
0.938742
0.941368
0.941644
0.941384
0.940733
0.937871
0.935001
0.931551
0.921229
0.906402
0.903811
0.901324
0.895638
0.894639
0.897417
0.901401
0.90526
0.910311
0.91331
0.914279
0.910903
0.88141
0.825688
0.847723
0.675679
0.699742
0.741696
0.739286
0.728392
0.704432
0.679557
0.663946
0.656608
0.654132
0.651811
0.649623
0.647082
0.645242
0.64135
0.636459
0.631641
0.624132
0.617806
0.612483
0.607553
0.605162
0.602501
0.602406
0.603984
0.609631
0.622664
0.657733
0.698642
0.704033
0.698763
0.683749
0.659397
0.639121
0.657713
0.707971
0.716114
0.756099
0.811142
0.84345
0.85995
0.865295
0.866559
0.863885
0.856202
0.847067
0.838641
0.830571
0.823148
0.815558
0.805295
0.794886
0.790701
0.789155
0.788628
0.78856
0.788944
0.790264
0.792965
0.79745
0.803089
0.807845
0.81089
0.811124
0.80865
0.805853
0.806589
0.811501
0.812669
0.806134
0.793127
0.791437
0.794707
0.798622
0.800114
0.800708
0.799913
0.794459
0.786505
0.775545
0.759472
0.743299
0.730589
0.716412
0.703398
0.69097
0.679251
0.670119
0.659392
0.652971
0.649203
0.646217
0.645293
0.645263
0.648
0.653056
0.657459
0.664645
0.673854
0.681604
0.690721
0.701031
0.711293
0.721437
0.732485
0.744797
0.759066
0.777881
0.801722
0.828135
0.857999
0.885301
0.904851
0.917703
0.924239
0.922155
0.906337
0.884804
0.866473
0.851446
0.839099
0.82946
0.822959
0.819964
0.819443
0.820137
0.82378
0.830396
0.837608
0.845481
0.853448
0.861327
0.868825
0.876426
0.884172
0.891303
0.898024
0.903509
0.907947
0.911553
0.914255
0.91638
0.917946
0.919126
0.919911
0.920455
0.920936
0.921883
0.922615
0.923308
0.925053
0.929049
0.934086
0.939151
0.947215
0.954683
0.960257
0.965234
0.966357
0.965982
0.964774
0.961654
0.954659
0.947752
0.941167
0.927331
0.912457
0.905314
0.898151
0.896067
0.89787
0.899629
0.893371
0.887114
0.889871
0.902
0.916415
0.920592
0.916766
0.916813
0.709322
0.755536
0.744934
0.710177
0.664042
0.649619
0.647932
0.65064
0.655963
0.662523
0.674083
0.685251
0.691699
0.697018
0.696881
0.695113
0.690658
0.683157
0.669679
0.65494
0.641709
0.627709
0.616158
0.60982
0.596658
0.586406
0.587483
0.596732
0.630651
0.681175
0.692789
0.688897
0.674311
0.643927
0.674766
0.738327
0.79404
0.843284
0.862776
0.871473
0.875019
0.876448
0.876809
0.87475
0.870186
0.86598
0.861113
0.853908
0.841246
0.822941
0.804008
0.793281
0.789949
0.789191
0.789254
0.790576
0.794632
0.802685
0.814475
0.825324
0.830524
0.831826
0.831199
0.828472
0.822982
0.815543
0.812078
0.810833
0.806856
0.795821
0.79368
0.794889
0.796961
0.797487
0.796823
0.791678
0.779862
0.757834
0.730526
0.710362
0.692992
0.677308
0.661277
0.643679
0.628326
0.612366
0.602841
0.598175
0.592848
0.590391
0.589067
0.588426
0.588263
0.589069
0.592325
0.597407
0.603436
0.611325
0.621426
0.633592
0.647441
0.663555
0.6797
0.695347
0.707252
0.715903
0.723088
0.731278
0.739839
0.751354
0.770133
0.803781
0.854768
0.901297
0.928377
0.943373
0.949042
0.945616
0.930372
0.913355
0.899175
0.88773
0.878151
0.868999
0.860385
0.853571
0.84955
0.848246
0.848327
0.849995
0.856222
0.863154
0.868163
0.873184
0.878612
0.883977
0.889264
0.89387
0.898591
0.902657
0.90548
0.907007
0.906899
0.906014
0.904844
0.904192
0.90358
0.904511
0.908833
0.916416
0.924212
0.933623
0.948881
0.965159
0.976402
0.981569
0.983356
0.983378
0.983542
0.983753
0.983897
0.983886
0.982973
0.979352
0.971758
0.955563
0.929943
0.9141
0.902992
0.89753
0.897017
0.890461
0.877036
0.874852
0.876885
0.879766
0.890549
0.91475
0.921578
0.92184
0.77512
0.753197
0.683591
0.642093
0.638315
0.645786
0.664832
0.702969
0.737861
0.760572
0.769853
0.76982
0.767516
0.76248
0.756773
0.751521
0.746533
0.742161
0.736367
0.728609
0.71811
0.70565
0.6898
0.662304
0.625654
0.59253
0.574915
0.574695
0.585262
0.631202
0.676978
0.683998
0.672861
0.643729
0.708249
0.784958
0.851051
0.876431
0.886485
0.891617
0.897332
0.901186
0.902669
0.90315
0.901752
0.895926
0.888371
0.875983
0.854708
0.829499
0.804943
0.792793
0.789618
0.789149
0.789733
0.792911
0.800716
0.81434
0.827466
0.831565
0.832446
0.832401
0.831219
0.827899
0.821933
0.81476
0.810009
0.805321
0.796298
0.79393
0.793896
0.794988
0.795186
0.792394
0.784268
0.766424
0.737074
0.711413
0.69645
0.682041
0.664789
0.646922
0.628388
0.607441
0.591124
0.585909
0.584224
0.583868
0.583962
0.583941
0.583297
0.582463
0.581536
0.581431
0.583216
0.586981
0.592233
0.599129
0.607641
0.619088
0.633244
0.651254
0.670836
0.690817
0.706142
0.718029
0.728082
0.735924
0.740685
0.745648
0.753533
0.766846
0.790584
0.835264
0.892001
0.933701
0.956262
0.965807
0.965651
0.955451
0.934242
0.916233
0.903442
0.894512
0.887785
0.882534
0.878942
0.877151
0.876741
0.876942
0.878428
0.883496
0.888085
0.89021
0.890698
0.890754
0.891104
0.891847
0.891992
0.891816
0.890734
0.886696
0.878797
0.871679
0.867514
0.866851
0.869775
0.882525
0.900645
0.915154
0.934995
0.962226
0.979343
0.986413
0.987421
0.986789
0.985048
0.981794
0.980484
0.98075
0.981686
0.984371
0.987454
0.987753
0.986668
0.981817
0.967496
0.93345
0.911688
0.901421
0.894906
0.881819
0.87508
0.878328
0.881428
0.879589
0.88049
0.891338
0.914258
0.9191
0.746384
0.670756
0.629465
0.632228
0.655784
0.718585
0.782203
0.803888
0.805837
0.801361
0.792993
0.78338
0.774317
0.765982
0.75853
0.75307
0.748977
0.745483
0.74243
0.739475
0.736436
0.732038
0.723205
0.701027
0.64606
0.593856
0.563546
0.556673
0.56139
0.589983
0.651355
0.671795
0.6665
0.647886
0.736766
0.827966
0.880312
0.897
0.904512
0.911909
0.920878
0.924563
0.926254
0.926824
0.926301
0.921961
0.914115
0.898764
0.873706
0.844104
0.811061
0.7932
0.788505
0.787626
0.788283
0.792232
0.801811
0.816874
0.825834
0.828489
0.829368
0.829492
0.828237
0.823909
0.81721
0.809709
0.801786
0.795676
0.793596
0.793199
0.793172
0.792843
0.788815
0.778506
0.757215
0.73019
0.706853
0.689871
0.680734
0.669181
0.650321
0.630242
0.608013
0.592776
0.589817
0.590548
0.595655
0.604922
0.615856
0.621226
0.622652
0.61949
0.606758
0.599441
0.596719
0.596352
0.598565
0.60333
0.610005
0.620059
0.633386
0.651284
0.671819
0.69585
0.720156
0.743453
0.765686
0.781846
0.78771
0.785224
0.780721
0.778951
0.786555
0.813613
0.85782
0.906159
0.944605
0.968218
0.979227
0.98137
0.979258
0.967679
0.942717
0.921252
0.906209
0.89633
0.890014
0.886285
0.884563
0.884177
0.884394
0.886035
0.890787
0.894701
0.89677
0.897391
0.897341
0.896558
0.893583
0.885153
0.871268
0.8582
0.849685
0.846163
0.845825
0.847588
0.856611
0.877626
0.903465
0.939951
0.969871
0.985037
0.989381
0.989161
0.986282
0.978065
0.967951
0.959691
0.95566
0.95559
0.956773
0.960501
0.970626
0.981385
0.986469
0.986876
0.984158
0.970538
0.930837
0.9094
0.896537
0.881128
0.875559
0.880447
0.887054
0.888352
0.883516
0.883606
0.898007
0.911017
0.68907
0.628072
0.626612
0.667573
0.770115
0.821417
0.826983
0.821446
0.809777
0.794186
0.775637
0.759534
0.747767
0.739504
0.73367
0.731324
0.731395
0.732231
0.734288
0.735129
0.734735
0.732289
0.724036
0.697363
0.63623
0.580744
0.547044
0.539473
0.542201
0.569371
0.63708
0.66626
0.652162
0.662704
0.774402
0.861491
0.899424
0.912455
0.919703
0.929901
0.937279
0.940229
0.941816
0.942473
0.942506
0.940201
0.933022
0.919253
0.897658
0.868611
0.829694
0.797858
0.788263
0.785927
0.785737
0.787489
0.79348
0.804994
0.815795
0.819373
0.820715
0.820954
0.819043
0.812282
0.803627
0.797069
0.793724
0.792299
0.791795
0.791496
0.789881
0.784425
0.771924
0.753343
0.732822
0.711269
0.695452
0.688466
0.68254
0.672748
0.657898
0.641391
0.627181
0.623901
0.627064
0.639478
0.65987
0.679477
0.685772
0.686218
0.682185
0.672603
0.660244
0.648417
0.638954
0.635606
0.635137
0.636214
0.640951
0.649262
0.66213
0.680333
0.701989
0.731234
0.765166
0.795819
0.825075
0.851693
0.870754
0.871401
0.865385
0.850135
0.835936
0.833617
0.853445
0.89891
0.936981
0.963609
0.980092
0.988198
0.990479
0.990197
0.987255
0.975353
0.949759
0.926857
0.909917
0.898495
0.891602
0.888217
0.887169
0.887203
0.888415
0.892566
0.896339
0.898088
0.898362
0.897786
0.893937
0.878419
0.858456
0.846715
0.842035
0.841191
0.841679
0.844872
0.856361
0.892164
0.940268
0.971528
0.986771
0.990829
0.990149
0.984427
0.96786
0.953776
0.947809
0.945491
0.944955
0.944567
0.944074
0.943903
0.944857
0.950054
0.968642
0.982424
0.984952
0.982469
0.965515
0.9254
0.901958
0.882548
0.876807
0.879216
0.886412
0.891623
0.891065
0.885462
0.888147
0.901455
0.654053
0.619906
0.656768
0.783312
0.838751
0.838421
0.828514
0.803649
0.771562
0.747883
0.734053
0.724704
0.718116
0.713696
0.709772
0.709382
0.710169
0.713005
0.719367
0.724838
0.727362
0.725849
0.714036
0.669334
0.600062
0.551517
0.529789
0.526149
0.532844
0.571761
0.639513
0.661611
0.649918
0.688556
0.808542
0.885092
0.913502
0.924197
0.931954
0.943025
0.947982
0.950155
0.951588
0.952538
0.952755
0.951955
0.947735
0.938264
0.922439
0.898329
0.862758
0.816765
0.791585
0.784892
0.783438
0.783425
0.785142
0.790166
0.798018
0.802197
0.803599
0.803952
0.802914
0.798021
0.793602
0.791845
0.79095
0.790496
0.78972
0.787622
0.782369
0.771757
0.757368
0.740036
0.720909
0.703672
0.695378
0.691046
0.687725
0.68361
0.677811
0.673499
0.673163
0.677015
0.686717
0.699273
0.70528
0.706207
0.704767
0.700166
0.692222
0.682354
0.674483
0.668792
0.667339
0.668099
0.672053
0.679176
0.688928
0.700241
0.716746
0.738902
0.762085
0.790806
0.827742
0.861505
0.89285
0.919129
0.938419
0.946264
0.946821
0.942583
0.929275
0.912924
0.902925
0.908794
0.93804
0.963293
0.979909
0.989658
0.994208
0.9956
0.995618
0.99478
0.991205
0.978919
0.954551
0.931588
0.913429
0.900757
0.893106
0.889358
0.888183
0.888243
0.889986
0.894541
0.896433
0.896283
0.89282
0.876272
0.855736
0.845137
0.841632
0.841451
0.843124
0.851463
0.882301
0.934281
0.968558
0.986039
0.99163
0.991253
0.984503
0.961975
0.94845
0.94385
0.942458
0.942704
0.943979
0.944324
0.943974
0.942015
0.939861
0.940055
0.943198
0.958734
0.978368
0.981955
0.978334
0.958419
0.915157
0.887407
0.879253
0.880048
0.884991
0.89381
0.89606
0.891951
0.888065
0.893662
0.64441
0.622625
0.729626
0.84049
0.848702
0.834859
0.793315
0.757913
0.742301
0.732711
0.725099
0.718414
0.712399
0.707323
0.702703
0.702158
0.703058
0.706482
0.712393
0.716335
0.715227
0.701998
0.650969
0.588244
0.549198
0.527465
0.519492
0.520737
0.533953
0.583171
0.643393
0.652783
0.652977
0.717567
0.838746
0.901958
0.923937
0.933062
0.941666
0.951369
0.954846
0.956416
0.957463
0.958577
0.959008
0.958902
0.957175
0.952113
0.942581
0.92688
0.901395
0.862194
0.811639
0.788435
0.782402
0.781189
0.781215
0.782508
0.785956
0.789831
0.791113
0.791579
0.791606
0.790546
0.789214
0.78879
0.788338
0.787297
0.78505
0.780208
0.771988
0.760706
0.747737
0.734033
0.719479
0.704607
0.698285
0.696372
0.695558
0.695232
0.6952
0.695756
0.697947
0.702217
0.707207
0.709214
0.70911
0.706895
0.701745
0.69454
0.687792
0.683087
0.679708
0.678609
0.681982
0.688078
0.698715
0.71543
0.736874
0.758209
0.779558
0.801189
0.822045
0.844523
0.873891
0.906862
0.930187
0.948164
0.962026
0.971415
0.976625
0.978148
0.977414
0.974786
0.970986
0.96686
0.96609
0.973296
0.983746
0.991191
0.995588
0.997594
0.998202
0.998226
0.997955
0.996783
0.993059
0.9816
0.958757
0.935559
0.916169
0.902115
0.893223
0.888637
0.887184
0.887336
0.889316
0.890108
0.888253
0.875818
0.856089
0.846788
0.844924
0.84567
0.850927
0.872909
0.924906
0.962379
0.983182
0.991622
0.99245
0.987612
0.964871
0.947476
0.941601
0.940277
0.940528
0.941957
0.947514
0.951013
0.950738
0.949117
0.944267
0.938801
0.937913
0.940234
0.954746
0.975898
0.978525
0.973486
0.945323
0.899771
0.884595
0.883731
0.886766
0.896809
0.901425
0.899703
0.891483
0.891213
0.642787
0.644746
0.803495
0.854005
0.847112
0.800181
0.762987
0.748813
0.74004
0.733253
0.726423
0.718731
0.711473
0.704506
0.698132
0.697787
0.699643
0.704101
0.705706
0.699705
0.665957
0.603386
0.563659
0.541244
0.526508
0.518611
0.517338
0.521768
0.542301
0.609054
0.643114
0.648063
0.662519
0.75161
0.864882
0.914209
0.931705
0.939569
0.948341
0.956726
0.959299
0.960402
0.961083
0.9619
0.962717
0.96287
0.962412
0.960254
0.955496
0.9473
0.933538
0.910122
0.87236
0.819368
0.788012
0.780726
0.779215
0.779177
0.780149
0.782695
0.78531
0.786042
0.786275
0.786329
0.786294
0.786212
0.785677
0.783865
0.779861
0.773019
0.763905
0.754381
0.745471
0.735783
0.72334
0.709444
0.702029
0.699545
0.698779
0.698596
0.698556
0.698612
0.698626
0.698409
0.697728
0.69608
0.693231
0.689512
0.68642
0.684332
0.683635
0.685089
0.690508
0.700962
0.716612
0.73901
0.76538
0.795674
0.829607
0.859781
0.884829
0.899032
0.907222
0.913694
0.919507
0.932442
0.946327
0.957565
0.968187
0.977194
0.98389
0.988201
0.990455
0.991338
0.991434
0.991266
0.991255
0.991884
0.993415
0.995352
0.997248
0.998548
0.999166
0.999346
0.999348
0.999247
0.998845
0.997639
0.994285
0.984549
0.962835
0.939506
0.919058
0.903306
0.892486
0.886296
0.883675
0.882306
0.879316
0.86783
0.854296
0.84998
0.850075
0.853017
0.865707
0.906937
0.950512
0.977213
0.990046
0.993317
0.991549
0.975324
0.951129
0.941085
0.938433
0.938308
0.938951
0.942094
0.951384
0.960117
0.963754
0.963538
0.960739
0.950484
0.940786
0.938375
0.940357
0.95503
0.97408
0.975158
0.967141
0.930005
0.897432
0.89207
0.894355
0.903543
0.908647
0.907648
0.898004
0.892206
0.643083
0.680725
0.830757
0.856601
0.83124
0.779642
0.760279
0.754671
0.754369
0.75168
0.743157
0.729532
0.714978
0.703505
0.694067
0.688681
0.690483
0.692267
0.681035
0.647501
0.590772
0.558348
0.54354
0.532044
0.522805
0.518807
0.519718
0.530342
0.569986
0.625053
0.643054
0.649117
0.679958
0.78407
0.881778
0.92338
0.937574
0.944266
0.952506
0.960123
0.962231
0.962983
0.963375
0.963824
0.964616
0.965114
0.965095
0.964352
0.962279
0.958606
0.952721
0.942736
0.925266
0.896085
0.851959
0.800065
0.781759
0.777854
0.777214
0.777465
0.778944
0.781522
0.783014
0.783323
0.78336
0.78292
0.780977
0.777265
0.772005
0.765484
0.758176
0.750902
0.744129
0.737735
0.730844
0.722668
0.713719
0.706517
0.70188
0.699099
0.697025
0.694958
0.693659
0.692501
0.690891
0.688851
0.687199
0.686259
0.687299
0.691544
0.700524
0.715596
0.7376
0.765384
0.797082
0.834778
0.87214
0.904684
0.923521
0.935009
0.943296
0.949833
0.955295
0.958167
0.95784
0.956862
0.957437
0.961361
0.969124
0.977838
0.984832
0.989946
0.993444
0.995566
0.996648
0.997079
0.997246
0.997473
0.997872
0.998371
0.998873
0.999306
0.999606
0.999747
0.999782
0.999778
0.999737
0.999589
0.999175
0.998094
0.995325
0.987946
0.968867
0.944335
0.922148
0.905481
0.892613
0.87983
0.866616
0.85706
0.854196
0.85455
0.857221
0.866134
0.894599
0.938061
0.969509
0.986982
0.993569
0.993922
0.987788
0.962288
0.944395
0.937519
0.935545
0.935494
0.936588
0.941434
0.951985
0.961146
0.96754
0.97043
0.970572
0.96884
0.959552
0.9443
0.940777
0.94282
0.957953
0.972403
0.971985
0.96122
0.927474
0.910394
0.911383
0.917168
0.919006
0.917082
0.905771
0.894902
0.645041
0.704335
0.842576
0.856744
0.816363
0.778654
0.773329
0.785923
0.791181
0.787905
0.774848
0.755119
0.732749
0.711207
0.693478
0.680694
0.671031
0.662355
0.643432
0.607576
0.570246
0.554139
0.545141
0.53712
0.530521
0.528351
0.535375
0.562663
0.608932
0.633806
0.64359
0.65454
0.707322
0.812368
0.892702
0.93055
0.942216
0.947819
0.955206
0.962461
0.964239
0.964737
0.96492
0.965084
0.965524
0.966199
0.966313
0.966035
0.964987
0.963163
0.960831
0.957787
0.952828
0.94392
0.928304
0.902019
0.862335
0.813576
0.783813
0.776789
0.775151
0.775002
0.775326
0.776031
0.77696
0.777235
0.77688
0.77483
0.770627
0.765055
0.759
0.752724
0.746616
0.740914
0.735718
0.730564
0.72537
0.720248
0.714992
0.709697
0.705164
0.701397
0.698783
0.697137
0.696487
0.697332
0.700779
0.708187
0.720248
0.739862
0.76619
0.799948
0.84047
0.878358
0.911287
0.931586
0.943592
0.950018
0.952888
0.95429
0.956229
0.959305
0.964101
0.968072
0.968904
0.966455
0.96391
0.964079
0.968378
0.976763
0.984203
0.989802
0.993708
0.996265
0.997793
0.998585
0.998957
0.999149
0.9993
0.999451
0.999601
0.999735
0.999839
0.999902
0.999928
0.999932
0.999929
0.999911
0.999853
0.999702
0.99933
0.998446
0.996307
0.99091
0.976882
0.952092
0.921566
0.892778
0.873799
0.8676
0.867752
0.870267
0.87764
0.897873
0.935072
0.966354
0.98555
0.993823
0.995595
0.994166
0.980895
0.954913
0.940593
0.933522
0.931385
0.931516
0.933081
0.939421
0.950775
0.960151
0.967106
0.971321
0.973161
0.97328
0.972017
0.965358
0.948052
0.944096
0.94659
0.961493
0.970604
0.969142
0.95725
0.941165
0.93767
0.935067
0.930738
0.926046
0.914637
0.900104
0.647621
0.719482
0.849428
0.857628
0.813173
0.791695
0.798744
0.820766
0.826746
0.824157
0.812684
0.793864
0.770978
0.745504
0.717568
0.689904
0.667636
0.652604
0.634223
0.601085
0.571159
0.55925
0.555224
0.554285
0.556764
0.564696
0.578462
0.602474
0.625858
0.636759
0.645898
0.667558
0.739845
0.829836
0.904204
0.936342
0.94604
0.950534
0.95621
0.963603
0.965722
0.966012
0.966035
0.965954
0.96609
0.966592
0.966794
0.966657
0.965915
0.964497
0.962826
0.961326
0.959999
0.958532
0.95641
0.952443
0.94464
0.92997
0.904345
0.871765
0.836383
0.801486
0.78199
0.775906
0.773099
0.771538
0.770522
0.769486
0.767981
0.765736
0.762614
0.759171
0.75564
0.751984
0.748286
0.744626
0.740746
0.736955
0.733555
0.730931
0.728895
0.727644
0.728563
0.730933
0.735823
0.745023
0.759988
0.780759
0.809014
0.845578
0.883077
0.914943
0.936222
0.950076
0.958691
0.963551
0.965991
0.966218
0.963973
0.960618
0.959413
0.960361
0.964535
0.969436
0.972533
0.972304
0.969409
0.968634
0.969658
0.975718
0.983536
0.989343
0.993466
0.996226
0.997931
0.998892
0.999386
0.999624
0.999744
0.999816
0.999868
0.999909
0.999942
0.999964
0.999976
0.99998
0.99998
0.999978
0.99997
0.999948
0.999891
0.99976
0.999466
0.998796
0.997135
0.992348
0.975209
0.934397
0.908738
0.902406
0.90305
0.907116
0.920028
0.948536
0.971507
0.986772
0.994607
0.99706
0.996977
0.993469
0.974666
0.952446
0.939553
0.932274
0.928876
0.928228
0.929317
0.935442
0.94672
0.956307
0.964042
0.969517
0.972655
0.973806
0.973813
0.972721
0.966978
0.950738
0.947665
0.95054
0.964191
0.969399
0.967791
0.962308
0.959945
0.954276
0.942205
0.93529
0.92449
0.9079
0.650012
0.731142
0.855419
0.861013
0.816299
0.802899
0.809328
0.83532
0.842586
0.84153
0.831997
0.814536
0.79419
0.77477
0.756996
0.737715
0.714041
0.683613
0.653205
0.622452
0.592192
0.574342
0.567627
0.566467
0.571411
0.587231
0.603011
0.618449
0.631332
0.638721
0.651799
0.689327
0.75882
0.83323
0.910139
0.940956
0.949451
0.953068
0.956849
0.963462
0.966504
0.967133
0.967048
0.966514
0.966368
0.966642
0.966933
0.966906
0.966353
0.965037
0.963249
0.96152
0.96018
0.958956
0.958321
0.958188
0.958489
0.958626
0.957492
0.954692
0.949498
0.93835
0.919467
0.899185
0.880577
0.862928
0.846007
0.830446
0.817085
0.804913
0.7956
0.793488
0.794019
0.794768
0.794323
0.791871
0.788779
0.786284
0.785245
0.784325
0.785598
0.789359
0.796438
0.806049
0.820477
0.841582
0.867247
0.894844
0.919264
0.936175
0.948204
0.957029
0.964297
0.970169
0.974483
0.97633
0.975937
0.974592
0.970098
0.964095
0.960571
0.959702
0.960971
0.966579
0.972509
0.976156
0.976981
0.976304
0.976389
0.978286
0.984575
0.98986
0.993592
0.996213
0.997928
0.998942
0.999479
0.999742
0.999866
0.999923
0.999952
0.999969
0.99998
0.999988
0.999992
0.999994
0.999995
0.999995
0.999994
0.999991
0.999982
0.999962
0.999916
0.999811
0.999535
0.998651
0.99518
0.979754
0.962046
0.958046
0.958769
0.96247
0.972845
0.983047
0.990739
0.995939
0.998215
0.998513
0.997788
0.992264
0.971656
0.951983
0.939704
0.932351
0.928538
0.927205
0.92734
0.930247
0.940152
0.949703
0.957553
0.964048
0.968482
0.970727
0.971667
0.971572
0.970164
0.964772
0.951787
0.95083
0.9544
0.966218
0.970134
0.969969
0.969585
0.967205
0.955266
0.943654
0.93489
0.917592
0.651923
0.736921
0.860594
0.86702
0.824074
0.807867
0.814778
0.842739
0.850637
0.849842
0.840592
0.822862
0.801787
0.781997
0.764923
0.751886
0.742184
0.730105
0.709199
0.684096
0.655584
0.624168
0.597101
0.587267
0.586789
0.596365
0.610453
0.623253
0.634096
0.642812
0.662632
0.707175
0.762642
0.832674
0.912628
0.94444
0.952443
0.955361
0.957747
0.962393
0.966441
0.967693
0.968013
0.967618
0.966735
0.966671
0.966924
0.96699
0.966655
0.965357
0.963157
0.960775
0.958456
0.955461
0.952516
0.951318
0.950954
0.950979
0.952206
0.95453
0.957359
0.960288
0.961153
0.961202
0.96093
0.96039
0.960018
0.960068
0.960406
0.961623
0.963438
0.963351
0.962494
0.960775
0.956749
0.948245
0.940312
0.933965
0.929104
0.924831
0.922435
0.923489
0.926178
0.929766
0.935241
0.941877
0.948284
0.953622
0.957682
0.960839
0.963877
0.967231
0.97123
0.975555
0.97968
0.982568
0.98365
0.983023
0.979362
0.970886
0.963246
0.959534
0.959064
0.960587
0.967863
0.97622
0.982044
0.985464
0.987438
0.9894
0.992103
0.99429
0.995818
0.997088
0.998207
0.999021
0.999517
0.999778
0.9999
0.999954
0.999978
0.999988
0.999993
0.999996
0.999998
0.999998
0.999999
0.999999
0.999999
0.999998
0.999997
0.999994
0.999988
0.999972
0.999928
0.999772
0.999125
0.9961
0.991644
0.990095
0.990073
0.990656
0.992758
0.995419
0.997602
0.998976
0.999376
0.999265
0.998057
0.991456
0.970853
0.952985
0.941433
0.933829
0.929196
0.927165
0.926842
0.927567
0.933012
0.942349
0.949571
0.955248
0.959699
0.961685
0.962479
0.963569
0.965337
0.964058
0.959653
0.953103
0.953349
0.958835
0.9682
0.972159
0.973444
0.9727
0.965017
0.951286
0.943516
0.928281
0.654235
0.740119
0.866638
0.87488
0.834477
0.814794
0.818981
0.847088
0.861311
0.861283
0.854601
0.838662
0.813848
0.786697
0.765497
0.754102
0.748255
0.742248
0.732536
0.717721
0.699655
0.678619
0.656123
0.636798
0.624814
0.621528
0.624559
0.632373
0.642454
0.655553
0.682443
0.717921
0.765739
0.833683
0.916383
0.947738
0.955266
0.957448
0.958796
0.961507
0.965388
0.967558
0.96829
0.968556
0.968003
0.966931
0.966871
0.966949
0.966824
0.965878
0.963355
0.958786
0.952185
0.945043
0.940808
0.938857
0.937152
0.936402
0.936275
0.93736
0.939853
0.94222
0.945406
0.949951
0.955827
0.960751
0.962867
0.964321
0.965041
0.965381
0.965506
0.96553
0.965444
0.965229
0.964855
0.964601
0.964405
0.964341
0.964305
0.96425
0.964118
0.963914
0.96336
0.962854
0.96282
0.963023
0.963519
0.964093
0.964594
0.965208
0.966417
0.968768
0.972114
0.976134
0.980351
0.98448
0.988031
0.990219
0.990331
0.98615
0.972955
0.963391
0.959909
0.960002
0.9635
0.973553
0.982698
0.989082
0.993288
0.996002
0.997661
0.998551
0.998947
0.999099
0.999206
0.999408
0.99964
0.999818
0.999918
0.999965
0.999985
0.999994
0.999997
0.999999
0.999999
1
1
1
1
1
1
0.999999
0.999999
0.999997
0.999991
0.999971
0.999892
0.99954
0.998593
0.998041
0.997965
0.998057
0.998411
0.998992
0.999496
0.999751
0.999765
0.999552
0.998122
0.991239
0.971777
0.955982
0.945533
0.93789
0.931881
0.928155
0.926903
0.926998
0.928857
0.9363
0.942887
0.947107
0.949548
0.950225
0.94826
0.945763
0.947009
0.953738
0.956265
0.954422
0.953585
0.95516
0.962529
0.970952
0.974783
0.974968
0.970898
0.9581
0.950736
0.939368
0.656717
0.740841
0.871409
0.882945
0.848595
0.822937
0.82334
0.846218
0.870371
0.87559
0.872913
0.86006
0.83622
0.804234
0.773747
0.758499
0.751394
0.745495
0.73637
0.724446
0.712053
0.699688
0.686584
0.674038
0.663098
0.657604
0.656259
0.656794
0.663247
0.678731
0.698612
0.729452
0.773883
0.84135
0.923812
0.950781
0.958107
0.959675
0.960193
0.96141
0.963247
0.966323
0.968024
0.968629
0.968859
0.968202
0.967112
0.966958
0.966872
0.966409
0.964358
0.959687
0.952594
0.944479
0.937859
0.933745
0.931062
0.930099
0.929817
0.929825
0.930584
0.93183
0.933956
0.936749
0.940183
0.945766
0.953922
0.960054
0.963279
0.964833
0.965436
0.965539
0.965504
0.965347
0.96488
0.96417
0.96368
0.963458
0.963306
0.963227
0.96306
0.963074
0.963187
0.963345
0.963564
0.964044
0.964588
0.964971
0.965202
0.965508
0.966188
0.967847
0.970254
0.973395
0.977725
0.982969
0.987839
0.991285
0.993062
0.993189
0.989239
0.975205
0.966294
0.963706
0.96454
0.971513
0.982031
0.989706
0.994569
0.997332
0.998755
0.999417
0.999694
0.999798
0.999834
0.999852
0.999875
0.99991
0.999948
0.999975
0.999989
0.999996
0.999998
0.999999
1
1
1
1
1
1
1
1
1
1
0.999999
0.999997
0.999989
0.999954
0.99981
0.999678
0.999657
0.999671
0.999722
0.999825
0.999907
0.999928
0.999898
0.999633
0.998183
0.991634
0.974292
0.960624
0.952025
0.94479
0.937053
0.93085
0.927742
0.927078
0.927552
0.930955
0.938266
0.943082
0.945409
0.945968
0.945308
0.940518
0.936559
0.937334
0.943922
0.951097
0.952507
0.953651
0.957363
0.967973
0.974425
0.975885
0.973889
0.964226
0.957176
0.948556
0.659746
0.739779
0.874267
0.891762
0.866495
0.831133
0.82704
0.83963
0.870706
0.881855
0.883806
0.879466
0.864174
0.836156
0.801538
0.774244
0.762135
0.754363
0.743708
0.730979
0.720011
0.710489
0.700614
0.691437
0.684303
0.680603
0.678848
0.678393
0.684759
0.699837
0.719139
0.749251
0.793873
0.86823
0.933053
0.954071
0.960597
0.961875
0.961958
0.961807
0.962644
0.964117
0.966652
0.968224
0.968848
0.968996
0.968351
0.967289
0.966971
0.966642
0.965691
0.962455
0.955232
0.946372
0.938958
0.93416
0.93085
0.929014
0.928016
0.927531
0.927508
0.927836
0.929155
0.931539
0.934312
0.937677
0.945022
0.954534
0.960846
0.963797
0.964881
0.965136
0.965098
0.964836
0.964156
0.96319
0.962276
0.961693
0.961429
0.96135
0.961396
0.961616
0.962001
0.962566
0.963204
0.963916
0.964477
0.964812
0.964782
0.964374
0.963458
0.962928
0.962861
0.963601
0.966448
0.973421
0.981887
0.988717
0.99274
0.994345
0.994349
0.990203
0.979404
0.973692
0.972198
0.973669
0.981642
0.989748
0.99485
0.997639
0.998994
0.99959
0.999831
0.99992
0.999952
0.999964
0.999971
0.999977
0.999984
0.99999
0.999994
0.999997
0.999999
1
1
1
1
1
1
1
1
1
1
1
1
1
0.999999
0.999995
0.999975
0.999952