/*--------------------------------*- C++ -*----------------------------------*\
  =========                 |
  \\      /  F ield         | OpenFOAM: The Open Source CFD Toolbox
   \\    /   O peration     | Website:  https://openfoam.org
    \\  /    A nd           | Version:  9
     \\/     M anipulation  |
\*---------------------------------------------------------------------------*/
FoamFile
{
    format      ascii;
    class       volSymmTensorField;
    location    "0.068";
    object      UPrime2Mean;
}
// * * * * * * * * * * * * * * * * * * * * * * * * * * * * * * * * * * * * * //

dimensions      [0 2 -2 0 0 0 0];

internalField   nonuniform List<symmTensor> 
12225
(
(-48.3023 -0.239133 0 0.00103722 0 0)
(-45.454 -0.306245 0 -0.00106064 0 0)
(-42.6291 -0.288751 0 -0.00126488 0 0)
(-39.8357 -0.272952 0 -0.00131414 0 0)
(-37.1607 -0.260748 0 -0.00135279 0 0)
(-34.6546 -0.248504 0 -0.00135645 0 0)
(-32.3051 -0.235835 0 -0.00132419 0 0)
(-30.113 -0.224601 0 -0.00129411 0 0)
(-28.024 -0.214736 0 -0.00124718 0 0)
(-26.0632 -0.208549 0 -0.00125596 0 0)
(-24.1235 -0.203652 0 -0.00119899 0 0)
(-22.3114 -0.204023 0 -0.0012879 0 0)
(-20.3841 -0.206496 0 -0.001047 0 0)
(-18.6354 -0.217833 0 -0.00134732 0 0)
(-16.4833 -0.241913 0 -8.69772e-05 0 0)
(-14.6318 -0.27235 0 -0.00127717 0 0)
(-11.7896 -0.378666 0 0.00713154 0 0)
(-9.26275 -0.456433 0 0.00136614 0 0)
(-50.4661 -0.245438 0 0.0018081 0 0)
(-51.0499 -0.359976 0 -0.00115341 0 0)
(-51.411 -0.364921 0 -0.00164015 0 0)
(-51.5137 -0.37661 0 -0.00197656 0 0)
(-51.436 -0.395858 0 -0.00236404 0 0)
(-51.25 -0.41347 0 -0.00270609 0 0)
(-50.9672 -0.427746 0 -0.00299409 0 0)
(-50.6058 -0.442761 0 -0.0032518 0 0)
(-50.1419 -0.458616 0 -0.00351884 0 0)
(-49.6075 -0.480183 0 -0.00375057 0 0)
(-48.9498 -0.504685 0 -0.00405043 0 0)
(-48.2335 -0.539813 0 -0.00413877 0 0)
(-47.3399 -0.582456 0 -0.00439825 0 0)
(-46.3974 -0.645353 0 -0.00370948 0 0)
(-45.1622 -0.733245 0 -0.00335738 0 0)
(-43.868 -0.860332 0 0.000909498 0 0)
(-42.0889 -1.07274 0 0.00683298 0 0)
(-40.1443 -1.36734 0 0.0355677 0 0)
(-50.0679 -0.172655 0 0.00290784 0 0)
(-50.4079 -0.281271 0 0.000138206 0 0)
(-50.7157 -0.301566 0 -0.000635555 0 0)
(-50.9097 -0.317219 0 -0.000981425 0 0)
(-51.0213 -0.342363 0 -0.00136437 0 0)
(-51.0929 -0.369465 0 -0.00174827 0 0)
(-51.1358 -0.394369 0 -0.00206469 0 0)
(-51.1491 -0.420548 0 -0.00235992 0 0)
(-51.127 -0.448673 0 -0.00258332 0 0)
(-51.0687 -0.484458 0 -0.00285627 0 0)
(-50.9726 -0.52553 0 -0.00290567 0 0)
(-50.833 -0.580611 0 -0.00301293 0 0)
(-50.6501 -0.646897 0 -0.00227629 0 0)
(-50.4032 -0.740129 0 -0.00139215 0 0)
(-50.1148 -0.864084 0 0.00248075 0 0)
(-49.7435 -1.04189 0 0.00880814 0 0)
(-49.3851 -1.29788 0 0.0271516 0 0)
(-48.9779 -1.63306 0 0.0679321 0 0)
(-50.0281 -0.134802 0 0.00323348 0 0)
(-50.2634 -0.28078 0 0.000300362 0 0)
(-50.4746 -0.314716 0 -0.000745507 0 0)
(-50.5938 -0.330157 0 -0.00115501 0 0)
(-50.6383 -0.355584 0 -0.00155686 0 0)
(-50.6464 -0.385238 0 -0.00195884 0 0)
(-50.6374 -0.413185 0 -0.00229422 0 0)
(-50.6136 -0.440958 0 -0.00253654 0 0)
(-50.5727 -0.471279 0 -0.00270864 0 0)
(-50.5097 -0.508143 0 -0.002768 0 0)
(-50.4242 -0.553426 0 -0.00268968 0 0)
(-50.311 -0.611403 0 -0.00225684 0 0)
(-50.1743 -0.68614 0 -0.00119249 0 0)
(-50.0103 -0.785751 0 0.00120133 0 0)
(-49.8348 -0.920198 0 0.00625807 0 0)
(-49.6637 -1.10167 0 0.0169036 0 0)
(-49.5345 -1.3391 0 0.0392392 0 0)
(-49.51 -1.62306 0 0.0846406 0 0)
(-50.255 -0.109665 0 0.0039296 0 0)
(-50.4115 -0.24221 0 0.0012946 0 0)
(-50.5754 -0.289663 0 -1.52132e-05 0 0)
(-50.6775 -0.309198 0 -0.000428009 0 0)
(-50.7184 -0.335225 0 -0.000724128 0 0)
(-50.7259 -0.368581 0 -0.00105515 0 0)
(-50.7134 -0.402472 0 -0.00134397 0 0)
(-50.6799 -0.436266 0 -0.00153183 0 0)
(-50.6211 -0.47236 0 -0.00156026 0 0)
(-50.5361 -0.515145 0 -0.00140846 0 0)
(-50.4251 -0.567347 0 -0.000933284 0 0)
(-50.2913 -0.63275 0 6.37953e-05 0 0)
(-50.1349 -0.715098 0 0.00208988 0 0)
(-49.9641 -0.82053 0 0.00601434 0 0)
(-49.7837 -0.956229 0 0.0134176 0 0)
(-49.6222 -1.12934 0 0.0277797 0 0)
(-49.4928 -1.33849 0 0.0538918 0 0)
(-49.4455 -1.5716 0 0.102398 0 0)
(-50.0571 -0.0969866 0 0.00445406 0 0)
(-50.2189 -0.228405 0 0.00161184 0 0)
(-50.3827 -0.286308 0 8.87032e-05 0 0)
(-50.4861 -0.312381 0 -0.000512058 0 0)
(-50.5305 -0.339114 0 -0.000864409 0 0)
(-50.5454 -0.373154 0 -0.00117058 0 0)
(-50.5478 -0.410384 0 -0.00141653 0 0)
(-50.537 -0.44911 0 -0.00153504 0 0)
(-50.5046 -0.490803 0 -0.0014574 0 0)
(-50.4461 -0.53851 0 -0.00108261 0 0)
(-50.361 -0.59506 0 -0.000229788 0 0)
(-50.2551 -0.664457 0 0.00141141 0 0)
(-50.1321 -0.750633 0 0.0044062 0 0)
(-50.001 -0.859023 0 0.00981834 0 0)
(-49.8676 -0.993562 0 0.0193471 0 0)
(-49.7509 -1.15747 0 0.0363834 0 0)
(-49.6598 -1.34508 0 0.0651921 0 0)
(-49.6209 -1.54727 0 0.113949 0 0)
(-50.0073 -0.0556443 0 0.00511327 0 0)
(-50.1068 -0.196138 0 0.0027921 0 0)
(-50.2213 -0.267277 0 0.00117755 0 0)
(-50.3112 -0.302802 0 0.00050682 0 0)
(-50.3557 -0.331997 0 0.000222346 0 0)
(-50.3651 -0.366457 0 2.75739e-05 0 0)
(-50.3553 -0.405845 0 -9.26165e-05 0 0)
(-50.3344 -0.448775 0 -5.47828e-05 0 0)
(-50.3001 -0.496023 0 0.00024768 0 0)
(-50.2481 -0.550062 0 0.000966552 0 0)
(-50.175 -0.613145 0 0.00233708 0 0)
(-50.0846 -0.688289 0 0.00478282 0 0)
(-49.9802 -0.778405 0 0.00894618 0 0)
(-49.8729 -0.887806 0 0.016032 0 0)
(-49.7678 -1.0186 0 0.0277243 0 0)
(-49.6833 -1.17272 0 0.0471859 0 0)
(-49.6207 -1.34418 0 0.0779453 0 0)
(-49.6043 -1.52748 0 0.125919 0 0)
(-49.9854 -0.072138 0 0.00426078 0 0)
(-50.0431 -0.183241 0 0.00200148 0 0)
(-50.1213 -0.255578 0 0.000609391 0 0)
(-50.1932 -0.297549 0 -3.73609e-05 0 0)
(-50.2376 -0.330018 0 -0.000323635 0 0)
(-50.255 -0.365972 0 -0.00044631 0 0)
(-50.2551 -0.407628 0 -0.000433013 0 0)
(-50.2446 -0.453722 0 -0.000209312 0 0)
(-50.2236 -0.504142 0 0.000359967 0 0)
(-50.1894 -0.56112 0 0.00146918 0 0)
(-50.1389 -0.627306 0 0.00339391 0 0)
(-50.0738 -0.705612 0 0.0066273 0 0)
(-49.9964 -0.798155 0 0.0118823 0 0)
(-49.9141 -0.907723 0 0.0204148 0 0)
(-49.8327 -1.03483 0 0.0338424 0 0)
(-49.7645 -1.18002 0 0.0549296 0 0)
(-49.7144 -1.33806 0 0.0864062 0 0)
(-49.6948 -1.50481 0 0.132574 0 0)
(-49.934 -0.0503533 0 0.00521824 0 0)
(-49.9776 -0.162446 0 0.00295651 0 0)
(-50.0645 -0.24049 0 0.00154006 0 0)
(-50.1678 -0.289555 0 0.000875547 0 0)
(-50.25 -0.325366 0 0.000635213 0 0)
(-50.2959 -0.362102 0 0.000611756 0 0)
(-50.3097 -0.405308 0 0.000789741 0 0)
(-50.301 -0.454981 0 0.00125242 0 0)
(-50.2757 -0.510546 0 0.00214243 0 0)
(-50.2375 -0.572959 0 0.00369916 0 0)
(-50.189 -0.643993 0 0.00624647 0 0)
(-50.1345 -0.725971 0 0.0103178 0 0)
(-50.0771 -0.820442 0 0.0166444 0 0)
(-50.0218 -0.929265 0 0.0264464 0 0)
(-49.9716 -1.05234 0 0.0411852 0 0)
(-49.934 -1.1896 0 0.0631967 0 0)
(-49.9102 -1.33648 0 0.0945051 0 0)
(-49.9087 -1.48993 0 0.138256 0 0)
(-49.915 -0.0531357 0 0.00605822 0 0)
(-49.9244 -0.147544 0 0.00392459 0 0)
(-49.9635 -0.220157 0 0.00215135 0 0)
(-50.0177 -0.270898 0 0.00138344 0 0)
(-50.066 -0.312065 0 0.00112111 0 0)
(-50.0976 -0.35503 0 0.00114784 0 0)
(-50.1112 -0.404065 0 0.00141952 0 0)
(-50.1103 -0.458663 0 0.00204017 0 0)
(-50.0984 -0.517436 0 0.00322296 0 0)
(-50.0779 -0.581041 0 0.00524543 0 0)
(-50.0505 -0.651625 0 0.00844067 0 0)
(-50.0196 -0.732071 0 0.0133436 0 0)
(-49.9878 -0.824301 0 0.0206527 0 0)
(-49.9598 -0.929812 0 0.0314889 0 0)
(-49.9374 -1.04794 0 0.0470765 0 0)
(-49.9271 -1.17795 0 0.069346 0 0)
(-49.9278 -1.31547 0 0.0996582 0 0)
(-49.9478 -1.45814 0 0.140362 0 0)
(-50.0651 -0.0645097 0 0.00624045 0 0)
(-50.0954 -0.148741 0 0.00449637 0 0)
(-50.1446 -0.221879 0 0.00300954 0 0)
(-50.2013 -0.273787 0 0.0022614 0 0)
(-50.2459 -0.314091 0 0.00198138 0 0)
(-50.2677 -0.354469 0 0.00213823 0 0)
(-50.2701 -0.401548 0 0.00269574 0 0)
(-50.2621 -0.456739 0 0.00365957 0 0)
(-50.2486 -0.518611 0 0.00519757 0 0)
(-50.2309 -0.586189 0 0.00765373 0 0)
(-50.2075 -0.659993 0 0.0114206 0 0)
(-50.18 -0.741936 0 0.0170302 0 0)
(-50.1499 -0.833431 0 0.0251223 0 0)
(-50.1233 -0.935923 0 0.036677 0 0)
(-50.1027 -1.04858 0 0.0526583 0 0)
(-50.0964 -1.17109 0 0.0745923 0 0)
(-50.1017 -1.29936 0 0.103318 0 0)
(-50.1287 -1.43243 0 0.140556 0 0)
(-49.8477 -0.0355239 0 0.00636624 0 0)
(-49.8829 -0.126257 0 0.00414289 0 0)
(-49.9307 -0.193717 0 0.00253851 0 0)
(-49.9897 -0.248846 0 0.00188765 0 0)
(-50.0387 -0.298865 0 0.0018086 0 0)
(-50.0656 -0.348641 0 0.00213323 0 0)
(-50.0734 -0.401293 0 0.00284872 0 0)
(-50.0728 -0.458165 0 0.00407036 0 0)
(-50.0719 -0.519586 0 0.00599934 0 0)
(-50.073 -0.586388 0 0.00893783 0 0)
(-50.0739 -0.659809 0 0.0132477 0 0)
(-50.0721 -0.741531 0 0.0194479 0 0)
(-50.0667 -0.832045 0 0.0281229 0 0)
(-50.0612 -0.931952 0 0.0401441 0 0)
(-50.0588 -1.03982 0 0.0562627 0 0)
(-50.0662 -1.15559 0 0.0776748 0 0)
(-50.0847 -1.2755 0 0.104843 0 0)
(-50.1211 -1.39996 0 0.139034 0 0)
(-49.9912 -0.0515367 0 0.00747266 0 0)
(-49.9892 -0.127925 0 0.00600141 0 0)
(-49.9991 -0.19358 0 0.00407095 0 0)
(-50.0337 -0.249256 0 0.00336196 0 0)
(-50.077 -0.298954 0 0.00340176 0 0)
(-50.1144 -0.347615 0 0.00390926 0 0)
(-50.1442 -0.39924 0 0.00482604 0 0)
(-50.1688 -0.45588 0 0.00628035 0 0)
(-50.1899 -0.51772 0 0.00852062 0 0)
(-50.208 -0.585312 0 0.0118685 0 0)
(-50.2235 -0.659536 0 0.016662 0 0)
(-50.2367 -0.74175 0 0.0233626 0 0)
(-50.2494 -0.831964 0 0.0324554 0 0)
(-50.2633 -0.930226 0 0.0446755 0 0)
(-50.2821 -1.03436 0 0.0605755 0 0)
(-50.3081 -1.14417 0 0.0811388 0 0)
(-50.345 -1.25578 0 0.106467 0 0)
(-50.3926 -1.37049 0 0.137609 0 0)
(-50.0357 -0.0589459 0 0.00811702 0 0)
(-50.0589 -0.117488 0 0.00660594 0 0)
(-50.0816 -0.183199 0 0.00491922 0 0)
(-50.1132 -0.240214 0 0.004107 0 0)
(-50.1473 -0.289236 0 0.00402143 0 0)
(-50.1781 -0.337534 0 0.00455568 0 0)
(-50.2055 -0.389517 0 0.00562746 0 0)
(-50.2322 -0.446488 0 0.00731817 0 0)
(-50.2593 -0.508614 0 0.00982814 0 0)
(-50.2871 -0.576469 0 0.0134372 0 0)
(-50.3148 -0.650533 0 0.0184453 0 0)
(-50.3426 -0.731594 0 0.0252609 0 0)
(-50.3703 -0.819151 0 0.0342914 0 0)
(-50.4013 -0.913219 0 0.0461358 0 0)
(-50.4355 -1.01169 0 0.0611672 0 0)
(-50.4783 -1.11464 0 0.0801208 0 0)
(-50.5261 -1.21847 0 0.1029 0 0)
(-50.5875 -1.32488 0 0.130291 0 0)
(-49.8942 -0.0273758 0 0.00926183 0 0)
(-49.9271 -0.0987685 0 0.00824989 0 0)
(-49.9496 -0.167552 0 0.00667361 0 0)
(-49.9712 -0.227428 0 0.00603209 0 0)
(-49.9989 -0.279743 0 0.00626431 0 0)
(-50.0299 -0.32971 0 0.0071046 0 0)
(-50.0618 -0.381057 0 0.00844987 0 0)
(-50.0946 -0.435776 0 0.0104191 0 0)
(-50.129 -0.495172 0 0.0132444 0 0)
(-50.1659 -0.56069 0 0.0172074 0 0)
(-50.2051 -0.632924 0 0.0225538 0 0)
(-50.246 -0.712291 0 0.0296024 0 0)
(-50.2886 -0.797528 0 0.0386233 0 0)
(-50.3342 -0.888128 0 0.0500796 0 0)
(-50.3848 -0.981537 0 0.0641079 0 0)
(-50.4423 -1.07799 0 0.0812881 0 0)
(-50.5085 -1.17392 0 0.101249 0 0)
(-50.5835 -1.27164 0 0.12468 0 0)
(-50.4279 -0.0289509 0 0.0107707 0 0)
(-50.4071 -0.107619 0 0.00891691 0 0)
(-50.3997 -0.162811 0 0.00635245 0 0)
(-50.4185 -0.21069 0 0.00553359 0 0)
(-50.4559 -0.258449 0 0.00583543 0 0)
(-50.4996 -0.307454 0 0.00672481 0 0)
(-50.5415 -0.358159 0 0.00806796 0 0)
(-50.5806 -0.411586 0 0.0100208 0 0)
(-50.6191 -0.46925 0 0.0128227 0 0)
(-50.6602 -0.532847 0 0.0167128 0 0)
(-50.7053 -0.602841 0 0.0218588 0 0)
(-50.7557 -0.679131 0 0.0284744 0 0)
(-50.8113 -0.759975 0 0.0367209 0 0)
(-50.8737 -0.844494 0 0.0469132 0 0)
(-50.9424 -0.93005 0 0.0590838 0 0)
(-51.0193 -1.01719 0 0.0736021 0 0)
(-51.102 -1.1026 0 0.090068 0 0)
(-51.1943 -1.18959 0 0.108995 0 0)
(-49.7309 -0.0593585 0 0.0106184 0 0)
(-49.692 -0.109872 0 0.00905064 0 0)
(-49.6769 -0.157516 0 0.00595937 0 0)
(-49.7046 -0.205428 0 0.00518121 0 0)
(-49.7564 -0.253485 0 0.00576709 0 0)
(-49.8129 -0.301335 0 0.00704475 0 0)
(-49.8668 -0.349417 0 0.00882786 0 0)
(-49.9194 -0.399223 0 0.0111869 0 0)
(-49.973 -0.452522 0 0.0142926 0 0)
(-50.0309 -0.510824 0 0.0183382 0 0)
(-50.0942 -0.574068 0 0.0234474 0 0)
(-50.1659 -0.642056 0 0.0297636 0 0)
(-50.2449 -0.713302 0 0.0373404 0 0)
(-50.3343 -0.787574 0 0.046368 0 0)
(-50.429 -0.862663 0 0.0567629 0 0)
(-50.5346 -0.939502 0 0.0687951 0 0)
(-50.6405 -1.01479 0 0.0820593 0 0)
(-50.76 -1.09188 0 0.0969825 0 0)
(-49.7487 -0.086316 0 0.0106572 0 0)
(-49.7652 -0.0924482 0 0.00999449 0 0)
(-49.7993 -0.118743 0 0.00794265 0 0)
(-49.8505 -0.157203 0 0.00726172 0 0)
(-49.9136 -0.199071 0 0.00744477 0 0)
(-49.9834 -0.241308 0 0.00830494 0 0)
(-50.0543 -0.284605 0 0.00975829 0 0)
(-50.125 -0.330612 0 0.0117797 0 0)
(-50.1972 -0.379977 0 0.0144186 0 0)
(-50.2722 -0.43278 0 0.0177792 0 0)
(-50.3514 -0.488236 0 0.0219454 0 0)
(-50.4361 -0.546422 0 0.0270114 0 0)
(-50.5279 -0.606587 0 0.0329884 0 0)
(-50.6265 -0.669459 0 0.0399688 0 0)
(-50.732 -0.733377 0 0.0478179 0 0)
(-50.8429 -0.799524 0 0.0567101 0 0)
(-50.9595 -0.864462 0 0.0663096 0 0)
(-51.0794 -0.931248 0 0.0768762 0 0)
(-50.048 -0.0408462 0 0.0111117 0 0)
(-50.1296 -0.0589869 0 0.01048 0 0)
(-50.204 -0.0875656 0 0.00805442 0 0)
(-50.2695 -0.122792 0 0.00723765 0 0)
(-50.3335 -0.160946 0 0.00752469 0 0)
(-50.401 -0.200685 0 0.00853296 0 0)
(-50.4748 -0.242219 0 0.0100594 0 0)
(-50.5553 -0.285879 0 0.0120298 0 0)
(-50.641 -0.331113 0 0.0144606 0 0)
(-50.7298 -0.377515 0 0.0174142 0 0)
(-50.8209 -0.424667 0 0.0209292 0 0)
(-50.9153 -0.472848 0 0.0250461 0 0)
(-51.0143 -0.521715 0 0.0297405 0 0)
(-51.1188 -0.571946 0 0.0350543 0 0)
(-51.2295 -0.62257 0 0.0408695 0 0)
(-51.3456 -0.674704 0 0.0472948 0 0)
(-51.4676 -0.725904 0 0.0540829 0 0)
(-51.5938 -0.778629 0 0.0614258 0 0)
(-50.033 0.00909022 0 0.0134798 0 0)
(-50.0696 -0.0211452 0 0.0118263 0 0)
(-50.1155 -0.0512838 0 0.00858481 0 0)
(-50.1767 -0.0794349 0 0.00724092 0 0)
(-50.2495 -0.105294 0 0.00711823 0 0)
(-50.3312 -0.13078 0 0.00765058 0 0)
(-50.421 -0.158733 0 0.00866712 0 0)
(-50.5184 -0.191249 0 0.0100904 0 0)
(-50.623 -0.228266 0 0.0118237 0 0)
(-50.7343 -0.268374 0 0.0138501 0 0)
(-50.8508 -0.309523 0 0.0162194 0 0)
(-50.971 -0.350711 0 0.0189817 0 0)
(-51.0937 -0.391024 0 0.022118 0 0)
(-51.2194 -0.431241 0 0.0256354 0 0)
(-51.3478 -0.470866 0 0.0294424 0 0)
(-51.4801 -0.511522 0 0.0336145 0 0)
(-51.6149 -0.551212 0 0.038001 0 0)
(-51.7541 -0.592642 0 0.042668 0 0)
(-50.0634 0.00879517 0 0.0116005 0 0)
(-50.0864 -0.0081423 0 0.0107435 0 0)
(-50.1384 -0.0186277 0 0.00805869 0 0)
(-50.2164 -0.0336883 0 0.00702296 0 0)
(-50.3052 -0.054653 0 0.00692128 0 0)
(-50.3928 -0.0785202 0 0.00741355 0 0)
(-50.4778 -0.102518 0 0.00827718 0 0)
(-50.5651 -0.126734 0 0.00937773 0 0)
(-50.6591 -0.152803 0 0.0106998 0 0)
(-50.762 -0.181938 0 0.0122701 0 0)
(-50.8734 -0.213697 0 0.0140902 0 0)
(-50.9915 -0.247123 0 0.016168 0 0)
(-51.1144 -0.280641 0 0.0184932 0 0)
(-51.2415 -0.313854 0 0.0210769 0 0)
(-51.3724 -0.345868 0 0.023848 0 0)
(-51.5082 -0.377919 0 0.0268634 0 0)
(-51.648 -0.408772 0 0.0300132 0 0)
(-51.7937 -0.440918 0 0.0333406 0 0)
(-49.9783 0.023709 0 0.0117048 0 0)
(-49.9765 0.0230115 0 0.0105902 0 0)
(-50.0096 0.0123998 0 0.00779686 0 0)
(-50.0785 -0.00279606 0 0.00634812 0 0)
(-50.1721 -0.0205984 0 0.00586872 0 0)
(-50.2798 -0.0404881 0 0.0060348 0 0)
(-50.3927 -0.0611925 0 0.00657789 0 0)
(-50.5076 -0.0818972 0 0.00732311 0 0)
(-50.624 -0.103112 0 0.00821714 0 0)
(-50.7428 -0.125993 0 0.00927606 0 0)
(-50.8653 -0.15076 0 0.010517 0 0)
(-50.993 -0.177033 0 0.0119444 0 0)
(-51.126 -0.203408 0 0.0135434 0 0)
(-51.2638 -0.229298 0 0.0153038 0 0)
(-51.4052 -0.253555 0 0.0171572 0 0)
(-51.5497 -0.277247 0 0.0191559 0 0)
(-51.6962 -0.299353 0 0.0212247 0 0)
(-51.8445 -0.322465 0 0.0233887 0 0)
(-49.9749 -0.0238812 0 0.00882489 0 0)
(-50.0529 0.0226225 0 0.00747607 0 0)
(-50.1362 0.0384489 0 0.0056118 0 0)
(-50.2337 0.0381703 0 0.00495842 0 0)
(-50.3457 0.0321889 0 0.00492796 0 0)
(-50.4634 0.0243039 0 0.00515976 0 0)
(-50.5805 0.0134933 0 0.00554933 0 0)
(-50.6975 -0.0013755 0 0.00607457 0 0)
(-50.8172 -0.0196033 0 0.00672679 0 0)
(-50.941 -0.0397506 0 0.00751469 0 0)
(-51.0695 -0.0603586 0 0.00844294 0 0)
(-51.2021 -0.0806655 0 0.00950812 0 0)
(-51.3381 -0.100187 0 0.010688 0 0)
(-51.4765 -0.119391 0 0.0119799 0 0)
(-51.617 -0.13814 0 0.0133431 0 0)
(-51.7582 -0.15729 0 0.0148208 0 0)
(-51.9007 -0.176017 0 0.0163605 0 0)
(-52.043 -0.195654 0 0.0179707 0 0)
(-49.9966 0.071479 0 0.00830551 0 0)
(-50.0861 0.0600946 0 0.00602675 0 0)
(-50.1839 0.070439 0 0.00393925 0 0)
(-50.2915 0.0744359 0 0.00316443 0 0)
(-50.4062 0.0662247 0 0.0030636 0 0)
(-50.5221 0.0526701 0 0.00324316 0 0)
(-50.6383 0.0389077 0 0.00352664 0 0)
(-50.7595 0.0257064 0 0.00387726 0 0)
(-50.8902 0.0121451 0 0.00430361 0 0)
(-51.0318 -0.00254047 0 0.00482228 0 0)
(-51.1822 -0.0182324 0 0.00543794 0 0)
(-51.3378 -0.0346452 0 0.00614851 0 0)
(-51.4952 -0.0511303 0 0.00694299 0 0)
(-51.6524 -0.0674834 0 0.0078128 0 0)
(-51.8083 -0.0830285 0 0.00872917 0 0)
(-51.9628 -0.0983135 0 0.00971516 0 0)
(-52.1158 -0.112569 0 0.0107319 0 0)
(-52.2682 -0.127234 0 0.0117863 0 0)
(-49.9169 0.0475135 0 0.00806889 0 0)
(-49.9522 0.0880105 0 0.00590785 0 0)
(-50.0451 0.115467 0 0.00389967 0 0)
(-50.1727 0.124791 0 0.00300868 0 0)
(-50.3008 0.123836 0 0.00269216 0 0)
(-50.4186 0.120422 0 0.00270509 0 0)
(-50.5326 0.116476 0 0.00288917 0 0)
(-50.6505 0.111369 0 0.00314304 0 0)
(-50.7746 0.104693 0 0.0034362 0 0)
(-50.9045 0.0964812 0 0.00377989 0 0)
(-51.0399 0.0868412 0 0.00419368 0 0)
(-51.1814 0.0757008 0 0.00468446 0 0)
(-51.3294 0.0633732 0 0.00524363 0 0)
(-51.483 0.0501312 0 0.00586393 0 0)
(-51.6414 0.036786 0 0.00651633 0 0)
(-51.802 0.0234032 0 0.00722989 0 0)
(-51.9642 0.0108535 0 0.0079707 0 0)
(-52.1256 -0.00165522 0 0.00872171 0 0)
(-50.1396 0.0470845 0 0.00743204 0 0)
(-50.2372 0.103828 0 0.00569318 0 0)
(-50.3892 0.122456 0 0.00387056 0 0)
(-50.5537 0.121382 0 0.00309045 0 0)
(-50.7001 0.11689 0 0.00286227 0 0)
(-50.8302 0.113279 0 0.00283356 0 0)
(-50.9588 0.109205 0 0.00285718 0 0)
(-51.0941 0.10371 0 0.00291876 0 0)
(-51.236 0.0973601 0 0.00303418 0 0)
(-51.382 0.0910868 0 0.00320267 0 0)
(-51.5308 0.085211 0 0.00341387 0 0)
(-51.6823 0.0794904 0 0.00365782 0 0)
(-51.8367 0.0736941 0 0.00393348 0 0)
(-51.9935 0.067397 0 0.00424885 0 0)
(-52.1521 0.0606977 0 0.00459139 0 0)
(-52.3113 0.0532949 0 0.00498943 0 0)
(-52.4707 0.0456965 0 0.00542421 0 0)
(-52.6294 0.0372676 0 0.00586989 0 0)
(-50.0158 0.104767 0 0.00575787 0 0)
(-50.1406 0.192288 0 0.00328549 0 0)
(-50.2934 0.208559 0 0.00189551 0 0)
(-50.4352 0.205943 0 0.00137424 0 0)
(-50.5506 0.206672 0 0.00113285 0 0)
(-50.6549 0.209057 0 0.00105052 0 0)
(-50.7677 0.208863 0 0.00105004 0 0)
(-50.8977 0.206094 0 0.00108593 0 0)
(-51.0421 0.202409 0 0.00114432 0 0)
(-51.1943 0.198585 0 0.00122776 0 0)
(-51.3489 0.194443 0 0.00134738 0 0)
(-51.503 0.189449 0 0.00151297 0 0)
(-51.6551 0.183423 0 0.0017233 0 0)
(-51.8048 0.176466 0 0.00197094 0 0)
(-51.9526 0.169091 0 0.00223882 0 0)
(-52.0998 0.161463 0 0.00253972 0 0)
(-52.2471 0.154122 0 0.0028556 0 0)
(-52.3958 0.146746 0 0.00317736 0 0)
(-50.0143 0.0530582 0 0.00482265 0 0)
(-50.26 0.135195 0 0.00254127 0 0)
(-50.4984 0.148417 0 0.00148864 0 0)
(-50.679 0.146249 0 0.00112214 0 0)
(-50.819 0.150684 0 0.000947143 0 0)
(-50.9494 0.158579 0 0.000835978 0 0)
(-51.0854 0.164949 0 0.000756537 0 0)
(-51.2289 0.1692 0 0.00069515 0 0)
(-51.3774 0.172119 0 0.000655125 0 0)
(-51.5281 0.173845 0 0.000649745 0 0)
(-51.68 0.174034 0 0.000684953 0 0)
(-51.8322 0.172797 0 0.000753943 0 0)
(-51.9847 0.170436 0 0.000849382 0 0)
(-52.1366 0.16765 0 0.000965075 0 0)
(-52.2894 0.164803 0 0.00109446 0 0)
(-52.4415 0.162306 0 0.00124515 0 0)
(-52.5958 0.160139 0 0.00140784 0 0)
(-52.7486 0.158295 0 0.00156919 0 0)
(-50.1356 0.231547 0 0.00257087 0 0)
(-50.5108 0.30994 0 -2.02728e-05 0 0)
(-50.8399 0.291117 0 -0.000429309 0 0)
(-51.0684 0.281198 0 -0.000522815 0 0)
(-51.227 0.283973 0 -0.000641217 0 0)
(-51.3538 0.286694 0 -0.000720895 0 0)
(-51.4641 0.286517 0 -0.000754086 0 0)
(-51.5596 0.285519 0 -0.00076658 0 0)
(-51.6375 0.284873 0 -0.000774208 0 0)
(-51.6986 0.284271 0 -0.000772128 0 0)
(-51.7447 0.282776 0 -0.000746976 0 0)
(-51.781 0.280139 0 -0.000698125 0 0)
(-51.8088 0.27633 0 -0.000629149 0 0)
(-51.8336 0.272072 0 -0.00054846 0 0)
(-51.8523 0.267524 0 -0.00045835 0 0)
(-51.8722 0.263469 0 -0.000359274 0 0)
(-51.8839 0.259709 0 -0.000253107 0 0)
(-51.9021 0.256969 0 -0.0001556 0 0)
(-49.1074 0.0988183 0 0.00263357 0 0)
(-47.5322 0.196056 0 0.000522749 0 0)
(-45.9401 0.190523 0 0.000208976 0 0)
(-44.3584 0.183189 0 8.44716e-05 0 0)
(-42.8497 0.181555 0 -3.74941e-05 0 0)
(-41.437 0.180094 0 -0.000123748 0 0)
(-40.1165 0.177565 0 -0.000183329 0 0)
(-38.8782 0.174225 0 -0.000224723 0 0)
(-37.7136 0.170165 0 -0.00024743 0 0)
(-36.6194 0.165508 0 -0.000253883 0 0)
(-35.5927 0.160412 0 -0.000248152 0 0)
(-34.6347 0.155206 0 -0.000234926 0 0)
(-33.7395 0.150035 0 -0.000216498 0 0)
(-32.9088 0.145204 0 -0.000197555 0 0)
(-32.1299 0.140682 0 -0.000178836 0 0)
(-31.4098 0.136746 0 -0.000157989 0 0)
(-30.7252 0.133154 0 -0.000140038 0 0)
(-30.0987 0.130343 0 -0.000134763 0 0)
(-0.00926547 0.0279278 -2.43842e-22 -0.0666512 5.10201e-22 4.18887e-39)
(-0.0305355 -0.00598294 6.06636e-22 0.0249817 -2.76022e-22 4.12274e-39)
(0.138116 -0.122906 0 0.0498052 0 0)
(0.504991 -0.191792 0 0.012607 0 0)
(0.875997 -0.122047 0 -0.0607631 0 0)
(1.02481 0.0507213 -5.02504e-22 -0.107431 -4.07363e-22 3.87534e-39)
(0.840098 0.243672 0 -0.103634 0 0)
(0.3432 0.371297 0 -0.0620485 0 0)
(-0.310634 0.394568 0 -0.00315981 0 0)
(-0.946038 0.32228 0 0.0516003 0 0)
(-1.39414 0.187621 -1.50778e-21 0.0862323 4.6603e-22 3.563e-39)
(-1.58317 0.0581498 0 0.0933816 0 0)
(-1.52522 -0.0366575 0 0.0873225 0 0)
(-1.25054 -0.140572 0 0.0837561 0 0)
(-0.81823 -0.269717 0 0.0794548 0 0)
(-0.234819 -0.430133 -2.83068e-21 0.0732397 1.33068e-22 3.28158e-39)
(0.554191 -0.364973 0 0.0530973 0 0)
(1.11857 -0.0582 0 0.0499198 0 0)
(1.4483 0.104956 0 0.070181 0 0)
(1.56977 0.160671 0 0.0932641 0 0)
(1.6808 0.176871 0 0.117194 0 0)
(1.93845 0.187275 0 0.144514 0 0)
(2.39838 0.142543 0 0.156122 0 0)
(2.93655 -0.0185305 -3.34134e-21 0.132515 -5.85275e-23 2.89255e-39)
(3.69801 -0.211969 3.25597e-21 0.134316 1.72248e-22 2.84757e-39)
(4.47637 -0.207174 -3.12007e-21 0.163265 -2.38625e-22 2.80306e-39)
(5.19915 -0.151249 -2.96931e-21 0.233729 -2.65113e-22 2.75887e-39)
(5.91849 -0.133749 0 0.283504 0 0)
(6.60923 -0.136428 0 0.23331 0 0)
(7.28577 -0.236421 2.60851e-21 0.279457 1.13803e-22 2.62278e-39)
(7.99153 -0.330096 2.57555e-21 0.277024 1.93083e-22 2.57603e-39)
(8.76431 -0.393823 0 0.266871 0 0)
(9.62178 -0.439699 0 0.257421 0 0)
(10.4857 -0.4577 2.69767e-21 0.265275 7.75252e-23 2.44002e-39)
(11.3036 -0.471679 0 0.287091 0 0)
(12.1084 -0.491922 0 0.329988 0 0)
(13.0233 -0.591872 -3.14581e-21 0.409014 2.29177e-23 2.31095e-39)
(14.194 -0.750792 0 0.446083 0 0)
(15.5561 -0.8905 -3.85509e-21 0.413369 1.661e-22 2.22894e-39)
(16.7774 -0.813588 -8.43581e-21 0.323447 3.72412e-22 8.75378e-39)
(17.4039 -0.418204 0 0.248275 0 0)
(17.1714 -0.00981836 0 0.229133 0 0)
(16.2007 0.204315 0 0.265131 0 0)
(14.9787 -0.0764776 0 0.293645 0 0)
(14.6971 -0.369767 0 0.365016 0 0)
(14.7574 -0.369289 -1.12808e-20 0.413697 4.27667e-22 7.82902e-39)
(14.9773 -0.952979 -1.149e-20 0.438335 4.58497e-22 7.68026e-39)
(14.9414 -1.13033 -1.11858e-20 0.539686 4.97988e-22 7.53339e-39)
(14.8509 -0.173905 0 0.280727 0 0)
(13.5338 0.163497 1.03581e-20 0.364643 3.20305e-22 7.24337e-39)
(12.9079 -0.0253497 0 0.297835 0 0)
(12.5317 -0.118139 -9.21849e-21 0.29313 -1.10966e-22 6.96431e-39)
(12.3443 -0.162334 -8.77817e-21 0.273229 -9.90317e-23 6.82962e-39)
(12.2939 -0.280672 0 0.239094 0 0)
(12.7274 -0.435218 0 0.203792 0 0)
(13.1702 -0.970846 0 0.216744 0 0)
(13.912 -0.760828 -8.52387e-21 0.207306 5.53407e-22 6.31798e-39)
(14.0206 -0.529023 0 0.318039 0 0)
(14.7914 -0.683946 0 0.254418 0 0)
(16.103 -0.736394 0 0.2223 0 0)
(17.8152 -0.826176 0 0.181047 0 0)
(19.9986 -0.921517 0 0.147597 0 0)
(22.5009 -1.00027 0 0.118919 0 0)
(25.1173 -1.01815 0 0.0999356 0 0)
(27.693 -0.991883 0 0.0875969 0 0)
(30.005 -0.919092 1.41741e-20 0.0804747 -9.40573e-22 5.29969e-39)
(31.936 -0.820168 0 0.077204 0 0)
(33.3845 -0.69412 0 0.0783046 0 0)
(34.3245 -0.547667 -1.72428e-20 0.0831625 8.40061e-22 4.99477e-39)
(34.796 -0.407447 -1.76622e-20 0.0892758 7.36631e-22 4.89595e-39)
(34.9869 -0.299587 0 0.0945859 0 0)
(35.0251 -0.216851 1.77612e-20 0.0985603 -6.10101e-22 4.70272e-39)
(35.1581 -0.211087 -1.75637e-20 0.104986 6.31533e-22 4.6074e-39)
(35.459 -0.25522 0 0.116632 0 0)
(35.6693 -0.257769 1.65824e-20 0.12512 -5.28715e-22 4.41634e-39)
(35.5968 -0.16142 0 0.116202 0 0)
(35.1208 -0.00924884 0 0.12339 0 0)
(34.1454 0.143489 -1.32934e-20 0.138871 1.04705e-22 4.14158e-39)
(32.5592 0.326512 0 0.142617 0 0)
(30.1988 0.515892 1.12063e-20 0.155559 -4.16751e-23 3.96952e-39)
(27.1589 0.638763 0 0.170098 0 0)
(23.6168 0.607804 -9.41855e-21 0.170749 -1.45703e-22 3.80617e-39)
(20.3343 0.488864 -8.68846e-21 0.176808 -7.93432e-23 3.72701e-39)
(16.9534 0.269151 -8.05961e-21 0.191988 4.4736e-23 3.64911e-39)
(14.6136 -0.198204 -1.578e-20 0.198385 6.97658e-22 1.42878e-38)
(11.9922 -0.52096 1.53957e-20 0.266817 -1.08644e-21 1.39824e-38)
(9.40316 -0.577271 0 0.284329 0 0)
(4.89623 0.220579 0 0.368601 0 0)
(-1.69287 1.76918 0 0.266495 0 0)
(-8.94549 1.67949 7.59112e-21 0.306932 1.31729e-21 1.27744e-38)
(-12.8069 0.934344 4.7156e-21 0.220919 4.50885e-22 1.24819e-38)
(-14.5483 0.404824 -3.54144e-21 0.16826 2.44855e-22 1.21992e-38)
(-14.6724 0.00117364 0 0.125253 0 0)
(-13.594 -0.28396 6.52977e-21 0.0961399 -1.17432e-21 1.16643e-38)
(-11.6229 -0.488702 1.00594e-20 0.0740984 -1.41258e-21 1.14103e-38)
(-8.99438 -0.629164 1.44307e-20 0.0573876 -1.53993e-21 1.11635e-38)
(-5.90164 -0.720024 0 0.0437144 0 0)
(-2.50876 -0.769549 0 0.0323215 0 0)
(1.0407 -0.784353 0 0.0224985 0 0)
(4.61731 -0.769493 3.36525e-20 0.014011 -1.30801e-21 1.02268e-38)
(8.10512 -0.731531 0 0.00672341 0 0)
(11.3999 -0.671132 0 0.000550695 0 0)
(14.4188 -0.59435 -4.28259e-20 -0.00446875 7.05911e-22 9.55463e-39)
(17.0887 -0.505011 0 -0.00834732 0 0)
(19.3612 -0.407956 0 -0.0111455 0 0)
(21.201 -0.306954 -4.34249e-20 -0.0129573 4.97557e-23 8.90166e-39)
(22.588 -0.205946 0 -0.0138924 0 0)
(23.5186 -0.108294 0 -0.0140741 0 0)
(24.0034 -0.0170559 3.61173e-20 -0.0136472 4.30256e-22 8.27341e-39)
(24.0687 0.0655532 3.25017e-20 -0.0127345 5.30967e-22 8.07083e-39)
(23.7542 0.137479 0 -0.0114637 0 0)
(23.1083 0.19745 -2.45326e-20 -0.00994809 -6.39158e-22 7.67791e-39)
(22.183 0.245193 0 -0.00829887 0 0)
(21.0295 0.281562 1.66423e-20 -0.00660098 6.42645e-22 7.30212e-39)
(19.6951 0.307971 0 -0.00492847 0 0)
(18.2208 0.325906 9.68277e-21 -0.00337084 5.84001e-22 6.94288e-39)
(16.6433 0.337018 6.67889e-21 -0.00192413 5.43727e-22 6.7689e-39)
(14.9947 0.342268 0 -0.000629926 0 0)
(13.3031 0.342353 0 0.000486092 0 0)
(11.5934 0.337712 0 0.00141603 0 0)
(9.88726 0.328891 0 0.0021377 0 0)
(8.20388 0.31649 0 0.00265025 0 0)
(6.56077 0.302171 0 0.00308135 0 0)
(4.97419 0.286767 0 0.0033314 0 0)
(3.44888 0.270536 -6.24833e-21 0.00348904 2.51126e-22 5.49352e-39)
(1.99313 0.252506 6.84258e-21 0.00355893 -2.30309e-22 5.34459e-39)
(0.608579 0.234443 0 0.00355858 0 0)
(-0.702532 0.216746 0 0.00351232 0 0)
(-1.93973 0.199493 0 0.00343846 0 0)
(-3.10379 0.182848 0 0.0033542 0 0)
(-4.19643 0.166947 1.69818e-20 0.00327359 -3.20336e-22 1.8595e-38)
(-5.21978 0.151842 0 0.0032079 0 0)
(-6.17598 0.137498 -1.76377e-20 0.00316535 2.73752e-22 1.75668e-38)
(-7.06703 0.123835 1.788e-20 0.00315089 -2.49089e-22 1.70698e-38)
(-7.89447 0.110743 0 0.00316959 0 0)
(-8.6592 0.098091 0 0.00322862 0 0)
(-9.3612 0.0857969 0 0.00333237 0 0)
(-10.0002 0.0738177 -1.83263e-20 0.00348081 1.38689e-22 1.51884e-38)
(-10.576 0.0621252 -1.83026e-20 0.003674 1.07776e-22 1.47433e-38)
(-11.0881 0.0506359 0 0.00391113 0 0)
(-11.5361 0.0390979 -1.81156e-20 0.00419106 5.3747e-23 1.38819e-38)
(-11.9178 0.0272154 -1.79619e-20 0.00451141 2.47607e-23 1.34651e-38)
(-12.2296 0.0146101 1.77686e-20 0.00486851 5.20826e-24 1.30573e-38)
(-12.4656 0.000912553 0 0.0052561 0 0)
(-12.6179 -0.0138928 0 0.00566901 0 0)
(-12.6781 -0.029809 1.69854e-20 0.00610451 8.81405e-23 1.18862e-38)
(-12.6373 -0.0469023 0 0.00656692 0 0)
(-12.4868 -0.064502 0 0.00708381 0 0)
(-12.2205 -0.0822861 0 0.0076752 0 0)
(-11.8327 -0.10014 0 0.00835076 0 0)
(-11.3173 -0.11669 -1.50958e-20 0.00916474 -2.43394e-22 1.00991e-38)
(-10.6741 -0.131746 -1.45519e-20 0.0101265 -2.70803e-22 9.7652e-39)
(-9.89866 -0.145298 0 0.0112801 0 0)
(-8.98526 -0.155344 -1.3165e-20 0.0129526 -3.51432e-22 9.12001e-39)
(-7.93543 -0.161673 0 0.0153759 0 0)
(-6.74484 -0.159817 0 0.0189943 0 0)
(-5.43119 -0.142513 -9.67108e-21 0.024556 -4.12128e-22 8.20918e-39)
(-4.03396 -0.107527 0 0.0308275 0 0)
(-2.62004 -0.0501212 -6.37318e-21 0.03692 -2.80971e-22 7.63924e-39)
(-1.31741 0.0189032 0 0.0409111 0 0)
(-0.265753 0.0762435 0 0.0389927 0 0)
(0.419497 0.0812368 -1.98922e-21 0.03333 -3.68846e-24 6.83377e-39)
(0.807885 0.0328403 0 0.0288167 0 0)
(1.07648 -0.0437633 -3.14649e-22 0.0267766 -3.08675e-22 6.32638e-39)
(1.40486 -0.109012 0 0.0202631 0 0)
(1.94477 -0.121114 0 0.008147 0 0)
(2.55371 -0.09753 0 0.00492762 0 0)
(3.14104 -0.056818 -2.96253e-21 0.00351299 1.31567e-22 5.38391e-39)
(3.60616 -0.0178733 0 0.00384655 0 0)
(3.91025 0.0021782 4.15259e-21 0.00434794 -4.05886e-23 4.948e-39)
(4.07195 0.00875284 0 0.00438957 0 0)
(4.08519 0.0138445 0 0.00355156 0 0)
(3.90051 0.0281133 0 0.00204637 0 0)
(3.52717 0.036586 0 0.00116746 0 0)
(3.08999 0.0343538 0 0.00103504 0 0)
(2.72275 0.0161146 0 0.000793384 0 0)
(2.48403 0.00486396 0 0.00040211 0 0)
(2.38762 -0.006804 -6.68646e-22 0.000104787 8.00042e-23 1.36605e-38)
(2.22053 -0.00262984 0 -0.000661703 0 0)
(2.29694 0.0665535 0 0.00217442 0 0)
(0.00706334 -0.0106094 4.3733e-23 -0.0351902 -3.35023e-21 3.76915e-38)
(0.0373041 -0.127533 -4.50795e-23 0.376784 2.56409e-21 3.71512e-38)
(0.129791 -0.275923 0 0.624009 0 0)
(0.164152 -0.219756 -4.448e-22 0.439899 5.13759e-23 1.59843e-38)
(0.0090781 0.174156 0 -0.138868 0 0)
(-0.404179 0.720341 -7.19282e-22 -0.605728 9.17817e-22 3.85413e-39)