/*--------------------------------*- C++ -*----------------------------------*\
  =========                 |
  \\      /  F ield         | OpenFOAM: The Open Source CFD Toolbox
   \\    /   O peration     | Website:  https://openfoam.org
    \\  /    A nd           | Version:  9
     \\/     M anipulation  |
\*---------------------------------------------------------------------------*/
FoamFile
{
    format      ascii;
    class       volScalarField;
    location    "0.007";
    object      k_0;
}
// * * * * * * * * * * * * * * * * * * * * * * * * * * * * * * * * * * * * * //

dimensions      [0 2 -2 0 0 0 0];

internalField   nonuniform List<scalar> 
12225
(
2.89718e-05
0.000163565
0.000272205
0.000284269
0.000269099
0.000227188
0.000163948
0.000101039
5.73042e-05
3.49097e-05
2.73946e-05
2.68991e-05
3.08545e-05
4.35342e-05
5.09152e-05
5.28588e-05
4.97502e-05
6.31388e-05
2.03714e-05
3.11887e-05
5.66208e-05
6.68424e-05
6.77563e-05
6.65433e-05
6.26488e-05
5.22715e-05
3.84457e-05
2.93396e-05
2.4785e-05
2.32846e-05
2.32021e-05
2.37053e-05
2.54104e-05
3.12709e-05
3.64527e-05
3.89928e-05
2.0074e-05
1.81892e-05
1.87017e-05
1.94496e-05
1.94333e-05
1.90186e-05
1.83687e-05
1.73623e-05
1.63767e-05
1.57984e-05
1.55542e-05
1.55032e-05
1.55629e-05
1.58716e-05
1.7205e-05
1.82751e-05
2.00975e-05
2.11254e-05
2.0055e-05
2.0317e-05
2.07515e-05
2.07928e-05
2.06075e-05
1.96817e-05
1.80801e-05
1.76108e-05
1.77008e-05
1.79535e-05
1.80814e-05
1.81571e-05
1.82973e-05
1.87373e-05
1.99901e-05
2.09546e-05
2.14932e-05
2.167e-05
2.03155e-05
2.04713e-05
2.05675e-05
2.0494e-05
2.03887e-05
2.04167e-05
2.07391e-05
2.22489e-05
2.70106e-05
3.12287e-05
3.32853e-05
3.36966e-05
3.32756e-05
3.04901e-05
2.65108e-05
2.40486e-05
2.26166e-05
2.17487e-05
2.12227e-05
2.18074e-05
2.21521e-05
2.19738e-05
2.12232e-05
2.09679e-05
2.1025e-05
2.16024e-05
2.30704e-05
2.39352e-05
2.41902e-05
2.41673e-05
2.38245e-05
2.2773e-05
2.19201e-05
2.13442e-05
2.09813e-05
2.07051e-05
2.11002e-05
2.1981e-05
2.21142e-05
2.17034e-05
2.12327e-05
2.11959e-05
2.13849e-05
2.1601e-05
2.16405e-05
2.15759e-05
2.12643e-05
2.09822e-05
2.08252e-05
2.07503e-05
2.07329e-05
2.07441e-05
2.08899e-05
2.10087e-05
2.08395e-05
2.83999e-05
5.3856e-05
5.61908e-05
4.19405e-05
2.81022e-05
2.32705e-05
2.16308e-05
2.10759e-05
2.08866e-05
2.08313e-05
2.08255e-05
2.08381e-05
2.09008e-05
2.11022e-05
2.18188e-05
2.28298e-05
2.34161e-05
2.00501e-05
2.14911e-05
3.10977e-05
4.40245e-05
4.45287e-05
3.52154e-05
2.59328e-05
2.26467e-05
2.17396e-05
2.16485e-05
2.18545e-05
2.23293e-05
2.25927e-05
2.27103e-05
2.27486e-05
2.27597e-05
2.27919e-05
2.27996e-05
2.00408e-05
2.18097e-05
3.87092e-05
4.92131e-05
3.89031e-05
2.72471e-05
2.28804e-05
2.14475e-05
2.11851e-05
2.13167e-05
2.23219e-05
2.40853e-05
2.51048e-05
2.55282e-05
2.56312e-05
2.5638e-05
2.56432e-05
2.5741e-05
2.00053e-05
2.00589e-05
2.04385e-05
2.14573e-05
2.24693e-05
2.36613e-05
2.41249e-05
2.34109e-05
2.24126e-05
2.22205e-05
2.23701e-05
2.33844e-05
2.47724e-05
2.54526e-05
2.56473e-05
2.56258e-05
2.52904e-05
2.40729e-05
2.02494e-05
2.03105e-05
2.02805e-05
2.03505e-05
2.0966e-05
2.4826e-05
3.17902e-05
3.22065e-05
2.93577e-05
2.63293e-05
2.57636e-05
2.63059e-05
3.03188e-05
3.4156e-05
3.44019e-05
3.33413e-05
2.99812e-05
2.70001e-05
2.11935e-05
2.26755e-05
2.27006e-05
2.22687e-05
2.23e-05
2.36208e-05
2.45451e-05
2.40154e-05
2.31953e-05
2.29898e-05
2.30002e-05
2.32387e-05
2.36446e-05
2.38147e-05
2.38498e-05
2.38609e-05
2.3896e-05
2.39459e-05
2.02182e-05
2.37513e-05
2.61332e-05
2.57243e-05
2.33604e-05
2.23641e-05
2.16231e-05
2.10483e-05
2.07763e-05
2.06984e-05
2.06942e-05
2.0723e-05
2.08342e-05
2.11105e-05
2.16948e-05
2.28974e-05
2.56918e-05
3.35117e-05
2.40258e-05
2.62808e-05
2.69325e-05
2.53749e-05
2.49785e-05
2.4871e-05
2.3777e-05
2.18872e-05
2.09828e-05
2.05849e-05
2.05256e-05
2.06003e-05
2.10404e-05
2.27072e-05
2.69176e-05
3.06677e-05
3.33005e-05
3.46959e-05
2.16939e-05
2.16077e-05
2.13318e-05
2.19939e-05
2.38119e-05
2.39577e-05
2.27173e-05
2.14687e-05
2.10587e-05
2.10472e-05
2.11724e-05
2.18219e-05
2.47844e-05
3.17406e-05
3.61776e-05
3.79523e-05
3.82509e-05
3.80055e-05
2.2234e-05
2.09442e-05
2.10577e-05
2.28072e-05
2.43244e-05
2.46611e-05
2.45337e-05
2.38024e-05
2.35775e-05
2.41538e-05
2.42605e-05
2.32702e-05
2.31884e-05
2.41896e-05
2.79341e-05
3.26052e-05
3.48656e-05
3.52924e-05
2.01295e-05
2.06834e-05
2.17501e-05
2.24091e-05
2.47805e-05
2.85235e-05
3.00407e-05
2.98608e-05
2.78322e-05
2.4578e-05
2.30415e-05
2.26031e-05
2.25704e-05
2.27349e-05
2.30235e-05
2.31466e-05
2.31615e-05
2.31408e-05
2.00048e-05
2.00806e-05
2.03294e-05
2.15018e-05
2.38813e-05
2.38666e-05
2.37169e-05
2.56184e-05
2.75428e-05
2.75213e-05
2.77071e-05
3.01164e-05
3.16375e-05
3.10251e-05
2.79575e-05
2.61445e-05
2.56792e-05
2.57166e-05
2.0033e-05
2.0265e-05
2.04128e-05
2.10065e-05
2.21535e-05
2.22678e-05
2.22703e-05
2.30502e-05
2.6026e-05
2.78479e-05
2.797e-05
2.71355e-05
2.4596e-05
2.28376e-05
2.19799e-05
2.17092e-05
2.17053e-05
2.19723e-05
2.01962e-05
2.06037e-05
2.14435e-05
2.42203e-05
2.80954e-05
2.82991e-05
2.67575e-05
2.57421e-05
2.5082e-05
2.39207e-05
2.27761e-05
2.21093e-05
2.17963e-05
2.16678e-05
2.16317e-05
2.16326e-05
2.16641e-05
2.17938e-05
2.0902e-05
2.10337e-05
2.13647e-05
2.22991e-05
2.56717e-05
4.28971e-05
8.18181e-05
9.5845e-05
9.49117e-05
8.01379e-05
5.32669e-05
3.70648e-05
2.86521e-05
2.47064e-05
2.30685e-05
2.25333e-05
2.24384e-05
2.24816e-05
2.03973e-05
2.04338e-05
2.102e-05
2.56609e-05
4.76061e-05
8.42394e-05
9.75168e-05
9.80585e-05
9.41988e-05
7.95598e-05
6.1971e-05
4.77776e-05
3.69336e-05
2.93901e-05
2.48363e-05
2.26205e-05
2.17053e-05
2.13713e-05
2.01685e-05
2.04463e-05
2.29265e-05
4.21961e-05
7.48645e-05
7.91228e-05
7.13605e-05
4.96514e-05
3.41564e-05
2.68661e-05
2.40761e-05
2.32387e-05
2.30312e-05
2.28008e-05
2.22476e-05
2.16991e-05
2.13568e-05
2.11387e-05
2.09515e-05
2.02708e-05
2.07043e-05
2.28889e-05
3.17205e-05
4.26423e-05
4.49901e-05
4.0385e-05
3.01085e-05
2.61082e-05
2.56672e-05
2.73251e-05
2.94933e-05
2.96034e-05
2.86975e-05
2.62249e-05
2.47698e-05
2.41095e-05
2.05637e-05
2.30633e-05
2.38234e-05
2.37385e-05
2.30643e-05
2.26778e-05
2.26153e-05
2.2398e-05
2.19962e-05
2.17608e-05
2.16991e-05
2.17438e-05
2.20165e-05
2.2067e-05
2.19522e-05
2.18174e-05
2.18026e-05
2.1851e-05
2.02153e-05
2.02204e-05
1.99884e-05
1.98827e-05
1.98791e-05
1.9758e-05
1.91455e-05
1.88528e-05
1.88383e-05
1.87809e-05
1.85404e-05
1.76923e-05
1.58469e-05
1.49788e-05
1.50337e-05
1.55434e-05
1.6313e-05
1.69416e-05
2.00084e-05
1.84233e-05
1.44825e-05
1.27857e-05
1.28152e-05
1.37155e-05
1.51034e-05
1.55572e-05
1.55318e-05
1.49109e-05
1.38281e-05
1.32815e-05
1.30678e-05
1.30186e-05
1.30223e-05
1.30885e-05
1.33843e-05
1.38442e-05
2.01386e-05
2.08592e-05
2.16632e-05
2.17656e-05
2.15201e-05
2.12837e-05
2.13242e-05
2.16962e-05
2.19957e-05
2.20303e-05
2.19013e-05
2.13021e-05
2.07562e-05
2.05742e-05
2.05764e-05
2.07127e-05
2.12124e-05
2.24439e-05
4.16388e-05
4.07932e-05
3.80123e-05
3.64266e-05
3.20436e-05
2.9726e-05
2.97933e-05
3.07198e-05
3.08032e-05
2.98124e-05
2.57182e-05
2.24451e-05
2.12536e-05
2.11437e-05
2.16812e-05
2.45904e-05
3.60485e-05
5.25023e-05
6.04399e-07
4.63193e-06
2.35228e-05
7.69357e-05
0.000155402
0.000240503
0.000319597
0.000386748
0.00043895
0.000471544
0.000485867
0.000489626
0.000472891
0.000442982
0.000401572
0.000353044
0.000299945
0.000246028
0.000194938
0.00014741
0.000106334
7.34206e-05
4.77853e-05
2.99966e-05
1.80801e-05
1.17264e-05
8.5373e-06
7.25436e-06
8.43862e-06
9.30717e-06
1.01415e-05
1.08773e-05
1.14977e-05
1.19743e-05
1.23031e-05
1.24707e-05
1.25231e-05
1.23628e-05
1.20092e-05
1.148e-05
1.0872e-05
1.01626e-05
9.3228e-06
8.40443e-06
7.34726e-06
6.23526e-06
5.06867e-06
3.94437e-06
3.00231e-06
2.29365e-06
1.8098e-06
1.46893e-06
1.19925e-06
9.82417e-07
8.07189e-07
6.63224e-07
5.42808e-07
4.41517e-07
3.56683e-07
2.86161e-07
2.28018e-07
1.80467e-07
1.41869e-07
1.10746e-07
8.58186e-08
6.59947e-08
5.03512e-08
3.8108e-08
2.86082e-08
2.13013e-08
1.57299e-08
1.15188e-08
8.36336e-09
6.0196e-09
4.29435e-09
3.03572e-09
2.12593e-09
1.47463e-09
1.01289e-09
6.88724e-10
4.63497e-10
3.08739e-10
2.03585e-10
1.3292e-10
8.59419e-11
5.50406e-11
3.49233e-11
2.19587e-11
1.36861e-11
8.45808e-12
5.18482e-12
3.15371e-12
1.90414e-12
1.14172e-12
6.80121e-13
4.02687e-13
2.371e-13
1.38924e-13
8.10713e-14
4.71624e-14
2.73837e-14
1.58987e-14
9.25463e-15
5.42146e-15
3.21324e-15
1.94046e-15
1.20591e-15
7.81618e-16
5.36653e-16
3.9629e-16
3.15873e-16
2.70093e-16
2.44581e-16
2.3106e-16
2.24672e-16
2.22367e-16
2.22045e-16
2.22045e-16
2.22045e-16
2.22045e-16
2.22045e-16
2.22045e-16
2.22045e-16
2.22045e-16
2.22045e-16
2.22045e-16
2.22045e-16
2.22045e-16
2.22045e-16
2.22045e-16
2.22045e-16
2.22045e-16
2.22045e-16
2.22045e-16
2.22045e-16
2.22045e-16
2.22045e-16
2.22045e-16
2.22045e-16
2.22045e-16
2.22045e-16
2.22045e-16
2.22045e-16
2.22045e-16
2.22045e-16
2.22045e-16
2.22045e-16
2.22045e-16
2.22045e-16
2.22045e-16
2.22045e-16
2.22045e-16
2.22045e-16
2.22045e-16
2.22045e-16
2.22045e-16
2.22045e-16
2.22045e-16
2.22045e-16
2.22045e-16
2.22045e-16
2.22045e-16
2.22045e-16
2.22045e-16
2.22045e-16
2.26972e-16
2.81494e-16
6.74714e-16
3.10374e-15
1.66755e-14
8.70514e-14
4.44703e-13
2.96405e-12
2.11778e-10
1.18823e-09
3.30452e-08
5.12839e-08
9.83129e-08
1.45992e-07
4.90558e-07
2.53902e-06
4.19556e-06
1.13821e-05
2.92921e-05
5.34595e-05
7.84536e-05
9.91746e-05
0.000110217
0.000113624
0.000109731
0.00010103
8.93701e-05
7.71656e-05
6.47951e-05
5.35981e-05
4.42905e-05
3.70941e-05
3.22558e-05
2.94211e-05
2.82699e-05
2.85369e-05
3.05541e-05
3.3736e-05
3.79115e-05
4.32365e-05
4.93318e-05
5.58971e-05
6.26803e-05
6.93494e-05
7.55681e-05
8.12587e-05
8.6321e-05
9.06055e-05
9.39466e-05
9.63604e-05
9.77219e-05
9.82108e-05
9.77007e-05
9.58935e-05
9.30684e-05
8.97589e-05
8.6163e-05
8.21456e-05
7.78146e-05
7.25227e-05
6.68972e-05
6.15324e-05
5.20552e-05
3.98963e-05
2.83095e-05
1.98961e-05
1.54196e-05
1.24551e-05
1.01125e-05
8.29154e-06
6.87709e-06
5.73497e-06
4.76934e-06
3.94538e-06
3.2449e-06
2.65325e-06
2.1573e-06
1.74458e-06
1.40286e-06
1.12116e-06
8.90115e-07
7.01748e-07
5.49217e-07
4.26632e-07
3.28897e-07
2.51595e-07
1.90946e-07
1.43739e-07
1.07291e-07
7.93906e-08
5.82122e-08
4.22811e-08
3.04113e-08
2.16563e-08
1.52606e-08
1.06412e-08
7.34738e-09
5.02627e-09
3.4078e-09
2.29042e-09
1.52631e-09
1.0086e-09
6.61047e-10
4.29818e-10
2.77338e-10
1.77649e-10
1.12993e-10
7.13773e-11
4.47948e-11
2.79304e-11
1.73036e-11
1.06573e-11
6.52946e-12
3.98208e-12
2.41878e-12
1.46401e-12
8.83554e-13
5.3222e-13
3.20255e-13
1.92487e-13
1.15446e-13
6.902e-14
4.11027e-14
2.43845e-14
1.44181e-14
8.4982e-15
5.01996e-15
2.99792e-15
1.82802e-15
1.15377e-15
7.65925e-16
5.42541e-16
4.13157e-16
3.37481e-16
2.92652e-16
2.65726e-16
2.4934e-16
2.39258e-16
2.32997e-16
2.29081e-16
2.26613e-16
2.25047e-16
2.24045e-16
2.23396e-16
2.22971e-16
2.22689e-16
2.22498e-16
2.22368e-16
2.22277e-16
2.22213e-16
2.22167e-16
2.22134e-16
2.2211e-16
2.22093e-16
2.2208e-16
2.2207e-16
2.22063e-16
2.22057e-16
2.22053e-16
2.2205e-16
2.22048e-16
2.22046e-16
2.22045e-16
2.22045e-16
2.22045e-16
2.22045e-16
2.22045e-16
2.22045e-16
2.22045e-16
2.22045e-16
2.22045e-16
2.22045e-16
2.22045e-16
2.22045e-16
2.22045e-16
2.22045e-16
2.22045e-16
2.22045e-16
2.22045e-16
2.22061e-16
2.22253e-16
2.23946e-16
2.36289e-16
3.15733e-16
7.78324e-16
3.29023e-15
1.62726e-14
9.38175e-14
3.0233e-12
2.25012e-11
2.72525e-10
1.11953e-09
3.01549e-09
8.82383e-09
5.48895e-08
3.57258e-06
4.48245e-06
6.37015e-06
1.0443e-05
1.60194e-05
2.03887e-05
2.22844e-05
2.27416e-05
2.2271e-05
2.13481e-05
2.09056e-05
2.10805e-05
2.22944e-05
2.44089e-05
2.75608e-05
3.17203e-05
3.67717e-05
4.34436e-05
5.26947e-05
6.43447e-05
7.84701e-05
9.43206e-05
0.000111757
0.00013076
0.000150374
0.000170487
0.000190861
0.000211078
0.000230542
0.000248657
0.000264853
0.000278537
0.000289679
0.000298323
0.000304285
0.000307474
0.000309011
0.000309812
0.000306731
0.000300097
0.000289407
0.000274687
0.000257174
0.000237399
0.000216229
0.000194502
0.000172549
0.000150658
0.000129364
0.000109285
9.08444e-05
7.39679e-05
5.92235e-05
4.6913e-05
3.71765e-05
3.00107e-05
2.50976e-05
2.11768e-05
1.78128e-05
1.49135e-05
1.2423e-05
1.0297e-05
8.4999e-06
6.98728e-06
5.71501e-06
4.6475e-06
3.75592e-06
3.01516e-06
2.40332e-06
1.90158e-06
1.49331e-06
1.16359e-06
8.9926e-07
6.88958e-07
5.23025e-07
3.93146e-07
2.92589e-07
2.15266e-07
1.56748e-07
1.12954e-07
8.06002e-08
5.71513e-08
4.03408e-08
2.83272e-08
1.97792e-08
1.37289e-08
9.47137e-09
6.4942e-09
4.42662e-09
3.00106e-09
2.02517e-09
1.36066e-09
9.09977e-10
6.05877e-10
4.01166e-10
2.63963e-10
1.73253e-10
1.13492e-10
7.41733e-11
4.83476e-11
3.14134e-11
2.03386e-11
1.31273e-11
8.44821e-12
5.40839e-12
3.42823e-12
2.14851e-12
1.33202e-12
8.17383e-13
4.96956e-13
2.99381e-13
1.78495e-13
1.05926e-13
6.30669e-14
3.7797e-14
2.28677e-14
1.39965e-14
8.67728e-15
5.45358e-15
3.47921e-15
2.25943e-15
1.50122e-15
1.02817e-15
7.32398e-16
5.47171e-16
4.30901e-16
3.57631e-16
3.11175e-16
2.81466e-16
2.62251e-16
2.49666e-16
2.41286e-16
2.35638e-16
2.31749e-16
2.29045e-16
2.27139e-16
2.25763e-16
2.24775e-16
2.24061e-16
2.23525e-16
2.23126e-16
2.22839e-16
2.22628e-16
2.2246e-16
2.22323e-16
2.2222e-16
2.2215e-16
2.22107e-16
2.22081e-16
2.22065e-16
2.22056e-16
2.22051e-16
2.22048e-16
2.22046e-16
2.22046e-16
2.22045e-16
2.22045e-16
2.22045e-16
2.22045e-16
2.22045e-16
2.22045e-16
2.22045e-16
2.22045e-16
2.22045e-16
2.22045e-16
2.22051e-16
2.22098e-16
2.22442e-16
2.24698e-16
2.38109e-16
3.12359e-16
6.98348e-16
2.7712e-15
3.43762e-14
2.844e-13
2.41842e-12
1.55345e-11
5.97525e-11
2.65779e-10
2.89244e-09
4.06428e-06
5.45074e-06
6.30857e-06
7.84834e-06
9.65185e-06
1.09741e-05
1.17434e-05
1.27724e-05
1.42094e-05
1.62653e-05
1.91446e-05
2.28607e-05
2.84568e-05
3.63769e-05
4.70777e-05
6.07373e-05
7.7888e-05
9.85317e-05
0.000122234
0.00014923
0.00017951
0.000213327
0.000250541
0.000290456
0.000332198
0.000374789
0.00041709
0.000457827
0.000496022
0.000530407
0.000556988
0.000574594
0.000585217
0.000588971
0.00058171
0.000566294
0.00054631
0.000517866
0.000486793
0.000451953
0.000416369
0.000380309
0.000345157
0.000311377
0.000278805
0.000248191
0.000219602
0.000193113
0.000168715
0.00014625
0.000125829
0.000107868
9.21697e-05
7.85149e-05
6.66903e-05
5.64909e-05
4.77234e-05
4.02108e-05
3.37915e-05
2.83192e-05
2.36641e-05
1.97091e-05
1.63639e-05
1.35442e-05
1.1171e-05
9.17685e-06
7.50639e-06
6.11327e-06
4.95537e-06
3.99559e-06
3.20362e-06
2.55313e-06
2.02144e-06
1.58931e-06
1.24021e-06
9.59909e-07
7.37679e-07
5.60711e-07
4.24638e-07
3.21051e-07
2.42024e-07
1.81571e-07
1.35431e-07
1.00428e-07
7.4034e-08
5.42522e-08
3.95179e-08
2.86115e-08
2.05973e-08
1.47664e-08
1.05766e-08
7.59241e-09
5.45155e-09
3.903e-09
2.78142e-09
1.97095e-09
1.38711e-09
9.69111e-10
6.72033e-10
4.62546e-10
3.1598e-10
2.14243e-10
1.44211e-10
9.6395e-11
6.40012e-11
4.22415e-11
2.77382e-11
1.81295e-11
1.17975e-11
7.64712e-12
4.94237e-12
3.189e-12
2.05617e-12
1.32545e-12
8.54444e-13
5.50492e-13
3.54029e-13
2.26965e-13
1.44896e-13
9.20804e-14
5.82745e-14
3.6776e-14
2.3194e-14
1.46631e-14
9.32752e-15
5.99726e-15
3.91731e-15
2.61356e-15
1.79095e-15
1.26677e-15
9.28941e-16
7.07571e-16
5.60899e-16
4.61346e-16
3.93181e-16
3.45787e-16
3.11833e-16
2.87748e-16
2.70516e-16
2.57532e-16
2.47857e-16
2.41035e-16
2.3603e-16
2.3188e-16
2.28395e-16
2.25793e-16
2.24122e-16
2.2319e-16
2.22722e-16
2.22496e-16
2.22381e-16
2.22314e-16
2.22267e-16
2.2223e-16
2.22198e-16
2.22171e-16
2.22145e-16
2.22121e-16
2.22099e-16
2.2208e-16
2.22059e-16
2.22049e-16
2.2205e-16
2.22059e-16
2.22082e-16
2.22131e-16
2.22255e-16
2.22609e-16
2.23742e-16
2.28415e-16
2.52508e-16
3.92055e-16
1.14677e-15
4.89733e-15
2.11778e-14
8.84891e-14
4.59369e-13
1.74928e-12
8.56043e-12
1.57158e-10
4.2337e-06
6.28955e-06
7.61993e-06
8.20213e-06
9.37296e-06
1.04995e-05
1.16399e-05
1.33732e-05
1.60752e-05
2.027e-05
2.6525e-05
3.53204e-05
4.67362e-05
6.12195e-05
7.94553e-05
0.000102597
0.000131461
0.000166666
0.000208909
0.00025844
0.000315496
0.000379634
0.000449576
0.000523593
0.000599738
0.000675405
0.000746356
0.000809916
0.000866786
0.000914337
0.000938042
0.000947608
0.000947254
0.000935577
0.000897407
0.000851354
0.000804472
0.000741736
0.000681447
0.000617188
0.000555105
0.000495256
0.000439214
0.000387744
0.000340635
0.000298147
0.000259799
0.000224525
0.000192983
0.000165252
0.000141068
0.000120052
0.000101853
8.61552e-05
7.26707e-05
6.11332e-05
5.12985e-05
4.29474e-05
3.58787e-05
2.9912e-05
2.48895e-05
2.06698e-05
1.71129e-05
1.41188e-05
1.16149e-05
9.53035e-06
7.79731e-06
6.36104e-06
5.17504e-06
4.19878e-06
3.39537e-06
2.73531e-06
2.19463e-06
1.75331e-06
1.3945e-06
1.10398e-06
8.6979e-07
6.81851e-07
5.31759e-07
4.12492e-07
3.18208e-07
2.44069e-07
1.86094e-07
1.41016e-07
1.06174e-07
7.94077e-08
5.89772e-08
4.34845e-08
3.18178e-08
2.30939e-08
1.66202e-08
1.18539e-08
8.39592e-09
5.90342e-09
4.11931e-09
2.85151e-09
1.9574e-09
1.33179e-09
8.97707e-10
5.99165e-10
3.95759e-10
2.58537e-10
1.66927e-10
1.0644e-10
6.69683e-11
4.15333e-11
2.5364e-11
1.52344e-11
8.98829e-12
5.20295e-12
2.9515e-12
1.63884e-12
8.90123e-13
4.73445e-13
2.47125e-13
1.27092e-13
6.48277e-14
3.31248e-14
1.718e-14
9.18296e-15
5.13208e-15
3.02968e-15
1.89728e-15
1.25964e-15
8.84271e-16
6.54308e-16
5.16362e-16
4.43481e-16
4.02307e-16
3.77468e-16
3.60696e-16
3.4745e-16
3.35536e-16
3.23913e-16
3.12463e-16
3.01352e-16
2.90785e-16
2.81049e-16
2.7231e-16
2.64572e-16
2.5785e-16
2.52096e-16
2.47181e-16
2.42998e-16
2.39446e-16
2.36435e-16
2.33923e-16
2.31847e-16
2.30128e-16
2.28696e-16
2.27495e-16
2.26481e-16
2.25625e-16
2.24906e-16
2.24274e-16
2.23784e-16
2.23372e-16
2.22979e-16
2.22876e-16
2.22937e-16
2.23207e-16
2.23929e-16
2.25374e-16
2.28208e-16
2.32913e-16
2.43609e-16
2.68331e-16
3.37765e-16
5.63295e-16
1.6102e-15
7.67471e-15
4.7351e-14
2.70724e-13
1.32835e-12
5.14554e-12
1.62391e-11
7.03792e-11
9.33113e-11
2.20842e-10
2.18435e-10
4.30838e-06
6.57907e-06
9.16806e-06
9.85623e-06
1.03688e-05
1.16216e-05
1.37059e-05
1.69542e-05
2.17987e-05
2.86406e-05
3.80382e-05
5.10528e-05
6.88429e-05
9.32446e-05
0.000126449
0.000169331
0.000223108
0.000290367
0.000372253
0.000471851
0.000589167
0.000722394
0.000857447
0.000995539
0.00112727
0.00124858
0.00135228
0.00144043
0.00152127
0.00156951
0.00158695
0.00156998
0.00151692
0.00148329
0.00137316
0.00127062
0.00115998
0.00104294
0.00092705
0.000817041
0.000712552
0.000617798
0.000530745
0.000453691
0.000387696
0.000330131
0.000281464
0.000239971
0.000204512
0.000174364
0.000148506
0.000126217
0.000106993
9.04421e-05
7.62329e-05
6.40682e-05
5.36844e-05
4.48448e-05
3.73467e-05
3.10108e-05
2.56758e-05
2.12009e-05
1.74618e-05
1.43468e-05
1.17566e-05
9.61199e-06
7.84467e-06
6.38621e-06
5.18239e-06
4.19053e-06
3.37649e-06
2.71086e-06
2.1684e-06
1.7278e-06
1.37117e-06
1.08354e-06
8.52465e-07
6.67565e-07
5.20246e-07
4.03396e-07
3.1115e-07
2.38684e-07
1.82052e-07
1.3803e-07
1.04005e-07
7.78576e-08
5.78905e-08
4.2734e-08
3.13136e-08
2.27574e-08
1.6408e-08
1.1714e-08
8.30505e-09
5.84538e-09
4.08291e-09
2.82917e-09
1.94402e-09
1.32402e-09
8.93351e-10
5.96826e-10
3.94569e-10
2.57974e-10
1.66685e-10
1.06348e-10
6.69375e-11
4.15199e-11
2.53497e-11
1.5214e-11
8.96296e-12
5.17522e-12
2.92401e-12
1.61393e-12
8.68848e-13
4.55518e-13
2.3228e-13
1.15096e-13
5.54016e-14
2.59291e-14
1.18388e-14
5.31892e-15
2.39876e-15
1.13162e-15
5.97627e-16
3.78021e-16
2.8907e-16
2.52993e-16
2.3793e-16
2.31252e-16
2.28e-16
2.26241e-16
2.25195e-16
2.24526e-16
2.2407e-16
2.2374e-16
2.23487e-16
2.23283e-16
2.23127e-16
2.23033e-16
2.22962e-16
2.22881e-16
2.228e-16
2.2272e-16
2.22638e-16
2.22564e-16
2.22498e-16
2.22439e-16
2.22384e-16
2.22335e-16
2.22293e-16
2.22256e-16
2.22225e-16
2.22197e-16
2.22174e-16
2.22151e-16
2.22134e-16
2.22118e-16
2.221e-16
2.23639e-16
2.30037e-16
2.45092e-16
2.74511e-16
3.2071e-16
3.99552e-16
5.38053e-16
8.2187e-16
1.44194e-15
2.88946e-15
6.47995e-15
1.5816e-14
4.07884e-14
1.09797e-13
2.99253e-13
8.32249e-13
2.23491e-12
5.96127e-12
1.39031e-11
5.37143e-11
6.22777e-11
9.74097e-11
1.24314e-10
4.34625e-06
6.5996e-06
1.00728e-05
1.12483e-05
1.2084e-05
1.38722e-05
1.67281e-05
2.07659e-05
2.68181e-05
3.63899e-05
5.12003e-05
7.33047e-05
0.000105773
0.000150275
0.00020715
0.000285447
0.000390577
0.000525261
0.000699019
0.000909301
0.00111871
0.00132735
0.00154377
0.00174522
0.00196463
0.00214132
0.00228853
0.00241119
0.00253061
0.00258534
0.00260178
0.00250059
0.00238796
0.00226132
0.00207432
0.00187426
0.00160739
0.0014342
0.00121101
0.00103677
0.00086873
0.000726416
0.00060389
0.000501848
0.000417271
0.000347289
0.000289493
0.00024221
0.000204245
0.000173551
0.000147471
0.000125312
0.000106346
9.00207e-05
7.59858e-05
6.39605e-05
5.36766e-05
4.49005e-05
3.74359e-05
3.11099e-05
2.57684e-05
2.12767e-05
1.75164e-05
1.43814e-05
1.17759e-05
9.61281e-06
7.81999e-06
6.34135e-06
5.12695e-06
4.13276e-06
3.32102e-06
2.65999e-06
2.12316e-06
1.68849e-06
1.33763e-06
1.05538e-06
8.29143e-07
6.48495e-07
5.04835e-07
3.91081e-07
3.01413e-07
2.31067e-07
1.76156e-07
1.33513e-07
1.00582e-07
7.52901e-08
5.59871e-08
4.13382e-08
3.03041e-08
2.20345e-08
1.59008e-08
1.13591e-08
8.05822e-09
5.67561e-09
3.96739e-09
2.75146e-09
1.89243e-09
1.29028e-09
8.71622e-10
5.83062e-10
3.86002e-10
2.52744e-10
1.63565e-10
1.04538e-10
6.59238e-11
4.09772e-11
2.50764e-11
1.50883e-11
8.91354e-12
5.1621e-12
2.92597e-12
1.62056e-12
8.75609e-13
4.60817e-13
2.35894e-13
1.17326e-13
5.66623e-14
2.65811e-14
1.21416e-14
5.43826e-15
2.43047e-15
1.12647e-15
5.80356e-16
3.59452e-16
2.73125e-16
2.40512e-16
2.28585e-16
2.24351e-16
2.22883e-16
2.22379e-16
2.22202e-16
2.22135e-16
2.22106e-16
2.2209e-16
2.2208e-16
2.22073e-16
2.22068e-16
2.22064e-16
2.22061e-16
2.22058e-16
2.22056e-16
2.22055e-16
2.22053e-16
2.22052e-16
2.22051e-16
2.22051e-16
2.2205e-16
2.22049e-16
2.22049e-16
2.22048e-16
2.22048e-16
2.22047e-16
2.22047e-16
2.22046e-16
2.22046e-16
2.22046e-16
2.22046e-16
2.22058e-16
2.23071e-16
2.27452e-16
2.38802e-16
2.63533e-16
3.1425e-16
4.17413e-16
6.3367e-16
1.11317e-15
2.24474e-15
5.05586e-15
1.23946e-14
3.17601e-14
8.4896e-14
2.2546e-13
6.09459e-13
1.55479e-12
4.24424e-12
8.65214e-12
2.90133e-11
3.04791e-11
3.29708e-11
4.22903e-11
4.43381e-06
6.51007e-06
1.03931e-05
1.18244e-05
1.28088e-05
1.48963e-05
1.86707e-05
2.51038e-05
3.59016e-05
5.24926e-05
7.78791e-05
0.000115724
0.000169434
0.000247506
0.000371434
0.000569328
0.000817335
0.00104231
0.00129927
0.00156955
0.0018389
0.00218015
0.00255552
0.00297202
0.00331525
0.00364883
0.0038447
0.00407356
0.00422473
0.00428234
0.0042779
0.0040776
0.0038608
0.00348382
0.00332043
0.0029382
0.00238867
0.00208725
0.0016978
0.00140617
0.00114513
0.000926467
0.000741909
0.000590441
0.00046907
0.000373786
0.000298642
0.000240265
0.000193781
0.000157189
0.000130113
0.000109902
9.4013e-05
8.06636e-05
6.87747e-05
5.84693e-05
4.96046e-05
4.19631e-05
3.5359e-05
2.96619e-05
2.47706e-05
2.0589e-05
1.70301e-05
1.40181e-05
1.14866e-05
9.37426e-06
7.62245e-06
6.17665e-06
4.98838e-06
4.01548e-06
3.22172e-06
2.57625e-06
2.05304e-06
1.63028e-06
1.28976e-06
1.01639e-06
7.97692e-07
6.23366e-07
4.84946e-07
3.75482e-07
2.89291e-07
2.21733e-07
1.69032e-07
1.28127e-07
9.65468e-08
7.22976e-08
5.37885e-08
3.97419e-08
2.91553e-08
2.12215e-08
1.5328e-08
1.09679e-08
7.78685e-09
5.48924e-09
3.84075e-09
2.66638e-09
1.83597e-09
1.2533e-09
8.47761e-10
5.67913e-10
3.76559e-10
2.4698e-10
1.60132e-10
1.02553e-10
6.48175e-11
4.03895e-11
2.47845e-11
1.4958e-11
8.86632e-12
5.15396e-12
2.93351e-12
1.63223e-12
8.86405e-13
4.69102e-13
2.41591e-13
1.20942e-13
5.88119e-14
2.77864e-14
1.27815e-14
5.76032e-15
2.58428e-15
1.19631e-15
6.1054e-16
3.71815e-16
2.77872e-16
2.42172e-16
2.29068e-16
2.24419e-16
2.22823e-16
2.22293e-16
2.22122e-16
2.22069e-16
2.22053e-16
2.22048e-16
2.22046e-16
2.22046e-16
2.22045e-16
2.22045e-16
2.22045e-16
2.22045e-16
2.22045e-16
2.22045e-16
2.22045e-16
2.22045e-16
2.22045e-16
2.22045e-16
2.22045e-16
2.22045e-16
2.22045e-16
2.22045e-16
2.22045e-16
2.22045e-16
2.22045e-16
2.22045e-16
2.22045e-16
2.22045e-16
2.22045e-16
2.22045e-16
2.22375e-16
2.25424e-16
2.34411e-16
2.54769e-16
2.97195e-16
3.82777e-16
5.5998e-16
9.43376e-16
1.83079e-15
3.97062e-15
9.45281e-15
2.34612e-14
6.08879e-14
1.55567e-13
4.01908e-13
9.66162e-13
2.69754e-12
4.76796e-12
1.19666e-11
1.30381e-11
1.38912e-11
1.70095e-11
4.57618e-06
6.39193e-06
1.07661e-05
1.25716e-05
1.39068e-05
1.6788e-05
2.16892e-05
2.98435e-05
4.47967e-05
6.98732e-05
0.00010998
0.000172923
0.000269474
0.000417443
0.000634514
0.000883445
0.00119367
0.00156709
0.00198417
0.00251844
0.00322674
0.00394089
0.00455099
0.00511593
0.00564957
0.00598839
0.00634519
0.00650517
0.0065658
0.00653123
0.00633272
0.0060498
0.00543989
0.00493539
0.00465915
0.00403003
0.00359925
0.00295374
0.00240534
0.00187727
0.00149614
0.00118918
0.000944536
0.000742982
0.000576266
0.000438555
0.000330592
0.000252617
0.00019517
0.000152161
0.000118962
9.32132e-05
7.41794e-05
6.08142e-05
5.15088e-05
4.42285e-05
3.81219e-05
3.29522e-05
2.8481e-05
2.44778e-05
2.0923e-05
1.77706e-05
1.49844e-05
1.25437e-05
1.04286e-05
8.61342e-06
7.0704e-06
5.77079e-06
4.68544e-06
3.78587e-06
3.04526e-06
2.4391e-06
1.94559e-06
1.54569e-06
1.22305e-06
9.63819e-07
7.5637e-07
5.9102e-07
4.59757e-07
3.55985e-07
2.74299e-07
2.10287e-07
1.6036e-07
1.21609e-07
9.1688e-08
6.87087e-08
5.11605e-08
3.78389e-08
2.77888e-08
2.02553e-08
1.46483e-08
1.05031e-08
7.46514e-09
5.26872e-09
3.69113e-09
2.56598e-09
1.7694e-09
1.20973e-09
8.19642e-10
5.50052e-10
3.65412e-10
2.40163e-10
1.5606e-10
1.00188e-10
6.34905e-11
3.96778e-11
2.44258e-11
1.47937e-11
8.80327e-12
5.13955e-12
2.93942e-12
1.64426e-12
8.98201e-13
4.78425e-13
2.48136e-13
1.25172e-13
6.13686e-14
2.92453e-14
1.35715e-14
6.16787e-15
2.78506e-15
1.29088e-15
6.53147e-16
3.90201e-16
2.85475e-16
2.45184e-16
2.30207e-16
2.2483e-16
2.22964e-16
2.22339e-16
2.22136e-16
2.22072e-16
2.22053e-16
2.22047e-16
2.22045e-16
2.22045e-16
2.22045e-16
2.22045e-16
2.22045e-16
2.22045e-16
2.22045e-16
2.22045e-16
2.22045e-16
2.22045e-16
2.22045e-16
2.22045e-16
2.22045e-16
2.22045e-16
2.22045e-16
2.22045e-16
2.22045e-16
2.22045e-16
2.22045e-16
2.22045e-16
2.22045e-16
2.22045e-16
2.22045e-16
2.22045e-16
2.22051e-16
2.23688e-16
2.2996e-16
2.4548e-16
2.78974e-16
3.46561e-16
4.84542e-16
7.75311e-16
1.43056e-15
2.95767e-15
6.75883e-15
1.61171e-14
4.01682e-14
9.80729e-14
2.38722e-13
5.34618e-13
1.14595e-12
2.24486e-12
3.48553e-12
4.07844e-12
4.43896e-12
5.67751e-12
4.79609e-06
6.23515e-06
1.08915e-05
1.30079e-05
1.47744e-05
1.88749e-05
2.68032e-05
4.14333e-05
6.80821e-05
0.000115588
0.000195343
0.000326837
0.000532387
0.000819076
0.00116869
0.00155662
0.0020295
0.00273316
0.00350795
0.00437056
0.00511566
0.00575099
0.00660723
0.00752557
0.00837197
0.00900876
0.00955622
0.00977828
0.00983099
0.00943682
0.00906228
0.00835062
0.0067185
0.00587861
0.00523055
0.00444845
0.00410105
0.00350117
0.00296106
0.00232056
0.00175506
0.00133816
0.00104054
0.000821679
0.000656482
0.000523834
0.000408081
0.000302311
0.000220219
0.000162799
0.000121763
9.20909e-05
7.00663e-05
5.34984e-05
4.14973e-05
3.3129e-05
2.7051e-05
2.23718e-05
1.88366e-05
1.62543e-05
1.4248e-05
1.25752e-05
1.10736e-05
9.64069e-06
8.30058e-06
7.0732e-06
5.9635e-06
4.97713e-06
4.11574e-06
3.37496e-06
2.74656e-06
2.2199e-06
1.78309e-06
1.42406e-06
1.13127e-06
8.94146e-07
7.0327e-07
5.50481e-07
4.28816e-07
3.32417e-07
2.56409e-07
1.96768e-07
1.50201e-07
1.14024e-07
8.60633e-08
6.45713e-08
4.81413e-08
3.56575e-08
2.62258e-08
1.9151e-08
1.38724e-08
9.97162e-09
7.09762e-09
5.01693e-09
3.52034e-09
2.45136e-09
1.69336e-09
1.15992e-09
7.87473e-10
5.29591e-10
3.52621e-10
2.3232e-10
1.51359e-10
9.74451e-11
6.19425e-11
3.88404e-11
2.39984e-11
1.45939e-11
8.72338e-12
5.11823e-12
2.94333e-12
1.65651e-12
9.11018e-13
4.88883e-13
2.55648e-13
1.30119e-13
6.44135e-14
3.1013e-14
1.4545e-14
6.67816e-15
3.04027e-15
1.41287e-15
7.08954e-16
4.14664e-16
2.95762e-16
2.49339e-16
2.31823e-16
2.25435e-16
2.23182e-16
2.22414e-16
2.22161e-16
2.2208e-16
2.22055e-16
2.22048e-16
2.22045e-16
2.22045e-16
2.22045e-16
2.22045e-16
2.22045e-16
2.22045e-16
2.22045e-16
2.22045e-16
2.22045e-16
2.22045e-16
2.22045e-16
2.22045e-16
2.22045e-16
2.22045e-16
2.22045e-16
2.22045e-16
2.22045e-16
2.22045e-16
2.22045e-16
2.22045e-16
2.22045e-16
2.22045e-16
2.22045e-16
2.22045e-16
2.22045e-16
2.22195e-16
2.25414e-16
2.35477e-16
2.58762e-16
3.07142e-16
4.05783e-16
6.08186e-16
1.04828e-15
2.03282e-15
4.38198e-15
9.91441e-15
2.33602e-14
5.37247e-14
1.31241e-13
2.53106e-13
5.86563e-13
7.23649e-13
8.37315e-13
1.04572e-12
1.16588e-12
1.57334e-12
5.20074e-06
6.1149e-06
1.08632e-05
1.3271e-05
1.52874e-05
2.02091e-05
3.01861e-05
4.98642e-05
8.84739e-05
0.00016109
0.00028295
0.000463924
0.000722549
0.00109661
0.00156976
0.00219993
0.00313737
0.00429323
0.00529541
0.00610065
0.00711857
0.00856273
0.0104596
0.0127013
0.0151963
0.0181747
0.0214829
0.0238362
0.0251006
0.025708
0.0238243
0.0205324
0.0154842
0.0107713
0.0078411
0.00546099
0.0043285
0.00363765
0.00311517
0.00255184
0.00194255
0.00142628
0.00107265
0.000837074
0.00066789
0.000540322
0.000440011
0.00035709
0.00027529
0.00019643
0.000139446
9.97419e-05
7.22617e-05
5.31537e-05
3.95069e-05
2.96607e-05
2.2907e-05
1.81361e-05
1.44846e-05
1.16599e-05
9.50327e-06
7.88926e-06
6.72173e-06
5.9131e-06
5.292e-06
4.74763e-06
4.22121e-06
3.68841e-06
3.17441e-06
2.69501e-06
2.25833e-06
1.87003e-06
1.53214e-06
1.24343e-06
1.00054e-06
7.98906e-07
6.33435e-07
4.98974e-07
3.90652e-07
3.04053e-07
2.35301e-07
1.81067e-07
1.38545e-07
1.05401e-07
7.97145e-08
5.99238e-08
4.47636e-08
3.32212e-08
2.44853e-08
1.79185e-08
1.30113e-08
9.37507e-09
6.69322e-09
4.74015e-09
3.33288e-09
2.32571e-09
1.61011e-09
1.10548e-09
7.52388e-10
5.07344e-10
3.38756e-10
2.23846e-10
1.46296e-10
9.45047e-11
6.02943e-11
3.79586e-11
2.35574e-11
1.43964e-11
8.65293e-12
5.10805e-12
2.95737e-12
1.67689e-12
9.29945e-13
5.0374e-13
2.66223e-13
1.37136e-13
6.88076e-14
3.36267e-14
1.60263e-14
7.47948e-15
3.45441e-15
1.61752e-15
8.05714e-16
4.58466e-16
3.1476e-16
2.5724e-16
2.34976e-16
2.26643e-16
2.23627e-16
2.22572e-16
2.22215e-16
2.22098e-16
2.22061e-16
2.22049e-16
2.22046e-16
2.22045e-16
2.22045e-16