/*--------------------------------*- C++ -*----------------------------------*\
  =========                 |
  \\      /  F ield         | OpenFOAM: The Open Source CFD Toolbox
   \\    /   O peration     | Website:  https://openfoam.org
    \\  /    A nd           | Version:  9
     \\/     M anipulation  |
\*---------------------------------------------------------------------------*/
FoamFile
{
    format      ascii;
    class       volScalarField;
    location    "0.007";
    object      nut;
}
// * * * * * * * * * * * * * * * * * * * * * * * * * * * * * * * * * * * * * //

dimensions      [0 2 -1 0 0 0 0];

internalField   nonuniform List<scalar> 
12225
(
0
0
0
0
0
0
0
0
0
0
0
0
0
0
0
0
0
0
0
0
0
0
0
0
0
0
0
0
0
0
0
0
0
0
0
0
0
0
0
0
0
0
0
0
0
0
0
0
0
0
0
0
0
0
0
0
0
0
0
0
0
0
0
0
0
0
0
0
0
0
5.84098e-10
0
4.87635e-07
8.6771e-08
1.2706e-07
3.34131e-08
0
0
0
0
0
0
2.57035e-08
4.34806e-08
5.67546e-08
8.38515e-08
9.12447e-08
9.34506e-08
1.38279e-08
0
1.94722e-07
0
0
3.57915e-08
0
0
0
0
0
0
0
0
0
0
0
0
0
0
6.74523e-08
0
0
8.25294e-08
0
0
0
0
0
0
0
0
0
0
0
0
0
0
0
0
1.98476e-07
4.83177e-07
3.78835e-07
0
0
0
0
0
0
0
0
0
0
0
0
0
0
0
3.34457e-07
1.2694e-06
1.50908e-06
7.20783e-07
0
0
0
0
0
0
0
0
0
0
0
0
0
0
0
1.67307e-06
9.86124e-07
1.09324e-07
5.19864e-08
0
0
0
0
0
0
0
0
0
0
0
0
0
0
0
0
0
1.28391e-07
1.53485e-07
0
0
0
0
0
0
0
0
0
0
0
0
0
0
0
0
6.48991e-07
6.85683e-07
3.14105e-07
0
0
0
0
4.47207e-07
4.35328e-07
0
0
0
0
0
0
0
0
0
3.43594e-07
3.26909e-07
1.6727e-07
0
0
0
0
0
2.59497e-07
5.66832e-08
0
0
0
0
5.25498e-08
2.59419e-07
1.09302e-07
8.35055e-08
1.73027e-07
1.39747e-07
1.45918e-07
0
0
0
0
0
0
0
0
0
3.03272e-07
4.65769e-07
1.14138e-06
6.71262e-07
3.38175e-07
4.8714e-07
3.86592e-07
0
6.97024e-08
2.48424e-08
0
0
0
0
0
3.12412e-08
5.04597e-08
2.23725e-07
6.39775e-07
5.79399e-07
1.45981e-06
1.58405e-06
1.60443e-06
3.6387e-06
0
0
0
1.0363e-07
1.42125e-07
0
0
2.43763e-07
7.65435e-07
9.54971e-07
9.15572e-07
8.46256e-07
9.6037e-07
1.11078e-06
1.58939e-06
1.24458e-06
0
0
0
0
0
1.86498e-06
1.30389e-06
1.89764e-07
0
3.03571e-07
1.86642e-06
2.36968e-06
1.40252e-06
8.38959e-07
0
0
3.79835e-07
5.00702e-07
4.48528e-07
9.27139e-07
1.3449e-06
1.41062e-06
1.1786e-06
7.6878e-07
4.42775e-07
0
0
0
0
7.75119e-07
6.30036e-07
2.45749e-07
0
0
3.73638e-07
1.12643e-06
1.38677e-06
1.25948e-06
1.30051e-06
1.68531e-06
1.85528e-06
1.60479e-06
1.94203e-06
2.66405e-06
2.25898e-06
1.50368e-06
4.90578e-07
0
0
0
0
0
0
0
1.15172e-06
1.03238e-06
4.21061e-07
1.65156e-07
7.06746e-07
1.11858e-06
8.32197e-07
3.51828e-07
0
0
0
0
0
0
0
0
0
0
3.84069e-07
1.25071e-06
1.72717e-06
1.52118e-06
1.43162e-06
1.66815e-06
1.14842e-06
0
0
0
0
0
0
0
0
0
0
0
0
7.41997e-07
2.18532e-06
2.45895e-06
2.50568e-06
2.50982e-06
2.11288e-06
1.52808e-06
8.63625e-07
2.34382e-07
0
0
0
0
7.24278e-07
1.12915e-06
4.60703e-07
8.2313e-07
8.94864e-07
2.20754e-06
3.09836e-06
3.11809e-06
2.78652e-06
2.19936e-06
1.54322e-06
1.02283e-06
6.84383e-07
5.11229e-07
3.68569e-07
0
0
1.51246e-07
8.65683e-07
1.6676e-06
0
7.1674e-07
2.3189e-06
3.66885e-06
4.53368e-06
3.04246e-06
9.59621e-07
0
0
0
4.53898e-07
9.32566e-07
6.24254e-07
9.14632e-09
0
0
8.88721e-07
1.41815e-06
0
0
6.7772e-09
1.97688e-07
6.50821e-07
4.36617e-07
0
0
0
5.68248e-08
3.25624e-07
4.34032e-07
3.28683e-07
1.10273e-07
0
0
9.7153e-07
2.33555e-06
0
0
6.00235e-07
7.62781e-08
1.39075e-07
6.46401e-08
0
0
0
0
2.36687e-07
3.22976e-07
1.85552e-07
1.63925e-08
0
0
0
0
0
0
7.00841e-09
1.69919e-08
1.63994e-08
8.93991e-09
5.56253e-10
0
0
0
0
0
0
0
0
0
0
0
0
0
0
9.70457e-12
2.67605e-10
7.55423e-11
0
0
0
0
0
0
0
0
0
0
0
0
0
0
0
0
0
0
0
0
0
0
0
0
0
0
0
0
0
0
0
0
0
0
0
0
0
0
0
0
0
0
0
0
0
0
0
0
0
1.45905e-08
6.79703e-08
1.15418e-07
1.50241e-07
1.73571e-07
1.87914e-07
1.94763e-07
1.95985e-07
1.93801e-07
1.86433e-07
1.75336e-07
1.60907e-07
1.4422e-07
1.25989e-07
1.07138e-07
8.85812e-08
7.0633e-08
5.41536e-08
3.98114e-08
2.76675e-08
1.81856e-08
1.10575e-08
6.30976e-09
3.06004e-09
6.0707e-10
0
0
0
0
0
0
0
0
0
0
0
0
0
0
0
0
0
0
0
0
0
0
0
0
0
0
0
0
0
0
0
0
0
0
0
0
0
0
0
0
0
0
0
0
0
0
0
0
0
0
0
0
0
0
0
0
0
0
0
0
0
0
0
0
0
0
0
0
0
0
0
0
0
0
0
0
0
0
0
0
0
0
0
0
0
0
0
0
0
0
0
0
0
0
0
0
0
0
0
0
0
0
0
0
0
0
0
0
0
0
0
0
0
0
0
0
0
0
0
0
0
0
0
0
0
0
0
0
0
0
0
0
0
0
0
0
0
0
0
0
0
0
0
0
0
0
0
1.65225e-12
0
0
0
0
0
0
0
0
0
0
3.55248e-09
4.68006e-08
7.62734e-08
9.18828e-08
9.69019e-08
9.47685e-08
8.86296e-08
7.99627e-08
7.04024e-08
6.10898e-08
5.27e-08
4.5754e-08
4.01569e-08
3.56669e-08
3.18881e-08
2.87684e-08
2.56483e-08
2.22198e-08
1.83313e-08
1.37422e-08
8.31139e-09
1.94459e-09
0
0
0
0
0
0
0
0
0
0
0
0
0
0
0
0
0
0
2.20315e-08
8.65794e-08
1.04437e-07
7.95918e-08
3.43529e-08
0
0
0
0
0
0
0
0
0
0
0
0
0
0
0
0
0
0
0
0
0
0
0
0
0
0
0
0
0
0
0
0
0
0
0
0
0
0
0
0
0
0
0
0
0
0
0
0
0
0
0
0
0
0
0
0
0
0
0
0
0
0
0
0
0
0
0
0
0
0
0
0
0
0
0
0
0
0
0
0
0
0
0
0
0
0
0
0
0
0
0
0
0
0
0
0
0
0
0
0
0
0
0
0
0
0
0
0
0
0
0
0
0
0
0
0
0
0
0
0
0
0
0
0
2.09665e-13
0
0
0
0
0
0
0
0
0
0
0
0
0
0
0
0
0
0
0
0
0
0
0
0
9.94045e-09
2.09045e-08
2.78859e-08
3.00176e-08
2.72681e-08
2.05964e-08
1.1274e-08
4.70502e-11
0
0
0
0
0
0
0
0
0
2.35758e-08
7.59843e-08
1.27595e-07
1.73673e-07
2.11327e-07
2.39651e-07
2.57831e-07
2.66501e-07
2.6768e-07
2.61777e-07
2.49343e-07
2.3102e-07
2.05801e-07
1.75753e-07
1.43072e-07
1.09001e-07
7.48827e-08
4.27199e-08
1.46692e-08
0
0
0
0
0
0
0
0
0
0
0
0
0
0
0
0
0
0
0
0
0
0
0
0
0
0
0
0
0
0
0
0
0
0
0
0
0
0
0
0
0
0
0
0
0
0
0
0
0
0
0
0
0
0
0
0
0
0
0
0
0
0
0
0
0
0
0
0
0
0
0
0
0
0
0
0
0
0
0
0
0
0
0
0
0
0
0
0
0
0
0
0
0
0
0
0
0
0
0
0
0
0
0
0
0
0
0
0
0
0
0
0
0
0
0
0
0
0
0
0
0
0
0
0
0
0
0
0
0
0
0
0
0
0
0
0
0
0
0
0
0
0
0
0
0
0
0
0
0
0
0
0
0
8.14836e-08
1.93008e-07
2.92911e-07
3.76264e-07
4.41079e-07
4.86072e-07
5.13607e-07
5.27378e-07
5.27631e-07
5.1909e-07
5.02663e-07
4.8113e-07
4.55626e-07
4.28144e-07
3.99881e-07
3.70857e-07
3.42424e-07
3.15972e-07
2.91259e-07
2.67162e-07
2.42568e-07
2.18701e-07
1.9713e-07
1.77585e-07
1.59719e-07
1.43377e-07
1.28448e-07
1.14826e-07
1.0241e-07
9.11047e-08
8.08165e-08
7.14586e-08
6.29449e-08
5.52156e-08
4.82082e-08
4.18557e-08
3.6098e-08
3.08858e-08
2.61781e-08
2.19343e-08
1.81165e-08
1.46953e-08
1.16457e-08
8.94721e-09
6.58479e-09
4.54778e-09
2.82912e-09
1.42558e-09
3.28895e-10
0
0
0
0
0
0
0
0
0
0
0
0
0
1.10291e-11
3.61811e-11
4.9242e-11
5.40792e-11
5.36328e-11
5.00273e-11
4.47304e-11
3.87614e-11
3.28111e-11
2.72412e-11
2.2219e-11
1.78803e-11
1.42458e-11
1.12072e-11
8.72422e-12
6.76221e-12
5.20278e-12
3.97634e-12
3.03044e-12
2.31246e-12
1.76606e-12
1.34632e-12
1.02876e-12
7.8697e-13
6.00155e-13
4.54567e-13
3.41179e-13
2.5367e-13
1.87047e-13
1.37034e-13
9.99527e-14
7.27407e-14
5.29349e-14
3.8613e-14
2.83075e-14
2.09162e-14
1.56231e-14
1.1831e-14
9.10717e-15
7.1426e-15
5.71345e-15
4.66632e-15
3.8858e-15
3.29716e-15
2.84518e-15
2.48904e-15
2.20526e-15
1.97466e-15
1.78168e-15
1.6185e-15
1.47997e-15
1.35994e-15
1.25342e-15
1.15824e-15
1.07349e-15
9.97879e-16
9.29688e-16
8.67221e-16
8.09067e-16
7.5403e-16
7.01043e-16
6.49039e-16
5.9691e-16
5.43324e-16
4.86916e-16
4.25619e-16
3.58062e-16
2.79894e-16
1.91827e-16
8.13997e-17
0
0
0
0
0
0
0
0
0
0
0
0
0
0
0
0
0
0
0
0
0
0
0
0
0
0
0
0
0
0
0
0
0
0
0
0
0
0
0
0
0
0
0
0
0
0
0
0
7.12227e-08
2.05709e-07
3.2879e-07
4.34726e-07
5.1918e-07
5.75986e-07
6.10898e-07
6.28742e-07
6.26313e-07
6.12869e-07
5.87962e-07
5.56945e-07
5.21531e-07
4.83874e-07
4.46365e-07
4.09486e-07
3.74178e-07
3.42752e-07
3.1311e-07
2.83361e-07
2.54832e-07
2.28865e-07
2.05525e-07
1.84399e-07
1.65215e-07
1.47804e-07
1.32022e-07
1.1774e-07
1.04838e-07
9.32011e-08
8.2721e-08
7.32966e-08
6.48307e-08
5.72031e-08
5.03336e-08
4.4174e-08
3.8669e-08
3.37536e-08
2.93747e-08
2.54846e-08
2.20381e-08
1.89863e-08
1.62883e-08
1.39095e-08
1.18187e-08
9.9875e-09
8.38996e-09
7.00213e-09
5.8019e-09
4.76905e-09
3.88498e-09
3.13263e-09
2.49639e-09
1.96203e-09
1.51662e-09
1.14848e-09
8.47054e-10
6.02936e-10
4.07683e-10
2.53785e-10
1.34606e-10
4.43659e-11
0
0
0
0
0
0
0
0
0
0
0
0
0
0
0
0
0
0
0
0
0
0
0
0
0
0
0
0
0
0
0
0
0
0
0
1.22259e-14
2.31219e-14
3.07389e-14
3.60469e-14
3.95538e-14
4.15964e-14
4.24613e-14
4.24121e-14
4.16992e-14
4.05414e-14
3.91086e-14
3.75382e-14
3.59251e-14
3.43292e-14
3.27926e-14
3.13392e-14
2.99773e-14
2.87085e-14
2.75299e-14
2.64362e-14
2.54228e-14
2.44825e-14
2.36059e-14
2.2783e-14
2.2004e-14
2.12598e-14
2.05419e-14
1.98413e-14
1.91456e-14
1.8449e-14
1.77328e-14
1.69997e-14
1.62285e-14
1.54812e-14
1.46588e-14
1.40583e-14
1.33642e-14
1.35822e-14
1.38841e-14
1.72579e-14
2.288e-14
4.03909e-14
8.61609e-14
2.5186e-13
1.01982e-12
3.93413e-12
1.54016e-11
3.76631e-11
8.96808e-11
1.15454e-10
2.32657e-10
6.39313e-11
1.35107e-10
0
0
0
0
0
0
0
0
0
0
0
0
0
0
0
0
0
0
0
0
0
0
0
0
0
0
0
0
0
0
6.17768e-08
2.29665e-07
3.83435e-07
5.13004e-07
6.2205e-07
6.88716e-07
7.30855e-07
7.4703e-07
7.40725e-07
7.16355e-07
6.79636e-07
6.3425e-07
5.84928e-07
5.3294e-07
4.8213e-07
4.34926e-07
3.91757e-07
3.55228e-07
3.21821e-07
2.88558e-07
2.57975e-07
2.31092e-07
2.07178e-07
1.85613e-07
1.66096e-07
1.48427e-07
1.32433e-07
1.17967e-07
1.04891e-07
9.30879e-08
8.24514e-08
7.28827e-08
6.42919e-08
5.65964e-08
4.97147e-08
4.35666e-08
3.80895e-08
3.32277e-08
2.89079e-08
2.50689e-08
2.16619e-08
1.86472e-08
1.59876e-08
1.36482e-08
1.15964e-08
9.8027e-09
8.24004e-09
6.88382e-09
5.7116e-09
4.70299e-09
3.83939e-09
3.10392e-09
2.48125e-09
1.95751e-09
1.52012e-09
1.15777e-09
8.60265e-10
6.1855e-10
4.24467e-10
2.70822e-10
1.51171e-10
6.00021e-11
0
0
0
0
0
0
0
0
0
0
0
0
0
0
0
0
0
0
0
0
0
0
0
0
0
0
0
0
0
0
0
0
0
0
0
0
0
0
0
0
0
0
0
0
0
0
0
0
0
0
0
0
0
0
0
0
0
0
0
0
0
0
0
0
0
0
2.3541e-13
6.58861e-13
8.69224e-13
9.26334e-13
9.33673e-13
9.91774e-13
1.10165e-12
1.36021e-12
1.76527e-12
2.56365e-12
3.74619e-12
6.09681e-12
9.33422e-12
1.60909e-11
2.41399e-11
4.1824e-11
5.64463e-11
9.08422e-11
8.90895e-11
1.55179e-10
2.20611e-11
3.62876e-11
0
0
0
0
0
0
0
0
0
0
0
0
0
0
0
0
0
0
0
0
0
0
0
0
0
0
0
0
0
0
5.5278e-08
2.73544e-07
4.70903e-07
6.38465e-07
7.68121e-07
8.49549e-07
8.91214e-07
8.83715e-07
8.73818e-07
8.24038e-07
7.70868e-07
7.04432e-07
6.36449e-07
5.68367e-07
5.04354e-07
4.46896e-07
3.97931e-07
3.56764e-07
3.18883e-07
2.8299e-07
2.51695e-07
2.24747e-07
2.01175e-07
1.80126e-07
1.61134e-07
1.43966e-07
1.28457e-07
1.14442e-07
1.01776e-07
9.03411e-08
8.0031e-08
7.07486e-08
6.24075e-08
5.49297e-08
4.82414e-08
4.22699e-08
3.69398e-08
3.21856e-08
2.79592e-08
2.42133e-08
2.09013e-08
1.79791e-08
1.54066e-08
1.31475e-08
1.11688e-08
9.44087e-09
7.93687e-09
6.63249e-09
5.50569e-09
4.53651e-09
3.70684e-09
3.0003e-09
2.40203e-09
1.89865e-09
1.47805e-09
1.12935e-09
8.42762e-10
6.09623e-10
4.22106e-10
2.73353e-10
1.57179e-10
6.83552e-11
2.13162e-12
0
0
0
0
0
0
0
0
0
0
0
0
0
0
0
0
0
0
0
0
0
0
0
0
0
0
0
0
0
0
0
0
0
0
0
0
0
0
0
0
0
0
0
0
0
0
0
0
0
0
0
0
0
0
0
0
0
0
0
0
0
0
0
0
0
0
8.67601e-14
2.38035e-13
3.59103e-13
4.58544e-13
5.71117e-13
7.061e-13
9.33894e-13
1.26673e-12
1.89567e-12
2.82283e-12
4.63121e-12
7.10965e-12
1.20864e-11
1.7899e-11
2.97428e-11
3.88361e-11
6.02687e-11
5.35394e-11
7.81292e-11
3.59635e-13
0
0
0
0
0
0
0
0
0
0
0
0
0
0
0
0
0
0
0
0
0
0
0
0
0
0
0
0
0
0
0
1.05053e-07
4.33036e-07
7.13756e-07
9.33868e-07
1.06955e-06
1.17854e-06
1.1977e-06
1.13795e-06
1.09576e-06
1.00163e-06
9.11794e-07
8.14613e-07
7.18664e-07
6.25656e-07
5.39905e-07
4.66376e-07
4.06902e-07
3.56684e-07
3.1035e-07
2.67884e-07
2.32284e-07
2.04322e-07
1.8199e-07
1.63363e-07
1.47029e-07
1.31985e-07
1.18306e-07
1.05945e-07
9.47388e-08
8.45405e-08
7.52529e-08
6.68099e-08
5.91464e-08
5.22022e-08
4.59271e-08
4.02787e-08
3.5217e-08
3.06986e-08
2.66779e-08
2.31101e-08
1.99527e-08
1.71658e-08
1.47125e-08
1.25585e-08
1.06727e-08
9.02645e-09
7.59401e-09
6.3519e-09
5.2789e-09
4.35583e-09
3.56534e-09
2.89176e-09
2.32096e-09
1.8402e-09
1.43798e-09
1.104e-09
8.29006e-10
6.0479e-10
4.23978e-10
2.80059e-10
1.67218e-10
8.04813e-11
1.53786e-11
0
0
0
0
0
0
0
0
0
0
0
0
0
0
0
0
0
0
0
0
0
0
0
0
0
0
0
0
0
0
0
0
0
0
0
0
0
0
0
0
0
0
0
0
0
0
0
0
0
0
0
0
0
0
0
0
0
0
0
0
0
0
0
0
0
0
1.93892e-14
1.51671e-13
2.62007e-13
3.53456e-13
4.50812e-13
5.61248e-13
7.37811e-13
9.8943e-13
1.45507e-12
2.13426e-12
3.42371e-12
5.17371e-12
8.48994e-12
1.22859e-11
1.91943e-11
2.40161e-11
3.50229e-11
2.72062e-11
2.68094e-11
0
0
0
0
0
0
0
0
0
0
0
0
0
0
0
0
0
0
0
0
0
0
0
0
0
0
0
0
0
0
0
0
2.86926e-07
6.77932e-07
9.87514e-07
1.19125e-06
1.34208e-06
1.46921e-06
1.48805e-06
1.49062e-06
1.39051e-06
1.26051e-06
1.09344e-06
9.46493e-07
8.11498e-07
6.92631e-07
5.88785e-07
5.01888e-07
4.2796e-07
3.6253e-07
3.05545e-07
2.57476e-07
2.18968e-07
1.87289e-07
1.60612e-07
1.38843e-07
1.21857e-07
1.08827e-07
9.79949e-08
8.84503e-08
7.99604e-08
7.22943e-08
6.51731e-08
5.85707e-08
5.24484e-08
4.67712e-08
4.15285e-08
3.67162e-08
3.23235e-08
2.83367e-08
2.47388e-08
2.15098e-08
1.86265e-08
1.60638e-08
1.37958e-08
1.17967e-08
1.00412e-08
8.50536e-09
7.16661e-09
6.0041e-09
4.99863e-09
4.13264e-09
3.39016e-09
2.75671e-09
2.21917e-09
1.76572e-09
1.3857e-09
1.06951e-09
8.0857e-10
5.95232e-10
4.22662e-10
2.84769e-10
1.76176e-10
9.22047e-11
2.87238e-11
0
0
0
0
0
0
0
0
0
0
0
0
0
0
0
0
0
0
0
0
0
0
0
0
0
0
0
0
0
0
0
0
0
0
0
0
0
0
0
0
0
0
0
0
0
0
0
0
0
0
0
0
0
0
0
0
0
0
0
0
0
0
0
0
0
0
0
7.34453e-14
1.7138e-13
2.52971e-13
3.34445e-13
4.21317e-13
5.50133e-13
7.27651e-13
1.04533e-12
1.50262e-12
2.33915e-12
3.45638e-12
5.42635e-12
7.59318e-12
1.09847e-11
1.28262e-11
1.47234e-11
9.80603e-12
2.55843e-12
0
0
0
0
0
0
0
0
0
0
0
0
0
0
0
0
0
0
0
0
0
0
0
0
0
0
0
0
0
0
0
0
0
1.39592e-07
3.05373e-07
4.65198e-07
6.59038e-07
8.86432e-07
1.11544e-06
1.35766e-06
1.44845e-06
1.41915e-06
1.25901e-06
1.04946e-06
8.59849e-07
7.08957e-07
5.95007e-07
5.10408e-07
4.40028e-07
3.7392e-07
3.09676e-07
2.5502e-07
2.12581e-07
1.78405e-07
1.50514e-07
1.27373e-07
1.08009e-07
9.23034e-08
8.00701e-08
7.03274e-08
6.22011e-08
5.54972e-08
5.01259e-08
4.56418e-08
4.16973e-08
3.8043e-08
3.44956e-08
3.10761e-08
2.78251e-08
2.47551e-08
2.18847e-08
1.92305e-08
1.68005e-08
1.45956e-08
1.26115e-08
1.0839e-08
9.26592e-09
7.87811e-09
6.66043e-09
5.5975e-09
4.67426e-09
3.87629e-09
3.19005e-09
2.60296e-09
2.10347e-09
1.68102e-09
1.32604e-09
1.02984e-09
7.84647e-10
5.83486e-10
4.20143e-10
2.89012e-10
1.85208e-10
1.04383e-10
4.27932e-11
0
0
0
0
0
0
0
0
0
0
0
0
0
0
0
0
0
0
0
0
0
0
0
0
0
0
0
0
0
0
0
0
0
0
0
0
0
0
0
0
0
0
0
0
0
0
0
0
0
0
0
0
0
0
0
0
0
0
0
0
0
0
0
0
0
0
0
2.23983e-15
8.72186e-14
1.5799e-13
2.23786e-13
2.88538e-13
3.75293e-13
4.88184e-13
6.80491e-13
9.50121e-13
1.42099e-12
2.02923e-12
3.00618e-12
3.97972e-12
5.38865e-12
5.35088e-12
5.04077e-12
4.90399e-13
0
0
0
0
0
0
0
0
0
0
0
0
0
0
0
0
0
0
0
0
0
0
0
0
0
0
0
0
0
0
0
0
0
0
0
0
2.01226e-08
7.99021e-08
0
0
2.16972e-07
7.791e-07
1.14984e-06
1.22006e-06
1.07519e-06
8.66887e-07
6.95907e-07
5.76729e-07
4.85481e-07
4.07183e-07
3.42984e-07
2.94786e-07
2.53021e-07
2.10652e-07
1.74496e-07
1.44483e-07
1.19873e-07
9.99585e-08
8.37399e-08
7.04978e-08
6.02009e-08
5.21413e-08
4.53955e-08
3.96884e-08
3.49034e-08
3.09593e-08
2.77927e-08
2.53356e-08
2.32933e-08
2.14305e-08
1.9615e-08
1.77781e-08
1.59672e-08
1.42209e-08
1.25612e-08
1.10076e-08
9.57416e-09
8.2678e-09
7.09007e-09
6.03846e-09
5.10747e-09
4.28958e-09
3.57614e-09
2.95795e-09
2.42574e-09
1.97048e-09
1.5836e-09
1.25705e-09
9.83409e-10
7.55908e-10
5.68421e-10
4.15427e-10
2.91938e-10
1.93558e-10
1.16384e-10
5.70205e-11
1.24026e-11
0
0
0
0
0
0
0
0
0
0
0
0
0
0
0
0
0
0
0
0
0
0
0
0
0
0
0
0
0
0
0
0
0
0
0
0
0
0
0
0
0
0
0
0
0
0
0
0
0
0
0
0
0
0
0
0
0
0
0
0
0
0
0
0
0
0
0
6.9975e-15
6.76554e-14
1.2013e-13
1.66453e-13
2.19552e-13
2.81048e-13
3.77832e-13
5.04576e-13
7.129e-13
9.57379e-13
1.29513e-12
1.58194e-12
1.61978e-12
1.24485e-12
0
0
0
0
0
0
0
0
0
0
0
0
0
0
0
0
0
0
0
0
0
0
0
0
0
0
0
0
0
5.40921e-07
2.00172e-06
3.58014e-06
3.9618e-06
1.87336e-06
0
0
0
1.4207e-06
3.02941e-06
3.28458e-06
2.31559e-06
5.3527e-07
0
0
1.85515e-07
7.74401e-07
9.0474e-07
7.89639e-07
6.37686e-07
5.18093e-07
4.27096e-07
3.5168e-07
2.92287e-07
2.49678e-07
2.20613e-07
1.98158e-07
1.70431e-07
1.41542e-07
1.1607e-07
9.46216e-08
7.74165e-08
6.38964e-08
5.3147e-08
4.48572e-08
3.8644e-08
3.34538e-08
2.89512e-08
2.51174e-08
2.18915e-08
1.9186e-08
1.69511e-08
1.51391e-08
1.37198e-08
1.26207e-08
1.16665e-08
1.07451e-08
9.80336e-09
8.83073e-09
7.86687e-09
6.93683e-09
6.05653e-09
5.23828e-09
4.48985e-09
3.81459e-09
3.21256e-09
2.6815e-09
2.21755e-09
1.81582e-09
1.47092e-09
1.17725e-09
9.29258e-10
7.21618e-10
5.49358e-10
4.07849e-10
2.92854e-10
2.00535e-10
1.27516e-10
7.07515e-11
2.7563e-11
0
0
0
0
0
0
0
0
0
0
0
0
0
0
0
0
0
0
0
0
0
0
0
0
0
0
0
0
0
0
0
0
0
0
0
0
0
0
0
0
0
0
0
0
0
0
0
0
0
0
0
0
0
0
0
0
0
0
0
0
0
0
0
0
0
0
0
0
0
3.47488e-14
6.74174e-14
9.73208e-14
1.2407e-13
1.60069e-13
1.95789e-13
2.5123e-13
2.89498e-13
3.07837e-13
2.7399e-13
4.3548e-14
0
0
0
0
0
0
0
0
0
0
0
0
0
0
0
0
0
0
0
0
0
0
0
0
0
0
0
0
4.72507e-07
2.52378e-06
6.67086e-06
1.39618e-05
2.3414e-05
2.72377e-05
1.33278e-05
0
0
0
0
1.5147e-06
5.34858e-06
5.93272e-06
4.06431e-06
1.1107e-06
0
0
0
5.18258e-07
6.09192e-07
5.14416e-07
4.09436e-07
3.2885e-07
2.69782e-07
2.2717e-07
1.95827e-07
1.7204e-07
1.57649e-07
1.49085e-07
1.34918e-07
1.13675e-07
9.2698e-08
7.41976e-08
5.93254e-08
4.79694e-08
3.9315e-08
3.26306e-08
2.77999e-08
2.41888e-08
2.10249e-08
1.81776e-08
1.56898e-08
1.35657e-08
1.17853e-08
1.02993e-08
9.06907e-09
8.06241e-09
7.25508e-09
6.62334e-09
6.11691e-09
5.64878e-09
5.176e-09
4.68313e-09
4.17407e-09
3.67214e-09
3.19223e-09
2.74309e-09
2.33058e-09
1.95808e-09
1.62664e-09
1.33553e-09
1.08284e-09
8.65917e-10
6.8168e-10
5.2689e-10
3.98258e-10
2.92573e-10
2.06801e-10
1.38184e-10
8.41726e-11
4.24726e-11
1.10239e-11
0
0
0
0
0
0
0
0
0
0
0
0
0
0
0
0
0
0
0
0
0
0
0
0
0
0
0
0
0
0
0
0
0
0
0
0
0
0
0
0
0
0
0
0
0
0
0
0
0
0
0
0
0
0
0
0
0
0
0
0
0
0
0
0
0
0
0
0
0
0
0
0
8.04485e-15
7.61429e-15
3.03333e-15
0
0
0
0
0
0
0
0
0
0
0
0
0
0
1.08552e-08
3.20209e-09
0
0
0
0
0
0
0
0
0
0
0
0
0
0
0
2.25845e-07
1.72756e-06
5.34874e-06
1.36423e-05
3.03963e-05
5.75065e-05
8.71036e-05
8.63189e-06
0
0
0
0
0
0
8.92033e-07
3.70443e-06
2.67932e-06
1.15849e-07
0
0
6.38263e-08
3.83108e-07
3.64478e-07
2.91618e-07
2.37666e-07
1.99506e-07
1.66497e-07
1.38354e-07
1.19975e-07
1.09231e-07
1.06085e-07
1.07409e-07
1.03652e-07
8.95404e-08
7.3093e-08
5.76775e-08
4.51003e-08
3.56288e-08
2.8691e-08
2.34818e-08
1.95816e-08
1.68814e-08
1.48102e-08
1.29303e-08
1.12003e-08
9.65462e-09
8.30673e-09
7.15701e-09
6.19451e-09
5.39419e-09
4.72967e-09
4.18014e-09
3.72882e-09
3.36489e-09
3.07409e-09
2.83094e-09
2.59722e-09
2.35767e-09
2.11041e-09
1.85885e-09
1.61095e-09
1.37635e-09
1.15982e-09
9.63729e-10
7.89132e-10
6.36086e-10
5.0391e-10
3.91369e-10
2.9683e-10
2.18487e-10
1.54495e-10
1.03062e-10
6.24194e-11
3.09668e-11
7.23238e-12
0
0
0
0
0
0
0
0
0
0
0
0
0
0
0
0
0
0
0
0
0
0
0
0
0
0
0
0
0
0
0
0
0
0
0
0
0
0
0
0
0
0
0
0
0
0
0
0
0
0
0
0
0
0
0
0
0
0
0
0
0
0
0
0
0
0
0
0
0
0
0
0
0
0
0
0
0
0
0
0
0
0
0
0
0
0
0
0
5.23364e-08
5.63242e-08
5.58567e-08
6.01651e-08
6.55256e-08
6.82555e-08
6.37313e-08
4.88659e-08
1.9975e-08
0
0
0
0
0
0
0
0
0
8.56842e-08
1.29006e-06
3.31867e-06
3.77766e-06
0
0
0
0
0
0
0
0
0
0
0
1.50107e-06
2.54248e-07
0
0
0
2.05695e-07
2.2042e-07
1.67513e-07
1.41071e-07
1.30022e-07
1.17073e-07
9.85817e-08
7.95702e-08
6.64572e-08
6.20831e-08
6.61678e-08
7.39881e-08
7.68206e-08
6.86053e-08
5.6445e-08
4.42404e-08
3.40501e-08
2.63687e-08
2.08506e-08
1.68715e-08
1.38908e-08
1.17387e-08
1.02164e-08
8.98261e-09
7.85865e-09
6.82122e-09
5.88113e-09
5.0464e-09
4.32131e-09
3.70415e-09
3.18746e-09
2.75823e-09
2.40054e-09
2.10473e-09
1.86097e-09
1.65957e-09
1.49173e-09
1.34978e-09
1.2265e-09
1.11227e-09
9.98002e-10
8.83002e-10
7.69218e-10
6.59063e-10
5.54782e-10
4.58275e-10
3.71231e-10
2.94699e-10
2.28648e-10
1.72597e-10
1.25822e-10
8.74356e-11
5.65081e-11
3.21004e-11
1.33137e-11
0
0
0
0
0
0
0
0
0
0
0
0
0
0
0
0
0
0
0
0
0
0
0
0
0
0
0
0
0
0
0
0
0
0
0
0
0
0
0
0
0
0
0
0
0
0
0
0
0
0
0
0
0
0
0
0
0
0
0
0
0
0
0
0
0
0
0
0
0
0
0
0
0
0
0
0
0
0
0
0
0
0
0
0
0
0
1.85557e-09
7.79162e-08
9.78565e-08
1.10651e-07
1.3306e-07
1.64808e-07
1.99697e-07
2.32566e-07
2.77977e-07
3.13185e-07
3.41286e-07
3.70977e-07
3.85859e-07
3.64582e-07
2.62849e-07
7.30473e-08
0
0
0
0
0
0
0
0
0
0
0
0
0
0
0
0
0
2.57139e-07
1.24079e-06
9.04772e-08
0
0
0
1.38479e-07
1.27701e-07
8.24739e-08
6.7008e-08
6.919e-08
7.16753e-08
6.64858e-08
5.51652e-08
4.30161e-08
3.48712e-08
3.49282e-08
4.24538e-08
5.30549e-08
5.90022e-08
5.35539e-08
4.40191e-08
3.41591e-08
2.58533e-08
1.96055e-08
1.51952e-08
1.21309e-08
9.91609e-09
8.28501e-09
7.09534e-09
6.17215e-09
5.3871e-09
4.68347e-09
4.04597e-09
3.47027e-09
2.9569e-09
2.50776e-09
2.12297e-09
1.79847e-09
1.52635e-09
1.30042e-09
1.11461e-09
9.62402e-10
8.37261e-10
7.33127e-10
6.44881e-10
5.68509e-10
5.01065e-10
4.40505e-10
3.85485e-10
3.35111e-10
2.88701e-10
2.45375e-10
2.04612e-10
1.66869e-10
1.32673e-10
1.02356e-10
7.60409e-11
5.36743e-11
3.50921e-11
2.00215e-11
8.13029e-12
0
0
0
0
0
0
0
0
0
0
0
0
0
0
0
0
0
0
0
0
0
0
0
0
0
0
0
0
0
0
0
0
0
0
0
0
0
0
0
0
0
0
0
0
0
0
0
0
0
0
0
0
0
0
0
0
0
0
0
0
0
0
0
0
0
0
0
0
0
0
0
0
0
0
0
0
0
0
0
0
0
0
0
0
4.85294e-10
8.67022e-09
9.27587e-08
1.26976e-07
1.49745e-07
1.83322e-07
2.33337e-07
2.87299e-07
3.62137e-07
4.43502e-07
5.23956e-07
6.39887e-07
7.50369e-07
8.41013e-07
8.81312e-07
8.42499e-07
7.12166e-07
5.1946e-07
2.30384e-07
0
0
0
0
0
0
0
0
0
0
0
1.94441e-05
1.70903e-05
8.12783e-06
3.03711e-06
1.9996e-06
1.38373e-06
8.95691e-08
0
0
7.4742e-08
1.46559e-07
5.95763e-08
1.68347e-08
1.18956e-08
2.0672e-08
2.92322e-08
3.21864e-08
3.01191e-08
2.48332e-08
1.88826e-08
1.60857e-08
1.94408e-08
2.72151e-08
3.6278e-08
4.12123e-08
3.68596e-08
2.97833e-08
2.26792e-08
1.67793e-08
1.24016e-08
9.38713e-09
7.38034e-09
6.00355e-09
4.9976e-09
4.24933e-09
3.65951e-09
3.15807e-09
2.71641e-09
2.32436e-09
1.97604e-09
1.66805e-09
1.39749e-09
1.16166e-09
9.58619e-10
7.8652e-10
6.4305e-10
5.2532e-10
4.30042e-10
3.53722e-10
2.92892e-10
2.44267e-10
2.04905e-10
1.72374e-10
1.44847e-10
1.21042e-10
1.00148e-10
8.16679e-11
6.53071e-11
5.08887e-11
3.8289e-11
2.7421e-11
1.81807e-11
1.04573e-11
4.13905e-12
0
0
0
0
0
0
0
0
0
0
0
0
0
0
0
0
0
0
0
0
0
0
0
0
0
0
0
0
0
0
0
0
0
0
0
0
0
0
0
0
0
0
0
0
0
0
0
0
0
0
0
0
0
0
0
0
0
0
0
0
0
0
0
0
0
0
0
0
0
0
0
0
0
0
0
0
0
0
0
0
0
0
0
0
0
1.6271e-08
1.7741e-08
2.69543e-08
7.66785e-08
1.50773e-07
1.76794e-07
2.03481e-07
2.50316e-07
3.09051e-07
4.00603e-07
5.06125e-07
6.12129e-07
7.82087e-07
9.5701e-07
1.12007e-06
1.25606e-06
1.31291e-06
1.35946e-06
1.31572e-06
1.26327e-06
1.14584e-06
6.36666e-07
0
0
0
0
0
0
0
0
6.41725e-05
4.60146e-05
2.07827e-05
7.99637e-06
2.42659e-06
1.0933e-06
6.53459e-07
0
0
0
3.26324e-07
1.34453e-07
1.26395e-08
0
0
0
0
5.24327e-09
9.355e-09
1.0769e-08
9.62423e-09
7.81207e-09
8.56251e-09
1.26702e-08
1.86258e-08
2.47294e-08
2.67093e-08
2.29994e-08
1.81059e-08
1.34876e-08
9.76984e-09
7.06406e-09
5.23488e-09
4.05106e-09
3.27379e-09
2.72076e-09
2.30142e-09
1.96538e-09
1.67781e-09
1.42534e-09
1.20253e-09
1.00546e-09
8.32288e-10
6.81059e-10
5.50348e-10
4.38905e-10
3.45483e-10
2.68542e-10
2.06242e-10
1.56601e-10
1.17648e-10
8.75616e-11
6.46675e-11
4.74612e-11
3.4563e-11
2.48144e-11
1.73146e-11
1.14027e-11
6.64814e-12
2.78484e-12
0
0
0
0
0
0
0
0
0
0
0
0
0
0
0
0
0
0
0
0
0
0
0
0
0
0
0
0
0
0
0
0
0
0
0
0
0
0
0
0
0
0
0
0
0
0
0
0
0
0
0
0
0
0
0
0
0
0
0
0
0
0
0
0
0
0
0
0
0
0
0
0
0
0
0
0
0
0
0
0
0
0
0
0
0
0
0
0
0
0
6.69506e-07
3.6387e-07
1.25904e-07
8.04394e-08
1.36071e-07
1.81239e-07
2.09651e-07
2.37089e-07
2.80173e-07
3.56288e-07
4.58667e-07
5.52273e-07
7.25827e-07
9.22306e-07
1.11771e-06
1.29043e-06
1.41152e-06
1.52788e-06
1.57067e-06
1.62561e-06
1.61521e-06
1.54141e-06
1.10762e-06
0
0
0
0
0
0
1.56177e-06
1.33373e-05
1.23768e-05
7.23903e-06
2.81181e-06
6.40833e-07
3.27192e-07
2.37918e-07
0
2.21549e-08
9.11552e-07
4.43395e-07
1.23264e-07
2.71769e-09
0
0
0
0
0
1.82093e-09
5.88445e-09
7.68383e-09
7.61102e-09
7.95477e-09
1.03874e-08
1.37479e-08
1.74505e-08
2.02854e-08
1.8747e-08
1.50019e-08
1.1259e-08
8.12212e-09
5.75443e-09
4.09242e-09
2.99147e-09
2.28792e-09
1.83178e-09
1.51134e-09
1.26478e-09
1.06254e-09
8.892e-10
7.3875e-10
6.07513e-10
4.92648e-10
3.93508e-10
3.08939e-10
2.37757e-10
1.78951e-10
1.31448e-10
9.39305e-11
6.49556e-11
4.30703e-11
2.69526e-11
1.54366e-11
7.51673e-12
2.30612e-12
0
0
0
0
0
0
0
0
0
0
0
0
0
0
0
0
0
0
0
0
0
0
0
0
0
0
0
0
0
0
0
0
0
0
0
0
0
0
0
0
0
0
0
0
0
0
0
0
0
0
0
0
0
0
0
0
0
0
0
0
0
0
0
0
0
0
0
0
0
0
0
0
0
0
0
0
0
0
0
0
0
0
0
0
0
0
0
0
0
0
0
0
0
0
0
1.2874e-05
3.24668e-06
6.76637e-07
1.80589e-07
1.44132e-07
1.51771e-07
1.64648e-07
1.85862e-07
2.16307e-07
2.77008e-07
3.29628e-07
4.12996e-07
5.16583e-07
6.92927e-07
8.83282e-07
1.02294e-06
1.17465e-06
1.25405e-06
1.30668e-06
1.37638e-06
1.35924e-06
1.31781e-06
1.20652e-06
7.90356e-07
1.09793e-07
0
0
0
0
7.17175e-07
2.17996e-06
2.31918e-06
1.54791e-06
4.3171e-07
5.23993e-08
1.90483e-07
3.02986e-07
7.06981e-07
2.51374e-06
1.25901e-06
3.51568e-07
1.00633e-07
1.64917e-08
0
0
0
3.52555e-09
5.23487e-09
7.19097e-09
9.35027e-09
1.1e-08
1.16503e-08
1.21913e-08
1.49161e-08
1.75988e-08
1.93659e-08
2.05273e-08
1.92762e-08
1.51178e-08
1.11756e-08
7.9549e-09
5.53815e-09
3.82985e-09
2.68234e-09
1.94425e-09
1.4788e-09
1.17562e-09
9.59361e-10
7.89363e-10
6.46947e-10
5.24674e-10
4.20089e-10
3.31774e-10
2.578e-10
1.96089e-10
1.44607e-10
1.0207e-10
6.79598e-11
4.1662e-11
2.22042e-11
8.52703e-12
0
0
0
0
0
0
0
0
0
0
0
0
0
0
0
0
0
0
0
0
0
0
0
0
0
0
0
0
0
0
0
0
0
0
0
0
0
0
0
0
0
0
0
0
0
0
0
0
0
0
0
0
0
0
0
0
0
0
0
0
0
0
0
0
0
0
0
0
0
0
0
0
0
0
0
0
0
0
0
0
0
0
0
0
0
0
0
0
0
0
0
0
0
0
0
0
0
0
0
3.03738e-05
6.73089e-06
1.03281e-06
2.50443e-07
1.90875e-07
9.46738e-08
9.62736e-08
1.10491e-07
1.32819e-07
1.71677e-07
1.96055e-07
2.40162e-07
2.89083e-07
3.94315e-07
5.24681e-07
6.14533e-07
7.58294e-07
8.18263e-07
8.302e-07
8.74021e-07
8.42882e-07
8.11034e-07
7.46395e-07
5.64538e-07
3.28442e-07
0
0
0
0
4.71856e-10
2.29439e-07
4.49662e-07
3.72345e-07
1.34195e-07
2.05906e-07
4.98418e-07
1.3073e-06
3.89384e-06
3.61873e-06
9.16405e-07
2.76208e-07
1.05133e-07
4.54042e-08
2.78186e-08
2.85529e-08
3.21651e-08
3.16948e-08
2.72828e-08
2.24688e-08
1.91259e-08
1.79199e-08
1.8117e-08
1.89632e-08
2.2955e-08
2.70214e-08
2.81404e-08
2.74864e-08
2.515e-08
1.93466e-08
1.3971e-08
9.80744e-09
6.73879e-09
4.5635e-09
3.08869e-09
2.1363e-09
1.5444e-09
1.17794e-09
9.37856e-10
7.62186e-10
6.1939e-10
4.97218e-10
3.92868e-10
3.05218e-10
2.32395e-10
1.72809e-10
1.24613e-10
8.57083e-11
5.43785e-11
2.96327e-11
1.09238e-11
0
0
0
0
0
0
0
0
0
0
0
0
0
0
0
0
0
0
0
0
0
0
0
0
0
0
0
0
0
0
0
0
0
0
0
0
0
0
0
0
0
0
0
0
0
0
0
0
0
0
0
0
0
0
0
0
0
0
0
0
0
0
0
0
0
0
0
0
0
0
0
0
0
0
0
0
0
0
0
0
0
0
0
0
0
0
0
0
0
0
0
0
0
0
0
0
0
0
0
0
2.46472e-05
9.81393e-06
2.02884e-06
5.81256e-07
3.01737e-07
3.11896e-08
1.74657e-08
4.08694e-08
5.76091e-08
7.27717e-08
8.67132e-08
1.01311e-07
1.15496e-07
1.54953e-07
2.05695e-07
2.5012e-07
3.24458e-07
3.57765e-07
3.60792e-07
3.80931e-07
3.6396e-07
3.40613e-07
2.8484e-07
2.01373e-07
9.85091e-08
0
0
0
0
0
8.44135e-08
3.03906e-07
3.12499e-07
2.86911e-07
5.53984e-07
1.4507e-06
2.74535e-06
2.41589e-06
1.69186e-06
5.06394e-07
2.02357e-07
1.07449e-07
7.3051e-08
6.41424e-08
6.64578e-08
6.79448e-08
6.46528e-08
5.52398e-08
4.32341e-08
3.33454e-08
2.79658e-08
2.65613e-08
2.7023e-08
3.15942e-08
3.82945e-08
4.01993e-08
3.86074e-08
3.52013e-08
2.78033e-08
1.97278e-08
1.37115e-08
9.38221e-09
6.32569e-09
4.22188e-09
2.83526e-09
1.96533e-09
1.43666e-09
1.11081e-09
8.93811e-10
7.30644e-10
5.94654e-10
4.76237e-10
3.74186e-10
2.88837e-10
2.18703e-10
1.61829e-10
1.16335e-10
8.00807e-11
5.12243e-11
2.84831e-11
1.10359e-11
0
0
0
0
0
0
0
0
0
0
0
0
0
0
0
0
0
0
0
0
0
0
0
0
0
0
0
0
0
0
0
0
0
0
0
0
0
0
0
0
0
0
0
0
0
0
0
0
0
0
0
0
0
0
0
0
0
0
0
0
0
0
0
0
0
0
0
0
0
0
0
0
0
0
0
0
0
0
0
0
0
0
0
0
0
0
0
0
0
0
0
0
0
0
0
0
0
0
0
7.44526e-06
1.08431e-05
3.34086e-06
1.17003e-06
2.38312e-07
0
0
0
0
0
0
0
0
0
0
0
0
0
0
0
0
0
0
0
0
0
0
0
0
0
1.21505e-07
2.85396e-07
3.42892e-07
5.41579e-07
1.39718e-06
1.661e-06
1.41795e-06
1.67772e-06
8.44061e-07
3.44558e-07
1.80863e-07
1.22622e-07
1.04105e-07
1.02129e-07
1.03643e-07
1.02378e-07
9.63498e-08
8.24239e-08
6.38143e-08
4.85848e-08
3.97784e-08
3.66372e-08
3.63104e-08
4.06003e-08
5.02143e-08
5.36615e-08
5.1785e-08
4.76471e-08
3.95923e-08
2.83443e-08
1.96523e-08
1.33915e-08
9.02375e-09
6.02501e-09
4.01509e-09
2.72196e-09
1.92552e-09
1.44321e-09
1.13949e-09
9.29662e-10
7.6744e-10
6.30703e-10
5.109e-10
4.06563e-10
3.18524e-10
2.46426e-10
1.88101e-10
1.41151e-10
1.03426e-10
7.31836e-11
4.89853e-11
2.97928e-11
1.49483e-11
3.94794e-12
0
0
0
0
0
0
0
0
0
0
0
0
0
0
0
0
0
0
0
0
0
0
0
0
0
0
0
0
0
0
0
0
0
0
0
0
0
0
0
0
0
0
0
0
0
0
0
0
0
0
0
0
0
0
0
0
0
0
0
0
0
0
0
0
0
0
0
0
0
0
0
0
0
0
0
0
0
0
0
0
0
0
0
0
0
0
0
0
0
0
0
0
0
0
0
0
0
1.22812e-06
1.12461e-06
3.46291e-07
0
0
0
0
0
0
0
0
0
0
0
0
0
0
0
0
0
0
0
0
0
0
0
0
0
0
0
0
1.71702e-07
7.54945e-07
8.72848e-07
8.85576e-07
1.21403e-06
1.01514e-06
4.74944e-07
2.31592e-07
1.52578e-07
1.31112e-07
1.30032e-07
1.316e-07
1.31221e-07
1.27477e-07
1.19301e-07
1.02361e-07
7.92282e-08
6.14335e-08
5.1464e-08
4.74817e-08
4.65199e-08
4.99446e-08
6.22417e-08
6.82961e-08
6.66381e-08
6.16724e-08
5.33055e-08
3.90886e-08
2.733e-08
1.86274e-08
1.25188e-08
8.35998e-09
5.57598e-09
3.7542e-09
2.60378e-09
1.9007e-09
1.46885e-09
1.18532e-09
9.79089e-10
8.14875e-10
6.76307e-10
5.56098e-10
4.51608e-10
3.62266e-10
2.87801e-10
2.26991e-10
1.77803e-10
1.37844e-10
1.05312e-10
7.88255e-11
5.73358e-11
3.99714e-11
2.6094e-11
1.53272e-11
7.30378e-12
1.59916e-12
0
0
0
0
0
0
0
0
0
0
0
0
0
0
0
0
0
0
0
0
0
0
0
0
0
0
0
0
0
0
0
0
0
0
0
0
0
0
0
0
0
0
0
0
0
0
0
0
0
0
0
0
0
0
0
0
0
0
0
0
0
0
0
0
0
0
0
0
0
0
0
0
0
0
0
0
0
0
0
0
0
0
0
0
0
0
0
0
0
0
0
0
1.58643e-06
0
0
0
0
0
0
0
0
0
0
0
0
0
0
0
0
0
0
0
0
0
0
0
0
0
0
0
0
0
0
0
2.83585e-07
4.56089e-07
5.73343e-07
9.075e-07
9.45493e-07
5.27117e-07
2.8686e-07
1.76897e-07
1.5188e-07
1.55292e-07
1.61541e-07
1.60295e-07
1.54517e-07
1.45941e-07
1.32891e-07
1.103e-07
8.69648e-08
7.06206e-08
6.20542e-08
5.85319e-08
5.75375e-08
6.03918e-08
7.43803e-08
8.38746e-08
8.3181e-08
7.74093e-08
6.83075e-08
5.15721e-08
3.62993e-08
2.48689e-08
1.67048e-08
1.1125e-08
7.40979e-09
4.97499e-09
3.41346e-09
2.44118e-09
1.84569e-09
1.46922e-09
1.20928e-09
1.01067e-09
8.4767e-10
7.08966e-10
5.89556e-10
4.87107e-10
4.00103e-10
3.26938e-10
2.65828e-10
2.15125e-10