/*--------------------------------*- C++ -*----------------------------------*\
  =========                 |
  \\      /  F ield         | OpenFOAM: The Open Source CFD Toolbox
   \\    /   O peration     | Website:  https://openfoam.org
    \\  /    A nd           | Version:  9
     \\/     M anipulation  |
\*---------------------------------------------------------------------------*/
FoamFile
{
    format      ascii;
    class       volScalarField;
    location    "0.007";
    object      s;
}
// * * * * * * * * * * * * * * * * * * * * * * * * * * * * * * * * * * * * * //

dimensions      [0 0 0 0 0 0 0];

internalField   nonuniform List<scalar> 
12225
(
1
1
1
1
1
1
1
1
1
1
1
1
1
1
1
1
1
0.999954
1
1
1
1
1
1
1
1
1
1
1
1
1
1
1
1
1
0.999999
1
1
1
1
1
1
1
1
1
1
1
1
1
1
1
1
1
1
1
1
1
1
1
1
1
1
1
1
1
1
1
1
1
1
1
1
1
1
1
1
1
1
1
1
1
1
1
1
1
1
1
1
1
1
1
1
1
1
1
1
1
1
1
1
1
1
1
1
1
1
1
1
1
1
1
1
1
1
1
1
1
1
1
1
1
1
1
1
1
1
1
1
1
1
1
1
1
1
1
1
1
1
1
1
1
1
1
1
1
1
1
1
1
1
1
1
1
1
1
1
1
1
1
1
1
1
1
1
1
1
1
1
1
1
1
1
1
1
1
1
1
1
1
1
1
1
1
1
1
1
1
1
1
1
1
1
1
1
1
1
1
1
1
1
1
1
1
1
1
1
1
1
1
1
1
1
1
1
1
1
1
1
1
1
1
1
1
1
1
1
1
1
1
1
1
1
1
1
1
1
1
1
1
1
1
1
1
1
1
1
1
1
1
1
1
1
1
1
1
1
1
1
1
1
1
1
1
1
1
1
1
1
1
1
1
1
1
1
1
1
1
1
1
1
1
1
1
1
1
1
1
1
1
1
1
1
1
1
1
1
1
1
1
1
1
1
1
1
1
1
1
1
1
1
1
1
1
1
1
1
1
1
1
1
1
1
1
1
1
1
1
1
1
1
1
1
1
1
1
1
1
1
1
1
1
1
1
1
1
1
1
1
1
1
1
1
1
1
1
1
1
1
1
1
1
1
1
1
1
1
1
1
1
1
1
1
1
1
1
1
1
1
1
1
1
1
1
1
1
1
1
1
1
1
1
1
1
1
1
1
1
1
1
1
1
1
1
1
1
1
1
1
1
1
1
1
1
1
1
1
1
1
1
1
1
1
1
1
1
1
1
1
1
1
1
1
1
1
1
1
1
1
1
1
1
1
1
1
1
1
1
1
1
1
1
1
1
1
1
1
1
1
1
1
1
1
1
1
1
1
1
1
1
1
1
1
1
1
1
1
1
1
1
1
1
1
1
1
1
1
1
1
1
1
1
1
1
1
1
1
1
1
1
1
1
1
1
1
1
1
1
1
1
1
1
1
1
1
1
1
1
1
1
1
1
1
1
1
1
1
1
1
1
1
1
1
1
1
1
1
1
1
1
1
4.81212e-26
2.17361e-24
5.43625e-23
9.30297e-22
1.20111e-20
1.23711e-19
1.05403e-18
7.621e-18
4.76559e-17
2.61639e-16
1.27672e-15
5.59446e-15
2.2207e-14
8.04522e-14
2.67743e-13
8.23149e-13
2.34951e-12
6.25469e-12
1.56005e-11
3.6632e-11
8.13952e-11
1.7205e-10
3.47707e-10
6.7479e-10
1.26217e-09
2.28325e-09
4.00549e-09
6.8422e-09
1.1566e-08
1.77534e-08
2.4418e-08
3.03769e-08
3.40889e-08
3.5651e-08
3.3313e-08
2.97329e-08
2.29929e-08
1.75152e-08
1.1786e-08
7.59676e-09
4.4996e-09
2.50678e-09
1.30717e-09
6.44078e-10
3.00214e-10
1.31723e-10
5.44534e-11
2.13598e-11
7.96959e-12
2.85496e-12
9.811e-13
3.23567e-13
1.02611e-13
3.13454e-14
9.23968e-15
2.63229e-15
7.25859e-16
1.93997e-16
5.03154e-17
1.26785e-17
3.10713e-18
7.41299e-19
1.7233e-19
3.90675e-20
8.64342e-21
1.86753e-21
3.9431e-22
8.14037e-23
1.64406e-23
3.24989e-24
6.29058e-25
1.19278e-25
2.21636e-26
4.0372e-27
7.21137e-28
1.26352e-28
2.17213e-29
3.66474e-30
6.06949e-31
9.86979e-32
1.57615e-32
2.47233e-33
3.80987e-34
5.76876e-35
8.58407e-36
1.25548e-36
1.80506e-37
2.55155e-38
3.54652e-39
4.8478e-40
6.51756e-41
8.61939e-42
1.12143e-42
1.43555e-43
1.8083e-44
2.24168e-45
2.7351e-46
3.28488e-47
3.88382e-48
4.52097e-49
5.18179e-50
5.84869e-51
6.50139e-52
7.11776e-53
7.67593e-54
8.15488e-55
8.53503e-56
8.80123e-57
8.94223e-58
8.96965e-59
8.88593e-60
8.69189e-61
8.39336e-62
8.0002e-63
7.52578e-64
6.98617e-65
6.39923e-66
5.78353e-67
5.15725e-68
4.53729e-69
3.93844e-70
3.37287e-71
2.84985e-72
2.37572e-73
1.95398e-74
1.58563e-75
1.26952e-76
1.00287e-77
7.81664e-79
6.01136e-80
4.56154e-81
3.41541e-82
2.52336e-83
1.83963e-84
1.32344e-85
9.39544e-87
6.58233e-88
4.55098e-89
3.10533e-90
2.09123e-91
1.38997e-92
9.11864e-94
5.90465e-95
3.77411e-96
2.38127e-97
1.48317e-98
9.11973e-100
5.53602e-101
3.31784e-102
1.96323e-103
1.147e-104
6.61683e-106
3.76915e-107
2.12012e-108
1.17765e-109
6.45989e-111
3.49944e-112
1.87218e-113
9.89204e-115
5.16202e-116
2.66046e-117
1.35427e-118
6.80866e-120
3.38089e-121
1.65808e-122
8.03108e-124
3.84169e-125
1.81477e-126
8.46524e-128
3.89861e-129
1.77248e-130
7.95252e-132
3.5206e-133
1.53656e-134
6.61127e-136
2.79806e-137
1.16533e-138
4.74441e-140
1.89019e-141
6.97018e-143
4.8458e-24
2.14258e-22
5.12336e-21
8.28311e-20
1.00519e-18
9.71915e-18
7.78477e-17
5.30945e-16
3.14757e-15
1.6483e-14
7.72408e-14
3.27349e-13
1.26577e-12
4.49857e-12
1.47837e-11
4.5149e-11
1.28685e-10
3.43645e-10
8.63053e-10
2.04656e-09
4.60107e-09
9.8469e-09
2.01342e-08
3.94481e-08
7.42266e-08
1.34438e-07
2.34755e-07
3.95827e-07
6.54438e-07
9.73531e-07
1.30674e-06
1.59646e-06
1.75912e-06
1.83041e-06
1.71058e-06
1.51872e-06
1.19294e-06
9.1138e-07
6.24307e-07
4.07764e-07
2.45973e-07
1.39577e-07
7.42708e-08
3.72536e-08
1.77149e-08
7.96017e-09
3.37244e-09
1.35442e-09
5.17747e-10
1.90113e-10
6.68535e-11
2.25552e-11
7.31531e-12
2.28492e-12
6.8851e-13
2.00469e-13
5.64861e-14
1.54237e-14
4.08635e-15
1.05171e-15
2.63235e-16
6.41384e-17
1.52272e-17
3.52552e-18
7.96651e-19
1.7582e-19
3.79241e-20
7.99965e-21
1.65113e-21
3.3363e-22
6.60286e-23
1.28047e-23
2.43414e-24
4.53756e-25
8.29743e-26
1.48882e-26
2.62205e-27
4.53367e-28
7.69794e-29
1.28383e-29
2.10348e-30
3.38644e-31
5.35797e-32
8.33248e-33
1.27389e-33
1.91481e-34
2.8302e-35
4.11389e-36
5.8814e-37
8.27077e-38
1.14417e-38
1.55722e-39
2.08529e-40
2.74773e-41
3.56291e-42
4.54667e-43
5.71045e-44
7.05938e-45
8.59034e-46
1.02903e-46
1.21354e-47
1.40901e-48
1.61075e-49
1.81313e-50
2.00975e-51
2.19379e-52
2.35836e-53
2.49696e-54
2.60392e-55
2.67471e-56
2.70637e-57
2.69854e-58
2.6533e-59
2.57253e-60
2.45956e-61
2.31894e-62
2.15608e-63
1.97694e-64
1.78766e-65
1.5942e-66
1.40208e-67
1.21614e-68
1.04033e-69
8.77706e-71
7.30333e-72
5.99371e-73
4.85157e-74
3.8734e-75
3.05026e-76
2.36935e-77
1.81544e-78
1.37218e-79
1.02313e-80
7.52582e-82
5.46138e-83
3.91012e-84
2.76207e-85
1.9251e-86
1.32393e-87
8.98441e-89
6.01651e-90
3.97604e-91
2.59314e-92
1.66913e-93
1.06039e-94
6.64924e-96
4.11555e-97
2.51452e-98
1.5166e-99
9.03023e-101
5.30831e-102
3.08079e-103
1.76537e-104
9.98837e-106
5.58028e-107
3.07847e-108
1.67706e-109
9.02216e-111
4.79329e-112
2.51495e-113
1.30319e-114
6.66928e-116
3.3709e-117
1.68273e-118
8.29625e-120
4.03965e-121
1.94264e-122
9.22583e-124
4.32675e-125
2.00363e-126
9.16046e-128
4.13415e-129
1.84118e-130
8.08959e-132
3.50393e-133
1.49561e-134
6.27741e-136
2.58933e-137
1.04198e-138
4.09723e-140
1.57512e-22
6.91399e-21
1.6562e-19
2.68697e-18
3.27756e-17
3.18962e-16
2.5743e-15
1.77079e-14
1.05946e-13
5.60049e-13
2.64858e-12
1.13202e-11
4.40949e-11
1.5763e-10
5.20115e-10
1.59161e-09
4.53553e-09
1.20806e-08
3.01864e-08
7.10338e-08
1.58042e-07
3.33729e-07
6.71044e-07
1.28799e-06
2.36431e-06
4.15925e-06
7.02265e-06
1.1397e-05
1.80225e-05
2.57733e-05
3.35173e-05
3.99301e-05
4.31727e-05
4.45076e-05
4.15423e-05
3.6691e-05
2.92747e-05
2.24681e-05
1.56867e-05
1.04018e-05
6.40145e-06
3.7064e-06
2.01533e-06
1.03283e-06
5.01061e-07
2.30588e-07
1.00203e-07
4.12412e-08
1.61688e-08
6.07678e-09
2.18606e-09
7.54099e-10
2.49923e-10
7.97228e-11
2.45186e-11
7.2818e-12
2.09154e-12
5.81808e-13
1.56941e-13
4.11012e-14
1.0462e-14
2.59097e-15
6.24898e-16
1.46904e-16
3.36886e-17
7.54191e-18
1.64939e-18
3.52601e-19
7.37243e-20
1.50846e-20
3.0218e-21
5.92926e-22
1.14003e-22
2.1487e-23
3.97129e-24
7.19982e-25
1.28077e-25
2.23615e-26
3.83279e-27
6.4508e-28
1.06632e-28
1.73151e-29
2.76249e-30
4.33098e-31
6.67344e-32
1.01077e-32
1.50506e-33
2.20348e-34
3.17225e-35
4.49134e-36
6.25433e-37
8.56692e-38
1.15438e-38
1.53034e-39
1.99611e-40
2.56196e-41
3.23581e-42
4.02209e-43
4.9205e-44
5.92499e-45
7.02292e-46
8.19461e-47
9.41344e-48
1.06465e-48
1.18559e-49
1.30003e-50
1.40377e-51
1.49275e-52
1.56333e-53
1.61255e-54
1.63835e-55
1.63964e-56
1.6169e-57
1.57224e-58
1.50748e-59
1.42522e-60
1.32866e-61
1.22139e-62
1.10713e-63
9.89588e-65
8.72221e-66
7.58089e-67
6.49743e-68
5.49162e-69
4.57728e-70
3.76247e-71
3.05009e-72
2.43858e-73
1.92293e-74
1.49557e-75
1.14731e-76
8.68177e-78
6.48041e-79
4.77179e-80
3.46629e-81
2.48411e-82
1.75637e-83
1.22525e-84
8.43361e-86
5.72799e-87
3.83895e-88
2.53901e-89
1.65721e-90
1.06751e-91
6.78693e-93
4.2589e-94
2.63796e-95
1.6129e-96
9.7349e-98
5.80049e-99
3.41214e-100
1.9817e-101
1.13636e-102
6.43396e-104
3.59704e-105
1.98579e-106
1.08258e-107
5.82821e-109
3.09868e-110
1.62703e-111
8.43728e-113
4.32121e-114
2.1858e-115
1.092e-116
5.38811e-118
2.62575e-119
1.26375e-120
6.00674e-122
2.81943e-123
1.30675e-124
5.97946e-126
2.70096e-127
1.2039e-128
5.29448e-130
2.29507e-131
9.8059e-133
4.11884e-134
1.70182e-135
6.86917e-137
2.72304e-138
4.52876e-21
1.95135e-19
4.64173e-18
7.4933e-17
9.10537e-16
8.83118e-15
7.10324e-14
4.86658e-13
2.89721e-12
1.52207e-11
7.14417e-11
3.02616e-10
1.16641e-09
4.11918e-09
1.34041e-08
4.03825e-08
1.13099e-07
2.95571e-07
7.23483e-07
1.66506e-06
3.61705e-06
7.44286e-06
1.45479e-05
2.70618e-05
4.79775e-05
8.12056e-05
0.000131392
0.000203541
0.000305319
0.000417921
0.000525016
0.00060822
0.000647181
0.000659509
0.000615479
0.000542568
0.000440453
0.000341152
0.000243651
0.000164751
0.000103885
6.16305e-05
3.43682e-05
1.80734e-05
8.98284e-06
4.2407e-06
1.89469e-06
8.01803e-07
3.23227e-07
1.24685e-07
4.60021e-08
1.62645e-08
5.521e-09
1.80256e-09
5.67012e-10
1.72115e-10
5.04919e-11
1.43354e-11
3.94414e-12
1.05288e-12
2.73009e-13
6.88341e-14
1.6892e-14
4.03826e-15
9.4125e-16
2.14064e-16
4.7535e-17
1.03133e-17
2.18751e-18
4.53851e-19
9.21518e-20
1.83199e-20
3.56743e-21
6.80724e-22
1.27329e-22
2.33543e-23
4.20169e-24
7.41683e-25
1.28488e-25
2.18506e-26
3.6485e-27
5.98279e-28
9.63637e-29
1.52482e-29
2.37078e-30
3.6224e-31
5.43996e-32
8.03055e-33
1.16547e-33
1.66307e-34
2.33359e-35
3.22024e-36
4.37062e-37
5.83488e-38
7.6629e-39
9.9007e-40
1.25859e-40
1.5743e-41
1.93779e-42
2.34735e-43
2.79854e-44
3.28397e-45
3.79328e-46
4.31326e-47
4.82842e-48
5.3216e-49
5.7749e-50
6.1708e-51
6.49325e-52
6.7288e-53
6.86746e-54
6.90343e-55
6.83542e-56
6.67158e-57
6.42044e-58
6.09218e-59
5.69971e-60
5.2578e-61
4.7822e-62
4.28873e-63
3.79237e-64
3.30661e-65
2.84286e-66
2.41011e-67
2.01485e-68
1.66105e-69
1.35043e-70
1.08274e-71
8.56161e-73
6.67702e-74
5.13597e-75
3.89665e-76
2.91614e-77
2.15275e-78
1.5677e-79
1.12625e-80
7.98243e-82
5.58185e-83
3.85111e-84
2.62167e-85
1.76106e-86
1.16734e-87
7.63608e-89
4.92958e-90
3.1408e-91
1.97506e-92
1.2259e-93
7.5107e-95
4.54237e-96
2.71195e-97
1.59844e-98
9.30136e-100
5.34384e-101
3.03135e-102
1.6979e-103
9.39068e-105
5.12872e-106
2.76607e-107
1.47324e-108
7.74911e-110
4.0254e-111
2.06516e-112
1.04639e-113
5.23634e-115
2.58798e-116
1.26324e-117
6.08968e-119
2.89914e-120
1.36294e-121
6.32691e-123
2.89956e-124
1.31178e-125
5.85593e-127
2.57924e-128
1.1198e-129
4.79192e-131
2.01674e-132
8.35e-134
3.38454e-135
1.34763e-136
1.17342e-19
4.89516e-18
1.1387e-16
1.80019e-15
2.14465e-14
2.03981e-13
1.60867e-12
1.08048e-11
6.30512e-11
3.24589e-10
1.49209e-09
6.18519e-09
2.33109e-08
8.0419e-08
2.55385e-07
7.50087e-07
2.04589e-06
5.20171e-06
1.23748e-05
2.76519e-05
5.82505e-05
0.00011604
0.000219069
0.000392449
0.000667853
0.00108117
0.00166693
0.002452
0.00347083
0.00453287
0.00548231
0.00617623
0.00648996
0.00652379
0.00609701
0.0053902
0.00445955
0.00350663
0.00257381
0.0017858
0.00116005
0.000709137
0.000407652
0.000220928
0.000113135
5.49179e-05
2.53029e-05
1.10448e-05
4.59111e-06
1.8225e-06
6.91393e-07
2.51137e-07
8.75049e-08
2.92998e-08
9.44385e-09
2.93486e-09
8.80727e-10
2.55584e-10
7.18198e-11
1.95667e-11
5.17441e-12
1.32966e-12
3.32346e-13
8.0875e-14
1.91771e-14
4.43445e-15
1.00069e-15
2.20525e-16
4.74873e-17
9.99794e-18
2.05913e-18
4.15055e-19
8.19164e-20
1.58364e-20
3.00004e-21
5.571e-22
1.01441e-22
1.81174e-23
3.17468e-24
5.45927e-25
9.21508e-26
1.52717e-26
2.48534e-27
3.97261e-28
6.23779e-29
9.62321e-30
1.45884e-30
2.17349e-31
3.1829e-32
4.58206e-33
6.48513e-34
9.02498e-35
1.23506e-35
1.66223e-36
2.20037e-37
2.86509e-38
3.66997e-39
4.62491e-40
5.73452e-41
6.99649e-42
8.40013e-43
9.92542e-44
1.15426e-44
1.32123e-45
1.4887e-46
1.65128e-47
1.80323e-48
1.93879e-49
2.05252e-50
2.13969e-51
2.1966e-52
2.22083e-53
2.21144e-54
2.16999e-55
2.09924e-56
2.00213e-57
1.88257e-58
1.74521e-59
1.59508e-60
1.43735e-61
1.27701e-62
1.11862e-63
9.6615e-65
8.22783e-66
6.90908e-67
5.72087e-68
4.67119e-69
3.76123e-70
2.98667e-71
2.33892e-72
1.80648e-73
1.37612e-74
1.03396e-75
7.66297e-77
5.60214e-78
4.04012e-79
2.87433e-80
2.01746e-81
1.39706e-82
9.54537e-84
6.4351e-85
4.28081e-86
2.81012e-87
1.82043e-88
1.16385e-89
7.34363e-91
4.57342e-92
2.8113e-93
1.70582e-94
1.02173e-95
6.04147e-97
3.5267e-98
2.03252e-99
1.15654e-100
6.49777e-102
3.60466e-103
1.97459e-104
1.06811e-105
5.70554e-107
3.00977e-108
1.56796e-109
8.06698e-111
4.09891e-112
2.05689e-113
1.01939e-114
4.98945e-116
2.41177e-117
1.15127e-118
5.4268e-120
2.52588e-121
1.16066e-122
5.26479e-124
2.35655e-125
1.04074e-126
4.53118e-128
1.94464e-129
8.21221e-131
3.41308e-132
1.3915e-133
5.58178e-135
2.45716e-18
9.85542e-17
2.22463e-15
3.41423e-14
3.95136e-13
3.65457e-12
2.80516e-11
1.83402e-10
1.04134e-09
5.21354e-09
2.33005e-08
9.38915e-08
3.43895e-07
1.15244e-06
3.55254e-06
1.01198e-05
2.67476e-05
6.58526e-05
0.000151614
0.000327675
0.000667027
0.00128202
0.00232965
0.00400514
0.00651972
0.0100623
0.0147419
0.0205426
0.0273715
0.0339973
0.0394927
0.0432434
0.044942
0.0446566
0.0419131
0.0373997
0.0316191
0.0254123
0.0192669
0.0138354
0.00933297
0.0059225
0.00353572
0.00198693
0.0010544
0.000529315
0.000252282
0.000114008
4.90253e-05
2.00958e-05
7.86373e-06
2.94305e-06
1.05539e-06
3.6329e-07
1.20247e-07
3.83351e-08
1.17896e-08
3.50285e-09
1.00686e-09
2.80355e-10
7.57112e-11
1.98525e-11
5.05969e-12
1.25461e-12
3.0294e-13
7.12893e-14
1.63623e-14
3.66539e-15
8.01928e-16
1.71454e-16
3.58424e-17
7.32999e-18
1.46713e-18
2.87531e-19
5.51974e-20
1.03833e-20
1.91458e-21
3.46161e-22
6.13858e-23
1.06798e-23
1.82333e-24
3.05547e-25
5.0268e-26
8.12065e-27
1.28842e-27
2.00799e-28
3.07449e-29
4.6255e-30
6.83877e-31
9.93774e-32
1.41952e-32
1.99338e-33
2.75222e-34
3.73652e-35
4.98867e-36
6.55057e-37
8.4604e-38
1.07488e-38
1.34346e-39
1.65204e-40
1.99887e-41
2.37988e-42
2.78845e-43
3.21545e-44
3.64945e-45
4.07711e-46
4.48381e-47
4.85451e-48
5.17461e-49
5.43093e-50
5.61265e-51
5.71201e-52
5.72489e-53
5.65303e-54
5.50257e-55
5.2799e-56
4.99424e-57
4.65698e-58
4.28093e-59
3.87951e-60
3.46602e-61
3.05288e-62
2.65108e-63
2.26978e-64
1.91606e-65
1.59481e-66
1.30889e-67
1.05927e-68
8.45355e-70
6.65294e-71
5.16359e-72
3.95249e-73
2.98394e-74
2.22193e-75
1.63196e-76
1.18236e-77
8.45025e-79
5.95788e-80
4.14417e-81
2.84398e-82
1.92566e-83
1.28653e-84
8.48148e-86
5.51762e-87
3.5423e-88
2.24436e-89
1.40345e-90
8.66204e-92
5.27695e-93
3.17328e-94
1.88371e-95
1.10389e-96
6.38645e-98
3.64785e-99
2.05719e-100
1.14549e-101
6.29805e-103
3.41926e-104
1.83309e-105
9.70454e-107
5.07361e-108
2.61951e-109
1.33564e-110
6.72564e-112
3.34464e-113
1.64262e-114
7.96683e-116
3.81579e-117
1.80469e-118
8.42781e-120
3.88558e-121
1.7684e-122
7.94238e-124
3.51962e-125
1.53793e-126
6.6248e-128
2.80982e-129
1.17333e-130
4.8153e-132
1.94638e-133
3.87391e-17
1.48963e-15
3.25701e-14
4.84239e-13
5.42693e-12
4.85823e-11
3.6091e-10
2.28487e-09
1.25743e-08
6.10637e-08
2.64727e-07
1.03411e-06
3.66824e-06
1.18941e-05
3.54522e-05
9.7613e-05
0.000249343
0.000593279
0.00131999
0.00275575
0.00541242
0.0100148
0.0174672
0.0287313
0.0446263
0.065566
0.0911896
0.12007
0.149916
0.175927
0.195675
0.208589
0.214218
0.211429
0.200359
0.182245
0.158563
0.131483
0.103452
0.077471
0.0549898
0.0366016
0.0229081
0.0134811
0.0074654
0.0039049
0.00193458
0.000909121
0.000405991
0.000172548
6.9909e-05
2.70499e-05
1.00141e-05
3.55366e-06
1.21096e-06
3.96937e-07
1.25362e-07
3.82063e-08
1.12529e-08
3.20731e-09
8.85773e-10
2.37313e-10
6.17471e-11
1.56188e-11
3.84436e-12
9.21559e-13
2.15324e-13
4.90745e-14
1.09171e-14
2.37204e-15
5.03677e-16
1.04576e-16
2.12408e-17
4.22254e-18
8.21902e-19
1.56704e-19
2.92757e-20
5.36103e-21
9.62578e-22
1.69509e-22
2.92842e-23
4.96437e-24
8.26004e-25
1.34921e-25
2.16391e-26
3.40833e-27
5.27303e-28
8.01426e-29
1.19679e-29
1.75623e-30
2.53288e-31
3.59062e-32
5.00379e-33
6.8557e-34
9.23579e-35
1.22352e-35
1.59407e-36
2.04268e-37
2.57475e-38
3.19263e-39
3.89474e-40
4.6748e-41
5.52124e-42
6.41705e-43
7.33997e-44
8.26318e-45
9.15647e-46
9.98778e-47
1.07252e-47
1.13387e-48
1.18028e-49
1.20974e-50
1.22101e-51
1.21402e-52
1.18974e-53
1.14922e-54
1.09417e-55
1.02687e-56
9.49949e-58
8.66261e-59
7.78703e-60
6.90053e-61
6.02826e-62
5.19176e-63
4.40825e-64
3.69031e-65
3.04595e-66
2.47891e-67
1.98928e-68
1.57415e-69
1.22838e-70
9.45313e-72
7.1745e-73
5.37034e-74
3.96486e-75
2.88729e-76
2.07401e-77
1.46963e-78
1.02732e-79
7.0848e-81
4.82049e-82
3.2361e-83
2.14358e-84
1.4011e-85
9.0371e-87
5.75234e-88
3.61358e-89
2.24043e-90
1.37102e-91
8.28136e-93
4.93769e-94
2.90623e-95
1.68866e-96
9.68682e-98
5.48609e-99
3.06766e-100
1.69368e-101
9.23314e-103
4.97025e-104
2.64199e-105
1.38681e-106
7.18873e-108
3.67993e-109
1.86031e-110
9.28736e-112
4.57888e-113
2.22935e-114
1.07186e-115
5.08876e-117
2.3855e-118
1.10403e-119
5.04394e-121
2.27424e-122
1.01181e-123
4.43965e-125
1.92074e-126
8.1868e-128
3.43723e-129
1.42038e-130
5.78597e-132
4.33435e-16
1.58826e-14
3.35252e-13
4.8213e-12
5.23897e-11
4.55103e-10
3.28053e-09
2.01519e-08
1.07574e-07
5.064e-07
2.1269e-06
8.04712e-06
2.76464e-05
8.68064e-05
0.00025041
0.000666633
0.00164478
0.00377709
0.00810531
0.0163033
0.0307873
0.0546104
0.0910574
0.143051
0.212669
0.300311
0.399114
0.4781
0.542851
0.593266
0.626383
0.647711
0.657578
0.655106
0.635183
0.599905
0.548534
0.480989
0.39907
0.311128
0.235038
0.167673
0.111202
0.0695408
0.0406303
0.022343
0.011594
0.00569663
0.00265526
0.00117587
0.000495492
0.00019902
7.63411e-05
2.8019e-05
9.85827e-06
3.33117e-06
1.08293e-06
3.39257e-07
1.02579e-07
2.99797e-08
8.48044e-09
2.32479e-09
6.18345e-10
1.59746e-10
4.01251e-11
9.80822e-12
2.33519e-12
5.41942e-13
1.22687e-13
2.71111e-14
5.85153e-15
1.23427e-15
2.54566e-16
5.13629e-17
1.01427e-17
1.96104e-18
3.71382e-19
6.89143e-20
1.25341e-20
2.23513e-21
3.90899e-22
6.70637e-23
1.12896e-23
1.86525e-24
3.02518e-25
4.81733e-26
7.53327e-27
1.15706e-27
1.74578e-28
2.58795e-29
3.76975e-30
5.39657e-31
7.59323e-32
1.05025e-32
1.42812e-33
1.90936e-34
2.51023e-35
3.24549e-36
4.12699e-37
5.16193e-38
6.35123e-39
7.68791e-40
9.15592e-41
1.07294e-41
1.23727e-42
1.40412e-43
1.5683e-44
1.72415e-45
1.86584e-46
1.98775e-47
2.08483e-48
2.15294e-49
2.18915e-50
2.19263e-51
2.1643e-52
2.10544e-53
2.0186e-54
1.90746e-55
1.77651e-56
1.63081e-57
1.4756e-58
1.31608e-59
1.15707e-60
1.00279e-61
8.56759e-63
7.21634e-64
5.99246e-65
4.90616e-66
3.96046e-67
3.15236e-68
2.47419e-69
1.91495e-70
1.46161e-71
1.1002e-72
8.16777e-74
5.98063e-75
4.3194e-76
3.0772e-77
2.16254e-78
1.49925e-79
1.02542e-80
6.91955e-82
4.60702e-83
3.02657e-84
1.96198e-85
1.25509e-86
7.92337e-88
4.93659e-89
3.03561e-90
1.84242e-91
1.10377e-92
6.52731e-94
3.81046e-95
2.19598e-96
1.24941e-97
7.01823e-99
3.89235e-100
2.13144e-101
1.15247e-102
6.15308e-104
3.24396e-105
1.68884e-106
8.68244e-108
4.40798e-109
2.20997e-110
1.09417e-111
5.3496e-113
2.58282e-114
1.23135e-115
5.79637e-117
2.69387e-118
1.23593e-119
5.59661e-121
2.50085e-122
1.10237e-123
4.79222e-125
2.05352e-126
8.67254e-128
3.60892e-129
1.48173e-130
3.40123e-15
1.19269e-13
2.4436e-12
3.41003e-11
3.59722e-10
3.03738e-09
2.12998e-08
1.27192e-07
6.58813e-07
3.00416e-06
1.22105e-05
4.46855e-05
0.000148411
0.000450193
0.00125416
0.00322575
0.0077042
0.0171952
0.0361049
0.0717427
0.135382
0.242537
0.410577
0.541206
0.644445
0.719182
0.753269
0.78441
0.801583
0.81046
0.826897
0.839599
0.855026
0.868316
0.881433
0.889033
0.890325
0.877372
0.847468
0.789424
0.688406
0.554357
0.402937
0.268693
0.170087
0.0993643
0.0546165
0.0282712
0.013845
0.00642705
0.00283212
0.00118664
0.000473664
0.000180489
6.57894e-05
2.29853e-05
7.71193e-06
2.48931e-06
7.74347e-07
2.32498e-07
6.7479e-08
1.89574e-08
5.16173e-09
1.36372e-09
3.49975e-10
8.73294e-11
2.12076e-11
5.01642e-12
1.15666e-12
2.60159e-13
5.71186e-14
1.22486e-14
2.56689e-15
5.25977e-16
1.05432e-16
2.06832e-17
3.97264e-18
7.47346e-19
1.37752e-19
2.48856e-20
4.40762e-21
7.65575e-22
1.30441e-22
2.18064e-23
3.57765e-24
5.76165e-25
9.10998e-26
1.41445e-26
2.15691e-27
3.2309e-28
4.75472e-29
6.87543e-30
9.77028e-31
1.36459e-31
1.87344e-32
2.52852e-33
3.35533e-34
4.37815e-35
5.61794e-36
7.08988e-37
8.80068e-38
1.07461e-38
1.29087e-39
1.52562e-40
1.77413e-41
2.03017e-42
2.28626e-43
2.53396e-44
2.76432e-45
2.96844e-46
3.13799e-47
3.26581e-48
3.34642e-49
3.37747e-50
3.35898e-51
3.29186e-52
3.17914e-53
3.02568e-54
2.83791e-55
2.62331e-56
2.38996e-57
2.14604e-58
1.89935e-59
1.65697e-60
1.42489e-61
1.20789e-62
1.00941e-63
8.31621e-65
6.75491e-66
5.40967e-67
4.27169e-68
3.32605e-69
2.55374e-70
1.93361e-71
1.44386e-72
1.06333e-73
7.72361e-75
5.53355e-76
3.91058e-77
2.72619e-78
1.87486e-79
1.27206e-80
8.51509e-82
5.62393e-83
3.66508e-84
2.3569e-85
1.49568e-86
9.36685e-88
5.7894e-89
3.53165e-90
2.12642e-91
1.26378e-92
7.41411e-94
4.29375e-95
2.45484e-96
1.3856e-97
7.72136e-99
4.24828e-100
2.30785e-101
1.23793e-102
6.5567e-104
3.42919e-105
1.77101e-106
9.03203e-108
4.54868e-109
2.26217e-110
1.11096e-111
5.38766e-113
2.57996e-114
1.21989e-115
5.69483e-117
2.62457e-118
1.19394e-119
5.36022e-121
2.3744e-122
1.03753e-123
4.47104e-125
1.89991e-126
7.96185e-128
3.29466e-129
1.80319e-14
6.04739e-13
1.20955e-11
1.64843e-10
1.695e-09
1.39367e-08
9.51856e-08
5.53986e-07
2.80132e-06
1.24953e-05
4.97466e-05
0.000178416
0.000580939
0.00172951
0.00474098
0.0120611
0.0287489
0.0649017
0.140061
0.290194
0.49455
0.623382
0.702804
0.741784
0.764404
0.772018
0.773434
0.771738
0.763585
0.757559
0.761611
0.780237
0.80682
0.84077
0.87762
0.908588
0.932011
0.946801
0.954385
0.95818
0.948755
0.920886
0.859069
0.730827
0.538534
0.339666
0.202131
0.111278
0.0577513
0.0283097
0.013132
0.00577362
0.00241066
0.000957991
0.000363182
0.000131644
4.57222e-05
1.52468e-05
4.8908e-06
1.51178e-06
4.51037e-07
1.30077e-07
3.6312e-08
9.82463e-09
2.57931e-09
6.57775e-10
1.63105e-10
3.93611e-11
9.25206e-12
2.1199e-12
4.73811e-13
1.03369e-13
2.20259e-14
4.58645e-15
9.3377e-16
1.85965e-16
3.62443e-17
6.91583e-18
1.29243e-18
2.36636e-19
4.24624e-20
7.46985e-21
1.28861e-21
2.18048e-22
3.61996e-23
5.89764e-24
9.43118e-25
1.48066e-25
2.28256e-26
3.45579e-27
5.13926e-28
7.5084e-29
1.07783e-29
1.52046e-30
2.10801e-31
2.87275e-32
3.84861e-33
5.0692e-34
6.56527e-35
8.36157e-36
1.04734e-36
1.29033e-37
1.56373e-38
1.86429e-39
2.18673e-40
2.52374e-41
2.86616e-42
3.2033e-43
3.52348e-44
3.8147e-45
4.06535e-46
4.26498e-47
4.40505e-48
4.48115e-49
4.49135e-50
4.43534e-51
4.31577e-52
4.13795e-53
3.90954e-54
3.63994e-55
3.3397e-56
3.01985e-57
2.6912e-58
2.36379e-59
2.04642e-60
1.74631e-61
1.46897e-62
1.21811e-63
9.95783e-65
8.02548e-66
6.37713e-67
4.99633e-68
3.85985e-69
2.94039e-70
2.20891e-71
1.63649e-72
1.19573e-73
8.61709e-75
6.12518e-76
4.29468e-77
2.97043e-78
2.02679e-79
1.36434e-80
9.06121e-82
5.93772e-83
3.83926e-84
2.44959e-85
1.54234e-86
9.58362e-88
5.87714e-89
3.55721e-90
2.12512e-91
1.25316e-92
7.29459e-94
4.19165e-95
2.37781e-96
1.33167e-97
7.36308e-99
4.0196e-100
2.16661e-101
1.1531e-102
6.0597e-104
3.14447e-105
1.61125e-106
8.15278e-108
4.07358e-109
2.0099e-110
9.79255e-112
4.71118e-113
2.238e-114
1.04969e-115
4.86065e-117
2.22185e-118
1.00245e-119
4.46347e-121
1.96098e-122
8.4999e-124
3.63489e-125
1.534e-126
6.39702e-128
6.77797e-14
2.16467e-12
4.24164e-11
5.68844e-10
5.76475e-09
4.66883e-08
3.13779e-07
1.79687e-06
8.94838e-06
3.93474e-05
0.000154473
0.000546816
0.00176263
0.00522361
0.0143585
0.0369071
0.0893749
0.205039
0.436189
0.579805
0.651456
0.68381
0.697322
0.699875
0.656192
0.577596
0.478876
0.413246
0.372804
0.357438
0.353795
0.382352
0.432513
0.513694
0.620597
0.748405
0.843717
0.914185
0.951275
0.970192
0.979354
0.983759
0.980814
0.96446
0.919237
0.804928
0.579587
0.344532
0.192577
0.100571
0.0494992
0.022998
0.0101064
0.00421094
0.00166796
0.000629728
0.000227178
7.84945e-05
2.6032e-05
8.30296e-06
2.55158e-06
7.56763e-07
2.16945e-07
6.01985e-08
1.61891e-08
4.22448e-09
1.07078e-09
2.63897e-10
6.32947e-11
1.47863e-11
3.367e-12
7.47866e-13
1.62137e-13
3.43304e-14
7.10319e-15
1.4369e-15
2.84319e-16
5.50526e-17
1.04357e-17
1.9373e-18
3.52338e-19
6.27982e-20
1.09722e-20
1.87984e-21
3.15893e-22
5.20788e-23
8.42524e-24
1.33782e-24
2.08541e-25
3.19189e-26
4.79782e-27
7.08355e-28
1.0274e-28
1.4641e-29
2.05025e-30
2.82167e-31
3.81702e-32
5.07591e-33
6.63629e-34
8.53113e-35
1.07846e-35
1.3408e-36
1.63956e-37
1.97214e-38
2.33364e-39
2.71681e-40
3.11208e-41
3.50789e-42
3.89119e-43
4.24811e-44
4.56482e-45
4.82835e-46
5.02756e-47
5.15594e-48
5.20892e-49
5.18438e-50
5.08361e-51
4.91125e-52
4.67492e-53
4.38467e-54
4.05231e-55
3.69054e-56
3.31222e-57
2.92963e-58
2.55383e-59
2.1942e-60
1.8582e-61
1.55116e-62
1.27643e-63
1.03546e-64
8.28107e-66
6.52956e-67
5.0763e-68
3.89134e-69
2.94147e-70
2.19263e-71
1.61186e-72
1.16861e-73
8.35645e-75
5.89392e-76
4.10055e-77
2.81422e-78
1.90536e-79
1.27269e-80
8.38722e-82
5.45366e-83
3.4991e-84
2.21536e-85
1.38413e-86
8.53446e-88
5.19354e-89
3.11933e-90
1.84922e-91
1.08211e-92
6.2506e-94
3.56422e-95
2.00639e-96
1.11504e-97
6.11803e-99
3.31428e-100
1.77272e-101
9.36212e-103
4.88209e-104
2.51388e-105
1.2782e-106
6.41756e-108
3.18173e-109
1.55768e-110
7.53019e-112
3.59448e-113
1.69414e-114
7.88357e-116
3.62177e-117
1.6425e-118
7.35247e-120
3.24839e-121
1.41646e-122
6.09646e-124
2.59091e-125
1.08869e-126
2.11865e-13
6.9067e-12
1.34236e-10
1.78784e-09
1.79624e-08
1.39245e-07
8.88772e-07
4.68821e-06
2.19911e-05
9.5528e-05
0.000372349
0.00131123
0.00423344
0.0127002
0.0358738
0.0967072
0.251927
0.47321
0.583152
0.629735
0.644238
0.643669
0.574644
0.414085
0.287768
0.208984
0.174159
0.157612
0.152134
0.15338
0.15927
0.167894
0.178283
0.198501
0.237588
0.321796
0.498283
0.722308
0.855799
0.930758
0.968935
0.985398
0.991547
0.993707
0.990887
0.976792
0.930975
0.787813
0.514079
0.287897
0.151691
0.0750934
0.0349828
0.0153766
0.00639693
0.00252671
0.000950398
0.000341362
0.000117376
3.8725e-05
1.22845e-05
3.75405e-06
1.10704e-06
3.15518e-07
8.70368e-08
2.3268e-08
6.03541e-09
1.5206e-09
3.72484e-10
8.87938e-11
2.06157e-11
4.66535e-12
1.02978e-12
2.21852e-13
4.66764e-14
9.59585e-15
1.92861e-15
3.79127e-16
7.2928e-17
1.37324e-17
2.53226e-18
4.57434e-19
8.09749e-20
1.40509e-20
2.39065e-21
3.98931e-22
6.53066e-23
1.04905e-23
1.6539e-24
2.55966e-25
3.88957e-26
5.80421e-27
8.50711e-28
1.22486e-28
1.73271e-29
2.40857e-30
3.29039e-31
4.41821e-32
5.83189e-33
7.56813e-34
9.65681e-35
1.21169e-35
1.49523e-36
1.81479e-37
2.16667e-38
2.54475e-39
2.94052e-40
3.34326e-41
3.74044e-42
4.11829e-43
4.46264e-44
4.75972e-45
4.9972e-46
5.16715e-47
5.26268e-48
5.27973e-49
5.2178e-50
5.07989e-51
4.87232e-52
4.60418e-53
4.28674e-54
3.93262e-55
3.555e-56
3.16682e-57
2.78006e-58
2.40523e-59
2.05095e-60
1.72373e-61
1.428e-62
1.16614e-63
9.38784e-65
7.45064e-66
5.82988e-67
4.49767e-68
3.42139e-69
2.56642e-70
1.8984e-71
1.38487e-72
9.9635e-74
7.07006e-75
4.94843e-76
3.41639e-77
2.32675e-78
1.56328e-79
1.03622e-80
6.7768e-82
4.37292e-83
2.78433e-84
1.74941e-85
1.08471e-86
6.63743e-88
4.00847e-89
2.38929e-90
1.4057e-91
8.16335e-93
4.67968e-94
2.64822e-95
1.47945e-96
8.15966e-98
4.44309e-99
2.38866e-100
1.26793e-101
6.64532e-103
3.439e-104
1.75733e-105
8.86714e-107
4.41804e-108
2.17367e-109
1.05603e-110
5.066e-112
2.39969e-113
1.12236e-114
5.18288e-116
2.36295e-117
1.06357e-118
4.72597e-120
2.07332e-121
8.98162e-123
3.84372e-124
1.6272e-125
3.8795e-13
1.09545e-11
2.11522e-10
2.77062e-09
2.82136e-08
2.57983e-07
1.81719e-06
1.08673e-05
5.83744e-05
0.000285123
0.00115749
0.00389632
0.0119644
0.0326253
0.0805374
0.217441
0.438189
0.558696
0.603969
0.617899
0.591657
0.470503
0.282268
0.188821
0.143546
0.124193
0.117778
0.116351
0.119638
0.124721
0.133856
0.145461
0.153254
0.157412
0.160811
0.172384
0.212133
0.335296
0.626593
0.812772
0.91514
0.965566
0.987141
0.994655
0.997047
0.997041
0.992636
0.973326
0.899081
0.658886
0.377786
0.201237
0.1002
0.0467813
0.0205568
0.00853531
0.0033609
0.00125922
0.000450251
0.000154055
5.056e-05
1.59511e-05
4.84701e-06
1.42109e-06
4.02645e-07
1.10409e-07
2.93386e-08
7.56377e-09
1.89397e-09
4.61079e-10
1.09229e-10
2.52009e-11
5.66691e-12
1.24288e-12
2.6604e-13
5.56102e-14
1.13578e-14
2.26768e-15
4.42818e-16
8.46082e-17
1.58241e-17
2.89807e-18
5.19915e-19
9.13973e-20
1.57487e-20
2.66065e-21
4.40838e-22
7.16521e-23
1.14271e-23
1.78855e-24
2.74795e-25
4.1452e-26
6.14033e-27
8.93351e-28
1.27676e-28
1.79274e-29
2.4735e-30
3.35393e-31
4.46995e-32
5.85613e-33
7.5428e-34
9.55252e-35
1.18964e-35
1.45704e-36
1.75522e-37
2.07989e-38
2.42459e-39
2.78077e-40
3.13808e-41
3.48475e-42
3.80827e-43
4.09606e-44
4.33661e-45
4.5215e-46
4.64282e-47
4.69541e-48
4.67716e-49
4.58916e-50
4.43559e-51
4.22339e-52
3.96173e-53
3.66141e-54
3.33406e-55
2.99149e-56
2.64492e-57
2.30448e-58
1.97878e-59
1.67458e-60
1.39677e-61
1.14837e-62
9.30674e-64
7.43532e-65
5.85616e-66
4.54738e-67
3.48153e-68
2.62824e-69
1.95646e-70
1.43619e-71
1.03971e-72
7.42332e-74
5.2275e-75
3.63099e-76
2.4878e-77
1.68147e-78
1.12118e-79
7.37547e-81
4.78699e-82
3.0656e-83
1.93719e-84
1.20797e-85
7.43345e-87
4.51434e-88
2.70577e-89
1.60067e-90
9.3464e-92
5.38692e-93
3.06485e-94
1.72135e-95
9.54409e-97
5.22427e-98
2.8233e-99
1.50641e-100
7.93596e-102
4.12797e-103
2.12016e-104
1.07523e-105
5.38449e-107
2.66259e-108
1.30012e-109
6.26876e-111
2.98467e-112
1.40321e-113
6.5141e-115
2.98597e-116
1.35152e-117
6.04059e-119
2.66635e-120
1.16259e-121
5.0098e-123
2.13643e-124
7.95239e-13
1.8703e-11
3.4354e-10
4.753e-09
4.81213e-08
3.25742e-07
2.16596e-06
1.25839e-05
6.69283e-05
0.000331334
0.00147907
0.00504057
0.0152541
0.0439545
0.135304
0.332536
0.503231
0.572671
0.597553
0.585671
0.46381
0.270738
0.171447
0.129482
0.112247
0.104554
0.097705
0.0911759
0.0879428
0.091362
0.105498
0.131183
0.155628
0.169147
0.163494
0.159794
0.165365
0.194077
0.329086
0.635236
0.828205
0.92642
0.971046
0.989715
0.996627
0.998583
0.998761
0.997074
0.98727
0.94228
0.752844
0.443342
0.238428
0.119133
0.055623
0.0243928
0.0100947
0.00395845
0.00147611
0.000525091
0.000178682
5.83088e-05
1.82876e-05
5.52352e-06
1.6095e-06
4.5319e-07
1.23487e-07
3.26052e-08
8.35211e-09
2.07789e-09
5.02568e-10
1.18279e-10
2.71095e-11
6.05574e-12
1.31931e-12
2.80506e-13
5.82384e-14
1.18137e-14
2.34258e-15
4.54294e-16
8.61989e-17
1.6009e-17
2.91133e-18