# Probe 0 (0.0254 0.0253 0)
# Probe 1 (0.0508 0.0253 0)
# Probe 2 (0.0762 0.0253 0)
# Probe 3 (0.1016 0.0253 0)
# Probe 4 (0.127 0.0253 0)
# Probe 5 (0.1524 0.0253 0)
# Probe 6 (0.1778 0.0253 0)
# Time        0             1             2             3             4             5             6            
0             0             0             0             0             0             0             0            
1e-05         143801        129601        116541        103686        90925.1       78854.8       66257.1      
2e-05         -71142.7      -64097.6      -57616.5      -51235.8      -44899.8      -38907.2      -32653.4     
3e-05         -699.366      -629.637      -569.423      -511.312      -454.793      -401.095      -344.758     
4e-05         -471.182      -420.621      -376.204      -332.945      -290.137      -249.629      -207.331     
5e-05         158.468       147.144       134.413       121.371       108.26        95.8582       82.9381      
6e-05         -39.1015      -30.8843      -25.587       -20.8232      -16.128       -11.7391      -7.16542     
7e-05         700.893       636.39        574.603       513.256       452.196       394.44        334.189      
8e-05         -453.856      -405.063      -361.963      -319.905      -278.181      -238.759      -197.62      
9e-05         -493.843      -440.295      -393.612      -348.175      -303.167      -260.63       -216.229     
0.0001        416.939       380.279       344.224       308.246       272.406       238.49        203.109      
0.00011       -436.676      -389.08       -347.548      -307.113      -267.036      -229.166      -189.642     
0.00012       -100.519      -86.1531      -75.2116      -64.9151      -54.825       -45.2943      -35.3286     
0.00013       779.173       706.545       637.612       569.31        501.392       437.138       370.094      
0.00014       371.759       339.567       307.725       275.94        244.334       214.401       183.159      
0.00015       -153.184      -133.928      -118.153      -103.009      -88.0198      -73.8821      -59.1293     
0.00016       -263.036      -232.849      -207.149      -182.262      -157.619      -134.345      -110.053     
0.00017       207.655       191.505       174.472       157.259       140.048       123.758       106.772      
0.00018       930.878       842.961       760.27        678.488       597.205       520.31        440.074      
0.00019       -447.717      -399.135      -356.535      -315.007      -273.841      -234.939      -194.336     
0.0002        -328.013      -291.403      -259.806      -229.127      -198.787      -170.103      -140.147     
0.00021       242.822       222.919       202.662       182.321       162.017       142.802       122.765      
0.00022       674.474       612.362       552.994       494.102       435.527       380.108       322.285      
0.00023       -918.37       -823.153      -737.832      -654.276      -571.392      -493.032      -411.25      
0.00024       -335.486      -298.658      -266.481      -235.159      -204.171      -174.869      -144.271     
0.00025       30.7731       31.2996       30.2421       28.8785       27.4333       26.0593       24.6438      
0.00026       27.5591       28.8421       28.1308       27.0597       25.9247       24.8279       23.6913      
0.00027       -142.788      -124.558      -109.799      -95.6536      -81.6629      -68.4637      -54.6851     
0.00028       953.855       863.076       778.202       694.366       611.058       532.253       450.025      
0.00029       -135.404      -117.843      -103.64       -90.0292      -76.5672      -63.8662      -50.607      
0.0003        -298.974      -265.772      -236.857      -208.704      -180.795      -154.43       -126.911     
0.00031       -344.181      -306.32       -273.314      -241.172      -209.328      -179.233      -147.817     
0.00032       973.902       881.549       794.853       709.161       624.007       543.449       459.39       
0.00033       -397.25       -354.198      -316.243      -279.191      -242.453      -207.732      -171.491     
0.00034       124.506       116.257       106.724       96.9609       87.172        77.8992       68.2361      
0.00035       620.966       563.307       508.712       454.657       400.913       350.07        297.023      
0.00036       -390.205      -348.185      -310.931      -274.516      -238.391      -204.251      -168.618     
0.00037       -100.315      -86.7487      -75.8984      -65.5263      -55.326       -45.6832      -35.6014     
0.00038       -40.7637      -33.5081      -28.0804      -22.9769      -17.9708      -13.2473      -8.30374     
0.00039       218.605       200.633       182.543       164.438       146.38        129.292       111.476      
0.0004        -386.668      -344.744      -307.846      -271.827      -236.113      -202.36       -167.128     
0.00041       -29.854       -23.4585      -19.0325      -14.9575      -10.993       -7.252        -3.3292      
0.00042       -319.896      -284.887      -254.117      -224.085      -194.303      -166.161      -136.784     
0.00043       343.341       312.534       283.037       253.777       224.662       197.117       168.387      
0.00044       284.779       260.291       236.203       212.21        188.354       165.764       142.194      
0.00045       41.0731       40.4114       38.4395       36.2569       34.0644       31.9632       29.7752      
0.00046       413.559       375.928       340.112       304.628       269.338       235.952       201.123      
0.00047       141.394       130.659       119.587       108.473       97.4177       86.9365       76.0041      
0.00048       -222.806      -197.28       -175.286      -153.895      -132.691      -112.662      -91.755      
0.00049       329.193       300.1         271.929       243.941       216.089       189.734       162.243      
0.0005        -412.607      -368.575      -329.352      -290.959      -252.866      -216.862      -179.281     
0.00051       194.482       178.52        162.546       146.587       130.68        115.625       99.9283      
0.00052       3.0222        6.16563       7.63597       8.83868       10.0023       11.0786       12.2073      
0.00053       -349.199      -311.157      -277.707      -245.048      -212.664      -182.059      -150.112     
0.00054       -701.277      -628.664      -563.3        -499.203      -435.608      -375.482      -312.723     
0.00055       267.901       244.827       222.149       199.555       177.041       155.741       133.532      
0.00056       410.784       374.031       338.502       303.214       268.1         234.878       200.223      
0.00057       73.3055       69.3425       64.4365       59.3906       54.3599       49.5775       44.5907      
0.00058       -349.882      -311.672      -278.153      -245.438      -212.997      -182.341      -150.343     
0.00059       505.736       459.422       415.207       371.386       327.801       286.567       243.551      
0.0006        93.1474       87.6572       80.9926       74.148        67.313        60.8228       54.0559      
0.00061       -563.875      -504.288      -451.311      -399.48       -348.08       -299.488      -248.769     
0.00062       -372.284      -332.084      -296.601      -261.946      -227.627      -195.173      -161.284     
0.00063       -150.536      -131.741      -116.356      -101.558      -86.9654      -73.1715      -58.7578     
0.00064       414.367       377.036       341.12        305.471       269.995       236.434       201.429      
0.00065       355.008       323.581       293.104       262.829       232.737       204.249       174.525      
0.00066       -508.778      -454.69       -406.71       -359.779      -313.233      -269.235      -223.312     
0.00067       461.353       419.433       379.219       339.337       299.668       262.136       222.981      
0.00068       153.034       141.45        129.309       117.106       104.962       93.4504       81.4429      
0.00069       313.573       286.356       259.65        233.061       206.585       181.532       155.403      
0.0007        -488.066      -435.91       -389.803      -344.735      -300.041      -257.794      -213.698     
0.00071       453.088       412.405       372.974       333.804       294.831       257.954       219.481      
0.00072       -525.179      -469.61       -420.147      -371.733      -323.708      -278.31       -230.925     
0.00073       -49.361       -40.6689      -34.4894      -28.7327      -23.1176      -17.8122      -12.2526     
0.00074       -714.899      -640.584      -573.958      -508.662      -443.883      -382.637      -318.71      
0.00075       1232.97       1115.03       1004.71       895.788       787.58        685.218       578.403      
0.00076       -632.707      -566.569      -507.274      -449.158      -391.5        -336.985      -280.083     
0.00077       1058.27       957.737       863.324       770.044       677.352       589.668       498.174      
0.00078       -134.491      -117.431      -103.378      -89.8162      -76.3901      -63.7137      -50.476      
0.00079       29.8038       30.7049       29.7431       28.4863       27.1538       25.8842       24.5764      
0.0008        -400.017      -356.543      -318.473      -281.315      -244.476      -209.657      -173.313     
0.00081       103.485       96.7061       88.9784       81.1179       73.2432       65.7872       58.0227      
0.00082       634.513       575.613       519.732       464.431       409.456       357.449       303.19       
0.00083       123.525       115.297       105.887       96.3232       86.7907       77.7471       68.3148      
0.00084       -879.82       -789.175      -707.532      -627.44       -547.973      -472.833      -394.407     
0.00085       -294.282      -261.615      -233.266      -205.643      -178.305      -152.454      -125.455     
0.00086       113.959       106.463       97.7949       88.9609       80.1038       71.7218       62.9944      
0.00087       222.088       203.892       185.445       167.002       148.618       131.222       113.084      
0.00088       -663.09       -593.805      -531.86       -471.165      -410.951      -354.022      -294.602     
0.00089       330.122       301.061       272.709       244.531       216.485       189.948       162.271      
0.0009        -688.121      -616.382      -552.168      -489.237      -426.807      -367.779      -306.166     
0.00091       500.426       454.65        410.831       367.407       324.216       283.358       240.734      
0.00092       -288.208      -255.942      -228.03       -200.834      -173.877      -148.402      -121.806     
0.00093       899.309       814.048       734.042       655.022       576.508       502.237       424.742      
0.00094       104.664       97.9589       90.238        82.3953       74.5822       67.1694       59.4403      
0.00095       -238.931      -211.397      -187.965      -165.201      -142.648      -121.342      -99.0981     
0.00096       100.443       94.4073       86.982        79.3649       71.7265       64.4907       56.9554      
0.00097       667.101       604.861       545.993       487.778       429.921       375.188       318.083      
0.00098       -121.861      -106.033      -93.182       -80.8036      -68.5551      -56.9918      -44.914      
0.00099       356.92        325.342       294.642       264.148       233.805       205.095       175.15       
0.001         -230.253      -203.888      -181.237      -159.188      -137.33       -116.679      -95.1187     
0.00101       -589.742      -527.371      -472.103      -418.035      -364.417      -313.727      -260.817     
0.00102       -92.9461      -80.4648      -70.4028      -60.7301      -51.1976      -42.1868      -32.7627     
0.00103       -8.60622      -4.13732      -1.67015      0.487512      2.55565       4.50569       6.55925      
0.00104       -22.7147      -16.7977      -13.0438      -9.6193       -6.27406      -3.12628      0.172255     
0.00105       320.568       292.351       264.921       237.681       210.572       184.926       158.179      
0.00106       -495.858      -443.304      -396.56       -350.789      -305.387      -262.463      -217.655     
0.00107       530.328       481.598       435.079       389.014       343.215       299.886       254.682      
0.00108       -172.351      -151.268      -133.852      -117.021      -100.358      -84.6205      -68.1865     
0.00109       333.434       304.165       275.569       247.15        218.868       192.109       164.198      
0.0011        -341.291      -303.785      -271.058      -239.119      -207.452      -177.523      -146.278     
0.00111       233.41        214.072       194.545       175.041       155.601       137.207       118.03       
0.00112       -386.45       -344.79       -308.002      -272.021      -236.329      -202.591      -167.372     
0.00113       -151.93       -133.224      -117.772      -102.844      -88.0998      -74.1629      -59.5991     
0.00114       -321.298      -286.223      -255.415      -225.306      -195.444      -167.219      -137.753     
0.00115       421.406       383.56        346.944       310.607       274.457       240.256       204.583      
0.00116       676.007       612.981       553.322       494.326       435.693       380.227       322.357      
0.00117       -732.912      -656.68       -588.355      -521.37       -454.908      -392.068      -326.477     
0.00118       352.151       321.128       290.771       260.594       230.562       202.146       172.506      
0.00119       324.351       296.371       268.653       241.053       213.604       187.62        160.512      
0.0012        8.54101       11.1899       12.1198       12.8097       13.4654       14.0644       14.699       
0.00121       -582.493      -521.102      -466.508      -413.054      -360.029      -309.899      -257.573     
0.00122       754.825       683.916       616.993       550.842       485.099       422.908       358.023      
0.00123       -237.595      -209.961      -186.595      -163.915      -141.45       -120.224      -98.0601     
0.00124       95.6824       89.8951       82.8823       75.7082       68.5096       61.6946       54.603       
0.00125       -227.008      -201.115      -178.827      -157.113      -135.585      -115.243      -94.0035     
0.00126       768.035       696.091       628.024       560.716       493.825       430.545       364.522      
0.00127       -416.998      -371.935      -332.29       -293.537      -255.105      -218.775      -180.85      
0.00128       280.941       257.317       233.491       209.699       185.996       163.565       140.172      
0.00129       -320.003      -284.842      -254.087      -224.044      -194.239      -166.072      -136.669     
0.0013        218.8         201.045       182.843       164.633       146.48        129.301       111.39       
0.00131       433.567       394.586       356.932       319.587       282.444       247.305       210.651      
0.00132       -410.249      -365.794      -326.796      -288.686      -250.89       -215.164      -177.872     
0.00133       353.721       322.731       292.277       261.994       231.856       203.34        173.597      
0.00134       32.5183       33.1699       31.9419       30.4606       28.9559       27.5099       26.0095      
0.00135       244.95        224.47        203.932       183.451       163.048       143.744       123.617      
0.00136       309.197       282.443       256.096       229.893       203.818       179.145       153.413      
0.00137       289.666       265.294       240.756       216.273       191.91        168.846       144.788      
0.00138       -138.471      -120.89       -106.571      -92.7509      -79.0716      -66.1548      -52.6644     
0.00139       301.112       275.593       249.981       224.43        198.979       174.897       149.783      
0.0014        -408.991      -364.993      -326.132      -288.107      -250.388      -214.731      -177.509     
0.00141       -565.663      -506.039      -453.019      -401.095      -349.59       -300.895      -250.063     
0.00142       118.263       110.403       101.303       92.055        82.7914       74.0247       64.8969      
0.00143       -392.582      -350.058      -312.722      -276.228      -240.036      -205.823      -170.107     
0.00144       841.483       762.167       687.4         613.52        540.106       470.66        398.204      
0.00145       -226.161      -199.676      -177.341      -155.656      -134.174      -113.876      -92.6817     
0.00146       205.66        189.384       172.409       155.388       138.412       122.346       105.597      
0.00147       -18.1341      -12.2525      -8.87684      -5.85874      -2.905        -0.134156     2.76729      
0.00148       244.88        225.026       204.525       183.994       163.529       144.161       123.965      
0.00149       -200.851      -177.052      -157.087      -137.716      -118.521      -100.389      -81.4571     
0.0015        -193.959      -170.58       -151.261      -132.58       -114.105      -96.6456      -78.4086     
0.00151       259.961       238.359       216.445       194.556       172.75        152.115       130.6        
0.00152       332.609       303.5         275.016       246.721       218.57        191.937       164.159      
0.00153       -917.505      -822.577      -737.495      -654.075      -571.314      -493.057      -411.375     
0.00154       -50.6356      -41.8619      -35.6663      -29.8554      -24.1672      -18.7922      -13.1596     
0.00155       18.7706       20.688        20.6522       20.3475       19.9804       19.6256       19.2757      
0.00156       313.345       286.588       259.843       233.186       206.636       181.519       155.327      
0.00157       181.264       167.549       152.815       138.001       123.257       109.286       94.7131      
0.00158       -118.81       -103.357      -90.8777      -78.8356      -66.9056      -55.6453      -43.8853     
0.00159       146.739       136.242       124.61        112.86        101.12        90.0075       78.4301      
0.0016        148.436       138.046       126.295       114.396       102.52        91.2717       79.5463      
0.00161       -101.595      -87.3687      -76.4231      -65.9645      -55.6239      -45.8674      -35.676      
0.00162       -334.088      -297.103      -265.086      -233.859      -202.896      -173.634      -143.085     
0.00163       -188.802      -165.995      -147.173      -128.979      -111.006      -94.0119      -76.2532     
0.00164       89.4722       84.3102       77.8361       71.206        64.5511       58.2548       51.7064      
0.00165       4.8457        8.21037       9.44504       10.3938       11.2981       12.1341       13.0169      
0.00166       -180.018      -158.235      -140.208      -122.755      -105.471      -89.1445      -72.0943     
0.00167       99.5268       93.9156       86.5623       78.9882       71.3866       64.1881       56.6946      
0.00168       -25.4545      -18.9802      -14.9889      -11.3439      -7.76335      -4.39786      -0.874543    
0.00169       -24.9633      -18.5656      -14.6236      -11.0286      -7.51665      -4.20864      -0.740468    
0.0017        -7.44336      -2.69527      -0.342047     1.67679       3.62002       5.44616       7.36751      
0.00171       406.294       370.277       335.077       300.111       265.315       232.398       198.066      
0.00172       146.597       136.39        124.813       113.096       101.424       90.361        78.8245      
0.00173       -417.514      -372.254      -332.641      -293.934      -255.54       -219.251      -181.371     
0.00174       -153.34       -134.046      -118.465      -103.455      -88.6406      -74.6344      -59.9961     
0.00175       864.869       783.404       706.526       630.553       555.065       483.657       409.15       
0.00176       -476.059      -424.864      -379.848      -335.836      -292.194      -250.933      -207.856     
0.00177       -66.2201      -55.5721      -47.9055      -40.6786      -33.5876      -26.8866      -19.8719     
0.00178       347.823       317.391       287.474       257.74        228.152       200.16        170.969      
0.00179       75.8765       72.8146       67.6622       62.2462       56.8235       51.6706       46.3032      
0.0018        -25.5209      -18.9028      -14.8903      -11.2387      -7.65726      -4.29032      -0.764692    
0.00181       -68.7097      -57.7858      -49.8598      -42.3657      -34.9768      -28.007       -20.7192     
0.00182       -317.989      -282.541      -251.994      -222.218      -192.701      -164.803      -135.677     
0.00183       41.7075       41.7205       39.5931       37.177        34.695        32.3413       29.9058      
0.00184       -171.586      -150.49       -133.228      -116.547      -100.035      -84.4377      -68.1469     
0.00185       216.944       199.734       181.711       163.637       145.607       128.549       110.767      
0.00186       -224.295      -197.962      -175.895      -154.484      -133.271      -113.228      -92.3002     
0.00187       -124.007      -107.723      -94.802       -82.3883      -70.1429      -58.5672      -46.4648     
0.00188       540.933       491.494       444.03        397.012       350.264       306.041       259.909      
0.00189       327.406       299.326       271.333       243.464       215.758       189.53        162.169      
0.0019        -644.031      -575.973      -515.744      -456.8        -398.339      -343.067      -285.372     
0.00191       74.5568       71.1132       65.9522       60.5761       55.1643       50.0391       44.7124      
0.00192       236.628       216.991       197.165       177.395       157.703       139.074       119.654      
0.00193       307.768       281.636       255.408       229.263       203.233       178.605       152.919      
0.00194       -146.551      -127.99       -112.972      -98.479       -84.1262      -70.573       -56.4185     
0.00195       -135.117      -117.522      -103.571      -90.1664      -76.9258      -64.4152      -51.3422     
0.00196       -190.74       -167.881      -148.907      -130.521      -112.315      -95.1125      -77.1455     
0.00197       -153.439      -134.071      -118.471      -103.442      -88.6006      -74.571       -59.9108     
0.00198       965.904       874.759       788.712       703.677       619.189       539.266       455.872      
0.00199       -405.206      -361.042      -322.461      -284.771      -247.401      -212.07       -175.182     
0.002         -94.716       -81.22        -70.9655      -61.1877      -51.5541      -42.4514      -32.932      
0.00201       503.763       458.027       413.946       370.26        326.818       285.724       242.857      
0.00202       -589.705      -526.922      -471.612      -417.521      -363.877      -313.16       -260.217     
0.00203       59.6878       58.185        54.4078       50.3293       46.1958       42.2762       38.2058      
0.00204       -286.738      -254.231      -226.52       -199.554      -172.825      -147.564      -121.189     
0.00205       717.107       650.752       587.3         524.473       462.02        402.939       341.299      
0.00206       11.322        14.4229       15.1491       15.5629       15.9349       16.2663       16.6225      
0.00207       -130.72       -113.71       -100.155      -87.1088      -74.1988      -62.008       -49.273      
0.00208       449.767       409.828       370.686       331.791       293.092       256.481       218.291      
0.00209       136.587       127.403       116.738       105.921       95.1401       84.9226       74.2707      
0.0021        -34.6306      -26.7483      -21.8824      -17.4371      -13.0665      -8.95843      -4.66141     
0.00211       -3.74906      0.967149      3.01345       4.69009       6.28172       7.77736       9.35556      
0.00212       -82.0982      -69.6417      -60.4872      -51.8108      -43.2492      -35.1708      -26.7262     
0.00213       299.049       273.909       248.456       223.052       197.75        173.811       148.848      
0.00214       -64.7896      -53.9663      -46.3496      -39.19        -32.1268      -25.4689      -18.5092     
0.00215       -111.54       -96.0954      -84.2643      -72.9646      -61.8026      -51.2658      -40.2553     
0.00216       306.702       280.883       254.74        228.644       202.652       178.059       152.415      
0.00217       -556.126      -496.86       -444.626      -393.534      -342.866      -294.96       -244.95      
0.00218       561.097       510.001       460.696       411.815       363.21        317.227       269.258      
0.00219       -24.2893      -17.2952      -13.3188      -9.76361      -6.28753      -3.02021      0.401432     
0.0022        -546.281      -488.061      -436.759      -386.577      -336.8        -289.743      -240.622     
0.00221       284.945       261.127       236.898       212.702       188.597       165.791       142.009      
0.00222       -48.5021      -39.1785      -33.0471      -27.366       -21.7717      -16.5039      -10.9968     
0.00223       79.2806       75.9122       70.4227       64.6617       58.8587       53.3611       47.6434      
0.00224       -1.57005      3.07291       4.92433       6.39614       7.80311       9.11378       10.4941      
0.00225       72.8345       69.7294       64.8015       59.6536       54.475        49.569        44.4686      
0.00226       -266.294      -235.739      -209.866      -184.712      -159.782      -136.223      -111.624     
0.00227       -286.183      -253.184      -225.502      -198.653      -172.076      -146.957      -120.724     
0.00228       -441.558      -393.705      -351.966      -311.203      -270.785      -232.576      -192.686     
0.00229       683.559       620.407       559.97        500.124       440.632       384.353       325.64       
0.0023        -231.445      -204.255      -181.489      -159.398      -137.513      -116.832      -95.2345     
0.00231       680.387       617.909       557.821       498.274       439.075       383.069       324.637      
0.00232       70.1605       67.6302       63.0235       58.1636       53.2948       48.6698       43.8554      
0.00233       -212.935      -187.656      -166.618      -146.223      -126.018      -106.929      -86.9955     
0.00234       -133.089      -115.39       -101.607      -88.4145      -75.4067      -63.1112      -50.2573     
0.00235       -196.084      -172.041      -152.542      -133.733      -115.126      -97.5455      -79.1842     
0.00236       514.729       468.198       423.124       378.418       333.96        291.902       248.028      
0.00237       -187.639      -164.621      -145.832      -127.678      -109.706      -92.7269      -74.9937     
0.00238       -304.401      -269.778      -240.449      -211.945      -183.705      -157.016      -129.15      
0.00239       393.716       359.593       325.529       291.59        257.803       225.837       192.497      
0.0024        512.317       466.023       421.232       376.818       332.655       290.877       247.296      
0.00241       -589.862      -527.146      -471.821      -417.696      -364.014      -313.259      -260.276     
0.00242       84.7777       80.861        74.8125       68.493        62.133        56.109        49.8444      
0.00243       187.901       173.983       158.64        143.157       127.703       113.076       97.831       
0.00244       606.554       551.447       498.115       445.215       392.615       342.852       290.937      
0.00245       -528.458      -471.667      -421.899      -373.261      -325.022      -279.419      -231.815     
0.00246       -353.44       -313.933      -280.165      -247.309      -214.786      -184.031      -151.912     
0.00247       62.0749       60.4803       56.5119       52.23         47.89         43.7792       39.5115      
0.00248       -76.4888      -64.1998      -55.5455      -47.4147      -39.4016      -31.8446      -23.9443     
0.00249       256.748       235.798       214.168       192.531       170.972       150.573       129.306      
0.0025        -113.725      -97.7984      -85.7399      -74.2462      -62.8935      -52.1766      -40.9784     
0.00251       -225.548      -198.634      -176.463      -155.011      -133.774      -113.707      -92.7519     
0.00252       349.456       319.583       289.536       259.572       229.735       201.506       172.067      
0.00253       -224.859      -198.394      -176.265      -154.793      -133.518      -113.415      -92.42       
0.00254       -927.904      -831.545      -745.601      -661.39       -577.851      -498.859      -416.407     
0.00255       93.2799       88.2312       81.3226       74.1922       67.0386       60.2635       53.2135      
0.00256       -77.2641      -65.2544      -56.5745      -48.3694      -40.275       -32.6371      -24.6517     
0.00257       -409.283      -364.151      -325.311      -287.468      -249.963      -214.51       -177.496     
0.00258       135.587       126.974       116.31        105.398       94.4729       84.1289       73.3546      
0.00259       -24.1527      -17.598       -13.7565      -10.2794      -6.86696      -3.65811      -0.296536    
0.0026        -223.982      -196.987      -174.965      -153.701      -132.653      -112.769      -92.0045     
0.00261       714.48        648.809       585.598       522.948       460.662       401.737       340.26       
0.00262       -782.851      -700.962      -628.125      -556.781      -486.013      -419.095      -349.242     
0.00263       292.16        267.72        242.776       217.855       193.033       169.546       145.054      
0.00264       568.394       517.031       467.128       417.604       368.353       321.76        273.155      