# vtk DataFile Version 2.0
sampleSurface
ASCII
DATASET POLYDATA
POINTS 502 float
-0.0206 0 -0.0005 -0.0190172 0 -0.0005 -0.0190172 0 0.0005 -0.0206 0
0.0005 -0.0174976 0 -0.0005 -0.0174976 0 0.0005 -0.0160387 0 -0.0005
-0.0160387 0 0.0005 -0.0146381 0 -0.0005 -0.0146381 0 0.0005 -0.0132934
0 -0.0005 -0.0132934 0 0.0005 -0.0120025 0 -0.0005 -0.0120025 0
0.0005 -0.0107632 0 -0.0005 -0.0107632 0 0.0005 -0.00957337 0 -0.0005
-0.00957337 0 0.0005 -0.00843108 0 -0.0005 -0.00843108 0 0.0005 -0.00733443
0 -0.0005 -0.00733443 0 0.0005 -0.0062816 0 -0.0005 -0.0062816 0
0.0005 -0.00527083 0 -0.0005 -0.00527083 0 0.0005 -0.00430044 0 -0.0005
-0.00430044 0 0.0005 -0.00336883 0 -0.0005 -0.00336883 0 0.0005 -0.00247443
0 -0.0005 -0.00247443 0 0.0005 -0.00161577 0 -0.0005 -0.00161577 0
0.0005 -0.000791418 0 -0.0005 -0.000791418 0 0.0005 0 0 -0.0005
0 0 0.0005 0 -0.0254 -0.0005 0 -0.0254 0.0005 0
-0.0242711 0.0005 0 -0.0242711 -0.0005 0 -0.0231422 0.0005 0 -0.0231422
-0.0005 0 -0.0220133 0.0005 0 -0.0220133 -0.0005 0 -0.0208844 0.0005
0 -0.0208844 -0.0005 0 -0.0197556 0.0005 0 -0.0197556 -0.0005 0
-0.0186267 0.0005 0 -0.0186267 -0.0005 0 -0.0174978 0.0005 0 -0.0174978
-0.0005 0 -0.0163689 0.0005 0 -0.0163689 -0.0005 0 -0.01524 0.0005
0 -0.01524 -0.0005 0 -0.0141111 0.0005 0 -0.0141111 -0.0005 0
-0.0129822 0.0005 0 -0.0129822 -0.0005 0 -0.0118533 0.0005 0 -0.0118533
-0.0005 0 -0.0107244 0.0005 0 -0.0107244 -0.0005 0 -0.00959556 0.0005
0 -0.00959556 -0.0005 0 -0.00846667 0.0005 0 -0.00846667 -0.0005 0
-0.00726604 0.0005 0 -0.00726604 -0.0005 0 -0.00618989 0.0005 0 -0.00618989
-0.0005 0 -0.00522531 0.0005 0 -0.00522531 -0.0005 0 -0.00436073 0.0005
0 -0.00436073 -0.0005 0 -0.00358579 0.0005 0 -0.00358579 -0.0005 0
-0.00289118 0.0005 0 -0.00289118 -0.0005 0 -0.0022686 0.0005 0 -0.0022686
-0.0005 0 -0.00171055 0.0005 0 -0.00171055 -0.0005 0 -0.00121037 0.0005
0 -0.00121037 -0.0005 0 -0.000762037 0.0005 0 -0.000762037 -0.0005 0
-0.000360188 0.0005 0 -0.000360188 -0.0005 0.000528387 -0.0254 -0.0005 0.000528387 -0.0254
0.0005 0.00106088 -0.0254 -0.0005 0.00106088 -0.0254 0.0005 0.00159752 -0.0254 -0.0005
0.00159752 -0.0254 0.0005 0.00213833 -0.0254 -0.0005 0.00213833 -0.0254 0.0005 0.00268334
-0.0254 -0.0005 0.00268334 -0.0254 0.0005 0.00323259 -0.0254 -0.0005 0.00323259 -0.0254
0.0005 0.00378611 -0.0254 -0.0005 0.00378611 -0.0254 0.0005 0.00434393 -0.0254 -0.0005
0.00434393 -0.0254 0.0005 0.00490609 -0.0254 -0.0005 0.00490609 -0.0254 0.0005 0.00547262
-0.0254 -0.0005 0.00547262 -0.0254 0.0005 0.00604356 -0.0254 -0.0005 0.00604356 -0.0254
0.0005 0.00661893 -0.0254 -0.0005 0.00661893 -0.0254 0.0005 0.00719878 -0.0254 -0.0005
0.00719878 -0.0254 0.0005 0.00778313 -0.0254 -0.0005 0.00778313 -0.0254 0.0005 0.00837203
-0.0254 -0.0005 0.00837203 -0.0254 0.0005 0.00896551 -0.0254 -0.0005 0.00896551 -0.0254
0.0005 0.0095636 -0.0254 -0.0005 0.0095636 -0.0254 0.0005 0.0101663 -0.0254 -0.0005
0.0101663 -0.0254 0.0005 0.0107738 -0.0254 -0.0005 0.0107738 -0.0254 0.0005 0.0113859
-0.0254 -0.0005 0.0113859 -0.0254 0.0005 0.0120028 -0.0254 -0.0005 0.0120028 -0.0254
0.0005 0.0126245 -0.0254 -0.0005 0.0126245 -0.0254 0.0005 0.0132511 -0.0254 -0.0005
0.0132511 -0.0254 0.0005 0.0138825 -0.0254 -0.0005 0.0138825 -0.0254 0.0005 0.0145188
-0.0254 -0.0005 0.0145188 -0.0254 0.0005 0.0151601 -0.0254 -0.0005 0.0151601 -0.0254
0.0005 0.0158063 -0.0254 -0.0005 0.0158063 -0.0254 0.0005 0.0164576 -0.0254 -0.0005
0.0164576 -0.0254 0.0005 0.0171139 -0.0254 -0.0005 0.0171139 -0.0254 0.0005 0.0177754
-0.0254 -0.0005 0.0177754 -0.0254 0.0005 0.018442 -0.0254 -0.0005 0.018442 -0.0254
0.0005 0.0191137 -0.0254 -0.0005 0.0191137 -0.0254 0.0005 0.0197907 -0.0254 -0.0005
0.0197907 -0.0254 0.0005 0.020473 -0.0254 -0.0005 0.020473 -0.0254 0.0005 0.0211606
-0.0254 -0.0005 0.0211606 -0.0254 0.0005 0.0218535 -0.0254 -0.0005 0.0218535 -0.0254
0.0005 0.0225517 -0.0254 -0.0005 0.0225517 -0.0254 0.0005 0.0232555 -0.0254 -0.0005
0.0232555 -0.0254 0.0005 0.0239647 -0.0254 -0.0005 0.0239647 -0.0254 0.0005 0.0246794
-0.0254 -0.0005 0.0246794 -0.0254 0.0005 0.0253996 -0.0254 -0.0005 0.0253996 -0.0254
0.0005 0.0261255 -0.0254 -0.0005 0.0261255 -0.0254 0.0005 0.026857 -0.0254 -0.0005
0.026857 -0.0254 0.0005 0.0275942 -0.0254 -0.0005 0.0275942 -0.0254 0.0005 0.0283371
-0.0254 -0.0005 0.0283371 -0.0254 0.0005 0.0290858 -0.0254 -0.0005 0.0290858 -0.0254
0.0005 0.0298403 -0.0254 -0.0005 0.0298403 -0.0254 0.0005 0.0306007 -0.0254 -0.0005
0.0306007 -0.0254 0.0005 0.031367 -0.0254 -0.0005 0.031367 -0.0254 0.0005 0.0321393
-0.0254 -0.0005 0.0321393 -0.0254 0.0005 0.0329175 -0.0254 -0.0005 0.0329175 -0.0254
0.0005 0.0337019 -0.0254 -0.0005 0.0337019 -0.0254 0.0005 0.0344923 -0.0254 -0.0005
0.0344923 -0.0254 0.0005 0.0352888 -0.0254 -0.0005 0.0352888 -0.0254 0.0005 0.0360916
-0.0254 -0.0005 0.0360916 -0.0254 0.0005 0.0369006 -0.0254 -0.0005 0.0369006 -0.0254
0.0005 0.0377158 -0.0254 -0.0005 0.0377158 -0.0254 0.0005 0.0385375 -0.0254 -0.0005
0.0385375 -0.0254 0.0005 0.0393655 -0.0254 -0.0005 0.0393655 -0.0254 0.0005 0.0401999
-0.0254 -0.0005 0.0401999 -0.0254 0.0005 0.0410408 -0.0254 -0.0005 0.0410408 -0.0254
0.0005 0.0418883 -0.0254 -0.0005 0.0418883 -0.0254 0.0005 0.0427424 -0.0254 -0.0005
0.0427424 -0.0254 0.0005 0.0436031 -0.0254 -0.0005 0.0436031 -0.0254 0.0005 0.0444704
-0.0254 -0.0005 0.0444704 -0.0254 0.0005 0.0453446 -0.0254 -0.0005 0.0453446 -0.0254
0.0005 0.0462255 -0.0254 -0.0005 0.0462255 -0.0254 0.0005 0.0471133 -0.0254 -0.0005
0.0471133 -0.0254 0.0005 0.048008 -0.0254 -0.0005 0.048008 -0.0254 0.0005 0.0489096
-0.0254 -0.0005 0.0489096 -0.0254 0.0005 0.0498183 -0.0254 -0.0005 0.0498183 -0.0254
0.0005 0.050734 -0.0254 -0.0005 0.050734 -0.0254 0.0005 0.0516568 -0.0254 -0.0005
0.0516568 -0.0254 0.0005 0.0525868 -0.0254 -0.0005 0.0525868 -0.0254 0.0005 0.053524
-0.0254 -0.0005 0.053524 -0.0254 0.0005 0.0544686 -0.0254 -0.0005 0.0544686 -0.0254
0.0005 0.0554204 -0.0254 -0.0005 0.0554204 -0.0254 0.0005 0.0563797 -0.0254 -0.0005
0.0563797 -0.0254 0.0005 0.0573464 -0.0254 -0.0005 0.0573464 -0.0254 0.0005 0.0583206
-0.0254 -0.0005 0.0583206 -0.0254 0.0005 0.0593025 -0.0254 -0.0005 0.0593025 -0.0254
0.0005 0.0602919 -0.0254 -0.0005 0.0602919 -0.0254 0.0005 0.0612891 -0.0254 -0.0005
0.0612891 -0.0254 0.0005 0.0622939 -0.0254 -0.0005 0.0622939 -0.0254 0.0005 0.0633067
-0.0254 -0.0005 0.0633067 -0.0254 0.0005 0.0643272 -0.0254 -0.0005 0.0643272 -0.0254
0.0005 0.0653557 -0.0254 -0.0005 0.0653557 -0.0254 0.0005 0.0663923 -0.0254 -0.0005
0.0663923 -0.0254 0.0005 0.0674368 -0.0254 -0.0005 0.0674368 -0.0254 0.0005 0.0684895
-0.0254 -0.0005 0.0684895 -0.0254 0.0005 0.0695504 -0.0254 -0.0005 0.0695504 -0.0254
0.0005 0.0706195 -0.0254 -0.0005 0.0706195 -0.0254 0.0005 0.0716969 -0.0254 -0.0005
0.0716969 -0.0254 0.0005 0.0727828 -0.0254 -0.0005 0.0727828 -0.0254 0.0005 0.073877
-0.0254 -0.0005 0.073877 -0.0254 0.0005 0.0749798 -0.0254 -0.0005 0.0749798 -0.0254
0.0005 0.0760911 -0.0254 -0.0005 0.0760911 -0.0254 0.0005 0.0772111 -0.0254 -0.0005
0.0772111 -0.0254 0.0005 0.0783398 -0.0254 -0.0005 0.0783398 -0.0254 0.0005 0.0794772
-0.0254 -0.0005 0.0794772 -0.0254 0.0005 0.0806235 -0.0254 -0.0005 0.0806235 -0.0254
0.0005 0.0817787 -0.0254 -0.0005 0.0817787 -0.0254 0.0005 0.0829429 -0.0254 -0.0005
0.0829429 -0.0254 0.0005 0.0841162 -0.0254 -0.0005 0.0841162 -0.0254 0.0005 0.0852985
-0.0254 -0.0005 0.0852985 -0.0254 0.0005 0.0864901 -0.0254 -0.0005 0.0864901 -0.0254
0.0005 0.0876909 -0.0254 -0.0005 0.0876909 -0.0254 0.0005 0.0889011 -0.0254 -0.0005
0.0889011 -0.0254 0.0005 0.0901207 -0.0254 -0.0005 0.0901207 -0.0254 0.0005 0.0913497
-0.0254 -0.0005 0.0913497 -0.0254 0.0005 0.0925883 -0.0254 -0.0005 0.0925883 -0.0254
0.0005 0.0938366 -0.0254 -0.0005 0.0938366 -0.0254 0.0005 0.0950945 -0.0254 -0.0005
0.0950945 -0.0254 0.0005 0.0963622 -0.0254 -0.0005 0.0963622 -0.0254 0.0005 0.0976398
-0.0254 -0.0005 0.0976398 -0.0254 0.0005 0.0989273 -0.0254 -0.0005 0.0989273 -0.0254
0.0005 0.100225 -0.0254 -0.0005 0.100225 -0.0254 0.0005 0.101532 -0.0254 -0.0005
0.101532 -0.0254 0.0005 0.10285 -0.0254 -0.0005 0.10285 -0.0254 0.0005 0.104178
-0.0254 -0.0005 0.104178 -0.0254 0.0005 0.105517 -0.0254 -0.0005 0.105517 -0.0254
0.0005 0.106865 -0.0254 -0.0005 0.106865 -0.0254 0.0005 0.108225 -0.0254 -0.0005
0.108225 -0.0254 0.0005 0.109594 -0.0254 -0.0005 0.109594 -0.0254 0.0005 0.110975
-0.0254 -0.0005 0.110975 -0.0254 0.0005 0.112366 -0.0254 -0.0005 0.112366 -0.0254
0.0005 0.113768 -0.0254 -0.0005 0.113768 -0.0254 0.0005 0.115181 -0.0254 -0.0005
0.115181 -0.0254 0.0005 0.116605 -0.0254 -0.0005 0.116605 -0.0254 0.0005 0.11804
-0.0254 -0.0005 0.11804 -0.0254 0.0005 0.119486 -0.0254 -0.0005 0.119486 -0.0254
0.0005 0.120943 -0.0254 -0.0005 0.120943 -0.0254 0.0005 0.122412 -0.0254 -0.0005
0.122412 -0.0254 0.0005 0.123892 -0.0254 -0.0005 0.123892 -0.0254 0.0005 0.125384
-0.0254 -0.0005 0.125384 -0.0254 0.0005 0.126887 -0.0254 -0.0005 0.126887 -0.0254
0.0005 0.128402 -0.0254 -0.0005 0.128402 -0.0254 0.0005 0.129928 -0.0254 -0.0005
0.129928 -0.0254 0.0005 0.131467 -0.0254 -0.0005 0.131467 -0.0254 0.0005 0.133017
-0.0254 -0.0005 0.133017 -0.0254 0.0005 0.13458 -0.0254 -0.0005 0.13458 -0.0254
0.0005 0.136155 -0.0254 -0.0005 0.136155 -0.0254 0.0005 0.137742 -0.0254 -0.0005
0.137742 -0.0254 0.0005 0.139341 -0.0254 -0.0005 0.139341 -0.0254 0.0005 0.140953
-0.0254 -0.0005 0.140953 -0.0254 0.0005 0.142577 -0.0254 -0.0005 0.142577 -0.0254
0.0005 0.144214 -0.0254 -0.0005 0.144214 -0.0254 0.0005 0.145863 -0.0254 -0.0005
0.145863 -0.0254 0.0005 0.147526 -0.0254 -0.0005 0.147526 -0.0254 0.0005 0.149201
-0.0254 -0.0005 0.149201 -0.0254 0.0005 0.15089 -0.0254 -0.0005 0.15089 -0.0254
0.0005 0.152591 -0.0254 -0.0005 0.152591 -0.0254 0.0005 0.154306 -0.0254 -0.0005
0.154306 -0.0254 0.0005 0.156034 -0.0254 -0.0005 0.156034 -0.0254 0.0005 0.157775
-0.0254 -0.0005 0.157775 -0.0254 0.0005 0.159531 -0.0254 -0.0005 0.159531 -0.0254
0.0005 0.161299 -0.0254 -0.0005 0.161299 -0.0254 0.0005 0.163082 -0.0254 -0.0005
0.163082 -0.0254 0.0005 0.164878 -0.0254 -0.0005 0.164878 -0.0254 0.0005 0.166688
-0.0254 -0.0005 0.166688 -0.0254 0.0005 0.168513 -0.0254 -0.0005 0.168513 -0.0254
0.0005 0.170351 -0.0254 -0.0005 0.170351 -0.0254 0.0005 0.172204 -0.0254 -0.0005
0.172204 -0.0254 0.0005 0.174071 -0.0254 -0.0005 0.174071 -0.0254 0.0005 0.175953
-0.0254 -0.0005 0.175953 -0.0254 0.0005 0.177849 -0.0254 -0.0005 0.177849 -0.0254
0.0005 0.17976 -0.0254 -0.0005 0.17976 -0.0254 0.0005 0.181686 -0.0254 -0.0005
0.181686 -0.0254 0.0005 0.183627 -0.0254 -0.0005 0.183627 -0.0254 0.0005 0.185583
-0.0254 -0.0005 0.185583 -0.0254 0.0005 0.187555 -0.0254 -0.0005 0.187555 -0.0254
0.0005 0.189541 -0.0254 -0.0005 0.189541 -0.0254 0.0005 0.191543 -0.0254 -0.0005
0.191543 -0.0254 0.0005 0.193561 -0.0254 -0.0005 0.193561 -0.0254 0.0005 0.195594
-0.0254 -0.0005 0.195594 -0.0254 0.0005 0.197643 -0.0254 -0.0005 0.197643 -0.0254
0.0005 0.199708 -0.0254 -0.0005 0.199708 -0.0254 0.0005 0.201789 -0.0254 -0.0005
0.201789 -0.0254 0.0005 0.203886 -0.0254 -0.0005 0.203886 -0.0254 0.0005 0.206
-0.0254 -0.0005 0.206 -0.0254 0.0005 0.208047 -0.0251856 -0.0005 0.208047 -0.0251856
0.0005 0.210173 -0.0249628 -0.0005 0.210173 -0.0249628 0.0005 0.212382 -0.0247314 -0.0005
0.212382 -0.0247314 0.0005 0.214677 -0.024491 -0.0005 0.214677 -0.024491 0.0005 0.217061
-0.0242412 -0.0005 0.217061 -0.0242412 0.0005 0.219538 -0.0239817 -0.0005 0.219538 -0.0239817
0.0005 0.222112 -0.0237121 -0.0005 0.222112 -0.0237121 0.0005 0.224785 -0.023432 -0.0005
0.224785 -0.023432 0.0005 0.227563 -0.023141 -0.0005 0.227563 -0.023141 0.0005 0.230449
-0.0228387 -0.0005 0.230449 -0.0228387 0.0005 0.233447 -0.0225246 -0.0005 0.233447 -0.0225246
0.0005 0.236562 -0.0221983 -0.0005 0.236562 -0.0221983 0.0005 0.239797 -0.0218593 -0.0005
0.239797 -0.0218593 0.0005 0.243159 -0.0215071 -0.0005 0.243159 -0.0215071 0.0005 0.246652
-0.0211412 -0.0005 0.246652 -0.0211412 0.0005 0.250281 -0.0207611 -0.0005 0.250281 -0.0207611
0.0005 0.254051 -0.0203661 -0.0005 0.254051 -0.0203661 0.0005 0.257967 -0.0199558 -0.0005
0.257967 -0.0199558 0.0005 0.262036 -0.0195295 -0.0005 0.262036 -0.0195295 0.0005 0.266264
-0.0190867 -0.0005 0.266264 -0.0190867 0.0005 0.270655 -0.0186266 -0.0005 0.270655 -0.0186266
0.0005 0.275218 -0.0181486 -0.0005 0.275218 -0.0181486 0.0005 0.279959 -0.017652 -0.0005
0.279959 -0.017652 0.0005 0.284883 -0.017136 -0.0005 0.284883 -0.017136 0.0005 0.29
-0.0166 -0.0005 0.29 -0.0166 0.0005 
POLYGONS 250 1250
4 0 1 2 3 4 1 4 5 2 4
4 6 7 5 4 6 8 9 7 4
8 10 11 9 4 10 12 13 11 4
12 14 15 13 4 14 16 17 15 4
16 18 19 17 4 18 20 21 19 4
20 22 23 21 4 22 24 25 23 4
24 26 27 25 4 26 28 29 27 4
28 30 31 29 4 30 32 33 31 4
32 34 35 33 4 34 36 37 35 4
38 39 40 41 4 41 40 42 43 4
43 42 44 45 4 45 44 46 47 4
47 46 48 49 4 49 48 50 51 4
51 50 52 53 4 53 52 54 55 4
55 54 56 57 4 57 56 58 59 4
59 58 60 61 4 61 60 62 63 4
63 62 64 65 4 65 64 66 67 4
67 66 68 69 4 69 68 70 71 4
71 70 72 73 4 73 72 74 75 4
75 74 76 77 4 77 76 78 79 4
79 78 80 81 4 81 80 82 83 4
83 82 84 85 4 85 84 86 87 4
87 86 88 89 4 89 88 90 91 4
91 90 37 36 4 38 92 93 39 4
92 94 95 93 4 94 96 97 95 4
96 98 99 97 4 98 100 101 99 4
100 102 103 101 4 102 104 105 103 4
104 106 107 105 4 106 108 109 107 4
108 110 111 109 4 110 112 113 111 4
112 114 115 113 4 114 116 117 115 4
116 118 119 117 4 118 120 121 119 4
120 122 123 121 4 122 124 125 123 4
124 126 127 125 4 126 128 129 127 4
128 130 131 129 4 130 132 133 131 4
132 134 135 133 4 134 136 137 135 4
136 138 139 137 4 138 140 141 139 4
140 142 143 141 4 142 144 145 143 4
144 146 147 145 4 146 148 149 147 4
148 150 151 149 4 150 152 153 151 4
152 154 155 153 4 154 156 157 155 4
156 158 159 157 4 158 160 161 159 4
160 162 163 161 4 162 164 165 163 4
164 166 167 165 4 166 168 169 167 4
168 170 171 169 4 170 172 173 171 4
172 174 175 173 4 174 176 177 175 4
176 178 179 177 4 178 180 181 179 4
180 182 183 181 4 182 184 185 183 4
184 186 187 185 4 186 188 189 187 4
188 190 191 189 4 190 192 193 191 4
192 194 195 193 4 194 196 197 195 4
196 198 199 197 4 198 200 201 199 4
200 202 203 201 4 202 204 205 203 4
204 206 207 205 4 206 208 209 207 4
208 210 211 209 4 210 212 213 211 4
212 214 215 213 4 214 216 217 215 4
216 218 219 217 4 218 220 221 219 4
220 222 223 221 4 222 224 225 223 4
224 226 227 225 4 226 228 229 227 4
228 230 231 229 4 230 232 233 231 4
232 234 235 233 4 234 236 237 235 4
236 238 239 237 4 238 240 241 239 4
240 242 243 241 4 242 244 245 243 4
244 246 247 245 4 246 248 249 247 4
248 250 251 249 4 250 252 253 251 4
252 254 255 253 4 254 256 257 255 4
256 258 259 257 4 258 260 261 259 4
260 262 263 261 4 262 264 265 263 4
264 266 267 265 4 266 268 269 267 4
268 270 271 269 4 270 272 273 271 4
272 274 275 273 4 274 276 277 275 4
276 278 279 277 4 278 280 281 279 4
280 282 283 281 4 282 284 285 283 4
284 286 287 285 4 286 288 289 287 4
288 290 291 289 4 290 292 293 291 4
292 294 295 293 4 294 296 297 295 4
296 298 299 297 4 298 300 301 299 4
300 302 303 301 4 302 304 305 303 4
304 306 307 305 4 306 308 309 307 4
308 310 311 309 4 310 312 313 311 4
312 314 315 313 4 314 316 317 315 4
316 318 319 317 4 318 320 321 319 4
320 322 323 321 4 322 324 325 323 4
324 326 327 325 4 326 328 329 327 4
328 330 331 329 4 330 332 333 331 4
332 334 335 333 4 334 336 337 335 4
336 338 339 337 4 338 340 341 339 4
340 342 343 341 4 342 344 345 343 4
344 346 347 345 4 346 348 349 347 4
348 350 351 349 4 350 352 353 351 4
352 354 355 353 4 354 356 357 355 4
356 358 359 357 4 358 360 361 359 4
360 362 363 361 4 362 364 365 363 4
364 366 367 365 4 366 368 369 367 4
368 370 371 369 4 370 372 373 371 4
372 374 375 373 4 374 376 377 375 4
376 378 379 377 4 378 380 381 379 4
380 382 383 381 4 382 384 385 383 4
384 386 387 385 4 386 388 389 387 4
388 390 391 389 4 390 392 393 391 4
392 394 395 393 4 394 396 397 395 4
396 398 399 397 4 398 400 401 399 4
400 402 403 401 4 402 404 405 403 4
404 406 407 405 4 406 408 409 407 4
408 410 411 409 4 410 412 413 411 4
412 414 415 413 4 414 416 417 415 4
416 418 419 417 4 418 420 421 419 4
420 422 423 421 4 422 424 425 423 4
424 426 427 425 4 426 428 429 427 4
428 430 431 429 4 430 432 433 431 4
432 434 435 433 4 434 436 437 435 4
436 438 439 437 4 438 440 441 439 4
440 442 443 441 4 442 444 445 443 4
444 446 447 445 4 446 448 449 447 4
448 450 451 449 4 450 452 453 451 4
452 454 455 453 4 454 456 457 455 4
456 458 459 457 4 458 460 461 459 4
460 462 463 461 4 462 464 465 463 4
464 466 467 465 4 466 468 469 467 4
468 470 471 469 4 470 472 473 471 4
472 474 475 473 4 474 476 477 475 4
476 478 479 477 4 478 480 481 479 4
480 482 483 481 4 482 484 485 483 4
484 486 487 485 4 486 488 489 487 4
488 490 491 489 4 490 492 493 491 4
492 494 495 493 4 494 496 497 495 4
496 498 499 497 4 498 500 501 499 
POINT_DATA 502
FIELD attributes 1
U 3 502 float
3.29197 0.0281178 0.0126248 1.65279 0.0140628 0.00622153 1.65279 0.0140628 0.00622153 3.29197 0.0281178
0.0126248 0.0592316 0.000338894 0 0.0592316 0.000338894 0 0.0572076 0.000272949 0
0.0572076 0.000272949 0 0.0551089 0.000276823 0 0.0551089 0.000276823 0 0.0535109
0.000273921 0 0.0535109 0.000273921 0 0.0523332 0.000294461 0 0.0523332 0.000294461
0 0.0509249 0.000374211 0 0.0509249 0.000374211 0 0.0488515 0.000451521 0
0.0488515 0.000451521 0 0.0463007 0.000447743 0 0.0463007 0.000447743 0 0.0437599
0.00037169 0 0.0437599 0.00037169 0 0.0415747 0.000297479 0 0.0415747 0.000297479
0 0.0397223 0.00028037 0 0.0397223 0.00028037 0 0.0380977 0.000312039 0
0.0380977 0.000312039 0 0.0364767 0.000369946 0 0.0364767 0.000369946 0 0.0348271
0.00041331 0 0.0348271 0.00041331 0 0.0330282 0.00051482 0 0.0330282 0.00051482
0 0.0311772 0.000601688 0 0.0311772 0.000601688 0 0.0132398 0.00055614 0
0.0132398 0.00055614 0 -0.0001517 0.000322394 7.31138e-23 -0.0001517 0.000322394 7.31138e-23 -0.000123893
0.00121476 -1.97696e-22 -0.000123893 0.00121476 -1.97696e-22 9.40853e-05 0.00202891 -2.34404e-22 9.40853e-05 0.00202891
-2.34404e-22 0.000217175 0.00111318 4.69128e-22 0.000217175 0.00111318 4.69128e-22 -4.91759e-05 0.000514893 1.56226e-22
-4.91759e-05 0.000514893 1.56226e-22 -0.000331364 0.000805242 -3.13053e-22 -0.000331364 0.000805242 -3.13053e-22 0.000116956
-0.000166408 0 0.000116956 -0.000166408 0 0.00083319 -0.00370648 -6.27365e-22 0.00083319 -0.00370648
-6.27365e-22 0.00069569 -0.00687773 -3.506e-25 0.00069569 -0.00687773 -3.506e-25 0.000407808 -0.00827656 6.27014e-22
0.000407808 -0.00827656 6.27014e-22 0.00038483 -0.00985102 -6.27634e-22 0.00038483 -0.00985102 -6.27634e-22 0.000198795
-0.0108358 -7.86448e-26 0.000198795 -0.0108358 -7.86448e-26 6.61749e-05 -0.0111434 6.27555e-22 6.61749e-05 -0.0111434
6.27555e-22 1.24161e-05 -0.0112422 6.34984e-22 1.24161e-05 -0.0112422 6.34984e-22 -8.22804e-05 -0.0109364 -1.91794e-25
-8.22804e-05 -0.0109364 -1.91794e-25 -0.000153394 -0.0102949 -6.46434e-22 -0.000153394 -0.0102949 -6.46434e-22 -0.00020063
-0.00937997 0 -0.00020063 -0.00937997 0 -0.000220395 -0.00839741 0 -0.000220395 -0.00839741
0 -0.000200422 -0.00752389 0 -0.000200422 -0.00752389 0 -0.000159702 -0.00689628 0
-0.000159702 -0.00689628 0 -0.000158307 -0.00650961 0 -0.000158307 -0.00650961 0 -0.000267692
-0.00609942 0 -0.000267692 -0.00609942 0 -0.000522518 -0.00527006 0 -0.000522518 -0.00527006
0 -0.000843078 -0.00387622 0 -0.000843078 -0.00387622 0 -0.000984521 -0.00226037 0
-0.000984521 -0.00226037 0 -0.000772016 -0.000589382 0 -0.000772016 -0.000589382 0 -0.000799231
0.000404573 0 -0.000799231 0.000404573 0 -0.000324186 0.00033624 3.38621e-25 -0.000324186 0.00033624
3.38621e-25 -0.000637556 0.000331922 -3.63114e-23 -0.000637556 0.000331922 -3.63114e-23 -0.000879745 0.000258121 0
-0.000879745 0.000258121 0 -0.0010055 0.000123339 0 -0.0010055 0.000123339 0 -0.000985557
-3.17633e-05 3.52068e-23 -0.000985557 -3.17633e-05 3.52068e-23 -0.000843439 -0.000177366 3.527e-23 -0.000843439 -0.000177366
3.527e-23 -0.000594111 -0.000301938 0 -0.000594111 -0.000301938 0 -0.000258035 -0.000396312 0
-0.000258035 -0.000396312 0 0.00014168 -0.000442548 0 0.00014168 -0.000442548 0 0.000569864
-0.000418066 -3.39747e-23 0.000569864 -0.000418066 -3.39747e-23 0.00098624 -0.000352639 -3.40395e-23 0.00098624 -0.000352639
-3.40395e-23 0.00137084 -0.00031357 0 0.00137084 -0.00031357 0 0.00169671 -0.000339815 0
0.00169671 -0.000339815 0 0.00194488 -0.000398031 0 0.00194488 -0.000398031 0 0.00212502
-0.000398038 -3.25291e-23 0.00212502 -0.000398038 -3.25291e-23 0.00226242 -0.000297644 -3.25948e-23 0.00226242 -0.000297644
-3.25948e-23 0.00237334 -0.000168105 0 0.00237334 -0.000168105 0 0.00248359 -0.000116918 0
0.00248359 -0.000116918 0 0.00264406 -0.000177313 0 0.00264406 -0.000177313 0 0.00290131
-0.000303968 0 0.00290131 -0.000303968 0 0.00327322 -0.000434785 0 0.00327322 -0.000434785
0 0.00374834 -0.00052635 0 0.00374834 -0.00052635 0 0.00428518 -0.000557371 -3.01076e-23
0.00428518 -0.000557371 -3.01076e-23 0.00482225 -0.000524037 -3.94377e-25 0.00482225 -0.000524037 -3.94377e-25 0.00529536
-0.000434595 3.86378e-25 0.00529536 -0.000434595 3.86378e-25 0.00565043 -0.000306381 -5.86862e-23 0.00565043 -0.000306381
-5.86862e-23 0.00585118 -0.000149176 -2.92263e-23 0.00585118 -0.000149176 -2.92263e-23 0.00586006 3.32591e-05 0
0.00586006 3.32591e-05 0 0.00566228 0.000207443 2.84382e-23 0.00566228 0.000207443 2.84382e-23 0.00531644
0.000315932 5.67586e-23 0.00531644 0.000315932 5.67586e-23 0.00487466 0.000352363 2.83207e-23 0.00487466 0.000352363
2.83207e-23 0.00429505 0.000473797 0 0.00429505 0.000473797 0 0.00364882 0.000757537 2.77672e-23
0.00364882 0.000757537 2.77672e-23 0.00320763 0.000796364 2.78356e-23 0.00320763 0.000796364 2.78356e-23 0.00305628
0.000149133 0 0.00305628 0.000149133 0 0.00303883 -0.000831381 -2.71651e-23 0.00303883 -0.000831381
-2.71651e-23 0.00302412 -0.00130077 -2.72341e-23 0.00302412 -0.00130077 -2.72341e-23 0.00280445 -0.000919862 -2.66705e-23
0.00280445 -0.000919862 -2.66705e-23 0.00197361 -9.02254e-05 -7.97964e-23 0.00197361 -9.02254e-05 -7.97964e-23 0.000456634
0.000854127 -5.31957e-23 0.000456634 0.000854127 -5.31957e-23 -0.00154041 0.00173584 0 -0.00154041 0.00173584
0 -0.00381743 0.00206729 0 -0.00381743 0.00206729 0 -0.00593631 0.00183593 0
-0.00593631 0.00183593 0 -0.00770742 0.00153516 0 -0.00770742 0.00153516 0 -0.00925589
0.00131872 -4.81657e-23 -0.00925589 0.00131872 -4.81657e-23 -0.0106248 0.00113646 -9.52998e-23 -0.0106248 0.00113646
-9.52998e-23 -0.0118357 0.000986893 -9.2985e-23 -0.0118357 0.000986893 -9.2985e-23 -0.0129141 0.000862092 -4.59831e-23
-0.0129141 0.000862092 -4.59831e-23 -0.0138719 0.000752488 4.3684e-23 -0.0138719 0.000752488 4.3684e-23 -0.0147171
0.000653537 4.38106e-23 -0.0147171 0.000653537 4.38106e-23 -0.0154531 0.000560214 -4.1766e-23 -0.0154531 0.000560214
-4.1766e-23 -0.0160803 0.000469387 -8.28156e-23 -0.0160803 0.000469387 -8.28156e-23 -0.016597 0.000379262 -4.10483e-23
-0.016597 0.000379262 -4.10483e-23 -0.0170007 0.000289235 0 -0.0170007 0.000289235 0 -0.017288
0.000199607 0 -0.017288 0.000199607 0 -0.0174547 0.000111186 -3.85305e-23 -0.0174547 0.000111186
-3.85305e-23 -0.0174956 2.44984e-05 -3.86498e-23 -0.0174956 2.44984e-05 -3.86498e-23 -0.0174133 -6.147e-05 0
-0.0174133 -6.147e-05 0 -0.0172061 -0.000148832 0 -0.0172061 -0.000148832 0 -0.0168667
-0.000239617 0 -0.0168667 -0.000239617 0 -0.0163884 -0.000335414 0 -0.0163884 -0.000335414
0 -0.0157608 -0.000437247 0 -0.0157608 -0.000437247 0 -0.0149728 -0.000545789 0
-0.0149728 -0.000545789 0 -0.0140122 -0.000660323 0 -0.0140122 -0.000660323 0 -0.0128703
-0.000777508 3.83673e-23 -0.0128703 -0.000777508 3.83673e-23 -0.0115478 -0.000889527 3.84962e-23 -0.0115478 -0.000889527
3.84962e-23 -0.0100662 -0.000981372 0 -0.0100662 -0.000981372 0 -0.0084839 -0.00102918 -3.84802e-23
-0.0084839 -0.00102918 -3.84802e-23 -0.00690646 -0.00100149 -7.69231e-23 -0.00690646 -0.00100149 -7.69231e-23 -0.0054704
-0.000871962 -3.84435e-23 -0.0054704 -0.000871962 -3.84435e-23 -0.00430732 -0.000643326 3.78913e-23 -0.00430732 -0.000643326
3.78913e-23 -0.00352735 -0.000355655 2.26467e-25 -0.00352735 -0.000355655 2.26467e-25 -0.00320556 -6.55775e-05 -3.79338e-23
-0.00320556 -6.55775e-05 -3.79338e-23 -0.00335386 0.000187215 3.79681e-23 -0.00335386 0.000187215 3.79681e-23 -0.00395203
0.000393314 3.81059e-23 -0.00395203 0.000393314 3.81059e-23 -0.00492923 0.000559461 0 -0.00492923 0.000559461
0 -0.00612347 0.000678092 -3.8374e-23 -0.00612347 0.000678092 -3.8374e-23 -0.00733995 0.000688319 -3.85167e-23
-0.00733995 0.000688319 -3.85167e-23 -0.00828713 0.00049727 3.834e-23 -0.00828713 0.00049727 3.834e-23 -0.00860915
0.000103009 3.84849e-23 -0.00860915 0.000103009 3.84849e-23 -0.00821129 -0.000325517 -3.83562e-23 -0.00821129 -0.000325517
-3.83562e-23 -0.00736105 -0.000577322 -7.68834e-23 -0.00736105 -0.000577322 -7.68834e-23 -0.00636984 -0.000606466 -7.69023e-23
-0.00636984 -0.000606466 -7.69023e-23 -0.00542234 -0.000516239 -1.15173e-22 -0.00542234 -0.000516239 -1.15173e-22 -0.00460149
-0.000438292 -4.88293e-25 -0.00460149 -0.000438292 -4.88293e-25 -0.00383558 -0.000406414 7.67647e-23 -0.00383558 -0.000406414
7.67647e-23 -0.00316175 -0.000350201 0 -0.00316175 -0.000350201 0 -0.00262301 -0.00026847 0
-0.00262301 -0.00026847 0 -0.00219942 -0.000186396 7.51504e-23 -0.00219942 -0.000186396 7.51504e-23 -0.00192879
-0.00011831 1.50202e-22 -0.00192879 -0.00011831 1.50202e-22 -0.0017588 -8.78732e-05 7.2662e-25 -0.0017588 -8.78732e-05
7.2662e-25 -0.00163407 -7.86735e-05 -7.46329e-23 -0.00163407 -7.86735e-05 -7.46329e-23 -0.0015149 -7.4078e-05 7.34746e-23
-0.0015149 -7.4078e-05 7.34746e-23 -0.00136152 -7.70111e-05 1.46839e-22 -0.00136152 -7.70111e-05 1.46839e-22 -0.00116061
-8.71426e-05 1.46012e-22 -0.00116061 -8.71426e-05 1.46012e-22 -0.000883704 -0.000107063 7.29561e-23 -0.000883704 -0.000107063
7.29561e-23 -0.0005436 -0.000133504 0 -0.0005436 -0.000133504 0 -0.000186454 -0.000133914 0
-0.000186454 -0.000133914 0 0.000136453 -0.0001276 7.10308e-23 0.000136453 -0.0001276 7.10308e-23 0.000503691
-0.0001746 7.13418e-23 0.000503691 -0.0001746 7.13418e-23 0.00113838 -0.000279785 0 0.00113838 -0.000279785
0 0.00187705 -0.000326975 -6.97631e-23 0.00187705 -0.000326975 -6.97631e-23 0.00250555 -0.000236816 -7.00747e-23
0.00250555 -0.000236816 -7.00747e-23 0.00315802 -0.000115837 0 0.00315802 -0.000115837 0 0.0032586
0.00016187 -6.80719e-23 0.0032586 0.00016187 -6.80719e-23 0.00265656 0.000521772 -6.83819e-23 0.00265656 0.000521772
-6.83819e-23 0.00242685 3.11675e-05 0 0.00242685 3.11675e-05 0 0.00301611 -0.00115459 6.60052e-23
0.00301611 -0.00115459 6.60052e-23 0.00313836 -0.000737427 1.31619e-22 0.00313836 -0.000737427 1.31619e-22 -0.000152034
0.00141255 6.56122e-23 -0.000152034 0.00141255 6.56122e-23 -0.00587186 0.00247589 -6.12804e-23 -0.00587186 0.00247589
-6.12804e-23 -0.0107156 0.00208887 -6.15702e-23 -0.0107156 0.00208887 -6.15702e-23 -0.0143891 0.00156668 5.36481e-23
-0.0143891 0.00156668 5.36481e-23 -0.0171687 0.00113316 5.39049e-23 -0.0171687 0.00113316 5.39049e-23 -0.0191813
0.000784648 4.71649e-23 -0.0191813 0.000784648 4.71649e-23 -0.0205686 0.000502879 9.22204e-23 -0.0205686 0.000502879
9.22204e-23 -0.0214001 0.000266776 4.50454e-23 -0.0214001 0.000266776 4.50454e-23 -0.0217278 6.34143e-05 0
-0.0217278 6.34143e-05 0 -0.0216036 -0.000112213 0 -0.0216036 -0.000112213 0 -0.0210858
-0.000261832 0 -0.0210858 -0.000261832 0 -0.0202219 -0.000386878 0 -0.0202219 -0.000386878
0 -0.0190628 -0.00048502 0 -0.0190628 -0.00048502 0 -0.0176799 -0.000552996 0
-0.0176799 -0.000552996 0 -0.01615 -0.000590575 4.57643e-23 -0.01615 -0.000590575 4.57643e-23 -0.0145481
-0.000600446 -7.4002e-25 -0.0145481 -0.000600446 -7.4002e-25 -0.0129343 -0.000589442 -4.69766e-23 -0.0129343 -0.000589442
-4.69766e-23 -0.0113482 -0.00056531 0 -0.0113482 -0.00056531 0 -0.00981382 -0.000534857 0
-0.00981382 -0.000534857 0 -0.00834132 -0.00050369 0 -0.00834132 -0.00050369 0 -0.00692778
-0.000475979 -9.8291e-23 -0.00692778 -0.000475979 -9.8291e-23 -0.00556098 -0.000453381 -9.88073e-23 -0.00556098 -0.000453381
-9.88073e-23 -0.00422479 -0.000435142 9.83592e-23 -0.00422479 -0.000435142 9.83592e-23 -0.00290393 -0.000418878 7.47828e-25
-0.00290393 -0.000418878 7.47828e-25 -0.00159234 -0.000400375 -9.86565e-23 -0.00159234 -0.000400375 -9.86565e-23 -0.000306926
-0.000380172 0 -0.000306926 -0.000380172 0 0.000907777 -0.000346977 0 0.000907777 -0.000346977
0 0.00200156 -0.00029457 9.53193e-23 0.00200156 -0.00029457 9.53193e-23 0.00293552 -0.000235948 1.90083e-22
0.00293552 -0.000235948 1.90083e-22 0.00369625 -0.000180876 9.47604e-23 0.00369625 -0.000180876 9.47604e-23 0.00430307
-0.000137573 9.19759e-23 0.00430307 -0.000137573 9.19759e-23 0.00479392 -0.0001111 1.83308e-22 0.00479392 -0.0001111
1.83308e-22 0.00521609 -0.000101859 1.6522e-24 0.00521609 -0.000101859 1.6522e-24 0.00561912 -0.000106525 -9.01743e-23
0.00561912 -0.000106525 -9.01743e-23 0.00604364 -0.000120685 0 0.00604364 -0.000120685 0 0.00651683
-0.000140408 -8.61916e-23 0.00651683 -0.000140408 -8.61916e-23 0.00705564 -0.000162673 -8.6677e-23 0.00705564 -0.000162673
-8.6677e-23 0.00766954 -0.000185073 0 0.00766954 -0.000185073 0 0.00836032 -0.000205198 0
0.00836032 -0.000205198 0 0.00912129 -0.000220865 0 0.00912129 -0.000220865 0 0.0099385
-0.000230658 7.97565e-23 0.0099385 -0.000230658 7.97565e-23 0.0107931 -0.000234158 1.58503e-22 0.0107931 -0.000234158
1.58503e-22 0.0116643 -0.000231423 7.87395e-23 0.0116643 -0.000231423 7.87395e-23 0.0125311 -0.000221147 7.51946e-23
0.0125311 -0.000221147 7.51946e-23 0.013371 -0.000205073 7.56321e-23 0.013371 -0.000205073 7.56321e-23 0.0141666
-0.000185861 0 0.0141666 -0.000185861 0 0.0148944 -0.000152154 7.05236e-23 0.0148944 -0.000152154
7.05236e-23 0.0155058 -0.000104417 7.09387e-23 0.0155058 -0.000104417 7.09387e-23 0.0159898 -5.79319e-05 6.77676e-23
0.0159898 -5.79319e-05 6.77676e-23 0.0163143 8.97272e-07 6.81694e-23 0.0163143 8.97272e-07 6.81694e-23 0.0163779
9.02038e-05 0 0.0163779 9.02038e-05 0 0.0161221 0.000286897 6.48366e-23 0.0161221 0.000286897
6.48366e-23 0.0152645 0.000560296 6.52253e-23 0.0152645 0.000560296 6.52253e-23 0.0136948 0.000620973 6.35621e-23