/*--------------------------------*- C++ -*----------------------------------*\
  =========                 |
  \\      /  F ield         | OpenFOAM: The Open Source CFD Toolbox
   \\    /   O peration     | Website:  https://openfoam.org
    \\  /    A nd           | Version:  9
     \\/     M anipulation  |
\*---------------------------------------------------------------------------*/
FoamFile
{
    format      ascii;
    class       volScalarField;
    location    "0.02";
    object      p;
}
// * * * * * * * * * * * * * * * * * * * * * * * * * * * * * * * * * * * * * //

dimensions      [0 2 -2 0 0 0 0];

internalField   nonuniform List<scalar> 
12225
(
-1.52673
-2.46323
-2.86501
-2.92029
-2.93887
-2.9662
-2.96482
-2.91786
-2.82703
-2.69426
-2.51709
-2.29131
-2.01346
-1.68176
-1.29679
-0.864086
-0.394472
0.0740761
-2.11808
-2.7072
-2.97556
-2.9953
-2.99067
-3.00024
-2.98836
-2.93578
-2.84221
-2.70898
-2.53348
-2.31142
-2.03931
-1.71531
-1.33979
-0.918156
-0.459974
-0.00779149
-2.2846
-2.61387
-2.87144
-2.94603
-2.96652
-2.98577
-2.98287
-2.93983
-2.8558
-2.73309
-2.57053
-2.36522
-2.11511
-1.82004
-1.48231
-1.10928
-0.71381
-0.339236
-2.407
-2.64163
-2.90424
-3.0049
-3.02423
-3.03308
-3.02453
-2.98047
-2.89815
-2.78005
-2.62606
-2.43443
-2.20447
-1.93782
-1.63921
-1.31827
-0.992297
-0.690497
-2.52643
-2.70621
-2.93419
-3.03226
-3.04802
-3.05134
-3.04212
-3.00192
-2.92594
-2.8165
-2.67445
-2.49912
-2.29099
-2.05305
-1.79167
-1.51762
-1.2487
-1.0064
-2.64036
-2.77472
-2.96059
-3.05666
-3.07913
-3.08403
-3.07652
-3.04103
-2.97214
-2.87213
-2.74281
-2.58466
-2.39923
-2.19056
-1.96599
-1.73659
-1.51897
-1.33285
-2.74779
-2.84689
-2.99711
-3.09059
-3.11979
-3.12548
-3.1178
-3.08591
-3.02426
-2.93462
-2.81941
-2.68011
-2.51911
-2.34122
-2.15418
-1.96888
-1.80024
-1.66506
-2.85016
-2.92356
-3.04423
-3.1313
-3.16449
-3.17138
-3.16465
-3.13769
-3.08507
-3.0078
-2.90865
-2.78998
-2.65491
-2.50869
-2.35913
-2.21647
-2.09362
-2.00385
-2.94907
-3.00392
-3.10012
-3.17845
-3.21423
-3.22396
-3.22001
-3.19912
-3.15655
-3.09285
-3.01098
-2.91401
-2.80565
-2.69134
-2.57861
-2.47671
-2.39658
-2.34864
-3.04581
-3.08725
-3.16378
-3.23297
-3.27043
-3.28402
-3.28415
-3.27011
-3.23839
-3.18934
-3.12593
-3.05169
-2.97066
-2.88824
-2.8114
-2.74833
-2.70811
-2.69899
-3.14144
-3.17323
-3.23448
-3.29526
-3.33368
-3.35169
-3.35714
-3.35099
-3.3311
-3.29779
-3.25389
-3.20312
-3.14965
-3.09865
-3.05644
-3.03003
-3.02692
-3.05355
-3.22894
-3.25452
-3.30527
-3.35949
-3.3985
-3.42098
-3.43243
-3.43456
-3.42634
-3.40821
-3.38284
-3.35389
-3.32551
-3.30255
-3.29062
-3.29573
-3.32408
-3.38075
-3.31596
-3.3371
-3.37999
-3.429
-3.46872
-3.49596
-3.51418
-3.52534
-3.52929
-3.52669
-3.52
-3.51272
-3.50884
-3.51279
-3.52947
-3.56395
-3.62128
-3.70542
-3.41603
-3.43371
-3.47047
-3.5155
-3.55661
-3.58974
-3.61662
-3.63906
-3.6576
-3.67313
-3.68789
-3.70508
-3.72833
-3.76152
-3.80875
-3.87406
-3.9614
-4.07363
-3.5306
-3.54594
-3.57878
-3.6218
-3.66563
-3.70612
-3.74374
-3.77996
-3.81565
-3.85189
-3.89065
-3.93466
-3.98703
-4.05097
-4.12968
-4.22621
-4.34342
-4.48318
-3.66069
-3.67498
-3.70642
-3.75006
-3.79865
-3.84839
-3.89902
-3.95154
-4.00687
-4.06607
-4.13076
-4.20311
-4.28556
-4.38051
-4.49031
-4.61699
-4.76245
-4.92768
-3.80609
-3.82065
-3.85341
-3.90079
-3.95685
-4.01816
-4.08411
-4.15522
-4.23221
-4.31588
-4.40743
-4.50837
-4.62035
-4.74498
-4.8837
-5.03768
-5.20796
-5.39477
-3.96337
-3.97958
-4.01647
-4.07098
-4.13759
-4.21298
-4.29627
-4.38761
-4.4873
-4.59576
-4.71359
-4.84163
-4.98078
-5.13183
-5.29545
-5.47203
-5.6619
-5.86474
-4.12203
-4.14167
-4.18593
-4.2514
-4.33197
-4.42392
-4.52617
-4.63854
-4.76085
-4.89292
-5.03476
-5.18651
-5.34842
-5.5206
-5.70307
-5.89565
-6.09816
-6.30991
-4.22704
-4.25099
-4.30436
-4.38228
-4.47681
-4.58348
-4.7012
-4.82984
-4.96887
-5.11759
-5.27553
-5.44242
-5.61805
-5.80213
-5.99426
-6.19394
-6.4007
-6.61364
-4.27775
-4.306
-4.36873
-4.45868
-4.56524
-4.68325
-4.81223
-4.9523
-5.10259
-5.262
-5.42988
-5.60587
-5.78956
-5.98043
-6.1779
-6.38131
-6.59012
-6.80351
-4.29284
-4.32669
-4.40119
-4.50467
-4.62253
-4.74989
-4.88809
-5.03762
-5.19687
-5.36422
-5.53897
-5.72076
-5.90911
-6.10329
-6.30263
-6.50646
-6.71413
-6.92458
-4.27938
-4.32105
-4.41101
-4.52991
-4.65805
-4.79257
-4.93789
-5.09493
-5.26128
-5.43506
-5.61565
-5.80278
-5.99601
-6.19386
-6.39559
-6.60069
-6.80874
-7.0191
-4.24263
-4.29596
-4.40622
-4.54142
-4.67834
-4.81944
-4.97164
-5.13449
-5.30488
-5.48142
-5.66402
-5.85233
-6.04727
-6.24597
-6.44783
-6.65227
-6.85864
-7.06576
-4.18608
-4.25772
-4.39568
-4.54454
-4.68444
-4.83095
-4.9926
-5.16463
-5.34205
-5.52424
-5.71195
-5.90498
-6.10064
-6.30025
-6.50293
-6.7078
-6.91422
-7.12166
-4.11162
-4.20958
-4.38857
-4.55094
-4.68569
-4.82864
-4.99133
-5.16523
-5.34416
-5.528
-5.7175
-5.9119
-6.10959
-6.31053
-6.51394
-6.71893
-6.92461
-7.12987
-4.02321
-4.14994
-4.37501
-4.561
-4.70694
-4.85924
-5.02817
-5.20453
-5.38416
-5.56835
-5.75798
-5.95219
-6.14971
-6.34986
-6.55198
-6.7554
-6.95971
-7.16517
-3.93031
-4.10434
-4.32625
-4.49087
-4.63826
-4.80525
-4.98659
-5.17101
-5.3571
-5.54724
-5.74208
-5.94062
-6.14168
-6.34453
-6.54852
-6.75308
-6.95794
-7.1643
-3.81548
-4.22022
-4.47337
-4.58328
-4.69951
-4.85684
-5.03163
-5.20932
-5.39023
-5.57694
-5.76935
-5.96593
-6.16532
-6.36656
-6.56881
-6.7711
-6.97294
-7.17379
-3.23812
-3.9592
-4.35746
-4.5057
-4.64369
-4.8204
-5.00856
-5.19475
-5.38177
-5.57331
-5.7695
-5.96895
-6.17047
-6.37318
-6.57624
-6.77851
-6.97915
-7.17545
-16.5998
-16.4663
-15.9998
-15.6369
-15.763
-16.5419
-17.836
-19.4079
-21.0557
-22.6179
-23.9417
-24.8939
-25.3671
-25.4065
-25.1076
-24.5696
-23.8805
-23.1419
-22.4632
-21.9313
-21.5832
-21.3959
-21.3011
-21.2116
-21.0643
-20.8315
-20.4525
-20.0592
-19.8207
-19.7935
-19.9413
-20.0691
-20.0731
-19.9423
-19.6804
-19.4371
-19.4865
-20.0222
-21.1363
-22.8106
-24.9365
-27.3507
-29.8709
-32.3238
-34.5637
-36.4807
-38.0044
-39.1041
-39.7785
-40.0231
-39.8148
-39.1587
-38.1283
-36.801
-35.2426
-33.5084
-31.6458
-29.6947
-27.687
-25.6463
-23.5877
-21.5176
-19.4338
-17.3268
-15.1809
-12.9763
-10.693
-8.31408
-5.83062
-3.24583
-0.57837
2.13662
4.84946
7.50093
10.0293
12.378
14.5021
16.3714
17.9721
19.3059
20.3874
21.242
21.8931
22.3696
22.6921
22.8888
22.9843
22.9977
22.9455
22.8418
22.6973
22.5255
22.3354
22.1324
21.9217
21.7078
21.4938
21.2823
21.0751
20.8736
20.679
20.4919
20.3129
20.1422
19.98
19.8263
19.681
19.5439
19.4149
19.2938
19.1803
19.0747
18.9768
18.8831
18.7924
18.7057
18.6234
18.5456
18.4722
18.4035
18.3393
18.2792
18.2232
18.1712
18.123
18.0782
18.0366
17.9981
17.9623
17.9291
17.8983
17.8697
17.8432
17.8185
17.7957
17.7745
17.7548
17.7365
17.7195
17.7037
17.689
17.6752
17.6624
17.6502
17.6389
17.6281
17.618
17.6084
17.5993
17.5906
17.5824
17.5746
17.5672
17.5601
17.5534
17.547
17.541
17.5354
17.5302
17.5255
17.5213
17.5176
17.5147
17.5127
17.5118
17.5121
17.5142
17.5183
17.5251
17.5354
17.55
17.5703
17.5979
17.6352
17.6852
17.7515
17.8395
17.9491
18.1117
18.265
-17.2035
-17.1537
-16.9848
-17.0679
-17.6465
-18.6992
-20.0902
-21.669
-23.2955
-24.839
-26.1848
-27.2461
-27.9814
-28.2895
-28.1004
-27.4316
-26.3985
-25.1687
-23.9284
-22.85
-22.0501
-21.5522
-21.2821
-21.109
-20.9171
-20.6556
-20.3348
-20.173
-20.3544
-20.4447
-20.3215
-20.177
-20.2286
-20.3358
-20.2706
-20.2161
-20.5716
-21.5603
-23.2291
-25.4734
-28.0962
-30.8678
-33.5729
-36.0374
-38.1361
-39.7891
-40.9553
-41.622
-41.8005
-41.5367
-40.9082
-39.9811
-38.7769
-37.3261
-35.6711
-33.8586
-31.9328
-29.9324
-27.8895
-25.8279
-23.7629
-21.7005
-19.6378
-17.5633
-15.4586
-13.3004
-11.064
-8.72774
-6.27762
-3.71277
-1.04926
1.67818
4.41791
7.10683
9.6784
12.0715
14.2374
16.1441
17.7771
19.1385
20.244
21.1189
21.7711
22.2632
22.5972
22.8038
22.9053
22.9219
22.8712
22.77
22.6337
22.4702
22.2861
22.0882
21.8821
21.6722
21.4617
21.2533
21.0488
20.8498
20.6574
20.4723
20.2951
20.126
19.9652
19.8128
19.6686
19.5325
19.4043
19.2838
19.1706
19.0638
18.9621
18.8661
18.7759
18.691
18.6109
18.5355
18.4643
18.3974
18.3352
18.2766
18.2217
18.1705
18.1228
18.0784
18.0371
17.9987
17.9631
17.93
17.8993
17.8707
17.8442
17.8196
17.7967
17.7755
17.7558
17.7375
17.7204
17.7046
17.6897
17.6759
17.663
17.6508
17.6393
17.6285
17.6183
17.6087
17.5995
17.5909
17.5826
17.5747
17.5673
17.5602
17.5534
17.547
17.541
17.5353
17.53
17.5252
17.5209
17.5172
17.5142
17.512
17.5108
17.5109
17.5127
17.5164
17.5227
17.5322
17.5458
17.5648
17.5907
17.6255
17.672
17.7333
17.8149
17.9203
18.067
18.1974
-17.874
-17.9222
-18.3579
-19.2156
-20.3442
-21.699
-23.2531
-24.9289
-26.6156
-28.1921
-29.5418
-30.5667
-31.1983
-31.4046
-31.1787
-30.5493
-29.5724
-28.3094
-26.8308
-25.2316
-23.6355
-22.1753
-20.9512
-19.9998
-19.3196
-18.924
-18.9597
-19.1445
-19.4273
-19.9532
-20.3819
-20.6772
-21.1962
-22.0131
-23.077
-24.3902
-25.9849
-27.8489
-29.9177
-32.0953
-34.2802
-36.3821
-38.3256
-40.048
-41.4955
-42.6229
-43.3926
-43.7721
-43.7395
-43.3116
-42.5052
-41.3715
-39.9596
-38.3173
-36.4927
-34.5336
-32.4847
-30.3862
-28.2712
-26.1651
-24.084
-22.034
-20.0108
-17.9999
-15.9776
-13.9132
-11.773
-9.52483
-7.14424
-4.62128
-1.96609
0.787849
3.58483
6.35322
9.0157
11.5007
13.7515
15.7317
17.4253
18.8349
19.977
20.8779
21.5652
22.0713
22.4205
22.6401
22.7543
22.7831
22.7448
22.6553
22.5279
22.3718
22.1949
22.004
21.8046
21.6008
21.396
21.1928
20.9932
20.7986
20.6103
20.4289
20.2551
20.0891
19.9312
19.7814
19.6396
19.5057
19.3795
19.2606
19.1487
19.0434
18.9443
18.8514
18.7639
18.6811
18.6026
18.5285
18.4585
18.3925
18.33
18.2718
18.2174
18.1667
18.1195
18.0755
18.0346
17.9966
17.9613
17.9285
17.898
17.8697
17.8434
17.8189
17.7962
17.7751
17.7555
17.7372
17.7202
17.7044
17.6896
17.6758
17.6629
17.6507
17.6393
17.6285
17.6183
17.6086
17.5995
17.5908
17.5825
17.5746
17.5672
17.56
17.5532
17.5468
17.5407
17.535
17.5296
17.5247
17.5203
17.5164
17.5132
17.5108
17.5094
17.5091
17.5103
17.5134
17.5189
17.5273
17.5395
17.5564
17.5795
17.6103
17.651
17.7039
17.7727
17.8584
17.9682
18.0665
-19.1075
-19.4795
-20.5573
-21.9169
-23.3932
-25.0346
-26.8408
-28.7314
-30.5852
-32.2674
-33.6508
-34.6358
-35.1634
-35.2285
-34.8274
-34.0014
-32.8146
-31.3248
-29.5726
-27.589
-25.4293
-23.2177
-21.1676
-19.5245
-18.4519
-17.8726
-17.8514
-18.4578
-19.2091
-20.1734
-21.3909
-22.8053
-24.427
-26.2316
-28.1526
-30.1212
-32.0946
-34.052
-35.9826
-37.8749
-39.7068
-41.4409
-43.026
-44.4024
-45.5099
-46.2951
-46.7172
-46.7527
-46.3963
-45.6524
-44.5597
-43.1556
-41.4864
-39.6032
-37.5588
-35.4048
-33.1898
-30.9569
-28.7426
-26.5748
-24.4721
-22.4419
-20.4795
-18.5674
-16.6752
-14.762
-12.7802
-10.6813
-8.42365
-5.98124
-3.35271
-0.567676
2.31274
5.20328
8.0084
10.6386
13.0235
15.1187
16.9058
18.388
19.5859
20.5316
21.2576
21.7913
22.1638
22.4038
22.5362
22.5824
22.5604
22.4859
22.3717
22.2282
22.0633
21.8836
21.6943
21.4999
21.3036
21.1082
20.9157
20.7276
20.5451
20.3691
20.2002
20.0387
19.8848
19.7387
19.6004
19.4695
19.3461
19.2298
19.1203
19.0172
18.9201
18.8286
18.7421
18.6605
18.5834
18.5107
18.4423
18.3779
18.3174
18.2609
18.2081
18.1588
18.1127
18.0697
18.0297
17.9924
17.9577
17.9255
17.8954
17.8675
17.8415
17.8174
17.7949
17.774
17.7545
17.7364
17.7196
17.7038
17.6891
17.6754
17.6625
17.6504
17.639
17.6282
17.618
17.6084
17.5993
17.5906
17.5823
17.5744
17.5669
17.5598
17.553
17.5465
17.5404
17.5346
17.5291
17.5241
17.5196
17.5155
17.5121
17.5095
17.5077
17.507
17.5077
17.5101
17.5146
17.5218
17.5324
17.5472
17.5672
17.5939
17.6287
17.6731
17.7291
17.7956
17.8725
17.9325
-21.1215
-21.8483
-23.1256
-24.594
-26.2604
-28.1494
-30.2013
-32.2971
-34.2899
-36.029
-37.386
-38.2742
-38.6611
-38.581
-38.0116
-36.9973
-35.6008
-33.8917
-31.9253
-29.7239
-27.3252
-24.8671
-22.6007
-20.6866
-19.304
-18.7627
-18.9865
-19.8595
-21.186
-22.8697
-24.8223
-26.9245
-29.0824
-31.2265
-33.3149
-35.3358
-37.2964
-39.2076
-41.073
-42.8813
-44.6033
-46.1942
-47.5988
-48.7582
-49.6153
-50.1198
-50.2375
-49.9583
-49.2747
-48.2189
-46.818
-45.1122
-43.1517
-40.9927
-38.6935
-36.3114
-33.8998
-31.507
-29.1736
-26.9319
-24.8043
-22.8012
-20.9191
-19.1388
-17.4241
-15.7229
-13.9714
-12.0996
-10.0409
-7.74384
-5.18646
-2.38783
0.586879
3.63401
6.63096
9.46051
12.0308
14.2847
16.1997
17.782
19.0598
20.0693
20.8435
21.4158
21.8208
22.0892
22.2471
22.3169
22.317
22.263
22.1676
22.0413
21.8922
21.7269
21.5509
21.3686
21.1834
20.9981
20.8147
20.635
20.4601
20.291
20.1283
19.9726
19.824
19.6827
19.5487
19.4219
19.3022
19.1892
19.0828
18.9825
18.888
18.799
18.7151
18.6361
18.5616
18.4913
18.4251
18.3628
18.3042
18.2493
18.1978
18.1497
18.1046
18.0626
18.0234
17.9869
17.9528
17.9211
17.8916
17.8642
17.8386
17.8148
17.7927
17.772
17.7528
17.735
17.7183
17.7027
17.6881
17.6745
17.6617
17.6496
17.6383
17.6276
17.6175
17.6079
17.5988
17.5902
17.5819
17.5741
17.5666
17.5594
17.5526
17.5461
17.5399
17.534
17.5285
17.5234
17.5187
17.5145
17.5108
17.5079
17.5057
17.5046
17.5046
17.5062
17.5097
17.5156
17.5244
17.5368
17.5536
17.5759
17.6045
17.6403
17.6837
17.7322
17.7813
17.8072
-23.0259
-23.8698
-25.0216
-26.4532
-28.2045
-30.2237
-32.3974
-34.5732
-36.5855
-38.2813
-39.5418
-40.3142
-40.6128
-40.4493
-39.8244
-38.7743
-37.3574
-35.6498
-33.7206
-31.6109
-29.3665
-27.0831
-24.9443
-23.2736
-22.3512
-22.1856
-22.6793
-23.7916
-25.3999
-27.3276
-29.4292
-31.595
-33.7572
-35.8784
-37.9474
-39.9699
-41.9549
-43.9036
-45.8038
-47.6283
-49.3365
-50.8774
-52.1941
-53.2278
-53.9225
-54.2297
-54.1137
-53.559
-52.5886
-51.2077
-49.4586
-47.3963
-45.0843
-42.5894
-39.9783
-37.3142
-34.6552
-32.0531
-29.5533
-27.1942
-25.0055
-23.0044
-21.1922
-19.5503
-18.0381
-16.5934
-15.1354
-13.5709
-11.8026
-9.74356
-7.3372
-4.57877
-1.53002
1.68511
4.90799
7.98179
10.7825
13.2342
15.3096
17.02
18.4003
19.4888
20.323
20.9446
21.3914
21.6962
21.887
21.9868
22.0146
21.9862
21.9144
21.8097
21.6805
21.5334
21.3741
21.2071
21.0357
20.863
20.6911
20.5218
20.3564
20.1959
20.0411
19.8924
19.7503
19.615
19.4864
19.3645
19.2493
19.1405
19.0379
18.9411
18.85
18.7641
18.6831
18.6068
18.5348
18.4669
18.403
18.3428
18.2862
18.2331
18.1833
18.1367
18.0931
18.0524
18.0144
17.9789
17.9458
17.9149
17.8862
17.8594
17.8344
17.8111
17.7894
17.7692
17.7504
17.7328
17.7163
17.701
17.6866
17.6732
17.6605
17.6486
17.6374
17.6268
17.6167
17.6072
17.5982
17.5896
17.5814
17.5735
17.5661
17.5589
17.5521
17.5455
17.5393
17.5334
17.5278
17.5225
17.5177
17.5132
17.5093
17.506
17.5035
17.5018
17.5012
17.5019
17.5043
17.5086
17.5155
17.5253
17.5388
17.5564
17.5787
17.6059
17.6371
17.669
17.6945
17.6934
-23.6862
-24.402
-25.3904
-26.7577
-28.495
-30.5172
-32.691
-34.8503
-36.8253
-38.496
-39.7123
-40.4627
-40.7853
-40.6829
-40.166
-39.2693
-38.0496
-36.5824
-34.9319
-33.1426
-31.2677
-29.4352
-27.8873
-26.8449
-26.3526
-26.4377
-27.1265
-28.3356
-29.9269
-31.7626
-33.7383
-35.783
-37.8592
-39.9516
-42.0566
-44.1732
-46.2956
-48.4083
-50.4833
-52.4788
-54.3403
-56.0032
-57.3966
-58.4491
-59.0944
-59.2766
-58.9591
-58.1348
-56.8171
-55.0395
-52.8617
-50.3561
-47.6026
-44.6822
-41.6727
-38.6456
-35.6652
-32.7872
-30.0592
-27.521
-25.2046
-23.1335
-21.319
-19.753
-18.4006
-17.1958
-16.0446
-14.8318
-13.4292
-11.7073
-9.55929
-6.93563
-3.87687
-0.521158
2.9297
6.26718
9.32428
11.9998
14.2608
16.1227
17.6214
18.7983
19.7033
20.3834
20.8802
21.229
21.4594
21.5952
21.6562
21.6584
21.6148
21.5358
21.4302
21.3048
21.1654
21.0163
20.8615
20.7037
20.5454
20.3884
20.2342
20.0839
19.9383
19.7981
19.6637
19.5353
19.4131
19.297
19.1871
19.0832
18.9851
18.8925
18.8052
18.7229
18.6454
18.5722
18.5033
18.4383
18.3771
18.3195
18.2653
18.2144
18.1666
18.1219
18.0799
18.0406
18.0039
17.9696
17.9376
17.9076
17.8797
17.8536
17.8293
17.8066
17.7855
17.7657
17.7473
17.73
17.7139
17.6989
17.6847
17.6715
17.659
17.6473
17.6362
17.6257
17.6158
17.6064
17.5974
17.5888
17.5807
17.5729
17.5654
17.5583
17.5514
17.5449
17.5386
17.5326
17.5269
17.5215
17.5165
17.5119
17.5077
17.504
17.501
17.4987
17.4974
17.4972
17.4983
17.5011
17.5059
17.5131
17.523
17.5359
17.5519
17.5706
17.5904
17.6071
17.6131
17.5912
-22.4808
-23.0185
-23.9188
-25.2325
-26.9292
-28.9245
-31.0888
-33.2602
-35.2683
-36.9649
-38.2447
-39.0801
-39.5066
-39.5354
-39.2059
-38.5629
-37.6597
-36.5512
-35.283
-33.9104
-32.5284
-31.2739
-30.2817
-29.6571
-29.4953
-29.8592
-30.7187
-31.9736
-33.5215
-35.2749
-37.1734
-39.1809
-41.2817
-43.4707
-45.7454
-48.0983
-50.512
-52.9551
-55.3797
-57.7204
-59.8969
-61.8193
-63.3949
-64.5344
-65.1597
-65.2119
-64.6615
-63.5188
-61.8082
-59.5849
-56.9285
-53.9326
-50.6958
-47.3134
-43.8719
-40.447
-37.1039
-33.8985
-30.88
-28.0923
-25.5746
-23.3589
-21.4637
-19.8865
-18.5985
-17.5409
-16.6225
-15.7202
-14.6866
-13.3543
-11.5574
-9.17961
-6.21163
-2.78517
0.853381
4.43457
7.74314
10.6476
13.1058
15.1255
16.7444
18.0166
18.9989
19.7438
20.2968
20.6955
20.9709
21.1479
21.2467
21.2837
21.2721
21.2226
21.1439
21.0433
20.9264
20.798
20.662
20.5214
20.3787
20.2359
20.0946
19.956
19.8211
19.6906
19.5649
19.4446
19.3296
19.2203
19.1165
19.0182
18.9252
18.8374
18.7545
18.6763
18.6026
18.5331
18.4676
18.4058
18.3476
18.2927
18.2411
18.1926
18.147
18.1042
18.0641
18.0265
17.9913
17.9583
17.9275
17.8987
17.8717
17.8465
17.823
17.801
17.7805
17.7613
17.7434
17.7266
17.7109
17.6961
17.6823
17.6693
17.6571
17.6456
17.6347
17.6243
17.6146
17.6052
17.5964
17.5879
17.5798
17.5721
17.5647
17.5575
17.5507
17.5441
17.5378
17.5317
17.5259
17.5204
17.5152
17.5103
17.5058
17.5018
17.4983
17.4954
17.4933
17.4921
17.492
17.4931
17.4958
17.5002
17.5065
17.5147
17.5246
17.5351
17.5443
17.5476
17.5374
17.4992
-19.4174
-19.8557
-20.6859
-21.918
-23.5269
-25.4421
-27.5507
-29.7071
-31.7539
-33.5468
-34.9798
-36.011
-36.6682
-36.9655
-36.9333
-36.6117
-36.0464
-35.2879
-34.3933
-33.4331
-32.4966
-31.6907
-31.1367
-30.9509
-31.2039
-31.8912
-32.9537
-34.3184
-35.9216
-37.7158
-39.675
-41.7896
-44.0604
-46.4903
-49.0775
-51.8087
-54.6531
-57.559
-60.4519
-63.2364
-65.8022
-68.0347
-69.8249
-71.0726
-71.6904
-71.6166
-70.8322
-69.354
-67.2194
-64.5087
-61.3295
-57.8042
-54.0566
-50.1998
-46.3305
-42.5265
-38.8493
-35.3467
-32.0578
-29.0183
-26.266
-23.8424
-21.7848
-20.1099
-18.7985
-17.7907
-16.9961
-16.2926
-15.538
-14.5522
-13.1246
-11.0634
-8.28326
-4.88211
-1.13529
2.63094
6.15567
9.26901
11.9059
14.0697
15.8037
17.1694
18.2296
19.0416
19.6539
20.1061
20.4303
20.6522
20.7924
20.8675
20.8911
20.874
20.8251
20.7517
20.6598
20.5543
20.4392
20.3177
20.1924
20.0654
19.9385
19.8131
19.6901
19.5704
19.4547
19.3433
19.2366
19.1347
19.0377
18.9457
18.8584
18.7759
18.698
18.6244
18.5549
18.4894
18.4276
18.3693
18.3144
18.2626
18.2139
18.168
18.1248
18.0843
18.0462
18.0105
17.9769
17.9455
17.916
17.8884
17.8626
17.8384
17.8158
17.7946
17.7748
17.7563
17.7389
17.7226
17.7073
17.693
17.6795
17.6668
17.6549
17.6436
17.6329
17.6228
17.6131
17.604
17.5952
17.5869
17.5789
17.5712
17.5638
17.5567
17.5498
17.5432
17.5369
17.5307
17.5248
17.5192
17.5138
17.5087
17.5039
17.4995
17.4955
17.4919
17.489
17.4867
17.4853
17.4848
17.4853
17.4869
17.4896
17.4932
17.4971
17.5
17.4995
17.491
17.4673
17.4163
-15.1018
-15.4887
-16.218
-17.3054
-18.7385
-20.4677
-22.4081
-24.4443
-26.4436
-28.2804
-29.8606
-31.1096
-32.0314
-32.6191
-32.8935
-32.8888
-32.6515
-32.2383
-31.7187
-31.1775
-30.7168
-30.4474
-30.4679
-30.8363
-31.5583
-32.6012
-33.9196
-35.4715
-37.2274
-39.1731
-41.3097
-43.648
-46.2019
-48.9812
-51.9837
-55.1878
-58.5461
-61.9836
-65.3988
-68.6688
-71.658
-74.2305
-76.2645
-77.6525
-78.2935
-78.1162
-77.124
-75.3264
-72.7696
-69.5585
-65.8338
-61.753
-57.472
-53.1272
-48.828
-44.6562
-40.6698
-36.9083
-33.3984
-30.1605
-27.2181
-24.6071
-22.3726
-20.5501
-19.1401
-18.0939
-17.3349
-16.7236
-16.1337
-15.3851
-14.2515
-12.4909
-9.93936
-6.64514
-2.88308
0.997065
4.67567
7.94866
10.7261
13.0066
14.8377
16.2857
17.418
18.2946
18.9659
19.4727
19.8475
20.1164
20.3003
20.416
20.4771
20.4945
20.4775
20.4335
20.3686
20.2878
20.1953
20.0945
19.9881
19.8785
19.7674
19.6563
19.5464
19.4387
19.3338
19.2323
19.1346
19.0409
18.9515
18.8663
18.7854
18.7087
18.6362
18.5676
18.5027
18.4415
18.3838
18.3293
18.2779
18.2295
18.1838
18.1408
18.1002
18.0621
18.0262
17.9925
17.9608
17.931
17.9031
17.8768
17.8523
17.8292
17.8076
17.7873
17.7683
17.7504
17.7337
17.718
17.7032
17.6893
17.6763
17.6639
17.6523
17.6413
17.6308
17.6209
17.6115
17.6025
17.5939
17.5856
17.5777
17.5701
17.5628
17.5557
17.5489
17.5423
17.5359
17.5297
17.5237
17.5179
17.5123
17.5069
17.5018
17.497
17.4925
17.4883
17.4845
17.4812
17.4784
17.4761
17.4745
17.4733
17.4725
17.4716
17.4698
17.4656
17.4563
17.4376
17.4026
17.3413
-10.4942
-10.808
-11.3935
-12.2635
-13.4176
-14.8261
-16.4342
-18.1636
-19.9215
-21.6101
-23.1414
-24.4925
-25.5754
-26.3844
-26.9338
-27.2572
-27.4045
-27.441
-27.4454
-27.5053
-27.7069
-28.1206
-28.7872
-29.7146
-30.8871
-32.2802
-33.8716
-35.6483
-37.6096
-39.7677
-42.1445
-44.7663
-47.6576
-50.8328
-54.287
-57.9881
-61.8713
-65.8396
-69.7685
-73.5125
-76.9136
-79.8144
-82.0793
-83.6032
-84.2849
-84.0365
-82.9153
-80.8659
-77.9438
-74.2781
-70.0445
-65.4398
-60.6559
-55.8557
-51.1622
-46.6593
-42.4003
-38.4174
-34.7278
-31.3391
-28.2598
-25.5144
-23.1436
-21.1883
-19.6616
-18.5337
-17.7321
-17.1418
-16.627
-16.0154
-15.0778
-13.5403
-11.1874
-8.01841
-4.28065
-0.353699
3.40674
6.7676
9.6277
11.9829
13.882
15.3934
16.586
17.5206
18.2474
18.8073
19.2327
19.5493
19.778
19.9355
20.0355
20.0891
20.1056
20.0924
20.0559
20.0012
19.9328
19.854
19.7678
19.6766
19.5824
19.4868
19.3911
19.2962
19.2031
19.1123
19.0244
18.9396
18.8584
18.7806
18.7066
18.6362
18.5694
18.5062
18.4464
18.3898
18.3364
18.286
18.2383
18.1934
18.151
18.111
18.0733
18.0378
18.0043
17.9727
17.943
17.9151
17.8888
17.864
17.8408
17.8189
17.7984
17.7791
17.761
17.7439
17.7279
17.7128
17.6986
17.6852
17.6726
17.6607
17.6494
17.6387
17.6285
17.6188
17.6096
17.6008
17.5924
17.5843
17.5765
17.5689
17.5617
17.5546
17.5478
17.5412
17.5348
17.5285
17.5224
17.5165
17.5107
17.5051
17.4997
17.4944
17.4894
17.4845
17.4799
17.4755
17.4714
17.4674
17.4636
17.4597
17.4555
17.4503
17.4431
17.4323
17.4152
17.3875
17.3431
17.2735
-6.47841
-6.69946
-7.11393
-7.73
-8.55528
-9.57722
-10.7678
-12.0851
-13.4731
-14.8699
-16.2154
-17.4501
-18.5413
-19.4798
-20.2755
-20.9567
-21.5671
-22.1612
-22.7981
-23.5331
-24.4092
-25.4512
-26.6658
-28.0467
-29.5834
-31.2679
-33.0998
-35.0889
-37.2559
-39.631
-42.2504
-45.1519
-48.367
-51.9117
-55.7767
-59.9189
-64.2579
-68.6791
-73.0394
-77.1738
-80.9047
-84.0583
-86.4906
-88.1034
-88.8215
-88.5761
-87.3464
-85.1114
-81.9248
-77.9275
-73.3186
-68.3208
-63.1633
-58.0296
-53.0533
-48.317
-43.8682
-39.7324
-35.9205
-32.4337
-29.267
-26.4385
-23.9777
-21.9254
-20.3051
-19.0988
-18.2397
-17.6209
-17.1113
-16.5465
-15.6986
-14.2786
-12.0414
-8.95646
-5.26413
-1.35429
2.40595
5.77597
8.65283
11.0327
12.9643
14.5154
15.7528
16.7356
17.5122
18.1219
18.5959
18.9595
19.2329
19.4326
19.5722
19.6627
19.7135
19.7321
19.725
19.6976
19.6541
19.5984
19.5334
19.4617
19.3853
19.306
19.2252
19.1441
19.0634
18.9841
18.9066
18.8315
18.7589
18.6892
18.6224
18.5588
18.4982
18.4407
18.3862
18.3346
18.2857
18.2396
18.1959
18.1547
18.1158
18.079
18.0443
18.0115
17.9805
17.9513
17.9237
17.8977
17.8732
17.85
17.8282
17.8077
17.7883
17.7701
17.7529
17.7368
17.7215
17.7071
17.6935
17.6807
17.6686
17.6571
17.6462
17.6358
17.626
17.6166
17.6076
17.599
17.5907
17.5827
17.5751
17.5676
17.5605
17.5535
17.5467
17.5401
17.5336
17.5273
17.5211
17.515
17.5091
17.5032
17.4975
17.4918
17.4862
17.4807
17.4752
17.4698
17.4643
17.4587
17.4527
17.4462
17.4387
17.4294
17.4173
17.4005
17.3763
17.3408
17.2885
17.2122
-3.54593
-3.6778
-3.93219
-4.31557
-4.84247
-5.51191
-6.31275
-7.23563
-8.24617
-9.30913
-10.3906
-11.465
-12.516
-13.5394
-14.5432
-15.5462
-16.5742
-17.6559
-18.8175
-20.0781
-21.4473
-22.926
-24.51
-26.1945
-27.9785
-29.8679
-31.8776
-34.0315
-36.3631
-38.9129
-41.7259
-44.8458
-48.3073
-52.1258
-56.287
-60.7388
-65.3887
-70.1095
-74.7449
-79.116
-83.0326
-86.3127
-88.8103
-90.4287
-91.107
-90.817
-89.5527
-87.257
-83.9767
-79.8552
-75.1073
-69.9363
-64.6455
-59.3882
-54.3044
-49.4793
-44.9579
-40.7619
-36.8998
-33.3703
-30.1688
-27.3023
-24.7976
-22.6944
-21.0192
-19.7568
-18.8425
-18.1737
-17.6246
-17.0356
-16.1787
-14.7606
-12.5355
-9.47856
-5.83633
-1.99594
1.6885
4.99116
7.81954
10.1739
12.1022
13.668
14.9337
15.9536
16.7726
17.4273
17.9471
18.3557
18.6727
18.914
19.0929
19.2204
19.3058
19.3567
19.3796
19.3799
19.3621
19.3301
19.287
19.2355
19.1776
19.1154
19.0502
18.9834
18.9159
18.8486
18.7822
18.7171
18.6537
18.5925
18.5335
18.477
18.4229
18.3715
18.3226
18.2761
18.2321
18.1904
18.151
18.1136
18.0783
18.0449
18.0133
17.9834
17.9551
17.9283
17.903
17.879
17.8564
17.835
17.8147
17.7956
17.7775
17.7604
17.7443
17.729
17.7146
17.7009
17.688
17.6758
17.6642
17.6532
17.6427
17.6327
17.6232
17.6141
17.6053
17.5969
17.5889
17.5811
17.5735
17.5662
17.5591
17.5522
17.5455
17.5389
17.5324
17.526
17.5198
17.5135
17.5074
17.5013
17.4952
17.4891
17.483
17.4768
17.4705
17.464
17.4572
17.45
17.442
17.433
17.4223
17.4092
17.3924
17.3702
17.3397
17.2975
17.2385
17.1566
-1.71609
-1.77761
-1.90759
-2.11796
-2.42395
-2.83355
-3.35135
-3.96249
-4.66844
-5.46158
-6.33048
-7.26679
-8.26617
-9.32917
-10.4607
-11.6685
-12.9605
-14.3427
-15.8167
-17.3795
-19.0241
-20.7426
-22.5287
-24.3813
-26.3061
-28.3168
-30.4353
-32.6922
-35.126
-37.7809
-40.7045
-43.9418
-47.5271
-51.4739
-55.7646
-60.3468
-65.1228
-69.9614
-74.7008
-79.1582
-83.1419
-86.4697
-88.9936
-90.617
-91.2969
-91.0275
-89.7712
-87.4821
-84.2209
-80.1304
-75.4194
-70.3234
-65.0822
-59.8809
-54.8531
-50.0794
-45.6015
-41.4402
-37.6045
-34.095
-30.9087
-28.0524
-25.5524
-23.4467
-21.758
-20.4669
-19.5067
-18.7772
-18.1566
-17.4855
-16.5325
-15.0096
-12.7004
-9.62072
-6.03464
-2.31179
1.23018
4.39925
7.12331
9.40938
11.3031
12.8616
14.1399
15.186
16.0397
16.7338
17.2952
17.7459
18.1044
18.3859
18.6032
18.7672
18.8868
18.9699
19.0229
19.0512
19.0595
19.0516
19.0308
18.9998
18.961
18.9163
18.8673
18.8153
18.7615
18.7067
18.6518
18.5972
18.5435
18.4911
18.4403
18.3912
18.3441
18.2989
18.2558
18.2148
18.1758
18.1388
18.1037
18.0704
18.0389
18.009
17.9806
17.9537
17.9282
17.904
17.881
17.8592
17.8385
17.8189
17.8003
17.7826
17.7659
17.75
17.7349
17.7207
17.7071
17.6943
17.6821
17.6705
17.6594
17.6489
17.6389
17.6293
17.6202
17.6114
17.6029
17.5948
17.5869
17.5793
17.5719
17.5647
17.5577
17.5509
17.5442
17.5376
17.5311
17.5247
17.5184
17.512
17.5057
17.4994
17.493
17.4865
17.4798
17.473
17.4659
17.4584
17.4503
17.4415
17.4315
17.4201
17.4065
17.3898
17.3688
17.3416
17.3056
17.2575
17.1929
17.1064
-0.738688
-0.740622
-0.783045
-0.880461
-1.04584
-1.28927
-1.61892
-2.04077
-2.55908
-3.17755
-3.89942
-4.7279
-5.66642
-6.71838
-7.88629
-9.1706
-10.5685
-12.0733
-13.6746
-15.3596
-17.1154
-18.9313
-20.8014
-22.7264
-24.7144
-26.7811
-28.9496
-31.2509
-33.7223
-36.4065
-39.3498
-42.5953
-46.1752
-50.1015
-54.3559
-58.883
-63.5883
-68.3438
-72.9934
-77.3618
-81.2667
-84.5348
-87.0227
-88.6304
-89.3111
-89.057
-87.8247
-85.6101
-82.4894
-78.6017
-74.14
-69.3238
-64.3628
-59.4264
-54.6345
-50.0612
-45.7486
-41.7212
-37.9931
-34.5702
-31.4558
-28.6625
-26.2194
-24.16
-22.4968
-21.1998
-20.1979
-19.3939
-18.6686
-17.858
-16.7256
-15.0055
-12.544
-9.42081
-5.91499
-2.35961
0.983447
3.96802
6.54686
8.73359
10.5696
12.1035
13.3813
14.4433
15.3237
16.0509
16.649
17.138
17.535
17.8544
18.1084
18.3076
18.4608
18.5755
18.6582
18.7144
18.7486
18.7649
18.7667
18.7566
18.7371
18.7103
18.6778
18.641
18.6012
18.5593
18.5162
18.4725
18.4288
18.3856
18.3432
18.3019
18.262
18.2234
18.1864
18.151
18.1172
18.085
18.0544
18.0253
17.9976
17.9713
17.9463
17.9225
17.8999
17.8784
17.8578
17.8383
17.8196
17.8019
17.785
17.7689
17.7535
17.7389
17.725
17.7118
17.6992
17.6872
17.6757
17.6648
17.6544
17.6444
17.6349
17.6257
17.6169
17.6085
17.6003
17.5925
17.5848
17.5774
17.5702
17.5632
17.5563
17.5495
17.5429
17.5363
17.5298
17.5234
17.5169
17.5105
17.504
17.4974
17.4907
17.4838
17.4767
17.4692
17.4613
17.4528
17.4436
17.4332
17.4214
17.4077
17.3914
17.3714
17.3465
17.3149
17.274
17.2208
17.1513
17.0611
-0.180286
-0.167732
-0.184938
-0.240977
-0.345386
-0.508939
-0.742828
-1.05794
-1.4645
-1.97255
-2.59178
-3.33109
-4.19795
-5.19756
-6.33196
-7.59912
-8.99254
-10.5014
-12.1118
-13.8086
-15.5779
-17.4087
-19.2949
-21.2357
-23.2379
-25.3163
-27.4915
-29.7903
-32.2449
-34.8922
-37.7703
-40.9149
-44.3523
-48.0916
-52.1162
-56.3778
-60.7938
-65.2497
-69.6048
-73.7016
-77.3764
-80.4731
-82.8578
-84.4304
-85.1312
-84.9279
-83.7975
-81.7753
-78.949
-75.4471
-71.4354
-67.0978
-62.608
-58.1071
-53.6977
-49.4485
-45.4053
-41.5999
-38.0543
-34.7831
-31.8004
-29.1293
-26.8013
-24.8407
-23.2414
-21.9581
-20.9145
-20.0153
-19.1375
-18.104
-16.6844
-14.6743
-12.022
-8.87618
-5.50715
-2.18427
0.903034
3.65977
6.06224
8.12726
9.88883
11.3849
12.6514
13.7205
14.62
15.3742
16.004
16.5274
16.9599
17.315
17.6041
17.8374
18.0233
18.1692
18.2814
18.3655
18.426
18.4668
18.4914
18.5026
18.503
18.4945
18.4791
18.4581
18.4328
18.4043
18.3736
18.3413
18.3082
18.2746
18.2411
18.208
18.1755
18.1439
18.1133
18.0838
18.0555
18.0284
18.0025
17.9778
17.9541
17.9316
17.9101
17.8896
17.87
17.8512
17.8332
17.816
17.7996
17.7838
17.7687
17.7542
17.7404
17.7271
17.7145
17.7023
17.6907
17.6796
17.669
17.6588
17.649
17.6396
17.6306
17.6219
17.6135
17.6054
17.5976
17.59
17.5826
17.5754
17.5684
17.5615
17.5547
17.5481
17.5415
17.535
17.5285
17.522
17.5155
17.5089
17.5023
17.4955
17.4885
17.4812
17.4736
17.4656
17.4569
17.4475
17.4371
17.4253
17.4118
17.3959
17.3771
17.3541
17.3257
17.2901
17.2449
17.1873
17.1137
17.0203
0.0697882
0.0755186
0.066798
0.0229254
-0.0647212
-0.202115
-0.398471
-0.665774
-1.01615
-1.46148
-2.01334
-2.68255
-3.47838
-4.40757
-5.47342
-6.67493
-8.00656
-9.45787
-11.0152
-12.6652
-14.3955
-16.1955
-18.0585
-19.9832
-21.9733
-24.0383
-26.1933
-28.4585
-30.8588
-33.4222
-36.1775
-39.1512
-42.362
-45.8154
-49.4969
-53.3669
-57.3574
-61.3733
-65.2965
-68.9929
-72.3214
-75.1453
-77.3425
-78.8163
-79.5011
-79.391
-78.4495
-76.7302
-74.3171
-71.3184
-67.868
-64.1107
-60.1817
-56.1942
-52.236
-48.3737
-44.6587
-41.131
-37.8212
-34.7548
-31.9591
-29.4657