/*--------------------------------*- C++ -*----------------------------------*\
  =========                 |
  \\      /  F ield         | OpenFOAM: The Open Source CFD Toolbox
   \\    /   O peration     | Website:  https://openfoam.org
    \\  /    A nd           | Version:  9
     \\/     M anipulation  |
\*---------------------------------------------------------------------------*/
FoamFile
{
    format      ascii;
    class       volVectorField;
    location    "0.02";
    object      U;
}
// * * * * * * * * * * * * * * * * * * * * * * * * * * * * * * * * * * * * * //

dimensions      [0 1 -1 0 0 0 0];

internalField   nonuniform List<vector> 
12225
(
(9.76768 -0.059402 0)
(9.30442 -0.0342099 0)
(8.83057 -0.00521204 0)
(8.35677 0.0162492 0)
(7.90193 0.0305719 0)
(7.47294 0.0391068 0)
(7.06841 0.0438656 0)
(6.68564 0.0464686 0)
(6.32221 0.0479389 0)
(5.97517 0.0489755 0)
(5.6405 0.0501447 0)
(5.31324 0.0519438 0)
(4.98767 0.0548285 0)
(4.65733 0.0592197 0)
(4.31521 0.0655579 0)
(3.95321 0.0739308 0)
(3.56657 0.0860658 0)
(3.13248 0.0946596 0)
(10.0986 0.0953597 0)
(10.2951 0.159306 0)
(10.4204 0.164355 0)
(10.4809 0.161291 0)
(10.4963 0.158454 0)
(10.4766 0.155361 0)
(10.4265 0.152518 0)
(10.3499 0.150567 0)
(10.2509 0.149785 0)
(10.1323 0.150403 0)
(9.99593 0.152791 0)
(9.84198 0.157475 0)
(9.66951 0.165119 0)
(9.4762 0.176527 0)
(9.25828 0.192661 0)
(9.00972 0.214547 0)
(8.72485 0.243708 0)
(8.38678 0.280657 0)
(10.0086 0.0412353 0)
(10.0543 0.0567609 0)
(10.104 0.0536311 0)
(10.1487 0.0600437 0)
(10.1925 0.071979 0)
(10.2357 0.0838199 0)
(10.2751 0.0947847 0)
(10.3081 0.105473 0)
(10.3335 0.116345 0)
(10.3507 0.127878 0)
(10.3593 0.14076 0)
(10.3587 0.155888 0)
(10.3484 0.174354 0)
(10.3279 0.19745 0)
(10.2963 0.22679 0)
(10.252 0.264005 0)
(10.1946 0.311914 0)
(10.1171 0.370576 0)
(10.0042 0.0282333 0)
(10.0263 0.0563214 0)
(10.0483 0.0697122 0)
(10.0611 0.0828674 0)
(10.0695 0.0951069 0)
(10.0778 0.104559 0)
(10.086 0.112248 0)
(10.0931 0.119678 0)
(10.0987 0.127736 0)
(10.1026 0.137041 0)
(10.1048 0.14829 0)
(10.1051 0.162336 0)
(10.1037 0.18021 0)
(10.1008 0.20314 0)
(10.0972 0.232678 0)
(10.0945 0.270458 0)
(10.0939 0.318951 0)
(10.1015 0.378896 0)
(10.0031 0.0239011 0)
(10.0207 0.0558745 0)
(10.0389 0.0705588 0)
(10.0483 0.0802952 0)
(10.0516 0.0894148 0)
(10.053 0.0976261 0)
(10.0527 0.105317 0)
(10.0498 0.113414 0)
(10.0443 0.12255 0)
(10.036 0.133183 0)
(10.0252 0.145869 0)
(10.012 0.161338 0)
(9.99644 0.180481 0)
(9.97912 0.204338 0)
(9.96087 0.23412 0)
(9.94336 0.271149 0)
(9.9281 0.316633 0)
(9.92122 0.371952 0)
(10.0023 0.0207684 0)
(10.0158 0.0511679 0)
(10.0312 0.066207 0)
(10.0402 0.0762628 0)
(10.0439 0.0866224 0)
(10.0453 0.0968777 0)
(10.0449 0.106646 0)
(10.0419 0.116556 0)
(10.0359 0.12732 0)
(10.0269 0.139495 0)
(10.0152 0.153676 0)
(10.0008 0.17059 0)
(9.98383 0.191076 0)
(9.96474 0.216063 0)
(9.9442 0.246519 0)
(9.92345 0.28345 0)
(9.90387 0.327413 0)
(9.88864 0.379467 0)
(10.0016 0.018112 0)
(10.0119 0.0465416 0)
(10.0247 0.0630361 0)
(10.0332 0.0747021 0)
(10.0372 0.0861678 0)
(10.0387 0.0973748 0)
(10.0384 0.107995 0)
(10.0359 0.1187 0)
(10.0307 0.13033 0)
(10.0229 0.14352 0)
(10.0127 0.158862 0)
(10.0002 0.177026 0)
(9.98565 0.198762 0)
(9.96949 0.224861 0)
(9.95243 0.256089 0)
(9.93554 0.293156 0)
(9.92012 0.336334 0)
(9.90816 0.386094 0)
(10.0012 0.0160017 0)
(10.009 0.042689 0)
(10.0195 0.0602984 0)
(10.0273 0.0731247 0)
(10.0313 0.0851069 0)
(10.0328 0.0968445 0)
(10.0327 0.108262 0)
(10.0306 0.119948 0)
(10.0263 0.132686 0)
(10.0197 0.147087 0)
(10.011 0.163695 0)
(10.0005 0.183102 0)
(9.98854 0.205955 0)
(9.97553 0.232904 0)
(9.96223 0.264531 0)
(9.94966 0.301298 0)
(9.93893 0.343274 0)
(9.9317 0.390552 0)
(10.0009 0.014363 0)
(10.0068 0.0394289 0)
(10.0153 0.0575897 0)
(10.0224 0.0713188 0)
(10.0263 0.083874 0)
(10.028 0.0962742 0)
(10.0281 0.108613 0)
(10.0266 0.121339 0)
(10.0231 0.135136 0)
(10.0178 0.150598 0)
(10.0107 0.168244 0)
(10.0022 0.188605 0)
(9.99275 0.21223 0)
(9.98275 0.239637 0)
(9.97294 0.271243 0)
(9.96424 0.307315 0)
(9.95759 0.347761 0)
(9.95438 0.392542 0)
(10.0006 0.0130781 0)
(10.0052 0.0366465 0)
(10.0121 0.0549819 0)
(10.0184 0.0694719 0)
(10.0222 0.082657 0)
(10.0242 0.0956987 0)
(10.0247 0.108838 0)
(10.0238 0.122451 0)
(10.0213 0.137142 0)
(10.0172 0.153486 0)
(10.0119 0.171972 0)
(10.0055 0.193062 0)
(9.99859 0.217199 0)
(9.99156 0.244773 0)
(9.98509 0.276054 0)
(9.98001 0.311161 0)
(9.97706 0.349896 0)
(9.97739 0.392167 0)
(10.0005 0.0120501 0)
(10.004 0.0342781 0)
(10.0097 0.0525469 0)
(10.0152 0.0676135 0)
(10.019 0.081367 0)
(10.0213 0.0949565 0)
(10.0223 0.108759 0)
(10.0221 0.123129 0)
(10.0207 0.138593 0)
(10.0181 0.155675 0)
(10.0145 0.174817 0)
(10.0103 0.196403 0)
(10.006 0.220778 0)
(10.0018 0.248215 0)
(9.99859 0.278868 0)
(9.9969 0.312748 0)
(9.99737 0.349595 0)
(10.0009 0.389299 0)
(10.0004 0.0112634 0)
(10.0032 0.0323798 0)
(10.008 0.0504362 0)
(10.013 0.065861 0)
(10.0168 0.0800522 0)
(10.0194 0.0940711 0)
(10.0209 0.108383 0)
(10.0215 0.123334 0)
(10.0212 0.139378 0)
(10.02 0.156979 0)
(10.0181 0.176524 0)
(10.016 0.198334 0)
(10.0139 0.222669 0)
(10.0124 0.249712 0)
(10.0119 0.279529 0)
(10.0131 0.312062 0)
(10.0165 0.347019 0)
(10.0227 0.384301 0)
(10.0003 0.0106139 0)
(10.0027 0.0307332 0)
(10.0068 0.0484445 0)
(10.0113 0.0640414 0)
(10.0152 0.0785607 0)
(10.0181 0.092925 0)
(10.0203 0.107631 0)
(10.0217 0.123023 0)
(10.0225 0.139492 0)
(10.0227 0.157436 0)
(10.0226 0.177188 0)
(10.0225 0.199007 0)
(10.0227 0.22308 0)
(10.0236 0.249514 0)
(10.0258 0.278308 0)
(10.0297 0.309355 0)
(10.0357 0.342349 0)
(10.0444 0.377202 0)
(10.0003 0.009971 0)
(10.0022 0.0290406 0)
(10.0058 0.0462488 0)
(10.01 0.0618491 0)
(10.014 0.0765881 0)
(10.0175 0.0912172 0)
(10.0204 0.10622 0)
(10.0229 0.121933 0)
(10.025 0.138685 0)
(10.0269 0.1568 0)
(10.0288 0.176545 0)
(10.0309 0.198112 0)
(10.0336 0.221616 0)
(10.0373 0.247095 0)
(10.0422 0.274488 0)
(10.0489 0.303655 0)
(10.0576 0.334286 0)
(10.0688 0.366317 0)
(10.0002 0.00931178 0)
(10.002 0.0272573 0)
(10.0052 0.0437819 0)
(10.0093 0.0591529 0)
(10.0135 0.073908 0)
(10.0176 0.0886266 0)
(10.0215 0.103739 0)
(10.0253 0.119553 0)
(10.029 0.136338 0)
(10.0328 0.154337 0)
(10.0369 0.173745 0)
(10.0415 0.194684 0)
(10.0469 0.217202 0)
(10.0533 0.241277 0)
(10.0611 0.266808 0)
(10.0706 0.293633 0)
(10.0819 0.321453 0)
(10.0955 0.350236 0)
(10.0002 0.00859649 0)
(10.0018 0.0252726 0)
(10.0049 0.0408691 0)
(10.0091 0.0556936 0)
(10.0139 0.0701478 0)
(10.0188 0.0846587 0)
(10.0239 0.0995736 0)
(10.0292 0.115149 0)
(10.0347 0.131589 0)
(10.0407 0.14906 0)
(10.0471 0.167681 0)
(10.0543 0.187507 0)
(10.0624 0.20853 0)
(10.0716 0.230685 0)
(10.0822 0.253841 0)
(10.0944 0.277835 0)
(10.1082 0.302388 0)
(10.124 0.327498 0)
(10.0002 0.0077519 0)
(10.0019 0.0228769 0)
(10.0051 0.037187 0)
(10.0097 0.0510322 0)
(10.0152 0.0647286 0)
(10.0212 0.0785772 0)
(10.0277 0.0928282 0)
(10.0347 0.107669 0)
(10.0423 0.123234 0)
(10.0505 0.13962 0)
(10.0594 0.156874 0)
(10.0691 0.174995 0)
(10.0799 0.193933 0)
(10.0918 0.213593 0)
(10.1049 0.233837 0)
(10.1195 0.254507 0)
(10.1354 0.27536 0)
(10.153 0.296414 0)
(10.0002 0.00665314 0)
(10.0021 0.0197184 0)
(10.0058 0.0322046 0)
(10.0111 0.0444868 0)
(10.0176 0.0568171 0)
(10.0249 0.0693897 0)
(10.0331 0.0823563 0)
(10.042 0.095826 0)
(10.0516 0.109866 0)
(10.062 0.124506 0)
(10.0733 0.139737 0)
(10.0855 0.155512 0)
(10.0987 0.171753 0)
(10.1129 0.188352 0)
(10.1282 0.205175 0)
(10.1446 0.222084 0)
(10.1622 0.238875 0)
(10.181 0.255581 0)
(10.0003 0.0051002 0)
(10.0025 0.0152102 0)
(10.007 0.0250086 0)
(10.0134 0.0348813 0)
(10.0212 0.045012 0)
(10.0301 0.0554872 0)
(10.04 0.0663588 0)
(10.0508 0.0776598 0)
(10.0626 0.0893976 0)
(10.0751 0.101549 0)
(10.0886 0.114062 0)
(10.1028 0.126863 0)
(10.118 0.139858 0)
(10.134 0.15294 0)
(10.1508 0.165987 0)
(10.1685 0.178884 0)
(10.187 0.19147 0)
(10.2064 0.203772 0)
(10.0004 0.00336158 0)
(10.0031 0.0101344 0)
(10.0084 0.0169049 0)
(10.016 0.0240727 0)
(10.0252 0.031739 0)
(10.0355 0.0398734 0)
(10.0469 0.0484393 0)
(10.0592 0.057413 0)
(10.0725 0.0667574 0)
(10.0865 0.0764115 0)
(10.1014 0.0862988 0)
(10.117 0.0963347 0)
(10.1332 0.106428 0)
(10.1502 0.116483 0)
(10.1678 0.126397 0)
(10.186 0.136076 0)
(10.2047 0.1454 0)
(10.224 0.154387 0)
(10.0004 0.00169359 0)
(10.0037 0.00529621 0)
(10.0099 0.00930725 0)
(10.0186 0.0141295 0)
(10.0289 0.0197154 0)
(10.0404 0.0258866 0)
(10.0528 0.0325437 0)
(10.0662 0.0396426 0)
(10.0805 0.047119 0)
(10.0955 0.0548772 0)
(10.1112 0.0628152 0)
(10.1276 0.0708381 0)
(10.1446 0.0788542 0)
(10.162 0.0867713 0)
(10.18 0.0944974 0)
(10.1984 0.101953 0)
(10.2171 0.109041 0)
(10.2363 0.115767 0)
(10.0005 -5.5687e-05 0)
(10.0044 0.000303528 0)
(10.0118 0.00168977 0)
(10.0217 0.00445546 0)
(10.0331 0.0082663 0)
(10.0455 0.0127353 0)
(10.0588 0.0177158 0)
(10.0731 0.0231686 0)
(10.0882 0.0290223 0)
(10.1039 0.0351708 0)
(10.1203 0.04151 0)
(10.1371 0.0479485 0)
(10.1544 0.0544057 0)
(10.1721 0.0607847 0)
(10.1902 0.0669909 0)
(10.2085 0.0729444 0)
(10.227 0.078563 0)
(10.2458 0.0838514 0)
(10.0006 -0.001942 0)
(10.0054 -0.00492273 0)
(10.0142 -0.00595055 0)
(10.0255 -0.0049182 0)
(10.0379 -0.00260208 0)
(10.0511 0.00045287 0)
(10.0651 0.00409755 0)
(10.0801 0.00824203 0)
(10.0959 0.0127363 0)
(10.1122 0.0174397 0)
(10.129 0.0222549 0)
(10.1463 0.0271044 0)
(10.164 0.0319577 0)
(10.182 0.0367379 0)
(10.2002 0.04136 0)
(10.2186 0.0457722 0)
(10.2371 0.0499013 0)
(10.2557 0.0537338 0)
(10.0008 -0.00406563 0)
(10.0068 -0.0105021 0)
(10.0174 -0.0134718 0)
(10.0302 -0.0137386 0)
(10.0435 -0.0128432 0)
(10.0574 -0.0112302 0)
(10.0721 -0.00876451 0)
(10.0877 -0.00550802 0)
(10.1038 -0.00172159 0)
(10.1204 0.00236999 0)
(10.1374 0.00663786 0)
(10.1549 0.0109934 0)
(10.1727 0.0152755 0)
(10.1907 0.0194224 0)
(10.2089 0.0234 0)
(10.2271 0.0271477 0)
(10.2454 0.03062 0)
(10.2636 0.0338139 0)
(10.0011 -0.00655024 0)
(10.0091 -0.0167728 0)
(10.0219 -0.0209246 0)
(10.0359 -0.0214666 0)
(10.0498 -0.0214182 0)
(10.0644 -0.0212949 0)
(10.08 -0.0206234 0)
(10.0963 -0.0192736 0)
(10.113 -0.0174059 0)
(10.1301 -0.0151643 0)
(10.1476 -0.0126284 0)
(10.1653 -0.00987555 0)
(10.1832 -0.00705806 0)
(10.2012 -0.00424664 0)
(10.2194 -0.00148731 0)
(10.2376 0.00115098 0)
(10.2558 0.00361878 0)
(10.274 0.00588312 0)
(10.0015 -0.00933349 0)
(10.0123 -0.0238753 0)
(10.0282 -0.0296018 0)
(10.0434 -0.0300706 0)
(10.0572 -0.0290353 0)
(10.0716 -0.0274254 0)
(10.0873 -0.0253107 0)
(10.1038 -0.022925 0)
(10.1207 -0.0204791 0)
(10.138 -0.0180311 0)
(10.1557 -0.0155877 0)
(10.1736 -0.0131819 0)
(10.1917 -0.0108 0)
(10.21 -0.0085001 0)
(10.2283 -0.00634864 0)
(10.2466 -0.00437095 0)
(10.2648 -0.00261486 0)
(10.2829 -0.00101935 0)
(10.002 -0.0124247 0)
(10.0158 -0.0286336 0)
(10.0353 -0.0374005 0)
(10.0527 -0.0441352 0)
(10.0679 -0.0493208 0)
(10.0837 -0.0520161 0)
(10.1006 -0.0525839 0)
(10.1183 -0.0519221 0)
(10.1365 -0.0505833 0)
(10.1551 -0.048792 0)
(10.1743 -0.0466845 0)
(10.1937 -0.0443876 0)
(10.2134 -0.0419929 0)
(10.2333 -0.0396043 0)
(10.2531 -0.0373111 0)
(10.2729 -0.0351759 0)
(10.2926 -0.0332538 0)
(10.3122 -0.0314548 0)
(10.0035 -0.0199317 0)
(10.0254 -0.0245788 0)
(10.0534 -0.016182 0)
(10.0807 -0.0137702 0)
(10.1087 -0.0163699 0)
(10.1387 -0.0195459 0)
(10.1699 -0.0220634 0)
(10.2011 -0.024128 0)
(10.232 -0.0258399 0)
(10.2625 -0.0271407 0)
(10.2923 -0.028022 0)
(10.3213 -0.0285444 0)
(10.3494 -0.0287844 0)
(10.3766 -0.0288304 0)
(10.4028 -0.0287715 0)
(10.428 -0.0287192 0)
(10.4525 -0.0287495 0)
(10.4758 -0.0290846 0)
(10.051 -0.065145 0)
(10.1727 -0.115178 0)
(10.269 -0.119653 0)
(10.3389 -0.115895 0)
(10.393 -0.112182 0)
(10.436 -0.107936 0)
(10.4688 -0.103242 0)
(10.4923 -0.0986401 0)
(10.5083 -0.0943078 0)
(10.5183 -0.090198 0)
(10.5237 -0.0862683 0)
(10.5254 -0.0825197 0)
(10.5242 -0.0789672 0)
(10.5209 -0.0756372 0)
(10.5159 -0.0725597 0)
(10.5097 -0.0698267 0)
(10.5025 -0.0674563 0)
(10.4952 -0.0659705 0)
(9.87624 0.0461031 0)
(9.63331 0.0282478 0)
(9.38167 0.00765756 0)
(9.12777 -0.00735482 0)
(8.88524 -0.0177938 0)
(8.65953 -0.0243323 0)
(8.45029 -0.0280765 0)
(8.25643 -0.0300643 0)
(8.07744 -0.0309233 0)
(7.91282 -0.0310027 0)
(7.76183 -0.0305385 0)
(7.62351 -0.0297118 0)
(7.49689 -0.0286607 0)
(7.38099 -0.0274939 0)
(7.2748 -0.0262993 0)
(7.17736 -0.0251803 0)
(7.08719 -0.0242066 0)
(7.00447 -0.0237573 0)
(-0.293528 0.317757 -7.00643e-20)
(-0.288363 -0.0621311 6.89529e-20)
(0.115626 -0.540331 0)
(0.709784 -0.822606 0)
(1.39417 -0.906337 0)
(2.09954 -0.87076 -3.95181e-20)
(2.75714 -0.780161 0)
(3.3321 -0.668993 0)
(3.81464 -0.548071 0)
(4.20198 -0.423168 0)
(4.49038 -0.293632 3.95352e-20)
(4.66942 -0.163359 0)
(4.74962 -0.0272002 0)
(4.68939 0.124695 0)
(4.49096 0.284626 0)
(4.16524 0.438318 4.1872e-20)
(3.72419 0.569103 0)
(3.1855 0.660114 0)
(2.57641 0.695171 0)
(1.93454 0.661083 0)
(1.3067 0.551865 0)
(0.744806 0.374708 0)
(0.297229 0.155253 0)
(0.0108686 -0.0738288 7.58756e-20)
(-0.115234 -0.295994 -7.95705e-20)
(-0.0523645 -0.418107 7.60548e-20)
(0.1614 -0.51967 6.87144e-20)
(0.486478 -0.618433 0)
(0.83481 -0.633492 0)
(1.12046 -0.54898 -5.27477e-20)
(1.3072 -0.4818 -5.16663e-20)
(1.359 -0.510429 0)
(1.25141 -0.504955 0)
(0.982141 -0.305641 -5.46466e-20)
(0.472838 0.0767862 0)
(-0.315038 0.446244 0)
(-1.24189 0.702312 4.42917e-20)
(-2.2446 0.865154 0)
(-3.27215 0.945299 3.52097e-20)
(-4.27921 0.956524 6.75457e-20)
(-5.22999 0.914613 0)
(-6.0987 0.835229 0)
(-6.86882 0.732459 0)
(-7.53163 0.617981 0)
(-8.08438 0.500876 0)
(-8.52866 0.387844 7.24074e-20)
(-8.86914 0.283546 7.32181e-20)
(-9.11282 0.191171 7.36808e-20)
(-9.26806 0.113213 0)
(-9.34297 0.0516173 -7.35047e-20)
(-9.34744 0.00598089 0)
(-9.3052 -0.0272599 7.12386e-20)
(-9.22382 -0.0526875 6.95057e-20)
(-9.11136 -0.0725157 0)
(-8.97365 -0.088097 0)
(-8.81589 -0.100146 0)
(-8.64248 -0.109224 5.97007e-20)
(-8.45715 -0.115844 0)
(-8.26301 -0.120533 0)
(-8.06241 -0.123855 0)
(-7.8569 -0.12641 0)
(-7.64709 -0.12883 0)
(-7.43262 -0.131756 0)
(-7.21209 -0.135802 0)
(-6.98313 -0.141507 0)
(-6.74251 -0.149284 -2.86324e-20)
(-6.48636 -0.159361 0)
(-6.21055 -0.171718 0)
(-5.91112 -0.186057 1.41831e-20)
(-5.58481 -0.201776 8.39753e-21)
(-5.22963 -0.218004 0)
(-4.84532 -0.233672 4.94286e-21)
(-4.43361 -0.247643 -1.25231e-20)
(-3.99825 -0.258862 0)
(-3.54473 -0.266496 2.93631e-20)
(-3.07978 -0.270037 0)
(-2.61072 -0.269358 0)
(-2.14482 -0.264725 -5.78424e-20)
(-1.68885 -0.25665 0)
(-1.24834 -0.245586 7.81134e-20)
(-0.827193 -0.231934 0)
(-0.427096 -0.216513 -9.86934e-20)
(-0.0526194 -0.200011 -1.03376e-19)
(0.297036 -0.182832 -1.00991e-19)
(0.62477 -0.166218 -1.93169e-19)
(0.92711 -0.149425 1.84556e-19)
(1.2043 -0.135086 0)
(1.45813 -0.12108 0)
(1.69012 -0.114764 0)
(1.90345 -0.108782 1.57195e-19)
(2.10072 -0.095773 1.51792e-19)
(2.28013 -0.0827697 -1.46698e-19)
(2.44273 -0.0717539 0)
(2.59047 -0.0624451 1.37714e-19)
(2.72472 -0.0543671 1.3375e-19)
(2.84657 -0.0471952 1.301e-19)
(2.95702 -0.0407371 0)
(3.057 -0.0348808 0)
(3.14731 -0.0295479 0)
(3.22871 -0.0246762 1.18144e-19)
(3.30185 -0.0202144 0)
(3.36734 -0.0161184 0)
(3.42573 -0.0123498 -1.11393e-19)
(3.47751 -0.00887509 0)
(3.52311 -0.0056646 0)
(3.56294 -0.0026915 -1.06082e-19)
(3.59733 6.72069e-05 0)
(3.62659 0.0026275 0)
(3.65101 0.00502557 1.0191e-19)
(3.67077 0.00728698 1.00733e-19)
(3.686 0.00935344 0)
(3.69715 0.011617 -9.86699e-20)
(3.70266 0.0146886 0)
(3.7015 0.0183176 9.6908e-20)
(3.69435 0.0218048 0)
(3.68206 0.0246536 9.54653e-20)
(3.6656 0.0266653 9.4851e-20)
(3.64605 0.0278096 0)
(3.62437 0.0281571 0)
(3.60139 0.02784 0)
(3.57787 0.0269286 0)
(3.55437 0.0255898 0)
(3.53125 0.0239804 0)
(3.50875 0.0222295 0)
(3.48707 0.0204347 9.12219e-20)
(3.46632 0.0186641 -9.08419e-20)
(3.44656 0.0169631 0)
(3.42781 0.0153606 0)
(3.41006 0.0138704 0)
(3.39331 0.0124952 0)
(3.37752 0.0112325 -1.78045e-19)
(3.36269 0.0100757 0)
(3.34878 0.00901679 1.76634e-19)
(3.33577 0.00804814 -1.75935e-19)
(3.32364 0.00716371 0)
(3.31236 0.00635943 0)
(3.3019 0.00563294 0)
(3.29221 0.00498288 1.73159e-19)
(3.28324 0.00440787 1.72468e-19)
(3.27494 0.00390562 0)
(3.26726 0.00347243 1.71093e-19)
(3.26012 0.00310303 1.70407e-19)
(3.25348 0.00279087 -1.69723e-19)
(3.24728 0.00252864 0)
(3.24146 0.00230887 0)
(3.23599 0.00212452 -1.67686e-19)
(3.23083 0.00196933 0)
(3.22594 0.00183806 0)
(3.22129 0.00172652 0)
(3.21685 0.00163144 0)
(3.21259 0.00155043 1.64346e-19)
(3.2085 0.00148174 1.63688e-19)
(3.20453 0.00142424 0)
(3.20067 0.00137731 1.62383e-19)
(3.19689 0.00134079 0)
(3.19315 0.00131503 0)
(3.18943 0.00130084 1.6046e-19)
(3.18569 0.00129958 0)
(3.18188 0.00131323 1.59207e-19)
(3.17797 0.00134441 0)
(3.17389 0.00139662 0)
(3.16957 0.00147435 1.57389e-19)
(3.16494 0.00158346 0)
(3.1599 0.00173159 1.56236e-19)
(3.1543 0.00192874 0)
(3.14798 0.00218818 0)
(3.14073 0.00252762 0)
(3.13226 0.002971 -1.54182e-19)
(3.12221 0.00355104 0)
(3.11007 0.00431311 1.53378e-19)
(3.09518 0.00532101 0)
(3.07662 0.00666615 0)
(3.05313 0.00848123 0)
(3.02287 0.0109636 0)
(2.98339 0.0144113 0)
(2.93054 0.0192402 0)
(2.86048 0.0263494 0)
(2.75788 0.0364692 -3.1153e-19)
(2.6432 0.0560579 0)
(2.35693 0.0691702 0)
(-0.108256 0.649488 2.16171e-19)
(0.399296 -0.571546 -1.74933e-19)
(1.00725 -1.68107 0)
(1.61996 -2.16354 7.98733e-20)
(2.19883 -2.20311 0)
(2.73063 -2.03536 3.2301e-20)
(3.2138 -1.79362 -7.47628e-20)
(3.64712 -1.52895 -7.6548e-20)
(4.02623 -1.25511 0)
(4.34486 -0.973192 -8.16055e-20)
(4.59574 -0.682491 -3.79219e-20)
(4.77843 -0.382673 0)
(4.87726 -0.0725225 0)
(4.93114 0.245164 0)
(4.93274 0.562328 0)
(4.86716 0.868617 -3.71702e-20)
(4.72159 1.15103 0)
(4.48521 1.39192 7.71553e-20)
(4.15118 1.56736 0)
(3.72203 1.64868 0)
(3.21591 1.60899 -7.56762e-20)
(2.67097 1.43531 0)
(2.14649 1.14013 8.44874e-20)
(1.71923 0.749831 -4.71863e-20)
(1.43279 0.315456 5.20078e-20)
(1.2165 -0.0921488 -5.4573e-20)
(1.24527 -0.539053 -5.06373e-20)
(1.34103 -0.812911 0)
(1.28734 -0.814969 0)
(1.00164 -0.520263 5.56029e-20)
(0.426229 0.0867979 -6.00174e-20)
(-0.535376 0.690883 0)
(-1.64995 1.22796 0)
(-2.83032 1.70857 3.16686e-20)
(-4.01265 2.09099 0)
(-5.14051 2.33065 0)
(-6.16542 2.42487 -2.10806e-20)
(-7.06501 2.39413 0)
(-7.82389 2.26548 2.86367e-20)
(-8.43858 2.06844 -4.29756e-20)
(-8.91568 1.83062 0)
(-9.26921 1.57505 0)
(-9.51737 1.31893 -1.21928e-19)
(-9.67977 1.07374 -1.28752e-19)
(-9.77521 0.846142 -1.34996e-19)
(-9.82034 0.639244 7.53972e-20)
(-9.82893 0.453922 -6.76432e-20)
(-9.81132 0.289959 -2.17014e-19)
(-9.77473 0.147313 1.48751e-19)
(-9.72445 0.0263359 7.12468e-20)
(-9.66151 -0.0737769 0)
(-9.57165 -0.155342 -6.92444e-20)
(-9.45599 -0.221742 7.07739e-20)
(-9.31595 -0.275226 0)
(-9.15504 -0.317552 0)
(-8.97691 -0.350095 0)
(-8.78529 -0.374174 -5.7972e-20)
(-8.58361 -0.391156 0)
(-8.37483 -0.402525 1.05273e-19)
(-8.16124 -0.409901 0)
(-7.94437 -0.415041 9.2485e-20)
(-7.7248 -0.419803 0)
(-7.5021 -0.426083 -7.91787e-20)
(-7.27477 -0.435716 0)
(-7.04021 -0.450332 6.49753e-20)
(-6.79487 -0.471189 -2.96283e-20)
(-6.53446 -0.498985 0)
(-6.25431 -0.533689 -4.00071e-20)
(-5.94988 -0.574399 -1.35814e-20)
(-5.61736 -0.61929 -8.01099e-21)
(-5.25431 -0.665684 0)
(-4.86023 -0.710292 1.36979e-21)
(-4.43691 -0.7496 1.18021e-20)
(-3.9885 -0.780374 0)
(-3.52112 -0.800137 -2.74756e-20)
(-3.04223 -0.807511 6.92686e-20)
(-2.55985 -0.802338 0)
(-2.08181 -0.785558 5.37495e-20)
(-1.6151 -0.75887 0)
(-1.16524 -0.724288 -2.15619e-19)
(-0.736057 -0.683798 0)
(-0.328612 -0.639331 2.73849e-19)
(0.0528496 -0.59348 9.49343e-20)
(0.407991 -0.547685 -9.05162e-20)
(0.73991 -0.503159 -1.74769e-19)
(1.04675 -0.460463 1.68672e-19)
(1.32971 -0.41956 0)
(1.59086 -0.381408 0)
(1.83085 -0.345305 0)
(2.05058 -0.313491 -4.43659e-19)
(2.2517 -0.285271 -1.43676e-19)
(2.43695 -0.25969 1.39325e-19)
(2.60811 -0.236092 0)
(2.76609 -0.214391 1.3064e-19)
(2.91181 -0.194566 -1.2782e-19)
(3.04634 -0.176481 -1.24475e-19)
(3.17071 -0.159988 0)
(3.28583 -0.144948 0)
(3.39257 -0.131226 0)
(3.49169 -0.118696 -1.1317e-19)
(3.58389 -0.107239 0)
(3.66979 -0.0967481 2.16805e-19)
(3.74994 -0.0871243 3.19163e-19)
(3.82486 -0.078277 -2.08805e-19)
(3.89498 -0.0701237 0)
(3.96072 -0.0625883 -1.00774e-19)
(4.02241 -0.0556011 0)
(4.08038 -0.0490986 -1.95585e-19)
(4.13488 -0.0430095 9.62964e-20)
(4.18618 -0.0372581 9.49787e-20)
(4.23455 -0.0317933 0)
(4.27989 -0.0263289 2.77993e-19)
(4.32391 -0.0205304 -1.82984e-19)
(4.36804 -0.0146861 -9.04393e-20)
(4.41197 -0.00931341 0)
(4.45509 -0.00467508 -8.83081e-20)
(4.49684 -0.000812136 -2.61849e-19)
(4.53672 0.00230665 0)
(4.57438 0.00473761 -1.709e-19)
(4.6095 0.00655756 -1.69235e-19)
(4.64177 0.00797468 -1.67626e-19)
(4.67121 0.00902381 0)
(4.69786 0.00973596 0)
(4.7218 0.0101822 0)
(4.74318 0.0104279 8.10519e-20)
(4.76219 0.0105179 8.04797e-20)
(4.77899 0.0104849 0)
(4.79378 0.0103543 1.58802e-19)
(4.80672 0.0101461 1.57816e-19)
(4.81799 0.0098716 0)
(4.82775 0.00954014 1.55995e-19)
(4.83613 0.00915971 3.10294e-19)
(4.84329 0.00873758 -1.54337e-19)
(4.84934 0.00828143 -1.53566e-19)
(4.8544 0.00779967 0)
(4.85859 0.00730161 0)
(4.86201 0.0067972 0)
(4.86475 0.00629616 -1.50746e-19)
(4.86692 0.00580722 1.50105e-19)
(4.86859 0.00533751 2.98945e-19)
(4.86984 0.00489223 -1.48856e-19)
(4.87074 0.00447452 1.48261e-19)
(4.87135 0.0040857 1.47668e-19)
(4.87173 0.00372571 0)
(4.87192 0.0033936 0)
(4.87196 0.0030881 -1.45969e-19)
(4.87189 0.00280792 0)
(4.87173 0.00255207 0)
(4.8715 0.00231992 2.8867e-19)
(4.87122 0.00211117 0)
(4.87091 0.00192582 1.43278e-19)
(4.87056 0.00176407 -1.42756e-19)
(4.87019 0.00162625 0)
(4.86979 0.00151282 1.41728e-19)
(4.86935 0.0014244 0)
(4.86888 0.00136185 0)
(4.86835 0.00132644 -1.40225e-19)
(4.86776 0.00132005 2.79462e-19)
(4.86709 0.00134537 -1.39247e-19)
(4.86631 0.00140626 0)
(4.86541 0.00150807 0)
(4.86435 0.00165816 1.37817e-19)
(4.86309 0.00186643 0)
(4.8616 0.00214623 1.36905e-19)
(4.85982 0.00251536 0)
(4.85768 0.00299764 0)
(4.8551 0.00362506 0)
(4.85197 0.0044409 1.35259e-19)
(4.84812 0.00550429 0)
(4.84338 0.00689697 -1.34556e-19)
(4.83747 0.00873381 0)
(4.83002 0.0111783 0)
(4.82054 0.0144699 2.67465e-19)
(4.80828 0.0189554 -2.67167e-19)
(4.79229 0.0251885 0)
(4.77062 0.0338861 0)
(4.74229 0.0466465 0)
(4.6978 0.0635348 8.04996e-19)
(4.64941 0.0947782 0)
(4.51331 0.121751 -5.40545e-19)
(0.193404 -0.0578189 7.21137e-21)
(0.860431 -2.06481 1.88321e-19)
(1.48287 -3.10934 0)
(1.97672 -3.30033 -1.47781e-19)
(2.37649 -3.13023 0)
(2.74558 -2.86058 0)
(3.10912 -2.5643 -1.1193e-20)
(3.45841 -2.24404 7.49051e-20)
(3.77465 -1.89188 8.99138e-20)
(4.04119 -1.50644 8.23275e-20)
(4.24637 -1.09398 0)
(4.38332 -0.665098 0)
(4.44967 -0.234885 -1.05676e-19)
(4.44716 0.187036 -2.10648e-19)
(4.38485 0.597112 2.03978e-19)
(4.2781 0.994747 0)
(4.14239 1.3773 1.87767e-19)
(3.98462 1.7339 -8.00513e-20)
(3.799 2.04082 0)
(3.56995 2.25975 1.60561e-19)
(3.28171 2.34273 7.15588e-20)
(2.93004 2.24421 -1.49856e-19)
(2.52809 1.93811 -7.54456e-20)
(2.09695 1.46094 0)
(1.68465 0.948004 1.69698e-19)
(1.46684 0.305291 1.85517e-19)
(1.28292 -0.474938 0)
(0.673335 -0.460148 2.16756e-19)
(-0.42238 0.549296 0)
(-1.64953 1.44896 1.54984e-19)
(-2.89443 2.20824 6.13379e-20)
(-4.12729 2.8278 0)
(-5.2657 3.28522 0)
(-6.26741 3.57663 0)
(-7.09442 3.70279 0)
(-7.73684 3.67102 0)
(-8.20911 3.50147 0)
(-8.53966 3.22736 1.04331e-19)
(-8.76317 2.88619 -1.55268e-19)
(-8.91492 2.51327 0)
(-9.02528 2.1372 0)
(-9.11621 1.77792 0)
(-9.20007 1.44686 -1.61914e-20)
(-9.28058 1.14855 1.31003e-19)
(-9.35516 0.882912 2.88266e-19)
(-9.41773 0.647311 -2.97788e-19)
(-9.46126 0.438222 -1.57466e-19)
(-9.47918 0.252243 1.50213e-19)
(-9.46672 0.0861667 8.15053e-21)
(-9.42236 -0.0626046 1.57369e-19)
(-9.34784 -0.19521 0)
(-9.24597 -0.311132 1.49217e-19)
(-9.12062 -0.409513 4.79781e-21)
(-8.97511 -0.490688 0)
(-8.81267 -0.555496 0)
(-8.6365 -0.605238 -1.26647e-19)
(-8.44974 -0.64153 0)
(-8.25536 -0.666318 0)
(-8.05602 -0.681893 1.08702e-19)
(-7.85394 -0.690884 2.00951e-19)
(-7.65069 -0.696227 -9.24881e-20)
(-7.44698 -0.701091 0)
(-7.24244 -0.708761 7.89422e-20)
(-7.03545 -0.72246 0)
(-6.82307 -0.745102 6.94652e-20)
(-6.6011 -0.77899 5.66619e-20)
(-6.36432 -0.825473 -1.03859e-19)
(-6.10686 -0.884617 -4.76601e-20)
(-5.82278 -0.954919 0)
(-5.50687 -1.03317 4.74556e-20)
(-5.1555 -1.11455 0)
(-4.76746 -1.19303 -6.86172e-21)
(-4.34451 -1.2621 -2.88064e-20)
(-3.89155 -1.31576 -5.87097e-20)
(-3.4161 -1.34949 9.04611e-20)
(-2.92737 -1.36086 -1.89596e-19)
(-2.43511 -1.34985 0)
(-1.9485 -1.31845 0)
(-1.47539 -1.27007 2.29569e-19)
(-1.02179 -1.20872 4.01843e-19)
(-0.591509 -1.13856 0)
(-0.186091 -1.06331 -1.68726e-19)
(0.192478 -0.986748 0)
(0.544415 -0.909294 4.98293e-19)
(0.870266 -0.834659 3.13386e-21)
(1.17049 -0.763676 -2.78541e-21)
(1.44664 -0.696998 -3.04853e-19)
(1.70044 -0.635116 0)
(1.93346 -0.578515 2.87966e-19)
(2.14711 -0.527147 1.76307e-21)
(2.34293 -0.479794 0)
(2.5227 -0.436096 0)
(2.68793 -0.396176 0)
(2.83989 -0.359962 -2.53223e-19)
(2.97978 -0.327176 0)
(3.10874 -0.297504 0)
(3.22781 -0.270647 0)
(3.33794 -0.246329 0)
(3.44001 -0.224295 0)
(3.53481 -0.20431 -2.20412e-19)
(3.62305 -0.186163 0)
(3.70539 -0.169661 -2.12719e-19)
(3.78241 -0.154632 -2.08916e-19)
(3.85463 -0.140918 2.05335e-19)
(3.92251 -0.128376 0)
(3.98648 -0.116877 1.98786e-19)
(4.0469 -0.106303 0)
(4.1041 -0.0965441 1.92964e-19)
(4.15835 -0.0875001 -1.90296e-19)
(4.20993 -0.0790769 -5.62798e-19)
(4.25909 -0.0711417 0)
(4.30604 -0.0636953 -5.48934e-19)
(4.35087 -0.0569042 -1.80576e-19)
(4.39372 -0.0507902 0)
(4.43486 -0.0452493 -3.53662e-19)
(4.47444 -0.040172 -3.49977e-19)
(4.51253 -0.0355039 5.19796e-19)
(4.5491 -0.0312366 0)
(4.58411 -0.0273763 1.70011e-19)
(4.61758 -0.0239198 1.68446e-19)
(4.64962 -0.0207403 5.00555e-19)
(4.68017 -0.0178778 0)
(4.70925 -0.0153562 0)
(4.73687 -0.0131433 0)
(4.76303 -0.011198 1.6133e-19)
(4.78776 -0.00948848 0)
(4.81107 -0.00798677 0)
(4.833 -0.00666802 -1.57939e-19)
(4.85357 -0.00551353 -1.56852e-19)
(4.87282 -0.0045048 0)
(4.8908 -0.00362888 0)
(4.90755 -0.00287578 -3.07754e-19)
(4.92311 -0.00223593 0)
(4.93753 -0.00169935 3.04198e-19)
(4.95086 -0.00125627 3.02511e-19)
(4.96316 -0.00089684 0)
(4.97448 -0.000610524 0)
(4.98487 -0.000386557 -2.97872e-19)
(4.99439 -0.000214866 -7.07156e-24)
(5.00311 -8.63823e-05 -5.94823e-24)
(5.01108 6.73403e-06 0)
(5.01836 7.09146e-05 -5.84747e-19)
(5.02501 0.000111252 0)
(5.03107 0.000131751 0)
(5.0366 0.000135645 0)
(5.04165 0.000125735 2.87436e-19)
(5.04626 0.000104684 0)
(5.05046 7.52215e-05 -5.7024e-19)
(5.0543 4.02692e-05 -2.83997e-19)
(5.05781 2.98418e-06 0)
(5.06103 -3.32494e-05 -2.81801e-19)
(5.06397 -6.48647e-05 0)
(5.06667 -8.81597e-05 0)
(5.06915 -9.93294e-05 -8.35872e-19)
(5.07143 -9.44791e-05 5.55184e-19)
(5.07352 -6.9587e-05 0)
(5.07544 -2.04171e-05 5.51133e-19)
(5.07718 5.76458e-05 -2.74578e-19)
(5.07876 0.000169835 0)
(5.08016 0.000322353 0)
(5.08139 0.000522835 0)
(5.08244 0.000780972 -8.12174e-19)
(5.08329 0.0011093 0)
(5.08391 0.00152429 -2.68901e-19)
(5.08429 0.00204772 0)
(5.08438 0.00270862 0)
(5.08414 0.00354594 0)
(5.0835 0.0046123 0)
(5.0824 0.00597951 0)
(5.08073 0.00774661 0)
(5.07836 0.0100524 -5.26497e-19)
(5.07514 0.0130931 0)
(5.07086 0.0171561 -2.62229e-19)
(5.06525 0.0226512 7.84944e-19)
(5.05806 0.030247 0)
(5.04872 0.0407617 0)
(5.03753 0.0562461 -5.2121e-19)
(5.02206 0.0773067 -5.2261e-19)
(5.00837 0.114483 5.1967e-19)
(4.98317 0.154849 5.22014e-19)
(0.369317 -1.51516 -3.72004e-19)
(1.00103 -3.63241 -2.6794e-19)
(1.46712 -4.11737 -1.71676e-19)
(1.79396 -4.00061 -9.65456e-20)
(2.08528 -3.7865 0)
(2.3919 -3.54944 1.83868e-19)
(2.70353 -3.25753 -1.07556e-19)
(2.99358 -2.88934 0)
(3.24082 -2.44559 -9.38111e-20)
(3.43205 -1.94052 0)
(3.56059 -1.39457 2.3881e-19)
(3.62562 -0.829222 0)
(3.63235 -0.264186 1.19616e-19)
(3.58461 0.28569 2.37695e-19)
(3.48301 0.802917 -2.29273e-19)
(3.33418 1.27583 0)
(3.15133 1.70023 -2.11142e-19)
(2.95146 2.07793 0)
(2.74697 2.40822 0)
(2.53564 2.67114 -1.79988e-19)
(2.29883 2.82065 0)
(2.01232 2.8061 -9.78867e-21)
(1.66638 2.60703 0)
(1.30732 2.18406 0)
(1.03868 1.3578 -7.74003e-23)
(0.647693 0.48684 -2.09281e-19)
(-0.474742 0.955461 -1.81333e-19)
(-1.87325 1.9593 -1.33521e-19)
(-3.24362 2.90782 0)
(-4.4914 3.64407 -1.93154e-19)
(-5.57218 4.18069 0)
(-6.45934 4.51882 -9.3278e-20)
(-7.1428 4.65796 0)
(-7.63199 4.62177 0)
(-7.95208 4.44278 1.03221e-19)
(-8.14227 4.15671 0)
(-8.2474 3.80075 -1.16495e-19)
(-8.30965 3.41043 1.92299e-20)
(-8.36169 3.01375 2.44364e-19)
(-8.42276 2.62857 -2.78576e-19)
(-8.49898 2.26322 0)
(-8.58655 1.91932 0)
(-8.67634 1.59527 -1.75773e-19)
(-8.75774 1.28898 0)
(-8.8214 0.999307 -1.552e-19)
(-8.86039 0.726536 1.60035e-19)
(-8.87045 0.47217 1.63927e-19)
(-8.85002 0.238054 0)
(-8.79975 0.025464 -1.67414e-19)
(-8.7216 -0.164811 -1.64342e-19)
(-8.61794 -0.332475 3.36806e-19)
(-8.49273 -0.477878 -1.55861e-19)
(-8.34988 -0.601176 -1.50649e-19)
(-8.19358 -0.702902 0)
(-8.0279 -0.784048 0)
(-7.85648 -0.846058 1.32194e-19)
(-7.68234 -0.890773 0)
(-7.5078 -0.92043 0)
(-7.33453 -0.937721 -2.22811e-19)
(-7.16364 -0.945882 -2.08652e-19)
(-6.99577 -0.94876 0)
(-6.83102 -0.950799 0)
(-6.66872 -0.956873 0)
(-6.50708 -0.971969 0)
(-6.34285 -1.00074 -1.36923e-19)
(-6.17113 -1.04702 1.29123e-19)
(-5.98547 -1.1132 1.05033e-19)
(-5.77822 -1.19976 1.85808e-19)
(-5.54125 -1.30474 0)
(-5.26688 -1.4234 1.38519e-20)
(-4.94919 -1.54829 0)
(-4.5853 -1.66977 1.01711e-21)
(-4.17644 -1.77726 1.42506e-20)
(-3.72831 -1.86092 5.68985e-20)
(-3.25046 -1.91337 -8.74148e-20)
(-2.75492 -1.93093 1.09985e-20)
(-2.25429 -1.91392 0)
(-1.76012 -1.86605 -1.77819e-19)
(-1.28185 -1.7932 -2.21422e-19)
(-0.826226 -1.70218 -5.06487e-19)
(-0.39695 -1.59938 0)
(0.00445003 -1.48993 3.06633e-19)
(0.376945 -1.37828 0)
(0.721563 -1.26824 -6.08588e-19)
(1.03872 -1.16254 3.00849e-19)
(1.32992 -1.06252 -2.94629e-19)
(1.59706 -0.969018 2.88128e-19)
(1.84202 -0.882447 5.57212e-19)
(2.06657 -0.802917 -2.74865e-19)
(2.27227 -0.730289 2.68335e-19)
(2.46062 -0.664052 0)
(2.63324 -0.603777 -5.0794e-19)
(2.79167 -0.54909 0)
(2.93718 -0.499559 -4.85594e-19)
(3.07093 -0.454744 4.75144e-19)
(3.19397 -0.414232 4.65193e-19)