/*--------------------------------*- C++ -*----------------------------------*\
  =========                 |
  \\      /  F ield         | OpenFOAM: The Open Source CFD Toolbox
   \\    /   O peration     | Website:  https://openfoam.org
    \\  /    A nd           | Version:  9
     \\/     M anipulation  |
\*---------------------------------------------------------------------------*/
FoamFile
{
    format      ascii;
    class       volScalarField;
    location    "0.093";
    object      k_0;
}
// * * * * * * * * * * * * * * * * * * * * * * * * * * * * * * * * * * * * * //

dimensions      [0 2 -2 0 0 0 0];

internalField   nonuniform List<scalar> 
12225
(
2.14589e-05
3.26827e-05
3.63706e-05
3.46089e-05
2.68331e-05
2.44863e-05
2.68346e-05
4.50789e-05
0.000104209
0.000146792
0.000161852
0.000162936
0.000154877
0.000117495
7.17335e-05
4.58157e-05
2.8004e-05
3.48117e-05
2.00703e-05
2.07246e-05
2.15449e-05
2.16649e-05
2.13069e-05
2.11263e-05
2.15186e-05
2.41609e-05
3.51702e-05
5.69396e-05
7.25456e-05
8.2804e-05
8.6852e-05
8.63395e-05
8.23516e-05
7.02348e-05
5.90851e-05
4.35726e-05
2.00028e-05
1.65364e-05
1.19944e-05
1.15551e-05
1.21325e-05
1.37544e-05
1.46254e-05
1.54081e-05
1.71647e-05
2.03397e-05
2.35737e-05
2.58554e-05
2.71008e-05
2.96719e-05
3.18265e-05
3.17958e-05
3.10784e-05
2.77772e-05
2.00379e-05
1.9941e-05
1.96482e-05
1.95366e-05
1.95138e-05
1.9457e-05
1.91319e-05
1.8556e-05
1.84614e-05
1.84341e-05
1.82486e-05
1.70775e-05
1.5611e-05
1.55866e-05
1.61925e-05
1.66759e-05
1.66607e-05
1.59964e-05
2.13291e-05
2.16949e-05
2.1865e-05
2.22852e-05
2.22625e-05
2.18153e-05
2.14594e-05
2.14778e-05
2.15978e-05
2.19263e-05
2.36483e-05
2.65712e-05
2.70321e-05
2.68043e-05
2.57865e-05
2.31956e-05
2.15051e-05
1.94538e-05
2.43861e-05
2.53529e-05
2.37212e-05
2.34273e-05
2.30395e-05
2.31869e-05
2.50608e-05
3.13527e-05
3.55265e-05
3.64592e-05
3.5768e-05
3.1417e-05
2.68397e-05
2.47027e-05
2.3524e-05
2.26709e-05
2.241e-05
2.25364e-05
2.77553e-05
2.46601e-05
2.12335e-05
2.07618e-05
2.08435e-05
2.16575e-05
2.5163e-05
2.75577e-05
2.77545e-05
2.73937e-05
2.58719e-05
2.39513e-05
2.27953e-05
2.22834e-05
2.21077e-05
2.20833e-05
2.21364e-05
2.24225e-05
2.68278e-05
3.31e-05
2.74374e-05
2.20564e-05
2.08994e-05
2.08262e-05
2.12178e-05
2.35813e-05
2.75639e-05
2.76703e-05
2.75676e-05
2.7415e-05
2.68536e-05
2.57399e-05
2.52218e-05
2.51558e-05
2.53316e-05
2.63693e-05
2.0794e-05
2.17499e-05
2.14469e-05
2.12512e-05
2.15204e-05
2.23305e-05
2.25222e-05
2.27781e-05
2.33958e-05
2.50538e-05
2.75184e-05
2.97221e-05
3.10237e-05
3.1361e-05
3.12769e-05
3.03631e-05
2.90413e-05
2.86988e-05
2.01226e-05
2.03004e-05
2.0583e-05
2.145e-05
2.56372e-05
3.8718e-05
4.35327e-05
3.89441e-05
3.3524e-05
3.36268e-05
4.01735e-05
7.96871e-05
0.000155114
0.000184831
0.000184102
0.000157119
9.88358e-05
6.35506e-05
2.00086e-05
2.01467e-05
2.06558e-05
2.30304e-05
4.10859e-05
7.16125e-05
7.03497e-05
4.7843e-05
3.74301e-05
3.78782e-05
5.21749e-05
0.000133611
0.000218475
0.000238423
0.000234281
0.00019942
0.000126579
7.96439e-05
2.00178e-05
2.02171e-05
2.10738e-05
2.72244e-05
4.61806e-05
4.77781e-05
3.77422e-05
2.83983e-05
2.60551e-05
2.6273e-05
2.97392e-05
4.60613e-05
9.25824e-05
0.000126784
0.000137726
0.000136841
0.000126474
9.55355e-05
2.00511e-05
2.07361e-05
2.1104e-05
2.14558e-05
2.53595e-05
4.027e-05
4.40536e-05
3.83926e-05
3.05906e-05
2.8415e-05
2.85042e-05
3.08647e-05
4.32194e-05
5.75118e-05
6.16774e-05
6.20265e-05
6.0868e-05
5.31149e-05
2.03683e-05
2.06109e-05
2.04558e-05
2.03467e-05
2.05539e-05
2.21805e-05
2.48256e-05
2.46995e-05
2.3486e-05
2.25869e-05
2.23626e-05
2.24257e-05
2.29031e-05
2.42997e-05
2.88893e-05
3.48786e-05
3.75823e-05
3.79888e-05
2.06895e-05
2.04737e-05
2.05484e-05
2.03692e-05
2.03122e-05
2.03739e-05
2.07752e-05
2.20596e-05
2.29303e-05
2.31498e-05
2.3086e-05
2.25162e-05
2.18666e-05
2.17502e-05
2.18571e-05
2.2481e-05
2.33641e-05
2.41322e-05
2.01851e-05
2.07705e-05
2.09214e-05
2.08928e-05
2.08939e-05
2.10037e-05
2.16507e-05
2.26913e-05
2.30407e-05
2.29993e-05
2.24439e-05
2.19007e-05
2.17883e-05
2.18951e-05
2.27203e-05
2.41813e-05
2.49342e-05
2.51377e-05
2.10852e-05
2.16605e-05
2.11183e-05
2.07658e-05
2.08208e-05
2.08574e-05
2.08669e-05
2.11924e-05
2.17935e-05
2.20614e-05
2.213e-05
2.21292e-05
2.19819e-05
2.16178e-05
2.15283e-05
2.15602e-05
2.16945e-05
2.18462e-05
2.01813e-05
2.02697e-05
2.03348e-05
2.06199e-05
2.08905e-05
2.09402e-05
2.09269e-05
2.09202e-05
2.09525e-05
2.12315e-05
2.15683e-05
2.15748e-05
2.15829e-05
2.16469e-05
2.19771e-05
2.29843e-05
2.38372e-05
2.42747e-05
2.02398e-05
2.04908e-05
2.06624e-05
2.10301e-05
2.11847e-05
2.1186e-05
2.10569e-05
2.08353e-05
2.07984e-05
2.08484e-05
2.10061e-05
2.16673e-05
2.39541e-05
2.55581e-05
2.58349e-05
2.56222e-05
2.48173e-05
2.42945e-05
2.02347e-05
2.04637e-05
2.05726e-05
2.05101e-05
2.0373e-05
2.03551e-05
2.0432e-05
2.10813e-05
2.2058e-05
2.32244e-05
2.43645e-05
2.47178e-05
2.4657e-05
2.46303e-05
2.49648e-05
2.7189e-05
3.27581e-05
3.6176e-05
2.0451e-05
3.00654e-05
3.54949e-05
3.13888e-05
2.42998e-05
2.17998e-05
2.12899e-05
2.13945e-05
2.20574e-05
2.25733e-05
2.26381e-05
2.2593e-05
2.2616e-05
2.2864e-05
2.39973e-05
2.65584e-05
2.80812e-05
2.84554e-05
2.07525e-05
2.24076e-05
2.28009e-05
2.21033e-05
2.08181e-05
2.05771e-05
2.0711e-05
2.13192e-05
2.18388e-05
2.21297e-05
2.22541e-05
2.22794e-05
2.22644e-05
2.21694e-05
2.21101e-05
2.21073e-05
2.21553e-05
2.2467e-05
2.08997e-05
2.34439e-05
2.40333e-05
2.34528e-05
2.24405e-05
2.24013e-05
2.27795e-05
2.28411e-05
2.24609e-05
2.18519e-05
2.15939e-05
2.15417e-05
2.15708e-05
2.17969e-05
2.26997e-05
2.34889e-05
2.3751e-05
2.36913e-05
2.49046e-05
2.73618e-05
2.6827e-05
2.54154e-05
2.45746e-05
2.44586e-05
2.43743e-05
2.36168e-05
2.24228e-05
2.21182e-05
2.21782e-05
2.28321e-05
2.60902e-05
3.29107e-05
3.66341e-05
3.75579e-05
3.73898e-05
3.57915e-05
2.06293e-05
2.41219e-05
3.39413e-05
3.5714e-05
3.2576e-05
2.52467e-05
2.20546e-05
2.11528e-05
2.1067e-05
2.13911e-05
2.34801e-05
3.19976e-05
3.82045e-05
3.8885e-05
3.74372e-05
3.20024e-05
2.73299e-05
2.46393e-05
2.55287e-05
3.45856e-05
3.80501e-05
3.1806e-05
2.35573e-05
2.11863e-05
2.06801e-05
2.063e-05
2.0711e-05
2.11689e-05
2.21596e-05
2.27937e-05
2.29926e-05
2.29687e-05
2.27101e-05
2.19301e-05
2.12106e-05
2.08268e-05
2.19961e-05
2.15315e-05
2.03739e-05
1.99387e-05
1.98359e-05
1.9859e-05
2.00073e-05
2.01353e-05
2.0153e-05
2.00922e-05
1.98452e-05
1.95413e-05
1.92209e-05
1.87654e-05
1.78809e-05
1.58823e-05
1.39683e-05
1.29698e-05
2.00138e-05
1.81649e-05
1.28706e-05
1.17222e-05
1.19408e-05
1.28851e-05
1.38689e-05
1.41429e-05
1.40858e-05
1.34592e-05
1.24916e-05
1.19074e-05
1.15633e-05
1.1418e-05
1.14138e-05
1.15986e-05
1.23982e-05
1.32813e-05
2.02188e-05
2.03259e-05
2.05918e-05
2.13226e-05
2.33582e-05
2.97802e-05
3.64802e-05
4.08122e-05
4.3843e-05
4.52855e-05
4.53268e-05
4.42959e-05
4.02761e-05
3.51729e-05
3.17074e-05
2.96078e-05
2.85065e-05
2.80609e-05
5.005e-05
3.41481e-05
3.35558e-05
3.93228e-05
5.16875e-05
8.62079e-05
0.0001382
0.000167203
0.000175321
0.000174151
0.000159547
0.000114727
7.90102e-05
5.81585e-05
4.77059e-05
4.36445e-05
4.28139e-05
4.31728e-05
0.0742499
0.0923951
0.0921493
0.0890447
0.0886395
0.0886064
0.0878178
0.0869668
0.0852748
0.0852409
0.0857529
0.0855982
0.0849296
0.0832745
0.082418
0.0821632
0.0816624
0.0798608
0.0741275
0.0691462
0.0667819
0.0661773
0.0662407
0.0669566
0.0698408
0.0727025
0.0758564
0.0777058
0.079233
0.0827775
0.0902598
0.107033
0.119387
0.131435
0.164492
0.189302
0.190902
0.192519
0.195692
0.255164
0.357477
0.242246
0.143455
0.124472
0.122689
0.123549
0.123964
0.123061
0.12171
0.119401
0.118371
0.117315
0.117103
0.117629
0.120485
0.124322
0.128251
0.134455
0.141839
0.150478
0.161804
0.173537
0.189604
0.206662
0.219834
0.222764
0.222291
0.21657
0.202844
0.183346
0.175707
0.173406
0.168044
0.145878
0.10377
0.0900973
0.088157
0.0876407
0.0863932
0.0827969
0.0775193
0.0754104
0.0750343
0.078781
0.0924458
0.114848
0.146346
0.191734
0.228671
0.239721
0.24077
0.229867
0.196343
0.152076
0.10604
0.0820583
0.0649736
0.0568477
0.0499482
0.0420525
0.0356443
0.0346972
0.0355768
0.0354377
0.0351925
0.0372531
0.0513788
0.114788
0.251971
0.420395
0.426395
0.143197
0.0743063
0.0563234
0.0468346
0.0399088
0.0338733
0.0310005
0.0295323
0.0291017
0.0290363
0.028963
0.0288376
0.0288095
0.0288163
0.0287848
0.0287602
0.0287387
0.0286905
0.0285926
0.0285937
0.0285892
0.0286791
0.0288259
0.0291781
0.0296433
0.0302103
0.0308448
0.0314511
0.0320083
0.032444
0.0326822
0.0327335
0.0326426
0.032447
0.0322468
0.0320887
0.0319249
0.0317327
0.0315316
0.0314243
0.031305
0.0312282
0.0311545
0.0310252
0.0308835
0.0307541
0.0305977
0.0304861
0.0303904
0.0300783
0.0294645
0.0289706
0.02869
0.0281536
0.0259522
0.012295
0.00240707
0.0036552
0.00695493
0.0075608
0.00777059
0.00788682
0.00801986
0.00825332
0.00859117
0.00918312
0.00925604
0.00882778
0.00706427
0.0678685
0.0651324
0.0829583
0.088535
0.0915334
0.0940835
0.0940483
0.0930151
0.0903168
0.086701
0.0822302
0.0770054
0.0722884
0.0689298
0.067458
0.0678266
0.0706155
0.0728136
0.0730469
0.0719947
0.0681361
0.0662042
0.0661782
0.0672798
0.0713871
0.0754401
0.0774199
0.0801813
0.084564
0.0870804
0.0898203
0.0949898
0.100239
0.107366
0.125817
0.152034
0.195568
0.237822
0.239181
0.243136
0.207482
0.143352
0.111929
0.0981968
0.0883443
0.0799181
0.0726112
0.0665536
0.0622941
0.0602091
0.0593745
0.0593153
0.0616059
0.0665351
0.0724996
0.0815228
0.0927922
0.105686
0.122479
0.141613
0.162505
0.185783
0.20805
0.217407
0.220296
0.22086
0.22043
0.217721
0.211367
0.200161
0.18311
0.159668
0.130161
0.117488
0.115546
0.122128
0.130696
0.131356
0.126765
0.113661
0.094043
0.073255
0.0576867
0.0479495
0.0402999
0.0369242
0.0346335
0.0335983
0.0334406
0.0311498
0.0237409
0.0190243
0.0170044
0.0148113
0.013064
0.0122574
0.0119585
0.0119648
0.0125504
0.0136409
0.0170954
0.0285319
0.03837
0.037342
0.0316967
0.0278737
0.0329704
0.0504255
0.183474
0.48228
0.297001
0.0865974
0.0465817
0.035488
0.0306082
0.028186
0.0267198
0.0259876
0.0252133
0.0247135
0.024189
0.0238862
0.0237514
0.0237311
0.0240127
0.0241004
0.0242626
0.0243401
0.0243903
0.0243311
0.0241775
0.0239557
0.0235869
0.0231568
0.0226827
0.0223682
0.022254
0.0223916
0.023061
0.0243105
0.0260293
0.0280816
0.0299537
0.0312261
0.03186
0.031997
0.0319556
0.0317446
0.0312526
0.0308004
0.0304789
0.0303686
0.0303803
0.0304451
0.0306098
0.0307395
0.030806
0.0307793
0.0306438
0.0305995
0.0306412
0.0307598
0.0307276
0.0304274
0.0301232
0.0295944
0.0278938
0.0231131
0.0163167
0.0114957
0.0101708
0.0101834
0.0103959
0.0105871
0.0106275
0.0106241
0.010494
0.00966652
0.00901019
0.00768422
0.054272
0.0426723
0.0507757
0.069339
0.0869436
0.0923166
0.0908328
0.0874136
0.0808211
0.0759084
0.072711
0.0697176
0.0650092
0.0600216
0.0558047
0.0528757
0.0512493
0.0506493
0.050633
0.0507599
0.0511291
0.0521555
0.0556975
0.0638458
0.0709165
0.0753974
0.0805422
0.0907988
0.0996848
0.102696
0.102904
0.104119
0.108039
0.121246
0.1657
0.202759
0.214056
0.21159
0.168361
0.127994
0.0843632
0.0651264
0.0525324
0.0421037
0.0353509
0.0294187
0.0263608
0.0235547
0.0222395
0.0214423
0.0211324
0.0210855
0.0217926
0.0231108
0.025374
0.0290391
0.0342901
0.0418872
0.0534399
0.07129
0.0977999
0.13197
0.169457
0.19611
0.206717
0.210812
0.211741
0.210821
0.203935
0.187626
0.162938
0.146593
0.143182
0.144631
0.15604
0.160431
0.159482
0.153944
0.144605
0.133867
0.121902
0.10735
0.0902769
0.0737404
0.0608363
0.0454366
0.0324538
0.0213592
0.0160811
0.0139904
0.0128432
0.0119403
0.0113412
0.0107754
0.010264
0.00986741
0.00970987
0.00968995
0.00997556
0.0110195
0.0146587
0.0280529
0.0576364
0.0719287
0.0614384
0.0426775
0.0452167
0.0988294
0.347527
0.387947
0.118317
0.0464387
0.0326221
0.0283504
0.0263154
0.0246517
0.0234349
0.022615
0.0221764
0.0220342
0.0220321
0.0211707
0.0201196
0.0192166
0.0186506
0.0185625
0.0191279
0.0196712
0.0206155
0.0212992
0.0216389
0.0217559
0.0215595
0.0210864
0.0202786
0.019471
0.0188952
0.0184935
0.018537
0.0187538
0.0190185
0.0192737
0.0197668
0.0203382
0.0207206
0.0208779
0.0209204
0.0209845
0.0211681
0.0215823
0.0219646
0.0224641
0.0229419
0.0232572
0.0235932
0.0239346
0.0241501
0.0242361
0.0242344
0.0241701
0.0239732
0.0235742
0.0222676
0.0215921
0.0218758
0.0228426
0.024678
0.0244217
0.0233948
0.0217923
0.0196366
0.0173405
0.0151773
0.0129841
0.0113858
0.0106231
0.0104625
0.0104523
0.0104233
0.0100263
0.043507
0.0414975
0.0585685
0.090469
0.0899247
0.0816213
0.0653596
0.0527064
0.0488911
0.0497173
0.0518694
0.0535213
0.0541111
0.0541775
0.0537799
0.0526212
0.0517951
0.0513428
0.051182
0.0515011
0.0532513
0.0608678
0.0708966
0.0784036
0.0860126
0.10404
0.123076
0.144324
0.157345
0.157565
0.154108
0.152862
0.162913
0.180424
0.18888
0.191354
0.167565
0.109577
0.072023
0.0542593
0.0381626
0.0292296
0.0242952
0.0199342
0.0179314
0.0163942
0.015669
0.0150893
0.0148108
0.0145381
0.0142969
0.0140878
0.0140374
0.0140415
0.0142437
0.0149203
0.0162259
0.0181125
0.0210606
0.0260998
0.0345926
0.0492078
0.074031
0.11457
0.161071
0.180169
0.187425
0.189089
0.186903
0.1751
0.164145
0.16202
0.162729
0.164903
0.16434
0.158204
0.143136
0.12089
0.0990811
0.0900029
0.0868138
0.0847693
0.0783695
0.072143
0.0703456
0.0681017
0.0612953
0.0522176
0.0329694
0.023121
0.0168718
0.0145606
0.0135075
0.0129029
0.012129
0.0110473
0.0102703
0.00988331
0.00979762
0.0102891
0.012392
0.0190509
0.0475839
0.0826119
0.0830182
0.0699541
0.0838214
0.230993
0.353357
0.194318
0.0597804
0.034195
0.0298417
0.0287381
0.0283992
0.0297124
0.0316454
0.0326811
0.0329553
0.0308683
0.0279608
0.0252942
0.0212436
0.0192027
0.0166373
0.0154555
0.0141959
0.0136323
0.0134143
0.0138552
0.0145765
0.0152035
0.0155583
0.0156933
0.0154754
0.0150638
0.0151516
0.0153784
0.0158808
0.0165971
0.0172423
0.017645
0.0180394
0.0185674
0.0188093
0.0188429
0.0189254
0.0191771
0.0197612
0.0205319
0.0211398
0.0216672
0.0221066
0.0222965
0.0224398
0.0228127
0.023127
0.0234104
0.0240744
0.0248699
0.0254024
0.0264608
0.0282582
0.0288894
0.0287713
0.0281052
0.0263308
0.0253454
0.0244911
0.0241228
0.0238634
0.0234397
0.0220976
0.0178072
0.0133465
0.0107041
0.00974178
0.00964025
0.00986221
0.010012
0.0499415
0.0728342
0.0956991
0.0830085
0.0547721
0.0364954
0.0341242
0.0360708
0.0410045
0.0472533
0.0528696
0.0564994
0.0580732
0.0592029
0.0610561
0.0664132
0.0683588
0.0678169
0.0672165
0.0680382
0.0721066
0.0784961
0.0895855
0.116167
0.143846
0.168377
0.186366
0.188549
0.185551
0.180496
0.176066
0.173767
0.173893
0.174485
0.15892
0.113192
0.0711752
0.0476725
0.0334545
0.025258
0.0201535
0.0169281
0.0154209
0.0145198
0.014132
0.0139105
0.0137935
0.0136553
0.0134754
0.0131876
0.0128594
0.0127237
0.0126983
0.0127145
0.0128274
0.013113
0.0136044
0.0142767
0.0150444
0.0162977
0.0180444
0.0205329
0.0254117
0.0355551
0.0550147
0.0894519
0.138382
0.166931
0.178333
0.181417
0.181278
0.176439
0.165371
0.151624
0.134827
0.106216
0.0667957
0.035661
0.0245171
0.0210615
0.0198842
0.0194284
0.0193647
0.0204773
0.0260054
0.0398657
0.0528612
0.0580078
0.0527231
0.0447293
0.0355428
0.0278008
0.0231361
0.020434
0.0188823
0.0168188
0.0145152
0.0125736
0.0113697
0.0110808
0.0120843
0.0168061
0.0301275
0.0777294
0.0916839
0.0927143
0.134748
0.293615
0.312991
0.102685
0.040884
0.0316022
0.0306401
0.0319331
0.0370302
0.0466904
0.0524252
0.0546157
0.0549864
0.0514937
0.0473597
0.0413867
0.0343008
0.0265559
0.0200658
0.0161764
0.0139441
0.0126197
0.0116489
0.0111268
0.0108161
0.0106798
0.0106074
0.0105351
0.0104387
0.0103465
0.0104251
0.0106874
0.0113447
0.0126635
0.0142351
0.0155128
0.0163118
0.0166338
0.0168889
0.0173129
0.0179411
0.0187144
0.0196607
0.0205693
0.0212326
0.0216494
0.0218856
0.0219479
0.0219271
0.0218249
0.0215945
0.0210195
0.0195677
0.0188187
0.0188
0.0190541
0.0199167
0.0221653
0.0259938
0.0289529
0.0295513
0.0289519
0.0270023
0.0256824
0.0252288
0.0252015
0.0250508
0.023165
0.0167979
0.011874
0.00942202
0.0085222
0.00845968
0.00885435
0.0468878
0.0760729
0.0595786
0.0310515
0.0240879
0.0256502
0.0310884
0.0431654
0.057843
0.0681757
0.0736935
0.0764278
0.0782699
0.0821209
0.0889714
0.0884247
0.084328
0.0800574
0.0778017
0.0736163
0.0828483
0.109599
0.132035
0.159376
0.178865
0.186334
0.188422
0.187558
0.183438
0.177886
0.17159
0.163187
0.148564
0.113896
0.0747281
0.0494926
0.0321931
0.024045
0.0191583
0.0163213
0.0149043
0.0141916
0.0139022
0.0137844
0.0137566
0.0137674
0.0137704
0.0137576
0.0137616
0.0138036
0.0140133
0.0145439
0.0154194
0.016494
0.0175337
0.0184049
0.0188572
0.0189999
0.018898
0.0180734
0.0174388
0.0172545
0.0172546
0.0178313
0.0196152
0.0227861
0.0300605
0.0452385
0.067724
0.0816481
0.0848692
0.0846681
0.0790417
0.0645674
0.0436299
0.0246427
0.0137919
0.00955085
0.00799152
0.00745897
0.00729267
0.00724655
0.00723647
0.00735445
0.00795921
0.00994275
0.0147457
0.0244774
0.0369893
0.0425579
0.041448
0.037236
0.0333418
0.0299331
0.0275523
0.0259681
0.0241757
0.0210607
0.0170745
0.0148539
0.0148213
0.0173615
0.0252732
0.0621912
0.094527
0.10706
0.179523
0.302797
0.217508
0.0647305
0.0349061
0.0320414
0.0336587
0.0418074
0.0616016
0.0710567
0.074588
0.0754734
0.0733243
0.0690815
0.0669854
0.0624112
0.0578157
0.0481645
0.035702
0.0233309
0.017285
0.0140647
0.0121214
0.0111251
0.0105271
0.0101701
0.00993209
0.00976491
0.00964746
0.00958854
0.0095887
0.00966989
0.00996882
0.0107019
0.0117822
0.0129758
0.0141207
0.0150535
0.0160744
0.0169841
0.0182757
0.0197475
0.0208127
0.0212995
0.0216182
0.0217391
0.0217043
0.0215989
0.021375
0.0208783
0.0202788
0.0191134
0.0166583
0.0144294
0.0136787
0.0137742
0.014349
0.0158476
0.0199637
0.0255558
0.0294206
0.030913
0.0306716
0.029224
0.0277725
0.0278865
0.0283765
0.0278102
0.0231717
0.0146132
0.010188
0.00841502
0.00788148
0.0079065
0.0568442
0.0476575
0.0239622
0.0181188
0.0211769
0.0318224
0.0546073
0.0741481
0.0851979
0.0914059
0.0943779
0.0976706
0.103294
0.103848
0.101657
0.0914079
0.0832791
0.0769391
0.0730499
0.0925645
0.112119
0.126391
0.147829
0.164047
0.171936
0.175295
0.176277
0.174059
0.167428
0.156226
0.136839
0.108024
0.0750983
0.0500335
0.0339022
0.025293
0.0194658
0.0169478
0.0155554
0.0147374
0.0143444
0.0141239
0.0140252
0.0140042
0.0140757
0.0141806
0.0144211
0.0148902
0.0156843
0.0170865
0.0192911
0.0224176
0.0261325
0.0284457
0.0296841
0.0302373
0.0303705
0.0299826
0.0286473
0.0273425
0.026177
0.0244888
0.0228992
0.0209391
0.0187233
0.0172809
0.0158677
0.0149664
0.0145887
0.0145083
0.0143867
0.0134008
0.0123239
0.0111646
0.00972727
0.00827542
0.00694911
0.00617
0.00579618
0.00561768
0.00555894
0.00558122
0.00568463
0.00580174
0.00592034
0.00612703
0.00663864
0.00780555
0.0101572
0.0144409
0.0211932
0.0262559
0.028878
0.0293586
0.0281085
0.0274547
0.027174
0.0260324
0.0231364
0.0203837
0.0195133
0.0201926
0.0239864
0.0474606
0.0910787
0.114847
0.207119
0.300634
0.152316
0.0492
0.0341504
0.0335287
0.0405189
0.0636392
0.0795885
0.0845337
0.0855809
0.0834963
0.0775421
0.074795
0.0710117
0.0693695
0.0671831
0.0634075
0.0567819
0.0424546
0.0264892
0.0189762
0.0153305
0.0129716
0.0117734
0.0111129
0.0106525
0.0103343
0.010116
0.00995022
0.00983296
0.00981686
0.00999786
0.0105844
0.0114477
0.0124976
0.0136797
0.0148761
0.0161897
0.0182184
0.0198674
0.0206951
0.0211472
0.0213605
0.0213025
0.0210795
0.0205532
0.0199614
0.0190365
0.0173731
0.0154521
0.0130213
0.010267
0.00759189
0.00608631
0.00585963
0.00605613
0.00685122
0.00904677
0.0158137
0.0252
0.0299685
0.0317541
0.0317004
0.0308751
0.0309127
0.0316658
0.0316149
0.0290997
0.0195771
0.011882
0.00874737
0.00778496
0.00762043
0.0352559
0.0304711
0.0133591
0.016423
0.0309544
0.0622354
0.080091
0.0901908
0.0970378
0.101111
0.106391
0.113032
0.113602
0.110431
0.09411
0.082382
0.0768595
0.0746884
0.0858701
0.0998802
0.108569
0.119506
0.130681
0.135573
0.137281
0.137873
0.137806
0.13257
0.119319
0.0997652
0.0749082
0.0520186
0.0360938
0.0272959
0.021384
0.0185813
0.0168551
0.015977
0.0154317
0.0150614
0.014944
0.0149433
0.0149617
0.015052
0.0151484
0.015674
0.0168402
0.0189507
0.0225535
0.02832
0.0332577
0.0358457
0.0370041
0.0374045
0.0374077
0.0363625
0.0349224
0.0340377
0.0323783
0.0306961
0.0294063
0.0277569
0.0263123
0.0249526
0.0241365
0.023299
0.0224101
0.0211717
0.0190921
0.0165626
0.0151056
0.0133803
0.0117044
0.0106069
0.00969508
0.00900974
0.00830876
0.00749346
0.00664559
0.00600093
0.0056253
0.0054637
0.0054391
0.005502
0.00555484
0.00560012
0.00565872
0.00578231
0.00600672
0.00645579
0.00719716
0.00839333
0.0100718
0.0125452
0.0149699
0.0171411
0.0203918
0.022512
0.0226733
0.021222
0.0204656
0.0207133
0.022896
0.0396445
0.08515
0.115633
0.216095
0.292557
0.109089
0.0428278
0.0343717
0.0374221
0.0551439
0.0804965
0.0902396
0.0925199
0.0923261
0.0868169
0.0802343
0.0755998
0.0719923
0.0705386
0.0693233
0.0674611
0.0647785
0.0583466
0.0433661
0.0273498
0.0208419
0.0169567
0.0150122
0.0141782
0.0135949
0.0130784
0.0126288
0.0121742
0.0117041
0.0113845
0.0113013
0.0115496
0.0122944
0.0135278
0.014861
0.0169081
0.018819
0.0199946
0.0204894
0.0208771
0.0208402
0.0205655
0.0199091
0.0186241
0.0169342
0.0150867
0.0124014
0.00952748
0.00674254
0.00502576
0.00397847
0.00329661
0.00285654
0.00278173
0.00284117
0.0030946
0.00386711
0.00614077
0.0138365
0.0254149
0.0306731
0.0324733
0.0327213
0.033004
0.0339986
0.0343667
0.0332509
0.0266213
0.0155743
0.0095914
0.00754048
0.00722009
0.0302061
0.0254065
0.00955627
0.0222031
0.0587295
0.081263
0.0924985
0.100329
0.106285
0.111276
0.121741
0.122282
0.114869
0.0986675
0.0794418
0.0736194
0.0728233
0.0776179
0.0850215
0.0886114
0.0904963
0.0950001
0.0969608
0.0988735
0.100925
0.101869
0.100671
0.0919191
0.0766834
0.0592269
0.041205
0.0300022
0.0241143
0.0208935
0.018973
0.0178503
0.0170374
0.0167064
0.0167312
0.0169839
0.0168265
0.0164507
0.0163972
0.0165044
0.0173982
0.019411
0.023391
0.0304327
0.0366546
0.0405181
0.0423866
0.0431641
0.0433821
0.0432674
0.0423593
0.0417971
0.0412642
0.0399054
0.0382725
0.0361294
0.0334416
0.0310491
0.0284187
0.0260308
0.0244098
0.023327
0.0226896
0.0224904
0.0226866
0.0227485
0.0225875
0.0222701
0.0218656
0.0211337
0.020281
0.0192279
0.0178126
0.0157177
0.0131799
0.0105762
0.0086362
0.00719907
0.00627415
0.00578637
0.00556861
0.00547992
0.00544033
0.00539987
0.005359
0.00537294
0.00549119
0.0056908
0.00591979
0.00618555
0.00635293
0.00649732
0.00713554
0.00858209
0.0107226
0.0140889
0.0169554
0.0181283
0.0198253
0.0332319
0.0800869
0.112301
0.213902
0.269721
0.102915
0.0395856
0.0350095
0.0422487
0.0662606
0.0904606
0.0973156
0.0986842
0.097521
0.0907126
0.0818756
0.0741348
0.0712688
0.070159
0.0695955
0.0683191
0.0670247
0.0641569
0.056968
0.0383719
0.0268073
0.0212475
0.0182475
0.0165019
0.0157764
0.0154878
0.0153608
0.0152723
0.0151378
0.0149045
0.0147123
0.014787
0.0156006
0.0168925
0.0182925
0.0192997
0.0198339
0.0203442
0.0203998
0.0202104
0.0196111
0.0181406
0.015884
0.0126464
0.00935695
0.00592138
0.00401134
0.0028339
0.0022034
0.00188238
0.00171218
0.0016953
0.00172573
0.00177609
0.00183814
0.00195979
0.00222131
0.00295946
0.0054847
0.0148329
0.0267843
0.0316232
0.0332655
0.034005
0.0355603
0.0363449
0.0359431
0.0326794
0.0217887
0.0125644
0.0082888
0.00708089
0.0276226
0.0222277
0.00823331
0.0412914
0.0777947
0.0955774
0.105129
0.112453
0.119942
0.125547
0.12738
0.119654
0.103292
0.0797487
0.0705993
0.0688369
0.0711306
0.0750666
0.075238
0.0715879
0.0718041
0.0725564
0.0728407
0.0738212
0.0762933
0.0771515
0.0759609
0.0675429
0.052352
0.037518
0.0280287
0.0234372
0.0211813
0.0200792
0.0192941
0.0189339
0.0192494
0.0194996
0.0195911
0.0185957
0.0181563
0.0180226
0.0182152
0.0191121
0.0219946
0.0284515
0.0363592
0.0419173
0.0460235
0.0483033
0.0494656
0.0502881
0.0508388
0.0512888
0.0516932
0.0520762
0.0522153
0.0521402
0.0513401
0.0499611
0.0474963
0.0439086
0.0390468
0.0335258
0.0276873
0.0239939
0.0209485
0.0190363
0.0180925
0.0185268
0.019868
0.0215503
0.0229321
0.0236139
0.0241884
0.0245914
0.0247905
0.0247552
0.0239891
0.0222052
0.0191509
0.0155728
0.0122159
0.00956815
0.00790859
0.00676716
0.00603293
0.00559305
0.00532625
0.00515695
0.00507
0.00506114
0.00520479
0.00543437
0.00558107
0.00552556
0.00518091
0.00473285
0.00441009
0.00468885
0.00665846
0.00918476
0.0120143
0.02469
0.0753853
0.107482
0.207067
0.249387
0.108467
0.0406331
0.0355327
0.0472042
0.0756261
0.0962014
0.102198
0.103581
0.102282
0.094125
0.0807688
0.0720791
0.0696596
0.0686672
0.0682412
0.0683633
0.0674287
0.0659556
0.0625198
0.05273
0.0335573
0.024748
0.0198635
0.0173202
0.0161324
0.0158379
0.0158265
0.0159213
0.0161467
0.0163063
0.0165127
0.0169562
0.0177063
0.0183432
0.0190452
0.0195081
0.0198033
0.0196945
0.0192993
0.0183265
0.0161442
0.0123315
0.0078316
0.00448264
0.00272561
0.00174582
0.00131209
0.00107078
0.0010663
0.00115404
0.0012612
0.00137467
0.00156845
0.00165426
0.00169432
0.00176346
0.0018713
0.00210401
0.00293077
0.00630031
0.0183389
0.0289455
0.0327755
0.0340648
0.0361832
0.0376526
0.0376816
0.0361998
0.0291407
0.0181879
0.0113768
0.0083351
0.0254769
0.0210143
0.00837322
0.0588219
0.0878099
0.104231
0.117217
0.126887
0.130398
0.130428
0.123888
0.106788
0.0800602
0.0663727
0.0631782
0.0640285
0.0679287
0.0682043
0.0615527
0.0578008
0.0567663
0.0552976
0.0541238
0.0549534
0.0580847
0.0596499
0.0593073
0.0540632
0.0407521
0.028372
0.023959
0.0220684
0.0213098
0.0210394
0.0216388
0.0223311
0.0231088
0.0233041
0.0230007
0.0209349
0.0201942
0.0201324
0.0211821
0.0250558
0.0311013
0.038103
0.0446947
0.04922
0.0515964
0.0532996
0.0541186
0.0547023
0.0550503
0.055303
0.0555949
0.0558317
0.0559413
0.0559852
0.0559855
0.0558485
0.0555155
0.0548643
0.0534477
0.0507207
0.0457081
0.0374558
0.0285104
0.0214005
0.0171426
0.0148601
0.0137718
0.0132236
0.0140566
0.0163281
0.0191506
0.0219385
0.0240989
0.0253588
0.0261207
0.0263582
0.0260736
0.0253431
0.0237829
0.0213364
0.0180959
0.0147816
0.0117966
0.00934708
0.00764258
0.00637581
0.00545965
0.00493506
0.00472615
0.00476321
0.00516971
0.00561098
0.005662
0.00524362
0.00424155
0.00353518
0.00341862
0.00380295
0.00559157
0.0152022
0.0671485
0.101443
0.193016
0.236821
0.12305
0.0442006
0.0365552
0.0489269
0.0809681
0.101326
0.10615
0.107168
0.10606
0.0979215
0.0821373
0.0725659
0.0698011
0.0684794
0.0672784
0.066691
0.0668057
0.0663477
0.0645281
0.0594486
0.0422151
0.0289554
0.0216843
0.017908
0.0161267
0.015565
0.0155249
0.0156446
0.0159928
0.0162812
0.0165578
0.0171104
0.0177228
0.0181602
0.0186031
0.0185686
0.0183357
0.0177364
0.016391
0.0136078
0.00849391
0.00450205
0.00242943
0.00137167
0.000916788
0.000715273
0.000720977
0.000775572
0.000903049
0.00132978
0.00161627
0.00203211
0.00251972
0.00252095
0.0024361
0.00221515
0.00213201
0.00218079
0.0024001
0.00357126
0.00901409
0.0234816
0.0312235
0.0337269
0.0360093
0.0383238
0.0389516
0.0383599
0.0346021
0.0244488
0.016449
0.0114022
0.0245006
0.0208031
0.0135301
0.0749753
0.101172
0.117168
0.126662
0.1308
0.13156
0.126672
0.112115
0.0866985
0.0658345
0.0575816
0.0561764
0.0590637
0.0615945
0.0601112
0.0509043
0.0459595
0.045438
0.0444546
0.0409161
0.0401171
0.0419393
0.0454924
0.046508
0.0451688
0.0382268
0.0266156
0.0223084
0.0215609
0.0214313
0.0223605
0.0256105
0.0272601
0.0271231
0.0262325
0.025022
0.0240582
0.0239344
0.024613
0.0263916
0.0303574
0.037249
0.045015
0.0507132
0.0535117
0.0549208
0.0555988
0.0558106
0.0558422
0.0557145
0.0556716
0.0556751
0.0559225
0.0560363
0.0560802
0.0562419
0.0563506
0.0564135
0.0564208
0.0562891
0.055717
0.0546024
0.0522804
0.04784
0.0391359
0.0273973
0.0184537
0.0140553
0.0119681
0.0107372
0.0100339
0.00969119
0.0103813
0.0125096
0.0160837
0.0200761
0.0235404
0.0253938
0.0262141
0.0263192
0.0259262
0.0252222
0.0241979
0.0225601
0.0202932
0.0172868
0.0139613
0.0105669
0.00764618
0.00575174
0.00466465
0.00433631
0.00453976
0.00542433
0.00593945
0.00584227
0.00464543
0.00339657
0.00330013
0.00421524
0.0110665
0.0575219
0.0938718
0.176305
0.226538
0.146515
0.0521415
0.0381044
0.04829
0.0801829
0.101637
0.108632
0.110216
0.109451
0.102073
0.0857225
0.0744245
0.0712003
0.0694521
0.0671779
0.0657818
0.0654318
0.0657298
0.0650517
0.0623932
0.050478
0.0340892
0.0241532
0.0184665
0.0156088
0.0142802
0.0139834
0.0140639
0.0144346
0.0149715
0.0153724
0.0158736
0.0161656
0.016315
0.0161922
0.0158545
0.0151084
0.0135484
0.0101633
0.00540115
0.00278636
0.00144518
0.000801216
0.00054549
0.000500879
0.000542213
0.000654954
0.00091154
0.00148749
0.0032584
0.00422776
0.00608935
0.00715005
0.00696167
0.00631453
0.00495686
0.00361967
0.00280386
0.00270408
0.00301426
0.00518151
0.0152515
0.0279455
0.0327596
0.035571
0.0384285
0.0397664
0.0396285
0.0377567
0.0303324
0.0212863
0.0150516
0.023074
0.0212766
0.0218746
0.0853277
0.107991
0.121419
0.128188
0.129966
0.127068
0.114888
0.0918961
0.0652739
0.0440595
0.0382821
0.0433779
0.0527993
0.055646
0.0551884
0.0485016
0.0374543
0.0345079
0.0342874
0.0331403
0.0304786
0.0301738
0.0320796
0.0353274
0.0364877
0.0349702
0.0280685
0.0219957
0.0204482
0.0207311
0.0221221
0.0255095
0.0298044
0.0315746
0.0313377
0.0293106
0.026842
0.0263595
0.0270568
0.0302858
0.0359137
0.0425545
0.049018
0.0528445
0.0546201
0.0555205
0.0558699
0.0558889
0.0555376
0.0551988
0.0548785
0.0545125
0.0541328
0.0539338
0.0540482
0.0545363
0.0552051
0.0559831
0.0563454
0.0564834
0.0562614
0.0557957
0.0548714
0.0531041
0.0506052
0.0463364
0.03644
0.0238943
0.0165523
0.0126951
0.010431
0.00893598
0.00791407
0.00730417
0.0070167
0.00761566
0.00980082
0.013892
0.0182255
0.0217375
0.0237616
0.0247797
0.0250667
0.0247889
0.0240209
0.0230689
0.0218921
0.0201637
0.0172131
0.0127996
0.00832361
0.00546923
0.00424051
0.00415354
0.00497658
0.00598799
0.00598338
0.00477102
0.00370774
0.00414787
0.00926313
0.0497696
0.0868246
0.160603
0.217245
0.17407
0.0652738
0.0408423
0.046674
0.0767938
0.100545
0.108652
0.11141
0.111714
0.10783
0.0923366
0.0783458
0.074995
0.0724912
0.0682917
0.0654846
0.064266
0.0645787
0.0650781
0.063578
0.0562405
0.0388313
0.0260375
0.0186954
0.0144296
0.0120783
0.0111439
0.0110582
0.011216
0.0117514
0.0121919
0.0124136
0.0123502
0.0121512
0.0117178
0.0109576
0.00931851
0.00592006
0.00329619
0.00173439
0.000902254
0.000510785
0.000364047
0.000372095
0.000431877
0.00061489
0.00109612
0.00214447
0.00440625
0.0101508
0.0131081