/*--------------------------------*- C++ -*----------------------------------*\
  =========                 |
  \\      /  F ield         | OpenFOAM: The Open Source CFD Toolbox
   \\    /   O peration     | Website:  https://openfoam.org
    \\  /    A nd           | Version:  9
     \\/     M anipulation  |
\*---------------------------------------------------------------------------*/
FoamFile
{
    format      ascii;
    class       surfaceScalarField;
    location    "0.093";
    object      phi_0;
}
// * * * * * * * * * * * * * * * * * * * * * * * * * * * * * * * * * * * * * //

dimensions      [0 3 -1 0 0 0 0];

internalField   nonuniform List<scalar> 
24170
(
3.11467e-06
1.34279e-07
3.02291e-06
9.17684e-08
2.9475e-06
7.54057e-08
2.84629e-06
1.0121e-07
2.7351e-06
1.11186e-07
2.62954e-06
1.05569e-07
2.52735e-06
1.02185e-07
2.42751e-06
9.98365e-08
2.33859e-06
8.89237e-08
2.26647e-06
7.21227e-08
2.20378e-06
6.26868e-08
2.1324e-06
7.13831e-08
2.03657e-06
9.58282e-08
1.91569e-06
1.20884e-07
1.78048e-06
1.35206e-07
1.63877e-06
1.41706e-07
1.48882e-06
1.49956e-07
1.72293e-07
1.31653e-06
3.46872e-06
2.33051e-07
3.42332e-06
1.3716e-07
3.43466e-06
6.40726e-08
3.45776e-06
7.81128e-08
3.4646e-06
1.04342e-07
3.45287e-06
1.17298e-07
3.43222e-06
1.2283e-07
3.41209e-06
1.19967e-07
3.3955e-06
1.05518e-07
3.37866e-06
8.89591e-08
3.35647e-06
8.48837e-08
3.32711e-06
1.00735e-07
3.29084e-06
1.32106e-07
3.24704e-06
1.64685e-07
3.19815e-06
1.84093e-07
3.14092e-06
1.98931e-07
3.0746e-06
2.16284e-07
2.51933e-07
2.99496e-06
3.69925e-06
6.19007e-08
3.72991e-06
1.06505e-07
3.6957e-06
9.82832e-08
3.67261e-06
1.01194e-07
3.66895e-06
1.08001e-07
3.67605e-06
1.10207e-07
3.68346e-06
1.15418e-07
3.68379e-06
1.19637e-07
3.67385e-06
1.15452e-07
3.65495e-06
1.07865e-07
3.63137e-06
1.08462e-07
3.60907e-06
1.2303e-07
3.59241e-06
1.48767e-07
3.58128e-06
1.7582e-07
3.57105e-06
1.94318e-07
3.56018e-06
2.09799e-07
3.54811e-06
2.28357e-07
2.60043e-07
3.54e-06
3.98639e-06
3.85976e-08
4.00832e-06
8.45724e-08
3.97771e-06
1.2889e-07
3.94512e-06
1.3379e-07
3.93782e-06
1.15301e-07
3.95736e-06
9.06703e-08
3.9859e-06
8.68768e-08
4.00248e-06
1.03058e-07
3.99598e-06
1.21947e-07
3.96931e-06
1.34534e-07
3.93427e-06
1.43503e-07
3.90314e-06
1.54162e-07
3.88275e-06
1.69154e-07
3.87246e-06
1.86114e-07
3.86694e-06
1.99839e-07
3.86187e-06
2.14865e-07
3.85637e-06
2.33855e-07
2.62705e-07
3.85371e-06
4.28521e-06
2.65825e-08
4.27981e-06
8.99721e-08
4.28083e-06
1.27872e-07
4.28177e-06
1.32842e-07
4.2819e-06
1.15172e-07
4.28499e-06
8.75838e-08
4.29155e-06
8.0314e-08
4.29647e-06
9.81437e-08
4.29222e-06
1.2619e-07
4.27351e-06
1.53246e-07
4.24049e-06
1.76522e-07
4.19943e-06
1.9522e-07
4.15966e-06
2.0893e-07
4.12849e-06
2.17285e-07
4.10803e-06
2.20301e-07
4.09805e-06
2.24843e-07
4.09845e-06
2.33457e-07
2.51896e-07
4.10926e-06
4.49081e-06
1.76137e-08
4.49302e-06
8.77608e-08
4.48036e-06
1.40532e-07
4.46797e-06
1.45229e-07
4.46765e-06
1.15498e-07
4.48279e-06
7.24384e-08
4.50641e-06
5.66936e-08
4.52654e-06
7.80199e-08
4.53321e-06
1.19522e-07
4.52367e-06
1.62782e-07
4.50254e-06
1.97651e-07
4.47778e-06
2.19983e-07
4.45627e-06
2.30442e-07
4.44139e-06
2.32165e-07
4.43263e-06
2.29052e-07
4.42966e-06
2.27819e-07
4.43157e-06
2.31548e-07
2.43696e-07
4.43977e-06
4.80215e-06
1.0475e-07
4.73554e-06
1.54374e-07
4.74478e-06
1.3129e-07
4.78578e-06
1.04227e-07
4.82535e-06
7.59277e-08
4.83209e-06
6.57038e-08
4.80477e-06
8.40112e-08
4.76645e-06
1.16344e-07
4.73855e-06
1.47423e-07
4.72813e-06
1.732e-07
4.73204e-06
1.93742e-07
4.74457e-06
2.0745e-07
4.76163e-06
2.13384e-07
4.78113e-06
2.12663e-07
4.80125e-06
2.08934e-07
4.82173e-06
2.07337e-07
4.8415e-06
2.11777e-07
2.24332e-07
4.86086e-06
5.29165e-06
1.68079e-07
5.20087e-06
2.45154e-07
5.15076e-06
1.81394e-07
5.13278e-06
1.22206e-07
5.14112e-06
6.75892e-08
5.1642e-06
4.26291e-08
5.18642e-06
6.17882e-08
5.1939e-06
1.08863e-07
5.18223e-06
1.59095e-07
5.15877e-06
1.96663e-07
5.13657e-06
2.15934e-07
5.12519e-06
2.18835e-07
5.12702e-06
2.11556e-07
5.13795e-06
2.01731e-07
5.15167e-06
1.95215e-07
5.16305e-06
1.95956e-07
5.16957e-06
2.0526e-07
2.21168e-07
5.17273e-06
5.66375e-06
4.98868e-08
5.67126e-06
2.37643e-07
5.63732e-06
2.15335e-07
5.58509e-06
1.74433e-07
5.52956e-06
1.23118e-07
5.50014e-06
7.20531e-08
5.50785e-06
5.40694e-08
5.53839e-06
7.83293e-08
5.56992e-06
1.2756e-07
5.59062e-06
1.7597e-07
5.60097e-06
2.05576e-07
5.60629e-06
2.13522e-07
5.60984e-06
2.08003e-07
5.6115e-06
2.00075e-07
5.60882e-06
1.97895e-07
5.60012e-06
2.04649e-07
5.58497e-06
2.2041e-07
2.41722e-07
5.56442e-06
5.85005e-06
1.05162e-07
5.92018e-06
1.67513e-07
5.96933e-06
1.66186e-07
5.99513e-06
1.48635e-07
6.00055e-06
1.17696e-07
5.97681e-06
9.58005e-08
5.93391e-06
9.69668e-08
5.89618e-06
1.16056e-07
5.88038e-06
1.4336e-07
5.88571e-06
1.70647e-07
5.89982e-06
1.91464e-07
5.90972e-06
2.03619e-07
5.90887e-06
2.0885e-07
5.89933e-06
2.09617e-07
5.88754e-06
2.09687e-07
5.87919e-06
2.12994e-07
5.87809e-06
2.21514e-07
2.36561e-07
5.88325e-06
6.21875e-06
1.25522e-08
6.28407e-06
1.02193e-07
6.34603e-06
1.04222e-07
6.39078e-06
1.03887e-07
6.39982e-06
1.08651e-07
6.3827e-06
1.12922e-07
6.37086e-06
1.08809e-07
6.3775e-06
1.09418e-07
6.38983e-06
1.31028e-07
6.38828e-06
1.72197e-07
6.36432e-06
2.15427e-07
6.32383e-06
2.44106e-07
6.28038e-06
2.52301e-07
6.24625e-06
2.43746e-07
6.2277e-06
2.28238e-07
6.22488e-06
2.15808e-07
6.23391e-06
2.12489e-07
2.21769e-07
6.2487e-06
5.71888e-06
9.95696e-09
5.78039e-06
4.06762e-08
5.80028e-06
8.43349e-08
5.7567e-06
1.4747e-07
5.68129e-06
1.84057e-07
5.61924e-06
1.74974e-07
5.60233e-06
1.25721e-07
5.63389e-06
7.78557e-08
5.69491e-06
7.00056e-08
5.75964e-06
1.07475e-07
5.80891e-06
1.66157e-07
5.83494e-06
2.18068e-07
5.83976e-06
2.47487e-07
5.82974e-06
2.53766e-07
5.81158e-06
2.46394e-07
5.79064e-06
2.3675e-07
5.76992e-06
2.3321e-07
2.39321e-07
5.75237e-06
7.11649e-06
-1.20163e-07
7.08146e-06
7.57074e-08
7.02973e-06
1.3607e-07
7.02038e-06
1.56819e-07
7.04275e-06
1.6169e-07
7.05807e-06
1.59653e-07
7.03707e-06
1.46716e-07
6.98991e-06
1.25021e-07
6.94702e-06
1.12891e-07
6.92935e-06
1.25141e-07
6.93596e-06
1.59547e-07
6.95326e-06
2.0077e-07
6.96833e-06
2.32415e-07
6.97452e-06
2.47584e-07
6.97192e-06
2.48993e-07
6.96321e-06
2.45455e-07
6.95241e-06
2.44016e-07
2.49071e-07
6.94266e-06
8.49215e-06
-1.26628e-07
8.49926e-06
6.86037e-08
8.49735e-06
1.37978e-07
8.50286e-06
1.51309e-07
8.50927e-06
1.55281e-07
8.50889e-06
1.60031e-07
8.49793e-06
1.57681e-07
8.47651e-06
1.46437e-07
8.45503e-06
1.34367e-07
8.44929e-06
1.30884e-07
8.46735e-06
1.41492e-07
8.50409e-06
1.64022e-07
8.54546e-06
1.9105e-07
8.57584e-06
2.17206e-07
8.5859e-06
2.38932e-07
8.57469e-06
2.5666e-07
8.54844e-06
2.70274e-07
2.80298e-07
8.51721e-06
1.04337e-05
1.19971e-07
1.03885e-05
1.13737e-07
1.03173e-05
2.09171e-07
1.02252e-05
2.43472e-07
1.0177e-05
2.03477e-07
1.02042e-05
1.32769e-07
1.02748e-05
8.70941e-08
1.03385e-05
8.27933e-08
1.03697e-05
1.03111e-07
1.03727e-05
1.27929e-07
1.0365e-05
1.49128e-07
1.03608e-05
1.683e-07
1.03628e-05
1.88999e-07
1.03663e-05
2.13751e-07
1.03649e-05
2.40293e-07
1.03566e-05
2.6497e-07
1.03435e-05
2.83356e-07
2.91978e-07
1.03318e-05
1.24487e-05
1.11818e-07
1.24571e-05
1.0536e-07
1.24855e-05
1.80781e-07
1.25392e-05
1.89809e-07
1.26003e-05
1.42361e-07
1.26271e-05
1.05997e-07
1.26099e-05
1.04285e-07
1.25705e-05
1.22215e-07
1.2539e-05
1.346e-07
1.25325e-05
1.34373e-07
1.25505e-05
1.3119e-07
1.25822e-05
1.36576e-07
1.26169e-05
1.54274e-07
1.26494e-05
1.81278e-07
1.26777e-05
2.11957e-07
1.27028e-05
2.39841e-07
1.27245e-05
2.61708e-07
2.75263e-07
1.27412e-05
1.5461e-05
1.47979e-07
1.53515e-05
2.14888e-07
1.52932e-05
2.39044e-07
1.52902e-05
1.92859e-07
1.53135e-05
1.18997e-07
1.53521e-05
6.74611e-08
1.53936e-05
6.2745e-08
1.54252e-05
9.06581e-08
1.54425e-05
1.17298e-07
1.54498e-05
1.26997e-07
1.5454e-05
1.27055e-07
1.5459e-05
1.31518e-07
1.54658e-05
1.47482e-07
1.54742e-05
1.7294e-07
1.54843e-05
2.01855e-07
1.54958e-05
2.28293e-07
1.55085e-05
2.49062e-07
2.63331e-07
1.55204e-05
1.84033e-05
7.22324e-08
1.85575e-05
6.07391e-08
1.86871e-05
1.09404e-07
1.87546e-05
1.25337e-07
1.87705e-05
1.03108e-07
1.87543e-05
8.36643e-08
1.8723e-05
9.40811e-08
1.86896e-05
1.24098e-07
1.86577e-05
1.49132e-07
1.86301e-05
1.54623e-07
1.86134e-05
1.43696e-07
1.8616e-05
1.28977e-07
1.86419e-05
1.21541e-07
1.86887e-05
1.2614e-07
1.87496e-05
1.40956e-07
1.88166e-05
1.61292e-07
1.88838e-05
1.81879e-07
2.00023e-07
1.89471e-05
2.25975e-05
2.73974e-07
2.25701e-05
8.81562e-08
2.27407e-05
-6.11814e-08
2.29652e-05
-9.9243e-08
2.31118e-05
-4.34378e-08
2.31393e-05
5.61768e-08
2.30885e-05
1.44898e-07
2.30334e-05
1.79112e-07
2.30179e-05
1.64669e-07
2.30389e-05
1.33616e-07
2.30687e-05
1.13893e-07
2.30828e-05
1.14945e-07
2.30735e-05
1.30785e-07
2.30493e-05
1.50322e-07
2.30255e-05
1.64798e-07
2.30145e-05
1.72285e-07
2.30233e-05
1.73107e-07
1.72171e-07
2.30511e-05
1.59564e-05
-3.16196e-08
1.60556e-05
-1.10908e-08
1.6175e-05
-1.8056e-07
1.62933e-05
-2.1751e-07
1.64046e-05
-1.54816e-07
1.65186e-05
-5.77383e-08
1.66333e-05
3.0158e-08
1.67303e-05
8.21405e-08
1.6791e-05
1.03984e-07
1.68097e-05
1.14862e-07
1.67921e-05
1.31546e-07
1.67531e-05
1.53885e-07
1.67133e-05
1.70603e-07
1.66922e-05
1.71465e-07
1.67035e-05
1.53439e-07
1.6752e-05
1.23753e-07
1.6836e-05
8.91075e-08
6.27056e-08
1.69455e-05
1.47504e-05
1.66e-07
1.4713e-05
2.62388e-08
1.46377e-05
-1.05253e-07
1.45641e-05
-1.43911e-07
1.45143e-05
-1.04993e-07
1.44868e-05
-3.02469e-08
1.44711e-05
4.58642e-08
1.44561e-05
9.71309e-08
1.44377e-05
1.22408e-07
1.44196e-05
1.32978e-07
1.44148e-05
1.36345e-07
1.44369e-05
1.31741e-07
1.44922e-05
1.1532e-07
1.45753e-05
8.83728e-08
1.4673e-05
5.57212e-08
1.47702e-05
2.65399e-08
1.48543e-05
4.99795e-09
-3.93217e-09
1.4921e-05
1.22813e-05
8.97222e-08
1.23578e-05
-5.02085e-08
1.24108e-05
-1.58233e-07
1.24874e-05
-2.20501e-07
1.25653e-05
-1.82939e-07
1.26228e-05
-8.77588e-08
1.26628e-05
5.89961e-09
1.27015e-05
5.84264e-08
1.27434e-05
8.04763e-08
1.27919e-05
8.44493e-08
1.28485e-05
7.97485e-08
1.29117e-05
6.86156e-08
1.29756e-05
5.13919e-08
1.30336e-05
3.03854e-08
1.30784e-05
1.09279e-08
1.31061e-05
-1.21666e-09
1.31148e-05
-3.66062e-09
4.43174e-09
1.31064e-05
1.10886e-05
4.7574e-08
1.11367e-05
-9.83407e-08
1.11203e-05
-1.41752e-07
1.10588e-05
-1.59066e-07
1.10195e-05
-1.43589e-07
1.10265e-05
-9.48275e-08
1.10614e-05
-2.89774e-08
1.10919e-05
2.79745e-08
1.11162e-05
5.60992e-08
1.11468e-05
5.39429e-08
1.11919e-05
3.46289e-08
1.12481e-05
1.23754e-08
1.13035e-05
-3.94304e-09
1.1345e-05
-1.11661e-08
1.13657e-05
-9.80321e-09
1.13666e-05
-2.09776e-09
1.13546e-05
8.32846e-09
2.07222e-08
1.13383e-05
1.003e-05
1.23361e-07
9.97745e-06
-4.5774e-08
9.94436e-06
-1.08661e-07
9.89822e-06
-1.1292e-07
9.85057e-06
-9.59451e-08
9.81121e-06
-5.54592e-08
9.78e-06
2.23034e-09
9.75936e-06
4.86076e-08
9.74744e-06
6.8023e-08
9.74765e-06
5.37337e-08
9.76183e-06
2.0446e-08
9.78743e-06
-1.32194e-08
9.81859e-06
-3.51093e-08
9.84927e-06
-4.18447e-08
9.87465e-06
-3.51813e-08
9.89263e-06
-2.0074e-08
9.90243e-06
-1.47911e-09
1.88674e-08
9.90429e-06
8.35631e-06
1.35032e-07
8.38238e-06
-7.1841e-08
8.42202e-06
-1.48302e-07
8.46046e-06
-1.51358e-07
8.48027e-06
-1.1575e-07
8.48361e-06
-5.88048e-08
8.49354e-06
-7.69667e-09
8.51719e-06
2.49563e-08
8.55041e-06
3.48044e-08
8.57519e-06
2.89541e-08
8.57751e-06
1.81196e-08
8.55558e-06
8.71088e-09
8.51882e-06
1.6591e-09
8.48185e-06
-4.8797e-09
8.45676e-06
-1.00955e-08
8.44968e-06
-1.29886e-08
8.46124e-06
-1.3036e-08
-8.20625e-09
8.48831e-06
7.41717e-06
7.73938e-08
7.43048e-06
-8.51488e-08
7.33403e-06
-5.18568e-08
7.24317e-06
-6.04958e-08
7.22076e-06
-9.3336e-08
7.26397e-06
-1.02014e-07
7.33989e-06
-8.36196e-08
7.41651e-06
-5.16582e-08
7.47185e-06
-2.05372e-08
7.49931e-06
1.49238e-09
7.50495e-06
1.24778e-08
7.49962e-06
1.40424e-08
7.49203e-06
9.24485e-09
7.48545e-06
1.70664e-09
7.48012e-06
-4.77164e-09
7.47599e-06
-8.85669e-09
7.47331e-06
-1.03539e-08
-9.37937e-09
7.47448e-06
6.20502e-06
-2.9636e-08
6.27255e-06
-1.5268e-07
6.3054e-06
-8.47011e-08
6.33469e-06
-8.97941e-08
6.34271e-06
-1.01353e-07
6.32953e-06
-8.88305e-08
6.30973e-06
-6.38268e-08
6.29925e-06
-4.1171e-08
6.30561e-06
-2.68958e-08
6.32808e-06
-2.09791e-08
6.36159e-06
-2.10343e-08
6.40015e-06
-2.45158e-08
6.438e-06
-2.8605e-08
6.47017e-06
-3.04609e-08
6.49381e-06
-2.84214e-08
6.50821e-06
-2.3252e-08
6.51468e-06
-1.68255e-08
-1.19523e-08
6.51725e-06
5.62661e-06
-7.14955e-08
5.59645e-06
-1.2252e-07
5.55688e-06
-4.51285e-08
5.51946e-06
-5.23714e-08
5.50075e-06
-8.26406e-08
5.49553e-06
-8.36104e-08
5.49534e-06
-6.364e-08
5.50186e-06
-4.76951e-08
5.52069e-06
-4.57271e-08
5.55253e-06
-5.28118e-08
5.59139e-06
-5.99022e-08
5.62888e-06
-6.20055e-08
5.65873e-06
-5.84491e-08
5.67908e-06
-5.08113e-08
5.69188e-06
-4.1222e-08
5.70061e-06
-3.19818e-08
5.70843e-06
-2.4645e-08
-2.05624e-08
5.71704e-06
4.85552e-06
-7.29582e-08
4.84354e-06
-1.10535e-07
4.8656e-06
-6.71934e-08
4.88928e-06
-7.60516e-08
4.90076e-06
-9.41151e-08
4.90203e-06
-8.48861e-08
4.89864e-06
-6.0246e-08
4.89409e-06
-4.31444e-08
4.88925e-06
-4.08918e-08
4.88405e-06
-4.76065e-08
4.87969e-06
-5.55433e-08
4.87847e-06
-6.07822e-08
4.88247e-06
-6.24567e-08
4.89221e-06
-6.05471e-08
4.90596e-06
-5.49695e-08
4.92067e-06
-4.66987e-08
4.93265e-06
-3.66195e-08
-2.73952e-08
4.93948e-06
4.22729e-06
4.11675e-06
4.04956e-06
3.97351e-06
3.87939e-06
3.7945e-06
3.73426e-06
3.69111e-06
3.65022e-06
3.60262e-06
3.54707e-06
3.48629e-06
3.42383e-06
3.36329e-06
3.30832e-06
3.26162e-06
3.225e-06
3.1976e-06
-1.72906e-07
1.72906e-07
-3.46658e-07
1.73751e-07
-4.79746e-07
1.33088e-07
-5.43701e-07
6.39544e-08
-5.2219e-07
-2.15101e-08
-4.20371e-07
-1.0182e-07
-2.41721e-07
-1.7865e-07
-9.90597e-10
-2.4073e-07
2.8244e-07
-2.8343e-07
5.86936e-07
-3.04497e-07
8.92859e-07
-3.05923e-07
1.18584e-06
-2.92977e-07
1.45689e-06
-2.71058e-07
1.70355e-06
-2.46653e-07
1.92012e-06
-2.16568e-07
2.09599e-06
-1.75879e-07
2.22642e-06
-1.3043e-07
2.3187e-06
-9.22782e-08
2.38367e-06
-6.49682e-08
2.43244e-06
-4.87714e-08
2.48173e-06
-4.9287e-08
2.55185e-06
-7.01226e-08
2.66003e-06
-1.0818e-07
2.81392e-06
-1.53891e-07
3.00475e-06
-1.90824e-07
3.21058e-06
-2.05834e-07
3.40381e-06
-1.93233e-07
3.55084e-06
-1.4702e-07
3.61345e-06
-6.26154e-08
3.55372e-06
5.97288e-08
3.34921e-06
2.04513e-07
3.00683e-06
3.42374e-07
2.58328e-06
4.23556e-07
2.12725e-06
4.56028e-07
1.63982e-06
4.87433e-07
1.30043e-06
3.39392e-07
1.35792e-06
-5.74957e-08
1.57278e-06
-2.14858e-07
1.54281e-06
2.9964e-08
1.25831e-06
2.84505e-07
4.82092e-07
7.76218e-07
-7.67159e-07
1.24925e-06
-1.97837e-06
1.21121e-06
-3.11682e-06
1.13845e-06
-4.17695e-06
1.06012e-06
-5.14519e-06
9.68239e-07
-6.02047e-06
8.75283e-07
-6.79799e-06
7.77519e-07
-7.47915e-06
6.81162e-07
-8.06208e-06
5.82933e-07
-8.54674e-06
4.8466e-07
-8.93123e-06
3.84488e-07
-9.21327e-06
2.8204e-07
-9.38899e-06
1.75719e-07
-9.45452e-06
6.55265e-08
-9.40904e-06
-4.54724e-08
-9.25318e-06
-1.55867e-07
-8.98735e-06
-2.65827e-07
-8.61471e-06
-3.72643e-07
-8.14466e-06
-4.70043e-07
-7.59608e-06
-5.48579e-07
-6.99961e-06
-5.96471e-07
-6.39685e-06
-6.02765e-07
-5.83882e-06
-5.5803e-07
-5.37677e-06
-4.6205e-07
-5.05068e-06
-3.26093e-07
-4.88103e-06
-1.69649e-07
-4.86568e-06
-1.53436e-08
-5.00339e-06
1.37702e-07
-5.27435e-06
2.70968e-07
-5.66417e-06
3.89822e-07
-6.16771e-06
5.03539e-07
-6.75721e-06
5.89498e-07
-7.31742e-06
5.60204e-07
-7.63901e-06
3.21593e-07
-7.55256e-06
-8.64507e-08
-7.138e-06
-4.1456e-07
-6.58588e-06
-5.52118e-07
-6.03038e-06
-5.55503e-07
-5.49828e-06
-5.32094e-07
-4.98863e-06
-5.09654e-07
-4.50824e-06
-4.80384e-07
-4.05985e-06
-4.48392e-07
-3.64168e-06
-4.18168e-07
-3.26019e-06
-3.81493e-07
-2.92802e-06
-3.3217e-07
-2.65393e-06
-2.74096e-07
-2.43499e-06
-2.18939e-07
-2.26735e-06
-1.67633e-07
-2.14475e-06
-1.22602e-07
-2.03973e-06
-1.05023e-07
-1.94075e-06
-9.89833e-08
-1.83554e-06
-1.05208e-07
-1.71171e-06
-1.23825e-07
-1.56076e-06
-1.50954e-07
-1.37626e-06
-1.84495e-07
-1.16325e-06
-2.13009e-07
-9.65255e-07
-1.97999e-07
-8.21211e-07
-1.44044e-07
-7.0468e-07
-1.1653e-07
-4.4683e-07
-2.5785e-07
-2.88967e-08
-4.17934e-07
4.20645e-07
-4.49542e-07
9.38725e-07
-5.1808e-07
1.44284e-06
-5.04114e-07
1.59069e-06
-1.47848e-07
1.33618e-06
2.5451e-07
1.26623e-06
6.9947e-08
1.68793e-06
-4.217e-07
1.66319e-06
2.47388e-08
1.44735e-07
1.51846e-06
-2.4009e-06
2.54564e-06
-4.60853e-06
2.20763e-06
-6.34544e-06
1.7369e-06
-7.65008e-06
1.30464e-06
-8.59401e-06
9.43934e-07
-9.23579e-06
6.41779e-07
-9.61695e-06
3.81157e-07
-9.76938e-06
1.52429e-07
-9.72139e-06
-4.79832e-08
-9.50472e-06
-2.16678e-07
-9.1439e-06
-3.60817e-07
-8.66557e-06
-4.78324e-07
-8.09993e-06
-5.65649e-07
-7.47646e-06
-6.23467e-07
-6.81926e-06
-6.57203e-07
-6.14651e-06
-6.72747e-07
-5.47086e-06
-6.75645e-07
-4.80062e-06
-6.70241e-07
-4.13931e-06
-6.6131e-07
-3.48712e-06
-6.52197e-07
-2.84185e-06
-6.45264e-07
-2.19799e-06
-6.43867e-07
-1.55282e-06
-6.4517e-07
-9.08209e-07
-6.44607e-07
-2.77269e-07
-6.3094e-07
3.22015e-07
-5.99284e-07
8.67725e-07
-5.4571e-07
1.34121e-06
-4.73489e-07
1.73324e-06
-3.92024e-07
2.04727e-06
-3.14032e-07
2.29917e-06
-2.519e-07
2.51127e-06
-2.12104e-07
2.70541e-06
-1.9414e-07
2.8996e-06
-1.94182e-07
3.10717e-06
-2.07576e-07
3.33748e-06
-2.30309e-07
3.59735e-06
-2.59864e-07
3.89148e-06
-2.94138e-07
4.22155e-06
-3.30068e-07
4.58509e-06
-3.6354e-07
4.97525e-06
-3.90158e-07
5.38115e-06
-4.05898e-07
5.79119e-06
-4.1004e-07
6.19184e-06
-4.00653e-07
6.56689e-06
-3.75044e-07
6.91079e-06
-3.43907e-07
7.21214e-06
-3.01344e-07
7.45119e-06
-2.39053e-07
7.62982e-06
-1.78628e-07
7.71085e-06
-8.10373e-08
7.68491e-06
2.59411e-08
7.55086e-06
1.34054e-07
7.11795e-06
4.32913e-07
6.24662e-06
8.71328e-07
4.86569e-06
1.38093e-06
3.06043e-06
1.80526e-06
1.39731e-06
1.66312e-06
3.54182e-07
1.04312e-06
-6.86159e-08
4.22798e-07
-4.97265e-08
-1.88894e-08
1.90217e-07
-2.39943e-07
5.1011e-07
-3.19894e-07
8.00938e-07
-2.90828e-07
9.92998e-07
-1.9206e-07
1.08821e-06
-9.52096e-08
1.10934e-06
-2.1134e-08
1.11519e-06
-5.85025e-09
1.08288e-06
3.23107e-08
3.21279e-08
1.05075e-06
-4.44555e-08
2.17362e-07
-9.92688e-08
2.28565e-07
-1.05954e-07
1.39774e-07
-6.41958e-08
2.21959e-08
4.30607e-08
-1.28767e-07
2.30077e-07
-2.88835e-07
4.82212e-07
-4.30785e-07
7.74896e-07
-5.33414e-07
1.08274e-06
-5.91272e-07
1.38255e-06
-6.04307e-07
1.66036e-06
-5.83739e-07
1.90806e-06
-5.40671e-07
2.12066e-06
-4.83665e-07
2.29944e-06
-4.25425e-07
2.45546e-06
-3.72589e-07
2.59213e-06
-3.12556e-07
2.70022e-06
-2.3852e-07
2.78737e-06
-1.79421e-07
2.88313e-06
-1.60731e-07
3.00418e-06
-1.69823e-07
3.12921e-06
-1.74316e-07
3.22848e-06
-1.69394e-07
3.30059e-06
-1.80293e-07
3.37096e-06
-2.24261e-07
3.45153e-06
-2.71393e-07
3.528e-06
-2.82298e-07
3.58391e-06
-2.49144e-07
3.59855e-06
-1.61667e-07
3.53559e-06
3.53546e-10
3.38665e-06
2.0866e-07
3.15221e-06
4.38956e-07
2.89268e-06
6.01902e-07
2.62109e-06
6.95147e-07
2.34775e-06
7.29371e-07
2.23221e-06
6.02977e-07
2.11236e-06
4.59242e-07
1.53845e-06
5.16411e-07
3.56537e-07
9.67055e-07
-1.22471e-06
1.61121e-06
-2.81801e-06
1.8778e-06
-4.04369e-06
2.0019e-06
-4.89528e-06
2.10084e-06
-5.70119e-06
2.01712e-06
-6.47284e-06
1.91011e-06
-7.17134e-06
1.75862e-06
-7.8058e-06
1.6027e-06
-8.37137e-06
1.44085e-06
-8.87447e-06
1.28062e-06
-9.31549e-06
1.12218e-06
-9.69725e-06
9.64696e-07
-1.002e-05
8.07429e-07
-1.02835e-05
6.47954e-07
-1.04862e-05
4.8471e-07
-1.06268e-05
3.16346e-07
-1.07025e-05
1.41223e-07
-1.07012e-05
-4.67744e-08
-1.06228e-05
-2.34233e-07
-1.04599e-05
-4.28706e-07
-1.02105e-05
-6.22102e-07
-9.87764e-06
-8.02879e-07
-9.47207e-06
-9.54148e-07
-9.01444e-06
-1.0541e-06
-8.53803e-06
-1.07917e-06
-8.0846e-06
-1.01146e-06
-7.69841e-06
-8.48237e-07
-7.41719e-06
-6.07309e-07
-7.26614e-06
-3.20698e-07
-7.26398e-06
-1.75064e-08
-7.40817e-06
2.81895e-07
-7.68708e-06
5.49877e-07
-8.04231e-06
7.45053e-07
-8.36169e-06
8.22912e-07
-8.50834e-06
7.36147e-07
-8.39143e-06
4.43296e-07
-8.03583e-06
-3.40041e-08
-7.58738e-06
-5.34901e-07
-7.12767e-06
-8.74271e-07
-6.66631e-06
-1.01348e-06
-6.18776e-06
-1.03405e-06
-5.70591e-06
-1.01395e-06
-5.23804e-06
-9.77515e-07
-4.78826e-06
-9.30167e-07
-4.35934e-06
-8.77308e-07
-3.96772e-06
-8.0979e-07
-3.63102e-06
-7.18191e-07
-3.34794e-06
-6.1525e-07
-3.10228e-06
-5.19765e-07
-2.88721e-06
-4.34008e-07
-2.69199e-06
-3.6285e-07
-2.51538e-06
-2.99207e-07
-2.34405e-06
-2.76356e-07
-2.17128e-06
-2.71754e-07
-1.98917e-06
-2.8732e-07
-1.79097e-06
-3.22022e-07
-1.57515e-06
-3.66775e-07
-1.34041e-06
-4.19234e-07
-1.09676e-06
-4.56662e-07
-8.71891e-07
-4.22867e-07
-6.97592e-07
-3.18344e-07
-5.51142e-07
-2.6298e-07
-3.13094e-07
-4.95898e-07
4.54306e-08
-7.76458e-07
5.68671e-07
-9.72782e-07
1.14414e-06
-1.09355e-06
1.45309e-06
-8.13058e-07
1.50943e-06
-2.04188e-07
1.91788e-06
-1.53938e-07
2.42653e-06
-4.38711e-07
1.70001e-06
3.04821e-07
-5.79608e-07
2.30436e-06
-3.194e-06
4.13285e-06
-4.98496e-06
4.33659e-06
-6.3084e-06
3.53107e-06
-7.32777e-06
2.75627e-06
-8.09763e-06
2.0745e-06
-8.67284e-06
1.51914e-06
-9.07932e-06
1.04827e-06
-9.32186e-06
6.23699e-07
-9.40258e-06
2.33147e-07
-9.31908e-06
-1.31485e-07
-9.07381e-06
-4.61949e-07
-8.6884e-06
-7.46225e-07
-8.18895e-06
-9.77779e-07
-7.60692e-06
-1.14768e-06
-6.97268e-06
-1.2577e-06
-6.31258e-06
-1.31731e-06
-5.64385e-06
-1.34148e-06
-4.9788e-06
-1.3407e-06
-4.32486e-06
-1.32418e-06
-3.68461e-06
-1.30156e-06
-3.05706e-06
-1.27975e-06
-2.43835e-06
-1.26397e-06
-1.82225e-06
-1.25997e-06
-1.2044e-06
-1.26301e-06
-5.84932e-07
-1.26408e-06
2.79547e-08
-1.24383e-06
6.24062e-07
-1.19539e-06
1.18343e-06
-1.10507e-06
1.68716e-06
-9.7722e-07
2.11994e-06
-8.24806e-07
2.4767e-06
-6.70793e-07
2.76559e-06
-5.40791e-07
3.00505e-06
-4.51557e-07
3.217e-06
-4.06091e-07
3.42128e-06
-3.98464e-07
3.63342e-06
-4.19714e-07
3.86523e-06
-4.62124e-07
4.12595e-06
-5.2058e-07
4.42245e-06
-5.90644e-07
4.75836e-06
-6.6598e-07
5.13212e-06
-7.37293e-07
5.53687e-06
-7.94915e-07
5.96174e-06
-8.30764e-07
6.3912e-06
-8.39502e-07
6.81161e-06
-8.21066e-07
7.21282e-06
-7.76245e-07
7.57708e-06
-7.08173e-07
7.89644e-06
-6.20703e-07
8.16292e-06
-5.05537e-07
8.35764e-06
-3.73347e-07
8.48955e-06
-2.12947e-07
8.5336e-06
-1.81021e-08
8.48692e-06
1.80735e-07
8.39499e-06
5.24835e-07
8.23557e-06
1.03075e-06
7.93723e-06
1.67927e-06
7.29838e-06
2.44412e-06
6.20291e-06
2.75859e-06
4.90606e-06
2.33997e-06
3.83549e-06
1.49338e-06
3.16119e-06
6.55401e-07
2.8865e-06
3.47531e-08
2.85267e-06
-2.86065e-07
2.88486e-06
-3.23023e-07
2.86634e-06
-1.73539e-07
2.77068e-06
4.55114e-10
2.62943e-06
1.20112e-07
2.50002e-06
1.23563e-07
2.40345e-06
1.28882e-07
9.59132e-08
2.33966e-06
1.43703e-07
7.36592e-08
2.43346e-07
1.28922e-07
3.35047e-07
4.80723e-08
5.00871e-07
-1.43627e-07
7.53793e-07
-3.81689e-07
1.06909e-06
-6.04128e-07
1.40901e-06
-7.70713e-07
1.74175e-06
-8.66149e-07
2.04359e-06
-8.93112e-07
2.30185e-06
-8.62567e-07
2.51344e-06
-7.95331e-07
2.67757e-06
-7.04802e-07
2.79644e-06
-6.0253e-07
2.87267e-06
-5.0166e-07
2.91881e-06
-4.1873e-07
2.96004e-06
-3.53778e-07
3.01639e-06
-2.94876e-07
3.09083e-06
-2.5386e-07
3.17519e-06
-2.45085e-07
3.24974e-06
-2.44375e-07
3.30479e-06
-2.29363e-07
3.35558e-06
-2.20185e-07
3.42489e-06
-2.49608e-07
3.50907e-06
-3.08436e-07
3.56953e-06
-3.3186e-07
3.56753e-06
-2.80291e-07
3.49644e-06
-1.78055e-07
3.37353e-06
-3.87649e-08
3.18929e-06
1.84596e-07
2.93368e-06
4.64269e-07
2.65244e-06
7.20196e-07
2.36573e-06
8.88612e-07
2.05421e-06
1.00667e-06
1.657e-06
1.12658e-06
9.68705e-07
1.29127e-06
-2.47075e-07
1.67502e-06
-1.90284e-06
2.17218e-06
-3.41857e-06
2.48278e-06
-4.47588e-06
2.66852e-06
-5.32539e-06
2.72731e-06
-6.03793e-06
2.71445e-06
-6.57302e-06
2.63592e-06
-7.06249e-06
2.50659e-06
-7.52238e-06
2.37e-06
-7.97273e-06
2.20898e-06
-8.41283e-06
2.04279e-06
-8.83951e-06
1.86753e-06
-9.2489e-06
1.69001e-06
-9.63561e-06
1.50889e-06
-9.99535e-06
1.32443e-06
-1.0323e-05
1.13511e-06
-1.06142e-05
9.39119e-07
-1.08644e-05
7.34884e-07
-1.10689e-05
5.20847e-07
-1.12233e-05
2.95642e-07
-1.13276e-05
5.75521e-08
-1.13747e-05
-1.87163e-07
-1.13661e-05
-4.37265e-07
-1.12988e-05
-6.89438e-07
-1.11703e-05
-9.31407e-07
-1.09797e-05
-1.14467e-06
-1.07304e-05
-1.30348e-06
-1.04325e-05
-1.37702e-06
-1.0106e-05
-1.33796e-06
-9.77987e-06
-1.17439e-06
-9.48698e-06
-9.002e-07
-9.25172e-06
-5.55955e-07
-9.07906e-06
-1.90172e-07
-8.95912e-06
1.61958e-07
-8.852e-06
4.42759e-07
-8.72888e-06
6.21932e-07
-8.53135e-06
6.25383e-07
-8.20168e-06
4.06471e-07
-7.73912e-06
-1.92626e-08
-7.21965e-06
-5.53475e-07
-6.71538e-06
-1.03917e-06
-6.23935e-06
-1.3503e-06
-5.78391e-06
-1.46892e-06
-5.36409e-06
-1.45387e-06
-4.99919e-06
-1.37885e-06
-4.67565e-06
-1.30105e-06
-4.35499e-06
-1.25082e-06
-4.01234e-06
-1.21996e-06
-3.66005e-06
-1.16208e-06
-3.33256e-06
-1.04568e-06
-3.04226e-06
-9.05547e-07
-2.78593e-06
-7.76095e-07
-2.56737e-06
-6.5257e-07
-2.36142e-06
-5.68807e-07
-2.15677e-06
-5.03851e-07
-1.95549e-06
-4.77635e-07
-1.75471e-06
-4.7254e-07
-1.55132e-06
-4.90703e-07
-1.34119e-06
-5.32157e-07
-1.12568e-06
-5.82286e-07
-9.09384e-07
-6.35526e-07
-6.69515e-07
-6.96531e-07
-4.23603e-07
-6.68779e-07
-2.23294e-07
-5.18652e-07
-7.22211e-08
-4.14053e-07
4.41973e-08
-6.12316e-07
2.98442e-07
-1.0307e-06
8.82574e-07
-1.55691e-06
1.34125e-06
-1.55223e-06
1.40175e-06
-8.73556e-07
1.6543e-06
-4.56737e-07
2.12367e-06
-6.2331e-07
1.67933e-06
5.63354e-09
-2.20986e-07
2.20513e-06
-2.64082e-06
4.7242e-06
-4.34754e-06
5.83956e-06
-5.26932e-06
5.25838e-06
-6.02975e-06
4.2915e-06
-6.75899e-06
3.48551e-06
-7.44978e-06
2.76529e-06
-8.05715e-06
2.12651e-06
-8.52441e-06
1.51553e-06
-8.82354e-06
9.22826e-07
-8.93688e-06
3.46484e-07
-8.86444e-06
-2.03922e-07
-8.61459e-06
-7.11798e-07
-8.20792e-06
-1.15289e-06
-7.67416e-06
-1.51154e-06
-7.0493e-06
-1.77253e-06
-6.37282e-06
-1.93418e-06
-5.67737e-06
-2.01276e-06
-4.98381e-06
-2.03503e-06
-4.30424e-06
-2.02026e-06
-3.64767e-06
-1.98075e-06
-3.01809e-06
-1.93114e-06
-2.4165e-06
-1.88133e-06
-1.83831e-06
-1.84217e-06
-1.27609e-06
-1.8222e-06
-7.22156e-07
-1.81694e-06
-1.76708e-07
-1.80953e-06
3.59358e-07
-1.77989e-06
8.77723e-07
-1.71376e-06
1.37313e-06
-1.60048e-06
1.83549e-06
-1.43959e-06
2.25369e-06
-1.243e-06
2.61957e-06
-1.03667e-06
2.93159e-06
-8.52818e-07
3.19645e-06
-7.16415e-07
3.42751e-06
-6.37149e-07
3.64203e-06
-6.12986e-07
3.85787e-06
-6.35552e-07
4.09146e-06
-6.95715e-07
4.35711e-06
-7.86227e-07
4.6656e-06
-8.99138e-07
5.02178e-06
-1.02216e-06
5.42294e-06
-1.13845e-06
5.85858e-06
-1.23056e-06
6.31343e-06
-1.28561e-06
6.77118e-06
-1.29725e-06
7.2149e-06
-1.26479e-06
7.63172e-06
-1.19307e-06
8.00996e-06
-1.08641e-06
8.33415e-06
-9.44897e-07
8.59931e-06
-7.70698e-07
8.79659e-06
-5.70624e-07
8.90815e-06
-3.24501e-07
8.92693e-06
-3.68916e-08
8.85769e-06
2.49975e-07
8.72168e-06
6.6085e-07
8.56191e-06
1.19051e-06
8.51687e-06
1.72431e-06
8.54052e-06
2.42047e-06
8.26795e-06
3.03116e-06
7.57024e-06
3.03768e-06
6.66075e-06
2.40286e-06
5.81908e-06
1.49708e-06
5.21409e-06
6.39739e-07
4.84489e-06
8.31334e-08
4.59288e-06
-7.1009e-08
4.36996e-06
4.93854e-08
4.16108e-06
2.09334e-07
3.96923e-06
3.11962e-07
3.76492e-06
3.27874e-07
3.52235e-06
3.71452e-07
3.36669e-07
3.28159e-06
7.32721e-08
3.87044e-10
1.79434e-07
2.27597e-08
4.41201e-07
-2.13694e-07
8.24513e-07
-5.2694e-07
1.24723e-06
-8.04408e-07
1.6412e-06
-9.98094e-07
1.97264e-06
-1.10216e-06
2.23176e-06
-1.12527e-06
2.42283e-06
-1.08419e-06
2.55676e-06
-9.96494e-07
2.6433e-06
-8.81871e-07
2.69484e-06
-7.5634e-07
2.72573e-06
-6.33419e-07
2.75036e-06
-5.26287e-07
2.76443e-06
-4.32809e-07
2.75871e-06
-3.48052e-07
2.75046e-06
-2.86631e-07
2.74269e-06
-2.46083e-07
2.70266e-06
-2.05058e-07
2.64286e-06
-1.84578e-07
2.62934e-06
-2.15837e-07
2.6997e-06
-2.9055e-07
2.83286e-06
-3.82771e-07
2.96994e-06
-4.45511e-07
3.0527e-06
-4.14618e-07
3.03752e-06
-2.6511e-07
2.90023e-06
-4.07676e-08
2.62564e-06
2.35825e-07
2.26131e-06
5.4892e-07
1.84244e-06
8.8314e-07
1.35951e-06
1.20313e-06
7.55485e-07
1.49263e-06
-3.40286e-08
1.79619e-06
-1.08027e-06
2.17282e-06
-2.36464e-06
2.57564e-06
-3.61189e-06
2.92227e-06
-4.58947e-06
3.14976e-06
-5.33886e-06
3.23217e-06
-5.89456e-06
3.22422e-06
-6.34278e-06
3.17553e-06
-6.73414e-06
3.10582e-06
-7.09828e-06
3.00006e-06
-7.4608e-06
2.86911e-06
-7.81541e-06
2.72461e-06
-8.17118e-06
2.56475e-06
-8.52362e-06
2.39524e-06
-8.87112e-06
2.21503e-06
-9.20958e-06
2.02847e-06
-9.53552e-06
1.83484e-06
-9.84531e-06
1.63422e-06
-1.01349e-05
1.4247e-06
-1.04004e-05
1.20457e-06
-1.06379e-05
9.72388e-07
-1.08446e-05
7.27541e-07
-1.1019e-05
4.70078e-07
-1.11635e-05
2.02075e-07
-1.12792e-05
-7.143e-08
-1.13602e-05
-3.5636e-07
-1.14103e-05
-6.39307e-07
-1.14284e-05
-9.13337e-07
-1.14073e-05
-1.16574e-06
-1.13349e-05
-1.37591e-06
-1.11967e-05
-1.51517e-06
-1.09839e-05
-1.55079e-06
-1.07003e-05
-1.45791e-06
-1.03647e-05
-1.23588e-06
-1.00015e-05
-9.1916e-07
-9.62415e-06
-5.6747e-07
-9.21795e-06
-2.44246e-07
-8.77878e-06
3.59316e-09
-8.27665e-06
1.19799e-07
-7.72164e-06
7.03698e-08
-7.14181e-06
-1.73361e-07
-6.56574e-06
-5.95331e-07
-6.04285e-06
-1.07636e-06
-5.59737e-06
-1.48465e-06
-5.21757e-06
-1.7301e-06
-4.88318e-06
-1.80331e-06
-4.58364e-06
-1.75341e-06
-4.31579e-06
-1.6467e-06
-4.07274e-06
-1.5441e-06
-3.83774e-06
-1.48583e-06
-3.591e-06
-1.4667e-06
-3.31844e-06
-1.43465e-06
-3.01851e-06
-1.34561e-06
-2.69772e-06
-1.22633e-06
-2.36655e-06
-1.10727e-06
-2.06678e-06
-9.5234e-07
-1.81382e-06
-8.2177e-07
-1.59031e-06
-7.27359e-07
-1.3872e-06
-6.80748e-07
-1.19384e-06
-6.65898e-07
-1.00351e-06
-6.81029e-07
-8.14067e-07
-7.21604e-07
-6.21743e-07
-7.74609e-07
-4.4053e-07
-8.1674e-07
-2.38852e-07
-8.98209e-07
1.09984e-08
-9.1863e-07
2.56752e-07
-7.64406e-07
4.31283e-07
-5.88584e-07
4.98881e-07
-6.79914e-07
6.64171e-07
-1.19599e-06
1.06426e-06
-1.957e-06
1.42061e-06
-1.90858e-06
1.61187e-06
-1.06482e-06
1.89206e-06
-7.36921e-07
1.7023e-06
-4.33556e-07
4.16097e-07
1.29184e-06
-1.61632e-06
4.23755e-06
-3.38223e-06
6.49011e-06
-4.32835e-06
6.78568e-06
-4.90577e-06
5.8358e-06
-5.60625e-06
4.99199e-06
-6.36856e-06
4.24782e-06
-7.13219e-06
3.52892e-06
-7.81038e-06
2.8047e-06
-8.346e-06
2.05115e-06
-8.70434e-06
1.28116e-06
-8.86107e-06
5.03217e-07
-8.81681e-06
-2.48179e-07
-8.58226e-06
-9.46354e-07
-8.16858e-06
-1.56657e-06
-7.60412e-06
-2.076e-06
-6.92729e-06
-2.44937e-06