/*--------------------------------*- C++ -*----------------------------------*\
  =========                 |
  \\      /  F ield         | OpenFOAM: The Open Source CFD Toolbox
   \\    /   O peration     | Website:  https://openfoam.org
    \\  /    A nd           | Version:  9
     \\/     M anipulation  |
\*---------------------------------------------------------------------------*/
FoamFile
{
    format      ascii;
    class       volVectorField;
    location    "0.093";
    object      UMean;
}
// * * * * * * * * * * * * * * * * * * * * * * * * * * * * * * * * * * * * * //

dimensions      [0 1 -1 0 0 0 0];

internalField   nonuniform List<vector> 
12225
(
(9.84261 0.0446704 0)
(9.54807 0.0602498 0)
(9.24795 0.0583562 0)
(8.9431 0.0570094 0)
(8.64283 0.0563534 0)
(8.3527 0.0554989 0)
(8.07293 0.0543272 0)
(7.80373 0.0533468 0)
(7.5418 0.0523155 0)
(7.28913 0.0520368 0)
(7.03849 0.0514615 0)
(6.79783 0.0524638 0)
(6.54876 0.052315 0)
(6.31584 0.0558476 0)
(6.05007 0.056702 0)
(5.81966 0.0663183 0)
(5.49991 0.0710322 0)
(5.2606 0.0948549 0)
(10.0264 0.0528177 0)
(10.0862 0.0755366 0)
(10.1249 0.0749514 0)
(10.1384 0.0762724 0)
(10.1343 0.0796627 0)
(10.1196 0.0828012 0)
(10.0961 0.0853386 0)
(10.0657 0.0876851 0)
(10.0271 0.0901273 0)
(9.98261 0.0928977 0)
(9.92936 0.0962268 0)
(9.87199 0.100205 0)
(9.80335 0.105685 0)
(9.73224 0.112086 0)
(9.64367 0.122804 0)
(9.55418 0.13448 0)
(9.43674 0.158056 0)
(9.31864 0.18096 0)
(10.0053 0.0304514 0)
(10.037 0.052881 0)
(10.0654 0.0555641 0)
(10.0827 0.0580142 0)
(10.093 0.0627478 0)
(10.1008 0.0675742 0)
(10.1076 0.0715407 0)
(10.1132 0.0753968 0)
(10.1168 0.0792353 0)
(10.1181 0.0840008 0)
(10.1171 0.0889928 0)
(10.1134 0.0956975 0)
(10.1074 0.102941 0)
(10.0979 0.113519 0)
(10.0867 0.126336 0)
(10.0713 0.145219 0)
(10.0581 0.170733 0)
(10.043 0.202249 0)
(9.99794 0.0301473 0)
(10.0203 0.0586969 0)
(10.0425 0.0645776 0)
(10.0566 0.0665135 0)
(10.064 0.07048 0)
(10.0686 0.0752027 0)
(10.0725 0.0794357 0)
(10.0756 0.0832544 0)
(10.0775 0.087176 0)
(10.078 0.0916079 0)
(10.0773 0.0969316 0)
(10.0754 0.103385 0)
(10.0725 0.111644 0)
(10.0686 0.122158 0)
(10.0644 0.13626 0)
(10.0612 0.1547 0)
(10.0609 0.178264 0)
(10.0673 0.20488 0)
(10.0082 0.0210685 0)
(10.0251 0.0461508 0)
(10.0439 0.0540511 0)
(10.0571 0.0568394 0)
(10.0639 0.0609017 0)
(10.0675 0.0661172 0)
(10.0701 0.0711098 0)
(10.0722 0.0757602 0)
(10.0732 0.0804125 0)
(10.0729 0.0856534 0)
(10.0713 0.0916915 0)
(10.0687 0.0989785 0)
(10.0652 0.107888 0)
(10.0614 0.119058 0)
(10.0574 0.133222 0)
(10.0551 0.150834 0)
(10.055 0.17152 0)
(10.0601 0.193355 0)
(9.98608 0.0198137 0)
(10 0.0456621 0)
(10.017 0.0562982 0)
(10.0307 0.0603885 0)
(10.0391 0.0645198 0)
(10.0442 0.069819 0)
(10.0479 0.075249 0)
(10.0509 0.0803589 0)
(10.0529 0.0854308 0)
(10.0537 0.09096 0)
(10.0534 0.0972967 0)
(10.052 0.104837 0)
(10.05 0.113932 0)
(10.0477 0.125136 0)
(10.0456 0.138776 0)
(10.045 0.155088 0)
(10.0462 0.173207 0)
(10.0509 0.192084 0)
(10.0075 0.0141294 0)
(10.0176 0.0370042 0)
(10.0315 0.0487208 0)
(10.0439 0.0540823 0)
(10.0519 0.0584992 0)
(10.0565 0.0638364 0)
(10.0595 0.0695777 0)
(10.0621 0.0751696 0)
(10.0644 0.0807276 0)
(10.0658 0.0867232 0)
(10.0663 0.0935494 0)
(10.0659 0.101576 0)
(10.0648 0.111079 0)
(10.0635 0.122458 0)
(10.0624 0.135789 0)
(10.0625 0.151182 0)
(10.0642 0.167768 0)
(10.0683 0.185066 0)
(10.005 0.0146929 0)
(10.0124 0.0356796 0)
(10.0234 0.0478475 0)
(10.0345 0.0544982 0)
(10.0426 0.0596721 0)
(10.0479 0.0653162 0)
(10.0514 0.0713447 0)
(10.0541 0.077331 0)
(10.0562 0.0832971 0)
(10.0576 0.0896732 0)
(10.0583 0.0968547 0)
(10.0585 0.105195 0)
(10.0583 0.114887 0)
(10.0582 0.126185 0)
(10.0583 0.139036 0)
(10.0596 0.15346 0)
(10.0619 0.168753 0)
(10.0664 0.18461 0)
(10.0105 0.00985442 0)
(10.0146 0.0295375 0)
(10.0226 0.0420375 0)
(10.0316 0.0494648 0)
(10.0391 0.0549063 0)
(10.0444 0.0605618 0)
(10.0483 0.0667984 0)
(10.0514 0.0732254 0)
(10.054 0.0796718 0)
(10.0558 0.0863857 0)
(10.0569 0.093741 0)
(10.0575 0.102137 0)
(10.0578 0.111772 0)
(10.0583 0.122858 0)
(10.0592 0.135243 0)
(10.0611 0.148929 0)
(10.064 0.163237 0)
(10.0687 0.178044 0)
(9.99305 0.0125102 0)
(9.99758 0.0280705 0)
(10.0049 0.0407474 0)
(10.0132 0.0492477 0)
(10.0202 0.0554013 0)
(10.0254 0.0611892 0)
(10.0291 0.0673771 0)
(10.0323 0.0739292 0)
(10.0353 0.0807353 0)
(10.0381 0.0879381 0)
(10.0403 0.0957583 0)
(10.0421 0.104478 0)
(10.0437 0.114196 0)
(10.0456 0.12506 0)
(10.0479 0.136893 0)
(10.0513 0.149712 0)
(10.0553 0.162939 0)
(10.061 0.176606 0)
(9.99542 0.00836205 0)
(10.0009 0.0243564 0)
(10.0076 0.035956 0)
(10.0148 0.0443537 0)
(10.0211 0.0511087 0)
(10.0261 0.0573715 0)
(10.0299 0.0637137 0)
(10.033 0.0703052 0)
(10.0357 0.0771396 0)
(10.0381 0.0843441 0)
(10.0401 0.0920985 0)
(10.0421 0.100668 0)
(10.0441 0.110119 0)
(10.0465 0.120592 0)
(10.0494 0.13187 0)
(10.0532 0.144008 0)
(10.0576 0.156447 0)
(10.0632 0.169351 0)
(10.0045 0.00622211 0)
(10.0059 0.0226627 0)
(10.01 0.0342138 0)
(10.016 0.0431253 0)
(10.0223 0.0503489 0)
(10.028 0.0567711 0)
(10.033 0.0631982 0)
(10.0373 0.070036 0)
(10.0412 0.0773105 0)
(10.0446 0.0849749 0)
(10.0476 0.09304 0)
(10.0502 0.101682 0)
(10.0528 0.110967 0)
(10.0556 0.121053 0)
(10.0589 0.131774 0)
(10.0628 0.143212 0)
(10.0675 0.154865 0)
(10.073 0.166951 0)
(9.99899 0.00896192 0)
(9.9988 0.0197394 0)
(10.0021 0.0307545 0)
(10.0078 0.0397247 0)
(10.0139 0.0467619 0)
(10.0192 0.0530128 0)
(10.0237 0.0593754 0)
(10.0277 0.0661984 0)
(10.0318 0.0734706 0)
(10.0359 0.0811537 0)
(10.04 0.0892214 0)
(10.0441 0.0977951 0)
(10.0482 0.106898 0)
(10.0526 0.116662 0)
(10.0573 0.126911 0)
(10.0627 0.137748 0)
(10.0684 0.148701 0)
(10.0751 0.160082 0)
(9.9992 0.00878945 0)
(10.0024 0.0187928 0)
(10.0064 0.0293371 0)
(10.0113 0.0382749 0)
(10.0166 0.045593 0)
(10.0218 0.0520899 0)
(10.0265 0.0584507 0)
(10.0309 0.0650859 0)
(10.0352 0.0721183 0)
(10.0395 0.0796111 0)
(10.0438 0.0875457 0)
(10.0482 0.0959855 0)
(10.0527 0.104855 0)
(10.0574 0.114259 0)
(10.0623 0.123976 0)
(10.0678 0.134185 0)
(10.0737 0.144395 0)
(10.0804 0.15503 0)
(9.99641 0.00341926 0)
(9.99978 0.0157553 0)
(10.0033 0.0253861 0)
(10.0075 0.0332652 0)
(10.0127 0.0401138 0)
(10.0184 0.0465905 0)
(10.0239 0.0531306 0)
(10.029 0.059932 0)
(10.0339 0.0670169 0)
(10.0387 0.0744212 0)
(10.0436 0.0821487 0)
(10.0487 0.0902813 0)
(10.0541 0.0987467 0)
(10.0597 0.107613 0)
(10.0658 0.116646 0)
(10.0722 0.126011 0)
(10.0791 0.135254 0)
(10.0865 0.14485 0)
(10.0141 0.00396913 0)
(10.0147 0.015167 0)
(10.0169 0.0232418 0)
(10.021 0.0298979 0)
(10.0262 0.0362897 0)
(10.0317 0.0427828 0)
(10.0371 0.0493929 0)
(10.0425 0.0560885 0)
(10.0479 0.0628874 0)
(10.0536 0.0699023 0)
(10.0594 0.0771765 0)
(10.0655 0.0847901 0)
(10.0717 0.0926524 0)
(10.0782 0.100841 0)
(10.0849 0.109128 0)
(10.092 0.117702 0)
(10.0993 0.126119 0)
(10.1072 0.134882 0)
(9.99328 0.00393236 0)
(9.99199 0.011983 0)
(9.99288 0.0188397 0)
(9.99643 0.0251574 0)
(10.0015 0.0312209 0)
(10.0072 0.037091 0)
(10.013 0.0428671 0)
(10.0188 0.0487155 0)
(10.0248 0.0547678 0)
(10.0309 0.061156 0)
(10.0374 0.0678668 0)
(10.0441 0.0749051 0)
(10.0511 0.0821025 0)
(10.0584 0.0894951 0)
(10.0659 0.0968432 0)
(10.074 0.104358 0)
(10.082 0.111627 0)
(10.0907 0.119169 0)
(9.98742 0.00871696 0)
(9.98688 0.0110205 0)
(9.98811 0.0149508 0)
(9.99154 0.0195207 0)
(9.99634 0.0243274 0)
(10.002 0.0294052 0)
(10.0081 0.0347701 0)
(10.0145 0.0403369 0)
(10.0211 0.0459792 0)
(10.028 0.0516938 0)
(10.0352 0.0574822 0)
(10.0428 0.0634474 0)
(10.0506 0.0695221 0)
(10.0587 0.0757934 0)
(10.0669 0.0820449 0)
(10.0754 0.0884737 0)
(10.084 0.0946765 0)
(10.0929 0.101142 0)
(9.9918 0.0046237 0)
(9.99632 0.00706759 0)
(10.0016 0.0101171 0)
(10.007 0.0134879 0)
(10.0124 0.0170495 0)
(10.0182 0.0206412 0)
(10.0245 0.0242149 0)
(10.0313 0.0278944 0)
(10.0385 0.031805 0)
(10.046 0.0360378 0)
(10.0537 0.0405607 0)
(10.0617 0.0453702 0)
(10.0699 0.0503306 0)
(10.0784 0.0554557 0)
(10.0871 0.0605283 0)
(10.096 0.0656879 0)
(10.1052 0.0705905 0)
(10.1144 0.0756383 0)
(10.0043 -0.00313901 0)
(10.0069 -7.14022e-05 0)
(10.0109 0.0019742 0)
(10.0166 0.00420285 0)
(10.0234 0.00698812 0)
(10.0308 0.0101837 0)
(10.0384 0.0134944 0)
(10.0462 0.0168064 0)
(10.0541 0.0201841 0)
(10.0621 0.0237304 0)
(10.0704 0.02742 0)
(10.0791 0.0312085 0)
(10.0879 0.0349669 0)
(10.0971 0.0387271 0)
(10.1064 0.0423848 0)
(10.1159 0.0461151 0)
(10.1254 0.0496908 0)
(10.135 0.0534657 0)
(10.0022 -0.00105252 0)
(10.0013 -0.0020862 0)
(10.0036 -0.00280062 0)
(10.0092 -0.00247496 0)
(10.0164 -0.00123823 0)
(10.0242 0.000562865 0)
(10.0321 0.00261326 0)
(10.0403 0.00476818 0)
(10.0488 0.00701713 0)
(10.0576 0.00941724 0)
(10.0667 0.0119497 0)
(10.076 0.0146062 0)
(10.0855 0.0173241 0)
(10.0951 0.0201529 0)
(10.1046 0.0230222 0)
(10.1142 0.0260535 0)
(10.1236 0.0290499 0)
(10.1332 0.0322456 0)
(9.99675 -0.000278525 0)
(9.99766 -0.00659287 0)
(10.0019 -0.00864125 0)
(10.009 -0.00857588 0)
(10.0175 -0.00771097 0)
(10.0261 -0.00650451 0)
(10.0345 -0.00510076 0)
(10.0429 -0.00353531 0)
(10.0514 -0.00180773 0)
(10.0602 9.65732e-05 0)
(10.0692 0.00214276 0)
(10.0783 0.00433055 0)
(10.0875 0.00659896 0)
(10.0966 0.00898209 0)
(10.1058 0.0113784 0)
(10.115 0.0138624 0)
(10.1243 0.0162317 0)
(10.1336 0.0186728 0)
(9.98579 0.00118148 0)
(9.99196 -0.00993032 0)
(9.99918 -0.0148592 0)
(10.007 -0.0161272 0)
(10.0155 -0.0159095 0)
(10.0243 -0.0153605 0)
(10.0331 -0.0147898 0)
(10.0419 -0.0141114 0)
(10.0509 -0.0131968 0)
(10.0601 -0.0120081 0)
(10.0694 -0.0106142 0)
(10.0788 -0.00907055 0)
(10.0882 -0.00744664 0)
(10.0975 -0.00572528 0)
(10.1069 -0.00397414 0)
(10.1162 -0.00214005 0)
(10.1257 -0.000369576 0)
(10.1351 0.00146481 0)
(10.0164 -0.008496 0)
(10.0232 -0.0134441 0)
(10.0317 -0.0185334 0)
(10.0406 -0.0209903 0)
(10.0491 -0.0212551 0)
(10.0573 -0.0207069 0)
(10.0654 -0.0200897 0)
(10.0738 -0.0194775 0)
(10.0825 -0.0187482 0)
(10.0916 -0.0178064 0)
(10.1008 -0.0166629 0)
(10.1101 -0.0153508 0)
(10.1195 -0.0139474 0)
(10.1288 -0.0124836 0)
(10.1382 -0.0110602 0)
(10.1475 -0.00965402 0)
(10.1569 -0.00838934 0)
(10.1662 -0.00713656 0)
(9.98911 -0.00923466 0)
(9.99307 -0.0206966 0)
(10.0022 -0.0264908 0)
(10.0134 -0.0284473 0)
(10.0235 -0.0288448 0)
(10.0325 -0.0290975 0)
(10.0412 -0.0294848 0)
(10.0502 -0.0297673 0)
(10.0595 -0.029762 0)
(10.0689 -0.0294479 0)
(10.0783 -0.0288921 0)
(10.0877 -0.0281486 0)
(10.0973 -0.0272881 0)
(10.107 -0.0263309 0)
(10.1169 -0.0253476 0)
(10.1269 -0.0243362 0)
(10.1369 -0.0233964 0)
(10.1468 -0.0224626 0)
(10.0179 -0.00673586 0)
(10.0293 -0.0238522 0)
(10.043 -0.0287724 0)
(10.0558 -0.0293262 0)
(10.0667 -0.0295552 0)
(10.0763 -0.0302169 0)
(10.0855 -0.0308585 0)
(10.0948 -0.0311355 0)
(10.1042 -0.0310532 0)
(10.1135 -0.0307692 0)
(10.1228 -0.0304086 0)
(10.1321 -0.0300182 0)
(10.1415 -0.0296175 0)
(10.151 -0.0291838 0)
(10.1605 -0.0287368 0)
(10.1701 -0.0282475 0)
(10.1797 -0.0277785 0)
(10.1892 -0.0272674 0)
(9.99611 -0.0212902 0)
(10.013 -0.0348086 0)
(10.0303 -0.0401812 0)
(10.044 -0.041021 0)
(10.0545 -0.0414242 0)
(10.0637 -0.0422439 0)
(10.073 -0.0429049 0)
(10.0829 -0.0431438 0)
(10.0932 -0.0431208 0)
(10.1035 -0.0430219 0)
(10.1138 -0.0429013 0)
(10.1239 -0.0427308 0)
(10.1339 -0.0424852 0)
(10.1438 -0.0421643 0)
(10.1536 -0.0418137 0)
(10.1634 -0.0414554 0)
(10.1731 -0.0411515 0)
(10.1827 -0.0408711 0)
(10.0078 -0.0206815 0)
(10.0246 -0.031986 0)
(10.0446 -0.035513 0)
(10.0604 -0.0362643 0)
(10.0721 -0.037383 0)
(10.0825 -0.0388074 0)
(10.0932 -0.0399399 0)
(10.1045 -0.0406802 0)
(10.116 -0.0411628 0)
(10.1273 -0.0415068 0)
(10.1385 -0.0417421 0)
(10.1494 -0.0419075 0)
(10.1601 -0.0420024 0)
(10.1705 -0.042082 0)
(10.1809 -0.0421334 0)
(10.1911 -0.0422194 0)
(10.2012 -0.0423147 0)
(10.211 -0.0424742 0)
(10.0147 -0.0352235 0)
(10.0516 -0.0537501 0)
(10.0837 -0.0519031 0)
(10.1052 -0.0513688 0)
(10.1191 -0.0528381 0)
(10.129 -0.0540351 0)
(10.1367 -0.0545912 0)
(10.1425 -0.0548875 0)
(10.1465 -0.0551127 0)
(10.1489 -0.0552905 0)
(10.1497 -0.0553749 0)
(10.1494 -0.055394 0)
(10.148 -0.0553269 0)
(10.1459 -0.0552526 0)
(10.1429 -0.0551277 0)
(10.1395 -0.0550649 0)
(10.1351 -0.0550012 0)
(10.131 -0.0550957 0)
(9.91028 -0.0324449 0)
(9.7488 -0.0485997 0)
(9.58374 -0.0468864 0)
(9.4153 -0.0455787 0)
(9.24985 -0.0454774 0)
(9.09119 -0.0452122 0)
(8.94015 -0.0446416 0)
(8.79633 -0.0439808 0)
(8.65906 -0.0433068 0)
(8.52807 -0.0426192 0)
(8.403 -0.0419035 0)
(8.284 -0.0411804 0)
(8.1705 -0.040439 0)
(8.06292 -0.0397177 0)
(7.96003 -0.0389963 0)
(7.86303 -0.0383474 0)
(7.76932 -0.0377349 0)
(7.682 -0.0372818 0)
(-0.192843 0.416471 -7.44094e-22)
(-0.490983 0.237828 7.62959e-22)
(-0.650717 0.0715349 0)
(-0.6686 -0.0980846 0)
(-0.524869 -0.252865 0)
(-0.269404 -0.36537 -7.41783e-22)
(0.0615379 -0.429947 0)
(0.427901 -0.446054 0)
(0.793233 -0.424052 0)
(1.13143 -0.367479 0)
(1.42727 -0.299703 7.87199e-22)
(1.68989 -0.246761 0)
(1.90959 -0.166068 0)
(2.05544 -0.0988304 0)
(2.15265 -0.0582976 0)
(2.2158 -0.0250759 1.04079e-21)
(2.24511 -0.0151244 0)
(2.25938 -0.0266094 0)
(2.2559 -0.0228004 0)
(2.23375 -0.00190157 0)
(2.18313 0.0361343 0)
(2.09519 0.0739993 0)
(1.96669 0.100041 0)
(1.81338 0.134686 1.06209e-21)
(1.61938 0.183759 -1.0487e-21)
(1.3994 0.191708 1.04025e-21)
(1.16862 0.176255 1.03874e-21)
(0.9198 0.136794 0)
(0.686577 0.0953329 0)
(0.449866 0.127887 -1.06576e-21)
(0.197813 0.168975 -1.0817e-21)
(-0.0659823 0.192794 0)
(-0.334903 0.192149 0)
(-0.590187 0.165127 -1.14955e-21)
(-0.818092 0.124777 0)
(-1.01579 0.097344 0)
(-1.18757 0.0882796 1.20605e-21)
(-1.34811 0.081501 0)
(-1.50781 0.0839247 1.25795e-21)
(-1.69776 0.11109 2.59637e-21)
(-1.93456 0.166495 0)
(-2.2179 0.219135 0)
(-2.53863 0.230604 0)
(-2.84047 0.193644 0)
(-3.10385 0.15471 0)
(-3.32283 0.092478 3.11073e-21)
(-3.48901 -0.00427919 3.22233e-21)
(-3.64388 -0.0292476 3.33097e-21)
(-3.77717 0.059262 0)
(-3.95084 0.104608 -3.46178e-21)
(-4.07841 0.0888878 0)
(-4.17471 0.0772631 3.54557e-21)
(-4.24287 0.0633285 3.561e-21)
(-4.2856 0.0434319 0)
(-4.29889 0.0163569 0)
(-4.29304 -0.0321173 0)
(-4.26602 -0.031093 3.41825e-21)
(-4.26018 -0.0153293 0)
(-4.22569 -0.032681 0)
(-4.16669 -0.0505619 0)
(-4.06277 -0.0726953 0)
(-3.94712 -0.128892 0)
(-3.81451 -0.122591 0)
(-3.73914 -0.0678382 0)
(-3.67541 -0.0643726 0)
(-3.60209 -0.0613891 -2.7418e-21)
(-3.53379 -0.0634318 0)
(-3.45869 -0.0633666 0)
(-3.38842 -0.0613154 2.63794e-21)
(-3.32022 -0.0570198 2.61323e-21)
(-3.25932 -0.0523494 0)
(-3.20849 -0.0446617 -2.57841e-21)
(-3.17282 -0.0292617 2.58005e-21)
(-3.16113 -0.00972643 0)
(-3.18006 0.00852998 -2.64323e-21)
(-3.22995 0.0308005 0)
(-3.32457 0.0512911 0)
(-3.45674 0.0747454 2.75118e-21)
(-3.6456 0.0981038 0)
(-3.88355 0.118873 -2.67771e-21)
(-4.17216 0.115529 0)
(-4.4419 0.0657127 2.5405e-21)
(-4.59333 0.0438492 2.48206e-21)
(-4.71323 0.0171197 2.41666e-21)
(-4.7365 -0.0410126 4.67639e-21)
(-4.74771 -0.0592186 -4.52109e-21)
(-4.76176 -0.0468638 0)
(-4.86322 0.018179 0)
(-5.04998 0.118219 0)
(-5.27998 0.126204 -4.03034e-21)
(-5.43027 0.0839461 -4.04979e-21)
(-5.518 0.0459016 4.08644e-21)
(-5.54605 0.0123512 0)
(-5.52 -0.0142758 -4.08175e-21)
(-5.4437 -0.0376947 -4.01516e-21)
(-5.32335 -0.0577171 -3.90438e-21)
(-5.16333 -0.0748885 0)
(-4.97581 -0.086806 0)
(-4.76873 -0.0913584 0)
(-4.56091 -0.0898133 -3.04946e-21)
(-4.35721 -0.0807611 0)
(-4.17609 -0.0675755 0)
(-4.03335 -0.0446755 1.8007e-21)
(-3.93849 -0.0347726 0)
(-3.84804 -0.0352886 0)
(-3.73241 -0.110567 3.06508e-22)
(-3.57927 -0.0703632 0)
(-3.66547 0.0266509 0)
(-3.76273 0.0362064 6.61381e-22)
(-3.86321 0.0567066 6.93226e-22)
(-3.97769 0.0628389 0)
(-4.03632 0.0390428 -4.55515e-22)
(-4.02255 0.00524883 0)
(-3.94228 -0.0231408 1.52419e-22)
(-3.81057 -0.0466728 0)
(-3.63215 -0.0658961 1.26953e-22)
(-3.41417 -0.0819186 2.56457e-22)
(-3.15928 -0.0955014 0)
(-2.87289 -0.106957 0)
(-2.55789 -0.116774 0)
(-2.21747 -0.125024 0)
(-1.85454 -0.131605 0)
(-1.47392 -0.136254 0)
(-1.08112 -0.138776 0)
(-0.681935 -0.139023 3.86252e-21)
(-0.282207 -0.136992 -4.34639e-21)
(0.113425 -0.133312 0)
(0.501526 -0.128522 0)
(0.879607 -0.123088 0)
(1.24585 -0.117186 0)
(1.59878 -0.110818 -1.16181e-20)
(1.93679 -0.103764 0)
(2.25774 -0.0958381 1.18942e-20)
(2.55895 -0.0868733 -1.18703e-20)
(2.83719 -0.0770453 0)
(3.08985 -0.0692124 0)
(3.3166 -0.0598548 0)
(3.51892 -0.0510753 1.10523e-20)
(3.69755 -0.0431144 1.07585e-20)
(3.8545 -0.036048 0)
(3.99204 -0.0298725 1.01547e-20)
(4.11228 -0.0244598 9.85808e-21)
(4.21714 -0.0196119 -9.57052e-21)
(4.30804 -0.0151314 0)
(4.38572 -0.0108473 0)
(4.45048 -0.00663457 -8.78436e-21)
(4.50219 -0.00239355 0)
(4.54039 0.00193445 0)
(4.56462 0.00633883 0)
(4.57429 0.0107867 0)
(4.56875 0.015285 7.7998e-21)
(4.54726 0.0198148 7.65673e-21)
(4.50898 0.0243426 0)
(4.45303 0.0289309 7.42508e-21)
(4.37845 0.0335187 0)
(4.28435 0.0377318 0)
(4.17046 0.0410956 7.19632e-21)
(4.03718 0.0431557 0)
(3.88658 0.042932 7.09258e-21)
(3.72448 0.0404397 0)
(3.55843 0.0370985 0)
(3.39591 0.0356949 6.98113e-21)
(3.2413 0.0376005 0)
(3.08742 0.0437435 6.9366e-21)
(2.92662 0.0460388 0)
(2.76226 0.040867 0)
(2.60472 0.0279416 0)
(2.47552 0.00992779 -6.76014e-21)
(2.385 -0.00204174 0)
(2.32602 -0.00577734 6.71457e-21)
(2.28574 -0.00460786 0)
(2.2539 -0.000539001 0)
(2.21944 0.00582746 0)
(2.17137 0.0112681 0)
(2.11023 0.0150938 0)
(2.03151 0.0142328 0)
(1.96224 0.0200879 0)
(1.84242 0.0174809 -1.33832e-20)
(1.7978 0.0401186 0)
(1.53564 0.0168031 0)
(-0.0125097 0.906514 2.3135e-21)
(-0.0213621 0.661162 -2.35724e-21)
(0.0274888 0.264942 0)
(0.195981 -0.161661 1.67882e-21)
(0.442642 -0.58299 0)
(0.751588 -0.893822 7.39213e-22)
(1.07727 -1.05904 -1.69025e-21)
(1.38511 -1.09729 -1.7104e-21)
(1.66126 -1.04251 0)
(1.88906 -0.935217 -1.83775e-21)
(2.07722 -0.833966 -7.8511e-22)
(2.21389 -0.722032 0)
(2.30538 -0.552378 0)
(2.38504 -0.376664 0)
(2.44203 -0.260369 0)
(2.46469 -0.164929 -1.03902e-21)
(2.45551 -0.0758961 0)
(2.41928 0.00133654 2.38346e-21)
(2.35608 0.0625677 0)
(2.27653 0.115467 0)
(2.17298 0.200357 -2.38437e-21)
(2.0486 0.301566 0)
(1.90037 0.385997 2.34528e-21)
(1.73936 0.461993 -1.05897e-21)
(1.56939 0.5198 1.04519e-21)
(1.37719 0.56198 -1.03644e-21)
(1.15432 0.621384 -1.0347e-21)
(0.890564 0.671457 0)
(0.590427 0.689078 0)
(0.257454 0.681327 1.06232e-21)
(-0.0704454 0.665525 -1.27084e-21)
(-0.374342 0.64972 0)
(-0.667801 0.634736 0)
(-0.938467 0.596124 1.14646e-21)
(-1.19475 0.532769 0)
(-1.42883 0.460974 0)
(-1.64469 0.389097 -1.20246e-21)
(-1.86139 0.365155 0)
(-2.09324 0.422306 1.5461e-21)
(-2.33861 0.52056 -2.59027e-21)
(-2.57808 0.604434 0)
(-2.80886 0.656461 0)
(-3.02977 0.655568 -6.20245e-21)
(-3.25114 0.587417 -6.34398e-21)
(-3.48205 0.5235 -6.5321e-21)
(-3.68133 0.449202 3.63504e-21)
(-3.89936 0.437959 -3.21689e-21)
(-4.1294 0.414365 -1.04988e-20)
(-4.27789 0.353683 7.35287e-21)
(-4.40524 0.279649 3.45488e-21)
(-4.48185 0.194433 0)
(-4.53593 0.125963 -3.53898e-21)
(-4.54956 0.0591988 4.12228e-21)
(-4.54753 0.00195513 0)
(-4.52717 -0.0324791 0)
(-4.52504 -0.03472 0)
(-4.50519 -0.0415202 -3.41471e-21)
(-4.47561 -0.0710334 0)
(-4.41411 -0.120829 6.98813e-21)
(-4.34324 -0.184741 0)
(-4.24885 -0.236817 6.63777e-21)
(-4.21589 -0.198821 0)
(-4.18563 -0.157055 -6.33072e-21)
(-4.14784 -0.138898 0)
(-4.10196 -0.141686 6.07832e-21)
(-4.04766 -0.138578 -3.25299e-21)
(-3.99215 -0.1385 0)
(-3.93015 -0.13447 -5.87328e-21)
(-3.86951 -0.128968 -2.63636e-21)
(-3.80944 -0.119867 -2.61163e-21)
(-3.75551 -0.107896 0)
(-3.71149 -0.0900612 -3.10845e-21)
(-3.66907 -0.0648387 -2.57829e-21)
(-3.63837 -0.0242458 0)
(-3.62449 0.0333375 2.64179e-21)
(-3.63027 0.0991484 -5.84806e-21)
(-3.67529 0.172027 0)
(-3.76469 0.26347 -2.74965e-21)
(-3.90599 0.352207 0)
(-4.0926 0.421573 8.40559e-21)
(-4.31925 0.448555 0)
(-4.60521 0.365569 -7.90965e-21)
(-4.83878 0.233312 -2.48068e-21)
(-5.00725 0.126948 2.64719e-21)
(-5.12445 0.0576749 5.11406e-21)
(-5.27222 0.0692295 -4.95418e-21)
(-5.41885 0.152548 0)
(-5.62516 0.262735 0)
(-5.75535 0.271968 0)
(-5.84336 0.214833 1.28354e-20)
(-5.87283 0.134838 4.04718e-21)
(-5.86691 0.0556105 -4.08346e-21)
(-5.81415 -0.0229939 0)
(-5.72318 -0.0964935 -4.57025e-21)
(-5.593 -0.164135 4.0135e-21)
(-5.43227 -0.22242 3.9035e-21)
(-5.2407 -0.268524 0)
(-5.03596 -0.295938 0)
(-4.81453 -0.305997 0)
(-4.60025 -0.296473 3.05098e-21)
(-4.38695 -0.273757 0)
(-4.20661 -0.227436 -4.9463e-21)
(-4.04284 -0.179083 -5.77199e-21)
(-3.93677 -0.141272 2.90668e-21)
(-3.83616 -0.158644 0)
(-3.83411 -0.113372 6.49438e-22)
(-3.89921 0.0205763 0)
(-3.97682 0.0884353 -3.04561e-22)
(-4.0287 0.100981 -8.51506e-23)
(-4.07056 0.102529 -7.6559e-23)
(-4.04785 0.0525393 0)
(-3.96296 -0.0228308 6.8312e-22)
(-3.82636 -0.0977424 2.50992e-23)
(-3.65614 -0.159962 -1.52487e-22)
(-3.45553 -0.212865 0)
(-3.2288 -0.257772 -1.25257e-22)
(-2.97689 -0.297204 -4.13053e-22)
(-2.7003 -0.332266 0)
(-2.39789 -0.36393 -1.31499e-21)
(-2.0691 -0.392161 -2.15187e-21)
(-1.71536 -0.416555 -3.12969e-21)
(-1.33951 -0.436189 0)
(-0.945999 -0.450406 0)
(-0.54065 -0.457819 0)
(-0.129311 -0.458314 3.69782e-21)
(0.281872 -0.452439 4.34219e-21)
(0.68813 -0.441648 0)
(1.08624 -0.427649 1.01374e-20)
(1.47416 -0.411865 1.07293e-20)
(1.85049 -0.39489 0)
(2.21415 -0.376623 1.16092e-20)
(2.56378 -0.356334 2.34322e-20)
(2.89757 -0.33335 -1.18856e-20)
(3.21308 -0.307386 -1.17117e-20)
(3.50652 -0.280906 0)
(3.77492 -0.253574 0)
(4.01957 -0.225753 0)
(4.24078 -0.199423 -1.10413e-20)
(4.43966 -0.175383 1.06491e-20)
(4.61811 -0.153988 2.08021e-20)
(4.77829 -0.135265 -1.01452e-20)
(4.92243 -0.118854 9.7687e-21)
(5.05247 -0.104194 9.56168e-21)
(5.16988 -0.0907249 0)
(5.27557 -0.0779751 0)
(5.36999 -0.0655793 -8.70426e-21)
(5.45333 -0.0532419 0)
(5.52573 -0.0407656 0)
(5.58695 -0.0280195 1.61908e-20)
(5.63664 -0.0149336 0)
(5.67425 -0.00145967 7.71344e-21)
(5.69915 0.0125092 -7.64769e-21)
(5.71071 0.0270097 0)
(5.70825 0.0420725 7.32577e-21)
(5.69109 0.0576908 0)
(5.65847 0.0737191 0)
(5.60953 0.0896996 -7.1866e-21)
(5.54323 0.104973 1.41468e-20)
(5.45854 0.118021 -7.08258e-21)
(5.35454 0.126983 0)
(5.23061 0.129776 0)
(5.08641 0.126346 6.86432e-21)
(4.92547 0.119362 0)
(4.76372 0.113945 6.82516e-21)
(4.6179 0.113845 0)
(4.48879 0.114626 0)
(4.36914 0.109844 0)
(4.25123 0.0947721 6.74828e-21)
(4.13633 0.0721761 0)
(4.03101 0.0504833 -6.70387e-21)
(3.94185 0.0364039 0)
(3.86701 0.0293231 0)
(3.80763 0.0311983 1.33744e-20)
(3.7538 0.0367019 -1.33688e-20)
(3.70867 0.0472563 0)
(3.6487 0.0499633 0)
(3.60117 0.0627232 0)
(3.50515 0.0568405 4.00015e-20)
(3.46556 0.0892098 0)
(3.28878 0.0758141 -2.65902e-20)
(0.0775336 0.600574 -3.52817e-23)
(0.293851 0.275161 3.13843e-21)
(0.602289 -0.285856 0)
(0.96899 -0.857408 -3.37263e-21)
(1.33432 -1.31589 0)
(1.65095 -1.59618 0)
(1.9 -1.68663 -2.96994e-22)
(2.08568 -1.62238 1.70786e-21)
(2.21554 -1.44668 2.16972e-21)
(2.30045 -1.20281 1.8371e-21)
(2.34003 -0.943897 0)
(2.33255 -0.696438 0)
(2.27122 -0.494104 -2.49674e-21)
(2.20752 -0.359572 -5.10007e-21)
(2.14218 -0.21258 5.17517e-21)
(2.07095 -0.0490172 0)
(1.9898 0.0746787 5.26071e-21)
(1.89541 0.171303 -2.38535e-21)
(1.79116 0.244263 0)
(1.66283 0.349502 5.26287e-21)
(1.52303 0.465423 2.38377e-21)
(1.3834 0.565547 -5.21761e-21)
(1.23849 0.656701 -2.34299e-21)
(1.09015 0.738025 0)
(0.930088 0.818817 5.12382e-21)
(0.741448 0.921537 5.10039e-21)
(0.534487 1.02179 0)
(0.302595 1.11817 5.07761e-21)
(0.0455145 1.19465 0)
(-0.23742 1.23717 5.10754e-21)
(-0.544226 1.23797 2.34028e-21)
(-0.848359 1.20404 0)
(-1.14138 1.13878 0)
(-1.4089 1.04362 0)
(-1.66536 0.946538 0)
(-1.90664 0.856125 0)
(-2.15711 0.805325 0)
(-2.40753 0.797511 5.99913e-21)
(-2.65319 0.830778 -8.9954e-21)
(-2.89211 0.887091 0)
(-3.1035 0.928046 0)
(-3.30706 0.930702 0)
(-3.47254 0.930023 -6.71908e-22)
(-3.65174 0.887117 6.33425e-21)
(-3.81562 0.816661 1.37049e-20)
(-3.97333 0.741514 -1.41222e-20)
(-4.11961 0.666024 -7.60707e-21)
(-4.24402 0.5805 7.16633e-21)
(-4.32722 0.492107 6.71871e-22)
(-4.39558 0.397374 8.1737e-21)
(-4.43847 0.297096 0)
(-4.47363 0.197396 8.34401e-21)
(-4.49205 0.107764 6.73442e-22)
(-4.51721 0.0458752 0)
(-4.53119 0.00307842 0)
(-4.53074 -0.0325758 -8.10966e-21)
(-4.50208 -0.0773435 0)
(-4.46523 -0.12906 0)
(-4.41599 -0.192271 8.17788e-21)
(-4.37657 -0.241091 1.47585e-20)
(-4.37792 -0.228529 -6.63784e-21)
(-4.40091 -0.195516 0)
(-4.39978 -0.178624 6.32912e-21)
(-4.38521 -0.179173 0)
(-4.35931 -0.18993 7.37305e-21)
(-4.31921 -0.198438 5.98894e-21)
(-4.26758 -0.20911 -1.32447e-20)
(-4.20601 -0.212598 -7.2945e-21)
(-4.14055 -0.2056 0)
(-4.07648 -0.190008 1.29691e-20)
(-4.01831 -0.171366 0)
(-3.96694 -0.150068 1.84431e-20)
(-3.91846 -0.118384 1.27089e-20)
(-3.87717 -0.0663322 1.27234e-20)
(-3.84131 0.000922616 -1.27815e-20)
(-3.82231 0.0930668 1.87098e-20)
(-3.83324 0.217759 0)
(-3.87561 0.36227 0)
(-3.94895 0.495284 -1.26399e-20)
(-4.07191 0.600516 -1.806e-20)
(-4.20702 0.681002 0)
(-4.42495 0.634313 5.37721e-21)
(-4.65567 0.489048 0)
(-4.8758 0.339525 -1.57976e-20)
(-5.08294 0.253228 6.05928e-22)
(-5.27407 0.253934 -6.47478e-22)
(-5.44988 0.34184 9.95407e-21)
(-5.55756 0.383424 0)
(-5.58262 0.328679 -9.77823e-21)
(-5.57678 0.232464 9.09723e-22)
(-5.53833 0.117995 0)
(-5.48302 -0.000529751 0)
(-5.40189 -0.114832 0)
(-5.30118 -0.218274 8.65982e-21)
(-5.17521 -0.310806 0)
(-5.02914 -0.390425 0)
(-4.86034 -0.451466 0)
(-4.6789 -0.487932 0)
(-4.48257 -0.498156 0)
(-4.29021 -0.479885 6.97126e-21)
(-4.10227 -0.434997 0)
(-3.95673 -0.363155 4.95683e-21)
(-3.8241 -0.289368 3.97836e-21)
(-3.74946 -0.215688 -2.91367e-21)
(-3.70661 -0.163969 0)
(-3.7692 -0.0603767 -9.62748e-22)
(-3.81438 0.0569912 0)
(-3.81032 0.103253 2.972e-22)
(-3.78899 0.108739 -5.64829e-22)
(-3.74077 0.0674293 1.7669e-22)
(-3.63375 -0.0268506 0)
(-3.49822 -0.133096 1.09004e-21)
(-3.33979 -0.230285 1.59995e-21)
(-3.16591 -0.311617 0)
(-2.96895 -0.382336 1.76577e-21)
(-2.74932 -0.444488 1.4261e-21)
(-2.50318 -0.501633 -5.93695e-22)
(-2.23119 -0.554795 0)
(-1.93223 -0.604773 1.30948e-21)
(-1.607 -0.650587 2.14727e-21)
(-1.25636 -0.690874 8.56095e-21)
(-0.883174 -0.723764 0)
(-0.491588 -0.747092 0)
(-0.0876152 -0.7589 0)
(0.321759 -0.7588 7.0183e-21)
(0.729331 -0.747887 0)
(1.12963 -0.728752 0)
(1.51918 -0.70453 -1.01313e-20)
(1.89637 -0.677864 -1.07234e-20)
(2.26051 -0.649893 0)
(2.61123 -0.620303 0)
(2.94766 -0.587685 -2.34209e-20)
(3.26848 -0.550688 0)
(3.57092 -0.509197 2.35585e-20)
(3.85188 -0.466152 2.30966e-20)
(4.10923 -0.420685 0)
(4.34352 -0.375335 0)
(4.55527 -0.332339 -2.17747e-20)
(4.74589 -0.293101 -1.69278e-22)
(4.91727 -0.25828 -1.55886e-22)
(5.07153 -0.227913 0)
(5.21078 -0.201465 -3.90789e-20)
(5.33689 -0.178066 0)
(5.4514 -0.156799 0)
(5.5553 -0.136872 0)
(5.64923 -0.117688 1.74727e-20)
(5.73343 -0.0988318 0)
(5.80793 -0.0800525 -3.29243e-20)
(5.87255 -0.0611252 -1.61842e-20)
(5.92703 -0.04179 0)
(5.97097 -0.0219332 -1.54978e-20)
(6.00398 -0.00147186 0)
(6.02565 0.0196378 0)
(6.03574 0.0414139 -4.39431e-20)
(6.03419 0.0638465 2.88273e-20)
(6.02106 0.0867832 0)
(5.99637 0.109762 2.82305e-20)
(5.95995 0.132211 -1.414e-20)
(5.91135 0.153194 0)
(5.84973 0.171608 0)
(5.77322 0.186317 0)
(5.68047 0.196742 -4.12169e-20)
(5.56911 0.203119 0)
(5.43795 0.201702 -1.37418e-20)
(5.29287 0.189309 0)
(5.14397 0.17219 0)
(5.00609 0.155113 0)
(4.88684 0.136287 0)
(4.7762 0.113725 0)
(4.6648 0.0910279 0)
(4.55858 0.0747113 -2.6552e-20)
(4.46061 0.064375 0)
(4.37618 0.0607727 -1.33657e-20)
(4.29993 0.0592925 3.99312e-20)
(4.24325 0.0648164 0)
(4.18699 0.0665349 0)
(4.15199 0.0820986 -2.65106e-20)
(4.08828 0.0855772 -2.66207e-20)
(4.05846 0.120215 2.6468e-20)
(3.94882 0.120148 2.65751e-20)
(0.0715713 0.0745879 -4.64412e-21)
(0.453663 -0.517823 -4.71658e-21)
(0.918605 -1.20547 -3.37508e-21)
(1.33584 -1.70861 -1.97007e-21)
(1.66116 -2.01067 0)
(1.87306 -2.08142 4.31572e-21)
(1.98592 -1.96513 -2.63235e-21)
(2.0341 -1.74186 0)
(2.03711 -1.46031 -2.17212e-21)
(2.02173 -1.15064 0)
(1.98853 -0.845944 5.52162e-21)
(1.94228 -0.555521 0)
(1.86821 -0.293519 2.50129e-21)
(1.7705 -0.0909821 5.10877e-21)
(1.63173 0.0413502 -5.18284e-21)
(1.49555 0.154953 0)
(1.37245 0.286868 -5.26588e-21)
(1.24086 0.39358 0)
(1.09718 0.499491 0)
(0.93721 0.619286 -5.26334e-21)
(0.782359 0.727398 0)
(0.624121 0.831685 -5.60692e-22)
(0.46324 0.92929 0)
(0.292998 1.03019 0)
(0.10499 1.14846 6.12014e-22)
(-0.0945489 1.27216 -5.09346e-21)
(-0.305166 1.39917 -5.7168e-21)
(-0.523804 1.51943 -5.06867e-21)
(-0.748911 1.61905 0)
(-0.979897 1.68637 -1.08135e-20)
(-1.22286 1.70469 0)
(-1.47003 1.66517 -5.75617e-21)
(-1.71826 1.57989 0)
(-1.9603 1.47091 0)
(-2.20068 1.36327 5.99519e-21)
(-2.44069 1.27243 0)
(-2.68993 1.2172 -6.30768e-21)
(-2.93061 1.19496 5.32859e-22)
(-3.16438 1.21269 1.29605e-20)
(-3.38681 1.24744 -1.4013e-20)
(-3.58926 1.26699 0)
(-3.76758 1.23716 0)
(-3.91467 1.18242 -8.28847e-21)
(-4.0429 1.09603 0)
(-4.15082 1.005 -7.17301e-21)
(-4.24624 0.918805 7.38262e-21)
(-4.3185 0.816598 7.59968e-21)
(-4.37137 0.70036 0)
(-4.40715 0.578587 -8.01417e-21)
(-4.43595 0.4524 -8.17051e-21)
(-4.45687 0.328935 1.81517e-20)
(-4.4825 0.219556 -8.34255e-21)
(-4.5114 0.133545 -8.34852e-21)
(-4.5462 0.0627876 0)
(-4.56565 -0.00519334 0)
(-4.57024 -0.0676934 8.10978e-21)
(-4.56024 -0.126215 0)
(-4.55264 -0.179459 0)
(-4.54355 -0.230671 -1.5165e-20)
(-4.56308 -0.236331 -1.47551e-20)
(-4.6137 -0.203845 0)
(-4.65726 -0.183758 0)
(-4.6683 -0.181809 0)
(-4.67054 -0.191727 0)
(-4.6584 -0.218655 -1.34377e-20)
(-4.6243 -0.248221 1.48169e-20)
(-4.57159 -0.274612 1.3237e-20)
(-4.50658 -0.285666 2.78321e-20)
(-4.43662 -0.27811 0)
(-4.36278 -0.258932 1.50153e-21)
(-4.28982 -0.239632 0)
(-4.21962 -0.219166 -1.27574e-20)
(-4.15496 -0.183815 1.38286e-21)
(-4.09821 -0.125477 -1.27358e-20)
(-4.04945 -0.0343962 1.27967e-20)
(-4.01033 0.0852559 1.10801e-21)
(-3.97462 0.223967 0)
(-3.95151 0.388722 1.37857e-20)
(-3.95478 0.557744 1.26568e-20)
(-4.01096 0.702329 2.54907e-20)
(-4.07888 0.82915 0)
(-4.21671 0.834704 -1.2173e-20)
(-4.39002 0.721183 0)
(-4.59368 0.579431 2.21611e-20)
(-4.78614 0.46733 -1.04135e-20)
(-4.96743 0.429886 1.01409e-20)
(-5.08834 0.435115 -9.96478e-21)
(-5.11154 0.396882 -2.15459e-20)