/*--------------------------------*- C++ -*----------------------------------*\
  =========                 |
  \\      /  F ield         | OpenFOAM: The Open Source CFD Toolbox
   \\    /   O peration     | Website:  https://openfoam.org
    \\  /    A nd           | Version:  9
     \\/     M anipulation  |
\*---------------------------------------------------------------------------*/
FoamFile
{
    format      ascii;
    class       volScalarField;
    location    "0.022";
    object      pMean;
}
// * * * * * * * * * * * * * * * * * * * * * * * * * * * * * * * * * * * * * //

dimensions      [0 2 -2 0 0 0 0];

internalField   nonuniform List<scalar> 
12225
(
-3.79784
-4.38848
-4.70101
-4.82484
-4.88685
-4.93653
-4.98096
-5.01582
-5.03744
-5.04305
-5.03234
-5.00133
-4.95167
-4.87343
-4.77502
-4.63605
-4.48937
-4.31924
-4.04708
-4.41824
-4.7013
-4.83381
-4.8974
-4.94527
-4.98891
-5.0241
-5.04653
-5.05302
-5.04339
-5.01423
-4.96669
-4.89343
-4.79967
-4.67554
-4.54736
-4.45512
-4.09642
-4.4237
-4.69503
-4.83882
-4.90723
-4.95401
-4.99657
-5.03218
-5.05573
-5.06388
-5.05621
-5.03081
-4.98775
-4.92412
-4.8417
-4.74477
-4.65094
-4.60142
-4.25009
-4.47039
-4.702
-4.8487
-4.92179
-4.96742
-5.0083
-5.04402
-5.06892
-5.07908
-5.07418
-5.05315
-5.01639
-4.96309
-4.89618
-4.82302
-4.75741
-4.72328
-4.36517
-4.5115
-4.70897
-4.85552
-4.93501
-4.98196
-5.0215
-5.05695
-5.08313
-5.09588
-5.09445
-5.07873
-5.0493
-5.00722
-4.95595
-4.90288
-4.85805
-4.83456
-4.41285
-4.55181
-4.72568
-4.86446
-4.94809
-4.99794
-5.03738
-5.07286
-5.10066
-5.11658
-5.11959
-5.11009
-5.08918
-5.05884
-5.02267
-4.98698
-4.95934
-4.94841
-4.52982
-4.61726
-4.7549
-4.88094
-4.96586
-5.01857
-5.05816
-5.09305
-5.12169
-5.14056
-5.14833
-5.14553
-5.13362
-5.11507
-5.09348
-5.07398
-5.06251
-5.06513
-4.56036
-4.65347
-4.77646
-4.8929
-4.9788
-5.0359
-5.07784
-5.11397
-5.14506
-5.1681
-5.18172
-5.18653
-5.18434
-5.17772
-5.17017
-5.16594
-5.16998
-5.18652
-4.65363
-4.72672
-4.82354
-4.92141
-5.00311
-5.06162
-5.10483
-5.14134
-5.17347
-5.19967
-5.21876
-5.23118
-5.2386
-5.24356
-5.24947
-5.25983
-5.27873
-5.30924
-4.70283
-4.76981
-4.8502
-4.9383
-5.01926
-5.08194
-5.12893
-5.16842
-5.20394
-5.23498
-5.26067
-5.28134
-5.2987
-5.31516
-5.3339
-5.35794
-5.39061
-5.43435
-4.78153
-4.83268
-4.90101
-4.98077
-5.05497
-5.11388
-5.16097
-5.20242
-5.24073
-5.27584
-5.3074
-5.33585
-5.36271
-5.3903
-5.42128
-5.45839
-5.50411
-5.5608
-4.92917
-4.88538
-4.92322
-5.00192
-5.0773
-5.13788
-5.18823
-5.23339
-5.27573
-5.31577
-5.35362
-5.38982
-5.42572
-5.46339
-5.50523
-5.55364
-5.61084
-5.67895
-4.93109
-4.9389
-4.98334
-5.04824
-5.11306
-5.17114
-5.22258
-5.27017
-5.31563
-5.35969
-5.403
-5.44631
-5.49073
-5.53791
-5.58992
-5.64883
-5.71674
-5.79514
-4.89126
-4.95738
-5.02316
-5.08332
-5.1423
-5.20039
-5.25662
-5.30968
-5.36071
-5.41112
-5.46168
-5.51323
-5.56697
-5.62442
-5.68726
-5.75721
-5.83584
-5.92449
-5.0925
-5.07609
-5.09304
-5.13725
-5.19473
-5.25447
-5.31105
-5.36555
-5.42004
-5.4757
-5.53314
-5.59294
-5.65608
-5.72373
-5.7972
-5.87777
-5.96667
-6.0649
-5.03157
-5.08282
-5.13688
-5.18836
-5.24044
-5.29724
-5.35886
-5.42218
-5.48544
-5.54927
-5.61498
-5.68384
-5.75678
-5.83454
-5.91812
-6.0085
-6.10659
-6.21305
-5.14468
-5.17797
-5.22171
-5.26584
-5.31394
-5.36929
-5.43089
-5.49629
-5.56396
-5.63399
-5.70717
-5.78416
-5.86561
-5.95217
-6.04438
-6.14259
-6.24735
-6.35878
-5.36975
-5.30748
-5.28383
-5.30749
-5.36142
-5.42895
-5.49979
-5.57041
-5.64253
-5.71836
-5.7987
-5.88334
-5.97215
-6.06533
-6.16326
-6.26609
-6.37407
-6.48721
-5.24522
-5.26841
-5.31209
-5.36515
-5.42413
-5.49083
-5.56305
-5.63902
-5.71866
-5.80187
-5.88846
-5.97825
-6.07133
-6.1678
-6.26774
-6.37093
-6.47727
-6.58651
-5.15662
-5.23964
-5.31414
-5.37652
-5.44258
-5.51847
-5.60043
-5.68401
-5.76832
-5.85485
-5.9443
-6.03626
-6.13039
-6.22663
-6.32499
-6.42534
-6.52754
-6.63135
-5.23745
-5.27059
-5.32127
-5.38944
-5.46968
-5.5527
-5.63506
-5.71779
-5.80255
-5.89018
-5.98027
-6.07217
-6.1655
-6.26013
-6.35592
-6.45269
-6.55003
-6.64763
-5.26293
-5.24985
-5.2892
-5.36661
-5.45788
-5.54832
-5.63513
-5.72108
-5.8093
-5.90026
-5.99277
-6.08583
-6.17915
-6.27279
-6.36678
-6.46094
-6.55504
-6.64883
-5.15667
-5.23203
-5.31129
-5.39085
-5.47565
-5.56415
-5.65227
-5.73971
-5.82833
-5.91881
-6.01033
-6.10208
-6.19374
-6.28526
-6.37648
-6.46719
-6.55704
-6.64556
-5.0192
-5.12654
-5.2458
-5.35414
-5.45389
-5.54839
-5.63952
-5.73005
-5.82199
-5.91516
-6.00835
-6.10079
-6.19238
-6.28318
-6.37332
-6.46247
-6.55038
-6.63681
-5.14046
-5.16682
-5.2577
-5.36859
-5.47108
-5.56231
-5.64951
-5.73845
-5.83039
-5.92351
-6.01601
-6.10736
-6.19773
-6.28723
-6.3756
-6.4627
-6.54804
-6.63119
-4.95451
-5.0672
-5.20884
-5.34171
-5.45187
-5.54566
-5.63548
-5.72774
-5.82257
-5.91755
-6.01092
-6.10245
-6.19266
-6.28183
-6.36976
-6.45599
-6.54018
-6.62201
-4.91289
-5.05892
-5.22244
-5.35651
-5.45984
-5.54979
-5.63902
-5.7316
-5.8264
-5.92088
-6.01356
-6.10437
-6.19387
-6.28226
-6.36932
-6.45458
-6.53759
-6.6178
-4.82637
-5.00594
-5.19873
-5.34276
-5.44648
-5.53723
-5.6294
-5.72457
-5.82056
-5.91551
-6.00842
-6.09931
-6.1887
-6.27685
-6.36353
-6.44826
-6.53066
-6.61049
-4.76327
-4.99551
-5.20613
-5.34657
-5.44567
-5.5357
-5.62884
-5.72473
-5.82081
-5.91559
-6.00836
-6.09903
-6.18811
-6.27587
-6.36223
-6.44651
-6.52839
-6.60712
-4.6175
-4.96826
-5.20679
-5.34206
-5.43868
-5.52996
-5.62449
-5.7209
-5.81696
-5.91158
-6.00421
-6.09478
-6.18379
-6.27147
-6.35778
-6.44189
-6.5235
-6.60117
-7.96023
-7.97072
-8.04979
-8.19436
-8.40479
-8.67845
-9.01087
-9.39613
-9.82566
-10.2868
-10.7616
-11.2273
-11.6571
-12.0232
-12.3007
-12.4719
-12.5293
-12.4789
-12.3408
-12.1507
-11.9509
-11.7854
-11.678
-11.6422
-11.6973
-11.752
-11.9654
-12.2081
-12.4706
-12.7826
-13.3389
-14.38
-15.8437
-17.6197
-19.5954
-21.6664
-23.7413
-25.7417
-27.6006
-29.2613
-30.6753
-31.8021
-32.6093
-33.0733
-33.1804
-32.9252
-32.3107
-31.3497
-30.067
-28.497
-26.6816
-24.6659
-22.4956
-20.2147
-17.8645
-15.4819
-13.0991
-10.7435
-8.43747
-6.19857
-4.03991
-1.96991
0.00734814
1.89165
3.68574
5.39411
7.02143
8.57163
10.0469
11.4472
12.7706
14.0137
15.1723
16.2422
17.2192
18.1
18.8823
19.5655
20.1513
20.643
21.046
21.3667
21.6128
21.7922
21.9131
21.9831
22.0096
21.9995
21.9583
21.8915
21.8035
21.6985
21.5804
21.4524
21.3174
21.1781
21.0366
20.8948
20.7542
20.616
20.4813
20.3508
20.225
20.1043
19.9888
19.8788
19.7743
19.6751
19.5811
19.4923
19.4084
19.3291
19.2544
19.1838
19.1173
19.0546
18.9955
18.9397
18.887
18.8372
18.7902
18.7458
18.7039
18.6643
18.6269
18.5915
18.5581
18.5265
18.4967
18.4685
18.4418
18.4165
18.3926
18.3699
18.3483
18.3278
18.3083
18.2896
18.2718
18.2547
18.2384
18.2226
18.2074
18.1927
18.1785
18.1647
18.1513
18.1383
18.1256
18.1132
18.101
18.0892
18.0775
18.0662
18.055
18.0441
18.0335
18.0231
18.013
18.0032
17.9938
17.985
17.9767
17.9692
17.9626
17.9572
17.9533
17.9515
17.9522
17.9564
17.9648
17.9797
18.0018
18.0364
18.0843
18.1581
18.2594
18.4207
18.6472
19.0125
-8.0205
-8.05501
-8.15352
-8.31378
-8.53571
-8.81954
-9.16463
-9.56791
-10.0226
-10.5167
-11.0324
-11.546
-12.0291
-12.4517
-12.785
-13.005
-13.0951
-13.0495
-12.8832
-12.6301
-12.3392
-12.0696
-11.8684
-11.7691
-11.7815
-11.9321
-12.1577
-12.8187
-13.6164
-14.2856
-15.0702
-16.2327
-17.7449
-19.5184
-21.4522
-23.454
-25.4432
-27.3515
-29.1194
-30.6942
-32.0289
-33.0824
-33.8193
-34.2122
-34.2428
-33.904
-33.2017
-32.156
-30.7959
-29.1552
-27.2725
-25.192
-22.9602
-20.6226
-18.2214
-15.7943
-13.3737
-10.9865
-8.65463
-6.39531
-4.2213
-2.14081
-0.157616
1.7286
3.52158
5.22694
6.85092
8.39865
9.87331
11.2754
12.603
13.8524
15.0191
16.0983
17.0855
17.9769
18.7699
19.4634
20.0586
20.5589
20.9695
21.297
21.5492
21.7341
21.8602
21.935
21.9661
21.9602
21.9229
21.8596
21.7747
21.6725
21.5568
21.4309
21.2978
21.1601
21.0201
20.8796
20.7402
20.6031
20.4694
20.3398
20.2148
20.0948
19.9801
19.8708
19.7669
19.6682
19.5748
19.4864
19.4028
19.3239
19.2494
19.1792
19.1129
19.0504
18.9914
18.9358
18.8834
18.8339
18.7872
18.7431
18.7015
18.6621
18.6249
18.5898
18.5566
18.5252
18.4955
18.4674
18.4409
18.4157
18.3919
18.3693
18.3478
18.3273
18.3079
18.2893
18.2715
18.2545
18.2381
18.2224
18.2072
18.1925
18.1783
18.1645
18.1512
18.1381
18.1254
18.113
18.1009
18.089
18.0774
18.066
18.0548
18.0439
18.0332
18.0228
18.0127
18.0029
17.9935
17.9846
17.9762
17.9686
17.9619
17.9564
17.9524
17.9503
17.9507
17.9545
17.9625
17.9763
17.9978
18.0299
18.0767
18.1437
18.2413
18.3763
18.5688
18.7742
-8.08343
-8.13912
-8.25621
-8.43172
-8.66886
-8.97117
-9.34117
-9.77824
-10.2773
-10.8268
-11.4079
-11.9933
-12.549
-13.038
-13.4252
-13.6825
-13.7914
-13.7509
-13.5808
-13.3154
-12.9967
-12.676
-12.4442
-12.3383
-12.3965
-12.8684
-13.4468
-14.2066
-15.2034
-16.3385
-17.5958
-19.0096
-20.5879
-22.3096
-24.1305
-25.9984
-27.8574
-29.6514
-31.3249
-32.8243
-34.0981
-35.0987
-35.7838
-36.1193
-36.0829
-35.6673
-34.8798
-33.7349
-32.2563
-30.4836
-28.4645
-26.2501
-23.8919
-21.4387
-18.9351
-16.4194
-13.924
-11.4748
-9.0924
-6.79299
-4.58862
-2.48725
-0.492353
1.39735
3.18728
4.88555
6.5013
8.04247
9.51445
10.919
12.2544
13.5162
14.6992
15.7974
16.8056
17.7191
18.5341
19.2488
19.8637
20.3818
20.8082
21.1499
21.4148
21.6114
21.7482
21.8332
21.8738
21.8766
21.8475
21.7914
21.713
21.6166
21.5059
21.3845
21.2553
21.1211
20.9842
20.8466
20.7097
20.575
20.4434
20.3158
20.1926
20.0743
19.9612
19.8533
19.7507
19.6533
19.561
19.4737
19.3912
19.3132
19.2396
19.1702
19.1047
19.0429
18.9846
18.9297
18.8778
18.8289
18.7827
18.739
18.6978
18.6588
18.622
18.5871
18.5542
18.5231
18.4937
18.4659
18.4395
18.4146
18.3909
18.3684
18.347
18.3267
18.3073
18.2888
18.2711
18.2541
18.2378
18.2221
18.207
18.1923
18.1782
18.1644
18.151
18.138
18.1253
18.1129
18.1008
18.0889
18.0773
18.0659
18.0547
18.0438
18.0331
18.0226
18.0125
18.0026
17.9931
17.9841
17.9757
17.9679
17.9611
17.9553
17.951
17.9485
17.9485
17.9515
17.9586
17.971
17.9909
18.0199
18.0628
18.1216
18.2065
18.3129
18.457
18.5761
-8.1143
-8.17885
-8.30421
-8.49024
-8.74326
-9.06838
-9.46998
-9.94901
-10.501
-11.1139
-11.7654
-12.4238
-13.0494
-13.601
-14.0386
-14.3306
-14.4584
-14.4294
-14.2735
-14.0337
-13.7695
-13.539
-13.4196
-13.5319
-13.8843
-14.4774
-15.311
-16.3294
-17.5162
-18.8478
-20.3149
-21.8988
-23.5838
-25.351
-27.1749
-29.0214
-30.8495
-32.6127
-34.2593
-35.7345
-36.9823
-37.9496
-38.5901
-38.8675
-38.7565
-38.2444
-37.3297
-36.0243
-34.3632
-32.3948
-30.1753
-27.7642
-25.2205
-22.5988
-19.9468
-17.3044
-14.7031
-12.1671
-9.71444
-7.35902
-5.11186
-2.98095
-0.969985
0.923028
2.70582
4.39006
5.98926
7.51625
8.98043
10.3859
11.7313
13.011
14.2178
15.3443
16.3838
17.3301
18.1782
18.9248
19.5694
20.1144
20.5648
20.9278
21.2119
21.4261
21.5794
21.6799
21.735
21.7515
21.7348
21.6899
21.6215
21.5338
21.4308
21.3161
21.1929
21.064
20.9319
20.7985
20.6656
20.5345
20.4062
20.2815
20.1611
20.0453
19.9345
19.8288
19.7282
19.6326
19.542
19.4563
19.3751
19.2985
19.2261
19.1578
19.0933
19.0325
18.9751
18.9209
18.8698
18.8215
18.7759
18.7328
18.6922
18.6537
18.6174
18.583
18.5506
18.5198
18.4908
18.4632
18.4372
18.4125
18.389
18.3667
18.3456
18.3254
18.3061
18.2878
18.2702
18.2533
18.2371
18.2214
18.2064
18.1918
18.1777
18.164
18.1507
18.1377
18.125
18.1126
18.1005
18.0886
18.077
18.0656
18.0544
18.0435
18.0328
18.0223
18.012
18.0021
17.9926
17.9834
17.9748
17.9669
17.9598
17.9538
17.9491
17.9461
17.9453
17.9474
17.9534
17.9641
17.9816
18.007
18.0445
18.0944
18.1642
18.2458
18.3461
18.4076
-8.0586
-8.12468
-8.25284
-8.44598
-8.71194
-9.0571
-9.48715
-10.0039
-10.6025
-11.2689
-11.9772
-12.6896
-13.3615
-13.9455
-14.3998
-14.6977
-14.8385
-14.8445
-14.7598
-14.636
-14.5307
-14.5039
-14.6468
-15.0127
-15.6192
-16.4565
-17.4978
-18.7114
-20.0717
-21.5624
-23.1746
-24.8913
-26.6934
-28.5574
-30.4589
-32.3685
-34.2511
-36.0643
-37.7582
-39.2765
-40.559
-41.5465
-42.1856
-42.43
-42.2444
-41.6042
-40.5064
-38.982
-37.0765
-34.8464
-32.3588
-29.6851
-26.8954
-24.0526
-21.2094
-18.4068
-15.6743
-13.0321
-10.4934
-8.06761
-5.7636
-3.58975
-1.5517
0.350918
2.12639
3.79005
5.36166
6.86191
8.30741
9.70675
11.0596
12.3587
13.5938
14.7549
15.8337
16.8218
17.7123
18.5002
19.1832
19.7629
20.2441
20.6343
20.9429
21.1796
21.3541
21.4748
21.5494
21.5839
21.5838
21.5539
21.4989
21.4229
21.3301
21.2243
21.109
20.9872
20.8614
20.7338
20.6062
20.4798
20.3559
20.2353
20.1186
20.0062
19.8986
19.7957
19.6977
19.6046
19.5163
19.4326
19.3534
19.2785
19.2077
19.1409
19.0778
19.0183
18.962
18.909
18.8589
18.8116
18.7669
18.7247
18.6848
18.647
18.6113
18.5776
18.5456
18.5154
18.4868
18.4597
18.434
18.4096
18.3865
18.3645
18.3436
18.3236
18.3046
18.2864
18.2689
18.2522
18.2361
18.2206
18.2056
18.1911
18.1771
18.1634
18.1502
18.1372
18.1246
18.1122
18.1002
18.0883
18.0767
18.0653
18.0541
18.0431
18.0324
18.0218
18.0115
18.0015
17.9919
17.9826
17.9738
17.9657
17.9583
17.9519
17.9467
17.9431
17.9416
17.9426
17.9471
17.9557
17.9704
17.9917
18.0229
18.0634
18.1175
18.1763
18.2394
18.2606
-7.88924
-7.95271
-8.07854
-8.27134
-8.54013
-8.89239
-9.33483
-9.86988
-10.4921
-11.1844
-11.9162
-12.6467
-13.3266
-13.9099
-14.364
-14.6782
-14.8635
-14.9544
-15.0018
-15.0594
-15.1833
-15.436
-15.8689
-16.5111
-17.3726
-18.4395
-19.6883
-21.0989
-22.6486
-24.3186
-26.0932
-27.9565
-29.8934
-31.8859
-33.9139
-35.9519
-37.9679
-39.9206
-41.7587
-43.4207
-44.8371
-45.9333
-46.6331
-46.8693
-46.5953
-45.7955
-44.484
-42.69
-40.469
-37.8944
-35.0505
-32.0271
-28.9108
-25.7777
-22.6883
-19.6853
-16.7956
-14.0329
-11.4014
-8.90012
-6.53017
-4.29797
-2.21322
-0.281865
1.50075
3.15084
4.69314
6.15635
7.56717
8.94345
10.2902
11.6006
12.8611
14.058
15.1798
16.2153
17.1554
17.9921
18.7209
19.3419
19.8597
20.2819
20.6188
20.8811
21.0799
21.2239
21.3209
21.3769
21.397
21.3857
21.3472
21.2858
21.2056
21.1109
21.0053
20.8921
20.7742
20.6538
20.5327
20.4124
20.294
20.1784
20.0663
19.9583
19.8545
19.7553
19.6606
19.5706
19.485
19.4039
19.327
19.2542
19.1855
19.1205
19.0591
19.0011
18.9464
18.8947
18.8458
18.7997
18.7561
18.7148
18.6758
18.6389
18.604
18.5709
18.5396
18.51
18.4819
18.4553
18.43
18.4061
18.3833
18.3616
18.341
18.3213
18.3025
18.2845
18.2673
18.2507
18.2348
18.2194
18.2045
18.1902
18.1762
18.1627
18.1495
18.1366
18.124
18.1117
18.0997
18.0878
18.0762
18.0648
18.0536
18.0426
18.0319
18.0213
18.0109
18.0008
17.991
17.9816
17.9726
17.9642
17.9565
17.9497
17.9439
17.9396
17.9371
17.9369
17.9397
17.9461
17.9574
17.9743
17.9986
18.0295
18.0684
18.1069
18.1396
18.1326
-7.60056
-7.65764
-7.77444
-7.9552
-8.2091
-8.54383
-8.96632
-9.47923
-10.0778
-10.745
-11.4497
-12.1503
-12.8028
-13.3682
-13.832
-14.1957
-14.4799
-14.7196
-14.9623
-15.26
-15.6611
-16.2086
-16.9353
-17.8603
-18.9851
-20.2977
-21.7811
-23.4146
-25.1748
-27.0412
-28.9964
-31.0282
-33.1288
-35.2909
-37.5044
-39.7518
-42.0048
-44.2199
-46.3369
-48.2781
-49.9512
-51.2528
-52.0808
-52.3513
-52.0115
-51.0471
-49.4728
-47.3335
-44.6992
-41.6653
-38.3433
-34.8503
-31.2972
-27.7794
-24.3689
-21.1113
-18.029
-15.1269
-12.3975
-9.8252
-7.39575
-5.10581
-2.96497
-0.986602
0.825713
2.4833
4.01069
5.44178
6.8125
8.1522
9.47661
10.7843
12.0609
13.2885
14.4514
15.5354
16.528
17.418
18.1975
18.8644
19.4223
19.88
20.2485
20.54
20.7655
20.9347
21.0558
21.135
21.1774
21.1869
21.1675
21.123
21.0577
20.976
20.8818
20.7789
20.6703
20.5584
20.4451
20.3319
20.2201
20.1106
20.0041
19.9012
19.8021
19.7072
19.6165
19.5301
19.4478
19.3697
19.2956
19.2255
19.159
19.0962
19.0368
18.9807
18.9277
18.8776
18.8302
18.7854
18.7431
18.703
18.6651
18.6291
18.5951
18.5629
18.5324
18.5034
18.476
18.4499
18.4252
18.4018
18.3794
18.3582
18.3379
18.3185
18.3
18.2823
18.2653
18.2489
18.2331
18.2179
18.2032
18.189
18.1752
18.1617
18.1486
18.1358
18.1233
18.1111
18.0991
18.0873
18.0757
18.0643
18.0531
18.0421
18.0313
18.0206
18.0102
18
17.9901
17.9805
17.9713
17.9626
17.9545
17.9471
17.9408
17.9356
17.9321
17.9305
17.9314
17.9353
17.9431
17.9552
17.9725
17.9939
18.0186
18.0393
18.0478
18.0197
-7.22832
-7.27657
-7.37828
-7.53644
-7.75954
-8.05453
-8.42771
-8.88209
-9.41392
-10.0086
-10.6402
-11.2741
-11.8766
-12.4326
-12.9336
-13.3859
-13.8108
-14.2413
-14.7179
-15.2811
-15.9674
-16.8094
-17.8326
-19.0485
-20.4539
-22.036
-23.7747
-25.6448
-27.622
-29.6875
-31.8303
-34.0491
-36.3502
-38.7435
-41.2336
-43.8121
-46.4502
-49.0939
-51.662
-54.0487
-56.1279
-57.7647
-58.8314
-59.2176
-58.846
-57.6888
-55.7729
-53.1703
-49.9784
-46.327
-42.3658
-38.2488
-34.1194
-30.0974
-26.2693
-22.684
-19.3565
-16.28
-13.4349
-10.7911
-8.31512
-5.98508
-3.80026
-1.77614
0.07467
1.75605
3.28912
4.70887
6.05565
7.36636
8.66749
9.96664
11.251
12.5005
13.6965
14.8226
15.8632
16.8033
17.6316
18.3437
18.9426
19.4376
19.8405
20.1638
20.4188
20.6156
20.7624
20.8659
20.9312
20.9624
20.963
20.9369
20.888
20.8208
20.7397
20.6485
20.5505
20.4484
20.3441
20.2392
20.135
20.0325
19.9325
19.8355
19.7419
19.652
19.5659
19.4837
19.4053
19.3307
19.2598
19.1926
19.1288
19.0685
19.0114
18.9574
18.9063
18.858
18.8124
18.7692
18.7282
18.6895
18.6528
18.618
18.585
18.5537
18.524
18.4959
18.4692
18.4438
18.4197
18.3968
18.3749
18.3541
18.3342
18.3153
18.2971
18.2796
18.2629
18.2468
18.2312
18.2162
18.2017
18.1876
18.1739
18.1606
18.1476
18.1349
18.1225
18.1103
18.0984
18.0866
18.0751
18.0637
18.0525
18.0415
18.0306
18.0199
18.0094
17.9991
17.989
17.9792
17.9698
17.9607
17.9522
17.9444
17.9373
17.9313
17.9266
17.9234
17.9223
17.9236
17.9278
17.9349
17.9453
17.9575
17.9694
17.9745
17.9638
17.9193
-6.82676
-6.86579
-6.94939
-7.07931
-7.26257
-7.50507
-7.81311
-8.1905
-8.63606
-9.1404
-9.68469
-10.2457
-10.8112
-11.3716
-11.9259
-12.4836
-13.0642
-13.6948
-14.4062
-15.2294
-16.1941
-17.3275
-18.6472
-20.1577
-21.8506
-23.7066
-25.6985
-27.7973
-29.9798
-32.235
-34.5687
-37.0031
-39.5683
-42.2925
-45.1912
-48.2572
-51.452
-54.7016
-57.8961
-60.8943
-63.5311
-65.6309
-67.0186
-67.5434
-67.1109
-65.704
-63.3667
-60.1857
-56.2965
-51.8748
-47.119
-42.2291
-37.3876
-32.7435
-28.4008
-24.4124
-20.7844
-17.4935
-14.5034
-11.7708
-9.24658
-6.88933
-4.68082
-2.62949
-0.749844
0.957859
2.51216
3.94476
5.29431
6.60028
7.89419
9.18987
10.478
11.7397
12.9573
14.1136
15.1899
16.1685
17.0364
17.7893
18.4288
18.9631
19.403
19.7604
20.047
20.273
20.4469
20.5754
20.6639
20.7167
20.7375
20.73
20.6982
20.6465
20.5796
20.5014
20.4153
20.3242
20.2301
20.1345
20.039
19.9444
19.8517
19.7614
19.6741
19.5899
19.509
19.4315
19.3575
19.2869
19.2196
19.1557
19.095
19.0374
18.9828
18.9312
18.8823
18.8361
18.7923
18.7508
18.7115
18.6742
18.6389
18.6054
18.5735
18.5433
18.5146
18.4873
18.4614
18.4368
18.4134
18.3911
18.3698
18.3495
18.3301
18.3115
18.2937
18.2766
18.2602
18.2444
18.2291
18.2143
18.2
18.186
18.1725
18.1593
18.1465
18.1339
18.1215
18.1094
18.0975
18.0858
18.0743
18.063
18.0518
18.0407
18.0298
18.0191
18.0085
17.9981
17.9878
17.9778
17.9681
17.9587
17.9498
17.9414
17.9336
17.9266
17.9207
17.9159
17.9127
17.9112
17.9117
17.9139
17.9176
17.921
17.9216
17.9131
17.8871
17.8294
-6.46168
-6.4928
-6.55991
-6.66284
-6.80781
-6.99965
-7.24454
-7.54722
-7.90931
-8.32736
-8.79341
-9.30004
-9.84316
-10.4208
-11.0368
-11.7019
-12.4326
-13.2505
-14.18
-15.2467
-16.4755
-17.8864
-19.4891
-21.2805
-23.2442
-25.3523
-27.5707
-29.8702
-32.2372
-34.6808
-37.2331
-39.9425
-42.8625
-46.0358
-49.478
-53.1698
-57.0519
-61.0221
-64.935
-68.6069
-71.8287
-74.3798
-76.0494
-76.6673
-76.1336
-74.432
-71.6171
-67.7988
-63.1477
-57.8854
-52.2615
-46.5261
-40.9039
-35.5759
-30.6665
-26.2355
-22.2792
-18.7539
-15.6027
-12.7666
-10.1844
-7.79878
-5.57582
-3.51073
-1.61174
0.12172
1.70632
3.16934
4.54477
5.86829
7.17067
8.4669
9.75528
11.0224
12.2516
13.4242
14.5203
15.5222
16.4187
17.2065
17.8867
18.4635
18.944
19.3384
19.658
19.9135
20.1143
20.2677
20.3792
20.4534
20.494
20.5049
20.4903
20.4549
20.4029
20.3387
20.2657
20.1867
20.1038
20.0187
19.9327
19.8469
19.7623
19.6795
19.5991
19.5212
19.4461
19.374
19.3048
19.2385
19.1753
19.115
19.0576
19.0031
18.9514
18.9024
18.8559
18.8119
18.7701
18.7306
18.693
18.6574
18.6236
18.5914
18.5609
18.5318
18.5042
18.4779
18.4529
18.4291
18.4064
18.3847
18.3641
18.3444
18.3255
18.3073
18.29
18.2733
18.2572
18.2416
18.2266
18.2121
18.198
18.1843
18.1709
18.1579
18.1452
18.1327
18.1205
18.1084
18.0966
18.085
18.0735
18.0622
18.051
18.0399
18.029
18.0182
18.0075
17.997
17.9866
17.9764
17.9664
17.9566
17.9472
17.9382
17.9296
17.9217
17.9145
17.9081
17.9027
17.8984
17.8951
17.8925
17.8898
17.8852
17.8756
17.8555
17.8171
17.7489
-6.17323
-6.2
-6.25633
-6.3402
-6.45779
-6.61294
-6.8118
-7.06
-7.36196
-7.71994
-8.13515
-8.61097
-9.1492
-9.7541
-10.4335
-11.1989
-12.0656
-13.0517
-14.1773
-15.4633
-16.9283
-18.5852
-20.4365
-22.4709
-24.6634
-26.9794
-29.3847
-31.8609
-34.4125
-37.0713
-39.8937
-42.9475
-46.2973
-49.9863
-54.0169
-58.3476
-62.8904
-67.512
-72.0374
-76.2564
-79.9331
-82.8202
-84.6818
-85.3255
-84.6407
-82.6155
-79.3225
-74.8942
-69.5293
-63.4872
-57.0627
-50.5497
-44.2098
-38.2524
-32.8207
-27.9844
-23.7291
-19.9933
-16.6989
-13.7678
-11.1278
-8.71007
-6.47088
-4.39355
-2.47643
-0.713076
0.910638
2.41603
3.82855
5.17544
6.48832
7.78839
9.07921
10.3498
11.5832
12.7598
13.8617
14.8757
15.7943
16.6139
17.3329
17.9518
18.474
18.9062
19.2587
19.543
19.7695
19.9464
20.0799
20.1745
20.2344
20.2636
20.2664
20.2474
20.2112
20.1619
20.1029
20.037
19.9663
19.8924
19.8168
19.7407
19.6649
19.5903
19.5173
19.4463
19.3775
19.3112
19.2472
19.1858
19.127
19.0707
19.017
18.9659
18.9172
18.871
18.8272
18.7855
18.746
18.7085
18.6729
18.6391
18.6068
18.5762
18.547
18.5192
18.4927
18.4675
18.4435
18.4205
18.3987
18.3778
18.3578
18.3387
18.3203
18.3027
18.2858
18.2695
18.2538
18.2386
18.2239
18.2097
18.1958
18.1823
18.1691
18.1563
18.1437
18.1314
18.1193
18.1074
18.0956
18.084
18.0726
18.0613
18.0501
18.0391
18.0281
18.0172
18.0065
17.9958
17.9852
17.9748
17.9645
17.9544
17.9445
17.9348
17.9255
17.9165
17.908
17.9
17.8924
17.8853
17.8784
17.8711
17.8624
17.8504
17.8318
17.8018
17.7531
17.6765
-5.96471
-5.99233
-6.04697
-6.12439
-6.23093
-6.36936
-6.54633
-6.7682
-7.04199
-7.37433
-7.77273
-8.24396
-8.79625
-9.43934
-10.1848
-11.0459
-12.0368
-13.1726
-14.4687
-15.94
-17.5992
-19.4529
-21.4981
-23.7178
-26.0851
-28.5679
-31.1396
-33.7944
-36.5506
-39.4555
-42.5754
-45.9803
-49.7278
-53.8463
-58.318
-63.084
-68.0435
-73.0529
-77.9278
-82.4457
-86.3526
-89.3791
-91.2701
-91.8254
-90.9374
-88.6069
-84.9216
-80.0258
-74.1356
-67.5379
-60.5608
-53.5207
-46.7019
-40.3298
-34.5568
-29.455
-25.0012
-21.1246
-17.7328
-14.7355
-12.0493
-9.6029
-7.34668
-5.25412
-3.31258
-1.51223
0.156254
1.70298
3.14428
4.50972
5.83513
7.14374
8.43876
9.70996
10.9416
12.1168
13.222
14.2487
15.191
16.0428
16.7983
17.4538
18.0103
18.4743
18.8561
19.167
19.4173
19.6158
19.7693
19.883
19.9612
20.0082
20.0285
20.0264
20.0065
19.9728
19.9286
19.8765
19.8187
19.7569
19.6924
19.6265
19.5602
19.4943
19.4293
19.3657
19.3037
19.2436
19.1853
19.1291
19.075
19.023
18.9733
18.9258
18.8805
18.8373
18.7963
18.7572
18.7201
18.6849
18.6513
18.6193
18.5888
18.5598
18.532
18.5056
18.4804
18.4563
18.4333
18.4113
18.3903
18.3702
18.351
18.3325
18.3148
18.2978
18.2813
18.2655
18.2502
18.2353
18.221
18.207
18.1934
18.1802
18.1672
18.1545
18.1421
18.1299
18.118
18.1062
18.0945
18.083
18.0716
18.0604
18.0492
18.0382
18.0272
18.0162
18.0054
17.9946
17.9838
17.9732
17.9626
17.9521
17.9417
17.9314
17.9213
17.9113
17.9014
17.8917
17.882
17.8721
17.8617
17.85
17.8357
17.817
17.7905
17.7519
17.6947
17.6113
-5.8138
-5.84726
-5.91024
-5.99393
-6.10518
-6.24711
-6.42651
-6.65014
-6.92633
-7.26422
-7.67413
-8.16757
-8.75721
-9.45647
-10.2789
-11.2375
-12.3441
-13.6099
-15.0449
-16.6591
-18.461
-20.4542
-22.6351
-24.9882
-27.4911
-30.1179
-32.8486
-35.6817
-38.6348
-41.7495
-45.0829
-48.6932
-52.6249
-56.8998
-61.4984
-66.365
-71.4036
-76.4695
-81.3704
-85.8725
-89.7144
-92.6274
-94.3664
-94.7469
-93.6727
-91.1455
-87.2462
-82.1351
-76.0386
-69.2499
-62.1018
-54.9151
-47.9734
-41.5018
-35.6499
-30.4856
-25.9847
-22.0732
-18.6531
-15.6284
-12.9153
-10.4455
-8.17014
-6.0581
-4.08959
-2.2552
-0.553941
1.01819
2.48002
3.86502
5.20682
6.52384
7.81854
9.08528
10.3143
11.4939
12.6135
13.6643
14.6367
15.5195
16.3027
16.9825
17.5621
18.0496
18.4548
18.7881
19.0597
19.2781
19.4501
19.5813
19.6768
19.7412
19.7789
19.7942
19.7913
19.7738
19.7449
19.7073
19.663
19.6137
19.5608
19.5056
19.4493
19.3925
19.336
19.2801
19.2253
19.1716
19.1194
19.0687
19.0196
18.9722
18.9267
18.883
18.8413
18.8014
18.7634
18.7271
18.6926
18.6596
18.6282
18.5982
18.5696
18.5422
18.5161
18.4911
18.4672
18.4443
18.4224
18.4015
18.3814
18.3622
18.3437
18.3259
18.3089
18.2924
18.2765
18.2611
18.2462
18.2318
18.2178
18.2041
18.1908
18.1778
18.1651
18.1527
18.1404
18.1284
18.1166
18.1049
18.0933
18.0819
18.0706
18.0594
18.0483
18.0372
18.0262
18.0152
18.0042
17.9933
17.9824
17.9715
17.9606
17.9497
17.9389
17.9279
17.917
17.906
17.8948
17.8834
17.8716
17.8591
17.8453
17.8294
17.81
17.7852
17.7518
17.7057
17.6415
17.5525
-5.68616
-5.73112
-5.81483
-5.91807
-6.04949
-6.21198
-6.41279
-6.65968
-6.96292
-7.33383
-7.78519
-8.33045
-8.98385
-9.75949
-10.6703
-11.727
-12.9382
-14.311
-15.8515
-17.5659
-19.461
-21.5413
-23.8058
-26.2443
-28.8383
-31.5642
-34.3994
-37.3327
-40.3673
-43.5286
-46.8613
-50.418
-54.2423
-58.3583
-62.7557
-67.3855
-72.1558
-76.9255
-81.5075
-85.679
-89.1991
-91.8232
-93.3281
-93.5466
-92.3859
-89.8465
-86.0014
-80.9947
-75.0542
-68.4711
-61.5606
-54.6252
-47.9299
-41.6843
-36.0259
-31.0115
-26.619
-22.7805
-19.4031
-16.3941
-13.6774
-11.1956
-8.90706
-6.78098
-4.79683
-2.94783
-1.23354
0.353886
1.83795
3.24843
4.60929
5.93403
7.22891
8.49557
9.72974
10.9222
12.0618
13.1368
14.1338
15.0389
15.8409
16.5363
17.13
17.6321
18.0541
18.4064
18.6973
18.9342
19.1238
19.2721
19.3845
19.466
19.5212
19.554
19.5683
19.5674
19.5542
19.5313
19.5008
19.4644
19.4235
19.3794
19.3332
19.2859
19.2381
19.1904
19.1429
19.0961
19.0501
19.0051
18.9612
18.9187
18.8776
18.838
18.7999
18.7635
18.7286
18.6953
18.6634
18.633
18.6038
18.5759
18.5492
18.5237
18.4991
18.4757
18.4531
18.4316
18.4109
18.391
18.3719
18.3536
18.3359
18.3189
18.3025
18.2867
18.2713
18.2565
18.2421
18.228
18.2144
18.2011
18.1881
18.1754
18.1629
18.1507
18.1386
18.1268
18.1151
18.1035
18.0921
18.0808
18.0695
18.0583
18.0472
18.0362
18.0251
18.0141
18.0031
17.992
17.981
17.9698
17.9587
17.9474
17.936
17.9245
17.9127
17.9007
17.8883
17.8753
17.8614
17.8463
17.8294
17.8096
17.7855
17.7552
17.7158
17.6633
17.5931
17.4995
-5.57874
-5.62969
-5.73328
-5.86287
-6.02466
-6.2218
-6.46221
-6.75462
-7.11103
-7.54399
-8.06648
-8.69122
-9.43084
-10.2972
-11.3005
-12.4485
-13.7456
-15.1945
-16.798
-18.5609
-20.4898
-22.59
-24.8613
-27.2945
-29.8704
-32.5635
-35.3469
-38.1998
-41.117
-44.1154
-47.2298
-50.5082
-53.9904
-57.6993
-61.6285
-65.74
-69.952
-74.1407
-78.143
-81.7665
-84.8034
-87.0438
-88.2952
-88.4084
-87.2956
-84.9456
-81.4167
-76.8362
-71.4126
-65.4129
-59.1199
-52.7989
-46.6814
-40.9504
-35.7234
-31.0442
-26.8949
-23.2206
-19.9438
-16.987
-14.2911
-11.817
-9.534
-7.41393
-5.43658
-3.59314
-1.87662
-0.273097
1.23826
2.67775
4.06155
5.40213
6.70884
7.98555
9.22865
10.4291
11.5766
12.6601
13.667
14.5826
15.3954
16.1021
16.7077
17.2226
17.6583
18.0251
18.3318
18.5854
18.7921
18.9577
19.0875
19.1866
19.2593
19.3096
19.3408
19.3562
19.3587
19.3506
19.334
19.3106
19.2818
19.2489
19.2132
19.1756
19.1368
19.0973
19.0574
19.0175
18.9779
18.9388
18.9004
18.8628
18.8262
18.7909
18.7567
18.7238
18.6923
18.662
18.6329
18.605
18.5783
18.5526
18.5279
18.5042
18.4814
18.4595
18.4384
18.4182
18.3987
18.3799
18.3619
18.3445
18.3277
18.3115
18.2958
18.2806
18.2659
18.2516
18.2376
18.2241
18.2108
18.1979
18.1852
18.1728
18.1605
18.1485
18.1367
18.125
18.1135
18.1021
18.0908
18.0795
18.0684
18.0572
18.0462
18.0351
18.0241
18.013
18.0019
17.9907
17.9795
17.9681
17.9567
17.945
17.9332
17.921
17.9085
17.8955
17.8818
17.8673
17.8515
17.834
17.8141
17.7907
17.7624
17.7272
17.6824
17.6245
17.5492
17.4518
-5.52425
-5.56989
-5.6713
-5.82681
-6.02758
-6.2723
-6.57092
-6.93475
-7.37499
-7.90022
-8.51896
-9.24024
-10.0733
-11.0254
-12.1011
-13.3039
-14.6357
-16.0974
-17.6893
-19.4123
-21.2678
-23.2566
-25.3772
-27.6262
-29.9922
-32.4613
-35.0146
-37.632
-40.3027
-43.0266
-45.8198
-48.7092
-51.7233
-54.8819
-58.186
-61.6108
-65.0985
-68.5545
-71.8506
-74.8324
-77.3287
-79.1655
-80.1816
-80.2488
-79.2891
-77.2854
-74.2862
-70.3951
-65.7831
-60.6692
-55.2844
-49.8464
-44.5458
-39.5307
-34.8937
-30.6703
-26.8507
-23.3984
-20.2617
-17.3893
-14.7461
-12.3109
-10.0617
-7.97267
-6.02221
-4.19517
-2.47761
-0.854633
0.687885
2.1611
3.57525
4.9407
6.26533
7.55183
8.7974
9.99558
11.1384
12.2173
13.2215
14.1379
14.9556
15.6706
16.2866
16.8129
17.2606
17.6401
17.9603
18.2286
18.4513
18.634
18.7818
18.8991
18.99
19.058
19.1064
19.1382
19.1563
19.1631
19.1605
19.1503
19.134
19.1127
19.0878
19.0602
19.0307
18.9997
18.9677
18.9351
18.9021
18.8691
18.8363
18.8039
18.7721
18.7411
18.711
18.6819
18.6538
18.6266
18.6005
18.5754
18.5511
18.5278
18.5052
18.4835
18.4625
18.4423
18.4228
18.4039
18.3858
18.3682
18.3513
18.3349
18.319
18.3036
18.2887
18.2742
18.2601
18.2463
18.2329
18.2198
18.207
18.1944
18.1821
18.17
18.158
18.1463
18.1347
18.1232
18.1118
18.1005
18.0894
18.0782
18.0671
18.0561
18.0451
18.034
18.023
18.0118
18.0007
17.9894
17.978
17.9665
17.9547
17.9427
17.9304
17.9176
17.9044
17.8904
17.8756
17.8595
17.8419
17.8222
17.7995
17.7728
17.7407
17.7012
17.6517
17.5891
17.5096
17.409
-5.4542
-5.48721
-5.59912
-5.79066
-6.0495
-6.36784
-6.75299
-7.21265
-7.75243
-8.375
-9.08164
-9.87326
-10.7519
-11.7201
-12.7812
-13.9372
-15.1889
-16.5333
-17.9696
-19.4969
-21.1209
-22.8464
-24.6814
-26.6306
-28.6944
-30.8659
-33.1309
-35.4707
-37.8668
-40.3057
-42.784
-45.3103
-47.8995
-50.5649
-53.3084
-56.1138
-58.9416
-61.725
-64.3696
-66.7584
-68.7596
-70.2368
-71.0631
-71.1381
-70.4004
-68.828
-66.4515
-63.3414
-59.6244
-55.4666
-51.047
-46.5376
-42.087
-37.8079
-33.7715
-30.0104
-26.5274
-23.3081
-20.3312
-17.5747
-15.0205
-12.6556
-10.4648
-8.42712
-6.51689
-4.7094
-2.98607
-1.3373
0.239486
1.74574
3.18594
4.56858
5.90311
7.19518
8.44361
9.64112
10.7779
11.8451
12.835
13.7396
14.5515
15.2669
15.8881
16.4221
16.879