/*--------------------------------*- C++ -*----------------------------------*\
  =========                 |
  \\      /  F ield         | OpenFOAM: The Open Source CFD Toolbox
   \\    /   O peration     | Website:  https://openfoam.org
    \\  /    A nd           | Version:  9
     \\/     M anipulation  |
\*---------------------------------------------------------------------------*/
FoamFile
{
    format      ascii;
    class       volScalarField;
    location    "0.022";
    object      s;
}
// * * * * * * * * * * * * * * * * * * * * * * * * * * * * * * * * * * * * * //

dimensions      [0 0 0 0 0 0 0];

internalField   nonuniform List<scalar> 
12225
(
1
1
1
1
1
1
1
1
1
1
1
1
1
1
1
1
1
0.999972
1
1
1
1
1
1
1
1
1
1
1
1
1
1
1
1
1
0.999999
1
1
1
1
1
1
1
1
1
1
1
1
1
1
1
1
1
1
1
1
1
1
1
1
1
1
1
1
1
1
1
1
1
1
1
1
1
1
1
1
1
1
1
1
1
1
1
1
1
1
1
1
1
1
1
1
1
1
1
1
1
1
1
1
1
1
1
1
1
1
1
1
1
1
1
1
1
1
1
1
1
1
1
1
1
1
1
1
1
1
1
1
1
1
1
1
1
1
1
1
1
1
1
1
1
1
1
1
1
1
1
1
1
1
1
1
1
1
1
1
1
1
1
1
1
1
1
1
1
1
1
1
1
1
1
1
1
1
1
1
1
1
1
1
1
1
1
1
1
1
1
1
1
1
1
1
1
1
1
1
1
1
1
1
1
1
1
1
1
1
1
1
1
1
1
1
1
1
1
1
1
1
1
1
1
1
1
1
1
1
1
1
1
1
1
1
1
1
1
1
1
1
1
1
1
1
1
1
1
1
1
1
1
1
1
1
1
1
1
1
1
1
1
1
1
1
1
1
1
1
1
1
1
1
1
1
1
1
1
1
1
1
1
1
1
1
1
1
1
1
1
1
1
1
1
1
1
1
1
1
1
1
1
1
1
1
1
1
1
1
1
1
1
1
1
1
1
1
1
1
1
1
1
1
1
1
1
1
1
1
1
1
1
1
1
1
1
1
1
1
1
1
1
1
1
1
1
1
1
1
1
1
1
1
1
1
1
1
1
1
1
1
1
1
1
1
1
1
1
1
1
1
1
1
1
1
1
1
1
1
1
1
1
1
1
1
1
1
1
1
1
1
1
1
1
1
1
1
1
1
1
1
1
1
1
1
1
1
1
1
1
1
1
1
1
1
1
1
1
1
1
1
1
1
1
1
1
1
1
1
1
1
1
1
1
1
1
1
1
1
1
1
1
1
1
1
1
1
1
1
1
1
1
1
1
1
1
1
1
1
1
1
1
1
1
1
1
1
1
1
1
1
1
1
1
1
1
1
1
1
1
1
1
1
1
1
1
1
1
1
1
1
1
1
1
1
1
1
1
1
1
1
1
1
1
1
1
1
1
1
1
1
1
1
1
1
1
1
1
1
1
1
1
1
1
1
1
1
1
1
1
1
1
1
1
1
1
1
1
1
1
1
1
1
8.24368e-06
6.43227e-05
0.000223094
0.000558779
0.00112963
0.00212319
0.00387343
0.00524381
0.00737778
0.00846928
0.00932768
0.00920928
0.00874244
0.00781104
0.00693786
0.00608795
0.00525426
0.00444758
0.00364835
0.00287291
0.00212876
0.00139651
0.000798455
0.000320185
0.000258412
0.00380858
0.0320837
0.0288366
0.0369428
0.219719
0.626714
0.687388
0.706173
0.718492
0.726237
0.731885
0.73497
0.7395
0.741993
0.743554
0.744823
0.745854
0.748101
0.750051
0.751296
0.7534
0.756175
0.757618
0.758537
0.7602
0.761873
0.763413
0.765153
0.766451
0.767362
0.768177
0.768992
0.769863
0.770351
0.770832
0.771074
0.771212
0.770993
0.770457
0.770267
0.770083
0.769429
0.768109
0.767366
0.766964
0.765867
0.764037
0.76208
0.759089
0.755368
0.75013
0.744264
0.737032
0.727974
0.717101
0.704675
0.690616
0.674184
0.655947
0.635227
0.612471
0.587515
0.560221
0.530485
0.498143
0.463123
0.425459
0.385341
0.343158
0.299565
0.255555
0.212572
0.172554
0.137638
0.108807
0.0840603
0.0628755
0.0454962
0.0319234
0.0217748
0.0144379
0.00929757
0.00581538
0.00353449
0.00208802
0.00119925
0.000669701
0.000363577
0.000191892
9.84071e-05
4.90128e-05
2.36394e-05
1.11177e-05
5.11974e-06
2.30836e-06
1.01861e-06
4.39642e-07
1.85449e-07
7.6424e-08
3.0773e-08
1.21101e-08
4.65902e-09
1.75297e-09
6.45308e-10
2.32514e-10
8.20345e-11
2.83507e-11
9.60032e-12
3.18625e-12
1.03667e-12
3.30705e-13
1.03455e-13
3.17406e-14
9.55171e-15
2.8196e-15
8.16531e-16
2.31991e-16
6.46725e-17
1.76912e-17
4.74924e-18
1.25131e-18
3.2361e-19
8.2157e-20
2.04776e-20
5.01162e-21
1.20447e-21
2.84309e-22
6.59222e-23
1.50171e-23
3.36139e-24
7.39423e-25
1.59869e-25
3.39771e-26
7.09908e-27
1.45833e-27
2.94568e-28
5.85101e-29
1.14294e-29
2.19579e-30
4.14905e-31
7.71089e-32
1.40946e-32
2.53376e-33
4.47922e-34
7.78555e-35
1.33022e-35
2.23326e-36
3.68239e-37
5.95847e-38
9.45255e-39
1.46729e-39
2.22423e-40
3.27478e-41
4.66049e-42
5.83739e-43
0.000125461
0.000569016
0.00192438
0.00487755
0.0109764
0.0213705
0.0372034
0.0497128
0.0643303
0.0729978
0.0775377
0.0764452
0.0727307
0.0649559
0.0545621
0.042933
0.0314952
0.0215947
0.0138562
0.0084141
0.00497922
0.00270777
0.00170126
0.000741327
0.00106357
0.0119754
0.186441
0.443517
0.554167
0.63501
0.724998
0.756605
0.785027
0.798915
0.811718
0.818121
0.826765
0.831517
0.834875
0.836953
0.837921
0.838494
0.838994
0.839674
0.840071
0.84019
0.839763
0.838924
0.837489
0.837053
0.837717
0.840382
0.845908
0.849739
0.853916
0.859169
0.864749
0.871789
0.877871
0.884331
0.889844
0.895
0.901911
0.905669
0.909875
0.914484
0.917986
0.920199
0.923161
0.927174
0.930121
0.932172
0.935235
0.93867
0.941715
0.944473
0.949008
0.953841
0.958035
0.961588
0.965564
0.968573
0.97098
0.972845
0.97407
0.974762
0.9741
0.972086
0.968675
0.963726
0.95696
0.947925
0.936001
0.920449
0.900146
0.873645
0.838999
0.793725
0.735189
0.6623
0.577967
0.485475
0.390111
0.300061
0.223746
0.163814
0.116652
0.0805801
0.0540795
0.035294
0.0224025
0.0138325
0.00831009
0.00485855
0.00276473
0.00153118
0.000825312
0.000432731
0.000220588
0.000109278
5.25933e-05
2.45856e-05
1.11565e-05
4.92391e-06
2.11897e-06
8.89516e-07
3.64362e-07
1.45679e-07
5.6871e-08
2.16839e-08
8.077e-09
2.93993e-09
1.04592e-09
3.63774e-10
1.23718e-10
4.11527e-11
1.33914e-11
4.26394e-12
1.32878e-12
4.05365e-13
1.21085e-13
3.5423e-14
1.01514e-14
2.85038e-15
7.84366e-16
2.11575e-16
5.5954e-17
1.45114e-17
3.69137e-18
9.212e-19
2.25579e-19
5.42138e-20
1.27901e-20
2.96261e-21
6.73885e-22
1.5055e-22
3.30393e-23
7.12358e-24
1.5092e-24
3.14223e-25
6.43027e-26
1.29353e-26
2.55815e-27
4.97417e-28
9.51013e-29
1.78792e-29
3.30525e-30
6.00839e-31
1.0739e-31
1.88715e-32
3.25946e-33
5.53318e-34
9.22415e-35
1.51032e-35
2.42366e-36
3.81489e-37
5.856e-38
8.78872e-39
1.26825e-39
1.75972e-40
0.000698119
0.00276859
0.00949473
0.0250199
0.0582958
0.108447
0.165061
0.209805
0.250252
0.273701
0.28054
0.275207
0.260883
0.233316
0.199057
0.160809
0.120848
0.0840751
0.0549082
0.0352439
0.020438
0.0080717
0.00242457
0.0133271
0.175047
0.483668
0.596133
0.692724
0.745243
0.782692
0.800627
0.807943
0.810652
0.81075
0.806561
0.796734
0.780361
0.755727
0.729366
0.711585
0.687437
0.67082
0.655276
0.647567
0.638981
0.634336
0.632333
0.631873
0.634603
0.639047
0.642514
0.648764
0.65782
0.667023
0.675475
0.684918
0.696257
0.708498
0.720295
0.730531
0.739745
0.748965
0.758065
0.765211
0.769793
0.774255
0.778453
0.781551
0.785155
0.791907
0.798501
0.802447
0.80784
0.815558
0.823299
0.832545
0.845315
0.860835
0.878029
0.895235
0.914724
0.932409
0.947037
0.96002
0.970703
0.978764
0.984674
0.988917
0.991765
0.993573
0.99468
0.995345
0.9957
0.995689
0.995183
0.993924
0.991902
0.988735
0.983902
0.976429
0.964326
0.943652
0.907698
0.84778
0.757321
0.639379
0.508407
0.381602
0.274957
0.19294
0.131236
0.0864894
0.0552709
0.0342675
0.0206213
0.0120489
0.00683692
0.00376766
0.00201615
0.0010474
0.000528123
0.000258401
0.00012268
5.65126e-05
2.52613e-05
1.09631e-05
4.6212e-06
1.89546e-06
7.58268e-07
2.96028e-07
1.1284e-07
4.20158e-08
1.52879e-08
5.43785e-09
1.8914e-09
6.43496e-10
2.14203e-10
6.97797e-11
2.22513e-11
6.94704e-12
2.12397e-12
6.36048e-13
1.86597e-13
5.36379e-14
1.51103e-14
4.17236e-15
1.12947e-15
2.99796e-16
7.80381e-17
1.99247e-17
4.99064e-18
1.22652e-18
2.9581e-19
7.00238e-20
1.62718e-20
3.71228e-21
8.31619e-22
1.82954e-22
3.95319e-23
8.39071e-24
1.74963e-24
3.58458e-25
7.21639e-26
1.42769e-26
2.77594e-27
5.30495e-28
9.96445e-29
1.83971e-29
3.33835e-30
5.95417e-31
1.04346e-31
1.79702e-32
3.0386e-33
5.04675e-34
8.21518e-35
1.31227e-35
2.04547e-36
3.12193e-37
4.59926e-38
6.58475e-39
0.00217064
0.00947885
0.0337321
0.0917519
0.199327
0.316786
0.407083
0.448751
0.462305
0.455781
0.436443
0.408344
0.377401
0.343026
0.300201
0.246775
0.188166
0.131513
0.0818437
0.0430944
0.0181323
0.0095378
0.0460589
0.267161
0.578382
0.691324
0.74593
0.782458
0.797658
0.803685
0.804998
0.802861
0.791184
0.767045
0.72465
0.684172
0.655732
0.636054
0.626486
0.616265
0.610334
0.605751
0.604141
0.603676
0.603745
0.60564
0.609653
0.613756
0.617433
0.621594
0.627017
0.633013
0.640358
0.648096
0.656159
0.6645
0.674001
0.68505
0.696525
0.7058
0.713565
0.720991
0.727422
0.732041
0.733388
0.733428
0.732481
0.72983
0.725396
0.722516
0.720879
0.720314
0.720274
0.721503
0.723437
0.726841
0.731554
0.737639
0.745578
0.756245
0.770594
0.789482
0.81546
0.846307
0.880463
0.913851
0.939977
0.95996
0.974757
0.984546
0.990665
0.994258
0.996253
0.997377
0.998032
0.998433
0.998694
0.998836
0.998867
0.998819
0.998572
0.997921
0.996655
0.994089
0.988701
0.976926
0.949387
0.881423
0.765273
0.619434
0.467253
0.333526
0.22987
0.15295
0.0983222
0.0611203
0.0367649
0.0214079
0.0120697
0.00658883
0.00348252
0.0017821
0.000882947
0.000423624
0.000196886
8.86847e-05
3.87415e-05
1.64237e-05
6.76093e-06
2.70485e-06
1.05403e-06
4.0051e-07
1.48487e-07
5.37418e-08
1.89976e-08
6.56205e-09
2.21565e-09
7.31546e-10
2.36264e-10
7.46625e-11
2.30926e-11
6.99238e-12
2.0733e-12
6.02124e-13
1.71314e-13
4.77609e-14
1.30501e-14
3.49546e-15
9.17959e-16
2.36402e-16
5.97132e-17
1.47964e-17
3.59736e-18
8.58273e-19
2.00978e-19
4.61971e-20
1.04253e-20
2.31006e-21
5.02667e-22
1.07427e-22
2.25516e-23
4.6507e-24
9.42275e-25
1.87585e-25
3.66948e-26
7.05394e-27
1.33256e-27
2.47396e-28
4.5135e-29
8.09232e-30
1.42542e-30
2.46694e-31
4.19171e-32
6.99438e-33
1.14402e-33
1.83552e-34
2.87645e-35
4.41105e-36
6.55673e-37
9.4796e-38
0.00475691
0.0250579
0.0916409
0.256296
0.42899
0.507312
0.537952
0.534239
0.517504
0.486472
0.440377
0.395077
0.359546
0.316271
0.275147
0.229936
0.177729
0.123235
0.0737664
0.0299124
0.0201278
0.0566697
0.272555
0.612102
0.725087
0.770511
0.790666
0.798542
0.80024
0.799206
0.787459
0.760764
0.709069
0.672748
0.648735
0.632871
0.624954
0.621433
0.620091
0.619689
0.621246
0.624702
0.628055
0.631763
0.635462
0.639018
0.643385
0.646569
0.648956
0.652873
0.657857
0.66452
0.672082
0.678621
0.6854
0.692675
0.700596
0.709534
0.719706
0.728728
0.735409
0.741436
0.74367
0.744317
0.744258
0.74229
0.736782
0.728129
0.719738
0.712993
0.710174
0.709369
0.709294
0.709652
0.710598
0.712304
0.714368
0.716327
0.718249
0.720852
0.724542
0.729742
0.736432
0.744685
0.757801
0.780707
0.817929
0.863702
0.90921
0.943867
0.966513
0.980963
0.989424
0.994139
0.996657
0.997971
0.998658
0.999041
0.999283
0.999449
0.999556
0.999609
0.99962
0.9996
0.999489
0.999125
0.998125
0.995529
0.988845
0.970952
0.919606
0.787012
0.617529
0.452055
0.314216
0.209878
0.134892
0.0835291
0.0498745
0.0287291
0.0159698
0.00856859
0.00443881
0.00222089
0.00107377
0.000502006
0.000227123
9.95306e-05
4.22881e-05
1.74374e-05
6.98297e-06
2.71868e-06
1.03106e-06
3.81194e-07
1.37475e-07
4.8391e-08
1.66337e-08
5.58589e-09
1.83337e-09
5.88331e-10
1.84652e-10
5.67002e-11
1.70388e-11
5.01232e-12
1.44376e-12
4.07303e-13
1.12566e-13
3.04832e-14
8.09048e-15
2.10494e-15
5.36964e-16
1.34331e-16
3.29623e-17
7.93497e-18
1.87428e-18
4.34468e-19
9.88507e-20
2.20783e-20
4.84148e-21
1.0425e-21
2.20454e-22
4.5788e-23
9.34168e-24
1.87233e-24
3.68682e-25
7.13299e-26
1.35597e-26
2.53285e-27
4.6486e-28
8.38302e-29
1.48504e-29
2.58427e-30
4.41503e-31
7.4052e-32
1.2177e-32
1.96335e-33
3.09463e-34
4.77045e-35
7.1515e-36
1.04333e-36
0.00843342
0.0538121
0.197336
0.461693
0.553432
0.579172
0.573092
0.549912
0.496626
0.411389
0.309237
0.220923
0.179966
0.170194
0.165813
0.161726
0.141724
0.0900039
0.0432015
0.0310444
0.0600834
0.243184
0.610325
0.73444
0.776008
0.790859
0.795353
0.7962
0.78968
0.768771
0.721452
0.67735
0.651891
0.636709
0.628964
0.62379
0.62012
0.618486
0.617758
0.617465
0.61714
0.616429
0.613218
0.608592
0.603907
0.600568
0.599142
0.598886
0.602647
0.605831
0.611801
0.619915
0.63251
0.641614
0.653339
0.666444
0.676305
0.688296
0.698681
0.711272
0.719995
0.730204
0.737796
0.741465
0.74286
0.742948
0.73849
0.729117
0.718066
0.710949
0.70956
0.710345
0.712419
0.714784
0.716666
0.718458
0.719052
0.718979
0.718796
0.718097
0.718541
0.719901
0.722375
0.726466
0.730839
0.736884
0.747224
0.765914
0.797665
0.845192
0.89801
0.940686
0.967398
0.982776
0.991129
0.995442
0.997595
0.998651
0.999173
0.999446
0.999602
0.999704
0.999776
0.999826
0.999851
0.999855
0.999841
0.999768
0.999508
0.998683
0.996148
0.988452
0.964731
0.888203
0.710097
0.524081
0.364664
0.24258
0.154629
0.0945937
0.0555916
0.0314092
0.0170724
0.00893348
0.00450386
0.00218969
0.0010277
0.000466139
0.000204568
8.6964e-05
3.58527e-05
1.43493e-05
5.57976e-06
2.11165e-06
7.78504e-07
2.7979e-07
9.80862e-08
3.35608e-08
1.1213e-08
3.65989e-09
1.16748e-09
3.64108e-10
1.1106e-10
3.31413e-11
9.67833e-12
2.76677e-12
7.74472e-13
2.12329e-13
5.70283e-14
1.5009e-14
3.87163e-15
9.79061e-16
2.42768e-16
5.90369e-17
1.40828e-17
3.29586e-18
7.56891e-19
1.7059e-19
3.77399e-20
8.19665e-21
1.74792e-21
3.66027e-22
7.52765e-23
1.52058e-23
3.01715e-24
5.88112e-25
1.12619e-25
2.11874e-26
3.91594e-27
7.11036e-28
1.26812e-28
2.22136e-29
3.82e-30
6.44805e-31
1.06726e-31
1.7317e-32
2.74892e-33
4.26753e-34
6.45885e-35
9.52423e-36
0.0130165
0.0939687
0.333855
0.553346
0.607382
0.608537
0.577944
0.502988
0.376302
0.233492
0.134054
0.0867146
0.0677529
0.0727448
0.0804214
0.08482
0.0720369
0.0497801
0.0435493
0.0675219
0.224908
0.593084
0.731086
0.774303
0.787181
0.790538
0.790997
0.780409
0.752098
0.695259
0.666836
0.643344
0.632965
0.626531
0.623089
0.617667
0.612262
0.607444
0.599573
0.586379
0.565773
0.53995
0.523044
0.508593
0.502439
0.500319
0.500469
0.507537
0.513789
0.52022
0.529806
0.540071
0.548994
0.560169
0.568728
0.584757
0.593688
0.607047
0.61588
0.62648
0.633274
0.641294
0.650372
0.662584
0.672938
0.683555
0.689708
0.694674
0.697497
0.699524
0.705673
0.715263
0.727705
0.735519
0.73724
0.734703
0.730568
0.729783
0.731948
0.733181
0.728526
0.721348
0.719403
0.720558
0.725504
0.732084
0.740796
0.752632
0.769285
0.794015
0.826246
0.867838
0.914076
0.952438
0.975769
0.988013
0.994224
0.997234
0.998645
0.99929
0.999584
0.999724
0.9998
0.999851
0.999892
0.999921
0.999936
0.999939
0.999934
0.999904
0.999782
0.999337
0.997796
0.99256
0.974978
0.915287
0.742724
0.540353
0.371355
0.243169
0.152041
0.0909195
0.0520686
0.028592
0.0150729
0.00763835
0.00372601
0.00175206
0.000795312
0.000348997
0.000148248
6.10366e-05
2.43848e-05
9.46209e-06
3.57156e-06
1.31253e-06
4.69971e-07
1.6407e-07
5.5878e-08
1.85753e-08
6.03003e-09
1.91241e-09
5.92785e-10
1.7965e-10
5.32499e-11
1.54425e-11
4.38282e-12
1.21774e-12
3.31315e-13
8.8293e-14
2.30526e-14
5.89831e-15
1.47927e-15
3.63728e-16
8.77011e-17
2.07404e-17
4.81166e-18
1.09526e-18
2.44654e-19
5.36385e-20
1.15439e-20
2.43917e-21
5.06058e-22
1.03104e-22
2.06307e-23
4.05461e-24
7.8272e-25
1.48425e-25
2.76467e-26
5.05838e-27
9.08974e-28
1.60407e-28
2.77887e-29
4.72484e-30
7.8787e-31
1.28786e-31
2.06091e-32
3.22645e-33
4.93341e-34
7.36076e-35
0.0181536
0.131266
0.420489
0.602397
0.632909
0.62431
0.56575
0.466006
0.32607
0.162402
0.0784393
0.0537204
0.049139
0.0497079
0.0528338
0.055525
0.0548869
0.0544291
0.0854481
0.226848
0.577405
0.723555
0.770147
0.782935
0.785704
0.78433
0.769661
0.728459
0.677434
0.652702
0.637479
0.627963
0.623656
0.619099
0.613235
0.602361
0.584901
0.556035
0.525252
0.499286
0.477381
0.468039
0.460874
0.457906
0.457172
0.459259
0.46545
0.472433
0.485235
0.494251
0.505711
0.52126
0.529249
0.545156
0.554106
0.568551
0.576478
0.587544
0.595862
0.604486
0.609755
0.612294
0.613523
0.614631
0.616361
0.619962
0.625046
0.63077
0.638478
0.651237
0.674817
0.706501
0.728968
0.739527
0.741362
0.735614
0.723527
0.717075
0.725975
0.739076
0.747343
0.746718
0.73242
0.719351
0.717514
0.72329
0.737892
0.756863
0.77689
0.797643
0.81929
0.846393
0.877915
0.911316
0.944964
0.970931
0.98592
0.993382
0.99698
0.998642
0.99938
0.999696
0.99983
0.999887
0.999914
0.999934
0.999954
0.999967
0.999972
0.999972
0.999968
0.999943
0.99984
0.999439
0.997946
0.992526
0.973241
0.904843
0.712507
0.50447
0.338034
0.215174
0.130425
0.075431
0.0417026
0.0220797
0.0112159
0.00547619
0.00257454
0.00116746
0.000511449
0.000216785
8.9026e-05
3.54623e-05
1.37181e-05
5.15987e-06
1.88878e-06
6.73373e-07
2.33968e-07
7.92777e-08
2.62106e-08
8.4596e-09
2.66667e-09
8.21335e-10
2.4727e-10
7.27916e-11
2.09605e-11
5.9057e-12
1.62865e-12
4.39737e-13
1.16276e-13
3.01187e-14
7.64432e-15
1.90153e-15
4.63687e-16
1.10866e-16
2.59966e-17
5.97944e-18
1.3493e-18
2.98773e-19
6.49269e-20
1.38493e-20
2.90008e-21
5.96249e-22
1.20372e-22
2.38643e-23
4.64645e-24
8.8853e-25
1.66878e-25
3.07824e-26
5.5762e-27
9.91881e-28
1.73201e-28
2.96819e-29
4.98945e-30
8.22265e-31
1.32737e-31
2.09739e-32
3.24132e-33
4.89551e-34
0.0208576
0.149462
0.462442
0.623735
0.644562
0.634571
0.579343
0.469816
0.328247
0.161456
0.0857223
0.0615994
0.0545716
0.0534216
0.0560499
0.0645782
0.080891
0.130664
0.286378
0.583551
0.71807
0.765069
0.778349
0.781096
0.778128
0.761441
0.715605
0.669568
0.646747
0.6351
0.627273
0.622675
0.617819
0.609754
0.596002
0.571215
0.531978
0.502133
0.48061
0.453707
0.439857
0.425895
0.413635
0.407579
0.405113
0.405135
0.414201
0.425424
0.441392
0.458368
0.477437
0.502038
0.516013
0.538386
0.553702
0.571477
0.583411
0.588019
0.595713
0.603532
0.609341
0.61157
0.612078
0.611634
0.610943
0.612181
0.616529
0.622032
0.627548
0.636661
0.654984
0.685591
0.717681
0.735734
0.739489
0.731843
0.709375
0.685879
0.674116
0.689026
0.725363
0.754705
0.762971
0.753899
0.727148
0.716492
0.72001
0.738176
0.773293
0.81248
0.844688
0.86626
0.881188
0.902744
0.928231
0.952461
0.972548
0.986054
0.993473
0.997102
0.998745
0.999464
0.999769
0.999892
0.999941
0.99996
0.999969
0.999976
0.999983
0.999987
0.999987
0.999986
0.99998
0.999946
0.999807
0.99925
0.9971
0.989017
0.959294
0.850237
0.624789
0.426345
0.274875
0.168082
0.0977485
0.0542008
0.0287253
0.0145848
0.00711015
0.00333508
0.00150806
0.000658532
0.000278143
0.000113789
4.51429e-05
1.73904e-05
6.51172e-06
2.37212e-06
8.41332e-07
2.90732e-07
9.79445e-08
3.21867e-08
1.0323e-08
3.23275e-09
9.88938e-10
2.95647e-10
8.64075e-11
2.46979e-11
6.90635e-12
1.88997e-12
5.06307e-13
1.32816e-13
3.41258e-14
8.59065e-15
2.11927e-15
5.12468e-16
1.21496e-16
2.82466e-17
6.44116e-18
1.44091e-18
3.16274e-19
6.81262e-20
1.44031e-20
2.98913e-21
6.0903e-22
1.21838e-22
2.39336e-23
4.61688e-24
8.74606e-25
1.62705e-25
2.97224e-26
5.33115e-27
9.38698e-28
1.62214e-28
2.75003e-29
4.57163e-30
7.44807e-31
1.18848e-31
1.85679e-32
2.83923e-33
0.0214925
0.154634
0.47511
0.634431
0.659157
0.653083
0.621123
0.554967
0.444524
0.296074
0.171037
0.12328
0.104971
0.100385
0.112911
0.15596
0.242277
0.418867
0.62254
0.720216
0.760726
0.77348
0.776303
0.772749
0.754088
0.705017
0.661223
0.639842
0.629184
0.623527
0.618576
0.612668
0.60263
0.583565
0.552798
0.510409
0.475157
0.449023
0.419402
0.389058
0.364834
0.336113
0.315076
0.301332
0.294276
0.29221
0.299585
0.315142
0.336281
0.366759
0.395495
0.433107
0.465309
0.499191
0.536575
0.570447
0.598051
0.611221
0.615669
0.616588
0.621607
0.625309
0.626374
0.62445
0.618206
0.614328
0.616967
0.627732
0.64484
0.659036
0.669977
0.688835
0.717748
0.741193
0.751463
0.75302
0.739835
0.70477
0.669937
0.65318
0.656008
0.689895
0.745773
0.774526
0.77972
0.757948
0.730193
0.72807
0.743245
0.785068
0.841046
0.886441
0.915519
0.925328
0.93187
0.94887
0.966556
0.980369
0.989513
0.99485
0.997662
0.998999
0.999588
0.999833
0.999931
0.999969
0.999983
0.999988
0.999991
0.999993
0.999995
0.999995
0.999994
0.999992
0.999977
0.999913
0.999645
0.998561
0.994306
0.978009
0.916852
0.723392
0.497976
0.323269
0.198379
0.115473
0.0639632
0.0338176
0.0171129
0.00830952
0.00388064
0.00174663
0.000759042
0.000319003
0.000129835
5.12416e-05
1.96333e-05
7.31027e-06
2.64741e-06
9.33243e-07
3.20447e-07
1.07246e-07
3.50038e-08
1.11478e-08
3.46594e-09
1.05245e-09
3.12259e-10
9.056e-11
2.56819e-11
7.12431e-12
1.93387e-12
5.13825e-13
1.33672e-13
3.40583e-14
8.50122e-15
2.07934e-15
4.98492e-16
1.1716e-16
2.70012e-17
6.10319e-18
1.35327e-18
2.94402e-19
6.28494e-20
1.31683e-20
2.70821e-21
5.46781e-22
1.08384e-22
2.10945e-23
4.0313e-24
7.56487e-25
1.39388e-25
2.52161e-26
4.47821e-27
7.80566e-28
1.33498e-28
2.23939e-29
3.6832e-30
5.93692e-31
9.37796e-32
1.45172e-32
0.0146636
0.12235
0.43507
0.638234
0.67242
0.673962
0.659602
0.628735
0.57308
0.4828
0.401913
0.344804
0.315404
0.308386
0.354691
0.448544
0.549246
0.667295
0.729961
0.758292
0.768708
0.771284
0.767423
0.74846
0.70045
0.657013
0.635014
0.62379
0.617683
0.613644
0.609552
0.60356
0.592067
0.568387
0.527542
0.479426
0.438509
0.40778
0.374347
0.32753
0.285272
0.252982
0.228179
0.212836
0.204882
0.202242
0.206437
0.220822
0.237845
0.267382
0.301966
0.342766
0.38578
0.425731
0.458023
0.509459
0.5763
0.616724
0.632713
0.638196
0.637667
0.63443
0.635546
0.637025
0.63362
0.627062
0.62071
0.626925
0.64855
0.681363
0.71376
0.740189
0.764136
0.787222
0.804073
0.817191
0.826306
0.82344
0.784161
0.708809
0.657347
0.649433
0.666878
0.724748
0.783021
0.807349
0.810982
0.782618
0.76372
0.771245
0.812859
0.870559
0.918739
0.948846
0.961123
0.962807
0.967665
0.979469
0.988405
0.993927
0.996992
0.998591
0.999377
0.99974
0.999897
0.99996
0.999984
0.999993
0.999996
0.999998
0.999998
0.999998
0.999998
0.999998
0.999996
0.999988
0.999951
0.999788
0.999107
0.996334
0.985338
0.942845
0.786719
0.546017
0.354704
0.217271
0.126012
0.0694632
0.03652
0.0183693
0.00886409
0.00411351
0.00183971
0.000794413
0.000331738
0.000134151
5.26015e-05
2.00208e-05
7.40394e-06
2.66268e-06
9.31929e-07
3.17656e-07
1.05516e-07
3.41757e-08
1.07991e-08
3.33082e-09
1.00324e-09
2.95215e-10
8.49044e-11
2.38753e-11
6.56675e-12
1.7672e-12
4.6547e-13
1.20034e-13
3.03146e-14
7.49979e-15
1.81807e-15
4.31958e-16
1.00611e-16
2.2978e-17
5.14677e-18
1.13083e-18
2.43767e-19
5.15633e-20
1.07043e-20
2.18115e-21
4.36285e-22
8.5675e-23
1.65183e-23
3.12692e-24
5.81179e-25
1.06053e-25
1.89986e-26
3.34064e-27
5.76465e-28
9.75946e-29
1.62071e-29
2.63923e-30
4.21495e-31
6.60424e-32
0.00881101
0.0842532
0.346825
0.61864
0.677853
0.684353
0.681139
0.674799
0.661033
0.622244
0.578213
0.558601
0.5503
0.556887
0.598787
0.647917
0.700736
0.74121
0.758351
0.765127
0.766854
0.762283
0.739393
0.691348
0.649314
0.628727
0.619036
0.614277
0.61162
0.609067
0.60436
0.594468
0.575029
0.539169
0.489767
0.437691
0.400754
0.364417
0.312083
0.261456
0.229028
0.200745
0.177825
0.167093
0.161315
0.159402
0.164287
0.177487
0.19315
0.220609
0.258782
0.303593
0.351117
0.398594
0.42943
0.452911
0.487419
0.567218
0.625385
0.640748
0.642668
0.635688
0.629411
0.629427
0.629976
0.62847
0.623787
0.623775
0.631174
0.664738
0.711426
0.75216
0.782674
0.802902
0.816587
0.829302
0.844316
0.857339
0.861969
0.852482
0.789077
0.695184
0.662307
0.671736
0.717703
0.79206
0.84257
0.87062
0.871548
0.847716
0.838526
0.861414
0.910754
0.948247
0.971341
0.981779
0.984301
0.985259
0.98931
0.994063
0.99693
0.998504
0.999309
0.999696
0.999873
0.999949
0.99998
0.999992
0.999997
0.999999
0.999999
1
1
1
0.999999
0.999998
0.999992
0.999965
0.999844
0.99932
0.997119
0.988119
0.952391
0.814461
0.566676
0.366364
0.222885
0.128263
0.0701205
0.0365557
0.0182333
0.00872608
0.0040168
0.00178223
0.000763587
0.00031639
0.000126954
4.93922e-05
1.86516e-05
6.84277e-06
2.44101e-06
8.47347e-07
2.86423e-07
9.43383e-08
3.02939e-08
9.48959e-09
2.90124e-09
8.66109e-10
2.52583e-10
7.19885e-11
2.00594e-11
5.46678e-12
1.45766e-12
3.80392e-13
9.71846e-14
2.43154e-14
5.9594e-15
1.43112e-15
3.36831e-16
7.77159e-17
1.75819e-17
3.90097e-18
8.49006e-19
1.81284e-19
3.7983e-20
7.81022e-21
1.5763e-21
3.12293e-22
6.07395e-23
1.15982e-23
2.17436e-24
4.00212e-25
7.23184e-26
1.28281e-26
2.23351e-27
3.81632e-28
6.39886e-29
1.05266e-29
1.69945e-30
2.69441e-31
0.00350391
0.0415086
0.208624
0.542753
0.674692
0.696087
0.695739
0.691234
0.693674
0.694715
0.683386
0.672964
0.671093
0.684448
0.708057
0.725823
0.749147
0.759527
0.763387
0.764262
0.7608
0.743249
0.70028
0.646992
0.617732
0.606461
0.602391
0.601517
0.601763
0.602235
0.600591
0.592456
0.572463
0.539143
0.489395
0.432456
0.384952
0.347155
0.300089
0.246792
0.207742
0.182676
0.161799
0.148578
0.138196
0.134785
0.146262
0.156913
0.171875
0.196524
0.236757
0.2871
0.33701
0.388433
0.424786
0.446217
0.465821
0.496642
0.573487
0.631513
0.643308
0.639312
0.624052
0.61277
0.60792
0.606143
0.607006
0.609412
0.614867
0.623424
0.650146
0.702244
0.749583
0.771969
0.776559
0.778001
0.796364
0.827754
0.856315
0.869273
0.868682
0.845532
0.762751
0.703934
0.701637
0.741626
0.816945
0.880625
0.920725
0.938673
0.938784
0.92728
0.92712
0.948519
0.973331
0.986827
0.992629
0.994753
0.995691
0.996729
0.997863
0.998775
0.999372
0.999704
0.99987
0.999946
0.999979
0.999992
0.999997
0.999999
1
1
1
1
1
1
0.999999
0.999994
0.99997
0.99986
0.999372
0.997262
0.988422
0.952586
0.812206
0.559891
0.358109
0.215415
0.122561
0.0662588
0.0341712
0.0168679
0.00799238
0.00364376
0.00160165
0.000679939
0.000279187
0.000111019
4.2803e-05
1.60172e-05
5.82288e-06
2.05818e-06
7.07866e-07
2.37049e-07
7.73436e-08
2.46016e-08
7.63305e-09
2.31126e-09
6.83324e-10
1.97346e-10
5.56974e-11
1.53682e-11
4.14722e-12
1.09494e-12
2.82922e-13
7.15692e-14
1.77296e-14
4.30235e-15
1.02297e-15
2.38387e-16
5.44583e-17
1.21985e-17
2.67979e-18
5.77469e-19
1.22087e-19
2.53276e-20
5.15662e-21
1.03048e-21
2.02144e-22
3.89283e-23
7.36006e-24
1.36621e-24
2.48985e-25
4.45487e-26
7.82507e-27
1.34925e-27
2.28382e-28
3.79469e-29
6.19125e-30
9.92862e-31
0.000866166
0.0145905
0.095495
0.34784
0.622845
0.695503
0.710072
0.70936
0.704552
0.706469
0.717778
0.723933
0.726176
0.735173
0.74832
0.754395
0.760807
0.762702
0.762794
0.757865
0.741942
0.712184
0.67411
0.637194
0.610194
0.597871
0.592673
0.590909
0.590788
0.591604
0.592113
0.589073
0.575647
0.545877
0.499069
0.442353
0.391392
0.352627
0.309696
0.258253
0.215919
0.188931
0.168021
0.154686
0.144273
0.141976
0.144658
0.152013
0.166946
0.189961
0.230762
0.285514
0.339157
0.389404
0.435705
0.461356
0.469862
0.487253
0.525098
0.598626
0.639306
0.644137
0.632477
0.615144
0.609467
0.607001
0.604202
0.600977
0.600614
0.605915
0.612446
0.627144
0.656415
0.670614
0.667499
0.650887
0.639408
0.671531
0.746947
0.818199
0.85928
0.874781
0.876553
0.850567
0.795428
0.77175
0.794716
0.863001
0.919853
0.955652
0.973298
0.979286
0.979703
0.978282
0.98132
0.990276
0.995486
0.997775
0.998712
0.999145
0.999382
0.999548
0.99969
0.999815
0.999903
0.999954
0.99998
0.999992
0.999997
0.999999
1
1
1
1
1
1
1
0.999999
0.999993
0.999968
0.999847
0.999298
0.996874
0.986545
0.94416
0.781449
0.527738
0.332198
0.196853
0.110414
0.0588934
0.0299898
0.0146273
0.00685207
0.00308984
0.00134381
0.000564586
0.000229469
9.03328e-05
3.44786e-05
1.27719e-05
4.59574e-06
1.60774e-06
5.47262e-07
1.81382e-07
5.85712e-08
1.84381e-08
5.66145e-09
1.69647e-09
4.96339e-10
1.41848e-10
3.9616e-11
1.08167e-11
2.8884e-12
7.54602e-13
1.92941e-13
4.82963e-14
1.18391e-14
2.84292e-15
6.68908e-16
1.54254e-16
3.4872e-17
7.73013e-18
1.68057e-18
3.58404e-19
7.49916e-20
1.53974e-20
3.1027e-21
6.13688e-22
1.19156e-22
2.27136e-23
4.2509e-24
7.81134e-25
1.40937e-25
2.49687e-26
4.34343e-27
7.41976e-28
1.24477e-28
2.05165e-29
3.32623e-30
7.17673e-05
0.00253022
0.0262837
0.134169
0.410176
0.644992
0.704165
0.719764
0.722459
0.719591
0.720207
0.729472
0.738216
0.745757
0.756057
0.760745
0.762912
0.763425
0.762405
0.755394
0.735865
0.706036
0.672243
0.639779
0.612613
0.598175
0.591508
0.58802
0.586012
0.585164
0.584821
0.583671
0.578744
0.563556
0.529913
0.473803
0.416033
0.372067
0.333831
0.292026
0.249243
0.215168
0.191046
0.176982
0.165214
0.165169
0.168444
0.177231
0.197169
0.223616
0.27037
0.33968
0.402934
0.443114
0.470958
0.496454
0.508333
0.508823
0.520709
0.581487
0.636238
0.650537
0.647767
0.637127
0.646386
0.674727
0.688167
0.677902
0.64776
0.625067
0.617467
0.62059
0.630992
0.633081
0.631018
0.617787
0.576364
0.548355
0.551923
0.613812
0.728851
0.829621
0.882154
0.907676
0.919067
0.910051
0.884075
0.881969
0.915853
0.957397
0.980382
0.990308
0.994081
0.995331
0.996085
0.997264
0.998421
0.99917
0.999555
0.999741
0.999833
0.999884
0.999919
0.999944
0.999964
0.999979
0.999989
0.999995
0.999998
0.999999
1
1
1
1
1
1
1
1
0.999998
0.999991
0.999957
0.999796
0.999052
0.995736
0.98152
0.923091
0.720368
0.474152
0.292769
0.170435
0.0940385
0.0494026
0.0248036
0.0119382
0.00552228
0.00246021
0.00105748
0.000439222
0.000176513
6.8716e-05
2.59403e-05
9.50454e-06
3.38289e-06
1.1705e-06
3.94008e-07
1.2912e-07
4.12231e-08
1.28301e-08
3.89525e-09
1.15416e-09
3.33908e-10
9.43648e-11
2.60616e-11
7.0368e-12
1.85822e-12
4.8009e-13
1.21395e-13
3.00519e-14
7.28565e-15
1.73027e-15
4.02653e-16
9.18389e-17
2.05356e-17
4.50271e-18
9.68315e-19
2.04278e-19
4.22834e-20
8.58882e-21
1.7123e-21
3.35091e-22
6.43785e-23
1.21437e-23
2.24926e-24
4.09102e-25
7.30755e-26
1.282e-26
2.20935e-27
3.74079e-28
6.2255e-29
1.01979e-29
0.00120376
0.000526796
0.00458171
0.0331514
0.138942
0.384204
0.625312
0.701311
0.722739
0.730095
0.731625
0.731809
0.736834
0.742951
0.751272
0.757959
0.760596
0.761384
0.760563
0.754123
0.737618
0.711605
0.679732
0.651193
0.624187
0.604199
0.594004
0.5889
0.585929
0.584158
0.582702
0.581718
0.579516
0.573917
0.561162
0.536144
0.490378
0.432306
0.38453
0.344299
0.305162
0.272467
0.244162
0.228227
0.214519
0.214801
0.219501
0.231544
0.256198
0.29557
0.349671
0.407338
0.455762
0.482215
0.492265
0.511595
0.535578
0.548311
0.557183
0.587532
0.649087
0.669073
0.666668
0.662137
0.666449
0.704744
0.769337
0.81132
0.823923
0.79917
0.742455
0.700484
0.673536
0.658114
0.64749
0.632885
0.592018
0.539758
0.511429
0.505056
0.522283
0.616196
0.781383
0.887713
0.935473
0.958921
0.968467
0.968176
0.964337
0.970089
0.985826
0.99435
0.997675
0.998787
0.999221
0.999471
0.999659
0.999794
0.999879
0.999928
0.999955
0.99997
0.99998
0.999986
0.999991
0.999995
0.999997
0.999998
0.999999
1
1
1
1
1
1
1
1
1
0.999999
0.999997
0.999987
0.999933
0.999679
0.998504
0.993272
0.970958
0.879817
0.633307
0.407745
0.246458
0.140688
0.0762545
0.0394108
0.0194895
0.00924783
0.00422022
0.00185578
0.000787644
0.000323118
0.000128281
4.93416e-05
1.84057e-05
6.66458e-06
2.34444e-06
8.01828e-07
2.66814e-07
8.6438e-08
2.72789e-08
8.39124e-09
2.51742e-09
7.36991e-10
2.10658e-10
5.88215e-11
1.60528e-11
4.28345e-12
1.11794e-12
2.85476e-13
7.13505e-14
1.74596e-14
4.1842e-15
9.82333e-16
2.2599e-16
5.09587e-17
1.12655e-17
2.44224e-18
5.19306e-19
1.08329e-19
2.21735e-20
4.45419e-21
8.78249e-22
1.69999e-22
3.23083e-23
6.02946e-24
1.10507e-24
1.98939e-25
3.5182e-26
6.11369e-27
1.04414e-27
1.75347e-28
2.90009e-29
0.0172647