/*--------------------------------*- C++ -*----------------------------------*\
  =========                 |
  \\      /  F ield         | OpenFOAM: The Open Source CFD Toolbox
   \\    /   O peration     | Website:  https://openfoam.org
    \\  /    A nd           | Version:  9
     \\/     M anipulation  |
\*---------------------------------------------------------------------------*/
FoamFile
{
    format      ascii;
    class       volScalarField;
    location    "0.3";
    object      epsilon;
}
// * * * * * * * * * * * * * * * * * * * * * * * * * * * * * * * * * * * * * //

dimensions      [0 2 -3 0 0 0 0];

internalField   nonuniform List<scalar> 
12225
(
278.515
263.66
249.434
236.839
226.738
219.483
215.069
213.262
213.704
215.988
219.709
224.499
230.036
236.058
242.361
248.778
255.343
264.847
61.1159
86.6952
97.991
107.207
118.464
132.555
149.407
168.606
189.57
211.672
234.321
257.007
279.325
300.976
321.867
341.832
362.382
380.905
25.2776
36.183
43.3817
48.6211
53.386
58.3356
63.7695
69.8239
76.5236
83.8204
91.624
99.825
108.312
116.984
125.774
134.662
143.793
153.16
17.5217
21.2986
24.7144
27.6099
30.1618
32.5398
34.8663
37.2273
39.6762
42.2393
44.9241
47.7261
50.6342
53.636
56.7224
59.901
63.1896
66.6138
15.4878
16.7519
18.1858
19.5888
20.9094
22.1489
23.3262
24.4649
25.586
26.7046
27.8305
28.9693
30.1239
31.2958
32.4864
33.7007
34.9433
36.2108
14.9084
15.2396
15.7463
16.334
16.9476
17.5589
18.1557
18.7355
19.3
19.8523
20.3958
20.933
21.4661
21.9968
22.5268
23.0585
23.5935
24.126
14.7451
14.7391
14.8342
15.0036
15.2215
15.4679
15.7285
15.9948
16.2618
16.5273
16.79
17.0496
17.3062
17.56
17.8115
18.0615
18.3104
18.5539
14.7012
14.5825
14.5116
14.4858
14.4981
14.5403
14.6043
14.6837
14.7736
14.8707
14.9724
15.0771
15.1835
15.2911
15.3993
15.5081
15.617
15.7234
14.6901
14.5373
14.407
14.3009
14.2182
14.1571
14.1145
14.0875
14.0732
14.0692
14.0735
14.0844
14.1006
14.1211
14.1451
14.1721
14.2015
14.2316
14.6874
14.5252
14.3761
14.2411
14.1204
14.0137
13.9203
13.8391
13.7688
13.7083
13.6564
13.6119
13.574
13.5418
13.5147
13.4919
13.473
13.4572
14.6868
14.5221
14.3677
14.2236
14.0896
13.9656
13.8512
13.746
13.6495
13.5611
13.4801
13.4061
13.3383
13.2764
13.2197
13.1678
13.1203
13.0771
14.6866
14.5213
14.3656
14.219
14.0812
13.9518
13.8305
13.7169
13.6105
13.5111
13.4182
13.3314
13.2504
13.1747
13.104
13.038
12.9764
12.9194
14.6865
14.521
14.3648
14.2175
14.0785
13.9473
13.8234
13.7065
13.5963
13.4922
13.3941
13.3016
13.2143
13.1319
13.0543
12.9811
12.912
12.8476
14.6864
14.5208
14.3645
14.2169
14.0774
13.9456
13.8209
13.7029
13.5913
13.4855
13.3853
13.2904
13.2005
13.1153
13.0345
12.9579
12.8853
12.8172
14.6864
14.5207
14.3643
14.2165
14.0769
13.9449
13.8199
13.7016
13.5895
13.4832
13.3824
13.2868
13.196
13.1098
13.0279
12.9501
12.8763
12.8068
14.6863
14.5206
14.3641
14.2163
14.0766
13.9444
13.8194
13.7009
13.5886
13.4822
13.3812
13.2854
13.1943
13.1079
13.0257
12.9475
12.8732
12.8034
14.6863
14.5205
14.364
14.2161
14.0763
13.9441
13.8189
13.7004
13.5881
13.4815
13.3805
13.2845
13.1934
13.1068
13.0245
12.9462
12.8718
12.8018
14.6863
14.5204
14.3639
14.216
14.0761
13.9439
13.8186
13.7001
13.5877
13.4811
13.3799
13.2839
13.1927
13.1061
13.0237
12.9454
12.8709
12.8007
14.6863
14.5204
14.3639
14.2159
14.0761
13.9438
13.8185
13.6999
13.5875
13.4809
13.3797
13.2837
13.1924
13.1057
13.0233
12.9449
12.8704
12.8002
14.6863
14.5205
14.3639
14.216
14.0762
13.9439
13.8187
13.7001
13.5877
13.4811
13.38
13.284
13.1928
13.1061
13.0237
12.9453
12.8708
12.8007
14.6863
14.5205
14.364
14.2162
14.0764
13.9443
13.8192
13.7007
13.5885
13.4821
13.3812
13.2854
13.1945
13.1082
13.0262
12.9482
12.8742
12.8046
14.6863
14.5206
14.3643
14.2167
14.0773
13.9457
13.8214
13.7039
13.5928
13.4878
13.3886
13.2947
13.2059
13.1218
13.0423
12.9669
12.8956
12.8288
14.6865
14.5212
14.3659
14.2202
14.0837
13.956
13.8368
13.7255
13.6218
13.525
13.4348
13.3506
13.272
13.1986
13.13
13.0659
13.006
12.9505
14.6876
14.5264
14.3793
14.2467
14.1282
14.0231
13.9302
13.8484
13.7762
13.7126
13.6565
13.6068
13.5628
13.5237
13.489
13.4581
13.4306
13.4066
14.6976
14.5664
14.4707
14.4075
14.3715
14.3568
14.3585
14.372
14.3941
14.4224
14.4551
14.4908
14.5287
14.5681
14.6085
14.6497
14.6914
14.7334
14.7737
14.8187
14.9603
15.1591
15.3863
15.6233
15.8598
16.0905
16.3135
16.5285
16.7359
16.9366
17.1314
17.3211
17.5066
17.6884
17.867
18.0419
15.2587
16.1151
17.0712
17.9727
18.7879
19.5239
20.1945
20.8149
21.3989
21.9574
22.4988
23.0292
23.5529
24.0728
24.5906
25.1071
25.6226
26.1346
18.0414
22.0079
24.9885
27.1533
28.8884
30.405
31.8127
33.1787
34.5441
35.9315
37.3518
38.809
40.3021
41.8271
43.3785
44.9499
46.5348
48.1202
34.024
45.6879
51.377
54.9426
58.0813
61.2986
64.7517
68.4844
72.4809
76.6981
81.0858
85.5943
90.177
94.7922
99.4042
103.984
108.516
112.973
163.308
157.417
151.704
146.261
141.3
136.947
133.25
130.206
127.781
125.919
124.559
123.638
123.094
122.871
122.918
123.188
123.643
124.244
0.185915
0.233304
0.38839
0.52433
0.66078
0.824594
1.01535
1.23906
1.50234
1.80749
2.13077
2.47343
2.83326
3.20718
3.59198
3.98459
4.38205
4.78151
5.18022
5.57551
5.9648
6.3456
6.7155
7.07214
7.41315
7.73606
8.03823
8.31674
8.56834
8.78925
8.97448
9.11666
9.2057
9.23501
9.22196
9.22445
9.29241
9.37096
9.4158
9.31478
9.39187
9.47674
40.3745
41.192
42.3549
45.2825
48.4567
51.8146
55.3494
59.0572
62.9369
66.9887
71.2138
75.6139
80.191
84.947
89.884
95.0041
100.309
105.8
111.479
117.346
123.403
129.65
136.086
142.711
149.525
156.526
163.711
171.08
178.629
186.354
194.252
202.319
210.551
218.941
227.485
236.176
245.008
253.974
263.066
272.277
281.599
291.024
300.541
310.143
319.819
329.56
339.355
349.194
359.064
368.956
378.856
388.754
398.636
408.492
418.316
428.104
437.865
447.63
457.375
466.989
476.471
485.813
495.003
504.026
512.866
521.508
529.935
538.132
546.085
553.778
561.196
568.326
575.154
581.668
587.853
593.7
599.197
604.333
609.099
613.487
617.488
621.096
624.304
627.107
629.501
631.483
633.05
634.201
634.935
635.254
635.159
634.652
633.738
632.421
630.707
628.602
626.114
623.251
620.022
616.438
612.509
608.246
603.662
598.771
593.584
588.116
582.381
576.395
570.172
563.728
557.078
550.238
543.225
536.052
528.74
521.301
513.753
506.114
498.383
490.612
482.775
474.94
467.185
460.346
457.125
454.469
451.83
449.181
446.52
443.849
441.159
438.429
435.614
432.612
429.189
424.739
417.788
401.875
0.720355
0.452262
0.466338
0.534886
0.636176
0.766268
0.923123
1.10803
1.32099
1.56007
1.82117
2.10163
2.39922
2.71186
3.03766
3.37484
3.72176
4.07695
4.43909
4.80711
5.18023
5.55806
5.94066
6.32866
6.72336
7.12677
7.54185
7.97305
8.42735
8.91613
9.45806
10.0829
10.8333
11.7523
12.8406
13.9996
15.0162
16.121
17.4279
19.0937
20.4394
21.7474
23.6009
25.3228
27.1407
28.7736
30.4245
32.1265
33.8871
35.7087
37.593
39.5413
41.5551
43.6354
45.7833
47.9996
50.285
52.64
55.0651
57.5606
60.1266
62.7632
65.4703
68.2476
71.0948
74.0114
76.9966
80.0497
83.1697
86.3556
89.606
92.9195
96.2947
99.7298
103.223
106.772
110.376
114.031
117.735
121.486
125.281
129.117
132.992
136.902
140.845
144.815
148.811
152.829
156.864
160.913
164.972
169.036
173.102
177.165
181.222
185.271
189.31
193.343
197.376
201.429
205.513
209.56
213.56
217.506
221.395
225.219
228.973
232.651
236.247
239.754
243.168
246.481
249.689
252.786
255.766
258.625
261.358
263.959
266.424
268.749
270.93
272.964
274.847
276.576
278.148
279.561
280.812
281.9
282.824
283.583
284.176
284.602
284.862
284.957
284.887
284.653
284.257
283.702
282.989
282.121
281.101
279.933
278.62
277.166
275.576
273.854
272.004
270.032
267.943
265.743
263.436
261.029
258.528
255.938
253.266
250.516
247.698
244.816
241.875
238.885
235.84
232.771
229.644
226.522
223.45
220.607
218.437
216.463
214.53
212.609
210.695
208.787
206.886
204.991
203.098
201.201
199.275
197.308
195.175
193.924
1.44631
0.764359
0.707663
0.756123
0.84536
0.965784
1.11488
1.2916
1.49455
1.72165
1.97034
2.2382
2.52318
2.82358
3.13805
3.46553
3.80522
4.15658
4.51931
4.89344
5.27935
5.67783
6.09017
6.51815
6.96413
7.43103
7.9225
8.44315
8.99893
9.59757
10.2486
10.9628
11.7494
12.6092
13.5267
14.4773
15.4525
16.4769
17.5597
18.6965
19.846
21.0338
22.309
23.6418
24.9932
26.348
27.7392
29.1777
30.6666
32.207
33.7994
35.4442
37.1418
38.8926
40.697
42.5553
44.4677
46.4345
48.4557
50.5315
52.6619
54.8467
57.0858
59.379
61.726
64.1262
66.5793
69.0845
71.6412
74.2485
76.9055
79.6113
82.3646
85.1643
88.0089
90.8971
93.8273
96.7978
99.8069
102.853
105.933
109.046
112.19
115.361
118.559
121.779
125.021
128.281
131.556
134.844
138.142
141.448
144.76
148.074
151.391
154.709
158.028
161.349
164.675
168.006
171.324
174.612
177.863
181.073
184.235
187.345
190.398
193.39
196.314
199.167
201.944
204.639
207.249
209.769
212.193
214.52
216.743
218.859
220.866
222.758
224.534
226.189
227.722
229.13
230.41
231.56
232.58
233.467
234.221
234.84
235.324
235.673
235.887
235.966
235.912
235.725
235.406
234.957
234.38
233.677
232.851
231.904
230.839
229.66
228.37
226.972
225.47
223.869
222.173
220.385
218.511
216.555
214.521
212.416
210.243
208.005
205.712
203.364
200.968
198.533
196.041
193.544
191.021
188.495
185.997
183.601
181.438
179.384
177.373
175.382
173.406
171.445
169.501
167.579
165.683
163.824
162.021
160.336
158.856
158.377
2.32184
1.12821
0.986963
1.0033
1.07965
1.19421
1.34006
1.51415
1.71434
1.93847
2.18432
2.44978
2.73302
3.0326
3.34745
3.67685
4.02045
4.37815
4.75018
5.13707
5.53963
5.95904
6.39677
6.85464
7.33474
7.83946
8.3715
8.93391
9.53016
10.164
10.8393
11.5591
12.3251
13.136
13.9878
14.877
15.8047
16.7736
17.784
18.8352
19.9267
21.0648
22.2541
23.4869
24.7541
26.0552
27.3969
28.7833
30.2167
31.6982
33.2288
34.8089
36.439
38.1197
39.8513
41.6342
43.4686
45.355
47.2936
49.2846
51.3282
53.4244
55.5733
57.7749
60.0291
62.3356
64.6941
67.1044
69.566
72.0782
74.6403
77.2517
79.9113
82.6183
85.3713
88.1692
91.0107
93.8941
96.8179
99.7804
102.78
105.814
108.881
111.979
115.105
118.257
121.433
124.63
127.846
131.078
134.324
137.582
140.849
144.124
147.404
150.688
153.975
157.264
160.551
163.827
167.082
170.305
173.493
176.639
179.737
182.784
185.774
188.702
191.563
194.352
197.064
199.695
202.239
204.693
207.051
209.311
211.467
213.515
215.453
217.277
218.984
220.57
222.033
223.371
224.581
225.662
226.612
227.43
228.115
228.666
229.083
229.365
229.514
229.529
229.412
229.163
228.785
228.278
227.646
226.889
226.012
225.016
223.905
222.682
221.351
219.915
218.378
216.745
215.02
213.206
211.31
209.335
207.284
205.166
202.983
200.737
198.441
196.091
193.695
191.271
188.811
186.334
183.839
181.339
178.855
176.427
174.106
171.854
169.642
167.454
165.287
163.143
161.026
158.941
156.899
154.92
153.036
151.323
149.896
149.221
3.20586
1.5073
1.26462
1.24791
1.31092
1.41958
1.56246
1.73461
1.9331
2.15561
2.40007
2.6646
2.94758
3.24775
3.5642
3.89642
4.24421
4.60768
4.98722
5.38348
5.79737
6.23
6.68272
7.15705
7.65468
8.1774
8.72718
9.3061
9.91635
10.5602
11.2397
11.9566
12.7119
13.5062
14.3391
15.2109
16.1226
17.0751
18.0687
19.1036
20.1809
21.3031
22.4713
23.6836
24.9379
26.2345
27.5753
28.9621
30.3966
31.8798
33.4129
34.9965
36.6315
38.3185
40.0582
41.8513
43.6983
45.5998
47.5564
49.5686
51.6367
53.7612
55.9425
58.1807
60.476
62.8285
65.2383
67.705
70.2287
72.8087
75.4448
78.1362
80.8822
83.6819
86.5342
89.438
92.3919
95.3944
98.4438
101.538
104.676
107.855
111.074
114.328
117.618
120.938
124.289
127.665
131.066
134.488
137.928
141.383
144.852
148.331
151.818
155.31
158.805
162.299
165.783
169.248
172.687
176.092
179.457
182.778
186.047
189.261
192.412
195.496
198.507
201.439
204.288
207.048
209.714
212.282
214.745
217.101
219.344
221.471
223.477
225.359
227.114
228.738
230.229
231.585
232.803
233.882
234.819
235.614
236.266
236.775
237.139
237.36
237.438
237.373
237.167
236.821
236.338
235.719
234.967
234.084
233.073
231.938
230.682
229.31
227.823
226.228
224.529
222.73
220.835
218.848
216.778
214.627
212.398
210.101
207.741
205.31
202.838
200.319
197.759
195.167
192.544
189.901
187.243
184.579
181.926
179.305
176.743
174.23
171.753
169.304
166.882
164.49
162.133
159.82
157.565
155.391
153.336
151.474
149.9
148.874
4.03869
1.85494
1.5221
1.47531
1.52563
1.62816
1.76757
1.93717
2.13329
2.35342
2.59553
2.8579
3.1391
3.438
3.75383
4.08616
4.43484
4.80006
5.18222
5.58197
6.00017
6.43783
6.89615
7.37644
7.88015
8.40881
8.96404
9.54758
10.1612
10.8067
11.4858
12.2002
12.9512
13.7399
14.5675
15.4347
16.3427
17.2925
18.2846
19.3196
20.3985
21.5226
22.693
23.9096
25.1726
26.4824
27.8402
29.2471
30.7046
32.2138
33.7758
35.3919
37.0631
38.7904
40.5748
42.4174
44.319
46.2807
48.3034
50.3879
52.5349
54.7454
57.0198
59.3589
61.7632
64.2329
66.7684
69.3698
72.0372
74.7703
77.5689
80.4324
83.3603
86.3517
89.4055
92.5206
95.6955
98.9287
102.218
105.562
108.959
112.405
115.9
119.439
123.02
126.64
130.297
133.987
137.707
141.454
145.224
149.015
152.822
156.641
160.471
164.306
168.143
171.976
175.792
179.582
183.341
187.062
190.739
194.364
197.932
201.436
204.871
208.228
211.504
214.69
217.783
220.774
223.66
226.434
229.091
231.627
234.036
236.314
238.456
240.459
242.32
244.034
245.599
247.013
248.273
249.377
250.325
251.114
251.745
252.216
252.529
252.682
252.678
252.517
252.201
251.732
251.113
250.345
249.431
248.376
247.182
245.853
244.394
242.809
241.102
239.278
237.343
235.302
233.159
230.917
228.59
226.178
223.678
221.115
218.489
215.799
213.061
210.276
207.451
204.593
201.707
198.8
195.88
192.953
190.033
187.136
184.275
181.452
178.664
175.907
173.183
170.497
167.855
165.268
162.752
160.333
158.047
155.962
154.144
152.737
4.75775
2.16386
1.75177
1.67765
1.71577
1.81181
1.94692
2.11291
2.30543
2.52172
2.75976
3.01795
3.29498
3.58988
3.90196
4.23085
4.57647
4.93899
5.31883
5.71663
6.13319
6.56949
7.02665
7.50592
8.00864
8.53629
9.09042
9.67263
10.2846
10.9282
11.6049
12.3165
13.0646
13.8507
14.676
15.542
16.4497
17.4004
18.395
19.4344
20.5198
21.6522
22.8328
24.0625
25.3422
26.6728
28.0555
29.4916
30.9824
32.5295
34.1343
35.7983
37.5228
39.3095
41.1596
43.0747
45.0561
47.1053
49.2235
51.4121
53.6724
56.0055
58.4124
60.8942
63.4518
66.0858
68.7969
71.5854
74.4517
77.3959
80.4176
83.5167
86.6926
89.9443
93.271
96.6712
100.143
103.686
107.297
110.974
114.714
118.515
122.374
126.288
130.253
134.267
138.325
142.424
146.56
150.729
154.927
159.149
163.392
167.65
171.92
176.197
180.475
184.74
188.981
193.192
197.366
201.495
205.573
209.591
213.543
217.422
221.219
224.928
228.542
232.055
235.458
238.746
241.912
244.95
247.855
250.62
253.241
255.712
258.029
260.187
262.182
264.012
265.672
267.162
268.477
269.617
270.58
271.366
271.973
272.401
272.651
272.724
272.621
272.344
271.894
271.274
270.487
269.537
268.427
267.16
265.74
264.173
262.465
260.62
258.641
256.533
254.308
251.97
249.521
246.962
244.318
241.586
238.77
235.882
232.927
229.91
226.841
223.725
220.568
217.378
214.161
210.924
207.674
204.419
201.169
197.936
194.731
191.559
188.421
185.319
182.257
179.239
176.275
173.377
170.563
167.856
165.295
162.933
160.814
159.019
5.37246
2.43273
1.95027
1.85078
1.87679
1.96566
2.09547
2.25661
2.4441
2.65495
2.8871
3.13902
3.40954
3.69779
4.00318
4.32542
4.66448
5.02057
5.39411
5.78576
6.19632
6.62676
7.07821
7.5519
8.0492
8.57157
9.12055
9.69778
10.305
10.9438
11.616
12.3234
13.0676
13.8503
14.673
15.5373
16.4446
17.3963
18.3936
19.438
20.5306
21.6729
22.8664
24.1123
25.4121
26.7673
28.1792
29.6496
31.1801
32.7727
34.4291
36.1513
37.9411
39.8006
41.7316
43.7361
45.816
47.9733
50.2098
52.5273
54.9276
57.4123
59.983
62.641
65.3877
68.2243
71.1516
74.1703
77.281
80.484
83.7793
87.1666
90.6455
94.2149
97.874
101.621
105.455
109.372
113.372
117.451
121.607
125.835
130.133
134.497
138.923
143.407
147.945
152.531
157.162
161.833
166.539
171.273
176.032
180.81
185.6
190.396
195.191
199.963
204.705
209.41
214.07
218.677
223.223
227.7
232.098
236.41
240.627
244.742
248.746
252.631
256.39
260.016
263.501
266.838
270.022
273.045
275.903
278.589
281.098
283.426
285.568
287.521
289.283
290.849
292.219
293.39
294.362
295.133
295.703
296.073
296.242
296.213
295.988
295.568
294.955
294.154
293.167
292.001
290.657
289.141
287.455
285.609
283.609
281.459
279.165
276.724
274.163
271.481
268.682
265.772
262.765
259.666
256.48
253.217
249.884
246.488
243.037
239.538
235.998
232.425
228.826
225.208
221.579
217.946
214.319
210.706
207.119
203.564
200.045
196.566
193.134
189.754
186.438
183.198
180.052
177.025
174.15
171.472
169.014
166.828
5.87879
2.65887
2.1154
1.99252
2.00643
2.0874
2.2108
2.36582
2.54689
2.75078
2.97539
3.21924
3.48125
3.76068
4.05704
4.37013
4.69997
5.04683
5.41119
5.7937
6.19523
6.61675
7.05941
7.52447
8.01333
8.52745
9.06843
9.6379
10.2376
10.8692
11.5347
12.2357
12.9741
13.7517
14.5702
15.4314
16.3371
17.2888
18.2882
19.3371
20.437
21.5898
22.7973
24.0613
25.3836
26.7662
28.2112
29.7206
31.2966
32.9416
34.6578
36.4478
38.3141
40.259
42.2852
44.3953
46.5916
48.8768
51.2534
53.7236
56.2897
58.9541
61.7187
64.5855
67.5561
70.6322
73.8149
77.1054
80.5045
84.0125
87.6297
91.3557
95.1902
99.1321
103.18
107.333
111.588
115.943
120.395
124.941
129.578
134.301
139.106
143.989
148.945
153.969
159.056
164.201
169.398
174.641
179.924
185.242
190.587
195.952
201.332
206.718
212.087
217.425
222.727
227.982
233.184
238.321
243.385
248.366
253.255
258.042
262.717
267.271
271.696
275.983
280.123
284.109
287.932
291.584
295.06
298.351
301.452
304.358
307.061
309.557
311.842
313.911
315.763
317.395
318.804
319.99
320.95
321.685
322.195
322.48
322.541
322.381
322.003
321.407
320.599
319.58
318.358
316.938
315.323
313.518
311.526
309.359
307.026
304.532
301.882
299.081
296.145
293.078
289.888
286.582
283.17
279.661
276.062
272.382
268.628
264.81
260.935
257.012
253.048
249.052
245.031
240.992
236.944
232.895
228.853
224.827
220.827
216.86
212.933
209.051
205.223
201.456
197.761
194.153
190.65
187.275
184.056
181.031
178.208
175.627
6.27635
2.84136
2.24661
2.10252
2.10442
2.17679
2.29275
2.44046
2.61385
2.80948
3.02518
3.25953
3.51153
3.78055
4.0662
4.36837
4.68716
5.0229
5.37613
5.74754
6.138
6.54856
6.98036
7.43472
7.91302
8.41678
8.94762
9.50722
10.0973
10.7198
11.3765
12.0693
12.8003
13.5713
14.3843
15.2415
16.1447
17.096
18.0976
19.1514
20.2596
21.4244
22.6481
23.9331
25.2818
26.6966
28.1803
29.7354
31.3647
33.0713
34.8581
36.7281
38.6845
40.7306
42.8694
45.1043
47.4384
49.875
52.417
55.0676
57.8297
60.7059
63.699
66.8112
70.0449
73.4018
76.8838
80.492
84.2274
88.0906
92.0819
96.2009
100.447
104.819
109.316
113.934
118.673
123.529
128.497
133.576
138.759
144.043
149.421
154.889
160.442
166.072
171.774
177.543
183.37
189.249
195.173
201.135
207.128
213.142
219.169
225.194
231.185
237.137
243.042
248.889
254.669
260.371
265.985
271.5
276.904
282.186
287.337
292.346
297.204
301.901
306.427
310.774
314.934
318.898
322.658
326.209
329.542
332.652
335.532
338.177
340.583
342.746
344.663
346.332
347.751
348.92
349.837
350.503
350.918
351.082
350.998
350.67
350.1
349.291
348.245
346.969
345.471
343.756
341.829
339.697
337.364
334.842
332.139
329.262
326.218
323.016
319.666
316.178
312.558
308.817
304.964
301.009
296.959
292.826
288.617
284.341
280.009
275.627
271.206
266.754
262.278
257.788
253.291
248.796
244.311
239.845
235.407
231.006
226.649
222.344
218.099
213.924
209.831
205.835
201.952
198.206
194.622
191.226
188.022
185.041
6.56911
2.98124
2.34494
2.18198
2.1721
2.23531
2.34295
2.48234
2.647
2.83333
3.03911
3.26294
3.50393
3.76151
4.03541
4.3256
4.63226
4.95578
5.29673
5.65587
6.0341
6.43248
6.85219
7.29458
7.76106
8.25319
8.77263
9.32112
9.90051
10.5127
11.1598
11.8437
12.5667
13.331
14.1388
14.9924
15.8944
16.847
17.8528
18.9145
20.0346
21.2159
22.4614
23.7738
25.1564
26.6123
28.1447
29.7571
31.4529
33.2359
35.1097
37.0782
39.1453
41.315
43.5913
45.9781
48.4794
51.0992
53.8412
56.7091
59.7064
62.8363
66.1022
69.5067
73.0524
76.7417
80.5765
84.5581
88.6877
92.9659
97.3926
101.967
106.69
111.557
116.569
121.721
127.011
132.435
137.988
143.667
149.465
155.376
161.395
167.514
173.726
180.026
186.405
192.856
199.372
205.944
212.565
219.226
225.917
232.63
239.352
246.04
252.685
259.279
265.811
272.271
278.647
284.928
291.102
297.156
303.078
308.854
314.476
319.931
325.209
330.3
335.194
339.882
344.354
348.602
352.619
356.396
359.928
363.208
366.229
368.984
371.469
373.683
375.622
377.285
378.67
379.776
380.605
381.155
381.427
381.423
381.148
380.604
379.795
378.726
377.401
375.827
374.011
371.96
369.68
367.18
364.466
361.548
358.436
355.138
351.664
348.022
344.223
340.277
336.195
331.985
327.658
323.225
318.694
314.078
309.384
304.624
299.806
294.94
290.036
285.103
280.149
275.184
270.216
265.253
260.304
255.378
250.485
245.634
240.832
236.089
231.414
226.817
222.311
217.911
213.635
209.502
205.534
201.754
198.156
194.775
6.76496
3.0812
2.41272
2.23332
2.21209
2.26579
2.36445
2.49474
2.64992
2.82623
3.02145
3.23421
3.46367
3.70937
3.9711
4.24891
4.54305
4.85397
5.1823
5.52881
5.89447
6.28035
6.6877
7.11786
7.57234
8.05275
8.56082
9.0984
9.66748
10.2701
10.9085
11.585
12.302
13.062
13.8676
14.7216
15.6268
16.5862
17.6028
18.6799
19.8206
21.0285
22.3071
23.6601
25.0913
26.6047
28.2043
29.8944
31.6793
33.5635
35.5518
37.6486
39.859
42.1876
44.6394
47.2192
49.9317
52.7817
55.7736
58.9117
62.2001
65.6424
69.2422
73.0027
76.9266
81.0166
85.2744
89.7016
94.299
99.067
104.005
109.113
114.388
119.828
125.432
131.194
137.111
143.178
149.39
155.742
162.225
168.833
175.558
182.391
189.325
196.351
203.462
210.648
217.902
225.214
232.576
239.976
247.407
254.856
262.27
269.636
276.944
284.183
291.342
298.409
305.37
312.215
318.931
325.503
331.915
338.155
344.212
350.074
355.731
361.172
366.387
371.365
376.098
380.576
384.792
388.739
392.411
395.802
398.904
401.707
404.21
406.412
408.31
409.904
411.192
412.175
412.853
413.226
413.298
413.071
412.548
411.735
410.635
409.255
407.601
405.679
403.498
401.065
398.388
395.476
392.338
388.985
385.425
381.669
377.728
373.612
369.332
364.898
360.322
355.615
350.788
345.851
340.816
335.693
330.493
325.227
319.904
314.536
309.132
303.701
298.254
292.798
287.344
281.901
276.476
271.08
265.722
260.411
255.156
249.966
244.853
239.827
234.901
230.089
225.409
220.879
216.519
212.346
208.35
204.57
6.87513
3.14522
2.45323
2.25985
2.2279
2.27202
2.36133
2.48211
2.62741
2.79341
2.97789
3.17952
3.39752
3.63149
3.88131
4.14709
4.42914
4.72797
5.04425
5.37883
5.73269
6.107
6.50304
6.92227
7.36626
7.83676
8.33564
8.86492
9.42678
10.0236
10.6577
11.3319
12.0489
12.8116
13.6233
14.487
15.4063
16.3847
17.426
18.5342
19.7132
20.9675
22.3013
23.7194
25.2265
26.8273
28.527
30.3307
32.2439
34.272
36.4206
38.6954
41.1022
43.6466
46.3346
49.1718
52.1637
55.3158
58.6333
62.121
65.7829
69.6229
73.6445
77.8511
82.2454
86.8298
91.6059
96.5747
101.737
107.091
112.637
118.372
124.295
130.401
136.686
143.146
149.775
156.567
163.516
170.614
177.854
185.227
192.72
200.324
208.031
215.831
223.716
231.675
239.701
247.783
255.91
264.072
272.261
280.412
288.504
296.528
304.473
312.327
320.075
327.706
335.205
342.561
349.761
356.795
363.632
370.265
376.684
382.878
388.835
394.545
399.997
405.182
410.089
414.711
419.04
423.068
426.79
430.199
433.289
436.054
438.492
440.6
442.377
443.822
444.936
445.718
446.171
446.297
446.098
445.578
444.742
443.596
442.144
440.395
438.354
436.03
433.431
430.566
427.445
424.078
420.474
416.644
412.6
408.352
403.911
399.29
394.5
389.552
384.459
379.232
373.884
368.425
362.868
357.224
351.504
345.72
339.882
334.002
328.089
322.153
316.205
310.255
304.311
298.382
292.479
286.61
280.785
275.013
269.305
263.669
258.118
252.662
247.314
242.09
237.005
232.077
227.321
222.754
218.363
214.189
6.91366
3.17824
2.4704
2.2655
2.22372
2.25852
2.33855
2.44985
2.58541
2.74139
2.91559
3.10673
3.31411
3.53737
3.77648
4.0316
4.30313
4.59164
4.89787
5.22277
5.56742
5.93309
6.32119
6.73334
7.1713
7.63701
8.13261
8.66039
9.22288
9.82278
10.463
11.1466
11.8771
12.6579
13.4927
14.3857
15.3409
16.3628
17.4561
18.6257
19.8767
21.2146
22.6449
24.1733
25.8059
27.5483
29.4067
31.3875
33.4971
35.7423
38.1296
40.6659
43.3577
46.2117
49.2345
52.4324
55.8117
59.3785
63.1385
67.0969
71.2569
75.6209
80.1923
84.9741
89.9687
95.1775
100.601
106.24
112.092
118.157
124.431
130.911
137.593
144.471
151.54
158.794
166.224
173.823
181.583
189.496
197.553
205.752
214.061
222.474
230.985
239.583
248.259
257.003
265.806
274.657
283.544
292.458
301.319
310.109
318.818
327.432
335.938
344.323
352.572
360.672
368.609
376.369
383.939
391.306
398.449
405.359
412.022
418.427
424.563
430.42
435.988
441.256
446.216
450.86
455.18
459.17
462.823
466.136
469.102
471.717
473.979
475.886
477.437
478.633
479.475
479.963
480.1
479.89
479.336
478.443
477.217
475.664
473.791
471.606
469.116
466.331
463.26
459.913
456.3
452.433
448.322
443.979
439.416
434.644
429.676
424.525
419.203
413.722
408.095
402.334
396.453
390.463
384.376
378.205
371.962
365.657
359.303
352.911
346.491
340.053
333.609
327.168
320.739
314.333
307.957
301.623
295.339
289.116
282.963
276.89
270.909
265.032
259.271
253.64
248.157
242.835
237.691
232.737
227.96
223.403
6.89694
3.1858
2.46854
2.25463
2.20426
2.23057
2.30201
2.40462
2.5314
2.67854
2.84393
3.02635
3.22516
3.44011
3.67122
3.91879
4.1833
4.46545
4.76615
5.08648
5.42774
5.7914
6.17915
6.59288
7.03469
7.50693
8.01214
8.55315
9.133
9.75504
10.4228
11.1403
11.9116
12.7413
13.6341
14.595
15.6293
16.7426
17.9408
19.2302
20.6174
22.1094
23.7134
25.4367
27.2869
29.2703
31.3941
33.6659
36.0936
38.685
41.4476
44.389
47.5165
50.8372
54.3579
58.0851
62.0249
66.1835
70.5669
75.1829
80.0298
85.1037
90.4094
95.949
101.723
107.732
113.974
120.447
127.148
134.072
141.216
148.572
156.135
163.898
171.851
179.987
188.295
196.767
205.391
214.158
223.057
232.077
241.201
250.419
259.72
269.093
278.53
288.02
297.554
307.127
316.698
326.193
335.601
344.908
354.101
363.164
372.084
380.848
389.441
397.848
406.057
414.053
421.823
429.354
436.63
443.64
450.371
456.812
462.953
468.784
474.294
479.476
484.322
488.823
492.974
496.768
500.2
503.266
505.963
508.286
510.235
511.809
513.008
513.832
514.283
514.365
514.08
513.432
512.427
511.07
509.368
507.329
504.959
502.267
499.264
495.958
492.36
488.48
484.331
479.922
475.268
470.379
465.269
459.95
454.435
448.737
442.869
436.845
430.677
424.378
417.963
411.442
404.83
398.137
391.378
384.563
377.704
370.812
363.899
356.975
350.051
343.136
336.24
329.373
322.545
315.764
309.041
302.385
295.806
289.315
282.923
276.642
270.485
264.465
258.598
252.898
247.38
242.054
236.906
231.983
6.84073
3.17334
2.45187
2.2315
2.17427
2.19358
2.25804
2.3538
2.47399
2.61493
2.7746
2.95192
3.14636
3.35781
3.58649
3.83285
4.09764
4.3818
4.68655
5.01333
5.36383
5.73999
6.14404
6.57844
7.04598
7.54974
8.09309
8.67979
9.31396
10
10.7427
11.5472
12.4193
13.3651
14.3913
15.5046
16.7112
18.0186
19.4349
20.9683
22.6275
24.4214
26.3595
28.452
30.7108
33.1378
35.741
38.5302
41.5143
44.7016
48.1
51.7167
55.5585
59.6316
63.9416
68.4934
73.2913
78.3388
83.6389
89.1936
95.0019
101.062
107.371
113.929
120.733
127.778
135.061
142.575
150.315
158.273
166.441
174.812
183.375
192.12
201.038
210.117
219.346
228.714
238.209
247.819
257.533
267.338
277.222
287.173
297.181
307.237
317.331
327.458
337.6
347.676
357.65
367.51
377.242
386.833
396.268
405.534
414.618
423.505
432.183
440.638
448.856
456.826
464.535
471.97
479.119
485.971
492.514
498.739
504.636
510.195
515.41
520.271
524.772
528.907
532.67
536.056
539.061
541.683
543.918
545.766
547.224
548.294
548.976
549.272
549.186
548.72
547.878
546.667
545.092
543.16
540.878
538.254
535.297
532.016
528.422
524.525
520.336
515.866
511.127
506.133
500.894
495.425
489.738
483.846
477.763
471.503
465.079
458.503
451.791
444.954
438.007
430.963
423.833
416.631
409.369
402.058
394.712
387.34
379.955
372.566
365.185
357.82
350.482
343.18
335.924
328.723
321.586
314.524
307.545
300.661
293.883
287.222
280.692
274.305
268.076
262.019
256.146
250.468
244.971
239.705
6.77683
3.15059
2.4287
2.20555
2.14512
2.16138
2.2233
2.31732
2.43676
2.57818
2.73975
2.92063
3.12056
3.33976
3.5788
3.8386
4.12042
4.42581
4.75667
5.11525
5.50412
5.92626
6.38502
6.88414
7.42785
8.02081
8.66804
9.37524
10.1488
10.9955
11.9218
12.9351
14.0442
15.2586
16.5891
18.0465
19.6339
21.3634
23.2461
25.2929
27.5148
29.9226
32.5269
35.3384
38.3667
41.619
45.1029
48.8258
52.7948
57.0157
61.4936
66.2325
71.2355
76.5046
82.0408
87.8442
93.914
100.248
106.845
113.699
120.807
128.162
135.758
143.588
151.644
159.918
168.403
177.088
185.964
195.022
204.251
213.64
223.178
232.854
242.656
252.573
262.593
272.705
282.898
293.16
303.481
313.85
324.256
334.696
345.152
355.63
366.108
376.508
386.78
396.921
406.917
416.755
426.423
435.908
445.196
454.277
463.138
471.766
480.15
488.278
496.139
503.722
511.015
518.008
524.691
531.053
537.086
542.781
548.129
553.123
557.756
562.021
565.914
569.428
572.56
575.305
577.662
579.628
581.201
582.382
583.169
583.566
583.573
583.193
582.429
581.287
579.772
577.889
575.644
573.046
570.103
566.822
563.215
559.289
555.057
550.529
545.716
540.631
535.285
529.692
523.864
517.814
511.556
505.102
498.468
491.665
484.708
477.61
470.385
463.046
455.606
448.078
440.474
432.808
425.09
417.334
409.55
401.75
393.944
386.144
378.358
370.597
362.87
355.186
347.555
339.985
332.486
325.068
317.739
310.511
303.393
296.398
289.538
282.825
276.275
269.899
263.709
257.717
251.907
246.334
6.72782
3.12622
2.4077
2.18709
2.1295
2.14963
2.217
2.31844
2.44766
2.6016
2.77889
2.9792
3.20292
3.45099
3.72489
4.02659
4.35853
4.72367
5.12551
5.56814
6.05616
6.59491
7.19039
7.84905
8.57846
9.38712
10.2828
11.2751
12.3758
13.5997
14.9503
16.4406
18.0844
19.8955
21.8876
24.0737
26.4648
29.0732
31.9113
34.9902
38.3206
41.9119
45.7722
49.9083
54.3255
59.0267
64.0138
69.2872
74.8465
80.6894
86.8129
93.2126
99.8829
106.818
114.009
121.451
129.133
137.047
145.184
153.534
162.087
170.833
179.761
188.861
198.122
207.535
217.088
226.771
236.575
246.488
256.502
266.604
276.786
287.037
297.349
307.711
318.115
328.552
339.013
349.49
359.979
370.47
380.95
391.447
401.906
412.254
422.449
432.496
442.38
452.092
461.622
470.958
480.091
489.008
497.701
506.158
514.369
522.325
530.014
537.428
544.556
551.389
557.919
564.135
570.03
575.595
580.823
585.706
590.237
594.411
598.22
601.661
604.729
607.419
609.729