/*--------------------------------*- C++ -*----------------------------------*\
  =========                 |
  \\      /  F ield         | OpenFOAM: The Open Source CFD Toolbox
   \\    /   O peration     | Website:  https://openfoam.org
    \\  /    A nd           | Version:  9
     \\/     M anipulation  |
\*---------------------------------------------------------------------------*/
FoamFile
{
    format      ascii;
    class       volScalarField;
    location    "0.3";
    object      k;
}
// * * * * * * * * * * * * * * * * * * * * * * * * * * * * * * * * * * * * * //

dimensions      [0 2 -2 0 0 0 0];

internalField   nonuniform List<scalar> 
12225
(
0.353921
0.335043
0.316966
0.300961
0.288125
0.278906
0.273297
0.271001
0.271563
0.274465
0.279194
0.28528
0.292317
0.299968
0.307978
0.316133
0.324475
0.336552
0.436864
0.448979
0.438084
0.43306
0.438785
0.453582
0.474794
0.49997
0.527124
0.554769
0.581876
0.607782
0.632107
0.654673
0.675586
0.694742
0.714202
0.729489
0.395187
0.410874
0.410631
0.405747
0.40201
0.400923
0.402613
0.406805
0.413078
0.420973
0.430056
0.439949
0.450338
0.460982
0.471739
0.482496
0.493533
0.504223
0.379641
0.38484
0.386546
0.38573
0.383905
0.382026
0.380567
0.379738
0.379605
0.380146
0.381298
0.382981
0.385111
0.387614
0.390435
0.393539
0.396944
0.400547
0.374976
0.3759
0.376239
0.375721
0.37457
0.373084
0.371496
0.369967
0.368593
0.367426
0.366484
0.365767
0.365266
0.364965
0.364852
0.364916
0.365153
0.365532
0.373488
0.372555
0.371759
0.370807
0.369631
0.368275
0.366809
0.3653
0.363804
0.362358
0.36099
0.359714
0.358537
0.357461
0.356487
0.355615
0.354843
0.354165
0.373012
0.371296
0.369813
0.368416
0.367025
0.36561
0.364169
0.362712
0.361258
0.359824
0.358426
0.357073
0.355774
0.354533
0.353354
0.35224
0.351191
0.350215
0.372865
0.370838
0.369004
0.367311
0.365711
0.364174
0.362679
0.361216
0.359783
0.358382
0.357015
0.355688
0.354402
0.353162
0.351968
0.350823
0.349729
0.348697
0.37282
0.37068
0.368692
0.366836
0.365095
0.363449
0.36188
0.360376
0.358928
0.357532
0.356183
0.35488
0.353622
0.35241
0.351242
0.350119
0.349042
0.348023
0.372806
0.370628
0.368578
0.366648
0.364829
0.36311
0.361482
0.359934
0.358457
0.357046
0.355694
0.354397
0.353153
0.351959
0.350812
0.349713
0.34866
0.347664
0.372801
0.370609
0.368537
0.366576
0.36472
0.362964
0.361299
0.359719
0.358216
0.356785
0.355421
0.354118
0.352874
0.351685
0.350548
0.34946
0.348421
0.34744
0.372799
0.370602
0.368522
0.36655
0.36468
0.362907
0.361225
0.359627
0.358109
0.356664
0.355289
0.353978
0.352729
0.351537
0.3504
0.349315
0.34828
0.347304
0.372797
0.370599
0.368514
0.366537
0.364661
0.36288
0.361188
0.359581
0.358053
0.3566
0.355216
0.353899
0.352644
0.351448
0.350308
0.349221
0.348185
0.34721
0.372796
0.370596
0.368509
0.366528
0.364649
0.362864
0.361168
0.359555
0.358022
0.356563
0.355174
0.353852
0.352592
0.351392
0.350248
0.349157
0.348119
0.347142
0.372795
0.370593
0.368505
0.366523
0.364641
0.362853
0.361154
0.359539
0.358003
0.35654
0.355148
0.353823
0.35256
0.351357
0.35021
0.349116
0.348075
0.347094
0.372794
0.370592
0.368502
0.366518
0.364634
0.362845
0.361145
0.359527
0.357989
0.356525
0.355131
0.353803
0.352539
0.351333
0.350184
0.349088
0.348044
0.347061
0.372794
0.37059
0.368499
0.366515
0.36463
0.362839
0.361137
0.359519
0.357979
0.356514
0.355118
0.353789
0.352523
0.351316
0.350165
0.349067
0.348021
0.347037
0.372794
0.370589
0.368498
0.366512
0.364627
0.362835
0.361132
0.359513
0.357972
0.356506
0.355109
0.353779
0.352511
0.351303
0.350151
0.349052
0.348005
0.347019
0.372793
0.370589
0.368497
0.366512
0.364626
0.362834
0.361131
0.359511
0.357969
0.356502
0.355105
0.353774
0.352506
0.351297
0.350144
0.349044
0.347996
0.34701
0.372794
0.37059
0.368498
0.366513
0.364628
0.362836
0.361133
0.359514
0.357973
0.356506
0.355109
0.353779
0.352511
0.351302
0.350149
0.349049
0.348001
0.347015
0.372794
0.370591
0.3685
0.366516
0.364632
0.362841
0.36114
0.359522
0.357982
0.356517
0.355122
0.353793
0.352526
0.351319
0.350167
0.349069
0.348022
0.347037
0.372795
0.370593
0.368504
0.366522
0.364641
0.362855
0.361158
0.359546
0.358012
0.356552
0.355163
0.353839
0.352578
0.351375
0.350228
0.349134
0.348091
0.347108
0.372796
0.370598
0.368518
0.366547
0.364681
0.362912
0.361235
0.359641
0.358127
0.356685
0.355311
0.354001
0.35275
0.351556
0.350415
0.349324
0.348281
0.347298
0.372804
0.370631
0.368592
0.366676
0.364872
0.363166
0.361548
0.360006
0.358532
0.35712
0.355767
0.354467
0.353219
0.352019
0.350867
0.349761
0.348701
0.347697
0.372856
0.370818
0.368973
0.367264
0.365645
0.364085
0.362567
0.361083
0.359631
0.358213
0.356832
0.355493
0.354196
0.352946
0.351743
0.35059
0.349486
0.348445
0.373166
0.37177
0.370579
0.369371
0.368049
0.366605
0.365072
0.363492
0.361905
0.360342
0.358826
0.357372
0.355991
0.354688
0.353468
0.352329
0.351272
0.350303
0.374797
0.375829
0.376175
0.375401
0.373834
0.371876
0.369792
0.36774
0.365814
0.364067
0.362524
0.361195
0.360076
0.359157
0.358425
0.357864
0.357457
0.35719
0.382729
0.39167
0.392375
0.388805
0.384384
0.380403
0.377247
0.374998
0.373621
0.373039
0.373154
0.373867
0.375085
0.376718
0.378687
0.380924
0.383367
0.385947
0.407499
0.414514
0.405423
0.395993
0.390555
0.389292
0.391457
0.396217
0.402839
0.410729
0.419438
0.428624
0.438035
0.44748
0.456825
0.465975
0.474885
0.483468
0.360554
0.347547
0.334933
0.322917
0.311965
0.302353
0.29419
0.287471
0.282116
0.278005
0.275002
0.272968
0.271768
0.271277
0.27138
0.271977
0.27298
0.274307
0.000648735
0.00371173
0.00617371
0.00832728
0.0104851
0.0130729
0.0160827
0.0196084
0.0237533
0.0285518
0.0336274
0.0389988
0.0446304
0.0504725
0.0564743
0.0625868
0.0687629
0.0749578
0.0811281
0.087232
0.0932291
0.0990806
0.104749
0.110199
0.115393
0.120293
0.12486
0.129049
0.13281
0.136087
0.138804
0.140848
0.142066
0.142359
0.141998
0.141875
0.142757
0.143797
0.144317
0.142601
0.143611
0.144736
0.145752
0.147653
0.150357
0.157144
0.164336
0.171771
0.179421
0.187267
0.195298
0.203504
0.211881
0.220424
0.22913
0.237996
0.247019
0.256196
0.265524
0.275001
0.284622
0.294385
0.304285
0.314318
0.32448
0.334764
0.345167
0.355682
0.366303
0.377023
0.387837
0.398735
0.409712
0.420759
0.431868
0.443031
0.45424
0.465486
0.47676
0.488053
0.499356
0.510661
0.521957
0.533235
0.544486
0.555701
0.56687
0.577982
0.589029
0.600001
0.610886
0.621676
0.63236
0.642927
0.653369
0.663677
0.673846
0.683878
0.693785
0.703604
0.713308
0.722789
0.73205
0.741087
0.749893
0.758456
0.766766
0.774813
0.782585
0.790072
0.797264
0.80415
0.810723
0.816972
0.82289
0.828468
0.833699
0.838577
0.843094
0.847245
0.851026
0.854431
0.857456
0.860098
0.862355
0.864225
0.865705
0.866796
0.867497
0.867809
0.867733
0.867272
0.866427
0.865202
0.863602
0.86163
0.859293
0.856595
0.853545
0.850148
0.846412
0.842347
0.83796
0.833262
0.828262
0.82297
0.817397
0.811555
0.805455
0.799109
0.792529
0.785727
0.778716
0.771511
0.764122
0.756562
0.748849
0.740992
0.733007
0.724908
0.716695
0.708415
0.700042
0.69164
0.683286
0.675798
0.671836
0.668421
0.665018
0.661598
0.658163
0.654711
0.651234
0.647714
0.644104
0.640303
0.63608
0.630834
0.623093
0.606344
0.00251362
0.0107064
0.0161889
0.0205512
0.0246591
0.0287042
0.0329008
0.0374192
0.0423304
0.0476309
0.0532624
0.0591749
0.0653208
0.0716553
0.0781364
0.0847252
0.0913853
0.0980823
0.104784
0.11146
0.118084
0.124629
0.131076
0.137404
0.143594
0.149626
0.155476
0.161122
0.166551
0.171768
0.176789
0.181629
0.186292
0.19083
0.195436
0.20047
0.206522
0.213696
0.221719
0.229777
0.23737
0.246754
0.259759
0.27264
0.284266
0.295844
0.307816
0.320198
0.332972
0.346112
0.359598
0.373419
0.387568
0.40204
0.416832
0.431941
0.447365
0.463102
0.47915
0.495507
0.51217
0.529135
0.5464
0.563959
0.581808
0.599941
0.618353
0.637036
0.655982
0.675184
0.694633
0.714318
0.734231
0.754359
0.774691
0.795216
0.81592
0.836791
0.857814
0.878977
0.900265
0.921662
0.943154
0.964726
0.986362
1.00805
1.02976
1.0515
1.07323
1.09495
1.11664
1.13827
1.15984
1.18132
1.2027
1.22396
1.24508
1.26604
1.28681
1.30732
1.32737
1.34713
1.3666
1.38577
1.40462
1.42313
1.44127
1.45902
1.47636
1.49328
1.50974
1.52573
1.54124
1.55622
1.57068
1.5846
1.59794
1.61071
1.62287
1.63442
1.64535
1.65564
1.66527
1.67425
1.68255
1.69017
1.69711
1.70335
1.70889
1.71372
1.71785
1.72127
1.72398
1.72598
1.72727
1.72787
1.72776
1.72697
1.72548
1.72333
1.7205
1.71702
1.71289
1.70814
1.70276
1.69679
1.69022
1.68309
1.67541
1.6672
1.65847
1.64925
1.63957
1.62943
1.61887
1.6079
1.59656
1.58486
1.57283
1.56051
1.54786
1.53502
1.52188
1.5086
1.49526
1.48203
1.46935
1.45676
1.44413
1.43144
1.41873
1.406
1.39326
1.38051
1.36772
1.35487
1.34181
1.32839
1.31339
1.29396
0.00504679
0.0177974
0.0252961
0.0310487
0.0361181
0.0410239
0.0460263
0.0512702
0.056824
0.0627
0.0688755
0.0753136
0.0819741
0.0888181
0.0958104
0.10292
0.110118
0.11738
0.124685
0.132015
0.139356
0.146697
0.154031
0.161356
0.168672
0.175979
0.183283
0.190597
0.197954
0.205406
0.213023
0.220877
0.22903
0.237544
0.246507
0.256056
0.266364
0.277543
0.289444
0.30174
0.314406
0.327852
0.342427
0.357615
0.372896
0.388382
0.404248
0.42055
0.437294
0.454472
0.472073
0.49009
0.508514
0.527341
0.546566
0.566184
0.586193
0.606589
0.627368
0.648526
0.67006
0.691964
0.714233
0.736861
0.759842
0.783168
0.806832
0.830823
0.855133
0.879751
0.904665
0.929864
0.955334
0.981062
1.00703
1.03323
1.05964
1.08625
1.11303
1.13998
1.16707
1.19428
1.2216
1.24901
1.27648
1.304
1.33155
1.35911
1.38665
1.41416
1.44162
1.469
1.49629
1.52346
1.5505
1.57738
1.60409
1.63061
1.65692
1.68285
1.70843
1.73366
1.75853
1.78302
1.8071
1.83074
1.85391
1.87658
1.89873
1.92032
1.94134
1.96175
1.98153
2.00065
2.01909
2.03682
2.05383
2.07009
2.08557
2.10028
2.11417
2.12724
2.13948
2.15086
2.16138
2.17103
2.17979
2.18766
2.19463
2.20069
2.20585
2.21009
2.21343
2.21585
2.21737
2.21799
2.21771
2.21655
2.2145
2.21159
2.20782
2.20321
2.19777
2.19152
2.18449
2.17668
2.16812
2.15883
2.14883
2.13815
2.12682
2.11485
2.10228
2.08914
2.07545
2.06123
2.04654
2.03139
2.01581
1.99986
1.98346
1.96687
1.94999
1.93291
1.91569
1.89846
1.88144
1.86444
1.8474
1.83031
1.8132
1.79609
1.779
1.76196
1.74498
1.7281
1.71129
1.69462
1.67753
1.65965
0.00810187
0.024593
0.0337946
0.0405038
0.0463608
0.0519467
0.0575472
0.0633202
0.069347
0.0756572
0.0822467
0.0890926
0.0961645
0.103431
0.110862
0.118433
0.126122
0.133914
0.141794
0.149755
0.157793
0.165908
0.174105
0.182394
0.190787
0.199301
0.20796
0.216797
0.225857
0.235198
0.244889
0.254992
0.265561
0.276645
0.288298
0.300592
0.313602
0.327353
0.341783
0.356778
0.372313
0.388491
0.405392
0.422889
0.440804
0.459105
0.477828
0.497002
0.51664
0.536744
0.557314
0.578347
0.59984
0.621789
0.644192
0.667045
0.690347
0.714095
0.738285
0.762913
0.787976
0.81347
0.839388
0.865725
0.892475
0.919628
0.947178
0.975113
1.00342
1.0321
1.06112
1.09049
1.12017
1.15016
1.18045
1.211
1.24181
1.27285
1.30411
1.33557
1.3672
1.39897
1.43088
1.46289
1.49499
1.52714
1.55933
1.59154
1.62373
1.65588
1.68798
1.71999
1.7519
1.78367
1.81529
1.84674
1.87798
1.90901
1.93974
1.97008
2.00004
2.02959
2.05872
2.08739
2.11558
2.14324
2.17034
2.19685
2.22274
2.24797
2.27252
2.29634
2.31941
2.3417
2.36319
2.38383
2.40361
2.42251
2.44049
2.45753
2.47362
2.48874
2.50286
2.51597
2.52807
2.53912
2.54913
2.55809
2.56598
2.57281
2.57856
2.58324
2.58684
2.58937
2.59084
2.59124
2.59059
2.58889
2.58616
2.58241
2.57766
2.57192
2.56521
2.55755
2.54896
2.53946
2.52909
2.51787
2.50581
2.49296
2.47935
2.465
2.44993
2.43421
2.41785
2.40085
2.38333
2.36525
2.34667
2.32771
2.30832
2.28863
2.26862
2.24836
2.22792
2.2074
2.18692
2.16643
2.14589
2.12532
2.10474
2.08419
2.0637
2.04334
2.02316
2.00324
1.98368
1.96469
1.94609
1.92805
0.0111866
0.0309322
0.0414439
0.0490564
0.0556171
0.0617802
0.0678659
0.0740525
0.0804388
0.0870722
0.0939655
0.101111
0.108488
0.116075
0.12385
0.131793
0.139888
0.148126
0.156499
0.165008
0.173655
0.182449
0.191403
0.200534
0.209864
0.219421
0.229236
0.23935
0.249809
0.260668
0.271984
0.283809
0.296189
0.309162
0.322766
0.337033
0.351992
0.367647
0.38397
0.400912
0.418452
0.436609
0.455396
0.474773
0.494674
0.515068
0.535955
0.557341
0.579233
0.601635
0.624549
0.647976
0.671917
0.69637
0.721335
0.746811
0.772798
0.799294
0.826296
0.853804
0.881812
0.910318
0.939318
0.968805
0.998773
1.02921
1.06012
1.09148
1.12328
1.15552
1.18817
1.22122
1.25466
1.28846
1.32262
1.3571
1.3919
1.42697
1.46231
1.49789
1.53368
1.56966
1.6058
1.64208
1.67846
1.71492
1.75143
1.78797
1.8245
1.86101
1.89745
1.9338
1.97004
2.00613
2.04206
2.07778
2.11328
2.14853
2.18337
2.21781
2.25181
2.28536
2.31841
2.35094
2.3829
2.41426
2.44498
2.47501
2.50433
2.53289
2.56065
2.58759
2.61365
2.63882
2.66306
2.68633
2.7086
2.72986
2.75006
2.7692
2.78723
2.80414
2.81991
2.83453
2.84797
2.86023
2.87129
2.88114
2.88978
2.89719
2.90338
2.90834
2.91208
2.9146
2.91589
2.91598
2.91487
2.91257
2.9091
2.90447
2.8987
2.89181
2.88381
2.87475
2.86463
2.85349
2.84135
2.82826
2.81422
2.79928
2.78349
2.76687
2.74943
2.73126
2.71238
2.69275
2.67258
2.65182
2.63053
2.60877
2.58657
2.56399
2.54106
2.51785
2.49441
2.47083
2.4472
2.42353
2.3998
2.37605
2.35231
2.32863
2.30507
2.28171
2.25865
2.23602
2.214
2.19287
2.1726
2.15339
0.0140927
0.0364125
0.0481781
0.0566322
0.0638321
0.0705043
0.077003
0.0835281
0.0901962
0.0970716
0.104184
0.111538
0.119129
0.126943
0.134966
0.143184
0.151588
0.160173
0.168938
0.177888
0.187032
0.196384
0.205962
0.21579
0.225895
0.236309
0.247069
0.258214
0.269791
0.281845
0.294424
0.30757
0.321321
0.335706
0.35075
0.366469
0.382876
0.399968
0.417731
0.436142
0.455184
0.474853
0.495149
0.516053
0.53754
0.559591
0.5822
0.605367
0.629095
0.653387
0.678247
0.703679
0.729683
0.756264
0.783422
0.811159
0.839476
0.868373
0.897851
0.927908
0.958542
0.989752
1.02153
1.05388
1.08679
1.12025
1.15426
1.1888
1.22386
1.25944
1.29551
1.33205
1.36906
1.4065
1.44437
1.48263
1.52126
1.56024
1.59953
1.63912
1.67897
1.71905
1.75934
1.79979
1.84038
1.88107
1.92184
1.96265
2.00346
2.04425
2.08499
2.12563
2.16614
2.2065
2.24667
2.28662
2.3263
2.36567
2.40458
2.44303
2.481
2.51844
2.55533
2.59161
2.62726
2.66222
2.69645
2.7299
2.76254
2.79432
2.82519
2.85512
2.88407
2.912
2.93887
2.96465
2.98931
3.0128
3.03512
3.05621
3.07607
3.09466
3.11196
3.12797
3.14265
3.15599
3.16799
3.17863
3.18791
3.19581
3.20233
3.20749
3.21127
3.21368
3.21473
3.21443
3.21279
3.20982
3.20555
3.19998
3.19314
3.18506
3.17575
3.16525
3.15358
3.14077
3.12687
3.1119
3.0959
3.07888
3.06093
3.04207
3.02227
3.0017
2.98037
2.95829
2.93555
2.91218
2.88823
2.86376
2.8388
2.81342
2.78765
2.76156
2.73522
2.70869
2.68204
2.65532
2.62854
2.60175
2.57499
2.54832
2.52183
2.49562
2.46981
2.44458
2.42016
2.39685
2.37465
2.35367
0.0166018
0.0411343
0.0539864
0.0631813
0.0709445
0.0780606
0.0849117
0.091716
0.0986057
0.10566
0.112923
0.120416
0.128142
0.136101
0.144285
0.152688
0.161308
0.170143
0.179199
0.188484
0.198012
0.2078
0.217871
0.228252
0.238972
0.250066
0.261571
0.273524
0.285967
0.298939
0.31248
0.326624
0.341401
0.356834
0.372941
0.389734
0.407217
0.425392
0.444249
0.463778
0.483968
0.504813
0.526308
0.548448
0.571219
0.594615
0.61863
0.643266
0.668524
0.694409
0.720927
0.748081
0.775877
0.80432
0.833414
0.863163
0.89357
0.924638
0.956369
0.988764
1.02182
1.05554
1.08993
1.12496
1.16065
1.19699
1.23396
1.27155
1.30976
1.34857
1.38796
1.42792
1.46842
1.50944
1.55096
1.59295
1.63539
1.67824
1.72147
1.76506
1.80896
1.85315
1.89758
1.94222
1.98703
2.03197
2.07701
2.12211
2.16723
2.21233
2.25738
2.30233
2.34715
2.39179
2.43622
2.4804
2.5243
2.56776
2.61073
2.65318
2.69509
2.73642
2.77712
2.81714
2.85643
2.89496
2.93265
2.96948
3.00539
3.04033
3.07425
3.10712
3.13888
3.1695
3.19894
3.22715
3.25411
3.27977
3.30411
3.32708
3.34868
3.36886
3.38761
3.4049
3.42073
3.43508
3.44792
3.45926
3.46909
3.47739
3.48417
3.48943
3.49317
3.4954
3.49613
3.49537
3.49313
3.48943
3.4843
3.47774
3.46978
3.46045
3.44979
3.43782
3.42457
3.41006
3.39436
3.37751
3.35952
3.3404
3.3203
3.29922
3.27717
3.25425
3.23051
3.20596
3.18069
3.15474
3.12816
3.10101
3.07333
3.04519
3.01663
2.98772
2.95851
2.92908
2.8995
2.86981
2.84007
2.81031
2.78061
2.75104
2.7217
2.6927
2.66421
2.63642
2.60957
2.58398
2.55959
2.53647
0.0187468
0.0451117
0.0588663
0.0686841
0.0769228
0.0844117
0.0915544
0.0985829
0.105642
0.112822
0.120181
0.127752
0.13555
0.143584
0.151856
0.160367
0.169119
0.178118
0.187372
0.196893
0.206699
0.21681
0.22725
0.238048
0.249234
0.260842
0.272907
0.285465
0.298551
0.312201
0.326447
0.341318
0.356839
0.37303
0.389905
0.407475
0.425746
0.44472
0.464395
0.484767
0.505831
0.527584
0.550026
0.573154
0.596965
0.621458
0.646633
0.672493
0.699043
0.72629
0.754239
0.782899
0.812278
0.842383
0.87322
0.904797
0.93712
0.970193
1.00402
1.03861
1.07395
1.11006
1.14693
1.18455
1.22293
1.26205
1.30191
1.34249
1.38379
1.42579
1.46846
1.5118
1.55578
1.60037
1.64554
1.69127
1.73752
1.78426
1.83146
1.87907
1.92706
1.97538
2.024
2.07286
2.12194
2.17117
2.22053
2.26996
2.31942
2.36887
2.41826
2.46756
2.5167
2.56566
2.61438
2.66281
2.7109
2.75846
2.80549
2.85194
2.89779
2.94298
2.98746
3.03119
3.0741
3.11614
3.15726
3.19741
3.23653
3.27456
3.31147
3.3472
3.3817
3.41494
3.44685
3.47742
3.50659
3.53432
3.56059
3.58535
3.60859
3.63026
3.65035
3.66885
3.68573
3.70097
3.71457
3.72652
3.7368
3.74541
3.75236
3.75764
3.76126
3.76323
3.76356
3.76226
3.75935
3.75486
3.74879
3.74118
3.73205
3.72144
3.70938
3.69591
3.68104
3.66479
3.64729
3.62854
3.60858
3.58744
3.56521
3.54193
3.51763
3.49239
3.46625
3.43926
3.41149
3.38299
3.35381
3.32401
3.29365
3.26279
3.23148
3.19979
3.16777
3.1355
3.10304
3.07046
3.03782
3.00517
2.9726
2.94019
2.90806
2.87633
2.84519
2.81484
2.78554
2.75755
2.73079
2.70531
0.0205136
0.0483555
0.0628308
0.0731485
0.0817686
0.0895545
0.0969252
0.104123
0.111301
0.11856
0.125967
0.133566
0.141383
0.149435
0.157733
0.166285
0.175099
0.184184
0.193554
0.203223
0.21321
0.223538
0.234233
0.245321
0.256833
0.268802
0.281259
0.294239
0.307771
0.321889
0.336619
0.351988
0.368018
0.384726
0.402129
0.420237
0.43906
0.458602
0.478868
0.499858
0.521574
0.544019
0.567195
0.591105
0.615752
0.641142
0.667278
0.694168
0.72182
0.750244
0.779449
0.809446
0.840246
0.871859
0.904296
0.937566
0.971678
1.00664
1.04246
1.07914
1.11669
1.1551
1.19438
1.23453
1.27554
1.31741
1.36012
1.40367
1.44804
1.49322
1.53919
1.58591
1.63338
1.68155
1.7304
1.77989
1.82999
1.88066
1.93185
1.98353
2.03564
2.08814
2.14098
2.19411
2.24748
2.30103
2.35473
2.40852
2.46235
2.51616
2.56991
2.62356
2.67704
2.73031
2.78331
2.83601
2.8882
2.93984
2.99088
3.04128
3.09101
3.14001
3.18821
3.23557
3.28202
3.3275
3.37195
3.41532
3.45754
3.49857
3.53835
3.57683
3.61395
3.64967
3.68395
3.71673
3.74799
3.77767
3.80574
3.83216
3.8569
3.87994
3.90125
3.92082
3.93862
3.95465
3.96888
3.98132
3.99195
4.00076
4.00777
4.01297
4.01637
4.01799
4.01784
4.01593
4.01228
4.00692
3.99988
3.99117
3.98081
3.96886
3.95537
3.94037
3.92389
3.90596
3.88666
3.86603
3.84412
3.82096
3.79663
3.77118
3.74466
3.71712
3.68863
3.65924
3.62901
3.598
3.56628
3.5339
3.50091
3.4674
3.4334
3.39899
3.36423
3.32918
3.29394
3.25855
3.22309
3.18763
3.15227
3.1171
3.08223
3.04783
3.01408
2.98119
2.9494
2.91893
2.8897
2.86173
0.0219008
0.0508943
0.0659158
0.0766115
0.0855173
0.0935219
0.101055
0.108365
0.115613
0.122905
0.130317
0.137901
0.145692
0.153715
0.161987
0.170524
0.179339
0.188444
0.197857
0.207593
0.217675
0.228124
0.238965
0.250227
0.261937
0.274126
0.286824
0.300062
0.313868
0.328271
0.343296
0.358969
0.37531
0.392339
0.410072
0.428522
0.447702
0.467622
0.488291
0.509715
0.531903
0.554861
0.578599
0.603123
0.628443
0.654569
0.681511
0.709281
0.73789
0.767353
0.797682
0.828893
0.861
0.894015
0.927955
0.96283
0.998653
1.03543
1.07318
1.11191
1.15161
1.1923
1.23397
1.27663
1.32026
1.36488
1.41045
1.45698
1.50444
1.55282
1.6021
1.65224
1.70322
1.75501
1.80757
1.86087
1.91485
1.96948
2.0247
2.08047
2.13673
2.19343
2.25051
2.30792
2.36559
2.42346
2.4815
2.53962
2.59779
2.65594
2.71402
2.77197
2.82973
2.88726
2.94448
3.0013
3.05753
3.11313
3.16808
3.22233
3.27581
3.32848
3.38027
3.43112
3.48096
3.52972
3.57734
3.62376
3.66892
3.71276
3.75523
3.79627
3.83582
3.87385
3.91029
3.94511
3.97827
4.00971
4.03941
4.06731
4.09338
4.11761
4.13997
4.16044
4.17901
4.19566
4.21038
4.22317
4.23401
4.2429
4.24984
4.25484
4.25793
4.2591
4.25837
4.25576
4.2513
4.24501
4.23692
4.22707
4.21549
4.20221
4.18728
4.17076
4.15267
4.13306
4.11199
4.08951
4.06568
4.04054
4.01415
3.98658
3.95788
3.92811
3.89734
3.86561
3.83301
3.79958
3.76539
3.73051
3.69499
3.65891
3.62232
3.58528
3.54788
3.51017
3.47223
3.43414
3.39598
3.35782
3.31976
3.28192
3.24442
3.20742
3.17111
3.13571
3.10143
3.06847
3.03671
3.00621
0.0229224
0.0527747
0.0681794
0.0791364
0.0882343
0.0963795
0.104009
0.111375
0.118642
0.125924
0.1333
0.14083
0.148555
0.156508
0.164711
0.173185
0.181948
0.191015
0.200405
0.210137
0.220233
0.230714
0.241606
0.252934
0.264727
0.277011
0.289816
0.30317
0.3171
0.331634
0.346796
0.362611
0.379102
0.396289
0.41419
0.432825
0.452207
0.472353
0.493277
0.514992
0.537511
0.560848
0.585016
0.61003
0.635903
0.662652
0.690293
0.71884
0.748313
0.778728
0.810104
0.842459
0.875811
0.910179
0.945579
0.982027
1.01954
1.05813
1.0978
1.13857
1.18045
1.22343
1.26752
1.31272
1.35902
1.40642
1.4549
1.50445
1.55505
1.60668
1.65932
1.71293
1.76748
1.82293
1.87924
1.93636
1.99426
2.05286
2.11213
2.172
2.23241
2.2933
2.35459
2.41624
2.47816
2.5403
2.6026
2.66498
2.7274
2.78978
2.85207
2.91421
2.97613
3.03778
3.09907
3.15977
3.21984
3.27922
3.33787
3.39574
3.45277
3.50889
3.56403
3.61813
3.6711
3.72289
3.77341
3.82262
3.87045
3.91684
3.96173
4.00506
4.04678
4.08684
4.12519
4.16178
4.19658
4.22954
4.26062
4.28975
4.31693
4.34212
4.3653
4.38647
4.40559
4.42267
4.43769
4.45066
4.46155
4.47035
4.47709
4.48176
4.4844
4.48501
4.48362
4.48024
4.4749
4.46764
4.45849
4.44747
4.43463
4.42001
4.40366
4.38563
4.36595
4.34469
4.32189
4.29762
4.27193
4.24487
4.2165
4.1869
4.15611
4.1242
4.09124
4.0573
4.02242
3.98669
3.95016
3.9129
3.87498
3.83646
3.79741
3.75789
3.71798
3.67774
3.63726
3.59662
3.55589
3.51516
3.47455
3.43416
3.39414
3.35465
3.31587
3.27802
3.2413
3.20587
3.17159
3.13858
0.0236057
0.0540581
0.0696977
0.0808076
0.090009
0.098219
0.105879
0.113244
0.120483
0.12771
0.135012
0.142451
0.150076
0.157922
0.166018
0.174387
0.183051
0.192028
0.201339
0.211002
0.22104
0.231475
0.24233
0.253631
0.265404
0.277676
0.290473
0.303824
0.317756
0.332294
0.347466
0.363296
0.37981
0.39703
0.414979
0.433679
0.453151
0.473415
0.494491
0.516398
0.539157
0.562788
0.587309
0.612742
0.639107
0.666425
0.694717
0.724006
0.754314
0.785664
0.818078
0.851579
0.886189
0.921931
0.958824
0.996888
1.03614
1.0766
1.11827
1.16117
1.20529
1.25066
1.29726
1.34509
1.39415
1.44442
1.4959
1.54857
1.60239
1.65736
1.71343
1.77056
1.82873
1.88788
1.94797
2.00895
2.07075
2.13333
2.19661
2.26054
2.32504
2.39005
2.45547
2.52125
2.5873
2.65356
2.71996
2.78643
2.8529
2.91932
2.9856
3.0517
3.11755
3.18308
3.24803
3.31232
3.37592
3.43876
3.50079
3.56194
3.62216
3.68137
3.73951
3.7965
3.85225
3.90668
3.95973
4.01135
4.06147
4.11003
4.15696
4.20221
4.24573
4.28746
4.32736
4.36538
4.40148
4.43564
4.46778
4.49784
4.52581
4.55167
4.5754
4.59699
4.61643
4.63369
4.64879
4.66171
4.67245
4.681
4.68738
4.6916
4.69367
4.69363
4.69148
4.68726
4.68099
4.67271
4.66245
4.65025
4.63616
4.62021
4.60245
4.58295
4.56174
4.53887
4.51442
4.48843
4.46096
4.43208
4.40185
4.37033
4.33758
4.30368
4.26868
4.23265
4.19566
4.15779
4.11908
4.07962
4.03947
3.99869
3.95736
3.91554
3.8733
3.83072
3.78788
3.74486
3.70175
3.65864
3.61565
3.57288
3.5305
3.48865
3.44753
3.40734
3.36826
3.33045
3.29373
3.25828
0.0239902
0.054818
0.0705603
0.0817248
0.0909472
0.0991503
0.106778
0.114088
0.121249
0.12838
0.13557
0.142885
0.150376
0.158083
0.166038
0.174266
0.18279
0.191632
0.200812
0.210351
0.22027
0.23059
0.241336
0.252531
0.264201
0.276373
0.289073
0.302328
0.316168
0.330619
0.345709
0.361466
0.377918
0.395092
0.413015
0.431713
0.451214
0.471543
0.492727
0.514792
0.537765
0.561674
0.586544
0.612403
0.639278
0.667196
0.696183
0.726268
0.757478
0.78984
0.823384
0.858134
0.894118
0.93136
0.969883
1.00971
1.05086
1.09334
1.13718
1.18238
1.22895
1.27687
1.32615
1.37679
1.42877
1.48207
1.5367
1.5926
1.64977
1.70817
1.76775
1.82848
1.89031
1.95319
2.01706
2.08186
2.14753
2.214
2.2812
2.34906
2.41751
2.48648
2.55584
2.62553
2.69546
2.76557
2.83579
2.90603
2.97624
3.04634
3.11627
3.18596
3.25536
3.32418
3.39235
3.45979
3.52645
3.59227
3.65718
3.72112
3.78401
3.8458
3.90643
3.96583
4.02383
4.08039
4.13546
4.18897
4.24087
4.29109
4.33957
4.38626
4.4311
4.47404
4.51503
4.55403
4.59099
4.62588
4.65865
4.68925
4.71766
4.74386
4.76783
4.78955
4.80901
4.82621
4.84114
4.85379
4.86418
4.87229
4.87815
4.88176
4.88315
4.88234
4.87935
4.87421
4.86695
4.85761
4.84623
4.83285
4.81751
4.80025
4.78114
4.76022
4.73755
4.71318
4.68717
4.65958
4.63047
4.59991
4.56796
4.53469
4.50015
4.46443
4.42758
4.38967
4.35078
4.31097
4.2703
4.22886
4.1867
4.14389
4.10051
4.05661
4.01229
3.9676
3.92264
3.87747
3.83221
3.78694
3.74178
3.69685
3.65229
3.60828
3.56499
3.52261
3.48132
3.44125
3.40223
3.36446
0.0241246
0.0551358
0.0708652
0.0819966
0.0911651
0.0992949
0.106831
0.114033
0.121071
0.128066
0.135109
0.142268
0.149596
0.157135
0.164918
0.172973
0.181324
0.189993
0.199002
0.20837
0.218119
0.228273
0.238853
0.249884
0.261392
0.273404
0.285948
0.299052
0.312746
0.327061
0.342026
0.357675
0.374038
0.391148
0.409037
0.427737
0.447283
0.467706
0.48904
0.51132
0.534581
0.558856
0.584182
0.610592
0.638121
0.666799
0.696659
0.727733
0.760055
0.793656
0.82857
0.864824
0.902449
0.941469
0.98191
1.02379
1.06714
1.11196
1.15827
1.20609
1.25539
1.30616
1.3584
1.4121
1.46723
1.52379
1.58175
1.64106
1.70171
1.76364
1.82681
1.89117
1.95666
2.02323
2.0908
2.15931
2.22869
2.29886
2.36975
2.44129
2.5134
2.58605
2.65899
2.73219
2.80558
2.87909
2.95265
3.02617
3.09959
3.17285
3.24587
3.3186
3.39074
3.4622
3.53294
3.60286
3.67192
3.74003
3.80714
3.87316
3.93804
4.0017
4.06407
4.12508
4.18463
4.24264
4.29906
4.35382
4.40686
4.45813
4.50755
4.55508
4.60067
4.64425
4.68579
4.72525
4.76257
4.79773
4.83068
4.86138
4.88982
4.91596
4.93979
4.96129
4.98046
4.9973
5.01178
5.02393
5.03374
5.04121
5.04636
5.04921
5.04978
5.04809
5.04417
5.03804
5.02976
5.01934
5.00683
4.99228
4.97574
4.95724
4.93685
4.91461
4.89058
4.86483
4.83741
4.80838
4.77781
4.74575
4.71228
4.67747
4.64137
4.60406
4.5656
4.52607
4.48553
4.44405
4.40169
4.35854
4.31465
4.2701
4.22495
4.17928
4.13315
4.08664
4.03984
3.99282
3.94568
3.89853
3.85147
3.80463
3.75815
3.7122
3.66696
3.62261
3.5793
3.53716
3.49602
3.45611
0.0240663
0.0550982
0.0707144
0.0817353
0.0907824
0.0987782
0.106168
0.113214
0.120087
0.12691
0.133774
0.140749
0.147888
0.155234
0.162822
0.170679
0.178831
0.187299
0.196107
0.205274
0.214824
0.22478
0.235165
0.246005
0.257328
0.269163
0.281538
0.294487
0.308043
0.322238
0.33711
0.352694
0.369028
0.386153
0.404106
0.422928
0.442658
0.463337
0.485006
0.50771
0.531491
0.556395
0.582466
0.609748
0.638282
0.668098
0.699228
0.731711
0.765584
0.800884
0.837642
0.87589
0.915655
0.95696
0.999827
1.04427
1.09031
1.13796
1.18723
1.23815
1.29066
1.3447
1.40027
1.45736
1.51595
1.57601
1.63749
1.70037
1.76459
1.8301
1.89684
1.96476
2.03379
2.10386
2.17489
2.24682
2.31956
2.39304
2.46717
2.54186
2.61704
2.69262
2.76848
2.84453
2.92069
2.99688
3.07304
3.14908
3.22495
3.30059
3.37586
3.45052
3.5245
3.59773
3.67013
3.74163
3.81217
3.88167
3.95006
4.01727
4.08323
4.14787
4.21112
4.2729
4.33314
4.39177
4.44871
4.50392
4.55733
4.60887
4.6585
4.70616
4.7518
4.79537
4.83683
4.87613
4.91323
4.94811
4.98071
5.01102
5.03901
5.06465
5.08793
5.10883
5.12736
5.1435
5.15725
5.16862
5.17761
5.18424
5.18851
5.19044
5.19006
5.1874
5.18247
5.17532
5.16598
5.15449
5.14089
5.12522
5.10754
5.0879
5.06634
5.04293
5.01771
4.99075
4.96211
4.93186
4.90004
4.86674
4.83201
4.79592
4.75854
4.71994
4.68017
4.63932
4.59745
4.55463
4.51092
4.4664
4.42113
4.37518
4.32861
4.2815
4.23392
4.18594
4.13764
4.08911
4.04044
3.99173
3.94309
3.89465
3.84656
3.79896
3.75204
3.70597
3.66089
3.61693
3.57391
3.5321
0.0238691
0.0547826
0.0701938
0.0810309
0.0898908
0.0976919
0.104881
0.111721
0.118386
0.124999
0.131652
0.138415
0.14534
0.152471
0.159842
0.167481
0.175415
0.183667
0.19226
0.201217
0.210563
0.220323
0.230524
0.241196
0.252368
0.264074
0.276348
0.289229
0.302755
0.316966
0.331905
0.347617
0.364148
0.381549
0.399871
0.419161
0.439462
0.460823
0.483298
0.506941
0.531806
0.557947
0.58542
0.614286
0.644621
0.676391
0.709628
0.744383
0.780697
0.818604
0.85813
0.899301
0.942134
0.986642
1.03284
1.08072
1.13029
1.18156
1.2345
1.2891
1.34533
1.40315
1.46251
1.52339
1.58574
1.64953
1.7147
1.7812
1.84897
1.91795
1.98807
2.05927
2.13148
2.20462
2.2786
2.35337
2.42882
2.50488
2.58147
2.6585
2.73587
2.81352
2.89133
2.96922
3.04712
3.12495
3.20264
3.28013
3.35734
3.43405
3.51013
3.58551
3.66012
3.73388
3.80673
3.8786
3.9494
4.01908
4.08756
4.15478
4.22066
4.28514
4.34816
4.40963
4.4695
4.5277
4.58416
4.63883
4.69164
4.74254
4.79149
4.83841
4.88328
4.92604
4.96665
5.00507
5.04127
5.07521
5.10685
5.13618
5.16317
5.1878
5.21005
5.22992
5.24739
5.26247
5.27515
5.28544
5.29335
5.29889
5.30208
5.30293
5.30147
5.29772
5.29172
5.28349
5.27308
5.26053
5.24588
5.22916
5.21045
5.18977
5.16719
5.14275
5.11653
5.08857
5.05894
5.0277
4.9949
4.96063
4.92493
4.88787
4.84953
4.80996
4.76923
4.72742
4.68458
4.64078
4.59609
4.55057
4.50429
4.45732
4.40972
4.36156
4.31291
4.26384
4.21443
4.16476
4.11492
4.06502
4.01516
3.96547
3.91608
3.86716
3.81886
3.77136
3.72479
3.67928
3.63466
3.59121
0.023648
0.0543298
0.0694656
0.0800603
0.0886809
0.096242
0.103192
0.109797
0.116231
0.122619
0.129052
0.135598
0.142311
0.149233
0.156399
0.16384
0.171582
0.179654
0.188081
0.196891
0.206113
0.215778
0.22592
0.236573
0.247778
0.259575
0.272008
0.285124
0.298977
0.313619
0.329096
0.345463
0.362785
0.381131
0.400581
0.421206
0.44299
0.466017
0.490356
0.516069
0.543218
0.57186
0.602048
0.633833
0.667256
0.702336
0.739092
0.77755
0.817729
0.859645
0.903304
0.948709
0.995855
1.04473
1.09533
1.14762
1.20159
1.25721
1.31444
1.37324