/*--------------------------------*- C++ -*----------------------------------*\
  =========                 |
  \\      /  F ield         | OpenFOAM: The Open Source CFD Toolbox
   \\    /   O peration     | Website:  https://openfoam.org
    \\  /    A nd           | Version:  9
     \\/     M anipulation  |
\*---------------------------------------------------------------------------*/
FoamFile
{
    format      ascii;
    class       volScalarField;
    location    "0.24";
    object      kU;
}
// * * * * * * * * * * * * * * * * * * * * * * * * * * * * * * * * * * * * * //

dimensions      [0 2 -2 0 0 0 0];

internalField   nonuniform List<scalar> 
12225
(
0.15723
0.132054
0.113078
0.0993488
0.0902004
0.0851115
0.0836306
0.0853241
0.0897662
0.0965526
0.105325
0.115801
0.127805
0.141309
0.156477
0.173721
0.193955
0.225482
0.18102
0.175179
0.173951
0.179244
0.191406
0.210103
0.234588
0.263821
0.296657
0.332037
0.36914
0.407477
0.446958
0.487911
0.531107
0.57765
0.629392
0.687992
0.184242
0.181326
0.178611
0.1767
0.17621
0.177433
0.180461
0.185282
0.191822
0.199996
0.209774
0.221234
0.234625
0.250434
0.269464
0.292933
0.322661
0.361348
0.184873
0.182074
0.179376
0.17691
0.174856
0.173331
0.172366
0.171942
0.17202
0.172563
0.173557
0.175039
0.17712
0.180019
0.184121
0.190048
0.198789
0.211785
0.185144
0.182622
0.180128
0.177717
0.175456
0.173399
0.171571
0.169976
0.1686
0.167424
0.16643
0.165609
0.164973
0.164563
0.164467
0.164851
0.166014
0.16844
0.185259
0.182927
0.18063
0.178389
0.176227
0.17417
0.172235
0.170429
0.168751
0.167197
0.16576
0.164433
0.163212
0.162099
0.161105
0.160254
0.159594
0.159218
0.185303
0.18307
0.180905
0.178807
0.176779
0.174829
0.172964
0.171191
0.169512
0.167929
0.166444
0.165056
0.163766
0.162576
0.161487
0.160499
0.159611
0.158815
0.185317
0.18313
0.181037
0.17903
0.177104
0.175255
0.173485
0.171796
0.17019
0.16867
0.16724
0.165904
0.164668
0.163536
0.162515
0.161604
0.160802
0.160095
0.185322
0.183152
0.181094
0.179136
0.177271
0.175493
0.173797
0.172184
0.170653
0.169207
0.167849
0.166586
0.165423
0.164369
0.163432
0.162616
0.161922
0.161346
0.185323
0.18316
0.181115
0.17918
0.177347
0.175609
0.173961
0.172399
0.170924
0.169536
0.168239
0.167036
0.165936
0.164947
0.164076
0.163331
0.162716
0.162231
0.185322
0.183162
0.181123
0.179198
0.177379
0.175661
0.174038
0.172506
0.171065
0.169714
0.168456
0.167295
0.166236
0.165288
0.164458
0.163753
0.16318
0.162739
0.185322
0.183162
0.181126
0.179205
0.177392
0.175682
0.17407
0.172552
0.171126
0.169794
0.168555
0.167413
0.166374
0.165444
0.164629
0.163935
0.163369
0.162933
0.185322
0.183163
0.181127
0.179208
0.177399
0.175693
0.174086
0.172575
0.171158
0.169834
0.168604
0.167472
0.16644
0.165514
0.164699
0.164
0.163422
0.162968
0.185322
0.183163
0.181128
0.179211
0.177403
0.1757
0.174097
0.172589
0.171176
0.169856
0.168629
0.167498
0.166464
0.165532
0.164704
0.163985
0.163378
0.162886
0.185322
0.183163
0.181129
0.179213
0.177407
0.175706
0.174105
0.1726
0.171189
0.16987
0.168642
0.167507
0.166466
0.165521
0.164672
0.163923
0.163277
0.162733
0.185321
0.183162
0.181129
0.179214
0.17741
0.175711
0.174113
0.17261
0.1712
0.169881
0.168652
0.167512
0.166462
0.1655
0.164629
0.163847
0.163157
0.162559
0.185321
0.183161
0.181129
0.179215
0.177413
0.175716
0.17412
0.172619
0.171211
0.169893
0.168663
0.167518
0.166459
0.165482
0.164589
0.163777
0.163046
0.162398
0.18532
0.18316
0.181127
0.179214
0.177414
0.17572
0.174127
0.172629
0.171224
0.169908
0.168677
0.167529
0.166462
0.165473
0.164561
0.163723
0.162957
0.162267
0.185318
0.183157
0.181125
0.179213
0.177414
0.175723
0.174133
0.17264
0.171238
0.169924
0.168694
0.167545
0.166473
0.165475
0.164548
0.16369
0.162897
0.162174
0.185316
0.183154
0.181122
0.179211
0.177415
0.175727
0.17414
0.17265
0.171252
0.16994
0.168712
0.167562
0.166487
0.165484
0.164549
0.163678
0.162869
0.162126
0.185315
0.183153
0.181121
0.179211
0.177418
0.175732
0.174149
0.172662
0.171267
0.169958
0.16873
0.167581
0.166505
0.165498
0.164557
0.163678
0.162858
0.162103
0.185314
0.183152
0.181121
0.179214
0.177422
0.175739
0.174157
0.172672
0.171278
0.16997
0.168742
0.167591
0.166512
0.165501
0.164554
0.163667
0.162838
0.162071
0.185314
0.183152
0.181122
0.179216
0.177424
0.175739
0.174155
0.172665
0.171264
0.169946
0.168707
0.167542
0.166448
0.16542
0.164454
0.163547
0.162696
0.161907
0.185314
0.183151
0.181117
0.179203
0.177397
0.175695
0.174089
0.172573
0.171142
0.169792
0.168518
0.167316
0.166183
0.165116
0.16411
0.163163
0.162272
0.161443
0.18531
0.183135
0.181077
0.179121
0.177258
0.175484
0.173798
0.172197
0.170679
0.169242
0.167885
0.166606
0.1654
0.164266
0.163199
0.162195
0.161253
0.160377
0.185287
0.183049
0.180897
0.178821
0.176819
0.174896
0.173062
0.171323
0.169683
0.168145
0.166705
0.165362
0.16411
0.162945
0.16186
0.16085
0.15991
0.159041
0.185188
0.182767
0.180355
0.177971
0.175667
0.173498
0.171493
0.169663
0.16801
0.166528
0.165207
0.164033
0.162991
0.162066
0.161245
0.160514
0.159861
0.159278
0.184852
0.182123
0.179201
0.176296
0.173693
0.171523
0.169816
0.168559
0.167724
0.167271
0.167151
0.167312
0.167704
0.168276
0.168983
0.169785
0.170649
0.171547
0.182905
0.177341
0.172657
0.169857
0.169119
0.170313
0.173224
0.177587
0.183116
0.189527
0.196556
0.203964
0.211545
0.219127
0.22657
0.23377
0.240665
0.247162
0.168318
0.15118
0.137003
0.125292
0.115701
0.107952
0.101811
0.0970761
0.0935613
0.0910959
0.0895224
0.0886962
0.0884857
0.0887729
0.0894532
0.0904358
0.0916437
0.0930074
0.0975688
0.143288
0.213431
0.245173
0.252972
0.254696
0.254067
0.252634
0.251104
0.249832
0.248481
0.245685
0.24014
0.230278
0.214035
0.188795
0.152217
0.106355
0.074313
0.0690323
0.0928541
0.118861
0.133877
0.14261
0.143695
0.133731
0.124305
0.116125
0.116393
0.150671
0.243584
0.326638
0.398769
0.460069
0.510682
0.551316
0.582928
0.606559
0.623233
0.633916
0.639494
0.640763
0.638434
0.633132
0.625403
0.615718
0.604477
0.592019
0.57863
0.565232
0.551875
0.538566
0.525324
0.512168
0.499112
0.486168
0.47334
0.460623
0.448003
0.435458
0.422951
0.410429
0.397826
0.385061
0.372039
0.358662
0.344834
0.330477
0.315546
0.300041
0.284018
0.267589
0.250921
0.234212
0.217683
0.201562
0.186119
0.171785
0.159484
0.152118
0.149028
0.146818
0.145028
0.143571
0.142419
0.141558
0.140974
0.140656
0.140592
0.14077
0.141178
0.141796
0.142605
0.143569
0.144625
0.145603
0.146134
0.145664
0.14385
0.140238
0.134691
0.127622
0.119991
0.11304
0.107818
0.104792
0.103783
0.104246
0.105715
0.10819
0.111284
0.114961
0.119331
0.124204
0.129036
0.133205
0.136504
0.139548
0.143171
0.148397
0.162102
0.201644
0.271494
0.330725
0.377758
0.413211
0.438708
0.455981
0.466636
0.472113
0.47374
0.472805
0.469788
0.464674
0.457697
0.448949
0.438404
0.425939
0.411363
0.394466
0.375127
0.353775
0.332751
0.322517
0.327507
0.333415
0.339689
0.346799
0.355191
0.365151
0.376779
0.389982
0.404579
0.42051
0.436633
0.445985
0.438761
0.407395
0.350159
0.278739
0.218389
0.186764
0.171961
0.153072
0.126903
0.106949
0.097997
0.0955787
0.0985117
0.0960615
0.0955807
0.0932204
0.0897723
0.0867264
0.0841652
0.0824538
0.0815509
0.0806754
0.0785537
0.0760125
0.129246
0.318753
0.35785
0.348778
0.334741
0.318707
0.300329
0.281224
0.263171
0.247219
0.233522
0.222106
0.213282
0.206823
0.201624
0.195337
0.184512
0.167804
0.152732
0.146962
0.167152
0.214873
0.241466
0.274517
0.348262
0.427215
0.44763
0.440067
0.428333
0.421269
0.419442
0.415708
0.409869
0.402497
0.394323
0.386007
0.378064
0.370869
0.364671
0.359625
0.355813
0.353264
0.351974
0.35192
0.353067
0.355389
0.358861
0.363446
0.369057
0.37492
0.380952
0.387161
0.393568
0.400198
0.407084
0.414252
0.421722
0.4295
0.437567
0.445872
0.45432
0.462763
0.470988
0.478711
0.485574
0.491159
0.495011
0.496677
0.495761
0.491976
0.485194
0.475469
0.463039
0.448291
0.43171
0.413816
0.395101
0.375962
0.356632
0.338629
0.323037
0.308581
0.295118
0.282603
0.27099
0.260229
0.250267
0.241051
0.232526
0.224646
0.217366
0.210645
0.204448
0.198737
0.193484
0.188687
0.184353
0.180284
0.175905
0.171476
0.168011
0.166464
0.167716
0.172501
0.181091
0.193008
0.206837
0.220165
0.22983
0.232668
0.227627
0.216319
0.202634
0.19125
0.184768
0.18316
0.188266
0.210508
0.255557
0.306316
0.336943
0.354751
0.376771
0.400243
0.425045
0.450644
0.476252
0.501245
0.525328
0.548494
0.570957
0.59307
0.614923
0.636783
0.658537
0.679813
0.699937
0.717879
0.732232
0.741287
0.743184
0.736136
0.718801
0.692901
0.663555
0.630481
0.595672
0.560846
0.527207
0.49548
0.466033
0.438902
0.413783
0.390662
0.369961
0.352289
0.340599
0.339636
0.357783
0.40783
0.498786
0.613327
0.686555
0.653551
0.536638
0.413538
0.325215
0.271817
0.238701
0.217216
0.199108
0.183789
0.172534
0.160996
0.149261
0.138946
0.131139
0.125984
0.121762
0.117019
0.245153
0.371059
0.351645
0.331003
0.315377
0.298229
0.278599
0.258659
0.240425
0.224846
0.212031
0.201467
0.192739
0.185985
0.181631
0.180019
0.181137
0.186121
0.205241
0.263713
0.362273
0.472566
0.565002
0.549533
0.503821
0.467121
0.432464
0.402273
0.378814
0.36199
0.350072
0.341113
0.334621
0.330389
0.328246
0.327953
0.329177
0.331525
0.334607
0.338098
0.34178
0.345544
0.349363
0.35325
0.357219
0.361263
0.365351
0.369419
0.373371
0.377187
0.380894
0.38455
0.388251
0.392115
0.396286
0.400913
0.40615
0.412136
0.418985
0.426772
0.435512
0.445146
0.455519
0.466365
0.477294
0.487792
0.497246
0.504983
0.510343
0.512754
0.511818
0.50737
0.499495
0.488509
0.474893
0.459213
0.442028
0.423798
0.404793
0.387227
0.371113
0.355927
0.341636
0.328231
0.315688
0.303971
0.293037
0.282842
0.273338
0.264484
0.256243
0.248584
0.241484
0.234931
0.22892
0.223464
0.218592
0.214287
0.210471
0.207077
0.203851
0.200844
0.198298
0.196415
0.195328
0.195099
0.195778
0.197322
0.199388
0.201162
0.201607
0.200209
0.198127
0.198714
0.206385
0.225433
0.264162
0.322479
0.37686
0.395914
0.399729
0.417558
0.449985
0.489011
0.5274
0.560611
0.587676
0.609942
0.629372
0.647543
0.665329
0.682949
0.700869
0.719454
0.738642
0.758149
0.777358
0.79521
0.810126
0.820073
0.822731
0.815726
0.79693
0.769415
0.735803
0.697648
0.657419
0.617216
0.57854
0.542303
0.508939
0.478546
0.451036
0.426391
0.404482
0.384368
0.365007
0.347287
0.336158
0.341011
0.373807
0.445228
0.556208
0.675504
0.737641
0.710216
0.630793
0.549927
0.486729
0.434418
0.384006
0.337276
0.298301
0.263155
0.229225
0.199593
0.176498
0.160086
0.149538
0.142388
0.321297
0.332459
0.337433
0.344805
0.336177
0.313163
0.284032
0.255178
0.230063
0.209769
0.193934
0.182288
0.17417
0.169203
0.16808
0.173377
0.192461
0.245899
0.359035
0.50912
0.655842
0.644189
0.558804
0.48224
0.425083
0.384375
0.355033
0.334909
0.322374
0.315719
0.313301
0.313871
0.316664
0.32106
0.326484
0.332385
0.338282
0.343833
0.348874
0.353403
0.357513
0.361314
0.364874
0.368199
0.371236
0.373896
0.376079
0.377586
0.378263
0.378077
0.377053
0.375279
0.37291
0.370168
0.367336
0.364746
0.362759
0.361742
0.362047
0.363982
0.367784
0.373594
0.38143
0.391159
0.402475
0.414886
0.427719
0.440149
0.451272
0.460197
0.466172
0.468682
0.467526
0.462814
0.454914
0.444351
0.431689
0.417414
0.402186
0.388017
0.374385
0.361306
0.348843
0.337026
0.325858
0.315323
0.305397
0.296051
0.287256
0.278982
0.271209
0.263918
0.257102
0.250765
0.244924
0.239607
0.234843
0.230646
0.227007
0.22387
0.221137
0.218729
0.216567
0.214548
0.212527
0.210372
0.207946
0.205206
0.202342
0.1998
0.198292
0.198808
0.203196
0.215099
0.240613
0.286631
0.349729
0.407101
0.427707
0.424131
0.437662
0.474652
0.523115
0.570061
0.608001
0.635609
0.655211
0.669823
0.681657
0.691939
0.701242
0.709854
0.718695
0.728288
0.738836
0.750349
0.762532
0.774634
0.785292
0.792545
0.793865
0.786482
0.768456
0.742763
0.710322
0.673374
0.634468
0.595788
0.558903
0.524758
0.493782
0.46607
0.441579
0.420221
0.40189
0.386373
0.372725
0.359033
0.345279
0.334624
0.333445
0.353761
0.412065
0.518187
0.654018
0.767402
0.812903
0.794898
0.746449
0.688549
0.624749
0.551823
0.471642
0.398723
0.332874
0.277029
0.233219
0.202204
0.183206
0.173051
0.42686
0.358223
0.391929
0.39821
0.371766
0.329945
0.285608
0.246207
0.215261
0.193134
0.179085
0.171679
0.167341
0.165387
0.1725
0.202705
0.273076
0.392403
0.535108
0.634019
0.614968
0.526634
0.443576
0.385074
0.346959
0.32341
0.310126
0.304352
0.303988
0.307344
0.31313
0.320428
0.32856
0.33695
0.345111
0.352704
0.359576
0.36575
0.371361
0.376571
0.381506
0.386231
0.390738
0.394961
0.398784
0.402061
0.404625
0.405758
0.405224
0.402869
0.398617
0.392488
0.384615
0.375253
0.364778
0.353685
0.342562
0.332063
0.322864
0.315612
0.310872
0.309081
0.310511
0.315236
0.323119
0.333787
0.346625
0.36078
0.375204
0.388745
0.400278
0.408873
0.413929
0.41524
0.412989
0.407617
0.399669
0.389663
0.379104
0.368548
0.358064
0.347815
0.337905
0.328391
0.319294
0.310619
0.302357
0.294493
0.28701
0.279895
0.273134
0.266723
0.260662
0.254963
0.249647
0.244741
0.240277
0.236286
0.232782
0.229737
0.227086
0.224742
0.222612
0.220595
0.21858
0.216453
0.214093
0.211398
0.208393
0.20564
0.2045
0.207262
0.217441
0.240541
0.283299
0.346665
0.412348
0.445585
0.440385
0.441839
0.474721
0.527893
0.58352
0.629254
0.661287
0.681704
0.694188
0.701593
0.705597
0.707153
0.706914
0.705474
0.703975
0.703128
0.703424
0.705203
0.708546
0.71311
0.71787
0.721107
0.720302
0.712457
0.696821
0.673836
0.644501
0.610963
0.575677
0.540803
0.507896
0.477875
0.45114
0.427754
0.407616
0.390587
0.376582
0.365539
0.357035
0.349887
0.341856
0.332472
0.324531
0.32421
0.34307
0.397293
0.496916
0.628728
0.753758
0.834632
0.861575
0.845453
0.799161
0.729477
0.638626
0.535981
0.440087
0.357808
0.292817
0.247054
0.220424
0.208512
0.471982
0.398243
0.452228
0.443804
0.398078
0.339113
0.283383
0.238567
0.208061
0.192901
0.186739
0.183395
0.184457
0.196004
0.228044
0.29097
0.386191
0.49317
0.55986
0.545813
0.478268
0.406964
0.355132
0.323332
0.306275
0.29938
0.299399
0.304088
0.311848
0.321543
0.332357
0.343655
0.354924
0.365778
0.375997
0.385535
0.394475
0.402966
0.411162
0.419187
0.427104
0.434912
0.44254
0.449844
0.456616
0.462588
0.467261
0.469657
0.469569
0.466714
0.460877
0.451944
0.439931
0.425007
0.407518
0.388002
0.367199
0.34603
0.325551
0.306866
0.291008
0.278832
0.270926
0.267582
0.268804
0.274336
0.283671
0.296046
0.31044
0.325605
0.340158
0.352768
0.362389
0.368382
0.370659
0.369483
0.36534
0.359233
0.352225
0.344685
0.336925
0.329152
0.321499
0.314041
0.306819
0.29985
0.293139
0.286682
0.280472
0.274502
0.268769
0.263271
0.258013
0.253004
0.248264
0.243813
0.239679
0.235885
0.232448
0.229366
0.226619
0.224176
0.221995
0.220016
0.218156
0.21632
0.214424
0.212437
0.21049
0.209123
0.209808
0.215438
0.230855
0.263054
0.318237
0.38976
0.445968
0.456517
0.444537
0.460744
0.510433
0.572659
0.628672
0.669466
0.695084
0.709328
0.715737
0.716575
0.713205
0.706619
0.6977
0.68736
0.67678
0.666765
0.657994
0.651067
0.646376
0.64394
0.643138
0.642445
0.639539
0.63194
0.618344
0.59818
0.572243
0.542425
0.511034
0.48016
0.451327
0.425424
0.402814
0.383512
0.367365
0.354177
0.343791
0.336092
0.330857
0.327504
0.324897
0.320875
0.315491
0.311384
0.314672
0.335674
0.386586
0.472504
0.581604
0.687449
0.764229
0.799036
0.791825
0.749592
0.681512
0.595447
0.500634
0.411588
0.337212
0.283025
0.252244
0.241795
0.479158
0.442945
0.499417
0.477966
0.416859
0.347976
0.290515
0.249666
0.224764
0.214115
0.210314
0.213989
0.228193
0.258095
0.307913
0.375171
0.442909
0.481216
0.471637
0.426911
0.374756
0.334118
0.309687
0.298614
0.296886
0.301403
0.310066
0.321498
0.334745
0.349076
0.363888
0.378699
0.393174
0.407134
0.420539
0.433448
0.445978
0.458269
0.470448
0.482604
0.494758
0.506843
0.518696
0.530052
0.540566
0.549832
0.556673
0.560952
0.56227
0.56023
0.554497
0.544811
0.531008
0.51303
0.490958
0.465068
0.43591
0.404399
0.371858
0.339968
0.310561
0.285324
0.265489
0.251686
0.243981
0.242054
0.245354
0.253169
0.264604
0.278516
0.293466
0.307845
0.320212
0.329423
0.335042
0.337043
0.336009
0.332981
0.328662
0.323537
0.317949
0.312133
0.306243
0.300376
0.294589
0.288918
0.283378
0.277981
0.27273
0.267627
0.262674
0.257875
0.253234
0.248762
0.244469
0.240372
0.236488
0.232835
0.229431
0.226289
0.223422
0.22084
0.21855
0.216548
0.214809
0.213292
0.211964
0.210868
0.210218
0.210603
0.213494
0.222134
0.242295
0.281728
0.344578
0.416487
0.460004
0.457641
0.449268
0.478765
0.540628
0.606351
0.659587
0.695105
0.71549
0.724868
0.726247
0.721532
0.712049
0.698957
0.683362
0.666393
0.649113
0.632287
0.616647
0.602965
0.591886
0.583643
0.578107
0.5739
0.569224
0.561768
0.549683
0.532028
0.509218
0.482823
0.454954
0.427615
0.402296
0.379866
0.360662
0.34467
0.331685
0.321442
0.313701
0.308266
0.304933
0.303371
0.303124
0.302931
0.301632
0.299583
0.299076
0.305698
0.32749
0.370944
0.435528
0.510596
0.579023
0.625131
0.64067
0.625893
0.586818
0.53199
0.470277
0.405298
0.344419
0.296343
0.268873
0.263755
0.46723
0.48388
0.53429
0.504113
0.437178
0.368038
0.314334
0.278987
0.260372
0.251678
0.253048
0.265077
0.2887
0.323451
0.364351
0.400185
0.417401
0.409458
0.381976
0.348123
0.319912
0.302916
0.296817
0.298927
0.306706
0.318409
0.332894
0.349312
0.366926
0.385082
0.403246
0.421042
0.438253
0.454805
0.470744
0.48621
0.501402
0.516532
0.531773
0.547215
0.562834
0.578474
0.593852
0.608568
0.622136
0.634014
0.643087
0.649278
0.652149
0.651292
0.6464
0.637271
0.623789
0.605872
0.583422
0.556305
0.52442
0.487907
0.447457
0.404611
0.361816
0.322055
0.288085
0.261671
0.243283
0.232452
0.228295
0.229897
0.236394
0.246863
0.260035
0.274164
0.287565
0.298615
0.306494
0.310827
0.312346
0.311791
0.309742
0.306662
0.302902
0.298711
0.294256
0.289654
0.284977
0.280278
0.27559
0.270937
0.26634
0.261811
0.257364
0.253007
0.248752
0.244609
0.240587
0.236697
0.232953
0.229367
0.225956
0.222742
0.219756
0.217036
0.214631
0.212585
0.210931
0.209692
0.208908
0.208695
0.209344
0.211484
0.216601
0.228131
0.252306
0.29675
0.362841
0.430847
0.464047
0.457347
0.456065
0.494524
0.560477
0.626761
0.67803
0.709848
0.726608
0.732461
0.730049
0.72118
0.707265
0.689651
0.669596
0.648309
0.626645
0.605242
0.584765
0.566076
0.55016
0.537221
0.527524
0.520331
0.513852
0.506085
0.495044
0.479488
0.459414
0.436019
0.411187
0.386825
0.364395
0.344767
0.328276
0.314895
0.304385
0.296423
0.290684
0.286872
0.284713
0.28391
0.284169
0.285262
0.286151
0.286471
0.286525
0.288177
0.2961
0.315303
0.347134
0.387641
0.428399
0.459763
0.474855
0.471787
0.453044
0.423218
0.387
0.348946
0.312163
0.28126
0.264368
0.26741
0.448448
0.518133
0.565629
0.528984
0.45954
0.393164
0.345576
0.317326
0.302394
0.297323
0.301999
0.314784
0.332954
0.352041
0.366296
0.370762
0.363722
0.347606
0.327912
0.310857
0.300733
0.298622
0.303354
0.31326
0.327049
0.343787
0.362654
0.382835
0.40356
0.424179
0.444229
0.463441
0.481745
0.499245
0.516182
0.532877
0.549661
0.566801
0.584459
0.602651
0.621247
0.639967
0.658399
0.676015
0.692192
0.706107
0.717023
0.724637
0.728393
0.727816
0.722609
0.712702
0.698254
0.679576
0.656979
0.630547
0.599972
0.564583
0.523716
0.477408
0.427153
0.376223
0.329011
0.289457
0.259491
0.239033
0.226864
0.22163
0.222241
0.227961
0.237866
0.250186
0.263118
0.274798
0.283635
0.289738
0.293328
0.294838
0.294741
0.293457
0.291317
0.288566
0.285377
0.281871
0.278136
0.274235
0.270219
0.266127
0.261994
0.25785
0.253718
0.249621
0.245577
0.241602
0.237708
0.233909
0.230215
0.226639
0.223199
0.21992
0.216842
0.214022
0.211534
0.209461
0.207886
0.206896
0.206605
0.207207
0.209052
0.212811
0.21998
0.234042
0.261224
0.30839
0.374402
0.43709
0.463781
0.457683
0.462795
0.505486
0.571562
0.636093
0.684898
0.715139
0.730471
0.73456
0.729914
0.718522
0.701957
0.681703
0.659084
0.635267
0.610917
0.586536
0.562656
0.539985
0.520267
0.503672
0.490456
0.480262
0.471863
0.463501
0.453184
0.43939
0.421686
0.400879
0.378613
0.3567
0.336599
0.319202
0.304873
0.293589
0.285096
0.279024
0.274965
0.272524
0.271329
0.271029
0.271331
0.272228
0.273392
0.274441
0.275172
0.275705
0.277642
0.284442
0.298256
0.31745
0.337539
0.353358
0.361109
0.359551
0.349784
0.334029
0.314467
0.292934
0.271385
0.253249
0.245151
0.254337
0.425729
0.548994
0.595709
0.55438
0.483336
0.419556
0.376401
0.351439
0.336908
0.331111
0.331359
0.33483
0.338686
0.34047
0.338647
0.332914
0.324154
0.314281
0.305931
0.301627
0.302732
0.309216
0.320349
0.335345
0.353467
0.373907
0.395762
0.41813
0.440236
0.461521
0.481681
0.500672
0.518678
0.536051
0.553223
0.570619
0.588581
0.607325
0.626917
0.647273
0.668163
0.689221
0.709956
0.729764
0.747945
0.763295
0.775723
0.784604
0.789222
0.788915
0.783184
0.771826
0.75505
0.733523
0.708232
0.680137
0.649663
0.616295
0.578612
0.534973
0.484755
0.429715
0.374375
0.324646
0.284476
0.255006
0.235169
0.223364
0.2181
0.218699
0.224644
0.234276
0.245427
0.256362
0.265781
0.273079
0.278176
0.28131
0.282832
0.283091
0.28238
0.280919
0.278871
0.276355
0.273463
0.270267
0.26683
0.263205
0.25944
0.255581
0.251666
0.247728
0.243798
0.2399
0.236054
0.232279
0.228588
0.224998
0.221528
0.218208
0.215081
0.212215
0.209699
0.207645
0.206175
0.205434
0.205602
0.206942
0.209863
0.215064
0.224022
0.240103
0.269173
0.317074
0.380902
0.438414
0.461805
0.45838
0.467702
0.51074
0.574249
0.63605
0.683132
0.712863
0.72798
0.73176
0.726678
0.7146
0.697147
0.675834
0.651993
0.62672
0.600636
0.574193
0.547964
0.522807
0.499814
0.479817
0.463353
0.450423
0.440244
0.431301
0.421615
0.40939
0.393766
0.375162
0.354999
0.335027
0.316734
0.301069
0.288445
0.278864
0.272064
0.267628
0.265072
0.263902
0.263652
0.263899
0.264301
0.264719
0.265282
0.265809
0.266137
0.266048
0.265664
0.266432
0.270532
0.278269
0.287286
0.294337
0.297104
0.294896
0.288366
0.278736
0.267118
0.254314
0.241272
0.230162
0.226145
0.236474
0.400357
0.57556
0.624824
0.581482
0.508924
0.444862
0.400767
0.371291
0.352858
0.341223
0.333505
0.327793
0.322955
0.318472
0.314203
0.310191
0.306724
0.304545
0.304799
0.308558
0.316362
0.328216
0.343817
0.362642
0.383924
0.406709
0.429997
0.452905
0.474783
0.495279
0.514354
0.532245
0.549376
0.566259
0.583388
0.60117
0.619877
0.639632
0.660402
0.682003
0.704101
0.72623
0.747808
0.768156
0.78656
0.802188
0.814984
0.824397
0.829712
0.830125
0.824834
0.813214
0.795055
0.770847
0.741887
0.710023
0.676933
0.643194
0.607723
0.568138
0.521894
0.46847
0.410915
0.356238
0.309684
0.273657
0.247583
0.230257
0.21992
0.215894
0.217647
0.223979
0.233083
0.243063
0.252423
0.260292
0.26636
0.270681
0.273478
0.275013
0.275518
0.275176
0.274131
0.27249
0.270344
0.267771
0.264839
0.261616
0.258162
0.254533
0.250782
0.246955
0.243093
0.23923
0.235398
0.23162
0.227918
0.224314
0.220831
0.217502
0.214374
0.21152
0.209037
0.207056
0.205733
0.205254
0.205857
0.207869
0.211753
0.218228
0.228702
0.246277
0.276222
0.323359
0.383865
0.436926
0.459158
0.458824
0.470067
0.510619
0.569749
0.628285
0.674125
0.704134
0.720054
0.724664
0.72031
0.708831
0.691821
0.670739
0.646836
0.621038
0.593969
0.566094
0.538012
0.510594
0.48493
0.462105
0.44296
0.427833
0.416302
0.407077
0.398157
0.387456
0.373685
0.356911
0.338381
0.31984
0.302855
0.288464
0.277149
0.268945
0.263575
0.260567
0.259347
0.259324
0.259948
0.260745
0.261346
0.261539
0.261394
0.260963
0.26023
0.259071
0.257348
0.255404
0.254481
0.255733
0.258714
0.261554
0.262391
0.260354
0.255585
0.248754
0.24055
0.231469
0.222055
0.213728
0.210418
0.218665
0.372863
0.59316
0.648643
0.606545
0.532165
0.464124
0.412996
0.377867
0.353584
0.336202
0.323496
0.314373
0.308299
0.30488
0.303638
0.304084
0.306002
0.309662
0.315703
0.324784
0.337312
0.353349
0.372585
0.394344
0.417681
0.441547
0.464972
0.487213
0.507844
0.526785
0.544269
0.560756
0.576813
0.593009
0.60983
0.627638
0.646645
0.66689
0.68822
0.710278
0.732523
0.754287
0.774832
0.793445
0.809511
0.822921
0.833804
0.841881
0.846627
0.847281
0.842886
0.832413
0.814991
0.790377
0.759452
0.724336
0.687751
0.651672
0.616076
0.579047
0.537013
0.487645
0.431612
0.376771
0.328442
0.289451
0.259933
0.238471
0.223929
0.215969
0.214277
0.217853
0.225006
0.233846
0.242784
0.250803
0.257429
0.262569
0.266328
0.268872
0.270369
0.270957
0.270752
0.269848
0.268332
0.266282
0.263775
0.260886
0.257685
0.254241
0.250617
0.24687
0.243051
0.239206
0.235373
0.231586
0.227876
0.224269
0.220794
0.217488
0.214402
0.211608
0.20921
0.207349
0.206203
0.205994
0.207006
0.209619
0.214353
0.221945
0.233699
0.252344
0.282419
0.327833
0.38455
0.433969
0.456256
0.458667
0.469958
0.506088
0.559553
0.614302
0.659001
0.68974
0.707186
0.713481
0.710744
0.700759
0.68507
0.66504
0.641768
0.615986
0.588362
0.559442
0.529895
0.500655
0.472911
0.44794
0.426839
0.410247
0.398036
0.389063
0.381224
0.372099
0.359984
0.344648
0.327256
0.309628
0.293466
0.279933
0.269587
0.262487
0.258323
0.256536
0.256442
0.257345
0.258628
0.259802
0.260522
0.260586
0.259961
0.258701
0.256883
0.254518
0.251582
0.248194
0.244934
0.242752
0.242128
0.242467
0.242504
0.241155
0.237957
0.233001
0.226628
0.219179
0.211052
0.203254
0.198809
0.203345
0.345184
0.594465
0.65937
0.622365
0.547592
0.474296
0.417768
0.377445
0.348836
0.328568
0.314744
0.306288
0.302367
0.302096
0.304548
0.308991
0.315148
0.323244
0.333801
0.34733
0.364082
0.383919
0.406279
0.430275
0.45485
0.478974
0.501799
0.522785
0.541749
0.558864
0.574571
0.589473
0.604208
0.619365
0.635427
0.652743
0.671486
0.691602
0.712757
0.734332
0.755479
0.775261
0.792778
0.807364
0.818679
0.827541
0.834382
0.83921
0.841731
0.841345
0.837151
0.827976
0.812493
0.789657
0.759481
0.723621
0.685138
0.646989
0.610001
0.573675
0.534282
0.488984
0.438313
0.386483
0.338841
0.299022
0.267692
0.243853
0.226744
0.216302
0.212379
0.214075
0.219774
0.227633
0.236072
0.244027
0.250942
0.256627
0.261084
0.264398
0.266668
0.26799
0.268449
0.268128
0.267107
0.265466
0.263287
0.260653
0.257643
0.254334
0.250799
0.247104
0.243309
0.239469
0.23563
0.231835
0.228121
0.224523
0.221075
0.217817
0.214802
0.212103
0.209825
0.208111
0.207155
0.207204
0.208578
0.211705
0.217157
0.225697
0.238529
0.25796
0.287736
0.330977
0.383899
0.430393
0.453324
0.45791
0.467943
0.498419
0.545239
0.595518
0.638746
0.670235
0.689545
0.698065
0.697566
0.689695
0.675898
0.657407
0.635158
0.609727
0.581868
0.552244
0.521636
0.491083
0.4619
0.435535
0.41332
0.396154
0.384113
0.376081
0.36974
0.362271
0.351581
0.337239
0.320449
0.303209
0.287419
0.274382
0.26473
0.258519
0.255365
0.254582
0.255343
0.256844
0.258422
0.259618
0.260168
0.259961
0.258971
0.257164
0.25459
0.251323
0.247439
0.243125
0.238792
0.235092
0.23261
0.231389
0.230799
0.229902
0.227911
0.224425
0.219386
0.212912
0.205256
0.197151
0.190948
0.191391
0.328075
0.570644
0.650248
0.623065
0.552863
0.479007
0.41913
0.375358
0.344548
0.323682
0.310755
0.304327
0.303103
0.305832
0.31144
0.319263
0.329153
0.341381
0.356365
0.374393
0.395413
0.418968
0.444239
0.470189
0.495735
0.519917
0.542031
0.561724
0.579024
0.594289
0.608101
0.621142
0.634093
0.647556
0.66203
0.677872
0.695229
0.713961
0.73357
0.753216
0.771801
0.788123
0.801113
0.810117
0.815564
0.818982
0.820937
0.821585
0.820812
0.818203
0.813046
0.804157
0.790153
0.769652
0.741871
0.707747
0.670033
0.631972
0.59537
0.559551
0.52175
0.479336
0.43225
0.383784
0.338701
0.3003
0.269225
0.24482
0.226802
0.215416
0.210593
0.211428
0.216338
0.223562
0.231601
0.239434
0.246493
0.252529
0.257476
0.261345
0.264181
0.26604
0.266984
0.267083
0.266412
0.265056
0.263102
0.260637
0.257749
0.254523
0.251037
0.247365
0.243576
0.23973
0.235881
0.232078
0.228366
0.224784
0.221374
0.21818
0.215254
0.212669
0.210527
0.208971
0.208199
0.208473
0.21014
0.213665
0.219671
0.228958
0.242663
0.262697
0.292027
0.333071
0.38252
0.426724
0.450574
0.456851
0.464882
0.489027
0.528426
0.573369
0.614383
0.646185
0.667269
0.678189
0.680236
0.674814
0.663214
0.64653
0.625568
0.600796
0.573049
0.543122
0.511924
0.480629
0.450699
0.423766
0.401383
0.384656
0.373755
0.36743
0.363009
0.357218
0.34763
0.333752
0.316983
0.299617
0.283795
0.27097
0.261817
0.256342
0.254029
0.254014
0.255301
0.256979
0.258377
0.259116
0.25907
0.258274
0.256816
0.254637
0.251679
0.248004
0.243696
0.238972
0.234248
0.230074
0.226956
0.225082
0.224149
0.223459
0.2222
0.219728
0.215676
0.209913
0.202505
0.193939
0.186033
0.182736
0.297537
0.530085
0.618536
0.609782
0.551862
0.481324
0.420002
0.374057
0.342095
0.321365
0.309606
0.305
0.305952
0.311092
0.319423
0.330453
0.344156
0.360771
0.380526
0.403401
0.428985
0.456489
0.484907
0.513113
0.540021
0.564729
0.586636
0.605517
0.621533
0.635161
0.647059
0.657964
0.668604
0.679521
0.691249
0.704162
0.718405
0.733811
0.749853
0.765654
0.780045
0.791643
0.799215
0.802473
0.802824
0.801495
0.798923
0.795367
0.790917
0.7854
0.778343
0.768841
0.755597
0.737058
0.712033
0.6808
0.645472
0.608973
0.57323
0.537987
0.501121
0.460497
0.416215
0.371289
0.329775
0.294158
0.264749
0.241212
0.223768
0.21287
0.208387
0.209316
0.214088
0.221057
0.228872
0.236611
0.243741
0.249995
0.255257
0.259489
0.262693
0.264894
0.266138
0.266489
0.266022
0.264824
0.262987
0.260605
0.257771
0.254574
0.251098
0.247424
0.243623
0.239761
0.235898
0.232088
0.228381
0.224822
0.221456
0.218332
0.215503
0.213039
0.211036
0.209633
0.209024
0.209476
0.21135
0.215138
0.221501
0.231287
0.245617
0.266096
0.295
0.334112
0.380633
0.423162
0.448151
0.455904
0.461711
0.479308
0.510715
0.549347
0.587072
0.618321
0.640664
0.65378
0.658372
0.655495
0.646226
0.631508
0.612041
0.588225
0.560974
0.531199
0.499947
0.468546
0.438633
0.412048
0.390553
0.375385
0.366648
0.36278
0.360605
0.356367
0.347401
0.333348
0.315987
0.298012
0.281839
0.269039
0.260281
0.255454
0.253838
0.254336
0.255769
0.257148
0.257844
0.257612
0.256503
0.254738
0.252555
0.250007
0.246908
0.24327
0.239117
0.234598
0.230082
0.226089
0.223088
0.221276
0.220447
0.220031
0.219268
0.21745
0.214056
0.208781
0.201523
0.192554
0.183256
0.176884
0.326002
0.487618
0.576277
0.589244
0.548836
0.48555
0.42408
0.375699
0.34184
0.32037
0.308807
0.305023
0.30726
0.314165
0.324879
0.339058
0.356737
0.378074
0.4031
0.431571
0.462873
0.495009
0.527234
0.55844
0.587553
0.613712
0.63637
0.655355
0.67087
0.68341
0.693648
0.70232
0.710116
0.71761
0.725304
0.733572
0.742596
0.752299
0.762309
0.771961
0.780346
0.786406
0.789283
0.788659
0.785359
0.780172
0.773683
0.766363
0.758502
0.750112
0.740876