/*--------------------------------*- C++ -*----------------------------------*\
  =========                 |
  \\      /  F ield         | OpenFOAM: The Open Source CFD Toolbox
   \\    /   O peration     | Website:  https://openfoam.org
    \\  /    A nd           | Version:  9
     \\/     M anipulation  |
\*---------------------------------------------------------------------------*/
FoamFile
{
    format      ascii;
    class       surfaceScalarField;
    location    "0.24";
    object      phi;
}
// * * * * * * * * * * * * * * * * * * * * * * * * * * * * * * * * * * * * * //

dimensions      [0 3 -1 0 0 0 0];

internalField   nonuniform List<scalar> 
24170
(
3.07029e-06
1.18116e-07
2.92681e-06
1.43475e-07
2.79208e-06
1.34731e-07
2.66478e-06
1.27301e-07
2.54279e-06
1.21996e-07
2.42732e-06
1.15472e-07
2.31825e-06
1.09068e-07
2.21425e-06
1.04e-07
2.11351e-06
1.00741e-07
2.01392e-06
9.95837e-08
1.91308e-06
1.00848e-07
1.8082e-06
1.04876e-07
1.69619e-06
1.12006e-07
1.57367e-06
1.22524e-07
1.43716e-06
1.36507e-07
1.28327e-06
1.5389e-07
1.10952e-06
1.73753e-07
1.9697e-07
9.12548e-07
3.47997e-06
5.5394e-08
3.5129e-06
1.10542e-07
3.53063e-06
1.17007e-07
3.53339e-06
1.2454e-07
3.52366e-06
1.31729e-07
3.50361e-06
1.35518e-07
3.47486e-06
1.37815e-07
3.43845e-06
1.40414e-07
3.39493e-06
1.44258e-07
3.3444e-06
1.5011e-07
3.28643e-06
1.58823e-07
3.21996e-06
1.71347e-07
3.14323e-06
1.88734e-07
3.05362e-06
2.12131e-07
2.94749e-06
2.42638e-07
2.81991e-06
2.81476e-07
2.66473e-06
3.2893e-07
3.89521e-07
2.47218e-06
3.67466e-06
4.32527e-08
3.68941e-06
9.57862e-08
3.70173e-06
1.04693e-07
3.71277e-06
1.13499e-07
3.7214e-06
1.23093e-07
3.7266e-06
1.30318e-07
3.72806e-06
1.36361e-07
3.7256e-06
1.42869e-07
3.71906e-06
1.50807e-07
3.7082e-06
1.60969e-07
3.69274e-06
1.74279e-07
3.67226e-06
1.9183e-07
3.6461e-06
2.14892e-07
3.6133e-06
2.44934e-07
3.57231e-06
2.83625e-07
3.52101e-06
3.32775e-07
3.45574e-06
3.942e-07
4.67953e-07
3.37731e-06
3.93078e-06
3.78642e-08
3.93945e-06
8.71139e-08
3.94293e-06
1.01217e-07
3.94502e-06
1.11408e-07
3.94587e-06
1.22242e-07
3.94488e-06
1.31305e-07
3.94196e-06
1.39282e-07
3.93704e-06
1.47787e-07
3.92998e-06
1.57871e-07
3.92063e-06
1.70318e-07
3.90891e-06
1.85993e-07
3.89483e-06
2.05915e-07
3.87847e-06
2.31256e-07
3.86006e-06
2.63341e-07
3.84e-06
3.03679e-07
3.81899e-06
3.53789e-07
3.7981e-06
4.15094e-07
4.87656e-07
3.77839e-06
4.21161e-06
3.33832e-08
4.21838e-06
8.03377e-08
4.22004e-06
9.956e-08
4.21954e-06
1.11907e-07
4.21752e-06
1.24262e-07
4.21351e-06
1.35319e-07
4.20739e-06
1.45404e-07
4.19914e-06
1.56036e-07
4.18866e-06
1.68344e-07
4.17587e-06
1.83117e-07
4.1607e-06
2.01162e-07
4.14321e-06
2.23402e-07
4.12362e-06
2.50849e-07
4.10238e-06
2.84576e-07
4.08039e-06
3.2567e-07
4.05907e-06
3.75109e-07
4.04086e-06
4.33304e-07
5.00829e-07
4.02769e-06
4.51269e-06
2.97812e-08
4.51809e-06
7.49349e-08
4.51962e-06
9.8036e-08
4.51868e-06
1.12843e-07
4.51602e-06
1.26922e-07
4.51126e-06
1.40076e-07
4.50422e-06
1.52441e-07
4.4949e-06
1.65362e-07
4.48324e-06
1.80005e-07
4.46918e-06
1.97174e-07
4.45271e-06
2.17632e-07
4.43391e-06
2.42209e-07
4.41298e-06
2.71773e-07
4.39039e-06
3.07172e-07
4.36692e-06
3.49142e-07
4.34379e-06
3.9823e-07
4.32286e-06
4.54241e-07
5.17284e-07
4.3064e-06
4.83543e-06
2.70728e-08
4.83978e-06
7.0586e-08
4.84129e-06
9.65226e-08
4.84022e-06
1.13912e-07
4.83729e-06
1.29851e-07
4.83229e-06
1.45076e-07
4.82501e-06
1.59722e-07
4.81543e-06
1.74941e-07
4.80355e-06
1.91884e-07
4.78936e-06
2.11364e-07
4.77291e-06
2.34089e-07
4.75433e-06
2.60786e-07
4.73393e-06
2.92171e-07
4.71222e-06
3.28884e-07
4.68998e-06
3.71377e-07
4.66835e-06
4.19866e-07
4.64873e-06
4.73861e-07
5.33039e-07
4.63297e-06
5.18157e-06
2.50787e-08
5.18504e-06
6.7122e-08
5.18638e-06
9.51799e-08
5.18519e-06
1.151e-07
5.18209e-06
1.32956e-07
5.177e-06
1.50168e-07
5.16971e-06
1.67012e-07
5.16019e-06
1.84461e-07
5.14847e-06
2.03601e-07
5.13461e-06
2.25228e-07
5.11871e-06
2.49985e-07
5.10101e-06
2.78486e-07
5.08189e-06
3.11286e-07
5.06196e-06
3.48822e-07
5.04203e-06
3.91308e-07
5.02319e-06
4.38698e-07
5.00671e-06
4.90349e-07
5.45767e-07
4.99398e-06
5.55279e-06
2.3624e-08
5.55547e-06
6.44448e-08
5.55655e-06
9.4102e-08
5.55529e-06
1.16356e-07
5.55212e-06
1.36128e-07
5.54705e-06
1.55234e-07
5.53991e-06
1.74152e-07
5.53066e-06
1.93712e-07
5.51937e-06
2.14891e-07
5.50615e-06
2.38446e-07
5.49119e-06
2.64946e-07
5.4748e-06
2.94881e-07
5.45743e-06
3.28652e-07
5.43975e-06
3.66507e-07
5.42259e-06
4.08463e-07
5.40701e-06
4.54283e-07
5.39412e-06
5.03239e-07
5.54792e-07
5.38509e-06
5.95082e-06
2.25783e-08
5.95282e-06
6.24424e-08
5.95363e-06
9.32968e-08
5.95237e-06
1.17611e-07
5.94926e-06
1.39242e-07
5.94436e-06
1.60138e-07
5.93754e-06
1.80971e-07
5.92879e-06
2.02465e-07
5.9182e-06
2.25474e-07
5.90596e-06
2.50686e-07
5.89232e-06
2.7859e-07
5.87764e-06
3.09556e-07
5.86246e-06
3.43834e-07
5.84746e-06
3.81512e-07
5.83347e-06
4.22452e-07
5.82147e-06
4.66285e-07
5.81246e-06
5.12247e-07
5.59806e-07
5.80744e-06
6.37755e-06
2.18388e-08
6.37901e-06
6.09807e-08
6.37959e-06
9.27199e-08
6.37841e-06
1.18788e-07
6.3755e-06
1.42155e-07
6.37093e-06
1.64707e-07
6.36465e-06
1.87253e-07
6.35666e-06
2.10452e-07
6.34711e-06
2.3503e-07
6.33621e-06
2.61582e-07
6.32429e-06
2.90513e-07
6.31176e-06
3.22078e-07
6.2992e-06
3.56395e-07
6.2873e-06
3.93417e-07
6.27686e-06
4.3289e-07
6.26878e-06
4.74368e-07
6.26394e-06
5.17083e-07
5.60545e-07
6.2632e-06
5.74129e-06
2.13794e-08
5.74222e-06
6.00555e-08
5.74259e-06
9.23465e-08
5.74174e-06
1.19644e-07
5.73956e-06
1.44332e-07
5.73612e-06
1.68148e-07
5.73141e-06
1.91957e-07
5.72549e-06
2.1638e-07
5.71847e-06
2.42043e-07
5.7106e-06
2.69454e-07
5.70217e-06
2.9894e-07
5.69358e-06
3.30668e-07
5.68532e-06
3.64659e-07
5.67796e-06
4.00774e-07
5.67216e-06
4.38691e-07
5.6686e-06
4.7793e-07
5.66794e-06
5.17741e-07
5.57695e-07
5.67079e-06
6.99856e-06
2.09783e-08
6.99939e-06
5.92234e-08
6.99977e-06
9.19623e-08
6.99903e-06
1.20383e-07
6.99701e-06
1.4636e-07
6.99374e-06
1.71419e-07
6.98926e-06
1.96433e-07
6.98366e-06
2.2198e-07
6.97712e-06
2.48578e-07
6.96995e-06
2.76632e-07
6.9625e-06
3.06382e-07
6.95527e-06
3.37902e-07
6.94881e-06
3.71122e-07
6.94376e-06
4.05827e-07
6.9408e-06
4.41644e-07
6.94065e-06
4.78082e-07
6.94396e-06
5.14434e-07
5.50337e-07
6.95132e-06
8.53121e-06
2.06111e-08
8.53204e-06
5.84015e-08
8.53259e-06
9.14076e-08
8.53225e-06
1.20725e-07
8.53079e-06
1.4782e-07
8.52824e-06
1.7397e-07
8.52468e-06
1.99993e-07
8.52025e-06
2.26411e-07
8.51519e-06
2.53632e-07
8.50987e-06
2.8195e-07
8.50475e-06
3.11507e-07
8.50036e-06
3.42291e-07
8.49733e-06
3.74155e-07
8.49633e-06
4.06827e-07
8.49806e-06
4.39912e-07
8.50321e-06
4.72934e-07
8.51239e-06
5.05253e-07
5.36593e-07
8.52613e-06
1.03996e-05
2.02084e-08
1.04006e-05
5.73747e-08
1.04017e-05
9.03323e-08
1.04023e-05
1.20152e-07
1.04021e-05
1.47995e-07
1.04012e-05
1.74883e-07
1.03997e-05
2.01521e-07
1.03977e-05
2.28355e-07
1.03957e-05
2.55683e-07
1.03939e-05
2.83687e-07
1.0393e-05
3.12412e-07
1.03936e-05
3.41774e-07
1.03961e-05
3.7157e-07
1.04015e-05
4.01501e-07
1.04102e-05
4.31179e-07
1.0423e-05
4.60175e-07
1.04403e-05
4.87936e-07
5.14295e-07
1.04626e-05
1.26774e-05
1.96285e-08
1.2679e-05
5.57272e-08
1.26813e-05
8.80884e-08
1.26836e-05
1.17776e-07
1.26859e-05
1.4573e-07
1.26881e-05
1.7273e-07
1.26902e-05
1.99331e-07
1.26927e-05
2.25877e-07
1.26958e-05
2.52562e-07
1.27001e-05
2.79465e-07
1.27059e-05
3.0655e-07
1.2714e-05
3.33679e-07
1.2725e-05
3.60622e-07
1.27394e-05
3.87085e-07
1.27578e-05
4.12721e-07
1.27808e-05
4.3717e-07
1.28088e-05
4.5999e-07
4.81117e-07
1.2842e-05
1.54542e-05
1.86279e-08
1.54571e-05
5.27625e-08
1.54616e-05
8.36017e-08
1.54672e-05
1.12182e-07
1.54737e-05
1.39267e-07
1.5481e-05
1.65421e-07
1.54893e-05
1.91029e-07
1.54989e-05
2.16319e-07
1.551e-05
2.41389e-07
1.55233e-05
2.66233e-07
1.55391e-05
2.90758e-07
1.55579e-05
3.14798e-07
1.55804e-05
3.38128e-07
1.5607e-05
3.6049e-07
1.56381e-05
3.816e-07
1.56741e-05
4.01189e-07
1.57152e-05
4.18932e-07
4.34861e-07
1.57614e-05
1.88395e-05
1.6813e-08
1.88448e-05
4.74159e-08
1.88531e-05
7.52523e-08
1.8864e-05
1.01288e-07
1.88772e-05
1.26122e-07
1.88925e-05
1.50115e-07
1.891e-05
1.73479e-07
1.893e-05
1.96318e-07
1.89528e-05
2.18644e-07
1.89786e-05
2.40393e-07
1.90079e-05
2.61439e-07
1.90411e-05
2.81617e-07
1.90785e-05
3.00732e-07
1.91204e-05
3.1858e-07
1.91671e-05
3.34958e-07
1.92186e-05
3.49688e-07
1.9275e-05
3.62559e-07
3.73666e-07
1.93361e-05
2.29667e-05
1.3493e-08
2.2976e-05
3.80596e-08
2.29906e-05
6.06546e-08
2.30097e-05
8.21568e-08
2.30329e-05
1.0296e-07
2.30598e-05
1.23179e-07
2.30905e-05
1.42838e-07
2.31249e-05
1.61925e-07
2.31631e-05
1.80382e-07
2.32054e-05
1.981e-07
2.32519e-05
2.14938e-07
2.33028e-05
2.30746e-07
2.33582e-05
2.45373e-07
2.34181e-05
2.58677e-07
2.34825e-05
2.70527e-07
2.35514e-05
2.80825e-07
2.36245e-05
2.89454e-07
2.96532e-07
2.37016e-05
1.68139e-05
1.02913e-08
1.68228e-05
2.91827e-08
1.68365e-05
4.69545e-08
1.68542e-05
6.44149e-08
1.68755e-05
8.17238e-08
1.68999e-05
9.87453e-08
1.69274e-05
1.15358e-07
1.69578e-05
1.31491e-07
1.69911e-05
1.47047e-07
1.70274e-05
1.61892e-07
1.70664e-05
1.75878e-07
1.71083e-05
1.88862e-07
1.71529e-05
2.00719e-07
1.72003e-05
2.11339e-07
1.72502e-05
2.20629e-07
1.73025e-05
2.28534e-07
1.73569e-05
2.34986e-07
2.40104e-07
1.74134e-05
1.46379e-05
6.96119e-09
1.46472e-05
1.9925e-08
1.46613e-05
3.28607e-08
1.46792e-05
4.64665e-08
1.47004e-05
6.05365e-08
1.47245e-05
7.46265e-08
1.47514e-05
8.8505e-08
1.47808e-05
1.02059e-07
1.48127e-05
1.15148e-07
1.4847e-05
1.27616e-07
1.48835e-05
1.39314e-07
1.49223e-05
1.50111e-07
1.49631e-05
1.59894e-07
1.50059e-05
1.68574e-07
1.50504e-05
1.76081e-07
1.50966e-05
1.82378e-07
1.51441e-05
1.8742e-07
1.913e-07
1.51929e-05
1.27436e-05
3.50315e-09
1.27531e-05
1.03995e-08
1.27673e-05
1.87129e-08
1.27848e-05
2.89395e-08
1.28051e-05
4.01803e-08
1.28281e-05
5.16566e-08
1.28535e-05
6.31504e-08
1.2881e-05
7.45405e-08
1.29105e-05
8.56117e-08
1.2942e-05
9.61691e-08
1.29752e-05
1.06064e-07
1.30102e-05
1.15177e-07
1.30466e-05
1.23404e-07
1.30846e-05
1.30667e-07
1.31237e-05
1.36915e-07
1.3164e-05
1.42129e-07
1.32051e-05
1.46294e-07
1.49507e-07
1.32469e-05
1.10945e-05
-1.01065e-10
1.11044e-05
5.75471e-10
1.11184e-05
4.64099e-09
1.11352e-05
1.21999e-08
1.11542e-05
2.11257e-08
1.11755e-05
3.03405e-08
1.11989e-05
3.9768e-08
1.12242e-05
4.92966e-08
1.12511e-05
5.86826e-08
1.12796e-05
6.76932e-08
1.13095e-05
7.61635e-08
1.13407e-05
8.39774e-08
1.1373e-05
9.10342e-08
1.14064e-05
9.7261e-08
1.14407e-05
1.02615e-07
1.14758e-05
1.07081e-07
1.15114e-05
1.10639e-07
1.13344e-07
1.15476e-05
9.65902e-06
-3.90256e-09
9.6692e-06
-9.60395e-09
9.68302e-06
-9.18445e-09
9.69885e-06
-3.63192e-09
9.71658e-06
3.40326e-09
9.73609e-06
1.08284e-08
9.75715e-06
1.87029e-08
9.77979e-06
2.66541e-08
9.80386e-06
3.46156e-08
9.82921e-06
4.23486e-08
9.8557e-06
4.96674e-08
9.88324e-06
5.64395e-08
9.91171e-06
6.25639e-08
9.94098e-06
6.79894e-08
9.97092e-06
7.26796e-08
1.00014e-05
7.66202e-08
1.00322e-05
7.98221e-08
8.23811e-08
1.00632e-05
8.40967e-06
-8.22177e-09
8.42047e-06
-2.03997e-08
8.43344e-06
-2.21586e-08
8.44803e-06
-1.82156e-08
8.46452e-06
-1.30956e-08
8.48264e-06
-7.28574e-09
8.50175e-06
-4.07203e-10
8.52209e-06
6.31096e-09
8.54357e-06
1.31329e-08
8.56608e-06
1.98456e-08
8.58944e-06
2.63047e-08
8.61359e-06
3.22898e-08
8.63847e-06
3.76829e-08
8.66398e-06
4.24845e-08
8.69e-06
4.66567e-08
8.71641e-06
5.02053e-08
8.74312e-06
5.31167e-08
5.53917e-08
8.77011e-06
7.322e-06
-1.2933e-08
7.33452e-06
-3.29275e-08
7.34638e-06
-3.40147e-08
7.35893e-06
-3.07655e-08
7.37341e-06
-2.7576e-08
7.38945e-06
-2.333e-08
7.40684e-06
-1.77899e-08
7.42508e-06
-1.1931e-08
7.44432e-06
-6.11191e-09
7.46453e-06
-3.61525e-10
7.48541e-06
5.42295e-09
7.50688e-06
1.08174e-08
7.5289e-06
1.56655e-08
7.55136e-06
2.00289e-08
7.57422e-06
2.37906e-08
7.59737e-06
2.70576e-08
7.62065e-06
2.98357e-08
3.21989e-08
7.64385e-06
6.37386e-06
-1.6729e-08
6.38869e-06
-4.77534e-08
6.4013e-06
-4.6622e-08
6.41376e-06
-4.32277e-08
6.42777e-06
-4.1591e-08
6.44285e-06
-3.8406e-08
6.4588e-06
-3.37396e-08
6.47556e-06
-2.86933e-08
6.49307e-06
-2.36249e-08
6.51122e-06
-1.85082e-08
6.53003e-06
-1.33858e-08
6.54938e-06
-8.53552e-09
6.56907e-06
-4.02723e-09
6.58899e-06
1.18022e-10
6.60917e-06
3.61074e-09
6.62949e-06
6.72798e-09
6.64991e-06
9.42481e-09
1.16828e-08
6.67042e-06
5.55094e-06
-2.22002e-08
5.56614e-06
-6.2962e-08
5.58261e-06
-6.30868e-08
5.60008e-06
-6.06997e-08
5.61866e-06
-6.01692e-08
5.63726e-06
-5.70042e-08
5.65553e-06
-5.20145e-08
5.67348e-06
-4.66397e-08
5.69111e-06
-4.12536e-08
5.70845e-06
-3.58553e-08
5.7256e-06
-3.05295e-08
5.74252e-06
-2.5461e-08
5.75924e-06
-2.07475e-08
5.77582e-06
-1.64567e-08
5.79213e-06
-1.26969e-08
5.80825e-06
-9.39487e-09
5.82422e-06
-6.54934e-09
-4.29734e-09
5.8402e-06
4.87926e-06
-7.38511e-08
4.9121e-06
-9.58046e-08
4.93939e-06
-9.03808e-08
4.9603e-06
-8.16016e-08
4.97583e-06
-7.57041e-08
4.98719e-06
-6.83619e-08
4.99532e-06
-6.01437e-08
5.00097e-06
-5.22882e-08
5.0048e-06
-4.50831e-08
5.0074e-06
-3.84638e-08
5.00929e-06
-3.24114e-08
5.01079e-06
-2.69671e-08
5.01219e-06
-2.21437e-08
5.01367e-06
-1.79337e-08
5.0153e-06
-1.43331e-08
5.01722e-06
-1.13116e-08
5.01955e-06
-8.87751e-09
-7.55145e-09
5.0228e-06
4.12883e-06
4.03302e-06
3.94264e-06
3.86104e-06
3.78533e-06
3.71697e-06
3.65683e-06
3.60454e-06
3.55946e-06
3.52099e-06
3.48858e-06
3.46161e-06
3.43947e-06
3.42154e-06
3.4072e-06
3.39589e-06
3.38702e-06
3.37946e-06
-4.62425e-07
4.62425e-07
-4.5454e-07
-7.88491e-09
1.89311e-07
-6.4385e-07
1.2448e-06
-1.05549e-06
2.40253e-06
-1.15774e-06
3.45755e-06
-1.05501e-06
4.31566e-06
-8.58114e-07
4.94259e-06
-6.26927e-07
5.32894e-06
-3.86352e-07
5.47615e-06
-1.47213e-07
5.37019e-06
1.05962e-07
5.00757e-06
3.6262e-07
4.41832e-06
5.89254e-07
3.64942e-06
7.68899e-07
2.77454e-06
8.74879e-07
1.89412e-06
8.80421e-07
1.12078e-06
7.7334e-07
5.60398e-07
5.60381e-07
2.86293e-07
2.74104e-07
2.8494e-07
1.35376e-09
4.83589e-07
-1.9865e-07
8.6773e-07
-3.8414e-07
1.27367e-06
-4.05945e-07
1.58929e-06
-3.15611e-07
1.75184e-06
-1.62558e-07
1.76367e-06
-1.18247e-08
1.63548e-06
1.28185e-07
1.33704e-06
2.98438e-07
8.21979e-07
5.15066e-07
7.49286e-08
7.4705e-07
-8.58056e-07
9.32985e-07
-1.91335e-06
1.05529e-06
-3.03498e-06
1.12163e-06
-4.17392e-06
1.13894e-06
-5.2895e-06
1.11558e-06
-6.3501e-06
1.0606e-06
-7.33299e-06
9.82884e-07
-8.22345e-06
8.90467e-07
-9.01342e-06
7.89969e-07
-9.69991e-06
6.86484e-07
-1.02836e-05
5.83674e-07
-1.07676e-05
4.83972e-07
-1.11564e-05
3.88869e-07
-1.14556e-05
2.99179e-07
-1.16708e-05
2.15242e-07
-1.18083e-05
1.37493e-07
-1.18754e-05
6.70376e-08
-1.18806e-05
5.24739e-09
-1.18363e-05
-4.42741e-08
-1.17502e-05
-8.61781e-08
-1.16273e-05
-1.22837e-07
-1.14714e-05
-1.5596e-07
-1.12849e-05
-1.86447e-07
-1.10701e-05
-2.14847e-07
-1.08285e-05
-2.41575e-07
-1.05615e-05
-2.67006e-07
-1.027e-05
-2.91508e-07
-9.95455e-06
-3.15443e-07
-9.61539e-06
-3.39152e-07
-9.25247e-06
-3.62921e-07
-8.86554e-06
-3.86935e-07
-8.45431e-06
-4.11232e-07
-8.01865e-06
-4.35653e-07
-7.55885e-06
-4.59807e-07
-7.07578e-06
-4.83063e-07
-6.57121e-06
-5.04573e-07
-6.04787e-06
-5.23343e-07
-5.50953e-06
-5.38336e-07
-4.96092e-06
-5.48611e-07
-4.40747e-06
-5.53449e-07
-3.85501e-06
-5.52459e-07
-3.30938e-06
-5.45626e-07
-2.77608e-06
-5.33309e-07
-2.25992e-06
-5.16158e-07
-1.76494e-06
-4.94977e-07
-1.29439e-06
-4.70548e-07
-8.5073e-07
-4.43662e-07
-4.35316e-07
-4.15414e-07
-4.80815e-08
-3.87235e-07
3.12443e-07
-3.60525e-07
6.46321e-07
-3.33878e-07
9.54492e-07
-3.08171e-07
1.23821e-06
-2.83716e-07
1.49884e-06
-2.60629e-07
1.73783e-06
-2.38996e-07
1.95666e-06
-2.18826e-07
2.15674e-06
-2.00084e-07
2.33945e-06
-1.8271e-07
2.50608e-06
-1.66625e-07
2.65781e-06
-1.51732e-07
2.79572e-06
-1.37909e-07
2.92069e-06
-1.24972e-07
3.03338e-06
-1.1269e-07
3.13443e-06
-1.01043e-07
3.22489e-06
-9.04602e-08
3.3043e-06
-7.9415e-08
3.36198e-06
-5.76841e-08
3.37623e-06
-1.42437e-08
3.32036e-06
5.58722e-08
3.19883e-06
1.21523e-07
3.02661e-06
1.72227e-07
2.82596e-06
2.00646e-07
2.62277e-06
2.03189e-07
2.43957e-06
1.83201e-07
2.29089e-06
1.48684e-07
2.18255e-06
1.08341e-07
2.11334e-06
6.92024e-08
2.07776e-06
3.55827e-08
2.06963e-06
8.1276e-09
2.08537e-06
-1.57388e-08
2.12843e-06
-4.30599e-08
2.20953e-06
-8.10956e-08
2.34557e-06
-1.36041e-07
2.54444e-06
-1.98872e-07
2.78093e-06
-2.3649e-07
2.98813e-06
-2.07202e-07
3.09408e-06
-1.05952e-07
3.05341e-06
4.06791e-08
2.7903e-06
2.63101e-07
2.16457e-06
6.25731e-07
1.10801e-06
1.05657e-06
-2.54177e-07
1.36218e-06
-1.68714e-06
1.43296e-06
-3.01026e-06
1.32312e-06
-4.14252e-06
1.13225e-06
-5.06274e-06
9.20223e-07
-5.77836e-06
7.15625e-07
-6.30643e-06
5.28066e-07
-6.6644e-06
3.57975e-07
-6.86838e-06
2.03971e-07
-6.93186e-06
6.34808e-08
-6.88138e-06
-5.04805e-08
-6.72872e-06
-1.52655e-07
-6.47825e-06
-2.50468e-07
-6.13097e-06
-3.47284e-07
-5.68732e-06
-4.43651e-07
-5.14846e-06
-5.38854e-07
-4.51721e-06
-6.31251e-07
-3.79889e-06
-7.1832e-07
-3.00235e-06
-7.96548e-07
-2.14166e-06
-8.60683e-07
-1.23588e-06
-9.05786e-07
-3.05412e-07
-9.30465e-07
6.24801e-07
-9.30213e-07
1.53149e-06
-9.06687e-07
2.39791e-06
-8.66423e-07
3.21116e-06
-8.13247e-07
3.96276e-06
-7.51598e-07
4.64845e-06
-6.85697e-07
5.26706e-06
-6.18609e-07
5.81734e-06
-5.50277e-07
6.29583e-06
-4.7849e-07
6.70474e-06
-4.08911e-07
7.03359e-06
-3.28851e-07
7.1911e-06
-1.57505e-07
7.01783e-06
1.73267e-07
6.45084e-06
5.66992e-07
5.51878e-06
9.32059e-07
4.36383e-06
1.15494e-06
3.21404e-06
1.1498e-06
2.30333e-06
9.10704e-07
1.78182e-06
5.2151e-07
1.60251e-06
1.79309e-07
1.5356e-06
6.69188e-08
1.34745e-06
1.88146e-07
9.25679e-07
4.2177e-07
3.03987e-07
6.21692e-07
-4.0929e-07
7.13277e-07
-1.08887e-06
6.79579e-07
-1.61205e-06
5.23184e-07
-1.91547e-06
3.03413e-07
-1.98607e-06
7.06028e-08
-1.88326e-06
-1.0281e-07
-1.63985e-06
-2.43409e-07
-1.29386e-06
-3.45993e-07
-8.69823e-07
-4.24035e-07
-3.71448e-07
-4.98376e-07
1.95688e-07
-5.67136e-07
7.6231e-07
-5.66621e-07
-4.28877e-07
1.19119e-06
2.68394e-07
1.94031e-07
1.18439e-06
-9.23885e-07
2.34359e-06
-1.80305e-06
3.38203e-06
-2.09393e-06
4.20113e-06
-1.97684e-06
4.81538e-06
-1.66926e-06
5.25846e-06
-1.30119e-06
5.56238e-06
-9.30848e-07
5.75154e-06
-5.75517e-07
5.83956e-06
-2.35229e-07
5.84418e-06
1.01339e-07
5.75963e-06
4.47172e-07
5.54976e-06
7.99124e-07
5.18323e-06
1.13543e-06
4.65292e-06
1.40519e-06
3.99427e-06
1.53907e-06
3.29151e-06
1.4761e-06
2.65139e-06
1.2005e-06
2.12664e-06
7.98859e-07
1.76216e-06
3.65832e-07
1.6926e-06
-1.29089e-07
1.7396e-06
-4.31146e-07
1.583e-06
-2.49343e-07
1.17639e-06
9.10054e-08
5.13142e-07
5.00686e-07
-4.35535e-07
9.36853e-07
-1.61837e-06
1.31102e-06
-2.93973e-06
1.6198e-06
-4.29306e-06
1.8684e-06
-5.59382e-06
2.04781e-06
-6.80396e-06
2.14312e-06
-7.90173e-06
2.15306e-06
-8.86857e-06
2.08847e-06
-9.69474e-06
1.9651e-06
-1.03797e-05
1.80055e-06
-1.09308e-05
1.61168e-06
-1.13609e-05
1.41303e-06
-1.16863e-05
1.2158e-06
-1.1924e-05
1.02768e-06
-1.20906e-05
8.53157e-07
-1.22012e-05
6.94224e-07
-1.22682e-05
5.50982e-07
-1.23017e-05
4.2241e-07
-1.23095e-05
3.06933e-07
-1.22971e-05
2.02879e-07
-1.22683e-05
1.0863e-07
-1.22245e-05
2.33013e-08
-1.21621e-05
-5.72106e-08
-1.2074e-05
-1.32335e-07
-1.19565e-05
-2.03681e-07
-1.18089e-05
-2.70453e-07
-1.16321e-05
-3.32746e-07
-1.14276e-05
-3.90947e-07
-1.11969e-05
-4.45557e-07
-1.09413e-05
-4.97149e-07
-1.0662e-05
-5.46361e-07
-1.03596e-05
-5.93887e-07
-1.00346e-05
-6.40451e-07
-9.68697e-06
-6.86759e-07
-9.31647e-06
-7.33421e-07
-8.92255e-06
-7.80858e-07
-8.50459e-06
-8.2919e-07
-8.06212e-06
-8.78126e-07
-7.59505e-06
-9.26877e-07
-7.10398e-06
-9.74128e-07
-6.59047e-06
-1.01808e-06
-6.05721e-06
-1.05661e-06
-5.50808e-06
-1.08747e-06
-4.94805e-06
-1.10863e-06
-4.38296e-06
-1.11855e-06
-3.81902e-06
-1.11639e-06
-3.26247e-06
-1.10218e-06
-2.71907e-06
-1.07671e-06
-2.1938e-06
-1.04143e-06
-1.69064e-06
-9.98138e-07
-1.2124e-06
-9.48789e-07
-7.60813e-07
-8.95252e-07
-3.36718e-07
-8.39509e-07
5.97506e-08
-7.83703e-07
4.27731e-07
-7.28505e-07
7.68734e-07
-6.74881e-07
1.0842e-06
-6.23632e-07
1.37555e-06
-5.75073e-07
1.6443e-06
-5.29381e-07
1.89195e-06
-4.86641e-07
2.11995e-06
-4.4683e-07
2.32972e-06
-4.0985e-07
2.52257e-06
-3.75561e-07
2.69974e-06
-3.43792e-07
2.86235e-06
-3.14349e-07
3.01146e-06
-2.87019e-07
3.14805e-06
-2.61557e-07
3.27303e-06
-2.37673e-07
3.38701e-06
-2.15017e-07
3.48963e-06
-1.93089e-07
3.58123e-06
-1.71006e-07
3.67095e-06
-1.47411e-07
3.77584e-06
-1.19128e-07
3.90928e-06
-7.75671e-08
4.05251e-06
-2.17125e-08
4.18778e-06
3.69563e-08
4.29929e-06
8.91371e-08
4.3808e-06
1.2168e-07
4.431e-06
1.32996e-07
4.44948e-06
1.30206e-07
4.43449e-06
1.23332e-07
4.38254e-06
1.21151e-07
4.29177e-06
1.26351e-07
4.16623e-06
1.33674e-07
4.01845e-06
1.32033e-07
3.86794e-06
1.07458e-07
3.74084e-06
4.60046e-08
3.67164e-06
-6.68466e-08
3.68762e-06
-2.14846e-07
3.78278e-06
-3.31658e-07
3.88604e-06
-3.10455e-07
3.83665e-06
-5.65691e-08
3.37682e-06
5.0051e-07
2.26872e-06
1.3712e-06
5.90026e-07
2.30443e-06
-1.22346e-06
2.87006e-06
-2.79666e-06
2.93538e-06
-4.02266e-06
2.65896e-06
-4.92512e-06
2.22558e-06
-5.56524e-06
1.77238e-06
-6.00987e-06
1.36485e-06
-6.31388e-06
1.01964e-06
-6.51568e-06
7.29862e-07
-6.63946e-06
4.81758e-07
-6.69753e-06
2.62035e-07
-6.69367e-06
5.96256e-08
-6.61098e-06
-1.33167e-07
-6.43862e-06
-3.2502e-07
-6.17361e-06
-5.15475e-07
-5.81511e-06
-7.05784e-07
-5.36276e-06
-8.96005e-07
-4.81704e-06
-1.08457e-06
-4.18016e-06
-1.26813e-06
-3.45716e-06
-1.44132e-06
-2.65705e-06
-1.59666e-06
-1.79292e-06
-1.72481e-06
-8.81787e-07
-1.81692e-06
5.38367e-08
-1.86609e-06
9.89421e-07
-1.8658e-06
1.90403e-06
-1.8213e-06
2.77969e-06
-1.74209e-06
3.60361e-06
-1.63717e-06
4.36804e-06
-1.51602e-06
5.06919e-06
-1.38685e-06
5.70579e-06
-1.25521e-06
6.2791e-06
-1.12359e-06
6.79159e-06
-9.90981e-07
7.23385e-06
-8.51174e-07
7.60057e-06
-6.95572e-07
7.9591e-06
-5.16027e-07
8.38e-06
-2.47632e-07
8.76874e-06
1.78243e-07
8.93164e-06
7.69165e-07
8.71895e-06
1.36764e-06
8.10564e-06
1.7631e-06
7.15735e-06
1.859e-06
5.96235e-06
1.71651e-06
4.68452e-06
1.45713e-06
3.5428e-06
1.20864e-06
2.61521e-06
1.11573e-06
1.78978e-06
1.2472e-06
9.51567e-07
1.45991e-06
1.35056e-07
1.52979e-06
-5.46003e-07
1.36064e-06
-1.03314e-06
1.01032e-06
-1.31768e-06
5.8795e-07
-1.39903e-06
1.51951e-07
-1.31424e-06
-1.87602e-07
-1.09762e-06
-4.60028e-07
-7.87707e-07
-6.55902e-07
-4.13216e-07
-7.98526e-07
1.85886e-08
-9.3018e-07
5.19649e-07
-1.0682e-06
1.07929e-06
-1.12626e-06
-9.38258e-07
1.58867e-06
8.93607e-07
-6.99576e-07
2.2338e-06
-2.26408e-06
3.19299e-06
-2.76224e-06
3.70686e-06
-2.60779e-06
3.94449e-06
-2.21447e-06
4.05203e-06
-1.77679e-06
4.10956e-06
-1.35872e-06
4.14831e-06
-9.69605e-07
4.17528e-06
-6.02488e-07
4.18734e-06
-2.47285e-07
4.18262e-06
1.0606e-07
4.16184e-06
4.67955e-07
4.11223e-06
8.48727e-07
4.00466e-06
1.24301e-06
3.80215e-06
1.60769e-06
3.48104e-06
1.86018e-06
3.04646e-06
1.91069e-06
2.53807e-06
1.70888e-06
2.08133e-06
1.25559e-06
1.81889e-06
6.28273e-07
1.42274e-06
2.6706e-07
5.97988e-07
3.9361e-07
-5.65334e-07
9.1398e-07
-1.93878e-06
1.46445e-06
-3.36285e-06
1.92476e-06
-4.737e-06
2.311e-06
-6.02735e-06
2.60137e-06
-7.19417e-06
2.78661e-06
-8.196e-06
2.87023e-06
-9.00975e-06
2.86156e-06
-9.63996e-06
2.77333e-06
-1.01088e-05
2.62186e-06
-1.04465e-05
2.4262e-06
-1.06866e-05
2.20522e-06
-1.08612e-05
1.9751e-06
-1.09973e-05
1.74784e-06
-1.11151e-05
1.53086e-06
-1.1227e-05
1.32767e-06
-1.13383e-05
1.13894e-06
-1.14488e-05
9.63704e-07
-1.15549e-05
8.00315e-07
-1.1651e-05
6.47035e-07
-1.17309e-05
5.02381e-07
-1.17893e-05
3.65276e-07
-1.18215e-05
2.35042e-07
-1.1824e-05
1.1122e-07
-1.17946e-05
-6.18384e-09
-1.1734e-05
-1.17784e-07
-1.16429e-05
-2.23374e-07
-1.15237e-05
-3.22948e-07
-1.13775e-05
-4.16589e-07
-1.12058e-05
-5.04484e-07
-1.10098e-05
-5.86997e-07
-1.07906e-05
-6.64676e-07
-1.05495e-05
-7.38252e-07
-1.02873e-05
-8.08626e-07
-1.00043e-05
-8.76848e-07
-9.7007e-06
-9.44061e-07
-9.37603e-06
-1.01143e-06
-9.02944e-06
-1.08001e-06
-8.65969e-06
-1.1506e-06
-8.26536e-06
-1.22352e-06
-7.84505e-06
-1.29844e-06
-7.39776e-06
-1.37417e-06
-6.92328e-06
-1.4486e-06
-6.42259e-06
-1.51877e-06
-5.89815e-06
-1.58105e-06
-5.35403e-06
-1.6316e-06
-4.79579e-06
-1.66687e-06
-4.23014e-06
-1.68419e-06
-3.6644e-06
-1.68213e-06
-3.10582e-06
-1.66076e-06
-2.56103e-06
-1.6215e-06
-2.03559e-06
-1.56686e-06
-1.53375e-06
-1.49998e-06
-1.05833e-06
-1.4242e-06
-6.10785e-07
-1.3428e-06
-1.91723e-07
-1.25857e-06
1.98561e-07
-1.17399e-06
5.60569e-07
-1.09051e-06
8.957e-07
-1.01001e-06
1.20541e-06
-9.33342e-07
1.49126e-06
-8.60922e-07
1.75485e-06
-7.92971e-07
1.99775e-06
-7.29541e-07
2.22146e-06
-6.70539e-07
2.42739e-06
-6.15779e-07
2.61684e-06
-5.65016e-07
2.79102e-06
-5.17972e-07
2.95102e-06
-4.74348e-07
3.09783e-06
-4.3383e-07
3.23237e-06
-3.96095e-07
3.3555e-06
-3.608e-07
3.46801e-06
-3.27533e-07
3.57055e-06
-2.9563e-07
3.66363e-06
-2.64085e-07
3.74828e-06
-2.32059e-07
3.8277e-06
-1.98553e-07
3.91143e-06
-1.61291e-07
4.00982e-06
-1.20102e-07
4.12544e-06
-7.8661e-08
4.25561e-06
-4.10365e-08
4.39047e-06
-1.31764e-08
4.52137e-06
2.09502e-09
4.64089e-06
1.06818e-08
4.74423e-06
1.9995e-08
4.82446e-06
4.09213e-08
4.87125e-06
7.95568e-08
4.87246e-06
1.32471e-07
4.81925e-06
1.85239e-07
4.71237e-06
2.14335e-07
4.56901e-06
1.89366e-07
4.41924e-06
8.29219e-08
4.30328e-06
-9.88791e-08
4.20448e-06
-2.32864e-07
4.00035e-06
-1.06327e-07
3.44814e-06
4.95641e-07
2.31374e-06
1.63491e-06
6.50443e-07
3.0345e-06
-1.04657e-06
4.00144e-06
-2.38826e-06
4.21174e-06
-3.33484e-06
3.88197e-06
-3.99287e-06
3.31699e-06
-4.48705e-06
2.71975e-06
-4.89675e-06
2.18208e-06
-5.25342e-06
1.72152e-06
-5.55921e-06
1.32542e-06
-5.80487e-06
9.75527e-07
-5.97971e-06
6.56595e-07
-6.07524e-06
3.57565e-07
-6.08657e-06
7.09543e-08
-6.01076e-06
-2.08977e-07
-5.84806e-06
-4.87716e-07
-5.59685e-06
-7.66687e-07
-5.25557e-06
-1.04706e-06
-4.82303e-06
-1.32855e-06
-4.29887e-06
-1.60873e-06
-3.68451e-06
-1.88248e-06
-2.98439e-06
-2.14143e-06
-2.20663e-06
-2.37442e-06
-1.36387e-06
-2.56757e-06
-4.73433e-07
-2.70736e-06
4.40763e-07
-2.78028e-06
1.355e-06
-2.78004e-06
2.24813e-06
-2.71442e-06
3.1018e-06
-2.59576e-06
3.90334e-06
-2.4387e-06
4.64547e-06
-2.25815e-06
5.32529e-06
-2.06667e-06
5.94284e-06
-1.87276e-06
6.49961e-06
-1.68036e-06
6.99765e-06
-1.48902e-06
7.43915e-06
-1.29268e-06
7.82253e-06
-1.07895e-06
8.13873e-06
-8.32227e-07
8.42004e-06
-5.28943e-07
8.74626e-06
-1.47976e-07
9.16809e-06
3.47331e-07
9.58713e-06
9.48603e-07
9.79678e-06
1.55345e-06
9.60915e-06
2.04663e-06
8.928e-06
2.39765e-06
7.77267e-06
2.61246e-06
6.30773e-06
2.67359e-06
4.81107e-06
2.61239e-06
3.51143e-06
2.54684e-06
2.45453e-06
2.51681e-06
1.57728e-06
2.40704e-06
8.38145e-07
2.09977e-06
2.54525e-07
1.59394e-06
-1.27496e-07
9.69972e-07
-3.17201e-07
3.41656e-07
-3.24816e-07
-1.79988e-07
-1.89113e-07
-5.95731e-07
3.39145e-08
-8.7893e-07
3.05832e-07
-1.07044e-06
6.03983e-07
-1.22833e-06
9.32676e-07
-1.39689e-06
1.31837e-06
-1.51196e-06
-1.32931e-06
1.70942e-06
1.24145e-06
-1.94102e-06
2.20636e-06
-3.22899e-06
2.53948e-06
-3.09536e-06
2.56754e-06
-2.63585e-06
2.52605e-06
-2.17298e-06
2.49858e-06
-1.74933e-06
2.49252e-06
-1.35266e-06
2.49118e-06
-9.68268e-07
2.48023e-06
-5.9154e-07
2.46015e-06
-2.27202e-07
2.42718e-06
1.39028e-07
2.37161e-06
5.23525e-07
2.28321e-06
9.37129e-07
2.14566e-06
1.38056e-06
1.94361e-06
1.80974e-06
1.67795e-06
2.12585e-06
1.38744e-06
2.2012e-06
1.13306e-06
1.96326e-06
8.67218e-07
1.52143e-06
2.63899e-07
1.23159e-06
-9.15049e-07
1.44601e-06
-2.46736e-06
1.94592e-06
-3.99318e-06
2.4398e-06
-5.37996e-06
2.85122e-06
-6.60331e-06
3.14811e-06
-7.62429e-06
3.33198e-06
-8.42974e-06
3.40682e-06
-9.0281e-06
3.38497e-06
-9.44251e-06
3.28464e-06
-9.70718e-06
3.12623e-06
-9.86339e-06
2.92955e-06
-9.95365e-06
2.71212e-06
-1.00152e-05
2.48779e-06
-1.00758e-05
2.26577e-06
-1.01515e-05
2.05082e-06
-1.0248e-05
1.84437e-06
-1.03631e-05
1.64591e-06
-1.04896e-05
1.45415e-06
-1.06185e-05
1.26785e-06
-1.07409e-05
1.08614e-06
-1.08493e-05
9.0864e-07
-1.09376e-05
7.35354e-07
-1.10018e-05
5.66581e-07
-1.10393e-05
4.02791e-07
-1.10488e-05
2.44535e-07
-1.103e-05
9.24298e-08
-1.09831e-05
-5.30277e-08
-1.09095e-05
-1.91444e-07
-1.08103e-05
-3.22531e-07
-1.06872e-05
-4.4604e-07
-1.05419e-05
-5.61889e-07
-1.03762e-05
-6.7023e-07
-1.01917e-05
-7.71492e-07
-9.98996e-06
-8.66411e-07
-9.77218e-06
-9.56029e-07
-9.53913e-06
-1.04168e-06
-9.29102e-06
-1.12496e-06
-9.02743e-06
-1.20765e-06
-8.74724e-06
-1.29162e-06
-8.4486e-06
-1.37865e-06
-8.12899e-06
-1.47021e-06
-7.7854e-06
-1.56712e-06
-7.41462e-06
-1.66922e-06
-7.01376e-06
-1.77503e-06
-6.58081e-06
-1.88155e-06
-6.11529e-06
-1.98429e-06
-5.6188e-06
-2.07755e-06
-5.09528e-06
-2.15511e-06
-4.55098e-06
-2.21117e-06
-3.99394e-06
-2.24123e-06
-3.43316e-06
-2.24291e-06
-2.87764e-06
-2.21627e-06
-2.33553e-06
-2.16362e-06
-1.81345e-06
-2.08894e-06
-1.31626e-06
-1.99717e-06
-8.47015e-07
-1.89345e-06
-4.07239e-07
-1.78258e-06
2.6469e-09
-1.66846e-06
3.82933e-07
-1.55427e-06
7.34938e-07
-1.44252e-06
1.06013e-06
-1.33521e-06
1.36015e-06
-1.23336e-06
1.63672e-06
-1.13749e-06
1.89157e-06
-1.04783e-06
2.12635e-06
-9.64324e-07
2.3426e-06
-8.86785e-07
2.54172e-06
-8.14902e-07
2.72501e-06
-7.48305e-07
2.89363e-06
-6.86594e-07
3.04864e-06
-6.29358e-07
3.191e-06
-5.76182e-07
3.32155e-06
-5.26653e-07
3.4411e-06
-4.80348e-07
3.55038e-06
-4.36813e-07
3.65026e-06
-3.95512e-07
3.74201e-06
-3.55832e-07
3.8272e-06
-3.17243e-07
3.90777e-06
-2.79126e-07
3.98707e-06
-2.40597e-07
4.06895e-06
-2.01974e-07
4.15592e-06
-1.65634e-07
4.24947e-06
-1.34585e-07
4.34789e-06
-1.11602e-07
4.44745e-06
-9.7466e-08
4.54693e-06
-8.87979e-08
4.64596e-06
-7.90289e-08
4.74448e-06
-5.76011e-08
4.83706e-06
-1.3026e-08
4.90817e-06
6.136e-08
4.93426e-06
1.59149e-07
4.89546e-06
2.53135e-07
4.79128e-06
2.93555e-07
4.64394e-06
2.30255e-07
4.46028e-06
8.47831e-08
4.18224e-06
4.51806e-08
3.64267e-06
4.33241e-07
2.65019e-06
1.48812e-06
1.20134e-06
3.08377e-06
-3.425e-07
4.57833e-06
-1.52796e-06
5.1869e-06
-2.31521e-06
4.99899e-06
-2.85646e-06
4.42321e-06
-3.29911e-06
3.75964e-06
-3.71823e-06
3.13888e-06
-4.12345e-06
2.5873e-06
-4.49569e-06
2.09376e-06
-4.81336e-06
1.64309e-06
-5.06191e-06
1.22408e-06
-5.23391e-06
8.28598e-07
-5.32639e-06
4.50043e-07
-5.33837e-06