/*--------------------------------*- C++ -*----------------------------------*\
  =========                 |
  \\      /  F ield         | OpenFOAM: The Open Source CFD Toolbox
   \\    /   O peration     | Website:  https://openfoam.org
    \\  /    A nd           | Version:  9
     \\/     M anipulation  |
\*---------------------------------------------------------------------------*/
FoamFile
{
    format      ascii;
    class       volScalarField;
    location    "0.05";
    object      pPrime2Mean;
}
// * * * * * * * * * * * * * * * * * * * * * * * * * * * * * * * * * * * * * //

dimensions      [0 4 -4 0 0 0 0];

internalField   nonuniform List<scalar> 
12225
(
298411
295587
292331
288804
285120
281365
277592
273840
270127
266465
262857
259297
255775
252268
248744
245144
241351
237085
298438
295615
292354
288822
285135
281377
277604
273850
270137
266476
262869
259311
255791
252290
248775
245195
241453
237380
298520
295678
292404
288863
285169
281405
277628
273873
270159
266499
262894
259341
255828
252338
248844
245302
241652
237837
298635
295782
292487
288930
285224
281452
277669
273911
270197
266538
262937
259390
255889
252418
248955
245471
241939
238374
298809
295937
292611
289029
285305
281521
277730
273967
270251
266595
262999
259463
255978
252532
249111
245700
242297
238951
299101
296154
292782
289166
285417
281615
277813
274044
270327
266673
263085
259562
256097
252684
249315
245985
242711
239548
299477
296443
293008
289347
285565
281741
277923
274146
270426
266775
263197
259690
256251
252877
249565
246321
243168
240158
299967
296815
293299
289579
285755
281901
278065
274276
270553
266906
263338
259850
256441
253110
249860
246701
243659
240776
300615
297285
293665
289870
285993
282101
278241
274438
270711
267067
263511
260045
256669
253385
250198
247122
244178
241401
301333
297856
294113
290228
286284
282347
278456
274636
270902
267262
263720
260277
256936
253700
250576
247576
244720
242031
302208
298550
294658
290660
286635
282642
278715
274874
271132
267495
263966
260548
257243
254054
250990
248061
245281
242667
303132
299315
295256
291132
287017
282963
278995
275130
271378
267743
264227
260831
257559
254413
251401
248530
245811
243254
304317
300199
295934
291665
287449
283324
279310
275419
271655
268020
264516
261142
257902
254796
251831
249012
246347
243839
305904
301376
296828
292363
288012
283795
279721
275794
272013
268377
264884
261535
258328
255265
252349
249583
246969
244510
308066
302913
297984
293261
288734
284398
280247
276274
272470
268830
265349
262023
258851
255831
252963
250247
247684
245271
310745
304889
299455
294394
289640
285154
280907
276875
273042
269394
265922
262619
259480
256501
253679
251010
248492
246120
314012
307236
301182
295727
290713
286056
281699
277600
273732
270073
266608
263325
260217
257275
254494
251867
249389
247053
317793
309754
303014
297145
291867
287043
282580
278419
274518
270849
267391
264127
261046
258137
255390
252799
250355
248049
320544
311632
304427
298296
292865
287946
283428
279238
275327
271663
268219
264979
261925
259046
256330
253769
251353
249073
319006
311165
304421
298514
293209
288369
283904
279753
275876
272242
268827
265613
262586
259731
257040
254500
252103
249840
317015
310031
303850
298282
293187
288480
284103
280016
276185
272586
269201
266012
263006
260171
257496
254971
252587
250335
314934
308799
303140
297904
293021
288455
284174
280153
276371
272809
269452
266285
263298
260479
257817
255303
252928
250684
313049
307654
302448
297503
292812
288374
284181
280221
276482
272951
269618
266471
263499
260692
258041
255535
253168
250930
311734
306764
301879
297157
292619
288285
284162
280251
276547
273042
269729
266597
263637
260839
258195
255696
253334
251100
310726
306068
301436
296886
292462
288205
284136
280263
276585
273101
269802
266681
263729
260939
258301
255806
253448
251217
309891
305546
301110
296685
292344
288143
284113
280266
276608
273137
269849
266736
263791
261005
258371
255880
253523
251294
309246
305175
300884
296547
292263
288100
284095
280267
276622
273160
269878
266771
263830
261047
258416
255927
253572
251344
308760
304928
300739
296459
292211
288073
284084
280267
276630
273174
269896
266792
263853
261073
258443
255955
253601
251374
308503
304789
300659
296411
292183
288057
284078
280266
276633
273181
269906
266803
263866
261087
258458
255970
253617
251391
308375
304731
300626
296391
292171
288051
284075
280266
276635
273184
269909
266808
263871
261092
258464
255977
253624
251397
200792
200772
200734
200681
200615
200538
200449
200345
200222
200077
199909
199717
199501
199264
199005
198725
198427
198110
197775
197422
197052
196665
196261
195841
195406
194954
194487
194005
193505
192989
192457
191907
191340
190754
190150
189533
188908
188277
187639
186986
186319
185636
184937
184222
183483
182720
181936
181131
180316
179492
178643
177769
176878
175960
175018
174065
173127
172169
171161
170114
169051
167984
166923
165872
164831
163800
162777
161760
160747
159735
158723
157707
156687
155662
154632
153596
152554
151507
150454
149395
148331
147261
146184
145100
144007
142903
141787
140657
139510
138346
137163
135960
134739
133501
132247
130980
129704
128420
127129
125835
124538
123239
121939
120639
119340
118043
116746
115452
114159
112868
111578
110289
109001
107714
106427
105140
103853
102565
101276
99986.7
98696
97404.2
96111.4
94817.3
93522.2
92226
90928.7
89630.5
88331.4
87031.4
85730.8
84429.6
83127.9
81825.9
80523.7
79221.6
77919.7
76618.2
75317.4
74017.4
72718.5
71421
70124.9
68830.5
67538
66247.7
64959.8
63674.5
62392
61112.7
59836.7
58564.5
57296.1
56031.9
54772.1
53517
52266.7
51021.6
49781.9
48547.9
47320.1
46098.6
44884
43676.6
42476.5
41284.3
40100.1
38924.3
37757.4
36599.6
35451.4
34313.6
33186.5
32071.1
30968
29878.4
28803.6
27745.9
26708.8
25701.7
200848
200828
200793
200739
200673
200597
200507
200401
200275
200127
199956
199762
199546
199309
199051
198772
198475
198159
197824
197471
197099
196710
196304
195880
195441
194986
194515
194028
193524
193006
192473
191922
191356
190772
190173
189557
188928
188293
187649
186991
186316
185624
184920
184203
183463
182696
181903
181073
180242
179410
178555
177680
176791
175887
174965
174011
173045
172067
171054
170018
168969
167917
166870
165829
164797
163773
162755
161742
160732
159722
158711
157697
156679
155656
154627
153592
152551
151504
150452
149394
148330
147260
146184
145100
144007
142904
141789
140660
139514
138351
137168
135966
134745
133506
132251
130985
129708
128423
127133
125838
124541
123241
121942
120642
119343
118045
116749
115454
114161
112870
111580
110291
109003
107716
106429
105141
103854
102566
101277
99987.5
98696.8
97405.1
96112.1
94818.1
93522.9
92226.7
90929.4
89631.2
88332
87032.1
85731.4
84430.2
83128.5
81826.4
80524.2
79222.1
77920.1
76618.6
75317.7
74017.7
72718.8
71421.2
70125.1
68830.7
67538.2
66247.9
64960
63674.7
62392.2
61112.9
59836.9
58564.6
57296.2
56032
54772.2
53517
52266.7
51021.5
49781.8
48547.9
47320
46098.6
44884
43676.5
42476.5
41284.2
40100
38924.3
37757.2
36599.4
35451.3
34313.3
33186.3
32070.7
30967.6
29877.8
28802.6
27744.4
26705.8
25693.5
201000
200982
200949
200898
200830
200748
200651
200537
200403
200248
200072
199875
199658
199419
199160
198882
198583
198265
197928
197572
197198
196806
196396
195968
195523
195061
194584
194091
193582
193059
192520
191966
191398
190814
190216
189603
188978
188343
187695
187033
186355
185665
184963
184239
183489
182706
181896
181060
180210
179353
178485
177605
176717
175815
174885
173927
172941
171936
170918
169890
168858
167824
166793
165766
164745
163729
162718
161710
160704
159698
158691
157680
156665
155644
154617
153584
152545
151499
150448
149391
148328
147258
146182
145099
144007
142906
141792
140664
139521
138359
137178
135976
134755
133515
132260
130992
129714
128429
127138
125843
124546
123247
121947
120647
119348
118050
116753
115458
114165
112873
111583
110294
109006
107718
106431
105144
103856
102568
101279
99989.4
98698.6
97406.8
96113.8
94819.7
93524.4
92228.1
90930.8
89632.5
88333.3
87033.3
85732.6
84431.3
83129.6
81827.5
80525.2
79223
77920.9
76619.3
75318.4
74018.3
72719.4
71421.7
70125.6
68831.1
67538.6
66248.2
64960.3
63674.9
62392.4
61113
59837
58564.7
57296.2
56032
54772.1
53516.8
52266.5
51021.3
49781.7
48547.8
47319.9
46098.6
44884
43676.5
42476.4
41284
40099.8
38924
37756.9
36599
35450.8
34312.9
33185.7
32070.1
30966.7
29876.6
28800.9
27741.6
26700.9
25682.7
201225
201209
201176
201126
201059
200974
200872
200751
200610
200449
200267
200065
199843
199601
199338
199056
198753
198430
198089
197729
197350
196953
196538
196104
195654
195187
194703
194205
193692
193165
192625
192071
191504
190923
190329
189724
189107
188476
187830
187170
186495
185806
185104
184380
183620
182819
181982
181120
180242
179358
178469
177577
176678
175762
174815
173839
172837
171822
170801
169779
168756
167734
166715
165699
164686
163678
162672
161670
160668
159667
158664
157657
156646
155629
154605
153575
152537
151493
150443
149387
148325
147256
146181
145098
144008
142908
141796
140671
139530
138371
137191
135991
134769
133529
132272
131003
129724
128438
127146
125851
124554
123255
121955
120655
119355
118057
116760
115465
114171
112879
111588
110299
109010
107722
106435
105147
103859
102571
101282
99992.2
98701.3
97409.3
96116.2
94822
93526.7
92230.3
90932.9
89634.5
88335.3
87035.2
85734.5
84433.1
83131.2
81829
80526.6
79224.3
77922.1
76620.4
75319.4
74019.2
72720.2
71422.4
70126.2
68831.6
67539.1
66248.6
64960.6
63675.2
62392.7
61113.3
59837.2
58564.8
57296.3
56032
54772.1
53516.8
52266.5
51021.3
49781.6
48547.7
47319.9
46098.5
44883.9
43676.4
42476.2
41283.8
40099.5
38923.6
37756.5
36598.6
35450.3
34312.2
33184.9
32069
30965.3
29874.6
28798.2
27737.5
26694
25669.9
201520
201505
201475
201425
201357
201271
201165
201038
200892
200725
200537
200329
200100
199849
199578
199286
198975
198644
198295
197927
197541
197138
196717
196278
195821
195349
194860
194358
193843
193316
192779
192231
191672
191102
190522
189931
189326
188705
188067
187414
186751
186073
185374
184645
183876
183058
182193
181294
180373
179443
178515
177589
176663
175721
174752
173761
172751
171731
170709
169688
168669
167654
166641
165632
164625
163622
162622
161624
160628
159631
158632
157630
156622
155609
154589
153561
152526
151485
150436
149381
148321
147253
146179
145098
144010
142911
141802
140680
139543
138387
137211
136012
134791
133549
132291
131019
129738
128450
127158
125862
124564
123265
121965
120665
119365
118067
116769
115473
114179
112886
111595
110305
109016
107728
106440
105152
103864
102575
101286
99996.2
98705.1
97412.9
96119.7
94825.3
93529.8
92233.3
90935.7
89637.3
88337.9
87037.7
85736.8
84435.3
83133.4
81831.1
80528.5
79226
77923.7
76621.9
75320.7
74020.4
72721.2
71423.4
70127.1
68832.4
67539.8
66249.2
64961.1
63675.6
62393
61113.5
59837.4
58565
57296.5
56032.1
54772.1
53516.8
52266.4
51021.2
49781.5
48547.6
47319.8
46098.4
44883.8
43676.2
42476
41283.6
40099.2
38923.2
37756
36597.9
35449.5
34311.3
33183.8
32067.6
30963.4
29872.1
28794.6
27732.1
26685.7
25656.1
201900
201883
201850
201799
201728
201637
201526
201394
201241
201068
200872
200654
200415
200153
199870
199567
199245
198903
198544
198167
197772
197360
196930
196484
196021
195543
195051
194546
194030
193504
192970
192429
191881
191325
190760
190182
189588
188976
188348
187705
187050
186379
185685
184956
184180
183347
182458
181523
180556
179577
178599
177626
176657
175683
174694
173691
172675
171652
170628
169607
168590
167577
166568
165563
164562
163564
162568
161574
160582
159590
158596
157598
156596
155586
154570
153545
152513
151474
150428
149376
148318
147253
146182
145103
144016
142920
141813
140695
139562
138411
137239
136043
134822
133579
132318
131042
129758
128468
127174
125877
124579
123279
121979
120678
119378
118078
116780
115484
114189
112896
111604
110313
109023
107735
106446
105158
103870
102581
101291
100001
98709.7
97417.4
96123.9
94829.3
93533.6
92236.9
90939.2
89640.6
88341
87040.7
85739.7
84438
83135.9
81833.5
80530.8
79228.2
77925.7
76623.7
75322.4
74021.9
72722.6
71424.6
70128.1
68833.4
67540.6
66249.9
64961.7
63676.1
62393.4
61113.9
59837.7
58565.2
57296.6
56032.1
54772.1
53516.7
52266.3
51021.1
49781.4
48547.5
47319.7
46098.3
44883.6
43676
42475.8
41283.3
40098.8
38922.7
37755.4
36597.2
35448.7
34310.2
33182.4
32065.8
30961.1
29869
28790.3
27725.9
26676.5
25642
202355
202337
202299
202242
202167
202072
201954
201814
201653
201469
201262
201033
200780
200504
200207
199890
199554
199200
198829
198441
198036
197614
197176
196722
196252
195769
195273
194766
194250
193725
193193
192656
192115
191569
191015
190446
189860
189257
188636
188001
187352
186686
185993
185262
184479
183634
182725
181760
180756
179731
178702
177677
176661
175652
174642
173625
172602
171576
170550
169528
168511
167500
166493
165492
164496
163502
162512
161523
160536
159549
158560
157567
156568
155563
154550
153528
152498
151462
150420
149373
148319
147259
146192
145116
144030
142936
141832
140715
139586
138440
137273
136082
134863
133618
132353
131073
129785
128491
127195
125897
124597
123297
121995
120694
119393
118093
116794
115497
114201
112907
111614
110323
109032
107743
106454
105165
103876
102587
101297
100007
98715.2
97422.6
96128.9
94834.1
93538.1
92241.2
90943.2
89644.4
88344.8
87044.3
85743.1
84441.3
83139
81836.3
80533.5
79230.7
77928
76625.9
75324.4
74023.8
72724.3
71426.1
70129.4
68834.5
67541.6
66250.8
64962.4
63676.7
62393.9
61114.2
59838
58565.4
57296.7
56032.1
54772.1
53516.7
52266.2
51021
49781.2
48547.3
47319.5
46098.1
44883.4
43675.8
42475.5
41282.9
40098.3
38922.1
37754.7
36596.4
35447.6
34308.9
33180.8
32063.7
30958.4
29865.4
28785.4
27719.1
26666.7
25628
202882
202861
202820
202759
202676
202570
202442
202290
202116
201918
201697
201451
201182
200890
200578
200246
199897
199530
199147
198748
198333
197902
197455
196994
196519
196032
195533
195025
194507
193982
193451
192915
192377
191834
191284
190719
190141
189546
188935
188309
187668
187006
186312
185577
184786
183927
182997
182005
180964
179894
178813
177736
176674
175631
174597
173567
172536
171506
170478
169454
168436
167425
166420
165422
164429
163441
162455
161473
160491
159509
158525
157537
156543
155540
154529
153509
152482
151450
150413
149373
148327
147274
146212
145140
144057
142963
141859
140743
139615
138472
137310
136123
134907
133662
132394
131110
129817
128520
127221
125921
124619
123317
122015
120712
119411
118110
116810
115512
114215
112920
111626
110334
109043
107752
106463
105173
103884
102594
101304
100013
98721.6
97428.7
96134.7
94839.6
93543.4
92246.1
90947.9
89648.9
88349
87048.3
85746.9
84444.9
83142.4
81839.6
80536.6
79233.6
77930.8
76628.5
75326.8
74026
72726.3
71427.9
70131.1
68836
67542.8
66251.8
64963.3
63677.4
62394.4
61114.6
59838.3
58565.6
57296.8
56032.2
54772
53516.6
52266.1
51020.8
49781.1
48547.1
47319.3
46097.9
44883.1
43675.5
42475.1
41282.5
40097.8
38921.5
37753.9
36595.4
35446.5
34307.5
33179
32061.4
30955.4
29861.4
28780
27711.8
26656.7
25614.2
203487
203464
203417
203346
203252
203133
202989
202821
202630
202414
202174
201911
201624
201316
200988
200642
200280
199901
199506
199096
198671
198231
197777
197309
196829
196339
195838
195328
194809
194283
193751
193215
192676
192133
191584
191025
190456
189874
189278
188668
188040
187386
186693
185950
185145
184268
183312
182283
181198
180077
178940
177811
176706
175627
174569
173524
172484
171448
170417
169391
168371
167358
166353
165355
164365
163380
162400
161423
160449
159473
158494
157510
156518
155517
154507
153489
152465
151437
150408
149376
148340
147296
146242
145175
144096
143003
141897
140779
139650
138507
137347
136164
134950
133706
132436
131148
129851
128551
127250
125947
124644
123340
122036
120733
119430
118128
116828
115529
114231
112935
111640
110347
109054
107763
106473
105183
103893
102603
101312
100021
98728.7
97435.5
96141.2
94845.8
93549.3
92251.7
90953.3
89653.9
88353.8
87052.9
85751.2
84449
83146.3
81843.3
80540.1
79237
77934
76631.5
75329.6
74028.6
72728.7
71430.1
70133
68837.7
67544.3
66253
64964.3
63678.2
62395
61115.1
59838.6
58565.8
57296.9
56032.2
54772
53516.5
52265.9
51020.6
49780.9
48546.9
47319.1
46097.6
44882.9
43675.1
42474.7
41282
40097.3
38920.8
37753.1
36594.4
35445.2
34305.9
33177
32058.9
30952.1
29857.1
28774.4
27704.3
26646.6
25600.9
204166
204137
204083
204003
203895
203761
203600
203414
203203
202968
202708
202425
202120
201795
201452
201092
200715
200324
199917
199496
199062
198613
198152
197679
197194
196700
196197
195685
195165
194637
194104
193566
193027
192485
191940
191390
190835
190272
189699
189112
188502
187858
187167
186414
185590
184684
183689
182613
181476
180295
179097
177914
176766
175653
174568
173505
172455
171412
170375
169344
168320
167303
166294
165294
164303
163321
162347
161378
160410
159441
158467
157486
156495
155494
154483
153466
152445
151424
150404
149383
148359
147326
146282
145222
144146
143054
141947
140826
139692
138547
137386
136203
134991
133748
132477
131187
129887
128585
127281
125976
124671
123365
122060
120755
119451
118149
116847
115547
114249
112952
111656
110361
109068
107775
106484
105193
103902
102612
101321
100029
98736.5
97443
96148.3
94852.6
93555.8
92258
90959.2
89659.6
88359.2
87058
85756.1
84453.7
83150.8
81847.6
80544.2
79240.8
77937.7
76635
75332.9
74031.7
72731.5
71432.6
70135.3
68839.6
67546
66254.5
64965.4
63679.1
62395.8
61115.7
59839
58566.1
57297.1
56032.3
54772
53516.4
52265.8
51020.5
49780.7
48546.7
47318.8
46097.3
44882.6
43674.8
42474.3
41281.5
40096.7
38920.1
37752.2
36593.3
35443.9
34304.2
33174.9
32056.2
30948.7
29852.7
28768.6
27696.6
26636.7
25588.1
204923
204890
204828
204736
204615
204465
204288
204083
203853
203598
203320
203018
202696
202354
201995
201620
201230
200826
200408
199976
199532
199074
198605
198124
197633
197133
196624
196108
195584
195054
194519
193983
193445
192908
192372
191835
191297
190754
190203
189636
189043
188410
187719
186954
186104
185162
184119
182990
181795
180554
179298
178064
176871
175724
174612
173528
172462
171406
170359
169319
168286
167262
166245
165240
164247
163267
162298
161337
160377
159414
158444
157465
156473
155470
154458
153441
152424
151411
150403
149396
148386
147367
146333
145281
144209
143118
142009
140884
139747
138596
137431
136246
135033
133789
132518
131226
129925
128620
127314
126007
124699
123391
122084
120778
119473
118169
116867
115567
114267
112969
111672
110376
109082
107788
106496
105204
103913
102622
101330
100038
98745.1
97451.2
96156.2
94860.1
93563
92264.8
90965.8
89665.9
88365.1
87063.6
85761.5
84458.8
83155.7
81852.3
80548.7
79245.1
77941.8
76638.9
75336.6
74035.1
72734.6
71435.5
70137.8
68841.8
67547.9
66256.1
64966.8
63680.2
62396.6
61116.3
59839.4
58566.3
57297.2
56032.3
54771.9
53516.3
52265.6
51020.3
49780.4
48546.4
47318.6
46097.1
44882.3
43674.4
42473.9
41281
40096
38919.3
37751.3
36592.2
35442.5
34302.5
33172.7
32053.4
30945.1
29848.1
28762.7
27689
26626.9
25575.9
205770
205733
205663
205561
205427
205263
205070
204850
204605
204335
204041
203725
203389
203034
202661
202273
201870
201453
201022
200578
200120
199649
199165
198671
198167
197655
197136
196611
196081
195547
195011
194476
193941
193410
192880
192352
191824
191293
190753
190196
189610
188978
188281
187499
186621
185641
184562
183396
182162
180875
179570
178288
177052
175866
174721
173608
172517
171440
170375
169321
168276
167240
166214
165201
164204
163225
162260
161305
160352
159394
158426
157447
156454
155448
154434
153416
152403
151399
150405
149415
148422
147417
146395
145350
144281
143190
142080
140953
139811
138656
137486
136297
135081
133835
132562
131269
129967
128659
127350
126040
124729
123419
122110
120802
119495
118191
116888
115587
114286
112987
111689
110392
109097
107802
106509
105216
103924
102632
101340
100048
98754.3
97460
96164.6
94868.2
93570.8
92272.3
90972.9
89672.7
88371.6
87069.9
85767.4
84464.5
83161.1
81857.4
80553.6
79249.8
77946.2
76643.1
75340.5
74038.7
72738
71438.5
70140.5
68844.2
67549.9
66257.8
64968.2
63681.4
62397.5
61117
59839.9
58566.7
57297.4
56032.4
54771.9
53516.2
52265.5
51020.1
49780.2
48546.2
47318.3
46096.8
44881.9
43674.1
42473.5
41280.5
40095.4
38918.6
37750.3
36591
35441
34300.7
33170.4
32050.6
30941.5
29843.5
28756.8
27681.6
26617.5
25564.3
206733
206693
206617
206507
206364
206190
205988
205759
205505
205226
204923
204596
204248
203880
203495
203094
202677
202245
201797
201334
200856
200364
199858
199342
198816
198283
197746
197206
196665
196123
195582
195042
194503
193967
193433
192900
192366
191828
191281
190715
190117
189471
188756
187955
187053
186050
184957
183781
182531
181224
179890
178573
177299
176073
174892
173744
172623
171519
170432
169359
168298
167248
166210
165188
164186
163204
162240
161288
160338
159382
158414
157432
156436
155428
154411
153393
152384
151391
150412
149440
148463
147473
146459
145419
144354
143265
142156
141028
139885
138726
137552
136357
135136
133886
132610
131316
130012
128702
127389
126075
124761
123448
122136
120826
119519
118213
116909
115607
114306
113006
111707
110409
109112
107817
106522
105229
103936
102644
101351
100058
98764.3
97469.5
96173.8
94877
93579.2
92280.4
90980.7
89680.1
88378.7
87076.6
85773.8
84470.5
83166.8
81862.9
80558.8
79254.8
77951
76647.5
75344.7
74042.6
72741.5
71441.7
70143.3
68846.7
67552.1
66259.6
64969.7
63682.6
62398.5
61117.7
59840.5
58567
57297.6
56032.5
54771.9
53516.1
52265.4
51019.9
49780
48545.9
47318
46096.5
44881.6
43673.7
42473
41279.9
40094.7
38917.7
37749.3
36589.8
35439.5
34298.8
33168.1
32047.7
30937.9
29838.9
28751.1
27674.3
26608.5
25553.3
207858
207815
207737
207625
207480
207305
207101
206867
206605
206314
205995
205652
205285
204901
204500
204085
203654
203205
202738
202252
201748
201226
200690
200141
199584
199022
198456
197891
197328
196767
196207
195648
195089
194530
193972
193414
192854
192289
191711
191114
190486
189811
189072
188254
187341
186333
185243
184081
182841
181541
180203
178869
177569
176315
175103
173925
172773
171643
170532
169438
168361
167296
166244
165211
164200
163212
162243
161288
160336
159379
158408
157421
156422
155410
154392
153375
152372
151388
150423
149466
148505
147526
146519
145483
144421
143336
142230
141104
139961
138801
137622
136420
135193
133938
132659
131363
130057
128744
127428
126111
124794
123478
122163
120852
119542
118235
116931
115627
114325
113024
111725
110426
109128
107832
106537
105243
103949
102656
101363
100069
98774.9
97479.7
96183.5
94886.4
93588.2
92289
90988.9
89687.9
88386.1
87083.6
85780.5
84476.9
83172.9
81868.7
80564.4
79260.1
77956
76652.2
75349.1
74046.7
72745.2
71445
70146.3
68849.3
67554.3
66261.6
64971.3
63683.9
62399.5
61118.5
59841
58567.4
57297.8
56032.6
54771.9
53516.1
52265.2
51019.7
49779.8
48545.7
47317.7
46096.1
44881.2
43673.3
42472.5
41279.4
40094
38916.9
37748.3
36588.6
35438
34297
33165.8
32044.8
30934.3
29834.4
28745.4
27667.3
26599.9
25543
209188
209145
209069
208960
208819
208643
208432
208184
207901
207583
207236
206865
206475
206068
205648
205215
204767
204300
203811
203299
202763
202206
201631
201042
200445
199843
199237
198632
198030
197431
196834
196240
195644
195047
194447
193847
193242
192630
192005
191362
190692
189981
189216
188384
187470
186470
185397
184262
183057
181788
180471
179142
177836
176566
175334
174134
172959
171805
170672
169559
168465
167386
166321
165276
164253
163254
162275
161310
160351
159388
158411
157420
156416
155402
154384
153368
152367
151389
150434
149489
148539
147567
146565
145531
144473
143395
142295
141173
140030
138867
137683
136475
135240
133982
132701
131405
130098
128784
127466
126146
124826
123507
122191
120877
119566
118258
116952
115648
114345
113043
111742
110443
109144
107847
106551
105257
103963
102669
101376
100081
98786.4
97490.6
96193.9
94896.2
93597.6
92298
90997.4
89696
88393.8
87091
85787.5
84483.6
83179.3
81874.8
80570.2
79265.7
77961.3
76657.3
75353.8
74051.1
72749.3
71448.7
70149.6
68852.1
67556.7
66263.6
64973
63685.2
62400.6
61119.3
59841.6
58567.8
57298.1
56032.7
54772
53516
52265.1
51019.5
49779.6
48545.4
47317.4
46095.8
44880.9
43672.8
42472
41278.8
40093.4
38916.1
37747.3
36587.4
35436.5
34295.2
33163.5
32042
30930.7
29830
28740
27660.6
26591.9
25533.4
210780
210737
210663
210556
210412
210227
209999
209725
209408
209053
208668
208260
207834
207395
206944
206479
205999
205503
204984
204438
203866
203270
202649
202009
201359
200704
200046
199387
198733
198083
197438
196795
196151
195503
194851
194196
193537
192871
192193
191499
190782
190032
189240
188394
187483
186499
185451
184347
183188
181967
180693
179390
178091
176820
175579
174365
173174
172002
170851
169721
168612
167519
166442
165383
164346
163331
162336
161357
160385
159412
158429
157432
156424
155409
154390
153375
152374
151398
150445
149504
148559
147593
146594
145564
144510
143439
142346
141227
140084
138918
137729
136516
135276
134014
132734
131438
130132
128817
127498
126177
124855
123535
122217
120902
119590
118280
116973
115668
114364
113062
111760
110460
109161
107864
106567
105272
103978
102684
101389
100094
98798.6
97502.2
96204.9
94906.7
93607.5
92307.4
91006.4
89704.6
88402
87098.8
85795.1
84490.9
83186.3
81881.5
80576.7
79271.9
77967.3
76663
75359.2
74056.1
72753.9
71452.8
70153.2
68855.3
67559.4
66265.8
64974.8
63686.7
62401.7
61120.1
59842.2
58568.2
57298.4
56032.9
54772
53516
52265
51019.4
49779.4
48545.2
47317.2
46095.6
44880.5
43672.5
42471.6
41278.3
40092.7
38915.3
37746.4
36586.2
35435.2
34293.4
33161.4
32039.3
30927.4
29825.9
28734.9
27654.4
26584.3
25524.5
212516
212472
212395
212283
212132
211935
211687
211385
211029
210626
210184
209715
209229
208736
208237
207729
207209
206673
206117
205531
204915
204272
203603
202912
202209
201501
200792
200082
199376
198675
197978
197285
196590
195892
195189
194482
193773
193057
192332
191592
190833
190046
189226
188364
187453
186484
185459
184382
183260
182087
180863
179599
178322
177057
175815
174596
173396
172215
171051
169908
168785
167680
166591
165518
164466
163435
162423
161427
160439
159454
158463
157461
156451
155435
154416
153401
152397
151416
150457
149511
148564
147599
146606
145583
144536
143471
142382
141265
140120
138951
137758
136540
135297
134034
132754
131460
130154
128841
127522
126201
124879
123558
122240
120924
119612
118302
116994
115688
114383
113080
111778
110477
109178
107880
106584
105288
103993
102698
101403
100107
98811.1
97514
96216.1
94917.3
93617.6
92317
91015.6
89713.3
88410.4
87106.9
85802.8
84498.3
83193.6
81888.6
80583.5
79278.4
77973.6
76669
75364.8
74061.3
72758.7
71457.1
70157
68858.5
67562.1
66268
64976.5
63688
62402.7
61120.8
59842.7
58568.5
57298.5
56032.9
54771.9
53515.8
52264.8
51019.1
49779.1
48544.9
47316.8
46095.1
44880.1
43671.9
42471
41277.6
40092
38914.4
37745.4
36585
35433.6
34291.6
33159.2
32036.6
30924
29821.8
28729.9
27648.4
26577.2
25516.1
214204
214155
214068
213942
213776
213563
213293
212957
212552
212084
211571
211028
210474
209919
209368
208815
208252
207674
207075
206447
205788
205103
204394
203664
202922
202175
201427
200678
199931
199190
198452
197718
196983
196244
195500
194752
194002
193247
192482
191704
190909
190091
189245
188365
187447
186484
185472
184414
183313
182172
180989
179765
178516
177263
176024
174803
173601
172416
171247
170095
168960
167844
166743
165659
164594
163549
162522
161511
160508
159510
158510
157504
156492
155476
154459
153443
152435
151443
150472
149515
148560
147594
146605
145591
144553
143492
142405
141288
140142
138970
137772
136550
135306
134042
132763
131470
130166
128854
127537
126217
124896
123576
122258
120943
119630
118320
117012
115706
114400
113097
111794
110494
109194
107896
106599
105303
104008
102712
101416
100120
98823.3
97525.6
96227
94927.7
93627.5
92326.4
91024.6
89722
88418.8
87115
85810.7
84506
83201
81895.8
80590.5
79285.2
77980.1
76675.2
75370.7
74066.8
72763.7
71461.7
70161
68862
67565
66270.3
64978.3
63689.3
62403.6
61121.5
59843.1
58568.7
57298.6
56032.8
54771.8
53515.6
52264.5
51018.8
49778.7
48544.5
47316.4
46094.7
44879.6
43671.4
42470.4
41276.9
40091.2
38913.6
37744.4
36583.8
35432.2
34289.9
33157.1
32034
30920.9
29818
28725.2
27642.8
26570.6
25508.5
215855
215793
215683
215526
215324
215073
214763
214382
213922
213391
212808
212197
211576
210961
210356
209757
209150
208527
207886
207219
206525
205806
205065
204306
203535
202760
201984
201206
200430
199657
198889
198122
197355
196584
195808
195027
194244
193454
192655
191845
191020
190174
189304
188405
187475
186510
185504
184456
183369
182247
181090
179899
178680
177445
176213
174993
173789
172602
171431
170274
169132
168005
166895
165801
164726
163669
162629
161604
160588
159578
158570
157560
156546
155529
154512
153496
152483
151481
150495
149524
148559
147588
146600
145590
144557
143497
142409
141293
140146
138971
137770
136546
135302
134040
132762
131471
130169
128859
127544
126226
124908
123589
122273
120958
119646
118336
117028
115721
114416
113112
111810
110509
109210
107911
106614
105318
104022
102726
101430
100133
98835.2
97536.9
96237.8
94937.9
93637.3
92335.8
91033.6
89730.8
88427.2
87123.2
85818.7
84513.8
83208.6
81903.2
80597.8
79292.3
77986.9
76681.7
75376.9
74072.6
72769
71466.5
70165.2
68865.5
67567.9
66272.7
64980.2
63690.7
62404.6
61122.1
59843.5
58568.9
57298.6
56032.8
54771.6
53515.4
52264.3
51018.5
49778.4
48544.2
47316
46094.2
44879.1
43670.9
42469.9
41276.3
40090.5
38912.8
37743.4
36582.7
35430.9
34288.3
33155.1
32031.6
30918
29814.4
28721
27637.8
26564.7
25501.6
217499
217415
217267
217059
216798
216482
216107
215662
215140
214547
213901
213227
212551
211888
211242
210605
209960
209297
208615
207910
207181
206430
205660
204875
204081
203283
202484
201685
200886
200090
199296
198502
197708
196910
196107
195300
194489
193670
192843
192004
191152
190282
189390
188474
187532
186559
185552
184509
183431
182321
181181
180012
178818
177605
176385
175169
173964
172775
171602
170442
169295
168162
167044
165943
164859
163792
162740
161701
160674
159656
158641
157627
156610
155591
154572
153554
152538
151528
150530
149545
148567
147588
146596
145585
144549
143486
142396
141278
140131
138956
137754
136531
135288
134029
132753
131465
130166
128859
127546
126231
124914