/*--------------------------------*- C++ -*----------------------------------*\
  =========                 |
  \\      /  F ield         | OpenFOAM: The Open Source CFD Toolbox
   \\    /   O peration     | Website:  https://openfoam.org
    \\  /    A nd           | Version:  9
     \\/     M anipulation  |
\*---------------------------------------------------------------------------*/
FoamFile
{
    format      ascii;
    class       volScalarField;
    location    "0.05";
    object      s_0;
}
// * * * * * * * * * * * * * * * * * * * * * * * * * * * * * * * * * * * * * //

dimensions      [0 0 0 0 0 0 0];

internalField   nonuniform List<scalar> 
12225
(
1
1
1
1
1
1
1
1
1
1
1
1
1
1
1
1
1
0.999992
1
1
1
1
1
1
1
1
1
1
1
1
1
1
1
1
1
1
1
1
1
1
1
1
1
1
1
1
1
1
1
1
1
1
1
1
1
1
1
1
1
1
1
1
1
1
1
1
1
1
1
1
1
1
1
1
1
1
1
1
1
1
1
1
1
1
1
1
1
1
1
1
1
1
1
1
1
1
1
1
1
1
1
1
1
1
1
1
1
1
1
1
1
1
1
1
1
1
1
1
1
1
1
1
1
1
1
1
1
1
1
1
1
1
1
1
1
1
1
1
1
1
1
1
1
1
1
1
1
1
1
1
1
1
1
1
1
1
1
1
1
1
1
1
1
1
1
1
1
1
1
1
1
1
1
1
1
1
1
1
1
1
1
1
1
1
1
1
1
1
1
1
1
1
1
1
1
1
1
1
1
1
1
1
1
1
1
1
1
1
1
1
1
1
1
1
1
1
1
1
1
1
1
1
1
1
1
1
1
1
1
1
1
1
1
1
1
1
1
1
1
1
1
1
1
1
1
1
1
1
1
1
1
1
1
1
1
1
1
1
1
1
1
1
1
1
1
1
1
1
1
1
1
1
1
1
1
1
1
1
1
1
1
1
1
1
1
1
1
1
1
1
1
1
1
1
1
1
1
1
1
1
1
1
1
1
1
1
1
1
1
1
1
1
1
1
1
1
1
1
1
1
1
1
1
1
1
1
1
1
1
1
1
1
1
1
1
1
1
1
1
1
1
1
1
1
1
1
1
1
1
1
1
1
1
1
1
1
1
1
1
1
1
1
1
1
1
1
1
1
1
1
1
1
1
1
1
1
1
1
1
1
1
1
1
1
1
1
1
1
1
1
1
1
1
1
1
1
1
1
1
1
1
1
1
1
1
1
1
1
1
1
1
1
1
1
1
1
1
1
1
1
1
1
1
1
1
1
1
1
1
1
1
1
1
1
1
1
1
1
1
1
1
1
1
1
1
1
1
1
1
1
1
1
1
1
1
1
1
1
1
1
1
1
1
1
1
1
1
1
1
1
1
1
1
1
1
1
1
1
1
1
1
1
1
1
1
1
1
1
1
1
1
1
1
1
1
1
1
1
1
1
1
1
1
1
1
1
1
1
1
1
1
1
1
1
1
1
1
1
1
1
1
1
1
1
1
1
1
1
1
1
1
1
1
1
1
1
1
1
1
1
0.676739
0.654666
0.649915
0.648476
0.647981
0.651565
0.657395
0.659541
0.660706
0.661213
0.662789
0.663893
0.665088
0.666029
0.666456
0.6664
0.665921
0.66446
0.662151
0.657303
0.650314
0.642265
0.632771
0.623185
0.6144
0.605096
0.595753
0.588366
0.582211
0.577101
0.573691
0.572305
0.572631
0.574175
0.577481
0.586405
0.595555
0.607791
0.621666
0.630877
0.65523
0.67117
0.638697
0.639595
0.671942
0.682184
0.683776
0.683723
0.683513
0.683936
0.685444
0.691245
0.706246
0.735722
0.751279
0.76186
0.768885
0.771183
0.769555
0.749641
0.739311
0.757155
0.824282
0.868464
0.882441
0.886786
0.888623
0.888785
0.88844
0.887412
0.885757
0.883823
0.881968
0.880308
0.878781
0.877304
0.875766
0.87423
0.872917
0.871811
0.870649
0.869367
0.868212
0.867259
0.866358
0.865418
0.864455
0.863519
0.862723
0.862125
0.861608
0.861029
0.860606
0.860405
0.860348
0.860451
0.860879
0.861494
0.86198
0.862746
0.863442
0.864484
0.865827
0.867158
0.868603
0.870119
0.871685
0.873479
0.875919
0.878141
0.880459
0.883055
0.886173
0.88925
0.892514
0.895678
0.89873
0.901438
0.90375
0.905969
0.908048
0.909947
0.911634
0.913107
0.914388
0.915512
0.916513
0.917422
0.918262
0.919048
0.919794
0.920513
0.921217
0.921918
0.922629
0.923361
0.924126
0.924919
0.925723
0.926538
0.927395
0.928342
0.929416
0.930635
0.931823
0.932697
0.93307
0.93305
0.932324
0.928807
0.922044
0.915578
0.907946
0.897904
0.886086
0.874888
0.866677
0.862437
0.860568
0.857518
0.853395
0.850131
0.847099
0.841633
0.829223
0.793806
0.677204
0.486224
0.329991
0.221398
0.153026
0.111667
0.0860082
0.0690907
0.0571448
0.0471676
0.0398448
0.0305381
0.0253514
0.00842493
0.682692
0.655969
0.633077
0.62383
0.628364
0.639018
0.648471
0.647043
0.642596
0.636681
0.633389
0.629972
0.625264
0.618041
0.60926
0.59687
0.581874
0.564359
0.546184
0.529542
0.515675
0.502534
0.491
0.479367
0.468011
0.456055
0.443958
0.431268
0.418232
0.406954
0.398144
0.389371
0.381438
0.378941
0.379768
0.383416
0.391891
0.411224
0.458091
0.491132
0.564863
0.637014
0.645874
0.647762
0.645094
0.635338
0.615964
0.586172
0.565026
0.556101
0.56492
0.583364
0.619076
0.678259
0.731973
0.754896
0.768954
0.772415
0.766574
0.747774
0.76077
0.830037
0.869012
0.879884
0.883132
0.884127
0.883656
0.880491
0.876161
0.869862
0.861468
0.8517
0.843349
0.836991
0.830212
0.825992
0.821511
0.817752
0.815115
0.812584
0.810972
0.809163
0.808188
0.807278
0.806729
0.806425
0.80629
0.806301
0.806829
0.807427
0.808667
0.809976
0.811233
0.81229
0.813231
0.814091
0.814826
0.815408
0.815836
0.816027
0.816106
0.816248
0.816252
0.816226
0.816228
0.816258
0.816195
0.816257
0.816602
0.816948
0.817381
0.818045
0.819017
0.820104
0.821884
0.824518
0.828264
0.833266
0.839576
0.846851
0.854909
0.863572
0.872196
0.880122
0.886971
0.892482
0.896682
0.900078
0.902845
0.90507
0.906847
0.908285
0.909494
0.910591
0.911697
0.91294
0.914428
0.916221
0.918301
0.920545
0.922726
0.924556
0.92579
0.926334
0.926412
0.926438
0.927147
0.931036
0.942314
0.952262
0.957356
0.958363
0.95778
0.95466
0.943712
0.929877
0.920293
0.911271
0.900179
0.888766
0.880876
0.876186
0.871514
0.867028
0.864062
0.860136
0.851318
0.82933
0.784949
0.750104
0.721385
0.692944
0.651962
0.612356
0.573019
0.549871
0.530442
0.515904
0.484523
0.376403
0.693646
0.679766
0.663154
0.665977
0.65124
0.651668
0.648981
0.636371
0.612849
0.59197
0.571677
0.553638
0.541683
0.529534
0.518079
0.508912
0.501163
0.493605
0.488973
0.483913
0.479711
0.472783
0.465443
0.454817
0.443378
0.429518
0.414894
0.39877
0.381613
0.365775
0.351359
0.339284
0.329035
0.321859
0.319232
0.319373
0.321335
0.327809
0.349179
0.37852
0.414201
0.506613
0.597226
0.633772
0.640039
0.638258
0.628291
0.599124
0.570129
0.539746
0.536098
0.549122
0.589687
0.632198
0.702508
0.737
0.750219
0.755228
0.755079
0.773236
0.827092
0.859626
0.871037
0.874553
0.873395
0.868112
0.858639
0.843668
0.828145
0.814904
0.805888
0.80153
0.79956
0.798844
0.798755
0.799876
0.801102
0.802139
0.80442
0.806551
0.808742
0.810853
0.813405
0.817789
0.822656
0.828117
0.834676
0.841305
0.848179
0.855191
0.861947
0.867682
0.872558
0.876758
0.879802
0.88184
0.883006
0.883473
0.883221
0.882107
0.879945
0.877749
0.874482
0.870738
0.866547
0.861937
0.856749
0.851363
0.845602
0.839681
0.83375
0.828077
0.823148
0.818633
0.814257
0.810181
0.806665
0.803981
0.802301
0.801618
0.801781
0.802828
0.805314
0.809641
0.815626
0.822961
0.831066
0.838919
0.845883
0.85159
0.855981
0.859237
0.86169
0.863761
0.865905
0.868577
0.872214
0.877216
0.883866
0.892171
0.901884
0.912504
0.922687
0.929974
0.933474
0.934016
0.931794
0.924339
0.921126
0.921363
0.926188
0.943392
0.957754
0.964071
0.965239
0.964791
0.962168
0.95927
0.955903
0.948567
0.933481
0.916972
0.905189
0.897875
0.891014
0.88426
0.878189
0.87056
0.861262
0.854345
0.851403
0.851104
0.851614
0.854568
0.856942
0.857291
0.85604
0.853094
0.845236
0.805046
0.692673
0.688485
0.680033
0.649218
0.651545
0.652232
0.625801
0.574394
0.550172
0.5333
0.525399
0.521727
0.518781
0.517903
0.517692
0.518077
0.522187
0.528525
0.53282
0.53439
0.5342
0.524463
0.512598
0.493465
0.473608
0.449984
0.427488
0.405222
0.384692
0.366145
0.349473
0.335926
0.324846
0.316744
0.311369
0.308328
0.307105
0.307375
0.311097
0.326747
0.353468
0.38547
0.459394
0.560596
0.609341
0.628813
0.62983
0.62736
0.61983
0.600484
0.596242
0.599461
0.607189
0.623604
0.669701
0.717889
0.741668
0.755405
0.774065
0.806846
0.837142
0.852737
0.856047
0.848922
0.837633
0.825052
0.812446
0.800991
0.794086
0.791191
0.790629
0.793909
0.796768
0.800126
0.804653
0.811539
0.819122
0.828083
0.839644
0.852988
0.86861
0.883503
0.899361
0.912323
0.926276
0.935636
0.945302
0.953311
0.957899
0.962157
0.965268
0.966832
0.968163
0.969288
0.969964
0.970835
0.971497
0.971903
0.972334
0.972673
0.972812
0.972539
0.972377
0.971547
0.970492
0.968931
0.966841
0.964097
0.960559
0.955972
0.950018
0.942164
0.931675
0.918999
0.904318
0.887652
0.869385
0.850623
0.833539
0.820507
0.810268
0.802795
0.797912
0.79503
0.793702
0.793477
0.794024
0.795428
0.797265
0.799694
0.802614
0.805847
0.809371
0.813267
0.81768
0.822768
0.828582
0.834978
0.841894
0.849602
0.858293
0.868058
0.879987
0.89644
0.916484
0.934784
0.945244
0.947915
0.946471
0.935733
0.924031
0.921552
0.923548
0.93654
0.954307
0.963792
0.968356
0.970087
0.970364
0.969868
0.9667
0.954186
0.932359
0.916166
0.9067
0.900929
0.894817
0.886643
0.87802
0.871794
0.868968
0.868399
0.868516
0.869347
0.872358
0.882015
0.899002
0.918709
0.931755
0.927628
0.623137
0.638717
0.633168
0.647589
0.675311
0.622006
0.578384
0.566591
0.555843
0.550911
0.550438
0.557998
0.569968
0.589417
0.615295
0.645834
0.672299
0.686949
0.694511
0.69713
0.694575
0.680119
0.667059
0.64056
0.617404
0.585054
0.554755
0.521343
0.488026
0.455679
0.425527
0.399311
0.375983
0.35666
0.341363
0.330063
0.322228
0.317746
0.316254
0.320023
0.335696
0.354022
0.376532
0.418964
0.50246
0.570042
0.603825
0.617439
0.622062
0.623105
0.624977
0.629111
0.634896
0.643082
0.663232
0.707838
0.74092
0.766163
0.786337
0.805875
0.819043
0.815604
0.809043
0.802818
0.797091
0.790549
0.784992
0.782432
0.78183
0.785957
0.791511
0.798161
0.809014
0.825543
0.850179
0.880627
0.896796
0.916809
0.934226
0.943674
0.95363
0.960982
0.965726
0.970968
0.97353
0.975891
0.977179
0.977757
0.977935
0.977882
0.977139
0.976197
0.975346
0.974485
0.974189
0.974193
0.975174
0.975637
0.976339
0.978051
0.979398
0.980462
0.982179
0.983317
0.984476
0.985433
0.986255
0.986882
0.987383
0.987728
0.987932
0.987983
0.987792
0.986911
0.984951
0.981379
0.975328
0.965346
0.949467
0.926243
0.898776
0.87026
0.845077
0.826758
0.813456
0.804423
0.798921
0.79609
0.79512
0.795158
0.7963
0.79908
0.802624
0.807001
0.812115
0.818103
0.825212
0.832947
0.840215
0.84734
0.855118
0.863505
0.870916
0.87672
0.884291
0.898933
0.921679
0.943386
0.954784
0.956522
0.953962
0.940857
0.930553
0.928908
0.930941
0.943069
0.959046
0.9681
0.972385
0.973523
0.973289
0.97063
0.958455
0.935031
0.918929
0.910241
0.904402
0.897737
0.889832
0.882094
0.875783
0.871564
0.869559
0.86917
0.869481
0.871617
0.881347
0.900888
0.925594
0.942981
0.596216
0.624368
0.688258
0.65951
0.621324
0.59913
0.590158
0.589496
0.602689
0.629904
0.673622
0.720724
0.769823
0.808722
0.843041
0.861146
0.878315
0.886824
0.893874
0.896835
0.897651
0.894025
0.88859
0.877024
0.862845
0.840495
0.811861
0.774915
0.731635
0.680671
0.625679
0.570808
0.524058
0.479701
0.442509
0.413268
0.39143
0.377427
0.369647
0.366776
0.367765
0.370358
0.373631
0.382535
0.402956
0.447424
0.505577
0.556375
0.58957
0.608548
0.617384
0.626359
0.63761
0.646384
0.664341
0.704596
0.743725
0.771317
0.784204
0.786722
0.778617
0.774622
0.772379
0.771265
0.770733
0.770675
0.771116
0.773586
0.778824
0.787216
0.798404
0.818448
0.854296
0.906752
0.932059
0.944932
0.953387
0.960166
0.964305
0.966223
0.968002
0.968895
0.9694
0.969619
0.968725
0.966177
0.962387
0.957299
0.95168
0.944798
0.938494
0.933506
0.928754
0.924299
0.922251
0.921653
0.923982
0.926054
0.928896
0.934106
0.939609
0.944674
0.950974
0.956723
0.961808
0.966556
0.970761
0.974439
0.977862
0.98098
0.983881
0.986537
0.988875
0.990913
0.992558
0.993714
0.994336
0.99447
0.993714
0.991034
0.98526
0.974186
0.954527
0.925345
0.893088
0.864175
0.842856
0.82783
0.817738
0.811701
0.808855
0.808223
0.80887
0.812761
0.820047
0.828163
0.837434
0.848924
0.861073
0.87156
0.879972
0.887002
0.891901
0.893971
0.894616
0.895914
0.900039
0.914404
0.939385
0.956473
0.962156
0.961825
0.954965
0.941172
0.937381
0.937876
0.942683
0.957119
0.967805
0.972811
0.974027
0.973569
0.969501
0.95338
0.93197
0.917412
0.910072
0.905663
0.899619
0.89138
0.882966
0.876123
0.871417
0.868746
0.867898
0.868017
0.869725
0.877204
0.9009
0.929347
0.656913
0.675067
0.678663
0.647429
0.631683
0.627613
0.64899
0.694918
0.753249
0.811457
0.848777
0.890731
0.911991
0.934334
0.945229
0.956084
0.961891
0.967279
0.969976
0.971883
0.972783
0.973025
0.972306
0.97085
0.968575
0.964676
0.958885
0.950269
0.937388
0.91788
0.888572
0.844211
0.779943
0.705021
0.626105
0.564011
0.511696
0.4766
0.453546
0.436981
0.427303
0.423818
0.419451
0.412464
0.410059
0.414302
0.433338
0.46789
0.509871
0.548925
0.577593
0.606368
0.6301
0.643845
0.669557
0.706692
0.745684
0.771384
0.778
0.771918
0.764052
0.760189
0.758143
0.757641
0.758353
0.761025
0.764874
0.770518
0.779194
0.792598
0.818355
0.871212
0.927622
0.949872
0.958477
0.961656
0.962995
0.963885
0.964144
0.96329
0.961015
0.956299
0.949301
0.939142
0.925073
0.907133
0.888351
0.871278
0.856458
0.841039
0.82907
0.821594
0.814913
0.80952
0.806535
0.805387
0.806308
0.80864
0.813152
0.819705
0.829343
0.841079
0.854023
0.869405
0.883461
0.896565
0.907002
0.916498
0.92552
0.93426
0.94308
0.952118
0.961234
0.970148
0.978423
0.985494
0.990872
0.994395
0.996394
0.997364
0.997649
0.997417
0.995882
0.991705
0.98216
0.96386
0.936436
0.905957
0.87878
0.858838
0.845892
0.838432
0.835204
0.834609
0.835299
0.838843
0.844507
0.853847
0.867695
0.88403
0.9015
0.918391
0.930537
0.935198
0.935439
0.933708
0.927827
0.925266
0.925993
0.93412
0.955249
0.965673
0.967122
0.965027
0.954711
0.948344
0.948298
0.951322
0.961815
0.970251
0.973422
0.973658
0.971918
0.962342
0.941118
0.924454
0.913657
0.908116
0.905309
0.900825
0.893006
0.883974
0.876226
0.87129
0.869114
0.868751
0.869265
0.872683
0.886352
0.914495
0.69783
0.689001
0.67723
0.665165
0.680999
0.735316
0.782829
0.833064
0.88449
0.912956
0.939943
0.958525
0.967848
0.97657
0.980498
0.983977
0.985573
0.98682
0.987417
0.987716
0.987815
0.987754
0.987744
0.987782
0.987936
0.988025
0.987831
0.987376
0.986261
0.983638
0.97875
0.969531
0.953429
0.925419
0.877436
0.794697
0.699439
0.613169
0.564116
0.538093
0.527397
0.535128
0.54957
0.542405
0.523917
0.508203
0.50337
0.506456
0.524648
0.55465
0.583952
0.613473
0.633846
0.647992
0.679743
0.710332
0.746429
0.771056
0.775962
0.770095
0.763386
0.759948
0.75764
0.756288
0.756419
0.758971
0.763527
0.770336
0.781641
0.805172
0.857974
0.924736
0.953761
0.9618
0.963118
0.961236
0.959463
0.955502
0.949107
0.937492
0.919506
0.889662
0.863837
0.83998
0.817418
0.803286
0.790941
0.782758
0.775422
0.770615
0.767382
0.765487
0.763873
0.762206
0.760804
0.759309
0.75786
0.756492
0.7549
0.753296
0.752278
0.751885
0.7531
0.756837
0.763713
0.774394
0.787983
0.801835
0.815733
0.83
0.845518
0.863251
0.883102
0.903527
0.92464
0.945507
0.963881
0.978148
0.987986
0.993936
0.997053
0.998426
0.99893
0.999008
0.998716
0.997408
0.993933
0.98599
0.971015
0.948422
0.922567
0.899632
0.88357
0.875077
0.87218
0.871873
0.872371
0.874505
0.880976
0.895166
0.911408
0.928601
0.945421
0.958369
0.964849
0.966253
0.965859
0.962347
0.953388
0.950956
0.951932
0.958721
0.968882
0.971588
0.970978
0.966033
0.960741
0.96045
0.963077
0.970011
0.973316
0.973685
0.972319
0.964247
0.943503
0.926683
0.915864
0.9099
0.90706
0.905125
0.90163
0.894075
0.885102
0.87764
0.87328
0.871832
0.871926
0.874097
0.884344
0.910669
0.709129
0.696277
0.692543
0.720356
0.793874
0.834916
0.877233
0.916377
0.947064
0.96229
0.976444
0.982688
0.986057
0.987792
0.988458
0.988684
0.988671
0.988377
0.988096
0.987778
0.987532
0.987221
0.987093
0.987277
0.987851
0.988719
0.989485
0.990521
0.991725
0.99246
0.992896
0.993103
0.991508
0.98728
0.977787
0.958862
0.921304
0.849529
0.74565
0.675855
0.644901
0.635567
0.642874
0.658932
0.665451
0.665823
0.669184
0.665472
0.654196
0.633482
0.629
0.634306
0.644197
0.660096
0.695542
0.717243
0.748197
0.771114
0.776011
0.772337
0.769551
0.769264
0.768069
0.763504
0.760756
0.761882
0.766091
0.773802
0.789701
0.828235
0.893906
0.946992
0.962227
0.96415
0.960848
0.952653
0.938148
0.915979
0.884415
0.858639
0.826624
0.805028
0.785683
0.775599
0.76642
0.762297
0.75954
0.757919
0.756584
0.755541
0.754992
0.754445
0.75367
0.752736
0.751932
0.751185
0.749796
0.748533
0.746747
0.744345
0.741257
0.737322
0.732834
0.728167
0.723951
0.72055
0.718454
0.718204
0.720139
0.724038
0.730111
0.739307
0.753967
0.777528
0.809332
0.848768
0.892244
0.928694
0.95726
0.976579
0.988277
0.994635
0.997722
0.999018
0.999467
0.999566
0.999513
0.999153
0.998156
0.995931
0.990758
0.980047
0.966582
0.954804
0.948085
0.94621
0.946276
0.947034
0.948946
0.953933
0.961121
0.96666
0.971096
0.975666
0.979667
0.981655
0.981944
0.98166
0.980033
0.973061
0.967237
0.966891
0.969154
0.974837
0.976626
0.976282
0.97348
0.971478
0.971597
0.973609
0.975421
0.97542
0.97351
0.963635
0.942119
0.926302
0.916873
0.912004
0.909746
0.908387
0.906236
0.900862
0.891615
0.883878
0.879336
0.877724
0.877672
0.879099
0.887369
0.911701
0.714626
0.708779
0.733894
0.807079
0.867184
0.896848
0.932583
0.959623
0.975105
0.982771
0.986881
0.988236
0.988556
0.988401
0.987818
0.986618
0.984702
0.982167
0.979318
0.976478
0.974321
0.973303
0.972999
0.973558
0.974768
0.977146
0.979431
0.982172
0.986035
0.988756
0.992519
0.994523
0.995792
0.996229
0.995992
0.993351
0.986007
0.968559
0.928833
0.834285
0.731471
0.685772
0.672474
0.68216
0.698092
0.725274
0.759699
0.759524
0.756727
0.750879
0.736026
0.711623
0.702785
0.70865
0.724609
0.731534
0.752031
0.772258
0.778511
0.785897
0.802141
0.817
0.82155
0.809085
0.790573
0.783318
0.784234
0.792387
0.814124
0.857663
0.916221
0.956567
0.96435
0.962789
0.951182
0.922582
0.865144
0.819688
0.796696
0.781994
0.767769
0.760155
0.754766
0.75192
0.750514
0.750104
0.749915
0.749517
0.748462
0.746529
0.744499
0.742574
0.740442
0.73827
0.737511
0.738694
0.739187
0.740673
0.741379
0.741262
0.739776
0.736843
0.732629
0.727465
0.721666
0.715088
0.708992
0.70401
0.70055
0.698909
0.698976
0.700232
0.702976
0.708648
0.719942
0.737928
0.769188
0.823008
0.885149
0.93203
0.963094
0.981506
0.991447
0.996357
0.998563
0.999441
0.999738
0.999819
0.999821
0.999747
0.999467
0.998675
0.996278
0.992861
0.990323
0.989068
0.988764
0.988794
0.988978
0.989575
0.990919
0.992343
0.993576
0.994113
0.994121
0.993936
0.993279
0.992573
0.991563
0.989222
0.982501
0.977159
0.976092
0.977018
0.980193
0.9813
0.981089
0.979753
0.979365
0.979652
0.979929
0.979505
0.976289
0.962233
0.940502
0.926354
0.918983
0.915749
0.914304
0.913008
0.910461
0.90383
0.894833
0.888034
0.884419
0.883362
0.883485
0.885379
0.895007
0.920068
0.726435
0.735888
0.787849
0.868794
0.911492
0.935294
0.964594
0.978755
0.985334
0.987871
0.988576
0.988438
0.987677
0.985663
0.981917
0.976117
0.968285
0.961362
0.956261
0.953118
0.951598
0.951024
0.951148
0.952785
0.954893
0.957522
0.960918
0.964189
0.968613
0.973181
0.979061
0.986725
0.992879
0.996248
0.997588
0.997986
0.997766
0.995346
0.987389
0.964561
0.901849
0.781779
0.713101
0.6924
0.704822
0.744088
0.780616
0.775231
0.769892
0.771023
0.768445
0.755178
0.743945
0.738698
0.7361
0.740275
0.760098
0.776943
0.79554
0.845338
0.885731
0.900949
0.904531
0.896685
0.874695
0.85578
0.847109
0.84985
0.863229
0.888882
0.931236
0.962254
0.965756
0.956989
0.92205
0.845123
0.775037
0.750727
0.741354
0.737826
0.739199
0.741175
0.740434
0.73945
0.738797
0.735537
0.731377
0.726777
0.718881
0.706284
0.692559
0.681467
0.672461
0.66638
0.66426
0.671945
0.6775
0.69041
0.702111
0.713777
0.722724
0.728196
0.730468
0.729057
0.725749
0.721278
0.713815
0.70554
0.700136
0.696968
0.695766
0.695755
0.696488
0.698605
0.703852
0.713013
0.723448
0.739127
0.773736
0.842242
0.908286
0.950687
0.975445
0.988639
0.995107
0.998039
0.999265
0.999733
0.99989
0.999935
0.999939
0.999915
0.999792
0.999341
0.998728
0.998301
0.998068
0.997966
0.997932
0.997926
0.997946
0.998093
0.99829
0.998312
0.998279
0.99815
0.997748
0.997292
0.996833
0.995923
0.993474
0.987184
0.983163
0.982309
0.982783
0.984661
0.985364
0.9853
0.985098
0.985165
0.985148
0.984296
0.979631
0.961967
0.940598
0.928164
0.922818
0.921021
0.920095
0.918522
0.91469
0.90558
0.89676
0.890895
0.888235
0.887727
0.888199
0.891602
0.906665
0.932573
0.73947
0.760749
0.833895
0.906167
0.939158
0.95968
0.978632
0.985722
0.988174
0.988694
0.988357
0.986868
0.982911
0.975133
0.961704
0.951627
0.943623
0.939566
0.93645
0.935171
0.934768
0.935407
0.937242
0.939661
0.943229
0.94759
0.951538
0.956098
0.959577
0.96306
0.966011
0.970306
0.978616
0.989366
0.995302
0.997897
0.998812
0.999088
0.998456
0.995054
0.982556
0.942238
0.821384
0.734194
0.713101
0.746213
0.777857
0.757288
0.750384
0.75091
0.753939
0.751014
0.746043
0.742435
0.741795
0.752034
0.774711
0.800048
0.868525
0.922716
0.945324
0.953939
0.955334
0.951185
0.937791
0.922784
0.91221
0.907247
0.909432
0.91936
0.944595
0.966179
0.967364
0.950629
0.895285
0.774761
0.718137
0.703455
0.701872
0.709699
0.721603
0.72439
0.724371
0.723081
0.714749
0.702814
0.682903
0.656733
0.62267
0.579095
0.535117
0.503226
0.483175
0.47335
0.470575
0.483894
0.502205
0.532029
0.568007
0.608042
0.644634
0.674799
0.698377
0.713622
0.72121
0.723009
0.721424
0.718218
0.710462
0.703242
0.69957
0.698367
0.698382
0.699404
0.703066
0.711349
0.720318
0.728077
0.738381
0.759395
0.817178
0.892425
0.942343
0.971484
0.986896
0.994369
0.997726
0.999135
0.99969
0.999893
0.999959
0.999976
0.999977
0.999961
0.999892
0.999807
0.999744
0.999697
0.999659
0.999626
0.999605
0.999593
0.99958
0.99956
0.999528
0.999459
0.999271
0.999057
0.998864
0.99851
0.997651
0.994716
0.989494
0.98693
0.986509
0.986943
0.988268
0.988829
0.989106
0.989312
0.989279
0.988328
0.983087
0.963831
0.943386
0.932907
0.929289
0.928534
0.928022
0.926557
0.921228
0.909067
0.899252
0.893451
0.891141
0.890848
0.891624
0.89641
0.91502
0.94009
0.750269
0.791721
0.869818
0.930775
0.956675
0.97281
0.984449
0.98796
0.988717
0.988518
0.986791
0.981206
0.968905
0.95311
0.94196
0.934538
0.929443
0.926669
0.925083
0.924373
0.924156
0.924719
0.925669
0.927383
0.92967
0.933189
0.939151
0.946554
0.95453
0.959045
0.961923
0.964511
0.967385
0.973486
0.986569
0.994406
0.997846
0.999191
0.999534
0.999475
0.998009
0.990638
0.959991
0.840387
0.745214
0.735183
0.752866
0.755099
0.749065
0.74943
0.750199
0.749722
0.748223
0.748297
0.754245
0.775757
0.81537
0.881464
0.935943
0.960097
0.971164
0.978871
0.980516
0.97853
0.971888
0.96192
0.953843
0.947861
0.944764
0.946586
0.95722
0.970573
0.968444
0.935718
0.840321
0.729579
0.693884
0.684483
0.682091
0.690275
0.702816
0.705068
0.703819
0.689306
0.663543
0.625122
0.554562
0.477382
0.412441
0.366247
0.340693
0.330698
0.32814
0.329577
0.334805
0.343046
0.354688
0.371626
0.395971
0.431358
0.480539
0.540782
0.600623
0.651494
0.686817
0.708548
0.718898
0.722438
0.724297
0.721967
0.714832
0.710744
0.709717
0.709747
0.710794
0.716511
0.729542
0.736486
0.738996
0.746871
0.764079
0.812345
0.888359
0.940118
0.970519
0.986558
0.994271
0.997698
0.999122
0.999682
0.999891
0.999963
0.999986
0.999991
0.999991
0.999986
0.999974
0.999962
0.999951
0.999939
0.99993
0.999922
0.99991
0.999899
0.999885
0.999858
0.999786
0.999701
0.999624
0.999487
0.99916
0.99812
0.994505
0.990903
0.989592
0.989521
0.990105
0.991186
0.991824
0.992166
0.992181
0.991476
0.987027
0.969427
0.950585
0.941875
0.939697
0.939669
0.939669
0.938567
0.932285
0.916511
0.904622
0.897991
0.895365
0.894984
0.89572
0.900521
0.919102
0.943446
0.763417
0.812326
0.892574
0.943818
0.966324
0.979617
0.986739
0.988488
0.988681
0.987583
0.983208
0.971246
0.953957
0.939544
0.931118
0.925441
0.922506
0.921068
0.920464
0.920306
0.920741
0.921512
0.922237
0.923204
0.924642
0.926338
0.928746
0.93282
0.940511
0.952475
0.959456
0.962478
0.964478
0.967263
0.973708
0.987196
0.994471
0.998019
0.999418
0.999774
0.999829
0.999194
0.994446
0.967629
0.842219
0.744069
0.745792
0.759396
0.750136
0.751198
0.753556
0.754706
0.759436
0.770994
0.794395
0.837248
0.892345
0.936068
0.959423
0.969048
0.976193
0.986079
0.990003
0.990061
0.987763
0.982622
0.977436
0.973191
0.969316
0.967025
0.969487
0.975124
0.970883
0.937181
0.835774
0.702557
0.663563
0.661903
0.66992
0.679665
0.688482
0.685612
0.664002
0.605889
0.529963
0.462177
0.394571
0.334426
0.306614
0.29574
0.293808
0.299544
0.307124
0.314464
0.320856
0.32668
0.333348
0.342955
0.356707
0.37603
0.403464
0.441685
0.490898
0.547457
0.605558
0.657163
0.695395
0.715616
0.725444
0.731357
0.734804
0.732636
0.729453
0.729012
0.729243
0.731581
0.741122
0.754996
0.760912
0.757886
0.760646
0.777316
0.825268
0.895683
0.944112
0.97264
0.987621
0.994775
0.997923
0.999217
0.999718
0.999903
0.999968
0.999989
0.999996
0.999997
0.999997
0.999997
0.999994
0.999991
0.999989
0.999987
0.999983
0.99998
0.999975
0.999967
0.999945
0.999917
0.999889
0.999837
0.99971
0.999295
0.997616
0.994079
0.992176
0.991729
0.99187
0.992742
0.993677
0.994138
0.994197
0.99372
0.990375
0.97619
0.960045
0.953116
0.951911
0.952447
0.95313
0.952601
0.948157
0.932193
0.916685
0.908143
0.904544
0.903766
0.904215
0.907821
0.923049
0.945939
0.771865
0.829226
0.908562
0.953604
0.972362
0.982227
0.987156
0.988528
0.988544
0.985981
0.977251
0.96164
0.944701
0.931887
0.925338
0.921721
0.920153
0.919595
0.919472
0.919835
0.920489
0.921104
0.921581
0.922149
0.922982
0.924267
0.92624
0.928715
0.932608
0.940335
0.953578
0.960822
0.963531
0.965311
0.968885
0.979004
0.989992
0.995885
0.998566
0.9996
0.999896
0.999947
0.999719
0.996645
0.971818
0.84028
0.746729
0.757722
0.752725
0.752099
0.759988
0.76973
0.783977
0.807095
0.842674
0.889542
0.928223
0.950772
0.960392
0.965235
0.97162
0.984762
0.990875
0.99315
0.993474
0.992169
0.989794
0.987403
0.984727
0.981657
0.980229
0.980331
0.974885
0.943587
0.846433
0.70604
0.650451
0.634353
0.638722
0.657693
0.66333
0.642288
0.566287
0.456945
0.382843
0.341769
0.307811
0.288248
0.28222
0.288606
0.311384
0.34011
0.366195
0.384128
0.390525
0.385586
0.372242
0.36285
0.363096
0.374138
0.394666
0.425122
0.465726
0.513209
0.560767
0.603511
0.644955
0.687155
0.715264
0.730179
0.739397
0.746418
0.748803
0.748621
0.748477
0.747742
0.748111
0.756539
0.776754
0.78454
0.781497
0.782311
0.799284
0.850123
0.910477
0.952694
0.977079
0.989735
0.995717
0.998322
0.999377
0.999779
0.999925
0.999975
0.999992
0.999997
0.999999
0.999999
0.999999
0.999999
0.999999
0.999998
0.999997
0.999997
0.999996
0.999993
0.999988
0.999981
0.999971
0.999952
0.999902
0.999729
0.999008
0.996495
0.9943
0.993543
0.993514
0.993953
0.994973
0.995521
0.995624
0.995325
0.993005
0.982516
0.969917
0.964745
0.964023
0.964716
0.965837
0.965719
0.963348
0.952552
0.938352
0.929552
0.925074
0.923455
0.923353
0.924648
0.932016
0.950717
0.780746
0.838935
0.913261
0.955114
0.973151
0.982064
0.98685
0.988412
0.988466
0.986299
0.978196
0.962595
0.945856
0.93262
0.925567
0.921775
0.920062
0.919412
0.919405
0.920297
0.921933
0.92235
0.92201
0.921928
0.922157
0.923059
0.925426
0.92789
0.930884
0.936353
0.948767
0.958872
0.963165
0.964841
0.967054
0.973501
0.985865
0.993957
0.997765
0.999263
0.999781
0.999948
0.999983
0.999939
0.99858
0.978686
0.843248
0.755061
0.761386
0.756456
0.756259
0.768241
0.783726
0.80711
0.8433
0.893045
0.93071
0.950875
0.952404
0.938901
0.940034
0.962155
0.984405
0.991645
0.993877
0.994685
0.994675
0.994092
0.992984
0.991107
0.989029
0.986993
0.98117
0.957672
0.878608
0.725221
0.654029
0.628144
0.616697
0.613088
0.604287
0.577079
0.51247
0.425222
0.354773
0.318427
0.300223
0.295346
0.31027
0.37783
0.477739
0.562881
0.622435
0.653735
0.659428
0.637978
0.574304
0.498204
0.451099
0.432238
0.430924
0.442338
0.470613
0.511829
0.556424
0.594658
0.62595
0.653989
0.688363
0.718533
0.736704
0.748558
0.756976
0.760969
0.761468
0.76032
0.758675
0.759927
0.774891
0.801285
0.808983
0.808555
0.810362
0.83228
0.883996
0.930417
0.96346
0.982499
0.992267
0.996823
0.998775
0.999552
0.999843
0.999947
0.999983
0.999995
0.999998
0.999999
1
1
1
1
1
1
0.999999
0.999999
0.999998
0.999996
0.999993
0.999987
0.999968
0.999893
0.999562
0.998109
0.996001
0.995058
0.994908
0.995097
0.995911
0.99652
0.996662
0.996494
0.995013
0.98792
0.979012
0.9755
0.975089
0.97566
0.976707
0.976764
0.975712
0.970077
0.960162
0.953135
0.948719
0.946408
0.945757
0.946071
0.94892
0.959631
0.789575
0.836819
0.909975
0.952688
0.971877
0.981014
0.985928
0.987969
0.988203
0.986976
0.981378
0.967141
0.950945
0.936846
0.928178
0.923333
0.920901
0.919781
0.91964
0.919923
0.920929
0.9214
0.921503
0.921634
0.921932
0.922703
0.92513
0.928717
0.931122
0.935845
0.947593
0.958399
0.963432
0.964999
0.966635
0.970912
0.982918
0.992534
0.997245
0.999103
0.999732
0.999925
0.999981
0.999995
0.999984
0.999575
0.990737
0.870253
0.740319
0.746694
0.753752
0.761877
0.774041
0.793412
0.825006
0.878759
0.922177
0.945634
0.945713
0.93414
0.908882
0.91388
0.945189
0.97875
0.98994
0.993783
0.995106
0.995722
0.995815
0.995355
0.99435
0.992612
0.98834
0.97394
0.926199
0.77528
0.672293
0.632149
0.615843
0.601949
0.581232
0.555716
0.511653
0.436062
0.37211
0.34977
0.364123
0.451784
0.60532
0.734616
0.804121
0.839801
0.856634
0.861779
0.857986
0.841658
0.812993
0.752065
0.646869
0.579642
0.556601
0.551526
0.552634
0.566286
0.594856
0.61619
0.631673
0.649301
0.669407
0.698138
0.727281
0.746823
0.759919
0.766946
0.769613
0.770063
0.769683
0.769656
0.775213
0.802542
0.827547
0.835077
0.837193
0.843991
0.876815
0.919255
0.951671
0.97459
0.98794
0.994753
0.997883
0.999198
0.999712
0.999901
0.999967
0.999989
0.999997
0.999999
1
1
1
1
1
1
1
1
1
0.999999
0.999998
0.999996
0.999989
0.999956
0.999796
0.999047
0.997278
0.996288
0.996046
0.996119
0.996658
0.997254
0.997423
0.997341
0.996458
0.991992
0.986306
0.984224
0.98405
0.984471
0.985125
0.985174
0.984648
0.981824
0.976462
0.971987
0.968385
0.96589
0.964778
0.964724
0.965787
0.970912
0.798556
0.829734
0.900449
0.946078
0.968331
0.978783
0.984031
0.986848
0.987477
0.986879
0.984345
0.976031
0.961653
0.948036
0.935437
0.928115
0.923963
0.921693
0.920732
0.92062
0.920832
0.921091
0.921369
0.921864
0.922694
0.924235
0.927706
0.931498
0.93491
0.941636
0.95388
0.962662
0.965683
0.966208
0.966975
0.970331
0.981926
0.992085
0.997075
0.999053
0.99972
0.999922
0.999979
0.999995
0.999999
0.999995
0.999811
0.994864
0.919694
0.76254
0.741899
0.747378
0.763331
0.774624
0.787498
0.822285
0.890352
0.928344
0.937423
0.932443
0.911211
0.89553
0.90145
0.930269
0.971149
0.986729
0.992908
0.99518
0.995979
0.996245
0.996103
0.995499
0.99339
0.985926
0.961012
0.880545
0.720626
0.64977
0.622675
0.606479
0.583699
0.558442
0.522685
0.475301
0.458574
0.492566
0.604473
0.739256
0.824827
0.859137
0.875369
0.885248
0.888897
0.888543
0.881653
0.861935
0.846181
0.829188
0.789043
0.723207
0.693359
0.693043
0.702558
0.715777
0.718155
0.708711
0.681376
0.667893
0.670067
0.686921
0.71604
0.743182
0.761853
0.773647
0.779306
0.780716
0.780674
0.780777
0.78362
0.802602
0.83563
0.854007
0.861477
0.868595
0.886663
0.919014
0.947461
0.969103