/*--------------------------------*- C++ -*----------------------------------*\
  =========                 |
  \\      /  F ield         | OpenFOAM: The Open Source CFD Toolbox
   \\    /   O peration     | Website:  https://openfoam.org
    \\  /    A nd           | Version:  9
     \\/     M anipulation  |
\*---------------------------------------------------------------------------*/
FoamFile
{
    format      ascii;
    class       volVectorField;
    location    "0.05";
    object      UMean;
}
// * * * * * * * * * * * * * * * * * * * * * * * * * * * * * * * * * * * * * //

dimensions      [0 1 -1 0 0 0 0];

internalField   nonuniform List<vector> 
12225
(
(9.85112 0.0445093 0)
(9.55659 0.0611846 0)
(9.25705 0.0594428 0)
(8.95328 0.058158 0)
(8.65527 0.0573139 0)
(8.36811 0.0562434 0)
(8.09275 0.0548165 0)
(7.82749 0.0537894 0)
(7.5711 0.0524011 0)
(7.3223 0.0520667 0)
(7.07937 0.0506525 0)
(6.84277 0.052183 0)
(6.60444 0.0508147 0)
(6.37252 0.0571425 0)
(6.11819 0.0554383 0)
(5.87805 0.0727165 0)
(5.57216 0.0677345 0)
(5.29788 0.106879 0)
(10.0128 0.0517465 0)
(10.0714 0.0744372 0)
(10.1105 0.0732916 0)
(10.1253 0.0741678 0)
(10.1236 0.0772342 0)
(10.1112 0.0800276 0)
(10.0909 0.0824714 0)
(10.063 0.0845945 0)
(10.0284 0.0871605 0)
(9.9868 0.089523 0)
(9.93926 0.0930563 0)
(9.8844 0.0962827 0)
(9.82382 0.102694 0)
(9.75326 0.108524 0)
(9.67648 0.121935 0)
(9.58191 0.133142 0)
(9.48207 0.158062 0)
(9.34484 0.17097 0)
(10.0034 0.0327705 0)
(10.0347 0.0537132 0)
(10.0631 0.0568476 0)
(10.0804 0.0589945 0)
(10.091 0.063064 0)
(10.0995 0.0673107 0)
(10.1077 0.0708296 0)
(10.1147 0.0742928 0)
(10.1208 0.0776082 0)
(10.1243 0.0817715 0)
(10.127 0.0858975 0)
(10.1262 0.0920906 0)
(10.126 0.0988354 0)
(10.1208 0.109976 0)
(10.1195 0.123201 0)
(10.1117 0.143092 0)
(10.1148 0.165581 0)
(10.1092 0.185867 0)
(10.0132 0.0295889 0)
(10.0373 0.0562502 0)
(10.0608 0.0620923 0)
(10.0759 0.0635994 0)
(10.0845 0.0670671 0)
(10.0904 0.0713099 0)
(10.0958 0.0752228 0)
(10.1006 0.0786098 0)
(10.1046 0.0822001 0)
(10.1075 0.0860297 0)
(10.1098 0.0909285 0)
(10.1111 0.0966592 0)
(10.1128 0.10458 0)
(10.1143 0.114594 0)
(10.1185 0.128384 0)
(10.1258 0.145265 0)
(10.1401 0.163836 0)
(10.1618 0.178649 0)
(10.0029 0.0221593 0)
(10.0224 0.0481867 0)
(10.0426 0.0552847 0)
(10.0565 0.0574119 0)
(10.0644 0.0609198 0)
(10.0698 0.0655053 0)
(10.0749 0.0698445 0)
(10.0801 0.0737839 0)
(10.0848 0.0776339 0)
(10.0885 0.0818804 0)
(10.0914 0.0868738 0)
(10.0936 0.09297 0)
(10.0957 0.100735 0)
(10.0985 0.11047 0)
(10.103 0.122761 0)
(10.1113 0.13679 0)
(10.1237 0.150801 0)
(10.1421 0.160476 0)
(10.0021 0.0169442 0)
(10.0137 0.0436545 0)
(10.0291 0.0532067 0)
(10.0421 0.056549 0)
(10.0508 0.0600208 0)
(10.057 0.0644951 0)
(10.0622 0.0690593 0)
(10.0669 0.0733261 0)
(10.071 0.0776267 0)
(10.0744 0.0822712 0)
(10.0772 0.0875698 0)
(10.0797 0.0938074 0)
(10.0824 0.101365 0)
(10.086 0.110525 0)
(10.0912 0.121301 0)
(10.0993 0.132934 0)
(10.1102 0.143666 0)
(10.1251 0.150996 0)
(9.98898 0.0180704 0)
(9.99992 0.040052 0)
(10.0148 0.050255 0)
(10.0281 0.0542095 0)
(10.0372 0.0576092 0)
(10.0431 0.0620818 0)
(10.0476 0.0669222 0)
(10.0519 0.0714747 0)
(10.0561 0.0758605 0)
(10.06 0.0805104 0)
(10.0634 0.0857852 0)
(10.0665 0.0919551 0)
(10.0698 0.0992276 0)
(10.0739 0.10771 0)
(10.0793 0.117109 0)
(10.0872 0.12681 0)
(10.0971 0.135383 0)
(10.1101 0.141601 0)
(9.99794 0.0103712 0)
(10.0059 0.0321079 0)
(10.0159 0.0446708 0)
(10.0255 0.0507019 0)
(10.033 0.0548839 0)
(10.0384 0.0594505 0)
(10.0425 0.0643913 0)
(10.0461 0.0692411 0)
(10.0495 0.0739472 0)
(10.0528 0.0788325 0)
(10.0561 0.0842145 0)
(10.0597 0.0903277 0)
(10.0637 0.0972487 0)
(10.0686 0.105 0)
(10.0747 0.113211 0)
(10.0824 0.121415 0)
(10.0916 0.128553 0)
(10.1023 0.133958 0)
(9.99392 0.0140529 0)
(9.99906 0.0322483 0)
(10.0079 0.0439353 0)
(10.0177 0.0499445 0)
(10.026 0.0539569 0)
(10.0322 0.0583292 0)
(10.0371 0.0633036 0)
(10.0414 0.0683472 0)
(10.0455 0.07319 0)
(10.0495 0.0779864 0)
(10.0535 0.08308 0)
(10.0576 0.088773 0)
(10.0622 0.0951191 0)
(10.0676 0.102068 0)
(10.074 0.109245 0)
(10.0817 0.1163 0)
(10.0903 0.122406 0)
(10.1002 0.127229 0)
(9.98434 0.00828173 0)
(9.98876 0.025197 0)
(9.99668 0.037001 0)
(10.006 0.0446862 0)
(10.0144 0.0501375 0)
(10.0208 0.0549561 0)
(10.0259 0.0597986 0)
(10.0303 0.0647377 0)
(10.0346 0.0696542 0)
(10.039 0.0745903 0)
(10.0435 0.079683 0)
(10.0482 0.085143 0)
(10.0533 0.0910214 0)
(10.0592 0.0973069 0)
(10.0657 0.103651 0)
(10.0735 0.109797 0)
(10.0817 0.115067 0)
(10.0911 0.119351 0)
(9.973 0.0105438 0)
(9.97424 0.026112 0)
(9.97845 0.0359632 0)
(9.98534 0.0429973 0)
(9.99292 0.0486249 0)
(9.99966 0.0536886 0)
(10.0053 0.0587958 0)
(10.0103 0.0639523 0)
(10.015 0.0689708 0)
(10.0197 0.0738582 0)
(10.0242 0.0787433 0)
(10.0288 0.0838273 0)
(10.0336 0.0891188 0)
(10.039 0.0946669 0)
(10.0451 0.100155 0)
(10.0521 0.105503 0)
(10.0596 0.110103 0)
(10.0678 0.114087 0)
(9.99291 0.00954933 0)
(9.99295 0.0227636 0)
(9.99848 0.0321576 0)
(10.0071 0.0392188 0)
(10.0152 0.0448154 0)
(10.0219 0.0496896 0)
(10.0275 0.0544779 0)
(10.0329 0.0594236 0)
(10.0385 0.0644127 0)
(10.0444 0.0693418 0)
(10.0504 0.0742241 0)
(10.0562 0.0791931 0)
(10.0622 0.0842333 0)
(10.068 0.0893622 0)
(10.0743 0.0943267 0)
(10.0805 0.0990877 0)
(10.0874 0.103183 0)
(10.0936 0.106782 0)
(10.0042 0.0106314 0)
(10.004 0.0182286 0)
(10.0078 0.0275965 0)
(10.0146 0.0358758 0)
(10.0217 0.042391 0)
(10.028 0.0478689 0)
(10.0336 0.0528767 0)
(10.039 0.0576995 0)
(10.0445 0.0623886 0)
(10.0502 0.0670307 0)
(10.0561 0.0716736 0)
(10.0621 0.0764088 0)
(10.0682 0.0812208 0)
(10.0745 0.0860838 0)
(10.0811 0.0907909 0)
(10.0878 0.0952858 0)
(10.0948 0.0992365 0)
(10.1014 0.102783 0)
(10.0209 0.0133001 0)
(10.0252 0.0185093 0)
(10.0294 0.0270762 0)
(10.0341 0.0344255 0)
(10.0397 0.0398626 0)
(10.046 0.0444185 0)
(10.0524 0.0488904 0)
(10.0583 0.0533946 0)
(10.0638 0.0578916 0)
(10.0691 0.0623939 0)
(10.0744 0.0668981 0)
(10.0797 0.0714232 0)
(10.0852 0.0758963 0)
(10.091 0.0803326 0)
(10.097 0.0845659 0)
(10.1031 0.088678 0)
(10.1094 0.0923414 0)
(10.1153 0.0958734 0)
(10.0043 0.00360659 0)
(10.0107 0.0131183 0)
(10.0166 0.0212971 0)
(10.0219 0.0280228 0)
(10.0276 0.0336681 0)
(10.0338 0.0387929 0)
(10.0401 0.0437083 0)
(10.0461 0.0485527 0)
(10.0521 0.0533092 0)
(10.058 0.0578803 0)
(10.0641 0.0621793 0)
(10.0703 0.0662417 0)
(10.0768 0.0701108 0)
(10.0833 0.0739251 0)
(10.0899 0.077651 0)
(10.0965 0.0813997 0)
(10.1029 0.0849135 0)
(10.1095 0.0883958 0)
(10.0019 0.00543863 0)
(10.0021 0.0147058 0)
(10.0037 0.0208188 0)
(10.0076 0.0260082 0)
(10.0132 0.0310406 0)
(10.0197 0.0356877 0)
(10.0265 0.039839 0)
(10.0333 0.0437512 0)
(10.0402 0.0476412 0)
(10.0472 0.0515592 0)
(10.0542 0.0554182 0)
(10.0613 0.0592327 0)
(10.0681 0.0629661 0)
(10.0749 0.066753 0)
(10.0813 0.0704516 0)
(10.0878 0.0742201 0)
(10.0938 0.0776812 0)
(10.1 0.0811987 0)
(10.0007 0.00265296 0)
(9.99911 0.00718344 0)
(9.99947 0.0122095 0)
(10.0026 0.0171708 0)
(10.0076 0.0215563 0)
(10.0133 0.0254825 0)
(10.019 0.0292777 0)
(10.0248 0.0331 0)
(10.0306 0.0368966 0)
(10.0365 0.0406098 0)
(10.0424 0.0441862 0)
(10.0484 0.0476962 0)
(10.0543 0.0511266 0)
(10.0603 0.0545897 0)
(10.0661 0.0579543 0)
(10.072 0.0613526 0)
(10.0778 0.0644966 0)
(10.0836 0.0677069 0)
(10.0013 0.0147528 0)
(10.0021 0.0138155 0)
(10.0044 0.0156856 0)
(10.008 0.0185072 0)
(10.0127 0.0212002 0)
(10.0184 0.0237616 0)
(10.0247 0.0264625 0)
(10.0312 0.0293832 0)
(10.0379 0.0324211 0)
(10.0448 0.0355045 0)
(10.0518 0.038572 0)
(10.0587 0.0416549 0)
(10.0655 0.0447044 0)
(10.0721 0.0477907 0)
(10.0787 0.0508047 0)
(10.0851 0.0538943 0)
(10.0914 0.0568317 0)
(10.0974 0.059946 0)
(10.0084 -0.00104814 0)
(10.0137 -0.000243189 0)
(10.019 0.00118452 0)
(10.0242 0.00311205 0)
(10.0297 0.00513743 0)
(10.0357 0.00697996 0)
(10.0419 0.00867368 0)
(10.0484 0.0105014 0)
(10.055 0.0126589 0)
(10.0618 0.0151628 0)
(10.0685 0.0178756 0)
(10.0751 0.0206901 0)
(10.0817 0.0234811 0)
(10.0883 0.0262884 0)
(10.0949 0.0290306 0)
(10.1015 0.0318793 0)
(10.1081 0.0346358 0)
(10.1147 0.0376321 0)
(9.99786 -0.000209221 0)
(9.99989 0.00245655 0)
(10.0031 0.0028263 0)
(10.0073 0.00291717 0)
(10.0127 0.00351517 0)
(10.0189 0.00439268 0)
(10.0255 0.00534621 0)
(10.0323 0.00650735 0)
(10.0389 0.00804977 0)
(10.0456 0.00999344 0)
(10.0522 0.0121691 0)
(10.0589 0.0144062 0)
(10.0656 0.0165132 0)
(10.0723 0.0184921 0)
(10.0789 0.0202815 0)
(10.0855 0.0221036 0)
(10.092 0.0238741 0)
(10.0985 0.0259586 0)
(9.98558 -0.00340931 0)
(9.98621 -0.00518401 0)
(9.98902 -0.00688918 0)
(9.99451 -0.00796687 0)
(10.0013 -0.00860378 0)
(10.0083 -0.00884846 0)
(10.0152 -0.00852897 0)
(10.022 -0.00761045 0)
(10.029 -0.00622083 0)
(10.0362 -0.00451638 0)
(10.0434 -0.0026901 0)
(10.0506 -0.000839255 0)
(10.0578 0.000948724 0)
(10.0649 0.00273117 0)
(10.072 0.00447652 0)
(10.0788 0.0063308 0)
(10.0856 0.00817761 0)
(10.0922 0.010248 0)
(9.99661 0.000242653 0)
(9.99934 -0.0062948 0)
(10.0046 -0.0087472 0)
(10.0121 -0.0097633 0)
(10.0204 -0.0105228 0)
(10.0288 -0.0112148 0)
(10.0368 -0.0116806 0)
(10.0447 -0.0116906 0)
(10.0526 -0.0111493 0)
(10.0607 -0.0101199 0)
(10.0689 -0.00879606 0)
(10.0771 -0.00735205 0)
(10.0852 -0.0059472 0)
(10.093 -0.00459104 0)
(10.1007 -0.00332742 0)
(10.1082 -0.00201265 0)
(10.1157 -0.000718713 0)
(10.123 0.00079656 0)
(9.99264 -0.0033655 0)
(10.0003 -0.0129585 0)
(10.0083 -0.0180449 0)
(10.0158 -0.0207828 0)
(10.0229 -0.0222374 0)
(10.0297 -0.0230564 0)
(10.0363 -0.0235503 0)
(10.0429 -0.0236988 0)
(10.0495 -0.0234293 0)
(10.0562 -0.0227593 0)
(10.063 -0.0217871 0)
(10.07 -0.0206 0)
(10.0771 -0.019308 0)
(10.0842 -0.0179536 0)
(10.0913 -0.0166525 0)
(10.0984 -0.0153651 0)
(10.1054 -0.014205 0)
(10.1125 -0.0130078 0)
(10.0106 -0.0113994 0)
(10.0183 -0.0158771 0)
(10.0275 -0.0201628 0)
(10.0368 -0.02252 0)
(10.0452 -0.02343 0)
(10.0526 -0.023957 0)
(10.0596 -0.0245007 0)
(10.0665 -0.0249086 0)
(10.0736 -0.0249688 0)
(10.0808 -0.0246498 0)
(10.088 -0.0240826 0)
(10.0953 -0.0233883 0)
(10.1026 -0.022665 0)
(10.1101 -0.0219299 0)
(10.1176 -0.0212476 0)
(10.1253 -0.0205626 0)
(10.133 -0.0199589 0)
(10.1406 -0.0192934 0)
(9.98892 -0.0145036 0)
(9.99392 -0.0236211 0)
(10.0031 -0.0286931 0)
(10.0134 -0.0312588 0)
(10.0224 -0.03258 0)
(10.03 -0.0335638 0)
(10.037 -0.0344427 0)
(10.0443 -0.0350556 0)
(10.0522 -0.0352814 0)
(10.0604 -0.0351816 0)
(10.0688 -0.0348892 0)
(10.0774 -0.0344941 0)
(10.0859 -0.0340715 0)
(10.0944 -0.0336334 0)
(10.1027 -0.0332199 0)
(10.1109 -0.0327937 0)
(10.1188 -0.0323988 0)
(10.1266 -0.0319316 0)
(10.0052 -0.0124825 0)
(10.0156 -0.0265463 0)
(10.0287 -0.0308031 0)
(10.041 -0.0314864 0)
(10.051 -0.0320239 0)
(10.0592 -0.0331407 0)
(10.0668 -0.034514 0)
(10.0746 -0.0357313 0)
(10.0825 -0.036625 0)
(10.0904 -0.0371883 0)
(10.0982 -0.0374661 0)
(10.1059 -0.037495 0)
(10.1135 -0.0373419 0)
(10.1209 -0.0370457 0)
(10.1283 -0.0366872 0)
(10.1355 -0.0362872 0)
(10.1426 -0.0359233 0)
(10.1496 -0.0355667 0)
(9.988 -0.0244483 0)
(10.0022 -0.0371629 0)
(10.0165 -0.0414159 0)
(10.0278 -0.0419343 0)
(10.0367 -0.0425518 0)
(10.0445 -0.0437675 0)
(10.0523 -0.0448803 0)
(10.0604 -0.0455411 0)
(10.0683 -0.0458296 0)
(10.0761 -0.0459093 0)
(10.0837 -0.0458818 0)
(10.0912 -0.045781 0)
(10.0988 -0.0456279 0)
(10.1065 -0.0454374 0)
(10.1142 -0.0452524 0)
(10.1219 -0.0450882 0)
(10.1296 -0.0449973 0)
(10.1371 -0.0449639 0)
(9.98995 -0.0234939 0)
(10.0059 -0.0335934 0)
(10.0235 -0.0365797 0)
(10.0375 -0.0374594 0)
(10.0484 -0.0390544 0)
(10.0583 -0.0410287 0)
(10.0682 -0.0426529 0)
(10.0782 -0.0438468 0)
(10.088 -0.044793 0)
(10.0972 -0.0456171 0)
(10.1061 -0.0463031 0)
(10.1147 -0.0468373 0)
(10.1232 -0.0471929 0)
(10.1317 -0.0474269 0)
(10.1402 -0.0475423 0)
(10.1486 -0.0476327 0)
(10.157 -0.0476977 0)
(10.165 -0.0478378 0)
(9.99883 -0.037838 0)
(10.0337 -0.0526422 0)
(10.0636 -0.0515726 0)
(10.0842 -0.0512301 0)
(10.0978 -0.0527572 0)
(10.1069 -0.0542358 0)
(10.1133 -0.0550344 0)
(10.1172 -0.0553553 0)
(10.119 -0.0554647 0)
(10.1187 -0.0555294 0)
(10.1169 -0.0555943 0)
(10.1139 -0.05571 0)
(10.1099 -0.0558291 0)
(10.1055 -0.0559813 0)
(10.1002 -0.056072 0)
(10.0946 -0.0561856 0)
(10.0879 -0.0562467 0)
(10.0814 -0.0564337 0)
(9.91192 -0.0368895 0)
(9.74305 -0.0495807 0)
(9.57469 -0.0480622 0)
(9.40568 -0.0468677 0)
(9.23959 -0.0468233 0)
(9.07896 -0.046714 0)
(8.92499 -0.0462743 0)
(8.77808 -0.0456702 0)
(8.63795 -0.045047 0)
(8.50427 -0.0444798 0)
(8.37645 -0.043977 0)
(8.25439 -0.0435248 0)
(8.13738 -0.0430405 0)
(8.02589 -0.0424868 0)
(7.91888 -0.0417914 0)
(7.81775 -0.0410309 0)
(7.72012 -0.0402002 0)
(7.6292 -0.0394879 0)
(-0.240565 0.486156 -8.18396e-22)
(-0.553263 0.257402 8.47242e-22)
(-0.734786 0.0632239 0)
(-0.786375 -0.11466 0)
(-0.644642 -0.30171 0)
(-0.349612 -0.454539 -8.15022e-22)
(0.0709223 -0.558253 0)
(0.57441 -0.601378 0)
(1.10589 -0.597484 0)
(1.62797 -0.560538 0)
(2.11332 -0.498179 8.34369e-22)
(2.54799 -0.423253 0)
(2.91984 -0.343113 0)
(3.22221 -0.262739 0)
(3.45323 -0.184703 0)
(3.61406 -0.110222 1.3462e-21)
(3.70607 -0.0391811 0)
(3.73214 0.0283225 0)
(3.69301 0.0932265 0)
(3.59354 0.154154 0)
(3.43241 0.211555 0)
(3.2225 0.259719 0)
(2.95728 0.301628 0)
(2.66421 0.316457 1.22268e-21)
(2.32655 0.340354 -1.17792e-21)
(1.98338 0.300792 1.14668e-21)
(1.64311 0.211764 1.13168e-21)
(1.29942 0.0725911 0)
(1.02146 -0.00846242 0)
(0.717626 0.139149 -1.15657e-21)
(0.354946 0.244692 -1.19049e-21)
(-0.0666399 0.284272 0)
(-0.514424 0.281578 0)
(-0.929666 0.235251 -1.3713e-21)
(-1.27127 0.165935 0)
(-1.53204 0.08984 0)
(-1.69602 0.0188549 1.4827e-21)
(-1.78589 -0.0188709 0)
(-1.8431 -0.0142936 1.58237e-21)
(-1.93051 0.0447361 3.35753e-21)
(-2.09428 0.103493 0)
(-2.31725 0.110113 0)
(-2.576 0.102902 0)
(-2.82899 0.0658743 0)
(-3.00778 0.047208 0)
(-3.187 0.0378689 4.13556e-21)
(-3.35417 -0.135867 4.25479e-21)
(-3.56445 -0.165298 4.39671e-21)
(-3.78997 0.145075 0)
(-4.24651 0.300987 -4.48093e-21)
(-4.63611 0.261061 0)
(-5.00827 0.253815 4.67229e-21)
(-5.37404 0.255204 4.8216e-21)
(-5.72805 0.254586 0)
(-6.0517 0.235648 0)
(-6.37339 0.144786 0)
(-6.68862 0.209725 5.62516e-21)
(-7.12279 0.30301 0)
(-7.52179 0.266771 0)
(-7.85559 0.23789 0)
(-8.15108 0.201861 0)
(-8.38814 0.170571 0)
(-8.58112 0.13401 0)
(-8.72116 0.0999148 0)
(-8.82179 0.069653 0)
(-8.88264 0.0443522 -7.41435e-21)
(-8.91139 0.0224705 0)
(-8.90871 0.00379251 0)
(-8.87972 -0.0125492 7.33331e-21)
(-8.8252 -0.026975 7.21175e-21)
(-8.74792 -0.0400158 0)
(-8.64921 -0.0518134 -6.84586e-21)
(-8.531 -0.0624483 6.6102e-21)
(-8.39491 -0.0718443 0)
(-8.243 -0.0799841 -6.05834e-21)
(-8.07719 -0.0868741 0)
(-7.89944 -0.0926272 0)
(-7.71139 -0.097417 5.10524e-21)
(-7.51439 -0.101477 0)
(-7.30926 -0.105089 -4.4346e-21)
(-7.09639 -0.108519 0)
(-6.87565 -0.112031 3.75715e-21)
(-6.64644 -0.115854 3.4172e-21)
(-6.40785 -0.120144 3.07592e-21)
(-6.1587 -0.124972 5.46512e-21)
(-5.89781 -0.130384 -4.77281e-21)
(-5.62402 -0.136265 0)
(-5.3363 -0.142426 0)
(-5.03405 -0.148598 0)
(-4.71727 -0.154433 -1.94993e-21)
(-4.38686 -0.159629 -1.24345e-21)
(-4.04437 -0.163817 5.48082e-22)
(-3.69217 -0.166648 0)
(-3.33313 -0.167906 7.74248e-22)
(-2.97059 -0.167469 1.3832e-21)
(-2.60783 -0.165399 1.94714e-21)
(-2.24783 -0.161899 0)
(-1.89303 -0.157285 0)
(-1.54537 -0.151887 0)
(-1.20615 -0.146021 3.69363e-21)
(-0.876396 -0.140272 0)
(-0.5567 -0.134224 0)
(-0.247023 -0.128223 -4.51105e-21)
(0.0522768 -0.122155 0)
(0.341047 -0.116083 0)
(0.619006 -0.109932 -5.01575e-21)
(0.885833 -0.103745 0)
(1.1411 -0.0975342 0)
(1.38443 -0.0913869 5.28736e-21)
(1.61561 -0.0852717 5.33547e-21)
(1.83469 -0.0792425 0)
(2.0417 -0.0733094 -5.3783e-21)
(2.23673 -0.0675398 0)
(2.41993 -0.061959 5.36024e-21)
(2.59165 -0.056607 0)
(2.75206 -0.0516432 5.29316e-21)
(2.90149 -0.0468013 5.2447e-21)
(3.04053 -0.0422446 0)
(3.16947 -0.0379236 0)
(3.28875 -0.0338047 0)
(3.39878 -0.0299083 0)
(3.49992 -0.0262262 0)
(3.59257 -0.022749 0)
(3.6771 -0.0194642 0)
(3.75388 -0.0163583 4.67741e-21)
(3.82327 -0.0134215 -4.60092e-21)
(3.88562 -0.0106459 0)
(3.94124 -0.00802058 0)
(3.99043 -0.00553607 0)
(4.03344 -0.00317854 0)
(4.07053 -0.00093555 -8.50091e-21)
(4.10189 0.00120809 0)
(4.12768 0.00326867 8.26278e-21)
(4.14801 0.00526298 -8.15402e-21)
(4.16295 0.00720468 0)
(4.17254 0.00910324 0)
(4.17675 0.0109646 0)
(4.17556 0.0127923 7.7855e-21)
(4.16891 0.0145834 7.70842e-21)
(4.15675 0.0163326 0)
(4.13908 0.0180268 7.5692e-21)
(4.11594 0.0196338 7.50617e-21)
(4.08746 0.0211082 -7.44699e-21)
(4.05392 0.0224067 0)
(4.01566 0.0234987 0)
(3.9731 0.0243906 -7.28926e-21)
(3.92665 0.0251307 0)
(3.87671 0.0257089 0)
(3.82376 0.0260375 0)
(3.7684 0.0261188 0)
(3.71108 0.0260558 7.07182e-21)
(3.65217 0.0257834 7.03194e-21)
(3.59238 0.0249377 0)
(3.53314 0.023173 6.95325e-21)
(3.47632 0.020564 0)
(3.42342 0.0175865 0)
(3.37516 0.0147749 6.83937e-21)
(3.33144 0.0125207 0)
(3.29155 0.0110358 6.76846e-21)
(3.25452 0.0103246 0)
(3.2192 0.0101748 0)
(3.18472 0.010296 6.66471e-21)
(3.15025 0.0104797 0)
(3.1157 0.0106192 6.59344e-21)
(3.08087 0.0105798 0)
(3.04681 0.0101233 0)
(3.01381 0.00912354 0)
(2.9838 0.00769731 -6.44911e-21)
(2.95588 0.00640211 0)
(2.9315 0.00545153 6.38506e-21)
(2.90715 0.0053722 0)
(2.88414 0.00550279 0)
(2.85771 0.00699855 0)
(2.82805 0.00768429 0)
(2.7942 0.011752 0)
(2.74292 0.0122837 0)
(2.70009 0.0231938 0)
(2.58513 0.0212131 -1.25208e-20)
(2.55015 0.0545351 0)
(2.2268 0.0436005 0)
(-0.00462852 1.02699 2.55902e-21)
(0.0136517 0.698691 -2.62012e-21)
(0.0192324 0.341371 0)
(0.184121 -0.0624262 1.85327e-21)
(0.491554 -0.593609 0)
(0.917213 -1.07498 8.11057e-22)
(1.40142 -1.40292 -1.82174e-21)
(1.88322 -1.56897 -1.84857e-21)
(2.33305 -1.59358 0)
(2.73727 -1.51338 -2.09508e-21)
(3.08977 -1.36379 -8.31719e-22)
(3.38676 -1.17625 0)
(3.62709 -0.972205 0)
(3.81326 -0.764644 0)
(3.94858 -0.56129 0)
(4.03646 -0.36609 -1.34248e-21)
(4.07955 -0.181347 0)
(4.08158 -0.00756661 3.30963e-21)
(4.04456 0.154284 0)
(3.97093 0.305719 0)
(3.86211 0.443882 -3.15975e-21)
(3.71859 0.57031 0)
(3.54791 0.673822 2.941e-21)
(3.34559 0.767151 -1.2159e-21)
(3.13125 0.816979 1.1707e-21)
(2.87233 0.837015 -1.1391e-21)
(2.541 0.915177 -1.12384e-21)
(2.11926 0.979088 0)
(1.61306 0.979044 0)
(1.04523 0.963454 1.15208e-21)
(0.53176 0.997588 -1.54499e-21)
(0.0788719 1.04623 0)
(-0.357453 1.03414 0)
(-0.740379 0.929084 1.37059e-21)
(-1.08809 0.746691 0)
(-1.38652 0.520147 0)
(-1.61318 0.274827 -1.47881e-21)
(-1.7948 0.108672 0)
(-1.97464 0.112703 2.16682e-21)
(-2.18008 0.26862 -3.34776e-21)
(-2.4284 0.440246 0)
(-2.71193 0.583176 0)
(-3.0214 0.601719 -8.51371e-21)
(-3.39467 0.479059 -8.63408e-21)
(-3.79982 0.427349 -8.84697e-21)
(-4.13243 0.441838 4.95269e-21)
(-4.59237 0.619989 -4.24499e-21)
(-5.11882 0.748012 -1.40761e-20)
(-5.44305 0.777596 9.90776e-21)
(-5.79216 0.777084 4.46775e-21)
(-6.07788 0.726877 0)
(-6.37357 0.708188 -4.6596e-21)
(-6.62743 0.664538 5.80907e-21)
(-6.88891 0.6165 0)
(-7.14417 0.606712 0)
(-7.49721 0.702635 0)
(-7.81398 0.763542 -5.61646e-21)
(-8.09639 0.733797 0)
(-8.33447 0.641971 1.28917e-20)
(-8.54188 0.553249 0)
(-8.71192 0.455111 1.38258e-20)
(-8.8395 0.360389 0)
(-8.93363 0.268597 -1.46107e-20)
(-8.99633 0.18903 0)
(-9.03322 0.118445 1.51007e-20)
(-9.04439 0.0568209 -7.79883e-21)
(-9.03254 0.0013881 0)
(-8.99765 -0.048516 -1.51442e-20)
(-8.9403 -0.0942353 -7.33288e-21)
(-8.86072 -0.136138 -7.21145e-21)
(-8.75993 -0.174542 0)
(-8.63864 -0.209364 -7.083e-21)
(-8.49866 -0.240496 -6.60967e-21)
(-8.34174 -0.267764 0)
(-8.17002 -0.291142 6.05769e-21)
(-7.98554 -0.310755 -1.16682e-20)
(-7.79033 -0.326945 0)
(-7.5861 -0.340259 -5.10469e-21)
(-7.37419 -0.351392 0)
(-7.15541 -0.361173 1.34287e-20)
(-6.93011 -0.370419 0)
(-6.69808 -0.379927 -1.13945e-20)
(-6.45865 -0.390376 -3.41727e-21)
(-6.21076 -0.402275 3.20399e-21)
(-5.95306 -0.415876 5.72802e-21)
(-5.68402 -0.431218 -5.04178e-21)
(-5.40225 -0.448011 0)
(-5.1067 -0.465711 0)
(-4.79671 -0.483562 0)
(-4.47221 -0.500621 6.1148e-21)
(-4.13381 -0.515829 1.24468e-21)
(-3.78323 -0.528049 -5.49336e-22)
(-3.42293 -0.536251 0)
(-3.05616 -0.539746 5.82657e-22)
(-2.6865 -0.538238 -1.38177e-21)
(-2.31752 -0.531918 -1.94563e-21)
(-1.95227 -0.521425 0)
(-1.59315 -0.507693 0)
(-1.2419 -0.491783 0)
(-0.899696 -0.474782 -3.69144e-21)
(-0.567104 -0.457399 0)
(-0.244291 -0.439815 8.45339e-21)
(0.068854 -0.422315 1.3432e-20)
(0.372177 -0.404784 -9.32591e-21)
(0.66557 -0.387197 0)
(0.948765 -0.369405 -4.93784e-21)
(1.22146 -0.35144 0)
(1.48317 -0.333369 -1.03693e-20)
(1.73353 -0.315361 5.22662e-21)
(1.97242 -0.297382 5.28001e-21)
(2.19988 -0.279555 0)
(2.41597 -0.262047 1.6083e-20)
(2.62074 -0.245012 -1.07074e-20)
(2.81436 -0.22858 -5.35726e-21)
(2.9971 -0.212794 0)
(3.16931 -0.197838 -5.28988e-21)
(3.33133 -0.183502 -1.56976e-20)
(3.48361 -0.169865 0)
(3.62654 -0.156909 -1.02206e-20)
(3.76055 -0.144605 -1.00853e-20)
(3.88602 -0.132966 -9.94179e-21)
(4.00338 -0.121974 0)
(4.11302 -0.11161 0)
(4.21535 -0.101848 0)
(4.31076 -0.0926629 4.65754e-21)
(4.39964 -0.0840246 4.5976e-21)
(4.48233 -0.0759026 0)
(4.5592 -0.0682632 8.88471e-21)
(4.63057 -0.0610681 8.7444e-21)
(4.69673 -0.0542732 0)
(4.75793 -0.0478324 8.49405e-21)
(4.81442 -0.0416963 1.67189e-20)
(4.86635 -0.0358137 -8.25578e-21)
(4.91388 -0.0301323 -8.12552e-21)
(4.9571 -0.0246029 0)
(4.99606 -0.0191788 0)
(5.03074 -0.0138229 0)
(5.0611 -0.00851012 -7.77794e-21)
(5.08709 -0.00323197 7.68679e-21)
(5.10863 0.00199808 1.52448e-20)
(5.12568 0.00713577 -7.56128e-21)
(5.13827 0.012106 7.48807e-21)
(5.1465 0.0168244 7.4388e-21)
(5.15057 0.0212142 0)
(5.15079 0.0252153 0)
(5.14757 0.0287963 -7.27414e-21)
(5.14137 0.0319547 0)
(5.13276 0.0346809 0)
(5.12216 0.0369476 1.42855e-20)
(5.10979 0.0387682 0)
(5.09581 0.0402059 7.05911e-21)
(5.08039 0.041235 -7.02225e-21)
(5.06355 0.0416384 0)
(5.04526 0.0411138 6.94274e-21)
(5.02571 0.0395495 0)
(5.00529 0.0371652 0)
(4.98429 0.0343836 -6.82922e-21)
(4.96276 0.0315964 1.35888e-20)
(4.94059 0.0290611 -6.75832e-21)
(4.91785 0.0269398 0)
(4.89503 0.0253636 0)
(4.87282 0.0243961 6.65501e-21)
(4.85154 0.0239262 0)
(4.83114 0.0236102 6.58347e-21)
(4.81128 0.0231293 0)
(4.79202 0.0221969 0)
(4.77351 0.0208968 0)
(4.75624 0.0191518 6.43947e-21)
(4.74018 0.0176101 0)
(4.72513 0.0160562 -6.37558e-21)
(4.71081 0.0159267 0)
(4.6956 0.0156601 0)
(4.6806 0.0184309 1.25908e-20)
(4.65988 0.0192893 -1.25477e-20)
(4.6415 0.0271625 0)
(4.60467 0.0282513 0)
(4.5828 0.0479167 0)
(4.50462 0.0479239 3.74413e-20)
(4.48953 0.100422 0)
(4.30484 0.101919 -2.49918e-20)
(0.0948332 0.641102 -5.94391e-23)
(0.228234 0.405802 3.44958e-21)
(0.498626 -0.174384 0)
(0.963511 -0.943102 -3.64886e-21)
(1.49435 -1.65175 0)
(1.99247 -2.16594 0)
(2.40098 -2.44113 -4.12721e-22)
(2.71159 -2.4887 1.84197e-21)
(2.94073 -2.36173 2.60923e-21)
(3.10867 -2.12323 2.0896e-21)
(3.23407 -1.82757 0)
(3.32497 -1.51445 0)
(3.38829 -1.20676 -3.46953e-21)
(3.42808 -0.91408 -7.26308e-21)
(3.44632 -0.639297 7.51138e-21)
(3.44351 -0.38244 0)
(3.42069 -0.143112 7.75924e-21)
(3.37889 0.0794071 -3.31034e-21)
(3.3201 0.285705 0)
(3.24645 0.476549 7.54416e-21)
(3.16143 0.651788 3.15909e-21)
(3.06231 0.806949 -7.13083e-21)
(2.95271 0.946741 -2.93824e-21)
(2.83341 1.04301 0)
(2.69149 1.13547 6.41723e-21)
(2.46988 1.31132 6.2262e-21)
(2.20771 1.48989 0)
(1.89144 1.67572 5.98436e-21)
(1.52581 1.821 0)
(1.12255 1.88869 6.0172e-21)
(0.693564 1.86941 2.71764e-21)
(0.294817 1.79407 0)
(-0.0737835 1.67179 0)
(-0.390233 1.48134 0)
(-0.696292 1.25025 0)
(-0.959798 0.967408 0)
(-1.22451 0.69919 0)
(-1.4845 0.534079 8.01601e-21)
(-1.78584 0.561889 -1.21238e-20)
(-2.14755 0.737876 0)
(-2.51966 0.930136 0)
(-2.94916 1.0459 0)
(-3.32755 1.17537 -8.30235e-22)
(-3.80884 1.199 8.62478e-21)
(-4.26633 1.16288 1.85132e-20)
(-4.70632 1.18875 -1.90473e-20)
(-5.12523 1.23431 -1.03093e-20)
(-5.49262 1.23265 9.68075e-21)
(-5.76981 1.21051 1.04001e-21)
(-6.03999 1.17179 1.11681e-20)
(-6.26625 1.11769 0)
(-6.49806 1.05287 1.15408e-20)
(-6.715 0.999386 1.09901e-21)
(-6.99358 1.01182 0)
(-7.27205 1.05474 0)
(-7.54272 1.08602 -1.25842e-20)
(-7.74299 1.05273 0)
(-7.91446 0.975233 0)
(-8.06273 0.867533 1.47728e-20)
(-8.19222 0.741238 2.85122e-20)
(-8.29245 0.60147 -1.38383e-20)
(-8.37268 0.468826 0)
(-8.43368 0.346292 1.4626e-20)
(-8.47684 0.237572 0)
(-8.5 0.139058 1.62642e-20)
(-8.50273 0.0501124 1.52293e-20)
(-8.48371 -0.0320881 -3.14875e-20)
(-8.44263 -0.108361 -1.61005e-20)
(-8.3791 -0.179807 0)
(-8.29365 -0.246416 3.02666e-20)
(-8.18709 -0.308075 0)
(-8.06101 -0.364194 4.25443e-20)
(-7.91721 -0.414269 2.75565e-20)
(-7.75789 -0.457847 2.6402e-20)
(-7.5854 -0.494821 -2.51599e-20)
(-7.40214 -0.525397 3.55342e-20)
(-7.21036 -0.550207 0)
(-7.012 -0.570218 0)
(-6.8085 -0.586705 -1.97578e-20)
(-6.60065 -0.601112 -2.73865e-20)
(-6.38855 -0.614906 0)
(-6.17167 -0.629483 7.64448e-21)
(-5.94887 -0.646025 0)
(-5.71851 -0.665398 -1.92512e-20)
(-5.47865 -0.688014 4.07215e-22)
(-5.22719 -0.713787 -4.19921e-22)
(-4.96214 -0.742176 8.86007e-21)
(-4.68184 -0.772191 0)
(-4.38514 -0.802492 -6.03094e-21)
(-4.07161 -0.831411 4.22226e-22)
(-3.74179 -0.857061 0)
(-3.39745 -0.877437 0)
(-3.04155 -0.890757 0)
(-2.67804 -0.895786 -1.35188e-21)
(-2.3114 -0.892085 0)
(-1.94607 -0.880008 0)
(-1.58582 -0.860702 0)
(-1.23338 -0.8359 0)
(-0.890695 -0.807846 0)
(-0.558709 -0.778222 -7.09097e-21)
(-0.237452 -0.748302 0)
(0.0732888 -0.718655 -8.44813e-21)
(0.373981 -0.689538 -8.91884e-21)
(0.664753 -0.660775 9.32111e-21)
(0.945745 -0.632205 0)
(1.21675 -0.603437 9.94652e-21)
(1.47751 -0.57442 0)
(1.72761 -0.54523 1.03657e-20)
(1.96666 -0.515839 -1.05076e-20)
(2.19467 -0.486415 -3.16524e-20)
(2.41156 -0.457246 0)
(2.61743 -0.428651 -3.19684e-20)
(2.81243 -0.400906 -1.05737e-20)
(2.99673 -0.374164 0)
(3.17067 -0.348551 -2.11376e-20)
(3.33458 -0.324089 -2.09965e-20)
(3.48884 -0.300772 3.12679e-20)
(3.63386 -0.278621 0)
(3.77004 -0.257624 1.0217e-20)
(3.89779 -0.237773 1.0082e-20)
(4.0175 -0.21905 2.97492e-20)
(4.12957 -0.201429 0)
(4.23439 -0.184877 0)
(4.33235 -0.169355 0)
(4.42381 -0.154816 9.27433e-21)
(4.50914 -0.141204 0)
(4.58867 -0.128466 0)
(4.66271 -0.116544 -8.88295e-21)
(4.73157 -0.105368 -8.74275e-21)
(4.79553 -0.0948668 0)
(4.85484 -0.084962 0)
(4.90971 -0.0755736 -1.67161e-20)
(4.96031 -0.0666211 0)
(5.00679 -0.0580178 1.627e-20)
(5.04925 -0.049675 1.60354e-20)
(5.08773 -0.041511 0)
(5.12227 -0.0334541 0)
(5.15286 -0.0254605 -1.55138e-20)
(5.17947 -0.017517 -2.20454e-23)
(5.20208 -0.00964539 -1.96489e-23)
(5.22072 -0.00191783 0)
(5.23543 0.00554403 -2.99533e-20)
(5.24631 0.0125786 0)
(5.25352 0.0190097 0)
(5.25727 0.024685 0)
(5.25793 0.0295244 1.45528e-20)
(5.25599 0.0335067 0)
(5.25212 0.0366876 -2.8726e-20)
(5.24715 0.0391897 -1.42834e-20)
(5.2419 0.0411585 0)
(5.23695 0.0427357 -1.41192e-20)
(5.23246 0.0439568 0)
(5.22806 0.0446123 0)
(5.22312 0.0443136 -4.16493e-20)
(5.21708 0.0428488 2.76147e-20)
(5.20988 0.0404895 0)
(5.20183 0.037915 2.73195e-20)
(5.19311 0.035791 -1.35856e-20)
(5.18346 0.0343916 0)
(5.17236 0.0334998 0)
(5.15959 0.0326838 0)
(5.14564 0.0316778 -3.99185e-20)
(5.13168 0.0306378 0)
(5.11868 0.029764 -1.31634e-20)
(5.10689 0.0290279 0)
(5.09559 0.0278553 0)
(5.08433 0.0260279 0)
(5.07262 0.0233366 0)
(5.06125 0.02081 0)
(5.04991 0.0184129 0)
(5.04013 0.0180425 -2.53745e-20)
(5.02981 0.0178834 0)
(5.0216 0.0214938 -1.25869e-20)
(5.00952 0.0235387 3.76129e-20)
(5.00063 0.033327 0)
(4.98094 0.0374503 0)
(4.9696 0.059988 -2.48799e-20)
(4.93363 0.0680582 -2.49301e-20)
(4.92183 0.121638 2.48346e-20)
(4.86127 0.144674 2.49799e-20)
(-0.024981 0.237397 -5.01549e-21)
(0.306415 -0.231848 -5.03929e-21)
(0.916425 -1.29896 -3.55505e-21)
(1.50889 -2.18745 -2.12343e-21)
(1.99059 -2.77313 0)
(2.30762 -3.02046 4.92646e-21)
(2.46459 -2.97769 -3.24404e-21)
(2.51191 -2.73371 0)
(2.51135 -2.40906 -2.60816e-21)
(2.48777 -2.07126 0)
(2.46783 -1.73512 7.46883e-21)
(2.45403 -1.40923 0)
(2.44402 -1.0972 3.4751e-21)
(2.43294 -0.79944 7.27613e-21)
(2.4156 -0.516827 -7.52561e-21)
(2.38838 -0.250507 0)
(2.35033 -0.00169828 -7.77427e-21)
(2.30115 0.229008 0)
(2.24218 0.442486 0)
(2.17532 0.639517 -7.55705e-21)
(2.10555 0.821688 0)
(2.03034 0.98745 -9.84048e-22)
(1.96013 1.11849 0)
(1.86488 1.26579 0)
(1.72176 1.4758 1.00138e-21)
(1.55399 1.70231 -6.22476e-21)
(1.36584 1.93458 -7.06515e-21)
(1.16705 2.14579 -5.97609e-21)
(0.958405 2.30874 0)
(0.737936 2.40806 -1.28228e-20)
(0.485932 2.42381 0)
(0.215771 2.35485 -6.90331e-21)
(-0.0684302 2.21755 0)
(-0.344159 2.01536 0)
(-0.630523 1.7651 7.377e-21)
(-0.905099 1.45969 0)
(-1.21249 1.2159 -7.88097e-21)
(-1.55109 1.12589 2.44809e-22)
(-1.95704 1.25375 1.7083e-20)
(-2.41608 1.50622 -1.82359e-20)
(-2.88773 1.75469 0)
(-3.33815 1.86686 0)
(-3.74217 1.91232 -1.04466e-20)
(-4.13451 1.86145 0)
(-4.50623 1.80607 -9.66916e-21)
(-4.8655 1.79836 9.9764e-21)
(-5.16696 1.75667 1.03066e-20)
(-5.41762 1.67763 0)
(-5.62998 1.5919 -1.0945e-20)
(-5.83553 1.50004 -1.11749e-20)
(-6.02921 1.42073 2.48572e-20)
(-6.24847 1.37688 -1.15492e-20)
(-6.49218 1.38296 -1.17303e-20)
(-6.765 1.40119 0)
(-6.99747 1.38154 0)
(-7.18667 1.33603 1.25966e-20)
(-7.32466 1.26336 0)
(-7.44936 1.16209 0)
(-7.54923 1.02299 -2.77031e-20)
(-7.63167 0.86299 -2.85427e-20)
(-7.69798 0.699636 0)
(-7.75583 0.546781 0)
(-7.80114 0.404348 0)
(-7.83341 0.272934 0)
(-7.84872 0.150037 -3.14222e-20)
(-7.84585 0.0350839 3.28584e-20)
(-7.82211 -0.0737089 3.15307e-20)
(-7.7766 -0.176699 6.37747e-20)
(-7.7082 -0.27429 0)
(-7.6172 -0.365857 1.03124e-21)
(-7.50408 -0.450703 0)
(-7.37042 -0.527657 -2.86392e-20)
(-7.21825 -0.595782 8.1694e-22)
(-7.05035 -0.654304 -2.64381e-20)
(-6.86975 -0.702963 2.51944e-20)
(-6.67969 -0.742032 6.09537e-22)
(-6.48328 -0.772471 0)
(-6.28325 -0.795813 2.16747e-20)
(-6.08168 -0.814058 1.97851e-20)
(-5.87985 -0.829524 3.72768e-20)
(-5.67814 -0.8446 0)
(-5.47606 -0.861541 -1.61399e-20)
(-5.27224 -0.882241 0)
(-5.06452 -0.908036 2.64536e-20)
(-4.85018 -0.939556 -1.16258e-20)
(-4.62626 -0.97666 1.02568e-20)
(-4.38976 -1.01849 -8.87061e-21)
(-4.13795 -1.06345 -1.60612e-20)
(-3.86857 -1.10936 6.03838e-21)
(-3.58014 -1.15351 -4.59783e-21)
(-3.27225 -1.19292 0)
(-2.94597 -1.22452 4.46644e-21)