/*--------------------------------*- C++ -*----------------------------------*\
  =========                 |
  \\      /  F ield         | OpenFOAM: The Open Source CFD Toolbox
   \\    /   O peration     | Website:  https://openfoam.org
    \\  /    A nd           | Version:  9
     \\/     M anipulation  |
\*---------------------------------------------------------------------------*/
FoamFile
{
    format      ascii;
    class       volScalarField;
    location    "0.002";
    object      k;
}
// * * * * * * * * * * * * * * * * * * * * * * * * * * * * * * * * * * * * * //

dimensions      [0 2 -2 0 0 0 0];

internalField   nonuniform List<scalar> 
12225
(
1.96902e-05
2.27685e-05
4.9144e-05
9.177e-05
0.000103171
0.000102208
0.000100604
0.0001038
0.000125792
0.000236571
0.000472488
0.00120609
0.00131739
0.0015406
0.00167493
0.00258289
0.00376568
0.0114095
2.00013e-05
2.04776e-05
2.48169e-05
3.35241e-05
3.66061e-05
3.72065e-05
3.76137e-05
3.85882e-05
4.21421e-05
5.43604e-05
9.14031e-05
0.000166584
0.000208224
0.000243402
0.000247476
0.000256423
0.000254056
0.000297936
2.00191e-05
1.16259e-05
1.0922e-05
1.14201e-05
1.28852e-05
1.49672e-05
1.64653e-05
1.72769e-05
1.80585e-05
1.95559e-05
2.359e-05
3.03194e-05
3.55613e-05
3.95654e-05
4.15958e-05
4.30137e-05
4.32774e-05
4.43075e-05
2.09183e-05
2.09977e-05
2.00063e-05
1.89233e-05
1.87829e-05
1.90926e-05
1.949e-05
2.00222e-05
2.04071e-05
2.06274e-05
2.0954e-05
2.17756e-05
2.46362e-05
3.28669e-05
3.92134e-05
4.81854e-05
5.18639e-05
5.91786e-05
2.13723e-05
2.16442e-05
2.08552e-05
2.06475e-05
2.1277e-05
2.2832e-05
2.35873e-05
2.38783e-05
2.41607e-05
2.47734e-05
2.66072e-05
3.30727e-05
4.98823e-05
6.37886e-05
7.24017e-05
7.67474e-05
7.82771e-05
7.83206e-05
2.05309e-05
2.0775e-05
2.08427e-05
2.11604e-05
2.28229e-05
2.69993e-05
2.92962e-05
3.00706e-05
3.04049e-05
3.09834e-05
3.27235e-05
3.94571e-05
5.64461e-05
6.96655e-05
7.73698e-05
8.08392e-05
8.17351e-05
8.15206e-05
2.00842e-05
2.10408e-05
2.15837e-05
2.17411e-05
2.19653e-05
2.2559e-05
2.2945e-05
2.31586e-05
2.35164e-05
2.44099e-05
2.72045e-05
3.75669e-05
5.76868e-05
7.21121e-05
7.97325e-05
8.25439e-05
8.29895e-05
8.25354e-05
2.02537e-05
2.04004e-05
2.10935e-05
2.26747e-05
2.3329e-05
2.33809e-05
2.3113e-05
2.29442e-05
2.30667e-05
2.40012e-05
2.78788e-05
4.2059e-05
5.93008e-05
7.03523e-05
7.66019e-05
7.93186e-05
7.9937e-05
7.96668e-05
2.08528e-05
2.02697e-05
2.03776e-05
2.18151e-05
2.49768e-05
2.60196e-05
2.58924e-05
2.46986e-05
2.41198e-05
2.43185e-05
2.61231e-05
3.43885e-05
5.27661e-05
6.65765e-05
7.5266e-05
8.00851e-05
8.2331e-05
8.28129e-05
2.29814e-05
2.08535e-05
2.17993e-05
2.55144e-05
2.66557e-05
2.62755e-05
2.41485e-05
2.28218e-05
2.26818e-05
2.31326e-05
2.55495e-05
3.50414e-05
5.68472e-05
7.45367e-05
8.58572e-05
9.16016e-05
9.3501e-05
9.3439e-05
2.0836e-05
2.23958e-05
3.27037e-05
4.63211e-05
4.82966e-05
4.43181e-05
3.23282e-05
2.61239e-05
2.44252e-05
2.44855e-05
2.63034e-05
3.49122e-05
5.88623e-05
7.83281e-05
8.95578e-05
9.44692e-05
9.56561e-05
9.5399e-05
2.06356e-05
2.1282e-05
2.57845e-05
3.30007e-05
3.45957e-05
3.30347e-05
2.72583e-05
2.4068e-05
2.32871e-05
2.34492e-05
2.5043e-05
3.18721e-05
5.26195e-05
7.19669e-05
8.42035e-05
9.04701e-05
9.26294e-05
9.26265e-05
2.04305e-05
2.29894e-05
2.58553e-05
2.46078e-05
2.42993e-05
2.35223e-05
2.23252e-05
2.2004e-05
2.21055e-05
2.30037e-05
2.66491e-05
4.04548e-05
6.70523e-05
8.66645e-05
9.80428e-05
0.000103004
0.00010415
0.000103503
3.17251e-05
3.3069e-05
2.49459e-05
2.19578e-05
2.11864e-05
2.10541e-05
2.10803e-05
2.12493e-05
2.17513e-05
2.31963e-05
2.7593e-05
4.32672e-05
7.12121e-05
9.14458e-05
0.000102836
0.00010751
0.000108432
0.000107585
2.4873e-05
3.25294e-05
3.38077e-05
2.91475e-05
2.26933e-05
2.10018e-05
2.07086e-05
2.07523e-05
2.11498e-05
2.25618e-05
2.6908e-05
4.19477e-05
7.29053e-05
9.66929e-05
0.000110386
0.000116508
0.000118064
0.000117494
2.17335e-05
2.33939e-05
2.36026e-05
2.35387e-05
2.32391e-05
2.2499e-05
2.16192e-05
2.13725e-05
2.14693e-05
2.2301e-05
2.56181e-05
3.71469e-05
6.90123e-05
9.67303e-05
0.000113222
0.000121562
0.000124713
0.000124795
2.02854e-05
2.18058e-05
2.30086e-05
2.32227e-05
2.26475e-05
2.18212e-05
2.16474e-05
2.17242e-05
2.22114e-05
2.36913e-05
2.73611e-05
3.65044e-05
6.56547e-05
0.000107358
0.000136998
0.000153891
0.000160695
0.000161485
2.00934e-05
2.01811e-05
2.03435e-05
2.04829e-05
2.06735e-05
2.09066e-05
2.1108e-05
2.13775e-05
2.19678e-05
2.35087e-05
2.75183e-05
3.82753e-05
7.3729e-05
0.00012105
0.000153087
0.000170169
0.000176134
0.000176502
2.05e-05
2.01971e-05
2.04068e-05
2.13362e-05
2.40361e-05
2.7193e-05
2.83063e-05
2.78852e-05
2.65751e-05
2.64043e-05
2.79279e-05
3.60618e-05
6.96678e-05
0.000120895
0.000154141
0.0001706
0.000175695
0.000175762
2.00203e-05
2.02763e-05
2.05183e-05
2.17721e-05
2.38397e-05
2.46824e-05
2.50924e-05
2.54954e-05
2.58123e-05
2.62489e-05
2.78998e-05
3.49069e-05
6.29367e-05
0.00010552
0.000133488
0.000147433
0.000151633
0.000151424
2.11654e-05
2.12128e-05
2.12123e-05
2.17408e-05
2.19944e-05
2.21506e-05
2.30563e-05
2.51436e-05
2.68794e-05
2.96169e-05
3.55647e-05
5.23884e-05
9.94816e-05
0.000141222
0.000165481
0.00017534
0.000176965
0.000175075
2.78863e-05
2.54305e-05
2.27126e-05
2.18794e-05
2.20469e-05
2.36012e-05
3.10155e-05
3.75761e-05
3.82965e-05
3.83822e-05
4.13665e-05
5.75638e-05
9.37582e-05
0.000116064
0.000125102
0.000127024
0.000126361
0.000121237
2.63122e-05
2.43404e-05
2.19078e-05
2.06933e-05
2.07244e-05
2.12385e-05
2.25685e-05
2.50595e-05
3.18214e-05
5.20514e-05
7.48843e-05
9.22791e-05
0.000103353
0.000107545
0.000108048
0.000107574
0.0001052
9.65183e-05
2.56013e-05
2.63775e-05
2.29148e-05
2.10412e-05
2.08763e-05
2.1393e-05
2.41603e-05
2.97096e-05
3.35641e-05
3.9135e-05
5.3386e-05
8.59517e-05
0.000113452
0.000129524
0.000135759
0.00013674
0.000135556
0.000127666
2.46357e-05
2.32685e-05
2.21337e-05
2.18725e-05
2.1705e-05
2.11669e-05
2.09117e-05
2.09067e-05
2.1357e-05
2.34937e-05
3.02568e-05
5.16431e-05
0.000107857
0.000153746
0.000176087
0.000181613
0.00018083
0.000172795
2.06929e-05
2.44149e-05
2.54714e-05
2.5754e-05
2.54738e-05
2.33203e-05
2.15332e-05
2.13582e-05
2.14926e-05
2.25687e-05
2.70437e-05
4.3373e-05
8.92884e-05
0.000125349
0.000141809
0.000145739
0.00014521
0.000139717
2.00344e-05
2.00714e-05
2.00447e-05
1.99351e-05
1.95122e-05
1.8397e-05
1.7915e-05
1.80379e-05
1.82976e-05
1.87972e-05
2.0401e-05
2.70118e-05
3.75685e-05
4.37085e-05
4.59622e-05
4.6214e-05
4.55561e-05
4.18417e-05
2.00022e-05
1.65012e-05
1.29467e-05
1.12766e-05
9.65699e-06
8.51046e-06
8.16038e-06
8.19648e-06
8.62001e-06
1.03708e-05
1.70557e-05
2.68206e-05
3.3157e-05
3.64798e-05
3.77835e-05
3.80116e-05
3.76756e-05
3.52607e-05
2.02161e-05
2.02176e-05
2.05423e-05
2.13604e-05
2.16752e-05
2.18507e-05
2.22429e-05
2.36546e-05
2.90173e-05
4.79566e-05
0.00011855
0.0002157
0.000272627
0.000296448
0.000301883
0.000301046
0.000292365
0.000255301
4.97728e-05
2.93573e-05
3.10907e-05
3.77271e-05
3.852e-05
3.74059e-05
3.75773e-05
4.28262e-05
7.07687e-05
0.000183102
0.000565045
0.000959011
0.00117277
0.00124978
0.00125699
0.00122529
0.00104798
0.000692574
1.57735e-06
1.21909e-06
6.38127e-07
3.18227e-07
1.71091e-07
1.02609e-07
7.91166e-08
6.78873e-08
5.80855e-08
4.79739e-08
4.00359e-08
3.4789e-08
3.03418e-08
2.60806e-08
2.1942e-08
1.82561e-08
1.49901e-08
1.20884e-08
9.79016e-09
8.21411e-09
7.20037e-09
6.50036e-09
5.93523e-09
5.41599e-09
4.91101e-09
4.41563e-09
3.93425e-09
3.47283e-09
3.03694e-09
2.631e-09
2.2582e-09
1.92039e-09
1.61825e-09
1.35138e-09
1.11852e-09
9.17715e-10
7.46525e-10
6.02178e-10
4.81746e-10
3.82286e-10
3.00946e-10
2.35048e-10
1.82149e-10
1.40073e-10
1.0691e-10
8.10036e-11
6.0939e-11
4.55264e-11
3.37813e-11
2.49e-11
1.82341e-11
1.32672e-11
9.5922e-12
6.89165e-12
4.92037e-12
3.4908e-12
2.4608e-12
1.72353e-12
1.19927e-12
8.28941e-13
5.69103e-13
3.88018e-13
2.62677e-13
1.76523e-13
1.17726e-13
7.78935e-14
5.11156e-14
3.32612e-14
2.14547e-14
1.37252e-14
8.70642e-15
5.49036e-15
3.4478e-15
2.16717e-15
1.37797e-15
9.00481e-16
6.16434e-16
4.49677e-16
3.52565e-16
2.96193e-16
2.63489e-16
2.4455e-16
2.33663e-16
2.27532e-16
2.24233e-16
2.22646e-16
2.22091e-16
2.22045e-16
2.22045e-16
2.22045e-16
2.22045e-16
2.22045e-16
2.22045e-16
2.22045e-16
2.22045e-16
2.22045e-16
2.22045e-16
2.22045e-16
2.22045e-16
2.22045e-16
2.22045e-16
2.22045e-16
2.22045e-16
2.22045e-16
2.22045e-16
2.22045e-16
2.22045e-16
2.22045e-16
2.22045e-16
2.22045e-16
2.22045e-16
2.22045e-16
2.22045e-16
2.22045e-16
2.22045e-16
2.22045e-16
2.22045e-16
2.22045e-16
2.22045e-16
2.22045e-16
2.22045e-16
2.22045e-16
2.22045e-16
2.22045e-16
2.22045e-16
2.22045e-16
2.22045e-16
2.22045e-16
2.22045e-16
2.22045e-16
2.22045e-16
2.22045e-16
2.22045e-16
2.22045e-16
2.22045e-16
2.22045e-16
2.22045e-16
2.22045e-16
2.22045e-16
2.22045e-16
2.22045e-16
2.22045e-16
2.22045e-16
2.22045e-16
2.22045e-16
2.22045e-16
2.22045e-16
2.22045e-16
2.22045e-16
2.22045e-16
2.22045e-16
2.22045e-16
2.22045e-16
2.22045e-16
2.22045e-16
2.22045e-16
2.22045e-16
2.27544e-16
1.09392e-15
2.02566e-14
2.3106e-13
1.75818e-12
9.9542e-12
4.58631e-11
1.77458e-10
5.32691e-10
1.27273e-09
2.72001e-09
5.04388e-09
9.64729e-09
1.73097e-08
3.0318e-08
5.73529e-08
1.03829e-07
2.04508e-07
4.32563e-07
1.19941e-06
1.40977e-06
1.17265e-06
1.27288e-06
6.04407e-06
3.86438e-06
5.30495e-06
4.88275e-06
3.14466e-06
2.10619e-06
1.77747e-06
1.57528e-06
1.38634e-06
1.17394e-06
9.69444e-07
8.37503e-07
7.41254e-07
6.4924e-07
5.59701e-07
4.78567e-07
4.05978e-07
3.40312e-07
2.85665e-07
2.45308e-07
2.17313e-07
1.97152e-07
1.81048e-07
1.66709e-07
1.52924e-07
1.39257e-07
1.25792e-07
1.12695e-07
1.0013e-07
8.82324e-08
7.71115e-08
6.68441e-08
5.74771e-08
4.90291e-08
4.14943e-08
3.48459e-08
2.90405e-08
2.40217e-08
1.97249e-08
1.60805e-08
1.3017e-08
1.04637e-08
8.35271e-09
6.62117e-09
5.21263e-09
4.0764e-09
3.16714e-09
2.44502e-09
1.87571e-09
1.43005e-09
1.08361e-09
8.16102e-10
6.10918e-10
4.54552e-10
3.36145e-10
2.47046e-10
1.80424e-10
1.30926e-10
9.43856e-11
6.75867e-11
4.80612e-11
3.39304e-11
2.3774e-11
1.6526e-11
1.13917e-11
7.78276e-12
5.2667e-12
3.52806e-12
2.3374e-12
1.53102e-12
9.89612e-13
6.31948e-13
3.97091e-13
2.45948e-13
1.50813e-13
9.19198e-14
5.58851e-14
3.39885e-14
2.07178e-14
1.26708e-14
7.78237e-15
4.80812e-15
2.99798e-15
1.89864e-15
1.23169e-15
8.28948e-16
5.87594e-16
4.40546e-16
3.52776e-16
3.02912e-16
2.73857e-16
2.55397e-16
2.43276e-16
2.35364e-16
2.303e-16
2.2713e-16
2.25169e-16
2.23955e-16
2.23224e-16
2.22803e-16
2.22552e-16
2.22395e-16
2.22291e-16
2.2222e-16
2.22171e-16
2.22136e-16
2.22112e-16
2.22094e-16
2.22082e-16
2.22072e-16
2.22066e-16
2.2206e-16
2.22057e-16
2.22054e-16
2.22051e-16
2.2205e-16
2.22048e-16
2.22047e-16
2.22047e-16
2.22046e-16
2.22046e-16
2.22045e-16
2.22045e-16
2.22045e-16
2.22045e-16
2.22045e-16
2.22045e-16
2.22045e-16
2.22045e-16
2.22045e-16
2.22045e-16
2.22045e-16
2.22045e-16
2.22045e-16
2.22045e-16
2.22045e-16
2.22045e-16
2.22045e-16
2.22045e-16
2.22045e-16
2.22045e-16
2.22045e-16
2.22045e-16
2.22045e-16
2.22045e-16
2.22045e-16
2.22045e-16
2.22045e-16
2.22045e-16
2.22045e-16
2.22045e-16
2.22045e-16
2.22045e-16
2.22045e-16
2.22045e-16
2.22045e-16
2.22045e-16
2.22139e-16
2.35179e-16
5.12593e-16
3.43678e-15
2.34045e-14
1.22651e-13
5.10426e-13
1.75153e-12
5.2323e-12
1.16713e-11
2.51448e-11
4.49128e-11
8.83653e-11
1.59423e-10
2.71944e-10
5.62902e-10
9.57055e-10
2.00659e-09
4.19706e-09
1.83267e-08
2.66875e-08
4.89751e-08
1.01078e-07
7.18998e-06
2.30477e-06
5.24795e-06
8.81025e-06
9.68974e-06
9.80877e-06
9.69144e-06
9.39964e-06
9.0892e-06
8.74725e-06
8.31799e-06
7.74955e-06
7.10771e-06
6.45154e-06
5.79731e-06
5.17817e-06
4.60073e-06
4.05691e-06
3.56662e-06
3.15329e-06
2.81748e-06
2.5432e-06
2.31644e-06
2.12886e-06
1.97281e-06
1.82143e-06
1.66987e-06
1.51987e-06
1.37334e-06
1.23197e-06
1.09724e-06
9.70299e-07
8.52016e-07
7.42966e-07
6.43446e-07
5.5351e-07
4.72999e-07
4.01579e-07
3.38775e-07
2.84014e-07
2.3666e-07
1.96036e-07
1.61427e-07
1.32119e-07
1.07464e-07
8.68875e-08
6.98469e-08
5.58319e-08
4.43798e-08
3.50804e-08
2.75754e-08
2.15552e-08
1.67549e-08
1.29499e-08
9.95142e-09
7.60237e-09
5.77291e-09
4.35659e-09
3.26667e-09
2.43307e-09
1.79947e-09
1.32101e-09
9.62134e-10
6.94874e-10
4.97342e-10
3.52524e-10
2.47276e-10
1.71515e-10
1.17526e-10
7.95176e-11
5.30238e-11
3.49079e-11
2.25292e-11
1.44459e-11
9.27555e-12
5.96331e-12
3.83747e-12
2.47037e-12
1.58964e-12
1.02159e-12
6.55173e-13
4.19097e-13
2.67327e-13
1.70112e-13
1.07983e-13
6.84404e-14
4.35032e-14
2.73925e-14
1.74678e-14
1.1807e-14
8.24559e-15
5.59705e-15
3.72732e-15
2.46956e-15
1.64866e-15
1.12322e-15
7.9087e-16
5.80429e-16
4.48984e-16
3.70953e-16
3.22897e-16
2.91556e-16
2.70487e-16
2.56116e-16
2.46232e-16
2.39387e-16
2.34608e-16
2.3124e-16
2.2884e-16
2.27109e-16
2.25849e-16
2.2492e-16
2.2423e-16
2.23713e-16
2.23322e-16
2.23024e-16
2.22797e-16
2.22623e-16
2.22488e-16
2.22385e-16
2.22305e-16
2.22243e-16
2.22195e-16
2.22159e-16
2.22131e-16
2.22109e-16
2.22093e-16
2.2208e-16
2.2207e-16
2.22063e-16
2.22058e-16
2.22054e-16
2.22051e-16
2.22049e-16
2.22047e-16
2.22046e-16
2.22045e-16
2.22045e-16
2.22045e-16
2.22045e-16
2.22045e-16
2.22045e-16
2.22045e-16
2.22045e-16
2.22045e-16
2.22045e-16
2.22045e-16
2.22045e-16
2.22045e-16
2.22045e-16
2.22045e-16
2.22045e-16
2.22045e-16
2.22045e-16
2.22045e-16
2.22045e-16
2.22045e-16
2.22045e-16
2.22152e-16
2.24347e-16
2.46685e-16
3.93173e-16
1.09275e-15
3.74223e-15
1.2276e-14
3.72449e-14
8.0034e-14
1.77275e-13
3.08057e-13
6.24406e-13
1.15296e-12
1.91684e-12
4.30222e-12
7.16725e-12
1.52863e-11
3.35794e-11
1.6129e-10
3.26254e-10
9.30706e-10
3.23908e-09
8.77166e-06
2.07466e-06
2.55855e-06
7.5271e-06
1.00057e-05
1.06482e-05
1.08927e-05
1.10317e-05
1.11365e-05
1.12512e-05
1.13677e-05
1.14728e-05
1.1555e-05
1.16039e-05
1.16101e-05
1.15646e-05
1.14583e-05
1.12887e-05
1.1053e-05
1.07516e-05
1.03872e-05
9.96491e-06
9.49159e-06
8.97586e-06
8.42731e-06
7.85603e-06
7.27214e-06
6.68528e-06
6.10435e-06
5.53719e-06
4.99047e-06
4.46963e-06
3.97881e-06
3.52095e-06
3.09787e-06
2.71038e-06
2.35846e-06
2.04136e-06
1.75777e-06
1.50595e-06
1.28387e-06
1.08934e-06
9.20061e-07
7.73565e-07
6.47309e-07
5.39089e-07
4.46937e-07
3.68903e-07
3.03159e-07
2.48042e-07
2.02056e-07
1.63871e-07
1.32312e-07
1.06352e-07
8.50946e-08
6.77694e-08
5.3714e-08
4.23643e-08
3.32425e-08
2.59464e-08
2.01393e-08
1.55408e-08
1.19189e-08
9.08229e-09
6.87398e-09
5.16583e-09
3.85364e-09
2.85303e-09
2.09603e-09
1.52802e-09
1.10556e-09
7.93971e-10
5.6635e-10
4.01209e-10
2.8235e-10
1.97521e-10
1.3744e-10
9.51764e-11
6.56267e-11
4.50786e-11
3.0859e-11
2.10612e-11
1.43361e-11
9.73576e-12
6.59872e-12
4.46526e-12
3.01749e-12
2.03777e-12
1.37538e-12
9.27491e-13
6.25494e-13
4.22411e-13
2.8582e-13
1.93988e-13
1.32076e-13
9.01224e-14
6.17817e-14
4.27036e-14
2.96661e-14
2.05859e-14
1.42456e-14
9.85018e-15
6.83445e-15
4.78194e-15
3.3894e-15
2.44285e-15
1.79569e-15
1.34946e-15
1.03864e-15
8.19763e-16
6.63864e-16
5.51545e-16
4.69713e-16
4.09457e-16
3.64651e-16
3.31041e-16
3.05639e-16
2.8632e-16
2.71549e-16
2.60208e-16
2.51476e-16
2.44739e-16
2.39534e-16
2.35511e-16
2.32399e-16
2.29992e-16
2.28129e-16
2.26688e-16
2.25574e-16
2.24714e-16
2.24053e-16
2.23541e-16
2.23151e-16
2.22851e-16
2.22617e-16
2.22442e-16
2.22312e-16
2.22205e-16
2.22112e-16
2.22051e-16
2.22045e-16
2.22045e-16
2.22045e-16
2.22045e-16
2.22045e-16
2.22045e-16
2.22045e-16
2.22045e-16
2.22045e-16
2.22045e-16
2.22045e-16
2.22045e-16
2.22045e-16
2.22045e-16
2.22045e-16
2.22045e-16
2.22045e-16
2.22045e-16
2.22045e-16
2.22045e-16
2.22163e-16
2.23073e-16
2.27418e-16
2.43938e-16
2.98516e-16
4.64966e-16
7.40254e-16
1.42243e-15
2.29987e-15
4.58245e-15
8.72265e-15
1.4769e-14
3.51181e-14
6.42388e-14
1.45527e-13
3.62536e-13
1.50838e-12
4.58215e-12
2.06829e-11
1.18216e-10
1.14747e-05
2.48584e-06
1.56179e-06
6.85579e-06
9.86939e-06
1.07184e-05
1.10827e-05
1.1335e-05
1.15583e-05
1.17965e-05
1.20406e-05
1.22724e-05
1.24746e-05
1.26312e-05
1.27275e-05
1.27519e-05
1.26957e-05
1.25455e-05
1.23066e-05
1.1979e-05
1.15678e-05
1.10814e-05
1.0531e-05
9.92894e-06
9.28877e-06
8.62403e-06
7.94782e-06
7.27222e-06
6.60797e-06
5.96421e-06
5.34839e-06
4.76626e-06
4.22197e-06
3.71816e-06
3.25613e-06
2.83608e-06
2.45729e-06
2.11828e-06
1.81705e-06
1.55118e-06
1.31801e-06
1.11472e-06
9.38472e-07
7.8663e-07
6.56683e-07
5.46086e-07
4.52296e-07
3.73101e-07
3.06541e-07
2.5086e-07
2.04491e-07
1.66046e-07
1.3431e-07
1.08223e-07
8.68692e-08
6.94623e-08
5.53305e-08
4.39041e-08
3.47025e-08
2.73224e-08
2.14271e-08
1.67367e-08
1.30202e-08
1.00873e-08
7.78218e-09
5.97802e-09
4.57186e-09
3.48058e-09
2.63735e-09
1.9887e-09
1.492e-09
1.11347e-09
8.26387e-10
6.09768e-10
4.47176e-10
3.2581e-10
2.3574e-10
1.69304e-10
1.20617e-10
8.51829e-11
5.95858e-11
4.12428e-11
2.82124e-11
1.90448e-11
1.26638e-11
8.27555e-12
5.29805e-12
3.31058e-12
2.00709e-12
1.1724e-12
6.51935e-13
3.39972e-13
1.69999e-13
8.1135e-14
3.6839e-14
1.59256e-14
6.62106e-15
2.72616e-15
1.18977e-15
6.17384e-16
4.08882e-16
3.28824e-16
2.93038e-16
2.73293e-16
2.60385e-16
2.51158e-16
2.44322e-16
2.39186e-16
2.35301e-16
2.32346e-16
2.30083e-16
2.28341e-16
2.26991e-16
2.2594e-16
2.25116e-16
2.24468e-16
2.23957e-16
2.23553e-16
2.23234e-16
2.2298e-16
2.2278e-16
2.22621e-16
2.22495e-16
2.22396e-16
2.22319e-16
2.22257e-16
2.22209e-16
2.22172e-16
2.22142e-16
2.22119e-16
2.22101e-16
2.22087e-16
2.22076e-16
2.22068e-16
2.22061e-16
2.22056e-16
2.22053e-16
2.22049e-16
2.22046e-16
2.22045e-16
2.22045e-16
2.22045e-16
2.22045e-16
2.22045e-16
2.22045e-16
2.22045e-16
2.22045e-16
2.22045e-16
2.22045e-16
2.22045e-16
2.22045e-16
2.22045e-16
2.22045e-16
2.22045e-16
2.22045e-16
2.22045e-16
2.22053e-16
2.22145e-16
2.22499e-16
2.2354e-16
2.26267e-16
2.3307e-16
2.49944e-16
2.92879e-16
4.0845e-16
7.43227e-16
1.76165e-15
4.85417e-15
1.39452e-14
4.00881e-14
1.1518e-13
3.34341e-13
9.7853e-13
2.90714e-12
8.22033e-12
2.31395e-11
5.13842e-11
1.30032e-10
1.59674e-10
1.18465e-10
1.55381e-05
3.291e-06
1.15981e-06
6.73677e-06
1.00495e-05
1.10668e-05
1.15918e-05
1.20232e-05
1.24504e-05
1.29084e-05
1.33805e-05
1.3838e-05
1.42521e-05
1.45958e-05
1.48444e-05
1.4978e-05
1.49866e-05
1.48563e-05
1.45798e-05
1.41764e-05
1.3653e-05
1.30254e-05
1.2313e-05
1.15363e-05
1.07163e-05
9.87322e-06
9.02536e-06
8.18882e-06
7.3771e-06
6.60095e-06
5.8685e-06
5.1854e-06
4.55507e-06
3.97908e-06
3.45739e-06
2.98877e-06
2.571e-06
2.20117e-06
1.87595e-06
1.59174e-06
1.34482e-06
1.13149e-06
9.48126e-07
7.91206e-07
6.57666e-07
5.44615e-07
4.49293e-07
3.69276e-07
3.02392e-07
2.46718e-07
2.00564e-07
1.62456e-07
1.31114e-07
1.05438e-07
8.44851e-08
6.74512e-08
5.36561e-08
4.25263e-08
3.35808e-08
2.64181e-08
2.07045e-08
1.61643e-08
1.25703e-08
9.7364e-09
7.51059e-09
5.76935e-09
4.41272e-09
3.36011e-09
2.54684e-09
1.92122e-09
1.44209e-09
1.07685e-09
7.99753e-10
5.90565e-10
4.33461e-10
3.16112e-10
2.28958e-10
1.64617e-10
1.1742e-10
8.30359e-11
5.81683e-11
4.03258e-11
2.76338e-11
1.8691e-11
1.24563e-11
8.16066e-12
5.24028e-12
3.28583e-12
2.00122e-12
1.17466e-12
6.58865e-13
3.45207e-13
1.73468e-13
8.31731e-14
3.78721e-14
1.6336e-14
6.69813e-15
2.65933e-15
1.07995e-15
5.04575e-16
3.09309e-16
2.47495e-16
2.29189e-16
2.24085e-16
2.22722e-16
2.22355e-16
2.22241e-16
2.22193e-16
2.22163e-16
2.2214e-16
2.22122e-16
2.22108e-16
2.22096e-16
2.22086e-16
2.22078e-16
2.22072e-16
2.22067e-16
2.22062e-16
2.22059e-16
2.22056e-16
2.22054e-16
2.22052e-16
2.2205e-16
2.22049e-16
2.22048e-16
2.22047e-16
2.22047e-16
2.22046e-16
2.22046e-16
2.22046e-16
2.22045e-16
2.22045e-16
2.22045e-16
2.22045e-16
2.22045e-16
2.22045e-16
2.22045e-16
2.22045e-16
2.22045e-16
2.22045e-16
2.22045e-16
2.22045e-16
2.22045e-16
2.22045e-16
2.22045e-16
2.22045e-16
2.22045e-16
2.22045e-16
2.22045e-16
2.22045e-16
2.22045e-16
2.22045e-16
2.22045e-16
2.22045e-16
2.22045e-16
2.22045e-16
2.22401e-16
2.23816e-16
2.27348e-16
2.3486e-16
2.50217e-16
2.78679e-16
3.35237e-16
4.4425e-16
6.70608e-16
1.16852e-15
2.33695e-15
5.25032e-15
1.28905e-14
3.36963e-14
9.176e-14
2.5774e-13
7.27861e-13
2.07405e-12
5.5668e-12
1.42059e-11
3.23439e-11
6.65259e-11
8.61654e-11
6.32075e-11
2.1293e-05
4.34122e-06
1.07938e-06
6.8744e-06
1.03239e-05
1.1512e-05
1.2267e-05
1.29832e-05
1.37485e-05
1.45832e-05
1.54525e-05
1.63057e-05
1.70903e-05
1.77557e-05
1.8258e-05
1.85634e-05
1.8654e-05
1.85285e-05
1.81565e-05
1.75899e-05
1.68477e-05
1.59598e-05
1.4961e-05
1.38865e-05
1.27697e-05
1.16406e-05
1.0525e-05
9.44389e-06
8.41351e-06
7.44563e-06
6.54798e-06
5.72483e-06
4.97757e-06
4.30534e-06
3.70556e-06
3.17443e-06
2.7073e-06
2.29905e-06
1.94438e-06
1.63793e-06
1.37453e-06
1.1492e-06
9.57093e-07
7.94223e-07
6.56948e-07
5.41505e-07
4.44825e-07
3.64172e-07
2.97144e-07
2.41644e-07
1.95856e-07
1.58216e-07
1.27383e-07
1.02215e-07
8.17433e-08
6.51494e-08
5.1746e-08
4.09576e-08
3.23044e-08
2.53885e-08
1.98808e-08
1.55102e-08
1.20548e-08
9.33298e-09
7.19705e-09
5.52732e-09
4.22715e-09
3.21879e-09
2.43995e-09
1.84093e-09
1.38221e-09
1.03252e-09
7.67184e-10
5.66833e-10
4.16318e-10
3.03844e-10
2.20265e-10
1.58526e-10
1.13206e-10
8.01599e-11
5.62373e-11
3.90536e-11
2.68146e-11
1.81784e-11
1.21472e-11
7.98334e-12
5.14638e-12
3.24173e-12
1.98672e-12
1.17411e-12
6.66693e-13
3.52255e-13
1.7861e-13
8.65241e-14
3.98675e-14
1.74261e-14
7.24404e-15
2.90956e-15
1.18483e-15
5.4468e-16
3.2321e-16
2.51756e-16
2.3023e-16
2.24165e-16
2.22562e-16
2.22165e-16
2.22072e-16
2.22051e-16
2.22047e-16
2.22046e-16
2.22045e-16
2.22045e-16
2.22045e-16
2.22045e-16
2.22045e-16
2.22045e-16
2.22045e-16
2.22045e-16
2.22045e-16
2.22045e-16
2.22045e-16
2.22045e-16
2.22045e-16
2.22045e-16
2.22045e-16
2.22045e-16
2.22045e-16
2.22045e-16
2.22045e-16
2.22045e-16
2.22045e-16
2.22045e-16
2.22045e-16
2.22045e-16
2.22045e-16
2.22045e-16
2.22045e-16
2.22045e-16
2.22045e-16
2.22045e-16
2.22045e-16
2.22045e-16
2.22045e-16
2.22045e-16
2.22045e-16
2.22045e-16
2.22045e-16
2.22045e-16
2.22045e-16
2.22045e-16
2.22045e-16
2.22045e-16
2.22045e-16
2.22045e-16
2.22045e-16
2.22045e-16
2.22233e-16
2.23329e-16
2.26319e-16
2.32877e-16
2.46416e-16
2.71895e-16
3.21385e-16
4.15594e-16
6.09508e-16
1.029e-15
1.99293e-15
4.34446e-15
1.03653e-14
2.63981e-14
6.99371e-14
1.90191e-13
5.14782e-13
1.38629e-12
3.46686e-12
8.02471e-12
2.26156e-11
2.66317e-11
2.53676e-11
2.1368e-11
2.9145e-05
5.66166e-06
1.14686e-06
7.19988e-06
1.0773e-05
1.21634e-05
1.32683e-05
1.44822e-05
1.5861e-05
1.74019e-05
1.90191e-05
2.06168e-05
2.20911e-05
2.3337e-05
2.42673e-05
2.48241e-05
2.49855e-05
2.47651e-05
2.41242e-05
2.31763e-05
2.19689e-05
2.05631e-05
1.90242e-05
1.74128e-05
1.5782e-05
1.41759e-05
1.26289e-05
1.11663e-05
9.80533e-06
8.55592e-06
7.42237e-06
6.40446e-06
5.49867e-06
4.69917e-06
3.99854e-06
3.38854e-06
2.86056e-06
2.40605e-06
2.01673e-06
1.68477e-06
1.4029e-06
1.16385e-06
9.62576e-07
7.94098e-07
6.53065e-07
5.35465e-07
4.37738e-07
3.5679e-07
2.89951e-07
2.34934e-07
1.8979e-07
1.5286e-07
1.22742e-07
9.82565e-08
7.84113e-08
6.23772e-08
4.94631e-08
3.9095e-08
3.07977e-08
2.41793e-08
1.89175e-08
1.47485e-08
1.14565e-08
8.8661e-09
6.83514e-09
5.24859e-09
4.01385e-09
3.05661e-09
2.31746e-09
1.74903e-09
1.31374e-09
9.81861e-10
7.29986e-10
5.39736e-10
3.96745e-10
2.89834e-10
2.10337e-10
1.51567e-10
1.08386e-10
7.68675e-11
5.40237e-11
3.75928e-11
2.5872e-11
1.75869e-11
1.17892e-11
7.7771e-12
5.0361e-12
3.18977e-12
1.96831e-12
1.17391e-12
6.73668e-13
3.63019e-13
1.86307e-13
9.15706e-14
4.2909e-14
1.91067e-14
8.09335e-15
3.30177e-15
1.35053e-15
6.08901e-16
3.46116e-16
2.59301e-16
2.32532e-16
2.24816e-16
2.22734e-16
2.22206e-16
2.2208e-16
2.22052e-16
2.22046e-16
2.22045e-16
2.22045e-16
2.22045e-16
2.22045e-16
2.22045e-16
2.22045e-16
2.22045e-16
2.22045e-16
2.22045e-16
2.22045e-16
2.22045e-16
2.22045e-16
2.22045e-16
2.22045e-16
2.22045e-16
2.22045e-16
2.22045e-16
2.22045e-16
2.22045e-16
2.22045e-16
2.22045e-16
2.22045e-16
2.22045e-16
2.22045e-16
2.22045e-16
2.22045e-16
2.22045e-16
2.22045e-16
2.22045e-16
2.22045e-16
2.22045e-16
2.22045e-16
2.22045e-16
2.22045e-16
2.22045e-16
2.22045e-16
2.22045e-16
2.22045e-16
2.22045e-16
2.22045e-16
2.22045e-16
2.22045e-16
2.22045e-16
2.22045e-16
2.22045e-16
2.22045e-16
2.22045e-16
2.22047e-16
2.22722e-16
2.25023e-16
2.30393e-16
2.41574e-16
2.63413e-16
3.03734e-16
3.81953e-16
5.40164e-16
8.74476e-16
1.62535e-15
3.41654e-15
7.89905e-15
1.95196e-14
5.00509e-14
1.30975e-13
3.37515e-13
8.52682e-13
1.96833e-12
4.46731e-12
1.02089e-11
9.2524e-12
7.14326e-12
4.87337e-12
3.94984e-05
7.1728e-06
1.46252e-06
7.9329e-06
1.16615e-05
1.33576e-05
1.49798e-05
1.70403e-05
1.96844e-05
2.27277e-05
2.59278e-05
2.90722e-05
3.19149e-05
3.42377e-05
3.58678e-05
3.6706e-05
3.67608e-05
3.6056e-05
3.46444e-05
3.27545e-05
3.05e-05
2.80116e-05
2.54093e-05
2.27951e-05
2.02493e-05
1.78308e-05
1.55788e-05
1.35167e-05
1.16546e-05
9.99289e-06
8.52499e-06
7.23954e-06
6.12247e-06
5.15829e-06
4.33076e-06
3.6242e-06
3.02382e-06
2.51574e-06
2.08751e-06
1.72737e-06
1.42419e-06
1.172e-06
9.6272e-07
7.887e-07
6.44524e-07
5.25412e-07
4.27261e-07
3.46584e-07
2.80436e-07
2.26335e-07
1.82198e-07
1.46281e-07
1.17129e-07
9.3528e-08
7.44729e-08
5.91295e-08
4.68089e-08
3.69436e-08
2.90672e-08
2.27973e-08
1.78214e-08
1.38847e-08
1.07802e-08
8.33989e-09
6.4282e-09
4.93581e-09
3.77491e-09
2.87521e-09
2.1806e-09
1.64644e-09
1.23735e-09
9.25381e-10
6.88529e-10
5.0954e-10
3.74932e-10
2.74216e-10
1.99263e-10
1.43798e-10
1.03001e-10
7.31847e-11
5.1544e-11
3.59533e-11
2.48116e-11
1.69195e-11
1.13837e-11
7.5424e-12
4.90948e-12
3.12947e-12
1.94623e-12
1.17294e-12
6.81341e-13
3.75294e-13
1.95104e-13
9.73755e-14
4.64836e-14
2.11633e-14
9.19251e-15
3.84371e-15
1.59582e-15
7.10614e-16
3.8478e-16
2.72804e-16
2.36879e-16
2.26111e-16
2.23091e-16
2.22298e-16
2.22103e-16
2.22057e-16
2.22047e-16
2.22045e-16
2.22045e-16
2.22045e-16
2.22045e-16
2.22045e-16
2.22045e-16
2.22045e-16
2.22045e-16
2.22045e-16
2.22045e-16
2.22045e-16
2.22045e-16
2.22045e-16
2.22045e-16
2.22045e-16
2.22045e-16
2.22045e-16
2.22045e-16
2.22045e-16
2.22045e-16
2.22045e-16
2.22045e-16
2.22045e-16
2.22045e-16
2.22045e-16
2.22045e-16
2.22045e-16
2.22045e-16
2.22045e-16
2.22045e-16
2.22045e-16
2.22045e-16
2.22045e-16
2.22045e-16
2.22045e-16
2.22045e-16
2.22045e-16
2.22045e-16
2.22045e-16
2.22045e-16
2.22045e-16
2.22045e-16
2.22045e-16
2.22045e-16
2.22045e-16
2.22045e-16
2.22045e-16
2.22045e-16
2.22297e-16
2.23742e-16
2.27621e-16
2.3601e-16
2.53367e-16
2.85137e-16
3.47128e-16
4.67695e-16
7.18318e-16
1.26766e-15
2.5407e-15
5.62751e-15
1.33589e-14
3.28541e-14
8.19375e-14
1.98549e-13
4.90671e-13
9.62131e-13
2.53921e-12
2.62634e-12
2.3403e-12
1.56009e-12
9.00816e-13
5.23592e-05
8.79954e-06
2.33904e-06
9.70382e-06
1.36535e-05
1.60195e-05
1.88005e-05
2.28059e-05
2.82032e-05
3.50418e-05
4.20232e-05
4.87142e-05
5.43697e-05
5.85227e-05
6.09435e-05
6.15457e-05
6.05271e-05
5.79369e-05
5.43394e-05
4.99984e-05
4.52979e-05
4.04686e-05
3.57064e-05
3.11675e-05
2.69591e-05
2.31369e-05
1.9722e-05
1.67122e-05
1.40896e-05
1.18259e-05
9.88759e-06
8.23882e-06
6.84511e-06
5.67299e-06
4.69013e-06
3.86887e-06
3.18574e-06
2.61869e-06
2.1467e-06
1.75475e-06
1.43437e-06
1.17095e-06
9.53905e-07
7.75668e-07
6.296e-07
5.10104e-07
4.12511e-07
3.3294e-07
2.68178e-07
2.15563e-07
1.72897e-07
1.38365e-07
1.10472e-07
8.79906e-08
6.99092e-08
5.53999e-08
4.37845e-08
3.45086e-08
2.712e-08
2.12501e-08
1.65996e-08
1.29257e-08
1.00318e-08
7.7592e-09
5.98023e-09
4.5922e-09
3.51288e-09
2.67656e-09
2.0309e-09
1.53434e-09
1.15394e-09
8.63732e-10
6.43288e-10
4.76588e-10
3.51125e-10
2.57165e-10
1.87165e-10
1.35303e-10
9.71054e-11
6.91472e-11
4.88205e-11
3.41488e-11
2.36412e-11
1.61804e-11
1.09325e-11
7.27975e-12
4.76648e-12
3.06044e-12
1.91991e-12
1.17064e-12
6.89012e-13
3.89026e-13
2.05228e-13
1.04201e-13
5.07711e-14
2.36901e-14
1.05863e-14
4.5585e-15
1.93454e-15
8.58355e-16
4.44021e-16
2.94659e-16
2.44313e-16
2.28449e-16
2.23774e-16
2.22483e-16
2.22149e-16
2.22068e-16
2.2205e-16
2.22046e-16
2.22045e-16
2.22045e-16
2.22045e-16
2.22045e-16
2.22045e-16
2.22045e-16
2.22045e-16
2.22045e-16
2.22045e-16
2.22045e-16
2.22045e-16
2.22045e-16
2.22045e-16
2.22045e-16
2.22045e-16
2.22045e-16
2.22045e-16
2.22045e-16
2.22045e-16
2.22045e-16
2.22045e-16
2.22045e-16
2.22045e-16
2.22045e-16
2.22045e-16
2.22045e-16
2.22045e-16
2.22045e-16
2.22045e-16
2.22045e-16
2.22045e-16
2.22045e-16
2.22045e-16
2.22045e-16
2.22045e-16
2.22045e-16
2.22045e-16
2.22045e-16
2.22045e-16
2.22045e-16
2.22045e-16
2.22045e-16
2.22045e-16
2.22045e-16
2.22045e-16
2.22045e-16
2.22045e-16
2.22046e-16
2.22593e-16
2.24855e-16
2.30458e-16
2.42191e-16
2.66125e-16
3.10341e-16
3.95238e-16
5.68512e-16
9.3592e-16
1.7544e-15
3.65761e-15
8.21049e-15
1.90644e-14
4.4524e-14
1.00531e-13
2.07947e-13
4.78326e-13
6.19349e-13
5.6834e-13
4.37999e-13
2.5346e-13
1.32552e-13
6.66026e-05
1.11049e-05
5.76645e-06
1.52325e-05
1.94155e-05
2.40863e-05
3.04877e-05
4.11163e-05
5.48049e-05
7.26432e-05
8.91625e-05
0.000103967
0.000114421
0.000119905
0.000120885
0.000117666
0.000111087
0.000102398
9.24065e-05
8.17347e-05
7.1372e-05
6.15395e-05
5.24237e-05
4.42081e-05
3.70379e-05
3.08364e-05
2.55275e-05
2.10346e-05
1.72676e-05
1.41328e-05
1.15398e-05
9.4067e-06
7.66444e-06
6.23656e-06
5.06563e-06
4.10973e-06
3.33087e-06
2.69298e-06
2.17816e-06
1.76498e-06
1.42862e-06
1.15492e-06
9.3276e-07
7.52604e-07
6.06607e-07
4.88372e-07
3.92691e-07
3.15326e-07
2.52831e-07
2.02401e-07
1.61755e-07
1.29037e-07
1.02738e-07
8.16317e-08
6.47214e-08
5.11974e-08
4.04025e-08
3.18037e-08
2.49693e-08
1.95499e-08
1.52629e-08
1.18804e-08
9.21869e-09
7.13014e-09
5.49613e-09
4.22165e-09
3.23079e-09
2.46302e-09
1.87018e-09
1.41408e-09
1.06452e-09
7.97672e-10
5.9482e-10
4.41288e-10
3.25616e-10
2.38887e-10
1.74189e-10
1.26185e-10
9.07704e-11
6.48023e-11
4.58847e-11
3.21995e-11
2.23738e-11
1.53775e-11
1.04404e-11
6.99195e-12
4.60872e-12
2.98349e-12
1.8906e-12
1.16697e-12
6.97967e-13
4.02492e-13
2.18593e-13
1.13469e-13
5.69163e-14
2.76052e-14
1.29459e-14
5.87835e-15
2.61096e-15
1.17432e-15
5.78549e-16
3.47016e-16
2.63015e-16
2.34607e-16
2.25651e-16
2.23015e-16
2.2229e-16
2.22103e-16
2.22058e-16
2.22047e-16
2.22045e-16
2.22045e-16
2.22045e-16
2.22045e-16
2.22045e-16
2.22045e-16
2.22045e-16
2.22045e-16
2.22045e-16
2.22045e-16
2.22045e-16
2.22045e-16
2.22045e-16
2.22045e-16
2.22045e-16
2.22045e-16