/*--------------------------------*- C++ -*----------------------------------*\
  =========                 |
  \\      /  F ield         | OpenFOAM: The Open Source CFD Toolbox
   \\    /   O peration     | Website:  https://openfoam.org
    \\  /    A nd           | Version:  9
     \\/     M anipulation  |
\*---------------------------------------------------------------------------*/
FoamFile
{
    format      ascii;
    class       volScalarField;
    location    "0.002";
    object      nut;
}
// * * * * * * * * * * * * * * * * * * * * * * * * * * * * * * * * * * * * * //

dimensions      [0 2 -1 0 0 0 0];

internalField   nonuniform List<scalar> 
12225
(
0
0
0
0
0
0
0
0
0
0
0
1.9781e-09
9.26075e-10
2.67258e-09
6.08598e-10
9.03244e-09
1.61357e-08
6.62173e-08
0
0
0
0
0
0
0
0
0
1.98026e-10
0
1.18601e-09
3.04584e-10
1.36981e-09
0
3.33282e-09
3.75996e-09
1.33853e-08
0
0
0
0
0
0
0
9.95342e-11
6.22907e-10
9.61926e-10
4.68232e-10
1.31594e-09
0
1.21444e-09
0
2.6609e-09
1.37036e-10
8.61005e-09
0
0
0
1.70274e-09
1.28023e-09
0
0
6.61323e-10
4.15416e-09
5.92502e-09
3.08929e-09
5.54728e-09
0
5.28511e-09
0
1.36596e-08
0
4.29091e-08
0
0
0
0
0
0
0
0
0
0
0
0
0
0
0
0
0
0
0
0
0
0
0
0
0
0
0
0
0
0
0
0
0
0
0
0
0
0
0
0
0
0
0
0
0
0
0
0
0
0
0
0
0
0
0
0
0
0
0
0
0
0
0
0
0
0
0
0
0
0
0
0
8.90452e-08
0
0
0
0
0
0
0
0
0
0
0
0
0
0
0
0
0
4.76058e-07
0
0
0
0
0
0
0
0
0
0
0
0
0
0
0
0
0
3.65201e-07
0
0
0
0
0
0
0
0
0
0
0
0
0
0
0
0
0
2.63232e-08
0
0
0
0
0
0
0
0
0
0
0
0
0
0
0
0
0
8.79189e-07
1.02987e-06
5.44634e-07
0
0
0
0
0
0
0
0
0
0
0
0
0
0
0
0
2.31429e-06
1.87767e-06
5.72248e-07
1.47527e-08
0
0
0
0
0
0
0
0
0
0
0
0
0
0
0
3.0789e-06
1.16504e-06
0
0
0
0
0
0
0
0
0
3.52687e-08
9.87744e-09
0
0
0
0
0
0
1.65651e-07
1.9645e-07
0
0
0
0
0
0
3.96739e-08
1.53405e-07
1.40531e-07
6.67431e-08
7.53191e-09
0
0
0
0
1.66611e-08
1.8401e-06
1.03723e-06
1.40704e-07
2.00704e-08
0
0
0
2.50556e-07
3.46913e-07
3.17443e-07
1.71578e-07
0
0
0
0
0
1.63095e-08
8.25406e-07
0
0
0
2.56389e-08
0
0
1.45061e-07
4.05436e-07
4.41246e-07
3.70273e-07
1.73663e-07
0
0
0
0
3.00703e-07
1.24818e-07
0
0
0
1.94811e-07
1.03363e-06
1.78252e-06
2.09419e-06
1.53639e-06
6.79402e-07
2.15887e-07
0
0
0
0
0
0
0
0
0
2.66938e-07
3.7001e-07
2.28774e-07
4.89607e-07
9.8657e-07
1.46763e-06
1.34444e-06
5.73697e-07
1.08004e-07
0
0
0
0
0
0
1.42297e-06
1.92164e-06
0
0
5.24679e-07
0
0
3.49236e-07
9.95978e-07
1.35327e-06
9.96245e-07
6.01097e-07
3.70911e-07
8.93468e-08
0
0
0
0
2.06192e-06
2.44073e-06
2.60846e-06
0
8.92116e-07
9.39162e-08
3.1834e-07
1.01735e-06
1.49234e-06
1.50679e-06
1.17762e-06
9.00891e-07
6.94466e-07
3.46772e-07
5.12405e-08
0
0
0
3.05264e-06
3.94968e-06
8.05057e-07
0
0
1.52954e-07
7.07423e-07
1.43178e-06
1.529e-06
1.36418e-06
9.70242e-07
6.50066e-07
5.66007e-07
5.64972e-07
4.58873e-07
2.8976e-07
1.33637e-07
0
7.09477e-08
0
1.20674e-07
1.0042e-07
3.14928e-07
4.80481e-07
5.87829e-07
9.67539e-07
1.07542e-06
8.97131e-07
8.19737e-07
1.16497e-06
1.66266e-06
1.81625e-06
1.49871e-06
9.94991e-07
5.59773e-07
2.25411e-07
3.34552e-07
3.14481e-07
0
0
2.09521e-07
4.26094e-07
6.64637e-07
7.59598e-07
7.07756e-07
5.89285e-07
7.96266e-07
1.58141e-06
2.45725e-06
2.28166e-06
1.56783e-06
9.19888e-07
4.9197e-07
1.97423e-07
3.80878e-07
5.24345e-07
1.9118e-07
3.53959e-07
7.64777e-07
5.97e-07
3.90652e-07
4.91616e-07
3.14368e-07
1.38149e-07
4.15754e-07
1.04903e-06
1.45185e-06
1.23578e-06
8.13454e-07
4.7986e-07
2.73752e-07
1.17751e-07
5.10099e-08
0
0
2.92771e-10
2.20309e-09
0
0
0
0
0
0
0
0
0
1.8148e-09
2.81481e-09
2.94661e-09
1.86303e-09
1.1737e-09
0
0
0
0
0
0
0
0
0
0
0
0
0
0
0
0
0
9.28379e-10
0
0
0
0
0
0
0
0
0
0
0
0
0
0
0
0
0
1.20635e-09
0
0
0
0
0
0
0
0
0
0
0
0
0
0
0
0
0
1.19997e-08
1.29167e-08
0
0
0
0
0
0
0
0
0
0
0
0
0
0
0
0
0
0
0
0
0
0
0
0
0
0
0
0
0
0
0
0
0
0
0
0
0
0
0
0
0
0
0
0
0
0
0
0
0
0
0
0
0
0
0
0
0
0
0
0
0
0
0
0
0
0
0
0
0
0
0
0
0
0
0
0
0
0
0
0
0
0
0
0
0
0
0
0
0
0
0
0
0
0
0
0
0
0
0
0
0
0
0
0
0
0
0
0
0
0
0
0
0
0
0
0
0
0
0
0
0
0
0
0
0
0
0
0
0
0
0
0
0
0
0
0
0
0
0
0
0
0
0
0
0
0
0
0
0
0
0
0
0
0
0
0
0
0
0
0
0
0
3.17619e-15
1.81102e-14
5.27912e-14
1.23324e-13
2.50687e-13
4.9301e-13
9.42649e-13
1.71919e-12
3.48418e-12
6.69493e-12
1.42418e-11
3.36339e-11
4.45304e-11
2.19824e-11
0
0
1.29194e-08
4.75475e-08
6.29997e-08
3.6345e-08
1.28513e-08
0
0
0
0
0
0
0
0
0
0
0
0
0
0
0
0
0
0
0
0
0
0
0
0
0
0
0
0
0
0
0
0
0
0
0
0
0
0
0
0
0
0
0
0
0
0
0
0
0
0
0
0
0
0
0
0
0
0
0
0
0
0
0
0
0
0
0
0
0
0
0
0
0
0
0
0
0
0
0
0
0
0
0
0
0
0
0
0
0
0
0
0
0
0
0
0
0
0
0
0
0
0
0
0
0
0
0
0
0
0
0
0
0
0
0
0
0
0
0
0
0
0
0
0
0
0
0
0
0
0
0
0
0
0
0
0
0
0
0
0
0
0
0
0
0
0
0
0
0
0
0
0
0
0
0
0
0
0
0
1.40452e-16
1.4165e-15
4.35065e-15
1.05284e-14
2.14661e-14
4.29592e-14
8.39068e-14
1.49189e-13
3.23644e-13
6.00391e-13
1.29117e-12
3.43522e-12
4.43574e-12
1.0439e-11
0
0
2.47605e-09
1.99569e-08
7.62028e-08
9.70688e-08
9.40042e-08
9.11677e-08
8.72241e-08
8.27754e-08
7.85043e-08
7.42555e-08
6.9692e-08
6.4514e-08
5.89299e-08
5.31404e-08
4.71972e-08
4.12471e-08
3.53503e-08
2.95322e-08
2.39395e-08
1.87178e-08
1.39101e-08
9.50435e-09
5.50482e-09
1.93415e-09
0
0
0
0
0
0
0
0
0
0
0
0
0
0
0
0
0
0
0
0
0
0
0
0
0
0
0
0
0
0
0
0
0
0
0
0
0
0
0
0
0
0
0
0
0
0
0
0
0
0
0
0
0
0
0
0
0
0
0
0
0
0
0
0
0
0
0
0
0
0
0
0
0
0
0
0
0
0
0
0
0
0
0
0
0
0
0
0
0
0
0
0
0
0
0
0
0
0
0
0
0
0
0
0
0
0
0
0
0
0
0
0
0
0
0
0
0
0
0
0
0
0
0
0
0
0
0
0
0
0
0
0
0
0
0
0
0
0
0
0
0
0
1.22051e-17
2.29481e-16
7.01253e-16
1.61644e-15
3.81333e-15
6.66698e-15
1.76711e-14
3.38653e-14
7.07167e-14
2.76374e-13
0
1.8153e-12
0
0
0
9.48116e-09
4.13701e-08
9.4819e-08
9.69826e-08
9.76503e-08
9.7251e-08
9.71458e-08
9.74577e-08
9.81946e-08
9.91718e-08
1.00211e-07
1.01165e-07
1.01916e-07
1.02369e-07
1.02451e-07
1.02099e-07
1.01296e-07
1.00029e-07
9.83042e-08
9.61425e-08
9.35749e-08
9.0642e-08
8.73908e-08
8.38724e-08
8.014e-08
7.62464e-08
7.22429e-08
6.81776e-08
6.40945e-08
6.00333e-08
5.60289e-08
5.21114e-08
4.83061e-08
4.46337e-08
4.11105e-08
3.77491e-08
3.45582e-08
3.15437e-08
2.87085e-08
2.60532e-08
2.35768e-08
2.12769e-08
1.91477e-08
1.71809e-08
1.53697e-08
1.37089e-08
1.21911e-08
1.08082e-08
9.55191e-09
8.41404e-09
7.38641e-09
6.46102e-09
5.63016e-09
4.88637e-09
4.22258e-09
3.63205e-09
3.10846e-09
2.64586e-09
2.23875e-09
1.88203e-09
1.57102e-09
1.30139e-09
1.06921e-09
8.70842e-10
7.02917e-10
5.62266e-10
4.45872e-10
3.50822e-10
2.74274e-10
2.13487e-10
1.65818e-10
1.28852e-10
1.00366e-10
7.84809e-11
6.16618e-11
4.86816e-11
3.85956e-11
3.06955e-11
2.44593e-11
1.95039e-11
1.55471e-11
1.23785e-11
9.8384e-12
7.8027e-12
6.17374e-12
4.87282e-12
3.83737e-12
3.01524e-12
2.36325e-12
1.84886e-12
1.44501e-12
1.12772e-12
8.80081e-13
6.87794e-13
5.36221e-13
4.1766e-13
3.2911e-13
2.61547e-13
2.05502e-13
1.59419e-13
1.22762e-13
9.42815e-14
7.25467e-14
5.61372e-14
4.37958e-14
3.45075e-14
2.74939e-14
2.21709e-14
1.8105e-14
1.49755e-14
1.25454e-14
1.06389e-14
9.12648e-15
7.91151e-15
6.92288e-15
6.10747e-15
5.426e-15
4.84894e-15
4.35444e-15
3.92591e-15
3.55076e-15
3.21932e-15
2.9243e-15
2.66019e-15
2.42282e-15
2.20864e-15
2.0147e-15
1.83848e-15
1.67809e-15
1.53188e-15
1.3985e-15
1.27672e-15
1.16546e-15
1.06373e-15
9.70729e-16
8.8566e-16
8.07849e-16
7.36621e-16
6.71508e-16
6.11836e-16
5.56892e-16
5.05968e-16
4.58605e-16
4.14387e-16
3.72885e-16
3.33526e-16
2.95699e-16
2.58733e-16
2.21941e-16
1.84526e-16
1.45595e-16
1.04048e-16
5.85948e-17
7.63385e-18
0
0
0
0
0
0
0
0
0
0
0
0
0
0
0
0
0
0
0
0
0
0
0
6.52803e-13
0
0
5.23688e-09
2.03382e-08
8.71208e-08
8.44216e-08
8.47039e-08
8.52193e-08
8.66715e-08
8.88367e-08
9.1502e-08
9.43804e-08
9.72355e-08
9.98738e-08
1.02134e-07
1.03895e-07
1.05074e-07
1.05617e-07
1.05468e-07
1.04657e-07
1.03201e-07
1.0114e-07
9.85307e-08
9.54404e-08
9.19418e-08
8.81106e-08
8.4022e-08
7.97481e-08
7.53564e-08
7.09081e-08
6.64573e-08
6.20513e-08
5.77301e-08
5.35269e-08
4.94683e-08
4.55752e-08
4.18629e-08
3.8342e-08
3.50193e-08
3.18978e-08
2.89777e-08
2.62566e-08
2.37299e-08
2.13912e-08
1.92352e-08
1.7256e-08
1.54454e-08
1.37921e-08
1.2286e-08
1.0918e-08
9.67871e-09
8.55919e-09
7.55057e-09
6.64426e-09
5.83204e-09
5.10604e-09
4.45881e-09
3.88329e-09
3.37289e-09
2.92144e-09
2.52319e-09
2.17283e-09
1.86544e-09
1.59651e-09
1.3619e-09
1.15781e-09
9.80825e-10
8.27801e-10
6.9592e-10
5.82633e-10
4.85653e-10
4.0293e-10
3.32633e-10
2.73132e-10
2.22979e-10
1.80894e-10
1.45746e-10
1.16542e-10
9.24093e-11
7.25874e-11
5.64136e-11
4.33129e-11
3.27876e-11
2.44093e-11
1.78106e-11
1.2678e-11
8.74472e-12
5.78545e-12
3.60903e-12
2.05155e-12
9.83905e-13
2.97328e-13
0
0
0
0
0
0
0
0
0
0
0
0
0
0
0
0
0
0
0
0
0
0
0
0
0
0
0
0
0
0
0
0
0
0
0
0
0
0
0
0
0
0
0
0
0
0
0
0
0
0
0
0
0
0
0
0
0
0
0
0
0
0
0
0
0
2.07737e-15
1.25434e-14
2.58057e-14
4.31625e-14
6.67298e-14
1.00283e-13
1.5144e-13
2.37636e-13
4.02922e-13
7.57554e-13
1.53005e-12
3.07286e-12
5.8491e-12
1.05609e-11
1.85462e-11
3.17471e-11
5.43345e-11
8.73323e-11
1.36169e-10
1.75277e-10
1.94348e-10
1.10251e-10
6.67289e-11
0
0
1.07357e-09
7.91789e-09
5.98772e-08
5.52232e-08
5.88584e-08
6.37231e-08
6.93944e-08
7.54537e-08
8.17411e-08
8.79961e-08
9.39224e-08
9.92989e-08
1.03939e-07
1.07712e-07
1.10518e-07
1.12318e-07
1.13077e-07
1.12792e-07
1.11574e-07
1.09487e-07
1.06635e-07
1.0313e-07
9.90922e-08
9.46375e-08
8.9878e-08
8.49166e-08
7.98453e-08
7.47442e-08
6.96813e-08
6.4713e-08
5.98848e-08
5.52321e-08
5.07812e-08
4.65508e-08
4.25532e-08
3.87949e-08
3.52777e-08
3.20001e-08
2.89576e-08
2.61435e-08
2.35491e-08
2.11644e-08
1.89777e-08
1.69792e-08
1.51584e-08
1.35032e-08
1.20023e-08
1.06447e-08
9.41964e-09
8.31679e-09
7.32631e-09
6.43884e-09
5.64553e-09
4.93804e-09
4.3086e-09
3.74993e-09
3.25526e-09
2.81834e-09
2.43336e-09
2.09503e-09
1.79844e-09
1.53913e-09
1.31303e-09
1.11644e-09
9.45989e-10
7.98646e-10
6.71668e-10
5.62589e-10
4.69199e-10
3.8952e-10
3.21788e-10
2.64435e-10
2.16067e-10
1.75456e-10
1.41517e-10
1.13294e-10
8.99529e-11
7.07623e-11
5.50866e-11
4.23738e-11
3.21464e-11
2.39928e-11
1.75599e-11
1.25461e-11
8.69476e-12
5.78919e-12
3.64424e-12
2.10245e-12
1.03826e-12
3.47097e-13
0
0
0
0
0
0
0
0
0
0
0
0
0
0
0
0
0
0
0
0
0
0
0
0
0
0
0
0
0
0
0
0
0
0
0
0
0
0
0
0
0
0
0
0
0
0
0
0
0
0
0
0
0
0
0
0
0
0
0
0
0
0
0
0
0
1.22887e-13
2.82064e-13
3.93449e-13
4.77375e-13
5.51183e-13
6.28836e-13
7.3077e-13
8.79946e-13
1.12102e-12
1.52456e-12
2.21053e-12
3.38142e-12
5.38853e-12
8.79968e-12
1.46083e-11
2.41344e-11
3.96068e-11
6.12892e-11
8.99166e-11
1.07251e-10
1.18538e-10
4.16058e-11
3.73124e-11
0
0
0
0
0
2.97002e-09
1.87384e-08
3.23323e-08
4.47479e-08
5.6307e-08
6.7709e-08
7.89438e-08
8.94683e-08
9.89099e-08
1.07075e-07
1.13788e-07
1.18913e-07
1.22415e-07
1.24344e-07
1.24652e-07
1.23581e-07
1.2127e-07
1.17893e-07
1.13645e-07
1.08714e-07
1.03282e-07
9.75116e-08
9.15473e-08
8.55122e-08
7.95085e-08
7.36188e-08
6.79076e-08
6.24229e-08
5.71993e-08
5.22594e-08
4.76166e-08
4.3276e-08
3.92371e-08
3.54944e-08
3.20391e-08
2.88599e-08
2.59436e-08
2.32758e-08
2.08391e-08
1.86209e-08
1.6609e-08
1.47855e-08
1.31366e-08
1.16488e-08
1.0309e-08
9.10489e-09
8.02497e-09
7.05836e-09
6.1949e-09
5.42517e-09
4.74039e-09
4.13248e-09
3.59395e-09
3.11793e-09
2.69809e-09
2.32865e-09
2.00431e-09
1.72027e-09
1.47211e-09
1.25588e-09
1.06795e-09
9.05078e-10
7.64317e-10
6.43027e-10
5.38838e-10
4.49627e-10
3.73502e-10
3.08774e-10
2.53945e-10
2.07686e-10
1.68825e-10
1.36328e-10
1.09285e-10
8.69002e-11
6.84786e-11
5.34145e-11
4.11822e-11
3.13271e-11
2.34572e-11
1.72358e-11
1.23755e-11
8.63132e-12
5.79696e-12
3.69438e-12
2.17457e-12
1.11571e-12
4.20031e-13
0
0
0
0
0
0
0
0
0
0
0
0
0
0
0
0
0
0
0
0
0
0
0
0
0
0
0
0
0
0
0
0
0
0
0
0
0
0
0
0
0
0
0
0
0
0
0
0
0
0
0
0
0
0
0
0
0
0
0
0
0
0
0
0
0
4.21236e-14
1.86944e-13
2.9695e-13
3.82756e-13
4.56629e-13
5.30387e-13
6.20004e-13
7.44619e-13
9.40791e-13
1.26387e-12
1.80571e-12
2.71902e-12
4.25686e-12
6.8247e-12
1.1056e-11
1.77673e-11
2.78815e-11
4.12159e-11
5.59133e-11
6.17648e-11
7.01016e-11
1.00832e-11
1.00346e-13
0
0
0
0
0
0
0
0
1.77798e-08
3.50462e-08
5.22837e-08
6.92562e-08
8.53858e-08
1.00242e-07
1.13428e-07
1.24388e-07
1.32789e-07
1.38542e-07
1.41797e-07
1.4257e-07
1.41308e-07
1.38281e-07
1.33799e-07
1.28186e-07
1.21744e-07
1.14745e-07
1.07425e-07
9.99794e-08
9.25672e-08
8.53123e-08
7.83079e-08
7.16205e-08
6.52945e-08
5.93564e-08
5.3819e-08
4.86833e-08
4.39426e-08
3.95843e-08
3.55917e-08
3.19453e-08
2.86241e-08
2.56061e-08
2.28631e-08
2.03816e-08
1.81453e-08
1.61275e-08
1.43107e-08
1.26776e-08
1.12121e-08
9.89896e-09
8.7242e-09
7.6749e-09
6.73918e-09
5.9061e-09
5.16567e-09
4.50872e-09
3.92689e-09
3.41253e-09
2.9587e-09
2.55907e-09
2.20788e-09
1.89992e-09
1.63048e-09
1.39527e-09
1.19043e-09
1.0125e-09
8.58334e-10
7.25123e-10
6.10347e-10
5.11749e-10
4.27312e-10
3.55239e-10
2.93935e-10
2.41981e-10
1.98124e-10
1.61255e-10
1.30398e-10
1.04698e-10
8.34031e-11
6.58577e-11
5.14909e-11
3.98073e-11
3.0378e-11
2.28331e-11
1.68547e-11
1.21713e-11
8.55149e-12
5.8001e-12
3.74824e-12
2.25512e-12
1.20419e-12
5.03723e-13
6.96113e-14
0
0
0
0
0
0
0
0
0
0
0
0
0
0
0
0
0
0
0
0
0
0
0
0
0
0
0
0
0
0
0
0
0
0
0
0
0
0
0
0
0
0
0
0
0
0
0
0
0
0
0
0
0
0
0
0
0
0
0
0
0
0
0
0
0
1.05027e-13
2.09581e-13
2.92835e-13
3.63227e-13
4.30499e-13
5.05369e-13
6.05002e-13
7.55695e-13
9.97865e-13
1.39813e-12
2.0647e-12
3.16768e-12
4.96805e-12
7.81348e-12
1.21472e-11
1.80621e-11
2.53081e-11
3.09272e-11
3.22075e-11
2.60834e-11
0
0
0
0
0
0
0
0
0
0
0
1.50934e-08
3.87136e-08
6.22912e-08
8.5167e-08
1.06935e-07
1.26794e-07
1.43486e-07
1.56305e-07
1.64979e-07
1.6947e-07
1.70138e-07
1.67813e-07
1.63018e-07
1.56315e-07
1.48232e-07
1.39243e-07
1.29747e-07
1.20068e-07
1.10458e-07
1.01106e-07
9.21471e-08
8.36718e-08
7.57344e-08
6.83615e-08
6.15595e-08
5.53196e-08
4.96208e-08
4.44361e-08
3.97347e-08
3.54826e-08
3.16464e-08
2.81884e-08
2.5065e-08
2.22682e-08
1.97666e-08
1.75231e-08
1.55148e-08
1.37193e-08
1.21157e-08
1.0685e-08
9.4099e-09
8.27465e-09
7.26506e-09
6.36827e-09
5.57266e-09
4.86775e-09
4.24405e-09
3.69301e-09
3.20693e-09
2.77884e-09
2.40248e-09
2.07219e-09
1.78289e-09
1.53e-09
1.30941e-09
1.11741e-09
9.50692e-10
8.06277e-10
6.81506e-10
5.73997e-10
4.81626e-10
4.025e-10
3.34934e-10
2.77433e-10
2.28672e-10
1.87479e-10
1.5282e-10
1.23786e-10
9.95764e-11
7.94917e-11
6.29205e-11
4.933e-11
3.82579e-11
2.93039e-11
2.21225e-11
1.64169e-11
1.19327e-11
8.45376e-12
5.79694e-12
3.80388e-12
2.34303e-12
1.30346e-12
5.99533e-13
1.51496e-13
0
0
0
0
0
0
0
0
0
0
0
0
0
0
0
0
0
0
0
0
0
0
0
0
0
0
0
0
0
0
0
0
0
0
0
0
0
0
0
0
0
0
0
0
0
0
0
0
0
0
0
0
0
0
0
0
0
0
0
0
0
0
0
0
0
2.78147e-14
1.24337e-13
2.02703e-13
2.68079e-13
3.27748e-13
3.89273e-13
4.65519e-13
5.72922e-13
7.40728e-13
1.01296e-12
1.45845e-12
2.17773e-12
3.3174e-12
5.02451e-12
7.4808e-12
1.03756e-11
1.38757e-11
1.40554e-11
1.38052e-11
2.71644e-12
0
0
0
0
0
0
0
0
0
0
0
0
2.62912e-08
5.99847e-08
9.45012e-08
1.27173e-07
1.56274e-07
1.80055e-07
1.97627e-07
2.09198e-07
2.14146e-07
2.13335e-07
2.07909e-07
1.99234e-07
1.88248e-07
1.75784e-07
1.62552e-07
1.4912e-07
1.359e-07
1.23176e-07
1.11139e-07
9.99064e-08
8.95348e-08
8.00393e-08
7.14034e-08
6.3595e-08
5.65668e-08
5.02563e-08
4.46051e-08
3.95608e-08
3.50637e-08
3.10422e-08
2.74487e-08
2.42763e-08
2.14607e-08
1.89549e-08
1.67287e-08
1.4752e-08
1.29978e-08
1.14415e-08
1.00614e-08
8.83808e-09
7.75436e-09
6.79489e-09
5.94602e-09
5.1956e-09
4.53281e-09
3.94801e-09
3.43259e-09
2.97888e-09
2.58003e-09
2.2299e-09
1.92304e-09
1.65453e-09
1.42001e-09
1.21556e-09
1.0377e-09
8.83296e-10
7.49564e-10
6.34016e-10
5.34436e-10
4.4885e-10
3.75504e-10
3.12837e-10
2.59468e-10
2.14175e-10
1.75876e-10
1.43618e-10
1.16562e-10
9.39723e-11
7.52036e-11
5.96925e-11
4.6948e-11
3.65434e-11
2.81094e-11
2.13266e-11
1.59211e-11
1.1657e-11
8.33498e-12
5.78419e-12
3.85812e-12
2.43439e-12
1.40951e-12
7.04616e-13
2.46069e-13
0
0
0
0
0
0
0
0
0
0
0
0
0
0
0
0
0
0
0
0
0
0
0
0
0
0
0
0
0
0
0
0
0
0
0
0
0
0
0
0
0
0
0
0
0
0
0
0
0
0
0
0
0
0
0
0
0
0
0
0
0
0
0
0
0
0
4.21811e-14
1.14145e-13
1.73746e-13
2.25345e-13
2.75153e-13
3.29913e-13
4.00607e-13
5.05343e-13
6.69323e-13
9.30206e-13
1.33714e-12
1.95528e-12
2.80829e-12
3.92637e-12
4.93169e-12
5.61754e-12
4.76305e-12
1.68656e-12
0
0
0
0
0
0
0
0
0
0
0
0
0
1.43801e-08
6.57667e-08
1.21398e-07
1.73829e-07
2.18255e-07
2.51775e-07
2.73017e-07
2.84071e-07
2.86442e-07
2.80442e-07
2.67737e-07
2.51304e-07
2.32602e-07
2.12742e-07
1.9272e-07
1.73409e-07
1.55133e-07
1.38113e-07
1.22497e-07
1.08332e-07
9.55974e-08
8.42266e-08
7.41328e-08
6.52335e-08
5.73715e-08
5.04231e-08
4.43033e-08
3.89199e-08
3.41609e-08
3.00013e-08
2.63819e-08
2.31946e-08
2.03863e-08
1.79146e-08
1.57388e-08
1.38229e-08
1.21352e-08
1.0648e-08
9.33717e-09
8.18166e-09
7.16303e-09
6.26515e-09
5.47386e-09
4.77677e-09
4.16294e-09
3.62277e-09
3.14778e-09
2.73047e-09
2.36421e-09
2.04314e-09
1.76204e-09
1.51629e-09
1.30178e-09
1.11486e-09
9.52286e-10
8.11161e-10
6.88917e-10
5.83268e-10
4.92182e-10
4.13854e-10
3.46681e-10
2.89243e-10
2.40282e-10
1.98685e-10
1.6347e-10
1.33771e-10
1.08825e-10
8.79623e-11
7.05978e-11
5.6219e-11
4.43788e-11
3.4689e-11
2.68127e-11
2.04585e-11
1.53766e-11
1.13507e-11
8.19955e-12
5.76506e-12
3.91426e-12
2.53335e-12
1.52514e-12
8.20273e-13
3.49216e-13
5.09462e-14
0
0
0
0
0
0
0
0
0
0
0
0
0
0
0
0
0
0
0
0
0
0
0
0
0
0
0
0
0
0
0
0
0
0
0
0
0
0
0
0
0
0
0
0
0
0
0
0
0
0
0
0
0
0
0
0
0
0
0
0
0
0
0
0
0
0
3.21034e-14
8.48054e-14
1.28814e-13
1.67442e-13
2.05448e-13
2.4797e-13
3.03253e-13
3.83971e-13
5.06242e-13
6.85529e-13
9.37382e-13
1.22994e-12
1.57649e-12
1.53307e-12
1.48131e-12
0
0
0
0
0
0
0
0
0
0
0
0
0
0
0
0
9.02753e-08
1.89561e-07
2.76828e-07
3.45154e-07
3.88039e-07
4.0741e-07
4.09074e-07
3.98293e-07
3.78055e-07
3.50566e-07
3.20285e-07
2.89177e-07
2.5819e-07
2.28342e-07
2.01727e-07
1.77026e-07
1.54508e-07
1.34415e-07
1.16704e-07
1.01218e-07
8.77501e-08
7.60757e-08
6.59335e-08
5.71578e-08
4.96021e-08
4.30899e-08
3.74797e-08
3.26874e-08
2.85384e-08
2.49188e-08
2.17681e-08
1.90255e-08
1.66355e-08
1.45503e-08
1.27288e-08
1.11358e-08
9.74128e-09
8.5194e-09
7.44799e-09
6.50794e-09
5.68279e-09
4.95829e-09
4.32209e-09
3.76345e-09
3.27304e-09
2.84269e-09
2.46524e-09
2.13444e-09
1.84477e-09
1.59138e-09
1.37e-09
1.17683e-09
1.00855e-09
8.62178e-10
7.35099e-10
6.24985e-10
5.29772e-10
4.47631e-10
3.76939e-10
3.16258e-10
2.64317e-10
2.19989e-10
1.8228e-10
1.5031e-10
1.23304e-10
1.0058e-10
8.15409e-11
6.56607e-11
5.24809e-11
4.16008e-11
3.2672e-11
2.5392e-11
1.94977e-11
1.47634e-11
1.09952e-11
8.03056e-12
5.7259e-12
3.96199e-12
2.6329e-12
1.65021e-12
9.53265e-13
4.70114e-13
1.48953e-13
0
0
0
0
0
0
0
0
0
0
0
0
0
0
0
0
0
0
0
0
0
0
0
0
0
0
0
0
0
0
0
0
0
0
0
0
0
0
0
0
0
0
0
0
0
0
0
0
0
0
0
0
0
0
0
0
0
0
0
0
0
0
0
0
0
0
0
0
2.91343e-14
6.08908e-14
8.73767e-14
1.111e-13
1.34751e-13
1.62674e-13
1.96664e-13
2.3771e-13
2.92281e-13
2.94724e-13
2.93458e-13
5.18685e-14
0
0
0
0
0
0
0
0
0
0
0
0
0
0
0
0
0
1.55721e-07
3.52968e-07
4.89845e-07
5.84396e-07
6.22615e-07
6.22193e-07
5.95084e-07
5.52756e-07
5.03243e-07
4.50275e-07
3.97667e-07
3.48485e-07
3.03465e-07
2.62055e-07
2.24207e-07
1.9117e-07
1.62899e-07
1.38879e-07
1.18504e-07
1.01235e-07
8.65987e-08
7.41928e-08
6.36764e-08
5.47847e-08
4.72509e-08
4.08401e-08
3.53448e-08
3.05992e-08
2.65155e-08
2.30063e-08
1.99864e-08
1.73826e-08
1.51328e-08
1.3185e-08
1.14954e-08
1.00272e-08
8.74923e-09
7.63521e-09
6.66281e-09
5.8131e-09
5.06988e-09
4.41933e-09
3.8496e-09
3.35046e-09
2.91312e-09
2.52994e-09
2.19428e-09
1.90039e-09
1.64323e-09
1.41837e-09
1.22196e-09
1.05059e-09
9.01265e-10
7.71338e-10
6.58477e-10
5.60614e-10
4.75925e-10
4.0279e-10
3.39778e-10
2.85622e-10
2.39201e-10
1.99524e-10
1.65716e-10
1.37002e-10
1.12699e-10
9.22072e-11
7.49988e-11
6.06102e-11
4.86362e-11
3.87229e-11
3.05612e-11
2.38819e-11
1.84555e-11
1.40798e-11
1.05825e-11
7.81282e-12
5.64321e-12
3.96842e-12
2.68884e-12
1.73573e-12
1.05025e-12
5.65985e-13
2.4097e-13
3.30282e-14
0
0
0
0
0
0
0
0
0
0
0
0
0
0
0
0
0
0
0
0
0
0
0
0
0
0
0
0
0
0
0
0
0
0
0
0
0
0
0
0
0
0
0
0
0
0
0
0
0
0
0
0
0
0
0
0
0
0
0
0
0
0
0
0
0
0
0
0
0
0
7.78397e-15
1.77576e-14
2.33414e-14
2.35879e-14
1.70258e-14
1.21902e-17
0
0
0
0
0
0
0
0
0
0
0
0
0
0
0
0
0
0
0
0
2.58518e-07
6.67703e-07
8.69156e-07
1.00727e-06
1.00715e-06
9.54353e-07
8.65687e-07
7.62551e-07
6.60249e-07
5.62186e-07
4.72955e-07
3.94513e-07
3.27907e-07
2.71748e-07
2.2589e-07
1.89048e-07
1.5901e-07
1.34133e-07
1.13428e-07
9.61465e-08
8.16881e-08
6.95605e-08
5.93791e-08
5.07743e-08
4.34689e-08
3.72674e-08
3.20137e-08
2.75625e-08
2.37807e-08
2.05573e-08
1.78018e-08
1.54396e-08
1.34093e-08
1.16596e-08
1.01483e-08
8.83992e-09
7.70487e-09
6.71833e-09
5.85943e-09
5.11055e-09
4.45676e-09
3.88538e-09
3.3856e-09
2.94818e-09
2.56516e-09
2.22972e-09
1.93593e-09
1.67868e-09
1.45351e-09
1.25653e-09
1.08436e-09
9.33999e-10
8.02844e-10
6.88588e-10
5.89199e-10
5.02883e-10
4.28056e-10
3.63316e-10
3.07423e-10
2.59278e-10
2.17913e-10
1.82467e-10
1.52181e-10
1.2638e-10
1.04473e-10
8.59376e-11
7.0314e-11
5.71969e-11
4.62315e-11
3.71076e-11
2.95545e-11
2.33364e-11
1.82504e-11
1.41168e-11
1.07864e-11
8.12065e-12
6.00808e-12
4.35582e-12
3.0647e-12
2.08258e-12
1.34965e-12
8.06976e-13
4.36798e-13
1.89148e-13
1.6536e-14
0
0
0
0
0
0
0
0
0
0
0
0
0
0
0
0
0
0
0
0
0
0
0
0
0
0
0
0
0
0
0
0
0
0
0
0
0
0
0
0
0
0
0
0
0
0
0
0
0
0
0
0
0
0
2.0237e-14
6.39631e-14
1.01403e-13
1.27807e-13
1.39694e-13
1.36414e-13
1.20954e-13
9.88677e-14
7.58854e-14
5.5872e-14
4.01492e-14
2.82866e-14
1.90986e-14
1.12853e-14
3.72194e-15
0
0
0
0
0
0
0
0
0
0
0
0
0
0
0
0
0
0
0
0
0
0
0
0
0
0
6.27376e-07
1.60785e-06
1.92388e-06
2.08818e-06
1.85557e-06
1.59415e-06
1.32552e-06
1.07986e-06
8.70081e-07
6.8784e-07
5.39153e-07
4.19819e-07
3.30446e-07
2.66031e-07
2.16253e-07
1.76812e-07
1.45355e-07
1.20209e-07
9.9983e-08
8.35907e-08
7.02069e-08
5.92092e-08
5.01189e-08
4.25922e-08
3.63476e-08
3.11398e-08
2.67679e-08
2.30758e-08
1.99428e-08
1.72733e-08
1.49903e-08
1.30311e-08
1.13446e-08
9.88845e-09
8.62797e-09
7.53419e-09
6.58302e-09
5.75425e-09
5.03089e-09
4.39862e-09
3.84528e-09
3.36051e-09
2.93549e-09
2.56261e-09
2.23535e-09
1.94805e-09
1.69582e-09
1.47441e-09
1.28014e-09
1.10978e-09
9.60478e-10
8.29758e-10
7.15427e-10
6.15556e-10
5.28436e-10
4.52555e-10
3.86578e-10
3.2932e-10
2.79731e-10
2.3688e-10
1.99942e-10
1.68183e-10
1.40946e-10
1.17655e-10
9.78007e-11
8.09323e-11
6.66513e-11
5.46058e-11
4.44854e-11
3.60188e-11
2.89681e-11
2.31281e-11
1.83186e-11
1.43822e-11
1.11833e-11
8.59683e-12
6.52869e-12
4.88534e-12
3.58067e-12
2.56936e-12
1.79254e-12
1.19152e-12
7.45923e-13
4.27887e-13
2.09458e-13
6.79007e-14
0
0
0
0
0
0
0
0
0
0
0
0
0
0
0
0
0
0
0
0
0
0
0
0
0
0
0
0
0
0
0
0
0
0
0
0
0
0
0
0
0
0
0
0
0
0
0
0
0
0
0
0
0
0
0
0
0
0
0
0
0
0
0
0
0
0
0
0
0
0
0
0
0
0
0
0
0
0
0
0
0
0
0
0
0
0
0
0
0
0
0
0
0
0
2.68498e-06
4.85541e-06
4.96555e-06
4.75059e-06
3.58126e-06
2.63207e-06
1.90653e-06
1.39636e-06
1.00876e-06
7.3078e-07
5.33571e-07
4.01125e-07
3.03031e-07
2.28321e-07
1.73379e-07
1.33424e-07
1.04337e-07
8.30172e-08
6.71603e-08
5.51449e-08
4.58733e-08
3.85917e-08
3.27737e-08
2.80421e-08
2.41349e-08
2.08723e-08
1.81251e-08
1.57952e-08
1.38064e-08
1.20986e-08
1.06243e-08
9.34542e-09
8.23142e-09
7.25747e-09
6.40322e-09
5.65189e-09
4.98948e-09
4.40432e-09
3.88655e-09
3.42781e-09
3.02099e-09
2.65997e-09
2.3395e-09
2.05525e-09
1.80356e-09
1.58077e-09
1.38364e-09
1.20931e-09
1.05524e-09
9.19217e-10
7.99231e-10
6.93517e-10
6.00503e-10
5.18783e-10
4.47103e-10
3.8434e-10
3.2949e-10
2.81656e-10
2.40036e-10
2.03915e-10
1.7265e-10
1.4566e-10
1.22422e-10
1.02474e-10
8.5405e-11
7.08516e-11
5.84905e-11
4.80335e-11
3.92225e-11
3.18304e-11
2.56578e-11
2.05337e-11
1.63039e-11
1.28369e-11
1.00115e-11
7.72441e-12
5.89716e-12
4.435e-12
3.28389e-12
2.38926e-12
1.68848e-12
1.16124e-12
7.68701e-13
4.67356e-13
2.54708e-13
1.08107e-13
0
0
0
0
0
0
0
0
0
0
0
0
0
0
0
0
0
0
0
0
0
0
0
0
0
0
0
0
0
0
0
0
0
0
0
0
0
0
0
0
0
0
0
0
0
0
0
0
0
0
0
0
0
0
0
0
0
0
0
0
0
0
0
0
0
0
0
0
0
0
0
0
0
0
0
0
0
0
0
0
0
0
0
0
0
0
0
0
0
0
0
0
0
6.8542e-07
4.4493e-06
7.77535e-06
8.00177e-06
7.18279e-06
4.91362e-06
3.09019e-06
1.90935e-06
1.22544e-06
8.11302e-07
5.53883e-07
3.93032e-07
2.80321e-07
2.01859e-07
1.47262e-07
1.08577e-07
8.08064e-08
6.07814e-08
4.62908e-08
3.58353e-08
2.82475e-08
2.26754e-08
1.852e-08
1.53625e-08
1.29131e-08
1.09737e-08
9.40936e-09
8.12781e-09
7.06427e-09
6.17177e-09
5.41543e-09
4.76888e-09
4.21194e-09
3.72898e-09
3.30778e-09
2.93863e-09
2.61371e-09
2.32667e-09
2.07227e-09
1.84621e-09
1.64489e-09
1.46528e-09
1.30479e-09
1.16121e-09
1.03229e-09
9.16006e-10
8.11179e-10
7.16818e-10
6.32028e-10
5.5598e-10
4.87902e-10
4.27072e-10
3.72827e-10
3.2456e-10
2.8171e-10
2.43768e-10
2.10262e-10
1.80751e-10
1.54834e-10
1.32145e-10
1.12351e-10
9.5142e-11
8.02281e-11
6.73437e-11
5.62519e-11
4.674e-11
3.86204e-11
3.17229e-11
2.58928e-11
2.09893e-11
1.68853e-11
1.34699e-11
1.06476e-11
8.33203e-12
6.44715e-12
4.92464e-12
3.7052e-12
2.74346e-12
1.98709e-12
1.40405e-12
9.63135e-13
6.30472e-13
3.91817e-13
2.16977e-13
8.16221e-14
0
0
0
0
0
0
0
0
0
0
0
0
0
0
0
0
0
0
0
0
0
0
0
0
0
0
0
0
0
0
0
0
0
0
0
0
0
0
0
0
0
0
0
0
0
0
0
0
0
0
0
0
0
0
0
0
0
0
0
0
0
0
0
0
0
0
0
0
0
0
0
0
0
0
0
0
0
0
0
0
0
0
0
0
0
0
0
0
0
0
1.61012e-06
6.66111e-06
1.17552e-05
6.97641e-06
0
0
0
0
2.42685e-06
4.59383e-06
3.9157e-06
2.50325e-06
1.44864e-06
8.47992e-07
5.14515e-07
3.3145e-07
2.28453e-07
1.63725e-07
1.18842e-07
8.65755e-08
6.3262e-08
4.64626e-08
3.4383e-08
2.5669e-08
1.93427e-08
1.47626e-08
1.14372e-08
9.00377e-09
7.20873e-09
5.87032e-09
4.85801e-09
4.07835e-09
3.46529e-09
2.9739e-09
2.57351e-09
2.24253e-09
1.96535e-09
1.73042e-09
1.52911e-09
1.35493e-09
1.20297e-09
1.0695e-09
9.516e-10
8.4699e-10
7.53829e-10
6.70625e-10
5.9615e-10
5.29382e-10
4.69467e-10
4.1568e-10
3.67395e-10
3.24064e-10
2.85214e-10
2.50426e-10
2.19325e-10
1.91563e-10
1.66824e-10
1.44823e-10
1.25295e-10
1.08007e-10
9.27487e-11
7.93223e-11
6.75448e-11
5.72468e-11
4.82782e-11
4.05017e-11
3.37892e-11
2.80183e-11
2.30775e-11
1.88668e-11
1.52976e-11
1.2291e-11
9.77699e-12
7.6918e-12
5.97497e-12
4.5721e-12
3.43778e-12
2.53035e-12
1.81542e-12
1.25983e-12
8.36661e-13
5.21096e-13
2.92638e-13
1.35785e-13
3.15727e-14
0
0
0
0
0
0
0
0
0
0
0
0
0
0
0
0
0
0
0
0
0
0
0
0
0
0
0
0
0
0
0
0
0
0
0
0
0
0
0
0
0
0
0
0
0
0
0
0
0
0
0
0
0
0
0
0
0
0
0
0
0
0
0
0
0
0
0
0
0
0
0
0
0
0
0
0
0
0
0
0
0
0
0
0
0
0
0
0
0
0
0
0
0
0
6.32919e-07
5.59933e-06
1.88479e-05
3.0382e-05
0
0
0
0
0
0
0
1.16462e-06
1.15499e-06
6.84089e-07
3.73562e-07
2.24472e-07
1.52558e-07
1.09847e-07
8.0729e-08
5.97973e-08
4.44153e-08
3.30622e-08
2.46694e-08
1.84588e-08
1.38671e-08
1.04573e-08
7.92833e-09
6.06579e-09
4.68538e-09
3.65667e-09
2.88681e-09
2.308e-09
1.87058e-09
1.53714e-09
1.27885e-09
1.07573e-09
9.13709e-10
7.82787e-10
6.75723e-10
5.87151e-10
5.13019e-10
4.50221e-10
3.96383e-10
3.49736e-10
3.08992e-10
2.73169e-10
2.41502e-10
2.13381e-10
1.88325e-10
1.65947e-10
1.45933e-10
1.2802e-10
1.11986e-10
9.76482e-11
8.4852e-11
7.34561e-11
6.33297e-11
5.43551e-11
4.64251e-11
3.94395e-11
3.33109e-11
2.79601e-11
2.3312e-11
1.92923e-11
1.58326e-11
1.28744e-11
1.03632e-11
8.2483e-12
6.47926e-12
5.01201e-12
3.80589e-12
2.82504e-12
2.03909e-12
1.42034e-12
9.43277e-13
5.83554e-13
3.20045e-13
1.36056e-13
1.54166e-14
0
0
0
0
0
0
0
0
0
0
0
0
0
0
0
0
0
0
0
0
0
0
0
0
0
0
0
0
0
0
0
0
0
0
0
0
0
0
0
0
0
0
0
0
0
0
0
0
0
0
0
0
0
0
0
0
0
0
0
0
0
0
0
0
0
0
0
0
0
0
0
0
0
0
0
0
0
0
0
0
0
0
0
0
0
0
0
0
0
0
0
0
0
0
0
0
0
0
0
0
0
0
0
0
0
0
0
0
0
0
0
0
3.0536e-07
3.98948e-07
1.68351e-07
7.29598e-08
4.90927e-08
4.19739e-08
3.69287e-08
3.1413e-08
2.58465e-08
2.07063e-08
1.61715e-08
1.24392e-08
9.51864e-09
7.28925e-09
5.60359e-09
4.32204e-09
3.33965e-09
2.59217e-09
2.02316e-09
1.58879e-09
1.25621e-09
1.00013e-09
8.01883e-10
6.48454e-10
5.28916e-10
4.34871e-10
3.60066e-10
2.99971e-10
2.51305e-10
2.11646e-10
1.79172e-10
1.5246e-10
1.3026e-10
1.11628e-10
9.58755e-11
8.2467e-11
7.09822e-11
6.10895e-11
5.25312e-11
4.50986e-11
3.86209e-11
3.29605e-11
2.8012e-11
2.36882e-11
1.99155e-11
1.6631e-11
1.37789e-11
1.13129e-11
9.19182e-12
7.38109e-12
5.84714e-12
4.56111e-12
3.49056e-12
2.60798e-12
1.8933e-12
1.32449e-12
8.80782e-13
5.41706e-13
2.91038e-13
1.13431e-13
0
0
0
0
0
0
0
0
0
0
0
0
0
0
0
0
0
0
0
0
0
0
0
0
0
0
0
0
0
0
0
0
0
0
0
0
0
0
0
0
0
0
0
0
0
0
0
0
0
0
0
0
0
0
0
0
0
0
0
0
0
0
0
0
0
0
0
0
0
0
0
0
0
0
0
0
0
0
0
0
0
0
0
0
0
0
0
0
0
0
0
0
0
0
0
0
0
0
0
0
0
0
0
0
0
0
0
0
0
0
0
0
0
0
0
0
0
0
0
6.42393e-07
8.73347e-07
2.69136e-07
0
0
0
5.62174e-09
9.74198e-09
1.00487e-08
9.1502e-09
8.13586e-09
7.08938e-09
5.96059e-09
4.85676e-09
3.89001e-09
3.09373e-09
2.45803e-09
1.95622e-09
1.55676e-09
1.23486e-09
9.75566e-10
7.68422e-10
6.06806e-10
4.83282e-10
3.86962e-10
3.11494e-10
2.52154e-10
2.05103e-10
1.67411e-10
1.36952e-10
1.12144e-10
9.18068e-11
7.506e-11
6.13437e-11
5.01343e-11
4.09512e-11
3.34071e-11
2.71972e-11
2.20772e-11
1.78573e-11
1.43808e-11
1.15153e-11
9.15699e-12
7.22236e-12
5.63754e-12
4.34342e-12
3.29659e-12
2.45423e-12
1.78091e-12
1.25093e-12
8.41054e-13
5.28413e-13
2.96884e-13
1.30521e-13
1.84306e-14
0
0
0
0
0
0
0
0
0
0
0
0
0
0
0
0
0
0
0
0
0
0
0
0
0
0
0
0
0
0
0
0
0
0
0
0
0
0
0
0
0
0
0
0
0
0
0
0
0
0
0
0
0
0
0
0
0
0
0
0
0
0
0
0
0
0
0
0
0
0
0
0
0
0
0
0
0
0
0
0
0
0
0
0
0
0
0
0
0
0
0
0
0
0
0
0
0
0
0
0
0
0
0
0
0
0
0
0
0
0
0
0
9.43239e-08
3.12842e-07
8.93125e-07
1.31487e-06
0
0
0
0
0
0
1.39524e-06
1.52993e-05
3.16964e-06
1.27465e-06
9.22034e-07
3.16826e-07
3.1624e-08
0
2.87966e-09
9.86331e-09
1.14799e-08
1.03216e-08
8.01312e-09
5.99124e-09
4.63973e-09
3.76662e-09
3.13872e-09
2.61882e-09
2.16003e-09
1.76167e-09
1.42666e-09
1.15429e-09
9.37003e-10
7.61546e-10
6.1763e-10
4.97506e-10
3.96465e-10
3.13945e-10
2.47562e-10
1.95123e-10
1.54458e-10
1.2256e-10
9.74274e-11
7.75762e-11
6.18206e-11
4.9255e-11
3.91701e-11
3.10439e-11
2.4491e-11
1.92055e-11
1.49453e-11
1.15182e-11
8.77395e-12
6.58912e-12
4.85862e-12
3.50124e-12
2.45136e-12
1.65011e-12
1.05007e-12
6.17371e-13
3.19657e-13
1.24463e-13
6.69958e-15
0
0
0
0
0
0
0
0
0
0
0
0
0
0
0
0
0
0
0
0
0
0
0
0
0
0
0
0
0
0
0
0
0
0
0
0
0
0
0
0
0
0
0
0
0
0
0
0
0
0
0
0
0
0
0
0
0
0
0
0
0
0
0
0
0
0
0
0
0
0
0
0
0
0
0
0
0
0
0
0
0
0
0
0
0
0
0
0
0
0
0
0
0
0
0
0
0
0
0
0
0
0
0
0
0
0
0
0
0
0
0
0
0
0
0
0
0
2.38495e-07
4.98493e-07
1.07943e-06
1.99396e-06
2.05039e-06
6.32684e-07
0
0
0
0
1.25146e-05
9.20906e-06
1.64738e-06
9.90223e-07
8.51665e-07
3.55719e-07
9.38244e-08
3.37265e-08
2.82788e-08
2.444e-08
1.91079e-08
1.47723e-08
1.15728e-08
8.97515e-09
6.75925e-09
4.98966e-09
3.73793e-09
2.91101e-09
2.34222e-09