/*--------------------------------*- C++ -*----------------------------------*\
  =========                 |
  \\      /  F ield         | OpenFOAM: The Open Source CFD Toolbox
   \\    /   O peration     | Website:  https://openfoam.org
    \\  /    A nd           | Version:  9
     \\/     M anipulation  |
\*---------------------------------------------------------------------------*/
FoamFile
{
    format      ascii;
    class       volScalarField;
    location    "0.24";
    object      nut;
}
// * * * * * * * * * * * * * * * * * * * * * * * * * * * * * * * * * * * * * //

dimensions      [0 2 -1 0 0 0 0];

internalField   nonuniform List<scalar> 
12225
(
4.04768e-05
3.83178e-05
3.62504e-05
3.44199e-05
3.29519e-05
3.18976e-05
3.12561e-05
3.09936e-05
3.10579e-05
3.13898e-05
3.19307e-05
3.26268e-05
3.34317e-05
3.43068e-05
3.5223e-05
3.61558e-05
3.711e-05
3.84917e-05
0.000281048
0.000209266
0.000176267
0.00015744
0.000146272
0.000139688
0.000135794
0.000133431
0.000131916
0.000130859
0.000130045
0.000129358
0.00012874
0.000128162
0.000127623
0.00012708
0.000126684
0.000125737
0.000556048
0.000419908
0.000349816
0.000304738
0.000272451
0.000247988
0.000228772
0.000213309
0.000200682
0.000190282
0.000181668
0.000174503
0.000168515
0.000163485
0.000159238
0.000155588
0.00015245
0.000149393
0.000740308
0.000625822
0.000544118
0.000485002
0.000439775
0.000403657
0.00037385
0.000348616
0.000326868
0.000307909
0.000291265
0.000276589
0.000263611
0.000252102
0.000241865
0.000232686
0.000224408
0.000216751
0.000817069
0.000759142
0.000700547
0.00064858
0.000603901
0.00056559
0.000532482
0.000503525
0.000477894
0.00045498
0.000434338
0.000415632
0.000398605
0.000383046
0.000368776
0.000355612
0.000343409
0.000332073
0.0008421
0.000819688
0.000789925
0.000757608
0.000725557
0.000695169
0.000666973
0.000641028
0.000617189
0.000595257
0.000575028
0.000556315
0.000538954
0.000522798
0.000507718
0.000493584
0.000480296
0.0004679
0.000849261
0.000841808
0.000829742
0.000814189
0.000796483
0.000777765
0.000758855
0.000740264
0.00072228
0.000705049
0.000688632
0.000673036
0.000658242
0.00064421
0.000630895
0.000618242
0.000606211
0.000594929
0.00085112
0.000848748
0.000844481
0.000838237
0.000830247
0.000820897
0.000810602
0.000799727
0.000788561
0.000777323
0.000766167
0.0007552
0.000744493
0.000734087
0.000724005
0.000714258
0.000704859
0.00069596
0.00085156
0.000850665
0.00084917
0.000846887
0.000843742
0.00083976
0.000835036
0.000829697
0.000823879
0.000817711
0.000811307
0.00080476
0.000798148
0.000791531
0.000784956
0.000778459
0.000772078
0.000765949
0.000851652
0.000851133
0.000850468
0.000849564
0.000848347
0.000846773
0.000844827
0.000842521
0.000839886
0.000836961
0.000833794
0.000830429
0.000826911
0.00082328
0.00081957
0.000815814
0.000812045
0.00080836
0.000851668
0.00085123
0.000850778
0.000850278
0.000849698
0.000849007
0.000848183
0.000847212
0.000846089
0.000844815
0.000843401
0.000841856
0.000840196
0.000838437
0.000836595
0.000834686
0.000832731
0.000830785
0.000851669
0.000851245
0.000850835
0.000850429
0.000850014
0.000849575
0.000849101
0.00084858
0.000848003
0.000847365
0.000846665
0.000845902
0.000845079
0.0008442
0.000843269
0.000842294
0.000841284
0.000840273
0.000851668
0.000851244
0.000850843
0.000850459
0.000850088
0.000849726
0.000849365
0.000849001
0.000848629
0.000848243
0.000847841
0.00084742
0.00084698
0.000846519
0.000846038
0.000845538
0.000845023
0.000844513
0.000851667
0.000851242
0.000850839
0.000850458
0.000850096
0.000849751
0.000849421
0.000849102
0.000848793
0.000848491
0.000848195
0.000847902
0.000847611
0.000847321
0.000847032
0.000846742
0.000846454
0.00084618
0.000851666
0.000851239
0.000850835
0.000850452
0.00085009
0.000849746
0.000849419
0.000849108
0.000848812
0.000848528
0.000848257
0.000847996
0.000847746
0.000847505
0.000847272
0.000847047
0.000846832
0.000846637
0.000851665
0.000851236
0.000850831
0.000850447
0.000850083
0.000849737
0.000849409
0.000849098
0.000848801
0.000848519
0.000848251
0.000847994
0.00084775
0.000847517
0.000847294
0.000847082
0.000846881
0.000846703
0.000851664
0.000851235
0.000850828
0.000850442
0.000850077
0.00084973
0.000849401
0.000849088
0.00084879
0.000848507
0.000848237
0.00084798
0.000847735
0.000847502
0.000847279
0.000847066
0.000846866
0.000846688
0.000851663
0.000851234
0.000850826
0.00085044
0.000850073
0.000849725
0.000849395
0.000849081
0.000848782
0.000848498
0.000848227
0.000847969
0.000847723
0.000847488
0.000847264
0.00084705
0.000846848
0.000846669
0.000851663
0.000851233
0.000850825
0.000850439
0.000850072
0.000849724
0.000849393
0.000849078
0.000848779
0.000848494
0.000848222
0.000847963
0.000847716
0.000847481
0.000847256
0.000847041
0.000846838
0.000846658
0.000851664
0.000851234
0.000850826
0.00085044
0.000850074
0.000849726
0.000849396
0.000849081
0.000848782
0.000848497
0.000848225
0.000847965
0.000847717
0.00084748
0.000847253
0.000847037
0.000846831
0.000846649
0.000851664
0.000851235
0.000850829
0.000850443
0.000850078
0.00084973
0.000849399
0.000849082
0.000848779
0.000848489
0.000848209
0.00084794
0.000847679
0.000847427
0.000847182
0.000846944
0.000846715
0.000846506
0.000851665
0.000851237
0.00085083
0.000850442
0.000850068
0.000849706
0.000849351
0.000848999
0.000848647
0.000848293
0.000847934
0.000847569
0.000847198
0.000846819
0.000846432
0.000846038
0.00084564
0.000845251
0.000851664
0.000851228
0.000850794
0.000850348
0.00084987
0.000849345
0.000848761
0.00084811
0.000847388
0.000846592
0.000845727
0.000844796
0.000843804
0.00084276
0.000841669
0.000840541
0.000839384
0.000838223
0.000851634
0.000851073
0.000850343
0.000849363
0.000848079
0.000846467
0.00084453
0.000842291
0.000839784
0.00083705
0.000834133
0.000831072
0.000827906
0.000824668
0.000821388
0.000818092
0.000814802
0.000811567
0.000851287
0.000849596
0.000846721
0.000842577
0.000837262
0.000830978
0.00082397
0.000816468
0.00080867
0.000800733
0.000792778
0.000784895
0.000777149
0.000769586
0.000762234
0.000755115
0.000748242
0.000741669
0.000848318
0.000839425
0.00082616
0.000810016
0.000792356
0.000774222
0.000756314
0.000739034
0.000722582
0.000707036
0.000692408
0.00067867
0.000665778
0.000653675
0.000642306
0.000631615
0.000621557
0.000612139
0.000828548
0.000788842
0.000746032
0.000705698
0.000669457
0.000637491
0.000609432
0.000584722
0.000562823
0.000543281
0.000525725
0.000509857
0.000495436
0.000482266
0.00047019
0.000459076
0.000448819
0.000439371
0.000730725
0.000627344
0.000554503
0.000501054
0.00046031
0.000428337
0.00040262
0.000381453
0.000363691
0.000348559
0.000335512
0.000324151
0.000314178
0.000305365
0.000297531
0.000290531
0.000284248
0.000278597
0.000439249
0.00033847
0.000287933
0.000256867
0.000236359
0.000222508
0.00021299
0.000206309
0.000201503
0.000197957
0.000195269
0.000193175
0.000191498
0.000190115
0.000188946
0.000187932
0.000187036
0.000186209
7.16431e-05
6.90587e-05
6.65522e-05
6.41646e-05
6.19883e-05
6.00784e-05
5.84565e-05
5.71213e-05
5.60572e-05
5.52403e-05
5.46437e-05
5.42395e-05
5.40011e-05
5.39033e-05
5.39238e-05
5.40423e-05
5.42416e-05
5.45053e-05
2.27193e-07
5.78276e-06
9.54793e-06
1.28854e-05
1.63595e-05
2.04418e-05
2.51557e-05
3.06381e-05
3.70373e-05
4.40611e-05
5.14417e-05
5.91732e-05
6.71973e-05
7.5445e-05
8.3848e-05
9.23422e-05
0.000100868
0.000109367
0.000117788
0.000126078
0.000134189
0.000142072
0.000149682
0.000156968
0.00016388
0.00017036
0.00017635
0.000181785
0.000186601
0.000190729
0.000194086
0.000196567
0.000198057
0.000198482
0.000197708
0.000194577
0.000195051
0.000196186
0.000195896
0.00019711
0.00019732
0.000196822
4.74438e-05
4.74707e-05
4.81913e-05
4.92383e-05
5.03123e-05
5.1397e-05
5.24872e-05
5.35801e-05
5.46737e-05
5.57668e-05
5.68585e-05
5.79484e-05
5.9036e-05
6.01208e-05
6.12027e-05
6.22813e-05
6.33563e-05
6.44275e-05
6.54945e-05
6.6557e-05
6.76147e-05
6.86672e-05
6.97142e-05
7.07552e-05
7.179e-05
7.2818e-05
7.38388e-05
7.48521e-05
7.58573e-05
7.6854e-05
7.78418e-05
7.88201e-05
7.97886e-05
8.07468e-05
8.16941e-05
8.26303e-05
8.35547e-05
8.44671e-05
8.53669e-05
8.62537e-05
8.71272e-05
8.79868e-05
8.88323e-05
8.96632e-05
9.04792e-05
9.12798e-05
9.20648e-05
9.28336e-05
9.3586e-05
9.43215e-05
9.50398e-05
9.57405e-05
9.64234e-05
9.70882e-05
9.7735e-05
9.83643e-05
9.89773e-05
9.95768e-05
0.000100161
0.000100724
0.000101264
0.000101783
0.000102281
0.000102756
0.00010321
0.00010364
0.000104048
0.000104432
0.000104792
0.000105129
0.000105441
0.000105729
0.000105992
0.000106231
0.000106444
0.000106632
0.000106794
0.000106931
0.000107043
0.000107129
0.000107189
0.000107223
0.000107232
0.000107216
0.000107174
0.000107106
0.000107013
0.000106895
0.000106752
0.000106584
0.000106392
0.000106175
0.000105934
0.00010567
0.000105382
0.000105071
0.000104738
0.000104382
0.000104005
0.000103606
0.000103187
0.000102747
0.000102287
0.000101809
0.000101311
0.000100796
0.000100263
9.97127e-05
9.91467e-05
9.85652e-05
9.79689e-05
9.73584e-05
9.67344e-05
9.60977e-05
9.54491e-05
9.47891e-05
9.41187e-05
9.34386e-05
9.27488e-05
9.20522e-05
9.13468e-05
9.06372e-05
8.99284e-05
8.92819e-05
8.8864e-05
8.84765e-05
8.80885e-05
8.76984e-05
8.73062e-05
8.69119e-05
8.65149e-05
8.61139e-05
8.57059e-05
8.52841e-05
8.4833e-05
8.43125e-05
8.3623e-05
8.23223e-05
8.62981e-07
2.38719e-05
5.24466e-05
7.33841e-05
8.84449e-05
9.93592e-05
0.000108449
0.00011705
0.000125806
0.00013497
0.000144562
0.00015451
0.000164719
0.000175094
0.00018555
0.00019601
0.000206402
0.000216657
0.000226711
0.000236498
0.000245949
0.000254992
0.000263547
0.000271521
0.000278805
0.000285273
0.000290779
0.000295159
0.000298234
0.000299807
0.000299642
0.000297432
0.000292747
0.000284957
0.000273505
0.00026127
0.000257406
0.000256435
0.000253342
0.000256897
0.000260452
0.000261496
0.00026096
0.000262855
0.000268606
0.000275012
0.00028155
0.000288473
0.000295692
0.000303138
0.000310765
0.000318543
0.000326453
0.000334483
0.000342623
0.000350869
0.000359216
0.000367661
0.000376202
0.000384836
0.000393562
0.000402378
0.000411281
0.000420271
0.000429344
0.000438498
0.00044773
0.000457036
0.000466414
0.00047586
0.000485369
0.000494937
0.000504559
0.00051423
0.000523944
0.000533698
0.000543484
0.000553297
0.000563131
0.000572981
0.00058284
0.000592703
0.000602563
0.000612416
0.000622255
0.000632076
0.000641873
0.000651642
0.000661378
0.000671077
0.000680734
0.000690344
0.000699904
0.000709405
0.000718841
0.000728196
0.000737451
0.000746567
0.00075549
0.000764048
0.000772008
0.000779797
0.000787464
0.000795008
0.000802425
0.000809711
0.000816859
0.000823865
0.000830721
0.000837424
0.000843968
0.000850347
0.000856557
0.000862593
0.00086845
0.000874124
0.00087961
0.000884905
0.000890004
0.000894903
0.0008996
0.000904091
0.000908374
0.000912445
0.000916302
0.000919943
0.000923367
0.00092657
0.000929552
0.000932311
0.000934847
0.000937159
0.000939246
0.000941109
0.000942748
0.000944162
0.000945354
0.000946324
0.000947073
0.000947603
0.000947917
0.000948015
0.000947902
0.00094758
0.000947052
0.000946322
0.000945393
0.000944269
0.000942955
0.000941456
0.000939776
0.00093792
0.000935894
0.000933705
0.000931358
0.000928855
0.000926211
0.000923427
0.000920511
0.000917476
0.000914313
0.000911056
0.000907701
0.000904212
0.000900488
0.000895934
0.000889357
0.000882122
0.000874676
0.000867127
0.000859513
0.000851851
0.000844149
0.000836409
0.000828625
0.000820773
0.000812778
0.000804529
0.000795036
0.000776613
1.72438e-06
3.88588e-05
8.38765e-05
0.000117727
0.000142179
0.000160402
0.000174876
0.000187359
0.000198969
0.000210337
0.000221756
0.00023332
0.00024502
0.000256798
0.000268584
0.000280301
0.000291876
0.000303239
0.000314322
0.000325058
0.000335382
0.000345227
0.000354525
0.000363203
0.00037119
0.000378413
0.000384808
0.00039033
0.000394964
0.000398741
0.00040174
0.000404085
0.000405937
0.000407465
0.000408955
0.000411623
0.000417142
0.000424613
0.000433088
0.000442998
0.000453347
0.000464444
0.000476587
0.000489401
0.000503373
0.00051795
0.000532883
0.000548162
0.000563765
0.000579663
0.000595829
0.00061224
0.00062888
0.000645735
0.000662796
0.000680056
0.000697508
0.000715147
0.000732968
0.000750968
0.000769142
0.000787486
0.000805994
0.000824661
0.000843482
0.00086245
0.000881558
0.000900798
0.000920162
0.000939641
0.000959225
0.000978904
0.000998667
0.0010185
0.0010384
0.00105835
0.00107833
0.00109834
0.00111836
0.00113838
0.00115839
0.00117836
0.00119831
0.00121819
0.00123802
0.00125777
0.00127744
0.001297
0.00131646
0.00133579
0.00135498
0.00137403
0.00139291
0.00141161
0.0014301
0.00144835
0.00146633
0.00148399
0.00150129
0.00151791
0.00153409
0.00154997
0.0015656
0.00158096
0.00159605
0.00161087
0.00162539
0.00163961
0.00165352
0.0016671
0.00168035
0.00169325
0.00170579
0.00171797
0.00172977
0.00174119
0.00175221
0.00176283
0.00177304
0.00178284
0.00179221
0.00180115
0.00180965
0.00181771
0.00182532
0.00183248
0.00183919
0.00184544
0.00185123
0.00185655
0.0018614
0.00186579
0.00186971
0.00187316
0.00187615
0.00187867
0.00188073
0.00188232
0.00188345
0.00188413
0.00188436
0.00188414
0.00188348
0.00188239
0.00188086
0.00187892
0.00187656
0.0018738
0.00187064
0.0018671
0.00186318
0.0018589
0.00185426
0.00184928
0.00184397
0.00183834
0.00183242
0.00182621
0.00181972
0.00181299
0.00180602
0.00179882
0.00179143
0.00178374
0.00177559
0.00176646
0.00175552
0.00174363
0.00173127
0.00171865
0.00170584
0.00169291
0.00167986
0.0016667
0.00165342
0.00163993
0.00162604
0.00161124
0.00159358
0.00156446
2.74222e-06
4.98435e-05
0.000106836
0.000150622
0.000183153
0.000207745
0.000227134
0.000243349
0.000257787
0.000271333
0.000284493
0.00029752
0.00031051
0.000323473
0.000336375
0.000349164
0.000361782
0.000374175
0.00038629
0.000398082
0.000409509
0.00042054
0.000431148
0.000441316
0.000451039
0.000460326
0.000469209
0.000477746
0.000486031
0.000494199
0.000502428
0.000510929
0.000519932
0.000529655
0.000540304
0.000552186
0.000565585
0.000580337
0.000596194
0.000613076
0.00063082
0.000649486
0.000669099
0.00068944
0.000710433
0.000731923
0.000753798
0.000776018
0.00079857
0.00082144
0.000844618
0.000868092
0.00089185
0.000915884
0.000940186
0.000964748
0.000989565
0.00101463
0.00103994
0.00106548
0.00109126
0.00111725
0.00114347
0.00116989
0.0011965
0.00122331
0.00125029
0.00127743
0.00130473
0.00133217
0.00135973
0.00138739
0.00141515
0.00144299
0.00147088
0.00149882
0.00152678
0.00155474
0.00158269
0.00161061
0.00163848
0.00166628
0.00169399
0.0017216
0.00174909
0.00177643
0.00180363
0.00183064
0.00185747
0.00188408
0.00191047
0.0019366
0.00196247
0.00198805
0.0020133
0.0020382
0.00206273
0.00208684
0.00211041
0.00213338
0.00215589
0.00217802
0.00219979
0.00222118
0.0022422
0.00226283
0.00228306
0.00230286
0.00232222
0.00234114
0.00235959
0.00237756
0.00239503
0.002412
0.00242846
0.00244438
0.00245976
0.00247458
0.00248884
0.00250252
0.00251562
0.00252813
0.00254003
0.00255132
0.002562
0.00257206
0.00258149
0.00259029
0.00259845
0.00260597
0.00261285
0.00261909
0.00262467
0.00262961
0.00263391
0.00263756
0.00264057
0.00264294
0.00264467
0.00264577
0.00264624
0.0026461
0.00264534
0.00264397
0.00264201
0.00263946
0.00263633
0.00263263
0.00262838
0.00262359
0.00261827
0.00261243
0.0026061
0.00259928
0.002592
0.00258427
0.00257611
0.00256755
0.0025586
0.00254929
0.00253965
0.00252965
0.00251932
0.00250861
0.00249735
0.00248521
0.00247176
0.00245737
0.0024424
0.00242704
0.00241141
0.00239558
0.00237956
0.00236338
0.00234702
0.00233038
0.00231318
0.00229474
0.00227288
0.00224099
3.74913e-06
5.87562e-05
0.000125088
0.000177316
0.000216777
0.000246893
0.00027061
0.000290171
0.000307178
0.000322711
0.000337447
0.000351776
0.0003659
0.000379904
0.000393806
0.000407591
0.000421232
0.000434698
0.000447964
0.000461012
0.000473835
0.000486436
0.000498831
0.000511053
0.000523145
0.000535172
0.000547216
0.00055938
0.00057179
0.000584594
0.000597956
0.000612047
0.000627033
0.000643046
0.000660174
0.000678478
0.000697973
0.000718591
0.000740239
0.000762846
0.000786344
0.00081069
0.000835824
0.000861628
0.000887999
0.000914846
0.000942104
0.000969737
0.000997728
0.00102607
0.00105474
0.00108375
0.00111308
0.00114272
0.00117267
0.00120292
0.00123346
0.00126429
0.0012954
0.00132678
0.00135842
0.00139031
0.00142244
0.0014548
0.00148738
0.00152016
0.00155314
0.00158628
0.00161959
0.00165303
0.0016866
0.00172027
0.00175402
0.00178784
0.0018217
0.00185557
0.00188944
0.00192329
0.00195709
0.00199082
0.00202445
0.00205798
0.00209136
0.00212459
0.00215763
0.00219048
0.0022231
0.00225548
0.00228761
0.00231944
0.00235098
0.00238219
0.00241305
0.00244355
0.00247365
0.00250333
0.00253257
0.00256134
0.00258947
0.00261706
0.00264416
0.00267082
0.00269706
0.00272285
0.0027482
0.00277308
0.00279748
0.00282139
0.00284478
0.00286764
0.00288994
0.00291169
0.00293286
0.00295343
0.00297339
0.00299273
0.00301143
0.00302947
0.00304686
0.00306357
0.00307959
0.00309491
0.00310952
0.00312342
0.0031366
0.00314904
0.00316074
0.0031717
0.00318191
0.00319136
0.00320005
0.00320798
0.00321514
0.00322155
0.00322718
0.00323205
0.00323616
0.00323951
0.0032421
0.00324394
0.00324503
0.00324538
0.003245
0.00324389
0.00324207
0.00323954
0.00323632
0.00323241
0.00322783
0.0032226
0.00321673
0.00321024
0.00320313
0.00319544
0.00318718
0.00317838
0.00316904
0.00315921
0.00314889
0.00313811
0.0031269
0.00311526
0.0031032
0.00309067
0.00307758
0.00306374
0.00304891
0.00303327
0.00301701
0.00300031
0.00298328
0.00296598
0.00294846
0.00293075
0.00291284
0.00289465
0.00287589
0.00285588
0.00283273
0.002802
4.68482e-06
6.59802e-05
0.000140151
0.000199536
0.000244997
0.000279987
0.000307587
0.000330195
0.000349572
0.00036695
0.00038315
0.000398684
0.000413857
0.00042883
0.000443681
0.000458441
0.000473117
0.00048771
0.000502221
0.000516661
0.000531051
0.000545422
0.000559822
0.000574308
0.000588954
0.000603845
0.00061908
0.000634767
0.000651025
0.000667976
0.000685746
0.000704448
0.000724178
0.000745004
0.00076695
0.00079001
0.000814149
0.000839306
0.000865418
0.000892423
0.000920262
0.000948872
0.000978186
0.00100812
0.00103861
0.00106957
0.00110097
0.00113277
0.00116496
0.00119751
0.00123042
0.00126369
0.0012973
0.00133125
0.00136553
0.00140012
0.00143503
0.00147024
0.00150575
0.00154154
0.00157761
0.00161393
0.00165051
0.00168731
0.00172434
0.00176158
0.001799
0.00183659
0.00187432
0.00191219
0.00195017
0.00198823
0.00202636
0.00206453
0.00210272
0.0021409
0.00217905
0.00221714
0.00225514
0.00229305
0.00233082
0.00236843
0.00240586
0.00244309
0.00248009
0.00251683
0.00255331
0.00258949
0.00262535
0.00266088
0.00269606
0.00273085
0.00276525
0.00279923
0.00283277
0.00286585
0.00289845
0.00293052
0.00296196
0.00299287
0.00302328
0.00305321
0.00308268
0.00311168
0.00314018
0.00316817
0.00319565
0.00322258
0.00324895
0.00327475
0.00329994
0.00332453
0.00334849
0.0033718
0.00339445
0.00341642
0.00343769
0.00345826
0.0034781
0.00349721
0.00351557
0.00353316
0.00354999
0.00356603
0.00358128
0.00359573
0.00360937
0.0036222
0.00363421
0.00364538
0.00365572
0.00366523
0.00367389
0.00368172
0.0036887
0.00369484
0.00370014
0.00370459
0.00370821
0.003711
0.00371296
0.0037141
0.00371443
0.00371394
0.00371266
0.0037106
0.00370775
0.00370414
0.00369978
0.00369469
0.00368887
0.00368235
0.00367515
0.00366727
0.00365874
0.0036496
0.00363984
0.00362951
0.00361863
0.00360721
0.00359528
0.00358285
0.00356993
0.00355651
0.00354252
0.00352785
0.00351241
0.00349626
0.00347951
0.0034623
0.00344471
0.00342683
0.00340871
0.0033904
0.00337191
0.00335317
0.00333397
0.00331372
0.00329093
0.00326275
5.48341e-06
7.2001e-05
0.000152603
0.000218028
0.0002687
0.000308024
0.000339152
0.000364581
0.000386188
0.000405326
0.000422933
0.000439632
0.000455818
0.000471732
0.000487511
0.000503234
0.000518947
0.000534681
0.000550463
0.000566327
0.000582314
0.000598473
0.000614867
0.000631568
0.000648654
0.000666215
0.000684345
0.000703139
0.000722693
0.000743101
0.000764445
0.000786796
0.000810204
0.000834693
0.000860261
0.00088688
0.000914506
0.000943082
0.00097255
0.00100285
0.00103393
0.00106572
0.00109817
0.00113121
0.00116479
0.00119885
0.00123336
0.0012683
0.00130363
0.00133934
0.00137543
0.00141188
0.00144869
0.00148584
0.00152332
0.00156113
0.00159926
0.0016377
0.00167643
0.00171545
0.00175473
0.00179428
0.00183407
0.00187409
0.00191433
0.00195475
0.00199536
0.00203612
0.00207702
0.00211803
0.00215914
0.00220032
0.00224155
0.00228279
0.00232404
0.00236525
0.00240641
0.00244749
0.00248846
0.00252929
0.00256997
0.00261045
0.00265073
0.00269077
0.00273054
0.00277003
0.00280921
0.00284806
0.00288656
0.00292469
0.00296243
0.00299976
0.00303667
0.00307313
0.00310913
0.00314464
0.00317967
0.00321409
0.00324793
0.00328126
0.0033141
0.00334645
0.00337832
0.0034097
0.00344057
0.00347091
0.00350072
0.00352996
0.00355862
0.00358668
0.00361413
0.00364093
0.00366709
0.00369256
0.00371735
0.00374144
0.0037648
0.00378741
0.00380928
0.00383037
0.00385068
0.00387018
0.00388888
0.00390676
0.0039238
0.00394001
0.00395537
0.00396986
0.00398349
0.00399625
0.00400812
0.00401911
0.00402921
0.00403843
0.00404675
0.00405418
0.00406072
0.00406636
0.00407111
0.00407497
0.00407796
0.00408007
0.00408131
0.00408168
0.0040812
0.00407989
0.00407773
0.00407475
0.00407096
0.00406639
0.00406102
0.00405489
0.00404802
0.00404042
0.00403211
0.00402312
0.00401347
0.00400319
0.00399229
0.0039808
0.00396874
0.00395612
0.00394297
0.00392928
0.00391501
0.00390012
0.00388457
0.00386838
0.00385162
0.0038344
0.00381679
0.00379887
0.00378072
0.00376238
0.00374389
0.00372524
0.00370626
0.00368652
0.00366489
0.00363953
6.1611e-06
7.68518e-05
0.00016267
0.000233182
0.000288378
0.000331567
0.000365912
0.00039397
0.000417696
0.000438535
0.000457521
0.000475367
0.000492554
0.000509394
0.000526082
0.000542746
0.000559467
0.000576306
0.000593313
0.000610538
0.000628036
0.000645865
0.000664093
0.000682792
0.000702039
0.000721915
0.000742499
0.000763869
0.000786099
0.000809251
0.00083338
0.000858523
0.000884702
0.00091192
0.00094016
0.000969388
0.00099956
0.00103062
0.00106252
0.0010952
0.0011286
0.00116269
0.00119739
0.00123266
0.00126846
0.00130474
0.00134147
0.00137863
0.0014162
0.00145415
0.00149247
0.00153116
0.00157021
0.00160959
0.00164931
0.00168935
0.0017297
0.00177036
0.0018113
0.00185252
0.00189401
0.00193574
0.00197771
0.0020199
0.0020623
0.00210488
0.00214762
0.00219052
0.00223354
0.00227667
0.00231988
0.00236315
0.00240646
0.00244978
0.00249309
0.00253636
0.00257956
0.00262268
0.00266567
0.00270851
0.00275118
0.00279366
0.0028359
0.00287789
0.0029196
0.002961
0.00300209
0.00304282
0.00308318
0.00312316
0.00316273
0.00320187
0.00324058
0.00327883
0.00331661
0.0033539
0.00339068
0.00342687
0.00346254
0.00349772
0.00353241
0.00356663
0.00360038
0.00363362
0.00366637
0.00369858
0.00373025
0.00376135
0.00379187
0.00382179
0.00385108
0.00387972
0.0039077
0.00393499
0.00396159
0.00398747
0.0040126
0.00403699
0.0040606
0.00408342
0.00410543
0.00412663
0.00414699
0.00416651
0.00418518
0.00420298
0.00421991
0.00423595
0.0042511
0.00426534
0.00427868
0.00429109
0.00430259
0.00431317
0.00432283
0.00433157
0.00433937
0.00434624
0.00435218
0.00435721
0.00436133
0.00436453
0.00436681
0.00436819
0.00436868
0.00436831
0.00436704
0.00436489
0.0043619
0.00435808
0.00435343
0.00434798
0.00434173
0.00433472
0.00432697
0.00431848
0.00430929
0.00429942
0.00428888
0.00427771
0.00426593
0.00425355
0.00424058
0.00422705
0.00421293
0.00419822
0.0041829
0.00416698
0.00415054
0.00413362
0.00411632
0.0040987
0.00408085
0.00406283
0.00404472
0.00402652
0.00400815
0.00398929
0.00396911
0.00394637
6.71375e-06
8.06256e-05
0.000170561
0.000245294
0.000304386
0.000351
0.00038827
0.000418771
0.000444507
0.000466989
0.000487324
0.000506302
0.000524476
0.00054222
0.000559786
0.000577344
0.00059501
0.00061287
0.000630994
0.000649445
0.000668283
0.000687573
0.000707378
0.000727767
0.000748809
0.00077057
0.000793115
0.000816503
0.000840787
0.000866008
0.000892197
0.000919373
0.000947541
0.00097669
0.0010068
0.00103783
0.00106974
0.00110248
0.00113601
0.00117026
0.0012052
0.00124078
0.00127695
0.00131366
0.00135088
0.00138857
0.00142671
0.00146527
0.00150423
0.00154357
0.00158327
0.00162333
0.00166374
0.00170448
0.00174555
0.00178692
0.0018286
0.00187058
0.00191283
0.00195535
0.00199813
0.00204115
0.0020844
0.00212786
0.00217153
0.00221537
0.00225939
0.00230355
0.00234784
0.00239223
0.00243672
0.00248127
0.00252586
0.00257047
0.00261508
0.00265965
0.00270417
0.0027486
0.00279292
0.0028371
0.00288112
0.00292493
0.00296853
0.00301187
0.00305493
0.00309769
0.00314012
0.0031822
0.00322391
0.00326523
0.00330613
0.00334662
0.00338667
0.00342626
0.00346538
0.00350403
0.00354214
0.00357976
0.00361689
0.00365357
0.00368979
0.00372556
0.00376086
0.00379568
0.00383
0.00386381
0.00389708
0.00392979
0.00396192
0.00399345
0.00402436
0.00405462
0.00408422
0.00411313
0.00414134
0.00416883
0.00419558
0.00422156
0.00424677
0.00427117
0.00429476
0.00431752
0.00433943
0.00436049
0.00438068
0.00439999
0.00441841
0.00443593
0.00445254
0.00446823
0.00448298
0.0044968
0.00450967
0.00452161
0.00453262
0.00454268
0.00455177
0.00455991
0.00456709
0.00457334
0.00457866
0.00458304
0.00458646
0.00458894
0.00459051
0.00459117
0.00459092
0.00458978
0.00458775
0.00458487
0.00458112
0.00457655
0.00457115
0.00456496
0.00455798
0.00455024
0.00454176
0.00453256
0.00452266
0.00451209
0.00450087
0.00448901
0.00447654
0.00446346
0.0044498
0.00443554
0.00442069
0.00440528
0.00438935
0.00437295
0.00435617
0.00433907
0.00432175
0.00430428
0.00428676
0.00426923
0.00425166
0.00423383
0.00421511
0.00419464
7.14207e-06
8.34223e-05
0.00017648
0.000254631
0.000317024
0.000366639
0.000406538
0.000439286
0.000466908
0.000490957
0.000512595
0.000532672
0.000551799
0.000570407
0.000588794
0.000607169
0.00062568
0.000644435
0.000663518
0.000683003
0.000702953
0.000723432
0.0007445
0.000766217
0.000788641
0.000811825
0.000835819
0.000860667
0.000886403
0.000913054
0.000940635
0.000969152
0.000998599
0.00102896
0.00106021
0.00109231
0.00112523
0.00115891
0.00119332
0.00122842
0.00126415
0.00130047
0.00133734
0.00137474
0.00141261
0.00145094
0.00148969
0.00152885
0.00156839
0.0016083
0.00164857
0.00168917
0.00173011
0.00177137
0.00181295
0.00185482
0.00189699
0.00193945
0.00198218
0.00202518
0.00206844
0.00211194
0.00215568
0.00219963
0.0022438
0.00228816
0.0023327
0.00237741
0.00242226
0.00246724
0.00251234
0.00255753
0.00260278
0.00264808
0.00269341
0.00273873
0.00278403
0.00282927
0.00287443
0.00291947
0.00296438
0.00300911
0.00305363
0.00309793
0.00314196
0.00318571
0.00322914
0.00327223
0.00331496
0.0033573
0.00339925
0.00344078
0.00348187
0.00352253
0.00356273
0.00360246
0.00364174
0.00368059
0.00371901
0.00375701
0.00379459
0.00383175
0.00386845
0.0039047
0.00394047
0.00397574
0.00401048
0.00404467
0.00407829
0.00411132
0.00414374
0.00417551
0.00420663
0.00423706
0.0042668
0.00429581
0.00432408
0.00435159
0.00437832
0.00440424
0.00442934
0.00445359
0.004477
0.00449954
0.00452121
0.00454199
0.00456187
0.00458085
0.00459891
0.00461601
0.00463218
0.00464739
0.00466165
0.00467496
0.00468732
0.00469874
0.00470915
0.00471859
0.00472706
0.00473458
0.00474113
0.00474673
0.00475136
0.00475504
0.00475779
0.0047596
0.00476049
0.00476047
0.00475954
0.00475773
0.00475504
0.0047515
0.00474711
0.0047419
0.00473588
0.00472907
0.00472149
0.00471316
0.00470411
0.00469435
0.0046839
0.00467279
0.00466103
0.00464865
0.00463565
0.00462205
0.00460787
0.00459313
0.00457788
0.00456216
0.00454606
0.00452964
0.00451299
0.00449622
0.00447942
0.00446267
0.00444599
0.00442921
0.00441188
0.0043933
7.45148e-06
8.53462e-05
0.000180626
0.000261449
0.000326575
0.000378769
0.000420991
0.000455769
0.000485125
0.000510634
0.000533496
0.000554606
0.000574622
0.000594019
0.000613137
0.000632217
0.000651433
0.000670912
0.000690752
0.000711031
0.000731816
0.000753167
0.000775138
0.000797781
0.000821142
0.000845264
0.000870182
0.000895927
0.00092252
0.000949977
0.000978303
0.00100749
0.00103754
0.00106842
0.00110011
0.00113257
0.00116577
0.00119968
0.00123424
0.00126942
0.00130519
0.00134149
0.00137831
0.00141561
0.00145335
0.00149152
0.00153008
0.00156903
0.00160834
0.001648
0.001688
0.00172833
0.00176898
0.00180994
0.00185121
0.00189278
0.00193465
0.00197681
0.00201926
0.00206199
0.00210499
0.00214826
0.00219178
0.00223556
0.00227957
0.00232382
0.00236829
0.00241296
0.00245783
0.00250288
0.00254808
0.00259343
0.0026389
0.00268447
0.00273011
0.00277581
0.00282153
0.00286725
0.00291293
0.00295854
0.00300406
0.00304945
0.00309468
0.0031397
0.0031845
0.00322903
0.00327327
0.00331718
0.00336075
0.00340396
0.00344678
0.00348919
0.00353119
0.00357276
0.00361389
0.00365466
0.00369506
0.00373508
0.00377474
0.00381401
0.0038529
0.00389139
0.00392946
0.00396709
0.00400426
0.00404095
0.00407712
0.00411276
0.00414783
0.00418233
0.00421621
0.00424946
0.00428206
0.00431399
0.00434521
0.00437572
0.00440548
0.0044345
0.00446273
0.00449014
0.00451673
0.00454247
0.00456735
0.00459137
0.0046145
0.00463674
0.00465807
0.00467852
0.00469802
0.00471656
0.00473414
0.00475077
0.00476643
0.00478112
0.00479485
0.00480762
0.00481939
0.00483018
0.00483999
0.00484883
0.00485669
0.00486359
0.00486951
0.00487448
0.00487849
0.00488156
0.00488369
0.00488489
0.00488518
0.00488457
0.00488307
0.00488069
0.00487745
0.00487336
0.00486845
0.00486272
0.00485621
0.00484892
0.00484087
0.00483209
0.0048226
0.00481242
0.00480156
0.00479005
0.0047779
0.00476514
0.00475179
0.00473787
0.00472343
0.00470853
0.00469322
0.0046776
0.00466175
0.00464577
0.00462979
0.0046139
0.00459813
0.0045824
0.00456631
0.00454932
7.65153e-06
8.65066e-05
0.000183206
0.000266008
0.000333314
0.00038766
0.000431879
0.000468436
0.000499334
0.000526153
0.000550114
0.000572145
0.000592939
0.000613005
0.000632715
0.000652339
0.000672071
0.000692053
0.000712393
0.000733173
0.000754461
0.000776313
0.000798777
0.000821895
0.000845706
0.000870239
0.00089552
0.000921569
0.000948399
0.000976013
0.00100441
0.00103359
0.00106352
0.00109419
0.00112558
0.00115765
0.00119038
0.00122372
0.00125764
0.00129212
0.0013271
0.00136258
0.00139851
0.00143487
0.00147163
0.00150879
0.00154631
0.00158419
0.00162241
0.00166098
0.00169987
0.00173909