/*--------------------------------*- C++ -*----------------------------------*\
  =========                 |
  \\      /  F ield         | OpenFOAM: The Open Source CFD Toolbox
   \\    /   O peration     | Website:  https://openfoam.org
    \\  /    A nd           | Version:  9
     \\/     M anipulation  |
\*---------------------------------------------------------------------------*/
FoamFile
{
    format      ascii;
    class       volVectorField;
    location    "0.15";
    object      U;
}
// * * * * * * * * * * * * * * * * * * * * * * * * * * * * * * * * * * * * * //

dimensions      [0 1 -1 0 0 0 0];

internalField   nonuniform List<vector> 
12225
(
(9.79717 -0.22537 0)
(9.40999 -0.192072 0)
(9.02044 -0.122081 0)
(8.64173 -0.0704902 0)
(8.29548 -0.0368272 0)
(7.98972 -0.0163575 0)
(7.72331 -0.00440683 0)
(7.49352 0.00230317 0)
(7.2979 0.00570934 0)
(7.13376 0.00697735 0)
(6.99795 0.00685277 0)
(6.88725 0.00582528 0)
(6.79852 0.00424334 0)
(6.72882 0.00244969 0)
(6.6745 0.000689243 0)
(6.63263 0.000330352 0)
(6.5894 0.000819967 0)
(6.56289 0.0219878 0)
(10.0809 0.138675 0)
(10.2388 0.223216 0)
(10.3277 0.209118 0)
(10.3621 0.182463 0)
(10.3652 0.159686 0)
(10.3467 0.139824 0)
(10.3113 0.122424 0)
(10.2636 0.107317 0)
(10.2084 0.0940384 0)
(10.1495 0.0821518 0)
(10.0899 0.0713822 0)
(10.0314 0.061572 0)
(9.97546 0.0526576 0)
(9.92304 0.0447222 0)
(9.87427 0.0380148 0)
(9.83029 0.0338573 0)
(9.78878 0.0343407 0)
(9.76799 0.0502091 0)
(10.0078 0.0360418 0)
(10.0528 0.0320249 0)
(10.1042 0.019672 0)
(10.1494 0.0243092 0)
(10.1901 0.034694 0)
(10.2271 0.0425045 0)
(10.2588 0.0469429 0)
(10.2844 0.0489646 0)
(10.3043 0.0491679 0)
(10.3194 0.0479309 0)
(10.3305 0.0456064 0)
(10.3385 0.0425227 0)
(10.3441 0.0389708 0)
(10.3478 0.0353224 0)
(10.3504 0.0320418 0)
(10.3532 0.0306068 0)
(10.3578 0.0325347 0)
(10.3752 0.0435721 0)
(10.0034 0.0213904 0)
(10.0271 0.0449902 0)
(10.0569 0.0576753 0)
(10.0809 0.0672927 0)
(10.1019 0.0727849 0)
(10.1238 0.0737039 0)
(10.1462 0.0717897 0)
(10.1679 0.0685356 0)
(10.1885 0.0645206 0)
(10.2082 0.0599277 0)
(10.2271 0.0548961 0)
(10.2451 0.0495785 0)
(10.2625 0.0441354 0)
(10.2794 0.0388228 0)
(10.2961 0.0340067 0)
(10.3137 0.0305803 0)
(10.334 0.0291159 0)
(10.3629 0.0298331 0)
(10.0029 0.0186031 0)
(10.0218 0.0457887 0)
(10.0454 0.055079 0)
(10.0636 0.0573559 0)
(10.0788 0.058172 0)
(10.0949 0.0575854 0)
(10.1118 0.055621 0)
(10.1287 0.0527669 0)
(10.1452 0.0492816 0)
(10.1616 0.0452314 0)
(10.1781 0.0406925 0)
(10.1946 0.035789 0)
(10.2112 0.0306671 0)
(10.2281 0.0255377 0)
(10.2456 0.0206478 0)
(10.2647 0.0163845 0)
(10.2866 0.0124949 0)
(10.3144 0.0073866 0)
(10.0023 0.0160784 0)
(10.0175 0.0396495 0)
(10.0376 0.0475576 0)
(10.0545 0.0498207 0)
(10.0689 0.0517657 0)
(10.0835 0.052583 0)
(10.0988 0.0515571 0)
(10.114 0.0491071 0)
(10.1288 0.0456992 0)
(10.1437 0.0415429 0)
(10.1587 0.0367673 0)
(10.1739 0.0315133 0)
(10.1895 0.025924 0)
(10.2056 0.0201488 0)
(10.2226 0.0143047 0)
(10.2412 0.00842607 0)
(10.2622 0.00190006 0)
(10.2872 -0.00698749 0)
(10.0017 0.013393 0)
(10.0138 0.0336154 0)
(10.0312 0.0421316 0)
(10.0473 0.0453718 0)
(10.0613 0.0474687 0)
(10.0753 0.048019 0)
(10.0897 0.0465588 0)
(10.1041 0.0435993 0)
(10.1183 0.0396801 0)
(10.1325 0.0350326 0)
(10.1469 0.0297628 0)
(10.1616 0.0239767 0)
(10.1767 0.0177793 0)
(10.1923 0.0112483 0)
(10.2089 0.00438108 0)
(10.2268 -0.00299624 0)
(10.2465 -0.011549 0)
(10.2686 -0.0227125 0)
(10.0013 0.0110696 0)
(10.0111 0.0285933 0)
(10.026 0.0373131 0)
(10.041 0.0407569 0)
(10.0545 0.0423401 0)
(10.0678 0.0423809 0)
(10.0816 0.0406456 0)
(10.0955 0.0374977 0)
(10.1093 0.0333775 0)
(10.1232 0.0284914 0)
(10.1372 0.0229264 0)
(10.1515 0.0167623 0)
(10.1662 0.0100708 0)
(10.1815 0.00288134 0)
(10.1975 -0.00488064 0)
(10.2147 -0.013467 0)
(10.233 -0.0234655 0)
(10.2526 -0.0358695 0)
(10.001 0.00914755 0)
(10.0089 0.0241855 0)
(10.0218 0.0324665 0)
(10.0355 0.0358043 0)
(10.0484 0.036969 0)
(10.0611 0.0366599 0)
(10.0742 0.0347446 0)
(10.0876 0.0314208 0)
(10.1009 0.0270419 0)
(10.1144 0.0218202 0)
(10.128 0.0158507 0)
(10.1419 0.00919965 0)
(10.1562 0.00191379 0)
(10.171 -0.00601329 0)
(10.1864 -0.0146828 0)
(10.2027 -0.0243359 0)
(10.2197 -0.0354141 0)
(10.2372 -0.0484815 0)
(10.0008 0.00752976 0)
(10.0073 0.0202181 0)
(10.0183 0.0277022 0)
(10.0307 0.0308159 0)
(10.0429 0.03163 0)
(10.055 0.0309476 0)
(10.0674 0.028746 0)
(10.0802 0.0251455 0)
(10.093 0.0204381 0)
(10.106 0.0148357 0)
(10.1191 0.00843603 0)
(10.1325 0.00128997 0)
(10.1463 -0.00657933 0)
(10.1605 -0.0151953 0)
(10.1752 -0.0246561 0)
(10.1905 -0.0351509 0)
(10.2062 -0.0469698 0)
(10.222 -0.060349 0)
(10.0007 0.00613789 0)
(10.006 0.016649 0)
(10.0154 0.0231423 0)
(10.0266 0.0258807 0)
(10.038 0.0263013 0)
(10.0494 0.0251817 0)
(10.0612 0.0226143 0)
(10.0733 0.0186912 0)
(10.0855 0.01364 0)
(10.0979 0.00765023 0)
(10.1105 0.000814498 0)
(10.1233 -0.00682901 0)
(10.1365 -0.0152694 0)
(10.15 -0.0245318 0)
(10.1639 -0.0346928 0)
(10.1781 -0.045876 0)
(10.1926 -0.0582441 0)
(10.207 -0.0718178 0)
(10.0006 0.00500317 0)
(10.0051 0.0136547 0)
(10.0132 0.0191313 0)
(10.0234 0.0213893 0)
(10.034 0.021397 0)
(10.0448 0.0198477 0)
(10.0559 0.0169083 0)
(10.0674 0.0126602 0)
(10.079 0.0072753 0)
(10.0909 0.000915188 0)
(10.1029 -0.00633369 0)
(10.1151 -0.014437 0)
(10.1276 -0.0233871 0)
(10.1403 -0.033203 0)
(10.1534 -0.0439348 0)
(10.1667 -0.0556496 0)
(10.18 -0.0684259 0)
(10.1933 -0.0821621 0)
(10.0005 0.00401015 0)
(10.0043 0.010957 0)
(10.0115 0.0153455 0)
(10.0206 0.0170018 0)
(10.0304 0.0165521 0)
(10.0405 0.0145621 0)
(10.051 0.0112282 0)
(10.0618 0.00663076 0)
(10.0728 0.000899667 0)
(10.084 -0.00583254 0)
(10.0954 -0.0134863 0)
(10.107 -0.0220284 0)
(10.1187 -0.0314512 0)
(10.1307 -0.0417646 0)
(10.1428 -0.0529946 0)
(10.1551 -0.0651661 0)
(10.1674 -0.0783041 0)
(10.1797 -0.0922544 0)
(10.0004 0.00300501 0)
(10.0037 0.00815303 0)
(10.0098 0.0112648 0)
(10.0178 0.0121278 0)
(10.0268 0.0110931 0)
(10.0361 0.00857267 0)
(10.0458 0.00475923 0)
(10.0558 -0.000265636 0)
(10.0661 -0.00640689 0)
(10.0765 -0.0135631 0)
(10.0871 -0.0216661 0)
(10.0978 -0.0306841 0)
(10.1086 -0.0406064 0)
(10.1196 -0.0514326 0)
(10.1307 -0.0631671 0)
(10.1418 -0.0758032 0)
(10.1529 -0.0893326 0)
(10.164 -0.103591 0)
(10.0003 0.00198673 0)
(10.0031 0.00527191 0)
(10.0082 0.00695101 0)
(10.0152 0.00682628 0)
(10.0232 0.00505564 0)
(10.0316 0.0019022 0)
(10.0404 -0.00247482 0)
(10.0495 -0.00800064 0)
(10.0589 -0.0146082 0)
(10.0683 -0.0222265 0)
(10.0779 -0.0308023 0)
(10.0875 -0.0403063 0)
(10.0972 -0.0507243 0)
(10.107 -0.0620468 0)
(10.1167 -0.0742635 0)
(10.1265 -0.0873515 0)
(10.1362 -0.10129 0)
(10.1459 -0.115937 0)
(10.0003 0.000957688 0)
(10.0025 0.00233171 0)
(10.0068 0.0024583 0)
(10.0128 0.00117758 0)
(10.0197 -0.00147527 0)
(10.0271 -0.00536067 0)
(10.0349 -0.0103717 0)
(10.043 -0.0164527 0)
(10.0512 -0.0235609 0)
(10.0595 -0.0316524 0)
(10.0678 -0.0406903 0)
(10.0761 -0.0506507 0)
(10.0844 -0.0615181 0)
(10.0927 -0.073279 0)
(10.1009 -0.0859174 0)
(10.109 -0.0994082 0)
(10.117 -0.11373 0)
(10.1249 -0.128788 0)
(10.0002 -6.48719e-05 0)
(10.0021 -0.000614477 0)
(10.0057 -0.00212281 0)
(10.0106 -0.00468927 0)
(10.0165 -0.00833838 0)
(10.0228 -0.0130235 0)
(10.0294 -0.0186972 0)
(10.0362 -0.0253337 0)
(10.0431 -0.0329147 0)
(10.05 -0.0414202 0)
(10.0569 -0.0508308 0)
(10.0636 -0.0611314 0)
(10.0702 -0.0723099 0)
(10.0767 -0.0843536 0)
(10.083 -0.0972477 0)
(10.089 -0.110972 0)
(10.0949 -0.125508 0)
(10.1006 -0.140804 0)
(10.0002 -0.00107772 0)
(10.0017 -0.00354788 0)
(10.0046 -0.00672757 0)
(10.0087 -0.0106447 0)
(10.0136 -0.015342 0)
(10.0188 -0.0208383 0)
(10.0242 -0.0271424 0)
(10.0296 -0.0342628 0)
(10.035 -0.0422063 0)
(10.0403 -0.0509753 0)
(10.0454 -0.060569 0)
(10.0503 -0.0709844 0)
(10.0549 -0.0822162 0)
(10.0592 -0.0942559 0)
(10.0632 -0.107091 0)
(10.0669 -0.120707 0)
(10.0702 -0.135083 0)
(10.0731 -0.150203 0)
(10.0002 -0.00211236 0)
(10.0014 -0.00652419 0)
(10.0039 -0.0113407 0)
(10.0073 -0.0165291 0)
(10.0113 -0.0221506 0)
(10.0154 -0.0282839 0)
(10.0195 -0.034993 0)
(10.0236 -0.0423219 0)
(10.0274 -0.0503016 0)
(10.0309 -0.058956 0)
(10.0341 -0.0683027 0)
(10.0368 -0.0783522 0)
(10.0391 -0.089108 0)
(10.041 -0.100567 0)
(10.0424 -0.112721 0)
(10.0433 -0.125557 0)
(10.0437 -0.139049 0)
(10.0435 -0.153206 0)
(10.0002 -0.00302565 0)
(10.0014 -0.00911663 0)
(10.0038 -0.0152605 0)
(10.007 -0.0213708 0)
(10.0106 -0.0275439 0)
(10.0141 -0.0339315 0)
(10.0174 -0.0406526 0)
(10.0204 -0.0477835 0)
(10.023 -0.0553804 0)
(10.0251 -0.0634901 0)
(10.0267 -0.0721473 0)
(10.0278 -0.0813725 0)
(10.0282 -0.0911745 0)
(10.0281 -0.101554 0)
(10.0273 -0.112504 0)
(10.026 -0.124013 0)
(10.024 -0.136052 0)
(10.0214 -0.148635 0)
(10.0002 -0.00380001 0)
(10.0016 -0.0112789 0)
(10.0043 -0.0184069 0)
(10.0077 -0.025053 0)
(10.0112 -0.0314154 0)
(10.0145 -0.0377577 0)
(10.0173 -0.0442383 0)
(10.0197 -0.0509399 0)
(10.0216 -0.0579382 0)
(10.0228 -0.0653109 0)
(10.0234 -0.0731171 0)
(10.0233 -0.0813898 0)
(10.0225 -0.0901442 0)
(10.0211 -0.0993841 0)
(10.0189 -0.109104 0)
(10.016 -0.119294 0)
(10.0125 -0.129924 0)
(10.0083 -0.14101 0)
(10.0002 -0.00461809 0)
(10.002 -0.0135177 0)
(10.0053 -0.0215151 0)
(10.0092 -0.0284462 0)
(10.013 -0.0347356 0)
(10.0162 -0.0408406 0)
(10.0188 -0.0469582 0)
(10.0209 -0.0531497 0)
(10.0223 -0.0594874 0)
(10.023 -0.0660608 0)
(10.0228 -0.0729407 0)
(10.0219 -0.0801709 0)
(10.0202 -0.0877778 0)
(10.0177 -0.0957765 0)
(10.0144 -0.104171 0)
(10.0104 -0.112955 0)
(10.0057 -0.122106 0)
(10.0002 -0.131632 0)
(10.0003 -0.00556404 0)
(10.0027 -0.0160159 0)
(10.007 -0.0247953 0)
(10.0118 -0.0318246 0)
(10.0159 -0.0378562 0)
(10.0192 -0.0435136 0)
(10.0217 -0.0490336 0)
(10.0237 -0.0545337 0)
(10.0248 -0.0601439 0)
(10.0251 -0.0659651 0)
(10.0245 -0.0720468 0)
(10.023 -0.0784122 0)
(10.0207 -0.0850786 0)
(10.0175 -0.0920587 0)
(10.0135 -0.0993561 0)
(10.0088 -0.106966 0)
(10.0032 -0.114868 0)
(9.99692 -0.12308 0)
(10.0004 -0.00674967 0)
(10.0038 -0.0189492 0)
(10.0095 -0.0281512 0)
(10.0154 -0.0350498 0)
(10.02 -0.0410173 0)
(10.0235 -0.0464756 0)
(10.0262 -0.0513866 0)
(10.028 -0.0559223 0)
(10.0289 -0.0603933 0)
(10.0288 -0.06501 0)
(10.0278 -0.0698573 0)
(10.0259 -0.0749702 0)
(10.023 -0.0803744 0)
(10.0193 -0.0860862 0)
(10.0148 -0.0921086 0)
(10.0094 -0.0984341 0)
(10.0033 -0.10504 0)
(9.99627 -0.111922 0)
(10.0007 -0.00826488 0)
(10.0056 -0.0229041 0)
(10.0131 -0.0317241 0)
(10.0199 -0.0372617 0)
(10.0249 -0.0427543 0)
(10.0288 -0.0485302 0)
(10.0319 -0.0538906 0)
(10.034 -0.0586924 0)
(10.035 -0.0631849 0)
(10.0348 -0.067578 0)
(10.0335 -0.0719744 0)
(10.0313 -0.0764427 0)
(10.0281 -0.0810451 0)
(10.0241 -0.0858289 0)
(10.0191 -0.0908216 0)
(10.0133 -0.0960335 0)
(10.0067 -0.101457 0)
(9.9994 -0.107105 0)
(10.0009 -0.00966316 0)
(10.0083 -0.0284381 0)
(10.0188 -0.0380708 0)
(10.0264 -0.0411739 0)
(10.0308 -0.0431214 0)
(10.0344 -0.0455454 0)
(10.0377 -0.0482803 0)
(10.0402 -0.0512401 0)
(10.0415 -0.054468 0)
(10.0417 -0.0579432 0)
(10.0408 -0.0616201 0)
(10.0389 -0.0654837 0)
(10.0361 -0.0695422 0)
(10.0324 -0.073806 0)
(10.0277 -0.0782818 0)
(10.0223 -0.0829666 0)
(10.016 -0.0878505 0)
(10.0089 -0.0928817 0)
(10.0007 -0.0100485 0)
(10.0101 -0.0303996 0)
(10.0253 -0.046984 0)
(10.0366 -0.0591222 0)
(10.0432 -0.0670521 0)
(10.0484 -0.0714439 0)
(10.0534 -0.0737433 0)
(10.0577 -0.0752488 0)
(10.061 -0.0765843 0)
(10.0633 -0.0779496 0)
(10.0648 -0.0794347 0)
(10.0653 -0.0811136 0)
(10.0648 -0.0830384 0)
(10.0634 -0.0852372 0)
(10.0611 -0.0877259 0)
(10.0579 -0.090514 0)
(10.054 -0.0935945 0)
(10.0493 -0.0969019 0)
(10.0009 -0.0168003 0)
(10.0157 -0.00824325 0)
(10.0394 0.00493497 0)
(10.0625 0.00322397 0)
(10.0832 -0.00635779 0)
(10.1024 -0.0161101 0)
(10.1197 -0.0243879 0)
(10.1345 -0.0316699 0)
(10.1468 -0.0382407 0)
(10.1567 -0.0441622 0)
(10.1643 -0.0495346 0)
(10.1698 -0.0545022 0)
(10.1732 -0.059195 0)
(10.1745 -0.0637166 0)
(10.174 -0.0681513 0)
(10.1717 -0.0725956 0)
(10.1679 -0.0771095 0)
(10.1624 -0.0818658 0)
(10.0414 -0.101055 0)
(10.1391 -0.17691 0)
(10.2068 -0.173649 0)
(10.2474 -0.157517 0)
(10.2742 -0.144371 0)
(10.2906 -0.133111 0)
(10.2966 -0.123285 0)
(10.2927 -0.115196 0)
(10.2805 -0.108708 0)
(10.2617 -0.103473 0)
(10.2373 -0.0992321 0)
(10.2083 -0.0958297 0)
(10.1753 -0.0931542 0)
(10.1391 -0.0911207 0)
(10.1 -0.0896615 0)
(10.0584 -0.0887764 0)
(10.0149 -0.0884153 0)
(9.96973 -0.0889965 0)
(9.89418 0.171026 0)
(9.6917 0.149199 0)
(9.47021 0.0987309 0)
(9.23834 0.0606836 0)
(9.01331 0.0338921 0)
(8.80204 0.0157321 0)
(8.60425 0.00343431 0)
(8.41871 -0.00521495 0)
(8.24471 -0.0115206 0)
(8.08154 -0.0162156 0)
(7.92825 -0.0197763 0)
(7.7838 -0.0225406 0)
(7.6472 -0.0247465 0)
(7.51755 -0.0265632 0)
(7.39404 -0.0281125 0)
(7.2759 -0.029511 0)
(7.16207 -0.0308454 0)
(7.05268 -0.0324102 0)
(0.0551403 -0.160848 -1.40687e-20)
(0.166141 -0.178222 1.3652e-20)
(0.2918 -0.20641 0)
(0.433695 -0.245236 0)
(0.5645 -0.272078 0)
(0.666041 -0.275506 -1.53795e-20)
(0.726096 -0.252922 0)
(0.71578 -0.202497 0)
(0.637891 -0.132298 0)
(0.486252 -0.0467866 0)
(0.252023 0.0548391 2.19574e-20)
(-0.0691134 0.173363 0)
(-0.476587 0.301549 0)
(-0.962312 0.427065 0)
(-1.51334 0.538054 0)
(-2.11315 0.62588 1.84383e-20)
(-2.74331 0.685668 0)
(-3.38503 0.715825 0)
(-4.02039 0.7173 0)
(-4.63305 0.692795 0)
(-5.20875 0.646088 0)
(-5.73553 0.581541 0)
(-6.20363 0.503701 0)
(-6.6055 0.41704 2.25644e-20)
(-6.93561 0.325954 -2.28434e-20)
(-7.19011 0.23474 2.28934e-20)
(-7.36727 0.147362 2.26838e-20)
(-7.46577 0.0678525 0)
(-7.48499 -0.00107412 0)
(-7.4399 -0.0599431 -1.99855e-20)
(-7.33583 -0.112039 -1.83233e-20)
(-7.17653 -0.159412 0)
(-6.96564 -0.20308 0)
(-6.70664 -0.24347 -1.11172e-20)
(-6.40286 -0.280771 0)
(-6.05763 -0.315102 0)
(-5.67434 -0.34658 5.75734e-22)
(-5.2563 -0.37536 0)
(-4.80673 -0.401637 -8.36877e-21)
(-4.32871 -0.425644 -2.69495e-20)
(-3.8251 -0.447621 0)
(-3.29864 -0.467761 0)
(-2.75183 -0.486113 0)
(-2.18683 -0.50246 0)
(-1.60618 -0.516389 0)
(-1.01247 -0.5271 -1.15908e-19)
(-0.405384 -0.533078 -1.29661e-19)
(0.220872 -0.535642 -1.26775e-19)
(0.866378 -0.537055 0)
(1.52566 -0.538128 1.07835e-19)
(2.19424 -0.538525 0)
(2.86667 -0.534866 -9.05217e-20)
(3.5328 -0.514636 -8.26419e-20)
(4.17323 -0.445162 0)
(4.74315 -0.278534 0)
(5.15177 -0.00253384 0)
(5.26959 0.295072 -6.41602e-20)
(5.11253 0.503289 0)
(4.73833 0.569043 0)
(4.2313 0.50829 0)
(3.68558 0.376586 0)
(3.17332 0.237196 0)
(2.72933 0.134158 0)
(2.35576 0.0793476 0)
(2.03689 0.0581724 0)
(1.76137 0.0456169 6.11235e-20)
(1.53791 0.020517 0)
(1.40151 -0.026964 0)
(1.38331 -0.0964523 -5.52348e-20)
(1.51083 -0.165469 -5.3228e-20)
(1.78343 -0.206097 0)
(2.14868 -0.196168 5.08791e-20)
(2.51739 -0.136859 -4.9971e-20)
(2.80429 -0.0562378 0)
(2.97071 0.0108089 4.82669e-20)
(3.03784 0.0445343 0)
(3.05962 0.0385482 0)
(3.06988 -0.0117023 -4.646e-20)
(3.04799 -0.0907069 0)
(2.91315 -0.124804 4.5297e-20)
(2.54016 -0.0104448 0)
(1.81999 0.260661 -4.31058e-20)
(0.749162 0.557647 -3.70659e-20)
(-0.543992 0.742526 -2.26324e-20)
(-1.89035 0.809106 -1.38975e-20)
(-3.20158 0.796101 -1.32551e-20)
(-4.41714 0.733967 0)
(-5.50156 0.646159 0)
(-6.44042 0.548831 0)
(-7.23277 0.451828 -8.69078e-20)
(-7.88509 0.360423 -9.8045e-20)
(-8.40703 0.277056 1.06832e-19)
(-8.80902 0.202641 0)
(-9.10108 0.137514 -1.18207e-19)
(-9.29208 0.0819852 -1.21111e-19)
(-9.39149 0.0358707 -1.22265e-19)
(-9.40783 -0.00149341 0)
(-9.363 -0.0319223 0)
(-9.26127 -0.0591355 0)
(-9.10644 -0.0845719 -1.08158e-19)
(-8.90092 -0.108819 0)
(-8.6464 -0.132178 0)
(-8.3441 -0.154842 8.107e-20)
(-7.99497 -0.176945 0)
(-7.59976 -0.198564 0)
(-7.1592 -0.219701 4.04934e-20)
(-6.67415 -0.240268 0)
(-6.14584 -0.260077 0)
(-5.57613 -0.278827 1.37867e-20)
(-4.96773 -0.296114 3.49338e-20)
(-4.32448 -0.311445 0)
(-3.65156 -0.324234 -8.15903e-20)
(-2.95572 -0.333765 0)
(-2.24514 -0.339099 1.33455e-19)
(-1.52869 -0.339129 0)
(-0.814422 -0.332969 1.89553e-19)
(-0.109816 -0.319943 2.06405e-19)
(0.5782 -0.300914 0)
(1.24317 -0.280069 0)
(1.87494 -0.258206 0)
(2.46723 -0.235413 0)
(3.01591 -0.212028 0)
(3.5178 -0.188398 0)
(3.97076 -0.164825 0)
(4.3735 -0.1416 1.36562e-19)
(4.72551 -0.118895 -1.28627e-19)
(5.02672 -0.0964608 0)
(5.27674 -0.0745005 0)
(5.47537 -0.0549532 0)
(5.62683 -0.0335376 0)
(5.72038 0.00554995 -2.02687e-19)
(5.70598 0.0603347 0)
(5.58484 0.117916 1.92221e-19)
(5.36747 0.166722 -1.89743e-19)
(5.06886 0.199637 0)
(4.70989 0.212763 0)
(4.317 0.20458 0)
(3.91973 0.176535 1.90087e-19)
(3.54754 0.133543 1.91179e-19)
(3.22516 0.0841168 0)
(2.96789 0.0403318 1.9363e-19)
(2.77958 0.0148894 1.94968e-19)
(2.66014 -0.001385 -1.96102e-19)
(2.58182 -0.0202233 0)
(2.51797 -0.0261449 0)
(2.45528 -0.0152036 -1.97723e-19)
(2.38889 -0.016707 0)
(2.30169 -0.0198878 0)
(2.2186 -0.00563001 0)
(2.14192 0.00457232 0)
(2.07341 0.0101126 2.01114e-19)
(2.01631 0.0029645 2.00451e-19)
(1.96194 -0.00920052 0)
(1.91654 -0.013499 2.00709e-19)
(1.8805 -0.0153163 0)
(1.85619 -0.0160011 0)
(1.84835 -0.0185695 2.00436e-19)
(1.87267 -0.0258186 0)
(1.95338 -0.0335184 1.97927e-19)
(2.09537 -0.0312512 0)
(2.2501 -0.0124077 0)
(2.31694 0.00898164 1.94559e-19)
(2.21257 0.0330172 0)
(1.81098 0.118301 1.88483e-19)
(0.9629 0.256656 0)
(-0.243024 0.325719 0)
(-1.44177 0.30735 0)
(-2.44179 0.239525 -6.40636e-20)
(-3.18842 0.160782 0)
(-3.67371 0.0868863 2.20043e-20)
(-3.90983 0.0217799 0)
(-3.91269 -0.0352582 0)
(-3.73716 -0.0820143 0)
(-3.39118 -0.125015 0)
(-2.88933 -0.163207 0)
(-2.25575 -0.19304 0)
(-1.52807 -0.210359 0)
(-0.751325 -0.21177 -3.35192e-19)
(0.0375015 -0.194771 0)
(0.728697 -0.146969 0)
(0.00741807 -0.31627 3.86358e-20)
(0.0430813 -0.363466 -3.78345e-20)
(0.0589076 -0.394856 0)
(0.023683 -0.35394 2.54913e-20)
(-0.0797159 -0.236981 0)
(-0.253254 -0.065092 1.47341e-20)
(-0.504253 0.146817 -2.70039e-20)
(-0.830416 0.382419 -2.66337e-20)
(-1.24018 0.629599 0)
(-1.72721 0.878657 -2.52237e-20)
(-2.27809 1.11748 -1.21898e-20)
(-2.87338 1.3329 0)
(-3.49123 1.51239 0)
(-4.11041 1.646 0)
(-4.712 1.72803 0)
(-5.28012 1.75746 -1.13335e-20)
(-5.80247 1.73726 0)
(-6.27053 1.67327 3.07394e-20)
(-6.67944 1.57291 0)
(-7.02757 1.44413 0)
(-7.3159 1.29445 -3.79296e-20)
(-7.5473 1.13051 0)
(-7.72586 0.957781 4.23506e-20)
(-7.8562 0.780528 -1.92523e-20)
(-7.94309 0.602124 1.99555e-20)
(-7.99102 0.425458 -2.03847e-20)
(-8.00342 0.253207 -2.04982e-20)
(-7.98378 0.0883496 0)
(-7.93366 -0.066524 0)
(-7.84099 -0.210719 1.81746e-20)
(-7.7017 -0.345123 -2.04907e-20)
(-7.51531 -0.470262 0)
(-7.28266 -0.586268 0)
(-7.0057 -0.693035 9.91917e-21)
(-6.68718 -0.790443 0)
(-6.33026 -0.878481 0)
(-5.93837 -0.957322 -5.02802e-22)
(-5.51496 -1.02734 0)
(-5.06343 -1.08914 -3.6176e-21)
(-4.58698 -1.1435 2.28502e-20)
(-4.08854 -1.19139 0)
(-3.57067 -1.23385 0)
(-3.03543 -1.27187 9.53486e-20)
(-2.48435 -1.30623 1.16937e-19)
(-1.9186 -1.33735 1.40205e-19)
(-1.33942 -1.36495 -7.75211e-20)
(-0.747932 -1.38773 1.02252e-19)
(-0.145673 -1.40569 3.1186e-19)
(0.470145 -1.41838 -1.94238e-19)
(1.0972 -1.42417 -9.6079e-20)
(1.73097 -1.41943 0)
(2.36545 -1.39805 8.33799e-20)
(2.99233 -1.34974 -7.05903e-20)
(3.60561 -1.25471 0)
(4.21265 -1.07828 0)
(4.83929 -0.781767 0)
(5.5187 -0.35771 5.62458e-20)
(6.13135 0.127677 0)
(6.5406 0.56498 -9.0107e-20)
(6.68204 0.877887 0)
(6.53502 1.03552 -8.29271e-20)
(6.1314 1.0524 0)
(5.54351 0.974543 8.54668e-20)
(4.86062 0.857659 0)
(4.16647 0.737378 -9.05095e-20)
(3.52581 0.609861 4.49806e-20)
(2.98475 0.441544 0)
(2.58189 0.205927 9.40713e-20)
(2.35898 -0.0870145 4.77111e-20)
(2.32269 -0.381396 4.62048e-20)
(2.45746 -0.607045 0)
(2.72891 -0.69664 4.39038e-20)
(3.06619 -0.629671 4.47324e-20)
(3.38556 -0.453862 0)
(3.62748 -0.260262 -4.37686e-20)
(3.76942 -0.128253 8.62038e-20)
(3.79288 -0.0682861 0)
(3.59433 0.0260668 4.35836e-20)
(2.97081 0.320153 0)
(1.78357 0.870551 -1.46573e-19)
(0.157381 1.49962 0)
(-1.58246 1.94349 8.81385e-20)
(-3.22285 2.1626 2.21305e-20)
(-4.66089 2.18085 -1.43389e-21)
(-5.85428 2.05471 1.66116e-20)
(-6.80818 1.84457 -3.45163e-20)
(-7.54689 1.59863 0)
(-8.10563 1.3491 0)
(-8.52124 1.11416 0)
(-8.82657 0.901743 2.43681e-19)
(-9.04805 0.713399 8.86236e-20)
(-9.20553 0.547409 -9.91164e-20)
(-9.31314 0.400835 0)
(-9.38051 0.270858 -1.22413e-19)
(-9.41389 0.155519 1.17504e-19)
(-9.41529 0.0534174 1.19211e-19)
(-9.38416 -0.0369004 0)
(-9.30407 -0.117413 0)
(-9.17473 -0.191477 0)
(-8.99654 -0.260893 1.04416e-19)
(-8.77059 -0.326676 0)
(-8.49801 -0.389477 -1.80809e-19)
(-8.17977 -0.449772 -2.37582e-19)
(-7.8166 -0.5079 1.36703e-19)
(-7.4091 -0.56405 0)
(-6.95783 -0.618213 4.37284e-20)
(-6.46349 -0.670135 0)
(-5.92714 -0.719279 1.67287e-20)
(-5.35047 -0.764823 6.87865e-21)
(-4.73607 -0.8057 2.62524e-20)
(-4.0876 -0.840693 0)
(-3.41007 -0.868537 2.17245e-19)
(-2.70986 -0.888007 -1.87854e-19)
(-1.99469 -0.897887 -1.20219e-19)
(-1.27308 -0.897016 0)
(-0.552837 -0.884363 -1.68092e-19)
(0.157885 -0.858429 -5.30392e-19)
(0.850284 -0.81991 0)
(1.5175 -0.774402 -3.34351e-19)
(2.15131 -0.723493 -3.21941e-19)
(2.74635 -0.66828 -3.08205e-19)
(3.29873 -0.610107 0)
(3.80568 -0.550237 0)
(4.26549 -0.489743 0)
(4.67737 -0.429504 1.24634e-19)
(5.04117 -0.370178 1.19921e-19)
(5.35732 -0.31208 0)
(5.62724 -0.255344 2.15547e-19)
(5.85238 -0.200256 2.06029e-19)
(6.03011 -0.143629 0)
(6.17245 -0.0770244 1.91988e-19)
(6.32524 -0.0026406 3.66539e-19)
(6.47928 0.0756565 -1.77492e-19)
(6.61387 0.152768 -1.67838e-19)
(6.70809 0.222958 0)
(6.74534 0.280553 0)
(6.71716 0.31963 0)
(6.62471 0.335414 -1.53787e-19)
(6.47755 0.326948 1.51589e-19)
(6.28944 0.29814 3.02949e-19)
(6.07398 0.25496 -1.51886e-19)
(5.84189 0.202204 1.54224e-19)
(5.59109 0.151856 1.55803e-19)
(5.32816 0.121738 0)
(5.07157 0.111213 0)
(4.82365 0.107647 -1.63233e-19)
(4.58414 0.108159 0)
(4.36416 0.11009 0)
(4.14905 0.105064 3.39709e-19)
(3.93632 0.0930492 0)
(3.72527 0.0798192 1.74268e-19)
(3.51719 0.0714415 -1.75677e-19)
(3.32593 0.0662874 0)
(3.14906 0.0584144 1.79733e-19)
(2.98651 0.0474127 0)
(2.84115 0.0325144 0)
(2.72354 0.00797313 -1.85346e-19)
(2.65147 -0.0341655 3.72476e-19)
(2.64752 -0.0910873 -1.85201e-19)
(2.73207 -0.132956 0)
(2.88358 -0.106166 0)
(2.96594 0.0191009 1.83853e-19)
(2.66231 0.253382 0)
(1.67088 0.606238 1.76227e-19)
(0.117565 0.901409 0)
(-1.28612 0.925813 0)
(-2.27949 0.782621 0)
(-2.92078 0.584413 5.8505e-20)
(-3.31264 0.393133 0)
(-3.53134 0.22308 -2.1326e-20)
(-3.61804 0.0718476 0)
(-3.58864 -0.0656327 0)
(-3.39877 -0.190147 4.6848e-20)
(-3.04774 -0.305954 -8.07105e-20)
(-2.54478 -0.409451 0)
(-1.91142 -0.492244 0)
(-1.18307 -0.544416 0)
(-0.404688 -0.558445 9.10461e-19)
(0.386676 -0.530891 0)
(1.10468 -0.436633 -7.11025e-19)
(-0.0668755 -0.216651 -5.60669e-21)
(-0.186502 -0.2029 3.90979e-20)
(-0.374766 -0.0928815 0)
(-0.642417 0.11168 -3.66872e-20)
(-0.980036 0.380843 0)
(-1.38342 0.693363 0)
(-1.84496 1.03298 2.23599e-21)
(-2.3515 1.37975 1.86651e-20)
(-2.88832 1.71301 1.80117e-20)
(-3.43698 2.01341 1.82226e-20)
(-3.97889 2.26484 0)
(-4.49704 2.45544 0)
(-4.97816 2.57812 -2.33674e-20)
(-5.41406 2.63093 -5.07316e-20)
(-5.80195 2.61689 5.52093e-20)
(-6.14374 2.54307 0)
(-6.44475 2.41923 6.52923e-20)
(-6.71201 2.25627 -2.80741e-20)
(-6.95267 2.06478 0)
(-7.17256 1.85409 8.13463e-20)
(-7.37524 1.63162 3.59449e-20)
(-7.5615 1.40278 -9.08353e-20)
(-7.72952 1.17119 -4.04737e-20)
(-7.8752 0.939006 0)
(-7.99281 0.70743 1.00114e-19)
(-8.07585 0.477082 1.01319e-19)
(-8.11785 0.248497 0)
(-8.11349 0.0220399 9.94773e-20)
(-8.05962 -0.20169 0)
(-7.95517 -0.420591 8.91836e-20)
(-7.8009 -0.631146 3.5262e-20)
(-7.59827 -0.830547 0)
(-7.34935 -1.0167 0)
(-7.05692 -1.18813 0)
(-6.72428 -1.34387 0)
(-6.35518 -1.48347 0)
(-5.95358 -1.60693 0)
(-5.52353 -1.71469 4.08725e-21)
(-5.06904 -1.8076 2.04612e-20)
(-4.59393 -1.88686 0)
(-4.10175 -1.95399 0)
(-3.5956 -2.01077 0)
(-3.07802 -2.05921 -1.04334e-20)
(-2.55085 -2.10137 -1.03834e-19)
(-2.01531 -2.13925 -2.34077e-19)
(-1.47227 -2.17441 2.73089e-19)
(-0.922365 -2.2075 1.50212e-19)
(-0.36614 -2.23789 -1.7872e-19)
(0.198556 -2.26326 1.32121e-20)
(0.773026 -2.27913 -1.58223e-19)
(1.35619 -2.27873 0)
(1.94574 -2.25262 -1.41874e-19)
(2.53699 -2.18895 8.56448e-21)
(3.12299 -2.07552 0)
(3.69739 -1.90061 0)
(4.26172 -1.64848 1.08174e-19)
(4.83426 -1.28923 0)
(5.4441 -0.793016 0)
(6.08193 -0.172753 -7.63834e-20)
(6.62944 0.471708 -1.48473e-19)
(6.96478 1.02842 7.54157e-20)
(7.01804 1.42471 0)
(6.78617 1.64017 -7.14279e-20)
(6.32537 1.69458 0)
(5.72728 1.62152 -6.36707e-20)
(5.09095 1.44182 -7.36006e-20)
(4.49807 1.15279 1.44903e-19)
(4.00099 0.74566 7.44605e-20)
(3.62876 0.237998 0)
(3.41345 -0.29363 -1.57591e-19)
(3.36321 -0.737663 0)
(3.45834 -0.978806 -2.40839e-19)
(3.63674 -0.965094 -1.63068e-19)
(3.81034 -0.75195 -1.6536e-19)
(3.89051 -0.45629 1.6971e-19)
(3.77751 -0.142158 -2.57076e-19)
(3.26442 0.309236 0)
(2.17068 1.04164 0)
(0.54727 1.98797 1.66455e-19)
(-1.25174 2.81485 1.9284e-19)
(-2.89993 3.33938 0)
(-4.2552 3.53861 -4.11243e-20)
(-5.29264 3.47243 0)
(-6.04884 3.21838 1.64523e-21)
(-6.59355 2.85529 3.59231e-20)
(-7.00141 2.45273 -3.30759e-20)
(-7.33182 2.05874 1.05867e-19)
(-7.62205 1.69942 0)
(-7.8892 1.384 -1.62328e-19)
(-8.13649 1.11149 1.78651e-20)
(-8.35969 0.876131 0)
(-8.55191 0.670868 0)
(-8.7062 0.489039 0)
(-8.81685 0.325008 2.3656e-19)
(-8.87993 0.174405 0)
(-8.89354 0.0341557 0)
(-8.85736 -0.0980063 0)
(-8.77237 -0.223197 0)
(-8.64005 -0.341409 0)
(-8.46138 -0.453361 2.19442e-19)
(-8.23729 -0.559892 0)
(-7.9687 -0.661774 1.77892e-19)
(-7.65635 -0.759662 1.57032e-19)
(-7.30079 -0.854064 -1.33651e-19)
(-6.90237 -0.945259 0)
(-6.46137 -1.0332 -7.95532e-20)
(-5.97816 -1.11743 0)
(-5.45346 -1.19696 -1.6112e-20)
(-4.88864 -1.27033 -1.88828e-20)
(-4.286 -1.3356 -1.51753e-19)
(-3.64907 -1.39056 0)
(-2.98278 -1.4329 -3.89892e-19)
(-2.29361 -1.46057 -1.61666e-19)
(-1.5894 -1.47207 0)
(-0.878692 -1.46658 -5.13225e-19)
(-0.169787 -1.44306 -5.80426e-19)
(0.52788 -1.40055 9.08476e-19)
(1.20626 -1.34159 0)
(1.85723 -1.27009 2.98689e-19)
(2.47363 -1.18842 2.90589e-19)
(3.05032 -1.09909 8.34788e-19)
(3.58361 -1.00459 0)
(4.07105 -0.907187 0)
(4.51131 -0.808782 0)
(4.90394 -0.710894 2.30888e-19)
(5.24924 -0.614674 0)
(5.54812 -0.520982 0)
(5.80208 -0.430228 -2.05992e-19)
(6.0133 -0.341794 -1.97804e-19)
(6.18406 -0.255885 0)
(6.31542 -0.175983 0)
(6.41258 -0.100709 -3.58989e-19)
(6.48837 -0.0245109 0)
(6.55596 0.0543659 3.36619e-19)
(6.62385 0.133767 3.22784e-19)
(6.69384 0.208912 0)
(6.75935 0.272979 0)
(6.80827 0.318834 -2.97088e-19)
(6.82752 0.341843 -9.09804e-22)
(6.80743 0.341842 -2.61308e-22)
(6.74474 0.324266 0)
(6.64268 0.300846 -5.75062e-19)
(6.507 0.282667 0)
(6.34444 0.271483 0)
(6.1623 0.26503 0)
(5.96811 0.262071 2.98786e-19)
(5.7649 0.259185 0)
(5.55322 0.253942 -6.09288e-19)
(5.33366 0.246933 -3.08665e-19)
(5.10779 0.239045 0)
(4.87668 0.230043 -3.16416e-19)
(4.64177 0.217284 0)
(4.40576 0.200125 0)
(4.17257 0.180649 -9.88884e-19)
(3.94734 0.158857 6.69228e-19)
(3.73556 0.131531 0)
(3.54188 0.0915518 6.92136e-19)
(3.37127 0.0267674 -3.52494e-19)
(3.23967 -0.068243 0)
(3.16844 -0.153636 0)
(3.13845 -0.119444 0)
(2.98939 0.15167 -1.07529e-18)
(2.3714 0.668444 0)
(1.10386 1.26266 -3.28853e-19)
(-0.296237 1.56144 0)
(-1.23319 1.43325 0)
(-1.84838 1.12679 0)
(-2.30906 0.811188 0)
(-2.67415 0.536963 0)
(-2.93448 0.299284 0)
(-3.06467 0.0839134 -3.15259e-20)
(-3.04676 -0.118509 0)
(-2.87296 -0.314313 -4.58218e-20)
(-2.54387 -0.498764 2.19325e-19)
(-2.06701 -0.663645 0)
(-1.46134 -0.795241 0)
(-0.759992 -0.878328 -4.46365e-19)
(-0.00875479 -0.901453 -5.54366e-19)
(0.755635 -0.860806 6.03005e-19)
(1.45581 -0.739289 6.46568e-19)
(-0.150145 0.215087 -4.17688e-20)
(-0.41315 0.348631 -3.79224e-20)
(-0.763606 0.592161 -2.1997e-20)
(-1.17617 0.919259 -8.64931e-21)
(-1.63298 1.29204 0)
(-2.12376 1.68564 2.47543e-20)
(-2.633 2.07589 -1.34573e-20)
(-3.14323 2.43812 0)
(-3.6375 2.75101 -1.53382e-20)
(-4.10192 2.99898 0)
(-4.52739 3.17341 4.3068e-20)
(-4.91046 3.27248 0)
(-5.25316 3.30019 2.1615e-20)
(-5.56196 3.26477 4.76367e-20)
(-5.84595 3.17677 -5.24343e-20)
(-6.11469 3.04712 0)
(-6.37615 2.88548 -6.27853e-20)
(-6.63529 2.69917 0)
(-6.89332 2.49289 0)
(-7.14778 2.26902 -7.84424e-20)
(-7.39325 2.0284 0)
(-7.6224 1.77129 -1.70161e-20)
(-7.82709 1.49814 0)
(-7.99939 1.21021 0)
(-8.1322 0.909791 1.79339e-20)
(-8.2197 0.600121 -9.91678e-20)
(-8.25783 0.285282 -1.17917e-19)
(-8.24393 -0.030367 -9.76829e-20)
(-8.1769 -0.342691 0)
(-8.05661 -0.647192 -1.91285e-19)
(-7.88401 -0.939657 0)
(-7.66109 -1.21627 -8.76932e-20)
(-7.39074 -1.47385 0)
(-7.07654 -1.70998 0)
(-6.72264 -1.92304 5.55106e-20)
(-6.33351 -2.11225 0)
(-5.91381 -2.27756 -2.99471e-20)
(-5.46824 -2.41957 1.22593e-20)
(-5.00146 -2.53949 -8.16529e-21)
(-4.51797 -2.63899 2.55862e-20)
(-4.02209 -2.72021 0)
(-3.51774 -2.78572 0)
(-3.00832 -2.83846 4.65595e-20)
(-2.49653 -2.8816 0)
(-1.98421 -2.91841 1.0383e-19)
(-1.47249 -2.95183 -1.20536e-19)
(-0.961702 -2.98394 -1.37432e-19)
(-0.451371 -3.01537 0)
(0.0608985 -3.04475 1.56414e-19)
(0.578935 -3.06698 1.51095e-19)
(1.10509 -3.07393 -2.6428e-19)
(1.64196 -3.05357 1.37524e-19)
(2.19118 -2.98978 1.29774e-19)
(2.75173 -2.86449 0)
(3.31817 -2.66217 0)
(3.88068 -2.37458 -1.06172e-19)
(4.42992 -1.99981 0)
(4.96697 -1.53264 0)
(5.50859 -0.950972 1.72561e-19)
(6.06678 -0.236953 1.5632e-19)
(6.58233 0.547507 0)
(6.9464 1.27932 0)
(7.07966 1.84608 0)
(6.9637 2.18612 0)
(6.64009 2.28791 1.19239e-19)
(6.18568 2.16754 -1.13841e-19)
(5.6812 1.84732 -1.23486e-19)
(5.19051 1.34955 -2.60135e-19)
(4.75777 0.70833 0)
(4.41477 -0.00314713 -5.69614e-21)
(4.19225 -0.639032 0)
(4.08608 -1.02494 1.51349e-19)
(4.03389 -1.04902 -2.73978e-21)
(3.92528 -0.736858 1.70039e-19)
(3.61371 -0.182402 -1.75666e-19)
(2.85939 0.641289 1.78323e-21)
(1.53895 1.75381 0)
(-0.185449 2.98136 -1.4125e-19)
(-1.87791 3.95368 -1.20614e-19)
(-3.27697 4.51684 -1.62912e-19)
(-4.31117 4.67821 0)
(-5.01893 4.52247 1.0601e-20)
(-5.49073 4.16476 0)
(-5.82668 3.70779 5.80367e-20)
(-6.10805 3.22819 -4.27623e-20)
(-6.38313 2.77206 7.49215e-20)
(-6.6684 2.35867 -1.06204e-19)
(-6.95968 1.99041 -3.21031e-19)
(-7.24391 1.66204 1.62722e-19)