/*--------------------------------*- C++ -*----------------------------------*\
  =========                 |
  \\      /  F ield         | OpenFOAM: The Open Source CFD Toolbox
   \\    /   O peration     | Website:  https://openfoam.org
    \\  /    A nd           | Version:  9
     \\/     M anipulation  |
\*---------------------------------------------------------------------------*/
FoamFile
{
    format      ascii;
    class       volScalarField;
    location    "0.03";
    object      epsilon;
}
// * * * * * * * * * * * * * * * * * * * * * * * * * * * * * * * * * * * * * //

dimensions      [0 2 -3 0 0 0 0];

internalField   nonuniform List<scalar> 
12225
(
247.471
207.875
178.045
156.439
141.945
133.655
130.746
132.406
137.818
146.185
156.759
168.877
181.984
195.656
209.609
223.716
238.078
256.839
43.7656
57.8486
67.2403
77.6179
91.873
111.704
138.211
171.893
212.599
259.601
311.777
367.849
426.63
487.247
549.359
613.403
681.153
756.864
20.9278
26.6682
31.3179
35.5615
40.1019
45.4512
51.9917
59.9887
69.577
80.7679
93.4811
107.593
122.994
139.66
157.745
177.737
200.748
229.153
16.2948
18.2781
20.2135
22.0551
23.9012
25.8606
28.0259
30.4673
33.2283
36.3272
39.7647
43.5356
47.6429
52.1155
57.0341
62.5758
69.0933
77.2148
15.0545
15.6166
16.3196
17.0684
17.8411
18.6436
19.4911
20.4002
21.3836
22.449
23.6
24.8391
26.1713
27.6089
29.1783
30.9313
32.9608
35.4059
14.6989
14.7113
14.8467
15.0567
15.3136
15.6034
15.9204
16.2637
16.6343
17.0335
17.4623
17.9222
18.4154
18.9468
19.5251
20.1663
20.8957
21.7399
14.5991
14.4102
14.2952
14.2402
14.2314
14.2582
14.3131
14.391
14.4892
14.6061
14.7407
14.8929
15.0632
15.2531
15.4657
15.7062
15.982
16.296
14.5724
14.3165
14.1018
13.9264
13.7861
13.6763
13.5924
13.5306
13.4879
13.4623
13.4521
13.4564
13.4748
13.5074
13.5549
13.6189
13.7014
13.8008
14.5657
14.2896
14.0397
13.8159
13.6171
13.4417
13.2875
13.1526
13.0349
12.9329
12.8452
12.7708
12.7089
12.6592
12.6215
12.5959
12.5828
12.5807
14.5641
14.2825
14.0216
13.7807
13.5591
13.3558
13.1698
12.9997
12.8446
12.7032
12.5748
12.4583
12.3532
12.2589
12.175
12.1012
12.0373
11.9825
14.5636
14.2806
14.0167
13.7705
13.5412
13.3276
13.1288
12.944
12.7721
12.6125
12.4644
12.3271
12.1999
12.0825
11.9744
11.875
11.7841
11.7015
14.5635
14.2801
14.0154
13.7679
13.5364
13.3197
13.1169
12.927
12.7491
12.5827
12.4268
12.281
12.1446
12.0172
11.8983
11.7874
11.6841
11.5887
14.5634
14.2799
14.015
13.767
13.5348
13.3171
13.1129
12.9212
12.7411
12.5718
12.4128
12.2633
12.1227
11.9907
11.8666
11.7501
11.6406
11.5387
14.5634
14.2798
14.0147
13.7667
13.5343
13.3163
13.1116
12.9193
12.7385
12.5684
12.4082
12.2573
12.1152
11.9812
11.855
11.736
11.6237
11.5188
14.5633
14.2797
14.0146
13.7665
13.534
13.316
13.1113
12.9189
12.7379
12.5676
12.4072
12.256
12.1135
11.9791
11.8522
11.7324
11.6193
11.5134
14.5633
14.2796
14.0145
13.7663
13.5339
13.3159
13.1112
12.9188
12.738
12.5677
12.4074
12.2563
12.1138
11.9794
11.8525
11.7326
11.6194
11.5134
14.5632
14.2795
14.0144
13.7662
13.5338
13.3158
13.1112
12.919
12.7382
12.5681
12.4079
12.257
12.1147
11.9805
11.8538
11.7341
11.6211
11.5154
14.5632
14.2795
14.0143
13.7661
13.5337
13.3158
13.1113
12.9192
12.7387
12.5688
12.4088
12.2581
12.1161
11.9821
11.8557
11.7364
11.6238
11.5185
14.5631
14.2794
14.0142
13.7661
13.5338
13.316
13.1116
12.9197
12.7394
12.5698
12.4101
12.2597
12.1181
11.9845
11.8585
11.7396
11.6274
11.5226
14.5631
14.2794
14.0142
13.7662
13.534
13.3163
13.1122
12.9205
12.7404
12.571
12.4117
12.2616
12.1203
11.9871
11.8615
11.743
11.6312
11.5269
14.5631
14.2794
14.0143
13.7664
13.5343
13.3168
13.1129
12.9215
12.7416
12.5726
12.4136
12.2639
12.123
11.9902
11.865
11.7469
11.6357
11.5318
14.5631
14.2795
14.0145
13.7669
13.5351
13.3181
13.1146
12.9238
12.7448
12.5766
12.4186
12.27
12.1302
11.9986
11.8747
11.7581
11.6482
11.5457
14.5632
14.2799
14.0156
13.7691
13.5391
13.3243
13.1238
12.9364
12.7613
12.5974
12.4439
12.3002
12.1656
12.0392
11.9207
11.8094
11.7049
11.6078
14.564
14.2831
14.0238
13.785
13.5654
13.3636
13.1782
13.0077
12.8505
12.7054
12.5712
12.4467
12.3311
12.2235
12.1233
12.03
11.9429
11.8625
14.5704
14.308
14.0798
13.8828
13.7129
13.5659
13.4381
13.3261
13.2272
13.1393
13.0608
12.9902
12.9265
12.8686
12.8157
12.7671
12.7227
12.6831
14.62
14.4662
14.3846
14.3522
14.3515
14.3703
14.4009
14.4388
14.4819
14.5289
14.5791
14.6323
14.688
14.746
14.8057
14.8666
14.9281
14.9892
14.942
15.2859
15.7165
16.1532
16.5708
16.9648
17.3389
17.6998
18.0546
18.4092
18.7676
19.1321
19.5036
19.8817
20.2648
20.651
21.0381
21.4222
16.802
18.991
20.8207
22.3091
23.591
24.7662
25.9056
27.0624
28.274
29.5632
30.9408
32.4085
33.9604
35.5854
37.2686
38.9936
40.744
42.4986
28.5927
35.9868
40.236
43.3072
46.1862
49.3177
52.9396
57.1794
62.0852
67.6496
73.8266
80.5423
87.7028
95.202
102.93
110.778
118.656
126.44
152.476
136.95
124.103
113.489
104.803
97.7973
92.272
88.0511
84.9741
82.8918
81.6645
81.1616
81.2619
81.8539
82.8368
84.1206
85.6272
87.284
44.7989
76.2231
106.787
136.561
166.883
200.377
223.967
236.467
244.178
248.193
250.842
252.856
254.747
256.916
259.659
263.161
267.502
272.764
277.769
280.798
280.469
275.095
262.591
240.496
206.227
158.485
102.401
55.1566
39.9561
9.19736
8.93122
40.9546
53.5088
70.8615
93.8321
113.93
118.706
111.387
97.6412
83.2164
73.0922
67.0202
64.4491
64.0524
65.185
70.8609
92.4544
160.942
294.769
429.261
562.816
687.592
799.055
895.029
974.912
1039.09
1088.51
1124.46
1148.32
1161.48
1165.3
1161.03
1149.83
1132.75
1110.7
1084.52
1054.91
1022.5
988.987
954.99
920.632
886.058
851.418
816.848
782.46
748.33
714.493
680.925
647.542
614.194
580.678
546.756
512.197
476.83
440.605
403.641
366.252
328.935
292.316
257.06
223.786
193
165.171
141.062
122.821
115.468
111.654
108.794
106.575
104.914
103.762
103.075
102.811
102.929
103.389
104.148
105.167
106.404
107.82
109.376
111.032
112.751
114.496
116.232
117.928
119.553
121.08
122.487
123.755
124.862
125.71
126.278
126.555
126.53
126.201
125.563
124.618
123.366
121.817
119.983
117.89
115.573
113.074
110.448
107.752
105.044
102.379
99.8045
97.3588
95.0691
92.9523
91.0159
89.2598
87.6783
86.2619
84.9988
83.8764
82.8818
82.0025
81.2267
80.5434
79.9423
79.4142
78.9503
78.5425
78.1836
77.8668
77.5857
77.3345
77.1075
76.8993
76.7045
76.5174
76.3318
76.1407
75.9362
75.7085
75.446
75.134
74.7542
74.2832
73.6917
72.9439
16.5835
15.0745
13.7413
12.5424
11.4662
10.5055
9.66542
35.2701
51.1455
70.5904
102.502
194.193
236.595
246.266
241.019
229.636
214.969
198.549
181.834
165.957
151.587
139.026
128.375
119.621
112.854
110.039
111.358
116.214
123.736
132.807
142.041
149.778
154.465
156.488
155.721
143.102
113.647
82.1782
59.0578
49.4524
58.2345
79.6076
101.69
111.967
106.6
93.3442
83.5965
93.6426
133.94
216.105
330.118
398.25
407.692
408.203
411.2
412.761
409.524
401.385
388.767
372.481
353.446
332.585
310.759
288.746
267.212
246.705
227.656
210.391
195.144
182.083
171.324
162.954
157.037
153.596
152.769
152.892
153.192
153.673
154.352
155.249
156.378
157.747
159.349
161.156
163.109
165.102
166.977
168.515
169.438
169.425
168.15
165.328
160.774
154.45
146.485
137.164
126.882
116.083
105.192
94.5725
84.5281
75.4603
68.7158
63.0821
58.1365
53.7917
49.9812
46.6433
43.7221
41.1667
38.9313
36.975
35.2614
33.7586
32.4384
31.276
30.2493
29.3392
28.5286
27.8025
27.1475
26.552
26.0057
25.4996
25.0261
24.5792
24.1651
23.8803
23.678
23.5214
23.3742
23.2267
23.0718
22.9038
22.7184
22.5112
22.2783
22.0157
21.7205
21.3914
21.0295
20.6382
20.2227
19.7902
19.3482
18.9045
18.4662
18.0393
17.6284
17.2367
16.866
16.5173
16.1906
15.8854
15.601
15.3367
15.0917
14.8652
14.6569
14.4663
14.2931
14.1371
13.9979
13.8755
13.7693
13.6793
13.6049
13.5459
13.5019
13.4727
13.4581
13.4582
13.4734
13.5043
13.5522
13.6189
13.707
13.8201
13.9609
14.1194
13.8342
13.5388
13.4741
13.6917
14.2452
15.1495
17.0835
29.4955
43.3205
96.0293
246.628
319.369
298.945
252.138
208.872
174.861
148.827
128.726
112.992
100.531
90.5737
82.5676
76.1122
70.9167
66.7932
63.8342
62.7091
63.633
66.8634
72.4367
80.0087
88.8702
98.2594
108.03
117.913
124.087
120.727
107.072
88.9667
75.5346
78.0653
102.804
135.953
159.641
165.193
175.326
230.439
324.289
388.947
392.202
373.215
345.526
316.13
291.498
271.069
252.305
233.864
215.535
197.584
180.492
164.752
150.736
138.641
128.494
120.196
113.572
108.415
104.514
101.675
99.7212
98.5025
97.8926
97.7881
98.1066
98.6462
99.2671
99.995
100.878
101.97
103.33
105.015
107.079
109.566
112.502
115.885
119.666
123.733
127.896
131.877
135.312
137.785
138.878
138.241
135.671
131.157
124.89
117.223
108.599
99.4702
90.2191
81.1007
72.6066
65.8551
59.9251
54.6503
49.9702
45.8252
42.1569
38.9101
36.0343
33.4839
31.2181
29.2011
27.4015
25.7919
24.3485
23.0503
21.8792
20.8194
19.8569
18.9796
18.1769
17.4393
16.7585
16.1275
15.5397
14.9904
14.4782
13.9996
13.5521
13.14
12.7552
12.3909
12.0429
11.7075
11.3819
11.0634
10.7496
10.4383
10.1278
9.81677
9.5045
9.19087
8.8764
8.56212
8.2495
7.94021
7.636
7.33852
7.04925
6.76944
6.50006
6.24187
5.99537
5.76094
5.53877
5.32897
5.13156
4.94651
4.77371
4.61302
4.46424
4.32711
4.20136
4.08666
3.98263
3.88891
3.80511
3.73082
3.66571
3.60943
3.56173
3.52245
3.49154
3.46911
3.45551
3.45136
3.45763
3.4756
3.50688
3.55293
3.61836
3.71457
3.86719
4.10942
4.50794
5.18704
44.0057
125.046
365.068
424.477
354.382
268.279
202.042
156.448
125.367
103.73
88.2627
76.9102
68.3678
61.7957
56.6456
52.555
49.2845
46.6819
44.6965
43.6211
43.5097
44.5782
47.1203
51.3569
57.2361
64.4116
72.6388
81.9218
91.2906
98.0834
99.9702
98.8883
103.088
122.737
170.82
235.415
292.465
357.554
385.938
378.144
364.712
336.935
300.139
265.655
236.404
212.608
193.683
177.963
164.124
151.716
140.827
131.682
124.407
118.933
115.032
112.392
110.689
109.625
108.951
108.465
108.011
107.473
106.774
105.868
104.743
103.413
101.92
100.254
98.4853
96.6979
94.981
93.4314
92.152
91.2498
90.8317
91.0002
91.8458
93.436
95.8
98.9082
102.648
106.8
111.028
114.889
117.875
119.491
119.351
117.262
113.266
107.623
100.737
93.0629
85.0076
76.8237
69.5299
63.3066
57.7127
52.6939
48.2112
44.2174
40.6629
37.4993
34.6813
32.1679
29.9221
27.9112
26.1067
24.4836
23.0199
21.6966
20.497
19.4066
18.4126
17.5038
16.6702
15.9033
15.1953
14.5394
13.9295
13.3605
12.8277
12.3272
11.8556
11.4101
10.9887
10.5895
10.209
9.84473
9.49436
9.15595
8.82778
8.50839
8.1966
7.89145
7.59227
7.29865
7.01042
6.72762
6.4505
6.17941
5.91482
5.65721
5.40708
5.16489
4.93103
4.70586
4.48963
4.28255
4.08477
3.89637
3.71738
3.54782
3.38763
3.23674
3.09505
2.96242
2.83869
2.72366
2.61712
2.51883
2.42852
2.34591
2.27072
2.20265
2.1414
2.08669
2.03825
1.99586
1.95934
1.92859
1.90362
1.88457
1.87185
1.8665
1.86977
1.88415
1.91514
1.9718
2.07478
2.25595
89.6564
398.168
456.072
351.325
249.5
180.026
135.61
106.77
87.3868
73.8837
64.144
56.8906
51.3399
46.9947
43.5257
40.7117
38.4102
36.5382
35.0654
34.1275
33.7682
34.0852
35.2647
37.558
41.185
46.1936
52.4975
60.2036
69.6139
80.7382
93.9487
114.148
152.794
217.121
310.183
457.898
516.891
427.405
362.084
314.002
274.586
239.578
209.68
186.049
167.829
153.777
142.761
133.893
126.786
121.419
117.82
115.892
115.391
115.982
117.309
119.038
120.88
122.598
124.007
124.972
125.396
125.221
124.415
122.969
120.895
118.228
115.026
111.476
107.646
103.613
99.4696
95.3357
91.3491
87.6638
84.4423
81.8481
80.0363
79.143
79.2722
80.4777
82.7386
85.931
89.8008
93.9511
97.8611
100.947
102.664
102.622
100.674
96.9358
91.7363
85.5096
78.6787
71.6988
65.6016
60.0402
54.9618
50.3648
46.2291
42.5214
39.203
36.2339
33.5761
31.194
29.0557
27.1327
25.3997
23.8345
22.4176
21.132
19.9625
18.8961
17.9211
17.0273
16.2055
15.4479
14.7473
14.0974
13.4925
12.9277
12.3985
11.901
11.4316
10.9873
10.5654
10.1636
9.78009
9.41255
9.05918
8.71835
8.38865
8.06889
7.75807
7.45541
7.16031
6.87235
6.5913
6.31705
6.04962
5.78912
5.53574
5.28969
5.0512
4.82049
4.59778
4.38324
4.17702
3.97921
3.78989
3.60908
3.43679
3.27299
3.11765
2.97069
2.83202
2.70154
2.57914
2.46467
2.35796
2.25884
2.16709
2.08249
2.00478
1.93372
1.869
1.81036
1.75748
1.71007
1.66786
1.63056
1.59796
1.56985
1.54615
1.52691
1.51236
1.50305
1.5003
1.50656
1.52727
1.57167
122.253
445.877
340.454
230.277
162.033
121.33
95.823
78.8251
66.8744
58.118
51.4982
46.3768
42.3415
39.0989
36.4331
34.2005
32.3222
30.766
29.5272
28.6795
28.2732
28.3585
29.0361
30.4649
32.8451
36.3817
41.2658
47.8775
57.3258
72.0982
98.0202
148.512
238.478
371.945
556.724
581.703
447.954
340.975
274.393
230.029
198.038
173.791
155.467
141.868
131.728
124.098
118.396
114.328
111.77
110.608
110.641
111.583
113.114
114.926
116.76
118.425
119.798
120.816
121.464
121.751
121.698
121.317
120.609
119.553
118.112
116.238
113.952
111.267
108.146
104.581
100.597
96.2677
91.7081
87.078
82.5717
78.407
74.8098
71.9977
70.162
69.4495
69.9406
71.6237
74.3654
77.8849
81.745
85.3784
88.1654
89.5573
89.215
87.0767
83.3522
78.4189
72.6965
67.1022
61.847
56.9022
52.3261
48.1429
44.3489
40.9237
37.839
35.0636
32.5661
30.317
28.2891
26.458
24.8019
23.3012
21.9388
20.6995
19.5697
18.5376
17.5924
16.7248
15.9263
15.1895
14.5076
13.8748
13.2855
12.7352
12.2194
11.7343
11.2766
10.8431
10.4311
10.0382
9.66241
9.30171
8.95444
8.61911
8.29446
7.97941
7.67306
7.37472
7.08385
6.80007
6.52316
6.25301
5.98961
5.73304
5.48345
5.24099
5.00586
4.77826
4.55837
4.34633
4.14227
3.94628
3.75843
3.57872
3.40718
3.24375
3.08841
2.9411
2.80173
2.67023
2.5465
2.43043
2.32189
2.22073
2.12679
2.03987
1.95975
1.88619
1.81894
1.75772
1.70223
1.65218
1.60724
1.5671
1.53147
1.50007
1.47262
1.44895
1.42891
1.41254
1.40008
1.39222
1.39048
1.39766
150.366
347.041
236.138
161.525
119.382
94.1085
77.4169
65.5487
56.7394
50.0058
44.77
40.6605
37.3735
34.6493
32.3101
30.2715
28.516
27.0549
25.9056
25.1395
24.7988
24.9013
25.5001
26.6891
28.5919
31.3935
35.4556
41.5883
52.0025
72.5593
116.913
203.842
331.818
508.797
584.673
461.611
332.645
250.715
202.043
171.344
150.674
136.079
125.562
117.894
112.256
108.188
105.438
103.827
103.168
103.229
103.746
104.46
105.152
105.668
105.928
105.918
105.679
105.285
104.82
104.364
103.98
103.7
103.532
103.45
103.404
103.319
103.011
102.282
101.036
99.2096
96.7744
93.7433
90.1773
86.1884
81.9392
77.6362
73.5183
69.8392
66.8464
64.757
63.7349
63.8673
65.1415
67.4234
70.4334
73.732
76.7404
78.8345
79.5198
78.5531
75.9912
72.124
67.6388
63.0545
58.4989
54.1204
50.0101
46.2105
42.7321
39.5664
36.6944
34.093
31.7375
29.6042
27.6706
25.9163
24.3228
22.8736
21.5537
20.3499
19.2503
18.2441
17.3217
16.4745
15.6947
14.9752
14.3097
13.6925
13.1184
12.5827
12.0813
11.6102
11.1662
10.746
10.347
9.9667
9.60286
9.25354
8.91699
8.59175
8.27653
7.97027
7.67208
7.38126
7.09727
6.81973
6.54841
6.28322
6.02413
5.77125
5.52471
5.28472
5.0515
4.82526
4.60623
4.3946
4.19055
3.9942
3.80565
3.62496
3.45216
3.28725
3.1302
2.98097
2.83949
2.70572
2.57957
2.46097
2.34981
2.24599
2.14935
2.05973
1.97695
1.90078
1.83099
1.76732
1.70948
1.65718
1.61009
1.56789
1.53027
1.49689
1.46744
1.44165
1.41926
1.40011
1.38413
1.37143
1.36246
1.35809
179.799
307.477
193.836
132.894
101.153
81.8781
68.5855
58.8317
51.376
45.5714
41.082
37.5885
34.7285
32.2258
29.9537
27.8945
26.087
24.5842
23.427
22.7248
22.4911
22.7242
23.4471
24.7106
26.5957
29.2963
33.3608
40.1899
53.7126
84.6182
153.035
264.92
415.25
520.821
457.59
332.358
240.068
185.793
154.475
135.367
122.906
114.28
108.07
103.524
100.236
97.9775
96.5699
95.8316
95.5698
95.5931
95.7311
95.8534
95.8802
95.787
95.6005
95.3875
95.2375
95.2435
95.4844
96.0116
96.8428
97.9595
99.3108
100.819
102.388
103.803
104.753
105.091
104.707
103.524
101.499
98.644
95.026
90.7772
86.0908
81.2072
76.3925
71.9132
68.0104
64.8789
62.6594
61.433
61.2222
61.9961
63.6474
65.9379
68.4378
70.5406
71.6533
71.3825
69.6232
66.7603
63.2641
59.4241
55.4875
51.6273
47.9492
44.5085
41.3269
38.4052
35.7329
33.2938
31.0695
29.0414
27.1917
25.5039
23.9629
22.5548
21.2672
20.0888
19.0092
18.0192
17.1101
16.2743
15.5046
14.7946
14.1382
13.5301
12.9653
12.4392
11.9478
11.4872
11.054
10.6451
10.2576
9.88901
9.537
9.19949
8.87464
8.56086
8.25678
7.96125
7.6733
7.39216
7.11722
6.84804
6.58435
6.32598
6.07292
5.82523
5.58307
5.34663
5.11618
4.89198
4.6743
4.4634
4.25952
4.06284
3.87354
3.69174
3.51751
3.3509
3.19194
3.04061
2.89689
2.76073
2.63208
2.51087
2.39707
2.29055
2.19123
2.09894
2.01354
1.93483
1.8626
1.79659
1.73654
1.68216
1.63314
1.58916
1.54987
1.51495
1.48406
1.45688
1.43312
1.41253
1.39491
1.3802
1.36845
1.35991
952.635
351.41
175.953
118.414
92.3112
76.0542
64.4026
55.5596
48.6622
43.3732
39.4519
36.4462
33.8599
31.4114
29.0266
26.7423
24.6799
22.9849
21.7578
21.1286
21.045
21.4713
22.4247
23.9868
26.3263
29.8086
35.3179
45.5717
67.6433
115.103
200.722
316.041
422.404
420.576
329.359
237.514
178.055
144.349
125.203
113.605
105.976
100.582
96.623
93.7259
91.6915
90.3785
89.6566
89.3973
89.4761
89.777
90.2
90.6742
91.1717
91.7143
92.3687
93.2288
94.3923
95.9385
97.9116
100.312
103.096
106.179
109.44
112.736
115.902
118.537
120.509
121.664
121.864
120.984
118.929
115.652
111.179
105.638
99.2788
92.4657
85.6382
79.2423
73.6461
69.0578
65.5307
63.0025
61.3657
60.5664
60.6117
61.4778
62.9447
64.5031
65.5165
65.4929
64.3157
62.18
59.3546
56.1225
52.7221
49.3259
46.0441
42.9386
40.0379
37.3498
34.8701
32.5883
30.4914
28.5654
26.7968
25.1727
23.681
22.3108
21.0518
19.8946
18.8307
17.852
16.951
16.1211
15.3558
14.6493
13.9961
13.3912
12.83
12.308
11.8213
11.3662
10.9393
10.5376
10.158
9.79799
9.45522
9.12749
8.81281
8.50948
8.21599
7.93105
7.65358
7.38268
7.11762
6.85786
6.60302
6.35285
6.10726
5.86627
5.62997
5.39857
5.17232
4.9515
4.73643
4.52741
4.32473
4.12866
3.93943
3.75723
3.58221
3.41448
3.25412
3.10115
2.95561
2.81749
2.68675
2.56335
2.44726
2.33841
2.23671
2.14207
2.05433
1.97333
1.89888
1.83075
1.7687
1.71245
1.66168
1.61609
1.57535
1.5391
1.50701
1.47875
1.45401
1.43248
1.41394
1.39822
1.38522
1.37497
1085.83
304.011
152.637
110.545
89.4158
74.5704
63.2502
54.496
47.7878
42.9292
39.5684
36.9937
34.5579
31.9815
29.2501
26.4915
23.9749
22.0074
20.9056
20.5759
20.7861
21.5852
23.1528
25.728
29.6518
35.5257
44.7423
61.4714
94.315
152.979
237.783
326.049
358.314
311.974
236.673
176.289
139.539
119.021
107.264
99.9112
94.8504
91.1545
88.4465
86.5621
85.406
84.898
84.9533
85.4716
86.3353
87.4229
88.6359
89.9277
91.318
92.8861
94.7449
97.0091
99.7662
103.058
106.871
111.14
115.756
120.571
125.415
130.104
134.343
137.881
140.628
142.446
143.198
142.747
140.953
137.686
132.85
126.442
118.621
109.765
100.452
91.3934
83.3023
76.5982
71.3604
67.3826
64.3147
61.9533
60.3279
59.5932
59.738
60.3947
60.9224
60.8474
59.9399
58.2206
55.8672
53.1082
50.1527
47.1592
44.2331
41.4362
38.7995
36.3345
34.0411
31.9134
29.9424
28.1183
26.4311
24.8713
23.4299
22.0983
20.8684
19.7329
18.6845
17.7167
16.823
15.9977
15.2351
14.53
13.8774
13.2728
12.7118
12.1904
11.7048
11.2515
10.8272
10.4288
10.0536
9.6988
9.3621
9.04127
8.73422
8.43915
8.15444
7.87867
7.61062
7.34925
7.0937
6.84329
6.59752
6.35603
6.11862
5.88519
5.65581
5.43059
5.20976
4.99358
4.78239
4.57649
4.37624
4.18194
3.99389
3.81234
3.63749
3.46953
3.30858
3.15474
3.00809
2.86865
2.73643
2.61143
2.49361
2.38294
2.27936
2.18279
2.09311
2.01019
1.93386
1.86391
1.80012
1.74222
1.68992
1.64292
1.60089
1.56349
1.53037
1.50121
1.47567
1.45345
1.43428
1.41795
1.40431
1.39327
1117.13
260.488
144.302
111.366
91.5434
76.1459
64.1399
55.0593
48.4532
44.0106
41.146
38.889
36.4899
33.6892
30.5775
27.448
24.7393
22.896
22.2597
22.3751
23.163
24.7939
27.5234
31.6487
37.5785
46.2662
60.2293
84.4201
124.826
183.783
250.564
291.068
279.017
229.983
177.055
138.942
116.369
103.59
95.8927
90.738
87.0171
84.3153
82.4929
81.4925
81.2642
81.7339
82.787
84.271
86.0227
87.9124
89.8828
91.9638
94.2579
96.9034
100.034
103.747
108.082
113.014
118.463
124.296
130.346
136.417
142.302
147.799
152.506
156.394
159.359
161.301
162.131
161.769
160.113
157.023
152.316
145.822
137.491
127.557
116.535
105.235
94.7697
85.8937
78.8247
73.3281
68.8288
64.9568
61.7258
59.4183
58.1741
57.745
57.6102
57.2495
56.3443
54.8176
52.7638
50.3516
47.7511
45.098
42.4852
39.9686
37.5774
35.3237
33.2097
31.2321
29.3854
27.6631
26.0583
24.5644
23.1751
21.8842
20.6857
19.5738
18.543
17.5878
16.7029
15.8834
15.1244
14.4212
13.7693
13.1647
12.6033
12.0815
11.5955
11.1422
10.7184
10.3212
9.94786
9.59579
9.26265
8.94619
8.64435
8.35525
8.07722
7.80875
7.54848
7.29529
7.04817
6.80632
6.5691
6.33604
6.10679
5.88118
5.65914
5.44073
5.2261
5.01548
4.80914
4.60743
4.41069
4.21925
4.03345
3.85358
3.67992
3.51268
3.35206
3.19821
3.05124
2.91123
2.77823
2.65226
2.53333
2.42141
2.31648
2.21848
2.12733
2.0429
1.96506
1.89363
1.82839
1.76911
1.71551
1.6673
1.62416
1.58576
1.55176
1.52182
1.49561
1.47282
1.45318
1.43643
1.4224
1.41094
1084.73
237.54
148.113
117.935
96.9691
79.9209
66.7194
57.1107
50.5309
46.3497
43.7416
41.7158
39.5032
36.8273
33.8283
30.8827
28.4591
26.9778
26.7155
27.3058
28.8129
31.3901
35.2807
40.8795
48.9738
61.1598
80.1149
109.102
149.888
197.305
233.375
239.025
214.294
175.732
140.73
116.798
102.502
93.921
88.2761
84.238
81.3228
79.3996
78.4391
78.407
79.2214
80.7368
82.7552
85.068
87.5133
90.0217
92.6298
95.458
98.6663
102.407
106.788
111.854
117.581
123.879
130.609
137.587
144.604
151.426
157.813
163.512
168.229
171.947
174.575
176.046
176.333
175.443
173.385
170.117
165.476
159.192
150.993
140.947
129.4
116.963
105.038
94.7233
86.2657
79.4848
73.7548
68.5362
63.8372
60.0725
57.5299
56.0648
55.2048
54.4255
53.3625
51.8732
49.9866
47.8168
45.4934
43.1243
40.7848
38.5207
36.356
34.3012
32.3585
30.5265
28.8019
27.1807
25.6589
24.2323
22.8969
21.6488
20.484
19.3982
18.3873
17.4471
16.5733
15.7618
15.0082
14.3086
13.659
13.0556
12.4947
11.9729
11.4868
11.0334
10.6097
10.213
9.84049
9.48988
9.15882
8.84512
8.54677
8.2619
7.9888
7.72592
7.47186
7.22539
6.98542
6.75103
6.52148
6.29617
6.07465
5.85662
5.64191
5.43048
5.2224
5.01783
4.81701
4.62023
4.42782
4.24012
4.05748
3.88022
3.70866
3.54306
3.38364
3.23061
3.08411
2.94428
2.81119
2.68492
2.56549
2.45291
2.34718
2.24825
2.15608
2.07057
1.9916
1.91902
1.85265
1.79226
1.7376
1.68838
1.64431
1.60506
1.5703
1.5397
1.51292
1.48966
1.46962
1.45256
1.43825
1.42652
1022.72
241.738
158.923
128.191
105.06
85.7953
70.9648
60.436
53.4788
49.2229
46.7387
45.0665
43.4337
41.4714
39.2166
36.9676
35.1346
34.1174
34.1478
35.1468
37.2704
40.7051
45.7906
53.119
63.664
78.8528
100.349
128.951
161.718
189.462
201.115
192.617
169.489
142.17
119.346
103.843
94.0532
87.5742
82.9404
79.5732
77.3335
76.2141
76.1961
77.1911
79.026
81.4604
84.2379
87.1537
90.1085
93.1259
96.329
99.8915
103.985
108.739
114.213
120.396
127.205
134.498
142.087
149.751
157.244
164.31
170.694
176.065
180.343
183.478
185.385
186.002
185.329
183.44
180.458
176.516
171.567
165.352
157.388
147.694
136.54
124.465
112.474
101.568
92.3384
84.6857
77.9555
71.5897
65.6709
60.73
57.143
54.8164
53.3054
52.0946
50.807
49.2673
47.4612
45.459
43.3526
41.2214
39.1209
37.0843
35.1283
33.2598
31.4804
29.789
28.1837
26.6627
25.2239
23.8656
22.5859
21.3826
20.2535
19.1961
18.2074
17.2845
16.4241
15.6226
14.8767
14.1827
13.5371
12.9366
12.3777
11.8573
11.3722
10.9195
10.4965
10.1005
9.7289
9.37951
9.05006
8.73844
8.44269
8.161
7.8917
7.63321
7.38413
7.14317
6.9092
6.68122
6.45841
6.24005
6.02562
5.8147
5.60702
5.40245
5.20097
5.00266
4.80769
4.6163
4.42879
4.24548
4.06671
3.89283
3.72415
3.56096
3.40353
3.25208
3.10681
2.96786
2.83537
2.70942
2.59009
2.4774
2.37137
2.272
2.17926
2.09307
2.01335
1.93997
1.87277
1.81153
1.75603
1.70602
1.66119
1.62124
1.58585
1.55468
1.52742
1.50375
1.48338
1.46604
1.45151
1.43959
956.568
248.752
172.578
141.167
115.72
93.9719
77.1139
65.167
57.3099
52.5246
49.8438
48.39
47.4429
46.5454
45.5449
44.537
43.7688
43.5497
43.9797
45.4885
48.2665
52.5723
58.8
67.5294
79.5291
95.5708
115.743
138.147
158.141
170.005
170.16
159.115
141.218
122.442
107.138
96.2977
88.7841
83.3277
79.2923
76.5157
75.0094
74.7776
75.7413
77.7177
80.4375
83.5975
86.9355
90.2954
93.6572
97.1219
100.864
105.075
109.913
115.471
121.765
128.733
136.243
144.106
152.093
159.947
167.396
174.147
179.945
184.545
187.997
190.235
191.198
190.815
189.076
186.065
181.941
177.053
171.511
165.158
157.676
148.796
138.489
127.177
115.723
105.103
95.9093
87.9891
80.6524
73.4392
66.6197
60.854
56.5497
53.6089
51.5947
50.013
48.5012
46.879
45.1088
43.2288
41.2991
39.3721
37.4835
35.6533
33.8901
32.1966
30.5725
29.0165
27.5278
26.1057
24.7501
23.461
22.2383
21.0816
19.9903
18.9633
17.999
17.0955
16.2504
15.461
14.7246
14.0381
13.3984
12.8025
12.2472
11.7296
11.2468
10.7961
10.3747
9.98018
9.61016
9.26238
8.93473
8.62514
8.33177
8.05287
7.78679
7.53202
7.28715
7.05088
6.82206
6.59966
6.38279
6.17067
5.96269
5.75835
5.55731
5.35934
5.16432
4.97227
4.78329
4.59754
4.41529
4.23683
4.06247
3.89253
3.72736
3.56724
3.41247
3.26328
3.11989
2.98249
2.85121
2.72619
2.60751
2.49524
2.38942
2.29006
2.19717
2.11069
2.03058
1.95671
1.88895
1.82713
1.77103
1.7204
1.67498
1.63447
1.59856
1.56693
1.53926
1.51524
1.49457
1.47699
1.46226
1.45018
889.047
256.998
188.065
156.589
129.251
105.134
86.0105
72.1459
62.7811
56.87
53.4374
51.6711
50.9318
50.7613
50.8881
51.212
51.7694
52.6946
54.1185
56.4699
60.0262
65.0955
72.0473
81.2823
93.072
107.195
122.473
136.63
146.862
150.833
147.545
137.928
124.783
111.544
100.489
92.0462
85.6536
80.7966
77.3056
75.2059
74.5364
75.2413
77.1535
80.0002
83.4467
87.1692
90.9312
94.6333
98.3182
102.135
106.282
110.949
116.275
122.321
129.065
136.403
144.16
152.106
159.976
167.49
174.351
180.256
184.947
188.438
190.717
191.81
191.686
190.279
187.571
183.656
178.759
173.193
167.163
160.654
153.43
145.174
135.758
125.481
115.08
105.404
96.8697
89.1399
81.5085
73.7424
66.3766
60.1701
55.4932
52.2003
49.8546
47.9975
46.3025
44.6047
42.8586
41.0806
39.3045
37.5594
35.8628
34.2222
32.6385
31.1098
29.6337
28.2085
26.8335
25.5093
24.2369
23.0178
21.8535
20.7452
19.6936
18.699
17.7611
16.8789
16.051
15.2755
14.5503
13.8729
13.2406
12.6508
12.1006
11.5872
11.108
10.6603
10.2417
9.84965
9.48198
9.1365
8.81117
8.50396
8.21315
7.93705
7.67409
7.42278
7.18175
6.94972
6.72554
6.50816
6.29666
6.09022
5.88817
5.68996
5.49517
5.30349
5.11474
4.92885
4.74586
4.56588
4.3891
4.21578
4.04619
3.88066
3.71948
3.56297
3.41141
3.26506
3.12414
2.98886
2.85937
2.73582
2.61832
2.50696
2.40181
2.3029
2.21025
2.12386
2.04368
1.96963
1.90159
1.83942
1.78292
1.73187
1.68601
1.64508
1.60876
1.57675
1.54874
1.52442
1.5035
1.4857
1.47079
1.45854
824.866
264.927
204.089
173.874
145.826
120.096
98.9109
82.8836
71.5138
63.8972
59.1233
56.4252
55.2113
55.0518
55.6539
56.8342
58.4981
60.625
63.257
66.6411
71.0164
76.6244
83.666
92.208
102.039
112.535
122.645
131.025
136.28
137.28
133.601
125.953
116.116
106.135
97.3525
90.1489
84.4374
80.1427
77.3165
76.0363
76.3264
78.0196
80.8256
84.4185
88.4464
92.6022
96.688
100.648
104.559
108.588
112.934
117.774
123.227
129.328
136.024
143.182
150.596
158.011
165.145
171.709
177.424
182.046
185.373
187.5
188.495
188.417
187.252
184.965
181.54
177.05
171.694
165.761
159.493
152.95
145.966
138.272
129.74
120.629
111.575
103.22
95.6576
88.2994
80.5257
72.4614
64.9064
58.6295
53.8922
50.4779
47.958
45.9258
44.1066
42.363
40.6514
38.973
37.3409
35.7646
34.2462
32.7824
31.3673
29.9948
28.6605
27.362
26.0986
24.8715
23.6826
22.5347
21.4304
20.3723
19.3625
18.4023
17.4927
16.6336
15.8247
15.0647
14.3523
13.6853
13.0618
12.4793
11.9353
11.4272
10.9527
10.5091
10.0942
9.70558
9.34107
8.99862
8.67621
8.37189
8.08407
7.81112
7.55151
7.30379
7.06663
6.83878
6.61909
6.40652
6.20014
5.99911
5.80272
5.61039
5.42162
5.23606
5.05346
4.8737
4.69672
4.52261
4.35148
4.18355
4.01907
3.8583
3.70155
3.54912
3.40127
3.25826
3.12034
2.98771
2.86053
2.73897
2.62315
2.51318
2.40913
2.31108
2.21907
2.1331
2.05316
1.97921
1.91114
1.84884
1.79213
1.74083
1.69468
1.65344
1.61682
1.58451
1.55622
1.53165
1.5105
1.49251
1.47743
1.46503
770.833
270.731
219.37
192.837
166.316
140.684
118.396
100.448
86.7994
76.9179
70.1211
65.7582
63.2863
62.2872
62.4551
63.5746
65.5043
68.1669
71.4833
75.4757
80.2619
85.947
92.5657
100.016
108.002
116.002
123.283
128.951
132.067
131.884
128.197
121.6
113.357
104.874
97.1395
90.5945
85.4098
81.6696
79.6636
79.2795
80.4334
82.9077
86.3872
90.5227
94.9663
99.4306
103.74
107.856
111.857
115.902
120.176
124.837
129.986
135.644
141.749
148.16
154.671
161.032
166.972
172.223
176.537
179.694
181.636
182.445
182.192
180.961
178.8
175.722
171.734
166.894
161.368
155.402
149.214
142.876
136.269
129.193
121.6
113.778
106.264
99.3763
92.7663
85.6666
77.7609
69.6234
62.2198
56.1999
51.6575
48.3046
45.7397
43.6254
41.7491
40.0064
38.3592
36.7974
35.3173
33.9121
32.5712
31.2825
30.0343
28.8174
27.6253
26.455
25.3056
24.1785
23.0766
22.0035
20.9629
19.9585
18.9937
18.0711
17.1925
16.3592
15.5714
14.829
14.1311
13.4764
12.8631
12.2893
11.7528
11.2513
10.7825
10.3441
9.93388
9.54958
9.1891
8.85046
8.53166
8.23102
7.94685
7.67757
7.42169
7.17783
6.94468
6.72103
6.50577
6.29786
6.09638
5.90048
5.70945
5.52266
5.33959
5.15985
4.98314
4.80927
4.63816
4.46982
4.30432
4.14183
3.98255
3.82674
3.67466
3.52658
3.38278
3.2435
3.10898
2.97942
2.855
2.73588
2.62218
2.51403
2.41152
2.31473
2.22372
2.13852
2.05915
1.98557
1.91774
1.85553
1.79883
1.74745
1.70117
1.65976
1.62294
1.59044
1.56195
1.53718
1.51586
1.4977
1.48247
1.46993
179.705
271.379
228.567
208.463
186.285
163.452
142.345
124.141
109.208
97.4691
88.612
82.2399
77.964
75.454
74.4514
74.7632
76.2496
78.814
82.3525
86.5702
91.4725
97.0566
103.256
109.895
116.663
123.089
128.56
132.368
133.826
132.477
128.312
121.895
114.226
106.37
99.1089
92.9142
88.3931
85.441
84.1801
84.5284
86.3508
89.4067
93.371
97.8893
102.621
107.292
111.733
115.899
119.854
123.736
127.706
131.907
136.43
141.297
146.451
151.767
157.057
162.092
166.625
170.416
173.253
174.958
175.567
175.145
173.78
171.577
168.622
164.958
160.615
155.652
150.205
144.467
138.605
132.664
126.551
120.147
113.516
106.993
100.94
95.229
89.1198
81.9463
73.9009
65.9208
58.9393
53.3817
49.1717
45.9818
43.4594
41.3408
39.4704
37.772
36.212
34.7721
33.4363
32.1867
31.0042
29.8707
28.7709
27.6931
26.6294
25.5758
24.5315
23.4977
22.4776
21.4755
20.496
19.5436
18.6227
17.7368
16.8889
16.081
15.3144
14.5896
13.9064