/*--------------------------------*- C++ -*----------------------------------*\
  =========                 |
  \\      /  F ield         | OpenFOAM: The Open Source CFD Toolbox
   \\    /   O peration     | Website:  https://openfoam.org
    \\  /    A nd           | Version:  9
     \\/     M anipulation  |
\*---------------------------------------------------------------------------*/
FoamFile
{
    format      ascii;
    class       volScalarField;
    location    "0.03";
    object      k;
}
// * * * * * * * * * * * * * * * * * * * * * * * * * * * * * * * * * * * * * //

dimensions      [0 2 -2 0 0 0 0];

internalField   nonuniform List<scalar> 
12225
(
0.314472
0.264155
0.226249
0.198794
0.180376
0.169841
0.166144
0.168253
0.175131
0.185763
0.1992
0.214598
0.231255
0.248628
0.266358
0.284285
0.302535
0.326376
0.362087
0.350405
0.347646
0.357359
0.379891
0.414181
0.458316
0.509822
0.566036
0.624466
0.683033
0.740209
0.795055
0.847215
0.896912
0.944978
0.99312
1.04469
0.368496
0.362724
0.357289
0.353319
0.351979
0.353744
0.358631
0.366396
0.376621
0.388804
0.40245
0.417144
0.432607
0.448745
0.465712
0.484028
0.504821
0.53031
0.369755
0.364181
0.358792
0.353837
0.349658
0.346454
0.344247
0.342952
0.342429
0.342518
0.343066
0.343953
0.345106
0.34651
0.348231
0.350454
0.353557
0.358207
0.37029
0.365264
0.3603
0.355505
0.351002
0.346883
0.34319
0.339913
0.33701
0.334424
0.332089
0.329948
0.327954
0.326079
0.324316
0.322689
0.321269
0.320202
0.370515
0.365865
0.3613
0.356846
0.352549
0.348457
0.344598
0.340978
0.33759
0.334415
0.331427
0.3286
0.325908
0.323331
0.320853
0.318469
0.316185
0.314036
0.3706
0.366146
0.361837
0.357664
0.353631
0.349754
0.346041
0.342499
0.339126
0.335916
0.33286
0.329946
0.327161
0.324493
0.321933
0.319473
0.317111
0.314866
0.370628
0.366258
0.362088
0.358092
0.354257
0.350576
0.347046
0.343665
0.340428
0.337332
0.334372
0.331541
0.328833
0.32624
0.323756
0.321376
0.319097
0.316938
0.370635
0.366297
0.362189
0.358285
0.354566
0.351018
0.347627
0.344386
0.341286
0.338322
0.335487
0.332775
0.330181
0.327701
0.325328
0.323059
0.320892
0.318845
0.370636
0.366307
0.362222
0.358359
0.354698
0.351221
0.347915
0.344767
0.341767
0.338904
0.336173
0.333566
0.331076
0.3287
0.326431
0.324266
0.322201
0.320253
0.370634
0.366308
0.36223
0.358381
0.354744
0.351301
0.348038
0.344941
0.341998
0.3392
0.336538
0.334003
0.33159
0.329291
0.327102
0.325016
0.32303
0.32116
0.370633
0.366306
0.362229
0.358385
0.354755
0.351325
0.348078
0.345003
0.342087
0.339321
0.336694
0.334199
0.331827
0.329574
0.327431
0.325393
0.323456
0.321633
0.370632
0.366304
0.362227
0.358384
0.354757
0.351331
0.348091
0.345026
0.342124
0.339373
0.336766
0.334292
0.331946
0.329719
0.327604
0.325596
0.323689
0.321897
0.370631
0.366302
0.362225
0.358381
0.354754
0.35133
0.348094
0.345033
0.342137
0.339394
0.336797
0.334335
0.332002
0.329789
0.327691
0.325699
0.32381
0.322036
0.37063
0.3663
0.362222
0.358378
0.354752
0.351328
0.348093
0.345034
0.342141
0.339403
0.33681
0.334354
0.332027
0.329821
0.32773
0.325747
0.323867
0.322103
0.370629
0.366299
0.36222
0.358376
0.354749
0.351326
0.348092
0.345035
0.342144
0.339409
0.336819
0.334367
0.332043
0.329842
0.327756
0.325777
0.323901
0.322144
0.370629
0.366297
0.362218
0.358374
0.354748
0.351325
0.348093
0.345038
0.342149
0.339416
0.33683
0.334381
0.332062
0.329865
0.327783
0.325809
0.323939
0.322187
0.370628
0.366296
0.362217
0.358372
0.354747
0.351326
0.348095
0.345043
0.342157
0.339428
0.336846
0.334402
0.332088
0.329896
0.327819
0.325852
0.323989
0.322245
0.370627
0.366295
0.362215
0.358372
0.354748
0.351328
0.3481
0.345052
0.34217
0.339446
0.336869
0.334431
0.332123
0.329938
0.327869
0.325909
0.324055
0.322321
0.370627
0.366294
0.362216
0.358373
0.354751
0.351334
0.34811
0.345065
0.342188
0.339468
0.336897
0.334464
0.332163
0.329984
0.327922
0.32597
0.324123
0.322397
0.370627
0.366295
0.362217
0.358376
0.354756
0.351342
0.348121
0.345079
0.342206
0.33949
0.336923
0.334494
0.332197
0.330022
0.327964
0.326015
0.324173
0.32245
0.370627
0.366296
0.36222
0.358381
0.354763
0.351351
0.348131
0.34509
0.342217
0.339501
0.336933
0.334503
0.332203
0.330025
0.327964
0.326011
0.324164
0.322436
0.370628
0.366298
0.362222
0.358383
0.354762
0.351344
0.348115
0.345062
0.342173
0.339437
0.336846
0.334391
0.332063
0.329857
0.327765
0.32578
0.323901
0.322142
0.370628
0.366295
0.36221
0.358352
0.354701
0.351243
0.347964
0.344852
0.341896
0.339089
0.336422
0.333889
0.331483
0.329199
0.32703
0.324971
0.323019
0.32119
0.370621
0.366261
0.362123
0.35818
0.354414
0.350814
0.347376
0.344095
0.34097
0.337996
0.33517
0.332488
0.329945
0.327537
0.325258
0.323102
0.321065
0.319159
0.370574
0.366089
0.361758
0.357568
0.353516
0.349616
0.345884
0.342336
0.33898
0.33582
0.332855
0.330079
0.327483
0.325059
0.322793
0.320675
0.318695
0.31686
0.370374
0.365525
0.360703
0.355935
0.351323
0.346977
0.342961
0.339303
0.336009
0.33307
0.330466
0.328168
0.326147
0.324368
0.322799
0.321411
0.320175
0.319077
0.369692
0.364231
0.358424
0.352674
0.34755
0.343333
0.340094
0.337821
0.336465
0.335949
0.33618
0.337048
0.338445
0.340258
0.342386
0.344733
0.34722
0.349768
0.365849
0.354819
0.345597
0.34025
0.339215
0.342294
0.3491
0.359138
0.371843
0.386638
0.402964
0.420297
0.438167
0.456163
0.47394
0.491222
0.507824
0.523491
0.336639
0.30236
0.273997
0.250563
0.231384
0.215918
0.203719
0.1944
0.187607
0.183009
0.1803
0.17919
0.179411
0.180718
0.182888
0.185722
0.189049
0.192706
0.156322
0.225781
0.282607
0.33286
0.380357
0.429556
0.462503
0.479411
0.489629
0.494831
0.498192
0.5007
0.503035
0.505728
0.509158
0.513561
0.519025
0.525638
0.531874
0.535555
0.534958
0.527925
0.511629
0.482346
0.435211
0.365014
0.27271
0.180472
0.145516
0.142406
0.138135
0.147769
0.176539
0.212814
0.256526
0.291849
0.299835
0.28727
0.263019
0.236338
0.216673
0.204419
0.199077
0.198179
0.200426
0.211811
0.252803
0.365675
0.547167
0.702685
0.841404
0.961154
1.06194
1.14485
1.21146
1.26349
1.30266
1.33058
1.34871
1.35837
1.36071
1.35675
1.34737
1.33335
1.31536
1.29397
1.26969
1.24293
1.21501
1.18641
1.15719
1.12746
1.09731
1.06685
1.03615
1.00526
0.974201
0.942935
0.911363
0.879316
0.846559
0.812806
0.777746
0.741098
0.702669
0.662415
0.620488
0.577252
0.533256
0.489175
0.445725
0.403601
0.363584
0.327078
0.298051
0.285852
0.279345
0.274378
0.270459
0.267467
0.26533
0.263983
0.263356
0.26338
0.263983
0.265091
0.266632
0.268531
0.270718
0.273121
0.275673
0.278308
0.280967
0.283592
0.28613
0.288536
0.290768
0.292791
0.29458
0.296105
0.29721
0.297869
0.298065
0.297787
0.297028
0.295784
0.294053
0.291837
0.289144
0.285992
0.282414
0.278458
0.274191
0.26969
0.265047
0.260354
0.255699
0.251165
0.246816
0.242705
0.238864
0.235311
0.232052
0.229082
0.226387
0.223951
0.221754
0.219777
0.217999
0.2164
0.214963
0.21367
0.212504
0.211451
0.210497
0.209629
0.208834
0.208102
0.207422
0.206783
0.206177
0.205594
0.205022
0.204452
0.203871
0.203264
0.202614
0.201901
0.201098
0.200172
0.199082
0.197775
0.196186
0.188276
0.170479
0.154794
0.140729
0.128141
0.116931
0.107143
0.123072
0.190833
0.256412
0.357533
0.576484
0.671791
0.702515
0.70446
0.693691
0.674702
0.649641
0.621046
0.591326
0.56226
0.534995
0.510271
0.48854
0.470319
0.456347
0.445673
0.43878
0.435892
0.436863
0.440999
0.446828
0.452296
0.456629
0.455413
0.430497
0.373521
0.303934
0.258659
0.255245
0.30302
0.382022
0.452479
0.481264
0.462684
0.419647
0.385739
0.399594
0.47468
0.59893
0.717239
0.755603
0.74627
0.73654
0.736067
0.738739
0.735713
0.728683
0.719013
0.708133
0.69722
0.687154
0.678537
0.671737
0.666945
0.664221
0.66354
0.664829
0.668004
0.67299
0.679743
0.688268
0.698615
0.710869
0.725019
0.740104
0.755829
0.772326
0.789721
0.808131
0.827641
0.848295
0.870062
0.892808
0.916247
0.939895
0.963022
0.984617
1.0034
1.01787
1.02646
1.02772
1.02052
1.00431
0.979192
0.945931
0.905837
0.860537
0.811703
0.7608
0.708872
0.656823
0.613374
0.574989
0.539816
0.507625
0.478226
0.451411
0.426967
0.404682
0.38435
0.365774
0.348773
0.33318
0.318845
0.305632
0.293417
0.282092
0.271559
0.261731
0.252532
0.243893
0.235753
0.228058
0.220763
0.213826
0.207215
0.200948
0.194945
0.189162
0.183605
0.178244
0.173059
0.168037
0.163168
0.158449
0.153876
0.149452
0.145178
0.141059
0.137098
0.133299
0.129664
0.126194
0.122888
0.11974
0.116745
0.113894
0.111177
0.108583
0.106101
0.103723
0.10144
0.0992461
0.0971382
0.0951144
0.0931751
0.0913223
0.0895592
0.0878897
0.0863179
0.084848
0.0834833
0.0822264
0.081079
0.0800415
0.0791132
0.0782922
0.077576
0.0769611
0.0764438
0.0760204
0.0756874
0.0754421
0.0752829
0.0752101
0.0752264
0.0753367
0.0755466
0.0758357
0.0763186
0.0803469
0.0845537
0.0895059
0.0957212
0.10348
0.115779
0.102922
0.179458
0.334306
0.636061
0.782342
0.766247
0.699335
0.634019
0.581883
0.541264
0.508681
0.481565
0.458342
0.438088
0.420239
0.404443
0.390457
0.378176
0.367911
0.360651
0.356144
0.354323
0.355215
0.358893
0.36549
0.375405
0.389608
0.407142
0.419342
0.412792
0.383328
0.345453
0.325682
0.359093
0.451644
0.551044
0.613006
0.623739
0.641239
0.718032
0.815308
0.860417
0.835187
0.783822
0.7304
0.686765
0.657017
0.639145
0.629353
0.625283
0.626517
0.632541
0.642558
0.655443
0.669885
0.684611
0.698593
0.711179
0.722097
0.731383
0.739274
0.746095
0.752189
0.75787
0.763403
0.769002
0.774833
0.780701
0.786771
0.79334
0.800724
0.809272
0.819337
0.831263
0.845367
0.861902
0.881018
0.902698
0.926682
0.952388
0.978837
1.00462
1.02792
1.04669
1.05882
1.0625
1.0565
1.04039
1.0146
0.980285
0.939102
0.892866
0.843204
0.791195
0.739115
0.694674
0.653861
0.61606
0.5812
0.549153
0.519749
0.492797
0.468096
0.445448
0.424663
0.405561
0.387978
0.371761
0.356774
0.34289
0.329997
0.317993
0.306787
0.296297
0.286447
0.277172
0.26841
0.260108
0.252216
0.244691
0.237487
0.230562
0.223866
0.217334
0.210957
0.204735
0.198649
0.192679
0.186813
0.181043
0.175364
0.169777
0.164286
0.158897
0.153617
0.148455
0.143416
0.138506
0.133729
0.129086
0.124577
0.120202
0.115958
0.111842
0.107853
0.103988
0.100246
0.0966274
0.0931318
0.0897609
0.0865165
0.0834013
0.0804183
0.0775705
0.0748609
0.0722922
0.0698666
0.0675853
0.0654491
0.0634574
0.061609
0.0599015
0.0583316
0.0568952
0.0555874
0.0544028
0.0533353
0.0523787
0.0515267
0.0507731
0.0501118
0.0495371
0.049046
0.0486499
0.0485104
0.0486557
0.0492047
0.050356
0.0524488
0.0563226
0.153554
0.378774
0.79246
0.907589
0.825023
0.706936
0.611848
0.545467
0.49964
0.466492
0.440943
0.420084
0.402326
0.386816
0.373085
0.360852
0.349943
0.34026
0.331813
0.325009
0.319778
0.316192
0.314394
0.314601
0.317035
0.322096
0.330939
0.344917
0.362478
0.377487
0.384528
0.390928
0.422508
0.503356
0.647581
0.8033
0.922336
1.00335
0.975604
0.916371
0.859521
0.792459
0.724608
0.66992
0.633295
0.614422
0.610957
0.619706
0.637616
0.662258
0.691541
0.72333
0.75554
0.786326
0.814284
0.838545
0.858733
0.87483
0.887012
0.895532
0.900653
0.902624
0.90169
0.898109
0.892173
0.884233
0.874712
0.863838
0.852176
0.840262
0.828662
0.817994
0.808918
0.802121
0.798294
0.798093
0.802095
0.810719
0.824138
0.842169
0.864154
0.888871
0.91451
0.938763
0.959051
0.972876
0.978222
0.973884
0.95964
0.93619
0.904919
0.867533
0.825649
0.780184
0.736515
0.697084
0.660028
0.625366
0.59315
0.563335
0.535812
0.510442
0.487068
0.465534
0.445681
0.427361
0.410435
0.394774
0.380258
0.366779
0.354236
0.34254
0.331606
0.32136
0.311731
0.302657
0.294079
0.285946
0.278208
0.270822
0.263745
0.256942
0.250374
0.244005
0.237792
0.231698
0.225724
0.219848
0.214055
0.208331
0.202666
0.197055
0.191495
0.185989
0.18054
0.175153
0.169836
0.164594
0.159434
0.154362
0.149381
0.144495
0.139708
0.135022
0.13044
0.125965
0.121598
0.117343
0.113203
0.109181
0.105281
0.101508
0.0978664
0.0943602
0.0909943
0.0877732
0.084701
0.081781
0.079016
0.0764077
0.0739568
0.0716628
0.0695241
0.0675379
0.0657004
0.0640063
0.0624498
0.0610238
0.0597204
0.058531
0.0574463
0.0564564
0.0555511
0.0547186
0.0539528
0.0532519
0.0526189
0.0520835
0.0516862
0.0516748
0.312849
0.798649
0.903524
0.787621
0.663116
0.576736
0.521854
0.484964
0.457076
0.433709
0.412969
0.394203
0.37726
0.36211
0.348678
0.336839
0.326475
0.317513
0.309908
0.303525
0.298295
0.294222
0.291309
0.289643
0.289493
0.291331
0.296121
0.305928
0.323352
0.34979
0.387943
0.454019
0.578809
0.767814
0.98933
1.2456
1.26845
1.06604
0.916582
0.810286
0.730372
0.669927
0.629495
0.609789
0.608919
0.623609
0.650183
0.685071
0.725174
0.767963
0.811334
0.853517
0.893108
0.929114
0.960925
0.988214
1.01083
1.02871
1.04185
1.05029
1.05407
1.05329
1.04805
1.03853
1.0249
1.00744
0.986439
0.96291
0.937316
0.910131
0.881959
0.853549
0.825787
0.799678
0.77631
0.756797
0.742218
0.733525
0.731439
0.736317
0.748009
0.765719
0.787921
0.812378
0.836309
0.856725
0.870875
0.8767
0.87316
0.860295
0.83906
0.810946
0.777491
0.740485
0.705714
0.672322
0.640364
0.610128
0.581756
0.555279
0.530656
0.507805
0.486624
0.467001
0.448821
0.431972
0.416348
0.401846
0.388371
0.375835
0.364152
0.353247
0.343045
0.333481
0.324492
0.316018
0.308007
0.300408
0.293175
0.286263
0.279634
0.27325
0.267077
0.261082
0.255234
0.249497
0.243843
0.238262
0.232736
0.227251
0.221795
0.216359
0.21094
0.205535
0.200145
0.194773
0.189424
0.184106
0.178825
0.173589
0.168406
0.163283
0.158227
0.153245
0.148344
0.143531
0.138812
0.134193
0.12968
0.125279
0.120996
0.116838
0.112811
0.108921
0.105174
0.101577
0.0981335
0.09485
0.09173
0.0887766
0.0859914
0.083375
0.0809267
0.0786443
0.0765244
0.0745624
0.0727523
0.0710872
0.069559
0.0681586
0.066876
0.0657004
0.0646199
0.0636205
0.0626874
0.0618052
0.0609549
0.0601215
0.0592769
0.0584634
0.426592
0.834967
0.732674
0.61852
0.553881
0.518307
0.492651
0.468375
0.443569
0.418886
0.395407
0.373967
0.355011
0.338594
0.324502
0.312453
0.30224
0.293758
0.286932
0.281614
0.277734
0.275071
0.273332
0.272222
0.27164
0.27206
0.274861
0.282954
0.301956
0.341093
0.417594
0.564535
0.805585
1.11034
1.42322
1.39558
1.12559
0.909347
0.772543
0.686971
0.63534
0.609428
0.605097
0.618718
0.646146
0.68318
0.726096
0.771879
0.818204
0.863278
0.905713
0.944465
0.978823
1.00838
1.03297
1.05267
1.0677
1.0784
1.08518
1.08844
1.08852
1.08563
1.07988
1.07123
1.05955
1.04462
1.02638
1.00503
0.980482
0.952774
0.922176
0.889204
0.854637
0.819514
0.785098
0.752825
0.724221
0.700791
0.68388
0.67452
0.67325
0.679949
0.69371
0.712793
0.734712
0.756461
0.774896
0.787241
0.791597
0.787183
0.774359
0.754215
0.7281
0.700131
0.672071
0.644164
0.616979
0.590896
0.566122
0.542751
0.520798
0.50024
0.481024
0.463086
0.446357
0.430763
0.416233
0.402696
0.390082
0.378325
0.36736
0.357123
0.347554
0.338594
0.330189
0.322283
0.314826
0.307769
0.301066
0.294673
0.288551
0.282659
0.276963
0.271429
0.266026
0.260724
0.255487
0.250299
0.24514
0.239996
0.234851
0.229696
0.224525
0.219332
0.214117
0.208882
0.20363
0.198368
0.193103
0.187844
0.182601
0.177383
0.172202
0.167066
0.161987
0.156974
0.152037
0.147186
0.14243
0.137777
0.133236
0.128816
0.124523
0.120367
0.116354
0.112492
0.108788
0.105248
0.101878
0.0986818
0.0956621
0.0928205
0.0901571
0.0876703
0.0853575
0.0832141
0.0812346
0.0794122
0.0777387
0.0762051
0.0748011
0.0735157
0.0723368
0.0712506
0.0702424
0.0692961
0.0683923
0.0675114
0.0666244
0.0657306
0.524691
0.697363
0.596549
0.552371
0.535697
0.518853
0.494202
0.46399
0.43228
0.401876
0.374428
0.350743
0.330823
0.31415
0.300142
0.288391
0.278661
0.270821
0.26482
0.260888
0.258932
0.258472
0.258946
0.259725
0.260219
0.260536
0.262557
0.270946
0.295569
0.35606
0.487751
0.72471
1.03186
1.35813
1.42896
1.17396
0.91972
0.756268
0.663652
0.616567
0.600311
0.606462
0.629169
0.663399
0.704704
0.749466
0.794936
0.839069
0.880341
0.91764
0.950212
0.977643
0.999841
1.01701
1.02958
1.03818
1.04356
1.04646
1.0476
1.04756
1.04673
1.04532
1.04332
1.04053
1.03664
1.03116
1.02271
1.01045
0.993933
0.972939
0.947491
0.917887
0.884727
0.848909
0.811618
0.774284
0.738521
0.706032
0.678487
0.657359
0.643747
0.638194
0.640553
0.649926
0.664653
0.682352
0.700064
0.714643
0.723448
0.724818
0.71834
0.704544
0.685866
0.664864
0.642445
0.619506
0.596694
0.574421
0.552937
0.532375
0.5128
0.494233
0.47667
0.460093
0.444475
0.429785
0.415989
0.403049
0.390928
0.379584
0.368975
0.359058
0.349787
0.341116
0.333
0.32539
0.318241
0.311507
0.305143
0.299104
0.293349
0.287837
0.28253
0.277391
0.272386
0.267483
0.262649
0.257855
0.25308
0.248304
0.24351
0.238685
0.233819
0.228905
0.223938
0.21892
0.213851
0.208736
0.203583
0.1984
0.193198
0.187988
0.182782
0.177593
0.172435
0.167319
0.16226
0.157269
0.152359
0.14754
0.142825
0.138224
0.133746
0.129401
0.125197
0.121143
0.117248
0.113519
0.109963
0.106586
0.103392
0.100382
0.0975581
0.0949191
0.0924629
0.0901855
0.0880817
0.0861449
0.0843671
0.0827393
0.0812512
0.0798919
0.0786492
0.0775099
0.0764599
0.0754839
0.0745651
0.0736854
0.0728229
0.071972
0.627392
0.604683
0.5628
0.564698
0.557447
0.531329
0.494068
0.454022
0.415679
0.381413
0.352571
0.329178
0.310182
0.294445
0.281287
0.270359
0.261424
0.254293
0.248972
0.246176
0.245645
0.246848
0.24911
0.251573
0.253381
0.254627
0.258047
0.270857
0.309194
0.406054
0.6052
0.89142
1.19967
1.34934
1.19005
0.938634
0.756089
0.653506
0.606174
0.594496
0.606417
0.633963
0.671214
0.713594
0.757691
0.801069
0.842024
0.879399
0.912481
0.940942
0.964773
0.984216
0.999707
1.01183
1.0213
1.02889
1.03542
1.04161
1.04802
1.05502
1.06269
1.07087
1.07919
1.08707
1.09387
1.09776
1.09688
1.09045
1.07789
1.05884
1.03324
1.0014
0.964027
0.922255
0.877621
0.831951
0.787204
0.745294
0.707915
0.676392
0.651648
0.63418
0.624095
0.621199
0.62492
0.634071
0.646518
0.659207
0.668952
0.673298
0.670968
0.662611
0.650006
0.634433
0.617019
0.59864
0.579912
0.561244
0.542893
0.525014
0.507701
0.491008
0.474972
0.459612
0.444944
0.430973
0.417704
0.405135
0.393257
0.382059
0.371525
0.361633
0.352357
0.343668
0.335533
0.327917
0.32078
0.314085
0.307789
0.301852
0.296231
0.290887
0.285777
0.280865
0.276111
0.271481
0.26694
0.262454
0.257995
0.25354
0.249066
0.244555
0.239994
0.23537
0.230677
0.225909
0.221067
0.216153
0.211172
0.20613
0.201039
0.195909
0.190754
0.185587
0.180425
0.17528
0.17017
0.165109
0.160112
0.155193
0.150366
0.145644
0.141038
0.13656
0.13222
0.128029
0.123994
0.120125
0.11643
0.112917
0.10959
0.106452
0.103505
0.100749
0.0981833
0.0958035
0.0936053
0.0915821
0.0897264
0.0880293
0.0864806
0.0850694
0.0837837
0.0826109
0.0815374
0.080549
0.0796307
0.078767
0.0779409
0.0771482
0.733297
0.580333
0.590919
0.601837
0.580006
0.537281
0.488418
0.441214
0.398998
0.363819
0.336389
0.31531
0.298335
0.283999
0.271729
0.261318
0.252747
0.245988
0.241077
0.23861
0.238404
0.240102
0.243145
0.246861
0.250808
0.255763
0.265636
0.292338
0.361785
0.508113
0.742198
1.00682
1.19372
1.14722
0.948329
0.76413
0.651771
0.60021
0.588899
0.602908
0.632396
0.670619
0.712883
0.755994
0.797866
0.837207
0.873311
0.905908
0.935033
0.960879
0.98371
1.00384
1.02169
1.03785
1.05304
1.06811
1.08384
1.10084
1.11944
1.13963
1.16106
1.18308
1.20478
1.22512
1.24291
1.25492
1.26052
1.25883
1.24904
1.23054
1.20291
1.16609
1.12049
1.0672
1.00812
0.945907
0.883733
0.824845
0.771969
0.726678
0.689378
0.659621
0.63667
0.620273
0.610697
0.608178
0.611863
0.619261
0.626837
0.631581
0.63162
0.627184
0.618949
0.607857
0.594817
0.580566
0.565636
0.550387
0.535055
0.519792
0.504703
0.489864
0.475339
0.461181
0.447438
0.434153
0.421362
0.409095
0.397375
0.386217
0.375631
0.365618
0.356172
0.347283
0.338932
0.331098
0.323754
0.31687
0.310413
0.304347
0.298635
0.293238
0.288118
0.283233
0.278547
0.274021
0.269618
0.265302
0.26104
0.256803
0.252564
0.2483
0.243991
0.239621
0.235177
0.230652
0.226041
0.221341
0.216555
0.211687
0.206747
0.201743
0.196688
0.191596
0.186483
0.181366
0.17626
0.171184
0.166153
0.161184
0.156294
0.151496
0.146806
0.142238
0.137803
0.133513
0.129378
0.125407
0.121609
0.117993
0.114564
0.111327
0.108285
0.105438
0.102786
0.100327
0.0980548
0.0959649
0.0940494
0.0922999
0.0907063
0.0892578
0.0879429
0.086749
0.0856633
0.0846725
0.0837629
0.0829209
0.0821331
0.081396
0.80015
0.611146
0.640828
0.638265
0.597932
0.54128
0.483515
0.431461
0.387775
0.35405
0.329777
0.31176
0.296669
0.282898
0.270142
0.25866
0.249163
0.242201
0.237871
0.235937
0.236066
0.238456
0.243231
0.25026
0.259733
0.273397
0.297363
0.348013
0.451049
0.621445
0.835308
1.01721
1.05139
0.930917
0.771496
0.655931
0.598338
0.584122
0.597344
0.626628
0.664475
0.706069
0.74843
0.789828
0.82937
0.866725
0.901889
0.934965
0.966002
0.994966
1.02186
1.04689
1.07061
1.09386
1.11765
1.14295
1.17045
1.20048
1.2329
1.26718
1.30239
1.33738
1.3708
1.40127
1.42644
1.44433
1.45455
1.45631
1.44886
1.43151
1.4036
1.36456
1.31408
1.25241
1.18083
1.10201
1.01992
0.939499
0.865877
0.802239
0.74933
0.705839
0.669459
0.639101
0.615319
0.599628
0.592528
0.592401
0.59551
0.598528
0.599354
0.597171
0.592053
0.584518
0.575181
0.564579
0.55311
0.541051
0.528586
0.515843
0.502922
0.489911
0.47689
0.463939
0.451134
0.438549
0.42625
0.414295
0.402736
0.391613
0.380958
0.370793
0.361132
0.35198
0.343335
0.335189
0.327528
0.320331
0.313576
0.307233
0.301272
0.29566
0.290361
0.285338
0.280555
0.275973
0.271555
0.267263
0.263064
0.258922
0.254807
0.250693
0.246553
0.242367
0.238119
0.233793
0.229382
0.224879
0.220282
0.215591
0.210813
0.205955
0.201027
0.196041
0.191014
0.185962
0.180901
0.175849
0.170826
0.165848
0.160934
0.1561
0.151362
0.146737
0.142239
0.13788
0.133673
0.129627
0.125753
0.122059
0.118552
0.115239
0.112122
0.109203
0.106483
0.103959
0.101628
0.0994853
0.0975227
0.0957323
0.0941043
0.0926283
0.0912928
0.0900858
0.0889947
0.0880069
0.08711
0.0862916
0.0855403
0.0848531
0.815451
0.650467
0.690341
0.673037
0.61738
0.548769
0.483503
0.428212
0.384739
0.353527
0.332545
0.316969
0.302782
0.288392
0.273974
0.260582
0.249735
0.242694
0.240022
0.23998
0.242218
0.247273
0.255566
0.267318
0.283353
0.307402
0.349315
0.424825
0.546091
0.705802
0.860852
0.931403
0.881925
0.76756
0.662399
0.601051
0.582158
0.592388
0.619697
0.655932
0.696156
0.737614
0.778921
0.819525
0.859316
0.898319
0.936442
0.973362
1.00863
1.04196
1.07345
1.10373
1.13388
1.16516
1.1987
1.23531
1.27529
1.3184
1.36392
1.41071
1.45737
1.50229
1.54384
1.58049
1.60882
1.62883
1.63994
1.64158
1.63333
1.61483
1.58568
1.54529
1.49283
1.42754
1.34945
1.26035
1.16372
1.06492
0.971706
0.889611
0.820397
0.762703
0.712765
0.668666
0.631037
0.602335
0.584151
0.57536
0.572789
0.572915
0.573095
0.571896
0.568853
0.56405
0.557779
0.55034
0.541968
0.532825
0.523025
0.512655
0.501799
0.490544
0.478982
0.467214
0.455339
0.443459
0.431665
0.420043
0.408669
0.397607
0.386907
0.376612
0.366751
0.357346
0.348407
0.339937
0.331934
0.324388
0.317283
0.310599
0.304313
0.298396
0.292821
0.287552
0.282558
0.277802
0.273249
0.268862
0.264606
0.260446
0.256349
0.252284
0.248222
0.24414
0.240015
0.235829
0.231569
0.227224
0.222787
0.218256
0.213631
0.208918
0.204123
0.199258
0.194335
0.18937
0.18438
0.179383
0.174397
0.169441
0.164534
0.159694
0.154939
0.150286
0.145751
0.141348
0.137092
0.132993
0.129063
0.125311
0.121744
0.11837
0.115194
0.112217
0.109442
0.106866
0.104487
0.102301
0.100299
0.0984758
0.0968204
0.0953229
0.0939721
0.0927562
0.0916633
0.0906811
0.0897979
0.0890024
0.0882843
0.0876404
0.799606
0.696528
0.740395
0.710811
0.64169
0.562282
0.490514
0.432937
0.39032
0.361166
0.341965
0.327756
0.314415
0.300224
0.285541
0.271839
0.26095
0.254373
0.252792
0.254389
0.259002
0.266899
0.278566
0.29507
0.319175
0.356623
0.415812
0.504078
0.619795
0.739812
0.815706
0.812282
0.746307
0.665208
0.60727
0.584495
0.590505
0.614451
0.647894
0.685787
0.725603
0.766324
0.807708
0.849788
0.892499
0.935436
0.97784
1.01884
1.05785
1.09487
1.13064
1.16639
1.20359
1.24359
1.28729
1.33502
1.38654
1.44102
1.49722
1.55355
1.60824
1.6594
1.70513
1.74347
1.77189
1.79054
1.79896
1.79676
1.78386
1.76046
1.72679
1.68291
1.6281
1.56098
1.4802
1.38678
1.28316
1.17314
1.06645
0.971093
0.888877
0.818915
0.75736
0.701079
0.650769
0.609968
0.581303
0.56429
0.555979
0.552731
0.551551
0.550564
0.548866
0.546157
0.542414
0.537697
0.53206
0.525541
0.518169
0.509983
0.501041
0.491425
0.481235
0.470585
0.459598
0.448397
0.437099
0.425813
0.414636
0.403654
0.392938
0.382544
0.372517
0.362892
0.353691
0.344926
0.336604
0.328723
0.321275
0.314246
0.307619
0.301374
0.295484
0.289922
0.284659
0.279663
0.274902
0.27034
0.265944
0.26168
0.257514
0.253414
0.24935
0.245295
0.241223
0.237114
0.23295
0.228715
0.2244
0.219997
0.215504
0.210921
0.206253
0.201507
0.196695
0.191829
0.186925
0.182
0.177073
0.172162
0.167286
0.162465
0.157717
0.153059
0.14851
0.144085
0.1398
0.135667
0.131698
0.127903
0.124291
0.120871
0.117647
0.114624
0.111803
0.109184
0.106765
0.104541
0.102508
0.100656
0.0989771
0.0974616
0.0960983
0.0948757
0.0937821
0.0928057
0.0919354
0.0911603
0.0904709
0.0898634
0.768836
0.747258
0.79432
0.755397
0.674233
0.584524
0.505939
0.444992
0.40138
0.372311
0.353736
0.34091
0.329767
0.318173
0.305989
0.294333
0.284829
0.279004
0.277607
0.27993
0.286149
0.296655
0.312426
0.335362
0.368611
0.41639
0.482467
0.565983
0.654038
0.719616
0.738549
0.710829
0.659691
0.613889
0.591149
0.593293
0.613151
0.642905
0.677522
0.714686
0.753759
0.794856
0.838192
0.883654
0.930573
0.977784
1.02397
1.06818
1.11017
1.15058
1.19074
1.23226
1.27667
1.32506
1.37793
1.43511
1.49582
1.55879
1.62235
1.68461
1.74352
1.79704
1.84317
1.87919
1.90447
1.9189
1.92204
1.91353
1.89344
1.8623
1.82101
1.77078
1.71163
1.64213
1.55936
1.46451
1.3599
1.24895
1.13852
1.03562
0.944604
0.865267
0.793758
0.726962
0.666164
0.61571
0.578805
0.555258
0.54221
0.535971
0.533387
0.532326
0.531581
0.530548
0.528931
0.526563
0.523328
0.519137
0.513936
0.507713
0.5005
0.49237
0.483427
0.4738
0.463627
0.453053
0.442216
0.431247
0.420263
0.409368
0.39865
0.388181
0.37802
0.368209
0.358784
0.349763
0.341162
0.332983
0.325225
0.31788
0.310935
0.304374
0.298176
0.292318
0.286773
0.281515
0.276514
0.271739
0.267157
0.262737
0.258445
0.254251
0.250125
0.246037
0.241962
0.237875
0.233755
0.229585
0.225351
0.221043
0.216654
0.21218
0.207624
0.20299
0.198285
0.19352
0.18871
0.183868
0.179013
0.174163
0.169337
0.164554
0.159833
0.155192
0.150649
0.146221
0.141925
0.137774
0.133781
0.129958
0.126315
0.122859
0.119599
0.116539
0.113681
0.111026
0.108572
0.106317
0.104255
0.102378
0.100679
0.0991469
0.0977722
0.0965432
0.0954486
0.0944769
0.0936171
0.0928589
0.0921931
0.0916152
0.735314
0.800768
0.854012
0.807601
0.715828
0.616396
0.530403
0.464416
0.41753
0.386273
0.366532
0.354117
0.345348
0.337754
0.330332
0.323276
0.317485
0.314116
0.313494
0.316972
0.325005
0.338281
0.357942
0.385684
0.423598
0.473253
0.533308
0.596099
0.64741
0.673486
0.670294
0.646359
0.618049
0.600748
0.601273
0.617339
0.643077
0.673848
0.707534
0.743857
0.78334
0.826497
0.873328
0.923071
0.974279
1.02521
1.07439
1.12114
1.16577
1.20943
1.2538
1.30059
1.35117
1.40632
1.46613
1.53
1.59672
1.66464
1.73178
1.79601
1.85507
1.9067
1.94888
1.97932
1.9986
2.00649
2.00266
1.98672
1.95863
1.91897
1.86862
1.81044
1.74549
1.67297
1.59117
1.49893
1.39654
1.28711
1.17668
1.07212
0.977893
0.893585
0.815279
0.740653
0.672282
0.615334
0.573157
0.545441
0.529274
0.520993
0.517444
0.516413
0.516521
0.516948
0.517181
0.516863
0.515726
0.513572
0.510273
0.505771
0.500077
0.493254
0.485412
0.476688
0.467237
0.457219
0.446792
0.436107
0.425297
0.414483
0.403768
0.393239
0.382963
0.372997
0.36338
0.354142
0.345301
0.336867
0.328841
0.321221
0.313996
0.307153
0.300676
0.294544
0.288735
0.283223
0.277984
0.272988
0.268206
0.263608
0.259164
0.254844
0.250618
0.246459
0.242339
0.238233
0.234119
0.229976
0.225789
0.221545
0.217233
0.212847
0.208386
0.20385
0.199246
0.19458
0.189864
0.185112
0.180338
0.175562
0.170799
0.16607
0.161392
0.156785
0.152267
0.147854
0.143564
0.139411
0.13541
0.131572
0.12791
0.124431
0.121144
0.118055
0.115168
0.112483
0.110001
0.107718
0.10563
0.103731
0.102013
0.100466
0.0990801
0.0978443
0.0967473
0.0957781
0.0949259
0.0941805
0.093533
0.0929781
0.700291
0.854339
0.91643
0.865813
0.766724
0.659774
0.566761
0.494476
0.442104
0.406177
0.382788
0.36831
0.359651
0.354451
0.351204
0.349219
0.348451
0.349302
0.352118
0.358333
0.368813
0.384464
0.406321
0.435374
0.471957
0.514587
0.558834
0.597669
0.624078
0.634465
0.630702
0.619996
0.612074
0.614231
0.627906
0.650034
0.676981
0.706906
0.739802
0.776605
0.81827
0.864985
0.916149
0.970284
1.02535
1.07936
1.13096
1.17982
1.22667
1.27298
1.32054
1.37103
1.42561
1.48479
1.54832
1.61527
1.6841
1.75286
1.81936
1.8813
1.93632
1.98204
2.01632
2.03867
2.04942
2.04885
2.03684
2.01302
1.97733
1.93045
1.87393
1.81006
1.74039
1.66511
1.583
1.49245
1.3931
1.28741
1.18075
1.07933
0.986576
0.901017
0.818816
0.739263
0.666673
0.606777
0.562551
0.533243
0.515812
0.506705
0.50291
0.502261
0.503321
0.505135
0.507034
0.508516
0.509195
0.508789
0.507113
0.504077
0.499675
0.493966
0.487062
0.47911
0.470277
0.460737
0.450663
0.440221
0.42956
0.418816
0.408103
0.39752
0.387147
0.377046
0.367267
0.357844
0.3488
0.34015
0.331898
0.324044
0.316582
0.309499
0.302781
0.296411
0.290368
0.28463
0.279172
0.27397
0.268995
0.264221
0.25962
0.255164
0.250824
0.246574
0.242387
0.238238
0.234104
0.229963
0.225798
0.221593
0.217337
0.21302
0.208638
0.20419
0.199677
0.195106
0.190484
0.185823
0.181138
0.176442
0.171755
0.167092
0.162473
0.157916
0.153438
0.149057
0.144789
0.140651
0.136657
0.132819
0.129149
0.125659
0.122356
0.119248
0.116338
0.11363
0.111125
0.108819
0.106709
0.10479
0.103054
0.101492
0.100095
0.0988515
0.0977506
0.0967815
0.0959336
0.0951969
0.0945625
0.0940244
0.66616
0.903774
0.976614
0.926461
0.825762
0.716072
0.618701
0.540644
0.481836
0.439542
0.410438
0.391436
0.379962
0.373996
0.372039
0.373048
0.376374
0.381715
0.38895
0.398826
0.412093
0.429456
0.451407
0.477909
0.507979
0.539433
0.56913
0.593786
0.611043
0.620469
0.624262
0.627012
0.633753
0.6472
0.66678
0.690422
0.716851
0.746269
0.779802
0.818979
0.865121
0.916606
0.972202
1.0302
1.08837
1.14476
1.19822
1.24868
1.29704
1.34487
1.39391
1.44567
1.50114
1.56061
1.6236
1.68897
1.755
1.8196
1.88048
1.93533
1.98189
2.01816
2.04229
2.05468
2.05599
2.04667
2.02669
1.99585
1.95412
1.90205
1.84108
1.77331
1.70055
1.62344
1.54119