/*--------------------------------*- C++ -*----------------------------------*\
  =========                 |
  \\      /  F ield         | OpenFOAM: The Open Source CFD Toolbox
   \\    /   O peration     | Website:  https://openfoam.org
    \\  /    A nd           | Version:  9
     \\/     M anipulation  |
\*---------------------------------------------------------------------------*/
FoamFile
{
    format      ascii;
    class       volScalarField;
    location    "0.005";
    object      nut;
}
// * * * * * * * * * * * * * * * * * * * * * * * * * * * * * * * * * * * * * //

dimensions      [0 2 -1 0 0 0 0];

internalField   nonuniform List<scalar> 
12225
(
0
0
0
0
0
0
0
0
0
0
0
0
0
0
0
0
0
7.78097e-10
0
0
0
0
0
0
0
0
0
0
0
0
0
0
0
0
0
8.48866e-11
0
0
0
0
0
0
0
0
0
0
0
0
0
0
0
0
0
0
2.17659e-07
1.08987e-08
0
0
0
0
0
1.26529e-09
6.4439e-10
0
0
0
0
0
0
0
0
0
0
0
0
0
0
0
0
0
0
0
0
0
0
0
0
1.96152e-09
1.13905e-08
2.17695e-08
0
0
0
0
0
0
0
0
0
0
0
0
0
0
0
0
0
0
0
0
0
0
0
0
0
0
0
0
0
0
0
0
0
0
0
0
0
0
0
0
0
0
0
0
0
0
0
0
0
0
0
0
0
0
0
0
0
0
0
0
0
0
0
0
0
0
0
0
0
0
0
0
0
0
0
0
0
4.90771e-07
6.6217e-07
1.18151e-07
0
0
5.02768e-08
1.04218e-07
3.01161e-08
0
0
0
0
0
0
0
0
0
0
6.42952e-07
2.09096e-06
2.20491e-06
2.84399e-07
2.17062e-08
2.09784e-07
1.70645e-07
0
0
0
0
0
0
1.64206e-07
0
0
0
0
0
0
1.9769e-07
8.63938e-07
7.63594e-07
1.28139e-07
0
0
0
0
0
0
0
6.72413e-07
1.35759e-07
1.45404e-07
2.71084e-07
6.43476e-08
0
0
0
0
0
0
0
0
0
0
0
0
0
1.09686e-06
7.62647e-07
6.7987e-07
6.61802e-07
8.27207e-08
0
0
0
0
0
0
0
0
0
0
0
0
0
9.49344e-07
5.40664e-07
3.03969e-07
6.58903e-08
0
0
0
0
0
1.5275e-07
9.4032e-08
0
0
0
0
0
0
0
2.07218e-07
2.99722e-07
1.06361e-09
0
0
0
0
0
4.24227e-07
4.59248e-07
6.33163e-09
0
0
0
0
0
0
1.60654e-08
0
0
0
0
0
0
0
6.07412e-07
9.95751e-07
5.57465e-07
0
0
0
2.93102e-07
4.04647e-07
2.59935e-07
1.19416e-07
1.15807e-07
0
0
0
0
0
0
0
1.01104e-08
0
0
0
0
0
0
0
0
0
0
1.18857e-06
3.87908e-06
4.40694e-06
2.09352e-06
0
0
0
0
0
0
0
0
0
0
0
0
0
0
0
3.14102e-07
5.75682e-07
2.81564e-07
0
0
9.27927e-08
2.56373e-07
2.43541e-07
7.57289e-08
0
0
0
0
0
0
0
0
0
0
1.68096e-07
3.81992e-07
6.2095e-07
0
0
0
0
0
0
9.42861e-07
1.37508e-06
1.22147e-06
8.87311e-07
3.73311e-07
0
0
0
5.57712e-07
1.65796e-06
1.2656e-06
4.14359e-07
0
0
0
0
0
0
0
8.09751e-07
7.83433e-07
5.20703e-07
3.22216e-07
1.53598e-07
0
8.75468e-08
2.39909e-07
3.77811e-07
1.583e-06
2.72512e-07
0
0
0
0
0
0
0
0
7.98365e-08
7.94392e-08
3.96537e-08
4.31499e-08
3.24063e-08
6.02771e-07
0
0
0
0
4.95624e-07
1.18946e-06
1.50236e-06
0
0
0
0
0
0
0
0
2.21776e-07
2.55025e-07
5.45965e-07
0
0
0
0
6.55795e-07
1.55528e-06
1.39607e-06
8.97062e-07
0
0
0
0
0
0
0
1.50095e-08
5.12034e-07
4.1982e-07
0
0
0
0
0
6.36486e-07
1.73726e-06
1.36458e-06
6.56701e-07
3.03109e-07
2.63978e-08
0
0
0
0
0
0
0
0
0
2.51206e-09
0
0
0
0
4.11642e-09
1.26638e-08
1.37119e-08
8.23847e-09
2.71002e-10
0
0
0
0
0
0
0
0
0
0
0
0
0
0
0
0
0
0
0
0
0
0
0
0
0
0
0
0
0
0
0
0
0
0
0
0
0
0
0
0
0
0
0
0
0
0
0
0
0
0
0
0
0
0
0
0
0
0
0
0
0
5.35708e-09
2.60398e-08
4.73535e-08
6.29425e-08
7.08416e-08
7.15575e-08
6.79236e-08
6.10409e-08
5.21789e-08
4.26969e-08
3.32182e-08
2.43705e-08
1.67936e-08
1.07213e-08
6.20577e-09
3.24759e-09
1.49203e-09
4.74692e-10
0
0
0
0
0
0
0
0
0
0
0
0
0
0
0
0
0
3.11725e-09
0
0
0
0
0
0
0
0
0
0
0
0
0
0
0
0
0
0
0
0
0
0
0
0
0
0
0
0
0
0
0
0
0
0
0
0
0
0
0
0
0
0
0
0
0
0
0
0
0
0
0
0
0
0
0
0
0
0
0
0
0
0
0
0
0
0
0
0
0
0
0
0
0
0
0
0
0
0
0
0
0
0
0
0
0
0
0
0
0
0
0
0
0
0
0
0
0
0
0
0
0
0
0
0
0
0
0
0
0
0
0
0
0
0
0
0
0
0
0
0
0
0
0
0
0
0
0
0
0
0
0
0
0
0
0
1.29776e-12
0
1.40675e-11
0
0
0
0
0
0
0
0
0
3.27952e-09
1.74397e-08
2.61779e-08
2.83052e-08
2.64647e-08
2.31621e-08
1.96353e-08
1.65203e-08
1.39023e-08
1.17302e-08
9.96209e-09
8.24716e-09
6.44167e-09
4.37318e-09
1.88052e-09
0
0
0
0
0
0
0
0
0
0
0
0
0
0
1.69411e-08
5.84303e-08
7.75364e-08
7.22462e-08
5.05132e-08
2.24326e-08
0
0
0
0
0
0
0
0
0
0
0
0
0
0
0
0
0
0
0
0
0
0
0
0
0
0
0
0
0
0
0
0
0
0
0
0
0
0
0
0
0
0
0
0
0
0
0
0
0
0
0
0
0
0
0
0
0
0
0
0
0
0
0
0
0
0
0
0
0
0
0
0
0
0
0
0
0
0
0
0
0
0
0
0
0
0
0
0
0
0
0
0
0
0
0
0
0
0
0
0
0
0
0
0
0
0
0
0
0
0
0
0
0
0
0
0
0
0
0
0
0
0
0
0
0
0
0
0
0
0
0
0
0
1.35351e-13
0
1.68128e-12
0
0
0
0
0
0
0
0
0
0
0
0
0
0
0
0
0
0
0
0
0
0
0
0
0
0
0
0
0
9.37436e-09
3.50668e-08
6.70562e-08
1.01409e-07
1.33939e-07
1.61471e-07
1.83211e-07
1.98202e-07
2.06646e-07
2.09185e-07
2.06365e-07
1.98754e-07
1.86969e-07
1.71614e-07
1.53329e-07
1.32555e-07
1.09962e-07
8.63629e-08
6.28444e-08
4.06303e-08
2.10187e-08
4.90072e-09
0
0
0
0
0
0
0
0
0
0
0
0
0
0
0
0
0
0
0
0
0
0
0
0
0
0
0
0
0
0
0
0
0
0
0
0
0
0
0
0
0
0
0
0
0
0
0
0
0
0
0
0
0
0
0
0
0
0
0
0
0
0
0
0
0
0
0
0
0
0
0
0
0
0
0
0
0
0
0
0
0
0
0
0
0
0
0
0
0
0
0
0
0
0
0
0
0
0
0
0
0
0
0
0
0
0
0
0
0
0
0
0
0
0
0
0
0
0
0
0
0
0
0
0
0
0
0
0
7.26959e-14
0
0
0
0
0
0
0
0
0
0
0
0
0
0
0
0
0
0
0
0
0
0
0
0
0
2.52184e-08
7.10927e-08
1.17303e-07
1.60829e-07
1.99008e-07
2.30357e-07
2.54822e-07
2.72584e-07
2.84188e-07
2.90567e-07
2.91923e-07
2.89204e-07
2.83105e-07
2.7411e-07
2.62933e-07
2.50318e-07
2.36704e-07
2.22312e-07
2.07508e-07
1.92821e-07
1.78482e-07
1.64632e-07
1.51367e-07
1.38751e-07
1.26823e-07
1.15599e-07
1.05081e-07
9.52615e-08
8.61232e-08
7.76448e-08
6.97999e-08
6.25585e-08
5.58884e-08
4.97582e-08
4.41419e-08
3.90159e-08
3.43437e-08
3.00891e-08
2.62225e-08
2.27166e-08
1.95491e-08
1.66969e-08
1.41377e-08
1.18507e-08
9.8169e-09
8.01937e-09
6.44292e-09
5.07409e-09
3.90086e-09
2.91223e-09
2.09736e-09
1.44479e-09
9.41324e-10
5.71004e-10
3.15232e-10
1.52725e-10
6.1285e-11
1.96999e-11
9.39884e-12
1.57949e-11
2.86809e-11
4.18005e-11
5.19637e-11
5.80597e-11
6.01999e-11
5.90877e-11
5.5621e-11
5.06622e-11
4.49284e-11
3.89712e-11
3.31844e-11
2.78097e-11
2.29768e-11
1.87565e-11
1.51493e-11
1.21114e-11
9.60024e-12
7.56416e-12
5.91913e-12
4.59394e-12
3.55603e-12
2.75395e-12
2.11336e-12
1.60703e-12
1.2342e-12
9.59733e-13
7.48595e-13
5.80406e-13
4.4674e-13
3.40547e-13
2.56827e-13
1.91878e-13
1.42387e-13
1.05272e-13
7.77791e-14
5.75893e-14
4.28437e-14
3.21055e-14
2.42916e-14
1.85989e-14
1.44392e-14
1.13849e-14
9.12686e-15
7.44274e-15
6.17276e-15
5.20259e-15
4.45032e-15
3.85745e-15
3.38203e-15
2.99421e-15
2.67247e-15
2.40138e-15
2.16977e-15
1.96937e-15
1.79406e-15
1.63994e-15
1.5015e-15
1.38025e-15
1.2687e-15
1.1682e-15
1.07942e-15
9.99613e-16
9.26593e-16
8.59366e-16
7.97242e-16
7.39537e-16
6.85557e-16
6.34559e-16
5.85774e-16
5.3839e-16
4.91531e-16
4.44203e-16
3.95247e-16
3.43291e-16
2.86699e-16
2.23479e-16
1.51214e-16
6.68205e-17
0
0
0
0
0
0
0
0
0
0
0
0
0
0
0
0
0
0
0
0
0
0
0
0
0
0
0
0
0
0
0
0
0
0
0
0
0
0
0
0
0
0
1.976e-08
7.29173e-08
1.28699e-07
1.8306e-07
2.3199e-07
2.72647e-07
3.04107e-07
3.27219e-07
3.40847e-07
3.46599e-07
3.45597e-07
3.39036e-07
3.28159e-07
3.13983e-07
2.97594e-07
2.79923e-07
2.61644e-07
2.43191e-07
2.24985e-07
2.07319e-07
1.90386e-07
1.74311e-07
1.59169e-07
1.44993e-07
1.31786e-07
1.1953e-07
1.08197e-07
9.7746e-08
8.81307e-08
7.9306e-08
7.12244e-08
6.3837e-08
5.7096e-08
5.0952e-08
4.53519e-08
4.02545e-08
3.56383e-08
3.14738e-08
2.77258e-08
2.43675e-08
2.1359e-08
1.86669e-08
1.6263e-08
1.4122e-08
1.22205e-08
1.05368e-08
9.05059e-09
7.74298e-09
6.59643e-09
5.59469e-09
4.72271e-09
3.96665e-09
3.31377e-09
2.75242e-09
2.27193e-09
1.86264e-09
1.51575e-09
1.22335e-09
9.78289e-10
7.74193e-10
6.05365e-10
4.66748e-10
3.53869e-10
2.62794e-10
1.90078e-10
1.32734e-10
8.81666e-11
5.41248e-11
2.86502e-11
1.01107e-11
0
0
0
0
0
0
0
0
0
0
0
0
0
0
0
0
0
0
0
0
0
0
0
0
0
0
0
0
0
0
0
0
0
0
0
0
0
0
0
0
0
0
0
0
0
0
0
0
0
0
0
1.9979e-15
4.4949e-15
6.68957e-15
8.61828e-15
1.03142e-14
1.18096e-14
1.31329e-14
1.43103e-14
1.53649e-14
1.6321e-14
1.72041e-14
1.80439e-14
1.88749e-14
1.97418e-14
2.07043e-14
2.18496e-14
2.33104e-14
2.52966e-14
2.81473e-14
3.24833e-14
3.93796e-14
5.12342e-14
7.29832e-14
1.18821e-13
2.30095e-13
5.39841e-13
1.45833e-12
3.8441e-12
9.68403e-12
2.04194e-11
4.20259e-11
6.93222e-11
1.22222e-10
1.40883e-10
2.52574e-10
7.42683e-11
1.13268e-10
0
0
0
0
0
0
0
0
0
0
0
0
0
0
0
0
0
0
0
0
0
0
1.22037e-08
8.38196e-08
1.59652e-07
2.34231e-07
3.00993e-07
3.56451e-07
3.99849e-07
4.28045e-07
4.43327e-07
4.4675e-07
4.40584e-07
4.26814e-07
4.07527e-07
3.84339e-07
3.59144e-07
3.3313e-07
3.06862e-07
2.81087e-07
2.56402e-07
2.33054e-07
2.11206e-07
1.90936e-07
1.7226e-07
1.55146e-07
1.39524e-07
1.25306e-07
1.12398e-07
1.00695e-07
9.00962e-08
8.05105e-08
7.18485e-08
6.40222e-08
5.69578e-08
5.06088e-08
4.48852e-08
3.97286e-08
3.508e-08
3.09079e-08
2.71791e-08
2.3841e-08
2.08576e-08
1.81975e-08
1.58309e-08
1.37304e-08
1.18705e-08
1.02279e-08
8.78111e-09
7.51055e-09
6.39812e-09
5.4273e-09
4.58295e-09
3.85125e-09
3.2196e-09
2.67651e-09
2.21156e-09
1.81534e-09
1.47931e-09
1.19582e-09
9.57989e-10
7.5967e-10
5.9539e-10
4.60292e-10
3.50082e-10
2.60986e-10
1.89689e-10
1.33325e-10
8.93885e-11
5.57186e-11
3.04116e-11
1.19036e-11
0
0
0
0
0
0
0
0
0
0
0
0
0
0
0
0
0
0
0
0
0
0
0
0
0
0
0
0
0
0
0
0
0
0
0
0
0
0
0
0
0
0
0
0
0
0
0
0
0
0
0
0
0
0
0
0
0
0
0
0
0
0
0
0
0
0
5.22854e-13
7.31883e-13
7.66485e-13
7.73422e-13
8.04176e-13
8.81127e-13
1.01901e-12
1.27981e-12
1.7054e-12
2.48693e-12
3.71791e-12
6.02218e-12
9.4335e-12
1.60777e-11
2.4659e-11
4.23655e-11
5.80713e-11
9.44864e-11
9.24324e-11
1.64616e-10
2.47714e-11
3.63793e-11
0
0
0
0
0
0
0
0
0
0
0
0
0
0
0
0
0
0
0
0
0
0
0
9.77082e-08
2.06649e-07
3.12121e-07
4.06492e-07
4.80091e-07
5.37176e-07
5.69569e-07
5.83314e-07
5.79668e-07
5.62935e-07
5.36573e-07
5.03809e-07
4.67214e-07
4.3007e-07
3.93761e-07
3.57626e-07
3.23374e-07
2.91321e-07
2.61542e-07
2.34145e-07
2.09101e-07
1.864e-07
1.65953e-07
1.47615e-07
1.31211e-07
1.16561e-07
1.03494e-07
9.18433e-08
8.14577e-08
7.21971e-08
6.39362e-08
5.65646e-08
4.9973e-08
4.40865e-08
3.88414e-08
3.41889e-08
3.00517e-08
2.63612e-08
2.30738e-08
2.01497e-08
1.75529e-08
1.52503e-08
1.32125e-08
1.14127e-08
9.82653e-09
8.43208e-09
7.20936e-09
6.14023e-09
5.20819e-09
4.39827e-09
3.69688e-09
3.09166e-09
2.57147e-09
2.12619e-09
1.74671e-09
1.42483e-09
1.15318e-09
9.25174e-10
7.34923e-10
5.77195e-10
4.47354e-10
3.41303e-10
2.55441e-10
1.86611e-10
1.32081e-10
8.946e-11
5.66949e-11
3.1961e-11
1.37757e-11
8.59221e-13
0
0
0
0
0
0
0
0
0
0
0
0
0
0
0
0
0
0
0
0
0
0
0
0
0
0
0
0
0
0
0
0
0
0
0
0
0
0
0
0
0
0
0
0
0
0
0
0
0
0
0
0
0
0
0
0
0
0
0
0
0
0
0
0
0
1.27852e-13
2.71988e-13
3.81177e-13
4.68481e-13
5.50144e-13
6.48598e-13
7.82275e-13
1.00182e-12
1.34942e-12
1.96625e-12
2.93915e-12
4.711e-12
7.32444e-12
1.22378e-11
1.83784e-11
3.04671e-11
3.98259e-11
6.31281e-11
5.53841e-11
8.34414e-11
2.99786e-12
0
0
0
0
0
0
0
0
0
0
0
0
0
0
0
0
0
0
0
0
0
0
0
0
1.11867e-07
2.72875e-07
4.25454e-07
5.58987e-07
6.50226e-07
7.22386e-07
7.55106e-07
7.59621e-07
7.41396e-07
7.06011e-07
6.59754e-07
6.07264e-07
5.52814e-07
5.00605e-07
4.51787e-07
4.04719e-07
3.59245e-07
3.17572e-07
2.80746e-07
2.48122e-07
2.19173e-07
1.93599e-07
1.71002e-07
1.51023e-07
1.33353e-07
1.17718e-07
1.03879e-07
9.16385e-08
8.0803e-08
7.12137e-08
6.27371e-08
5.52412e-08
4.86052e-08
4.27634e-08
3.76016e-08
3.30149e-08
2.89384e-08
2.53217e-08
2.21164e-08
1.92783e-08
1.67677e-08
1.45496e-08
1.25925e-08
1.08685e-08
9.35265e-09
8.02247e-09
6.85791e-09
5.84089e-09
4.95513e-09
4.18598e-09
3.52021e-09
2.94588e-09
2.45226e-09
2.02968e-09
1.66943e-09
1.36371e-09
1.10553e-09
8.88648e-10
7.07497e-10
5.57133e-10
4.3318e-10
3.3177e-10
2.49507e-10
1.83413e-10
1.30907e-10
8.97386e-11
5.79593e-11
3.38523e-11
1.60051e-11
3.21491e-12
0
0
0
0
0
0
0
0
0
0
0
0
0
0
0
0
0
0
0
0
0
0
0
0
0
0
0
0
0
0
0
0
0
0
0
0
0
0
0
0
0
0
0
0
0
0
0
0
0
0
0
0
0
0
0
0
0
0
0
0
0
0
0
0
0
5.58538e-14
1.81755e-13
2.83295e-13
3.66408e-13
4.41243e-13
5.2634e-13
6.34553e-13
8.0354e-13
1.06745e-12
1.52376e-12
2.24034e-12
3.51025e-12
5.35414e-12
8.67906e-12
1.26426e-11
1.98969e-11
2.47254e-11
3.74922e-11
2.87094e-11
2.9542e-11
0
0
0
0
0
0
0
0
0
0
0
0
0
0
0
0
0
0
0
0
0
0
0
0
0
1.29984e-07
3.69343e-07
5.8326e-07
7.62045e-07
8.71901e-07
9.41807e-07
9.74386e-07
9.50332e-07
9.10292e-07
8.46386e-07
7.72438e-07
6.94754e-07
6.19359e-07
5.49429e-07
4.84951e-07
4.23704e-07
3.68635e-07
3.21474e-07
2.81072e-07
2.46189e-07
2.16181e-07
1.90092e-07
1.6729e-07
1.47297e-07
1.29726e-07
1.14258e-07
1.00622e-07
8.85977e-08
7.7986e-08
6.86204e-08
6.0359e-08
5.30764e-08
4.66462e-08
4.09411e-08
3.58852e-08
3.14157e-08
2.74691e-08
2.39859e-08
2.09124e-08
1.82015e-08
1.58117e-08
1.37065e-08
1.18539e-08
1.02256e-08
8.79659e-09
7.54455e-09
6.44977e-09
5.49462e-09
4.66333e-09
3.9418e-09
3.31738e-09
2.77875e-09
2.31571e-09
1.91916e-09
1.58091e-09
1.29364e-09
1.05082e-09
8.4662e-10
6.75834e-10
5.3386e-10
4.16618e-10
3.20507e-10
2.4236e-10
1.79405e-10
1.29234e-10
8.97503e-11
5.9127e-11
3.57702e-11
1.8344e-11
5.73534e-12
0
0
0
0
0
0
0
0
0
0
0
0
0
0
0
0
0
0
0
0
0
0
0
0
0
0
0
0
0
0
0
0
0
0
0
0
0
0
0
0
0
0
0
0
0
0
0
0
0
0
0
0
0
0
0
0
0
0
0
0
0
0
0
0
0
0
1.01382e-13
1.92229e-13
2.67652e-13
3.34289e-13
4.04169e-13
4.88389e-13
6.10278e-13
7.9655e-13
1.10742e-12
1.59218e-12
2.41977e-12
3.59907e-12
5.6053e-12
7.8456e-12
1.15456e-11
1.32894e-11
1.8183e-11
1.09935e-11
3.27476e-12
0
0
0
0
0
0
0
0
0
0
0
0
0
0
0
0
0
0
0
0
0
0
0
0
0
1.88035e-07
5.49479e-07
8.63398e-07
1.09189e-06
1.21992e-06
1.25079e-06
1.27406e-06
1.17923e-06
1.09949e-06
9.87343e-07
8.72237e-07
7.61241e-07
6.62057e-07
5.73707e-07
4.95347e-07
4.24237e-07
3.63218e-07
3.1351e-07
2.71748e-07
2.36275e-07
2.05892e-07
1.79908e-07
1.57617e-07
1.38388e-07
1.21693e-07
1.07119e-07
9.43387e-08
8.30828e-08
7.31563e-08
6.43857e-08
5.66149e-08
4.97217e-08
4.36168e-08
3.82241e-08
3.34662e-08
2.92703e-08
2.55709e-08
2.23102e-08
1.94372e-08
1.6907e-08
1.468e-08
1.27211e-08
1.09996e-08
9.48846e-09
8.16358e-09
7.00379e-09
5.9903e-09
5.10644e-09
4.33734e-09
3.66978e-09
3.09195e-09
2.5933e-09
2.16438e-09
1.79676e-09
1.48289e-09
1.21604e-09
9.90177e-10
7.99949e-10
6.40585e-10
5.07854e-10
3.98009e-10
3.07744e-10
2.34146e-10
1.7467e-10
1.27093e-10
8.94943e-11
6.01759e-11
3.76793e-11
2.07503e-11
8.37906e-12
0
0
0
0
0
0
0
0
0
0
0
0
0
0
0
0
0
0
0
0
0
0
0
0
0
0
0
0
0
0
0
0
0
0
0
0
0
0
0
0
0
0
0
0
0
0
0
0
0
0
0
0
0
0
0
0
0
0
0
0
0
0
0
0
0
0
2.75576e-14
1.06737e-13
1.73113e-13
2.30479e-13
2.84877e-13
3.47077e-13
4.27206e-13
5.45377e-13
7.32806e-13
1.02133e-12
1.48988e-12
2.13606e-12
3.14995e-12
4.14936e-12
5.81766e-12
5.62874e-12
5.99183e-12
9.31972e-13
0
0
0
0
0
0
0
0
0
0
0
0
0
0
0
0
0
0
0
0
0
0
0
0
0
0
4.16933e-07
9.71386e-07
1.41498e-06
1.69822e-06
1.8016e-06
1.8227e-06
1.74558e-06
1.56353e-06
1.37693e-06
1.17284e-06
9.86324e-07
8.24967e-07
6.94898e-07
5.8585e-07
4.8977e-07
4.10215e-07
3.45741e-07
2.91659e-07
2.46893e-07
2.1004e-07
1.79653e-07
1.54831e-07
1.34492e-07
1.17659e-07
1.03513e-07
9.13937e-08
8.08772e-08
7.16743e-08
6.35229e-08
5.62517e-08
4.97541e-08
4.39511e-08
3.87713e-08
3.4148e-08
3.00244e-08
2.63517e-08
2.30864e-08
2.01887e-08
1.76216e-08
1.53513e-08
1.33464e-08
1.15787e-08
1.00224e-08
8.65436e-09
7.45367e-09
6.40169e-09
5.48168e-09
4.67874e-09
3.97951e-09
3.37208e-09
2.8458e-09
2.39115e-09
1.99962e-09
1.6636e-09
1.37628e-09
1.13161e-09
9.24145e-10
7.49068e-10
6.02078e-10
4.79358e-10
3.77528e-10
2.93602e-10
2.24946e-10
1.69252e-10
1.24511e-10
8.89749e-11
6.11025e-11
3.95607e-11
2.32066e-11
1.1114e-11
2.45914e-12
0
0
0
0
0
0
0
0
0
0
0
0
0
0
0
0
0
0
0
0
0
0
0
0
0
0
0
0
0
0
0
0
0
0
0
0
0
0
0
0
0
0
0
0
0
0
0
0
0
0
0
0
0
0
0
0
0
0
0
0
0
0
0
0
0
0
2.8458e-14
8.49319e-14
1.32682e-13
1.74325e-13
2.16224e-13
2.64282e-13
3.28603e-13
4.2174e-13
5.60692e-13
7.68841e-13
1.03451e-12
1.39763e-12
1.66814e-12
1.82683e-12
1.30503e-12
1.14311e-13
0
0
0
0
0
0
0
0
0
0
0
0
0
0
0
0
0
0
0
0
0
0
0
0
0
0
0
6.24653e-07
1.26482e-06
1.76925e-06
2.05909e-06
2.2416e-06
2.34872e-06
2.20149e-06
2.06513e-06
1.72786e-06
1.40114e-06
1.11847e-06
8.93213e-07
7.19525e-07
5.82706e-07
4.68924e-07
3.77069e-07
3.06194e-07
2.52707e-07
2.09726e-07
1.74893e-07
1.46886e-07
1.24037e-07
1.05374e-07
9.01948e-08
7.7918e-08
6.80651e-08
6.0158e-08
5.36694e-08
4.82074e-08
4.3461e-08
3.91896e-08
3.52305e-08
3.15832e-08
2.82347e-08
2.516e-08
2.23429e-08
1.97736e-08
1.74429e-08
1.53389e-08
1.34476e-08
1.17546e-08
1.02447e-08
8.90296e-09
7.71434e-09
6.66449e-09
5.7398e-09
4.92758e-09
4.21608e-09
3.59452e-09
3.05305e-09
2.58273e-09
2.17547e-09
1.82395e-09
1.5216e-09
1.26249e-09
1.04133e-09
8.53363e-10
6.94338e-10
5.60467e-10
4.4838e-10
3.55083e-10
2.77927e-10
2.1457e-10
1.62957e-10
1.21297e-10
8.80222e-11
6.17556e-11
4.12893e-11
2.56081e-11
1.38608e-11
5.32314e-12
0
0
0
0
0
0
0
0
0
0
0
0
0
0
0
0
0
0
0
0
0
0
0
0
0
0
0
0
0
0
0
0
0
0
0
0
0
0
0
0
0
0
0
0
0
0
0
0
0
0
0
0
0
0
0
0
0
0
0
0
0
0
0
0
0
0
0
9.85486e-15
4.7954e-14
7.86127e-14
1.05474e-13
1.29221e-13
1.57423e-13
1.87862e-13
2.30889e-13
2.80011e-13
3.35927e-13
3.61576e-13
2.88995e-13
1.16222e-13
0
0
0
0
0
0
0
0
0
0
0
0
0
0
0
0
0
0
0
0
0
0
0
0
0
0
2.29888e-08
0
0
0
0
8.90504e-07
1.48509e-06
1.70104e-06
1.73009e-06
1.95607e-06
2.08915e-06
1.88597e-06
1.52725e-06
1.17514e-06
9.03394e-07
7.06267e-07
5.51526e-07
4.29489e-07
3.39114e-07
2.70643e-07
2.17603e-07
1.7838e-07
1.48465e-07
1.24078e-07
1.03887e-07
8.71713e-08
7.33449e-08
6.2e-08
5.27335e-08
4.51377e-08
3.89547e-08
3.39658e-08
2.99654e-08
2.67923e-08
2.43003e-08
2.22096e-08
2.03484e-08
1.86267e-08
1.69825e-08
1.53788e-08
1.38405e-08
1.23917e-08
1.1038e-08
9.78302e-09
8.62926e-09
7.57747e-09
6.62562e-09
5.76951e-09
5.00373e-09
4.32223e-09
3.71858e-09
3.18625e-09
2.71878e-09
2.30991e-09
1.95371e-09
1.6446e-09
1.37745e-09
1.14749e-09
9.50402e-10
7.82227e-10
6.39399e-10
5.18704e-10
4.17257e-10
3.32477e-10
2.6207e-10
2.03995e-10
1.56455e-10
1.17876e-10
8.68706e-11
6.22184e-11
4.28411e-11
2.78392e-11
1.64613e-11
8.05686e-12
2.02446e-12
0
0
0
0
0
0
0
0
0
0
0
0
0
0
0
0
0
0
0
0
0
0
0
0
0
0
0
0
0
0
0
0
0
0
0
0
0
0
0
0
0
0
0
0
0
0
0
0
0
0
0
0
0
0
0
0
0
0
0
0
0
0
0
0
0
0
0
0
0
0
5.4083e-15
1.64468e-14
2.01341e-14
2.05003e-14
1.24827e-14
0
0
0
0
0
0
0
0
0
0
0
0
0
0
0
0
0
0
0
0
0
0
0
0
0
0
0
2.09481e-06
5.91112e-06
8.92738e-06
7.04161e-06
0
0
0
0
0
1.5767e-06
1.82687e-06
8.39359e-07
5.51075e-07
1.04736e-06
1.41269e-06
1.32862e-06
1.04556e-06
7.91689e-07
6.03604e-07
4.65146e-07
3.65812e-07
2.89112e-07
2.30021e-07
1.83385e-07
1.46215e-07
1.17652e-07
9.70417e-08
8.18503e-08
6.96932e-08
5.92081e-08
5.01159e-08
4.24075e-08
3.59111e-08
3.04808e-08
2.59958e-08
2.23356e-08
1.9358e-08
1.69213e-08
1.49331e-08
1.33119e-08
1.19906e-08
1.0928e-08
1.00779e-08
9.33878e-09
8.63988e-09
7.95544e-09
7.27428e-09
6.59362e-09
5.92376e-09
5.28555e-09
4.68685e-09
4.13118e-09
3.6204e-09
3.15509e-09
2.73476e-09
2.35804e-09
2.02275e-09
1.72619e-09
1.46537e-09
1.23724e-09
1.03878e-09
8.67014e-10
7.19143e-10
5.92517e-10
4.84674e-10
3.93345e-10
3.16458e-10
2.52134e-10
1.98678e-10
1.54579e-10
1.18487e-10
8.92033e-11
6.56631e-11
4.69268e-11
3.22033e-11
2.0843e-11
1.22542e-11
5.91159e-12
1.3549e-12
0
0
0
0
0
0
0
0
0
0
0
0
0
0
0
0
0
0
0
0
0
0
0
0
0
0
0
0
0
0
0
0
0
0
0
0
0
0
0
0
0
0
0
0
0
0
0
0
0
0
0
0
0
0
0
0
0
0
0
0
0
0
0
0
0
0
0
0
0
0
0
0
0
0
0
0
0
0
0
0
0
0
0
0
0
0
0
0
0
0
0
0
0
0
0
0
0
0
0
8.17656e-07
5.22879e-06
1.51395e-05
3.34504e-05
5.34778e-05
3.72538e-05
0
0
0
0
0
0
2.47526e-06
1.57069e-06
0
0
3.83987e-07
8.23887e-07
7.64987e-07
5.83178e-07
4.34172e-07
3.36683e-07
2.72189e-07
2.24254e-07
1.82386e-07
1.4689e-07
1.17524e-07
9.36931e-08
7.46251e-08
6.01105e-08
4.96591e-08
4.22603e-08
3.65391e-08
3.16458e-08
2.73516e-08
2.35268e-08
2.0161e-08
1.72527e-08
1.4775e-08
1.26908e-08
1.09579e-08
9.53101e-09
8.36017e-09
7.38786e-09
6.57469e-09
5.89837e-09
5.33758e-09
4.87102e-09
4.4807e-09
4.15065e-09
3.85642e-09
3.56817e-09
3.27965e-09
2.99173e-09
2.70698e-09
2.42845e-09
2.15921e-09
1.90292e-09
1.6648e-09
1.44694e-09
1.24959e-09
1.07232e-09
9.14352e-10
7.74619e-10
6.51891e-10
5.44846e-10
4.52115e-10
3.72327e-10
3.04145e-10
2.46286e-10
1.97538e-10
1.56769e-10
1.22931e-10
9.50695e-11
7.23152e-11
5.38871e-11
3.91248e-11
2.7477e-11
1.84355e-11
1.15313e-11
6.35223e-12
2.56848e-12
0
0
0
0
0
0
0
0
0
0
0
0
0
0
0
0
0
0
0
0
0
0
0
0
0
0
0
0
0
0
0
0
0
0
0
0
0
0
0
0
0
0
0
0
0
0
0
0
0
0
0
0
0
0
0
0
0
0
0
0
0
0
0
0
0
0
0
0
0
0
0
0
0
0
0
0
0
0
0
0
0
0
0
0
0
0
6.99736e-13
3.51896e-08
1.74703e-08
0
0
0
0
0
0
0
0
0
1.0683e-06
5.40518e-06
1.5275e-05
3.25052e-05
4.13627e-05
0
0
0
0
0
0
0
0
6.69894e-07
0
0
0
3.58797e-07
4.66645e-07
3.45999e-07
2.48441e-07
1.99146e-07
1.72494e-07
1.531e-07
1.33555e-07
1.12516e-07
9.20572e-08
7.40169e-08
5.91403e-08
4.7179e-08
3.78413e-08
3.0939e-08
2.59224e-08
2.21146e-08
1.90617e-08
1.65706e-08
1.44478e-08
1.25786e-08
1.09171e-08
9.44269e-09
8.14455e-09
7.01536e-09
6.04743e-09
5.22963e-09
4.5463e-09
3.97425e-09
3.49595e-09
3.0971e-09
2.76355e-09
2.48221e-09
2.24184e-09
2.03348e-09
1.85013e-09
1.6866e-09
1.53909e-09
1.40489e-09
1.28185e-09
1.16715e-09
1.05598e-09
9.47724e-10
8.43607e-10
7.44834e-10
6.52329e-10
5.66716e-10
4.88351e-10
4.17364e-10
3.53694e-10
2.97135e-10
2.47366e-10
2.03984e-10
1.66521e-10
1.34463e-10
1.07288e-10
8.44707e-11
6.54885e-11
4.98492e-11
3.71146e-11
2.68973e-11
1.88303e-11
1.25536e-11
7.74196e-12
4.14235e-12
1.53335e-12
0
0
0
0
0
0
0
0
0
0
0
0
0
0
0
0
0
0
0
0
0
0
0
0
0
0
0
0
0
0
0
0
0
0
0
0
0
0
0
0
0
0
0
0
0
0
0
0
0
0
0
0
0
0
0
0
0
0
0
0
0
0
0
0
0
0
0
0
0
0
0
0
0
0
0
0
0
0
0
0
0
0
0
0
0
4.03552e-09
9.134e-08
1.17287e-07
1.38925e-07
1.48707e-07
1.32576e-07
7.35904e-08
0
0
0
0
0
0
0
0
0
0
0
0
0
0
0
0
0
0
1.22849e-06
0
0
0
1.91629e-07
2.49964e-07
1.50166e-07
9.16586e-08
7.17175e-08
6.89744e-08
7.07696e-08
7.06696e-08
6.61661e-08
5.81457e-08
4.85321e-08
3.9325e-08
3.15777e-08
2.5389e-08
2.04908e-08
1.67825e-08
1.4093e-08
1.20359e-08
1.03691e-08
8.98299e-09
7.79851e-09
6.76869e-09
5.86566e-09
5.07323e-09
4.37897e-09
3.77214e-09
3.24245e-09
2.78027e-09
2.37879e-09
2.03396e-09
1.74211e-09
1.49772e-09
1.29468e-09
1.12666e-09
9.87301e-10
8.70765e-10
7.72122e-10
6.87358e-10
6.13303e-10
5.47559e-10
4.88389e-10
4.34595e-10
3.85381e-10
3.40225e-10
2.98798e-10
2.60878e-10
2.26311e-10
1.94964e-10
1.66704e-10
1.4139e-10
1.18869e-10
9.89814e-11
8.15563e-11
6.64096e-11
5.3351e-11
4.21933e-11
3.27504e-11
2.48411e-11
1.82846e-11
1.29276e-11
8.64213e-12
5.29336e-12
2.74439e-12
8.56163e-13
0
0
0
0
0
0
0
0
0
0
0
0
0
0
0
0
0
0
0
0
0
0
0
0
0
0
0
0
0
0
0
0
0
0
0
0
0
0
0
0
0
0
0
0
0
0
0
0
0
0
0
0
0
0
0
0
0
0
0
0
0
0
0
0
0
0
0
0
0
0
0
0
0
0
0
0
0
0
0
0
0
0
0
0
0
0
9.73884e-10
1.22866e-08
1.2196e-07
1.79789e-07
2.37252e-07
3.02949e-07
3.83842e-07
4.82734e-07
5.62945e-07
6.80757e-07
7.13416e-07
4.55448e-07
0
0
0
0
0
0
0
0
0
0
0
6.9678e-06
6.89159e-06
5.23885e-06
2.76624e-06
1.57623e-07
0
0
1.82254e-07
1.04094e-07
2.4842e-08
1.64199e-10
0
1.84704e-09
9.33612e-09
1.7932e-08
2.42928e-08
2.67217e-08
2.54317e-08
2.20224e-08
1.8166e-08
1.47834e-08
1.20912e-08
9.9665e-09
8.29881e-09
7.05999e-09
6.08252e-09
5.27681e-09
4.59375e-09
4.00118e-09
3.47902e-09
3.01463e-09
2.60178e-09
2.23623e-09
1.91479e-09
1.63277e-09
1.38469e-09
1.16671e-09
9.773e-10
8.14893e-10
6.77446e-10
5.62678e-10
4.68009e-10
3.90446e-10
3.27119e-10
2.75476e-10
2.33278e-10
1.98603e-10
1.69835e-10
1.45655e-10
1.25031e-10
1.07172e-10
9.15063e-11
7.76509e-11
6.53606e-11
5.44623e-11
4.4841e-11
3.63957e-11
2.90443e-11
2.27113e-11
1.73149e-11
1.27803e-11
9.02414e-12
5.96626e-12
3.52256e-12
1.61963e-12
1.7438e-13
0
0
0
0
0
0
0
0
0
0
0
0
0
0
0
0
0
0
0
0
0
0
0
0
0
0
0
0
0
0
0
0
0
0
0
0
0
0
0
0
0
0
0
0
0
0
0
0
0
0
0
0
0
0
0
0
0
0
0
0
0
0
0
0
0
0
0
0
0
0
0
0
0
0
0
0
0
0
0
0
0
0
0
0
0
0
0
0
0
0
4.18177e-09
6.71879e-09
2.91114e-08
1.49394e-07
2.41951e-07
3.11019e-07
4.01646e-07
5.44189e-07
7.55798e-07
9.72097e-07
1.26401e-06
1.50599e-06
1.59291e-06
1.36558e-06
5.13448e-07
0
0
0
0
0
0
0
0
5.6961e-05
2.40485e-05
8.53919e-06
4.2059e-06
1.96921e-06
2.42009e-07
0
1.05729e-07
1.56451e-07
3.48141e-08
0
0
0
0
0
0
4.52003e-09
1.05347e-08
1.29661e-08
1.25861e-08
1.08324e-08
8.8518e-09
7.17826e-09
5.90686e-09
4.95099e-09
4.21257e-09
3.65058e-09
3.18638e-09
2.78729e-09
2.43608e-09
2.12332e-09
1.84364e-09
1.59284e-09
1.36823e-09
1.16862e-09
9.93032e-10
8.38685e-10
7.02791e-10
5.82758e-10
4.78294e-10
3.89095e-10
3.13956e-10
2.51339e-10
1.99887e-10
1.5808e-10
1.2438e-10
9.74031e-11
7.59424e-11
5.8976e-11
4.56434e-11
3.52283e-11
2.71206e-11
2.07942e-11
1.58132e-11
1.18369e-11
8.63322e-12
6.04466e-12
3.951e-12
2.2737e-12
9.53207e-13
0
0
0
0
0
0
0
0
0
0
0
0
0
0
0
0
0
0
0
0
0
0
0
0
0
0
0
0
0
0
0
0
0
0
0
0
0
0
0
0
0
0
0
0
0
0
0
0
0
0
0
0
0
0
0
0
0
0
0
0
0
0
0
0
0
0
0
0
0
0
0
0
0
0
0
0
0
0
0
0
0
0
0
0
0
0
0
0
0
0
0
0
0
0
0
0
0
6.40609e-08
5.22727e-08
6.35071e-08
1.3803e-07
2.36384e-07
3.15822e-07
3.99456e-07
5.4725e-07
7.86435e-07
1.04512e-06
1.39797e-06
1.68434e-06
1.89959e-06
2.0085e-06
1.88219e-06
1.18841e-06
0
0
0
0
0
0
5.93574e-06
1.50615e-05
8.19622e-06
3.78652e-06
2.39099e-06
1.25287e-06
3.39112e-07
2.07804e-07
2.98766e-07
1.39418e-07
2.1021e-08
0
0
0
0
0
0
3.34245e-09
8.22084e-09
1.0455e-08
1.04199e-08
9.07456e-09
7.33184e-09
5.74492e-09
4.51021e-09
3.6171e-09
2.9854e-09
2.5365e-09
2.20649e-09
1.93615e-09
1.69841e-09
1.48119e-09
1.28171e-09
1.10101e-09
9.39892e-10
7.972e-10
6.71408e-10
5.61522e-10
4.65926e-10
3.82773e-10
3.10167e-10
2.47451e-10
1.94847e-10
1.5146e-10
1.16228e-10
8.80458e-11
6.57699e-11
4.83513e-11
3.487e-11
2.45486e-11
1.67487e-11
1.09481e-11
6.73681e-12
3.79122e-12
1.82213e-12
5.52938e-13
0
0
0
0
0
0
0
0
0
0
0
0
0
0
0
0
0
0
0
0
0
0
0
0
0
0
0
0
0
0
0
0
0
0
0
0
0
0
0
0
0
0
0
0
0
0
0
0
0
0
0
0
0
0
0
0
0
0
0
0
0
0
0
0
0
0
0
0
0
0
0
0
0
0
0
0
0
0
0
0
0
0
0
0
0
0
0
0
0
0
0
0
0
0
0
0
0
0
0
0
0
0
1.2618e-06
6.46431e-07
2.50318e-07
1.7572e-07
1.92438e-07
2.43498e-07
3.06043e-07
4.17854e-07
6.00696e-07
8.08946e-07
1.11175e-06
1.35389e-06
1.52033e-06
1.57603e-06
1.64043e-06
1.37791e-06
8.77484e-07
0
0
0
0
0
1.66194e-06
2.85125e-06
1.81552e-06
1.51203e-06
1.1676e-06
6.30295e-07
4.55165e-07
5.15105e-07
2.65976e-07
1.07488e-07
3.26632e-08
3.95107e-09
3.08106e-10
5.18869e-09
8.57573e-09
1.02579e-08
1.25191e-08
1.50868e-08
1.61695e-08
1.5428e-08
1.34595e-08
1.09903e-08
8.60647e-09
6.60636e-09
5.06302e-09
3.91912e-09
3.07929e-09
2.47288e-09
2.04708e-09
1.74583e-09
1.51348e-09
1.31503e-09
1.13403e-09
9.66639e-10
8.14841e-10
6.81099e-10
5.66141e-10
4.68693e-10
3.86261e-10
3.16639e-10
2.57475e-10
2.0652e-10
1.62054e-10
1.23867e-10
9.21648e-11
6.68884e-11
4.71886e-11
3.21759e-11
2.1006e-11
1.2902e-11
7.18933e-12
3.306e-12
8.06888e-13
0
0
0
0
0
0
0
0
0
0
0
0
0
0
0
0
0
0
0
0
0
0
0
0
0
0
0
0
0
0
0
0
0
0
0
0
0
0
0
0
0
0
0
0
0
0
0
0
0
0
0
0
0
0
0
0
0
0
0
0
0
0
0
0
0
0
0
0
0
0
0
0
0
0
0
0
0
0
0
0
0
0
0
0
0
0
0
0
0
0
0
0
0
0
0
0
0
0
0
0
0
0
0
0
0
1.45588e-05
3.6264e-06
8.37445e-07
2.04321e-07
8.76896e-08
1.11517e-07
1.43775e-07
2.02449e-07
3.17358e-07
4.32472e-07
6.16296e-07
7.93382e-07
8.71212e-07
8.67063e-07
8.96814e-07
7.70696e-07
5.69938e-07
2.20771e-07
0
0
0
0
3.84809e-07
6.48746e-07
6.98601e-07
7.14762e-07
3.42046e-07
1.28343e-07
8.76259e-07
4.99298e-07
2.28927e-07
1.12875e-07
6.02929e-08
3.91332e-08
3.53675e-08
3.68651e-08
3.69094e-08
3.5946e-08
3.54159e-08
3.4768e-08
3.25351e-08
2.75946e-08
2.20643e-08
1.68356e-08
1.24292e-08
9.04532e-09
6.63845e-09
5.00397e-09
3.89208e-09
3.08727e-09
2.48245e-09
2.03433e-09
1.70407e-09
1.45064e-09
1.24118e-09
1.0565e-09
8.89497e-10
7.39857e-10
6.09193e-10
4.98456e-10
4.06534e-10
3.30373e-10
2.67207e-10
2.14622e-10
1.70772e-10
1.33957e-10
1.02725e-10
7.63009e-11
5.46954e-11
3.76195e-11
2.45253e-11
1.48007e-11
7.8195e-12
3.01846e-12
0
0
0
0
0
0
0
0
0
0
0
0
0
0
0
0
0
0
0
0
0
0
0
0
0
0
0
0
0
0
0
0
0
0
0
0
0
0
0
0
0
0
0
0
0
0
0
0
0
0
0
0
0
0
0
0
0
0
0
0
0
0
0
0
0
0
0
0
0
0
0
0
0
0
0
0
0
0
0
0
0
0
0
0
0
0
0
0
0
0
0
0
0
0
0
0
0
0
0
0
0
0
0
0
0
0
3.19255e-05
5.65916e-06
1.05693e-06
1.10835e-07
0
0
0
8.34973e-09
4.68235e-08
9.71727e-08
1.5242e-07
2.28084e-07
2.46499e-07
2.16469e-07
1.76674e-07
9.3871e-08
0
0
0
0
0
0
3.62759e-07
5.44781e-07
4.48482e-07
0
0
1.37633e-06
8.77707e-07
3.68596e-07
1.92365e-07
1.1761e-07
8.69252e-08
7.39076e-08
6.9517e-08
6.77984e-08
6.59012e-08
6.34962e-08
6.09414e-08
5.81614e-08
5.43206e-08
4.62144e-08
3.58986e-08
2.69115e-08
1.95749e-08
1.3859e-08
9.66798e-09
6.83994e-09
5.06352e-09
3.96957e-09
3.20977e-09
2.62471e-09
2.16241e-09
1.80032e-09
1.51434e-09
1.28009e-09
1.07996e-09
9.04817e-10
7.51341e-10
6.18546e-10
5.05742e-10
4.11725e-10
3.3427e-10
2.70666e-10
2.18052e-10
1.74418e-10
1.3808e-10
1.07727e-10
8.22297e-11
6.09852e-11
4.37339e-11
3.01284e-11
1.96574e-11
1.18131e-11
6.11739e-12
2.15286e-12
0
0
0
0
0
0
0
0
0
0
0
0
0
0
0
0
0
0
0
0
0
0
0
0
0
0
0
0
0
0
0
0
0
0
0
0
0
0
0
0
0
0
0
0
0
0
0
0
0
0
0
0
0
0
0
0
0
0
0
0
0
0
0
0
0
0
0
0
0
0
0
0
0
0
0
0
0
0
0
0
0
0
0
0
0
0
0
0
0
0
0
0
0
0
0
0
0
0
0
0
0
0
0
0
2.19692e-05
2.65682e-06
3.57316e-07
0
0
0
0
0
0
0
0
0
0
0
0
0
0
0
0
0
0
1.17135e-07
3.32613e-07
0
0
0
2.88953e-07
1.24925e-06
5.23906e-07
2.93601e-07
1.81415e-07
1.35079e-07
1.19877e-07
1.10749e-07
1.02042e-07
9.7e-08
9.44849e-08
9.19205e-08
8.79128e-08
8.2843e-08
7.71249e-08
6.82752e-08
5.29339e-08
3.9182e-08
2.83281e-08
2.01407e-08
1.40497e-08
9.6792e-09
6.76772e-09
4.98225e-09
3.93828e-09
3.24094e-09
2.69785e-09
2.24852e-09
1.87921e-09
1.57793e-09
1.32858e-09
1.11723e-09
9.35477e-10
7.79274e-10
6.46264e-10
5.34067e-10
4.39914e-10
3.61105e-10
2.95416e-10
2.40827e-10
1.95607e-10
1.57884e-10
1.26321e-10
9.98597e-11
7.76961e-11
5.9185e-11
4.39778e-11
3.17744e-11
2.22251e-11
1.48842e-11
9.34945e-12
5.28025e-12
2.38784e-12
4.18896e-13
0
0
0
0
0
0
0
0
0
0
0
0
0
0
0
0
0
0
0
0
0
0
0
0
0
0
0
0
0
0
0
0
0
0
0
0
0
0
0
0
0
0
0
0
0
0
0
0
0
0
0
0
0
0
0
0
0
0
0
0
0
0
0
0
0
0
0
0
0
0
0
0
0
0
0
0
0
0
0
0
0
0
0
0
0
0
0
0
0
0
0
0
0
0
0
0
0
0
0
0
4.33564e-06
0
0
0
0
0
0
0
0
0
0
0
0
0
0
0
0
0
0
0
0
0
0
0
0
0
8.12892e-07
5.73274e-07
3.69681e-07
2.25152e-07
1.64151e-07
1.4822e-07
1.43892e-07
1.32733e-07
1.20385e-07
1.1481e-07
1.1214e-07
1.12465e-07
1.10036e-07
1.05143e-07
9.95567e-08
9.09219e-08
7.27081e-08
5.33471e-08
3.79893e-08
2.67068e-08
1.86759e-08
1.29658e-08
8.97411e-09
6.3246e-09
4.70088e-09
3.74521e-09
3.11698e-09
2.62907e-09
2.21772e-09
1.87005e-09
1.57999e-09
1.33724e-09
1.1304e-09
9.51309e-10
7.96194e-10
6.63887e-10
5.53278e-10
4.61871e-10
3.86058e-10
3.22229e-10
2.67764e-10
2.21309e-10
1.81982e-10
1.48988e-10
1.21221e-10
9.78627e-11
7.82357e-11
6.17836e-11
4.80136e-11
3.6668e-11
2.752e-11
2.02808e-11
1.46068e-11
1.02097e-11
6.85171e-12
4.33252e-12
2.48262e-12
1.15914e-12
2.38601e-13
0
0
0
0
0
0
0
0
0
0
0
0
0
0
0
0
0
0
0
0
0
0
0
0
0
0
0