/*--------------------------------*- C++ -*----------------------------------*\
  =========                 |
  \\      /  F ield         | OpenFOAM: The Open Source CFD Toolbox
   \\    /   O peration     | Website:  https://openfoam.org
    \\  /    A nd           | Version:  9
     \\/     M anipulation  |
\*---------------------------------------------------------------------------*/
FoamFile
{
    format      ascii;
    class       volScalarField;
    location    "0.005";
    object      pPrime2Mean;
}
// * * * * * * * * * * * * * * * * * * * * * * * * * * * * * * * * * * * * * //

dimensions      [0 4 -4 0 0 0 0];

internalField   nonuniform List<scalar> 
12225
(
648037
639609
630317
620956
611703
602623
593751
585102
576678
568467
560451
552603
544883
537238
529596
521849
513783
505007
648064
639643
630341
620975
611719
602637
593765
585116
576693
568484
560472
552628
544916
537283
529663
521947
513975
505303
648285
639724
630396
621019
611755
602669
593795
585147
576726
568522
560517
552684
544988
537382
529803
522168
514348
506188
648519
639843
630484
621089
611815
602723
593847
585199
576782
568585
560592
552776
545107
537542
530031
522512
514923
507270
648754
640021
630616
621194
611903
602802
593921
585275
576863
568677
560701
552910
545278
537771
530350
522980
515651
508452
649044
640244
630794
621338
612025
602910
594024
585379
576975
568803
560849
553092
545509
538074
530763
523564
516501
509689
649349
640546
631030
621528
612185
603054
594160
585516
577122
568968
561043
553328
545805
538456
531269
524251
517443
510955
649865
640931
631331
621770
612389
603236
594333
585691
577309
569178
561286
553622
546168
538917
531865
525029
518458
512241
650573
641421
631703
622074
612647
603465
594551
585909
577539
569434
561584
553977
546602
539456
532544
525887
519529
513539
651372
641997
632162
622442
612958
603743
594814
586172
577817
569743
561940
554397
547108
540073
533300
526812
520645
514846
652229
642694
632711
622889
613333
604075
595127
586486
578149
570109
562356
554882
547684
540762
534125
527794
521795
516160
653197
643446
633306
623366
613736
604435
595463
586824
578504
570497
562795
555388
548274
541454
534938
528739
522876
517369
654206
644309
633980
623911
614191
604837
595844
587202
578900
570928
563277
555938
548908
542188
535784
529705
523964
518569
655665
645444
634864
624610
614777
605357
596332
587689
579409
571479
563888
556627
549691
543079
536794
530839
525219
519936
657911
646990
636007
625510
615525
606018
596955
588308
580053
572171
564649
557475
550641
544144
537980
532149
526649
521474
660589
648895
637413
626611
616442
606834
597727
589077
580851
573025
565579
558498
551772
545391
539349
533638
528251
523179
664288
651210
639035
627867
617501
607788
598640
589993
581804
574041
566677
559695
553077
546811
540885
535287
530006
525029
666949
653156
640504
629068
618556
608784
599629
591012
582878
575190
567918
561037
554528
548373
542556
537062
531877
526985
667704
653843
641242
629844
619380
609662
600573
592033
583987
576396
569227
562452
556050
550000
544284
538884
533784
528969
665263
652704
640783
629779
619569
610042
601102
592689
584757
577269
570196
563512
557195
551224
545581
540248
535207
530443
662579
651147
639912
629368
619458
610132
601343
593047
585211
577806
570805
564186
557928
552010
546414
541123
536120
531388
660240
649809
639100
628902
619243
610098
601445
593254
585501
578165
571223
564655
558441
552562
547001
541741
536764
532056
659003
648748
638394
628469
619013
610019
601477
593371
585686
578404
571508
564979
558798
552948
547412
542173
537216
532523
657975
647896
637815
628104
618811
609934
601478
593438
585804
578563
571701
565200
559043
553214
547697
542474
537529
532848
656706
647185
637362
627829
618651
609860
601468
593476
585879
578669
571831
565350
559211
553397
547891
542679
537744
533071
655603
646618
637032
627625
618534
609803
601455
593497
585927
578737
571915
565449
559321
553517
548020
542815
537887
533219
655005
646243
636804
627485
618453
609763
601445
593510
585957
578780
571970
565512
559392
553595
548104
542903
537979
533314
654681
646023
636663
627398
618401
609738
601438
593516
585974
578806
572002
565550
559435
553642
548154
542957
538034
533372
654613
645914
636587
627350
618374
609724
601434
593520
585983
578819
572019
565570
559458
553667
548181
542985
538064
533403
654516
645867
636556
627330
618362
609718
601433
593521
585987
578825
572026
565579
559467
553677
548192
542997
538076
533416
426542
426509
426441
426338
426199
426024
425812
425562
425274
424948
424582
424177
423733
423247
422722
422156
421548
420900
420210
419480
418708
417894
417040
416145
415209
414233
413217
412162
411067
409934
408763
407555
406310
405029
403712
402361
400976
399557
398105
396621
395105
393558
391981
390373
388737
387071
385377
383656
381907
380132
378330
376502
374649
372772
370870
368944
366995
365023
363029
361012
358974
356915
354835
352734
350614
348474
346315
344137
341941
339727
337495
335246
332980
330697
328398
326084
323753
321407
319047
316671
314282
311878
309460
307029
304585
302128
299658
297176
294682
292176
289658
287129
284589
282039
279477
276906
274324
271732
269131
266521
263901
261273
258636
255991
253337
250676
248007
245330
242647
239956
237259
234555
231846
229130
226409
223682
220950
218214
215473
212728
209978
207225
204469
201709
198947
196182
193415
190646
187875
185103
182330
179557
176783
174009
171236
168464
165693
162923
160156
157391
154628
151869
149113
146362
143615
140873
138136
135405
132680
129963
127252
124549
121855
119169
116493
113826
111170
108526
105892
103271
100663
98069
95488.7
92923.3
90373.6
87840.2
85324
82825.7
80346.2
77886.5
75447.6
73030.6
70636.8
68267.5
65924.7
63610.2
61327.3
59079.7
56875.2
54728
426695
426662
426593
426490
426350
426174
425960
425709
425420
425092
424724
424317
423870
423383
422855
422286
421676
421025
420332
419599
418824
418007
417150
416251
415312
414333
413313
412255
411157
410020
408846
407635
406386
405102
403783
402429
401040
399618
398164
396677
395159
393610
392030
390420
388781
387114
385418
383694
381944
380166
378363
376534
374679
372800
370897
368970
367019
365046
363050
361033
358993
356933
354852
352751
350629
348489
346329
344150
341953
339738
337506
335256
332989
330706
328407
326091
323760
321414
319053
316677
314287
311883
309465
307034
304589
302132
299662
297180
294685
292179
289661
287132
284592
282041
279479
276907
274326
271734
269133
266522
263903
261274
258637
255992
253338
250677
248007
245331
242647
239957
237259
234556
231846
229130
226409
223682
220951
218214
215473
212728
209978
207225
204469
201710
198947
196182
193415
190646
187875
185103
182330
179557
176783
174009
171236
168464
165693
162923
160156
157391
154628
151869
149113
146362
143615
140873
138136
135405
132681
129963
127252
124549
121855
119169
116493
113826
111170
108526
105892
103271
100663
98068.9
95488.6
92923.3
90373.5
87840.1
85323.8
82825.5
80346
77886.2
75447.2
73030.1
70636.1
68266.7
65923.5
63608.7
61325
59076.6
56869.7
54717.4
427003
426968
426899
426794
426652
426474
426258
426005
425712
425380
425009
424598
424147
423654
423122
422547
421932
421275
420577
419837
419056
418233
417369
416464
415518
414532
413506
412441
411336
410193
409012
407794
406540
405249
403924
402563
401169
399742
398282
396790
395267
393712
392128
390514
388870
387199
385499
383771
382017
380236
378429
376596
374739
372856
370950
369020
367067
365091
363093
361073
359032
356969
354886
352783
350660
348517
346356
344176
341977
339761
337527
335276
333008
330724
328423
326107
323775
321428
319066
316689
314299
311894
309475
307043
304598
302140
299669
297187
294692
292185
289667
287137
284597
282045
279483
276911
274329
271737
269136
266525
263905
261276
258639
255994
253340
250678
248009
245332
242649
239958
237260
234557
231847
229131
226410
223683
220951
218215
215474
212728
209979
207226
204469
201710
198947
196182
193415
190646
187875
185103
182330
179557
176783
174010
171236
168464
165693
162923
160156
157391
154628
151869
149114
146362
143615
140873
138136
135405
132681
129963
127252
124549
121855
119169
116493
113826
111170
108526
105892
103271
100663
98068.8
95488.5
92923.1
90373.3
87839.9
85323.5
82825.1
80345.5
77885.6
75446.5
73029.1
70634.8
68264.9
65921.1
63605.5
61320.4
59069.8
56858.3
54693.8
427466
427430
427359
427252
427108
426927
426707
426449
426152
425815
425438
425020
424562
424063
423523
422941
422317
421652
420945
420196
419405
418573
417699
416784
415828
414832
413795
412720
411605
410452
409261
408033
406769
405469
404134
402765
401362
399927
398459
396959
395428
393866
392274
390653
389004
387325
385619
383886
382126
380339
378527
376690
374827
372941
371030
369096
367139
365159
363157
361134
359089
357023
354937
352831
350705
348560
346396
344214
342013
339795
337559
335306
333036
330750
328448
326130
323797
321448
319085
316707
314315
311909
309490
307057
304611
302152
299681
297197
294701
292194
289675
287145
284604
282052
279490
276917
274335
271742
269140
266529
263909
261280
258643
255997
253343
250681
248011
245334
242651
239960
237262
234558
231848
229132
226411
223684
220952
218216
215474
212729
209980
207226
204470
201710
198948
196183
193416
190646
187876
185104
182331
179557
176783
174010
171236
168464
165693
162923
160156
157391
154628
151869
149114
146362
143615
140873
138136
135405
132681
129963
127252
124549
121855
119169
116493
113826
111170
108526
105892
103271
100663
98068.7
95488.4
92922.9
90373.1
87839.5
85323.1
82824.6
80344.8
77884.7
75445.3
73027.6
70632.9
68262.4
65917.7
63600.8
61313.8
59059.9
56842.6
54665.5
428087
428050
427977
427867
427719
427533
427309
427045
426741
426397
426012
425586
425118
424610
424059
423467
422832
422155
421436
420675
419872
419027
418140
417211
416242
415232
414182
413092
411963
410797
409592
408351
407074
405762
404415
403034
401619
400172
398693
397183
395642
394070
392469
390839
389180
387494
385779
384038
382271
380477
378658
376814
374945
373052
371136
369196
367234
365249
363242
361214
359165
357095
355005
352895
350766
348617
346450
344264
342061
339840
337601
335346
333074
330785
328481
326161
323826
321475
319110
316731
314337
311930
309509
307075
304628
302168
299695
297211
294714
292206
289686
287155
284613
282061
279498
276925
274342
271749
269146
266535
263914
261285
258647
256001
253346
250684
248014
245337
242653
239962
237264
234560
231850
229134
226413
223686
220954
218217
215475
212730
209980
207227
204471
201711
198948
196183
193416
190647
187876
185104
182331
179557
176784
174010
171237
168464
165693
162924
160156
157391
154628
151869
149114
146362
143615
140873
138136
135405
132681
129963
127252
124549
121855
119169
116493
113826
111170
108525
105892
103271
100663
98068.6
95488.2
92922.7
90372.7
87839.1
85322.5
82823.9
80343.9
77883.6
75443.8
73025.7
70630.3
68259
65913.2
63594.7
61305.4
59047.7
56823.9
54635.2
428869
428831
428755
428641
428489
428298
428066
427795
427482
427129
426733
426297
425818
425297
424733
424127
423478
422787
422053
421276
420457
419595
418692
417746
416760
415732
414664
413557
412411
411227
410006
408749
407455
406127
404764
403368
401939
400478
398985
397462
395908
394324
392711
391070
389400
387703
385979
384228
382451
380648
378820
376968
375091
373191
371267
369321
367352
365361
363348
361314
359259
357184
355089
352975
350841
348688
346517
344327
342120
339895
337653
335395
333120
330829
328522
326199
323862
321509
319142
316760
314365
311956
309533
307097
304649
302187
299714
297228
294730
292221
289700
287168
284625
282072
279508
276934
274350
271757
269154
266542
263921
261291
258652
256006
253351
250688
248018
245341
242656
239965
237267
234563
231852
229136
226414
223687
220955
218218
215477
212731
209982
207228
204472
201712
198949
196184
193417
190647
187876
185104
182331
179558
176784
174010
171237
168464
165693
162924
160156
157391
154629
151869
149114
146362
143615
140873
138136
135405
132681
129963
127252
124549
121855
119169
116493
113826
111170
108525
105892
103271
100663
98068.4
95487.9
92922.3
90372.3
87838.6
85321.8
82823
80342.8
77882.1
75442
73023.3
70627.2
68255
65907.9
63587.5
61295.5
59033.7
56803.3
54604.2
429818
429778
429699
429580
429422
429223
428983
428702
428379
428014
427606
427156
426662
426126
425547
424924
424258
423549
422797
422001
421162
420281
419357
418390
417382
416334
415244
414116
412949
411744
410502
409224
407911
406563
405182
403768
402321
400843
399334
397794
396225
394627
393000
391345
389662
387952
386216
384453
382665
380852
379014
377151
375265
373356
371424
369469
367492
365493
363474
361433
359372
357290
355189
353069
350930
348772
346596
344402
342190
339961
337716
335453
333175
330880
328570
326245
323904
321549
319179
316795
314398
311987
309562
307124
304674
302211
299735
297248
294749
292238
289716
287183
284640
282085
279520
276946
274361
271767
269163
266550
263928
261298
258659
256012
253357
250694
248023
245345
242660
239969
237270
234566
231855
229139
226417
223689
220957
218220
215478
212733
209983
207229
204473
201713
198950
196185
193417
190648
187877
185105
182332
179558
176784
174010
171237
168465
165693
162924
160156
157391
154629
151869
149114
146362
143615
140873
138136
135405
132681
129963
127252
124549
121855
119169
116493
113826
111170
108525
105892
103271
100663
98068.2
95487.6
92922
90371.8
87837.9
85321
82822
80341.5
77880.5
75439.8
73020.5
70623.7
68250.4
65901.8
63579.4
61284.5
59018.3
56781.7
54573.4
430939
430896
430812
430688
430522
430315
430064
429771
429435
429055
428632
428165
427654
427100
426501
425859
425173
424443
423669
422851
421989
421084
420136
419145
418111
417037
415922
414768
413576
412346
411079
409777
408441
407070
405667
404231
402764
401266
399738
398180
396593
394977
393334
391663
389965
388240
386490
384714
382913
381087
379237
377364
375467
373547
371605
369640
367654
365647
363619
361570
359501
357413
355305
353178
351033
348869
346687
344488
342271
340038
337787
335521
333238
330940
328626
326297
323953
321595
319223
316836
314436
312022
309595
307155
304703
302238
299761
297272
294771
292259
289735
287201
284656
282100
279535
276959
274373
271778
269173
266560
263937
261306
258666
256019
253363
250699
248028
245350
242665
239973
237274
234569
231858
229142
226419
223692
220959
218222
215480
212734
209984
207231
204474
201714
198951
196185
193418
190648
187877
185105
182332
179558
176784
174011
171237
168465
165694
162924
160156
157391
154629
151870
149114
146363
143615
140873
138137
135406
132681
129963
127252
124550
121855
119169
116493
113826
111170
108525
105892
103271
100663
98067.9
95487.3
92921.5
90371.3
87837.2
85320.1
82820.8
80340
77878.6
75437.4
73017.5
70619.7
68245.2
65895.1
63570.5
61272.5
59002.1
56759.5
54543.2
432238
432192
432104
431972
431797
431578
431314
431007
430654
430257
429814
429327
428796
428220
427599
426934
426224
425470
424671
423828
422940
422008
421031
420011
418948
417844
416699
415515
414292
413033
411737
410407
409043
407647
406218
404758
403267
401746
400196
398617
397009
395374
393712
392023
390308
388567
386800
385009
383193
381353
379490
377603
375694
373762
371809
369834
367837
365820
363783
361725
359648
357551
355436
353302
351149
348979
346791
344585
342363
340124
337869
335597
333310
331007
328689
326356
324009
321647
319271
316882
314479
312062
309632
307190
304735
302268
299789
297298
294796
292282
289757
287221
284674
282117
279550
276973
274387
271791
269185
266571
263947
261315
258675
256026
253370
250706
248034
245356
242670
239977
237278
234573
231862
229145
226422
223694
220962
218224
215482
212736
209986
207232
204475
201715
198952
196186
193419
190649
187878
185106
182333
179559
176785
174011
171238
168465
165694
162924
160157
157391
154629
151870
149114
146363
143616
140873
138137
135406
132681
129963
127252
124550
121855
119169
116493
113826
111170
108525
105892
103271
100662
98067.7
95487
92921.1
90370.7
87836.5
85319.2
82819.5
80338.4
77876.5
75434.8
73014.1
70615.4
68239.6
65887.8
63561
61260
58985.5
56737.3
54514.1
433724
433674
433579
433439
433252
433019
432740
432413
432040
431621
431155
430644
430087
429485
428839
428148
427413
426632
425806
424935
424019
423055
422047
420994
419897
418757
417577
416357
415099
413805
412476
411114
409718
408291
406833
405345
403828
402281
400706
399103
397473
395816
394133
392424
390689
388929
387145
385337
383505
381649
379771
377870
375947
374002
372036
370049
368041
366013
363965
361897
359811
357705
355581
353439
351278
349101
346905
344693
342465
340220
337959
335682
333389
331082
328759
326422
324071
321705
319326
316933
314526
312106
309674
307229
304772
302302
299821
297328
294823
292307
289780
287243
284695
282137
279568
276990
274402
271805
269198
266583
263958
261326
258684
256035
253378
250713
248041
245362
242675
239983
237283
234577
231866
229148
226425
223697
220964
218227
215484
212738
209988
207234
204477
201716
198953
196187
193420
190650
187879
185106
182333
179559
176785
174011
171238
168465
165694
162925
160157
157392
154629
151870
149114
146363
143616
140874
138137
135406
132681
129963
127253
124550
121855
119169
116493
113826
111170
108525
105892
103271
100662
98067.4
95486.6
92920.6
90370
87835.6
85318.1
82818.2
80336.7
77874.3
75432
73010.5
70610.8
68233.8
65880.2
63551.1
61247.2
58968.7
56715.5
54486.1
435408
435353
435250
435098
434897
434646
434346
433996
433597
433150
432656
432114
431527
430895
430218
429498
428734
427926
427074
426174
425228
424232
423189
422098
420961
419781
418558
417297
415997
414663
413295
411895
410464
409002
407512
405993
404445
402870
401267
399638
397982
396301
394595
392863
391107
389327
387523
385696
383846
381973
380078
378162
376223
374264
372284
370284
368264
366224
364164
362086
359989
357873
355740
353588
351420
349234
347031
344812
342576
340325
338057
335774
333477
331164
328836
326494
324138
321769
319385
316988
314578
312155
309720
307272
304811
302339
299855
297360
294853
292335
289806
287267
284717
282157
279588
277008
274419
271820
269212
266596
263970
261337
258695
256045
253387
250721
248048
245369
242682
239988
237288
234582
231870
229152
226429
223701
220967
218229
215487
212740
209990
207236
204478
201718
198954
196189
193421
190651
187880
185107
182334
179560
176786
174012
171238
168466
165695
162925
160157
157392
154630
151870
149115
146363
143616
140874
138137
135406
132681
129963
127253
124550
121855
119169
116493
113826
111170
108525
105892
103270
100662
98067.1
95486.2
92920.1
90369.4
87834.8
85317
82816.8
80334.9
77872
75429.1
73006.8
70606.1
68227.7
65872.4
63541.1
61234.2
58952
56694.2
54459.4
437304
437242
437128
436961
436741
436467
436139
435759
435326
434843
434310
433730
433105
432436
431725
430973
430182
429351
428474
427550
426574
425548
424469
423337
422154
420925
419652
418340
416991
415608
414194
412750
411278
409778
408251
406697
405116
403509
401876
400218
398535
396827
395095
393340
391560
389758
387933
386085
384215
382324
380411
378477
376523
374548
372553
370539
368505
366452
364380
362290
360181
358055
355912
353751
351573
349378
347167
344940
342697
340438
338164
335875
333571
331252
328919
326572
324212
321837
319449
317048
314634
312208
309769
307318
304854
302379
299893
297395
294885
292365
289835
287293
284742
282180
279609
277027
274437
271837
269228
266610
263984
261349
258706
256055
253396
250730
248056
245376
242688
239994
237294
234587
231875
229157
226433
223704
220971
218232
215490
212743
209992
207238
204480
201719
198956
196190
193422
190652
187881
185108
182334
179560
176786
174012
171239
168466
165695
162925
160158
157392
154630
151871
149115
146363
143616
140874
138137
135406
132681
129963
127253
124550
121855
119169
116493
113826
111170
108525
105892
103270
100662
98066.8
95485.8
92919.5
90368.7
87833.9
85315.9
82815.3
80333
77869.7
75426.1
73003
70601.2
68221.4
65864.5
63531
61221.3
58935.6
56673.6
54434.1
439429
439360
439232
439046
438800
438495
438131
437709
437230
436696
436111
435476
434796
434076
433320
432533
431717
430869
429982
429051
428063
427016
425903
424725
423489
422200
420866
419493
418083
416642
415174
413680
412160
410617
409048
407456
405838
404197
402531
400842
399129
397392
395633
393851
392047
390220
388372
386502
384612
382700
380768
378816
376844
374852
372841
370811
368763
366696
364611
362508
360388
358250
356096
353924
351737
349533
347313
345077
342826
340560
338278
335982
333672
331347
329008
326656
324290
321911
319518
317113
314695
312264
309822
307367
304900
302422
299933
297432
294920
292398
289865
287321
284768
282204
279631
277048
274456
271855
269244
266625
263998
261362
258718
256066
253406
250739
248065
245384
242696
240001
237300
234593
231880
229161
226437
223708
220974
218235
215492
212745
209994
207240
204482
201721
198957
196191
193423
190653
187881
185109
182335
179561
176787
174013
171239
168467
165695
162926
160158
157393
154630
151871
149115
146364
143616
140874
138137
135406
132682
129964
127253
124550
121855
119170
116493
113826
111170
108525
105892
103270
100662
98066.5
95485.4
92919
90368
87833
85314.7
82813.8
80331.1
77867.3
75423
72999.1
70596.2
68215.2
65856.6
63520.9
61208.6
58919.8
56654
54410.3
441813
441733
441587
441375
441095
440749
440335
439855
439310
438701
438032
437310
436541
435739
434917
434086
433248
432399
431532
430627
429657
428610
427475
426256
424960
423603
422197
420752
419272
417763
416230
414678
413105
411513
409900
408265
406608
404930
403229
401505
399760
397993
396205
394395
392563
390711
388839
386946
385032
383099
381147
379175
377184
375175
373147
371101
369037
366955
364856
362740
360607
358457
356291
354109
351910
349697
347467
345223
342963
340689
338400
336096
333779
331448
329103
326745
324373
321989
319591
317181
314759
312324
309878
307419
304949
302468
299975
297472
294957
292432
289897
287351
284796
282230
279655
277070
274477
271874
269262
266642
264013
261376
258731
256078
253417
250749
248074
245392
242703
240008
237306
234599
231885
229166
226442
223712
220978
218239
215495
212748
209997
207242
204484
201723
198959
196193
193424
190654
187882
185110
182336
179562
176788
174013
171240
168467
165696
162926
160158
157393
154631
151871
149116
146364
143617
140875
138138
135407
132682
129964
127253
124550
121855
119170
116493
113826
111170
108525
105891
103270
100661
98066.2
95485
92918.5
90367.3
87832.1
85313.5
82812.3
80329.2
77864.8
75419.9
72995.2
70591.3
68209
65848.7
63511.1
61196.3
58904.5
56635.3
54387.9
444494
444402
444232
443985
443660
443258
442778
442218
441575
440851
440046
439171
438243
437288
436334
435410
434533
433708
432909
432099
431220
430240
429133
427896
426547
425111
423618
422092
420536
418956
417351
415736
414106
412461
410800
409121
407422
405704
403965
402206
400427
398627
396808
394968
393108
391229
389331
387413
385476
383520
381546
379554
377543
375515
373469
371406
369326
367229
365115
362984
360838
358675
356497
354303
352094
349869
347630
345376
343107
340825
338528
336217
333892
331554
329203
326838
324461
322071
319668
317254
314827
312388
309937
307475
305001
302516
300020
297514
294996
292469
289931
287383
284825
282257
279680
277094
274498
271894
269281
266659
264029
261390
258744
256090
253429
250760
248084
245401
242711
240015
237313
234605
231891
229171
226446
223716
220982
218242
215499
212751
209999
207244
204486
201725
198961
196194
193426
190655
187884
185111
182337
179563
176788
174014
171240
168468
165696
162926
160159
157393
154631
151872
149116
146364
143617
140875
138138
135407
132682
129964
127253
124550
121856
119170
116493
113826
111170
108525
105891
103270
100661
98065.9
95484.6
92918
90366.6
87831.2
85312.4
82810.9
80327.3
77862.5
75416.9
72991.4
70586.5
68202.9
65841.1
63501.6
61184.5
58890
56617.8
54367.1
447634
447524
447322
447030
446649
446177
445610
444942
444167
443270
442250
441117
439896
438641
437420
436304
435348
434559
433907
433305
432652
431848
430841
429625
428230
426705
425115
423505
421876
420224
418553
416871
415181
413481
411769
410042
408299
406538
404759
402961
401145
399310
397457
395585
393695
391786
389860
387915
385953
383973
381975
379961
377929
375881
373815
371734
369636
367522
365392
363247
361086
358909
356718
354512
352290
350055
347805
345541
343262
340970
338665
336346
334013
331668
329310
326939
324555
322159
319751
317331
314899
312455
310000
307534
305056
302568
300069
297559
295038
292508
289967
287416
284856
282286
279707
277119
274521
271915
269300
266677
264046
261406
258759
256103
253441
250771
248094
245410
242720
240023
237320
234611
231897
229177
226451
223721
220986
218246
215502
212754
210002
207247
204488
201727
198962
196196
193427
190657
187885
185112
182338
179564
176789
174015
171241
168468
165697
162927
160159
157394
154631
151872
149116
146365
143617
140875
138138
135407
132682
129964
127254
124551
121856
119170
116493
113827
111170
108525
105891
103270
100661
98065.8
95484.4
92917.6
90366.1
87830.5
85311.4
82809.6
80325.7
77860.3
75414.1
72987.8
70582
68197.2
65833.9
63492.6
61173.5
58876.5
56601.5
54347.9
451186
451052
450814
450474
450034
449496
448860
448104
447204
446122
444825
443321
441666
439963
438340
436931
435827
435061
434577
434220
433822
433209
432314
431143
429749
428190
426543
424872
423189
421483
419754
418014
416267
414515
412754
410980
409192
407388
405568
403731
401877
400007
398119
396215
394293
392355
390400
388428
386439
384435
382413
380376
378323
376254
374169
372068
369953
367822
365675
363514
361339
359148
356944
354724
352491
350244
347983
345709
343421
341119
338805
336478
334137
331784
329419
327041
324651
322249
319836
317410
314973
312525
310065
307594
305113
302621
300118
297605
295081
292548
290004
287451
284888
282316
279735
277144
274545
271937
269321
266696
264063
261422
258773
256117
253453
250782
248104
245420
242729
240031
237327
234618
231903
229182
226456
223725
220990
218250
215505
212757
210005
207249
204490
201728
198964
196197
193428
190658
187886
185113
182339
179564
176790
174015
171242
168469
165697
162927
160160
157394
154632
151872
149116
146365
143618
140875
138138
135407
132682
129964
127254
124550
121856
119170
116493
113827
111170
108525
105891
103270
100661
98065.3
95483.8
92916.9
90365.2
87829.4
85310.1
82808
80323.7
77857.8
75411.1
72984
70577.3
68191.4
65826.7
63483.8
61162.7
58863.5
56586.1
54329.9
454867
454715
454454
454096
453656
453144
452543
451809
450868
449633
448055
446159
444049
441900
439908
438240
436997
436199
435731
435416
435050
434463
433578
432409
431018
429461
427796
426091
424370
422624
420851
419064
417272
415474
413669
411853
410024
408181
406323
404450
402562
400658
398739
396804
394853
392887
390906
388908
386896
384868
382824
380766
378692
376604
374501
372383
370250
368103
365942
363767
361577
359374
357156
354925
352681
350423
348152
345868
343571
341261
338938
336603
334255
331895
329523
327139
324743
322335
319916
317486
315044
312591
310127
307652
305167
302671
300165
297648
295122
292586
290040
287484
284919
282345
279761
277169
274568
271958
269340
266714
264079
261437
258787
256130
253465
250793
248114
245429
242737
240039
237334
234624
231908
229187
226461
223730
220994
218253
215508
212760
210007
207251
204492
201730
198966
196199
193430
190659
187887
185113
182339
179565
176790
174016
171242
168469
165698
162928
160160
157394
154632
151872
149117
146365
143618
140875
138138
135407
132682
129964
127253
124550
121856
119170
116493
113826
111170
108525
105891
103269
100660
98064.9
95483.3
92916.3
90364.4
87828.5
85308.9
82806.5
80321.8
77855.5
75408.2
72980.5
70572.9
68185.9
65820
63475.6
61152.7
58851.6
56571.9
54313.5
458681
458525
458284
458002
457708
457380
456955
456306
455286
453802
451853
449546
447063
444639
442457
440646
439268
438305
437640
437111
436546
435809
434819
433586
432164
430592
428918
427194
425443
423661
421850
420025
418194
416358
414514
412660
410794
408916
407023
405117
403197
401263
399315
397352
395375
393383
391377
389356
387321
385272
383208
381130
379038
376931
374811
372677
370529
368367
366192
364003
361801
359585
357356
355114
352859
350591
348311
346017
343712
341394
339063
336720
334366
331999
329621
327231
324829
322416
319992
317557
315111
312653
310186
307707
305218
302719
300210
297690
295161
292622
290073
287515
284948
282372
279786
277192
274590
271978
269359
266731
264095
261452
258801
256142
253476
250804
248124
245438
242745
240046
237341
234630
231914
229192
226466
223734
220997
218257
215511
212762
210010
207254
204494
201732
198967
196200
193431
190660
187888
185114
182340
179566
176791
174016
171243
168470
165698
162928
160160
157395
154632
151873
149117
146365
143618
140875
138138
135407
132682
129964
127253
124550
121856
119170
116493
113826
111170
108525
105891
103269
100660
98064.5
95482.8
92915.7
90363.7
87827.6
85307.9
82805.2
80320.2
77853.4
75405.6
72977.2
70568.9
68180.9
65813.9
63468.1
61143.6
58840.7
56559.1
54298.7
462612
462496
462369
462313
462334
462251
461892
461050
459638
457677
455318
452742
450133
447650
445428
443554
442025
440836
439887
439056
438203
437224
436065
434731
433249
431646
429952
428206
426423
424606
422762
420904
419040
417170
415292
413403
411504
409593
407670
405734
403785
401823
399847
397859
395857
393842
391813
389771
387716
385646
383564
381468
379359
377236
375100
372951
370789
368613
366425
364224
362009
359783
357543
355291
353026
350749
348459
346158
343844
341518
339181
336831
334470
332097
329713
327318
324911
322493
320064
317624
315174
312713
310241
307759
305267
302764
300252
297730
295198
292656
290105
287545
284976
282398
279811
277215
274610
271998
269377
266747
264111
261466
258814
256154
253487
250814
248133
245446
242753
240053
237348
234636
231920
229197
226470
223738
221001
218260
215514
212765
210012
207256
204496
201734
198969
196201
193432
190661
187889
185115
182341
179566
176791
174017
171243
168470
165698
162929
160161
157395
154632
151873
149117
146365
143618
140876
138139
135407
132682
129964
127253
124550
121856
119170
116493
113826
111170
108524
105891
103269
100660
98064.2
95482.4
92915.2
90363.1
87826.8
85306.9
82804
80318.7
77851.6
75403.3
72974.3
70565.2
68176.4
65808.4
63461.3
61135.5
58830.9
56547.7
54285.5
466686
466721
466844
467092
467287