/*--------------------------------*- C++ -*----------------------------------*\
  =========                 |
  \\      /  F ield         | OpenFOAM: The Open Source CFD Toolbox
   \\    /   O peration     | Website:  https://openfoam.org
    \\  /    A nd           | Version:  9
     \\/     M anipulation  |
\*---------------------------------------------------------------------------*/
FoamFile
{
    format      ascii;
    class       volVectorField;
    location    "0.005";
    object      U;
}
// * * * * * * * * * * * * * * * * * * * * * * * * * * * * * * * * * * * * * //

dimensions      [0 1 -1 0 0 0 0];

internalField   nonuniform List<vector> 
12225
(
(9.93602 0.0912424 0)
(9.49131 0.0737564 0)
(9.12037 0.0671291 0)
(8.81418 0.0494165 0)
(8.59815 0.0355339 0)
(8.3942 0.0426142 0)
(8.15144 0.0592713 0)
(7.88495 0.0655807 0)
(7.65034 0.0543728 0)
(7.46655 0.0403243 0)
(7.32232 0.0310964 0)
(7.19362 0.0360321 0)
(7.02932 0.0370529 0)
(6.91471 0.042314 0)
(6.70354 0.0363767 0)
(6.6748 0.0240374 0)
(6.4659 0.0219011 0)
(6.60025 -0.00116296 0)
(9.96006 0.0409254 0)
(10.1682 0.118746 0)
(10.2136 0.0810472 0)
(10.1683 0.0579663 0)
(10.1017 0.0628829 0)
(10.0521 0.0707836 0)
(10.0464 0.0753142 0)
(10.0756 0.0734354 0)
(10.1129 0.0652319 0)
(10.1306 0.0560534 0)
(10.1245 0.0495044 0)
(10.0994 0.0535629 0)
(10.0616 0.0551312 0)
(10.0285 0.0610823 0)
(9.98311 0.060351 0)
(9.96899 0.0461742 0)
(9.94264 0.0365617 0)
(9.96868 0.0324463 0)
(10.2087 -0.0314314 0)
(10.1586 0.0673086 0)
(10.1604 0.0764738 0)
(10.1005 0.075427 0)
(10.0505 0.0670698 0)
(10.0414 0.0524968 0)
(10.0756 0.0408666 0)
(10.1436 0.034775 0)
(10.2195 0.0321166 0)
(10.2745 0.0350452 0)
(10.2946 0.0432997 0)
(10.2873 0.0587239 0)
(10.271 0.0706957 0)
(10.259 0.0745879 0)
(10.2653 0.0691011 0)
(10.2894 0.046033 0)
(10.3264 0.0245777 0)
(10.3756 -0.00995341 0)
(9.75659 0.122681 0)
(9.77775 0.138161 0)
(9.91357 0.087131 0)
(10.0597 0.0757649 0)
(10.1782 0.0762724 0)
(10.2376 0.0689315 0)
(10.2421 0.0557473 0)
(10.2217 0.0421977 0)
(10.1988 0.0331344 0)
(10.1814 0.0343696 0)
(10.1711 0.0432031 0)
(10.1687 0.0546909 0)
(10.1781 0.0582305 0)
(10.2001 0.0509759 0)
(10.238 0.0363645 0)
(10.2881 0.0106591 0)
(10.3444 -0.0128867 0)
(10.4032 -0.0327029 0)
(9.64998 0.0451123 0)
(9.81785 0.0527985 0)
(9.9407 0.00229354 0)
(10.0145 0.00297231 0)
(10.0398 0.0163214 0)
(10.05 0.0274742 0)
(10.0677 0.0338824 0)
(10.0919 0.0357527 0)
(10.1109 0.0359441 0)
(10.1193 0.0404581 0)
(10.121 0.0504921 0)
(10.1254 0.0625288 0)
(10.1416 0.0683638 0)
(10.172 0.0599483 0)
(10.2165 0.0385859 0)
(10.2716 0.00448495 0)
(10.3286 -0.0308427 0)
(10.3855 -0.0609835 0)
(9.91682 0.0709273 0)
(10.024 0.0331839 0)
(9.98259 0.0294939 0)
(9.94358 0.0559088 0)
(9.9444 0.0708558 0)
(9.94818 0.0661666 0)
(9.93779 0.0523122 0)
(9.92575 0.0408681 0)
(9.9278 0.0357781 0)
(9.95361 0.036051 0)
(10.0055 0.038154 0)
(10.0773 0.0368066 0)
(10.1573 0.026792 0)
(10.2348 0.00655053 0)
(10.299 -0.019222 0)
(10.3507 -0.0489914 0)
(10.3846 -0.0775605 0)
(10.4098 -0.0961646 0)
(10.0108 0.0222123 0)
(9.97329 0.0445695 0)
(9.86996 0.024618 0)
(9.85245 0.0159701 0)
(9.88809 0.0115612 0)
(9.93202 0.0196542 0)
(9.97703 0.0279969 0)
(10.0281 0.0250325 0)
(10.0844 0.0126653 0)
(10.143 0.0014591 0)
(10.2022 -0.00304083 0)
(10.26 -0.00124707 0)
(10.3136 0.00102708 0)
(10.3573 -0.00210573 0)
(10.385 -0.0128842 0)
(10.3943 -0.031452 0)
(10.39 -0.0566492 0)
(10.3761 -0.0826638 0)
(10.0402 0.0130675 0)
(10.0294 0.0447843 0)
(10.0196 0.0625744 0)
(10.0698 0.0569116 0)
(10.1124 0.0525756 0)
(10.1032 0.0428162 0)
(10.0665 0.0249787 0)
(10.0437 0.00759181 0)
(10.0488 -0.00477416 0)
(10.0758 -0.0106111 0)
(10.117 -0.0134914 0)
(10.1659 -0.017333 0)
(10.2198 -0.0243318 0)
(10.2736 -0.0344457 0)
(10.3271 -0.046955 0)
(10.374 -0.0589578 0)
(10.4154 -0.0710463 0)
(10.4474 -0.0808441 0)
(10.2489 0.0259509 0)
(10.0677 0.0686745 0)
(9.97932 0.0165972 0)
(9.9578 -0.0216548 0)
(9.99653 -0.00676692 0)
(10.0696 0.0281916 0)
(10.1394 0.0422531 0)
(10.1881 0.0244714 0)
(10.2169 -0.00716626 0)
(10.2339 -0.0357666 0)
(10.2438 -0.0502859 0)
(10.2498 -0.0540163 0)
(10.2553 -0.0538951 0)
(10.2635 -0.0558613 0)
(10.2747 -0.0638623 0)
(10.2936 -0.0773447 0)
(10.3193 -0.0977534 0)
(10.3595 -0.119583 0)
(9.84998 -0.045303 0)
(10.081 0.10109 0)
(10.1899 0.0871303 0)
(10.1936 0.0501322 0)
(10.1494 0.0160621 0)
(10.0982 -0.0105989 0)
(10.0602 -0.0234131 0)
(10.0518 -0.0244766 0)
(10.0736 -0.0200739 0)
(10.1154 -0.0152968 0)
(10.1628 -0.0156203 0)
(10.2029 -0.0223771 0)
(10.2291 -0.0350949 0)
(10.2461 -0.0514806 0)
(10.2583 -0.0714943 0)
(10.2744 -0.0928086 0)
(10.2926 -0.117551 0)
(10.3223 -0.14274 0)
(9.75881 -0.163362 0)
(9.83419 -0.0476174 0)
(9.95764 -0.0139576 0)
(10.037 -0.00745751 0)
(10.0617 0.032367 0)
(10.0357 0.0697165 0)
(9.97692 0.0639706 0)
(9.92638 0.0126388 0)
(9.91521 -0.052595 0)
(9.94296 -0.0970093 0)
(9.98758 -0.10845 0)
(10.0285 -0.0961464 0)
(10.054 -0.0780883 0)
(10.0662 -0.0689598 0)
(10.0755 -0.0764987 0)
(10.0912 -0.098014 0)
(10.1229 -0.131616 0)
(10.1658 -0.16713 0)
(10.0122 -0.056865 0)
(9.99122 -0.0176354 0)
(10.0858 -0.00372286 0)
(10.1322 0.00154152 0)
(10.1441 0.0235109 0)
(10.1603 0.0437883 0)
(10.1854 0.040305 0)
(10.2017 0.0137124 0)
(10.1873 -0.0199893 0)
(10.1406 -0.0466853 0)
(10.0839 -0.0601546 0)
(10.0444 -0.0632465 0)
(10.0396 -0.064383 0)
(10.0741 -0.0730815 0)
(10.1409 -0.0948305 0)
(10.2251 -0.129677 0)
(10.3152 -0.173157 0)
(10.3913 -0.218083 0)
(9.9075 -0.0562612 0)
(9.94978 -0.0907248 0)
(9.95278 -0.0612835 0)
(9.92964 -0.0328092 0)
(9.93313 0.011503 0)
(9.96249 0.0438988 0)
(9.98484 0.03651 0)
(9.99133 0.00241865 0)
(9.99936 -0.031052 0)
(10.0245 -0.0492072 0)
(10.0701 -0.057744 0)
(10.1327 -0.0691787 0)
(10.2057 -0.0922584 0)
(10.2809 -0.128678 0)
(10.3478 -0.172922 0)
(10.4018 -0.217404 0)
(10.4347 -0.253178 0)
(10.4522 -0.276486 0)
(10.1921 -0.0468586 0)
(10.1003 -0.00263606 0)
(9.98201 0.00747447 0)
(9.86851 0.00459306 0)
(9.81699 0.0109085 0)
(9.81195 0.0231359 0)
(9.82813 0.0270899 0)
(9.86394 0.00832759 0)
(9.9243 -0.0333692 0)
(10.008 -0.0869795 0)
(10.107 -0.135649 0)
(10.208 -0.16827 0)
(10.295 -0.184432 0)
(10.3566 -0.188987 0)
(10.3837 -0.190991 0)
(10.3811 -0.195512 0)
(10.3518 -0.206006 0)
(10.3165 -0.223483 0)
(10.0621 -0.0592993 0)
(9.9531 0.0614373 0)
(9.92713 0.0673276 0)
(9.95276 0.0555619 0)
(9.99324 0.0652402 0)
(10.0217 0.0541106 0)
(10.0416 -0.00191239 0)
(10.0661 -0.0849474 0)
(10.0944 -0.161124 0)
(10.116 -0.207897 0)
(10.1258 -0.224413 0)
(10.129 -0.22112 0)
(10.1328 -0.209527 0)
(10.1409 -0.196303 0)
(10.1521 -0.185732 0)
(10.1621 -0.181458 0)
(10.1691 -0.185046 0)
(10.1707 -0.200428 0)
(10.0336 0.0888729 0)
(9.99159 0.131363 0)
(9.96142 0.00234343 0)
(9.99165 -0.0714942 0)
(10.0554 -0.0632153 0)
(10.1282 -0.0332127 0)
(10.1878 -0.0169304 0)
(10.2114 -0.0215427 0)
(10.1948 -0.0446001 0)
(10.1545 -0.0810159 0)
(10.1121 -0.124412 0)
(10.0812 -0.166516 0)
(10.0662 -0.199297 0)
(10.0658 -0.219057 0)
(10.0776 -0.226467 0)
(10.0985 -0.226771 0)
(10.1243 -0.226057 0)
(10.1536 -0.2294 0)
(9.89783 0.072466 0)
(10.0066 0.0748593 0)
(10.0906 0.0315245 0)
(10.1145 0.000690866 0)
(10.0856 -0.0252569 0)
(10.0586 -0.0521022 0)
(10.0523 -0.0782992 0)
(10.0584 -0.100446 0)
(10.0699 -0.118163 0)
(10.0794 -0.134262 0)
(10.0791 -0.151354 0)
(10.0664 -0.169017 0)
(10.045 -0.186185 0)
(10.0214 -0.203001 0)
(10.0024 -0.221083 0)
(9.99133 -0.241337 0)
(9.98945 -0.264377 0)
(9.99401 -0.288478 0)
(9.83456 -0.122591 0)
(9.84207 -0.170298 0)
(9.88779 -0.132774 0)
(9.94469 -0.0708041 0)
(9.98626 -0.0313158 0)
(10.014 -0.0215423 0)
(10.0264 -0.0305075 0)
(10.0307 -0.0496446 0)
(10.0327 -0.0703134 0)
(10.0311 -0.0860803 0)
(10.0269 -0.0970486 0)
(10.0269 -0.108267 0)
(10.0368 -0.124564 0)
(10.0569 -0.148108 0)
(10.084 -0.17565 0)
(10.1116 -0.20429 0)
(10.1363 -0.230383 0)
(10.1518 -0.253281 0)
(10.4197 -0.125439 0)
(10.3037 -0.0605426 0)
(10.2291 -0.0427055 0)
(10.2068 -0.0770599 0)
(10.2036 -0.0925167 0)
(10.2071 -0.0886361 0)
(10.1953 -0.0866111 0)
(10.1597 -0.0921199 0)
(10.1167 -0.102145 0)
(10.0829 -0.119547 0)
(10.0659 -0.152168 0)
(10.0662 -0.202847 0)
(10.0785 -0.262488 0)
(10.0943 -0.317133 0)
(10.1062 -0.353844 0)
(10.1098 -0.369469 0)
(10.1035 -0.365668 0)
(10.0898 -0.351636 0)
(9.87322 0.0726514 0)
(9.89538 0.0580671 0)
(9.9047 -0.0138609 0)
(9.89587 -0.0737875 0)
(9.91126 -0.0763783 0)
(9.96569 -0.031516 0)
(10.0164 0.0246712 0)
(10.0387 0.0564169 0)
(10.0414 0.0459244 0)
(10.0334 -0.00249631 0)
(10.0151 -0.0705097 0)
(9.98762 -0.137548 0)
(9.9562 -0.187957 0)
(9.92482 -0.215176 0)
(9.89629 -0.22041 0)
(9.87406 -0.210912 0)
(9.85982 -0.195175 0)
(9.85721 -0.181096 0)
(10.0774 -0.0380753 0)
(10.0703 -0.0665316 0)
(9.992 -0.0269822 0)
(9.91383 -0.0636177 0)
(9.8218 -0.129839 0)
(9.77391 -0.160232 0)
(9.78112 -0.139358 0)
(9.82086 -0.0928325 0)
(9.87238 -0.0556149 0)
(9.91339 -0.0472428 0)
(9.92753 -0.0680874 0)
(9.91614 -0.107853 0)
(9.89354 -0.154504 0)
(9.8735 -0.198778 0)
(9.86231 -0.236323 0)
(9.85962 -0.266829 0)
(9.86312 -0.292268 0)
(9.86802 -0.315021 0)
(9.94886 -0.121046 0)
(9.92119 0.0588919 0)
(9.90321 0.119379 0)
(9.90353 0.0720046 0)
(9.91785 0.0187032 0)
(9.94329 -0.0265662 0)
(9.96207 -0.0679688 0)
(9.96953 -0.0904861 0)
(9.98688 -0.0872046 0)
(10.0242 -0.0714253 0)
(10.068 -0.064456 0)
(10.0986 -0.0800502 0)
(10.1056 -0.116653 0)
(10.0885 -0.161799 0)
(10.0536 -0.199793 0)
(10.0106 -0.2224 0)
(9.96849 -0.227761 0)
(9.93384 -0.221124 0)
(9.97475 -0.0545397 0)
(10.0207 -0.0123261 0)
(10.0907 0.0125377 0)
(10.0951 -0.0460288 0)
(10.0469 -0.123377 0)
(10.0176 -0.148039 0)
(10.0303 -0.132283 0)
(10.0612 -0.116709 0)
(10.0981 -0.122297 0)
(10.1382 -0.143042 0)
(10.1708 -0.159745 0)
(10.1818 -0.15994 0)
(10.1644 -0.14594 0)
(10.1209 -0.13057 0)
(10.0599 -0.127202 0)
(9.99496 -0.140593 0)
(9.93587 -0.168942 0)
(9.89291 -0.203574 0)
(9.89363 -0.060701 0)
(9.92764 -0.0247127 0)
(10.0006 0.0552413 0)
(10.0665 0.0712124 0)
(10.0553 0.0265197 0)
(9.99354 -0.0454018 0)
(9.92998 -0.111138 0)
(9.88788 -0.147638 0)
(9.87516 -0.151554 0)
(9.89001 -0.133076 0)
(9.92193 -0.103304 0)
(9.95916 -0.0716783 0)
(9.99333 -0.047211 0)
(10.0184 -0.0365966 0)
(10.0277 -0.0431705 0)
(10.0167 -0.0645281 0)
(9.98564 -0.0961539 0)
(9.93762 -0.132987 0)
(9.97668 -0.0602219 0)
(9.9531 -0.0536819 0)
(9.95867 -0.0361432 0)
(10.0205 -0.0529026 0)
(10.0848 -0.0534932 0)
(10.1158 -0.0452254 0)
(10.1076 -0.0579785 0)
(10.0645 -0.096218 0)
(10.0126 -0.148784 0)
(9.98007 -0.198483 0)
(9.97494 -0.227996 0)
(9.98695 -0.227622 0)
(10.0018 -0.200341 0)
(10.0092 -0.1583 0)
(10.0064 -0.115983 0)
(9.99558 -0.0848406 0)
(9.98237 -0.0700247 0)
(9.97168 -0.0733547 0)
(9.97694 0.0664704 0)
(10.0908 -0.00948994 0)
(10.2091 -0.0119103 0)
(10.2505 -0.0177109 0)
(10.2309 -0.0454269 0)
(10.188 -0.0590353 0)
(10.142 -0.0583502 0)
(10.09 -0.0604648 0)
(10.0266 -0.0740987 0)
(9.95731 -0.093497 0)
(9.89108 -0.104064 0)
(9.8349 -0.0960786 0)
(9.79423 -0.0730142 0)
(9.77222 -0.048492 0)
(9.76924 -0.0371633 0)
(9.78119 -0.0451168 0)
(9.80286 -0.072015 0)
(9.8267 -0.109266 0)
(10.1862 -0.113453 0)
(10.1237 -0.151304 0)
(9.96781 -0.0942205 0)
(9.88362 -0.0339587 0)
(9.87062 -0.0123373 0)
(9.88989 -0.00946677 0)
(9.91871 -0.0160945 0)
(9.94437 -0.0387728 0)
(9.95562 -0.077117 0)
(9.94742 -0.11953 0)
(9.92411 -0.150679 0)
(9.89688 -0.161002 0)
(9.87824 -0.15195 0)
(9.87589 -0.133423 0)
(9.88972 -0.11621 0)
(9.91221 -0.106898 0)
(9.93571 -0.106907 0)
(9.94986 -0.113891 0)
(10.0722 0.0303414 0)
(10.003 0.0290385 0)
(9.99653 0.0634229 0)
(10.0514 0.0164538 0)
(10.1 -0.044173 0)
(10.1356 -0.0716105 0)
(10.1845 -0.0720164 0)
(10.2356 -0.0650569 0)
(10.2524 -0.0622692 0)
(10.2155 -0.0636704 0)
(10.1348 -0.0646486 0)
(10.0372 -0.0627881 0)
(9.95019 -0.0598822 0)
(9.89104 -0.0609239 0)
(9.86427 -0.0699507 0)
(9.86215 -0.0866146 0)
(9.8745 -0.107672 0)
(9.88877 -0.126498 0)
(9.92215 -0.0018949 0)
(9.95787 -0.0997405 0)
(10.0165 -0.0832635 0)
(10.0945 -0.0503136 0)
(10.141 -0.0473414 0)
(10.1289 -0.0628026 0)
(10.0905 -0.0760754 0)
(10.0641 -0.0784676 0)
(10.0597 -0.0733725 0)
(10.0679 -0.0674561 0)
(10.0749 -0.064895 0)
(10.0711 -0.0668244 0)
(10.0533 -0.0724615 0)
(10.0246 -0.081186 0)
(9.98748 -0.0924031 0)
(9.94502 -0.104934 0)
(9.89594 -0.116349 0)
(9.8422 -0.123215 0)
(9.82742 0.0218265 0)
(9.67289 -0.0187737 0)
(9.49101 -0.0232957 0)
(9.35069 -0.0373608 0)
(9.2112 -0.0480097 0)
(9.04265 -0.0457646 0)
(8.86108 -0.0435466 0)
(8.68003 -0.0496377 0)
(8.4978 -0.0590296 0)
(8.31756 -0.0625308 0)
(8.15054 -0.0560085 0)
(8.00516 -0.0429493 0)
(7.8791 -0.030877 0)
(7.7621 -0.026399 0)
(7.63853 -0.0314626 0)
(7.4998 -0.0432652 0)
(7.33977 -0.0567802 0)
(7.16772 -0.0663256 0)
(-0.0574534 0.118339 6.97186e-21)
(-0.170044 0.118799 -6.91976e-21)
(-0.282428 0.118667 0)
(-0.398095 0.118346 0)
(-0.512144 0.117318 0)
(-0.626228 0.115858 6.71122e-21)
(-0.73893 0.113892 0)
(-0.850045 0.111383 0)
(-0.958658 0.10814 0)
(-1.0643 0.104118 0)
(-1.16584 0.0992567 -6.48196e-21)
(-1.26242 0.0934713 0)
(-1.35327 0.0867224 0)
(-1.43723 0.0790948 0)
(-1.51302 0.0705468 0)
(-1.5798 0.0610089 -6.33726e-21)
(-1.63658 0.0506942 0)
(-1.68212 0.0395574 0)
(-1.71552 0.0277715 0)
(-1.73605 0.0155442 0)
(-1.74277 0.00305776 0)
(-1.73522 -0.00954138 0)
(-1.7132 -0.0220942 0)
(-1.67648 -0.0345863 -6.43027e-21)
(-1.62514 -0.0466267 6.47287e-21)
(-1.5594 -0.0582909 -6.52088e-21)
(-1.4798 -0.0693453 -6.5734e-21)
(-1.38677 -0.0796354 0)
(-1.28103 -0.0890871 0)
(-1.16346 -0.0976271 6.74767e-21)
(-1.03536 -0.105206 6.80758e-21)
(-0.897536 -0.111526 0)
(-0.751173 -0.116914 0)
(-0.597906 -0.12128 6.97745e-21)
(-0.438543 -0.124447 0)
(-0.27453 -0.126627 0)
(-0.106997 -0.127842 -7.11374e-21)
(0.0629096 -0.128164 0)
(0.234128 -0.127672 -7.16937e-21)
(0.405671 -0.126449 -1.43731e-20)
(0.576623 -0.124579 0)
(0.74616 -0.12215 0)
(0.913555 -0.119244 0)
(1.07817 -0.115943 0)
(1.23945 -0.112322 0)
(1.39695 -0.108453 -1.4332e-20)
(1.55028 -0.104397 -1.4288e-20)
(1.69914 -0.100213 -1.42351e-20)
(1.8433 -0.0959522 0)
(1.98257 -0.0916576 1.41052e-20)
(2.11683 -0.0873681 0)
(2.24603 -0.083116 -1.39479e-20)
(2.37013 -0.0789286 -1.38607e-20)
(2.48913 -0.0748284 0)
(2.60309 -0.0708335 0)
(2.71205 -0.0669582 0)
(2.81612 -0.0632135 -1.34687e-20)
(2.9154 -0.0596073 0)
(3.01 -0.0561452 0)
(3.10007 -0.0528305 0)
(3.18573 -0.0496647 0)
(3.26714 -0.0466478 0)
(3.34445 -0.0437787 0)
(3.4178 -0.0410549 0)
(3.48736 -0.0384733 0)
(3.55328 -0.0360303 1.24557e-20)
(3.61571 -0.0337213 0)
(3.67481 -0.0315418 0)
(3.73071 -0.0294867 -1.21065e-20)
(3.78357 -0.0275509 -1.19905e-20)
(3.83353 -0.0257291 0)
(3.88072 -0.0240161 1.17594e-20)
(3.92528 -0.0224065 -1.16446e-20)
(3.96734 -0.020895 0)
(4.00701 -0.0194768 1.14168e-20)
(4.04442 -0.0181466 0)
(4.07969 -0.0168997 0)
(4.11291 -0.0157314 -1.10805e-20)
(4.1442 -0.0146372 0)
(4.17366 -0.0136128 1.08601e-20)
(4.20138 -0.0126541 0)
(4.22745 -0.0117571 -1.06431e-20)
(4.25196 -0.0109182 -1.05359e-20)
(4.275 -0.0101337 -1.04296e-20)
(4.29664 -0.00940039 -2.06482e-20)
(4.31695 -0.00871494 2.0439e-20)
(4.33602 -0.00807452 0)
(4.3539 -0.00747623 0)
(4.37066 -0.00691719 0)
(4.38636 -0.00639527 1.96196e-20)
(4.40107 -0.00590818 1.9419e-20)
(4.41483 -0.00545278 -1.92202e-20)
(4.4277 -0.00502778 0)
(4.43972 -0.00463232 1.88275e-20)
(4.45095 -0.00426201 1.86336e-20)
(4.46143 -0.00391478 1.84414e-20)
(4.4712 -0.00359452 0)
(4.48031 -0.00329699 0)
(4.48878 -0.00301048 0)
(4.49665 -0.00274416 1.76882e-20)
(4.50396 -0.00251238 0)
(4.51076 -0.00228555 0)
(4.51705 -0.00204359 -1.71394e-20)
(4.52284 -0.00184061 0)
(4.5282 -0.00167894 0)
(4.53316 -0.00146078 -1.66037e-20)
(4.53763 -0.0011767 0)
(4.54159 -0.000871379 0)
(4.54505 -0.000587263 1.60804e-20)
(4.54806 -0.000345535 1.59086e-20)
(4.55066 -0.00016024 0)
(4.55293 -3.07661e-05 -1.55691e-20)
(4.55493 5.44782e-05 0)
(4.55669 0.000110167 1.52347e-20)
(4.55824 0.000148794 0)
(4.55962 0.000178602 1.49053e-20)
(4.56082 0.00020411 1.47425e-20)
(4.56186 0.00022734 0)
(4.56275 0.000249053 0)
(4.5635 0.000269489 0)
(4.56412 0.000288718 0)
(4.56461 0.000306789 0)
(4.56498 0.000323727 0)
(4.56524 0.000339549 0)
(4.5654 0.000354311 1.3482e-20)
(4.56546 0.000368047 -1.33295e-20)
(4.56543 0.000380856 0)
(4.56531 0.000392772 0)
(4.56511 0.000403877 0)
(4.56484 0.000414198 0)
(4.5645 0.000423812 -2.5166e-20)
(4.56408 0.000432739 0)
(4.56361 0.000441051 2.45832e-20)
(4.56307 0.000448768 -2.42949e-20)
(4.56248 0.000455975 0)
(4.56183 0.000462701 0)
(4.56114 0.000469022 0)
(4.56039 0.000474954 2.31612e-20)
(4.5596 0.000480554 2.28826e-20)
(4.55877 0.000485852 0)
(4.55789 0.000490897 2.23311e-20)
(4.55698 0.000495731 2.20582e-20)
(4.55602 0.000500376 -2.17871e-20)
(4.55503 0.000504882 0)
(4.55401 0.000509286 0)
(4.55294 0.000513668 -2.09848e-20)
(4.55185 0.00051808 0)
(4.55072 0.000522604 0)
(4.54955 0.000527313 0)
(4.54835 0.000532321 0)
(4.54712 0.000537736 1.96827e-20)
(4.54585 0.000543708 1.94273e-20)
(4.54454 0.000550406 0)
(4.54319 0.00055806 1.89216e-20)
(4.54179 0.000566933 0)
(4.54035 0.00057738 0)
(4.53885 0.000589817 1.81753e-20)
(4.53729 0.000604806 0)
(4.53565 0.000623001 1.76858e-20)
(4.53393 0.000645361 0)
(4.53211 0.000672837 0)
(4.53015 0.000707338 1.69638e-20)
(4.52805 0.000749695 0)
(4.52576 0.000804847 1.64908e-20)
(4.52322 0.000870681 0)
(4.5204 0.00096233 0)
(4.51716 0.00106611 0)
(4.51352 0.00121908 -1.55669e-20)
(4.50903 0.00140303 0)
(4.50415 0.00162029 1.51181e-20)
(4.49733 0.00206185 0)
(4.49041 0.00218606 0)
(4.47935 0.00349922 0)
(4.46821 0.00292698 0)
(4.44988 0.00684538 0)
(4.4274 0.00386967 0)
(4.39728 0.0159215 0)
(4.33617 0.00617817 -2.7078e-20)
(4.28637 0.0514734 0)
(4.06975 0.0409151 0)
(-0.0609256 0.367511 -2.08578e-20)
(-0.183749 0.368444 2.07011e-20)
(-0.303929 0.36685 0)
(-0.427622 0.364568 -1.35709e-20)
(-0.548782 0.359592 0)
(-0.668999 0.353113 -6.70841e-21)
(-0.786581 0.344926 1.32621e-20)
(-0.90147 0.334907 1.31641e-20)
(-1.01277 0.322822 0)
(-1.1198 0.30858 1.298e-20)
(-1.22163 0.292044 6.47944e-21)
(-1.31762 0.273055 0)
(-1.40688 0.251615 0)
(-1.4885 0.227663 0)
(-1.56177 0.201217 0)
(-1.62564 0.172196 6.33575e-21)
(-1.67937 0.140949 0)
(-1.72202 0.107587 -1.25607e-20)
(-1.75253 0.0723109 0)
(-1.77042 0.0355433 0)
(-1.77497 -0.00230986 1.26118e-20)
(-1.76516 -0.0408606 0)
(-1.74037 -0.0795233 -1.27202e-20)
(-1.70009 -0.117908 6.42944e-21)
(-1.64445 -0.155381 -6.47186e-21)
(-1.57399 -0.19151 6.5197e-21)
(-1.48894 -0.22584 6.57208e-21)
(-1.38993 -0.257921 0)
(-1.27782 -0.287268 0)
(-1.15356 -0.313613 -6.74605e-21)
(-1.01819 -0.33693 6.77579e-21)
(-0.872963 -0.356748 0)
(-0.719422 -0.373384 0)
(-0.558528 -0.386554 -6.97577e-21)
(-0.391459 -0.396489 0)
(-0.219962 -0.403278 0)
(-0.045002 -0.407118 7.11128e-21)
(0.132221 -0.4082 0)
(0.310634 -0.406786 -7.15963e-21)
(0.489241 -0.403134 1.43652e-20)
(0.667123 -0.397508 0)
(0.843461 -0.390173 0)
(1.01754 -0.381383 2.87862e-20)
(1.18873 -0.371385 2.87605e-20)
(1.35651 -0.360405 2.87128e-20)
(1.52042 -0.348656 -1.43205e-20)
(1.68011 -0.336327 1.42799e-20)
(1.83529 -0.323591 4.26777e-20)
(1.98573 -0.310599 -2.83284e-20)
(2.13126 -0.297482 -1.40972e-20)
(2.27179 -0.284356 0)
(2.40723 -0.271318 1.39401e-20)
(2.53758 -0.258449 -1.38492e-20)
(2.66284 -0.245819 0)
(2.78305 -0.233481 0)
(2.89828 -0.22148 0)
(3.0086 -0.209849 1.34614e-20)
(3.11412 -0.198614 0)
(3.21496 -0.187794 -2.64895e-20)
(3.31124 -0.177399 0)
(3.40309 -0.167437 -2.60444e-20)
(3.49066 -0.157908 0)
(3.57407 -0.148812 2.55888e-20)
(3.65349 -0.140143 0)
(3.72905 -0.131894 -2.51268e-20)
(3.80091 -0.124055 1.24456e-20)
(3.8692 -0.116615 0)
(3.93407 -0.109562 2.44293e-20)
(3.99566 -0.102883 1.21e-20)
(4.05411 -0.0965635 1.1984e-20)
(4.10955 -0.0905897 0)
(4.16213 -0.0849472 1.17504e-20)
(4.21195 -0.0796214 1.16383e-20)
(4.25916 -0.0745979 0)
(4.30386 -0.0698627 -1.14107e-20)
(4.34617 -0.0654016 2.25935e-20)
(4.38622 -0.0612011 0)
(4.42409 -0.0572479 1.10745e-20)
(4.4599 -0.0535293 0)
(4.49375 -0.0500327 -3.25611e-20)
(4.52573 -0.0467464 0)
(4.55594 -0.0436588 3.19107e-20)
(4.58445 -0.0407591 1.05303e-20)
(4.61136 -0.0380368 -1.04226e-20)
(4.63675 -0.0354818 -2.06345e-20)
(4.66069 -0.0330848 2.04256e-20)
(4.68326 -0.0308366 0)
(4.70452 -0.0287287 0)
(4.72455 -0.0267529 0)
(4.74341 -0.0249015 -5.88258e-20)
(4.76115 -0.0231673 -1.94088e-20)
(4.77785 -0.0215431 1.92101e-20)
(4.79355 -0.0200223 0)
(4.80831 -0.0185995 1.88162e-20)
(4.82217 -0.0172681 -1.86239e-20)
(4.83519 -0.0160216 -1.84318e-20)
(4.84742 -0.0148573 0)
(4.85889 -0.0137704 0)
(4.86964 -0.0127511 0)
(4.87972 -0.0117971 -1.76792e-20)
(4.88918 -0.0109134 0)
(4.89801 -0.0100865 3.46234e-20)
(4.90629 -0.00930009 5.13916e-20)
(4.91406 -0.00856948 -3.39011e-20)
(4.92131 -0.00789501 0)
(4.92807 -0.00724174 -1.65948e-20)
(4.93447 -0.00661834 0)
(4.94055 -0.00601985 -3.24903e-20)
(4.94636 -0.0054407 1.60719e-20)
(4.95194 -0.00491089 1.59003e-20)
(4.95725 -0.00444167 0)
(4.9623 -0.00402866 4.66839e-20)
(4.96707 -0.003663 -3.0787e-20)
(4.97155 -0.00333467 -1.52272e-20)
(4.97574 -0.00303516 0)
(4.97965 -0.0027589 -1.4898e-20)
(4.98328 -0.00250264 -4.42055e-20)
(4.98667 -0.00226463 0)
(4.98981 -0.00204377 -2.88265e-20)
(4.99272 -0.00183914 -2.85082e-20)
(4.99543 -0.0016498 -2.81922e-20)
(4.99793 -0.00147479 0)
(5.00025 -0.00131315 0)
(5.0024 -0.00116398 0)
(5.00438 -0.00102637 1.34754e-20)
(5.00621 -0.000899534 1.33232e-20)
(5.00791 -0.000782631 0)
(5.00947 -0.000674972 2.60431e-20)
(5.01091 -0.000575815 2.57447e-20)
(5.01223 -0.000484566 0)
(5.01345 -0.00040057 2.51544e-20)
(5.01457 -0.000323334 4.9724e-20)
(5.0156 -0.000252289 -2.4572e-20)
(5.01655 -0.000187017 -2.42835e-20)
(5.01742 -0.000126993 0)
(5.01821 -7.18487e-05 0)
(5.01894 -2.11137e-05 0)
(5.0196 2.55309e-05 -2.31508e-20)
(5.02021 6.8474e-05 2.28722e-20)
(5.02076 0.000108019 4.51916e-20)
(5.02126 0.000144487 -2.23213e-20)
(5.02172 0.000178181 2.20484e-20)
(5.02213 0.000209361 2.17777e-20)
(5.02251 0.000238327 0)
(5.02284 0.00026533 0)
(5.02314 0.000290683 -2.09757e-20)
(5.02341 0.000314655 0)
(5.02365 0.000337577 0)
(5.02385 0.000359758 4.03798e-20)
(5.02403 0.000381579 0)
(5.02418 0.000403414 1.96744e-20)
(5.02431 0.000425732 -1.94194e-20)
(5.0244 0.000449038 0)
(5.02447 0.000473984 1.89138e-20)
(5.0245 0.000501314 0)
(5.02451 0.000531982 0)
(5.02447 0.000567123 -1.8168e-20)
(5.0244 0.000608187 3.5845e-20)
(5.02427 0.000656968 -1.76788e-20)
(5.02408 0.000715761 0)
(5.02383 0.000787483 0)
(5.02348 0.000875881 1.69569e-20)
(5.02304 0.000985797 0)
(5.02244 0.00112348 1.6484e-20)
(5.0217 0.00129754 0)
(5.0207 0.00151692 0)
(5.0195 0.00180412 0)
(5.01778 0.00215178 1.5561e-20)
(5.01589 0.0026674 0)
(5.01284 0.00317444 -1.51125e-20)
(5.0099 0.00424465 0)
(5.00432 0.00481104 0)
(4.99963 0.00735463 2.89235e-20)
(4.98926 0.00750494 -2.8508e-20)
(4.98107 0.014069 0)
(4.96131 0.0124327 0)
(4.94497 0.0312704 0)
(4.90625 0.0262607 8.11206e-20)
(4.87317 0.0928674 0)
(4.814 0.105016 -5.29046e-20)
(-0.0603989 0.627119 9.07884e-23)
(-0.1847 0.629183 -2.74667e-20)
(-0.306164 0.626071 0)
(-0.431618 0.621195 2.70401e-20)
(-0.55493 0.611743 0)
(-0.677948 0.599694 0)
(-0.799092 0.584831 -9.591e-23)
(-0.918253 0.566886 -1.3159e-20)
(-1.03451 0.545671 -1.29635e-20)
(-1.14725 0.521019 -1.29749e-20)
(-1.25561 0.49268 0)
(-1.35864 0.460428 0)
(-1.45549 0.424234 1.26291e-20)
(-1.54509 0.383872 2.51305e-20)
(-1.62635 0.339319 -2.50241e-20)
(-1.69796 0.290702 0)
(-1.75873 0.238173 -2.48861e-20)
(-1.80775 0.182039 1.25564e-20)
(-1.84372 0.122649 0)
(-1.8657 0.0605011 -2.49e-20)
(-1.8728 -0.00368707 -1.26085e-20)
(-1.86402 -0.0693618 2.50674e-20)
(-1.83881 -0.135475 1.27158e-20)
(-1.79696 -0.201062 0)
(-1.73857 -0.265256 -2.5552e-20)
(-1.66413 -0.327064 -2.57668e-20)
(-1.57416 -0.385578 0)
(-1.46918 -0.440118 -2.62519e-20)
(-1.35027 -0.489946 0)
(-1.21892 -0.5346 -2.67779e-20)
(-1.07631 -0.573651 -1.35748e-20)
(-0.923726 -0.606955 0)
(-0.762685 -0.634475 0)
(-0.59467 -0.656032 0)
(-0.421064 -0.672143 0)
(-0.243277 -0.682903 0)
(-0.062565 -0.68862 0)
(0.119832 -0.689732 -2.85159e-20)
(0.302777 -0.68667 4.29363e-20)
(0.485296 -0.679889 0)
(0.66649 -0.669851 0)
(0.845568 -0.657011 0)
(1.02185 -0.641805 -9.19615e-24)
(1.19476 -0.624646 -2.87491e-20)
(1.36381 -0.605918 -5.73964e-20)
(1.5286 -0.585971 5.72608e-20)
(1.68884 -0.565122 2.854e-20)
(1.84427 -0.543652 -2.84408e-20)
(1.99472 -0.521808 6.11036e-24)
(2.14008 -0.499806 -2.81757e-20)
(2.28026 -0.47783 0)
(2.41525 -0.456035 -2.7862e-20)
(2.54505 -0.434553 6.57042e-24)
(2.6697 -0.413489 0)
(2.78927 -0.392932 0)
(2.90384 -0.372949 2.71121e-20)
(3.01351 -0.353593 0)
(3.1184 -0.334901 0)
(3.21863 -0.316902 -2.64709e-20)
(3.31434 -0.299612 -5.25143e-20)
(3.40567 -0.28304 2.60399e-20)
(3.49276 -0.267186 0)
(3.57576 -0.252046 -2.55848e-20)
(3.65481 -0.23761 0)
(3.73007 -0.223866 -2.51119e-20)
(3.80167 -0.210796 -2.48914e-20)
(3.86977 -0.198383 4.93074e-20)
(3.9345 -0.186605 2.44164e-20)
(3.996 -0.175442 0)
(4.0544 -0.164869 -4.7916e-20)
(4.10985 -0.154865 0)
(4.16247 -0.145404 -7.04957e-20)
(4.21238 -0.136465 -4.65364e-20)
(4.2597 -0.128023 -4.60807e-20)
(4.30456 -0.120055 4.56276e-20)
(4.34705 -0.11254 -6.77692e-20)
(4.3873 -0.105454 0)
(4.4254 -0.0987769 0)
(4.46146 -0.0924876 4.3844e-20)
(4.49557 -0.0865661 6.51116e-20)
(4.52783 -0.0809933 0)
(4.55832 -0.0757507 -2.12723e-20)
(4.58713 -0.0708206 0)
(4.61434 -0.0661861 6.2533e-20)
(4.64004 -0.061831 3.95519e-24)
(4.66429 -0.05774 -3.70832e-24)
(4.68716 -0.0538983 -4.04344e-20)
(4.70874 -0.050292 0)
(4.72907 -0.0469078 3.96164e-20)
(4.74824 -0.0437333 2.84851e-24)
(4.76628 -0.040756 0)
(4.78328 -0.037965 0)
(4.79927 -0.0353499 0)
(4.81431 -0.0328996 -3.76329e-20)
(4.82845 -0.0306044 0)
(4.84174 -0.0284571 0)
(4.85423 -0.0264478 0)
(4.86595 -0.0245651 0)
(4.87695 -0.0228062 0)
(4.88728 -0.0211667 -3.53554e-20)
(4.89696 -0.0196291 0)
(4.90603 -0.0181868 -3.46228e-20)
(4.91452 -0.0168498 -3.42602e-20)
(4.92249 -0.015605 3.39005e-20)
(4.92993 -0.0144357 0)
(4.93687 -0.0133536 3.31897e-20)
(4.94336 -0.0123501 0)
(4.94947 -0.0114165 3.24899e-20)
(4.9552 -0.0105646 -3.2144e-20)
(4.96056 -0.00978832 -9.54007e-20)
(4.96557 -0.00907007 0)
(4.97024 -0.00839803 -9.33649e-20)
(4.97461 -0.00776456 -3.07854e-20)
(4.97867 -0.00716576 0)
(4.98245 -0.00660072 -6.02456e-20)
(4.98597 -0.00606969 -5.95898e-20)
(4.98925 -0.00557281 8.84088e-20)
(4.99229 -0.0051096 0)
(4.99512 -0.00467896 2.88262e-20)
(4.99775 -0.00427935 2.85079e-20)
(5.00019 -0.00390904 8.45751e-20)
(5.00246 -0.00356622 0)
(5.00456 -0.00324913 0)
(5.00651 -0.00295604 0)
(5.00832 -0.00268534 2.69503e-20)
(5.01 -0.00243548 0)
(5.01155 -0.002205 0)
(5.01298 -0.00199252 -2.60429e-20)
(5.01431 -0.00179677 -2.57445e-20)
(5.01554 -0.00161653 0)
(5.01667 -0.00145065 0)
(5.01772 -0.00129807 -4.97235e-20)
(5.01869 -0.00115777 0)
(5.01958 -0.00102884 4.85668e-20)
(5.02041 -0.000910365 4.79942e-20)
(5.02117 -0.000801564 0)
(5.02187 -0.000701639 0)
(5.02252 -0.000609907 -4.63007e-20)
(5.02311 -0.000525675 -2.64867e-25)
(5.02366 -0.000448313 -2.45477e-25)
(5.02416 -0.000377213 0)
(5.02463 -0.000311797 -8.81928e-20)
(5.02506 -0.000251529 0)
(5.02545 -0.000195861 0)
(5.02581 -0.000144273 0)
(5.02614 -9.62175e-05 4.19512e-20)
(5.02644 -5.1188e-05 0)
(5.02671 -8.64164e-06 -8.17994e-20)
(5.02696 3.19665e-05 -4.03793e-20)
(5.02718 7.1265e-05 0)
(5.02738 0.000109918 -3.93485e-20)
(5.02755 0.000148698 0)
(5.0277 0.000188456 0)
(5.02782 0.000230215 -1.13482e-19)
(5.02791 0.000275166 7.46532e-20)
(5.02797 0.000324774 0)
(5.028 0.000380827 7.26705e-20)
(5.02799 0.000445532 -3.58446e-20)
(5.02792 0.000521744 0)
(5.02781 0.000612811 0)
(5.02762 0.000723651 0)
(5.02734 0.00085896 -1.0174e-19)
(5.02696 0.00102851 0)
(5.02643 0.00123656 -3.29681e-20)
(5.02575 0.00150726 0)
(5.02482 0.0018324 0)
(5.02366 0.00228567 0)
(5.02204 0.00279092 0)
(5.0201 0.00360156 0)
(5.01729 0.00435554 0)
(5.01403 0.0059339 -5.95593e-20)
(5.00913 0.00697642 0)
(5.00348 0.0102786 -2.8923e-20)
(4.99475 0.0116951 8.55083e-20)
(4.98462 0.0189707 0)
(4.96852 0.0214687 0)
(4.94971 0.0396218 -5.46664e-20)
(4.92108 0.0479329 -5.40512e-20)
(4.88861 0.101586 5.33047e-20)
(4.85259 0.139854 5.28994e-20)
(-0.0614914 0.890339 4.1103e-20)
(-0.191316 0.895735 4.07914e-20)
(-0.318044 0.891972 2.68938e-20)
(-0.449213 0.885192 1.32096e-20)
(-0.578544 0.872355 0)
(-0.707949 0.856124 -2.62476e-20)
(-0.836013 0.836018 1.28801e-20)
(-0.96268 0.811655 0)
(-1.08689 0.782774 1.2957e-20)
(-1.20812 0.748955 0)
(-1.3255 0.709844 -2.52393e-20)
(-1.43778 0.665087 0)
(-1.54402 0.614343 -1.26224e-20)
(-1.64309 0.557386 -2.51173e-20)
(-1.73345 0.494133 2.5011e-20)
(-1.8137 0.424708 0)
(-1.88256 0.349204 2.48737e-20)
(-1.93854 0.267992 0)
(-1.98025 0.181749 0)
(-2.00647 0.0912845 2.48896e-20)
(-2.01622 -0.00241403 0)
(-2.0083 -0.0983075 -3.65596e-22)
(-1.98177 -0.194868 0)
(-1.93654 -0.290663 0)
(-1.8728 -0.384178 3.1394e-22)
(-1.79103 -0.474015 2.57525e-20)
(-1.69202 -0.558841 2.57216e-20)
(-1.5768 -0.637443 2.62367e-20)
(-1.44676 -0.708925 0)
(-1.30336 -0.772588 5.33393e-20)
(-1.1482 -0.827826 0)
(-0.983158 -0.874436 2.71513e-20)
(-0.809844 -0.912405 0)
(-0.630006 -0.941858 0)
(-0.445286 -0.963133 -2.79158e-20)
(-0.257106 -0.976688 0)
(-0.0669037 -0.983073 2.83152e-20)
(0.123936 -0.982944 4.14249e-23)
(0.31435 -0.976955 -5.71743e-20)
(0.503333 -0.965794 5.73045e-20)
(0.690012 -0.950148 0)
(0.873649 -0.930681 0)
(1.05362 -0.908025 2.87225e-20)
(1.22943 -0.88277 0)
(1.40066 -0.855457 2.86816e-20)
(1.567 -0.826575 -2.86143e-20)
(1.72822 -0.796563 -2.85276e-20)
(1.88415 -0.765807 0)
(2.03468 -0.734643 2.83013e-20)
(2.17977 -0.703362 2.81648e-20)
(2.31939 -0.67221 -5.60103e-20)
(2.45358 -0.641393 2.7852e-20)
(2.58239 -0.611082 2.76785e-20)
(2.7059 -0.581418 0)
(2.82421 -0.55251 0)
(2.93744 -0.524446 -2.71042e-20)
(3.04571 -0.497292 0)
(3.14917 -0.471093 0)
(3.24795 -0.445883 5.2942e-20)
(3.34222 -0.421679 5.25019e-20)
(3.43212 -0.398488 0)
(3.5178 -0.376309 0)
(3.59942 -0.355132 0)
(3.67714 -0.334942 0)
(3.75111 -0.315717 5.02266e-20)
(3.82146 -0.297434 -4.97486e-20)
(3.88837 -0.280065 -4.92999e-20)
(3.95195 -0.263581 -9.76582e-20)
(4.01236 -0.24795 0)
(4.06974 -0.233141 1.25019e-23)
(4.1242 -0.219121 0)