/*--------------------------------*- C++ -*----------------------------------*\
  =========                 |
  \\      /  F ield         | OpenFOAM: The Open Source CFD Toolbox
   \\    /   O peration     | Website:  https://openfoam.org
    \\  /    A nd           | Version:  9
     \\/     M anipulation  |
\*---------------------------------------------------------------------------*/
FoamFile
{
    format      ascii;
    class       volVectorField;
    location    "0.005";
    object      U_0;
}
// * * * * * * * * * * * * * * * * * * * * * * * * * * * * * * * * * * * * * //

dimensions      [0 1 -1 0 0 0 0];

internalField   nonuniform List<vector> 
12225
(
(9.93293 0.0933118 0)
(9.48597 0.073187 0)
(9.11912 0.0667858 0)
(8.81721 0.0485615 0)
(8.60324 0.0352806 0)
(8.39743 0.0435069 0)
(8.15184 0.0603109 0)
(7.88447 0.0657738 0)
(7.65137 0.0537986 0)
(7.46949 0.0397827 0)
(7.32615 0.031067 0)
(7.19626 0.0364181 0)
(7.03086 0.0373423 0)
(6.91494 0.042439 0)
(6.70374 0.0359537 0)
(6.677 0.0235428 0)
(6.46968 0.0213342 0)
(6.60097 -0.00150484 0)
(9.96921 0.0608489 0)
(10.1718 0.119961 0)
(10.2124 0.0789429 0)
(10.1654 0.057509 0)
(10.0985 0.0633572 0)
(10.0512 0.0711894 0)
(10.0489 0.0753374 0)
(10.0802 0.0730358 0)
(10.1173 0.0646663 0)
(10.1332 0.0556043 0)
(10.1251 0.0494826 0)
(10.0984 0.0539066 0)
(10.06 0.0555461 0)
(10.0264 0.0615396 0)
(9.98144 0.0601932 0)
(9.96836 0.0453627 0)
(9.94349 0.0366817 0)
(9.9708 0.0322354 0)
(10.1838 -0.0132787 0)
(10.1539 0.0694046 0)
(10.1576 0.0769906 0)
(10.0963 0.0752393 0)
(10.0481 0.0660011 0)
(10.042 0.0513168 0)
(10.079 0.0401013 0)
(10.1487 0.0345887 0)
(10.2242 0.0325281 0)
(10.2768 0.0359723 0)
(10.2938 0.0446822 0)
(10.2843 0.0601908 0)
(10.2675 0.0716418 0)
(10.2564 0.0746964 0)
(10.2647 0.0681326 0)
(10.2907 0.0441299 0)
(10.3295 0.0223711 0)
(10.3808 -0.0124492 0)
(9.74417 0.123852 0)
(9.77777 0.133572 0)
(9.92278 0.0851523 0)
(10.0695 0.0756251 0)
(10.1851 0.0759526 0)
(10.24 0.0681462 0)
(10.2409 0.054756 0)
(10.2189 0.0414311 0)
(10.1957 0.0331265 0)
(10.1788 0.0352549 0)
(10.169 0.0444947 0)
(10.1672 0.0556517 0)
(10.1776 0.058267 0)
(10.201 0.0501004 0)
(10.2405 0.0347044 0)
(10.2919 0.00859695 0)
(10.3492 -0.0144479 0)
(10.4085 -0.0338036 0)
(9.65177 0.0313801 0)
(9.82466 0.0458144 0)
(9.94734 0.000155809 0)
(10.0181 0.00376278 0)
(10.0407 0.0172982 0)
(10.0505 0.0282872 0)
(10.0686 0.0344159 0)
(10.0926 0.0361212 0)
(10.1109 0.0365869 0)
(10.1185 0.0416104 0)
(10.1199 0.0519787 0)
(10.1248 0.0637722 0)
(10.1421 0.0686131 0)
(10.1739 0.0587795 0)
(10.2198 0.0361786 0)
(10.2757 0.00134919 0)
(10.3332 -0.0338042 0)
(10.3905 -0.0632783 0)
(9.92043 0.0430845 0)
(10.028 0.0274861 0)
(9.98014 0.029881 0)
(9.94252 0.0578305 0)
(9.94463 0.0716154 0)
(9.94759 0.0656935 0)
(9.93614 0.0515265 0)
(9.92426 0.0405054 0)
(9.9277 0.0360753 0)
(9.95572 0.0366787 0)
(10.0099 0.0386719 0)
(10.0832 0.0366167 0)
(10.1637 0.025586 0)
(10.2404 0.00458765 0)
(10.3032 -0.0216539 0)
(10.3533 -0.0515773 0)
(10.3857 -0.079461 0)
(10.4103 -0.0969595 0)
(10.0228 0.0189724 0)
(9.97133 0.0375229 0)
(9.86681 0.0229031 0)
(9.85383 0.0158734 0)
(9.89113 0.0122565 0)
(9.93509 0.0208242 0)
(9.98029 0.0286303 0)
(10.0319 0.0246813 0)
(10.0886 0.0120473 0)
(10.1475 0.0012385 0)
(10.2067 -0.00263732 0)
(10.2642 -0.00045983 0)
(10.3171 0.00164678 0)
(10.3593 -0.00204355 0)
(10.3848 -0.0136871 0)
(10.392 -0.033101 0)
(10.3862 -0.0588466 0)
(10.3717 -0.084847 0)
(10.0464 0.00561668 0)
(10.0354 0.0431185 0)
(10.0239 0.0629218 0)
(10.0745 0.0571972 0)
(10.1139 0.0529392 0)
(10.1009 0.042345 0)
(10.0634 0.0239765 0)
(10.0421 0.00674081 0)
(10.0492 -0.00508884 0)
(10.0776 -0.0103732 0)
(10.1199 -0.013193 0)
(10.1695 -0.017257 0)
(10.2237 -0.0245361 0)
(10.2774 -0.0348946 0)
(10.3308 -0.0474366 0)
(10.377 -0.0593334 0)
(10.4176 -0.0713029 0)
(10.4487 -0.0809968 0)
(10.2606 0.0237067 0)
(10.0641 0.0668327 0)
(9.97874 0.0134517 0)
(9.95933 -0.0215666 0)
(10.0007 -0.0036984 0)
(10.0748 0.030986 0)
(10.1436 0.0425886 0)
(10.1906 0.0231586 0)
(10.218 -0.00931241 0)
(10.234 -0.0370883 0)
(10.2432 -0.0504206 0)
(10.2489 -0.0534405 0)
(10.2544 -0.0531971 0)
(10.2627 -0.0555287 0)
(10.2744 -0.0641117 0)
(10.294 -0.0782552 0)
(10.321 -0.0992306 0)
(10.3627 -0.121307 0)
(9.87145 -0.0440376 0)
(10.1009 0.105715 0)
(10.1976 0.0866432 0)
(10.1929 0.0490235 0)
(10.1456 0.0150431 0)
(10.0942 -0.0112422 0)
(10.0578 -0.0233235 0)
(10.0516 -0.0237059 0)
(10.0754 -0.0188896 0)
(10.1185 -0.0142967 0)
(10.1658 -0.0151591 0)
(10.2048 -0.0225315 0)
(10.2297 -0.0357464 0)
(10.246 -0.0524856 0)
(10.258 -0.0727765 0)
(10.2745 -0.0943612 0)
(10.2934 -0.119418 0)
(10.3239 -0.144791 0)
(9.7766 -0.156062 0)
(9.85188 -0.0351734 0)
(9.96793 -0.00996928 0)
(10.0411 -0.0038548 0)
(10.0611 0.0369228 0)
(10.0314 0.0720599 0)
(9.97145 0.0623046 0)
(9.92287 0.00789792 0)
(9.915 -0.0567983 0)
(9.94511 -0.098744 0)
(9.99034 -0.107442 0)
(10.0303 -0.0936154 0)
(10.0543 -0.075662 0)
(10.0656 -0.0678407 0)
(10.0749 -0.0770538 0)
(10.0917 -0.100014 0)
(10.1249 -0.134489 0)
(10.1693 -0.170225 0)
(9.99668 -0.0320601 0)
(10.0016 -0.0078314 0)
(10.0935 0.000699693 0)
(10.1346 0.00523348 0)
(10.1445 0.0269341 0)
(10.1611 0.0455788 0)
(10.1864 0.0399002 0)
(10.2011 0.0120033 0)
(10.1836 -0.0218036 0)
(10.1345 -0.04764 0)
(10.0779 -0.0599747 0)
(10.0408 -0.0623969 0)
(10.0396 -0.0637563 0)
(10.0778 -0.0735152 0)
(10.1474 -0.0966855 0)
(10.233 -0.132769 0)
(10.3228 -0.176886 0)
(10.3974 -0.221867 0)
(9.91813 -0.0274303 0)
(9.9558 -0.0796007 0)
(9.95296 -0.0540225 0)
(9.92841 -0.0271673 0)
(9.93323 0.0161901 0)
(9.96329 0.045857 0)
(9.9849 0.0355447 0)
(9.99097 0.000328517 0)
(9.9999 -0.0324933 0)
(10.0267 -0.0494684 0)
(10.0741 -0.0576286 0)
(10.1382 -0.0697539 0)
(10.2119 -0.0941457 0)
(10.2869 -0.131769 0)
(10.3526 -0.176515 0)
(10.4049 -0.220516 0)
(10.4355 -0.254938 0)
(10.4509 -0.276609 0)
(10.1756 -0.0323554 0)
(10.087 0.00836226 0)
(9.97206 0.0131915 0)
(9.86138 0.00789772 0)
(9.81345 0.0134858 0)
(9.8111 0.0250634 0)
(9.82926 0.0276379 0)
(9.86706 0.00672123 0)
(9.9296 -0.0367006 0)
(10.0153 -0.090717 0)
(10.1155 -0.138406 0)
(10.2163 -0.169391 0)
(10.3015 -0.184073 0)
(10.36 -0.187795 0)
(10.3835 -0.189736 0)
(10.3776 -0.194657 0)
(10.3459 -0.205827 0)
(10.3099 -0.223743 0)
(10.0687 -0.0322873 0)
(9.95186 0.0798075 0)
(9.9251 0.0734039 0)
(9.95265 0.0579944 0)
(9.99359 0.0664716 0)
(10.0219 0.0522877 0)
(10.0421 -0.00711322 0)
(10.0672 -0.0912124 0)
(10.0955 -0.165847 0)
(10.1163 -0.209857 0)
(10.1253 -0.223912 0)
(10.1284 -0.219092 0)
(10.1325 -0.206795 0)
(10.1409 -0.193389 0)
(10.1522 -0.183088 0)
(10.1617 -0.179451 0)
(10.168 -0.184035 0)
(10.1689 -0.200644 0)
(10.006 0.138286 0)
(9.96979 0.137887 0)
(9.95067 -0.00201309 0)
(9.98973 -0.0728933 0)
(10.0576 -0.0609462 0)
(10.1316 -0.0305509 0)
(10.1902 -0.0157525 0)
(10.2109 -0.0219476 0)
(10.1913 -0.0464187 0)
(10.1498 -0.0837646 0)
(10.1078 -0.127422 0)
(10.0781 -0.168966 0)
(10.0645 -0.200518 0)
(10.0655 -0.218796 0)
(10.0784 -0.224943 0)
(10.1002 -0.224568 0)
(10.1266 -0.223808 0)
(10.156 -0.227718 0)
(9.89373 0.0726561 0)
(9.98853 0.0612895 0)
(10.0851 0.0242389 0)
(10.1093 -0.00367065 0)
(10.081 -0.0283589 0)
(10.0559 -0.0545652 0)
(10.0513 -0.0801741 0)
(10.0583 -0.101805 0)
(10.07 -0.119079 0)
(10.0792 -0.134978 0)
(10.0778 -0.151983 0)
(10.064 -0.169493 0)
(10.0419 -0.186474 0)
(10.0183 -0.203197 0)
(9.99991 -0.221325 0)
(9.98977 -0.241706 0)
(9.98878 -0.264826 0)
(9.99401 -0.288869 0)
(9.84177 -0.179857 0)
(9.83482 -0.184933 0)
(9.88965 -0.136287 0)
(9.94682 -0.0701666 0)
(9.98807 -0.0308815 0)
(10.0152 -0.0221048 0)
(10.027 -0.0316468 0)
(10.0309 -0.0508191 0)
(10.0327 -0.0710145 0)
(10.0308 -0.0861699 0)
(10.0266 -0.0967948 0)
(10.0272 -0.108158 0)
(10.0381 -0.124966 0)
(10.0591 -0.149006 0)
(10.0866 -0.176713 0)
(10.1142 -0.205177 0)
(10.1383 -0.230823 0)
(10.1529 -0.253407 0)
(10.4314 -0.140211 0)
(10.3225 -0.0660646 0)
(10.2325 -0.0487765 0)
(10.209 -0.0816809 0)
(10.2051 -0.0939006 0)
(10.2075 -0.0885221 0)
(10.1936 -0.0864132 0)
(10.1565 -0.0920541 0)
(10.1133 -0.102384 0)
(10.0804 -0.120715 0)
(10.065 -0.154932 0)
(10.0669 -0.206976 0)
(10.08 -0.266824 0)
(10.0959 -0.320246 0)
(10.1072 -0.354733 0)
(10.1099 -0.367942 0)
(10.1027 -0.362198 0)
(10.0881 -0.347186 0)
(9.86987 0.0837822 0)
(9.90055 0.0551549 0)
(9.91255 -0.0199959 0)
(9.90092 -0.0767298 0)
(9.91684 -0.0744119 0)
(9.97191 -0.0267304 0)
(10.021 0.029128 0)
(10.0408 0.0581548 0)
(10.0418 0.0442076 0)
(10.0327 -0.0068649 0)
(10.0133 -0.0758309 0)
(9.98519 -0.142064 0)
(9.95346 -0.190452 0)
(9.92211 -0.215248 0)
(9.89401 -0.218362 0)
(9.87261 -0.207514 0)
(9.85956 -0.191306 0)
(9.85829 -0.177596 0)
(10.0886 -0.0628341 0)
(10.0713 -0.0632958 0)
(9.99312 -0.0240688 0)
(9.91294 -0.0652597 0)
(9.81985 -0.131666 0)
(9.77411 -0.158731 0)
(9.78408 -0.134891 0)
(9.8255 -0.0878053 0)
(9.87687 -0.0522427 0)
(9.91602 -0.0465702 0)
(9.92774 -0.0697569 0)
(9.91467 -0.110879 0)
(9.89166 -0.157833 0)
(9.87224 -0.20166 0)
(9.86207 -0.238465 0)
(9.86033 -0.268293 0)
(9.86442 -0.293294 0)
(9.86948 -0.315796 0)
(9.95968 -0.130736 0)
(9.93783 0.0712013 0)
(9.91079 0.124812 0)
(9.90854 0.0723481 0)
(9.92171 0.018336 0)
(9.94651 -0.0274453 0)
(9.9641 -0.0686835 0)
(9.97131 -0.0897672 0)
(9.98983 -0.0850065 0)
(10.0283 -0.0690941 0)
(10.0718 -0.0636696 0)
(10.1008 -0.08152 0)
(10.1054 -0.119733 0)
(10.086 -0.165009 0)
(10.0497 -0.201754 0)
(10.0063 -0.222476 0)
(9.96481 -0.226036 0)
(9.9311 -0.218319 0)
(9.9913 -0.0147506 0)
(10.0472 0.00723219 0)
(10.1012 0.0211691 0)
(10.0965 -0.04511 0)
(10.0451 -0.123013 0)
(10.0173 -0.144859 0)
(10.0324 -0.128299 0)
(10.0645 -0.114324 0)
(10.1019 -0.12199 0)
(10.1419 -0.143481 0)
(10.1733 -0.159298 0)
(10.182 -0.157991 0)
(10.1618 -0.14318 0)
(10.1159 -0.128384 0)
(10.0536 -0.126651 0)
(9.98872 -0.141889 0)
(9.93085 -0.171535 0)
(9.88986 -0.206458 0)
(9.88661 -0.0117763 0)
(9.93111 0.00385911 0)
(10.0057 0.0718692 0)
(10.0689 0.077752 0)
(10.0525 0.0262418 0)
(9.9883 -0.0479904 0)
(9.92538 -0.113087 0)
(9.88555 -0.147588 0)
(9.87542 -0.149467 0)
(9.89237 -0.129564 0)
(9.92555 -0.099135 0)
(9.9632 -0.0677293 0)
(9.99701 -0.0443314 0)
(10.0209 -0.0353745 0)
(10.0284 -0.0437439 0)
(10.0151 -0.066583 0)
(9.98181 -0.0992095 0)
(9.93225 -0.136366 0)
(9.96392 -0.0359946 0)
(9.94915 -0.0307657 0)
(9.95746 -0.0224778 0)
(10.0224 -0.0460413 0)
(10.0863 -0.0485204 0)
(10.1153 -0.0424554 0)
(10.1044 -0.057937 0)
(10.0597 -0.0985469 0)
(10.0085 -0.152179 0)
(9.97841 -0.201145 0)
(9.9757 -0.228415 0)
(9.98902 -0.225269 0)
(10.0039 -0.195801 0)
(10.0105 -0.152831 0)
(10.0068 -0.110956 0)
(9.99541 -0.0812614 0)
(9.98228 -0.0684022 0)
(9.97197 -0.0736008 0)
(9.97933 0.112137 0)
(10.09 0.00910233 0)
(10.2072 0.000947034 0)
(10.2461 -0.0119311 0)
(10.2254 -0.0431625 0)
(10.1828 -0.0570612 0)
(10.137 -0.0565683 0)
(10.0845 -0.0597686 0)
(10.0204 -0.0745925 0)
(9.95107 -0.0940829 0)
(9.88553 -0.103381 0)
(9.83068 -0.0936843 0)
(9.7918 -0.0696938 0)
(9.77183 -0.0457081 0)
(9.77078 -0.0361274 0)
(9.78423 -0.0462682 0)
(9.80675 -0.0750036 0)
(9.83067 -0.113054 0)
(10.1803 -0.0541366 0)
(10.0975 -0.131411 0)
(9.94793 -0.080003 0)
(9.873 -0.0254939 0)
(9.86659 -0.00828224 0)
(9.88926 -0.0076044 0)
(9.91923 -0.0158625 0)
(9.94467 -0.0403846 0)
(9.95483 -0.0800502 0)
(9.94538 -0.122419 0)
(9.92149 -0.152147 0)
(9.89485 -0.160482 0)
(9.87784 -0.149883 0)
(9.87749 -0.130809 0)
(9.89292 -0.113976 0)
(9.91611 -0.105571 0)
(9.93926 -0.106533 0)
(9.95214 -0.11417 0)
(10.044 0.0624093 0)
(9.97212 0.0463525 0)
(9.98417 0.0700566 0)
(10.0473 0.0159388 0)
(10.0984 -0.0452387 0)
(10.1361 -0.0711519 0)
(10.187 -0.0705519 0)
(10.2374 -0.0637408 0)
(10.2507 -0.0615737 0)
(10.2095 -0.0633303 0)
(10.126 -0.0642516 0)
(10.0282 -0.06221 0)
(9.94317 -0.0593608 0)
(9.88723 -0.060883 0)
(9.86357 -0.0706346 0)
(9.86364 -0.0879062 0)
(9.87702 -0.109145 0)
(9.89118 -0.127626 0)
(9.89665 -0.00376235 0)
(9.92947 -0.095731 0)
(10.0051 -0.0770132 0)
(10.0898 -0.0462735 0)
(10.1369 -0.0463614 0)
(10.1238 -0.0630799 0)
(10.0862 -0.0760986 0)
(10.0621 -0.0778374 0)
(10.06 -0.072494 0)
(10.0693 -0.0668211 0)
(10.0764 -0.0647336 0)
(10.0718 -0.0670961 0)
(10.0532 -0.0730044 0)
(10.0238 -0.0818815 0)
(9.98611 -0.0931774 0)
(9.94317 -0.105634 0)
(9.89357 -0.116732 0)
(9.8395 -0.123138 0)
(9.82791 0.0151303 0)
(9.64491 -0.0197916 0)
(9.47642 -0.0230902 0)
(9.34407 -0.0377382 0)
(9.20712 -0.0478816 0)
(9.03902 -0.0452207 0)
(8.85791 -0.0434579 0)
(8.67715 -0.0501311 0)
(8.49505 -0.0595147 0)
(8.31532 -0.0624125 0)
(8.14942 -0.0551839 0)
(8.00539 -0.0418221 0)
(7.88028 -0.0300312 0)
(7.76333 -0.026228 0)
(7.63883 -0.0319873 0)
(7.49857 -0.0441993 0)
(7.33702 -0.0576933 0)
(7.1641 -0.0669033 0)
(-0.0573968 0.118185 -2.29189e-20)
(-0.169761 0.118568 2.27489e-20)
(-0.281876 0.118425 0)
(-0.397281 0.118092 0)
(-0.511049 0.117044 0)
(-0.624833 0.115559 -2.20478e-20)
(-0.73721 0.113564 0)
(-0.847976 0.111026 0)
(-0.95621 0.107753 0)
(-1.06145 0.1037 0)
(-1.16254 0.0988086 2.11592e-20)
(-1.25865 0.0929956 0)
(-1.349 0.0862207 0)
(-1.43244 0.0785697 0)
(-1.50767 0.0700039 0)
(-1.57387 0.060451 2.02128e-20)
(-1.63006 0.0501276 0)
(-1.67499 0.0389888 0)
(-1.70778 0.027207 0)
(-1.7277 0.0149919 0)
(-1.73382 0.00252814 0)
(-1.72569 -0.0100401 0)
(-1.70312 -0.0225586 0)
(-1.6659 -0.035015 1.84419e-20)
(-1.61409 -0.0470133 -1.81957e-20)
(-1.54793 -0.0586305 1.79455e-20)
(-1.46798 -0.0696353 1.76922e-20)
(-1.37465 -0.0798725 0)
(-1.26868 -0.0892695 0)
(-1.15092 -0.0977542 -1.69235e-20)
(-1.02272 -0.105281 -1.66678e-20)
(-0.884853 -0.111549 0)
(-0.738506 -0.116887 0)
(-0.585315 -0.121209 -1.5917e-20)
(-0.426083 -0.124335 0)
(-0.262248 -0.126478 0)
(-0.0949398 -0.127662 1.52073e-20)
(0.0747027 -0.127957 0)
(0.245624 -0.127443 1.47469e-20)
(0.416841 -0.126202 2.90488e-20)
(0.587444 -0.12432 0)
(0.756616 -0.121881 0)
(0.92363 -0.11897 0)
(1.08786 -0.115667 0)
(1.24875 -0.112047 0)
(1.40585 -0.10818 2.66783e-20)
(1.55879 -0.104129 2.63296e-20)
(1.70727 -0.0999523 2.59924e-20)
(1.85104 -0.0956991 0)
(1.98994 -0.0914136 -2.53503e-20)
(2.12384 -0.087134 0)
(2.25269 -0.0828924 2.47463e-20)
(2.37645 -0.0787159 2.44569e-20)
(2.49513 -0.0746267 0)
(2.60877 -0.0706429 0)
(2.71744 -0.0667786 0)
(2.82122 -0.0630447 2.33689e-20)
(2.92023 -0.0594491 0)
(3.01457 -0.0559972 0)
(3.10439 -0.0526924 0)
(3.18983 -0.0495361 0)
(3.27102 -0.0465283 0)
(3.34812 -0.0436677 0)
(3.42128 -0.0409521 0)
(3.49066 -0.0383783 0)
(3.55641 -0.0359426 -2.12018e-20)
(3.61868 -0.0336405 0)
(3.67762 -0.0314674 0)
(3.73339 -0.0294183 2.05349e-20)
(3.78611 -0.0274881 2.03169e-20)
(3.83595 -0.0256715 0)
(3.88303 -0.0239633 -1.98869e-20)
(3.92748 -0.0223582 1.96746e-20)
(3.96943 -0.0208509 0)
(4.00901 -0.0194365 -1.92549e-20)
(4.04634 -0.0181099 0)
(4.08152 -0.0168662 0)
(4.11467 -0.0157009 1.86368e-20)
(4.14589 -0.0146095 0)
(4.17528 -0.0135877 -1.82317e-20)
(4.20294 -0.0126313 0)
(4.22895 -0.0117365 1.78318e-20)
(4.25341 -0.0108995 1.76337e-20)
(4.2764 -0.0101168 1.74369e-20)
(4.29799 -0.00938511 3.44826e-20)
(4.31827 -0.00870116 -3.40937e-20)
(4.33729 -0.00806209 0)
(4.35514 -0.00746504 0)
(4.37186 -0.00690713 0)
(4.38754 -0.00638625 -3.25616e-20)
(4.40221 -0.00590008 -3.21843e-20)
(4.41595 -0.00544552 3.18093e-20)
(4.42879 -0.00502131 0)
(4.4408 -0.00462656 -3.1066e-20)
(4.45201 -0.00425683 -3.06977e-20)
(4.46247 -0.0039102 -3.03316e-20)
(4.47222 -0.00359059 0)
(4.48131 -0.0032934 0)
(4.48977 -0.00300712 0)
(4.49762 -0.00274155 -2.88891e-20)
(4.50492 -0.00251035 0)
(4.51171 -0.00228301 0)
(4.51799 -0.0020411 2.783e-20)
(4.52376 -0.00183961 0)
(4.52912 -0.00167779 0)
(4.53407 -0.00145729 2.67903e-20)
(4.53853 -0.00117215 0)
(4.54248 -0.000866931 0)
(4.54593 -0.000583695 -2.57695e-20)
(4.54893 -0.000343451 -2.54334e-20)
(4.55153 -0.000159846 0)
(4.55379 -3.18304e-05 2.47676e-20)
(4.55579 5.2425e-05 0)
(4.55754 0.000107576 -2.411e-20)
(4.5591 0.000146006 0)
(4.56047 0.000175803 -2.34606e-20)
(4.56167 0.000201398 -2.31389e-20)
(4.56272 0.000224737 0)
(4.56361 0.00024657 0)
(4.56436 0.000267114 0)
(4.56497 0.000286447 0)
(4.56546 0.000304611 0)
(4.56583 0.000321636 0)
(4.5661 0.000337532 0)
(4.56626 0.000352366 -2.0637e-20)
(4.56632 0.000366162 2.0333e-20)
(4.56629 0.000379033 0)
(4.56617 0.000390999 0)
(4.56597 0.000402157 0)
(4.5657 0.000412521 0)
(4.56536 0.000422182 3.7682e-20)
(4.56495 0.000431146 0)
(4.56447 0.000439498 -3.65141e-20)
(4.56394 0.000447247 3.59355e-20)
(4.56335 0.000454491 0)
(4.5627 0.000461245 0)
(4.56201 0.000467598 0)
(4.56127 0.000473557 -3.36567e-20)
(4.56048 0.000479187 -3.30957e-20)
(4.55964 0.000484511 0)
(4.55877 0.000489584 -3.19839e-20)
(4.55786 0.000494443 -3.1433e-20)
(4.55691 0.000499112 3.08855e-20)
(4.55592 0.000503639 0)
(4.55489 0.000508062 0)
(4.55383 0.000512461 2.92625e-20)
(4.55274 0.000516887 0)
(4.55161 0.000521423 0)
(4.55045 0.000526144 0)
(4.54925 0.000531161 0)
(4.54802 0.000536583 -2.66205e-20)
(4.54675 0.000542562 -2.61012e-20)
(4.54544 0.000549265 0)
(4.54409 0.000556922 -2.50715e-20)
(4.5427 0.000565798 0)
(4.54126 0.000576246 0)
(4.53976 0.000588683 -2.35483e-20)
(4.5382 0.00060367 0)
(4.53657 0.000621862 -2.25466e-20)
(4.53485 0.000644215 0)
(4.53303 0.000671684 0)
(4.53108 0.000706169 -2.10637e-20)
(4.52898 0.000748519 0)
(4.52669 0.000803635 -2.00876e-20)
(4.52416 0.00086947 0)
(4.52134 0.000961042 0)
(4.5181 0.00106482 0)
(4.51447 0.00121773 1.81615e-20)
(4.50998 0.00140148 0)
(4.5051 0.00161905 -1.72091e-20)
(4.49829 0.00205959 0)
(4.49137 0.00218504 0)
(4.48032 0.00349623 0)
(4.46918 0.00292517 0)
(4.45085 0.00684216 0)
(4.42839 0.00386609 0)
(4.39828 0.0159169 0)
(4.33719 0.00617045 2.67045e-20)
(4.28738 0.05147 0)
(4.0708 0.0409102 0)
(-0.0608381 0.366898 6.88018e-20)
(-0.183335 0.367571 -6.82898e-20)
(-0.303166 0.365955 0)
(-0.426517 0.363649 4.48467e-20)
(-0.547327 0.358633 0)
(-0.667183 0.352102 2.20386e-20)
(-0.784393 0.343857 -4.37964e-20)
(-0.898893 0.333773 -4.34453e-20)
(-1.00978 0.32162 0)
(-1.11639 0.307307 -4.27377e-20)
(-1.21778 0.290701 -2.11511e-20)
(-1.3133 0.271642 0)
(-1.40207 0.250137 0)
(-1.48319 0.226125 0)
(-1.55593 0.199629 0)
(-1.61925 0.170567 -2.0208e-20)
(-1.67241 0.139293 0)
(-1.71449 0.105922 3.96881e-20)
(-1.74442 0.0706538 0)
(-1.76173 0.0339137 0)
(-1.76569 -0.00388846 -3.83806e-20)
(-1.75528 -0.0423657 0)
(-1.72993 -0.0809346 3.74389e-20)
(-1.68913 -0.119208 -1.84395e-20)
(-1.63301 -0.156551 1.81928e-20)
(-1.56211 -0.192536 -1.79422e-20)
(-1.4767 -0.226708 -1.76886e-20)
(-1.37738 -0.258626 0)
(-1.26503 -0.287804 0)
(-1.1406 -0.313978 1.69194e-20)
(-1.00513 -0.337129 -1.67005e-20)
(-0.859866 -0.356785 0)
(-0.706355 -0.37327 0)
(-0.545552 -0.3863 1.59131e-20)
(-0.378627 -0.396109 0)
(-0.207327 -0.402786 0)
(-0.0326079 -0.406529 -1.52017e-20)
(0.144334 -0.407528 0)
(0.322434 -0.406046 1.47495e-20)
(0.500698 -0.402341 -2.90328e-20)
(0.678215 -0.396675 0)
(0.854172 -0.389311 0)
(1.02785 -0.380504 -5.55828e-20)
(1.19864 -0.370498 -5.48069e-20)
(1.36601 -0.359519 -5.40584e-20)
(1.52952 -0.347778 2.6673e-20)
(1.68881 -0.335464 -2.63146e-20)
(1.84358 -0.322747 -7.79421e-20)
(1.99363 -0.309777 5.13122e-20)
(2.13878 -0.296687 2.5336e-20)
(2.27893 -0.28359 0)
(2.41402 -0.270583 -2.47324e-20)
(2.54402 -0.257746 2.44514e-20)
(2.66894 -0.245148 0)
(2.78882 -0.232843 0)
(2.90373 -0.220875 0)
(3.01376 -0.209276 -2.33561e-20)
(3.11899 -0.198074 0)
(3.21956 -0.187284 4.57009e-20)
(3.31558 -0.176919 0)
(3.40718 -0.166986 4.47184e-20)
(3.49451 -0.157485 0)
(3.57771 -0.148416 -4.37665e-20)
(3.65691 -0.139772 0)
(3.73227 -0.131547 4.28405e-20)
(3.80394 -0.123731 -2.11958e-20)
(3.87205 -0.116313 0)
(3.93675 -0.109281 -4.14923e-20)
(3.99818 -0.102621 -2.05238e-20)
(4.05648 -0.0963195 -2.0306e-20)
(4.11178 -0.0903628 0)
(4.16422 -0.0847363 -1.98802e-20)
(4.21391 -0.0794256 -1.9664e-20)
(4.261 -0.0744163 0)
(4.30559 -0.0696943 1.92446e-20)
(4.3478 -0.0652455 -3.80775e-20)
(4.38774 -0.0610565 0)
(4.42552 -0.057114 -1.86268e-20)
(4.46125 -0.0534053 0)
(4.49501 -0.0499181 5.46681e-20)
(4.52691 -0.0466404 0)
(4.55704 -0.0435608 -5.34689e-20)
(4.58549 -0.0406686 -1.76243e-20)
(4.61234 -0.0379532 1.74295e-20)
(4.63766 -0.0354047 3.44678e-20)
(4.66155 -0.0330136 -3.4079e-20)
(4.68406 -0.0307709 0)
(4.70527 -0.0286681 0)
(4.72526 -0.026697 0)
(4.74407 -0.02485 9.7636e-20)
(4.76178 -0.0231199 3.21674e-20)
(4.77843 -0.0214994 -3.17926e-20)
(4.7941 -0.0199821 0)
(4.80882 -0.0185626 -3.10518e-20)
(4.82265 -0.0172341 3.06818e-20)
(4.83565 -0.0159904 3.03159e-20)
(4.84784 -0.0148286 0)
(4.85929 -0.0137441 0)
(4.87001 -0.0127268 0)
(4.88008 -0.011775 2.88744e-20)
(4.88951 -0.0108933 0)
(4.89833 -0.0100677 -5.63345e-20)
(4.90658 -0.00928269 -8.34493e-20)
(4.91434 -0.00855389 5.49362e-20)
(4.92157 -0.00788056 0)
(4.92832 -0.00722775 2.67778e-20)
(4.93471 -0.00660554 0)
(4.94078 -0.00600766 5.21904e-20)
(4.94658 -0.00542944 -2.57575e-20)
(4.95215 -0.00490128 -2.54216e-20)
(4.95746 -0.00443372 0)
(4.9625 -0.00402214 -7.42669e-20)
(4.96726 -0.00365757 4.88521e-20)
(4.97172 -0.00333003 2.40982e-20)
(4.9759 -0.00303109 0)
(4.9798 -0.00275529 2.34491e-20)
(4.98343 -0.00249942 6.93833e-20)
(4.98681 -0.00226178 0)
(4.98994 -0.00204126 4.49817e-20)
(4.99285 -0.00183695 4.43507e-20)
(4.99555 -0.00164792 4.37236e-20)
(4.99805 -0.0014732 0)
(5.00036 -0.00131182 0)
(5.0025 -0.0011629 0)
(5.00448 -0.00102551 -2.06274e-20)
(5.00631 -0.000898895 -2.03234e-20)
(5.008 -0.000782178 0)
(5.00956 -0.000674699 -3.94429e-20)
(5.01099 -0.000575694 -3.88465e-20)
(5.01231 -0.000484593 0)
(5.01353 -0.000400719 -3.76646e-20)
(5.01465 -0.000323604 -7.41586e-20)
(5.01568 -0.000252657 3.64974e-20)
(5.01662 -0.000187481 3.59194e-20)
(5.01749 -0.000127533 0)
(5.01828 -7.24657e-05 0)
(5.01901 -2.17861e-05 0)
(5.01967 2.48037e-05 3.36417e-20)
(5.02027 6.77105e-05 -3.30812e-20)
(5.02083 0.00010722 -6.50476e-20)
(5.02133 0.000143664 3.19699e-20)
(5.02178 0.000177337 -3.14194e-20)
(5.02219 0.000208501 -3.08721e-20)
(5.02257 0.000237452 0)
(5.0229 0.000264439 0)
(5.0232 0.000289778 2.92502e-20)
(5.02347 0.000313735 0)
(5.02371 0.000336643 0)
(5.02391 0.00035881 -5.53132e-20)
(5.02409 0.000380618 0)
(5.02424 0.00040244 -2.66096e-20)
(5.02437 0.000424744 2.60905e-20)
(5.02446 0.000448037 0)
(5.02453 0.00047297 -2.50614e-20)
(5.02456 0.000500288 0)
(5.02457 0.000530944 0)
(5.02453 0.000566072 2.35389e-20)
(5.02445 0.000607123 -4.60741e-20)
(5.02433 0.000655888 2.25377e-20)
(5.02414 0.000714665 0)
(5.02389 0.000786368 0)
(5.02354 0.000874742 -2.10558e-20)
(5.0231 0.000984633 0)
(5.02251 0.00112228 -2.00802e-20)
(5.02176 0.0012963 0)
(5.02076 0.00151565 0)
(5.01956 0.00180272 0)
(5.01784 0.00215046 -1.81547e-20)
(5.01595 0.00266562 0)
(5.0129 0.00317323 1.72027e-20)
(5.00996 0.00424213 0)
(5.00438 0.00480987 0)
(4.99969 0.00735128 -3.15642e-20)
(4.98932 0.00750309 3.06153e-20)
(4.98114 0.0140645 0)
(4.96138 0.0124296 0)
(4.94504 0.0312643 0)
(4.90633 0.026253 -8.01548e-20)
(4.87323 0.0928699 0)
(4.81413 0.105018 4.93998e-20)
(-0.0603312 0.625991 1.18624e-22)
(-0.184351 0.627624 9.11809e-20)
(-0.305516 0.624489 0)
(-0.430675 0.619585 -8.97767e-20)
(-0.553681 0.610082 0)
(-0.676378 0.597963 0)
(-0.797183 0.583018 -1.2163e-22)
(-0.915985 0.56498 4.34284e-20)
(-1.03186 0.543664 4.32018e-20)
(-1.14419 0.518902 4.2721e-20)
(-1.25211 0.490451 0)
(-1.35467 0.458085 0)
(-1.45101 0.421781 -4.17696e-20)
(-1.54007 0.381317 -8.27961e-20)
(-1.62076 0.336674 8.20372e-20)
(-1.69178 0.287983 0)
(-1.75193 0.235401 8.04622e-20)
(-1.80031 0.179242 -3.96747e-20)
(-1.83562 0.119856 0)
(-1.85695 0.0577436 7.7925e-20)
(-1.86339 -0.00637417 3.83704e-20)
(-1.85395 -0.0719332 -7.60831e-20)
(-1.82812 -0.137893 -3.74258e-20)
(-1.78571 -0.203288 0)
(-1.7268 -0.267258 7.31124e-20)
(-1.6519 -0.328816 7.20823e-20)
(-1.56154 -0.387057 0)
(-1.45625 -0.44131 6.99861e-20)
(-1.33708 -0.490845 0)
(-1.20557 -0.535204 6.78734e-20)
(-1.06288 -0.573967 3.33473e-20)
(-0.910276 -0.606995 0)
(-0.74929 -0.634257 0)
(-0.581394 -0.655576 0)
(-0.407965 -0.671474 0)
(-0.230406 -0.682046 0)
(-0.0499683 -0.687601 0)
(0.132117 -0.688578 5.99191e-20)
(0.314717 -0.685405 -8.84663e-20)
(0.496867 -0.678538 0)
(0.677671 -0.668436 0)
(0.856346 -0.655551 0)
(1.03221 -0.64032 -2.19626e-23)
(1.2047 -0.623152 5.47852e-20)
(1.37333 -0.604428 1.08094e-19)
(1.53772 -0.584497 -1.0665e-19)
(1.69754 -0.563674 -5.26359e-20)
(1.85256 -0.542237 5.19463e-20)
(2.00262 -0.520434 1.52673e-23)
(2.14759 -0.498477 5.06791e-20)
(2.28739 -0.47655 0)
(2.42202 -0.454807 4.94728e-20)
(2.55147 -0.433378 1.38107e-23)
(2.67579 -0.412369 0)
(2.79503 -0.391866 0)
(2.90929 -0.371938 -4.72465e-20)
(3.01867 -0.352635 0)
(3.12327 -0.333996 0)
(3.22324 -0.316048 4.57152e-20)
(3.31869 -0.298807 9.04167e-20)
(3.40977 -0.282282 -4.47105e-20)
(3.49663 -0.266473 0)
(3.57941 -0.251377 4.37597e-20)
(3.65826 -0.236983 0)
(3.73331 -0.223278 4.2853e-20)
(3.80473 -0.210246 4.23807e-20)
(3.87264 -0.197869 -8.38802e-20)
(3.9372 -0.186125 -4.15035e-20)
(3.99854 -0.174993 0)
(4.0568 -0.16445 8.12392e-20)
(4.11211 -0.154474 0)
(4.16459 -0.14504 1.19272e-19)
(4.21437 -0.136126 7.86693e-20)
(4.26158 -0.127707 7.78265e-20)
(4.30632 -0.119761 -7.69902e-20)
(4.3487 -0.112266 1.14235e-19)
(4.38885 -0.1052 0)
(4.42686 -0.0985405 0)
(4.46283 -0.092268 -7.37042e-20)
(4.49685 -0.0863621 -1.09341e-19)
(4.52903 -0.0808039 0)
(4.55945 -0.075575 3.5645e-20)
(4.58819 -0.0706576 0)
(4.61533 -0.0660349 -1.04573e-19)
(4.64096 -0.0616908 5.6463e-24)
(4.66515 -0.0576101 -5.27417e-24)
(4.68798 -0.0537779 6.73844e-20)
(4.7095 -0.0501805 0)
(4.72979 -0.0468046 -6.58526e-20)
(4.7489 -0.0436377 3.98725e-24)
(4.76691 -0.0406676 0)
(4.78386 -0.0378832 0)
(4.79981 -0.0352743 0)
(4.81482 -0.0328297 6.21001e-20)
(4.82893 -0.0305398 0)
(4.84219 -0.0283975 0)
(4.85464 -0.0263927 0)
(4.86634 -0.0245143 0)
(4.87732 -0.0227595 0)
(4.88762 -0.0211237 5.77509e-20)
(4.89727 -0.0195892 0)
(4.90632 -0.0181502 5.63336e-20)
(4.9148 -0.0168164 5.56323e-20)
(4.92274 -0.0155742 -5.49353e-20)
(4.93017 -0.0144073 0)
(4.9371 -0.0133278 -5.35541e-20)
(4.94357 -0.0123265 0)
(4.94967 -0.011395 -5.21898e-20)
(4.95539 -0.0105458 5.15138e-20)
(4.96073 -0.00977157 1.52528e-19)
(4.96573 -0.00905475 0)
(4.97039 -0.00838376 1.48534e-19)
(4.97475 -0.00775114 4.88527e-20)
(4.9788 -0.00715313 0)
(4.98257 -0.00658889 9.50913e-20)
(4.98609 -0.00605872 9.37971e-20)
(4.98935 -0.0055627 -1.38766e-19)
(4.99239 -0.00510035 0)
(4.99521 -0.00467053 -4.49812e-20)
(4.99784 -0.0042717 -4.43502e-20)
(5.00027 -0.00390213 -1.3117e-19)
(5.00253 -0.00355999 0)
(5.00463 -0.00324354 0)
(5.00658 -0.00295105 0)
(5.00838 -0.0026809 -4.12545e-20)
(5.01005 -0.00243155 0)
(5.0116 -0.00220154 0)
(5.01303 -0.0019895 3.94425e-20)
(5.01436 -0.00179413 3.88461e-20)
(5.01558 -0.00161425 0)
(5.01672 -0.00144869 0)
(5.01776 -0.00129641 7.41578e-20)
(5.01873 -0.00115638 0)
(5.01962 -0.00102769 -7.18379e-20)
(5.02044 -0.000909433 -7.06887e-20)
(5.0212 -0.000800829 0)
(5.0219 -0.000701071 0)
(5.02255 -0.000609487 6.7283e-20)
(5.02314 -0.000525379 -3.92828e-26)
(5.02369 -0.000448126 -3.96613e-26)
(5.02419 -0.000377117 0)
(5.02466 -0.000311781 1.25676e-19)
(5.02508 -0.000251583 0)
(5.02547 -0.000195978 0)
(5.02583 -0.00014445 0)
(5.02616 -9.64499e-05 -5.84996e-20)
(5.02646 -5.14728e-05 0)
(5.02673 -8.9754e-06 1.12738e-19)
(5.02698 3.15867e-05 5.53126e-20)
(5.0272 7.08427e-05 0)
(5.0274 0.000109457 5.32186e-20)
(5.02757 0.0001482 0)
(5.02772 0.000187924 0)
(5.02784 0.000229652 1.50367e-19)
(5.02793 0.000274575 -9.82035e-20)
(5.02799 0.000324155 0)
(5.02802 0.000380181 -9.4155e-20)
(5.02801 0.00044486 4.60735e-20)
(5.02794 0.000521046 0)
(5.02782 0.000612089 0)
(5.02764 0.000722898 0)
(5.02736 0.000858184 1.26333e-19)
(5.02698 0.00102769 0)
(5.02645 0.00123573 4.01596e-20)
(5.02577 0.00150633 0)
(5.02484 0.00183151 0)
(5.02368 0.00228455 0)
(5.02206 0.00279002 0)
(5.02012 0.00360004 0)
(5.01731 0.00435475 0)
(5.01405 0.00593171 6.69205e-20)
(5.00915 0.00697548 0)
(5.0035 0.0102761 3.15636e-20)
(4.99476 0.0116928 -9.18562e-20)
(4.98464 0.0189678 0)
(4.96853 0.0214658 0)
(4.94971 0.0396152 5.54897e-20)
(4.92108 0.04793 5.34587e-20)
(4.88861 0.101584 -5.15583e-20)
(4.85258 0.139847 -4.9395e-20)
(-0.0614411 0.888795 -1.38256e-19)
(-0.19103 0.893605 -1.37226e-19)
(-0.317508 0.889815 -9.08905e-20)
(-0.448427 0.882995 -4.52623e-20)
(-0.577495 0.870083 0)
(-0.706615 0.853749 8.87993e-20)
(-0.834371 0.833522 -4.42271e-20)
(-0.960703 0.809021 0)
(-1.08455 0.779985 -4.31802e-20)
(-1.20538 0.745999 0)
(-1.32231 0.706713 8.53244e-20)
(-1.43411 0.661778 0)
(-1.53982 0.610858 4.17476e-20)
(-1.63832 0.553735 8.27526e-20)
(-1.72807 0.490331 -8.19945e-20)
(-1.80768 0.420782 0)
(-1.87585 0.345188 -8.04223e-20)
(-1.93113 0.263925 0)
(-1.97212 0.177678 0)
(-1.9976 0.0872596 -7.78928e-20)
(-2.0066 -0.00634107 0)
(-1.99793 -0.102061 -4.12576e-22)
(-1.97071 -0.198393 0)
(-1.92484 -0.293905 0)
(-1.86052 -0.387086 3.54311e-22)
(-1.77825 -0.476547 -7.20423e-20)
(-1.67881 -0.560965 -7.13002e-20)
(-1.56326 -0.639137 -6.99457e-20)
(-1.43297 -0.710179 0)
(-1.28942 -0.773405 -1.35887e-19)
(-1.13419 -0.82822 0)
(-0.969173 -0.874426 -6.59134e-20)
(-0.795958 -0.912019 0)
(-0.61629 -0.941131 0)
(-0.431801 -0.962102 6.28391e-20)
(-0.243904 -0.975393 0)
(-0.0540309 -0.981553 -6.09085e-20)
(0.136444 -0.981239 6.41974e-23)
(0.326465 -0.9751 1.1798e-19)
(0.515032 -0.963826 -1.16223e-19)
(0.701281 -0.948097 0)
(0.884477 -0.928576 0)
(1.06401 -0.905892 -5.56209e-20)
(1.23937 -0.880631 0)
(1.41016 -0.85333 -5.40313e-20)
(1.57606 -0.824477 5.33096e-20)
(1.73685 -0.794507 5.26131e-20)
(1.89236 -0.763803 0)
(2.04249 -0.7327 -5.12895e-20)
(2.18718 -0.701486 -5.06594e-20)
(2.32643 -0.670405 1.00138e-19)
(2.46025 -0.639663 -4.94551e-20)
(2.58871 -0.609429 -4.88782e-20)
(2.71188 -0.579842 0)
(2.82987 -0.551011 0)
(2.94279 -0.523024 4.72326e-20)
(3.05077 -0.495945 0)
(3.15395 -0.46982 0)
(3.25247 -0.444681 -9.13844e-20)
(3.34648 -0.420546 -9.03955e-20)
(3.43614 -0.397421 0)
(3.52159 -0.375306 0)
(3.603 -0.35419 0)
(3.68051 -0.334057 0)
(3.75428 -0.314887 -8.56729e-20)
(3.82446 -0.296657 8.4789e-20)
(3.89118 -0.279337 8.38674e-20)
(3.9546 -0.2629 1.6598e-19)
(4.01486 -0.247313 0)