/*--------------------------------*- C++ -*----------------------------------*\
  =========                 |
  \\      /  F ield         | OpenFOAM: The Open Source CFD Toolbox
   \\    /   O peration     | Website:  https://openfoam.org
    \\  /    A nd           | Version:  9
     \\/     M anipulation  |
\*---------------------------------------------------------------------------*/
FoamFile
{
    format      ascii;
    class       surfaceScalarField;
    location    "0.13";
    object      phi;
}
// * * * * * * * * * * * * * * * * * * * * * * * * * * * * * * * * * * * * * //

dimensions      [0 3 -1 0 0 0 0];

internalField   nonuniform List<scalar> 
24170
(
3.1336e-06
5.48096e-08
3.04826e-06
8.53349e-08
2.97312e-06
7.51371e-08
2.90427e-06
6.88542e-08
2.83942e-06
6.48536e-08
2.78217e-06
5.72516e-08
2.73323e-06
4.89365e-08
2.69166e-06
4.15689e-08
2.65617e-06
3.54935e-08
2.62558e-06
3.05884e-08
2.59892e-06
2.66553e-08
2.57539e-06
2.35327e-08
2.55428e-06
2.11052e-08
2.53492e-06
1.93684e-08
2.51661e-06
1.83023e-08
2.49749e-06
1.91226e-08
2.47623e-06
2.1266e-08
3.98591e-08
2.43637e-06
3.45361e-06
1.84479e-08
3.45616e-06
8.27845e-08
3.44961e-06
8.16878e-08
3.43798e-06
8.04845e-08
3.42348e-06
7.93548e-08
3.40592e-06
7.48096e-08
3.38627e-06
6.85881e-08
3.36534e-06
6.25004e-08
3.3439e-06
5.69348e-08
3.32255e-06
5.19347e-08
3.3017e-06
4.75096e-08
3.28156e-06
4.36724e-08
3.26224e-06
4.04199e-08
3.24373e-06
3.78751e-08
3.22608e-06
3.59559e-08
3.20911e-06
3.60933e-08
3.19374e-06
3.66329e-08
4.78329e-08
3.18577e-06
3.66535e-06
1.56126e-08
3.67825e-06
6.98897e-08
3.6853e-06
7.46341e-08
3.68957e-06
7.62133e-08
3.69123e-06
7.76951e-08
3.69008e-06
7.59595e-08
3.68661e-06
7.20622e-08
3.68138e-06
6.77239e-08
3.67484e-06
6.34823e-08
3.66731e-06
5.94579e-08
3.65909e-06
5.57294e-08
3.65039e-06
5.23789e-08
3.64134e-06
4.94666e-08
3.63206e-06
4.71557e-08
3.62254e-06
4.54799e-08
3.61322e-06
4.54131e-08
3.60373e-06
4.61194e-08
5.14092e-08
3.60015e-06
3.92465e-06
1.63539e-08
3.93579e-06
5.87432e-08
3.94253e-06
6.78987e-08
3.94799e-06
7.07492e-08
3.95239e-06
7.32986e-08
3.95529e-06
7.30588e-08
3.95682e-06
7.05333e-08
3.95727e-06
6.72707e-08
3.95684e-06
6.39172e-08
3.95566e-06
6.06341e-08
3.95387e-06
5.75176e-08
3.95158e-06
5.46728e-08
3.94886e-06
5.21886e-08
3.94579e-06
5.0221e-08
3.94241e-06
4.88592e-08
3.93918e-06
4.86499e-08
3.93609e-06
4.9208e-08
5.15801e-08
3.93592e-06
4.20777e-06
1.57157e-08
4.21599e-06
5.05169e-08
4.22165e-06
6.22437e-08
4.22657e-06
6.58297e-08
4.23125e-06
6.86159e-08
4.23518e-06
6.91223e-08
4.23826e-06
6.74627e-08
4.2406e-06
6.4931e-08
4.24231e-06
6.2199e-08
4.24349e-06
5.94531e-08
4.24422e-06
5.67969e-08
4.24454e-06
5.43441e-08
4.24454e-06
5.21947e-08
4.24428e-06
5.04816e-08
4.24384e-06
4.92935e-08
4.24359e-06
4.89e-08
4.24373e-06
4.90722e-08
4.98703e-08
4.24544e-06
4.51044e-06
1.43651e-08
4.51685e-06
4.41004e-08
4.52216e-06
5.6942e-08
4.5268e-06
6.11835e-08
4.5314e-06
6.40198e-08
4.53557e-06
6.49526e-08
4.53913e-06
6.39045e-08
4.54214e-06
6.19179e-08
4.54469e-06
5.96509e-08
4.54683e-06
5.73131e-08
4.54861e-06
5.50142e-08
4.55009e-06
5.2868e-08
4.55131e-06
5.09736e-08
4.55235e-06
4.94351e-08
4.55333e-06
4.83165e-08
4.55451e-06
4.77229e-08
4.55611e-06
4.74674e-08
4.73067e-08
4.55868e-06
4.83412e-06
1.29664e-08
4.83957e-06
3.86474e-08
4.84481e-06
5.17003e-08
4.84939e-06
5.66072e-08
4.85388e-06
5.95279e-08
4.85809e-06
6.07459e-08
4.86183e-06
6.0166e-08
4.86513e-06
5.8615e-08
4.86806e-06
5.67181e-08
4.87067e-06
5.47069e-08
4.87299e-06
5.26963e-08
4.87506e-06
5.07949e-08
4.87694e-06
4.90941e-08
4.8787e-06
4.76702e-08
4.88046e-06
4.65579e-08
4.88242e-06
4.57702e-08
4.88474e-06
4.51378e-08
4.43803e-08
4.88767e-06
5.1809e-06
1.16489e-08
5.1857e-06
3.38491e-08
5.19082e-06
4.65763e-08
5.19539e-06
5.20426e-08
5.19983e-06
5.50827e-08
5.20407e-06
5.65085e-08
5.20792e-06
5.63097e-08
5.21141e-06
5.51322e-08
5.21457e-06
5.35516e-08
5.21746e-06
5.18169e-08
5.22011e-06
5.00483e-08
5.22256e-06
4.83474e-08
5.22486e-06
4.67945e-08
5.22708e-06
4.54437e-08
5.22934e-06
4.43052e-08
5.23176e-06
4.33468e-08
5.23448e-06
4.24203e-08
4.12966e-08
5.23756e-06
5.5526e-06
1.0388e-08
5.55684e-06
2.96059e-08
5.56175e-06
4.16695e-08
5.5663e-06
4.74902e-08
5.57074e-06
5.06448e-08
5.57502e-06
5.22237e-08
5.57899e-06
5.23405e-08
5.58263e-06
5.14948e-08
5.58598e-06
5.01978e-08
5.58909e-06
4.87079e-08
5.59199e-06
4.71502e-08
5.59472e-06
4.56188e-08
5.59733e-06
4.41832e-08
5.59989e-06
4.28808e-08
5.60249e-06
4.17071e-08
5.60523e-06
4.06135e-08
5.60817e-06
3.9479e-08
3.81425e-08
5.61132e-06
5.95098e-06
9.18049e-09
5.95475e-06
2.58406e-08
5.95939e-06
3.70247e-08
5.96391e-06
4.29705e-08
5.96835e-06
4.62063e-08
5.97268e-06
4.78924e-08
5.97676e-06
4.82628e-08
5.98055e-06
4.77086e-08
5.98408e-06
4.66688e-08
5.98738e-06
4.54e-08
5.9905e-06
4.4031e-08
5.99347e-06
4.26483e-08
5.99634e-06
4.13118e-08
5.99918e-06
4.00484e-08
6.00204e-06
3.88471e-08
6.00499e-06
3.76605e-08
6.00807e-06
3.63964e-08
3.49543e-08
6.01126e-06
6.37795e-06
8.03978e-09
6.38132e-06
2.24756e-08
6.38569e-06
3.26506e-08
6.39015e-06
3.85082e-08
6.39459e-06
4.17727e-08
6.39896e-06
4.3524e-08
6.40313e-06
4.40858e-08
6.40706e-06
4.37785e-08
6.41076e-06
4.29687e-08
6.41426e-06
4.19001e-08
6.41759e-06
4.07018e-08
6.42079e-06
3.94536e-08
6.42389e-06
3.82074e-08
6.42696e-06
3.69847e-08
6.43003e-06
3.57747e-08
6.43315e-06
3.45391e-08
6.43633e-06
3.32133e-08
3.1743e-08
6.43954e-06
5.74175e-06
7.12715e-09
5.74433e-06
1.98965e-08
5.74782e-06
2.916e-08
5.75153e-06
3.4795e-08
5.75527e-06
3.80326e-08
5.75898e-06
3.98103e-08
5.76258e-06
4.04877e-08
5.76601e-06
4.03509e-08
5.76927e-06
3.97128e-08
5.77237e-06
3.87979e-08
5.77534e-06
3.77317e-08
5.7782e-06
3.65894e-08
5.78099e-06
3.5418e-08
5.78374e-06
3.42368e-08
5.78648e-06
3.30381e-08
5.78922e-06
3.1794e-08
5.79197e-06
3.04596e-08
2.90105e-08
5.79471e-06
6.99913e-06
6.1519e-09
7.00186e-06
1.7169e-08
7.00564e-06
2.5383e-08
7.00979e-06
3.06427e-08
7.01405e-06
3.37706e-08
7.01833e-06
3.55324e-08
7.02252e-06
3.6295e-08
7.02656e-06
3.63122e-08
7.03043e-06
3.58424e-08
7.03414e-06
3.50844e-08
7.03772e-06
3.41568e-08
7.04118e-06
3.31298e-08
7.04455e-06
3.20455e-08
7.04786e-06
3.09231e-08
7.05114e-06
2.97603e-08
7.05439e-06
2.85412e-08
7.05761e-06
2.72391e-08
2.58527e-08
7.06077e-06
8.53188e-06
5.12315e-09
8.53473e-06
1.43191e-08
8.53876e-06
2.13461e-08
8.54335e-06
2.60567e-08
8.54816e-06
2.89627e-08
8.55304e-06
3.06455e-08
8.55789e-06
3.14453e-08
8.56262e-06
3.15842e-08
8.5672e-06
3.12682e-08
8.57162e-06
3.06642e-08
8.57589e-06
2.98795e-08
8.58004e-06
2.89781e-08
8.58409e-06
2.79984e-08
8.58805e-06
2.69601e-08
8.59195e-06
2.58676e-08
8.59577e-06
2.47161e-08
8.59952e-06
2.34943e-08
2.22163e-08
8.60315e-06
1.04003e-05
4.05129e-09
1.04032e-05
1.13639e-08
1.04075e-05
1.70669e-08
1.04125e-05
2.10419e-08
1.04179e-05
2.35855e-08
1.04235e-05
2.51017e-08
1.0429e-05
2.58726e-08
1.04345e-05
2.60844e-08
1.04399e-05
2.58949e-08
1.04451e-05
2.54352e-08
1.04502e-05
2.47956e-08
1.04552e-05
2.40325e-08
1.046e-05
2.31806e-08
1.04647e-05
2.22601e-08
1.04693e-05
2.12808e-08
1.04737e-05
2.02468e-08
1.04781e-05
1.91573e-08
1.80352e-08
1.04823e-05
1.26779e-05
2.9416e-09
1.2681e-05
8.29404e-09
1.26855e-05
1.25354e-08
1.2691e-05
1.55849e-08
1.26969e-05
1.76018e-08
1.27032e-05
1.88379e-08
1.27096e-05
1.94966e-08
1.27159e-05
1.97188e-08
1.27222e-05
1.96173e-08
1.27284e-05
1.92858e-08
1.27344e-05
1.8793e-08
1.27402e-05
1.81845e-08
1.27459e-05
1.74895e-08
1.27514e-05
1.67272e-08
1.27568e-05
1.59102e-08
1.2762e-05
1.50476e-08
1.2767e-05
1.41441e-08
1.32256e-08
1.27718e-05
1.54543e-05
1.7825e-09
1.54576e-05
5.05729e-09
1.54624e-05
7.68218e-09
1.54684e-05
9.61252e-09
1.54751e-05
1.0924e-08
1.54822e-05
1.17471e-08
1.54895e-05
1.21977e-08
1.54968e-05
1.23609e-08
1.55041e-05
1.23042e-08
1.55113e-05
1.20834e-08
1.55184e-05
1.17416e-08
1.55253e-05
1.13089e-08
1.5532e-05
1.08061e-08
1.55384e-05
1.02482e-08
1.55447e-05
9.64669e-09
1.55507e-05
9.01121e-09
1.55565e-05
8.34798e-09
7.68101e-09
1.55621e-05
1.88389e-05
5.31825e-10
1.88424e-05
1.52067e-09
1.88478e-05
2.31826e-09
1.88545e-05
2.91566e-09
1.88621e-05
3.33573e-09
1.88702e-05
3.6085e-09
1.88787e-05
3.75678e-09
1.88872e-05
3.79936e-09
1.88958e-05
3.75431e-09
1.89042e-05
3.63765e-09
1.89125e-05
3.46203e-09
1.89206e-05
3.23725e-09
1.89284e-05
2.97134e-09
1.8936e-05
2.67127e-09
1.89433e-05
2.34328e-09
1.89503e-05
1.99378e-09
1.8957e-05
1.62698e-09
1.26203e-09
1.89634e-05
2.29648e-05
-9.18444e-10
2.29689e-05
-2.61972e-09
2.29752e-05
-3.99712e-09
2.29832e-05
-5.00655e-09
2.29922e-05
-5.66392e-09
2.30018e-05
-6.05542e-09
2.30119e-05
-6.27415e-09
2.3022e-05
-6.37876e-09
2.30322e-05
-6.40613e-09
2.30422e-05
-6.38768e-09
2.3052e-05
-6.34888e-09
2.30616e-05
-6.30611e-09
2.30708e-05
-6.26841e-09
2.30797e-05
-6.24058e-09
2.30883e-05
-6.22483e-09
2.30965e-05
-6.22097e-09
2.31044e-05
-6.22894e-09
-6.2364e-09
2.31119e-05
1.68119e-05
-2.06709e-09
1.68151e-05
-5.86339e-09
1.682e-05
-8.93955e-09
1.68262e-05
-1.11503e-08
1.68331e-05
-1.25438e-08
1.68404e-05
-1.33537e-08
1.68479e-05
-1.37837e-08
1.68554e-05
-1.39422e-08
1.68629e-05
-1.39041e-08
1.68703e-05
-1.37401e-08
1.68774e-05
-1.35054e-08
1.68844e-05
-1.32342e-08
1.6891e-05
-1.29475e-08
1.68975e-05
-1.26586e-08
1.69036e-05
-1.23757e-08
1.69095e-05
-1.21028e-08
1.69151e-05
-1.18425e-08
-1.15865e-08
1.69205e-05
1.46357e-05
-3.17932e-09
1.46388e-05
-9.03213e-09
1.46437e-05
-1.37787e-08
1.46496e-05
-1.70526e-08
1.4656e-05
-1.89995e-08
1.46628e-05
-2.00938e-08
1.46696e-05
-2.06375e-08
1.46765e-05
-2.07649e-08
1.46832e-05
-2.05959e-08
1.46897e-05
-2.02468e-08
1.4696e-05
-1.97969e-08
1.4702e-05
-1.92918e-08
1.47078e-05
-1.87604e-08
1.47134e-05
-1.82229e-08
1.47187e-05
-1.76921e-08
1.47238e-05
-1.71747e-08
1.47286e-05
-1.66747e-08
-1.61865e-08
1.47332e-05
1.27412e-05
-4.23084e-09
1.27444e-05
-1.22518e-08
1.27494e-05
-1.87508e-08
1.27552e-05
-2.28661e-08
1.27613e-05
-2.51374e-08
1.27676e-05
-2.64091e-08
1.2774e-05
-2.69854e-08
1.27802e-05
-2.69931e-08
1.27862e-05
-2.66239e-08
1.2792e-05
-2.60491e-08
1.27976e-05
-2.53638e-08
1.28029e-05
-2.46178e-08
1.2808e-05
-2.38452e-08
1.28129e-05
-2.3071e-08
1.28175e-05
-2.23102e-08
1.28219e-05
-2.15702e-08
1.28261e-05
-2.08549e-08
-2.01604e-08
1.283e-05
1.10918e-05
-5.11106e-09
1.10951e-05
-1.55822e-08
1.11004e-05
-2.40593e-08
1.11062e-05
-2.86651e-08
1.11121e-05
-3.09999e-08
1.11181e-05
-3.23531e-08
1.11239e-05
-3.28727e-08
1.11296e-05
-3.26777e-08
1.11351e-05
-3.206e-08
1.11402e-05
-3.1236e-08
1.11452e-05
-3.0303e-08
1.11499e-05
-2.93122e-08
1.11543e-05
-2.83034e-08
1.11586e-05
-2.73041e-08
1.11626e-05
-2.63293e-08
1.11664e-05
-2.53859e-08
1.117e-05
-2.44769e-08
-2.35988e-08
1.11735e-05
9.65583e-06
-5.72773e-09
9.65936e-06
-1.91137e-08
9.66498e-06
-2.96719e-08
9.67067e-06
-3.43635e-08
9.67633e-06
-3.66574e-08
9.68199e-06
-3.80103e-08
9.68745e-06
-3.83313e-08
9.69261e-06
-3.78398e-08
9.69749e-06
-3.69433e-08
9.70212e-06
-3.58642e-08
9.7065e-06
-3.46826e-08
9.71064e-06
-3.34496e-08
9.71454e-06
-3.22105e-08
9.71824e-06
-3.09943e-08
9.72172e-06
-2.98154e-08
9.72502e-06
-2.86797e-08
9.72813e-06
-2.75884e-08
-2.65366e-08
9.73106e-06
8.40543e-06
-5.81006e-09
8.40982e-06
-2.34946e-08
8.41533e-06
-3.51847e-08
8.42053e-06
-3.95665e-08
8.42598e-06
-4.21031e-08
8.43147e-06
-4.34997e-08
8.43664e-06
-4.35021e-08
8.44142e-06
-4.26219e-08
8.44587e-06
-4.13954e-08
8.45003e-06
-4.00224e-08
8.45391e-06
-3.85604e-08
8.45752e-06
-3.70614e-08
8.46088e-06
-3.55734e-08
8.46401e-06
-3.41252e-08
8.46693e-06
-3.27306e-08
8.46964e-06
-3.13955e-08
8.47218e-06
-3.01205e-08
-2.89018e-08
8.47454e-06
7.31506e-06
-3.58511e-09
7.32195e-06
-3.03846e-08
7.32741e-06
-4.06424e-08
7.33219e-06
-4.43449e-08
7.33751e-06
-4.74277e-08
7.3429e-06
-4.88885e-08
7.34788e-06
-4.84803e-08
7.35238e-06
-4.71213e-08
7.35644e-06
-4.54585e-08
7.36009e-06
-4.36704e-08
7.36334e-06
-4.18162e-08
7.36624e-06
-3.99591e-08
7.36882e-06
-3.81487e-08
7.3711e-06
-3.6411e-08
7.37313e-06
-3.47578e-08
7.37493e-06
-3.31935e-08
7.37652e-06
-3.17153e-08
-3.03168e-08
7.37794e-06
6.36222e-06
4.25853e-09
6.37295e-06
-4.11135e-08
6.38008e-06
-4.77751e-08
6.38627e-06
-5.05328e-08
6.39225e-06
-5.34063e-08
6.39755e-06
-5.41868e-08
6.40192e-06
-5.28512e-08
6.40551e-06
-5.07113e-08
6.40843e-06
-4.83811e-08
6.41073e-06
-4.59729e-08
6.41247e-06
-4.35543e-08
6.41372e-06
-4.12031e-08
6.41454e-06
-3.89679e-08
6.41499e-06
-3.68681e-08
6.41515e-06
-3.49106e-08
6.41505e-06
-3.30963e-08
6.41475e-06
-3.1417e-08
-2.98523e-08
6.41429e-06
5.53608e-06
1.36422e-08
5.54776e-06
-5.27904e-08
5.55745e-06
-5.74663e-08
5.56602e-06
-5.91077e-08
5.5728e-06
-6.01805e-08
5.57723e-06
-5.86158e-08
5.57938e-06
-5.5007e-08
5.57983e-06
-5.11559e-08
5.57898e-06
-4.75371e-08
5.57713e-06
-4.41221e-08
5.5745e-06
-4.09186e-08
5.57126e-06
-3.79641e-08
5.56756e-06
-3.52721e-08
5.56353e-06
-3.28344e-08
5.55925e-06
-3.06366e-08
5.55483e-06
-2.86755e-08
5.55036e-06
-2.69422e-08
-2.53755e-08
5.54588e-06
4.85751e-06
-1.62584e-08
4.86091e-06
-5.61935e-08
4.86151e-06
-5.80621e-08
4.85884e-06
-5.64445e-08
4.85484e-06
-5.6179e-08
4.84815e-06
-5.19276e-08
4.83891e-06
-4.5762e-08
4.82767e-06
-3.99145e-08
4.81507e-06
-3.49387e-08
4.8017e-06
-3.07576e-08
4.78802e-06
-2.7235e-08
4.77433e-06
-2.4268e-08
4.76082e-06
-2.17656e-08
4.74763e-06
-1.96488e-08
4.73485e-06
-1.78545e-08
4.72255e-06
-1.63729e-08
4.71084e-06
-1.52305e-08
-1.49203e-08
4.70038e-06
4.18642e-06
4.13022e-06
4.07216e-06
4.01572e-06
3.95954e-06
3.90761e-06
3.86185e-06
3.82193e-06
3.787e-06
3.75624e-06
3.729e-06
3.70474e-06
3.68297e-06
3.66332e-06
3.64547e-06
3.62909e-06
3.61386e-06
3.59894e-06
1.18532e-08
-1.18532e-08
2.48555e-08
-1.30024e-08
3.40583e-08
-9.20279e-09
3.7998e-08
-3.93971e-09
3.628e-08
1.71803e-09
2.94204e-08
6.85959e-09
1.82481e-08
1.11724e-08
3.72723e-09
1.45208e-08
-1.32795e-08
1.70068e-08
-3.21256e-08
1.88461e-08
-5.23797e-08
2.0254e-08
-7.37796e-08
2.14e-08
-9.61778e-08
2.23982e-08
-1.19491e-07
2.33136e-08
-1.43667e-07
2.4176e-08
-1.68661e-07
2.49938e-08
-1.94426e-07
2.57645e-08
-2.20908e-07
2.64818e-08
-2.48047e-07
2.71394e-08
-2.7578e-07
2.77332e-08
-3.04044e-07
2.82637e-08
-3.32783e-07
2.87391e-08
-3.6196e-07
2.91771e-08
-3.91561e-07
2.96008e-08
-4.21614e-07
3.00531e-08
-4.52609e-07
3.09949e-08
-4.85395e-07
3.2786e-08
-5.16618e-07
3.12234e-08
-5.47454e-07
3.08355e-08
-5.82588e-07
3.51348e-08
-6.15658e-07
3.30691e-08
-6.48147e-07
3.24898e-08
-6.83257e-07
3.511e-08
-7.20891e-07
3.76332e-08
-7.61121e-07
4.02301e-08
-8.00613e-07
3.94922e-08
-8.39672e-07
3.9059e-08
-8.81512e-07
4.18396e-08
-9.21018e-07
3.95062e-08
-9.56654e-07
3.56358e-08
-9.94905e-07
3.8251e-08
-1.03427e-06
3.93686e-08
-1.07434e-06
4.0065e-08
-1.11481e-06
4.04729e-08
-1.15552e-06
4.07104e-08
-1.19637e-06
4.08454e-08
-1.23728e-06
4.09165e-08
-1.27823e-06
4.09461e-08
-1.31918e-06
4.09471e-08
-1.3601e-06
4.09262e-08
-1.40099e-06
4.08869e-08
-1.44182e-06
4.08303e-08
-1.48258e-06
4.07561e-08
-1.52324e-06
4.06632e-08
-1.56379e-06
4.055e-08
-1.6042e-06
4.04146e-08
-1.64446e-06
4.02549e-08
-1.68453e-06
4.00687e-08
-1.72438e-06
3.9854e-08
-1.76399e-06
3.96089e-08
-1.80332e-06
3.93314e-08
-1.84234e-06
3.90197e-08
-1.88101e-06
3.86725e-08
-1.9193e-06
3.82881e-08
-1.95717e-06
3.78654e-08
-1.99457e-06
3.74034e-08
-2.03147e-06
3.69012e-08
-2.06783e-06
3.6358e-08
-2.1036e-06
3.57735e-08
-2.13875e-06
3.51471e-08
-2.17323e-06
3.44788e-08
-2.207e-06
3.37684e-08
-2.24001e-06
3.30161e-08
-2.27224e-06
3.2222e-08
-2.30362e-06
3.13866e-08
-2.33413e-06
3.05103e-08
-2.36373e-06
2.95936e-08
-2.39236e-06
2.86371e-08
-2.42001e-06
2.76414e-08
-2.44661e-06
2.66072e-08
-2.47215e-06
2.55353e-08
-2.49657e-06
2.44262e-08
-2.51985e-06
2.32807e-08
-2.54195e-06
2.20991e-08
-2.56284e-06
2.08818e-08
-2.58246e-06
1.96289e-08
-2.6008e-06
1.83403e-08
-2.61782e-06
1.70152e-08
-2.63347e-06
1.56525e-08
-2.64772e-06
1.42503e-08
-2.66053e-06
1.28057e-08
-2.67184e-06
1.13147e-08
-2.68161e-06
9.77008e-09
-2.68978e-06
8.16301e-09
-2.69626e-06
6.48058e-09
-2.70096e-06
4.70708e-09
-2.7038e-06
2.83698e-09
-2.70465e-06
8.48425e-10
-2.70367e-06
-9.75601e-10
-2.70108e-06
-2.59657e-09
-2.69692e-06
-4.15559e-09
-2.69123e-06
-5.69574e-09
-2.68399e-06
-7.2363e-09
-2.6752e-06
-8.78455e-09
-2.66486e-06
-1.03414e-08
-2.65296e-06
-1.19059e-08
-2.63948e-06
-1.34764e-08
-2.62443e-06
-1.50509e-08
-2.6078e-06
-1.66272e-08
-2.5896e-06
-1.82033e-08
-2.56982e-06
-1.9777e-08
-2.54848e-06
-2.13462e-08
-2.52557e-06
-2.29087e-08
-2.50111e-06
-2.44624e-08
-2.4751e-06
-2.60052e-08
-2.44757e-06
-2.75349e-08
-2.41852e-06
-2.90494e-08
-2.38797e-06
-3.05466e-08
-2.35595e-06
-3.20243e-08
-2.32246e-06
-3.34806e-08
-2.28755e-06
-3.49133e-08
-2.25123e-06
-3.63206e-08
-2.21353e-06
-3.77004e-08
-2.17448e-06
-3.90511e-08
-2.13411e-06
-4.03707e-08
-2.09245e-06
-4.16575e-08
-2.04954e-06
-4.29096e-08
-2.00542e-06
-4.41254e-08
-1.96011e-06
-4.53031e-08
-1.91367e-06
-4.64414e-08
-1.86613e-06
-4.75388e-08
-1.81754e-06
-4.8594e-08
-1.76793e-06
-4.96058e-08
-1.71736e-06
-5.05731e-08
-1.66587e-06
-5.14947e-08
-1.6135e-06
-5.23696e-08
-1.5603e-06
-5.31971e-08
-1.50632e-06
-5.39766e-08
-1.45161e-06
-5.47075e-08
-1.39623e-06
-5.53895e-08
-1.3402e-06
-5.60222e-08
-1.2836e-06
-5.66054e-08
-1.22646e-06
-5.71393e-08
-1.16883e-06
-5.7624e-08
-1.11077e-06
-5.806e-08
-1.05233e-06
-5.84475e-08
-9.93539e-07
-5.87874e-08
-9.34459e-07
-5.90806e-08
-8.75131e-07
-5.93279e-08
-8.156e-07
-5.95304e-08
-7.55911e-07
-5.96895e-08
-6.96104e-07
-5.98065e-08
-6.36221e-07
-5.9883e-08
-5.76301e-07
-5.99204e-08
-5.16381e-07
-5.99203e-08
-4.56496e-07
-5.98841e-08
-3.96684e-07
-5.98128e-08
-3.36977e-07
-5.97068e-08
-2.7741e-07
-5.95669e-08
-2.1802e-07
-5.93899e-08
-1.58847e-07
-5.91735e-08
-9.99266e-08
-5.89201e-08
-4.13036e-08
-5.8623e-08
1.69766e-08
-5.82802e-08
7.48686e-08
-5.7892e-08
1.32366e-07
-5.74974e-08
1.89484e-07
-5.71181e-08
2.46244e-07
-5.67598e-08
3.02653e-07
-5.64096e-08
3.58707e-07
-5.60538e-08
4.14383e-07
-5.56756e-08
4.69634e-07
-5.52511e-08
5.24375e-07
-5.4741e-08
5.78451e-07
-5.40759e-08
6.3157e-07
-5.31196e-08
6.83166e-07
-5.15957e-08
7.31946e-07
-4.87803e-08
7.7491e-07
-4.29631e-08
8.03703e-07
-2.87933e-08
1.38685e-08
7.89834e-07
9.48257e-09
-2.13357e-08
1.28643e-08
-1.63841e-08
1.1124e-08
-7.4625e-09
5.70171e-09
1.48253e-09
-2.6221e-09
1.00419e-08
-1.36427e-08
1.78802e-08
-2.7253e-08
2.47826e-08
-4.33635e-08
3.06314e-08
-6.18084e-08
3.54517e-08
-8.23498e-08
3.93875e-08
-1.0473e-07
4.26347e-08
-1.28714e-07
4.53838e-08
-1.54106e-07
4.77897e-08
-1.80755e-07
4.99631e-08
-2.08554e-07
5.19743e-08
-2.37424e-07
5.38641e-08
-2.67314e-07
5.56543e-08
-2.98189e-07
5.73569e-08
-3.3003e-07
5.89809e-08
-3.62834e-07
6.05367e-08
-3.96609e-07
6.20391e-08
-4.31379e-07
6.35088e-08
-4.67172e-07
6.49702e-08
-5.04014e-07
6.64425e-08
-5.41926e-07
6.79652e-08
-5.80587e-07
6.96562e-08
-6.19238e-07
7.14365e-08
-6.60506e-07
7.24911e-08
-7.03102e-07
7.34319e-08
-7.43238e-07
7.52711e-08
-7.86362e-07
7.6193e-08
-8.30661e-07
7.67887e-08
-8.73879e-07
7.83279e-08
-9.16036e-07
7.97901e-08
-9.56835e-07
8.1029e-08
-9.98503e-07
8.11607e-08
-1.04056e-06
8.1119e-08
-1.07995e-06
8.12279e-08
-1.12099e-06
8.05407e-08
-1.16464e-06
7.92887e-08
-1.20563e-06
7.92438e-08
-1.24555e-06
7.92864e-08
-1.28478e-06
7.92924e-08
-1.32355e-06
7.92493e-08
-1.362e-06
7.91564e-08
-1.40018e-06
7.90219e-08
-1.43811e-06
7.88536e-08
-1.47582e-06
7.86568e-08
-1.51331e-06
7.84344e-08
-1.55057e-06
7.8187e-08
-1.5876e-06
7.79138e-08
-1.62438e-06
7.76125e-08
-1.6609e-06
7.728e-08
-1.69715e-06
7.69131e-08
-1.73311e-06
7.65078e-08
-1.76876e-06
7.60604e-08
-1.80407e-06
7.55669e-08
-1.83902e-06
7.50236e-08
-1.8736e-06
7.4427e-08
-1.90776e-06
7.37738e-08
-1.94149e-06
7.3061e-08
-1.97476e-06
7.22857e-08
-2.00753e-06
7.14455e-08
-2.03978e-06
7.05383e-08
-2.07148e-06
6.95622e-08
-2.10259e-06
6.85156e-08
-2.13309e-06
6.73972e-08
-2.16293e-06
6.62062e-08
-2.1921e-06
6.49417e-08
-2.22056e-06
6.36035e-08
-2.24827e-06
6.21912e-08
-2.27521e-06
6.0705e-08
-2.30134e-06
5.91451e-08
-2.32663e-06
5.75119e-08
-2.35105e-06
5.58062e-08
-2.37457e-06
5.40286e-08
-2.39715e-06
5.21803e-08
-2.41878e-06
5.0262e-08
-2.43941e-06
4.82751e-08
-2.45902e-06
4.62206e-08
-2.47759e-06
4.40998e-08
-2.49508e-06
4.19137e-08
-2.51146e-06
3.96636e-08
-2.52671e-06
3.73502e-08
-2.5408e-06
3.49744e-08
-2.55371e-06
3.2537e-08
-2.56541e-06
3.00382e-08
-2.57587e-06
2.74781e-08
-2.58508e-06
2.48567e-08
-2.593e-06
2.21732e-08
-2.59962e-06
1.94273e-08
-2.60492e-06
1.66182e-08
-2.6089e-06
1.3746e-08
-2.61155e-06
1.08119e-08
-2.61289e-06
7.82035e-09
-2.61296e-06
4.78245e-09
-2.61186e-06
1.72833e-09
-2.60969e-06
-1.31418e-09
-2.60635e-06
-4.31423e-09
-2.60166e-06
-7.2914e-09
-2.59552e-06
-1.02938e-08
-2.5879e-06
-1.33203e-08
-2.57876e-06
-1.637e-08
-2.56811e-06
-1.94417e-08
-2.55591e-06
-2.25327e-08
-2.54218e-06
-2.56395e-08
-2.5269e-06
-2.87583e-08
-2.51006e-06
-3.18848e-08
-2.49168e-06
-3.50149e-08
-2.47174e-06
-3.81443e-08
-2.45024e-06
-4.12688e-08
-2.42721e-06
-4.4384e-08
-2.40263e-06
-4.74858e-08
-2.37652e-06
-5.05699e-08
-2.34889e-06
-5.36321e-08
-2.31976e-06
-5.66682e-08
-2.28914e-06
-5.96739e-08
-2.25704e-06
-6.2645e-08
-2.22349e-06
-6.55774e-08
-2.1885e-06
-6.84668e-08
-2.1521e-06
-7.13094e-08
-2.11432e-06
-7.41012e-08
-2.07518e-06
-7.68383e-08
-2.03472e-06
-7.95172e-08
-1.99295e-06
-8.21342e-08
-1.94993e-06
-8.46857e-08
-1.90567e-06
-8.71682e-08
-1.86022e-06
-8.95783e-08
-1.81361e-06
-9.19127e-08
-1.76588e-06
-9.41684e-08
-1.71707e-06
-9.63425e-08
-1.66724e-06
-9.84326e-08
-1.61641e-06
-1.00436e-07
-1.56463e-06
-1.02351e-07
-1.51195e-06
-1.04175e-07
-1.45841e-06
-1.05906e-07
-1.40407e-06
-1.07542e-07
-1.34896e-06
-1.09083e-07
-1.29314e-06
-1.10527e-07
-1.23666e-06
-1.11874e-07
-1.17956e-06
-1.13122e-07
-1.12189e-06
-1.14272e-07
-1.06371e-06
-1.15323e-07
-1.00505e-06
-1.16277e-07
-9.45979e-07
-1.17133e-07
-8.86533e-07
-1.17894e-07
-8.26762e-07
-1.18559e-07
-7.66712e-07
-1.19131e-07
-7.06428e-07
-1.19612e-07
-6.45955e-07
-1.20004e-07
-5.85335e-07
-1.20309e-07
-5.24611e-07
-1.2053e-07
-4.63823e-07
-1.20671e-07
-4.03009e-07
-1.20735e-07
-3.42206e-07
-1.20723e-07
-2.81449e-07
-1.20641e-07
-2.20773e-07
-1.20489e-07
-1.6021e-07
-1.2027e-07
-9.9793e-08
-1.19984e-07
-3.95525e-08
-1.1963e-07
2.04792e-08
-1.19205e-07
8.02688e-08
-1.1871e-07
1.39789e-07
-1.18143e-07
1.99024e-07
-1.17515e-07
2.57972e-07
-1.1684e-07
3.16625e-07
-1.1615e-07
3.74976e-07
-1.15469e-07
4.33019e-07
-1.14803e-07
4.90747e-07
-1.14138e-07
5.48147e-07
-1.13453e-07
6.05189e-07
-1.12718e-07
6.61822e-07
-1.11884e-07
7.17955e-07
-1.10874e-07
7.73427e-07
-1.09548e-07
8.2795e-07
-1.07643e-07
8.80999e-07
-1.04645e-07
9.31559e-07
-9.93406e-08
9.7793e-07
-8.93337e-08
1.0168e-06
-6.76676e-08
-1.75187e-08
1.04819e-06
8.57243e-10
-2.2193e-08
-4.59009e-09
-1.09367e-08
-1.32479e-08
1.19531e-09
-2.40583e-08
1.2293e-08
-3.66183e-08
2.26018e-08
-5.08198e-08
3.20817e-08
-6.66866e-08
4.06495e-08
-8.42951e-08
4.82399e-08
-1.03699e-07
5.48556e-08
-1.24887e-07
6.05758e-08
-1.47785e-07
6.55324e-08
-1.72278e-07
6.98765e-08
-1.98238e-07
7.37504e-08
-2.25547e-07
7.72714e-08
-2.541e-07
8.05272e-08
-2.83814e-07
8.35789e-08
-3.14627e-07
8.64673e-08
-3.4649e-07
8.92199e-08
-3.79366e-07
9.18565e-08
-4.13222e-07
9.43932e-08
-4.48028e-07
9.68449e-08
-4.83744e-07
9.92249e-08
-5.20316e-07
1.01542e-07
-5.5767e-07
1.03796e-07
-5.9569e-07
1.05985e-07
-6.34122e-07
1.08088e-07
-6.72708e-07
1.10023e-07
-7.11875e-07
1.11658e-07
-7.51459e-07
1.13016e-07
-7.90474e-07
1.14287e-07
-8.29572e-07
1.1529e-07
-8.68822e-07
1.16039e-07
-9.07277e-07
1.16783e-07
-9.44853e-07
1.17366e-07
-9.81517e-07
1.17693e-07
-1.01799e-06
1.17631e-07
-1.0542e-06
1.1733e-07
-1.0898e-06
1.16832e-07
-1.12541e-06
1.16152e-07
-1.16155e-06
1.15424e-07
-1.19718e-06
1.14873e-07
-1.23233e-06
1.14438e-07
-1.2671e-06
1.14062e-07
-1.30156e-06
1.13712e-07
-1.33577e-06
1.13368e-07
-1.36977e-06
1.13021e-07
-1.40358e-06
1.12662e-07
-1.43721e-06
1.12287e-07
-1.47067e-06
1.11891e-07
-1.50395e-06
1.11468e-07
-1.53705e-06
1.11014e-07
-1.56996e-06
1.10522e-07
-1.60267e-06
1.09988e-07
-1.63516e-06
1.09404e-07
-1.66742e-06
1.08766e-07
-1.69942e-06
1.08067e-07
-1.73116e-06
1.07302e-07
-1.7626e-06
1.06466e-07
-1.79373e-06
1.05554e-07
-1.82452e-06
1.04561e-07
-1.85494e-06
1.03483e-07
-1.88497e-06
1.02316e-07
-1.91458e-06
1.01057e-07
-1.94374e-06
9.9702e-08
-1.97243e-06
9.82496e-08
-2.00061e-06
9.6697e-08
-2.02826e-06
9.50425e-08
-2.05533e-06
9.32847e-08
-2.08182e-06
9.14225e-08
-2.10767e-06
8.94552e-08
-2.13286e-06
8.73824e-08
-2.15736e-06
8.52042e-08
-2.18113e-06
8.29207e-08
-2.20415e-06
8.05326e-08
-2.22639e-06
7.80406e-08
-2.24781e-06
7.54458e-08
-2.26837e-06
7.27493e-08
-2.28807e-06
6.99526e-08
-2.30685e-06
6.70572e-08
-2.32469e-06
6.40648e-08
-2.34157e-06
6.0977e-08
-2.35745e-06
5.77955e-08
-2.37231e-06
5.45221e-08
-2.38612e-06
5.11586e-08
-2.39885e-06
4.77065e-08
-2.41048e-06
4.41673e-08
-2.42098e-06
4.05425e-08
-2.43034e-06
3.68336e-08
-2.43852e-06
3.30417e-08
-2.44552e-06
2.91686e-08
-2.45131e-06
2.52161e-08
-2.45588e-06
2.1187e-08
-2.45922e-06
1.70854e-08
-2.46132e-06
1.29174e-08
-2.46219e-06
8.69212e-09
-2.46184e-06
4.42516e-09
-2.46022e-06
1.15663e-10
-2.45736e-06
-4.1825e-09
-2.45315e-06
-8.51861e-09
-2.44755e-06
-1.2892e-08
-2.44053e-06
-1.73148e-08
-2.43207e-06
-2.17842e-08
-2.42214e-06
-2.62953e-08
-2.41074e-06
-3.08424e-08
-2.39785e-06
-3.54198e-08
-2.38347e-06
-4.00214e-08
-2.36759e-06
-4.4641e-08
-2.3502e-06
-4.92723e-08
-2.33131e-06
-5.39089e-08
-2.31091e-06
-5.85445e-08
-2.289e-06
-6.31729e-08
-2.2656e-06
-6.77877e-08
-2.2407e-06
-7.23826e-08
-2.21432e-06
-7.69513e-08
-2.18646e-06
-8.14876e-08
-2.15715e-06
-8.59853e-08
-2.12638e-06
-9.0438e-08
-2.09419e-06
-9.48395e-08
-2.06058e-06
-9.91836e-08
-2.02559e-06
-1.03464e-07
-1.98922e-06
-1.07675e-07
-1.95151e-06
-1.11811e-07
-1.91248e-06
-1.15865e-07
-1.87217e-06
-1.19833e-07
-1.83059e-06
-1.2371e-07
-1.78779e-06
-1.27489e-07
-1.74379e-06
-1.31166e-07
-1.69863e-06
-1.34735e-07
-1.65236e-06
-1.38192e-07
-1.60499e-06
-1.41532e-07
-1.55658e-06
-1.44752e-07
-1.50717e-06
-1.47846e-07
-1.45679e-06
-1.50812e-07
-1.4055e-06
-1.53646e-07
-1.35333e-06
-1.56345e-07
-1.30033e-06
-1.58906e-07
-1.24654e-06
-1.61327e-07
-1.19202e-06
-1.63605e-07
-1.13681e-06
-1.6574e-07
-1.08095e-06
-1.6773e-07
-1.0245e-06
-1.69574e-07
-9.67502e-07
-1.71272e-07
-9.10001e-07
-1.72824e-07
-8.52047e-07
-1.74231e-07
-7.93688e-07
-1.75493e-07
-7.34969e-07
-1.76612e-07
-6.75937e-07
-1.77591e-07
-6.16638e-07
-1.7843e-07
-5.57115e-07
-1.79135e-07
-4.97411e-07
-1.79707e-07
-4.37568e-07
-1.80151e-07
-3.77628e-07
-1.80471e-07
-3.17628e-07
-1.80671e-07
-2.57606e-07
-1.80756e-07
-1.97599e-07
-1.80731e-07
-1.37639e-07
-1.806e-07
-7.77598e-08
-1.80368e-07
-1.79913e-08
-1.80038e-07
4.1636e-08
-1.79611e-07
1.01093e-07
-1.79088e-07
1.60355e-07
-1.78467e-07
2.19398e-07
-1.77753e-07
2.7821e-07
-1.76955e-07
3.36789e-07
-1.76095e-07
3.95143e-07
-1.75194e-07
4.53259e-07
-1.74266e-07
5.11118e-07
-1.73328e-07
5.68702e-07
-1.72387e-07
6.25996e-07
-1.71432e-07
6.82981e-07
-1.70438e-07
7.39626e-07
-1.69363e-07
7.95878e-07
-1.68136e-07
8.51648e-07
-1.66644e-07
9.06787e-07
-1.64687e-07
9.61042e-07
-1.61897e-07
1.01399e-06
-1.5759e-07
1.06496e-06
-1.50317e-07
1.11303e-06
-1.37397e-07
1.15775e-06
-1.1239e-07
-6.31877e-08
1.20342e-06
-7.636e-09
-1.4557e-08
-1.95926e-08
1.01989e-09
-3.31003e-08
1.4703e-08
-4.77813e-08
2.6974e-08
-6.34794e-08
3.82999e-08
-8.02051e-08
4.88074e-08
-9.80449e-08
5.84892e-08
-1.17117e-07
6.73116e-08
-1.37528e-07
7.52669e-08
-1.59345e-07
8.23929e-08
-1.82581e-07
8.87686e-08
-2.07203e-07
9.44982e-08
-2.33144e-07
9.96916e-08
-2.60322e-07
1.04449e-07
-2.8865e-07
1.08855e-07
-3.18043e-07
1.12972e-07
-3.48422e-07
1.16846e-07
-3.7971e-07
1.20508e-07
-4.11833e-07
1.23979e-07
-4.44711e-07
1.27271e-07
-4.78257e-07
1.30391e-07
-5.12373e-07
1.3334e-07
-5.46942e-07
1.36111e-07
-5.81836e-07
1.3869e-07
-6.16907e-07
1.41057e-07
-6.52e-07
1.43181e-07
-6.86993e-07
1.45015e-07
-7.21858e-07
1.46523e-07
-7.56563e-07
1.47721e-07
-7.90932e-07
1.48655e-07
-8.24959e-07
1.49318e-07
-8.58665e-07
1.49745e-07
-8.91875e-07
1.49994e-07
-9.24573e-07
1.50064e-07
-9.56818e-07
1.49938e-07
-9.88792e-07
1.49605e-07
-1.02056e-06
1.49097e-07
-1.05218e-06
1.48448e-07
-1.08374e-06
1.47713e-07
-1.11529e-06
1.46978e-07
-1.14673e-06
1.46316e-07
-1.17802e-06
1.45723e-07
-1.20914e-06
1.45186e-07
-1.24012e-06
1.44685e-07
-1.27095e-06
1.44206e-07
-1.30167e-06
1.43734e-07
-1.33226e-06
1.43259e-07
-1.36275e-06
1.42771e-07
-1.39311e-06
1.4226e-07
-1.42337e-06
1.41719e-07
-1.45349e-06
1.41139e-07
-1.48348e-06
1.40511e-07
-1.51332e-06
1.39828e-07
-1.543e-06
1.3908e-07
-1.57249e-06
1.38261e-07
-1.60179e-06
1.37363e-07
-1.63086e-06
1.36379e-07
-1.6597e-06
1.35302e-07
-1.68827e-06
1.34125e-07
-1.71655e-06
1.32844e-07
-1.74452e-06
1.31453e-07
-1.77215e-06
1.29946e-07
-1.79942e-06
1.28319e-07
-1.82628e-06
1.26569e-07
-1.85272e-06
1.24692e-07
-1.87871e-06
1.22685e-07
-1.90422e-06
1.20547e-07
-1.92921e-06
1.18274e-07
-1.95365e-06
1.15866e-07
-1.97752e-06
1.13321e-07
-2.00077e-06
1.1064e-07
-2.02339e-06
1.07821e-07
-2.04534e-06
1.04866e-07
-2.06658e-06
1.01775e-07
-2.08709e-06
9.85489e-08
-2.10683e-06
9.51886e-08
-2.12578e-06
9.1696e-08
-2.1439e-06
8.80729e-08
-2.16116e-06
8.43211e-08
-2.17754e-06
8.04429e-08
-2.193e-06
7.64405e-08
-2.20752e-06
7.23163e-08
-2.22107e-06
6.80729e-08
-2.23363e-06
6.37126e-08
-2.24516e-06
5.9238e-08
-2.25564e-06
5.46516e-08
-2.26506e-06
4.99558e-08
-2.27338e-06
4.51533e-08
-2.28058e-06
4.02468e-08
-2.28665e-06
3.52392e-08
-2.29157e-06
3.0134e-08
-2.29532e-06
2.49356e-08
-2.29788e-06
1.96494e-08
-2.29925e-06
1.4282e-08
-2.2994e-06
8.84194e-09
-2.29831e-06
3.33803e-09
-2.29597e-06
-2.22395e-09
-2.29232e-06
-7.83179e-09
-2.28734e-06
-1.34994e-08
-2.281e-06
-1.92342e-08
-2.27328e-06
-2.50375e-08
-2.26416e-06
-3.09044e-08
-2.25362e-06
-3.68278e-08
-2.24167e-06
-4.27999e-08
-2.22827e-06
-4.88126e-08
-2.21344e-06
-5.48574e-08
-2.19715e-06
-6.09261e-08
-2.17941e-06
-6.70104e-08
-2.16022e-06
-7.31018e-08
-2.13957e-06
-7.91921e-08
-2.11747e-06
-8.52729e-08
-2.09392e-06
-9.13359e-08
-2.06893e-06
-9.73728e-08
-2.04251e-06
-1.03375e-07
-2.01466e-06
-1.09336e-07
-1.9854e-06
-1.15245e-07
-1.95475e-06
-1.21095e-07
-1.92271e-06