/*--------------------------------*- C++ -*----------------------------------*\
  =========                 |
  \\      /  F ield         | OpenFOAM: The Open Source CFD Toolbox
   \\    /   O peration     | Website:  https://openfoam.org
    \\  /    A nd           | Version:  9
     \\/     M anipulation  |
\*---------------------------------------------------------------------------*/
FoamFile
{
    format      ascii;
    class       volVectorField;
    location    "0.13";
    object      U;
}
// * * * * * * * * * * * * * * * * * * * * * * * * * * * * * * * * * * * * * //

dimensions      [0 1 -1 0 0 0 0];

internalField   nonuniform List<vector> 
12225
(
(9.86107 -0.874317 0)
(9.67246 -0.700189 0)
(9.45891 -0.387585 0)
(9.22456 -0.188468 0)
(9.00332 -0.0843819 0)
(8.81014 -0.0328608 0)
(8.64476 -0.00753109 0)
(8.50364 0.00504997 0)
(8.38331 0.0113687 0)
(8.28025 0.0145136 0)
(8.19106 0.0160209 0)
(8.11285 0.0167073 0)
(8.04321 0.0170185 0)
(7.98029 0.0172541 0)
(7.92107 0.0176092 0)
(7.86653 0.0188843 0)
(7.79501 0.0219381 0)
(7.76837 0.0319801 0)
(10.0547 0.263071 0)
(10.1201 0.360746 0)
(10.118 0.273831 0)
(10.0826 0.187103 0)
(10.0405 0.131183 0)
(9.9938 0.096954 0)
(9.93995 0.0755925 0)
(9.88015 0.0617953 0)
(9.81749 0.0524022 0)
(9.75446 0.0456015 0)
(9.6925 0.040452 0)
(9.6324 0.0364961 0)
(9.57455 0.0334827 0)
(9.51932 0.0314061 0)
(9.46588 0.0301117 0)
(9.41683 0.031472 0)
(9.36471 0.0328911 0)
(9.34012 0.0547209 0)
(9.99919 0.0460893 0)
(10.0244 0.0342179 0)
(10.0538 0.0149643 0)
(10.0707 0.0218334 0)
(10.0778 0.0367034 0)
(10.0782 0.0460491 0)
(10.072 0.050001 0)
(10.06 0.0512062 0)
(10.0436 0.0511307 0)
(10.0241 0.0504376 0)
(10.0025 0.0495002 0)
(9.97928 0.0485689 0)
(9.95494 0.0477995 0)
(9.92992 0.0474419 0)
(9.90413 0.0475806 0)
(9.87865 0.0496475 0)
(9.85262 0.0527826 0)
(9.83258 0.0652042 0)
(9.9968 0.00643117 0)
(10.0085 0.0250288 0)
(10.0342 0.0389561 0)
(10.0528 0.0503293 0)
(10.0643 0.0571454 0)
(10.073 0.0592143 0)
(10.0788 0.0589178 0)
(10.0814 0.0580168 0)
(10.0812 0.0570343 0)
(10.0791 0.0560477 0)
(10.0752 0.0551127 0)
(10.07 0.0543211 0)
(10.0636 0.0537704 0)
(10.0562 0.0536707 0)
(10.0479 0.0541725 0)
(10.0394 0.0562211 0)
(10.0313 0.0594791 0)
(10.0257 0.0666779 0)
(9.99922 0.00674181 0)
(10.0081 0.0335877 0)
(10.0271 0.0460674 0)
(10.0418 0.0508804 0)
(10.0523 0.0539623 0)
(10.0621 0.0555666 0)
(10.0706 0.0559321 0)
(10.0772 0.0557714 0)
(10.0819 0.0554321 0)
(10.0853 0.0550077 0)
(10.0875 0.0545761 0)
(10.0888 0.0542471 0)
(10.0891 0.0541383 0)
(10.0888 0.0544388 0)
(10.0879 0.0553163 0)
(10.087 0.0573052 0)
(10.0867 0.0602215 0)
(10.0883 0.0646209 0)
(10.0002 0.00907972 0)
(10.0078 0.0321422 0)
(10.0225 0.0419413 0)
(10.035 0.0457092 0)
(10.0447 0.049185 0)
(10.0541 0.0517404 0)
(10.0628 0.0529022 0)
(10.0702 0.0532823 0)
(10.0764 0.0533577 0)
(10.0815 0.0532951 0)
(10.0858 0.0531897 0)
(10.0894 0.0531549 0)
(10.0924 0.0533091 0)
(10.0949 0.0538079 0)
(10.0971 0.0547889 0)
(10.0994 0.0565187 0)
(10.1023 0.058838 0)
(10.1067 0.0616032 0)
(10.0003 0.00880751 0)
(10.0068 0.0275393 0)
(10.0189 0.0371192 0)
(10.0302 0.0417936 0)
(10.0394 0.0457332 0)
(10.0481 0.0485804 0)
(10.0564 0.0500175 0)
(10.0638 0.0506438 0)
(10.0703 0.0509471 0)
(10.0759 0.0511023 0)
(10.081 0.0511997 0)
(10.0855 0.0513443 0)
(10.0896 0.0516444 0)
(10.0934 0.0522196 0)
(10.097 0.0531627 0)
(10.1007 0.0545791 0)
(10.105 0.0563033 0)
(10.1104 0.0580043 0)
(10.0004 0.00784593 0)
(10.0057 0.0237205 0)
(10.016 0.0334122 0)
(10.0263 0.0386496 0)
(10.035 0.0425667 0)
(10.0432 0.0453863 0)
(10.051 0.0469712 0)
(10.0582 0.0477886 0)
(10.0646 0.0482652 0)
(10.0704 0.0485772 0)
(10.0758 0.0488152 0)
(10.0807 0.0490757 0)
(10.0852 0.0494526 0)
(10.0896 0.0500323 0)
(10.0938 0.0508657 0)
(10.0983 0.0519663 0)
(10.1032 0.0531667 0)
(10.1088 0.0541415 0)
(10.0004 0.00696139 0)
(10.0049 0.0207377 0)
(10.0136 0.0300855 0)
(10.0229 0.0354735 0)
(10.0311 0.0392833 0)
(10.0388 0.0420729 0)
(10.0462 0.0437979 0)
(10.0532 0.0447852 0)
(10.0595 0.0454013 0)
(10.0653 0.0458301 0)
(10.0707 0.0461667 0)
(10.0757 0.0464977 0)
(10.0805 0.0469014 0)
(10.0851 0.0474365 0)
(10.0898 0.0481222 0)
(10.0945 0.0489255 0)
(10.0996 0.0496921 0)
(10.1051 0.0501665 0)
(10.0004 0.00617612 0)
(10.0042 0.0181568 0)
(10.0116 0.0268556 0)
(10.0199 0.0322215 0)
(10.0276 0.0359586 0)
(10.0349 0.038721 0)
(10.0419 0.0405431 0)
(10.0486 0.0416599 0)
(10.0547 0.0423831 0)
(10.0605 0.0428979 0)
(10.0659 0.0433011 0)
(10.071 0.0436688 0)
(10.0759 0.0440641 0)
(10.0806 0.0445251 0)
(10.0854 0.0450506 0)
(10.0902 0.04559 0)
(10.0953 0.0460134 0)
(10.1006 0.0461424 0)
(10.0003 0.00544084 0)
(10.0036 0.0158387 0)
(10.0098 0.023777 0)
(10.0173 0.0290028 0)
(10.0244 0.0326517 0)
(10.0313 0.035351 0)
(10.038 0.0372107 0)
(10.0444 0.0384126 0)
(10.0504 0.0392134 0)
(10.056 0.0397883 0)
(10.0614 0.0402323 0)
(10.0665 0.0406116 0)
(10.0714 0.0409757 0)
(10.0762 0.0413488 0)
(10.081 0.0417194 0)
(10.0858 0.0420365 0)
(10.0908 0.0421984 0)
(10.0958 0.042092 0)
(10.0003 0.00478979 0)
(10.0031 0.0138977 0)
(10.0085 0.0211097 0)
(10.0152 0.0261053 0)
(10.0219 0.0296297 0)
(10.0284 0.0322373 0)
(10.0347 0.0340862 0)
(10.0409 0.0353282 0)
(10.0467 0.0361732 0)
(10.0522 0.0367803 0)
(10.0575 0.0372404 0)
(10.0626 0.0376116 0)
(10.0675 0.0379336 0)
(10.0723 0.0382222 0)
(10.0771 0.0384634 0)
(10.0818 0.0386135 0)
(10.0866 0.0385962 0)
(10.0915 0.0383453 0)
(10.0003 0.00418467 0)
(10.0027 0.0121346 0)
(10.0074 0.0186021 0)
(10.0134 0.0232768 0)
(10.0196 0.0266339 0)
(10.0257 0.0291257 0)
(10.0318 0.0309294 0)
(10.0377 0.0321788 0)
(10.0434 0.0330442 0)
(10.0488 0.0336648 0)
(10.054 0.0341251 0)
(10.059 0.0344767 0)
(10.0639 0.0347515 0)
(10.0686 0.0349607 0)
(10.0733 0.0350914 0)
(10.078 0.0351096 0)
(10.0826 0.0349607 0)
(10.0872 0.0346126 0)
(10.0003 0.00355422 0)
(10.0024 0.0103006 0)
(10.0064 0.0159167 0)
(10.0117 0.0201395 0)
(10.0174 0.0232415 0)
(10.0231 0.025559 0)
(10.0288 0.0272656 0)
(10.0344 0.0284801 0)
(10.0399 0.0293351 0)
(10.0452 0.0299456 0)
(10.0503 0.0303863 0)
(10.0552 0.0307021 0)
(10.06 0.0309188 0)
(10.0647 0.0310449 0)
(10.0693 0.0310715 0)
(10.0738 0.030976 0)
(10.0783 0.0307237 0)
(10.0826 0.0303086 0)
(10.0002 0.00289677 0)
(10.002 0.00839438 0)
(10.0055 0.0130634 0)
(10.0101 0.0166993 0)
(10.0153 0.0194367 0)
(10.0206 0.0215019 0)
(10.0259 0.0230447 0)
(10.0313 0.0241663 0)
(10.0365 0.0249662 0)
(10.0416 0.0255328 0)
(10.0466 0.025928 0)
(10.0514 0.0261895 0)
(10.0561 0.0263382 0)
(10.0607 0.0263819 0)
(10.0651 0.0263168 0)
(10.0695 0.0261317 0)
(10.0737 0.0258081 0)
(10.0779 0.0253578 0)
(10.0002 0.00221247 0)
(10.0017 0.00641639 0)
(10.0047 0.0100464 0)
(10.0088 0.0129565 0)
(10.0134 0.0152006 0)
(10.0183 0.0169148 0)
(10.0233 0.0182102 0)
(10.0283 0.0191655 0)
(10.0333 0.019851 0)
(10.0382 0.0203293 0)
(10.043 0.020647 0)
(10.0477 0.0208336 0)
(10.0523 0.020906 0)
(10.0567 0.0208718 0)
(10.061 0.020732 0)
(10.0652 0.0204843 0)
(10.0692 0.0201214 0)
(10.0731 0.0196646 0)
(10.0002 0.00149797 0)
(10.0015 0.00434927 0)
(10.0041 0.00684225 0)
(10.0077 0.00888566 0)
(10.0118 0.010495 0)
(10.0164 0.0117404 0)
(10.021 0.0126893 0)
(10.0258 0.0133928 0)
(10.0306 0.0138943 0)
(10.0353 0.0142324 0)
(10.0399 0.0144368 0)
(10.0444 0.0145276 0)
(10.0488 0.014517 0)
(10.0531 0.0144119 0)
(10.0572 0.0142157 0)
(10.0612 0.0139311 0)
(10.065 0.0135569 0)
(10.0687 0.0131175 0)
(10.0001 0.000735297 0)
(10.0013 0.00213614 0)
(10.0037 0.00336999 0)
(10.0069 0.00439652 0)
(10.0108 0.00521885 0)
(10.015 0.00586217 0)
(10.0194 0.00635182 0)
(10.024 0.00670809 0)
(10.0285 0.00694878 0)
(10.0331 0.00708961 0)
(10.0375 0.00714283 0)
(10.0419 0.00711685 0)
(10.0461 0.0070172 0)
(10.0502 0.00684772 0)
(10.0541 0.00661131 0)
(10.0579 0.00631133 0)
(10.0616 0.00594878 0)
(10.0651 0.00554598 0)
(10.0001 -0.000122682 0)
(10.0013 -0.000356389 0)
(10.0035 -0.00056169 0)
(10.0067 -0.000725217 0)
(10.0104 -0.000843803 0)
(10.0145 -0.00093086 0)
(10.0189 -0.00100537 0)
(10.0233 -0.00108109 0)
(10.0277 -0.00116676 0)
(10.0321 -0.00126978 0)
(10.0365 -0.001397 0)
(10.0407 -0.00155386 0)
(10.0448 -0.00174411 0)
(10.0487 -0.00197005 0)
(10.0525 -0.00223276 0)
(10.0562 -0.00253165 0)
(10.0597 -0.00286721 0)
(10.0631 -0.00322269 0)
(10.0001 -0.000948455 0)
(10.0014 -0.00276217 0)
(10.0038 -0.00436291 0)
(10.0071 -0.005668 0)
(10.0111 -0.00667065 0)
(10.0154 -0.00743209 0)
(10.0198 -0.00801911 0)
(10.0243 -0.00847696 0)
(10.0288 -0.00884025 0)
(10.0332 -0.0091412 0)
(10.0376 -0.00940661 0)
(10.0418 -0.00965544 0)
(10.0458 -0.00990054 0)
(10.0497 -0.010151 0)
(10.0534 -0.0104129 0)
(10.057 -0.0106898 0)
(10.0604 -0.0109847 0)
(10.0637 -0.0112866 0)
(10.0002 -0.00166431 0)
(10.0015 -0.00487131 0)
(10.0042 -0.00769554 0)
(10.008 -0.00993318 0)
(10.0123 -0.0115993 0)
(10.0169 -0.0128504 0)
(10.0216 -0.013804 0)
(10.0262 -0.0145196 0)
(10.0309 -0.0150515 0)
(10.0354 -0.0154587 0)
(10.0398 -0.0157886 0)
(10.044 -0.0160716 0)
(10.0481 -0.0163276 0)
(10.052 -0.0165709 0)
(10.0557 -0.0168115 0)
(10.0592 -0.0170553 0)
(10.0626 -0.0173071 0)
(10.0658 -0.0175595 0)
(10.0002 -0.0023482 0)
(10.0017 -0.00696585 0)
(10.0049 -0.0110413 0)
(10.0092 -0.0141162 0)
(10.0141 -0.0162841 0)
(10.0191 -0.0178824 0)
(10.024 -0.0190915 0)
(10.029 -0.0199755 0)
(10.0338 -0.0206068 0)
(10.0385 -0.0210679 0)
(10.0429 -0.0214206 0)
(10.0472 -0.0217033 0)
(10.0513 -0.0219423 0)
(10.0552 -0.0221571 0)
(10.0589 -0.0223611 0)
(10.0625 -0.0225623 0)
(10.0658 -0.0227661 0)
(10.069 -0.0229675 0)
(10.0002 -0.00298566 0)
(10.0018 -0.00908035 0)
(10.0056 -0.0144324 0)
(10.0109 -0.0182561 0)
(10.0164 -0.0208542 0)
(10.0218 -0.0227265 0)
(10.0271 -0.0240678 0)
(10.0323 -0.0249837 0)
(10.0373 -0.025612 0)
(10.0421 -0.0260642 0)
(10.0467 -0.0264008 0)
(10.051 -0.0266568 0)
(10.0552 -0.0268611 0)
(10.0591 -0.0270366 0)
(10.0628 -0.0271984 0)
(10.0663 -0.0273549 0)
(10.0697 -0.0275117 0)
(10.0729 -0.0276655 0)
(10.0001 -0.00356345 0)
(10.0019 -0.0115163 0)
(10.0065 -0.0178942 0)
(10.0127 -0.0220047 0)
(10.019 -0.0249705 0)
(10.0248 -0.0272529 0)
(10.0305 -0.0287764 0)
(10.0361 -0.0296703 0)
(10.0413 -0.0302115 0)
(10.0462 -0.0305784 0)
(10.0509 -0.030837 0)
(10.0553 -0.0310194 0)
(10.0594 -0.0311554 0)
(10.0634 -0.0312684 0)
(10.0671 -0.0313723 0)
(10.0706 -0.0314742 0)
(10.0739 -0.0315777 0)
(10.077 -0.0316788 0)
(9.99997 -0.00368494 0)
(10.0018 -0.0151648 0)
(10.0076 -0.0226246 0)
(10.0148 -0.0259425 0)
(10.0214 -0.0284925 0)
(10.0278 -0.0309409 0)
(10.0341 -0.0327052 0)
(10.0401 -0.0337297 0)
(10.0456 -0.0343158 0)
(10.0507 -0.0346725 0)
(10.0555 -0.0348831 0)
(10.0599 -0.0349966 0)
(10.0641 -0.0350554 0)
(10.068 -0.035089 0)
(10.0716 -0.0351141 0)
(10.0749 -0.0351391 0)
(10.078 -0.0351675 0)
(10.0809 -0.0351971 0)
(9.99898 -0.00130558 0)
(10 -0.0179628 0)
(10.0085 -0.0290498 0)
(10.0174 -0.0326649 0)
(10.0244 -0.0340785 0)
(10.0312 -0.0352939 0)
(10.0383 -0.0362295 0)
(10.045 -0.0368604 0)
(10.0509 -0.0372991 0)
(10.0561 -0.037586 0)
(10.0608 -0.0377358 0)
(10.065 -0.0377845 0)
(10.0687 -0.0377735 0)
(10.0721 -0.0377324 0)
(10.075 -0.0376793 0)
(10.0776 -0.0376258 0)
(10.0799 -0.0375753 0)
(10.082 -0.0375272 0)
(9.99528 0.00387148 0)
(9.99334 -0.0103042 0)
(10.007 -0.0270905 0)
(10.0212 -0.0389065 0)
(10.0311 -0.0448366 0)
(10.0392 -0.0464348 0)
(10.0467 -0.0459427 0)
(10.0531 -0.0449769 0)
(10.0582 -0.0440927 0)
(10.0622 -0.0433112 0)
(10.0654 -0.042589 0)
(10.0677 -0.0419233 0)
(10.0693 -0.0413206 0)
(10.0703 -0.0407806 0)
(10.0708 -0.040301 0)
(10.0708 -0.0398808 0)
(10.0705 -0.0395105 0)
(10.0698 -0.0391633 0)
(9.99144 -0.0172917 0)
(9.99189 0.000370878 0)
(10.01 0.0176746 0)
(10.0296 0.0116017 0)
(10.0442 -0.00508977 0)
(10.0541 -0.0188006 0)
(10.0601 -0.0271422 0)
(10.0623 -0.0320145 0)
(10.0618 -0.0348911 0)
(10.0592 -0.0364916 0)
(10.0551 -0.0372636 0)
(10.0497 -0.0375322 0)
(10.0434 -0.0375103 0)
(10.0364 -0.0373277 0)
(10.0289 -0.037068 0)
(10.021 -0.0367924 0)
(10.013 -0.0365564 0)
(10.0048 -0.0363289 0)
(10.0235 -0.206006 0)
(10.0684 -0.312335 0)
(10.0789 -0.255586 0)
(10.0704 -0.184167 0)
(10.0606 -0.134888 0)
(10.0499 -0.10271 0)
(10.0343 -0.0811466 0)
(10.013 -0.0665972 0)
(9.9879 -0.0566025 0)
(9.9607 -0.0494438 0)
(9.93251 -0.0440837 0)
(9.90405 -0.0399325 0)
(9.87579 -0.036632 0)
(9.84808 -0.0339496 0)
(9.82115 -0.0317372 0)
(9.79512 -0.0299314 0)
(9.77023 -0.0285019 0)
(9.7465 -0.0277652 0)
(9.94226 0.671596 0)
(9.87996 0.567457 0)
(9.77447 0.338471 0)
(9.63242 0.183325 0)
(9.48771 0.0949127 0)
(9.35662 0.0470911 0)
(9.24109 0.021308 0)
(9.13963 0.00708833 0)
(9.05073 -0.000969254 0)
(8.97278 -0.0056087 0)
(8.90407 -0.00829615 0)
(8.84304 -0.00985671 0)
(8.78846 -0.0107606 0)
(8.73933 -0.0112767 0)
(8.69484 -0.0115658 0)
(8.65427 -0.0117526 0)
(8.61678 -0.0119308 0)
(8.58197 -0.0124617 0)
(0.00533137 -0.0110479 -3.51059e-20)
(0.0171536 -0.0167687 3.43323e-20)
(0.026931 -0.0145259 0)
(0.0330267 -0.00850048 0)
(0.0341934 -0.00110473 0)
(0.0302354 0.00596114 -3.14402e-20)
(0.0220297 0.0116726 0)
(0.0104102 0.0157357 0)
(-0.00379189 0.0183503 0)
(-0.0198614 0.0199553 0)
(-0.0373424 0.0209767 2.81379e-20)
(-0.0559502 0.0217172 0)
(-0.0755125 0.0223565 0)
(-0.095936 0.0229794 0)
(-0.117168 0.0236094 0)
(-0.139169 0.0242375 2.48405e-20)
(-0.161901 0.024842 0)
(-0.185321 0.0253997 0)
(-0.20938 0.0258917 0)
(-0.234023 0.0263067 0)
(-0.259194 0.0266459 0)
(-0.284837 0.0269334 0)
(-0.310904 0.0272262 0)
(-0.337356 0.0276133 2.17243e-20)
(-0.364332 0.0283255 -2.1478e-20)
(-0.392117 0.0308261 2.1263e-20)
(-0.420181 0.035415 2.10735e-20)
(-0.449389 0.0286359 0)
(-0.478847 0.0273524 0)
(-0.506773 0.0410947 -2.11234e-20)
(-0.538048 0.0317636 -2.18323e-20)
(-0.569278 0.0290811 0)
(-0.598708 0.0388864 0)
(-0.632216 0.0486289 -2.03471e-20)
(-0.666589 0.0551953 0)
(-0.703994 0.0493376 0)
(-0.740699 0.0456988 2.11177e-20)
(-0.777127 0.0544024 0)
(-0.813014 0.0444208 2.06679e-20)
(-0.848995 0.026954 4.20486e-20)
(-0.881953 0.0306433 0)
(-0.91786 0.03155 0)
(-0.954372 0.0321302 0)
(-0.991472 0.0323814 0)
(-1.02889 0.0324543 0)
(-1.06652 0.0324231 3.93882e-20)
(-1.10429 0.0323303 3.89812e-20)
(-1.14215 0.0322 3.8585e-20)
(-1.18009 0.0320461 0)
(-1.21806 0.0318758 -3.7823e-20)
(-1.25607 0.0316931 0)
(-1.29408 0.0314995 3.70978e-20)
(-1.3321 0.0312951 3.67476e-20)
(-1.37009 0.0310793 0)
(-1.40805 0.0308511 0)
(-1.44595 0.0306091 0)
(-1.48378 0.0303517 3.54157e-20)
(-1.5215 0.0300777 0)
(-1.55911 0.0297856 0)
(-1.59657 0.0294741 0)
(-1.63384 0.0291421 0)
(-1.67091 0.0287885 0)
(-1.70774 0.0284127 0)
(-1.7443 0.0280137 0)
(-1.78055 0.0275913 0)
(-1.81645 0.0271449 -3.26808e-20)
(-1.85197 0.0266745 0)
(-1.88708 0.0261799 0)
(-1.92173 0.0256612 3.18007e-20)
(-1.95589 0.0251188 3.15065e-20)
(-1.98951 0.0245528 0)
(-2.02256 0.0239638 -3.09136e-20)
(-2.05499 0.0233523 3.0614e-20)
(-2.08677 0.0227189 0)
(-2.11786 0.0220643 -3.00058e-20)
(-2.14823 0.0213893 0)
(-2.17782 0.0206945 0)
(-2.2066 0.0199809 2.90641e-20)
(-2.23454 0.0192491 0)
(-2.26159 0.0185001 -2.84111e-20)
(-2.28772 0.0177344 0)
(-2.3129 0.0169528 2.77335e-20)
(-2.33709 0.0161557 2.73845e-20)
(-2.36024 0.0153434 2.7028e-20)
(-2.38233 0.014516 5.33275e-20)
(-2.40332 0.0136732 -5.25824e-20)
(-2.42318 0.0128141 0)
(-2.44186 0.0119375 0)
(-2.45934 0.0110411 0)
(-2.47557 0.0101218 -4.94231e-20)
(-2.49051 0.00917573 -4.85851e-20)
(-2.50412 0.00819795 4.77267e-20)
(-2.51635 0.00718307 0)
(-2.52713 0.00612461 -4.59469e-20)
(-2.53641 0.00501758 -4.50248e-20)
(-2.5441 0.0038655 -4.40811e-20)
(-2.55012 0.00269313 0)
(-2.55435 0.00155106 0)
(-2.55667 0.00049761 0)
(-2.55743 -0.000420479 -4.00697e-20)
(-2.55676 -0.00125877 0)
(-2.55463 -0.00207374 0)
(-2.55107 -0.00287917 3.67835e-20)
(-2.54604 -0.00367977 0)
(-2.53955 -0.00447643 0)
(-2.53158 -0.0052689 3.32575e-20)
(-2.52212 -0.00605652 0)
(-2.51116 -0.00683843 0)
(-2.49869 -0.00761378 -2.94893e-20)
(-2.48471 -0.00838166 -2.81798e-20)
(-2.46921 -0.00914119 0)
(-2.45219 -0.00989149 2.54815e-20)
(-2.43365 -0.0106317 0)
(-2.4136 -0.011361 -2.26797e-20)
(-2.39204 -0.0120786 0)
(-2.36896 -0.0127836 -1.97777e-20)
(-2.34439 -0.0134753 -1.82904e-20)
(-2.31833 -0.0141528 0)
(-2.2908 -0.0148154 0)
(-2.2618 -0.0154624 0)
(-2.23136 -0.0160932 0)
(-2.19949 -0.016707 0)
(-2.16621 -0.0173033 0)
(-2.13154 -0.0178815 0)
(-2.09551 -0.0184409 -5.61289e-21)
(-2.05814 -0.0189811 3.94373e-21)
(-2.01947 -0.0195015 0)
(-1.9795 -0.0200017 0)
(-1.93829 -0.0204811 0)
(-1.89586 -0.0209394 0)
(-1.85224 -0.0213763 -9.22038e-21)
(-1.80748 -0.0217914 0)
(-1.76159 -0.0221845 1.62121e-20)
(-1.71463 -0.0225554 -1.97295e-20)
(-1.66664 -0.0229038 0)
(-1.61764 -0.0232296 0)
(-1.56769 -0.0235328 0)
(-1.51682 -0.0238133 3.38771e-20)
(-1.46509 -0.0240712 3.74194e-20)
(-1.41252 -0.0243065 0)
(-1.35916 -0.0245194 4.44903e-20)
(-1.30507 -0.0247099 4.80132e-20)
(-1.25028 -0.0248785 -5.15237e-20)
(-1.19483 -0.0250255 0)
(-1.13878 -0.0251511 0)
(-1.08217 -0.0252558 -6.19533e-20)
(-1.02503 -0.0253401 0)
(-0.967419 -0.0254046 0)
(-0.909372 -0.0254498 0)
(-0.850933 -0.0254764 0)
(-0.792142 -0.0254851 7.88303e-20)
(-0.733038 -0.0254765 8.21063e-20)
(-0.673659 -0.0254516 0)
(-0.614044 -0.0254109 8.85393e-20)
(-0.554227 -0.0253554 0)
(-0.494242 -0.0252855 0)
(-0.434123 -0.0252019 9.78585e-20)
(-0.373901 -0.0251049 0)
(-0.313611 -0.0249941 1.03827e-19)
(-0.253284 -0.0248678 0)
(-0.192957 -0.0247203 0)
(-0.132666 -0.0245461 1.12379e-19)
(-0.0724427 -0.0243406 0)
(-0.0123146 -0.0240717 1.17553e-19)
(0.0475646 -0.0236891 0)
(0.107272 -0.0232698 0)
(0.166812 -0.0228732 0)
(0.226191 -0.0224982 -1.21666e-19)
(0.285423 -0.0221365 0)
(0.344513 -0.0217812 1.22987e-19)
(0.403448 -0.0214253 0)
(0.462196 -0.0210601 0)
(0.520695 -0.0206716 0)
(0.578819 -0.0202363 0)
(0.636371 -0.0197068 0)
(0.692805 -0.0189894 0)
(0.747683 -0.0178252 0)
(0.79667 -0.0155699 -2.52083e-19)
(0.84411 -0.0103478 0)
(0.841702 0.00747268 0)
(0.00559354 -0.0355657 1.04036e-19)
(0.0115317 -0.0331515 -9.84083e-20)
(0.0113493 -0.0199975 0)
(0.00804077 -0.00574574 5.81533e-20)
(0.00197032 0.00803099 0)
(-0.00658003 0.0204237 2.70272e-20)
(-0.0175509 0.0308776 -5.24306e-20)
(-0.0308285 0.0392204 -5.09874e-20)
(-0.0462776 0.045607 0)
(-0.0637097 0.0504141 -4.83121e-20)
(-0.0829016 0.0540775 -2.35426e-20)
(-0.103633 0.0569714 0)
(-0.125713 0.059368 0)
(-0.148992 0.0614418 0)
(-0.173358 0.0632907 0)
(-0.198734 0.0649622 -2.08862e-20)
(-0.225064 0.0664754 0)
(-0.252313 0.0678368 4.01068e-20)
(-0.280458 0.0690504 0)
(-0.309492 0.0701236 0)
(-0.339418 0.0710708 -3.81924e-20)
(-0.370252 0.0719165 0)
(-0.402018 0.0726901 3.7238e-20)
(-0.434779 0.0734113 -1.84617e-20)
(-0.46856 0.0741024 1.83094e-20)
(-0.50298 0.0749551 -1.82041e-20)
(-0.537763 0.0762265 -1.81582e-20)
(-0.574574 0.0768303 0)
(-0.61209 0.076605 0)
(-0.649294 0.0775812 1.78567e-20)
(-0.688145 0.0788251 -1.78895e-20)
(-0.72702 0.0787423 0)
(-0.76716 0.0790432 0)
(-0.805781 0.0791908 1.73597e-20)
(-0.84417 0.0806643 0)
(-0.881691 0.081699 0)
(-0.919722 0.0822061 -1.70919e-20)
(-0.956256 0.0820042 0)
(-0.994462 0.0825355 1.66168e-20)
(-1.03293 0.0832424 -3.31054e-20)
(-1.07174 0.0842874 0)
(-1.109 0.0847092 0)
(-1.14543 0.0846981 -6.38191e-20)
(-1.18143 0.0844312 -6.3131e-20)
(-1.21713 0.0839966 -6.24627e-20)
(-1.25262 0.0834563 3.08291e-20)
(-1.28793 0.0828474 -3.06686e-20)
(-1.32308 0.0821927 -9.09294e-20)
(-1.35808 0.0815052 5.99696e-20)
(-1.39293 0.0807917 2.97717e-20)
(-1.42762 0.0800551 0)
(-1.46215 0.0792956 -2.92097e-20)
(-1.4965 0.0785121 2.87799e-20)
(-1.53066 0.0777023 0)
(-1.56462 0.0768636 0)
(-1.59835 0.0759931 0)
(-1.63185 0.0750879 -2.79021e-20)
(-1.66508 0.0741453 0)
(-1.69803 0.0731627 5.46606e-20)
(-1.73067 0.0721379 0)
(-1.76298 0.071069 5.36989e-20)
(-1.79494 0.0699543 0)
(-1.82651 0.0687926 -5.27548e-20)
(-1.85767 0.0675829 0)
(-1.88839 0.0663247 5.18218e-20)
(-1.91865 0.0650175 -2.56061e-20)
(-1.9484 0.0636615 0)
(-1.97764 0.0622569 -5.04289e-20)
(-2.00631 0.0608043 -2.50503e-20)
(-2.0344 0.0593044 -2.48149e-20)
(-2.06187 0.0577583 0)
(-2.08869 0.0561672 -2.42117e-20)
(-2.11484 0.0545325 -2.40981e-20)
(-2.14027 0.0528558 0)
(-2.16497 0.0511386 2.36075e-20)
(-2.1889 0.0493829 -4.66031e-20)
(-2.21204 0.0475903 0)
(-2.23434 0.0457629 -2.28452e-20)
(-2.25579 0.0439026 0)
(-2.27636 0.0420112 6.6853e-20)
(-2.29601 0.0400907 0)
(-2.31471 0.0381428 -6.52116e-20)
(-2.33245 0.0361693 -2.14805e-20)
(-2.34919 0.0341716 2.11203e-20)
(-2.36491 0.0321512 4.16598e-20)
(-2.37958 0.030109 -4.1066e-20)
(-2.39316 0.0280458 0)
(-2.40565 0.0259621 0)
(-2.417 0.0238579 0)
(-2.4272 0.0217323 1.15775e-19)
(-2.43622 0.0195841 3.79314e-20)
(-2.44405 0.0174114 -3.72343e-20)
(-2.45066 0.0152121 0)
(-2.45605 0.0129831 -3.57866e-20)
(-2.46022 0.0107202 3.50418e-20)
(-2.4632 0.00842301 3.42766e-20)
(-2.46504 0.00610912 0)
(-2.46583 0.00382753 0)
(-2.46567 0.00162756 0)
(-2.46434 -0.000466256 3.10144e-20)
(-2.46164 -0.00249242 0)
(-2.45758 -0.00448789 -5.86421e-20)
(-2.45209 -0.00646431 -8.52172e-20)
(-2.44518 -0.00842564 5.50283e-20)
(-2.43682 -0.0103717 0)
(-2.42699 -0.012301 2.5721e-20)
(-2.41569 -0.0142112 0)
(-2.40291 -0.0161 4.73566e-20)
(-2.38863 -0.0179651 -2.27859e-20)
(-2.37286 -0.019804 -2.17713e-20)
(-2.35559 -0.0216145 0)
(-2.33682 -0.0233944 -5.8523e-20)
(-2.31654 -0.0251415 3.69567e-20)
(-2.29477 -0.0268537 1.72354e-20)
(-2.2715 -0.028529 0)
(-2.24675 -0.0301655 1.49893e-20)
(-2.22051 -0.0317612 4.18776e-20)
(-2.1928 -0.0333145 0)
(-2.16363 -0.0348234 2.33919e-20)
(-2.13302 -0.0362864 2.10293e-20)
(-2.10098 -0.037702 1.86409e-20)
(-2.06753 -0.0390688 0)
(-2.03268 -0.0403855 0)
(-1.99647 -0.0416508 0)
(-1.95891 -0.0428638 -4.65354e-21)
(-1.92003 -0.0440233 -2.94894e-21)
(-1.87985 -0.0451284 0)
(-1.83841 -0.0461783 -1.31807e-21)
(-1.79574 -0.047172 1.22382e-21)
(-1.75185 -0.0481092 0)
(-1.7068 -0.0489892 6.84998e-21)
(-1.66061 -0.049812 1.78245e-20)
(-1.61333 -0.0505771 -1.20141e-20)
(-1.56498 -0.0512847 -1.35406e-20)
(-1.5156 -0.0519345 0)
(-1.46524 -0.0525267 0)
(-1.41394 -0.0530616 0)
(-1.36174 -0.0535397 -2.49551e-20)
(-1.30867 -0.0539615 2.64213e-20)
(-1.25479 -0.0543278 5.90883e-20)
(-1.20014 -0.0546392 -3.26637e-20)
(-1.14475 -0.0548968 3.40845e-20)
(-1.08868 -0.0551015 3.77475e-20)
(-1.03197 -0.0552548 0)
(-0.974656 -0.055358 0)
(-0.916791 -0.0554124 -4.41197e-20)
(-0.858415 -0.0554196 0)
(-0.79957 -0.0553815 0)
(-0.7403 -0.0552998 1.0402e-19)
(-0.680645 -0.0551765 0)
(-0.620645 -0.0550135 5.62101e-20)
(-0.56034 -0.0548131 -5.9664e-20)
(-0.499767 -0.0545772 0)
(-0.438963 -0.054308 6.31438e-20)
(-0.377962 -0.0540076 0)
(-0.316799 -0.0536779 0)
(-0.255505 -0.0533204 -7.08627e-20)
(-0.194111 -0.0529359 1.44932e-19)
(-0.132648 -0.0525239 -7.50957e-20)
(-0.0711463 -0.0520824 0)
(-0.00963493 -0.0516091 0)
(0.051855 -0.0511002 7.94392e-20)
(0.113297 -0.0505598 0)
(0.174671 -0.0499961 8.16394e-20)
(0.235949 -0.049394 0)
(0.297156 -0.0487698 0)
(0.358279 -0.0481563 0)
(0.419312 -0.0475606 8.65228e-20)
(0.480252 -0.0469766 0)
(0.541091 -0.0463944 -8.81744e-20)
(0.601811 -0.0458013 0)
(0.662374 -0.0451784 0)
(0.722712 -0.044495 1.79758e-19)
(0.7827 -0.0436978 -1.80993e-19)
(0.842133 -0.0426826 0)
(0.900545 -0.0412478 0)
(0.957461 -0.038866 0)
(1.01023 -0.0345404 5.57393e-19)
(1.0614 -0.0247268 0)
(1.0903 -0.00128577 -3.79075e-19)
(0.00165113 -0.0451533 -5.35204e-23)
(-0.000749537 -0.0287031 1.2698e-19)
(-0.0075721 -0.00814518 0)
(-0.016165 0.0109819 -1.06375e-19)
(-0.0265229 0.0285369 0)
(-0.0384211 0.0443614 0)
(-0.0517966 0.0582572 9.44459e-24)
(-0.0666973 0.0701102 4.49297e-20)
(-0.0831921 0.0799776 4.37161e-20)
(-0.101306 0.0880824 4.26206e-20)
(-0.120999 0.0947434 0)
(-0.142186 0.100294 0)
(-0.164756 0.105027 -3.96632e-20)
(-0.188598 0.109166 -7.75786e-20)
(-0.213616 0.112871 7.5943e-20)
(-0.239726 0.116242 0)
(-0.266868 0.119347 7.30116e-20)
(-0.294993 0.122228 -3.58696e-20)
(-0.324067 0.124918 0)
(-0.354061 0.12745 6.94265e-20)
(-0.38495 0.129858 3.42288e-20)
(-0.416706 0.132179 -6.75208e-20)
(-0.44929 0.134447 -3.33611e-20)
(-0.482654 0.136687 0)
(-0.516725 0.138924 6.52463e-20)
(-0.551281 0.141164 6.46109e-20)
(-0.586096 0.143237 0)
(-0.6214 0.144758 6.34461e-20)
(-0.657102 0.145958 0)
(-0.692792 0.147357 6.2123e-20)
(-0.728364 0.148042 3.07724e-20)
(-0.763984 0.148398 0)
(-0.799434 0.149116 0)
(-0.834128 0.14963 0)
(-0.868072 0.149514 0)
(-0.901507 0.148428 0)
(-0.934684 0.146896 0)
(-0.967522 0.145168 5.66834e-20)
(-1.00031 0.142879 -8.40155e-20)
(-1.03339 0.140471 0)
(-1.06649 0.138773 0)
(-1.09912 0.137369 0)
(-1.13141 0.136068 7.9808e-23)
(-1.16344 0.134797 5.27903e-20)
(-1.19526 0.133526 1.04291e-19)
(-1.22692 0.132244 -1.03117e-19)
(-1.25845 0.130947 -5.09428e-20)
(-1.28986 0.129636 5.04769e-20)
(-1.32115 0.128308 -9.30807e-23)
(-1.35233 0.126961 4.93123e-20)
(-1.3834 0.12559 0)
(-1.41435 0.124192 4.82881e-20)
(-1.44517 0.122762 -9.87854e-23)
(-1.47584 0.121295 0)
(-1.50636 0.119786 0)
(-1.5367 0.11823 -4.63613e-20)
(-1.56686 0.116622 0)
(-1.59681 0.114959 0)
(-1.62653 0.113237 4.48969e-20)
(-1.656 0.111453 8.91133e-20)
(-1.6852 0.109604 -4.42208e-20)
(-1.7141 0.107687 0)
(-1.74268 0.105702 4.33569e-20)
(-1.77091 0.103647 0)
(-1.79877 0.101522 4.23072e-20)
(-1.82623 0.0993253 4.20798e-20)
(-1.85326 0.0970583 -8.31217e-20)
(-1.87983 0.0947212 -4.10453e-20)
(-1.90592 0.0923151 0)
(-1.93149 0.0898412 8.05901e-20)
(-1.95652 0.0873011 0)
(-1.98097 0.0846967 1.1842e-19)
(-2.00482 0.0820301 7.8032e-20)
(-2.02803 0.0793038 7.71679e-20)
(-2.05058 0.0765201 -7.62961e-20)
(-2.07244 0.0736817 1.13198e-19)
(-2.09357 0.0707915 0)
(-2.11394 0.0678522 0)
(-2.13354 0.0648667 -7.27101e-20)
(-2.15232 0.061838 -1.07737e-19)
(-2.17026 0.0587689 0)
(-2.18733 0.0556621 3.4997e-20)
(-2.2035 0.0525204 0)
(-2.21875 0.0493463 -1.01935e-19)
(-2.23305 0.0461421 -8.17386e-23)
(-2.24636 0.04291 7.27275e-23)
(-2.25868 0.0396519 6.48491e-20)
(-2.26997 0.0363698 0)
(-2.2802 0.0330652 -6.26975e-20)
(-2.28937 0.0297398 -3.42322e-23)
(-2.29744 0.0263956 0)
(-2.3044 0.0230353 0)
(-2.31024 0.0196627 0)
(-2.31495 0.0162841 5.69211e-20)
(-2.31852 0.0129094 0)
(-2.32095 0.00955363 0)
(-2.32224 0.00623509 0)
(-2.32236 0.00296546 0)
(-2.32129 -0.000253185 0)
(-2.31893 -0.00345266 4.91419e-20)
(-2.31525 -0.00664339 0)
(-2.31022 -0.0098199 4.6225e-20)
(-2.30381 -0.0129788 4.47655e-20)
(-2.29602 -0.0161166 -4.32799e-20)
(-2.28682 -0.0192296 0)
(-2.2762 -0.0223139 -4.02308e-20)
(-2.26415 -0.0253654 0)
(-2.25065 -0.0283801 -3.70796e-20)
(-2.23571 -0.031354 3.54664e-20)
(-2.21932 -0.0342833 1.01876e-19)
(-2.20146 -0.0371644 0)
(-2.18215 -0.0399936 9.18831e-20)
(-2.16138 -0.0427675 2.92334e-20)
(-2.13915 -0.0454827 0)
(-2.11547 -0.0481362 5.10903e-20)
(-2.09034 -0.0507247 4.75683e-20)
(-2.06377 -0.0532453 -6.57366e-20)
(-2.03576 -0.0556951 0)
(-2.00634 -0.0580714 -1.80916e-20)
(-1.97552 -0.0603716 -1.62465e-20)
(-1.9433 -0.0625933 -4.37819e-20)
(-1.90971 -0.0647344 0)
(-1.87477 -0.0667927 0)
(-1.83849 -0.0687666 0)
(-1.8009 -0.0706543 -7.50074e-21)
(-1.76203 -0.0724543 0)
(-1.72189 -0.0741652 0)
(-1.68052 -0.0757855 1.00956e-21)
(-1.63795 -0.0773143 -9.36405e-22)
(-1.59421 -0.0787507 0)
(-1.54933 -0.080094 0)
(-1.50334 -0.081344 -1.35967e-20)
(-1.45627 -0.0825005 0)
(-1.40818 -0.0835634 2.14256e-20)
(-1.35908 -0.084533 2.45152e-20)
(-1.30903 -0.0854093 0)
(-1.25806 -0.0861931 0)
(-1.20621 -0.0868851 -3.61737e-20)
(-1.15352 -0.0874866 -8.47497e-22)
(-1.10003 -0.0879989 -8.52148e-22)
(-1.04579 -0.0884232 0)
(-0.990839 -0.0887611 -1.03883e-19)
(-0.935219 -0.0890147 0)
(-0.878973 -0.0891861 0)
(-0.822145 -0.0892776 0)
(-0.764775 -0.0892916 6.73255e-20)
(-0.706907 -0.0892308 0)
(-0.648583 -0.0890982 -1.47487e-19)
(-0.589843 -0.0888968 -7.81856e-20)
(-0.530727 -0.0886298 0)
(-0.471275 -0.0883005 -8.52235e-20)
(-0.411524 -0.0879124 0)
(-0.351511 -0.087469 0)
(-0.291271 -0.0869738 -2.84639e-19)
(-0.230839 -0.0864303 1.95825e-19)
(-0.170246 -0.0858415 0)
(-0.109523 -0.0852098 2.0876e-19)
(-0.0486996 -0.0845374 -1.08343e-19)
(0.012196 -0.0838264 0)
(0.0731366 -0.0830767 0)
(0.134097 -0.0822874 0)
(0.195055 -0.0814587 -3.50949e-19)
(0.255992 -0.0805959 0)
(0.316899 -0.0797125 -1.21258e-19)
(0.377794 -0.0788223 0)
(0.438675 -0.077933 0)
(0.499522 -0.0770544 0)
(0.560321 -0.0761894 0)
(0.621057 -0.075332 0)
(0.681716 -0.0744702 0)
(0.742275 -0.0735855 -2.64044e-19)
(0.802697 -0.0726488 0)
(0.862914 -0.0716122 -1.35278e-19)
(0.922806 -0.0703925 4.08258e-19)
(0.982185 -0.0688355 0)
(1.04066 -0.0666476 0)
(1.09788 -0.0631835 -2.78669e-19)
(1.15208 -0.0572111 -2.82143e-19)
(1.20593 -0.0455722 2.84163e-19)
(1.24747 -0.0216116 2.89093e-19)
(-0.00343072 -0.0371739 -2.04298e-19)
(-0.0120943 -0.0115255 -1.85063e-19)
(-0.0232847 0.0130148 -1.0925e-19)
(-0.0356204 0.0348842 -4.96398e-20)
(-0.0491065 0.0547721 0)
(-0.0635326 0.0728226 8.81574e-20)
(-0.0789063 0.0890068 -4.23601e-20)
(-0.0953299 0.103284 0)
(-0.112917 0.115691 -3.98725e-20)
(-0.13175 0.126364 0)
(-0.151869 0.135522 7.58726e-20)
(-0.173262 0.143419 0)
(-0.195885 0.150304 3.62665e-20)
(-0.219671 0.156392 7.10076e-20)
(-0.244543 0.161852 -6.95732e-20)
(-0.270427 0.166809 0)
(-0.297252 0.171352 -6.69698e-20)
(-0.324948 0.175542 0)
(-0.353453 0.179423 0)
(-0.382699 0.183026 -6.36749e-20)
(-0.412614 0.186373 0)
(-0.443118 0.18948 -3.89799e-24)
(-0.474116 0.192347 0)
(-0.505499 0.194962 0)
(-0.537145 0.197298 4.60495e-24)
(-0.568909 0.199315 -5.86251e-20)
(-0.600659 0.200905 -5.78895e-20)
(-0.632345 0.201944 -5.71464e-20)
(-0.663946 0.202524 0)
(-0.695352 0.202781 -1.11333e-19)
(-0.726487 0.20256 0)
(-0.757357 0.201976 -5.41976e-20)
(-0.787892 0.201214 0)
(-0.818005 0.200206 0)
(-0.847712 0.198864 5.20384e-20)
(-0.87712 0.197123 0)
(-0.906341 0.195101 -5.06518e-20)
(-0.935432 0.192888 -1.25918e-23)
(-0.964499 0.190471 9.86262e-20)
(-0.993603 0.188004 -9.73152e-20)
(-1.02269 0.185753 0)
(-1.05167 0.183664 0)
(-1.08055 0.181689 -4.67897e-20)
(-1.10933 0.179789 0)
(-1.13801 0.177936 -4.57135e-20)
(-1.16662 0.17611 4.51713e-20)
(-1.19517 0.174298 4.46436e-20)
(-1.22365 0.172487 0)
(-1.25207 0.170668 -4.36282e-20)
(-1.28043 0.168833 -4.31388e-20)
(-1.30872 0.166972 8.52325e-20)
(-1.33693 0.165077 -4.21929e-20)
(-1.36506 0.163141 -4.17349e-20)
(-1.39309 0.161156 0)
(-1.42101 0.159114 0)