# vtk DataFile Version 2.0
sampleSurface
ASCII
DATASET POLYDATA
POINTS 502 float
-0.0206 0 -0.0005 -0.0190172 0 -0.0005 -0.0190172 0 0.0005 -0.0206 0
0.0005 -0.0174976 0 -0.0005 -0.0174976 0 0.0005 -0.0160387 0 -0.0005
-0.0160387 0 0.0005 -0.0146381 0 -0.0005 -0.0146381 0 0.0005 -0.0132934
0 -0.0005 -0.0132934 0 0.0005 -0.0120025 0 -0.0005 -0.0120025 0
0.0005 -0.0107632 0 -0.0005 -0.0107632 0 0.0005 -0.00957337 0 -0.0005
-0.00957337 0 0.0005 -0.00843108 0 -0.0005 -0.00843108 0 0.0005 -0.00733443
0 -0.0005 -0.00733443 0 0.0005 -0.0062816 0 -0.0005 -0.0062816 0
0.0005 -0.00527083 0 -0.0005 -0.00527083 0 0.0005 -0.00430044 0 -0.0005
-0.00430044 0 0.0005 -0.00336883 0 -0.0005 -0.00336883 0 0.0005 -0.00247443
0 -0.0005 -0.00247443 0 0.0005 -0.00161577 0 -0.0005 -0.00161577 0
0.0005 -0.000791418 0 -0.0005 -0.000791418 0 0.0005 0 0 -0.0005
0 0 0.0005 0 -0.0254 -0.0005 0 -0.0254 0.0005 0
-0.0242711 0.0005 0 -0.0242711 -0.0005 0 -0.0231422 0.0005 0 -0.0231422
-0.0005 0 -0.0220133 0.0005 0 -0.0220133 -0.0005 0 -0.0208844 0.0005
0 -0.0208844 -0.0005 0 -0.0197556 0.0005 0 -0.0197556 -0.0005 0
-0.0186267 0.0005 0 -0.0186267 -0.0005 0 -0.0174978 0.0005 0 -0.0174978
-0.0005 0 -0.0163689 0.0005 0 -0.0163689 -0.0005 0 -0.01524 0.0005
0 -0.01524 -0.0005 0 -0.0141111 0.0005 0 -0.0141111 -0.0005 0
-0.0129822 0.0005 0 -0.0129822 -0.0005 0 -0.0118533 0.0005 0 -0.0118533
-0.0005 0 -0.0107244 0.0005 0 -0.0107244 -0.0005 0 -0.00959556 0.0005
0 -0.00959556 -0.0005 0 -0.00846667 0.0005 0 -0.00846667 -0.0005 0
-0.00726604 0.0005 0 -0.00726604 -0.0005 0 -0.00618989 0.0005 0 -0.00618989
-0.0005 0 -0.00522531 0.0005 0 -0.00522531 -0.0005 0 -0.00436073 0.0005
0 -0.00436073 -0.0005 0 -0.00358579 0.0005 0 -0.00358579 -0.0005 0
-0.00289118 0.0005 0 -0.00289118 -0.0005 0 -0.0022686 0.0005 0 -0.0022686
-0.0005 0 -0.00171055 0.0005 0 -0.00171055 -0.0005 0 -0.00121037 0.0005
0 -0.00121037 -0.0005 0 -0.000762037 0.0005 0 -0.000762037 -0.0005 0
-0.000360188 0.0005 0 -0.000360188 -0.0005 0.000528387 -0.0254 -0.0005 0.000528387 -0.0254
0.0005 0.00106088 -0.0254 -0.0005 0.00106088 -0.0254 0.0005 0.00159752 -0.0254 -0.0005
0.00159752 -0.0254 0.0005 0.00213833 -0.0254 -0.0005 0.00213833 -0.0254 0.0005 0.00268334
-0.0254 -0.0005 0.00268334 -0.0254 0.0005 0.00323259 -0.0254 -0.0005 0.00323259 -0.0254
0.0005 0.00378611 -0.0254 -0.0005 0.00378611 -0.0254 0.0005 0.00434393 -0.0254 -0.0005
0.00434393 -0.0254 0.0005 0.00490609 -0.0254 -0.0005 0.00490609 -0.0254 0.0005 0.00547262
-0.0254 -0.0005 0.00547262 -0.0254 0.0005 0.00604356 -0.0254 -0.0005 0.00604356 -0.0254
0.0005 0.00661893 -0.0254 -0.0005 0.00661893 -0.0254 0.0005 0.00719878 -0.0254 -0.0005
0.00719878 -0.0254 0.0005 0.00778313 -0.0254 -0.0005 0.00778313 -0.0254 0.0005 0.00837203
-0.0254 -0.0005 0.00837203 -0.0254 0.0005 0.00896551 -0.0254 -0.0005 0.00896551 -0.0254
0.0005 0.0095636 -0.0254 -0.0005 0.0095636 -0.0254 0.0005 0.0101663 -0.0254 -0.0005
0.0101663 -0.0254 0.0005 0.0107738 -0.0254 -0.0005 0.0107738 -0.0254 0.0005 0.0113859
-0.0254 -0.0005 0.0113859 -0.0254 0.0005 0.0120028 -0.0254 -0.0005 0.0120028 -0.0254
0.0005 0.0126245 -0.0254 -0.0005 0.0126245 -0.0254 0.0005 0.0132511 -0.0254 -0.0005
0.0132511 -0.0254 0.0005 0.0138825 -0.0254 -0.0005 0.0138825 -0.0254 0.0005 0.0145188
-0.0254 -0.0005 0.0145188 -0.0254 0.0005 0.0151601 -0.0254 -0.0005 0.0151601 -0.0254
0.0005 0.0158063 -0.0254 -0.0005 0.0158063 -0.0254 0.0005 0.0164576 -0.0254 -0.0005
0.0164576 -0.0254 0.0005 0.0171139 -0.0254 -0.0005 0.0171139 -0.0254 0.0005 0.0177754
-0.0254 -0.0005 0.0177754 -0.0254 0.0005 0.018442 -0.0254 -0.0005 0.018442 -0.0254
0.0005 0.0191137 -0.0254 -0.0005 0.0191137 -0.0254 0.0005 0.0197907 -0.0254 -0.0005
0.0197907 -0.0254 0.0005 0.020473 -0.0254 -0.0005 0.020473 -0.0254 0.0005 0.0211606
-0.0254 -0.0005 0.0211606 -0.0254 0.0005 0.0218535 -0.0254 -0.0005 0.0218535 -0.0254
0.0005 0.0225517 -0.0254 -0.0005 0.0225517 -0.0254 0.0005 0.0232555 -0.0254 -0.0005
0.0232555 -0.0254 0.0005 0.0239647 -0.0254 -0.0005 0.0239647 -0.0254 0.0005 0.0246794
-0.0254 -0.0005 0.0246794 -0.0254 0.0005 0.0253996 -0.0254 -0.0005 0.0253996 -0.0254
0.0005 0.0261255 -0.0254 -0.0005 0.0261255 -0.0254 0.0005 0.026857 -0.0254 -0.0005
0.026857 -0.0254 0.0005 0.0275942 -0.0254 -0.0005 0.0275942 -0.0254 0.0005 0.0283371
-0.0254 -0.0005 0.0283371 -0.0254 0.0005 0.0290858 -0.0254 -0.0005 0.0290858 -0.0254
0.0005 0.0298403 -0.0254 -0.0005 0.0298403 -0.0254 0.0005 0.0306007 -0.0254 -0.0005
0.0306007 -0.0254 0.0005 0.031367 -0.0254 -0.0005 0.031367 -0.0254 0.0005 0.0321393
-0.0254 -0.0005 0.0321393 -0.0254 0.0005 0.0329175 -0.0254 -0.0005 0.0329175 -0.0254
0.0005 0.0337019 -0.0254 -0.0005 0.0337019 -0.0254 0.0005 0.0344923 -0.0254 -0.0005
0.0344923 -0.0254 0.0005 0.0352888 -0.0254 -0.0005 0.0352888 -0.0254 0.0005 0.0360916
-0.0254 -0.0005 0.0360916 -0.0254 0.0005 0.0369006 -0.0254 -0.0005 0.0369006 -0.0254
0.0005 0.0377158 -0.0254 -0.0005 0.0377158 -0.0254 0.0005 0.0385375 -0.0254 -0.0005
0.0385375 -0.0254 0.0005 0.0393655 -0.0254 -0.0005 0.0393655 -0.0254 0.0005 0.0401999
-0.0254 -0.0005 0.0401999 -0.0254 0.0005 0.0410408 -0.0254 -0.0005 0.0410408 -0.0254
0.0005 0.0418883 -0.0254 -0.0005 0.0418883 -0.0254 0.0005 0.0427424 -0.0254 -0.0005
0.0427424 -0.0254 0.0005 0.0436031 -0.0254 -0.0005 0.0436031 -0.0254 0.0005 0.0444704
-0.0254 -0.0005 0.0444704 -0.0254 0.0005 0.0453446 -0.0254 -0.0005 0.0453446 -0.0254
0.0005 0.0462255 -0.0254 -0.0005 0.0462255 -0.0254 0.0005 0.0471133 -0.0254 -0.0005
0.0471133 -0.0254 0.0005 0.048008 -0.0254 -0.0005 0.048008 -0.0254 0.0005 0.0489096
-0.0254 -0.0005 0.0489096 -0.0254 0.0005 0.0498183 -0.0254 -0.0005 0.0498183 -0.0254
0.0005 0.050734 -0.0254 -0.0005 0.050734 -0.0254 0.0005 0.0516568 -0.0254 -0.0005
0.0516568 -0.0254 0.0005 0.0525868 -0.0254 -0.0005 0.0525868 -0.0254 0.0005 0.053524
-0.0254 -0.0005 0.053524 -0.0254 0.0005 0.0544686 -0.0254 -0.0005 0.0544686 -0.0254
0.0005 0.0554204 -0.0254 -0.0005 0.0554204 -0.0254 0.0005 0.0563797 -0.0254 -0.0005
0.0563797 -0.0254 0.0005 0.0573464 -0.0254 -0.0005 0.0573464 -0.0254 0.0005 0.0583206
-0.0254 -0.0005 0.0583206 -0.0254 0.0005 0.0593025 -0.0254 -0.0005 0.0593025 -0.0254
0.0005 0.0602919 -0.0254 -0.0005 0.0602919 -0.0254 0.0005 0.0612891 -0.0254 -0.0005
0.0612891 -0.0254 0.0005 0.0622939 -0.0254 -0.0005 0.0622939 -0.0254 0.0005 0.0633067
-0.0254 -0.0005 0.0633067 -0.0254 0.0005 0.0643272 -0.0254 -0.0005 0.0643272 -0.0254
0.0005 0.0653557 -0.0254 -0.0005 0.0653557 -0.0254 0.0005 0.0663923 -0.0254 -0.0005
0.0663923 -0.0254 0.0005 0.0674368 -0.0254 -0.0005 0.0674368 -0.0254 0.0005 0.0684895
-0.0254 -0.0005 0.0684895 -0.0254 0.0005 0.0695504 -0.0254 -0.0005 0.0695504 -0.0254
0.0005 0.0706195 -0.0254 -0.0005 0.0706195 -0.0254 0.0005 0.0716969 -0.0254 -0.0005
0.0716969 -0.0254 0.0005 0.0727828 -0.0254 -0.0005 0.0727828 -0.0254 0.0005 0.073877
-0.0254 -0.0005 0.073877 -0.0254 0.0005 0.0749798 -0.0254 -0.0005 0.0749798 -0.0254
0.0005 0.0760911 -0.0254 -0.0005 0.0760911 -0.0254 0.0005 0.0772111 -0.0254 -0.0005
0.0772111 -0.0254 0.0005 0.0783398 -0.0254 -0.0005 0.0783398 -0.0254 0.0005 0.0794772
-0.0254 -0.0005 0.0794772 -0.0254 0.0005 0.0806235 -0.0254 -0.0005 0.0806235 -0.0254
0.0005 0.0817787 -0.0254 -0.0005 0.0817787 -0.0254 0.0005 0.0829429 -0.0254 -0.0005
0.0829429 -0.0254 0.0005 0.0841162 -0.0254 -0.0005 0.0841162 -0.0254 0.0005 0.0852985
-0.0254 -0.0005 0.0852985 -0.0254 0.0005 0.0864901 -0.0254 -0.0005 0.0864901 -0.0254
0.0005 0.0876909 -0.0254 -0.0005 0.0876909 -0.0254 0.0005 0.0889011 -0.0254 -0.0005
0.0889011 -0.0254 0.0005 0.0901207 -0.0254 -0.0005 0.0901207 -0.0254 0.0005 0.0913497
-0.0254 -0.0005 0.0913497 -0.0254 0.0005 0.0925883 -0.0254 -0.0005 0.0925883 -0.0254
0.0005 0.0938366 -0.0254 -0.0005 0.0938366 -0.0254 0.0005 0.0950945 -0.0254 -0.0005
0.0950945 -0.0254 0.0005 0.0963622 -0.0254 -0.0005 0.0963622 -0.0254 0.0005 0.0976398
-0.0254 -0.0005 0.0976398 -0.0254 0.0005 0.0989273 -0.0254 -0.0005 0.0989273 -0.0254
0.0005 0.100225 -0.0254 -0.0005 0.100225 -0.0254 0.0005 0.101532 -0.0254 -0.0005
0.101532 -0.0254 0.0005 0.10285 -0.0254 -0.0005 0.10285 -0.0254 0.0005 0.104178
-0.0254 -0.0005 0.104178 -0.0254 0.0005 0.105517 -0.0254 -0.0005 0.105517 -0.0254
0.0005 0.106865 -0.0254 -0.0005 0.106865 -0.0254 0.0005 0.108225 -0.0254 -0.0005
0.108225 -0.0254 0.0005 0.109594 -0.0254 -0.0005 0.109594 -0.0254 0.0005 0.110975
-0.0254 -0.0005 0.110975 -0.0254 0.0005 0.112366 -0.0254 -0.0005 0.112366 -0.0254
0.0005 0.113768 -0.0254 -0.0005 0.113768 -0.0254 0.0005 0.115181 -0.0254 -0.0005
0.115181 -0.0254 0.0005 0.116605 -0.0254 -0.0005 0.116605 -0.0254 0.0005 0.11804
-0.0254 -0.0005 0.11804 -0.0254 0.0005 0.119486 -0.0254 -0.0005 0.119486 -0.0254
0.0005 0.120943 -0.0254 -0.0005 0.120943 -0.0254 0.0005 0.122412 -0.0254 -0.0005
0.122412 -0.0254 0.0005 0.123892 -0.0254 -0.0005 0.123892 -0.0254 0.0005 0.125384
-0.0254 -0.0005 0.125384 -0.0254 0.0005 0.126887 -0.0254 -0.0005 0.126887 -0.0254
0.0005 0.128402 -0.0254 -0.0005 0.128402 -0.0254 0.0005 0.129928 -0.0254 -0.0005
0.129928 -0.0254 0.0005 0.131467 -0.0254 -0.0005 0.131467 -0.0254 0.0005 0.133017
-0.0254 -0.0005 0.133017 -0.0254 0.0005 0.13458 -0.0254 -0.0005 0.13458 -0.0254
0.0005 0.136155 -0.0254 -0.0005 0.136155 -0.0254 0.0005 0.137742 -0.0254 -0.0005
0.137742 -0.0254 0.0005 0.139341 -0.0254 -0.0005 0.139341 -0.0254 0.0005 0.140953
-0.0254 -0.0005 0.140953 -0.0254 0.0005 0.142577 -0.0254 -0.0005 0.142577 -0.0254
0.0005 0.144214 -0.0254 -0.0005 0.144214 -0.0254 0.0005 0.145863 -0.0254 -0.0005
0.145863 -0.0254 0.0005 0.147526 -0.0254 -0.0005 0.147526 -0.0254 0.0005 0.149201
-0.0254 -0.0005 0.149201 -0.0254 0.0005 0.15089 -0.0254 -0.0005 0.15089 -0.0254
0.0005 0.152591 -0.0254 -0.0005 0.152591 -0.0254 0.0005 0.154306 -0.0254 -0.0005
0.154306 -0.0254 0.0005 0.156034 -0.0254 -0.0005 0.156034 -0.0254 0.0005 0.157775
-0.0254 -0.0005 0.157775 -0.0254 0.0005 0.159531 -0.0254 -0.0005 0.159531 -0.0254
0.0005 0.161299 -0.0254 -0.0005 0.161299 -0.0254 0.0005 0.163082 -0.0254 -0.0005
0.163082 -0.0254 0.0005 0.164878 -0.0254 -0.0005 0.164878 -0.0254 0.0005 0.166688
-0.0254 -0.0005 0.166688 -0.0254 0.0005 0.168513 -0.0254 -0.0005 0.168513 -0.0254
0.0005 0.170351 -0.0254 -0.0005 0.170351 -0.0254 0.0005 0.172204 -0.0254 -0.0005
0.172204 -0.0254 0.0005 0.174071 -0.0254 -0.0005 0.174071 -0.0254 0.0005 0.175953
-0.0254 -0.0005 0.175953 -0.0254 0.0005 0.177849 -0.0254 -0.0005 0.177849 -0.0254
0.0005 0.17976 -0.0254 -0.0005 0.17976 -0.0254 0.0005 0.181686 -0.0254 -0.0005
0.181686 -0.0254 0.0005 0.183627 -0.0254 -0.0005 0.183627 -0.0254 0.0005 0.185583
-0.0254 -0.0005 0.185583 -0.0254 0.0005 0.187555 -0.0254 -0.0005 0.187555 -0.0254
0.0005 0.189541 -0.0254 -0.0005 0.189541 -0.0254 0.0005 0.191543 -0.0254 -0.0005
0.191543 -0.0254 0.0005 0.193561 -0.0254 -0.0005 0.193561 -0.0254 0.0005 0.195594
-0.0254 -0.0005 0.195594 -0.0254 0.0005 0.197643 -0.0254 -0.0005 0.197643 -0.0254
0.0005 0.199708 -0.0254 -0.0005 0.199708 -0.0254 0.0005 0.201789 -0.0254 -0.0005
0.201789 -0.0254 0.0005 0.203886 -0.0254 -0.0005 0.203886 -0.0254 0.0005 0.206
-0.0254 -0.0005 0.206 -0.0254 0.0005 0.208047 -0.0251856 -0.0005 0.208047 -0.0251856
0.0005 0.210173 -0.0249628 -0.0005 0.210173 -0.0249628 0.0005 0.212382 -0.0247314 -0.0005
0.212382 -0.0247314 0.0005 0.214677 -0.024491 -0.0005 0.214677 -0.024491 0.0005 0.217061
-0.0242412 -0.0005 0.217061 -0.0242412 0.0005 0.219538 -0.0239817 -0.0005 0.219538 -0.0239817
0.0005 0.222112 -0.0237121 -0.0005 0.222112 -0.0237121 0.0005 0.224785 -0.023432 -0.0005
0.224785 -0.023432 0.0005 0.227563 -0.023141 -0.0005 0.227563 -0.023141 0.0005 0.230449
-0.0228387 -0.0005 0.230449 -0.0228387 0.0005 0.233447 -0.0225246 -0.0005 0.233447 -0.0225246
0.0005 0.236562 -0.0221983 -0.0005 0.236562 -0.0221983 0.0005 0.239797 -0.0218593 -0.0005
0.239797 -0.0218593 0.0005 0.243159 -0.0215071 -0.0005 0.243159 -0.0215071 0.0005 0.246652
-0.0211412 -0.0005 0.246652 -0.0211412 0.0005 0.250281 -0.0207611 -0.0005 0.250281 -0.0207611
0.0005 0.254051 -0.0203661 -0.0005 0.254051 -0.0203661 0.0005 0.257967 -0.0199558 -0.0005
0.257967 -0.0199558 0.0005 0.262036 -0.0195295 -0.0005 0.262036 -0.0195295 0.0005 0.266264
-0.0190867 -0.0005 0.266264 -0.0190867 0.0005 0.270655 -0.0186266 -0.0005 0.270655 -0.0186266
0.0005 0.275218 -0.0181486 -0.0005 0.275218 -0.0181486 0.0005 0.279959 -0.017652 -0.0005
0.279959 -0.017652 0.0005 0.284883 -0.017136 -0.0005 0.284883 -0.017136 0.0005 0.29
-0.0166 -0.0005 0.29 -0.0166 0.0005 
POLYGONS 250 1250
4 0 1 2 3 4 1 4 5 2 4
4 6 7 5 4 6 8 9 7 4
8 10 11 9 4 10 12 13 11 4
12 14 15 13 4 14 16 17 15 4
16 18 19 17 4 18 20 21 19 4
20 22 23 21 4 22 24 25 23 4
24 26 27 25 4 26 28 29 27 4
28 30 31 29 4 30 32 33 31 4
32 34 35 33 4 34 36 37 35 4
38 39 40 41 4 41 40 42 43 4
43 42 44 45 4 45 44 46 47 4
47 46 48 49 4 49 48 50 51 4
51 50 52 53 4 53 52 54 55 4
55 54 56 57 4 57 56 58 59 4
59 58 60 61 4 61 60 62 63 4
63 62 64 65 4 65 64 66 67 4
67 66 68 69 4 69 68 70 71 4
71 70 72 73 4 73 72 74 75 4
75 74 76 77 4 77 76 78 79 4
79 78 80 81 4 81 80 82 83 4
83 82 84 85 4 85 84 86 87 4
87 86 88 89 4 89 88 90 91 4
91 90 37 36 4 38 92 93 39 4
92 94 95 93 4 94 96 97 95 4
96 98 99 97 4 98 100 101 99 4
100 102 103 101 4 102 104 105 103 4
104 106 107 105 4 106 108 109 107 4
108 110 111 109 4 110 112 113 111 4
112 114 115 113 4 114 116 117 115 4
116 118 119 117 4 118 120 121 119 4
120 122 123 121 4 122 124 125 123 4
124 126 127 125 4 126 128 129 127 4
128 130 131 129 4 130 132 133 131 4
132 134 135 133 4 134 136 137 135 4
136 138 139 137 4 138 140 141 139 4
140 142 143 141 4 142 144 145 143 4
144 146 147 145 4 146 148 149 147 4
148 150 151 149 4 150 152 153 151 4
152 154 155 153 4 154 156 157 155 4
156 158 159 157 4 158 160 161 159 4
160 162 163 161 4 162 164 165 163 4
164 166 167 165 4 166 168 169 167 4
168 170 171 169 4 170 172 173 171 4
172 174 175 173 4 174 176 177 175 4
176 178 179 177 4 178 180 181 179 4
180 182 183 181 4 182 184 185 183 4
184 186 187 185 4 186 188 189 187 4
188 190 191 189 4 190 192 193 191 4
192 194 195 193 4 194 196 197 195 4
196 198 199 197 4 198 200 201 199 4
200 202 203 201 4 202 204 205 203 4
204 206 207 205 4 206 208 209 207 4
208 210 211 209 4 210 212 213 211 4
212 214 215 213 4 214 216 217 215 4
216 218 219 217 4 218 220 221 219 4
220 222 223 221 4 222 224 225 223 4
224 226 227 225 4 226 228 229 227 4
228 230 231 229 4 230 232 233 231 4
232 234 235 233 4 234 236 237 235 4
236 238 239 237 4 238 240 241 239 4
240 242 243 241 4 242 244 245 243 4
244 246 247 245 4 246 248 249 247 4
248 250 251 249 4 250 252 253 251 4
252 254 255 253 4 254 256 257 255 4
256 258 259 257 4 258 260 261 259 4
260 262 263 261 4 262 264 265 263 4
264 266 267 265 4 266 268 269 267 4
268 270 271 269 4 270 272 273 271 4
272 274 275 273 4 274 276 277 275 4
276 278 279 277 4 278 280 281 279 4
280 282 283 281 4 282 284 285 283 4
284 286 287 285 4 286 288 289 287 4
288 290 291 289 4 290 292 293 291 4
292 294 295 293 4 294 296 297 295 4
296 298 299 297 4 298 300 301 299 4
300 302 303 301 4 302 304 305 303 4
304 306 307 305 4 306 308 309 307 4
308 310 311 309 4 310 312 313 311 4
312 314 315 313 4 314 316 317 315 4
316 318 319 317 4 318 320 321 319 4
320 322 323 321 4 322 324 325 323 4
324 326 327 325 4 326 328 329 327 4
328 330 331 329 4 330 332 333 331 4
332 334 335 333 4 334 336 337 335 4
336 338 339 337 4 338 340 341 339 4
340 342 343 341 4 342 344 345 343 4
344 346 347 345 4 346 348 349 347 4
348 350 351 349 4 350 352 353 351 4
352 354 355 353 4 354 356 357 355 4
356 358 359 357 4 358 360 361 359 4
360 362 363 361 4 362 364 365 363 4
364 366 367 365 4 366 368 369 367 4
368 370 371 369 4 370 372 373 371 4
372 374 375 373 4 374 376 377 375 4
376 378 379 377 4 378 380 381 379 4
380 382 383 381 4 382 384 385 383 4
384 386 387 385 4 386 388 389 387 4
388 390 391 389 4 390 392 393 391 4
392 394 395 393 4 394 396 397 395 4
396 398 399 397 4 398 400 401 399 4
400 402 403 401 4 402 404 405 403 4
404 406 407 405 4 406 408 409 407 4
408 410 411 409 4 410 412 413 411 4
412 414 415 413 4 414 416 417 415 4
416 418 419 417 4 418 420 421 419 4
420 422 423 421 4 422 424 425 423 4
424 426 427 425 4 426 428 429 427 4
428 430 431 429 4 430 432 433 431 4
432 434 435 433 4 434 436 437 435 4
436 438 439 437 4 438 440 441 439 4
440 442 443 441 4 442 444 445 443 4
444 446 447 445 4 446 448 449 447 4
448 450 451 449 4 450 452 453 451 4
452 454 455 453 4 454 456 457 455 4
456 458 459 457 4 458 460 461 459 4
460 462 463 461 4 462 464 465 463 4
464 466 467 465 4 466 468 469 467 4
468 470 471 469 4 470 472 473 471 4
472 474 475 473 4 474 476 477 475 4
476 478 479 477 4 478 480 481 479 4
480 482 483 481 4 482 484 485 483 4
484 486 487 485 4 486 488 489 487 4
488 490 491 489 4 490 492 493 491 4
492 494 495 493 4 494 496 497 495 4
496 498 499 497 4 498 500 501 499 
POINT_DATA 502
FIELD attributes 1
U 3 502 float
3.2081 -9.17002e-05 -0.00306635 1.61103 0.000325702 -0.0015111 1.61103 0.000325702 -0.0015111 3.2081 -9.17002e-05
-0.00306635 0.0581319 0.00058249 0 0.0581319 0.00058249 0 0.0557604 0.000307485 0
0.0557604 0.000307485 0 0.0536702 0.000119744 0 0.0536702 0.000119744 0 0.0522693
4.85787e-05 0 0.0522693 4.85787e-05 0 0.051271 8.0298e-05 0 0.051271 8.0298e-05
0 0.0501327 0.000207112 0 0.0501327 0.000207112 0 0.0485796 0.000368355 0
0.0485796 0.000368355 0 0.0466502 0.000480759 0 0.0466502 0.000480759 0 0.0445657
0.000500314 0 0.0445657 0.000500314 0 0.0425544 0.000442173 0 0.0425544 0.000442173
0 0.0408026 0.00035459 0 0.0408026 0.00035459 0 0.0392878 0.000286663 0
0.0392878 0.000286663 0 0.0379962 0.000235569 0 0.0379962 0.000235569 0 0.0368283
0.000229878 0 0.0368283 0.000229878 0 0.0357671 0.00023043 0 0.0357671 0.00023043
0 0.0345437 0.000269991 0 0.0345437 0.000269991 0 0.0157168 0.000627393 0
0.0157168 0.000627393 0 -6.39542e-05 0.000250566 -1.94919e-22 -6.39542e-05 0.000250566 -1.94919e-22 -3.51334e-05
0.000569978 5.27166e-22 -3.51334e-05 0.000569978 5.27166e-22 2.37203e-06 0.000906643 6.24902e-22 2.37203e-06 0.000906643
6.24902e-22 -0.000164618 0.00088162 -1.25048e-21 -0.000164618 0.00088162 -1.25048e-21 -8.29481e-05 0.000467297 -4.17742e-22
-8.29481e-05 0.000467297 -4.17742e-22 0.000966794 -0.00355946 8.33012e-22 0.000966794 -0.00355946 8.33012e-22 0.00132166
-0.00973462 0 0.00132166 -0.00973462 0 0.00055512 -0.0120862 1.67435e-21 0.00055512 -0.0120862
1.67435e-21 0.000279189 -0.01292 5.09394e-25 0.000279189 -0.01292 5.09394e-25 0.000143751 -0.0137266 -1.67384e-21
0.000143751 -0.0137266 -1.67384e-21 -4.07093e-05 -0.0135041 1.68257e-21 -4.07093e-05 -0.0135041 1.68257e-21 -8.79769e-05
-0.0132054 -1.93474e-25 -8.79769e-05 -0.0132054 -1.93474e-25 -0.000191015 -0.0124479 -1.68276e-21 -0.000191015 -0.0124479
-1.68276e-21 -0.000248231 -0.0114392 -1.69086e-21 -0.000248231 -0.0114392 -1.69086e-21 -0.000275251 -0.0102507 1.05139e-24
-0.000275251 -0.0102507 1.05139e-24 -0.000293205 -0.00891601 1.7219e-21 -0.000293205 -0.00891601 1.7219e-21 -0.000287239
-0.00749984 0 -0.000287239 -0.00749984 0 -0.000282598 -0.00618468 0 -0.000282598 -0.00618468
0 -0.000275576 -0.00502347 0 -0.000275576 -0.00502347 0 -0.000263641 -0.00401258 0
-0.000263641 -0.00401258 0 -0.000248811 -0.00313907 0 -0.000248811 -0.00313907 0 -0.000239649
-0.00239352 0 -0.000239649 -0.00239352 0 -0.000239492 -0.00183475 0 -0.000239492 -0.00183475
0 -0.000289104 -0.0011258 0 -0.000289104 -0.0011258 0 -0.000596977 -0.000729786 0
-0.000596977 -0.000729786 0 -0.0007683 0.000415064 0 -0.0007683 0.000415064 0 -1.05296e-05
0.00124597 0 -1.05296e-05 0.00124597 0 -0.000165155 0.000265604 -8.46252e-25 -0.000165155 0.000265604
-8.46252e-25 -0.000357273 0.000220997 9.68617e-23 -0.000357273 0.000220997 9.68617e-23 -0.000466464 6.46385e-05 0
-0.000466464 6.46385e-05 0 -0.000387528 -0.000137861 0 -0.000387528 -0.000137861 0 -5.35444e-05
-0.000354061 -9.39256e-23 -5.35444e-05 -0.000354061 -9.39256e-23 0.000532418 -0.00055688 -9.40943e-23 0.000532418 -0.00055688
-9.40943e-23 0.00128878 -0.000707877 0 0.00128878 -0.000707877 0 0.00213232 -0.000793787 0
0.00213232 -0.000793787 0 0.00301287 -0.000821226 0 0.00301287 -0.000821226 0 0.00389193
-0.000801635 9.01982e-23 0.00389193 -0.000801635 9.01982e-23 0.00473905 -0.000751238 9.037e-23 0.00473905 -0.000751238
9.037e-23 0.00553262 -0.00068417 0 0.00553262 -0.00068417 0 0.00626055 -0.000608943 0
0.00626055 -0.000608943 0 0.00691705 -0.000530238 0 0.00691705 -0.000530238 0 0.00749935
-0.000450337 8.72073e-23 0.00749935 -0.000450337 8.72073e-23 0.00800574 -0.000370064 8.73834e-23 0.00800574 -0.000370064
8.73834e-23 0.00843396 -0.00028962 0 0.00843396 -0.00028962 0 0.00878133 -0.000209063 0
0.00878133 -0.000209063 0 0.0090445 -0.000128313 0 0.0090445 -0.000128313 0 0.00921991
-4.68747e-05 0 0.00921991 -4.68747e-05 0 0.00930465 3.54574e-05 0 0.00930465 3.54574e-05
0 0.00929217 0.000119767 0 0.00929217 0.000119767 0 0.00917858 0.000206285 8.27272e-23
0.00917858 0.000206285 8.27272e-23 0.00896757 0.00029159 7.78235e-25 0.00896757 0.00029159 7.78235e-25 0.00866347
0.000370099 -7.85933e-25 0.00866347 0.000370099 -7.85933e-25 0.00827498 0.000437272 1.62636e-22 0.00827498 0.000437272
1.62636e-22 0.00781077 0.000492782 8.1107e-23 0.00781077 0.000492782 8.1107e-23 0.00728279 0.000534057 0
0.00728279 0.000534057 0 0.00670688 0.000556624 -7.90921e-23 0.00670688 0.000556624 -7.90921e-23 0.00609614
0.000575903 -1.57763e-22 0.00609614 0.000575903 -1.57763e-22 0.00545466 0.000611767 -7.86718e-23 0.00545466 0.000611767
-7.86718e-23 0.00479004 0.000619275 0 0.00479004 0.000619275 0 0.0041257 0.000568257 -7.66961e-23
0.0041257 0.000568257 -7.66961e-23 0.00347271 0.000496641 -7.6885e-23 0.00347271 0.000496641 -7.6885e-23 0.00287568
0.00034813 0 0.00287568 0.00034813 0 0.00241267 9.21454e-05 7.49103e-23 0.00241267 9.21454e-05
7.49103e-23 0.00210961 -0.000103311 7.51007e-23 0.00210961 -0.000103311 7.51007e-23 0.00191087 -0.000131463 7.36169e-23
0.00191087 -0.000131463 7.36169e-23 0.00172524 -8.95041e-05 2.1974e-22 0.00172524 -8.95041e-05 2.1974e-22 0.00157431
-3.67448e-05 1.46314e-22 0.00157431 -3.67448e-05 1.46314e-22 0.00159745 7.92365e-05 0 0.00159745 7.92365e-05
0 0.00166501 0.000226732 0 0.00166501 0.000226732 0 0.00133618 0.000424547 0
0.00133618 0.000424547 0 0.000744953 0.000515112 0 0.000744953 0.000515112 0 0.000300519
-5.30671e-05 1.38126e-22 0.000300519 -5.30671e-05 1.38126e-22 0.000272788 -0.000736551 2.75237e-22 0.000272788 -0.000736551
2.75237e-22 0.000834428 -0.000773272 2.72429e-22 0.000834428 -0.000773272 2.72429e-22 0.00133174 -0.00133732 1.35702e-22
0.00133174 -0.00133732 1.35702e-22 0.00136466 -0.00168505 -1.33098e-22 0.00136466 -0.00168505 -1.33098e-22 0.000627982
0.000122961 -1.33484e-22 0.000627982 0.000122961 -1.33484e-22 -0.00129472 0.00156416 1.30666e-22 -0.00129472 0.00156416
1.30666e-22 -0.00332621 0.00150155 2.60652e-22 -0.00332621 0.00150155 2.60652e-22 -0.00507908 0.00138286 1.29987e-22
-0.00507908 0.00138286 1.29987e-22 -0.00676425 0.00124867 0 -0.00676425 0.00124867 0 -0.00825686
0.00113823 0 -0.00825686 0.00113823 0 -0.00964832 0.00101363 1.265e-22 -0.00964832 0.00101363
1.265e-22 -0.010875 0.000898312 1.26891e-22 -0.010875 0.000898312 1.26891e-22 -0.0119879 0.000788113 0
-0.0119879 0.000788113 0 -0.012966 0.000689191 0 -0.012966 0.000689191 0 -0.0138362
0.000601566 0 -0.0138362 0.000601566 0 -0.0145932 0.000519547 0 -0.0145932 0.000519547
0 -0.0152481 0.000445299 0 -0.0152481 0.000445299 0 -0.0158017 0.000374812 0
-0.0158017 0.000374812 0 -0.0162583 0.000306304 0 -0.0162583 0.000306304 0 -0.0166208
0.000242971 -1.1966e-22 -0.0166208 0.000242971 -1.1966e-22 -0.0168954 0.000183029 -1.20062e-22 -0.0168954 0.000183029
-1.20062e-22 -0.0170862 0.000127528 0 -0.0170862 0.000127528 0 -0.0172005 7.94112e-05 1.16555e-22
-0.0172005 7.94112e-05 1.16555e-22 -0.0172453 3.72444e-05 2.32384e-22 -0.0172453 3.72444e-05 2.32384e-22 -0.0172307
1.48765e-06 1.15829e-22 -0.0172307 1.48765e-06 1.15829e-22 -0.0171647 -2.97192e-05 -1.13066e-22 -0.0171647 -2.97192e-05
-1.13066e-22 -0.0170512 -5.75514e-05 -1.62014e-24 -0.0170512 -5.75514e-05 -1.62014e-24 -0.0168959 -8.24169e-05 1.12245e-22
-0.0168959 -8.24169e-05 1.12245e-22 -0.0167031 -0.000104748 -1.09353e-22 -0.0167031 -0.000104748 -1.09353e-22 -0.0164779
-0.00012404 -1.0975e-22 -0.0164779 -0.00012404 -1.0975e-22 -0.0162253 -0.000139936 0 -0.0162253 -0.000139936
0 -0.0159503 -0.000152184 1.05549e-22 -0.0159503 -0.000152184 1.05549e-22 -0.0156577 -0.000160813 1.05941e-22
-0.0156577 -0.000160813 1.05941e-22 -0.0153518 -0.000166176 -1.0301e-22 -0.0153518 -0.000166176 -1.0301e-22 -0.015036
-0.00016881 -1.03399e-22 -0.015036 -0.00016881 -1.03399e-22 -0.0147128 -0.000169287 1.00489e-22 -0.0147128 -0.000169287
1.00489e-22 -0.0143837 -0.000168126 2.00111e-22 -0.0143837 -0.000168126 2.00111e-22 -0.0140496 -0.000165794 1.97612e-22
-0.0140496 -0.000165794 1.97612e-22 -0.0137108 -0.0001628 2.91876e-22 -0.0137108 -0.0001628 2.91876e-22 -0.0133669
-0.000159857 3.22805e-24 -0.0133669 -0.000159857 3.22805e-24 -0.0130173 -0.000158037 -1.91791e-22 -0.0130173 -0.000158037
-1.91791e-22 -0.012661 -0.000158791 0 -0.012661 -0.000158791 0 -0.012296 -0.000163613 0
-0.012296 -0.000163613 0 -0.0119193 -0.000173352 -1.81274e-22 -0.0119193 -0.000173352 -1.81274e-22 -0.0115259
-0.00018746 -3.60875e-22 -0.0115259 -0.00018746 -3.60875e-22 -0.0111106 -0.000203576 -3.13449e-24 -0.0111106 -0.000203576
-3.13449e-24 -0.010669 -0.000217861 1.77193e-22 -0.010669 -0.000217861 1.77193e-22 -0.0101997 -0.000226374 -1.71705e-22
-0.0101997 -0.000226374 -1.71705e-22 -0.00970603 -0.000227192 -3.41775e-22 -0.00970603 -0.000227192 -3.41775e-22 -0.00919371
-0.000222619 -3.37078e-22 -0.00919371 -0.000222619 -3.37078e-22 -0.00866536 -0.000220658 -1.67724e-22 -0.00866536 -0.000220658
-1.67724e-22 -0.0081144 -0.000233822 0 -0.0081144 -0.000233822 0 -0.00752331 -0.000272433 0
-0.00752331 -0.000272433 0 -0.00686493 -0.000334926 -1.57925e-22 -0.00686493 -0.000334926 -1.57925e-22 -0.00611079
-0.000406039 -1.58616e-22 -0.00611079 -0.000406039 -1.58616e-22 -0.00525731 -0.000464521 0 -0.00525731 -0.000464521
0 -0.00434746 -0.0004905 1.51607e-22 -0.00434746 -0.0004905 1.51607e-22 -0.00343704 -0.000477711 1.52284e-22
-0.00343704 -0.000477711 1.52284e-22 -0.00252373 -0.00045 0 -0.00252373 -0.00045 0 -0.00159609
-0.000418012 1.45972e-22 -0.00159609 -0.000418012 1.45972e-22 -0.000705572 -0.000381489 1.46637e-22 -0.000705572 -0.000381489
1.46637e-22 0.000177773 -0.000393251 0 0.000177773 -0.000393251 0 0.00125296 -0.000499355 -1.40447e-22
0.00125296 -0.000499355 -1.40447e-22 0.00264627 -0.000679537 -2.79724e-22 0.00264627 -0.000679537 -2.79724e-22 0.00430186
-0.000810412 -1.39272e-22 0.00430186 -0.000810412 -1.39272e-22 0.00599661 -0.000575881 1.35789e-22 0.00599661 -0.000575881
1.35789e-22 0.00674544 9.30894e-05 1.36431e-22 0.00674544 9.30894e-05 1.36431e-22 0.00582959 0.000578589 -1.33161e-22
0.00582959 0.000578589 -1.33161e-22 0.00446171 0.000388141 -1.33798e-22 0.00446171 0.000388141 -1.33798e-22 0.00397508
-9.7614e-05 -1.3037e-22 0.00397508 -9.7614e-05 -1.3037e-22 0.00415213 -0.000313969 -2.59867e-22 0.00415213 -0.000313969
-2.59867e-22 0.00419491 -0.000182296 -1.29494e-22 0.00419491 -0.000182296 -1.29494e-22 0.00366198 0.000111162 0
0.00366198 0.000111162 0 0.00260672 0.000387596 0 0.00260672 0.000387596 0 0.00129514
0.000542924 0 0.00129514 0.000542924 0 -7.87235e-05 0.000579784 0 -7.87235e-05 0.000579784
0 -0.00142524 0.000558366 0 -0.00142524 0.000558366 0 -0.0027083 0.000521291 0
-0.0027083 0.000521291 0 -0.00392933 0.000486484 -1.21139e-22 -0.00392933 0.000486484 -1.21139e-22 -0.00509741
0.000457963 -1.284e-24 -0.00509741 0.000457963 -1.284e-24 -0.00621847 0.000433746 1.21089e-22 -0.00621847 0.000433746
1.21089e-22 -0.00729465 0.000410914 0 -0.00729465 0.000410914 0 -0.00832169 0.000386305 0
-0.00832169 0.000386305 0 -0.00928716 0.000356692 0 -0.00928716 0.000356692 0 -0.0101711
0.000319782 2.34675e-22 -0.0101711 0.000319782 2.34675e-22 -0.0109485 0.000274485 2.35908e-22 -0.0109485 0.000274485
2.35908e-22 -0.0115922 0.000220782 -2.31147e-22 -0.0115922 0.000220782 -2.31147e-22 -0.0120755 0.000159728 -3.51868e-24
-0.0120755 0.000159728 -3.51868e-24 -0.012375 9.32486e-05 2.30075e-22 -0.012375 9.32486e-05 2.30075e-22 -0.0124715
2.51433e-05 0 -0.0124715 2.51433e-05 0 -0.0123574 -4.31652e-05 0 -0.0123574 -4.31652e-05
0 -0.012032 -0.000111727 -2.15049e-22 -0.012032 -0.000111727 -2.15049e-22 -0.0114956 -0.000177884 -4.26719e-22
-0.0114956 -0.000177884 -4.26719e-22 -0.0107564 -0.00023887 -2.1165e-22 -0.0107564 -0.00023887 -2.1165e-22 -0.00983014
-0.000292154 -2.00611e-22 -0.00983014 -0.000292154 -2.00611e-22 -0.00874072 -0.000335418 -3.97222e-22 -0.00874072 -0.000335418
-3.97222e-22 -0.00751969 -0.00036662 -6.12744e-24 -0.00751969 -0.00036662 -6.12744e-24 -0.00620546 -0.000384119 1.91519e-22
-0.00620546 -0.000384119 1.91519e-22 -0.00484058 -0.000387054 0 -0.00484058 -0.000387054 0 -0.00346787
-0.000376892 1.7666e-22 -0.00346787 -0.000376892 1.7666e-22 -0.00212711 -0.000355288 1.77655e-22 -0.00212711 -0.000355288
1.77655e-22 -0.000859195 -0.000325356 0 -0.000859195 -0.000325356 0 0.000303534 -0.000291836 0
0.000303534 -0.000291836 0 0.00135176 -0.000257062 0 0.00135176 -0.000257062 0 0.0022841
-0.000223306 -1.59385e-22 0.0022841 -0.000223306 -1.59385e-22 0.00310213 -0.000192945 -3.16899e-22 0.00310213 -0.000192945
-3.16899e-22 0.00381656 -0.000167352 -1.57503e-22 0.00381656 -0.000167352 -1.57503e-22 0.00444285 -0.000147308 -1.5141e-22
0.00444285 -0.000147308 -1.5141e-22 0.00499885 -0.000132133 -1.52291e-22 0.00499885 -0.000132133 -1.52291e-22 0.0055014
-0.000121097 0 0.0055014 -0.000121097 0 0.0059666 -0.000115413 -1.44062e-22 0.0059666 -0.000115413
-1.44062e-22 0.00641435 -0.00011382 -1.4491e-22 0.00641435 -0.00011382 -1.4491e-22 0.00686192 -0.000116221 -1.39185e-22
0.00686192 -0.000116221 -1.39185e-22 0.0073273 -0.000128826 -1.4001e-22 0.0073273 -0.000128826 -1.4001e-22 0.00784525
-0.000141698 0 0.00784525 -0.000141698 0 0.00842543 -0.000150095 -1.31674e-22 0.00842543 -0.000150095
-1.31674e-22 0.00907069 -0.000185657 -1.32463e-22 0.00907069 -0.000185657 -1.32463e-22 0.00985647 -0.000216557 -1.26585e-22