/*--------------------------------*- C++ -*----------------------------------*\
  =========                 |
  \\      /  F ield         | OpenFOAM: The Open Source CFD Toolbox
   \\    /   O peration     | Website:  https://openfoam.org
    \\  /    A nd           | Version:  9
     \\/     M anipulation  |
\*---------------------------------------------------------------------------*/
FoamFile
{
    format      ascii;
    class       surfaceScalarField;
    location    "0.04";
    object      phi;
}
// * * * * * * * * * * * * * * * * * * * * * * * * * * * * * * * * * * * * * //

dimensions      [0 3 -1 0 0 0 0];

internalField   nonuniform List<scalar> 
24170
(
3.07891e-06
3.80033e-08
2.97832e-06
1.00581e-07
2.85578e-06
1.22545e-07
2.74519e-06
1.10587e-07
2.64858e-06
9.66101e-08
2.55646e-06
9.21188e-08
2.46568e-06
9.078e-08
2.37124e-06
9.44471e-08
2.26387e-06
1.07366e-07
2.13771e-06
1.2616e-07
1.99763e-06
1.40084e-07
1.84625e-06
1.51376e-07
1.68004e-06
1.66206e-07
1.47553e-06
2.04509e-07
1.21566e-06
2.59877e-07
8.92781e-07
3.22876e-07
4.96577e-07
3.96204e-07
4.71334e-07
2.52432e-08
3.36451e-06
2.90563e-08
3.40547e-06
5.96196e-08
3.4396e-06
8.84227e-08
3.46444e-06
8.57422e-08
3.47092e-06
9.01315e-08
3.45712e-06
1.05914e-07
3.4253e-06
1.22602e-07
3.38462e-06
1.35126e-07
3.34194e-06
1.50049e-07
3.3002e-06
1.67903e-07
3.25055e-06
1.89732e-07
3.18842e-06
2.13502e-07
3.10027e-06
2.54355e-07
2.98892e-06
3.15862e-07
2.8405e-06
4.08295e-07
2.6528e-06
5.10575e-07
2.4411e-06
6.07906e-07
6.65361e-07
2.24707e-06
3.5986e-06
-2.60338e-08
3.61591e-06
4.23042e-08
3.61924e-06
8.50951e-08
3.61476e-06
9.02211e-08
3.61624e-06
8.86548e-08
3.62266e-06
9.94895e-08
3.6277e-06
1.17567e-07
3.62857e-06
1.34254e-07
3.62503e-06
1.53584e-07
3.61903e-06
1.73904e-07
3.60708e-06
2.01682e-07
3.58694e-06
2.33644e-07
3.55358e-06
2.87716e-07
3.50975e-06
3.59695e-07
3.45957e-06
4.58474e-07
3.40606e-06
5.64089e-07
3.37397e-06
6.39993e-07
7.02362e-07
3.33697e-06
3.89634e-06
-3.6553e-08
3.91004e-06
2.86059e-08
3.92402e-06
7.11191e-08
3.92998e-06
8.4258e-08
3.92731e-06
9.13217e-08
3.92538e-06
1.01425e-07
3.92995e-06
1.12991e-07
3.93375e-06
1.30456e-07
3.92624e-06
1.61097e-07
3.90339e-06
1.96753e-07
3.87083e-06
2.34238e-07
3.83492e-06
2.69555e-07
3.80497e-06
3.17665e-07
3.7818e-06
3.8287e-07
3.7727e-06
4.67568e-07
3.77698e-06
5.59813e-07
3.78972e-06
6.27253e-07
6.80514e-07
3.81157e-06
4.24725e-06
-6.60206e-08
4.27629e-06
-4.40781e-10
4.26609e-06
8.13165e-08
4.24025e-06
1.10099e-07
4.21029e-06
1.2129e-07
4.19068e-06
1.21034e-07
4.18863e-06
1.1504e-07
4.19448e-06
1.24606e-07
4.19195e-06
1.63621e-07
4.17034e-06
2.1837e-07
4.13325e-06
2.7132e-07
4.08919e-06
3.13614e-07
4.05175e-06
3.55114e-07
4.02677e-06
4.07847e-07
4.02068e-06
4.73654e-07
4.03177e-06
5.4873e-07
4.04754e-06
6.11474e-07
6.55012e-07
4.07305e-06
4.47261e-06
2.16171e-08
4.46158e-06
1.05931e-08
4.46939e-06
7.35089e-08
4.4891e-06
9.03877e-08
4.51159e-06
9.87984e-08
4.5181e-06
1.14528e-07
4.50092e-06
1.32223e-07
4.46706e-06
1.58458e-07
4.4313e-06
1.99382e-07
4.40228e-06
2.47387e-07
4.38132e-06
2.92288e-07
4.36404e-06
3.30891e-07
4.34876e-06
3.7039e-07
4.33568e-06
4.20927e-07
4.32729e-06
4.82051e-07
4.32602e-06
5.49999e-07
4.32748e-06
6.10015e-07
6.50595e-07
4.33189e-06
4.86184e-06
-9.57086e-08
4.85518e-06
1.72541e-08
4.79967e-06
1.29021e-07
4.76533e-06
1.24725e-07
4.75842e-06
1.05716e-07
4.76608e-06
1.06863e-07
4.77443e-06
1.23877e-07
4.77543e-06
1.57452e-07
4.76851e-06
2.063e-07
4.75592e-06
2.59977e-07
4.74008e-06
3.08128e-07
4.72203e-06
3.48944e-07
4.7039e-06
3.88522e-07
4.6897e-06
4.35124e-07
4.68156e-06
4.90194e-07
4.6817e-06
5.49862e-07
4.68586e-06
6.05848e-07
6.48178e-07
4.68828e-06
5.22004e-06
-4.69524e-08
5.16977e-06
6.75172e-08
5.17169e-06
1.27107e-07
5.16511e-06
1.31308e-07
5.14547e-06
1.25355e-07
5.11728e-06
1.35052e-07
5.0898e-06
1.51361e-07
5.06918e-06
1.78072e-07
5.05696e-06
2.18513e-07
5.05146e-06
2.6548e-07
5.04949e-06
3.10101e-07
5.04799e-06
3.50438e-07
5.04559e-06
3.90924e-07
5.04368e-06
4.37034e-07
5.0442e-06
4.89678e-07
5.04914e-06
5.44919e-07
5.05758e-06
5.97412e-07
6.42145e-07
5.06361e-06
5.49147e-06
-3.85554e-10
5.55434e-06
4.64127e-09
5.5945e-06
8.69446e-08
5.61588e-06
1.09933e-07
5.61844e-06
1.22796e-07
5.613e-06
1.40494e-07
5.60493e-06
1.59425e-07
5.59636e-06
1.86642e-07
5.5881e-06
2.2677e-07
5.57767e-06
2.75913e-07
5.56008e-06
3.27694e-07
5.53205e-06
3.78466e-07
5.49522e-06
4.27759e-07
5.45555e-06
4.76702e-07
5.42111e-06
5.24119e-07
5.39669e-06
5.69333e-07
5.38471e-06
6.09398e-07
6.45296e-07
5.38156e-06
5.91781e-06
-1.57528e-07
5.93318e-06
-1.07299e-08
5.93563e-06
8.44915e-08
5.9361e-06
1.09469e-07
5.93527e-06
1.23623e-07
5.93332e-06
1.42443e-07
5.92835e-06
1.64395e-07
5.92159e-06
1.93405e-07
5.91509e-06
2.33271e-07
5.90681e-06
2.84189e-07
5.89187e-06
3.42634e-07
5.86717e-06
4.03167e-07
5.83469e-06
4.60238e-07
5.79986e-06
5.1153e-07
5.76871e-06
5.55275e-07
5.7446e-06
5.93434e-07
5.72794e-06
6.26064e-07
6.55749e-07
5.71749e-06
6.36028e-06
-6.39099e-08
6.33089e-06
1.86564e-08
6.32117e-06
9.42161e-08
6.32441e-06
1.06226e-07
6.34096e-06
1.07077e-07
6.34841e-06
1.34984e-07
6.33335e-06
1.79458e-07
6.30372e-06
2.23039e-07
6.27578e-06
2.61212e-07
6.25859e-06
3.01374e-07
6.25129e-06
3.49936e-07
6.24831e-06
4.0615e-07
6.24511e-06
4.6344e-07
6.2409e-06
5.1574e-07
6.23649e-06
5.59683e-07
6.23379e-06
5.9613e-07
6.23227e-06
6.27586e-07
6.58464e-07
6.22955e-06
5.75868e-06
-2.89835e-08
5.77505e-06
2.28803e-09
5.81253e-06
5.67306e-08
5.82463e-06
9.41261e-08
5.79443e-06
1.3728e-07
5.74684e-06
1.82578e-07
5.71417e-06
2.12123e-07
5.70793e-06
2.29284e-07
5.71751e-06
2.51627e-07
5.72662e-06
2.92263e-07
5.72658e-06
3.49976e-07
5.71785e-06
4.14886e-07
5.70508e-06
4.76204e-07
5.69272e-06
5.28104e-07
5.68315e-06
5.6925e-07
5.67736e-06
6.01924e-07
5.67479e-06
6.30149e-07
6.58862e-07
5.6744e-06
6.86215e-06
2.62622e-09
6.85126e-06
1.31862e-08
6.89923e-06
8.75081e-09
6.96901e-06
2.43495e-08
7.00267e-06
1.03619e-07
6.99732e-06
1.87933e-07
6.97593e-06
2.33513e-07
6.95483e-06
2.5038e-07
6.93859e-06
2.67866e-07
6.92803e-06
3.0282e-07
6.92575e-06
3.52264e-07
6.93438e-06
4.06249e-07
6.9539e-06
4.56692e-07
6.97881e-06
5.03193e-07
7.00139e-06
5.46668e-07
7.01439e-06
5.88919e-07
7.01424e-06
6.30303e-07
6.69622e-07
7.00348e-06
8.48473e-06
-3.51395e-08
8.51541e-06
-1.74982e-08
8.54145e-06
-1.72848e-08
8.58932e-06
-2.35211e-08
8.65333e-06
3.96093e-08
8.70601e-06
1.3525e-07
8.71549e-06
2.24032e-07
8.67663e-06
2.89239e-07
8.6092e-06
3.35298e-07
8.54078e-06
3.71238e-07
8.49146e-06
4.01586e-07
8.46782e-06
4.29889e-07
8.46599e-06
4.58523e-07
8.47609e-06
4.93094e-07
8.48749e-06
5.35268e-07
8.49203e-06
5.8438e-07
8.48628e-06
6.36057e-07
6.83631e-07
8.47227e-06
1.04605e-05
-1.61848e-08
1.04644e-05
-2.13931e-08
1.04626e-05
-1.55161e-08
1.05075e-05
-6.83664e-08
1.05761e-05
-2.90442e-08
1.06198e-05
9.1531e-08
1.0611e-05
2.32899e-07
1.05617e-05
3.38518e-07
1.04959e-05
4.01101e-07
1.04339e-05
4.33213e-07
1.03869e-05
4.48618e-07
1.03586e-05
4.58225e-07
1.03477e-05
4.69353e-07
1.0352e-05
4.88791e-07
1.03677e-05
5.19572e-07
1.03908e-05
5.61257e-07
1.04181e-05
6.08829e-07
6.57978e-07
1.04437e-05
1.26938e-05
-6.06676e-08
1.26318e-05
4.05694e-08
1.25721e-05
4.419e-08
1.25208e-05
-1.7107e-08
1.24916e-05
1.61051e-10
1.24928e-05
9.03246e-08
1.25249e-05
2.00846e-07
1.25615e-05
3.0189e-07
1.25914e-05
3.71267e-07
1.26126e-05
4.1195e-07
1.26263e-05
4.34914e-07
1.26343e-05
4.50208e-07
1.26397e-05
4.64025e-07
1.2647e-05
4.81485e-07
1.26625e-05
5.04025e-07
1.26907e-05
5.33095e-07
1.2735e-05
5.64536e-07
5.98291e-07
1.27947e-05
1.57944e-05
-1.01759e-07
1.57256e-05
1.09352e-07
1.57083e-05
6.14785e-08
1.56352e-05
5.59632e-08
1.55128e-05
1.22589e-07
1.54056e-05
1.97512e-07
1.53558e-05
2.50676e-07
1.53762e-05
2.81499e-07
1.54423e-05
3.05121e-07
1.55187e-05
3.35613e-07
1.55791e-05
3.74433e-07
1.5614e-05
4.15313e-07
1.56272e-05
4.50849e-07
1.56301e-05
4.78589e-07
1.56358e-05
4.98316e-07
1.56546e-05
5.14345e-07
1.56922e-05
5.26883e-07
5.411e-07
1.57494e-05
1.91213e-05
1.57084e-09
1.90801e-05
1.5061e-07
1.89951e-05
1.46471e-07
1.89007e-05
1.50398e-07
1.8829e-05
1.94241e-07
1.87933e-05
2.33175e-07
1.87981e-05
2.45912e-07
1.88381e-05
2.41465e-07
1.89003e-05
2.42951e-07
1.89719e-05
2.64063e-07
1.9045e-05
3.0127e-07
1.9117e-05
3.4333e-07
1.91886e-05
3.79301e-07
1.9263e-05
4.04179e-07
1.9344e-05
4.17283e-07
1.94347e-05
4.23699e-07
1.95359e-05
4.25625e-07
4.29265e-07
1.96477e-05
2.28743e-05
-9.18541e-08
2.30467e-05
-2.18478e-08
2.30799e-05
1.13277e-07
2.30576e-05
1.7271e-07
2.30874e-05
1.64509e-07
2.31897e-05
1.30821e-07
2.33388e-05
9.6772e-08
2.35006e-05
7.9729e-08
2.36525e-05
9.10082e-08
2.37881e-05
1.28483e-07
2.39042e-05
1.85219e-07
2.39971e-05
2.50334e-07
2.40656e-05
3.10807e-07
2.41131e-05
3.56756e-07
2.41479e-05
3.8249e-07
2.41807e-05
3.9085e-07
2.42209e-05
3.85429e-07
3.75242e-07
2.42749e-05
1.70514e-05
-8.24909e-08
1.70857e-05
-5.60752e-08
1.70872e-05
1.11761e-07
1.70929e-05
1.66968e-07
1.71301e-05
1.27297e-07
1.71762e-05
8.47979e-08
1.72005e-05
7.24707e-08
1.71962e-05
8.39973e-08
1.71804e-05
1.0675e-07
1.71725e-05
1.36471e-07
1.71854e-05
1.72296e-07
1.72252e-05
2.10564e-07
1.72907e-05
2.45271e-07
1.73762e-05
2.71203e-07
1.74736e-05
2.85092e-07
1.75751e-05
2.89432e-07
1.76738e-05
2.86719e-07
2.83247e-07
1.77658e-05
1.47916e-05
1.40898e-07
1.47081e-05
2.734e-08
1.47747e-05
4.52305e-08
1.4825e-05
1.16619e-07
1.48111e-05
1.4121e-07
1.47801e-05
1.15835e-07
1.47781e-05
7.44336e-08
1.48179e-05
4.41853e-08
1.48797e-05
4.4996e-08
1.49344e-05
8.17666e-08
1.49673e-05
1.39326e-07
1.49811e-05
1.96816e-07
1.49876e-05
2.3878e-07
1.49995e-05
2.59292e-07
1.50249e-05
2.5964e-07
1.50664e-05
2.47934e-07
1.51224e-05
2.3078e-07
2.17251e-07
1.51884e-05
1.28803e-05
1.30992e-07
1.28264e-05
8.11708e-08
1.28592e-05
1.2481e-08
1.28975e-05
7.82842e-08
1.29082e-05
1.30508e-07
1.29065e-05
1.17578e-07
1.29141e-05
6.68405e-08
1.29353e-05
2.29792e-08
1.29648e-05
1.54561e-08
1.30024e-05
4.42045e-08
1.30496e-05
9.21275e-08
1.31037e-05
1.42695e-07
1.31591e-05
1.83343e-07
1.321e-05
2.08471e-07
1.32524e-05
2.17173e-07
1.32865e-05
2.13843e-07
1.33146e-05
2.02677e-07
1.89483e-07
1.33424e-05
1.11963e-05
1.60866e-07
1.11841e-05
9.33131e-08
1.11316e-05
6.50367e-08
1.11317e-05
7.81073e-08
1.12045e-05
5.77563e-08
1.12947e-05
2.73873e-08
1.13442e-05
1.73642e-08
1.13404e-05
2.67575e-08
1.13103e-05
4.55672e-08
1.12898e-05
6.4653e-08
1.12993e-05
8.26789e-08
1.13406e-05
1.01381e-07
1.14037e-05
1.20262e-07
1.14741e-05
1.38e-07
1.15389e-05
1.52356e-07
1.15907e-05
1.62091e-07
1.16269e-05
1.66445e-07
1.65247e-07
1.16512e-05
9.66349e-06
-1.37913e-07
9.75875e-06
-1.94802e-09
9.77998e-06
4.3804e-08
9.83201e-06
2.6077e-08
9.91812e-06
-2.83462e-08
1.00015e-05
-5.60204e-08
1.00542e-05
-3.53438e-08
1.00716e-05
9.40506e-09
1.00665e-05
5.06432e-08
1.00541e-05
7.70354e-08
1.00429e-05
9.38584e-08
1.00381e-05
1.0619e-07
1.00423e-05
1.16071e-07
1.00572e-05
1.23118e-07
1.00831e-05
1.26419e-07
1.01189e-05
1.26373e-07
1.01619e-05
1.23417e-07
1.19205e-07
1.02079e-05
8.49618e-06
-1.20481e-08
8.48287e-06
1.13594e-08
8.48847e-06
3.82119e-08
8.49025e-06
2.42956e-08
8.49703e-06
-3.51253e-08
8.53494e-06
-9.39299e-08
8.59625e-06
-9.66628e-08
8.65423e-06
-4.85691e-08
8.69306e-06
1.18092e-08
8.71197e-06
5.8133e-08
8.71839e-06
8.74333e-08
8.72018e-06
1.04398e-07
8.72225e-06
1.14008e-07
8.7266e-06
1.18761e-07
8.7345e-06
1.18525e-07
8.7472e-06
1.13667e-07
8.76655e-06
1.04068e-07
9.15762e-08
8.79418e-06
7.30747e-06
1.60173e-08
7.44152e-06
-1.22692e-07
7.49e-06
-1.02609e-08
7.45245e-06
6.18407e-08
7.37267e-06
4.46524e-08
7.29961e-06
-2.08638e-08
7.26638e-06
-6.34338e-08
7.27455e-06
-5.67418e-08
7.30865e-06
-2.2287e-08
7.35328e-06
1.34968e-08
7.40265e-06
3.80704e-08
7.45527e-06
5.17779e-08
7.51149e-06
5.77845e-08
7.57043e-06
5.98243e-08
7.62932e-06
5.9626e-08
7.68511e-06
5.78769e-08
7.73441e-06
5.47762e-08
5.04217e-08
7.77556e-06
6.37588e-06
4.06704e-09
6.31919e-06
-6.60007e-08
6.33201e-06
-2.30791e-08
6.38261e-06
1.12395e-08
6.42472e-06
2.5413e-09
6.44429e-06
-4.04319e-08
6.45138e-06
-7.05246e-08
6.46179e-06
-6.71511e-08
6.48131e-06
-4.18073e-08
6.50733e-06
-1.25198e-08
6.53512e-06
1.02779e-08
6.56208e-06
2.48203e-08
6.58928e-06
3.05886e-08
6.61835e-06
3.07511e-08
6.64955e-06
2.84271e-08
6.68147e-06
2.59587e-08
6.7118e-06
2.44384e-08
2.36511e-08
6.73857e-06
5.66026e-06
-8.59968e-08
5.63739e-06
-4.31302e-08
5.6644e-06
-5.00882e-08
5.71076e-06
-3.512e-08
5.72375e-06
-1.04489e-08
5.69844e-06
-1.51278e-08
5.66855e-06
-4.06323e-08
5.65935e-06
-5.79534e-08
5.67455e-06
-5.70019e-08
5.70506e-06
-4.30275e-08
5.73904e-06
-2.37109e-08
5.76857e-06
-4.70451e-09
5.79014e-06
9.02016e-09
5.80401e-06
1.68776e-08
5.81357e-06
1.88675e-08
5.823e-06
1.65261e-08
5.83628e-06
1.1157e-08
4.61497e-09
5.85532e-06
4.8551e-06
-8.13555e-08
4.83189e-06
-1.99261e-08
4.82172e-06
-3.9911e-08
4.83176e-06
-4.51631e-08
4.87326e-06
-5.19473e-08
4.92529e-06
-6.71599e-08
4.96066e-06
-7.60021e-08
4.97172e-06
-6.90095e-08
4.96828e-06
-5.35648e-08
4.96434e-06
-3.90918e-08
4.96864e-06
-2.80113e-08
4.98307e-06
-1.91349e-08
5.00461e-06
-1.25183e-08
5.03024e-06
-8.74978e-09
5.05751e-06
-8.4026e-09
5.08498e-06
-1.09452e-08
5.11176e-06
-1.56174e-08
-2.0506e-08
5.13688e-06
4.09595e-06
4.07602e-06
4.03611e-06
3.99095e-06
3.939e-06
3.87184e-06
3.79584e-06
3.72683e-06
3.67327e-06
3.63418e-06
3.60616e-06
3.58703e-06
3.57451e-06
3.56576e-06
3.55736e-06
3.54641e-06
3.5308e-06
3.51029e-06
-4.38301e-07
4.38301e-07
-7.25291e-07
2.8699e-07
-8.70905e-07
1.45614e-07
-7.58685e-07
-1.1222e-07
-3.64551e-07
-3.94134e-07
2.54372e-07
-6.18923e-07
1.00566e-06
-7.51289e-07
1.80517e-06
-7.99509e-07
2.58957e-06
-7.84402e-07
3.317e-06
-7.27428e-07
3.96368e-06
-6.4668e-07
4.51752e-06
-5.53841e-07
4.97332e-06
-4.55797e-07
5.3287e-06
-3.55386e-07
5.5815e-06
-2.52793e-07
5.72815e-06
-1.46655e-07
5.76321e-06
-3.50605e-08
5.68464e-06
7.85694e-08
5.48106e-06
2.03585e-07
5.14832e-06
3.32734e-07
4.68387e-06
4.64451e-07
4.08727e-06
5.96599e-07
3.36278e-06
7.24498e-07
2.53016e-06
8.32613e-07
1.61832e-06
9.11846e-07
6.8703e-07
9.31288e-07
-1.6575e-07
8.5278e-07
-6.7078e-07
5.0503e-07
-9.69367e-07
2.98587e-07
-1.50331e-06
5.33938e-07
-2.29291e-06
7.896e-07
-3.10823e-06
8.15325e-07
-3.71517e-06
6.06937e-07
-3.80433e-06
8.91606e-08
-3.37534e-06
-4.28992e-07
-2.34649e-06
-1.02884e-06
-5.97529e-07
-1.74897e-06
1.38328e-06
-1.9808e-06
2.87832e-06
-1.49505e-06
3.62308e-06
-7.4476e-07
3.77673e-06
-1.53652e-07
3.4256e-06
3.51134e-07
2.52773e-06
8.97866e-07
1.81227e-06
7.15467e-07
1.4068e-06
4.05469e-07
9.7736e-07
4.29439e-07
7.2397e-07
2.53389e-07
3.66867e-07
3.57103e-07
-9.53897e-07
1.32076e-06
-3.14123e-06
2.18734e-06
-5.0086e-06
1.86737e-06
-6.59158e-06
1.58297e-06
-7.87498e-06
1.2834e-06
-8.93041e-06
1.05543e-06
-9.781e-06
8.50591e-07
-1.04756e-05
6.94646e-07
-1.10417e-05
5.66013e-07
-1.15075e-05
4.65802e-07
-1.18924e-05
3.84935e-07
-1.22116e-05
3.19233e-07
-1.24757e-05
2.64083e-07
-1.26914e-05
2.15715e-07
-1.28631e-05
1.71679e-07
-1.2993e-05
1.29892e-07
-1.30823e-05
8.92832e-08
-1.31312e-05
4.89371e-08
-1.31397e-05
8.50462e-09
-1.31115e-05
-2.82297e-08
-1.30473e-05
-6.42176e-08
-1.29483e-05
-9.90236e-08
-1.28164e-05
-1.31806e-07
-1.26544e-05
-1.6202e-07
-1.24656e-05
-1.88845e-07
-1.22538e-05
-2.11788e-07
-1.20235e-05
-2.3029e-07
-1.17794e-05
-2.44089e-07
-1.15264e-05
-2.53038e-07
-1.12692e-05
-2.57224e-07
-1.10123e-05
-2.56889e-07
-1.07598e-05
-2.52459e-07
-1.05153e-05
-2.445e-07
-1.02816e-05
-2.33717e-07
-1.00606e-05
-2.2097e-07
-9.85333e-06
-2.07284e-07
-9.65944e-06
-1.93889e-07
-9.47717e-06
-1.82269e-07
-9.30297e-06
-1.74205e-07
-9.13118e-06
-1.71793e-07
-8.95381e-06
-1.77365e-07
-8.76056e-06
-1.9325e-07
-8.53928e-06
-2.2128e-07
-8.2772e-06
-2.6208e-07
-7.9628e-06
-3.14396e-07
-7.58799e-06
-3.7481e-07
-7.15006e-06
-4.37935e-07
-6.6526e-06
-4.97454e-07
-6.10497e-06
-5.4764e-07
-5.52036e-06
-5.84602e-07
-4.91355e-06
-6.06812e-07
-4.29861e-06
-6.14944e-07
-3.68736e-06
-6.11245e-07
-3.08867e-06
-5.98692e-07
-2.50847e-06
-5.80197e-07
-1.95052e-06
-5.5795e-07
-1.41628e-06
-5.34247e-07
-9.0551e-07
-5.10766e-07
-4.1767e-07
-4.8784e-07
4.80234e-08
-4.65693e-07
4.96109e-07
-4.48086e-07
9.25545e-07
-4.29436e-07
1.33771e-06
-4.12161e-07
1.73368e-06
-3.95976e-07
2.11424e-06
-3.80561e-07
2.47976e-06
-3.65513e-07
2.83007e-06
-3.50315e-07
3.16447e-06
-3.34401e-07
3.4816e-06
-3.17131e-07
3.77928e-06
-2.97681e-07
4.0542e-06
-2.74916e-07
4.30177e-06
-2.47574e-07
4.51739e-06
-2.15619e-07
4.69882e-06
-1.81427e-07
4.84704e-06
-1.4822e-07
4.96513e-06
-1.18093e-07
5.05634e-06
-9.12077e-08
5.11899e-06
-6.26497e-08
5.14399e-06
-2.50024e-08
5.12649e-06
1.74993e-08
5.07681e-06
4.96866e-08
5.01442e-06
6.23866e-08
4.95514e-06
5.92855e-08
4.9035e-06
5.16373e-08
4.85325e-06
5.02455e-08
4.79374e-06
5.95135e-08
4.71756e-06
7.61749e-08
4.62548e-06
9.20867e-08
4.52587e-06
9.96119e-08
4.42938e-06
9.64824e-08
4.34402e-06
8.53655e-08
4.27304e-06
7.09741e-08
4.21578e-06
5.72646e-08
4.16934e-06
4.64425e-08
4.12995e-06
3.93864e-08
4.09375e-06
3.62025e-08
4.05716e-06
3.65852e-08
4.01715e-06
4.0008e-08
3.97095e-06
4.62093e-08
3.91537e-06
5.55733e-08
3.84707e-06
6.83042e-08
3.7638e-06
8.32698e-08
3.66636e-06
9.74407e-08
3.55946e-06
1.06902e-07
3.45042e-06
1.09032e-07
3.34648e-06
1.03946e-07
3.25216e-06
9.43149e-08
3.16849e-06
8.36729e-08
3.0939e-06
7.45923e-08
3.02593e-06
6.79651e-08
2.96253e-06
6.34042e-08
2.9027e-06
5.9831e-08
2.8466e-06
5.6095e-08
2.79504e-06
5.15646e-08
2.74877e-06
4.62692e-08
2.70803e-06
4.07367e-08
2.67235e-06
3.5685e-08
2.64081e-06
3.15391e-08
2.61213e-06
2.86797e-08
2.58526e-06
2.68721e-08
2.55878e-06
2.64745e-08
2.53216e-06
2.66187e-08
2.50353e-06
2.86357e-08
2.47317e-06
3.03529e-08
2.43731e-06
3.58676e-08
2.39837e-06
3.89356e-08
2.34673e-06
5.16392e-08
2.29112e-06
5.56157e-08
2.20465e-06
8.64635e-08
2.11603e-06
8.86263e-08
1.94661e-06
1.69411e-07
1.616e-07
1.78501e-06
1.73188e-08
4.20982e-07
-4.28188e-08
3.47127e-07
1.58193e-07
-5.53979e-08
7.05638e-07
-6.59664e-07
1.46351e-06
-1.152e-06
2.29395e-06
-1.44936e-06
3.10025e-06
-1.5576e-06
3.84252e-06
-1.54177e-06
4.50579e-06
-1.44767e-06
5.08587e-06
-1.30751e-06
5.58473e-06
-1.14554e-06
6.0066e-06
-9.75717e-07
6.35538e-06
-8.04572e-07
6.63402e-06
-6.34028e-07
6.84505e-06
-4.63824e-07
6.99138e-06
-2.92984e-07
7.07774e-06
-1.21424e-07
7.09733e-06
5.89809e-08
7.03961e-06
2.61304e-07
6.90597e-06
4.6638e-07
6.69094e-06
6.79481e-07
6.38793e-06
8.99606e-07
5.98754e-06
1.12489e-06
5.47738e-06
1.34277e-06
4.84278e-06
1.54645e-06
4.07195e-06
1.70212e-06
3.12679e-06
1.79794e-06
1.85664e-06
1.77518e-06
5.32374e-07
1.62285e-06
-2.56827e-07
1.32314e-06
-7.52646e-07
1.28542e-06
-1.18115e-06
1.24383e-06
-1.44125e-06
8.67029e-07
-1.48121e-06
1.2912e-07
-1.10688e-06
-8.03319e-07
-2.77739e-07
-1.85798e-06
9.57095e-07
-2.9838e-06
1.94172e-06
-2.96543e-06
2.44061e-06
-1.99393e-06
2.61564e-06
-9.1979e-07
2.47418e-06
-1.21875e-08
2.09055e-06
7.34764e-07
1.67998e-06
1.30843e-06
1.03353e-06
1.36192e-06
2.60317e-07
1.17868e-06
-9.95164e-07
1.68492e-06
-3.32553e-06
2.58376e-06
-5.78863e-06
2.8202e-06
-7.40035e-06
2.93248e-06
-8.22833e-06
3.01531e-06
-8.9835e-06
2.62254e-06
-9.66579e-06
2.26527e-06
-1.02404e-05
1.85797e-06
-1.07241e-05
1.53919e-06
-1.11276e-05
1.25406e-06
-1.14712e-05
1.03823e-06
-1.17638e-05
8.5869e-07
-1.2018e-05
7.19927e-07
-1.22381e-05
6.05085e-07
-1.24296e-05
5.10708e-07
-1.25935e-05
4.27991e-07
-1.2731e-05
3.532e-07
-1.28417e-05
2.82427e-07
-1.29253e-05
2.13469e-07
-1.29808e-05
1.44729e-07
-1.30072e-05
7.5391e-08
-1.30023e-05
3.5932e-09
-1.29648e-05
-6.57126e-08
-1.28933e-05
-1.35692e-07
-1.27882e-05
-2.04129e-07
-1.26509e-05
-2.69099e-07
-1.2484e-05
-3.28967e-07
-1.22906e-05
-3.82227e-07
-1.20748e-05
-4.276e-07
-1.1841e-05
-4.6411e-07
-1.15939e-05
-4.9114e-07
-1.13385e-05
-5.08468e-07
-1.10795e-05
-5.16254e-07
-1.08213e-05
-5.15027e-07
-1.05682e-05
-5.05639e-07
-1.03234e-05
-4.89231e-07
-1.00899e-05
-4.67205e-07
-9.86967e-06
-4.41238e-07
-9.66362e-06
-4.13338e-07
-9.47159e-06
-3.85912e-07
-9.29199e-06
-3.61874e-07
-9.12141e-06
-3.44781e-07
-8.95432e-06
-3.38888e-07
-8.78265e-06
-3.49033e-07
-8.59571e-06
-3.80191e-07
-8.38053e-06
-4.3646e-07
-8.12308e-06
-5.19528e-07
-7.81038e-06
-6.27102e-07
-7.43311e-06
-7.52078e-07
-6.98823e-06
-8.8281e-07
-6.48027e-06
-1.00542e-06
-5.92046e-06
-1.10745e-06
-5.32419e-06
-1.18087e-06
-4.70789e-06
-1.22312e-06
-4.08644e-06
-1.23639e-06
-3.47174e-06
-1.22595e-06
-2.87227e-06
-1.19816e-06
-2.29313e-06
-1.15934e-06
-1.73746e-06
-1.11362e-06
-1.20573e-06
-1.06598e-06
-6.97228e-07
-1.01926e-06
-2.10795e-07
-9.74273e-07
2.56536e-07
-9.33023e-07
7.0461e-07
-8.9616e-07
1.13585e-06
-8.60674e-07
1.55104e-06
-8.2735e-07
1.95104e-06
-7.95976e-07
2.33659e-06
-7.6611e-07
2.70819e-06
-7.37117e-07
3.06596e-06
-7.0809e-07
3.40946e-06
-6.77896e-07
3.73776e-06
-6.4543e-07
4.04964e-06
-6.0956e-07
4.34303e-06
-5.68313e-07
4.61398e-06
-5.18516e-07
4.85644e-06
-4.58079e-07
5.06528e-06
-3.90276e-07
5.24207e-06
-3.25005e-07
5.39671e-06
-2.7273e-07
5.53927e-06
-2.33775e-07
5.66978e-06
-1.93157e-07
5.77613e-06
-1.31349e-07
5.83864e-06
-4.50078e-08
5.84459e-06
4.37273e-08
5.80069e-06
1.06287e-07
5.7325e-06
1.27483e-07
5.66994e-06
1.1419e-07
5.63394e-06
8.62537e-08
5.62821e-06
6.52435e-08
5.63949e-06
6.48898e-08
5.64585e-06
8.57249e-08
5.62804e-06
1.17422e-07
5.57784e-06
1.46687e-07
5.49893e-06
1.64278e-07
5.40233e-06
1.67564e-07
5.30075e-06
1.58848e-07
5.2049e-06
1.42291e-07
5.12242e-06
1.21869e-07
5.05774e-06
1.00882e-07
5.01212e-06
8.22091e-08
4.98377e-06
6.83586e-08
4.96876e-06
6.12176e-08
4.96248e-06
6.18485e-08
4.96068e-06
7.01054e-08
4.95982e-06
8.41358e-08
4.95717e-06
1.00083e-07
4.95119e-06
1.1289e-07
4.9413e-06
1.18917e-07
4.92782e-06
1.17423e-07
4.91128e-06
1.10857e-07
4.89167e-06
1.03289e-07
4.86822e-06
9.80441e-08
4.83983e-06
9.63495e-08
4.80599e-06
9.72437e-08
4.76731e-06
9.85084e-08
4.72539e-06
9.80196e-08
4.68226e-06
9.46929e-08
4.6398e-06
8.8732e-08
4.59942e-06
8.11118e-08
4.56194e-06
7.31689e-08
4.52773e-06
6.57441e-08
4.4967e-06
5.97153e-08
4.4687e-06
5.48737e-08
4.44305e-06
5.21206e-08
4.41952e-06
5.01514e-08
4.39674e-06
5.14154e-08
4.37461e-06
5.24827e-08
4.35044e-06
6.00389e-08
4.32504e-06
6.43286e-08
4.29271e-06
8.3974e-08
4.25641e-06
9.19173e-08
4.2048e-06
1.38076e-07
4.14314e-06
1.50287e-07
4.05186e-06
2.60687e-07
2.86189e-07
3.92727e-06
7.71761e-08
3.43806e-07
4.87265e-07
-6.29618e-08
1.3545e-06
-9.22634e-07
2.33995e-06
-1.64512e-06
3.23579e-06
-2.04784e-06
3.97132e-06
-2.1849e-06
4.55476e-06
-2.14104e-06
5.0072e-06
-1.99422e-06
5.35994e-06
-1.8004e-06
5.64519e-06
-1.59276e-06
5.88704e-06
-1.38739e-06
6.10062e-06
-1.1893e-06
6.29356e-06
-9.97513e-07
6.46583e-06
-8.06296e-07
6.61285e-06
-6.10845e-07
6.7279e-06
-4.08029e-07
6.80199e-06
-1.95516e-07
6.83312e-06
2.78444e-08
6.83621e-06
2.58214e-07
6.80179e-06
5.00806e-07
6.72921e-06
7.52061e-07
6.61787e-06
1.01094e-06
6.46403e-06
1.27873e-06
6.25705e-06
1.54975e-06
5.97988e-06
1.82362e-06
5.60115e-06
2.08085e-06
5.08694e-06
2.31215e-06
4.38901e-06
2.47311e-06
3.4721e-06
2.53976e-06
2.36386e-06
2.43138e-06
1.50087e-06
2.14841e-06
9.73823e-07
1.77088e-06
6.72451e-07
1.1684e-06
5.02457e-07
2.99114e-07
5.49145e-07
-8.50007e-07
9.59382e-07
-2.26822e-06
1.37269e-06
-3.3971e-06
1.26224e-06
-2.85499e-06
8.91213e-07
-1.6229e-06
4.95333e-07
-5.23911e-07
-4.33739e-08
5.2652e-07
-7.00271e-07
1.39166e-06
-1.47614e-06
2.0843e-06
-2.73948e-06
2.62526e-06
-4.64236e-06
3.08156e-06
-6.43104e-06
3.4736e-06
-7.59975e-06
3.75246e-06
-8.52193e-06
3.74239e-06
-9.17889e-06
3.58945e-06
-9.40951e-06
3.24593e-06
-9.59414e-06
2.80717e-06
-9.76147e-06
2.4326e-06
-9.96803e-06
2.06453e-06
-1.01946e-05
1.76579e-06
-1.04389e-05
1.49829e-06
-1.06857e-05
1.28508e-06
-1.09289e-05
1.1019e-06
-1.11613e-05
9.52324e-07
-1.13789e-05
8.22699e-07
-1.15786e-05
7.10388e-07
-1.17581e-05
6.07442e-07
-1.19151e-05
5.10248e-07
-1.20473e-05
4.14586e-07
-1.21519e-05
3.18124e-07
-1.22263e-05
2.19114e-07
-1.22679e-05
1.17016e-07
-1.22776e-05
1.33001e-08
-1.22497e-05
-9.36915e-08
-1.21858e-05
-1.99575e-07
-1.20873e-05
-3.02602e-07
-1.19559e-05
-4.00547e-07
-1.17941e-05
-4.90739e-07
-1.16055e-05
-5.7078e-07
-1.13946e-05
-6.38555e-07
-1.11661e-05
-6.92586e-07
-1.09252e-05
-7.31998e-07
-1.06772e-05
-7.56558e-07
-1.04268e-05
-7.66645e-07
-1.01786e-05
-7.63183e-07
-9.93669e-06
-7.4756e-07
-9.70436e-06
-7.21554e-07
-9.48429e-06
-6.87275e-07
-9.27834e-06
-6.47186e-07
-9.08748e-06
-6.04198e-07
-8.91161e-06
-5.61785e-07
-8.74932e-06
-5.24171e-07
-8.59749e-06
-4.9661e-07
-8.4508e-06
-4.85571e-07
-8.30114e-06
-4.98697e-07
-8.13707e-06
-5.44254e-07
-7.94397e-06
-6.29564e-07
-7.70516e-06
-7.58335e-07
-7.4046e-06
-9.2766e-07
-7.03058e-06
-1.1261e-06
-6.57964e-06
-1.33374e-06
-6.05889e-06
-1.52617e-06
-5.48451e-06
-1.68182e-06
-4.87738e-06
-1.78801e-06
-4.25819e-06
-1.84231e-06
-3.64399e-06
-1.85059e-06
-3.04678e-06
-1.82316e-06
-2.47381e-06
-1.77113e-06
-1.928e-06
-1.70515e-06
-1.41043e-06
-1.63119e-06
-9.18419e-07
-1.55799e-06
-4.50105e-07
-1.48758e-06
-2.95206e-09
-1.42143e-06
4.31049e-07
-1.36702e-06
8.4867e-07
-1.31378e-06
1.25348e-06
-1.26549e-06
1.64709e-06
-1.22095e-06
2.03005e-06
-1.17894e-06
2.40212e-06
-1.13818e-06
2.76269e-06
-1.09768e-06
3.11123e-06
-1.05664e-06
3.44732e-06
-1.01399e-06
3.77004e-06
-9.6815e-07
4.07794e-06
-9.17456e-07
4.36956e-06
-8.5993e-07
4.64224e-06
-7.91204e-07
4.88828e-06
-7.04117e-07
5.09422e-06
-5.96209e-07
5.25076e-06
-4.81547e-07
5.36769e-06
-3.89664e-07
5.47619e-06
-3.42274e-07
5.60913e-06
-3.26099e-07
5.77043e-06
-2.9265e-07
5.92201e-06
-1.9658e-07
6.00895e-06
-4.32126e-08
6.00466e-06
1.1057e-07
5.93125e-06
2.00896e-07
5.83659e-06
2.08845e-07
5.76379e-06
1.59057e-07
5.73335e-06
9.56816e-08
5.74165e-06
5.65928e-08
5.7691e-06
5.82752e-08
5.7911e-06
9.54234e-08
5.78687e-06
1.50915e-07
5.7451e-06
2.06045e-07
5.66648e-06
2.46186e-07
5.56213e-06
2.63196e-07
5.44838e-06
2.56043e-07
5.34058e-06
2.2967e-07
5.24903e-06
1.92434e-07
5.17801e-06
1.53227e-07
5.12714e-06
1.19232e-07
5.09346e-06
9.48928e-08
5.07331e-06
8.19971e-08
5.06331e-06
8.01111e-08
5.0606e-06
8.68382e-08
5.0627e-06
9.79887e-08
5.06724e-06
1.08352e-07
5.07258e-06
1.13573e-07
5.07826e-06
1.1174e-07
5.08453e-06
1.04588e-07
5.09134e-06
9.64773e-08
5.09745e-06
9.1934e-08
5.10032e-06
9.3482e-08
5.09695e-06
1.00618e-07
5.08514e-06
1.10314e-07
5.06443e-06
1.18732e-07
5.03618e-06
1.22945e-07
5.00289e-06
1.22023e-07
4.96731e-06
1.16691e-07
4.93167e-06
1.08808e-07
4.89749e-06
9.99247e-08
4.86551e-06
9.16924e-08
4.83611e-06
8.42768e-08
4.80927e-06
7.89541e-08
4.78504e-06
7.43861e-08
4.7632e-06
7.32508e-08
4.74359e-06
7.21015e-08
4.72579e-06
7.78375e-08
4.7085e-06
8.16205e-08
4.69184e-06
1.00628e-07
4.67147e-06
1.12286e-07
4.65159e-06
1.57959e-07
4.61839e-06
1.8349e-07
4.59382e-06
2.85255e-07
3.4414e-07
4.53587e-06
1.73493e-07
1.70313e-07
1.26167e-06
-1.15114e-06
2.47588e-06
-2.13685e-06
3.38748e-06
-2.55671e-06
3.96855e-06
-2.62891e-06
4.29619e-06
-2.51254e-06
4.47211e-06
-2.31696e-06
4.57717e-06
-2.09928e-06
4.66797e-06
-1.8912e-06
4.77586e-06
-1.70065e-06
4.91144e-06
-1.52297e-06
5.07094e-06
-1.34879e-06
5.24203e-06
-1.16861e-06
5.41106e-06
-9.75329e-07
5.56527e-06
-7.65051e-07
5.69384e-06
-5.36598e-07
5.78827e-06
-2.89945e-07
5.83901e-06
-2.29004e-08
5.86187e-06
2.35354e-07
5.85721e-06
5.0547e-07
5.82986e-06
7.79406e-07
5.78818e-06
1.05262e-06
5.74044e-06
1.32648e-06
5.68897e-06
1.60123e-06
5.6305e-06
1.88208e-06
5.54574e-06
2.16561e-06
5.40895e-06
2.44893e-06
5.17194e-06
2.71012e-06
4.80175e-06
2.90995e-06
4.23558e-06
2.99755e-06
3.52506e-06
2.85894e-06
2.82172e-06
2.47422e-06
2.16901e-06
1.82112e-06
1.58249e-06
8.8563e-07
1.04794e-06
-3.15458e-07
6.09159e-07
-1.82944e-06
-2.43812e-07
-2.54413e-06
-1.28512e-06
-1.81369e-06
-2.20926e-06
-6.98756e-07
-3.16024e-06
4.27065e-07
-4.04013e-06
1.40641e-06
-4.97258e-06
2.32411e-06
-5.96186e-06
3.07358e-06
-6.95932e-06
3.62272e-06
-7.89235e-06
4.01459e-06
-8.61164e-06
4.19289e-06
-8.97104e-06
4.11186e-06
-9.12995e-06
3.90129e-06
-9.161e-06
3.6205e-06
-9.14693e-06
3.23187e-06
-9.17989e-06
2.84013e-06
-9.23542e-06
2.48812e-06
-9.3475e-06
2.17661e-06
-9.4973e-06
1.91558e-06
-9.68636e-06
1.68735e-06
-9.89493e-06
1.49365e-06
-1.01146e-05
1.32159e-06
-1.03346e-05
1.17232e-06
-1.05498e-05
1.03787e-06
-1.07544e-05
9.1504e-07
-1.09443e-05
7.97323e-07
-1.1115e-05
6.80976e-07
-1.12625e-05
5.62038e-07
-1.13824e-05
4.38039e-07
-1.14707e-05
3.07424e-07
-1.15242e-05
1.7045e-07
-1.15403e-05
2.948e-08
-1.1517e-05
-1.17022e-07
-1.14534e-05
-2.63135e-07
-1.13505e-05
-4.05583e-07
-1.12103e-05
-5.40755e-07
-1.10363e-05
-6.64676e-07
-1.08333e-05
-7.73759e-07
-1.06068e-05
-8.65061e-07
-1.03629e-05
-9.36548e-07
-1.01077e-05
-9.87176e-07
-9.84736e-06
-1.01689e-06
-9.58745e-06
-1.02656e-06
-9.33286e-06
-1.01777e-06
-9.08769e-06
-9.92734e-07
-8.85516e-06
-9.54075e-07
-8.63769e-06
-9.0475e-07
-8.43684e-06
-8.48035e-07
-8.25336e-06
-7.87682e-07
-8.08708e-06
-7.2806e-07
-7.93684e-06
-6.74414e-07
-7.80006e-06
-6.33387e-07
-7.67212e-06
-6.1351e-07
-7.54534e-06
-6.25482e-07
-7.40774e-06
-6.81851e-07
-7.24242e-06
-7.94889e-07
-7.02814e-06
-9.72614e-07
-6.74238e-06
-1.21342e-06
-6.36705e-06
-1.50143e-06
-5.89537e-06
-1.80543e-06
-5.33702e-06
-2.08452e-06
-4.71654e-06
-2.3023e-06
-4.06521e-06
-2.43934e-06
-3.41267e-06
-2.49484e-06
-2.78177e-06
-2.4815e-06
-2.18719e-06
-2.41774e-06
-1.63598e-06
-2.32234e-06
-1.12947e-06
-2.21166e-06
-6.67109e-07
-2.09356e-06
-2.41764e-07
-1.98333e-06
1.52425e-07
-1.88177e-06
5.24102e-07
-1.7931e-06
8.72481e-07
-1.7154e-06
1.20678e-06
-1.64808e-06
1.53209e-06
-1.5908e-06
1.85342e-06
-1.54228e-06
2.17466e-06
-1.50018e-06
2.49761e-06
-1.46114e-06
2.82134e-06
-1.42142e-06
3.14292e-06
-1.37821e-06
3.45929e-06
-1.33036e-06
3.76854e-06
-1.27739e-06
4.06921e-06
-1.21813e-06
4.35998e-06
-1.15071e-06
4.64069e-06
-1.07191e-06
4.90957e-06
-9.73002e-07
5.15333e-06
-8.39965e-07
5.34285e-06
-6.71068e-07
5.45294e-06
-4.99752e-07
5.4953e-06
-3.84638e-07
5.52653e-06
-3.57331e-07
5.61139e-06
-3.77508e-07
5.76661e-06
-3.51796e-07
5.93831e-06
-2.14918e-07
6.04597e-06
2.91725e-09
6.04872e-06
1.98143e-07
5.97157e-06
2.85994e-07
5.87312e-06
2.57511e-07
5.80217e-06
1.66624e-07