/*--------------------------------*- C++ -*----------------------------------*\
  =========                 |
  \\      /  F ield         | OpenFOAM: The Open Source CFD Toolbox
   \\    /   O peration     | Website:  https://openfoam.org
    \\  /    A nd           | Version:  9
     \\/     M anipulation  |
\*---------------------------------------------------------------------------*/
FoamFile
{
    format      ascii;
    class       surfaceScalarField;
    location    "0.04";
    object      phi_0;
}
// * * * * * * * * * * * * * * * * * * * * * * * * * * * * * * * * * * * * * //

dimensions      [0 3 -1 0 0 0 0];

internalField   nonuniform List<scalar> 
24170
(
3.07463e-06
3.72452e-08
2.97301e-06
1.01622e-07
2.8494e-06
1.23617e-07
2.73877e-06
1.10627e-07
2.64188e-06
9.68881e-08
2.54927e-06
9.26104e-08
2.45798e-06
9.12919e-08
2.36277e-06
9.52072e-08
2.25434e-06
1.08426e-07
2.12726e-06
1.27089e-07
1.98673e-06
1.40527e-07
1.8352e-06
1.51525e-07
1.66852e-06
1.66682e-07
1.46284e-06
2.05685e-07
1.2014e-06
2.61436e-07
8.76964e-07
3.24438e-07
4.78334e-07
3.9863e-07
4.78805e-07
-4.70658e-10
3.35938e-06
-1.15172e-08
3.40233e-06
5.86656e-08
3.43592e-06
9.00313e-08
3.45931e-06
8.72325e-08
3.46397e-06
9.22268e-08
3.44842e-06
1.08162e-07
3.41532e-06
1.24391e-07
3.37414e-06
1.36392e-07
3.33153e-06
1.51038e-07
3.28986e-06
1.68761e-07
3.23984e-06
1.9054e-07
3.17683e-06
2.14537e-07
3.08751e-06
2.56002e-07
2.97501e-06
3.18184e-07
2.82533e-06
4.11118e-07
2.63615e-06
5.13614e-07
2.42215e-06
6.12636e-07
6.763e-07
2.22465e-06
3.5934e-06
-6.69628e-08
3.61115e-06
4.09154e-08
3.6127e-06
8.84847e-08
3.60726e-06
9.26691e-08
3.60844e-06
9.10432e-08
3.61452e-06
1.02081e-07
3.61901e-06
1.19903e-07
3.6193e-06
1.36098e-07
3.6153e-06
1.55043e-07
3.60882e-06
1.75244e-07
3.59615e-06
2.03206e-07
3.57496e-06
2.35731e-07
3.54029e-06
2.90666e-07
3.49513e-06
3.6335e-07
3.4436e-06
4.62647e-07
3.38855e-06
5.68665e-07
3.35469e-06
6.46493e-07
7.1442e-07
3.31657e-06
3.89242e-06
-5.71218e-08
3.90567e-06
2.76611e-08
3.91825e-06
7.59091e-08
3.92257e-06
8.83437e-08
3.91882e-06
9.47946e-08
3.91664e-06
1.0426e-07
3.92106e-06
1.15482e-07
3.92399e-06
1.33167e-07
3.91496e-06
1.6408e-07
3.8906e-06
1.99598e-07
3.85709e-06
2.36717e-07
3.82085e-06
2.71973e-07
3.79086e-06
3.20652e-07
3.76744e-06
3.86773e-07
3.75757e-06
4.72517e-07
3.76028e-06
5.65955e-07
3.77116e-06
6.35609e-07
6.9335e-07
3.79223e-06
4.24613e-06
-9.94112e-08
4.2715e-06
2.28593e-09
4.25794e-06
8.9474e-08
4.22996e-06
1.16318e-07
4.1993e-06
1.25458e-07
4.18015e-06
1.2341e-07
4.17866e-06
1.16969e-07
4.18407e-06
1.27764e-07
4.17993e-06
1.68223e-07
4.15634e-06
2.23183e-07
4.11787e-06
2.75189e-07
4.07335e-06
3.16488e-07
4.03609e-06
3.57913e-07
4.0113e-06
4.11565e-07
4.0049e-06
4.78924e-07
4.01487e-06
5.55982e-07
4.0292e-06
6.21275e-07
6.68444e-07
4.05411e-06
4.46633e-06
-3.57089e-08
4.45591e-06
1.27013e-08
4.46295e-06
8.24361e-08
4.48182e-06
9.74477e-08
4.50291e-06
1.04368e-07
4.50719e-06
1.19124e-07
4.48777e-06
1.36398e-07
4.4526e-06
1.62927e-07
4.41661e-06
2.04209e-07
4.38789e-06
2.51909e-07
4.36714e-06
2.95938e-07
4.34973e-06
3.33894e-07
4.33397e-06
3.73682e-07
4.32008e-06
4.25453e-07
4.31064e-06
4.88364e-07
4.30818e-06
5.58437e-07
4.30864e-06
6.20821e-07
6.64141e-07
4.31294e-06
4.86817e-06
-1.18511e-07
4.84781e-06
3.30606e-08
4.78849e-06
1.41755e-07
4.75427e-06
1.31669e-07
4.7478e-06
1.10845e-07
4.75525e-06
1.11674e-07
4.76278e-06
1.28867e-07
4.76277e-06
1.62931e-07
4.75498e-06
2.12006e-07
4.74169e-06
2.65194e-07
4.72522e-06
3.12407e-07
4.70653e-06
3.52588e-07
4.68781e-06
3.92402e-07
4.67311e-06
4.4015e-07
4.66453e-06
4.96944e-07
4.6643e-06
5.58672e-07
4.66823e-06
6.16883e-07
6.61461e-07
4.67091e-06
5.22103e-06
2.14211e-08
5.16328e-06
9.08099e-08
5.16273e-06
1.4231e-07
5.15386e-06
1.4054e-07
5.13222e-06
1.32478e-07
5.10281e-06
1.41085e-07
5.07499e-06
1.56684e-07
5.05452e-06
1.83404e-07
5.04255e-06
2.23977e-07
5.03713e-06
2.70615e-07
5.03494e-06
3.14599e-07
5.03291e-06
3.54617e-07
5.02977e-06
3.95539e-07
5.0271e-06
4.42819e-07
5.02699e-06
4.97061e-07
5.03156e-06
5.54102e-07
5.03996e-06
6.08479e-07
6.5511e-07
5.04631e-06
5.49471e-06
3.98279e-08
5.55188e-06
3.36458e-08
5.58697e-06
1.07211e-07
5.60512e-06
1.22397e-07
5.60568e-06
1.31914e-07
5.59909e-06
1.47672e-07
5.59038e-06
1.65398e-07
5.58143e-06
1.92356e-07
5.57274e-06
2.32661e-07
5.56148e-06
2.8188e-07
5.54251e-06
3.33563e-07
5.51283e-06
3.84302e-07
5.47451e-06
4.33863e-07
5.43393e-06
4.83397e-07
5.39931e-06
5.3168e-07
5.37541e-06
5.78003e-07
5.36453e-06
6.1936e-07
6.56793e-07
5.36284e-06
5.92074e-06
-7.06665e-08
5.92495e-06
2.94418e-08
5.92433e-06
1.07832e-07
5.92306e-06
1.23664e-07
5.92102e-06
1.33953e-07
5.91808e-06
1.50611e-07
5.91228e-06
1.71197e-07
5.90493e-06
1.99711e-07
5.89785e-06
2.39744e-07
5.88865e-06
2.91076e-07
5.87238e-06
3.49833e-07
5.84626e-06
4.10426e-07
5.81271e-06
4.67414e-07
5.77742e-06
5.18683e-07
5.74644e-06
5.62663e-07
5.723e-06
6.01437e-07
5.70737e-06
6.34989e-07
6.65846e-07
5.69832e-06
6.34779e-06
-4.17584e-08
6.31893e-06
5.83042e-08
6.30778e-06
1.18985e-07
6.31071e-06
1.20728e-07
6.32638e-06
1.18291e-07
6.33179e-06
1.45196e-07
6.31459e-06
1.884e-07
6.28393e-06
2.30369e-07
6.25612e-06
2.67548e-07
6.23948e-06
3.0772e-07
6.23246e-06
3.56856e-07
6.2293e-06
4.13582e-07
6.2257e-06
4.71014e-07
6.22118e-06
5.232e-07
6.21677e-06
5.67081e-07
6.2144e-06
6.03806e-07
6.2134e-06
6.35988e-07
6.67906e-07
6.21134e-06
5.75156e-06
2.21994e-08
5.76569e-06
4.41746e-08
5.80156e-06
8.31131e-08
5.81016e-06
1.12132e-07
5.77682e-06
1.51627e-07
5.72854e-06
1.93475e-07
5.69721e-06
2.19732e-07
5.6925e-06
2.35085e-07
5.70249e-06
2.57551e-07
5.71088e-06
2.99332e-07
5.70971e-06
3.5803e-07
5.70007e-06
4.23221e-07
5.68688e-06
4.84206e-07
5.67451e-06
5.3557e-07
5.66524e-06
5.76352e-07
5.65993e-06
6.09106e-07
5.65798e-06
6.37945e-07
6.67659e-07
5.65822e-06
6.84644e-06
1.24003e-07
6.83552e-06
5.50955e-08
6.88626e-06
3.23687e-08
6.95498e-06
4.34163e-08
6.9851e-06
1.21506e-07
6.9773e-06
2.01271e-07
6.95503e-06
2.42007e-07
6.93379e-06
2.56322e-07
6.91753e-06
2.73808e-07
6.90713e-06
3.0974e-07
6.90536e-06
3.59798e-07
6.91483e-06
4.13753e-07
6.93509e-06
4.63945e-07
6.96019e-06
5.10469e-07
6.98222e-06
5.54314e-07
6.9941e-06
5.97233e-07
6.99276e-06
6.39284e-07
6.79173e-07
6.98124e-06
8.45184e-06
-1.73232e-08
8.49164e-06
1.52922e-08
8.52028e-06
3.72743e-09
8.56988e-06
-6.18396e-09
8.63415e-06
5.72389e-08
8.68471e-06
1.50707e-07
8.69024e-06
2.36481e-07
8.64775e-06
2.98806e-07
8.57861e-06
3.42949e-07
8.51061e-06
3.77743e-07
8.46299e-06
4.07419e-07
8.44126e-06
4.3548e-07
8.44076e-06
4.64445e-07
8.45124e-06
4.99988e-07
8.46215e-06
5.43412e-07
8.46571e-06
5.93671e-07
8.45907e-06
6.4592e-07
6.93397e-07
8.44485e-06
1.04052e-05
-4.91479e-08
1.04292e-05
-8.74623e-09
1.04342e-05
-1.27196e-09
1.04816e-05
-5.36042e-08
1.05505e-05
-1.1611e-08
1.05906e-05
1.10533e-07
1.05778e-05
2.49374e-07
1.05258e-05
3.50797e-07
1.04592e-05
4.09532e-07
1.03979e-05
4.39051e-07
1.03522e-05
4.53048e-07
1.03255e-05
4.62231e-07
1.03162e-05
4.73782e-07
1.03218e-05
4.94348e-07
1.03386e-05
5.26582e-07
1.03627e-05
5.69579e-07
1.03907e-05
6.1796e-07
6.67142e-07
1.04169e-05
1.26537e-05
-9.87285e-08
1.25876e-05
5.73186e-08
1.25284e-05
5.79524e-08
1.24772e-05
-2.4347e-09
1.24504e-05
1.52098e-08
1.24549e-05
1.05964e-07
1.24886e-05
2.15771e-07
1.25255e-05
3.13893e-07
1.2555e-05
3.80021e-07
1.25758e-05
4.18238e-07
1.25891e-05
4.39773e-07
1.25968e-05
4.54513e-07
1.26021e-05
4.68426e-07
1.26101e-05
4.86426e-07
1.26269e-05
5.09716e-07
1.2657e-05
5.39481e-07
1.27036e-05
5.71372e-07
6.05221e-07
1.27655e-05
1.5775e-05
-7.33987e-10
1.56774e-05
1.54878e-07
1.5653e-05
8.2327e-08
1.55772e-05
7.33498e-08
1.54544e-05
1.37998e-07
1.53504e-05
2.10043e-07
1.53064e-05
2.59724e-07
1.53323e-05
2.88055e-07
1.54013e-05
3.10988e-07
1.54777e-05
3.41792e-07
1.55366e-05
3.80945e-07
1.55694e-05
4.21679e-07
1.55812e-05
4.56634e-07
1.5584e-05
4.83656e-07
1.55909e-05
5.02821e-07
1.56118e-05
5.18542e-07
1.56522e-05
5.30996e-07
5.45221e-07
1.57122e-05
1.90379e-05
-5.47089e-09
1.89991e-05
1.93745e-07
1.89148e-05
1.66594e-07
1.88241e-05
1.64084e-07
1.87575e-05
2.04534e-07
1.87276e-05
2.3993e-07
1.87377e-05
2.49703e-07
1.87817e-05
2.44006e-07
1.88465e-05
2.46191e-07
1.89196e-05
2.68728e-07
1.89936e-05
3.06937e-07
1.90662e-05
3.49046e-07
1.91386e-05
3.84258e-07
1.92142e-05
4.08024e-07
1.92969e-05
4.20159e-07
1.93894e-05
4.25995e-07
1.94926e-05
4.27793e-07
4.31714e-07
1.96061e-05
2.27078e-05
-1.00413e-07
2.29215e-05
-1.99118e-08
2.29719e-05
1.16171e-07
2.29638e-05
1.72203e-07
2.30068e-05
1.6158e-07
2.31193e-05
1.27425e-07
2.32746e-05
9.43571e-08
2.34392e-05
7.93922e-08
2.3592e-05
9.34093e-08
2.37274e-05
1.33328e-07
2.38425e-05
1.91854e-07
2.39339e-05
2.57632e-07
2.40006e-05
3.17558e-07
2.40466e-05
3.62018e-07
2.40809e-05
3.8589e-07
2.41143e-05
3.92589e-07
2.4156e-05
3.86066e-07
3.75574e-07
2.42121e-05
1.69303e-05
-1.93288e-07
1.69959e-05
-8.549e-08
1.70117e-05
1.00315e-07
1.70273e-05
1.56663e-07
1.70712e-05
1.1763e-07
1.712e-05
7.86928e-08
1.71442e-05
7.00984e-08
1.71395e-05
8.40709e-08
1.71247e-05
1.08298e-07
1.71187e-05
1.39254e-07
1.71346e-05
1.76025e-07
1.71775e-05
2.1471e-07
1.72459e-05
2.49144e-07
1.73337e-05
2.74221e-07
1.74325e-05
2.87059e-07
1.75346e-05
2.90555e-07
1.76332e-05
2.87455e-07
2.84155e-07
1.77246e-05
1.47297e-05
1.40259e-07
1.46478e-05
-3.59166e-09
1.47216e-05
2.65546e-08
1.4772e-05
1.06279e-07
1.47576e-05
1.32046e-07
1.47291e-05
1.07198e-07
1.47316e-05
6.75414e-08
1.47753e-05
4.03859e-08
1.48385e-05
4.51439e-08
1.48923e-05
8.537e-08
1.49237e-05
1.44638e-07
1.49364e-05
2.02012e-07
1.4943e-05
2.42541e-07
1.49561e-05
2.61109e-07
1.49834e-05
2.59775e-07
1.50269e-05
2.47093e-07
1.50845e-05
2.29791e-07
2.16792e-07
1.51519e-05
1.2839e-05
5.75083e-08
1.27849e-05
5.05707e-08
1.28203e-05
-8.87675e-09
1.28571e-05
6.95413e-08
1.28667e-05
1.22349e-07
1.28656e-05
1.08353e-07
1.28747e-05
5.84083e-08
1.28973e-05
1.78472e-08
1.29279e-05
1.45365e-08
1.29667e-05
4.65767e-08
1.3015e-05
9.63025e-08
1.30699e-05
1.47147e-07
1.31255e-05
1.8695e-07
1.31759e-05
2.1071e-07
1.32176e-05
2.18038e-07
1.3251e-05
2.13681e-07
1.32789e-05
2.01943e-07
1.88716e-07
1.33069e-05
1.11258e-05
5.11449e-08
1.11352e-05
4.1172e-08
1.10909e-05
3.54943e-08
1.10992e-05
6.11946e-08
1.11766e-05
4.49177e-08
1.12663e-05
1.872e-08
1.13119e-05
1.28004e-08
1.13046e-05
2.51084e-08
1.12739e-05
4.52997e-08
1.12553e-05
6.51035e-08
1.12679e-05
8.37403e-08
1.13121e-05
1.02965e-07
1.13769e-05
1.22152e-07
1.14476e-05
1.39956e-07
1.15115e-05
1.54122e-07
1.15617e-05
1.63482e-07
1.15964e-05
1.6732e-07
1.65607e-07
1.16195e-05
9.65939e-06
-2.01549e-07
9.73826e-06
-3.76946e-08
9.75666e-06
1.70956e-08
9.81076e-06
7.09345e-09
9.89721e-06
-4.15277e-08
9.97859e-06
-6.26622e-08
1.00283e-05
-3.69375e-08
1.00428e-05
1.06148e-08
1.00364e-05
5.17015e-08
1.00237e-05
7.78658e-08
1.00128e-05
9.46055e-08
1.00087e-05
1.07041e-07
1.00139e-05
1.16967e-07
1.003e-05
1.23883e-07
1.00572e-05
1.26935e-07
1.0094e-05
1.26619e-07
1.01379e-05
1.23439e-07
1.19114e-07
1.01844e-05
8.47714e-06
-4.60424e-08
8.46535e-06
-2.59008e-08
8.46872e-06
1.37228e-08
8.46853e-06
7.28501e-09
8.47589e-06
-4.8891e-08
8.51542e-06
-1.0219e-07
8.57697e-06
-9.84858e-08
8.63364e-06
-4.60592e-08
8.67055e-06
1.4796e-08
8.68771e-06
6.07003e-08
8.69321e-06
8.91038e-08
8.69474e-06
1.05513e-07
8.69691e-06
1.14794e-07
8.70156e-06
1.19233e-07
8.70992e-06
1.18578e-07
8.72332e-06
1.13214e-07
8.74366e-06
1.03102e-07
9.02745e-08
8.7725e-06
7.30955e-06
-8.78253e-08
7.44071e-06
-1.57063e-07
7.47636e-06
-2.193e-08
7.43074e-06
5.29108e-08
7.34779e-06
3.40618e-08
7.27525e-06
-2.96534e-08
7.24445e-06
-6.76851e-08
7.25508e-06
-5.66917e-08
7.29045e-06
-2.05727e-08
7.33567e-06
1.54845e-08
7.38546e-06
3.93093e-08
7.4386e-06
5.23702e-08
7.4954e-06
5.79931e-08
7.55476e-06
5.98745e-08
7.61375e-06
5.95916e-08
7.66921e-06
5.77563e-08
7.71778e-06
5.45327e-08
5.00518e-08
7.758e-06
6.38081e-06
-3.58229e-09
6.31239e-06
-8.86424e-08
6.32332e-06
-3.28611e-08
6.37222e-06
4.00451e-09
6.41108e-06
-4.79541e-09
6.42803e-06
-4.66076e-08
6.43406e-06
-7.37117e-08
6.44474e-06
-6.73748e-08
6.46471e-06
-4.05403e-08
6.49102e-06
-1.08255e-08
6.51879e-06
1.1538e-08
6.54572e-06
2.54416e-08
6.57307e-06
3.06487e-08
6.60242e-06
3.05194e-08
6.63385e-06
2.8167e-08
6.66577e-06
2.58308e-08
6.69583e-06
2.44728e-08
2.37632e-08
6.72212e-06
5.67319e-06
-3.93349e-08
5.63408e-06
-4.95351e-08
5.65898e-06
-5.77582e-08
5.70165e-06
-3.86661e-08
5.70967e-06
-1.28127e-08
5.6813e-06
-1.82382e-08
5.65131e-06
-4.37208e-08
5.64366e-06
-5.97248e-08
5.66038e-06
-5.72578e-08
5.69171e-06
-4.21641e-08
5.72565e-06
-2.23956e-08
5.75454e-06
-3.45066e-09
5.77528e-06
9.90624e-09
5.78849e-06
1.73162e-08
5.79778e-06
1.88737e-08
5.80743e-06
1.61825e-08
5.82133e-06
1.05744e-08
3.93569e-09
5.84115e-06
4.85757e-06
-2.44469e-08
4.82756e-06
-1.95219e-08
4.81446e-06
-4.46598e-08
4.82368e-06
-4.78911e-08
4.86514e-06
-5.42689e-08
4.91602e-06
-6.91189e-08
4.94919e-06
-7.68944e-08
4.95832e-06
-6.8848e-08
4.95405e-06
-5.29921e-08
4.95043e-06
-3.85403e-08
4.95559e-06
-2.75565e-08
4.97089e-06
-1.87494e-08
4.99306e-06
-1.22623e-08
5.01908e-06
-8.70498e-09
5.04655e-06
-8.60034e-09
5.0741e-06
-1.13672e-08
5.10084e-06
-1.61621e-08
-2.10189e-08
5.12579e-06
4.09607e-06
4.07655e-06
4.03189e-06
3.98399e-06
3.92973e-06
3.86061e-06
3.78371e-06
3.71486e-06
3.66187e-06
3.62333e-06
3.59577e-06
3.57703e-06
3.56476e-06
3.55606e-06
3.54746e-06
3.53609e-06
3.51993e-06
3.49891e-06
-4.38171e-07
4.38171e-07
-7.25041e-07
2.8687e-07
-8.7009e-07
1.45049e-07
-7.57763e-07
-1.12327e-07
-3.64231e-07
-3.93532e-07
2.53689e-07
-6.1792e-07
1.00387e-06
-7.50177e-07
1.80215e-06
-7.98281e-07
2.58537e-06
-7.83228e-07
3.31176e-06
-7.26382e-07
3.95754e-06
-6.45782e-07
4.51061e-06
-5.53076e-07
4.96575e-06
-4.55133e-07
5.32054e-06
-3.54796e-07
5.5728e-06
-2.52255e-07
5.71897e-06
-1.46167e-07
5.7536e-06
-3.46355e-08
5.67472e-06
7.88828e-08
5.471e-06
2.03719e-07
5.13831e-06
3.32688e-07
4.67418e-06
4.64133e-07
4.0782e-06
5.95979e-07
3.35467e-06
7.23532e-07
2.52336e-06
8.31306e-07
1.61275e-06
9.10617e-07
6.82098e-07
9.30647e-07
-1.72248e-07
8.54346e-07
-6.80433e-07
5.08185e-07
-9.7904e-07
2.98607e-07
-1.5113e-06
5.32257e-07
-2.30092e-06
7.89621e-07
-3.11756e-06
8.16638e-07
-3.7281e-06
6.10544e-07
-3.82248e-06
9.43824e-08
-3.39828e-06
-4.24197e-07
-2.37497e-06
-1.02331e-06
-6.32856e-07
-1.74211e-06
1.35047e-06
-1.98332e-06
2.84923e-06
-1.49877e-06
3.59614e-06
-7.46909e-07
3.75455e-06
-1.58409e-07
3.4061e-06
3.48449e-07
2.51073e-06
8.95372e-07
1.80154e-06
7.09184e-07
1.39926e-06
4.02283e-07
9.71087e-07
4.28175e-07
7.19028e-07
2.52058e-07
3.63529e-07
3.55499e-07
-9.54909e-07
1.31844e-06
-3.14103e-06
2.18612e-06
-5.01193e-06
1.8709e-06
-6.59959e-06
1.58766e-06
-7.88676e-06
1.28717e-06
-8.94543e-06
1.05866e-06
-9.79855e-06
8.53122e-07
-1.0495e-05
6.96425e-07
-1.10622e-05
5.67265e-07
-1.15288e-05
4.66535e-07
-1.19141e-05
3.8531e-07
-1.22334e-05
3.1931e-07
-1.24974e-05
2.63971e-07
-1.27128e-05
2.15481e-07
-1.28842e-05
1.71379e-07
-1.30138e-05
1.29563e-07
-1.31027e-05
8.89581e-08
-1.31514e-05
4.8634e-08
-1.31596e-05
8.21209e-09
-1.31311e-05
-2.8457e-08
-1.30667e-05
-6.44114e-08
-1.29675e-05
-9.92023e-08
-1.28355e-05
-1.31974e-07
-1.26734e-05
-1.6219e-07
-1.24843e-05
-1.89027e-07
-1.22723e-05
-2.1199e-07
-1.20418e-05
-2.30522e-07
-1.17975e-05
-2.44358e-07
-1.15441e-05
-2.53351e-07
-1.12865e-05
-2.57589e-07
-1.10292e-05
-2.57314e-07
-1.07763e-05
-2.52954e-07
-1.05312e-05
-2.45075e-07
-1.02968e-05
-2.34387e-07
-1.0075e-05
-2.2175e-07
-9.86685e-06
-2.0819e-07
-9.67191e-06
-1.94935e-07
-9.48845e-06
-1.83466e-07
-9.3129e-06
-1.75549e-07
-9.13963e-06
-1.73266e-07
-8.96071e-06
-1.7892e-07
-8.76591e-06
-1.94806e-07
-8.54319e-06
-2.22722e-07
-8.27992e-06
-2.63268e-07
-7.96472e-06
-3.15193e-07
-7.58961e-06
-3.75118e-07
-7.15188e-06
-4.37725e-07
-6.6551e-06
-4.96781e-07
-6.10847e-06
-5.46627e-07
-5.52507e-06
-5.83407e-07
-4.91948e-06
-6.05583e-07
-4.30569e-06
-6.13791e-07
-3.69546e-06
-6.10232e-07
-3.09761e-06
-5.97851e-07
-2.51807e-06
-5.79536e-07
-1.96061e-06
-5.57463e-07
-1.4267e-06
-5.33908e-07
-9.16145e-07
-5.10558e-07
-4.28403e-07
-4.87742e-07
3.73022e-08
-4.65705e-07
4.85404e-07
-4.48102e-07
9.14942e-07
-4.29538e-07
1.32726e-06
-4.12315e-07
1.72342e-06
-3.96161e-07
2.10418e-06
-3.80758e-07
2.46987e-06
-3.65697e-07
2.82033e-06
-3.50459e-07
3.15481e-06
-3.34477e-07
3.47192e-06
-3.17106e-07
3.76943e-06
-2.97515e-07
4.04399e-06
-2.74559e-07
4.29099e-06
-2.47e-07
4.50586e-06
-2.14873e-07
4.68649e-06
-1.80626e-07
4.83397e-06
-1.47476e-07
4.95142e-06
-1.1745e-07
5.04199e-06
-9.05785e-08
5.1038e-06
-6.18063e-08
5.1277e-06
-2.38951e-08
5.1092e-06
1.84941e-08
5.05909e-06
5.01152e-08
4.99687e-06
6.2216e-08
4.93808e-06
5.87906e-08
4.88689e-06
5.1194e-08
4.83679e-06
5.0099e-08
4.77711e-06
5.96816e-08
4.70063e-06
7.64751e-08
4.60836e-06
9.22668e-08
4.50884e-06
9.952e-08
4.4127e-06
9.61437e-08
4.3278e-06
8.49e-08
4.25729e-06
7.05108e-08
4.20041e-06
5.68775e-08
4.15426e-06
4.61536e-08
4.11507e-06
3.91915e-08
4.07898e-06
3.60903e-08
4.04243e-06
3.65457e-08
4.0024e-06
4.00297e-08
3.95611e-06
4.62957e-08
3.90038e-06
5.57296e-08
3.83186e-06
6.85184e-08
3.74836e-06
8.34945e-08
3.65076e-06
9.76021e-08
3.54382e-06
1.06936e-07
3.4349e-06
1.08923e-07
3.33117e-06
1.03734e-07
3.2371e-06
9.4069e-08
3.15365e-06
8.34527e-08
3.07922e-06
7.44253e-08
3.01137e-06
6.78485e-08
2.94805e-06
6.33216e-08
2.88829e-06
5.97585e-08
2.83228e-06
5.60163e-08
2.7808e-06
5.14739e-08
2.73463e-06
4.61711e-08
2.69399e-06
4.06402e-08
2.65839e-06
3.55978e-08
2.62693e-06
3.14646e-08
2.59831e-06
2.86173e-08
2.57149e-06
2.68189e-08
2.54507e-06
2.6427e-08
2.51849e-06
2.65733e-08
2.4899e-06
2.859e-08
2.4596e-06
3.03044e-08
2.42378e-06
3.58142e-08
2.38491e-06
3.8875e-08
2.33334e-06
5.15687e-08
2.27781e-06
5.55288e-08
2.19146e-06
8.63523e-08
2.10299e-06
8.84666e-08
1.93384e-06
1.69151e-07
1.61016e-07
1.77283e-06
1.70324e-08
4.21138e-07
-4.30983e-08
3.47001e-07
1.57841e-07
-5.58898e-08
7.04718e-07
-6.59204e-07
1.46188e-06
-1.15069e-06
2.2915e-06
-1.44754e-06
3.097e-06
-1.55568e-06
3.83857e-06
-1.53986e-06
4.50129e-06
-1.44595e-06
5.08096e-06
-1.30605e-06
5.57951e-06
-1.14433e-06
6.00116e-06
-9.74723e-07
6.34976e-06
-8.03739e-07
6.62827e-06
-6.33307e-07
6.83919e-06
-4.63175e-07
6.98541e-06
-2.92388e-07
7.07166e-06
-1.20884e-07
7.09114e-06
5.9402e-08
7.03327e-06
2.61596e-07
6.89949e-06
4.66468e-07
6.68434e-06
6.79275e-07
6.38124e-06
8.99086e-07
5.98074e-06
1.12403e-06
5.47036e-06
1.34168e-06
4.83562e-06
1.54536e-06
4.06491e-06
1.70136e-06
3.12099e-06
1.79827e-06
1.85253e-06
1.77664e-06
5.24943e-07
1.62619e-06
-2.6939e-07
1.32659e-06
-7.67588e-07
1.28782e-06
-1.19862e-06
1.24767e-06
-1.46193e-06
8.73853e-07
-1.50479e-06
1.37248e-07
-1.13464e-06
-7.94351e-07
-3.11365e-07
-1.84659e-06
9.22658e-07
-2.97614e-06
1.9105e-06
-2.97117e-06
2.41262e-06
-2.00088e-06
2.59134e-06
-9.25628e-07
2.45143e-06
-1.85045e-08
2.07245e-06
7.27432e-07
1.66517e-06
1.30265e-06
1.01856e-06
1.35579e-06
2.46323e-07
1.17452e-06
-1.00986e-06
1.68435e-06
-3.33888e-06
2.58108e-06
-5.79972e-06
2.81634e-06
-7.41323e-06
2.93195e-06
-8.2446e-06
3.01749e-06
-9.00162e-06
2.62792e-06
-9.6847e-06
2.27073e-06
-1.02603e-05
1.86276e-06
-1.07447e-05
1.54308e-06
-1.11485e-05
1.25692e-06
-1.14922e-05
1.04016e-06
-1.17849e-05
8.59884e-07
-1.20388e-05
7.20484e-07
-1.22587e-05
6.05205e-07
-1.24499e-05
5.10501e-07
-1.26135e-05
4.27584e-07
-1.27507e-05
3.52663e-07
-1.28612e-05
2.81835e-07
-1.29445e-05
2.12878e-07
-1.29997e-05
1.44176e-07
-1.30259e-05
7.48828e-08
-1.30208e-05
3.0774e-09
-1.29832e-05
-6.60939e-08
-1.29115e-05
-1.36037e-07
-1.28063e-05
-2.04444e-07
-1.26689e-05
-2.69401e-07
-1.25018e-05
-3.29276e-07
-1.23082e-05
-3.82561e-07
-1.20923e-05
-4.27978e-07
-1.18582e-05
-4.64549e-07
-1.16109e-05
-4.91655e-07
-1.13552e-05
-5.09071e-07
-1.10958e-05
-5.16961e-07
-1.08373e-05
-5.15852e-07
-1.05837e-05
-5.06601e-07
-1.03384e-05
-4.90351e-07
-1.01043e-05
-4.68511e-07
-9.88325e-06
-4.4276e-07
-9.67633e-06
-4.15109e-07
-9.4833e-06
-3.87963e-07
-9.30254e-06
-3.64226e-07
-9.13065e-06
-3.47435e-07
-8.96212e-06
-3.41806e-07
-8.78891e-06
-3.52125e-07
-8.60042e-06
-3.83296e-07
-8.3838e-06
-4.3934e-07
-8.12518e-06
-5.21888e-07
-7.81173e-06
-6.28649e-07
-7.43425e-06
-7.52598e-07
-6.98973e-06
-8.82243e-07
-6.48261e-06
-1.00389e-06
-5.92399e-06
-1.10525e-06
-5.32905e-06
-1.17835e-06
-4.71405e-06
-1.22059e-06
-4.09376e-06
-1.23407e-06
-3.48003e-06
-1.22396e-06
-2.88133e-06
-1.19655e-06
-2.30277e-06
-1.1581e-06
-1.7475e-06
-1.11273e-06
-1.21604e-06
-1.06537e-06
-7.07693e-07
-1.01891e-06
-2.21313e-07
-9.74122e-07
2.4602e-07
-9.33038e-07
6.94189e-07
-8.96271e-07
1.12555e-06
-8.60901e-07
1.5409e-06
-8.27665e-07
1.94109e-06
-7.96346e-07
2.32683e-06
-7.66501e-07
2.69862e-06
-7.3749e-07
3.05656e-06
-7.08393e-07
3.40015e-06
-6.78075e-07
3.72848e-06
-6.45431e-07
4.04028e-06
-6.09316e-07
4.33344e-06
-5.67721e-07
4.60391e-06
-5.17472e-07
4.84565e-06
-4.56608e-07
5.05367e-06
-3.88652e-07
5.22985e-06
-3.23652e-07
5.38427e-06
-2.71873e-07
5.5268e-06
-2.3311e-07
5.65696e-06
-1.91957e-07
5.7622e-06
-1.29139e-07
5.82289e-06
-4.21924e-08
5.82696e-06
4.60396e-08
5.78191e-06
1.07271e-07
5.71367e-06
1.27023e-07
5.65203e-06
1.12834e-07
5.61734e-06
8.47904e-08
5.61268e-06
6.43404e-08
5.62434e-06
6.48159e-08
5.63031e-06
8.62967e-08
5.61163e-06
1.18199e-07
5.56052e-06
1.47259e-07
5.48098e-06
1.64438e-07
5.38418e-06
1.67314e-07
5.28276e-06
1.58297e-07
5.18735e-06
1.41564e-07
5.10547e-06
1.21069e-07
5.04146e-06
1.00098e-07
4.99648e-06
8.15238e-08
4.96868e-06
6.78388e-08
4.95407e-06
6.09043e-08
4.94805e-06
6.17475e-08
4.94639e-06
7.01824e-08
4.94557e-06
8.43131e-08
4.94292e-06
1.00251e-07
4.93691e-06
1.12947e-07
4.927e-06
1.18828e-07
4.91352e-06
1.17216e-07
4.89697e-06
1.10616e-07
4.87733e-06
1.03096e-07
4.85381e-06
9.79425e-08
4.82533e-06
9.63301e-08
4.79139e-06
9.72607e-08
4.75264e-06
9.85071e-08
4.7107e-06
9.79643e-08
4.66759e-06
9.45758e-08
4.6252e-06
8.85677e-08
4.58491e-06
8.09232e-08
4.54754e-06
7.29763e-08
4.51344e-06
6.55597e-08
4.48251e-06
5.95435e-08
4.45462e-06
5.47141e-08
4.42907e-06
5.19708e-08
4.40564e-06
5.00089e-08
4.38295e-06
5.12784e-08
4.36091e-06
5.23493e-08
4.33681e-06
5.99068e-08
4.31149e-06
6.41941e-08
4.27923e-06
8.38305e-08
4.24301e-06
9.17526e-08
4.19149e-06
1.3787e-07
4.12996e-06
1.49998e-07
4.03888e-06
2.6023e-07
2.85309e-07
3.91459e-06
7.68225e-08
3.44316e-07
4.86842e-07
-6.30181e-08
1.35313e-06
-9.22175e-07
2.33763e-06
-1.64371e-06
3.23269e-06
-2.04575e-06
3.96765e-06
-2.1825e-06
4.55066e-06
-2.13868e-06
5.00291e-06
-1.99211e-06
5.35561e-06
-1.79865e-06
5.64093e-06
-1.59136e-06
5.88286e-06
-1.38627e-06
6.0965e-06
-1.18836e-06
6.2894e-06
-9.96643e-07
6.46157e-06
-8.05473e-07
6.60841e-06
-6.10024e-07
6.72323e-06
-4.07203e-07
6.79708e-06
-1.94734e-07
6.82796e-06
2.85264e-08
6.83068e-06
2.58876e-07
6.79594e-06
5.012e-07
6.72307e-06
7.52146e-07
6.61147e-06
1.01069e-06
6.45737e-06
1.27813e-06
6.25017e-06
1.54888e-06
5.97288e-06
1.82265e-06
5.59416e-06
2.08008e-06
5.0803e-06
2.31213e-06
4.3827e-06
2.47425e-06
3.46629e-06
2.5426e-06
2.35652e-06
2.43636e-06
1.48954e-06
2.1548e-06
9.58739e-07
1.77846e-06
6.54988e-07
1.1776e-06
4.82772e-07
3.09465e-07
5.26736e-07
-8.38315e-07
9.34344e-07
-2.25419e-06
1.35197e-06
-3.39376e-06
1.24343e-06
-2.86263e-06
8.7138e-07
-1.62883e-06
4.74627e-07
-5.28875e-07
-6.3964e-08
5.20087e-07
-7.22051e-07
1.38552e-06
-1.49939e-06
2.07999e-06
-2.76429e-06
2.62069e-06
-4.66614e-06
3.07638e-06
-6.44914e-06
3.46735e-06
-7.61597e-06
3.74791e-06
-8.54038e-06
3.74074e-06
-9.19989e-06
3.59147e-06
-9.43265e-06
3.25026e-06
-9.61737e-06
2.81263e-06
-9.78415e-06
2.43752e-06
-9.99009e-06
2.0687e-06
-1.0216e-05
1.769e-06
-1.04597e-05
1.50058e-06
-1.0706e-05
1.28654e-06
-1.09488e-05
1.10269e-06
-1.11809e-05
9.52524e-07
-1.13981e-05
8.22459e-07
-1.15975e-05
7.09813e-07
-1.17765e-05
6.06668e-07
-1.19332e-05
5.09359e-07
-1.20651e-05
4.13671e-07
-1.21694e-05
3.17242e-07
-1.22436e-05
2.18307e-07
-1.2285e-05
1.16307e-07
-1.22946e-05
1.27177e-08
-1.22665e-05
-9.41873e-08
-1.22026e-05
-1.99991e-07
-1.21041e-05
-3.02965e-07
-1.19726e-05
-4.0089e-07
-1.18108e-05
-4.91095e-07
-1.16221e-05
-5.71178e-07
-1.14111e-05
-6.39023e-07
-1.11825e-05
-6.93145e-07
-1.09415e-05
-7.32668e-07
-1.06932e-05
-7.57357e-07
-1.04426e-05
-7.6759e-07
-1.01941e-05
-7.64296e-07
-9.95186e-06
-7.48865e-07
-9.71913e-06
-7.23083e-07
-9.49857e-06
-6.89068e-07
-9.29204e-06
-6.49288e-07
-9.10049e-06
-6.06662e-07
-8.92379e-06
-5.64662e-07
-8.76051e-06
-5.27503e-07
-8.60754e-06
-5.0041e-07
-8.45955e-06
-4.89797e-07
-8.30845e-06
-5.03224e-07
-8.1429e-06
-5.48843e-07
-7.9484e-06
-6.33842e-07
-7.70847e-06
-7.6182e-07
-7.40727e-06
-9.29848e-07
-7.03325e-06
-1.12662e-06
-6.58301e-06
-1.33248e-06
-6.06353e-06
-1.52338e-06
-5.49076e-06
-1.67801e-06
-4.8853e-06
-1.78381e-06
-4.26763e-06
-1.83826e-06
-3.65467e-06
-1.84703e-06
-3.05838e-06
-1.82025e-06
-2.48603e-06
-1.7689e-06
-1.94055e-06
-1.70358e-06
-1.4231e-06
-1.63018e-06
-9.3106e-07
-1.55741e-06
-4.62579e-07
-1.48739e-06
-1.51716e-08
-1.42153e-06
4.1919e-07
-1.3674e-06
8.37242e-07
-1.31432e-06
1.24251e-06
-1.26617e-06
1.63658e-06
-1.22173e-06
2.01997e-06
-1.17974e-06
2.39243e-06
-1.13895e-06
2.7533e-06
-1.09836e-06
3.10209e-06
-1.05718e-06
3.43835e-06
-1.01433e-06
3.76114e-06
-9.68227e-07
4.069e-06
-9.17175e-07
4.36044e-06
-8.59161e-07
4.63269e-06
-7.89721e-07
4.87781e-06
-7.01731e-07
5.08233e-06
-5.93167e-07
5.23745e-06
-4.78773e-07
5.35382e-06
-3.88243e-07
5.46309e-06
-3.42384e-07
5.59758e-06
-3.26441e-07
5.75965e-06
-2.91212e-07
5.90995e-06
-1.9249e-07
5.99389e-06
-3.78988e-08
5.98657e-06
1.14588e-07
5.91164e-06
2.01947e-07
5.81731e-06
2.07173e-07
5.746e-06
1.56096e-07
5.7173e-06
9.3044e-08
5.72681e-06
5.53023e-08
5.75461e-06
5.84959e-08
5.77613e-06
9.6681e-08
5.77087e-06
1.52519e-07
5.72792e-06
2.07384e-07
5.64837e-06
2.46867e-07
5.54359e-06
2.63078e-07
5.42994e-06
2.5521e-07
5.32265e-06
2.28359e-07
5.23181e-06
1.90938e-07
5.16153e-06
1.51805e-07
5.11131e-06
1.18062e-07
5.07815e-06
9.40607e-08
5.05839e-06
8.15085e-08
5.04866e-06
7.99131e-08
5.04614e-06
8.68319e-08
5.04835e-06
9.80451e-08
5.05295e-06
1.08346e-07
5.05834e-06
1.13432e-07
5.06409e-06
1.11466e-07
5.07044e-06
1.04265e-07
5.07732e-06
9.62204e-08
5.08343e-06
9.18285e-08
5.08622e-06
9.3546e-08
5.08268e-06
1.00797e-07
5.07068e-06
1.10512e-07
5.04978e-06
1.1886e-07
5.0214e-06
1.22952e-07
4.98806e-06
1.21907e-07
4.95251e-06
1.16482e-07
4.91694e-06
1.08546e-07
4.88285e-06
9.96432e-08
4.85099e-06
9.14106e-08
4.8217e-06
8.40023e-08
4.79498e-06
7.86871e-08
4.77087e-06
7.41238e-08
4.74915e-06
7.29915e-08
4.72966e-06
7.18449e-08
4.71198e-06
7.75844e-08
4.6948e-06
8.13705e-08
4.67826e-06
1.00377e-07
4.65799e-06
1.12018e-07
4.63821e-06
1.57649e-07
4.60513e-06
1.83084e-07
4.5807e-06
2.84653e-07
3.43119e-07
4.52289e-06
1.73572e-07
1.70744e-07
1.26111e-06
-1.15055e-06
2.4742e-06
-2.13527e-06
3.38483e-06
-2.55434e-06
3.96521e-06
-2.62613e-06
4.29244e-06
-2.50973e-06
4.46816e-06
-2.31441e-06
4.57322e-06
-2.09717e-06
4.6641e-06
-1.88953e-06
4.77207e-06
-1.69932e-06
4.90764e-06
-1.52185e-06
5.067e-06
-1.34771e-06
5.23784e-06
-1.16749e-06
5.40647e-06
-9.74101e-07
5.56015e-06
-7.63708e-07
5.68811e-06
-5.35164e-07
5.78185e-06
-2.88475e-07
5.83182e-06
-2.14418e-08
5.85408e-06
2.36621e-07
5.84882e-06
5.06459e-07
5.82095e-06
7.80015e-07
5.77884e-06
1.0528e-06
5.73078e-06
1.3262e-06
5.67912e-06
1.60054e-06
5.62066e-06
1.8811e-06
5.53611e-06
2.16463e-06
5.39985e-06
2.44839e-06
5.16345e-06
2.71065e-06
4.79402e-06
2.91202e-06
4.22856e-06
3.00182e-06
3.51772e-06
2.86564e-06
2.81323e-06
2.48295e-06
2.1592e-06
1.83164e-06
1.57113e-06
8.97535e-07
1.03413e-06
-3.01313e-07
5.95825e-07
-1.81589e-06
-2.53897e-07
-2.54404e-06
-1.29982e-06
-1.81671e-06
-2.22708e-06
-7.01568e-07
-3.17969e-06
4.23738e-07
-4.06124e-06
1.40163e-06
-4.99431e-06
2.3186e-06
-5.98209e-06
3.06777e-06
-6.97665e-06
3.61524e-06
-7.90784e-06
4.00757e-06
-8.62744e-06
4.18696e-06
-8.98904e-06
4.10951e-06
-9.15085e-06
3.90255e-06
-9.18373e-06
3.62435e-06
-9.17043e-06
3.23696e-06
-9.20299e-06
2.84519e-06
-9.25776e-06
2.49229e-06
-9.36884e-06
2.17978e-06
-9.51764e-06
1.91779e-06
-9.70589e-06
1.68883e-06
-9.91387e-06
1.49452e-06
-1.01331e-05
1.3219e-06
-1.03526e-05
1.17208e-06
-1.05674e-05
1.0372e-06
-1.07716e-05
9.14071e-07
-1.09612e-05
7.96184e-07
-1.11316e-05
6.79765e-07
-1.12787e-05
5.60854e-07
-1.13985e-05
4.36958e-07
-1.14867e-05
3.06495e-07
-1.154e-05
1.69681e-07
-1.15562e-05
2.88883e-08
-1.15329e-05
-1.17498e-07
-1.14694e-05
-2.6349e-07
-1.13665e-05
-4.05868e-07
-1.12264e-05
-5.41024e-07
-1.10525e-05
-6.64975e-07
-1.08495e-05
-7.74128e-07
-1.0623e-05
-8.65532e-07
-1.0379e-05
-9.37145e-07
-1.01238e-05
-9.87917e-07
-9.86333e-06
-1.01779e-06
-9.60328e-06
-1.02763e-06
-9.34854e-06
-1.01904e-06
-9.10318e-06
-9.94225e-07
-8.87044e-06
-9.55827e-07
-8.65269e-06
-9.06817e-07
-8.45149e-06
-8.50484e-07
-8.26756e-06
-7.90592e-07
-8.1007e-06
-7.3152e-07
-7.9497e-06
-6.78511e-07
-7.81193e-06
-6.38178e-07
-7.68274e-06
-6.18988e-07
-7.55443e-06
-6.31529e-07
-7.4151e-06
-6.88174e-07
-7.24797e-06
-8.00973e-07
-7.03207e-06
-9.7772e-07
-6.74522e-06
-1.2167e-06
-6.36966e-06
-1.50218e-06
-5.89876e-06
-1.80338e-06
-5.34213e-06
-2.08001e-06
-4.72395e-06
-2.2962e-06
-4.07506e-06
-2.43269e-06
-3.4248e-06
-2.48852e-06
-2.79582e-06
-2.47602e-06
-2.20276e-06
-2.41331e-06
-1.65269e-06
-2.31896e-06
-1.14692e-06
-2.20935e-06
-6.85008e-07
-2.0921e-06
-2.59838e-07
-1.98258e-06
1.34397e-07
-1.88162e-06
5.06385e-07
-1.79352e-06
8.55266e-07
-1.71628e-06
1.1903e-06
-1.64936e-06
1.51655e-06
-1.59242e-06
1.83899e-06
-1.54416e-06
2.16144e-06
-1.50219e-06
2.48559e-06
-1.4631e-06
2.81038e-06
-1.42315e-06
3.13279e-06
-1.37959e-06
3.4498e-06
-1.33134e-06
3.75952e-06
-1.27794e-06
4.06052e-06
-1.21818e-06
4.35151e-06
-1.15014e-06
4.63229e-06
-1.0705e-06
4.90086e-06
-9.70305e-07
5.14335e-06
-8.35652e-07
5.33038e-06
-6.65809e-07
5.43767e-06
-4.9553e-07
5.47869e-06
-3.83407e-07
5.51117e-06
-3.58916e-07
5.59901e-06
-3.79054e-07
5.75642e-06
-3.49899e-07
5.92741e-06
-2.08891e-07
6.03175e-06
1.02503e-08
6.03099e-06
2.02705e-07
5.95208e-06
2.86081e-07
5.854e-06
2.54174e-07