/*--------------------------------*- C++ -*----------------------------------*\
  =========                 |
  \\      /  F ield         | OpenFOAM: The Open Source CFD Toolbox
   \\    /   O peration     | Website:  https://openfoam.org
    \\  /    A nd           | Version:  9
     \\/     M anipulation  |
\*---------------------------------------------------------------------------*/
FoamFile
{
    format      ascii;
    class       volScalarField;
    location    "0.04";
    object      s;
}
// * * * * * * * * * * * * * * * * * * * * * * * * * * * * * * * * * * * * * //

dimensions      [0 0 0 0 0 0 0];

internalField   nonuniform List<scalar> 
12225
(
1
1
1
1
1
1
1
1
1
1
1
1
1
1
1
1
0.999974
0.991614
1
1
1
1
1
1
1
1
1
1
1
1
1
1
1
1
0.999997
0.999046
1
1
1
1
1
1
1
1
1
1
1
1
1
1
1
1
1
0.999941
1
1
1
1
1
1
1
1
1
1
1
1
1
1
1
1
1
0.999997
1
1
1
1
1
1
1
1
1
1
1
1
1
1
1
1
1
1
1
1
1
1
1
1
1
1
1
1
1
1
1
1
1
1
1
1
1
1
1
1
1
1
1
1
1
1
1
1
1
1
1
1
1
1
1
1
1
1
1
1
1
1
1
1
1
1
1
1
1
1
1
1
1
1
1
1
1
1
1
1
1
1
1
1
1
1
1
1
1
1
1
1
1
1
1
1
1
1
1
1
1
1
1
1
1
1
1
1
1
1
1
1
1
1
1
1
1
1
1
1
1
1
1
1
1
1
1
1
1
1
1
1
1
1
1
1
1
1
1
1
1
1
1
1
1
1
1
1
1
1
1
1
1
1
1
1
1
1
1
1
1
1
1
1
1
1
1
1
1
1
1
1
1
1
1
1
1
1
1
1
1
1
1
1
1
1
1
1
1
1
1
1
1
1
1
1
1
1
1
1
1
1
1
1
1
1
1
1
1
1
1
1
1
1
1
1
1
1
1
1
1
1
1
1
1
1
1
1
1
1
1
1
1
1
1
1
1
1
1
1
1
1
1
1
1
1
1
1
1
1
1
1
1
1
1
1
1
1
1
1
1
1
1
1
1
1
1
1
1
1
1
1
1
1
1
1
1
1
1
1
1
1
1
1
1
1
1
1
1
1
1
1
1
1
1
1
1
1
1
1
1
1
1
1
1
1
1
1
1
1
1
1
1
1
1
1
1
1
1
1
1
1
1
1
1
1
1
1
1
1
1
1
1
1
1
1
1
1
1
1
1
1
1
1
1
1
1
1
1
1
1
1
1
1
1
1
1
1
1
1
1
1
1
1
1
1
1
1
1
1
1
1
1
1
1
1
1
1
1
1
1
1
1
1
1
1
1
1
1
1
1
1
1
1
1
1
1
1
1
1
1
1
1
1
1
1
1
1
1
1
1
1
1
1
1
1
1
1
1
1
1
1
1
1
1
1
1
1
1
1
1
1
1
1
1
1
1
1
1
1
1
1
1
1
1
1
1
1
1
1
1
1
1
1
1
1
1
1
1
1
1
1
1
1
1
1
1
1
0.366619
0.396971
0.400553
0.413205
0.459812
0.500965
0.536982
0.564115
0.580813
0.591681
0.597254
0.598466
0.597807
0.596091
0.592939
0.589052
0.583219
0.577396
0.572504
0.56792
0.563746
0.560819
0.559647
0.559773
0.562932
0.576237
0.58987
0.496318
0.399194
0.398531
0.408423
0.409632
0.40836
0.404258
0.401617
0.406843
0.437417
0.494713
0.562764
0.563403
0.55766
0.546994
0.529227
0.506208
0.491384
0.464867
0.39906
0.379703
0.641258
0.878855
0.884681
0.886397
0.887774
0.888719
0.88921
0.890166
0.891587
0.892645
0.893245
0.893988
0.895073
0.895805
0.896292
0.897551
0.899453
0.900171
0.90049
0.90082
0.901619
0.903003
0.904533
0.905676
0.9064
0.907068
0.908089
0.909543
0.910623
0.911087
0.911503
0.912258
0.913278
0.914236
0.914915
0.915382
0.916024
0.916894
0.917557
0.918193
0.918958
0.919809
0.920707
0.921443
0.922017
0.922679
0.923274
0.923801
0.92424
0.924674
0.924902
0.925134
0.925281
0.925057
0.924906
0.924404
0.92371
0.922805
0.921618
0.920217
0.91852
0.916492
0.914118
0.911399
0.908571
0.905721
0.902915
0.900252
0.89784
0.895489
0.893082
0.890604
0.888033
0.88522
0.881861
0.877939
0.873695
0.869396
0.865658
0.862905
0.860908
0.859357
0.858073
0.856993
0.856135
0.85554
0.855201
0.855
0.854714
0.85405
0.853145
0.851588
0.84822
0.839829
0.827604
0.81427
0.798549
0.775947
0.73995
0.68461
0.607611
0.512619
0.409261
0.309872
0.224501
0.157735
0.108946
0.074657
0.0508915
0.0344425
0.0230803
0.0152927
0.0100091
0.00645957
0.0041043
0.0025649
0.00157519
0.000949894
0.000561973
0.000325963
0.000185222
0.000103072
5.61132e-05
2.98778e-05
1.55269e-05
7.87428e-06
3.87972e-06
1.85794e-06
8.5735e-07
3.79258e-07
1.66108e-07
3.99913e-08
0.34225
0.370454
0.347904
0.418784
0.548443
0.633026
0.671384
0.689218
0.691822
0.689758
0.684855
0.679063
0.673309
0.66792
0.663139
0.65859
0.654675
0.650405
0.645295
0.638726
0.630221
0.621198
0.61068
0.60114
0.589176
0.584552
0.587638
0.579843
0.552724
0.432623
0.392906
0.37984
0.358757
0.338545
0.335383
0.354371
0.414223
0.587345
0.684544
0.678192
0.657094
0.610626
0.547458
0.500878
0.476504
0.54068
0.731371
0.810798
0.852641
0.882318
0.883265
0.883122
0.881253
0.878898
0.87583
0.873435
0.87207
0.870774
0.870246
0.870147
0.870262
0.87116
0.87253
0.873372
0.874084
0.875253
0.875993
0.876604
0.879252
0.882778
0.885469
0.888531
0.893587
0.897839
0.900825
0.905655
0.911161
0.914317
0.916894
0.920321
0.923942
0.927374
0.930345
0.932191
0.933752
0.935249
0.935737
0.935885
0.935855
0.935634
0.935099
0.934154
0.933075
0.932145
0.931428
0.931139
0.931847
0.933748
0.935839
0.938647
0.942203
0.945113
0.94879
0.952217
0.955612
0.958734
0.961491
0.963846
0.965787
0.967345
0.968536
0.969297
0.96922
0.967934
0.96521
0.961038
0.955171
0.948187
0.940843
0.934376
0.929231
0.925447
0.923116
0.921724
0.920018
0.916332
0.906951
0.895099
0.885612
0.879909
0.877327
0.876447
0.87604
0.875321
0.873296
0.867914
0.863383
0.861185
0.860785
0.861166
0.863548
0.871253
0.883181
0.896569
0.907566
0.91278
0.913443
0.912462
0.908318
0.897802
0.870109
0.818199
0.772771
0.745362
0.730039
0.70863
0.662052
0.581744
0.480061
0.376204
0.284954
0.209592
0.149384
0.103228
0.069217
0.0450814
0.0285406
0.0175838
0.0105474
0.00616874
0.00351586
0.00195624
0.00105931
0.000560048
0.000286662
0.000143146
6.84156e-05
3.17275e-05
1.40986e-05
5.03441e-06
0.265517
0.294543
0.456742
0.634365
0.695904
0.719442
0.719723
0.716139
0.707683
0.694145
0.680126
0.666253
0.653079
0.641683
0.632137
0.625623
0.620303
0.617994
0.618276
0.619103
0.619017
0.617925
0.614713
0.610329
0.605292
0.600965
0.595943
0.593873
0.588799
0.562069
0.487532
0.405075
0.369352
0.345658
0.331119
0.353886
0.485046
0.737038
0.73028
0.702921
0.59115
0.554898
0.551026
0.575089
0.725825
0.807944
0.852931
0.869983
0.876518
0.878383
0.872199
0.862064
0.845665
0.823142
0.793812
0.773846
0.764149
0.751878
0.73962
0.734558
0.73151
0.729961
0.729055
0.728252
0.72693
0.725724
0.725584
0.727638
0.732021
0.735605
0.738258
0.742285
0.74844
0.755134
0.76215
0.770611
0.780142
0.790606
0.800308
0.809446
0.818538
0.826872
0.834865
0.841613
0.844222
0.844893
0.844859
0.843517
0.840039
0.83583
0.831794
0.827777
0.824303
0.822022
0.82093
0.8205
0.821352
0.823601
0.826626
0.831133
0.838038
0.846506
0.856817
0.86907
0.883162
0.898773
0.914644
0.929762
0.943179
0.953913
0.963324
0.971161
0.977224
0.98151
0.984289
0.985813
0.986341
0.985627
0.981717
0.972236
0.959601
0.947043
0.938635
0.93438
0.932596
0.931793
0.930875
0.928777
0.921564
0.904211
0.891935
0.886269
0.884639
0.884561
0.884863
0.884871
0.884333
0.881506
0.87264
0.865829
0.863138
0.862772
0.863152
0.865035
0.871887
0.883276
0.894365
0.907423
0.923329
0.938678
0.949083
0.95347
0.954281
0.954206
0.953633
0.951558
0.943664
0.930924
0.920273
0.905064
0.872199
0.781016
0.612462
0.454276
0.324932
0.226174
0.153772
0.102134
0.0661794
0.0418512
0.0257891
0.0155067
0.00906357
0.00516616
0.00284646
0.00152766
0.000784286
0.000390569
0.00018503
7.76054e-05
0.248707
0.589541
0.703071
0.733569
0.739274
0.735969
0.726784
0.706928
0.671883
0.633047
0.603643
0.578105
0.55618
0.537101
0.521911
0.513324
0.504961
0.503615
0.505716
0.511576
0.523219
0.541257
0.558682
0.576686
0.587606
0.592915
0.593371
0.593126
0.592276
0.588316
0.572791
0.528012
0.440276
0.389403
0.375955
0.41541
0.679792
0.78808
0.713772
0.65535
0.637291
0.642541
0.727638
0.800848
0.846754
0.86439
0.871095
0.872472
0.870867
0.858037
0.831187
0.788045
0.734493
0.705615
0.690047
0.676746
0.6696
0.666166
0.66482
0.664611
0.665271
0.666482
0.667371
0.670735
0.674702
0.676084
0.677045
0.679436
0.682801
0.686246
0.688592
0.689991
0.691423
0.693472
0.695912
0.698264
0.700296
0.703014
0.706289
0.709887
0.71363
0.71738
0.721565
0.72637
0.731234
0.735146
0.739664
0.745148
0.749966
0.754921
0.760743
0.766572
0.77262
0.778599
0.783477
0.78688
0.788309
0.788731
0.7871
0.784392
0.781371
0.778764
0.777095
0.776671
0.777803
0.780633
0.787248
0.798689
0.815908
0.83939
0.867135
0.897945
0.927819
0.951603
0.968432
0.98009
0.987106
0.990939
0.992635
0.992958
0.991984
0.985979
0.968707
0.952355
0.94298
0.938875
0.937371
0.936558
0.935113
0.931089
0.91707
0.900017
0.890582
0.887145
0.886782
0.887989
0.890342
0.890681
0.889944
0.885484
0.874266
0.865627
0.860158
0.857874
0.857582
0.858177
0.861741
0.874678
0.893188
0.910865
0.927092
0.941312
0.954239
0.966144
0.9757
0.981764
0.984373
0.984875
0.98473
0.983769
0.980645
0.972159
0.951385
0.897363
0.748519
0.566968
0.411645
0.28882
0.196887
0.130978
0.0850608
0.0539404
0.0332781
0.0199906
0.0116119
0.00654225
0.00353441
0.00183884
0.000917801
0.000408654
0.666988
0.728758
0.748466
0.749813
0.745558
0.731262
0.694258
0.632511
0.591956
0.562258
0.539782
0.514544
0.496401
0.478535
0.461728
0.451873
0.442697
0.441953
0.443666
0.448362
0.456843
0.469137
0.482489
0.497746
0.520573
0.546637
0.570085
0.582041
0.588254
0.588128
0.585921
0.575632
0.54782
0.490945
0.452431
0.489695
0.750807
0.799679
0.775298
0.763784
0.770125
0.807514
0.843063
0.860202
0.867955
0.8699
0.869688
0.863055
0.84276
0.800376
0.741416
0.684901
0.662379
0.651619
0.646948
0.645487
0.646032
0.653126
0.657758
0.659974
0.664758
0.671991
0.678352
0.684383
0.691736
0.700706
0.709528
0.715985
0.721289
0.72578
0.727552
0.728219
0.728227
0.724947
0.721321
0.719248
0.715257
0.713276
0.712194
0.711891
0.712473
0.71393
0.716046
0.719365
0.724552
0.730182
0.737299
0.747358
0.759481
0.774921
0.796704
0.822111
0.846125
0.865974
0.880136
0.888119
0.891548
0.892387
0.886325
0.875899
0.860286
0.841291
0.820798
0.801039
0.785256
0.775193
0.768053
0.764321
0.764278
0.768085
0.775388
0.786972
0.807728
0.841269
0.884263
0.926569
0.956873
0.975949
0.987127
0.992735
0.994843
0.9951
0.993923
0.986521
0.966908
0.952317
0.944855
0.941699
0.940176
0.938076
0.932978
0.917913
0.902209
0.89357
0.890612
0.890424
0.891928
0.895413
0.896405
0.896114
0.893521
0.882435
0.869351
0.861859
0.858339
0.857328
0.857448
0.859165
0.867248
0.887771
0.907161
0.924523
0.940313
0.95411
0.965831
0.975484
0.983159
0.988774
0.992055
0.99328
0.993381
0.992979
0.991055
0.984812
0.967267
0.918859
0.777897
0.592947
0.433839
0.306502
0.209875
0.139837
0.0906245
0.0571061
0.0347835
0.0204663
0.0115517
0.00624096
0.00324783
0.00151229
0.750009
0.756607
0.757622
0.753528
0.739536
0.695993
0.635062
0.590712
0.561434
0.535058
0.509143
0.475776
0.447574
0.415472
0.39207
0.37648
0.363905
0.364111
0.367716
0.37654
0.393875
0.418348
0.442681
0.46177
0.47554
0.492644
0.514704
0.541381
0.568862
0.581502
0.584685
0.582713
0.573704
0.549185
0.501973
0.535485
0.775996
0.820637
0.817852
0.819413
0.836587
0.855873
0.864725
0.868046
0.868852
0.867872
0.859799
0.836732
0.790347
0.723951
0.659362
0.636574
0.629078
0.627461
0.628115
0.635133
0.648099
0.661158
0.673031
0.686013
0.70537
0.729113
0.747288
0.759505
0.779015
0.802335
0.81188
0.818185
0.82772
0.838102
0.845222
0.849305
0.851197
0.851979
0.849978
0.843562
0.831434
0.819626
0.806697
0.797042
0.790178
0.787211
0.78647
0.787778
0.796766
0.811636
0.829982
0.854485
0.882345
0.909911
0.932616
0.946204
0.951279
0.951987
0.951972
0.952534
0.953403
0.956002
0.959366
0.963017
0.966115
0.965792
0.960367
0.948708
0.928856
0.901103
0.869891
0.837984
0.809898
0.790449
0.780874
0.777389
0.778468
0.786637
0.802799
0.829868
0.873673
0.921733
0.957446
0.978447
0.989725
0.994598
0.995786
0.995413
0.991557
0.975886
0.959659
0.95101
0.947049
0.944297
0.939268
0.926586
0.911881
0.902076
0.897665
0.896693
0.897034
0.89942
0.901527
0.901887
0.901505
0.898994
0.888741
0.874061
0.864905
0.860811
0.859829
0.860043
0.862038
0.871037
0.894508
0.916387
0.933918
0.94792
0.959429
0.969302
0.977839
0.984843
0.990161
0.993724
0.995618
0.996215
0.99621
0.995746
0.993725
0.987156
0.968015
0.912552
0.758436
0.578438
0.42489
0.301307
0.20631
0.136426
0.0868866
0.0532365
0.0312807
0.0175257
0.00946958
0.00459624
0.754927
0.762156
0.761475
0.753881
0.728096
0.668887
0.611219
0.57066
0.539044
0.497848
0.445756
0.398398
0.360344
0.332076
0.31109
0.298189
0.285198
0.282267
0.28457
0.291851
0.30666
0.337143
0.376918
0.415439
0.44639
0.465785
0.47966
0.500675
0.521834
0.559804
0.578486
0.58168
0.578674
0.56574
0.530092
0.582246
0.799851
0.833675
0.836863
0.844293
0.857509
0.863654
0.866191
0.866919
0.864769
0.854568
0.833139
0.794252
0.738564
0.665066
0.622283
0.610417
0.60785
0.608133
0.613621
0.627989
0.646614
0.664161
0.682016
0.705209
0.735879
0.765396
0.782609
0.794407
0.816826
0.832584
0.837826
0.840929
0.846791
0.857356
0.869436
0.88036
0.886334
0.893837
0.905648
0.912344
0.916361
0.920631
0.92189
0.918103
0.914103
0.910585
0.909512
0.909655
0.915981
0.928906
0.940511
0.951437
0.960793
0.964515
0.965099
0.963674
0.957629
0.946718
0.93504
0.928107
0.925396
0.930077
0.940522
0.954712
0.968609
0.978868
0.985115
0.988297
0.989352
0.987688
0.982407
0.972445
0.956188
0.932699
0.903949
0.873471
0.842273
0.816809
0.806969
0.808872
0.825412
0.855322
0.896709
0.940036
0.970057
0.986359
0.993709
0.995738
0.995517
0.991871
0.977135
0.964933
0.959628
0.953241
0.942058
0.928101
0.915404
0.907024
0.903338
0.902601
0.902926
0.904757
0.906093
0.906312
0.906131
0.904869
0.899076
0.885122
0.87452
0.868619
0.866344
0.86602
0.866684
0.8708
0.887095
0.912904
0.933381
0.948933
0.960858
0.970154
0.977553
0.983637
0.988673
0.992622
0.995389
0.997016
0.997696
0.997806
0.997683
0.99694
0.994217
0.985664
0.960489
0.883497
0.70809
0.536911
0.39113
0.273832
0.183855
0.118068
0.0723597
0.042059
0.0235369
0.0118928
0.759241
0.770521
0.768025
0.754691
0.719279
0.65589
0.593386
0.549437
0.502075
0.442423
0.392844
0.354751
0.324956
0.302232
0.283457
0.269794
0.258164
0.254339
0.255391
0.259578
0.268943
0.286893
0.324907
0.3718
0.414458
0.443494
0.462915
0.481948
0.497524
0.523701
0.56136
0.5776
0.577831
0.570377
0.541082
0.622685
0.814962
0.840948
0.845463
0.852566
0.860462
0.863198
0.864004
0.861536
0.854319
0.840228
0.816626
0.774802
0.705282
0.623279
0.597593
0.592485
0.592013
0.593338
0.59876
0.611926
0.63346
0.656024
0.675103
0.694867
0.721396
0.745441
0.754303
0.758365
0.763514
0.768718
0.768237
0.762679
0.760253
0.766553
0.788948
0.809413
0.822626
0.847138
0.875744
0.89933
0.914812
0.931366
0.942529
0.948326
0.953336
0.956285
0.95747
0.958049
0.959453
0.962904
0.966712
0.968496
0.968786
0.96725
0.959512
0.938083
0.897509
0.855801
0.827574
0.812754
0.807056
0.809861
0.825323
0.85423
0.896992
0.939853
0.968721
0.984968
0.99218
0.995181
0.996348
0.996497
0.995373
0.99218
0.987608
0.981651
0.971623
0.95068
0.913864
0.874316
0.850913
0.849901
0.866731
0.899507
0.935264
0.966518
0.984989
0.993299
0.995484
0.995075
0.989655
0.978554
0.97198
0.962878
0.94858
0.932574
0.919267
0.911127
0.907909
0.907449
0.908011
0.90978
0.91046
0.91046
0.910073
0.908273
0.90099
0.889221
0.881331
0.877391
0.876105
0.875987
0.876336
0.87859
0.888813
0.914672
0.937949
0.95537
0.96755
0.975846
0.981712
0.986219
0.989934
0.993006
0.995409
0.997119
0.998171
0.998659
0.998772
0.998733
0.998416
0.997143
0.992953
0.980085
0.941775
0.822343
0.637216
0.471578
0.333415
0.224674
0.144245
0.0876708
0.0512249
0.0270424
0.766272
0.779566
0.773795
0.754858
0.716173
0.65133
0.585161
0.532629
0.476269
0.417218
0.371724
0.33831
0.3122
0.291275
0.272049
0.257337
0.247312
0.24351
0.244175
0.248202
0.259033
0.285102
0.327818
0.374834
0.413995
0.439195
0.453774
0.464126
0.473692
0.492712
0.534328
0.566935
0.576027
0.569617
0.55859
0.673156
0.825457
0.84394
0.847559
0.853522
0.859769
0.861248
0.860962
0.857876
0.850878
0.838589
0.81705
0.777134
0.710319
0.617648
0.574035
0.566003
0.564137
0.563819
0.565728
0.57438
0.59565
0.625301
0.640121
0.647287
0.650866
0.64745
0.619467
0.587291
0.554374
0.529704
0.514986
0.50461
0.500756
0.507036
0.525833
0.554894
0.587423
0.637767
0.687874
0.747901
0.807618
0.860665
0.904456
0.934034
0.950761
0.960213
0.964609
0.966783
0.968061
0.969007
0.969186
0.968037
0.962568
0.946236
0.910124
0.854802
0.817783
0.801725
0.78576
0.768997
0.759233
0.755818
0.75821
0.765283
0.781074
0.820278
0.88681
0.944631
0.975693
0.989926
0.995727
0.997843
0.998593
0.998784
0.998548
0.997764
0.996762
0.99496
0.991082
0.981175
0.953377
0.916979
0.897391
0.897769
0.91634
0.944338
0.969454
0.986295
0.993751
0.995429
0.994603
0.987513
0.97857
0.97332
0.963014
0.945985
0.930134
0.919901
0.915454
0.914579
0.914899
0.91625
0.916751
0.916624
0.915621
0.91149
0.900607
0.891387
0.886144
0.883987
0.883517
0.883595
0.884308
0.887288
0.898291
0.922567
0.944635
0.962133
0.974778
0.983115
0.988185
0.99118
0.993147
0.994751
0.996212
0.997465
0.998399
0.998986
0.999268
0.99934
0.999324
0.999164
0.998493
0.996211
0.989006
0.966843
0.897614
0.720583
0.535438
0.377883
0.253348
0.160412
0.0975253
0.0539623
0.772781
0.786972
0.776497
0.75617
0.719808
0.651821
0.582201
0.525484
0.465672
0.406765
0.364818
0.334433
0.310315
0.289848
0.27006
0.255154
0.245593
0.24346
0.248618
0.256204
0.270939
0.302342
0.348214
0.391627
0.419903
0.434673
0.442988
0.451005
0.463214
0.487125
0.53284
0.566619
0.57501
0.570372
0.573998
0.712188
0.831995
0.844547
0.847335
0.852532
0.857033
0.857598
0.856849
0.854253
0.848795
0.839164
0.821794
0.789511
0.730972
0.641004
0.56422
0.532821
0.525083
0.524965
0.525402
0.526626
0.531995
0.54003
0.540015
0.515648
0.476441
0.436483
0.394751
0.357913
0.333164
0.314231
0.304763
0.300812
0.300309
0.309819
0.322579
0.345195
0.371919
0.406849
0.446788
0.495752
0.552219
0.627451
0.715879
0.809486
0.884051
0.92691
0.95002
0.960244
0.964039
0.964845
0.962927
0.953698
0.934116
0.897704
0.848592
0.822357
0.811772
0.802534
0.786531
0.765857
0.749371
0.744135
0.746122
0.751071
0.755091
0.762327
0.782381
0.842602
0.921571
0.96505
0.985537
0.994353
0.997824
0.999037
0.999432
0.99955
0.999538
0.999397
0.999053
0.998277
0.996207
0.989639
0.969455
0.946327
0.937215
0.94039
0.958002
0.976532
0.989304
0.994813
0.995745
0.994354
0.985987
0.978395
0.973555
0.963499
0.948361
0.93547
0.928202
0.925837
0.925707
0.926279
0.926706
0.926486
0.924725
0.917109
0.903979
0.894746
0.889639
0.88767
0.887337
0.887575
0.88918
0.895588
0.913383
0.933615
0.951844
0.967002
0.978515
0.986475
0.99146
0.9943
0.995848
0.996788
0.997521
0.998185
0.998765
0.999208
0.999491
0.999624
0.999657
0.999645
0.999549
0.999144
0.997734
0.993131
0.978296
0.930554
0.780746
0.575739
0.402435
0.265046
0.167261
0.0964373
0.778984
0.792252
0.777368
0.757012
0.729516
0.669602
0.590289
0.524865
0.463989
0.405467
0.369265
0.348796
0.331332
0.313791
0.293935
0.280502
0.273363
0.270898
0.278576
0.292138
0.320875
0.361603
0.394926
0.413077
0.425329
0.433555
0.440779
0.450002
0.464262
0.490928
0.537773
0.568233
0.575275
0.573874
0.602823
0.755289
0.835901
0.843489
0.844588
0.847135
0.849499
0.849333
0.847816
0.84588
0.842638
0.836555
0.823783
0.801944
0.764891
0.700733
0.602596
0.533887
0.503808
0.485734
0.473907
0.462576
0.44745
0.433487
0.426283
0.41082
0.371423
0.322658
0.286559
0.266175
0.252157
0.241673
0.237101
0.235551
0.237551
0.245281
0.255321
0.272929
0.296861
0.328198
0.36333
0.403714
0.445695
0.485217
0.524191
0.5764
0.660882
0.768136
0.859719
0.910992
0.934333
0.942155
0.942419
0.92619
0.900219
0.863566
0.83704
0.826267
0.82028
0.81078
0.791428
0.76468
0.744116
0.738693
0.742071
0.749414
0.753005
0.756273
0.762499
0.778738
0.830848
0.909368
0.958709
0.982326
0.992941
0.997356
0.999034
0.999601
0.999784
0.999846
0.999851
0.999808
0.999646
0.999158
0.997575
0.991989
0.978379
0.96772
0.965633
0.970891
0.983818
0.992524
0.99605
0.996407
0.994637
0.986091
0.979605
0.975565
0.967694
0.957107
0.948078
0.942974
0.941291
0.941163
0.941216
0.940968
0.939198
0.931283
0.914917
0.90322
0.896696
0.894011
0.893468
0.893661
0.895231
0.902069
0.920667
0.939896
0.956496
0.970071
0.980438
0.987791
0.992604
0.995488
0.997078
0.997932
0.998448
0.998836
0.999168
0.999443
0.999644
0.999765
0.999818
0.999827
0.999816
0.999746
0.999456
0.998426
0.994903
0.982898
0.942058
0.803805
0.586842
0.401599
0.262711
0.157449
0.786257
0.799233
0.778739
0.760403
0.741412
0.6859
0.612456
0.545121
0.484671
0.428133
0.393637
0.374048
0.360988
0.352842
0.344685
0.340242
0.338912
0.346961
0.356471
0.373525
0.388756
0.403188
0.413453
0.42061
0.428399
0.435028
0.443105
0.454304
0.473019
0.506041
0.55266
0.572589
0.577906
0.582942
0.630668
0.784601
0.837333
0.84076
0.834361
0.824046
0.820448
0.819339
0.817265
0.816549
0.816276
0.815786
0.811126
0.797999
0.77346
0.737848
0.682371
0.59407
0.51744
0.483771
0.462788
0.443746
0.421584
0.39449
0.368022
0.345362
0.318388
0.283797
0.25155
0.231382
0.221187
0.215627
0.213237
0.212688
0.215179
0.222315
0.231291
0.245019
0.265183
0.294632
0.329315
0.368272
0.410873
0.45199
0.484176
0.510612
0.539902
0.580618
0.64091
0.733496
0.82321
0.880593
0.900303
0.897479
0.879728
0.856904
0.841636
0.831015
0.82128
0.808218
0.781912
0.744201
0.728055
0.729742
0.740414
0.749381
0.75504
0.758672
0.762624
0.772374
0.799941
0.859925
0.917009
0.95894
0.981873
0.99249
0.997102
0.998954
0.999633
0.999857
0.999928
0.999949
0.999947
0.999915
0.999787
0.999351
0.997839
0.992555
0.985141
0.982031
0.982928
0.989343
0.995144
0.997212
0.997286
0.99562
0.988222
0.982173
0.978863
0.974746
0.96927
0.964168
0.961039
0.959898
0.959522
0.958865
0.957128
0.951557
0.93655
0.922239
0.9131
0.908822
0.907668
0.907672
0.908449
0.912136
0.925066
0.943764
0.959585
0.972244
0.981814
0.988618
0.993149
0.995961
0.997585
0.998472
0.998963
0.999266
0.999485
0.999652
0.999776
0.999858
0.999901
0.999916
0.999916
0.999905
0.999841
0.999588
0.998659
0.995303
0.983221
0.94
0.791863
0.564278
0.382439
0.237909
0.794013
0.805385
0.779838
0.761845
0.748732
0.713097
0.646135
0.573072
0.508656
0.447976
0.412484
0.396001
0.386639
0.382415
0.380887
0.380735
0.386229
0.390009
0.398725
0.403817
0.40982
0.415823
0.421707
0.428282
0.435418
0.444152
0.456763
0.475572
0.508251
0.548466
0.572359
0.580907
0.584209
0.598053
0.673705
0.805614
0.838628
0.839958
0.829651
0.809717
0.790416
0.778697
0.77292
0.768901
0.765252
0.762512
0.760703
0.758887
0.753328
0.737596
0.70971
0.668348
0.602333
0.524761
0.476455
0.449573
0.426262
0.398963
0.369534
0.343669
0.319188
0.290082
0.260053
0.237885
0.22526
0.218235
0.214142
0.209208
0.21108
0.217758
0.22683
0.239716
0.257697
0.285409
0.320119
0.358217
0.399761
0.442522
0.477679
0.502566
0.523763
0.546568
0.573959
0.603508
0.639898
0.699336
0.771188
0.817985
0.835301
0.836112
0.827882
0.813395
0.794899
0.766693
0.732534
0.718867
0.719011
0.725986
0.740734
0.751029
0.757606
0.765
0.77462
0.78189
0.799903
0.849984
0.898825
0.937494
0.966195
0.984156
0.993234
0.997298
0.998997
0.999652
0.999883
0.999957
0.999977
0.99998
0.999973
0.999933
0.999788
0.999274
0.997244
0.992932
0.990703
0.990737
0.993494
0.997033
0.998214
0.998206
0.997059
0.991989
0.986972
0.984318
0.982046
0.979619
0.977877
0.977167
0.976788
0.976012
0.973817
0.966748
0.956331
0.947724
0.941489
0.93747
0.935355
0.9347
0.934689
0.935099
0.937752
0.947845
0.962724
0.974694
0.98362
0.989859
0.993954
0.996485
0.997967
0.998798
0.999257
0.999522
0.999688
0.999799
0.999874
0.999922
0.999949
0.999961
0.999963
0.999961
0.999945
0.999876
0.999601
0.998548
0.994559
0.979562
0.924419
0.743053
0.520888
0.335969
0.800201
0.811786
0.785079
0.766382
0.754682
0.731416
0.686201
0.623558
0.560748
0.503366
0.453012
0.427212
0.414993
0.409563
0.407491
0.407121
0.409936
0.411192
0.417105
0.422918
0.427512
0.434574
0.441133
0.453031
0.46692
0.489331
0.51283
0.538516
0.56172
0.577163
0.584274
0.586943
0.591042
0.615781
0.709836
0.821208
0.840076
0.840084
0.829477
0.808304
0.784381
0.765464
0.754524
0.747125
0.74048
0.735021
0.730194
0.725829
0.721233
0.716104
0.70688
0.688977
0.660346
0.618795
0.560403
0.503176
0.459338
0.426153
0.393428
0.363474
0.337219
0.312774
0.287828
0.265217
0.249348
0.238807
0.234155
0.232453
0.234739
0.240228
0.249676
0.266256
0.286075
0.311663
0.347843
0.385362
0.418956
0.455524
0.494575
0.519997
0.532042
0.545804
0.567298
0.592166
0.611507
0.628914
0.648164
0.672441
0.697619
0.718135
0.725337
0.723601
0.717605
0.711754
0.71133
0.713149
0.717236
0.727795
0.742727
0.752805
0.757664
0.764935
0.780138
0.803453
0.824057
0.854836
0.89692
0.932251
0.958208
0.97636
0.988156
0.994738
0.997854
0.99918
0.999709
0.999904
0.999969
0.999987
0.999991
0.999988
0.999973
0.999913
0.999681
0.998654
0.996187
0.994973
0.994963
0.996309
0.9983
0.998969
0.998967
0.9984
0.995827
0.99249
0.990207
0.988589
0.987636
0.987268
0.987103
0.986781
0.985826
0.982244
0.974204
0.968355
0.965094
0.963143
0.961496
0.960084
0.959316
0.959199
0.959458
0.961343
0.968988
0.979445
0.987095
0.992253
0.9955
0.997431
0.998535
0.999152
0.999498
0.999697
0.999817
0.99989
0.999935
0.999962
0.999977
0.999983
0.999985
0.999984
0.99998
0.999958
0.999866
0.999494
0.998019
0.992236
0.970015
0.886014
0.668266
0.44706
0.806045
0.819734
0.793508
0.772926
0.763093
0.745501
0.717131
0.66875
0.610831
0.557321
0.505073
0.465435
0.446907
0.439258
0.437342
0.439171
0.448611
0.454797
0.459254
0.469327
0.478503
0.493494
0.507971
0.52811
0.542802
0.557256
0.569436
0.577889
0.584972
0.588533
0.590157
0.592963
0.603775
0.647017
0.773307
0.832013
0.841934
0.841149
0.830998
0.810807
0.78665
0.766377
0.753886
0.745286
0.737753
0.731559
0.726244
0.721444
0.716813
0.711855
0.705618
0.695504
0.679375
0.65702
0.625918
0.589567
0.545727
0.503405
0.463266
0.425545
0.393711
0.366875
0.34288
0.32653
0.312547
0.299084
0.289849
0.287125
0.290366
0.299755
0.31594
0.337816
0.367526
0.402476
0.439769
0.478031
0.509875
0.53444
0.556094
0.575689
0.584527
0.584933
0.587031
0.605237
0.629214
0.641032
0.647608
0.655612
0.664373
0.672987
0.681597
0.688373
0.694826
0.702682
0.70999
0.715634
0.724237
0.737469
0.749281
0.754789
0.757711
0.761752
0.772666
0.804104
0.844895
0.881969
0.908447
0.933807
0.957015
0.974119
0.985392
0.99241
0.996456
0.998513
0.999424
0.999791
0.99993
0.999978
0.999992
0.999995
0.999994
0.999988
0.999956
0.999808
0.999057
0.997676
0.997148
0.997203
0.998037
0.999089
0.999451
0.999459
0.999238
0.998235
0.99621
0.994621
0.993606
0.993114
0.992931
0.99277
0.992402
0.991222
0.987364
0.983572
0.981834
0.981198
0.980292
0.978838
0.977489
0.97683
0.976771
0.977185
0.979535
0.98593
0.991384
0.994994
0.997188
0.998438
0.999124
0.999498
0.999707
0.999828
0.999901
0.999944
0.999969
0.999983
0.99999
0.999993
0.999994
0.999994
0.999993
0.999985
0.999949
0.999801
0.999189
0.996706
0.986831
0.948487
0.810391
0.564457
0.809948
0.828241
0.803156
0.778648
0.769049
0.762807
0.750417
0.729537
0.691027
0.641287
0.590737
0.543617
0.50695
0.484777
0.475898
0.473487
0.475658
0.489783
0.505694
0.519282
0.532498
0.547043
0.559748
0.571815
0.578997
0.584694
0.588923
0.591026
0.593058
0.594508
0.597624
0.606135
0.633816
0.721262
0.81233
0.83882
0.843051
0.842368
0.835423
0.820838
0.801487
0.782636
0.767623
0.756647
0.748258
0.741754
0.736895
0.732744
0.729065
0.725501
0.721024
0.715511
0.709857
0.700889
0.689692
0.670561
0.650359
0.621042
0.591011
0.560744
0.531061
0.49449
0.469241
0.444727
0.428326
0.413681
0.407921
0.410538
0.418687
0.432735
0.449884
0.470861
0.491341
0.516418
0.541561
0.557222
0.574944
0.595599
0.605804
0.608107
0.614747
0.625353
0.635553
0.65314
0.676596
0.692607
0.69766
0.697774
0.697012
0.695581
0.696037
0.699372
0.707461
0.719414
0.730888
0.739904
0.748854
0.756068
0.759631
0.760508
0.760602
0.761512
0.765081
0.780666
0.83579
0.8891
0.925896
0.948108
0.962103
0.974754
0.984931
0.991699
0.995712
0.997938
0.999096
0.999642
0.999868
0.999955
0.999986
0.999995
0.999997
0.999997
0.999994
0.99997
0.999832
0.999191
0.998523
0.998352
0.998453
0.999039
0.99955
0.999723
0.999729
0.999619
0.999075
0.997986
0.99721
0.996798
0.996638
0.996555
0.996402
0.995965
0.994389
0.992549
0.991737
0.991504
0.991277
0.990653
0.989302
0.988353
0.988057
0.988121
0.988816
0.991623
0.994993
0.997174
0.998458
0.999164
0.999539
0.999738
0.999848
0.999913
0.999951
0.999974
0.999986
0.999993
0.999996
0.999998
0.999998
0.999998
0.999997
0.999994
0.999978
0.999911
0.999625
0.998438
0.993597
0.974368
0.902097
0.68401
0.811498
0.836516
0.817432
0.788557
0.777438
0.771954
0.766306
0.758044
0.740204
0.710987
0.674307
0.638394
0.603183
0.570815
0.543876
0.531185
0.526493
0.525756
0.530718
0.544715
0.56004
0.570058
0.577558
0.585717
0.590745
0.59363
0.596688
0.598153
0.601193
0.605491
0.614984
0.639906
0.708744
0.794398
0.831127
0.841467
0.843121
0.84245
0.836946
0.82691
0.815363
0.805683
0.797051
0.78931
0.782999
0.77797
0.774785
0.772449
0.770723
0.769483
0.768082
0.766269
0.764251
0.760167
0.755927
0.748577
0.739446
0.727722
0.715297
0.695572
0.679359
0.659243
0.641032
0.622297
0.603245
0.590401
0.581639
0.572371
0.569845
0.571866
0.577381
0.587839
0.601173
0.614251
0.627993
0.639823
0.647506
0.64885
0.650767
0.655463
0.658516
0.663419
0.675797
0.695312
0.706632
0.715307
0.723336
0.728268
0.73155
0.73558
0.740835
0.745814
0.750552
0.755354
0.759129
0.7619
0.763779
0.765001
0.765571
0.765636
0.765285
0.764541
0.765028
0.770113
0.794299
0.868185
0.923891
0.955372
0.973127
0.981708
0.987163
0.992053
0.995619
0.997774
0.998933
0.999518
0.999801
0.999925
0.999974
0.999991
0.999997
0.999998
0.999998
0.999994
0.999963
0.999779
0.999303
0.999066
0.999042
0.999181
0.999575
0.999794
0.999857
0.999851
0.99975
0.999321
0.998833
0.998582
0.998496
0.998467
0.99842
0.99828
0.997715
0.996907
0.996555
0.996477
0.996421
0.996238
0.995558
0.994783
0.994461
0.994445
0.994669
0.995821
0.997552
0.998661
0.999288
0.99962
0.99979
0.99988
0.99993
0.99996
0.999978
0.999988
0.999994
0.999997
0.999999
0.999999
0.999999
0.999999
0.999999
0.999997
0.999989
0.999954
0.999805
0.999173
0.996552
0.985957
0.945042
0.790217
0.811627
0.841997
0.83428
0.804626
0.791463
0.787514
0.785946
0.783124
0.777091
0.764032
0.74056
0.711689
0.683879
0.655009
0.627016
0.603896
0.585487
0.574936
0.572168
0.572627
0.578875
0.586445
0.591519
0.597277
0.60131
0.604155
0.608361
0.611389
0.619088
0.632992
0.663433
0.722158
0.788356
0.823072
0.836835
0.841205
0.842229
0.840958
0.836022
0.827469
0.818683
0.812699
0.807637
0.803132
0.799572
0.796623
0.794471
0.792858
0.791569
0.790588
0.789642
0.78887
0.787733
0.78624
0.785086
0.782505
0.779618
0.776717
0.771052
0.766631
0.759725
0.749854
0.742596
0.736895
0.727769
0.719675
0.713372
0.710427
0.707974
0.70411
0.702352
0.701169
0.700769
0.699858
0.697254
0.695121
0.695081
0.697289
0.702797
0.708958
0.716608
0.729148
0.737891
0.743581
0.746696
0.747477
0.746369
0.746141
0.74694
0.749284
0.755125
0.760152