/*--------------------------------*- C++ -*----------------------------------*\
  =========                 |
  \\      /  F ield         | OpenFOAM: The Open Source CFD Toolbox
   \\    /   O peration     | Website:  https://openfoam.org
    \\  /    A nd           | Version:  9
     \\/     M anipulation  |
\*---------------------------------------------------------------------------*/
FoamFile
{
    format      ascii;
    class       volScalarField;
    location    "0.04";
    object      s_0;
}
// * * * * * * * * * * * * * * * * * * * * * * * * * * * * * * * * * * * * * //

dimensions      [0 0 0 0 0 0 0];

internalField   nonuniform List<scalar> 
12225
(
1
1
1
1
1
1
1
1
1
1
1
1
1
1
1
1
0.999974
0.991513
1
1
1
1
1
1
1
1
1
1
1
1
1
1
1
1
0.999997
0.99904
1
1
1
1
1
1
1
1
1
1
1
1
1
1
1
1
1
0.999941
1
1
1
1
1
1
1
1
1
1
1
1
1
1
1
1
1
0.999997
1
1
1
1
1
1
1
1
1
1
1
1
1
1
1
1
1
1
1
1
1
1
1
1
1
1
1
1
1
1
1
1
1
1
1
1
1
1
1
1
1
1
1
1
1
1
1
1
1
1
1
1
1
1
1
1
1
1
1
1
1
1
1
1
1
1
1
1
1
1
1
1
1
1
1
1
1
1
1
1
1
1
1
1
1
1
1
1
1
1
1
1
1
1
1
1
1
1
1
1
1
1
1
1
1
1
1
1
1
1
1
1
1
1
1
1
1
1
1
1
1
1
1
1
1
1
1
1
1
1
1
1
1
1
1
1
1
1
1
1
1
1
1
1
1
1
1
1
1
1
1
1
1
1
1
1
1
1
1
1
1
1
1
1
1
1
1
1
1
1
1
1
1
1
1
1
1
1
1
1
1
1
1
1
1
1
1
1
1
1
1
1
1
1
1
1
1
1
1
1
1
1
1
1
1
1
1
1
1
1
1
1
1
1
1
1
1
1
1
1
1
1
1
1
1
1
1
1
1
1
1
1
1
1
1
1
1
1
1
1
1
1
1
1
1
1
1
1
1
1
1
1
1
1
1
1
1
1
1
1
1
1
1
1
1
1
1
1
1
1
1
1
1
1
1
1
1
1
1
1
1
1
1
1
1
1
1
1
1
1
1
1
1
1
1
1
1
1
1
1
1
1
1
1
1
1
1
1
1
1
1
1
1
1
1
1
1
1
1
1
1
1
1
1
1
1
1
1
1
1
1
1
1
1
1
1
1
1
1
1
1
1
1
1
1
1
1
1
1
1
1
1
1
1
1
1
1
1
1
1
1
1
1
1
1
1
1
1
1
1
1
1
1
1
1
1
1
1
1
1
1
1
1
1
1
1
1
1
1
1
1
1
1
1
1
1
1
1
1
1
1
1
1
1
1
1
1
1
1
1
1
1
1
1
1
1
1
1
1
1
1
1
1
1
1
1
1
1
1
1
1
1
1
1
1
1
1
1
1
1
1
1
1
1
1
1
1
1
1
1
1
1
1
1
1
1
1
1
1
1
1
1
1
1
1
1
1
1
0.366411
0.396938
0.400447
0.412816
0.459118
0.500249
0.536221
0.563307
0.580074
0.590957
0.596532
0.597812
0.597165
0.595467
0.592352
0.588459
0.58266
0.576922
0.572098
0.567568
0.563485
0.560683
0.55961
0.559783
0.563114
0.576526
0.590073
0.497328
0.39918
0.398343
0.408367
0.409667
0.408495
0.404486
0.401845
0.406951
0.437253
0.493898
0.561933
0.562574
0.556929
0.546345
0.528489
0.505681
0.490991
0.464322
0.398483
0.379536
0.639763
0.878682
0.884572
0.886298
0.88768
0.888657
0.889142
0.890041
0.891445
0.892546
0.893167
0.893878
0.894957
0.89573
0.896192
0.897339
0.899274
0.900112
0.900451
0.90076
0.901496
0.902833
0.904377
0.905573
0.90633
0.906984
0.907961
0.909394
0.910543
0.911034
0.911433
0.912153
0.913158
0.914129
0.91483
0.915301
0.915927
0.916797
0.917474
0.918109
0.918867
0.919714
0.920616
0.921365
0.921942
0.922605
0.923205
0.923738
0.924178
0.924609
0.924832
0.925053
0.925196
0.92496
0.924797
0.924285
0.92358
0.922664
0.921466
0.920054
0.918345
0.916304
0.913916
0.911191
0.908371
0.905532
0.902741
0.900101
0.897707
0.895362
0.892959
0.890482
0.887909
0.885086
0.881703
0.877764
0.873516
0.869234
0.865534
0.862818
0.860843
0.859306
0.858031
0.856959
0.856109
0.855523
0.855191
0.854991
0.8547
0.854025
0.853108
0.85152
0.848074
0.839527
0.827262
0.813884
0.798045
0.775191
0.738798
0.68298
0.605544
0.510297
0.406954
0.307832
0.222867
0.15652
0.108082
0.0740508
0.0504653
0.0341421
0.0228697
0.0151468
0.00990913
0.00639188
0.00405917
0.00253534
0.00155619
0.000937927
0.000554592
0.000321508
0.000182593
0.000101555
5.52583e-05
2.94072e-05
1.52742e-05
7.74195e-06
3.81244e-06
1.8247e-06
8.41534e-07
3.72053e-07
1.62848e-07
3.91983e-08
0.341893
0.370222
0.34768
0.418405
0.547954
0.632453
0.670931
0.68875
0.691365
0.68931
0.684416
0.678634
0.672898
0.667535
0.662761
0.658209
0.654263
0.649986
0.644892
0.63829
0.629793
0.620789
0.610342
0.600845
0.589075
0.584695
0.587787
0.580078
0.5531
0.432914
0.392837
0.379744
0.358828
0.338572
0.335308
0.354131
0.413473
0.584977
0.683689
0.677246
0.656006
0.60934
0.546384
0.500184
0.476243
0.541445
0.731762
0.810637
0.852419
0.882243
0.883202
0.883089
0.881262
0.878936
0.875864
0.873367
0.871953
0.870647
0.870064
0.869947
0.870036
0.87088
0.872281
0.873196
0.873912
0.875102
0.875915
0.87649
0.879012
0.882594
0.885396
0.888372
0.893372
0.897766
0.900733
0.905414
0.911005
0.914322
0.916884
0.920246
0.923851
0.927297
0.930323
0.932219
0.933753
0.935328
0.935853
0.936028
0.936016
0.935831
0.93535
0.934464
0.933436
0.932605
0.931965
0.931746
0.932471
0.934366
0.936415
0.93912
0.942625
0.945511
0.949148
0.952535
0.955882
0.958955
0.961662
0.963972
0.965875
0.967402
0.968565
0.969283
0.969145
0.967771
0.964979
0.960723
0.954785
0.947777
0.94046
0.934077
0.928998
0.925285
0.923016
0.921644
0.919898
0.916079
0.906467
0.894665
0.885321
0.879763
0.877274
0.876434
0.876028
0.875289
0.873176
0.867721
0.863271
0.861149
0.860788
0.861203
0.863713
0.871646
0.883618
0.896989
0.907859
0.912921
0.913522
0.912496
0.90825
0.897525
0.869156
0.817173
0.772168
0.745215
0.729958
0.7081
0.660572
0.579514
0.477506
0.3738
0.282924
0.207929
0.148077
0.102244
0.0685049
0.0445852
0.028207
0.0173668
0.0104106
0.00608512
0.0034662
0.00192752
0.00104317
0.000551206
0.000281977
0.000140725
6.72196e-05
3.11545e-05
1.38357e-05
4.93699e-06
0.265072
0.294265
0.456655
0.634271
0.695677
0.719116
0.719339
0.715741
0.707238
0.693717
0.679739
0.665903
0.652777
0.641437
0.631959
0.625443
0.620116
0.617842
0.618128
0.618892
0.618773
0.617633
0.61434
0.60999
0.605061
0.600785
0.595881
0.59385
0.588851
0.562367
0.488086
0.405026
0.369291
0.345542
0.33082
0.353403
0.481854
0.735843
0.730453
0.702862
0.590627
0.554403
0.550926
0.575973
0.726787
0.808528
0.852951
0.869971
0.876538
0.878429
0.87244
0.862473
0.846381
0.824175
0.794974
0.773882
0.764012
0.752269
0.73956
0.73421
0.731078
0.729515
0.72867
0.728001
0.726901
0.725644
0.725462
0.727329
0.731687
0.735463
0.738194
0.742119
0.748234
0.755003
0.76205
0.770487
0.780005
0.790529
0.800347
0.809544
0.818674
0.827039
0.835
0.841954
0.84477
0.84552
0.845497
0.844251
0.840858
0.836671
0.832652
0.828663
0.825191
0.822842
0.821687
0.821224
0.822082
0.824385
0.827525
0.832177
0.839205
0.847762
0.858158
0.870488
0.884657
0.900251
0.915997
0.930929
0.944064
0.954601
0.963886
0.971585
0.97752
0.9817
0.984397
0.985858
0.986337
0.985518
0.981363
0.971652
0.95896
0.946514
0.938335
0.934231
0.932525
0.931742
0.930807
0.928631
0.921022
0.903585
0.891596
0.886139
0.884612
0.884563
0.884879
0.884877
0.884302
0.881319
0.872311
0.865664
0.863082
0.862757
0.86316
0.865126
0.872209
0.883616
0.894734
0.907876
0.92382
0.939088
0.949341
0.953609
0.954375
0.954293
0.953701
0.951551
0.943424
0.930723
0.920071
0.904597
0.870968
0.777243
0.608157
0.450544
0.322005
0.223997
0.152205
0.101033
0.0654272
0.0413508
0.0254656
0.015303
0.00893918
0.00509213
0.00280392
0.00150387
0.000771568
0.000383984
0.000181785
7.62013e-05
0.248421
0.589575
0.702972
0.733407
0.738976
0.735626
0.726328
0.706291
0.67117
0.632442
0.603181
0.577737
0.555823
0.536787
0.521778
0.51319
0.50484
0.503528
0.505638
0.511501
0.523161
0.541112
0.558387
0.576358
0.587332
0.592663
0.593216
0.593043
0.592236
0.588325
0.572908
0.52813
0.440148
0.389185
0.37541
0.414438
0.676538
0.788158
0.715223
0.656515
0.638272
0.643596
0.72888
0.80189
0.846974
0.86452
0.871198
0.872599
0.871141
0.858735
0.832537
0.790172
0.736205
0.706143
0.690305
0.676947
0.669457
0.665933
0.664517
0.664288
0.664946
0.666198
0.667014
0.670159
0.674365
0.675912
0.676858
0.679096
0.682366
0.685835
0.688276
0.689717
0.691108
0.693113
0.695557
0.69795
0.700001
0.702693
0.705956
0.709561
0.713338
0.717114
0.721292
0.726093
0.73099
0.734903
0.739346
0.74479
0.749615
0.754517
0.76026
0.765991
0.771905
0.777763
0.782541
0.785912
0.787327
0.787737
0.786172
0.783562
0.780679
0.778246
0.776734
0.77648
0.777746
0.78082
0.787803
0.799644
0.81732
0.841127
0.869084
0.899904
0.929493
0.952721
0.969237
0.980596
0.987387
0.991081
0.992686
0.992964
0.991873
0.985449
0.967828
0.951755
0.942678
0.938743
0.937309
0.936501
0.935017
0.930813
0.916334
0.899507
0.890341
0.887076
0.886777
0.888082
0.890395
0.890694
0.889901
0.885193
0.873907
0.865381
0.860019
0.857825
0.85757
0.858208
0.861951
0.875256
0.89374
0.911375
0.927545
0.941716
0.954619
0.966473
0.975943
0.981904
0.984433
0.984903
0.984746
0.983751
0.980538
0.971843
0.950587
0.895059
0.743652
0.562606
0.408093
0.286106
0.194912
0.129593
0.0841144
0.0533092
0.0328685
0.0197317
0.0114537
0.00644846
0.00348116
0.00180979
0.000902598
0.000401621
0.66719
0.728695
0.748294
0.749545
0.74523
0.73072
0.693182
0.631567
0.591273
0.561772
0.539367
0.514203
0.496165
0.478245
0.461546
0.451752
0.442659
0.441978
0.443698
0.448401
0.456866
0.469117
0.482381
0.497597
0.520302
0.546309
0.569762
0.581834
0.58813
0.588105
0.585928
0.575667
0.547816
0.490856
0.45202
0.48833
0.748603
0.799961
0.776197
0.764672
0.77091
0.807638
0.843274
0.860339
0.868065
0.87004
0.869889
0.863565
0.84388
0.802566
0.74477
0.686173
0.662711
0.651545
0.646667
0.645108
0.645497
0.65239
0.657394
0.659603
0.664125
0.671331
0.677818
0.683804
0.690972
0.699821
0.708707
0.715222
0.720387
0.724938
0.726718
0.727387
0.727406
0.72424
0.720639
0.718668
0.714728
0.712736
0.711664
0.711365
0.711969
0.713425
0.715525
0.718786
0.723919
0.729495
0.736476
0.746365
0.758286
0.773311
0.794495
0.819521
0.843378
0.863197
0.877456
0.885534
0.88898
0.889716
0.883515
0.872877
0.857134
0.838216
0.817949
0.798651
0.783655
0.774018
0.76717
0.763747
0.763966
0.76806
0.775537
0.787577
0.809067
0.843439
0.886732
0.928617
0.958145
0.976733
0.987548
0.992922
0.994902
0.995106
0.993804
0.985872
0.966069
0.95184
0.944622
0.941589
0.940092
0.937943
0.932645
0.917218
0.901744
0.893357
0.890557
0.890421
0.892051
0.895502
0.89643
0.896105
0.893359
0.881935
0.86902
0.86168
0.858263
0.85731
0.857455
0.859272
0.867729
0.88845
0.90773
0.925031
0.940756
0.954488
0.966144
0.975737
0.983355
0.988906
0.992123
0.993303
0.993389
0.992966
0.990976
0.984557
0.966567
0.916819
0.773145
0.588595
0.430262
0.303731
0.207835
0.138391
0.0896316
0.0564417
0.0343531
0.0201971
0.0113903
0.00614869
0.00319703
0.00148753
0.749872
0.756407
0.757364
0.753199
0.738973
0.694784
0.634054
0.590005
0.560878
0.534637
0.508795
0.475435
0.447418
0.415286
0.392084
0.37644
0.364015
0.364267
0.367939
0.376865
0.394338
0.418822
0.442929
0.461736
0.475381
0.492448
0.514297
0.540925
0.568482
0.581335
0.584652
0.582689
0.573697
0.549216
0.501998
0.533724
0.774137
0.820798
0.81817
0.819649
0.836459
0.855659
0.864685
0.868069
0.868912
0.86809
0.860391
0.83828
0.79341
0.728452
0.661068
0.636752
0.628698
0.626917
0.627416
0.63402
0.646883
0.660068
0.672073
0.68485
0.703781
0.727569
0.746293
0.758396
0.776956
0.800951
0.811084
0.817318
0.826562
0.836985
0.844271
0.848437
0.85033
0.851059
0.848878
0.842537
0.830361
0.818537
0.805539
0.795866
0.788974
0.785996
0.785239
0.786428
0.795105
0.809734
0.827892
0.852219
0.880044
0.907844
0.931048
0.94532
0.950988
0.952014
0.952123
0.952798
0.953731
0.956298
0.959563
0.963056
0.965879
0.965023
0.95903
0.946649
0.925928
0.897787
0.866486
0.834767
0.807252
0.788719
0.779782
0.776697
0.778142
0.786887
0.80343
0.8315
0.876139
0.924011
0.958832
0.97924
0.990112
0.994738
0.995814
0.995376
0.991214
0.975031
0.95913
0.950736
0.946896
0.94413
0.93896
0.925999
0.911412
0.901814
0.897572
0.896679
0.897065
0.899536
0.901577
0.901902
0.901489
0.898845
0.888234
0.873669
0.864697
0.860737
0.859818
0.860061
0.862165
0.871574
0.895297
0.917003
0.934406
0.948309
0.959751
0.969577
0.978068
0.985022
0.990289
0.993803
0.995654
0.996226
0.996213
0.995727
0.99364
0.986886
0.967249
0.910216
0.753719
0.574319
0.421501
0.298656
0.204328
0.135005
0.0859092
0.0525927
0.0308748
0.0172828
0.00932954
0.00452461
0.754746
0.761881
0.761168
0.75346
0.727265
0.667735
0.610307
0.570048
0.538621
0.497481
0.445461
0.39819
0.360093
0.331785
0.310882
0.297978
0.285031
0.282249
0.284601
0.291976
0.306975
0.337781
0.377568
0.415933
0.446636
0.465694
0.479443
0.500347
0.521286
0.559349
0.578333
0.58163
0.578634
0.565791
0.530286
0.579718
0.798403
0.833694
0.836941
0.844116
0.857224
0.86346
0.86609
0.866884
0.864888
0.855021
0.834536
0.796923
0.74238
0.669107
0.623118
0.61024
0.607324
0.607466
0.612434
0.626272
0.644907
0.662589
0.680231
0.70285
0.733166
0.763256
0.781342
0.792882
0.814631
0.83181
0.837407
0.840561
0.846193
0.85659
0.868724
0.879996
0.886217
0.893408
0.905137
0.912038
0.916022
0.920104
0.921318
0.917378
0.913186
0.909519
0.908376
0.908488
0.914706
0.927754
0.939586
0.950685
0.960346
0.964412
0.965143
0.963946
0.958415
0.948171
0.937261
0.930801
0.928203
0.932712
0.942841
0.956532
0.96976
0.979479
0.985365
0.98835
0.989191
0.987244
0.981578
0.971123
0.954166
0.929898
0.900837
0.870317
0.839383
0.814862
0.806119
0.808664
0.826304
0.856764
0.898896
0.941937
0.97115
0.98691
0.993921
0.995782
0.995494
0.991548
0.976423
0.964559
0.959371
0.952882
0.941568
0.927589
0.915007
0.906806
0.903265
0.902594
0.902954
0.904836
0.906124
0.906322
0.906126
0.904792
0.898701
0.884684
0.874254
0.868499
0.866317
0.866029
0.866742
0.871055
0.887899
0.913636
0.933944
0.949359
0.961184
0.970407
0.977754
0.983801
0.988805
0.992719
0.995452
0.997049
0.997708
0.997809
0.997679
0.996908
0.994105
0.985318
0.959483
0.880213
0.703647
0.53307
0.387966
0.271359
0.182015
0.116767
0.0714877
0.0415103
0.0232064
0.0117159
0.758947
0.770106
0.767594
0.754202
0.718409
0.654803
0.59257
0.548969
0.501745
0.442092
0.392518
0.354399
0.324589
0.301873
0.283168
0.269559
0.257987
0.254283
0.255371
0.25962
0.269095
0.287354
0.325817
0.372719
0.415116
0.443766
0.462955
0.481648
0.496965
0.52283
0.560668
0.577345
0.577738
0.570413
0.541242
0.619804
0.813898
0.840857
0.845353
0.85219
0.860197
0.863025
0.863894
0.861586
0.854713
0.841249
0.818623
0.77841
0.711235
0.62648
0.597599
0.591884
0.591294
0.59245
0.597456
0.609933
0.631048
0.653886
0.673178
0.692501
0.718328
0.743467
0.753016
0.757208
0.761951
0.768042
0.768239
0.763442
0.76087
0.766698
0.788906
0.810251
0.823619
0.847427
0.875947
0.899692
0.914935
0.931245
0.942416
0.948161
0.953126
0.956059
0.957213
0.957772
0.959151
0.96263
0.966527
0.968467
0.968824
0.967469
0.960271
0.940007
0.900965
0.859711
0.831344
0.816503
0.81087
0.814174
0.830017
0.859323
0.901928
0.942894
0.970536
0.985773
0.99249
0.995285
0.996366
0.996431
0.995152
0.991776
0.987032
0.980822
0.970239
0.948211
0.910648
0.871533
0.849652
0.849535
0.867877
0.900906
0.936927
0.967718
0.985597
0.993529
0.995529
0.995033
0.989205
0.97818
0.971651
0.962408
0.947998
0.932028
0.918878
0.910933
0.907856
0.90745
0.908058
0.909833
0.910474
0.910464
0.910053
0.908162
0.90059
0.888889
0.881146
0.877322
0.8761
0.876
0.876374
0.878748
0.889427
0.91552
0.938595
0.955838
0.967871
0.976067
0.981872
0.986345
0.990036
0.993087
0.995468
0.997158
0.998193
0.998668
0.998775
0.998732
0.998403
0.99709
0.992783
0.979572
0.940231
0.818094
0.632984
0.467944
0.330486
0.222455
0.14266
0.0866124
0.0505489
0.0266585
0.765875
0.779119
0.773396
0.754413
0.715307
0.650246
0.584392
0.532192
0.475916
0.416887
0.371371
0.337904
0.311776
0.290884
0.27174
0.257116
0.247172
0.243449
0.244146
0.248248
0.259249
0.285767
0.328823
0.375795
0.414517
0.439327
0.453543
0.463599
0.473078
0.492088
0.533879
0.566691
0.575969
0.569683
0.558434
0.670324
0.824731
0.843808
0.847366
0.85309
0.859499
0.861058
0.860858
0.857995
0.851348
0.839615
0.819004
0.780692
0.715856
0.623108
0.574631
0.565288
0.563147
0.562702
0.564285
0.572144
0.592342
0.622174
0.637867
0.645008
0.648507
0.645579
0.618682
0.587018
0.554456
0.529782
0.515547
0.505691
0.501953
0.508401
0.527255
0.556691
0.589126
0.639532
0.689852
0.749672
0.809129
0.861594
0.905192
0.934458
0.950867
0.960247
0.964597
0.966762
0.968031
0.969009
0.969225
0.968184
0.963015
0.947346
0.912263
0.857484
0.819072
0.802362
0.786295
0.769642
0.760079
0.756732
0.759227
0.766643
0.783599
0.825464
0.892354
0.947764
0.977216
0.990577
0.995966
0.997924
0.998614
0.998774
0.998489
0.997656
0.99661
0.994703
0.990579
0.97995
0.950708
0.914687
0.896391
0.897624
0.917535
0.945509
0.97046
0.986834
0.993946
0.995462
0.994522
0.987067
0.97828
0.973006
0.962486
0.945384
0.929683
0.919665
0.915385
0.914582
0.914934
0.916297
0.916761
0.916619
0.915563
0.911233
0.900221
0.891148
0.886033
0.883958
0.883522
0.883612
0.884364
0.887477
0.898947
0.923328
0.945259
0.962603
0.975103
0.983322
0.988309
0.991256
0.993202
0.994798
0.996253
0.997497
0.99842
0.998999
0.999274
0.999342
0.999324
0.999158
0.998465
0.996119
0.988717
0.965961
0.894736
0.7158
0.531356
0.374553
0.250812
0.158622
0.0963232
0.0532415
0.77238
0.786606
0.776303
0.755911
0.719029
0.650763
0.581447
0.525049
0.465322
0.406443
0.364448
0.333996
0.309862
0.289445
0.269741
0.254924
0.245452
0.243416
0.248658
0.256349
0.271304
0.303171
0.349337
0.392426
0.420215
0.434571
0.442731
0.450707
0.462965
0.486914
0.532617
0.566503
0.575038
0.570439
0.57368
0.709463
0.831519
0.844405
0.847119
0.852069
0.856674
0.857284
0.856571
0.854154
0.849016
0.839888
0.823319
0.792563
0.736248
0.647944
0.567276
0.53325
0.524188
0.523704
0.523952
0.524835
0.529415
0.537234
0.537697
0.514576
0.475806
0.436069
0.394766
0.35793
0.333188
0.314386
0.304943
0.301055
0.300583
0.310104
0.322919
0.345615
0.372411
0.407451
0.44757
0.49681
0.553678
0.629614
0.718316
0.811797
0.885144
0.927708
0.95045
0.960486
0.96422
0.965017
0.963194
0.954225
0.935033
0.899065
0.849921
0.822803
0.811864
0.802466
0.786505
0.766047
0.749796
0.744575
0.746497
0.751295
0.755389
0.763092
0.784823
0.848416
0.925799
0.96711
0.986472
0.994742
0.997968
0.999083
0.999445
0.999549
0.999526
0.999368
0.999002
0.998174
0.995949
0.988844
0.967688
0.944999
0.936726
0.940596
0.95894
0.97726
0.989712
0.994946
0.99576
0.994225
0.985554
0.978148
0.973274
0.963026
0.947875
0.935148
0.928072
0.925826
0.925726
0.926318
0.926719
0.926476
0.92462
0.916698
0.903616
0.894519
0.889537
0.887646
0.887344
0.887603
0.88929
0.895975
0.914075
0.934231
0.95237
0.967416
0.978814
0.986672
0.991578
0.994366
0.995886
0.996814
0.997543
0.998204
0.99878
0.999219
0.999497
0.999627
0.999657
0.999645
0.999545
0.999127
0.997677
0.992945
0.977696
0.928597
0.775826
0.571244
0.398784
0.262318
0.165335
0.0952221
0.778547
0.791868
0.777266
0.756832
0.728849
0.668625
0.5895
0.524419
0.463643
0.405155
0.368887
0.348302
0.330798
0.313291
0.293491
0.28016
0.273162
0.270828
0.278731
0.292551
0.32158
0.362424
0.395477
0.413308
0.42534
0.433445
0.440648
0.449859
0.464144
0.490873
0.537696
0.568219
0.575345
0.573968
0.602159
0.752975
0.835574
0.843299
0.844138
0.846302
0.848676
0.848555
0.847054
0.845234
0.842265
0.836646
0.82455
0.803418
0.767813
0.706118
0.609543
0.536098
0.504537
0.485747
0.473444
0.461943
0.446573
0.431982
0.424472
0.409949
0.371803
0.323276
0.286739
0.266118
0.252204
0.241719
0.23714
0.235586
0.237575
0.245303
0.25533
0.272942
0.296899
0.328253
0.363416
0.40388
0.445923
0.485531
0.524842
0.577754
0.663772
0.771018
0.862017
0.91213
0.935047
0.942637
0.942832
0.926711
0.900782
0.864052
0.837176
0.826219
0.820207
0.810718
0.791393
0.764954
0.744543
0.739086
0.742358
0.749513
0.753021
0.756325
0.762737
0.780006
0.835406
0.913527
0.96093
0.983395
0.993413
0.997546
0.999102
0.999622
0.99979
0.999847
0.999849
0.999799
0.999624
0.999097
0.997387
0.991336
0.977435
0.967165
0.96548
0.971356
0.984309
0.992796
0.996129
0.996411
0.994479
0.985702
0.979405
0.975347
0.967375
0.956791
0.947874
0.9429
0.941295
0.941184
0.941232
0.940961
0.939098
0.930827
0.914488
0.902954
0.896575
0.893985
0.893483
0.893696
0.89535
0.902491
0.921345
0.940465
0.956968
0.97044
0.980707
0.987974
0.992719
0.995555
0.997115
0.997953
0.998462
0.998847
0.999177
0.99945
0.999649
0.999768
0.999819
0.999827
0.999816
0.999743
0.999444
0.998384
0.994757
0.982402
0.940367
0.798851
0.582074
0.397804
0.259891
0.155579
0.785757
0.798825
0.778705
0.760335
0.741033
0.685106
0.611578
0.544583
0.484367
0.427909
0.393327
0.373653
0.360515
0.352337
0.344209
0.339822
0.338539
0.346777
0.356513
0.373746
0.389054
0.403409
0.413554
0.420639
0.428372
0.434974
0.443092
0.454379
0.473284
0.506559
0.553089
0.572871
0.57814
0.58311
0.629292
0.782902
0.837189
0.840775
0.834169
0.822835
0.818261
0.816942
0.81486
0.814173
0.813978
0.813846
0.810099
0.798135
0.774528
0.73987
0.686418
0.600156
0.520109
0.484548
0.463182
0.444041
0.421914
0.394722
0.367931
0.345179
0.318617
0.284344
0.251983
0.231546
0.221237
0.215647
0.213234
0.212672
0.215113
0.222221
0.231162
0.244843
0.264996
0.294458
0.329119
0.368124
0.410826
0.45196
0.484102
0.510672
0.540317
0.581714
0.643014
0.736757
0.82606
0.882202
0.901207
0.897899
0.879866
0.856865
0.841554
0.830998
0.821399
0.808568
0.782542
0.745121
0.728735
0.730255
0.740678
0.749467
0.754933
0.758382
0.762494
0.772602
0.801343
0.862551
0.91992
0.960963
0.982884
0.992961
0.997303
0.999032
0.99966
0.999866
0.999931
0.999949
0.999946
0.99991
0.999771
0.9993
0.997669
0.992086
0.984754
0.981886
0.983004
0.989694
0.995314
0.997255
0.997287
0.995479
0.987893
0.982007
0.978741
0.974598
0.969119
0.964066
0.961005
0.959904
0.959528
0.95885
0.95705
0.951253
0.936049
0.921913
0.912947
0.908797
0.907707
0.907725
0.908548
0.912389
0.925672
0.944314
0.960031
0.972587
0.982064
0.988789
0.993258
0.996027
0.997622
0.998493
0.998975
0.999274
0.99949
0.999657
0.999779
0.99986
0.999902
0.999916
0.999917
0.999904
0.999839
0.999578
0.998619
0.995162
0.982711
0.938181
0.786612
0.559436
0.378629
0.235254
0.793539
0.805049
0.779765
0.761788
0.748609
0.712511
0.645314
0.572432
0.508289
0.447683
0.412158
0.395663
0.38625
0.382013
0.380494
0.380359
0.385945
0.389829
0.398664
0.403887
0.409903
0.415921
0.421784
0.428377
0.435522
0.444437
0.457313
0.476574
0.509853
0.549725
0.572928
0.581244
0.58442
0.597778
0.67195
0.804682
0.838633
0.840117
0.830068
0.809982
0.789937
0.777479
0.771391
0.76725
0.763526
0.760611
0.758555
0.756881
0.752074
0.737847
0.710767
0.670811
0.606777
0.528596
0.477868
0.450222
0.426797
0.399491
0.369857
0.343816
0.319377
0.290503
0.260485
0.238141
0.225373
0.218276
0.214147
0.209167
0.210981
0.217615
0.226637
0.239443
0.257369
0.285091
0.319764
0.357865
0.399542
0.442397
0.477473
0.502351
0.523696
0.546691
0.57439
0.604182
0.641387
0.702354
0.774529
0.820565
0.836994
0.837235
0.828527
0.814298
0.796175
0.768198
0.733701
0.719238
0.719215
0.726337
0.740967
0.751105
0.757719
0.765117
0.774167
0.781006
0.800323
0.85164
0.900468
0.939115
0.967572
0.984985
0.993631
0.997475
0.999069
0.999679
0.999892
0.999959
0.999978
0.99998
0.999971
0.999928
0.999772
0.999218
0.997029
0.992718
0.990618
0.990737
0.993687
0.997133
0.998239
0.998206
0.996972
0.991755
0.986844
0.984246
0.981986
0.979575
0.977867
0.977178
0.976793
0.975992
0.97371
0.966432
0.956054
0.947539
0.941393
0.937443
0.93538
0.934755
0.934751
0.935187
0.937959
0.948327
0.963151
0.975021
0.983854
0.990016
0.994053
0.996545
0.998001
0.998817
0.999268
0.999529
0.999692
0.999802
0.999876
0.999924
0.99995
0.999961
0.999963
0.999961
0.999945
0.999873
0.999589
0.998503
0.994387
0.978918
0.922073
0.737387
0.516085
0.332455
0.799787
0.811455
0.784872
0.766245
0.754567
0.731209
0.685638
0.622948
0.560314
0.503031
0.452844
0.427015
0.414732
0.409292
0.407232
0.406877
0.409803
0.411118
0.417032
0.422997
0.427651
0.434812
0.441453
0.453638
0.467963
0.490886
0.514684
0.540303
0.5629
0.577857
0.584683
0.587222
0.591193
0.615405
0.708489
0.820841
0.840197
0.840285
0.829987
0.808968
0.784852
0.765527
0.754279
0.746723
0.739987
0.734461
0.729582
0.725182
0.720625
0.715412
0.706833
0.689514
0.661639
0.620888
0.563414
0.50563
0.460841
0.427194
0.394251
0.364053
0.337598
0.313102
0.288156
0.265466
0.249484
0.238843
0.23412
0.232285
0.234515
0.239881
0.249213
0.265636
0.285229
0.310742
0.346873
0.384243
0.417926
0.454825
0.493967
0.519232
0.531405
0.5456
0.567473
0.592414
0.611678
0.629218
0.648811
0.673815
0.699595
0.720413
0.72748
0.725501
0.718921
0.712386
0.711468
0.713251
0.71731
0.727992
0.742898
0.752916
0.757817
0.765346
0.780791
0.803709
0.823143
0.855205
0.898102
0.933403
0.959183
0.977142
0.988699
0.995032
0.997986
0.999236
0.99973
0.999912
0.999971
0.999988
0.999991
0.999988
0.999971
0.999906
0.999656
0.998545
0.996076
0.994934
0.994962
0.996411
0.998356
0.998984
0.998969
0.998362
0.995698
0.9924
0.990152
0.988562
0.987633
0.98728
0.987113
0.986781
0.985787
0.982046
0.974002
0.968253
0.965064
0.963141
0.961503
0.960104
0.959357
0.959252
0.959526
0.961503
0.969349
0.979734
0.987295
0.992381
0.995578
0.997476
0.99856
0.999166
0.999506
0.999702
0.999819
0.999892
0.999936
0.999963
0.999977
0.999983
0.999985
0.999984
0.99998
0.999957
0.999862
0.999478
0.997955
0.991983
0.969053
0.88239
0.662506
0.442706
0.805671
0.819417
0.793309
0.772839
0.763029
0.745339
0.716774
0.668199
0.610329
0.557011
0.504979
0.465333
0.446715
0.438998
0.437049
0.43879
0.448238
0.454672
0.459222
0.469398
0.478746
0.493939
0.508672
0.529063
0.543889
0.558228
0.57042
0.578682
0.585502
0.58891
0.590462
0.593253
0.603978
0.646855
0.772969
0.831939
0.842057
0.841416
0.831646
0.811732
0.787477
0.766858
0.754067
0.745368
0.737783
0.73155
0.726212
0.721394
0.716756
0.711791
0.705575
0.695695
0.679892
0.657806
0.627112
0.590976
0.547393
0.504955
0.464623
0.42669
0.394565
0.367398
0.343285
0.326972
0.312717
0.29896
0.289571
0.28668
0.289883
0.299183
0.315121
0.336874
0.366497
0.401282
0.438537
0.47681
0.5085
0.533092
0.555115
0.574848
0.583482
0.583877
0.586303
0.605373
0.629023
0.640571
0.647331
0.655493
0.664394
0.673135
0.681805
0.688566
0.694996
0.702755
0.709872
0.715371
0.723987
0.737342
0.749242
0.754779
0.757785
0.762034
0.773919
0.806001
0.84633
0.882121
0.908358
0.934502
0.9578
0.974744
0.98584
0.99271
0.996636
0.998601
0.999462
0.999806
0.999936
0.99998
0.999993
0.999995
0.999994
0.999987
0.999953
0.999792
0.998989
0.997627
0.997135
0.99721
0.998093
0.999119
0.999459
0.999461
0.999225
0.998174
0.996152
0.994585
0.993592
0.993116
0.992938
0.992774
0.992395
0.991168
0.987238
0.983515
0.981833
0.98121
0.98029
0.97883
0.977496
0.976859
0.976811
0.97725
0.9797
0.986147
0.991528
0.995085
0.997241
0.998467
0.99914
0.999507
0.999712
0.999831
0.999902
0.999945
0.99997
0.999983
0.99999
0.999993
0.999994
0.999994
0.999992
0.999984
0.999948
0.999794
0.999162
0.996596
0.986397
0.946822
0.805011
0.559402
0.809672
0.828001
0.803041
0.778593
0.768949
0.762551
0.750065
0.729119
0.690716
0.641208
0.590814
0.543786
0.50722
0.484833
0.47584
0.473369
0.47536
0.489242
0.50524
0.519003
0.53234
0.546974
0.55979
0.571984
0.579327
0.585018
0.589277
0.59136
0.593364
0.594848
0.597974
0.606526
0.63431
0.721966
0.812387
0.838836
0.843102
0.842507
0.83586
0.82174
0.802824
0.784195
0.769118
0.757805
0.749218
0.742595
0.73769
0.733513
0.729826
0.726273
0.721812
0.716294
0.710729
0.701851
0.690745
0.671699
0.651553
0.622176
0.592165
0.56185
0.531893
0.495038
0.469691
0.444852
0.42824
0.413426
0.40764
0.410242
0.418315
0.43204
0.448958
0.469668
0.490052
0.515205
0.540141
0.555829
0.573953
0.594698
0.604734
0.607155
0.614168
0.624764
0.635013
0.652913
0.676523
0.692255
0.696907
0.696952
0.696092
0.694605
0.695059
0.698594
0.70679
0.718733
0.730115
0.739101
0.748216
0.755636
0.759329
0.760258
0.760437
0.761542
0.765432
0.783225
0.839866
0.891368
0.927083
0.94821
0.962245
0.975171
0.985312
0.991962
0.995872
0.998031
0.999146
0.999664
0.999877
0.999958
0.999987
0.999996
0.999998
0.999997
0.999993
0.999967
0.999818
0.999149
0.998503
0.99835
0.998465
0.99907
0.999565
0.999727
0.99973
0.999612
0.999042
0.997958
0.997196
0.996796
0.996642
0.99656
0.996402
0.99595
0.994335
0.992527
0.991743
0.991518
0.991286
0.990641
0.989288
0.988359
0.988078
0.988151
0.98888
0.991751
0.995082
0.997229
0.998489
0.99918
0.999547
0.999743
0.999851
0.999914
0.999952
0.999974
0.999987
0.999993
0.999996
0.999998
0.999998
0.999998
0.999997
0.999994
0.999977
0.999908
0.999612
0.998385
0.993381
0.973523
0.898969
0.678054
0.811265
0.836373
0.81733
0.788434
0.777247
0.771689
0.765916
0.757685
0.739985
0.710999
0.674491
0.638722
0.60373
0.571584
0.544595
0.531592
0.526769
0.525952
0.530593
0.544297
0.559723
0.56996
0.577485
0.585678
0.590868
0.593806
0.596968
0.598484
0.601564
0.605962
0.615631
0.640846
0.7103
0.794885
0.831145
0.841426
0.843131
0.842519
0.837127
0.827232
0.815899
0.806455
0.797981
0.790471
0.784267
0.779263
0.776046
0.773663
0.771879
0.770574
0.769117
0.767209
0.765014
0.760915
0.756652
0.749293
0.740145
0.728478
0.715905
0.696107
0.679822
0.659538
0.641114
0.622006
0.602727
0.589765
0.58057
0.570954
0.568318
0.570313
0.57589
0.586445
0.599784
0.612935
0.626803
0.638542
0.646082
0.647486
0.649551
0.65425
0.657295
0.662331
0.675128
0.694747
0.706095
0.715009
0.723052
0.727865
0.731126
0.735243
0.740427
0.745324
0.750073
0.754992
0.758851
0.761664
0.763583
0.764847
0.765423
0.765478
0.765063
0.764363
0.765017
0.770672
0.798333
0.873592
0.926484
0.956659
0.973595
0.981719
0.987266
0.99223
0.995758
0.997859
0.998979
0.999542
0.999813
0.99993
0.999976
0.999992
0.999997
0.999998
0.999998
0.999993
0.999959
0.999761
0.999285
0.999061
0.999043
0.999196
0.99959
0.9998
0.999859
0.999851
0.999744
0.999303
0.998823
0.998581
0.998499
0.998471
0.998423
0.998277
0.997695
0.996899
0.99656
0.996486
0.996429
0.996238
0.995543
0.99478
0.994472
0.99446
0.994697
0.995885
0.997599
0.998689
0.999303
0.999627
0.999794
0.999882
0.999932
0.999961
0.999978
0.999989
0.999994
0.999997
0.999999
0.999999
0.999999
0.999999
0.999999
0.999997
0.999989
0.999953
0.999798
0.999144
0.996434
0.985486
0.943253
0.784723
0.811415
0.841867
0.834209
0.804516
0.79115
0.787135
0.785591
0.782842
0.776924
0.764119
0.740918
0.712226
0.684647
0.656086
0.628258
0.605189
0.586855
0.575832
0.572841
0.573106
0.579022
0.58662
0.591745
0.597502
0.601643
0.604539
0.608879
0.611998
0.619882
0.634151
0.665546
0.724208
0.789055
0.823145
0.836684
0.841084
0.842116
0.840814
0.835982
0.827552
0.818789
0.812854
0.807852
0.803407
0.799891
0.796967
0.794814
0.793188
0.791881
0.790877
0.789912
0.789122
0.787957
0.786474
0.785308
0.782698
0.779847
0.776908
0.77123
0.766824
0.759717
0.749822
0.742648
0.736722
0.727292
0.719045
0.712626
0.709494
0.706695
0.702565
0.70066
0.69935
0.698913
0.697967
0.69533
0.693429
0.693504
0.695963
0.701516
0.707772
0.715725
0.728485
0.737331
0.743111
0.746206
0.746889
0.745698
0.745547
0.746388
0.74893