/*--------------------------------*- C++ -*----------------------------------*\
  =========                 |
  \\      /  F ield         | OpenFOAM: The Open Source CFD Toolbox
   \\    /   O peration     | Website:  https://openfoam.org
    \\  /    A nd           | Version:  9
     \\/     M anipulation  |
\*---------------------------------------------------------------------------*/
FoamFile
{
    format      ascii;
    class       volVectorField;
    location    "0.04";
    object      U;
}
// * * * * * * * * * * * * * * * * * * * * * * * * * * * * * * * * * * * * * //

dimensions      [0 1 -1 0 0 0 0];

internalField   nonuniform List<vector> 
12225
(
(9.73941 -0.021508 0)
(9.53748 0.0670689 0)
(9.15287 0.0822014 0)
(8.78124 0.0634945 0)
(8.45579 0.0481809 0)
(8.15983 0.0415933 0)
(7.87773 0.0369278 0)
(7.59229 0.0390217 0)
(7.28358 0.052911 0)
(6.91271 0.0738422 0)
(6.49714 0.0881237 0)
(6.03495 0.0985483 0)
(5.56901 0.113935 0)
(4.99448 0.153184 0)
(4.32765 0.214836 0)
(3.35894 0.250349 0)
(2.40165 0.345287 0)
(0.791317 0.362543 0)
(9.80687 0.0603159 0)
(9.89038 0.0550133 0)
(10.0158 0.08354 0)
(10.1225 0.0920904 0)
(10.1626 0.0952959 0)
(10.1479 0.102094 0)
(10.0831 0.110225 0)
(9.96488 0.119524 0)
(9.84358 0.134161 0)
(9.7091 0.154537 0)
(9.60261 0.17548 0)
(9.41991 0.196924 0)
(9.25872 0.225654 0)
(8.90275 0.280675 0)
(8.647 0.369046 0)
(8.01086 0.490589 0)
(7.68741 0.613794 0)
(6.61573 0.773713 0)
(9.77013 -0.0108717 0)
(9.85139 0.0303198 0)
(9.89021 0.0398109 0)
(9.8819 0.0329313 0)
(9.86601 0.0372905 0)
(9.87705 0.0574405 0)
(9.90177 0.0820298 0)
(9.90663 0.101509 0)
(9.905 0.121332 0)
(9.88311 0.143464 0)
(9.87638 0.176218 0)
(9.8199 0.215473 0)
(9.78158 0.282381 0)
(9.63904 0.372375 0)
(9.56837 0.5033 0)
(9.36216 0.65011 0)
(9.30851 0.789465 0)
(9.09078 0.926584 0)
(9.94051 -0.0650507 0)
(9.9232 0.0170357 0)
(9.98017 0.0701567 0)
(10.0196 0.0901827 0)
(10.011 0.0943625 0)
(9.99495 0.100591 0)
(10.0025 0.113283 0)
(10.0193 0.129744 0)
(10.0205 0.152447 0)
(9.97876 0.176968 0)
(9.90919 0.207372 0)
(9.81502 0.24371 0)
(9.73804 0.304733 0)
(9.66472 0.392599 0)
(9.63528 0.513814 0)
(9.61528 0.65442 0)
(9.64024 0.782322 0)
(9.65911 0.876782 0)
(10.1096 0.0166552 0)
(10.1369 0.0232616 0)
(10.1593 0.0360733 0)
(10.1233 0.0384183 0)
(10.0408 0.0451439 0)
(9.97172 0.0540838 0)
(9.94908 0.0628249 0)
(9.96215 0.0824233 0)
(9.97484 0.124187 0)
(9.94922 0.179582 0)
(9.87723 0.238129 0)
(9.77627 0.292746 0)
(9.67634 0.353942 0)
(9.60146 0.43287 0)
(9.56336 0.533845 0)
(9.5663 0.653726 0)
(9.59771 0.762038 0)
(9.63926 0.838745 0)
(10.0143 -0.052198 0)
(9.87748 -0.0224497 0)
(9.88458 0.0647968 0)
(9.93115 0.10748 0)
(9.98226 0.129306 0)
(10.0246 0.134557 0)
(10.0154 0.128453 0)
(9.94937 0.134004 0)
(9.86323 0.167659 0)
(9.79013 0.220751 0)
(9.738 0.276586 0)
(9.70022 0.325824 0)
(9.66674 0.376278 0)
(9.63556 0.443155 0)
(9.60936 0.531158 0)
(9.59414 0.637299 0)
(9.59165 0.738212 0)
(9.59283 0.817168 0)
(10.0585 0.0456046 0)
(10.0998 0.0278666 0)
(9.98062 0.0463264 0)
(9.87914 0.0326446 0)
(9.83978 0.0230072 0)
(9.85094 0.0416897 0)
(9.87426 0.0804453 0)
(9.88424 0.127219 0)
(9.87647 0.177479 0)
(9.85642 0.228362 0)
(9.82804 0.278379 0)
(9.79408 0.329596 0)
(9.75649 0.388611 0)
(9.72079 0.46312 0)
(9.69643 0.552959 0)
(9.68397 0.652038 0)
(9.68839 0.748468 0)
(9.69184 0.828394 0)
(10.1321 -0.152985 0)
(10.0025 0.00467119 0)
(9.98277 0.116294 0)
(9.97914 0.134989 0)
(9.95719 0.129184 0)
(9.91072 0.123567 0)
(9.85251 0.122624 0)
(9.802 0.142081 0)
(9.77016 0.188039 0)
(9.75577 0.24843 0)
(9.75181 0.307483 0)
(9.75059 0.359464 0)
(9.74779 0.409877 0)
(9.74206 0.468866 0)
(9.73905 0.54229 0)
(9.74109 0.627451 0)
(9.75216 0.718261 0)
(9.76662 0.803979 0)
(9.89154 0.115925 0)
(9.94734 0.076984 0)
(10.0481 0.0721964 0)
(10.1027 0.0617188 0)
(10.1203 0.0638354 0)
(10.1198 0.0887314 0)
(10.1059 0.121192 0)
(10.0878 0.154738 0)
(10.0731 0.191219 0)
(10.0596 0.232519 0)
(10.0382 0.279265 0)
(9.99847 0.33295 0)
(9.93853 0.396236 0)
(9.86597 0.470499 0)
(9.79423 0.5535 0)
(9.73903 0.641201 0)
(9.70187 0.728103 0)
(9.69218 0.812222 0)
(9.95354 -0.122712 0)
(9.97709 -0.0720997 0)
(9.97045 0.035871 0)
(9.96988 0.0880762 0)
(9.97336 0.11297 0)
(9.97736 0.125196 0)
(9.97079 0.134548 0)
(9.9577 0.158346 0)
(9.94665 0.205107 0)
(9.93747 0.269906 0)
(9.92104 0.342971 0)
(9.88884 0.416958 0)
(9.83876 0.488614 0)
(9.77963 0.558796 0)
(9.72051 0.626745 0)
(9.67276 0.694515 0)
(9.63677 0.759364 0)
(9.61455 0.823809 0)
(10.0162 -0.0480387 0)
(9.95606 0.0643128 0)
(9.91073 0.0864898 0)
(9.89791 0.0725678 0)
(9.92746 0.0734834 0)
(9.96001 0.0977256 0)
(9.9537 0.132076 0)
(9.91102 0.16724 0)
(9.86047 0.203594 0)
(9.82455 0.248603 0)
(9.80757 0.307988 0)
(9.80213 0.380634 0)
(9.7983 0.459629 0)
(9.79173 0.538905 0)
(9.78434 0.614676 0)
(9.77654 0.6877 0)
(9.77476 0.75998 0)
(9.76918 0.834597 0)
(10.0865 -0.0811045 0)
(10.0221 -0.0346371 0)
(10.0913 0.0474763 0)
(10.1489 0.0786382 0)
(10.1343 0.0846796 0)
(10.0536 0.108945 0)
(9.971 0.154487 0)
(9.9373 0.204684 0)
(9.94834 0.251035 0)
(9.97134 0.298757 0)
(9.98118 0.355372 0)
(9.97209 0.422903 0)
(9.95105 0.496764 0)
(9.92724 0.570524 0)
(9.90732 0.63932 0)
(9.89289 0.702506 0)
(9.88621 0.762564 0)
(9.88287 0.826702 0)
(9.90002 0.0620753 0)
(9.774 0.0344065 0)
(9.79528 0.0177913 0)
(9.91011 0.04575 0)
(9.99783 0.123455 0)
(10.0134 0.18485 0)
(9.98568 0.195756 0)
(9.95231 0.180835 0)
(9.92572 0.183389 0)
(9.90602 0.225822 0)
(9.89568 0.301458 0)
(9.89958 0.3911 0)
(9.92011 0.478297 0)
(9.95468 0.556796 0)
(9.99083 0.627248 0)
(10.019 0.693876 0)
(10.0278 0.761901 0)
(10.0185 0.835322 0)
(9.93119 -0.0537551 0)
(9.9705 0.00239267 0)
(9.99155 0.00432816 0)
(10.0299 -0.00518022 0)
(10.1015 0.0283264 0)
(10.1826 0.0959606 0)
(10.2269 0.172921 0)
(10.2081 0.239019 0)
(10.1376 0.290994 0)
(10.0497 0.333897 0)
(9.97657 0.37306 0)
(9.9338 0.414283 0)
(9.92072 0.461197 0)
(9.9289 0.520244 0)
(9.944 0.592135 0)
(9.95558 0.676008 0)
(9.95456 0.76688 0)
(9.94241 0.85643 0)
(10.0616 0.00349612 0)
(10.0728 -0.031464 0)
(10.0488 -0.0373441 0)
(10.0693 -0.0366797 0)
(10.1354 0.0166864 0)
(10.2018 0.110992 0)
(10.2213 0.195625 0)
(10.1887 0.257738 0)
(10.1272 0.306616 0)
(10.0616 0.353093 0)
(10.0075 0.399672 0)
(9.97112 0.446169 0)
(9.95286 0.493342 0)
(9.94978 0.547036 0)
(9.96096 0.612822 0)
(9.97956 0.692499 0)
(10.0057 0.783554 0)
(10.0308 0.879233 0)
(9.97546 -0.0368889 0)
(9.9784 0.00699181 0)
(9.95778 0.0274261 0)
(9.89551 -0.0452002 0)
(9.8534 -0.0611547 0)
(9.84788 0.0284432 0)
(9.86695 0.17239 0)
(9.89693 0.305175 0)
(9.9232 0.39157 0)
(9.94291 0.432553 0)
(9.95682 0.445847 0)
(9.96506 0.450874 0)
(9.96962 0.461651 0)
(9.97323 0.48771 0)
(9.98112 0.53237 0)
(9.99755 0.596488 0)
(10.0254 0.673532 0)
(10.0673 0.762066 0)
(10.1458 -0.0776363 0)
(10.1663 0.0217969 0)
(10.1969 0.0139828 0)
(10.1615 0.0222382 0)
(10.0827 0.0694026 0)
(9.99594 0.112814 0)
(9.942 0.154837 0)
(9.93513 0.202039 0)
(9.96731 0.257153 0)
(10.0182 0.319896 0)
(10.0661 0.386286 0)
(10.0979 0.451318 0)
(10.1119 0.510606 0)
(10.1148 0.564499 0)
(10.1156 0.613613 0)
(10.1221 0.662258 0)
(10.1396 0.709623 0)
(10.1703 0.759862 0)
(10.115 0.0150269 0)
(10.1231 0.143364 0)
(10.1147 0.0938274 0)
(10.0703 0.0809364 0)
(10.0115 0.14436 0)
(9.97529 0.221362 0)
(9.97351 0.26604 0)
(9.98945 0.275504 0)
(10.0152 0.272364 0)
(10.0507 0.28048 0)
(10.091 0.308582 0)
(10.1301 0.351146 0)
(10.1675 0.397388 0)
(10.2053 0.440058 0)
(10.2464 0.476342 0)
(10.2914 0.510264 0)
(10.3426 0.542623 0)
(10.3986 0.581346 0)
(9.91142 -0.0282349 0)
(10.0247 0.0370908 0)
(10.0476 0.087039 0)
(10.0453 0.115707 0)
(10.0362 0.119129 0)
(10.0658 0.107253 0)
(10.1307 0.0978521 0)
(10.2011 0.106144 0)
(10.2671 0.139481 0)
(10.3298 0.195274 0)
(10.3869 0.263581 0)
(10.4336 0.33224 0)
(10.4681 0.391133 0)
(10.4923 0.435659 0)
(10.509 0.464587 0)
(10.5231 0.483034 0)
(10.5376 0.494083 0)
(10.558 0.50563 0)
(10.0868 -0.0937112 0)
(10.1545 -0.0574546 0)
(10.162 0.0807749 0)
(10.1685 0.140368 0)
(10.1788 0.136944 0)
(10.2028 0.10892 0)
(10.2289 0.0733431 0)
(10.2356 0.045251 0)
(10.2254 0.0376005 0)
(10.215 0.0580207 0)
(10.2155 0.107621 0)
(10.2312 0.17995 0)
(10.2626 0.261428 0)
(10.3083 0.336739 0)
(10.3636 0.392895 0)
(10.4242 0.427343 0)
(10.4843 0.441375 0)
(10.542 0.445295 0)
(10.1172 -0.0309174 0)
(10.0371 -0.0275173 0)
(10.0696 0.0798549 0)
(10.1188 0.0993802 0)
(10.1349 0.049793 0)
(10.11 0.018552 0)
(10.0913 0.036883 0)
(10.106 0.0852049 0)
(10.1455 0.138135 0)
(10.189 0.18286 0)
(10.2202 0.215948 0)
(10.235 0.238409 0)
(10.2393 0.251796 0)
(10.2436 0.258789 0)
(10.2551 0.262189 0)
(10.2784 0.266846 0)
(10.3115 0.274757 0)
(10.3549 0.290603 0)
(10.1111 0.136864 0)
(10.0729 0.0406744 0)
(10.0703 -0.0243932 0)
(10.1121 0.0713576 0)
(10.132 0.162927 0)
(10.1284 0.162233 0)
(10.1317 0.0874262 0)
(10.1448 0.000269468 0)
(10.1635 -0.0421413 0)
(10.1888 -0.0178727 0)
(10.2224 0.0582559 0)
(10.2632 0.153258 0)
(10.3072 0.236245 0)
(10.35 0.289572 0)
(10.3869 0.308503 0)
(10.417 0.301506 0)
(10.4405 0.278677 0)
(10.4612 0.255696 0)
(9.97766 0.12357 0)
(10.1073 0.114891 0)
(10.0662 0.0479899 0)
(10.0213 0.0376867 0)
(10.0563 0.0277463 0)
(10.1468 0.0179247 0)
(10.2202 0.0177988 0)
(10.2372 0.0321411 0)
(10.213 0.0587186 0)
(10.1836 0.0873906 0)
(10.1761 0.111899 0)
(10.1998 0.132344 0)
(10.2496 0.151487 0)
(10.3132 0.171548 0)
(10.3767 0.191307 0)
(10.4304 0.209014 0)
(10.4703 0.22228 0)
(10.4959 0.22886 0)
(9.96928 -0.0277355 0)
(10.0924 -0.0312068 0)
(10.1026 0.0251868 0)
(10.1396 0.0763449 0)
(10.2213 0.0634114 0)
(10.3232 0.029086 0)
(10.3963 0.0148016 0)
(10.4287 0.0197338 0)
(10.4324 0.029255 0)
(10.4212 0.0395301 0)
(10.4068 0.0534338 0)
(10.397 0.0734957 0)
(10.3961 0.0984101 0)
(10.4057 0.124523 0)
(10.4269 0.148169 0)
(10.459 0.167329 0)
(10.5006 0.181157 0)
(10.5479 0.189892 0)
(10.0699 -0.024928 0)
(10.0678 0.0566801 0)
(10.1118 0.0412305 0)
(10.1118 -0.0334885 0)
(10.094 -0.101789 0)
(10.1203 -0.115737 0)
(10.1884 -0.0724287 0)
(10.2653 -0.00693173 0)
(10.3253 0.0498515 0)
(10.3591 0.0898919 0)
(10.3715 0.114555 0)
(10.3738 0.129472 0)
(10.3753 0.137752 0)
(10.379 0.140299 0)
(10.3856 0.137691 0)
(10.3974 0.131972 0)
(10.4154 0.124178 0)
(10.4436 0.11752 0)
(9.8898 -0.0112669 0)
(10.0823 -0.0564781 0)
(10.236 0.00646181 0)
(10.2422 0.0623947 0)
(10.1346 0.0483347 0)
(10.0154 -0.0216989 0)
(9.93926 -0.0720344 0)
(9.92347 -0.0641853 0)
(9.95818 -0.0193168 0)
(10.0169 0.0273604 0)
(10.0818 0.0607969 0)
(10.1508 0.0835557 0)
(10.2251 0.100763 0)
(10.3045 0.115719 0)
(10.386 0.126665 0)
(10.4652 0.131115 0)
(10.5385 0.126612 0)
(10.6001 0.112943 0)
(10.06 0.0515881 0)
(9.94057 -0.0701049 0)
(9.89696 -0.0164388 0)
(9.97255 0.0214129 0)
(10.0645 0.0128422 0)
(10.1112 -0.0197357 0)
(10.1229 -0.0429584 0)
(10.1314 -0.040557 0)
(10.1554 -0.0230735 0)
(10.1936 -0.00404666 0)
(10.2373 0.0122045 0)
(10.2804 0.0219636 0)
(10.3222 0.0237082 0)
(10.3658 0.0200624 0)
(10.4131 0.0153928 0)
(10.4632 0.0129855 0)
(10.5132 0.0150229 0)
(10.5587 0.0215041 0)
(10.2701 -0.0634968 0)
(10.1593 -0.0413696 0)
(10.1511 -0.0163611 0)
(10.2649 -0.00217036 0)
(10.3383 -0.00532216 0)
(10.3098 -0.0321366 0)
(10.2418 -0.0589317 0)
(10.2013 -0.0619732 0)
(10.2095 -0.0431118 0)
(10.2558 -0.0161774 0)
(10.3188 0.00839678 0)
(10.3788 0.026005 0)
(10.4258 0.0373361 0)
(10.4568 0.0432437 0)
(10.4758 0.0451385 0)
(10.4908 0.0444442 0)
(10.5095 0.0416633 0)
(10.5385 0.0369473 0)
(10.1184 -0.0116402 0)
(10.0195 -0.00798303 0)
(9.97933 -0.0530964 0)
(9.97977 -0.0497913 0)
(10.0428 -0.0132565 0)
(10.1503 0.00127383 0)
(10.2494 -0.017411 0)
(10.2985 -0.0451568 0)
(10.2996 -0.0619952 0)
(10.2846 -0.0621135 0)
(10.282 -0.0492005 0)
(10.3024 -0.0308903 0)
(10.3416 -0.0137893 0)
(10.3917 -0.00274594 0)
(10.4471 0.000542816 0)
(10.5042 -0.00275357 0)
(10.5606 -0.0110016 0)
(10.6151 -0.0212586 0)
(9.7413 -0.0549935 0)
(9.74204 -0.0138783 0)
(9.6525 -0.00162121 0)
(9.55192 -0.0122718 0)
(9.44958 -0.0544857 0)
(9.30424 -0.0913145 0)
(9.12158 -0.0921802 0)
(8.94304 -0.0631369 0)
(8.79662 -0.0312808 0)
(8.6874 -0.0135521 0)
(8.60886 -0.00915801 0)
(8.55432 -0.0110284 0)
(8.5179 -0.0138487 0)
(8.49454 -0.0156906 0)
(8.4753 -0.0174507 0)
(8.45412 -0.0200375 0)
(8.42278 -0.0238205 0)
(8.38012 -0.0274723 0)
(-0.248728 0.578622 8.14109e-20)
(-0.554317 0.270251 -8.07459e-20)
(-0.775547 0.0986013 0)
(-0.784206 -0.0955433 0)
(-0.535827 -0.348115 0)
(-0.0747985 -0.560465 7.85442e-20)
(0.559142 -0.666563 0)
(1.25481 -0.703094 0)
(1.94947 -0.68462 0)
(2.61751 -0.627098 0)
(3.23283 -0.545822 -7.45806e-20)
(3.77344 -0.451964 0)
(4.22988 -0.353457 0)
(4.59743 -0.254244 0)
(4.87566 -0.155762 0)
(5.05992 -0.0574674 -7.05198e-20)
(5.1516 0.0420377 0)
(5.14128 0.145947 0)
(5.02321 0.256539 0)
(4.79135 0.372903 0)
(4.44487 0.491377 0)
(3.976 0.608651 0)
(3.39108 0.716284 0)
(2.68452 0.80096 -6.69751e-20)
(1.89818 0.840699 6.66551e-20)
(1.02439 0.783145 -6.62907e-20)
(0.187963 0.528452 -6.5845e-20)
(-0.516316 -0.324261 0)
(-0.671301 -0.467159 0)
(-1.00125 0.811975 6.39158e-20)
(-1.65506 0.795384 6.30233e-20)
(-2.50904 0.471312 0)
(-3.2604 0.396667 0)
(-3.55593 -0.0666641 6.05749e-20)
(-3.31491 -0.50088 0)
(-2.63739 -1.03658 0)
(-1.37793 -1.6461 -5.96491e-20)
(0.418237 -1.93971 0)
(1.92582 -1.55219 -5.82704e-20)
(3.03099 -0.868978 -1.14537e-19)
(3.4282 -0.415983 0)
(3.4189 0.034609 0)
(2.90141 0.517654 0)
(1.84262 0.221689 0)
(1.37657 1.00026 0)
(1.07001 1.0494 -1.09951e-19)
(0.786549 -1.15461 -1.09399e-19)
(0.421047 -2.11282 -1.08153e-19)
(0.229327 -0.184386 0)
(-1.78548 1.84381 1.06347e-19)
(-3.93126 1.59326 0)
(-5.40512 1.28852 -1.03059e-19)
(-6.74031 1.02148 -1.00991e-19)
(-7.74046 0.817812 0)
(-8.61097 0.645667 0)
(-9.28419 0.514631 0)
(-9.86151 0.413244 -9.29525e-20)
(-10.3239 0.334016 0)
(-10.718 0.273875 0)
(-11.0423 0.225005 0)
(-11.3167 0.186006 0)
(-11.5431 0.152065 0)
(-11.729 0.122333 0)
(-11.8756 0.094618 0)
(-11.9849 0.0686281 0)
(-12.0569 0.0436807 8.04901e-20)
(-12.0918 0.0201768 0)
(-12.0897 -0.00177741 0)
(-12.0557 -0.0226139 -7.79042e-20)
(-11.9879 -0.0420824 -7.72033e-20)
(-11.8896 -0.0600184 0)
(-11.7616 -0.0762044 7.6015e-20)
(-11.6074 -0.0902242 -7.5511e-20)
(-11.43 -0.101917 0)
(-11.2334 -0.11101 7.46336e-20)
(-11.0217 -0.117456 0)
(-10.7995 -0.121229 0)
(-10.5711 -0.122454 -7.34864e-20)
(-10.3408 -0.121317 0)
(-10.1127 -0.118108 7.27281e-20)
(-9.89033 -0.11317 0)
(-9.67659 -0.10691 -7.19197e-20)
(-9.47378 -0.0998035 -7.14905e-20)
(-9.28327 -0.0923746 -7.10454e-20)
(-9.10543 -0.0852384 -1.41174e-19)
(-8.93933 -0.0791031 1.40241e-19)
(-8.78248 -0.0747834 0)
(-8.63047 -0.0732117 0)
(-8.47665 -0.0753795 0)
(-8.312 -0.0822334 1.36709e-19)
(-8.12549 -0.0944723 1.36002e-19)
(-7.90508 -0.112265 -1.35418e-19)
(-7.63927 -0.134988 0)
(-7.31905 -0.161085 1.34658e-19)
(-6.93977 -0.18815 1.34458e-19)
(-6.5024 -0.213375 1.34331e-19)
(-6.01344 -0.23423 0)
(-5.4836 -0.249026 0)
(-4.92596 -0.257136 0)
(-4.35387 -0.258932 1.33527e-19)
(-3.77914 -0.255501 0)
(-3.21092 -0.248231 0)
(-2.65586 -0.238441 -1.31714e-19)
(-2.11864 -0.22716 0)
(-1.6017 -0.215284 0)
(-1.10536 -0.20336 -1.28812e-19)
(-0.62881 -0.191878 0)
(-0.172947 -0.181007 0)
(0.261831 -0.172202 1.25092e-19)
(0.67956 -0.163063 1.23637e-19)
(1.08266 -0.15459 0)
(1.47098 -0.146627 -1.20656e-19)
(1.84522 -0.139015 0)
(2.2058 -0.13158 1.17618e-19)
(2.55277 -0.124104 0)
(2.88565 -0.116323 1.14558e-19)
(3.20346 -0.10792 1.13027e-19)
(3.50449 -0.0985843 0)
(3.78617 -0.0880308 0)
(4.04461 -0.0759393 0)
(4.27482 -0.0625752 0)
(4.47287 -0.0492581 0)
(4.63813 -0.0369199 0)
(4.77264 -0.0257512 0)
(4.87999 -0.0164192 1.01084e-19)
(4.9626 -0.00720749 -9.96635e-20)
(5.01418 0.00623762 0)
(5.02264 0.0219588 0)
(4.99204 0.0312023 0)
(4.93942 0.0302311 0)
(4.88399 0.0238451 -1.85671e-19)
(4.83653 0.0206035 0)
(4.79514 0.0253786 1.80453e-19)
(4.7496 0.0361167 -1.77889e-19)
(4.68945 0.0465265 0)
(4.61112 0.0510073 0)
(4.52015 0.04783 0)
(4.42724 0.0389804 1.67873e-19)
(4.34225 0.0282521 1.65423e-19)
(4.27067 0.0187574 0)
(4.2135 0.0119511 1.60588e-19)
(4.16873 0.00831492 1.58199e-19)
(4.13293 0.00796027 -1.55828e-19)
(4.10218 0.0105428 0)
(4.07267 0.0150983 0)
(4.04109 0.0205305 -1.48821e-19)
(4.00462 0.0262942 0)
(3.96033 0.0325797 0)
(3.90467 0.0398125 0)
(3.83432 0.0474662 0)
(3.74817 0.0535369 1.37478e-19)
(3.64912 0.0556122 1.35251e-19)
(3.54387 0.0527094 0)
(3.44044 0.045853 1.30834e-19)
(3.34501 0.0372866 0)
(3.26024 0.0292719 0)
(3.18554 0.0232289 1.24318e-19)
(3.11859 0.0194689 0)
(3.05693 0.0173304 1.20043e-19)
(2.99907 0.0158182 0)
(2.94463 0.0142295 0)
(2.89433 0.0123211 1.13721e-19)
(2.84896 0.0102523 0)
(2.80929 0.00831807 1.09567e-19)
(2.77491 0.00679845 0)
(2.74551 0.00581663 0)
(2.7193 0.00538792 0)
(2.69595 0.00535085 -1.01412e-19)
(2.67298 0.00567139 0)
(2.65095 0.00608366 9.74088e-20)
(2.62674 0.00686264 0)
(2.6015 0.00755562 0)
(2.57202 0.00924446 0)
(2.53693 0.0103184 0)
(2.49857 0.0143782 0)
(2.43836 0.0156941 0)
(2.39125 0.0260064 0)
(2.26117 0.0258147 -1.64005e-19)
(2.22884 0.0555389 0)
(1.87934 0.0445335 0)
(0.0348299 0.979908 -2.44192e-19)
(-0.0104783 0.722829 2.42478e-19)
(-0.0735865 0.386733 0)
(0.339264 -0.366638 -1.59008e-19)
(0.963493 -1.16097 0)
(1.69687 -1.73529 -7.80565e-20)
(2.4237 -2.05053 1.54113e-19)
(3.09884 -2.15033 1.52447e-19)
(3.71337 -2.09201 0)
(4.26366 -1.9314 1.49079e-19)
(4.74626 -1.71341 7.41432e-20)
(5.16063 -1.46732 0)
(5.50898 -1.21022 0)
(5.79418 -0.950028 0)
(6.01801 -0.688976 0)
(6.18337 -0.425899 7.0276e-20)
(6.28937 -0.159437 0)
(6.33963 0.112757 -1.37342e-19)
(6.33307 0.390909 0)
(6.25778 0.676017 0)
(6.11286 0.967778 1.34285e-19)
(5.88706 1.26163 0)
(5.58184 1.55241 -1.3271e-19)
(5.17815 1.81886 6.64352e-20)
(4.67354 2.04925 -6.6059e-20)
(4.03876 2.18244 6.56576e-20)
(3.24728 2.20046 6.52352e-20)
(2.31042 1.97157 0)
(1.11043 1.46436 0)
(-0.105598 0.892309 -6.39774e-20)
(-0.411622 1.46607 6.29161e-20)
(-0.918962 1.79415 0)
(-1.32694 1.22457 0)
(-1.36297 0.251453 -6.08676e-20)
(-1.21618 -0.919988 0)
(-0.746322 -2.22827 0)
(0.349781 -3.7336 5.95704e-20)
(1.39478 -4.09827 0)
(1.96543 -2.98566 -5.66642e-20)
(2.27132 -1.41391 1.14585e-19)
(2.36453 -0.0987581 0)
(2.09832 0.81913 0)
(1.78489 1.77393 2.21473e-19)
(1.42001 1.5918 2.21403e-19)
(0.314767 0.0735749 2.20448e-19)
(0.215462 0.25089 -1.09209e-19)
(-1.82816 1.97379 1.08842e-19)
(-4.66508 3.0336 3.20205e-19)
(-5.93676 3.40921 -2.09686e-19)
(-7.0539 3.564 -1.0488e-19)
(-7.93429 2.97851 0)
(-8.5591 2.55395 1.02161e-19)
(-9.15658 2.06167 -9.79456e-20)
(-9.59553 1.69446 0)
(-10.0068 1.36266 0)
(-10.3298 1.11608 0)
(-10.6273 0.910444 9.27404e-20)
(-10.8754 0.753124 0)
(-11.1012 0.623766 -1.78165e-19)
(-11.2948 0.51928 0)
(-11.4666 0.429942 -1.72414e-19)
(-11.6123 0.35163 0)
(-11.7351 0.279691 1.67238e-19)
(-11.8327 0.211741 0)
(-11.9052 0.146002 -1.62685e-19)
(-11.9509 0.08154 8.01504e-20)
(-11.9691 0.0179774 0)
(-11.9595 -0.0441854 1.57082e-19)
(-11.9167 -0.103916 7.79192e-20)
(-11.8436 -0.160614 7.72145e-20)
(-11.739 -0.213121 0)
(-11.6064 -0.260565 7.5788e-20)
(-11.4475 -0.30183 7.55128e-20)
(-11.266 -0.336151 0)
(-11.0657 -0.362867 -7.46315e-20)
(-10.8509 -0.381691 1.48364e-19)
(-10.6261 -0.392605 0)
(-10.3956 -0.395921 7.34823e-20)
(-10.1639 -0.392215 0)
(-9.93477 -0.382314 -2.18163e-19)
(-9.71182 -0.367244 0)
(-9.49796 -0.348208 2.15765e-19)
(-9.29545 -0.326584 7.14912e-20)
(-9.10571 -0.303948 -7.10522e-20)
(-8.92918 -0.28211 -1.41168e-19)
(-8.76509 -0.263183 1.40201e-19)
(-8.61112 -0.249649 0)
(-8.46302 -0.244372 0)
(-8.31416 -0.250496 0)
(-8.15529 -0.271109 -4.09819e-19)
(-7.97471 -0.308574 -1.35998e-19)
(-7.7593 -0.363574 1.35405e-19)
(-7.49623 -0.434204 0)
(-7.1752 -0.515528 1.34147e-19)
(-6.7909 -0.599849 -1.34412e-19)
(-6.34472 -0.678195 -1.34275e-19)
(-5.84459 -0.742587 0)
(-5.30322 -0.787885 0)
(-4.73543 -0.812431 0)
(-4.15577 -0.817704 -1.33459e-19)
(-3.57635 -0.807259 0)
(-3.00604 -0.78537 2.64664e-19)
(-2.45091 -0.756115 3.94854e-19)
(-1.9151 -0.722491 -2.61481e-19)
(-1.40014 -0.687423 0)
(-0.905448 -0.652919 -1.28649e-19)
(-0.429937 -0.619423 0)
(0.0244007 -0.588663 -2.52628e-19)
(0.459232 -0.561689 1.24876e-19)
(0.879428 -0.535426 1.23427e-19)
(1.28534 -0.511109 0)
(1.6774 -0.48851 3.61597e-19)
(2.05623 -0.467226 -2.38011e-19)
(2.42232 -0.446729 -1.17537e-19)
(2.77595 -0.42642 0)
(3.11697 -0.405707 -1.14482e-19)
(3.44461 -0.383969 -3.38783e-19)
(3.75782 -0.36032 0)
(4.05523 -0.333426 -2.19753e-19)
(4.33415 -0.301878 -2.16735e-19)
(4.58958 -0.265472 -2.13737e-19)
(4.81497 -0.226338 0)
(5.00683 -0.188176 0)
(5.17113 -0.153953 0)
(5.32073 -0.123307 1.00993e-19)
(5.46188 -0.0909787 9.95981e-20)
(5.58774 -0.0513559 0)
(5.6825 -0.00801811 1.93595e-19)
(5.72462 0.0276275 1.90851e-19)
(5.70915 0.0468781 0)
(5.65416 0.0487834 1.85505e-19)
(5.59038 0.040576 3.65751e-19)
(5.54588 0.0326883 -1.803e-19)
(5.53389 0.0332318 -1.77712e-19)
(5.54865 0.0440734 0)
(5.57035 0.0603442 0)
(5.57607 0.0740255 0)
(5.55074 0.0792256 -1.67666e-19)
(5.49243 0.075347 1.65208e-19)
(5.40981 0.0657322 3.25582e-19)
(5.31591 0.0542924 -1.60396e-19)
(5.22295 0.0435112 1.58019e-19)
(5.14014 0.0343879 1.55662e-19)
(5.07353 0.0272549 0)
(5.02601 0.0223979 0)
(4.99728 0.0202699 -1.48672e-19)
(4.9842 0.0213166 0)
(4.98213 0.0256704 0)
(4.98646 0.0330742 2.8363e-19)
(4.9933 0.0426358 0)
(4.99956 0.0526266 1.373e-19)
(5.00317 0.0607887 -1.35072e-19)
(5.00319 0.0651088 0)
(4.9995 0.0649863 1.30637e-19)
(4.99248 0.0616138 0)
(4.98241 0.0569385 0)
(4.96885 0.0524971 -1.24111e-19)
(4.95072 0.0489427 2.43936e-19)
(4.92703 0.0460936 -1.19836e-19)
(4.89784 0.0433869 0)
(4.86436 0.0403318 0)
(4.82862 0.0366596 1.13525e-19)
(4.79263 0.0324734 0)
(4.75814 0.0280891 1.09382e-19)
(4.7262 0.023962 0)
(4.69755 0.0203629 0)
(4.67218 0.0176159 0)
(4.65012 0.015594 1.01244e-19)
(4.63087 0.0146731 0)
(4.61388 0.0142104 -9.72496e-20)
(4.59881 0.0152701 0)
(4.58359 0.0160776 0)
(4.56978 0.0197302 1.82702e-19)
(4.55009 0.0215031 -1.78827e-19)
(4.53451 0.0301474 0)
(4.49777 0.0324342 0)
(4.4803 0.0524096 0)
(4.39716 0.0540023 4.91099e-19)
(4.39047 0.102864 0)
(4.18508 0.10302 -3.12821e-19)
(0.0659306 0.707577 -6.31218e-23)
(0.0855495 0.673479 -3.23177e-19)
(0.754039 -0.557578 0)
(1.6599 -1.96137 3.1599e-19)
(2.52563 -2.95919 0)
(3.24846 -3.48313 0)
(3.81748 -3.61986 -8.19638e-22)
(4.2622 -3.49201 -1.51683e-19)
(4.61302 -3.20864 -1.49093e-19)
(4.89538 -2.85013 -1.4864e-19)
(5.13068 -2.46695 0)
(5.33491 -2.08558 0)
(5.5181 -1.71606 1.4301e-19)
(5.68339 -1.35947 2.83139e-19)
(5.82981 -1.01209 -2.80371e-19)
(5.95171 -0.668925 0)
(6.04383 -0.32513 -2.75279e-19)
(6.09915 0.0222174 1.37441e-19)
(6.1201 0.376115 0)
(6.10686 0.73811 -2.68396e-19)
(6.06477 1.11161 -1.34238e-19)
(5.98618 1.49549 2.64496e-19)
(5.87713 1.89025 1.32506e-19)
(5.72043 2.28032 0)
(5.51561 2.65949 -2.59548e-19)
(5.23119 2.98522 -2.58052e-19)
(4.84602 3.24216 0)
(4.31533 3.35813 -2.55218e-19)
(3.61274 3.32558 0)
(2.63544 2.96734 -2.52462e-19)
(1.65106 2.40799 -1.25554e-19)
(0.996717 1.97958 0)
(0.646708 1.33074 0)
(0.523706 0.141244 0)
(0.436261 -1.40122 0)
(0.623067 -3.19441 0)
(1.22202 -5.0262 0)
(1.14573 -4.64729 -2.32701e-19)
(0.982676 -2.9786 3.44356e-19)
(0.549125 -1.40158 0)
(0.3816 0.0313988 0)
(-0.479956 1.05637 0)
(-0.700589 1.79742 -9.19523e-22)
(-1.74049 2.28988 -2.20668e-19)
(-3.49563 3.07336 -4.35849e-19)
(-4.97734 3.97602 4.30949e-19)
(-6.41115 4.51552 2.12075e-19)
(-7.55327 4.54393 -2.11048e-19)
(-8.08291 4.48466 1.72283e-21)
(-8.47376 4.17448 -2.04e-19)
(-8.63777 3.59502 0)
(-8.82404 3.0702 -1.98662e-19)
(-8.99894 2.52868 2.37146e-21)
(-9.20173 2.1043 0)
(-9.42118 1.73338 0)
(-9.6494 1.45112 1.86579e-19)
(-9.87945 1.21528 0)
(-10.1025 1.03041 0)
(-10.3151 0.874821 -1.76764e-19)
(-10.513 0.744781 -3.49441e-19)
(-10.6944 0.629291 1.72615e-19)
(-10.8568 0.524054 0)
(-10.9976 0.42396 -1.67435e-19)
(-11.1144 0.32622 0)
(-11.2047 0.228689 -1.61825e-19)
(-11.2667 0.130502 -1.60849e-19)
(-11.2981 0.0316133 3.1697e-19)
(-11.2965 -0.0673259 1.56278e-19)
(-11.2615 -0.164447 0)
(-11.1941 -0.257761 -3.07714e-19)
(-11.095 -0.345006 0)
(-10.9666 -0.424034 -4.55086e-19)
(-10.8117 -0.492942 -3.01255e-19)
(-10.634 -0.550134 -2.99564e-19)
(-10.4379 -0.594537 2.98026e-19)
(-10.2279 -0.625582 -4.45055e-19)
(-10.0088 -0.643281 0)
(-9.78535 -0.648155 0)
(-9.56183 -0.641209 2.92457e-19)
(-9.34222 -0.623835 4.36538e-19)
(-9.12991 -0.597759 0)
(-8.9277 -0.564987 -1.4393e-19)
(-8.73774 -0.527798 0)
(-8.56137 -0.488806 4.26561e-19)
(-8.39908 -0.451027 1.90318e-23)
(-8.25026 -0.418 -7.66254e-23)
(-8.11288 -0.393965 -2.78527e-19)
(-7.983 -0.383913 0)
(-7.8541 -0.393448 2.74557e-19)
(-7.71647 -0.428204 5.09769e-22)
(-7.55708 -0.492635 0)
(-7.36055 -0.588233 0)
(-7.11123 -0.711692 0)
(-6.79624 -0.85397 -2.68778e-19)
(-6.4091 -1.00075 0)
(-5.95249 -1.13532 0)
(-5.43821 -1.24312 0)
(-4.88403 -1.31557 0)
(-4.30944 -1.35103 0)
(-3.73188 -1.35356 -2.66463e-19)
(-3.16432 -1.33041 0)
(-2.61497 -1.28942 -2.64599e-19)
(-2.08793 -1.23792 -2.63131e-19)
(-1.58589 -1.18016 2.61412e-19)
(-1.10771 -1.122 0)
(-0.65062 -1.06576 2.57339e-19)
(-0.212138 -1.01168 0)
(0.206805 -0.964302 2.52484e-19)
(0.610163 -0.918716 -2.49676e-19)
(1.00351 -0.875978 -7.40014e-19)
(1.38673 -0.836088 0)
(1.76063 -0.79874 -7.22289e-19)
(2.12521 -0.763533 -2.37534e-19)
(2.47982 -0.729849 0)
(2.8238 -0.696697 -4.63317e-19)
(3.15677 -0.66283 -4.57254e-19)
(3.47824 -0.627209 6.76923e-19)
(3.7869 -0.589104 0)
(4.0812 -0.547006 2.19668e-19)
(4.3598 -0.497745 2.16657e-19)
(4.61884 -0.43876 6.4084e-19)
(4.84728 -0.373235 0)
(5.03017 -0.312073 0)
(5.16424 -0.266918 0)
(5.27097 -0.238051 2.01903e-19)
(5.38864 -0.209215 0)
(5.54294 -0.157907 0)
(5.71682 -0.0768075 -1.93567e-19)
(5.8535 0.0137484 -1.90825e-19)
(5.90194 0.0808159 0)
(5.86085 0.106481 0)
(5.77312 0.0947477 -3.65644e-19)
(5.69009 0.0638209 0)
(5.64488 0.034787 3.55394e-19)
(5.64469 0.023337 3.50288e-19)
(5.67582 0.0342165 0)
(5.71413 0.0612007 0)
(5.73525 0.0926077 -3.35223e-19)
(5.72192 0.117517 -1.63529e-23)
(5.66845 0.129683 -1.38083e-23)
(5.58162 0.128378 0)
(5.47672 0.116645 -6.31832e-19)
(5.37092 0.0987736 0)
(5.27758 0.0787351 0)
(5.20381 0.0597806 0)
(5.15112 0.044376 2.97292e-19)
(5.11735 0.0341833 0)
(5.09889 0.0300535 -5.76259e-19)
(5.09212 0.0318331 -2.83598e-19)
(5.09401 0.0381186 0)
(5.10207 0.0462911 -2.74581e-19)
(5.11393 0.0531505 0)
(5.12741 0.0559957 0)
(5.14132 0.0541771 -7.83711e-19)
(5.15569 0.0493981 5.13705e-19)
(5.17088 0.0444804 0)
(5.1864 0.0417687 4.96348e-19)
(5.20024 0.0420722 -2.43876e-19)
(5.2093 0.0446171 0)
(5.21061 0.047664 0)
(5.20268 0.0494323 0)
(5.18595 0.0488981 -6.80907e-19)
(5.16263 0.0461008 0)
(5.13552 0.0417361 -2.1868e-19)
(5.10739 0.0368013 0)
(5.08005 0.0319461 0)
(5.05487 0.0278018 0)
(5.032 0.024256 0)
(5.01221 0.0218675 0)
(4.99452 0.0198419 0)
(4.98043 0.0196307 -3.80936e-19)
(4.96729 0.0192173 0)
(4.95873 0.022462 -1.82639e-19)
(4.94782 0.0241531 5.36267e-19)
(4.9435 0.0339947 0)
(4.9287 0.0383868 0)
(4.92655 0.0615547 -3.3461e-19)
(4.89673 0.0699307 -3.27232e-19)
(4.89756 0.122412 3.19712e-19)
(4.83895 0.142831 3.12651e-19)
(-0.241718 0.518224 4.88676e-19)
(0.581317 -0.938755 4.8386e-19)
(1.70355 -2.92206 3.17951e-19)
(2.64733 -4.15704 1.56372e-19)
(3.30657 -4.64186 0)
(3.70333 -4.60214 -3.05838e-19)
(3.91594 -4.26331 1.50416e-19)
(4.02891 -3.79818 0)
(4.10774 -3.31416 1.49255e-19)
(4.1926 -2.86237 0)
(4.30118 -2.45582 -2.90725e-19)
(4.43514 -2.08662 0)
(4.58656 -1.73922 -1.43323e-19)
(4.74282 -1.3986 -2.83773e-19)
(4.89225 -1.05421 2.81007e-19)
(5.02284 -0.699558 0)
(5.12811 -0.332502 2.75922e-19)
(5.19939 0.0485402 0)
(5.23835 0.44377 0)
(5.24695 0.84959 2.68904e-19)
(5.23503 1.2611 0)
(5.20394 1.67368 -1.96242e-21)
(5.16819 2.08988 0)
(5.1239 2.50624 0)
(5.0831 2.92803 2.04567e-21)
(5.025 3.33818 2.58015e-19)
(4.94222 3.728 2.54435e-19)
(4.78885 4.04816 2.54626e-19)
(4.53371 4.25551 0)
(4.12659 4.27292 5.0132e-19)
(3.48306 3.91736 0)
(2.79829 3.23034 2.47888e-19)
(2.17255 2.21607 0)
(1.69474 0.808343 0)
(1.20636 -0.947493 -2.44665e-19)
(0.823426 -3.10858 0)
(0.317093 -4.42385 2.39406e-19)
(-0.824297 -3.2155 -2.48554e-21)
(-1.63187 -1.4199 -4.61193e-19)
(-2.47495 -0.00220132 4.56055e-19)
(-3.29632 1.3772 0)
(-4.01348 2.68556 0)
(-4.79779 3.72197 2.18774e-19)
(-5.84538 4.53455 0)
(-6.79271 5.0934 2.15129e-19)
(-7.57048 5.42455 -2.1296e-19)
(-8.04151 5.40255 -2.11031e-19)
(-8.27404 5.11857 0)
(-8.32298 4.75462 2.06344e-19)
(-8.33549 4.24722 2.04013e-19)
(-8.32503 3.7107 -3.98697e-19)
(-8.37991 3.20686 1.98788e-19)
(-8.45427 2.74042 1.95902e-19)
(-8.58788 2.35119 0)
(-8.74853 2.01456 0)
(-8.94092 1.74123 -1.86756e-19)
(-9.14269 1.50813 0)
(-9.35142 1.31479 0)
(-9.55682 1.14643 3.55512e-19)
(-9.75678 0.998115 3.49823e-19)
(-9.945 0.860821 0)
(-10.1183 0.73 0)
(-10.272 0.600698 0)
(-10.4027 0.469994 0)
(-10.5061 0.336182 3.25077e-19)
(-10.5789 0.199251 -3.19687e-19)
(-10.6179 0.0602008 -3.17358e-19)
(-10.6214 -0.0795009 -6.26528e-19)
(-10.5881 -0.217638 0)
(-10.5175 -0.35065 1.17586e-21)
(-10.4114 -0.475317 0)
(-10.2724 -0.588035 3.03436e-19)
(-10.1043 -0.685986 8.45483e-22)
(-9.91187 -0.766754 2.99833e-19)
(-9.70051 -0.828848 -2.98291e-19)
(-9.47596 -0.871584 4.43745e-22)
(-9.24391 -0.895163 0)
(-9.00973 -0.900569 -2.93901e-19)
(-8.77827 -0.88943 -2.92724e-19)
(-8.55368 -0.863893 -5.82524e-19)
(-8.33931 -0.826505 0)
(-8.13776 -0.780107 2.882e-19)
(-7.95091 -0.72783 0)
(-7.77987 -0.673175 -5.69341e-19)
(-7.62499 -0.620109 2.82767e-19)
(-7.48578 -0.573274 -2.80805e-19)
(-7.36064 -0.538309 2.78797e-19)
(-7.24633 -0.52208 5.52915e-19)
(-7.13695 -0.532656 -2.74807e-19)
(-7.0227 -0.578766 2.72945e-19)
(-6.88898 -0.66823 0)
(-6.71681 -0.804902 -5.37814e-19)
(-6.48519 -0.985139 0)
(-6.1752 -1.19571 -5.34153e-19)
(-5.77574 -1.41381 5.33583e-19)
(-5.28936 -1.61144 5.33584e-19)
(-4.73341 -1.76435 -5.3379e-19)
(-4.13489 -1.85948 -5.33834e-19)
(-3.52265 -1.89633 0)
(-2.92083 -1.88394 -2.65886e-19)
(-2.34576 -1.83544 0)
(-1.80744 -1.76407 0)
(-1.3081 -1.68213 -5.25556e-19)
(-0.850038 -1.59502 0)
(-0.428884 -1.51295 0)
(-0.0383452 -1.4364 -5.13843e-19)
(0.325381 -1.36739 0)
(0.665983 -1.30664 0)
(0.991269 -1.25016 0)