/*--------------------------------*- C++ -*----------------------------------*\
  =========                 |
  \\      /  F ield         | OpenFOAM: The Open Source CFD Toolbox
   \\    /   O peration     | Website:  https://openfoam.org
    \\  /    A nd           | Version:  9
     \\/     M anipulation  |
\*---------------------------------------------------------------------------*/
FoamFile
{
    format      ascii;
    class       volVectorField;
    location    "0.04";
    object      UMean;
}
// * * * * * * * * * * * * * * * * * * * * * * * * * * * * * * * * * * * * * //

dimensions      [0 1 -1 0 0 0 0];

internalField   nonuniform List<vector> 
12225
(
(9.84964 0.0452332 0)
(9.54992 0.0614392 0)
(9.24472 0.0594438 0)
(8.93512 0.05821 0)
(8.62883 0.0579661 0)
(8.33042 0.0576503 0)
(8.0392 0.0572038 0)
(7.75497 0.0570188 0)
(7.47349 0.0570149 0)
(7.19657 0.0575622 0)
(6.91592 0.0584704 0)
(6.63795 0.0607711 0)
(6.34198 0.06432 0)
(6.04587 0.0705346 0)
(5.70207 0.0803604 0)
(5.35634 0.0936364 0)
(4.90649 0.122873 0)
(4.43221 0.154044 0)
(10.0265 0.0526163 0)
(10.0835 0.0757202 0)
(10.1183 0.0755167 0)
(10.1269 0.0772146 0)
(10.1169 0.0811683 0)
(10.0947 0.0851664 0)
(10.0621 0.0888106 0)
(10.0204 0.0927355 0)
(9.96823 0.0970883 0)
(9.90692 0.102497 0)
(9.83337 0.108891 0)
(9.74933 0.117589 0)
(9.6493 0.128904 0)
(9.53436 0.145064 0)
(9.39638 0.167858 0)
(9.23039 0.199769 0)
(9.03277 0.249247 0)
(8.77375 0.31758 0)
(9.9959 0.0337939 0)
(10.0258 0.0554445 0)
(10.0513 0.059244 0)
(10.0651 0.0626648 0)
(10.0712 0.06853 0)
(10.0737 0.074831 0)
(10.0735 0.0806935 0)
(10.0703 0.0867904 0)
(10.0634 0.0935265 0)
(10.0516 0.101663 0)
(10.0352 0.111449 0)
(10.0119 0.124051 0)
(9.98386 0.140548 0)
(9.94578 0.162791 0)
(9.90442 0.194052 0)
(9.84854 0.237124 0)
(9.79613 0.299379 0)
(9.72847 0.381728 0)
(10.0082 0.029775 0)
(10.0286 0.0579065 0)
(10.0473 0.0651347 0)
(10.0564 0.0684523 0)
(10.0579 0.0739086 0)
(10.0559 0.0804671 0)
(10.0519 0.0869686 0)
(10.0456 0.0936807 0)
(10.0366 0.101261 0)
(10.0241 0.110327 0)
(10.0084 0.121606 0)
(9.98877 0.135931 0)
(9.96571 0.154843 0)
(9.93823 0.179835 0)
(9.90828 0.213871 0)
(9.87662 0.25988 0)
(9.8482 0.320514 0)
(9.82889 0.397001 0)
(10.0007 0.0258987 0)
(10.0148 0.0518 0)
(10.0293 0.0605752 0)
(10.0374 0.0648303 0)
(10.0391 0.0707829 0)
(10.0372 0.078278 0)
(10.0332 0.0861153 0)
(10.0272 0.0943068 0)
(10.0183 0.103383 0)
(10.0063 0.114002 0)
(9.99091 0.126883 0)
(9.97249 0.143021 0)
(9.95092 0.163761 0)
(9.92698 0.190836 0)
(9.901 0.226151 0)
(9.87623 0.272269 0)
(9.85421 0.329154 0)
(9.84174 0.397527 0)
(9.98875 0.0197067 0)
(9.99932 0.0477097 0)
(10.0127 0.0596539 0)
(10.0218 0.0655047 0)
(10.0246 0.071796 0)
(10.0229 0.0795848 0)
(10.0185 0.0881415 0)
(10.0124 0.0973133 0)
(10.0044 0.107505 0)
(9.9941 0.119378 0)
(9.98086 0.13367 0)
(9.96486 0.151429 0)
(9.94601 0.173786 0)
(9.92553 0.202376 0)
(9.90394 0.238295 0)
(9.8844 0.2834 0)
(9.86803 0.336737 0)
(9.86019 0.398915 0)
(9.97386 0.0216456 0)
(9.97959 0.0438492 0)
(9.9889 0.0564871 0)
(9.99718 0.0638974 0)
(10.0012 0.0713218 0)
(10.0011 0.0801831 0)
(9.99811 0.0899131 0)
(9.99308 0.100242 0)
(9.98592 0.111563 0)
(9.97642 0.124675 0)
(9.96435 0.140359 0)
(9.95006 0.15964 0)
(9.93373 0.183363 0)
(9.91658 0.212913 0)
(9.89926 0.248823 0)
(9.88432 0.29244 0)
(9.87283 0.342575 0)
(9.86873 0.399746 0)
(10.0028 0.0159782 0)
(10.0081 0.0403506 0)
(10.0155 0.0547476 0)
(10.0218 0.0635718 0)
(10.0245 0.0713916 0)
(10.0238 0.0802952 0)
(10.0207 0.0905242 0)
(10.0162 0.101885 0)
(10.0101 0.114457 0)
(10.002 0.12883 0)
(9.9918 0.145719 0)
(9.97971 0.166134 0)
(9.96615 0.190793 0)
(9.95215 0.220811 0)
(9.9386 0.256394 0)
(9.92734 0.298409 0)
(9.91958 0.345638 0)
(9.91778 0.398329 0)
(9.9856 0.0175067 0)
(9.98851 0.0379408 0)
(9.99374 0.0520802 0)
(9.99909 0.0622445 0)
(10.0018 0.0713429 0)
(10.0012 0.0811759 0)
(9.99821 0.0922075 0)
(9.99361 0.104441 0)
(9.9876 0.118018 0)
(9.98017 0.133525 0)
(9.97123 0.1516 0)
(9.9613 0.173076 0)
(9.95084 0.198449 0)
(9.94107 0.228529 0)
(9.9326 0.263326 0)
(9.9273 0.303434 0)
(9.9254 0.347651 0)
(9.92958 0.39619 0)
(9.98306 0.01599 0)
(9.98499 0.0344606 0)
(9.98961 0.0501607 0)
(9.9948 0.0619364 0)
(9.99819 0.0718529 0)
(9.99882 0.0821322 0)
(9.99711 0.0937123 0)
(9.99387 0.106745 0)
(9.98939 0.12124 0)
(9.98378 0.137584 0)
(9.97702 0.156256 0)
(9.96962 0.177987 0)
(9.96202 0.203154 0)
(9.95545 0.23245 0)
(9.9504 0.265699 0)
(9.94867 0.303407 0)
(9.9502 0.344255 0)
(9.95752 0.388673 0)
(9.96335 0.0159954 0)
(9.96594 0.0325423 0)
(9.96965 0.0472199 0)
(9.9741 0.0594728 0)
(9.97749 0.0705426 0)
(9.97863 0.081846 0)
(9.97764 0.0941892 0)
(9.97533 0.10791 0)
(9.97218 0.123188 0)
(9.96839 0.140426 0)
(9.96391 0.159948 0)
(9.95908 0.182289 0)
(9.95425 0.207597 0)
(9.95039 0.236385 0)
(9.94806 0.268312 0)
(9.94863 0.303788 0)
(9.95236 0.341504 0)
(9.96081 0.381939 0)
(10.0236 0.0147923 0)
(10.0254 0.0326547 0)
(10.0276 0.0466675 0)
(10.0298 0.0589486 0)
(10.0311 0.0707061 0)
(10.0313 0.0827254 0)
(10.0305 0.0955571 0)
(10.0287 0.109616 0)
(10.026 0.125178 0)
(10.0226 0.142621 0)
(10.0186 0.1622 0)
(10.0146 0.184353 0)
(10.011 0.209127 0)
(10.0084 0.236893 0)
(10.0078 0.267221 0)
(10.0094 0.300431 0)
(10.0143 0.335255 0)
(10.0225 0.372234 0)
(10.0012 0.0133542 0)
(10.0021 0.0295504 0)
(10.0057 0.0441448 0)
(10.0102 0.057711 0)
(10.0137 0.070178 0)
(10.0157 0.0822651 0)
(10.0166 0.0951416 0)
(10.0167 0.109633 0)
(10.0164 0.125972 0)
(10.0159 0.14423 0)
(10.0154 0.164382 0)
(10.0152 0.186673 0)
(10.0156 0.211109 0)
(10.0171 0.237997 0)
(10.0201 0.266912 0)
(10.0253 0.298097 0)
(10.0332 0.330351 0)
(10.0443 0.364196 0)
(10.0337 0.0163541 0)
(10.0352 0.0284404 0)
(10.0376 0.0423233 0)
(10.0408 0.0559863 0)
(10.0436 0.0690051 0)
(10.0453 0.0819382 0)
(10.0458 0.0954275 0)
(10.0456 0.109962 0)
(10.0454 0.125847 0)
(10.0457 0.14341 0)
(10.0467 0.16282 0)
(10.0487 0.184328 0)
(10.0518 0.207818 0)
(10.0562 0.233439 0)
(10.0623 0.260575 0)
(10.0706 0.289435 0)
(10.0813 0.318716 0)
(10.0948 0.349191 0)
(10.011 0.0109222 0)
(10.0136 0.0260154 0)
(10.0165 0.0403303 0)
(10.0198 0.0540803 0)
(10.023 0.0676765 0)
(10.0257 0.0812933 0)
(10.0278 0.0952175 0)
(10.0296 0.109939 0)
(10.0318 0.12583 0)
(10.0346 0.143168 0)
(10.0383 0.162 0)
(10.0431 0.182499 0)
(10.0491 0.204489 0)
(10.0567 0.228119 0)
(10.0659 0.252761 0)
(10.0774 0.278639 0)
(10.0905 0.304487 0)
(10.1067 0.331116 0)
(9.9939 0.0118347 0)
(9.9955 0.0251277 0)
(9.99788 0.0374072 0)
(10.0022 0.0501815 0)
(10.0079 0.063807 0)
(10.0139 0.0777581 0)
(10.0196 0.0916985 0)
(10.025 0.105856 0)
(10.0306 0.120683 0)
(10.0365 0.136675 0)
(10.0429 0.154002 0)
(10.0504 0.172846 0)
(10.0589 0.192948 0)
(10.0689 0.214366 0)
(10.0803 0.236425 0)
(10.0937 0.259347 0)
(10.1085 0.281911 0)
(10.1257 0.304996 0)
(9.9904 0.00911463 0)
(9.99269 0.0202824 0)
(9.99526 0.0325676 0)
(9.99863 0.0455214 0)
(10.0031 0.0583168 0)
(10.0088 0.0711642 0)
(10.0152 0.0845018 0)
(10.0222 0.0985668 0)
(10.0296 0.11338 0)
(10.0375 0.128987 0)
(10.0459 0.145281 0)
(10.0552 0.162334 0)
(10.0655 0.179918 0)
(10.0772 0.198189 0)
(10.0901 0.216633 0)
(10.1048 0.2356 0)
(10.1207 0.254051 0)
(10.1384 0.272947 0)
(9.99418 0.0108443 0)
(9.99701 0.0196048 0)
(10.0008 0.029383 0)
(10.0055 0.0402715 0)
(10.0115 0.051378 0)
(10.0188 0.0624509 0)
(10.027 0.0737842 0)
(10.0356 0.0858045 0)
(10.0449 0.0987072 0)
(10.0547 0.112506 0)
(10.0653 0.126957 0)
(10.0767 0.141952 0)
(10.089 0.157202 0)
(10.1023 0.17278 0)
(10.1165 0.188274 0)
(10.1319 0.203968 0)
(10.148 0.219059 0)
(10.1653 0.234318 0)
(9.99555 0.00281554 0)
(10.0018 0.0126955 0)
(10.0088 0.0215272 0)
(10.0161 0.0302011 0)
(10.024 0.0393301 0)
(10.0327 0.049156 0)
(10.0418 0.0596548 0)
(10.0515 0.0707495 0)
(10.0617 0.0822648 0)
(10.0724 0.0940697 0)
(10.0837 0.105976 0)
(10.0958 0.117968 0)
(10.1086 0.129879 0)
(10.1223 0.14184 0)
(10.1369 0.153562 0)
(10.1524 0.165355 0)
(10.1685 0.176585 0)
(10.1856 0.18797 0)
(9.99328 -0.0060786 0)
(9.99465 0.00401125 0)
(9.99848 0.0115907 0)
(10.0046 0.0182954 0)
(10.0125 0.0254941 0)
(10.0216 0.0334553 0)
(10.0313 0.0421183 0)
(10.0419 0.0513981 0)
(10.0533 0.0611287 0)
(10.0657 0.0711517 0)
(10.0791 0.0812363 0)
(10.0932 0.0912524 0)
(10.1081 0.100964 0)
(10.1236 0.110411 0)
(10.1396 0.119394 0)
(10.156 0.128211 0)
(10.1727 0.136466 0)
(10.1899 0.14476 0)
(10.0014 0.000663973 0)
(10.004 0.00456007 0)
(10.0097 0.00847445 0)
(10.018 0.0128074 0)
(10.0275 0.0182173 0)
(10.038 0.0246603 0)
(10.0493 0.0316716 0)
(10.0616 0.0388459 0)
(10.0745 0.0460257 0)
(10.0881 0.05325 0)
(10.1023 0.0605123 0)
(10.1171 0.0678565 0)
(10.1326 0.0751836 0)
(10.1487 0.0825436 0)
(10.1654 0.0897325 0)
(10.1825 0.0968992 0)
(10.1999 0.103635 0)
(10.2175 0.110345 0)
(10.0118 -0.00612859 0)
(10.0152 -0.00662496 0)
(10.022 -0.00307844 0)
(10.0312 0.00131866 0)
(10.0417 0.00537142 0)
(10.0533 0.00956768 0)
(10.0655 0.0145017 0)
(10.0783 0.0203839 0)
(10.0918 0.026971 0)
(10.1061 0.0338277 0)
(10.1211 0.0405186 0)
(10.1365 0.0468487 0)
(10.1524 0.0527253 0)
(10.1686 0.0583049 0)
(10.1851 0.0635889 0)
(10.2019 0.06884 0)
(10.219 0.0738298 0)
(10.2363 0.0789414 0)
(9.99629 -0.00162297 0)
(10.0038 -0.00640358 0)
(10.0128 -0.00720611 0)
(10.0234 -0.00550431 0)
(10.0352 -0.0024341 0)
(10.0473 0.0012714 0)
(10.0595 0.00526847 0)
(10.0722 0.00952633 0)
(10.0859 0.0139902 0)
(10.1005 0.0185866 0)
(10.1159 0.0232438 0)
(10.132 0.0279379 0)
(10.1484 0.0325688 0)
(10.165 0.037136 0)
(10.1818 0.0414858 0)
(10.1986 0.045725 0)
(10.2155 0.0496163 0)
(10.2326 0.0534546 0)
(10.0285 -0.0144819 0)
(10.036 -0.0148339 0)
(10.0464 -0.0157218 0)
(10.0582 -0.0152159 0)
(10.0699 -0.0130915 0)
(10.0813 -0.0100607 0)
(10.0927 -0.00673114 0)
(10.1046 -0.00329192 0)
(10.1173 0.000303873 0)
(10.1309 0.00408276 0)
(10.1453 0.00794555 0)
(10.1604 0.011809 0)
(10.176 0.0155594 0)
(10.1921 0.0191897 0)
(10.2085 0.0225998 0)
(10.2251 0.02589 0)
(10.2418 0.0288929 0)
(10.2585 0.0318333 0)
(9.99359 -0.0152141 0)
(9.99914 -0.0203307 0)
(10.0094 -0.0227309 0)
(10.022 -0.0223594 0)
(10.0351 -0.0202469 0)
(10.0481 -0.0175072 0)
(10.0612 -0.0148167 0)
(10.0747 -0.0123176 0)
(10.0887 -0.00989809 0)
(10.1033 -0.00748209 0)
(10.1184 -0.00507359 0)
(10.1341 -0.00266014 0)
(10.1503 -0.000271757 0)
(10.1668 0.00212547 0)
(10.1837 0.00447848 0)
(10.2009 0.00683861 0)
(10.2182 0.00907224 0)
(10.2356 0.0113184 0)
(9.99878 -0.0143891 0)
(10.0093 -0.0251403 0)
(10.0219 -0.0275202 0)
(10.0347 -0.0267506 0)
(10.0473 -0.0257887 0)
(10.0605 -0.0248605 0)
(10.0747 -0.0234431 0)
(10.0901 -0.0215243 0)
(10.1064 -0.0194488 0)
(10.123 -0.0174439 0)
(10.1398 -0.0155551 0)
(10.1566 -0.0137436 0)
(10.1736 -0.0120047 0)
(10.1905 -0.0102995 0)
(10.2074 -0.00867827 0)
(10.2242 -0.00707761 0)
(10.2409 -0.00559541 0)
(10.2574 -0.0040723 0)
(9.96814 -0.024716 0)
(9.9828 -0.0340636 0)
(10.0007 -0.0368474 0)
(10.0171 -0.0362019 0)
(10.0309 -0.0355295 0)
(10.0439 -0.0352742 0)
(10.0576 -0.0346699 0)
(10.0724 -0.0335297 0)
(10.088 -0.0321324 0)
(10.104 -0.0306961 0)
(10.1203 -0.0292998 0)
(10.1367 -0.0279386 0)
(10.1535 -0.0265911 0)
(10.1704 -0.0252221 0)
(10.1874 -0.023866 0)
(10.2044 -0.0225084 0)
(10.2214 -0.0212409 0)
(10.2382 -0.0200108 0)
(10.0078 -0.0258263 0)
(10.0206 -0.0346353 0)
(10.0388 -0.0363951 0)
(10.0546 -0.0362833 0)
(10.0672 -0.036864 0)
(10.0796 -0.0375328 0)
(10.0936 -0.0375192 0)
(10.109 -0.0369351 0)
(10.1252 -0.0361727 0)
(10.1419 -0.0354538 0)
(10.1586 -0.0347988 0)
(10.1754 -0.0341949 0)
(10.1923 -0.0335981 0)
(10.2093 -0.0330142 0)
(10.2265 -0.0324089 0)
(10.2437 -0.0318143 0)
(10.261 -0.031229 0)
(10.278 -0.030678 0)
(10.0006 -0.0330315 0)
(10.0358 -0.0500035 0)
(10.0681 -0.0484973 0)
(10.0923 -0.0472088 0)
(10.1105 -0.0479838 0)
(10.1251 -0.0489703 0)
(10.1374 -0.049344 0)
(10.148 -0.0491948 0)
(10.1573 -0.0487755 0)
(10.1657 -0.0482596 0)
(10.1732 -0.0477155 0)
(10.1801 -0.0472218 0)
(10.1862 -0.0467514 0)
(10.192 -0.0463413 0)
(10.197 -0.0458967 0)
(10.2019 -0.0454849 0)
(10.2059 -0.0450246 0)
(10.2102 -0.0446494 0)
(9.91923 -0.0402417 0)
(9.75293 -0.0517392 0)
(9.58638 -0.0499841 0)
(9.41975 -0.0486929 0)
(9.25757 -0.0482397 0)
(9.10298 -0.0473392 0)
(8.95712 -0.0459731 0)
(8.81988 -0.044589 0)
(8.69053 -0.0434127 0)
(8.56855 -0.0424173 0)
(8.45325 -0.0414976 0)
(8.34446 -0.0406137 0)
(8.24139 -0.0397302 0)
(8.14434 -0.0388796 0)
(8.052 -0.0380258 0)
(7.96559 -0.0372227 0)
(7.88255 -0.0364151 0)
(7.80612 -0.0357112 0)
(-0.175971 0.363009 -1.65396e-21)
(-0.386635 0.15451 1.66422e-21)
(-0.458806 -0.0214072 0)
(-0.411983 -0.17378 0)
(-0.217483 -0.312928 0)
(0.0843073 -0.422452 -1.60809e-21)
(0.479837 -0.492606 0)
(0.928739 -0.515035 0)
(1.39483 -0.505048 0)
(1.84263 -0.467456 0)
(2.25543 -0.409676 1.72082e-21)
(2.6177 -0.338922 0)
(2.91719 -0.260612 0)
(3.14484 -0.178865 0)
(3.29554 -0.0960992 0)
(3.36795 -0.014226 2.14495e-21)
(3.36123 0.0660138 0)
(3.27723 0.143208 0)
(3.11613 0.217243 0)
(2.88496 0.284763 0)
(2.58213 0.345269 0)
(2.22912 0.389384 0)
(1.81829 0.421019 0)
(1.39518 0.408327 1.75179e-21)
(0.93782 0.40838 -1.6922e-21)
(0.508241 0.314277 1.65345e-21)
(0.125092 0.174318 1.63659e-21)
(-0.267189 0.0335677 0)
(-0.565582 -0.142467 0)
(-0.841481 -0.0465213 -1.69079e-21)
(-1.16812 0.135579 -1.73108e-21)
(-1.54538 0.207891 0)
(-1.95701 0.241549 0)
(-2.34889 0.234435 -1.93499e-21)
(-2.666 0.185705 0)
(-2.90307 0.131472 0)
(-3.07424 0.0814059 2.11721e-21)
(-3.17344 0.0338217 0)
(-3.24928 0.0335106 2.26814e-21)
(-3.37205 0.109571 4.80499e-21)
(-3.60137 0.177438 0)
(-3.90767 0.226485 0)
(-4.29872 0.24015 0)
(-4.65657 0.205937 0)
(-4.95969 0.176842 0)
(-5.29249 0.0635981 6.06705e-21)
(-5.66093 0.0323321 6.2284e-21)
(-6.0526 0.169941 6.37898e-21)
(-6.50166 0.347524 0)
(-6.99794 0.406684 -6.57653e-21)
(-7.43228 0.351994 0)
(-7.7915 0.297175 6.88085e-21)
(-8.09317 0.246007 7.05059e-21)
(-8.33644 0.19956 0)
(-8.53106 0.159301 0)
(-8.68124 0.124307 0)
(-8.79332 0.0945274 7.5262e-21)
(-8.87173 0.0689425 0)
(-8.92071 0.0470023 0)
(-8.94355 0.0278953 0)
(-8.94288 0.0110415 0)
(-8.92074 -0.00413166 0)
(-8.87849 -0.0180653 0)
(-8.81704 -0.03112 0)
(-8.73682 -0.0435525 0)
(-8.63797 -0.0554996 -6.92333e-21)
(-8.5204 -0.0670331 0)
(-8.38424 -0.078093 0)
(-8.22989 -0.0886209 6.21428e-21)
(-8.05785 -0.0984755 5.9205e-21)
(-7.86868 -0.107544 0)
(-7.66387 -0.115694 -5.25695e-21)
(-7.44442 -0.122879 4.89352e-21)
(-7.21188 -0.128996 0)
(-6.96785 -0.134015 -4.12334e-21)
(-6.71418 -0.137915 0)
(-6.45263 -0.140775 0)
(-6.18486 -0.142721 2.92437e-21)
(-5.91218 -0.143947 0)
(-5.63555 -0.144709 -2.13719e-21)
(-5.35548 -0.145243 0)
(-5.07203 -0.145789 1.37805e-21)
(-4.78489 -0.146564 1.01046e-21)
(-4.49343 -0.147715 6.50836e-22)
(-4.19679 -0.149289 5.97977e-22)
(-3.89405 -0.151324 9.01092e-23)
(-3.5844 -0.153701 0)
(-3.26723 -0.156282 0)
(-2.9422 -0.158904 0)
(-2.60937 -0.161321 2.65405e-21)
(-2.2692 -0.163359 3.23215e-21)
(-1.92262 -0.164796 -3.77645e-21)
(-1.57089 -0.165415 0)
(-1.21565 -0.165087 4.74464e-21)
(-0.858949 -0.163656 5.15974e-21)
(-0.503 -0.161036 5.5241e-21)
(-0.150139 -0.157174 0)
(0.197236 -0.152093 0)
(0.536559 -0.145856 0)
(0.86537 -0.138607 6.45017e-21)
(1.18108 -0.131055 0)
(1.48155 -0.122518 0)
(1.7658 -0.113641 -6.63646e-21)
(2.03261 -0.10443 0)
(2.28145 -0.0951784 0)
(2.51202 -0.0859984 -6.52847e-21)
(2.72432 -0.077084 0)
(2.91851 -0.0685629 0)
(3.09518 -0.0604637 6.26421e-21)
(3.25513 -0.0528338 6.15941e-21)
(3.39912 -0.0457008 0)
(3.52798 -0.039064 -5.9407e-21)
(3.64258 -0.03291 0)
(3.74378 -0.0272178 5.72078e-21)
(3.83241 -0.0219628 0)
(3.90927 -0.0171202 5.50824e-21)
(3.9751 -0.0126673 5.40643e-21)
(4.03062 -0.0085832 0)
(4.0765 -0.00485157 0)
(4.11342 -0.00146627 0)
(4.14207 0.00157209 0)
(4.16313 0.00427788 0)
(4.17733 0.00668121 0)
(4.18531 0.00880867 0)
(4.18767 0.0106929 4.7331e-21)
(4.18494 0.0123703 -4.66665e-21)
(4.17765 0.01381 0)
(4.16647 0.0149242 0)
(4.15223 0.0157185 0)
(4.13557 0.0163385 0)
(4.11687 0.0169316 -8.76361e-21)
(4.09623 0.0175306 0)
(4.07368 0.0180405 8.5723e-21)
(4.04935 0.0183326 -8.48271e-21)
(4.02356 0.0183455 0)
(3.99677 0.0181258 0)
(3.96941 0.0177966 0)
(3.94177 0.0174954 8.15799e-21)
(3.9139 0.0173148 8.08424e-21)
(3.88572 0.0172824 0)
(3.85705 0.0173781 7.94403e-21)
(3.82771 0.0175562 7.87709e-21)
(3.79755 0.0177562 -7.81199e-21)
(3.76648 0.0179114 0)
(3.73451 0.0179638 0)
(3.70171 0.0178759 -7.62608e-21)
(3.66825 0.0176275 0)
(3.63436 0.0171998 0)
(3.60033 0.0165603 0)
(3.5666 0.0156724 0)
(3.53367 0.0145306 7.3403e-21)
(3.50207 0.0131951 7.28628e-21)
(3.47221 0.0117846 0)
(3.44435 0.010429 7.18161e-21)
(3.41851 0.00922119 0)
(3.39461 0.00819381 0)
(3.37247 0.00732626 7.0327e-21)
(3.35196 0.00657183 0)
(3.33297 0.00588606 6.938e-21)
(3.31545 0.00525043 0)
(3.2993 0.00467052 0)
(3.28449 0.00416809 6.80241e-21)
(3.27073 0.00376446 0)
(3.25802 0.00347102 6.7165e-21)
(3.24577 0.00329567 0)
(3.23417 0.00322097 0)
(3.2222 0.00327098 0)
(3.21053 0.00338676 -6.55635e-21)
(3.19736 0.00369559 0)
(3.18426 0.00399654 6.48373e-21)
(3.16803 0.0047478 0)
(3.15135 0.00523545 0)
(3.12948 0.00695837 0)
(3.10461 0.00749663 0)
(3.07383 0.0116807 0)
(3.02831 0.0115614 0)
(2.98689 0.0228548 0)
(2.88182 0.0195141 -1.26727e-20)
(2.84091 0.0552254 0)
(2.53665 0.0447757 0)
(0.0110696 0.704559 5.02674e-21)
(0.0661447 0.382736 -5.04312e-21)
(0.133798 0.025281 0)
(0.335764 -0.324256 3.41127e-21)
(0.669602 -0.729302 0)
(1.09386 -1.06368 1.60337e-21)
(1.54963 -1.28047 -3.44155e-21)
(1.99752 -1.37558 -3.51231e-21)
(2.41474 -1.36754 0)
(2.78945 -1.27918 -3.81579e-21)
(3.11326 -1.13323 -1.7142e-21)
(3.38065 -0.94955 0)
(3.58734 -0.743845 0)
(3.73306 -0.527201 0)
(3.81854 -0.307705 0)
(3.84549 -0.090728 -2.13944e-21)
(3.81547 0.119067 0)
(3.73237 0.318874 4.79339e-21)
(3.59778 0.504859 0)
(3.41518 0.676801 0)
(3.18745 0.827636 -4.40143e-21)
(2.91592 0.957425 0)
(2.61452 1.04701 4.03022e-21)
(2.2771 1.11505 -1.74339e-21)
(1.93965 1.11073 1.68331e-21)
(1.55147 1.05657 -1.64417e-21)
(1.08314 1.1 -1.62693e-21)
(0.501272 1.13666 0)
(-0.152592 1.109 0)
(-0.883635 1.0541 1.68352e-21)
(-1.57761 1.00099 -2.00094e-21)
(-2.12377 0.989742 0)
(-2.63399 0.958452 0)
(-3.04908 0.838287 1.92963e-21)
(-3.38904 0.64695 0)
(-3.67136 0.438345 0)
(-3.9 0.256048 -2.11058e-21)
(-4.05952 0.117568 0)
(-4.23027 0.154788 2.81786e-21)
(-4.44809 0.384112 -4.79033e-21)
(-4.72497 0.616962 0)
(-5.05882 0.830854 0)
(-5.40392 0.854373 -1.18569e-20)
(-5.86525 0.704526 -1.21938e-20)
(-6.35369 0.768809 -1.25743e-20)
(-6.86291 0.953162 6.84985e-21)
(-7.41832 1.02658 -6.21391e-21)
(-7.8574 1.01112 -1.99881e-20)
(-8.181 0.944657 1.38936e-20)
(-8.44825 0.843496 6.56058e-21)
(-8.66187 0.712952 0)
(-8.82927 0.590776 -6.86622e-21)
(-8.95881 0.474315 7.83329e-21)
(-9.05228 0.37162 0)
(-9.11578 0.281175 0)
(-9.15235 0.203281 0)
(-9.16598 0.136131 -7.51625e-21)
(-9.15927 0.078258 0)
(-9.13465 0.0279502 1.55209e-20)
(-9.09392 -0.016299 0)
(-9.03845 -0.0558628 1.53538e-20)
(-8.96918 -0.0919317 0)
(-8.8866 -0.125543 -1.49968e-20)
(-8.79088 -0.157563 0)
(-8.68186 -0.188646 1.44386e-20)
(-8.55914 -0.219225 -7.15363e-21)
(-8.42227 -0.249492 0)
(-8.27066 -0.279349 -1.31788e-20)
(-8.1036 -0.308479 -6.21612e-21)
(-7.92073 -0.336423 -5.92244e-21)
(-7.72238 -0.362625 0)
(-7.50858 -0.386584 -5.43238e-21)
(-7.2806 -0.407833 -4.89503e-21)
(-7.03973 -0.425999 0)
(-6.78774 -0.440873 4.12457e-21)
(-6.52641 -0.452419 -7.57382e-21)
(-6.25763 -0.460825 0)
(-5.98307 -0.466502 -2.92533e-21)
(-5.70413 -0.470024 0)
(-5.42171 -0.472139 6.50226e-21)
(-5.13629 -0.473577 0)
(-4.84787 -0.475074 -4.22129e-21)
(-4.55604 -0.477265 -1.01118e-21)
(-4.26006 -0.480609 7.39024e-22)
(-3.95897 -0.485304 7.78603e-22)
(-3.65176 -0.491371 -9.45189e-23)
(-3.33754 -0.498537 0)
(-3.01569 -0.506356 0)
(-2.68588 -0.514272 0)
(-2.34818 -0.521653 -7.77253e-21)
(-2.00312 -0.527899 -3.23047e-21)
(-1.65163 -0.532366 3.77465e-21)
(-1.29502 -0.534494 0)
(-0.934987 -0.533831 4.58325e-21)
(-0.573545 -0.529996 -5.15752e-21)
(-0.212925 -0.522699 -5.52175e-21)
(0.144587 -0.511761 0)
(0.49667 -0.497162 0)
(0.840797 -0.47915 0)
(1.17437 -0.458357 -6.44676e-21)
(1.49506 -0.435287 0)
(1.80107 -0.410176 1.31292e-20)
(2.09129 -0.383805 1.98107e-20)
(2.36472 -0.356617 -1.31632e-20)
(2.6208 -0.329208 0)
(2.85936 -0.302103 -6.45688e-21)
(3.0804 -0.275738 0)
(3.28421 -0.250505 -1.26609e-20)
(3.47144 -0.226493 6.2094e-21)
(3.64291 -0.203867 6.10986e-21)
(3.79934 -0.182688 0)
(3.94161 -0.162953 1.77742e-20)
(4.07058 -0.144619 -1.16208e-20)
(4.18709 -0.127618 -5.71704e-21)
(4.29196 -0.111874 0)
(4.38595 -0.0973097 -5.50465e-21)
(4.46979 -0.0838506 -1.61893e-20)
(4.54415 -0.0714305 0)
(4.60971 -0.0600004 -1.04056e-20)
(4.66709 -0.0495366 -1.02266e-20)
(4.7169 -0.0400379 -1.00556e-20)
(4.75985 -0.0314982 0)
(4.79666 -0.0238811 0)
(4.82803 -0.0171075 0)
(4.85449 -0.0110795 4.72179e-21)
(4.87641 -0.00573939 4.663e-21)
(4.89411 -0.00113583 0)
(4.90804 0.00262978 9.07441e-21)
(4.91884 0.00557206 8.96132e-21)
(4.92738 0.00787609 0)
(4.93447 0.00981662 8.75571e-21)
(4.9406 0.0116219 1.73082e-20)
(4.94581 0.0133781 -8.56418e-21)
(4.94983 0.015017 -8.46844e-21)
(4.95231 0.0163867 0)
(4.95303 0.0173618 0)
(4.95214 0.0179296 0)
(4.95005 0.0181988 -8.1493e-21)
(4.94734 0.0183384 8.07222e-21)
(4.94454 0.0184959 1.60054e-20)
(4.94202 0.018754 -7.93513e-21)
(4.93994 0.0191362 7.86554e-21)
(4.93831 0.0196291 7.80294e-21)
(4.93698 0.0202013 0)
(4.93572 0.0208104 0)
(4.93425 0.021405 -7.61494e-21)
(4.93232 0.0219237 0)
(4.92975 0.0222967 0)
(4.92641 0.0224497 1.48827e-20)
(4.92225 0.022313 0)
(4.91729 0.0218406 7.33028e-21)
(4.91158 0.0210329 -7.27649e-21)
(4.90522 0.0199492 0)
(4.89834 0.0186951 7.17237e-21)
(4.89108 0.017381 0)
(4.88354 0.0160839 0)
(4.87586 0.0148364 -7.02301e-21)
(4.86816 0.0136401 1.39513e-20)
(4.86055 0.012487 -6.92845e-21)
(4.8532 0.0113764 0)
(4.8462 0.0103274 0)
(4.83964 0.00936531 6.79359e-21)
(4.83351 0.00853966 0)
(4.82783 0.00786589 6.70753e-21)
(4.82245 0.00740879 0)
(4.81733 0.00711858 0)
(4.8122 0.00712824 0)
(4.80698 0.00724248 6.5476e-21)
(4.8013 0.00785182 0)
(4.79489 0.00836911 -6.47513e-21)
(4.78759 0.00994486 0)
(4.77821 0.0108469 0)
(4.76793 0.0143766 1.27591e-20)
(4.75196 0.0155127 -1.27081e-20)
(4.73731 0.0236055 0)
(4.70629 0.0243661 0)
(4.68703 0.0443615 0)
(4.61874 0.0438032 3.78973e-20)
(4.60173 0.0994632 0)
(4.4392 0.103598 -2.53285e-20)
(0.0695921 0.324966 -3.24858e-23)
(0.204373 0.0375316 6.69681e-21)
(0.50438 -0.503815 0)
(0.980785 -1.17057 -6.82932e-21)
(1.50161 -1.73944 0)
(1.98428 -2.11205 0)
(2.39855 -2.28259 -4.77708e-22)
(2.73965 -2.28172 3.49871e-21)
(3.01408 -2.15073 4.34386e-21)
(3.22956 -1.92938 3.80576e-21)
(3.39174 -1.6506 0)
(3.50494 -1.33916 0)
(3.5729 -1.01285 -5.23635e-21)
(3.59825 -0.683768 -1.07641e-20)
(3.58255 -0.360219 1.09515e-20)
(3.52704 -0.047595 0)
(3.43432 0.249601 1.09885e-20)
(3.3074 0.528078 -4.7945e-21)
(3.15075 0.784936 0)
(2.96847 1.01815 1.02814e-20)
(2.76696 1.22444 4.40023e-21)
(2.54283 1.39388 -9.49869e-21)
(2.30384 1.53173 -4.02621e-21)
(2.0516 1.5917 0)
(1.76961 1.63615 8.32841e-21)
(1.36922 1.80161 8.04157e-21)
(0.91898 1.96666 0)
(0.400632 2.14269 7.7069e-21)
(-0.167627 2.26188 0)
(-0.756933 2.2847 7.78663e-21)
(-1.37078 2.1921 3.70719e-21)
(-1.93332 2.01383 0)
(-2.45236 1.79608 0)
(-2.88871 1.53462 0)
(-3.28111 1.2509 0)
(-3.61528 0.970363 0)
(-3.94042 0.735286 0)
(-4.21162 0.557526 1.07384e-20)
(-4.53525 0.605386 -1.62693e-20)
(-4.9172 0.854963 0)
(-5.32363 1.11476 0)
(-5.80581 1.28503 0)
(-6.19619 1.50395 -1.10599e-21)
(-6.78541 1.61748 1.21828e-20)
(-7.24498 1.64412 2.62903e-20)
(-7.61463 1.60494 -2.69908e-20)
(-7.91462 1.50255 -1.44514e-20)
(-8.1314 1.37546 1.36191e-20)
(-8.28802 1.22874 1.18332e-21)
(-8.39689 1.06266 1.53141e-20)
(-8.47557 0.887818 0)
(-8.5335 0.72184 1.56963e-20)
(-8.57646 0.568258 9.67221e-22)
(-8.60639 0.432716 0)
(-8.62455 0.313865 0)
(-8.631 0.211199 -1.60923e-20)
(-8.62595 0.122222 0)
(-8.60934 0.0448915 0)
(-8.58123 -0.0230329 1.64938e-20)
(-8.54164 -0.0834823 3.18294e-20)
(-8.49059 -0.138212 -1.53702e-20)
(-8.42801 -0.188791 0)
(-8.35367 -0.236639 1.50137e-20)
(-8.26706 -0.283004 0)
(-8.1674 -0.328869 1.51463e-20)
(-8.05374 -0.374914 1.40945e-20)
(-7.92502 -0.421407 -2.80182e-20)
(-7.78026 -0.468199 -1.38507e-20)
(-7.61878 -0.514668 0)
(-7.44033 -0.559933 2.47297e-20)
(-7.24526 -0.602874 0)
(-7.03437 -0.642386 3.26612e-20)
(-6.80894 -0.677448 2.04341e-20)
(-6.57065 -0.707298 1.88439e-20)
(-6.3215 -0.731503 -1.72079e-20)
(-6.06365 -0.749979 2.31298e-20)
(-5.79927 -0.763071 0)
(-5.53029 -0.771493 0)
(-5.25827 -0.776309 -1.06051e-20)
(-4.98417 -0.778802 -1.33848e-20)
(-4.70836 -0.780293 0)
(-4.43068 -0.782063 2.84641e-21)
(-4.15045 -0.785175 0)
(-3.86658 -0.790399 -4.45472e-21)
(-3.57777 -0.798092 2.82481e-22)
(-3.28272 -0.808196 -2.89817e-22)
(-2.98029 -0.820234 -1.03601e-21)
(-2.66974 -0.833385 0)
(-2.35073 -0.846652 3.60308e-21)
(-2.02343 -0.858959 2.95644e-22)
(-1.68846 -0.869261 0)
(-1.34691 -0.876537 0)
(-1.00032 -0.8799 0)
(-0.65055 -0.878637 -9.32431e-21)
(-0.299791 -0.872224 0)
(0.0496336 -0.860202 0)
(0.395444 -0.842199 0)
(0.735338 -0.818106 0)
(1.06662 -0.788627 0)
(1.38688 -0.75429 -1.261e-20)
(1.69418 -0.71594 0)
(1.98677 -0.674375 -1.31217e-20)
(2.26364 -0.630623 -1.31713e-20)
(2.52405 -0.585737 1.31559e-20)
(2.76759 -0.540619 0)
(2.99424 -0.496185 1.29743e-20)
(3.20417 -0.453074 0)
(3.39779 -0.411834 1.26551e-20)
(3.57584 -0.372665 -1.2464e-20)
(3.73906 -0.335829 -3.66286e-20)
(3.88821 -0.30141 0)
(4.0241 -0.269398 -3.53795e-20)
(4.14752 -0.239716 -1.15096e-20)
(4.25928 -0.212246 0)
(4.36013 -0.186855 -2.22988e-20)
(4.45079 -0.163411 -2.18958e-20)
(4.53193 -0.141798 3.22879e-20)
(4.60419 -0.121907 0)
(4.66816 -0.103643 1.0404e-20)
(4.72443 -0.0869547 1.02252e-20)
(4.77353 -0.0718461 3.01238e-20)
(4.81603 -0.0583493 0)
(4.85266 -0.0464241 0)
(4.88433 -0.0358698 0)
(4.91182 -0.0263773 9.42577e-21)
(4.93549 -0.0177438 0)
(4.95518 -0.0100675 0)
(4.97059 -0.00368717 -9.07362e-21)
(4.98194 0.00113146 -8.96053e-21)
(4.9902 0.00449958 0)
(4.99675 0.00689758 0)
(5.00271 0.00890751 -1.73067e-20)
(5.00846 0.0109455 0)
(5.01382 0.01315 1.69415e-20)
(5.01828 0.015391 1.67619e-20)
(5.02137 0.0173867 0)
(5.02288 0.018874 0)
(5.02294 0.0197272 -1.62878e-20)
(5.022 0.0199857 -5.10726e-24)
(5.0207 0.0198147 -4.57434e-24)
(5.0197 0.0194331 0)
(5.0195 0.0190401 -3.14606e-20)
(5.02035 0.0187739 0)
(5.02226 0.0187044 0)
(5.02506 0.0188414 0)
(5.02848 0.0191464 1.52301e-20)
(5.03224 0.0195447 0)
(5.03612 0.019936 -2.99871e-20)
(5.03991 0.0202061 -1.48809e-20)
(5.04345 0.0202473 0)
(5.04659 0.0199863 -1.46588e-20)
(5.04924 0.0194115 0)
(5.05131 0.0185838 0)
(5.05277 0.0176159 -4.30267e-20)
(5.05362 0.0166191 2.84826e-20)
(5.05387 0.015656 0)
(5.0535 0.0147287 2.80898e-20)
(5.05256 0.0137961 -1.39487e-20)
(5.0511 0.0128162 0)
(5.04922 0.0117666 0)
(5.04711 0.0106794 0)
(5.0449 0.00960287 -4.07529e-20)
(5.04278 0.00863727 0)
(5.04078 0.00781702 -1.34122e-20)
(5.03902 0.00726087 0)
(5.03736 0.00690119 0)
(5.03591 0.00694332 0)
(5.03427 0.00712862 0)
(5.03274 0.00798137 0)
(5.03042 0.00878639 0)
(5.02818 0.010931 -2.57475e-20)
(5.02394 0.0124819 0)
(5.02007 0.0170602 -1.27562e-20)
(5.01168 0.0195522 3.80961e-20)
(5.0049 0.0293255 0)
(4.98828 0.0332555 0)
(4.97716 0.0554145 -2.51782e-20)
(4.9454 0.0636483 -2.52345e-20)
(4.9307 0.118503 2.51428e-20)
(4.88016 0.145556 2.53186e-20)
(-0.0387325 0.0562105 -1.00333e-20)
(0.314498 -0.611112 -1.00364e-20)
(0.937551 -1.6678 -6.92169e-21)
(1.52116 -2.44083 -3.89176e-21)
(1.99341 -2.86819 0)
(2.33784 -3.00677 8.4155e-21)
(2.56838 -2.93192 -5.11811e-21)
(2.71066 -2.71051 0)
(2.79005 -2.39722 -4.34323e-21)
(2.828 -2.03396 0)
(2.83972 -1.64846 1.11674e-20)
(2.8332 -1.25664 0)
(2.81025 -0.866734 5.24569e-21)
(2.76788 -0.484304 1.07849e-20)
(2.70203 -0.114098 -1.09733e-20)
(2.60957 0.239112 0)
(2.49124 0.570537 -1.10101e-20)
(2.34832 0.87632 0)
(2.18447 1.15489 0)
(2.00402 1.40472 -1.02985e-20)
(1.8158 1.62597 0)
(1.61652 1.8142 -9.92456e-22)
(1.42299 1.9388 0)
(1.18829 2.07768 0)
(0.877386 2.30192 9.8854e-22)
(0.526955 2.53873 -8.0377e-21)
(0.145743 2.77237 -8.79385e-21)
(-0.247132 2.96532 -7.69401e-21)
(-0.647242 3.07918 0)
(-1.04857 3.10158 -1.63335e-20)
(-1.47515 3.02104 0)
(-1.91535 2.83844 -8.84355e-21)
(-2.3692 2.58466 0)
(-2.80804 2.28178 0)
(-3.24227 1.94758 9.84855e-21)
(-3.6558 1.61095 0)
(-4.07466 1.33407 -1.07225e-20)
(-4.48303 1.18478 5.26434e-22)
(-4.96337 1.33414 2.30739e-20)
(-5.47533 1.68152 -2.5061e-20)
(-5.99223 2.02797 0)
(-6.45963 2.18388 0)
(-6.8252 2.25013 -1.54116e-20)
(-7.17399 2.20319 0)
(-7.41169 2.0878 -1.37255e-20)
(-7.60806 1.93378 1.41007e-20)
(-7.7387 1.74647 1.44561e-20)
(-7.83264 1.54884 0)
(-7.89558 1.34561 -1.50845e-20)
(-7.93816 1.14357 -1.53258e-20)
(-7.96854 0.948686 3.33995e-20)
(-7.9892 0.767521 -1.57103e-20)
(-8.00309 0.601895 -1.58592e-20)
(-8.00997 0.45372 0)
(-8.01017 0.32187 0)
(-8.00286 0.205419 1.61093e-20)
(-7.98781 0.10233 0)
(-7.96447 0.0107386 0)
(-7.93264 -0.071379 -3.20671e-20)
(-7.89202 -0.145893 -3.1867e-20)
(-7.84243 -0.214606 0)
(-7.78356 -0.27923 0)
(-7.71495 -0.341412 0)
(-7.63578 -0.402682 0)
(-7.54485 -0.464305 -2.96403e-20)
(-7.44065 -0.527101 2.9781e-20)
(-7.32151 -0.591331 2.80564e-20)
(-7.1858 -0.656679 5.50196e-20)
(-7.0323 -0.722179 0)
(-6.86033 -0.786319 8.07691e-22)
(-6.66997 -0.847254 0)
(-6.46215 -0.903104 -2.19872e-20)
(-6.23845 -0.952364 6.70613e-22)
(-6.00106 -0.993889 -1.88691e-20)
(-5.75254 -1.027 1.7231e-20)
(-5.49567 -1.05152 4.98699e-22)
(-5.23324 -1.06796 0)
(-4.96774 -1.07743 1.26542e-20)
(-4.7012 -1.08159 1.06208e-20)
(-4.43485 -1.08249 1.84105e-20)
(-4.16917 -1.08229 0)
(-3.90388 -1.08296 -6.30674e-21)
(-3.63801 -1.08615 0)
(-3.37 -1.09297 6.48887e-21)
(-3.09794 -1.10394 -1.67085e-21)
(-2.81992 -1.11882 3.03939e-22)
(-2.5343 -1.13678 1.03226e-21)
(-2.23996 -1.15641 3.89435e-21)
(-1.93635 -1.17609 -3.60082e-21)
(-1.62356 -1.19415 4.82104e-21)
(-1.3023 -1.20906 0)
(-0.973727 -1.21941 -1.34392e-20)
(-0.639612 -1.22395 0)
(-0.302119 -1.22169 -1.74497e-20)
(0.0363009 -1.21196 1.91938e-20)
(0.372969 -1.19426 2.07394e-20)
(0.705341 -1.16825 -2.20723e-20)
(1.03075 -1.13397 -2.31821e-20)