/*--------------------------------*- C++ -*----------------------------------*\
  =========                 |
  \\      /  F ield         | OpenFOAM: The Open Source CFD Toolbox
   \\    /   O peration     | Website:  https://openfoam.org
    \\  /    A nd           | Version:  9
     \\/     M anipulation  |
\*---------------------------------------------------------------------------*/
FoamFile
{
    format      ascii;
    class       surfaceScalarField;
    location    "0.03";
    object      phi;
}
// * * * * * * * * * * * * * * * * * * * * * * * * * * * * * * * * * * * * * //

dimensions      [0 3 -1 0 0 0 0];

internalField   nonuniform List<scalar> 
24170
(
3.13306e-06
5.5349e-08
3.0469e-06
8.61572e-08
2.97041e-06
7.64931e-08
2.8997e-06
7.07059e-08
2.83239e-06
6.73148e-08
2.77213e-06
6.02607e-08
2.71957e-06
5.25553e-08
2.67373e-06
4.5837e-08
2.63325e-06
4.04813e-08
2.59685e-06
3.63998e-08
2.56342e-06
3.34311e-08
2.53195e-06
3.14677e-08
2.50148e-06
3.0473e-08
2.47093e-06
3.05483e-08
2.43896e-06
3.19697e-08
2.40293e-06
3.60335e-08
2.36012e-06
4.28044e-08
6.71628e-08
2.29296e-06
3.4537e-06
1.88941e-08
3.45594e-06
8.39197e-08
3.44871e-06
8.37199e-08
3.4361e-06
8.33216e-08
3.42021e-06
8.32057e-08
3.40084e-06
7.96325e-08
3.37891e-06
7.4486e-08
3.35518e-06
6.95665e-08
3.33036e-06
6.52942e-08
3.30501e-06
6.1756e-08
3.27942e-06
5.90143e-08
3.25374e-06
5.71559e-08
3.22792e-06
5.62909e-08
3.20178e-06
5.66825e-08
3.17513e-06
5.86267e-08
3.14762e-06
6.35361e-08
3.11943e-06
7.09993e-08
9.58731e-08
3.09072e-06
3.66528e-06
1.61291e-08
3.67766e-06
7.15381e-08
3.6839e-06
7.7481e-08
3.68701e-06
8.02157e-08
3.68719e-06
8.3022e-08
3.68417e-06
8.26501e-08
3.67841e-06
8.02472e-08
3.67042e-06
7.75556e-08
3.66057e-06
7.51501e-08
3.64912e-06
7.32049e-08
3.63627e-06
7.18675e-08
3.62211e-06
7.13148e-08
3.60665e-06
7.1747e-08
3.58982e-06
7.35144e-08
3.57141e-06
7.7038e-08
3.55142e-06
8.35197e-08
3.52918e-06
9.32448e-08
1.13225e-07
3.51183e-06
3.92445e-06
1.70645e-08
3.93501e-06
6.09782e-08
3.94082e-06
7.16698e-08
3.94498e-06
7.60584e-08
3.94772e-06
8.02797e-08
3.94857e-06
8.18029e-08
3.94763e-06
8.1192e-08
3.94514e-06
8.00398e-08
3.94125e-06
7.904e-08
3.93604e-06
7.84182e-08
3.92955e-06
7.83543e-08
3.9218e-06
7.90651e-08
3.91275e-06
8.07995e-08
3.90233e-06
8.3932e-08
3.89044e-06
8.89278e-08
3.87728e-06
9.6677e-08
3.86284e-06
1.07685e-07
1.24976e-07
3.85109e-06
4.20753e-06
1.6659e-08
4.21512e-06
5.33874e-08
4.21975e-06
6.70384e-08
4.22325e-06
7.2562e-08
4.22613e-06
7.74025e-08
4.22785e-06
8.00859e-08
4.22826e-06
8.0778e-08
4.22747e-06
8.08302e-08
4.22554e-06
8.09719e-08
4.22249e-06
8.14624e-08
4.21835e-06
8.24994e-08
4.21309e-06
8.43195e-08
4.2067e-06
8.71914e-08
4.19916e-06
9.14747e-08
4.19049e-06
9.75984e-08
4.18098e-06
1.06185e-07
4.17101e-06
1.17659e-07
1.33243e-07
4.16274e-06
4.51019e-06
1.55536e-08
4.51592e-06
4.76589e-08
4.52012e-06
6.28442e-08
4.52324e-06
6.94406e-08
4.5259e-06
7.47396e-08
4.52771e-06
7.82798e-08
4.52844e-06
8.0039e-08
4.52815e-06
8.11244e-08
4.52686e-06
8.22603e-08
4.52459e-06
8.37359e-08
4.52133e-06
8.57609e-08
4.51707e-06
8.85763e-08
4.51181e-06
9.24481e-08
4.50559e-06
9.76961e-08
4.49852e-06
1.04673e-07
4.49091e-06
1.13791e-07
4.48328e-06
1.25292e-07
1.39549e-07
4.47697e-06
4.83386e-06
1.44101e-08
4.83858e-06
4.29378e-08
4.84265e-06
5.87779e-08
4.84561e-06
6.64768e-08
4.84806e-06
7.22916e-08
4.84978e-06
7.65645e-08
4.85055e-06
7.92628e-08
4.85039e-06
8.12837e-08
4.84933e-06
8.33251e-08
4.84736e-06
8.57024e-08
4.84449e-06
8.8632e-08
4.84072e-06
9.23476e-08
4.83607e-06
9.7096e-08
4.83062e-06
1.03144e-07
4.82454e-06
1.10757e-07
4.81815e-06
1.20178e-07
4.81196e-06
1.31482e-07
1.44666e-07
4.80685e-06
5.18063e-06
1.33571e-08
5.18467e-06
3.89033e-08
5.18856e-06
5.48828e-08
5.19144e-06
6.35962e-08
5.19375e-06
6.99815e-08
5.19539e-06
7.49245e-08
5.19617e-06
7.84859e-08
5.19607e-06
8.13867e-08
5.19511e-06
8.42794e-08
5.19332e-06
8.74981e-08
5.19069e-06
9.12618e-08
5.18725e-06
9.57887e-08
5.18305e-06
1.01296e-07
5.1782e-06
1.07993e-07
5.1729e-06
1.1606e-07
5.16746e-06
1.25613e-07
5.16233e-06
1.36611e-07
1.48903e-07
5.15809e-06
5.55233e-06
1.23674e-08
5.55578e-06
3.5446e-08
5.55942e-06
5.12429e-08
5.56224e-06
6.07792e-08
5.56448e-06
6.77438e-08
5.56609e-06
7.3312e-08
5.5669e-06
7.76761e-08
5.56687e-06
8.14142e-08
5.56604e-06
8.51164e-08
5.56441e-06
8.91239e-08
5.56202e-06
9.36542e-08
5.5589e-06
9.89039e-08
5.55514e-06
1.05055e-07
5.55088e-06
1.12262e-07
5.54631e-06
1.2063e-07
5.54173e-06
1.30185e-07
5.53752e-06
1.4082e-07
1.52341e-07
5.53409e-06
5.95071e-06
1.14351e-08
5.95368e-06
3.24793e-08
5.95703e-06
4.78868e-08
5.95979e-06
5.80229e-08
5.96199e-06
6.55389e-08
5.96362e-06
7.16881e-08
5.9645e-06
7.67891e-08
5.9646e-06
8.13136e-08
5.96394e-06
8.57781e-08
5.96255e-06
9.05175e-08
5.96046e-06
9.57418e-08
5.95774e-06
1.01623e-07
5.95449e-06
1.08304e-07
5.95086e-06
1.15891e-07
5.94706e-06
1.24429e-07
5.94336e-06
1.33887e-07
5.94006e-06
1.44122e-07
1.54946e-07
5.93745e-06
6.37768e-06
1.05703e-08
6.38024e-06
2.9915e-08
6.38332e-06
4.48045e-08
6.38602e-06
5.53253e-08
6.38822e-06
6.33359e-08
6.3899e-06
7.00155e-08
6.39091e-06
7.57763e-08
6.3912e-06
8.10191e-08
6.3908e-06
8.61848e-08
6.38973e-06
9.1587e-08
6.38805e-06
9.74225e-08
6.38583e-06
1.03836e-07
6.3832e-06
1.10934e-07
6.38032e-06
1.1878e-07
6.37737e-06
1.27375e-07
6.37461e-06
1.36651e-07
6.37227e-06
1.46456e-07
1.56624e-07
6.3706e-06
5.74151e-06
9.89032e-09
5.74343e-06
2.80019e-08
5.74584e-06
4.23906e-08
5.74809e-06
5.30804e-08
5.74998e-06
6.14461e-08
5.75146e-06
6.85292e-08
5.75246e-06
7.478e-08
5.75291e-06
8.05634e-08
5.75284e-06
8.62613e-08
5.75227e-06
9.21594e-08
5.75125e-06
9.84381e-08
5.74987e-06
1.05219e-07
5.74822e-06
1.12581e-07
5.74644e-06
1.20555e-07
5.7447e-06
1.29118e-07
5.74317e-06
1.38184e-07
5.74202e-06
1.47602e-07
1.57228e-07
5.74142e-06
6.99887e-06
9.17545e-09
7.00086e-06
2.6015e-08
7.00344e-06
3.98076e-08
7.00597e-06
5.05513e-08
7.00819e-06
5.92226e-08
7.01003e-06
6.66946e-08
7.01138e-06
7.34246e-08
7.0122e-06
7.97419e-08
7.0125e-06
8.59667e-08
7.01231e-06
9.23473e-08
7.01171e-06
9.90414e-08
7.01078e-06
1.06144e-07
7.00966e-06
1.13706e-07
7.00848e-06
1.21731e-07
7.00742e-06
1.30174e-07
7.00667e-06
1.38941e-07
7.00638e-06
1.47888e-07
1.56901e-07
7.00671e-06
8.53159e-06
8.42765e-09
8.53365e-06
2.39557e-08
8.53642e-06
3.70405e-08
8.53929e-06
4.76838e-08
8.54195e-06
5.65615e-08
8.54428e-06
6.43634e-08
8.54619e-06
7.15177e-08
8.54761e-06
7.8316e-08
8.54856e-06
8.50158e-08
8.54909e-06
9.182e-08
8.54928e-06
9.88562e-08
8.54923e-06
1.06192e-07
8.54908e-06
1.13851e-07
8.549e-06
1.21814e-07
8.54915e-06
1.30021e-07
8.54972e-06
1.38378e-07
8.55085e-06
1.46754e-07
1.55066e-07
8.55269e-06
1.04e-05
7.64087e-09
1.04022e-05
2.17889e-08
1.04052e-05
3.4021e-08
1.04085e-05
4.43623e-08
1.04118e-05
5.32813e-08
1.04149e-05
6.12893e-08
1.04176e-05
6.87507e-08
1.042e-05
7.59122e-08
1.04221e-05
8.2971e-08
1.04238e-05
9.00779e-08
1.04254e-05
9.73255e-08
1.04268e-05
1.04753e-07
1.04283e-05
1.1236e-07
1.043e-05
1.20111e-07
1.04321e-05
1.2794e-07
1.04347e-05
1.35757e-07
1.0438e-05
1.43448e-07
1.50959e-07
1.04421e-05
1.26776e-05
6.78844e-09
1.268e-05
1.94106e-08
1.26835e-05
3.05833e-08
1.26875e-05
4.03578e-08
1.26917e-05
4.90678e-08
1.26959e-05
5.70682e-08
1.27e-05
6.46359e-08
1.2704e-05
7.1961e-08
1.27078e-05
7.9182e-08
1.27114e-05
8.63966e-08
1.27151e-05
9.36589e-08
1.27189e-05
1.00981e-07
1.27229e-05
1.08344e-07
1.27273e-05
1.15701e-07
1.27323e-05
1.22986e-07
1.27379e-05
1.3012e-07
1.27443e-05
1.37005e-07
1.43617e-07
1.27517e-05
1.54542e-05
5.8044e-09
1.5457e-05
1.66111e-08
1.54611e-05
2.64015e-08
1.54663e-05
3.52461e-08
1.54719e-05
4.33892e-08
1.54779e-05
5.10566e-08
1.54842e-05
5.84264e-08
1.54905e-05
6.56205e-08
1.5497e-05
7.27186e-08
1.55036e-05
7.97675e-08
1.55105e-05
8.67833e-08
1.55177e-05
9.37536e-08
1.55254e-05
1.00644e-07
1.55337e-05
1.07405e-07
1.55427e-05
1.13973e-07
1.55525e-05
1.20283e-07
1.55633e-05
1.26257e-07
1.31892e-07
1.5575e-05
1.88389e-05
4.55768e-09
1.88425e-05
1.30183e-08
1.8848e-05
2.0904e-08
1.88549e-05
2.82994e-08
1.88629e-05
3.53821e-08
1.88717e-05
4.22654e-08
1.88811e-05
4.9022e-08
1.8891e-05
5.56953e-08
1.89015e-05
6.23052e-08
1.89124e-05
6.88505e-08
1.89239e-05
7.53111e-08
1.8936e-05
8.1653e-08
1.89488e-05
8.78315e-08
1.89624e-05
9.37959e-08
1.89769e-05
9.94916e-08
1.89923e-05
1.04866e-07
1.90087e-05
1.0986e-07
1.14487e-07
1.90261e-05
2.29651e-05
2.78641e-09
2.29701e-05
7.98045e-09
2.29779e-05
1.31137e-08
2.29879e-05
1.83083e-08
2.29996e-05
2.368e-08
2.30127e-05
2.92106e-08
2.30269e-05
3.48447e-08
2.3042e-05
4.05392e-08
2.30581e-05
4.6253e-08
2.3075e-05
5.19352e-08
2.30928e-05
5.75297e-08
2.31114e-05
6.29818e-08
2.3131e-05
6.82395e-08
2.31516e-05
7.32534e-08
2.31731e-05
7.7977e-08
2.31956e-05
8.237e-08
2.32191e-05
8.63904e-08
9.00586e-08
2.32435e-05
1.68123e-05
1.22426e-09
1.68166e-05
3.59922e-09
1.68234e-05
6.33e-09
1.68321e-05
9.63436e-09
1.68422e-05
1.35728e-08
1.68535e-05
1.79692e-08
1.68656e-05
2.26507e-08
1.68787e-05
2.75201e-08
1.68924e-05
3.24965e-08
1.69069e-05
3.7491e-08
1.6922e-05
4.24214e-08
1.69377e-05
4.72213e-08
1.69541e-05
5.1835e-08
1.69712e-05
5.62139e-08
1.69888e-05
6.03161e-08
1.70071e-05
6.41081e-08
1.70259e-05
6.75575e-08
7.06845e-08
1.70453e-05
1.46361e-05
-3.35518e-10
1.46406e-05
-8.32134e-10
1.46474e-05
-5.51867e-10
1.46561e-05
9.43769e-10
1.46661e-05
3.58889e-09
1.46771e-05
6.96209e-09
1.4689e-05
1.07855e-08
1.47016e-05
1.49314e-08
1.47148e-05
1.92749e-08
1.47286e-05
2.36832e-08
1.4743e-05
2.80544e-08
1.47579e-05
3.23164e-08
1.47733e-05
3.64122e-08
1.47892e-05
4.02941e-08
1.48056e-05
4.39235e-08
1.48225e-05
4.72717e-08
1.48397e-05
5.03127e-08
5.30648e-08
1.48573e-05
1.27416e-05
-1.83341e-09
1.27461e-05
-5.32561e-09
1.27531e-05
-7.57509e-09
1.27618e-05
-7.66759e-09
1.27714e-05
-6.07132e-09
1.2782e-05
-3.58976e-09
1.27933e-05
-5.03899e-10
1.28051e-05
3.05772e-09
1.28175e-05
6.90236e-09
1.28303e-05
1.0843e-08
1.28436e-05
1.47663e-08
1.28573e-05
1.86008e-08
1.28715e-05
2.22898e-08
1.2886e-05
2.57867e-08
1.29008e-05
2.90566e-08
1.2916e-05
3.20756e-08
1.29315e-05
3.48233e-08
3.7316e-08
1.29473e-05
1.10922e-05
-3.13758e-09
1.10968e-05
-9.87689e-09
1.11041e-05
-1.48441e-08
1.11125e-05
-1.61315e-08
1.11217e-05
-1.52806e-08
1.11317e-05
-1.35432e-08
1.11422e-05
-1.10498e-08
1.11532e-05
-7.92162e-09
1.11646e-05
-4.45547e-09
1.11763e-05
-8.78702e-10
1.11884e-05
2.69588e-09
1.12008e-05
6.19935e-09
1.12135e-05
9.57402e-09
1.12265e-05
1.27754e-08
1.12398e-05
1.57726e-08
1.12533e-05
1.85462e-08
1.1267e-05
2.10806e-08
2.33899e-08
1.1281e-05
9.65622e-06
-4.14266e-09
9.66089e-06
-1.45434e-08
9.66831e-06
-2.22716e-08
9.67647e-06
-2.42913e-08
9.68522e-06
-2.40224e-08
9.69456e-06
-2.28834e-08
9.70428e-06
-2.07714e-08
9.71427e-06
-1.79132e-08
9.72453e-06
-1.47207e-08
9.73508e-06
-1.14247e-08
9.74589e-06
-8.11805e-09
9.75696e-06
-4.86662e-09
9.76826e-06
-1.73026e-09
9.77979e-06
1.24934e-09
9.79152e-06
4.04462e-09
9.80342e-06
6.64005e-09
9.81548e-06
9.02495e-09
1.12127e-08
9.82766e-06
8.40579e-06
-4.57939e-09
8.41119e-06
-1.99481e-08
8.41835e-06
-2.94253e-08
8.42577e-06
-3.1718e-08
8.434e-06
-3.22502e-08
8.4428e-06
-3.16786e-08
8.45178e-06
-2.97568e-08
8.46088e-06
-2.70068e-08
8.47012e-06
-2.39654e-08
8.47954e-06
-2.084e-08
8.48912e-06
-1.76995e-08
8.49886e-06
-1.46073e-08
8.50875e-06
-1.16227e-08
8.51879e-06
-8.78505e-09
8.52895e-06
-6.11796e-09
8.53922e-06
-3.63508e-09
8.54959e-06
-1.34397e-09
7.65417e-10
8.56004e-06
7.31539e-06
-2.68096e-09
7.32318e-06
-2.77411e-08
7.33008e-06
-3.63258e-08
7.33682e-06
-3.8456e-08
7.3446e-06
-4.00334e-08
7.35289e-06
-3.99696e-08
7.36122e-06
-3.80814e-08
7.36949e-06
-3.52852e-08
7.37776e-06
-3.22256e-08
7.386e-06
-2.90891e-08
7.39425e-06
-2.59443e-08
7.4025e-06
-2.28633e-08
7.41079e-06
-1.9904e-08
7.4191e-06
-1.71008e-08
7.42746e-06
-1.44726e-08
7.43585e-06
-1.20299e-08
7.44428e-06
-9.77568e-09
-7.69924e-09
7.45275e-06
6.3625e-06
4.88693e-09
6.37403e-06
-3.92699e-08
6.3824e-06
-4.46943e-08
6.39025e-06
-4.63112e-08
6.39834e-06
-4.81266e-08
6.40612e-06
-4.77481e-08
6.41336e-06
-4.53212e-08
6.4202e-06
-4.2121e-08
6.42673e-06
-3.87605e-08
6.433e-06
-3.53608e-08
6.43906e-06
-3.19961e-08
6.44494e-06
-2.87499e-08
6.45072e-06
-2.56766e-08
6.45642e-06
-2.28018e-08
6.46208e-06
-2.01373e-08
6.46774e-06
-1.76876e-08
6.47341e-06
-1.5448e-08
-1.33954e-08
6.47911e-06
5.53641e-06
1.39412e-08
5.54863e-06
-5.14943e-08
5.55931e-06
-5.53711e-08
5.5692e-06
-5.62023e-08
5.57769e-06
-5.66134e-08
5.58415e-06
-5.42085e-08
5.58868e-06
-4.98552e-08
5.59184e-06
-4.52796e-08
5.59405e-06
-4.09652e-08
5.59558e-06
-3.68896e-08
5.59664e-06
-3.30629e-08
5.59742e-06
-2.95247e-08
5.59803e-06
-2.62911e-08
5.59859e-06
-2.33571e-08
5.59916e-06
-2.0711e-08
5.59982e-06
-1.83512e-08
5.60065e-06
-1.62694e-08
-1.43839e-08
5.60163e-06
4.85769e-06
-1.61393e-08
4.86144e-06
-5.5244e-08
4.86265e-06
-5.65797e-08
4.86095e-06
-5.45048e-08
4.85809e-06
-5.37521e-08
4.85299e-06
-4.91063e-08
4.84566e-06
-4.25337e-08
4.8367e-06
-3.63179e-08
4.82673e-06
-3.09923e-08
4.81632e-06
-2.64821e-08
4.80591e-06
-2.2654e-08
4.79579e-06
-1.9406e-08
4.78615e-06
-1.66471e-08
4.77709e-06
-1.43002e-08
4.76869e-06
-1.23037e-08
4.76098e-06
-1.06488e-08
4.75408e-06
-9.36732e-09
-8.97378e-09
4.74867e-06
4.18654e-06
4.13129e-06
4.07471e-06
4.02021e-06
3.96646e-06
3.91735e-06
3.87482e-06
3.8385e-06
3.80751e-06
3.78102e-06
3.75837e-06
3.73896e-06
3.72232e-06
3.70802e-06
3.69571e-06
3.68506e-06
3.6757e-06
3.66672e-06
1.1849e-07
-1.1849e-07
3.55975e-07
-2.37484e-07
6.40965e-07
-2.8499e-07
9.29149e-07
-2.88184e-07
1.19811e-06
-2.68961e-07
1.43668e-06
-2.3857e-07
1.63912e-06
-2.02441e-07
1.80257e-06
-1.63449e-07
1.92567e-06
-1.23098e-07
2.00768e-06
-8.20086e-08
2.04811e-06
-4.04336e-08
2.0478e-06
3.1153e-10
1.99962e-06
4.81782e-08
1.91019e-06
8.94261e-08
1.78685e-06
1.23342e-07
1.63978e-06
1.4707e-07
1.48188e-06
1.57901e-07
1.32706e-06
1.5482e-07
1.18822e-06
1.3884e-07
1.07411e-06
1.14109e-07
9.86174e-07
8.79383e-08
9.17222e-07
6.89516e-08
8.53473e-07
6.37494e-08
7.79028e-07
7.44448e-08
6.79699e-07
9.93285e-08
5.44026e-07
1.35673e-07
3.62386e-07
1.81641e-07
1.26537e-07
2.35849e-07
-1.70206e-07
2.96742e-07
-5.2949e-07
3.59284e-07
-9.4439e-07
4.14901e-07
-1.40234e-06
4.57955e-07
-1.88849e-06
4.86145e-07
-2.38768e-06
4.99192e-07
-2.88599e-06
4.98307e-07
-3.37163e-06
4.85643e-07
-3.83545e-06
4.63814e-07
-4.27096e-06
4.35511e-07
-4.67418e-06
4.0322e-07
-5.04324e-06
3.69062e-07
-5.37799e-06
3.34749e-07
-5.67952e-06
3.01529e-07
-5.94975e-06
2.70236e-07
-6.19111e-06
2.41356e-07
-6.40621e-06
2.151e-07
-6.59769e-06
1.91482e-07
-6.76807e-06
1.70383e-07
-6.91968e-06
1.51606e-07
-7.05459e-06
1.34912e-07
-7.17464e-06
1.20049e-07
-7.28141e-06
1.06774e-07
-7.37627e-06
9.48574e-08
-7.46037e-06
8.40934e-08
-7.53467e-06
7.42995e-08
-7.59998e-06
6.53158e-08
-7.65699e-06
5.7004e-08
-7.70623e-06
4.92453e-08
-7.74817e-06
4.19371e-08
-7.78316e-06
3.49907e-08
-7.81149e-06
2.83307e-08
-7.83338e-06
2.1893e-08
-7.84902e-06
1.56379e-08
-7.8586e-06
9.58295e-09
-7.86235e-06
3.74365e-09
-7.86098e-06
-1.36146e-09
-7.85493e-06
-6.05734e-09
-7.84436e-06
-1.05699e-08
-7.82925e-06
-1.51097e-08
-7.80945e-06
-1.98014e-08
-7.78471e-06
-2.47348e-08
-7.75472e-06
-2.99889e-08
-7.71908e-06
-3.56445e-08
-7.67729e-06
-4.17876e-08
-7.62878e-06
-4.85118e-08
-7.57286e-06
-5.59205e-08
-7.50873e-06
-6.41265e-08
-7.43548e-06
-7.32527e-08
-7.35205e-06
-8.34304e-08
-7.25725e-06
-9.47979e-08
-7.14976e-06
-1.07496e-07
-7.02809e-06
-1.21662e-07
-6.89067e-06
-1.37422e-07
-6.73579e-06
-1.54881e-07
-6.56169e-06
-1.74105e-07
-6.36658e-06
-1.95103e-07
-6.14877e-06
-2.17811e-07
-5.90671e-06
-2.42061e-07
-5.63915e-06
-2.67563e-07
-5.34526e-06
-2.93885e-07
-5.02482e-06
-3.20443e-07
-4.67832e-06
-3.46502e-07
-4.30711e-06
-3.71204e-07
-3.9135e-06
-3.93609e-07
-3.50074e-06
-4.12766e-07
-3.07294e-06
-4.27795e-07
-2.63496e-06
-4.37979e-07
-2.19212e-06
-4.42846e-07
-1.74991e-06
-4.42211e-07
-1.31377e-06
-4.36139e-07
-8.88944e-07
-4.24825e-07
-4.80422e-07
-4.08522e-07
-9.13886e-08
-3.89033e-07
2.77138e-07
-3.68526e-07
6.23747e-07
-3.46609e-07
9.47322e-07
-3.23575e-07
1.24773e-06
-3.00411e-07
1.52539e-06
-2.77659e-07
1.78111e-06
-2.55715e-07
2.01594e-06
-2.34838e-07
2.23113e-06
-2.15181e-07
2.42794e-06
-1.96815e-07
2.60769e-06
-1.79753e-07
2.77166e-06
-1.63964e-07
2.92105e-06
-1.4939e-07
3.05701e-06
-1.35958e-07
3.18059e-06
-1.23586e-07
3.29278e-06
-1.1219e-07
3.39447e-06
-1.01691e-07
3.48649e-06
-9.20124e-08
3.56957e-06
-8.30849e-08
3.64442e-06
-7.48459e-08
3.71166e-06
-6.72392e-08
3.77187e-06
-6.02152e-08
3.8256e-06
-5.37298e-08
3.87334e-06
-4.77441e-08
3.91557e-06
-4.22235e-08
3.95271e-06
-3.7137e-08
3.98516e-06
-3.24568e-08
4.01332e-06
-2.81568e-08
4.03753e-06
-2.42129e-08
4.05813e-06
-2.06018e-08
4.07543e-06
-1.73007e-08
4.08972e-06
-1.42865e-08
4.10125e-06
-1.15281e-08
4.11022e-06
-8.97353e-09
4.11683e-06
-6.60587e-09
4.12126e-06
-4.43442e-09
4.12319e-06
-1.92709e-09
4.12133e-06
1.86353e-09
4.11519e-06
6.13837e-09
4.10515e-06
1.00369e-08
4.09178e-06
1.33723e-08
4.07558e-06
1.62019e-08
4.05702e-06
1.85518e-08
4.03656e-06
2.04674e-08
4.01455e-06
2.20115e-08
3.99131e-06
2.32351e-08
3.96714e-06
2.41742e-08
3.94228e-06
2.48566e-08
3.91697e-06
2.53053e-08
3.89143e-06
2.5541e-08
3.86585e-06
2.55846e-08
3.84039e-06
2.54576e-08
3.81521e-06
2.51826e-08
3.79043e-06
2.47832e-08
3.76614e-06
2.42834e-08
3.74243e-06
2.37075e-08
3.71936e-06
2.30793e-08
3.69693e-06
2.24225e-08
3.67517e-06
2.17605e-08
3.65406e-06
2.11168e-08
3.63354e-06
2.05155e-08
3.61356e-06
1.99818e-08
3.59401e-06
1.95435e-08
3.57478e-06
1.92322e-08
3.5557e-06
1.90853e-08
3.53655e-06
1.91492e-08
3.51706e-06
1.94832e-08
3.4969e-06
2.01654e-08
3.4756e-06
2.13027e-08
3.45255e-06
2.30455e-08
3.42694e-06
2.56115e-08
3.39761e-06
2.93267e-08
3.36292e-06
3.46949e-08
3.32037e-06
4.25448e-08
3.26617e-06
5.41991e-08
3.19369e-06
7.2487e-08
3.09334e-06
1.00349e-07
2.93703e-06
1.56308e-07
2.21343e-07
2.71569e-06
2.66533e-07
-3.85024e-07
5.54177e-07
-5.25128e-07
8.09359e-07
-5.40173e-07
1.03051e-06
-5.09336e-07
1.21942e-06
-4.5787e-07
1.37741e-06
-3.96559e-07
1.50554e-06
-3.30577e-07
1.60465e-06
-2.62558e-07
1.67557e-06
-1.94018e-07
1.71957e-06
-1.26005e-07
1.73846e-06
-5.93247e-08
1.73265e-06
6.12199e-09
1.71077e-06
7.00627e-08
1.66731e-06
1.32883e-07
1.59879e-06
1.91863e-07
1.50293e-06
2.42931e-07
1.37988e-06
2.80948e-07
1.23321e-06
3.01491e-07
1.0682e-06
3.03856e-07
8.88641e-07
2.93663e-07
6.93889e-07
2.8269e-07
4.77581e-07
2.8526e-07
2.29291e-07
3.12039e-07
-6.26387e-08
3.66375e-07
-4.08432e-07
4.45121e-07
-8.13904e-07
5.41146e-07
-1.27746e-06
6.45196e-07
-1.7886e-06
7.4699e-07
-2.32847e-06
8.36606e-07
-2.87519e-06
9.0601e-07
-3.41036e-06
9.50065e-07
-3.91936e-06
9.66961e-07
-4.39129e-06
9.58068e-07
-4.81916e-06
9.27062e-07
-5.19978e-06
8.78929e-07
-5.53318e-06
8.19044e-07
-5.82184e-06
7.52475e-07
-6.06986e-06
6.83531e-07
-6.28219e-06
6.15546e-07
-6.46398e-06
5.50858e-07
-6.62015e-06
4.90916e-07
-6.75507e-06
4.36448e-07
-6.87247e-06
3.8764e-07
-6.97543e-06
3.44316e-07
-7.06641e-06
3.06076e-07
-7.14733e-06
2.72405e-07
-7.2197e-06
2.42751e-07
-7.28467e-06
2.16574e-07
-7.34313e-06
1.93373e-07
-7.39578e-06
1.727e-07
-7.44317e-06
1.54163e-07
-7.48574e-06
1.37428e-07
-7.52385e-06
1.22209e-07
-7.55782e-06
1.08266e-07
-7.5879e-06
9.53952e-08
-7.61432e-06
8.34275e-08
-7.6373e-06
7.22188e-08
-7.65701e-06
6.16476e-08
-7.67363e-06
5.1611e-08
-7.68732e-06
4.20217e-08
-7.69823e-06
3.28052e-08
-7.70649e-06
2.38969e-08
-7.71213e-06
1.52231e-08
-7.71507e-06
6.68691e-09
-7.71456e-06
-1.87584e-09
-7.71e-06
-1.06146e-08
-7.70099e-06
-1.95776e-08
-7.68727e-06
-2.88338e-08
-7.66858e-06
-3.84871e-08
-7.64466e-06
-4.86566e-08
-7.61518e-06
-5.94733e-08
-7.57974e-06
-7.10813e-08
-7.53789e-06
-8.36401e-08
-7.48907e-06
-9.7327e-08
-7.43265e-06
-1.12339e-07
-7.36789e-06
-1.28893e-07
-7.29391e-06
-1.47228e-07
-7.20974e-06
-1.676e-07
-7.11426e-06
-1.9028e-07
-7.00621e-06
-2.1555e-07
-6.88418e-06
-2.43684e-07
-6.74666e-06
-2.74942e-07
-6.59201e-06
-3.09538e-07
-6.41849e-06
-3.4762e-07
-6.22437e-06
-3.89227e-07
-6.00793e-06
-4.34248e-07
-5.76762e-06
-4.82374e-07
-5.50213e-06
-5.33052e-07
-5.21057e-06
-5.85438e-07
-4.89263e-06
-6.38381e-07
-4.54872e-06
-6.9042e-07
-4.18009e-06
-7.39832e-07
-3.78897e-06
-7.84725e-07
-3.37856e-06
-8.23175e-07
-2.95295e-06
-8.53407e-07
-2.51695e-06
-8.7398e-07
-2.07584e-06
-8.83961e-07
-1.63503e-06
-8.83018e-07
-1.19975e-06
-8.71421e-07
-7.74601e-07
-8.49973e-07
-3.63085e-07
-8.20038e-07
3.15014e-08
-7.83619e-07
4.05573e-07
-7.42598e-07
7.57425e-07
-6.98461e-07
1.08663e-06
-6.52779e-07
1.39313e-06
-6.06915e-07
1.67738e-06
-5.61907e-07
1.94017e-06
-5.185e-07
2.18252e-06
-4.7719e-07
2.40561e-06
-4.38273e-07
2.61068e-06
-4.01888e-07
2.79899e-06
-3.68056e-07
2.97174e-06
-3.36718e-07
3.13011e-06
-3.0776e-07
3.27519e-06
-2.81037e-07
3.408e-06
-2.56391e-07
3.52947e-06
-2.33661e-07
3.64046e-06
-2.12688e-07
3.74178e-06
-1.93327e-07
3.83413e-06
-1.75441e-07
3.9182e-06
-1.58908e-07
3.99458e-06
-1.4362e-07
4.06384e-06
-1.29479e-07
4.12651e-06
-1.16399e-07
4.18307e-06
-1.04305e-07
4.23398e-06
-9.31295e-08
4.27965e-06
-8.28134e-08
4.3205e-06
-7.3303e-08
4.35689e-06
-6.45497e-08
4.38919e-06
-5.65084e-08
4.41772e-06
-4.91364e-08
4.44281e-06
-4.23922e-08
4.46476e-06
-3.62332e-08
4.48384e-06
-3.06108e-08
4.50034e-06
-2.54675e-08
4.51448e-06
-2.07533e-08
4.52647e-06
-1.64153e-08
4.5369e-06
-1.23589e-08
4.54701e-06
-8.24673e-09
4.55711e-06
-3.96793e-09
4.56678e-06
3.67007e-10
4.5757e-06
4.46054e-09
4.58352e-06
8.378e-09
4.59007e-06
1.20047e-08
4.59527e-06
1.52683e-08
4.59909e-06
1.81872e-08
4.60155e-06
2.07719e-08
4.60269e-06
2.30392e-08
4.60253e-06
2.50121e-08
4.60112e-06
2.67158e-08
4.59849e-06
2.81772e-08
4.59464e-06
2.9425e-08
4.58961e-06
3.04886e-08
4.5834e-06
3.13977e-08
4.576e-06
3.218e-08
4.56742e-06
3.28607e-08
4.55767e-06
3.34608e-08
4.54675e-06
3.39968e-08
4.5347e-06
3.44811e-08
4.52153e-06
3.49224e-08
4.50732e-06
3.53282e-08
4.49213e-06
3.57066e-08
4.47604e-06
3.60699e-08
4.45915e-06
3.64378e-08
4.44154e-06
3.68405e-08
4.4233e-06
3.73232e-08
4.4045e-06
3.79498e-08
4.38518e-06
3.88089e-08
4.36532e-06
4.00209e-08
4.34487e-06
4.17499e-08
4.3237e-06
4.42219e-08
4.30155e-06
4.77542e-08
4.27807e-06
5.28114e-08
4.25269e-06
6.00789e-08
4.22453e-06
7.06982e-08
4.19241e-06
8.63172e-08
4.15405e-06
1.10847e-07
4.10672e-06
1.4768e-07
4.04354e-06
2.19487e-07
3.19556e-07
3.94533e-06
2.65492e-07
-6.50516e-07
5.14825e-07
-7.74461e-07
7.09763e-07
-7.35111e-07
8.64775e-07
-6.64348e-07
9.9057e-07
-5.83665e-07
1.09197e-06
-4.97957e-07
1.17058e-06
-4.09191e-07
1.22657e-06
-3.1855e-07
1.25964e-06
-2.27085e-07
1.26956e-06
-1.35929e-07
1.25653e-06
-4.62871e-08
1.22172e-06
4.09282e-08
1.16652e-06
1.25261e-07
1.09292e-06
2.06487e-07
1.00126e-06
2.83525e-07
8.90355e-07
3.53832e-07
7.57627e-07
4.13675e-07
5.99107e-07
4.60011e-07
4.08664e-07
4.94299e-07
1.779e-07
5.24428e-07
-1.02013e-07
5.62603e-07
-4.37336e-07
6.20583e-07
-8.29536e-07
7.04238e-07
-1.27424e-06
8.1108e-07
-1.76075e-06
9.31632e-07
-2.27225e-06
1.05264e-06
-2.78776e-06
1.16071e-06
-3.28571e-06
1.24494e-06
-3.74761e-06
1.29851e-06
-4.16069e-06
1.31909e-06
-4.51887e-06
1.30825e-06
-4.82219e-06
1.27028e-06
-5.07518e-06
1.21106e-06
-5.28509e-06
1.13697e-06
-5.4602e-06
1.05404e-06
-5.60857e-06
9.67416e-07
-5.73722e-06
8.81124e-07
-5.85173e-06
7.9804e-07
-5.9562e-06
7.20021e-07
-6.05344e-06
6.48093e-07
-6.14518e-06
5.82658e-07
-6.23241e-06
5.23682e-07
-6.31562e-06
4.70845e-07
-6.39497e-06
4.23664e-07
-6.47047e-06
3.81582e-07
-6.54209e-06
3.4402e-07
-6.60976e-06
3.10421e-07
-6.67345e-06
2.80268e-07
-6.73317e-06
2.53092e-07
-6.78895e-06
2.28481e-07
-6.84086e-06
2.06072e-07
-6.88898e-06
1.85552e-07
-6.93343e-06
1.6665e-07
-6.97429e-06
1.4913e-07
-7.01168e-06
1.32789e-07
-7.0457e-06
1.17448e-07
-7.07644e-06
1.02951e-07
-7.10394e-06
8.91562e-08
-7.12827e-06
7.59345e-08
-7.14941e-06
6.31653e-08
-7.16734e-06
5.07322e-08
-7.18196e-06
3.85214e-08
-7.19315e-06
2.64137e-08
-7.20073e-06
1.42682e-08
-7.20458e-06
1.97248e-09
-7.20458e-06
-1.06137e-08
-7.20057e-06
-2.35913e-08
-7.19233e-06
-3.70757e-08
-7.17961e-06
-5.12078e-08
-7.16211e-06
-6.61489e-08
-7.13951e-06
-8.20803e-08
-7.11138e-06
-9.92048e-08
-7.07727e-06
-1.1775e-07
-7.03663e-06
-1.37968e-07
-6.98883e-06
-1.60145e-07
-6.93313e-06
-1.84595e-07
-6.86869e-06
-2.11664e-07
-6.79456e-06
-2.4173e-07
-6.70964e-06
-2.75196e-07
-6.61271e-06
-3.12482e-07
-6.50239e-06
-3.5401e-07
-6.37715e-06
-4.0018e-07
-6.23534e-06
-4.51342e-07
-6.07521e-06
-5.0775e-07
-5.89493e-06
-5.69507e-07
-5.69268e-06
-6.36501e-07
-5.46673e-06
-7.08329e-07
-5.21557e-06
-7.84213e-07
-4.93807e-06
-8.62936e-07
-4.63365e-06
-9.42794e-07
-4.30249e-06
-1.02159e-06
-3.94563e-06
-1.09669e-06
-3.56518e-06
-1.16517e-06
-3.16431e-06
-1.22405e-06
-2.74719e-06
-1.27053e-06
-2.31881e-06
-1.30236e-06
-1.88468e-06
-1.31809e-06
-1.45046e-06
-1.31724e-06
-1.02153e-06
-1.30035e-06
-6.02585e-07
-1.26892e-06
-1.97453e-07
-1.22517e-06
1.90302e-07
-1.17137e-06
5.57819e-07
-1.11012e-06
9.03696e-07
-1.04434e-06
1.22734e-06
-9.76425e-07
1.52877e-06
-9.08339e-07
1.80845e-06
-8.41594e-07
2.06723e-06
-7.77275e-07
2.30614e-06
-7.161e-07
2.52636e-06
-6.5849e-07
2.7291e-06
-6.04635e-07
2.9156e-06
-5.54552e-07
3.08703e-06
-5.08145e-07
3.24451e-06
-4.65239e-07
3.38909e-06
-4.25619e-07
3.52174e-06
-3.89048e-07
3.64337e-06
-3.55289e-07
3.7548e-06
-3.24111e-07
3.85677e-06
-2.95298e-07
3.94998e-06
-2.68654e-07
4.03507e-06
-2.43998e-07
4.11262e-06
-2.21172e-07
4.18318e-06
-2.00034e-07
4.24724e-06
-1.80459e-07
4.30527e-06
-1.62337e-07
4.35771e-06
-1.4557e-07
4.40497e-06
-1.30072e-07
4.44743e-06
-1.15766e-07
4.48546e-06
-1.02581e-07
4.51941e-06
-9.04544e-08
4.5496e-06
-7.93254e-08
4.57634e-06
-6.91363e-08
4.59994e-06
-5.98293e-08
4.62067e-06
-5.13437e-08
4.63882e-06
-4.36157e-08
4.65464e-06
-3.65779e-08
4.66837e-06
-3.01457e-08
4.68026e-06
-2.42474e-08
4.69077e-06
-1.87559e-08
4.70035e-06
-1.35484e-08
4.70932e-06
-8.59895e-09
4.71773e-06
-3.95524e-09
4.72573e-06
3.81006e-10
4.73324e-06
4.49791e-09
4.74029e-06
8.21761e-09
4.74687e-06
1.1605e-08
4.75298e-06
1.46593e-08
4.75862e-06
1.73981e-08
4.76379e-06
1.98478e-08
4.76846e-06
2.204e-08
4.77263e-06
2.40109e-08
4.77626e-06
2.57995e-08
4.7793e-06
2.74468e-08
4.7817e-06
2.89928e-08
4.78341e-06
3.04752e-08
4.78434e-06
3.19266e-08
4.78443e-06
3.3373e-08
4.78359e-06
3.48328e-08
4.78176e-06
3.6316e-08
4.77885e-06
3.78258e-08
4.77482e-06
3.93602e-08
4.76961e-06
4.09155e-08
4.76319e-06
4.24906e-08
4.75554e-06
4.40913e-08
4.74664e-06
4.57368e-08
4.7365e-06
4.74648e-08
4.72511e-06
4.93392e-08
4.71246e-06
5.14571e-08
4.69853e-06
5.39599e-08
4.68323e-06
5.70479e-08
4.66645e-06
6.10025e-08
4.64798e-06
6.62214e-08
4.62751e-06
7.32815e-08
4.60456e-06
8.30242e-08
4.57846e-06
9.67998e-08
4.54822e-06
1.16556e-07
4.5127e-06
1.46366e-07
4.46987e-06
1.90511e-07
4.42282e-06
2.66537e-07
3.73931e-07
4.36845e-06
2.21691e-07
-8.72206e-07
3.84221e-07
-9.36991e-07
5.0215e-07
-8.5304e-07
5.95876e-07
-7.58074e-07
6.71819e-07
-6.59608e-07
7.31345e-07
-5.57483e-07
7.73816e-07
-4.51661e-07
7.97937e-07
-3.42671e-07
8.02371e-07
-2.31519e-07
7.86012e-07
-1.1957e-07
7.4829e-07
-8.5655e-09
6.88617e-07
1.00601e-07
6.07342e-07
2.06537e-07
5.05059e-07
3.0877e-07
3.81924e-07
4.0666e-07
2.36643e-07
4.99113e-07
6.54645e-08
5.84854e-07
-1.38635e-07
6.6411e-07
-3.85116e-07
7.4078e-07
-6.83019e-07
8.22331e-07
-1.03684e-06
9.16426e-07
-1.4431e-06
1.02684e-06
-1.88944e-06
1.15058e-06
-2.35638e-06
1.27803e-06
-2.82063e-06
1.39588e-06
-3.25928e-06
1.49129e-06
-3.65382e-06
1.55526e-06
-3.99289e-06
1.58402e-06
-4.27302e-06
1.57863e-06
-4.49747e-06
1.54354e-06
-4.67415e-06
1.48492e-06
-4.81327e-06
1.4094e-06
-4.92535e-06
1.32314e-06
-5.01973e-06
1.23135e-06
-5.10382e-06
1.13813e-06
-5.18291e-06
1.04651e-06
-5.26033e-06
9.58544e-07
-5.33784e-06
8.75553e-07
-5.41607e-06
7.98249e-07
-5.4949e-06
7.26921e-07
-5.57379e-06
6.61553e-07
-5.65204e-06
6.01927e-07
-5.72889e-06
5.47696e-07
-5.80367e-06
4.98445e-07
-5.87581e-06
4.53724e-07
-5.94488e-06
4.13083e-07
-6.01054e-06
3.76086e-07
-6.07259e-06
3.42322e-07
-6.13092e-06
3.11415e-07
-6.18546e-06
2.83023e-07
-6.23623e-06
2.56837e-07
-6.28326e-06
2.32583e-07
-6.32662e-06
2.10013e-07
-6.3664e-06
1.88909e-07
-6.40268e-06
1.69072e-07
-6.43556e-06
1.50324e-07
-6.46511e-06
1.32501e-07
-6.4914e-06
1.15451e-07
-6.5145e-06
9.90316e-08
-6.53444e-06
8.31047e-08
-6.55124e-06
6.75365e-08
-6.56492e-06
5.2192e-08
-6.57543e-06
3.6931e-08
-6.58277e-06
2.16069e-08
-6.58688e-06
6.07736e-09
-6.58769e-06
-9.80313e-09
-6.58509e-06
-2.61872e-08
-6.57893e-06
-4.32394e-08
-6.56899e-06
-6.1146e-08
-6.55502e-06
-8.01165e-08
-6.53672e-06
-1.00385e-07
-6.51371e-06
-1.22214e-07
-6.48556e-06
-1.45898e-07
-6.45176e-06
-1.71765e-07
-6.41172e-06
-2.00184e-07
-6.36475e-06
-2.31566e-07
-6.31005e-06
-2.66363e-07
-6.24671e-06
-3.05075e-07
-6.17367e-06
-3.48237e-07
-6.08974e-06
-3.96414e-07
-5.99356e-06
-4.50187e-07
-5.88362e-06
-5.1012e-07
-5.75823e-06
-5.76728e-07
-5.61557e-06
-6.50416e-07
-5.45366e-06
-7.3141e-07
-5.2705e-06
-8.19667e-07
-5.06407e-06
-9.14761e-07
-4.83251e-06
-1.01577e-06
-4.57427e-06
-1.12117e-06
-4.28834e-06
-1.22872e-06
-3.97445e-06
-1.33548e-06
-3.63329e-06
-1.43785e-06
-3.26674e-06
-1.53172e-06
-2.87793e-06
-1.61286e-06
-2.4712e-06
-1.67726e-06
-2.05189e-06
-1.72167e-06
-1.62597e-06
-1.74401e-06
-1.19959e-06
-1.74361e-06
-7.78585e-07
-1.72136e-06
-3.68024e-07
-1.67948e-06
2.76801e-08
-1.62087e-06
4.05094e-07
-1.54879e-06
7.62085e-07
-1.46711e-06
1.09741e-06
-1.37967e-06
1.41064e-06
-1.28966e-06
1.70198e-06
-1.19968e-06
1.97207e-06
-1.11169e-06
2.22187e-06
-1.02707e-06
2.45249e-06
-9.46727e-07
2.66516e-06
-8.71159e-07
2.8611e-06
-8.00572e-07
3.04151e-06
-7.34958e-07
3.20752e-06
-6.74161e-07
3.36022e-06
-6.17937e-07
3.50059e-06
-5.65992e-07
3.62956e-06
-5.18013e-07
3.74795e-06
-4.73687e-07
3.85656e-06
-4.32713e-07
3.95607e-06
-3.9481e-07
4.04714e-06
-3.59724e-07
4.13036e-06
-3.27223e-07
4.20629e-06
-2.97103e-07
4.27544e-06
-2.6918e-07
4.33827e-06
-2.43294e-07
4.39524e-06
-2.19302e-07
4.44675e-06
-1.9708e-07
4.4932e-06
-1.76517e-07
4.53494e-06
-1.57514e-07
4.57234e-06
-1.3998e-07
4.60572e-06
-1.23837e-07
4.63541e-06