/*--------------------------------*- C++ -*----------------------------------*\
  =========                 |
  \\      /  F ield         | OpenFOAM: The Open Source CFD Toolbox
   \\    /   O peration     | Website:  https://openfoam.org
    \\  /    A nd           | Version:  9
     \\/     M anipulation  |
\*---------------------------------------------------------------------------*/
FoamFile
{
    format      ascii;
    class       surfaceScalarField;
    location    "0.14";
    object      phi;
}
// * * * * * * * * * * * * * * * * * * * * * * * * * * * * * * * * * * * * * //

dimensions      [0 3 -1 0 0 0 0];

internalField   nonuniform List<scalar> 
24170
(
3.1336e-06
5.48089e-08
3.04826e-06
8.53331e-08
2.97313e-06
7.51343e-08
2.90428e-06
6.88504e-08
2.83943e-06
6.48484e-08
2.78219e-06
5.72452e-08
2.73326e-06
4.89286e-08
2.6917e-06
4.15593e-08
2.65622e-06
3.54817e-08
2.62564e-06
3.05737e-08
2.59901e-06
2.66368e-08
2.5755e-06
2.35088e-08
2.55442e-06
2.10732e-08
2.5351e-06
1.93231e-08
2.51687e-06
1.82352e-08
2.49786e-06
1.90003e-08
2.47679e-06
2.10703e-08
3.92468e-08
2.43755e-06
3.45361e-06
1.84471e-08
3.45616e-06
8.27821e-08
3.44961e-06
8.16837e-08
3.43798e-06
8.04788e-08
3.42349e-06
7.93469e-08
3.40593e-06
7.47995e-08
3.38628e-06
6.85754e-08
3.36536e-06
6.24848e-08
3.34393e-06
5.69155e-08
3.32259e-06
5.19108e-08
3.30175e-06
4.74797e-08
3.28162e-06
4.36341e-08
3.26232e-06
4.03699e-08
3.24384e-06
3.78064e-08
3.22622e-06
3.586e-08
3.20928e-06
3.59338e-08
3.19395e-06
3.63987e-08
4.7303e-08
3.1859e-06
3.66535e-06
1.56116e-08
3.67825e-06
6.98863e-08
3.6853e-06
7.46284e-08
3.68958e-06
7.62052e-08
3.69124e-06
7.76841e-08
3.69009e-06
7.59455e-08
3.68662e-06
7.20447e-08
3.68141e-06
6.77022e-08
3.67487e-06
6.34555e-08
3.66735e-06
5.94247e-08
3.65915e-06
5.56878e-08
3.65045e-06
5.2326e-08
3.64143e-06
4.93981e-08
3.63217e-06
4.70632e-08
3.62268e-06
4.53526e-08
3.61339e-06
4.52195e-08
3.60395e-06
4.58384e-08
5.0936e-08
3.60032e-06
3.92465e-06
1.63524e-08
3.9358e-06
5.87386e-08
3.94253e-06
6.78911e-08
3.948e-06
7.07384e-08
3.9524e-06
7.32843e-08
3.9553e-06
7.30405e-08
3.95684e-06
7.05106e-08
3.9573e-06
6.72425e-08
3.95687e-06
6.38825e-08
3.9557e-06
6.05913e-08
3.95393e-06
5.74644e-08
3.95165e-06
5.46058e-08
3.94894e-06
5.21025e-08
3.9459e-06
5.01072e-08
3.94255e-06
4.87059e-08
3.93933e-06
4.84323e-08
3.93627e-06
4.89059e-08
5.11457e-08
3.93606e-06
4.20777e-06
1.57137e-08
4.21599e-06
5.05111e-08
4.22165e-06
6.22341e-08
4.22657e-06
6.58161e-08
4.23126e-06
6.85979e-08
4.2352e-06
6.90995e-08
4.23828e-06
6.74344e-08
4.24062e-06
6.48961e-08
4.24235e-06
6.21563e-08
4.24354e-06
5.94006e-08
4.24427e-06
5.67321e-08
4.24461e-06
5.42632e-08
4.24462e-06
5.20923e-08
4.24438e-06
5.03493e-08
4.24397e-06
4.91201e-08
4.24373e-06
4.86672e-08
4.24387e-06
4.87646e-08
4.94674e-08
4.24555e-06
4.51044e-06
1.43627e-08
4.51686e-06
4.40932e-08
4.52216e-06
5.69302e-08
4.52681e-06
6.11669e-08
4.53141e-06
6.39979e-08
4.53558e-06
6.49249e-08
4.53915e-06
6.38703e-08
4.54217e-06
6.1876e-08
4.54472e-06
5.95998e-08
4.54687e-06
5.72509e-08
4.54867e-06
5.4938e-08
4.55016e-06
5.27739e-08
4.55139e-06
5.08563e-08
4.55246e-06
4.92869e-08
4.55345e-06
4.81278e-08
4.55463e-06
4.74808e-08
4.55624e-06
4.7162e-08
4.6931e-08
4.55877e-06
4.83412e-06
1.29635e-08
4.83957e-06
3.86388e-08
4.84482e-06
5.16861e-08
4.8494e-06
5.65873e-08
4.85389e-06
5.95019e-08
4.8581e-06
6.07132e-08
4.86185e-06
6.01258e-08
4.86516e-06
5.8566e-08
4.8681e-06
5.66587e-08
4.87072e-06
5.4635e-08
4.87305e-06
5.2609e-08
4.87513e-06
5.06884e-08
4.87702e-06
4.89633e-08
4.8788e-06
4.75087e-08
4.88057e-06
4.6358e-08
4.88253e-06
4.55233e-08
4.88485e-06
4.48384e-08
4.40281e-08
4.88776e-06
5.1809e-06
1.16454e-08
5.1857e-06
3.3839e-08
5.19083e-06
4.65598e-08
5.19539e-06
5.20195e-08
5.19984e-06
5.50526e-08
5.20408e-06
5.64707e-08
5.20795e-06
5.62634e-08
5.21144e-06
5.5076e-08
5.21461e-06
5.34839e-08
5.21751e-06
5.17355e-08
5.22017e-06
4.99504e-08
5.22263e-06
4.82294e-08
5.22494e-06
4.66521e-08
5.22718e-06
4.52715e-08
5.22944e-06
4.40975e-08
5.23186e-06
4.30984e-08
5.23457e-06
4.21288e-08
4.09646e-08
5.23764e-06
5.5526e-06
1.0384e-08
5.55684e-06
2.95943e-08
5.56175e-06
4.16506e-08
5.56631e-06
4.74637e-08
5.57075e-06
5.06104e-08
5.57504e-06
5.21807e-08
5.57902e-06
5.22881e-08
5.58266e-06
5.14314e-08
5.58602e-06
5.0122e-08
5.58914e-06
4.86175e-08
5.59205e-06
4.70425e-08
5.59479e-06
4.54907e-08
5.59741e-06
4.4031e-08
5.59998e-06
4.27004e-08
5.60258e-06
4.14945e-08
5.60531e-06
4.03659e-08
5.60825e-06
3.91962e-08
3.78282e-08
5.61138e-06
5.95098e-06
9.17594e-09
5.95475e-06
2.58275e-08
5.9594e-06
3.70033e-08
5.96392e-06
4.29407e-08
5.96836e-06
4.61678e-08
5.9727e-06
4.78443e-08
5.97678e-06
4.82043e-08
5.98058e-06
4.76384e-08
5.98411e-06
4.65853e-08
5.98743e-06
4.53013e-08
5.99056e-06
4.39146e-08
5.99354e-06
4.25115e-08
5.99642e-06
4.11517e-08
5.99925e-06
3.9862e-08
6.00212e-06
3.86321e-08
6.00507e-06
3.74156e-08
6.00814e-06
3.61227e-08
3.46557e-08
6.01131e-06
6.37795e-06
8.03471e-09
6.38132e-06
2.24609e-08
6.3857e-06
3.26268e-08
6.39016e-06
3.84752e-08
6.3946e-06
4.173e-08
6.39897e-06
4.34711e-08
6.40316e-06
4.40217e-08
6.40709e-06
4.37019e-08
6.4108e-06
4.28782e-08
6.41431e-06
4.17939e-08
6.41764e-06
4.05778e-08
6.42085e-06
3.93097e-08
6.42396e-06
3.80415e-08
6.42702e-06
3.67947e-08
6.4301e-06
3.55594e-08
6.43321e-06
3.42984e-08
6.43639e-06
3.29489e-08
3.14585e-08
6.43958e-06
5.74175e-06
7.12164e-09
5.74433e-06
1.98807e-08
5.74782e-06
2.91343e-08
5.75154e-06
3.47593e-08
5.75528e-06
3.79867e-08
5.759e-06
3.97535e-08
5.7626e-06
4.04191e-08
5.76603e-06
4.02694e-08
5.76929e-06
3.9617e-08
5.7724e-06
3.86862e-08
5.77538e-06
3.76025e-08
5.77824e-06
3.6441e-08
5.78104e-06
3.52487e-08
5.78379e-06
3.40453e-08
5.78652e-06
3.28239e-08
5.78926e-06
3.15578e-08
5.79201e-06
3.02032e-08
2.87371e-08
5.79473e-06
6.99913e-06
6.14592e-09
7.00186e-06
1.71518e-08
7.00564e-06
2.53552e-08
7.00979e-06
3.06042e-08
7.01406e-06
3.37211e-08
7.01834e-06
3.54715e-08
7.02254e-06
3.62218e-08
7.02658e-06
3.62256e-08
7.03046e-06
3.57414e-08
7.03418e-06
3.49677e-08
7.03776e-06
3.4023e-08
7.04122e-06
3.29776e-08
7.04459e-06
3.1874e-08
7.04791e-06
3.07316e-08
7.05118e-06
2.9549e-08
7.05443e-06
2.8311e-08
7.05764e-06
2.6992e-08
2.55916e-08
7.06079e-06
8.53188e-06
5.11669e-09
8.53473e-06
1.43006e-08
8.53877e-06
2.13161e-08
8.54336e-06
2.60153e-08
8.54817e-06
2.89098e-08
8.55306e-06
3.05806e-08
8.55791e-06
3.13677e-08
8.56264e-06
3.14931e-08
8.56722e-06
3.11627e-08
8.57165e-06
3.05433e-08
8.57593e-06
2.97423e-08
8.58008e-06
2.88239e-08
8.58413e-06
2.78267e-08
8.58809e-06
2.67709e-08
8.59198e-06
2.56614e-08
8.59579e-06
2.44941e-08
8.59953e-06
2.32584e-08
2.19689e-08
8.60315e-06
1.04003e-05
4.04437e-09
1.04032e-05
1.13441e-08
1.04075e-05
1.70348e-08
1.04125e-05
2.09979e-08
1.04179e-05
2.35295e-08
1.04235e-05
2.50333e-08
1.04291e-05
2.57914e-08
1.04346e-05
2.59897e-08
1.04399e-05
2.57862e-08
1.04452e-05
2.53118e-08
1.04502e-05
2.46571e-08
1.04552e-05
2.38787e-08
1.046e-05
2.30114e-08
1.04647e-05
2.20759e-08
1.04693e-05
2.10823e-08
1.04737e-05
2.00354e-08
1.04781e-05
1.89347e-08
1.78033e-08
1.04822e-05
1.26779e-05
2.93431e-09
1.2681e-05
8.27322e-09
1.26855e-05
1.25018e-08
1.2691e-05
1.5539e-08
1.26969e-05
1.75436e-08
1.27032e-05
1.87673e-08
1.27096e-05
1.94133e-08
1.2716e-05
1.96226e-08
1.27222e-05
1.95078e-08
1.27284e-05
1.91627e-08
1.27344e-05
1.86563e-08
1.27402e-05
1.80343e-08
1.27459e-05
1.73262e-08
1.27514e-05
1.65515e-08
1.27568e-05
1.57229e-08
1.2762e-05
1.485e-08
1.2767e-05
1.39377e-08
1.30119e-08
1.27718e-05
1.54543e-05
1.77503e-09
1.54576e-05
5.03605e-09
1.54624e-05
7.64808e-09
1.54684e-05
9.56606e-09
1.54751e-05
1.08654e-08
1.54822e-05
1.16764e-08
1.54895e-05
1.2115e-08
1.54968e-05
1.22661e-08
1.55041e-05
1.21973e-08
1.55113e-05
1.19645e-08
1.55184e-05
1.16109e-08
1.55252e-05
1.11668e-08
1.55319e-05
1.06532e-08
1.55384e-05
1.00853e-08
1.55446e-05
9.47469e-09
1.55507e-05
8.83127e-09
1.55564e-05
8.16134e-09
7.4889e-09
1.5562e-05
1.88389e-05
5.24529e-10
1.88424e-05
1.50001e-09
1.88478e-05
2.28519e-09
1.88545e-05
2.8708e-09
1.88621e-05
3.27948e-09
1.88702e-05
3.54112e-09
1.88786e-05
3.67848e-09
1.88872e-05
3.71033e-09
1.88957e-05
3.6548e-09
1.89042e-05
3.52799e-09
1.89124e-05
3.34264e-09
1.89205e-05
3.10869e-09
1.89283e-05
2.83428e-09
1.89359e-05
2.5265e-09
1.89432e-05
2.19169e-09
1.89502e-05
1.83634e-09
1.89569e-05
1.46471e-09
1.0959e-09
1.89632e-05
2.29648e-05
-9.24989e-10
2.29689e-05
-2.63829e-09
2.29752e-05
-4.02678e-09
2.29832e-05
-5.04664e-09
2.29921e-05
-5.71394e-09
2.30018e-05
-6.11498e-09
2.30118e-05
-6.3429e-09
2.3022e-05
-6.45635e-09
2.30321e-05
-6.49217e-09
2.30421e-05
-6.48174e-09
2.30519e-05
-6.45045e-09
2.30615e-05
-6.41461e-09
2.30707e-05
-6.38318e-09
2.30796e-05
-6.36092e-09
2.30881e-05
-6.34998e-09
2.30963e-05
-6.35015e-09
2.31041e-05
-6.36135e-09
-6.3713e-09
2.31116e-05
1.68119e-05
-2.07283e-09
1.68151e-05
-5.87971e-09
1.682e-05
-8.96562e-09
1.68262e-05
-1.11855e-08
1.6833e-05
-1.25875e-08
1.68403e-05
-1.34056e-08
1.68478e-05
-1.38434e-08
1.68554e-05
-1.40093e-08
1.68629e-05
-1.39782e-08
1.68702e-05
-1.38208e-08
1.68774e-05
-1.35921e-08
1.68843e-05
-1.33265e-08
1.68909e-05
-1.30447e-08
1.68973e-05
-1.27601e-08
1.69035e-05
-1.24808e-08
1.69093e-05
-1.2211e-08
1.69149e-05
-1.19531e-08
-1.16988e-08
1.69202e-05
1.46357e-05
-3.18422e-09
1.46388e-05
-9.04612e-09
1.46437e-05
-1.3801e-08
1.46496e-05
-1.70826e-08
1.4656e-05
-1.90368e-08
1.46628e-05
-2.0138e-08
1.46696e-05
-2.06883e-08
1.46764e-05
-2.08218e-08
1.46831e-05
-2.06585e-08
1.46896e-05
-2.03148e-08
1.46959e-05
-1.98699e-08
1.47019e-05
-1.93692e-08
1.47077e-05
-1.88417e-08
1.47133e-05
-1.83076e-08
1.47186e-05
-1.77796e-08
1.47236e-05
-1.72645e-08
1.47284e-05
-1.67663e-08
-1.62795e-08
1.4733e-05
1.27412e-05
-4.23494e-09
1.27444e-05
-1.22635e-08
1.27494e-05
-1.87695e-08
1.27552e-05
-2.28913e-08
1.27613e-05
-2.51686e-08
1.27676e-05
-2.64461e-08
1.2774e-05
-2.70277e-08
1.27802e-05
-2.70405e-08
1.27862e-05
-2.6676e-08
1.2792e-05
-2.61055e-08
1.27975e-05
-2.54242e-08
1.28029e-05
-2.46817e-08
1.28079e-05
-2.39124e-08
1.28128e-05
-2.31409e-08
1.28174e-05
-2.23822e-08
1.28217e-05
-2.1644e-08
1.28259e-05
-2.09302e-08
-2.02366e-08
1.28299e-05
1.10918e-05
-5.11441e-09
1.10951e-05
-1.55918e-08
1.11004e-05
-2.40746e-08
1.11062e-05
-2.86857e-08
1.11121e-05
-3.10255e-08
1.1118e-05
-3.23834e-08
1.11239e-05
-3.29073e-08
1.11296e-05
-3.27165e-08
1.1135e-05
-3.21026e-08
1.11402e-05
-3.12821e-08
1.11451e-05
-3.03522e-08
1.11498e-05
-2.93643e-08
1.11542e-05
-2.8358e-08
1.11585e-05
-2.73609e-08
1.11625e-05
-2.63879e-08
1.11663e-05
-2.54459e-08
1.11699e-05
-2.45379e-08
-2.36606e-08
1.11733e-05
9.65583e-06
-5.7304e-09
9.65936e-06
-1.91214e-08
9.66497e-06
-2.96841e-08
9.67066e-06
-3.438e-08
9.67632e-06
-3.66779e-08
9.68197e-06
-3.80345e-08
9.68742e-06
-3.83591e-08
9.69257e-06
-3.78708e-08
9.69745e-06
-3.69774e-08
9.70207e-06
-3.59011e-08
9.70644e-06
-3.4722e-08
9.71056e-06
-3.34914e-08
9.71446e-06
-3.22542e-08
9.71814e-06
-3.10397e-08
9.72161e-06
-2.98623e-08
9.7249e-06
-2.87277e-08
9.72799e-06
-2.76372e-08
-2.65859e-08
9.73092e-06
8.40543e-06
-5.81213e-09
8.40981e-06
-2.35005e-08
8.41532e-06
-3.51942e-08
8.42052e-06
-3.95793e-08
8.42596e-06
-4.2119e-08
8.43145e-06
-4.35186e-08
8.43661e-06
-4.35237e-08
8.44139e-06
-4.26462e-08
8.44583e-06
-4.1422e-08
8.44998e-06
-4.00512e-08
8.45385e-06
-3.85913e-08
8.45745e-06
-3.70941e-08
8.46081e-06
-3.56076e-08
8.46393e-06
-3.41607e-08
8.46683e-06
-3.27673e-08
8.46954e-06
-3.1433e-08
8.47206e-06
-3.01587e-08
-2.89405e-08
8.47442e-06
7.31506e-06
-3.58658e-09
7.32195e-06
-3.0389e-08
7.3274e-06
-4.06496e-08
7.33218e-06
-4.43545e-08
7.3375e-06
-4.74396e-08
7.34288e-06
-4.89027e-08
7.34786e-06
-4.84967e-08
7.35235e-06
-4.71396e-08
7.35641e-06
-4.54787e-08
7.36005e-06
-4.36923e-08
7.3633e-06
-4.18396e-08
7.36619e-06
-3.99839e-08
7.36875e-06
-3.81747e-08
7.37103e-06
-3.6438e-08
7.37305e-06
-3.47857e-08
7.37484e-06
-3.3222e-08
7.37642e-06
-3.17443e-08
-3.03463e-08
7.37783e-06
6.36222e-06
4.25758e-09
6.37295e-06
-4.11166e-08
6.38008e-06
-4.77802e-08
6.38627e-06
-5.05397e-08
6.39224e-06
-5.34149e-08
6.39753e-06
-5.4197e-08
6.4019e-06
-5.2863e-08
6.40549e-06
-5.07246e-08
6.4084e-06
-4.83957e-08
6.4107e-06
-4.59888e-08
6.41243e-06
-4.35713e-08
6.41367e-06
-4.12212e-08
6.41448e-06
-3.89868e-08
6.41493e-06
-3.68878e-08
6.41508e-06
-3.49308e-08
6.41497e-06
-3.31171e-08
6.41466e-06
-3.14381e-08
-2.98737e-08
6.41419e-06
5.53608e-06
1.36415e-08
5.54776e-06
-5.27925e-08
5.55745e-06
-5.74697e-08
5.56602e-06
-5.91124e-08
5.57279e-06
-6.01863e-08
5.57722e-06
-5.86228e-08
5.57937e-06
-5.5015e-08
5.57981e-06
-5.11649e-08
5.57896e-06
-4.7547e-08
5.5771e-06
-4.41329e-08
5.57446e-06
-4.09301e-08
5.57122e-06
-3.79762e-08
5.56752e-06
-3.52849e-08
5.56348e-06
-3.28476e-08
5.55919e-06
-3.06501e-08
5.55477e-06
-2.86893e-08
5.55028e-06
-2.69562e-08
-2.53897e-08
5.5458e-06
4.85751e-06
-1.6259e-08
4.86091e-06
-5.61949e-08
4.86151e-06
-5.80645e-08
4.85884e-06
-5.64476e-08
4.85484e-06
-5.61827e-08
4.84815e-06
-5.1932e-08
4.8389e-06
-4.5767e-08
4.82765e-06
-3.99199e-08
4.81505e-06
-3.49446e-08
4.80168e-06
-3.07638e-08
4.78799e-06
-2.72416e-08
4.77429e-06
-2.42748e-08
4.76078e-06
-2.17727e-08
4.74759e-06
-1.9656e-08
4.7348e-06
-1.78618e-08
4.72249e-06
-1.63803e-08
4.71077e-06
-1.52379e-08
-1.49277e-08
4.70031e-06
4.18642e-06
4.13022e-06
4.07216e-06
4.01571e-06
3.95953e-06
3.9076e-06
3.86183e-06
3.82191e-06
3.78696e-06
3.7562e-06
3.72896e-06
3.70468e-06
3.68291e-06
3.66326e-06
3.64539e-06
3.62901e-06
3.61377e-06
3.59885e-06
1.18749e-08
-1.18749e-08
2.40073e-08
-1.21323e-08
3.17245e-08
-7.71729e-09
3.38831e-08
-2.15855e-09
3.04943e-08
3.38883e-09
2.23133e-08
8.18094e-09
1.03227e-08
1.19906e-08
-4.51025e-09
1.4833e-08
-2.14193e-08
1.6909e-08
-3.98764e-08
1.84571e-08
-5.95445e-08
1.96681e-08
-8.02236e-08
2.06791e-08
-1.01798e-07
2.15741e-08
-1.24196e-07
2.23982e-08
-1.47368e-07
2.31718e-08
-1.71269e-07
2.39016e-08
-1.95857e-07
2.45881e-08
-2.21088e-07
2.52308e-08
-2.46919e-07
2.58308e-08
-2.73309e-07
2.63904e-08
-3.00218e-07
2.6909e-08
-3.27595e-07
2.73766e-08
-3.55368e-07
2.77732e-08
-3.83454e-07
2.80857e-08
-4.11793e-07
2.83391e-08
-4.40409e-07
2.86163e-08
-4.69512e-07
2.91025e-08
-4.99557e-07
3.00452e-08
-5.30766e-07
3.12086e-08
-5.63013e-07
3.22473e-08
-5.95261e-07
3.22484e-08
-6.27092e-07
3.18308e-08
-6.58848e-07
3.17559e-08
-6.91447e-07
3.25993e-08
-7.28281e-07
3.68338e-08
-7.65762e-07
3.74811e-08
-8.02536e-07
3.67735e-08
-8.44647e-07
4.2111e-08
-8.8637e-07
4.17236e-08
-9.24385e-07
3.80142e-08
-9.61633e-07
3.72482e-08
-9.98739e-07
3.71065e-08
-1.03779e-06
3.90526e-08
-1.07781e-06
4.00142e-08
-1.11843e-06
4.06268e-08
-1.15945e-06
4.10123e-08
-1.2007e-06
4.12542e-08
-1.2421e-06
4.14031e-08
-1.28359e-06
4.14892e-08
-1.32512e-06
4.15302e-08
-1.36666e-06
4.15363e-08
-1.40817e-06
4.15132e-08
-1.44964e-06
4.14639e-08
-1.49102e-06
4.13895e-08
-1.53231e-06
4.12898e-08
-1.57348e-06
4.11641e-08
-1.61449e-06
4.10113e-08
-1.65532e-06
4.08299e-08
-1.69594e-06
4.06183e-08
-1.73631e-06
4.03749e-08
-1.77641e-06
4.00982e-08
-1.8162e-06
3.97866e-08
-1.85564e-06
3.94388e-08
-1.89469e-06
3.90534e-08
-1.93332e-06
3.86294e-08
-1.97149e-06
3.81657e-08
-2.00915e-06
3.76615e-08
-2.04626e-06
3.71161e-08
-2.08279e-06
3.6529e-08
-2.11869e-06
3.58999e-08
-2.15392e-06
3.52285e-08
-2.18844e-06
3.45149e-08
-2.22219e-06
3.37591e-08
-2.25516e-06
3.29613e-08
-2.28728e-06
3.21218e-08
-2.31852e-06
3.12412e-08
-2.34884e-06
3.032e-08
-2.3782e-06
2.93588e-08
-2.40656e-06
2.83583e-08
-2.43387e-06
2.73192e-08
-2.46012e-06
2.62423e-08
-2.48525e-06
2.51283e-08
-2.50922e-06
2.3978e-08
-2.53202e-06
2.27919e-08
-2.55359e-06
2.15705e-08
-2.5739e-06
2.03139e-08
-2.59292e-06
1.90224e-08
-2.61062e-06
1.76953e-08
-2.62695e-06
1.6332e-08
-2.64188e-06
1.49307e-08
-2.65537e-06
1.34891e-08
-2.66737e-06
1.20036e-08
-2.67784e-06
1.04686e-08
-2.68672e-06
8.87614e-09
-2.69393e-06
7.21499e-09
-2.6994e-06
5.46812e-09
-2.70303e-06
3.62643e-09
-2.70473e-06
1.70663e-09
-2.7044e-06
-3.34229e-10
-2.70243e-06
-1.96923e-09
-2.69888e-06
-3.55194e-09
-2.69378e-06
-5.10261e-09
-2.68713e-06
-6.64529e-09
-2.67894e-06
-8.19346e-09
-2.66919e-06
-9.74937e-09
-2.65787e-06
-1.13128e-08
-2.64499e-06
-1.28823e-08
-2.63054e-06
-1.44558e-08
-2.61451e-06
-1.60313e-08
-2.5969e-06
-1.76067e-08
-2.57772e-06
-1.91798e-08
-2.55697e-06
-2.07484e-08
-2.53466e-06
-2.23106e-08
-2.5108e-06
-2.3864e-08
-2.48539e-06
-2.54067e-08
-2.45845e-06
-2.69364e-08
-2.43e-06
-2.84511e-08
-2.40005e-06
-2.99487e-08
-2.36863e-06
-3.1427e-08
-2.33574e-06
-3.2884e-08
-2.30142e-06
-3.43177e-08
-2.2657e-06
-3.57263e-08
-2.22859e-06
-3.71076e-08
-2.19013e-06
-3.846e-08
-2.15035e-06
-3.97817e-08
-2.10928e-06
-4.10709e-08
-2.06695e-06
-4.23258e-08
-2.02341e-06
-4.35448e-08
-1.97868e-06
-4.47262e-08
-1.93281e-06
-4.58686e-08
-1.88584e-06
-4.69705e-08
-1.83781e-06
-4.80308e-08
-1.78876e-06
-4.90481e-08
-1.73874e-06
-5.00215e-08
-1.68779e-06
-5.09498e-08
-1.63596e-06
-5.18322e-08
-1.58329e-06
-5.26677e-08
-1.52984e-06
-5.34559e-08
-1.47564e-06
-5.41962e-08
-1.42075e-06
-5.48883e-08
-1.36522e-06
-5.55318e-08
-1.30909e-06
-5.61267e-08
-1.25242e-06
-5.6673e-08
-1.19525e-06
-5.71709e-08
-1.13763e-06
-5.7621e-08
-1.0796e-06
-5.80235e-08
-1.02123e-06
-5.83792e-08
-9.62536e-07
-5.8689e-08
-9.03583e-07
-5.8954e-08
-8.44407e-07
-5.91751e-08
-7.85054e-07
-5.93537e-08
-7.25562e-07
-5.94913e-08
-6.65973e-07
-5.95895e-08
-6.06323e-07
-5.96498e-08
-5.46649e-07
-5.96737e-08
-4.86986e-07
-5.96632e-08
-4.27367e-07
-5.96195e-08
-3.67823e-07
-5.95435e-08
-3.08388e-07
-5.94356e-08
-2.49092e-07
-5.92956e-08
-1.89974e-07
-5.91185e-08
-1.31066e-07
-5.89074e-08
-7.24053e-08
-5.86608e-08
-1.40383e-08
-5.83671e-08
4.39948e-08
-5.80331e-08
1.01663e-07
-5.76686e-08
1.58973e-07
-5.73095e-08
2.15947e-07
-5.69743e-08
2.72602e-07
-5.66551e-08
3.28939e-07
-5.63363e-08
3.84939e-07
-5.60001e-08
4.40561e-07
-5.5622e-08
4.95723e-07
-5.51627e-08
5.50277e-07
-5.45534e-08
6.03936e-07
-5.36592e-08
6.56142e-07
-5.22064e-08
7.05625e-07
-4.94826e-08
7.49419e-07
-4.37938e-08
7.79388e-07
-2.99692e-08
1.1963e-08
7.67425e-07
7.95804e-09
-1.9833e-08
9.61163e-09
-1.37859e-08
6.56793e-09
-4.67358e-09
2.37619e-10
4.17175e-09
-8.75538e-09
1.23818e-08
-2.02663e-08
1.96919e-08
-3.42142e-08
2.59385e-08
-5.0476e-08
3.10947e-08
-6.88379e-08
3.5271e-08
-8.90384e-08
3.86577e-08
-1.10825e-07
4.14548e-08
-1.33981e-07
4.38345e-08
-1.58334e-07
4.5927e-08
-1.83757e-07
4.78214e-08
-2.10159e-07
4.95744e-08
-2.37479e-07
5.12206e-08
-2.65672e-07
5.27816e-08
-2.94714e-07
5.42729e-08
-3.24591e-07
5.57077e-08
-3.55298e-07
5.70978e-08
-3.86841e-07
5.84513e-08
-4.19235e-07
5.97705e-08
-4.52517e-07
6.10553e-08
-4.86747e-07
6.2316e-08
-5.21995e-07
6.3587e-08
-5.58311e-07
6.49325e-08
-5.95653e-07
6.6444e-08
-6.33795e-07
6.81872e-08
-6.72605e-07
7.00191e-08
-7.12026e-07
7.16686e-08
-7.527e-07
7.29223e-08
-7.94706e-07
7.38366e-08
-8.37722e-07
7.47716e-08
-8.81128e-07
7.60051e-08
-9.22178e-07
7.78839e-08
-9.63879e-07
7.91824e-08
-1.00688e-06
7.97777e-08
-1.04595e-06
8.11794e-08
-1.08562e-06
8.13881e-08
-1.12796e-06
8.0353e-08
-1.1704e-06
7.96929e-08
-1.21267e-06
7.93754e-08
-1.25322e-06
7.96015e-08
-1.29299e-06
7.97892e-08
-1.33226e-06
7.98953e-08
-1.37117e-06
7.99248e-08
-1.40981e-06
7.98865e-08
-1.44819e-06
7.97906e-08
-1.48635e-06
7.96453e-08
-1.52427e-06
7.94559e-08
-1.56196e-06
7.92257e-08
-1.59941e-06
7.89558e-08
-1.63659e-06
7.86457e-08
-1.67349e-06
7.82942e-08
-1.7101e-06
7.78991e-08
-1.7464e-06
7.74577e-08
-1.78235e-06
7.69673e-08
-1.81795e-06
7.64249e-08
-1.85316e-06
7.58274e-08
-1.88795e-06
7.51722e-08
-1.92231e-06
7.44565e-08
-1.9562e-06
7.36777e-08
-1.9896e-06
7.28335e-08
-2.02247e-06
7.19221e-08
-2.05478e-06
7.09414e-08
-2.0865e-06
6.98901e-08
-2.11761e-06
6.87669e-08
-2.14806e-06
6.75709e-08
-2.17784e-06
6.63011e-08
-2.20689e-06
6.49574e-08
-2.2352e-06
6.35394e-08
-2.26274e-06
6.20472e-08
-2.28946e-06
6.04811e-08
-2.31534e-06
5.88414e-08
-2.34035e-06
5.71289e-08
-2.36445e-06
5.53443e-08
-2.38762e-06
5.34886e-08
-2.40982e-06
5.1563e-08
-2.43103e-06
4.95685e-08
-2.45122e-06
4.75065e-08
-2.47035e-06
4.53781e-08
-2.48841e-06
4.31847e-08
-2.50536e-06
4.09274e-08
-2.52118e-06
3.86074e-08
-2.53583e-06
3.62257e-08
-2.5493e-06
3.3783e-08
-2.56156e-06
3.12799e-08
-2.57258e-06
2.87166e-08
-2.58234e-06
2.60931e-08
-2.59082e-06
2.34091e-08
-2.59799e-06
2.0664e-08
-2.60385e-06
1.78571e-08
-2.60837e-06
1.49879e-08
-2.61155e-06
1.20569e-08
-2.6134e-06
9.06708e-09
-2.61396e-06
6.02555e-09
-2.61328e-06
2.94619e-09
-2.61151e-06
-6.3131e-11
-2.60867e-06
-3.17393e-09
-2.60449e-06
-6.14104e-09
-2.59891e-06
-9.13945e-09
-2.59185e-06
-1.21646e-08
-2.58328e-06
-1.52119e-08
-2.57319e-06
-1.82809e-08
-2.56157e-06
-2.13691e-08
-2.54841e-06
-2.44732e-08
-2.5337e-06
-2.75895e-08
-2.51745e-06
-3.07138e-08
-2.49964e-06
-3.38418e-08
-2.48027e-06
-3.69695e-08
-2.45936e-06
-4.00924e-08
-2.4369e-06
-4.32063e-08
-2.41291e-06
-4.6307e-08
-2.38738e-06
-4.93903e-08
-2.36033e-06
-5.24519e-08
-2.33178e-06
-5.54878e-08
-2.30174e-06
-5.84936e-08
-2.27022e-06
-6.14651e-08
-2.23725e-06
-6.43983e-08
-2.20285e-06
-6.72891e-08
-2.16703e-06
-7.01333e-08
-2.12983e-06
-7.29273e-08
-2.09127e-06
-7.56671e-08
-2.05138e-06
-7.83491e-08
-2.01019e-06
-8.09699e-08
-1.96774e-06
-8.35258e-08
-1.92405e-06
-8.60136e-08
-1.87917e-06
-8.84298e-08
-1.83312e-06
-9.07711e-08
-1.78596e-06
-9.30347e-08
-1.73771e-06
-9.52176e-08
-1.68842e-06
-9.73173e-08
-1.63814e-06
-9.93316e-08
-1.5869e-06
-1.01258e-07
-1.53476e-06
-1.03095e-07
-1.48175e-06
-1.04841e-07
-1.42792e-06
-1.06493e-07
-1.37333e-06
-1.0805e-07
-1.31801e-06
-1.09512e-07
-1.26202e-06
-1.10879e-07
-1.20541e-06
-1.12148e-07
-1.14821e-06
-1.13321e-07
-1.09049e-06
-1.14396e-07
-1.03228e-06
-1.15376e-07
-9.73644e-07
-1.1626e-07
-9.14618e-07
-1.17049e-07
-8.55252e-07
-1.17746e-07
-7.95591e-07
-1.1835e-07
-7.35679e-07
-1.18866e-07
-6.75561e-07
-1.19294e-07
-6.15277e-07
-1.19637e-07
-5.54869e-07
-1.19899e-07
-4.94376e-07
-1.20082e-07
-4.33836e-07
-1.20191e-07
-3.73283e-07
-1.20227e-07
-3.12752e-07
-1.20194e-07
-2.52275e-07
-1.20096e-07
-1.91884e-07
-1.19935e-07
-1.31608e-07
-1.19711e-07
-7.14776e-08
-1.19426e-07
-1.15194e-08
-1.19077e-07
4.8235e-08
-1.18662e-07
1.07756e-07
-1.18182e-07
1.67026e-07
-1.17637e-07
2.26036e-07
-1.17043e-07
2.84783e-07
-1.16416e-07
3.43265e-07
-1.15791e-07
4.01474e-07
-1.15183e-07
4.59404e-07
-1.14586e-07
5.17045e-07
-1.13977e-07
5.7437e-07
-1.13325e-07
6.31331e-07
-1.12584e-07
6.87841e-07
-1.11673e-07
7.43744e-07
-1.10456e-07
7.98756e-07
-1.08671e-07
8.5236e-07
-1.0581e-07
9.03551e-07
-1.00674e-07
9.50649e-07
-9.08922e-08
9.90338e-07
-6.96579e-08
-2.03415e-08
1.02264e-06
-1.05888e-09
-1.87741e-08
-7.82622e-09
-7.01856e-09
-1.73284e-08
4.82864e-09
-2.86449e-08
1.54882e-08
-4.14691e-08
2.52061e-08
-5.57593e-08
3.3982e-08
-7.15841e-08
4.17633e-08
-8.90229e-08
4.85336e-08
-1.08101e-07
5.43487e-08
-1.2877e-07
5.93268e-08
-1.50932e-07
6.36171e-08
-1.74467e-07
6.73696e-08
-1.99255e-07
7.07153e-08
-2.25192e-07
7.37581e-08
-2.52193e-07
7.65752e-08
-2.80194e-07
7.92221e-08
-3.09152e-07
8.17388e-08
-3.39034e-07
8.4155e-08
-3.6982e-07
8.64939e-08
-4.01495e-07
8.87733e-08
-4.34049e-07
9.10049e-08
-4.67473e-07
9.31946e-08
-5.01764e-07
9.5346e-08
-5.36914e-07
9.74663e-08
-5.72898e-07
9.95713e-08
-6.09649e-07
1.01683e-07
-6.47021e-07
1.03817e-07
-6.84786e-07
1.05952e-07
-7.22759e-07
1.07992e-07
-7.60887e-07
1.09797e-07
-7.9926e-07
1.11296e-07
-8.37942e-07
1.12519e-07
-8.76754e-07
1.13583e-07
-9.15338e-07
1.14589e-07
-9.52991e-07
1.15537e-07
-9.90073e-07
1.16264e-07
-1.027e-06
1.16702e-07
-1.06277e-06
1.16955e-07
-1.09823e-06
1.16841e-07
-1.13424e-06
1.16366e-07
-1.17039e-06
1.15848e-07
-1.20645e-06
1.15435e-07
-1.24201e-06
1.15155e-07
-1.27714e-06
1.14923e-07
-1.31195e-06
1.14701e-07
-1.34649e-06
1.14465e-07
-1.3808e-06
1.14204e-07
-1.41492e-06
1.1391e-07
-1.44886e-06
1.13579e-07
-1.48261e-06
1.13208e-07
-1.51618e-06
1.12794e-07
-1.54956e-06
1.12333e-07
-1.58273e-06
1.11821e-07
-1.61569e-06
1.11253e-07
-1.64842e-06
1.10626e-07
-1.68089e-06
1.09935e-07
-1.7131e-06
1.09176e-07
-1.74502e-06
1.08342e-07
-1.77662e-06
1.07431e-07
-1.80789e-06
1.06439e-07
-1.83879e-06
1.0536e-07
-1.86931e-06
1.04192e-07
-1.89941e-06
1.02932e-07
-1.92906e-06
1.01575e-07
-1.95824e-06
1.00121e-07
-1.98692e-06
9.85664e-08
-2.01506e-06
9.69095e-08
-2.04264e-06
9.51491e-08
-2.06962e-06
9.3284e-08
-2.09598e-06
9.13134e-08
-2.12167e-06
8.9237e-08
-2.14668e-06
8.70547e-08
-2.17097e-06
8.47666e-08
-2.1945e-06
8.23735e-08
-2.21725e-06
7.9876e-08
-2.23918e-06
7.72752e-08
-2.26026e-06
7.45723e-08
-2.28047e-06
7.17688e-08
-2.29976e-06
6.88664e-08
-2.31812e-06
6.58666e-08
-2.33552e-06
6.27714e-08
-2.35192e-06
5.95826e-08
-2.36729e-06
5.6302e-08
-2.38161e-06
5.29316e-08
-2.39486e-06
4.94731e-08
-2.40701e-06
4.59281e-08
-2.41802e-06
4.22983e-08
-2.42789e-06
3.85851e-08
-2.43659e-06
3.47899e-08
-2.4441e-06
3.09143e-08
-2.45039e-06
2.696e-08
-2.45546e-06
2.29293e-08
-2.4593e-06
1.88258e-08
-2.4619e-06
1.46545e-08
-2.46326e-06
1.04232e-08
-2.46337e-06
6.14276e-09
-2.46226e-06
1.83062e-09
-2.45983e-06
-2.48529e-09
-2.45617e-06
-6.83993e-09
-2.4511e-06
-1.12097e-08
-2.44461e-06
-1.56258e-08
-2.43669e-06
-2.00886e-08
-2.42731e-06
-2.45936e-08
-2.41645e-06
-2.91352e-08
-2.40412e-06
-3.37075e-08
-2.39028e-06
-3.83045e-08
-2.37495e-06
-4.29199e-08
-2.35812e-06
-4.75474e-08
-2.33978e-06
-5.21806e-08
-2.31994e-06
-5.68133e-08
-2.29859e-06
-6.1439e-08
-2.27575e-06
-6.60515e-08
-2.25141e-06
-7.06444e-08
-2.22559e-06
-7.52115e-08
-2.19829e-06
-7.97467e-08
-2.16954e-06
-8.42436e-08
-2.13933e-06
-8.8696e-08
-2.1077e-06
-9.30978e-08
-2.07466e-06
-9.74428e-08
-2.04022e-06
-1.01725e-07
-2.00442e-06
-1.05938e-07
-1.96727e-06
-1.10076e-07
-1.9288e-06
-1.14135e-07
-1.88904e-06
-1.18107e-07
-1.84802e-06
-1.21989e-07
-1.80577e-06
-1.25774e-07
-1.76233e-06
-1.29458e-07
-1.71772e-06
-1.33036e-07
-1.67199e-06
-1.36503e-07
-1.62517e-06
-1.39855e-07
-1.5773e-06
-1.43086e-07
-1.52843e-06
-1.46194e-07
-1.47858e-06
-1.49176e-07
-1.42781e-06
-1.52027e-07
-1.37616e-06
-1.54745e-07
-1.32368e-06
-1.57327e-07
-1.2704e-06
-1.5977e-07
-1.21638e-06
-1.62073e-07
-1.16165e-06
-1.64235e-07
-1.10628e-06
-1.66253e-07
-1.0503e-06
-1.68128e-07
-9.93761e-07
-1.6986e-07
-9.36711e-07
-1.71447e-07
-8.79195e-07
-1.72891e-07
-8.21261e-07
-1.74194e-07
-7.62955e-07
-1.75356e-07
-7.04321e-07
-1.76379e-07
-6.45405e-07
-1.77267e-07
-5.86248e-07
-1.78022e-07
-5.26894e-07
-1.78647e-07
-4.67384e-07
-1.79147e-07
-4.07757e-07
-1.79526e-07
-3.48051e-07
-1.79789e-07
-2.88302e-07
-1.79939e-07
-2.28546e-07
-1.79983e-07
-1.68814e-07
-1.79926e-07
-1.09138e-07
-1.79772e-07
-4.95477e-08
-1.79525e-07
9.93031e-09
-1.79189e-07
6.92677e-08
-1.78764e-07
1.2844e-07
-1.78249e-07
1.87426e-07
-1.77647e-07
2.46206e-07
-1.76962e-07
3.04778e-07
-1.76209e-07
3.63147e-07
-1.75411e-07
4.21315e-07
-1.74584e-07
4.79267e-07
-1.73743e-07
5.36983e-07
-1.729e-07
5.94448e-07
-1.72051e-07
6.51644e-07
-1.71172e-07
7.08541e-07
-1.70222e-07
7.65088e-07
-1.69131e-07
8.21201e-07
-1.67785e-07
8.76731e-07
-1.65987e-07
9.31432e-07
-1.63372e-07
9.84882e-07
-1.5926e-07
1.03643e-06
-1.5222e-07
1.08513e-06
-1.39598e-07
1.13054e-06
-1.15065e-07
-6.66978e-08
1.1769e-06
-8.89657e-09
-9.87754e-09
-2.16094e-08
5.69422e-09
-3.56447e-08
1.8864e-08
-5.05703e-08
3.04138e-08
-6.63031e-08
4.09389e-08
-8.28975e-08
5.05764e-08
-1.0047e-07
5.93359e-08
-1.19148e-07
6.72118e-08
-1.3903e-07
7.42299e-08
-1.6016e-07
8.04574e-08
-1.82537e-07
8.59934e-08
-2.06117e-07
9.09503e-08
-2.3084e-07
9.54382e-08
-2.56636e-07
9.95539e-08
-2.83438e-07
1.03377e-07
-3.11184e-07
1.06969e-07
-3.39823e-07
1.10378e-07
-3.69306e-07
1.13638e-07
-3.99588e-07
1.16776e-07
-4.30622e-07
1.19807e-07
-4.62359e-07
1.22742e-07
-4.94745e-07
1.25581e-07
-5.2772e-07
1.28321e-07
-5.61211e-07
1.30958e-07
-5.95127e-07
1.33487e-07
-6.29348e-07
1.35904e-07
-6.63727e-07
1.38195e-07
-6.98104e-07
1.4033e-07
-7.32363e-07
1.42251e-07
-7.66466e-07
1.43899e-07
-8.00422e-07
1.45251e-07
-8.34233e-07
1.4633e-07
-8.67834e-07
1.47184e-07
-9.01104e-07
1.4786e-07
-9.33944e-07
1.48377e-07
-9.66381e-07
1.48701e-07
-9.98502e-07
1.48823e-07
-1.03031e-06
1.48758e-07
-1.06195e-06
1.48487e-07
-1.09363e-06
1.4805e-07
-1.12534e-06
1.47557e-07
-1.157e-06
1.47087e-07
-1.18851e-06
1.46667e-07
-1.21986e-06
1.4628e-07
-1.25107e-06
1.45908e-07
-1.28214e-06
1.45535e-07
-1.31308e-06
1.45147e-07
-1.34391e-06
1.44733e-07
-1.37461e-06
1.44286e-07
-1.4052e-06
1.43797e-07
-1.43567e-06
1.43259e-07
-1.466e-06
1.42665e-07
-1.49619e-06
1.42009e-07
-1.52622e-06
1.41283e-07
-1.55607e-06
1.40481e-07
-1.58573e-06
1.39597e-07
-1.61518e-06
1.38624e-07
-1.6444e-06
1.37556e-07
-1.67335e-06
1.36388e-07
-1.70203e-06
1.35114e-07
-1.7304e-06
1.33728e-07
-1.75843e-06
1.32226e-07
-1.7861e-06
1.30605e-07
-1.81339e-06
1.28859e-07
-1.84025e-06
1.26986e-07
-1.86667e-06
1.24984e-07
-1.89261e-06
1.22848e-07
-1.91804e-06
1.20578e-07
-1.94293e-06
1.18172e-07
-1.96724e-06
1.15629e-07
-1.99095e-06
1.12949e-07
-2.01403e-06
1.10131e-07
-2.03644e-06
1.07175e-07
-2.05815e-06
1.04082e-07
-2.07912e-06
1.00854e-07
-2.09934e-06
9.74902e-08
-2.11876e-06
9.39938e-08
-2.13736e-06
9.0366e-08
-2.1551e-06
8.6609e-08
-2.17196e-06
8.27251e-08
-2.1879e-06
7.87166e-08
-2.20291e-06
7.45861e-08
-2.21694e-06
7.03361e-08
-2.22998e-06
6.59695e-08
-2.242e-06
6.14887e-08
-2.25296e-06
5.68965e-08
-2.26286e-06
5.21955e-08
-2.27166e-06
4.73883e-08
-2.27935e-06
4.24777e-08
-2.2859e-06
3.74666e-08
-2.2913e-06
3.23583e-08
-2.29553e-06
2.71569e-08
-2.29857e-06
2.18672e-08
-2.30041e-06
1.64956e-08
-2.30104e-06
1.10496e-08
-2.30043e-06
5.53855e-09
-2.29857e-06
-2.94405e-11
-2.29542e-06
-5.642e-09
-2.29095e-06
-1.1311e-08
-2.28512e-06
-1.70385e-08
-2.27791e-06
-2.28327e-08
-2.26931e-06
-2.86902e-08
-2.2593e-06
-3.46049e-08
-2.24786e-06
-4.0569e-08
-2.235e-06
-4.65743e-08
-2.22069e-06
-5.26125e-08
-2.20493e-06
-5.86752e-08
-2.18773e-06
-6.4754e-08
-2.16907e-06
-7.08406e-08
-2.14895e-06
-7.69265e-08
-2.12739e-06
-8.30033e-08
-2.10438e-06
-8.90629e-08
-2.07993e-06
-9.50968e-08
-2.05404e-06
-1.01097e-07
-2.02673e-06
-1.07055e-07
-1.99801e-06
-1.12963e-07
-1.9679e-06
-1.18813e-07
-1.9364e-06