/*--------------------------------*- C++ -*----------------------------------*\
  =========                 |
  \\      /  F ield         | OpenFOAM: The Open Source CFD Toolbox
   \\    /   O peration     | Website:  https://openfoam.org
    \\  /    A nd           | Version:  9
     \\/     M anipulation  |
\*---------------------------------------------------------------------------*/
FoamFile
{
    format      ascii;
    class       volScalarField;
    location    "0.17";
    object      k;
}
// * * * * * * * * * * * * * * * * * * * * * * * * * * * * * * * * * * * * * //

dimensions      [0 2 -2 0 0 0 0];

internalField   nonuniform List<scalar> 
12225
(
0.283101
0.213602
0.165533
0.133026
0.112197
0.100411
0.0958228
0.097091
0.103247
0.113634
0.127859
0.14574
0.167179
0.191914
0.219069
0.246436
0.270268
0.291804
0.349209
0.324738
0.310912
0.310118
0.323008
0.349614
0.389466
0.441658
0.505061
0.578542
0.661006
0.751181
0.847114
0.945483
1.04096
1.12572
1.19159
1.2246
0.361952
0.348101
0.336011
0.326412
0.319903
0.316872
0.317584
0.322299
0.331378
0.345383
0.36514
0.391648
0.425831
0.468179
0.51841
0.575339
0.637136
0.701363
0.365601
0.355022
0.344759
0.335297
0.32698
0.320014
0.314461
0.310293
0.307439
0.305857
0.3056
0.306888
0.310148
0.315977
0.325006
0.337739
0.354494
0.375415
0.366986
0.358241
0.349533
0.34111
0.333154
0.325787
0.319068
0.312994
0.307524
0.302598
0.298158
0.294178
0.290685
0.287754
0.285493
0.284014
0.28349
0.284062
0.367522
0.359728
0.352051
0.344568
0.337354
0.330474
0.323962
0.317831
0.312064
0.306627
0.30147
0.296538
0.291776
0.287142
0.282616
0.2782
0.273923
0.269832
0.367718
0.360373
0.353288
0.346449
0.33986
0.333534
0.327482
0.321707
0.316203
0.310954
0.305932
0.3011
0.296415
0.291827
0.287288
0.282752
0.278189
0.273609
0.367785
0.360629
0.353843
0.34738
0.341209
0.335311
0.329673
0.324286
0.319139
0.314218
0.309505
0.304976
0.300602
0.296349
0.292181
0.288064
0.283967
0.279901
0.367805
0.36072
0.354068
0.347795
0.341863
0.336237
0.330891
0.325806
0.320965
0.316349
0.311942
0.307724
0.303671
0.299758
0.295962
0.292256
0.288621
0.285082
0.36781
0.36075
0.354149
0.347962
0.342147
0.336669
0.331498
0.326608
0.321978
0.317588
0.31342
0.309453
0.305667
0.302041
0.298555
0.295189
0.291929
0.288803
0.36781
0.360758
0.354177
0.348023
0.342259
0.336851
0.331769
0.326987
0.322482
0.318233
0.314222
0.310428
0.306832
0.303416
0.300162
0.297053
0.294077
0.291262
0.36781
0.36076
0.354184
0.348042
0.342297
0.336917
0.331872
0.327138
0.322692
0.318514
0.314584
0.310884
0.307396
0.304103
0.300988
0.298038
0.295242
0.292624
0.36781
0.36076
0.354187
0.34805
0.342313
0.336945
0.331919
0.327208
0.322793
0.318651
0.314766
0.31112
0.307696
0.304479
0.301454
0.298609
0.295934
0.293451
0.367809
0.36076
0.354188
0.348053
0.342321
0.336959
0.331942
0.327243
0.322843
0.31872
0.314859
0.311241
0.307852
0.304678
0.301706
0.298923
0.296324
0.293926
0.367809
0.360759
0.354188
0.348055
0.342326
0.336969
0.331956
0.327265
0.322872
0.318759
0.314908
0.311304
0.307932
0.304778
0.30183
0.299079
0.296516
0.294161
0.367808
0.360758
0.354188
0.348056
0.34233
0.336976
0.331969
0.327283
0.322896
0.31879
0.314946
0.311349
0.307985
0.304841
0.301904
0.299165
0.296617
0.294277
0.367807
0.360756
0.354186
0.348057
0.342333
0.336983
0.331981
0.327301
0.322921
0.318822
0.314985
0.311396
0.308039
0.304901
0.30197
0.299236
0.296692
0.294354
0.367805
0.360754
0.354183
0.348056
0.342335
0.33699
0.331994
0.327321
0.32295
0.318859
0.315032
0.311451
0.308102
0.304971
0.302046
0.299316
0.296774
0.294432
0.367803
0.36075
0.35418
0.348053
0.342336
0.336997
0.332008
0.327344
0.322983
0.318903
0.315086
0.311516
0.308176
0.305054
0.302135
0.299409
0.296867
0.294522
0.367801
0.360747
0.354176
0.348052
0.342339
0.337005
0.332023
0.327367
0.323014
0.318944
0.315136
0.311575
0.308243
0.305128
0.302214
0.29949
0.296948
0.2946
0.3678
0.360745
0.354175
0.348054
0.342344
0.337016
0.332039
0.32739
0.323044
0.31898
0.315179
0.311624
0.308297
0.305185
0.302273
0.29955
0.297005
0.294653
0.367799
0.360744
0.354176
0.348057
0.342351
0.337026
0.332052
0.327405
0.323061
0.318998
0.315197
0.31164
0.30831
0.305194
0.302277
0.299545
0.296991
0.294628
0.367798
0.360743
0.354175
0.348054
0.342343
0.337008
0.332021
0.327356
0.322988
0.318898
0.315065
0.311473
0.308105
0.304948
0.301989
0.299214
0.296615
0.294206
0.367796
0.360733
0.354146
0.34799
0.342227
0.336825
0.331758
0.327001
0.322533
0.318336
0.314392
0.310688
0.307207
0.303938
0.300869
0.297988
0.295285
0.292777
0.367778
0.360655
0.353957
0.347636
0.34166
0.336011
0.330675
0.325638
0.320889
0.316416
0.31221
0.308256
0.304545
0.301062
0.297796
0.294735
0.291869
0.289212
0.367671
0.360269
0.35315
0.346313
0.339773
0.333548
0.327656
0.322105
0.316897
0.312025
0.307474
0.303231
0.299279
0.295602
0.292179
0.288993
0.286029
0.283293
0.367182
0.35883
0.350557
0.34253
0.334883
0.327711
0.321061
0.314943
0.309349
0.304255
0.299633
0.295444
0.291647
0.288198
0.285056
0.282186
0.279556
0.277155
0.365311
0.354442
0.343789
0.33382
0.324848
0.317008
0.310299
0.304662
0.300013
0.296253
0.293271
0.29095
0.289181
0.287859
0.286884
0.28617
0.285644
0.285265
0.357579
0.338098
0.32151
0.3091
0.300993
0.2969
0.296391
0.29896
0.304071
0.311192
0.319816
0.329473
0.339745
0.350272
0.360754
0.37095
0.380703
0.389804
0.31473
0.264078
0.224557
0.193546
0.169211
0.150198
0.135477
0.124242
0.115841
0.10974
0.105495
0.102735
0.101148
0.100471
0.100484
0.101005
0.101888
0.103006
0.08731
0.13478
0.152069
0.166073
0.172617
0.174472
0.171125
0.16943
0.171803
0.177522
0.186662
0.199425
0.21621
0.237644
0.264601
0.298136
0.333121
0.366156
0.394382
0.41368
0.41824
0.40021
0.349728
0.257522
0.161616
0.0908036
0.0680441
0.0699067
0.0744086
0.0798921
0.0869574
0.0958135
0.0997841
0.0957948
0.0881619
0.0806032
0.0758304
0.0755765
0.0813152
0.092961
0.110895
0.139697
0.224819
0.432049
0.646392
0.846529
1.02679
1.18188
1.3097
1.41027
1.48493
1.53576
1.56523
1.57595
1.57052
1.55144
1.52105
1.4815
1.43467
1.3822
1.32619
1.26999
1.21376
1.15769
1.10202
1.04695
0.992696
0.939447
0.887373
0.836631
0.787356
0.739658
0.693617
0.649273
0.606622
0.565613
0.526151
0.488107
0.451338
0.41571
0.381136
0.347594
0.315157
0.283992
0.254379
0.226732
0.201697
0.180316
0.162996
0.16733
0.15767
0.15728
0.156408
0.156974
0.158819
0.156268
0.150713
0.144107
0.137766
0.134142
0.141584
0.168233
0.187731
0.202701
0.214796
0.224734
0.232058
0.233614
0.225179
0.199354
0.154912
0.12149
0.0964432
0.0783051
0.065956
0.0583674
0.054455
0.0531136
0.0533393
0.0543288
0.0555126
0.0565399
0.057242
0.0575944
0.0576852
0.0576942
0.0578649
0.0584839
0.0598884
0.0623967
0.0663513
0.0722504
0.0801159
0.0905113
0.10535
0.131894
0.168972
0.185828
0.214985
0.356157
0.546571
0.673186
0.737256
0.748521
0.720646
0.666958
0.598305
0.528125
0.460797
0.398389
0.342065
0.292225
0.24886
0.212416
0.186711
0.17517
0.177435
0.203008
0.237236
0.279232
0.328432
0.383612
0.442777
0.503413
0.564571
0.620753
0.646024
0.624889
0.550237
0.429705
0.291052
0.173698
0.105668
0.0816119
0.0763608
0.070836
0.0579269
0.0489684
0.0456587
0.0430037
0.0593587
0.113008
0.109562
0.1773
0.218708
0.213538
0.197142
0.18033
0.164833
0.150649
0.137911
0.126822
0.117477
0.109856
0.103892
0.0996824
0.101833
0.111448
0.128178
0.150674
0.176457
0.201725
0.22111
0.228774
0.226778
0.207557
0.166972
0.119064
0.0823644
0.0698599
0.0844766
0.106203
0.120288
0.119259
0.10711
0.0950236
0.105883
0.151429
0.236224
0.33043
0.372804
0.402527
0.438314
0.479289
0.509387
0.526462
0.531292
0.525807
0.512575
0.494302
0.473497
0.452276
0.432272
0.414636
0.400102
0.389095
0.381836
0.378442
0.378978
0.383459
0.390997
0.398786
0.406812
0.415099
0.423677
0.432578
0.441837
0.451481
0.461526
0.471972
0.482785
0.493886
0.505136
0.516309
0.527079
0.537
0.545508
0.551932
0.555547
0.555638
0.551602
0.543043
0.529849
0.512229
0.490686
0.465948
0.438841
0.410148
0.380457
0.352897
0.328693
0.307197
0.287835
0.27043
0.254626
0.240394
0.227228
0.21465
0.202695
0.19143
0.180969
0.170824
0.160714
0.150878
0.141435
0.132475
0.124128
0.117074
0.111662
0.108378
0.106195
0.104207
0.10339
0.104444
0.107665
0.112875
0.119466
0.126585
0.133357
0.139074
0.143297
0.145847
0.146743
0.146116
0.144138
0.140963
0.136684
0.13132
0.124831
0.117168
0.108341
0.0985535
0.0885486
0.079945
0.0757601
0.0807083
0.108941
0.173167
0.237571
0.27682
0.298109
0.297965
0.2887
0.27934
0.274153
0.274411
0.281017
0.289722
0.299099
0.308986
0.318632
0.326649
0.331081
0.3297
0.319927
0.301628
0.282822
0.262439
0.242592
0.224213
0.207578
0.192599
0.178995
0.166392
0.154594
0.144846
0.1474
0.158509
0.169848
0.176214
0.18336
0.204811
0.242628
0.288285
0.317861
0.309072
0.267693
0.213511
0.164108
0.127206
0.0400617
0.0987516
0.205785
0.283633
0.256144
0.207783
0.168263
0.140011
0.119876
0.10509
0.0939274
0.0853453
0.0786707
0.0734409
0.0693317
0.0661347
0.0643014
0.0647905
0.068709
0.0771724
0.0906316
0.108285
0.127887
0.146339
0.162071
0.170676
0.165385
0.14532
0.119536
0.10219
0.10776
0.132014
0.156619
0.165232
0.175516
0.217883
0.276114
0.313661
0.331898
0.338951
0.340108
0.342211
0.345904
0.348381
0.34699
0.342457
0.336302
0.330121
0.325156
0.32208
0.321029
0.321774
0.323943
0.327179
0.33122
0.335898
0.341094
0.346705
0.352619
0.35883
0.365295
0.371974
0.378888
0.386089
0.393652
0.401676
0.410274
0.419569
0.429684
0.44073
0.452797
0.465926
0.480092
0.495171
0.510903
0.52686
0.542423
0.556779
0.568955
0.577895
0.582579
0.582176
0.576178
0.564496
0.547477
0.525829
0.50046
0.472267
0.441722
0.412984
0.387152
0.36293
0.34035
0.319451
0.300141
0.282342
0.265904
0.25066
0.236493
0.223326
0.211097
0.199616
0.188757
0.178489
0.168797
0.159669
0.151101
0.143087
0.13561
0.128591
0.122143
0.116467
0.111616
0.107637
0.104552
0.102327
0.100874
0.100058
0.0997139
0.0996632
0.099727
0.0997418
0.0995714
0.0991116
0.0982867
0.0970373
0.0953011
0.0929907
0.0899802
0.0861167
0.0812646
0.0754746
0.0695712
0.0660591
0.0696511
0.0909172
0.138897
0.190923
0.211561
0.223299
0.232343
0.240104
0.247335
0.252123
0.2545
0.256159
0.258134
0.261627
0.26688
0.273726
0.281602
0.289343
0.295096
0.29645
0.290392
0.277542
0.261746
0.244189
0.226619
0.210148
0.195248
0.181991
0.170239
0.159799
0.150537
0.142193
0.13416
0.126338
0.119839
0.115541
0.114399
0.118139
0.126295
0.136055
0.145557
0.155686
0.165064
0.168897
0.163864
0.149589
0.0384406
0.235245
0.31756
0.260145
0.195045
0.149207
0.119863
0.100775
0.0877032
0.0782989
0.0712775
0.065881
0.0616278
0.0582092
0.055436
0.0532017
0.0515909
0.0508454
0.0513617
0.0539485
0.0596472
0.069169
0.0822052
0.0973489
0.113197
0.127572
0.136515
0.136778
0.131772
0.132867
0.153063
0.195527
0.244818
0.292117
0.292209
0.290477
0.293819
0.291728
0.286461
0.2814
0.278105
0.27705
0.277318
0.277866
0.278439
0.279524
0.281482
0.28433
0.287793
0.291495
0.295146
0.298637
0.302009
0.305362
0.308766
0.312227
0.315687
0.319065
0.322283
0.325472
0.328541
0.33149
0.334356
0.337217
0.340197
0.343458
0.347201
0.351659
0.357085
0.363747
0.371912
0.381824
0.39368
0.407592
0.423536
0.441301
0.460431
0.480182
0.499512
0.517133
0.53162
0.541601
0.54597
0.544079
0.53584
0.521708
0.502508
0.47919
0.452739
0.427849
0.40402
0.381101
0.359331
0.338845
0.319666
0.301759
0.285069
0.26953
0.255063
0.241585
0.229021
0.217293
0.206328
0.196066
0.186455
0.177452
0.169017
0.161109
0.153681
0.146668
0.139993
0.133612
0.127683
0.122266
0.117397
0.113082
0.109296
0.105996
0.103128
0.10063
0.0984371
0.096481
0.0946874
0.0929762
0.0912601
0.0894448
0.0874296
0.085107
0.0823616
0.0790762
0.0751788
0.0708907
0.0674159
0.0680443
0.0801414
0.112668
0.157114
0.181959
0.190553
0.203246
0.218174
0.230227
0.234976
0.233014
0.22802
0.222743
0.218582
0.21645
0.216588
0.219073
0.223701
0.229724
0.235584
0.238813
0.236194
0.228306
0.216839
0.203444
0.189828
0.17712
0.165827
0.156031
0.14759
0.140301
0.133982
0.128474
0.123622
0.119105
0.114147
0.108661
0.103267
0.0986105
0.0947783
0.0914487
0.0888613
0.0879738
0.0889719
0.0902614
0.0900807
0.0884314
0.0390984
0.281497
0.23083
0.166949
0.126717
0.103243
0.0886906
0.0787789
0.0714629
0.0657471
0.0611063
0.0572313
0.0539343
0.0511192
0.0487549
0.0468415
0.0453819
0.0444306
0.0441098
0.0447625
0.0470714
0.0519625
0.0600709
0.0711739
0.0845591
0.0994093
0.114315
0.127912
0.144406
0.177273
0.233969
0.324757
0.353624
0.304959
0.278219
0.263117
0.253562
0.246374
0.241735
0.23986
0.240422
0.242817
0.246331
0.250457
0.254924
0.25949
0.263813
0.267577
0.270619
0.272986
0.274874
0.276531
0.27816
0.279882
0.281739
0.283707
0.28572
0.287687
0.28953
0.290979
0.291861
0.292155
0.291895
0.291174
0.290137
0.28898
0.287948
0.287333
0.28747
0.288736
0.291542
0.296315
0.303474
0.313396
0.326362
0.342492
0.361662
0.383415
0.406893
0.430806
0.453495
0.473104
0.487855
0.496399
0.49799
0.49267
0.481052
0.463958
0.443929
0.423764
0.403344
0.383152
0.36356
0.344795
0.326971
0.31013
0.294277
0.27939
0.265428
0.252342
0.240079
0.22859
0.217823
0.207728
0.198258
0.189371
0.181028
0.173195
0.165831
0.158888
0.152317
0.146063
0.140064
0.134402
0.129104
0.124191
0.119669
0.115529
0.111752
0.108309
0.105169
0.10229
0.0996285
0.0971256
0.0947115
0.0923011
0.0897949
0.0870804
0.0840355
0.0805474
0.0766287
0.0728154
0.0709067
0.0752653
0.0935186
0.127914
0.158626
0.169137
0.179436
0.197282
0.214512
0.222646
0.220098
0.211533
0.201449
0.192211
0.18494
0.179598
0.176469
0.175884
0.178012
0.182542
0.188278
0.192801
0.193018
0.188625
0.18051
0.170253
0.15951
0.149455
0.140661
0.133246
0.12707
0.121893
0.117479
0.113662
0.110355
0.107477
0.104945
0.102108
0.0987222
0.0948262
0.0905162
0.0859038
0.0812374
0.0769094
0.0732563
0.0703093
0.0680872
0.0671256
0.0383061
0.192475
0.144632
0.112405
0.095315
0.0848011
0.0770988
0.0707373
0.0652147
0.0603758
0.0561211
0.0523513
0.049005
0.0460843
0.0436299
0.0416831
0.0402577
0.0394411
0.0392156
0.0396336
0.0409609
0.0438354
0.0491547
0.0574945
0.068946
0.0838867
0.103299
0.130103
0.175027
0.243948
0.340741
0.366041
0.30864
0.264267
0.23967
0.226111
0.219066
0.216211
0.216563
0.219375
0.223922
0.229525
0.235568
0.241532
0.246984
0.251596
0.255207
0.257862
0.25978
0.261261
0.2626
0.264027
0.265681
0.267618
0.26982
0.272213
0.274674
0.277057
0.278726
0.279133
0.278224
0.276044
0.272719
0.268447
0.263474
0.258085
0.252583
0.24729
0.242551
0.238747
0.236308
0.235713
0.237482
0.242152
0.25023
0.262137
0.278122
0.298152
0.321786
0.348057
0.375412
0.401767
0.424773
0.44238
0.453008
0.45614
0.451992
0.441521
0.427966
0.412472
0.395854
0.378804
0.361804
0.34517
0.329096
0.313691
0.299012
0.285078
0.271885
0.259415
0.247641
0.236533
0.22606
0.216186
0.20688
0.19811
0.189844
0.182052
0.1747
0.16775
0.161166
0.154915
0.148964
0.143276
0.137898
0.132835
0.128092
0.123666
0.119547
0.115721
0.112164
0.108849
0.105742
0.102796
0.0999543
0.0971411
0.0942612
0.0911952
0.0878046
0.0839845
0.0798807
0.0763647
0.075772
0.0830836
0.104364
0.134324
0.152497
0.159227
0.174367
0.196064
0.211839
0.21432
0.206575
0.194838
0.182874
0.17225
0.163532
0.156221
0.150732
0.147675
0.147609
0.150626
0.155939
0.161195
0.163478
0.161883
0.156568
0.148812
0.140193
0.131945
0.124743
0.118784
0.113974
0.110092
0.106893
0.104167
0.101768
0.0996285
0.0977334
0.0959944
0.0939753
0.0914619
0.0883933
0.0848203
0.0808837
0.0767748
0.0726852
0.0688088
0.0655076
0.0636368
0.042488
0.125167
0.105615
0.0949833
0.0872158
0.0803203
0.073843
0.0677506
0.0622236
0.0573596
0.053046
0.0491353
0.0455706
0.0424025
0.0397275
0.037612
0.0361511
0.0355142
0.0356034
0.0363023
0.0376079
0.0398907
0.0440678
0.0511782
0.0620772
0.0785162
0.105038
0.152452
0.222344
0.306888
0.350396
0.306249
0.254929
0.223762
0.207783
0.200867
0.199557
0.201887
0.206729
0.21326
0.220793
0.228712
0.236488
0.24372
0.250188
0.255869
0.260909
0.265559
0.270087
0.274719
0.279589
0.284739
0.290115
0.295579
0.300927
0.305896
0.310194
0.313521
0.314417
0.31296
0.309129
0.303034
0.294919
0.285156
0.274201
0.262557
0.250721
0.239159
0.228298
0.218541
0.210297
0.204006
0.200151
0.199251
0.201837
0.208421
0.219456
0.235248
0.255822
0.280737
0.308907
0.338433
0.366618
0.390903
0.408802
0.419186
0.42164
0.417793
0.409768
0.398846
0.386066
0.372225
0.357897
0.343482
0.329248
0.315365
0.301938
0.289028
0.276667
0.264866
0.253623
0.24293
0.232771
0.223128
0.213982
0.20531
0.19709
0.1893
0.181915
0.174908
0.168253
0.161928
0.155911
0.150177
0.144722
0.139561
0.134693
0.130112
0.125811
0.121775
0.117987
0.114424
0.111056
0.107843
0.104731
0.101653
0.0985111
0.0951795
0.091512
0.0874413
0.0832664
0.0801337
0.0807729
0.0901164
0.111449
0.134554
0.144379
0.151997
0.172096
0.195945
0.208885
0.207193
0.197188
0.184868
0.172867
0.161969
0.152305
0.143356
0.135763
0.130421
0.128246
0.129719
0.13435
0.139769
0.143766
0.144565
0.141714
0.136087
0.12914
0.122159
0.115936
0.110782
0.106695
0.103518
0.101043
0.0990685
0.0974312
0.096017
0.0947549
0.0935595
0.092224
0.0904597
0.0880798
0.0850559
0.0815212
0.0777038
0.0738165
0.0700316
0.066642
0.0644281
0.0473142
0.102132
0.100005
0.0941671
0.0867992
0.0796259
0.0728247
0.066472
0.060911
0.0561396
0.0518238
0.0477261
0.0438001
0.0401931
0.0371788
0.0348902
0.0335145
0.0331313
0.0334959
0.0344535
0.0360393
0.0386557
0.0433059
0.0513205
0.0646504
0.0871731
0.127214
0.189575
0.259326
0.310015
0.293145
0.247023
0.213045
0.195309
0.188453
0.188259
0.192243
0.198962
0.207521
0.217248
0.227576
0.238033
0.248298
0.258231
0.267854
0.277303
0.286754
0.296371
0.306268
0.316485
0.32698
0.337621
0.348181
0.358352
0.367753
0.37596
0.382547
0.385925
0.386214
0.383166
0.376634
0.366664
0.35353
0.337727
0.319927
0.300899
0.281409
0.262142
0.243676
0.226508
0.211114
0.197992
0.187682
0.180723
0.177593
0.178678
0.184347
0.194964
0.210819
0.231944
0.257907
0.287414
0.317686
0.345919
0.36888
0.384854
0.392777
0.394557
0.391534
0.384942
0.375855
0.365133
0.353426
0.341202
0.328791
0.316418
0.304234
0.29234
0.280802
0.269661
0.25894
0.24865
0.238795
0.22937
0.220369
0.21178
0.20359
0.195784
0.188346
0.181257
0.1745
0.168059
0.161921
0.156072
0.150497
0.145209
0.140204
0.135476
0.131016
0.126811
0.122846
0.119098
0.115539
0.112133
0.108829
0.105558
0.102223
0.0986889
0.0948155
0.0905936
0.0864609
0.0837628
0.0854111
0.0957291
0.115147
0.131597
0.136648
0.14599
0.169988
0.195478
0.206066
0.202368
0.192222
0.180766
0.169559
0.158702
0.148028
0.137374
0.127742
0.120303
0.116144
0.116122
0.119684
0.125313
0.130692
0.133571
0.132895
0.129096
0.123464
0.117329
0.111607
0.106745
0.102856
0.0998834
0.0976977
0.0961495
0.0950922
0.0943899
0.0939127
0.0935089
0.0929445
0.0919014
0.0901329
0.0875153
0.0841141
0.0801742
0.076031
0.0720144
0.0684609
0.066027
0.0519666
0.102599
0.104131
0.0963355
0.087811
0.0802187
0.0731838
0.066789
0.0614145
0.0568451
0.0524856
0.0480374
0.0435326
0.0392833
0.0357942
0.0336031
0.0329028
0.0329324
0.0337306
0.0354731
0.0383964
0.0430648
0.0502671
0.0613204
0.0794423
0.110196
0.157436
0.214555
0.261482
0.266733
0.236448
0.20495
0.186533
0.179598
0.180144
0.185406
0.193774
0.204297
0.216323
0.229322
0.242859
0.25663
0.270474
0.284345
0.298264
0.312283
0.326464
0.340868
0.355529
0.370433
0.385485
0.400495
0.415158
0.429062
0.441693
0.452464
0.460756
0.465283
0.466283
0.463246
0.455754
0.443617
0.426965
0.4063
0.382478
0.356611
0.329872
0.303292
0.277632
0.253406
0.231017
0.210919
0.19375
0.180302
0.171273
0.166977
0.167551
0.173138
0.184001
0.200382
0.22241
0.249656
0.279559
0.30915
0.335009
0.354066
0.366632
0.37313
0.374482
0.37179
0.366103
0.358303
0.349081
0.338954
0.328297
0.317378
0.306391
0.295473
0.284722
0.274208
0.263979
0.254067
0.244494
0.23527
0.2264
0.217883
0.209716
0.201889
0.194395
0.18722
0.180355
0.173789
0.167513
0.16152
0.155797
0.150355
0.14519
0.140295
0.135662
0.131281
0.127136
0.123208
0.11947
0.115887
0.112412
0.108975
0.105476
0.101778
0.0977553
0.0934585
0.0894271
0.0871231
0.0894411
0.0998202
0.116411
0.127442
0.130097
0.141081
0.16686
0.192328
0.202777
0.199777
0.190997
0.181097
0.170982
0.16006
0.148058
0.135527
0.123817
0.114567
0.108735
0.107151
0.109837
0.115627
0.122188
0.126887
0.128105
0.12583
0.121182
0.115532
0.109925
0.104949
0.100847
0.0976728
0.0953899
0.0939168
0.0931466
0.0929512
0.0931752
0.0936128
0.0939815
0.0939128
0.0930075
0.091025
0.0879639
0.0840003
0.0794798
0.074883
0.0707844
0.0679125
0.0564877
0.110098
0.109321
0.0993187
0.0899766
0.0820397
0.074939
0.0687234
0.0636399
0.0592891
0.0548716
0.0501201
0.0452847
0.0409262
0.0377338
0.0363748
0.0362381
0.0369925
0.0388231
0.0419644
0.0466592
0.0533354
0.0630273
0.0779843
0.101584
0.136171
0.179203
0.218567
0.233662
0.220453
0.197099
0.180021
0.173079
0.17395
0.179999
0.189559
0.201667
0.215691
0.231112
0.247476
0.26441
0.281631
0.298927
0.316147
0.333208
0.350108
0.366924
0.383766
0.400732
0.417858
0.435086
0.452239
0.469019
0.485006
0.499663
0.512352
0.521991
0.528612
0.531792
0.530748
0.524737
0.513186
0.495836
0.47289
0.445126
0.413888
0.380887
0.347801
0.315887
0.285865
0.258043
0.232557
0.209757
0.190539
0.176104
0.166961
0.163095
0.164356
0.170804
0.182638
0.200273
0.22408
0.252172
0.280512
0.306689
0.328348
0.34431
0.354453
0.359377
0.360007
0.357311
0.352147
0.345209
0.337033
0.32802
0.318472
0.308614
0.298613
0.288599
0.278667
0.26889
0.259322
0.250002
0.240955
0.2322
0.223745
0.215593
0.207746
0.200198
0.192945
0.18598
0.179297
0.17289
0.166755
0.160885
0.155282
0.149948
0.144878
0.140064
0.135498
0.131168
0.127055
0.123137
0.11938
0.115739
0.112145
0.108497
0.10466
0.100528
0.096196
0.0922624
0.0902273
0.0928316
0.102607
0.116194
0.123211
0.124665
0.136315
0.161929
0.186787
0.19818
0.197471
0.19125
0.183286
0.173959
0.162703
0.149624
0.135788
0.12258
0.11152
0.104016
0.101145
0.103218
0.109273
0.116938
0.123241
0.126058
0.124982
0.120991
0.115513
0.109723
0.104349
0.099757
0.0961052
0.0934417
0.0917488
0.0909595
0.0909631
0.0915989
0.0926366
0.0937574
0.0945627
0.0946212
0.0935564
0.0911815
0.0876085
0.083109
0.0781393
0.0734273
0.0699379
0.061107
0.118
0.114697
0.103352
0.0932367
0.0849075
0.0778595
0.0719988
0.0673113
0.0632719
0.0591661
0.0547514
0.0503515
0.0465861
0.0440863
0.043333
0.043614
0.0451053
0.0478678
0.0520942
0.0581684
0.0668889
0.0796503
0.098234
0.12385
0.155189
0.185319
0.202281
0.200581
0.187508
0.174488
0.168184
0.169082
0.175361
0.185477
0.198512
0.213875
0.231061
0.24957
0.26891
0.288614
0.308251
0.327468
0.346048
0.363948
0.381296
0.398316
0.415255
0.432303
0.449548
0.466944
0.484315
0.501362
0.517683
0.532781
0.546073
0.556849
0.565338
0.570855
0.572535
0.569446
0.560697
0.545575
0.523734
0.495428
0.461751
0.424665
0.386546
0.34941
0.314555
0.282585
0.253555
0.227178
0.203985
0.185583
0.17282
0.165598
0.163549
0.166535
0.174669
0.188451
0.20809
0.232497
0.259263
0.285406
0.308307
0.326358
0.339049
0.346681
0.349981
0.349795
0.346915
0.342004
0.33559
0.328081
0.319794
0.310977
0.301822
0.292484
0.283083
0.273714
0.264452
0.255353
0.246458
0.237796
0.229388
0.221245
0.213374
0.205777
0.198453
0.1914
0.184613
0.17809
0.171828
0.165823
0.160075
0.154584
0.149348
0.144361
0.139618
0.135106
0.130813
0.126717
0.122789
0.118986
0.115243
0.111458
0.107502
0.103286
0.0989307
0.09505
0.0931177
0.0956546
0.104423
0.115267
0.119458
0.120123
0.13127
0.155215
0.179056
0.1919
0.194128
0.190663
0.184434
0.175888
0.164698
0.151004
0.136134
0.121645
0.109244
0.100567
0.0969091
0.0987795
0.105328
0.1141
0.121807
0.1259
0.125668
0.122012
0.11644
0.11026
0.104324
0.0991055
0.0948475
0.0916632
0.0895797
0.088556
0.0884902
0.0892177
0.0904972
0.0919985
0.0933173
0.0940288
0.0937621
0.0922752
0.0895077
0.0856088
0.0808821
0.0759813
0.0720042
0.0656755
0.12474
0.120794
0.108452
0.0975115
0.0887061
0.0816254
0.0760203
0.0717172
0.0682562
0.0649964
0.0615907
0.058198
0.0553069
0.0534492
0.0529611
0.0535443
0.055541
0.0590742
0.0644371
0.0721548
0.0829957
0.0978191
0.117072
0.139675
0.161576
0.176521
0.180698
0.176123
0.168768
0.164335
0.165337
0.171409
0.181446
0.19466
0.210547
0.228656
0.248469
0.269388
0.290761
0.311933
0.332332
0.351591
0.36962
0.386597
0.402879
0.418875
0.43494
0.451286
0.467938
0.484737
0.501381
0.517496
0.532682
0.546538
0.558671
0.569128
0.577893
0.584397
0.587826
0.587197
0.581479
0.569707
0.55108
0.525188
0.492407
0.45438
0.413887
0.37351
0.335171
0.299982
0.268728
0.240518
0.215319
0.194748
0.180074
0.170893
0.166722
0.167049
0.172015
0.182386
0.198694
0.220315
0.245225
0.27059
0.293725
0.31281
0.32708
0.336604
0.34192
0.343739
0.342759
0.339584
0.334709
0.328534
0.321377
0.313497
0.305105
0.296375
0.287448
0.27844
0.269444
0.260532
0.25176
0.24317
0.234793
0.226648
0.218749
0.211103
0.203714
0.196582
0.189705
0.183083
0.176712
0.170592
0.16472
0.159095
0.153714
0.148576
0.143673
0.138999
0.134542
0.130284
0.1262
0.122249
0.118369
0.114464
0.11041
0.106129
0.101747
0.0978562
0.0958575
0.0980383
0.10561
0.11417
0.116423
0.116322
0.125957
0.147154
0.169474
0.183608
0.188682
0.18783
0.183277
0.175624
0.164735
0.150747
0.135233
0.119959
0.1068
0.0975645
0.0937113
0.0958729
0.103214
0.113132
0.122028
0.127032
0.12726
0.123627
0.117749
0.111057
0.104505
0.0986484
0.0937938
0.0901001
0.0876227
0.0863337
0.0861313
0.0868414
0.0882115
0.0899064
0.091526
0.0926564
0.0929372
0.0921228
0.0901243
0.0870422
0.0830181
0.0784503
0.0743083
0.0686356
0.131493
0.127436
0.114391
0.102687
0.0933064
0.0859716
0.0803782
0.0762785
0.0733121
0.0709809
0.0688691
0.0668738
0.0652183
0.064302
0.0640241
0.0650936
0.0677055
0.0720746
0.0785062
0.0873823
0.0990348
0.113417
0.129554
0.145146
0.157187
0.163614
0.164607
0.162579
0.161011
0.162639
0.168379
0.177891
0.190662
0.206332
0.224557
0.244869
0.266635
0.289077
0.311345
0.332648
0.352426
0.370485
0.38701
0.40247
0.417456
0.432518
0.44802
0.464052
0.480383
0.496521
0.511865
0.525892
0.538287
0.548979
0.558086
0.566181
0.573277
0.579
0.582625
0.583133
0.579411
0.57041
0.555156
0.53281
0.502975
0.466497
0.426448
0.385485
0.345888
0.308666
0.27635
0.247569
0.222434
0.201719
0.186179
0.17595
0.170458
0.169093
0.172006
0.180093
0.194095
0.213627
0.236893
0.261222
0.283994
0.303355
0.318431
0.329144
0.335882
0.339222
0.339754
0.338009
0.334435
0.329403
0.323225
0.316163
0.30844
0.300241
0.291727
0.28303
0.274258
0.265499
0.256824
0.248284
0.239921
0.231763
0.223829
0.216132
0.20868
0.201475
0.194519
0.187811
0.181349
0.175133
0.169159
0.163425
0.157928
0.152665
0.147632
0.142824
0.13823
0.133836
0.12962
0.125545
0.121553
0.117553
0.113427
0.1091
0.104685
0.100727
0.0985177
0.100128
0.106458
0.113234
0.114204
0.113238
0.120651
0.138374
0.158539
0.173281
0.180609
0.182026
0.17907
0.172363
0.16194
0.14804
0.132393
0.116933
0.103674
0.0945599
0.0911624
0.0941524
0.102605
0.113685
0.123507
0.129006
0.129292
0.125391
0.119053
0.111805
0.10467
0.0982568
0.0929202
0.088854
0.0861372
0.0847541
0.0846049
0.0855089
0.0872023
0.0893403
0.0915162
0.0933031
0.0943024
0.0941928
0.0927871
0.0901299
0.0865355
0.0822125
0.0778774
0.0700787
0.137217
0.134056
0.120969
0.108835
0.0989297
0.0911655
0.0852869
0.0810409
0.0781401
0.0762434
0.0750112
0.0742176
0.0738249
0.073981
0.0747207
0.0766619
0.0800647
0.0851478
0.0920816
0.100908
0.111381
0.122797
0.133979
0.143583
0.150587
0.154713
0.156657
0.158059
0.160891
0.166524
0.175372
0.187342
0.202285
0.220014
0.240183
0.262216
0.285307
0.308483
0.330751
0.351308
0.369747
0.386144
0.400994
0.415037
0.429057
0.443669
0.459146
0.475306
0.491503
0.506788
0.520229
0.53121
0.539598
0.545796
0.550662
0.554931
0.558807
0.562161
0.564433
0.564632
0.561559
0.554076
0.541197
0.521967
0.495563
0.461614
0.423878
0.38459
0.346228
0.310491
0.27813
0.249333
0.224457
0.204173
0.18905
0.178977
0.173183
0.171052
0.172907
0.179816
0.192596
0.210889
0.232964
0.256283
0.27838
0.297507
0.312809
0.324145
0.331798
0.336223
0.337905
0.33729
0.334768
0.33068
0.325321
0.318948
0.311788
0.304039
0.295872
0.287433
0.278843
0.270205
0.261599
0.253089
0.244725
0.236542
0.228566
0.220815
0.2133
0.206027
0.198998
0.192216
0.185678
0.179383
0.173328
0.167508
0.16192
0.156562
0.15143
0.146519
0.141822
0.137325
0.13301
0.128844
0.124773
0.12071
0.116544
0.112196
0.107753
0.10369
0.101168
0.102067
0.107185
0.11264
0.112831
0.110947
0.115755
0.129576
0.146912
0.161293
0.169972
0.173112
0.171538
0.165764
0.155972
0.142561
0.127344
0.112351
0.0996962
0.0914206
0.0891508
0.093503
0.103347
0.115537
0.125939
0.131465
0.131399
0.126981
0.12009
0.112307
0.10468
0.0978476
0.0921975
0.0879558
0.0852265
0.0840086
0.0842054
0.0856284
0.0879996
0.0909596
0.0940919
0.09696
0.0991396
0.10023
0.0998704
0.0977958
0.094261
0.0896176
0.0845039
0.0695878
0.140787
0.139827
0.127752
0.115907
0.105866
0.0977822
0.0915446
0.0869762
0.0838569
0.0819464
0.081013
0.080877
0.0814461
0.0825099
0.0842933
0.0870777
0.0910402
0.0962757
0.102759
0.110302
0.118531
0.126917
0.134875
0.141879
0.147591
0.152044
0.155832
0.160068
0.165952
0.174281
0.185388
0.199382
0.216267
0.235871
0.257762
0.281212
0.305231
0.328685
0.350511
0.369975
0.386865
0.401515
0.414676
0.427302
0.440314
0.454377
0.469622
0.485639
0.501515
0.515973
0.527779
0.536012
0.540415
0.541756
0.54194
0.541881
0.541671
0.541439
0.540914
0.539254
0.535332
0.527952
0.516025
0.498609
0.475035
0.445404
0.411123
0.374531
0.338127
0.303748
0.272402
0.244652
0.221071
0.202314
0.188676
0.179669
0.174329
0.172202
0.173919
0.180705
0.193291
0.211155
0.232505
0.254925
0.276176
0.294724
0.30983
0.321356
0.329511
0.334649
0.33715
0.337381
0.335672
0.332327
0.32762
0.321802
0.315098
0.307713
0.299824
0.291589
0.28314
0.27459
0.266028
0.257529
0.249149
0.240931
0.232907
0.225099
0.217521
0.210183
0.203089
0.19624
0.189637
0.18328
0.177162
0.171276
0.165622
0.160196
0.154995
0.150014
0.145247
0.140683
0.136305
0.132085
0.127971
0.123885
0.119719
0.115383
0.110932
0.106755
0.103868
0.103975
0.107935
0.112445
0.112285
0.109565
0.111687
0.121443
0.135368
0.148354
0.157334
0.161481
0.16094
0.156017
0.146985
0.134448
0.120224
0.106357
0.0950136
0.0882887
0.0877961
0.0939893
0.105406
0.118526
0.129057
0.134097
0.133296
0.12817
0.120696
0.112448
0.104453
0.0973527
0.0915562
0.0873152
0.0847519
0.0838696
0.0845604
0.0866142
0.0897307
0.0935397
0.0976317
0.101597
0.105054
0.107634
0.108931
0.108445
0.1058
0.101219