/*--------------------------------*- C++ -*----------------------------------*\
  =========                 |
  \\      /  F ield         | OpenFOAM: The Open Source CFD Toolbox
   \\    /   O peration     | Website:  https://openfoam.org
    \\  /    A nd           | Version:  9
     \\/     M anipulation  |
\*---------------------------------------------------------------------------*/
FoamFile
{
    format      ascii;
    class       volScalarField;
    location    "0.17";
    object      nut;
}
// * * * * * * * * * * * * * * * * * * * * * * * * * * * * * * * * * * * * * //

dimensions      [0 2 -1 0 0 0 0];

internalField   nonuniform List<scalar> 
12225
(
2.91397e-06
2.19864e-06
1.70389e-06
1.36931e-06
1.15489e-06
1.03349e-06
9.86054e-07
9.98723e-07
1.06145e-06
1.16737e-06
1.31234e-06
1.49435e-06
1.71231e-06
1.96363e-06
2.23978e-06
2.51934e-06
2.76604e-06
2.99488e-06
2.46788e-05
1.74274e-05
1.46818e-05
1.33628e-05
1.26922e-05
1.23404e-05
1.21265e-05
1.19562e-05
1.17923e-05
1.1629e-05
1.14724e-05
1.13308e-05
1.12107e-05
1.11146e-05
1.10393e-05
1.09716e-05
1.08967e-05
1.07761e-05
5.32518e-05
4.09045e-05
3.40083e-05
2.9393e-05
2.58546e-05
2.28674e-05
2.01867e-05
1.77273e-05
1.54983e-05
1.35466e-05
1.19159e-05
1.06269e-05
9.67373e-06
9.02857e-06
8.65038e-06
8.4939e-06
8.51753e-06
8.68577e-06
6.81145e-05
5.92216e-05
5.22182e-05
4.66861e-05
4.21016e-05
3.80914e-05
3.43944e-05
3.08409e-05
2.73437e-05
2.389e-05
2.05321e-05
1.73752e-05
1.45513e-05
1.21782e-05
1.0316e-05
8.95254e-06
8.02285e-06
7.44733e-06
7.36034e-05
6.9013e-05
6.42858e-05
5.98592e-05
5.57948e-05
5.20295e-05
4.84573e-05
4.49642e-05
4.1448e-05
3.78305e-05
3.40682e-05
3.01689e-05
2.6209e-05
2.23372e-05
1.87455e-05
1.5608e-05
1.3019e-05
1.09967e-05
7.53656e-05
7.31948e-05
7.05602e-05
6.77301e-05
6.48558e-05
6.20024e-05
5.91769e-05
5.63486e-05
5.34653e-05
5.04644e-05
4.72818e-05
4.38632e-05
4.0181e-05
3.62571e-05
3.21808e-05
2.81075e-05
2.42187e-05
2.07033e-05
7.58854e-05
7.47373e-05
7.33072e-05
7.16605e-05
6.98652e-05
6.79725e-05
6.60112e-05
6.3987e-05
6.18865e-05
5.96807e-05
5.73295e-05
5.47861e-05
5.20038e-05
4.89476e-05
4.56087e-05
4.20187e-05
3.8254e-05
3.44679e-05
7.60285e-05
7.52462e-05
7.43581e-05
7.33575e-05
7.22525e-05
7.10569e-05
6.97832e-05
6.84374e-05
6.70174e-05
6.55123e-05
6.39024e-05
6.21611e-05
6.0256e-05
5.81531e-05
5.58229e-05
5.32472e-05
5.04286e-05
4.74395e-05
7.60654e-05
7.53987e-05
7.47166e-05
7.40036e-05
7.32508e-05
7.24539e-05
7.16114e-05
7.0722e-05
6.97824e-05
6.87864e-05
6.77238e-05
6.65804e-05
6.53376e-05
6.39738e-05
6.24659e-05
6.07917e-05
5.89356e-05
5.69285e-05
7.60742e-05
7.54406e-05
7.48269e-05
7.42234e-05
7.36216e-05
7.30143e-05
7.23961e-05
7.17622e-05
7.11078e-05
7.04274e-05
6.97144e-05
6.896e-05
6.81536e-05
6.72826e-05
6.63325e-05
6.52879e-05
6.41353e-05
6.28895e-05
7.60761e-05
7.54511e-05
7.48578e-05
7.4291e-05
7.37452e-05
7.32153e-05
7.26967e-05
7.21849e-05
7.16755e-05
7.11641e-05
7.06457e-05
7.01146e-05
6.95643e-05
6.89871e-05
6.83745e-05
6.77172e-05
6.70065e-05
6.62512e-05
7.60765e-05
7.54534e-05
7.48653e-05
7.43087e-05
7.37801e-05
7.32761e-05
7.27932e-05
7.23283e-05
7.18781e-05
7.14393e-05
7.10084e-05
7.05815e-05
7.01542e-05
6.97217e-05
6.92786e-05
6.88192e-05
6.83382e-05
6.78417e-05
7.60765e-05
7.5454e-05
7.48674e-05
7.43142e-05
7.37915e-05
7.3297e-05
7.28282e-05
7.23828e-05
7.19586e-05
7.15534e-05
7.11648e-05
7.07902e-05
7.04269e-05
7.00718e-05
6.97218e-05
6.93735e-05
6.9024e-05
6.86779e-05
7.60765e-05
7.5454e-05
7.4868e-05
7.43158e-05
7.37951e-05
7.33038e-05
7.28401e-05
7.24022e-05
7.19883e-05
7.1597e-05
7.12266e-05
7.08755e-05
7.0542e-05
7.02242e-05
6.99204e-05
6.96287e-05
6.93478e-05
6.90815e-05
7.60764e-05
7.5454e-05
7.48681e-05
7.43163e-05
7.37963e-05
7.33061e-05
7.2844e-05
7.24084e-05
7.19979e-05
7.16112e-05
7.12471e-05
7.09043e-05
7.05817e-05
7.02781e-05
6.99925e-05
6.97238e-05
6.94716e-05
6.92393e-05
7.60763e-05
7.54539e-05
7.48681e-05
7.43165e-05
7.37968e-05
7.33072e-05
7.28458e-05
7.24111e-05
7.20018e-05
7.16165e-05
7.12543e-05
7.09139e-05
7.05946e-05
7.02952e-05
7.00151e-05
6.97536e-05
6.95104e-05
6.9289e-05
7.60762e-05
7.54536e-05
7.48679e-05
7.43164e-05
7.37971e-05
7.33079e-05
7.28471e-05
7.24131e-05
7.20046e-05
7.16201e-05
7.12588e-05
7.09194e-05
7.0601e-05
7.03029e-05
7.00241e-05
6.97641e-05
6.95228e-05
6.93034e-05
7.6076e-05
7.54533e-05
7.48676e-05
7.43163e-05
7.37973e-05
7.33086e-05
7.28484e-05
7.24152e-05
7.20075e-05
7.1624e-05
7.12635e-05
7.0925e-05
7.06074e-05
7.03099e-05
7.00316e-05
6.97718e-05
6.95303e-05
6.93104e-05
7.60758e-05
7.54529e-05
7.48671e-05
7.43159e-05
7.37973e-05
7.33092e-05
7.28498e-05
7.24175e-05
7.20108e-05
7.16284e-05
7.1269e-05
7.09315e-05
7.06148e-05
7.0318e-05
7.00401e-05
6.97803e-05
6.95384e-05
6.93174e-05
7.60755e-05
7.54525e-05
7.48667e-05
7.43157e-05
7.37975e-05
7.33099e-05
7.28513e-05
7.24198e-05
7.20141e-05
7.16326e-05
7.12741e-05
7.09374e-05
7.06214e-05
7.03251e-05
7.00474e-05
6.97876e-05
6.95452e-05
6.93233e-05
7.60754e-05
7.54522e-05
7.48665e-05
7.43158e-05
7.37979e-05
7.33107e-05
7.28525e-05
7.24215e-05
7.20161e-05
7.16349e-05
7.12765e-05
7.09398e-05
7.06235e-05
7.03265e-05
7.0048e-05
6.97869e-05
6.95429e-05
6.9319e-05
7.60752e-05
7.5452e-05
7.48662e-05
7.43152e-05
7.37966e-05
7.33083e-05
7.28483e-05
7.24148e-05
7.20061e-05
7.16209e-05
7.12578e-05
7.09155e-05
7.05931e-05
7.02893e-05
7.00034e-05
6.97344e-05
6.94821e-05
6.92497e-05
7.60749e-05
7.54503e-05
7.48613e-05
7.43044e-05
7.37764e-05
7.32748e-05
7.27975e-05
7.23429e-05
7.19097e-05
7.14968e-05
7.11034e-05
7.07288e-05
7.03725e-05
7.00339e-05
6.97125e-05
6.94079e-05
6.91201e-05
6.88529e-05
7.6071e-05
7.54326e-05
7.4815e-05
7.42124e-05
7.36217e-05
7.30415e-05
7.24726e-05
7.19163e-05
7.1374e-05
7.08477e-05
7.03389e-05
6.98488e-05
6.93785e-05
6.89287e-05
6.84996e-05
6.80915e-05
6.77046e-05
6.7344e-05
7.60352e-05
7.5293e-05
7.44988e-05
7.36566e-05
7.278e-05
7.18868e-05
7.09945e-05
7.01142e-05
6.92557e-05
6.8427e-05
6.76326e-05
6.68756e-05
6.61573e-05
6.54781e-05
6.48375e-05
6.42344e-05
6.36681e-05
6.31429e-05
7.57675e-05
7.44408e-05
7.28713e-05
7.11792e-05
6.94573e-05
6.77703e-05
6.61579e-05
6.46429e-05
6.32345e-05
6.19326e-05
6.07248e-05
5.96064e-05
5.8572e-05
5.76143e-05
5.67263e-05
5.59018e-05
5.51357e-05
5.44294e-05
7.41155e-05
7.04301e-05
6.66659e-05
6.31829e-05
6.0075e-05
5.7342e-05
5.49471e-05
5.28423e-05
5.09821e-05
4.93284e-05
4.78573e-05
4.65398e-05
4.53528e-05
4.42646e-05
4.32598e-05
4.233e-05
4.14682e-05
4.06728e-05
6.59145e-05
5.67537e-05
5.02895e-05
4.56021e-05
4.20539e-05
3.92721e-05
3.70226e-05
3.51519e-05
3.35588e-05
3.21762e-05
3.09583e-05
2.98726e-05
2.88959e-05
2.80156e-05
2.72199e-05
2.64965e-05
2.58357e-05
2.52281e-05
3.81251e-05
2.84561e-05
2.41092e-05
2.16551e-05
2.01292e-05
1.9148e-05
1.85143e-05
1.81091e-05
1.78551e-05
1.76996e-05
1.7606e-05
1.75484e-05
1.75087e-05
1.74749e-05
1.74395e-05
1.73978e-05
1.73476e-05
1.72861e-05
5.62841e-06
4.72256e-06
4.01575e-06
3.46112e-06
3.02589e-06
2.68583e-06
2.42257e-06
2.22167e-06
2.07149e-06
1.96247e-06
1.88669e-06
1.83748e-06
1.80927e-06
1.79734e-06
1.79776e-06
1.80728e-06
1.82324e-06
1.8434e-06
2.47125e-06
1.73691e-05
4.43969e-06
4.63554e-06
4.70784e-06
4.73044e-06
4.68451e-06
4.63711e-06
4.65681e-06
4.72163e-06
4.82999e-06
4.98085e-06
5.1744e-06
5.41268e-06
5.69783e-06
6.042e-06
6.41548e-06
6.75955e-06
7.05763e-06
7.28622e-06
7.41131e-06
7.3839e-06
7.12905e-06
6.45131e-06
5.05405e-06
1.27098e-05
8.57349e-06
8.68004e-06
9.20587e-06
9.85359e-06
1.06647e-05
1.17826e-05
1.25461e-05
1.21832e-05
1.12463e-05
1.02186e-05
9.46746e-06
9.22379e-06
9.72697e-06
1.10018e-05
1.29367e-05
3.58284e-06
3.93769e-06
5.9118e-06
7.84057e-06
9.33302e-06
1.05517e-05
1.15331e-05
1.23094e-05
1.29089e-05
1.33566e-05
1.36738e-05
1.38793e-05
1.39889e-05
1.40167e-05
1.39745e-05
1.38731e-05
1.37219e-05
1.35292e-05
1.33028e-05
1.30331e-05
1.27569e-05
1.24739e-05
1.21844e-05
1.18892e-05
1.15892e-05
1.12852e-05
1.09781e-05
1.06688e-05
1.0358e-05
1.00468e-05
9.73581e-06
9.4259e-06
9.11766e-06
8.81149e-06
8.50748e-06
8.20538e-06
7.90448e-06
7.60373e-06
7.30179e-06
6.99726e-06
6.68895e-06
6.37613e-06
6.05887e-06
5.73807e-06
5.41499e-06
5.08902e-06
4.74946e-06
4.42057e-06
2.08639e-05
4.17501e-06
4.17386e-06
4.20878e-06
4.23843e-06
4.27519e-06
1.79632e-05
1.73497e-05
1.65713e-05
1.57786e-05
1.5172e-05
1.52988e-05
4.1876e-06
4.50119e-06
4.71984e-06
4.88359e-06
5.01481e-06
5.13006e-06
5.22817e-06
5.29075e-06
5.33792e-06
1.86067e-05
1.44827e-05
1.13623e-05
9.08486e-06
7.51025e-06
6.51459e-06
5.97041e-06
5.74681e-06
5.72343e-06
5.80299e-06
5.91575e-06
6.01771e-06
6.08613e-06
6.11484e-06
6.11037e-06
6.08916e-06
6.07473e-06
6.09527e-06
6.18367e-06
6.37262e-06
6.69607e-06
7.20089e-06
7.90035e-06
8.82223e-06
1.0111e-05
1.23392e-05
3.92452e-06
4.21302e-06
4.02339e-06
4.72161e-06
6.62922e-06
7.79429e-06
8.44597e-06
8.70473e-06
8.673e-06
8.43045e-06
8.03038e-06
7.55651e-06
7.06186e-06
6.56332e-06
6.07475e-06
5.60652e-06
5.16546e-06
4.75285e-06
4.28095e-06
3.83699e-06
3.95759e-06
4.21545e-06
4.54458e-06
4.92595e-06
5.34538e-06
5.78667e-06
6.23283e-06
6.66254e-06
7.06825e-06
7.48856e-06
7.78439e-06
7.84338e-06
7.59764e-06
6.98703e-06
5.99477e-06
1.78695e-05
1.0498e-05
7.69383e-06
7.0738e-06
6.72915e-06
5.49667e-06
4.48404e-06
4.10286e-06
3.86527e-06
1.68556e-06
8.20109e-06
4.02037e-06
4.74369e-06
5.1283e-06
5.00534e-06
4.75439e-06
4.51358e-06
4.30045e-06
4.10889e-06
3.93691e-06
3.78605e-06
3.65782e-06
3.55274e-06
3.47082e-06
3.41528e-06
3.36985e-06
3.35281e-06
3.44261e-06
3.67314e-06
4.026e-06
4.45719e-06
4.90104e-06
5.23831e-06
5.45403e-06
5.35679e-06
4.75519e-06
3.98612e-06
3.46119e-06
3.52902e-06
3.96374e-06
4.45083e-06
4.72597e-06
4.70699e-06
4.47268e-06
4.36486e-06
4.7661e-06
5.35537e-06
6.07314e-06
6.40344e-06
6.40224e-06
6.41498e-06
6.60199e-06
6.85416e-06
6.97226e-06
6.96615e-06
6.88722e-06
6.77651e-06
6.67256e-06
6.61259e-06
6.63404e-06
6.77659e-06
7.08426e-06
7.60684e-06
8.3979e-06
9.50343e-06
1.09323e-05
1.26057e-05
1.4312e-05
1.57484e-05
1.67837e-05
1.78594e-05
1.89841e-05
2.01616e-05
2.13963e-05
2.26921e-05
2.40526e-05
2.54805e-05
2.69771e-05
2.85419e-05
3.01717e-05
3.18599e-05
3.35954e-05
3.5362e-05
3.71374e-05
3.88923e-05
4.05903e-05
4.21891e-05
4.36414e-05
4.48986e-05
4.59148e-05
4.66506e-05
4.70765e-05
4.71747e-05
4.69361e-05
4.63554e-05
4.54208e-05
4.41103e-05
4.24655e-05
4.17902e-05
3.86613e-05
3.67531e-05
3.50055e-05
3.35213e-05
3.2919e-05
3.502e-05
3.55897e-05
3.52515e-05
3.436e-05
3.28238e-05
2.95758e-05
2.40048e-05
2.02509e-05
1.74658e-05
1.52596e-05
1.34396e-05
1.18655e-05
1.02346e-05
8.94673e-06
8.65216e-06
9.9596e-06
1.10058e-05
1.18389e-05
1.25582e-05
1.3243e-05
1.39253e-05
1.45949e-05
1.52163e-05
1.57485e-05
1.61595e-05
1.64342e-05
1.6573e-05
1.65869e-05
1.64905e-05
1.62969e-05
1.60133e-05
1.56377e-05
1.51565e-05
1.45453e-05
1.37721e-05
1.2803e-05
1.16073e-05
1.01861e-05
8.55719e-06
6.80156e-06
5.21014e-06
4.3773e-06
4.54568e-06
4.70023e-06
4.86916e-06
5.16557e-06
5.51613e-06
6.25728e-06
7.777e-06
1.04282e-05
1.38872e-05
1.62476e-05
1.80055e-05
1.97172e-05
2.13433e-05
2.28251e-05
2.40874e-05
2.50341e-05
2.55405e-05
2.53764e-05
2.43844e-05
2.28621e-05
2.0946e-05
1.88812e-05
1.67491e-05
1.46309e-05
1.26046e-05
1.07334e-05
9.05106e-06
7.55895e-06
6.12466e-06
4.48629e-06
3.82251e-06
3.75863e-06
3.9781e-06
4.46883e-06
5.6145e-06
6.7125e-06
7.77123e-06
8.407e-06
8.19757e-06
7.27381e-06
6.07599e-06
5.02777e-06
4.35365e-06
1.13246e-06
4.75226e-06
4.85765e-06
5.6678e-06
5.29972e-06
4.66838e-06
4.15813e-06
3.81025e-06
3.58042e-06
3.42472e-06
3.31427e-06
3.23172e-06
3.16631e-06
3.111e-06
3.06115e-06
3.01405e-06
2.96764e-06
2.90005e-06
2.80409e-06
2.74554e-06
2.81122e-06
3.02952e-06
3.37222e-06
3.77506e-06
4.19332e-06
4.50644e-06
4.54653e-06
4.27419e-06
3.86305e-06
3.68216e-06
4.10848e-06
4.78378e-06
5.33415e-06
5.51833e-06
5.96622e-06
6.23447e-06
6.2904e-06
6.42291e-06
6.41383e-06
6.26285e-06
6.10067e-06
6.01408e-06
6.00268e-06
6.02966e-06
6.09344e-06
6.24813e-06
6.56618e-06
7.13251e-06
8.04819e-06
9.42893e-06
1.13905e-05
1.40097e-05
1.72572e-05
2.09314e-05
2.46587e-05
2.80134e-05
3.06986e-05
3.26431e-05
3.39552e-05
3.47969e-05
3.55848e-05
3.63718e-05
3.71662e-05
3.79756e-05
3.88087e-05
3.96748e-05
4.05836e-05
4.15452e-05
4.25692e-05
4.36648e-05
4.48396e-05
4.60989e-05
4.74444e-05
4.88722e-05
5.03717e-05
5.19226e-05
5.34941e-05
5.50439e-05
5.65189e-05
5.78586e-05
5.89996e-05
5.98826e-05
6.04586e-05
6.0695e-05
6.05772e-05
6.01079e-05
5.9302e-05
5.81794e-05
5.67369e-05
5.5166e-05
5.35027e-05
5.18867e-05
5.03171e-05
4.88619e-05
4.76379e-05
4.66766e-05
4.56919e-05
4.46325e-05
4.34881e-05
4.22074e-05
4.06424e-05
3.8754e-05
3.67926e-05
3.48652e-05
3.3012e-05
3.12418e-05
2.95381e-05
2.78548e-05
2.62293e-05
2.46647e-05
2.33678e-05
2.23249e-05
2.14791e-05
2.07972e-05
2.02553e-05
1.98307e-05
1.95e-05
1.92393e-05
1.90256e-05
1.88383e-05
1.86602e-05
1.84779e-05
1.82801e-05
1.8057e-05
1.77979e-05
1.74907e-05
1.7119e-05
1.66594e-05
1.60766e-05
1.53158e-05
1.42918e-05
1.28777e-05
1.0902e-05
8.34856e-06
5.97908e-06
4.77721e-06
4.72072e-06
4.86069e-06
4.87918e-06
5.28254e-06
6.38875e-06
8.72236e-06
1.27658e-05
1.79012e-05
2.21696e-05
2.43257e-05
2.49106e-05
2.53222e-05
2.57518e-05
2.62301e-05
2.67601e-05
2.73083e-05
2.77973e-05
2.81045e-05
2.80431e-05
2.74882e-05
2.66076e-05
2.55327e-05
2.43622e-05
2.31648e-05
2.1977e-05
2.08125e-05
1.96728e-05
1.85528e-05
1.74352e-05
1.61812e-05
1.41985e-05
1.0478e-05
7.22141e-06
5.45721e-06
4.72416e-06
4.61643e-06
4.76188e-06
5.0048e-06
5.28295e-06
5.58351e-06
5.84394e-06
5.96511e-06
5.88533e-06
5.57413e-06
1.06478e-06
4.77867e-06
5.72454e-06
5.12978e-06
4.39733e-06
3.901e-06
3.63693e-06
3.52129e-06
3.48128e-06
3.47083e-06
3.46537e-06
3.45398e-06
3.4334e-06
3.40425e-06
3.36868e-06
3.32868e-06
3.2723e-06
3.1729e-06
3.01367e-06
2.80048e-06
2.61564e-06
2.56525e-06
2.68582e-06
2.94446e-06
3.29464e-06
3.66469e-06
3.94986e-06
4.071e-06
4.10986e-06
4.37326e-06
5.11235e-06
6.02698e-06
7.01024e-06
7.32883e-06
6.79043e-06
6.51353e-06
6.31635e-06
6.12522e-06
5.95408e-06
5.84288e-06
5.83783e-06
5.95966e-06
6.225e-06
6.67276e-06
7.38603e-06
8.48485e-06
1.01093e-05
1.23902e-05
1.53876e-05
1.9002e-05
2.29147e-05
2.66533e-05
2.97908e-05
3.21296e-05
3.37191e-05
3.47412e-05
3.53899e-05
3.58122e-05
3.6099e-05
3.63415e-05
3.65853e-05
3.68345e-05
3.7093e-05
3.73672e-05
3.76653e-05
3.79982e-05
3.83793e-05
3.88238e-05
3.93492e-05
3.99744e-05
4.07192e-05
4.16029e-05
4.26428e-05
4.38521e-05
4.52362e-05
4.67902e-05
4.84949e-05
5.0314e-05
5.21931e-05
5.40609e-05
5.58337e-05
5.74241e-05
5.87511e-05
5.97503e-05
6.03795e-05
6.06225e-05
6.0483e-05
5.99753e-05
5.9095e-05
5.80172e-05
5.68563e-05
5.56456e-05
5.44187e-05
5.3206e-05
5.20315e-05
5.08983e-05
4.979e-05
4.86975e-05
4.76136e-05
4.65252e-05
4.54119e-05
4.42649e-05
4.3095e-05
4.19154e-05
4.0737e-05
3.95666e-05
3.8406e-05
3.72541e-05
3.61121e-05
3.49789e-05
3.38372e-05
3.26593e-05
3.15221e-05
3.04588e-05
2.94909e-05
2.8626e-05
2.78589e-05
2.71761e-05
2.65601e-05
2.59932e-05
2.54601e-05
2.4948e-05
2.44451e-05
2.3938e-05
2.34094e-05
2.28346e-05
2.21786e-05
2.13926e-05
2.04048e-05
1.91018e-05
1.73038e-05
1.4774e-05
1.1427e-05
7.96152e-06
5.71998e-06
5.04184e-06
5.03639e-06
5.01881e-06
5.37357e-06
6.69867e-06
9.63111e-06
1.45286e-05
2.00179e-05
2.36879e-05
2.49911e-05
2.49938e-05
2.45827e-05
2.42302e-05
2.40106e-05
2.39644e-05
2.41132e-05
2.44437e-05
2.48888e-05
2.53121e-05
2.54815e-05
2.52785e-05
2.47914e-05
2.41114e-05
2.3345e-05
2.2574e-05
2.1843e-05
2.11666e-05
2.05413e-05
1.99558e-05
1.93951e-05
1.88259e-05
1.81314e-05
1.68164e-05
1.42811e-05
1.12759e-05
8.84182e-06
7.23776e-06
6.23617e-06
5.60663e-06
5.19217e-06
4.90921e-06
4.72743e-06
4.62414e-06
4.57087e-06
4.59104e-06
1.10253e-06
4.95e-06
4.7928e-06
4.2447e-06
3.97134e-06
3.93531e-06
3.9961e-06
4.0509e-06
4.05729e-06
4.01471e-06
3.93928e-06
3.84834e-06
3.75522e-06
3.66911e-06
3.5958e-06
3.53836e-06
3.48523e-06
3.40226e-06
3.26975e-06
3.05833e-06
2.7819e-06
2.54617e-06
2.46422e-06
2.56072e-06
2.80373e-06
3.14633e-06
3.53262e-06
3.92454e-06
4.44183e-06
5.42983e-06
6.84066e-06
8.09053e-06
7.86018e-06
7.02614e-06
6.47137e-06
6.1319e-06
5.91873e-06
5.81957e-06
5.84807e-06
6.02951e-06
6.39948e-06
7.00226e-06
7.90898e-06
9.22514e-06
1.10784e-05
1.35694e-05
1.66927e-05
2.02507e-05
2.3839e-05
2.6983e-05
2.93606e-05
3.09219e-05
3.18247e-05
3.22917e-05
3.25121e-05
3.26107e-05
3.26566e-05
3.26827e-05
3.27053e-05
3.27191e-05
3.27135e-05
3.26895e-05
3.26517e-05
3.26076e-05
3.25674e-05
3.25439e-05
3.25526e-05
3.2612e-05
3.27438e-05
3.29736e-05
3.33302e-05
3.38455e-05
3.45528e-05
3.54839e-05
3.66661e-05
3.81167e-05
3.98382e-05
4.18125e-05
4.3996e-05
4.6318e-05
4.86822e-05
5.09741e-05
5.30754e-05
5.48824e-05
5.63132e-05
5.73239e-05
5.78983e-05
5.80375e-05
5.7755e-05
5.7229e-05
5.65511e-05
5.57679e-05
5.49164e-05
5.4024e-05
5.31102e-05
5.21874e-05
5.12635e-05
5.03435e-05
4.94302e-05
4.85244e-05
4.76251e-05
4.67317e-05
4.58445e-05
4.49644e-05
4.40923e-05
4.32292e-05
4.23752e-05
4.15302e-05
4.06926e-05
3.98595e-05
3.90247e-05
3.81774e-05
3.72983e-05
3.64254e-05
3.55782e-05
3.4771e-05
3.40117e-05
3.33014e-05
3.2636e-05
3.20075e-05
3.14061e-05
3.08199e-05
3.02348e-05
2.96322e-05
2.89853e-05
2.82543e-05
2.73782e-05
2.62657e-05
2.47797e-05
2.27186e-05
1.98234e-05
1.59255e-05
1.14406e-05
7.73338e-06
5.84229e-06
5.33218e-06
5.16919e-06
5.25424e-06
6.2646e-06
8.91231e-06
1.37402e-05
1.95593e-05
2.35608e-05
2.48286e-05
2.45406e-05
2.37638e-05
2.29351e-05
2.21897e-05
2.15915e-05
2.12073e-05
2.10939e-05
2.1273e-05
2.17005e-05
2.22348e-05
2.2595e-05
2.26525e-05
2.24256e-05
2.19887e-05
2.14484e-05
2.08953e-05
2.03831e-05
1.9931e-05
1.95359e-05
1.9184e-05
1.88592e-05
1.85474e-05
1.82277e-05
1.78187e-05
1.70368e-05
1.56352e-05
1.37954e-05
1.19534e-05
1.03994e-05
9.17424e-06
8.16946e-06
7.26877e-06
6.45104e-06
5.7785e-06
5.30493e-06
5.08389e-06
1.06447e-06
4.63345e-06
4.53897e-06
4.54369e-06
4.69931e-06
4.7778e-06
4.71758e-06
4.5583e-06
4.35412e-06
4.14253e-06
3.9436e-06
3.76694e-06
3.61734e-06
3.49755e-06
3.40766e-06
3.34545e-06
3.30584e-06
3.27814e-06
3.23401e-06
3.12518e-06
2.91084e-06
2.63639e-06
2.43864e-06
2.41509e-06
2.57567e-06
2.90166e-06
3.38519e-06
4.0774e-06
5.20203e-06
6.80192e-06
8.23064e-06
8.08422e-06
7.14159e-06
6.44885e-06
6.04482e-06
5.86307e-06
5.8641e-06
6.05043e-06
6.44347e-06
7.08456e-06
8.03679e-06
9.38346e-06
1.12232e-05
1.3635e-05
1.66082e-05
1.99596e-05
2.33172e-05
2.62382e-05
2.8415e-05
2.97982e-05
3.05435e-05
3.08749e-05
3.09832e-05
3.09928e-05
3.09708e-05
3.09462e-05
3.09273e-05
3.09124e-05
3.08617e-05
3.07296e-05
3.05175e-05
3.02344e-05
2.98945e-05
2.95156e-05
2.91181e-05
2.87233e-05
2.83528e-05
2.80282e-05
2.77724e-05
2.76102e-05
2.75707e-05
2.76881e-05
2.80018e-05
2.85554e-05
2.9393e-05
3.05545e-05
3.20688e-05
3.39461e-05
3.61695e-05
3.86873e-05
4.14088e-05
4.42053e-05
4.69232e-05
4.94192e-05
5.15592e-05
5.32663e-05
5.44928e-05
5.5215e-05
5.54775e-05
5.54627e-05
5.52417e-05
5.48669e-05
5.43785e-05
5.38076e-05
5.31771e-05
5.25045e-05
5.18027e-05
5.10817e-05
5.0349e-05
4.96099e-05
4.88688e-05
4.81291e-05
4.73935e-05
4.6664e-05
4.59424e-05
4.52299e-05
4.45276e-05
4.38355e-05
4.31529e-05
4.24777e-05
4.18076e-05
4.11392e-05
4.04678e-05
3.97847e-05
3.91087e-05
3.84476e-05
3.78076e-05
3.71922e-05
3.66012e-05
3.60315e-05
3.54764e-05
3.49254e-05
3.43627e-05
3.37647e-05
3.30948e-05
3.22955e-05
3.1277e-05
2.99015e-05
2.79654e-05
2.51947e-05
2.13202e-05
1.63916e-05
1.13411e-05
7.71594e-06
6.0438e-06
5.49779e-06
5.22316e-06
5.60986e-06
7.45339e-06
1.15223e-05
1.75165e-05
2.2693e-05
2.49105e-05
2.49129e-05
2.40615e-05
2.30009e-05
2.19323e-05
2.08873e-05
1.99537e-05
1.92399e-05
1.88502e-05
1.88492e-05
1.92209e-05
1.98089e-05
2.03126e-05
2.05948e-05
2.05981e-05
2.03687e-05
2.00065e-05
1.96081e-05
1.92364e-05
1.8918e-05
1.86529e-05
1.84283e-05
1.82274e-05
1.8035e-05
1.784e-05
1.76293e-05
1.73588e-05
1.6899e-05
1.61566e-05
1.51709e-05
1.40779e-05
1.2986e-05
1.19074e-05
1.07979e-05
9.6494e-06
8.53485e-06
7.55415e-06
6.83197e-06
1.17703e-06
4.55476e-06
5.06851e-06
5.37967e-06
5.35357e-06
5.12351e-06
4.81893e-06
4.50393e-06
4.20946e-06
3.94882e-06
3.72374e-06
3.53363e-06
3.38e-06
3.26598e-06
3.18983e-06
3.14031e-06
3.11892e-06
3.12745e-06
3.13647e-06
3.09376e-06
2.93971e-06
2.68334e-06
2.45197e-06
2.38079e-06
2.52135e-06
2.89652e-06
3.58028e-06
4.74674e-06
6.36072e-06
7.8174e-06
8.04455e-06
7.20533e-06
6.45239e-06
6.04311e-06
5.91134e-06
6.02119e-06
6.36532e-06
6.96937e-06
7.88222e-06
9.17552e-06
1.09341e-05
1.32297e-05
1.60724e-05
1.93393e-05
2.27329e-05
2.58457e-05
2.83365e-05
3.00829e-05
3.11837e-05
3.18422e-05
3.22515e-05
3.2543e-05
3.27856e-05
3.30038e-05
3.31965e-05
3.335e-05
3.34456e-05
3.34641e-05
3.32973e-05
3.29558e-05
3.24474e-05
3.17881e-05
3.10028e-05
3.01236e-05
2.91874e-05
2.82331e-05
2.72984e-05
2.64187e-05
2.56259e-05
2.49494e-05
2.44183e-05
2.40632e-05
2.39196e-05
2.40283e-05
2.44355e-05
2.51899e-05
2.63374e-05
2.79142e-05
2.99352e-05
3.23827e-05
3.51947e-05
3.82516e-05
4.13728e-05
4.43859e-05
4.70957e-05
4.93935e-05
5.11797e-05
5.2373e-05
5.31489e-05
5.36066e-05
5.38117e-05
5.38182e-05
5.36697e-05
5.34008e-05
5.30386e-05
5.26038e-05
5.21128e-05
5.15787e-05
5.10117e-05
5.04202e-05
4.9811e-05
4.91899e-05
4.85615e-05
4.79299e-05
4.72985e-05
4.66699e-05
4.60465e-05
4.54298e-05
4.48206e-05
4.42193e-05
4.36255e-05
4.30389e-05
4.24588e-05
4.18818e-05
4.13093e-05
4.0749e-05
4.02038e-05
3.96753e-05
3.91629e-05
3.86638e-05
3.81716e-05
3.76755e-05
3.71575e-05
3.65891e-05
3.59243e-05
3.50896e-05
3.39686e-05
3.23829e-05
3.00759e-05
2.67319e-05
2.21255e-05
1.65561e-05
1.13001e-05
7.8178e-06
6.22961e-06
5.56555e-06
5.25159e-06
6.02454e-06
8.77031e-06
1.40846e-05
2.04363e-05
2.45592e-05
2.5683e-05
2.52267e-05
2.42329e-05
2.30426e-05
2.17563e-05
2.03974e-05
1.91019e-05
1.80297e-05
1.73326e-05
1.71247e-05
1.74079e-05
1.79867e-05
1.8626e-05
1.9116e-05
1.93425e-05
1.93135e-05
1.91144e-05
1.88446e-05
1.85765e-05
1.83462e-05
1.81617e-05
1.80154e-05
1.78935e-05
1.77817e-05
1.76687e-05
1.75468e-05
1.74082e-05
1.72258e-05
1.69411e-05
1.65181e-05
1.59504e-05
1.52568e-05
1.44487e-05
1.35177e-05
1.24562e-05
1.12895e-05
1.00757e-05
8.94351e-06
1.31174e-06
4.76378e-06
5.72921e-06
5.7882e-06
5.46915e-06
5.07993e-06
4.70103e-06
4.35187e-06
4.04704e-06
3.78757e-06
3.56489e-06
3.3762e-06
3.22665e-06
3.12928e-06
3.09412e-06
3.09513e-06
3.10963e-06
3.12035e-06
3.11462e-06
3.05797e-06
2.90264e-06
2.66438e-06
2.46868e-06
2.45182e-06
2.69711e-06
3.27473e-06
4.29532e-06
5.74197e-06
7.11258e-06
7.67618e-06
7.15331e-06
6.43935e-06
6.05396e-06
5.99448e-06
6.21421e-06
6.71298e-06
7.52039e-06
8.69591e-06
1.03171e-05
1.24615e-05
1.51677e-05
1.8377e-05
2.18812e-05
2.53329e-05
2.83653e-05
3.07565e-05
3.2504e-05
3.37587e-05
3.47096e-05
3.55047e-05
3.62299e-05
3.69188e-05
3.75704e-05
3.81649e-05
3.8673e-05
3.90636e-05
3.93081e-05
3.92848e-05
3.90119e-05
3.84843e-05
3.77035e-05
3.66837e-05
3.54523e-05
3.405e-05
3.2527e-05
3.09389e-05
2.93411e-05
2.77851e-05
2.63171e-05
2.49786e-05
2.38092e-05
2.28483e-05
2.21367e-05
2.17163e-05
2.16291e-05
2.19167e-05
2.26235e-05
2.37945e-05
2.54668e-05
2.76542e-05
3.0338e-05
3.34363e-05
3.6751e-05
4.00954e-05
4.32189e-05
4.59898e-05
4.81396e-05
4.97995e-05
5.10446e-05
5.1937e-05
5.25368e-05
5.2898e-05
5.30665e-05
5.30795e-05
5.2967e-05
5.27527e-05
5.2456e-05
5.20924e-05
5.16748e-05
5.12138e-05
5.07185e-05
5.01964e-05
4.9654e-05
4.90967e-05
4.85291e-05
4.79554e-05
4.7379e-05
4.68027e-05
4.62288e-05
4.56591e-05
4.50951e-05
4.45382e-05
4.39898e-05
4.34509e-05
4.29202e-05
4.24043e-05
4.19046e-05
4.14218e-05
4.09547e-05
4.04998e-05
4.00502e-05
3.95936e-05
3.91098e-05
3.85656e-05
3.79069e-05
3.7046e-05
3.58439e-05
3.40894e-05
3.14883e-05
2.77088e-05
2.25962e-05
1.66653e-05
1.13692e-05
7.99164e-06
6.38864e-06
5.59654e-06
5.30187e-06
6.39423e-06
9.9176e-06
1.62491e-05
2.25343e-05
2.58457e-05
2.65078e-05
2.60102e-05
2.50446e-05
2.37589e-05
2.22126e-05
2.04879e-05
1.8795e-05
1.73539e-05
1.63403e-05
1.59188e-05
1.60721e-05
1.66449e-05
1.74029e-05
1.80891e-05
1.85324e-05
1.86967e-05
1.86477e-05
1.84846e-05
1.82892e-05
1.81095e-05
1.79649e-05
1.78574e-05
1.7781e-05
1.77262e-05
1.76831e-05
1.76424e-05
1.75951e-05
1.7528e-05
1.74137e-05
1.72106e-05
1.68965e-05
1.64534e-05
1.58729e-05
1.5151e-05
1.42838e-05
1.32674e-05
1.20947e-05
1.08085e-05
1.44238e-06
5.37154e-06
6.21416e-06
5.92497e-06
5.45415e-06
5.01654e-06
4.62158e-06
4.27065e-06
3.97374e-06
3.72326e-06
3.50203e-06
3.30722e-06
3.15087e-06
3.06109e-06
3.0782e-06
3.15297e-06
3.14287e-06
3.10229e-06
3.04268e-06
2.93592e-06
2.77618e-06
2.6278e-06
2.59729e-06
2.76394e-06
3.20326e-06
4.00008e-06
5.14671e-06
6.35547e-06
7.08429e-06
6.94362e-06
6.38445e-06
6.04178e-06
6.0565e-06
6.38617e-06
7.02661e-06
8.01834e-06
9.42916e-06
1.13415e-05
1.38219e-05
1.68736e-05
2.0381e-05
2.40828e-05
2.7627e-05
3.0707e-05
3.31873e-05
3.51187e-05
3.6655e-05
3.7958e-05
3.91447e-05
4.02778e-05
4.1377e-05
4.24335e-05
4.34214e-05
4.43056e-05
4.50459e-05
4.56007e-05
4.59303e-05
4.59292e-05
4.56351e-05
4.50297e-05
4.41007e-05
4.28499e-05
4.12974e-05
3.94842e-05
3.74702e-05
3.53287e-05
3.31369e-05
3.09652e-05
2.88715e-05
2.69023e-05
2.50984e-05
2.3503e-05
2.21688e-05
2.11576e-05
2.05282e-05
2.03192e-05
2.05636e-05
2.12991e-05
2.25694e-05
2.44032e-05
2.68204e-05
2.98003e-05
3.31429e-05
3.6641e-05
4.00356e-05
4.29942e-05
4.55219e-05
4.7604e-05
4.92634e-05
5.0546e-05
5.15052e-05
5.2193e-05
5.26552e-05
5.293e-05
5.30492e-05
5.30387e-05
5.29202e-05
5.27117e-05
5.24284e-05
5.20834e-05
5.16876e-05
5.12506e-05
5.07802e-05
5.02834e-05
4.97661e-05
4.92333e-05
4.86894e-05
4.81381e-05
4.75827e-05
4.70261e-05
4.6471e-05
4.59198e-05
4.53753e-05
4.48399e-05
4.43144e-05
4.38046e-05
4.33122e-05
4.28378e-05
4.23805e-05
4.19368e-05
4.14994e-05
4.10556e-05
4.05831e-05
4.00454e-05
3.93815e-05
3.84926e-05
3.72218e-05
3.53328e-05
3.25071e-05
2.84132e-05
2.29689e-05
1.68453e-05
1.15578e-05
8.21965e-06
6.54164e-06
5.63838e-06
5.39545e-06
6.74661e-06
1.07509e-05
1.73743e-05
2.35563e-05
2.67147e-05
2.74638e-05
2.71604e-05
2.63019e-05
2.49103e-05
2.30407e-05
2.09041e-05
1.87825e-05
1.69941e-05
1.57103e-05
1.50682e-05
1.50905e-05
1.56606e-05
1.6531e-05
1.74038e-05
1.80528e-05
1.83968e-05
1.84798e-05
1.83997e-05
1.82479e-05
1.80855e-05
1.79455e-05
1.78425e-05
1.77807e-05
1.77578e-05
1.77672e-05
1.77996e-05
1.78423e-05
1.7878e-05
1.78808e-05
1.78139e-05
1.76332e-05
1.73151e-05
1.68548e-05
1.62473e-05
1.54942e-05
1.45949e-05
1.35266e-05
1.22537e-05
1.56917e-06
6.04382e-06
6.49442e-06
5.99632e-06
5.46685e-06
5.0137e-06
4.61805e-06
4.27509e-06
3.98882e-06
3.74631e-06
3.52284e-06
3.31647e-06
3.14526e-06
3.03569e-06
3.00019e-06
2.99499e-06
2.97296e-06
2.92568e-06
2.8636e-06
2.79859e-06
2.75689e-06
2.78464e-06
2.9403e-06
3.2905e-06
3.89849e-06
4.76413e-06
5.73388e-06
6.45958e-06
6.59779e-06
6.28272e-06
6.01196e-06
6.08161e-06
6.50452e-06
7.26497e-06
8.40386e-06
9.99798e-06
1.2132e-05
1.48622e-05
1.8164e-05
2.18843e-05
2.57391e-05
2.93914e-05
3.25807e-05
3.52125e-05
3.73485e-05
3.91285e-05
4.06939e-05
4.21479e-05
4.35477e-05
4.49134e-05
4.62397e-05
4.75051e-05
4.86787e-05
4.97236e-05
5.05995e-05
5.12637e-05
5.16295e-05
5.16979e-05
5.14641e-05
5.08953e-05
4.99628e-05
4.86487e-05
4.69536e-05
4.49026e-05
4.2551e-05
3.99831e-05
3.73027e-05
3.46127e-05
3.19976e-05
2.95171e-05
2.72119e-05
2.51106e-05
2.32509e-05
2.17046e-05
2.05673e-05
1.98922e-05
1.97056e-05
2.00331e-05
2.0919e-05
2.2391e-05
2.44895e-05
2.72558e-05
3.05315e-05
3.39654e-05
3.73835e-05
4.0578e-05
4.34183e-05
4.58445e-05
4.78532e-05
4.94745e-05
5.0753e-05
5.17357e-05
5.24657e-05
5.29807e-05
5.33126e-05
5.34888e-05
5.35326e-05
5.34641e-05
5.33007e-05
5.30577e-05
5.27482e-05
5.23836e-05
5.19736e-05
5.15265e-05
5.10495e-05
5.05485e-05
5.00287e-05
4.94948e-05
4.89505e-05
4.83996e-05
4.78452e-05
4.72906e-05
4.67391e-05
4.61938e-05
4.56572e-05
4.5134e-05
4.46272e-05
4.41381e-05
4.36663e-05
4.32088e-05
4.2759e-05
4.2304e-05
4.18209e-05
4.1271e-05
4.05888e-05
3.96673e-05
3.83365e-05
3.63431e-05
3.33539e-05
2.90452e-05
2.33937e-05
1.71643e-05
1.18718e-05
8.50559e-06
6.71675e-06
5.72026e-06
5.52207e-06
7.00717e-06
1.11306e-05
1.75888e-05
2.35929e-05
2.69579e-05
2.81351e-05
2.81795e-05
2.74625e-05
2.59861e-05
2.38538e-05
2.14032e-05
1.89595e-05
1.68283e-05
1.52598e-05
1.44189e-05
1.43491e-05
1.49396e-05
1.59281e-05
1.69793e-05
1.78172e-05
1.83198e-05
1.85117e-05
1.84903e-05
1.8357e-05
1.81864e-05
1.80259e-05
1.79033e-05
1.78337e-05
1.78225e-05
1.78673e-05
1.79592e-05
1.80831e-05
1.82169e-05
1.83294e-05
1.83803e-05
1.83236e-05
1.81146e-05
1.77295e-05
1.71844e-05
1.64817e-05
1.56258e-05
1.46071e-05
1.33725e-05
1.69829e-06
6.52319e-06
6.67652e-06
6.09499e-06
5.53699e-06
5.07284e-06
4.68095e-06
4.35148e-06
4.07969e-06
3.84652e-06
3.62935e-06
3.42312e-06
3.24071e-06
3.0995e-06
3.00684e-06
2.95428e-06
2.91884e-06
2.89437e-06
2.88686e-06
2.91044e-06
2.98805e-06
3.1552e-06
3.45687e-06
3.93187e-06
4.58088e-06
5.31884e-06
5.93914e-06
6.20842e-06
6.12769e-06
5.98343e-06
6.08951e-06
6.56872e-06
7.41505e-06
8.65378e-06
1.03611e-05
1.26242e-05
1.54943e-05
1.89339e-05
2.27762e-05
2.67365e-05
3.04951e-05
3.38127e-05
3.6601e-05
3.89097e-05
4.08612e-05
4.25859e-05
4.41857e-05
4.57233e-05
4.72268e-05
4.86984e-05
5.01224e-05
5.14721e-05
5.27139e-05
5.38104e-05
5.47223e-05
5.54109e-05
5.57919e-05
5.59097e-05
5.57375e-05
5.52385e-05
5.43749e-05
5.3114e-05
5.14338e-05
4.93321e-05
4.68378e-05
4.4022e-05
4.09997e-05
3.79076e-05
3.48659e-05
3.1966e-05
2.92711e-05
2.68141e-05
2.45938e-05
2.26591e-05
2.11369e-05
2.01044e-05
1.95815e-05
1.95828e-05
2.01548e-05
2.1324e-05
2.31355e-05
2.55991e-05
2.86137e-05
3.19783e-05
3.54489e-05
3.8798e-05
4.18617e-05
4.45516e-05
4.68421e-05
4.87474e-05
5.03012e-05
5.15431e-05
5.25118e-05
5.32425e-05
5.37662e-05
5.41104e-05
5.42994e-05
5.43551e-05
5.42968e-05
5.41418e-05
5.39054e-05
5.36009e-05
5.32398e-05
5.28321e-05
5.2386e-05
5.19087e-05
5.14062e-05
5.08838e-05
5.0346e-05
4.97967e-05
4.92398e-05
4.86787e-05
4.81169e-05
4.75579e-05
4.70049e-05
4.64619e-05
4.59326e-05
4.54187e-05
4.49205e-05
4.44358e-05
4.39589e-05
4.34774e-05
4.29686e-05
4.2393e-05
4.16828e-05
4.07261e-05