/*--------------------------------*- C++ -*----------------------------------*\
  =========                 |
  \\      /  F ield         | OpenFOAM: The Open Source CFD Toolbox
   \\    /   O peration     | Website:  https://openfoam.org
    \\  /    A nd           | Version:  9
     \\/     M anipulation  |
\*---------------------------------------------------------------------------*/
FoamFile
{
    format      ascii;
    class       surfaceScalarField;
    location    "0.22";
    object      phi;
}
// * * * * * * * * * * * * * * * * * * * * * * * * * * * * * * * * * * * * * //

dimensions      [0 3 -1 0 0 0 0];

internalField   nonuniform List<scalar> 
24170
(
3.0529e-06
1.35511e-07
2.8971e-06
1.55792e-07
2.75442e-06
1.42687e-07
2.62249e-06
1.31922e-07
2.50131e-06
1.21182e-07
2.39278e-06
1.08534e-07
2.2978e-06
9.49817e-08
2.21643e-06
8.13663e-08
2.14844e-06
6.79906e-08
2.09344e-06
5.50007e-08
2.05093e-06
4.25127e-08
2.02032e-06
3.06084e-08
2.00097e-06
1.93509e-08
1.99214e-06
8.82476e-09
1.99258e-06
-4.39959e-10
2.00076e-06
-8.18039e-09
2.01588e-06
-1.51192e-08
-4.66532e-09
2.02055e-06
3.49117e-06
6.15933e-08
3.53986e-06
1.07101e-07
3.57253e-06
1.10018e-07
3.59106e-06
1.13391e-07
3.59779e-06
1.14451e-07
3.5959e-06
1.1042e-07
3.58818e-06
1.02708e-07
3.57686e-06
9.26849e-08
3.56382e-06
8.10254e-08
3.55063e-06
6.81956e-08
3.53851e-06
5.46284e-08
3.52843e-06
4.06907e-08
3.52106e-06
2.67222e-08
3.51707e-06
1.28177e-08
3.51667e-06
-4.49075e-11
3.52076e-06
-1.22704e-08
3.52881e-06
-2.31658e-08
-3.08657e-08
3.55501e-06
3.67782e-06
4.62904e-08
3.69542e-06
8.95004e-08
3.71375e-06
9.1692e-08
3.73414e-06
9.29942e-08
3.75488e-06
9.37105e-08
3.77479e-06
9.05143e-08
3.79336e-06
8.41393e-08
3.81032e-06
7.57263e-08
3.82557e-06
6.57702e-08
3.83922e-06
5.45481e-08
3.85149e-06
4.23536e-08
3.86274e-06
2.94466e-08
3.87326e-06
1.61964e-08
3.88379e-06
2.29308e-09
3.89506e-06
-1.13183e-08
3.90852e-06
-2.57328e-08
3.92649e-06
-4.11321e-08
-6.09153e-08
3.95654e-06
3.93409e-06
3.75918e-08
3.94562e-06
7.79639e-08
3.95449e-06
8.28276e-08
3.96433e-06
8.31483e-08
3.97518e-06
8.28625e-08
3.98657e-06
7.91259e-08
3.99848e-06
7.22308e-08
4.01086e-06
6.33477e-08
4.02356e-06
5.30642e-08
4.03648e-06
4.16326e-08
4.04957e-06
2.9267e-08
4.06293e-06
1.60853e-08
4.07655e-06
2.57549e-09
4.09089e-06
-1.20503e-08
4.10663e-06
-2.70556e-08
4.12452e-06
-4.36236e-08
4.1463e-06
-6.29158e-08
-8.90714e-08
4.17446e-06
4.21435e-06
3.03638e-08
4.22533e-06
6.69876e-08
4.23369e-06
7.44669e-08
4.2423e-06
7.45449e-08
4.25167e-06
7.34894e-08
4.26139e-06
6.93999e-08
4.27149e-06
6.21388e-08
4.28206e-06
5.27787e-08
4.29313e-06
4.19916e-08
4.30471e-06
3.00498e-08
4.31683e-06
1.71494e-08
4.32967e-06
3.24173e-09
4.34336e-06
-1.11077e-08
4.35798e-06
-2.66793e-08
4.37417e-06
-4.32375e-08
4.39238e-06
-6.18422e-08
4.41342e-06
-8.39507e-08
-1.13143e-07
4.43749e-06
4.51501e-06
2.44358e-08
4.5252e-06
5.68061e-08
4.53394e-06
6.5724e-08
4.54278e-06
6.57055e-08
4.55243e-06
6.38387e-08
4.5625e-06
5.93265e-08
4.57288e-06
5.17622e-08
4.58365e-06
4.20113e-08
4.59487e-06
3.07727e-08
4.60658e-06
1.83338e-08
4.61886e-06
4.87163e-09
4.63174e-06
-9.64331e-09
4.64554e-06
-2.49044e-08
4.66026e-06
-4.14018e-08
4.67633e-06
-5.93072e-08
4.69397e-06
-7.94788e-08
4.71325e-06
-1.03227e-07
-1.33178e-07
4.73328e-06
4.83756e-06
1.95989e-08
4.84693e-06
4.74316e-08
4.85596e-06
5.66985e-08
4.86501e-06
5.66475e-08
4.87485e-06
5.40014e-08
4.88523e-06
4.89494e-08
4.89596e-06
4.1035e-08
4.90708e-06
3.08917e-08
4.91865e-06
1.92004e-08
4.93071e-06
6.27462e-09
4.94333e-06
-7.74609e-09
4.95652e-06
-2.28396e-08
4.97052e-06
-3.89019e-08
4.98534e-06
-5.62202e-08
5.00115e-06
-7.51165e-08
5.01792e-06
-9.62545e-08
5.03526e-06
-1.20562e-07
-1.49609e-07
5.05169e-06
5.18359e-06
1.55935e-08
5.19218e-06
3.88357e-08
5.20128e-06
4.76014e-08
5.21049e-06
4.74414e-08
5.22043e-06
4.40529e-08
5.23103e-06
3.83489e-08
5.24207e-06
3.00043e-08
5.25351e-06
1.94496e-08
5.2654e-06
7.30271e-09
5.27779e-06
-6.1068e-09
5.29069e-06
-2.06459e-08
5.30412e-06
-3.62772e-08
5.3182e-06
-5.29823e-08
5.33292e-06
-7.09409e-08
5.34825e-06
-9.04464e-08
5.36395e-06
-1.11952e-07
5.37936e-06
-1.35972e-07
-1.63235e-07
5.39299e-06
5.55472e-06
1.22118e-08
5.56256e-06
3.09919e-08
5.57156e-06
3.86034e-08
5.58088e-06
3.81245e-08
5.59092e-06
3.40099e-08
5.60169e-06
2.75834e-08
5.61295e-06
1.874e-08
5.62464e-06
7.76238e-09
5.63677e-06
-4.82514e-09
5.64935e-06
-1.86898e-08
5.66239e-06
-3.36919e-08
5.6759e-06
-4.97846e-08
5.68988e-06
-6.69651e-08
5.70428e-06
-8.53349e-08
5.71892e-06
-1.05083e-07
5.73341e-06
-1.2645e-07
5.74704e-06
-1.49599e-07
-1.74662e-07
5.75847e-06
5.95268e-06
9.3039e-09
5.95983e-06
2.38447e-08
5.96861e-06
2.98222e-08
5.97798e-06
2.87561e-08
5.98808e-06
2.39101e-08
5.99893e-06
1.67317e-08
6.01034e-06
7.33701e-09
6.02217e-06
-4.07443e-09
6.03443e-06
-1.70797e-08
6.04709e-06
-3.13572e-08
6.06015e-06
-4.67521e-08
6.07357e-06
-6.32004e-08
6.08728e-06
-8.06791e-08
6.10117e-06
-9.92174e-08
6.11497e-06
-1.18882e-07
6.12824e-06
-1.39722e-07
6.1403e-06
-1.6166e-07
-1.84474e-07
6.15011e-06
6.37935e-06
6.76197e-09
6.38587e-06
1.73237e-08
6.39435e-06
2.13438e-08
6.40369e-06
1.94218e-08
6.41378e-06
1.38128e-08
6.42464e-06
5.87513e-09
6.43608e-06
-4.10512e-09
6.44797e-06
-1.59575e-08
6.46024e-06
-2.93483e-08
6.47286e-06
-4.39781e-08
6.48578e-06
-5.96756e-08
6.49893e-06
-7.63511e-08
6.5122e-06
-9.39464e-08
6.5254e-06
-1.12421e-07
6.53825e-06
-1.31732e-07
6.55032e-06
-1.51787e-07
6.56102e-06
-1.72362e-07
-1.93069e-07
6.56961e-06
5.74277e-06
4.82805e-09
5.74785e-06
1.22465e-08
5.75473e-06
1.44636e-08
5.76251e-06
1.1635e-08
5.77099e-06
5.33938e-09
5.7801e-06
-3.23555e-09
5.78971e-06
-1.37191e-08
5.79969e-06
-2.594e-08
5.80997e-06
-3.96224e-08
5.82048e-06
-5.44909e-08
5.83117e-06
-7.03626e-08
5.84194e-06
-8.71239e-08
5.85268e-06
-1.04683e-07
5.8632e-06
-1.22948e-07
5.87328e-06
-1.41804e-07
5.88256e-06
-1.61076e-07
5.89068e-06
-1.80481e-07
-1.99584e-07
5.8972e-06
7.00017e-06
2.81616e-09
7.00554e-06
6.87287e-09
7.01306e-06
6.94709e-09
7.02177e-06
2.91879e-09
7.03133e-06
-4.22055e-09
7.04162e-06
-1.3518e-08
7.05247e-06
-2.45691e-08
7.06372e-06
-3.7193e-08
7.07526e-06
-5.11612e-08
7.08699e-06
-6.62265e-08
7.09883e-06
-8.21975e-08
7.11064e-06
-9.89338e-08
7.12226e-06
-1.16308e-07
7.1335e-06
-1.34182e-07
7.14408e-06
-1.52385e-07
7.15369e-06
-1.7069e-07
7.16201e-06
-1.88799e-07
-2.06293e-07
7.16872e-06
8.53291e-06
7.5047e-10
8.5385e-06
1.28811e-09
8.54653e-06
-1.08482e-09
8.55606e-06
-6.61427e-09
8.56662e-06
-1.47739e-08
8.57797e-06
-2.48735e-08
8.58994e-06
-3.65342e-08
8.60231e-06
-4.95692e-08
8.61494e-06
-6.3785e-08
8.62767e-06
-7.89636e-08
8.64039e-06
-9.49108e-08
8.65292e-06
-1.11463e-07
8.66507e-06
-1.28463e-07
8.67663e-06
-1.45738e-07
8.68733e-06
-1.63089e-07
8.69692e-06
-1.80275e-07
8.70514e-06
-1.97022e-07
-2.1298e-07
8.71183e-06
1.04013e-05
-1.34345e-09
1.0407e-05
-4.41436e-09
1.04154e-05
-9.44781e-09
1.04255e-05
-1.67403e-08
1.04368e-05
-2.60809e-08
1.0449e-05
-3.704e-08
1.04618e-05
-4.93121e-08
1.04749e-05
-6.27193e-08
1.04882e-05
-7.70953e-08
1.05015e-05
-9.22502e-08
1.05146e-05
-1.07996e-07
1.05273e-05
-1.24157e-07
1.05394e-05
-1.40559e-07
1.05507e-05
-1.57018e-07
1.05609e-05
-1.73333e-07
1.05699e-05
-1.89285e-07
1.05775e-05
-2.04646e-07
-2.19161e-07
1.05837e-05
1.26789e-05
-3.41604e-09
1.26845e-05
-1.00759e-08
1.2693e-05
-1.78781e-08
1.27033e-05
-2.70987e-08
1.2715e-05
-3.77247e-08
1.27275e-05
-4.95455e-08
1.27405e-05
-6.23609e-08
1.27538e-05
-7.60261e-08
1.27671e-05
-9.04019e-08
1.27802e-05
-1.05328e-07
1.27928e-05
-1.20634e-07
1.28048e-05
-1.3615e-07
1.2816e-05
-1.51704e-07
1.28261e-05
-1.67122e-07
1.2835e-05
-1.82225e-07
1.28425e-05
-1.96835e-07
1.28487e-05
-2.10781e-07
-2.23897e-07
1.28534e-05
1.54552e-05
-5.39249e-09
1.54606e-05
-1.55127e-08
1.54688e-05
-2.60378e-08
1.54788e-05
-3.71872e-08
1.54902e-05
-4.90666e-08
1.55023e-05
-6.16384e-08
1.55147e-05
-7.48182e-08
1.55272e-05
-8.85174e-08
1.55395e-05
-1.02634e-07
1.55512e-05
-1.17042e-07
1.55621e-05
-1.31602e-07
1.55722e-05
-1.46166e-07
1.5581e-05
-1.60586e-07
1.55886e-05
-1.74714e-07
1.55948e-05
-1.88406e-07
1.55995e-05
-2.01528e-07
1.56027e-05
-2.13956e-07
-2.256e-07
1.56044e-05
1.88394e-05
-7.1882e-09
1.88444e-05
-2.05128e-08
1.88519e-05
-3.35287e-08
1.88611e-05
-4.63866e-08
1.88713e-05
-5.92723e-08
1.8882e-05
-7.22941e-08
1.88927e-05
-8.54891e-08
1.8903e-05
-9.88424e-08
1.89126e-05
-1.12302e-07
1.89214e-05
-1.25788e-07
1.8929e-05
-1.39202e-07
1.89353e-05
-1.52435e-07
1.89401e-05
-1.65372e-07
1.89432e-05
-1.77901e-07
1.89447e-05
-1.89914e-07
1.89445e-05
-2.01317e-07
1.89426e-05
-2.12018e-07
-2.21986e-07
1.8939e-05
2.29648e-05
-8.68815e-09
2.29692e-05
-2.48934e-08
2.29757e-05
-3.99831e-08
2.29833e-05
-5.40515e-08
2.29915e-05
-6.73855e-08
2.29994e-05
-8.02695e-08
2.30068e-05
-9.28808e-08
2.30133e-05
-1.05288e-07
2.30185e-05
-1.17499e-07
2.30222e-05
-1.29494e-07
2.30242e-05
-1.41231e-07
2.30244e-05
-1.52645e-07
2.30227e-05
-1.63659e-07
2.3019e-05
-1.74196e-07
2.30133e-05
-1.8418e-07
2.30055e-05
-1.93547e-07
2.29957e-05
-2.02231e-07
-2.1023e-07
2.29839e-05
1.68116e-05
-9.61458e-09
1.68143e-05
-2.75874e-08
1.68181e-05
-4.37347e-08
1.68222e-05
-5.8125e-08
1.6826e-05
-7.12219e-08
1.68292e-05
-8.35152e-08
1.68316e-05
-9.52885e-08
1.6833e-05
-1.06653e-07
1.68332e-05
-1.17658e-07
1.6832e-05
-1.28331e-07
1.68294e-05
-1.38666e-07
1.68254e-05
-1.48629e-07
1.68199e-05
-1.58166e-07
1.68129e-05
-1.67218e-07
1.68045e-05
-1.75726e-07
1.67946e-05
-1.83641e-07
1.67833e-05
-1.90904e-07
-1.97521e-07
1.67706e-05
1.46355e-05
-1.05077e-08
1.46379e-05
-3.00621e-08
1.46411e-05
-4.69049e-08
1.46441e-05
-6.11432e-08
1.46465e-05
-7.3597e-08
1.4648e-05
-8.50255e-08
1.46485e-05
-9.57746e-08
1.46478e-05
-1.05969e-07
1.46459e-05
-1.15705e-07
1.46426e-05
-1.25063e-07
1.4638e-05
-1.34068e-07
1.46321e-05
-1.427e-07
1.46248e-05
-1.5092e-07
1.46163e-05
-1.58682e-07
1.46065e-05
-1.65939e-07
1.45955e-05
-1.72646e-07
1.45834e-05
-1.78754e-07
-1.8427e-07
1.45701e-05
1.27412e-05
-1.15612e-08
1.2744e-05
-3.2827e-08
1.27471e-05
-5.00939e-08
1.27497e-05
-6.37189e-08
1.27513e-05
-7.52184e-08
1.2752e-05
-8.56428e-08
1.27515e-05
-9.52833e-08
1.27497e-05
-1.04245e-07
1.27467e-05
-1.12693e-07
1.27424e-05
-1.20766e-07
1.27369e-05
-1.2851e-07
1.27301e-05
-1.35919e-07
1.27221e-05
-1.42962e-07
1.27131e-05
-1.49603e-07
1.27029e-05
-1.55798e-07
1.26918e-05
-1.61504e-07
1.26797e-05
-1.66663e-07
-1.71268e-07
1.26667e-05
1.10923e-05
-1.29541e-08
1.10958e-05
-3.6281e-08
1.10993e-05
-5.36615e-08
1.11018e-05
-6.61691e-08
1.1103e-05
-7.64707e-08
1.11032e-05
-8.58152e-08
1.11022e-05
-9.43037e-08
1.11e-05
-1.0203e-07
1.10966e-05
-1.0924e-07
1.10919e-05
-1.16112e-07
1.10861e-05
-1.22699e-07
1.10792e-05
-1.28997e-07
1.10712e-05
-1.34992e-07
1.10623e-05
-1.40656e-07
1.10524e-05
-1.4595e-07
1.10417e-05
-1.5083e-07
1.10303e-05
-1.55251e-07
-1.59215e-07
1.10183e-05
9.65718e-06
-1.49206e-08
9.6616e-06
-4.07001e-08
9.66561e-06
-5.76681e-08
9.66807e-06
-6.86356e-08
9.66928e-06
-7.76805e-08
9.66936e-06
-8.58893e-08
9.66818e-06
-9.31242e-08
9.66572e-06
-9.95736e-08
9.66207e-06
-1.05586e-07
9.65729e-06
-1.11338e-07
9.65146e-06
-1.16868e-07
9.64464e-06
-1.22175e-07
9.6369e-06
-1.27253e-07
9.62832e-06
-1.3208e-07
9.61899e-06
-1.36618e-07
9.60898e-06
-1.40821e-07
9.59836e-06
-1.44622e-07
-1.47977e-07
9.58712e-06
8.40825e-06
-1.78158e-08
8.41392e-06
-4.63775e-08
8.41805e-06
-6.17958e-08
8.42036e-06
-7.09395e-08
8.42164e-06
-7.89649e-08
8.42187e-06
-8.61193e-08
8.42083e-06
-9.20806e-08
8.41852e-06
-9.72618e-08
8.41503e-06
-1.02104e-07
8.41046e-06
-1.06768e-07
8.40487e-06
-1.11278e-07
8.39834e-06
-1.15644e-07
8.39096e-06
-1.19866e-07
8.3828e-06
-1.23928e-07
8.37398e-06
-1.27792e-07
8.36456e-06
-1.31407e-07
8.35467e-06
-1.3473e-07
-1.37743e-07
8.34444e-06
7.32136e-06
-2.1887e-08
7.32882e-06
-5.38424e-08
7.33288e-06
-6.58534e-08
7.33477e-06
-7.28275e-08
7.33574e-06
-7.99377e-08
7.33565e-06
-8.60324e-08
7.33436e-06
-9.07895e-08
7.33196e-06
-9.486e-08
7.32854e-06
-9.86897e-08
7.32417e-06
-1.02398e-07
7.31891e-06
-1.06014e-07
7.31283e-06
-1.09567e-07
7.30604e-06
-1.13072e-07
7.29863e-06
-1.16519e-07
7.29072e-06
-1.1988e-07
7.28241e-06
-1.23102e-07
7.2738e-06
-1.26119e-07
-1.28781e-07
7.26484e-06
6.37504e-06
-2.68588e-08
6.38402e-06
-6.28259e-08
6.38849e-06
-7.03228e-08
6.39104e-06
-7.53777e-08
6.39273e-06
-8.16229e-08
6.39332e-06
-8.6631e-08
6.39294e-06
-9.0405e-08
6.39183e-06
-9.37513e-08
6.39015e-06
-9.7013e-08
6.388e-06
-1.00242e-07
6.38545e-06
-1.03465e-07
6.38261e-06
-1.06725e-07
6.37958e-06
-1.10039e-07
6.37646e-06
-1.13405e-07
6.37338e-06
-1.16795e-07
6.37046e-06
-1.20184e-07
6.36783e-06
-1.23494e-07
-1.26627e-07
6.36568e-06
5.55391e-06
-3.5307e-08
5.56519e-06
-7.4104e-08
5.57474e-06
-7.98705e-08
5.58503e-06
-8.56677e-08
5.59577e-06
-9.23643e-08
5.60627e-06
-9.71357e-08
5.61638e-06
-1.00507e-07
5.62604e-06
-1.03412e-07
5.63519e-06
-1.06162e-07
5.64376e-06
-1.08812e-07
5.6517e-06
-1.11414e-07
5.659e-06
-1.14022e-07
5.66563e-06
-1.16663e-07
5.67156e-06
-1.19336e-07
5.67677e-06
-1.2201e-07
5.68127e-06
-1.24685e-07
5.68508e-06
-1.27297e-07
-1.30159e-07
5.68861e-06
4.88783e-06
-9.55311e-08
4.93378e-06
-1.20049e-07
4.97041e-06
-1.16507e-07
4.99866e-06
-1.13916e-07
5.01861e-06
-1.12315e-07
5.03116e-06
-1.09679e-07
5.03719e-06
-1.06541e-07
5.03738e-06
-1.03605e-07
5.03227e-06
-1.01052e-07
5.02232e-06
-9.88559e-08
5.00789e-06
-9.69895e-08
4.9893e-06
-9.54289e-08
4.96677e-06
-9.4136e-08
4.9405e-06
-9.30608e-08
4.91063e-06
-9.21456e-08
4.87731e-06
-9.13669e-08
4.84068e-06
-9.06655e-08
-9.02529e-08
4.80078e-06
4.10715e-06
3.9871e-06
3.87059e-06
3.75667e-06
3.64436e-06
3.53468e-06
3.42814e-06
3.32453e-06
3.22348e-06
3.12462e-06
3.02764e-06
2.93221e-06
2.83807e-06
2.74501e-06
2.65286e-06
2.5615e-06
2.47083e-06
2.38058e-06
1.05723e-07
-1.05723e-07
2.22638e-07
-1.16915e-07
3.62972e-07
-1.40334e-07
4.97969e-07
-1.34998e-07
5.92128e-07
-9.41585e-08
6.15614e-07
-2.34865e-08
5.5888e-07
5.6734e-08
4.03687e-07
1.55193e-07
1.43654e-07
2.60033e-07
-2.22561e-07
3.66215e-07
-6.91249e-07
4.68688e-07
-1.2512e-06
5.59947e-07
-1.88583e-06
6.34636e-07
-2.57498e-06
6.89149e-07
-3.29646e-06
7.21481e-07
-4.02782e-06
7.31357e-07
-4.74765e-06
7.19831e-07
-5.43646e-06
6.88814e-07
-6.07732e-06
6.40854e-07
-6.656e-06
5.78681e-07
-7.161e-06
5.05001e-07
-7.58332e-06
4.22319e-07
-7.91626e-06
3.32938e-07
-8.15551e-06
2.39252e-07
-8.29944e-06
1.43929e-07
-8.34908e-06
4.96401e-08
-8.3151e-06
-3.39758e-08
-8.20497e-06
-1.10136e-07
-8.02544e-06
-1.79527e-07
-7.78199e-06
-2.4345e-07
-7.47948e-06
-3.02507e-07
-7.12269e-06
-3.56796e-07
-6.71644e-06
-4.06246e-07
-6.26566e-06
-4.50778e-07
-5.77527e-06
-4.90388e-07
-5.25009e-06
-5.25178e-07
-4.69473e-06
-5.55367e-07
-4.11345e-06
-5.81279e-07
-3.51013e-06
-6.03321e-07
-2.88819e-06
-6.21937e-07
-2.25064e-06
-6.37551e-07
-1.60002e-06
-6.50624e-07
-9.37812e-07
-6.62204e-07
-2.63458e-07
-6.74354e-07
4.23752e-07
-6.8721e-07
1.12189e-06
-6.98135e-07
1.8282e-06
-7.06315e-07
2.54014e-06
-7.11941e-07
3.25439e-06
-7.14249e-07
3.96296e-06
-7.0857e-07
4.64292e-06
-6.79959e-07
5.23943e-06
-5.96514e-07
5.65696e-06
-4.17522e-07
5.79964e-06
-1.42685e-07
5.64683e-06
1.52809e-07
5.25893e-06
3.87898e-07
4.72954e-06
5.29397e-07
4.15803e-06
5.71507e-07
3.62265e-06
5.35378e-07
3.16435e-06
4.58304e-07
2.78229e-06
3.8206e-07
2.44464e-06
3.37647e-07
2.12429e-06
3.20351e-07
1.82314e-06
3.01147e-07
1.58319e-06
2.39953e-07
1.47762e-06
1.05566e-07
1.53715e-06
-5.95296e-08
1.79624e-06
-2.59082e-07
2.20044e-06
-4.04206e-07
2.63898e-06
-4.38535e-07
3.00139e-06
-3.62415e-07
3.23594e-06
-2.34546e-07
3.36266e-06
-1.26718e-07
3.4381e-06
-7.54406e-08
3.47895e-06
-4.08494e-08
3.40693e-06
7.20191e-08
3.06218e-06
3.44747e-07
2.29525e-06
7.6693e-07
1.08725e-06
1.208e-06
-4.46268e-07
1.53352e-06
-2.1094e-06
1.66313e-06
-3.7466e-06
1.6372e-06
-5.26111e-06
1.51451e-06
-6.60148e-06
1.34037e-06
-7.7478e-06
1.14632e-06
-8.69975e-06
9.51946e-07
-9.46728e-06
7.67525e-07
-1.00644e-05
5.97107e-07
-1.05056e-05
4.41236e-07
-1.08048e-05
2.99132e-07
-1.09756e-05
1.70894e-07
-1.10314e-05
5.57779e-08
-1.09951e-05
-3.62796e-08
-1.088e-05
-1.1517e-07
-1.06936e-05
-1.86383e-07
-1.04402e-05
-2.53396e-07
-1.01226e-05
-3.17641e-07
-9.7427e-06
-3.79852e-07
-9.30221e-06
-4.40486e-07
-8.80241e-06
-4.99801e-07
-8.24459e-06
-5.57823e-07
-7.6303e-06
-6.14289e-07
-6.96171e-06
-6.68589e-07
-6.24197e-06
-7.19743e-07
-5.47556e-06
-7.66411e-07
-4.66859e-06
-8.0697e-07
-3.82889e-06
-8.39693e-07
-2.96589e-06
-8.63009e-07
-2.09017e-06
-8.75719e-07
-1.21423e-06
-8.75939e-07
-3.4898e-07
-8.65247e-07
4.93853e-07
-8.42832e-07
1.30163e-06
-8.07776e-07
2.06806e-06
-7.66434e-07
2.78722e-06
-7.19155e-07
3.45392e-06
-6.66703e-07
4.0643e-06
-6.10381e-07
4.61562e-06
-5.5132e-07
5.10606e-06
-4.90435e-07
5.5346e-06
-4.28542e-07
5.90102e-06
-3.66421e-07
6.20531e-06
-3.04287e-07
6.4471e-06
-2.4179e-07
6.62763e-06
-1.80538e-07
6.74143e-06
-1.13799e-07
6.76539e-06
-2.3956e-08
6.66124e-06
1.04154e-07
6.43324e-06
2.27991e-07
6.0872e-06
3.46045e-07
5.63785e-06
4.49347e-07
5.10865e-06
5.29201e-07
4.53219e-06
5.76462e-07
3.94758e-06
5.84613e-07
3.39405e-06
5.53526e-07
2.90445e-06
4.89602e-07
2.50013e-06
4.04314e-07
2.18599e-06
3.14141e-07
1.95624e-06
2.2975e-07
1.80261e-06
1.53637e-07
1.71199e-06
9.06169e-08
1.66805e-06
4.39452e-08
1.65351e-06
1.45387e-08
1.65277e-06
7.37448e-10
1.65725e-06
-4.4774e-09
1.66304e-06
-5.79679e-09
1.66983e-06
-6.78519e-09
1.67854e-06
-8.71157e-09
1.69074e-06
-1.2201e-08
1.70785e-06
-1.71106e-08
1.73139e-06
-2.35411e-08
1.76301e-06
-3.1613e-08
1.80415e-06
-4.11458e-08
1.85542e-06
-5.1272e-08
1.91556e-06
-6.01346e-08
1.98277e-06
-6.72105e-08
2.06161e-06
-7.88432e-08
2.1707e-06
-1.09088e-07
2.32441e-06
-1.53708e-07
2.47947e-06
-1.55066e-07
2.5105e-06
-3.10233e-08
2.16951e-06
3.4099e-07
1.07506e-06
1.09445e-06
-6.8587e-07
1.76093e-06
-2.55185e-06
1.86598e-06
-4.03489e-06
1.48304e-06
-4.99207e-06
9.57185e-07
-5.44545e-06
4.53382e-07
-5.47906e-06
3.36008e-08
-5.18765e-06
-2.91405e-07
-4.62623e-06
-5.61424e-07
-3.82861e-06
-7.97618e-07
-2.84232e-06
-9.86289e-07
-1.73789e-06
-1.10443e-06
-5.95736e-07
-1.14216e-06
4.94608e-07
-1.09034e-06
1.46164e-06
-9.6703e-07
2.27175e-06
-8.10108e-07
2.91475e-06
-6.43e-07
3.36292e-06
-4.4817e-07
-1.83947e-07
3.54686e-06
-5.62014e-08
-4.95215e-08
-1.13107e-07
-6.00097e-08
-2.19106e-07
-3.43338e-08
-4.01414e-07
4.73098e-08
-6.81513e-07
1.85941e-07
-1.05878e-06
3.53779e-07
-1.53625e-06
5.34203e-07
-2.09657e-06
7.15521e-07
-2.72401e-06
8.87463e-07
-3.39774e-06
1.03995e-06
-4.09341e-06
1.16435e-06
-4.78808e-06
1.25462e-06
-5.46071e-06
1.30727e-06
-6.09336e-06
1.3218e-06
-6.67216e-06
1.30028e-06
-7.18756e-06
1.24676e-06
-7.63416e-06
1.16643e-06
-8.01027e-06
1.06492e-06
-8.31709e-06
9.47679e-07
-8.55795e-06
8.19543e-07
-8.73755e-06
6.84595e-07
-8.86124e-06
5.46009e-07
-8.9345e-06
4.06203e-07
-8.96222e-06
2.66966e-07
-8.94803e-06
1.29744e-07
-8.89315e-06
-5.24406e-09
-8.78881e-06
-1.38318e-07
-8.62935e-06
-2.69592e-07
-8.41211e-06
-3.96769e-07
-8.13769e-06
-5.17864e-07
-7.80882e-06
-6.31381e-07
-7.4294e-06
-7.36217e-07
-7.00405e-06
-8.31597e-07
-6.53775e-06
-9.17072e-07
-6.03562e-06
-9.92518e-07
-5.50267e-06
-1.05813e-06
-4.94365e-06
-1.11439e-06
-4.36291e-06
-1.16202e-06
-3.76427e-06
-1.20197e-06
-3.15091e-06
-1.23529e-06
-2.52531e-06
-1.26316e-06
-1.88909e-06
-1.28684e-06
-1.24336e-06
-1.30794e-06
-5.89538e-07
-1.32817e-06
7.22796e-08
-1.34903e-06
7.42937e-07
-1.36879e-06
1.42109e-06
-1.38447e-06
2.10285e-06
-1.3937e-06
2.78133e-06
-1.39273e-06
3.44865e-06
-1.37589e-06
4.10338e-06
-1.33468e-06
4.76334e-06
-1.25648e-06
5.46693e-06
-1.12111e-06
6.22119e-06
-8.96947e-07
6.93691e-06
-5.62906e-07
7.472e-06
-1.47194e-07
7.71916e-06
2.8224e-07
7.63712e-06
6.53547e-07
7.24867e-06
9.23822e-07
6.62773e-06
1.07925e-06
5.87229e-06
1.1375e-06
5.07731e-06
1.13263e-06
4.31129e-06
1.08637e-06
3.62286e-06
9.89576e-07
3.06364e-06
7.99179e-07
2.67873e-06
4.90474e-07
2.53588e-06
8.33172e-08
2.63104e-06
-3.54245e-07
2.93216e-06
-7.05327e-07
3.35016e-06
-8.56528e-07
3.76945e-06
-7.8171e-07
4.10089e-06
-5.65989e-07
4.28737e-06
-3.13197e-07
4.22196e-06
-1.00301e-08
3.67966e-06
5.01447e-07
2.44328e-06
1.3084e-06
5.88391e-07
2.19964e-06
-1.54218e-06
2.8975e-06
-3.5925e-06
3.25833e-06
-5.37857e-06
3.31958e-06
-6.85239e-06
3.13696e-06
-8.01591e-06
2.80072e-06
-8.89797e-06
2.39658e-06
-9.54449e-06
1.98689e-06
-1.0006e-05
1.60781e-06
-1.03283e-05
1.27429e-06
-1.05484e-05
9.87649e-07
-1.06934e-05
7.42084e-07
-1.07818e-05
5.29591e-07
-1.08251e-05
3.4249e-07
-1.08285e-05
1.74258e-07
-1.07922e-05
1.94981e-08
-1.0702e-05
-1.26529e-07
-1.05496e-05
-2.67511e-07
-1.03338e-05
-4.02206e-07
-1.00558e-05
-5.31345e-07
-9.71751e-06
-6.55977e-07
-9.32031e-06
-7.77056e-07
-8.86545e-06
-8.95351e-07
-8.3539e-06
-1.01135e-06
-7.7866e-06
-1.12512e-06
-7.16476e-06
-1.23614e-06
-6.49014e-06
-1.3432e-06
-5.76558e-06
-1.44431e-06
-4.99527e-06
-1.53672e-06
-4.18515e-06
-1.61709e-06
-3.34308e-06
-1.68176e-06
-2.47878e-06
-1.72731e-06
-1.60361e-06
-1.75089e-06
-7.27186e-07
-1.75237e-06
1.36117e-07
-1.72855e-06
9.73436e-07
-1.68015e-06
1.77773e-06
-1.61207e-06
2.54063e-06
-1.52934e-06
3.25587e-06
-1.43439e-06
3.9189e-06
-1.32973e-06
4.52645e-06
-1.21793e-06
5.07632e-06
-1.1012e-06
5.56727e-06
-9.81384e-07
5.99882e-06
-8.60086e-07
6.37104e-06
-7.38647e-07
6.6849e-06
-6.18143e-07
6.94237e-06
-4.99261e-07
7.14379e-06
-3.81961e-07
7.29732e-06
-2.67331e-07
7.43052e-06
-1.57153e-07
7.56933e-06
-3.46579e-08
7.70659e-06
9.07315e-08
7.81548e-06
2.37157e-07
7.87084e-06
3.93992e-07
7.8503e-06
5.49733e-07
7.74074e-06
6.86022e-07
7.54196e-06
7.83398e-07
7.26697e-06
8.28514e-07
6.93803e-06
8.18547e-07
6.58251e-06
7.59832e-07
6.22714e-06
6.69507e-07
5.89097e-06
5.65919e-07
5.58273e-06
4.61873e-07
5.30468e-06
3.68674e-07
5.05452e-06
2.94101e-07
4.82821e-06
2.40855e-07
4.62217e-06
2.06774e-07
4.43191e-06
1.85779e-07
4.25386e-06
1.72252e-07
4.08524e-06
1.61833e-07
3.92477e-06
1.51764e-07
3.77225e-06
1.40316e-07
3.62858e-06
1.26557e-07
3.49515e-06
1.09891e-07
3.37353e-06
9.00059e-08
3.26554e-06
6.68446e-08
3.17336e-06
4.09138e-08
3.09931e-06
1.39099e-08
3.04733e-06
-1.52295e-08
3.02859e-06
-6.0101e-08
3.06943e-06
-1.49927e-07
3.18114e-06
-2.65418e-07
3.25849e-06
-2.32421e-07
2.94327e-06
2.84199e-07
1.64732e-06
1.63694e-06
-5.50196e-07
3.29196e-06
-2.65291e-06
3.86364e-06
-4.05989e-06
3.27297e-06
-4.84219e-06
2.26534e-06
-5.21807e-06
1.33306e-06
-5.34523e-06
5.80549e-07
-5.26958e-06
-4.20466e-08
-4.95668e-06
-6.04313e-07
-4.3891e-06
-1.129e-06
-3.59078e-06
-1.59593e-06
-2.60686e-06
-1.97021e-06
-1.50458e-06
-2.20671e-06
-3.67953e-07
-2.27878e-06
7.17265e-07
-2.17556e-06
1.68794e-06
-1.93771e-06
2.51337e-06
-1.63554e-06
3.17477e-06
-1.3044e-06
3.66974e-06
-9.43132e-07
-5.32476e-07
4.01826e-06
-2.56037e-07
2.06516e-07
-5.58083e-07
2.42036e-07
-9.44239e-07
3.51822e-07
-1.42619e-06
5.29262e-07
-1.97638e-06
7.36126e-07
-2.57588e-06
9.53285e-07
-3.20566e-06
1.16398e-06
-3.84438e-06
1.35424e-06
-4.47056e-06
1.51364e-06
-5.06559e-06
1.63499e-06
-5.61584e-06
1.7146e-06
-6.11351e-06
1.75228e-06
-6.55679e-06
1.75056e-06
-6.94895e-06
1.71395e-06
-7.29663e-06
1.64796e-06
-7.60794e-06
1.55807e-06
-7.89049e-06
1.44898e-06
-8.1498e-06
1.32423e-06
-8.38826e-06
1.18614e-06
-8.6048e-06
1.03609e-06
-8.79512e-06
8.74915e-07
-8.95249e-06
7.03377e-07
-9.06879e-06
5.22506e-07
-9.13562e-06
3.33796e-07
-9.14544e-06
1.39565e-07
-9.09284e-06
-5.78417e-08
-8.97565e-06
-2.55515e-07
-8.79498e-06
-4.50263e-07
-8.55285e-06
-6.38897e-07
-8.2522e-06
-8.18517e-07
-7.89697e-06
-9.86602e-07
-7.49205e-06
-1.14114e-06
-7.04294e-06
-1.2807e-06
-6.55555e-06
-1.40446e-06
-6.03589e-06
-1.51218e-06
-5.48985e-06
-1.60417e-06
-4.92298e-06
-1.68126e-06
-4.34031e-06
-1.74468e-06
-3.74622e-06
-1.79606e-06
-3.14423e-06
-1.83729e-06
-2.53693e-06
-1.87046e-06
-1.92599e-06
-1.89777e-06
-1.31243e-06
-1.9215e-06
-6.96755e-07
-1.94385e-06
-7.90788e-08
-1.9667e-06
5.421e-07
-1.98997e-06
1.16848e-06
-2.01085e-06
1.80052e-06
-2.02574e-06
2.43678e-06
-2.02898e-06
3.07266e-06
-2.01177e-06
3.70066e-06
-1.96269e-06
4.31413e-06
-1.86995e-06
4.91724e-06
-1.72422e-06
5.53854e-06
-1.51825e-06
6.21752e-06
-1.24189e-06
6.94361e-06
-8.73288e-07
7.61911e-06
-3.93254e-07
8.1006e-06
1.72056e-07
8.28007e-06
7.44346e-07
8.12357e-06
1.23575e-06
7.6727e-06
1.58837e-06
7.02244e-06
1.78289e-06
6.28463e-06
1.82418e-06
5.55757e-06
1.71664e-06
4.90371e-06
1.45303e-06
4.37068e-06
1.0235e-06
4.01249e-06
4.41515e-07
3.87045e-06
-2.12209e-07
3.94339e-06
-7.7827e-07
4.15626e-06
-1.06939e-06
4.36833e-06
-9.93779e-07
4.41217e-06
-6.09832e-07
4.05381e-06
4.51633e-08
3.00691e-06
1.03687e-06
1.22069e-06
2.28766e-06
-9.47927e-07
3.47702e-06
-3.02212e-06
4.27383e-06
-4.74478e-06
4.62017e-06
-6.05507e-06
4.56861e-06
-6.98013e-06
4.24464e-06
-7.61248e-06
3.76931e-06
-8.05678e-06
3.24502e-06
-8.39941e-06
2.73921e-06
-8.69616e-06
2.28364e-06
-8.97296e-06
1.88461e-06
-9.23407e-06
1.53539e-06
-9.47169e-06
1.22527e-06
-9.67384e-06
9.44242e-07
-9.82897e-06
6.84719e-07
-9.92798e-06
4.41503e-07
-9.96496e-06
2.11237e-07
-9.93758e-06
-7.89028e-09
-9.84589e-06
-2.18219e-07
-9.69274e-06
-4.20656e-07
-9.47944e-06
-6.15506e-07
-9.20735e-06
-8.03437e-07
-8.87788e-06
-9.85449e-07
-8.49224e-06
-1.1627e-06
-8.0513e-06
-1.33629e-06
-7.55563e-06
-1.50702e-06
-7.00563e-06
-1.67511e-06
-6.4019e-06
-1.83987e-06
-5.74559e-06
-1.99951e-06
-5.0389e-06
-2.151e-06
-4.28556e-06
-2.29006e-06
-3.49135e-06
-2.41129e-06
-2.66427e-06
-2.50884e-06
-1.81429e-06
-2.57729e-06
-9.52242e-07
-2.61293e-06
-9.22877e-08
-2.61232e-06
7.51809e-07
-2.57265e-06
1.56967e-06
-2.49802e-06
2.35289e-06
-2.39529e-06
3.09316e-06
-2.26961e-06
3.78446e-06
-2.1257e-06
4.42261e-06
-1.96787e-06
5.00462e-06
-1.79995e-06
5.52856e-06
-1.62514e-06
5.99332e-06
-1.44614e-06
6.39853e-06
-1.2653e-06
6.74458e-06
-1.08469e-06
7.03262e-06
-9.06184e-07
7.26485e-06
-7.31488e-07
7.4444e-06
-5.61511e-07
7.57355e-06
-3.96487e-07
7.65355e-06
-2.37146e-07
7.70129e-06
-8.23998e-08
7.7265e-06
6.55237e-08
7.75279e-06
2.10859e-07
7.7931e-06
3.53681e-07
7.85006e-06
4.92778e-07
7.91281e-06
6.23277e-07
7.961e-06
7.35205e-07
7.97331e-06
8.16199e-07
7.93495e-06
8.56914e-07
7.8401e-06
8.54675e-07
7.694e-06
8.15613e-07
7.50857e-06
7.51345e-07
7.29595e-06
6.74492e-07
7.0672e-06
5.97425e-07
6.83125e-06
5.30051e-07
6.59447e-06
4.7764e-07
6.36073e-06
4.40507e-07
6.13128e-06
4.15229e-07
5.9061e-06
3.97431e-07
5.68459e-06
3.83345e-07
5.46608e-06
3.70272e-07
5.25002e-06
3.56379e-07
5.03614e-06
3.40436e-07
4.82444e-06
3.21596e-07
4.61529e-06
2.99153e-07
4.40968e-06
2.72451e-07
4.20892e-06
2.41679e-07
4.01426e-06
2.08566e-07
3.82955e-06
1.69479e-07
3.67193e-06
9.75208e-08
3.57258e-06
-5.05766e-08
3.51086e-06
-2.03699e-07
3.27373e-06
4.71312e-09
2.37608e-06
1.18185e-06
4.99551e-07
3.51347e-06
-1.55021e-06
5.34172e-06
-2.92689e-06
5.24031e-06
-3.72249e-06
4.06857e-06
-4.26023e-06
2.80308e-06
-4.64687e-06
1.7197e-06
-4.84253e-06
7.76202e-07
-4.80121e-06
-8.33605e-08
-4.50969e-06
-8.9584e-07
-3.97551e-06
-1.66318e-06
-3.21661e-06
-2.35483e-06
-2.27319e-06
-2.91363e-06
-1.20971e-06
-3.27019e-06
-1.12706e-07
-3.37578e-06
9.34446e-07
-3.22271e-06
1.87437e-06
-2.87763e-06
2.67324e-06
-2.4344e-06
3.32033e-06
-1.9515e-06
3.82378e-06
-1.44658e-06
-9.11176e-07
4.20248e-06
-4.23776e-07
6.30292e-07
-9.03007e-07
7.21268e-07
-1.44652e-06
8.95338e-07
-2.03741e-06
1.12015e-06
-2.6521e-06
1.35081e-06
-3.26756e-06
1.56875e-06
-3.86306e-06
1.75948e-06
-4.42258e-06
1.91376e-06
-4.93618e-06
2.02724e-06
-5.40082e-06
2.09963e-06
-5.82005e-06
2.13384e-06
-6.20233e-06
2.13455e-06
-6.55866e-06
2.10688e-06
-6.8999e-06
2.05519e-06
-7.23432e-06
1.98238e-06
-7.56593e-06
1.88968e-06
-7.89391e-06
1.77696e-06
-8.21301e-06
1.64333e-06
-8.51469e-06
1.48782e-06
-8.78861e-06
1.31001e-06
-9.02409e-06
1.11039e-06
-9.21125e-06
8.90537e-07
-9.34186e-06
6.53116e-07
-9.40968e-06
4.01619e-07
-9.41026e-06
1.40148e-07
-9.3416e-06
-1.26509e-07
-9.20304e-06
-3.94074e-07
-8.99576e-06
-6.57543e-07
-8.72248e-06
-9.1217e-07
-8.38736e-06
-1.15364e-06
-7.99572e-06
-1.37824e-06
-7.55378e-06
-1.58309e-06
-7.06835e-06
-1.76613e-06
-6.54654e-06
-1.92627e-06
-5.99548e-06
-2.06324e-06
-5.42209e-06
-2.17756e-06
-4.83291e-06
-2.27044e-06
-4.23391e-06
-2.34368e-06
-3.63033e-06
-2.39964e-06
-3.0265e-06
-2.44112e-06
-2.42568e-06
-2.47128e-06
-1.82999e-06
-2.49346e-06
-1.24043e-06
-2.51105e-06
-6.57106e-07
-2.52718e-06
-7.92408e-08
-2.54457e-06
4.95344e-07
-2.56456e-06
1.06969e-06
-2.5852e-06
1.64721e-06
-2.60326e-06
2.2315e-06
-2.61327e-06
2.82583e-06
-2.60611e-06
3.43164e-06
-2.56849e-06
4.04552e-06
-2.48383e-06
4.65725e-06
-2.33595e-06
5.25435e-06
-2.11535e-06
5.83496e-06
-1.8225e-06
6.42081e-06
-1.45914e-06
7.0378e-06
-1.01024e-06
7.65333e-06
-4.43472e-07
8.15904e-06
2.38638e-07
8.43609e-06
9.58701e-07
8.42448e-06
1.59997e-06
8.14063e-06
2.06674e-06
7.65698e-06
2.30783e-06
7.06481e-06
2.30881e-06
6.44399e-06
2.07385e-06
5.85331e-06
1.61418e-06
5.34648e-06
9.48343e-07
4.98066e-06
1.53613e-07
4.7782e-06
-5.75808e-07
4.65889e-06
-9.50083e-07
4.42891e-06
-7.638e-07
3.79723e-06
2.18453e-08
2.48063e-06
1.36176e-06
5.40615e-07
2.97689e-06
-1.5629e-06
4.39118e-06
-3.37427e-06
5.2884e-06
-4.72783e-06
5.62739e-06
-5.63086e-06
5.52319e-06
-6.19218e-06
5.12993e-06
-6.54618e-06
4.59864e-06
-6.81393e-06
4.03706e-06
-7.0742e-06
3.50528e-06
-7.35856e-06
3.02357e-06
-7.66455e-06
2.58963e-06
-7.97352e-06
2.19358e-06
-8.26395e-06
1.82582e-06
-8.51807e-06
1.47939e-06
-8.72354e-06
1.14971e-06
-8.87287e-06
8.34044e-07
-8.96207e-06
5.30708e-07
-8.98955e-06
2.38719e-07
-8.95514e-06
-4.22975e-08
-8.85996e-06
-3.13401e-07
-8.70583e-06
-5.74788e-07
-8.49456e-06
-8.26777e-07
-8.22794e-06
-1.07006e-06
-7.90758e-06
-1.30581e-06
-7.53472e-06
-1.53556e-06
-7.11004e-06
-1.76097e-06
-6.63367e-06
-1.98339e-06
-6.10534e-06
-2.20343e-06
-5.52477e-06
-2.42044e-06
-4.89212e-06
-2.63216e-06
-4.20865e-06
-2.83448e-06
-3.47728e-06
-3.02142e-06
-2.70327e-06
-3.1853e-06
-1.89457e-06
-3.31754e-06
-1.0615e-06
-3.41036e-06
-2.17255e-07
-3.45718e-06
6.22057e-07
-3.45163e-06
1.44402e-06
-3.39461e-06
2.23885e-06
-3.29285e-06
2.99681e-06
-3.15324e-06
3.7104e-06
-2.98319e-06
4.37428e-06
-2.78958e-06
4.98474e-06