/*--------------------------------*- C++ -*----------------------------------*\
  =========                 |
  \\      /  F ield         | OpenFOAM: The Open Source CFD Toolbox
   \\    /   O peration     | Website:  https://openfoam.org
    \\  /    A nd           | Version:  9
     \\/     M anipulation  |
\*---------------------------------------------------------------------------*/
FoamFile
{
    format      ascii;
    class       volVectorField;
    location    "0.22";
    object      U;
}
// * * * * * * * * * * * * * * * * * * * * * * * * * * * * * * * * * * * * * //

dimensions      [0 1 -1 0 0 0 0];

internalField   nonuniform List<vector> 
12225
(
(9.77049 -0.0575025 0)
(9.31976 -0.0330405 0)
(8.8695 -0.0066083 0)
(8.43237 0.0118854 0)
(8.02865 0.0229583 0)
(7.66695 0.0278822 0)
(7.34802 0.0285954 0)
(7.07141 0.0266271 0)
(6.83691 0.0228928 0)
(6.64391 0.0179497 0)
(6.49108 0.0121793 0)
(6.37662 0.00586299 0)
(6.29846 -0.000837839 0)
(6.25501 -0.00777669 0)
(6.2428 -0.014476 0)
(6.25865 -0.0194644 0)
(6.29187 -0.02697 0)
(6.38494 -0.0131395 0)
(10.0973 0.0953187 0)
(10.2937 0.155776 0)
(10.4231 0.156644 0)
(10.4933 0.14928 0)
(10.5251 0.141364 0)
(10.5302 0.132003 0)
(10.5151 0.121506 0)
(10.486 0.110335 0)
(10.4491 0.0985571 0)
(10.4097 0.0861396 0)
(10.3719 0.0731033 0)
(10.3388 0.0595178 0)
(10.3128 0.0454816 0)
(10.2958 0.0308664 0)
(10.2892 0.0163027 0)
(10.2946 0.00270571 0)
(10.3144 -0.0101973 0)
(10.3603 -0.0157615 0)
(10.009 0.0382041 0)
(10.0581 0.0492515 0)
(10.1147 0.0422701 0)
(10.1688 0.0440723 0)
(10.2235 0.049819 0)
(10.279 0.0536457 0)
(10.3323 0.0546251 0)
(10.3813 0.0531308 0)
(10.4252 0.0493192 0)
(10.4646 0.0432783 0)
(10.4998 0.0351821 0)
(10.5318 0.025229 0)
(10.5613 0.013756 0)
(10.5898 0.00088938 0)
(10.6187 -0.0135094 0)
(10.6523 -0.0285372 0)
(10.6942 -0.0447896 0)
(10.7569 -0.0614792 0)
(10.0048 0.0258617 0)
(10.0315 0.0500931 0)
(10.0624 0.0591506 0)
(10.0882 0.0666421 0)
(10.1128 0.0717868 0)
(10.1402 0.0726528 0)
(10.1702 0.0700303 0)
(10.2015 0.0650777 0)
(10.2336 0.0582816 0)
(10.2662 0.0497845 0)
(10.2993 0.0396908 0)
(10.333 0.0280102 0)
(10.3673 0.0148123 0)
(10.4027 0.000486907 0)
(10.4407 -0.0159011 0)
(10.4833 -0.0348718 0)
(10.5327 -0.0575982 0)
(10.5955 -0.0892536 0)
(10.0037 0.02114 0)
(10.0257 0.0474597 0)
(10.0525 0.0556862 0)
(10.0748 0.0579053 0)
(10.0949 0.0583588 0)
(10.1166 0.0564825 0)
(10.1403 0.0522859 0)
(10.1651 0.0463031 0)
(10.1908 0.0387559 0)
(10.2177 0.029616 0)
(10.2458 0.0188583 0)
(10.2754 0.00648084 0)
(10.3069 -0.00790798 0)
(10.3404 -0.0241591 0)
(10.3768 -0.0427402 0)
(10.4174 -0.0648372 0)
(10.4634 -0.0924971 0)
(10.5169 -0.131713 0)
(10.0028 0.0173368 0)
(10.0205 0.0406272 0)
(10.0443 0.0480107 0)
(10.0658 0.0495633 0)
(10.0856 0.0502222 0)
(10.1066 0.0491816 0)
(10.1293 0.0456686 0)
(10.153 0.0399318 0)
(10.1774 0.0322657 0)
(10.2028 0.022735 0)
(10.2293 0.011304 0)
(10.2572 -0.00194963 0)
(10.2867 -0.0173491 0)
(10.3182 -0.0352348 0)
(10.3522 -0.0560231 0)
(10.3893 -0.0810162 0)
(10.43 -0.112424 0)
(10.4739 -0.155054 0)
(10.0021 0.0139838 0)
(10.0164 0.033998 0)
(10.0373 0.0416152 0)
(10.0578 0.0434753 0)
(10.0771 0.0437705 0)
(10.0974 0.0420567 0)
(10.1191 0.0376357 0)
(10.1419 0.0307873 0)
(10.1655 0.0219071 0)
(10.1898 0.0111132 0)
(10.2153 -0.0016556 0)
(10.242 -0.0164872 0)
(10.2701 -0.0334684 0)
(10.2998 -0.053106 0)
(10.3314 -0.0759985 0)
(10.365 -0.103371 0)
(10.4003 -0.137073 0)
(10.4357 -0.180473 0)
(10.0016 0.0111773 0)
(10.0133 0.0281074 0)
(10.0315 0.0354939 0)
(10.0507 0.0371074 0)
(10.0693 0.0364498 0)
(10.0887 0.0337444 0)
(10.1094 0.0285299 0)
(10.1312 0.0209744 0)
(10.1538 0.0113922 0)
(10.1772 -0.00013443 0)
(10.2016 -0.0136707 0)
(10.227 -0.029392 0)
(10.2535 -0.0474679 0)
(10.2813 -0.0683672 0)
(10.3102 -0.0926995 0)
(10.3402 -0.121473 0)
(10.3704 -0.15601 0)
(10.399 -0.198332 0)
(10.0013 0.00883665 0)
(10.0109 0.0227639 0)
(10.0267 0.0293251 0)
(10.0445 0.0304468 0)
(10.0622 0.0289312 0)
(10.0806 0.0253946 0)
(10.1003 0.0195177 0)
(10.1211 0.0113075 0)
(10.1426 0.000972117 0)
(10.1648 -0.0114152 0)
(10.1879 -0.0259273 0)
(10.2118 -0.0427263 0)
(10.2365 -0.0620122 0)
(10.2621 -0.0841628 0)
(10.2883 -0.10971 0)
(10.3146 -0.139382 0)
(10.3401 -0.173976 0)
(10.3632 -0.214457 0)
(10.0011 0.00684659 0)
(10.009 0.0178821 0)
(10.0227 0.0232392 0)
(10.039 0.0237324 0)
(10.0557 0.0214171 0)
(10.0732 0.0170283 0)
(10.0917 0.0103837 0)
(10.1113 0.001417 0)
(10.1316 -0.00973257 0)
(10.1526 -0.0229891 0)
(10.1742 -0.038409 0)
(10.1964 -0.0561368 0)
(10.2192 -0.0763703 0)
(10.2424 -0.0994106 0)
(10.2658 -0.12565 0)
(10.2886 -0.155545 0)
(10.3102 -0.189464 0)
(10.3289 -0.227654 0)
(10.0009 0.00511793 0)
(10.0075 0.0134282 0)
(10.0194 0.0173548 0)
(10.0341 0.0170552 0)
(10.0498 0.0139088 0)
(10.0662 0.00862518 0)
(10.0835 0.00115754 0)
(10.1019 -0.00857498 0)
(10.1209 -0.0204953 0)
(10.1404 -0.0345437 0)
(10.1604 -0.0507668 0)
(10.1809 -0.0692891 0)
(10.2016 -0.090278 0)
(10.2224 -0.113947 0)
(10.2429 -0.140538 0)
(10.2626 -0.170269 0)
(10.2807 -0.203201 0)
(10.2961 -0.239161 0)
(10.0007 0.00369585 0)
(10.0064 0.00964263 0)
(10.0169 0.0121283 0)
(10.0302 0.0109621 0)
(10.0448 0.00701786 0)
(10.0602 0.000909727 0)
(10.0764 -0.0073196 0)
(10.0935 -0.0177458 0)
(10.1112 -0.0303406 0)
(10.1293 -0.0450645 0)
(10.1478 -0.0619504 0)
(10.1665 -0.0810926 0)
(10.1853 -0.102611 0)
(10.2038 -0.126638 0)
(10.2219 -0.153286 0)
(10.2389 -0.182602 0)
(10.2542 -0.214467 0)
(10.2671 -0.248509 0)
(10.0006 0.00244388 0)
(10.0055 0.00620899 0)
(10.0147 0.00718878 0)
(10.0268 0.00504054 0)
(10.0402 0.000270824 0)
(10.0545 -0.00664391 0)
(10.0695 -0.0156222 0)
(10.0853 -0.0267234 0)
(10.1016 -0.0399495 0)
(10.1183 -0.0552768 0)
(10.1352 -0.0727232 0)
(10.1521 -0.092349 0)
(10.1689 -0.114226 0)
(10.1853 -0.138411 0)
(10.201 -0.164923 0)
(10.2155 -0.193691 0)
(10.2285 -0.224502 0)
(10.2393 -0.256912 0)
(10.0005 0.0011548 0)
(10.0047 0.00258579 0)
(10.0126 0.00182397 0)
(10.0232 -0.00153249 0)
(10.0353 -0.00727611 0)
(10.0483 -0.0150959 0)
(10.0619 -0.0249048 0)
(10.0762 -0.0367428 0)
(10.0909 -0.0506278 0)
(10.1058 -0.0665485 0)
(10.1208 -0.0845078 0)
(10.1356 -0.104528 0)
(10.1501 -0.12663 0)
(10.1641 -0.150804 0)
(10.1772 -0.176987 0)
(10.1892 -0.205032 0)
(10.1997 -0.234685 0)
(10.2085 -0.265514 0)
(10.0004 -0.00015205 0)
(10.0039 -0.00113125 0)
(10.0106 -0.00381832 0)
(10.0197 -0.00860249 0)
(10.0303 -0.0154798 0)
(10.0417 -0.0242953 0)
(10.0537 -0.0349886 0)
(10.0662 -0.0475868 0)
(10.079 -0.0621125 0)
(10.0918 -0.078561 0)
(10.1046 -0.0969202 0)
(10.117 -0.117178 0)
(10.129 -0.139306 0)
(10.1402 -0.163244 0)
(10.1507 -0.188878 0)
(10.16 -0.216029 0)
(10.168 -0.244454 0)
(10.1747 -0.273795 0)
(10.0004 -0.00145011 0)
(10.0032 -0.00485608 0)
(10.0087 -0.00958443 0)
(10.0163 -0.0159624 0)
(10.0252 -0.0240981 0)
(10.0348 -0.0339624 0)
(10.0449 -0.0455419 0)
(10.0553 -0.0588624 0)
(10.0659 -0.0739456 0)
(10.0763 -0.0907873 0)
(10.0865 -0.109363 0)
(10.0963 -0.129633 0)
(10.1055 -0.151537 0)
(10.1139 -0.174983 0)
(10.1214 -0.199842 0)
(10.1279 -0.22594 0)
(10.1334 -0.253075 0)
(10.1376 -0.280991 0)
(10.0003 -0.00271363 0)
(10.0025 -0.00851637 0)
(10.0068 -0.0153052 0)
(10.0129 -0.0233279 0)
(10.02 -0.0327457 0)
(10.0277 -0.0436193 0)
(10.0357 -0.0559835 0)
(10.0438 -0.0698742 0)
(10.0518 -0.0853134 0)
(10.0596 -0.102296 0)
(10.067 -0.12079 0)
(10.0738 -0.140744 0)
(10.08 -0.162083 0)
(10.0853 -0.184709 0)
(10.0898 -0.208498 0)
(10.0934 -0.233307 0)
(10.0959 -0.258976 0)
(10.0975 -0.285347 0)
(10.0002 -0.0038955 0)
(10.0019 -0.0119468 0)
(10.0051 -0.020684 0)
(10.0097 -0.0302713 0)
(10.015 -0.0408773 0)
(10.0206 -0.0526139 0)
(10.0263 -0.0655569 0)
(10.0319 -0.079758 0)
(10.0373 -0.0952432 0)
(10.0422 -0.11201 0)
(10.0466 -0.130031 0)
(10.0503 -0.149254 0)
(10.0532 -0.169606 0)
(10.0554 -0.190998 0)
(10.0567 -0.213325 0)
(10.057 -0.236474 0)
(10.0565 -0.26032 0)
(10.0549 -0.284778 0)
(10.0001 -0.00495703 0)
(10.0013 -0.014995 0)
(10.0036 -0.0253776 0)
(10.0068 -0.0361878 0)
(10.0104 -0.047595 0)
(10.014 -0.0597581 0)
(10.0173 -0.0727945 0)
(10.0204 -0.0867767 0)
(10.023 -0.101741 0)
(10.0249 -0.117697 0)
(10.0262 -0.134626 0)
(10.0267 -0.152488 0)
(10.0264 -0.171224 0)
(10.0253 -0.190758 0)
(10.0232 -0.211007 0)
(10.0203 -0.231881 0)
(10.0165 -0.253274 0)
(10.0117 -0.275149 0)
(10.0001 -0.00576732 0)
(10.0011 -0.0172655 0)
(10.003 -0.0287194 0)
(10.0054 -0.0401457 0)
(10.0079 -0.0517474 0)
(10.0101 -0.0637538 0)
(10.0118 -0.0763291 0)
(10.013 -0.0895682 0)
(10.0135 -0.103526 0)
(10.0132 -0.118231 0)
(10.0121 -0.133685 0)
(10.0102 -0.149861 0)
(10.0074 -0.166711 0)
(10.0037 -0.184172 0)
(9.99908 -0.20217 0)
(9.99362 -0.220629 0)
(9.98733 -0.239455 0)
(9.98009 -0.258618 0)
(10.0001 -0.00637544 0)
(10.0012 -0.0189168 0)
(10.0031 -0.0309788 0)
(10.0054 -0.0425349 0)
(10.0074 -0.0538998 0)
(10.0088 -0.0654179 0)
(10.0095 -0.0772906 0)
(10.0095 -0.0896147 0)
(10.0086 -0.10246 0)
(10.0068 -0.115885 0)
(10.0042 -0.129914 0)
(10.0006 -0.144539 0)
(9.99608 -0.159722 0)
(9.99069 -0.175411 0)
(9.98443 -0.191539 0)
(9.97733 -0.208034 0)
(9.96944 -0.224805 0)
(9.96067 -0.241825 0)
(10.0002 -0.00701452 0)
(10.0016 -0.0205877 0)
(10.004 -0.0330756 0)
(10.0065 -0.0444604 0)
(10.0083 -0.0553065 0)
(10.0093 -0.0661384 0)
(10.0093 -0.0771856 0)
(10.0084 -0.088531 0)
(10.0066 -0.100251 0)
(10.0038 -0.112417 0)
(9.9999 -0.125066 0)
(9.99506 -0.138197 0)
(9.98928 -0.151786 0)
(9.98259 -0.165792 0)
(9.97505 -0.180161 0)
(9.96668 -0.19483 0)
(9.95758 -0.209712 0)
(9.94765 -0.224771 0)
(10.0003 -0.00781055 0)
(10.0023 -0.0225528 0)
(10.0056 -0.0353116 0)
(10.0088 -0.046272 0)
(10.0107 -0.0564072 0)
(10.0113 -0.0663816 0)
(10.0109 -0.0764119 0)
(10.0094 -0.086618 0)
(10.0069 -0.0971477 0)
(10.0033 -0.108108 0)
(9.99858 -0.119534 0)
(9.99283 -0.131413 0)
(9.98611 -0.143715 0)
(9.97848 -0.156399 0)
(9.97 -0.169409 0)
(9.96074 -0.182679 0)
(9.95079 -0.196123 0)
(9.94011 -0.209706 0)
(10.0004 -0.00890735 0)
(10.0035 -0.0250406 0)
(10.0082 -0.0377258 0)
(10.0123 -0.0479772 0)
(10.0145 -0.0574869 0)
(10.015 -0.0668115 0)
(10.0143 -0.0758989 0)
(10.0124 -0.0848559 0)
(10.0093 -0.0939489 0)
(10.005 -0.103376 0)
(9.99946 -0.113219 0)
(9.99289 -0.123497 0)
(9.98535 -0.134209 0)
(9.97689 -0.145332 0)
(9.96761 -0.156819 0)
(9.95757 -0.16861 0)
(9.94689 -0.180617 0)
(9.93549 -0.192785 0)
(10.0007 -0.0104635 0)
(10.0056 -0.0284466 0)
(10.0122 -0.0404244 0)
(10.0171 -0.0491071 0)
(10.0193 -0.057596 0)
(10.0198 -0.0664527 0)
(10.0193 -0.075267 0)
(10.0174 -0.0839656 0)
(10.014 -0.0927354 0)
(10.0092 -0.101716 0)
(10.0031 -0.11096 0)
(9.99589 -0.120493 0)
(9.9876 -0.130336 0)
(9.97835 -0.140489 0)
(9.96823 -0.15093 0)
(9.95736 -0.161613 0)
(9.94586 -0.172464 0)
(9.9338 -0.183441 0)
(10.0012 -0.012428 0)
(10.0088 -0.0330444 0)
(10.0182 -0.0448315 0)
(10.0239 -0.0516964 0)
(10.0255 -0.057581 0)
(10.0254 -0.063444 0)
(10.0244 -0.069355 0)
(10.0221 -0.0755576 0)
(10.0181 -0.0822667 0)
(10.0128 -0.0895285 0)
(10.0062 -0.0973168 0)
(9.99841 -0.105609 0)
(9.9896 -0.114387 0)
(9.97988 -0.123621 0)
(9.96938 -0.133266 0)
(9.95825 -0.143252 0)
(9.94669 -0.153497 0)
(9.93461 -0.163849 0)
(10.0016 -0.0146079 0)
(10.0123 -0.0357663 0)
(10.0251 -0.0493929 0)
(10.0326 -0.0608738 0)
(10.0353 -0.0710357 0)
(10.0363 -0.0791531 0)
(10.0363 -0.0856678 0)
(10.0353 -0.0915086 0)
(10.0331 -0.0972446 0)
(10.0301 -0.103104 0)
(10.0263 -0.109213 0)
(10.0221 -0.115677 0)
(10.0174 -0.122573 0)
(10.0126 -0.129943 0)
(10.0077 -0.137798 0)
(10.0029 -0.146126 0)
(9.99855 -0.154877 0)
(9.99439 -0.163916 0)
(10.003 -0.0202935 0)
(10.0217 -0.0276417 0)
(10.0439 -0.0230798 0)
(10.0631 -0.0249531 0)
(10.0811 -0.0321429 0)
(10.0998 -0.0403255 0)
(10.1186 -0.0483789 0)
(10.1367 -0.0565776 0)
(10.1537 -0.0650678 0)
(10.1696 -0.0738208 0)
(10.1845 -0.0828403 0)
(10.1983 -0.0921827 0)
(10.2109 -0.101906 0)
(10.2223 -0.11205 0)
(10.2323 -0.122632 0)
(10.2411 -0.133681 0)
(10.2487 -0.145155 0)
(10.2547 -0.157214 0)
(10.0509 -0.0671574 0)
(10.1717 -0.11929 0)
(10.2657 -0.125883 0)
(10.3311 -0.124977 0)
(10.3783 -0.124681 0)
(10.4114 -0.124345 0)
(10.4308 -0.124075 0)
(10.4373 -0.124428 0)
(10.432 -0.12559 0)
(10.4162 -0.127513 0)
(10.3909 -0.130144 0)
(10.3567 -0.133459 0)
(10.3141 -0.137429 0)
(10.2635 -0.142017 0)
(10.2054 -0.147171 0)
(10.14 -0.152872 0)
(10.0675 -0.159023 0)
(9.98842 -0.165959 0)
(9.8754 0.0435458 0)
(9.62461 0.0236651 0)
(9.35731 0.00204211 0)
(9.07981 -0.0141996 0)
(8.80595 -0.0262059 0)
(8.54105 -0.0346152 0)
(8.28446 -0.0405183 0)
(8.03481 -0.044936 0)
(7.79139 -0.0484712 0)
(7.55362 -0.0514442 0)
(7.32076 -0.054057 0)
(7.092 -0.0564494 0)
(6.8666 -0.0587083 0)
(6.64398 -0.0608799 0)
(6.42369 -0.0629773 0)
(6.20545 -0.0650165 0)
(5.98878 -0.0669755 0)
(5.77452 -0.0690548 0)
(0.0535807 -0.177457 -7.38857e-21)
(0.139109 -0.175355 7.49821e-21)
(0.253198 -0.217526 0)
(0.377128 -0.268767 0)
(0.483468 -0.292998 0)
(0.546912 -0.283931 -1.07253e-20)
(0.533217 -0.228431 0)
(0.447228 -0.13078 0)
(0.272581 -0.0136871 0)
(-0.00427612 0.114982 0)
(-0.379776 0.255768 1.57292e-20)
(-0.842863 0.395315 0)
(-1.38213 0.520733 0)
(-1.97966 0.623153 0)
(-2.61615 0.696431 0)
(-3.27139 0.737814 1.58624e-20)
(-3.92567 0.747524 0)
(-4.56067 0.727954 0)
(-5.16013 0.682923 0)
(-5.71015 0.617116 0)
(-6.19918 0.535627 0)
(-6.61805 0.443594 0)
(-6.96011 0.346129 0)
(-7.22045 0.248369 2.06362e-20)
(-7.39632 0.155038 -2.03111e-20)
(-7.4868 0.0704201 1.9635e-20)
(-7.49054 -0.00264213 1.84671e-20)
(-7.42755 -0.0651333 0)
(-7.29982 -0.120694 0)
(-7.11239 -0.171002 -1.23626e-20)
(-6.8695 -0.216852 -9.46022e-21)
(-6.57539 -0.258536 0)
(-6.23432 -0.296161 0)
(-5.85059 -0.329806 1.8681e-21)
(-5.42857 -0.359585 0)
(-4.97259 -0.385675 0)
(-4.48682 -0.40832 -1.73147e-20)
(-3.97521 -0.427813 0)
(-3.44146 -0.444453 -3.03545e-20)
(-2.88903 -0.458489 -7.58948e-20)
(-2.32101 -0.47003 0)
(-1.74037 -0.479018 0)
(-1.14921 -0.485169 0)
(-0.547928 -0.48827 0)
(0.0666837 -0.48938 0)
(0.695671 -0.490213 -1.41813e-19)
(1.33446 -0.491509 -1.31002e-19)
(1.97967 -0.494253 -1.20965e-19)
(2.62889 -0.498394 0)
(3.27843 -0.496686 1.02822e-19)
(3.91791 -0.463677 0)
(4.52148 -0.348953 -8.88142e-20)
(5.02437 -0.10922 -8.46876e-20)
(5.29881 0.210411 0)
(5.27824 0.480621 0)
(5.01437 0.60683 0)
(4.57503 0.576692 -8.01748e-20)
(4.05663 0.43933 0)
(3.54247 0.274109 0)
(3.09108 0.138116 0)
(2.71056 0.0587134 0)
(2.38185 0.0442046 0)
(2.07949 0.0581584 0)
(1.79325 0.0668319 0)
(1.54524 0.0484889 0)
(1.38817 -0.0020942 7.93503e-20)
(1.36717 -0.0817079 0)
(1.51679 -0.158422 0)
(1.83106 -0.196559 -7.02362e-20)
(2.23631 -0.174134 -6.85706e-20)
(2.62226 -0.103428 0)
(2.90411 -0.0264101 6.57256e-20)
(3.0686 0.017281 -6.44021e-20)
(3.16374 0.0147538 0)
(3.23158 -0.0463877 6.26479e-20)
(3.24394 -0.156065 0)
(3.09793 -0.192561 0)
(2.62128 -0.00122803 -6.11726e-20)
(1.68174 0.389656 0)
(0.327851 0.754014 5.05894e-20)
(-1.223 0.932493 0)
(-2.78077 0.97072 -1.03321e-20)
(-4.25724 0.921006 5.64176e-21)
(-5.59057 0.822371 1.90104e-20)
(-6.75099 0.70247 6.01747e-20)
(-7.73093 0.578681 -7.82936e-20)
(-8.53568 0.460582 0)
(-9.17654 0.35275 0)
(-9.66665 0.256941 0)
(-10.0191 0.17376 -1.19003e-19)
(-10.2453 0.103671 -1.22721e-19)
(-10.3579 0.0460984 1.24154e-19)
(-10.3682 -0.000213069 0)
(-10.3049 -0.0377297 -1.19242e-19)
(-10.1715 -0.0712262 -1.13594e-19)
(-9.97314 -0.102402 -1.05926e-19)
(-9.71261 -0.131956 0)
(-9.39199 -0.160256 0)
(-9.01274 -0.187536 0)
(-8.57597 -0.213933 -5.59377e-20)
(-8.08264 -0.239479 0)
(-7.53384 -0.264081 0)
(-6.93105 -0.287505 -1.91856e-21)
(-6.27655 -0.309365 0)
(-5.57376 -0.329142 0)
(-4.82767 -0.346204 -7.81533e-20)
(-4.04513 -0.359838 0)
(-3.23516 -0.369254 0)
(-2.40868 -0.373663 1.72722e-19)
(-1.57742 -0.372624 2.0816e-19)
(-0.750635 -0.366008 0)
(0.063146 -0.351713 -2.60215e-19)
(0.854942 -0.331195 0)
(1.61675 -0.309381 2.30424e-19)
(2.33675 -0.286195 0)
(3.00922 -0.261633 1.99361e-19)
(3.63017 -0.236096 1.84852e-19)
(4.19637 -0.209976 0)
(4.70553 -0.183583 0)
(5.15619 -0.157221 0)
(5.54757 -0.131245 0)
(5.87965 -0.105521 0)
(6.1521 -0.079711 0)
(6.3634 -0.0560144 0)
(6.51929 -0.0314388 1.06083e-19)
(6.60874 0.0112122 -1.0159e-19)
(6.57767 0.0733596 0)
(6.42249 0.143614 0)
(6.14776 0.210128 0)
(5.7618 0.263152 0)
(5.28164 0.294359 -1.88188e-19)
(4.73518 0.296841 0)
(4.15907 0.268498 1.92018e-19)
(3.59375 0.216695 -1.9421e-19)
(3.07842 0.154161 0)
(2.64506 0.0831392 0)
(2.29292 0.0176411 0)
(2.03025 -0.023398 2.03285e-19)
(1.84849 -0.0468823 2.05932e-19)
(1.73423 -0.0579961 0)
(1.67328 -0.0600721 2.10964e-19)
(1.64902 -0.056595 2.13013e-19)
(1.64519 -0.0511583 -2.14607e-19)
(1.65011 -0.0455628 0)
(1.65776 -0.0416759 0)
(1.66643 -0.0400153 -2.17061e-19)
(1.67644 -0.040021 0)
(1.68921 -0.0406789 0)
(1.70626 -0.0414698 0)
(1.72911 -0.0423827 0)
(1.75945 -0.0433812 2.17236e-19)
(1.79896 -0.0440222 2.16918e-19)
(1.84887 -0.0433218 0)
(1.90892 -0.0400409 2.16056e-19)
(1.97718 -0.033941 0)
(2.05482 -0.0279806 0)
(2.15473 -0.0273799 2.13627e-19)
(2.30152 -0.0324618 0)
(2.5006 -0.0356313 2.1085e-19)
(2.67295 -0.0315214 0)
(2.60575 0.020778 0)
(1.90233 0.220025 1.98456e-19)
(0.210272 0.491626 0)
(-1.84452 0.556683 9.43391e-20)
(-3.58628 0.439058 0)
(-4.82144 0.273799 0)
(-5.52517 0.125007 0)
(-5.75046 0.010052 4.25014e-20)
(-5.58778 -0.0771832 0)
(-5.1329 -0.147332 -1.03624e-20)
(-4.41165 -0.207859 0)
(-3.47284 -0.254877 0)
(-2.38281 -0.283422 0)
(-1.2199 -0.291425 0)
(-0.0619796 -0.273502 0)
(1.02329 -0.237761 0)
(1.98381 -0.195197 0)
(2.76143 -0.154475 -4.08773e-19)
(3.37638 -0.104996 0)
(3.72887 -0.0350522 0)
(-0.0326366 -0.220963 1.70752e-20)
(-0.0835823 -0.263226 -1.7564e-20)
(-0.133705 -0.296204 0)
(-0.257346 -0.213229 1.23204e-20)
(-0.463364 -0.0365514 0)
(-0.758266 0.200249 9.10335e-21)
(-1.13717 0.468821 -1.6257e-20)
(-1.5975 0.745984 -1.70303e-20)
(-2.12904 1.01676 0)
(-2.71369 1.26623 -1.8323e-20)
(-3.32925 1.47882 -8.65933e-21)
(-3.95567 1.64377 0)
(-4.57216 1.75398 0)
(-5.16078 1.80696 0)
(-5.70701 1.80454 0)
(-6.20023 1.75201 -1.08478e-20)
(-6.63375 1.65684 0)
(-7.00447 1.52744 3.27738e-20)
(-7.31233 1.37209 0)
(-7.55948 1.1983 0)
(-7.74971 1.01241 -4.02832e-20)
(-7.88754 0.819544 0)
(-7.97774 0.623856 4.34191e-20)
(-8.0251 0.429061 -1.89192e-20)
(-8.0333 0.238761 1.8943e-20)
(-8.00501 0.0565537 -1.84797e-20)
(-7.94266 -0.114644 -1.73821e-20)
(-7.82876 -0.274001 0)
(-7.66315 -0.422331 0)
(-7.4453 -0.559686 1.15431e-20)
(-7.17693 -0.685792 -1.2903e-20)
(-6.86102 -0.80026 0)
(-6.50135 -0.9028 0)
(-6.10223 -0.993358 -1.71136e-21)
(-5.66816 -1.07217 0)
(-5.20365 -1.1398 0)
(-4.71307 -1.19707 1.5539e-20)
(-4.20045 -1.24507 0)
(-3.66943 -1.28504 -2.26903e-20)
(-3.12316 -1.31822 6.6051e-20)
(-2.56426 -1.34571 0)
(-1.99485 -1.36828 0)
(-1.41664 -1.38623 2.1246e-19)
(-0.830771 -1.3995 2.49065e-19)
(-0.237789 -1.40873 2.65706e-19)
(0.365783 -1.41442 -1.21225e-19)
(0.97864 -1.41543 1.23425e-19)
(1.59768 -1.40969 3.36595e-19)
(2.21815 -1.39446 -2.06637e-19)
(2.83255 -1.36475 -9.9786e-20)
(3.43528 -1.30892 0)
(4.02899 -1.20073 8.63651e-20)
(4.63859 -0.994987 -7.55525e-20)
(5.31761 -0.650893 0)
(6.03302 -0.185871 0)
(6.63384 0.302321 0)
(7.00636 0.705839 5.96515e-20)
(7.09157 0.963053 0)
(6.87518 1.06171 -1.085e-19)
(6.3975 1.03256 0)
(5.74565 0.937988 -1.14615e-19)
(5.01256 0.836753 0)
(4.27925 0.750727 1.22398e-19)
(3.60123 0.650159 0)
(3.02514 0.480633 -1.27258e-19)
(2.59489 0.209254 6.30372e-20)
(2.36665 -0.137767 0)
(2.35235 -0.481229 1.23226e-19)
(2.53968 -0.725654 6.1644e-20)
(2.88324 -0.790639 6.07017e-20)
(3.28765 -0.675951 0)
(3.65297 -0.472977 5.79699e-20)
(3.91255 -0.297331 5.83987e-20)
(4.01832 -0.201394 0)
(3.82249 -0.0603206 -5.93206e-20)
(3.04171 0.381657 1.24421e-19)
(1.53049 1.15781 0)
(-0.441298 1.92995 5.45797e-20)
(-2.43549 2.41249 0)
(-4.25112 2.5993 -6.9793e-20)
(-5.78237 2.54442 0)
(-7.00941 2.33264 3.53774e-21)
(-7.95382 2.04161 -4.08801e-21)
(-8.65625 1.72693 2.96543e-20)
(-9.16525 1.4224 7.61019e-20)
(-9.52704 1.14449 -9.11045e-20)
(-9.78003 0.898252 0)
(-9.95332 0.682459 0)
(-10.0673 0.493291 0)
(-10.1352 0.326703 3.65911e-19)
(-10.1654 0.179862 1.23148e-19)
(-10.1592 0.0505434 -1.25345e-19)
(-10.1152 -0.0635758 0)
(-10.0102 -0.165239 -1.27454e-19)
(-9.84555 -0.258819 1.14051e-19)
(-9.62151 -0.34653 1.06088e-19)
(-9.33941 -0.429635 0)
(-9.00057 -0.508983 0)
(-8.60606 -0.585177 0)
(-8.15665 -0.658594 5.53619e-20)
(-7.653 -0.729313 0)
(-7.09584 -0.797048 -4.48817e-20)
(-6.48634 -0.86109 -1.36152e-21)
(-5.82643 -0.920286 -4.20646e-20)
(-5.11925 -0.973071 0)
(-4.36958 -1.01758 -6.81274e-20)
(-3.58412 -1.05187 0)
(-2.7717 -1.07431 -2.58838e-19)
(-1.94328 -1.08406 1.57015e-19)
(-1.11068 -1.08062 1.89896e-19)
(-0.283601 -1.06106 0)
(0.529208 -1.02398 6.68239e-19)
(1.31927 -0.973851 -4.24123e-19)
(2.07642 -0.917061 -2.03779e-19)
(2.79177 -0.854553 0)
(3.46013 -0.787453 -1.80666e-19)
(4.07775 -0.717219 -5.04336e-19)
(4.64188 -0.645139 0)
(5.1507 -0.572277 -2.9259e-19)
(5.60327 -0.499529 -2.7317e-19)
(5.99932 -0.42767 -2.55283e-19)
(6.33896 -0.357173 0)
(6.62355 -0.288123 0)
(6.8561 -0.221008 0)
(7.03301 -0.152969 9.98238e-20)
(7.16819 -0.0746786 9.70328e-20)
(7.3127 0.0132964 0)
(7.46202 0.110552 1.73866e-19)
(7.59797 0.211713 1.66073e-19)
(7.69434 0.311615 0)
(7.72524 0.403317 1.56569e-19)
(7.6719 0.476303 3.00497e-19)
(7.52732 0.519947 -1.48729e-19)
(7.29865 0.527561 -1.44374e-19)
(7.0057 0.497928 0)
(6.66979 0.439897 0)
(6.32349 0.369387 0)
(5.98789 0.294678 -1.4809e-19)
(5.67643 0.22179 1.52591e-19)
(5.3942 0.157402 3.11509e-19)
(5.1403 0.106378 -1.59292e-19)
(4.91101 0.0704341 1.6428e-19)
(4.7028 0.0481274 1.67371e-19)
(4.51234 0.0364139 0)
(4.33571 0.0309535 0)
(4.16937 0.0277855 -1.77091e-19)
(4.01093 0.024455 0)
(3.85978 0.0199294 0)
(3.7165 0.0139092 3.69566e-19)
(3.58242 0.00628134 0)
(3.45912 -0.00298675 1.89561e-19)
(3.34834 -0.0138593 -1.91769e-19)
(3.25202 -0.0261172 0)
(3.1722 -0.0389535 1.96042e-19)
(3.11156 -0.0520083 0)
(3.07761 -0.0702587 0)
(3.09156 -0.103885 -1.9762e-19)
(3.18492 -0.147946 3.93371e-19)
(3.34533 -0.150929 -1.97491e-19)
(3.40533 -0.00248318 0)
(2.75781 0.458719 0)
(0.652901 1.18059 1.67445e-19)
(-1.909 1.5427 0)
(-3.72387 1.38934 5.13006e-20)
(-4.76387 1.00658 0)
(-5.28968 0.612905 0)
(-5.51747 0.276819 0)
(-5.54626 0.00104997 -4.26792e-20)
(-5.3588 -0.23203 0)
(-4.89217 -0.43539 1.01063e-20)
(-4.17002 -0.612513 0)
(-3.23225 -0.751196 0)
(-2.14253 -0.835674 2.21337e-19)
(-0.977728 -0.857939 -3.17656e-19)
(0.183262 -0.812006 0)
(1.27092 -0.715667 0)
(2.23269 -0.597957 0)
(3.03633 -0.472737 1.15041e-18)
(3.66404 -0.337056 0)
(4.11471 -0.172744 -7.37425e-19)
(-0.118786 0.109252 -5.66824e-21)
(-0.348846 0.110821 1.29137e-20)
(-0.643236 0.236341 0)
(-1.03655 0.500862 -1.57395e-20)
(-1.49898 0.831593 0)
(-2.01383 1.19352 0)
(-2.56489 1.55727 8.65329e-22)
(-3.13445 1.89792 1.25394e-20)
(-3.70282 2.19508 1.48871e-20)
(-4.25137 2.4323 1.42044e-20)
(-4.76547 2.5988 0)
(-5.2355 2.69021 0)
(-5.65709 2.70771 -2.46567e-20)
(-6.03108 2.65738 -5.50773e-20)
(-6.36221 2.54877 6.11105e-20)
(-6.65744 2.39322 0)
(-6.92417 2.20219 7.35025e-20)
(-7.16853 1.98598 -3.12652e-20)
(-7.39423 1.75296 0)
(-7.60183 1.50932 9.03687e-20)
(-7.78881 1.25925 3.91245e-20)
(-7.95 1.00542 -9.82743e-20)
(-8.0783 0.749426 -4.22709e-20)
(-8.16572 0.492302 0)
(-8.2049 0.235159 1.0147e-19)
(-8.18992 -0.020642 9.82877e-20)
(-8.11755 -0.273785 0)
(-7.98739 -0.52057 8.51344e-20)
(-7.80082 -0.756327 0)
(-7.55997 -0.977534 6.61561e-20)
(-7.2679 -1.18148 2.07711e-20)
(-6.92856 -1.36623 0)
(-6.54661 -1.53056 0)
(-6.12717 -1.67397 0)
(-5.67558 -1.79667 0)
(-5.19718 -1.89948 0)
(-4.6971 -1.98381 0)
(-4.18008 -2.05153 -5.97573e-20)
(-3.65033 -2.10492 1.26311e-19)
(-3.11137 -2.14649 0)
(-2.56598 -2.17883 0)
(-2.01616 -2.2044 0)
(-1.46348 -2.22531 -1.43434e-20)
(-0.908995 -2.24303 -2.18919e-19)
(-0.352724 -2.25817 -4.61043e-19)
(0.207726 -2.2705 4.56542e-19)
(0.77371 -2.27776 2.09591e-19)
(1.34543 -2.27559 -2.10892e-19)
(1.92272 -2.25711 1.12449e-20)
(2.50338 -2.21283 -1.76263e-19)
(3.08192 -2.13211 0)
(3.65072 -2.00613 -1.55868e-19)
(4.20507 -1.82675 7.43833e-21)
(4.75656 -1.57434 0)
(5.34088 -1.21134 0)
(5.99545 -0.702262 1.18366e-19)
(6.67853 -0.0718022 0)
(7.24681 0.570821 0)
(7.57299 1.11746 -8.22618e-20)
(7.58789 1.50275 -1.73724e-19)
(7.29616 1.71439 9.39087e-20)
(6.76582 1.77777 0)
(6.10133 1.72537 -9.6596e-20)
(5.4077 1.5648 0)
(4.76819 1.27404 -9.43216e-20)
(4.2291 0.822367 -1.04941e-19)
(3.82495 0.22465 2.17292e-19)
(3.60046 -0.413651 1.06199e-19)
(3.5719 -0.934431 0)
(3.71594 -1.18182 -2.15625e-19)
(3.93845 -1.11213 0)
(4.10252 -0.820109 -3.39179e-19)
(4.04731 -0.411124 -2.30952e-19)
(3.4763 0.224403 -2.38723e-19)
(2.12999 1.25415 2.52822e-19)
(0.156754 2.50606 -3.28192e-19)
(-1.90966 3.48243 0)
(-3.71532 4.03255 0)
(-5.1263 4.1691 6.0871e-20)
(-6.14946 3.99192 5.81545e-20)
(-6.85158 3.60725 0)
(-7.3325 3.12105 3.16609e-21)
(-7.68629 2.61738 0)
(-7.98037 2.14785 -1.72117e-19)
(-8.25114 1.7351 3.01108e-20)
(-8.50992 1.38202 -2.53934e-20)
(-8.75265 1.0813 2.19759e-19)
(-8.96854 0.82226 0)
(-9.14569 0.594592 -2.6093e-19)
(-9.27383 0.389717 1.51117e-20)
(-9.34596 0.201261 0)
(-9.35845 0.0251768 0)
(-9.31047 -0.141345 0)
(-9.20339 -0.299424 2.56091e-19)
(-9.0389 -0.448739 0)
(-8.81816 -0.590168 0)
(-8.54234 -0.724806 0)
(-8.2125 -0.853707 0)
(-7.8294 -0.977769 0)
(-7.39349 -1.0976 1.28856e-19)
(-6.90496 -1.21335 0)
(-6.36401 -1.32454 4.50815e-20)
(-5.77121 -1.42993 3.23839e-21)
(-5.1279 -1.52749 4.18764e-20)
(-4.43667 -1.61441 0)
(-3.70197 -1.68729 1.41609e-19)
(-2.93059 -1.74263 0)
(-2.13178 -1.77767 2.53276e-19)
(-1.31694 -1.79082 -3.13341e-19)
(-0.497281 -1.78064 -1.08843e-18)
(0.316206 -1.74346 0)
(1.11323 -1.68158 -1.14016e-18)
(1.88472 -1.60196 -3.58959e-19)
(2.62045 -1.50894 0)
(3.31329 -1.40538 -6.75867e-19)
(3.95823 -1.2941 -6.4271e-19)
(4.55171 -1.17772 9.17612e-19)
(5.09125 -1.05843 0)
(5.5752 -0.938038 2.74334e-19)
(6.00271 -0.818086 2.57957e-19)
(6.37362 -0.699827 7.21285e-19)
(6.68848 -0.584362 0)
(6.9486 -0.472591 0)
(7.15645 -0.364059 0)
(7.31523 -0.258788 1.90423e-19)
(7.42577 -0.161364 0)
(7.4936 -0.0715102 0)
(7.53395 0.0187472 -1.73633e-19)
(7.56435 0.113429 -1.66652e-19)
(7.6037 0.213865 0)
(7.66193 0.317532 0)
(7.73458 0.416264 -2.97322e-19)
(7.80441 0.497892 0)
(7.84894 0.550696 2.77886e-19)
(7.84908 0.568748 2.69846e-19)
(7.79408 0.55288 0)
(7.68404 0.509158 0)
(7.52775 0.447736 -2.67847e-19)
(7.33821 0.37994 1.73252e-21)
(7.12732 0.315856 1.55316e-21)
(6.90468 0.262472 0)
(6.6778 0.222798 -5.77469e-19)
(6.45196 0.19605 0)
(6.22984 0.178606 0)
(6.01188 0.166495 0)
(5.79748 0.156749 3.13705e-19)
(5.5858 0.147592 0)
(5.37623 0.13797 -6.50516e-19)
(5.16837 0.127151 -3.31143e-19)
(4.9621 0.114603 0)
(4.75754 0.0999597 -3.43498e-19)
(4.55539 0.0830157 0)
(4.35697 0.0640571 0)
(4.16317 0.04423 -1.09284e-18)
(3.97468 0.0227716 7.41999e-19)
(3.80152 -0.0118851 0)
(3.67537 -0.0796463 7.61635e-19)
(3.62596 -0.161764 -3.82519e-19)
(3.58366 -0.114832 0)
(3.21102 0.335777 0)
(1.76447 1.35141 0)
(-0.753835 2.34281 -8.5566e-19)
(-2.5833 2.4646 0)
(-3.56383 1.97656 -1.22037e-19)
(-4.18138 1.35178 0)
(-4.65846 0.807129 0)
(-4.9714 0.356851 0)
(-5.05474 -0.0332527 0)
(-4.87901 -0.390288 0)
(-4.44433 -0.719561 0)
(-3.76251 -1.00959 -4.54566e-20)
(-2.86683 -1.23827 0)
(-1.81698 -1.3788 -2.10011e-19)
(-0.689201 -1.41354 8.66619e-19)
(0.436155 -1.33992 0)
(1.48937 -1.18717 0)
(2.4197 -0.998014 -7.24814e-19)
(3.19549 -0.794747 -7.28058e-19)
(3.81792 -0.58043 7.10395e-19)
(4.29169 -0.348321 7.13592e-19)
(-0.188284 0.776403 -6.74956e-21)
(-0.571474 0.882663 -7.99082e-21)
(-1.02482 1.14739 -6.6465e-21)
(-1.5387 1.52277 -4.65799e-21)
(-2.08044 1.92664 0)
(-2.63304 2.32233 1.81485e-20)
(-3.17639 2.67987 -1.39285e-20)
(-3.69401 2.97765 0)
(-4.17405 3.20223 -1.33397e-20)
(-4.61069 3.34783 0)
(-5.00442 3.41588 4.791e-20)
(-5.361 3.41327 0)
(-5.68974 3.35017 2.36208e-20)
(-6.00097 3.23786 5.31718e-20)
(-6.30368 3.0866 -5.9237e-20)
(-6.6036 2.90423 0)
(-6.9021 2.69565 -7.12714e-20)
(-7.19623 2.46317 0)
(-7.47945 2.20744 0)
(-7.74293 1.92862 -8.72442e-20)
(-7.97691 1.62733 0)
(-8.17192 1.3054 -2.18589e-20)
(-8.31963 0.966141 0)
(-8.41315 0.614055 0)
(-8.4481 0.254489 2.27761e-20)
(-8.42149 -0.106386 -9.58139e-20)
(-8.33224 -0.463009 -1.11474e-19)
(-8.18043 -0.809365 -8.2549e-20)
(-7.96775 -1.13971 0)
(-7.69723 -1.44889 -1.46801e-19)
(-7.37311 -1.73269 0)
(-7.00055 -1.98793 -5.74317e-20)
(-6.58542 -2.21263 0)
(-6.13394 -2.40597 0)
(-5.65252 -2.56824 1.12515e-20)
(-5.14747 -2.70068 0)
(-4.62483 -2.80541 2.39075e-20)
(-4.09023 -2.88523 1.4415e-20)
(-3.54872 -2.9435 -1.38529e-19)
(-3.0046 -2.98404 1.64175e-19)
(-2.4613 -3.01091 0)
(-1.92133 -3.0282 0)
(-1.38635 -3.03974 1.29555e-19)
(-0.857074 -3.04866 0)
(-0.332972 -3.05702 2.05054e-19)
(0.188282 -3.06554 -2.05602e-19)
(0.709141 -3.07194 -1.97478e-19)
(1.23189 -3.07197 0)
(1.7596 -3.05816 1.79496e-19)
(2.29569 -3.0185 1.6999e-19)
(2.84289 -2.93632 -2.98175e-19)
(3.40121 -2.79315 1.51158e-19)
(3.96468 -2.57557 1.42349e-19)
(4.52083 -2.28204 0)
(5.05872 -1.91958 0)
(5.58548 -1.48052 -1.19034e-19)
(6.13277 -0.921285 0)
(6.72137 -0.20278 0)
(7.27505 0.610137 1.8032e-19)
(7.66343 1.38028 1.66361e-19)
(7.7946 1.98512 0)
(7.6493 2.35954 0)
(7.27671 2.49013 0)
(6.76251 2.38636 0)
(6.19355 2.05738 1.63156e-19)
(5.63503 1.50858 -1.74827e-19)
(5.13515 0.764917 -1.89783e-19)
(4.73346 -0.0863872 -3.96689e-19)
(4.47447 -0.840037 0)
(4.34605 -1.2366 -6.34119e-21)
(4.2333 -1.12465 0)
(3.93237 -0.539108 2.37969e-19)
(3.10232 0.518489 1.10615e-21)
(1.52721 2.03427 2.37055e-19)
(-0.506534 3.61947 -1.94047e-19)
(-2.40118 4.77687 2.81937e-20)
(-3.8838 5.36344 0)
(-4.9135 5.44136 -4.52069e-20)
(-5.56116 5.14541 -5.7634e-20)
(-5.95521 4.63481 9.26126e-22)
(-6.22343 4.03975 0)
(-6.46193 3.45147 -9.58109e-20)
(-6.71948 2.91641 0)
(-7.0045 2.44638 2.97838e-19)
(-7.30285 2.0348 -1.67642e-19)
(-7.59359 1.66944 2.00146e-19)
(-7.85769 1.33903 -2.28884e-19)
(-8.08114 1.03521 -5.52862e-19)
(-8.25489 0.752533 2.73754e-19)
(-8.3736 0.487506 -2.89361e-19)
(-8.43506 0.237866 0)
(-8.43846 0.00197959 6.35214e-19)
(-8.38452 -0.221797 0)
(-8.27437 -0.43443 5.91412e-19)