/*--------------------------------*- C++ -*----------------------------------*\
  =========                 |
  \\      /  F ield         | OpenFOAM: The Open Source CFD Toolbox
   \\    /   O peration     | Website:  https://openfoam.org
    \\  /    A nd           | Version:  9
     \\/     M anipulation  |
\*---------------------------------------------------------------------------*/
FoamFile
{
    format      ascii;
    class       volScalarField;
    location    "0.05";
    object      k;
}
// * * * * * * * * * * * * * * * * * * * * * * * * * * * * * * * * * * * * * //

dimensions      [0 2 -2 0 0 0 0];

internalField   nonuniform List<scalar> 
12225
(
0.353921
0.335043
0.316967
0.300962
0.28813
0.278917
0.273318
0.271038
0.271623
0.274555
0.279323
0.285457
0.292552
0.300272
0.308362
0.31661
0.325047
0.337723
0.436865
0.448982
0.438093
0.433081
0.438829
0.453664
0.474929
0.500177
0.527421
0.555176
0.582413
0.608468
0.632962
0.655725
0.676848
0.696245
0.715665
0.732894
0.395186
0.410872
0.41063
0.405748
0.402017
0.400939
0.402643
0.406855
0.413156
0.421087
0.430216
0.440164
0.45062
0.461342
0.472185
0.483028
0.494089
0.505039
0.379641
0.384839
0.386545
0.38573
0.383906
0.38203
0.380574
0.379751
0.379625
0.380177
0.381344
0.383045
0.385198
0.387728
0.390583
0.393723
0.397164
0.400868
0.374976
0.3759
0.376239
0.37572
0.374569
0.373083
0.371496
0.369967
0.368596
0.367431
0.366493
0.365782
0.365288
0.364997
0.364895
0.364974
0.365231
0.365651
0.373488
0.372554
0.371758
0.370806
0.369629
0.368273
0.366806
0.365297
0.3638
0.362354
0.360987
0.359711
0.358535
0.357462
0.356492
0.355624
0.354859
0.354194
0.373012
0.371296
0.369812
0.368415
0.367023
0.365607
0.364164
0.362706
0.361251
0.359816
0.358416
0.357063
0.355762
0.354521
0.353342
0.352227
0.351179
0.350205
0.372865
0.370838
0.369004
0.367309
0.365709
0.364171
0.362675
0.36121
0.359775
0.358372
0.357004
0.355674
0.354386
0.353143
0.351947
0.350799
0.349703
0.348668
0.37282
0.37068
0.368691
0.366835
0.365093
0.363446
0.361875
0.36037
0.35892
0.357521
0.35617
0.354865
0.353605
0.352389
0.351218
0.350091
0.349011
0.347988
0.372806
0.370628
0.368577
0.366647
0.364827
0.363108
0.361478
0.359928
0.35845
0.357036
0.355681
0.354382
0.353135
0.351938
0.350788
0.349684
0.348627
0.347627
0.372801
0.370609
0.368536
0.366575
0.364719
0.362961
0.361295
0.359713
0.358209
0.356776
0.355409
0.354104
0.352857
0.351665
0.350524
0.349432
0.348389
0.347404
0.372799
0.370603
0.368522
0.366549
0.364679
0.362905
0.361221
0.359622
0.358102
0.356656
0.355278
0.353965
0.352713
0.351519
0.350378
0.349289
0.34825
0.34727
0.372797
0.370599
0.368514
0.366536
0.36466
0.362878
0.361185
0.359577
0.358048
0.356592
0.355207
0.353887
0.35263
0.351431
0.350288
0.349198
0.348158
0.347179
0.372796
0.370596
0.368509
0.366528
0.364648
0.362862
0.361165
0.359552
0.358017
0.356557
0.355166
0.353842
0.35258
0.351377
0.35023
0.349137
0.348095
0.347115
0.372795
0.370594
0.368505
0.366523
0.36464
0.362852
0.361153
0.359537
0.357999
0.356536
0.355142
0.353815
0.35255
0.351345
0.350196
0.3491
0.348056
0.347072
0.372795
0.370592
0.368502
0.366518
0.364634
0.362845
0.361144
0.359526
0.357987
0.356522
0.355127
0.353798
0.352532
0.351325
0.350174
0.349076
0.34803
0.347046
0.372794
0.37059
0.368499
0.366515
0.36463
0.362839
0.361137
0.359518
0.357978
0.356512
0.355116
0.353786
0.352519
0.351311
0.350159
0.349061
0.348014
0.347028
0.372794
0.37059
0.368498
0.366512
0.364627
0.362835
0.361132
0.359513
0.357972
0.356505
0.355109
0.353779
0.352511
0.351303
0.35015
0.349052
0.348004
0.347018
0.372793
0.370589
0.368497
0.366512
0.364626
0.362834
0.361131
0.359512
0.357971
0.356504
0.355107
0.353777
0.352509
0.351301
0.350149
0.34905
0.348003
0.347018
0.372794
0.37059
0.368498
0.366513
0.364628
0.362837
0.361134
0.359515
0.357975
0.356509
0.355113
0.353784
0.352517
0.35131
0.350158
0.34906
0.348014
0.347029
0.372794
0.370591
0.3685
0.366516
0.364632
0.362842
0.361141
0.359524
0.357986
0.356521
0.355128
0.3538
0.352535
0.351329
0.35018
0.349084
0.34804
0.347057
0.372795
0.370592
0.368504
0.366523
0.364642
0.362857
0.36116
0.359549
0.358016
0.356558
0.35517
0.353848
0.352588
0.351388
0.350243
0.349152
0.348111
0.347131
0.372796
0.370598
0.368518
0.366548
0.364682
0.362914
0.361237
0.359645
0.358132
0.356691
0.355319
0.354011
0.352762
0.35157
0.350431
0.349343
0.348303
0.347323
0.372804
0.37063
0.368592
0.366677
0.364873
0.363168
0.36155
0.360009
0.358537
0.357127
0.355775
0.354477
0.353231
0.352034
0.350884
0.349781
0.348723
0.347721
0.372855
0.370818
0.368973
0.367265
0.365646
0.364087
0.36257
0.361086
0.359636
0.358219
0.35684
0.355502
0.354207
0.352958
0.351758
0.350606
0.349504
0.348464
0.373166
0.37177
0.370579
0.369371
0.36805
0.366607
0.365074
0.363495
0.361909
0.360347
0.358831
0.357377
0.355996
0.354693
0.353472
0.352332
0.351274
0.350303
0.374797
0.37583
0.376175
0.3754
0.373833
0.371876
0.369791
0.367738
0.365811
0.364062
0.362516
0.361183
0.360059
0.359134
0.358395
0.357826
0.357409
0.357132
0.382729
0.391672
0.392378
0.388808
0.384386
0.380401
0.377241
0.374985
0.373599
0.373004
0.373104
0.373799
0.374994
0.376602
0.378542
0.380745
0.383151
0.385692
0.407499
0.414512
0.405419
0.395983
0.390536
0.389257
0.391397
0.396123
0.402701
0.410538
0.419182
0.428294
0.437619
0.446969
0.45621
0.465247
0.474035
0.48249
0.360554
0.347547
0.334933
0.322917
0.311964
0.30235
0.294184
0.287459
0.282096
0.277975
0.274958
0.272906
0.271684
0.271166
0.271239
0.271801
0.272766
0.27405
0.0927245
0.14187
0.176233
0.200069
0.216575
0.227833
0.235101
0.239191
0.240664
0.239919
0.237235
0.232782
0.226639
0.218973
0.211103
0.202967
0.19425
0.184831
0.174808
0.16464
0.155469
0.149603
0.15062
0.161913
0.183813
0.212445
0.242013
0.267319
0.288844
0.315683
0.348922
0.389388
0.43562
0.485603
0.537499
0.589878
0.64171
0.692275
0.741083
0.787807
0.832245
0.87429
0.913912
0.95114
0.986051
1.01875
1.04938
1.07807
1.10497
1.13023
1.154
1.17639
1.19753
1.21752
1.23646
1.25444
1.27153
1.28779
1.30329
1.31807
1.33217
1.34562
1.35847
1.37072
1.38241
1.39355
1.40414
1.4142
1.42373
1.43273
1.44121
1.44916
1.45657
1.46344
1.46976
1.47553
1.48073
1.48535
1.48939
1.49284
1.49569
1.49792
1.49954
1.50054
1.50091
1.50065
1.49977
1.49827
1.49615
1.49342
1.4901
1.4862
1.48175
1.47677
1.47129
1.46535
1.45901
1.45233
1.4454
1.43832
1.43126
1.42443
1.41771
1.41089
1.40402
1.39711
1.3902
1.3833
1.37642
1.36955
1.3627
1.35583
1.34892
1.34194
1.33482
1.3275
1.3199
1.31192
1.30342
1.29429
1.28433
1.27337
1.26119
1.24754
1.23216
1.21475
1.19501
1.17263
1.14732
1.11882
1.08699
1.05191
1.01424
0.976378
0.944968
0.923366
0.901458
0.877557
0.851896
0.824956
0.797261
0.769321
0.741591
0.71446
0.688237
0.663157
0.639382
0.617008
0.596081
0.5766
0.55853
0.541808
0.52635
0.512058
0.498819
0.486465
0.474771
0.463605
0.452859
0.442414
0.432243
0.422357
0.412785
0.403556
0.394695
0.38622
0.378141
0.370455
0.363152
0.356212
0.349604
0.343285
0.337202
0.331283
0.325434
0.319519
0.313363
0.3066
0.299028
0.28857
0.209299
0.282841
0.331377
0.364671
0.387252
0.401826
0.410123
0.41341
0.412703
0.40883
0.402455
0.39408
0.384041
0.372498
0.35929
0.344722
0.329545
0.314902
0.30262
0.295777
0.299515
0.321176
0.367229
0.437736
0.524288
0.615064
0.699689
0.766521
0.822143
0.872666
0.922252
0.973496
1.0279
1.08614
1.1483
1.21411
1.28308
1.35449
1.42752
1.50123
1.57472
1.64713
1.71775
1.78602
1.85156
1.91412
1.97362
2.03004
2.08346
2.13401
2.18185
2.22714
2.27005
2.31075
2.3494
2.38612
2.42106
2.45432
2.48602
2.51622
2.54502
2.57247
2.59863
2.62355
2.64727
2.6698
2.69117
2.71141
2.73051
2.74848
2.76531
2.78101
2.79556
2.80894
2.82115
2.83216
2.84196
2.85053
2.85784
2.86387
2.86862
2.87205
2.87416
2.87494
2.87437
2.87246
2.8692
2.86461
2.85869
2.85146
2.84295
2.8332
2.82225
2.81014
2.79694
2.7827
2.76751
2.75146
2.73462
2.71711
2.69904
2.68055
2.66198
2.64329
2.62457
2.60593
2.58749
2.56935
2.55162
2.53438
2.51773
2.50173
2.48642
2.47186
2.45803
2.44492
2.43249
2.42064
2.40924
2.39811
2.387
2.37561
2.36356
2.35039
2.33555
2.31842
2.29828
2.27437
2.24586
2.21194
2.17187
2.12506
2.07121
2.01025
1.94456
1.87636
1.80327
1.72584
1.64523
1.5627
1.47958
1.39705
1.31619
1.23787
1.16277
1.09136
1.02396
0.960733
0.901718
0.846862
0.796045
0.749101
0.705834
0.666033
0.629481
0.595964
0.565273
0.537137
0.511574
0.488821
0.468687
0.450917
0.435247
0.421417
0.40918
0.398307
0.388593
0.379858
0.371947
0.364733
0.358116
0.352019
0.346398
0.341236
0.336555
0.332442
0.329049
0.326935
0.326166
0.333246
0.277257
0.353731
0.403807
0.438795
0.463161
0.4795
0.489399
0.494013
0.494312
0.491162
0.485352
0.477601
0.468558
0.458849
0.448502
0.437828
0.427736
0.420057
0.418187
0.427758
0.456578
0.512243
0.596811
0.70463
0.819559
0.920975
1.0047
1.07129
1.12658
1.17753
1.22993
1.28767
1.35284
1.42596
1.50646
1.5931
1.68434
1.7785
1.87396
1.96927
2.06322
2.15487
2.24352
2.32875
2.4103
2.4881
2.56218
2.63264
2.69964
2.76336
2.82401
2.88177
2.93684
2.98937
3.03955
3.08751
3.1334
3.17731
3.21937
3.25966
3.29827
3.33526
3.37068
3.4046
3.43703
3.46802
3.49759
3.52574
3.55249
3.57783
3.60175
3.62424
3.64529
3.66487
3.68296
3.69952
3.71454
3.72797
3.73977
3.74993
3.75839
3.76514
3.77014
3.77336
3.77478
3.77437
3.77214
3.76806
3.76214
3.75438
3.74481
3.73345
3.72034
3.70553
3.68908
3.67107
3.6516
3.63076
3.60868
3.58547
3.56128
3.53621
3.51051
3.48416
3.45723
3.42985
3.40214
3.37424
3.34627
3.31837
3.29065
3.26323
3.23622
3.20969
3.18373
3.15838
3.13365
3.10952
3.08593
3.06275
3.03981
3.01682
2.99345
2.96923
2.9436
2.91586
2.88522
2.85075
2.81144
2.76625
2.71413
2.65416
2.58559
2.50812
2.42555
2.33728
2.24287
2.14328
2.03993
1.93443
1.82838
1.72331
1.62053
1.52114
1.42596
1.3356
1.25042
1.17059
1.09615
1.02699
0.962938
0.903763
0.849194
0.798945
0.752729
0.710261
0.67122
0.635204
0.601889
0.57103
0.542795
0.51705
0.493644
0.472416
0.453201
0.435831
0.420144
0.40598
0.39319
0.381631
0.371171
0.361691
0.353083
0.345254
0.338129
0.331671
0.325863
0.320902
0.316798
0.315774
0.329049
0.404353
0.457573
0.49591
0.522967
0.541212
0.552353
0.557707
0.5584
0.555465
0.549893
0.542665
0.534782
0.527337
0.520458
0.515048
0.512622
0.515888
0.529413
0.559744
0.614449
0.699238
0.805943
0.920999
1.03048
1.12423
1.20038
1.26278
1.31839
1.37441
1.43625
1.50694
1.58733
1.6767
1.77348
1.87573
1.98152
2.08908
2.19692
2.30379
2.40875
2.51108
2.61028
2.70605
2.79821
2.8867
2.97154
3.05281
3.13062
3.20512
3.27645
3.34478
3.41026
3.47304
3.53326
3.59106
3.64656
3.69988
3.75111
3.80036
3.8477
3.8932
3.93693
3.97894
4.01926
4.05793
4.09497
4.1304
4.16423
4.19644
4.22704
4.25601
4.28332
4.30896
4.33289
4.35508
4.37548
4.39407
4.41079
4.4256
4.43846
4.44933
4.45816
4.46491
4.46956
4.47206
4.47239
4.47054
4.46649
4.46023
4.45177
4.44113
4.42833
4.41341
4.39642
4.37742
4.35648
4.33369
4.30913
4.2829
4.25509
4.22582
4.19521
4.16333
4.13024
4.09605
4.06091
4.02492
3.98823
3.95097
3.91327
3.87527
3.83708
3.79884
3.76064
3.72257
3.6847
3.64708
3.60968
3.57248
3.53535
3.49811
3.46049
3.4221
3.38244
3.34087
3.2966
3.24872
3.19617
3.13783
3.0725
2.99906
2.91647
2.82639
2.73024
2.62722
2.51775
2.40304
2.28466
2.16435
2.0439
1.92493
1.80891
1.69699
1.59008
1.48878
1.39346
1.30427
1.22121
1.14412
1.07279
1.00692
0.9462
0.890285
0.838839
0.791527
0.748008
0.707923
0.670934
0.636725
0.605085
0.575973
0.549222
0.524678
0.502192
0.48162
0.462822
0.445662
0.430009
0.415737
0.402727
0.390867
0.380051
0.370185
0.361183
0.352987
0.345554
0.338947
0.333128
0.328786
0.376845
0.45382
0.511542
0.553428
0.583068
0.603055
0.61526
0.621165
0.622067
0.619195
0.61378
0.60711
0.600601
0.595435
0.592324
0.592849
0.599303
0.615242
0.646076
0.696196
0.768751
0.861992
0.967371
1.07348
1.17075
1.25444
1.32552
1.38896
1.45125
1.51809
1.59313
1.67775
1.7716
1.87326
1.98091
2.09271
2.20699
2.32232
2.43754
2.55172
2.66413
2.7742
2.88155
2.98586
3.08697
3.18475
3.27916
3.37021
3.45795
3.54244
3.62378
3.70208
3.77745
3.85
3.91986
3.98713
4.05194
4.11438
4.17455
4.23255
4.28846
4.34234
4.39427
4.44429
4.49246
4.5388
4.58335
4.62612
4.66713
4.70636
4.74382
4.77949
4.81335
4.84537
4.87552
4.90375
4.93004
4.95432
4.97655
4.99669
5.01467
5.03045
5.04398
5.0552
5.06406
5.07054
5.07457
5.07614
5.07522
5.07178
5.06581
5.0573
5.04628
5.03274
5.01671
4.99823
4.97734
4.95408
4.9285
4.90068
4.87069
4.83859
4.80448
4.76838
4.73039
4.69062
4.64917
4.60616
4.56171
4.51594
4.46897
4.42093
4.37195
4.32215
4.27165
4.22055
4.16896
4.11693
4.06451
4.01172
3.95853
3.90482
3.85042
3.79504
3.7383
3.67967
3.61845
3.55384
3.48486
3.41041
3.32927
3.24034
3.14397
3.0415
2.93227
2.81632
2.6944
2.56781
2.4382
2.30735
2.17708
2.04905
1.92471
1.80523
1.69146
1.58397
1.48306
1.38883
1.30121
1.21999
1.1449
1.07559
1.0117
0.95286
0.898697
0.848847
0.802956
0.760676
0.721676
0.685646
0.652284
0.621461
0.593006
0.566761
0.542575
0.520309
0.499829
0.481008
0.463724
0.447862
0.433312
0.419968
0.407734
0.396519
0.386243
0.376845
0.368276
0.360546
0.353608
0.347723
0.42278
0.505193
0.568478
0.61439
0.646998
0.669109
0.682749
0.689561
0.691017
0.688557
0.683674
0.677999
0.673396
0.670624
0.671531
0.678306
0.693633
0.720764
0.763117
0.82288
0.899661
0.989384
1.08484
1.17836
1.26461
1.34217
1.41332
1.48254
1.55462
1.63319
1.72009
1.81554
1.91863
2.02794
2.14191
2.25909
2.37821
2.49821
2.61821
2.73749
2.85548
2.97168
3.08571
3.19729
3.30616
3.41216
3.51517
3.61513
3.712
3.80579
3.89653
3.98426
4.06906
4.151
4.23017
4.30667
4.38057
4.45198
4.52098
4.58766
4.6521
4.71436
4.77452
4.83263
4.88874
4.94288
4.99508
5.04537
5.09376
5.14024
5.18482
5.22747
5.26819
5.30693
5.34367
5.37836
5.41095
5.4414
5.46965
5.49564
5.51932
5.54061
5.55947
5.57583
5.58963
5.60082
5.60934
5.61514
5.61818
5.61841
5.61581
5.61036
5.60202
5.59079
5.57666
5.55964
5.53973
5.51695
5.49133
5.46289
5.43168
5.39776
5.36108
5.32171
5.27974
5.23527
5.18839
5.13919
5.08775
5.03418
4.97858
4.92105
4.8617
4.80065
4.738
4.67385
4.60831
4.54146
4.47335
4.40406
4.33361
4.26197
4.18906
4.11467
4.03859
3.96045
3.87968
3.79566
3.70758
3.61444
3.51507
3.4101
3.29964
3.1832
3.0606
2.93222
2.79894
2.66212
2.5234
2.38457
2.2474
2.11351
1.98425
1.8607
1.7436
1.63341
1.53032
1.43433
1.34527
1.26286
1.18674
1.11654
1.05184
0.992234
0.937329
0.886744
0.840118
0.79711
0.757401
0.720689
0.686679
0.655168
0.625985
0.598972
0.573982
0.550878
0.529533
0.509826
0.491641
0.474873
0.459416
0.445175
0.43206
0.419985
0.408875
0.398669
0.389316
0.380798
0.373059
0.366212
0.466463
0.557076
0.626899
0.677749
0.714203
0.739256
0.755105
0.763578
0.766334
0.765022
0.761383
0.75733
0.754622
0.754359
0.758758
0.770205
0.791209
0.82418
0.870889
0.931652
1.00466
1.08599
1.17054
1.25379
1.33327
1.40913
1.48362
1.55996
1.64108
1.72889
1.82404
1.92624
2.03455
2.14783
2.2649
2.38471
2.50634
2.62901
2.75204
2.87486
2.99697
3.11793
3.23736
3.35494
3.47039
3.58348
3.69403
3.80191
3.90701
4.00927
4.10865
4.20517
4.29882
4.38965
4.47772
4.56307
4.64579
4.72594
4.80359
4.87883
4.95171
5.02232
5.09071
5.15693
5.22103
5.28305
5.34302
5.40096
5.45689
5.5108
5.5627
5.61256
5.66037
5.70609
5.7497
5.79113
5.83035
5.8673
5.90192
5.93414
5.96389
5.99111
6.01573
6.03767
6.05687
6.07325
6.08674
6.09727
6.1048
6.10924
6.11056
6.1087
6.10361
6.09526
6.08362
6.06865
6.05034
6.02866
6.00362
5.97522
5.94346
5.9084
5.86983
5.82787
5.78263
5.73416
5.68254
5.62782
5.57007
5.50934
5.44572
5.37927
5.31008
5.23823
5.16382
5.08693
5.00765
4.92603
4.84216
4.7561
4.66795
4.57776
4.4855
4.39105
4.29432
4.19525
4.09327
3.98803
3.87911
3.76531
3.64806
3.52632
3.39976
3.26816
3.13165
2.99076
2.84651
2.70029
2.55373
2.40858
2.26651
2.12901
1.99732
1.87232
1.75459
1.64442
1.54185
1.44672
1.35874
1.27754
1.20267
1.13368
1.07013
1.01158
0.957597
0.907805
0.861839
0.819364
0.780075
0.743688
0.709931
0.67856
0.649417
0.622354
0.597232
0.573922
0.552305
0.532268
0.513707
0.49652
0.480615
0.465903
0.452299
0.439727
0.428117
0.417408
0.407549
0.398505
0.390218
0.382731
0.507293
0.607274
0.684453
0.741069
0.782149
0.810999
0.830012
0.84116
0.846247
0.847071
0.845518
0.843636
0.842298
0.843687
0.850057
0.863665
0.886602
0.920509
0.966166
1.02309
1.08938
1.16207
1.23795
1.31454
1.39084
1.46739
1.54577
1.62788
1.71525
1.8087
1.90831
2.01366
2.124
2.2385
2.35635
2.4768
2.5992
2.72295
2.84754
2.97249
3.09734
3.22171
3.3452
3.46747
3.58821
3.70714
3.82404
3.9387
4.05097
4.16071
4.26785
4.37233
4.47411
4.57319
4.66958
4.76331
4.85441
4.94295
5.02896
5.11252
5.19367
5.27248
5.34899
5.42327
5.49534
5.56525
5.63301
5.69867
5.76221
5.82365
5.88298
5.94017
5.99522
6.04809
6.09872
6.14709
6.19313
6.23678
6.27798
6.31665
6.35272
6.3861
6.41673
6.44451
6.46937
6.49121
6.50995
6.52551
6.53781
6.54677
6.55231
6.55435
6.55284
6.54771
6.53889
6.52633
6.50999
6.48981
6.46577
6.43783
6.40598
6.37019
6.33021
6.28619
6.23819
6.18627
6.13046
6.07079
6.0073
5.94001
5.86896
5.79419
5.71574
5.63366
5.54805
5.45896
5.36643
5.27052
5.17127
5.06873
4.96304
4.85439
4.74275
4.62802
4.51016
4.38968
4.26582
4.13827
4.00844
3.87527
3.73879
3.59868
3.45481
3.30722
3.15627
3.00272
2.84766
2.69255
2.53902
2.38873
2.24323
2.10386
1.97164
1.84723
1.731
1.62301
1.52309
1.43092
1.34606
1.268
1.19622
1.13019
1.06942
1.01342
0.961763
0.914054
0.869931
0.82907
0.791181
0.755999
0.723273
0.692764
0.664325
0.637821
0.61313
0.590135
0.56873
0.548815
0.530295
0.513082
0.497092
0.482245
0.468467
0.455688
0.443845
0.43288
0.422743
0.413391
0.404766
0.396878
0.542883
0.652759
0.738168
0.801399
0.847936
0.881398
0.904398
0.919059
0.927286
0.930936
0.931921
0.931704
0.931681
0.934102
0.941169
0.954945
0.977186
1.0091
1.05108
1.10259
1.16215
1.22779
1.29756
1.3701
1.44493
1.5224
1.60334
1.68867
1.77904
1.87471
1.97555
2.08119
2.1911
2.30472
2.42152
2.54098
2.66263
2.78604
2.91079
3.03647
3.16269
3.28905
3.41519
3.54076
3.66541
3.78884
3.91077
4.03096
4.1492
4.26532
4.37917
4.49065
4.59968
4.70621
4.81022
4.91169
5.01063
5.10707
5.20103
5.29255
5.38167
5.46843
5.55288
5.63504
5.71496
5.79267
5.86818
5.9415
6.01266
6.08163
6.14842
6.21299
6.27533
6.3354
6.39315
6.44853
6.50148
6.55193
6.59981
6.64504
6.68753
6.7272
6.76395
6.7977
6.82833
6.85576
6.87989
6.90061
6.91782
6.93143
6.94133
6.94745
6.94968
6.94793
6.94212
6.93217
6.91801
6.89956
6.87677
6.84958
6.81794
6.78166
6.7406
6.69488
6.64452
6.58957
6.53003
6.4659
6.39717
6.32386
6.24595
6.16345
6.07635
5.98469
5.88853
5.78793
5.68288
5.5734
5.45948
5.34112
5.21847
5.09196
4.96155
4.82705
4.68802
4.5465
4.40175
4.2538
4.10308
3.94947
3.79306
3.63389
3.47213
3.30814
3.14255
2.97631
2.81069
2.64719
2.48745
2.33304
2.18537
2.04554
1.91433
1.79215
1.67909
1.57496
1.47936
1.39179
1.31162
1.23822
1.17097
1.10926
1.05253
1.00029
0.952073
0.907483
0.866164
0.827803
0.792126
0.758888
0.727858
0.698819
0.671644
0.646218
0.622434
0.600196
0.579411
0.559994
0.541865
0.524949
0.509174
0.494471
0.480777
0.46803
0.456175
0.445159
0.434935
0.425457
0.416671
0.408571
0.571756
0.691851
0.78573
0.855856
0.908174
0.946654
0.97414
0.992883
1.00484
1.01182
1.01565
1.0172
1.01858
1.02191
1.02923
1.0424
1.06298
1.09201
1.12987
1.17624
1.23019
1.29047
1.35585
1.42546
1.49891
1.57621
1.65763
1.74347
1.83392
1.92898
2.02849
2.13218
2.23971
2.35075
2.46494
2.58195
2.70147
2.82315
2.94666
3.07166
3.1978
3.32472
3.45205
3.57944
3.70655
3.83304
3.95861
4.08297
4.20589
4.32715
4.44655
4.56396
4.67924
4.79231
4.90309
5.01155
5.11765
5.22139
5.32276
5.42177
5.51845
5.61282
5.70489
5.7947
5.88225
5.96757
6.05068
6.13156
6.21023
6.28666
6.36085
6.43277
6.50238
6.56964
6.63449
6.69689
6.75675
6.81401
6.86859
6.92039
6.96933
7.0153
7.0582
7.09793
7.13437
7.16742
7.19695
7.22285
7.24501
7.26331
7.27763
7.28786
7.29388
7.29558
7.29287
7.28562
7.27375
7.25716
7.23576
7.20948
7.17821
7.14161
7.09971
7.05257
7.00019
6.94256
6.87966
6.81148
6.73799
6.65915
6.57492
6.48527
6.39015
6.28952
6.18353
6.07217
5.95541
5.83324
5.7056
5.57235
5.43343
5.29002
5.14185
4.98892
4.83141
4.67009
4.50509
4.33671
4.16534
3.99131
3.81496
3.6367
3.45705
3.27673
3.09667
2.91809
2.74242
2.57126
2.40622
2.24876
2.10009
1.96109
1.83224
1.71364
1.60509
1.50613
1.41613
1.33435
1.26003
1.19238
1.13069
1.07427
1.02252
0.974901
0.930942
0.890238
0.852439
0.817247
0.784404
0.753684
0.724871
0.697789
0.672331
0.648403
0.625918
0.604797
0.584966
0.566358
0.548908
0.532555
0.517242
0.502913
0.489515
0.476998
0.465313
0.454416
0.444264
0.434813
0.426012
0.417851
0.592918
0.722874
0.824954
0.901722
0.959631
1.00308
1.03517
1.05826
1.07434
1.08517
1.09177
1.09589
1.09945
1.10437
1.11251
1.12555
1.14494
1.17167
1.20624
1.24859
1.29822
1.35433
1.41611
1.48286
1.55415
1.62973
1.70954
1.79353
1.88169
1.97392
2.07009
2.17005
2.27361
2.38058
2.49078
2.60399
2.72001
2.8386
2.95949
3.08239
3.207
3.33298
3.46
3.5877
3.71575
3.84381
3.97155
4.09867
4.22489
4.34997
4.47368
4.59584
4.71627
4.83485
4.95147
5.06605
5.17852
5.28884
5.39698
5.50291
5.60664
5.70815
5.80745
5.90455
5.99943
6.0921
6.18257
6.27081
6.35681
6.44056
6.52202
6.60117
6.67794
6.7523
6.82419
6.89353
6.96024
7.02425
7.08547
7.14379
7.19912
7.25134
7.30034
7.34601
7.38821
7.42682
7.46172
7.49276
7.51983
7.54278
7.56148
7.57581
7.58561
7.59077
7.59115
7.58663
7.5771
7.56242
7.5425
7.51723
7.48631
7.44957
7.40705
7.35872
7.30456
7.24456
7.17865
7.10679
7.02894
6.94503
6.855
6.75879
6.65627
6.54721
6.4321
6.31077
6.18315
6.0492
5.90889
5.76219
5.60922
5.45042
5.28589
5.11581
4.94049
4.76046
4.57614
4.38804
4.19674
4.00288
3.80713
3.6103
3.4133
3.21722
3.02337
2.83323
2.64846
2.47071
2.30156
2.14232
1.99398
1.85711
1.73186
1.61803
1.5151
1.42232
1.33883
1.2637
1.19599
1.1348
1.07932
1.0288
0.982596
0.940138
0.900946
0.864614
0.830799
0.799217
0.769625
0.741816
0.715586
0.690811
0.667404
0.645289
0.624397
0.60467
0.586052
0.568494
0.551948
0.536369
0.521714
0.507941
0.495009
0.482879
0.471513
0.460872
0.450921
0.441621
0.432927
0.424825
0.604277
0.74406
0.854115
0.936924
0.999788
1.04773
1.08416
1.11156
1.13189
1.14655
1.1569
1.16469
1.17163
1.17941
1.18969
1.20397
1.22357
1.24946
1.2822
1.32194
1.36844
1.42122
1.47968
1.54324
1.61141
1.68385
1.76029
1.8406
1.92465
2.01235
2.10363
2.19843
2.29666
2.39827
2.50318
2.6113
2.72252
2.83668
2.95357
3.07295
3.19456
3.3181
3.44327
3.56975
3.6972
3.8253
3.9537
4.0821
4.21021
4.33773
4.46443
4.59008
4.71448
4.83746
4.95888
5.07862
5.19658
5.31267
5.42683
5.53901
5.64917
5.75728
5.86331
5.96724
6.06905
6.16871
6.26621
6.36152
6.45461
6.54543
6.63396
6.72013
6.8039
6.8852
6.96396
7.0401
7.11353
7.18417
7.2519
7.31663
7.37823
7.43659
7.49158
7.54307
7.59092
7.635
7.67516
7.71125
7.74314
7.77066
7.79367
7.81201
7.82554
7.83411
7.83756
7.83574
7.82853
7.81578
7.79736
7.77306
7.74257
7.70585
7.66285
7.61353
7.55784
7.49572
7.42709
7.3519
7.27007
7.18151
7.08616
6.98392
6.87468
6.75837
6.63507
6.50471
6.36724
6.2226
6.07077
5.91176
5.74567
5.57273
5.39312
5.2071
5.01505
4.81747
4.61495
4.40818
4.19797
3.98526
3.77109
3.55665
3.34329
3.13254
2.92609
2.72573
2.53329
2.35048
2.17879
2.01934
1.87283
1.73948
1.6191
1.51113
1.41475
1.32895
1.25262
1.18467
1.12402
1.06966
1.02071
0.97637
0.93596
0.898898
0.8647
0.832961
0.803349
0.775593
0.749468
0.724779
0.70134
0.679083
0.657933
0.637832
0.61873
0.600584
0.583358
0.56702
0.55154
0.536887
0.523035
0.509954
0.497617
0.485995
0.475059
0.464782
0.455134
0.446081
0.437588
0.429641
0.601657
0.753588
0.872352
0.960448
1.02727
1.07889
1.11913
1.15057
1.17505
1.19398
1.20898
1.22156
1.23321
1.24537
1.25946
1.27677
1.29843
1.3253
1.35796
1.39663
1.44123
1.49146
1.54688
1.607
1.67138
1.73965
1.81154
1.88687
1.96552
2.04747
2.13269
2.22118
2.31295
2.40803
2.50648
2.60829
2.71344
2.82187
2.93348
3.04796
3.16509
3.28469
3.40648
3.53019
3.6555
3.78209
3.90963
4.03781
4.16632
4.29487
4.42318
4.55101
4.67813
4.80433
4.92943
5.05328
5.17573
5.29668
5.41602
5.53367
5.64955
5.76359
5.87575
5.98597
6.0942
6.20039
6.30451
6.40649
6.5063
6.60388
6.69916
6.79209
6.88258
6.97057
7.05598
7.1387
7.21864
7.29569
7.36975
7.44068
7.50838
7.5727
7.6335
7.69065
7.74399
7.79338
7.83865
7.87965
7.91621
7.94817
7.97537
7.99762
8.01478
8.02667
8.03311
8.03396
8.02905
8.01823
8.00129
7.97792
7.948
7.91144
7.86815
7.81806
7.76109
7.69714
7.62614
7.54799
7.4626
7.36988
7.26973
7.16206
7.04676
6.92375
6.79299
6.65443
6.50798
6.35359
6.19123
6.02089
5.84265
5.65666
5.46312
5.26231
5.05466
4.84071
4.62119
4.39695
4.16905
3.93872
3.7074
3.47671
3.24846
3.02463
2.80732
2.5986
2.40046
2.21461
2.04238
1.8846
1.74162
1.6133
1.49906
1.398
1.30899
1.23077
1.16205
1.10158
1.04817
1.00075
0.958372
0.920218
0.885591
0.853908
0.824685
0.79753
0.772125
0.748213
0.725585
0.704054
0.683471
0.663807
0.645001
0.627006
0.609788
0.593322
0.577588
0.562571
0.548254
0.534625
0.521668
0.50937
0.497715
0.486684
0.47626
0.466422
0.45715
0.448418
0.440196
0.432474
0.58568
0.753345
0.881275
0.972942
1.0422
1.09638
1.13964
1.17461
1.20312
1.22685
1.24722
1.26555
1.28311
1.30108
1.32061
1.34272
1.36831
1.39807
1.43246
1.47168
1.51573
1.56439
1.61734
1.67421
1.73465
1.79835
1.86509
1.93476
2.00725
2.08263
2.1611
2.24254
2.32691
2.41447
2.50538
2.59974
2.6976
2.79897
2.90378
3.01191
3.12319
3.23743
3.35442
3.47391
3.59559
3.71919
3.84439
3.97087
4.09833
4.22647
4.355
4.48365
4.61217
4.74033
4.86791
4.99473
5.12061
5.2454
5.36897
5.49118
5.61194
5.73114
5.8487
5.96453
6.07855
6.19069
6.30087
6.40903
6.51509
6.61897
6.7206
6.81989
6.91675
7.01109
7.10281
7.1918
7.27796
7.36115
7.44126
7.51816
7.5917
7.66174
7.72813
7.79072
7.84934
7.90383
7.95402
7.99974
8.04081
8.07705
8.10828
8.13432
8.15498
8.17008
8.17944
8.18288
8.18022
8.17125
8.15569
8.13336
8.10412
8.06785
8.02443
7.97375
7.91571
7.85019
7.7771
7.69632
7.60775
7.51128
7.4068
7.29419
7.17335
7.04418
6.90658
6.76048
6.60578
6.44242
6.27033
6.08951
5.89999
5.70188
5.4954
5.28084
5.05866
4.82948
4.59414
4.35369
4.10943
3.86292
3.61601
3.37079
3.12956
2.89477
2.66889
2.45426
2.25294
2.06652
1.89609
1.74214
1.60459
1.48288
1.37605
1.28286
1.20192
1.13174
1.0709
1.01801
0.971826
0.931237
0.895273
0.863109
0.834054
0.807534
0.783082
0.760324
0.738958
0.718748
0.699496
0.681014
0.663233
0.646126
0.62964
0.613744
0.598418
0.58365
0.569435
0.555771
0.542657
0.530095
0.518081
0.506613
0.495688
0.485297
0.475433
0.466083
0.457235
0.448871
0.44097
0.433521
0.593516
0.758503
0.884443
0.975598
1.04541
1.101
1.14649
1.18457
1.2172
1.24594
1.27211
1.29686
1.3212
1.34609
1.37236
1.40077
1.43193
1.46628
1.50411
1.54554
1.5905
1.63884
1.69031
1.74464
1.80159
1.86095
1.92264
1.98674
2.05274
2.12096
2.19165
2.26499
2.34119
2.42046
2.50303
2.58908
2.67874
2.77208
2.8691
2.96978
3.074
3.18165
3.29254
3.40645
3.52314
3.64235
3.76378
3.88714
4.01212
4.13843
4.26578
4.39388
4.52246
4.65127
4.78007
4.90864
5.03678
5.16429
5.29101
5.41678
5.54145
5.66489
5.78698
5.90759
6.02663
6.14398
6.25955
6.37323
6.48492
6.59453
6.70195
6.80708
6.90981
7.01003
7.10762
7.20246
7.29442
7.38337
7.46916
7.55166
7.6307
7.70614
7.77781
7.84554
7.90916
7.96849
8.02334
8.07354
8.11889
8.15919
8.19426
8.2239
8.2479
8.26608
8.27822
8.28414
8.28361
8.27637
8.26222
8.24098
8.21249
8.1766
8.13315
8.08203
8.02309
7.95621
7.88127
7.79813
7.70668
7.60679
7.49834
7.38119
7.25524
7.12034
6.9764
6.8233
6.66093
6.48919
6.30802
6.11738
5.91729
5.70785
5.48926
5.26184
5.02609
4.78274
4.53274
4.27736
4.01818
3.75714
3.4965
3.23887
2.98706
2.74397
2.51241
2.29487
2.09337
1.90927
1.74329
1.59547
1.4653
1.35177
1.25355
1.16909
1.09677
1.03494
0.982069
0.936708
0.897581
0.863568
0.833709
0.807197
0.783364
0.761661
0.741649
0.722976
0.705366
0.6886
0.672494
0.656863
0.641734
0.627052
0.61278
0.598897
0.585395
0.572274
0.559543
0.547211
0.535289
0.523789
0.512722
0.502095
0.491914
0.482181
0.472896
0.464057
0.455658
0.447689
0.440135
0.432991
0.631223
0.771911
0.883452
0.96955
1.03802
1.09413
1.14144
1.18253
1.21931
1.25328
1.28563
1.31734
1.34922
1.38196
1.41611
1.4521
1.49026
1.53075
1.57363
1.61886
1.66631
1.71578
1.76707
1.81999
1.87449
1.93014
1.98679
2.04465
2.10385
2.16466
2.22739
2.29235
2.35986
2.43024
2.50378
2.58074
2.66132
2.74567
2.83388
2.92599
3.02197
3.12176
3.22522
3.3322
3.44249
3.55587
3.67207
3.79083
3.91186
4.03488
4.15958
4.28569
4.41292
4.54101
4.66969
4.79872
4.92786
5.05689
5.18562
5.31384
5.44138
5.56807
5.69375
5.81826
5.94147
6.06324
6.18343
6.30192
6.41858
6.53328
6.6459
6.75631
6.86438
6.96998
7.07298
7.17322
7.27056
7.36487
7.45597
7.54371
7.62793
7.70844
7.78508
7.85767
7.92601
7.98992
8.0492
8.10364
8.15305
8.19723
8.23595
8.26901
8.2962
8.3173
8.33209
8.34034
8.34181
8.33629
8.32357
8.30344
8.27572
8.24023
8.19681
8.1453
8.08555
8.01741
7.94074
7.85538
7.76121
7.65808
7.54585
7.42438
7.29352
7.15315
7.00311
6.84329
6.67354
6.49376
6.30386
6.10379
5.89357
5.67327
5.44312
5.20349
4.95494
4.6983
4.43472
4.16569
3.89314
3.61942
3.34728
3.07985
2.82045
2.57237
2.33865
2.12178
1.92356
1.745
1.58632
1.44706
1.32621
1.22235
1.13381
1.05879
0.995496
0.94218
0.897239
0.859226
0.826871
0.799082
0.774936
0.753665
0.73464
0.717351
0.701393
0.686444
0.672256
0.658631
0.645391
0.632401
0.619721
0.607293
0.595088
0.583093
0.57131
0.559751
0.548432
0.537375
0.526601
0.516131
0.505986
0.496182
0.486735
0.477655
0.46895
0.460624
0.45268
0.445115
0.43792
0.431093
0.626941
0.763955
0.871106
0.954384
1.02161
1.07789
1.12672
1.17059
1.21135
1.25041
1.28884
1.32745
1.36688
1.40756
1.4498
1.49376
1.53946
1.58683
1.63572
1.68591
1.73715
1.78923
1.84193
1.89488
1.94763
2.00029
2.05297
2.1059
2.15937
2.21374
2.26939
2.32674
2.3862
2.44816
2.513
2.58106
2.65261
2.72788
2.80704
2.8902
2.9774
3.06866
3.1639
3.26302
3.36588
3.4723
3.58205
3.6949
3.81061
3.92888
4.04946
4.17205
4.29638
4.42217
4.54914
4.67704
4.80561
4.9346
5.06378
5.19293
5.32183
5.45029
5.57812
5.70512
5.83114
5.95599
6.07953
6.20158
6.32201
6.44065
6.55735
6.67197
6.78436
6.89435
7.0018
7.10653
7.2084
7.30723
7.40285
7.49508
7.58374
7.66864
7.74961
7.82642
7.8989
7.96683
8.03001
8.08821
8.14122
8.18883
8.23081
8.26692
8.29695
8.32067
8.33784
8.34823
8.35159
8.34769
8.33631
8.31724
8.29026
8.25519
8.21183
8.16001
8.09955
8.03028
7.95204
7.86466
7.76799
7.66186
7.54612
7.4206
7.28515
7.13961
6.98382
6.81763
6.64088
6.45345
6.25524
6.04619
5.82631
5.59569
5.3546
5.10344
4.84291
4.57397
4.29799
4.01679
3.73266
3.44846
3.16747
2.89337