/*--------------------------------*- C++ -*----------------------------------*\
  =========                 |
  \\      /  F ield         | OpenFOAM: The Open Source CFD Toolbox
   \\    /   O peration     | Website:  https://openfoam.org
    \\  /    A nd           | Version:  9
     \\/     M anipulation  |
\*---------------------------------------------------------------------------*/
FoamFile
{
    format      ascii;
    class       volScalarField;
    location    "0.041";
    object      k;
}
// * * * * * * * * * * * * * * * * * * * * * * * * * * * * * * * * * * * * * //

dimensions      [0 2 -2 0 0 0 0];

internalField   nonuniform List<scalar> 
12225
(
2.01743e-05
3.93591e-05
0.000193112
0.000390136
0.000419566
0.000366559
0.000197414
9.25183e-05
4.53526e-05
2.80332e-05
2.47068e-05
2.68189e-05
4.30534e-05
7.02033e-05
7.50614e-05
7.97297e-05
0.0017068
0.0555333
2.00209e-05
2.24166e-05
3.87353e-05
7.69873e-05
9.10201e-05
9.00171e-05
7.43067e-05
4.90767e-05
3.40372e-05
2.61488e-05
2.30553e-05
2.26179e-05
2.33651e-05
2.62814e-05
3.65416e-05
4.61867e-05
0.000174193
0.00626664
2.00287e-05
1.91199e-05
1.93269e-05
2.03096e-05
2.06851e-05
2.03536e-05
1.86618e-05
1.69705e-05
1.61995e-05
1.61284e-05
1.6414e-05
1.69407e-05
1.74568e-05
1.82589e-05
2.04998e-05
2.33509e-05
3.18423e-05
0.00029709
2.00012e-05
1.99901e-05
1.99976e-05
1.98537e-05
1.97482e-05
1.95053e-05
1.87036e-05
1.8359e-05
1.82873e-05
1.81816e-05
1.784e-05
1.66154e-05
1.32986e-05
1.25691e-05
1.26578e-05
1.34047e-05
1.49985e-05
2.48909e-05
2.00124e-05
2.01204e-05
2.06801e-05
2.22661e-05
2.36588e-05
2.38268e-05
2.33816e-05
2.31572e-05
2.32994e-05
2.39606e-05
2.44147e-05
2.42668e-05
2.3056e-05
2.0459e-05
1.90109e-05
1.86747e-05
1.88267e-05
1.96778e-05
2.01006e-05
2.00756e-05
2.09378e-05
2.15526e-05
2.22439e-05
2.38695e-05
2.69989e-05
3.40445e-05
4.32996e-05
4.93949e-05
5.03911e-05
5.00085e-05
4.87598e-05
4.50859e-05
3.97236e-05
3.57794e-05
3.39948e-05
3.26107e-05
2.1262e-05
2.11103e-05
2.11387e-05
2.10816e-05
2.13626e-05
2.23875e-05
2.48758e-05
3.26302e-05
4.02788e-05
4.16431e-05
3.97266e-05
3.59899e-05
3.51775e-05
3.55169e-05
3.55018e-05
3.48515e-05
3.31054e-05
3.161e-05
2.13557e-05
2.18898e-05
2.42578e-05
2.39843e-05
2.19415e-05
2.16051e-05
2.18879e-05
2.36968e-05
2.5431e-05
2.63807e-05
2.77838e-05
3.14759e-05
4.14039e-05
4.68916e-05
4.75325e-05
4.66356e-05
4.40392e-05
4.07141e-05
2.23208e-05
2.16031e-05
2.3584e-05
2.63677e-05
2.49266e-05
2.20595e-05
2.11897e-05
2.11369e-05
2.13405e-05
2.1538e-05
2.18465e-05
2.28003e-05
2.59865e-05
3.30714e-05
3.77205e-05
3.94392e-05
4.04768e-05
4.20932e-05
2.2589e-05
2.26612e-05
2.67126e-05
2.756e-05
2.44403e-05
2.15827e-05
2.10288e-05
2.10755e-05
2.1322e-05
2.15466e-05
2.2294e-05
2.61184e-05
3.15608e-05
3.37805e-05
3.4786e-05
3.63499e-05
4.01742e-05
4.8008e-05
2.15982e-05
2.31793e-05
2.30219e-05
2.19003e-05
2.11739e-05
2.10864e-05
2.11896e-05
2.13171e-05
2.14489e-05
2.17332e-05
2.26538e-05
2.65904e-05
3.03297e-05
3.08005e-05
3.07079e-05
3.09592e-05
3.22371e-05
3.72042e-05
2.31553e-05
2.37797e-05
2.27225e-05
2.11311e-05
2.0633e-05
2.05839e-05
2.07893e-05
2.07857e-05
2.08087e-05
2.10392e-05
2.17941e-05
2.49712e-05
3.21637e-05
3.47602e-05
3.47287e-05
3.32414e-05
3.05689e-05
3.00606e-05
2.20606e-05
2.08447e-05
2.10353e-05
2.11179e-05
2.17951e-05
2.48936e-05
2.58513e-05
2.46864e-05
2.30931e-05
2.2683e-05
2.26959e-05
2.30962e-05
2.51368e-05
2.82715e-05
2.95343e-05
2.95479e-05
2.84166e-05
2.63978e-05
2.1035e-05
2.0591e-05
2.22599e-05
2.4474e-05
2.55474e-05
2.80865e-05
3.05611e-05
3.07244e-05
2.82812e-05
2.52887e-05
2.40177e-05
2.37226e-05
2.37919e-05
2.43523e-05
2.72565e-05
3.11679e-05
3.23184e-05
3.20376e-05
2.00526e-05
2.02301e-05
2.07417e-05
2.175e-05
2.46344e-05
2.74579e-05
2.80249e-05
2.75585e-05
2.51581e-05
2.29025e-05
2.2038e-05
2.18621e-05
2.19343e-05
2.25121e-05
2.49162e-05
3.08494e-05
3.5907e-05
3.82779e-05
2.06724e-05
2.03211e-05
2.03861e-05
2.06704e-05
2.12358e-05
2.18466e-05
2.30463e-05
2.62806e-05
2.94719e-05
3.06812e-05
3.05328e-05
2.86769e-05
2.59555e-05
2.49113e-05
2.47929e-05
2.50484e-05
2.56813e-05
2.61761e-05
2.03149e-05
2.12489e-05
2.12111e-05
2.09681e-05
2.09833e-05
2.11282e-05
2.12988e-05
2.16173e-05
2.23291e-05
2.45474e-05
3.06118e-05
3.43652e-05
3.50565e-05
3.47095e-05
3.28019e-05
3.01251e-05
2.84499e-05
2.7471e-05
2.02685e-05
2.03665e-05
2.04915e-05
2.09708e-05
2.12169e-05
2.12044e-05
2.10646e-05
2.10362e-05
2.1115e-05
2.15534e-05
2.27064e-05
2.38692e-05
2.49484e-05
2.58408e-05
2.63815e-05
2.65498e-05
2.65164e-05
2.61479e-05
2.03223e-05
2.04448e-05
2.07243e-05
2.23914e-05
2.45146e-05
2.50599e-05
2.49296e-05
2.39534e-05
2.28474e-05
2.21826e-05
2.18684e-05
2.18025e-05
2.18148e-05
2.19582e-05
2.26758e-05
2.40775e-05
2.48492e-05
2.50446e-05
2.00172e-05
2.02761e-05
2.06265e-05
2.08341e-05
2.09535e-05
2.11154e-05
2.13446e-05
2.15749e-05
2.17533e-05
2.18833e-05
2.19855e-05
2.20079e-05
2.19077e-05
2.16873e-05
2.16035e-05
2.1593e-05
2.16051e-05
2.17059e-05
2.06837e-05
2.1155e-05
2.11316e-05
2.09974e-05
2.07571e-05
2.06403e-05
2.0624e-05
2.06594e-05
2.09008e-05
2.19847e-05
2.29134e-05
2.31513e-05
2.31155e-05
2.28913e-05
2.27912e-05
2.28268e-05
2.32115e-05
2.52308e-05
2.48794e-05
2.59876e-05
2.3331e-05
2.09897e-05
2.07065e-05
2.0804e-05
2.09659e-05
2.10117e-05
2.10466e-05
2.11782e-05
2.16115e-05
2.18577e-05
2.18492e-05
2.15683e-05
2.11258e-05
2.09547e-05
2.09735e-05
2.13164e-05
2.13591e-05
2.14748e-05
2.2141e-05
2.29431e-05
2.30676e-05
2.29999e-05
2.27381e-05
2.20994e-05
2.15381e-05
2.11458e-05
2.09512e-05
2.09018e-05
2.08846e-05
2.08825e-05
2.09332e-05
2.11671e-05
2.2109e-05
2.46367e-05
2.01455e-05
2.12275e-05
2.45709e-05
3.12873e-05
3.1536e-05
2.65012e-05
2.26538e-05
2.15795e-05
2.13439e-05
2.13294e-05
2.14372e-05
2.17199e-05
2.17492e-05
2.17401e-05
2.18286e-05
2.21238e-05
2.2907e-05
2.50865e-05
2.17424e-05
3.08242e-05
3.2286e-05
2.92994e-05
2.86043e-05
2.72959e-05
2.37385e-05
2.168e-05
2.10881e-05
2.10097e-05
2.11028e-05
2.16919e-05
2.41769e-05
2.70645e-05
2.88521e-05
3.03546e-05
3.15376e-05
3.22927e-05
2.11721e-05
3.35187e-05
3.83192e-05
3.45695e-05
2.58736e-05
2.27429e-05
2.19183e-05
2.17718e-05
2.178e-05
2.19211e-05
2.25615e-05
2.49654e-05
2.70798e-05
2.77828e-05
2.77931e-05
2.7163e-05
2.5378e-05
2.44702e-05
2.09662e-05
2.2401e-05
2.21931e-05
2.0745e-05
2.00039e-05
1.98219e-05
1.97883e-05
1.98507e-05
2.00881e-05
2.06731e-05
2.14185e-05
2.19624e-05
2.21592e-05
2.21654e-05
2.21018e-05
2.18908e-05
2.12389e-05
2.06579e-05
2.00411e-05
1.84923e-05
1.49861e-05
1.32636e-05
1.2985e-05
1.30235e-05
1.32124e-05
1.36844e-05
1.43129e-05
1.48758e-05
1.51969e-05
1.52859e-05
1.5278e-05
1.51553e-05
1.47553e-05
1.43975e-05
1.41359e-05
1.39625e-05
2.03924e-05
2.55575e-05
2.8295e-05
2.80044e-05
2.62263e-05
2.56345e-05
2.59746e-05
2.85456e-05
3.48958e-05
4.03285e-05
4.39223e-05
4.52755e-05
4.52245e-05
4.41603e-05
4.02129e-05
3.44625e-05
3.00882e-05
2.70287e-05
3.53963e-05
0.000137277
0.000159396
0.000134273
8.40443e-05
7.2368e-05
7.75564e-05
0.000111392
0.000146717
0.000160487
0.000162622
0.000159711
0.000140977
9.8807e-05
6.77321e-05
4.83461e-05
3.78069e-05
3.33408e-05
0.0726801
0.0831572
0.084342
0.0872879
0.0881224
0.0864003
0.0888934
0.0999692
0.108367
0.107463
0.103229
0.0968359
0.092306
0.0884387
0.0859173
0.0841445
0.0830477
0.0829913
0.0830074
0.0830552
0.0833977
0.0835359
0.0835931
0.0835948
0.0829568
0.0833109
0.090739
0.154798
0.271626
0.3119
0.311377
0.204571
0.160504
0.145015
0.146635
0.14664
0.139511
0.158738
0.152158
0.137061
0.142042
0.162086
0.214354
0.280195
0.241923
0.176368
0.113423
0.0897585
0.0692041
0.0310823
0.0221358
0.0204972
0.020174
0.0177859
0.016227
0.0132845
0.0114999
0.00929378
0.00790754
0.00630584
0.00514668
0.00439108
0.00351665
0.00310447
0.00265289
0.00244994
0.00234975
0.00232149
0.00230923
0.00228664
0.00227874
0.00226221
0.00225182
0.00222985
0.00220895
0.00219663
0.00218045
0.00216763
0.00214213
0.00212809
0.00211712
0.00211193
0.00209999
0.00209291
0.0020883
0.00208279
0.00208184
0.00208528
0.00209379
0.002107
0.00212172
0.00213618
0.00214689
0.00215299
0.00215562
0.00215087
0.00213361
0.00211947
0.00210581
0.00208447
0.00206249
0.00204569
0.00202376
0.00200841
0.00199096
0.00197791
0.00196651
0.00195794
0.00195155
0.00194873
0.00195073
0.00195782
0.00197089
0.00198913
0.00201249
0.0020407
0.00207165
0.00209645
0.00211369
0.00212789
0.0021382
0.00214308
0.00214209
0.0021295
0.00210227
0.00207375
0.00205669
0.00203924
0.00200459
0.00194076
0.00185701
0.00178171
0.00173212
0.00168186
0.00157887
0.0014138
0.0011901
0.000911732
0.000655376
0.000499143
0.000451019
0.000456156
0.000518452
0.000558519
0.000540246
0.000419645
0.00027553
0.00019669
0.000158939
0.000133497
0.000107013
7.89403e-05
5.48499e-05
3.70732e-05
2.53484e-05
1.81123e-05
1.36704e-05
1.07636e-05
8.65202e-06
6.98043e-06
5.60658e-06
4.47847e-06
3.56595e-06
2.83924e-06
2.26342e-06
1.80732e-06
1.44187e-06
1.14831e-06
9.08576e-07
7.15076e-07
5.55359e-07
4.28325e-07
3.22726e-07
2.41842e-07
1.73911e-07
1.25503e-07
8.39703e-08
5.87885e-08
3.20784e-08
4.19722e-07
0.06921
0.0656563
0.0763378
0.104017
0.102158
0.0912566
0.0870788
0.0819904
0.0741483
0.065571
0.058256
0.0524296
0.0487815
0.046079
0.0443595
0.043301
0.0422983
0.0422959
0.0427634
0.0442361
0.0463171
0.050679
0.055141
0.0613731
0.0700841
0.0754437
0.080815
0.0936714
0.131964
0.24647
0.304266
0.217684
0.159824
0.152269
0.161805
0.158893
0.142323
0.123828
0.125085
0.123523
0.119141
0.127105
0.15249
0.201176
0.191803
0.146536
0.0769505
0.0423194
0.0298332
0.0162887
0.0116357
0.00971221
0.00764452
0.00634343
0.00539705
0.00459844
0.00421455
0.00383858
0.0036615
0.00348114
0.00339196
0.00328869
0.00323701
0.00322243
0.00321822
0.00321971
0.00321358
0.00317735
0.00311069
0.00304634
0.00300878
0.00298174
0.0029339
0.00285564
0.00276448
0.00269062
0.00263653
0.00257817
0.0025056
0.00246304
0.00244046
0.00242593
0.00242112
0.00242575
0.00246347
0.00253351
0.00262035
0.0027129
0.00280147
0.00288356
0.00295166
0.00298906
0.00301882
0.00304084
0.00304811
0.00304418
0.00300307
0.00296148
0.00291467
0.00287139
0.00281461
0.00273937
0.0026579
0.00257261
0.00247051
0.00236159
0.00224211
0.00211557
0.00198535
0.00187055
0.00177965
0.00170266
0.00163453
0.00157804
0.00153604
0.00151038
0.00150126
0.00151976
0.00158912
0.00168965
0.00181683
0.00196172
0.00209007
0.00216087
0.00217284
0.0021451
0.00208639
0.00206842
0.00207037
0.00208825
0.00215921
0.00223466
0.00226585
0.00227077
0.00226197
0.00220963
0.00212946
0.00207185
0.00203787
0.00201275
0.00196481
0.00184816
0.00168254
0.00150099
0.00131461
0.0011327
0.000964141
0.000814875
0.000685037
0.000571104
0.000472617
0.000389587
0.000320288
0.000264143
0.000220067
0.00018649
0.00016154
0.000143056
0.00012865
0.000116077
0.000103678
9.07651e-05
7.7527e-05
6.46991e-05
5.29973e-05
4.29164e-05
3.45259e-05
2.77468e-05
2.22558e-05
1.78825e-05
1.42774e-05
1.14136e-05
8.96009e-06
7.05398e-06
5.33181e-06
4.0498e-06
2.88429e-06
2.0723e-06
1.41463e-06
8.47165e-07
0.0821014
0.0800473
0.125216
0.122189
0.106773
0.0804897
0.0602164
0.0483926
0.0430342
0.0401808
0.0386082
0.0374309
0.0368318
0.0360896
0.0356293
0.0350083
0.0345608
0.0340888
0.033498
0.0333869
0.0335081
0.0339754
0.0350177
0.0372233
0.0408728
0.0494921
0.0567806
0.0676048
0.0798768
0.108334
0.20902
0.209566
0.189019
0.170477
0.165041
0.157377
0.114507
0.109916
0.124933
0.128277
0.128239
0.130394
0.14849
0.173756
0.121583
0.0547852
0.027139
0.0154668
0.0102024
0.00743192
0.00624895
0.00574541
0.00530863
0.00510886
0.00492016
0.00480261
0.00476038
0.00475811
0.0048512
0.00487813
0.00488921
0.00489154
0.00487953
0.00483194
0.00480808
0.00480199
0.00479413
0.00476726
0.004708
0.00463369
0.00459209
0.0045749
0.00454985
0.00449395
0.00442122
0.00436074
0.0043096
0.00423559
0.0041473
0.00408895
0.00403872
0.0039628
0.00387618
0.00382437
0.00377352
0.00369999
0.00362761
0.00354759
0.00349011
0.00347784
0.00349356
0.00359191
0.0037381
0.00382064
0.00385057
0.00384561
0.00371434
0.00358519
0.00351807
0.00338977
0.0033239
0.00329685
0.00331591
0.00336994
0.00341798
0.00344005
0.00345075
0.00344343
0.00340288
0.00329611
0.0031223
0.00289792
0.00263381
0.00233208
0.00200364
0.00169436
0.0014493
0.00127048
0.00113191
0.00104363
0.00100692
0.00100769
0.00107875
0.00125944
0.00138881
0.00141442
0.00135599
0.00126964
0.00127814
0.00136997
0.00147193
0.00151042
0.00152522
0.0015179
0.00143734
0.00122208
0.00109209
0.00105555
0.0010597
0.0011149
0.00123843
0.00129547
0.00130328
0.00129558
0.0012584
0.0011275
0.000929731
0.000767217
0.000641342
0.000544451
0.000466903
0.00040002
0.000338773
0.0002828
0.000235041
0.000197516
0.000169752
0.000149686
0.00013489
0.000123595
0.000114357
0.000106076
9.79102e-05
8.93543e-05
8.01473e-05
7.03823e-05
6.03865e-05
5.0712e-05
4.18598e-05
3.41724e-05
2.78116e-05
2.2629e-05
1.859e-05
1.52051e-05
1.2697e-05
1.02604e-05
8.68432e-06
6.60714e-06
5.67312e-06
3.68914e-06
0.0574617
0.149092
0.132713
0.087341
0.0506867
0.0384252
0.0360329
0.0359967
0.0361376
0.0364802
0.0367789
0.0367749
0.036711
0.0364967
0.0363099
0.0362761
0.0362364
0.0361524
0.0359463
0.0355483
0.03501
0.0344832
0.03436
0.0344705
0.0349375
0.0363929
0.0397104
0.044795
0.0546807
0.0657203
0.0910368
0.150834
0.168794
0.166946
0.162039
0.146031
0.0996926
0.108204
0.144799
0.138579
0.128894
0.128121
0.128325
0.0944026
0.0402701
0.0198658
0.0115557
0.00824785
0.00697169
0.00648075
0.00630519
0.00626169
0.00650436
0.00669775
0.00678163
0.00682243
0.00681376
0.00664259
0.00645607
0.00632871
0.00626612
0.00612792
0.00589355
0.00564852
0.00547229
0.00533198
0.00517883
0.00502841
0.0049134
0.00478825
0.00470208
0.00466298
0.00462664
0.00459859
0.00458839
0.00458907
0.00459852
0.00458697
0.00452969
0.00449042
0.00446251
0.00440996
0.00431462
0.00422243
0.00412179
0.0039645
0.00370813
0.00351039
0.00347429
0.00350116
0.0037313
0.0042824
0.00501796
0.00553651
0.00572053
0.00571395
0.00511562
0.00452684
0.00423391
0.00373796
0.00335836
0.00305508
0.00284555
0.00272336
0.00270827
0.00283464
0.0030481
0.00332414
0.00357423
0.0037376
0.00384254
0.00390213
0.00391401
0.00388051
0.00378915
0.00359019
0.003243
0.00275158
0.00217256
0.00161349
0.00121721
0.000980518
0.000874529
0.000861809
0.000932043
0.00129705
0.00177262
0.00204055
0.00215875
0.00224889
0.00231596
0.00233629
0.00231936
0.00221466
0.00210092
0.00206345
0.00201488
0.00182124
0.00150359
0.00144767
0.00146881
0.00153527
0.00160935
0.00165405
0.00166658
0.00166379
0.00164711
0.0015944
0.00150917
0.00141591
0.00130946
0.00116384
0.000958192
0.000714584
0.000489117
0.000321609
0.000212259
0.000145094
0.000105375
8.2537e-05
6.96968e-05
6.26624e-05
5.86995e-05
5.61589e-05
5.44912e-05
5.26104e-05
4.8827e-05
4.2914e-05
3.58776e-05
2.86568e-05
2.22407e-05
1.69866e-05
1.32026e-05
1.04546e-05
8.71518e-06
7.25277e-06
6.32666e-06
5.30945e-06
4.65437e-06
3.8021e-06
0.0877077
0.0890264
0.0561363
0.0344135
0.0309394
0.0320463
0.034973
0.0377299
0.0403726
0.0402478
0.0398651
0.0396469
0.0396668
0.0398763
0.0403377
0.0417018
0.0426522
0.0445955
0.0456545
0.0454032
0.0445198
0.0425155
0.0398306
0.0376202
0.036042
0.0360194
0.0363624
0.0375606
0.0406965
0.0472085
0.0575209
0.0790922
0.11042
0.133615
0.138267
0.117107
0.0873003
0.117525
0.127933
0.128578
0.114843
0.100584
0.0603964
0.0302749
0.0157843
0.0101665
0.00809145
0.00742847
0.0072337
0.00732233
0.007812
0.00797077
0.00796375
0.00758805
0.00743641
0.00711688
0.0069525
0.00661048
0.00621606
0.00588457
0.00564732
0.00539799
0.00504061
0.00475046
0.00458762
0.00433746
0.0041151
0.00403045
0.00394246
0.00376279
0.00359198
0.00349756
0.0033457
0.00319116
0.0031221
0.00304366
0.00298018
0.00296472
0.00298337
0.00299205
0.00299792
0.00298886
0.00294316
0.00287231
0.00278477
0.00278526
0.00283223
0.00297177
0.00335415
0.00422655
0.00587497
0.00837604
0.0107632
0.0119288
0.0123329
0.0122197
0.0105681
0.00857586
0.00755525
0.00676588
0.00574564
0.00466937
0.00361324
0.0028049
0.00227251
0.00189164
0.00166532
0.00155117
0.00161256
0.00193426
0.00240087
0.00290529
0.00337443
0.00371427
0.00390699
0.00402273
0.00406379
0.00403918
0.00391373
0.00357023
0.00289327
0.00206042
0.00136373
0.00097512
0.000823836
0.000812578
0.000914247
0.00135395
0.00172848
0.00191809
0.00210654
0.00229815
0.00241854
0.00244885
0.00243802
0.00242343
0.00242656
0.00241097
0.00235829
0.00233433
0.00229368
0.00216318
0.00201068
0.00196616
0.00197356
0.00202192
0.00207283
0.00208645
0.00208133
0.00203292
0.00183929
0.00157937
0.00135783
0.00114182
0.000916245
0.000706713
0.000547275
0.000435142
0.000338118
0.000235823
0.000140599
7.62613e-05
4.9527e-05
4.54476e-05
4.67405e-05
5.2294e-05
5.55447e-05
5.5835e-05
5.4926e-05
5.03624e-05
3.76873e-05
2.55068e-05
1.63061e-05
1.00925e-05
6.31923e-06
4.40007e-06
3.5214e-06
3.09487e-06
2.81005e-06
2.52717e-06
0.0356204
0.0360568
0.0271279
0.026626
0.0298032
0.0382002
0.0426971
0.0434453
0.0427255
0.0410401
0.0401486
0.0401107
0.0403881
0.0414167
0.0438845
0.0502229
0.0558139
0.0625066
0.066898
0.0667309
0.0652643
0.0616915
0.055306
0.0484573
0.042321
0.0386052
0.0370734
0.0371471
0.0377746
0.0399593
0.0451998
0.0549258
0.0749534
0.0975892
0.118705
0.0899596
0.0819597
0.0937561
0.0974076
0.0905603
0.0650699
0.0405809
0.0220831
0.0135242
0.00986458
0.00859955
0.00821552
0.00814615
0.00883721
0.00910771
0.00914801
0.00852998
0.00808039
0.00766302
0.00711306
0.00678509
0.0065231
0.00603838
0.00565156
0.00549275
0.00536477
0.00524459
0.00518761
0.00516617
0.00518105
0.00524657
0.0053488
0.0054022
0.00538299
0.00518661
0.00494192
0.00466003
0.00401699
0.00347414
0.00314251
0.00291077
0.00253795
0.00234332
0.00224625
0.00214393
0.00210657
0.00209786
0.00209966
0.002131
0.00221865
0.00240316
0.0028347
0.00374264
0.00541915
0.00841738
0.0129686
0.0156802
0.0164656
0.0166629
0.0164554
0.0157919
0.0146625
0.0123324
0.00949522
0.00840209
0.00801838
0.00770834
0.00721386
0.00624877
0.00482026
0.00331947
0.00216792
0.00147066
0.00106245
0.000853878
0.00076248
0.000778716
0.000971202
0.00140073
0.00197923
0.00262906
0.00326631
0.0037351
0.00398208
0.00405965
0.00402152
0.00378824
0.00307881
0.00205325
0.00128171
0.000920735
0.000841065
0.000893904
0.00120274
0.00148972
0.0016865
0.0019749
0.00230064
0.00254075
0.00265517
0.00270562
0.00274273
0.00275475
0.00274494
0.00268723
0.00263325
0.00257415
0.00243879
0.00223618
0.00208182
0.00202747
0.00202157
0.00201574
0.00199337
0.00190868
0.00169509
0.0014875
0.00130001
0.00112028
0.000944918
0.000777334
0.000629892
0.000513
0.00042455
0.000350209
0.000276893
0.000206643
0.000150403
0.000114862
9.94111e-05
9.59917e-05
9.60334e-05
9.67368e-05
9.68448e-05
9.53913e-05
8.76382e-05
6.77484e-05
4.99461e-05
3.61514e-05
2.59356e-05
1.8663e-05
1.38753e-05
1.02381e-05
7.8932e-06
5.49688e-06
0.0237205
0.0331307
0.0221548
0.026254
0.0393054
0.0444706
0.0452198
0.0446529
0.042411
0.04027
0.0399061
0.0402948
0.0422467
0.0480336
0.0619264
0.0851607
0.100777
0.117319
0.124222
0.123077
0.11864
0.108532
0.0953505
0.076933
0.0583389
0.0463945
0.0401758
0.0379135
0.0378759
0.0383091
0.0405472
0.0463147
0.0594447
0.0846094
0.111736
0.0724402
0.0687874
0.0682853
0.0592976
0.0454719
0.0283884
0.0175523
0.012198
0.00998013
0.00922031
0.00899083
0.00931308
0.0100579
0.0102746
0.0101709
0.00923066
0.00857689
0.00816151
0.0075513
0.00699776
0.00678075
0.00656211
0.00636575
0.00633102
0.00660321
0.00721927
0.00801162
0.0092468
0.0108788
0.0126262
0.0143446
0.015805
0.0165341
0.0167948
0.0163428
0.0150509
0.0141113
0.0114927
0.00936234
0.00724105
0.00613605
0.00453897
0.00336172
0.00284956
0.0024091
0.00220844
0.0021291
0.00210809
0.00213854
0.00236132
0.00292
0.00406418
0.00625397
0.009982
0.014948
0.0172214
0.0179206
0.0180997
0.0180281
0.0173543
0.016328
0.0153722
0.0135122
0.0100502
0.00831848
0.00795863
0.00796892
0.00802768
0.00804958
0.00786029
0.00720618
0.00578906
0.0038605
0.00220138
0.00125763
0.000757837
0.000520272
0.000411254
0.000369433
0.000385202
0.000500394
0.000807328
0.00144505
0.00235054
0.00323809
0.00376436
0.00392776
0.00389288
0.00358903
0.00263255
0.00158388
0.00103972
0.00088878
0.000910988
0.00111924
0.00138772
0.00166503
0.00203508
0.00241444
0.00268869
0.00283252
0.00289004
0.00289981
0.00287695
0.00276664
0.00267748
0.00263903
0.00259434
0.00248031
0.00229388
0.00217655
0.00213366
0.00211532
0.0020831
0.00200043
0.00175754
0.00142443
0.00115625
0.000961683
0.000811311
0.000678255
0.000552912
0.000444018
0.000362353
0.000307111
0.000266624
0.000228256
0.000187847
0.000151374
0.000125001
0.000109531
0.000102788
0.000100931
0.000100621
0.000100309
9.9265e-05
9.56219e-05
8.36411e-05
6.57619e-05
5.03409e-05
3.76668e-05
2.7773e-05
1.99397e-05
1.43528e-05
9.75351e-06
0.0263523
0.0349035
0.0171043
0.0323897
0.043677
0.0462023
0.0462037
0.0449255
0.0412903
0.0393361
0.0393511
0.0411169
0.0482062
0.0697986
0.100756
0.12662
0.145142
0.16035
0.166752
0.165994
0.16221
0.153063
0.136627
0.117627
0.093207
0.067613
0.0496902
0.0407764
0.0384105
0.0382932
0.0391944
0.043252
0.0542668
0.0851774
0.0981406
0.0613717
0.0538126
0.0467422
0.0331994
0.0237293
0.0153352
0.0118724
0.0104495
0.00999258
0.00986751
0.0108229
0.0113331
0.0114534
0.0111858
0.0102668
0.00930119
0.00870986
0.00832573
0.00766573
0.00741032
0.0073943
0.00769726
0.00849249
0.00995124
0.0123536
0.015898
0.0203101
0.0258326
0.0324358
0.0394644
0.0462576
0.0516501
0.0542581
0.0552183
0.0542388
0.0491724
0.045074
0.0377725
0.031391
0.0239979
0.0188729
0.014252
0.00940056
0.00711406
0.00492964
0.00376952
0.00320201
0.00300337
0.00297793
0.00334571
0.0044383
0.00641795
0.00977403
0.0143067
0.0173354
0.0183182
0.0185946
0.0186267
0.0184071
0.0177376
0.0163673
0.0149563
0.0135574
0.0101894
0.00725821
0.00640828
0.00651553
0.00704473
0.00776204
0.00805732
0.00803559
0.00772085
0.00701771
0.00551778
0.00351949
0.00193198
0.00103051
0.000556169
0.000335221
0.000238531
0.000199013
0.000194085
0.000230103
0.000376951
0.000833734
0.00194616
0.00302445
0.00358058
0.00369153
0.00356505
0.00289342
0.0017448
0.0010996
0.000905508
0.000909064
0.0010748
0.00147089
0.00184079
0.00219941
0.00250482
0.00269326
0.00276665
0.00277329
0.00272783
0.00258065
0.00251109
0.0025064
0.00251632
0.0025144
0.00249499
0.00241498
0.00231598
0.0022696
0.00223237
0.00215776
0.00197073
0.00168698
0.00138487
0.00109834
0.000852455
0.000652045
0.000489243
0.000357537
0.00026051
0.000205602
0.000188453
0.000185606
0.000181373
0.000167667
0.000135748
0.00011113
9.77067e-05
9.31242e-05
9.27406e-05
9.34234e-05
9.37815e-05
9.33719e-05
9.15638e-05
8.58444e-05
7.11854e-05
5.5558e-05
4.20604e-05
3.05971e-05
2.1819e-05
1.45249e-05
0.0280981
0.0352319
0.0125919
0.0381985
0.0454401
0.046794
0.0466667
0.0448323
0.040502
0.0378786
0.0381055
0.0415488
0.054711
0.0845058
0.115371
0.141016
0.161161
0.175746
0.182527
0.182725
0.180724
0.174266
0.159124
0.137607
0.111139
0.0829404
0.0602545
0.046509
0.0401686
0.0384954
0.0389955
0.0424291
0.0563331
0.0860024
0.0851649
0.0504781
0.0414172
0.0309856
0.0198501
0.0146364
0.0115766
0.0106723
0.0104979
0.0107448
0.0122193
0.0130158
0.0131159
0.0128319
0.0117599
0.0103997
0.00959227
0.00917305
0.00886921
0.00865637
0.00884062
0.00984867
0.011751
0.0151875
0.020489
0.0283498
0.0392073
0.0528392
0.0694721
0.0889849
0.109068
0.124229
0.134848
0.139894
0.141582
0.137716
0.128017
0.115613
0.0996674
0.0831185
0.0678636
0.0525211
0.0412307
0.0302256
0.0225084
0.0147115
0.0105057
0.00724603
0.00590847
0.00547754
0.00552929
0.00700885
0.00940965
0.0123815
0.0160007
0.0178961
0.018548
0.0187072
0.0186933
0.0184584
0.0178455
0.0164412
0.0137742
0.0125209
0.0100251
0.00705662
0.00594778
0.00556773
0.00549714
0.00582215
0.00662445
0.00731997
0.00755653
0.00738713
0.00674684
0.00568052
0.00420093
0.00260797
0.00141223
0.000712424
0.000364323
0.000207553
0.000144322
0.000121736
0.00012111
0.000151711
0.000292604
0.000850123
0.00216385
0.00306524
0.00335767
0.00331646
0.00283372
0.00172142
0.00108017
0.000890854
0.000895904
0.00107748
0.00158183
0.00199167
0.00224335
0.00235647
0.00237879
0.00237636
0.00235253
0.00226886
0.00221708
0.00222407
0.00232682
0.00245188
0.00247903
0.00246817
0.0024036
0.0023166
0.00221226
0.00203888
0.00181435
0.00157423
0.00132889
0.00107998
0.000847193
0.000645008
0.000477765
0.000346677
0.000253116
0.000196871
0.000174707
0.000171953
0.000170682
0.000165354
0.000143618
0.000106039
8.08936e-05
6.98999e-05
6.8187e-05
6.99127e-05
7.74046e-05
8.30585e-05
8.43386e-05
8.39536e-05
8.16529e-05
7.31493e-05
5.78183e-05
4.35213e-05
3.19237e-05
2.14899e-05
0.0288957
0.0352992
0.0107782
0.0422668
0.0460497
0.0469514
0.046744
0.0444545
0.0393841
0.0356485
0.0354507
0.040274
0.0564336
0.0862927
0.116965
0.142806
0.163818
0.179038
0.184284
0.18367
0.180472
0.172949
0.156527
0.134512
0.108402
0.0813096
0.0595686
0.0463076
0.040199
0.0385662
0.0388636
0.0432177
0.0617582
0.0849664
0.0722676
0.0413078
0.0319772
0.0204336
0.0141293
0.0116747
0.0107906
0.0106727
0.0111544
0.0124807
0.0137717
0.014251
0.0143041
0.0138441
0.0124106
0.0110194
0.0105598
0.0104494
0.0105387
0.0112266
0.012819
0.016218
0.0219136
0.0314487
0.0467431
0.0714302
0.103755
0.134603
0.167216
0.195312
0.212829
0.225121
0.230603
0.2323
0.229797
0.219989
0.207857
0.19015
0.169717
0.145438
0.121678
0.0992485
0.079252
0.0628771
0.0503906
0.0400438
0.0303861
0.0210488
0.0146059
0.011169
0.00998303
0.00977833
0.0117799
0.0140075
0.0161884
0.017676
0.0181975
0.0184079
0.018377
0.0180673
0.0173755
0.0159324
0.0127668
0.01066
0.00903765
0.00726371
0.00605696
0.00551033
0.00527292
0.0051637
0.00520224
0.00543155
0.00585945
0.00621303
0.00629685
0.0059275
0.00496575
0.00378768
0.00259877
0.00156136
0.000819234
0.00040336
0.000207704
0.000125082
9.54276e-05
8.89185e-05
9.73238e-05
0.000157694
0.000437207
0.0014949
0.00256977
0.00297145
0.00297291
0.00258328
0.001566
0.00100474
0.000857556
0.000875206
0.00108251
0.00157175
0.00194853
0.0021538
0.00223621
0.00229195
0.0023198
0.0023142
0.00225169
0.00217382
0.00217137
0.00226111
0.00238757
0.00240877
0.00237624
0.00221793
0.00208575
0.00201264
0.00188156
0.00159241
0.00125937
0.000981429
0.000761179
0.000582407
0.000436911
0.000321357
0.000236036
0.000183347
0.000161697
0.000156872
0.000154953
0.000151347
0.000140304
0.000110106
7.99321e-05
6.15537e-05
5.67077e-05
5.82792e-05
6.66638e-05
7.50348e-05
7.8729e-05
7.96884e-05
7.9448e-05
7.75811e-05
7.07004e-05
5.6226e-05
4.32712e-05
3.03095e-05
0.0295677
0.035143
0.0103974
0.0438298
0.046172
0.0469619
0.04667
0.0441589
0.038746
0.0344375
0.0322631
0.0327258
0.0394679
0.0576369
0.0832148
0.10927
0.132707
0.153652
0.166685
0.1715
0.169232
0.160387
0.143175
0.121768
0.0974761
0.0737508
0.0557593
0.0445347
0.0397476
0.0385821
0.0390739
0.0452868
0.0690494
0.0822344
0.0613557
0.0336973
0.0245171
0.0150805
0.0116661
0.0106413
0.0104769
0.0111634
0.0138734
0.0166186
0.0169367
0.0164644
0.0160244
0.0153325
0.013875
0.0128366
0.0127303
0.0131509
0.0142747
0.0167936
0.0214832
0.0300219
0.0446089
0.0691187
0.100655
0.136731
0.173813
0.208878
0.23639
0.252605
0.262294
0.266953
0.26845
0.26727
0.259617
0.249986
0.236509
0.218293
0.196505
0.170645
0.143099
0.117334
0.0942068
0.0750852
0.0608235
0.0510557
0.0443703
0.0387496
0.032806
0.0262581
0.0205065
0.0169953
0.0153494
0.0157637
0.016493
0.0177065
0.0178604
0.0180324
0.0177795
0.0171206
0.0160662
0.0141473
0.0112653
0.00881377
0.00802949
0.00732868
0.00636006
0.00568112
0.00529425
0.00507998
0.00495956
0.00491645
0.00492514
0.00495915
0.00497669
0.00495047
0.00477839
0.00396216
0.00291162
0.00203844
0.00131951
0.000763301
0.000394549
0.000200871
0.000115161
8.34565e-05
7.60083e-05
8.00822e-05
0.000117832
0.000310239
0.00114947
0.00219684
0.00261026
0.00262173
0.00225632
0.00134656
0.000902462
0.000807385
0.000836916
0.00103574
0.00143527
0.00178955
0.00203754
0.00218038
0.00223526
0.00223556
0.00218136
0.00203891
0.00197932
0.00198691
0.00211112
0.00225091
0.00226521
0.00220027
0.00201587
0.00196408
0.00193348
0.00183562
0.00151332
0.00109947
0.000792198
0.000578901
0.000427111
0.000314744
0.000233493
0.000180244
0.00015315
0.000141985
0.00013727
0.000134668
0.000130166
0.000118489
9.55238e-05
7.53948e-05
6.42082e-05
6.25278e-05
6.59567e-05
7.2237e-05
7.50394e-05
7.58247e-05
7.58443e-05
7.52659e-05
7.29047e-05
6.55989e-05
5.38513e-05
3.9856e-05
0.0298634
0.0348969
0.0155201
0.0439984
0.0460503
0.0467733
0.0463866
0.044111
0.0385867
0.0338811
0.0309563
0.0294181
0.0302093
0.0349415
0.0442013
0.058713
0.078119
0.0976231
0.113552
0.122529
0.125546
0.119029
0.106518
0.0923375
0.0757698
0.0603713
0.048155
0.0415951
0.0390697
0.0384437
0.0398304
0.0504142
0.0730514
0.0774495
0.0504925
0.0276942
0.0193209
0.0123901
0.0104414
0.010033
0.0101191
0.0111895
0.0140321
0.0181811
0.0212705
0.0222629
0.0219233
0.0206031
0.0186979
0.018038
0.0182749
0.0197944
0.0230899
0.0296265
0.0422359
0.0635691
0.0948666
0.131068
0.167761
0.200251
0.225779
0.249433
0.266273
0.275864
0.280028
0.281349
0.280901
0.277162
0.269458
0.258591
0.245018
0.226629
0.2044
0.178352
0.149347
0.121573
0.0971597
0.0774257
0.0624589
0.0520207
0.045425
0.0411429
0.0374009
0.0338779
0.0305439
0.0273564
0.0245999
0.0224308
0.0210909
0.0201231
0.0191401
0.0183695
0.017557
0.0160558
0.0144884
0.0122959
0.00959629
0.00728611
0.00699545
0.00689465
0.00636375
0.00572831
0.00531526
0.00506108
0.004894
0.00479196
0.00474133
0.00471099
0.00466585
0.00456472
0.0043175
0.00371759
0.00289839
0.0021063
0.00145338
0.000951043
0.000581366
0.000324715
0.000174484
0.000103048
7.55359e-05
6.92717e-05
7.27999e-05
0.000104883
0.000272431
0.0010189
0.00195014
0.00229929
0.00229367
0.00189798
0.00112252
0.00078828
0.000728202
0.000759117
0.000914148
0.00120483
0.00152017
0.00175538
0.00185843
0.00187118
0.00184519
0.00172748
0.00164705
0.00163833
0.0016787
0.0018752
0.00203279
0.00205434
0.00201256
0.00189723
0.00185288
0.00177702
0.00154975
0.00120361
0.000890221
0.000642813
0.000460579
0.000330186
0.000240831
0.000183977
0.000152317
0.000135321
0.000126024
0.000120792
0.000117563
0.000114426
0.000109191
9.83368e-05
8.43822e-05
7.41378e-05
7.14632e-05
7.23453e-05
7.31315e-05
7.29182e-05
7.17694e-05
7.089e-05
6.9761e-05
6.737e-05
6.20237e-05
4.92396e-05