/*--------------------------------*- C++ -*----------------------------------*\
  =========                 |
  \\      /  F ield         | OpenFOAM: The Open Source CFD Toolbox
   \\    /   O peration     | Website:  https://openfoam.org
    \\  /    A nd           | Version:  9
     \\/     M anipulation  |
\*---------------------------------------------------------------------------*/
FoamFile
{
    format      ascii;
    class       volScalarField;
    location    "0.041";
    object      pPrime2Mean;
}
// * * * * * * * * * * * * * * * * * * * * * * * * * * * * * * * * * * * * * //

dimensions      [0 4 -4 0 0 0 0];

internalField   nonuniform List<scalar> 
12225
(
301007
298200
294949
291414
287712
283933
280133
276351
272608
268915
265274
261682
258126
254584
251021
247379
243536
239205
301027
298229
294973
291432
287727
283945
280145
276362
272618
268925
265286
261696
258143
254606
251054
247432
243642
239515
301097
298293
295024
291474
287761
283974
280170
276385
272641
268949
265312
261726
258181
254656
251125
247543
243850
239987
301227
298400
295110
291543
287818
284022
280212
276424
272679
268989
265356
261777
258243
254737
251238
247717
244145
240538
301411
298561
295238
291645
287901
284092
280274
276481
272735
269046
265419
261851
258333
254854
251398
247952
244512
241128
301693
298783
295413
291785
288016
284189
280359
276559
272811
269126
265506
261951
258454
255009
251606
248242
244934
241738
302081
299083
295646
291971
288168
284317
280471
276663
272913
269230
265620
262081
258610
255204
251860
248584
245399
242360
302602
299468
295947
292210
288362
284481
280615
276796
273041
269362
265763
262244
258803
255441
252160
248971
245899
242988
303286
299955
296324
292509
288606
284686
280795
276961
273202
269526
265939
262441
259034
255720
252503
249398
246426
243623
304041
300548
296785
292875
288904
284936
281014
277163
273397
269724
266150
262677
259305
256039
252886
249859
246976
244262
304929
301261
297345
293319
289264
285238
281278
277404
273629
269960
266400
262951
259615
256398
253306
250350
247545
244906
305878
302048
297958
293802
289654
285565
281563
277665
273880
270212
266664
263238
259936
256761
253721
250824
248080
245500
307143
302960
298654
294348
290095
285935
281885
277959
274161
270493
266957
263553
260282
257149
254156
251312
248622
246092
308786
304164
299566
295060
290670
286414
282303
278340
274524
270855
267330
263950
260713
257622
254679
251888
249251
246769
310921
305722
300746
295979
291408
287030
282840
278828
274988
271314
267800
264443
261242
258194
255299
252559
249972
247536
313617
307732
302248
297135
292331
287800
283510
279438
275567
271885
268380
265046
261877
258870
256022
253328
250786
248392
316920
310124
304011
298495
293426
288719
284315
280175
276267
272572
269073
265759
262621
259651
256843
254191
251689
249330
320931
312746
305903
299950
294603
289722
285208
281002
277061
273355
269863
266568
263456
260519
257746
255129
252661
250333
323772
314670
307338
301115
295613
290634
286065
281829
277878
274176
270698
267424
264341
261433
258691
256104
253664
251361
322162
314170
307307
301318
295945
291050
286536
282342
278426
274755
271306
268061
265004
262121
259403
256838
254417
252131
320004
312931
306682
301052
295904
291149
286728
282600
278732
275098
271680
268460
265425
262562
259861
257310
254902
252627
317729
311607
305918
300642
295718
291110
286790
282732
278914
275318
271929
268733
265717
262870
260182
257643
255245
252978
315832
310418
305193
300217
295492
291017
286789
282794
279021
275458
272094
268918
265917
263083
260406
257876
255484
253224
314415
309490
304597
299853
295286
290919
286763
282819
279083
275547
272204
269042
266054
263230
260560
258037
255651
253394
313406
308776
304139
299570
295119
290833
286733
282828
279119
275604
272275
269125
266146
263329
260666
258147
255765
253511
312562
308241
303803
299361
294996
290767
286707
282829
279141
275640
272322
269180
266207
263395
260736
258220
255840
253589
311918
307868
303571
299218
294911
290721
286687
282829
279153
275661
272351
269215
266246
263437
260780
258267
255889
253639
311451
307619
303424
299128
294857
290692
286674
282827
279160
275675
272368
269235
266269
263463
260807
258295
255918
253669
311195
307480
303342
299078
294827
290675
286667
282826
279164
275681
272377
269246
266282
263477
260822
258311
255934
253685
311070
307421
303309
299057
294815
290668
286664
282826
279165
275684
272381
269251
266287
263482
260828
258317
255941
253692
202442
202423
202387
202337
202272
202194
202100
201986
201850
201690
201505
201296
201065
200815
200547
200264
199967
199658
199334
198997
198643
198271
197881
197471
197040
196588
196112
195614
195096
194561
194010
193439
192853
192249
191634
191013
190389
189755
189091
188393
187675
186951
186222
185481
184707
183913
183106
182278
181438
180571
179643
178667
177667
176658
175653
174658
173677
172711
171759
170819
169889
168969
168054
167143
166233
165323
164408
163488
162557
161615
160657
159682
158688
157673
156637
155580
154503
153406
152292
151161
150015
148856
147684
146501
145308
144105
142893
141672
140442
139202
137953
136695
135426
134150
132868
131581
130294
129008
127724
126443
125166
123892
122621
121352
120084
118816
117548
116279
115009
113737
112463
111187
109908
108626
107342
106055
104766
103474
102179
100882
99583.2
98282.1
96978.9
95673.9
94367.1
93058.8
91749
90437.9
89125.8
87812.7
86498.9
85184.6
83869.9
82555
81240.2
79925.6
78611.3
77297.7
75985
74673.2
73362.6
72053.4
70745.9
69440.2
68136.6
66835.2
65536.4
64240.3
62947.1
61657.1
60370.5
59087.6
57808.6
56533.8
55263.4
53997.6
52736.7
51481
50230.9
48986.5
47748.2
46516.3
45291.1
44073
42862.2
41659.2
40464.3
39277.9
38100.4
36932.2
35773.9
34625.9
33488.8
32363.4
31250.4
30150.9
29066.2
27998.6
26951.7
25934.3
202503
202484
202449
202397
202332
202252
202154
202036
201895
201730
201541
201329
201096
200844
200576
200293
199996
199686
199361
199023
198668
198297
197906
197496
197065
196613
196139
195644
195128
194592
194032
193449
192849
192235
191612
190984
190355
189719
189065
188378
187667
186945
186216
185478
184711
183919
183082
182201
181329
180447
179515
178548
177561
176567
175578
174597
173629
172672
171728
170794
169869
168952
168040
167131
166224
165315
164402
163483
162554
161613
160656
159682
158688
157674
156638
155582
154505
153408
152294
151163
150017
148857
147686
146503
145311
144108
142897
141676
140447
139209
137961
136703
135435
134158
132875
131588
130300
129013
127729
126448
125171
123896
122625
121355
120087
118819
117551
116282
115012
113739
112465
111188
109909
108628
107343
106056
104767
103474
102180
100883
99583.8
98282.6
96979.4
95674.3
94367.5
93059.2
91749.3
90438.3
89126.1
87813
86499.2
85184.8
83870.1
82555.2
81240.3
79925.7
78611.5
77297.8
75985
74673.2
73362.7
72053.5
70746
69440.3
68136.7
66835.3
65536.5
64240.3
62947.1
61657.1
60370.6
59087.7
57808.7
56533.8
55263.3
53997.5
52736.7
51481
50230.8
48986.4
47748.2
46516.3
45291.1
44072.9
42862.2
41659.1
40464.2
39277.8
38100.3
36932.1
35773.7
34625.7
33488.6
32363.1
31250
30150.3
29065.3
27997.2
26948.7
25926.6
202657
202640
202604
202550
202477
202385
202274
202141
201986
201809
201609
201390
201151
200896
200626
200342
200046
199736
199413
199076
198722
198352
197963
197554
197124
196672
196200
195707
195191
194654
194092
193509
192905
192285
191654
191019
190377
189724
189055
188361
187650
186935
186219
185469
184671
183851
183003
182116
181208
180287
179346
178390
177424
176454
175486
174524
173570
172625
171689
170762
169842
168928
168020
167113
166208
165301
164390
163473
162546
161607
160652
159680
158688
157675
156640
155584
154507
153411
152297
151166
150020
148861
147690
146508
145316
144114
142904
141686
140458
139222
137975
136719
135452
134175
132890
131602
130312
129024
127739
126457
125180
123905
122633
121363
120094
118826
117557
116288
115017
113744
112469
111192
109913
108631
107346
106059
104769
103476
102182
100884
99585.2
98283.8
96980.5
95675.3
94368.4
93059.9
91750
90438.9
89126.6
87813.5
86499.6
85185.2
83870.4
82555.5
81240.6
79925.9
78611.7
77298
75985.2
74673.4
73362.8
72053.6
70746.1
69440.4
68136.8
66835.4
65536.5
64240.4
62947.2
61657.2
60370.6
59087.7
57808.6
56533.8
55263.3
53997.5
52736.6
51480.9
50230.8
48986.4
47748.1
46516.2
45291
44072.8
42862.1
41659
40464.1
39277.6
38100
36931.8
35773.4
34625.3
33488.1
32362.4
31249.1
30149.1
29063.6
27994.5
26944
25916.3
202877
202860
202823
202763
202679
202574
202447
202299
202132
201945
201739
201514
201272
201014
200742
200456
200158
199846
199522
199183
198828
198456
198066
197655
197223
196771
196298
195806
195294
194763
194213
193641
193049
192440
191816
191182
190531
189856
189155
188433
187699
186954
186206
185435
184624
183780
182907
182009
181091
180158
179214
178263
177307
176351
175398
174449
173506
172571
171643
170722
169807
168898
167992
167089
166186
165282
164373
163458
162534
161598
160646
159676
158687
157675
156642
155587
154511
153414
152300
151169
150023
148865
147694
146513
145323
144123
142915
141698
140474
139240
137996
136742
135475
134198
132912
131621
130329
129040
127753
126471
125193
123918
122645
121374
120105
118836
117566
116296
115024
113751
112475
111198
109917
108635
107350
106062
104772
103479
102184
100887
99587.1
98285.5
96982
95676.6
94369.6
93060.9
91750.9
90439.7
89127.3
87814.1
86500.2
85185.7
83870.9
82555.9
81241
79926.3
78612
77298.3
75985.4
74673.6
73363
72053.8
70746.2
69440.5
68136.9
66835.5
65536.6
64240.5
62947.3
61657.3
60370.7
59087.7
57808.7
56533.8
55263.3
53997.5
52736.6
51480.9
50230.7
48986.3
47748
46516.1
45290.9
44072.7
42861.9
41658.9
40463.9
39277.4
38099.7
36931.4
35772.9
34624.7
33487.3
32361.4
31247.7
30147.2
29060.8
27990.4
26937.2
25903.6
203176
203155
203109
203037
202941
202824
202687
202530
202355
202162
201949
201718
201471
201208
200931
200641
200339
200024
199695
199351
198991
198614
198219
197802
197365
196908
196431
195937
195428
194904
194366
193814
193246
192661
192060
191439
190789
190103
189381
188630
187862
187077
186274
185450
184603
183731
182837
181924
180997
180058
179111
178161
177210
176261
175316
174376
173442
172514
171593
170677
169768
168863
167961
167061
166161
165259
164353
163441
162520
161586
160638
159671
158684
157675
156643
155589
154513
153417
152303
151172
150027
148869
147700
146520
145331
144134
142928
141714
140492
139262
138022
136771
135506
134228
132940
131646
130352
129060
127772
126489
125210
123934
122661
121389
120119
118848
117578
116306
115034
113759
112483
111204
109924
108640
107355
106066
104776
103483
102187
100889
99589.6
98287.7
96984
95678.4
94371.1
93062.3
91752.1
90440.7
89128.3
87815
86500.9
85186.4
83871.5
82556.5
81241.5
79926.7
78612.3
77298.6
75985.7
74673.9
73363.3
72054
70746.5
69440.7
68137.1
66835.7
65536.8
64240.6
62947.4
61657.3
60370.7
59087.8
57808.7
56533.8
55263.3
53997.5
52736.5
51480.9
50230.7
48986.2
47747.9
46516
45290.8
44072.6
42861.8
41658.6
40463.6
39277
38099.3
36930.9
35772.3
34623.8
33486.2
32360
31245.8
30144.6
29057.3
27985
26929
25889.8
203548
203517
203457
203374
203271
203147
203003
202840
202658
202455
202233
201992
201733
201459
201172
200874
200565
200244
199910
199562
199197
198814
198411
197987
197543
197079
196597
196099
195589
195068
194537
193997
193447
192883
192300
191691
191046
190358
189624
188851
188048
187223
186376
185510
184626
183724
182806
181874
180932
179982
179030
178077
177127
176182
175242
174308
173380
172458
171541
170630
169725
168824
167926
167030
166134
165235
164333
163424
162506
161576
160631
159667
158682
157675
156645
155591
154516
153421
152306
151176
150031
148874
147705
146527
145340
144145
142942
141731
140513
139288
138054
136808
135547
134269
132977
131679
130380
129084
127795
126510
125230
123954
122680
121407
120135
118863
117592
116319
115045
113769
112492
111213
109931
108647
107360
106072
104780
103487
102191
100893
99592.6
98290.4
96986.3
95680.4
94372.9
93063.9
91753.5
90442
89129.4
87816
86501.8
85187.2
83872.2
82557.1
81242
79927.2
78612.8
77299
75986.1
74674.2
73363.6
72054.3
70746.7
69441
68137.3
66835.9
65536.9
64240.7
62947.5
61657.4
60370.8
59087.8
57808.7
56533.8
55263.3
53997.4
52736.5
51480.8
50230.6
48986.2
47747.8
46515.9
45290.6
44072.4
42861.5
41658.4
40463.3
39276.7
38098.9
36930.3
35771.5
34622.8
33484.9
32358.2
31243.5
30141.5
29053
27978.8
26919.8
25875.8
203968
203933
203869
203783
203677
203550
203402
203233
203043
202830
202596
202341
202069
201782
201483
201174
200856
200526
200183
199825
199451
199057
198644
198211
197758
197285
196797
196293
195778
195253
194721
194183
193638
193083
192507
191901
191255
190563
189822
189036
188214
187366
186494
185602
184690
183760
182815
181859
180896
179930
178966
178007
177055
176111
175175
174245
173321
172403
171490
170581
169679
168781
167887
166995
166104
165211
164313
163409
162495
161569
160627
159667
158685
157679
156650
155596
154521
153425
152310
151179
150035
148878
147711
146535
145350
144157
142957
141750
140537
139319
138093
136855
135598
134319
133023
131718
130413
129114
127822
126536
125255
123977
122702
121428
120154
118881
117607
116333
115058
113781
112502
111222
109939
108654
107367
106077
104785
103491
102195
100896
99595.9
98293.4
96989
95682.8
94375
93065.7
91755.1
90443.4
89130.7
87817.1
86502.8
85188.1
83873.1
82557.9
81242.7
79927.8
78613.3
77299.5
75986.5
74674.6
73363.9
72054.6
70747
69441.2
68137.5
66836.1
65537.1
64240.9
62947.7
61657.6
60370.9
59087.9
57808.8
56533.9
55263.3
53997.4
52736.5
51480.8
50230.6
48986.1
47747.8
46515.8
45290.5
44072.2
42861.3
41658.1
40462.9
39276.2
38098.3
36929.6
35770.5
34621.6
33483.3
32356.2
31240.8
30137.9
29048.1
27972
26910
25861.8
204458
204424
204364
204281
204174
204045
203893
203719
203521
203299
203053
202787
202502
202202
201890
201567
201234
200889
200531
200158
199768
199360
198932
198486
198021
197539
197041
196529
196006
195472
194931
194384
193833
193270
192688
192074
191423
190728
189985
189198
188375
187521
186641
185733
184800
183845
182871
181885
180894
179905
178923
177952
176994
176049
175114
174188
173267
172352
171440
170533
169630
168733
167842
166955
166069
165182
164292
163395
162488
161568
160631
159675
158695
157690
156661
155606
154529
153432
152316
151185
150039
148883
147717
146542
145359
144169
142972
141769
140562
139352
138136
136907
135655
134377
133076
131763
130451
129147
127852
126564
125282
124003
122726
121450
120175
118900
117624
116348
115071
113793
112513
111231
109948
108662
107374
106084
104791
103496
102200
100901
99599.6
98296.7
96991.9
95685.4
94377.3
93067.7
91756.9
90445
89132.1
87818.4
86504
85189.1
83873.9
82558.7
81243.4
79928.4
78613.9
77300
75987
74675
73364.3
72055
70747.3
69441.5
68137.8
66836.3
65537.3
64241.1
62947.8
61657.7
60371
59088
57808.9
56533.9
55263.4
53997.5
52736.5
51480.8
50230.5
48986.1
47747.7
46515.7
45290.3
44072
42861.1
41657.8
40462.5
39275.7
38097.6
36928.7
35769.5
34620.3
33481.6
32353.9
31237.9
30134
29042.7
27964.7
26900
25848
205052
205020
204963
204880
204773
204641
204487
204307
204103
203873
203618
203341
203045
202732
202406
202067
201715
201351
200972
200578
200167
199738
199292
198829
198349
197854
197344
196821
196286
195740
195186
194625
194058
193480
192883
192258
191601
190906
190169
189391
188578
187731
186849
185931
184977
183993
182985
181962
180934
179913
178906
177917
176949
175999
175063
174139
173220
172306
171395
170487
169582
168684
167793
166908
166028
165149
164268
163381
162484
161572
160643
159691
158714
157710
156679
155623
154543
153443
152325
151192
150046
148889
147723
146549
145369
144181
142987
141789
140587
139384
138177
136956
135710
134432
133128
131809
130490
129182
127884
126595
125311
124030
122751
121473
120196
118919
117642
116364
115086
113806
112525
111242
109957
108670
107381
106090
104797
103502
102205
100905
99603.6
98300.3
96995.1
95688.2
94379.8
93070
91758.9
90446.8
89133.7
87819.8
86505.2
85190.2
83874.9
82559.6
81244.2
79929.2
78614.6
77300.6
75987.6
74675.5
73364.7
72055.4
70747.7
69441.9
68138.1
66836.6
65537.6
64241.3
62948
61657.9
60371.2
59088.1
57809
56534
55263.4
53997.5
52736.5
51480.7
50230.5
48986
47747.6
46515.5
45290.2
44071.8
42860.8
41657.4
40462.1
39275.1
38096.9
36927.8
35768.3
34618.8
33479.7
32351.5
31234.6
30129.7
29037.1
27957.2
26889.9
25834.7
205760
205729
205672
205589
205481
205348
205189
205006
204796
204559
204298
204012
203706
203380
203038
202680
202308
201920
201516
201097
200660
200208
199738
199254
198756
198245
197720
197183
196633
196073
195503
194926
194341
193746
193134
192500
191841
191151
190425
189663
188864
188025
187142
186212
185235
184217
183168
182099
181027
179964
178922
177908
176923
175964
175025
174100
173181
172267
171354
170443
169536
168635
167743
166860
165984
165114
164244
163370
162485
161584
160663
159716
158742
157738
156705
155645
154562
153458
152336
151201
150053
148896
147731
146558
145379
144193
143003
141808
140611
139413
138212
136998
135756
134479
133172
131849
130528
129217
127917
126627
125341
124058
122777
121497
120218
118939
117660
116381
115101
113820
112537
111253
109967
108679
107389
106098
104804
103508
102210
100910
99608
98304.2
96998.6
95691.4
94382.6
93072.5
91761.1
90448.7
89135.4
87821.3
86506.6
85191.5
83876.1
82560.6
81245.1
79930
78615.3
77301.3
75988.1
74676.1
73365.2
72055.8
70748.1
69442.2
68138.4
66836.9
65537.9
64241.6
62948.2
61658.1
60371.3
59088.3
57809.1
56534.1
55263.5
53997.5
52736.5
51480.7
50230.4
48985.9
47747.5
46515.4
45290
44071.6
42860.5
41657
40461.6
39274.5
38096.1
36926.9
35767.1
34617.2
33477.6
32348.8
31231.2
30125.3
29031.3
27949.6
26879.9
25821.8
206586
206555
206497
206412
206301
206164
206001
205812
205596
205354
205085
204791
204474
204135
203776
203398
203002
202589
202159
201713
201250
200771
200278
199771
199252
198722
198180
197626
197061
196485
195900
195308
194708
194099
193477
192837
192178
191493
190777
190026
189236
188400
187512
186566
185561
184505
183410
182291
181168
180058
178977
177933
176926
175955
175009
174079
173158
172240
171323
170407
169495
168591
167696
166814
165943
165080
164222
163361
162489
161600
160686
159745
158773
157769
156734
155670
154582
153474
152349
151211
150063
148906
147741
146569
145391
144207
143019
141827
140633
139438
138240
137029
135789
134514
133208
131884
130561
129250
127949
126658
125371
124087
122803
121522
120241
118960
117679
116398
115116
113834
112550
111264
109977
108689
107398
106106
104811
103514
102216
100915
99612.8
98308.5
97002.5
95694.9
94385.7
93075.2
91763.6
90450.9
89137.3
87823
86508.1
85192.8
83877.3
82561.6
81246.1
79930.8
78616.1
77302
75988.8
74676.6
73365.7
72056.3
70748.5
69442.6
68138.8
66837.2
65538.1
64241.8
62948.4
61658.3
60371.5
59088.4
57809.2
56534.2
55263.5
53997.6
52736.5
51480.7
50230.4
48985.9
47747.4
46515.3
45289.8
44071.3
42860.2
41656.7
40461.1
39273.9
38095.3
36925.8
35765.8
34615.5
33475.5
32346.1
31227.7
30120.7
29025.4
27942
26870.2
25809.5
207531
207498
207437
207348
207232
207088
206918
206720
206496
206244
205966
205661
205331
204977
204600
204202
203784
203347
202892
202419
201931
201427
200911
200382
199843
199293
198732
198162
197581
196992
196395
195791
195180
194560
193927
193279
192613
191922
191203
190449
189655
188811
187908
186938
185902
184808
183670
182506
181339
180189
179072
178000
176972
175985
175028
174090
173162
172236
171312
170389
169470
168560
167662
166779
165911
165055
164206
163356
162495
161615
160709
159773
158803
157799
156761
155693
154601
153490
152363
151224
150075
148918
147753
146582
145405
144223
143037
141847
140655
139462
138264
137053
135814
134539
133234
131913
130592
129281
127981
126689
125401
124115
122830
121546
120263
118981
117699
116416
115133
113848
112563
111277
109989
108699
107407
106114
104819
103522
102222
100921
99618
98313.2
97006.8
95698.7
94389.2
93078.3
91766.3
90453.3
89139.5
87824.9
86509.8
85194.3
83878.6
82562.8
81247.1
79931.8
78616.9
77302.7
75989.5
74677.2
73366.3
72056.8
70749
69443
68139.1
66837.5
65538.5
64242.1
62948.7
61658.5
60371.7
59088.5
57809.3
56534.3
55263.6
53997.6
52736.6
51480.7
50230.4
48985.8
47747.3
46515.1
45289.6
44071.1
42859.9
41656.2
40460.6
39273.2
38094.5
36924.8
35764.4
34613.8
33473.3
32343.3
31224.1
30116.2
29019.6
27934.5
26860.7
25797.9
208596
208561
208495
208400
208275
208122
207939
207729
207491
207225
206931
206610
206263
205892
205496
205078
204639
204180
203702
203207
202696
202171
201634
201085
200527
199959
199382
198797
198203
197602
196994
196377
195751
195113
194460
193792
193103
192391
191649
190874
190056
189186
188256
187258
186194
185071
183904
182713
181520
180345
179207
178115
177071
176069
175099
174148
173208
172271
171335
170402
169475
168558
167655
166769
165901
165047
164202
163357
162501
161626
160725
159793
158825
157820
156781
155711
154617
153504
152377
151238
150090
148933
147769
146598
145422
144242
143057
141869
140679
139485
138287
137073
135831
134556
133252
131935
130619
129311
128012
126720
125431
124143
122856
121571
120286
119002
117718
116434
115149
113864
112577
111290
110000
108710
107417
106123
104827
103529
102229
100927
99623.7
98318.4
97011.4
95702.9
94392.9
93081.7
91769.3
90456
89141.8
87827
86511.7
85195.9
83880
82564.1
81248.3
79932.8
78617.8
77303.6
75990.2
74677.9
73366.9
72057.3
70749.5
69443.5
68139.5
66837.9
65538.8
64242.4
62948.9
61658.7
60371.9
59088.7
57809.5
56534.4
55263.7
53997.7
52736.6
51480.7
50230.4
48985.7
47747.2
46515
45289.4
44070.9
42859.5
41655.8
40460.1
39272.5
38093.6
36923.7
35763
34612
33471.1
32340.5
31220.5
30111.6
29013.8
27927.2
26851.7
25786.9
209788
209749
209677
209573
209437
209269
209071
208842
208585
208298
207984
207642
207274
206881
206464
206025
205565
205085
204587
204073
203543
203000
202444
201878
201303
200719
200127
199526
198916
198297
197668
197027
196374
195705
195019
194314
193587
192834
192051
191235
190378
189473
188511
187489
186407
185271
184096
182900
181703
180525
179381
178280
177225
176211
175226
174261
173305
172354
171406
170462
169525
168599
167688
166796
165922
165063
164215
163367
162510
161635
160735
159802
158834
157830
156790
155721
154628
153516
152390
151253
150106
148950
147787
146617
145442
144262
143079
141892
140704
139510
138308
137088
135841
134564
133263
131952
130642
129339
128042
126749
125459
124170
122882
121595
120309
119024
117738
116453
115167
113880
112592
111303
110013
108721
107428
106133
104836
103537
102237
100934
99629.8
98323.9
97016.4
95707.4
94397
93085.3
91772.6
90458.9
89144.4
87829.3
86513.7
85197.7
83881.6
82565.5
81249.5
79933.9
78618.8
77304.5
75991
74678.6
73367.5
72057.9
70750
69443.9
68140
66838.3
65539.1
64242.7
62949.2
61658.9
60372.1
59088.9
57809.6
56534.5
55263.8
53997.7
52736.6
51480.7
50230.3
48985.7
47747.1
46514.9
45289.3
44070.6
42859.2
41655.4
40459.5
39271.9
38092.8
36922.6
35761.6
34610.3
33468.8
32337.6
31217
30107.1
29008.2
27920.2
26843.1
25776.5
211117
211073
210993
210877
210726
210540
210320
210069
209786
209474
209133
208765
208372
207954
207514
207052
206571
206071
205554
205020
204472
203910
203336
202751
202155
201548
200932
200304
199665
199015
198351
197674
196981
196269
195539
194786
194009
193205
192371
191507
190608
189667
188679
187641
186554
185422
184258
183077
181895
180730
179594
178494
177433
176407
175408
174426
173453
172487
171526
170572
169625
168690
167769
166865
165980
165110
164250
163392
162527
161646
160740
159804
158834
157830
156791
155724
154633
153524
152401
151266
150122
148969
147808
146640
145466
144287
143105
141919
140730
139534
138326
137098
135844
134566
133269
131965
130662
129364
128069
126776
125486
124196
122907
121619
120332
119045
117759
116472
115185
113896
112607
111317
110026
108733
107439
106143
104846
103546
102245
100941
99636.4
98329.8
97021.7
95712.2
94401.3
93089.2
91776
90461.9
89147.1
87831.7
86515.8
85199.6
83883.3
82567
81250.8
79935.1
78619.9
77305.4
75991.9
74679.4
73368.2
72058.6
70750.6
69444.4
68140.4
66838.7
65539.5
64243
62949.5
61659.2
60372.3
59089.1
57809.8
56534.6
55263.9
53997.8
52736.7
51480.8
50230.3
48985.7
47747
46514.7
45289.1
44070.4
42858.9
41655
40459
39271.2
38091.9
36921.5
35760.3
34608.5
33466.6
32334.9
31213.5
30102.8
29002.8
27913.6
26835
25766.9
212644
212593
212502
212371
212200
211990
211744
211464
211150
210807
210434
210035
209612
209165
208697
208209
207701
207176
206633
206074
205498
204907
204302
203682
203050
202405
201749
201082
200403
199712
199007
198286
197546
196786
196004
195200
194371
193516
192635
191728
190792
189823
188816
187771
186687
185571
184429
183274
182118
180974
179851
178755
177689
176651
175636
174637
173648
172667
171694
170729
169774
168829
167896
166978
166076
165189
164312
163438
162558
161663
160747
159804
158829
157823
156786
155721
154634
153529
152410
151279
150139
148989
147831
146666
145494
144318
143137
141952
140760
139559
138342
137104
135843
134563
133272
131976
130681
129387
128094
126802
125511
124221
122932
121643
120355
119067
117780
116492
115203
113914
112624
111333
110040
108747
107451
106154
104856
103555
102253
100949
99643.5
98336.3
97027.5
95717.4
94406
93093.4
91779.8
90465.3
89150.1
87834.3
86518.1
85201.7
83885.1
82568.6
81252.3
79936.4
78621.1
77306.5
75992.8
74680.3
73369
72059.3
70751.2
69445
68141
66839.2
65539.9
64243.4
62949.9
61659.5
60372.6
59089.3
57810
56534.8
55264
53998
52736.8
51480.9
50230.4
48985.7
47747
46514.7
45289
44070.2
42858.7
41654.7
40458.6
39270.6
38091.1
36920.5
35759
34606.9
33464.6
32332.3
31210.2
30098.7
28997.7
27907.3
26827.5
25758
214323
214264
214159
214007
213811
213573
213295
212981
212633
212254
211846
211412
210952
210468
209962
209435
208887
208320
207734
207130
206507
205869
205216
204550
203874
203187
202490
201784
201066
200336
199590
198826
198043
197239
196414
195567
194697
193804
192888
191950
190987
189998
188980
187932
186856
185755
184635
183504
182371
181245
180133
179040
177968
176919
175888
174873
173868
172874
171889
170914
169948
168993
168048
167115
166196
165289
164392
163499
162601
161689
160759
159804
158823
157814
156778
155717
154634
153533
152418
151292
150155
149010
147856
146694
145526
144352
143174
141988
140791
139582
138354
137107
135841
134562
133276
131987
130697
129406
128116
126825
125534
124244
122955
121666
120377
119089
117800
116511
115222
113932
112641
111348
110055
108760
107464
106166
104866
103565
102262
100957
99650.7
98342.8
97033.4
95722.7
94410.7
93097.6
91783.5
90468.6
89153
87836.9
86520.4
85203.7
83886.9
82570.1
81253.7
79937.6
78622.1
77307.4
75993.7
74681
73369.7
72059.9
70751.7
69445.5
68141.4
66839.5
65540.2
64243.7
62950.1
61659.7
60372.7
59089.4
57810.1
56534.8
55264.1
53997.9
52736.8
51480.8
50230.3
48985.6
47746.9
46514.5
45288.7
44069.9
42858.3
41654.2
40458
39269.9
38090.2
36919.4
35757.6
34605.2
33462.4
32329.6
31206.9
30094.6
28992.7
27901.3
26820.4
25749.6
216008
215939
215816
215640
215415
215145
214833
214484
214099
213682
213233
212753
212246
211711
211152
210569
209966
209343
208702
208043
207370
206684
205987
205282
204569
203849
203120
202382
201633
200871
200093
199297
198482
197648
196792
195914
195016
194097
193158
192198
191217
190213
189186
188135
187063
185971
184864
183747
182628
181513
180407
179314
178237
177177
176134
175105
174088
173081
172086
171100
170123
169156
168198
167251
166316
165393
164479
163566
162650
161721
160776
159810
158822
157810
156774
155716
154637
153539
152428
151305
150173
149031
147881
146722
145557
144385
143208
142020
140819
139600
138362
137107
135840
134563
133282
131998
130711
129423
128134
126844
125555
124265
122976
121686
120397
119108
117819
116530
115240
113949
112656
111363
110069
108773
107476
106177
104877
103574
102270
100965
99657.8
98349.2
97039.2
95727.8
94415.3
93101.7
91787.2
90471.9
89155.9
87839.4
86522.6
85205.6
83888.6
82571.7
81255
79938.8
78623.2
77308.4
75994.5
74681.8
73370.4
72060.5
70752.3
69446
68141.8
66839.9
65540.5
64243.9
62950.3
61659.9
60372.9
59089.5
57810.1
56534.9
55264.1
53997.9
52736.7
51480.7
50230.2
48985.4
47746.7
46514.3
45288.5
44069.6
42857.9
41653.8
40457.4
39269.2
38089.4
36918.3
35756.3
34603.6
33460.4
32327.1
31203.9
30090.8
28988.1
27895.8
26813.8
25742
217694
217613
217468
217264
217006
216698
216347
215954
215522
215051
214545
214006
213438
212844
212226
211586
210926
210247
209553
208844
208125
207397
206663
205924
205180
204432
203677
202914
202140
201352
200549
199727
198888
198030
197151
196252
195332
194394
193437
192461
191465
190450
189415
188360
187287
186199
185098
183989
182878
181768
180665
179572
178490
177422
176369
175328
174299
173282
172277
171280
170292
169313
168343
167383
166435
165498
164566
163636
162702
161758
160799
159824
158829
157814
156778
155722
154645
153550
152441
151321
150192
149054
147906
146750
145586
144415
143236
142045
140837
139610
138364
137106
135838
134565
133288
132007
130723
129437
128150
126861
125572
124283
122994
121705
120416
119127
117837
116547
115256
113965
112672
111378
110083
108786
107488
106188
104887
103584
102279
100973
99664.8
98355.5
97044.8
95732.9
94419.8
93105.7
91790.8
90475
89158.7
87841.9
86524.8
85207.6
83890.3
82573.2
81256.4
79940
78624.3
77309.4
75995.4
74682.5
73371
72061.1
70752.8
69446.4
68142.2
66840.2
65540.8
64244.2
62950.5
61660.1
60373
59089.7
57810.2
56535
55264.1
53998
52736.7
51480.7
50230.2
48985.4
47746.6
46514.1
45288.3
44069.4
42857.6
41653.4
40456.9
39268.6
38088.6
36917.4
35755.1
34602.1
33458.6
32324.8
31201.1
30087.4
28984
27890.8
26807.9
25735.1
219382
219285
219114
218874
218573
218217
217810
217354
216853
216312
215739
215139
214518
213876
213212
212527
211819
211090
210345
209587
208822
208053
207282
206510
205737
204962
204183
203397
202601
201791
200966
200123
199263
198384
197486
196570
195634
194681
193710
192720
191713
190688
189646
188586
187512
186424
185326
184221
183113
182007
180905
179810
178725
177652
176590
175540
174501
173474
172458
171451
170453
169462
168482
167512
166553
165601
164654
163707
162757
161801
160833
159849
158848
157827
156789
155733
154658
153565
152458
151341
150214
149079
147934
146778
145613
144440
143257
142061
140846
139613
138363
137104
135838
134567
133293
132015
130734