/*--------------------------------*- C++ -*----------------------------------*\
  =========                 |
  \\      /  F ield         | OpenFOAM: The Open Source CFD Toolbox
   \\    /   O peration     | Website:  https://openfoam.org
    \\  /    A nd           | Version:  9
     \\/     M anipulation  |
\*---------------------------------------------------------------------------*/
FoamFile
{
    format      ascii;
    class       surfaceScalarField;
    location    "0.02";
    object      phi;
}
// * * * * * * * * * * * * * * * * * * * * * * * * * * * * * * * * * * * * * //

dimensions      [0 3 -1 0 0 0 0];

internalField   nonuniform List<scalar> 
24170
(
3.13339e-06
5.50121e-08
3.04693e-06
8.64595e-08
2.97007e-06
7.68649e-08
2.89895e-06
7.11206e-08
2.83109e-06
6.7854e-08
2.77027e-06
6.08209e-08
2.71707e-06
5.3201e-08
2.67047e-06
4.66042e-08
2.62905e-06
4.14235e-08
2.59146e-06
3.75887e-08
2.5565e-06
3.49612e-08
2.52302e-06
3.34727e-08
2.48988e-06
3.31475e-08
2.45568e-06
3.41958e-08
2.41862e-06
3.70583e-08
2.37521e-06
4.34123e-08
2.32098e-06
5.42305e-08
8.38399e-08
2.23714e-06
3.45345e-06
1.88078e-08
3.4556e-06
8.43153e-08
3.44826e-06
8.42022e-08
3.43548e-06
8.38993e-08
3.41934e-06
8.39931e-08
3.3996e-06
8.05675e-08
3.37718e-06
7.56211e-08
3.35283e-06
7.09505e-08
3.32726e-06
6.69969e-08
3.30097e-06
6.38787e-08
3.27423e-06
6.16977e-08
3.2471e-06
6.06017e-08
3.21946e-06
6.07878e-08
3.19098e-06
6.26754e-08
3.16126e-06
6.67756e-08
3.12958e-06
7.50975e-08
3.09577e-06
8.80403e-08
1.21884e-07
3.05772e-06
3.66507e-06
1.62534e-08
3.6774e-06
7.1984e-08
3.68349e-06
7.81134e-08
3.68635e-06
8.10413e-08
3.68623e-06
8.4115e-08
3.6828e-06
8.39932e-08
3.67653e-06
8.18897e-08
3.66792e-06
7.95668e-08
3.65729e-06
7.76265e-08
3.64488e-06
7.62836e-08
3.63084e-06
7.57392e-08
3.61519e-06
7.62489e-08
3.59786e-06
7.81257e-08
3.57862e-06
8.1909e-08
3.55711e-06
8.82872e-08
3.53314e-06
9.90651e-08
3.50595e-06
1.15232e-07
1.44941e-07
3.4829e-06
3.92438e-06
1.72634e-08
3.93482e-06
6.15407e-08
3.94041e-06
7.25223e-08
3.94428e-06
7.71759e-08
3.94667e-06
8.17197e-08
3.94709e-06
8.358e-08
3.94561e-06
8.33631e-08
3.94249e-06
8.26948e-08
3.93781e-06
8.23024e-08
3.93163e-06
8.24594e-08
3.92396e-06
8.34104e-08
3.91475e-06
8.54648e-08
3.90387e-06
8.90029e-08
3.89117e-06
9.46046e-08
3.87644e-06
1.03025e-07
3.85981e-06
1.15687e-07
3.84138e-06
1.33667e-07
1.60803e-07
3.82552e-06
4.20748e-06
1.69087e-08
4.21493e-06
5.40973e-08
4.21932e-06
6.81227e-08
4.22252e-06
7.39847e-08
4.22503e-06
7.92105e-08
4.22629e-06
8.23151e-08
4.22616e-06
8.34964e-08
4.22471e-06
8.41453e-08
4.22198e-06
8.50315e-08
4.21797e-06
8.6468e-08
4.21265e-06
8.87252e-08
4.20598e-06
9.21405e-08
4.19786e-06
9.7123e-08
4.18823e-06
1.04236e-07
4.17706e-06
1.14188e-07
4.16472e-06
1.2803e-07
4.15178e-06
1.46608e-07
1.71688e-07
4.1409e-06
4.51013e-06
1.5863e-08
4.51571e-06
4.85239e-08
4.51967e-06
6.41626e-08
4.52247e-06
7.11767e-08
4.52475e-06
7.69315e-08
4.52609e-06
8.09761e-08
4.52627e-06
8.33189e-08
4.5253e-06
8.51104e-08
4.52322e-06
8.71206e-08
4.51999e-06
8.96973e-08
4.51558e-06
9.31272e-08
4.50997e-06
9.77549e-08
4.50311e-06
1.03985e-07
4.49502e-06
1.12326e-07
4.48583e-06
1.23374e-07
4.476e-06
1.3786e-07
4.4663e-06
1.56307e-07
1.79393e-07
4.4586e-06
4.8338e-06
1.47852e-08
4.83836e-06
4.39627e-08
4.84218e-06
6.03373e-08
4.84483e-06
6.85349e-08
4.84688e-06
7.48792e-08
4.84812e-06
7.97377e-08
4.84832e-06
8.31111e-08
4.84749e-06
8.59417e-08
4.84564e-06
8.89775e-08
4.84274e-06
9.25945e-08
4.83878e-06
9.70872e-08
4.83374e-06
1.0279e-07
4.82765e-06
1.10078e-07
4.8206e-06
1.19381e-07
4.81282e-06
1.31156e-07
4.80481e-06
1.45866e-07
4.79737e-06
1.63743e-07
1.84904e-07
4.79186e-06
5.18057e-06
1.37984e-08
5.18444e-06
4.00938e-08
5.18808e-06
5.66906e-08
5.19064e-06
6.59828e-08
5.19254e-06
7.29711e-08
5.1937e-06
7.85778e-08
5.19391e-06
8.29002e-08
5.19315e-06
8.67057e-08
5.19143e-06
9.06985e-08
5.18875e-06
9.52736e-08
5.18511e-06
1.00725e-07
5.18054e-06
1.07364e-07
5.1751e-06
1.15517e-07
5.16895e-06
1.25526e-07
5.1624e-06
1.37708e-07
5.15596e-06
1.5231e-07
5.15035e-06
1.69347e-07
1.88667e-07
5.14659e-06
5.55226e-06
1.28738e-08
5.55555e-06
3.68058e-08
5.55894e-06
5.33031e-08
5.56142e-06
6.34956e-08
5.56326e-06
7.11347e-08
5.5644e-06
7.74393e-08
5.56466e-06
8.2642e-08
5.564e-06
8.7367e-08
5.56244e-06
9.22558e-08
5.56e-06
9.77083e-08
5.55672e-06
1.04011e-07
5.55264e-06
1.11439e-07
5.5479e-06
1.20265e-07
5.54269e-06
1.30736e-07
5.53735e-06
1.43045e-07
5.53238e-06
1.57278e-07
5.52842e-06
1.73306e-07
1.9086e-07
5.52623e-06
5.95065e-06
1.20048e-08
5.95344e-06
3.40083e-08
5.95655e-06
5.01977e-08
5.95898e-06
6.10635e-08
5.96079e-06
6.9321e-08
5.96196e-06
7.62716e-08
5.96233e-06
8.22767e-08
5.96184e-06
8.78531e-08
5.96053e-06
9.35665e-08
5.95843e-06
9.98052e-08
5.9556e-06
1.06839e-07
5.95214e-06
1.14902e-07
5.9482e-06
1.24205e-07
5.94402e-06
1.34912e-07
5.93996e-06
1.47108e-07
5.93647e-06
1.60766e-07
5.9341e-06
1.75676e-07
1.91534e-07
5.93343e-06
6.37762e-06
1.12006e-08
6.38002e-06
3.16085e-08
6.38286e-06
4.73579e-08
6.38524e-06
5.86758e-08
6.38708e-06
6.74875e-08
6.38833e-06
7.50226e-08
6.38887e-06
8.17373e-08
6.38864e-06
8.80755e-08
6.38769e-06
9.45228e-08
6.38605e-06
1.01439e-07
6.38382e-06
1.09069e-07
6.38112e-06
1.17604e-07
6.37813e-06
1.27192e-07
6.37512e-06
1.37923e-07
6.37243e-06
1.49802e-07
6.37047e-06
1.62727e-07
6.36969e-06
1.76451e-07
1.90683e-07
6.37054e-06
5.74147e-06
1.05692e-08
5.74325e-06
2.98273e-08
5.74547e-06
4.51369e-08
5.74747e-06
5.66743e-08
5.74907e-06
6.58831e-08
5.75024e-06
7.38564e-08
5.75089e-06
8.10882e-08
5.75098e-06
8.79837e-08
5.75054e-06
9.4965e-08
5.74962e-06
1.02357e-07
5.74831e-06
1.10377e-07
5.74674e-06
1.19177e-07
5.74507e-06
1.28861e-07
5.74353e-06
1.39464e-07
5.74239e-06
1.50942e-07
5.74196e-06
1.63155e-07
5.74256e-06
1.75848e-07
1.88757e-07
5.74449e-06
6.99882e-06
9.90316e-09
7.00067e-06
2.79809e-08
7.00305e-06
4.27568e-08
7.00533e-06
5.43965e-08
7.00726e-06
6.39476e-08
7.00878e-06
7.23347e-08
7.00981e-06
8.00572e-08
7.01032e-06
8.7481e-08
7.01032e-06
9.49596e-08
7.00991e-06
1.02771e-07
7.00919e-06
1.11098e-07
7.00831e-06
1.20052e-07
7.00749e-06
1.29687e-07
7.00696e-06
1.39992e-07
7.00702e-06
1.50883e-07
7.00797e-06
1.622e-07
7.01012e-06
1.73696e-07
1.85148e-07
7.01373e-06
8.53155e-06
9.20208e-09
8.53347e-06
2.6061e-08
8.53604e-06
4.01879e-08
8.53867e-06
5.17671e-08
8.54107e-06
6.15485e-08
8.54313e-06
7.02717e-08
8.54478e-06
7.84039e-08
8.546e-06
8.62675e-08
8.54681e-06
9.41456e-08
8.54732e-06
1.0226e-07
8.54767e-06
1.1075e-07
8.54804e-06
1.19685e-07
8.54865e-06
1.29074e-07
8.54977e-06
1.3887e-07
8.55169e-06
1.48965e-07
8.55469e-06
1.59195e-07
8.55905e-06
1.69336e-07
1.79216e-07
8.56499e-06
1.04e-05
8.45506e-09
1.0402e-05
2.40151e-08
1.04049e-05
3.73345e-08
1.0408e-05
4.86337e-08
1.04111e-05
5.84567e-08
1.0414e-05
6.73617e-08
1.04167e-05
7.57469e-08
1.0419e-05
8.38832e-08
1.04212e-05
9.1984e-08
1.04233e-05
1.00209e-07
1.04254e-05
1.08649e-07
1.04277e-05
1.17333e-07
1.04305e-05
1.26236e-07
1.04341e-05
1.35288e-07
1.04387e-05
1.44371e-07
1.04446e-05
1.53334e-07
1.04519e-05
1.6199e-07
1.7022e-07
1.04609e-05
1.26776e-05
7.62676e-09
1.26799e-05
2.17123e-08
1.26833e-05
3.39895e-08
1.26872e-05
4.47126e-08
1.26914e-05
5.42903e-08
1.26956e-05
6.31197e-08
1.26998e-05
7.15053e-08
1.27041e-05
7.96537e-08
1.27083e-05
8.7711e-08
1.27128e-05
9.57741e-08
1.27175e-05
1.03887e-07
1.27228e-05
1.12045e-07
1.27289e-05
1.202e-07
1.27359e-05
1.28271e-07
1.27441e-05
1.36149e-07
1.27537e-05
1.43706e-07
1.27649e-05
1.50798e-07
1.57357e-07
1.27778e-05
1.54542e-05
6.63837e-09
1.5457e-05
1.89059e-08
1.54612e-05
2.97719e-08
1.54664e-05
3.95098e-08
1.54723e-05
4.84352e-08
1.54786e-05
5.68102e-08
1.54852e-05
6.4834e-08
1.54922e-05
7.2638e-08
1.54997e-05
8.03028e-08
1.55076e-05
8.78688e-08
1.55161e-05
9.53387e-08
1.55255e-05
1.02681e-07
1.55358e-05
1.09838e-07
1.55474e-05
1.1673e-07
1.55603e-05
1.23267e-07
1.55746e-05
1.29353e-07
1.55905e-05
1.34886e-07
1.3984e-07
1.5608e-05
1.88389e-05
5.3427e-09
1.88427e-05
1.51801e-08
1.88484e-05
2.4048e-08
1.88557e-05
3.22239e-08
1.88642e-05
3.99491e-08
1.88736e-05
4.7367e-08
1.88839e-05
5.45654e-08
1.88949e-05
6.15924e-08
1.89067e-05
6.84657e-08
1.89194e-05
7.51761e-08
1.89331e-05
8.16921e-08
1.89478e-05
8.79649e-08
1.89637e-05
9.3934e-08
1.89809e-05
9.95325e-08
1.89995e-05
1.04691e-07
1.90195e-05
1.09346e-07
1.90409e-05
1.13431e-07
1.16952e-07
1.90638e-05
2.29652e-05
3.46158e-09
2.29706e-05
9.84305e-09
2.29788e-05
1.57905e-08
2.29894e-05
2.15961e-08
2.3002e-05
2.74287e-08
2.3016e-05
3.32928e-08
2.30315e-05
3.91442e-08
2.30481e-05
4.49423e-08
2.30659e-05
5.06439e-08
2.30849e-05
5.61927e-08
2.31051e-05
6.15259e-08
2.31265e-05
6.65814e-08
2.31491e-05
7.13006e-08
2.3173e-05
7.5629e-08
2.31982e-05
7.95178e-08
2.32246e-05
8.29271e-08
2.32522e-05
8.58212e-08
8.82202e-08
2.32809e-05
1.68124e-05
1.79962e-09
1.6817e-05
5.18726e-09
1.68242e-05
8.59559e-09
1.68334e-05
1.23851e-08
1.68442e-05
1.66644e-08
1.68562e-05
2.12752e-08
1.68693e-05
2.60534e-08
1.68833e-05
3.09036e-08
1.68982e-05
3.57437e-08
1.6914e-05
4.04816e-08
1.69304e-05
4.50317e-08
1.69477e-05
4.93243e-08
1.69657e-05
5.33019e-08
1.69844e-05
5.6916e-08
1.70038e-05
6.01276e-08
1.70238e-05
6.29084e-08
1.70444e-05
6.5236e-08
6.71329e-08
1.70655e-05
1.46362e-05
1.45782e-10
1.46409e-05
4.91252e-10
1.46482e-05
1.33018e-09
1.46574e-05
3.2051e-09
1.46679e-05
6.10197e-09
1.46796e-05
9.60925e-09
1.46922e-05
1.34564e-08
1.47056e-05
1.75185e-08
1.47196e-05
2.16689e-08
1.47344e-05
2.57738e-08
1.47497e-05
2.97298e-08
1.47655e-05
3.34645e-08
1.47819e-05
3.69215e-08
1.47988e-05
4.00559e-08
1.48161e-05
4.2834e-08
1.48337e-05
4.52343e-08
1.48517e-05
4.72419e-08
4.8878e-08
1.487e-05
1.27417e-05
-1.43607e-09
1.27464e-05
-4.23881e-09
1.27538e-05
-6.04029e-09
1.27629e-05
-5.83413e-09
1.2773e-05
-4.05414e-09
1.27841e-05
-1.48956e-09
1.2796e-05
1.58061e-09
1.28085e-05
5.03317e-09
1.28215e-05
8.67048e-09
1.28349e-05
1.23074e-08
1.28488e-05
1.58301e-08
1.28631e-05
1.91681e-08
1.28778e-05
2.22667e-08
1.28928e-05
2.50832e-08
1.2908e-05
2.75885e-08
1.29235e-05
2.97658e-08
1.29391e-05
3.16053e-08
3.31264e-08
1.29549e-05
1.10923e-05
-2.81499e-09
1.10971e-05
-9.0049e-09
1.11046e-05
-1.36122e-08
1.11135e-05
-1.46663e-08
1.11231e-05
-1.36813e-08
1.11335e-05
-1.18936e-08
1.11445e-05
-9.43224e-09
1.1156e-05
-6.41764e-09
1.11678e-05
-3.14749e-09
1.11799e-05
1.51248e-10
1.11924e-05
3.36621e-09
1.12051e-05
6.42989e-09
1.12181e-05
9.28717e-09
1.12313e-05
1.18971e-08
1.12447e-05
1.42358e-08
1.12581e-05
1.62892e-08
1.12717e-05
1.80515e-08
1.95398e-08
1.12853e-05
9.65628e-06
-3.88399e-09
9.66114e-06
-1.38613e-08
9.66883e-06
-2.13052e-08
9.67731e-06
-2.31463e-08
9.68641e-06
-2.27753e-08
9.69612e-06
-2.16031e-08
9.70621e-06
-1.95283e-08
9.71657e-06
-1.67753e-08
9.72718e-06
-1.37556e-08
9.73803e-06
-1.06999e-08
9.7491e-06
-7.70076e-09
9.76035e-06
-4.82237e-09
9.77176e-06
-2.12146e-09
9.78329e-06
3.60602e-10
9.79492e-06
2.60792e-09
9.80661e-06
4.60489e-09
9.81831e-06
6.35104e-09
7.86263e-09
9.82998e-06
8.40586e-06
-4.38812e-09
8.41141e-06
-1.94177e-08
8.41879e-06
-2.8685e-08
8.4265e-06
-3.08573e-08
8.43503e-06
-3.13046e-08
8.44414e-06
-3.07054e-08
8.45342e-06
-2.88174e-08
8.46281e-06
-2.61574e-08
8.47231e-06
-2.32611e-08
8.48195e-06
-2.03359e-08
8.4917e-06
-1.74493e-08
8.50154e-06
-1.46632e-08
8.51145e-06
-1.20347e-08
8.52141e-06
-9.60051e-09
8.5314e-06
-7.37854e-09
8.54138e-06
-5.37894e-09
8.55134e-06
-3.60278e-09
-2.03595e-09
8.56123e-06
7.3155e-06
-2.60472e-09
7.32341e-06
-2.73222e-08
7.33047e-06
-3.57474e-08
7.33744e-06
-3.78269e-08
7.34547e-06
-3.93392e-08
7.35402e-06
-3.92578e-08
7.36261e-06
-3.73985e-08
7.37112e-06
-3.4675e-08
7.37959e-06
-3.17323e-08
7.38802e-06
-2.87566e-08
7.39638e-06
-2.58149e-08
7.40469e-06
-2.29773e-08
7.41296e-06
-2.02999e-08
7.42117e-06
-1.78145e-08
7.42933e-06
-1.55362e-08
7.43742e-06
-1.3472e-08
7.44544e-06
-1.16198e-08
-9.96527e-09
7.45337e-06
6.36262e-06
4.83805e-09
6.37427e-06
-3.89687e-08
6.38276e-06
-4.42421e-08
6.39078e-06
-4.5839e-08
6.39906e-06
-4.76255e-08
6.40706e-06
-4.72548e-08
6.41452e-06
-4.48615e-08
6.42157e-06
-4.17235e-08
6.4283e-06
-3.84561e-08
6.43472e-06
-3.51814e-08
6.44088e-06
-3.19728e-08
6.44681e-06
-2.89125e-08
6.45257e-06
-2.60532e-08
6.45817e-06
-2.34183e-08
6.46365e-06
-2.10168e-08
6.46903e-06
-1.88505e-08
6.47432e-06
-1.6911e-08
-1.51719e-08
6.47953e-06
5.53617e-06
1.41335e-08
5.54864e-06
-5.14419e-08
5.55954e-06
-5.51435e-08
5.56964e-06
-5.59383e-08
5.57833e-06
-5.63142e-08
5.58499e-06
-5.39172e-08
5.58973e-06
-4.95945e-08
5.59308e-06
-4.50743e-08
5.59546e-06
-4.08366e-08
5.59713e-06
-3.68578e-08
5.59831e-06
-3.31474e-08
5.59914e-06
-2.97444e-08
5.59975e-06
-2.66637e-08
5.60023e-06
-2.38987e-08
5.60065e-06
-2.1436e-08
5.60107e-06
-1.92719e-08
5.60156e-06
-1.73961e-08
-1.57261e-08
5.60211e-06
4.85736e-06
-1.56208e-08
4.86115e-06
-5.52299e-08
4.86256e-06
-5.6554e-08
4.86109e-06
-5.44685e-08
4.85853e-06
-5.37573e-08
4.8537e-06
-4.90808e-08
4.84662e-06
-4.25213e-08
4.83788e-06
-3.63347e-08
4.8281e-06
-3.10571e-08
4.81786e-06
-2.6611e-08
4.80757e-06
-2.286e-08
4.79753e-06
-1.97002e-08
4.7879e-06
-1.70389e-08
4.7788e-06
-1.4798e-08
4.77028e-06
-1.29141e-08
4.76238e-06
-1.13772e-08
4.75521e-06
-1.02176e-08
-9.94295e-09
4.74942e-06
4.18706e-06
4.13183e-06
4.07527e-06
4.0208e-06
3.96705e-06
3.91796e-06
3.87544e-06
3.83911e-06
3.80805e-06
3.78144e-06
3.75858e-06
3.73888e-06
3.72184e-06
3.70704e-06
3.69413e-06
3.68275e-06
3.67253e-06
3.66259e-06
1.80148e-07
-1.80148e-07
4.29106e-07
-2.48958e-07
6.75182e-07
-2.46076e-07
8.97506e-07
-2.22325e-07
1.08996e-06
-1.92452e-07
1.25134e-06
-1.61383e-07
1.38235e-06
-1.31012e-07
1.48438e-06
-1.02026e-07
1.55875e-06
-7.43746e-08
1.60627e-06
-4.75171e-08
1.62716e-06
-2.08909e-08
1.62115e-06
6.01399e-09
1.58418e-06
3.69674e-08
1.52174e-06
6.24443e-08
1.43916e-06
8.25804e-08
1.34217e-06
9.69828e-08
1.23513e-06
1.0704e-07
1.12003e-06
1.15105e-07
9.95398e-07
1.24629e-07
8.5577e-07
1.39629e-07
6.93038e-07
1.62731e-07
4.97433e-07
1.95605e-07
2.5933e-07
2.38103e-07
-2.94808e-08
2.88811e-07
-3.754e-07
3.45919e-07
-7.78674e-07
4.03274e-07
-1.2334e-06
4.54725e-07
-1.73026e-06
4.9686e-07
-2.25772e-06
5.27463e-07
-2.8033e-06
5.45582e-07
-3.35467e-06
5.51362e-07
-3.90045e-06
5.45789e-07
-4.43086e-06
5.30409e-07
-4.93793e-06
5.07062e-07
-5.41557e-06
4.77647e-07
-5.85952e-06
4.43952e-07
-6.26711e-06
4.07586e-07
-6.637e-06
3.69888e-07
-6.9689e-06
3.31901e-07
-7.26329e-06
2.94395e-07
-7.52119e-06
2.57894e-07
-7.74392e-06
2.22727e-07
-7.93298e-06
1.89069e-07
-8.08998e-06
1.56993e-07
-8.21648e-06
1.26507e-07
-8.31405e-06
9.75698e-08
-8.38418e-06
7.01271e-08
-8.42844e-06
4.42542e-08
-8.44871e-06
2.0273e-08
-8.44748e-06
-1.22458e-09
-8.42903e-06
-1.84507e-08
-8.3955e-06
-3.35285e-08
-8.34846e-06
-4.70465e-08
-8.2889e-06
-5.95562e-08
-8.21754e-06
-7.13571e-08
-8.13491e-06
-8.26342e-08
-8.04139e-06
-9.35238e-08
-7.93724e-06
-1.04151e-07
-7.8226e-06
-1.14641e-07
-7.69747e-06
-1.25129e-07
-7.5617e-06
-1.35762e-07
-7.41501e-06
-1.46695e-07
-7.25692e-06
-1.58087e-07
-7.08682e-06
-1.70098e-07
-6.90395e-06
-1.82876e-07
-6.7074e-06
-1.96546e-07
-6.49621e-06
-2.11197e-07
-6.26935e-06
-2.26859e-07
-6.02585e-06
-2.43494e-07
-5.76489e-06
-2.60968e-07
-5.48584e-06
-2.79046e-07
-5.18846e-06
-2.97379e-07
-4.87295e-06
-3.1551e-07
-4.54006e-06
-3.3289e-07
-4.19115e-06
-3.48906e-07
-3.82823e-06
-3.62929e-07
-3.45386e-06
-3.74366e-07
-3.07114e-06
-3.82716e-07
-2.68353e-06
-3.87619e-07
-2.29464e-06
-3.88889e-07
-1.90811e-06
-3.86524e-07
-1.52742e-06
-3.80688e-07
-1.15576e-06
-3.71659e-07
-7.96022e-07
-3.59742e-07
-4.50802e-07
-3.4522e-07
-1.21668e-07
-3.29134e-07
1.91754e-07
-3.13421e-07
4.89249e-07
-2.97496e-07
7.703e-07
-2.81051e-07
1.03503e-06
-2.64731e-07
1.28385e-06
-2.48822e-07
1.51736e-06
-2.3351e-07
1.73627e-06
-2.18907e-07
1.94134e-06
-2.05072e-07
2.13337e-06
-1.92027e-07
2.31313e-06
-1.79767e-07
2.4814e-06
-1.68268e-07
2.6389e-06
-1.57495e-07
2.7863e-06
-1.47407e-07
2.92426e-06
-1.37959e-07
3.05337e-06
-1.29103e-07
3.17416e-06
-1.20794e-07
3.28715e-06
-1.12988e-07
3.39279e-06
-1.0564e-07
3.4915e-06
-9.87091e-08
3.58365e-06
-9.21552e-08
3.66959e-06
-8.59392e-08
3.74962e-06
-8.00233e-08
3.82399e-06
-7.43709e-08
3.89293e-06
-6.8946e-08
3.95665e-06
-6.37139e-08
4.01529e-06
-5.86411e-08
4.06898e-06
-5.36958e-08
4.11783e-06
-4.88486e-08
4.16191e-06
-4.40739e-08
4.20125e-06
-3.9348e-08
4.2359e-06
-3.46448e-08
4.26584e-06
-2.99444e-08
4.29111e-06
-2.52661e-08
4.31174e-06
-2.06266e-08
4.32748e-06
-1.574e-08
4.33725e-06
-9.76939e-09
4.33987e-06
-2.62504e-09
4.3348e-06
5.07202e-09
4.32399e-06
1.0813e-08
4.3089e-06
1.50818e-08
4.29077e-06
1.81357e-08
4.27055e-06
2.02131e-08
4.24898e-06
2.15734e-08
4.22662e-06
2.23622e-08
4.20391e-06
2.27104e-08
4.18119e-06
2.27202e-08
4.15872e-06
2.24723e-08
4.13668e-06
2.20324e-08
4.11523e-06
2.14529e-08
4.09445e-06
2.07766e-08
4.07442e-06
2.00377e-08
4.05515e-06
1.92644e-08
4.03667e-06
1.84786e-08
4.01898e-06
1.76977e-08
4.00204e-06
1.6935e-08
3.98584e-06
1.62002e-08
3.97034e-06
1.55004e-08
3.9555e-06
1.484e-08
3.94128e-06
1.4222e-08
3.92763e-06
1.36477e-08
3.91451e-06
1.31177e-08
3.90188e-06
1.26319e-08
3.88969e-06
1.21897e-08
3.8779e-06
1.17904e-08
3.86647e-06
1.14331e-08
3.85535e-06
1.1117e-08
3.84451e-06
1.08415e-08
3.8339e-06
1.06059e-08
3.82349e-06
1.04102e-08
3.81324e-06
1.02546e-08
3.8031e-06
1.014e-08
3.79303e-06
1.0068e-08
3.78299e-06
1.00412e-08
3.77293e-06
1.00637e-08
3.76278e-06
1.01412e-08
3.7525e-06
1.02816e-08
3.74201e-06
1.04961e-08
3.73121e-06
1.07994e-08
3.71999e-06
1.12121e-08
3.70823e-06
1.17616e-08
3.69575e-06
1.24858e-08
3.68231e-06
1.34367e-08
3.66762e-06
1.46871e-08
3.65128e-06
1.634e-08
3.63274e-06
1.8545e-08
3.61121e-06
2.15244e-08
3.5856e-06
2.56184e-08
3.55423e-06
3.1365e-08
3.51456e-06
3.96677e-08
3.46257e-06
5.1996e-08
3.39102e-06
7.15428e-08
3.28943e-06
1.0159e-07
3.12643e-06
1.63008e-07
2.32336e-07
2.89409e-06
2.31244e-07
-4.11393e-07
4.28312e-07
-4.46026e-07
5.84296e-07
-4.02059e-07
7.09943e-07
-3.47972e-07
8.10588e-07
-2.93097e-07
8.88898e-07
-2.39694e-07
9.46323e-07
-1.88436e-07
9.83543e-07
-1.39247e-07
1.00075e-06
-9.15801e-08
9.97863e-07
-4.4631e-08
9.74357e-07
2.61472e-09
9.29173e-07
5.11981e-08
8.6408e-07
1.0206e-07
7.72517e-07
1.54008e-07
6.49455e-07
2.05642e-07
4.89767e-07
2.56671e-07
2.88064e-07
3.08744e-07
3.81652e-08
3.65004e-07
-2.66191e-07
4.28986e-07
-6.29774e-07
5.03211e-07
-1.05426e-06
5.87222e-07
-1.53631e-06
6.77649e-07
-2.0672e-06
7.68996e-07
-2.6334e-06
8.55008e-07
-3.21742e-06
9.29945e-07
-3.80296e-06
9.88812e-07
-4.37606e-06
1.02782e-06
-4.92436e-06
1.04516e-06
-5.43787e-06
1.04097e-06
-5.9093e-06
1.01701e-06
-6.33416e-06
9.76219e-07
-6.71056e-06
9.22193e-07
-7.03889e-06
8.58736e-07
-7.32128e-06
7.89452e-07
-7.56111e-06
7.17478e-07
-7.7625e-06
6.45339e-07
-7.92982e-06
5.74912e-07
-8.0674e-06
5.07466e-07
-8.17925e-06
4.43751e-07
-8.26897e-06
3.84119e-07
-8.3397e-06
3.28622e-07
-8.39409e-06
2.77122e-07
-8.4344e-06
2.29372e-07
-8.46249e-06
1.85085e-07
-8.47995e-06
1.43966e-07
-8.48813e-06
1.05746e-07
-8.48822e-06
7.02256e-08
-8.4812e-06
3.72264e-08
-8.46781e-06
6.88555e-09
-8.44675e-06
-2.22884e-08
-8.41553e-06
-4.96637e-08
-8.37301e-06
-7.60508e-08
-8.31879e-06
-1.01271e-07
-8.25299e-06
-1.25356e-07
-8.17592e-06
-1.48427e-07
-8.08791e-06
-1.70636e-07
-7.98928e-06
-1.92158e-07
-7.88024e-06
-2.13191e-07
-7.76092e-06
-2.33959e-07
-7.63133e-06
-2.54716e-07
-7.49136e-06
-2.75739e-07
-7.34072e-06
-2.97332e-07
-7.17899e-06
-3.19812e-07
-7.00559e-06
-3.43499e-07
-6.81978e-06
-3.68693e-07
-6.62067e-06
-3.95655e-07
-6.40729e-06
-4.24574e-07
-6.17862e-06
-4.55531e-07
-5.93365e-06
-4.88461e-07
-5.6715e-06
-5.23117e-07
-5.39151e-06
-5.5904e-07
-5.09335e-06
-5.95539e-07
-4.77716e-06
-6.31697e-07
-4.44365e-06
-6.66403e-07
-4.09414e-06
-6.98415e-07
-3.73062e-06
-7.26449e-07
-3.35569e-06
-7.49299e-07
-2.97245e-06
-7.65949e-07
-2.58439e-06
-7.75681e-07
-2.19514e-06
-7.78141e-07
-1.80829e-06
-7.73368e-07
-1.42723e-06
-7.61756e-07
-1.05489e-06
-7.43992e-07
-6.93683e-07
-7.20952e-07
-3.45213e-07
-6.9369e-07
-1.07942e-08
-6.63553e-07
3.07582e-07
-6.31798e-07
6.0918e-07
-5.99093e-07
8.9424e-07
-5.66111e-07
1.16303e-06
-5.33522e-07
1.41602e-06
-5.01812e-07
1.65382e-06
-4.71309e-07
1.87713e-06
-4.42217e-07
2.08671e-06
-4.14648e-07
2.28333e-06
-3.88646e-07
2.46776e-06
-3.64201e-07
2.64076e-06
-3.41269e-07
2.80305e-06
-3.19784e-07
2.95531e-06
-2.99666e-07
3.09818e-06
-2.8083e-07
3.23227e-06
-2.63188e-07
3.35812e-06
-2.46653e-07
3.47628e-06
-2.31141e-07
3.58721e-06
-2.16571e-07
3.69137e-06
-2.02867e-07
3.78917e-06
-1.89954e-07
3.88099e-06
-1.77763e-07
3.96719e-06
-1.66224e-07
4.04809e-06
-1.55272e-07
4.12399e-06
-1.44844e-07
4.19515e-06
-1.34877e-07
4.26182e-06
-1.25312e-07
4.32422e-06
-1.16092e-07
4.38253e-06
-1.07163e-07
4.43693e-06
-9.84741e-08
4.48756e-06
-8.99793e-08
4.53455e-06
-8.16341e-08
4.57801e-06
-7.34007e-08
4.618e-06
-6.52517e-08
4.65452e-06
-5.71506e-08
4.6878e-06
-4.90181e-08
4.71885e-06
-4.08196e-08
4.74887e-06
-3.26496e-08
4.77833e-06
-2.43845e-08
4.80573e-06
-1.65889e-08
4.83022e-06
-9.4077e-09
4.85121e-06
-2.85279e-09
4.8685e-06
2.92056e-09
4.88205e-06
8.02631e-09
4.89197e-06
1.24372e-08
4.89846e-06
1.62208e-08
4.90176e-06
1.94247e-08
4.90213e-06
2.21027e-08
4.89986e-06
2.43035e-08
4.89524e-06
2.60725e-08
4.88856e-06
2.74524e-08
4.88012e-06
2.84842e-08
4.87017e-06
2.92066e-08
4.859e-06
2.9657e-08
4.84682e-06
2.98714e-08
4.83387e-06
2.98837e-08
4.82035e-06
2.97264e-08
4.80642e-06
2.94298e-08
4.79224e-06
2.90218e-08
4.77793e-06
2.85285e-08
4.7636e-06
2.79728e-08
4.74935e-06
2.73759e-08
4.73522e-06
2.67559e-08
4.72128e-06
2.61293e-08
4.70756e-06
2.55098e-08
4.69409e-06
2.49096e-08
4.68086e-06
2.43387e-08
4.6679e-06
2.38057e-08
4.65519e-06
2.33181e-08
4.64272e-06
2.2882e-08
4.63047e-06
2.25032e-08
4.61842e-06
2.21869e-08
4.60655e-06
2.19386e-08
4.59483e-06
2.17642e-08
4.58322e-06
2.1671e-08
4.57169e-06
2.16682e-08
4.56021e-06
2.17672e-08
4.54872e-06
2.1984e-08
4.53718e-06
2.23394e-08
4.52553e-06
2.28614e-08
4.5137e-06
2.35883e-08
4.50162e-06
2.45719e-08
4.48917e-06
2.58836e-08
4.47624e-06
2.76224e-08
4.46265e-06
2.99281e-08
4.44819e-06
3.30017e-08
4.43258e-06
3.71372e-08
4.41541e-06
4.27838e-08
4.39615e-06
5.0627e-08
4.37397e-06
6.18475e-08
4.34778e-06
7.81872e-08
4.31544e-06
1.03885e-07
4.27436e-06
1.42668e-07
4.21794e-06
2.19424e-07
3.26957e-07
4.12332e-06
1.5911e-07
-5.70502e-07
2.62845e-07
-5.49761e-07
3.34458e-07
-4.73672e-07
3.84327e-07
-3.97841e-07
4.1631e-07
-3.2508e-07
4.31414e-07
-2.54798e-07
4.28975e-07
-1.85996e-07
4.0735e-07
-1.17622e-07
3.64297e-07
-4.85271e-08
2.96965e-07
2.27012e-08
2.02261e-07
9.73179e-08
7.70235e-08
1.76436e-07
-8.15534e-08
2.60637e-07
-2.77476e-07
3.4993e-07
-5.15904e-07
4.44071e-07
-8.02494e-07
5.43261e-07
-1.14182e-06
6.48068e-07
-1.53546e-06
7.5864e-07
-1.98016e-06
8.73692e-07
-2.46685e-06
9.89901e-07
-2.98161e-06
1.10198e-06
-3.50755e-06
1.20359e-06
-4.02716e-06
1.28861e-06
-4.52434e-06
1.35219e-06
-4.98575e-06
1.39135e-06
-5.40203e-06
1.4051e-06
-5.76847e-06
1.39425e-06
-6.08456e-06
1.36125e-06
-6.35323e-06
1.30964e-06
-6.57982e-06
1.24361e-06
-6.77102e-06
1.16742e-06
-6.93385e-06
1.08503e-06
-7.07492e-06
9.99798e-07
-7.19983e-06
9.14364e-07
-7.31297e-06
8.30618e-07
-7.41742e-06
7.49792e-07
-7.5151e-06
6.72586e-07
-7.60692e-06
5.99291e-07
-7.6931e-06
5.29926e-07
-7.77331e-06
4.64331e-07
-7.84694e-06
4.02256e-07
-7.91324e-06
3.43416e-07
-7.97139e-06
2.87526e-07
-8.02063e-06
2.34325e-07
-8.06025e-06
1.83585e-07
-8.08961e-06
1.35111e-07
-8.10813e-06
8.87394e-08
-8.11523e-06
4.43347e-08
-8.1101e-06
1.74905e-09
-8.09311e-06
-3.92739e-08
-8.06401e-06
-7.87703e-08
-8.02331e-06
-1.1675e-07
-7.97135e-06
-1.53228e-07
-7.90844e-06
-1.88264e-07
-7.8349e-06
-2.21971e-07
-7.75102e-06
-2.54513e-07
-7.65708e-06
-2.86103e-07
-7.55327e-06
-3.16999e-07
-7.43971e-06
-3.47513e-07
-7.31643e-06
-3.78003e-07
-7.18328e-06
-4.08881e-07
-7.04002e-06
-4.40594e-07
-6.88621e-06
-4.73624e-07
-6.72125e-06
-5.08462e-07
-6.54436e-06
-5.45583e-07
-6.3546e-06
-5.8541e-07
-6.15091e-06
-6.28265e-07
-5.93213e-06
-6.74316e-07
-5.69708e-06
-7.23512e-07
-5.44467e-06
-7.75525e-07
-5.17402e-06
-8.29689e-07
-4.88459e-06
-8.84971e-07
-4.57632e-06
-9.39967e-07
-4.24977e-06
-9.9295e-07
-3.90622e-06
-1.04197e-06
-3.54769e-06
-1.08498e-06
-3.17691e-06
-1.12008e-06
-2.7972e-06
-1.14565e-06
-2.41231e-06
-1.16057e-06
-2.02614e-06
-1.16432e-06
-1.6425e-06
-1.157e-06
-1.26493e-06
-1.13933e-06
-8.96445e-07
-1.11247e-06
-5.39447e-07
-1.07795e-06
-1.95659e-07
-1.03748e-06
1.33379e-07
-9.92591e-07
4.46413e-07
-9.44832e-07
7.43016e-07
-8.95696e-07
1.02324e-06
-8.46336e-07
1.28739e-06
-7.97667e-07
1.53595e-06
-7.50371e-07
1.76955e-06
-7.04911e-07
1.98891e-06
-6.6158e-07
2.1948e-06
-6.20534e-07
2.38798e-06
-5.81826e-07
2.56922e-06
-5.4544e-07
2.73925e-06
-5.11305e-07
2.89879e-06
-4.79324e-07
3.0485e-06
-4.49378e-07
3.18902e-06
-4.21343e-07
3.32092e-06
-3.95091e-07
3.44476e-06
-3.70498e-07
3.56107e-06
-3.47443e-07
3.67031e-06
-3.25811e-07
3.77293e-06
-3.05493e-07
3.86936e-06
-2.86385e-07
3.95999e-06
-2.68388e-07
4.04517e-06
-2.51407e-07
4.12525e-06
-2.35351e-07
4.20054e-06
-2.20131e-07
4.27132e-06
-2.05663e-07
4.33787e-06
-1.91863e-07
4.40043e-06
-1.78653e-07
4.45923e-06
-1.65956e-07
4.51445e-06
-1.53701e-07
4.5663e-06
-1.4182e-07
4.61491e-06
-1.30253e-07
4.66046e-06
-1.18945e-07
4.70305e-06
-1.07844e-07
4.7428e-06
-9.68971e-08
4.77985e-06
-8.60679e-08
4.81444e-06
-7.54106e-08
4.8468e-06
-6.50145e-08
4.87727e-06
-5.48499e-08
4.90572e-06
-4.5043e-08
4.93202e-06
-3.57088e-08
4.95609e-06
-2.69175e-08
4.97776e-06
-1.87503e-08
4.99698e-06
-1.11898e-08
5.01367e-06
-4.2608e-09
5.02784e-06
2.05461e-09
5.03952e-06
7.74595e-09
5.04878e-06
1.28375e-08
5.05574e-06
1.73506e-08
5.0605e-06
2.13102e-08
5.06321e-06
2.47427e-08
5.06402e-06
2.76766e-08
5.06308e-06
3.01424e-08
5.06056e-06
3.21725e-08
5.05663e-06
3.38012e-08
5.05145e-06
3.50644e-08
5.04518e-06
3.59989e-08
5.03797e-06
3.66418e-08
5.02996e-06
3.70303e-08
5.02129e-06
3.72009e-08
5.01207e-06
3.71887e-08
5.00242e-06
3.70272e-08
4.99243e-06
3.67479e-08
4.98218e-06
3.638e-08
4.97174e-06
3.59501e-08
4.96117e-06
3.54821e-08
4.95051e-06
3.49977e-08
4.9398e-06
3.45158e-08
4.92906e-06
3.40535e-08
4.91832e-06
3.36255e-08
4.90758e-06
3.32453e-08
4.89684e-06
3.29252e-08
4.8861e-06
3.26768e-08
4.87535e-06
3.25122e-08
4.86458e-06
3.2444e-08
4.85376e-06
3.2487e-08
4.84287e-06
3.26589e-08
4.83187e-06
3.29821e-08
4.82072e-06
3.34855e-08
4.80938e-06
3.42071e-08
4.79777e-06
3.51974e-08
4.78582e-06
3.65246e-08
4.77342e-06
3.82815e-08
4.76044e-06
4.05957e-08
4.74673e-06
4.36457e-08
4.73204e-06
4.76851e-08
4.7161e-06
5.30806e-08
4.6985e-06
6.03817e-08
4.67872e-06
7.04137e-08
4.65602e-06
8.45413e-08
4.62942e-06
1.04787e-07
4.59787e-06
1.35441e-07
4.55929e-06
1.81244e-07
4.51798e-06
2.6073e-07
3.75721e-07
4.46922e-06
5.45635e-08
-6.25066e-07
6.10671e-08
-5.56265e-07
4.99185e-08
-4.62524e-07
2.58948e-08
-3.73817e-07
-1.07723e-08
-2.88413e-07
-6.19645e-08
-2.03606e-07
-1.30574e-07
-1.17386e-07
-2.20338e-07
-2.78577e-08
-3.35038e-07
6.61728e-08
-4.78693e-07
1.66356e-07
-6.54906e-07
2.73532e-07
-8.66667e-07
3.88196e-07
-1.11636e-06
5.1033e-07
-1.40574e-06
6.39306e-07
-1.73557e-06
7.7391e-07
-2.10456e-06
9.12252e-07
-2.50801e-06
1.05151e-06
-2.93704e-06
1.18767e-06
-3.37888e-06
1.31553e-06
-3.81827e-06
1.4293e-06
-4.23973e-06
1.52344e-06
-4.62978e-06
1.59364e-06
-4.97865e-06
1.63748e-06
-5.28108e-06
1.65462e-06
-5.5363e-06
1.64657e-06
-5.74746e-06
1.61625e-06
-5.92067e-06
1.56747e-06
-6.06377e-06
1.50435e-06
-6.18507e-06
1.43095e-06
-6.29229e-06
1.35082e-06
-6.39181e-06
1.26694e-06
-6.48835e-06
1.18156e-06
-6.58485e-06
1.0963e-06
-6.68271e-06
1.01223e-06
-6.78207e-06
9.2998e-07
-6.88217e-06
8.49894e-07
-6.98168e-06
7.72088e-07
-7.07894e-06
6.96559e-07
-7.17225e-06
6.23232e-07
-7.25993e-06
5.52007e-07
-7.34046e-06
4.82786e-07
-7.41252e-06
4.15485e-07
-7.47504e-06
3.50044e-07
-7.52715e-06
2.8643e-07
-7.5682e-06
2.24634e-07
-7.59775e-06
1.64668e-07
-7.61557e-06
1.06557e-07
-7.62156e-06
5.03253e-08
-7.61577e-06
-4.03929e-09
-7.5985e-06
-5.65453e-08
-7.57009e-06
-1.07185e-07
-7.5309e-06
-1.55941e-07
-7.4813e-06
-2.02828e-07
-7.42165e-06
-2.4791e-07
-7.35231e-06
-2.9131e-07
-7.27361e-06
-3.33212e-07
-7.18584e-06
-3.7387e-07
-7.08924e-06
-4.13607e-07
-6.98393e-06
-4.5282e-07
-6.86995e-06
-4.9198e-07
-6.7472e-06
-5.31633e-07
-6.6154e-06
-5.7239e-07
-6.47412e-06
-6.14912e-07
-6.32269e-06
-6.59893e-07
-6.16025e-06
-7.08019e-07
-5.98573e-06
-7.59924e-07
-5.79787e-06
-8.16126e-07
-5.59525e-06
-8.76944e-07
-5.37635e-06
-9.4241e-07
-5.1397e-06
-1.01217e-06
-4.884e-06
-1.08539e-06
-4.60828e-06
-1.16069e-06
-4.31211e-06
-1.23614e-06
-3.99577e-06
-1.30928e-06
-3.66043e-06
-1.3773e-06
-3.30819e-06
-1.43722e-06
-2.94204e-06
-1.48623e-06
-2.56575e-06
-1.52195e-06
-2.18357e-06
-1.54275e-06
-1.79995e-06
-1.54793e-06
-1.41922e-06
-1.53774e-06
-1.04524e-06
-1.51331e-06
-6.81278e-07
-1.47644e-06
-3.29835e-07
-1.42939e-06
7.144e-09
-1.37446e-06
3.28351e-07
-1.3138e-06
6.3314e-07
-1.24962e-06
9.2131e-07
-1.18387e-06
1.19303e-06
-1.11806e-06
1.44874e-06
-1.05337e-06
1.68905e-06
-9.90678e-07
1.91468e-06
-9.30541e-07
2.12641e-06
-8.7331e-07
2.32503e-06
-8.1916e-07
2.51134e-06
-7.68137e-07
2.6861e-06
-7.20197e-07
2.85003e-06
-6.75237e-07
3.00383e-06
-6.33118e-07
3.14813e-06
-5.93681e-07
3.28355e-06
-5.56762e-07
3.41065e-06
-5.22193e-07
3.52997e-06
-4.89814e-07
3.64199e-06
-4.59468e-07
3.74719e-06
-4.31011e-07
3.846e-06
-4.04303e-07
3.93883e-06
-3.79213e-07
4.02606e-06
-3.55616e-07
4.10804e-06
-3.33393e-07
4.18512e-06
-3.1243e-07
4.25761e-06
-2.92617e-07
4.32579e-06
-2.73846e-07
4.38994e-06
-2.56014e-07
4.45031e-06
-2.39022e-07
4.50713e-06
-2.22774e-07
4.56061e-06
-2.07178e-07
4.61094e-06
-1.92149e-07
4.65829e-06
-1.77605e-07
4.70282e-06
-1.63476e-07
4.74467e-06
-1.49694e-07
4.78397e-06
-1.36201e-07
4.82087e-06
-1.22966e-07
4.85548e-06
-1.10023e-07
4.88789e-06
-9.74244e-08
4.91821e-06
-8.51701e-08
4.94648e-06
-7.33087e-08
4.97268e-06
-6.19122e-08
4.99681e-06
-5.10399e-08
5.0188e-06
-4.07455e-08
5.03866e-06
-3.10486e-08
5.05637e-06
-2.19712e-08
5.07195e-06
-1.35229e-08