/*--------------------------------*- C++ -*----------------------------------*\
  =========                 |
  \\      /  F ield         | OpenFOAM: The Open Source CFD Toolbox
   \\    /   O peration     | Website:  https://openfoam.org
    \\  /    A nd           | Version:  9
     \\/     M anipulation  |
\*---------------------------------------------------------------------------*/
FoamFile
{
    format      ascii;
    class       volScalarField;
    location    "0.075";
    object      k_0;
}
// * * * * * * * * * * * * * * * * * * * * * * * * * * * * * * * * * * * * * //

dimensions      [0 2 -2 0 0 0 0];

internalField   nonuniform List<scalar> 
12225
(
5.94213e-05
8.30336e-05
6.86427e-05
6.17678e-05
8.25296e-05
0.000178072
0.000256754
0.000282699
0.000283314
0.000263184
0.000185463
0.000114654
7.25385e-05
4.75829e-05
3.27683e-05
2.42218e-05
1.92001e-05
3.76995e-05
2.17127e-05
2.36899e-05
2.37358e-05
2.43384e-05
2.79944e-05
4.12384e-05
6.99994e-05
9.38152e-05
0.000105662
0.00010707
0.000104309
9.27534e-05
7.14457e-05
5.56887e-05
4.3808e-05
3.70063e-05
3.08156e-05
2.74785e-05
2.00413e-05
1.57086e-05
1.48551e-05
1.55121e-05
1.73272e-05
1.90224e-05
2.07042e-05
2.16692e-05
2.27402e-05
2.34774e-05
2.35604e-05
2.34635e-05
2.29882e-05
2.22025e-05
2.1282e-05
2.04511e-05
1.95777e-05
1.87754e-05
2.0002e-05
1.99665e-05
1.99909e-05
2.02778e-05
2.08609e-05
2.11113e-05
2.11922e-05
2.11736e-05
2.11509e-05
2.14037e-05
2.20529e-05
2.22864e-05
2.22732e-05
2.19653e-05
2.04783e-05
1.82647e-05
1.69712e-05
1.63297e-05
2.00021e-05
2.03739e-05
2.60556e-05
3.70954e-05
3.43788e-05
2.61884e-05
2.37228e-05
2.38225e-05
2.65182e-05
3.91623e-05
5.33159e-05
5.9283e-05
6.02694e-05
5.91801e-05
5.19828e-05
4.06674e-05
3.38225e-05
3.0367e-05
2.00042e-05
2.05511e-05
2.60333e-05
4.97991e-05
5.62536e-05
4.56516e-05
3.39409e-05
3.24702e-05
3.59135e-05
5.05522e-05
6.05768e-05
6.28073e-05
6.10789e-05
5.14752e-05
3.98544e-05
3.28417e-05
2.91348e-05
2.74946e-05
2.00071e-05
2.01636e-05
2.15094e-05
2.64805e-05
2.73854e-05
2.70892e-05
2.80502e-05
3.6276e-05
7.65569e-05
0.00022245
0.000333933
0.000350742
0.000318854
0.00020487
0.00012194
7.58064e-05
5.04703e-05
3.83402e-05
2.08102e-05
2.09502e-05
2.28921e-05
2.48603e-05
2.51188e-05
2.45592e-05
2.44216e-05
2.51753e-05
2.95713e-05
4.5178e-05
5.94009e-05
6.37347e-05
6.27557e-05
5.3471e-05
3.86396e-05
2.9953e-05
2.5399e-05
2.33696e-05
2.20694e-05
2.09884e-05
2.0964e-05
2.14056e-05
2.15499e-05
2.15962e-05
2.17695e-05
2.27233e-05
2.53651e-05
2.69524e-05
2.74931e-05
2.73644e-05
2.6161e-05
2.41435e-05
2.29336e-05
2.22898e-05
2.19184e-05
2.16726e-05
2.05147e-05
2.04438e-05
2.07743e-05
2.09936e-05
2.10923e-05
2.12286e-05
2.15849e-05
2.30036e-05
2.58257e-05
2.73625e-05
2.77803e-05
2.77321e-05
2.70947e-05
2.54506e-05
2.42247e-05
2.32794e-05
2.26518e-05
2.20862e-05
2.0998e-05
2.10094e-05
2.16828e-05
2.21474e-05
2.21487e-05
2.19569e-05
2.19061e-05
2.20264e-05
2.2691e-05
2.4197e-05
2.52401e-05
2.57627e-05
2.59249e-05
2.59354e-05
2.58779e-05
2.5582e-05
2.46139e-05
2.37307e-05
2.1901e-05
2.1763e-05
2.4306e-05
2.53805e-05
2.44967e-05
2.34106e-05
2.34402e-05
2.46009e-05
2.6653e-05
2.75208e-05
2.76043e-05
2.72476e-05
2.58798e-05
2.46235e-05
2.37767e-05
2.32424e-05
2.29134e-05
2.27677e-05
2.10317e-05
2.06062e-05
2.2386e-05
2.50569e-05
2.50094e-05
2.4319e-05
2.44204e-05
2.45444e-05
2.44826e-05
2.41054e-05
2.37394e-05
2.34308e-05
2.31308e-05
2.29591e-05
2.28146e-05
2.27489e-05
2.2627e-05
2.25623e-05
2.33598e-05
2.136e-05
2.03711e-05
2.03222e-05
2.04419e-05
2.07478e-05
2.17781e-05
2.36967e-05
2.45917e-05
2.45307e-05
2.36852e-05
2.24503e-05
2.17834e-05
2.15021e-05
2.14194e-05
2.14115e-05
2.14246e-05
2.14396e-05
2.2774e-05
2.66167e-05
2.39026e-05
2.13152e-05
2.14885e-05
2.24358e-05
2.28389e-05
2.29107e-05
2.2888e-05
2.27117e-05
2.23087e-05
2.20542e-05
2.19401e-05
2.1909e-05
2.19092e-05
2.19173e-05
2.1918e-05
2.19068e-05
2.43803e-05
2.2505e-05
2.1214e-05
2.14431e-05
2.34027e-05
2.52464e-05
2.53158e-05
2.40603e-05
2.21839e-05
2.12253e-05
2.08233e-05
2.07091e-05
2.07085e-05
2.08087e-05
2.10711e-05
2.12291e-05
2.13375e-05
2.15044e-05
2.54671e-05
2.2901e-05
2.1478e-05
2.1079e-05
2.1313e-05
2.40445e-05
2.79442e-05
2.77204e-05
2.49154e-05
2.25667e-05
2.15715e-05
2.12017e-05
2.11046e-05
2.11041e-05
2.11539e-05
2.139e-05
2.17309e-05
2.19613e-05
2.11297e-05
2.34342e-05
2.30279e-05
2.16217e-05
2.10363e-05
2.09588e-05
2.08817e-05
2.06853e-05
2.04725e-05
2.04034e-05
2.04006e-05
2.04272e-05
2.0551e-05
2.1005e-05
2.12598e-05
2.12973e-05
2.13106e-05
2.13209e-05
2.01951e-05
2.20944e-05
2.42481e-05
2.38223e-05
2.20789e-05
2.12072e-05
2.08318e-05
2.07416e-05
2.07856e-05
2.11383e-05
2.23018e-05
2.3161e-05
2.34737e-05
2.35009e-05
2.34031e-05
2.28724e-05
2.21265e-05
2.17405e-05
2.05724e-05
2.10037e-05
2.09633e-05
2.11523e-05
2.14575e-05
2.17393e-05
2.20528e-05
2.26678e-05
2.50657e-05
2.79199e-05
2.91397e-05
2.92832e-05
2.8701e-05
2.59791e-05
2.3359e-05
2.1991e-05
2.14304e-05
2.12853e-05
2.15707e-05
2.27864e-05
2.30745e-05
2.15635e-05
2.07697e-05
2.08488e-05
2.17316e-05
2.58006e-05
3.75952e-05
4.5169e-05
4.71939e-05
4.69085e-05
4.37974e-05
3.52405e-05
2.85243e-05
2.44861e-05
2.23791e-05
2.13476e-05
2.02524e-05
2.06753e-05
2.13539e-05
2.17007e-05
2.17777e-05
2.17813e-05
2.17966e-05
2.195e-05
2.2517e-05
2.29525e-05
2.34752e-05
2.38086e-05
2.3792e-05
2.31624e-05
2.19291e-05
2.1275e-05
2.09902e-05
2.09061e-05
2.00615e-05
2.03912e-05
2.099e-05
2.11317e-05
2.11887e-05
2.16676e-05
2.31091e-05
2.49084e-05
2.87758e-05
3.42127e-05
3.74553e-05
3.79947e-05
3.72315e-05
3.3068e-05
2.75528e-05
2.4716e-05
2.36546e-05
2.34433e-05
2.01354e-05
2.02915e-05
2.04515e-05
2.04254e-05
2.02694e-05
2.02358e-05
2.02986e-05
2.06739e-05
2.21935e-05
2.40222e-05
2.46025e-05
2.44425e-05
2.38611e-05
2.37483e-05
2.38033e-05
2.41405e-05
2.44545e-05
2.4504e-05
2.02977e-05
2.05002e-05
2.08648e-05
2.10301e-05
2.10674e-05
2.10663e-05
2.10503e-05
2.09838e-05
2.09133e-05
2.09082e-05
2.09662e-05
2.13177e-05
2.28173e-05
2.80802e-05
3.41932e-05
3.78828e-05
3.91094e-05
3.90078e-05
2.06492e-05
2.05804e-05
2.05759e-05
2.08531e-05
2.18224e-05
2.22771e-05
2.22959e-05
2.20028e-05
2.13143e-05
2.10179e-05
2.09838e-05
2.11048e-05
2.18728e-05
2.52846e-05
3.96097e-05
5.68523e-05
6.4082e-05
6.46606e-05
2.00018e-05
1.99749e-05
1.99901e-05
2.01662e-05
2.13897e-05
2.37552e-05
2.41888e-05
2.35864e-05
2.17518e-05
2.07268e-05
2.04097e-05
2.03381e-05
2.02457e-05
1.99521e-05
1.91833e-05
1.86238e-05
1.83225e-05
1.82203e-05
2.00064e-05
1.661e-05
1.56095e-05
1.59732e-05
1.68924e-05
1.85633e-05
1.94426e-05
1.94946e-05
1.88168e-05
1.63093e-05
1.40419e-05
1.27768e-05
1.22507e-05
1.21238e-05
1.21278e-05
1.22022e-05
1.2434e-05
1.30217e-05
2.01918e-05
2.20661e-05
2.35088e-05
2.50327e-05
2.87419e-05
4.40505e-05
6.66127e-05
7.48437e-05
7.51479e-05
7.09648e-05
5.51325e-05
4.07919e-05
3.25805e-05
2.86148e-05
2.72561e-05
2.71148e-05
2.75281e-05
2.92765e-05
3.53495e-05
8.2824e-05
9.42443e-05
9.66362e-05
0.000109701
0.000193191
0.000306193
0.000338035
0.000332905
0.000276202
0.000167708
9.93427e-05
6.27759e-05
4.72051e-05
4.35201e-05
4.45565e-05
5.49199e-05
8.29178e-05
0.122279
0.129699
0.117962
0.0924371
0.0827996
0.0782167
0.07004
0.0665332
0.0643893
0.0655441
0.0686558
0.0687973
0.0681087
0.0661443
0.0646108
0.0634945
0.0627484
0.0621066
0.0615941
0.061238
0.0611542
0.061197
0.0612884
0.0614473
0.0616336
0.0618487
0.0620857
0.0623556
0.0626534
0.0629758
0.0632902
0.0635607
0.0637861
0.0639588
0.0640802
0.0642503
0.0644302
0.0647433
0.065184
0.0655594
0.0660501
0.0664218
0.0671952
0.0755945
0.105256
0.113569
0.105201
0.101152
0.0989468
0.0976719
0.0961831
0.0955131
0.0943795
0.0933556
0.0918649
0.0899103
0.0892134
0.0897853
0.0933391
0.109598
0.183954
0.26938
0.308487
0.351937
0.462827
0.49085
0.346708
0.175356
0.130457
0.117469
0.112669
0.110655
0.105955
0.098961
0.0891935
0.0763004
0.0635514
0.0515996
0.043879
0.0372569
0.0334685
0.0295503
0.0276634
0.0255836
0.0246489
0.0241501
0.0239772
0.0238879
0.0238619
0.023827
0.0238304
0.0238533
0.0239164
0.0240301
0.0241165
0.0242253
0.0243872
0.0245563
0.0246903
0.0248326
0.0250181
0.0251552
0.0253045
0.0254416
0.0255897
0.0257387
0.0258858
0.0260222
0.0261254
0.0261965
0.0262066
0.0262156
0.0262114
0.0262717
0.0261387
0.0257892
0.0258163
0.0257903
0.0255901
0.0249757
0.0242218
0.0234392
0.022624
0.0217703
0.0208651
0.0198763
0.0187461
0.017418
0.0158889
0.0142296
0.012586
0.0111776
0.0101805
0.00953506
0.00914746
0.00896475
0.00891912
0.00892487
0.0089504
0.00902594
0.00908834
0.00909208
0.0090115
0.00884044
0.00870842
0.0086061
0.00851932
0.00843355
0.00834233
0.0082555
0.00818804
0.00815308
0.00815508
0.0082108
0.00831804
0.00840565
0.00848151
0.00852137
0.0084574
0.00806479
0.00753476
0.00710798
0.00681829
0.00664873
0.00661094
0.00662196
0.00663477
0.00663396
0.00660426
0.00661221
0.00679219
0.00799283
0.00943443
0.012936
0.0154571
0.0106427
0.00561765
0.0137772
0.0173792
0.0122804
0.118637
0.118826
0.116419
0.115927
0.10969
0.089458
0.0703888
0.0606775
0.0567926
0.0567228
0.056219
0.0549932
0.0532291
0.0517841
0.0512715
0.0512204
0.0513063
0.0516768
0.052373
0.053227
0.054471
0.0560318
0.0577567
0.059321
0.0605623
0.0617716
0.0630353
0.0638165
0.0641849
0.0644892
0.0645094
0.0644333
0.0642364
0.0638607
0.0630437
0.062187
0.0616813
0.0614605
0.0614552
0.0615056
0.0616608
0.0621833
0.0628126
0.0649135
0.0731426
0.0841411
0.0876474
0.0914602
0.0945462
0.0972175
0.0986151
0.0977125
0.0938302
0.0905239
0.0882383
0.0864484
0.0845276
0.0840313
0.0853757
0.0938796
0.142335
0.183452
0.224538
0.363133
0.434933
0.308389
0.187851
0.132523
0.110713
0.0990515
0.0895967
0.0804794
0.0699746
0.0585687
0.0467227
0.0355159
0.0279455
0.0227608
0.0202139
0.0184387
0.0176332
0.0170804
0.016801
0.016531
0.016369
0.016197
0.0160868
0.0160166
0.015951
0.0157944
0.0155911
0.0153299
0.0151124
0.0149794
0.0148592
0.0147212
0.0145962
0.0145001
0.0144404
0.0144144
0.0144411
0.014495
0.0145696
0.0146378
0.0147629
0.0149372
0.0151493
0.0154117
0.0157674
0.01622
0.016818
0.0175532
0.0184105
0.0193433
0.0202922
0.0211546
0.0218872
0.0225816
0.0232455
0.023879
0.0244392
0.024899
0.0252464
0.0254827
0.0256486
0.0257769
0.0258813
0.0259363
0.0258873
0.0254342
0.0240021
0.0215487
0.0184731
0.0155331
0.0134207
0.0122043
0.011513
0.0109772
0.0104682
0.0100148
0.00962348
0.00923567
0.00881966
0.00839754
0.00798612
0.0076055
0.00727307
0.00698832
0.0067338
0.00649865
0.00627961
0.0060629
0.00583502
0.00560398
0.00540307
0.00528209
0.00526037
0.00531108
0.005386
0.00539185
0.00539568
0.00551903
0.00607542
0.00676231
0.00733584
0.00788274
0.008215
0.00822361
0.0078563
0.00689485
0.00646898
0.00644609
0.00686014
0.00923471
0.024472
0.039372
0.0400557
0.0380969
0.0277575
0.0190032
0.111344
0.0917452
0.103895
0.114781
0.108928
0.0874088
0.0692165
0.0618178
0.058974
0.0581842
0.0579385
0.0584847
0.0603697
0.0641269
0.0681149
0.0720207
0.0761309
0.0802258
0.0838555
0.0875207
0.0908825
0.0936259
0.0959442
0.0978084
0.0993562
0.100848
0.102218
0.103128
0.103419
0.103391
0.10312
0.102367
0.100496
0.0975831
0.0945038
0.0903818
0.0847574
0.0783501
0.0722074
0.0671507
0.0631898
0.0609036
0.0599197
0.0599746
0.060922
0.0633255
0.0670802
0.0696086
0.0732301
0.0769293
0.0812438
0.0842106
0.084609
0.0842
0.0838039
0.0852161
0.0855078
0.0843431
0.0863025
0.100327
0.163828
0.210806
0.260148
0.319713
0.212971
0.131429
0.0971461
0.0811589
0.0708526
0.0617604
0.0533217
0.0445916
0.0360568
0.0276793
0.021475
0.0184921
0.0171956
0.0168112
0.0168059
0.0171833
0.0172059
0.0171264
0.0169674
0.0167078
0.0164715
0.0163779
0.016411
0.016777
0.0172636
0.0174882
0.0175504
0.0172734
0.0168115
0.0164176
0.0159169
0.0154022
0.0149142
0.0144633
0.014077
0.0137269
0.0134461
0.0132026
0.0129723
0.0127275
0.0125145
0.012333
0.0121697
0.0119654
0.011821
0.0116605
0.0115127
0.0113796
0.0112623
0.0111961
0.0112074
0.0112987
0.0114561
0.0115858
0.0116183
0.0115845
0.0114939
0.0113844
0.0112384
0.011061
0.01087
0.0107073
0.0106399
0.0107334
0.0112915
0.0126822
0.0147132
0.0170162
0.0186748
0.0191985
0.0188613
0.0166418
0.0139042
0.0122466
0.0113082
0.0108681
0.0107033
0.0105901
0.0103794
0.0100336
0.00960772
0.0091452
0.00865967
0.00815868
0.00765667
0.00717643
0.00673476
0.00633531
0.00597128
0.00561899
0.00521701
0.00468525
0.00405817
0.00358281
0.00344178
0.00347035
0.00382807
0.00545896
0.00806735
0.0100758
0.0112515
0.011501
0.0113475
0.0109427
0.0104465
0.00936428
0.00784987
0.00663091
0.00652944
0.00750792
0.0128419
0.0325645
0.0433177
0.0440653
0.0406483
0.0309656
0.116724
0.0907409
0.107616
0.110942
0.0987643
0.078888
0.0685714
0.066522
0.0694926
0.075877
0.0820484
0.0887809
0.0930868
0.0960948
0.0984329
0.100365
0.101966
0.103309
0.10445
0.105612
0.106891
0.108386
0.110045
0.111967
0.113902
0.115786
0.11756
0.119241
0.120767
0.122073
0.123269
0.12358
0.123476
0.123147
0.122471
0.121706
0.120491
0.118218
0.1127
0.10472
0.096577
0.088008
0.0816704
0.0763085
0.0712153
0.0684359
0.0683946
0.0686182
0.0690661
0.0694325
0.0697457
0.0699568
0.0699292
0.0697184
0.0700383
0.0737695
0.0788218
0.0796927
0.0865685
0.132862
0.207792
0.221883
0.241852
0.178348
0.106187
0.0752032
0.0599263
0.0499626
0.0417084
0.0352134
0.0292814
0.024379
0.0197911
0.0176133
0.0168113
0.0168222
0.0182279
0.0198869
0.0227796
0.0240466
0.0246495
0.0248973
0.0249417
0.0246926
0.0241792
0.0239532
0.0237572
0.0234012
0.023198
0.0229801
0.022581
0.0222247
0.0217445
0.0212589
0.0207132
0.0200862
0.01943
0.0188281
0.018234
0.0177477
0.0172976
0.0169434
0.0165488
0.016063
0.0154963
0.0149322
0.0143911
0.0137631
0.0132028
0.0126513
0.0121039
0.0116247
0.0112167
0.0108624
0.0105852
0.010395
0.0102829
0.0102853
0.0103606
0.0103695
0.0102576
0.00993106
0.00948636
0.00899569
0.00847665
0.00793259
0.00736189
0.00679512
0.00634036
0.00616496
0.00631062
0.00762097
0.0125702
0.0180893
0.0209858
0.021524
0.0210024
0.0181564
0.0146952
0.0127515
0.0116934
0.0110757
0.0106778
0.0103835
0.0101004
0.00977774
0.00940512
0.00898536
0.00851444
0.00799338
0.00745168
0.00694533
0.006542
0.00628414
0.00615666
0.00608019
0.00598821
0.00589505
0.00588156
0.00626789
0.00863294
0.011852
0.013328
0.0137433
0.0137215
0.0132504
0.0119837
0.0111082
0.0107086
0.0106425
0.0106838
0.0108971
0.0114714
0.014227
0.0301727
0.0472666
0.0520436
0.0529011
0.0541696
0.0544283
0.121895
0.126444
0.13229
0.109461
0.0853824
0.0751807
0.0774548
0.0862632
0.0948832
0.0985639
0.100088
0.100658
0.101364
0.10226
0.103071
0.103636
0.10405
0.104591
0.105589
0.107154
0.109499
0.112485
0.115732
0.119235
0.122429
0.125518
0.12822
0.130515
0.132126
0.133025
0.133713
0.133675
0.133403
0.132743
0.131653
0.130436
0.128571
0.12535
0.121177
0.116485
0.11154
0.10675
0.103359
0.101252
0.0986985
0.0950743
0.090671
0.0861977
0.0815455
0.0771975
0.0737695
0.0701021
0.0668996
0.0659028
0.0660242
0.0665434
0.0674412
0.0711456
0.0925535
0.1802
0.217962
0.207993
0.179248
0.102671
0.0666617
0.0507173
0.0385643
0.0315484
0.0255606
0.0218434
0.0182344
0.0163454
0.0153574
0.0151559
0.0162226
0.0184145
0.0227567
0.0260348
0.0269105
0.0270934
0.0268671
0.0257576
0.0247129
0.0242927
0.0239723
0.0236225
0.0234456
0.0233852
0.0233014
0.0230794
0.0228064
0.0225275
0.0220877
0.0215936
0.0210716
0.0204432
0.0197263
0.0191703
0.0185892
0.0182919
0.0181512
0.0180295
0.0179909
0.0179349
0.0177659
0.0175391
0.017292
0.0169166
0.0164225
0.0158447
0.0151872
0.0144317
0.0135449
0.0125401
0.0115091
0.0107064
0.010185
0.0098964
0.00982478
0.00997666
0.0101414
0.010131
0.0099235
0.00936344
0.00870116
0.00807604
0.00747214
0.00684514
0.00612958
0.00532953
0.00462161
0.00426378
0.00428872
0.00499633
0.00860377
0.014299
0.016804
0.0170791
0.0166863
0.0148178
0.0126444
0.0113142
0.0106013
0.010242
0.0100074
0.00973895
0.00936925
0.00890205
0.00837051
0.00780447
0.00723284
0.00671959
0.00632771
0.00607833
0.00595995
0.00593394
0.00595392
0.00607016
0.00651205
0.00829631
0.0114401
0.0132647
0.0139293
0.0140198
0.0138762
0.0128966
0.0107968
0.00970322
0.00948961
0.00957124
0.00993586
0.0109407
0.0139034
0.0251005
0.0719545
0.0948946
0.0916508
0.0845993
0.0876488
0.088706
0.10596
0.121278
0.0957938
0.0795883
0.0789678
0.0847879
0.0960621
0.10021
0.101243
0.101509
0.101516
0.101021
0.0997059
0.0975466
0.0971108
0.0977454
0.0998934
0.103192
0.107163
0.111553
0.1158
0.119601
0.123072
0.12637
0.12901
0.131639
0.133615
0.135077
0.13588
0.136484
0.137207
0.137582
0.137695
0.137331
0.136067
0.133963
0.132332
0.13088
0.129456
0.128361
0.126569
0.123412
0.119433
0.11528
0.110794
0.105369
0.0991654
0.0923069
0.0850324
0.07843
0.0731363
0.0684516
0.064801
0.0629138
0.0624455
0.0626362
0.0641703
0.0704496
0.105327
0.199387
0.213921
0.17324
0.127921
0.0713778
0.0485391
0.0360081
0.0270398
0.0214009
0.017889
0.0155908
0.0142588
0.0138277
0.0137846
0.0149375
0.017187
0.0223424
0.0266343
0.0276422
0.0277456
0.0272156
0.0257072
0.0244631
0.0241288
0.0240852
0.0241985
0.0246032
0.0253337
0.0259343
0.0261714
0.0262215
0.0257921
0.025204
0.0244276
0.0232643
0.022245
0.0210158
0.0195746
0.0184033
0.016986
0.0158613
0.0151024
0.0149043
0.0155281
0.0163376
0.0168715
0.0172087
0.0173526
0.0172792
0.017031
0.0166515
0.0162314
0.0158323
0.0154695
0.0150796
0.0144679
0.0133741
0.0118511
0.0103795
0.00952559
0.00916894
0.00922213
0.0097704
0.0101129
0.0101251
0.00981516
0.00883265
0.00785405
0.00704868
0.00639246
0.00573777
0.00488913
0.00398349
0.00334129
0.00315766
0.00329939
0.00442626
0.0086225
0.0120937
0.013044
0.0129104
0.0118597
0.0103998
0.00959065
0.00922025
0.00905157
0.00892252
0.0088045
0.00873155
0.00868087
0.0085765
0.00826664
0.00756811
0.0068827
0.00634047
0.0060201
0.00589562
0.00588644
0.00598575
0.00659189
0.00903188
0.0119126
0.0132662
0.013586
0.013559
0.0132682
0.0120004
0.00928705
0.00755572
0.00710139
0.00721539
0.0078276
0.00945363
0.0137737
0.0275026
0.0778878
0.128098
0.135882
0.133513
0.134545
0.141297
0.0502284
0.063198
0.0688538
0.0791376
0.0940335
0.0989554
0.101164
0.10111
0.0989648
0.094412
0.0924148
0.0922412
0.0927207
0.0943116
0.097039
0.100431
0.104089
0.107321
0.109776
0.111001
0.111295
0.111314
0.111798
0.112608
0.113679
0.114958
0.115306
0.115334
0.115373
0.11598
0.117506
0.1182
0.117909
0.115145
0.110948
0.107444
0.105014
0.102645
0.0999851
0.0967575
0.0932646
0.0898145
0.086743
0.0841789
0.0820204
0.0800331
0.0778885
0.0754588
0.0727591
0.0698632
0.0670332
0.0643836
0.0623708
0.0613925
0.0613243
0.0618428
0.0641786
0.0722951
0.120665
0.204174
0.198988
0.144565
0.0972272
0.0556156
0.0392974
0.0269297
0.020506
0.0163629
0.0142871
0.0132475
0.012882
0.0128602
0.0135797
0.0153043
0.0193784
0.0256183
0.0277479
0.0280595
0.0277832
0.0265885
0.0255968
0.0253354
0.0257318
0.0278793
0.0315641
0.0358251
0.0392017
0.0408084
0.0415923
0.0418203
0.0413761
0.0398542
0.0385094
0.035962
0.0334793
0.0304416
0.0266996
0.0231317
0.0190941
0.0159022
0.0134675
0.0117368
0.0103358
0.00973407
0.0105671
0.0121748
0.0138458
0.0149833
0.0156931
0.0159928
0.0159605
0.0157472
0.0155072
0.0153379
0.0151727
0.0149704
0.0146488
0.0137739
0.0117204
0.00961377
0.00857024
0.00835277
0.00882203
0.00988759
0.0102176
0.0101066
0.00914469
0.0073356
0.00599658
0.00516838
0.00470008
0.00412547
0.00331347
0.00263067
0.00234893
0.00236138
0.0027644
0.00481452
0.00758204
0.00878205
0.00890691
0.00855468
0.00733183
0.0065519
0.00632355
0.00631772
0.00646189
0.00707559
0.00773154
0.00811081
0.00826283
0.00828148
0.00822612
0.00792933
0.00728079
0.00671142
0.00636496
0.00632556
0.00661512
0.00838506
0.0108704
0.0118658
0.0119976
0.0119204
0.0115916
0.0104952
0.00747868
0.0048252
0.00388193
0.00395857
0.00473125
0.00685529
0.0117588
0.0252477
0.0706865
0.129986
0.157413
0.162737
0.172805
0.185775
0.0530337
0.0754454
0.0902864
0.0968628
0.0989614
0.0983901
0.0952739
0.092345
0.0918013
0.0917226
0.0917805
0.0923941
0.0927828
0.0927811
0.092019
0.0894716
0.0853057
0.0815697
0.0785874
0.0762783
0.0741782
0.0722064
0.070886
0.0700397
0.0692918
0.0685321
0.0676068
0.066649
0.0660389
0.0658785
0.0662012
0.0667296
0.0669645
0.0670117
0.0675834
0.0685569
0.0695366
0.0706478
0.0716416
0.0722166
0.0725165
0.0728483
0.0731705
0.0734137
0.0735474
0.0737223
0.073897
0.0735434
0.0725712
0.07056
0.0676041
0.0646212
0.0625218
0.0616821
0.0616853
0.0624856
0.0653964
0.0748704
0.130115
0.202524
0.188297
0.129073
0.0814622
0.0484193
0.0337166
0.0222182
0.0167786
0.0139906
0.0128424
0.0124285
0.0123487
0.0126763
0.0136531
0.0160465
0.0212701
0.0267377
0.0281766
0.0283163
0.0278831
0.0271392
0.0270852
0.0287245
0.0337258
0.0436017
0.0492874
0.0512871
0.0519455
0.0520482
0.0519065
0.0512551
0.0502917
0.0492411
0.0478233
0.0460652
0.0439925
0.0413673
0.037949
0.0336892
0.02832
0.0220073
0.0160086
0.0121967
0.00951516
0.00758713
0.00630769
0.0056588
0.00603412
0.00759238
0.00977077
0.0119555
0.013321
0.0139831
0.0141528
0.0142758
0.014409
0.0145961
0.0148055
0.0148751
0.0146826
0.0135322
0.0104642
0.00832036
0.00775049
0.00796122
0.00935762
0.0102707
0.0102991
0.00961302
0.00712548
0.00496375
0.00376896
0.00325403
0.00293611
0.00242772
0.00192054
0.00166834
0.0016454
0.00178887
0.00264557
0.0040827
0.0047741
0.00490589
0.00481418
0.00432068
0.00377009
0.00351698
0.00347894
0.00357783
0.00414063
0.00562779
0.00688016
0.00770296
0.00812208
0.00823556
0.00821941
0.00804648
0.00748089
0.00708747
0.00707928
0.00754446
0.00911066
0.0100776
0.0102495
0.0101907
0.00989651
0.00881963
0.0053755
0.00257974
0.00163097
0.00154117
0.00180906
0.00315355
0.0073298
0.0190057
0.0571875
0.120693
0.164923
0.185776
0.202801
0.215548
0.0757744
0.0881405
0.0949034
0.0960522
0.0955414
0.0943542
0.0920448
0.0905067
0.089537
0.0878157
0.0854658
0.0833268
0.0812752
0.0786245
0.0755044
0.0728318
0.0707505
0.0685172
0.066374
0.0643285
0.0623834
0.0605521
0.0588213
0.0571886
0.055661
0.0542045
0.0528298
0.0514835
0.0502494
0.0490351
0.0484257
0.0482864
0.0490123
0.0508244
0.0532269
0.0563588
0.0596391
0.0631328
0.0658487
0.0676935
0.0687872
0.0700166
0.071333
0.0724677
0.0734198
0.0746799
0.0767008
0.0790089
0.0796329
0.0777166
0.0736215
0.0691406
0.0654043
0.0638129
0.0637327
0.0645158
0.0663547
0.0748053
0.130921
0.19366
0.179365
0.119417
0.0734696
0.0445007
0.0306068
0.0189115
0.0147502
0.0129052
0.0122777
0.0121343
0.0122398
0.0127049
0.0139529
0.0168434
0.0214614
0.0269621
0.0284375
0.0285492
0.0284462
0.0285746
0.0310846
0.0375445
0.0487973
0.0530135
0.0542502
0.0544579
0.0541635
0.0533409
0.0527856
0.0519205
0.0508464
0.0496876
0.048225
0.0465693
0.0446602
0.0423066
0.0392759
0.0354219
0.0305026
0.0243995
0.0180329
0.0133687
0.00986337
0.00740126
0.00563273
0.00426461
0.0034158
0.00309465
0.00333812
0.00443868
0.00667424
0.00904704
0.0105282
0.0113779
0.0118921
0.0123139
0.0131267
0.0141838
0.0147766
0.0147819
0.0141599
0.0112697
0.00829365
0.0074938
0.00764471
0.00902345
0.0102096
0.0102866
0.00963486
0.0068682
0.00418946
0.0027708
0.0021375
0.00186963
0.00159261
0.00129492
0.00112417
0.00109538
0.00113747
0.00140729
0.0018898
0.00211658
0.00215891
0.00211963
0.00191321
0.00169351
0.00159468
0.00157708
0.00161724
0.00186623
0.00285877
0.00481321
0.00638525
0.00734313
0.00772705
0.00782708
0.00783151
0.00770516
0.00761227
0.00770313
0.00837261
0.00922781
0.00936253
0.00925911
0.00875891
0.00685099
0.00328373
0.00162845
0.00117791
0.0010822
0.00112142
0.00151711
0.00351102
0.0108318
0.0367042
0.103353
0.157758
0.194835
0.222544
0.23753
0.0812163
0.0930888
0.0954442
0.0948218
0.0920318
0.0894529
0.0881811
0.0862828
0.0840667
0.082056
0.0800866
0.0780081
0.0756849
0.0734577
0.0709936
0.068396
0.0661256
0.0637093
0.0614926
0.059495
0.0577291
0.0560226
0.0544859
0.0529018
0.0513626
0.0498324
0.0482808
0.0466972
0.0451116
0.0433501
0.0415383
0.0404802
0.0401485
0.0401737
0.0405827
0.0414528
0.0427498
0.0447093
0.0463739
0.0478748
0.0490632
0.0510317
0.0543315
0.0579654
0.0620698
0.0674024
0.0734792
0.0796277
0.0846464
0.0881586
0.0888247
0.0857464
0.0773766
0.0716451
0.0682614
0.0659577
0.0663806
0.0732296
0.125727
0.183941
0.176433
0.121301
0.0741167
0.0449875
0.0296064
0.0181783
0.013828
0.0123902
0.0120713
0.012046
0.0122563
0.0129519
0.0145367
0.0167284
0.0210376
0.0266942
0.0285741
0.0290602
0.0294922
0.0316098
0.0378721
0.0481467
0.0540835
0.0554527
0.0555309
0.0543497
0.0524886
0.0517342
0.0507949
0.0492662
0.047105
0.0448233
0.0424191
0.0400752
0.0377995
0.0355344
0.0330002
0.0298702
0.0261332
0.0212908
0.016097
0.0119813
0.00901255
0.00680184
0.00523234
0.00385599
0.00281
0.00216304
0.00182439
0.00176469
0.00202219
0.002893
0.00472909
0.00695704
0.00851717
0.00927073
0.00987522
0.0113528
0.0134113
0.0144712
0.0145582
0.013941
0.0110063
0.00819368
0.00755878
0.00781965
0.00920099
0.00995013
0.00990976
0.00893295
0.00580407
0.00333073
0.00199925
0.00137691
0.00113442
0.000998829
0.000852922
0.000745485
0.000713545
0.000719356
0.000770835
0.000860678
0.000887863
0.00088498
0.000850298
0.000743577
0.000661016
0.000624819
0.000620946
0.000641434
0.000748192
0.00111705
0.00238317
0.00390939
0.0047188
0.00545034
0.00648322
0.00719505
0.00751317
0.00817106
0.00883367
0.00891027
0.00876596
0.00822927
0.00676707
0.00337218
0.00165298
0.00125136
0.00129675
0.0013033
0.0012273
0.00125606
0.00190752
0.00531288
0.0190258
0.0703968
0.14145
0.190077
0.224311
0.245553
0.0856085
0.0947493
0.0947309
0.0922347
0.0895325
0.087865
0.0860579
0.083605
0.0813949
0.0790465
0.0762486
0.0729969
0.0693346
0.0653292
0.0607649
0.0557384
0.0506208
0.0458209
0.0421537
0.0395966
0.0376184
0.0362619
0.0352908
0.0348097
0.0344254
0.0339046
0.0337009
0.033991
0.0349014
0.0358351
0.0362052
0.0358575
0.0357989
0.0361204
0.0366218
0.0370617
0.0375998
0.0382365
0.0385747
0.0385581
0.0380528
0.0373735
0.0372737
0.0379339
0.0398189
0.0452138
0.0571278
0.0703798
0.0808921
0.089405
0.0958077
0.0983573
0.0944242
0.0845764
0.0770229
0.0685756
0.0648353
0.0680493
0.106125
0.172627
0.173182
0.127968
0.0777292
0.0470577
0.0303081
0.0185749
0.013859
0.012331
0.0120102
0.0120327
0.0123865
0.0134611
0.0146599
0.0164242
0.0200805
0.0258086
0.0285618
0.0296059
0.0308051
0.034926
0.0440017
0.0531301
0.0559174
0.0562346
0.0549369
0.0520124
0.050892
0.0499555
0.0475033
0.0436278
0.0393077
0.0341168
0.0287024
0.0231866
0.0188658
0.0159317
0.0136576
0.0114414
0.00960367
0.00759641
0.00605122
0.00470817
0.00390827
0.00342992
0.00319721
0.00289528
0.00236927
0.00182079
0.00141158
0.00116838
0.0010597
0.00110357
0.00138643
0.00223529
0.00424051
0.00602519
0.00690774
0.00798966
0.0105947
0.0130123
0.0140125
0.0140116
0.0129636
0.00981523
0.00814152
0.00792733
0.00845159
0.00934658
0.00945769
0.00915947
0.00730425
0.00427448
0.00237199
0.00135297
0.000862988
0.000668334
0.000618473
0.00058624
0.000529739
0.00048087
0.000459755
0.000456607
0.000456209
0.000454526
0.000447374
0.000421753
0.000365299
0.000322129
0.000301005
0.00029644
0.000298797
0.000316617
0.000383555
0.00059912
0.000819399
0.00114959
0.00198948
0.00439992
0.00683552
0.00794454
0.00801524
0.00776251
0.00697726
0.0050825
0.0026743
0.0012721
0.00104865
0.00142087
0.00265487
0.00299193
0.00275582
0.00196772
0.00182704
0.00272737
0.0082196
0.0316252
0.106116
0.174313
0.218828
0.244399
0.0872253
0.0947825
0.0938543
0.0905325
0.0884185
0.0867452
0.0839789
0.0805422
0.0767581
0.0719568
0.0648331
0.0544645
0.0453088
0.0375475
0.0305705
0.027055
0.0242334
0.0228885
0.0215247
0.0207673
0.0201127
0.0190811
0.0180193
0.0169386
0.016026
0.0148895
0.0135656
0.0120217
0.0110691
0.011648
0.0138286
0.0170804
0.0204535
0.0240561
0.0280825
0.0317556
0.0341353
0.0359479
0.0372342
0.0379009
0.0379719
0.0373685
0.036258
0.0352019
0.0348016
0.0350214
0.0373846
0.0458122
0.0579372
0.0710953
0.0872239
0.102508
0.110853
0.111026
0.1006
0.0794512
0.0670317
0.0654381
0.0770013
0.14221
0.16627
0.141562
0.0858291
0.051524
0.0323728
0.0197699
0.0142071
0.0124021
0.0120163
0.0120405
0.0125709
0.0136951
0.0145962
0.0158608
0.0186556
0.0237742
0.0281737
0.029708
0.0315582
0.0365718
0.0476942
0.0552029
0.0568714
0.056759
0.0542648
0.0518589
0.0510805
0.04987
0.0465517
0.0404572
0.0322055
0.0227521
0.0138692
0.00910778
0.00679703
0.00534984
0.00425928
0.00329781
0.00251592
0.00179359
0.00129001
0.00094774
0.000759477
0.000679336
0.00072201
0.000846775
0.00112393
0.00131886
0.00119604
0.000975184
0.000809095
0.000712159
0.000711468
0.000819932
0.00121401
0.00210865
0.0032776
0.00496248
0.00776166
0.0108477
0.0127831
0.0132931
0.0129724
0.0108054
0.0086143
0.00810058
0.0082775
0.00912791
0.0094295
0.0092747
0.00806091
0.0050152
0.00282897
0.00154961
0.000878259
0.000556808
0.000422526
0.000382201
0.0003742
0.00036917
0.000354854
0.000327144
0.000308108
0.000297755
0.000292277
0.000286893
0.00027602
0.000252559
0.000228137
0.000209197
0.000198064
0.00019513
0.00019607
0.000200904
0.000215678
0.000267418
0.000503538
0.00174285
0.00441922
0.00517664
0.00501029
0.003993
0.00243266
0.00141337
0.000750188
0.000612617
0.000869629
0.00290478
0.00641294
0.00750519
0.00720968
0.00526839
0.00311117
0.00273735
0.00393291
0.0118386
0.0458096
0.135259
0.199696
0.236764
0.087331
0.0941813
0.0929569
0.0894414
0.0872854
0.0843839
0.0793676
0.0720002
0.0600834
0.0486936
0.0380216
0.0329311
0.029687
0.0272742
0.0262002
0.0258668
0.0258698
0.026905
0.0275149
0.0270506
0.0248289
0.022294
0.018981
0.0161731
0.0137149
0.0120405
0.0103917
0.00836068
0.00592157
0.0041488
0.0033317
0.00311555
0.00346931
0.0044141
0.00631145
0.00988761
0.0155421
0.0220826
0.0287356
0.0341615
0.0376209
0.0398434
0.0407601
0.0405355
0.0381163
0.0351594
0.0337153
0.0336563
0.0348502
0.0380855
0.0448078
0.0620431
0.0920017
0.116305
0.122057
0.115688
0.0874986
0.0692663
0.0692546
0.0925929
0.149943
0.144387
0.104107
0.0603466
0.0367289
0.022268
0.0151302
0.012648
0.0120672
0.0120981
0.0127965
0.0137678
0.0144397
0.0152912
0.0172729
0.0212627
0.0267413
0.0295257
0.0315047
0.037271
0.049547
0.0565091
0.0579612
0.0577579
0.0550241
0.0527063
0.0519222
0.050481
0.0459344
0.0369444
0.0237787
0.0125323
0.00804329
0.00606818
0.00484025
0.00388723
0.00308333
0.00234919
0.00171462
0.00115703
0.000754688
0.000490794
0.000336288
0.000260376
0.000243749
0.00025872
0.000314654
0.000492451
0.000773983
0.000826361
0.000725231
0.000607706
0.000540765
0.000537035