/*--------------------------------*- C++ -*----------------------------------*\
  =========                 |
  \\      /  F ield         | OpenFOAM: The Open Source CFD Toolbox
   \\    /   O peration     | Website:  https://openfoam.org
    \\  /    A nd           | Version:  9
     \\/     M anipulation  |
\*---------------------------------------------------------------------------*/
FoamFile
{
    format      ascii;
    class       volScalarField;
    location    "0.075";
    object      p;
}
// * * * * * * * * * * * * * * * * * * * * * * * * * * * * * * * * * * * * * //

dimensions      [0 2 -2 0 0 0 0];

internalField   nonuniform List<scalar> 
12225
(
574.532
570.225
567.453
564.621
561.451
558.077
554.559
550.92
547.191
543.39
539.563
535.744
531.961
528.189
524.367
520.458
516.279
511.524
572.955
570.099
567.466
564.628
561.46
558.088
554.57
550.929
547.199
543.403
539.581
535.77
531.988
528.22
524.409
520.516
516.414
512.018
572.101
570.054
567.524
564.691
561.52
558.139
554.61
550.956
547.222
543.428
539.616
535.817
532.043
528.282
524.491
520.635
516.669
512.61
571.754
570.045
567.586
564.76
561.588
558.197
554.656
550.994
547.26
543.476
539.681
535.892
532.128
528.378
524.616
520.82
516.988
513.175
571.031
569.97
567.688
564.907
561.731
558.315
554.757
551.081
547.335
543.547
539.753
535.975
532.231
528.506
524.788
521.066
517.358
513.735
573.417
570.205
567.821
565.082
561.889
558.443
554.863
551.171
547.427
543.644
539.867
536.11
532.383
528.685
525.011
521.361
517.764
514.283
571.813
570.047
568.045
565.342
562.129
558.658
555.06
551.348
547.569
543.779
539.995
536.26
532.557
528.892
525.269
521.697
518.201
514.83
571.133
570.189
568.385
565.679
562.424
558.902
555.262
551.513
547.728
543.938
540.186
536.472
532.799
529.172
525.599
522.094
518.679
515.393
567.891
570.34
568.922
566.154
562.816
559.23
555.561
551.77
547.956
544.16
540.391
536.689
533.043
529.46
525.948
522.519
519.189
515.98
567.819
570.942
569.643
566.768
563.305
559.615
555.844
552.034
548.208
544.413
540.715
537.013
533.392
529.845
526.381
523.008
519.747
516.606
570.474
572.464
570.687
567.57
563.908
560.098
556.29
552.395
548.535
544.723
540.985
537.301
533.721
530.229
526.828
523.53
520.34
517.271
576.607
574.52
571.877
568.48
564.583
560.591
556.603
552.748
548.869
545.054
541.364
537.694
534.134
530.672
527.308
524.063
520.932
517.923
577.9
576.771
573.36
569.547
565.348
561.209
557.144
553.186
549.261
545.405
541.57
538.035
534.525
531.107
527.804
524.615
521.548
518.604
585.961
580.222
575.219
570.724
566.273
561.986
557.792
553.734
549.761
545.898
542.209
538.585
535.082
531.702
528.447
525.314
522.305
519.423
592.763
584.045
577.659
572.486
567.735
563.016
558.626
554.447
550.401
546.479
542.787
539.203
535.737
532.404
529.206
526.143
523.213
520.416
601.414
588.177
580.177
574.301
569.096
564.172
559.614
555.322
551.225
547.35
543.594
540.013
536.583
533.299
530.161
527.163
524.302
521.579
591.661
588.874
582.382
576.324
570.708
565.511
560.755
556.332
552.16
548.225
544.49
540.935
537.549
534.325
531.257
528.337
525.561
522.93
606.821
594.559
585.342
578.218
572.162
566.779
561.884
557.377
553.175
549.232
545.513
541.992
538.656
535.496
532.5
529.656
526.962
524.412
605.56
594.604
586.014
579.102
573.047
567.659
562.785
558.292
554.113
550.208
546.539
543.081
539.822
536.745
533.831
531.072
528.461
525.996
607.477
593.935
585.27
578.517
572.803
567.672
563.008
558.704
554.668
550.87
547.291
543.911
540.715
537.69
534.831
532.13
529.578
527.168
588.006
586.607
581.966
576.98
572.185
567.477
562.995
558.814
554.896
551.188
547.688
544.383
541.259
538.302
535.504
532.858
530.355
527.988
581.618
582.281
579.383
575.491
571.223
566.975
562.797
558.816
555.033
551.424
547.993
544.741
541.656
538.728
535.957
533.338
530.863
528.523
585.788
582.694
579.261
575.171
570.968
566.755
562.672
558.784
555.068
551.513
548.14
544.944
541.91
539.028
536.296
533.709
531.262
528.944
584.895
582.076
578.48
574.463
570.472
566.473
562.547
558.763
555.122
551.626
548.29
545.122
542.11
539.246
536.531
533.962
531.532
529.231
588.047
582.486
578.481
574.397
570.317
566.337
562.455
558.708
555.106
551.65
548.357
545.224
542.243
539.407
536.711
534.157
531.739
529.448
585.538
582.136
578.107
574.156
570.162
566.235
562.408
558.707
555.141
551.712
548.432
545.314
542.348
539.522
536.833
534.282
531.87
529.588
586.827
582.143
577.981
574.046
570.085
566.187
562.375
558.682
555.13
551.717
548.456
545.358
542.419
539.615
536.936
534.384
531.967
529.684
587.017
582.059
577.912
573.977
570.031
566.149
562.351
558.676
555.145
551.748
548.498
545.409
542.474
539.667
536.983
534.428
532.01
529.735
585.922
581.938
577.875
573.936
570.01
566.145
562.353
558.674
555.136
551.74
548.501
545.43
542.514
539.723
537.043
534.479
532.047
529.763
584.491
581.839
577.864
573.924
570.007
566.141
562.348
558.667
555.133
551.747
548.519
545.459
542.548
539.757
537.069
534.494
532.055
529.777
471.574
471.223
470.77
470.405
470.368
470.678
471.213
471.762
472.174
472.39
472.421
472.326
472.167
471.993
471.836
471.713
471.631
471.59
471.588
471.617
471.672
471.746
471.833
471.93
472.033
472.142
472.255
472.374
472.5
472.636
472.785
472.948
473.128
473.329
473.547
473.793
474.056
474.34
474.667
474.997
475.395
475.791
476.122
476.462
475.868
474.242
472.525
471.017
469.675
468.571
467.777
467.334
467.222
467.352
467.665
468.12
468.624
468.476
467.604
466.495
465.207
463.713
462.49
460.956
458.692
456.432
454.215
451.531
447.907
443.372
438.157
432.393
426.124
419.301
411.831
403.673
394.921
385.825
376.712
367.888
359.57
351.887
344.921
338.74
333.402
328.95
325.415
322.803
321.128
320.352
320.429
321.297
322.887
325.121
327.911
331.159
334.755
338.582
342.514
346.427
350.209
353.765
357.022
359.932
362.462
364.597
366.333
367.674
368.627
369.203
369.416
369.282
368.818
368.047
366.993
365.674
364.134
362.393
360.48
358.42
356.24
353.964
351.612
349.205
346.76
344.292
341.81
339.321
336.823
334.316
331.797
329.264
326.707
324.116
321.493
318.842
316.171
313.483
310.783
308.071
305.35
302.624
299.9
297.18
294.47
291.768
289.075
286.385
283.695
281
278.297
275.583
272.856
270.119
267.374
264.618
261.833
258.986
256.051
253.045
250.026
247.06
244.17
241.363
238.652
236.029
233.422
230.724
227.812
224.458
220.684
216.939
213.156
208.902
205.172
201.972
196.795
189.671
183.568
177.938
470.076
469.768
469.416
469.051
469.069
469.55
470.264
470.945
471.412
471.657
471.71
471.648
471.539
471.428
471.34
471.288
471.272
471.292
471.341
471.413
471.502
471.602
471.709
471.82
471.932
472.047
472.164
472.285
472.413
472.549
472.697
472.86
473.038
473.231
473.441
473.661
473.899
474.139
474.388
474.636
474.856
475.088
475.123
475.112
474.227
471.826
470.483
470.438
470.126
469.249
468.138
467.208
466.611
466.295
466.302
466.681
467.294
467.633
467.275
466.371
465.293
463.935
462.372
461.215
459.478
456.944
454.396
451.325
447.348
442.54
437.09
431.09
424.54
417.399
409.619
401.223
392.368
383.329
374.408
365.846
357.788
350.316
343.5
337.422
332.16
327.774
324.305
321.77
320.144
319.412
319.53
320.441
322.075
324.354
327.193
330.493
334.149
338.038
342.036
346.014
349.855
353.461
356.759
359.698
362.25
364.4
366.148
367.499
368.463
369.053
369.281
369.162
368.716
367.961
366.913
365.612
364.082
362.35
360.444
358.389
356.212
353.936
351.584
349.176
346.729
344.26
341.78
339.292
336.797
334.293
331.776
329.24
326.678
324.088
321.473
318.833
316.168
313.483
310.781
308.068
305.347
302.621
299.896
297.178
294.468
291.766
289.072
286.38
283.69
280.995
278.292
275.578
272.85
270.113
267.368
264.614
261.833
258.988
256.052
253.041
250.016
247.046
244.149
241.333
238.613
235.986
233.374
230.677
227.787
224.456
220.658
216.852
213.063
208.793
204.788
201.485
195.95
189.101
183.817
178.137
469.866
469.634
469.356
469.027
468.968
469.29
469.817
470.277
470.569
470.695
470.711
470.681
470.649
470.638
470.657
470.707
470.785
470.885
471.003
471.131
471.264
471.398
471.53
471.659
471.785
471.91
472.036
472.165
472.3
472.445
472.604
472.778
472.97
473.176
473.395
473.616
473.838
474.058
474.262
474.439
474.56
474.62
474.558
474.352
473.978
473.285
472.574
471.849
470.792
469.29
467.798
466.836
466.619
466.882
467.23
467.607
467.934
468.142
467.865
466.899
465.802
464.772
463.401
461.552
459.318
456.471
453.156
449.376
445.076
440.214
434.758
428.68
421.952
414.572
406.58
398.074
389.233
380.316
371.6
363.276
355.429
348.106
341.379
335.345
330.104
325.734
322.284
319.782
318.218
317.559
317.758
318.751
320.469
322.834
325.765
329.167
332.934
336.946
341.072
345.177
349.135
352.841
356.217
359.216
361.81
363.99
365.76
367.132
368.118
368.732
368.988
368.899
368.484
367.757
366.74
365.465
363.959
362.247
360.357
358.314
356.144
353.872
351.521
349.11
346.661
344.189
341.708
339.221
336.729
334.229
331.716
329.184
326.63
324.049
321.436
318.799
316.139
313.461
310.767
308.059
305.34
302.614
299.888
297.169
294.458
291.756
289.062
286.375
283.685
280.991
278.287
275.57
272.84
270.098
267.352
264.605
261.834
258.997
256.06
253.037
249.992
247.005
244.106
241.284
238.536
235.877
233.263
230.573
227.675
224.374
220.616
216.758
212.901
208.679
204.524
200.678
195.483
189.372
183.489
177.467
470.331
470.203
469.97
469.655
469.502
469.559
469.726
469.861
469.917
469.913
469.895
469.893
469.916
469.97
470.053
470.162
470.295
470.454
470.628
470.808
470.984
471.153
471.312
471.464
471.609
471.751
471.892
472.035
472.184
472.343
472.518
472.712
472.925
473.154
473.392
473.631
473.865
474.094
474.297
474.464
474.577
474.617
474.569
474.406
474.131
473.675
473.035
472.338
471.609
470.857
470.182
469.656
469.296
469.047
468.902
468.923
469.067
469.079
468.644
467.722
466.656
465.378
463.708
461.37
458.348
454.86
451.073
446.99
442.531
437.601
432.088
425.909
419.021
411.441
403.244
394.559
385.606
376.693
368.125
360.042
352.419
345.227
338.534
332.48
327.204
322.813
319.374
316.918
315.433
314.873
315.179
316.287
318.123
320.612
323.673
327.22
331.148
335.339
339.654
343.949
348.082
351.937
355.432
358.517
361.17
363.388
365.186
366.58
367.59
368.235
368.528
368.484
368.113
367.429
366.459
365.227
363.758
362.079
360.216
358.195
356.042
353.781
351.434
349.024
346.571
344.096
341.611
339.124
336.634
334.138
331.629
329.103
326.554
323.979
321.376
318.749
316.098
313.429
310.743
308.041
305.328
302.607
299.886
297.17
294.462
291.763
289.068
286.376
283.682
280.986
278.281
275.563
272.831
270.086
267.338
264.595
261.835
259.009
256.069
253.022
249.948
246.946
244.048
241.216
238.439
235.742
233.098
230.395
227.489
224.215
220.496
216.604
212.731
208.51
204.191
200.17
195.14
188.982
183.066
177.298
471.017
470.97
470.752
470.437
470.158
469.963
469.826
469.709
469.587
469.453
469.345
469.31
469.355
469.466
469.609
469.771
469.936
470.108
470.284
470.461
470.638
470.815
470.994
471.176
471.363
471.554
471.749
471.948
472.149
472.357
472.581
472.827
473.091
473.365
473.635
473.894
474.143
474.373
474.57
474.744
474.866
474.898
474.858
474.712
474.461
474.098
473.622
473.072
472.454
471.752
470.995
470.284
469.73
469.45
469.45
469.633
469.793
469.654
469.056
468.143
467.142
465.782
463.485
460.321
456.691
452.856
448.861
444.643
440.072
435.019
429.358
422.994
415.892
408.074
399.623
390.687
381.545
372.605
364.211
356.397
348.969
341.813
335.024
328.819
323.413
318.959
315.536
313.149
311.765
311.327
311.774
313.032
315.023
317.672
320.904
324.639
328.78
333.209
337.781
342.335
346.711
350.772
354.427
357.627
360.355
362.618
364.44
365.85
366.878
367.55
367.884
367.889
367.573
366.951
366.043
364.868
363.452
361.817
359.991
358.001
355.871
353.629
351.296
348.894
346.446
343.973
341.49
339.007
336.521
334.028
331.521
328.999
326.456
323.889
321.295
318.676
316.037
313.378
310.705
308.016
305.315
302.606
299.893
297.181
294.473
291.77
289.074
286.381
283.688
280.991
278.282
275.561
272.825
270.077
267.325
264.583
261.833
259.017
256.072
253.004
249.908
246.898
244.002
241.162
238.352
235.6
232.905
230.168
227.242
223.973
220.301
216.428
212.506
208.28
203.937
199.732
194.697
188.677
182.798
176.885
471.76
471.681
471.377
470.961
470.588
470.289
470.022
469.779
469.606
469.482
469.367
469.266
469.188
469.141
469.133
469.177
469.238
469.371
469.544
469.743
469.959
470.187
470.427
470.682
470.954
471.241
471.541
471.843
472.143
472.446
472.766
473.112
473.47
473.815
474.135
474.43
474.705
474.96
475.186
475.379
475.506
475.559
475.504
475.346
475.093
474.747
474.304
473.763
473.125
472.405
471.672
470.981
470.418
470.078
469.962
469.996
470.014
469.807
469.255
468.424
467.408
465.633
462.529
458.797
454.865
450.878
446.78
442.438
437.708
432.452
426.555
419.931
412.554
404.454
395.716
386.516
377.21
368.313
360.164
352.612
345.259
337.921
330.798
324.258
318.617
314.078
310.71
308.439
307.194
306.923
307.549
308.987
311.156
313.983
317.404
321.351
325.741
330.461
335.358
340.249
344.942
349.278
353.155
356.522
359.367
361.707
363.569
364.995
366.033
366.722
367.086
367.135
366.877
366.323
365.486
364.384
363.033
361.456
359.679
357.729
355.633
353.416
351.101
348.713
346.275
343.812
341.339
338.863
336.384
333.898
331.401
328.886
326.348
323.788
321.205
318.598
315.969
313.319
310.659
307.984
305.297
302.6
299.897
297.192
294.49
291.791
289.094
286.396
283.697
280.993
278.28
275.556
272.818
270.067
267.313
264.572
261.827
259.018
256.072
252.99
249.879
246.868
243.974
241.126
238.286
235.481
232.722
229.93
226.969
223.708
220.088
216.232
212.271
208.046
203.653
199.282
194.282
188.42
182.416
176.267
472.201
471.962
471.511
471.124
470.784
470.484
470.22
469.936
469.652
469.37
469.097
468.856
468.662
468.518
468.423
468.376
468.405
468.444
468.518
468.641
468.82
469.058
469.359
469.72
470.136
470.597
471.086
471.582
472.069
472.546
473.03
473.529
474.014
474.452
474.837
475.177
475.48
475.744
475.962
476.127
476.218
476.222
476.125
475.929
475.643
475.273
474.815
474.264
473.618
472.898
472.139
471.403
470.79
470.359
470.129
470.069
470.013
469.735
469.152
468.325
467.174
464.93
461.231
457.205
453.133
449.052
444.833
440.305
435.34
429.812
423.619
416.694
409.023
400.643
391.643
382.229
372.835
364.053
356.155
348.738
341.184
333.309
325.53
318.489
312.64
308.13
304.915
302.858
301.861
301.826
302.667
304.299
306.643
309.633
313.217
317.35
321.97
326.973
332.209
337.477
342.556
347.251
351.438
355.059
358.102
360.591
362.558
364.043
365.115
365.827
366.214
366.295
366.08
365.58
364.809
363.782
362.51
361.002
359.28
357.374
355.319
353.141
350.86
348.495
346.073
343.623
341.162
338.698
336.23
333.751
331.257
328.747
326.221
323.676
321.106
318.511
315.894
313.253
310.608
307.945
305.27
302.587
299.897
297.202
294.505
291.805
289.106
286.407
283.707
281.001
278.283
275.552
272.81
270.053
267.295
264.555
261.816
259.01
256.07
252.993
249.878
246.874
243.979
241.121
238.255
235.4
232.568
229.704
226.696
223.436
219.856
216.021
212.039
207.79
203.333
198.858
193.887
188.07
181.88
175.469
472.043
471.802
471.412
471.058
470.739
470.448
470.151
469.81
469.428
469.021
468.582
468.124
467.669
467.241
466.863
466.565
466.37
466.282
466.305
466.432
466.691
467.069
467.553
468.136
468.804
469.537
470.308
471.089
471.85
472.583
473.295
473.977
474.6
475.14
475.597
475.98
476.296
476.547
476.728
476.834
476.86
476.798
476.646
476.402
476.076
475.671
475.193
474.642
474.02
473.334
472.602
471.865
471.207
470.722
470.42
470.269
470.084
469.678
469.001
468.093
466.7
464.023
460.035
455.739
451.566
447.362
442.962
438.187
432.93
427.083
420.57
413.341
405.396
396.778
387.578
378.018
368.582
359.896
352.112
344.565
336.42
327.623
319.027
311.621
305.803
301.509
298.586
296.905
296.251
296.496
297.566
299.388
301.888
305.001
308.691
312.935
317.698
322.906
328.42
334.029
339.487
344.569
349.123
353.076
356.414
359.149
361.312
362.942
364.119
364.895
365.322
365.437
365.257
364.795
364.067
363.097
361.897
360.469
358.815
356.959
354.942
352.801
350.556
348.227
345.836
343.409
340.967
338.518
336.062
333.594
331.11
328.607
326.086
323.548
320.993
318.416
315.816
313.2
310.556
307.903
305.24
302.567
299.886
297.2
294.51
291.817
289.121
286.421
283.716
281.004
278.282
275.55
272.801
270.037
267.27
264.532
261.802
259.004
256.074
253.017
249.906
246.921
244.019
241.148
238.257
235.355
232.447
229.497
226.431
223.156
219.602
215.783
211.775
207.494
202.995
198.429
193.43
187.602
181.252
174.561
472.205
471.952
471.668
471.371
471.033
470.597
470.066
469.432
468.715
467.959
467.159
466.333
465.519
464.755
464.077
463.52
463.119
462.899
462.874
463.052
463.426
464.007
464.787
465.74
466.824
467.988
469.184
470.366
471.496
472.549
473.513
474.377
475.133
475.771
476.288
476.688
476.981
477.181
477.296
477.332
477.295
477.186
477
476.732
476.386
475.97
475.5
474.983
474.427
473.841
473.236
472.636
472.082
471.605
471.22
470.896
470.493
469.898
469.065
468.015
466.354
463.276
458.988
454.548
450.178
445.77
441.134
436.072
430.492
424.313
417.485
409.976
401.8
392.999
383.657
373.99
364.481
355.76
347.866
339.923
330.924
321.111
311.844
304.379
298.862
294.988
292.524
291.224
290.859
291.328
292.588
294.579
297.228
300.466
304.256
308.585
313.438
318.764
324.446
330.284
336.03
341.449
346.357
350.66
354.33
357.371
359.796
361.657
363.015
363.922
364.434
364.604
364.465
364.038
363.34
362.398
361.239
359.874
358.293
356.5
354.527
352.422
350.214
347.92
345.56
343.164
340.75
338.326
335.889
333.437
330.965
328.47
325.956
323.425
320.878
318.313
315.728
313.124
310.497
307.856
305.203
302.54
299.868
297.19
294.505
291.816
289.123
286.425
283.721
281.009
278.286
275.551
272.8
270.032
267.259
264.514
261.784
258.994
256.083
253.063
250.031
247.008
244.088
241.194
238.279
235.335
232.354
229.314
226.178
222.869
219.317
215.501
211.468
207.157
202.62
197.947
192.887
187.032
180.527
173.569
473.136
472.905
472.505
471.934
471.223
470.427
469.54
468.518
467.351
466.088
464.761
463.403
462.069
460.82
459.721
458.83
458.195
457.848
457.818
458.125
458.797
459.799
461.088
462.609
464.289
466.048
467.801
469.477
471.024
472.41
473.625
474.669
475.551
476.273
476.834
477.239
477.508
477.664
477.722
477.692
477.589
477.426
477.202
476.912
476.555
476.141
475.686
475.209
474.729
474.269
473.847
473.472
473.122
472.79
472.386
471.907
471.276
470.46
469.415
468.182
466.275
462.854
458.242
453.528
448.919
444.262
439.331
433.959
428.05
421.554
414.438
406.69
398.332
389.402
379.963
370.196
360.536
351.606
343.39
334.905
325.04
314.372
304.707
297.394
292.232
288.767
286.705
285.715
285.557
286.18
287.577
289.708
292.507
295.902
299.853
304.347
309.362
314.836
320.651
326.63
332.556
338.212
343.418
348.051
352.055
355.417
358.134
360.263
361.84
362.919
363.556
363.809
363.728
363.344
362.679
361.758
360.615
359.277
357.745
356.009
354.088
352.025
349.856
347.598
345.272
342.906
340.52
338.121
335.705
333.271
330.815
328.335
325.831
323.307
320.768
318.212
315.638
313.045
310.432
307.804
305.162
302.508
299.844
297.172
294.493
291.808
289.117
286.42
283.717
281.005
278.285
275.552
272.806
270.045
267.274
264.517
261.768
258.975
256.089
253.108
250.103
247.104
244.165
241.243
238.304
235.326
232.28
229.155
225.937
222.571
218.992
215.167
211.113
206.759
202.188
197.396
192.243
186.324
179.679
172.513
474.295
473.958
473.31
472.455
471.373
470.067
468.58
466.923
465.093
463.125
461.071
458.995
456.98
455.113
453.487
452.187
451.297
450.882
450.964
451.629
452.74
454.261
456.147
458.335
460.732
463.219
465.665
467.953
470.009
471.805
473.337
474.616
475.661
476.495
477.136
477.594
477.895
478.059
478.105
478.047
477.898
477.678
477.4
477.072
476.694
476.271
475.812
475.338
474.883
474.481
474.159
473.941
473.821
473.736
473.545
473.057
472.284
471.27
469.991
468.541
466.43
462.726
457.742
452.666
447.746
442.793
437.549
431.854
425.627
418.838
411.473
403.534
395.045
386.036
376.538
366.674
356.787
347.492
338.806
329.769
319.211
307.915
297.989
290.791
285.87
282.711
280.937
280.142
280.087
280.773
282.23
284.439
287.343
290.885
295.039
299.786
305.076
310.81
316.844
323.013
329.124
334.992
340.466
345.411
349.742
353.42
356.452
358.855
360.661
361.924
362.702
363.055
363.041
362.705
362.078
361.184
360.058
358.734
357.229
355.536
353.657
351.632
349.499
347.278
344.986
342.65
340.291
337.915
335.519
333.099
330.658
328.193
325.703
323.191
320.66
318.113
315.548
312.965
310.364
307.746
305.115
302.47
299.814
297.149
294.475
291.793
289.105
286.409
283.707
280.996
278.276
275.545
272.803
270.056
267.296
264.526
261.748
258.946
256.091
253.154
250.188
247.203
244.24
241.289
238.328
235.316
232.214
229.014
225.71
222.264
218.631
214.78
210.708
206.393
201.691
196.762
191.472
185.454
178.698
171.386
474.581
474.175
473.344
472.164
470.696
468.918
466.828
464.447
461.801
458.94
455.94
452.896
449.925
447.157
444.737
442.819
441.534
440.984
441.225
441.972
443.327
445.3
447.854
450.912
454.355
458.001
461.604
464.935
467.865
470.359
472.428
474.108
475.439
476.465
477.225
477.768
478.125
478.324
478.388
478.336
478.179
477.936
477.624
477.257
476.836
476.37
475.872
475.359
474.86
474.432
474.14
474.027
474.053
474.145
474.179
473.911
473.204
472.081
470.565
468.845
466.6
462.717
457.386
451.899
446.605
441.323
435.757
429.751
423.23
416.182
408.612
400.532
391.959
382.919
373.401
363.456
353.303
343.549
334.319
324.809
313.782
302.019
291.811
284.549
279.678
276.679
275.102
274.433
274.432
275.154
276.646
278.877
281.794
285.375
289.643
294.606
300.203
306.287
312.673
319.17
325.595
331.782
337.581
342.862
347.521
351.518
354.846
357.511
359.537
360.976
361.892
362.348
362.406
362.121
361.532
360.669
359.563
358.252
356.765
355.104
353.266
351.274
349.17
346.98
344.718
342.408
340.072
337.717
335.338
332.932
330.502
328.049
325.572
323.072
320.552
318.015
315.459
312.885
310.293
307.685
305.063
302.427
299.779
297.12
294.452
291.774
289.089
286.395
283.694
280.983
278.263
275.533
272.793
270.055
267.287
264.517
261.728
258.925
256.1
253.235
250.286
247.3
244.31
241.333
238.349
235.303
232.147
228.877
225.491
221.958
218.254
214.357
210.247
205.869
201.108
196.028
190.56
184.403
177.543
170.148
473.84
473.387
472.462
471.093
469.27
466.975
464.185
460.912
457.192
453.106
448.78
444.375
440.084
436.118
432.692
429.985
428.125
427.168
427.116
428.104
430.016
432.72
436.117
440.155
444.777
449.838
455.036
459.967
464.292
467.883
470.766
473.034
474.786
476.1
477.043
477.697
478.119
478.354
478.437
478.396
478.247
478.001
477.666
477.268
476.826
476.335
475.791
475.216
474.637
474.099
473.691
473.524
473.647
473.937
474.203
474.168
473.65
472.587
470.903
468.845
466.48
462.568
457.008
451.122
445.421
439.792
433.92
427.632
420.856
413.593
405.865
397.693
389.088
380.052
370.545
360.569
350.165
339.948
330.153
320.26
308.963
296.821
286.224
278.673
273.65
270.674
269.249
268.699
268.775
269.576
271.119
273.312
276.105
279.552
283.768
288.822
294.665
301.124
307.964
314.949
321.869
328.538
334.785
340.476
345.503
349.821
353.422
356.324
358.551
360.148
361.186
361.734
361.857
361.616
361.06
360.225
359.141
357.842
356.361
354.718
352.913
350.958
348.884
346.72
344.483
342.193
339.873
337.532
335.166
332.771
330.351
327.908
325.441
322.951
320.442
317.914
315.369
312.804
310.22
307.621
305.007
302.379
299.739
297.087
294.424
291.751
289.069
286.377
283.677
280.968
278.248
275.518
272.775
270.01
267.264
264.498
261.716
258.921
256.119
253.279
250.356
247.368
244.364
241.375
238.375
235.295
232.086
228.744
225.274
221.655
217.873
213.915
209.747
205.293
200.446
195.187
189.5
183.157
176.17
168.722
472.541
472.071
471.058
469.49
467.262
464.315
460.621
456.207
451.16
445.626
439.814
433.997
428.494
423.613
419.593
416.624
414.818
414.239
414.825
416.658
419.375
422.691
426.38
430.354
434.866
440.32
446.684
453.326
459.421
464.492
468.462
471.482
473.734
475.402
476.592
477.401
477.909
478.184
478.283
478.243
478.093
477.849
477.518
477.107
476.624
476.081
475.491
474.868
474.214
473.547
472.939
472.539
472.533
472.892
473.391
473.674
473.367
472.429
470.714
468.353
465.751
461.942
456.372
450.183
444.096
438.133
431.994
425.476
418.5
411.076
403.243
395.027
386.436
377.444
367.975
357.973
347.483
336.86
326.509
316.257
304.837
292.412
281.32
273.267
267.899
264.811
263.491
263.049
263.195
264.063
265.591
267.595
270.037
273.09
277.015
282.009
288.082
295.029
302.529
310.243
317.884
325.213
332.04
338.224
343.664
348.319
352.192
355.316
357.728
359.472
360.62
361.25
361.434
361.232
360.7
359.879
358.806
357.513
356.035
354.396
352.607
350.679
348.632
346.493
344.279
342.008
339.699
337.365
335.005
332.619
330.206
327.77
325.311
322.83
320.33
317.811
315.275
312.72
310.145
307.554
304.947
302.328
299.695
297.049
294.391
291.723
289.044
286.355
283.657
280.949
278.231
275.5
272.758
270
267.249
264.484
261.706
258.919
256.12
253.287
250.38
247.402
244.406
241.42
238.412
235.304
232.039
228.62
225.065
221.362
217.502
213.472
209.226
204.669
199.691
194.233
188.285
181.706
174.545
167.034
471.444
470.936
469.775
467.911
465.168
461.48
456.845
451.348
445.156
438.493
431.626
424.852
418.486
412.851
408.267
405.028
403.372
403.385
404.793
407.332
410.862
415.156
419.86
424.455
428.701
433.435
439.441
446.798
454.317
460.816
465.91
469.676
472.457
474.484
475.918
476.885
477.491
477.823
477.949
477.92
477.766
477.506
477.154
476.723
476.227
475.665
475.022
474.317
473.584
472.82
472.041
471.36
471.015
471.176
471.693
472.196
472.149
471.358
469.723
467.178
464.23
460.512
455.19
448.897
442.527
436.283
429.933
423.258
416.16
408.644
400.761
392.549
384.01
375.104
365.735
355.79
345.242
334.352
323.562
312.836
301.322
288.944
277.281
268.527
262.615
259.236
257.95
257.58
257.754
258.624
259.987
261.522
263.237
265.486
268.784
273.564
279.943
287.634
296.118
304.88
313.504
321.691
329.239
336.007
341.914
346.939
351.101
354.447
357.034
358.916
360.164
360.866
361.105
360.946
360.441
359.634
358.562
357.265
355.782
354.141
352.358
350.442
348.412
346.29
344.095
341.841
339.543
337.213
334.855
332.472
330.064
327.634
325.182
322.709
320.216
317.706
315.179
312.633
310.067
307.484
304.885
302.273
299.646
297.006
294.354
291.689
289.014
286.327
283.631
280.925
278.208
275.478
272.739
269.996
267.239
264.47
261.69
258.905
256.111
253.288
250.395
247.43
244.444
241.468
238.46
235.325
232.001
228.508
224.874
221.095
217.163
213.058
208.715
204.025
198.874
193.161
186.914
180.037
172.639
165.02
471.378
470.8
469.48
467.328
464.108
459.775
454.366
448.002
440.875
433.208
425.242
417.246
409.544
402.442
396.279
391.461
388.439
387.58
389.133
392.972
398.616
405.596
413.263
420.228
425.302
429.502
434.786
441.942
450.179
457.6
463.509
467.894
471.108
473.436
475.075
476.172
476.856
477.234
477.384
477.366
477.223
476.969
476.604
476.133
475.591
475.002
474.335
473.571
472.745
471.878
470.965
470.052
469.334
469.092
469.333
469.786
469.889
469.218
467.651
465.047
461.784
458.058
453.142
447.023
440.556
434.137
427.657
420.911
413.781
406.255
398.385
390.22
381.774
373.002
363.793
353.979
343.463
332.421
321.275
310.199
298.622
286.228
274.144
264.562
257.889
253.986
252.608
252.259
252.431
253.219
254.209
254.924
255.46
256.414
258.673
263.037
269.796
278.515
288.348
298.511
308.419
317.706
326.152
333.63
340.098
345.56
350.059
353.659
356.432
358.452
359.796
360.559
360.837
360.705
360.221
359.431
358.368
357.071
355.582
353.935
352.151
350.24
348.215
346.099
343.914
341.673
339.386
337.062
334.707
332.326
329.922
327.497
325.05
322.584
320.1
317.598
315.079
312.542
309.985
307.41
304.819
302.214
299.594
296.96
294.312
291.652
288.979
286.294
283.6
280.896
278.18
275.451
272.714
269.973
267.218
264.448
261.667
258.886
256.104
253.291
250.408
247.453
244.479
241.515
238.507
235.343
231.966
228.409
224.703
220.85
216.844
212.652
208.198
203.355
198.004
192.022
185.412
178.166
170.462
162.664
473.431
472.726
471.248
468.876
465.326
460.581
454.644
447.655
439.794
431.249
422.263
413.02
404.124
395.872
388.738
383.177
379.688
378.736
380.764
385.573
392.247
400.123
409.164
417.835
424.225
428.378
433.054
439.753
447.975
455.729
461.969
466.577
469.951
472.413
474.165
475.349
476.094
476.513
476.686
476.672
476.514
476.238
475.856
475.365
474.782
474.145
473.45
472.65
471.753
470.792
469.763
468.675
467.651
466.97
466.763
466.839
466.76
465.96
464.424
461.885
458.478
454.662
450.116
444.45
438.162
431.753
425.267
418.553
411.49
404.046
396.259
388.192
379.876
371.277
362.273
352.659
342.279
331.206
319.83
308.522
296.958
284.621
272.186
261.764
254.189
249.545
247.84
247.393
247.475
248.099
248.512
248.126
247.129
246.322
247.04
250.66
257.78
267.783
279.312
291.206
302.677
313.298
322.817
331.131
338.239
344.189
349.06
352.94
355.917
358.081
359.524
360.347
360.656
360.539
360.056
359.26
358.195
356.899
355.41
353.761
351.976
350.064
348.039
345.922
343.737
341.501
339.222
336.905
334.555
332.178
329.779
327.359
324.919
322.459
319.982
317.489
314.978
312.449
309.901
307.334
304.751
302.152
299.538
296.91
294.267
291.61
288.94
286.257
283.565
280.862
278.147
275.419
272.683
269.941
267.186
264.417
261.64
258.865
256.086
253.278
250.402
247.463
244.512
241.563
238.551
235.359
231.938
228.324
224.548
220.615
216.513
212.204
207.607
202.581
196.994
190.723
183.726
176.08
168.022
159.988
477.365
476.512
474.893
472.38
468.711
463.831
457.745
450.559
442.46
433.664
424.434
415.107
406.132
397.997
391.117
385.839
382.511
381.563
383.309
387.799
394.139
401.446
409.775
418.323
424.959
429.089
433.457
439.868
447.865
455.449
461.512
465.981
469.279
471.715
473.462
474.65
475.399
475.827
476.016
476.01
475.847
475.554
475.136
474.596
473.954
473.256
472.514
471.682
470.734
469.695
468.57
467.351
466.111
465.066
464.403
463.996
463.513
462.471
460.699
458.154
454.732
450.876
446.593
441.463
435.573
429.365
422.995
416.398
409.476
402.18
394.535
386.603
378.436
370.021
361.232
351.847
341.67
330.68
319.215
307.775
296.28
284.08
271.473
260.33
251.841
246.336
243.96
243.316
243.218
243.642
243.429
241.947
239.377
236.607
235.478
238.172
245.672
257.112
270.419
283.99
296.952
308.882
319.513
328.717
336.498
342.945
348.182
352.332
355.505
357.806
359.34
360.217
360.553
360.448
359.967
359.162
358.08
356.767
355.265
353.608
351.819