/*--------------------------------*- C++ -*----------------------------------*\
  =========                 |
  \\      /  F ield         | OpenFOAM: The Open Source CFD Toolbox
   \\    /   O peration     | Website:  https://openfoam.org
    \\  /    A nd           | Version:  9
     \\/     M anipulation  |
\*---------------------------------------------------------------------------*/
FoamFile
{
    format      ascii;
    class       surfaceScalarField;
    location    "0.075";
    object      phi;
}
// * * * * * * * * * * * * * * * * * * * * * * * * * * * * * * * * * * * * * //

dimensions      [0 3 -1 0 0 0 0];

internalField   nonuniform List<scalar> 
24170
(
3.11688e-06
1.26549e-07
3.0169e-06
9.99794e-08
2.92167e-06
9.52352e-08
2.82405e-06
9.7621e-08
2.74007e-06
8.39808e-08
2.67289e-06
6.71809e-08
2.61189e-06
6.09993e-08
2.54567e-06
6.62212e-08
2.47049e-06
7.51776e-08
2.39276e-06
7.77271e-08
2.32129e-06
7.14722e-08
2.26172e-06
5.9571e-08
2.21631e-06
4.54062e-08
2.17647e-06
3.98415e-08
2.14563e-06
3.08416e-08
2.11268e-06
3.29524e-08
2.08295e-06
2.97255e-08
2.11237e-08
2.06183e-06
3.45602e-06
5.20855e-08
3.44547e-06
1.1053e-07
3.46364e-06
7.70644e-08
3.49869e-06
6.25688e-08
3.51335e-06
6.9325e-08
3.50314e-06
7.73926e-08
3.48496e-06
7.91766e-08
3.47421e-06
7.69736e-08
3.47436e-06
7.50248e-08
3.48159e-06
7.04952e-08
3.49005e-06
6.30094e-08
3.49526e-06
5.43689e-08
3.49365e-06
4.70133e-08
3.48651e-06
4.69766e-08
3.47151e-06
4.5846e-08
3.45819e-06
4.62691e-08
3.44056e-06
4.73617e-08
3.3849e-08
3.42783e-06
3.59948e-06
-1.11576e-08
3.6698e-06
4.02061e-08
3.7139e-06
3.29592e-08
3.74601e-06
3.04607e-08
3.76918e-06
4.61611e-08
3.77541e-06
7.11626e-08
3.76934e-06
8.52452e-08
3.76369e-06
8.26245e-08
3.76767e-06
7.10462e-08
3.78239e-06
5.57733e-08
3.80467e-06
4.07242e-08
3.82816e-06
3.08864e-08
3.84706e-06
2.81103e-08
3.85831e-06
3.57277e-08
3.85945e-06
4.47028e-08
3.85415e-06
5.15715e-08
3.84535e-06
5.61615e-08
4.98827e-08
3.82931e-06
3.90717e-06
-6.15719e-08
3.97297e-06
-2.55961e-08
4.00314e-06
2.79046e-09
3.99698e-06
3.66276e-08
3.96882e-06
7.43115e-08
3.94104e-06
9.89463e-08
3.93371e-06
9.25758e-08
3.95197e-06
6.43618e-08
3.98529e-06
3.77282e-08
4.01926e-06
2.18038e-08
4.04395e-06
1.60317e-08
4.05753e-06
1.73069e-08
4.06299e-06
2.26571e-08
4.06658e-06
3.21308e-08
4.07077e-06
4.05161e-08
4.07783e-06
4.45118e-08
4.0882e-06
4.57891e-08
4.21363e-08
4.09595e-06
4.26451e-06
-1.83906e-07
4.30861e-06
-6.96916e-08
4.29081e-06
2.05865e-08
4.23085e-06
9.65868e-08
4.16976e-06
1.354e-07
4.14796e-06
1.20746e-07
4.17296e-06
6.75788e-08
4.22845e-06
8.87004e-09
4.2909e-06
-2.47246e-08
4.34193e-06
-2.92188e-08
4.37175e-06
-1.37946e-08
4.38143e-06
7.63285e-09
4.37801e-06
2.60758e-08
4.37161e-06
3.85279e-08
4.36927e-06
4.28544e-08
4.37334e-06
4.0442e-08
4.38421e-06
3.49264e-08
2.96705e-08
4.39667e-06
4.45215e-06
-9.79532e-08
4.48754e-06
-1.0508e-07
4.53338e-06
-2.52473e-08
4.54569e-06
8.42772e-08
4.5484e-06
1.32682e-07
4.55746e-06
1.11694e-07
4.56724e-06
5.77946e-08
4.56776e-06
8.35438e-09
4.55848e-06
-1.54471e-08
4.54425e-06
-1.49945e-08
4.53191e-06
-1.45269e-09
4.52497e-06
1.4573e-08
4.52573e-06
2.53215e-08
4.53525e-06
2.89984e-08
4.5527e-06
2.54088e-08
4.57572e-06
1.74269e-08
4.60279e-06
7.84897e-09
2.41112e-09
4.63005e-06
4.85501e-06
-1.80651e-07
4.91845e-06
-1.68519e-07
4.95433e-06
-6.11324e-08
4.96515e-06
7.34604e-08
4.9619e-06
1.35934e-07
4.96302e-06
1.10574e-07
4.97661e-06
4.42066e-08
4.99492e-06
-9.95654e-09
5.00483e-06
-2.53615e-08
5.00215e-06
-1.23068e-08
4.99004e-06
1.06544e-08
4.97492e-06
2.96886e-08
4.96258e-06
3.76615e-08
4.95756e-06
3.40174e-08
4.96246e-06
2.05107e-08
4.97749e-06
2.40322e-09
5.00159e-06
-1.62546e-08
-2.83254e-08
5.03233e-06
5.25565e-06
5.56144e-10
5.22897e-06
-1.4184e-07
5.24752e-06
-7.9681e-08
5.26371e-06
5.72713e-08
5.27321e-06
1.26428e-07
5.29186e-06
9.19269e-08
5.32503e-06
1.10338e-08
5.36603e-06
-5.0954e-08
5.39981e-06
-5.91456e-08
5.41614e-06
-2.86351e-08
5.41156e-06
1.52324e-08
5.39416e-06
4.70948e-08
5.37539e-06
5.64315e-08
5.3643e-06
4.5106e-08
5.36452e-06
2.02908e-08
5.37511e-06
-8.18868e-09
5.39278e-06
-3.39272e-08
-5.11082e-08
5.41557e-06
5.57973e-06
-5.75802e-08
5.55327e-06
-1.15385e-07
5.56681e-06
-9.32171e-08
5.60246e-06
2.16219e-08
5.63734e-06
9.15469e-08
5.65963e-06
6.96346e-08
5.66647e-06
4.19414e-09
5.65921e-06
-4.36927e-08
5.65154e-06
-5.14756e-08
5.65138e-06
-2.84716e-08
5.66444e-06
2.17141e-09
5.68835e-06
2.31799e-08
5.71833e-06
2.64593e-08
5.74846e-06
1.49731e-08
5.77376e-06
-5.01458e-09
5.79274e-06
-2.71608e-08
5.8054e-06
-4.65894e-08
-6.14664e-08
5.81576e-06
5.82862e-06
-1.85118e-07
5.91641e-06
-2.03173e-07
5.96717e-06
-1.4398e-07
6.02363e-06
-3.48357e-08
6.07074e-06
4.44423e-08
6.10076e-06
3.96135e-08
6.11927e-06
-1.43208e-08
6.13571e-06
-6.01291e-08
6.1464e-06
-6.21663e-08
6.15055e-06
-3.26279e-08
6.14854e-06
4.18522e-09
6.14604e-06
2.5677e-08
6.14677e-06
2.57293e-08
6.15185e-06
9.89789e-09
6.15995e-06
-1.31206e-08
6.17035e-06
-3.75526e-08
6.18392e-06
-6.0158e-08
-7.9189e-08
6.20164e-06
6.32962e-06
-2.42794e-07
6.34012e-06
-2.13676e-07
6.39089e-06
-1.94746e-07
6.44006e-06
-8.40098e-08
6.45907e-06
2.54321e-08
6.45035e-06
4.83378e-08
6.44358e-06
-7.55118e-09
6.4534e-06
-6.99553e-08
6.48389e-06
-9.26493e-08
6.5199e-06
-6.86398e-08
6.54872e-06
-2.46303e-08
6.56576e-06
8.63043e-09
6.57239e-06
1.91037e-08
6.57606e-06
6.22144e-09
6.58506e-06
-2.2116e-08
6.60217e-06
-5.46605e-08
6.62768e-06
-8.56751e-08
-1.09782e-07
6.65828e-06
5.76793e-06
-8.23456e-08
5.76065e-06
-2.06397e-07
5.73502e-06
-1.69114e-07
5.69124e-06
-4.02257e-08
5.69254e-06
2.4134e-08
5.74257e-06
-1.69637e-09
5.80187e-06
-6.68481e-08
5.83752e-06
-1.05607e-07
5.84084e-06
-9.59666e-08
5.82588e-06
-5.36846e-08
5.81038e-06
-9.1276e-09
5.80299e-06
1.60169e-08
5.81027e-06
1.18263e-08
5.83023e-06
-1.37385e-08
5.858e-06
-4.98886e-08
5.88909e-06
-8.57458e-08
5.91989e-06
-1.16479e-07
-1.39732e-07
5.94984e-06
7.07441e-06
-1.74682e-07
7.10124e-06
-2.33227e-07
7.11444e-06
-1.8231e-07
7.11864e-06
-4.44268e-08
7.13472e-06
8.04943e-09
7.16224e-06
-2.92111e-08
7.17611e-06
-8.07182e-08
7.17195e-06
-1.01451e-07
7.15731e-06
-8.1319e-08
7.14525e-06
-4.16314e-08
7.14647e-06
-1.03468e-08
7.16412e-06
-1.62708e-09
7.19066e-06
-1.47148e-08
7.21927e-06
-4.23535e-08
7.24332e-06
-7.39397e-08
7.26085e-06
-1.03276e-07
7.2739e-06
-1.29523e-07
-1.51945e-07
7.28611e-06
8.59539e-06
-1.83947e-07
8.6247e-06
-2.62534e-07
8.65829e-06
-2.15902e-07
8.69169e-06
-7.78239e-08
8.72388e-06
-2.41357e-08
8.73897e-06
-4.43041e-08
8.73442e-06
-7.61665e-08
8.71345e-06
-8.04821e-08
8.68657e-06
-5.44375e-08
8.66547e-06
-2.0537e-08
8.65469e-06
4.3368e-10
8.65543e-06
-2.36821e-09
8.66461e-06
-2.38932e-08
8.67829e-06
-5.60329e-08
8.69525e-06
-9.08964e-08
8.71498e-06
-1.23011e-07
8.73726e-06
-1.51804e-07
-1.78659e-07
8.76398e-06
1.07761e-05
-3.54783e-07
1.06605e-05
-1.46849e-07
1.05235e-05
-7.89119e-08
1.04899e-05
-4.42827e-08
1.05283e-05
-6.24757e-08
1.05992e-05
-1.1525e-07
1.06635e-05
-1.40501e-07
1.06956e-05
-1.12551e-07
1.06979e-05
-5.67679e-08
1.06877e-05
-1.02842e-08
1.0685e-05
3.1184e-09
1.06964e-05
-1.37307e-08
1.0723e-05
-5.04828e-08
1.07563e-05
-8.93294e-08
1.07887e-05
-1.23349e-07
1.08167e-05
-1.50972e-07
1.08397e-05
-1.74837e-07
-1.97841e-07
1.08589e-05
1.27623e-05
-1.74863e-08
1.26136e-05
1.87058e-09
1.26352e-05
-1.00517e-07
1.26988e-05
-1.07839e-07
1.27117e-05
-7.54302e-08
1.26723e-05
-7.58135e-08
1.26251e-05
-9.32897e-08
1.2613e-05
-1.00474e-07
1.26504e-05
-9.41087e-08
1.27255e-05
-8.54103e-08
1.28125e-05
-8.39267e-08
1.28895e-05
-9.07223e-08
1.29424e-05
-1.03315e-07
1.29722e-05
-1.19192e-07
1.29869e-05
-1.37998e-07
1.29965e-05
-1.60634e-07
1.30083e-05
-1.86592e-07
-2.16019e-07
1.30265e-05
1.60218e-05
1.77551e-08
1.58951e-05
1.28536e-07
1.58519e-05
-5.73033e-08
1.58565e-05
-1.12369e-07
1.58665e-05
-8.54836e-08
1.58424e-05
-5.17507e-08
1.57798e-05
-3.06365e-08
1.57062e-05
-2.68411e-08
1.56526e-05
-4.05243e-08
1.56355e-05
-6.83486e-08
1.56563e-05
-1.04739e-07
1.57079e-05
-1.42312e-07
1.57788e-05
-1.74247e-07
1.58568e-05
-1.97193e-07
1.59288e-05
-2.09933e-07
1.59844e-05
-2.16227e-07
1.60157e-05
-2.17905e-07
-2.2025e-07
1.60199e-05
1.94103e-05
2.28315e-07
1.91984e-05
3.40402e-07
1.90023e-05
1.38768e-07
1.89241e-05
-3.41339e-08
1.89397e-05
-1.01096e-07
1.89617e-05
-7.37196e-08
1.89475e-05
-1.64788e-08
1.89029e-05
1.77953e-08
1.88611e-05
1.26553e-09
1.88462e-05
-5.3428e-08
1.88672e-05
-1.2577e-07
1.89159e-05
-1.91018e-07
1.8978e-05
-2.36354e-07
1.90408e-05
-2.59954e-07
1.90953e-05
-2.64436e-07
1.91363e-05
-2.57238e-07
1.9162e-05
-2.43589e-07
-2.30807e-07
1.91725e-05
2.2761e-05
2.67758e-07
2.29896e-05
1.11795e-07
2.31225e-05
5.824e-09
2.31754e-05
-8.70236e-08
2.31748e-05
-1.00474e-07
2.31464e-05
-4.52794e-08
2.31181e-05
1.1751e-08
2.31265e-05
9.39023e-09
2.31743e-05
-4.65386e-08
2.32371e-05
-1.16182e-07
2.32828e-05
-1.7143e-07
2.32962e-05
-2.04416e-07
2.32794e-05
-2.19629e-07
2.3245e-05
-2.25531e-07
2.32072e-05
-2.26661e-07
2.31749e-05
-2.24952e-07
2.31519e-05
-2.20594e-07
-2.11845e-07
2.3133e-05
1.68201e-05
4.55375e-07
1.66501e-05
2.81806e-07
1.65981e-05
5.78031e-08
1.66552e-05
-1.44151e-07
1.67699e-05
-2.15184e-07
1.68814e-05
-1.56784e-07
1.69518e-05
-5.8624e-08
1.69699e-05
-8.66146e-09
1.69434e-05
-2.01242e-08
1.68909e-05
-6.36443e-08
1.68316e-05
-1.12106e-07
1.67775e-05
-1.50309e-07
1.67337e-05
-1.75814e-07
1.67014e-05
-1.93288e-07
1.6682e-05
-2.07211e-07
1.66758e-05
-2.18742e-07
1.66834e-05
-2.28193e-07
-2.33131e-07
1.67046e-05
1.49822e-05
2.63335e-07
1.4955e-05
3.0899e-07
1.48442e-05
1.68612e-07
1.47128e-05
-1.27604e-08
1.4607e-05
-1.09369e-07
1.45909e-05
-1.40688e-07
1.46578e-05
-1.25529e-07
1.47473e-05
-9.81769e-08
1.48112e-05
-8.40229e-08
1.48363e-05
-8.87326e-08
1.48303e-05
-1.06157e-07
1.48074e-05
-1.27401e-07
1.47782e-05
-1.46595e-07
1.47474e-05
-1.6248e-07
1.47172e-05
-1.77065e-07
1.46901e-05
-1.91575e-07
1.46688e-05
-2.06913e-07
-2.19636e-07
1.46553e-05
1.24959e-05
-1.45156e-09
1.27661e-05
3.88555e-08
1.29001e-05
3.45596e-08
1.29056e-05
-1.8249e-08
1.2838e-05
-4.17825e-08
1.27305e-05
-3.3182e-08
1.26316e-05
-2.65656e-08
1.25691e-05
-3.57702e-08
1.25413e-05
-5.61682e-08
1.25331e-05
-8.05586e-08
1.25309e-05
-1.03931e-07
1.25274e-05
-1.23949e-07
1.25211e-05
-1.40219e-07
1.25149e-05
-1.56278e-07
1.25126e-05
-1.74816e-07
1.25161e-05
-1.95018e-07
1.25242e-05
-2.15099e-07
-2.29833e-07
1.25344e-05
1.11156e-05
6.60044e-08
1.11736e-05
-1.91341e-08
1.12397e-05
-3.15727e-08
1.1277e-05
-5.55074e-08
1.12923e-05
-5.71189e-08
1.12944e-05
-3.53091e-08
1.12856e-05
-1.77348e-08
1.12671e-05
-1.72928e-08
1.12424e-05
-3.14201e-08
1.12126e-05
-5.07504e-08
1.1178e-05
-6.93732e-08
1.11426e-05
-8.85613e-08
1.11142e-05
-1.11755e-07
1.10981e-05
-1.40269e-07
1.10943e-05
-1.7096e-07
1.10977e-05
-1.98402e-07
1.1101e-05
-2.1839e-07
-2.2597e-07
1.10971e-05
9.54854e-06
-3.51428e-08
9.60025e-06
-7.08418e-08
9.60603e-06
-3.73532e-08
9.60463e-06
-5.41059e-08
9.62535e-06
-7.78371e-08
9.67422e-06
-8.41809e-08
9.73027e-06
-7.37889e-08
9.76642e-06
-5.34376e-08
9.77146e-06
-3.64634e-08
9.75229e-06
-3.15734e-08
9.72409e-06
-4.11798e-08
9.69909e-06
-6.35592e-08
9.68135e-06
-9.40095e-08
9.66899e-06
-1.2791e-07
9.65783e-06
-1.59806e-07
9.64425e-06
-1.8482e-07
9.62619e-06
-2.0033e-07
-2.04465e-07
9.60468e-06
8.3433e-06
-1.28998e-07
8.3723e-06
-9.98396e-08
8.37591e-06
-4.09658e-08
8.40245e-06
-8.06434e-08
8.45815e-06
-1.33541e-07
8.51201e-06
-1.38036e-07
8.54521e-06
-1.06988e-07
8.55849e-06
-6.67243e-08
8.55887e-06
-3.68374e-08
8.55102e-06
-2.37249e-08
8.53663e-06
-2.67867e-08
8.51659e-06
-4.35233e-08
8.49321e-06
-7.06331e-08
8.4675e-06
-1.02199e-07
8.43849e-06
-1.3079e-07
8.40484e-06
-1.5117e-07
8.3654e-06
-1.60891e-07
-1.60008e-07
8.32094e-06
7.31483e-06
-1.4474e-07
7.28982e-06
-7.48298e-08
7.25979e-06
-1.09318e-08
7.22176e-06
-4.26097e-08
7.1752e-06
-8.69817e-08
7.14708e-06
-1.09916e-07
7.15683e-06
-1.16737e-07
7.20161e-06
-1.11506e-07
7.26255e-06
-9.77833e-08
7.32097e-06
-8.21413e-08
7.36736e-06
-7.31763e-08
7.39987e-06
-7.60328e-08
7.41809e-06
-8.88526e-08
7.42031e-06
-1.04425e-07
7.40454e-06
-1.15014e-07
7.37093e-06
-1.17565e-07
7.32248e-06
-1.12442e-07
-1.04144e-07
7.26662e-06
6.36607e-06
-1.62652e-07
6.38291e-06
-9.16661e-08
6.40917e-06
-3.7196e-08
6.40958e-06
-4.30158e-08
6.37969e-06
-5.70948e-08
6.34453e-06
-7.47501e-08
6.32915e-06
-1.01364e-07
6.34355e-06
-1.25904e-07
6.38056e-06
-1.34789e-07
6.42152e-06
-1.23107e-07
6.44619e-06
-9.78399e-08
6.44277e-06
-7.26164e-08
6.41274e-06
-5.88209e-08
6.36668e-06
-5.83699e-08
6.31718e-06
-6.55125e-08
6.27333e-06
-7.37116e-08
6.23906e-06
-7.81683e-08
-7.99863e-08
6.2149e-06
5.65293e-06
-9.51468e-08
5.64715e-06
-8.58877e-08
5.67656e-06
-6.66095e-08
5.7076e-06
-7.40517e-08
5.73778e-06
-8.72747e-08
5.75266e-06
-8.96355e-08
5.73752e-06
-8.62214e-08
5.69357e-06
-8.19591e-08
5.63528e-06
-7.64975e-08
5.5791e-06
-6.69235e-08
5.5356e-06
-5.43401e-08
5.50868e-06
-4.56975e-08
5.49745e-06
-4.75949e-08
5.49817e-06
-5.90886e-08
5.50461e-06
-7.1945e-08
5.50999e-06
-7.90981e-08
5.50913e-06
-7.73039e-08
-7.17978e-08
5.50094e-06
4.90026e-06
-1.31165e-09
4.86777e-06
-5.33973e-08
4.86745e-06
-6.62892e-08
4.8722e-06
-7.88034e-08
4.8661e-06
-8.11665e-08
4.85455e-06
-7.80941e-08
4.84223e-06
-7.38985e-08
4.82651e-06
-6.62354e-08
4.80526e-06
-5.52443e-08
4.78301e-06
-4.46784e-08
4.7681e-06
-3.94343e-08
4.76559e-06
-4.31859e-08
4.77364e-06
-5.56439e-08
4.78565e-06
-7.10981e-08
4.79545e-06
-8.17486e-08
4.80001e-06
-8.36535e-08
4.79904e-06
-7.63292e-08
-6.61178e-08
4.79336e-06
4.13684e-06
4.08344e-06
4.01715e-06
3.93835e-06
3.85718e-06
3.77909e-06
3.70519e-06
3.63895e-06
3.58371e-06
3.53903e-06
3.49959e-06
3.45641e-06
3.40076e-06
3.32967e-06
3.24792e-06
3.16426e-06
3.08793e-06
3.02182e-06
-6.118e-07
6.118e-07
-1.11631e-06
5.04507e-07
-1.48183e-06
3.65518e-07
-1.68582e-06
2.03993e-07
-1.64096e-06
-4.48623e-08
-1.39031e-06
-2.50645e-07
-1.00224e-06
-3.88073e-07
-5.44353e-07
-4.57885e-07
-7.62031e-08
-4.6815e-07
3.63083e-07
-4.39287e-07
7.5311e-07
-3.90027e-07
1.08855e-06
-3.35439e-07
1.37214e-06
-2.83586e-07
1.61042e-06
-2.38285e-07
1.81173e-06
-2.01314e-07
1.98466e-06
-1.72929e-07
2.13692e-06
-1.52261e-07
2.27501e-06
-1.38084e-07
2.40405e-06
-1.29045e-07
2.5278e-06
-1.23745e-07
2.64878e-06
-1.20985e-07
2.76858e-06
-1.19796e-07
2.88762e-06
-1.19047e-07
3.00557e-06
-1.1795e-07
3.12174e-06
-1.16167e-07
3.23446e-06
-1.12715e-07
3.34209e-06
-1.07633e-07
3.44316e-06
-1.01067e-07
3.53483e-06
-9.16726e-08
3.61626e-06
-8.14291e-08
3.68524e-06
-6.8978e-08
3.73907e-06
-5.38369e-08
3.77976e-06
-4.06822e-08
3.801e-06
-2.12481e-08
3.80635e-06
-5.34337e-09
3.79199e-06
1.43608e-08
3.74377e-06
4.82204e-08
3.68072e-06
6.30433e-08
3.56135e-06
1.19371e-07
3.40145e-06
1.59905e-07
3.18796e-06
2.13485e-07
2.81437e-06
3.73591e-07
2.41308e-06
4.0129e-07
1.67469e-06
7.38388e-07
5.73027e-07
1.10166e-06
-2.16628e-07
7.89655e-07
-6.90552e-07
4.73923e-07
-1.0123e-06
3.21752e-07
-1.23104e-06
2.18734e-07
-1.36051e-06
1.29468e-07
-1.38402e-06
2.35193e-08
-1.28688e-06
-9.71488e-08
-1.08885e-06
-1.98022e-07
-8.08743e-07
-2.80111e-07
-4.15132e-07
-3.93612e-07
1.76467e-07
-5.91598e-07
9.74644e-07
-7.98178e-07
1.81263e-06
-8.37986e-07
2.26606e-06
-4.5343e-07
2.20727e-06
5.8792e-08
1.87778e-06
3.29491e-07
1.78e-06
9.77787e-08
2.104e-06
-3.24002e-07
2.45248e-06
-3.48483e-07
2.43563e-06
1.68518e-08
1.95229e-06
4.83345e-07
1.10136e-06
8.50926e-07
1.59619e-07
9.41741e-07
-7.6036e-07
9.19979e-07
-1.67673e-06
9.16372e-07
-2.62346e-06
9.46727e-07
-3.63083e-06
1.00737e-06
-4.71511e-06
1.08428e-06
-5.86807e-06
1.15297e-06
-7.05169e-06
1.18361e-06
-8.20742e-06
1.15574e-06
-9.27413e-06
1.06671e-06
-1.0207e-05
9.32866e-07
-1.09864e-05
7.79449e-07
-1.16167e-05
6.30224e-07
-1.21159e-05
4.99269e-07
-1.25054e-05
3.89413e-07
-1.28014e-05
2.96049e-07
-1.30144e-05
2.13018e-07
-1.31501e-05
1.35674e-07
-1.3212e-05
6.1943e-08
-1.32038e-05
-8.20719e-09
-1.31311e-05
-7.2692e-08
-1.29964e-05
-1.34711e-07
-1.2803e-05
-1.9338e-07
-1.25545e-05
-2.48543e-07
-1.22541e-05
-3.00441e-07
-1.19047e-05
-3.49351e-07
-1.15091e-05
-3.95629e-07
-1.10697e-05
-4.39414e-07
-1.05893e-05
-4.80341e-07
-1.00714e-05
-5.17927e-07
-9.52043e-06
-5.50975e-07
-8.94199e-06
-5.78437e-07
-8.34262e-06
-5.99372e-07
-7.72925e-06
-6.13372e-07
-7.10839e-06
-6.20853e-07
-6.48559e-06
-6.22803e-07
-5.8652e-06
-6.20392e-07
-5.25053e-06
-6.14666e-07
-4.64397e-06
-6.06563e-07
-4.04722e-06
-5.9675e-07
-3.46199e-06
-5.85228e-07
-2.89036e-06
-5.71631e-07
-2.33492e-06
-5.55436e-07
-1.79889e-06
-5.36033e-07
-1.28568e-06
-5.13212e-07
-7.98591e-07
-4.87087e-07
-3.41568e-07
-4.57024e-07
8.53363e-08
-4.26904e-07
4.80976e-07
-3.9564e-07
8.43451e-07
-3.62475e-07
1.17283e-06
-3.29375e-07
1.46998e-06
-2.97153e-07
1.73652e-06
-2.66539e-07
1.97484e-06
-2.38326e-07
2.18817e-06
-2.1333e-07
2.38042e-06
-1.92243e-07
2.55599e-06
-1.75571e-07
2.71946e-06
-1.63473e-07
2.8747e-06
-1.55238e-07
3.02329e-06
-1.48591e-07
3.16342e-06
-1.40126e-07
3.29075e-06
-1.27336e-07
3.39944e-06
-1.08691e-07
3.47937e-06
-7.99218e-08
3.5154e-06
-3.60356e-08
3.49853e-06
1.68763e-08
3.43532e-06
6.32091e-08
3.34171e-06
9.36085e-08
3.23388e-06
1.07824e-07
3.12416e-06
1.09728e-07
3.01983e-06
1.04324e-07
2.92433e-06
9.55013e-08
2.83925e-06
8.50847e-08
2.76563e-06
7.36117e-08
2.70455e-06
6.10863e-08
2.65716e-06
4.7389e-08
2.62438e-06
3.27817e-08
2.60652e-06
1.7857e-08
2.60345e-06
3.06823e-09
2.61479e-06
-1.13394e-08
2.6391e-06
-2.43121e-08
2.67462e-06
-3.5517e-08
2.7191e-06
-4.4478e-08
2.7699e-06
-5.08005e-08
2.82526e-06
-5.53664e-08
2.88489e-06
-5.96295e-08
2.94808e-06
-6.31864e-08
3.01333e-06
-6.52499e-08
3.07733e-06
-6.39982e-08
3.12929e-06
-5.1959e-08
3.15331e-06
-2.4018e-08
3.14685e-06
6.45196e-09
3.13104e-06
1.58134e-08
3.13407e-06
-3.03063e-09
3.17011e-06
-3.60406e-08
3.24575e-06
-7.56384e-08
3.38639e-06
-1.40642e-07
3.61393e-06
-2.2754e-07
3.91025e-06
-2.96315e-07
4.27301e-06
-3.62761e-07
4.74061e-06
-4.67599e-07
5.17305e-06
-4.32442e-07
5.38726e-06
-2.14208e-07
5.58039e-06
-1.93129e-07
5.68877e-06
-1.08384e-07
5.39937e-06
2.894e-07
5.20187e-06
1.97502e-07
5.05642e-06
1.45443e-07
3.97537e-06
1.08105e-06
2.41897e-06
1.5564e-06
1.49518e-06
9.23792e-07
1.13742e-06
3.5776e-07
2.93182e-07
8.4424e-07
-2.42076e-07
8.53876e-07
-4.5022e-07
7.12651e-07
-5.97069e-07
5.12368e-07
-6.56468e-07
2.63392e-07
-5.36911e-07
-1.6442e-07
-2.32743e-07
-5.54813e-07
1.7301e-07
-7.93826e-07
5.94498e-07
-8.79373e-07
9.80856e-07
-8.54507e-07
1.31438e-06
-7.72811e-07
1.59114e-06
-6.6679e-07
1.81545e-06
-5.59741e-07
1.99572e-06
-4.63859e-07
2.14178e-06
-3.84349e-07
2.26285e-06
-3.22383e-07
2.36675e-06
-2.76824e-07
2.45996e-06
-2.45476e-07
2.54766e-06
-2.2578e-07
2.6338e-06
-2.15187e-07
2.72127e-06
-2.11213e-07
2.81183e-06
-2.11545e-07
2.90615e-06
-2.14119e-07
3.0042e-06
-2.17095e-07
3.10521e-06
-2.18961e-07
3.20778e-06
-2.18734e-07
3.31041e-06
-2.15345e-07
3.41109e-06
-2.0832e-07
3.50771e-06
-1.97681e-07
3.5986e-06
-1.82562e-07
3.68108e-06
-1.63912e-07
3.75391e-06
-1.41809e-07
3.81545e-06
-1.15371e-07
3.86337e-06
-8.86105e-08
3.8997e-06
-5.75757e-08
3.91979e-06
-2.54276e-08
3.92985e-06
4.30046e-09
3.93247e-06
4.55977e-08
3.91827e-06
7.72461e-08
3.91139e-06
1.26249e-07
3.87941e-06
1.91881e-07
3.85007e-06
2.42833e-07
3.84274e-06
3.8092e-07
3.76142e-06
4.8261e-07
3.84548e-06
6.54329e-07
4.03173e-06
9.1541e-07
3.84305e-06
9.78331e-07
3.36405e-06
9.52928e-07
2.7646e-06
9.21197e-07
2.11272e-06
8.70615e-07
1.52128e-06
7.20914e-07
1.05357e-06
4.91226e-07
7.38974e-07
2.17449e-07
5.83714e-07
-4.27619e-08
5.62257e-07
-2.58654e-07
6.5423e-07
-4.85585e-07
8.23067e-07
-7.60435e-07
1.0664e-06
-1.04151e-06
1.51856e-06
-1.29014e-06
2.08742e-06
-1.02229e-06
2.32458e-06
-1.78368e-07
2.4758e-06
1.78273e-07
2.71924e-06
-1.45662e-07
2.40782e-06
-1.25827e-08
1.32158e-06
7.37765e-07
-9.64823e-08
1.43491e-06
-1.39841e-06
1.78528e-06
-2.46114e-06
1.91365e-06
-3.42107e-06
1.90167e-06
-4.35058e-06
1.84949e-06
-5.25433e-06
1.82012e-06
-6.1428e-06
1.8352e-06
-7.0232e-06
1.88777e-06
-7.89008e-06
1.95115e-06
-8.72498e-06
1.98786e-06
-9.50471e-06
1.96334e-06
-1.02096e-05
1.86059e-06
-1.08268e-05
1.68398e-06
-1.13518e-05
1.45779e-06
-1.1787e-05
1.21472e-06
-1.21427e-05
9.85847e-07
-1.24335e-05
7.9007e-07
-1.26714e-05
6.27395e-07
-1.28607e-05
4.85286e-07
-1.29999e-05
3.52234e-07
-1.3087e-05
2.22791e-07
-1.31178e-05
9.27391e-08
-1.30911e-05
-3.48809e-08
-1.30042e-05
-1.59602e-07
-1.28578e-05
-2.81144e-07
-1.2654e-05
-3.9715e-07
-1.23957e-05
-5.06839e-07
-1.20861e-05
-6.10037e-07
-1.17281e-05
-7.07346e-07
-1.13242e-05
-7.99515e-07
-1.08768e-05
-8.86882e-07
-1.0388e-05
-9.69141e-07
-9.86105e-06
-1.04485e-06
-9.30023e-06
-1.1118e-06
-8.71122e-06
-1.16745e-06
-8.10091e-06
-1.20969e-06
-7.47657e-06
-1.2377e-06
-6.84512e-06
-1.25231e-06
-6.21221e-06
-1.25571e-06
-5.58214e-06
-1.25047e-06
-4.95798e-06
-1.23882e-06
-4.34184e-06
-1.22271e-06
-3.73495e-06
-1.20363e-06
-3.13859e-06
-1.18159e-06
-2.55445e-06
-1.15577e-06
-1.98492e-06
-1.12497e-06
-1.43331e-06
-1.08764e-06
-9.03405e-07
-1.04312e-06
-3.99491e-07
-9.91001e-07
7.61596e-08
-9.32674e-07
5.22547e-07
-8.73291e-07
9.34717e-07
-8.07809e-07
1.31235e-06
-7.40112e-07
1.65484e-06
-6.71857e-07
1.96247e-06
-6.04784e-07
2.23667e-06
-5.40739e-07
2.4799e-06
-4.81556e-07
2.69559e-06
-4.29023e-07
2.88817e-06
-3.84822e-07
3.06301e-06
-3.5041e-07
3.22603e-06
-3.26492e-07
3.3827e-06
-3.11918e-07
3.53719e-06
-3.03073e-07
3.69201e-06
-2.94945e-07
3.84694e-06
-2.82272e-07
3.99758e-06
-2.59326e-07
4.13826e-06
-2.20605e-07
4.26521e-06
-1.62987e-07
4.36866e-06
-8.65771e-08
4.42954e-06
2.33381e-09
4.43166e-06
9.14903e-08
4.37381e-06
1.65672e-07
4.26973e-06
2.13805e-07
4.141e-06
2.33054e-07
4.00675e-06
2.29756e-07
3.87893e-06
2.12905e-07
3.76373e-06
1.88807e-07
3.66463e-06
1.6019e-07
3.58402e-06
1.27996e-07
3.5235e-06
9.33053e-08
3.48343e-06
5.79292e-08
3.46248e-06
2.40165e-08
3.45758e-06
-6.44153e-09
3.46632e-06
-3.30504e-08
3.4868e-06
-5.59961e-08
3.51711e-06
-7.47939e-08
3.55664e-06
-9.03293e-08
3.60571e-06
-1.04434e-07
3.66497e-06
-1.18892e-07
3.73745e-06
-1.35665e-07
3.82734e-06
-1.55139e-07
3.92806e-06
-1.64716e-07
4.01241e-06
-1.36314e-07
4.04628e-06
-5.78919e-08
4.01562e-06
3.71125e-08
3.9402e-06
9.12405e-08
3.86743e-06
6.97392e-08
3.84694e-06
-1.55513e-08
3.89948e-06
-1.28177e-07
4.01257e-06
-2.5374e-07
4.19307e-06
-4.08038e-07
4.49882e-06
-6.0206e-07
4.92879e-06
-7.92737e-07
5.38576e-06
-9.24564e-07
5.87428e-06
-9.2096e-07
6.33617e-06
-6.76104e-07
6.57576e-06
-4.32713e-07
6.7215e-06
-2.54126e-07
6.76115e-06
2.4975e-07
6.54967e-06
4.08983e-07
6.37908e-06
3.16029e-07
6.19894e-06
1.26119e-06
5.63243e-06
2.12291e-06
4.52487e-06
2.03135e-06
3.09914e-06
1.78349e-06
1.32713e-06
2.06519e-06
1.55703e-07
6.98173e-07
2.11263e-07
6.57091e-07
2.29744e-07
4.93887e-07
3.86552e-07
1.06583e-07
6.6249e-07
-4.40358e-07
9.77704e-07
-8.70026e-07
1.26497e-06
-1.08109e-06
1.48904e-06
-1.10345e-06
1.6463e-06
-1.01177e-06
1.74493e-06
-8.71444e-07
1.80281e-06
-7.24668e-07
1.83609e-06
-5.93025e-07
1.85712e-06
-4.8488e-07
1.87438e-06
-4.01617e-07
1.89378e-06
-3.41783e-07
1.91891e-06
-3.01951e-07
1.95186e-06
-2.78422e-07
1.99381e-06
-2.6773e-07
2.04542e-06
-2.66803e-07
2.10685e-06
-2.72639e-07
2.17781e-06
-2.82509e-07
2.25752e-06
-2.93827e-07
2.34491e-06
-3.04483e-07
2.43862e-06
-3.12668e-07
2.53703e-06
-3.17152e-07
2.63853e-06
-3.16838e-07
2.74124e-06
-3.11029e-07
2.84293e-06
-2.99379e-07
2.94173e-06
-2.81355e-07
3.03501e-06
-2.57191e-07
3.12039e-06
-2.27193e-07
3.19666e-06
-1.91643e-07
3.26149e-06
-1.53434e-07
3.31519e-06
-1.11277e-07
3.3577e-06
-6.79394e-08
3.38836e-06
-2.63652e-08
3.41032e-06
2.36441e-08
3.42049e-06
6.70751e-08
3.43181e-06
1.14926e-07
3.45033e-06
1.73362e-07
3.47945e-06
2.13713e-07
3.56539e-06
2.94984e-07
3.67131e-06
3.76687e-07
3.86293e-06
4.62713e-07
4.14469e-06
6.33648e-07
4.3692e-06
7.53816e-07
4.54572e-06
7.76408e-07
4.68176e-06
7.8516e-07
4.79618e-06
7.56198e-07
4.82246e-06
6.94628e-07
4.72909e-06
5.84604e-07
4.52375e-06
4.22784e-07
4.21951e-06
2.61482e-07
3.84699e-06
1.13863e-07
3.4796e-06
-1.1819e-07
3.04701e-06
-3.27846e-07
2.57627e-06
-5.70776e-07
2.24175e-06
-9.55625e-07
1.98018e-06
-7.60728e-07
1.93857e-06
-1.36751e-07
2.11608e-06
7.62723e-10
1.66954e-06
3.00876e-07
3.73729e-07
1.28323e-06
-1.05948e-06
2.17097e-06
-2.20647e-06
2.5819e-06
-3.11934e-06
2.69815e-06
-3.86823e-06
2.66254e-06
-4.54275e-06
2.57619e-06
-5.1998e-06
2.50655e-06
-5.86299e-06
2.48331e-06
-6.53837e-06
2.51057e-06
-7.22135e-06
2.57076e-06
-7.89951e-06
2.62931e-06
-8.55949e-06
2.64785e-06
-9.19185e-06
2.5957e-06
-9.79106e-06
2.4598e-06
-1.03478e-05
2.24071e-06
-1.08437e-05
1.95372e-06
-1.12623e-05
1.63334e-06
-1.1606e-05
1.32951e-06
-1.18938e-05
1.07792e-06
-1.21419e-05
8.75465e-07
-1.23517e-05
6.95061e-07
-1.25158e-05
5.16376e-07
-1.26259e-05
3.32812e-07
-1.2677e-05
1.43931e-07
-1.26656e-05
-4.63606e-08
-1.25891e-05
-2.3605e-07
-1.24499e-05
-4.20412e-07
-1.22508e-05
-5.96165e-07
-1.19959e-05
-7.61747e-07
-1.16891e-05
-9.1688e-07
-1.13338e-05
-1.06264e-06
-1.09328e-05
-1.20053e-06
-1.04881e-05
-1.33152e-06
-1.0002e-05
-1.45533e-06
-9.47688e-06
-1.56993e-06
-8.91705e-06
-1.67162e-06
-8.3285e-06
-1.756e-06
-7.71885e-06
-1.81933e-06
-7.09645e-06
-1.86011e-06
-6.46898e-06
-1.87978e-06
-5.84251e-06
-1.88218e-06
-5.2211e-06
-1.87187e-06
-4.60721e-06
-1.85271e-06
-4.0022e-06
-1.82772e-06
-3.40634e-06
-1.7995e-06
-2.8201e-06
-1.76783e-06
-2.24479e-06
-1.73109e-06
-1.68268e-06
-1.68708e-06
-1.13741e-06
-1.6329e-06
-6.13171e-07
-1.56736e-06
-1.13472e-07
-1.4907e-06
3.62673e-07
-1.40882e-06
8.07975e-07
-1.31859e-06
1.22258e-06
-1.22241e-06
1.60473e-06
-1.12227e-06
1.95278e-06
-1.01991e-06
2.2654e-06
-9.17404e-07
2.54202e-06
-8.17356e-07
2.78336e-06
-7.2289e-07
2.99187e-06
-6.37537e-07
3.17198e-06
-5.64928e-07
3.32979e-06
-5.08226e-07
3.47254e-06
-4.69246e-07
3.60778e-06
-4.47157e-07
3.74213e-06
-4.37424e-07
3.87991e-06
-4.32718e-07
4.02217e-06
-4.24532e-07
4.16687e-06
-4.04032e-07
4.31028e-06
-3.64017e-07
4.44963e-06
-3.02334e-07
4.58465e-06
-2.21592e-07
4.71163e-06
-1.24653e-07
4.81724e-06
-1.41197e-08
4.88142e-06
1.01496e-07
4.88677e-06
2.08459e-07
4.83022e-06
2.89604e-07
4.7251e-06
3.34869e-07
4.59433e-06
3.43677e-07
4.45994e-06
3.23194e-07
4.33684e-06
2.83293e-07
4.2323e-06
2.32538e-07
4.14855e-06
1.77054e-07
4.08543e-06
1.21049e-07
4.04164e-06
6.78087e-08
4.01543e-06
1.9771e-08
4.0036e-06
-2.12203e-08
4.00175e-06
-5.41489e-08
4.00556e-06
-7.86072e-08
4.0121e-06
-9.68632e-08
4.02064e-06
-1.1298e-07
4.03357e-06
-1.31821e-07
4.05884e-06
-1.60935e-07
4.10701e-06
-2.03311e-07
4.1765e-06
-2.34201e-07
4.2392e-06
-1.99017e-07
4.2502e-06
-6.8886e-08
4.18628e-06
1.01029e-07
4.08093e-06
1.96586e-07
4.00354e-06
1.47134e-07
3.99931e-06
-1.13235e-08
4.06943e-06
-1.98292e-07
4.2071e-06
-3.91417e-07
4.42219e-06
-6.23128e-07
4.73202e-06
-9.11887e-07
5.15107e-06
-1.21179e-06
5.65198e-06
-1.42547e-06
6.16264e-06
-1.43163e-06
6.60457e-06
-1.11803e-06
6.87279e-06
-7.0093e-07
6.97146e-06
-3.52801e-07
6.96507e-06
2.56143e-07
6.80627e-06
5.67787e-07
6.61898e-06
5.0332e-07
6.58237e-06
1.2978e-06
6.468e-06
2.23728e-06
6.15331e-06
2.34604e-06
5.54059e-06
2.39621e-06
2.18435e-06
4.68337e-06
2.75864e-07
4.22309e-07
3.90683e-07
5.42273e-07
6.26545e-07
2.58025e-07
1.03779e-06
-3.04661e-07
1.42219e-06
-8.24754e-07
1.66428e-06
-1.11212e-06
1.75121e-06
-1.16801e-06
1.72175e-06
-1.07399e-06
1.62805e-06
-9.18061e-07
1.51226e-06
-7.55655e-07
1.40032e-06
-6.12734e-07
1.30489e-06
-4.97587e-07
1.22866e-06
-4.0865e-07
1.16923e-06
-3.4219e-07
1.12463e-06
-2.97184e-07
1.09234e-06
-2.69663e-07
1.06944e-06
-2.55521e-07
1.05661e-06
-2.54902e-07
1.05592e-06
-2.66107e-07
1.06891e-06
-2.85637e-07
1.09654e-06
-3.10132e-07
1.13882e-06
-3.36107e-07
1.19554e-06
-3.61201e-07
1.26577e-06
-3.82904e-07
1.34834e-06
-3.99715e-07
1.44163e-06
-4.10127e-07
1.54418e-06
-4.13588e-07
1.6541e-06
-4.09294e-07
1.76977e-06
-3.97024e-07
1.88818e-06
-3.75607e-07
2.00695e-06
-3.45961e-07
2.12423e-06
-3.08918e-07
2.23754e-06
-2.66747e-07
2.34678e-06
-2.20514e-07
2.45065e-06
-1.71814e-07
2.54461e-06
-1.20328e-07
2.6335e-06
-6.52435e-08
2.71503e-06
-1.4452e-08
2.79134e-06
3.86117e-08
2.87242e-06
9.22823e-08
2.95171e-06
1.34427e-07
3.06034e-06
1.86348e-07
3.19418e-06
2.42852e-07
3.36072e-06
2.96175e-07
3.61583e-06
3.7853e-07
3.91683e-06
4.52817e-07
4.21037e-06
4.82874e-07
4.49597e-06
4.99558e-07
4.74379e-06
5.08378e-07
4.93128e-06
5.07138e-07
5.04121e-06
4.74671e-07
5.06419e-06
3.99801e-07
4.98908e-06
3.36597e-07
4.80821e-06
2.94737e-07
4.50024e-06
1.89777e-07
4.04144e-06
1.30952e-07
3.48952e-06
-1.88521e-08
2.80012e-06
-2.66233e-07
2.18674e-06
-1.4734e-07
1.92676e-06
1.2322e-07
1.4472e-06
4.80325e-07
2.992e-07
1.44888e-06
-1.00967e-06
2.59209e-06
-2.01757e-06
3.17887e-06
-2.75162e-06
3.31596e-06
-3.31648e-06
3.263e-06
-3.80505e-06
3.15111e-06
-4.28906e-06
3.0602e-06
-4.80467e-06
3.02215e-06
-5.36598e-06
3.04461e-06
-5.97102e-06
3.11562e-06
-6.61003e-06
3.20976e-06
-7.26804e-06
3.28732e-06
-7.9316e-06
3.31141e-06
-8.58855e-06
3.25265e-06
-9.22075e-06
3.092e-06
-9.79565e-06
2.81561e-06
-1.02755e-05
2.43359e-06
-1.06477e-05
2.00553e-06
-1.09438e-05
1.62557e-06
-1.12135e-05
1.34763e-06
-1.14809e-05
1.1429e-06
-1.17362e-05
9.5031e-07
-1.19576e-05
7.37793e-07
-1.21266e-05
5.01847e-07
-1.2229e-05
2.46295e-07
-1.22563e-05
-1.90144e-08
-1.22047e-05
-2.87684e-07
-1.20781e-05
-5.47002e-07
-1.18828e-05
-7.91504e-07
-1.16246e-05
-1.01989e-06
-1.13093e-05
-1.23219e-06
-1.09417e-05
-1.43023e-06
-1.05257e-05
-1.61655e-06
-1.00642e-05
-1.79299e-06
-9.55982e-06
-1.95973e-06
-9.0156e-06
-2.11415e-06
-8.43626e-06
-2.25097e-06
-7.82895e-06
-2.36331e-06
-7.20337e-06
-2.44491e-06
-6.57025e-06
-2.49323e-06
-5.93906e-06
-2.51097e-06
-5.31653e-06
-2.50471e-06
-4.70629e-06
-2.48212e-06
-4.10901e-06
-2.44998e-06
-3.5238e-06
-2.41293e-06
-2.94825e-06
-2.37506e-06
-2.38064e-06
-2.33544e-06
-1.82074e-06
-2.29099e-06
-1.2701e-06
-2.23771e-06
-7.32962e-07
-2.17004e-06
-2.15453e-07
-2.08487e-06
2.79267e-07
-1.98542e-06
7.42756e-07
-1.87231e-06
1.1736e-06
-1.74944e-06
1.5721e-06
-1.62092e-06
1.93947e-06
-1.48963e-06
2.27668e-06
-1.35712e-06
2.58369e-06
-1.22441e-06
2.85918e-06
-1.09285e-06
3.1011e-06