/*--------------------------------*- C++ -*----------------------------------*\
  =========                 |
  \\      /  F ield         | OpenFOAM: The Open Source CFD Toolbox
   \\    /   O peration     | Website:  https://openfoam.org
    \\  /    A nd           | Version:  9
     \\/     M anipulation  |
\*---------------------------------------------------------------------------*/
FoamFile
{
    format      ascii;
    class       surfaceScalarField;
    location    "0.075";
    object      phi_0;
}
// * * * * * * * * * * * * * * * * * * * * * * * * * * * * * * * * * * * * * //

dimensions      [0 3 -1 0 0 0 0];

internalField   nonuniform List<scalar> 
24170
(
3.11263e-06
9.51866e-08
3.01514e-06
9.74893e-08
2.91855e-06
9.65846e-08
2.81996e-06
9.8592e-08
2.73573e-06
8.42307e-08
2.66823e-06
6.74987e-08
2.60634e-06
6.18875e-08
2.53884e-06
6.75082e-08
2.46249e-06
7.63438e-08
2.38412e-06
7.83767e-08
2.31248e-06
7.16365e-08
2.253e-06
5.94795e-08
2.20752e-06
4.54834e-08
2.16727e-06
4.02458e-08
2.13572e-06
3.15466e-08
2.10125e-06
3.44724e-08
2.06882e-06
3.24281e-08
2.7472e-08
2.04135e-06
3.45478e-06
1.34872e-08
3.44241e-06
1.09864e-07
3.46213e-06
7.68553e-08
3.49618e-06
6.45425e-08
3.50824e-06
7.21723e-08
3.49599e-06
7.97493e-08
3.47715e-06
8.07298e-08
3.46663e-06
7.80248e-08
3.46713e-06
7.58465e-08
3.47437e-06
7.11383e-08
3.48235e-06
6.36589e-08
3.48663e-06
5.51965e-08
3.48381e-06
4.83015e-08
3.47536e-06
4.87014e-08
3.45903e-06
4.7871e-08
3.44436e-06
4.91453e-08
3.42482e-06
5.19694e-08
4.26075e-08
3.40968e-06
3.6011e-06
-4.51948e-09
3.67114e-06
3.98181e-08
3.71272e-06
3.52796e-08
3.74296e-06
3.43063e-08
3.76409e-06
5.10392e-08
3.76824e-06
7.56003e-08
3.76086e-06
8.81032e-08
3.75493e-06
8.39633e-08
3.75917e-06
7.15984e-08
3.77421e-06
5.60987e-08
3.79648e-06
4.13961e-08
3.81939e-06
3.22828e-08
3.83716e-06
3.05331e-08
3.84682e-06
3.90414e-08
3.84619e-06
4.85048e-08
3.83922e-06
5.6109e-08
3.82904e-06
6.21519e-08
5.91117e-08
3.81253e-06
3.9095e-06
-4.2186e-08
3.97347e-06
-2.41464e-08
4.00002e-06
8.73356e-09
3.99023e-06
4.4088e-08
3.95986e-06
8.14091e-08
3.93183e-06
1.03631e-07
3.92556e-06
9.43727e-08
3.94489e-06
6.46322e-08
3.97829e-06
3.82038e-08
4.0113e-06
2.30842e-08
4.03445e-06
1.82485e-08
4.04657e-06
2.01655e-08
4.05096e-06
2.61428e-08
4.05388e-06
3.61207e-08
4.05759e-06
4.47989e-08
4.06429e-06
4.94058e-08
4.07441e-06
5.20319e-08
5.08999e-08
4.08262e-06
4.27048e-06
-1.53117e-07
4.30673e-06
-6.04001e-08
4.28383e-06
3.16384e-08
4.22043e-06
1.07481e-07
4.15942e-06
1.4242e-07
4.13995e-06
1.23103e-07
4.16724e-06
6.70799e-08
4.22367e-06
8.20677e-09
4.28538e-06
-2.35085e-08
4.33437e-06
-2.59079e-08
4.36164e-06
-9.0143e-09
4.3691e-06
1.26975e-08
4.36428e-06
3.097e-08
4.35734e-06
4.30562e-08
4.355e-06
4.71386e-08
4.3593e-06
4.51094e-08
4.37052e-06
4.08108e-08
3.75346e-08
4.38388e-06
4.44824e-06
-1.26379e-07
4.48817e-06
-1.00328e-07
4.53077e-06
-1.09567e-08
4.53995e-06
9.82959e-08
4.54136e-06
1.41011e-07
4.54958e-06
1.14888e-07
4.55787e-06
5.87886e-08
4.55656e-06
9.51061e-09
4.54574e-06
-1.26892e-08
4.53065e-06
-1.08182e-08
4.51797e-06
3.66908e-09
4.51107e-06
1.95945e-08
4.51211e-06
2.99376e-08
4.522e-06
3.31609e-08
4.53974e-06
2.94038e-08
4.56297e-06
2.18734e-08
4.59033e-06
1.34506e-08
9.62237e-09
4.61824e-06
4.85872e-06
-2.08393e-07
4.91973e-06
-1.61331e-07
4.9515e-06
-4.27262e-08
4.95881e-06
9.09865e-08
4.95356e-06
1.46254e-07
4.95417e-06
1.1428e-07
4.96742e-06
4.55443e-08
4.98457e-06
-7.64401e-09
4.99273e-06
-2.08449e-08
4.98826e-06
-6.35079e-09
4.97497e-06
1.69543e-08
4.95926e-06
3.53119e-08
4.94688e-06
4.23137e-08
4.94225e-06
3.77877e-08
4.94782e-06
2.38366e-08
4.96366e-06
6.03504e-09
4.98872e-06
-1.16067e-08
-2.22464e-08
5.02059e-06
5.25004e-06
-6.10429e-08
5.22774e-06
-1.39028e-07
5.24398e-06
-5.89666e-08
5.25724e-06
7.77244e-08
5.26514e-06
1.38356e-07
5.28357e-06
9.58491e-08
5.31666e-06
1.24503e-08
5.35697e-06
-4.79457e-08
5.38887e-06
-5.27475e-08
5.40267e-06
-2.01528e-08
5.39574e-06
2.3885e-08
5.37697e-06
5.40814e-08
5.35797e-06
6.13093e-08
5.34742e-06
4.83412e-08
5.34845e-06
2.28054e-08
5.35975e-06
-5.26711e-09
5.3781e-06
-2.99486e-08
-4.57645e-08
5.40161e-06
5.59016e-06
-6.55033e-08
5.55184e-06
-1.00709e-07
5.56334e-06
-7.04655e-08
5.59703e-06
4.40316e-08
5.62959e-06
1.058e-07
5.64943e-06
7.60104e-08
5.65378e-06
8.09706e-09
5.64491e-06
-3.90764e-08
5.63676e-06
-4.46007e-08
5.63683e-06
-2.02134e-08
5.65053e-06
1.01797e-08
5.67486e-06
2.97528e-08
5.70478e-06
3.13911e-08
5.7343e-06
1.88187e-08
5.7587e-06
-1.59115e-09
5.77664e-06
-2.32109e-08
5.78865e-06
-4.19586e-08
-5.614e-08
5.79903e-06
5.84795e-06
-1.48193e-07
5.91995e-06
-1.72714e-07
5.96526e-06
-1.15772e-07
6.01861e-06
-9.32026e-09
6.06268e-06
6.17273e-08
6.09009e-06
4.86085e-08
6.10719e-06
-9.00667e-09
6.12235e-06
-5.42404e-08
6.13168e-06
-5.39262e-08
6.13472e-06
-2.3254e-08
6.1315e-06
1.3398e-08
6.12865e-06
3.26079e-08
6.12929e-06
3.07507e-08
6.13436e-06
1.37508e-08
6.14233e-06
-9.56273e-09
6.15287e-06
-3.37566e-08
6.16676e-06
-5.58459e-08
-7.44612e-08
6.18508e-06
6.34351e-06
-1.37933e-07
6.34032e-06
-1.69521e-07
6.38747e-06
-1.62926e-07
6.43235e-06
-5.41951e-08
6.44706e-06
4.70149e-08
6.43596e-06
5.97128e-08
6.4285e-06
-1.55234e-09
6.43934e-06
-6.50748e-08
6.4703e-06
-8.48919e-08
6.50565e-06
-5.86011e-08
6.53292e-06
-1.38726e-08
6.54848e-06
1.70456e-08
6.55405e-06
2.51886e-08
6.55749e-06
1.03057e-08
6.56703e-06
-1.91011e-08
6.58499e-06
-5.17144e-08
6.61129e-06
-8.21495e-08
-1.05588e-07
6.64242e-06
5.76365e-06
-3.39182e-09
5.75696e-06
-1.62834e-07
5.72496e-06
-1.30923e-07
5.67948e-06
-8.71831e-09
5.68288e-06
4.3617e-08
5.734e-06
8.58622e-09
5.79219e-06
-5.9739e-08
5.82455e-06
-9.74366e-08
5.82502e-06
-8.53626e-08
5.80882e-06
-4.23992e-08
5.793e-06
1.95159e-09
5.78646e-06
2.35843e-08
5.79485e-06
1.67921e-08
5.81565e-06
-1.04884e-08
5.84393e-06
-4.73806e-08
5.87513e-06
-8.29136e-08
5.90587e-06
-1.12893e-07
-1.35456e-07
5.93574e-06
7.08461e-06
-8.72755e-08
7.09605e-06
-1.74267e-07
7.1043e-06
-1.39175e-07
7.10576e-06
-1.01751e-08
7.12159e-06
2.77833e-08
7.14762e-06
-1.74468e-08
7.15929e-06
-7.14028e-08
7.15302e-06
-9.11682e-08
7.13736e-06
-6.97077e-08
7.12515e-06
-3.01844e-08
7.1283e-06
-1.20376e-09
7.14657e-06
5.3217e-09
7.17335e-06
-9.99586e-09
7.20163e-06
-3.87668e-08
7.22487e-06
-7.06195e-08
7.24166e-06
-9.9698e-08
7.25437e-06
-1.25608e-07
-1.47891e-07
7.26681e-06
8.58164e-06
-2.07809e-08
8.61308e-06
-2.05713e-07
8.64402e-06
-1.70114e-07
8.6758e-06
-4.19502e-08
8.70625e-06
-2.67275e-09
8.7186e-06
-2.97957e-08
8.71156e-06
-6.43654e-08
8.68882e-06
-6.84223e-08
8.66126e-06
-4.21502e-08
8.64066e-06
-9.58833e-09
8.63023e-06
9.23262e-09
8.63164e-06
3.90668e-09
8.64111e-06
-1.94642e-08
8.65499e-06
-5.26499e-08
8.67212e-06
-8.77479e-08
8.69212e-06
-1.19693e-07
8.71482e-06
-1.48308e-07
-1.7521e-07
8.74214e-06
1.07563e-05
-2.71198e-07
1.06269e-05
-7.6309e-08
1.04927e-05
-3.58693e-08
1.04648e-05
-1.40961e-08
1.0506e-05
-4.38506e-08
1.05777e-05
-1.01508e-07
1.064e-05
-1.26634e-07
1.06689e-05
-9.73443e-08
1.06687e-05
-4.1976e-08
1.06583e-05
8.02746e-10
1.06562e-05
1.13317e-08
1.06689e-05
-8.75146e-09
1.06965e-05
-4.70594e-08
1.073e-05
-8.62013e-08
1.07622e-05
-1.19901e-07
1.07897e-05
-1.47185e-07
1.08124e-05
-1.70998e-07
-1.94309e-07
1.08315e-05
1.2672e-05
1.49635e-08
1.25662e-05
2.95172e-08
1.26008e-05
-7.05114e-08
1.2666e-05
-7.93069e-08
1.2675e-05
-5.28578e-08
1.26331e-05
-5.96117e-08
1.25871e-05
-8.06536e-08
1.25788e-05
-8.90212e-08
1.26203e-05
-8.34495e-08
1.26973e-05
-7.61737e-08
1.27847e-05
-7.60781e-08
1.286e-05
-8.41109e-08
1.29105e-05
-9.75458e-08
1.29384e-05
-1.14085e-07
1.29521e-05
-1.33567e-07
1.29618e-05
-1.56924e-07
1.29744e-05
-1.83558e-07
-2.13515e-07
1.29936e-05
1.59945e-05
1.77036e-07
1.58398e-05
1.84245e-07
1.57991e-05
-2.98425e-08
1.58068e-05
-8.70306e-08
1.58174e-05
-6.34424e-08
1.57919e-05
-3.40658e-08
1.57281e-05
-1.69296e-08
1.56555e-05
-1.64156e-08
1.5605e-05
-3.29018e-08
1.55917e-05
-6.28521e-08
1.56162e-05
-1.00586e-07
1.56707e-05
-1.38636e-07
1.57435e-05
-1.70339e-07
1.5822e-05
-1.92653e-07
1.58932e-05
-2.04743e-07
1.59469e-05
-2.10624e-07
1.59756e-05
-2.12232e-07
-2.14988e-07
1.59771e-05
1.92739e-05
3.01127e-07
1.90903e-05
3.67892e-07
1.89136e-05
1.4681e-07
1.88522e-05
-2.56176e-08
1.8877e-05
-8.82831e-08
1.89012e-05
-5.8253e-08
1.88864e-05
-2.11156e-09
1.8842e-05
2.7964e-08
1.88028e-05
6.32869e-09
1.87917e-05
-5.17942e-08
1.88166e-05
-1.25482e-07
1.88682e-05
-1.9018e-07
1.89318e-05
-2.34009e-07
1.89951e-05
-2.55894e-07
1.90493e-05
-2.58935e-07
1.90895e-05
-2.5084e-07
1.91141e-05
-2.3687e-07
-2.24404e-07
1.91235e-05
2.26154e-05
2.43961e-07
2.2882e-05
1.0133e-07
2.30302e-05
-1.45253e-09
2.30881e-05
-8.34898e-08
2.3091e-05
-9.11502e-08
2.30663e-05
-3.36217e-08
2.30432e-05
2.09964e-08
2.30576e-05
1.35697e-08
2.31101e-05
-4.61828e-08
2.31747e-05
-1.16307e-07
2.32195e-05
-1.7031e-07
2.32311e-05
-2.01764e-07
2.3213e-05
-2.15948e-07
2.31785e-05
-2.21369e-07
2.31418e-05
-2.22247e-07
2.31113e-05
-2.20325e-07
2.309e-05
-2.15636e-07
-2.06557e-07
2.30722e-05
1.66863e-05
3.58626e-07
1.65551e-05
2.32537e-07
1.65218e-05
3.18882e-08
1.65959e-05
-1.57661e-07
1.67189e-05
-2.14093e-07
1.68322e-05
-1.46909e-07
1.69013e-05
-4.81491e-08
1.69173e-05
-2.41579e-09
1.68891e-05
-1.79699e-08
1.68361e-05
-6.3325e-08
1.67776e-05
-1.11834e-07
1.67251e-05
-1.49232e-07
1.66831e-05
-1.73995e-07
1.66529e-05
-1.91157e-07
1.66357e-05
-2.0502e-07
1.66319e-05
-2.16507e-07
1.6642e-05
-2.2573e-07
-2.30221e-07
1.66656e-05
1.4954e-05
2.38565e-07
1.48992e-05
2.87397e-07
1.47828e-05
1.48267e-07
1.46517e-05
-2.66297e-08
1.4552e-05
-1.14394e-07
1.4545e-05
-1.39851e-07
1.4618e-05
-1.21205e-07
1.4709e-05
-9.33534e-08
1.47714e-05
-8.03503e-08
1.47944e-05
-8.64054e-08
1.47872e-05
-1.04622e-07
1.47641e-05
-1.26051e-07
1.47352e-05
-1.45127e-07
1.4705e-05
-1.60959e-07
1.46757e-05
-1.75689e-07
1.46496e-05
-1.90459e-07
1.46298e-05
-2.05944e-07
-2.18473e-07
1.46181e-05
1.24923e-05
2.55833e-08
1.27435e-05
3.61539e-08
1.28663e-05
2.54694e-08
1.28623e-05
-2.26421e-08
1.27904e-05
-4.24299e-08
1.26821e-05
-3.16372e-08
1.25857e-05
-2.4792e-08
1.2527e-05
-3.46127e-08
1.25022e-05
-5.55149e-08
1.24958e-05
-8.00348e-08
1.24944e-05
-1.03267e-07
1.24914e-05
-1.23048e-07
1.24856e-05
-1.39256e-07
1.24802e-05
-1.55637e-07
1.24792e-05
-1.74629e-07
1.24839e-05
-1.95149e-07
1.24931e-05
-2.1513e-07
-2.29219e-07
1.25038e-05
1.10835e-05
4.33466e-08
1.11453e-05
-2.55948e-08
1.12073e-05
-3.6526e-08
1.12428e-05
-5.81449e-08
1.12576e-05
-5.72419e-08
1.12595e-05
-3.34893e-08
1.12504e-05
-1.57365e-08
1.1232e-05
-1.61605e-08
1.12074e-05
-3.09293e-08
1.11777e-05
-5.03453e-08
1.11433e-05
-6.89404e-08
1.11088e-05
-8.84543e-08
1.10818e-05
-1.12298e-07
1.10676e-05
-1.41443e-07
1.10653e-05
-1.72346e-07
1.10696e-05
-1.99434e-07
1.1073e-05
-2.18494e-07
-2.24806e-07
1.10686e-05
9.52215e-06
2.08989e-08
9.5729e-06
-7.63402e-08
9.57611e-06
-3.97377e-08
9.57583e-06
-5.78593e-08
9.59854e-06
-7.99577e-08
9.64913e-06
-8.40764e-08
9.70514e-06
-7.17515e-08
9.73959e-06
-5.06112e-08
9.74264e-06
-3.39721e-08
9.72237e-06
-3.00765e-08
9.69438e-06
-4.09556e-08
9.67035e-06
-6.44251e-08
9.65369e-06
-9.56353e-08
9.64211e-06
-1.29861e-07
9.63132e-06
-1.61555e-07
9.61778e-06
-1.859e-07
9.59967e-06
-2.00375e-07
-2.03345e-07
9.5782e-06
8.31845e-06
-1.85373e-07
8.34643e-06
-1.04326e-07
8.35123e-06
-4.45373e-08
8.3802e-06
-8.68242e-08
8.43712e-06
-1.36877e-07
8.49029e-06
-1.37248e-07
8.5222e-06
-1.03667e-07
8.53451e-06
-6.29186e-08
8.53435e-06
-3.38149e-08
8.52622e-06
-2.19442e-08
8.51157e-06
-2.63031e-08
8.49139e-06
-4.42474e-08
8.46799e-06
-7.22307e-08
8.44221e-06
-1.04082e-07
8.41298e-06
-1.32326e-07
8.37898e-06
-1.51899e-07
8.33916e-06
-1.60555e-07
-1.58664e-07
8.29448e-06
7.29381e-06
-1.59087e-07
7.26603e-06
-7.65394e-08
7.23599e-06
-1.44997e-08
7.19697e-06
-4.78005e-08
7.15052e-06
-9.04337e-08
7.12457e-06
-1.11291e-07
7.13755e-06
-1.16656e-07
7.18493e-06
-1.10292e-07
7.24692e-06
-9.58116e-08
7.30514e-06
-8.01599e-08
7.35081e-06
-7.19767e-08
7.38242e-06
-7.58565e-08
7.39952e-06
-8.93239e-08
7.40028e-06
-1.04844e-07
7.38279e-06
-1.14843e-07
7.34754e-06
-1.16648e-07
7.29796e-06
-1.10972e-07
-1.02547e-07
7.24184e-06
6.34745e-06
-1.8836e-07
6.36669e-06
-9.57798e-08
6.39151e-06
-3.93224e-08
6.38948e-06
-4.57697e-08
6.35797e-06
-5.89235e-08
6.32328e-06
-7.65932e-08
6.31008e-06
-1.03465e-07
6.32711e-06
-1.27319e-07
6.36582e-06
-1.34522e-07
6.40673e-06
-1.21068e-07
6.42965e-06
-9.4894e-08
6.42377e-06
-6.99772e-08
6.39171e-06
-5.72623e-08
6.34474e-06
-5.78718e-08
6.29548e-06
-6.55825e-08
6.25264e-06
-7.38157e-08
6.21972e-06
-7.80493e-08
-7.98249e-08
6.197e-06
5.63557e-06
-1.33693e-07
5.6338e-06
-9.40105e-08
5.66322e-06
-6.87373e-08
5.69373e-06
-7.62879e-08
5.72321e-06
-8.84009e-08
5.7363e-06
-8.96793e-08
5.71872e-06
-8.58858e-08
5.67298e-06
-8.15803e-08
5.6143e-06
-7.58408e-08
5.55899e-06
-6.57629e-08
5.51706e-06
-5.29626e-08
5.49187e-06
-4.47847e-08
5.48216e-06
-4.75498e-08
5.48393e-06
-5.96477e-08
5.49078e-06
-7.24293e-08
5.49596e-06
-7.89995e-08
5.49457e-06
-7.66566e-08
-7.10941e-08
5.48584e-06
4.88693e-06
-5.03162e-08
4.85433e-06
-6.14126e-08
4.85417e-06
-6.85771e-08
4.85794e-06
-8.00556e-08
4.85101e-06
-8.14732e-08
4.83936e-06
-7.80317e-08
4.82709e-06
-7.36166e-08
4.81119e-06
-6.56769e-08
4.78987e-06
-5.45156e-08
4.76816e-06
-4.40626e-08
4.75447e-06
-3.9269e-08
4.75336e-06
-4.36775e-08
4.76244e-06
-5.66264e-08
4.77486e-06
-7.20688e-08
4.78463e-06
-8.21999e-08
4.789e-06
-8.3369e-08
4.78784e-06
-7.54946e-08
-6.52078e-08
4.78195e-06
4.13582e-06
4.07441e-06
4.00583e-06
3.92578e-06
3.8443e-06
3.76627e-06
3.69266e-06
3.62698e-06
3.57246e-06
3.5284e-06
3.48913e-06
3.44545e-06
3.38883e-06
3.31676e-06
3.23456e-06
3.15119e-06
3.0757e-06
3.01049e-06
-6.12171e-07
6.12171e-07
-1.11656e-06
5.04384e-07
-1.48182e-06
3.65269e-07
-1.68574e-06
2.03913e-07
-1.64081e-06
-4.49254e-08
-1.39008e-06
-2.5073e-07
-1.00199e-06
-3.88089e-07
-5.44171e-07
-4.57823e-07
-7.60018e-08
-4.68169e-07
3.63454e-07
-4.39456e-07
7.53821e-07
-3.90366e-07
1.08976e-06
-3.35938e-07
1.37397e-06
-2.84209e-07
1.61296e-06
-2.38996e-07
1.81504e-06
-2.02076e-07
1.98875e-06
-1.73709e-07
2.14178e-06
-1.53031e-07
2.2806e-06
-1.38824e-07
2.41034e-06
-1.29735e-07
2.53471e-06
-1.24372e-07
2.65625e-06
-1.21543e-07
2.77653e-06
-1.20276e-07
2.89597e-06
-1.19439e-07
3.01423e-06
-1.18257e-07
3.13061e-06
-1.16382e-07
3.24344e-06
-1.12829e-07
3.3511e-06
-1.07663e-07
3.4521e-06
-1.00996e-07
3.5436e-06
-9.15073e-08
3.62481e-06
-8.12044e-08
3.69344e-06
-6.86368e-08
3.74691e-06
-5.34653e-08
3.78716e-06
-4.02473e-08
3.80786e-06
-2.07005e-08
3.81277e-06
-4.91196e-09
3.79764e-06
1.5127e-08
3.74877e-06
4.88709e-08
3.68502e-06
6.37476e-08
3.56432e-06
1.20701e-07
3.40383e-06
1.60498e-07
3.18817e-06
2.15658e-07
2.81274e-06
3.75423e-07
2.40961e-06
4.0313e-07
1.66478e-06
7.4484e-07
5.61718e-07
1.10306e-06
-2.2619e-07
7.87907e-07
-6.99714e-07
4.73524e-07
-1.02155e-06
3.21834e-07
-1.23989e-06
2.18345e-07
-1.36835e-06
1.28461e-07
-1.38997e-06
2.16197e-08
-1.29021e-06
-9.97606e-08
-1.08962e-06
-2.00598e-07
-8.07187e-07
-2.82428e-07
-4.10955e-07
-3.96232e-07
1.8389e-07
-5.94845e-07
9.84989e-07
-8.01099e-07
1.81858e-06
-8.33588e-07
2.25941e-06
-4.40829e-07
2.18958e-06
6.98296e-08
1.85765e-06
3.31929e-07
1.76682e-06
9.08255e-08
2.09529e-06
-3.28467e-07
2.43865e-06
-3.43361e-07
2.41142e-06
2.72319e-08
1.91225e-06
4.99168e-07
1.04965e-06
8.62604e-07
1.02593e-07
9.47053e-07
-8.1975e-07
9.22344e-07
-1.73644e-06
9.16688e-07
-2.68096e-06
9.44519e-07
-3.68343e-06
1.00247e-06
-4.7608e-06
1.07738e-06
-5.90626e-06
1.14546e-06
-7.08359e-06
1.17733e-06
-8.23584e-06
1.15225e-06
-9.30236e-06
1.06651e-06
-1.02376e-05
9.352e-07
-1.10204e-05
7.8281e-07
-1.16535e-05
6.3317e-07
-1.21545e-05
5.00977e-07
-1.25443e-05
3.8977e-07
-1.28396e-05
2.95348e-07
-1.30512e-05
2.11614e-07
-1.3185e-05
1.33793e-07
-1.32448e-05
5.9713e-08
-1.32344e-05
-1.03655e-08
-1.31593e-05
-7.50804e-08
-1.30221e-05
-1.37225e-07
-1.28261e-05
-1.95959e-07
-1.2575e-05
-2.51152e-07
-1.2272e-05
-3.03011e-07
-1.19202e-05
-3.51801e-07
-1.15223e-05
-3.97878e-07
-1.10809e-05
-4.41409e-07
-1.05988e-05
-4.82033e-07
-1.00795e-05
-5.19301e-07
-9.5275e-06
-5.52038e-07
-8.94829e-06
-5.79212e-07
-8.34839e-06
-5.99895e-07
-7.73471e-06
-6.13682e-07
-7.11372e-06
-6.20986e-07
-6.49093e-06
-6.22798e-07
-5.87064e-06
-6.20288e-07
-5.25614e-06
-6.14503e-07
-4.64977e-06
-6.06368e-07
-4.05322e-06
-5.96543e-07
-3.4682e-06
-5.8502e-07
-2.89678e-06
-5.71419e-07
-2.34158e-06
-5.55208e-07
-1.8058e-06
-5.35774e-07
-1.2929e-06
-5.12905e-07
-8.06177e-07
-4.86721e-07
-3.49606e-07
-4.56572e-07
7.68441e-08
-4.2645e-07
4.71936e-07
-3.95092e-07
8.33837e-07
-3.61901e-07
1.16263e-06
-3.28792e-07
1.45921e-06
-2.96586e-07
1.72523e-06
-2.66013e-07
1.9631e-06
-2.3787e-07
2.17607e-06
-2.12972e-07
2.36808e-06
-1.92007e-07
2.54355e-06
-1.7547e-07
2.70705e-06
-1.63503e-07
2.86241e-06
-1.55357e-07
3.01112e-06
-1.48716e-07
3.15129e-06
-1.40165e-07
3.27851e-06
-1.27222e-07
3.38686e-06
-1.08351e-07
3.4661e-06
-7.92447e-08
3.50114e-06
-3.504e-08
3.48325e-06
1.78981e-08
3.41933e-06
6.39123e-08
3.32537e-06
9.39598e-08
3.2175e-06
1.07875e-07
3.10791e-06
1.09594e-07
3.0038e-06
1.04108e-07
2.90854e-06
9.52556e-08
2.82373e-06
8.48163e-08
2.75041e-06
7.33153e-08
2.68966e-06
6.07552e-08
2.64263e-06
4.70253e-08
2.61023e-06
3.23992e-08
2.59276e-06
1.74722e-08
2.59007e-06
2.69111e-09
2.60176e-06
-1.16926e-08
2.62639e-06
-2.46337e-08
2.66218e-06
-3.57905e-08
2.70688e-06
-4.47002e-08
2.75787e-06
-5.09815e-08
2.8134e-06
-5.55324e-08
2.8732e-06
-5.98001e-08
2.93655e-06
-6.3352e-08
3.0019e-06
-6.53534e-08
3.0658e-06
-6.38924e-08
3.11728e-06
-5.14834e-08
3.14057e-06
-2.32888e-08
3.1336e-06
6.96661e-09
3.11793e-06
1.56719e-08
3.12176e-06
-3.83296e-09
3.15894e-06
-3.7173e-08
3.23603e-06
-7.70979e-08
3.37871e-06
-1.42673e-07
3.60854e-06
-2.2983e-07
3.90686e-06
-2.98322e-07
4.27172e-06
-3.64865e-07
4.7402e-06
-4.68481e-07
5.16861e-06
-4.28407e-07
5.37809e-06
-2.09477e-07
5.57e-06
-1.91909e-07
5.67252e-06
-1.02519e-07
5.37818e-06
2.94337e-07
5.18519e-06
1.92994e-07
5.03415e-06
1.51035e-07
3.93872e-06
1.09543e-06
2.38352e-06
1.5552e-06
1.46869e-06
9.14834e-07
1.11454e-06
3.54154e-07
2.92106e-07
8.22431e-07
-2.41387e-07
8.53559e-07
-4.48985e-07
7.11981e-07
-5.95841e-07
5.12125e-07
-6.54868e-07
2.6294e-07
-5.34558e-07
-1.65235e-07
-2.2994e-07
-5.55348e-07
1.75757e-07
-7.93786e-07
5.97118e-07
-8.79183e-07
9.83278e-07
-8.54329e-07
1.31672e-06
-7.72903e-07
1.59359e-06
-6.67228e-07
1.81815e-06
-5.60503e-07
1.99883e-06
-4.64883e-07
2.1454e-06
-3.85566e-07
2.26704e-06
-3.2372e-07
2.37156e-06
-2.78224e-07
2.46541e-06
-2.46889e-07
2.55375e-06
-2.27161e-07
2.64051e-06
-2.16499e-07
2.72857e-06
-2.12425e-07
2.81966e-06
-2.12634e-07
2.91445e-06
-2.15068e-07
3.0129e-06
-2.17886e-07
3.11422e-06
-2.19583e-07
3.21702e-06
-2.19176e-07
3.31978e-06
-2.15593e-07
3.4205e-06
-2.0838e-07
3.51705e-06
-1.97546e-07
3.60777e-06
-1.82234e-07
3.68999e-06
-1.63421e-07
3.76249e-06
-1.41133e-07
3.82358e-06
-1.14555e-07
3.87101e-06
-8.76847e-08
3.90679e-06
-5.64816e-08
3.92622e-06
-2.43378e-08
3.93584e-06
5.50724e-09
3.93781e-06
4.68967e-08
3.92316e-06
7.84031e-08
3.91591e-06
1.27947e-07
3.8831e-06
1.9331e-07
3.85389e-06
2.44868e-07
3.84557e-06
3.83746e-07
3.76384e-06
4.8486e-07
3.84988e-06
6.58798e-07
4.0337e-06
9.19237e-07
3.84072e-06
9.80889e-07
3.35907e-06
9.55175e-07
2.75792e-06
9.22979e-07
2.1046e-06
8.71664e-07
1.51254e-06
7.2053e-07
1.04472e-06
4.89439e-07
7.30366e-07
2.1459e-07
5.74853e-07
-4.50846e-08
5.54293e-07
-2.61868e-07
6.47944e-07
-4.89883e-07
8.18987e-07
-7.65889e-07
1.06586e-06
-1.04797e-06
1.52159e-06
-1.28932e-06
2.08754e-06
-1.00678e-06
2.31697e-06
-1.59597e-07
2.46665e-06
1.82241e-07
2.70365e-06
-1.46171e-07
2.3767e-06
-1.51863e-09
1.27424e-06
7.59099e-07
-1.49776e-07
1.45125e-06
-1.44877e-06
1.79816e-06
-2.50816e-06
1.92199e-06
-3.46669e-06
1.90558e-06
-4.39434e-06
1.84999e-06
-5.29501e-06
1.81736e-06
-6.1798e-06
1.82931e-06
-7.05655e-06
1.87922e-06
-7.92045e-06
1.94128e-06
-8.75379e-06
1.97879e-06
-9.5337e-06
1.95724e-06
-1.02402e-05
1.85879e-06
-1.08601e-05
1.6864e-06
-1.13879e-05
1.463e-06
-1.18256e-05
1.22046e-06
-1.21824e-05
9.90019e-07
-1.24731e-05
7.91665e-07
-1.271e-05
6.26686e-07
-1.28978e-05
4.83087e-07
-1.30353e-05
3.49147e-07
-1.31206e-05
2.19127e-07
-1.31495e-05
8.86054e-08
-1.31206e-05
-3.92398e-08
-1.30314e-05
-1.64289e-07
-1.28826e-05
-2.86105e-07
-1.26762e-05
-4.02296e-07
-1.24153e-05
-5.1205e-07
-1.21032e-05
-6.15169e-07
-1.17427e-05
-7.12232e-07
-1.13366e-05
-8.04001e-07
-1.08872e-05
-8.90838e-07
-1.03967e-05
-9.72483e-07
-9.86849e-06
-1.04755e-06
-9.30665e-06
-1.11387e-06
-8.71693e-06
-1.16894e-06
-8.10613e-06
-1.21069e-06
-7.48153e-06
-1.23829e-06
-6.84996e-06
-1.25255e-06
-6.21707e-06
-1.25568e-06
-5.58711e-06
-1.25025e-06
-4.96312e-06
-1.23849e-06
-4.34716e-06
-1.22233e-06
-3.74046e-06
-1.20324e-06
-3.14428e-06
-1.18121e-06
-2.56031e-06
-1.15539e-06
-1.99096e-06
-1.12456e-06
-1.43957e-06
-1.08717e-06
-9.09919e-07
-1.04255e-06
-4.06339e-07
-9.903e-07
6.89327e-08
-9.31843e-07
5.14781e-07
-8.72298e-07
9.26373e-07
-8.06684e-07
1.30336e-06
-7.38891e-07
1.64516e-06
-6.70589e-07
1.9521e-06
-6.0353e-07
2.22565e-06
-5.39562e-07
2.46831e-06
-4.80524e-07
2.68353e-06
-4.28199e-07
2.87579e-06
-3.84265e-07
3.05048e-06
-3.50162e-07
3.21353e-06
-3.26553e-07
3.3704e-06
-3.12219e-07
3.52516e-06
-3.03479e-07
3.68028e-06
-2.95291e-07
3.83545e-06
-2.82389e-07
3.98616e-06
-2.59054e-07
4.12674e-06
-2.19828e-07
4.25336e-06
-1.61663e-07
4.35602e-06
-8.47645e-08
4.41558e-06
4.35461e-09
4.41615e-06
9.33937e-08
4.35697e-06
1.67053e-07
4.25211e-06
2.1445e-07
4.12318e-06
2.33043e-07
3.98911e-06
2.29327e-07
3.86167e-06
2.12258e-07
3.74694e-06
1.88039e-07
3.64837e-06
1.5933e-07
3.56833e-06
1.27065e-07
3.50838e-06
9.23426e-08
3.46887e-06
5.69906e-08
3.44841e-06
2.3148e-08
3.4439e-06
-7.18719e-09
3.453e-06
-3.37255e-08
3.47377e-06
-5.65684e-08
3.50435e-06
-7.52811e-08
3.54415e-06
-9.07757e-08
3.5935e-06
-1.04888e-07
3.65312e-06
-1.19412e-07
3.72605e-06
-1.36287e-07
3.81639e-06
-1.55691e-07
3.91711e-06
-1.64615e-07
4.00063e-06
-1.35e-07
4.03299e-06
-5.56473e-08
4.00093e-06
3.90254e-08
3.92509e-06
9.15137e-08
3.85325e-06
6.79989e-08
3.83456e-06
-1.8479e-08
3.88905e-06
-1.31587e-07
4.00399e-06
-2.5761e-07
4.18712e-06
-4.12968e-07
4.49647e-06
-6.07667e-07
4.92876e-06
-7.97154e-07
5.38615e-06
-9.25877e-07
5.87441e-06
-9.16661e-07
6.33223e-06
-6.67299e-07
6.56599e-06
-4.25669e-07
6.7084e-06
-2.44931e-07
6.74296e-06
2.5978e-07
6.52855e-06
4.07403e-07
6.3586e-06
3.20981e-07
6.17421e-06
1.27982e-06
5.60029e-06
2.12912e-06
4.48866e-06
2.02646e-06
3.06512e-06
1.7777e-06
1.31875e-06
2.03847e-06
1.55542e-07
6.98017e-07
2.10092e-07
6.57431e-07
2.28519e-07
4.93699e-07
3.86965e-07
1.04493e-07
6.64341e-07
-4.4261e-07
9.80105e-07
-8.71112e-07
1.2674e-06
-1.08109e-06
1.4913e-06
-1.10307e-06
1.64853e-06
-1.01156e-06
1.74733e-06
-8.71699e-07
1.80556e-06
-7.25458e-07
1.83935e-06
-5.94291e-07
1.86098e-06
-4.86518e-07
1.87893e-06
-4.03515e-07
1.89904e-06
-3.43829e-07
1.92489e-06
-3.0408e-07
1.95857e-06
-2.80565e-07
2.00123e-06
-2.69821e-07
2.05352e-06
-2.68794e-07
2.11559e-06
-2.74491e-07
2.18714e-06
-2.84187e-07
2.26738e-06
-2.95304e-07
2.35523e-06
-3.05735e-07
2.44932e-06
-3.13674e-07
2.54803e-06
-3.17887e-07
2.64971e-06
-3.17276e-07
2.75249e-06
-3.11158e-07
2.85413e-06
-2.99189e-07
2.95275e-06
-2.80846e-07
3.04571e-06
-2.5639e-07
3.13067e-06
-2.26093e-07
3.2064e-06
-1.90279e-07
3.27055e-06
-1.51836e-07
3.32352e-06
-1.09452e-07
3.36522e-06
-6.60375e-08
3.39509e-06
-2.43625e-08
3.41616e-06
2.58277e-08
3.42547e-06
6.90895e-08
3.43619e-06
1.17224e-07
3.45402e-06
1.75486e-07
3.48295e-06
2.15932e-07
3.56895e-06
2.97752e-07
3.67463e-06
3.79181e-07
3.86728e-06
4.66142e-07
4.1486e-06
6.37915e-07
4.37224e-06
7.57252e-07
4.54788e-06
7.79533e-07
4.68271e-06
7.88154e-07
4.79564e-06
7.5873e-07
4.81937e-06
6.96799e-07
4.72286e-06
5.85955e-07
4.51393e-06
4.23512e-07
4.20628e-06
2.62565e-07
3.83086e-06
1.13555e-07
3.46145e-06
-1.20471e-07
3.02554e-06
-3.29979e-07
2.5549e-06
-5.77326e-07
2.22477e-06
-9.59192e-07
1.96659e-06
-7.48598e-07
1.92856e-06
-1.21571e-07
2.10281e-06
7.99544e-09
1.63838e-06
3.18254e-07
3.29275e-07
1.30759e-06
-1.10175e-06
2.19012e-06
-2.24473e-06
2.59423e-06
-3.15243e-06
2.70586e-06
-3.89665e-06
2.66621e-06
-4.56771e-06
2.57665e-06
-5.22198e-06
2.50425e-06
-5.88295e-06
2.47833e-06
-6.55679e-06
2.50315e-06
-7.23935e-06
2.56178e-06
-7.91848e-06
2.62041e-06
-8.58077e-06
2.64108e-06
-9.21634e-06
2.59281e-06
-9.81921e-06
2.46166e-06
-1.03799e-05
2.24709e-06
-1.08799e-05
1.96305e-06
-1.1302e-05
1.64255e-06
-1.16473e-05
1.3353e-06
-1.19346e-05
1.07892e-06
-1.21807e-05
8.72829e-07
-1.23882e-05
6.90596e-07
-1.25501e-05
5.11046e-07
-1.26579e-05
3.26939e-07
-1.2707e-05
1.37688e-07
-1.26935e-05
-5.28187e-08
-1.26149e-05
-2.42859e-07
-1.24734e-05
-4.27615e-07
-1.2272e-05
-6.03681e-07
-1.20146e-05
-7.69415e-07
-1.17053e-05
-9.24473e-07
-1.13477e-05
-1.06988e-06
-1.09445e-05
-1.20717e-06
-1.0498e-05
-1.33733e-06
-1.00103e-05
-1.46019e-06
-9.48406e-06
-1.57378e-06
-8.92342e-06
-1.67452e-06
-8.33432e-06
-1.75804e-06
-7.72435e-06
-1.82065e-06
-7.10179e-06
-1.86085e-06
-6.47429e-06
-1.88005e-06
-5.84789e-06
-1.88208e-06
-5.22663e-06
-1.87151e-06
-4.61291e-06
-1.85221e-06
-4.00808e-06
-1.82716e-06
-3.41238e-06
-1.79894e-06
-2.82629e-06
-1.7673e-06
-2.25111e-06
-1.73057e-06
-1.68914e-06
-1.68653e-06
-1.14404e-06
-1.63227e-06
-6.20017e-07
-1.56658e-06
-1.2059e-07
-1.48973e-06
3.55269e-07
-1.4077e-06
8.00213e-07
-1.31724e-06
1.21438e-06
-1.22085e-06
1.596e-06
-1.12051e-06
1.94342e-06
-1.01801e-06
2.25533e-06
-9.15444e-07
2.53121e-06
-8.1544e-07
2.77183e-06
-7.21141e-07
2.97972e-06
-6.36088e-07
3.15936e-06
-5.63904e-07
3.31691e-06
-5.07718e-07
3.45964e-06
-4.69281e-07
3.59508e-06
-4.47653e-07
3.72979e-06
-4.38191e-07
3.868e-06
-4.335e-07
4.01066e-06
-4.25051e-07
4.15564e-06
-4.04035e-07
4.29917e-06
-3.63363e-07
4.43856e-06
-3.01045e-07
4.57355e-06
-2.19756e-07
4.70024e-06
-1.2234e-07
4.80508e-06
-1.14387e-08
4.8679e-06
1.04232e-07
4.87162e-06
2.10728e-07
4.81363e-06
2.91036e-07
4.70764e-06
3.35316e-07
4.57664e-06
3.43252e-07
4.44253e-06
3.22153e-07
4.31996e-06
2.81899e-07
4.21603e-06
2.3099e-07
4.1329e-06
1.7548e-07
4.07035e-06
1.19538e-07
4.02707e-06
6.64238e-08
4.00133e-06
1.85606e-08
3.98984e-06
-2.22411e-08
3.98823e-06
-5.49596e-08
3.99218e-06
-7.92299e-08
3.9988e-06
-9.73968e-08
4.00746e-06
-1.13543e-07
4.02063e-06
-1.32587e-07
4.04641e-06
-1.62061e-07
4.09523e-06
-2.04516e-07
4.16498e-06
-2.34366e-07
4.22693e-06
-1.9695e-07
4.2362e-06
-6.49171e-08
4.17068e-06
1.04542e-07
4.06522e-06
1.96978e-07
3.98938e-06
1.43835e-07
3.98727e-06
-1.63618e-08
4.05931e-06
-2.03633e-07
4.19892e-06
-3.97219e-07
4.41643e-06
-6.30478e-07
4.7293e-06
-9.20533e-07
5.15141e-06
-1.21927e-06
5.65372e-06
-1.42819e-06
6.1631e-06
-1.42604e-06
6.6008e-06
-1.105e-06
6.863e-06
-6.87873e-07
6.95669e-06
-3.38622e-07
6.94607e-06
2.70401e-07
6.78445e-06
5.69024e-07
6.59799e-06
5.07444e-07
6.56092e-06
1.31689e-06
6.44294e-06
2.2471e-06
6.12561e-06
2.34379e-06
5.51174e-06
2.39157e-06
2.1775e-06
4.653e-06
2.74017e-07
4.24e-07
3.87939e-07
5.43509e-07
6.25483e-07
2.56155e-07
1.0383e-06
-3.08319e-07
1.42304e-06
-8.27352e-07
1.66499e-06
-1.11307e-06
1.75197e-06
-1.16806e-06
1.72294e-06
-1.07405e-06
1.63005e-06
-9.18671e-07
1.51532e-06
-7.5697e-07
1.40448e-06
-6.14622e-07
1.31004e-06
-4.99851e-07
1.23468e-06
-4.11156e-07
1.176e-06
-3.44838e-07
1.13205e-06
-2.99876e-07
1.10046e-06
-2.72495e-07
1.07834e-06
-2.58448e-07
1.06629e-06
-2.57766e-07
1.06633e-06
-2.68833e-07
1.08002e-06
-2.88187e-07
1.10831e-06
-3.12478e-07
1.15123e-06
-3.3822e-07
1.20854e-06
-3.63048e-07
1.27931e-06
-3.84437e-07
1.36231e-06
-4.00888e-07
1.45591e-06
-4.10882e-07
1.55866e-06
-4.13901e-07
1.66861e-06
-4.09146e-07
1.78418e-06
-3.96414e-07
1.90239e-06
-3.74601e-07
2.02081e-06
-3.44512e-07
2.13757e-06
-3.07037e-07
2.25018e-06
-2.6445e-07
2.35859e-06
-2.17854e-07
2.46145e-06
-1.689e-07
2.5543e-06
-1.17215e-07
2.64216e-06
-6.2026e-08
2.72257e-06
-1.13303e-08
2.79781e-06
4.19838e-08
2.87777e-06
9.55274e-08
2.95612e-06
1.3759e-07
3.06426e-06
1.89611e-07
3.19737e-06
2.4607e-07
3.36372e-06
2.99785e-07
3.61903e-06
3.8261e-07
3.91962e-06
4.56664e-07
4.21268e-06
4.86468e-07
4.49784e-06
5.02991e-07
4.74485e-06
5.11727e-07
4.93105e-06
5.10592e-07
5.03895e-06
4.78057e-07
5.05924e-06
4.03225e-07
4.9807e-06
3.41106e-07
4.79611e-06
2.9814e-07
4.48353e-06
1.92115e-07
4.02051e-06
1.33038e-07
3.46512e-06
-2.19352e-08
2.77398e-06
-2.68053e-07
2.16517e-06
-1.39786e-07
1.90868e-06
1.34918e-07
1.41938e-06
4.9729e-07
2.62729e-07
1.47491e-06
-1.04502e-06
2.61534e-06
-2.04726e-06
3.19236e-06
-2.77624e-06
3.32321e-06
-3.33637e-06
3.26599e-06
-3.82146e-06
3.1513e-06
-4.3032e-06
3.05839e-06
-4.81744e-06
3.01849e-06
-5.37825e-06
3.03915e-06
-5.98371e-06
3.10861e-06
-6.62413e-06
3.2022e-06
-7.28448e-06
3.28076e-06
-7.951e-06
3.30761e-06
-8.61132e-06
3.25314e-06
-9.24756e-06
3.0979e-06
-9.82762e-06
2.82714e-06
-1.03131e-05
2.44854e-06
-1.06892e-05
2.01863e-06
-1.09853e-05
1.63145e-06
-1.12519e-05
1.34547e-06
-1.15152e-05
1.13619e-06
-1.17671e-05
9.42415e-07
-1.19858e-05
7.29837e-07
-1.21529e-05
4.94012e-07
-1.22539e-05
2.38689e-07
-1.22802e-05
-2.65424e-08
-1.22274e-05
-2.95704e-07
-1.20993e-05
-5.55655e-07
-1.19023e-05
-8.00738e-07
-1.16422e-05
-1.02949e-06
-1.13248e-05
-1.24184e-06
-1.09552e-05
-1.43952e-06
-1.05372e-05
-1.6251e-06
-1.00741e-05
-1.80045e-06
-9.56844e-06
-1.96587e-06
-9.02333e-06
-2.11889e-06
-8.44349e-06
-2.25436e-06
-7.83599e-06
-2.36554e-06
-7.21041e-06
-2.44623e-06
-6.57738e-06
-2.49388e-06
-5.9463e-06
-2.51113e-06
-5.32387e-06
-2.50452e-06
-4.71368e-06
-2.48171e-06
-4.11639e-06
-2.44949e-06
-3.53109e-06
-2.41246e-06
-2.95536e-06
-2.37466e-06
-2.38754e-06
-2.33512e-06
-1.82743e-06
-2.29068e-06
-1.27667e-06
-2.23729e-06
-7.39558e-07
-2.16938e-06
-2.2229e-07
-2.08385e-06
2.72056e-07
-1.98407e-06
7.34984e-07
-1.87063e-06
1.16524e-06
-1.7475e-06
1.56319e-06
-1.61879e-06
1.93003e-06
-1.48735e-06
2.26674e-06
-1.35472e-06
2.57321e-06
-1.22191e-06
2.84808e-06
-1.09031e-06
3.08928e-06
-9.62343e-07
3.29541e-06