/*--------------------------------*- C++ -*----------------------------------*\
  =========                 |
  \\      /  F ield         | OpenFOAM: The Open Source CFD Toolbox
   \\    /   O peration     | Website:  https://openfoam.org
    \\  /    A nd           | Version:  9
     \\/     M anipulation  |
\*---------------------------------------------------------------------------*/
FoamFile
{
    format      ascii;
    class       volScalarField;
    location    "0.075";
    object      s_0;
}
// * * * * * * * * * * * * * * * * * * * * * * * * * * * * * * * * * * * * * //

dimensions      [0 0 0 0 0 0 0];

internalField   nonuniform List<scalar> 
12225
(
1
1
1
1
1
1
1
1
1
1
1
1
1
1
1
1
1
0.999999
1
1
1
1
1
1
1
1
1
1
1
1
1
1
1
1
1
1
1
1
1
1
1
1
1
1
1
1
1
1
1
1
1
1
1
1
1
1
1
1
1
1
1
1
1
1
1
1
1
1
1
1
1
1
1
1
1
1
1
1
1
1
1
1
1
1
1
1
1
1
1
1
1
1
1
1
1
1
1
1
1
1
1
1
1
1
1
1
1
1
1
1
1
1
1
1
1
1
1
1
1
1
1
1
1
1
1
1
1
1
1
1
1
1
1
1
1
1
1
1
1
1
1
1
1
1
1
1
1
1
1
1
1
1
1
1
1
1
1
1
1
1
1
1
1
1
1
1
1
1
1
1
1
1
1
1
1
1
1
1
1
1
1
1
1
1
1
1
1
1
1
1
1
1
1
1
1
1
1
1
1
1
1
1
1
1
1
1
1
1
1
1
1
1
1
1
1
1
1
1
1
1
1
1
1
1
1
1
1
1
1
1
1
1
1
1
1
1
1
1
1
1
1
1
1
1
1
1
1
1
1
1
1
1
1
1
1
1
1
1
1
1
1
1
1
1
1
1
1
1
1
1
1
1
1
1
1
1
1
1
1
1
1
1
1
1
1
1
1
1
1
1
1
1
1
1
1
1
1
1
1
1
1
1
1
1
1
1
1
1
1
1
1
1
1
1
1
1
1
1
1
1
1
1
1
1
1
1
1
1
1
1
1
1
1
1
1
1
1
1
1
1
1
1
1
1
1
1
1
1
1
1
1
1
1
1
1
1
1
1
1
1
1
1
1
1
1
1
1
1
1
1
1
1
1
1
1
1
1
1
1
1
1
1
1
1
1
1
1
1
1
1
1
1
1
1
1
1
1
1
1
1
1
1
1
1
1
1
1
1
1
1
1
1
1
1
1
1
1
1
1
1
1
1
1
1
1
1
1
1
1
1
1
1
1
1
1
1
1
1
1
1
1
1
1
1
1
1
1
1
1
1
1
1
1
1
1
1
1
1
1
1
1
1
1
1
1
1
1
1
1
1
1
1
1
1
1
1
1
1
1
1
1
1
1
1
1
1
1
1
1
1
1
1
1
1
1
1
1
1
1
1
1
1
1
1
1
1
1
1
1
1
1
1
1
1
1
1
1
1
1
1
1
1
1
1
1
1
1
1
1
1
1
1
1
1
1
1
1
1
1
1
0.718183
0.723565
0.734378
0.742159
0.750948
0.762194
0.774455
0.783028
0.788833
0.792659
0.795425
0.79749
0.798775
0.799808
0.800391
0.800841
0.801081
0.801325
0.801629
0.801829
0.801846
0.801821
0.801745
0.801528
0.801327
0.801023
0.800447
0.800055
0.799341
0.798214
0.797507
0.796088
0.79444
0.793069
0.790343
0.788868
0.785918
0.783654
0.780825
0.77749
0.775027
0.769841
0.765569
0.758413
0.729021
0.693467
0.701508
0.708824
0.714401
0.719904
0.72576
0.733265
0.744005
0.756735
0.766649
0.775031
0.783516
0.788307
0.785547
0.759689
0.742514
0.750037
0.774117
0.788543
0.790367
0.787615
0.791027
0.802857
0.81189
0.819332
0.827111
0.835295
0.84444
0.853763
0.863778
0.873298
0.880796
0.886168
0.890198
0.892736
0.895531
0.897417
0.899046
0.900442
0.90133
0.902232
0.903204
0.903678
0.904012
0.90412
0.90413
0.903946
0.903366
0.902352
0.901828
0.901317
0.900383
0.899226
0.897974
0.896656
0.895272
0.893803
0.89222
0.890531
0.888782
0.886967
0.885022
0.882973
0.880837
0.878592
0.876237
0.87384
0.87157
0.869346
0.867755
0.866179
0.865017
0.864134
0.863464
0.863034
0.86282
0.862719
0.862585
0.862409
0.862232
0.861978
0.861436
0.859982
0.856067
0.850401
0.844571
0.840154
0.838384
0.838305
0.839601
0.844475
0.849744
0.854158
0.858005
0.861373
0.864316
0.86692
0.869267
0.87139
0.873298
0.875026
0.876576
0.87794
0.879129
0.880079
0.880717
0.8811
0.881353
0.881493
0.881589
0.881825
0.882656
0.885341
0.890363
0.895397
0.89919
0.901784
0.9038
0.905263
0.906032
0.906271
0.906437
0.906793
0.907468
0.908337
0.910066
0.914167
0.921891
0.931667
0.938834
0.939771
0.928972
0.85158
0.717826
0.677356
0.717949
0.719726
0.7268
0.732113
0.743366
0.767463
0.787831
0.797605
0.804435
0.809071
0.812736
0.815878
0.818693
0.821336
0.823431
0.825117
0.826435
0.82754
0.828504
0.82911
0.829241
0.829201
0.829028
0.828755
0.828456
0.828376
0.8284
0.828339
0.828401
0.828582
0.82896
0.829638
0.83031
0.831012
0.831578
0.831583
0.831138
0.830103
0.827175
0.824554
0.819355
0.813244
0.803989
0.79399
0.773657
0.744407
0.723938
0.7149
0.710424
0.699784
0.6871
0.684605
0.688533
0.699184
0.707933
0.718182
0.741933
0.776725
0.79285
0.788397
0.76038
0.749393
0.752029
0.76978
0.785791
0.792316
0.802982
0.812722
0.821501
0.831036
0.841831
0.854038
0.868473
0.885066
0.901914
0.916296
0.930817
0.941326
0.948556
0.955335
0.958805
0.961524
0.963771
0.964858
0.965748
0.966183
0.966372
0.966416
0.966444
0.966445
0.966407
0.966408
0.966344
0.966225
0.966153
0.966087
0.965993
0.96587
0.965708
0.965519
0.965262
0.964921
0.9645
0.963987
0.963355
0.962592
0.961683
0.960569
0.959217
0.957569
0.955495
0.952906
0.949972
0.946562
0.9429
0.938811
0.93442
0.929824
0.925224
0.92081
0.916867
0.913625
0.911191
0.909493
0.9082
0.907512
0.906885
0.906028
0.905228
0.90391
0.902202
0.899734
0.89472
0.880795
0.859471
0.844082
0.835152
0.831501
0.830934
0.831909
0.837577
0.846533
0.853501
0.859374
0.86485
0.870228
0.875404
0.880114
0.884713
0.889319
0.893314
0.896666
0.900026
0.903281
0.905898
0.908029
0.910122
0.912148
0.913703
0.914504
0.914584
0.913994
0.91156
0.906673
0.900943
0.896134
0.892929
0.892689
0.895014
0.900656
0.912418
0.925087
0.931344
0.943031
0.950632
0.950555
0.945917
0.924397
0.897345
0.821254
0.720613
0.72141
0.724488
0.727557
0.742567
0.770603
0.783029
0.788959
0.790226
0.789206
0.787868
0.787045
0.786886
0.787003
0.786554
0.786021
0.784745
0.782704
0.780317
0.777135
0.77362
0.769932
0.766805
0.765034
0.763525
0.763556
0.764104
0.765496
0.768168
0.772186
0.777381
0.783641
0.790917
0.798685
0.805987
0.8124
0.817746
0.82177
0.823901
0.824583
0.824571
0.82418
0.823004
0.820451
0.813325
0.803436
0.788787
0.768467
0.751409
0.735934
0.7196
0.708601
0.702636
0.696596
0.694807
0.695287
0.700235
0.725836
0.760931
0.765744
0.753783
0.751747
0.764675
0.779946
0.79222
0.804901
0.814133
0.826377
0.840792
0.859926
0.881422
0.901054
0.920732
0.934199
0.947818
0.957206
0.96329
0.966295
0.967975
0.968698
0.968982
0.969071
0.969077
0.968941
0.968894
0.968769
0.968642
0.968573
0.968491
0.968444
0.968427
0.968431
0.968503
0.96854
0.968549
0.968624
0.968791
0.968982
0.969218
0.969544
0.969937
0.970346
0.970728
0.971067
0.971346
0.971605
0.971883
0.97212
0.972334
0.972501
0.972612
0.972639
0.972439
0.971969
0.971188
0.970145
0.969156
0.968434
0.967883
0.967326
0.966671
0.966035
0.965474
0.965026
0.964663
0.964073
0.962808
0.960063
0.954689
0.947259
0.938975
0.93117
0.92597
0.922719
0.918713
0.912663
0.899365
0.873663
0.853705
0.841953
0.835403
0.832107
0.831143
0.831245
0.832728
0.838715
0.847415
0.855243
0.862542
0.869286
0.875272
0.880564
0.885665
0.89128
0.897696
0.90439
0.909819
0.912804
0.913623
0.913369
0.91061
0.899091
0.882552
0.870536
0.863784
0.862
0.86288
0.865857
0.871751
0.884634
0.904232
0.925629
0.94218
0.952607
0.956913
0.957195
0.955626
0.9478
0.939763
0.918497
0.730183
0.72705
0.726903
0.736793
0.759145
0.771406
0.768202
0.758864
0.743134
0.721835
0.703285
0.689027
0.677949
0.669239
0.66267
0.658754
0.656741
0.656338
0.657327
0.659417
0.662682
0.666782
0.671145
0.675471
0.679339
0.682856
0.68666
0.690367
0.694013
0.698406
0.703413
0.708463
0.714746
0.723806
0.735246
0.749251
0.765119
0.780307
0.794251
0.805165
0.812351
0.816556
0.817885
0.817743
0.8163
0.811322
0.803576
0.795614
0.787467
0.778466
0.770251
0.760234
0.747585
0.741502
0.732583
0.717834
0.712767
0.720394
0.748671
0.751873
0.750611
0.759114
0.77584
0.789904
0.802259
0.814409
0.831136
0.855188
0.876063
0.898807
0.91678
0.935283
0.947731
0.957923
0.964222
0.966923
0.967923
0.968127
0.967893
0.967128
0.966262
0.965809
0.965508
0.965147
0.964971
0.964876
0.964841
0.96484
0.96492
0.965022
0.965123
0.965288
0.965445
0.965605
0.965716
0.965759
0.965719
0.965576
0.965411
0.965313
0.965245
0.965263
0.965465
0.965882
0.96648
0.967177
0.968062
0.969085
0.970225
0.971382
0.972402
0.973187
0.973863
0.974342
0.97458
0.974552
0.973926
0.972942
0.972267
0.971984
0.972094
0.97271
0.973673
0.974776
0.976013
0.977382
0.978888
0.980446
0.981731
0.982271
0.981954
0.97878
0.966674
0.951993
0.942254
0.937093
0.933713
0.929722
0.921967
0.90265
0.876781
0.859086
0.84967
0.84653
0.846377
0.847087
0.848871
0.852562
0.858333
0.8647
0.870676
0.87593
0.880433
0.884392
0.888323
0.89291
0.898357
0.902755
0.904006
0.902433
0.890504
0.86969
0.858742
0.854839
0.854409
0.855327
0.860325
0.871848
0.880312
0.88939
0.904839
0.924954
0.942742
0.953039
0.956395
0.956755
0.955641
0.949939
0.946148
0.938288
0.727453
0.727543
0.744444
0.763734
0.760874
0.746913
0.713483
0.668063
0.629773
0.606962
0.59576
0.590854
0.590089
0.592569
0.596979
0.602942
0.610698
0.620073
0.630908
0.642406
0.653299
0.662594
0.669869
0.675099
0.678607
0.681518
0.684677
0.687323
0.69009
0.693331
0.696479
0.699313
0.702342
0.706668
0.713042
0.721485
0.732237
0.744445
0.757213
0.769421
0.779695
0.787825
0.793421
0.796967
0.798287
0.797995
0.796174
0.791647
0.787368
0.784675
0.78099
0.771697
0.763414
0.75717
0.742959
0.721442
0.714693
0.72399
0.748952
0.751413
0.753335
0.767824
0.783697
0.796856
0.810902
0.83249
0.864562
0.88681
0.907804
0.924641
0.939739
0.952267
0.961404
0.966152
0.967935
0.968348
0.968159
0.967001
0.965369
0.964416
0.964079
0.963908
0.963788
0.963669
0.963587
0.963531
0.963488
0.963472
0.963536
0.963644
0.963888
0.964227
0.964559
0.965011
0.965577
0.966202
0.966836
0.967074
0.966699
0.965999
0.965245
0.964555
0.963937
0.963443
0.963121
0.962941
0.962864
0.962891
0.963181
0.963862
0.96513
0.967079
0.969515
0.972098
0.974092
0.975345
0.975983
0.975918
0.974585
0.972958
0.972227
0.972146
0.972682
0.974293
0.975964
0.977536
0.979072
0.980722
0.982686
0.985001
0.987207
0.988529
0.988662
0.987358
0.980119
0.965614
0.956082
0.951103
0.947747
0.944312
0.939304
0.927302
0.907851
0.892145
0.882419
0.878231
0.877596
0.877837
0.8785
0.879831
0.882443
0.885529
0.888484
0.890819
0.89219
0.892692
0.892768
0.892703
0.892077
0.88736
0.871157
0.85904
0.854242
0.853329
0.853896
0.858216
0.877908
0.907052
0.919476
0.92164
0.924271
0.933073
0.945114
0.952408
0.954235
0.953853
0.951503
0.946984
0.944911
0.941601
0.735743
0.772373
0.768831
0.750626
0.708624
0.644996
0.600491
0.581141
0.572973
0.570448
0.571253
0.574569
0.581666
0.593375
0.610934
0.634522
0.658502
0.677827
0.690948
0.698405
0.702692
0.705424
0.707009
0.70775
0.707981
0.707287
0.706662
0.706722
0.707531
0.708104
0.708101
0.70822
0.71007
0.714004
0.71843
0.722958
0.727601
0.733232
0.740044
0.747785
0.755494
0.762107
0.767068
0.770579
0.772799
0.774151
0.774943
0.775209
0.775334
0.775084
0.772859
0.764339
0.757869
0.751727
0.736393
0.717783
0.714102
0.728006
0.751326
0.753511
0.757174
0.771884
0.786605
0.804761
0.82636
0.860321
0.895259
0.91256
0.930869
0.941696
0.953609
0.961283
0.966789
0.968556
0.96892
0.968652
0.967149
0.964765
0.963885
0.96355
0.963408
0.963302
0.963024
0.962566
0.962021
0.961305
0.960414
0.959482
0.9588
0.958439
0.958319
0.95869
0.959313
0.960438
0.962277
0.964964
0.967866
0.970228
0.97176
0.973311
0.974188
0.972774
0.970568
0.967919
0.966084
0.964574
0.963474
0.962702
0.962181
0.961888
0.961805
0.961931
0.962387
0.963663
0.966459
0.970561
0.974748
0.977301
0.978407
0.978187
0.975419
0.972513
0.971386
0.971352
0.972694
0.975927
0.978596
0.980646
0.982218
0.983839
0.986183
0.988926
0.991175
0.992143
0.992057
0.990412
0.982953
0.97345
0.967764
0.964792
0.962797
0.960523
0.957307
0.950702
0.934612
0.91736
0.904707
0.896597
0.891977
0.889825
0.889131
0.889082
0.889449
0.891248
0.893068
0.893738
0.893763
0.893163
0.889655
0.876621
0.863066
0.857172
0.856079
0.856441
0.858856
0.868801
0.903548
0.940811
0.956043
0.956969
0.953493
0.950045
0.950554
0.953205
0.953681
0.952423
0.947712
0.944468
0.943717
0.943017
0.814079
0.782494
0.712292
0.628458
0.592157
0.575107
0.567576
0.565336
0.565539
0.570084
0.582663
0.605237
0.638048
0.675266
0.695499
0.703342
0.706994
0.709133
0.711239
0.713463
0.715294
0.716951
0.718712
0.72029
0.721945
0.723992
0.726554
0.729263
0.731491
0.732524
0.733218
0.734676
0.737903
0.742032
0.74572
0.74801
0.748489
0.748057
0.74788
0.747915
0.747496
0.746861
0.745518
0.743939
0.740946
0.736201
0.730011
0.722654
0.714731
0.711906
0.712501
0.715323
0.722017
0.724477
0.721795
0.71247
0.712683
0.734209
0.755764
0.757192
0.759424
0.772114
0.789872
0.809763
0.84065
0.88904
0.917905
0.932952
0.945661
0.953146
0.961432
0.966017
0.968943
0.96952
0.96945
0.968219
0.965524
0.963846
0.963304
0.963053
0.962784
0.962146
0.960997
0.95914
0.956421
0.952949
0.949146
0.945566
0.942202
0.939562
0.9376
0.936133
0.935627
0.936246
0.939627
0.947431
0.956835
0.965102
0.970567
0.974586
0.979085
0.982071
0.983717
0.983189
0.98004
0.976027
0.972156
0.969132
0.966552
0.964543
0.9631
0.962174
0.961727
0.961663
0.961971
0.962837
0.965243
0.970802
0.976957
0.980302
0.981197
0.979946
0.974654
0.971073
0.97026
0.970923
0.975017
0.980358
0.983976
0.986068
0.98709
0.988474
0.99074
0.993004
0.994314
0.994547
0.994138
0.991466
0.985487
0.98148
0.979308
0.978196
0.977425
0.976264
0.97401
0.969318
0.956463
0.936682
0.919978
0.907725
0.899849
0.895615
0.893853
0.893426
0.89347
0.893566
0.893475
0.892852
0.889682
0.877509
0.866995
0.864083
0.864098
0.865167
0.869372
0.884758
0.928553
0.964417
0.978495
0.979505
0.9753
0.964388
0.958743
0.956779
0.955506
0.952233
0.94704
0.944426
0.944203
0.945637
0.761983
0.642293
0.593299
0.577305
0.569425
0.56539
0.565263
0.5709
0.587234
0.620927
0.671544
0.692227
0.700102
0.703744
0.705945
0.708622
0.712096
0.715493
0.720136
0.725437
0.730336
0.735104
0.739245
0.742798
0.746667
0.751054
0.756081
0.760587
0.763442
0.765661
0.768303
0.770756
0.772156
0.77267
0.772823
0.771883
0.768349
0.763487
0.761223
0.759905
0.759459
0.757823
0.754536
0.751284
0.747387
0.741906
0.733281
0.720441
0.703583
0.687601
0.679105
0.676817
0.680149
0.688185
0.693293
0.697429
0.709643
0.749324
0.764914
0.762282
0.761214
0.771235
0.789685
0.81873
0.860176
0.90828
0.93345
0.947098
0.955254
0.960416
0.965814
0.968527
0.969994
0.970156
0.969583
0.967555
0.964606
0.963375
0.96287
0.962461
0.961574
0.959688
0.95623
0.950599
0.943057
0.935337
0.927551
0.918963
0.910609
0.903183
0.895859
0.888313
0.88583
0.886627
0.891668
0.902354
0.918573
0.937499
0.953802
0.96567
0.976256
0.982638
0.986661
0.989599
0.991151
0.991127
0.989114
0.985016
0.979862
0.974762
0.970759
0.967507
0.965019
0.963341
0.962488
0.962334
0.962684
0.963872
0.967058
0.974947
0.981212
0.983197
0.982872
0.97811
0.971442
0.969361
0.969562
0.972898
0.981122
0.986924
0.990298
0.991809
0.992302
0.993201
0.994877
0.996052
0.996409
0.996327
0.99551
0.992971
0.990987
0.989975
0.989528
0.989294
0.988998
0.988373
0.986891
0.98334
0.973247
0.950576
0.930326
0.915756
0.906388
0.901363
0.899227
0.898054
0.896633
0.894583
0.89003
0.879519
0.873453
0.872486
0.872949
0.875016
0.882022
0.908165
0.956676
0.983606
0.993049
0.994358
0.99258
0.981851
0.969972
0.96411
0.958946
0.952727
0.947704
0.945986
0.946962
0.953656
0.676084
0.592521
0.577782
0.570686
0.569265
0.574956
0.595259
0.639071
0.670166
0.683934
0.692326
0.699099
0.705824
0.711358
0.719167
0.729553
0.741645
0.755666
0.770449
0.784668
0.798263
0.809672
0.818536
0.825736
0.83189
0.837883
0.844974
0.853374
0.862398
0.871908
0.880269
0.885935
0.888429
0.891007
0.893647
0.89482
0.894139
0.890856
0.882829
0.871799
0.862134
0.852411
0.842722
0.834271
0.827164
0.82171
0.817172
0.811872
0.802315
0.782399
0.749819
0.711838
0.687662
0.684031
0.685166
0.691113
0.717847
0.767188
0.778612
0.771176
0.762782
0.769094
0.787786
0.818329
0.872128
0.921407
0.943929
0.955426
0.961404
0.964845
0.968247
0.969935
0.970662
0.970647
0.969788
0.967557
0.964351
0.963022
0.962396
0.96147
0.959202
0.954494
0.946564
0.936314
0.926674
0.917567
0.905358
0.890597
0.875983
0.862053
0.85586
0.856517
0.862746
0.870325
0.87703
0.885976
0.90054
0.91942
0.93967
0.956983
0.970636
0.980376
0.986658
0.990534
0.993379
0.995146
0.995933
0.995684
0.9942
0.990637
0.984943
0.978999
0.974054
0.970005
0.967102
0.965326
0.964351
0.964073
0.964631
0.966974
0.974153
0.981945
0.984393
0.984174
0.979819
0.971767
0.969019
0.969142
0.972347
0.982073
0.989245
0.993176
0.995052
0.995631
0.995943
0.996689
0.99746
0.997797
0.997813
0.997643
0.996973
0.996385
0.996129
0.996054
0.996035
0.996005
0.995908
0.995567
0.994462
0.991311
0.982153
0.961396
0.942421
0.929073
0.921803
0.918041
0.912482
0.903251
0.89189
0.882664
0.879561
0.879726
0.881444
0.886827
0.90236
0.945212
0.978607
0.99295
0.997503
0.9984
0.998133
0.995708
0.985818
0.973719
0.963477
0.955032
0.950221
0.949026
0.950017
0.956815
0.639807
0.585234
0.577975
0.580363
0.595452
0.62941
0.657443
0.67334
0.690786
0.700393
0.709641
0.722363
0.740174
0.764809
0.797157
0.835474
0.866603
0.891297
0.912628
0.927732
0.937728
0.944395
0.947619
0.948968
0.949253
0.947638
0.944876
0.942602
0.941264
0.940023
0.939079
0.938155
0.937095
0.936128
0.935411
0.934662
0.932738
0.92924
0.922228
0.911991
0.897231
0.882152
0.866747
0.852532
0.839474
0.829266
0.822613
0.819009
0.818314
0.819009
0.818342
0.806832
0.755818
0.706928
0.693889
0.696701
0.730871
0.782823
0.792359
0.781297
0.764485
0.766296
0.782365
0.815007
0.879334
0.927912
0.95109
0.960977
0.965064
0.96744
0.969539
0.970708
0.971125
0.97104
0.970117
0.967784
0.964496
0.962787
0.961897
0.960044
0.955654
0.94794
0.937407
0.927447
0.920535
0.90971
0.890624
0.867979
0.845935
0.838569
0.840035
0.850126
0.861579
0.871827
0.880258
0.889334
0.902682
0.920308
0.940019
0.957455
0.971051
0.980719
0.987102
0.991236
0.994141
0.996261
0.997536
0.998146
0.998199
0.997753
0.996368
0.993197
0.987661
0.981179
0.975901
0.972433
0.970189
0.968349
0.967111
0.967054
0.969107
0.976375
0.983297
0.985063
0.98443
0.978764
0.971295
0.96925
0.969783
0.974633
0.985072
0.99176
0.995346
0.997054
0.997669
0.997828
0.998059
0.998451
0.998739
0.998829
0.998824
0.99877
0.998731
0.998732
0.998766
0.998838
0.99887
0.99887
0.998813
0.998547
0.997705
0.995385
0.987088
0.97632
0.972744
0.968972
0.957494
0.92747
0.901863
0.890067
0.888723
0.890598
0.897394
0.913722
0.950809
0.978734
0.992439
0.997414
0.998838
0.999193
0.999209
0.998841
0.996432
0.986607
0.97205
0.960579
0.953885
0.951754
0.952058
0.956552
0.625898
0.58975
0.590681
0.611546
0.641963
0.661424
0.678511
0.697659
0.720744
0.745277
0.779318
0.835265
0.878703
0.917806
0.944462
0.956991
0.968472
0.974553
0.977888
0.980188
0.981783
0.983543
0.984758
0.985418
0.985727
0.984554
0.981878
0.976636
0.970807
0.963921
0.956959
0.950768
0.946369
0.942438
0.93936
0.937154
0.935498
0.933892
0.93133
0.927823
0.924303
0.919512
0.91104
0.896116
0.875278
0.850868
0.829761
0.816513
0.807528
0.802379
0.800647
0.801918
0.802464
0.794398
0.75324
0.734661
0.750094
0.797878
0.808435
0.796888
0.768182
0.765036
0.77441
0.806653
0.876791
0.927085
0.952694
0.964008
0.96753
0.969018
0.970216
0.971075
0.971452
0.971367
0.970588
0.968355
0.965046
0.9627
0.961299
0.958705
0.952994
0.943919
0.933868
0.927518
0.920706
0.904057
0.874304
0.837674
0.825672
0.825977
0.838119
0.856149
0.876913
0.897423
0.914226
0.92751
0.939474
0.951806
0.964472
0.975562
0.983793
0.98938
0.992928
0.995083
0.99633
0.997268
0.998227
0.998937
0.999244
0.999285
0.999135
0.998625
0.997348
0.994286
0.988028
0.98211
0.978743
0.976098
0.973346
0.971398
0.9711
0.973462
0.980716
0.984972
0.985468
0.983623
0.975812
0.970951
0.97035
0.972081
0.980404
0.989368
0.994462
0.997093
0.998331
0.998817
0.998942
0.998977
0.999044
0.999202
0.999337
0.999428
0.999498
0.999564
0.999624
0.999671
0.999705
0.999724
0.999729
0.999723
0.999687
0.999534
0.998976
0.998552
0.998078
0.996888
0.992422
0.970771
0.928665
0.913269
0.913471
0.920893
0.945175
0.969138
0.984564
0.993805
0.997733
0.998787
0.99904
0.999148
0.99923
0.99922
0.99878
0.996099
0.985376
0.970151
0.959495
0.954696
0.954124
0.955653
0.623497
0.599354
0.612277
0.640023
0.6624
0.686222
0.716144
0.754773
0.815371
0.873291
0.920043
0.943638
0.963251
0.972311
0.977258
0.979745
0.9812
0.98174
0.981948
0.982388
0.98364
0.98591
0.988258
0.990407
0.992758
0.994219
0.995143
0.995591
0.994931
0.993212
0.990031
0.984843
0.977076
0.967584
0.95679
0.946259
0.938624
0.933397
0.930156
0.928329
0.927362
0.927616
0.928952
0.929306
0.927846
0.921741
0.904126
0.875685
0.845987
0.823279
0.808739
0.799971
0.796972
0.796155
0.793527
0.786179
0.787281
0.806794
0.822112
0.816004
0.779078
0.765234
0.767995
0.792737
0.867164
0.923531
0.951663
0.964015
0.96843
0.969907
0.970646
0.971153
0.971649
0.971642
0.97105
0.969228
0.96593
0.962871
0.961324
0.958444
0.951829
0.942029
0.933444
0.928539
0.918764
0.893016
0.846829
0.819069
0.81566
0.824068
0.849801
0.885734
0.926131
0.957295
0.973136
0.980645
0.985516
0.98951
0.992797
0.995296
0.996991
0.998064
0.998716
0.999086
0.999277
0.999313
0.999283
0.999413
0.999653
0.999743
0.999734
0.999671
0.99947
0.998925
0.997416
0.993376
0.988757
0.985133
0.981519
0.978023
0.976127
0.976127
0.979625
0.984813
0.986137
0.985501
0.980302
0.973758
0.972012
0.972568
0.977505
0.987179
0.993316
0.996659
0.998328
0.999098
0.999405
0.999494
0.999509
0.999517
0.999543
0.999626
0.999723
0.999795
0.999847
0.999883
0.999906
0.999922
0.99993
0.999934
0.999935
0.999933
0.999922
0.99989
0.999802
0.999462
0.997678
0.986876
0.962935
0.958097
0.96155
0.975119
0.986232
0.992396
0.996386
0.998557
0.999158
0.999022
0.998385
0.998149
0.998274
0.998787
0.998954
0.998556
0.995751
0.984638
0.969375
0.96015
0.956617
0.956577
0.625315
0.606705
0.625974
0.656187
0.692066
0.742552
0.816596
0.876324
0.917467
0.946967
0.960023
0.965903
0.968781
0.969645
0.968292
0.96224
0.956573
0.950873
0.947879
0.946812
0.949633
0.956102
0.965188
0.974967
0.983497
0.99061
0.995055
0.997283
0.998416
0.998887
0.999075
0.998787
0.997993
0.996359
0.993146
0.98694
0.975757
0.96121
0.945564
0.932408
0.924226
0.918972
0.916913
0.91878
0.926053
0.932244
0.933844
0.93183
0.921696
0.895741
0.861772
0.830594
0.809801
0.798622
0.794393
0.793315
0.794082
0.803975
0.826754
0.828262
0.801621
0.768812
0.765499
0.778447
0.845787
0.915092
0.948471
0.963174
0.968332
0.970069
0.97078
0.971176
0.971662
0.971845
0.971594
0.970254
0.967188
0.963442
0.96153
0.958748
0.952187
0.942244
0.93425
0.929984
0.918758
0.890146
0.839393
0.813365
0.81227
0.832785
0.884936
0.947026
0.976373
0.985809
0.989777
0.991992
0.99373
0.995391
0.996858
0.998006
0.9988
0.9993
0.999589
0.999749
0.999833
0.999871
0.999877
0.99987
0.999882
0.99991
0.999911
0.999902
0.999871
0.999778
0.999502
0.998655
0.996965
0.99448
0.990324
0.985398
0.981828
0.980632
0.981291
0.985102
0.986983
0.986771
0.983544
0.976844
0.974276
0.974275
0.976798
0.985281
0.992171
0.996074
0.998108
0.999091
0.999533
0.999709
0.999764
0.999775
0.99978
0.999791
0.999827
0.999879
0.999917
0.999944
0.999962
0.999972
0.999978
0.999982
0.999983
0.999983
0.999983
0.999978
0.999956
0.999822
0.998944
0.993972
0.989264
0.989212
0.991273
0.995237
0.997356
0.998575
0.999348
0.999571
0.99944
0.998392
0.996326
0.995664
0.995775
0.9967
0.998102
0.998548
0.998251
0.995712
0.985667
0.971015
0.962513
0.959155
0.628686
0.614124
0.63793
0.691591
0.759077
0.839508
0.902627
0.934019
0.95036
0.957385
0.959267
0.959103
0.949467
0.936198
0.923215
0.915232
0.910165
0.907982
0.907032
0.905377
0.904279
0.903091
0.906697
0.918209
0.939111
0.964513
0.981868
0.99176
0.996599
0.998691
0.999445
0.999721
0.999825
0.999805
0.999631
0.999176
0.99813
0.995795
0.99066
0.979595
0.961205
0.939268
0.919574
0.908043
0.903109
0.903767
0.91586
0.930054
0.934805
0.933729
0.92548
0.900651
0.859834
0.825131
0.804648
0.795689
0.794508
0.797612
0.817877
0.831687
0.825592
0.784464
0.767154
0.77049
0.812614
0.899523
0.941567
0.960745
0.967715
0.96996
0.970759
0.971158
0.971616
0.972077
0.972115
0.971428
0.968932
0.964797
0.962002
0.959401
0.953133
0.943164
0.93579
0.931878
0.922426
0.898795
0.84664
0.812921
0.813094
0.854785
0.943199
0.979026
0.986959
0.989735
0.991221
0.992368
0.99345
0.994811
0.996316
0.997694
0.998696
0.999305
0.999637
0.999809
0.999897
0.999942
0.999963
0.999969
0.99997
0.999972
0.999971
0.999968
0.999961
0.999944
0.999891
0.999719
0.999342
0.998699
0.997274
0.993191
0.98784
0.985025
0.984624
0.986152
0.988262
0.98831
0.986406
0.980418
0.977233
0.976818
0.977988
0.984016
0.991149
0.995447
0.997796
0.998978
0.999529
0.99977
0.999864
0.999895
0.999903
0.999909
0.999924
0.999942
0.999959
0.999973
0.999982
0.999989
0.999992
0.999994
0.999996
0.999996
0.999996
0.999995
0.999991
0.999965
0.999794
0.998975
0.998472
0.998512
0.998873
0.999365
0.999638
0.999805
0.999841
0.999775
0.999273
0.996789
0.993181
0.991637
0.991585
0.992321
0.99475
0.996932
0.997894
0.997795
0.995923
0.988018
0.976095
0.966561
0.632343
0.620125
0.661727
0.733194
0.822743
0.899658
0.934714
0.948535
0.953204
0.954517
0.94723
0.933372
0.923725
0.919366
0.917163
0.916538
0.917105
0.918597
0.917829
0.913852
0.906932
0.897807
0.891934
0.888783
0.892354
0.907857
0.945951
0.975225
0.989495
0.995984
0.998608
0.999539
0.999842
0.999939
0.999969
0.999967
0.99993
0.999807
0.999477
0.998628
0.996462
0.990835
0.975359
0.946102
0.915563
0.897604
0.892079
0.893962
0.910783
0.92785
0.931331
0.928215
0.913511
0.874019
0.835653
0.810167
0.797644
0.796122
0.801293
0.824472
0.829797
0.815201
0.775046
0.770271
0.786884
0.865
0.928517
0.955228
0.966014
0.969513
0.970635
0.971102
0.971492
0.972282
0.972763
0.972519
0.97089
0.966788
0.962955
0.960372
0.954959
0.945086
0.937474
0.934018
0.928437
0.913356
0.865455
0.815914
0.815978
0.887032
0.969435
0.984748
0.987938
0.988423
0.987214
0.985859
0.98529
0.986816
0.989995
0.993635
0.996573
0.998374
0.999285
0.999699
0.999872
0.999942
0.999971
0.999984
0.999989
0.999991
0.999991
0.999989
0.999987
0.999983
0.999972
0.999938
0.999857
0.999689
0.999309
0.998204
0.994172
0.989588
0.987978
0.988197
0.990002
0.990529
0.989711
0.985389
0.981473
0.980459
0.980834
0.984126
0.990651
0.99498
0.997491
0.998824
0.999475
0.999768
0.999892
0.999941
0.999959
0.999967
0.999973
0.999979
0.999984
0.999989
0.999993
0.999995
0.999997
0.999998
0.999999
0.999999
0.999999
0.999999
0.999999
0.999996
0.999979
0.9999
0.999858
0.999863
0.999894
0.99994
0.999961
0.999961
0.999932
0.999734
0.998722
0.994805
0.989555
0.986286
0.985405
0.985666
0.987249
0.99061
0.99401
0.996465
0.996903
0.996034
0.992781
0.983342
0.636609
0.632548
0.684995
0.78086
0.873585
0.925284
0.944017
0.949234
0.95028
0.943328
0.931672
0.926117
0.924273
0.926119
0.933444
0.941474
0.944879
0.9452
0.943645
0.941454
0.937706
0.929004
0.908169
0.889031
0.884359
0.887012
0.905456
0.948465
0.97761
0.991452
0.997036
0.99903
0.999693
0.999906
0.999972
0.999991
0.999996
0.999995
0.999987
0.999957
0.999855
0.999516
0.998383
0.994561
0.981168
0.942942
0.905169
0.888588
0.88668
0.894496
0.915051
0.921734
0.919828
0.905122
0.866722
0.834817
0.811058
0.799052
0.79827
0.80622
0.825819
0.824911
0.798008
0.774057
0.77696
0.815649
0.906575
0.946522
0.961955
0.968217
0.970231
0.97094
0.97136
0.972396
0.97351
0.973541
0.972686
0.969329
0.964838
0.961655
0.95739
0.948182
0.939283
0.935609
0.932563
0.926556
0.890399
0.821597
0.81649
0.903168
0.975345
0.984872
0.984955
0.979703
0.971027
0.963482
0.959907
0.961486
0.969144
0.979209
0.988434
0.994533
0.997688
0.999103
0.999672
0.999883
0.999958
0.999983
0.999992
0.999995
0.999997
0.999997
0.999996
0.999995
0.999992
0.999985
0.999968
0.999927
0.999826
0.999526
0.998368
0.994361
0.991366
0.99075
0.991552
0.993187
0.99327
0.991774
0.987589
0.985529
0.985287
0.986271
0.990614
0.994853
0.997348
0.998717
0.999417
0.999748
0.999893
0.999953
0.999977
0.999986
0.99999
0.999993
0.999994
0.999996
0.999997
0.999998
0.999999
0.999999
1
1
1
1
1
1
0.999998
0.999991
0.999988
0.999988
0.999992
0.999994
0.999993
0.999982
0.999911
0.999533
0.997935
0.992624
0.985859
0.980309
0.977569
0.977265
0.977613
0.979168
0.982199
0.986362
0.992274
0.994918
0.994999
0.993746
0.64512
0.635443
0.695139
0.790707
0.878656
0.927292
0.944624
0.949058
0.948422
0.9395
0.929959
0.926065
0.928589
0.940109
0.948974
0.953128
0.952898
0.949786
0.946961
0.945183
0.943578
0.940918
0.931796
0.903471
0.885065
0.883823
0.894117
0.935961
0.97215
0.989482
0.996379
0.998832
0.99964
0.999892
0.999968
0.999991
0.999998
0.999999
1
0.999999
0.999998
0.99999
0.999949
0.999741
0.998726
0.994004
0.970621
0.919058
0.892171
0.886925
0.891617
0.905091
0.908157
0.905364
0.884717
0.848097
0.824654
0.806762
0.799297
0.799929
0.812634
0.823513
0.818356
0.787732
0.77865
0.791995
0.861721
0.928355
0.955311
0.965205
0.969173
0.97051
0.971093
0.972509
0.974207
0.974559
0.974151
0.972058
0.9672
0.96321
0.959732
0.951989
0.941588
0.936583
0.933729
0.933311
0.915043
0.831636
0.814337
0.902321
0.975026
0.982286
0.976664
0.959473
0.936651
0.915269
0.904563
0.904139
0.919452
0.941226
0.964845
0.982782
0.992616
0.997132
0.998975
0.999657
0.999891
0.999966
0.999989
0.999996
0.999998
0.999999
0.999999
0.999998
0.999998
0.999996
0.999992
0.999981
0.999952
0.999864
0.999536
0.998055
0.994778
0.993273
0.993201
0.994392
0.995733
0.995785
0.994652
0.991803
0.990547
0.990504
0.991668
0.994997
0.997359
0.998694
0.999392
0.999733
0.999888
0.999955
0.999981
0.999992
0.999996
0.999997
0.999998
0.999999
0.999999
0.999999
1
1
1
1
1
1
1
1
1
0.999999
0.999999
0.999999
0.999999
0.999999
0.999995
0.999972
0.999837
0.999231
0.99693
0.989935
0.98132
0.975935
0.974262
0.974122
0.974442
0.975501
0.977509
0.979041
0.980275
0.983736
0.988578
0.991706
0.652064
0.640775
0.689791
0.78347
0.871212
0.922644
0.942644
0.948381
0.948184
0.941807
0.931828
0.927156
0.928449
0.935152
0.94593
0.950857
0.950919
0.948806
0.944693
0.943201
0.942849
0.941455
0.934578
0.907922
0.885672
0.882516
0.892405
0.933597
0.97147
0.989468
0.99655
0.998962
0.99971
0.999924
0.999981
0.999995
0.999999
1
1
1
1
1
0.999997
0.999978
0.999853
0.999118
0.995191
0.97431
0.923396
0.89741
0.892416
0.896248
0.902044
0.901725
0.892511
0.856508
0.830779
0.814561
0.80248
0.799582
0.802317
0.817997
0.82129
0.808255
0.783315
0.784963
0.81538
0.902365
0.945262
0.960456
0.966944
0.969574
0.970531
0.972387
0.974648
0.975399
0.975262
0.97404
0.969973
0.965133
0.961981
0.955657
0.944742
0.9378
0.93425
0.933939
0.927559
0.862448
0.817682
0.885973
0.969544
0.978645
0.964219
0.933816
0.902697
0.877457
0.853647
0.832384
0.835697
0.86858
0.912461
0.954252
0.979742
0.991923
0.99707
0.999022
0.999695
0.99991
0.999974
0.999993
0.999998
0.999999
0.999999
0.999999
0.999999
0.999999
0.999997
0.999994
0.999983
0.99995
0.999835
0.999362
0.997504
0.995651
0.995086
0.995274
0.996565
0.997444
0.997497
0.996979
0.99552
0.994803