/*--------------------------------*- C++ -*----------------------------------*\
  =========                 |
  \\      /  F ield         | OpenFOAM: The Open Source CFD Toolbox
   \\    /   O peration     | Website:  https://openfoam.org
    \\  /    A nd           | Version:  9
     \\/     M anipulation  |
\*---------------------------------------------------------------------------*/
FoamFile
{
    format      ascii;
    class       volVectorField;
    location    "0.075";
    object      U_0;
}
// * * * * * * * * * * * * * * * * * * * * * * * * * * * * * * * * * * * * * //

dimensions      [0 1 -1 0 0 0 0];

internalField   nonuniform List<vector> 
12225
(
(9.84693 0.0646179 0)
(9.61029 0.0218268 0)
(9.3223 0.0524206 0)
(8.99797 0.0557672 0)
(8.7049 0.0280994 0)
(8.46731 0.00374432 0)
(8.27595 0.00167936 0)
(8.0766 0.0203344 0)
(7.85173 0.0428106 0)
(7.59606 0.056337 0)
(7.36431 0.0539858 0)
(7.14456 0.0464643 0)
(6.99648 0.0328642 0)
(6.85026 0.0333038 0)
(6.74691 0.023728 0)
(6.64772 0.0361203 0)
(6.51999 0.0264571 0)
(6.43477 0.0372257 0)
(10.1269 0.00126011 0)
(10.0649 0.0977501 0)
(10.0671 0.0747504 0)
(10.1908 0.0786924 0)
(10.2772 0.0941947 0)
(10.263 0.100707 0)
(10.2012 0.0987809 0)
(10.1501 0.0940529 0)
(10.1373 0.0928641 0)
(10.1513 0.0898082 0)
(10.1814 0.0849253 0)
(10.1999 0.0744215 0)
(10.2072 0.0621282 0)
(10.1845 0.0549159 0)
(10.1507 0.0471358 0)
(10.0979 0.0431083 0)
(10.0449 0.0516001 0)
(9.98878 0.0413725 0)
(9.67549 0.0465981 0)
(9.94492 0.0587698 0)
(10.0873 0.0359138 0)
(10.1806 0.0181279 0)
(10.2646 0.0166557 0)
(10.2976 0.0254237 0)
(10.2823 0.0330007 0)
(10.2545 0.0358764 0)
(10.2482 0.0366142 0)
(10.2763 0.0355398 0)
(10.3322 0.0332471 0)
(10.3986 0.0336846 0)
(10.4579 0.0378025 0)
(10.4954 0.0504001 0)
(10.508 0.0619942 0)
(10.4934 0.073205 0)
(10.4656 0.0807426 0)
(10.4295 0.0727328 0)
(9.85347 -0.056117 0)
(10.0513 -0.0121625 0)
(10.1712 0.00756383 0)
(10.1969 0.0258602 0)
(10.1399 0.0545063 0)
(10.0463 0.0874826 0)
(9.99053 0.105683 0)
(10.0094 0.104197 0)
(10.086 0.090887 0)
(10.1799 0.070831 0)
(10.2559 0.0494797 0)
(10.2999 0.0325021 0)
(10.3174 0.0251953 0)
(10.3229 0.0315977 0)
(10.3299 0.0438956 0)
(10.3419 0.0551792 0)
(10.3633 0.065559 0)
(10.3907 0.0687711 0)
(10.0809 -0.0458915 0)
(10.2119 -0.0283093 0)
(10.2407 0.00627679 0)
(10.1213 0.0440212 0)
(9.9471 0.0753152 0)
(9.83637 0.0805607 0)
(9.84792 0.0518037 0)
(9.95972 0.006761 0)
(10.113 -0.0270533 0)
(10.2545 -0.0341333 0)
(10.3484 -0.0208471 0)
(10.3868 0.00317834 0)
(10.3835 0.0269404 0)
(10.3644 0.0467559 0)
(10.3497 0.0582226 0)
(10.3529 0.0619416 0)
(10.3714 0.0613293 0)
(10.4061 0.058842 0)
(9.76911 -0.0804932 0)
(9.89182 -0.0366351 0)
(10.0267 0.0307997 0)
(10.0673 0.103409 0)
(10.0688 0.129218 0)
(10.0799 0.102309 0)
(10.1035 0.0505024 0)
(10.1127 0.00541995 0)
(10.0966 -0.0149148 0)
(10.0648 -0.011277 0)
(10.032 0.00529143 0)
(10.0086 0.0257881 0)
(10.0009 0.0404403 0)
(10.0127 0.0475249 0)
(10.0446 0.0468991 0)
(10.0914 0.041579 0)
(10.1496 0.0349239 0)
(10.2137 0.0326355 0)
(9.973 -0.122977 0)
(10.127 -0.117422 0)
(10.2194 -0.046912 0)
(10.263 0.0412501 0)
(10.2595 0.0868015 0)
(10.2458 0.0832886 0)
(10.2598 0.050548 0)
(10.2972 0.0145661 0)
(10.3283 -0.00491392 0)
(10.3328 -0.00831306 0)
(10.312 -0.000807834 0)
(10.2783 0.00893806 0)
(10.2465 0.0163312 0)
(10.2271 0.0188 0)
(10.2277 0.0148743 0)
(10.2503 0.00649799 0)
(10.2945 -0.00448255 0)
(10.3552 -0.0103298 0)
(10.181 -0.07489 0)
(10.0779 -0.0876398 0)
(10.1029 -0.014516 0)
(10.1407 0.0846015 0)
(10.1564 0.126165 0)
(10.1768 0.087278 0)
(10.2266 0.0153801 0)
(10.3023 -0.0314911 0)
(10.3792 -0.0353966 0)
(10.4282 -0.00302357 0)
(10.4333 0.0379827 0)
(10.4031 0.0682383 0)
(10.3605 0.0787124 0)
(10.3297 0.0687516 0)
(10.3201 0.0422327 0)
(10.3345 0.00838447 0)
(10.3645 -0.0251266 0)
(10.4069 -0.0487155 0)
(10.1191 -0.0339766 0)
(10.0083 -0.0837133 0)
(9.99202 -0.0628515 0)
(10.0461 0.0273882 0)
(10.1163 0.0819733 0)
(10.1678 0.0649303 0)
(10.1883 0.00640179 0)
(10.179 -0.0427288 0)
(10.1583 -0.054575 0)
(10.1487 -0.0345326 0)
(10.1608 0.000389805 0)
(10.1967 0.0296403 0)
(10.248 0.0387854 0)
(10.305 0.0281244 0)
(10.355 0.00421961 0)
(10.3945 -0.0230966 0)
(10.42 -0.0484411 0)
(10.4394 -0.0662712 0)
(9.81261 -0.0616841 0)
(9.90258 -0.0666325 0)
(9.9695 -0.0370175 0)
(10.0634 0.0353983 0)
(10.1606 0.0723999 0)
(10.2217 0.0485913 0)
(10.2517 0.00165448 0)
(10.2777 -0.0274433 0)
(10.3009 -0.0246979 0)
(10.3119 -0.000560533 0)
(10.3096 0.0249031 0)
(10.3024 0.0362809 0)
(10.2993 0.0316905 0)
(10.3052 0.0157437 0)
(10.3171 -0.00710068 0)
(10.3325 -0.0301827 0)
(10.3529 -0.0539655 0)
(10.3798 -0.0772925 0)
(9.97707 -0.116414 0)
(9.91864 -0.140985 0)
(9.96303 -0.11968 0)
(10.0509 -0.0518456 0)
(10.1146 0.0192412 0)
(10.1103 0.0294947 0)
(10.0811 -0.01447 0)
(10.0785 -0.0597208 0)
(10.1161 -0.0700115 0)
(10.1758 -0.0440361 0)
(10.2285 -0.00718878 0)
(10.2621 0.0202809 0)
(10.2767 0.0256185 0)
(10.2806 0.0106197 0)
(10.2883 -0.017149 0)
(10.3097 -0.0495445 0)
(10.3448 -0.0812649 0)
(10.3923 -0.108743 0)
(10.0145 -0.028878 0)
(10.0404 -0.100935 0)
(10.0255 -0.107482 0)
(9.9072 -0.0265332 0)
(9.86695 0.0470445 0)
(9.93425 0.0557806 0)
(10.0455 0.00745451 0)
(10.1317 -0.0532219 0)
(10.1584 -0.0767782 0)
(10.1367 -0.0578869 0)
(10.1022 -0.0172057 0)
(10.0792 0.0196443 0)
(10.0807 0.0312819 0)
(10.1082 0.0138781 0)
(10.1533 -0.0235116 0)
(10.2068 -0.0698089 0)
(10.2616 -0.117204 0)
(10.3145 -0.157647 0)
(10.0797 -0.0399924 0)
(10.1275 -0.098843 0)
(10.1608 -0.0590373 0)
(10.1381 0.0200307 0)
(10.1547 0.0166547 0)
(10.2011 -0.0499874 0)
(10.231 -0.107977 0)
(10.2304 -0.114163 0)
(10.2107 -0.0732604 0)
(10.1873 -0.0172725 0)
(10.1779 0.0194952 0)
(10.1942 0.0215892 0)
(10.2295 -0.00397736 0)
(10.2721 -0.0454201 0)
(10.3098 -0.090699 0)
(10.3391 -0.128147 0)
(10.3575 -0.15778 0)
(10.3755 -0.181771 0)
(9.96929 0.00540858 0)
(10.0802 -0.145186 0)
(10.1267 -0.153453 0)
(10.1422 -0.0483153 0)
(10.1862 0.0220353 0)
(10.2222 0.0304098 0)
(10.2237 0.000388898 0)
(10.2015 -0.0313921 0)
(10.1694 -0.0443248 0)
(10.1386 -0.0383333 0)
(10.1187 -0.022874 0)
(10.1143 -0.0118428 0)
(10.1224 -0.015108 0)
(10.1368 -0.0322334 0)
(10.1552 -0.0627328 0)
(10.1764 -0.102596 0)
(10.2019 -0.149138 0)
(10.2298 -0.199018 0)
(10.3224 -0.131846 0)
(10.2831 -0.115405 0)
(10.1576 -0.0530028 0)
(10.0493 -0.00468702 0)
(10.0636 -0.0264593 0)
(10.1401 -0.0848087 0)
(10.2097 -0.114889 0)
(10.252 -0.0898336 0)
(10.2645 -0.0293166 0)
(10.2554 0.0258078 0)
(10.245 0.0442366 0)
(10.2488 0.0212113 0)
(10.2698 -0.0300023 0)
(10.3018 -0.089316 0)
(10.3346 -0.141438 0)
(10.3634 -0.181315 0)
(10.3871 -0.211838 0)
(10.4067 -0.239567 0)
(9.95635 -0.0644965 0)
(9.92052 0.0454557 0)
(9.92726 0.0034389 0)
(9.9643 -0.0230163 0)
(10.0057 -0.0445727 0)
(9.99429 -0.0734452 0)
(9.94439 -0.0856213 0)
(9.91396 -0.0709137 0)
(9.92957 -0.0446126 0)
(9.98168 -0.0271432 0)
(10.0504 -0.0277102 0)
(10.118 -0.043328 0)
(10.1693 -0.0663176 0)
(10.1995 -0.0933089 0)
(10.2134 -0.124194 0)
(10.2207 -0.160746 0)
(10.2283 -0.20529 0)
(10.241 -0.2583 0)
(10.3155 0.0249827 0)
(10.2765 0.000974062 0)
(10.2357 -0.102516 0)
(10.2202 -0.0842071 0)
(10.2358 -0.0263361 0)
(10.2387 -0.0111609 0)
(10.2037 -0.0408229 0)
(10.1523 -0.0818721 0)
(10.11 -0.110968 0)
(10.0882 -0.124708 0)
(10.0913 -0.130208 0)
(10.1184 -0.134702 0)
(10.1619 -0.142611 0)
(10.2131 -0.156488 0)
(10.2633 -0.176771 0)
(10.305 -0.204603 0)
(10.3329 -0.237063 0)
(10.3423 -0.273971 0)
(10.2132 0.215724 0)
(10.1834 0.253731 0)
(10.0811 0.0762096 0)
(10.0141 -0.0476802 0)
(10.008 -0.0790343 0)
(10.0307 -0.045034 0)
(10.0361 0.0193176 0)
(10.0163 0.0700968 0)
(9.9896 0.0741939 0)
(9.97358 0.0272932 0)
(9.97714 -0.0522877 0)
(9.99957 -0.140374 0)
(10.0323 -0.216817 0)
(10.0672 -0.269933 0)
(10.0989 -0.294973 0)
(10.1246 -0.298136 0)
(10.1419 -0.286454 0)
(10.1514 -0.275058 0)
(9.84554 0.0453857 0)
(9.92385 0.154407 0)
(9.99388 0.117625 0)
(10.0406 0.0174442 0)
(10.0588 -0.0433308 0)
(10.0528 -0.0440893 0)
(10.037 -0.0277934 0)
(10.0329 -0.0357199 0)
(10.0493 -0.0783882 0)
(10.0779 -0.141342 0)
(10.1046 -0.201895 0)
(10.118 -0.24512 0)
(10.1156 -0.26752 0)
(10.102 -0.275802 0)
(10.0851 -0.277388 0)
(10.0699 -0.278847 0)
(10.0587 -0.282037 0)
(10.0514 -0.286079 0)
(9.89118 0.196247 0)
(9.8907 0.0388451 0)
(9.83655 -0.0791514 0)
(9.83014 -0.121074 0)
(9.89995 -0.0916774 0)
(9.98579 -0.0137151 0)
(10.0419 0.0473467 0)
(10.0649 0.0459213 0)
(10.06 -0.00788977 0)
(10.0334 -0.075303 0)
(9.99771 -0.129082 0)
(9.96325 -0.165562 0)
(9.93487 -0.19137 0)
(9.9132 -0.213224 0)
(9.89909 -0.231931 0)
(9.89269 -0.245395 0)
(9.89438 -0.251965 0)
(9.90468 -0.249018 0)
(10.2103 0.173779 0)
(10.1893 0.2306 0)
(10.1625 0.102956 0)
(10.0708 -0.0864237 0)
(9.9578 -0.201115 0)
(9.91883 -0.191088 0)
(9.95654 -0.112888 0)
(10.0229 -0.0448138 0)
(10.0785 -0.024891 0)
(10.1075 -0.0476443 0)
(10.1107 -0.0897769 0)
(10.0979 -0.132166 0)
(10.0788 -0.166063 0)
(10.0586 -0.193289 0)
(10.0379 -0.220497 0)
(10.0186 -0.250824 0)
(10.0017 -0.28541 0)
(9.99134 -0.318858 0)
(9.77736 0.0750445 0)
(9.91929 0.0936076 0)
(10.0637 0.0720717 0)
(10.1216 0.0322073 0)
(10.0754 -0.00309255 0)
(9.99516 -0.0451821 0)
(9.91206 -0.0836641 0)
(9.84898 -0.103163 0)
(9.8171 -0.103991 0)
(9.80841 -0.0997632 0)
(9.80774 -0.103289 0)
(9.80637 -0.117419 0)
(9.80242 -0.137532 0)
(9.79744 -0.159462 0)
(9.79459 -0.181498 0)
(9.79574 -0.203449 0)
(9.80177 -0.226025 0)
(9.81015 -0.246941 0)
(9.94332 -0.0140864 0)
(10.0068 -0.0149574 0)
(10.0913 -0.0106018 0)
(10.128 -0.0487914 0)
(10.1404 -0.0456813 0)
(10.1537 -0.0017257 0)
(10.154 0.0345844 0)
(10.137 0.0320699 0)
(10.1158 -0.00582821 0)
(10.0932 -0.0561689 0)
(10.0645 -0.0984801 0)
(10.031 -0.126844 0)
(10.0011 -0.146902 0)
(9.98208 -0.169857 0)
(9.97584 -0.20221 0)
(9.97797 -0.242422 0)
(9.98339 -0.285721 0)
(9.98348 -0.320433 0)
(9.83827 0.0890401 0)
(9.90496 -0.0314154 0)
(9.92086 -0.050075 0)
(9.91518 -0.0525463 0)
(9.91762 -0.0506894 0)
(9.96097 -0.0501519 0)
(10.0258 -0.0530789 0)
(10.0768 -0.050972 0)
(10.0959 -0.0411527 0)
(10.0844 -0.0315897 0)
(10.0558 -0.0329708 0)
(10.0262 -0.0527269 0)
(10.0048 -0.0906824 0)
(9.99161 -0.13977 0)
(9.9813 -0.188734 0)
(9.96965 -0.227856 0)
(9.95315 -0.251409 0)
(9.93226 -0.257349 0)
(9.92473 -0.0978298 0)
(9.93461 -0.0496453 0)
(9.90986 0.00389872 0)
(9.93426 -0.0179527 0)
(10.0013 -0.0611122 0)
(10.0761 -0.080144 0)
(10.1276 -0.0665726 0)
(10.15 -0.0399658 0)
(10.1552 -0.0241592 0)
(10.151 -0.0279032 0)
(10.1377 -0.0465636 0)
(10.1159 -0.0731434 0)
(10.0888 -0.103159 0)
(10.0599 -0.135602 0)
(10.028 -0.169623 0)
(9.99102 -0.202686 0)
(9.94724 -0.232206 0)
(9.89619 -0.253099 0)
(9.99691 -0.0844267 0)
(9.955 -0.0985177 0)
(9.90092 -0.0733159 0)
(9.8628 -0.108561 0)
(9.80385 -0.137099 0)
(9.74509 -0.125972 0)
(9.73194 -0.0938207 0)
(9.77623 -0.0593313 0)
(9.85806 -0.0302365 0)
(9.94632 -0.00971511 0)
(10.0195 -0.0037854 0)
(10.072 -0.0183135 0)
(10.105 -0.0515434 0)
(10.1185 -0.0938174 0)
(10.1078 -0.131576 0)
(10.0719 -0.155936 0)
(10.0121 -0.162558 0)
(9.93694 -0.154209 0)
(9.88645 -0.0684103 0)
(9.98277 -0.00119078 0)
(10.0218 0.0466631 0)
(10.0472 0.0323026 0)
(10.0153 -0.00492451 0)
(9.9502 -0.0526374 0)
(9.90517 -0.0986639 0)
(9.90706 -0.127769 0)
(9.95577 -0.136909 0)
(10.028 -0.133586 0)
(10.0864 -0.127352 0)
(10.1016 -0.123979 0)
(10.0678 -0.124119 0)
(10.0002 -0.124442 0)
(9.92043 -0.121935 0)
(9.84635 -0.116557 0)
(9.78617 -0.110804 0)
(9.74324 -0.110634 0)
(10.1307 -0.171705 0)
(10.1373 -0.11752 0)
(10.1858 -0.090826 0)
(10.2404 -0.0906723 0)
(10.2988 -0.0808182 0)
(10.3439 -0.0664017 0)
(10.3444 -0.0677623 0)
(10.2825 -0.0833158 0)
(10.1787 -0.09416 0)
(10.0702 -0.0841413 0)
(9.98076 -0.0543302 0)
(9.91948 -0.0216596 0)
(9.88785 -0.0053512 0)
(9.88237 -0.0126309 0)
(9.89378 -0.035617 0)
(9.90782 -0.0615754 0)
(9.91388 -0.0795544 0)
(9.90373 -0.0889491 0)
(10.1637 -0.0270446 0)
(10.0546 -0.0182798 0)
(10.0419 -0.00823208 0)
(10.0688 -0.0214069 0)
(10.0645 -0.0493117 0)
(10.0358 -0.0686716 0)
(10.012 -0.0701402 0)
(9.98638 -0.0585354 0)
(9.94608 -0.0467943 0)
(9.8975 -0.0435986 0)
(9.85773 -0.0501521 0)
(9.84145 -0.0645715 0)
(9.85127 -0.0845076 0)
(9.87643 -0.10425 0)
(9.90205 -0.115957 0)
(9.91778 -0.116524 0)
(9.92174 -0.106289 0)
(9.91523 -0.0947114 0)
(9.87116 -0.0421819 0)
(9.76186 -0.054845 0)
(9.63176 -0.0823659 0)
(9.44704 -0.0882532 0)
(9.2476 -0.0712137 0)
(9.05308 -0.0548625 0)
(8.87184 -0.0508776 0)
(8.70441 -0.0514837 0)
(8.55891 -0.0463328 0)
(8.44362 -0.0341391 0)
(8.35043 -0.0224544 0)
(8.25774 -0.0204617 0)
(8.14124 -0.0321963 0)
(7.98646 -0.0528373 0)
(7.79832 -0.0714256 0)
(7.59652 -0.0803914 0)
(7.40349 -0.0771484 0)
(7.23939 -0.0674961 0)
(-0.307891 0.527329 6.89839e-20)
(-0.819534 0.36829 -6.83399e-20)
(-1.20447 0.253535 0)
(-1.47937 0.0893553 0)
(-1.51879 -0.0983223 0)
(-1.35294 -0.28885 6.62536e-20)
(-1.06407 -0.399928 0)
(-0.679628 -0.452952 0)
(-0.269464 -0.456006 0)
(0.133247 -0.421911 0)
(0.50009 -0.370193 -6.42891e-20)
(0.822118 -0.316618 0)
(1.09894 -0.266717 0)
(1.33347 -0.222671 0)
(1.53146 -0.186485 0)
(1.70032 -0.158778 -6.17401e-20)
(1.84721 -0.138683 0)
(1.97826 -0.124952 0)
(2.09867 -0.116121 0)
(2.21258 -0.110578 0)
(2.32292 -0.107177 0)
(2.43166 -0.10516 0)
(2.53983 -0.103209 0)
(2.64731 -0.1008 -5.81819e-20)
(2.75371 -0.0980348 5.77628e-20)
(2.85819 -0.093346 -5.7348e-20)
(2.95867 -0.0875756 -5.69377e-20)
(3.05435 -0.0809493 0)
(3.14311 -0.07082 0)
(3.22232 -0.0617501 5.57374e-20)
(3.29283 -0.0494145 5.53489e-20)
(3.34921 -0.034164 0)
(3.39391 -0.0239648 0)
(3.42464 -0.000460328 5.42232e-20)
(3.43519 0.0120045 0)
(3.4401 0.033009 0)
(3.40488 0.0713521 -5.31547e-20)
(3.36413 0.0704647 0)
(3.29264 0.151373 -5.24762e-20)
(3.142 0.165092 -1.04298e-19)
(3.04647 0.230474 0)
(2.71543 0.43334 0)
(2.42099 0.347693 0)
(2.06381 0.936339 0)
(0.920555 1.32833 0)
(0.0297598 0.287008 -1.00101e-19)
(-0.462648 -0.474822 -9.91007e-20)
(-0.814614 -0.650678 -9.81998e-20)
(-1.05957 -0.515087 0)
(-1.21347 -0.310917 9.6342e-20)
(-1.2711 -0.14798 0)
(-1.23047 -0.0339433 -9.46885e-20)
(-1.09005 0.0295677 -9.39762e-20)
(-0.886303 0.0154761 0)
(-0.578357 -0.13368 0)
(-0.15003 -0.38009 0)
(0.520171 -0.615167 -9.15976e-20)
(1.25568 -0.619597 0)
(2.01307 0.0391943 0)
(2.14934 0.372564 0)
(1.81263 0.217784 0)
(1.57943 0.204446 0)
(1.74061 -0.151294 0)
(2.08023 -0.715413 0)
(2.33063 -0.840134 0)
(2.15072 -0.225336 8.33754e-20)
(1.43878 0.421203 0)
(0.529984 0.598944 0)
(-0.351879 0.569494 -8.05206e-20)
(-1.19695 0.537567 -7.90448e-20)
(-2.04417 0.531099 0)
(-2.9279 0.559461 7.57641e-20)
(-3.88441 0.61505 -7.40052e-20)
(-4.91729 0.677972 0)
(-6.01199 0.719585 7.02506e-20)
(-7.11781 0.717226 0)
(-8.17366 0.664973 0)
(-9.12142 0.576634 -6.4181e-20)
(-9.92854 0.474245 0)
(-10.5877 0.376881 6.03061e-20)
(-11.1133 0.294209 0)
(-11.5277 0.227362 -5.68973e-20)
(-11.8503 0.172818 -5.53975e-20)
(-12.0927 0.126343 -5.40438e-20)
(-12.2611 0.0848418 -1.05686e-19)
(-12.3593 0.0470774 1.03597e-19)
(-12.39 0.012235 0)
(-12.3575 -0.0201303 0)
(-12.2664 -0.0494596 0)
(-12.1197 -0.0768748 9.83227e-20)
(-11.9188 -0.102291 9.77213e-20)
(-11.6684 -0.1258 -9.73667e-20)
(-11.37 -0.147374 0)
(-11.027 -0.167392 9.72917e-20)
(-10.641 -0.185842 9.75141e-20)
(-10.2149 -0.202545 9.78683e-20)
(-9.75134 -0.217536 0)
(-9.25411 -0.230206 0)
(-8.72807 -0.240269 0)
(-8.17893 -0.247374 9.98933e-20)
(-7.61309 -0.251376 0)
(-7.03658 -0.252543 0)
(-6.45462 -0.251314 -1.01089e-19)
(-5.87156 -0.248211 0)
(-5.29092 -0.243715 0)
(-4.71542 -0.238255 -1.0137e-19)
(-4.14711 -0.23214 0)
(-3.5878 -0.225398 0)
(-3.03939 -0.217894 1.0064e-19)
(-2.50406 -0.209427 1.00188e-19)
(-1.9845 -0.19981 0)
(-1.48374 -0.189022 -9.89991e-20)
(-1.0047 -0.176952 0)
(-0.551015 -0.163113 9.74714e-20)
(-0.124669 -0.152293 0)
(0.268849 -0.138995 9.5594e-20)
(0.632402 -0.125628 9.45159e-20)
(0.965593 -0.112712 0)
(1.26837 -0.100337 0)
(1.54169 -0.0886203 0)
(1.78729 -0.0778176 0)
(2.00778 -0.0682435 0)
(2.20649 -0.0600891 0)
(2.38742 -0.0534098 0)
(2.55492 -0.0481926 8.51893e-20)
(2.71322 -0.0441187 -8.40176e-20)
(2.86527 -0.0399411 0)
(3.01097 -0.033856 0)
(3.14684 -0.025557 0)
(3.26799 -0.0162097 0)
(3.36758 -0.00476967 -1.56663e-19)
(3.43171 0.010909 0)
(3.44364 0.0268477 1.52276e-19)
(3.40417 0.0362363 -1.50104e-19)
(3.32678 0.038389 0)
(3.22829 0.0368788 0)
(3.12312 0.0345273 0)
(3.02061 0.0317467 1.41576e-19)
(2.92557 0.0281501 1.3948e-19)
(2.84015 0.023795 0)
(2.76556 0.0191157 1.35336e-19)
(2.70279 0.0144949 1.33291e-19)
(2.65302 0.0101301 -1.31266e-19)
(2.61739 0.00630104 0)
(2.59649 0.00318993 0)
(2.59038 0.00046058 -1.25327e-19)
(2.59893 -0.00196097 0)
(2.62142 -0.00418328 0)
(2.65614 -0.00636926 0)
(2.70123 -0.00819217 0)
(2.75414 -0.00880905 1.15838e-19)
(2.81243 -0.00884575 1.1399e-19)
(2.87542 -0.00941632 0)
(2.94287 -0.00923773 1.10339e-19)
(3.01334 -0.00793646 0)
(3.08484 -0.00831111 0)
(3.15079 -0.00938973 1.04975e-19)
(3.19542 -0.00648516 0)
(3.20585 -0.00391267 1.01403e-19)
(3.19463 -0.0105763 0)
(3.19144 -0.0211044 0)
(3.21886 -0.0227766 9.60647e-20)
(3.2805 -0.0266429 0)
(3.3921 -0.0529913 9.26958e-20)
(3.5921 -0.0778501 0)
(3.87885 -0.0671224 0)
(4.21678 -0.0759391 0)
(4.64923 -0.136264 -8.63807e-20)
(5.19403 -0.0864621 0)
(5.52379 0.0251317 8.29878e-20)
(5.66852 -0.0626885 0)
(6.00194 -0.0341176 0)
(5.83284 0.170517 0)
(5.36038 0.00167595 0)
(5.64412 -0.0231266 0)
(5.09852 0.488869 0)
(3.10135 0.398918 0)
(1.79672 -0.206173 -1.3392e-19)
(1.37381 -0.211876 0)
(0.967169 0.112655 0)
(-0.130886 1.655 -2.06583e-19)
(-0.323534 1.40593 2.0495e-19)
(-0.483764 1.00927 0)
(-0.622212 0.591142 -1.34424e-19)
(-0.556838 -0.0994294 0)
(-0.356949 -0.694328 -6.64074e-20)
(-0.0262558 -1.07623 1.31827e-19)
(0.358572 -1.25394 1.30931e-19)
(0.711567 -1.26575 0)
(1.02376 -1.17691 1.28931e-19)
(1.29386 -1.03876 6.40775e-20)
(1.5184 -0.888557 0)
(1.70066 -0.747559 0)
(1.84857 -0.625951 0)
(1.96982 -0.527192 0)
(2.07182 -0.45099 6.16569e-20)
(2.16113 -0.394759 0)
(2.24306 -0.355132 -1.21399e-19)
(2.32175 -0.328603 0)
(2.40034 -0.311793 0)
(2.48107 -0.30165 1.18805e-19)
(2.56504 -0.29558 0)
(2.65249 -0.29113 -1.17114e-19)
(2.74327 -0.28632 5.81549e-20)
(2.83623 -0.279978 -5.77383e-20)
(2.93005 -0.270609 5.73258e-20)
(3.02342 -0.257659 5.69175e-20)
(3.11385 -0.241348 0)
(3.20033 -0.220279 0)
(3.28049 -0.196174 -5.5722e-20)
(3.35197 -0.169014 5.53139e-20)
(3.41541 -0.137355 0)
(3.46545 -0.10711 0)
(3.50621 -0.0712292 -5.42119e-20)
(3.53343 -0.035133 0)
(3.54605 -0.00122734 0)
(3.55702 0.0522454 5.3136e-20)
(3.54857 0.091392 0)
(3.5462 0.162352 -5.23946e-20)
(3.52774 0.252306 1.04191e-19)
(3.51468 0.325617 0)
(3.49465 0.543517 0)
(3.45978 0.681327 2.03926e-19)
(3.50281 0.973608 2.02328e-19)
(3.46429 1.47835 2.00456e-19)
(3.59022 1.62035 -9.91282e-20)
(3.43207 1.57807 9.84131e-20)
(2.84498 1.4175 2.93232e-19)
(2.17041 1.10603 -1.94158e-19)
(1.57833 0.678327 -9.62181e-20)
(1.11278 0.215912 0)
(0.771882 -0.226837 9.47612e-20)
(0.572335 -0.582584 -9.39513e-20)
(0.479448 -0.801867 0)
(0.542956 -0.959063 0)
(0.673504 -1.22115 0)
(0.87812 -1.48586 9.1453e-20)
(1.08714 -1.51566 0)
(1.64271 -1.16124 -1.79968e-19)
(2.16127 -0.232496 0)
(2.10274 0.542231 -1.76645e-19)
(2.35837 -0.00626551 0)
(2.62085 -0.673066 1.73105e-19)
(1.83953 -0.0583732 0)
(0.464361 0.922623 -1.69705e-19)
(-0.75849 1.4379 8.36924e-20)
(-1.84203 1.62702 0)
(-2.7857 1.62064 1.62181e-19)
(-3.65421 1.56588 7.99409e-20)
(-4.48565 1.53931 7.84593e-20)
(-5.30369 1.55765 0)
(-6.11412 1.61535 7.45878e-20)
(-6.92514 1.68733 7.34982e-20)
(-7.72035 1.73678 0)
(-8.48342 1.72967 -6.98462e-20)
(-9.18869 1.64876 1.34916e-19)
(-9.81953 1.49815 0)
(-10.3628 1.29963 6.3974e-20)
(-10.8167 1.08253 0)
(-11.1869 0.874535 -1.79855e-19)
(-11.4893 0.692591 0)
(-11.7394 0.539839 1.69953e-19)
(-11.9452 0.409721 5.5371e-20)
(-12.1058 0.293767 -5.34972e-20)
(-12.2182 0.18593 -1.04651e-19)
(-12.2804 0.0836977 1.02612e-19)
(-12.2904 -0.0137288 0)
(-12.2446 -0.10688 0)
(-12.142 -0.194494 0)
(-11.9837 -0.276311 -2.94117e-19)
(-11.7739 -0.352201 -9.77122e-20)
(-11.5138 -0.422275 9.73517e-20)
(-11.2076 -0.486975 0)
(-10.8562 -0.5469 9.65958e-20)
(-10.4628 -0.602355 -9.74841e-20)
(-10.0286 -0.653125 -9.7834e-20)
(-9.55669 -0.698546 0)
(-9.05038 -0.737377 0)
(-8.51435 -0.768312 0)
(-7.95478 -0.79027 -9.98485e-20)
(-7.37832 -0.802925 0)
(-6.79146 -0.806959 2.01207e-19)
(-6.19963 -0.803806 3.02914e-19)
(-5.60703 -0.795071 -2.02312e-19)
(-5.01705 -0.782212 0)
(-4.43218 -0.766538 -1.01169e-19)
(-3.85409 -0.74899 0)
(-3.28417 -0.729585 -2.01776e-19)
(-2.724 -0.707858 1.00478e-19)
(-2.17547 -0.68324 1.0004e-19)
(-1.64112 -0.655119 0)
(-1.12405 -0.623278 2.96858e-19)
(-0.627245 -0.587919 -1.96446e-19)
(-0.156521 -0.54867 -9.74618e-20)
(0.28556 -0.509889 0)
(0.696708 -0.469805 -9.54983e-20)
(1.07706 -0.428666 -2.83228e-19)
(1.42498 -0.388017 0)
(1.73995 -0.34887 -1.84325e-19)
(2.02265 -0.312131 -1.82015e-19)
(2.27483 -0.278669 -1.79676e-19)
(2.49925 -0.249293 0)
(2.69959 -0.224713 0)
(2.88054 -0.205477 0)
(3.04769 -0.191658 8.5103e-20)
(3.20673 -0.18233 8.39576e-20)
(3.36224 -0.175331 0)
(3.51742 -0.167732 1.63274e-19)
(3.67415 -0.156577 1.61001e-19)
(3.83034 -0.138687 0)
(3.97895 -0.109496 1.56541e-19)
(4.11531 -0.0653276 3.08629e-19)
(4.23746 -0.010536 -1.5214e-19)
(4.32814 0.0425815 -1.49925e-19)
(4.36565 0.0820609 0)
(4.34053 0.102477 0)
(4.26026 0.106373 0)
(4.14506 0.100253 -1.41393e-19)
(4.01681 0.0902903 1.39299e-19)
(3.89083 0.079717 2.74469e-19)
(3.77518 0.0689517 -1.35185e-19)
(3.67403 0.0572203 1.33146e-19)
(3.59018 0.0439782 1.31136e-19)
(3.52558 0.0292426 0)
(3.48128 0.0134713 0)
(3.45716 -0.00255539 -1.25217e-19)
(3.45067 -0.0180481 0)
(3.45853 -0.0319164 0)
(3.47922 -0.043219 2.38965e-19)
(3.51076 -0.0518525 0)
(3.55133 -0.0580811 1.15744e-19)
(3.60174 -0.0625867 -1.13903e-19)
(3.66271 -0.0661042 0)
(3.73461 -0.0695795 1.10245e-19)
(3.82278 -0.072957 0)
(3.93009 -0.0712102 0)
(4.03793 -0.05602 -1.04888e-19)
(4.10824 -0.0267579 2.0623e-19)
(4.114 0.00453481 -1.01323e-19)
(4.05892 0.0209355 0)
(3.97985 0.0107079 0)
(3.93045 -0.0227917 9.59863e-20)
(3.95601 -0.0634044 0)
(4.05971 -0.107336 9.26064e-20)
(4.21424 -0.170984 0)
(4.45266 -0.250076 0)
(4.86203 -0.310645 0)
(5.3676 -0.354562 8.63002e-20)
(5.82215 -0.356729 0)
(6.36724 -0.245385 -8.29079e-20)
(6.80806 -0.147614 0)
(6.93826 -0.0847914 0)
(7.08543 0.106868 1.54502e-19)
(6.96681 0.170128 -1.50543e-19)
(6.84799 0.143483 0)
(6.68987 0.539438 0)
(6.15643 1.0177 0)
(5.60284 1.0183 4.00183e-19)
(4.0436 0.576561 0)
(2.36956 0.191718 -2.48403e-19)
(0.0517527 1.65285 -3.6848e-23)
(0.207139 1.33898 -2.73232e-19)
(0.164532 0.959995 0)
(0.213282 0.426272 2.69215e-19)
(0.456508 -0.473496 0)
(0.758689 -1.28148 0)
(1.0318 -1.75849 -7.37938e-23)
(1.24875 -1.90357 -1.30457e-19)
(1.40357 -1.81557 -1.29344e-19)
(1.50931 -1.6042 -1.28638e-19)
(1.57786 -1.35274 0)
(1.61959 -1.11067 0)
(1.64582 -0.901252 1.25746e-19)
(1.66496 -0.732653 2.49762e-19)
(1.68318 -0.605157 -2.48021e-19)
(1.70482 -0.514297 0)
(1.73238 -0.454144 -2.44569e-19)
(1.76734 -0.418648 1.21538e-19)
(1.81045 -0.401949 0)
(1.86214 -0.398386 -2.39478e-19)
(1.92245 -0.402786 -1.18961e-19)
(1.991 -0.410657 2.36116e-19)
(2.06702 -0.41831 1.1727e-19)
(2.14957 -0.422852 0)
(2.23724 -0.422368 -2.31125e-19)
(2.32859 -0.415078 -2.29483e-19)
(2.42211 -0.400259 0)
(2.51575 -0.377844 -2.26244e-19)
(2.60782 -0.346877 0)
(2.69627 -0.308867 -2.2308e-19)
(2.77856 -0.264425 -1.10788e-19)
(2.8536 -0.213122 0)
(2.91861 -0.160929 0)
(2.97379 -0.103646 0)
(3.01813 -0.0459584 0)
(3.0503 0.00654357 0)
(3.07933 0.0717372 0)
(3.09314 0.121972 -2.11302e-19)
(3.1007 0.183902 3.14809e-19)
(3.11832 0.2697 0)
(3.13616 0.330165 0)
(3.18419 0.477098 0)
(3.27526 0.615353 -1.17366e-22)
(3.40753 0.781169 -2.02404e-19)
(3.59391 1.06579 -4.01033e-19)
(3.86654 1.17389 3.97052e-19)
(4.10077 1.13831 1.96964e-19)
(4.21629 1.13034 -1.94846e-19)
(4.27687 1.13082 -3.00468e-22)
(4.33544 1.07259 -1.9167e-19)
(4.34604 0.922855 0)
(4.26306 0.692876 -1.88481e-19)
(4.04102 0.433025 -5.29564e-22)
(3.6885 0.161371 0)
(3.32299 -0.191346 0)
(3.01008 -0.575271 1.83656e-19)
(2.54539 -0.995427 0)
(2.16768 -1.55193 0)
(1.86093 -1.22072 -1.80348e-19)
(1.67333 -0.147358 -3.57509e-19)
(1.90299 -0.0971889 1.76826e-19)
(1.99514 -0.315291 0)
(1.01446 0.672359 -1.7351e-19)
(-0.419208 1.86536 0)
(-1.6161 2.44788 -1.68755e-19)
(-2.53336 2.64635 -1.66647e-19)
(-3.26908 2.6521 3.27184e-19)
(-3.90717 2.5647 1.60111e-19)
(-4.51321 2.46551 0)
(-5.11689 2.40701 -3.10239e-19)
(-5.73687 2.40462 0)
(-6.36883 2.44353 -4.46864e-19)
(-7.00928 2.48939 -2.90299e-19)
(-7.63991 2.50001 -2.82942e-19)
(-8.25224 2.44076 2.75313e-19)
(-8.83779 2.29831 -4.02351e-19)
(-9.39272 2.07919 0)
(-9.89942 1.80478 0)
(-10.3355 1.50649 2.44496e-19)
(-10.6918 1.22209 3.57171e-19)
(-10.9854 0.979106 0)
(-11.239 0.779806 -1.13149e-19)
(-11.4599 0.607436 0)
(-11.642 0.446221 3.21197e-19)
(-11.7775 0.288918 1.54746e-21)
(-11.86 0.132839 -1.53869e-21)
(-11.8852 -0.0221472 -2.01326e-19)
(-11.8503 -0.173696 0)
(-11.7553 -0.318502 1.96158e-19)
(-11.6028 -0.453962 1.36943e-21)
(-11.3961 -0.57954 0)
(-11.139 -0.695437 0)
(-10.8348 -0.802736 0)
(-10.4861 -0.902457 -1.93857e-19)
(-10.0951 -0.995273 0)
(-9.66335 -1.08108 0)
(-9.19315 -1.15844 0)
(-8.68774 -1.22517 0)
(-8.15201 -1.2786 0)
(-7.59252 -1.31655 -1.987e-19)
(-7.017 -1.33827 0)
(-6.43292 -1.34493 -2.01137e-19)
(-5.84613 -1.33924 -2.01798e-19)
(-5.26072 -1.32425 2.02241e-19)
(-4.67959 -1.30254 0)
(-4.10458 -1.27623 2.0243e-19)
(-3.53648 -1.24696 0)
(-2.97602 -1.21475 2.01705e-19)
(-2.42432 -1.17898 -2.01021e-19)
(-1.88309 -1.13887 -5.99975e-19)
(-1.35477 -1.09305 0)
(-0.842583 -1.04062 -5.93077e-19)
(-0.350141 -0.982092 -1.96076e-19)
(0.117688 -0.920959 0)
(0.558215 -0.855606 -3.85402e-19)
(0.971742 -0.786349 -3.81354e-19)
(1.3563 -0.715536 5.65775e-19)
(1.70994 -0.644951 0)
(2.0309 -0.576358 1.84188e-19)
(2.31796 -0.511498 1.81887e-19)
(2.57095 -0.452021 5.38586e-19)
(2.79122 -0.399502 0)
(2.98208 -0.355445 0)
(3.14868 -0.321179 0)
(3.29758 -0.297333 1.70071e-19)
(3.436 -0.282808 0)
(3.571 -0.274261 0)
(3.70819 -0.267162 -1.6321e-19)
(3.85032 -0.256977 -1.6094e-19)
(3.99679 -0.23931 0)
(4.14424 -0.211084 0)
(4.2885 -0.171567 -3.08521e-19)
(4.42847 -0.1194 0)
(4.56475 -0.0522971 2.99788e-19)
(4.6896 0.0254539 2.95394e-19)
(4.78397 0.10075 0)
(4.82628 0.15802 0)
(4.80443 0.187867 -2.82522e-19)
(4.72448 0.191849 -1.72967e-23)
(4.60736 0.178266 -1.2017e-23)
(4.47764 0.155583 0)
(4.35407 0.128736 -5.32141e-19)
(4.24689 0.0997129 0)
(4.15993 0.0699432 0)
(4.09371 0.0414173 0)
(4.04732 0.0161289 2.50278e-19)
(4.01939 -0.00523542 0)
(4.00764 -0.0230399 -4.8523e-19)
(4.00821 -0.0382647 -2.38835e-19)
(4.01642 -0.0517661 0)
(4.02824 -0.0639902 -2.31378e-19)
(4.04211 -0.0759601 0)
(4.05862 -0.0890713 0)
(4.08238 -0.104544 -6.61222e-19)
(4.12506 -0.121767 4.3361e-19)
(4.19508 -0.130936 0)
(4.27761 -0.110952 4.19431e-19)
(4.32956 -0.0507718 -2.06183e-19)
(4.3067 0.024749 0)
(4.21218 0.0667036 0)
(4.11235 0.0490719 0)
(4.07757 -0.0133195 -5.75829e-19)
(4.12444 -0.0946059 0)
(4.24086 -0.185035 -1.85188e-19)
(4.43198 -0.28834 0)
(4.70976 -0.410455 0)
(5.0907 -0.53685 0)
(5.59724 -0.622222 0)
(6.14701 -0.609934 0)
(6.65242 -0.455988 0)
(7.08214 -0.301341 -3.23725e-19)
(7.26852 -0.183959 0)
(7.28653 0.121157 -1.54472e-19)
(7.23829 0.218705 4.51266e-19)
(7.08569 0.149482 0)
(6.88704 0.637583 0)
(6.83244 1.0773 -2.76366e-19)
(6.72998 0.998095 -2.66278e-19)
(6.26943 1.03976 2.56542e-19)
(5.35315 0.971986 2.47696e-19)
(0.167544 1.03538 4.13436e-19)
(0.312384 1.17593 4.10157e-19)
(0.364663 0.9209 2.71522e-19)
(0.707929 -0.0217915 1.3484e-19)
(1.12901 -1.11239 0)
(1.42955 -1.85582 -2.64172e-19)
(1.56337 -2.14234 1.31022e-19)
(1.56491 -2.07382 0)
(1.49283 -1.81841 1.2927e-19)
(1.39322 -1.50849 0)
(1.29173 -1.2173 -2.54878e-19)
(1.20176 -0.97681 0)
(1.12844 -0.795336 -1.25951e-19)
(1.0711 -0.667678 -2.50201e-19)
(1.02739 -0.58444 2.4849e-19)
(0.995063 -0.533605 0)
(0.971957 -0.507691 2.45086e-19)
(0.957281 -0.49912 0)
(0.951707 -0.50296 0)
(0.957346 -0.515015 2.40048e-19)
(0.975451 -0.531954 0)
(1.00685 -0.550578 -1.4172e-22)
(1.05163 -0.568709 0)
(1.10938 -0.583245 0)
(1.17901 -0.592125 9.96396e-23)
(1.25939 -0.592826 2.30069e-19)
(1.3487 -0.584251 2.28367e-19)
(1.44571 -0.565286 2.26809e-19)
(1.54881 -0.535422 0)
(1.65579 -0.494202 4.47202e-19)
(1.76411 -0.442498 0)
(1.87241 -0.38203 2.20517e-19)
(1.9777 -0.315721 0)
(2.0793 -0.243732 0)
(2.1765 -0.170056 -2.16074e-19)
(2.26594 -0.0967352 0)
(2.3501 -0.0189889 2.13173e-19)
(2.42607 0.051276 -6.98542e-23)
(2.49558 0.123226 -4.20435e-19)
(2.56971 0.202385 4.17549e-19)
(2.63901 0.262614 0)
(2.7171 0.346743 0)
(2.83229 0.433007 2.04277e-19)
(2.96853 0.509063 0)
(3.14427 0.640066 2.00828e-19)
(3.39632 0.753785 -1.9902e-19)
(3.68696 0.811529 -1.97211e-19)
(3.95507 0.847235 0)
(4.19411 0.858158 1.93579e-19)
(4.40532 0.810838 1.91696e-19)
(4.56263 0.691625 -3.81061e-19)
(4.62824 0.490021 1.88288e-19)
(4.60773 0.303697 1.86906e-19)
(4.47125 0.15316 0)
(4.28031 -0.0892204 0)
(3.94084 -0.212984 -1.83377e-19)
(3.45139 -0.377234 0)
(2.89629 -0.730326 0)
(2.13475 -0.551165 3.60212e-19)
(1.79955 -0.137542 3.57453e-19)
(1.72909 0.115247 0)
(0.914952 1.04034 0)
(-0.42662 2.39556 0)
(-1.52897 3.21922 0)
(-2.28176 3.47052 3.36989e-19)
(-2.83819 3.46633 -3.30657e-19)
(-3.29138 3.34899 -3.26868e-19)
(-3.72612 3.21687 -6.41524e-19)
(-4.18517 3.1234 0)
(-4.68308 3.08973 1.81064e-21)
(-5.2301 3.11193 0)
(-5.81429 3.16647 2.97313e-19)
(-6.42803 3.21325 2.0535e-21)
(-7.05219 3.21247 2.82939e-19)
(-7.67846 3.13281 -2.75306e-19)
(-8.29503 2.95956 2.44594e-21)
(-8.88105 2.68779 0)
(-9.39273 2.32888 -2.49407e-19)
(-9.79286 1.9255 -2.44564e-19)
(-10.0917 1.54891 -4.7296e-19)
(-10.3462 1.25066 0)
(-10.6013 1.02319 2.22802e-19)
(-10.8564 0.824666 0)
(-11.0894 0.625636 -4.25429e-19)
(-11.281 0.418056 2.09023e-19)
(-11.4165 0.202712 -2.04928e-19)
(-11.4842 -0.0166743 2.01455e-19)
(-11.4781 -0.233593 3.92985e-19)
(-11.4001 -0.440188 -1.96227e-19)
(-11.2554 -0.633581 1.94531e-19)
(-11.0489 -0.81235 0)
(-10.7862 -0.976327 -3.82096e-19)