/*--------------------------------*- C++ -*----------------------------------*\
  =========                 |
  \\      /  F ield         | OpenFOAM: The Open Source CFD Toolbox
   \\    /   O peration     | Website:  https://openfoam.org
    \\  /    A nd           | Version:  9
     \\/     M anipulation  |
\*---------------------------------------------------------------------------*/
FoamFile
{
    format      ascii;
    class       volVectorField;
    location    "0.075";
    object      UMean;
}
// * * * * * * * * * * * * * * * * * * * * * * * * * * * * * * * * * * * * * //

dimensions      [0 1 -1 0 0 0 0];

internalField   nonuniform List<vector> 
12225
(
(9.83658 0.0456105 0)
(9.54215 0.061641 0)
(9.24245 0.0595659 0)
(8.93873 0.0580423 0)
(8.64016 0.0573836 0)
(8.35178 0.056682 0)
(8.07395 0.0556472 0)
(7.8062 0.0547886 0)
(7.54654 0.0536222 0)
(7.29542 0.0532353 0)
(7.04903 0.0521619 0)
(6.81017 0.0533217 0)
(6.56852 0.0524451 0)
(6.33486 0.0574403 0)
(6.08001 0.0562185 0)
(5.84165 0.0705801 0)
(5.53977 0.0668316 0)
(5.28136 0.103029 0)
(10.0298 0.0513793 0)
(10.0891 0.0743912 0)
(10.1276 0.0734732 0)
(10.141 0.0745805 0)
(10.1372 0.0778585 0)
(10.1231 0.0807991 0)
(10.1008 0.0832124 0)
(10.0717 0.0853306 0)
(10.0349 0.0877709 0)
(9.99222 0.0901563 0)
(9.94166 0.0935434 0)
(9.88612 0.0968347 0)
(9.8212 0.102802 0)
(9.75157 0.10842 0)
(9.66843 0.12046 0)
(9.57952 0.130974 0)
(9.46998 0.154894 0)
(9.35036 0.172412 0)
(10.0087 0.0316201 0)
(10.0416 0.0542685 0)
(10.0707 0.0565278 0)
(10.0884 0.0586669 0)
(10.0989 0.0632976 0)
(10.107 0.0680855 0)
(10.1145 0.0719879 0)
(10.1211 0.0757425 0)
(10.1264 0.0793437 0)
(10.1295 0.0837794 0)
(10.1306 0.0882425 0)
(10.129 0.0946103 0)
(10.1256 0.101334 0)
(10.119 0.112031 0)
(10.1122 0.124274 0)
(10.1018 0.143198 0)
(10.0962 0.166028 0)
(10.0884 0.19298 0)
(9.99467 0.0283411 0)
(10.0176 0.0573597 0)
(10.0404 0.0631027 0)
(10.055 0.0649314 0)
(10.063 0.0688293 0)
(10.0689 0.073253 0)
(10.0746 0.0770365 0)
(10.0801 0.0803087 0)
(10.0847 0.0837984 0)
(10.0879 0.0877412 0)
(10.0899 0.0927114 0)
(10.0906 0.0986954 0)
(10.0908 0.106616 0)
(10.0906 0.116647 0)
(10.0914 0.130023 0)
(10.0945 0.147166 0)
(10.1023 0.16764 0)
(10.118 0.188911 0)
(10.0078 0.0222912 0)
(10.024 0.0469021 0)
(10.0423 0.0545489 0)
(10.0558 0.0569647 0)
(10.0638 0.0606569 0)
(10.0696 0.0654324 0)
(10.0748 0.0699593 0)
(10.0795 0.0742206 0)
(10.083 0.078561 0)
(10.0851 0.0834567 0)
(10.0859 0.0890479 0)
(10.0857 0.0957415 0)
(10.085 0.103898 0)
(10.0846 0.114055 0)
(10.0849 0.126729 0)
(10.0881 0.141987 0)
(10.0946 0.158778 0)
(10.1072 0.174279 0)
(9.9805 0.0185539 0)
(9.99501 0.0445207 0)
(10.0122 0.0548274 0)
(10.0261 0.0584284 0)
(10.035 0.0619362 0)
(10.0409 0.0665202 0)
(10.0458 0.0712662 0)
(10.0504 0.075795 0)
(10.0545 0.0803999 0)
(10.0578 0.0854571 0)
(10.0604 0.0912387 0)
(10.0624 0.0980504 0)
(10.0642 0.106161 0)
(10.0664 0.116008 0)
(10.0695 0.127676 0)
(10.0747 0.141034 0)
(10.0825 0.154705 0)
(10.0941 0.167006 0)
(10.0036 0.0141512 0)
(10.0121 0.0376054 0)
(10.0245 0.0491822 0)
(10.036 0.0540697 0)
(10.0439 0.0577791 0)
(10.0488 0.0623209 0)
(10.0527 0.0672782 0)
(10.0562 0.0721242 0)
(10.0593 0.0769619 0)
(10.0617 0.0821951 0)
(10.0635 0.0881624 0)
(10.065 0.0951445 0)
(10.0666 0.103312 0)
(10.0687 0.112901 0)
(10.0718 0.123761 0)
(10.0769 0.135667 0)
(10.0839 0.147414 0)
(10.0938 0.158116 0)
(10.0113 0.0148738 0)
(10.018 0.0346213 0)
(10.0287 0.0470674 0)
(10.0394 0.0532185 0)
(10.0475 0.057276 0)
(10.053 0.061783 0)
(10.0571 0.0669725 0)
(10.0605 0.0723773 0)
(10.0634 0.0777895 0)
(10.0657 0.0834078 0)
(10.0674 0.0895041 0)
(10.0689 0.0963842 0)
(10.0705 0.104198 0)
(10.0728 0.113107 0)
(10.0759 0.122908 0)
(10.0805 0.133376 0)
(10.0865 0.143573 0)
(10.0944 0.152947 0)
(9.99952 0.0114063 0)
(10.0057 0.0296289 0)
(10.015 0.0420779 0)
(10.0253 0.0492057 0)
(10.0337 0.0538424 0)
(10.0398 0.0584101 0)
(10.0443 0.0635817 0)
(10.0484 0.0691033 0)
(10.0522 0.07475 0)
(10.0559 0.0806136 0)
(10.0592 0.0869061 0)
(10.0622 0.0938616 0)
(10.0651 0.101572 0)
(10.0685 0.110116 0)
(10.0723 0.119258 0)
(10.0773 0.128806 0)
(10.0832 0.138009 0)
(10.0906 0.146514 0)
(9.99972 0.0105706 0)
(10.0043 0.0271538 0)
(10.0118 0.0392498 0)
(10.0205 0.0471254 0)
(10.0281 0.0525831 0)
(10.0338 0.0575261 0)
(10.0381 0.0628093 0)
(10.0418 0.0684196 0)
(10.0451 0.0741704 0)
(10.0483 0.0800937 0)
(10.0514 0.0863443 0)
(10.0544 0.0931381 0)
(10.0574 0.100537 0)
(10.061 0.10858 0)
(10.0652 0.117007 0)
(10.0704 0.125661 0)
(10.0762 0.133911 0)
(10.0832 0.141638 0)
(9.99588 0.00939687 0)
(9.99975 0.0240312 0)
(10.0061 0.0352159 0)
(10.0138 0.0432641 0)
(10.021 0.0492304 0)
(10.0269 0.0543916 0)
(10.0317 0.0596629 0)
(10.0362 0.0653443 0)
(10.0403 0.0713129 0)
(10.0442 0.077475 0)
(10.0477 0.0838568 0)
(10.0512 0.0906132 0)
(10.0546 0.0977717 0)
(10.0585 0.105387 0)
(10.0627 0.113222 0)
(10.0678 0.121198 0)
(10.0732 0.128792 0)
(10.0795 0.136019 0)
(9.98939 0.00832651 0)
(9.992 0.0220905 0)
(9.9969 0.0328756 0)
(10.0042 0.0410328 0)
(10.012 0.0472851 0)
(10.019 0.0526419 0)
(10.0248 0.0579661 0)
(10.0296 0.063654 0)
(10.034 0.0696721 0)
(10.0384 0.0758919 0)
(10.0429 0.0822543 0)
(10.0475 0.0888562 0)
(10.0522 0.0957106 0)
(10.0572 0.102897 0)
(10.0624 0.110215 0)
(10.0679 0.117658 0)
(10.0738 0.124766 0)
(10.0797 0.131676 0)
(10.006 0.00778803 0)
(10.0065 0.0187098 0)
(10.0097 0.0288815 0)
(10.0153 0.0368666 0)
(10.0215 0.043064 0)
(10.0271 0.0486246 0)
(10.0319 0.0543102 0)
(10.0363 0.0602804 0)
(10.0406 0.0663733 0)
(10.045 0.0724902 0)
(10.0495 0.0786523 0)
(10.0541 0.0850248 0)
(10.0588 0.0916661 0)
(10.0636 0.0986318 0)
(10.0687 0.105727 0)
(10.074 0.11291 0)
(10.0795 0.119774 0)
(10.0852 0.126479 0)
(10.011 0.0109952 0)
(10.0136 0.0186712 0)
(10.0173 0.028341 0)
(10.0223 0.0364641 0)
(10.0279 0.0426312 0)
(10.0332 0.0478895 0)
(10.0381 0.0530964 0)
(10.0428 0.058593 0)
(10.0474 0.0643403 0)
(10.0522 0.0702585 0)
(10.0571 0.0762984 0)
(10.0621 0.0825082 0)
(10.0673 0.0888568 0)
(10.0726 0.095404 0)
(10.078 0.101968 0)
(10.0837 0.108638 0)
(10.0894 0.11505 0)
(10.0952 0.121501 0)
(10.0031 0.00391911 0)
(10.0064 0.014292 0)
(10.0102 0.0230729 0)
(10.0149 0.0301583 0)
(10.0204 0.0362144 0)
(10.026 0.0419439 0)
(10.0314 0.0476876 0)
(10.0364 0.0534769 0)
(10.0413 0.0592075 0)
(10.0463 0.0648647 0)
(10.0514 0.0705094 0)
(10.0567 0.0763061 0)
(10.0622 0.082295 0)
(10.0677 0.0885462 0)
(10.0734 0.0948764 0)
(10.0791 0.101336 0)
(10.0849 0.107576 0)
(10.0906 0.113885 0)
(10.024 0.00487418 0)
(10.0257 0.0149166 0)
(10.0286 0.0217426 0)
(10.0331 0.0275433 0)
(10.0387 0.0331011 0)
(10.0446 0.0386028 0)
(10.0507 0.0440526 0)
(10.0568 0.0494279 0)
(10.0629 0.0547463 0)
(10.069 0.0600938 0)
(10.075 0.0655192 0)
(10.0809 0.0710964 0)
(10.0868 0.0767674 0)
(10.0927 0.0825857 0)
(10.0986 0.088391 0)
(10.1047 0.0943307 0)
(10.1106 0.100108 0)
(10.1167 0.106118 0)
(9.99892 0.00389175 0)
(9.99711 0.00968435 0)
(9.99761 0.0156421 0)
(10.0009 0.0214839 0)
(10.0057 0.0267745 0)
(10.0109 0.0316032 0)
(10.0162 0.0362815 0)
(10.0218 0.0410551 0)
(10.0276 0.0459978 0)
(10.0337 0.0511187 0)
(10.04 0.0563426 0)
(10.0465 0.0616748 0)
(10.0529 0.0670304 0)
(10.0594 0.0724938 0)
(10.0657 0.0779231 0)
(10.0721 0.0835058 0)
(10.0782 0.088949 0)
(10.0848 0.0946552 0)
(9.98662 0.0114456 0)
(9.98707 0.0115039 0)
(9.98923 0.0139653 0)
(9.99327 0.0178982 0)
(9.9985 0.0221927 0)
(10.0043 0.0263681 0)
(10.0104 0.0303222 0)
(10.0167 0.0341308 0)
(10.0232 0.0379334 0)
(10.0299 0.0419252 0)
(10.0368 0.0461801 0)
(10.0437 0.050776 0)
(10.0507 0.0556091 0)
(10.0576 0.0607075 0)
(10.0645 0.0658403 0)
(10.0714 0.0711288 0)
(10.0782 0.0762291 0)
(10.085 0.0815202 0)
(10.0009 0.00195873 0)
(10.0056 0.00395954 0)
(10.0111 0.00592423 0)
(10.0168 0.00827542 0)
(10.0226 0.0110657 0)
(10.0286 0.0140822 0)
(10.035 0.0171722 0)
(10.0417 0.0203616 0)
(10.0486 0.0237228 0)
(10.0555 0.027344 0)
(10.0625 0.03121 0)
(10.0695 0.035315 0)
(10.0767 0.0395298 0)
(10.0839 0.0438678 0)
(10.0913 0.0481684 0)
(10.0986 0.0525817 0)
(10.1061 0.0568575 0)
(10.1135 0.0613541 0)
(10.0002 -0.000886327 0)
(10.0027 -0.000441805 0)
(10.0064 0.000602738 0)
(10.0118 0.00217169 0)
(10.0182 0.00422883 0)
(10.025 0.00648372 0)
(10.0319 0.00870004 0)
(10.0389 0.0109301 0)
(10.046 0.0133433 0)
(10.0533 0.0160578 0)
(10.0609 0.0190362 0)
(10.0687 0.0222443 0)
(10.0766 0.0255719 0)
(10.0847 0.0290455 0)
(10.0929 0.0325404 0)
(10.1011 0.0361743 0)
(10.1093 0.0397143 0)
(10.1175 0.0434439 0)
(10.0138 -0.00257073 0)
(10.0166 -0.00417839 0)
(10.0209 -0.00591133 0)
(10.0268 -0.00635604 0)
(10.0338 -0.00543798 0)
(10.0413 -0.00373567 0)
(10.0489 -0.00187435 0)
(10.0563 -0.000110435 0)
(10.0638 0.00162491 0)
(10.0712 0.0035177 0)
(10.0788 0.00564167 0)
(10.0865 0.00801681 0)
(10.0943 0.0105551 0)
(10.1022 0.0132518 0)
(10.1102 0.0160011 0)
(10.1183 0.0189061 0)
(10.1264 0.021795 0)
(10.1346 0.0249116 0)
(10.0015 -0.00559898 0)
(10.0028 -0.00900626 0)
(10.0063 -0.0106793 0)
(10.0119 -0.0111727 0)
(10.0189 -0.0109342 0)
(10.0265 -0.0101595 0)
(10.0344 -0.00898061 0)
(10.0426 -0.00752256 0)
(10.0509 -0.00589937 0)
(10.0595 -0.00415353 0)
(10.0683 -0.00231098 0)
(10.0771 -0.000340251 0)
(10.0859 0.00172146 0)
(10.0948 0.00390715 0)
(10.1036 0.00613251 0)
(10.1125 0.00848598 0)
(10.1212 0.0108092 0)
(10.13 0.013312 0)
(9.99099 -0.00116709 0)
(9.99738 -0.0102962 0)
(10.0043 -0.0153867 0)
(10.0115 -0.0175305 0)
(10.0192 -0.0180915 0)
(10.0268 -0.018197 0)
(10.0342 -0.0182542 0)
(10.0417 -0.018166 0)
(10.0494 -0.0177538 0)
(10.0574 -0.0169415 0)
(10.0656 -0.0158032 0)
(10.0739 -0.0144295 0)
(10.0823 -0.0129295 0)
(10.0909 -0.0112972 0)
(10.0994 -0.00958372 0)
(10.108 -0.0077042 0)
(10.1165 -0.00577528 0)
(10.125 -0.00364922 0)
(10.0032 -0.0139912 0)
(10.01 -0.0163732 0)
(10.0187 -0.0203159 0)
(10.0281 -0.0222712 0)
(10.0374 -0.0224325 0)
(10.046 -0.022053 0)
(10.0541 -0.0216851 0)
(10.062 -0.0212861 0)
(10.07 -0.0207356 0)
(10.0782 -0.0200064 0)
(10.0866 -0.0191552 0)
(10.095 -0.0181899 0)
(10.1035 -0.0171108 0)
(10.1121 -0.0158657 0)
(10.1207 -0.0144968 0)
(10.1293 -0.0129675 0)
(10.1379 -0.0114156 0)
(10.1466 -0.00975621 0)
(9.98799 -0.0119747 0)
(9.99005 -0.0223871 0)
(9.99788 -0.0285415 0)
(10.0086 -0.0311297 0)
(10.0187 -0.0318839 0)
(10.0272 -0.0322231 0)
(10.0351 -0.0325743 0)
(10.0431 -0.0328302 0)
(10.0514 -0.0328607 0)
(10.0598 -0.032653 0)
(10.0683 -0.0322595 0)
(10.0769 -0.0317084 0)
(10.0856 -0.0310323 0)
(10.0943 -0.0302143 0)
(10.1031 -0.0292879 0)
(10.112 -0.028223 0)
(10.121 -0.0271116 0)
(10.13 -0.0258784 0)
(10.0096 -0.0103537 0)
(10.0191 -0.0252179 0)
(10.0319 -0.0294769 0)
(10.0445 -0.0298438 0)
(10.0553 -0.0299165 0)
(10.0648 -0.0304679 0)
(10.074 -0.0311057 0)
(10.0835 -0.0314909 0)
(10.093 -0.0316135 0)
(10.1023 -0.0316052 0)
(10.1113 -0.0315488 0)
(10.1201 -0.0314239 0)
(10.1288 -0.0311876 0)
(10.1374 -0.030778 0)
(10.146 -0.0302263 0)
(10.1546 -0.0295449 0)
(10.1633 -0.0288428 0)
(10.1721 -0.0281046 0)
(9.99318 -0.0218058 0)
(10.0065 -0.0380037 0)
(10.021 -0.0430172 0)
(10.0333 -0.0435322 0)
(10.0429 -0.0441732 0)
(10.0514 -0.0453427 0)
(10.0601 -0.0461618 0)
(10.0693 -0.0463538 0)
(10.0786 -0.0461628 0)
(10.0877 -0.0458502 0)
(10.0966 -0.0455301 0)
(10.1052 -0.0452029 0)
(10.1139 -0.044848 0)
(10.1228 -0.0444503 0)
(10.1318 -0.0440459 0)
(10.141 -0.0436356 0)
(10.1503 -0.0432714 0)
(10.1597 -0.0428948 0)
(10.0065 -0.0188015 0)
(10.0242 -0.0313795 0)
(10.043 -0.0346548 0)
(10.057 -0.0351286 0)
(10.0667 -0.0363968 0)
(10.0752 -0.0381201 0)
(10.0839 -0.0394258 0)
(10.0931 -0.0401874 0)
(10.1028 -0.0406388 0)
(10.1128 -0.0409944 0)
(10.1229 -0.0413464 0)
(10.1331 -0.0417446 0)
(10.1434 -0.0421394 0)
(10.1535 -0.0424989 0)
(10.1637 -0.0427419 0)
(10.1735 -0.0429039 0)
(10.1833 -0.0429746 0)
(10.1927 -0.0430485 0)
(10.0132 -0.0392345 0)
(10.0486 -0.0561672 0)
(10.0795 -0.0543594 0)
(10.1001 -0.0534715 0)
(10.1134 -0.0546176 0)
(10.123 -0.0557163 0)
(10.1304 -0.056236 0)
(10.1359 -0.056478 0)
(10.1395 -0.056678 0)
(10.1414 -0.0568973 0)
(10.1418 -0.0570773 0)
(10.1411 -0.0572071 0)
(10.1392 -0.057222 0)
(10.1365 -0.057164 0)
(10.1326 -0.0569868 0)
(10.1285 -0.0568203 0)
(10.1231 -0.0566336 0)
(10.1182 -0.0566087 0)
(9.91231 -0.0292597 0)
(9.7498 -0.0459437 0)
(9.58341 -0.0449114 0)
(9.41404 -0.0439017 0)
(9.24797 -0.0440019 0)
(9.08868 -0.0439632 0)
(8.93689 -0.0435542 0)
(8.79228 -0.0429578 0)
(8.65425 -0.0423173 0)
(8.52247 -0.0417085 0)
(8.3964 -0.0411394 0)
(8.2761 -0.040603 0)
(8.16102 -0.0400351 0)
(8.05171 -0.0394243 0)
(7.9471 -0.0387316 0)
(7.84854 -0.0380421 0)
(7.75352 -0.0373506 0)
(7.66515 -0.036812 0)
(-0.226123 0.48502 -1.12638e-21)
(-0.535497 0.220997 1.14688e-21)
(-0.664384 0.000489825 0)
(-0.619661 -0.208905 0)
(-0.383937 -0.386028 0)
(-0.0195067 -0.505042 -1.09067e-21)
(0.429079 -0.560012 0)
(0.911025 -0.555665 0)
(1.3835 -0.513868 0)
(1.8153 -0.448561 0)
(2.19056 -0.372949 1.20201e-21)
(2.50477 -0.30094 0)
(2.75905 -0.235304 0)
(2.95446 -0.168789 0)
(3.0952 -0.100693 0)
(3.18269 -0.0306424 1.5799e-21)
(3.21362 0.00298965 0)
(3.22164 0.000153711 0)
(3.20742 0.0167733 0)
(3.17185 0.0448985 0)
(3.10083 0.0756695 0)
(2.98503 0.102917 0)
(2.81629 0.138447 0)
(2.60989 0.195054 1.53207e-21)
(2.34687 0.263822 -1.4936e-21)
(2.05271 0.267128 1.4621e-21)
(1.75165 0.232358 1.44165e-21)
(1.43564 0.159884 0)
(1.15779 0.0857371 0)
(0.88847 0.124211 -1.43829e-21)
(0.608561 0.173745 -1.45216e-21)
(0.320006 0.197296 0)
(0.0299 0.194014 0)
(-0.236323 0.166047 -1.52986e-21)
(-0.459585 0.122489 0)
(-0.63518 0.0794805 0)
(-0.760535 0.0431371 1.58456e-21)
(-0.849651 0.0232306 0)
(-0.934453 0.0215775 1.63405e-21)
(-1.05162 0.0469381 3.3521e-21)
(-1.22821 0.105065 0)
(-1.46866 0.154032 0)
(-1.75048 0.178103 0)
(-2.04153 0.130176 0)
(-2.25201 0.0597442 0)
(-2.4129 0.033832 3.76742e-21)
(-2.54536 -0.0548167 3.86302e-21)
(-2.68113 -0.0710712 3.97045e-21)
(-2.80789 0.0697205 0)
(-3.01864 0.138431 -4.08972e-21)
(-3.181 0.117186 0)
(-3.3212 0.109492 4.20304e-21)
(-3.44976 0.104668 4.25352e-21)
(-3.56889 0.0944568 0)
(-3.66893 0.0739729 0)
(-3.76652 0.0213853 0)
(-3.85713 0.0427676 4.37618e-21)
(-3.99951 0.0858863 0)
(-4.12247 0.0693963 0)
(-4.22242 0.0438362 0)
(-4.26137 0.0137395 0)
(-4.28463 -0.0711751 0)
(-4.28677 -0.0606292 0)
(-4.38582 0.0326071 0)
(-4.51546 0.0496641 0)
(-4.63705 0.0595904 -4.6962e-21)
(-4.76643 0.053128 0)
(-4.8813 0.0453234 0)
(-4.9965 0.0388801 4.92166e-21)
(-5.10259 0.0339384 4.9911e-21)
(-5.19905 0.028054 0)
(-5.28005 0.0227515 -5.09738e-21)
(-5.34051 0.0141416 5.13306e-21)
(-5.37948 0.00648639 0)
(-5.41296 0.00563307 -5.17869e-21)
(-5.44858 0.00989385 0)
(-5.48933 0.0147392 0)
(-5.53945 0.0204967 5.15119e-21)
(-5.60529 0.0290199 0)
(-5.6939 0.0399487 -4.99209e-21)
(-5.80545 0.0481266 0)
(-5.93523 0.0436229 4.72978e-21)
(-6.04834 0.0308166 4.57559e-21)
(-6.16309 0.0123242 4.41172e-21)
(-6.22854 -0.0262384 8.47524e-21)
(-6.31177 -0.0482216 -8.12998e-21)
(-6.39503 -0.0452094 0)
(-6.57456 0.0364793 0)
(-6.86481 0.181342 0)
(-7.20997 0.191644 -6.91851e-21)
(-7.43117 0.132956 -6.84618e-21)
(-7.56599 0.0840097 6.80187e-21)
(-7.6214 0.0388455 0)
(-7.6082 0.00188449 -6.58958e-21)
(-7.53612 -0.0296512 -6.37649e-21)
(-7.41163 -0.0559012 -6.08361e-21)
(-7.24126 -0.0783741 0)
(-7.02939 -0.0975292 0)
(-6.78081 -0.114091 0)
(-6.49871 -0.128401 -4.16721e-21)
(-6.18669 -0.140946 0)
(-5.84738 -0.151599 0)
(-5.4837 -0.160538 2.1217e-21)
(-5.09877 -0.16771 0)
(-4.69619 -0.173162 0)
(-4.27927 -0.176897 -1.53879e-22)
(-3.85146 -0.178947 0)
(-3.41655 -0.17932 0)
(-2.97846 -0.178031 2.30542e-21)
(-2.54112 -0.175046 2.93616e-21)
(-2.10834 -0.170423 0)
(-1.68396 -0.164309 -4.01381e-21)
(-1.27174 -0.15692 0)
(-0.874069 -0.148812 4.8208e-21)
(-0.49273 -0.140928 0)
(-0.128621 -0.132757 5.3695e-21)
(0.21883 -0.124816 5.55962e-21)
(0.549877 -0.117224 0)
(0.864993 -0.10997 0)
(1.16468 -0.102957 0)
(1.44939 -0.0961412 0)
(1.71942 -0.089453 0)
(1.9748 -0.0830319 0)
(2.21526 -0.0769468 0)
(2.44146 -0.0710727 5.66121e-21)
(2.65334 -0.0651146 -5.54925e-21)
(2.85132 -0.0593449 0)
(3.03557 -0.0538169 0)
(3.2064 -0.048549 0)
(3.36422 -0.0435727 0)
(3.50954 -0.0389145 -9.64553e-21)
(3.643 -0.0346313 0)
(3.76547 -0.03078 9.0122e-21)
(3.87794 -0.027326 -8.7014e-21)
(3.9813 -0.0241525 0)
(4.07616 -0.0211335 0)
(4.16289 -0.0181927 0)
(4.2417 -0.0152889 7.56107e-21)
(4.31266 -0.0123943 7.31113e-21)
(4.37572 -0.00948674 0)
(4.43084 -0.00654484 6.86181e-21)
(4.47785 -0.00357012 6.66363e-21)
(4.5166 -0.000573726 -6.48345e-21)
(4.54694 0.00243855 0)
(4.5686 0.00546669 0)
(4.58135 0.00852238 -6.0498e-21)
(4.58472 0.0116388 0)
(4.57826 0.0148177 0)
(4.56147 0.01804 0)
(4.53382 0.0212865 0)
(4.49474 0.0245366 5.65358e-21)
(4.44354 0.0277492 5.61676e-21)
(4.37954 0.0309065 0)
(4.30184 0.034062 5.57687e-21)
(4.20932 0.0371247 0)
(4.10082 0.0396674 0)
(3.97582 0.0410807 5.5605e-21)
(3.8349 0.0406231 0)
(3.68141 0.0368986 5.52952e-21)
(3.52397 0.0299033 0)
(3.37422 0.0221221 0)
(3.24247 0.0182668 5.43739e-21)
(3.13385 0.0196645 0)
(3.03697 0.0294146 5.38471e-21)
(2.93269 0.0372901 0)
(2.819 0.0378529 0)
(2.69706 0.03412 0)
(2.57089 0.0266957 -5.22293e-21)
(2.44946 0.0201357 0)
(2.33852 0.0144469 5.12462e-21)
(2.23842 0.0120084 0)
(2.14475 0.0154605 0)
(2.04647 0.0201922 0)
(1.94267 0.0239907 0)
(1.82158 0.0281121 0)
(1.68242 0.0204999 0)
(1.57958 0.0144305 0)
(1.45759 0.0116508 -9.77549e-21)
(1.43045 0.0411561 0)
(1.16677 0.0115513 0)
(-0.00098111 0.970467 3.46891e-21)
(0.0564778 0.630877 -3.51235e-21)
(0.169179 0.135058 0)
(0.428003 -0.371229 2.44387e-21)
(0.775086 -0.87775 0)
(1.1995 -1.24518 1.08604e-21)
(1.63209 -1.42588 -2.47494e-21)
(2.03814 -1.45329 -2.53072e-21)
(2.39849 -1.36956 0)
(2.70572 -1.21538 -2.76367e-21)
(2.95577 -1.02942 -1.19926e-21)
(3.14965 -0.837104 0)
(3.29252 -0.655057 0)
(3.39029 -0.492445 0)
(3.45272 -0.34848 0)
(3.49082 -0.208587 -1.57728e-21)
(3.50752 -0.0868809 0)
(3.49331 0.00100522 3.59566e-21)
(3.45261 0.0636253 0)
(3.39037 0.125358 0)
(3.28605 0.245068 -3.53944e-21)
(3.14497 0.390959 0)
(2.96958 0.510419 3.41878e-21)
(2.77849 0.611774 -1.52665e-21)
(2.57951 0.682744 1.48772e-21)
(2.35261 0.724514 -1.45593e-21)
(2.08569 0.786769 -1.43528e-21)
(1.76395 0.829907 0)
(1.39496 0.823768 0)
(0.983984 0.785398 1.43323e-21)
(0.590467 0.744095 -1.69488e-21)
(0.244334 0.707156 0)
(-0.0727913 0.667677 0)
(-0.335952 0.590215 1.52655e-21)
(-0.565057 0.477068 0)
(-0.760791 0.353112 0)
(-0.922632 0.229915 -1.58025e-21)
(-1.07828 0.170579 0)
(-1.2562 0.231339 1.97841e-21)
(-1.4658 0.369808 -3.3427e-21)
(-1.68897 0.502108 0)
(-1.9185 0.597945 0)
(-2.14296 0.617417 -7.68967e-21)
(-2.39114 0.544771 -7.76848e-21)
(-2.66163 0.456057 -7.91099e-21)
(-2.89871 0.376405 4.3142e-21)
(-3.16584 0.404207 -3.8574e-21)
(-3.44991 0.419202 -1.24659e-20)
(-3.61673 0.380487 8.6914e-21)
(-3.77036 0.330765 4.0823e-21)
(-3.87199 0.26649 0)
(-3.96009 0.228701 -4.19577e-21)
(-4.01374 0.193823 4.90167e-21)
(-4.0637 0.167362 0)
(-4.10712 0.164581 0)
(-4.2005 0.207448 0)
(-4.28572 0.238162 -4.37143e-21)
(-4.36918 0.22767 0)
(-4.42374 0.187606 9.34441e-21)
(-4.48149 0.113287 0)
(-4.51084 0.0374889 9.44745e-21)
(-4.64495 0.0977002 0)
(-4.80124 0.173175 -9.62383e-21)
(-4.94654 0.218487 0)
(-5.0735 0.221121 9.85218e-21)
(-5.18179 0.221836 -5.30951e-21)
(-5.28565 0.214817 0)
(-5.38071 0.208961 -1.0316e-20)
(-5.47477 0.197457 -4.91878e-21)
(-5.56056 0.178882 -4.98753e-21)
(-5.63686 0.149491 0)
(-5.69947 0.112047 -5.62432e-21)
(-5.73496 0.0692378 -5.12818e-21)
(-5.75616 0.0435279 0)
(-5.7679 0.043013 5.17395e-21)
(-5.77389 0.0507964 -1.08154e-20)
(-5.78993 0.063875 0)
(-5.8275 0.089079 -5.14674e-21)
(-5.88695 0.122566 0)
(-5.96704 0.158095 1.53244e-20)
(-6.06142 0.187838 0)
(-6.17857 0.198568 -1.44904e-20)
(-6.29689 0.192543 -4.57345e-21)
(-6.43508 0.167935 4.6723e-21)
(-6.58521 0.163682 8.99322e-21)
(-6.82533 0.213774 -8.67975e-21)
(-7.07512 0.300423 0)
(-7.39533 0.424436 0)
(-7.57703 0.413498 0)
(-7.68898 0.312973 2.18678e-20)
(-7.70684 0.190426 6.84255e-21)
(-7.67906 0.0796652 -6.79767e-21)
(-7.59806 -0.0201053 0)
(-7.47979 -0.104898 -7.30883e-21)
(-7.32302 -0.178615 6.37456e-21)
(-7.13439 -0.242146 6.08293e-21)
(-6.91418 -0.297918 0)
(-6.66556 -0.346965 0)
(-6.38888 -0.390535 0)
(-6.08622 -0.429294 4.16969e-21)
(-5.7584 -0.463735 0)
(-5.40749 -0.493872 -6.04738e-21)
(-5.03509 -0.519726 -6.70115e-21)
(-4.64352 -0.541062 3.05276e-21)
(-4.23485 -0.557693 0)
(-3.81211 -0.569393 1.03912e-22)
(-3.37868 -0.576081 0)
(-2.93815 -0.577729 -3.03423e-21)
(-2.49434 -0.574341 2.11426e-21)
(-2.05106 -0.565807 2.76557e-21)
(-1.61213 -0.552194 0)
(-1.18131 -0.534055 1.19056e-20)
(-0.762583 -0.512189 -8.78188e-21)
(-0.358735 -0.488161 -4.81906e-21)
(0.0286948 -0.463611 0)
(0.399226 -0.438957 -5.36683e-21)
(0.753257 -0.41506 -1.65809e-20)
(1.09125 -0.392231 0)
(1.4139 -0.370521 -1.15094e-20)
(1.72178 -0.349682 -1.16281e-20)
(2.01529 -0.329436 -1.16739e-20)
(2.29483 -0.309628 0)
(2.56032 -0.290839 0)
(2.81148 -0.272273 0)
(3.04917 -0.254111 5.5951e-21)
(3.2734 -0.236292 5.54362e-21)
(3.4844 -0.218978 0)
(3.68239 -0.202288 1.05034e-20)
(3.86766 -0.186299 1.02103e-20)
(4.04052 -0.171096 0)
(4.20139 -0.156776 9.63626e-21)
(4.35081 -0.143471 1.85559e-20)
(4.48928 -0.131308 -9.00361e-21)
(4.61735 -0.120304 -8.61876e-21)
(4.73572 -0.110329 0)
(4.84536 -0.101143 0)
(4.94724 -0.0924847 0)
(5.04214 -0.0841522 -7.55377e-21)
(5.13058 -0.0760175 7.24051e-21)
(5.21287 -0.068007 1.40791e-20)
(5.2891 -0.0600786 -6.85505e-21)
(5.35934 -0.052177 6.59497e-21)
(5.42351 -0.044261 6.47686e-21)
(5.48144 -0.0362903 0)
(5.53295 -0.0282136 0)
(5.57776 -0.0199637 -5.97922e-21)
(5.61575 -0.0114644 0)
(5.64667 -0.00265922 0)
(5.67029 0.00648456 1.1451e-20)
(5.68628 0.0159967 0)
(5.69429 0.0259188 5.57025e-21)
(5.69382 0.0363282 -5.60962e-21)
(5.68427 0.0473186 0)
(5.66482 0.0590597 5.47447e-21)
(5.63456 0.071701 0)
(5.59218 0.0851642 0)
(5.53619 0.0988018 -5.55275e-21)
(5.46483 0.111463 1.09476e-20)
(5.37664 0.120836 -5.52151e-21)
(5.27049 0.124222 0)
(5.14514 0.118522 0)
(4.99956 0.104258 5.31266e-21)
(4.83774 0.0859181 0)
(4.68255 0.0719852 5.27075e-21)
(4.55834 0.0701698 0)
(4.46592 0.0766178 0)
(4.39219 0.0859993 0)
(4.31257 0.0920806 5.21414e-21)
(4.21905 0.0911096 0)
(4.11685 0.0850717 -5.11572e-21)
(4.01008 0.0782128 0)
(3.90489 0.0729666 0)
(3.80926 0.0738247 9.92763e-21)
(3.71983 0.0771352 -9.87083e-21)
(3.64053 0.0874119 0)
(3.54435 0.0862504 0)
(3.4602 0.0856216 0)
(3.32675 0.0598 2.92012e-20)
(3.26487 0.0782254 0)
(3.09204 0.0561273 -1.94724e-20)
(0.0860847 0.527981 -4.22215e-23)
(0.365176 0.0399894 4.67136e-21)
(0.747715 -0.646521 0)
(1.21327 -1.33472 -4.92198e-21)
(1.66895 -1.87141 0)
(2.04978 -2.17174 0)
(2.33257 -2.23065 -4.16385e-22)
(2.53329 -2.11039 2.52669e-21)
(2.67155 -1.87272 3.18677e-21)
(2.7707 -1.57227 2.76219e-21)
(2.83585 -1.26232 0)
(2.8791 -0.974196 0)
(2.90149 -0.714769 -3.73801e-21)
(2.90512 -0.488371 -7.66052e-21)
(2.89029 -0.299832 7.79845e-21)
(2.86073 -0.14288 0)
(2.82578 -0.00611416 7.94094e-21)
(2.77231 0.110686 -3.59754e-21)
(2.70376 0.210191 0)
(2.59318 0.362288 7.87143e-21)
(2.46051 0.529012 3.53852e-21)
(2.32532 0.67407 -7.68468e-21)
(2.18287 0.803433 -3.41602e-21)
(2.0383 0.909324 0)
(1.88074 1.00635 7.29005e-21)
(1.6842 1.13123 7.15995e-21)
(1.46526 1.25001 0)
(1.21454 1.36105 6.94443e-21)
(0.933944 1.43791 0)
(0.625195 1.45866 6.8445e-21)
(0.292098 1.41463 3.13085e-21)
(-0.0280016 1.31999 0)
(-0.326154 1.18383 0)
(-0.581708 1.01419 0)
(-0.819752 0.850434 0)
(-1.03524 0.694093 0)
(-1.26774 0.599587 0)
(-1.51486 0.582274 7.63375e-21)
(-1.77049 0.643127 -1.14279e-20)
(-2.03188 0.751909 0)
(-2.26741 0.846491 0)
(-2.50088 0.891378 0)
(-2.68869 0.931832 -6.58434e-22)
(-2.90423 0.916508 7.75448e-21)
(-3.10874 0.851643 1.64419e-20)
(-3.31403 0.790597 -1.67938e-20)
(-3.51156 0.732947 -8.94004e-21)
(-3.68157 0.660632 8.49128e-21)
(-3.7968 0.582445 7.00385e-22)
(-3.90031 0.49955 9.56274e-21)
(-3.97782 0.414895 0)
(-4.05434 0.337694 9.81055e-21)
(-4.11664 0.279945 7.31995e-22)
(-4.20114 0.264966 0)
(-4.28088 0.276609 0)
(-4.35633 0.295582 -9.96865e-21)
(-4.40304 0.291332 0)
(-4.44931 0.272214 0)
(-4.4884 0.229178 1.06096e-20)
(-4.54743 0.188103 1.99826e-20)
(-4.68223 0.236393 -9.44759e-21)
(-4.87195 0.323443 0)
(-5.03469 0.367745 9.62264e-21)
(-5.16077 0.369768 0)
(-5.26174 0.350332 1.13792e-20)
(-5.34374 0.329566 9.99924e-21)
(-5.41308 0.308261 -2.19419e-20)
(-5.47324 0.290761 -1.19273e-20)
(-5.52624 0.271545 0)
(-5.57283 0.245216 2.2635e-20)
(-5.61478 0.206089 0)
(-5.64943 0.153384 3.34948e-20)
(-5.6708 0.0963146 2.28002e-20)
(-5.683 0.0559113 2.28204e-20)
(-5.67934 0.0337792 -2.28263e-20)
(-5.67731 0.0434318 3.36174e-20)
(-5.69092 0.0887088 0)
(-5.71966 0.148103 0)
(-5.76717 0.201575 -2.21016e-20)
(-5.83893 0.25051 -3.19578e-20)
(-5.92918 0.29572 0)
(-6.05015 0.322521 9.77112e-21)
(-6.18942 0.329973 0)
(-6.359 0.340285 -2.8016e-20)
(-6.57804 0.402802 7.83886e-22)
(-6.82127 0.477037 -8.8143e-22)
(-7.06977 0.573378 1.7262e-20)
(-7.22052 0.575007 0)
(-7.23589 0.460694 -1.65913e-20)
(-7.21019 0.305018 1.3442e-21)
(-7.1422 0.144525 0)
(-7.06171 -0.0015576 0)
(-6.9529 -0.132301 0)
(-6.82392 -0.24619 1.39066e-20)
(-6.66533 -0.347269 0)
(-6.48061 -0.436709 0)
(-6.26658 -0.516984 0)
(-6.02575 -0.58916 0)
(-5.75775 -0.654695 0)
(-5.46459 -0.714088 9.36498e-21)
(-5.14681 -0.767743 0)
(-4.80625 -0.815488 6.05746e-21)
(-4.4443 -0.857083 4.58539e-21)
(-4.06331 -0.891984 -3.05996e-21)
(-3.66553 -0.919645 0)
(-3.25399 -0.939375 4.37303e-23)
(-2.83188 -0.950858 0)
(-2.40269 -0.954004 3.03163e-21)
(-1.96997 -0.948707 -4.4164e-21)
(-1.53731 -0.934931 -1.65354e-20)
(-1.10851 -0.91273 0)
(-0.687562 -0.88263 -2.32213e-20)
(-0.278455 -0.846301 -8.37295e-21)
(0.115628 -0.80637 0)
(0.492941 -0.764877 -1.99378e-20)
(0.853231 -0.72355 -2.09448e-20)
(1.19708 -0.683765 3.27501e-20)
(1.52523 -0.645999 0)
(1.83847 -0.610223 1.15054e-20)
(2.13752 -0.575964 1.1624e-20)
(2.42268 -0.54272 3.47528e-20)
(2.6941 -0.510598 0)
(2.95164 -0.479438 0)
(3.19561 -0.448813 0)
(3.42618 -0.418938 1.10336e-20)
(3.64348 -0.389849 0)
(3.84768 -0.361646 0)
(4.03903 -0.334463 -1.04956e-20)
(4.21781 -0.308424 -1.0203e-20)
(4.38435 -0.283639 0)
(4.53907 -0.260219 0)
(4.68244 -0.238251 -1.85449e-20)
(4.81495 -0.217798 0)
(4.93703 -0.198909 1.73027e-20)
(5.04913 -0.181644 1.658e-20)
(5.15175 -0.165959 0)
(5.24562 -0.151656 0)
(5.33161 -0.138426 -1.49265e-20)
(5.41059 -0.12593 -1.07017e-22)
(5.48337 -0.113874 -1.05017e-22)
(5.55048 -0.102052 0)
(5.61224 -0.0903343 -2.63918e-20)
(5.66879 -0.0786385 0)
(5.72016 -0.0669005 0)
(5.76637 -0.0550579 0)
(5.80739 -0.0430736 1.20187e-20)
(5.84318 -0.030935 0)
(5.87365 -0.0186348 -2.30021e-20)
(5.8987 -0.0061303 -1.14474e-20)
(5.91825 0.00666092 0)
(5.93221 0.0198575 -1.12132e-20)
(5.94055 0.0336218 0)
(5.94319 0.0481664 0)
(5.94007 0.0637687 -3.28557e-20)
(5.93104 0.0806675 2.17516e-20)
(5.91574 0.0988404 0)
(5.89354 0.117672 2.16464e-20)
(5.86372 0.136106 -1.09435e-20)
(5.82527 0.152477 0)
(5.77683 0.165332 0)
(5.71498 0.173607 0)
(5.63573 0.177314 -3.1919e-20)
(5.53304 0.177139 0)
(5.40285 0.168218 -1.06415e-20)
(5.25197 0.147787 0)
(5.0947 0.126817 0)
(4.95569 0.116644 0)
(4.84899 0.118418 0)
(4.75593 0.121986 0)
(4.65573 0.120576 0)
(4.54773 0.117527 -1.98681e-20)
(4.43628 0.114854 0)
(4.33148 0.112703 -9.92138e-21)
(4.23327 0.1076 2.93919e-20)
(4.15612 0.111314 0)
(4.08402 0.108777 0)
(4.0319 0.112727 -1.93204e-20)
(3.94897 0.103085 -1.94303e-20)
(3.8904 0.123773 1.93133e-20)
(3.76566 0.102546 1.94606e-20)
(0.0720221 -0.0705751 -7.00565e-21)
(0.504183 -0.884955 -7.08836e-21)
(1.03987 -1.75421 -5.02554e-21)
(1.50045 -2.33867 -2.89732e-21)
(1.83666 -2.64966 0)
(2.02452 -2.66286 6.20284e-21)
(2.09712 -2.45363 -3.71883e-21)
(2.10904 -2.14975 0)
(2.09227 -1.81698 -3.19045e-21)
(2.08044 -1.4857 0)
(2.07331 -1.18025 7.95005e-21)
(2.07182 -0.89922 0)
(2.06682 -0.641049 3.74279e-21)
(2.05396 -0.408058 7.67033e-21)
(2.02586 -0.205461 -7.80798e-21)
(1.98145 -0.0342173 0)
(1.92249 0.120967 -7.9492e-21)
(1.84921 0.259838 0)
(1.74874 0.414077 0)
(1.62043 0.594989 -7.87501e-21)
(1.49213 0.760899 0)
(1.36013 0.913229 -7.96677e-22)
(1.2279 1.04446 0)
(1.08464 1.17433 0)
(0.917899 1.32439 8.56122e-22)
(0.73954 1.47415 -7.15371e-21)
(0.551516 1.61908 -7.91089e-21)
(0.358088 1.74613 -6.93353e-21)
(0.158561 1.83921 0)
(-0.0498693 1.88567 -1.44542e-20)
(-0.278808 1.86509 0)
(-0.519343 1.76796 -7.52638e-21)
(-0.768047 1.61299 0)
(-1.01229 1.43046 0)
(-1.2591 1.25541 7.6309e-21)
(-1.51333 1.11299 0)
(-1.79207 1.03604 -7.885e-21)
(-2.06982 1.02208 4.6755e-22)
(-2.34676 1.08082 1.61463e-20)
(-2.61499 1.17381 -1.71069e-20)
(-2.85921 1.24973 0)
(-3.07028 1.2559 0)
(-3.23998 1.22605 -9.63703e-21)
(-3.38572 1.15328 0)
(-3.50856 1.07539 -8.53246e-21)
(-3.62172 1.00845 8.7206e-21)
(-3.70966 0.922438 8.93128e-21)
(-3.77777 0.819646 0)
(-3.83008 0.713265 -9.37895e-21)
(-3.88299 0.605599 -9.56014e-21)
(-3.93506 0.508817 2.09761e-20)
(-4.00562 0.439345 -9.80973e-21)
(-4.09206 0.408583 -9.87788e-21)
(-4.19826 0.400016 0)
(-4.29173 0.391754 0)
(-4.37367 0.383678 9.96927e-21)
(-4.44183 0.368866 0)
(-4.52255 0.35226 0)
(-4.60568 0.327978 -1.99523e-20)
(-4.73685 0.364913 -1.99787e-20)
(-4.93278 0.46501 0)
(-5.12692 0.533401 0)
(-5.27175 0.533233 0)
(-5.39013 0.502416 0)
(-5.48341 0.458537 -2.1214e-20)
(-5.55392 0.415158 2.3328e-20)
(-5.60473 0.377091 2.19305e-20)
(-5.63905 0.345391 4.61798e-20)
(-5.66132 0.315321 0)
(-5.67187 0.281396 1.58935e-21)
(-5.67746 0.23127 0)
(-5.67548 0.161948 -2.27757e-20)
(-5.66529 0.0884722 1.32534e-21)
(-5.6458 0.0313247 -2.28367e-20)
(-5.61685 0.0207892 2.28473e-20)
(-5.58972 0.0493589 1.18085e-21)
(-5.5583 0.0917052 0)
(-5.53934 0.159286 2.35945e-20)
(-5.5504 0.241466 2.21258e-20)
(-5.60163 0.324927 4.42722e-20)
(-5.68596 0.403099 0)
(-5.80563 0.460003 -2.12733e-20)
(-5.95065 0.501985 0)
(-6.1335 0.557456 3.88298e-20)
(-6.33396 0.628423 -1.82764e-20)
(-6.52943 0.691619 1.77151e-20)
(-6.66587 0.698574 -1.72765e-20)
(-6.68073 0.588487 -3.65012e-20)
(-6.63142 0.416 1.66045e-20)
(-6.57484 0.237633 -1.63189e-20)
(-6.4963 0.0611021 0)
(-6.40958 -0.10251 3.39899e-20)
(-6.29757 -0.254409 0)