/*--------------------------------*- C++ -*----------------------------------*\
  =========                 |
  \\      /  F ield         | OpenFOAM: The Open Source CFD Toolbox
   \\    /   O peration     | Website:  https://openfoam.org
    \\  /    A nd           | Version:  9
     \\/     M anipulation  |
\*---------------------------------------------------------------------------*/
FoamFile
{
    format      ascii;
    class       volSymmTensorField;
    location    "0.075";
    object      UPrime2Mean;
}
// * * * * * * * * * * * * * * * * * * * * * * * * * * * * * * * * * * * * * //

dimensions      [0 2 -2 0 0 0 0];

internalField   nonuniform List<symmTensor> 
12225
(
(-48.2032 -0.223474 0 0.00113173 0 0)
(-45.3684 -0.293496 0 -0.000914693 0 0)
(-42.5653 -0.274675 0 -0.00108916 0 0)
(-39.8194 -0.258382 0 -0.00112643 0 0)
(-37.2127 -0.246971 0 -0.00116989 0 0)
(-34.7799 -0.236335 0 -0.00119589 0 0)
(-32.5136 -0.225158 0 -0.00118939 0 0)
(-30.399 -0.214761 0 -0.00116901 0 0)
(-28.417 -0.203717 0 -0.00109308 0 0)
(-26.5581 -0.195381 0 -0.00104621 0 0)
(-24.7951 -0.18616 0 -0.000891164 0 0)
(-23.1243 -0.184251 0 -0.000891847 0 0)
(-21.4791 -0.179663 0 -0.000457619 0 0)
(-19.8935 -0.191455 0 -0.000660132 0 0)
(-18.1715 -0.198063 0 0.00122677 0 0)
(-16.4944 -0.238505 0 -3.4909e-05 0 0)
(-14.2776 -0.296587 0 0.0112249 0 0)
(-11.9921 -0.40475 0 0.00469328 0 0)
(-50.354 -0.256995 0 0.00165399 0 0)
(-50.9559 -0.375551 0 -0.00141076 0 0)
(-51.3519 -0.37094 0 -0.00174256 0 0)
(-51.4953 -0.376377 0 -0.00197685 0 0)
(-51.4629 -0.392115 0 -0.00230175 0 0)
(-51.3267 -0.405373 0 -0.00255753 0 0)
(-51.1136 -0.415666 0 -0.0027526 0 0)
(-50.8361 -0.424058 0 -0.00285905 0 0)
(-50.4879 -0.434064 0 -0.00297734 0 0)
(-50.0809 -0.443013 0 -0.00290129 0 0)
(-49.6007 -0.457398 0 -0.00290992 0 0)
(-49.0693 -0.470617 0 -0.00235643 0 0)
(-48.4499 -0.498796 0 -0.00205697 0 0)
(-47.7747 -0.526126 0 -2.53581e-05 0 0)
(-46.9647 -0.589242 0 0.00167788 0 0)
(-46.0631 -0.654553 0 0.0091587 0 0)
(-44.9232 -0.801422 0 0.0203869 0 0)
(-43.5618 -0.972071 0 0.0589446 0 0)
(-50.0401 -0.152705 0 0.00307349 0 0)
(-50.3901 -0.269441 0 0.000296528 0 0)
(-50.6973 -0.279853 0 -0.000339876 0 0)
(-50.8906 -0.290885 0 -0.000620137 0 0)
(-51.0091 -0.315015 0 -0.000973441 0 0)
(-51.1033 -0.339405 0 -0.00129669 0 0)
(-51.1936 -0.359054 0 -0.001507 0 0)
(-51.2795 -0.377476 0 -0.00163274 0 0)
(-51.3542 -0.395187 0 -0.00161543 0 0)
(-51.4112 -0.416486 0 -0.00150852 0 0)
(-51.4481 -0.438139 0 -0.00101928 0 0)
(-51.46 -0.46901 0 -0.000330214 0 0)
(-51.4512 -0.502125 0 0.00157865 0 0)
(-51.4125 -0.556472 0 0.00417027 0 0)
(-51.3636 -0.620298 0 0.0109546 0 0)
(-51.2792 -0.724649 0 0.0217975 0 0)
(-51.2248 -0.857911 0 0.0490634 0 0)
(-51.1444 -1.04147 0 0.102805 0 0)
(-49.8328 -0.142062 0 0.00329378 0 0)
(-50.0713 -0.287524 0 0.000291741 0 0)
(-50.3089 -0.316131 0 -0.000700211 0 0)
(-50.4668 -0.324939 0 -0.00101047 0 0)
(-50.5609 -0.343765 0 -0.00130568 0 0)
(-50.6375 -0.364398 0 -0.00154477 0 0)
(-50.7184 -0.381156 0 -0.00165871 0 0)
(-50.7997 -0.39508 0 -0.00159807 0 0)
(-50.8726 -0.410137 0 -0.00139113 0 0)
(-50.9312 -0.427507 0 -0.000905923 0 0)
(-50.9769 -0.450251 0 -0.000109187 0 0)
(-51.0108 -0.478469 0 0.00139364 0 0)
(-51.0398 -0.517012 0 0.00394784 0 0)
(-51.0653 -0.567532 0 0.00865248 0 0)
(-51.099 -0.636432 0 0.0173382 0 0)
(-51.1525 -0.729414 0 0.033731 0 0)
(-51.2489 -0.846508 0 0.0653334 0 0)
(-51.4256 -0.981131 0 0.123589 0 0)
(-50.1034 -0.105096 0 0.00409 0 0)
(-50.2684 -0.226529 0 0.00161017 0 0)
(-50.4522 -0.266058 0 0.000448911 0 0)
(-50.5922 -0.278085 0 0.000114754 0 0)
(-50.6875 -0.295498 0 -7.37965e-05 0 0)
(-50.7672 -0.317732 0 -0.000207297 0 0)
(-50.8456 -0.338742 0 -0.000216328 0 0)
(-50.9184 -0.358846 0 -6.2348e-05 0 0)
(-50.9772 -0.379748 0 0.000323956 0 0)
(-51.0191 -0.4033 0 0.00105319 0 0)
(-51.0457 -0.429877 0 0.00238905 0 0)
(-51.0634 -0.461651 0 0.00467631 0 0)
(-51.076 -0.500764 0 0.00861049 0 0)
(-51.092 -0.550746 0 0.0153709 0 0)
(-51.1155 -0.614989 0 0.02707 0 0)
(-51.1656 -0.696254 0 0.0478282 0 0)
(-51.247 -0.790536 0 0.083224 0 0)
(-51.3901 -0.885337 0 0.143805 0 0)
(-49.6531 -0.0935037 0 0.00441713 0 0)
(-49.8225 -0.220724 0 0.00177297 0 0)
(-50.0096 -0.272061 0 0.000345628 0 0)
(-50.1649 -0.28805 0 -0.000133615 0 0)
(-50.2723 -0.301918 0 -0.000304283 0 0)
(-50.3507 -0.320995 0 -0.000330581 0 0)
(-50.4206 -0.341579 0 -0.000190461 0 0)
(-50.4889 -0.361795 0 0.000180253 0 0)
(-50.5543 -0.38274 0 0.00086895 0 0)
(-50.6153 -0.405785 0 0.0020631 0 0)
(-50.6714 -0.432096 0 0.00405797 0 0)
(-50.7251 -0.463233 0 0.0073379 0 0)
(-50.7776 -0.50082 0 0.0127059 0 0)
(-50.8343 -0.54777 0 0.0215575 0 0)
(-50.8986 -0.605312 0 0.0360752 0 0)
(-50.9823 -0.673963 0 0.060183 0 0)
(-51.0893 -0.747413 0 0.0986407 0 0)
(-51.2331 -0.816562 0 0.159633 0 0)
(-50.1533 -0.0545549 0 0.00536538 0 0)
(-50.2434 -0.17654 0 0.00301226 0 0)
(-50.3681 -0.237063 0 0.0014991 0 0)
(-50.4853 -0.261476 0 0.000965751 0 0)
(-50.5679 -0.27761 0 0.000894913 0 0)
(-50.6248 -0.297122 0 0.00102821 0 0)
(-50.6728 -0.318988 0 0.00135835 0 0)
(-50.7192 -0.340644 0 0.00200154 0 0)
(-50.7624 -0.362254 0 0.00311202 0 0)
(-50.8012 -0.38549 0 0.00492385 0 0)
(-50.8358 -0.41208 0 0.00777335 0 0)
(-50.8699 -0.443573 0 0.0122515 0 0)
(-50.9059 -0.481101 0 0.0192446 0 0)
(-50.9497 -0.526333 0 0.0302986 0 0)
(-51.0032 -0.579086 0 0.0475271 0 0)
(-51.0756 -0.638659 0 0.0745657 0 0)
(-51.1661 -0.698963 0 0.115321 0 0)
(-51.2852 -0.753934 0 0.175908 0 0)
(-50.1784 -0.0781972 0 0.00441497 0 0)
(-50.2507 -0.170735 0 0.00249271 0 0)
(-50.3632 -0.232469 0 0.00112639 0 0)
(-50.4782 -0.261075 0 0.000613219 0 0)
(-50.5693 -0.276919 0 0.000611695 0 0)
(-50.6362 -0.294851 0 0.000888784 0 0)
(-50.6894 -0.317291 0 0.00141227 0 0)
(-50.7363 -0.341736 0 0.00227332 0 0)
(-50.7774 -0.3662 0 0.00368671 0 0)
(-50.8125 -0.390901 0 0.0059853 0 0)
(-50.8427 -0.416981 0 0.00959895 0 0)
(-50.8725 -0.446217 0 0.0151944 0 0)
(-50.9048 -0.479805 0 0.0237165 0 0)
(-50.9451 -0.518998 0 0.0367383 0 0)
(-50.9941 -0.56323 0 0.0562442 0 0)
(-51.0581 -0.611425 0 0.0854059 0 0)
(-51.1338 -0.65828 0 0.12731 0 0)
(-51.229 -0.699322 0 0.18652 0 0)
(-50.0145 -0.046662 0 0.00553736 0 0)
(-50.097 -0.136157 0 0.00361618 0 0)
(-50.2055 -0.199026 0 0.00222182 0 0)
(-50.3199 -0.233856 0 0.00165835 0 0)
(-50.4152 -0.253533 0 0.001709 0 0)
(-50.486 -0.271854 0 0.00214974 0 0)
(-50.5421 -0.293819 0 0.00294086 0 0)
(-50.5945 -0.318322 0 0.00419207 0 0)
(-50.6474 -0.343567 0 0.00613686 0 0)
(-50.7001 -0.369293 0 0.00914338 0 0)
(-50.7506 -0.396163 0 0.0136906 0 0)
(-50.7989 -0.425318 0 0.020502 0 0)
(-50.8459 -0.457579 0 0.0305356 0 0)
(-50.8953 -0.493665 0 0.0453048 0 0)
(-50.9486 -0.532549 0 0.0666067 0 0)
(-51.0114 -0.572918 0 0.0971464 0 0)
(-51.0815 -0.610198 0 0.139284 0 0)
(-51.1641 -0.64064 0 0.196515 0 0)
(-50.0718 -0.042192 0 0.00585415 0 0)
(-50.13 -0.129715 0 0.00394761 0 0)
(-50.2152 -0.189383 0 0.00238545 0 0)
(-50.3107 -0.226284 0 0.00186255 0 0)
(-50.3933 -0.249666 0 0.00197533 0 0)
(-50.4563 -0.26985 0 0.00253406 0 0)
(-50.5057 -0.292113 0 0.00353321 0 0)
(-50.5493 -0.316232 0 0.00511129 0 0)
(-50.5912 -0.340672 0 0.00753143 0 0)
(-50.6325 -0.365011 0 0.011191 0 0)
(-50.6732 -0.389915 0 0.0165875 0 0)
(-50.7143 -0.416527 0 0.0244578 0 0)
(-50.7571 -0.44548 0 0.0357296 0 0)
(-50.8044 -0.476893 0 0.0518123 0 0)
(-50.8569 -0.509517 0 0.0742395 0 0)
(-50.9178 -0.54173 0 0.105297 0 0)
(-50.9841 -0.569788 0 0.146671 0 0)
(-51.0575 -0.590943 0 0.201073 0 0)
(-50.1083 -0.0363597 0 0.00649054 0 0)
(-50.1558 -0.107344 0 0.00497749 0 0)
(-50.2299 -0.162943 0 0.00373557 0 0)
(-50.3177 -0.201273 0 0.00320071 0 0)
(-50.3976 -0.227246 0 0.00332797 0 0)
(-50.465 -0.248153 0 0.00407636 0 0)
(-50.5252 -0.269521 0 0.00540829 0 0)
(-50.5827 -0.293409 0 0.00739621 0 0)
(-50.6381 -0.318742 0 0.010295 0 0)
(-50.6902 -0.344157 0 0.014569 0 0)
(-50.7381 -0.369347 0 0.0207754 0 0)
(-50.7837 -0.394996 0 0.029652 0 0)
(-50.8286 -0.421565 0 0.0420569 0 0)
(-50.8765 -0.449252 0 0.0592418 0 0)
(-50.9271 -0.476988 0 0.0824336 0 0)
(-50.9832 -0.503511 0 0.113494 0 0)
(-51.0396 -0.525764 0 0.153512 0 0)
(-51.1001 -0.541776 0 0.204602 0 0)
(-49.7384 -0.0309832 0 0.00630888 0 0)
(-49.7828 -0.0992983 0 0.00460046 0 0)
(-49.8388 -0.152455 0 0.00319549 0 0)
(-49.9241 -0.19 0 0.0027526 0 0)
(-50.0227 -0.216404 0 0.00310995 0 0)
(-50.1136 -0.237467 0 0.00412932 0 0)
(-50.189 -0.258226 0 0.00579816 0 0)
(-50.2527 -0.281069 0 0.00822554 0 0)
(-50.3114 -0.305546 0 0.0116678 0 0)
(-50.3707 -0.330238 0 0.0165882 0 0)
(-50.4325 -0.354306 0 0.0235471 0 0)
(-50.4966 -0.377894 0 0.0332677 0 0)
(-50.5617 -0.401276 0 0.0465206 0 0)
(-50.6277 -0.424833 0 0.0644131 0 0)
(-50.6931 -0.447763 0 0.0878973 0 0)
(-50.7587 -0.469236 0 0.118476 0 0)
(-50.8208 -0.486656 0 0.156777 0 0)
(-50.8809 -0.498875 0 0.204507 0 0)
(-50.1094 -0.0220468 0 0.00760049 0 0)
(-50.1127 -0.0812849 0 0.00655016 0 0)
(-50.1399 -0.128943 0 0.00478668 0 0)
(-50.1972 -0.162843 0 0.00444311 0 0)
(-50.2642 -0.187993 0 0.00504122 0 0)
(-50.3248 -0.211058 0 0.00625078 0 0)
(-50.3773 -0.23548 0 0.0080196 0 0)
(-50.426 -0.260982 0 0.0105799 0 0)
(-50.475 -0.285874 0 0.014339 0 0)
(-50.5258 -0.309068 0 0.0197816 0 0)
(-50.5783 -0.33075 0 0.0273759 0 0)
(-50.6315 -0.351955 0 0.0377457 0 0)
(-50.6845 -0.373332 0 0.0515383 0 0)
(-50.7367 -0.394942 0 0.0697023 0 0)
(-50.7883 -0.415785 0 0.0929442 0 0)
(-50.8389 -0.43464 0 0.122533 0 0)
(-50.8876 -0.449181 0 0.158702 0 0)
(-50.9328 -0.458624 0 0.202918 0 0)
(-49.9988 -0.0516131 0 0.00822522 0 0)
(-50.0164 -0.0840381 0 0.00708367 0 0)
(-50.0482 -0.130466 0 0.00557552 0 0)
(-50.1024 -0.167799 0 0.00510202 0 0)
(-50.1641 -0.192835 0 0.00559411 0 0)
(-50.2224 -0.212185 0 0.00693614 0 0)
(-50.2763 -0.231066 0 0.0090878 0 0)
(-50.3288 -0.251518 0 0.0121744 0 0)
(-50.3826 -0.272936 0 0.0164747 0 0)
(-50.4388 -0.29424 0 0.0223998 0 0)
(-50.4973 -0.314763 0 0.0303991 0 0)
(-50.5567 -0.334452 0 0.0410611 0 0)
(-50.6155 -0.35323 0 0.0549342 0 0)
(-50.6735 -0.371141 0 0.0728143 0 0)
(-50.7296 -0.38735 0 0.0951832 0 0)
(-50.7838 -0.401606 0 0.123015 0 0)
(-50.8331 -0.41221 0 0.156243 0 0)
(-50.878 -0.419183 0 0.196025 0 0)
(-49.9851 -0.0120207 0 0.00942811 0 0)
(-50.0185 -0.0578299 0 0.00888542 0 0)
(-50.0529 -0.0982522 0 0.00739131 0 0)
(-50.103 -0.128932 0 0.00710856 0 0)
(-50.1643 -0.153365 0 0.00796423 0 0)
(-50.2244 -0.176323 0 0.00962431 0 0)
(-50.2791 -0.199762 0 0.0119667 0 0)
(-50.3296 -0.22287 0 0.0152208 0 0)
(-50.3783 -0.244022 0 0.0197842 0 0)
(-50.4274 -0.262681 0 0.0260765 0 0)
(-50.4783 -0.279481 0 0.0344551 0 0)
(-50.5296 -0.295657 0 0.0453778 0 0)
(-50.5809 -0.311877 0 0.0592078 0 0)
(-50.629 -0.32816 0 0.0765427 0 0)
(-50.6756 -0.343565 0 0.097554 0 0)
(-50.7165 -0.35725 0 0.123052 0 0)
(-50.756 -0.367807 0 0.152628 0 0)
(-50.785 -0.374989 0 0.187357 0 0)
(-50.2949 -0.0144618 0 0.0105262 0 0)
(-50.3195 -0.064657 0 0.00883218 0 0)
(-50.3524 -0.0930887 0 0.00665313 0 0)
(-50.404 -0.115581 0 0.00636637 0 0)
(-50.4663 -0.137032 0 0.00730896 0 0)
(-50.5319 -0.158719 0 0.00903902 0 0)
(-50.6 -0.180383 0 0.0114875 0 0)
(-50.6695 -0.200915 0 0.01489 0 0)
(-50.7381 -0.219769 0 0.019568 0 0)
(-50.8041 -0.237215 0 0.025856 0 0)
(-50.8667 -0.253796 0 0.0340237 0 0)
(-50.9251 -0.269849 0 0.0444169 0 0)
(-50.9794 -0.285196 0 0.0572657 0 0)
(-51.0298 -0.299609 0 0.0729988 0 0)
(-51.0772 -0.31251 0 0.0916393 0 0)
(-51.1208 -0.323893 0 0.113746 0 0)
(-51.1604 -0.333072 0 0.138792 0 0)
(-51.1937 -0.340702 0 0.167618 0 0)
(-49.9972 -0.0230899 0 0.0107694 0 0)
(-49.9651 -0.0409691 0 0.00929407 0 0)
(-49.9565 -0.0636238 0 0.00659856 0 0)
(-49.9833 -0.0875189 0 0.00633397 0 0)
(-50.0279 -0.107781 0 0.00760511 0 0)
(-50.0759 -0.124579 0 0.00976486 0 0)
(-50.1242 -0.140121 0 0.0126689 0 0)
(-50.1754 -0.156027 0 0.0164445 0 0)
(-50.2298 -0.172675 0 0.021312 0 0)
(-50.2875 -0.189756 0 0.0275447 0 0)
(-50.3461 -0.206549 0 0.035358 0 0)
(-50.4045 -0.222674 0 0.0450114 0 0)
(-50.4589 -0.237675 0 0.056606 0 0)
(-50.5108 -0.251662 0 0.0704218 0 0)
(-50.5553 -0.264238 0 0.0863361 0 0)
(-50.5979 -0.275831 0 0.104749 0 0)
(-50.6301 -0.285763 0 0.125072 0 0)
(-50.6638 -0.294933 0 0.148033 0 0)
(-49.7184 -0.0618705 0 0.0112526 0 0)
(-49.7209 -0.0493339 0 0.0105416 0 0)
(-49.7403 -0.052156 0 0.00858354 0 0)
(-49.7814 -0.0662926 0 0.00821785 0 0)
(-49.8346 -0.0835817 0 0.00878101 0 0)
(-49.8908 -0.0994075 0 0.0102277 0 0)
(-49.9473 -0.112191 0 0.0125961 0 0)
(-50.0049 -0.122224 0 0.0158941 0 0)
(-50.0649 -0.130843 0 0.0201816 0 0)
(-50.1264 -0.13987 0 0.0255966 0 0)
(-50.1881 -0.150304 0 0.0322287 0 0)
(-50.2479 -0.162666 0 0.0401722 0 0)
(-50.3049 -0.17637 0 0.0494037 0 0)
(-50.3576 -0.191092 0 0.0600745 0 0)
(-50.4065 -0.205526 0 0.0720379 0 0)
(-50.4502 -0.219596 0 0.0856272 0 0)
(-50.4901 -0.232026 0 0.100357 0 0)
(-50.524 -0.243754 0 0.116777 0 0)
(-49.9994 -0.0181273 0 0.0110313 0 0)
(-50.0458 -0.0189149 0 0.010527 0 0)
(-50.0993 -0.0201583 0 0.00851243 0 0)
(-50.1565 -0.0251471 0 0.00804245 0 0)
(-50.2131 -0.0332517 0 0.00873297 0 0)
(-50.2701 -0.0421231 0 0.0103044 0 0)
(-50.3293 -0.0505604 0 0.0125989 0 0)
(-50.3902 -0.0589035 0 0.0155545 0 0)
(-50.4515 -0.0679451 0 0.0191894 0 0)
(-50.5114 -0.0784264 0 0.0235643 0 0)
(-50.5695 -0.0903387 0 0.0287102 0 0)
(-50.6253 -0.103422 0 0.0346915 0 0)
(-50.6802 -0.116819 0 0.0415028 0 0)
(-50.7335 -0.130265 0 0.049249 0 0)
(-50.7868 -0.143051 0 0.0577853 0 0)
(-50.8372 -0.155691 0 0.0672932 0 0)
(-50.8879 -0.167482 0 0.0773919 0 0)
(-50.9331 -0.179698 0 0.0884243 0 0)
(-50.0097 -0.00454056 0 0.0132859 0 0)
(-50.0552 0.00927123 0 0.0123811 0 0)
(-50.103 0.0107622 0 0.00959279 0 0)
(-50.1635 0.00648383 0 0.00840699 0 0)
(-50.2303 -0.00028051 0 0.00848752 0 0)
(-50.2968 -0.00668686 0 0.00942471 0 0)
(-50.3613 -0.0112159 0 0.0109706 0 0)
(-50.4241 -0.0147943 0 0.0130022 0 0)
(-50.4862 -0.0192604 0 0.0155106 0 0)
(-50.549 -0.0257163 0 0.018528 0 0)
(-50.6138 -0.0339673 0 0.0220668 0 0)
(-50.6802 -0.0435828 0 0.026161 0 0)
(-50.7476 -0.0538799 0 0.0307881 0 0)
(-50.8146 -0.0648373 0 0.035982 0 0)
(-50.8813 -0.0759674 0 0.0416103 0 0)
(-50.9458 -0.0876764 0 0.0477901 0 0)
(-51.0094 -0.0990826 0 0.0542776 0 0)
(-51.0689 -0.11123 0 0.0612506 0 0)
(-50.307 0.0243636 0 0.0112493 0 0)
(-50.3489 0.033991 0 0.0108019 0 0)
(-50.3969 0.0487557 0 0.00835307 0 0)
(-50.4524 0.0559826 0 0.00737619 0 0)
(-50.5204 0.0536332 0 0.00733145 0 0)
(-50.5947 0.0462782 0 0.00790895 0 0)
(-50.6673 0.0394283 0 0.00901119 0 0)
(-50.7351 0.0350817 0 0.0105282 0 0)
(-50.7991 0.0322155 0 0.0123914 0 0)
(-50.8607 0.0289787 0 0.0146193 0 0)
(-50.9215 0.0244304 0 0.0172259 0 0)
(-50.9823 0.0183443 0 0.0202167 0 0)
(-51.0433 0.0111764 0 0.0235544 0 0)
(-51.1044 0.0030979 0 0.0272517 0 0)
(-51.1652 -0.00546237 0 0.0312139 0 0)
(-51.2257 -0.0150077 0 0.0355173 0 0)
(-51.2857 -0.0249614 0 0.0399747 0 0)
(-51.3451 -0.0364635 0 0.0446787 0 0)
(-49.9498 0.0363889 0 0.0118931 0 0)
(-49.9575 0.0501195 0 0.0103084 0 0)
(-49.9795 0.062709 0 0.00741864 0 0)
(-50.0232 0.0709982 0 0.00622884 0 0)
(-50.0833 0.0746321 0 0.00600332 0 0)
(-50.1523 0.074546 0 0.00635697 0 0)
(-50.2247 0.0719432 0 0.00708077 0 0)
(-50.3 0.0679738 0 0.00806954 0 0)
(-50.3778 0.0635537 0 0.00930635 0 0)
(-50.4573 0.0589901 0 0.0108096 0 0)
(-50.5366 0.0542803 0 0.012587 0 0)
(-50.6155 0.0490184 0 0.0146402 0 0)
(-50.6928 0.0432088 0 0.0169412 0 0)
(-50.7692 0.0366161 0 0.0194845 0 0)
(-50.8436 0.0295749 0 0.0221936 0 0)
(-50.9174 0.0216127 0 0.0251286 0 0)
(-50.9878 0.0133932 0 0.0281652 0 0)
(-51.0582 0.00387604 0 0.0313406 0 0)
(-49.8702 0.0081454 0 0.00931981 0 0)
(-49.9317 0.0551323 0 0.00802619 0 0)
(-49.9897 0.0842254 0 0.00581607 0 0)
(-50.0532 0.0985393 0 0.00491519 0 0)
(-50.1214 0.104469 0 0.00486901 0 0)
(-50.1868 0.108823 0 0.005242 0 0)
(-50.2474 0.113977 0 0.00579868 0 0)
(-50.3072 0.118973 0 0.00647438 0 0)
(-50.3689 0.122259 0 0.00730987 0 0)
(-50.433 0.123031 0 0.00834491 0 0)
(-50.4988 0.121658 0 0.00957953 0 0)
(-50.566 0.118759 0 0.0110065 0 0)
(-50.6339 0.115013 0 0.0126018 0 0)
(-50.7019 0.110371 0 0.0143614 0 0)
(-50.7696 0.104901 0 0.0162206 0 0)
(-50.836 0.0980425 0 0.0182124 0 0)
(-50.9015 0.0902184 0 0.020232 0 0)
(-50.9654 0.0807578 0 0.0223057 0 0)
(-49.9428 0.0765623 0 0.00835269 0 0)
(-50.0087 0.0863135 0 0.00570738 0 0)
(-50.0882 0.1078 0 0.00361005 0 0)
(-50.1787 0.119567 0 0.00291835 0 0)
(-50.2699 0.122269 0 0.00288525 0 0)
(-50.3534 0.122714 0 0.00311619 0 0)
(-50.4273 0.123586 0 0.00345328 0 0)
(-50.4954 0.12449 0 0.00387217 0 0)
(-50.5621 0.124917 0 0.00439874 0 0)
(-50.6297 0.124791 0 0.0050607 0 0)
(-50.6986 0.124298 0 0.00586434 0 0)
(-50.7686 0.123214 0 0.00680692 0 0)
(-50.839 0.121225 0 0.00787003 0 0)
(-50.9092 0.117823 0 0.0090353 0 0)
(-50.9787 0.113116 0 0.0102523 0 0)
(-51.048 0.106985 0 0.011539 0 0)
(-51.1164 0.100215 0 0.0128423 0 0)
(-51.1853 0.0925868 0 0.0141926 0 0)
(-49.7697 0.0524899 0 0.00762163 0 0)
(-49.7725 0.11183 0 0.00548694 0 0)
(-49.8382 0.148874 0 0.00355659 0 0)
(-49.9423 0.165811 0 0.00269366 0 0)
(-50.0397 0.171712 0 0.00242175 0 0)
(-50.117 0.175111 0 0.00247449 0 0)
(-50.1825 0.179014 0 0.00268499 0 0)
(-50.246 0.183088 0 0.00296805 0 0)
(-50.3113 0.186504 0 0.00330558 0 0)
(-50.3779 0.188903 0 0.00371688 0 0)
(-50.4448 0.190295 0 0.00422081 0 0)
(-50.5121 0.190656 0 0.00482108 0 0)
(-50.5804 0.190053 0 0.00550563 0 0)
(-50.6494 0.188315 0 0.00626544 0 0)
(-50.7195 0.185535 0 0.00706327 0 0)
(-50.7899 0.181526 0 0.0079221 0 0)
(-50.8618 0.176766 0 0.00879516 0 0)
(-50.9341 0.1709 0 0.00967573 0 0)
(-50.0226 0.0491171 0 0.00749505 0 0)
(-50.1089 0.129206 0 0.00562182 0 0)
(-50.2338 0.150351 0 0.00378096 0 0)
(-50.3624 0.151453 0 0.00300242 0 0)
(-50.4739 0.151423 0 0.00272867 0 0)
(-50.5726 0.154478 0 0.00264598 0 0)
(-50.6684 0.158651 0 0.00263422 0 0)
(-50.7645 0.162216 0 0.00267421 0 0)
(-50.8579 0.165056 0 0.00277984 0 0)
(-50.9453 0.167764 0 0.00295806 0 0)
(-51.0262 0.170578 0 0.00320503 0 0)
(-51.1017 0.173071 0 0.0035144 0 0)
(-51.1738 0.17466 0 0.00388272 0 0)
(-51.2437 0.174758 0 0.00430705 0 0)
(-51.3129 0.173476 0 0.00475842 0 0)
(-51.3822 0.17102 0 0.00525604 0 0)
(-51.4535 0.168128 0 0.00577723 0 0)
(-51.5267 0.164981 0 0.0063096 0 0)
(-49.943 0.0920927 0 0.00569642 0 0)
(-50.0793 0.193126 0 0.00320512 0 0)
(-50.2193 0.223861 0 0.00171859 0 0)
(-50.3361 0.228532 0 0.00119928 0 0)
(-50.4262 0.234271 0 0.000973443 0 0)
(-50.5064 0.242661 0 0.000855481 0 0)
(-50.5899 0.248378 0 0.000805135 0 0)
(-50.6778 0.250115 0 0.000806195 0 0)
(-50.765 0.249624 0 0.000852141 0 0)
(-50.8467 0.248592 0 0.000941232 0 0)
(-50.922 0.247726 0 0.00107242 0 0)
(-50.9936 0.246978 0 0.00124604 0 0)
(-51.065 0.246137 0 0.00145962 0 0)
(-51.1385 0.245042 0 0.00170957 0 0)
(-51.2157 0.243901 0 0.00198296 0 0)
(-51.2958 0.242746 0 0.00229662 0 0)
(-51.3788 0.24188 0 0.00263155 0 0)
(-51.463 0.240947 0 0.0029798 0 0)
(-50.154 0.0849885 0 0.00484031 0 0)
(-50.3503 0.153273 0 0.00237814 0 0)
(-50.5421 0.171276 0 0.00127582 0 0)
(-50.6728 0.172998 0 0.000900011 0 0)
(-50.7559 0.17959 0 0.000728586 0 0)
(-50.8239 0.189557 0 0.000621839 0 0)
(-50.8938 0.197597 0 0.000547548 0 0)
(-50.9693 0.202565 0 0.000500693 0 0)
(-51.0505 0.205711 0 0.000477548 0 0)
(-51.1366 0.208445 0 0.000478029 0 0)
(-51.2268 0.211619 0 0.000503273 0 0)
(-51.3198 0.215661 0 0.000547442 0 0)
(-51.4145 0.22014 0 0.000608592 0 0)
(-51.5084 0.224479 0 0.000692886 0 0)
(-51.601 0.227907 0 0.000805482 0 0)
(-51.6895 0.230457 0 0.000955011 0 0)
(-51.7769 0.232132 0 0.00113014 0 0)
(-51.8599 0.233569 0 0.00131396 0 0)
(-50.2107 0.202038 0 0.00271298 0 0)
(-50.5707 0.292841 0 0.000140578 0 0)
(-50.884 0.282817 0 -0.00038631 0 0)
(-51.0877 0.278752 0 -0.000554616 0 0)
(-51.2149 0.285629 0 -0.000719275 0 0)
(-51.3059 0.291956 0 -0.000838052 0 0)
(-51.3748 0.294975 0 -0.000905773 0 0)
(-51.4229 0.296591 0 -0.000941962 0 0)
(-51.4508 0.298271 0 -0.000961764 0 0)
(-51.4617 0.300329 0 -0.000971221 0 0)
(-51.4572 0.302306 0 -0.000967039 0 0)
(-51.4405 0.303959 0 -0.000946911 0 0)
(-51.4098 0.304789 0 -0.000905827 0 0)
(-51.3686 0.304903 0 -0.000848046 0 0)
(-51.3132 0.304107 0 -0.000776091 0 0)
(-51.2519 0.303223 0 -0.000692156 0 0)
(-51.1768 0.302264 0 -0.000597179 0 0)
(-51.1042 0.302326 0 -0.000508508 0 0)
(-49.1212 0.117879 0 0.00231741 0 0)
(-47.5569 0.214256 0 0.000255659 0 0)
(-45.9528 0.207035 0 -1.48681e-05 0 0)
(-44.335 0.199013 0 -0.000113962 0 0)
(-42.7738 0.196846 0 -0.000217545 0 0)
(-41.302 0.194285 0 -0.00028277 0 0)
(-39.9215 0.190076 0 -0.000313022 0 0)
(-38.6253 0.18505 0 -0.000325401 0 0)
(-37.4046 0.179988 0 -0.000330958 0 0)
(-36.2533 0.175394 0 -0.000334822 0 0)
(-35.1636 0.171344 0 -0.000338161 0 0)
(-34.1337 0.167692 0 -0.000339915 0 0)
(-33.1577 0.163954 0 -0.000334515 0 0)
(-32.2394 0.159915 0 -0.00032155 0 0)
(-31.3697 0.155379 0 -0.000302418 0 0)
(-30.5585 0.150823 0 -0.000277907 0 0)
(-29.7848 0.146359 0 -0.000253892 0 0)
(-29.0711 0.142814 0 -0.000240838 0 0)
(-0.0178531 0.0433632 -2.27418e-22 -0.0927315 4.41733e-22 4.13974e-39)
(-0.0801273 0.0168684 5.61895e-22 0.0128959 -2.4992e-22 4.07354e-39)
(0.0170342 -0.0987236 0 0.0444713 0 0)
(0.333986 -0.19545 0 0.0167528 0 0)
(0.729738 -0.166163 0 -0.0585427 0 0)
(0.97513 -0.0219167 -7.13566e-22 -0.117099 -3.19545e-22 3.83112e-39)
(0.916068 0.173811 0 -0.131119 0 0)
(0.529095 0.330015 0 -0.101718 0 0)
(-0.0825059 0.403971 0 -0.0506689 0 0)
(-0.762719 0.388292 0 0.00282321 0 0)
(-1.35843 0.305943 -9.2214e-22 0.0421013 4.51259e-22 3.52195e-39)
(-1.78517 0.211483 0 0.0581268 0 0)
(-2.02625 0.132258 0 0.0617273 0 0)
(-2.08545 0.0360891 0 0.0670457 0 0)
(-1.99415 -0.0892778 0 0.0720628 0 0)
(-1.74284 -0.24949 -2.54251e-21 0.0765302 2.39882e-22 3.24063e-39)
(-1.26979 -0.22783 0 0.0618399 0 0)
(-0.929435 0.00269795 0 0.0538758 0 0)
(-0.730262 0.112745 0 0.0696586 0 0)
(-0.65011 0.130018 0 0.0897773 0 0)
(-0.509179 0.110953 0 0.110959 0 0)
(-0.156059 0.0861465 0 0.134245 0 0)
(0.48253 0.00636244 0 0.145774 0 0)
(1.29686 -0.191757 -3.69473e-21 0.13163 2.91862e-23 2.85244e-39)
(2.45486 -0.438899 3.6783e-21 0.140966 6.06192e-23 2.80777e-39)
(3.74647 -0.451882 -3.62553e-21 0.159924 -1.25076e-22 2.76369e-39)
(5.04284 -0.362835 -3.5693e-21 0.209726 -1.73172e-22 2.72009e-39)
(6.39583 -0.231398 0 0.259614 0 0)
(7.59484 -0.106381 0 0.232583 0 0)
(8.72783 -0.227529 3.51178e-21 0.255505 8.12402e-23 2.58763e-39)
(9.88773 -0.372209 3.60274e-21 0.253022 1.02686e-22 2.54251e-39)
(11.0964 -0.451377 0 0.238816 0 0)
(12.3618 -0.476881 0 0.22993 0 0)
(13.5651 -0.449088 4.19535e-21 0.239065 6.31693e-23 2.41057e-39)
(14.6258 -0.408497 0 0.264633 0 0)
(15.5829 -0.382746 0 0.308638 0 0)
(16.5202 -0.42459 -4.93832e-21 0.379489 -1.2927e-23 2.28407e-39)
(17.5715 -0.529548 0 0.414816 0 0)
(18.7687 -0.63937 -5.55548e-21 0.392278 -2.84429e-23 2.20356e-39)
(19.957 -0.64589 -1.16451e-20 0.323299 -3.71466e-23 8.65566e-39)
(20.83 -0.476633 0 0.273185 0 0)
(21.2183 -0.287961 0 0.268322 0 0)
(21.1748 -0.164314 0 0.304508 0 0)
(20.8894 -0.322489 0 0.328665 0 0)
(21.1756 -0.630144 0 0.361766 0 0)
(21.8968 -0.796731 -1.25722e-20 0.385342 7.97496e-22 7.75317e-39)
(22.8614 -1.12637 -1.28388e-20 0.386692 8.93808e-22 7.60666e-39)
(23.791 -1.17996 -1.2905e-20 0.461189 8.70156e-22 7.46159e-39)
(24.7568 -0.660587 0 0.269393 0 0)
(25.2383 -0.497547 1.31379e-20 0.345332 -2.04174e-22 7.17575e-39)
(26.08 -0.516469 0 0.27513 0 0)
(26.9478 -0.468522 -1.35556e-20 0.262396 1.95639e-22 6.90145e-39)
(27.7444 -0.3668 -1.39655e-20 0.240533 1.19069e-22 6.76932e-39)
(28.3326 -0.311871 0 0.211652 0 0)
(28.8891 -0.27659 0 0.1872 0 0)
(29.079 -0.445271 0 0.207551 0 0)
(29.1345 -0.240636 -1.59851e-20 0.198447 2.11541e-22 6.26894e-39)
(28.5883 -0.0780014 0 0.276133 0 0)
(28.4079 -0.187983 0 0.219721 0 0)
(28.3704 -0.400557 0 0.19315 0 0)
(29.3072 -0.571209 0 0.165173 0 0)
(30.102 -1.21812 0 0.204538 0 0)
(31.0237 -0.9737 0 0.15587 0 0)
(30.1478 -0.227213 0 0.294427 0 0)
(29.0796 -0.131593 0 0.277726 0 0)
(28.2219 -0.0851177 1.55242e-20 0.27514 5.60155e-22 5.25273e-39)
(27.473 -0.175288 0 0.26815 0 0)
(26.9672 -0.255639 0 0.260486 0 0)
(26.5125 -0.303457 -1.24456e-20 0.250174 -7.07792e-23 4.93538e-39)
(26.1109 -0.314806 -1.16312e-20 0.239358 -8.35418e-23 4.83309e-39)
(25.7848 -0.322178 0 0.228019 0 0)
(25.583 -0.317198 1.04315e-20 0.217495 -1.01263e-22 4.63428e-39)
(25.6301 -0.348998 -1.01095e-20 0.212434 2.4095e-22 4.53715e-39)
(25.9541 -0.38606 0 0.209123 0 0)
(26.2868 -0.361989 9.55013e-21 0.199101 -4.38497e-22 4.3447e-39)
(26.4454 -0.2689 0 0.180784 0 0)
(26.3038 -0.142515 0 0.159616 0 0)
(25.6817 0.0218401 -7.34578e-21 0.142488 5.83227e-23 4.07174e-39)
(24.3747 0.229715 0 0.135413 0 0)
(22.1953 0.455709 6.01646e-21 0.139293 3.67169e-23 3.90213e-39)
(19.1988 0.620878 0 0.147185 0 0)
(15.5751 0.612317 -4.65008e-21 0.146745 -2.13279e-22 3.74176e-39)
(12.1774 0.504834 -4.0165e-21 0.150914 -1.4126e-22 3.66422e-39)
(8.61691 0.293618 -3.39272e-21 0.162566 -9.82279e-24 3.58799e-39)
(6.13243 -0.177896 -6.40704e-21 0.166389 6.30978e-22 1.40506e-38)
(3.28192 -0.484428 5.73771e-21 0.221514 -1.02018e-21 1.37524e-38)
(0.444275 -0.511467 0 0.235634 0 0)
(-4.39108 0.330623 0 0.31408 0 0)
(-11.2603 1.85501 0 0.268766 0 0)
(-18.5753 1.70108 -4.94385e-21 0.310173 1.9061e-21 1.25754e-38)
(-22.3721 0.918658 -8.12297e-21 0.22382 8.70901e-22 1.22896e-38)
(-23.9447 0.359106 9.2163e-21 0.169283 -4.48923e-23 1.20134e-38)
(-23.8142 -0.0668057 0 0.124675 0 0)
(-22.4174 -0.367551 -5.18133e-21 0.0941419 -1.05459e-21 1.1492e-38)
(-20.0828 -0.582522 -8.24664e-22 0.0709506 -1.3415e-21 1.12451e-38)
(-17.0609 -0.728807 4.48824e-21 0.0533669 -1.49972e-21 1.10055e-38)
(-13.5594 -0.821868 0 0.039055 0 0)
(-9.75509 -0.870468 0 0.0272266 0 0)
(-5.80328 -0.881731 0 0.017157 0 0)
(-1.84322 -0.861215 2.74472e-20 0.00859846 -1.27688e-21 1.00962e-38)
(2.0018 -0.8157 0 0.00138774 0 0)
(5.62292 -0.747228 0 -0.00453981 0 0)
(8.93411 -0.66218 -3.83197e-20 -0.00919027 6.31253e-22 9.43985e-39)
(11.8633 -0.565095 0 -0.0126052 0 0)
(14.3643 -0.46117 0 -0.0148804 0 0)
(16.4064 -0.354541 -3.95847e-20 -0.0161414 -4.14407e-23 8.79833e-39)
(17.9751 -0.249313 0 -0.01653 0 0)
(19.0739 -0.148928 0 -0.0162013 0 0)
(19.7202 -0.0562905 3.2586e-20 -0.0153238 4.94093e-22 8.17975e-39)
(19.9463 0.0266096 2.9107e-20 -0.0140402 5.79787e-22 7.98037e-39)
(19.7958 0.0981669 0 -0.0124826 0 0)
(19.3191 0.157528 -2.15083e-20 -0.0107628 -6.58393e-22 7.5938e-39)
(18.5674 0.204962 0 -0.00894566 0 0)
(17.5922 0.241186 1.40792e-20 -0.00714923 6.39325e-22 7.22386e-39)
(16.4379 0.267125 0 -0.00554232 0 0)
(15.144 0.285532 7.60392e-21 -0.00389858 5.67646e-22 6.86703e-39)
(13.7473 0.297127 4.8379e-21 -0.00234108 5.21303e-22 6.69395e-39)
(12.2801 0.302585 0 -0.000896462 0 0)
(10.7725 0.302354 0 0.000405482 0 0)
(9.25271 0.296748 0 0.00153602 0 0)
(7.74673 0.28631 0 0.0024592 0 0)
(6.27767 0.271754 0 0.00315335 0 0)
(4.86634 0.25469 0 0.00373156 0 0)
(3.53094 0.236097 0 0.00411105 0 0)
(2.27893 0.216483 -6.2888e-21 0.00435715 1.85736e-22 5.43004e-39)
(1.11931 0.195339 6.68618e-21 0.00446955 -1.62903e-22 5.28325e-39)
(0.0544434 0.174274 0 0.00448469 0 0)
(-0.914139 0.153869 0 0.00442576 0 0)
(-1.78758 0.134477 0 0.00430878 0 0)
(-2.5693 0.116446 0 0.00415417 0 0)
(-3.26457 0.100039 1.51269e-20 0.00398061 -1.96706e-22 1.83869e-38)
(-3.88041 0.0855832 0 0.00379667 0 0)
(-4.42606 0.0734373 -1.54367e-20 0.00360386 1.7237e-22 1.73713e-38)
(-4.9128 0.063616 1.55799e-20 0.0034127 -1.61676e-22 1.68802e-38)
(-5.35175 0.0557487 0 0.00324642 0 0)
(-5.75296 0.0493708 0 0.00312767 0 0)
(-6.12418 0.0440952 0 0.00306916 0 0)
(-6.47097 0.0395927 -1.60904e-20 0.00307454 1.03777e-22 1.50198e-38)
(-6.79675 0.0355502 -1.61694e-20 0.00314489 8.37728e-23 1.45794e-38)
(-7.10306 0.0316774 0 0.00327838 0 0)
(-7.39001 0.0276955 -1.62355e-20 0.00347127 4.63698e-23 1.3727e-38)
(-7.656 0.0233952 -1.62177e-20 0.00371883 2.46979e-23 1.33145e-38)
(-7.89843 0.0186031 1.61614e-20 0.00401685 -1.82216e-24 1.29108e-38)
(-8.11339 0.0131677 0 0.00436158 0 0)
(-8.29587 0.00699635 0 0.00475076 0 0)
(-8.43991 1.68255e-05 1.57779e-20 0.00518562 6.15849e-23 1.17515e-38)
(-8.53915 -0.00779001 0 0.00567505 0 0)
(-8.58652 -0.0163373 0 0.0062362 0 0)
(-8.57492 -0.0254628 0 0.00688996 0 0)
(-8.4974 -0.0349453 0 0.00765676 0 0)
(-8.34778 -0.0443906 -1.44911e-20 0.00856087 -1.81616e-22 9.98215e-39)
(-8.12012 -0.0532535 -1.408e-20 0.00964637 -2.02059e-22 9.65155e-39)
(-7.80917 -0.0612047 0 0.0109919 0 0)
(-7.40797 -0.0683393 -1.30296e-20 0.0127738 -2.6053e-22 9.01264e-39)
(-6.90485 -0.0738293 0 0.0153618 0 0)
(-6.28761 -0.0745567 0 0.0191135 0 0)
(-5.55101 -0.0671243 -1.04006e-20 0.0241023 -2.96083e-22 8.10991e-39)
(-4.6991 -0.0487809 0 0.0297533 0 0)
(-3.75832 -0.0150662 -7.95175e-21 0.0349057 -1.77254e-22 7.54457e-39)
(-2.8125 0.0297051 0 0.0375886 0 0)
(-1.9707 0.0644663 0 0.0357157 0 0)
(-1.32335 0.0626817 -4.90946e-21 0.030582 5.50057e-23 6.74601e-39)
(-0.896682 0.0199268 0 0.0267236 0 0)
(-0.528882 -0.0587099 -3.83724e-21 0.0256277 -2.09368e-22 6.24388e-39)
(-0.0505587 -0.100743 0 0.0237878 0 0)
(0.503719 -0.0959494 0 0.0195875 0 0)
(1.09639 -0.0722201 0 0.0171193 0 0)
(1.68974 -0.0301192 8.34184e-22 0.0166314 8.00143e-23 5.31371e-39)
(2.17429 0.00855067 0 0.0176131 0 0)
(2.49545 0.0295439 4.88452e-22 0.018732 -1.72438e-23 4.88439e-39)
(2.68231 0.0335619 0 0.0184193 0 0)
(2.76948 0.0233038 0 0.0169772 0 0)
(2.82507 0.00311825 0 0.0163779 0 0)
(2.94459 -0.013622 0 0.0167911 0 0)
(3.09096 -0.00240271 0 0.0160296 0 0)
(3.17593 0.007405 0 0.0142464 0 0)
(3.26668 0.0167307 0 0.00797273 0 0)
(3.28911 0.0108572 -7.7888e-21 0.00471286 -1.01283e-22 1.3548e-38)
(3.22544 0.0299608 0 0.00125191 0 0)
(2.96447 0.0788809 0 0.00384832 0 0)
(0.00645701 -0.00882813 6.19925e-23 -0.22294 -3.21454e-21 3.72529e-38)
(0.0347864 -0.115926 -1.00558e-22 0.222159 2.65819e-21 3.67223e-38)
(0.142313 -0.284952 0 0.579381 0 0)
(0.220561 -0.289712 4.04428e-24 0.504246 -4.57554e-22 1.58081e-38)
(0.142684 0.0509332 0 -0.0571718 0 0)
(-0.210525 0.604491 -3.31626e-22 -0.605595 6.60732e-22 3.81101e-39)
(-0.765512 1.08763 1.34903e-21 -0.812834 -2.11659e-21 1.49818e-38)