/*--------------------------------*- C++ -*----------------------------------*\
  =========                 |
  \\      /  F ield         | OpenFOAM: The Open Source CFD Toolbox
   \\    /   O peration     | Website:  https://openfoam.org
    \\  /    A nd           | Version:  9
     \\/     M anipulation  |
\*---------------------------------------------------------------------------*/
FoamFile
{
    format      ascii;
    class       volScalarField;
    location    "0.073";
    object      p;
}
// * * * * * * * * * * * * * * * * * * * * * * * * * * * * * * * * * * * * * //

dimensions      [0 2 -2 0 0 0 0];

internalField   nonuniform List<scalar> 
12225
(
264.136
261.778
260.56
259.39
258.033
256.477
254.716
252.805
250.827
248.789
246.657
244.382
241.978
239.36
236.572
233.416
229.928
225.502
263.691
261.674
260.563
259.404
258.039
256.479
254.721
252.82
250.848
248.819
246.693
244.43
242.023
239.442
236.643
233.611
230.178
226.501
262.486
261.623
260.611
259.435
258.057
256.511
254.772
252.879
250.904
248.871
246.744
244.488
242.107
239.562
236.834
233.902
230.741
227.388
262.05
261.471
260.636
259.484
258.096
256.54
254.803
252.926
250.962
248.942
246.825
244.592
242.234
239.741
237.09
234.287
231.337
228.294
260.377
261.441
260.759
259.57
258.18
256.637
254.911
253.035
251.062
249.047
246.939
244.726
242.405
239.972
237.415
234.749
231.999
229.227
259.887
261.406
260.874
259.677
258.263
256.697
254.973
253.118
251.158
249.175
247.089
244.907
242.632
240.267
237.81
235.283
232.721
230.184
260.426
261.582
261.077
259.851
258.436
256.893
255.17
253.319
251.378
249.356
247.284
245.136
242.914
240.627
238.279
235.893
233.508
231.179
260.305
261.901
261.297
260.053
258.599
257.008
255.281
253.431
251.555
249.57
247.529
245.424
243.263
241.057
238.819
236.572
234.353
232.209
260.473
262.517
261.644
260.333
258.873
257.283
255.56
253.723
251.804
249.838
247.821
245.758
243.661
241.544
239.42
237.31
235.247
233.27
266.579
263.73
262.06
260.643
259.149
257.518
255.779
253.958
252.085
250.153
248.178
246.168
244.138
242.106
240.088
238.105
236.185
234.359
270.531
264.733
262.536
261.037
259.521
257.876
256.139
254.318
252.443
250.533
248.593
246.633
244.671
242.726
240.812
238.949
237.161
235.471
270.903
265.143
262.914
261.392
259.888
258.243
256.494
254.67
252.807
250.923
249.022
247.114
245.218
243.353
241.534
239.777
238.102
236.53
269.517
265.032
263.24
261.843
260.333
258.68
256.915
255.084
253.228
251.364
249.497
247.639
245.809
244.025
242.299
240.645
239.077
237.613
262.897
264.067
263.54
262.385
260.913
259.255
257.475
255.627
253.769
251.923
250.092
248.286
246.524
244.821
243.189
241.639
240.181
238.827
257.546
263.82
264.248
263.287
261.797
260.085
258.245
256.35
254.477
252.65
250.859
249.109
247.421
245.808
244.274
242.824
241.466
240.209
264.092
266.259
265.88
264.67
262.984
261.145
259.222
257.283
255.408
253.6
251.837
250.126
248.493
246.954
245.511
244.163
242.91
241.756
277.603
271.539
268.849
266.869
264.809
262.681
260.542
258.488
256.553
254.718
252.965
251.298
249.731
248.272
246.919
245.667
244.517
243.466
267.367
273.179
272.12
269.532
266.946
264.446
262.081
259.914
257.932
256.084
254.343
252.714
251.206
249.814
248.528
247.341
246.25
245.253
304.859
287.955
279.111
273.677
269.726
266.521
263.812
261.471
259.391
257.497
255.753
254.155
252.694
251.358
250.133
249.01
247.985
247.051
293.675
285.554
279.29
274.383
270.499
267.38
264.752
262.443
260.385
258.532
256.839
255.285
253.865
252.568
251.38
250.291
249.294
248.383
293.299
284.791
278.613
274.156
270.605
267.685
265.196
262.953
260.927
259.119
257.479
255.968
254.578
253.306
252.142
251.076
250.1
249.209
280.363
278.421
275.894
272.833
270.006
267.484
265.233
263.146
261.226
259.483
257.895
256.432
255.083
253.844
252.707
251.661
250.699
249.816
275.37
275.69
273.956
271.705
269.411
267.234
265.155
263.211
261.392
259.712
258.163
256.728
255.404
254.188
253.069
252.037
251.086
250.212
274.146
273.843
272.581
270.803
268.816
266.8
264.984
263.188
261.472
259.861
258.355
256.949
255.644
254.444
253.341
252.325
251.388
250.522
273.33
272.49
271.502
270.089
268.444
266.738
264.915
263.19
261.526
259.943
258.461
257.079
255.795
254.609
253.515
252.506
251.573
250.712
273.159
271.635
270.746
269.608
268.114
266.446
264.801
263.16
261.549
260.005
258.547
257.178
255.902
254.721
253.635
252.636
251.716
250.863
267.779
270.439
270.192
269.244
267.896
266.372
264.789
263.176
261.58
260.043
258.594
257.235
255.968
254.796
253.716
252.719
251.798
250.946
266.91
270.02
269.922
269.04
267.75
266.274
264.743
263.174
261.602
260.077
258.632
257.273
256.005
254.834
253.758
252.77
251.861
251.022
270.135
269.995
269.733
268.906
267.684
266.255
264.748
263.193
261.623
260.097
258.648
257.29
256.029
254.863
253.789
252.8
251.889
251.053
270.585
270.067
269.706
268.859
267.646
266.228
264.741
263.211
261.659
260.134
258.674
257.299
256.023
254.853
253.784
252.806
251.912
251.089
228.462
228.162
227.893
227.742
227.892
228.359
229.012
229.629
230.042
230.189
230.065
229.709
229.193
228.575
227.9
227.201
226.502
225.818
225.161
224.541
223.965
223.439
222.972
222.569
222.239
221.99
221.828
221.761
221.796
221.935
222.185
222.557
223.036
223.644
224.375
225.197
226.175
227.211
228.188
229.248
229.78
229.038
227.292
225.599
224.427
223.812
223.629
224.207
225.201
226.249
227.086
227.52
227.563
227.308
227.048
226.826
226.588
225.958
224.948
223.838
222.576
221.072
220.702
219.746
215.248
208.746
201.607
194.256
187.057
180.095
173.439
167.063
160.978
155.16
149.623
144.37
139.43
134.826
130.597
126.778
123.414
120.549
118.23
116.505
115.419
115.016
115.33
116.412
118.274
120.929
124.362
128.529
133.349
138.702
144.423
150.318
156.176
161.801
167.031
171.757
175.927
179.537
182.616
185.208
187.36
189.111
190.49
191.515
192.201
192.563
192.616
192.381
191.885
191.162
190.241
189.164
187.957
186.655
185.288
183.879
182.443
180.992
179.529
178.054
176.568
175.069
173.561
172.047
170.531
169.006
167.479
165.955
164.438
162.931
161.438
159.96
158.502
157.065
155.651
154.261
152.894
151.547
150.217
148.9
147.59
146.284
144.978
143.672
142.363
141.047
139.712
138.343
136.914
135.416
133.864
132.319
130.842
129.467
128.174
126.916
125.642
124.274
122.681
120.726
118.43
115.93
113.184
110.193
107.249
104.301
101.065
98.0082
95.9968
94.397
92.0317
89.9098
90.2051
91.187
91.8938
92.366
227.172
226.929
226.813
226.731
226.997
227.49
228.105
228.607
228.884
228.922
228.74
228.39
227.927
227.392
226.816
226.218
225.613
225.016
224.435
223.882
223.363
222.885
222.458
222.088
221.785
221.556
221.41
221.355
221.391
221.526
221.759
222.082
222.506
223.016
223.625
224.317
225.07
225.892
226.567
227.186
227.539
226.356
224.314
223.542
223.919
224.152
224.022
224.08
224.488
225.291
226.265
226.936
227.072
226.687
226.055
225.945
226.08
225.875
225.307
224.168
223.469
220.722
218.378
215.909
210.905
204.789
198.098
191.351
184.694
178.218
171.927
165.83
159.924
154.229
148.762
143.554
138.636
134.043
129.813
125.987
122.61
119.729
117.392
115.649
114.552
114.145
114.476
115.566
117.451
120.127
123.583
127.782
132.649
138.06
143.851
149.821
155.755
161.449
166.734
171.499
175.692
179.313
182.397
184.994
187.156
188.921
190.32
191.367
192.075
192.456
192.526
192.305
191.817
191.097
190.179
189.1
187.89
186.585
185.215
183.803
182.368
180.921
179.464
177.997
176.519
175.028
173.526
172.017
170.501
168.982
167.46
165.94
164.424
162.918
161.426
159.949
158.492
157.056
155.644
154.255
152.888
151.541
150.211
148.893
147.584
146.278
144.972
143.666
142.358
141.044
139.713
138.347
136.92
135.415
133.859
132.304
130.822
129.446
128.154
126.898
125.628
124.275
122.701
120.75
118.449
115.934
113.181
110.2
107.213
104.221
100.984
97.8352
95.5369
93.7649
91.0111
89.6536
90.6608
91.3034
91.8015
92.285
227.53
227.485
227.505
227.423
227.374
227.412
227.5
227.557
227.523
227.375
227.121
226.783
226.382
225.936
225.456
224.955
224.445
223.935
223.436
222.955
222.501
222.08
221.701
221.375
221.111
220.92
220.81
220.789
220.856
221.013
221.256
221.588
222.01
222.506
223.056
223.653
224.249
224.813
225.303
225.66
225.84
225.665
225.41
225.414
225.391
225.068
224.666
224.687
225.382
226.451
227.423
227.911
227.802
227.21
226.331
225.767
225.784
225.765
225.577
224.458
222.374
219.24
214.993
210.28
205.02
199.484
193.702
187.83
181.887
175.949
170.034
164.195
158.458
152.869
147.463
142.283
137.369
132.765
128.512
124.656
121.244
118.325
115.95
114.171
113.04
112.611
112.928
114.018
115.896
118.581
122.067
126.317
131.26
136.775
142.692
148.804
154.884
160.714
166.112
170.955
175.193
178.834
181.925
184.531
186.709
188.505
189.944
191.038
191.795
192.22
192.326
192.133
191.662
190.954
190.041
188.962
187.75
186.441
185.064
183.648
182.212
180.767
179.317
177.861
176.395
174.918
173.429
171.93
170.423
168.912
167.401
165.891
164.387
162.889
161.402
159.929
158.474
157.039
155.628
154.24
152.875
151.53
150.203
148.887
147.579
146.272
144.965
143.656
142.348
141.036
139.712
138.355
136.935
135.428
133.851
132.272
130.782
129.404
128.108
126.849
125.595
124.265
122.712
120.785
118.495
115.959
113.199
110.22
107.19
104.12
100.863
97.6576
94.9898
93.0237
91.1956
90.2222
90.4274
91.2236
92.0382
92.4079
227.26
227.232
227.193
227.123
226.962
226.741
226.513
226.289
226.052
225.782
225.47
225.116
224.726
224.312
223.883
223.448
223.014
222.586
222.168
221.764
221.377
221.014
220.686
220.404
220.183
220.035
219.975
220.007
220.134
220.356
220.657
221.029
221.484
222.013
222.592
223.211
223.822
224.379
224.873
225.27
225.551
225.688
225.684
225.599
225.565
225.657
225.981
226.615
227.395
228.071
228.579
228.826
228.677
228.087
227.184
226.303
225.787
225.458
224.766
223.222
220.098
215.513
210.426
205.345
200.245
195.127
189.884
184.53
179.032
173.442
167.78
162.111
156.48
150.949
145.566
140.386
135.455
130.82
126.525
122.618
119.149
116.17
113.737
111.905
110.731
110.269
110.564
111.65
113.535
116.247
119.784
124.116
129.177
134.85
140.959
147.285
153.584
159.618
165.184
170.147
174.452
178.122
181.221
183.833
186.032
187.868
189.366
190.531
191.36
191.852
192.016
191.866
191.43
190.745
189.847
188.774
187.561
186.245
184.86
183.436
181.995
180.551
179.107
177.66
176.208
174.745
173.273
171.792
170.303
168.808
167.31
165.814
164.324
162.84
161.364
159.9
158.453
157.025
155.619
154.236
152.874
151.529
150.198
148.882
147.573
146.266
144.959
143.65
142.342
141.032
139.714
138.368
136.956
135.44
133.831
132.219
130.714
129.342
128.045
126.78
125.533
124.228
122.7
120.795
118.522
115.998
113.222
110.22
107.142
104.014
100.668
97.2382
94.2976
92.19
90.5393
89.7253
90.3688
91.3697
92.1182
92.4951
226.965
226.954
226.841
226.595
226.233
225.824
225.409
225
224.592
224.175
223.745
223.307
222.868
222.441
222.04
221.672
221.338
221.03
220.738
220.454
220.173
219.897
219.637
219.409
219.234
219.131
219.113
219.192
219.366
219.636
220.002
220.452
220.984
221.59
222.251
222.961
223.685
224.352
224.906
225.322
225.601
225.746
225.784
225.795
225.884
226.103
226.464
227.017
227.725
228.435
228.977
229.191
229.017
228.439
227.504
226.485
225.585
224.717
223.43
220.918
216.439
211.157
206.095
201.225
196.37
191.49
186.475
181.33
176.022
170.588
165.047
159.459
153.878
148.371
142.996
137.808
132.854
128.181
123.835
119.864
116.323
113.271
110.768
108.879
107.663
107.172
107.45
108.532
110.46
113.235
116.856
121.302
126.517
132.387
138.73
145.312
151.872
158.152
163.929
169.048
173.448
177.162
180.279
182.906
185.137
187.028
188.603
189.855
190.77
191.341
191.57
191.474
191.087
190.44
189.57
188.515
187.309
185.992
184.6
183.167
181.72
180.275
178.837
177.402
175.965
174.521
173.068
171.605
170.133
168.657
167.18
165.704
164.233
162.768
161.312
159.866
158.432
157.014
155.614
154.233
152.871
151.529
150.202
148.886
147.575
146.267
144.958
143.648
142.34
141.031
139.718
138.381
136.977
135.45
133.806
132.161
130.652
129.287
127.984
126.702
125.451
124.155
122.635
120.748
118.511
116.007
113.226
110.208
107.097
103.883
100.374
96.6962
93.4467
91.1418
89.6878
89.318
90.0311
91.2159
92.1663
92.6429
227.2
226.98
226.518
225.956
225.361
224.753
224.145
223.545
222.961
222.406
221.897
221.449
221.07
220.757
220.505
220.302
220.135
219.984
219.83
219.659
219.464
219.252
219.037
218.845
218.705
218.639
218.665
218.797
219.035
219.368
219.788
220.292
220.9
221.613
222.385
223.17
223.948
224.677
225.293
225.744
226.016
226.138
226.162
226.148
226.162
226.254
226.499
226.985
227.662
228.324
228.773
228.927
228.795
228.333
227.498
226.402
225.16
223.704
221.711
218
212.496
207.153
202.292
197.557
192.813
188.011
183.063
177.973
172.716
167.32
161.812
156.25
150.692
145.202
139.838
134.648
129.675
124.962
120.554
116.504
112.875
109.736
107.158
105.211
103.961
103.461
103.757
104.884
106.872
109.717
113.426
117.989
123.362
129.436
136.024
142.876
149.715
156.274
162.307
167.63
172.162
175.942
179.089
181.744
184.023
185.994
187.67
189.033
190.051
190.706
190.999
190.954
190.607
189.996
189.159
188.13
186.945
185.641
184.257
182.83
181.387
179.949
178.521
177.101
175.681
174.256
172.825
171.386
169.938
168.484
167.028
165.574
164.124
162.68
161.245
159.818
158.401
156.997
155.607
154.235
152.879
151.538
150.208
148.888
147.576
146.265
144.954
143.644
142.338
141.032
139.724
138.395
136.997
135.458
133.784
132.116
130.608
129.252
127.938
126.632
125.362
124.056
122.536
120.672
118.484
116.005
113.226
110.199
107.042
103.718
100.011
96.0106
92.4064
89.9439
88.6478
88.4603
89.4105
90.8635
92.1012
92.6731
226.932
226.52
225.764
224.993
224.235
223.492
222.771
222.09
221.469
220.923
220.459
220.085
219.805
219.617
219.507
219.454
219.431
219.406
219.351
219.255
219.117
218.947
218.773
218.625
218.532
218.52
218.605
218.803
219.122
219.548
220.06
220.65
221.315
222.105
222.984
223.874
224.713
225.433
225.998
226.392
226.618
226.701
226.676
226.596
226.518
226.508
226.652
226.999
227.464
227.884
228.151
228.221
228.084
227.704
226.985
225.887
224.408
222.468
219.732
214.845
208.869
203.607
198.82
194.058
189.294
184.457
179.485
174.372
169.097
163.689
158.18
152.63
147.095
141.632
136.287
131.094
126.086
121.302
116.794
112.627
108.877
105.626
102.956
100.942
99.6549
99.1579
99.4996
100.7
102.756
105.696
109.534
114.269
119.857
126.18
133.036
140.16
147.268
154.096
160.401
165.971
170.68
174.548
177.718
180.372
182.679
184.73
186.531
188.038
189.191
189.952
190.322
190.328
190.016
189.433
188.621
187.616
186.456
185.176
183.814
182.408
180.986
179.566
178.154
176.749
175.349
173.951
172.549
171.138
169.718
168.291
166.859
165.427
164
162.578
161.163
159.756
158.359
156.972
155.595
154.23
152.878
151.54
150.213
148.895
147.581
146.266
144.951
143.638
142.332
141.031
139.727
138.405
137.011
135.469
133.782
132.108
130.607
129.253
127.924
126.59
125.29
123.958
122.432
120.605
118.471
116.021
113.24
110.195
106.981
103.523
99.5826
95.2669
91.3389
88.6774
87.5067
87.6161
88.7265
90.3148
91.8417
92.5621
225.702
225.235
224.557
223.828
223.081
222.338
221.617
220.937
220.319
219.78
219.359
219.051
218.858
218.77
218.767
218.82
218.893
218.955
218.98
218.961
218.906
218.835
218.775
218.751
218.79
218.908
219.113
219.41
219.815
220.311
220.9
221.577
222.349
223.139
223.952
224.783
225.603
226.296
226.846
227.231
227.448
227.518
227.487
227.403
227.316
227.271
227.302
227.406
227.523
227.594
227.583
227.466
227.237
226.853
226.17
225.022
223.311
220.945
217.546
211.653
205.524
200.356
195.472
190.577
185.716
180.784
175.742
170.571
165.255
159.825
154.316
148.786
143.283
137.844
132.495
127.253
122.149
117.228
112.555
108.208
104.282
100.872
98.0736
95.9761
94.6581
94.1906
94.6238
95.971
98.2334
101.453
105.625
110.715
116.646
123.27
130.369
137.677
144.931
151.898
158.372
164.15
169.065
173.077
176.286
178.901
181.163
183.235
185.144
186.827
188.156
189.061
189.524
189.587
189.311
188.759
187.977
187.002
185.867
184.612
183.28
181.905
180.515
179.124
177.739
176.359
174.98
173.603
172.228
170.852
169.47
168.077
166.676
165.27
163.867
162.467
161.072
159.684
158.303
156.932
155.57
154.218
152.876
151.543
150.218
148.9
147.585
146.27
144.948
143.63
142.322
141.023
139.729
138.418
137.03
135.491
133.816
132.153
130.659
129.3
127.953
126.593
125.255
123.878
122.333
120.539
118.463
116.046
113.263
110.194
106.914
103.315
99.149
94.5474
90.338
87.4713
86.3189
86.642
87.9335
89.5935
91.2995
92.2527
224.577
224.209
223.675
223.026
222.316
221.57
220.811
220.079
219.406
218.827
218.374
218.066
217.904
217.876
217.954
218.1
218.273
218.44
218.583
218.705
218.817
218.938
219.082
219.266
219.504
219.802
220.161
220.578
221.051
221.575
222.144
222.763
223.453
224.2
224.969
225.713
226.719
227.33
227.855
228.269
228.563
228.739
228.81
228.78
228.746
228.661
228.51
228.285
227.987
227.631
227.24
226.836
226.425
225.926
225.135
223.822
221.831
219.058
215.009
208.497
202.325
197.182
192.123
187.06
182.072
177.025
171.9
166.663
161.306
155.858
150.356
144.846
139.355
133.897
128.473
123.095
117.794
112.63
107.687
103.069
98.8952
95.2869
92.362
90.2296
88.9837
88.6822
89.3843
91.1114
93.8799
97.6341
102.316
107.848
114.122
120.981
128.219
135.599
142.886
149.876
156.395
162.281
167.37
171.569
174.89
177.496
179.659
181.66
183.592
185.426
186.931
188.011
188.603
188.736
188.494
187.965
187.213
186.276
185.181
183.965
182.67
181.336
179.989
178.639
177.291
175.942
174.592
173.24
171.89
170.541
169.192
167.837
166.472
165.099
163.722
162.345
160.971
159.601
158.237
156.881
155.532
154.192
152.86
151.536
150.218
148.904
147.592
146.277
144.957
143.638
142.324
141.02
139.728
138.428
137.055
135.531
133.885
132.252
130.763
129.391
128.027
126.645
125.264
123.829
122.248
120.466
118.434
116.056
113.288
110.201
106.849
103.111
98.7578
93.9293
89.4836
86.396
85.1522
85.5118
86.9443
88.6588
90.4187
91.6134
224.319
224.032
223.536
222.887
222.107
221.235
220.325
219.444
218.627
217.908
217.325
216.914
216.691
216.647
216.755
216.976
217.273
217.613
217.978
218.364
218.771
219.199
219.644
220.106
220.579
221.058
221.536
222.017
222.506
223.014
223.558
224.135
224.73
225.352
226.016
226.707
227.429
228.096
228.705
229.219
229.602
229.845
229.974
230.025
229.916
229.687
229.303
228.774
228.123
227.4
226.672
225.996
225.372
224.678
223.671
222.098
219.784
216.588
212.015
205.439
199.153
193.969
188.707
183.479
178.372
173.218
168.014
162.715
157.32
151.856
146.354
140.839
135.308
129.742
124.126
118.47
112.828
107.298
102.006
97.0883
92.6876
88.9496
86.0149
84.0026
82.9985
83.0467
84.2313
86.5079
89.8296
94.1073
99.2381
105.117
111.637
118.668
126.036
133.535
140.943
148.054
154.685
160.692
165.946
170.312
173.73
176.316
178.337
180.195
182.053
183.901
185.529
186.772
187.518
187.758
187.57
187.067
186.344
185.446
184.398
183.229
181.985
180.704
179.411
178.115
176.816
175.511
174.198
172.878
171.554
170.231
168.908
167.583
166.25
164.909
163.562
162.211
160.859
159.509
158.162
156.82
155.484
154.155
152.833
151.517
150.206
148.898
147.593
146.286
144.974
143.658
142.342
141.034
139.737
138.44
137.091
135.582
133.976
132.383
130.9
129.512
128.133
126.734
125.306
123.807
122.184
120.397
118.386
116.044
113.304
110.208
106.791
102.933
98.4387
93.4465
88.7888
85.5274
84.0305
84.2253
85.6356
87.395
89.1674
90.5359
224.919
224.637
224.073
223.292
222.33
221.257
220.094
218.853
217.619
216.507
215.589
214.937
214.574
214.487
214.645
215.005
215.523
216.162
216.891
217.683
218.51
219.348
220.179
220.988
221.761
222.487
223.16
223.777
224.332
224.812
225.223
225.609
226.007
226.427
226.884
227.383
227.909
228.441
228.96
229.402
229.717
229.869
229.876
229.759
229.504
229.082
228.491
227.715
226.832
225.914
225.033
224.227
223.46
222.587
221.369
219.555
216.974
213.496
208.671
202.173
195.841
190.66
185.156
179.813
174.618
169.376
164.102
158.744
153.306
147.813
142.278
136.696
131.018
125.199
119.226
113.149
107.08
101.165
95.56
90.4234
85.9104
82.1773
79.3637
77.5746
76.8911
77.3658
78.9724
81.6671
85.3695
89.983
95.4071
101.556
108.349
115.678
123.378
131.232
138.991
146.406
153.283
159.486
164.916
169.429
172.88
175.366
177.221
178.886
180.594
182.365
184.011
185.341
186.213
186.581
186.495
186.058
185.378
184.531
183.542
182.431
181.243
180.022
178.79
177.552
176.307
175.053
173.788
172.51
171.221
169.926
168.629
167.329
166.022
164.709
163.388
162.063
160.734
159.405
158.076
156.75
155.427
154.11
152.798
151.491
150.187
148.885
147.585
146.285
144.984
143.677
142.373
141.063
139.753
138.443
137.13
135.638
134.081
132.529
131.051
129.642
128.249
126.833
125.357
123.795
122.131
120.327
118.317
116.005
113.304
110.212
106.742
102.787
98.1874
93.083
88.2106
84.6472
82.8615
82.7415
83.9276
85.6587
87.4626
88.9695
225.826
225.47
224.763
223.728
222.331
220.813
219.023
217.172
215.366
213.695
212.237
211.223
210.64
210.481
210.72
211.317
212.224
213.385
214.736
216.206
217.723
219.224
220.66
221.995
223.204
224.273
225.186
225.932
226.505
226.901
227.114
227.173
227.183
227.237
227.341
227.501
227.736
228.034
228.368
228.667
228.862
228.906
228.806
228.549
228.075
227.345
226.379
225.275
224.123
223.039
222.081
221.224
220.374
219.372
218.006
216.048
213.33
209.751
204.934
198.64
192.443
187.066
181.454
176.069
170.811
165.492
160.148
154.722
149.222
143.662
138.029
132.274
126.31
120.09
113.645
107.101
100.642
94.4472
88.6731
83.4594
78.9336
75.2211
72.4565
70.7728
70.2676
70.9528
72.753
75.6748
79.661
84.6116
90.4165
96.9828
104.23
112.052
120.286
128.682
136.941
144.764
151.944
158.349
163.897
168.476
171.972
174.422
176.178
177.706
179.279
180.936
182.512
183.837
184.772
185.239
185.256
184.91
184.311
183.539
182.625
181.588
180.467
179.312
178.146
176.971
175.781
174.576
173.358
172.125
170.877
169.617
168.349
167.076
165.795
164.505
163.208
161.905
160.598
159.29
157.98
156.671
155.363
154.059
152.757
151.459
150.163
148.868
147.574
146.279
144.981
143.681
142.384
141.083
139.768
138.433
137.048
135.688
134.215
132.7
131.21
129.768
128.356
126.919
125.396
123.778
122.07
120.234
118.212
115.926
113.274
110.202
106.699
102.67
97.9806
92.7727
87.6902
83.7386
81.5194
80.9653
81.7815
83.4066
85.2192
86.8635
225.916
225.489
224.568
223.154
221.304
218.879
216.233
213.438
210.663
208.111
206.007
204.367
203.407
203.148
203.581
204.65
206.28
208.383
210.845
213.514
216.203
218.75
221.057
223.089
224.834
226.285
227.43
228.257
228.758
228.943
228.839
228.493
228.063
227.706
227.434
227.237
227.132
227.127
227.208
227.327
227.406
227.366
227.164
226.752
226.032
224.954
223.574
222.037
220.502
219.179
218.111
217.205
216.308
215.232
213.783
211.766
209.027
205.483
200.828
194.812
188.761
183.291
177.721
172.29
166.953
161.547
156.125
150.614
145.018
139.335
133.519
127.481
121.12
114.429
107.526
100.626
93.9422
87.627
81.775
76.4647
71.7956
67.904
64.9616
63.1577
62.6701
63.4345
65.4478
68.7259
73.1749
78.6442
84.9716
92.0337
99.7486
108.051
116.821
125.794
134.611
142.903
150.42
157.02
162.629
167.21
170.742
173.257
175.054
176.566
178.076
179.634
181.103
182.356
183.295
183.835
183.953
183.702
183.182
182.489
181.665
180.717
179.674
178.589
177.493
176.382
175.25
174.094
172.92
171.73
170.521
169.298
168.063
166.82
165.565
164.299
163.024
161.742
160.456
159.167
157.877
156.585
155.292
154
152.71
151.422
150.134
148.847
147.56
146.272
144.978
143.682
142.385
141.086
139.775
138.446
137.099
135.757
134.346
132.858
131.352
129.882
128.449
126.985
125.426
123.763
121.998
120.106
118.058
115.795
113.196
110.158
106.64
102.553
97.7673
92.4221
87.1152
82.7034
79.9104
78.8092
79.1574
80.5404
82.3747
84.167
223.554
223.016
221.81
219.921
217.345
214.095
210.28
206.083
201.789
197.783
194.45
192.065
190.732
190.487
191.369
193.28
196.066
199.591
203.75
208.318
212.888
217.033
220.542
223.431
225.762
227.59
228.952
229.873
230.373
230.47
230.196
229.6
228.835
228.121
227.505
226.952
226.478
226.103
225.844
225.691
225.571
225.372
224.987
224.327
223.264
221.731
219.833
217.788
215.921
214.379
213.232
212.338
211.483
210.439
209.004
207.016
204.343
200.917
196.494
190.805
184.928
179.463
173.916
168.42
163.032
157.531
152.025
146.406
140.672
134.81
128.744
122.364
115.589
108.479
101.242
94.1395
87.3445
80.9269
74.907
69.3264
64.2993
60.0327
56.8073
54.8725
54.4043
55.4896
58.085
62.0454
67.1922
73.3089
80.1568
87.5816
95.5277
104.043
113.136
122.596
131.991
140.786
148.677
155.492
161.173
165.748
169.3
171.915
173.825
175.389
176.887
178.385
179.766
180.929
181.828
182.408
182.625
182.489
182.069
181.456
180.71
179.847
178.888
177.876
176.845
175.796
174.72
173.615
172.484
171.333
170.162
168.972
167.77
166.557
165.33
164.09
162.837
161.576
160.31
159.04
157.767
156.492
155.215
153.936
152.658
151.38
150.101
148.822
147.542
146.26
144.973
143.681
142.388
141.091
139.785
138.47
137.146
135.817
134.43
132.96
131.457
129.982
128.536
127.054
125.473
123.765
121.926
119.959
117.868
115.612
113.056
110.053
106.529
102.386
97.4919
91.9824
86.3595
81.4167
77.9444
76.2089
76.0352
77.1028
78.9092
80.8559
218.83
218.208
216.733
214.307
210.824
206.27
200.753
194.598
188.291
182.406
177.53
174.112
172.429
172.557
174.366
177.552
181.723
186.632
192.345
198.925
205.981
212.597
218.073
222.297
225.451
227.78
229.46
230.576
231.191
231.35
231.091
230.461
229.579
228.638
227.734
226.871
226.062
225.333
224.697
224.164
223.695
223.179
222.473
221.443
219.937
217.877
215.433
212.944
210.726
208.983
207.779
206.944
206.216
205.31
203.994
202.121
199.58
196.314
192.137
186.767
181.065
175.634
170.099
164.562
159.077
153.464
147.876
142.122
136.219
130.144
123.81
117.104
109.979
102.555
95.0995
87.8645
80.9518
74.357
68.0656
62.1404
56.7791
52.3055
49.0977
47.4477
47.4857
49.2342
52.6006
57.3494
63.2133
69.9322
77.1748
84.7262
92.549
100.842
109.834
119.484
129.274
138.54
146.806
153.848
159.631
164.233
167.801
170.505
172.546
174.193
175.701
177.171
178.512
179.62
180.47
181.049
181.323
181.285
180.977
180.463
179.802
179.021
178.14
177.196
176.222
175.226
174.199
173.139
172.051
170.937
169.8
168.644
167.472
166.287
165.089
163.874
162.646
161.406
160.16
158.909
157.653
156.394
155.132
153.867
152.6
151.332
150.063
148.793
147.521
146.247
144.967
143.681
142.394
141.102
139.8
138.493
137.18
135.855
134.48
133.03
131.545
130.081
128.635
127.147
125.542
123.778
121.859
119.808
117.656
115.382
112.844
109.866
106.34
102.143
97.1152
91.3505
85.3193
79.775
75.5637
73.1304
72.3951
73.1014
74.8302
76.9317
212.387
211.636
209.797
206.714
202.15
196.086
188.722
180.548
172.209
164.478
158.21
154.094
152.456
153.352
156.578
161.608
167.597
173.709
179.832
187.08
196.175
205.811
214.035
220.133
224.32
227.201
229.191
230.529
231.299
231.585
231.451
230.955
230.157
229.178
228.134
227.079
226.033
225.028
224.065
223.142
222.247
221.298
220.166
218.683
216.669
214.033
211.009
208.065
205.546
203.629
202.346
201.533
200.921
200.18
199.027
197.309
194.928
191.827
187.869
182.777
177.22
171.799
166.248
160.646
155.055
149.36
143.622
137.707
131.624
125.335
118.753
111.778
104.392
96.7558
89.154
81.815
74.7916
68.0582
61.623
55.6066
50.2854
46.0523
43.3106
42.3439
43.1574
45.79
49.9359
55.3388
61.7063
68.8011
76.3183
83.905
91.4284
99.1694
107.614
116.982
126.841
136.372
144.904
152.117
157.989
162.637
166.245
169.026
171.187
172.935
174.481
175.95
177.285
178.38
179.212
179.791
180.1
180.128
179.905
179.487
178.917
178.223
177.422
176.547
175.627
174.673
173.686
172.665
171.615
170.537
169.434
168.308
167.166
166.009
164.838
163.65
162.446
161.23
160.004
158.772
157.534
156.292
155.044
153.792
152.537
151.28
150.02
148.758
147.495
146.228
144.953
143.675
142.397
141.113
139.815
138.509
137.205
135.895
134.538
133.103
131.63
130.177
128.742
127.249
125.608
123.782
121.785
119.646
117.416
115.101
112.559
109.601
106.076
101.799
96.5743
90.4642
83.9239
77.7109
72.7179
69.5366
68.2065
68.5287
70.1478
72.4059
206.919
206.034
203.901
200.373
195.077
187.977
179.328
169.734
159.897
150.661
143.082
138.193
136.452
138.013
142.668
149.846
158.668
167.118
173.734
180.051
188.947
200.19
210.418
217.913
222.886
226.245
228.519
230.034
230.945
231.357
231.361
231.031
230.415
229.559
228.549
227.458
226.321
225.166
224.006
222.82
221.591
220.252
218.696
216.781
214.309
211.163
207.632
204.299
201.498
199.426
198.007
197.128
196.536
195.876
194.828
193.22
190.953
187.964
184.147
179.22
173.721
168.257
162.643
156.948
151.242
145.43
139.524
133.445
127.199
120.724
113.956
106.821
99.3067
91.5848
83.947
76.617
69.649
63.0323
56.8144
51.1533
46.3566
42.7874
40.7426
40.5704
42.1356
45.377
50.0281
55.7389
62.2236
69.3467
76.9029
84.477
91.761
98.9766
106.752
115.566
125.161
134.67
143.26
150.52
156.409
161.066
164.701
167.547
169.81
171.658
173.25
174.707
176.028
177.139
178
178.611
178.965
179.055
178.904
178.561
178.07
177.456
176.734
175.928
175.063
174.151
173.197
172.209
171.191
170.145
169.073
167.977
166.863
165.733
164.587
163.425
162.245
161.051
159.846
158.632
157.412
156.186
154.953
153.715
152.471
151.224
149.974
148.72
147.465
146.204
144.936
143.664
142.393
141.114
139.822
138.523
137.231
135.935
134.591
133.169
131.708
130.267
128.839
127.328
125.646
123.764
121.7
119.477
117.169
114.815
112.267
109.313
105.75
101.317
95.8001
89.2541
82.1192
75.1765
69.3685
65.398
63.4404
63.3739
64.8749
67.2956
205.042
204.042
201.842
198.222
192.838
185.562
176.597
166.532
156.091
146.185
137.829
132.182
130.075
131.823
137.234
145.561
155.913
165.869
173.043
178.478
186.407
197.64
208.524
216.661
221.955
225.508
227.94
229.559
230.55
231.044
231.145
230.936
230.476
229.783
228.893
227.866
226.743
225.552
224.313
223.004
221.591
220.017
218.162
215.933
213.149
209.667
205.83
202.278
199.347
197.091
195.474
194.423
193.718
193.005
191.946
190.347
188.099
185.129
181.342
176.442
170.888
165.318
159.59
153.769
147.929
141.982
135.933
129.713
123.317
116.706
109.834
102.662
95.1645
87.5028
79.9782
72.8246
66.1246
59.8816
54.1839
49.184
45.1658
42.4476
41.2894
41.6275
43.6493
47.2011
52.0111
57.7043
63.9832
70.8036
78.1219
85.5577
92.6558
99.5027
106.763
115.071
124.312
133.626
142.107
149.286
155.121
159.756
163.394
166.267
168.59
170.521
172.175
173.635
174.918
176.002
176.874
177.523
177.929
178.083
178.001
177.723
177.293
176.741
176.084
175.342
174.532
173.662
172.742