/*--------------------------------*- C++ -*----------------------------------*\
  =========                 |
  \\      /  F ield         | OpenFOAM: The Open Source CFD Toolbox
   \\    /   O peration     | Website:  https://openfoam.org
    \\  /    A nd           | Version:  9
     \\/     M anipulation  |
\*---------------------------------------------------------------------------*/
FoamFile
{
    format      ascii;
    class       volScalarField;
    location    "0.073";
    object      pPrime2Mean;
}
// * * * * * * * * * * * * * * * * * * * * * * * * * * * * * * * * * * * * * //

dimensions      [0 4 -4 0 0 0 0];

internalField   nonuniform List<scalar> 
12225
(
297445
294510
291178
287601
283883
280104
276318
272557
268842
265182
261578
258024
254508
251009
247492
243901
240117
235860
297468
294537
291200
287618
283897
280116
276329
272567
268852
265192
261589
258037
254524
251031
247524
243952
240220
236159
297545
294596
291248
287657
283929
280143
276353
272590
268874
265215
261614
258067
254561
251079
247593
244061
240421
236618
297643
294696
291328
287722
283982
280188
276392
272627
268910
265253
261656
258116
254622
251158
247704
244230
240709
237155
297821
294845
291446
287816
284060
280254
276451
272681
268964
265309
261718
258187
254709
251272
247860
244459
241067
237732
298110
295054
291610
287948
284167
280345
276531
272756
269037
265385
261801
258284
254828
251424
248063
244744
241480
238329
298500
295332
291827
288121
284309
280466
276637
272854
269134
265485
261911
258411
254980
251615
248312
245079
241936
238938
298947
295687
292106
288344
284492
280620
276773
272980
269257
265612
262050
258569
255168
251846
248606
245457
242426
239554
299536
296134
292456
288623
284720
280813
276943
273137
269410
265770
262220
258761
255393
252118
248941
245875
242943
240176
300228
296682
292886
288966
285000
281049
277151
273329
269596
265961
262424
258989
255657
252430
249316
246327
243482
240803
301063
297345
293409
289381
285337
281333
277400
273558
269819
266187
262665
259255
255959
252781
249727
246808
244039
241435
301954
298076
293981
289833
285704
281641
277670
273806
270058
266429
262920
259534
256271
253136
250133
247273
244565
242018
303079
298922
294633
290345
286118
281988
277974
274085
270326
266699
263203
259839
256608
253514
250559
247751
245096
242599
304608
300055
295493
291015
286658
282439
278368
274447
270673
267046
263563
260224
257028
253976
251071
248315
245713
243264
306671
301547
296609
291880
287351
283019
278875
274909
271115
267486
264016
260702
257541
254533
251677
248973
246420
244017
309365
303474
298022
292964
288218
283742
279507
275488
271668
268033
264575
261285
258159
255193
252382
249726
247219
244858
312648
305743
299677
294235
289240
284604
280265
276185
272334
268691
265242
261975
258881
255953
253184
250570
248104
245779
315988
308072
301396
295570
290330
285538
281104
276967
273089
269441
266002
262756
259692
256798
254066
251488
249056
246762
318498
309754
302670
296622
291253
286383
281904
277747
273865
270226
266805
263584
260549
257687
254988
252441
250038
247771
316833
309212
302609
296798
291559
286771
282349
278235
274389
270783
267392
264201
261193
258357
255682
253158
250776
248526
314978
308129
302046
296556
291521
286866
282532
278481
274683
271113
267753
264587
261602
258786
256129
253620
251251
249012
313087
306960
301356
296179
291350
286832
282593
278609
274859
271326
267994
264852
261886
259086
256442
253945
251586
249356
311291
305858
300683
295785
291142
286748
282594
278670
274963
271462
268155
265032
262082
259294
256661
254173
251821
249597
309851
304944
300115
295443
290949
286656
282572
278696
275024
271549
268261
265153
262215
259438
256812
254330
251984
249764
308791
304251
299675
295172
290792
286576
282545
278706
275060
271604
268331
265234
262305
259535
256915
254438
252095
249879
307989
303740
299355
294974
290675
286514
282521
278708
275081
271639
268377
265288
262364
259599
256983
254510
252169
249955
307431
303384
299134
294837
290594
286471
282503
278708
275094
271661
268405
265321
262402
259640
257027
254555
252217
250004
306992
303151
298994
294752
290543
286443
282491
278707
275101
271674
268422
265342
262425
259665
257054
254583
252245
250034
306742
303020
298917
294705
290515
286428
282484
278706
275104
271680
268431
265353
262437
259679
257068
254598
252261
250049
306630
302965
298885
294686
290504
286421
282481
278706
275106
271683
268435
265357
262442
259684
257074
254604
252267
250056
199692
199673
199637
199587
199524
199447
199356
199247
199117
198965
198789
198591
198371
198131
197872
197594
197298
196985
196653
196305
195939
195557
195159
194745
194315
193867
193401
192916
192412
191892
191355
190802
190233
189646
189043
188425
187795
187154
186502
185837
185161
184470
183763
183039
182295
181533
180755
179960
179150
178330
177496
176649
175794
174930
174058
173182
172307
171416
170503
169572
168632
167686
166748
165801
164832
163832
162805
161763
160716
159660
158593
157515
156426
155324
154209
153088
151963
150837
149718
148608
147505
146405
145301
144190
143076
141950
140827
139703
138570
137398
136194
134997
133826
132684
131565
130460
129357
128246
127119
125968
124787
123572
122320
121032
119710
118358
116984
115594
114196
112796
111402
110018
108647
107290
105947
104617
103299
101990
100688
99392
98100.1
96811.1
95523.7
94237.1
92950.7
91664.2
90377.5
89090.7
87804
86517.5
85231.4
83945.9
82661.1
81377
80093.6
78810.9
77528.8
76247.1
74966
73685.4
72405.3
71125.7
69846.7
68568.4
67290.9
66014.3
64738.7
63464.5
62191.6
60920.5
59651.2
58384.3
57119.7
55858.1
54600.2
53347.5
52101.2
50862
49630.5
48406.6
47189.7
45977.5
44769.2
43568.8
42377.5
41193.1
40017.4
38852.7
37696.9
36549.9
35413.6
34285.1
33165.6
32059.5
30964.7
29881
28809.7
27755.8
26723.9
25722.6
199748
199729
199694
199643
199580
199502
199409
199297
199164
199009
198831
198632
198413
198174
197916
197640
197345
197031
196700
196350
195983
195598
195197
194779
194345
193894
193425
192938
192434
191914
191377
190823
190254
189668
189066
188448
187816
187173
186518
185848
185165
184469
183761
183039
182297
181535
180752
179947
179130
178305
177467
176618
175762
174902
174037
173162
172280
171388
170479
169556
168627
167682
166732
165771
164784
163779
162753
161712
160669
159619
158559
157489
156410
155311
154196
153074
151943
150818
149699
148587
147487
146389
145290
144185
143073
141950
140815
139668
138513
137334
136142
134963
133809
132679
131569
130469
129370
128261
127136
125986
124805
123590
122338
121049
119726
118373
116997
115606
114206
112805
111410
110025
108653
107295
105952
104622
103303
101993
100691
99394.6
98102.4
96813.1
95525.6
94238.8
92952.3
91665.7
90379
89092.2
87805.4
86518.9
85232.8
83947.3
82662.5
81378.4
80095
78812.3
77530.2
76248.7
74967.6
73687
72406.9
71127.4
69848.4
68570.2
67292.7
66016.1
64740.7
63466.5
62193.8
60922.9
59653.9
58387.3
57123.2
55862.1
54604.9
53352.8
52107.2
50868.5
49636.7
48412.2
47193.6
45979.7
44771
43571.7
42381.4
41196.6
40020.8
38856
37700
36553.4
35417.7
34289.4
33170.6
32063.9
30968
29883.1
28810.9
27755.9
26721.8
25714.4
199900
199883
199848
199795
199726
199640
199538
199417
199277
199116
198936
198736
198518
198280
198024
197748
197452
197137
196803
196450
196079
195689
195283
194859
194418
193961
193488
192998
192493
191971
191432
190878
190309
189724
189123
188507
187876
187231
186573
185903
185218
184521
183809
183081
182336
181567
180780
179973
179150
178315
177469
176614
175755
174892
174023
173147
172264
171371
170470
169557
168630
167684
166719
165735
164735
163721
162696
161663
160625
159584
158535
157473
156397
155299
154182
153053
151920
150789
149669
148560
147464
146373
145281
144181
143067
141935
140779
139608
138430
137251
136079
134923
133788
132672
131572
130478
129384
128280
127158
126011
124833
123619
122368
121079
119755
118400
117023
115629
114227
112824
111426
110038
108664
107306
105961
104630
103311
102000
100697
99400.5
98107.7
96817.9
95529.9
94242.8
92956
91669.2
90382.3
89095.3
87808.5
86521.9
85235.7
83950.2
82665.4
81381.3
80098
78815.3
77533.2
76251.7
74970.7
73690.2
72410.1
71130.6
69851.8
68573.5
67296.2
66019.7
64744.3
63470.3
62197.8
60927.1
59658.4
58392.1
57128.4
55867.9
54611.3
53359.6
52113.8
50874.6
49642.2
48416.8
47197.8
45984.7
44777.6
43577.7
42385.8
41201.5
40026.5
38861.9
37706.7
36561
35425.7
34298.4
33179.3
32071
30974.1
29888.1
28814.4
27756.5
26718.1
25703.2
200119
200102
200067
200013
199940
199848
199739
199612
199467
199302
199119
198917
198697
198458
198199
197920
197621
197302
196963
196604
196226
195830
195417
194986
194539
194075
193596
193102
192593
192070
191532
190980
190412
189828
189228
188613
187983
187338
186679
186007
185322
184622
183909
183180
182431
181656
180859
180042
179207
178361
177505
176643
175777
174907
174032
173151
172267
171379
170483
169573
168641
167683
166702
165706
164696
163676
162649
161617
160583
159548
158508
157455
156381
155283
154164
153028
151888
150755
149637
148533
147441
146353
145262
144156
143034
141886
140715
139532
138352
137182
136025
134886
133766
132663
131573
130488
129400
128302
127185
126043
124869
123658
122409
121120
119795
118438
117057
115661
114256
112850
111449
110058
108682
107321
105976
104644
103323
102012
100708
99409.7
98116
96825.4
95536.7
94249
92961.7
91674.5
90387.3
89100.1
87813.1
86526.4
85240.2
83954.7
82669.9
81385.8
80102.5
78819.9
77537.9
76256.5
74975.5
73695.1
72415.1
71135.7
69856.9
68578.8
67301.4
66025
64749.8
63475.9
62203.6
60933
59664.6
58398.6
57135.4
55875.4
54619.2
53367.7
52121.9
50882.3
49649.2
48422.9
47203
45989.7
44782.5
43582.6
42391.2
41208.1
40033.6
38869.7
37716
36572
35438.5
34312.5
33193.5
32084.2
30985.9
29897.8
28820.7
27759
26715.4
25692.8
200410
200392
200355
200298
200222
200128
200015
199884
199735
199566
199378
199171
198945
198699
198433
198147
197841
197514
197167
196800
196415
196011
195589
195151
194696
194226
193741
193242
192730
192205
191668
191118
190553
189973
189377
188765
188136
187491
186831
186159
185475
184778
184065
183334
182579
181797
180987
180154
179302
178438
177567
176690
175812
174933
174051
173168
172282
171393
170495
169577
168633
167664
166678
165679
164670
163651
162625
161597
160567
159537
158500
157449
156376
155277
154155
153020
151879
150746
149627
148523
147430
146340
145241
144126
142988
141824
140644
139461
138285
137122
135976
134849
133742
132651
131571
130496
129417
128326
127215
126079
124910
123703
122456
121169
119842
118483
117100
115700
114292
112883
111479
110085
108705
107342
105995
104662
103339
102027
100722
99422.3
98127.5
96835.8
95546.1
94257.5
92969.6
91681.9
90394.2
89106.7
87819.5
86532.7
85246.4
83960.9
82676.1
81392.1
80108.9
78826.4
77544.6
76263.3
74982.4
73702
72422.1
71142.8
69864.1
68586.1
67308.7
66032.3
64757.1
63483.4
62211.2
60940.8
59672.6
58406.9
57144.1
55884.4
54628.6
53377.4
52131.5
50891.7
49658.2
48431.1
47210.5
45996.5
44788.9
43588.3
42396.3
41213
40039
38875.8
37723.7
36582.7
35452
34328
33209.5
32099.9
31000.9
29911
28830.7
27764.4
26714.7
25684.1
200779
200757
200715
200656
200577
200480
200364
200230
200075
199901
199707
199493
199259
199004
198729
198433
198116
197779
197422
197044
196648
196233
195802
195354
194890
194413
193921
193417
192901
192373
191835
191285
190724
190148
189556
188947
188320
187676
187017
186344
185659
184961
184247
183511
182749
181956
181132
180280
179408
178522
177628
176732
175839
174951
174065
173178
172290
171396
170490
169562
168606
167634
166653
165664
164665
163658
162644
161624
160601
159572
158534
157481
156406
155307
154187
153052
151913
150781
149662
148554
147455
146353
145240
144107
142951
141774
140586
139402
138228
137070
135931
134813
133715
132634
131564
130499
129429
128346
127243
126114
124951
123750
122507
121221
119894
118533
117146
115743
114333
112921
111514
110116
108734
107368
106019
104683
103360
102046
100739
99438.1
98141.8
96848.8
95557.9
94268.3
92979.5
91691.1
90403
89115.1
87827.6
86540.6
85254.3
83968.8
82684.1
81400.3
80117.3
78835.1
77553.4
76272.3
74991.6
73711.3
72431.5
71152.2
69873.6
68595.6
67318.4
66041.8
64766.5
63492.8
62220.6
60950.4
59682.3
58417
57154.4
55895.1
54639.6
53388.6
52142.9
50902.9
49669.1
48441.6
47220.4
46005.7
44797.6
43596.4
42403.3
41219
40044.2
38880.6
37728.7
36589.2
35461.1
34339.7
33223.1
32114.7
31016
29925.4
28842.5
27772.2
26716.5
25678.5
201216
201193
201150
201088
201008
200909
200789
200649
200488
200307
200105
199882
199638
199373
199086
198777
198448
198098
197727
197337
196928
196501
196058
195599
195126
194640
194141
193630
193109
192577
192035
191483
190921
190346
189756
189148
188521
187877
187218
186544
185857
185156
184436
183693
182922
182117
181278
180409
179516
178608
177691
176774
175864
174966
174075
173186
172294
171396
170483
169545
168586
167619
166649
165674
164692
163702
162704
161698
160683
159658
158619
157563
156486
155388
154271
153141
152005
150873
149749
148634
147522
146403
145270
144115
142937
141744
140548
139358
138182
137025
135889
134776
133684
132611
131550
130493
129432
128358
127264
126143
124988
123793
122555
121272
119946
118583
117193
115788
114375
112961
111552
110152
108766
107397
106046
104708
103383
102067
100759
99456.6
98158.7
96864.2
95572
94281.3
92991.5
91702.3
90413.6
89125.4
87837.6
86550.4
85264.1
83978.6
82694.1
81410.6
80128
78846.1
77564.8
76284
75003.5
73723.4
72443.7
71164.4
69885.9
68607.9
67330.5
66053.9
64778.4
63504.5
62232.3
60962
59694
58428.8
57166.6
55907.5
54652.3
53401.6
52156
50916.1
49682.2
48454.3
47232.6
46017.5
44808.9
43607.1
42413
41227.5
40051.5
38886.1
37732.7
36592.3
35464.7
34345.4
33231.9
32125.9
31029.1
29939.3
28855.2
27781.6
26720.7
25676.4
201733
201710
201667
201603
201519
201414
201288
201140
200971
200780
200567
200333
200076
199797
199496
199174
198830
198467
198083
197680
197258
196819
196363
195893
195409
194914
194408
193890
193362
192824
192276
191718
191151
190571
189977
189367
188739
188095
187435
186761
186073
185367
184641
183889
183108
182290
181436
180548
179634
178702
177761
176821
175894
174986
174089
173197
172303
171401
170484
169542
168587
167631
166675
165716
164752
163780
162798
161805
160799
159779
158741
157685
156609
155515
154404
153280
152149
151018
149890
148765
147635
146493
145333
144151
142949
141737
140528
139330
138147
136987
135851
134740
133652
132584
131528
130478
129424
128358
127272
126160
125014
123827
122595
121316
119991
118629
117238
115830
114416
113001
111590
110188
108800
107429
106075
104736
103409
102092
100782
99477.5
98178
96881.9
95588.3
94296.3
93005.5
91715.5
90426.2
89137.6
87849.6
86562.3
85276
83990.7
82706.4
81423.3
80141.1
78859.7
77578.9
76298.6
75018.4
73738.7
72459.1
71180
69901.4
68623.4
67345.8
66068.9
64792.9
63518.6
62246.3
60975.9
59707.9
58442.8
57180.7
55921.9
54666.9
53416.6
52171.2
50931.4
49697.4
48469.3
47247.4
46031.9
44822.7
43620.4
42425.6
41239.1
40061.7
38894.3
37738.2
36594.5
35464.3
34344.7
33233.3
32131
31037.3
29950
28866.7
27791.4
26726.8
25677.6
202340
202316
202270
202202
202111
201998
201862
201704
201523
201319
201093
200845
200573
200279
199964
199627
199270
198893
198495
198079
197645
197193
196726
196244
195751
195247
194732
194207
193670
193124
192567
192000
191424
190836
190235
189619
188989
188345
187687
187014
186326
185618
184887
184126
183332
182500
181626
180716
179777
178818
177850
176888
175944
175023
174119
173222
172325
171421
170503
169563
168618
167675
166733
165788
164838
163881
162914
161933
160936
159922
158888
157835
156764
155676
154572
153456
152331
151202
150071
148934
147784
146616
145426
144212
142983
141751
140527
139317
138125
136958
135818
134706
133619
132553
131500
130453
129403
128343
127265
126162
125025
123846
122621
121347
120025
118664
117273
115866
114452
113037
111626
110224
108834
107462
106107
104766
103438
102118
100806
99500.4
98199.2
96901.6
95606.6
94313.4
93021.5
91730.7
90440.8
89151.7
87863.6
86576.3
85290.1
84005.1
82721.3
81438.6
80157
78876.3
77596.3
76316.6
75037.1
73757.7
72478.4
71199.7
69921.3
68643.1
67365.2
66087.7
64811.3
63536.4
62263.5
60992.7
59724.4
58459.3
57197.4
55938.7
54684
53433.9
52188.8
50949.1
49715
48486.7
47264.5
46048.5
44838.9
43636
42440.5
41253.2
40074.7
38905.6
37746.7
36599.2
35464.4
34341.6
33229.7
32129.1
31038.5
29954.3
28873.3
27799
26733.3
25681
203036
203010
202959
202885
202787
202664
202517
202346
202151
201933
201691
201427
201140
200831
200500
200149
199778
199386
198976
198547
198100
197637
197159
196668
196166
195653
195129
194595
194049
193492
192925
192347
191760
191161
190551
189929
189296
188651
187994
187323
186635
185925
185187
184416
183606
182754
181857
180919
179952
178963
177967
176982
176021
175088
174175
173272
172371
171466
170548
169613
168678
167747
166815
165881
164943
163998
163042
162073
161087
160080
159054
158006
156940
155857
154760
153651
152534
151410
150276
149128
147959
146764
145542
144296
143039
141786
140546
139321
138117
136941
135795
134678
133589
132521
131468
130421
129372
128316
127243
126148
125020
123849
122631
121361
120043
118684
117296
115892
114480
113067
111658
110256
108868
107495
106139
104797
103467
102146
100833
99525.1
98222.4
96923.2
95626.8
94332.4
93039.4
91747.8
90457.3
89168
87879.7
86592.5
85306.7
84022.1
82738.9
81457.1
80176.5
78896.8
77617.8
76339.2
75060.6
73781.8
72503.1
71224.7
69946.4
68668.2
67389.8
66111.5
64834.2
63558.6
62284.9
61013.3
59744.5
58479.4
57217.5
55958.8
54704.1
53454.1
52209.1
50969.3
49735.1
48506.5
47283.9
46067.5
44857.4
43653.8
42457.6
41269.6
40090.3
38919.8
37758.7
36607.7
35468.3
34340.8
33225.5
32123.5
31033.8
29951.9
28873.5
27801.6
26737.4
25684.7
203824
203795
203740
203659
203552
203420
203261
203077
202868
202635
202378
202098
201795
201471
201126
200760
200374
199969
199545
199104
198646
198172
197685
197185
196674
196152
195620
195076
194521
193953
193374
192784
192183
191570
190948
190316
189675
189025
188363
187688
186995
186279
185532
184748
183919
183044
182118
181151
180154
179135
178112
177105
176127
175182
174260
173350
172445
171538
170621
169690
168761
167836
166911
165984
165055
164120
163175
162217
161241
160244
159225
158185
157124
156046
154954
153852
152742
151623
150489
149334
148149
146930
145678
144401
143116
141842
140585
139344
138127
136940
135786
134663
133568
132495
131437
130386
129335
128278
127210
126120
124999
123835
122621
121355
120041
118686
117304
115904
114497
113088
111682
110284
108898
107527
106171
104829
103497
102175
100860
99551.3
98247.2
96946.7
95648.9
94353.3
93059.3
91766.9
90476
89186.4
87898.1
86611.2
85325.9
84042.3
82760.1
81479.6
80200.5
78922.4
77645.1
76368
75090.6
73812.6
72534.5
71256.6
69978.6
68700.3
67421.2
66141.9
64863.3
63586.5
62311.6
61038.8
59769.2
58503.6
57241.6
55982.8
54727.9
53477.7
52232.6
50992.5
49757.8
48528.8
47305.8
46088.8
44878
43673.7
42476.8
41288.2
40108.1
38936.6
37773.8
36620.4
35477.3
34345.2
33224.9
32118.7
31026.3
29943.9
28867.5
27798.1
26736.5
25685.4
204713
204681
204622
204535
204420
204278
204109
203915
203694
203449
203179
202885
202568
202229
201868
201487
201086
200666
200229
199775
199305
198821
198324
197815
197296
196765
196223
195669
195102
194521
193927
193319
192699
192068
191427
190777
190120
189454
188779
188091
187385
186657
185897
185095
184246
183347
182400
181413
180394
179352
178305
177276
176280
175319
174386
173467
172554
171641
170721
169790
168861
167937
167013
166089
165165
164237
163302
162354
161387
160398
159386
158353
157298
156225
155138
154042
152939
151827
150698
149539
148344
147106
145829
144525
143214
141920
140644
139388
138157
136959
135795
134663
133560
132477
131410
130352
129296
128236
127167
126079
124960
123800
122588
121325
120016
118668
117293
115903
114503
113100
111700
110306
108924
107556
106202
104859
103528
102205
100889
99578.7
98273.4
96971.6
95672.7
94375.9
93081.2
91788.2
90496.9
89207.3
87919.3
86633
85348.7
84066.5
82786.1
81507.7
80230.7
78955.2
77680.1
76404.9
75129.1
73852.2
72574.8
71297.4
70019.8
68741.3
67461.3
66180.3
64900
63621.6
62345
61070.6
59799.7
58533.3
57270.7
56011.2
54755.8
53505.2
52259.6
51019
49783.6
48554
47330.3
46112.5
44901
43696
42498.5
41309.2
40128.4
38956.1
37792.4
36637.3
35491.6
34355.7
33230.6
32118.7
31020.7
29934.5
28857.1
27789
26730
25681.3
205720
205685
205622
205530
205410
205263
205089
204888
204661
204406
204125
203818
203486
203130
202752
202353
201934
201497
201044
200575
200092
199596
199088
198569
198038
197495
196939
196369
195785
195186
194572
193941
193297
192640
191972
191295
190611
189920
189219
188507
187779
187028
186246
185423
184554
183638
182679
181685
180658
179609
178551
177508
176494
175515
174563
173630
172703
171778
170848
169911
168976
168045
167115
166189
165266
164342
163413
162471
161511
160528
159522
158494
157445
156378
155298
154209
153114
152010
150886
149731
148532
147284
145988
144662
143330
142016
140725
139454
138211
137002
135827
134683
133567
132471
131392
130324
129259
128193
127119
126026
124904
123742
122531
121272
119969
118631
117267
115887
114497
113102
111709
110322
108946
107582
106230
104889
103557
102234
100918
99606.8
98300.5
96997.7
95697.8
94400.3
93104.9
91811.6
90520.3
89231
87943.7
86658.6
85376.2
84096.3
82818.7
81543.3
80269.6
78997.1
77724.8
76452.1
75178.2
73902.5
72625.9
71349.1
70071.9
68793.1
67511.9
66229.1
64946.5
63665.7
62386.8
61110.3
59837.4
58569.2
57305.2
56044.7
54788.2
53536.9
52290.7
51049.3
49813.1
48582.6
47358
46139.3
44926.9
43721.1
42522.9
41333.1
40151.8
38979
37814.5
36658.5
35511
34372.5
33243.4
32125.7
31020.9
29928.4
28846.9
27777.2
26718.6
25671.7
206869
206833
206768
206675
206555
206408
206232
206027
205791
205524
205227
204900
204546
204168
203768
203348
202910
202455
201984
201497
200997
200484
199959
199423
198874
198312
197737
197146
196539
195915
195273
194612
193934
193243
192539
191827
191108
190382
189647
188901
188142
187361
186552
185708
184822
183895
182934
181944
180925
179882
178827
177779
176753
175755
174782
173828
172881
171937
170991
170043
169097
168155
167215
166281
165353
164428
163500
162561
161604
160625
159622
158598
157555
156496
155423
154342
153256
152162
151048
149899
148702
147452
146148
144808
143460
142129
140823
139541
138287
137066
135878
134720
133587
132477
131384
130304
129229
128153
127068
125965
124834
123667
122456
121201
119906
118579
117228
115859
114480
113095
111711
110332
108963
107604
106255
104916
103586
102263
100946
99635
98328.1
97024.6
95724.1
94426.1
93130.6
91837.4
90546.6
89258
87972.1
86689.2
85409.7
84133.6
82860.2
81588.8
80319.1
79049.9
77780.9
76511.3
75239.1
73964.6
72688.8
71412.6
70135.5
68856.2
67574
66288.9
65003.6
63720.2
62438.7
61159.3
59883.6
58612.6
57346.3
56083.8
54825.8
53573.4
52326.4
51084
49846.6
48615.2
47389.6
46169.9
44956.4
43749.9
42551.1
41360.9
40179.3
39006.2
37841.4
36684.7
35536
34395.5
33263.3
32140.8
31029.1
29929.1
28841
27766.3
26705.2
25657.9
208184
208147
208082
207990
207871
207722
207541
207325
207073
206784
206461
206107
205727
205322
204895
204449
203987
203508
203013
202503
201980
201444
200895
200333
199759
199171
198567
197946
197306
196647
195968
195270
194556
193826
193084
192332
191574
190808
190033
189250
188454
187642
186806
185941
185044
184112
183154
182174
181170
180143
179101
178057
177026
176016
175024
174047
173077
172108
171139
170173
169213
168258
167305
166360
165423
164492
163561
162621
161665
160688
159688
158668
157631
156578
155514
154443
153365
152278
151171
150032
148844
147598
146297
144954
143597
142253
140933
139641
138376
137143
135941
134768
133620
132495
131388
130294
129206
128116
127017
125901
124759
123584
122371
121120
119834
118517
117177
115821
114452
113078
111705
110336
108975
107622
106277
104941
103612
102290
100974
99663
98355.9
97052.2
95751.5
94453.6
93158.5
91866
90576.3
89289.4
88005.9
86726.3
85451.2
84180.1
82912.2
81645.9
80380.5
79115.1
77849.3
76581.8
75311.4
74037.9
72762.3
71486
70209.6
68930
67646.2
66359
65071.1
63785.2
62500.8
61218.2
59939.1
58664.6
57395
56129.8
54869.7
53615.7
52367.2
51123.6
49885
48652.3
47425.6
46204.8
44990.6
43783.4
42584.2
41393.7
40212.1
39038.9
37874
36716.9
35567.4
34425.4
33290.6
32163.9
31046.1
29938.3
28842.1
27760
26693.2
25642.4
209720
209680
209613
209517
209392
209234
209039
208804
208528
208214
207862
207477
207061
206618
206150
205662
205158
204641
204110
203567
203013
202448
201867
201271
200660
200034
199391
198729
198048
197349
196630
195893
195140
194372
193591
192801
192004
191200
190389
189569
188739
187895
187034
186150
185243
184309
183354
182383
181396
180387
179361
178325
177293
176276
175271
174275
173282
172290
171297
170309
169330
168358
167391
166432
165485
164544
163605
162660
161702
160726
159730
158714
157680
156633
155577
154512
153439
152357
151255
150121
148941
147706
146416
145082
143729
142380
141050
139747
138472
137226
136011
134824
133663
132523
131401
130292
129189
128083
126968
125836
124682
123499
122283
121034
119754
118447
117118
115772
114416
113055
111694
110336
108983
107636
106296
104963
103637
102317
101002
99690.9
98384.1
97080.7
95780.5
94483.3
93189.3
91898.5
90611
89327.1
88047.4
86772.6
85503
84238
82976
81715.1
80454.1
79192
77928.2
76661.5
75391.4
74118.4
72842.8
71567
70290.2
69010.2
67725.4
66437.3
65148.3
63860.1
62573.2
61287.6
60004.9
58726.6
57453.3
56184.6
54921.5
53665.2
52414.8
51169.4
49929.3
48695.3
47467.5
46245.9
45031
43823.4
42623.9
41433.2
40251.6
39078.6
37913.7
36756.5
35606.4
34463
33326
32195.5
31072
29956.7
28851.8
27760.7
26685.6
25628.2
211392
211349
211273
211165
211026
210851
210639
210383
210082
209736
209343
208907
208433
207929
207403
206858
206302
205738
205164
204581
203987
203383
202763
202126
201472
200803
200119
199417
198697
197959
197204
196432
195644
194844
194031
193209
192382
191549
190708
189860
189002
188133
187249
186350
185433
184497
183544
182577
181598
180602
179589
178562
177532
176506
175490
174480
173470
172460
171447
170439
169442
168454
167472
166500
165539
164586
163637
162685
161724
160747
159751
158737
157707
156664
155613
154552
153482
152398
151294
150159
148983
147756
146481
145164
143826
142485
141155
139846
138562
137308
136082
134884
133710
132557
131420
130295
129175
128052
126921
125774
124607
123415
122195
120947
119672
118372
117053
115718
114375
113027
111678
110331
108986
107646
106311
104982
103659
102341
101027
99717.5
98411.6
97109.1
95810.1
94514.5
93222.7
91934.8
90651
89371.8
88097.4
86828.3
85564.7
84305.4
83048.6
81791.7
80533.6
79272.6
78008.7
76741.7
75471.6
74197.1
72920.4
71644.4
70368.1
69089
67804.9
66516.9
65228.1
63940
62652.1
61364.7
60079.1
58797.8
57520.7
56248.2
54981.8
53722.6
52469.6
51221.9
49980.2
48745.1
47516.6
46294.5
45079.3
43871.5
42671.8
41481.1
40299.2
39126.2
37961.4
36804.1
35653.5
34508.9
33369.6
32235.5
31106.5
29984
28870.1
27769
26684
25617.8
213043
212991
212899
212771
212607
212407
212167
211882
211546
211155
210710
210214
209676
209106
208515
207913
207306
206695
206076
205448
204813
204168
203508
202832
202139
201434
200714
199979
199227
198459
197676
196876
196063
195238
194402
193557
192707
191852
190990
190121
189243
188355
187455
186541
185614
184674
183720
182754
181775
180784
179779
178759
177729
176698
175670
174645
173621
172596
171570
170548
169537
168536
167542
166560
165587
164624
163666
162706
161739
160759
159763
158750
157721
156680
155629
154568
153493
152402
151292
150153
148977
147759
146497
145201
143882
142554
141232
139924
138638
137378
136144
134937
133753
132587
131436
130296
129160
128022
126875
125714
124536
123336
122112
120864
119593
118300
116990
115667
114336
113000
111662
110323
108986
107652
106322
104997
103677
102362
101050
99741.7
98437.1
97136.1
95839
94546
93257.6
91974.1
90695.7
89422.5
88154.3
86890.8
85632.2
84376.7
83122.6
81867.5
80609.1
79347
78081
76811.8
75539
74262.8
72985.4
71709.2
70434.1
69157.1
67875.3
66589.9
65303.6
64017.8
62731.6
61444.2
60158
58875
57595.2
56319.5
55049.9
53787.4
52531.4
51281.5
50038.4
48802.7
47574.3
46352.5
45137.5
43929.7
42730
41539
40356.6
39183.1
38018
36860.5
35709.4
34563.6
33422.1
32284.3
31149.8
30019.8
28896.8
27785.3
26689.4
25612.6
214679
214613
214496
214331
214124
213877
213589
213256
212870
212430
211932
211380
210781
210148
209496
208842
208191
207536
206874
206206
205530
204846
204148
203435
202709
201971
201221
200458
199681
198889
198083
197262
196429
195585
194730
193868
193000
192126
191247
190361
189467
188564
187650
186724
185788
184840
183882
182913
181933
180941
179937
178921
177894
176858
175820
174782
173743
172706
171670
170638
169617
168606
167604
166613
165632
164660
163694
162727
161755
160770
159771
158757
157728
156685
155631
154565
153482
152383
151263
150118
148942
147730
146482
145203
143902
142590
141279
139977
138693
137431
136192
134978
133785
132609
131445
130291
129142
127990
126829
125656
124468
123263
122037
120789
119521
118235
116934
115621
114300
112974
111644
110313
108983
107655
106331
105010
103693
102380
101071
99764.2
98461.2
97162
95867.4
94578.2
93294.8
92017.2
90745.6
89479
88216.5
86957.5
85701.1
84446.5
83191.7
81934.7
80673.6
79407.5
78137.4
76864.4
75588.7
74310.6
73032.7
71757.4
70484.7
69211.2
67933.7
66653.1
65371.3
64089.5
62807
61522.5
60238.7
58955.9
57675.1
56397.4
55125.4
53859.8
52601.2
51349.6
50106
48870.8
47643.3
46422.7
45208.3
44000.7
42801
41609.2
40425.7
39251.1
38085
36926.7
35774.7
34627.6
33483.6
32341.8
31201.5
30063.9
28931.3
27809
26701.6
25613.2
216322
216234
216078
215860
215589
215272
214912
214509
214059
213559
213007
212403
211754
211070
210373
209680
208993
208302
207602
206893
206178
205456
204721
203974
203216
202449
201674
200887
200087
199275
198449
197610
196760
195900
195030
194152
193268
192379
191485
190584
189675
188759
187833
186897
185951
184995
184031
183058
182074
181080
180075
179059
178031
176994
175948
174898
173848
172799
171754
170716
169687
168669
167660
166662
165674
164695
163722
162748
161769
160780
159778
158761
157729
156682
155623
154549
153459
152351
151222
150071
148894
147687
146449
145184
143897
142599
141299
140006
138727
137465
136225
135007
133807
132622
131448
130283
129122