/*--------------------------------*- C++ -*----------------------------------*\
  =========                 |
  \\      /  F ield         | OpenFOAM: The Open Source CFD Toolbox
   \\    /   O peration     | Website:  https://openfoam.org
    \\  /    A nd           | Version:  9
     \\/     M anipulation  |
\*---------------------------------------------------------------------------*/
FoamFile
{
    format      ascii;
    class       volScalarField;
    location    "0.073";
    object      s_0;
}
// * * * * * * * * * * * * * * * * * * * * * * * * * * * * * * * * * * * * * //

dimensions      [0 0 0 0 0 0 0];

internalField   nonuniform List<scalar> 
12225
(
1
1
1
1
1
1
1
1
1
1
1
1
1
1
1
1
1
1
1
1
1
1
1
1
1
1
1
1
1
1
1
1
1
1
1
1
1
1
1
1
1
1
1
1
1
1
1
1
1
1
1
1
1
1
1
1
1
1
1
1
1
1
1
1
1
1
1
1
1
1
1
1
1
1
1
1
1
1
1
1
1
1
1
1
1
1
1
1
1
1
1
1
1
1
1
1
1
1
1
1
1
1
1
1
1
1
1
1
1
1
1
1
1
1
1
1
1
1
1
1
1
1
1
1
1
1
1
1
1
1
1
1
1
1
1
1
1
1
1
1
1
1
1
1
1
1
1
1
1
1
1
1
1
1
1
1
1
1
1
1
1
1
1
1
1
1
1
1
1
1
1
1
1
1
1
1
1
1
1
1
1
1
1
1
1
1
1
1
1
1
1
1
1
1
1
1
1
1
1
1
1
1
1
1
1
1
1
1
1
1
1
1
1
1
1
1
1
1
1
1
1
1
1
1
1
1
1
1
1
1
1
1
1
1
1
1
1
1
1
1
1
1
1
1
1
1
1
1
1
1
1
1
1
1
1
1
1
1
1
1
1
1
1
1
1
1
1
1
1
1
1
1
1
1
1
1
1
1
1
1
1
1
1
1
1
1
1
1
1
1
1
1
1
1
1
1
1
1
1
1
1
1
1
1
1
1
1
1
1
1
1
1
1
1
1
1
1
1
1
1
1
1
1
1
1
1
1
1
1
1
1
1
1
1
1
1
1
1
1
1
1
1
1
1
1
1
1
1
1
1
1
1
1
1
1
1
1
1
1
1
1
1
1
1
1
1
1
1
1
1
1
1
1
1
1
1
1
1
1
1
1
1
1
1
1
1
1
1
1
1
1
1
1
1
1
1
1
1
1
1
1
1
1
1
1
1
1
1
1
1
1
1
1
1
1
1
1
1
1
1
1
1
1
1
1
1
1
1
1
1
1
1
1
1
1
1
1
1
1
1
1
1
1
1
1
1
1
1
1
1
1
1
1
1
1
1
1
1
1
1
1
1
1
1
1
1
1
1
1
1
1
1
1
1
1
1
1
1
1
1
1
1
1
1
1
1
1
1
1
1
1
1
1
1
1
1
1
1
1
1
1
1
1
1
1
1
1
1
1
1
1
1
1
1
1
1
1
1
1
1
1
1
1
1
1
1
1
1
1
1
1
1
1
1
1
1
1
1
1
1
0.72338
0.713769
0.713628
0.715557
0.719584
0.723739
0.729781
0.737341
0.743768
0.74971
0.753902
0.759012
0.763529
0.766673
0.769258
0.771168
0.772783
0.774151
0.774839
0.775419
0.775576
0.77549
0.77524
0.77466
0.774028
0.772785
0.770915
0.76928
0.767148
0.764541
0.761553
0.757854
0.753684
0.750722
0.746854
0.741562
0.738263
0.733446
0.725944
0.721068
0.714742
0.691256
0.663973
0.666532
0.680736
0.68989
0.696476
0.703498
0.714549
0.732562
0.75118
0.762126
0.763094
0.759734
0.748168
0.715844
0.688002
0.697423
0.779831
0.815059
0.814138
0.804446
0.76058
0.757431
0.766139
0.769855
0.774131
0.776915
0.780315
0.782691
0.785325
0.787662
0.789568
0.792664
0.794577
0.796628
0.79841
0.801076
0.803703
0.805547
0.807309
0.80954
0.812031
0.81415
0.816326
0.819127
0.821995
0.824316
0.826768
0.829844
0.832315
0.834339
0.836691
0.838384
0.840206
0.841658
0.842371
0.843271
0.843538
0.8436
0.843732
0.843875
0.843894
0.844105
0.844337
0.844606
0.844704
0.84499
0.845405
0.846104
0.846886
0.84781
0.848961
0.849896
0.851236
0.852435
0.85363
0.854737
0.855731
0.856409
0.856639
0.856568
0.855951
0.85381
0.848922
0.843185
0.838376
0.835869
0.835529
0.836831
0.841596
0.846513
0.8507
0.854454
0.857853
0.860914
0.863623
0.86602
0.868185
0.870198
0.872087
0.873833
0.875389
0.876725
0.877809
0.878609
0.879118
0.879336
0.87933
0.879107
0.8789
0.878917
0.879693
0.883476
0.888374
0.892226
0.896456
0.900062
0.901949
0.903463
0.905335
0.906691
0.907164
0.907466
0.908311
0.910439
0.915847
0.926739
0.934635
0.937348
0.940243
0.943935
0.9437
0.938528
0.915079
0.894053
0.854747
0.731165
0.665227
0.66961
0.732233
0.724065
0.725841
0.724647
0.72617
0.733247
0.748499
0.767892
0.789415
0.806704
0.819667
0.827353
0.832381
0.835264
0.836799
0.837757
0.837867
0.837673
0.837135
0.836261
0.835506
0.835024
0.834159
0.832632
0.831485
0.830255
0.827996
0.826386
0.825125
0.82365
0.82177
0.818581
0.816134
0.812266
0.803885
0.795845
0.784922
0.777446
0.767326
0.747534
0.734889
0.717181
0.700608
0.68637
0.684297
0.681636
0.678257
0.67793
0.681153
0.694222
0.736488
0.794338
0.823753
0.827232
0.818031
0.766193
0.703612
0.698651
0.753971
0.807146
0.796302
0.760052
0.753588
0.753497
0.75764
0.762248
0.766336
0.771352
0.776376
0.781616
0.7873
0.79291
0.797375
0.803917
0.81009
0.816396
0.82247
0.828199
0.835491
0.841585
0.848129
0.854435
0.861411
0.868649
0.875654
0.882164
0.890328
0.898271
0.903124
0.910942
0.916513
0.920483
0.925111
0.928055
0.929984
0.931031
0.93142
0.93143
0.930284
0.927947
0.925397
0.922393
0.918845
0.915087
0.911163
0.907062
0.902596
0.89795
0.892966
0.887992
0.883651
0.879626
0.876682
0.874527
0.873326
0.873006
0.873508
0.874898
0.87695
0.879397
0.881992
0.884657
0.887525
0.890529
0.892894
0.893767
0.893484
0.890008
0.872318
0.846526
0.832227
0.825979
0.824245
0.824337
0.826399
0.833518
0.841448
0.84848
0.854863
0.860866
0.866615
0.87226
0.877733
0.882953
0.88782
0.892274
0.896327
0.900014
0.903
0.905555
0.908211
0.910326
0.911722
0.913296
0.914979
0.915793
0.915811
0.915369
0.914429
0.913793
0.913658
0.914132
0.916216
0.918737
0.921735
0.927845
0.938258
0.951763
0.959713
0.960249
0.960557
0.961155
0.960015
0.955136
0.943858
0.929535
0.916531
0.886722
0.787994
0.731172
0.739091
0.735985
0.725603
0.727439
0.739187
0.768135
0.803518
0.830544
0.84249
0.847792
0.849741
0.849888
0.849596
0.848792
0.847183
0.84545
0.843778
0.841621
0.839279
0.837252
0.835889
0.834818
0.833181
0.831135
0.829551
0.82859
0.827703
0.82685
0.826389
0.826172
0.825765
0.824668
0.821874
0.817841
0.812504
0.805818
0.797344
0.789656
0.78488
0.779126
0.767228
0.753111
0.734808
0.721976
0.711202
0.702234
0.694027
0.689751
0.689061
0.689508
0.695767
0.742804
0.823073
0.838363
0.818484
0.746383
0.70026
0.703572
0.783706
0.793384
0.754979
0.746227
0.745392
0.750983
0.758334
0.765867
0.777514
0.791195
0.807784
0.825295
0.844955
0.86216
0.880465
0.896566
0.908282
0.91919
0.928479
0.936063
0.942037
0.946905
0.951805
0.955678
0.957974
0.961151
0.962728
0.964308
0.966258
0.967159
0.967864
0.968831
0.969367
0.969713
0.970124
0.970328
0.97045
0.970512
0.970534
0.97045
0.97022
0.969946
0.96954
0.968995
0.968364
0.967662
0.966916
0.966092
0.965109
0.963913
0.9624
0.960435
0.95819
0.95554
0.952621
0.949641
0.946865
0.944368
0.942126
0.940004
0.937641
0.934889
0.931542
0.927133
0.921396
0.91482
0.909359
0.907919
0.910587
0.917841
0.92118
0.920924
0.917078
0.900444
0.867621
0.846467
0.835429
0.829971
0.827701
0.827278
0.82767
0.83035
0.838355
0.846748
0.854465
0.861812
0.868654
0.875054
0.881071
0.886766
0.892527
0.898758
0.905197
0.910538
0.91381
0.914966
0.914977
0.913783
0.907808
0.897619
0.889995
0.885172
0.883016
0.883265
0.887358
0.900904
0.920219
0.939648
0.954703
0.962253
0.963575
0.962163
0.955934
0.94649
0.944631
0.947081
0.947917
0.947407
0.945788
0.940778
0.916001
0.839175
0.733494
0.713463
0.718357
0.746056
0.802563
0.837175
0.849425
0.853183
0.853254
0.851894
0.848688
0.843332
0.838042
0.830904
0.824107
0.817379
0.811743
0.806233
0.801319
0.797135
0.794208
0.791883
0.788868
0.787989
0.788447
0.789852
0.792883
0.796802
0.800644
0.804171
0.806847
0.808076
0.80806
0.806211
0.801524
0.796666
0.79117
0.786219
0.782662
0.779753
0.775881
0.76775
0.752382
0.736958
0.724198
0.714484
0.706807
0.699711
0.693964
0.692136
0.694409
0.722737
0.814691
0.844834
0.821686
0.741809
0.706877
0.74535
0.796232
0.758249
0.741746
0.739936
0.744261
0.754696
0.770198
0.794936
0.835197
0.867171
0.897444
0.913216
0.926769
0.939407
0.950094
0.956465
0.962023
0.965063
0.968242
0.969578
0.970675
0.97155
0.972021
0.972411
0.972598
0.972695
0.972721
0.972661
0.972517
0.972466
0.97246
0.972472
0.972485
0.972482
0.972468
0.972454
0.972448
0.972455
0.97247
0.972501
0.972553
0.972588
0.972612
0.972568
0.972419
0.972138
0.971816
0.971482
0.971168
0.970905
0.970686
0.970518
0.970419
0.970342
0.970248
0.970052
0.969809
0.969679
0.969741
0.970375
0.971955
0.973768
0.975383
0.97657
0.976961
0.976166
0.971478
0.957891
0.941642
0.930365
0.927816
0.931187
0.93779
0.938497
0.936609
0.927449
0.901594
0.878423
0.863106
0.854111
0.850653
0.850321
0.850679
0.851648
0.853631
0.858639
0.865505
0.871636
0.876496
0.880523
0.884503
0.888955
0.894022
0.899504
0.903624
0.904891
0.903718
0.893849
0.873374
0.86161
0.856656
0.855576
0.856275
0.860068
0.870874
0.894421
0.921917
0.945302
0.95854
0.962222
0.961218
0.953254
0.942965
0.938554
0.937666
0.93784
0.938466
0.940815
0.944591
0.944801
0.94155
0.915143
0.704605
0.713406
0.759002
0.827428
0.849134
0.854715
0.853345
0.84823
0.83794
0.822844
0.806289
0.789492
0.775372
0.760006
0.747645
0.736517
0.728444
0.720791
0.71396
0.708089
0.702334
0.700963
0.702426
0.705913
0.711249
0.717589
0.724548
0.732261
0.739767
0.74699
0.753088
0.758083
0.762681
0.765709
0.767991
0.770608
0.773145
0.774554
0.77478
0.774577
0.773077
0.767859
0.75227
0.734462
0.72129
0.712396
0.705769
0.699083
0.69346
0.69182
0.694724
0.727464
0.82222
0.852964
0.831237
0.758784
0.743846
0.792659
0.785096
0.741477
0.735741
0.737053
0.748737
0.772801
0.818869
0.867809
0.90504
0.927511
0.939708
0.948534
0.954998
0.96238
0.96682
0.96946
0.971116
0.971855
0.972213
0.972333
0.972367
0.972345
0.972178
0.972026
0.971845
0.971788
0.971777
0.971828
0.972027
0.972331
0.97255
0.97259
0.972551
0.97242
0.972209
0.971973
0.971823
0.971762
0.971753
0.971881
0.972159
0.972456
0.972739
0.973009
0.973237
0.973426
0.973336
0.972969
0.972359
0.971781
0.971309
0.970942
0.970761
0.970837
0.971255
0.971907
0.972468
0.973032
0.973541
0.973933
0.974566
0.976002
0.977946
0.980244
0.982745
0.985137
0.986965
0.987628
0.986794
0.980755
0.963809
0.951462
0.948178
0.94948
0.953217
0.953456
0.951857
0.945053
0.924475
0.904244
0.891281
0.883709
0.880074
0.87919
0.879242
0.879555
0.880507
0.883298
0.886937
0.889891
0.891728
0.892444
0.892572
0.892541
0.892386
0.891493
0.885166
0.86676
0.855055
0.850903
0.850189
0.850579
0.853027
0.860565
0.878309
0.902374
0.928365
0.949034
0.958916
0.960188
0.956404
0.945472
0.940331
0.939681
0.94215
0.945377
0.946268
0.945367
0.943583
0.943603
0.943156
0.936628
0.724201
0.767553
0.836151
0.851762
0.853022
0.845005
0.824312
0.793528
0.758938
0.723153
0.693528
0.669836
0.653127
0.639942
0.633401
0.628825
0.626293
0.623856
0.625416
0.63094
0.64207
0.65452
0.66564
0.675107
0.682899
0.688627
0.693247
0.697391
0.69994
0.702526
0.708472
0.715574
0.720106
0.726081
0.735706
0.746943
0.756866
0.763484
0.766387
0.766821
0.765745
0.759551
0.739073
0.718529
0.706028
0.700366
0.697246
0.692835
0.688453
0.687583
0.695209
0.750998
0.840307
0.861689
0.842087
0.788566
0.785228
0.799216
0.758113
0.733257
0.731632
0.739352
0.764765
0.819699
0.87302
0.910724
0.938631
0.950405
0.956199
0.959846
0.962821
0.966253
0.968489
0.97009
0.970757
0.970917
0.970912
0.970796
0.970669
0.97059
0.970561
0.970571
0.970814
0.971259
0.971778
0.972571
0.973123
0.973212
0.97309
0.972632
0.971867
0.970853
0.969654
0.96864
0.968052
0.967836
0.967824
0.968072
0.968629
0.969302
0.970196
0.971273
0.972521
0.973597
0.974531
0.975216
0.97574
0.975571
0.974484
0.972619
0.971027
0.969991
0.969469
0.969565
0.970799
0.972671
0.974124
0.975321
0.976184
0.976712
0.977488
0.979123
0.981257
0.983986
0.987015
0.989778
0.991689
0.992237
0.991455
0.9862
0.974398
0.968047
0.966896
0.968009
0.969394
0.969196
0.967432
0.961184
0.942011
0.920849
0.906187
0.896811
0.891375
0.888808
0.887974
0.887904
0.888262
0.890217
0.892982
0.894468
0.894837
0.89464
0.89289
0.884816
0.867789
0.856251
0.851333
0.850202
0.8504
0.852272
0.860068
0.883775
0.906443
0.924129
0.94103
0.953888
0.95891
0.958716
0.952938
0.944387
0.942009
0.944206
0.95567
0.964726
0.967714
0.967564
0.961759
0.95032
0.946518
0.942151
0.795805
0.838028
0.853367
0.847777
0.823403
0.77201
0.710157
0.660294
0.626869
0.605962
0.593408
0.584692
0.580934
0.57988
0.579212
0.578992
0.581711
0.589104
0.601796
0.620831
0.643057
0.663718
0.678106
0.685861
0.689912
0.692267
0.694507
0.697251
0.69972
0.701425
0.703963
0.710223
0.720564
0.732051
0.743782
0.752438
0.757225
0.758498
0.757627
0.752105
0.73307
0.705178
0.682893
0.669686
0.665188
0.665314
0.668117
0.671701
0.675836
0.685137
0.71281
0.801851
0.858479
0.868054
0.850199
0.807845
0.804562
0.796813
0.74271
0.728777
0.73008
0.747613
0.795558
0.853007
0.893297
0.93224
0.951697
0.958574
0.961598
0.963181
0.964523
0.966255
0.967919
0.968988
0.969461
0.969871
0.970303
0.970663
0.970966
0.971334
0.971987
0.972948
0.974345
0.975216
0.975475
0.975512
0.975036
0.973725
0.972043
0.96981
0.967345
0.965324
0.964427
0.96416
0.964128
0.964254
0.964553
0.964946
0.965285
0.965453
0.965626
0.965712
0.966051
0.967927
0.970833
0.973796
0.975978
0.97787
0.979282
0.979968
0.978697
0.975073
0.971012
0.968553
0.96741
0.967506
0.970109
0.974106
0.97716
0.979519
0.981113
0.98161
0.981908
0.983238
0.985832
0.988655
0.991475
0.993728
0.994836
0.994857
0.993639
0.9884
0.983421
0.98181
0.981875
0.982872
0.983119
0.982735
0.980868
0.975207
0.958031
0.935457
0.917811
0.905372
0.897563
0.893514
0.891995
0.891739
0.892032
0.893293
0.893931
0.893883
0.892571
0.885017
0.867675
0.857976
0.855371
0.85536
0.856376
0.860809
0.877876
0.90966
0.93104
0.944166
0.953442
0.958974
0.960265
0.959149
0.951946
0.946204
0.946279
0.952106
0.965007
0.972609
0.975879
0.976554
0.975817
0.968886
0.95453
0.947537
0.831391
0.852238
0.840946
0.791529
0.701566
0.637379
0.609416
0.591805
0.58009
0.571758
0.565609
0.5617
0.560435
0.560702
0.562122
0.565119
0.573634
0.590571
0.623095
0.666006
0.695585
0.708394
0.713132
0.713995
0.713134
0.711163
0.709642
0.710197
0.712299
0.71721
0.725697
0.735143
0.74244
0.747055
0.748585
0.747801
0.739701
0.713762
0.686215
0.666349
0.655289
0.651848
0.651801
0.654658
0.659566
0.663534
0.668174
0.673667
0.683629
0.70828
0.778915
0.842123
0.86887
0.871375
0.856887
0.820197
0.812471
0.788621
0.734263
0.725472
0.730393
0.75916
0.813585
0.862154
0.900482
0.941361
0.956542
0.961314
0.963194
0.964117
0.964915
0.966253
0.967735
0.968946
0.969797
0.970735
0.971866
0.973262
0.9752
0.976906
0.978035
0.978566
0.978713
0.978355
0.977084
0.97531
0.973014
0.969758
0.966259
0.964256
0.963616
0.963429
0.963394
0.963419
0.963546
0.963786
0.964022
0.964306
0.964664
0.964869
0.964911
0.964516
0.96334
0.962069
0.961929
0.963606
0.967212
0.971977
0.977107
0.980781
0.983281
0.984389
0.983294
0.977325
0.970208
0.966128
0.964815
0.965594
0.970961
0.97769
0.982339
0.985382
0.987175
0.987763
0.988193
0.989276
0.991229
0.993421
0.995353
0.996506
0.996799
0.996594
0.99514
0.992851
0.991911
0.991835
0.992207
0.992518
0.992468
0.991987
0.99026
0.985526
0.971186
0.947003
0.926427
0.911616
0.902381
0.897449
0.894958
0.893747
0.89319
0.892647
0.891364
0.885935
0.87194
0.864795
0.863508
0.863801
0.86562
0.873124
0.900804
0.932214
0.9485
0.956527
0.961047
0.962876
0.962858
0.960701
0.953016
0.949822
0.950335
0.956395
0.967543
0.974587
0.978449
0.979851
0.979883
0.978452
0.9686
0.954441
0.84529
0.847534
0.768971
0.655587
0.614024
0.597845
0.585742
0.575028
0.567779
0.562058
0.558227
0.55639
0.556202
0.55795
0.563618
0.577753
0.609483
0.651444
0.687303
0.704277
0.712486
0.716271
0.717874
0.718599
0.719057
0.719916
0.721554
0.726684
0.732853
0.735261
0.733897
0.734407
0.729
0.706271
0.681254
0.663422
0.653972
0.654575
0.664241
0.688005
0.713025
0.729629
0.738763
0.742594
0.741389
0.738188
0.736904
0.740906
0.758955
0.799177
0.837783
0.862348
0.871802
0.871778
0.859643
0.828485
0.817131
0.782654
0.728679
0.722334
0.730226
0.765924
0.818314
0.861851
0.903388
0.944802
0.957921
0.962118
0.963799
0.964634
0.965501
0.966843
0.968634
0.970741
0.973338
0.975964
0.978266
0.979648
0.980275
0.980447
0.980404
0.979725
0.978517
0.976994
0.974466
0.971
0.967502
0.965049
0.964036
0.96364
0.963526
0.963521
0.963569
0.963645
0.963729
0.963814
0.963888
0.96402
0.964336
0.964683
0.96485
0.964729
0.963799
0.961646
0.960294
0.959734
0.959899
0.960995
0.963936
0.970314
0.978324
0.98423
0.987221
0.987985
0.985684
0.975938
0.966616
0.963052
0.962842
0.966291
0.976509
0.98421
0.988492
0.991147
0.992911
0.993751
0.994023
0.994471
0.99556
0.99682
0.997722
0.998114
0.99815
0.997978
0.997421
0.997149
0.997132
0.997267
0.997423
0.997428
0.997327
0.996875
0.995452
0.991585
0.979837
0.956068
0.936087
0.921442
0.910825
0.903396
0.898449
0.895385
0.892731
0.886657
0.876478
0.871457
0.870868
0.871573
0.875296
0.890819
0.935863
0.967545
0.975275
0.974024
0.969738
0.96763
0.96631
0.962732
0.956067
0.953529
0.953724
0.957171
0.966582
0.974264
0.979406
0.981845
0.982257
0.981851
0.978202
0.963382
0.845697
0.798115
0.651509
0.612026
0.598819
0.589033
0.578151
0.5705
0.564723
0.560993
0.560703
0.563249
0.570167
0.583576
0.605736
0.635743
0.661188
0.678318
0.690006
0.69439
0.696709
0.698709
0.700675
0.70198
0.702631
0.703116
0.701568
0.697705
0.694343
0.685633
0.663945
0.654197
0.652251
0.657456
0.685026
0.734259
0.798712
0.846875
0.873519
0.882994
0.885061
0.884298
0.882576
0.879518
0.875439
0.865961
0.849841
0.840477
0.839839
0.843437
0.853931
0.864963
0.869974
0.869306
0.858607
0.834343
0.821228
0.783763
0.725655
0.719186
0.729097
0.765593
0.817269
0.860056
0.908502
0.947511
0.958891
0.962875
0.964591
0.965635
0.967046
0.969502
0.973499
0.97684
0.97903
0.980006
0.980432
0.980541
0.980384
0.979905
0.978775
0.976827
0.973936
0.970735
0.96824
0.966332
0.965289
0.964683
0.964271
0.963984
0.96389
0.963872
0.963891
0.963906
0.963911
0.963886
0.963796
0.963673
0.963634
0.96385
0.964267
0.964622
0.964297
0.962871
0.960728
0.959555
0.959146
0.959091
0.959347
0.960318
0.963397
0.971959
0.98262
0.988396
0.990054
0.989335
0.981873
0.968148
0.962332
0.961728
0.964288
0.97575
0.985983
0.991042
0.993754
0.995529
0.996634
0.997108
0.997232
0.997458
0.998019
0.998564
0.998919
0.999078
0.999105
0.999097
0.999096
0.999128
0.999231
0.999285
0.999292
0.999275
0.999175
0.998824
0.997746
0.994779
0.986692
0.972361
0.955553
0.940124
0.926665
0.913542
0.900027
0.886543
0.87792
0.876363
0.877197
0.880797
0.891819
0.928959
0.971461
0.988957
0.992843
0.992011
0.985188
0.977756
0.972134
0.965369
0.959832
0.957506
0.95737
0.958637
0.964012
0.973142
0.97994
0.98344
0.984297
0.984129
0.982345
0.971548
0.833444
0.703177
0.621274
0.60426
0.595944
0.585688
0.576583
0.575035
0.576861
0.582804
0.592509
0.605674
0.622081
0.639206
0.653034
0.65921
0.660881
0.661227
0.660668
0.660522
0.660999
0.661362
0.661818
0.662405
0.66251
0.662814
0.659243
0.656046
0.657013
0.663844
0.684406
0.730915
0.787702
0.860949
0.905105
0.92176
0.924919
0.91648
0.897152
0.877376
0.858992
0.843621
0.832911
0.824512
0.819863
0.821156
0.824645
0.828912
0.833737
0.839306
0.848581
0.857253
0.85958
0.856307
0.850046
0.834627
0.824371
0.787795
0.725566
0.71604
0.726164
0.763507
0.813802
0.85518
0.910429
0.950613
0.9612
0.964836
0.966609
0.96829
0.971351
0.975993
0.978506
0.979665
0.980078
0.980155
0.980004
0.979167
0.977525
0.974553
0.971777
0.96881
0.967347
0.966229
0.96526
0.964775
0.964306
0.963995
0.96368
0.963372
0.963204
0.963196
0.963324
0.963524
0.963738
0.963851
0.963804
0.963571
0.963346
0.963149
0.963052
0.963232
0.963513
0.963058
0.961784
0.960337
0.959318
0.959014
0.959008
0.959168
0.95975
0.96149
0.967192
0.980409
0.988784
0.990965
0.990415
0.983687
0.968473
0.96225
0.961886
0.965227
0.978403
0.988581
0.993426
0.995872
0.997316
0.998194
0.998643
0.998768
0.998785
0.998854
0.999111
0.999355
0.999505
0.999596
0.999662
0.99972
0.999767
0.999796
0.99981
0.999813
0.999811
0.999796
0.999737
0.999555
0.999102
0.998164
0.996318
0.992533
0.983645
0.956569
0.917675
0.893555
0.887503
0.888693
0.894432
0.907838
0.941223
0.973378
0.990263
0.996683
0.998183
0.998055
0.996428
0.989547
0.979015
0.970353
0.964577
0.962067
0.96171
0.962181
0.964861
0.97331
0.980924
0.984632
0.985506
0.98534
0.984101
0.977001
0.806635
0.656891
0.615485
0.602636
0.598159
0.598685
0.606137
0.618766
0.63168
0.64564
0.660714
0.672386
0.677265
0.679739
0.680722
0.680555
0.678964
0.677258
0.67279
0.669421
0.666709
0.665673
0.665765
0.669708
0.676886
0.692862
0.711159
0.735443
0.771857
0.820132
0.872674
0.915263
0.931781
0.938232
0.940046
0.937691
0.928461
0.905826
0.868769
0.838559
0.817636
0.805274
0.799323
0.797301
0.796391
0.796429
0.797066
0.798934
0.803272
0.809931
0.818245
0.8266
0.830344
0.830016
0.830035
0.830576
0.824829
0.795986
0.727293
0.71322
0.721368
0.758707
0.806781
0.849618
0.915095
0.95408
0.964629
0.968518
0.970497
0.972673
0.976342
0.978972
0.979794
0.979943
0.979752
0.978825
0.976542
0.972762
0.9702
0.968115
0.966875
0.96562
0.96496
0.964175
0.963285
0.962342
0.961328
0.960289
0.959569
0.959244
0.959204
0.95972
0.960572
0.961634
0.962854
0.963829
0.964521
0.964264
0.963886
0.963428
0.962995
0.962699
0.962482
0.962262
0.961893
0.961164
0.960063
0.959337
0.959134
0.959176
0.959517
0.960391
0.962172
0.967222
0.981069
0.989411
0.991165
0.990084
0.980819
0.967174
0.962922
0.963446
0.969843
0.983961
0.991995
0.995744
0.99755
0.998532
0.999084
0.999363
0.999457
0.999465
0.999463
0.999493
0.999623
0.999745
0.999822
0.999872
0.999907
0.999929
0.999941
0.999947
0.999949
0.999949
0.999947
0.999937
0.999909
0.999836
0.999658
0.999194
0.997631
0.990606
0.958355
0.927728
0.924335
0.929408
0.94898
0.968581
0.982526
0.992369
0.997373
0.999164
0.999588
0.999575
0.999174
0.997081
0.988799
0.977814
0.970851
0.967831
0.967361
0.967821
0.970308
0.978342
0.984823
0.987296
0.987401
0.986355
0.984224
0.979475
0.778511
0.643938
0.625367
0.627331
0.638063
0.653539
0.67437
0.696558
0.720448
0.748195
0.770851
0.791437
0.809543
0.822092
0.829301
0.832041
0.828895
0.820247
0.804479
0.786254
0.765973
0.753591
0.750293
0.758875
0.777618
0.80046
0.830305
0.865479
0.900535
0.924132
0.937502
0.944437
0.948445
0.950533
0.949928
0.944236
0.932958
0.907399
0.870767
0.838688
0.815862
0.80212
0.795181
0.792897
0.792689
0.792942
0.794021
0.795517
0.796903
0.798418
0.801047
0.805468
0.809428
0.811486
0.813951
0.821271
0.822679
0.803672
0.732355
0.710998
0.716676
0.75175
0.798996
0.844479
0.917575
0.95774
0.967778
0.97153
0.973508
0.975857
0.978695
0.979718
0.979848
0.979515
0.977906
0.973821
0.969917
0.968064
0.96687
0.965661
0.964528
0.963275
0.961878
0.960011
0.95766
0.955239
0.952972
0.950823
0.949749
0.949308
0.949713
0.95129
0.953952
0.956608
0.959761
0.962851
0.965229
0.966945
0.966398
0.965722
0.964696
0.963649
0.962809
0.96219
0.961813
0.961433
0.960775
0.96003
0.959668
0.959644
0.959927
0.960733
0.961913
0.964432
0.971791
0.98467
0.990313
0.990804
0.98791
0.975033
0.966315
0.964933
0.967284
0.978492
0.989524
0.995024
0.997524
0.998683
0.999265
0.999565
0.99971
0.999764
0.999775
0.999775
0.999781
0.999818
0.999881
0.999924
0.999951
0.999968
0.999978
0.999983
0.999985
0.999986
0.999986
0.999986
0.999983
0.999974
0.999946
0.999842
0.999347
0.996405
0.982532
0.97428
0.975073
0.981236
0.988461
0.992516
0.995823
0.998242
0.999402
0.999769
0.999846
0.999846
0.999755
0.99916
0.996317
0.987282
0.979557
0.976174
0.975708
0.976353
0.980207
0.986981
0.989515
0.989581
0.988848
0.985026
0.982233
0.978957
0.760613
0.650989
0.644878
0.665034
0.699042
0.755438
0.821461
0.855361
0.889908
0.911846
0.924865
0.936897
0.941928
0.947007
0.951026
0.955038
0.958241
0.959656
0.958214
0.952066
0.938191
0.913807
0.880999
0.850607
0.835773
0.829388
0.844556
0.872667
0.905372
0.927193
0.939944
0.947461
0.951602
0.954539
0.955229
0.954197
0.949357
0.936452
0.907018
0.865078
0.829744
0.806949
0.795405
0.791183
0.790756
0.791166
0.793516
0.797107
0.798113
0.798467
0.798844
0.799543
0.800666
0.801786
0.803786
0.811393
0.818304
0.806669
0.740382
0.709707
0.712426
0.743928
0.790616
0.837683
0.916186
0.95858
0.969428
0.973159
0.975066
0.977327
0.979293
0.979717
0.979544
0.977902
0.972919
0.96865
0.966643
0.965644
0.964544
0.96286
0.960664
0.957912
0.954145
0.949788
0.945729
0.942868
0.942001
0.942007
0.942161
0.942183
0.941879
0.941079
0.942137
0.946222
0.951367
0.957789
0.964012
0.96865
0.970974
0.970696
0.969594
0.967768
0.965834
0.964128
0.962943
0.962171
0.961583
0.961075
0.960764
0.960741
0.961212
0.9626
0.963359
0.964744
0.969018
0.980281
0.988507
0.99072
0.989835
0.981931
0.971097
0.967849
0.968439
0.97494
0.986852
0.993803
0.997174
0.998681
0.999355
0.999667
0.999812
0.999877
0.999902
0.999909
0.999912
0.99992
0.999938
0.999958
0.999973
0.999983
0.99999
0.999994
0.999995
0.999996
0.999996
0.999996
0.999996
0.999995
0.99999
0.999969
0.999854
0.999125
0.996414
0.995401
0.995664
0.996905
0.997905
0.998518
0.999176
0.999658
0.999843
0.999858
0.999848
0.999846
0.999826
0.999668
0.998863
0.995018
0.989001
0.986573
0.986476
0.98772
0.991121
0.991989
0.991712
0.990533
0.987322
0.979784
0.976015
0.975215
0.756281
0.664707
0.677561
0.748411
0.825307
0.874761
0.912265
0.932981
0.945107
0.950658
0.953133
0.954093
0.954266
0.955023
0.95657
0.961348
0.969165
0.975374
0.981243
0.985839
0.987925
0.985905
0.976796
0.955018
0.917682
0.880682
0.852906
0.849745
0.855722
0.871715
0.899575
0.927052
0.94198
0.950799
0.955328
0.957251
0.957778
0.956925
0.951119
0.92626
0.869162
0.825099
0.800251
0.789841
0.787801
0.788362
0.792218
0.797928
0.800109
0.800136
0.799665
0.799382
0.798016
0.797474
0.798173
0.803649
0.813345
0.806326
0.748627
0.70935
0.70901
0.735904
0.781191
0.828774
0.912183
0.958137
0.969586
0.973527
0.975461
0.97761
0.979249
0.979497
0.978537
0.974107
0.968283
0.965697
0.964535
0.963395
0.96074
0.956576
0.95166
0.945919
0.940805
0.937839
0.936594
0.936406
0.937873
0.939763
0.940977
0.941237
0.940862
0.939069
0.935398
0.933733
0.937269
0.945875
0.957604
0.967544
0.974301
0.976656
0.97673
0.97541
0.972861
0.969994
0.967366
0.965317
0.964172
0.963619
0.963234
0.963096
0.96346
0.965535
0.966779
0.967443
0.969555
0.977773
0.987305
0.990754
0.990665
0.986344
0.976016
0.971643
0.971413
0.974545
0.984724
0.992442
0.996556
0.998497
0.999346
0.999708
0.999862
0.999926
0.999952
0.999963
0.999969
0.999974
0.999979
0.999984
0.999989
0.999993
0.999995
0.999997
0.999998
0.999999
0.999999
0.999999
0.999999
0.999999
0.999999
0.999996
0.999985
0.999911
0.999608
0.999481
0.999506
0.999623
0.999694
0.999757
0.999869
0.999924
0.999905
0.999745
0.999588
0.999591
0.999667
0.999671
0.99944
0.99815
0.995945
0.995186
0.995143
0.995056
0.994652
0.99361
0.991302
0.984692
0.978926
0.973585
0.969882
0.969616
0.761877
0.681969
0.719557
0.821334
0.891066
0.924799
0.941604
0.947999
0.949597
0.949017
0.944651
0.940973
0.938514
0.934967
0.930155
0.926992
0.925532
0.93994
0.959133
0.980701
0.99048
0.99517
0.996943
0.99669
0.992939
0.982587
0.95496
0.909773
0.86725
0.845073
0.840071
0.848121
0.880791
0.916686
0.939319
0.951419
0.957207
0.959283
0.959236
0.954974
0.927782
0.859752
0.812893
0.790909
0.784991
0.785401
0.791178
0.799337
0.801914
0.802008
0.801591
0.800438
0.797906
0.795523
0.795488
0.798604
0.808682
0.805196
0.756499
0.709788
0.706111
0.728286
0.77134
0.81716
0.904043
0.956503
0.969344
0.973456
0.975422
0.977507
0.978903
0.978807
0.976212
0.9712
0.966593
0.964193
0.962371
0.958923
0.952701
0.946611
0.940995
0.936341
0.93379
0.932747
0.932793
0.934037
0.936592
0.939174
0.940879
0.941256
0.940964
0.939418
0.934178
0.928653
0.926623
0.930163
0.944708
0.962308
0.974423
0.981446
0.983821
0.984024
0.982873
0.979988
0.976278
0.972632
0.970314
0.969195
0.968419
0.96787
0.967852
0.969335
0.971361
0.971856
0.972704
0.977197
0.986644
0.99125
0.991694
0.989512
0.98139
0.976398
0.975539
0.976864
0.983962
0.991634
0.995973
0.99821
0.99925
0.999694
0.999874
0.999946
0.999973
0.999984
0.999989
0.999991
0.999993
0.999994
0.999996
0.999997
0.999998
0.999999
0.999999
1
1
1
1
1
1
1
0.999999
0.999992
0.999963
0.999947
0.999949
0.999958
0.999963
0.999972
0.999975
0.999963
0.999832
0.999202
0.998768
0.998767
0.999022
0.999312
0.999329
0.999093
0.998548
0.998137
0.997462
0.996132
0.993577
0.988603
0.982791
0.976007
0.971817
0.96871
0.965639
0.965089
0.774048
0.694449
0.737646
0.859279
0.917146
0.939693
0.947774
0.9505
0.951162
0.948441
0.945951
0.946276
0.948827
0.9485
0.942035
0.926496
0.907517
0.897539
0.904588
0.935429
0.972775
0.990483
0.997079
0.999016
0.999595
0.999508
0.998477
0.994528
0.980362
0.934731
0.872688
0.831552
0.820408
0.828172
0.872018
0.917471
0.942519
0.954867
0.959369
0.959426
0.953216
0.90886
0.835328
0.795717
0.783295
0.783452
0.791367
0.80226
0.804982
0.804818
0.803858
0.80182
0.798171
0.794772
0.794043
0.795929
0.804803
0.803149
0.762761
0.710594
0.703771
0.721631
0.762561
0.804384
0.891706
0.952886
0.968558
0.973153
0.975191
0.977079
0.978097
0.977298
0.973525
0.967834
0.962977
0.960793
0.957345
0.950542
0.943828
0.938699
0.934922
0.932422
0.931402
0.931537
0.932332
0.934046
0.936995
0.939469
0.940644
0.940181
0.939243
0.937541
0.932169
0.924771
0.921167
0.922
0.935957
0.95822
0.973549
0.983916
0.989548
0.991693
0.991924
0.991284
0.988736
0.984222
0.980354
0.978173
0.97675
0.97555
0.974984
0.975316
0.976852
0.977149
0.97724
0.978721
0.985688
0.992009
0.993684
0.992973
0.988064
0.982525
0.980814
0.981108
0.984701
0.991523
0.995759
0.998029
0.999146
0.999653
0.999865
0.999948
0.999979
0.999991
0.999995
0.999997
0.999998
0.999998
0.999999
0.999999
0.999999
1
1
1
1
1
1
1
1
1
1
0.999999
0.999996
0.999995
0.999995
0.999996
0.999996
0.999996
0.999991
0.999936
0.999517
0.997951
0.997027
0.997001
0.997457
0.998239
0.998557
0.998576
0.998337
0.997345
0.994744
0.988466
0.983115
0.979408
0.976594
0.972129
0.968301
0.966289
0.963517
0.962298
0.796236
0.702333
0.728661
0.84848
0.913939
0.938905
0.950762
0.955597
0.955241
0.951704
0.950188
0.958125
0.965224
0.965447
0.962967
0.952751
0.920262
0.892896
0.892978
0.912339
0.959269
0.98513
0.995392
0.998659
0.999635
0.999904
0.999951
0.999892
0.999444
0.997058
0.985286
0.93093
0.848767
0.812262
0.809654
0.836616
0.898252
0.935314
0.953301
0.95903
0.958207
0.941774
0.867229
0.80487
0.782393
0.78152
0.791202
0.805496
0.808734
0.808343
0.806723
0.803275
0.798641
0.794685
0.793365
0.794531
0.801868
0.801045
0.767311
0.711699
0.701957
0.716289
0.754988
0.792689
0.87561
0.946262
0.966875
0.972426
0.974594
0.975993
0.976234
0.974959
0.971369
0.965765
0.961019
0.957595
0.953749
0.947966
0.942311
0.937942
0.934815
0.932323
0.93234
0.933317
0.936273
0.938264
0.938608
0.938398
0.936644
0.932424
0.928479
0.92548
0.919196
0.911285
0.909226
0.913093
0.93361
0.957391
0.973707
0.985335
0.992759
0.995983
0.997078
0.997147
0.996806
0.995462
0.991906
0.988828
0.986837
0.985008
0.983664
0.983188
0.983224
0.982931
0.982137
0.982171
0.985251
0.991935
0.995501
0.996164
0.995045
0.990288
0.987131
0.986595
0.987552
0.991879
0.995806