/*--------------------------------*- C++ -*----------------------------------*\
  =========                 |
  \\      /  F ield         | OpenFOAM: The Open Source CFD Toolbox
   \\    /   O peration     | Website:  https://openfoam.org
    \\  /    A nd           | Version:  9
     \\/     M anipulation  |
\*---------------------------------------------------------------------------*/
FoamFile
{
    format      ascii;
    class       volSymmTensorField;
    location    "0.073";
    object      UPrime2Mean;
}
// * * * * * * * * * * * * * * * * * * * * * * * * * * * * * * * * * * * * * //

dimensions      [0 2 -2 0 0 0 0];

internalField   nonuniform List<symmTensor> 
12225
(
(-48.1556 -0.236587 0 0.000957823 0 0)
(-45.3072 -0.298946 0 -0.00101697 0 0)
(-42.5012 -0.280049 0 -0.00119042 0 0)
(-39.7462 -0.264681 0 -0.00124185 0 0)
(-37.1165 -0.252982 0 -0.00128222 0 0)
(-34.6611 -0.240436 0 -0.00127431 0 0)
(-32.374 -0.227345 0 -0.00122738 0 0)
(-30.2448 -0.216126 0 -0.00118634 0 0)
(-28.2326 -0.206178 0 -0.00112934 0 0)
(-26.343 -0.19942 0 -0.0011175 0 0)
(-24.515 -0.192703 0 -0.00101908 0 0)
(-22.7926 -0.191481 0 -0.0010499 0 0)
(-21.0444 -0.189598 0 -0.000695551 0 0)
(-19.399 -0.199927 0 -0.000898076 0 0)
(-17.5389 -0.212326 0 0.000793876 0 0)
(-15.7967 -0.248378 0 -0.000450655 0 0)
(-13.4098 -0.319761 0 0.0103253 0 0)
(-11.0375 -0.41876 0 0.00366836 0 0)
(-50.3415 -0.250582 0 0.00175324 0 0)
(-50.9448 -0.36819 0 -0.0012774 0 0)
(-51.3323 -0.36743 0 -0.00166834 0 0)
(-51.4682 -0.374491 0 -0.00192486 0 0)
(-51.4252 -0.391553 0 -0.00226799 0 0)
(-51.2693 -0.407075 0 -0.00256165 0 0)
(-51.02 -0.419203 0 -0.00279319 0 0)
(-50.6972 -0.430301 0 -0.00295604 0 0)
(-50.2938 -0.442606 0 -0.00312944 0 0)
(-49.8354 -0.456534 0 -0.00316998 0 0)
(-49.2938 -0.474997 0 -0.00329497 0 0)
(-48.7055 -0.495932 0 -0.00296479 0 0)
(-48.0018 -0.529489 0 -0.00287798 0 0)
(-47.2464 -0.566862 0 -0.00121562 0 0)
(-46.3094 -0.638144 0 3.09832e-05 0 0)
(-45.2905 -0.718284 0 0.00681954 0 0)
(-43.972 -0.881763 0 0.0168672 0 0)
(-42.4426 -1.07871 0 0.054365 0 0)
(-49.9915 -0.160325 0 0.00301964 0 0)
(-50.3227 -0.273236 0 0.000254999 0 0)
(-50.6297 -0.286521 0 -0.000433605 0 0)
(-50.819 -0.300117 0 -0.000763605 0 0)
(-50.928 -0.326054 0 -0.00116192 0 0)
(-51.009 -0.352141 0 -0.00152083 0 0)
(-51.0804 -0.373495 0 -0.00176281 0 0)
(-51.1405 -0.393871 0 -0.0019292 0 0)
(-51.1828 -0.414471 0 -0.00197704 0 0)
(-51.2035 -0.439852 0 -0.00197708 0 0)
(-51.2011 -0.467581 0 -0.00165641 0 0)
(-51.1701 -0.50569 0 -0.00120761 0 0)
(-51.1138 -0.549287 0 0.000333327 0 0)
(-51.0196 -0.615021 0 0.00242996 0 0)
(-50.9079 -0.696216 0 0.00844197 0 0)
(-50.7497 -0.82003 0 0.018233 0 0)
(-50.6186 -0.982631 0 0.0439676 0 0)
(-50.4568 -1.19964 0 0.0963206 0 0)
(-49.8745 -0.146762 0 0.003181 0 0)
(-50.1117 -0.28619 0 0.000309494 0 0)
(-50.3322 -0.314795 0 -0.000682604 0 0)
(-50.471 -0.32539 0 -0.0010155 0 0)
(-50.546 -0.346673 0 -0.00134678 0 0)
(-50.5962 -0.371112 0 -0.00164997 0 0)
(-50.6405 -0.39223 0 -0.00184134 0 0)
(-50.6795 -0.411126 0 -0.00187801 0 0)
(-50.7105 -0.431425 0 -0.00178882 0 0)
(-50.7301 -0.455262 0 -0.00146871 0 0)
(-50.7387 -0.485371 0 -0.000888941 0 0)
(-50.7325 -0.522785 0 0.000308211 0 0)
(-50.716 -0.572329 0 0.00244001 0 0)
(-50.6882 -0.636715 0 0.00654619 0 0)
(-50.6626 -0.723684 0 0.0143526 0 0)
(-50.6528 -0.83921 0 0.0295707 0 0)
(-50.687 -0.984387 0 0.0597459 0 0)
(-50.8072 -1.1505 0 0.116913 0 0)
(-50.1197 -0.109389 0 0.00404587 0 0)
(-50.2963 -0.235141 0 0.00143625 0 0)
(-50.4767 -0.274328 0 0.000243092 0 0)
(-50.6019 -0.289394 0 -0.000121005 0 0)
(-50.6683 -0.312016 0 -0.000379932 0 0)
(-50.7063 -0.33975 0 -0.000613196 0 0)
(-50.7385 -0.365088 0 -0.000719528 0 0)
(-50.7697 -0.387963 0 -0.000640751 0 0)
(-50.7946 -0.411339 0 -0.000316118 0 0)
(-50.8081 -0.438849 0 0.000318691 0 0)
(-50.8064 -0.472309 0 0.00145893 0 0)
(-50.7904 -0.51412 0 0.00340157 0 0)
(-50.7618 -0.56671 0 0.00679492 0 0)
(-50.7289 -0.633199 0 0.0128096 0 0)
(-50.6979 -0.717631 0 0.0235073 0 0)
(-50.6901 -0.822557 0 0.0430674 0 0)
(-50.7146 -0.943851 0 0.0771964 0 0)
(-50.8011 -1.0671 0 0.137065 0 0)
(-49.8325 -0.0919441 0 0.00437997 0 0)
(-49.986 -0.226414 0 0.00159613 0 0)
(-50.1629 -0.276005 0 0.000195464 0 0)
(-50.3111 -0.295596 0 -0.000294704 0 0)
(-50.4114 -0.317351 0 -0.000547281 0 0)
(-50.4811 -0.344041 0 -0.000692882 0 0)
(-50.5382 -0.369663 0 -0.000665173 0 0)
(-50.5868 -0.393236 0 -0.000381634 0 0)
(-50.6228 -0.417938 0 0.00021978 0 0)
(-50.6445 -0.447042 0 0.00125983 0 0)
(-50.652 -0.4825 0 0.00297006 0 0)
(-50.6499 -0.525909 0 0.00579853 0 0)
(-50.6405 -0.578953 0 0.0105172 0 0)
(-50.6319 -0.644147 0 0.0185196 0 0)
(-50.6278 -0.723044 0 0.0319599 0 0)
(-50.6433 -0.815917 0 0.0548259 0 0)
(-50.6809 -0.916286 0 0.0919902 0 0)
(-50.7573 -1.01338 0 0.152101 0 0)
(-50.0705 -0.061287 0 0.0052181 0 0)
(-50.1553 -0.187174 0 0.00281663 0 0)
(-50.275 -0.246202 0 0.00135416 0 0)
(-50.3855 -0.272572 0 0.000831817 0 0)
(-50.461 -0.29528 0 0.000675951 0 0)
(-50.511 -0.322232 0 0.000677175 0 0)
(-50.5491 -0.350463 0 0.000860568 0 0)
(-50.5799 -0.378017 0 0.00134613 0 0)
(-50.6011 -0.406489 0 0.00226067 0 0)
(-50.6118 -0.438613 0 0.00378804 0 0)
(-50.6123 -0.476418 0 0.00622506 0 0)
(-50.6062 -0.521608 0 0.0101303 0 0)
(-50.5956 -0.57549 0 0.0163544 0 0)
(-50.5872 -0.639755 0 0.0264244 0 0)
(-50.5835 -0.714304 0 0.0424406 0 0)
(-50.596 -0.798159 0 0.0681093 0 0)
(-50.6238 -0.885017 0 0.107434 0 0)
(-50.6809 -0.967626 0 0.166847 0 0)
(-50.1077 -0.0780146 0 0.0042529 0 0)
(-50.171 -0.173349 0 0.00210894 0 0)
(-50.2651 -0.238374 0 0.000785318 0 0)
(-50.3651 -0.271321 0 0.000315123 0 0)
(-50.4412 -0.294553 0 0.000256707 0 0)
(-50.4884 -0.320394 0 0.000411672 0 0)
(-50.5169 -0.349265 0 0.000784027 0 0)
(-50.537 -0.379042 0 0.00150218 0 0)
(-50.553 -0.409715 0 0.00274737 0 0)
(-50.5651 -0.443406 0 0.00476848 0 0)
(-50.5719 -0.482147 0 0.00792882 0 0)
(-50.5739 -0.527569 0 0.0128678 0 0)
(-50.5722 -0.580538 0 0.0205031 0 0)
(-50.5712 -0.641767 0 0.0323989 0 0)
(-50.574 -0.710387 0 0.0505339 0 0)
(-50.5873 -0.784779 0 0.0781444 0 0)
(-50.6115 -0.859772 0 0.118354 0 0)
(-50.6517 -0.929932 0 0.175925 0 0)
(-50.0316 -0.0533932 0 0.00534767 0 0)
(-50.0882 -0.1485 0 0.0032056 0 0)
(-50.1819 -0.213443 0 0.00188204 0 0)
(-50.2873 -0.251188 0 0.00138008 0 0)
(-50.3708 -0.278456 0 0.00134067 0 0)
(-50.4254 -0.306444 0 0.00158696 0 0)
(-50.4619 -0.336627 0 0.00215611 0 0)
(-50.4913 -0.367442 0 0.00321495 0 0)
(-50.5173 -0.399209 0 0.00496517 0 0)
(-50.5394 -0.433952 0 0.00768308 0 0)
(-50.5561 -0.473716 0 0.0117483 0 0)
(-50.5679 -0.519924 0 0.0178175 0 0)
(-50.5764 -0.572853 0 0.0268176 0 0)
(-50.5855 -0.632335 0 0.0402707 0 0)
(-50.5969 -0.696829 0 0.0599878 0 0)
(-50.6155 -0.764453 0 0.0887387 0 0)
(-50.6392 -0.830907 0 0.128879 0 0)
(-50.6724 -0.891817 0 0.184024 0 0)
(-50.0445 -0.0528602 0 0.00577017 0 0)
(-50.0773 -0.133447 0 0.00377585 0 0)
(-50.1455 -0.196892 0 0.00226644 0 0)
(-50.2303 -0.241251 0 0.00170883 0 0)
(-50.3026 -0.273755 0 0.00166666 0 0)
(-50.3513 -0.302987 0 0.00202312 0 0)
(-50.3803 -0.333303 0 0.00280834 0 0)
(-50.3987 -0.365176 0 0.00416098 0 0)
(-50.4131 -0.398521 0 0.00630188 0 0)
(-50.4246 -0.434299 0 0.00956001 0 0)
(-50.4332 -0.47396 0 0.0143682 0 0)
(-50.4393 -0.51869 0 0.0214134 0 0)
(-50.4453 -0.568851 0 0.0315793 0 0)
(-50.4538 -0.624087 0 0.0462539 0 0)
(-50.468 -0.683003 0 0.066951 0 0)
(-50.4888 -0.743469 0 0.0959878 0 0)
(-50.5171 -0.802145 0 0.135009 0 0)
(-50.5484 -0.855528 0 0.186782 0 0)
(-50.1191 -0.0624817 0 0.00637563 0 0)
(-50.1649 -0.12611 0 0.0046288 0 0)
(-50.2189 -0.183452 0 0.00340168 0 0)
(-50.2899 -0.225787 0 0.00291744 0 0)
(-50.3653 -0.259802 0 0.00290213 0 0)
(-50.4327 -0.291689 0 0.0033472 0 0)
(-50.4883 -0.323603 0 0.00434409 0 0)
(-50.534 -0.356141 0 0.00603795 0 0)
(-50.5722 -0.389867 0 0.00864966 0 0)
(-50.6048 -0.426183 0 0.0125254 0 0)
(-50.6319 -0.466499 0 0.0181018 0 0)
(-50.6551 -0.511463 0 0.026057 0 0)
(-50.6753 -0.560864 0 0.0372239 0 0)
(-50.6958 -0.613884 0 0.0528717 0 0)
(-50.7159 -0.669077 0 0.0742122 0 0)
(-50.7391 -0.724767 0 0.103129 0 0)
(-50.7605 -0.778466 0 0.140597 0 0)
(-50.784 -0.827937 0 0.188729 0 0)
(-49.8143 -0.0318671 0 0.00615305 0 0)
(-49.8668 -0.10732 0 0.00412988 0 0)
(-49.9232 -0.165274 0 0.00281996 0 0)
(-49.9908 -0.208302 0 0.00246743 0 0)
(-50.0643 -0.241748 0 0.00278844 0 0)
(-50.1329 -0.272533 0 0.00364902 0 0)
(-50.1908 -0.304609 0 0.0050523 0 0)
(-50.2391 -0.338878 0 0.00715233 0 0)
(-50.2811 -0.375124 0 0.0102132 0 0)
(-50.3192 -0.413412 0 0.0146278 0 0)
(-50.3534 -0.454224 0 0.0208653 0 0)
(-50.3836 -0.498339 0 0.0295747 0 0)
(-50.4096 -0.545768 0 0.041476 0 0)
(-50.4336 -0.596207 0 0.0576342 0 0)
(-50.4555 -0.648213 0 0.0789652 0 0)
(-50.4781 -0.700577 0 0.106946 0 0)
(-50.4974 -0.750782 0 0.142136 0 0)
(-50.5172 -0.797583 0 0.186206 0 0)
(-50.0155 -0.042981 0 0.00736371 0 0)
(-50.0256 -0.108044 0 0.00612661 0 0)
(-50.0596 -0.155524 0 0.00446477 0 0)
(-50.1109 -0.194879 0 0.00407904 0 0)
(-50.1637 -0.230108 0 0.0044528 0 0)
(-50.2098 -0.263683 0 0.00534323 0 0)
(-50.2491 -0.296927 0 0.00681477 0 0)
(-50.2856 -0.330466 0 0.0091117 0 0)
(-50.3233 -0.36512 0 0.0125299 0 0)
(-50.3624 -0.402185 0 0.0174222 0 0)
(-50.4014 -0.442588 0 0.0241619 0 0)
(-50.4381 -0.48663 0 0.033314 0 0)
(-50.4722 -0.533604 0 0.0455155 0 0)
(-50.5034 -0.582447 0 0.0617472 0 0)
(-50.5338 -0.631693 0 0.082734 0 0)
(-50.5613 -0.68013 0 0.109735 0 0)
(-50.5887 -0.726319 0 0.142851 0 0)
(-50.6097 -0.769571 0 0.183462 0 0)
(-49.9829 -0.0470969 0 0.00810016 0 0)
(-50.0117 -0.0933236 0 0.00687185 0 0)
(-50.0556 -0.142809 0 0.00550784 0 0)
(-50.1129 -0.186732 0 0.00502809 0 0)
(-50.1736 -0.222837 0 0.00533878 0 0)
(-50.2333 -0.254123 0 0.00643208 0 0)
(-50.2894 -0.284476 0 0.0083034 0 0)
(-50.3417 -0.316266 0 0.0110776 0 0)
(-50.3908 -0.350345 0 0.0149887 0 0)
(-50.4374 -0.387265 0 0.020352 0 0)
(-50.4807 -0.427314 0 0.0274986 0 0)
(-50.5207 -0.470621 0 0.036913 0 0)
(-50.5573 -0.516581 0 0.0490766 0 0)
(-50.5919 -0.564509 0 0.0647559 0 0)
(-50.624 -0.612911 0 0.0844156 0 0)
(-50.6551 -0.661172 0 0.109009 0 0)
(-50.6815 -0.707312 0 0.138437 0 0)
(-50.7059 -0.751557 0 0.173762 0 0)
(-49.8798 -0.0237639 0 0.00926639 0 0)
(-49.9127 -0.0792622 0 0.00861707 0 0)
(-49.9428 -0.122413 0 0.00726189 0 0)
(-49.9792 -0.158992 0 0.00692587 0 0)
(-50.0218 -0.193618 0 0.00754043 0 0)
(-50.067 -0.227501 0 0.00889008 0 0)
(-50.1105 -0.260528 0 0.0109591 0 0)
(-50.15 -0.293225 0 0.0139303 0 0)
(-50.1868 -0.326944 0 0.0180575 0 0)
(-50.2224 -0.363241 0 0.0236281 0 0)
(-50.2587 -0.402629 0 0.0309095 0 0)
(-50.2954 -0.444726 0 0.0403327 0 0)
(-50.3339 -0.488308 0 0.0523118 0 0)
(-50.3727 -0.532447 0 0.0675083 0 0)
(-50.4138 -0.576006 0 0.0861211 0 0)
(-50.4525 -0.618996 0 0.108874 0 0)
(-50.4926 -0.660509 0 0.135257 0 0)
(-50.5235 -0.701509 0 0.166093 0 0)
(-50.4281 -0.0144791 0 0.0105301 0 0)
(-50.4357 -0.0754888 0 0.00888984 0 0)
(-50.4494 -0.115254 0 0.00666 0 0)
(-50.4815 -0.148381 0 0.00618496 0 0)
(-50.5283 -0.181375 0 0.00685028 0 0)
(-50.5836 -0.214322 0 0.00827953 0 0)
(-50.6389 -0.246409 0 0.0104295 0 0)
(-50.6893 -0.278169 0 0.0134798 0 0)
(-50.7363 -0.310865 0 0.0176699 0 0)
(-50.7836 -0.345458 0 0.0232725 0 0)
(-50.8333 -0.382146 0 0.030519 0 0)
(-50.8852 -0.420862 0 0.0397166 0 0)
(-50.9388 -0.461159 0 0.0510478 0 0)
(-50.9919 -0.502965 0 0.0648615 0 0)
(-51.0435 -0.545638 0 0.0810968 0 0)
(-51.0904 -0.58937 0 0.100196 0 0)
(-51.1332 -0.633075 0 0.121555 0 0)
(-51.1681 -0.677518 0 0.145901 0 0)
(-49.8902 -0.0450182 0 0.0105696 0 0)
(-49.8523 -0.0690856 0 0.00901087 0 0)
(-49.839 -0.0989365 0 0.00638444 0 0)
(-49.8687 -0.128698 0 0.00609515 0 0)
(-49.9265 -0.157418 0 0.00720115 0 0)
(-49.9924 -0.186003 0 0.00908722 0 0)
(-50.0544 -0.214817 0 0.0116298 0 0)
(-50.1117 -0.24439 0 0.0149643 0 0)
(-50.167 -0.275225 0 0.0193039 0 0)
(-50.2226 -0.307688 0 0.0248864 0 0)
(-50.2772 -0.341683 0 0.0318729 0 0)
(-50.3314 -0.377493 0 0.0404408 0 0)
(-50.3827 -0.414873 0 0.0506095 0 0)
(-50.4345 -0.454244 0 0.0625515 0 0)
(-50.4829 -0.49472 0 0.0760945 0 0)
(-50.5344 -0.53691 0 0.0915461 0 0)
(-50.5796 -0.578995 0 0.108369 0 0)
(-50.632 -0.622621 0 0.127168 0 0)
(-49.7264 -0.0665568 0 0.0108431 0 0)
(-49.732 -0.0642887 0 0.0101895 0 0)
(-49.7514 -0.0729738 0 0.00821722 0 0)
(-49.7904 -0.0903882 0 0.00786847 0 0)
(-49.8443 -0.114416 0 0.00848039 0 0)
(-49.9056 -0.141507 0 0.0098031 0 0)
(-49.9683 -0.168995 0 0.0118612 0 0)
(-50.03 -0.196599 0 0.0147135 0 0)
(-50.0909 -0.225191 0 0.0184114 0 0)
(-50.1504 -0.255822 0 0.0230318 0 0)
(-50.2082 -0.288331 0 0.0286362 0 0)
(-50.2639 -0.322449 0 0.0353456 0 0)
(-50.3182 -0.357073 0 0.0432072 0 0)
(-50.3716 -0.392393 0 0.0523742 0 0)
(-50.4251 -0.427589 0 0.0626767 0 0)
(-50.4779 -0.464078 0 0.074299 0 0)
(-50.5314 -0.500686 0 0.0867051 0 0)
(-50.5837 -0.539855 0 0.10023 0 0)
(-49.9827 -0.0376136 0 0.0110267 0 0)
(-50.0365 -0.0416909 0 0.010464 0 0)
(-50.0934 -0.0514668 0 0.0083211 0 0)
(-50.1569 -0.0641993 0 0.00777633 0 0)
(-50.2272 -0.0777334 0 0.00842149 0 0)
(-50.3021 -0.0935194 0 0.00992646 0 0)
(-50.3781 -0.114031 0 0.0120202 0 0)
(-50.4524 -0.139661 0 0.0145227 0 0)
(-50.524 -0.168681 0 0.0174357 0 0)
(-50.5924 -0.199439 0 0.0208939 0 0)
(-50.6586 -0.230837 0 0.0250048 0 0)
(-50.7234 -0.262926 0 0.029842 0 0)
(-50.7887 -0.295415 0 0.0353744 0 0)
(-50.8543 -0.328817 0 0.0416448 0 0)
(-50.9216 -0.362354 0 0.0485085 0 0)
(-50.9885 -0.396883 0 0.0561067 0 0)
(-51.0581 -0.430944 0 0.0641218 0 0)
(-51.1256 -0.466428 0 0.0728361 0 0)
(-50.1013 -0.00669393 0 0.0132012 0 0)
(-50.1502 -0.00576066 0 0.0121985 0 0)
(-50.1971 -0.00514153 0 0.00947154 0 0)
(-50.2454 -0.00759734 0 0.00841729 0 0)
(-50.295 -0.014515 0 0.00860244 0 0)
(-50.3499 -0.0276165 0 0.00955531 0 0)
(-50.4119 -0.0477302 0 0.0108946 0 0)
(-50.4795 -0.0735126 0 0.0123752 0 0)
(-50.5509 -0.102267 0 0.0140167 0 0)
(-50.6258 -0.131846 0 0.0160054 0 0)
(-50.704 -0.160885 0 0.0184946 0 0)
(-50.785 -0.189134 0 0.0215718 0 0)
(-50.8683 -0.216253 0 0.0252207 0 0)
(-50.9533 -0.24297 0 0.0294367 0 0)
(-51.0398 -0.269137 0 0.034072 0 0)
(-51.1268 -0.29623 0 0.0391718 0 0)
(-51.2146 -0.323318 0 0.0444938 0 0)
(-51.3017 -0.352728 0 0.0501058 0 0)
(-50.2788 0.016905 0 0.0112805 0 0)
(-50.3301 0.0125202 0 0.0104608 0 0)
(-50.3939 0.00914586 0 0.00788876 0 0)
(-50.4591 0.00626739 0 0.00692373 0 0)
(-50.5184 0.0029231 0 0.00698274 0 0)
(-50.5768 -0.00289748 0 0.00767993 0 0)
(-50.6404 -0.0127124 0 0.00878526 0 0)
(-50.7097 -0.027003 0 0.0101335 0 0)
(-50.7842 -0.0448902 0 0.0116503 0 0)
(-50.8636 -0.0651219 0 0.0133843 0 0)
(-50.9479 -0.086493 0 0.0154024 0 0)
(-51.0354 -0.108616 0 0.0177428 0 0)
(-51.125 -0.13109 0 0.0203806 0 0)
(-51.2157 -0.154388 0 0.0233044 0 0)
(-51.3073 -0.178127 0 0.0264199 0 0)
(-51.3995 -0.203166 0 0.0297783 0 0)
(-51.4926 -0.22832 0 0.0332363 0 0)
(-51.5869 -0.255106 0 0.0368585 0 0)
(-50.0523 0.0407856 0 0.0118769 0 0)
(-50.0758 0.0450322 0 0.0105062 0 0)
(-50.1221 0.0470397 0 0.00771163 0 0)
(-50.1881 0.0461781 0 0.00644192 0 0)
(-50.2647 0.0421379 0 0.00614274 0 0)
(-50.347 0.0346293 0 0.00643687 0 0)
(-50.4303 0.0237244 0 0.00707487 0 0)
(-50.5122 0.00947518 0 0.00788965 0 0)
(-50.5934 -0.00740741 0 0.00882218 0 0)
(-50.6765 -0.0258545 0 0.00991429 0 0)
(-50.7632 -0.0447149 0 0.011228 0 0)
(-50.8547 -0.0636493 0 0.0127955 0 0)
(-50.9503 -0.0822844 0 0.0146026 0 0)
(-51.0499 -0.101057 0 0.0166364 0 0)
(-51.1519 -0.11956 0 0.0188291 0 0)
(-51.2564 -0.138641 0 0.0212277 0 0)
(-51.3606 -0.157358 0 0.0237297 0 0)
(-51.4666 -0.177326 0 0.02634 0 0)
(-49.8047 0.0112107 0 0.00937865 0 0)
(-49.8646 0.046651 0 0.00808451 0 0)
(-49.9268 0.0662373 0 0.00581606 0 0)
(-50.0034 0.073561 0 0.00489378 0 0)
(-50.0912 0.0760278 0 0.00482454 0 0)
(-50.1827 0.0767173 0 0.00513209 0 0)
(-50.2752 0.073804 0 0.00562458 0 0)
(-50.3709 0.0656757 0 0.00617657 0 0)
(-50.4724 0.0535007 0 0.00676485 0 0)
(-50.5799 0.0398256 0 0.00749728 0 0)
(-50.6915 0.0268022 0 0.00845629 0 0)
(-50.8044 0.0146522 0 0.0096377 0 0)
(-50.9166 0.00265278 0 0.0109876 0 0)
(-51.0276 -0.0106834 0 0.0124676 0 0)
(-51.1374 -0.0256138 0 0.0139962 0 0)
(-51.2461 -0.0426637 0 0.015591 0 0)
(-51.3543 -0.0605962 0 0.0171824 0 0)
(-51.4618 -0.0799033 0 0.0188153 0 0)
(-49.9812 0.0786743 0 0.00814416 0 0)
(-50.0332 0.0757924 0 0.00575258 0 0)
(-50.1085 0.0917729 0 0.0036915 0 0)
(-50.2031 0.102851 0 0.00297418 0 0)
(-50.2979 0.105563 0 0.00290065 0 0)
(-50.3855 0.104121 0 0.00311492 0 0)
(-50.4708 0.101072 0 0.00345937 0 0)
(-50.5608 0.0961065 0 0.00387836 0 0)
(-50.6589 0.0884837 0 0.00436519 0 0)
(-50.7638 0.0783432 0 0.00493195 0 0)
(-50.8719 0.0665749 0 0.00558549 0 0)
(-50.9801 0.0537169 0 0.00632756 0 0)
(-51.0873 0.0402781 0 0.00714989 0 0)
(-51.1942 0.0262871 0 0.00804996 0 0)
(-51.3017 0.0123399 0 0.00900739 0 0)
(-51.4113 -0.00188423 0 0.0100523 0 0)
(-51.5223 -0.0156058 0 0.0111423 0 0)
(-51.6363 -0.0298538 0 0.0122837 0 0)
(-49.7169 0.048068 0 0.00771535 0 0)
(-49.7273 0.106742 0 0.00557115 0 0)
(-49.7995 0.133821 0 0.00363419 0 0)
(-49.9151 0.143917 0 0.00277559 0 0)
(-50.0342 0.148488 0 0.00248813 0 0)
(-50.1412 0.152937 0 0.00250647 0 0)
(-50.2402 0.156486 0 0.00269756 0 0)
(-50.3388 0.156531 0 0.00298087 0 0)
(-50.4401 0.152331 0 0.00330398 0 0)
(-50.5438 0.145141 0 0.00366152 0 0)
(-50.6494 0.136659 0 0.00407817 0 0)
(-50.7567 0.127809 0 0.00457254 0 0)
(-50.8661 0.118995 0 0.00514245 0 0)
(-50.9774 0.109899 0 0.0057818 0 0)
(-51.091 0.100493 0 0.00645708 0 0)
(-51.2061 0.0902553 0 0.00718908 0 0)
(-51.3231 0.0797104 0 0.00793827 0 0)
(-51.4409 0.0682057 0 0.00869235 0 0)
(-50.109 0.046483 0 0.00747992 0 0)
(-50.2084 0.12081 0 0.00560748 0 0)
(-50.3445 0.139854 0 0.00380333 0 0)
(-50.4879 0.142876 0 0.00302206 0 0)
(-50.6082 0.147451 0 0.00273239 0 0)
(-50.7025 0.15349 0 0.00267332 0 0)
(-50.7865 0.15666 0 0.00270134 0 0)
(-50.8741 0.155658 0 0.00276516 0 0)
(-50.9711 0.151737 0 0.00287446 0 0)
(-51.0768 0.146414 0 0.0030413 0 0)
(-51.1878 0.140422 0 0.00326281 0 0)
(-51.3006 0.133853 0 0.00352824 0 0)
(-51.413 0.126859 0 0.00383242 0 0)
(-51.5244 0.119408 0 0.00417891 0 0)
(-51.6358 0.111903 0 0.0045532 0 0)
(-51.7481 0.10422 0 0.00498166 0 0)
(-51.8631 0.0968667 0 0.00544306 0 0)
(-51.9807 0.0892676 0 0.00591095 0 0)
(-50.0102 0.101096 0 0.00569679 0 0)
(-50.1569 0.191682 0 0.00320796 0 0)
(-50.3112 0.216676 0 0.00177419 0 0)
(-50.4433 0.21479 0 0.00131263 0 0)
(-50.5424 0.214504 0 0.00112219 0 0)
(-50.6235 0.219191 0 0.00102503 0 0)
(-50.7051 0.224055 0 0.000977475 0 0)
(-50.7945 0.226608 0 0.000971343 0 0)
(-50.8905 0.226741 0 0.00101894 0 0)
(-50.9904 0.22472 0 0.00112169 0 0)
(-51.0935 0.22075 0 0.00126187 0 0)
(-51.2003 0.215139 0 0.00142421 0 0)
(-51.3109 0.208594 0 0.00160729 0 0)
(-51.4248 0.201856 0 0.0018206 0 0)
(-51.541 0.195726 0 0.00206166 0 0)
(-51.6581 0.190226 0 0.00234626 0 0)
(-51.7757 0.185524 0 0.00265268 0 0)
(-51.8924 0.180755 0 0.00296821 0 0)
(-50.0945 0.0754104 0 0.00471604 0 0)
(-50.3044 0.151089 0 0.00230669 0 0)
(-50.5211 0.167375 0 0.00123771 0 0)
(-50.6863 0.168894 0 0.000883178 0 0)
(-50.8092 0.175643 0 0.000720606 0 0)
(-50.92 0.184755 0 0.000618475 0 0)
(-51.0337 0.191393 0 0.000554568 0 0)
(-51.1499 0.194928 0 0.000524088 0 0)
(-51.2648 0.196626 0 0.000520255 0 0)
(-51.3766 0.197434 0 0.000539183 0 0)
(-51.4864 0.197591 0 0.000579511 0 0)
(-51.5956 0.197187 0 0.000639208 0 0)
(-51.7061 0.196037 0 0.000718462 0 0)
(-51.8184 0.19426 0 0.000814976 0 0)
(-51.9342 0.191804 0 0.000924817 0 0)
(-52.0515 0.18906 0 0.00105816 0 0)
(-52.1725 0.186082 0 0.00120907 0 0)
(-52.2925 0.183137 0 0.00136495 0 0)
(-50.3129 0.21087 0 0.00271325 0 0)
(-50.6817 0.302132 0 9.48539e-05 0 0)
(-50.9941 0.28829 0 -0.000398327 0 0)
(-51.1915 0.280528 0 -0.000524134 0 0)
(-51.3139 0.284467 0 -0.000661741 0 0)
(-51.4082 0.288974 0 -0.000765427 0 0)
(-51.4902 0.291504 0 -0.000829608 0 0)
(-51.556 0.292631 0 -0.000863055 0 0)
(-51.5998 0.292325 0 -0.00086551 0 0)
(-51.6233 0.29052 0 -0.000845553 0 0)
(-51.6308 0.287393 0 -0.000813915 0 0)
(-51.6291 0.28376 0 -0.000774912 0 0)
(-51.6198 0.280099 0 -0.000722582 0 0)
(-51.6083 0.277083 0 -0.000659059 0 0)
(-51.5911 0.274471 0 -0.00058598 0 0)
(-51.5755 0.272546 0 -0.00050447 0 0)
(-51.552 0.270711 0 -0.00041446 0 0)
(-51.5358 0.269319 0 -0.000328574 0 0)
(-49.1126 0.115337 0 0.00237056 0 0)
(-47.527 0.210744 0 0.000312222 0 0)
(-45.9126 0.202091 0 3.76992e-05 0 0)
(-44.3018 0.193471 0 -6.7759e-05 0 0)
(-42.759 0.192428 0 -0.000179179 0 0)
(-41.3062 0.191695 0 -0.000264157 0 0)
(-39.9405 0.188753 0 -0.000309526 0 0)
(-38.6567 0.183664 0 -0.000320807 0 0)
(-37.4524 0.177271 0 -0.000317303 0 0)
(-36.3285 0.170661 0 -0.00030908 0 0)
(-35.2813 0.164511 0 -0.000296833 0 0)
(-34.3076 0.15906 0 -0.000282536 0 0)
(-33.3975 0.154004 0 -0.00026574 0 0)
(-32.5502 0.149214 0 -0.000248065 0 0)
(-31.7527 0.144443 0 -0.000228502 0 0)
(-31.0125 0.139998 0 -0.000204437 0 0)
(-30.3071 0.13575 0 -0.000180707 0 0)
(-29.6603 0.13221 0 -0.000167782 0 0)
(-0.0156192 0.0397217 -2.35556e-22 -0.0877152 4.73828e-22 4.1713e-39)
(-0.0653136 0.00997885 5.74329e-22 0.0167728 -2.55627e-22 4.10483e-39)
(0.0510468 -0.105907 0 0.0448752 0 0)
(0.381079 -0.192083 0 0.011086 0 0)
(0.75955 -0.143417 0 -0.068495 0 0)
(0.954441 0.0180276 -6.02499e-22 -0.125238 -3.73349e-22 3.86041e-39)
(0.818208 0.222989 0 -0.134572 0 0)
(0.342964 0.378341 0 -0.100392 0 0)
(-0.346774 0.441019 0 -0.0448216 0 0)
(-1.08383 0.408789 0 0.0114086 0 0)
(-1.70582 0.307649 -1.30943e-21 0.0516098 4.85032e-22 3.54728e-39)
(-2.12596 0.197003 0 0.0668642 0 0)
(-2.33187 0.105735 0 0.0689637 0 0)
(-2.33171 -0.00212973 0 0.0727771 0 0)
(-2.16253 -0.140038 0 0.0759872 0 0)
(-1.81661 -0.313708 -3.04442e-21 0.0780494 2.12703e-22 3.26423e-39)
(-1.23044 -0.288012 0 0.0614307 0 0)
(-0.790316 -0.0372699 0 0.0538068 0 0)
(-0.505802 0.0835001 0 0.0701206 0 0)
(-0.354695 0.105872 0 0.0903112 0 0)
(-0.147908 0.0914604 0 0.111325 0 0)
(0.269257 0.0735672 0 0.134645 0 0)
(0.965033 0.00113232 0 0.144833 0 0)
(1.81449 -0.190489 -3.84836e-21 0.125916 -4.81155e-23 2.87435e-39)
(2.98029 -0.424837 3.74013e-21 0.129911 1.58697e-22 2.82953e-39)
(4.23527 -0.417766 -3.58682e-21 0.150582 -2.25268e-22 2.78528e-39)
(5.44855 -0.314111 -3.42685e-21 0.207558 -2.6499e-22 2.74149e-39)
(6.67066 -0.183132 0 0.266786 0 0)
(7.71828 -0.0703987 0 0.242818 0 0)
(8.67457 -0.178927 3.04865e-21 0.265864 1.33314e-22 2.60812e-39)
(9.62614 -0.304926 3.02803e-21 0.261378 1.6852e-22 2.56256e-39)
(10.5987 -0.372351 0 0.245888 0 0)
(11.6118 -0.399466 0 0.237786 0 0)
(12.5768 -0.388346 3.25073e-21 0.249698 1.16805e-22 2.42922e-39)
(13.4428 -0.380026 0 0.278705 0 0)
(14.2758 -0.395671 0 0.325929 0 0)
(15.1784 -0.47884 -3.73124e-21 0.400101 4.61324e-24 2.30126e-39)
(16.2795 -0.628281 0 0.435331 0 0)
(17.5975 -0.776187 -4.26745e-21 0.408804 3.85146e-23 2.21975e-39)
(18.9084 -0.79267 -9.00077e-21 0.335151 1.20424e-22 8.71815e-39)
(19.8883 -0.644955 0 0.277425 0 0)
(20.4254 -0.49046 0 0.262401 0 0)
(20.5682 -0.387594 0 0.297434 0 0)
(20.5906 -0.561938 0 0.308411 0 0)
(21.2783 -0.728728 0 0.353661 0 0)
(22.2466 -0.722618 -1.09289e-20 0.389883 6.14279e-22 7.80119e-39)
(23.3726 -1.04223 -1.13125e-20 0.393695 6.0716e-22 7.65324e-39)
(24.376 -1.11755 -1.13656e-20 0.476845 6.12436e-22 7.50698e-39)
(25.3398 -0.551608 0 0.266029 0 0)
(25.6377 -0.365084 1.12272e-20 0.34434 1.48123e-22 7.21861e-39)
(26.2345 -0.389342 0 0.275006 0 0)
(26.7646 -0.340579 -1.08399e-20 0.264609 -7.61236e-23 6.94165e-39)
(27.1429 -0.241439 -1.07481e-20 0.244656 -1.22962e-22 6.80823e-39)
(27.2537 -0.171153 0 0.214526 0 0)
(27.2478 -0.110893 0 0.186958 0 0)
(26.8338 -0.364901 0 0.20849 0 0)
(26.4408 -0.22779 -1.06923e-20 0.195696 1.12735e-22 6.30454e-39)
(25.663 -0.147772 0 0.283322 0 0)
(25.4507 -0.325296 0 0.22826 0 0)
(25.6772 -0.424098 0 0.201986 0 0)
(26.5524 -0.609459 0 0.173114 0 0)
(27.358 -0.997695 0 0.185979 0 0)
(28.0537 -0.656915 0 0.135623 0 0)
(27.62 -0.196996 0 0.260963 0 0)
(27.3362 -0.315288 0 0.257372 0 0)
(27.3775 -0.393053 1.16309e-20 0.260197 1.60835e-22 5.28292e-39)
(27.4885 -0.478686 0 0.257957 0 0)
(27.6636 -0.513411 0 0.2546 0 0)
(27.7722 -0.510445 -1.08896e-20 0.249351 2.68188e-22 4.9664e-39)
(27.8181 -0.486805 -1.07057e-20 0.241053 1.98668e-22 4.86478e-39)
(27.8882 -0.467424 0 0.231145 0 0)
(28.0342 -0.444855 1.0635e-20 0.220673 -3.25769e-22 4.66714e-39)
(28.4116 -0.464201 -1.08332e-20 0.215008 4.57474e-22 4.57048e-39)
(29.0407 -0.490371 0 0.210546 0 0)
(29.641 -0.451075 1.11858e-20 0.199481 -6.37832e-22 4.37858e-39)
(30.014 -0.338751 0 0.180286 0 0)
(30.0269 -0.190838 0 0.158668 0 0)
(29.492 -0.00439772 -9.77589e-21 0.14193 1.55427e-22 4.10595e-39)
(28.2056 0.223818 0 0.136404 0 0)
(25.9882 0.465447 8.55216e-21 0.142666 -3.23503e-25 3.93607e-39)
(22.9144 0.639527 0 0.152779 0 0)
(19.1936 0.633474 -7.04109e-21 0.153201 -2.17039e-22 3.77483e-39)
(15.6966 0.526312 -6.28622e-21 0.158029 -1.53176e-22 3.69665e-39)
(12.038 0.311938 -5.53769e-21 0.170534 -2.56191e-23 3.61969e-39)
(9.46669 -0.164708 -1.0445e-20 0.174214 5.9028e-22 1.4174e-38)
(6.54328 -0.478011 9.58352e-21 0.232663 -9.82548e-22 1.38724e-38)
(3.64567 -0.511907 0 0.248317 0 0)
(-1.23976 0.326462 0 0.330874 0 0)
(-8.16707 1.86392 0 0.27505 0 0)
(-15.5683 1.71716 -8.21334e-22 0.315792 1.68094e-21 1.26823e-38)
(-19.4411 0.935292 -3.88612e-21 0.22736 6.85631e-22 1.23941e-38)
(-21.0963 0.378958 4.95174e-21 0.171826 1.04738e-22 1.21157e-38)
(-21.0622 -0.0429769 0 0.126592 0 0)
(-19.7772 -0.339949 -1.11802e-21 0.0957912 -1.14302e-21 1.15898e-38)
(-17.5678 -0.552009 3.03e-21 0.0725166 -1.4071e-21 1.13405e-38)
(-14.681 -0.696619 8.08325e-21 0.0549535 -1.54796e-21 1.10984e-38)
(-11.3191 -0.789368 0 0.0407033 0 0)
(-7.65311 -0.838996 0 0.0289362 0 0)
(-3.83301 -0.852412 0 0.0188956 0 0)
(0.00619829 -0.834826 2.98915e-20 0.0103139 -1.29879e-21 1.01784e-38)
(3.74369 -0.792683 0 0.00302484 0 0)
(7.27115 -0.727418 0 -0.00303746 0 0)
(10.5016 -0.645123 -4.0152e-20 -0.00785719 6.54556e-22 9.51458e-39)
(13.3604 -0.550074 0 -0.0114531 0 0)
(15.7983 -0.447431 0 -0.0138994 0 0)
(17.7814 -0.341413 -4.10325e-20 -0.0153073 -2.21878e-23 8.86653e-39)
(19.293 -0.236334 0 -0.0158139 0 0)
(20.3348 -0.135864 0 -0.0155774 0 0)
(20.9233 -0.0431163 3.37283e-20 -0.0147754 4.83747e-22 8.24206e-39)
(21.091 0.039805 3.01522e-20 -0.0135589 5.72409e-22 8.04082e-39)
(20.8823 0.11123 0 -0.0120669 0 0)
(20.3482 0.170298 -2.23671e-20 -0.0104157 -6.56421e-22 7.65069e-39)
(19.5404 0.217363 0 -0.00866648 0 0)
(18.5103 0.25317 1.47655e-20 -0.00694138 6.42047e-22 7.27742e-39)
(17.3024 0.279006 0 -0.00533598 0 0)
(15.9559 0.297163 8.1318e-21 -0.00374363 5.73333e-22 6.91809e-39)
(14.5064 0.308647 5.29218e-21 -0.00221366 5.28306e-22 6.74395e-39)
(12.9859 0.314067 0 -0.000780595 0 0)
(11.4244 0.313803 0 0.00051934 0 0)
(9.85022 0.308099 0 0.00165719 0 0)
(8.28982 0.297429 0 0.00259639 0 0)
(6.76727 0.282454 0 0.00331093 0 0)
(5.30463 0.264833 0 0.00391173 0 0)
(3.92136 0.245619 0 0.00430303 0 0)
(2.62534 0.225454 -6.20877e-21 0.00454579 1.92296e-22 5.47146e-39)
(1.42546 0.203938 6.61954e-21 0.00463493 -1.70118e-22 5.32352e-39)
(0.32256 0.182876 0 0.00460803 0 0)
(-0.684381 0.162872 0 0.00449696 0 0)
(-1.6001 0.144327 0 0.0043198 0 0)
(-2.43259 0.127738 0 0.00409267 0 0)
(-3.19151 0.113345 1.51632e-20 0.00384023 -2.27559e-22 1.85265e-38)
(-3.88681 0.101045 0 0.00359262 0 0)
(-4.52776 0.0905657 -1.56036e-20 0.00337371 2.04749e-22 1.75029e-38)
(-5.12247 0.0815637 1.58105e-20 0.0031989 -1.91662e-22 1.70078e-38)
(-5.67748 0.0736933 0 0.00307797 0 0)
(-6.19793 0.0666384 0 0.00301827 0 0)
(-6.68715 0.0601295 0 0.00302289 0 0)
(-7.1471 0.0539257 -1.6473e-20 0.00308999 1.19069e-22 1.51327e-38)
(-7.57819 0.0478095 -1.65608e-20 0.00321708 9.52664e-23 1.4689e-38)
(-7.9794 0.0416116 0 0.00339989 0 0)
(-8.34859 0.0351621 -1.66139e-20 0.00363378 5.16517e-23 1.383e-38)
(-8.68217 0.0283249 -1.65766e-20 0.0039143 2.73019e-23 1.34144e-38)
(-8.97585 0.020993 1.64935e-20 0.00423803 -2.01487e-24 1.30078e-38)
(-9.22461 0.0130507 0 0.00460224 0 0)
(-9.42275 0.00438224 0 0.00500551 0 0)
(-9.56414 -0.0050267 1.60017e-20 0.00545009 6.6915e-23 1.184e-38)
(-9.64281 -0.0150901 0 0.00594673 0 0)
(-9.65252 -0.0257536 0 0.00651376 0 0)
(-9.58702 -0.0367382 0 0.00717522 0 0)
(-9.44093 -0.047625 0 0.00795678 0 0)
(-9.20997 -0.058194 -1.45248e-20 0.00888224 -1.93307e-22 1.00579e-38)
(-8.89009 -0.067968 -1.40786e-20 0.00999691 -2.14587e-22 9.72493e-39)
(-8.47927 -0.0762514 0 0.011393 0 0)
(-7.97489 -0.0834103 -1.29655e-20 0.0132522 -2.755e-22 9.08139e-39)
(-7.36766 -0.089249 0 0.0159453 0 0)
(-6.64558 -0.0900719 0 0.0198606 0 0)
(-5.80264 -0.08193 -1.02344e-20 0.0250906 -3.15245e-22 8.17206e-39)
(-4.8392 -0.0627055 0 0.0309948 0 0)
(-3.77733 -0.027519 -7.65961e-21 0.036364 -1.95416e-22 7.60266e-39)
(-2.70439 0.0204463 0 0.0392124 0 0)
(-1.74031 0.0584935 0 0.037286 0 0)
(-0.984347 0.0569425 -4.33365e-21 0.0317727 4.32065e-23 6.79863e-39)
(-0.46546 0.0120773 0 0.027498 0 0)
(-0.0172328 -0.0683771 -3.06705e-21 0.026098 -2.35355e-22 6.29308e-39)
(0.527329 -0.108059 0 0.0240432 0 0)
(1.12217 -0.0985202 0 0.0195945 0 0)
(1.72346 -0.0705914 0 0.0171392 0 0)
(2.29664 -0.0256732 -2.68739e-22 0.0169856 8.4832e-23 5.35607e-39)
(2.74047 0.014899 0 0.0182223 0 0)
(3.00786 0.0365092 1.68055e-21 0.0194002 -1.47967e-23 4.92313e-39)
(3.13936 0.0374603 0 0.0185536 0 0)
(3.1971 0.0230679 0 0.0168783 0 0)
(3.23488 0.00874623 0 0.0159932 0 0)
(3.30196 -0.01192 0 0.012493 0 0)
(3.40382 -0.00162479 0 0.00665386 0 0)
(3.43249 -0.00261026 0 0.00663978 0 0)
(3.43858 -0.00982238 0 0.00295238 0 0)
(3.41978 -0.0140986 -7.44676e-21 0.00110313 1.08918e-22 1.36422e-38)
(3.34486 0.0274273 0 0.000640757 0 0)
(3.08605 0.0907558 0 0.00365134 0 0)
(0.0063692 -0.0106263 2.66903e-23 -0.166017 -3.22626e-21 3.75371e-38)
(0.0322165 -0.11821 5.4568e-24 0.265367 2.59103e-21 3.70021e-38)
(0.127848 -0.275633 0 0.590887 0 0)
(0.162188 -0.232087 -2.46845e-22 0.455148 -2.30706e-22 1.59257e-38)
(0.0184608 0.156837 0 -0.137303 0 0)
(-0.413571 0.741058 -5.48865e-22 -0.678053 7.99359e-22 3.83853e-39)