/*--------------------------------*- C++ -*----------------------------------*\
  =========                 |
  \\      /  F ield         | OpenFOAM: The Open Source CFD Toolbox
   \\    /   O peration     | Website:  https://openfoam.org
    \\  /    A nd           | Version:  9
     \\/     M anipulation  |
\*---------------------------------------------------------------------------*/
FoamFile
{
    format      ascii;
    class       volScalarField;
    location    "0.17";
    object      kU;
}
// * * * * * * * * * * * * * * * * * * * * * * * * * * * * * * * * * * * * * //

dimensions      [0 2 -2 0 0 0 0];

internalField   nonuniform List<scalar> 
12225
(
0.157231
0.132054
0.113078
0.0993535
0.0902236
0.0851803
0.0837906
0.0856444
0.0903449
0.0975231
0.106863
0.118133
0.131223
0.146178
0.163258
0.182977
0.206364
0.242417
0.181025
0.175202
0.174014
0.179404
0.191764
0.210817
0.235873
0.265955
0.299977
0.33694
0.37608
0.416968
0.459562
0.504214
0.551654
0.602783
0.659004
0.721157
0.184241
0.18133
0.178629
0.176743
0.176297
0.177601
0.180766
0.185808
0.19269
0.201374
0.211885
0.22437
0.239164
0.256841
0.278282
0.304734
0.337926
0.380272
0.184873
0.182075
0.17938
0.176921
0.174881
0.173379
0.172451
0.172084
0.172247
0.172912
0.174081
0.175815
0.178256
0.181674
0.186512
0.193461
0.203551
0.21819
0.185144
0.182622
0.180128
0.177718
0.17546
0.173409
0.171591
0.170012
0.16866
0.167516
0.166566
0.165805
0.165251
0.164954
0.16502
0.165638
0.16714
0.170035
0.185259
0.182926
0.18063
0.178388
0.176227
0.174171
0.17224
0.17044
0.168772
0.16723
0.165808
0.164499
0.163298
0.162206
0.161233
0.160403
0.159772
0.159444
0.185303
0.18307
0.180905
0.178806
0.176779
0.17483
0.172967
0.171198
0.169526
0.167953
0.166479
0.165103
0.163825
0.162642
0.161552
0.160549
0.159626
0.158777
0.185318
0.183131
0.181038
0.179031
0.177105
0.175258
0.17349
0.171806
0.170207
0.168696
0.167279
0.165957
0.164734
0.163614
0.162595
0.161674
0.16084
0.160079
0.185322
0.183153
0.181095
0.179137
0.177273
0.175497
0.173805
0.172197
0.170674
0.169239
0.167896
0.166649
0.165504
0.164467
0.163541
0.162726
0.162018
0.161408
0.185323
0.183161
0.181117
0.179183
0.177351
0.175615
0.173971
0.172416
0.17095
0.169574
0.168292
0.167109
0.16603
0.165062
0.164211
0.163479
0.162868
0.162373
0.185323
0.183163
0.181125
0.179201
0.177385
0.175669
0.174051
0.172526
0.171094
0.169756
0.168514
0.167374
0.166339
0.165417
0.164613
0.163932
0.163377
0.162948
0.185323
0.183164
0.181129
0.179209
0.177398
0.175692
0.174084
0.172573
0.171158
0.169838
0.168616
0.167496
0.166482
0.165579
0.164794
0.164132
0.163595
0.163187
0.185323
0.183165
0.181131
0.179213
0.177406
0.175703
0.174102
0.172598
0.17119
0.16988
0.168667
0.167556
0.16655
0.165653
0.164871
0.164208
0.163667
0.163252
0.185323
0.183165
0.181132
0.179216
0.177411
0.175712
0.174113
0.172613
0.17121
0.169903
0.168693
0.167582
0.166574
0.165672
0.164878
0.164198
0.163634
0.163189
0.185323
0.183165
0.181133
0.179219
0.177416
0.175719
0.174123
0.172625
0.171223
0.169917
0.168706
0.167591
0.166575
0.165659
0.164846
0.164137
0.163536
0.163044
0.185322
0.183165
0.181134
0.179221
0.17742
0.175725
0.174131
0.172636
0.171236
0.169929
0.168716
0.167596
0.16657
0.165637
0.1648
0.164059
0.163415
0.16287
0.185322
0.183164
0.181133
0.179222
0.177423
0.17573
0.17414
0.172647
0.171248
0.169943
0.168728
0.167603
0.166567
0.165619
0.16476
0.163987
0.163302
0.162706
0.185321
0.183162
0.181132
0.179222
0.177425
0.175735
0.174148
0.172658
0.171263
0.169959
0.168745
0.167616
0.166573
0.165613
0.164735
0.163936
0.163216
0.162576
0.185319
0.183159
0.181129
0.179219
0.177425
0.175738
0.174155
0.17267
0.171279
0.169979
0.168766
0.167638
0.16659
0.165622
0.16473
0.163911
0.163163
0.16249
0.185317
0.183156
0.181126
0.179217
0.177425
0.175742
0.174163
0.172682
0.171296
0.169999
0.168789
0.167661
0.166613
0.16564
0.16474
0.163909
0.163146
0.162453
0.185316
0.183154
0.181124
0.179217
0.177428
0.175748
0.174172
0.172696
0.171313
0.17002
0.168812
0.167686
0.166637
0.165662
0.164757
0.16392
0.163146
0.16244
0.185315
0.183153
0.181124
0.179219
0.177432
0.175755
0.174182
0.172708
0.171328
0.170036
0.168829
0.167702
0.166652
0.165674
0.164764
0.16392
0.163137
0.162421
0.185314
0.183153
0.181125
0.179221
0.177434
0.175756
0.174181
0.172703
0.171316
0.170016
0.168799
0.167659
0.166594
0.165599
0.164672
0.163808
0.163005
0.162267
0.185314
0.183152
0.18112
0.179209
0.177409
0.175714
0.174117
0.172614
0.171199
0.169868
0.168616
0.16744
0.166337
0.165304
0.164338
0.163434
0.162591
0.161813
0.18531
0.183135
0.18108
0.179128
0.17727
0.175504
0.173827
0.172238
0.170735
0.169317
0.167981
0.166727
0.16555
0.164448
0.163418
0.162455
0.161557
0.160729
0.185287
0.18305
0.1809
0.178829
0.176833
0.174918
0.173094
0.171367
0.169741
0.168217
0.166795
0.165471
0.164241
0.1631
0.162042
0.161061
0.160152
0.159318
0.185188
0.182768
0.180358
0.177974
0.175672
0.173505
0.171501
0.169671
0.168016
0.166531
0.165205
0.164026
0.162978
0.162046
0.161216
0.160474
0.15981
0.159219
0.184852
0.182127
0.179206
0.176298
0.173685
0.171497
0.169761
0.168463
0.167573
0.167047
0.166837
0.166889
0.167151
0.167572
0.168109
0.168724
0.169403
0.170123
0.182906
0.177344
0.172651
0.169821
0.169024
0.170117
0.172874
0.17702
0.18226
0.188303
0.194883
0.201759
0.208727
0.215616
0.222295
0.228665
0.234652
0.240175
0.168319
0.151182
0.137008
0.125299
0.115709
0.107954
0.101801
0.0970407
0.093485
0.0909594
0.0893035
0.08837
0.0880257
0.0881513
0.0886425
0.0894088
0.0903741
0.0914705
0.0908444
0.131486
0.166021
0.201164
0.225177
0.236045
0.238955
0.240535
0.241985
0.243881
0.246575
0.250308
0.255288
0.261322
0.266214
0.268991
0.268434
0.262862
0.249875
0.22602
0.18676
0.130169
0.0779862
0.0715237
0.0726698
0.0795465
0.0978762
0.122379
0.139836
0.142687
0.135817
0.126141
0.117256
0.113314
0.111918
0.111075
0.113029
0.130878
0.20044
0.306692
0.393604
0.468015
0.529663
0.579178
0.617657
0.646361
0.666566
0.679482
0.686222
0.687784
0.685055
0.678813
0.669735
0.658399
0.645292
0.630827
0.615345
0.599879
0.58445
0.569073
0.55377
0.538566
0.523482
0.50853
0.493719
0.479048
0.464507
0.450076
0.435721
0.421397
0.407043
0.392584
0.377932
0.362994
0.347677
0.331901
0.315612
0.298798
0.281498
0.263808
0.245881
0.227912
0.210133
0.192804
0.176238
0.160945
0.148431
0.141725
0.138322
0.135614
0.133329
0.13141
0.129835
0.128585
0.12764
0.126976
0.126568
0.126388
0.126407
0.126592
0.126908
0.127313
0.127759
0.128184
0.128499
0.128501
0.127827
0.126084
0.12297
0.118361
0.112414
0.105635
0.0988225
0.0928464
0.0883683
0.0856523
0.0845674
0.0847375
0.0857314
0.0872062
0.0888363
0.090437
0.0920137
0.0936845
0.0956141
0.0979469
0.100747
0.103953
0.107426
0.111039
0.114813
0.118931
0.124353
0.137297
0.176972
0.247705
0.307738
0.355494
0.391598
0.417739
0.435763
0.447429
0.454454
0.458623
0.460029
0.458537
0.454434
0.447805
0.438571
0.426523
0.411362
0.392805
0.370837
0.347286
0.336389
0.339613
0.342336
0.344566
0.347045
0.35041
0.355037
0.361103
0.368625
0.376781
0.381079
0.373216
0.346696
0.301049
0.246576
0.201675
0.177508
0.167238
0.160232
0.149329
0.134918
0.120781
0.107591
0.0955728
0.0904823
0.0885894
0.0711135
0.117802
0.254309
0.317307
0.317722
0.30552
0.292052
0.277856
0.262863
0.247849
0.233753
0.221177
0.210432
0.201917
0.196478
0.194189
0.195058
0.198782
0.204585
0.210885
0.214852
0.213003
0.201764
0.179151
0.150979
0.129813
0.140371
0.182349
0.219865
0.235035
0.22898
0.226868
0.268642
0.349401
0.4375
0.467357
0.460391
0.448661
0.443623
0.441668
0.436595
0.429313
0.420691
0.41162
0.402814
0.39479
0.387893
0.382331
0.378205
0.375543
0.374323
0.374496
0.376004
0.378796
0.382831
0.388056
0.394286
0.400639
0.407038
0.413484
0.419988
0.426573
0.433264
0.440083
0.447047
0.454157
0.461392
0.468702
0.475996
0.483134
0.489917
0.496081
0.501295
0.505164
0.507254
0.507121
0.504358
0.498649
0.489816
0.477862
0.462979
0.445528
0.425995
0.404937
0.382916
0.360382
0.337541
0.317067
0.299037
0.282282
0.266695
0.252238
0.238861
0.226506
0.215104
0.204584
0.194874
0.185902
0.1776
0.169906
0.162759
0.156107
0.1499
0.144089
0.138638
0.13347
0.128393
0.123409
0.11884
0.114954
0.112028
0.110411
0.110453
0.112397
0.116252
0.121715
0.128175
0.134818
0.140769
0.145216
0.147621
0.147644
0.145142
0.140338
0.133982
0.12736
0.122097
0.119552
0.120879
0.128741
0.150908
0.196114
0.258397
0.309323
0.33824
0.369568
0.404406
0.442148
0.481132
0.519507
0.555998
0.590042
0.621687
0.651396
0.679236
0.705784
0.731017
0.754533
0.77549
0.792514
0.803687
0.806692
0.799085
0.778273
0.747563
0.710649
0.668122
0.622679
0.576758
0.532248
0.490369
0.451567
0.41599
0.384118
0.355636
0.332005
0.319344
0.325155
0.359492
0.427954
0.515173
0.572592
0.547988
0.447176
0.32775
0.236651
0.179655
0.150555
0.138504
0.136925
0.0955684
0.279287
0.380307
0.349734
0.304681
0.271798
0.24926
0.23212
0.217673
0.205019
0.193948
0.184362
0.17613
0.169135
0.164035
0.160741
0.159336
0.160054
0.163083
0.168381
0.175448
0.183024
0.188141
0.186529
0.179189
0.176932
0.200923
0.268052
0.333642
0.378744
0.452104
0.508522
0.513296
0.500631
0.475087
0.442363
0.412221
0.389467
0.373972
0.363242
0.355554
0.350632
0.348305
0.348341
0.350372
0.353922
0.358487
0.363627
0.369036
0.374548
0.380113
0.385736
0.391427
0.397179
0.402947
0.408646
0.414098
0.419281
0.42421
0.428937
0.433548
0.438158
0.442903
0.447925
0.453366
0.459353
0.465987
0.473325
0.481369
0.490049
0.499206
0.508576
0.517781
0.526327
0.533618
0.538996
0.541794
0.54142
0.537432
0.529614
0.518006
0.502905
0.484803
0.464322
0.442127
0.418765
0.394616
0.372874
0.352864
0.334042
0.316393
0.299913
0.284573
0.270327
0.257113
0.244865
0.233512
0.222984
0.213213
0.204137
0.195696
0.187839
0.180515
0.173676
0.167277
0.161265
0.155547
0.150023
0.144518
0.139072
0.133941
0.129291
0.125306
0.122145
0.1199
0.118571
0.118067
0.118228
0.118846
0.119688
0.120523
0.12113
0.121306
0.120939
0.120203
0.11985
0.121435
0.127477
0.142111
0.173669
0.230195
0.304923
0.361178
0.385932
0.416162
0.465555
0.525015
0.583739
0.634999
0.677616
0.713486
0.744949
0.77355
0.799784
0.824008
0.846848
0.868429
0.88857
0.906565
0.921008
0.929691
0.929773
0.918131
0.892281
0.8565
0.811922
0.761005
0.706955
0.652658
0.600334
0.551439
0.506746
0.466673
0.431397
0.399807
0.370642
0.343624
0.323012
0.31504
0.325553
0.35629
0.402613
0.448679
0.467901
0.440511
0.36954
0.287578
0.223172
0.18824
0.182982
0.191475
0.384977
0.344223
0.293426
0.263022
0.245465
0.232162
0.219428
0.206777
0.194695
0.183638
0.17387
0.165514
0.158577
0.152866
0.148301
0.144973
0.143137
0.143148
0.145386
0.150426
0.159066
0.171579
0.187888
0.212404
0.261864
0.354267
0.480825
0.628329
0.635462
0.559419
0.506874
0.461933
0.422233
0.388538
0.362388
0.344684
0.334722
0.330835
0.331283
0.334873
0.340819
0.348394
0.356877
0.365601
0.374054
0.381952
0.389239
0.396008
0.402392
0.408483
0.414294
0.419767
0.424792
0.429247
0.432851
0.435424
0.436933
0.437409
0.436951
0.435729
0.43398
0.432001
0.430127
0.428717
0.428127
0.428688
0.430683
0.43432
0.439714
0.446856
0.455592
0.465605
0.476393
0.487282
0.497442
0.505956
0.51191
0.514506
0.51318
0.507678
0.498086
0.484779
0.468344
0.449466
0.428723
0.407228
0.387554
0.368753
0.350825
0.333853
0.317874
0.302894
0.288887
0.275814
0.263624
0.252262
0.241673
0.231801
0.222596
0.214008
0.205993
0.198511
0.191525
0.185
0.178895
0.173163
0.167734
0.162524
0.15744
0.152426
0.147634
0.143163
0.139104
0.135522
0.132445
0.129859
0.12771
0.125916
0.124387
0.123049
0.121879
0.120938
0.120441
0.120901
0.12345
0.130341
0.145733
0.176499
0.229689
0.303231
0.369436
0.402866
0.430331
0.483215
0.554318
0.626407
0.688533
0.738328
0.778119
0.81072
0.837812
0.860115
0.877974
0.892739
0.905334
0.91632
0.926003
0.934166
0.939812
0.940915
0.93456
0.91724
0.88913
0.851436
0.805433
0.753797
0.69964
0.64579
0.59441
0.54692
0.504109
0.46632
0.433566
0.40551
0.381128
0.358447
0.336743
0.318026
0.305
0.301404
0.312074
0.339321
0.376632
0.407583
0.410117
0.369826
0.303302
0.249243
0.233966
0.307323
0.343841
0.29142
0.269049
0.259578
0.249697
0.236223
0.220325
0.20395
0.188538
0.174836
0.163173
0.153674
0.146282
0.140577
0.136386
0.133314
0.131175
0.130292
0.131452
0.136143
0.147374
0.169835
0.212462
0.297427
0.441429
0.622968
0.750102
0.663732
0.552806
0.470275
0.414677
0.375291
0.34778
0.330131
0.320967
0.318846
0.32212
0.329219
0.33887
0.350117
0.362167
0.374322
0.386048
0.397054
0.407288
0.416859
0.425924
0.434598
0.442915
0.450828
0.45822
0.464929
0.470764
0.475528
0.478501
0.479471
0.478295
0.474918
0.469395
0.461907
0.45276
0.442384
0.431315
0.420167
0.4096
0.40028
0.392834
0.387809
0.385629
0.386554
0.39065
0.397757
0.407468
0.41912
0.431802
0.444404
0.4557
0.464497
0.469786
0.470896
0.46758
0.459996
0.448633
0.434154
0.417211
0.40007
0.383328
0.366912
0.351017
0.335787
0.321303
0.307599
0.294679
0.282525
0.27111
0.260396
0.250346
0.240922
0.232086
0.223803
0.216041
0.208769
0.201961
0.195586
0.189616
0.184017
0.178749
0.173756
0.168978
0.164351
0.159823
0.155466
0.151344
0.147512
0.144006
0.140835
0.137982
0.13541
0.133077
0.130962
0.129113
0.127726
0.127262
0.12866
0.133712
0.145665
0.169858
0.213157
0.277982
0.348783
0.395695
0.423297
0.467948
0.540767
0.623131
0.697795
0.758131
0.805238
0.842097
0.870619
0.891602
0.90548
0.912846
0.915848
0.915743
0.913568
0.910149
0.905863
0.900328
0.891808
0.877544
0.855809
0.826001
0.788139
0.743558
0.694657
0.644194
0.594681
0.54804
0.505508
0.467726
0.434896
0.406945
0.383615
0.364288
0.347708
0.332037
0.316069
0.300962
0.289006
0.283704
0.290285
0.31413
0.355587
0.400185
0.413657
0.375185
0.318208
0.291086
0.448536
0.323962
0.287886
0.283872
0.276626
0.261162
0.240056
0.21722
0.195737
0.177043
0.161399
0.148723
0.138864
0.131618
0.127312
0.125183
0.124035
0.123177
0.1229
0.124612
0.131278
0.149785
0.195222
0.293249
0.445086
0.623154
0.719944
0.649433
0.52983
0.43876
0.379997
0.344044
0.323126
0.313023
0.311093
0.315359
0.324172
0.336146
0.350164
0.365325
0.380888
0.396284
0.411158
0.425379
0.438985
0.452097
0.464839
0.477294
0.489476
0.501331
0.512734
0.52349
0.533334
0.541947
0.548966
0.553188
0.554435
0.552416
0.546933
0.537918
0.525466
0.50985
0.491528
0.47114
0.449484
0.427494
0.406188
0.386612
0.369766
0.356518
0.347533
0.3432
0.343602
0.348495
0.357313
0.369173
0.382896
0.397064
0.410149
0.420693
0.427522
0.429955
0.42781
0.421383
0.411237
0.398751
0.385539
0.371849
0.358053
0.344441
0.331204
0.318456
0.306263
0.294651
0.283626
0.273179
0.263294
0.253949
0.245124
0.236794
0.22894
0.221539
0.214572
0.20802
0.201862
0.196076
0.190637
0.185513
0.180663
0.176045
0.171615
0.167339
0.16319
0.159209
0.155432
0.151886
0.148589
0.145543
0.14274
0.140175
0.137866
0.135912
0.134586
0.134521
0.137001
0.144413
0.160838
0.192289
0.244039
0.311301
0.370962
0.404869
0.437763
0.500017
0.585278
0.67138
0.744362
0.801688
0.845797
0.879005
0.902327
0.916202
0.921131
0.918142
0.909784
0.897572
0.882978
0.867182
0.851031
0.834959
0.817167
0.796758
0.77159
0.740518
0.703479
0.661585
0.616807
0.571433
0.527564
0.486805
0.45016
0.418096
0.390684
0.367757
0.349011
0.333966
0.321834
0.311539
0.301296
0.290481
0.280027
0.271997
0.270178
0.28129
0.314201
0.36952
0.420004
0.422474
0.382559
0.350566
0.532881
0.320652
0.30705
0.305948
0.291504
0.266778
0.23764
0.209741
0.186125
0.166958
0.151363
0.138906
0.129458
0.123343
0.121339
0.12173
0.123171
0.124788
0.126917
0.132703
0.14962
0.191802
0.276754
0.406904
0.550816
0.637668
0.599031
0.500054
0.413099
0.356613
0.324565
0.309112
0.304808
0.308307
0.317385
0.330451
0.346296
0.363949
0.382602
0.401624
0.420577
0.439227
0.457498
0.475419
0.49306
0.510495
0.527776
0.544917
0.561872
0.578522
0.594661
0.609988
0.624113
0.636578
0.646169
0.652472
0.655032
0.653405
0.647241
0.636331
0.620633
0.600305
0.575713
0.547442
0.5163
0.483314
0.449723
0.416944
0.386487
0.359824
0.338216
0.322552
0.313248
0.310238
0.313039
0.320832
0.332479
0.346536
0.361304
0.374991
0.385912
0.392919
0.395351
0.393246
0.387255
0.378973
0.36915
0.358392
0.347171
0.335822
0.32457
0.313561
0.302883
0.292584
0.282691
0.273214
0.264154
0.255506
0.247266
0.239424
0.231972
0.224902
0.218205
0.211869
0.205883
0.200232
0.194897
0.189856
0.185079
0.180536
0.176194
0.172028
0.168018
0.164156
0.160471
0.156981
0.153702
0.150648
0.147828
0.145266
0.143018
0.14122
0.140211
0.140758
0.144442
0.154147
0.174529
0.211482
0.267414
0.331486
0.380292
0.409113
0.449315
0.522048
0.614114
0.70043
0.770439
0.824675
0.86551
0.894557
0.912409
0.919493
0.916434
0.904812
0.887174
0.865074
0.840474
0.814744
0.788714
0.764021
0.739779
0.714506
0.686597
0.655001
0.619566
0.581065
0.540961
0.501014
0.462887
0.427873
0.396768
0.369905
0.34726
0.328601
0.313594
0.30183
0.29275
0.285634
0.279651
0.273448
0.267077
0.261428
0.258517
0.26339
0.285682
0.334954
0.400263
0.438912
0.429351
0.404367
0.55627
0.323335
0.329074
0.323384
0.300401
0.268037
0.234545
0.205897
0.183586
0.165901
0.151121
0.139245
0.131414
0.128834
0.128987
0.131159
0.134513
0.138827
0.146337
0.16338
0.199917
0.266074
0.363413
0.472259
0.54166
0.529676
0.461949
0.39036
0.340034
0.312277
0.301054
0.300957
0.308363
0.321
0.337373
0.356396
0.37719
0.399027
0.421358
0.44382
0.466212
0.488448
0.51051
0.532422
0.554232
0.575996
0.597753
0.619492
0.641121
0.662441
0.683134
0.702765
0.720802
0.736644
0.748885
0.75738
0.761584
0.760948
0.75502
0.743488
0.726223
0.703297
0.674984
0.641749
0.604231
0.563259
0.519907
0.475579
0.432063
0.391448
0.355858
0.327062
0.306118
0.293229
0.287914
0.289317
0.296343
0.307635
0.321519
0.336081
0.349192
0.359287
0.365154
0.366622
0.364448
0.359619
0.35289
0.344899
0.336141
0.326975
0.317652
0.308337
0.299137
0.29012
0.281329
0.272789
0.26452
0.256532
0.248834
0.241433
0.234334
0.227539
0.22105
0.214866
0.208983
0.203397
0.198095
0.193063
0.188283
0.183732
0.179388
0.175233
0.171254
0.167442
0.163806
0.160363
0.157126
0.154113
0.151351
0.148884
0.146796
0.145263
0.144682
0.145944
0.15087
0.162691
0.186306
0.226866
0.283773
0.342683
0.383787
0.412023
0.45821
0.535329
0.626704
0.710462
0.778214
0.830444
0.868396
0.89352
0.906621
0.908225
0.899012
0.881057
0.856784
0.827324
0.795171
0.762253
0.729821
0.698975
0.669553
0.640601
0.610957
0.579751
0.546688
0.512109
0.4769
0.442275
0.409488
0.379574
0.353195
0.330616
0.311785
0.296453
0.284279
0.274878
0.267797
0.262508
0.258634
0.255323
0.252188
0.249635
0.248572
0.251763
0.266685
0.304838
0.368337
0.428482
0.450968
0.443582
0.542327
0.334152
0.348829
0.33648
0.306065
0.269476
0.235794
0.209412
0.18983
0.174236
0.161112
0.150991
0.14515
0.143111
0.143722
0.146834
0.152622
0.16265
0.180759
0.21267
0.263584
0.33326
0.408024
0.457725
0.458548
0.41919
0.368027
0.327447
0.304376
0.2964
0.299099
0.309066
0.324124
0.342891
0.364362
0.387702
0.412213
0.437365
0.462794
0.488273
0.513676
0.538949
0.564103
0.589199
0.614329
0.639579
0.66498
0.690478
0.715897
0.740936
0.765161
0.788017
0.808844
0.826908
0.84107
0.851178
0.856638
0.856835
0.851229
0.839425
0.821234
0.796717
0.766195
0.730199
0.689373
0.644377
0.595878
0.544717
0.492212
0.440421
0.392101
0.350202
0.317023
0.293491
0.279167
0.273028
0.27392
0.28062
0.291585
0.305022
0.318492
0.330134
0.338166
0.342386
0.343271
0.34141
0.337454
0.332007
0.325553
0.31846
0.310985
0.303307
0.295542
0.287773
0.280055
0.272429
0.264926
0.257574
0.250395
0.243407
0.236629
0.230075
0.223757
0.217684
0.211861
0.206291
0.200972
0.195897
0.191058
0.186441
0.182033
0.177822
0.173802
0.169967
0.166324
0.162885
0.159665
0.156688
0.153991
0.151634
0.149727
0.148479
0.148344
0.150319
0.156393
0.169986
0.195945
0.23842
0.294407
0.348275
0.384619
0.413581
0.462515
0.53913
0.626813
0.706876
0.771787
0.821337
0.856678
0.878902
0.888649
0.886493
0.8732
0.851136
0.822589
0.789
0.75232
0.714551
0.677351
0.64199
0.608843
0.577541
0.547373
0.517608
0.487702
0.457464
0.427171
0.397519
0.369432
0.343784
0.321196
0.301951
0.286033
0.27322
0.263186
0.25555
0.249889
0.245738
0.242731
0.240732
0.239315
0.238675
0.239479
0.243006
0.25385
0.281755
0.334952
0.400759
0.447229
0.462138
0.50899
0.352045
0.366836
0.346987
0.311276
0.273767
0.242203
0.218758
0.201863
0.188655
0.177618
0.169144
0.164448
0.162347
0.16405
0.169868
0.18079
0.198728
0.226248
0.265085
0.313084
0.360741
0.392624
0.397486
0.377495
0.345815
0.316988
0.299386
0.294035
0.298397
0.309717
0.326089
0.346281
0.369361
0.394516
0.421033
0.448344
0.47603
0.503807
0.531503
0.559043
0.586449
0.613813
0.64127
0.668943
0.696894
0.725087
0.75336
0.781419
0.808845
0.835113
0.859601
0.881613
0.900069
0.914654
0.925069
0.930754
0.931098
0.925503
0.913453
0.89461
0.868916
0.836683
0.7986
0.755595
0.708577
0.658182
0.604751
0.548713
0.491196
0.434558
0.382372
0.338401
0.304993
0.28204
0.268375
0.262697
0.263966
0.270806
0.281687
0.294093
0.305534
0.314732
0.320976
0.324208
0.324775
0.323198
0.320004
0.315647
0.310472
0.304733
0.298605
0.292211
0.28564
0.278957
0.272215
0.265457
0.258722
0.252046
0.24546
0.238992
0.232668
0.226509
0.220534
0.214758
0.20919
0.203836
0.1987
0.193779
0.18907
0.184568
0.180267
0.176165
0.172264
0.16857
0.165098
0.161865
0.158901
0.15625
0.15399
0.152246
0.151258
0.151528
0.154127
0.161135
0.176018
0.203388
0.246438
0.3006
0.350338
0.383877
0.413209
0.461722
0.534444
0.616611
0.692198
0.753972
0.80098
0.834029
0.853993
0.861501
0.85719
0.841895
0.817841
0.787049
0.751053
0.711605
0.67072
0.630341
0.592047
0.556724
0.524577
0.49528
0.468098
0.44209
0.416457
0.390875
0.365622
0.341411
0.319086
0.299332
0.28253
0.268754
0.257844
0.249498
0.243327
0.238888
0.235702
0.233352
0.231791
0.230982
0.231059
0.232613
0.236546
0.245192
0.26539
0.306191
0.366143
0.423936
0.458638
0.470292
0.372378
0.385495
0.358638
0.318175
0.279808
0.249893
0.228807
0.214413
0.204037
0.196079
0.190532
0.187207
0.187201
0.191662
0.201252
0.216705
0.238563
0.266332
0.297236
0.325669
0.344815
0.350106
0.341847
0.325218
0.307907
0.296451
0.293646
0.298958
0.310695
0.32741
0.348089
0.37191
0.398091
0.425898
0.454696
0.483989
0.513413
0.542742
0.571879
0.600851
0.629781
0.658839
0.688187
0.717915
0.748
0.778277
0.808426
0.837985
0.866372
0.892937
0.916996
0.937881
0.954546
0.967275
0.975869
0.979958
0.979073
0.972663
0.960139
0.940962
0.914796
0.881687
0.84224
0.797597
0.749134
0.697936
0.644394
0.588419
0.530105
0.470584
0.412945
0.361658
0.320884
0.291002
0.270912
0.259209
0.255133
0.257563
0.264841
0.274929
0.28566
0.29527
0.302696
0.307568
0.310004
0.310374
0.309107
0.306594
0.303146
0.298991
0.294295
0.289177
0.283728
0.27802
0.272113
0.266062
0.259917
0.253724
0.247526
0.241361
0.235264
0.229265
0.223393
0.217668
0.212108
0.206728
0.201537
0.19654
0.191742
0.187143
0.182746
0.178554
0.174571
0.17081
0.167286
0.164022
0.161051
0.158428
0.156239
0.154627
0.153853
0.15445
0.157526
0.165177
0.180803
0.208708
0.251341
0.303361
0.350014
0.3819
0.410732
0.45636
0.522936
0.598339
0.668824
0.727248
0.771881
0.803053
0.821461
0.82774
0.822541
0.806568
0.781779
0.749976
0.712704
0.671714
0.629087
0.586995
0.547357
0.511545
0.480248
0.453345
0.42988
0.408359
0.38734
0.365993
0.344321
0.322998
0.302977
0.285115
0.269958
0.257701
0.248257
0.241339
0.23653
0.233334
0.231214
0.229677
0.228493
0.227866
0.228009
0.229406
0.232973
0.240002
0.254614
0.284318
0.332773
0.389835
0.436325
0.432111
0.39259
0.40534
0.372763
0.327948
0.288006
0.258397
0.238422
0.225697
0.21781
0.213092
0.210934
0.210614
0.213669
0.220694
0.231854
0.246792
0.264407
0.2827
0.299002
0.310671
0.315961
0.314658
0.308422
0.300643
0.295319
0.295283
0.30135
0.312988
0.32937
0.349788
0.373584
0.400055
0.428469
0.458141
0.488489
0.519063
0.549561
0.579837
0.609899
0.639878
0.669977
0.700397
0.731283
0.762657
0.794381
0.826122
0.857347
0.887349
0.91531
0.940384
0.961792
0.978939
0.991395
0.999767
1.00417
1.00454
1.00064
0.992086
0.978334
0.958746
0.9327
0.899818
0.860311
0.815171
0.766047
0.714586
0.661583
0.606974
0.550542
0.49213
0.433816
0.379419
0.334963
0.30084
0.276209
0.259864
0.251027
0.249076
0.252889
0.260641
0.270172
0.279565
0.287522
0.293441
0.297242
0.299146
0.299473
0.298538
0.296599
0.293851
0.29044
0.286475
0.282045
0.277226
0.272084
0.266684
0.261084
0.255342
0.249507
0.24363
0.237753
0.231915
0.22615
0.220487
0.21495
0.20956
0.204333
0.19928
0.194412
0.189735
0.185257
0.180986
0.176931
0.173108
0.169534
0.166235
0.163251
0.160642
0.158504
0.156991
0.156378
0.157209
0.16059
0.168567
0.184399
0.212073
0.253568
0.303419
0.347914
0.378839
0.406385
0.447472
0.506464
0.574166
0.638925
0.693694
0.736007
0.765641
0.783046
0.788792
0.783444
0.767494
0.74267
0.710613
0.672898
0.631362
0.588219
0.545868
0.506566
0.472109
0.443483
0.420494
0.401707
0.384963
0.368228
0.350322
0.331184
0.311637
0.292891
0.276061
0.261893
0.25071
0.24247
0.236871
0.233439
0.231591
0.230711
0.230232
0.229771
0.22938
0.229434
0.230317
0.232864
0.238155
0.248447
0.269233
0.30532
0.353692
0.40197
0.394994
0.411442
0.426025
0.390206
0.342349
0.300655
0.270299
0.250235
0.238058
0.231512
0.22885
0.228151
0.229774
0.23391
0.240502
0.249173
0.259211
0.269655
0.279453
0.287635
0.293447
0.296497
0.297044
0.296299
0.29631
0.299172
0.306175
0.317654
0.333427
0.353153
0.376395
0.402578
0.431026
0.461042
0.49198
0.523303
0.554612
0.585676
0.616439
0.646998
0.677556
0.70835
0.739584
0.771365
0.803644
0.836158
0.868399
0.899595
0.92876
0.954814
0.976698
0.993528
1.00479
1.01105
1.01324
1.0118
1.00693
0.99866
0.986789
0.970922
0.950451
0.924585
0.892599
0.854282
0.810136
0.761711
0.71099
0.659112
0.606002
0.552365
0.497009
0.441458
0.389272
0.344199
0.307989
0.280425
0.260666
0.248289
0.243048
0.244125
0.249873
0.258187
0.267096
0.275192
0.28173
0.286493
0.289573
0.291188
0.29157
0.290917
0.289384
0.287091
0.284135
0.280601
0.276565
0.2721
0.267277
0.262163
0.256823
0.251318
0.245704
0.240031
0.234346
0.228689
0.223095
0.217594
0.212212
0.206969
0.201883
0.19697
0.19224
0.187706
0.18338
0.179274
0.175406
0.171796
0.168474
0.165482
0.162886
0.160787
0.159345
0.158841
0.159814
0.16333
0.171333
0.18689
0.213699
0.253524
0.301271
0.344345
0.374808
0.400636
0.436303
0.486902
0.546172
0.604522
0.655153
0.694973
0.723156
0.739815
0.74535
0.740186
0.724609
0.700171
0.66841
0.630965
0.589823
0.547388
0.506304
0.46915
0.438004
0.413858
0.396098
0.382586
0.370472
0.357276
0.341705
0.323873
0.304954
0.286536
0.270044
0.256421
0.24607
0.238944
0.234671
0.232674
0.232264
0.232737
0.233466
0.233995
0.23413
0.234264
0.234706
0.236081
0.239435
0.246132
0.25982
0.285119
0.321937
0.364016
0.359387
0.426285
0.445184
0.40989
0.361561
0.318955
0.287403
0.266062
0.252723
0.245257
0.241635
0.240422
0.241412
0.244247
0.248614
0.254188
0.260613
0.26752
0.274512
0.281149
0.28699
0.291794
0.295817
0.299959
0.305527
0.31373
0.325314
0.34058
0.359543
0.382006
0.407569
0.435661
0.465622
0.496786
0.528541
0.560387
0.591976
0.623139
0.653884
0.684358
0.714786
0.745402
0.77639
0.807815
0.839567
0.871302
0.902394
0.931931
0.958719
0.981459
0.9989
1.00997
1.01427
1.01357
1.00903
1.00128
0.99074
0.977623
0.96193
0.943426
0.921625
0.895618
0.864433
0.827902
0.785867
0.739536
0.690892
0.641548
0.591931
0.541467
0.489631
0.437554
0.388186
0.344738
0.308846
0.280428
0.25903
0.244705
0.237565
0.236987
0.241424
0.24883
0.25727
0.265333
0.272227
0.277659
0.281629
0.284265
0.285721
0.286134
0.285618
0.284267
0.282165
0.279389
0.276018
0.272128
0.267797
0.263099
0.258106
0.252886
0.247502
0.242011
0.236465
0.23091
0.225386
0.219928
0.214566
0.209325
0.204228
0.199292
0.194535
0.18997
0.185614
0.181482
0.177593
0.173969
0.170642
0.167656
0.165079
0.163014
0.161624
0.161186
0.162218
0.165719
0.173493
0.188377
0.213813
0.251558
0.297241
0.339433
0.369905
0.39404
0.424109
0.466041
0.516357
0.567573
0.613388
0.650268
0.676792
0.692656
0.698005
0.69309
0.678031
0.654268
0.623285
0.586828
0.547079
0.506676
0.468529
0.435453
0.409566
0.391481
0.379826
0.371633
0.363458
0.352626
0.338021
0.320191
0.300833
0.281995
0.265405
0.252135
0.242585
0.23662
0.23374
0.233223
0.234256
0.236051
0.237949
0.239493
0.240415
0.240845
0.241121
0.241603
0.243132
0.246791
0.254801
0.271289
0.297333
0.329696
0.325465
0.432716
0.457857
0.427716
0.382555
0.341069
0.308957
0.285933
0.270347
0.260576
0.25424
0.251076
0.250336
0.251543
0.254397
0.258688
0.264219
0.27074
0.277901
0.285278
0.292494
0.29944
0.306443
0.314245
0.323765
0.335809
0.350912
0.369339
0.391106
0.415995
0.443573
0.473268
0.50444
0.53645
0.568713
0.600748
0.63221
0.662979
0.693095
0.722714
0.752042
0.78128
0.81057
0.839938
0.869242
0.898116
0.925927
0.951762
0.974465
0.992535
1.00438
1.00889
1.00669
0.999815
0.989335
0.97596
0.960269
0.942666
0.923325
0.902172
0.878875
0.852746
0.822876
0.788435
0.749128
0.705773
0.660051
0.613521
0.566749
0.519336
0.470994
0.422798
0.377288
0.337027
0.303112
0.275419
0.253939
0.239219
0.231616
0.230552
0.234487
0.241439
0.249577
0.257577
0.264686
0.270589
0.275228
0.278659
0.280966
0.282233
0.282537
0.281947
0.280534
0.278374
0.275543
0.272122
0.268193
0.263836
0.259129
0.254146
0.248955
0.243619
0.238194
0.232731
0.227274
0.221861
0.216527
0.211301
0.206207
0.201268
0.196503
0.191931
0.187568
0.183433
0.179546
0.17593
0.172616
0.169653
0.167105
0.165076
0.163726
0.16332
0.164345
0.167711
0.175055
0.188961
0.212629
0.247944
0.291505
0.333153
0.364139
0.387048
0.411966
0.445468
0.486587
0.52999
0.570178
0.603427
0.627811
0.642574
0.647545
0.642761
0.628262
0.60543
0.575743
0.541087
0.503873
0.467
0.433603
0.406561
0.387659
0.376719
0.371371
0.36784
0.362335
0.352318
0.337169
0.318106
0.297474
0.277781
0.260967
0.248114
0.239506
0.234841
0.233432
0.234385
0.236754
0.239681
0.242508
0.244836
0.24647
0.247334
0.247711
0.247764
0.24796
0.249204
0.25287
0.26223
0.279419
0.30247
0.294258
0.424549
0.457559
0.437437
0.399412
0.361889
0.33132
0.308205
0.291428
0.278825
0.270448
0.26552
0.263401
0.263655
0.265983
0.27014
0.275856
0.282797
0.290565
0.298787
0.307244
0.316008
0.325474
0.336273
0.349081
0.364464
0.38279
0.404215
0.428672
0.455876
0.48533
0.516464
0.54868
0.581385
0.614066
0.646361
0.677334
0.707109
0.735831
0.76364
0.790693
0.817126
0.843015
0.868341
0.892943
0.916481
0.938398
0.957916
0.97411
0.985815
0.991711
0.99078
0.983965
0.972583
0.957623
0.939944
0.920297
0.899245