/*--------------------------------*- C++ -*----------------------------------*\
  =========                 |
  \\      /  F ield         | OpenFOAM: The Open Source CFD Toolbox
   \\    /   O peration     | Website:  https://openfoam.org
    \\  /    A nd           | Version:  9
     \\/     M anipulation  |
\*---------------------------------------------------------------------------*/
FoamFile
{
    format      ascii;
    class       volScalarField;
    location    "0.17";
    object      nut;
}
// * * * * * * * * * * * * * * * * * * * * * * * * * * * * * * * * * * * * * //

dimensions      [0 2 -1 0 0 0 0];

internalField   nonuniform List<scalar> 
12225
(
8.99098e-06
7.55129e-06
6.46619e-06
5.68139e-06
5.15931e-06
4.87091e-06
4.79142e-06
4.89739e-06
5.16615e-06
5.57657e-06
6.11062e-06
6.75502e-06
7.50333e-06
8.35815e-06
9.33397e-06
1.04597e-05
1.17931e-05
1.3845e-05
6.73403e-05
4.76184e-05
4.02515e-05
3.67884e-05
3.50841e-05
3.42752e-05
3.39072e-05
3.37368e-05
3.36459e-05
3.35843e-05
3.35358e-05
3.35012e-05
3.34908e-05
3.35215e-05
3.36159e-05
3.37987e-05
3.41111e-05
3.46393e-05
0.000145911
0.000110749
9.12525e-05
7.82734e-05
6.84963e-05
6.05747e-05
5.3897e-05
4.81941e-05
4.33486e-05
3.92854e-05
3.59279e-05
3.31935e-05
3.10043e-05
2.9298e-05
2.8035e-05
2.71998e-05
2.68035e-05
2.68945e-05
0.000188731
0.000163047
0.000142828
0.000126922
0.000113846
0.000102622
9.26319e-05
8.35168e-05
7.50966e-05
6.72972e-05
6.00911e-05
5.34641e-05
4.74046e-05
4.19096e-05
3.69946e-05
3.27029e-05
2.9102e-05
2.62853e-05
0.000204904
0.000192092
0.000178639
0.00016595
0.00015429
0.000143564
0.000133571
0.000124113
0.000115029
0.000106211
9.7581e-05
8.90836e-05
8.06732e-05
7.23193e-05
6.40224e-05
5.58443e-05
4.79365e-05
4.06073e-05
0.000210131
0.000204658
0.000197627
0.000189865
0.000181866
0.000173885
0.000166015
0.000158255
0.000150556
0.000142855
0.000135077
0.000127139
0.000118949
0.0001104
0.000101385
9.18091e-05
8.16442e-05
7.10995e-05
0.000211672
0.000209294
0.000205969
0.00020189
0.00019727
0.000192289
0.000187067
0.000181672
0.000176125
0.000170414
0.000164501
0.000158327
0.00015181
0.000144838
0.000137273
0.000128945
0.000119681
0.000109481
0.000212094
0.000210814
0.000209143
0.000207061
0.000204595
0.000201794
0.000198711
0.000195388
0.000191849
0.000188099
0.000184124
0.000179894
0.000175353
0.000170424
0.000164999
0.000158933
0.000152055
0.000144313
0.000212202
0.000211264
0.000210214
0.000209009
0.000207626
0.000206058
0.000204308
0.000202383
0.00020029
0.000198027
0.000195587
0.000192953
0.000190094
0.000186962
0.000183489
0.000179581
0.00017512
0.00017007
0.000212227
0.000211386
0.000210539
0.000209662
0.000208735
0.000207743
0.000206675
0.000205523
0.000204284
0.000202951
0.000201517
0.00019997
0.000198293
0.000196459
0.00019443
0.000192151
0.000189553
0.000186621
0.000212233
0.000211417
0.000210629
0.000209859
0.000209098
0.000208336
0.000207564
0.000206775
0.000205962
0.000205122
0.000204248
0.000203332
0.000202366
0.000201337
0.000200223
0.000198997
0.000197624
0.000196095
0.000212233
0.000211423
0.000210651
0.000209911
0.0002092
0.000208512
0.000207844
0.00020719
0.000206548
0.000205915
0.000205288
0.000204664
0.000204038
0.000203404
0.000202753
0.000202072
0.000201341
0.000200557
0.000212234
0.000211425
0.000210657
0.000209927
0.000209233
0.000208572
0.000207944
0.000207345
0.000206776
0.000206236
0.000205725
0.000205242
0.000204787
0.00020436
0.000203957
0.000203574
0.000203203
0.000202842
0.000212234
0.000211426
0.000210659
0.000209933
0.000209244
0.000208593
0.000207978
0.0002074
0.000206858
0.000206354
0.000205889
0.000205465
0.000205084
0.000204747
0.000204455
0.000204208
0.000204005
0.000203845
0.000212234
0.000211426
0.00021066
0.000209935
0.000209249
0.000208601
0.00020799
0.000207418
0.000206884
0.00020639
0.000205938
0.00020553
0.000205168
0.000204855
0.000204593
0.000204383
0.000204227
0.000204124
0.000212233
0.000211426
0.000210661
0.000209936
0.000209252
0.000208605
0.000207997
0.000207426
0.000206894
0.000206402
0.000205951
0.000205542
0.000205179
0.000204862
0.000204594
0.000204376
0.000204211
0.000204098
0.000212233
0.000211425
0.000210661
0.000209937
0.000209253
0.000208608
0.000208001
0.000207432
0.000206901
0.000206409
0.000205956
0.000205543
0.000205173
0.000204845
0.000204562
0.000204323
0.000204131
0.000203986
0.000212232
0.000211424
0.00021066
0.000209937
0.000209254
0.00020861
0.000208005
0.000207438
0.000206908
0.000206416
0.000205962
0.000205546
0.000205169
0.000204831
0.000204532
0.000204273
0.000204054
0.000203877
0.000212231
0.000211422
0.000210657
0.000209935
0.000209254
0.000208612
0.000208009
0.000207444
0.000206916
0.000206425
0.000205971
0.000205553
0.000205172
0.000204826
0.000204515
0.00020424
0.000203999
0.000203795
0.00021223
0.00021142
0.000210655
0.000209933
0.000209253
0.000208613
0.000208013
0.00020745
0.000206924
0.000206435
0.000205982
0.000205563
0.000205179
0.000204829
0.000204511
0.000204225
0.000203971
0.000203752
0.000212229
0.000211419
0.000210654
0.000209933
0.000209254
0.000208616
0.000208017
0.000207455
0.000206931
0.000206442
0.000205988
0.000205568
0.00020518
0.000204824
0.000204499
0.000204204
0.000203938
0.000203705
0.000212229
0.000211418
0.000210653
0.000209931
0.000209251
0.00020861
0.000208006
0.000207437
0.000206903
0.000206402
0.000205933
0.000205495
0.000205087
0.000204708
0.000204357
0.000204033
0.000203736
0.00020347
0.000212227
0.000211413
0.00021064
0.000209902
0.000209195
0.000208515
0.000207861
0.000207229
0.00020662
0.000206034
0.00020547
0.000204929
0.000204412
0.000203919
0.000203451
0.000203007
0.000202589
0.000202204
0.000212216
0.000211363
0.000210509
0.000209639
0.000208747
0.000207833
0.0002069
0.000205956
0.000205007
0.000204061
0.000203127
0.00020221
0.000201317
0.000200452
0.000199619
0.00019882
0.000198058
0.000197344
0.000212115
0.000210963
0.000209593
0.000208011
0.000206258
0.000204388
0.000202444
0.000200471
0.000198505
0.000196573
0.000194694
0.000192881
0.000191144
0.000189487
0.000187913
0.000186421
0.000185012
0.000183697
0.000211346
0.000208483
0.000204802
0.000200647
0.000196292
0.000191937
0.000187722
0.000183719
0.00017996
0.000176433
0.00017314
0.000170075
0.000167222
0.000164565
0.000162089
0.000159781
0.000157629
0.000155636
0.000206584
0.000196758
0.000186484
0.000176866
0.000168212
0.000160558
0.000153818
0.000147869
0.000142597
0.000137917
0.000133738
0.000129984
0.000126546
0.000123389
0.000120483
0.000117803
0.000115324
0.00011304
0.000183088
0.00015737
0.000139174
0.000125963
0.000115921
0.000108025
0.00010163
9.63095e-05
9.1788e-05
8.78829e-05
8.44677e-05
8.14518e-05
7.87861e-05
7.64158e-05
7.42977e-05
7.23948e-05
7.06566e-05
6.9064e-05
0.000105421
7.88578e-05
6.69834e-05
6.03897e-05
5.63331e-05
5.37526e-05
5.21026e-05
5.10517e-05
5.03874e-05
4.9969e-05
4.97012e-05
4.9519e-05
4.93795e-05
4.9255e-05
4.91285e-05
4.89899e-05
4.8838e-05
4.86643e-05
1.67227e-05
1.50202e-05
1.36119e-05
1.24486e-05
1.14958e-05
1.07254e-05
1.0114e-05
9.64102e-06
9.28768e-06
9.03667e-06
8.872e-06
8.77906e-06
8.74458e-06
8.75674e-06
8.80514e-06
8.88082e-06
8.97618e-06
9.0845e-06
1.42593e-05
1.61446e-05
1.80729e-05
1.96636e-05
2.08293e-05
2.14348e-05
2.15764e-05
2.16542e-05
2.17232e-05
2.18115e-05
2.19352e-05
2.21056e-05
2.23311e-05
2.26407e-05
2.29144e-05
2.31163e-05
2.32046e-05
2.31225e-05
2.27866e-05
2.20668e-05
2.07389e-05
1.83753e-05
1.33972e-05
5.13175e-05
5.20078e-05
1.17623e-05
1.29273e-05
1.4568e-05
1.63758e-05
1.7026e-05
1.68088e-05
1.61315e-05
1.5294e-05
1.48639e-05
1.47554e-05
1.46714e-05
1.42864e-05
1.37036e-05
1.54597e-05
2.13184e-05
2.51867e-05
2.8193e-05
3.05258e-05
3.23207e-05
3.36823e-05
3.4692e-05
3.54142e-05
3.59001e-05
3.61915e-05
3.63222e-05
3.63203e-05
3.62094e-05
3.6009e-05
3.57357e-05
3.54033e-05
3.50234e-05
3.45831e-05
3.41358e-05
3.36842e-05
3.32281e-05
3.27681e-05
3.23047e-05
3.18387e-05
3.13706e-05
3.09008e-05
3.04293e-05
2.99563e-05
2.94813e-05
2.90035e-05
2.85218e-05
2.80344e-05
2.75387e-05
2.70317e-05
2.65091e-05
2.59664e-05
2.53985e-05
2.48e-05
2.41663e-05
2.34938e-05
2.27807e-05
2.20274e-05
2.12369e-05
2.04147e-05
1.95675e-05
1.86998e-05
1.78134e-05
1.68898e-05
1.62235e-05
1.59646e-05
1.57649e-05
1.55925e-05
1.54423e-05
1.5313e-05
1.5204e-05
1.51146e-05
1.50436e-05
1.49897e-05
1.49515e-05
1.49271e-05
1.49148e-05
1.49126e-05
1.49184e-05
1.49295e-05
1.49434e-05
1.49586e-05
1.49734e-05
1.49699e-05
1.49242e-05
1.48116e-05
1.46101e-05
1.43042e-05
1.38951e-05
1.34109e-05
1.29089e-05
1.24606e-05
1.21239e-05
1.19213e-05
1.1839e-05
1.18425e-05
1.19017e-05
1.1991e-05
1.20802e-05
1.21588e-05
1.22292e-05
1.23029e-05
1.23959e-05
1.25231e-05
1.26912e-05
1.28931e-05
1.31109e-05
1.33215e-05
1.35281e-05
1.35622e-05
1.31843e-05
1.34597e-05
1.72182e-05
2.02127e-05
2.24529e-05
2.40773e-05
2.52283e-05
2.6019e-05
2.65355e-05
2.68478e-05
2.70236e-05
2.71395e-05
2.7154e-05
2.70837e-05
2.69367e-05
2.67151e-05
2.64159e-05
2.60293e-05
2.55361e-05
2.48987e-05
2.3942e-05
2.27326e-05
2.27892e-05
2.28477e-05
2.28633e-05
2.28613e-05
2.28716e-05
2.29147e-05
2.30006e-05
2.31399e-05
2.33752e-05
2.37208e-05
2.39391e-05
2.37464e-05
2.28223e-05
2.09266e-05
1.84263e-05
1.6571e-05
1.5829e-05
1.55026e-05
1.53064e-05
1.47336e-05
1.40282e-05
1.35011e-05
4.92323e-05
4.53095e-05
4.36852e-05
1.10702e-05
1.59363e-05
2.21657e-05
2.57238e-05
2.68786e-05
2.7622e-05
2.8336e-05
2.89015e-05
2.92207e-05
2.93035e-05
2.921e-05
2.89972e-05
2.87076e-05
2.8313e-05
2.75115e-05
2.64939e-05
2.55256e-05
2.48453e-05
2.45839e-05
2.47385e-05
2.51331e-05
2.53165e-05
2.46504e-05
2.37848e-05
2.25389e-05
2.24774e-05
2.6464e-05
3.17964e-05
3.54307e-05
3.70693e-05
3.62276e-05
3.68477e-05
3.90258e-05
4.03098e-05
3.92947e-05
3.73789e-05
3.57118e-05
3.46004e-05
3.42202e-05
3.42629e-05
3.42068e-05
3.42397e-05
3.44936e-05
3.5087e-05
3.61263e-05
3.77112e-05
3.99378e-05
4.28958e-05
4.66589e-05
5.12642e-05
5.6682e-05
6.27764e-05
6.92721e-05
7.57449e-05
8.16756e-05
8.65883e-05
9.00156e-05
9.33016e-05
9.65547e-05
9.97895e-05
0.000103021
0.000106268
0.000109548
0.000112879
0.000116277
0.000119754
0.000123317
0.000126964
0.000130686
0.000134459
0.000138249
0.000142003
0.000145654
0.000149119
0.000152302
0.0001551
0.000157411
0.000159142
0.000160219
0.000160594
0.000160248
0.000159188
0.000157436
0.000155017
0.000151921
0.000148048
0.000143104
0.000137546
0.000132129
0.000126782
0.000121528
0.00011639
0.000111388
0.000106533
0.000101831
9.72864e-05
9.28999e-05
8.86711e-05
8.45984e-05
8.06792e-05
7.69105e-05
7.32881e-05
6.98062e-05
6.6453e-05
6.31914e-05
5.98056e-05
5.52965e-05
5.00156e-05
4.51059e-05
4.11167e-05
3.82411e-05
3.65115e-05
3.58691e-05
3.62046e-05
3.73613e-05
3.9124e-05
4.12195e-05
4.33417e-05
4.51912e-05
4.64975e-05
4.71669e-05
4.71972e-05
4.66155e-05
4.55114e-05
4.40752e-05
4.25846e-05
4.11592e-05
3.96786e-05
3.79517e-05
3.61495e-05
3.51144e-05
3.57678e-05
3.79679e-05
4.05668e-05
4.40721e-05
5.04344e-05
5.95054e-05
7.12871e-05
8.5409e-05
0.000101159
0.000117602
0.000133604
0.000147902
0.000159096
0.00016855
0.000177637
0.000186399
0.000194768
0.000202573
0.00020952
0.000215169
0.000218917
0.000219923
0.000216617
0.000208143
0.000197616
0.000185558
0.000172531
0.00015906
0.000145598
0.000132478
0.000119882
0.000107882
9.63755e-05
8.28525e-05
6.53082e-05
5.36059e-05
4.8601e-05
4.88837e-05
5.30761e-05
5.96574e-05
6.48638e-05
6.38869e-05
5.62954e-05
4.66697e-05
3.98266e-05
3.73532e-05
3.97156e-05
4.09521e-05
3.72792e-05
1.43071e-05
2.02892e-05
2.48409e-05
2.51332e-05
2.51755e-05
2.60102e-05
2.73828e-05
2.88306e-05
3.00588e-05
3.09629e-05
3.15424e-05
3.18294e-05
3.18555e-05
3.16364e-05
3.10657e-05
3.00685e-05
2.86754e-05
2.71244e-05
2.5774e-05
2.49271e-05
2.47096e-05
2.4994e-05
2.53988e-05
2.57002e-05
2.60027e-05
2.77054e-05
3.27395e-05
3.98699e-05
4.48516e-05
4.97176e-05
5.22747e-05
4.95688e-05
4.6748e-05
4.43249e-05
4.15669e-05
3.9138e-05
3.76268e-05
3.70513e-05
3.7361e-05
3.85268e-05
4.06236e-05
4.38973e-05
4.86064e-05
5.49824e-05
6.31568e-05
7.30677e-05
8.43799e-05
9.64769e-05
0.000108561
0.00011984
0.00012972
0.0001379
0.00014437
0.000149308
0.000152981
0.00015564
0.000157791
0.000159719
0.000161474
0.000163098
0.000164638
0.000166148
0.000167685
0.000169304
0.00017106
0.000173
0.000175165
0.000177582
0.000180265
0.00018321
0.000186393
0.000189767
0.000193262
0.00019678
0.000200205
0.000203401
0.000206228
0.000208549
0.000210244
0.000211222
0.000211428
0.00021084
0.000209466
0.000207338
0.00020449
0.000200931
0.000196603
0.000191972
0.000187331
0.000182684
0.000178067
0.000173509
0.00016903
0.000164642
0.000160353
0.000156163
0.000152072
0.000148076
0.000144169
0.000140347
0.000136603
0.000132928
0.000129311
0.000125733
0.000122153
0.000118468
0.000114427
0.000109805
0.000104126
9.75834e-05
9.10237e-05
8.50215e-05
7.99735e-05
7.6039e-05
7.31785e-05
7.1225e-05
6.9946e-05
6.90935e-05
6.84484e-05
6.78494e-05
6.72214e-05
6.65515e-05
6.58445e-05
6.50564e-05
6.39953e-05
6.22496e-05
5.96326e-05
5.60596e-05
5.22389e-05
5.00597e-05
5.08843e-05
5.43777e-05
5.87542e-05
6.56398e-05
7.91676e-05
0.000101287
0.000130341
0.000162526
0.000193767
0.000221487
0.00024473
0.000263494
0.000278168
0.000289207
0.000298318
0.000306281
0.000313255
0.000319281
0.000324269
0.000327966
0.000329934
0.000329574
0.000326156
0.000318887
0.000308557
0.000295892
0.000281448
0.000265903
0.000249904
0.000233993
0.000218557
0.000203824
0.00018987
0.000176497
0.000162378
0.000144492
0.000119379
9.53648e-05
7.77928e-05
6.77217e-05
6.43306e-05
6.58862e-05
6.96208e-05
7.21212e-05
7.06937e-05
6.45703e-05
5.72822e-05
5.24984e-05
5.06038e-05
5.05151e-05
2.85823e-05
2.1115e-05
2.16275e-05
2.28424e-05
2.56977e-05
2.95009e-05
3.32066e-05
3.61317e-05
3.80958e-05
3.92225e-05
3.97294e-05
3.98185e-05
3.96334e-05
3.92272e-05
3.82201e-05
3.65473e-05
3.42844e-05
3.16357e-05
2.89948e-05
2.68331e-05
2.55183e-05
2.52096e-05
2.58756e-05
2.75787e-05
3.09762e-05
3.78381e-05
4.83017e-05
5.80503e-05
6.36725e-05
5.92607e-05
5.31711e-05
4.83779e-05
4.46972e-05
4.20055e-05
4.03127e-05
3.99029e-05
4.09221e-05
4.34142e-05
4.75216e-05
5.35077e-05
6.16818e-05
7.22541e-05
8.51213e-05
9.97153e-05
0.000115016
0.0001298
0.00014301
0.000154037
0.000162758
0.000169405
0.000174365
0.00017803
0.000180719
0.000182659
0.000183996
0.000184742
0.000185058
0.000184981
0.000184547
0.000183809
0.000182838
0.000181717
0.000180546
0.000179431
0.00017848
0.000177801
0.000177497
0.000177654
0.000178342
0.000179608
0.00018147
0.00018391
0.000186876
0.000190275
0.000193978
0.000197826
0.000201637
0.000205223
0.000208408
0.000211039
0.000213002
0.000214227
0.000214682
0.000214367
0.000213304
0.000211507
0.000208955
0.000206072
0.000203044
0.000199926
0.000196767
0.000193603
0.000190458
0.00018735
0.00018429
0.000181283
0.000178333
0.000175439
0.0001726
0.000169814
0.000167076
0.00016438
0.000161717
0.000159076
0.000156433
0.000153745
0.000150934
0.00014789
0.000144459
0.00014046
0.000135786
0.00013086
0.000126005
0.000121487
0.000117467
0.000113979
0.000110944
0.000108208
0.000105584
0.000102893
9.99987e-05
9.68219e-05
9.33186e-05
8.93902e-05
8.4747e-05
7.89399e-05
7.19248e-05
6.51412e-05
6.09682e-05
6.0826e-05
6.41889e-05
6.89327e-05
7.65942e-05
9.29843e-05
0.000122348
0.000162538
0.000206712
0.000248034
0.000282851
0.000310484
0.000331676
0.000347495
0.000358881
0.000366587
0.000371994
0.000375739
0.000378128
0.00037937
0.000379549
0.000378582
0.000376148
0.000371748
0.000364745
0.000355267
0.000343508
0.000329734
0.000314485
0.000298427
0.000282216
0.000266395
0.000251358
0.000237343
0.000224441
0.000212557
0.000201212
0.000189089
0.000172989
0.000151372
0.000127462
0.000105579
8.88404e-05
7.86032e-05
7.48343e-05
7.59551e-05
7.8892e-05
7.96757e-05
7.55197e-05
6.82109e-05
6.2993e-05
6.40968e-05
1.01681e-05
1.65159e-05
1.9817e-05
2.6058e-05
3.38404e-05
4.05895e-05
4.48906e-05
4.68277e-05
4.71495e-05
4.6608e-05
4.57371e-05
4.48523e-05
4.40914e-05
4.34338e-05
4.23911e-05
4.07191e-05
3.83142e-05
3.52349e-05
3.18539e-05
2.88051e-05
2.67437e-05
2.61951e-05
2.76064e-05
3.174e-05
4.0073e-05
5.27471e-05
6.49521e-05
6.84057e-05
6.1807e-05
5.40173e-05
4.836e-05
4.46722e-05
4.27119e-05
4.23906e-05
4.37953e-05
4.71354e-05
5.26024e-05
6.04042e-05
7.07746e-05
8.38122e-05
9.92216e-05
0.00011615
0.000133287
0.000149257
0.000163051
0.000174257
0.000182985
0.000189639
0.000194699
0.000198583
0.000201591
0.000203914
0.000205655
0.000206858
0.000207538
0.000207496
0.000206743
0.000205276
0.000203115
0.000200309
0.000196938
0.000193111
0.000188969
0.000184672
0.000180399
0.000176338
0.000172677
0.000169596
0.000167258
0.000165798
0.000165313
0.000165851
0.000167403
0.000169902
0.000173221
0.000177179
0.000181556
0.000186107
0.000190584
0.000194756
0.000198432
0.000201473
0.000203789
0.00020534
0.000206116
0.000206098
0.000205317
0.000204157
0.000202757
0.000201187
0.000199502
0.000197741
0.000195932
0.000194096
0.000192248
0.000190401
0.000188562
0.000186738
0.000184934
0.000183153
0.000181396
0.000179664
0.000177957
0.000176267
0.000174586
0.000172891
0.000171152
0.000169318
0.00016732
0.000165077
0.000162504
0.000159516
0.000156298
0.00015301
0.000149769
0.000146638
0.000143608
0.000140595
0.000137446
0.000133942
0.000129806
0.000124725
0.000118387
0.000110514
0.000100955
9.00787e-05
7.9453e-05
7.16816e-05
6.87252e-05
7.04459e-05
7.4632e-05
8.01984e-05
9.41247e-05
0.000122957
0.000167321
0.00021941
0.000269562
0.000312001
0.000345345
0.000370462
0.000388732
0.000401356
0.000409228
0.000413002
0.000413978
0.000412812
0.000409966
0.000405822
0.000400667
0.000394674
0.000387638
0.000379219
0.000369413
0.000358046
0.000345009
0.000330526
0.000315065
0.00029922
0.000283585
0.000268658
0.000254796
0.000242208
0.000230976
0.000221057
0.000212239
0.000203943
0.000194804
0.000182308
0.000165666
0.000145915
0.000125137
0.000105992
9.174e-05
8.4762e-05
8.46258e-05
8.77294e-05
8.82702e-05
8.28689e-05
7.62806e-05
7.64501e-05
1.37229e-05
1.58442e-05
2.4367e-05
3.75184e-05
4.82547e-05
5.33655e-05
5.40732e-05
5.24736e-05
5.00646e-05
4.76871e-05
4.57513e-05
4.44167e-05
4.36478e-05
4.32382e-05
4.27758e-05
4.17717e-05
3.98268e-05
3.68709e-05
3.33026e-05
2.9949e-05
2.78225e-05
2.80146e-05
3.18161e-05
4.05207e-05
5.3088e-05
6.45781e-05
6.77291e-05
6.17473e-05
5.4024e-05
4.83872e-05
4.53174e-05
4.44606e-05
4.57401e-05
4.92347e-05
5.51568e-05
6.37603e-05
7.52088e-05
8.94779e-05
0.000106195
0.000124484
0.000143031
0.000160451
0.000175722
0.000188416
0.000198631
0.000206774
0.000213334
0.000218739
0.000223298
0.000227201
0.00023054
0.000233339
0.000235573
0.000237186
0.000238108
0.000237977
0.000236804
0.000234553
0.000231213
0.000226808
0.000221404
0.000215113
0.000208092
0.000200537
0.000192685
0.000184799
0.000177161
0.000170061
0.000163776
0.000158561
0.000154629
0.000152131
0.000151141
0.000151645
0.000153541
0.000156653
0.000160737
0.000165505
0.00017064
0.000175825
0.000180773
0.000185255
0.000189099
0.000192208
0.000194532
0.000195959
0.000196696
0.000197025
0.00019705
0.00019684
0.000196447
0.00019591
0.000195259
0.000194516
0.000193701
0.000192828
0.000191912
0.000190963
0.000189994
0.000189014
0.000188031
0.000187054
0.000186088
0.000185135
0.000184193
0.000183256
0.000182308
0.000181322
0.000180262
0.000179082
0.000177734
0.000176172
0.000174342
0.000172323
0.000170171
0.000167908
0.00016551
0.000162891
0.000159876
0.000156177
0.000151371
0.000144903
0.000136186
0.000124851
0.0001112
9.67995e-05
8.45258e-05
7.71839e-05
7.56664e-05
7.83603e-05
8.25893e-05
8.99252e-05
0.000111279
0.000152409
0.000207498
0.000265153
0.000316191
0.000357179
0.00038834
0.000411122
0.000426919
0.000436758
0.00044138
0.000441306
0.000437908
0.000431883
0.000423876
0.000414424
0.00040397
0.000393091
0.00038154
0.000369878
0.000357613
0.000344471
0.000330378
0.000315489
0.000300167
0.000284896
0.000270174
0.000256424
0.000243945
0.000232905
0.000223354
0.00021525
0.000208462
0.000202689
0.000197288
0.000190945
0.000181954
0.000169568
0.000153636
0.00013469
0.000115186
9.98305e-05
9.24709e-05
9.2828e-05
9.56873e-05
9.41177e-05
8.87335e-05
8.76162e-05
1.52636e-05
1.82599e-05
3.61787e-05
5.35193e-05
6.02649e-05
5.98106e-05
5.63409e-05
5.21781e-05
4.84199e-05
4.54768e-05
4.34783e-05
4.24849e-05
4.24001e-05
4.27664e-05
4.2782e-05
4.19252e-05
3.9967e-05
3.69282e-05
3.32918e-05
3.04409e-05
2.98812e-05
3.27777e-05
4.00343e-05
5.05949e-05
6.03767e-05
6.40621e-05
5.98958e-05
5.32553e-05
4.84532e-05
4.63478e-05
4.68417e-05
4.98217e-05
5.54272e-05
6.38785e-05
7.5377e-05
8.99311e-05
0.000107177
0.000126294
0.000146067
0.000165154
0.000182465
0.000197424
0.000209986
0.000220461
0.000229298
0.00023693
0.000243691
0.000249801
0.000255378
0.000260459
0.000265022
0.000269004
0.000272312
0.000274839
0.0002762
0.000276324
0.000275135
0.000272558
0.000268544
0.000263085
0.000256216
0.000248021
0.000238636
0.00022825
0.000217108
0.000205506
0.000193791
0.000182354
0.000171606
0.000161955
0.000153769
0.000147343
0.000142868
0.000140409
0.000139911
0.000141215
0.000144087
0.000148222
0.000153263
0.000158825
0.000164511
0.000169999
0.000174996
0.000179332
0.000182848
0.000185455
0.000187505
0.000189119
0.000190383
0.000191356
0.000192087
0.00019261
0.000192954
0.00019314
0.000193188
0.000193116
0.000192941
0.00019268
0.000192349
0.000191965
0.000191542
0.000191095
0.000190637
0.000190179
0.000189725
0.00018928
0.000188837
0.000188385
0.000187903
0.000187365
0.000186739
0.000185992
0.00018509
0.000183992
0.000182719
0.000181252
0.000179531
0.000177432
0.00017473
0.000171051
0.000165828
0.000158314
0.00014775
0.000133833
0.000117455
0.000101217
8.86574e-05
8.22265e-05
8.1779e-05
8.48124e-05
8.92397e-05
9.93383e-05
0.000127111
0.000176463
0.000238425
0.000298311
0.000348532
0.000387901
0.000417318
0.000438363
0.000452279
0.000459856
0.000461631
0.000458148
0.000450803
0.000440337
0.000427635
0.000413412
0.000398083
0.000382871
0.000368003
0.000353441
0.000338967
0.000324383
0.00030959
0.000294647
0.000279776
0.000265318
0.000251656
0.000239133
0.00022799
0.000218351
0.000210235
0.000203584
0.000198286
0.000194151
0.000190837
0.000187712
0.000183633
0.00017734
0.000167885
0.000154312
0.000136472
0.00011733
0.000102924
9.76087e-05
9.9509e-05
0.000101166
9.87659e-05
9.74313e-05
1.57334e-05
2.38779e-05
5.13418e-05
6.44893e-05
6.49147e-05
6.0564e-05
5.51727e-05
5.0324e-05
4.65303e-05
4.37821e-05
4.20196e-05
4.13524e-05
4.16804e-05
4.1524e-05
4.08144e-05
3.93934e-05
3.7273e-05
3.47958e-05
3.27307e-05
3.22464e-05
3.44506e-05
3.98879e-05
4.78302e-05
5.55792e-05
5.91359e-05
5.68835e-05
5.19771e-05
4.83053e-05
4.73903e-05
4.92802e-05
5.39444e-05
6.15009e-05
7.21739e-05
8.60679e-05
0.000102986
0.000122275
0.000142847
0.000163402
0.000182769
0.000200177
0.000215352
0.000228431
0.000239772
0.000249789
0.000258843
0.000267202
0.00027503
0.000282405
0.000289338
0.00029578
0.000301642
0.000306804
0.000311124
0.000314453
0.000316332
0.000316789
0.000315731
0.000313061
0.000308708
0.000302636
0.000294857
0.00028543
0.000274465
0.000262118
0.000248593
0.000234141
0.000219074
0.000203788
0.000188766
0.000174568
0.000161776
0.000150916
0.000142371
0.000136328
0.000132774
0.000131572
0.000132499
0.000135275
0.000139538
0.00014487
0.000150776
0.00015685
0.000162639
0.000167865
0.000172214
0.000175942
0.000179148
0.000181909
0.000184287
0.000186332
0.000188083
0.000189567
0.000190807
0.000191823
0.000192633
0.000193255
0.000193708
0.000194012
0.000194189
0.000194258
0.000194242
0.000194162
0.000194036
0.000193882
0.000193714
0.000193542
0.000193372
0.000193203
0.000193026
0.000192827
0.000192587
0.000192282
0.000191885
0.000191357
0.000190666
0.000189768
0.000188569
0.000186904
0.000184492
0.000180874
0.000175364
0.000167078
0.000155184
0.000139546
0.000121617
0.000104684
9.24795e-05
8.69438e-05
8.71625e-05
9.03098e-05
9.53404e-05
0.00010839
0.000140931
0.000194651
0.000258298
0.000318142
0.000367899
0.000406746
0.000435294
0.000455248
0.000467887
0.000473783
0.000473246
0.000466911
0.000456248
0.000441938
0.000425148
0.00040694
0.000388102
0.00036954
0.000351696
0.000334714
0.000318541
0.00030303
0.00028803
0.000273459
0.000259368
0.000245935
0.000233425
0.000222104
0.000212171
0.000203725
0.000196766
0.000191221
0.000186976
0.000183876
0.000181702
0.000180114
0.000178581
0.000176087
0.000171573
0.000163723
0.000150933
0.000133134
0.000114868
0.0001035
0.000101827
0.000104593
0.000105421
0.000105234
1.5608e-05
3.26282e-05
6.21046e-05
6.89369e-05
6.56597e-05
5.96932e-05
5.39211e-05
4.93041e-05
4.59012e-05
4.34231e-05
4.16513e-05
4.04529e-05
3.95656e-05
3.87494e-05
3.78084e-05
3.66161e-05
3.53582e-05
3.4468e-05
3.46163e-05
3.6517e-05
4.05193e-05
4.61327e-05
5.16288e-05
5.44937e-05
5.35755e-05
5.05137e-05
4.81408e-05
4.83082e-05
5.14859e-05
5.76323e-05
6.68365e-05
7.92546e-05
9.49048e-05
0.000113425
0.000133986
0.000155401
0.000176426
0.000196075
0.000213799
0.000229481
0.00024332
0.000255664
0.000266881
0.000277285
0.000287101
0.00029647
0.000305449
0.000314035
0.000322169
0.000329748
0.000336638
0.000342676
0.000347685
0.000351476
0.000353669
0.000354312
0.000353307
0.000350544
0.000345933
0.000339421
0.000330999
0.000320716
0.000308678
0.000295045
0.000280011
0.00026379
0.000246609
0.000228744
0.000210576
0.000192648
0.000175674
0.000160454
0.000147701
0.000137842
0.000130948
0.000126886
0.000125441
0.000126379
0.000129357
0.000133979
0.00013966
0.000145948
0.000152104
0.000157798
0.000163003
0.000167709
0.000171941
0.000175738
0.000179142
0.000182185
0.000184891
0.000187279
0.000189363
0.000191157
0.000192676
0.000193938
0.000194961
0.000195769
0.000196385
0.000196834
0.000197141
0.000197333
0.000197435
0.000197471
0.00019746
0.000197423
0.000197371
0.000197313
0.000197252
0.000197184
0.000197101
0.000196988
0.000196825
0.00019658
0.000196206
0.00019564
0.000194766
0.000193385
0.000191167
0.000187587
0.000181869
0.000173042
0.000160269
0.000143611
0.000124942
0.000107928
9.62496e-05
9.13983e-05
9.19936e-05
9.52515e-05
0.000101099
0.00011646
0.000151411
0.000206113
0.000269081
0.000327926
0.000376902
0.000415071
0.000443246
0.000462859
0.000474874
0.000479699
0.000477466
0.000468953
0.000455693
0.000438655
0.000418963
0.000397733
0.000375999
0.000354717
0.000334538
0.000315805
0.0002986
0.000282802
0.000268161
0.000254419
0.000241424
0.000229193
0.000217883
0.000207709
0.000198855
0.00019142
0.000185404
0.000180733
0.000177283
0.0001749
0.000173396
0.000172541
0.000172059
0.000171506
0.000170005
0.000166369
0.000158726
0.000145089
0.000126781
0.00011095
0.000104397
0.000105793
0.000108678
0.000110369
1.51508e-05
4.0646e-05
6.70044e-05
7.03542e-05
6.54706e-05
5.90861e-05
5.35245e-05
4.92943e-05
4.61855e-05
4.37917e-05
4.1834e-05
4.02149e-05
3.89078e-05
3.78829e-05
3.70547e-05
3.64716e-05
3.63316e-05
3.69508e-05
3.86626e-05
4.15926e-05
4.53539e-05
4.88886e-05
5.08684e-05
5.07071e-05
4.92229e-05
4.81867e-05
4.92999e-05
5.34403e-05
6.07412e-05
7.11753e-05
8.48023e-05
0.000101551
0.000120982
0.000142208
0.000164059
0.000185388
0.000205347
0.000223501
0.000239796
0.000254432
0.000267727
0.000280015
0.00029158
0.000302632
0.000313296
0.000323625
0.000333602
0.000343159
0.000352183
0.000360528
0.000368028
0.000374503
0.00037977
0.00038349
0.000385595
0.000386084
0.000384869
0.000381842
0.000376907
0.000369986
0.000361039
0.000350087
0.000337221
0.000322612
0.000306491
0.000289107
0.000270684
0.000251412
0.000231503
0.000211301
0.000191396
0.000172684
0.000156211
0.000142808
0.000132703
0.000125795
0.000121874
0.000120783
0.00012222
0.000125832
0.000130997
0.000136934
0.000143173
0.00014935
0.000155256
0.000160791
0.000165925
0.000170661
0.000175011
0.000178987
0.000182595
0.000185839
0.000188724
0.000191258
0.000193451
0.000195318
0.000196879
0.000198156
0.000199175
0.000199965
0.000200556
0.000200976
0.000201257
0.000201425
0.000201509
0.000201532
0.000201514
0.000201473
0.000201419
0.000201359
0.000201292
0.000201214
0.000201109
0.000200953
0.0002007
0.000200278
0.000199557
0.000198316
0.000196191
0.00019261
0.00018674
0.000177567
0.000164282
0.000147107
0.00012818
0.000111323
0.000100085
9.56558e-05
9.64393e-05
9.98472e-05
0.000106435
0.000123034
0.000158122
0.00021124
0.000271935
0.000329103
0.000377161
0.000414892
0.000442949
0.000462444
0.000474132
0.000478333
0.000475085
0.000465242
0.000450277
0.000431309
0.000409485
0.000386014
0.000362103
0.000338856
0.000317124
0.000297434
0.000279975
0.000264593
0.000250889
0.000238389
0.000226734
0.000215794
0.000205654
0.000196518
0.000188594
0.000182011
0.000176792
0.000172871
0.000170115
0.000168351
0.000167378
0.000166983
0.000166961
0.000167165
0.000167141
0.00016603
0.000162225
0.000153196
0.000137545
0.000119757
0.000108388
0.000106413
0.000109366
0.000112637
1.45435e-05
4.57331e-05
7.04369e-05
7.16171e-05
6.55987e-05
5.89266e-05
5.35293e-05
4.9574e-05
4.67038e-05
4.4497e-05
4.26784e-05
4.1175e-05
3.99636e-05
3.90957e-05
3.86485e-05
3.87048e-05
3.93729e-05
4.07336e-05
4.27315e-05
4.50572e-05
4.71473e-05
4.84274e-05
4.87047e-05
4.84269e-05
4.86306e-05
5.06051e-05
5.53872e-05
6.3396e-05
7.46055e-05
8.89211e-05
0.000106188
0.00012595
0.00014736
0.000169332
0.000190822
0.000211067
0.000229676
0.00024659
0.000261979
0.000276123
0.000289327
0.00030186
0.000313928
0.000325658
0.000337104
0.000348247
0.000359011
0.000369268
0.000378849
0.000387563
0.000395207
0.000401584
0.000406519
0.000409641
0.000411116
0.000410951
0.000409093
0.000405469
0.000399994
0.00039258
0.000383155
0.000371687
0.000358217
0.000342887
0.000325939
0.000307683
0.000288413
0.000268335
0.000247599
0.000226377
0.000204977
0.00018413
0.000164984
0.000148851
0.000136115
0.000126751
0.000120576
0.000117556
0.000117468
0.000119847
0.00012414
0.000129713
0.000135983
0.000142495
0.000148952
0.000155186
0.000161114
0.000166699
0.000171921
0.000176763
0.000181215
0.000185264
0.000188903
0.000192132
0.000194957
0.000197391
0.000199452
0.000201165
0.000202558
0.000203661
0.000204508
0.000205131
0.000205564
0.00020584
0.00020599
0.000206042
0.000206023
0.000205956
0.000205858
0.000205745
0.000205623
0.000205493
0.000205349
0.00020517
0.000204916
0.000204511
0.000203819
0.000202609
0.000200497
0.000196886
0.000190916
0.00018156
0.000168043
0.000150687
0.000131747
0.000115059