/*--------------------------------*- C++ -*----------------------------------*\
  =========                 |
  \\      /  F ield         | OpenFOAM: The Open Source CFD Toolbox
   \\    /   O peration     | Website:  https://openfoam.org
    \\  /    A nd           | Version:  9
     \\/     M anipulation  |
\*---------------------------------------------------------------------------*/
FoamFile
{
    format      ascii;
    class       surfaceScalarField;
    location    "0.17";
    object      phi;
}
// * * * * * * * * * * * * * * * * * * * * * * * * * * * * * * * * * * * * * //

dimensions      [0 3 -1 0 0 0 0];

internalField   nonuniform List<scalar> 
24170
(
3.07002e-06
1.18389e-07
2.92606e-06
1.43961e-07
2.79042e-06
1.35635e-07
2.66176e-06
1.28659e-07
2.53789e-06
1.23873e-07
2.41995e-06
1.17942e-07
2.30775e-06
1.122e-07
2.19989e-06
1.07862e-07
2.09449e-06
1.054e-07
1.98939e-06
1.05092e-07
1.88217e-06
1.07221e-07
1.77013e-06
1.12043e-07
1.6504e-06
1.1973e-07
1.52013e-06
1.3027e-07
1.37686e-06
1.43273e-07
1.21882e-06
1.58037e-07
1.04606e-06
1.72764e-07
1.8732e-07
8.58735e-07
3.48007e-06
5.55637e-08
3.51302e-06
1.11018e-07
3.53063e-06
1.18017e-07
3.53313e-06
1.26168e-07
3.52289e-06
1.34109e-07
3.50203e-06
1.38798e-07
3.47209e-06
1.42147e-07
3.43398e-06
1.45964e-07
3.38818e-06
1.51208e-07
3.33462e-06
1.5865e-07
3.27271e-06
1.69129e-07
3.20123e-06
1.83528e-07
3.11823e-06
2.02726e-07
3.02099e-06
2.27512e-07
2.90592e-06
2.58339e-07
2.76859e-06
2.95372e-07
2.60393e-06
3.37423e-07
3.87e-07
2.40425e-06
3.67465e-06
4.34287e-08
3.68926e-06
9.64066e-08
3.70137e-06
1.05906e-07
3.71215e-06
1.15388e-07
3.72048e-06
1.25785e-07
3.72532e-06
1.33956e-07
3.72637e-06
1.41099e-07
3.72345e-06
1.4888e-07
3.71637e-06
1.58285e-07
3.7049e-06
1.70121e-07
3.68872e-06
1.85312e-07
3.66735e-06
2.04903e-07
3.64003e-06
2.30037e-07
3.60565e-06
2.61896e-07
3.56236e-06
3.0163e-07
3.5076e-06
3.50129e-07
3.437e-06
4.0803e-07
4.73459e-07
3.35054e-06
3.93072e-06
3.81007e-08
3.93919e-06
8.79298e-08
3.94236e-06
1.02741e-07
3.94402e-06
1.13729e-07
3.94433e-06
1.25472e-07
3.94272e-06
1.35564e-07
3.93912e-06
1.44701e-07
3.9335e-06
1.54503e-07
3.92575e-06
1.66031e-07
3.91581e-06
1.80062e-07
3.90368e-06
1.97439e-07
3.88948e-06
2.19111e-07
3.8734e-06
2.46108e-07
3.85581e-06
2.79492e-07
3.83708e-06
3.20357e-07
3.81766e-06
3.69549e-07
3.79785e-06
4.27839e-07
4.93935e-07
3.77738e-06
4.21154e-06
3.36875e-08
4.21812e-06
8.13522e-08
4.21943e-06
1.01424e-07
4.21845e-06
1.14717e-07
4.2158e-06
1.2812e-07
4.21103e-06
1.40331e-07
4.20405e-06
1.51684e-07
4.19486e-06
1.63694e-07
4.1834e-06
1.77485e-07
4.16964e-06
1.93824e-07
4.15361e-06
2.13471e-07
4.13547e-06
2.37249e-07
4.11558e-06
2.66004e-07
4.09453e-06
3.00536e-07
4.07334e-06
3.41551e-07
4.05339e-06
3.89499e-07
4.03687e-06
4.44356e-07
5.05979e-07
4.02483e-06
4.51262e-06
3.0153e-08
4.51782e-06
7.61543e-08
4.51898e-06
1.00258e-07
4.51753e-06
1.16167e-07
4.51421e-06
1.31443e-07
4.50865e-06
1.45889e-07
4.50069e-06
1.59642e-07
4.49035e-06
1.74042e-07
4.4776e-06
1.90236e-07
4.46243e-06
2.08994e-07
4.44488e-06
2.31015e-07
4.42511e-06
2.57017e-07
4.40342e-06
2.87694e-07
4.38032e-06
3.23638e-07
4.35662e-06
3.65251e-07
4.33345e-06
4.12673e-07
4.31241e-06
4.65393e-07
5.23128e-07
4.29526e-06
4.83536e-06
2.75131e-08
4.8395e-06
7.20185e-08
4.84064e-06
9.9118e-08
4.83903e-06
1.17769e-07
4.83542e-06
1.35056e-07
4.82959e-06
1.51717e-07
4.82135e-06
1.6788e-07
4.81071e-06
1.84686e-07
4.79769e-06
2.03259e-07
4.78231e-06
2.24368e-07
4.76468e-06
2.48646e-07
4.74499e-06
2.76709e-07
4.72358e-06
3.09107e-07
4.70096e-06
3.46254e-07
4.67787e-06
3.88338e-07
4.65526e-06
4.35286e-07
4.63424e-06
4.86418e-07
5.41176e-07
4.61619e-06
5.1815e-06
2.55896e-08
5.18475e-06
6.87742e-08
5.18571e-06
9.81593e-08
5.18397e-06
1.19505e-07
5.18016e-06
1.38869e-07
5.17421e-06
1.57665e-07
5.16593e-06
1.7616e-07
5.15531e-06
1.9531e-07
5.1424e-06
2.16168e-07
5.12729e-06
2.3948e-07
5.11012e-06
2.65813e-07
5.09116e-06
2.9567e-07
5.07081e-06
3.29459e-07
5.04963e-06
3.67434e-07
5.02835e-06
4.09613e-07
5.00788e-06
4.55761e-07
4.98914e-06
5.05157e-07
5.5719e-07
4.97312e-06
5.55272e-06
2.42076e-08
5.55517e-06
6.63216e-08
5.55586e-06
9.74744e-08
5.55404e-06
1.21323e-07
5.55014e-06
1.42766e-07
5.5442e-06
1.63609e-07
5.53604e-06
1.84319e-07
5.52565e-06
2.05702e-07
5.51311e-06
2.28702e-07
5.49857e-06
2.5402e-07
5.48223e-06
2.82153e-07
5.46441e-06
3.1349e-07
5.44556e-06
3.48308e-07
5.42628e-06
3.86715e-07
5.4073e-06
4.28596e-07
5.38946e-06
4.73605e-07
5.3736e-06
5.21018e-07
5.7026e-07
5.36052e-06
5.95075e-06
2.32364e-08
5.95252e-06
6.45476e-08
5.95293e-06
9.70691e-08
5.9511e-06
1.23149e-07
5.94725e-06
1.46617e-07
5.94145e-06
1.6941e-07
5.93359e-06
1.92181e-07
5.92366e-06
2.15632e-07
5.91178e-06
2.4058e-07
5.89814e-06
2.6766e-07
5.883e-06
2.97294e-07
5.86672e-06
3.29766e-07
5.8498e-06
3.6523e-07
5.83284e-06
4.03675e-07
5.81655e-06
4.44881e-07
5.80172e-06
4.88438e-07
5.7891e-06
5.33634e-07
5.79954e-07
5.77941e-06
6.37748e-06
2.25727e-08
6.37871e-06
6.3317e-08
6.37888e-06
9.6896e-08
6.37713e-06
1.24903e-07
6.37347e-06
1.50276e-07
6.36799e-06
1.74888e-07
6.36064e-06
1.99526e-07
6.35145e-06
2.24827e-07
6.34055e-06
2.51479e-07
6.32818e-06
2.80033e-07
6.31464e-06
3.10833e-07
6.30034e-06
3.44066e-07
6.28579e-06
3.79781e-07
6.27159e-06
4.17868e-07
6.25844e-06
4.58036e-07
6.24704e-06
4.9984e-07
6.23808e-06
5.42594e-07
5.85852e-07
6.23218e-06
5.74123e-06
2.21786e-08
5.74196e-06
6.25875e-08
5.74199e-06
9.68643e-08
5.74064e-06
1.26248e-07
5.73783e-06
1.53086e-07
5.73362e-06
1.791e-07
5.72801e-06
2.05136e-07
5.72105e-06
2.31793e-07
5.71286e-06
2.5966e-07
5.70369e-06
2.89206e-07
5.69382e-06
3.20708e-07
5.6836e-06
3.54281e-07
5.67349e-06
3.89895e-07
5.66398e-06
4.27377e-07
5.65562e-06
4.66395e-07
5.64897e-06
5.06493e-07
5.64454e-06
5.47016e-07
5.8758e-07
5.64282e-06
6.99848e-06
2.18539e-08
6.99909e-06
6.1978e-08
6.99909e-06
9.68671e-08
6.99779e-06
1.2754e-07
6.99505e-06
1.55831e-07
6.9909e-06
1.8325e-07
6.98539e-06
2.1065e-07
6.97859e-06
2.38589e-07
6.9707e-06
2.67554e-07
6.96198e-06
2.97919e-07
6.95281e-06
3.29884e-07
6.9436e-06
3.63488e-07
6.93487e-06
3.98632e-07
6.92715e-06
4.3509e-07
6.92105e-06
4.72499e-07
6.91713e-06
5.10409e-07
6.91594e-06
5.48206e-07
5.85574e-07
6.91795e-06
8.53113e-06
2.15737e-08
8.5317e-06
6.14033e-08
8.53183e-06
9.67392e-08
8.53088e-06
1.28491e-07
8.52863e-06
1.58082e-07
8.5251e-06
1.86773e-07
8.52039e-06
2.15365e-07
8.51461e-06
2.44364e-07
8.50801e-06
2.74153e-07
8.50093e-06
3.05003e-07
8.49378e-06
3.3703e-07
8.48707e-06
3.70203e-07
8.48134e-06
4.04366e-07
8.47718e-06
4.39249e-07
8.47519e-06
4.74484e-07
8.47596e-06
5.0964e-07
8.48001e-06
5.44155e-07
5.77795e-07
8.48779e-06
1.03995e-05
2.1266e-08
1.04003e-05
6.06401e-08
1.04009e-05
9.6115e-08
1.04008e-05
1.2856e-07
1.03998e-05
1.59092e-07
1.03979e-05
1.88717e-07
1.03951e-05
2.18127e-07
1.03917e-05
2.47755e-07
1.0388e-05
2.77884e-07
1.03843e-05
3.08681e-07
1.03812e-05
3.40179e-07
1.03791e-05
3.72288e-07
1.03787e-05
4.04807e-07
1.03805e-05
4.3745e-07
1.03851e-05
4.69857e-07
1.03931e-05
5.01638e-07
1.04049e-05
5.32296e-07
5.61695e-07
1.0421e-05
1.26773e-05
2.07834e-08
1.26787e-05
5.92539e-08
1.26805e-05
9.43117e-08
1.26822e-05
1.26809e-07
1.26837e-05
1.57639e-07
1.26848e-05
1.8757e-07
1.26858e-05
2.17147e-07
1.26868e-05
2.46708e-07
1.26883e-05
2.76441e-07
1.26905e-05
3.06415e-07
1.26941e-05
3.36594e-07
1.26996e-05
3.66838e-07
1.27075e-05
3.96927e-07
1.27183e-05
4.2658e-07
1.27327e-05
4.55469e-07
1.27511e-05
4.83262e-07
1.27739e-05
5.09544e-07
5.34272e-07
1.28013e-05
1.54541e-05
1.98703e-08
1.54568e-05
5.65098e-08
1.5461e-05
9.01854e-08
1.54661e-05
1.21718e-07
1.54719e-05
1.51828e-07
1.54784e-05
1.81069e-07
1.54857e-05
2.09824e-07
1.54941e-05
2.38318e-07
1.55039e-05
2.66646e-07
1.55155e-05
2.94802e-07
1.55294e-05
3.22693e-07
1.55461e-05
3.50155e-07
1.5566e-05
3.76968e-07
1.55897e-05
4.02879e-07
1.56176e-05
4.27614e-07
1.56499e-05
4.50913e-07
1.5687e-05
4.72452e-07
4.92273e-07
1.5729e-05
1.88394e-05
1.81072e-08
1.88446e-05
5.1271e-08
1.88528e-05
8.19902e-08
1.88635e-05
1.11023e-07
1.88764e-05
1.3893e-07
1.88914e-05
1.66066e-07
1.89086e-05
1.92641e-07
1.89282e-05
2.18762e-07
1.89504e-05
2.4444e-07
1.89756e-05
2.69611e-07
1.90041e-05
2.94147e-07
1.90364e-05
3.1788e-07
1.90727e-05
3.40615e-07
1.91135e-05
3.62144e-07
1.91588e-05
3.82257e-07
1.9209e-05
4.00772e-07
1.9264e-05
4.1746e-07
4.32424e-07
1.93238e-05
2.29667e-05
1.47439e-08
2.29762e-05
4.17725e-08
2.29911e-05
6.71136e-08
2.30106e-05
9.14655e-08
2.30344e-05
1.1519e-07
2.3062e-05
1.38401e-07
2.30936e-05
1.61122e-07
2.3129e-05
1.83341e-07
2.31684e-05
2.05001e-07
2.3212e-05
2.25988e-07
2.326e-05
2.46158e-07
2.33126e-05
2.65351e-07
2.33698e-05
2.83408e-07
2.34317e-05
3.00174e-07
2.34985e-05
3.15506e-07
2.357e-05
3.29291e-07
2.3646e-05
3.41387e-07
3.5192e-07
2.37265e-05
1.6814e-05
1.1439e-08
1.68232e-05
3.26016e-08
1.68374e-05
5.28876e-08
1.68559e-05
7.29541e-08
1.68782e-05
9.29348e-08
1.69039e-05
1.1269e-07
1.69329e-05
1.32101e-07
1.69652e-05
1.51096e-07
1.70006e-05
1.69581e-07
1.70391e-05
1.87414e-07
1.70809e-05
2.04436e-07
1.71257e-05
2.20495e-07
1.71737e-05
2.35453e-07
1.72247e-05
2.49188e-07
1.72786e-05
2.61592e-07
1.73353e-05
2.72593e-07
1.73946e-05
2.82098e-07
2.90233e-07
1.74563e-05
1.4638e-05
7.98256e-09
1.46477e-05
2.29669e-08
1.46624e-05
3.81309e-08
1.46813e-05
5.40467e-08
1.47038e-05
7.04839e-08
1.47295e-05
8.69959e-08
1.47582e-05
1.03348e-07
1.47899e-05
1.1943e-07
1.48244e-05
1.35114e-07
1.48615e-05
1.50231e-07
1.49014e-05
1.64611e-07
1.49437e-05
1.7811e-07
1.49886e-05
1.90608e-07
1.50358e-05
2.02006e-07
1.50851e-05
2.12219e-07
1.51366e-05
2.21192e-07
1.51898e-05
2.28855e-07
2.35311e-07
1.52447e-05
1.27437e-05
4.39664e-09
1.27537e-05
1.30262e-08
1.27685e-05
2.32641e-08
1.27871e-05
3.54868e-08
1.28088e-05
4.87647e-08
1.28335e-05
6.2337e-08
1.28608e-05
7.59643e-08
1.28908e-05
8.95244e-08
1.2923e-05
1.0284e-07
1.29576e-05
1.15697e-07
1.29943e-05
1.27907e-07
1.3033e-05
1.39335e-07
1.30738e-05
1.49877e-07
1.31163e-05
1.59454e-07
1.31605e-05
1.68002e-07
1.32062e-05
1.75483e-07
1.32532e-05
1.81857e-07
1.87228e-07
1.33013e-05
1.10947e-05
6.65618e-10
1.11049e-05
2.78043e-09
1.11197e-05
8.47059e-09
1.11375e-05
1.77315e-08
1.11579e-05
2.83563e-08
1.11809e-05
3.93437e-08
1.12063e-05
5.05341e-08
1.12339e-05
6.19066e-08
1.12635e-05
7.32122e-08
1.12951e-05
8.41773e-08
1.13284e-05
9.46054e-08
1.13633e-05
1.04362e-07
1.13999e-05
1.13352e-07
1.14378e-05
1.21506e-07
1.1477e-05
1.28776e-07
1.15174e-05
1.35131e-07
1.15587e-05
1.40526e-07
1.45017e-07
1.16009e-05
9.65917e-06
-3.28737e-09
9.66975e-06
-7.79955e-09
9.68428e-06
-6.06482e-09
9.70108e-06
9.31619e-10
9.72007e-06
9.36956e-09
9.74109e-06
1.8327e-08
9.76418e-06
2.74418e-08
9.7891e-06
3.69838e-08
9.81569e-06
4.66199e-08
9.84388e-06
5.599e-08
9.87359e-06
6.49001e-08
9.90469e-06
7.32542e-08
9.93708e-06
8.09673e-08
9.97061e-06
8.79714e-08
1.00052e-05
9.42284e-08
1.00406e-05
9.97146e-08
1.00767e-05
1.04415e-07
1.08425e-07
1.01133e-05
8.4098e-06
-7.73769e-09
8.42096e-06
-1.896e-08
8.43456e-06
-1.96634e-08
8.45014e-06
-1.46424e-08
8.46786e-06
-8.34992e-09
8.48721e-06
-1.03091e-09
8.50824e-06
6.41974e-09
8.53075e-06
1.4465e-08
8.55457e-06
2.28007e-08
8.57961e-06
3.09537e-08
8.60587e-06
3.86355e-08
8.6333e-06
4.58322e-08
8.66178e-06
5.24854e-08
8.69119e-06
5.85567e-08
8.72141e-06
6.40083e-08
8.75232e-06
6.88035e-08
8.78383e-06
7.29109e-08
7.63478e-08
8.8159e-06
7.3221e-06
-1.25578e-08
7.33498e-06
-3.18316e-08
7.3474e-06
-3.20861e-08
7.36074e-06
-2.79817e-08
7.37626e-06
-2.38674e-08
7.39384e-06
-1.86154e-08
7.41263e-06
-1.23667e-08
7.43286e-06
-5.76503e-09
7.45434e-06
1.31339e-09
7.47681e-06
8.49043e-09
7.50024e-06
1.52048e-08
7.52458e-06
2.14855e-08
7.54983e-06
2.72419e-08
7.57582e-06
3.25604e-08
7.60245e-06
3.73864e-08
7.6296e-06
4.16519e-08
7.65714e-06
4.53652e-08
4.86076e-08
7.68488e-06
6.37395e-06
-1.64467e-08
6.38909e-06
-4.69632e-08
6.40225e-06
-4.52505e-08
6.41545e-06
-4.11854e-08
6.43045e-06
-3.88606e-08
6.44677e-06
-3.49379e-08
6.46405e-06
-2.96467e-08
6.48223e-06
-2.39459e-08
6.50149e-06
-1.79458e-08
6.52183e-06
-1.18506e-08
6.54292e-06
-5.88286e-09
6.56465e-06
-2.4231e-10
6.58707e-06
4.81462e-09
6.61005e-06
9.58143e-09
6.63348e-06
1.39597e-08
6.65729e-06
1.78391e-08
6.68138e-06
2.12816e-08
2.42176e-08
6.70577e-06
5.55107e-06
-2.20476e-08
5.56644e-06
-6.23421e-08
5.58331e-06
-6.21117e-08
5.60132e-06
-5.91976e-08
5.62058e-06
-5.81223e-08
5.64002e-06
-5.4383e-08
5.65923e-06
-4.8857e-08
5.67822e-06
-4.29278e-08
5.69712e-06
-3.68524e-08
5.71599e-06
-3.07223e-08
5.73485e-06
-2.47382e-08
5.75371e-06
-1.91055e-08
5.77247e-06
-1.3943e-08
5.79119e-06
-9.14121e-09
5.80992e-06
-4.76277e-09
5.82876e-06
-1.00715e-09
5.84771e-06
2.33264e-09
5.0782e-09
5.86685e-06
4.87927e-06
-7.37118e-08
4.91219e-06
-9.52596e-08
4.93954e-06
-8.94645e-08
4.96065e-06
-8.03032e-08
4.97651e-06
-7.39886e-08
4.98838e-06
-6.62458e-08
4.99718e-06
-5.76571e-08
5.00367e-06
-4.94208e-08
5.00858e-06
-4.17626e-08
5.01253e-06
-3.46678e-08
5.01599e-06
-2.81978e-08
5.01929e-06
-2.24121e-08
5.02265e-06
-1.7302e-08
5.02628e-06
-1.27749e-08
5.03034e-06
-8.81721e-09
5.03481e-06
-5.47757e-09
5.03983e-06
-2.69104e-09
-1.11771e-09
5.04603e-06
4.12896e-06
4.0337e-06
3.94424e-06
3.86394e-06
3.78995e-06
3.7237e-06
3.66605e-06
3.61662e-06
3.57486e-06
3.54019e-06
3.512e-06
3.48958e-06
3.47228e-06
3.45951e-06
3.45069e-06
3.44521e-06
3.44252e-06
3.4414e-06
-6.24526e-07
6.24526e-07
-1.16373e-06
5.39204e-07
-1.33631e-06
1.72584e-07
-9.27899e-07
-4.08416e-07
3.37084e-08
-9.61607e-07
1.30107e-06
-1.26737e-06
2.65128e-06
-1.35021e-06
3.91666e-06
-1.26538e-06
5.01132e-06
-1.09465e-06
5.89789e-06
-8.86575e-07
6.56235e-06
-6.64463e-07
6.99983e-06
-4.37477e-07
7.20719e-06
-2.07355e-07
7.17951e-06
2.76733e-08
6.88691e-06
2.92603e-07
6.34643e-06
5.4048e-07
5.57952e-06
7.66913e-07
4.62503e-06
9.54483e-07
3.54602e-06
1.07901e-06
2.4332e-06
1.11282e-06
1.4041e-06
1.02911e-06
5.84477e-07
8.19619e-07
6.08211e-09
5.78395e-07
-3.74082e-07
3.80164e-07
-5.44005e-07
1.69923e-07
-5.03837e-07
-4.01688e-08
-2.80638e-07
-2.23199e-07
2.09701e-07
-4.90339e-07
8.82583e-07
-6.72882e-07
1.48992e-06
-6.07338e-07
1.86651e-06
-3.76589e-07
2.01457e-06
-1.48056e-07
2.01584e-06
-1.26994e-09
1.96068e-06
5.51532e-08
1.86467e-06
9.60088e-08
1.67938e-06
1.85298e-07
1.30023e-06
3.79145e-07
6.43682e-07
6.56549e-07
-2.79277e-07
9.22958e-07
-1.38199e-06
1.10272e-06
-2.58739e-06
1.2054e-06
-3.83119e-06
1.2438e-06
-5.06042e-06
1.22923e-06
-6.23405e-06
1.17363e-06
-7.3227e-06
1.08865e-06
-8.3076e-06
9.84909e-07
-9.17873e-06
8.71123e-07
-9.93264e-06
7.53909e-07
-1.05706e-05
6.37924e-07
-1.10967e-05
5.26155e-07
-1.1517e-05
4.20329e-07
-1.18383e-05
3.21287e-07
-1.20676e-05
2.29279e-07
-1.22123e-05
1.44673e-07
-1.2281e-05
6.86772e-08
-1.22843e-05
3.33715e-09
-1.22352e-05
-4.90835e-08
-1.21424e-05
-9.28189e-08
-1.20114e-05
-1.30991e-07
-1.1846e-05
-1.65427e-07
-1.1649e-05
-1.97022e-07
-1.14226e-05
-2.26313e-07
-1.11689e-05
-2.537e-07
-1.08894e-05
-2.79547e-07
-1.05852e-05
-3.04214e-07
-1.02571e-05
-3.28064e-07
-9.90567e-06
-3.51449e-07
-9.53099e-06
-3.74682e-07
-9.13298e-06
-3.98003e-07
-8.71144e-06
-4.21539e-07
-8.26619e-06
-4.45252e-07
-7.79729e-06
-4.68906e-07
-7.30524e-06
-4.92042e-07
-6.79127e-06
-5.13974e-07
-6.25744e-06
-5.3383e-07
-5.70682e-06
-5.50624e-07
-5.14345e-06
-5.63369e-07
-4.57225e-06
-5.71194e-07
-3.99878e-06
-5.73471e-07
-3.42888e-06
-5.69898e-07
-2.86835e-06
-5.60531e-07
-2.32261e-06
-5.45746e-07
-1.79643e-06
-5.26175e-07
-1.29385e-06
-5.02577e-07
-8.18368e-07
-4.75486e-07
-3.72676e-07
-4.45692e-07
4.54053e-08
-4.18081e-07
4.3381e-07
-3.88404e-07
7.92848e-07
-3.59038e-07
1.12342e-06
-3.30576e-07
1.42658e-06
-3.03159e-07
1.70359e-06
-2.77005e-07
1.95586e-06
-2.52267e-07
2.18485e-06
-2.28991e-07
2.39201e-06
-2.07169e-07
2.57877e-06
-1.86751e-07
2.74643e-06
-1.67661e-07
2.89622e-06
-1.49795e-07
3.02926e-06
-1.33042e-07
3.14655e-06
-1.17291e-07
3.24891e-06
-1.02355e-07
3.33673e-06
-8.78162e-08
3.41002e-06
-7.32949e-08
3.46895e-06
-5.89275e-08
3.51097e-06
-4.20186e-08
3.527e-06
-1.60362e-08
3.50019e-06
2.68137e-08
3.42751e-06
7.26804e-08
3.31274e-06
1.14768e-07
3.16266e-06
1.50078e-07
2.99022e-06
1.72445e-07
2.81229e-06
1.77923e-07
2.64599e-06
1.66302e-07
2.5048e-06
1.4119e-07
2.39621e-06
1.08594e-07
2.32134e-06
7.48664e-08
2.27627e-06
4.50702e-08
2.25418e-06
2.20902e-08
2.24847e-06
5.71595e-09
2.25302e-06
-4.55009e-09
2.26623e-06
-1.32128e-08
2.28783e-06
-2.16009e-08
2.31923e-06
-3.13961e-08
2.36328e-06
-4.40564e-08
2.42407e-06
-6.07826e-08
2.50538e-06
-8.13173e-08
2.60659e-06
-1.01211e-07
2.71535e-06
-1.0876e-07
2.80664e-06
-9.12889e-08
2.85187e-06
-4.52312e-08
2.81445e-06
3.7422e-08
2.60197e-06
2.12478e-07
2.04249e-06
5.59481e-07
1.02266e-06
1.01983e-06
-3.39425e-07
1.36208e-06
-1.77908e-06
1.43965e-06
-3.08246e-06
1.30339e-06
-4.16011e-06
1.07764e-06
-4.99521e-06
8.35099e-07
-5.6026e-06
6.07393e-07
-6.00536e-06
4.0276e-07
-6.22705e-06
2.21695e-07
-6.28716e-06
6.01028e-08
-6.22068e-06
-6.64775e-08
-6.04351e-06
-1.77168e-07
-5.76172e-06
-2.81788e-07
-5.37729e-06
-3.84437e-07
-4.89143e-06
-4.85858e-07
-4.30631e-06
-5.8512e-07
-3.62632e-06
-6.79991e-07
-2.8593e-06
-7.67017e-07
-2.0179e-06
-8.41398e-07
-1.12161e-06
-8.96294e-07
-1.93979e-07
-9.2763e-07
7.3622e-07
-9.30199e-07
1.64042e-06
-9.04196e-07
2.49731e-06
-8.56897e-07
3.28991e-06
-7.926e-07
4.00658e-06
-7.16667e-07
4.64011e-06
-6.33529e-07
5.18503e-06
-5.44925e-07
5.64238e-06
-4.57348e-07
6.01896e-06
-3.76578e-07
6.26154e-06
-2.4258e-07
6.23422e-06
2.73153e-08
5.84254e-06
3.91682e-07
5.12032e-06
7.22225e-07
4.19665e-06
9.23671e-07
3.26293e-06
9.33711e-07
2.50302e-06
7.59911e-07
2.03642e-06
4.66602e-07
1.86757e-06
1.68848e-07
1.9e-06
-3.24298e-08
2.03893e-06
-1.38928e-07
2.26567e-06
-2.26742e-07
2.52035e-06
-2.54679e-07
2.62513e-06
-1.0478e-07
2.41839e-06
2.06739e-07
1.80762e-06
6.10769e-07
9.52924e-07
8.54699e-07
-5.33845e-08
6.77911e-07
1.06891e-07
3.78929e-07
8.29447e-07
-5.49972e-07
1.97318e-06
-1.55215e-06
3.20471e-06
-2.19314e-06
4.34974e-06
-2.4124e-06
5.32515e-06
-2.32562e-06
6.12597e-06
-2.0662e-06
6.76294e-06
-1.73162e-06
7.25433e-06
-1.37797e-06
7.61951e-06
-1.02964e-06
7.87498e-06
-6.92942e-07
8.03423e-06
-3.66604e-07
8.11158e-06
-4.96764e-08
8.11552e-06
2.88657e-07
8.01564e-06
6.40364e-07
7.77255e-06
1.01e-06
7.34763e-06
1.37941e-06
6.71573e-06
1.71091e-06
5.87985e-06
1.94871e-06
4.88028e-06
2.02867e-06
3.79582e-06
1.90408e-06
2.78048e-06
1.59374e-06
1.99704e-06
1.1636e-06
1.48053e-06
6.86432e-07
1.21979e-06
2.20578e-07
1.28989e-06
-2.93301e-07
1.60142e-06
-8.01868e-07
1.91716e-06
-9.88625e-07
2.0765e-06
-7.66679e-07
2.03076e-06
-3.30846e-07
1.79573e-06
8.6972e-08
1.34283e-06
4.51634e-07
5.73389e-07
8.24591e-07
-5.59158e-07
1.22856e-06
-1.97838e-06
1.60452e-06
-3.5137e-06
1.91447e-06
-5.01628e-06
2.15913e-06
-6.41047e-06
2.31714e-06
-7.67783e-06
2.37008e-06
-8.79815e-06
2.32572e-06
-9.75713e-06
2.20278e-06
-1.05516e-05
2.02366e-06
-1.11886e-05
1.81064e-06
-1.1683e-05
1.5831e-06
-1.20542e-05
1.35612e-06
-1.23231e-05
1.14003e-06
-1.251e-05
9.40745e-07
-1.26329e-05
7.60802e-07
-1.27069e-05
6.00227e-07
-1.27442e-05
4.57569e-07
-1.27536e-05
3.30698e-07
-1.27417e-05
2.17394e-07
-1.27126e-05
1.1557e-07
-1.26679e-05
2.39379e-08
-1.26025e-05
-6.19768e-08
-1.25097e-05
-1.4193e-07
-1.23851e-05
-2.17409e-07
-1.22284e-05
-2.87654e-07
-1.2041e-05
-3.52847e-07
-1.18246e-05
-4.13436e-07
-1.1581e-05
-4.69945e-07
-1.13117e-05
-5.22948e-07
-1.10182e-05
-5.73073e-07
-1.07014e-05
-6.20997e-07
-1.0362e-05
-6.67435e-07
-1.00004e-05
-7.13098e-07
-9.61645e-06
-7.58635e-07
-9.20989e-06
-8.0456e-07
-8.78027e-06
-8.51156e-07
-8.32715e-06
-8.98378e-07
-7.85029e-06
-9.45762e-07
-7.34996e-06
-9.92368e-07
-6.82717e-06
-1.03677e-06
-6.28387e-06
-1.07713e-06
-5.72312e-06
-1.11137e-06
-5.14911e-06
-1.13738e-06
-4.567e-06
-1.15331e-06
-3.98263e-06
-1.15784e-06
-3.40217e-06
-1.15036e-06
-2.83168e-06
-1.13103e-06
-2.2767e-06
-1.10072e-06
-1.74199e-06
-1.06088e-06
-1.23126e-06
-1.01331e-06
-7.46994e-07
-9.59749e-07
-2.90303e-07
-9.02383e-07
1.35604e-07
-8.43988e-07
5.3175e-07
-7.8455e-07
8.98602e-07
-7.2589e-07
1.23718e-06
-6.69157e-07
1.5488e-06
-6.14778e-07
1.8349e-06
-5.63098e-07
2.09697e-06
-5.14337e-07
2.33654e-06
-4.68563e-07
2.55511e-06
-4.25739e-07
2.75411e-06
-3.85753e-07
2.93489e-06
-3.48441e-07
3.0987e-06
-3.13602e-07
3.24666e-06
-2.81007e-07
3.37977e-06
-2.50397e-07
3.49887e-06
-2.21456e-07
3.60485e-06
-1.93795e-07
3.69852e-06
-1.66961e-07
3.78003e-06
-1.40442e-07
3.85187e-06
-1.13855e-07
3.92274e-06
-8.69086e-08
4.00508e-06
-5.55243e-08
4.09386e-06
-1.61002e-08
4.18311e-06
2.55151e-08
4.26029e-06
7.28962e-08
4.31691e-06
1.15823e-07
4.34801e-06
1.46823e-07
4.35342e-06
1.60893e-07
4.3368e-06
1.57806e-07
4.30361e-06
1.41784e-07
4.25921e-06
1.19273e-07
4.20771e-06
9.65699e-08
4.15169e-06
7.81056e-08
4.09185e-06
6.55556e-08
4.02846e-06
5.88389e-08
3.9595e-06
5.57498e-08
3.88416e-06
5.37376e-08
3.80381e-06
4.89604e-08
3.72369e-06
3.6065e-08
3.65456e-06
8.34288e-09
3.61233e-06
-3.90908e-08
3.61308e-06
-1.01963e-07
3.65793e-06
-1.53606e-07
3.71154e-06
-1.44898e-07
3.6712e-06
-4.89561e-09
3.32803e-06
3.806e-07
2.41402e-06
1.12648e-06
8.57048e-07
2.11645e-06
-9.46266e-07
2.82315e-06
-2.53731e-06
2.95313e-06
-3.74888e-06
2.65123e-06
-4.60225e-06
2.15676e-06
-5.17207e-06
1.64746e-06
-5.53856e-06
1.20158e-06
-5.76438e-06
8.3322e-07
-5.89093e-06
5.29304e-07
-5.9403e-06
2.71072e-07
-5.92227e-06
4.20661e-08
-5.81889e-06
-1.69853e-07
-5.61884e-06
-3.77224e-07
-5.32027e-06
-5.80355e-07
-4.92323e-06
-7.81473e-07
-4.42809e-06
-9.80998e-07
-3.83632e-06
-1.17689e-06
-3.15176e-06
-1.36455e-06
-2.38217e-06
-1.53661e-06
-1.5407e-06
-1.68287e-06
-6.44687e-07
-1.7923e-06
2.80712e-07
-1.85303e-06
1.20744e-06
-1.85693e-06
2.1111e-06
-1.80785e-06
2.96933e-06
-1.71513e-06
3.76532e-06
-1.58859e-06
4.48773e-06
-1.43908e-06
5.131e-06
-1.2768e-06
5.69549e-06
-1.10941e-06
6.17789e-06
-9.39748e-07
6.56637e-06
-7.65063e-07
6.90506e-06
-5.81266e-07
7.28257e-06
-3.50193e-07
7.67106e-06
3.18926e-09
7.90536e-06
4.87923e-07
7.8589e-06
9.7013e-07
7.52156e-06
1.27105e-06
6.96498e-06
1.31649e-06
6.25138e-06
1.18021e-06
5.42769e-06
9.92534e-07
4.59037e-06
8.04894e-07
3.90142e-06
5.50021e-07
3.49448e-06
1.80199e-07
3.35497e-06
-1.15165e-07
3.22525e-06
2.49406e-08
2.71339e-06
7.18597e-07
1.67248e-06
1.65168e-06
2.29356e-06
3.31838e-07
2.38706e-07
4.39204e-07
1.19814e-06
-5.805e-07
2.63378e-06
-1.98561e-06
3.945e-06
-2.86337e-06
4.89323e-06
-3.14137e-06
5.50287e-06
-3.02204e-06
5.8802e-06
-2.70296e-06
6.12382e-06
-2.30982e-06
6.29781e-06
-1.90561e-06
6.43446e-06
-1.51461e-06
6.54606e-06
-1.14124e-06
6.63493e-06
-7.81811e-07
6.6991e-06
-4.30774e-07
6.73249e-06
-8.30712e-08
6.75424e-06
2.6691e-07
6.7682e-06
6.26408e-07
6.77096e-06
1.00724e-06
6.73432e-06
1.41604e-06
6.60588e-06
1.83935e-06
6.32468e-06
2.22991e-06
5.84754e-06
2.50581e-06
5.17633e-06
2.57529e-06
4.38943e-06
2.38064e-06
3.62098e-06
1.93205e-06
2.98627e-06
1.32113e-06
2.55507e-06
6.51786e-07
2.35831e-06
-9.65461e-08
2.25572e-06
-6.99274e-07
1.92974e-06
-6.62644e-07
1.24974e-06
-8.66794e-08
3.21086e-07
5.97804e-07
-8.71832e-07
1.27989e-06
-2.27189e-06
1.85169e-06
-3.78509e-06
2.33779e-06
-5.28663e-06
2.73009e-06
-6.68533e-06
3.00322e-06
-7.92024e-06
3.14939e-06
-8.94207e-06
3.18096e-06
-9.73727e-06
3.11234e-06
-1.03278e-05
2.96061e-06
-1.07499e-05
2.7478e-06
-1.10448e-05
2.49773e-06
-1.12532e-05
2.23205e-06
-1.14101e-05
1.96749e-06
-1.15418e-05
1.7148e-06
-1.16649e-05
1.47929e-06
-1.17872e-05
1.26226e-06
-1.19091e-05
1.06265e-06
-1.20267e-05
8.78382e-07
-1.21336e-05
7.07181e-07
-1.22231e-05
5.47066e-07
-1.22889e-05
3.96527e-07
-1.23261e-05
2.54529e-07
-1.23309e-05
1.204e-07
-1.23008e-05
-6.13719e-09
-1.22369e-05
-1.25876e-07
-1.21402e-05
-2.38709e-07
-1.20128e-05
-3.4472e-07
-1.18565e-05
-4.44019e-07
-1.16725e-05
-5.36811e-07
-1.14625e-05
-6.23477e-07
-1.12278e-05
-7.04568e-07
-1.097e-05
-7.80801e-07
-1.069e-05
-8.53049e-07
-1.03887e-05
-9.22317e-07
-1.00664e-05
-9.897e-07
-9.7232e-06
-1.05633e-06
-9.35858e-06
-1.12326e-06
-8.97177e-06
-1.19137e-06
-8.56172e-06
-1.2612e-06
-8.12732e-06
-1.33277e-06
-7.66766e-06
-1.40543e-06
-7.18232e-06
-1.47771e-06
-6.67176e-06
-1.54733e-06
-6.13762e-06
-1.61127e-06
-5.58292e-06
-1.66607e-06
-5.01212e-06
-1.70818e-06
-4.43094e-06
-1.73448e-06
-3.84604e-06
-1.74275e-06
-3.26442e-06
-1.73198e-06
-2.69295e-06
-1.7025e-06
-2.13779e-06
-1.65588e-06
-1.60407e-06
-1.59461e-06
-1.09564e-06
-1.52174e-06
-6.14817e-07
-1.44057e-06
-1.63214e-07
-1.35399e-06
2.57755e-07
-1.26496e-06
6.48339e-07
-1.17513e-06
1.00955e-06
-1.0871e-06
1.3425e-06
-1.00211e-06
1.64864e-06
-9.2092e-07
1.92956e-06
-8.4401e-07
2.18686e-06
-7.71637e-07
2.42215e-06
-7.03855e-07
2.63698e-06
-6.40567e-07
2.8328e-06
-5.81579e-07
3.01098e-06
-5.26625e-07
3.17278e-06
-4.75397e-07
3.31933e-06
-4.27555e-07
3.45166e-06
-3.82732e-07
3.57073e-06
-3.40527e-07
3.67746e-06
-3.00523e-07
3.77276e-06
-2.62256e-07
3.85735e-06
-2.25041e-07
3.93163e-06
-1.88134e-07
3.99593e-06
-1.51202e-07
4.05385e-06
-1.13451e-07
4.11204e-06
-7.4289e-08
4.17283e-06
-3.52683e-08
4.24072e-06
4.99772e-09
4.31363e-06
4.29131e-08
4.38538e-06
7.50758e-08
4.44813e-06
9.81481e-08
4.49553e-06
1.10401e-07
4.52466e-06
1.12657e-07
4.5361e-06
1.0783e-07
4.53297e-06
9.97034e-08
4.51942e-06
9.16579e-08
4.49898e-06
8.59952e-08
4.47364e-06
8.41749e-08
4.44253e-06
8.68594e-08
4.40245e-06
9.38175e-08
4.34909e-06
1.02322e-07
4.28036e-06
1.04791e-07
4.20087e-06
8.78334e-08
4.12406e-06
3.77268e-08
4.06635e-06
-4.42579e-08
4.01662e-06
-1.03879e-07
3.89592e-06
-2.41991e-08
3.51893e-06
3.72093e-07
2.64254e-06
1.257e-06
1.17149e-06
2.59753e-06
-5.28232e-07
3.81618e-06
-1.93562e-06
4.23054e-06
-2.9121e-06
3.9296e-06
-3.56114e-06
3.30027e-06
-4.02693e-06
2.62254e-06
-4.39931e-06
2.01984e-06
-4.70916e-06
1.51144e-06
-4.95469e-06
1.07875e-06
-5.12463e-06
6.99238e-07
-5.20793e-06
3.54371e-07
-5.1999e-06
3.40424e-08
-5.09717e-06
-2.72582e-07
-4.90165e-06
-5.72745e-07
-4.61283e-06
-8.6918e-07
-4.22997e-06
-1.16433e-06
-3.75255e-06
-1.45842e-06
-3.18119e-06
-1.74825e-06
-2.51893e-06
-2.02681e-06
-1.77309e-06
-2.28245e-06
-9.56208e-07
-2.49975e-06
-8.66574e-08
-2.66185e-06
8.08836e-07
-2.74852e-06
1.70457e-06
-2.75267e-06
2.57609e-06
-2.67937e-06
3.40143e-06
-2.54046e-06
4.16436e-06
-2.35152e-06
4.85478e-06
-2.1295e-06
5.46794e-06
-1.88996e-06
6.00343e-06
-1.6449e-06
6.46415e-06
-1.40047e-06
6.8532e-06
-1.15411e-06
7.16854e-06
-8.96604e-07
7.42931e-06
-6.10965e-07
7.70764e-06
-2.75144e-07
8.06342e-06
1.32145e-07
8.44343e-06
5.9012e-07
8.70966e-06
1.00483e-06
8.73992e-06
1.28622e-06
8.47214e-06
1.44799e-06
7.90218e-06
1.56249e-06
7.08335e-06
1.62373e-06
6.11571e-06
1.51767e-06
5.13522e-06
1.16069e-06
4.288e-06
7.32051e-07
3.56737e-06
7.45568e-07
2.72964e-06
1.55633e-06
1.60606e-06
2.77527e-06
3.53433e-06
3.65285e-07
6.70411e-07
-2.31207e-07
2.26766e-06
-2.17775e-06
3.62923e-06
-3.34718e-06
4.40471e-06
-3.63885e-06
4.72669e-06
-3.46335e-06
4.81609e-06
-3.11143e-06
4.82803e-06
-2.7149e-06
4.83802e-06
-2.31982e-06
4.86975e-06
-1.93734e-06
4.92069e-06
-1.56555e-06
4.97802e-06
-1.19857e-06
5.02825e-06
-8.32044e-07
5.06255e-06
-4.65079e-07
5.08021e-06
-1.00729e-07
5.08503e-06
2.6209e-07
5.08658e-06
6.24857e-07
5.09721e-06
9.96608e-07
5.1209e-06
1.39235e-06
5.13587e-06
1.82438e-06
5.08964e-06
2.27614e-06
4.91951e-06
2.67594e-06
4.58778e-06
2.90702e-06
4.1091e-06
2.85932e-06
3.53692e-06
2.50423e-06
2.95149e-06
1.90656e-06
2.5325e-06
1.07077e-06
2.19545e-06
2.40509e-07
1.39409e-06
1.02083e-07
6.79216e-08
6.63525e-07
-1.50912e-06
1.49036e-06
-3.11682e-06
2.2055e-06
-4.64445e-06
2.80752e-06
-6.06269e-06
3.26993e-06
-7.30885e-06
3.58396e-06
-8.33008e-06
3.75132e-06
-9.11265e-06
3.78579e-06
-9.67338e-06
3.71011e-06
-1.00443e-05
3.55185e-06
-1.02694e-05
3.33743e-06
-1.0399e-05
3.09027e-06
-1.04809e-05
2.82967e-06
-1.05524e-05
2.56926e-06
-1.06371e-05
2.31673e-06
-1.07446e-05
2.07503e-06
-1.0874e-05
1.84414e-06
-1.10175e-05
1.6228e-06
-1.11648e-05
1.40956e-06
-1.13055e-05
1.20338e-06
-1.14308e-05
1.00372e-06
-1.15341e-05
8.10428e-07
-1.16107e-05
6.23653e-07
-1.16578e-05
4.43686e-07
-1.16742e-05
2.7087e-07
-1.16594e-05
1.05575e-07
-1.16137e-05
-5.18251e-08
-1.15383e-05
-2.01264e-07
-1.14345e-05
-3.42473e-07
-1.1304e-05
-4.75266e-07
-1.11484e-05
-5.99607e-07
-1.09695e-05
-7.15661e-07
-1.07692e-05
-8.23843e-07
-1.05489e-05
-9.2484e-07
-1.03101e-05
-1.01962e-06
-1.00537e-05
-1.10942e-06
-9.78032e-06
-1.1957e-06
-9.48994e-06
-1.28008e-06
-9.18201e-06
-1.36427e-06
-8.85535e-06
-1.44991e-06
-8.50827e-06
-1.53845e-06
-8.13862e-06
-1.63086e-06
-7.744e-06
-1.72739e-06
-7.32212e-06
-1.82731e-06
-6.87121e-06
-1.92861e-06
-6.39053e-06
-2.02801e-06
-5.88086e-06
-2.12094e-06
-5.34488e-06
-2.20205e-06
-4.78728e-06
-2.26578e-06
-4.2146e-06
-2.30716e-06
-3.63467e-06
-2.32267e-06
-3.05593e-06
-2.31072e-06
-2.48657e-06
-2.27186e-06
-1.93385e-06
-2.2086e-06
-1.40362e-06
-2.12485e-06
-9.00084e-07
-2.02527e-06
-4.25909e-07
-1.91475e-06
1.74596e-08
-1.79736e-06
4.2927e-07
-1.67677e-06
8.10401e-07
-1.55627e-06
1.16193e-06
-1.43863e-06
1.48527e-06
-1.32545e-06
1.78207e-06
-1.21772e-06
2.05409e-06
-1.11603e-06
2.30307e-06
-1.02062e-06
2.53069e-06
-9.31476e-07
2.73853e-06
-8.48408e-07
2.92806e-06
-7.71109e-07
3.10063e-06
-6.99194e-07
3.25748e-06
-6.3224e-07
3.39972e-06
-5.69795e-07
3.52838e-06
-5.11395e-07
3.64441e-06
-4.56558e-07
3.74868e-06
-4.04788e-07
3.84198e-06
-3.55561e-07
3.92524e-06
-3.08298e-07
3.99957e-06
-2.62466e-07
4.06607e-06
-2.177e-07
4.12605e-06
-1.73436e-07
4.18102e-06
-1.29256e-07
4.23153e-06
-8.57765e-08
4.2802e-06
-4.36707e-08
4.328e-06
-4.88779e-09
4.37472e-06
2.83595e-08
4.41835e-06
5.45149e-08
4.45588e-06
7.28692e-08
4.4845e-06
8.40321e-08
4.50269e-06
8.96444e-08
4.51063e-06
9.1769e-08
4.51006e-06
9.22207e-08
4.50373e-06
9.23312e-08
4.49437e-06
9.35271e-08
4.48298e-06
9.82568e-08
4.46685e-06
1.09942e-07
4.43948e-06
1.29697e-07
4.39442e-06
1.49847e-07
4.33214e-06
1.50111e-07
4.2612e-06
1.08673e-07
4.17894e-06
3.80006e-08
4.03821e-06
3.68505e-08
3.70876e-06
3.05248e-07
3.00073e-06
1.08012e-06
1.80231e-06
2.45542e-06
3.08705e-07
4.09114e-06
-9.77283e-07