/*--------------------------------*- C++ -*----------------------------------*\
  =========                 |
  \\      /  F ield         | OpenFOAM: The Open Source CFD Toolbox
   \\    /   O peration     | Website:  https://openfoam.org
    \\  /    A nd           | Version:  9
     \\/     M anipulation  |
\*---------------------------------------------------------------------------*/
FoamFile
{
    format      ascii;
    class       volScalarField;
    location    "0.21";
    object      epsilon;
}
// * * * * * * * * * * * * * * * * * * * * * * * * * * * * * * * * * * * * * //

dimensions      [0 2 -3 0 0 0 0];

internalField   nonuniform List<scalar> 
12225
(
278.515
263.66
249.434
236.839
226.738
219.483
215.069
213.263
213.706
215.99
219.712
224.503
230.042
236.064
242.37
248.79
255.358
264.869
61.116
86.6953
97.9913
107.208
118.465
132.557
149.41
168.611
189.576
211.681
234.334
257.024
279.348
301.006
321.907
341.885
362.458
381.003
25.2776
36.183
43.3817
48.6213
53.3863
58.3361
63.7704
69.8253
76.5257
83.8234
91.6282
99.8308
108.32
116.995
125.789
134.682
143.821
153.201
17.5217
21.2986
24.7145
27.61
30.1619
32.54
34.8666
37.2278
39.6769
42.2404
44.9256
47.7283
50.6372
53.64
56.728
59.9087
63.2006
66.6297
15.4878
16.7519
18.1858
19.5889
20.9095
22.149
23.3263
24.4652
25.5863
26.705
27.8311
28.9702
30.1252
31.2975
32.4887
33.7038
34.9477
36.217
14.9084
15.2396
15.7463
16.334
16.9476
17.5589
18.1558
18.7356
19.3001
19.8526
20.3961
20.9335
21.4667
21.9976
22.5279
23.0599
23.5954
24.1285
14.7451
14.7391
14.8342
15.0036
15.2215
15.4679
15.7286
15.9948
16.2619
16.5274
16.7902
17.0499
17.3065
17.5604
17.812
18.0622
18.3113
18.5551
14.7012
14.5825
14.5116
14.4858
14.4981
14.5403
14.6043
14.6837
14.7737
14.8707
14.9725
15.0772
15.1837
15.2913
15.3996
15.5084
15.6174
15.724
14.6901
14.5373
14.407
14.3009
14.2182
14.1571
14.1145
14.0875
14.0733
14.0693
14.0735
14.0844
14.1006
14.1212
14.1452
14.1723
14.2017
14.2319
14.6874
14.5252
14.3761
14.2411
14.1204
14.0137
13.9203
13.8391
13.7688
13.7083
13.6564
13.6119
13.574
13.5419
13.5147
13.492
13.4731
13.4573
14.6868
14.5221
14.3677
14.2236
14.0896
13.9656
13.8512
13.746
13.6495
13.5611
13.4801
13.4061
13.3383
13.2763
13.2197
13.1678
13.1204
13.0772
14.6866
14.5213
14.3656
14.219
14.0812
13.9518
13.8305
13.7169
13.6105
13.5111
13.4182
13.3314
13.2503
13.1747
13.104
13.038
12.9764
12.9194
14.6865
14.521
14.3648
14.2175
14.0785
13.9473
13.8234
13.7065
13.5963
13.4922
13.3941
13.3015
13.2142
13.1319
13.0543
12.981
12.912
12.8475
14.6864
14.5208
14.3645
14.2169
14.0774
13.9456
13.8209
13.7029
13.5913
13.4855
13.3853
13.2904
13.2005
13.1153
13.0345
12.9578
12.8853
12.8172
14.6864
14.5207
14.3643
14.2165
14.0769
13.9449
13.8199
13.7016
13.5895
13.4832
13.3824
13.2868
13.196
13.1098
13.0279
12.9501
12.8762
12.8068
14.6863
14.5206
14.3641
14.2163
14.0766
13.9444
13.8194
13.7009
13.5886
13.4822
13.3812
13.2854
13.1943
13.1079
13.0257
12.9475
12.8732
12.8033
14.6863
14.5205
14.364
14.2161
14.0763
13.9441
13.8189
13.7004
13.5881
13.4815
13.3805
13.2845
13.1934
13.1068
13.0245
12.9462
12.8718
12.8018
14.6863
14.5204
14.3639
14.216
14.0761
13.9439
13.8187
13.7001
13.5877
13.4811
13.3799
13.2839
13.1927
13.1061
13.0237
12.9454
12.8709
12.8008
14.6863
14.5204
14.3639
14.2159
14.0761
13.9438
13.8186
13.6999
13.5875
13.4809
13.3797
13.2837
13.1925
13.1058
13.0233
12.9449
12.8704
12.8003
14.6863
14.5205
14.3639
14.216
14.0762
13.9439
13.8187
13.7001
13.5877
13.4811
13.38
13.284
13.1928
13.1061
13.0237
12.9454
12.8709
12.8008
14.6863
14.5205
14.364
14.2162
14.0764
13.9443
13.8192
13.7007
13.5885
13.4821
13.3812
13.2854
13.1945
13.1082
13.0262
12.9483
12.8742
12.8046
14.6863
14.5206
14.3643
14.2167
14.0773
13.9457
13.8214
13.7039
13.5928
13.4879
13.3886
13.2947
13.2059
13.1218
13.0423
12.9669
12.8956
12.8288
14.6865
14.5212
14.3659
14.2202
14.0837
13.956
13.8368
13.7256
13.6218
13.525
13.4348
13.3506
13.272
13.1986
13.13
13.0659
13.006
12.9505
14.6876
14.5264
14.3793
14.2467
14.1282
14.0231
13.9302
13.8484
13.7762
13.7126
13.6565
13.6068
13.5628
13.5237
13.489
13.4581
13.4306
13.4066
14.6976
14.5664
14.4707
14.4075
14.3714
14.3568
14.3584
14.372
14.3941
14.4224
14.455
14.4908
14.5287
14.568
14.6085
14.6496
14.6913
14.7333
14.7737
14.8187
14.9603
15.1591
15.3863
15.6233
15.8598
16.0904
16.3134
16.5284
16.7358
16.9365
17.1312
17.321
17.5064
17.6882
17.8667
18.0416
15.2587
16.1151
17.0712
17.9727
18.7879
19.5238
20.1945
20.8149
21.3988
21.9573
22.4986
23.029
23.5526
24.0724
24.5901
25.1066
25.622
26.1338
18.0414
22.0079
24.9885
27.1532
28.8883
30.4049
31.8125
33.1785
34.5438
35.9311
37.3513
38.8083
40.3012
41.8261
43.3772
44.9484
46.533
48.1182
34.024
45.6878
51.3769
54.9425
58.081
61.2982
64.7511
68.4836
72.4798
76.6966
81.0838
85.5918
90.1739
94.7885
99.3998
103.979
108.51
112.967
163.308
157.417
151.704
146.261
141.3
136.947
133.25
130.206
127.78
125.919
124.558
123.637
123.093
122.871
122.917
123.187
123.641
124.242
0.244973
0.29003
0.476452
0.6457
0.828487
1.03867
1.27872
1.55421
1.87081
2.20071
2.54561
2.90389
3.27299
3.6503
4.03338
4.41995
4.80785
5.19495
5.57916
5.95831
6.33024
6.69263
7.04308
7.37897
7.69749
7.99566
8.27046
8.51907
8.73901
8.92777
9.08121
9.18873
9.22304
9.13317
9.33443
9.34953
9.37353
9.2929
39.7934
9.43819
40.5774
40.229
40.1948
40.6661
43.4137
46.4213
49.621
52.9967
56.545
60.2637
64.1527
68.213
72.4463
76.8545
81.4398
86.2044
91.1503
96.2796
101.594
107.095
112.784
118.663
124.731
130.988
137.436
144.073
150.898
157.909
165.106
172.486
180.045
187.781
195.689
203.766
212.007
220.407
228.959
237.658
246.498
255.471
264.57
273.787
283.115
292.544
302.067
311.673
321.353
331.098
340.896
350.737
360.609
370.502
380.403
390.301
400.183
410.039
419.861
429.648
439.41
449.178
458.918
468.526
478.002
487.337
496.52
505.534
514.364
522.994
531.409
539.593
547.53
555.206
562.607
569.718
576.525
583.016
589.178
595
600.47
605.577
610.314
614.67
618.639
622.212
625.385
628.151
630.507
632.449
633.975
635.084
635.775
636.05
635.91
635.358
634.398
633.034
631.272
629.119
626.583
623.671
620.394
616.761
612.783
608.471
603.839
598.899
593.665
588.15
582.369
576.336
570.069
563.58
556.886
550.005
542.95
535.737
528.386
520.909
513.325
505.649
497.888
490.086
482.213
474.359
466.602
460.13
457.087
454.418
451.757
449.085
446.402
443.707
440.993
438.24
435.401
432.374
428.926
424.451
417.466
401.554
0.904149
0.559378
0.575781
0.663459
0.791495
0.950511
1.13948
1.35703
1.6003
1.86399
2.14476
2.44006
2.74781
3.06631
3.3941
3.72994
4.07275
4.42158
4.77567
5.13441
5.49745
5.86474
6.23664
6.61398
6.99827
7.39191
7.79859
8.22398
8.67681
9.17115
9.73169
10.4079
11.2998
12.5053
12.9562
13.9785
15.1671
16.6993
17.6612
19.0779
20.2144
22.0798
24.2642
26.0836
27.679
29.2807
30.9266
32.6302
34.3939
36.2192
38.1077
40.0608
42.0797
44.1655
46.319
48.541
50.8323
53.1932
55.6243
58.1258
60.6978
63.3403
66.0533
68.8365
71.6894
74.6116
77.6023
80.6608
83.7861
86.9771
90.2324
93.5507
96.9305
100.37
103.867
107.421
111.028
114.687
118.394
122.149
125.947
129.786
133.664
137.577
141.521
145.494
149.492
153.511
157.548
161.598
165.657
169.722
173.788
177.852
181.909
185.957
189.996
194.029
198.062
202.119
206.201
210.245
214.242
218.185
222.07
225.89
229.64
233.312
236.902
240.404
243.81
247.116
250.316
253.405
256.376
259.225
261.948
264.538
266.992
269.306
271.475
273.495
275.365
277.08
278.637
280.035
281.271
282.343
283.251
283.993
284.568
284.977
285.219
285.295
285.206
284.954
284.539
283.965
283.232
282.345
281.305
280.117
278.785
277.311
275.701
273.959
272.09
270.099
267.99
265.771
263.446
261.02
258.501
255.893
253.204
250.437
247.603
244.703
241.748
238.741
235.684
232.601
229.455
226.33
223.26
220.482
218.347
216.373
214.432
212.502
210.578
208.661
206.75
204.845
202.943
201.036
199.102
197.127
194.988
193.753
1.78531
0.931078
0.858388
0.911353
1.01501
1.15518
1.32695
1.52711
1.75233
1.99899
2.26384
2.54425
2.83822
3.14429
3.46146
3.78908
4.12679
4.47449
4.83232
5.2007
5.58036
5.97241
6.37843
6.80048
7.24125
7.70411
8.19329
8.71399
9.27253
9.87645
10.5348
11.2589
12.0624
12.936
13.8082
14.7588
15.7586
16.8188
17.8898
19.0267
20.2012
21.455
22.7657
24.0923
25.4139
26.7637
28.157
29.5996
31.093
32.6378
34.2346
35.8837
37.5857
39.3409
41.1496
43.0123
44.9291
46.9002
48.9259
51.0061
53.1408
55.33
57.5734
59.8709
62.2221
64.6265
67.0836
69.5929
72.1535
74.7647
77.4255
80.1349
82.8917
85.6947
88.5427
91.434
94.3671
97.3405
100.352
103.4
106.483
109.598
112.744
115.917
119.116
122.339
125.581
128.842
132.118
135.407
138.706
142.012
145.324
148.639
151.955
155.273
158.592
161.914
165.239
168.57
171.886
175.171
178.42
181.626
184.785
187.891
190.94
193.927
196.846
199.694
202.465
205.154
207.757
210.27
212.687
215.005
217.22
219.328
221.325
223.208
224.973
226.618
228.14
229.536
230.805
231.943
232.951
233.825
234.565
235.171
235.641
235.976
236.176
236.241
236.172
235.969
235.635
235.171
234.579
233.86
233.018
232.056
230.976
229.781
228.475
227.061
225.544
223.928
222.216
220.414
218.525
216.555
214.506
212.387
210.2
207.949
205.643
203.281
200.874
198.425
195.925
193.418
190.884
188.352
185.853
183.476
181.324
179.27
177.254
175.256
173.273
171.305
169.354
167.424
165.521
163.657
161.847
160.157
158.674
158.197
2.79083
1.35169
1.1705
1.1821
1.26575
1.39348
1.55559
1.74712
1.96438
2.20405
2.46318
2.73928
3.03046
3.33538
3.65322
3.9836
4.32649
4.68217
5.05121
5.43444
5.83298
6.24825
6.68197
7.1362
7.61333
8.11607
8.64747
9.21083
9.80963
10.4473
11.1269
11.8513
12.6224
13.4392
14.2948
15.1928
16.1316
17.1138
18.1371
19.205
20.3158
21.4706
22.6663
23.8979
25.1619
26.4633
27.8073
29.1971
30.6342
32.1196
33.654
35.238
36.8721
38.5567
40.2922
42.079
43.9174
45.8078
47.7504
49.7454
51.793
53.8933
56.0463
58.2519
60.5101
62.8206
65.1831
67.5973
70.0626
72.5786
75.1444
77.7593
80.4224
83.1327
85.8889
88.6899
91.5342
94.4204
97.3468
100.312
103.313
106.349
109.418
112.518
115.645
118.799
121.976
125.174
128.39
131.623
134.87
138.128
141.395
144.669
147.949
151.233
154.52
157.808
161.094
164.369
167.621
170.842
174.026
177.169
180.264
183.307
186.292
189.215
192.071
194.854
197.56
200.185
202.722
205.169
207.52
209.771
211.919
213.959
215.888
217.702
219.399
220.974
222.427
223.754
224.952
226.022
226.96
227.765
228.437
228.975
229.378
229.647
229.782
229.783
229.652
229.389
228.995
228.474
227.827
227.055
226.163
225.152
224.026
222.788
221.442
219.991
218.44
216.793
215.053
213.225
211.315
209.326
207.261
205.13
202.935
200.675
198.368
196.004
193.599
191.164
188.695
186.208
183.704
181.198
178.711
176.288
173.969
171.716
169.499
167.305
165.133
162.983
160.859
158.768
156.721
154.736
152.847
151.13
149.7
149.024
3.7666
1.76508
1.47196
1.44471
1.5102
1.62736
1.78188
1.96708
2.17872
2.41356
2.66884
2.9423
3.23218
3.53725
3.85677
4.19046
4.53838
4.90095
5.27883
5.67294
6.08442
6.51463
6.96513
7.43766
7.93414
8.45665
9.00737
9.58856
10.2024
10.851
11.5362
12.2593
13.0215
13.8233
14.6646
15.5459
16.4678
17.4311
18.4363
19.4838
20.5736
21.7058
22.8799
24.0954
25.352
26.6512
27.9951
29.3854
30.8236
32.3107
33.8476
35.4352
37.0741
38.7651
40.5089
42.306
44.1572
46.0629
48.0237
50.0401
52.1125
54.2414
56.427
58.6695
60.9692
63.326
65.7401
68.2111
70.7389
73.323
75.9631
78.6584
81.4081
84.2115
87.0673
89.9744
92.9314
95.9368
98.989
102.086
105.226
108.408
111.628
114.884
118.175
121.497
124.848
128.226
131.627
135.049
138.489
141.945
145.413
148.892
152.378
155.87
159.363
162.857
166.339
169.802
173.237
176.639
180.001
183.318
186.584
189.792
192.939
196.017
199.023
201.949
204.791
207.545
210.203
212.763
215.219
217.566
219.8
221.917
223.914
225.786
227.53
229.144
230.624
231.967
233.173
234.239
235.164
235.946
236.584
237.079
237.429
237.636
237.699
237.62
237.399
237.038
236.539
235.905
235.137
234.239
233.212
232.062
230.791
229.403
227.901
226.29
224.576
222.762
220.853
218.852
216.768
214.603
212.359
210.05
207.677
205.233
202.75
200.219
197.648
195.045
192.413
189.761
187.095
184.424
181.766
179.144
176.581
174.065
171.583
169.128
166.701
164.303
161.941
159.622
157.362
155.183
153.124
151.258
149.681
148.654
4.65339
2.13813
1.74671
1.68485
1.73394
1.84144
1.98899
2.16825
2.37444
2.60423
2.85504
3.12478
3.41187
3.71516
4.03399
4.36808
4.71753
5.08274
5.46437
5.8633
6.28059
6.71749
7.17539
7.65581
8.16037
8.69082
9.24894
9.83657
10.4555
11.1075
11.794
12.5165
13.2762
14.074
14.911
15.7881
16.7059
17.6654
18.6673
19.712
20.8004
21.9327
23.1096
24.3315
25.599
26.9131
28.275
29.6862
31.1479
32.6614
34.2278
35.8484
37.524
39.2558
41.0448
42.892
44.7984
46.7649
48.7924
50.8817
53.0337
55.2491
57.5286
59.8727
62.2819
64.7566
67.2971
69.9034
72.5755
75.3134
78.1166
80.9846
83.9168
86.9123
89.9701
93.0889
96.2674
99.5039
102.797
106.144
109.543
112.992
116.488
120.029
123.611
127.233
130.891
134.582
138.302
142.049
145.82
149.61
153.416
157.235
161.064
164.898
168.733
172.565
176.378
180.165
183.921
187.638
191.311
194.932
198.495
201.994
205.422
208.774
212.043
215.223
218.308
221.292
224.17
226.935
229.584
232.11
234.509
236.777
238.909
240.901
242.749
244.451
246.004
247.405
248.652
249.742
250.676
251.451
252.067
252.523
252.82
252.958
252.938
252.762
252.429
251.944
251.308
250.523
249.593
248.521
247.31
245.965
244.49
242.888
241.165
239.324
237.373
235.317
233.158
230.901
228.559
226.133
223.618
221.042
218.402
215.7
212.95
210.154
207.318
204.449
201.553
198.637
195.708
192.774
189.848
186.946
184.082
181.255
178.462
175.7
172.971
170.279
167.632
165.041
162.52
160.096
157.806
155.718
153.897
152.489
5.40551
2.46459
1.98789
1.89509
1.92902
2.02721
2.16771
2.34068
2.54077
2.76454
3.00947
3.27366
3.55566
3.85445
4.16942
4.50032
4.84726
5.21061
5.591
5.98926
6.40642
6.84363
7.30218
7.7835
8.28908
8.8205
9.37943
9.96753
10.5865
11.2379
11.9234
12.6445
13.4023
14.1984
15.0338
15.9097
16.8273
17.7874
18.7911
19.8394
20.9332
22.0735
23.2613
24.4975
25.7831
27.1193
28.5073
29.9487
31.4448
32.9972
34.6072
36.2765
38.0064
39.7984
41.6541
43.5747
45.5617
47.6166
49.7406
51.9351
54.2012
56.5402
58.9531
61.4408
64.0043
66.6442
69.3612
72.1555
75.0275
77.9772
81.0044
84.1088
87.2897
90.5463
93.8776
97.2822
100.759
104.305
107.919
111.599
115.343
119.146
123.008
126.923
130.89
134.905
138.964
143.064
147.2
151.369
155.567
159.789
164.031
168.289
172.557
176.832
181.109
185.37
189.608
193.816
197.986
202.111
206.183
210.196
214.143
218.015
221.806
225.509
229.116
232.62
236.015
239.294
242.451
245.48
248.375
251.129
253.739
256.199
258.503
260.649
262.631
264.447
266.094
267.569
268.87
269.995
270.942
271.712
272.302
272.714
272.947
273.003
272.883
272.587
272.119
271.481
270.677
269.708
268.58
267.295
265.856
264.272
262.545
260.682
258.686
256.56
254.318
251.963
249.496
246.923
244.263
241.516
238.684
235.782
232.814
229.784
226.702
223.574
220.406
217.205
213.977
210.731
207.472
204.209
200.952
197.713
194.503
191.327
188.184
185.076
182.009
178.986
176.018
173.115
170.296
167.586
165.021
162.656
160.534
158.739
6.03694
2.74368
2.19259
2.07168
2.09116
2.17996
2.31294
2.47893
2.67199
2.88854
3.1261
3.38289
3.65759
3.94931
4.25753
4.58204
4.92296
5.28068
5.65581
6.04917
6.46175
6.89467
7.34919
7.82668
8.32859
8.85646
9.41188
9.99648
10.6119
11.2598
11.9417
12.6593
13.414
14.2073
15.0405
15.9152
16.8325
17.7939
18.8006
19.854
20.9553
22.106
23.3074
24.5609
25.8679
27.23
28.6486
30.1256
31.6627
33.2618
34.9247
36.6534
38.4498
40.3158
42.2535
44.2648
46.3516
48.5158
50.7593
53.0839
55.4913
57.9831
60.5609
63.2261
65.98
68.8236
71.7579
74.7835
77.901
81.1106
84.4123
87.8059
91.2907
94.8659
98.5303
102.283
106.121
110.043
114.047
118.13
122.288
126.52
130.82
135.186
139.614
144.099
148.638
153.225
157.857
162.527
167.232
171.967
176.724
181.5
186.288
191.083
195.875
200.643
205.381
210.082
214.737
219.339
223.879
228.35
232.742
237.047
241.257
245.363
249.359
253.235
256.985
260.601
264.075
267.402
270.574
273.586
276.431
279.104
281.599
283.913
286.041
287.979
289.725
291.275
292.629
293.783
294.737
295.49
296.042
296.393
296.543
296.495
296.25
295.81
295.178
294.356
293.35
292.163
290.8
289.263
287.557
285.691
283.671
281.502
279.188
276.729
274.15
271.449
268.632
265.706
262.682
259.566
256.364
253.086
249.738
246.328
242.864
239.352
235.8
232.216
228.607
224.979
221.34
217.699
214.064
210.445
206.852
203.292
199.767
196.283
192.846
189.462
186.141
182.897
179.747
176.717
173.839
171.158
168.698
166.511
6.54567
2.97378
2.3594
2.21313
2.21868
2.2978
2.42263
2.58079
2.76585
2.97403
3.20286
3.45067
3.71627
3.99887
4.29805
4.61368
4.94592
5.29518
5.66208
6.04744
6.45224
6.8776
7.32476
7.79508
8.28998
8.81098
9.35967
9.93765
10.5466
11.1882
11.864
12.5759
13.3253
14.114
14.9436
15.8157
16.732
17.6941
18.7036
19.7622
20.8717
22.0338
23.2503
24.5231
25.854
27.245
28.6982
30.2157
31.7998
33.4527
35.177
36.975
38.8493
40.8024
42.8369
44.9552
47.1599
49.4536
51.8386
54.3174
56.8922
59.5651
62.3383
65.2137
68.1929
71.2774
74.4685
77.7672
81.1743
84.6901
88.3149
92.0482
95.8897
99.8383
103.893
108.051
112.312
116.672
121.129
125.679
130.319
135.045
139.853
144.739
149.697
154.722
159.81
164.956
170.153
175.396
180.678
185.994
191.338
196.702
202.079
207.463
212.827
218.161
223.458
228.708
233.904
239.035
244.093
249.067
253.948
258.726
263.393
267.939
272.354
276.631
280.76
284.735
288.546
292.186
295.648
298.926
302.014
304.904
307.592
310.072
312.34
314.393
316.227
317.841
319.231
320.398
321.339
322.054
322.543
322.807
322.847
322.666
322.265
321.648
320.817
319.776
318.532
317.09
315.452
313.625
311.61
309.422
307.067
304.552
301.881
299.06
296.103
293.017
289.808
286.483
283.054
279.527
275.911
272.214
268.445
264.612
260.723
256.787
252.81
248.802
244.77
240.721
236.663
232.605
228.555
224.523
220.516
216.544
212.611
208.725
204.891
201.12
197.422
193.81
190.303
186.925
183.704
180.677
177.852
175.27
6.93385
3.15505
2.48861
2.31982
2.31197
2.3811
2.49711
2.64663
2.82277
3.02159
3.24062
3.47825
3.73341
4.00541
4.29394
4.59895
4.92064
5.25946
5.61606
5.99126
6.38605
6.80154
7.23898
7.69971
8.18516
8.69685
9.23636
9.80534
10.4055
11.0385
11.7063
12.4105
13.1531
13.9358
14.7606
15.6293
16.544
17.5067
18.5193
19.5839
20.7028
21.8782
23.1123
24.4076
25.7664
27.1912
28.6847
30.2497
31.8888
33.6052
35.4017
37.2816
39.2479
41.3039
43.4528
45.6977
48.042
50.4888
53.0412
55.7021
58.4744
61.361
64.3643
67.4868
70.7306
74.0976
77.5893
81.2072
84.952
88.8244
92.8245
96.952
101.206
105.586
110.09
114.715
119.46
124.322
129.296
134.379
139.566
144.853
150.235
155.705
161.26
166.891
172.595
178.363
184.19
190.069
195.992
201.953
207.943
213.955
219.98
226
231.986
237.933
243.831
249.672
255.446
261.141
266.747
272.254
277.649
282.922
288.063
293.062
297.909
302.594
307.109
311.443
315.59
319.539
323.285
326.82
330.138
333.231
336.094
338.721
341.108
343.252
345.149
346.798
348.196
349.344
350.239
350.882
351.274
351.415
351.308
350.955
350.361
349.527
348.457
347.156
345.633
343.894
341.943
339.786
337.429
334.883
332.156
329.256
326.189
322.965
319.593
316.083
312.443
308.682
304.81
300.835
296.768
292.617
288.391
284.1
279.753
275.358
270.923
266.459
261.971
257.47
252.964
248.459
243.966
239.493
235.048
230.641
226.279
221.969
217.72
213.542
209.446
205.446
201.561
197.812
194.225
190.829
187.623
184.642
7.20771
3.2895
2.58206
2.39366
2.37306
2.43197
2.5386
2.67878
2.84526
3.03396
3.24241
3.46904
3.71289
3.97337
4.25025
4.54355
4.85354
5.1807
5.52571
5.8894
6.27277
6.67694
7.10314
7.55274
8.02718
8.52801
9.05684
9.6154
10.2054
10.8288
11.4875
12.1835
12.9187
13.6954
14.5157
15.3819
16.2963
17.2613
18.2794
19.3533
20.4855
21.6789
22.9363
24.2608
25.6552
27.1229
28.6671
30.2912
31.9988
33.7936
35.6792
37.6596
39.7387
41.9204
44.2088
46.6078
49.1213
51.7534
54.5076
57.3878
60.3973
63.5395
66.8174
70.2339
73.7916
77.4925
81.3387
85.3315
89.472
93.7606
98.1975
102.782
107.513
112.39
117.409
122.569
127.866
133.296
138.856
144.539
150.342
156.257
162.279
168.4
174.614
180.915
187.295
193.746
200.261
206.833
213.452
220.111
226.8
233.509
240.228
246.91
253.549
260.136
266.662
273.114
279.483
285.755
291.92
297.965
303.877
309.643
315.253
320.697
325.963
331.041
335.921
340.594
345.052
349.284
353.284
357.044
360.558
363.82
366.821
369.556
372.021
374.213
376.13
377.77
379.131
380.214
381.018
381.543
381.789
381.76
381.458
380.887
380.051
378.955
377.603
376.002
374.159
372.081
369.774
367.247
364.506
361.562
358.425
355.101
351.602
347.936
344.113
340.145
336.04
331.808
327.461
323.008
318.458
313.823
309.112
304.335
299.502
294.622
289.704
284.758
279.792
274.816
269.838
264.865
259.908
254.976
250.076
245.219
240.412
235.664
230.985
226.385
221.876
217.474
213.195
209.06
205.091
201.31
197.712
194.331
7.37714
3.38071
2.64277
2.43774
2.40517
2.45383
2.5507
2.68104
2.83735
3.01546
3.21288
3.42811
3.66025
3.90882
4.17365
4.45482
4.75266
5.06768
5.40059
5.75224
6.12365
6.51594
6.9304
7.36839
7.83143
8.32111
8.83914
9.38734
9.96763
10.582
11.2327
11.9218
12.6517
13.425
14.244
15.1116
16.0304
17.0035
18.0339
19.1247
20.2792
21.5009
22.7933
24.1602
25.6052
27.1325
28.746
30.45
32.2489
34.1473
36.1496
38.2607
40.4853
42.8283
45.2945
47.8888
50.6158
53.4803
56.4867
59.6392
62.9419
66.3984
70.0121
73.7864
77.724
81.8272
86.0981
90.5379
95.1476
99.9273
104.877
109.995
115.28
120.731
126.343
132.113
138.038
144.112
150.33
156.687
163.175
169.787
176.515
183.35
190.285
197.313
204.424
211.61
218.863
226.174
233.533
240.931
248.358
255.804
263.211
270.57
277.871
285.102
292.254
299.312
306.265
313.1
319.806
326.368
332.768
338.996
345.04
350.89
356.533
361.959
367.158
372.12
376.836
381.297
385.495
389.423
393.074
396.446
399.525
402.305
404.785
406.963
408.837
410.405
411.667
412.623
413.274
413.62
413.663
413.407
412.855
412.013
410.884
409.474
407.79
405.838
403.627
401.164
398.458
395.517
392.351
388.968
385.381
381.598
377.63
373.487
369.182
364.723
360.124
355.393
350.544
345.586
340.531
335.388
330.17
324.887
319.548
314.165
308.746
303.303
297.843
292.376
286.912
281.46
276.027
270.623
265.259
259.942
254.682
249.489
244.372
239.343
234.415
229.601
224.92
220.389
216.028
211.855
207.86
204.08
7.45507
3.4334
2.67459
2.4559
2.41233
2.45095
2.53796
2.65827
2.80424
2.97165
3.15803
3.36194
3.58254
3.81942
4.07246
4.34182
4.62786
4.93115
5.25242
5.59257
5.95264
6.33382
6.73744
7.16496
7.61799
8.09823
8.60756
9.14796
9.72159
10.3307
10.9778
11.6654
12.3962
13.1731
13.9993
14.8778
15.8121
16.8057
17.8624
18.9861
20.1809
21.451
22.8008
24.235
25.7581
27.3752
29.0911
30.9113
32.8409
34.8856
37.0508
39.3424
41.766
44.3274
47.0323
49.8864
52.8952
56.0643
59.3986
62.9029
66.5811
70.437
74.4744
78.6964
83.1059
87.7051
92.4956
97.4782
102.653
108.021
113.579
119.326
125.259
131.375
137.67
144.139
150.776
157.575
164.53
171.633
178.877
186.254
193.75
201.356
209.064
216.864
224.749
232.708
240.733
248.812
256.937
265.096
273.281
281.424
289.509
297.525
305.462
313.306
321.045
328.666
336.156
343.501
350.691
357.712
364.536
371.156
377.561
383.74
389.682
395.376
400.811
405.977
410.866
415.469
419.777
423.784
427.483
430.869
433.935
436.675
439.087
441.169
442.918
444.336
445.42
446.174
446.597
446.692
446.462
445.91
445.043
443.864
442.38
440.598
438.525
436.168
433.537
430.64
427.487
424.088
420.453
416.593
412.518
408.241
403.771
399.122
394.305
389.331
384.212
378.961
373.589
368.109
362.53
356.866
351.127
345.325
339.471
333.574
327.647
321.698
315.738
309.776
303.822
297.884
291.973
286.097
280.266
274.489
268.776
263.137
257.583
252.125
246.776
241.55
236.464
231.536
226.781
222.215
217.825
213.653
7.4569
3.45311
2.68192
2.45247
2.39913
2.42824
2.50569
2.61624
2.75221
2.90937
3.08533
3.27868
3.48865
3.71489
3.95737
4.21628
4.49206
4.78533
5.09689
5.42772
5.77894
6.15187
6.54795
6.96881
7.41623
7.89215
8.3987
8.93818
9.51306
10.126
10.78
11.478
12.2233
13.0195
13.8702
14.7794
15.7512
16.7901
17.9008
19.088
20.357
21.7131
23.1619
24.709
26.3602
28.1214
29.9988
31.9986
34.1275
36.3919
38.7987
41.3544
44.0657
46.9393
49.9815
53.1988
56.5975
60.1835
63.9626
67.9398
72.1175
76.4988
81.0873
85.8859
90.8967
96.1213
101.56
107.213
113.08
119.157
125.444
131.936
138.629
145.517
152.596
159.858
167.296
174.902
182.668
190.586
198.649
206.85
215.16
223.575
232.086
240.685
249.36
258.103
266.904
275.754
284.639
293.547
302.399
311.181
319.881
328.485
336.982
345.357
353.596
361.685
369.61
377.359
384.917
392.27
399.399
406.294
412.942
419.331
425.45
431.289
436.838
442.086
447.025
451.648
455.945
459.912
463.541
466.828
469.767
472.355
474.589
476.467
477.988
479.153
479.963
480.419
480.523
480.28
479.692
478.765
477.504
475.917
474.008
471.788
469.263
466.443
463.337
459.955
456.308
452.407
448.263
443.887
439.291
434.488
429.49
424.309
418.958
413.449
407.796
402.01
396.104
390.09
383.982
377.79
371.526
365.204
358.832
352.424
345.989
339.538
333.082
326.63
320.191
313.776
307.393
301.052
294.762
288.534
282.377
276.302
270.319
264.44
258.678
253.048
247.564
242.244
237.101
232.149
227.374
222.819
7.4001
3.44582
2.66941
2.43212
2.37056
2.39125
2.46009
2.56188
2.68899
2.83728
3.00442
3.18909
3.39059
3.60866
3.84335
4.09494
4.36399
4.65122
4.95758
5.28421
5.63243
6.00376
6.39993
6.82285
7.27464
7.75766
8.27448
8.8279
9.42097
10.057
10.7396
11.4726
12.2602
13.1069
14.0172
14.9962
16.049
17.1813
18.3992
19.7088
21.1167
22.6299
24.2554
26.0006
27.8723
29.8771
32.0225
34.3162
36.7659
39.3794
42.1641
45.1276
48.2771
51.6196
55.1619
58.9105
62.8716
67.0512
71.4557
76.0935
80.9573
86.0489
91.372
96.9286
102.719
108.744
115.001
121.488
128.203
135.14
142.296
149.664
157.237
165.009
172.972
181.115
189.431
197.909
206.539
215.31
224.213
233.236
242.362
251.581
260.882
270.255
279.691
289.18
298.712
308.283
317.846
327.333
336.732
346.03
355.212
364.265
373.175
381.928
390.509
398.905
407.101
415.084
422.841
430.357
437.618
444.612
451.326
457.75
463.872
469.683
475.174
480.334
485.157
489.635
493.761
497.529
500.934
503.973
506.64
508.934
510.852
512.394
513.56
514.351
514.768
514.814
514.494
513.81
512.768
511.375
509.635
507.558
505.15
502.421
499.38
496.037
492.401
488.485
484.298
479.854
475.164
470.241
465.097
459.744
454.197
448.468
442.57
436.517
430.321
423.996
417.555
411.01
404.375
397.662
390.882
384.048
377.171
370.264
363.336
356.399
349.462
342.536
335.631
328.756
321.92
315.134
308.405
301.745
295.164
288.671
282.278
275.996
269.839
263.82
257.954
252.257
246.74
241.417
236.273
231.353
7.29941
3.4166
2.64104
2.39897
2.33129
2.34537
2.40745
2.50257
2.62325
2.7655
2.9271
3.10688
3.30427
3.51914
3.75171
4.00248
4.27221
4.5619
4.87279
5.20638
5.5644
5.94884
6.36194
6.80625
7.28455
7.79995
8.35588
8.95611
9.6047
10.306
11.0649
11.8867
12.7771
13.7423
14.7884
15.9216
17.149
18.478
19.9166
21.4731
23.1561
24.9746
26.9382
29.0579
31.3407
33.7904
36.4174
39.2308
42.2393
45.4509
48.8734
52.5139
56.3793
60.4755
64.8081
69.382
74.2014
79.27
84.5907
90.1652
95.9916
102.069
108.395
114.969
121.788
128.848
136.144
143.672
151.424
159.394
167.573
175.954
184.526
193.28
202.206
211.293
220.529
229.902
239.402
249.017
258.734
268.542
278.428
288.381
298.389
308.446
318.539
328.667
338.804
348.87
358.836
368.686
378.409
387.99
397.415
406.67
415.742
424.618
433.284
441.726
449.931
457.888
465.582
473.002
480.135
486.969
493.495
499.701
505.577
511.116
516.308
521.146
525.623
529.732
533.468
536.826
539.803
542.394
544.598
546.413
547.838
548.873
549.52
549.78
549.656
549.153
548.273
547.024
545.409
543.437
541.115
538.451
535.454
532.134
528.499
524.562
520.334
515.825
511.048
506.015
500.74
495.234
489.511
483.585
477.469
471.176
464.72
458.115
451.374
444.51
437.537
430.468
423.315
416.091
408.809
401.48
394.116
386.728
379.329
371.927
364.533
357.158
349.811
342.502
335.239
328.033
320.892
313.826
306.846
299.961
293.182
286.522
279.993
273.608
267.381
261.327
255.458
249.785
244.292
239.03
7.19345
3.37769
2.60675
2.36378
2.29391
2.30562
2.3657
2.45953
2.5799
2.72305
2.887
3.07081
3.27419
3.49734
3.74087
4.00572
4.29316
4.60481
4.94261
5.30885
5.70616
6.13755
6.60643
7.11662
7.67234
8.27823
8.93954
9.66211
10.452
11.3153
12.2592
13.2918
14.422
15.66
17.015
18.4917
20.1013
21.8544
23.7618
25.8341
28.0822
30.5166
33.148
35.9866
39.0411
42.3188
45.8278
49.5756
53.5691
57.8141
62.3156
67.0775
72.1027
77.3933
82.9503
88.7737
94.8628
101.216
107.83
114.702
121.825
129.195
136.805
144.649
152.718
161.005
169.501
178.198
187.086
196.154
205.393
214.791
224.338
234.023
243.833
253.758
263.785
273.904
284.103
294.371
304.697
315.07
325.48
335.922
346.381
356.862
367.339
377.731
387.995
398.128
408.116
417.945
427.604
437.079
446.357
455.428
464.277
472.894
481.266
489.382
497.229
504.798
512.076
519.053
525.719
532.064
538.078
543.753
549.08
554.051
558.661
562.901
566.767
570.254
573.357
576.072
578.398
580.331
581.87
583.016
583.768
584.127
584.096
583.677
582.875
581.693
580.136
578.212
575.926
573.286
570.3
566.978
563.328
559.36
555.086
550.516
545.662
540.536
535.15
529.518
523.651
517.563
511.269
504.78
498.111
491.275
484.286
477.158
469.904
462.537
455.07
447.517
439.89
432.202
424.465
416.69
408.889
401.074
393.254
385.441
377.644
369.873
362.138
354.447
346.81
339.236
331.734
324.314
316.984
309.755
302.639
295.645
288.788
282.079
275.532
269.16
262.975
256.989
251.184
245.616
7.10616
3.33812
2.57547
2.3372
2.27154
2.2882
2.35463
2.45672
2.58768
2.74416
2.92464
3.12873
3.35679
3.60976
3.88914
4.19692
4.53558
4.90814
5.31816
5.7697
6.26751
6.81691
7.42383
8.09516
8.83831
9.66058
10.5714
11.5818
12.7033
13.941
15.3081
16.8175
18.4823
20.3157
22.3305
24.5382
26.9515
29.5829
32.4444
35.5473
38.9018
42.5171
46.4014
50.5611
55.0009
59.724
64.7323
70.0263
75.6055
81.4678
87.6099
94.0276
100.715
107.667
114.875
122.332
130.03
137.959
146.11
154.474
163.041
171.8
180.742
189.855
199.129
208.554
218.119
227.815
237.631
247.557
257.582
267.696
277.89
288.153
298.477
308.85
319.264
329.712
340.184
350.67
361.169
371.668
382.154
392.661
403.122
413.465
423.657
433.699
443.579
453.285
462.808
472.137
481.262
490.172
498.855
507.303
515.504
523.449
531.127
538.528
545.644
552.463
558.978
565.178
571.056
576.603
581.811
586.673
591.182
595.332
599.117
602.531
605.571
608.232
610.511
612.406
613.914
615.035