/*--------------------------------*- C++ -*----------------------------------*\
  =========                 |
  \\      /  F ield         | OpenFOAM: The Open Source CFD Toolbox
   \\    /   O peration     | Website:  https://openfoam.org
    \\  /    A nd           | Version:  9
     \\/     M anipulation  |
\*---------------------------------------------------------------------------*/
FoamFile
{
    format      ascii;
    class       volScalarField;
    location    "0.29";
    object      k;
}
// * * * * * * * * * * * * * * * * * * * * * * * * * * * * * * * * * * * * * //

dimensions      [0 2 -2 0 0 0 0];

internalField   nonuniform List<scalar> 
12225
(
0.283133
0.213781
0.16594
0.133609
0.112683
0.100228
0.0940274
0.092311
0.093617
0.0967387
0.100701
0.104767
0.109726
0.114966
0.120163
0.125211
0.1305
0.135688
0.349238
0.324672
0.310154
0.307185
0.315155
0.332511
0.357013
0.385964
0.416552
0.446209
0.47283
0.494698
0.509768
0.518072
0.519866
0.515364
0.504768
0.486976
0.361992
0.348154
0.33596
0.326059
0.318858
0.314384
0.312347
0.312239
0.313417
0.315198
0.316953
0.318271
0.3191
0.319094
0.318095
0.316083
0.313165
0.309591
0.365619
0.355095
0.344891
0.335478
0.327149
0.320016
0.314024
0.309014
0.304773
0.301089
0.297781
0.294752
0.291945
0.289325
0.286904
0.284765
0.283105
0.282327
0.366992
0.358303
0.349701
0.341435
0.333681
0.326545
0.32006
0.314207
0.308937
0.304189
0.299891
0.296006
0.292515
0.289427
0.286785
0.284686
0.283309
0.282929
0.367521
0.359775
0.3522
0.344871
0.337874
0.331278
0.325122
0.319424
0.31418
0.30937
0.304978
0.301
0.29744
0.294324
0.291702
0.289662
0.288343
0.287906
0.367713
0.360402
0.3534
0.346692
0.340295
0.334234
0.32853
0.323196
0.318231
0.313636
0.309415
0.305575
0.302132
0.299116
0.296576
0.294581
0.293224
0.29258
0.367776
0.360643
0.353921
0.347564
0.34155
0.335873
0.330531
0.32552
0.32084
0.316493
0.312483
0.308823
0.305528
0.302628
0.30016
0.298174
0.296724
0.295836
0.367795
0.360724
0.354118
0.34793
0.342121
0.336669
0.331558
0.326773
0.322308
0.318159
0.314327
0.31082
0.307652
0.304842
0.302417
0.300406
0.298836
0.297705
0.367799
0.360746
0.35418
0.348058
0.34234
0.336997
0.332007
0.32735
0.323013
0.318986
0.315268
0.311858
0.308764
0.305998
0.303574
0.301507
0.299804
0.298454
0.367799
0.360749
0.354193
0.34809
0.342402
0.337101
0.33216
0.327559
0.32328
0.31931
0.315643
0.312274
0.309205
0.306439
0.303981
0.301835
0.299997
0.298457
0.367799
0.360748
0.354191
0.348089
0.342407
0.337113
0.332183
0.327594
0.323328
0.319371
0.315711
0.312342
0.30926
0.306463
0.30395
0.301717
0.299755
0.298058
0.367799
0.360747
0.354187
0.348081
0.342395
0.337098
0.332165
0.327572
0.323301
0.319335
0.315662
0.312273
0.30916
0.306318
0.30374
0.301419
0.299345
0.297513
0.367799
0.360746
0.354182
0.348071
0.342378
0.337072
0.332127
0.327521
0.323233
0.319246
0.315546
0.312122
0.308963
0.306061
0.303407
0.30099
0.298799
0.296837
0.3678
0.360745
0.354178
0.348061
0.342359
0.337042
0.332083
0.327458
0.323147
0.319131
0.315396
0.311927
0.308714
0.305744
0.303007
0.300493
0.298189
0.296103
0.3678
0.360746
0.354176
0.348052
0.342342
0.337012
0.332037
0.327391
0.323054
0.319006
0.315232
0.311716
0.308445
0.305406
0.302589
0.29998
0.297571
0.295372
0.367801
0.360747
0.354174
0.348046
0.342326
0.336984
0.331992
0.327325
0.322961
0.318881
0.315067
0.311504
0.308177
0.305073
0.30218
0.299486
0.296983
0.294683
0.367802
0.360748
0.354173
0.34804
0.342312
0.336958
0.33195
0.327263
0.322874
0.318763
0.314912
0.311304
0.307926
0.304764
0.301804
0.299036
0.296451
0.294064
0.367803
0.360748
0.354172
0.348034
0.342298
0.336933
0.331911
0.327205
0.322793
0.318654
0.314771
0.311126
0.307704
0.304493
0.301478
0.29865
0.295998
0.293541
0.367803
0.360748
0.35417
0.348028
0.342287
0.336915
0.331882
0.327163
0.322735
0.318577
0.314672
0.311002
0.307551
0.304307
0.301256
0.298386
0.29569
0.293185
0.367803
0.360748
0.354168
0.348024
0.342279
0.336902
0.331862
0.327135
0.322696
0.318527
0.314606
0.310919
0.307448
0.30418
0.301103
0.298204
0.295474
0.292933
0.367803
0.360747
0.354166
0.348019
0.34227
0.336886
0.331838
0.327099
0.322646
0.318457
0.314514
0.3108
0.307298
0.303994
0.300875
0.29793
0.295151
0.292555
0.367803
0.360745
0.354159
0.348003
0.342239
0.336834
0.331756
0.326979
0.322479
0.318235
0.314228
0.310442
0.30686
0.30347
0.300258
0.297215
0.294332
0.29163
0.367801
0.360731
0.354118
0.347918
0.342088
0.336594
0.331406
0.3265
0.321854
0.317451
0.313274
0.30931
0.305547
0.301972
0.298577
0.29535
0.292288
0.289411
0.367781
0.360645
0.353909
0.347526
0.341462
0.335692
0.330201
0.324976
0.320007
0.315285
0.3108
0.306546
0.302512
0.298691
0.295072
0.291647
0.288408
0.285376
0.367672
0.360248
0.353076
0.346151
0.339488
0.333107
0.327029
0.321266
0.315826
0.310712
0.305921
0.301447
0.297279
0.293405
0.28981
0.286475
0.283386
0.280546
0.367177
0.358794
0.350473
0.342381
0.334653
0.327398
0.320681
0.314537
0.308984
0.304022
0.299642
0.295827
0.292548
0.289771
0.287458
0.285563
0.284042
0.282856
0.365292
0.354371
0.34369
0.333757
0.324923
0.317368
0.311147
0.306274
0.302747
0.300556
0.299683
0.300094
0.301747
0.304583
0.308528
0.313492
0.319371
0.326029
0.357567
0.338074
0.321616
0.309701
0.302722
0.300702
0.303553
0.311129
0.323241
0.339663
0.360129
0.384321
0.411868
0.442345
0.475283
0.510175
0.546517
0.583597
0.314719
0.263996
0.224331
0.193132
0.168616
0.149495
0.134828
0.123903
0.116171
0.111204
0.108659
0.108257
0.109762
0.11297
0.117695
0.123765
0.131011
0.139241
0.0335339
0.0591466
0.0636656
0.0669562
0.0707402
0.0753254
0.0808746
0.0875572
0.095622
0.10519
0.11607
0.127741
0.139541
0.151208
0.162336
0.178453
0.197831
0.220554
0.244471
0.267772
0.289907
0.310534
0.329664
0.347641
0.365047
0.382939
0.403684
0.429627
0.456298
0.482277
0.507111
0.530717
0.553165
0.574721
0.595951
0.617816
0.641635
0.669003
0.700433
0.732058
0.751083
0.74577
0.704649
0.62043
0.49808
0.359156
0.242043
0.157404
0.102224
0.0746728
0.0650487
0.0642325
0.0663967
0.0689248
0.0715863
0.0746532
0.0779627
0.0794239
0.0777764
0.0733437
0.0685766
0.0670104
0.0716735
0.0857496
0.111947
0.152566
0.185521
0.215867
0.259901
0.357188
0.56046
0.772438
0.959087
1.1144
1.23563
1.32367
1.3813
1.41213
1.42005
1.40892
1.38235
1.34366
1.29574
1.24095
1.18291
1.12439
1.0659
1.00791
0.950835
0.895032
0.840788
0.788332
0.737827
0.689379
0.643023
0.598727
0.556393
0.515862
0.476937
0.43941
0.403113
0.367964
0.334032
0.301703
0.27268
0.253841
0.256188
0.263713
0.272632
0.282829
0.294511
0.30788
0.323062
0.340068
0.358775
0.378909
0.400058
0.421667
0.443092
0.463842
0.482237
0.49356
0.496061
0.488627
0.470775
0.442796
0.405805
0.361498
0.311079
0.252769
0.179327
0.123349
0.0841738
0.0600564
0.0475931
0.0430156
0.0430937
0.0454422
0.0484392
0.051044
0.0526583
0.053057
0.0523721
0.0510412
0.049007
0.0462194
0.0428702
0.0392907
0.0359159
0.0332203
0.0317075
0.0319857
0.0349488
0.0421189
0.0559194
0.0774853
0.105953
0.130328
0.113701
0.110301
0.116364
0.122549
0.128614
0.134713
0.140772
0.145748
0.149221
0.150445
0.148471
0.142466
0.132481
0.125789
0.127961
0.158307
0.222951
0.281602
0.340486
0.391279
0.404257
0.359713
0.0435037
0.0810206
0.0722681
0.0691955
0.0755063
0.0893071
0.107993
0.131108
0.159188
0.192129
0.229556
0.271059
0.316375
0.365526
0.418698
0.472645
0.527358
0.582156
0.63556
0.686617
0.735007
0.780398
0.822378
0.860457
0.894033
0.922367
0.944607
0.959763
0.966413
0.963125
0.950093
0.927807
0.896643
0.857178
0.81033
0.757547
0.70109
0.644686
0.592538
0.54678
0.511604
0.486429
0.46663
0.446469
0.422861
0.395257
0.360242
0.310911
0.245708
0.178508
0.126484
0.0938109
0.0749643
0.0659854
0.0659736
0.0726484
0.0830043
0.0934673
0.0987824
0.095942
0.0874686
0.0792673
0.0784292
0.0920936
0.130131
0.201771
0.293188
0.367998
0.409443
0.44866
0.489371
0.51714
0.530743
0.533254
0.528476
0.519985
0.5106
0.50226
0.496128
0.492829
0.49269
0.495911
0.502655
0.513132
0.525418
0.537532
0.549516
0.561439
0.573378
0.585407
0.597591
0.609963
0.622508
0.635127
0.647612
0.659615
0.670623
0.679958
0.686791
0.690196
0.689242
0.683112
0.671181
0.653029
0.628362
0.59789
0.567904
0.536896
0.504981
0.472888
0.441208
0.410392
0.38076
0.352514
0.325752
0.300487
0.276679
0.254247
0.233082
0.213102
0.19443
0.17874
0.165605
0.154589
0.145137
0.13667
0.128604
0.120498
0.112288
0.104855
0.100448
0.0975896
0.0980708
0.102982
0.11251
0.125855
0.141451
0.157404
0.171942
0.183681
0.191683
0.195361
0.194333
0.188275
0.177492
0.162783
0.145187
0.125894
0.1062
0.0877604
0.0722423
0.0609186
0.0544949
0.0541926
0.0653866
0.0983252
0.157505
0.201534
0.177377
0.151156
0.146196
0.152289
0.162192
0.172672
0.183116
0.193999
0.204053
0.211369
0.213419
0.207471
0.191312
0.171999
0.151941
0.131951
0.114151
0.0994163
0.0872174
0.0794461
0.0869555
0.0968957
0.0436997
0.0880802
0.0896482
0.100704
0.13102
0.173288
0.217651
0.264797
0.315103
0.368054
0.423221
0.480073
0.537973
0.59613
0.653608
0.709453
0.763046
0.813828
0.86111
0.905075
0.945631
0.98255
1.01547
1.04389
1.06721
1.08472
1.09563
1.09907
1.09406
1.07939
1.05377
1.01881
0.975055
0.923301
0.8648
0.801362
0.735346
0.669627
0.607734
0.553402
0.509146
0.47385
0.443334
0.412058
0.381584
0.355289
0.334172
0.313717
0.284866
0.241561
0.188869
0.13914
0.101241
0.077337
0.0661762
0.0670968
0.0770437
0.0917721
0.105588
0.111817
0.110186
0.11067
0.131841
0.188672
0.271391
0.333314
0.352515
0.361882
0.370191
0.381179
0.392863
0.402903
0.412474
0.422963
0.434874
0.447837
0.461081
0.473957
0.486197
0.497872
0.509184
0.520275
0.53113
0.541647
0.552013
0.56217
0.572102
0.581871
0.591602
0.601475
0.611701
0.62249
0.634018
0.646374
0.659512
0.673203
0.68699
0.700167
0.711794
0.720748
0.725836
0.725929
0.720079
0.707566
0.687611
0.662455
0.635264
0.6054
0.573723
0.541084
0.508183
0.475587
0.44374
0.412972
0.383511
0.355501
0.329021
0.304096
0.280697
0.258773
0.238221
0.218862
0.200325
0.18264
0.165788
0.149814
0.134823
0.120965
0.108421
0.097474
0.0884253
0.081229
0.0758945
0.0724448
0.0708809
0.0711685
0.0732177
0.0768319
0.0816548
0.0871677
0.0927472
0.0977495
0.101566
0.103647
0.103561
0.101066
0.0961552
0.0890655
0.0802628
0.070374
0.0605699
0.0526935
0.0491349
0.0537782
0.0758504
0.120804
0.168805
0.178239
0.160414
0.149185
0.14942
0.152901
0.157313
0.1625
0.1687
0.175975
0.183572
0.190059
0.193128
0.189737
0.177965
0.163125
0.14649
0.12987
0.114677
0.101442
0.0901847
0.0805799
0.0720168
0.0656692
0.0426382
0.0983992
0.125873
0.173591
0.241776
0.303395
0.359237
0.4164
0.474778
0.533921
0.593259
0.652038
0.709376
0.764399
0.816374
0.864786
0.909321
0.949778
0.986196
1.01904
1.0484
1.07417
1.09604
1.11359
1.12621
1.13327
1.13403
1.12777
1.11372
1.09101
1.05858
1.015
0.963867
0.905477
0.840723
0.771204
0.699288
0.627875
0.560064
0.498894
0.447135
0.407213
0.38021
0.363776
0.346357
0.325512
0.30455
0.286416
0.269036
0.246151
0.213704
0.174839
0.137313
0.107725
0.0891062
0.0819362
0.0878795
0.103446
0.123642
0.140585
0.152949
0.181467
0.237796
0.298876
0.325374
0.326248
0.323659
0.32627
0.334805
0.348336
0.36503
0.383533
0.402925
0.421907
0.439167
0.453944
0.466251
0.476653
0.48585
0.494361
0.502419
0.510024
0.517047
0.523666
0.529971
0.535806
0.541084
0.545837
0.550224
0.554525
0.559115
0.564423
0.570874
0.578829
0.588511
0.599933
0.612837
0.626649
0.640471
0.653133
0.66332
0.66968
0.670974
0.666157
0.65459
0.63894
0.619457
0.596718
0.571554
0.54473
0.51691
0.488654
0.460427
0.432595
0.405448
0.3792
0.354007
0.329971
0.307154
0.285582
0.265253
0.246105
0.227942
0.210627
0.194059
0.178182
0.163018
0.14867
0.135287
0.12304
0.112071
0.102438
0.0941372
0.0871266
0.0813371
0.0766919
0.0731223
0.0705655
0.0689444
0.0681424
0.0679893
0.0682662
0.0687198
0.0690767
0.0690588
0.0684038
0.0668936
0.0643634
0.0606854
0.0559147
0.0508076
0.0472177
0.048082
0.058914
0.0879385
0.129694
0.156621
0.156846
0.148663
0.143335
0.141479
0.140673
0.140851
0.142105
0.144644
0.148558
0.153668
0.159101
0.162866
0.161804
0.154677
0.144025
0.131264
0.118205
0.106048
0.0953394
0.0862074
0.0785515
0.0720479
0.0658676
0.0424683
0.114415
0.17819
0.269009
0.362798
0.434517
0.498809
0.561466
0.622526
0.682258
0.739966
0.794645
0.84538
0.891541
0.932829
0.969211
1.00081
1.02782
1.05125
1.07202
1.0905
1.10664
1.12014
1.13041
1.13669
1.13815
1.13393
1.12321
1.10524
1.07928
1.04452
0.999902
0.94443
0.88281
0.814954
0.741562
0.664473
0.586783
0.512392
0.445085
0.387501
0.340926
0.306394
0.285493
0.278695
0.274238
0.266192
0.254159
0.240669
0.225858
0.207125
0.18316
0.15645
0.131865
0.114156
0.106493
0.110698
0.128591
0.157973
0.192183
0.232265
0.275681
0.303252
0.308032
0.301668
0.296251
0.298072
0.307906
0.323983
0.344034
0.365669
0.386724
0.405378
0.420414
0.431582
0.439506
0.445252
0.449881
0.454193
0.458664
0.463484
0.468613
0.473845
0.479033
0.483607
0.487227
0.489699
0.491013
0.491349
0.491078
0.490726
0.490925
0.492339
0.49559
0.501161
0.509315
0.520011
0.53285
0.547049
0.561468
0.574824
0.585586
0.59241
0.594071
0.590712
0.583103
0.571598
0.556759
0.539221
0.5196
0.498454
0.476272
0.453471
0.430403
0.407359
0.384577
0.362253
0.34054
0.319561
0.299399
0.280113
0.261724
0.244211
0.227498
0.211559
0.196352
0.181853
0.168069
0.155056
0.142908
0.131732
0.121599
0.112527
0.104479
0.0973854
0.0911606
0.0857269
0.081022
0.0769953
0.0735964
0.0707628
0.0684147
0.0664551
0.0647732
0.063246
0.0617358
0.0600946
0.0581591
0.0557185
0.0526285
0.0493835
0.0478153
0.0514012
0.0656756
0.0955034
0.127901
0.142214
0.143164
0.140199
0.135854
0.132048
0.129095
0.126969
0.125703
0.125451
0.126604
0.129468
0.133673
0.137545
0.138064
0.134055
0.126406
0.116537
0.106078
0.0961543
0.087315
0.0797338
0.0733891
0.0681797
0.0637909
0.0448688
0.14008
0.24769
0.375888
0.482854
0.561876
0.632316
0.697453
0.758132
0.814483
0.865515
0.91028
0.948286
0.979562
1.00453
1.02383
1.03817
1.04824
1.05685
1.0658
1.07559
1.08606
1.09655
1.10602
1.11315
1.11651
1.11471
1.10649
1.09086
1.06705
1.03442
0.992263
0.939099
0.876269
0.807716
0.732732
0.651988
0.567979
0.484836
0.407549
0.340559
0.286361
0.245326
0.217263
0.203157
0.20343
0.208135
0.209834
0.205721
0.197489
0.186641
0.173114
0.157279
0.141493
0.130058
0.127847
0.137188
0.162871
0.208187
0.266098
0.307267
0.305732
0.293021
0.281425
0.27501
0.276943
0.287465
0.304678
0.325836
0.34812
0.368935
0.386284
0.399113
0.407453
0.412206
0.41469
0.416222
0.417862
0.420314
0.423924
0.428711
0.434439
0.440693
0.44639
0.450728
0.453279
0.453813
0.452336
0.449106
0.444623
0.439594
0.434858
0.4313
0.429753
0.430897
0.435162
0.442652
0.453113
0.465895
0.479884
0.494002
0.506524
0.516303
0.521955
0.523918
0.522217
0.51706
0.50881
0.497908
0.484803
0.469922
0.453648
0.436317
0.418224
0.399625
0.380745
0.36178
0.342903
0.324263
0.305988
0.288186
0.270942
0.254317
0.238308
0.222947
0.208256
0.194249
0.180943
0.168364
0.156548
0.14554
0.135375
0.126067
0.1176
0.109933
0.103008
0.096766
0.0911512
0.0861189
0.08163
0.0776453
0.0741202
0.0710028
0.0682338
0.0657453
0.0634541
0.0612579
0.0590234
0.0565559
0.0537221
0.0510317
0.0503924
0.0554433
0.071016
0.0979405
0.121479
0.131116
0.1345
0.133641
0.129122
0.124727
0.121127
0.11785
0.114839
0.112337
0.111116
0.111921
0.114757
0.118307
0.119781
0.11782
0.112448
0.104786
0.0962856
0.0880246
0.0805612
0.0740871
0.0686051
0.0640579
0.0603774
0.0522909
0.179856
0.331213
0.483625
0.596183
0.681227
0.754825
0.818789
0.874072
0.920041
0.955773
0.981095
0.996707
1.00399
1.00466
1.00052
0.993233
0.984214
0.978561
0.978725
0.984842
0.996213
1.01155
1.0291
1.04667
1.06185
1.07219
1.07551
1.07013
1.05501
1.02966
0.993717
0.946535
0.887132
0.819776
0.745255
0.662709
0.573755
0.482346
0.39433
0.315962
0.25176
0.203154
0.169106
0.148253
0.141369
0.146466
0.156056
0.162811
0.163622
0.159959
0.153894
0.146544
0.139462
0.136363
0.142923
0.163553
0.202131
0.268337
0.327064
0.318852
0.287055
0.267139
0.258176
0.259265
0.269475
0.286724
0.308174
0.330842
0.352016
0.369646
0.382692
0.391199
0.396055
0.398595
0.400224
0.402133
0.405146
0.409665
0.415684
0.42286
0.430602
0.438145
0.444169
0.448
0.449146
0.447331
0.442562
0.435167
0.425798
0.415383
0.405026
0.395881
0.389001
0.385219
0.385044
0.388587
0.395635
0.405649
0.417493
0.430409
0.442296
0.45227
0.459929
0.464887
0.466976
0.466234
0.462843
0.457067
0.449203
0.439538
0.428343
0.41586
0.402305
0.387878
0.372763
0.35713
0.341146
0.324964
0.30873
0.292581
0.27664
0.261024
0.245788
0.231017
0.21678
0.203135
0.190134
0.177818
0.166225
0.155381
0.145301
0.135983
0.127405
0.119531
0.112314
0.105703
0.0996531
0.0941229
0.0890796
0.0844938
0.0803363
0.0765752
0.0731738
0.0700864
0.0672514
0.0645799
0.0619369
0.0591347
0.0561096
0.0534775
0.0532484
0.0590116
0.0742988
0.0969535
0.114228
0.12294
0.128677
0.12837
0.123911
0.119926
0.116523
0.112726
0.108401
0.104029
0.100692
0.0996121
0.101089
0.103953
0.105991
0.105518
0.101951
0.0960362
0.0890454
0.0820289
0.0755715
0.069892
0.0650123
0.0608939
0.0574943
0.0668847
0.233571
0.419119
0.581947
0.695991
0.783375
0.85395
0.908552
0.947397
0.969744
0.976027
0.968221
0.949431
0.923299
0.893485
0.863316
0.835595
0.812495
0.799506
0.798109
0.807601
0.826814
0.854198
0.887687
0.924554
0.961398
0.994372
1.01967
1.03417
1.03593
1.02434
0.999554
0.961627
0.910073
0.846963
0.775178
0.692813
0.600563
0.501815
0.402913
0.311997
0.236141
0.178587
0.138456
0.112903
0.0999169
0.099522
0.107838
0.119194
0.127471
0.130753
0.130834
0.129944
0.130205
0.135499
0.151943
0.185222
0.241629
0.312173
0.336257
0.295251
0.261312
0.245831
0.24398
0.2526
0.269045
0.290405
0.31368
0.336131
0.355638
0.371005
0.382014
0.389253
0.393843
0.397143
0.400453
0.404759
0.410601
0.418045
0.426747
0.436063
0.445176
0.453025
0.458905
0.462095
0.461984
0.458177
0.450582
0.439492
0.425617
0.410057
0.394185
0.379479
0.367284
0.358591
0.354022
0.35355
0.356906
0.363583
0.37252
0.38231
0.392265
0.401598
0.409646
0.415928
0.420163
0.422246
0.422209
0.420171
0.41629
0.410737
0.403673
0.395248
0.3856
0.374861
0.36316
0.350627
0.337398
0.323616
0.309424
0.294967
0.280392
0.26585
0.251442
0.23729
0.223503
0.210178
0.1974
0.185239
0.173748
0.162963
0.1529
0.143557
0.13491
0.126926
0.119562
0.112772
0.106512
0.100744
0.0954336
0.0905531
0.0860761
0.0819767
0.0782257
0.0747851
0.0716005
0.0685822
0.0655762
0.0623913
0.0590458
0.0562707
0.0561276
0.0619343
0.0758478
0.0942486
0.107609
0.116553
0.123931
0.124063
0.120166
0.11714
0.11442
0.110463
0.105094
0.0991688
0.0939994
0.0911719
0.0912754
0.0934081
0.0958264
0.0965166
0.0944364
0.0899336
0.0841042
0.0779898
0.0722265
0.0670815
0.0626063
0.0587777
0.0555543
0.0883901
0.293949
0.49893
0.66172
0.772958
0.854819
0.911656
0.943637
0.951055
0.935273
0.900131
0.85114
0.794373
0.735628
0.679998
0.631714
0.594049
0.569168
0.558931
0.562306
0.578272
0.606127
0.645201
0.694409
0.751715
0.813668
0.875305
0.930697
0.974121
1.00139
1.011
1.00334
0.979128
0.938896
0.884243
0.817963
0.738134
0.644669
0.540105
0.430694
0.326163
0.236734
0.168537
0.12156
0.0918939
0.075337
0.0696666
0.0738865
0.0841314
0.0952917
0.103292
0.10804
0.111873
0.117769
0.130079
0.154345
0.195117
0.257465
0.319127
0.314842
0.26709
0.239529
0.231391
0.23661
0.251203
0.271927
0.295736
0.319859
0.342049
0.360805
0.375422
0.385938
0.393058
0.398009
0.402224
0.406953
0.412992
0.420607
0.429598
0.439425
0.44933
0.458442
0.46598
0.471476
0.474146
0.473269
0.468317
0.45907
0.445709
0.428888
0.409761
0.389854
0.3709
0.35462
0.342022
0.333994
0.330257
0.33047
0.33371
0.339172
0.346161
0.353987
0.361984
0.369541
0.376155
0.381466
0.385264
0.387463
0.388067
0.387128
0.384719
0.380915
0.375787
0.369399
0.361818
0.353116
0.343375
0.332691
0.321177
0.308959
0.296178
0.282992
0.269561
0.25602
0.242519
0.229199
0.216192
0.203612
0.191559
0.180107
0.16931
0.159197
0.149772
0.141023
0.132919
0.125422
0.118492
0.112085
0.106165
0.100697
0.0956524
0.0910062
0.0867344
0.08281
0.0791971
0.07584
0.0726366
0.0694023
0.0659282
0.0622877
0.0592878
0.0589713
0.0642671
0.0762193
0.0909002
0.101834
0.111143
0.119237
0.120162
0.11752
0.115622
0.113658
0.109637
0.103425
0.0962849
0.0897818
0.085478
0.084274
0.0858301
0.0885588
0.0902561
0.0894462
0.0860965
0.0811436
0.0756431
0.0703063
0.065467
0.0612184
0.0575564
0.0544406
0.113328
0.349561
0.55964
0.71533
0.81779
0.884325
0.91623
0.914582
0.882393
0.825528
0.752106
0.670589
0.588567
0.51234
0.446897
0.395899
0.361563
0.344635
0.341397
0.349114
0.367324
0.396463
0.437532
0.491603
0.558987
0.63811
0.724476
0.810557
0.887216
0.946144
0.983455
0.998934
0.993399
0.968387
0.926431
0.869009
0.79468
0.70265
0.59441
0.475563
0.356723
0.25141
0.170007
0.114629
0.0805663
0.0615009
0.053122
0.0536468
0.0608554
0.0714039
0.0812127
0.0887004
0.0956048
0.105425
0.122819
0.152248
0.197027
0.259368
0.306055
0.284975
0.242049
0.22301
0.222118
0.233277
0.252371
0.276114
0.301651
0.32658
0.349034
0.367708
0.381909
0.391733
0.398151
0.40271
0.406981
0.412104
0.418616
0.426522
0.43546
0.444846
0.453969
0.462041
0.468727
0.473501
0.475547
0.47408
0.468469
0.458389
0.443931
0.425653
0.404715
0.382732
0.361383
0.342994
0.328196
0.318242
0.312523
0.310272
0.31084
0.313649
0.318206
0.324032
0.33061
0.337398
0.343894
0.349691
0.354506
0.358173
0.360617
0.361815
0.361769
0.360487
0.357979
0.35425
0.349312
0.343185
0.335902
0.327516
0.318102
0.307759
0.296609
0.284808
0.272504
0.25986
0.247044
0.234222
0.221554
0.209181
0.197228
0.185794
0.174955
0.164754
0.155213
0.146327
0.138077
0.130432
0.123354
0.116804
0.110745
0.105144
0.0999712
0.0952021
0.0908145
0.0867846
0.0830802
0.0796464
0.0763718
0.0730454
0.069431
0.0656072
0.0623852
0.0617203
0.0661355
0.0759294
0.0874984
0.0967648
0.106084
0.114342
0.116349
0.115193
0.114276
0.112781
0.108963
0.102455
0.0944564
0.0868056
0.081318
0.0791969
0.0804508
0.0836051
0.0862645
0.0865632
0.0841415
0.0798174
0.0746875
0.0695551
0.064832
0.0606597
0.0570555
0.053982
0.136315
0.390045
0.594589
0.738838
0.827215
0.871969
0.874375
0.838767
0.772881
0.687057
0.591916
0.496572
0.408265
0.332498
0.272999
0.231491
0.207757
0.200224
0.201997
0.21048
0.225633
0.248493
0.281173
0.326707
0.388421
0.468504
0.565724
0.673421
0.779922
0.871206
0.93925
0.982096
0.999462
0.9939
0.968291
0.923421
0.858189
0.771071
0.662226
0.536038
0.403103
0.279702
0.181654
0.115233
0.0756868
0.0543036
0.0443341
0.0425975
0.0472642
0.0560487
0.065729
0.0742849
0.0828761
0.095143
0.11569
0.147743
0.193741
0.25162
0.283366
0.256131
0.221621
0.210756
0.216096
0.231969
0.254461
0.280517
0.307589
0.333513
0.356414
0.374777
0.387867
0.396147
0.401138
0.40473
0.408483
0.413283
0.419371
0.42654
0.434347
0.44224
0.44963
0.455952
0.461196
0.464779
0.465914
0.463776
0.457638
0.447073
0.432158
0.413337
0.391717
0.369301
0.347145
0.328501
0.313816
0.303216
0.296394
0.29273
0.291609
0.292597
0.295401
0.299727
0.305189
0.311307
0.317588
0.323602
0.329031
0.333667
0.33739
0.340131
0.341844
0.34249
0.342029
0.340423
0.337643
0.333669
0.328494
0.322134
0.314624
0.306027
0.296438
0.285987
0.274817
0.263095
0.251
0.238716
0.226421
0.214281
0.202446
0.191038
0.180152
0.169854
0.160179
0.15114
0.142726
0.134916
0.127678
0.120976
0.114774
0.10904
0.103744
0.0988599
0.0943671
0.0902447
0.0864656
0.0829798
0.0796763
0.0763359
0.0727012
0.0688147
0.0654201
0.0643227
0.0676826
0.0753762
0.0843543
0.0922453
0.101112
0.109205
0.112322
0.112577
0.112422
0.111243
0.107609
0.100936
0.0924194
0.0840536
0.0778853
0.0753692
0.0767318
0.0805298
0.0841536
0.0854051
0.0836867
0.0797644
0.0748043
0.0697065
0.0649594
0.0607509
0.0571197
0.054032
0.152246
0.409819
0.603057
0.734635
0.80748
0.830786
0.808074
0.748011
0.662484
0.56397
0.463097
0.368127
0.28545
0.219596
0.172696
0.144197
0.131409
0.130932
0.13587
0.144233
0.155713
0.171053
0.192336
0.22322
0.268919
0.335361
0.42655
0.540286
0.665904
0.783743
0.880518
0.951602
0.994034
1.01107
1.00486
0.976072
0.923747
0.845726
0.74056
0.61066
0.465459
0.322752
0.204143
0.122716
0.0755582
0.0513175
0.0402676
0.0372436
0.0402649
0.0473594
0.0561036
0.0646836
0.0739942
0.0876089
0.109728
0.142483
0.187613
0.238406
0.258059
0.231527
0.205366
0.201468
0.211823
0.231311
0.256391
0.284357
0.312905
0.339812
0.362831
0.380193
0.391446
0.397732
0.401142
0.403723
0.406851
0.411101
0.416428
0.42242
0.428543
0.434289
0.439241
0.443189
0.446367
0.448244
0.448113
0.445136
0.438478
0.427523
0.412452
0.393694
0.371874
0.350109
0.329526
0.311619
0.297363
0.287003
0.280118
0.276009
0.274104
0.274114
0.275925
0.279387
0.284197
0.289913
0.296056
0.302201
0.308028
0.313326
0.31796
0.321836
0.324873
0.326992
0.328113
0.328166
0.327092
0.324848
0.321409
0.316762
0.310914
0.303892
0.295755
0.286596
0.276546
0.265762
0.25442
0.242713
0.230832
0.218965
0.20728
0.195921
0.185006
0.174618
0.164814
0.155618
0.147036
0.139054
0.131648
0.124787
0.118437
0.112566
0.107143
0.102143
0.0975436
0.0933267
0.0894689
0.0859263
0.0825956
0.0792657
0.0756726
0.0718075
0.0682995
0.0667575
0.0690438
0.0748385
0.0816395
0.0882029
0.0961937
0.103846
0.107845
0.109267
0.109693
0.108698
0.105116
0.0983402
0.0896098
0.0810114
0.0747358
0.0724047
0.0743454
0.0790309
0.083604
0.0856134
0.0843517
0.080621
0.0756795
0.0705099
0.0656576
0.0613464
0.0576335
0.0544909
0.155866
0.410382
0.590787
0.711237
0.771725
0.779658
0.741332
0.669007
0.576746
0.476917
0.378767
0.289391
0.21464
0.158578
0.12237
0.104095
0.0996627
0.104617
0.113077
0.122983
0.133426
0.144506
0.157665
0.176051
0.205043
0.252367
0.326369
0.430967
0.561211
0.694559
0.813192
0.908134
0.975972
1.01688
1.032
1.02194
0.985876
0.921258
0.825043
0.696947
0.543748
0.382752
0.240244
0.138514
0.0800647
0.0515931
0.0393169
0.0356259
0.0375597
0.0433011
0.0509183
0.059007
0.0684706
0.0827198
0.105263
0.137459
0.180203
0.222854
0.233933
0.211043
0.192815
0.193993
0.208166
0.230325
0.257353
0.286923
0.316824
0.344485
0.367164
0.383042
0.392246
0.396661
0.398778
0.400635
0.403363
0.407227
0.411876
0.416648
0.420869
0.424014
0.425954
0.427301
0.427962
0.427653
0.425844
0.421759
0.414513
0.403137
0.387885
0.369705
0.349466
0.328721
0.309162
0.292344
0.279195
0.269787
0.263525
0.259647
0.257655
0.257411
0.258933
0.262142
0.266762
0.272368
0.278501
0.284771
0.290895
0.29669
0.302028
0.306799
0.310888
0.314171
0.316526
0.317851
0.318069
0.317133
0.315018
0.311712
0.307211
0.301522
0.294655
0.286689
0.277714
0.26786
0.257292
0.246197
0.234774
0.223223
0.211728
0.200455
0.18954
0.179087
0.169169
0.15983
0.151085
0.142935
0.135362
0.12834
0.121839
0.115828
0.110276
0.105157
0.10045
0.0961354
0.0921934
0.0885851
0.0852178
0.0818968
0.0783639
0.0745618
0.0709897
0.0690353
0.0703292
0.0744956
0.0794593
0.0846547
0.0914327
0.0983547
0.102828
0.105066
0.105883
0.104928
0.101281
0.0944863
0.0858527
0.0775088
0.0717149
0.070164
0.0731433
0.0789112
0.0843378
0.0868371
0.0857591
0.0820378
0.0770271
0.0717529
0.0667802
0.0623488
0.0585308
0.0553083
0.156536
0.393564
0.560761
0.676583
0.731808
0.733757
0.690215
0.61547
0.524449
0.428725
0.335764
0.251444
0.181233
0.129807
0.0983736
0.0851944
0.0863475
0.0969649
0.109863
0.122878
0.134702
0.14498
0.154667
0.166118
0.18386
0.21547
0.270915
0.358343
0.47654
0.611508
0.743809
0.858444
0.948079
1.01079
1.04682
1.05644
1.03882
0.991228
0.909409
0.79016
0.636158
0.461534
0.294251
0.166351
0.0907879
0.0552379
0.0409764
0.0366085
0.0377445
0.0423831
0.0488808
0.0562776
0.0656403
0.0800822
0.102252
0.133102
0.17236
0.20698
0.212661
0.194522
0.182978
0.188039
0.204649
0.228401
0.256592
0.287232
0.318132
0.346346
0.36873
0.383343
0.390794
0.393786
0.395056
0.396572
0.399237
0.403014
0.407229
0.410964
0.413399
0.414014
0.413148
0.411734
0.409648
0.406746
0.402697
0.397043
0.388898
0.377538
0.362831
0.345238
0.325775
0.305979
0.287617
0.272208
0.260523
0.252413
0.247122
0.243879
0.242305
0.242388
0.2442
0.247656
0.252456
0.25818
0.264414
0.270837
0.277238
0.283482
0.289459
0.29504
0.300065
0.304352
0.307721
0.310029
0.311179
0.311133
0.309894
0.307483
0.303919
0.299205
0.293351
0.286396
0.278384
0.269408
0.259603
0.249138
0.238209
0.227016
0.215758
0.204613
0.193737
0.183252
0.173249
0.163787
0.154898
0.146592
0.13886
0.131683
0.125035
0.118885
0.113205
0.107968
0.103152
0.0987387
0.0947095
0.0910304
0.0876192
0.0843002
0.0808265
0.0771013
0.0735004
0.0711874
0.0716172
0.0744503
0.0778836
0.0816814
0.0870106
0.0929033
0.0973593
0.0999829
0.100961
0.0999138
0.0961412
0.0894581
0.0812502
0.0736475
0.0689145
0.0687064
0.0731101
0.0800333
0.0860848
0.0887208
0.0875434
0.083699
0.0786077
0.073273
0.0682283
0.0637052
0.0597869
0.0564716
0.154218
0.380097
0.517608
0.634012
0.691486
0.69446
0.654091
0.585004
0.50173
0.414839
0.330696
0.254121
0.18973
0.141381
0.110307
0.0951544
0.0942719
0.104797
0.119292
0.134072
0.147097
0.157492
0.16586
0.174
0.185467
0.206803
0.24761
0.317922
0.421498
0.549772
0.684981
0.809958
0.914265
0.993788
1.04766
1.07569
1.07689
1.04852
0.98561
0.882555
0.737351
0.558315
0.370352
0.212123
0.111434
0.0634818
0.0453318
0.0398311
0.0401312
0.0437353
0.0491471
0.055832
0.0650088
0.0792829
0.100507
0.129478
0.164496
0.191924
0.194647
0.181285
0.174997
0.182781
0.200794
0.225318
0.25407
0.285313
0.316784
0.345194
0.367154
0.380929
0.387567
0.389919
0.390855
0.392329
0.395117
0.398947
0.40286
0.405699
0.406509
0.40504
0.401869
0.39795
0.393318
0.387918
0.381715
0.374368
0.365149
0.35334
0.338615
0.321303
0.30242
0.28354
0.266449
0.252574
0.242472
0.235754
0.231563
0.229202
0.228428
0.229294
0.231835
0.235886
0.241099
0.247076
0.253482
0.260103
0.266823
0.273566
0.280234
0.28667
0.292654
0.297926
0.302229
0.30535
0.307164
0.307638
0.306819
0.304797
0.30166
0.297458
0.292242
0.285999
0.278737
0.270505
0.261393
0.251539
0.241113
0.23031
0.219328
0.208356
0.197561
0.187084
0.17703
0.167477
0.158469
0.150027
0.142153
0.134834
0.128048
0.121767
0.115963
0.110611
0.105689
0.101178
0.0970617
0.0933104
0.0898523
0.086531
0.0831122
0.0794665
0.0758623
0.0732518
0.072954
0.0747416
0.076949
0.0793918
0.0831454
0.0877385
0.0916821
0.0942325
0.0951096
0.0938573
0.0899595
0.0835728
0.0761373
0.0697479
0.0666165
0.0682347
0.0743051
0.0822664
0.0885508
0.0909027
0.089371
0.0853448
0.0802389
0.0749518
0.0699325
0.065381
0.0613882
0.0579764
0.151297
0.423694
0.485705
0.576574
0.642815
0.658704
0.630436
0.573728