/*--------------------------------*- C++ -*----------------------------------*\
  =========                 |
  \\      /  F ield         | OpenFOAM: The Open Source CFD Toolbox
   \\    /   O peration     | Website:  https://openfoam.org
    \\  /    A nd           | Version:  9
     \\/     M anipulation  |
\*---------------------------------------------------------------------------*/
FoamFile
{
    format      ascii;
    class       volScalarField;
    location    "0.29";
    object      kU;
}
// * * * * * * * * * * * * * * * * * * * * * * * * * * * * * * * * * * * * * //

dimensions      [0 2 -2 0 0 0 0];

internalField   nonuniform List<scalar> 
12225
(
0.0849399
0.0641344
0.0497819
0.0400828
0.033805
0.0300683
0.0282082
0.0276933
0.0280851
0.0290216
0.0302102
0.0314301
0.0329179
0.0344898
0.0360488
0.0375632
0.03915
0.0407065
0.104771
0.0974016
0.0930462
0.0921555
0.0945464
0.0997533
0.107104
0.115789
0.124966
0.133863
0.141849
0.148409
0.15293
0.155422
0.15596
0.154609
0.15143
0.146093
0.108598
0.104446
0.100788
0.0978176
0.0956574
0.0943152
0.093704
0.0936717
0.0940252
0.0945593
0.0950858
0.0954813
0.09573
0.0957281
0.0954286
0.094825
0.0939495
0.0928774
0.109686
0.106528
0.103467
0.100643
0.0981447
0.0960049
0.0942073
0.0927041
0.0914319
0.0903266
0.0893342
0.0884256
0.0875836
0.0867976
0.0860713
0.0854296
0.0849314
0.0846982
0.110098
0.107491
0.10491
0.10243
0.100104
0.0979634
0.096018
0.094262
0.0926812
0.0912566
0.0899674
0.0888017
0.0877545
0.0868281
0.0860356
0.0854058
0.0849927
0.0848786
0.110256
0.107933
0.10566
0.103461
0.101362
0.0993833
0.0975366
0.0958271
0.0942541
0.0928109
0.0914935
0.0902999
0.089232
0.0882971
0.0875105
0.0868986
0.086503
0.0863718
0.110314
0.108121
0.10602
0.104008
0.102088
0.10027
0.098559
0.0969588
0.0954693
0.0940909
0.0928244
0.0916724
0.0906395
0.0897349
0.0889728
0.0883742
0.0879671
0.0877741
0.110333
0.108193
0.106176
0.104269
0.102465
0.100762
0.0991594
0.0976561
0.096252
0.0949478
0.0937449
0.0926468
0.0916585
0.0907883
0.090048
0.0894521
0.0890173
0.0887509
0.110338
0.108217
0.106236
0.104379
0.102636
0.101001
0.0994673
0.0980319
0.0966923
0.0954476
0.0942981
0.0932461
0.0922956
0.0914526
0.090725
0.0901218
0.0896508
0.0893115
0.11034
0.108224
0.106254
0.104417
0.102702
0.101099
0.099602
0.098205
0.0969038
0.0956959
0.0945803
0.0935573
0.0926292
0.0917994
0.0910723
0.0904521
0.0899411
0.0895362
0.11034
0.108225
0.106258
0.104427
0.102721
0.10113
0.0996481
0.0982677
0.0969839
0.0957931
0.0946928
0.0936822
0.0927614
0.0919316
0.0911943
0.0905504
0.089999
0.089537
0.11034
0.108225
0.106257
0.104427
0.102722
0.101134
0.0996549
0.0982783
0.0969985
0.0958112
0.0947132
0.0937025
0.0927779
0.0919389
0.0911849
0.090515
0.0899265
0.0894173
0.11034
0.108224
0.106256
0.104424
0.102719
0.101129
0.0996494
0.0982716
0.0969902
0.0958005
0.0946987
0.093682
0.0927481
0.0918954
0.0911221
0.0904258
0.0898034
0.0892539
0.11034
0.108224
0.106255
0.104421
0.102713
0.101122
0.0996382
0.0982563
0.0969699
0.0957739
0.0946639
0.0936366
0.092689
0.0918183
0.091022
0.0902969
0.0896398
0.089051
0.11034
0.108224
0.106253
0.104418
0.102708
0.101113
0.0996248
0.0982373
0.096944
0.0957394
0.0946188
0.0935782
0.0926141
0.0917232
0.0909022
0.0901478
0.0894567
0.0888308
0.11034
0.108224
0.106253
0.104416
0.102702
0.101104
0.099611
0.0982173
0.0969162
0.0957019
0.0945696
0.0935148
0.0925334
0.0916218
0.0907766
0.089994
0.0892714
0.0886116
0.11034
0.108224
0.106252
0.104414
0.102698
0.101095
0.0995976
0.0981975
0.0968884
0.0956644
0.0945202
0.0934512
0.0924531
0.0915219
0.090654
0.0898459
0.089095
0.0884049
0.110341
0.108224
0.106252
0.104412
0.102694
0.101087
0.0995851
0.0981789
0.0968621
0.0956288
0.0944735
0.0933913
0.0923779
0.0914291
0.0905413
0.0897109
0.0889354
0.0882192
0.110341
0.108224
0.106252
0.10441
0.102689
0.10108
0.0995732
0.0981614
0.0968378
0.0955962
0.0944312
0.0933377
0.0923113
0.0913478
0.0904435
0.0895949
0.0887995
0.0880623
0.110341
0.108224
0.106251
0.104409
0.102686
0.101074
0.0995645
0.0981488
0.0968204
0.0955732
0.0944016
0.0933005
0.0922653
0.091292
0.0903767
0.0895158
0.088707
0.0879554
0.110341
0.108224
0.10625
0.104407
0.102684
0.10107
0.0995586
0.0981404
0.0968089
0.095558
0.0943819
0.0932756
0.0922344
0.0912541
0.0903309
0.0894611
0.0886423
0.08788
0.110341
0.108224
0.10625
0.104406
0.102681
0.101066
0.0995513
0.0981296
0.0967937
0.0955372
0.0943543
0.09324
0.0921893
0.0911982
0.0902626
0.0893791
0.0885452
0.0877666
0.110341
0.108223
0.106248
0.104401
0.102672
0.10105
0.0995267
0.0980936
0.0967436
0.0954705
0.0942684
0.0931325
0.092058
0.0910409
0.0900775
0.0891644
0.0882995
0.0874889
0.11034
0.108219
0.106235
0.104375
0.102626
0.100978
0.0994219
0.09795
0.0965563
0.0952353
0.0939823
0.0927931
0.091664
0.0905916
0.089573
0.0886051
0.0876863
0.0868233
0.110334
0.108194
0.106173
0.104258
0.102438
0.100708
0.0990604
0.0974929
0.0960021
0.0945854
0.0932401
0.0919637
0.0907536
0.0896072
0.0885216
0.0874941
0.0865224
0.0856128
0.110302
0.108074
0.105923
0.103845
0.101846
0.0999322
0.0981086
0.0963797
0.0947478
0.0932136
0.0917764
0.0904341
0.0891838
0.0880216
0.0869429
0.0859426
0.0850157
0.0841637
0.110153
0.107638
0.105142
0.102714
0.100396
0.0982193
0.0962042
0.0943612
0.0926951
0.0912065
0.0898927
0.088748
0.0877643
0.0869314
0.0862373
0.0856689
0.0852125
0.0848568
0.109588
0.106311
0.103107
0.100127
0.097477
0.0952103
0.0933441
0.0918821
0.0908241
0.0901669
0.0899048
0.0900283
0.0905241
0.0913749
0.0925583
0.0940475
0.0958114
0.0978088
0.10727
0.101422
0.0964849
0.0929103
0.0908166
0.0902107
0.091066
0.0933387
0.0969722
0.101899
0.108039
0.115296
0.12356
0.132703
0.142585
0.153052
0.163955
0.175079
0.0944158
0.0791987
0.0672994
0.0579397
0.0505847
0.0448486
0.0404485
0.0371709
0.0348514
0.0333613
0.0325978
0.0324771
0.0329286
0.0338909
0.0353086
0.0371295
0.0393033
0.0417724
0.0100602
0.017744
0.0190997
0.0200869
0.0212221
0.0225976
0.0242624
0.0262672
0.0286866
0.0315569
0.0348211
0.0383222
0.0418622
0.0453625
0.0487008
0.0535359
0.0593493
0.0661662
0.0733413
0.0803315
0.0869722
0.0931602
0.0988993
0.104292
0.109514
0.114882
0.121105
0.128888
0.136889
0.144683
0.152133
0.159215
0.165949
0.172416
0.178785
0.185345
0.192491
0.200701
0.21013
0.219617
0.225325
0.223731
0.211395
0.186129
0.149424
0.107747
0.0726129
0.0472211
0.0306672
0.0224018
0.0195146
0.0192698
0.019919
0.0206774
0.0214759
0.022396
0.0233888
0.0238272
0.0233329
0.0220031
0.020573
0.0201031
0.021502
0.0257249
0.0335842
0.0457697
0.0556562
0.0647601
0.0779703
0.107156
0.168138
0.231732
0.287726
0.334321
0.370688
0.397101
0.41439
0.423639
0.426016
0.422676
0.414706
0.403099
0.388722
0.372286
0.354872
0.337318
0.319771
0.302373
0.285251
0.26851
0.252237
0.236499
0.221348
0.206814
0.192907
0.179618
0.166918
0.154759
0.143081
0.131823
0.120934
0.110389
0.100209
0.090511
0.081804
0.0761523
0.0768564
0.0791139
0.0817895
0.0848487
0.0883534
0.0923641
0.0969186
0.10202
0.107632
0.113673
0.120017
0.1265
0.132928
0.139153
0.144671
0.148068
0.148818
0.146588
0.141232
0.132839
0.121742
0.108449
0.0933236
0.0758306
0.0537981
0.0370046
0.0252521
0.0180169
0.0142779
0.0129047
0.0129281
0.0136327
0.0145317
0.0153132
0.0157975
0.0159171
0.0157116
0.0153124
0.0147021
0.0138658
0.0128611
0.0117872
0.0107748
0.00996609
0.00951225
0.0095957
0.0104846
0.0126357
0.0167758
0.0232456
0.0317858
0.0390983
0.0341102
0.0330903
0.0349091
0.0367646
0.0385842
0.040414
0.0422315
0.0437243
0.0447664
0.0451335
0.0445414
0.0427397
0.0397442
0.0377367
0.0383884
0.0474921
0.0668853
0.0844807
0.102146
0.117384
0.121277
0.107914
0.0130511
0.0243062
0.0216804
0.0207586
0.0226519
0.0267921
0.032398
0.0393325
0.0477564
0.0576386
0.0688667
0.0813177
0.0949126
0.109658
0.125609
0.141793
0.158208
0.174647
0.190668
0.205985
0.220502
0.234119
0.246713
0.258137
0.26821
0.27671
0.283382
0.287929
0.289924
0.288938
0.285028
0.278342
0.268993
0.257153
0.243099
0.227264
0.210327
0.193406
0.177761
0.164034
0.153481
0.145929
0.139989
0.133941
0.126858
0.118577
0.108073
0.0932733
0.0737123
0.0535524
0.0379452
0.0281433
0.0224893
0.0197956
0.0197921
0.0217945
0.0249013
0.0280402
0.0296347
0.0287826
0.0262406
0.0237802
0.0235287
0.0276281
0.0390394
0.0605312
0.0879564
0.110399
0.122833
0.134598
0.146811
0.155142
0.159223
0.159976
0.158543
0.155996
0.15318
0.150678
0.148838
0.147849
0.147807
0.148773
0.150796
0.15394
0.157625
0.16126
0.164855
0.168432
0.172013
0.175622
0.179277
0.182989
0.186752
0.190538
0.194284
0.197884
0.201187
0.203987
0.206037
0.207059
0.206773
0.204934
0.201354
0.195909
0.188509
0.179367
0.170371
0.161069
0.151494
0.141866
0.132362
0.123117
0.114228
0.105754
0.0977255
0.0901461
0.0830038
0.076274
0.0699245
0.0639306
0.058329
0.0536219
0.0496815
0.0463767
0.0435412
0.0410011
0.0385813
0.0361493
0.0336864
0.0314566
0.0301344
0.0292769
0.0294212
0.0308947
0.0337531
0.0377565
0.0424353
0.0472213
0.0515826
0.0551042
0.0575049
0.0586084
0.0582999
0.0564824
0.0532477
0.048835
0.043556
0.0377683
0.0318599
0.0263281
0.0216727
0.0182756
0.0163485
0.0162578
0.019616
0.0294976
0.0472514
0.0604601
0.053213
0.0453467
0.0438589
0.0456866
0.0486576
0.0518017
0.0549347
0.0581997
0.0612158
0.0634107
0.0640257
0.0622414
0.0573936
0.0515998
0.0455824
0.0395853
0.0342454
0.0298249
0.0261652
0.0238338
0.0260867
0.0290687
0.0131099
0.026424
0.0268945
0.0302113
0.0393059
0.0519864
0.0652953
0.0794392
0.0945308
0.110416
0.126966
0.144022
0.161392
0.178839
0.196082
0.212836
0.228914
0.244148
0.258333
0.271522
0.283689
0.294765
0.30464
0.313167
0.320163
0.325416
0.328689
0.32972
0.328218
0.323816
0.316132
0.305644
0.292516
0.27699
0.25944
0.240409
0.220604
0.200888
0.18232
0.166021
0.152744
0.142155
0.133
0.123617
0.114475
0.106587
0.100252
0.094115
0.0854598
0.0724684
0.0566607
0.0417421
0.0303723
0.0232011
0.0198528
0.020129
0.0231131
0.0275316
0.0316763
0.033545
0.0330559
0.0332009
0.0395524
0.0566016
0.0814174
0.0999942
0.105755
0.108565
0.111057
0.114354
0.117859
0.120871
0.123742
0.126889
0.130462
0.134351
0.138324
0.142187
0.145859
0.149362
0.152755
0.156082
0.159339
0.162494
0.165604
0.168651
0.171631
0.174561
0.177481
0.180443
0.18351
0.186747
0.190205
0.193912
0.197854
0.201961
0.206097
0.21005
0.213538
0.216224
0.217751
0.217779
0.216024
0.21227
0.206283
0.198736
0.190579
0.18162
0.172117
0.162325
0.152455
0.142676
0.133122
0.123892
0.115053
0.10665
0.0987064
0.0912288
0.0842092
0.0776319
0.0714663
0.0656586
0.0600974
0.054792
0.0497364
0.0449441
0.040447
0.0362894
0.0325262
0.0292422
0.0265276
0.0243687
0.0227683
0.0217334
0.0212643
0.0213505
0.0219653
0.0230496
0.0244964
0.0261503
0.0278242
0.0293248
0.0304698
0.0310941
0.0310683
0.0303197
0.0288466
0.0267196
0.0240788
0.0211122
0.018171
0.0158081
0.0147405
0.0161335
0.0227551
0.0362412
0.0506416
0.0534717
0.0481243
0.0447554
0.0448261
0.0458703
0.0471939
0.0487501
0.0506099
0.0527926
0.0550716
0.0570178
0.0579384
0.056921
0.0533895
0.0489375
0.0439471
0.0389609
0.0344031
0.0304326
0.0270554
0.024174
0.021605
0.0197008
0.0127915
0.0295198
0.0377619
0.0520774
0.0725327
0.0910185
0.107771
0.12492
0.142433
0.160176
0.177978
0.195611
0.212813
0.22932
0.244912
0.259436
0.272796
0.284933
0.295859
0.305712
0.31452
0.32225
0.328813
0.334076
0.337864
0.33998
0.34021
0.338332
0.334116
0.327302
0.317575
0.304501
0.28916
0.271643
0.252217
0.231361
0.209786
0.188362
0.168019
0.149668
0.13414
0.122164
0.114063
0.109133
0.103907
0.0976537
0.0913651
0.0859248
0.0807109
0.0738452
0.0641113
0.0524516
0.0411938
0.0323176
0.0267319
0.0245808
0.0263638
0.0310338
0.0370925
0.0421755
0.0458848
0.0544402
0.0713388
0.0896628
0.0976122
0.0978744
0.0970977
0.097881
0.100442
0.104501
0.109509
0.11506
0.120877
0.126572
0.13175
0.136183
0.139875
0.142996
0.145755
0.148308
0.150726
0.153007
0.155114
0.1571
0.158991
0.160742
0.162325
0.163751
0.165067
0.166357
0.167735
0.169327
0.171262
0.173649
0.176553
0.17998
0.183851
0.187995
0.192141
0.19594
0.198996
0.200904
0.201292
0.199847
0.196377
0.191682
0.185837
0.179015
0.171466
0.163419
0.155073
0.146596
0.138128
0.129779
0.121634
0.11376
0.106202
0.0989914
0.0921462
0.0856746
0.079576
0.0738314
0.0683827
0.063188
0.0582176
0.0534545
0.0489054
0.0446009
0.0405862
0.0369121
0.0336212
0.0307313
0.0282412
0.026138
0.0244011
0.0230076
0.0219367
0.0211696
0.0206833
0.0204427
0.0203968
0.0204799
0.0206159
0.020723
0.0207177
0.0205211
0.0200681
0.019309
0.0182056
0.0167744
0.0152423
0.0141653
0.0144246
0.0176742
0.0263815
0.0389082
0.0469862
0.0470539
0.044599
0.0430006
0.0424437
0.0422019
0.0422554
0.0426316
0.0433933
0.0445673
0.0461003
0.0477304
0.0488598
0.0485411
0.0464031
0.0432075
0.0393793
0.0354616
0.0318145
0.0286018
0.0258622
0.0235654
0.0216144
0.0197603
0.0127405
0.0343245
0.053457
0.0807026
0.10884
0.130355
0.149643
0.16844
0.186758
0.204677
0.22199
0.238393
0.253614
0.267462
0.279849
0.290763
0.300243
0.308346
0.315374
0.321607
0.327149
0.331993
0.336042
0.339123
0.341008
0.341446
0.340178
0.336963
0.331572
0.323783
0.313357
0.299971
0.283329
0.264843
0.244486
0.222469
0.199342
0.176035
0.153718
0.133526
0.11625
0.102278
0.0919181
0.0856478
0.0836084
0.0822713
0.0798576
0.0762476
0.0722007
0.0677575
0.0621374
0.054948
0.046935
0.0395596
0.0342467
0.0319479
0.0332093
0.0385774
0.0473918
0.0576548
0.0696794
0.0827044
0.0909755
0.0924096
0.0905004
0.0888752
0.0894216
0.0923717
0.0971948
0.10321
0.109701
0.116017
0.121613
0.126124
0.129475
0.131852
0.133576
0.134964
0.136258
0.137599
0.139045
0.140584
0.142154
0.14371
0.145082
0.146168
0.14691
0.147304
0.147405
0.147323
0.147218
0.147277
0.147702
0.148677
0.150348
0.152795
0.156003
0.159855
0.164115
0.16844
0.172447
0.175676
0.177723
0.178221
0.177214
0.174931
0.171479
0.167028
0.161766
0.15588
0.149536
0.142882
0.136041
0.129121
0.122208
0.115373
0.108676
0.102162
0.0958682
0.0898198
0.0840338
0.0785172
0.0732633
0.0682495
0.0634676
0.0589057
0.0545558
0.0504207
0.0465168
0.0428725
0.0395196
0.0364798
0.0337581
0.0313438
0.0292156
0.0273482
0.0257181
0.0243066
0.0230986
0.0220789
0.0212288
0.0205244
0.0199365
0.019432
0.0189738
0.0185207
0.0180284
0.0174477
0.0167155
0.0157886
0.0148151
0.0143446
0.0154204
0.0197027
0.028651
0.0383704
0.0426641
0.0429493
0.0420598
0.0407562
0.0396144
0.0387285
0.0380908
0.037711
0.0376354
0.0379813
0.0388404
0.0401019
0.0412634
0.0414193
0.0402166
0.0379218
0.0349611
0.0318233
0.0288463
0.0261945
0.0239201
0.0220167
0.0204539
0.0191373
0.0134606
0.042024
0.0743071
0.112766
0.144856
0.168563
0.189695
0.209236
0.227439
0.244345
0.259654
0.273084
0.284486
0.293869
0.301359
0.307149
0.31145
0.314472
0.317055
0.319739
0.322676
0.325817
0.328965
0.331805
0.333944
0.334953
0.334412
0.331947
0.327257
0.320114
0.310327
0.297679
0.28173
0.262881
0.242315
0.21982
0.195596
0.170394
0.145451
0.122265
0.102168
0.0859083
0.0735978
0.065179
0.060947
0.061029
0.0624406
0.0629503
0.0617163
0.0592467
0.0559924
0.0519343
0.0471836
0.0424479
0.0390173
0.0383541
0.0411563
0.0488614
0.0624561
0.0798293
0.0921802
0.0917196
0.0879063
0.0844274
0.0825031
0.083083
0.0862396
0.0914034
0.0977509
0.104436
0.110681
0.115885
0.119734
0.122236
0.123662
0.124407
0.124867
0.125359
0.126094
0.127177
0.128613
0.130332
0.132208
0.133917
0.135218
0.135984
0.136144
0.135701
0.134732
0.133387
0.131878
0.130457
0.12939
0.128926
0.129269
0.130549
0.132796
0.135934
0.139769
0.143965
0.148201
0.151957
0.154891
0.156586
0.157175
0.156665
0.155118
0.152643
0.149372
0.145441
0.140977
0.136094
0.130895
0.125467
0.119888
0.114223
0.108534
0.102871
0.097279
0.0917965
0.0864557
0.0812825
0.0762951
0.0714924
0.0668842
0.0624768
0.0582747
0.0542829
0.0505091
0.0469644
0.0436619
0.0406125
0.0378201
0.0352799
0.0329798
0.0309025
0.0290298
0.0273454
0.0258357
0.024489
0.0232936
0.0222361
0.0213008
0.0204702
0.0197236
0.0190362
0.0183774
0.017707
0.0169668
0.0161166
0.0153095
0.0151177
0.016633
0.0213048
0.0293821
0.0364436
0.0393347
0.0403501
0.0400922
0.0387367
0.0374182
0.0363381
0.0353549
0.0344517
0.0337012
0.0333349
0.0335763
0.0344272
0.0354922
0.0359343
0.0353459
0.0337344
0.0314359
0.0288857
0.0264074
0.0241684
0.0222261
0.0205815
0.0192174
0.0181132
0.0156873
0.0539567
0.099364
0.145087
0.178855
0.204368
0.226448
0.245637
0.262222
0.276012
0.286732
0.294329
0.299012
0.301196
0.301398
0.300157
0.29797
0.295264
0.293568
0.293617
0.295453
0.298864
0.303466
0.30873
0.314002
0.318556
0.321658
0.322652
0.321038
0.316503
0.308897
0.298115
0.28396
0.26614
0.245933
0.223577
0.198813
0.172127
0.144704
0.118299
0.0947887
0.075528
0.0609461
0.0507318
0.044476
0.0424107
0.0439399
0.0468167
0.0488433
0.0490866
0.0479877
0.0461681
0.0439631
0.0418387
0.0409088
0.042877
0.049066
0.0606394
0.080501
0.0981191
0.0956556
0.0861164
0.0801417
0.0774528
0.0777795
0.0808425
0.0860171
0.0924523
0.0992526
0.105605
0.110894
0.114808
0.11736
0.118816
0.119579
0.120067
0.12064
0.121544
0.122899
0.124705
0.126858
0.129181
0.131444
0.133251
0.1344
0.134744
0.134199
0.132769
0.13055
0.127739
0.124615
0.121508
0.118764
0.1167
0.115566
0.115513
0.116576
0.118691
0.121695
0.125248
0.129123
0.132689
0.135681
0.137979
0.139466
0.140093
0.13987
0.138853
0.13712
0.134761
0.131862
0.128503
0.124758
0.120692
0.116364
0.111829
0.107139
0.102344
0.0974891
0.0926191
0.0877744
0.0829921
0.0783072
0.0737364
0.069305
0.0650339
0.0609405
0.0570401
0.0533455
0.0498676
0.0466144
0.0435904
0.0407949
0.0382215
0.0358593
0.0336941
0.031711
0.0298959
0.0282369
0.0267239
0.0253481
0.0241009
0.0229726
0.0219521
0.0210259
0.0201754
0.019374
0.0185811
0.0177404
0.0168329
0.0160432
0.0159745
0.0177035
0.0222896
0.029086
0.0342684
0.036882
0.0386031
0.038511
0.0371733
0.0359778
0.034957
0.0338179
0.0325203
0.0312088
0.0302075
0.0298836
0.0303266
0.031186
0.0317974
0.0316553
0.0305854
0.0288109
0.0267136
0.0246087
0.0226714
0.0209676
0.0195037
0.0182682
0.0172483
0.0200654
0.0700714
0.125736
0.174584
0.208797
0.235012
0.256185
0.272566
0.284219
0.290923
0.292808
0.290466
0.284829
0.27699
0.268046
0.258995
0.250678
0.243748
0.239852
0.239433
0.24228
0.248044
0.25626
0.266306
0.277366
0.28842
0.298311
0.305901
0.310252
0.310778
0.307303
0.299866
0.288488
0.273022
0.254089
0.232553
0.207844
0.180169
0.150544
0.120874
0.0935992
0.0708422
0.053576
0.0415369
0.033871
0.0299751
0.0298566
0.0323514
0.0357582
0.0382414
0.039226
0.0392502
0.0389832
0.0390615
0.0406497
0.0455828
0.0555666
0.0724888
0.0936518
0.100877
0.0885752
0.0783936
0.0737494
0.073194
0.0757801
0.0807136
0.0871214
0.094104
0.100839
0.106691
0.111301
0.114604
0.116776
0.118153
0.119143
0.120136
0.121428
0.12318
0.125413
0.128024
0.130819
0.133553
0.135907
0.137671
0.138628
0.138595
0.137453
0.135174
0.131848
0.127685
0.123017
0.118255
0.113844
0.110185
0.107577
0.106206
0.106065
0.107072
0.109075
0.111756
0.114693
0.11768
0.120479
0.122894
0.124778
0.126049
0.126674
0.126663
0.126051
0.124887
0.123221
0.121102
0.118574
0.11568
0.112458
0.108948
0.105188
0.10122
0.0970848
0.0928271
0.08849
0.0841175
0.0797549
0.0754326
0.071187
0.0670509
0.0630535
0.0592201
0.0555717
0.0521244
0.0488889
0.0458701
0.043067
0.040473
0.0380778
0.0358685
0.0338315
0.0319536
0.0302231
0.0286301
0.0271659
0.0258228
0.024593
0.0234677
0.0224355
0.0214802
0.0205747
0.0196728
0.0187174
0.0177137
0.0168812
0.0168383
0.0185803
0.0227543
0.0282746
0.0322827
0.034966
0.0371792
0.037219
0.0360499
0.0351421
0.034326
0.0331389
0.0315282
0.0297507
0.0281998
0.0273516
0.0273826
0.0280224
0.0287479
0.028955
0.0283309
0.0269801
0.0252313
0.0233969
0.021668
0.0201244
0.0187819
0.0176333
0.0166663
0.026517
0.0881846
0.149679
0.198516
0.231887
0.256446
0.273497
0.283091
0.285317
0.280582
0.270039
0.255342
0.238312
0.220689
0.203999
0.189514
0.178215
0.170751
0.167679
0.168692
0.173482
0.181838
0.19356
0.208323
0.225514
0.244101
0.262592
0.279209
0.292236
0.300416
0.3033
0.301001
0.293739
0.281669
0.265273
0.245389
0.22144
0.193401
0.162031
0.129208
0.0978489
0.0710203
0.0505611
0.0364679
0.0275682
0.0226011
0.0209
0.0221659
0.0252394
0.0285875
0.0309877
0.032412
0.0335618
0.0353307
0.0390238
0.0463035
0.0585351
0.0772394
0.095738
0.0944526
0.0801269
0.0718586
0.0694172
0.0709831
0.075361
0.0815782
0.0887209
0.0959577
0.102615
0.108241
0.112627
0.115781
0.117917
0.119403
0.120667
0.122086
0.123898
0.126182
0.128879
0.131827
0.134799
0.137533
0.139794
0.141443
0.142244
0.141981
0.140495
0.137721
0.133713
0.128666
0.122928
0.116956
0.11127
0.106386
0.102607
0.100198
0.099077
0.0991411
0.100113
0.101752
0.103848
0.106196
0.108595
0.110862
0.112846
0.11444
0.115579
0.116239
0.11642
0.116138
0.115416
0.114275
0.112736
0.11082
0.108546
0.105935
0.103013
0.0998074
0.096353
0.0926876
0.0888535
0.0848975
0.0808684
0.0768061
0.0727557
0.0687598
0.0648576
0.0610837
0.0574676
0.0540321
0.050793
0.047759
0.0449317
0.0423068
0.0398756
0.0376267
0.0355475
0.0336256
0.0318494
0.030209
0.0286957
0.0273019
0.0260203
0.024843
0.0237591
0.022752
0.021791
0.0208207
0.0197784
0.0186863
0.0177863
0.0176914
0.0192801
0.0228658
0.02727
0.0305501
0.0333429
0.0357711
0.0360486
0.0352559
0.0346866
0.0340974
0.0328911
0.0310276
0.0288855
0.0269346
0.0256434
0.0252822
0.025749
0.0265676
0.0270768
0.0268339
0.025829
0.0243431
0.0226929
0.0210919
0.0196401
0.0183655
0.0172669
0.0163322
0.0339983
0.104868
0.167892
0.214599
0.245337
0.265298
0.274869
0.274374
0.264718
0.247659
0.225632
0.201177
0.17657
0.153702
0.134069
0.11877
0.108469
0.103391
0.102419
0.104734
0.110197
0.118939
0.13126
0.147481
0.167696
0.191433
0.217343
0.243167
0.266165
0.283843
0.295036
0.29968
0.29802
0.290516
0.277929
0.260703
0.238404
0.210795
0.178323
0.142669
0.107017
0.0754231
0.0510022
0.0343887
0.0241699
0.0184503
0.0159366
0.016094
0.0182566
0.0214212
0.0243638
0.0266101
0.0286814
0.0316275
0.0368458
0.0456743
0.059108
0.0778104
0.0918165
0.0854925
0.0726148
0.0669031
0.0666353
0.0699832
0.0757114
0.0828341
0.0904954
0.0979739
0.10471
0.110312
0.114573
0.11752
0.119445
0.120813
0.122094
0.123631
0.125585
0.127957
0.130638
0.133454
0.136191
0.138612
0.140618
0.14205
0.142664
0.142224
0.140541
0.137517
0.133179
0.127696
0.121415
0.11482
0.108415
0.102898
0.0984588
0.0954725
0.0937568
0.0930815
0.093252
0.0940946
0.0954617
0.0972096
0.0991829
0.101219
0.103168
0.104907
0.106352
0.107452
0.108185
0.108544
0.108531
0.108146
0.107394
0.106275
0.104794
0.102955
0.100771
0.0982548
0.0954307
0.0923277
0.0889828
0.0854425
0.0817513
0.0779579
0.0741131
0.0702667
0.0664661
0.0627542
0.0591683
0.0557383
0.0524864
0.0494263
0.0465638
0.0438981
0.0414231
0.0391295
0.0370061
0.0350411
0.0332235
0.0315432
0.0299914
0.0285606
0.0272443
0.0260354
0.0249241
0.0238939
0.0229115
0.0219136
0.0208293
0.0196821
0.0187156
0.0185161
0.0198406
0.0227788
0.0262495
0.0290295
0.0318252
0.0343027
0.0349046
0.0345579
0.0342829
0.0338344
0.0326888
0.0307364
0.0283369
0.0260417
0.0243954
0.0237591
0.0241352
0.0250815
0.0258793
0.025969
0.0252425
0.0239452
0.0224063
0.0208665
0.0194496
0.0181979
0.0171167
0.0161946
0.0408944
0.117013
0.178377
0.221651
0.248165
0.261591
0.262312
0.25163
0.231864
0.206117
0.177575
0.148972
0.122479
0.0997495
0.0818997
0.0694474
0.0623271
0.0600673
0.0605992
0.063144
0.0676898
0.0745478
0.084352
0.0980122
0.116526
0.140551
0.169717
0.202026
0.233977
0.261362
0.281775
0.294629
0.299839
0.29817
0.290487
0.277026
0.257457
0.231321
0.198668
0.160812
0.120931
0.0839107
0.0544961
0.0345698
0.022706
0.0162911
0.0133002
0.0127793
0.0141793
0.0168146
0.0197187
0.0222855
0.0248628
0.0285429
0.0347071
0.0443228
0.0581222
0.075486
0.0850099
0.0768393
0.0664864
0.0632268
0.0648287
0.0695906
0.0763382
0.0841551
0.0922767
0.100054
0.106924
0.112433
0.11636
0.118844
0.120341
0.121419
0.122545
0.123985
0.125811
0.127962
0.130304
0.132672
0.134889
0.136786
0.138359
0.139434
0.139774
0.139133
0.137291
0.134122
0.129647
0.124001
0.117515
0.11079
0.104144
0.0985504
0.0941449
0.0909649
0.0889183
0.087819
0.0874827
0.0877791
0.0886202
0.0899182
0.0915567
0.0933921
0.0952764
0.0970807
0.0987093
0.1001
0.101217
0.102039
0.102553
0.102747
0.102609
0.102127
0.101293
0.100101
0.0985483
0.0966402
0.0943871
0.091808
0.0889315
0.0857962
0.082445
0.0789284
0.0753
0.0716147
0.0679262
0.0642844
0.0607337
0.0573113
0.0540456
0.0509561
0.0480537
0.0453419
0.0428178
0.0404748
0.0383033
0.0362927
0.0344323
0.0327121
0.0311232
0.029658
0.0283101
0.0270734
0.0259397
0.0248939
0.0239029
0.0229008
0.0218104
0.0206444
0.019626
0.0192968
0.0203048
0.0226129
0.0253063
0.0276736
0.0303335
0.0327615
0.0336967
0.0337731
0.0337265
0.0333728
0.0322827
0.0302808
0.0277258
0.0252161
0.0233656
0.0226108
0.0230196
0.0241589
0.0252461
0.0256215
0.025106
0.0239293
0.0224413
0.020912
0.0194878
0.0182253
0.0171359
0.0162096
0.0456737
0.122946
0.180917
0.220391
0.242244
0.249236
0.242422
0.224403
0.198745
0.169191
0.138929
0.110438
0.0856351
0.0658788
0.0518087
0.0432592
0.0394228
0.0392797
0.0407609
0.04327
0.0467139
0.0513158
0.0577009
0.066966
0.0806757
0.100608
0.127965
0.162086
0.199771
0.235123
0.264155
0.285481
0.29821
0.303321
0.301458
0.292822
0.277124
0.253718
0.222168
0.183198
0.139638
0.0968255
0.0612429
0.0368147
0.0226675
0.0153953
0.0120803
0.0111731
0.0120795
0.0142078
0.0168311
0.0194051
0.0221983
0.0262827
0.0329183
0.0427449
0.056284
0.0715218
0.0774177
0.0694582
0.0616099
0.0604403
0.0635469
0.0693932
0.0769173
0.085307
0.0938715
0.101944
0.108849
0.114058
0.117434
0.11932
0.120342
0.121117
0.122055
0.12333
0.124928
0.126726
0.128563
0.130287
0.131772
0.132957
0.13391
0.134473
0.134434
0.133541
0.131543
0.128257
0.123735
0.118108
0.111562
0.105033
0.0988579
0.0934858
0.089209
0.0861008
0.0840353
0.0828028
0.0822312
0.0822342
0.0827775
0.0838162
0.0852591
0.086974
0.0888169
0.0906603
0.0924083
0.0939977
0.0953879
0.0965507
0.0974619
0.0980975
0.0984339
0.0984497
0.0981275
0.0974545
0.0964227
0.0950286
0.0932741
0.0911677
0.0887265
0.0859788
0.0829639
0.0797285
0.076326
0.0728138
0.0692497
0.0656895
0.0621839
0.0587763
0.0555017
0.0523855
0.0494441
0.0466855
0.0441108
0.0417162
0.0394944
0.0374361
0.0355311
0.0337697
0.0321429
0.0306428
0.0292631
0.027998
0.0268407
0.0257779
0.0247787
0.0237797
0.0227018
0.0215423
0.0204898
0.0200273
0.0207131
0.0224515
0.0244919
0.0264609
0.0288581
0.0311539
0.0323534
0.0327802
0.0329079
0.0326095
0.0315348
0.0295021
0.0268829
0.0243034
0.0224207
0.0217214
0.0223036
0.0237093
0.0250812
0.025684
0.0253055
0.0241863
0.0227038
0.021153
0.0196973
0.0184039
0.01729
0.0163473
0.0467597
0.123115
0.177236
0.213371
0.231518
0.233897
0.2224
0.200702
0.173024
0.143075
0.11363
0.0868173
0.0643919
0.0475733
0.0367109
0.0312285
0.0298988
0.0313852
0.0339232
0.0368948
0.0400278
0.0433518
0.0472995
0.0528153
0.061513
0.07571
0.0979106
0.12929
0.168363
0.208368
0.243957
0.27244
0.292792
0.305064
0.309601
0.306583
0.295763
0.276377
0.247513
0.209084
0.163124
0.114826
0.0720731
0.0415542
0.0240194
0.0154779
0.0117951
0.0106878
0.0112679
0.0129903
0.0152755
0.0177021
0.0205412
0.0248159
0.031579
0.0412378
0.054061
0.0668561
0.0701799
0.0633128
0.0578446
0.0581978
0.0624498
0.0690974
0.0772059
0.086077
0.0950472
0.103345
0.110149
0.114913
0.117674
0.118998
0.119633
0.12019
0.121009
0.122168
0.123563
0.124994
0.126261
0.127204
0.127786
0.12819
0.128389
0.128296
0.127753
0.126528
0.124354
0.120941
0.116366
0.110911
0.10484
0.0986162
0.0927485
0.0877033
0.0837585
0.080936
0.0790576
0.0778942
0.0772964
0.0772233
0.0776798
0.0786426
0.0800287
0.0817104
0.0835503
0.0854312
0.0872686
0.0890071
0.0906085
0.0920398
0.0932664
0.0942512
0.0949579
0.0953553
0.0954207
0.0951399
0.0945053
0.0935135
0.0921633
0.0904566
0.0883964
0.0860067
0.0833142
0.080358
0.0771875
0.073859
0.0704322
0.0669668
0.0635185
0.0601366
0.056862
0.0537262
0.0507508
0.0479489
0.0453256
0.0428805
0.0406085
0.0385019
0.0365517
0.0347483
0.0330828
0.0315472
0.030135
0.0288406
0.027658
0.0265755
0.0255653
0.024569
0.0235092
0.0223685
0.0212969
0.0207106
0.0210988
0.0223487
0.0238378
0.0253964
0.0274298
0.0295064
0.0308484
0.0315198
0.031765
0.0314784
0.0303842
0.0283459
0.0257558
0.0232526
0.0215145
0.0210492
0.021943
0.0236734
0.0253013
0.0260511
0.0257277
0.0246113
0.0231081
0.0215259
0.0200341
0.0187046
0.0175593
0.0165925
0.0469608
0.118069
0.168228
0.202975
0.219542
0.220127
0.207064
0.184641
0.157335
0.128618
0.100729
0.0754331
0.0543698
0.038942
0.0295121
0.0255583
0.0259042
0.0290895
0.0329588
0.0368633
0.0404107
0.0434939
0.0464
0.0498353
0.055158
0.0646411
0.0812745
0.107503
0.142962
0.183452
0.223143
0.257533
0.284424
0.303238
0.314046
0.316933
0.311645
0.297368
0.272823
0.237048
0.190848
0.13846
0.0882752
0.0499054
0.0272364
0.0165714
0.0122929
0.0109825
0.0113234
0.0127149
0.0146642
0.0168833
0.0196921
0.0240247
0.0306756
0.0399307
0.051708
0.062094
0.0637983
0.0583567
0.0548933
0.0564118
0.0613946
0.0685202
0.0769776
0.0861695
0.0954395
0.103904
0.110619
0.115003
0.117238
0.118136
0.118517
0.118972
0.119771
0.120904
0.122169
0.123289
0.12402
0.124204
0.123944
0.12352
0.122894
0.122024
0.120809
0.119113
0.116669
0.113261
0.108849
0.103571
0.0977324
0.0917938
0.0862852
0.0816623
0.078157
0.075724
0.0741366
0.0731637
0.0726914
0.0727163
0.07326
0.0742968
0.0757369
0.077454
0.0793241
0.081251
0.0831713
0.0850447
0.0868377
0.088512
0.0900194
0.0913055
0.0923164
0.0930086
0.0933537
0.09334
0.0929682
0.0922449
0.0911758
0.0897615
0.0880054
0.0859187
0.0835152
0.0808224
0.0778808
0.0747415
0.0714627
0.0681049
0.0647274
0.061384
0.0581211
0.0549756
0.0519747
0.0491361
0.0464695
0.0439776
0.0416581
0.039505
0.0375105
0.0356656
0.0339616
0.0323905
0.0309456
0.0296216
0.0284128
0.0273091
0.0262857
0.0252901
0.024248
0.0231304
0.0220501
0.0213562
0.0214852
0.0223351
0.0233651
0.0245044
0.0261032
0.027871
0.0292078
0.0299949
0.0302883
0.0299742
0.0288424
0.0268374
0.024375
0.0220943
0.0206743
0.0206119
0.021933
0.02401
0.0258255
0.0266163
0.026263
0.0251097
0.0235823
0.0219819
0.0204685
0.0191116
0.0179361
0.0169415
0.0462654
0.114029
0.155282
0.190204
0.207446
0.208338
0.196227
0.175501
0.150519
0.124452
0.0992087
0.0762364
0.056919
0.0424143
0.033092
0.0285463
0.0282816
0.0314392
0.0357876
0.0402216
0.0441291
0.0472476
0.049758
0.0522
0.05564
0.0620408
0.074283
0.0953767
0.126449
0.164932
0.205494
0.242987
0.27428