/*--------------------------------*- C++ -*----------------------------------*\
  =========                 |
  \\      /  F ield         | OpenFOAM: The Open Source CFD Toolbox
   \\    /   O peration     | Website:  https://openfoam.org
    \\  /    A nd           | Version:  9
     \\/     M anipulation  |
\*---------------------------------------------------------------------------*/
FoamFile
{
    format      ascii;
    class       volScalarField;
    location    "0.29";
    object      nut;
}
// * * * * * * * * * * * * * * * * * * * * * * * * * * * * * * * * * * * * * //

dimensions      [0 2 -1 0 0 0 0];

internalField   nonuniform List<scalar> 
12225
(
2.91429e-06
2.20043e-06
1.70796e-06
1.37515e-06
1.15977e-06
1.03163e-06
9.67961e-07
9.50555e-07
9.64378e-07
9.97005e-07
1.03839e-06
1.0804e-06
1.13036e-06
1.18355e-06
1.23619e-06
1.28661e-06
1.3384e-06
1.38404e-06
2.47642e-05
1.75726e-05
1.48953e-05
1.36459e-05
1.30474e-05
1.27778e-05
1.26631e-05
1.26055e-05
1.25547e-05
1.24874e-05
1.23945e-05
1.22714e-05
1.20887e-05
1.18585e-05
1.15938e-05
1.13035e-05
1.09945e-05
1.06598e-05
5.33482e-05
4.11599e-05
3.44737e-05
3.01418e-05
2.69879e-05
2.4509e-05
2.24625e-05
2.07314e-05
1.92619e-05
1.80267e-05
1.70078e-05
1.61762e-05
1.54613e-05
1.48603e-05
1.43693e-05
1.39882e-05
1.37256e-05
1.36118e-05
6.81681e-05
5.94287e-05
5.26683e-05
4.74795e-05
4.33672e-05
3.99986e-05
3.71595e-05
3.47194e-05
3.26073e-05
3.07994e-05
2.92661e-05
2.79291e-05
2.67777e-05
2.58099e-05
2.503e-05
2.44494e-05
2.40924e-05
2.40095e-05
7.36278e-05
6.91367e-05
6.46008e-05
6.04704e-05
5.68282e-05
5.36448e-05
5.08605e-05
4.84192e-05
4.62874e-05
4.44319e-05
4.27944e-05
4.1358e-05
4.01138e-05
3.90611e-05
3.82066e-05
3.7567e-05
3.71707e-05
3.70629e-05
7.53753e-05
7.32576e-05
7.07434e-05
6.81191e-05
6.5555e-05
6.31412e-05
6.09179e-05
5.89025e-05
5.70932e-05
5.54621e-05
5.40021e-05
5.27078e-05
5.15778e-05
5.0615e-05
4.98281e-05
4.9233e-05
4.88531e-05
4.87187e-05
7.58886e-05
7.47657e-05
7.34011e-05
7.18774e-05
7.02801e-05
6.86801e-05
6.7131e-05
6.56666e-05
6.42946e-05
6.30253e-05
6.18657e-05
6.0821e-05
5.98968e-05
5.91005e-05
5.84421e-05
5.7935e-05
5.7596e-05
5.74413e-05
7.6029e-05
7.52577e-05
7.44022e-05
7.34673e-05
7.24749e-05
7.14543e-05
7.04343e-05
6.94333e-05
6.84685e-05
6.75536e-05
6.66998e-05
6.59164e-05
6.52122e-05
6.45964e-05
6.40789e-05
6.36705e-05
6.33824e-05
6.3222e-05
7.60647e-05
7.54027e-05
7.47362e-05
7.40562e-05
7.33622e-05
7.26601e-05
7.19574e-05
7.1263e-05
7.05864e-05
6.99365e-05
6.93216e-05
6.87498e-05
6.82288e-05
6.77667e-05
6.73715e-05
6.70512e-05
6.68124e-05
6.66581e-05
7.60731e-05
7.54413e-05
7.48354e-05
7.42484e-05
7.36761e-05
7.31167e-05
7.25707e-05
7.20398e-05
7.1527e-05
7.10362e-05
7.05717e-05
7.01383e-05
6.97409e-05
6.93851e-05
6.90761e-05
6.88189e-05
6.86171e-05
6.84715e-05
7.60749e-05
7.54505e-05
7.48613e-05
7.43034e-05
7.3773e-05
7.32677e-05
7.27859e-05
7.23269e-05
7.18907e-05
7.14783e-05
7.10912e-05
7.07315e-05
7.04019e-05
7.01053e-05
6.98446e-05
6.96222e-05
6.94396e-05
6.92971e-05
7.60752e-05
7.54522e-05
7.48667e-05
7.43158e-05
7.37967e-05
7.33074e-05
7.28459e-05
7.24111e-05
7.20022e-05
7.16191e-05
7.12619e-05
7.09316e-05
7.06293e-05
7.03564e-05
7.01142e-05
6.99038e-05
6.97254e-05
6.95792e-05
7.60753e-05
7.54524e-05
7.48675e-05
7.43182e-05
7.38021e-05
7.33173e-05
7.28621e-05
7.24352e-05
7.20357e-05
7.16627e-05
7.13162e-05
7.09961e-05
7.07028e-05
7.04367e-05
7.01983e-05
6.99876e-05
6.98042e-05
6.96488e-05
7.60753e-05
7.54524e-05
7.48673e-05
7.43178e-05
7.38018e-05
7.33174e-05
7.28629e-05
7.24371e-05
7.20389e-05
7.16674e-05
7.1322e-05
7.10024e-05
7.07084e-05
7.04399e-05
7.01967e-05
6.99783e-05
6.97842e-05
6.96155e-05
7.60754e-05
7.54523e-05
7.48669e-05
7.43168e-05
7.37999e-05
7.33145e-05
7.28587e-05
7.24313e-05
7.20311e-05
7.16571e-05
7.13085e-05
7.09848e-05
7.06853e-05
7.04097e-05
7.01573e-05
6.99276e-05
6.97201e-05
6.95364e-05
7.60754e-05
7.54524e-05
7.48666e-05
7.43158e-05
7.3798e-05
7.33111e-05
7.28535e-05
7.24237e-05
7.20205e-05
7.16427e-05
7.12895e-05
7.09599e-05
7.06534e-05
7.03691e-05
7.01065e-05
6.98648e-05
6.96436e-05
6.94452e-05
7.60756e-05
7.54525e-05
7.48664e-05
7.43151e-05
7.37962e-05
7.33078e-05
7.28483e-05
7.2416e-05
7.20096e-05
7.16278e-05
7.12697e-05
7.09342e-05
7.06205e-05
7.03279e-05
7.00554e-05
6.98025e-05
6.95687e-05
6.93569e-05
7.60757e-05
7.54526e-05
7.48663e-05
7.43144e-05
7.37946e-05
7.33049e-05
7.28435e-05
7.24088e-05
7.19993e-05
7.16137e-05
7.1251e-05
7.091e-05
7.05899e-05
7.02897e-05
7.00086e-05
6.97458e-05
6.95012e-05
6.92778e-05
7.60758e-05
7.54527e-05
7.48662e-05
7.43138e-05
7.37931e-05
7.33021e-05
7.2839e-05
7.24021e-05
7.19899e-05
7.1601e-05
7.12343e-05
7.08886e-05
7.05629e-05
7.02564e-05
6.99681e-05
6.96973e-05
6.94437e-05
6.92109e-05
7.60758e-05
7.54527e-05
7.4866e-05
7.43131e-05
7.37918e-05
7.32999e-05
7.28356e-05
7.23971e-05
7.19829e-05
7.15916e-05
7.1222e-05
7.08729e-05
7.05432e-05
7.0232e-05
6.99383e-05
6.96613e-05
6.94008e-05
6.91604e-05
7.60758e-05
7.54526e-05
7.48657e-05
7.43125e-05
7.37906e-05
7.32978e-05
7.28323e-05
7.23922e-05
7.19758e-05
7.15818e-05
7.12087e-05
7.08552e-05
7.05203e-05
7.02027e-05
6.99015e-05
6.96158e-05
6.93452e-05
6.90935e-05
7.60758e-05
7.54523e-05
7.48649e-05
7.43105e-05
7.37866e-05
7.32908e-05
7.28207e-05
7.23742e-05
7.19494e-05
7.15445e-05
7.1158e-05
7.07884e-05
7.04343e-05
7.00945e-05
6.97679e-05
6.94536e-05
6.91512e-05
6.8865e-05
7.60754e-05
7.54502e-05
7.48585e-05
7.42959e-05
7.37587e-05
7.32434e-05
7.27467e-05
7.22662e-05
7.17996e-05
7.13452e-05
7.09014e-05
7.0467e-05
7.00409e-05
6.96223e-05
6.92104e-05
6.88048e-05
6.84057e-05
6.80184e-05
7.60713e-05
7.54309e-05
7.48067e-05
7.41905e-05
7.35765e-05
7.2961e-05
7.23424e-05
7.17202e-05
7.10949e-05
7.0467e-05
6.98375e-05
6.92071e-05
6.85765e-05
6.79462e-05
6.73167e-05
6.66884e-05
6.60622e-05
6.54461e-05
7.60347e-05
7.52853e-05
7.44713e-05
7.35911e-05
7.26532e-05
7.16705e-05
7.06566e-05
6.96237e-05
6.85811e-05
6.75356e-05
6.64915e-05
6.54514e-05
6.44163e-05
6.33864e-05
6.2361e-05
6.13395e-05
6.0322e-05
5.9318e-05
7.57634e-05
7.44134e-05
7.27895e-05
7.1005e-05
6.91489e-05
6.72832e-05
6.54463e-05
6.36574e-05
6.19228e-05
6.02414e-05
5.86076e-05
5.70134e-05
5.54504e-05
5.39106e-05
5.23874e-05
5.08762e-05
4.93754e-05
4.7897e-05
7.4099e-05
7.03519e-05
6.64751e-05
6.28301e-05
5.95115e-05
5.65187e-05
5.38131e-05
5.13434e-05
4.90595e-05
4.69174e-05
4.48805e-05
4.29201e-05
4.1015e-05
3.91522e-05
3.73258e-05
3.55361e-05
3.3789e-05
3.21027e-05
6.58651e-05
5.65931e-05
4.99811e-05
4.51151e-05
4.13557e-05
3.83257e-05
3.57858e-05
3.35785e-05
3.15999e-05
2.97825e-05
2.80846e-05
2.64833e-05
2.49699e-05
2.35447e-05
2.22132e-05
2.09821e-05
1.98565e-05
1.88412e-05
3.80505e-05
2.83095e-05
2.38911e-05
2.13674e-05
1.97796e-05
1.87481e-05
1.80783e-05
1.76529e-05
1.73939e-05
1.7247e-05
1.71734e-05
1.71457e-05
1.71451e-05
1.71592e-05
1.718e-05
1.72026e-05
1.7224e-05
1.72412e-05
5.62821e-06
4.72112e-06
4.01183e-06
3.45393e-06
3.01553e-06
2.67362e-06
2.41131e-06
2.21586e-06
2.07746e-06
1.98844e-06
1.94265e-06
1.93512e-06
1.96164e-06
2.01861e-06
2.10275e-06
2.21103e-06
2.34051e-06
2.48784e-06
9.10958e-07
7.46824e-06
8.0709e-06
8.51576e-06
9.03013e-06
9.65916e-06
1.04303e-05
1.13754e-05
1.25251e-05
1.38808e-05
1.53985e-05
1.70005e-05
1.86342e-05
4.79053e-06
5.03229e-06
5.35262e-06
5.64275e-06
5.92518e-06
6.22214e-06
6.47889e-06
6.69381e-06
6.86972e-06
7.00619e-06
7.09759e-06
7.13693e-06
7.12085e-06
7.11127e-06
7.28731e-06
7.5039e-06
7.71991e-06
7.92256e-06
8.1087e-06
8.27598e-06
8.42197e-06
8.54516e-06
8.6467e-06
8.73166e-06
8.81721e-06
8.95665e-06
9.23411e-06
9.56438e-06
9.88842e-06
1.01579e-05
1.02876e-05
1.01325e-05
9.33978e-06
8.03544e-06
2.53478e-05
1.55065e-05
1.01226e-05
8.05045e-06
7.65213e-06
7.86714e-06
8.15999e-06
8.45622e-06
8.78082e-06
9.2314e-06
9.56864e-06
9.56028e-06
9.11028e-06
8.4225e-06
7.94357e-06
8.11441e-06
9.28985e-06
1.17659e-05
3.75808e-06
4.29372e-06
4.58746e-06
4.65852e-06
4.81442e-06
6.39053e-06
8.15059e-06
9.53072e-06
1.06204e-05
1.1452e-05
1.20633e-05
1.24891e-05
1.27597e-05
1.29011e-05
1.29351e-05
1.28804e-05
1.27533e-05
1.25674e-05
1.23332e-05
1.20512e-05
1.17576e-05
1.14542e-05
1.11431e-05
1.08262e-05
1.05057e-05
1.01831e-05
9.86011e-06
9.53814e-06
9.21839e-06
8.90181e-06
8.58901e-06
8.28018e-06
7.975e-06
7.67262e-06
7.37171e-06
7.07063e-06
6.76745e-06
6.45998e-06
6.14625e-06
5.81704e-06
5.43045e-06
5.3685e-06
5.43636e-06
5.52111e-06
5.61575e-06
5.7214e-06
5.83991e-06
5.97245e-06
6.11916e-06
6.27891e-06
6.44923e-06
6.62656e-06
6.80648e-06
6.98299e-06
7.15339e-06
7.32409e-06
7.44757e-06
7.50716e-06
7.49307e-06
7.398e-06
7.21777e-06
6.95275e-06
6.60991e-06
6.20621e-06
5.76002e-06
2.06115e-05
1.42489e-05
9.64257e-06
6.71318e-06
5.13577e-06
4.49643e-06
4.41969e-06
4.62617e-06
4.92819e-06
5.20582e-06
5.38855e-06
5.44577e-06
5.38347e-06
5.24715e-06
5.04024e-06
4.75321e-06
4.4036e-06
4.02324e-06
3.65473e-06
3.34497e-06
3.14348e-06
3.10481e-06
3.30509e-06
3.87555e-06
5.03169e-06
6.91953e-06
9.53733e-06
1.2036e-05
1.06996e-05
1.05125e-05
1.10715e-05
1.16359e-05
1.21803e-05
1.27149e-05
1.32688e-05
1.37189e-05
1.40336e-05
1.41486e-05
1.39778e-05
1.34378e-05
1.24662e-05
1.16528e-05
1.15221e-05
1.33507e-05
4.19037e-06
4.79564e-06
5.3224e-06
5.81991e-06
6.05649e-06
5.87676e-06
1.19923e-06
6.8076e-06
6.71069e-06
6.27282e-06
6.53787e-06
7.48772e-06
8.83238e-06
1.0429e-05
1.2276e-05
1.43538e-05
1.66187e-05
1.90128e-05
2.14682e-05
2.38964e-05
2.69811e-05
3.02014e-05
3.34093e-05
3.65279e-05
3.94734e-05
4.22121e-05
4.47308e-05
4.7017e-05
4.90527e-05
5.08141e-05
5.22721e-05
5.33922e-05
5.41383e-05
5.44815e-05
5.43509e-05
5.37035e-05
5.25642e-05
5.09521e-05
4.88896e-05
4.64087e-05
4.35554e-05
4.03934e-05
3.70025e-05
3.34629e-05
2.97002e-05
2.52534e-05
1.95083e-05
1.51156e-05
1.26008e-05
1.12816e-05
1.05568e-05
9.95668e-06
9.19724e-06
8.10596e-06
6.57305e-06
5.09221e-06
4.18366e-06
3.9764e-06
4.09372e-06
4.02368e-06
3.92059e-06
4.02978e-06
4.30579e-06
4.59609e-06
4.73422e-06
4.65012e-06
4.44052e-06
4.30491e-06
4.35302e-06
4.49314e-06
4.88491e-06
5.65869e-06
6.38604e-06
6.55333e-06
6.55577e-06
6.67472e-06
6.92008e-06
7.11932e-06
7.26589e-06
7.43251e-06
7.68965e-06
8.11115e-06
8.7761e-06
9.77043e-06
1.11821e-05
1.30792e-05
1.54553e-05
1.81479e-05
2.07917e-05
2.29098e-05
2.45384e-05
2.6188e-05
2.78671e-05
2.95783e-05
3.13243e-05
3.31073e-05
3.49286e-05
3.67868e-05
3.86773e-05
4.05902e-05
4.25092e-05
4.44103e-05
4.6261e-05
4.80198e-05
4.96373e-05
5.10569e-05
5.22171e-05
5.30523e-05
5.34887e-05
5.34308e-05
5.27135e-05
5.10702e-05
4.89862e-05
4.66719e-05
4.41481e-05
4.14572e-05
3.86403e-05
3.5738e-05
3.27915e-05
2.98429e-05
2.69345e-05
2.41072e-05
2.13988e-05
1.88412e-05
1.64572e-05
1.42529e-05
1.20886e-05
9.58138e-06
7.49754e-06
6.00576e-06
4.99989e-06
4.33515e-06
3.89528e-06
3.60205e-06
3.41756e-06
3.37673e-06
3.83516e-06
4.20484e-06
4.61655e-06
5.18297e-06
5.96159e-06
6.94145e-06
8.05526e-06
9.20698e-06
1.03007e-05
1.12593e-05
1.20302e-05
1.25803e-05
1.2885e-05
1.29163e-05
1.26734e-05
1.21765e-05
1.14561e-05
1.05554e-05
9.53735e-06
8.49e-06
7.49655e-06
6.58838e-06
5.73948e-06
5.01891e-06
4.75684e-06
5.32246e-06
7.45065e-06
1.27153e-05
1.58213e-05
1.59723e-05
1.63042e-05
1.71489e-05
1.80606e-05
1.88201e-05
1.94351e-05
2.00532e-05
2.06156e-05
2.10295e-05
2.11662e-05
2.08623e-05
1.98878e-05
1.84712e-05
1.66031e-05
1.3508e-05
9.73766e-06
7.24095e-06
5.3648e-06
3.77675e-06
2.65818e-06
2.54846e-06
1.23446e-06
6.7427e-06
7.0412e-06
7.59603e-06
9.58922e-06
1.24221e-05
1.54324e-05
1.85845e-05
2.19028e-05
2.53751e-05
2.89784e-05
3.26789e-05
3.64378e-05
4.02138e-05
4.39695e-05
4.76204e-05
5.11071e-05
5.43865e-05
5.741e-05
6.01993e-05
6.276e-05
6.50888e-05
6.71734e-05
6.89906e-05
7.05064e-05
7.16753e-05
7.24407e-05
7.27344e-05
7.2475e-05
7.15638e-05
6.99035e-05
6.75857e-05
6.46505e-05
6.11631e-05
5.72193e-05
5.2949e-05
4.85107e-05
4.40751e-05
3.97956e-05
3.57316e-05
3.17144e-05
2.71003e-05
2.19165e-05
1.76492e-05
1.46095e-05
1.25186e-05
1.10403e-05
9.8392e-06
8.59608e-06
7.176e-06
5.71644e-06
4.4827e-06
3.62149e-06
3.14848e-06
3.05995e-06
3.32419e-06
3.79506e-06
4.34552e-06
4.7947e-06
4.99262e-06
4.98075e-06
5.00033e-06
5.25949e-06
5.87338e-06
6.66327e-06
6.98433e-06
6.90806e-06
6.79568e-06
6.82716e-06
7.05641e-06
7.5106e-06
8.25583e-06
9.443e-06
1.12719e-05
1.39476e-05
1.76164e-05
2.22577e-05
2.75797e-05
3.30287e-05
3.79741e-05
4.19762e-05
4.49238e-05
4.69602e-05
4.83006e-05
4.94796e-05
5.05972e-05
5.16664e-05
5.27e-05
5.37132e-05
5.47227e-05
5.5746e-05
5.67992e-05
5.78956e-05
5.90432e-05
6.02422e-05
6.14823e-05
6.27414e-05
6.39837e-05
6.5161e-05
6.62141e-05
6.70777e-05
6.76842e-05
6.79671e-05
6.78596e-05
6.7277e-05
6.62133e-05
6.48675e-05
6.32631e-05
6.14388e-05
5.9434e-05
5.72836e-05
5.50185e-05
5.26658e-05
5.02486e-05
4.77865e-05
4.52964e-05
4.27931e-05
4.02897e-05
3.7796e-05
3.53141e-05
3.27963e-05
3.00842e-05
2.68259e-05
2.30909e-05
1.92322e-05
1.56453e-05
1.26105e-05
1.02262e-05
8.45617e-06
7.22469e-06
6.48426e-06
6.03191e-06
5.78085e-06
5.69533e-06
5.76011e-06
5.96636e-06
6.30436e-06
6.75854e-06
7.30463e-06
7.90982e-06
8.53565e-06
9.14166e-06
9.68745e-06
1.01334e-05
1.04443e-05
1.05916e-05
1.0554e-05
1.03117e-05
9.83749e-06
9.12157e-06
8.18369e-06
7.03776e-06
5.74691e-06
4.72998e-06
4.6651e-06
5.66826e-06
8.26589e-06
1.2634e-05
1.62636e-05
1.72736e-05
1.77297e-05
1.81061e-05
1.83799e-05
1.86051e-05
1.88636e-05
1.92016e-05
1.95865e-05
1.99528e-05
2.01866e-05
2.01165e-05
1.95521e-05
1.86819e-05
1.75703e-05
1.62694e-05
1.49235e-05
1.36354e-05
1.23802e-05
1.09048e-05
8.04173e-06
4.87541e-06
1.247e-06
6.99697e-06
8.59777e-06
1.14542e-05
1.5831e-05
2.01105e-05
2.41453e-05
2.81855e-05
3.22657e-05
3.63781e-05
4.04895e-05
4.45501e-05
4.85022e-05
5.22892e-05
5.58621e-05
5.91832e-05
6.22306e-05
6.49938e-05
6.75041e-05
6.9821e-05
7.19702e-05
7.39609e-05
7.57859e-05
7.74213e-05
7.88257e-05
7.994e-05
8.06888e-05
8.09802e-05
8.07065e-05
7.97441e-05
7.79511e-05
7.51662e-05
7.15802e-05
6.72622e-05
6.23287e-05
5.69498e-05
5.135e-05
4.5789e-05
4.05262e-05
3.57768e-05
3.16634e-05
2.81511e-05
2.49694e-05
2.16047e-05
1.82835e-05
1.53991e-05
1.30881e-05
1.1298e-05
9.84622e-06
8.51211e-06
7.16796e-06
5.85657e-06
4.72162e-06
3.89349e-06
3.44857e-06
3.43313e-06
3.86866e-06
4.53308e-06
5.19718e-06
5.67781e-06
5.9962e-06
6.40162e-06
6.89012e-06
7.28148e-06
7.28973e-06
7.12867e-06
7.08375e-06
7.29628e-06
7.86993e-06
8.90498e-06
1.05748e-05
1.31302e-05
1.68263e-05
2.17626e-05
2.76859e-05
3.39346e-05
3.96776e-05
4.43154e-05
4.76936e-05
5.0001e-05
5.15442e-05
5.25905e-05
5.33164e-05
5.38592e-05
5.43522e-05
5.48017e-05
5.52102e-05
5.55857e-05
5.59427e-05
5.6302e-05
5.66888e-05
5.71311e-05
5.7657e-05
5.82906e-05
5.90484e-05
5.99354e-05
6.09411e-05
6.20378e-05
6.31799e-05
6.43063e-05
6.53475e-05
6.62279e-05
6.68735e-05
6.72134e-05
6.71681e-05
6.6776e-05
6.61081e-05
6.51878e-05
6.40485e-05
6.27234e-05
6.1243e-05
5.96356e-05
5.79261e-05
5.61365e-05
5.42856e-05
5.23896e-05
5.04619e-05
4.85136e-05
4.65532e-05
4.45859e-05
4.26086e-05
4.05947e-05
3.8439e-05
3.60147e-05
3.32795e-05
3.02539e-05
2.70486e-05
2.3851e-05
2.08706e-05
1.82786e-05
1.61665e-05
1.45056e-05
1.32247e-05
1.22491e-05
1.1513e-05
1.09617e-05
1.05527e-05
1.02558e-05
1.00521e-05
9.93053e-06
9.88379e-06
9.90335e-06
9.9766e-06
1.00861e-05
1.02099e-05
1.03213e-05
1.0386e-05
1.0352e-05
1.01362e-05
9.61785e-06
8.64266e-06
7.14453e-06
5.53303e-06
4.64099e-06
4.91034e-06
6.05266e-06
8.55413e-06
1.26662e-05
1.65047e-05
1.74545e-05
1.74582e-05
1.73179e-05
1.71715e-05
1.70795e-05
1.70753e-05
1.71744e-05
1.73841e-05
1.76771e-05
1.796e-05
1.80522e-05
1.77877e-05
1.72453e-05
1.65032e-05
1.56736e-05
1.4851e-05
1.40896e-05
1.34063e-05
1.27622e-05
1.18996e-05
9.88771e-06
1.29226e-06
7.61562e-06
1.11863e-05
1.65834e-05
2.25514e-05
2.7735e-05
3.25043e-05
3.70755e-05
4.14885e-05
4.57538e-05
4.98327e-05
5.36691e-05
5.7212e-05
6.04274e-05
6.33019e-05
6.58407e-05
6.80626e-05
6.99944e-05
7.17562e-05
7.34462e-05
7.5111e-05
7.67703e-05
7.84197e-05
8.00303e-05
8.15488e-05
8.28982e-05
8.39781e-05
8.46663e-05
8.48197e-05
8.42765e-05
8.28584e-05
8.03662e-05
7.662e-05
7.18964e-05
6.6306e-05
6.00256e-05
5.33132e-05
4.65137e-05
4.00175e-05
3.41797e-05
2.92341e-05
2.52553e-05
2.21806e-05
1.98189e-05
1.78173e-05
1.58009e-05
1.38506e-05
1.20684e-05
1.05217e-05
9.18555e-06
7.96993e-06
6.81722e-06
5.76118e-06
4.90316e-06
4.36014e-06
4.22061e-06
4.51788e-06
5.18702e-06
6.0112e-06
6.78579e-06
7.42943e-06
7.73589e-06
7.66944e-06
7.47127e-06
7.30535e-06
7.36704e-06
7.80121e-06
8.72293e-06
1.02936e-05
1.2725e-05
1.62721e-05
2.10852e-05
2.69718e-05
3.32678e-05
3.90504e-05
4.36137e-05
4.67712e-05
4.87595e-05
4.99616e-05
5.07076e-05
5.12125e-05
5.15907e-05
5.18909e-05
5.21472e-05
5.23542e-05
5.24988e-05
5.25764e-05
5.25928e-05
5.25643e-05
5.25171e-05
5.24858e-05
5.25106e-05
5.26343e-05
5.28973e-05
5.3333e-05
5.39617e-05
5.47859e-05
5.5787e-05
5.69241e-05
5.81351e-05
5.93518e-05
6.04868e-05
6.14621e-05
6.2199e-05
6.26035e-05
6.27456e-05
6.26391e-05
6.23015e-05
6.17557e-05
6.10259e-05
6.01355e-05
5.91065e-05
5.79587e-05
5.67098e-05
5.53762e-05
5.39722e-05
5.25111e-05
5.10049e-05
4.94641e-05
4.78974e-05
4.63107e-05
4.47039e-05
4.30573e-05
4.13169e-05
3.94542e-05
3.74418e-05
3.52697e-05
3.2962e-05
3.05846e-05
2.82368e-05
2.60254e-05
2.40287e-05
2.22831e-05
2.0789e-05
1.95226e-05
1.84478e-05
1.75265e-05
1.67248e-05
1.6017e-05
1.5386e-05
1.48231e-05
1.43257e-05
1.38942e-05
1.3529e-05
1.32276e-05
1.29782e-05
1.27489e-05
1.24681e-05
1.19964e-05
1.11068e-05
9.55089e-06
7.42582e-06
5.57008e-06
4.79256e-06
5.15785e-06
6.25219e-06
8.69002e-06
1.29393e-05
1.65652e-05
1.71509e-05
1.68479e-05
1.64857e-05
1.6163e-05
1.59019e-05
1.56917e-05
1.55676e-05
1.55874e-05
1.57692e-05
1.60461e-05
1.62303e-05
1.61485e-05
1.58049e-05
1.52634e-05
1.46289e-05
1.39911e-05
1.34069e-05
1.29061e-05
1.2496e-05
1.21435e-05
1.15992e-05
1.40621e-06
8.80251e-06
1.47448e-05
2.21484e-05
2.89884e-05
3.4748e-05
3.99201e-05
4.465e-05
4.89942e-05
5.2959e-05
5.65065e-05
5.96004e-05
6.22275e-05
6.44039e-05
6.61699e-05
6.75825e-05
6.87063e-05
6.96069e-05
7.05026e-05
7.15396e-05
7.278e-05
7.42457e-05
7.59263e-05
7.77807e-05
7.97374e-05
8.16948e-05
8.35217e-05
8.50577e-05
8.61161e-05
8.64879e-05
8.59482e-05
8.42583e-05
8.11464e-05
7.65413e-05
7.07525e-05
6.39364e-05
5.63395e-05
4.83514e-05
4.04825e-05
3.32675e-05
2.7126e-05
2.22562e-05
1.86308e-05
1.60905e-05
1.44287e-05
1.33444e-05
1.23608e-05
1.13344e-05
1.02428e-05
9.15858e-06
8.13743e-06
7.18579e-06
6.31325e-06
5.57977e-06
5.10191e-06
5.00875e-06
5.32625e-06
6.05779e-06
7.0652e-06
8.03849e-06
8.40378e-06
8.02154e-06
7.61695e-06
7.4327e-06
7.56924e-06
8.15516e-06
9.32262e-06
1.12391e-05
1.41261e-05
1.81831e-05
2.3431e-05
2.9483e-05
3.55149e-05
4.06208e-05
4.42943e-05
4.65807e-05
4.78551e-05
4.85342e-05
4.89268e-05
4.92131e-05
4.9477e-05
4.97434e-05
5.00066e-05
5.02068e-05
5.03023e-05
5.02753e-05
5.01223e-05
4.98541e-05
4.94955e-05
4.90842e-05
4.86679e-05
4.83012e-05
4.80413e-05
4.7943e-05
4.8053e-05
4.8403e-05
4.90045e-05
4.98463e-05
5.08933e-05
5.20795e-05
5.33474e-05
5.459e-05
5.57417e-05
5.66551e-05
5.73665e-05
5.78701e-05
5.81655e-05
5.82613e-05
5.81717e-05
5.79131e-05
5.75017e-05
5.69523e-05
5.62783e-05
5.54916e-05
5.46033e-05
5.36237e-05
5.25629e-05
5.14311e-05
5.02383e-05
4.89941e-05
4.77078e-05
4.63871e-05
4.50336e-05
4.36309e-05
4.21733e-05
4.06518e-05
3.90575e-05
3.73886e-05
3.56566e-05
3.38906e-05
3.21343e-05
3.04354e-05
2.8834e-05
2.7356e-05
2.60112e-05
2.47959e-05
2.36973e-05
2.26986e-05
2.17832e-05
2.09362e-05
2.01462e-05
1.94057e-05
1.87105e-05
1.8059e-05
1.74487e-05
1.68671e-05
1.62717e-05
1.55595e-05
1.45338e-05
1.29105e-05
1.05059e-05
7.75518e-06
5.72415e-06
4.97803e-06
5.30122e-06
6.29189e-06
8.87255e-06
1.33108e-05
1.65262e-05
1.68189e-05
1.64435e-05
1.60713e-05
1.57074e-05
1.53255e-05
1.49042e-05
1.45319e-05
1.43295e-05
1.43603e-05
1.459e-05
1.48142e-05
1.48614e-05
1.46713e-05
1.42802e-05
1.37792e-05
1.32555e-05
1.27675e-05
1.23476e-05
1.20111e-05
1.17622e-05
1.15699e-05
1.63698e-06
1.07648e-05
1.89628e-05
2.75521e-05
3.47845e-05
4.07976e-05
4.59879e-05
5.04605e-05
5.42717e-05
5.74182e-05
5.98858e-05
6.16906e-05
6.28889e-05
6.35724e-05
6.38547e-05
6.38584e-05
6.37027e-05
6.34964e-05
6.35503e-05
6.40459e-05
6.50383e-05
6.65364e-05
6.85165e-05
7.09233e-05
7.36671e-05
7.66204e-05
7.96164e-05
8.24501e-05
8.48818e-05
8.66449e-05
8.74586e-05
8.70344e-05
8.50712e-05
8.12809e-05
7.58052e-05
6.89089e-05
6.07794e-05
5.18054e-05
4.25925e-05
3.38745e-05
2.63189e-05
2.03178e-05
1.59144e-05
1.2904e-05
1.1007e-05
1.00116e-05
9.56211e-06
9.26534e-06
8.88367e-06
8.33311e-06
7.67661e-06
6.99979e-06
6.35971e-06
5.82045e-06
5.49712e-06
5.54039e-06
6.02997e-06
6.91068e-06
8.09074e-06
8.84014e-06
8.45106e-06
7.81566e-06
7.53202e-06
7.66593e-06
8.30482e-06
9.57748e-06
1.16522e-05
1.47318e-05
1.89829e-05
2.43558e-05
3.03976e-05
3.62616e-05
4.10847e-05
4.44461e-05
4.64677e-05
4.75627e-05
4.81517e-05
4.85307e-05
4.88619e-05
4.92103e-05
4.95815e-05
4.99488e-05
5.02662e-05
5.04344e-05
5.04197e-05
5.02046e-05
4.97882e-05
4.91876e-05
4.84388e-05
4.75944e-05
4.67206e-05
4.58912e-05
4.51821e-05
4.46637e-05
4.43939e-05
4.44121e-05
4.47306e-05
4.53399e-05
4.62102e-05
4.7267e-05
4.84705e-05
4.96671e-05
5.07853e-05
5.17962e-05
5.26692e-05
5.33844e-05
5.39343e-05
5.43211e-05
5.45527e-05
5.46397e-05
5.45921e-05
5.44189e-05
5.41274e-05
5.37233e-05
5.32117e-05
5.25974e-05
5.18857e-05
5.10825e-05
5.01952e-05
4.92319e-05
4.82017e-05
4.71141e-05
4.59777e-05
4.47921e-05
4.35632e-05
4.22947e-05
4.09891e-05
3.96488e-05
3.82794e-05
3.68914e-05
3.55014e-05
3.41302e-05
3.27988e-05
3.15248e-05
3.03199e-05
2.91888e-05
2.81305e-05
2.71399e-05
2.62096e-05
2.53313e-05
2.44965e-05
2.3697e-05
2.29247e-05
2.21703e-05
2.14202e-05
2.0644e-05
1.97687e-05
1.86412e-05
1.70066e-05
1.4576e-05
1.13428e-05
8.08001e-06
5.91108e-06
5.13653e-06
5.36158e-06
6.27863e-06
9.02097e-06
1.36675e-05
1.64663e-05
1.66314e-05
1.63538e-05
1.60947e-05
1.57493e-05
1.52423e-05
1.45838e-05
1.39292e-05
1.34773e-05
1.33376e-05
1.34836e-05
1.37269e-05
1.38788e-05
1.38244e-05
1.35653e-05
1.31765e-05
1.27424e-05
1.23242e-05
1.19565e-05
1.16567e-05
1.14345e-05
1.12937e-05
2.02852e-06
1.34205e-05
2.32722e-05
3.23242e-05
3.95859e-05
4.54705e-05
5.02277e-05
5.39362e-05
5.6639e-05
5.83507e-05
5.91232e-05
5.90684e-05
5.83498e-05
5.71634e-05
5.57164e-05
5.42098e-05
5.28258e-05
5.17181e-05
5.12136e-05
5.14479e-05
5.24387e-05
5.418e-05
5.66506e-05
5.98067e-05
6.35672e-05
6.77991e-05
7.23079e-05
7.68373e-05
8.10774e-05
8.46827e-05
8.73022e-05
8.85896e-05
8.81865e-05
8.576e-05
8.11668e-05
7.46958e-05
6.64706e-05
5.68275e-05
4.64077e-05
3.61281e-05
2.6969e-05
1.96283e-05
1.42947e-05
1.07264e-05
8.51451e-06
7.31097e-06
6.89188e-06
6.8736e-06
6.97162e-06
6.9471e-06
6.7288e-06
6.38474e-06
6.00943e-06
5.6957e-06
5.57183e-06
5.80336e-06
6.50015e-06
7.62309e-06
8.73744e-06
8.89395e-06
8.12428e-06
7.64847e-06
7.67539e-06
8.25943e-06
9.50551e-06
1.15726e-05
1.46532e-05
1.89012e-05
2.42693e-05
3.03201e-05
3.62333e-05
4.11512e-05
4.46342e-05
4.67854e-05
4.80132e-05
4.87437e-05
4.92791e-05
4.97829e-05
5.03154e-05
5.08724e-05
5.14143e-05
5.18865e-05
5.21987e-05
5.22985e-05
5.21523e-05
5.17397e-05
5.10577e-05
5.01244e-05
4.89804e-05
4.7689e-05
4.63332e-05
4.5008e-05
4.38127e-05
4.28394e-05
4.21572e-05
4.18166e-05
4.18233e-05
4.21625e-05
4.28065e-05
4.36795e-05
4.46711e-05
4.57289e-05
4.67923e-05
4.78091e-05
4.87393e-05
4.95571e-05
5.02502e-05
5.08163e-05
5.12595e-05
5.15862e-05
5.1803e-05
5.19145e-05
5.19232e-05
5.18295e-05
5.16329e-05
5.13322e-05
5.09269e-05
5.04178e-05
4.98076e-05
4.91011e-05
4.8305e-05
4.74285e-05
4.64814e-05
4.54707e-05
4.44076e-05
4.33025e-05
4.21653e-05
4.10052e-05
3.98313e-05
3.8653e-05
3.74807e-05
3.6325e-05
3.51968e-05
3.41051e-05
3.30567e-05
3.20553e-05
3.1102e-05
3.01952e-05
2.93316e-05
2.85067e-05
2.77148e-05
2.69487e-05
2.61988e-05
2.54504e-05
2.46777e-05
2.38282e-05
2.27899e-05
2.13497e-05
1.91936e-05
1.60522e-05
1.21209e-05
8.44321e-06
6.12894e-06
5.2713e-06
5.3848e-06
6.28074e-06
9.08403e-06
1.36938e-05
1.63853e-05
1.66047e-05
1.65306e-05
1.64559e-05
1.61492e-05
1.54863e-05
1.45677e-05
1.36186e-05
1.29011e-05
1.25915e-05
1.26408e-05
1.28977e-05
1.31443e-05
1.32186e-05
1.30832e-05
1.27943e-05
1.24343e-05
1.2069e-05
1.17381e-05
1.14619e-05
1.12522e-05
1.11162e-05
2.57836e-06
1.63334e-05
2.70815e-05
3.60805e-05
4.30324e-05
4.83533e-05
5.21756e-05
5.45611e-05
5.55683e-05
5.52921e-05
5.39125e-05
5.16825e-05
4.88977e-05
4.58638e-05
4.28738e-05
4.01918e-05
3.80401e-05
3.65873e-05
3.5997e-05
3.62587e-05
3.73561e-05
3.92994e-05
4.21175e-05
4.58372e-05
5.04512e-05
5.58809e-05
6.19452e-05
6.83477e-05
7.46873e-05
8.04952e-05
8.53163e-05
8.87291e-05
9.02884e-05
8.96225e-05
8.64498e-05
8.0915e-05
7.30779e-05
6.31808e-05
5.18214e-05
4.00215e-05
2.9083e-05
2.01405e-05
1.3676e-05
9.46023e-06
6.92458e-06
5.53447e-06
4.94554e-06
4.92761e-06
5.18365e-06
5.46537e-06
5.59585e-06
5.55903e-06
5.43931e-06
5.35005e-06
5.43592e-06
5.86444e-06
6.72297e-06
7.91304e-06
8.81519e-06
8.54239e-06
7.82419e-06
7.6417e-06
8.06384e-06
9.16507e-06
1.1085e-05
1.40086e-05
1.81005e-05
2.33574e-05
2.94177e-05
3.55144e-05
4.07662e-05
4.4638e-05
4.71422e-05
4.86506e-05
4.95994e-05
5.03173e-05
5.09899e-05
5.16891e-05
5.24132e-05
5.31198e-05
5.37475e-05
5.42312e-05
5.44833e-05
5.44836e-05
5.41979e-05
5.36022e-05
5.26899e-05
5.14766e-05
5.0003e-05
4.83358e-05
4.65693e-05
4.48141e-05
4.31878e-05
4.18128e-05
4.07591e-05
4.00987e-05
3.98231e-05
3.99126e-05
4.03004e-05
4.09242e-05
4.17238e-05
4.26383e-05
4.36069e-05
4.4575e-05
4.54986e-05
4.63478e-05
4.71068e-05
4.77707e-05
4.83416e-05
4.88246e-05
4.92246e-05
4.95441e-05
4.97827e-05
4.9937e-05
5.00014e-05
4.99693e-05
4.98345e-05
4.95917e-05
4.9238e-05
4.87735e-05
4.82012e-05
4.7528e-05
4.67618e-05
4.5913e-05
4.49951e-05
4.40219e-05
4.30078e-05
4.19668e-05
4.09123e-05
3.98563e-05
3.88097e-05
3.77819e-05
3.67804e-05
3.58111e-05
3.48776e-05
3.39818e-05
3.31241e-05
3.23033e-05
3.15174e-05
3.07634e-05
3.00372e-05
2.93328e-05
2.86409e-05
2.79441e-05
2.72083e-05
2.63622e-05
2.5258e-05
2.36256e-05
2.10926e-05
1.74035e-05
1.29195e-05
8.88177e-06
6.38805e-06
5.40264e-06
5.40456e-06
6.29355e-06
9.04944e-06
1.33944e-05
1.60751e-05
1.66329e-05
1.68405e-05
1.69634e-05
1.66752e-05
1.5832e-05
1.46627e-05
1.34666e-05
1.25282e-05
1.20319e-05
1.19968e-05
1.22747e-05
1.26191e-05
1.28218e-05
1.28053e-05
1.2607e-05
1.23082e-05
1.19813e-05
1.16734e-05
1.14103e-05
1.12063e-05
1.10696e-05
3.20749e-06
1.89412e-05
2.99455e-05
3.85439e-05
4.48679e-05
4.92297e-05
5.17019e-05
5.23736e-05
5.13945e-05
4.90151e-05
4.5582e-05
4.14898e-05
3.71363e-05
3.28937e-05
2.90905e-05
2.59944e-05
2.37958e-05
2.25982e-05
2.22482e-05
2.25988e-05
2.36363e-05
2.54165e-05
2.80519e-05
3.16906e-05
3.64743e-05
4.24743e-05
4.96178e-05
5.76311e-05
6.60319e-05
7.41699e-05
8.14323e-05
8.72925e-05
9.11603e-05
9.26085e-05
9.1288e-05
8.71727e-05
8.0219e-05
7.05462e-05
5.86381e-05
4.55052e-05
3.26871e-05
2.18357e-05
1.39363e-05
8.90633e-06
6.00504e-06
4.46021e-06
3.76281e-06
3.64547e-06
3.87452e-06
4.24701e-06
4.56603e-06
4.7449e-06
4.82999e-06
4.93656e-06
5.21789e-06
5.82669e-06
6.80515e-06
7.97094e-06
8.58735e-06
8.10425e-06
7.62259e-06
7.7883e-06
8.642e-06
1.02957e-05
1.29236e-05
1.67089e-05
2.17186e-05
2.77086e-05
3.40095e-05
3.97173e-05
4.41525e-05
4.71683e-05
4.90577e-05
5.02616e-05
5.11512e-05
5.19546e-05
5.27709e-05
5.3612e-05
5.44409e-05
5.51977e-05
5.58145e-05
5.62237e-05
5.63675e-05
5.62367e-05
5.57972e-05
5.50224e-05
5.39018e-05
5.24497e-05
5.07086e-05
4.87444e-05
4.66609e-05
4.45858e-05
4.26318e-05
4.09734e-05
3.96511e-05
3.87679e-05
3.82875e-05
3.81579e-05
3.83317e-05
3.8759e-05
3.93885e-05
4.01649e-05
4.10299e-05
4.19276e-05
4.2811e-05
4.36475e-05
4.44193e-05
4.51211e-05
4.57556e-05
4.63288e-05
4.68461e-05
4.731e-05
4.77189e-05
4.8067e-05
4.83451e-05
4.85422e-05
4.86463e-05
4.86462e-05
4.85329e-05
4.83005e-05
4.79473e-05
4.74748e-05
4.68893e-05
4.62021e-05
4.54266e-05
4.45784e-05
4.36743e-05
4.27313e-05
4.17661e-05
4.07939e-05
3.98279e-05
3.8879e-05
3.79552e-05
3.70621e-05
3.6203e-05
3.5379e-05
3.45901e-05
3.38351e-05
3.31122e-05
3.24189e-05
3.17518e-05
3.11062e-05
3.04733e-05
2.98353e-05
2.91541e-05
2.83462e-05
2.7238e-05
2.55143e-05
2.27505e-05
1.86858e-05
1.37821e-05
9.41477e-06
6.70191e-06
5.55377e-06
5.44139e-06
6.30077e-06
8.88962e-06
1.28363e-05
1.5565e-05
1.65675e-05
1.70746e-05
1.73343e-05
1.70671e-05
1.61293e-05
1.47677e-05
1.33468e-05
1.22059e-05
1.15731e-05
1.14949e-05
1.18212e-05
1.22764e-05
1.26097e-05
1.27077e-05
1.25914e-05
1.23428e-05
1.20422e-05
1.17456e-05
1.14855e-05
1.12807e-05
1.11408e-05
3.78451e-06
2.08028e-05
3.16293e-05
3.96189e-05
4.51076e-05
4.83116e-05
4.93151e-05
4.83032e-05
4.55836e-05
4.1579e-05
3.6768e-05
3.16268e-05
2.65964e-05
2.20633e-05
1.8331e-05
1.55903e-05
1.39062e-05
1.32358e-05
1.31599e-05
1.34995e-05
1.42506e-05
1.5494e-05
1.73988e-05
2.02195e-05
2.42679e-05
2.98439e-05
3.71142e-05
4.59697e-05
5.5944e-05
6.6171e-05
7.5829e-05
8.42665e-05
9.06555e-05
9.44966e-05
9.53684e-05
9.3103e-05
8.75076e-05
7.8563e-05
6.65928e-05
5.24809e-05
3.78412e-05
2.47991e-05
1.50567e-05
8.92917e-06
5.55233e-06
3.84895e-06
3.08064e-06
2.88384e-06
3.04615e-06
3.40228e-06
3.78336e-06
4.07924e-06
4.30402e-06
4.5641e-06
5.00832e-06
5.75572e-06
6.79591e-06
7.85765e-06
8.20694e-06
7.70452e-06
7.52064e-06
8.0455e-06
9.33787e-06
1.15508e-05
1.48803e-05
1.94684e-05
2.52212e-05
3.16261e-05
3.7807e-05
4.29264e-05
4.66107e-05
4.90076e-05
5.05341e-05
5.16104e-05
5.25274e-05
5.34306e-05
5.43569e-05
5.52791e-05
5.6139e-05
5.6868e-05
5.73968e-05
5.76616e-05
5.76462e-05
5.73463e-05
5.6731e-05
5.57714e-05
5.44509e-05
5.27798e-05
5.08109e-05
4.86051e-05
4.62668e-05
4.39747e-05
4.17888e-05
3.997e-05
3.85451e-05
3.75269e-05
3.6901e-05
3.66272e-05
3.6658e-05
3.6948e-05
3.74527e-05
3.81217e-05
3.88983e-05
3.97249e-05
4.05528e-05
4.13483e-05
4.20945e-05
4.27886e-05
4.34363e-05
4.40468e-05
4.46278e-05
4.51833e-05
4.57118e-05
4.62066e-05
4.66566e-05
4.7047e-05
4.73613e-05
4.75826e-05
4.76955e-05
4.76877e-05
4.7551e-05
4.7279e-05
4.68783e-05
4.63578e-05
4.57301e-05