/*--------------------------------*- C++ -*----------------------------------*\
  =========                 |
  \\      /  F ield         | OpenFOAM: The Open Source CFD Toolbox
   \\    /   O peration     | Website:  https://openfoam.org
    \\  /    A nd           | Version:  9
     \\/     M anipulation  |
\*---------------------------------------------------------------------------*/
FoamFile
{
    format      ascii;
    class       volScalarField;
    location    "0.3";
    object      kU;
}
// * * * * * * * * * * * * * * * * * * * * * * * * * * * * * * * * * * * * * //

dimensions      [0 2 -2 0 0 0 0];

internalField   nonuniform List<scalar> 
12225
(
0.157226
0.132055
0.113084
0.099317
0.0900054
0.0845112
0.0822389
0.0825899
0.0849614
0.0887672
0.0934646
0.0985777
0.103713
0.108563
0.112923
0.116983
0.120743
0.124079
0.180945
0.174883
0.173221
0.17755
0.187815
0.203251
0.222678
0.244667
0.267744
0.290571
0.312053
0.331385
0.348054
0.361777
0.372475
0.379961
0.384708
0.386351
0.184261
0.181296
0.17844
0.176298
0.175401
0.175909
0.177745
0.180703
0.184486
0.18876
0.193196
0.197501
0.201438
0.204827
0.207539
0.209466
0.210834
0.211493
0.184878
0.182077
0.17935
0.176826
0.174672
0.172974
0.171722
0.170858
0.170297
0.169942
0.169702
0.169496
0.169258
0.16894
0.168504
0.168001
0.167448
0.166872
0.185145
0.182634
0.180155
0.177762
0.175512
0.17345
0.171591
0.16993
0.168442
0.167098
0.165866
0.164716
0.163626
0.16258
0.161578
0.160628
0.159748
0.158979
0.185257
0.182938
0.180668
0.178457
0.176327
0.174305
0.172404
0.170627
0.16897
0.167427
0.165986
0.164638
0.163374
0.162191
0.161087
0.160069
0.15915
0.158359
0.185299
0.183078
0.180937
0.178868
0.176877
0.174971
0.173156
0.171435
0.169808
0.168275
0.166833
0.16548
0.164213
0.16303
0.161933
0.160927
0.160021
0.159231
0.185312
0.183132
0.181059
0.179079
0.177186
0.175379
0.173657
0.172019
0.170465
0.168994
0.167606
0.1663
0.165074
0.16393
0.162869
0.161895
0.161012
0.160228
0.185316
0.18315
0.181106
0.17917
0.177334
0.17559
0.173935
0.172364
0.170875
0.169466
0.168135
0.166882
0.165705
0.164606
0.163584
0.162642
0.16178
0.161004
0.185316
0.183153
0.181119
0.179202
0.177391
0.17568
0.174062
0.172532
0.171087
0.169721
0.168433
0.16722
0.166082
0.165018
0.164027
0.163109
0.162262
0.16149
0.185315
0.183153
0.18112
0.179208
0.177406
0.175708
0.174107
0.172597
0.171173
0.169831
0.168567
0.167378
0.166263
0.16522
0.164246
0.163341
0.162501
0.161729
0.185315
0.183151
0.181118
0.179206
0.177406
0.17571
0.174114
0.17261
0.171193
0.169859
0.168604
0.167424
0.166318
0.165281
0.164312
0.163409
0.162568
0.161792
0.185314
0.18315
0.181115
0.179202
0.177401
0.175705
0.174109
0.172605
0.171189
0.169857
0.168603
0.167425
0.166319
0.165282
0.164311
0.163404
0.162557
0.161774
0.185314
0.183149
0.181113
0.179197
0.177394
0.175697
0.174098
0.172592
0.171173
0.169838
0.168581
0.167399
0.166288
0.165246
0.164268
0.163352
0.162494
0.161701
0.185314
0.183148
0.181111
0.179194
0.177388
0.175688
0.174085
0.172575
0.171153
0.169812
0.168549
0.16736
0.166242
0.16519
0.164202
0.163274
0.162404
0.161598
0.185314
0.183148
0.181109
0.17919
0.177383
0.175679
0.174073
0.172559
0.171131
0.169784
0.168515
0.167318
0.16619
0.165127
0.164128
0.163187
0.162303
0.161483
0.185314
0.183148
0.181109
0.179188
0.177378
0.175672
0.174062
0.172544
0.17111
0.169757
0.16848
0.167275
0.166138
0.165065
0.164053
0.1631
0.162202
0.161368
0.185314
0.183148
0.181108
0.179187
0.177375
0.175666
0.174053
0.17253
0.171092
0.169733
0.168448
0.167235
0.166088
0.165005
0.163982
0.163017
0.162106
0.161259
0.185314
0.183148
0.181108
0.179186
0.177373
0.175661
0.174045
0.172518
0.171075
0.16971
0.16842
0.167199
0.166044
0.164951
0.163918
0.162941
0.162019
0.161158
0.185314
0.183149
0.181109
0.179186
0.177371
0.175659
0.17404
0.172511
0.171064
0.169695
0.1684
0.167173
0.166012
0.164913
0.163872
0.162887
0.161956
0.161086
0.185315
0.183149
0.181109
0.179186
0.177371
0.175657
0.174037
0.172506
0.171057
0.169685
0.168386
0.167156
0.165991
0.164886
0.16384
0.162849
0.161911
0.161034
0.185315
0.18315
0.18111
0.179186
0.17737
0.175655
0.174033
0.172499
0.171046
0.16967
0.168366
0.167129
0.165956
0.164843
0.163787
0.162785
0.161835
0.160946
0.185315
0.18315
0.181109
0.179183
0.177364
0.175643
0.174014
0.17247
0.171005
0.169614
0.168293
0.167038
0.165844
0.164709
0.163629
0.162603
0.161627
0.160711
0.185315
0.183148
0.181101
0.179164
0.177327
0.175583
0.173925
0.172346
0.170841
0.169407
0.16804
0.166737
0.165495
0.164312
0.163184
0.162111
0.16109
0.16013
0.185311
0.183129
0.181053
0.179071
0.177174
0.175356
0.173616
0.171951
0.170361
0.168843
0.167398
0.166023
0.164718
0.163479
0.162305
0.161194
0.160142
0.159159
0.185288
0.183042
0.180868
0.178756
0.176709
0.174735
0.172845
0.171048
0.169351
0.167757
0.166268
0.164881
0.163594
0.162402
0.161301
0.160285
0.159348
0.158492
0.185186
0.182755
0.180334
0.177938
0.175624
0.173452
0.171461
0.169668
0.168083
0.166706
0.165532
0.164552
0.163752
0.16312
0.162639
0.162296
0.162076
0.161967
0.184845
0.182062
0.1791
0.176214
0.173702
0.171704
0.170267
0.1694
0.169099
0.169348
0.170118
0.171376
0.173082
0.175195
0.17767
0.180465
0.18354
0.186844
0.182879
0.177284
0.172684
0.170153
0.169955
0.172062
0.176358
0.182676
0.190812
0.200544
0.211646
0.223892
0.237063
0.250954
0.265373
0.280149
0.295145
0.310147
0.168313
0.151157
0.136948
0.125208
0.115608
0.107895
0.101869
0.0973604
0.0942217
0.0923183
0.0915263
0.09173
0.092821
0.0946975
0.0972645
0.100433
0.104123
0.108246
0.0315332
0.0570433
0.0670894
0.0721387
0.0704648
0.0820802
0.0963392
0.112585
0.131638
0.154308
0.180913
0.211048
0.243721
0.27769
0.311757
0.344934
0.376497
0.405971
0.433095
0.457783
0.480081
0.500148
0.518233
0.534674
0.549898
0.564438
0.578648
0.590398
0.599873
0.607226
0.612551
0.615912
0.617373
0.617005
0.614908
0.611225
0.60617
0.600092
0.593608
0.587884
0.585222
0.589046
0.596648
0.603434
0.607789
0.60874
0.605024
0.594228
0.572803
0.537967
0.493279
0.445458
0.390652
0.329479
0.266259
0.207064
0.157171
0.11972
0.0958772
0.0849889
0.0844895
0.0912509
0.102943
0.11805
0.132891
0.144294
0.150095
0.149736
0.145055
0.139256
0.135355
0.134746
0.137938
0.144487
0.153162
0.163456
0.179343
0.212511
0.28156
0.3703
0.444639
0.506833
0.556853
0.595767
0.624972
0.645886
0.659831
0.66798
0.671359
0.670857
0.667245
0.661206
0.65334
0.644175
0.633907
0.622674
0.610582
0.597708
0.584104
0.569794
0.554778
0.539025
0.522478
0.505059
0.486672
0.467221
0.446625
0.424837
0.401872
0.377834
0.352966
0.327814
0.303818
0.28603
0.28005
0.276057
0.272058
0.268018
0.26408
0.260398
0.257105
0.254301
0.252054
0.250387
0.249279
0.248668
0.248463
0.248416
0.24759
0.24476
0.239138
0.230184
0.217704
0.201963
0.183752
0.164342
0.14522
0.127663
0.112285
0.0986854
0.0869781
0.0814206
0.0802457
0.0818688
0.0848625
0.0879807
0.0901817
0.0911727
0.0896213
0.0863457
0.081591
0.0760191
0.0705072
0.0660179
0.0634378
0.0629513
0.0643816
0.0675517
0.0727038
0.0804649
0.0887635
0.0979202
0.120205
0.170536
0.215705
0.250567
0.275225
0.291201
0.300606
0.306287
0.306826
0.301927
0.291513
0.275219
0.252928
0.226685
0.207238
0.201117
0.194633
0.185914
0.0509473
0.106834
0.157317
0.217936
0.285314
0.349086
0.404504
0.450105
0.486726
0.51674
0.542688
0.56651
0.589458
0.612299
0.63552
0.65945
0.684302
0.710193
0.737144
0.765084
0.793866
0.823273
0.853034
0.882838
0.912355
0.941261
0.968716
0.996256
1.02369
1.05056
1.07637
1.10065
1.12294
1.14285
1.16005
1.17424
1.18522
1.19279
1.19676
1.19691
1.19292
1.1842
1.16927
1.14868
1.12144
1.08729
1.04732
1.00408
0.959679
0.911464
0.84644
0.761455
0.677074
0.608275
0.557153
0.515195
0.467581
0.40405
0.328641
0.257957
0.207306
0.180642
0.173259
0.179586
0.194841
0.211566
0.22174
0.220014
0.207831
0.192571
0.183826
0.192161
0.226831
0.293884
0.381391
0.449519
0.472578
0.474814
0.480661
0.488461
0.495776
0.503801
0.513221
0.524278
0.536857
0.550659
0.565341
0.580593
0.596186
0.611975
0.627903
0.643989
0.660316
0.676268
0.6918
0.706896
0.721517
0.735606
0.749077
0.761798
0.773579
0.784157
0.793178
0.800198
0.804685
0.806044
0.803657
0.796942
0.78542
0.768772
0.746891
0.719864
0.687864
0.651992
0.617528
0.582473
0.54688
0.511332
0.476355
0.442381
0.40974
0.378665
0.349304
0.321736
0.295981
0.272003
0.249763
0.229217
0.210243
0.193066
0.178098
0.165205
0.154282
0.14524
0.138025
0.132642
0.129167
0.12776
0.128791
0.132655
0.139246
0.147733
0.156775
0.165508
0.173208
0.179161
0.183053
0.183163
0.180559
0.174579
0.165414
0.153584
0.139849
0.125223
0.1111
0.0997728
0.0936023
0.0937765
0.101303
0.122539
0.165685
0.221738
0.269718
0.306551
0.346337
0.386746
0.424597
0.458407
0.487991
0.513609
0.535573
0.552868
0.563011
0.562491
0.547669
0.516362
0.47389
0.430188
0.385474
0.344415
0.0934577
0.205469
0.307807
0.407618
0.493879
0.562138
0.612727
0.648303
0.67317
0.692026
0.708705
0.725675
0.744162
0.764526
0.786613
0.810004
0.834183
0.858653
0.88301
0.906992
0.930483
0.953488
0.976076
0.998314
1.02019
1.04159
1.06332
1.0857
1.10841
1.13095
1.1527
1.17305
1.19138
1.20715
1.2199
1.22926
1.23501
1.237
1.2352
1.22957
1.22005
1.20643
1.18812
1.1652
1.13839
1.10678
1.07063
1.03182
0.993809
0.959986
0.929772
0.893966
0.836973
0.758998
0.679814
0.614368
0.562583
0.512593
0.452632
0.382378
0.313019
0.257254
0.22122
0.205514
0.209785
0.22655
0.245601
0.257414
0.259562
0.261662
0.285076
0.351273
0.454324
0.539777
0.55335
0.528721
0.50578
0.493978
0.495256
0.50662
0.525318
0.548964
0.574982
0.601092
0.625775
0.648409
0.669079
0.68823
0.706375
0.723917
0.741083
0.757918
0.774275
0.790103
0.805453
0.820287
0.834591
0.848363
0.861594
0.874243
0.88621
0.897302
0.907204
0.915458
0.921464
0.924495
0.923756
0.918453
0.907894
0.89157
0.869219
0.840781
0.806162
0.768406
0.730281
0.690644
0.650096
0.609346
0.569015
0.529612
0.491533
0.455074
0.420441
0.387763
0.357111
0.328492
0.301878
0.277195
0.25423
0.232726
0.212475
0.193729
0.176514
0.160867
0.146847
0.134513
0.123906
0.115055
0.10803
0.102968
0.0999807
0.099103
0.100295
0.103397
0.108116
0.113997
0.12042
0.12668
0.13196
0.135457
0.136491
0.134583
0.129543
0.121612
0.11187
0.102909
0.0990835
0.10546
0.127346
0.17327
0.243639
0.311625
0.362658
0.416254
0.474322
0.523196
0.56001
0.5886
0.612856
0.634142
0.652531
0.666911
0.674455
0.670929
0.651699
0.613794
0.565651
0.513514
0.460861
0.413165
0.159998
0.326129
0.46339
0.577715
0.662161
0.720293
0.757833
0.780968
0.795899
0.807769
0.819938
0.833961
0.850032
0.867543
0.885543
0.903074
0.919374
0.934003
0.946865
0.958176
0.968361
0.977936
0.987374
0.997015
1.007
1.01744
1.02963
1.04353
1.05875
1.07472
1.0908
1.10626
1.12036
1.13236
1.1416
1.1475
1.14966
1.14785
1.14202
1.13233
1.11903
1.10239
1.08259
1.05968
1.03518
1.00882
0.979903
0.94849
0.915485
0.883031
0.854375
0.831781
0.812366
0.784414
0.734889
0.670509
0.607655
0.552237
0.499032
0.441737
0.381346
0.325489
0.282471
0.256841
0.250587
0.263588
0.287602
0.313353
0.338269
0.379567
0.462453
0.560227
0.607487
0.581674
0.538836
0.507835
0.49673
0.503764
0.524633
0.554085
0.587387
0.620707
0.651427
0.678381
0.701653
0.722031
0.740454
0.757661
0.77407
0.789808
0.804812
0.818931
0.831946
0.84408
0.855309
0.865626
0.875081
0.883783
0.891877
0.899515
0.906806
0.913768
0.920272
0.926002
0.93043
0.932831
0.932339
0.928039
0.919078
0.904775
0.884679
0.858524
0.826636
0.79311
0.757429
0.719882
0.68118
0.642008
0.602954
0.564504
0.527045
0.49087
0.456201
0.423191
0.391943
0.362515
0.334926
0.309156
0.285131
0.262702
0.241606
0.221821
0.203319
0.18614
0.170359
0.156039
0.143184
0.131747
0.121657
0.112855
0.105319
0.0990744
0.0941863
0.0907221
0.0887213
0.0881658
0.0889475
0.0908491
0.0935249
0.0965039
0.0991987
0.100949
0.101143
0.0994711
0.0964702
0.0945637
0.0989413
0.116767
0.155437
0.219124
0.297909
0.367572
0.434264
0.50694
0.572845
0.620293
0.652203
0.674678
0.691244
0.703119
0.711661
0.716637
0.71596
0.705653
0.680759
0.639955
0.590812
0.536942
0.483083
0.434449
0.238457
0.443489
0.599204
0.714121
0.788856
0.834145
0.85987
0.874142
0.883245
0.891271
0.900144
0.910106
0.920388
0.929835
0.937356
0.942209
0.944117
0.943263
0.940189
0.935652
0.930469
0.925392
0.921022
0.917768
0.915848
0.916174
0.919935
0.927043
0.937069
0.949422
0.963394
0.978186
0.992923
1.00667
1.01847
1.02738
1.0326
1.03352
1.02989
1.02174
1.00944
0.993503
0.974512
0.952834
0.929755
0.906123
0.880999
0.854006
0.825061
0.794533
0.763887
0.736541
0.71701
0.706226
0.695682
0.667878
0.620206
0.565542
0.512476
0.461858
0.412907
0.368311
0.333891
0.314954
0.312282
0.328317
0.362171
0.409851
0.472067
0.559432
0.627887
0.634082
0.588014
0.536775
0.504177
0.495623
0.508026
0.535212
0.570714
0.608851
0.645365
0.677709
0.705103
0.728085
0.747781
0.765284
0.781361
0.796412
0.810554
0.823721
0.835742
0.846402
0.855547
0.863276
0.869503
0.874206
0.877479
0.879532
0.880682
0.881311
0.881808
0.882486
0.883499
0.884762
0.885904
0.886263
0.884948
0.880961
0.873325
0.861223
0.844053
0.821434
0.795807
0.767626
0.736987
0.704472
0.670724
0.636327
0.601779
0.567484
0.533762
0.500865
0.468982
0.438264
0.408824
0.380747
0.354088
0.328876
0.305109
0.282749
0.261691
0.241858
0.223224
0.20578
0.189545
0.174564
0.160872
0.148463
0.137277
0.127221
0.118201
0.11015
0.103039
0.0968771
0.0916934
0.087519
0.0843718
0.0822395
0.0810602
0.0807033
0.0809527
0.0815101
0.0820659
0.0824926
0.0833168
0.0868564
0.0987224
0.127333
0.179501
0.253722
0.333032
0.405365
0.487763
0.57558
0.645331
0.691177
0.719364
0.735698
0.742832
0.74234
0.737307
0.729079
0.716787
0.697335
0.666241
0.625163
0.576413
0.523842
0.471891
0.424997
0.313369
0.541421
0.70558
0.815342
0.879741
0.914438
0.931684
0.94004
0.94483
0.948614
0.951892
0.953931
0.953526
0.949571
0.9414
0.928919
0.912583
0.893267
0.872101
0.850297
0.829008
0.809242
0.791806
0.777287
0.766043
0.7596
0.758599
0.762684
0.771295
0.783806
0.799542
0.817768
0.837654
0.858222
0.878311
0.89659
0.911665
0.922281
0.927555
0.927116
0.921109
0.910099
0.894865
0.87609
0.854781
0.83235
0.807858
0.780728
0.750668
0.717846
0.683202
0.649219
0.620701
0.603355
0.598812
0.598905
0.582915
0.547606
0.503354
0.459631
0.420792
0.389571
0.370255
0.367379
0.38138
0.4105
0.464761
0.546741
0.642387
0.685684
0.655008
0.590599
0.533512
0.499231
0.491442
0.506142
0.536339
0.574786
0.615323
0.653431
0.686594
0.714211
0.736975
0.756085
0.772668
0.787548
0.80122
0.813917
0.825673
0.836377
0.845808
0.853681
0.85978
0.863947
0.865968
0.865744
0.863345
0.859032
0.853258
0.846627
0.839826
0.833512
0.828182
0.824045
0.820942
0.818319
0.815284
0.810782
0.80374
0.793228
0.778516
0.760732
0.740257
0.71719
0.691953
0.665081
0.6371
0.608474
0.579582
0.550719
0.522109
0.493918
0.466276
0.439288
0.413045
0.387629
0.363114
0.339565
0.317034
0.295555
0.275124
0.255704
0.237331
0.220033
0.203838
0.188774
0.174859
0.16209
0.150425
0.139792
0.130101
0.121271
0.113246
0.105995
0.0995103
0.0937928
0.088848
0.0846787
0.0812787
0.0786272
0.0766856
0.0754063
0.0747927
0.0750609
0.0770487
0.0832743
0.0996245
0.135339
0.196982
0.277176
0.356366
0.433033
0.52489
0.621073
0.695863
0.741352
0.766761
0.77703
0.774256
0.760539
0.740833
0.718443
0.693779
0.664592
0.629639
0.58777
0.540218
0.49023
0.44151
0.397591
0.336263
0.608682
0.780134
0.883814
0.940437
0.968
0.979569
0.983255
0.983157
0.980494
0.974765
0.964752
0.949279
0.927678
0.900001
0.867012
0.830052
0.790817
0.751126
0.712726
0.677156
0.645677
0.619252
0.598547
0.583936
0.576637
0.575806
0.580662
0.590533
0.604866
0.623225
0.645244
0.670544
0.698571
0.72841
0.75863
0.787306
0.812294
0.8317
0.844269
0.849532
0.847784
0.839831
0.826529
0.809038
0.788686
0.764838
0.736771
0.703932
0.666395
0.625249
0.582982
0.544009
0.514469
0.499769
0.499809
0.504092
0.493305
0.467586
0.436605
0.409651
0.392758
0.390852
0.407553
0.443019
0.498832
0.584879
0.690365
0.740367
0.690629
0.601924
0.533956
0.494877
0.484658
0.498537
0.52906
0.568498
0.610252
0.649534
0.683695
0.712043
0.735173
0.7542
0.770249
0.784228
0.796794
0.808367
0.819157
0.829179
0.838274
0.846138
0.85238
0.856611
0.858423
0.857457
0.8535
0.846548
0.836848
0.824927
0.811568
0.797731
0.784423
0.772519
0.762556
0.754615
0.748284
0.742676
0.736723
0.729297
0.719375
0.707241
0.692767
0.675967
0.657101
0.636562
0.614789
0.592197
0.569134
0.545864
0.522569
0.499363
0.476313
0.453462
0.430842
0.408494
0.386466
0.364823
0.343639
0.322995
0.302972
0.283638
0.265022
0.247219
0.230309
0.214361
0.199426
0.185538
0.172699
0.16088
0.150021
0.140043
0.130871
0.122439
0.114698
0.107621
0.101189
0.0953959
0.090238
0.0857147
0.0818276
0.0785872
0.076036
0.0743172
0.0738472
0.075725
0.0827325
0.10103
0.140441
0.207454
0.29114
0.371246
0.45156
0.548353
0.647663
0.724009
0.771319
0.79555
0.800572
0.788848
0.763225
0.730064
0.694489
0.65898
0.622633
0.583775
0.541116
0.49518
0.448295
0.403279
0.362792
0.3713
0.650424
0.823514
0.923011
0.975187
0.998735
1.00653
1.00586
0.999723
0.988372
0.970729
0.945496
0.911897
0.870082
0.821205
0.76726
0.710761
0.654366
0.600553
0.551408
0.508548
0.47311
0.44579
0.426882
0.416273
0.41347
0.416246
0.423637
0.434988
0.449883
0.46818
0.490052
0.515932
0.546304
0.581284
0.620129
0.660923
0.700727
0.736328
0.765071
0.785294
0.79654
0.799377
0.794672
0.783799
0.767791
0.746305
0.718478
0.683427
0.640967
0.592288
0.540382
0.49021
0.448213
0.420608
0.410324
0.414739
0.418513
0.411154
0.396008
0.382792
0.380498
0.395569
0.430674
0.484948
0.563438
0.67009
0.756899
0.740572
0.631747
0.54373
0.493548
0.476784
0.486672
0.515191
0.55414
0.596454
0.636949
0.672636
0.702508
0.726885
0.746703
0.763032
0.776846
0.788951
0.799956
0.810259
0.820032
0.829227
0.837586
0.844695
0.850043
0.853079
0.853255
0.850104
0.843309
0.832767
0.818666
0.801535
0.782263
0.76203
0.742152
0.723889
0.708114
0.695118
0.684699
0.675897
0.667765
0.659139
0.649629
0.638636
0.625954
0.611628
0.595877
0.579018
0.561401
0.543347
0.525107
0.506847
0.488648
0.470525
0.452445
0.434359
0.416217
0.397986
0.379662
0.361268
0.342864
0.324531
0.306375
0.288499
0.271006
0.25404
0.237733
0.222198
0.207525
0.193777
0.18098
0.169128
0.15818
0.148078
0.138754
0.130145
0.122196
0.114865
0.108121
0.101942
0.096314
0.0912299
0.086694
0.08273
0.0794074
0.0769116
0.0757242
0.0770577
0.083847
0.102387
0.14276
0.211651
0.297088
0.378477
0.460721
0.558338
0.657219
0.734037
0.782346
0.805497
0.806671
0.788185
0.753647
0.710676
0.66543
0.621344
0.578802
0.536634
0.493607
0.449655
0.406124
0.36493
0.327961
0.403397
0.669192
0.839998
0.937068
0.987702
1.00976
1.01524
1.0105
0.997669
0.976369
0.945312
0.903517
0.851095
0.789546
0.721623
0.65086
0.580956
0.515246
0.456368
0.406151
0.365654
0.335251
0.314755
0.303536
0.30069
0.303798
0.310721
0.320624
0.332834
0.346811
0.362311
0.379637
0.399849
0.424718
0.456166
0.495283
0.54136
0.591444
0.641141
0.686081
0.722782
0.749287
0.765623
0.772434
0.771029
0.762309
0.745954
0.720857
0.685643
0.639603
0.58377
0.521657
0.459411
0.404868
0.365093
0.343857
0.340105
0.346821
0.350376
0.348394
0.347853
0.358558
0.387671
0.436459
0.503599
0.596266
0.705149
0.756096
0.684226
0.569391
0.499381
0.470398
0.472631
0.496676
0.533645
0.575863
0.617577
0.655256
0.687395
0.713914
0.735483
0.753054
0.767608
0.780051
0.791148
0.801464
0.811325
0.820799
0.829718
0.837699
0.844219
0.848678
0.850502
0.849118
0.844019
0.834826
0.821354
0.803696
0.782318
0.758134
0.732475
0.706859
0.682904
0.661847
0.644024
0.629615
0.617381
0.606932
0.596994
0.586802
0.575887
0.564046
0.551275
0.537719
0.523616
0.509237
0.494824
0.480553
0.46651
0.452696
0.439039
0.425428
0.411731
0.397821
0.383594
0.36898
0.353949
0.338517
0.322743
0.306725
0.290572
0.274451
0.258546
0.243031
0.228063
0.213773
0.200258
0.18758
0.175759
0.164784
0.154617
0.145207
0.136502
0.128449
0.121005
0.11413
0.107792
0.101967
0.0966382
0.0918017
0.0874769
0.0837332
0.0807555
0.0790184
0.0797333
0.0858378
0.103552
0.142859
0.2108
0.29618
0.378335
0.460717
0.556015
0.65197
0.727929
0.776479
0.798844
0.79751
0.774938
0.735135
0.685964
0.634068
0.583756
0.536573
0.492172
0.449508
0.407969
0.367962
0.330563
0.297022
0.42858
0.668252
0.834653
0.930781
0.982188
1.00485
1.00949
1.00153
0.982418
0.951435
0.907413
0.850119
0.781041
0.703474
0.621979
0.541473
0.466365
0.400013
0.344541
0.300901
0.269047
0.248156
0.236884
0.23366
0.237016
0.244497
0.254848
0.267406
0.281346
0.295663
0.309377
0.322012
0.33428
0.348644
0.368975
0.399085
0.440943
0.493113
0.550922
0.608639
0.660717
0.702708
0.733887
0.753993
0.764553
0.765974
0.757792
0.738606
0.706384
0.659489
0.598266
0.526395
0.451361
0.38336
0.331594
0.300358
0.288808
0.291963
0.299076
0.304978
0.313678
0.334067
0.372707
0.429488
0.504461
0.60423
0.701225
0.713175
0.61701
0.518151
0.469424
0.459134
0.475582
0.508634
0.549741
0.592359
0.632213
0.667136
0.696525
0.720699
0.740409
0.756572
0.770131
0.781954
0.792749
0.802979
0.812828
0.822207
0.830804
0.838134
0.84361
0.846633
0.846747
0.843435
0.836219
0.824723
0.808722
0.788225
0.763569
0.735605
0.705808
0.675713
0.647145
0.621907
0.599933
0.582116
0.567249
0.554333
0.542503
0.531124
0.519781
0.508244
0.496445
0.484453
0.47243
0.460578
0.449074
0.438027
0.427458
0.417296
0.407406
0.397614
0.387731
0.377574
0.366986
0.355839
0.344049
0.331579
0.318442
0.304688
0.290437
0.27588
0.261221
0.246664
0.232405
0.218613
0.205426
0.192939
0.181207
0.170248
0.160051
0.150586
0.141813
0.133691
0.126177
0.119233
0.112823
0.106919
0.101497
0.0965463
0.0920785
0.0881515
0.0849293
0.0828414
0.0830191
0.0882669
0.104525
0.141375
0.206184
0.289604
0.37148
0.452444
0.543194
0.634346
0.708102
0.756202
0.778135
0.775717
0.751431
0.709275
0.65687
0.601059
0.546857
0.496891
0.451674
0.410323
0.371681
0.335304
0.301561
0.271234
0.445087
0.651574
0.812939
0.909651
0.963769
0.98897
0.9945
0.984924
0.961196
0.922436
0.867826
0.798136
0.716455
0.627926
0.538684
0.454543
0.380023
0.317951
0.2695
0.234429
0.211447
0.198627
0.193865
0.195325
0.201736
0.211897
0.225211
0.241058
0.258478
0.27607
0.291977
0.304263
0.311965
0.316801
0.32376
0.339358
0.369075
0.414605
0.472438
0.536699
0.600641
0.655936
0.701152
0.735768
0.759909
0.773598
0.77621
0.766093
0.740563
0.696752
0.63356
0.553957
0.466269
0.383448
0.318415
0.277274
0.25824
0.256306
0.262871
0.272056
0.28607
0.312252
0.355681
0.415666
0.494813
0.59455
0.671415
0.654487
0.557457
0.479466
0.450028
0.454501
0.480828
0.519142
0.561821
0.603622
0.641531
0.674286
0.701744
0.724369
0.742925
0.758314
0.771458
0.783173
0.794054
0.804401
0.814214
0.823234
0.831025
0.837042
0.840687
0.841515
0.83925
0.833476
0.823792
0.809872
0.791532
0.768758
0.741726
0.711068
0.678573
0.645604
0.613674
0.585769
0.56159
0.54105
0.52351
0.508222
0.494533
0.481934
0.470047
0.458617
0.447517
0.436744
0.426398
0.416621
0.407529
0.399168
0.391488
0.384355
0.377577
0.370933
0.364202
0.357177
0.349676
0.341543
0.332656
0.322932
0.312327
0.300814
0.28854
0.275666
0.262388
0.248927
0.235503
0.22232
0.209551
0.19733
0.185746
0.174849
0.164656
0.15516
0.146338
0.13816
0.130591
0.123595
0.117139
0.111193
0.105732
0.100743
0.0962322
0.0922492
0.088934
0.0866588
0.0864301
0.0908109
0.105291
0.138822
0.198953
0.278662
0.358992
0.437255
0.521944
0.606834
0.677112
0.724062
0.745774
0.74336
0.719105
0.676738
0.62343
0.566064
0.510243
0.459544
0.415159
0.376184
0.34089
0.30813
0.277774
0.250328
0.451358
0.623456
0.781124
0.879646
0.93816
0.967757
0.976214
0.967362
0.941791
0.898539
0.837122
0.759219
0.669323
0.574103
0.480871
0.395946
0.323662
0.266139
0.223538
0.194505
0.176755
0.167738
0.165293
0.168172
0.175993
0.188519
0.205118
0.224885
0.246703
0.269108
0.290002
0.306387
0.315071
0.315537
0.312349
0.313699
0.328124
0.361187
0.41171
0.475042
0.543345
0.609071
0.667359
0.715889
0.753833
0.780769
0.795865
0.797293
0.781918
0.7457
0.685547
0.602455
0.504233
0.405907
0.3252
0.272339
0.245662
0.238012
0.241842
0.251104
0.267147
0.295684
0.34005
0.400298
0.480766
0.574058
0.629022
0.595891
0.510169
0.451078
0.437248
0.452652
0.485463
0.526593
0.569547
0.610235
0.646559
0.677782
0.703969
0.72563
0.743538
0.758594
0.771687
0.78354
0.794589
0.804935
0.814386
0.822539
0.828875
0.832839
0.833877
0.831834
0.826619
0.81793
0.805457
0.788934
0.768282
0.743627
0.715
0.682467
0.648532
0.614536
0.582033
0.552484
0.526446
0.50385
0.484243
0.46709
0.451929
0.438382
0.426115
0.414853
0.404416
0.394754
0.385918
0.378001
0.37106
0.365068
0.359897
0.355338
0.35114
0.347043
0.342808
0.338232
0.333145
0.327405
0.320889
0.313489
0.305104
0.295669
0.28531
0.274131
0.2623
0.250026
0.237538
0.225062
0.2128
0.20092
0.189546
0.17876
0.168608
0.159108
0.150256
0.142034
0.134417
0.127376
0.12088
0.114899
0.109412
0.104405
0.0998823
0.095889
0.0925476
0.0901789
0.0896521
0.0932237
0.105809
0.135568
0.190044
0.264633
0.342157
0.416738
0.494434
0.571937
0.63753
0.682544
0.703966
0.70215
0.679008
0.637899
0.585484
0.528628
0.473434
0.424179
0.382354
0.346765
0.315115
0.285784
0.258404
0.233409
0.446393
0.582436
0.738319
0.843577
0.909162
0.945413
0.959249
0.954113
0.930443
0.887135
0.823583
0.742037
0.647979
0.548944
0.45307
0.367107
0.295338
0.239447
0.198927
0.171696
0.154862
0.145581
0.141939
0.144192
0.154502
0.170587
0.19156
0.215835
0.242094
0.268882
0.294385
0.315559
0.327913
0.32862
0.320609
0.312183
0.313009
0.330769
0.368994
0.425691
0.494013
0.565499
0.633327
0.693446
0.743914
0.783709
0.81172
0.826008
0.823258
0.798708
0.747379
0.667323
0.563836
0.45189
0.353398
0.285272
0.248607
0.234337
0.233945
0.241256
0.257012
0.285246
0.328018
0.387138
0.466084
0.548283
0.583835
0.544395
0.473391
0.431201
0.428383
0.451074
0.487775
0.530238
0.573052
0.612741
0.64793
0.678163
0.703583
0.724713
0.742329
0.757328
0.770536
0.782549
0.793629
0.803677
0.812339
0.819104
0.823413
0.824713
0.822609
0.817328
0.808866
0.797036
0.781636
0.762402
0.739283
0.712945
0.683342
0.650948
0.616954
0.582772
0.549969
0.519806
0.492866
0.46911
0.448218
0.429867
0.413802
0.399764
0.387457
0.376586
0.366944
0.358453
0.351139
0.345054
0.340194
0.336447
0.33359
0.331329
0.329337
0.327311
0.324999
0.322217
0.318836
0.31477
0.309939
0.304255
0.297559
0.28989
0.281235
0.271639
0.261219
0.250153
0.238656
0.226957
0.215277
0.203808
0.192706
0.182083
0.172015
0.162543
0.153683
0.145433
0.137778
0.130697
0.124162
0.118149
0.112635
0.107609
0.103077
0.0990778
0.095724
0.0932945
0.0925297
0.0953584
0.106053
0.131877
0.180179
0.248631
0.32227
0.392547
0.462846
0.532157
0.591917
0.63407
0.654809
0.653704
0.632186
0.593284
0.543196
0.488768
0.436461
0.390829
0.353154
0.321692
0.2937
0.267396
0.242467
0.219448
0.420534
0.535463
0.683306
0.799845
0.876748
0.922223
0.94368
0.944729
0.926047
0.886828
0.82672
0.747782
0.65522
0.556628
0.460302
0.37327
0.300065
0.242495
0.200046
0.170583
0.151233
0.139359
0.133619
0.135575
0.14734
0.166326
0.190581
0.218319
0.247845
0.277563
0.305761
0.329678
0.344654
0.346444
0.336135
0.321282
0.312097
0.317673
0.343798
0.391193
0.455055
0.527319
0.600207
0.668317
0.728628
0.779456
0.819376
0.846374
0.857192
0.846925
0.809488
0.740081
0.639875
0.520657
0.405343
0.317952
0.266859
0.243694
0.237501
0.241458
0.255162
0.281028
0.320922
0.378114
0.452528
0.52123
0.541679
0.502328
0.445857
0.417051
0.422024
0.449029
0.487506
0.530108
0.572194
0.611058
0.645537
0.675265
0.700378
0.721371
0.738998
0.754121
0.76749
0.779571
0.79046
0.7999
0.807409
0.812404
0.8143
0.812588
0.807137
0.798477
0.786662
0.771636
0.753357
0.731813
0.707148
0.679612
0.649414
0.617017
0.583306
0.549565
0.517208
0.487316
0.460336
0.43622
0.414787
0.395938
0.379602
0.365615
0.353692
0.343524
0.334899
0.327742
0.322074
0.317914
0.315184
0.313678
0.313068
0.312961
0.312951
0.312678
0.311866
0.310341
0.308025
0.304911
0.301009
0.296299
0.290705
0.28427
0.276919
0.268634
0.259463
0.249529
0.239009
0.228113
0.217061
0.20606
0.195287
0.184879
0.174938
0.16553
0.15669
0.148432
0.140754
0.13364
0.127071
0.121026
0.115484
0.110436
0.105887
0.101875
0.0985009
0.0960103
0.0950293
0.0971692
0.106045
0.127968
0.169911
0.231555
0.300487
0.366225
0.429254
0.489982
0.542886
0.581107
0.600451
0.599757
0.579957
0.543898
0.497416
0.44732
0.40012
0.360057
0.327684
0.300612
0.27592
0.252042
0.228982
0.207489
0.363278
0.490775
0.616415
0.738938
0.832659
0.892988
0.925937
0.936593
0.92675
0.89625
0.844948
0.774506
0.689323
0.596186
0.502861
0.416301
0.341372
0.280426
0.233566
0.199304
0.175414
0.159851
0.151681
0.152966
0.164885
0.184861
0.210576
0.239902
0.27085
0.301557
0.330128
0.353729
0.367604
0.367206
0.353231
0.333011
0.316743
0.313731
0.33045
0.369033
0.426423
0.495723
0.56928
0.641125
0.707532
0.766292
0.815706
0.853735
0.87732
0.88186
0.861153
0.80873
0.721637
0.605994
0.480852
0.373522
0.302834
0.26627
0.251929
0.250934
0.260781
0.282777
0.319324
0.373524
0.440646
0.495507
0.505331
0.469463
0.425528
0.406549
0.416413
0.445442
0.484264
0.526347
0.567636
0.605839
0.639888
0.669407
0.694482
0.715553
0.733321
0.748571
0.761962
0.773837
0.784165
0.792597
0.798585
0.801533
0.800916
0.796399
0.787987
0.776319
0.761553
0.743754
0.723006
0.699437
0.673246
0.644679
0.614018
0.581717
0.548566
0.51571
0.484358
0.455346
0.428939
0.405079
0.383752
0.36507
0.3491
0.33571
0.324603
0.315466
0.308108
0.302487
0.298631
0.296519
0.295992
0.296737
0.298322
0.300268
0.3021
0.303405
0.303861
0.303269
0.301573
0.29883
0.295164
0.290667
0.285498
0.279651
0.273055
0.265652
0.257428
0.248434
0.238788
0.228657
0.21824
0.207736
0.197333
0.187185
0.177415
0.168108
0.159319
0.151078
0.143393
0.13626
0.129665
0.123591
0.118022
0.112949
0.108378
0.104345
0.10094
0.0983785
0.0971861
0.0986825
0.10585
0.124041
0.159681
0.214104
0.277709
0.338992
0.395426
0.447759
0.493109
0.526312
0.543314
0.542434
0.524207
0.49154
0.449966
0.406088
0.365941
0.332792
0.306132
0.283082
0.260962
0.238786
0.217046
0.196726
0.316172
0.487407
0.565402
0.661836
0.7597
0.83841
0.890463
0.917476
0.922482
0.906888
0.871164
0.816529
0.746171
0.665409
0.580828
0.498885
0.424682
0.361353
0.31008
0.270541
0.241588
0.221962
0.210968
0.21012
0.219325
0.23678
0.260337
0.287711
0.316609
0.344826
0.370105
0.389147
0.396907
0.389425
0.36861
0.342457
0.320914
0.312611
0.323438
0.355516
0.406566
0.470832
0.541498
0.612878
0.681145
0.743897
0.799331
0.845469
0.879534
0.897443
0.893538