/*--------------------------------*- C++ -*----------------------------------*\
  =========                 |
  \\      /  F ield         | OpenFOAM: The Open Source CFD Toolbox
   \\    /   O peration     | Website:  https://openfoam.org
    \\  /    A nd           | Version:  9
     \\/     M anipulation  |
\*---------------------------------------------------------------------------*/
FoamFile
{
    format      ascii;
    class       volScalarField;
    location    "0.05";
    object      epsilonU;
}
// * * * * * * * * * * * * * * * * * * * * * * * * * * * * * * * * * * * * * //

dimensions      [0 2 -3 0 0 0 0];

internalField   nonuniform List<scalar> 
12225
(
247.461
207.844
177.986
156.353
141.828
133.498
130.532
132.107
137.391
145.565
155.864
167.604
180.21
193.238
206.384
219.485
232.617
250.071
43.7209
57.7682
67.1153
77.4466
91.6257
111.313
137.556
170.783
210.764
256.686
307.353
361.422
417.654
475.113
533.366
592.584
654.297
720.263
20.9222
26.6498
31.2759
35.4984
40.0159
45.331
51.8143
59.7165
69.1547
80.1199
92.5097
106.175
120.975
136.837
153.826
172.267
192.923
217.323
16.2932
18.2735
20.2029
22.0373
23.8751
25.8236
27.9728
30.3899
33.1148
36.1616
39.5262
43.1976
47.1703
51.4588
56.1163
61.2673
67.1484
74.1345
15.054
15.6153
16.3166
17.063
17.8328
18.6313
19.4734
20.3748
21.3475
22.3982
23.5292
24.7418
26.0388
27.4288
28.9309
30.5824
32.4461
34.5984
14.6988
14.7109
14.8458
15.055
15.3108
15.5991
15.9141
16.2547
16.6215
17.0157
17.438
17.8893
18.3716
18.8884
19.4467
20.058
20.7398
21.5035
14.5991
14.4101
14.295
14.2396
14.2304
14.2567
14.3108
14.3877
14.4845
14.5994
14.7316
14.8808
15.0473
15.2324
15.4385
15.6696
15.9308
16.2213
14.5725
14.3165
14.1017
13.9261
13.7858
13.6758
13.5916
13.5293
13.4861
13.4598
13.4487
13.452
13.4691
13.5002
13.5459
13.6073
13.686
13.7797
14.5657
14.2896
14.0397
13.8158
13.617
13.4414
13.2872
13.1521
13.0342
12.9319
12.844
12.7693
12.7072
12.6572
12.6194
12.5939
12.5809
12.5789
14.5641
14.2825
14.0216
13.7807
13.559
13.3557
13.1695
12.9995
12.8442
12.7029
12.5744
12.4579
12.353
12.259
12.1756
12.1028
12.0404
11.9877
14.5637
14.2806
14.0166
13.7705
13.5411
13.3275
13.1287
12.9438
12.7719
12.6124
12.4643
12.3271
12.2003
12.0834
11.976
11.878
11.789
11.7092
14.5635
14.2802
14.0154
13.7679
13.5363
13.3196
13.1167
12.9268
12.749
12.5826
12.4269
12.2813
12.1452
12.0184
11.9004
11.7909
11.6897
11.5971
14.5634
14.28
14.015
13.767
13.5348
13.3171
13.1128
12.9211
12.741
12.5719
12.4129
12.2637
12.1235
11.9921
11.869
11.7539
11.6465
11.5474
14.5634
14.2798
14.0148
13.7667
13.5343
13.3163
13.1116
12.9193
12.7386
12.5685
12.4085
12.2579
12.1162
11.9829
11.8577
11.7401
11.6299
11.5277
14.5633
14.2797
14.0146
13.7665
13.534
13.316
13.1113
12.919
12.7381
12.5679
12.4077
12.2568
12.1148
11.981
11.8552
11.7368
11.6256
11.5223
14.5633
14.2796
14.0145
13.7664
13.5339
13.3159
13.1113
12.919
12.7382
12.5681
12.408
12.2573
12.1153
11.9815
11.8556
11.7371
11.6256
11.5218
14.5632
14.2796
14.0144
13.7663
13.5338
13.3159
13.1113
12.9192
12.7385
12.5686
12.4087
12.2581
12.1163
11.9827
11.8568
11.7383
11.6267
11.5227
14.5632
14.2795
14.0143
13.7662
13.5338
13.3159
13.1115
12.9195
12.739
12.5693
12.4096
12.2592
12.1175
11.984
11.8582
11.7397
11.628
11.5238
14.5632
14.2794
14.0142
13.7662
13.5339
13.3161
13.1118
12.92
12.7397
12.5702
12.4106
12.2604
12.1189
11.9855
11.8597
11.7411
11.6293
11.5248
14.5631
14.2794
14.0142
13.7662
13.5341
13.3164
13.1123
12.9206
12.7406
12.5712
12.4118
12.2617
12.1203
11.987
11.8612
11.7425
11.6305
11.5258
14.5631
14.2794
14.0143
13.7664
13.5344
13.3169
13.113
12.9215
12.7416
12.5725
12.4133
12.2635
12.1222
11.9891
11.8634
11.7448
11.6328
11.5281
14.5631
14.2795
14.0146
13.7669
13.5352
13.3181
13.1147
12.9238
12.7446
12.5763
12.418
12.269
12.1288
11.9967
11.8722
11.7547
11.6439
11.5403
14.5632
14.2799
14.0157
13.7692
13.5391
13.3244
13.1238
12.9363
12.761
12.597
12.4434
12.2994
12.1643
12.0375
11.9184
11.8064
11.7011
11.6031
14.564
14.2831
14.0238
13.785
13.5654
13.3637
13.1783
13.0077
12.8506
12.7056
12.5716
12.4474
12.3322
12.2251
12.1255
12.0326
11.946
11.866
14.5704
14.308
14.0798
13.8827
13.7128
13.5659
13.4383
13.3266
13.2284
13.1415
13.0643
12.9957
12.9344
12.8798
12.8312
12.7879
12.7497
12.7165
14.62
14.4661
14.3844
14.3519
14.3511
14.37
14.4013
14.4406
14.486
14.5366
14.5919
14.6519
14.7164
14.7855
14.8589
14.9364
15.0177
15.1024
14.9417
15.2849
15.7141
16.1494
16.5665
16.9616
17.3389
17.7056
18.0698
18.438
18.8153
19.2051
19.6092
20.0283
20.462
20.9094
21.369
21.8373
16.8001
18.9851
20.8068
22.2907
23.5738
24.7565
25.9113
27.0938
28.3446
29.6905
31.1469
32.7203
34.4101
36.2103
38.1109
40.1
42.1649
44.2861
28.5729
35.9538
40.1953
43.2689
46.1657
49.3347
53.0247
57.3783
62.4615
68.2874
74.833
82.0479
89.8614
98.189
106.94
116.02
125.351
134.809
152.474
136.941
124.086
113.464
104.771
97.7643
92.2437
88.0381
84.9916
82.9605
81.8107
81.4176
81.6659
82.4493
83.6717
85.2471
87.1004
89.1595
5.97518
3.71755
5.23915
6.32834
6.7885
6.83898
6.82314
7.01419
7.56281
8.41458
37.7656
53.1259
72.8681
89.7047
100.145
104.058
102.917
98.2994
94.1922
89.5777
84.2382
78.5813
75.5603
85.1733
129.607
198.743
273.738
350.72
425.169
493.968
555.212
607.946
651.907
687.314
714.701
734.793
748.419
756.452
759.769
759.227
755.677
749.943
742.015
731.912
719.815
705.837
690.051
672.512
653.265
632.357
609.847
585.809
560.346
533.592
505.718
476.942
447.517
417.733
387.902
358.349
329.4
301.385
274.683
249.838
227.741
210.376
200.099
191.583
182.664
173.07
162.778
151.895
140.658
129.424
118.621
108.697
100.05
92.9803
87.654
84.1272
82.0889
81.0854
80.891
81.2696
81.9921
83.0384
84.6179
87.1465
91.1279
96.8125
103.938
112.573
122.685
138.628
174.883
261.755
379.594
489.529
587.476
670.561
738.572
792.527
833.945
864.485
885.782
899.408
906.872
909.663
909.275
905.491
898.505
888.609
875.981
860.705
842.776
822.095
798.462
771.587
741.119
706.701
668.071
625.195
578.458
529.198
481.541
452.831
447.888
443.58
438.086
431.848
425.498
419.577
414.485
410.477
407.66
406.001
405.323
405.351
405.668
404.732
399.864
389.248
371.843
347.521
317.164
282.584
246.217
210.668
178.191
150.29
127.576
109.881
96.5404
86.6936
79.4967
74.2419
70.3699
67.5512
65.2919
14.1657
12.9718
11.8783
10.8959
10.0257
9.26258
8.60073
8.0399
7.57275
7.18925
6.88025
6.63683
6.4504
6.31301
6.21792
6.15996
6.13621
6.1461
6.19462
6.28641
6.48276
7.51962
19.9047
30.9258
34.6582
33.6435
29.8537
24.7971
20.1204
17.6735
19.7787
29.7847
46.7326
65.8046
82.2187
95.1337
105.498
123.329
153.795
196.959
253.388
313.191
347.939
363.265
367.107
367.45
366.721
364.103
359.125
351.578
341.607
329.571
315.949
301.287
286.165
271.175
256.895
243.875
232.621
223.587
217.155
213.623
213.242
214.917
216.871
218.873
220.767
222.411
223.675
224.437
224.587
224.03
222.685
220.49
217.409
213.434
208.59
202.939
196.578
189.638
182.274
174.652
166.939
159.292
151.868
144.825
138.289
132.372
127.188
122.178
117.232
112.3
107.356
102.403
97.4743
92.6484
88.0348
83.7406
79.8057
76.1342
72.4657
68.4159
63.7215
58.4597
53.0535
48.186
44.5305
42.7811
43.7495
48.6464
59.8245
84.2855
134.798
214.652
290.912
325.832
333.354
336.033
333.301
326.724
317.947
308.272
298.599
289.539
281.517
274.87
269.918
267.011
266.532
268.939
273.194
277.443
281.632
285.731
289.691
293.433
296.84
299.743
301.911
303.039
302.753
300.633
296.27
289.359
279.826
267.987
255.378
243.474
230.427
216.553
202.385
188.385
174.91
162.207
150.427
139.641
129.867
121.079
113.226
106.276
100.529
98.3701
98.3764
99.1218
99.6618
99.4496
98.2809
96.2311
93.5509
90.5389
87.4279
84.3203
81.1906
77.9412
74.4759
70.7555
66.8091
62.7344
58.5899
54.5359
49.4716
45.27
41.7521
38.7773
36.2574
34.1289
32.3372
30.829
29.5693
28.5348
27.699
27.0362
26.5234
26.1438
25.8889
25.761
25.7799
25.9743
26.4527
27.185
29.1626
39.7323
66.7769
71.9398
68.5679
62.1274
54.3948
46.2864
39.0531
35.4824
40.4511
60.3924
92.679
127.666
160.147
199.509
246.784
288.39
319.022
342.932
355.933
355.178
342.366
323.646
303.849
285.464
268.738
253.104
238.144
223.722
209.948
197.078
185.416
175.246
166.772
160.107
155.266
152.179
150.71
150.672
151.851
154.015
157.028
160.459
164.137
167.944
171.76
175.462
178.932
182.051
184.7
186.765
188.13
188.689
188.35
187.043
184.738
181.451
177.254
172.273
166.681
160.684
154.497
148.324
142.352
136.733
131.569
126.93
123.11
119.742
116.639
113.647
110.592
107.292
103.57
99.2964
94.4222
89.0183
83.2874
77.5301
72.0663
67.1066
62.5707
58.258
54.0778
50.3069
47.8203
48.3632
55.0452
73.4209
113.587
185.313
271.766
317.421
307.448
284.257
263.168
247.013
234.317
224.331
216.52
210.47
205.936
202.829
201.123
200.79
201.77
203.967
207.238
211.411
215.986
220.737
225.646
230.704
235.898
241.197
246.54
251.823
256.865
261.392
265.007
267.207
267.417
265.079
259.733
251.074
240.409
228.213
214.501
199.839
184.811
169.912
155.516
141.882
129.166
117.446
106.744
97.0425
88.2978
80.4636
73.485
67.3848
62.3869
58.4198
55.2978
52.7845
50.6205
48.5756
46.4886
44.2766
41.9179
39.4257
36.8291
34.1663
31.4838
28.8344
26.2714
23.8399
21.5726
19.5153
17.653
15.9933
14.5553
13.33
12.2972
11.4379
10.7339
10.1668
9.71811
9.37229
9.11682
8.94154
8.83862
8.80287
8.83255
8.9308
9.10817
9.38659
9.81026
10.4498
11.5343
85.1957
101.743
94.3482
85.3501
75.6442
65.7956
57.2416
53.2392
60.7394
89.1045
137.496
197.331
262.582
310.806
328.546
332.15
329.741
322.884
311.758
296.201
277.275
257.088
237.794
220.513
205.391
192.042
180.061
169.243
159.545
150.998
143.636
137.468
132.48
128.649
125.939
124.3
123.659
123.923
124.981
126.707
128.972
131.77
134.945
138.403
142.059
145.834
149.651
153.434
157.104
160.57
163.726
166.441
168.564
169.93
170.374
169.756
167.986
165.044
160.999
156.001
150.27
144.069
137.669
131.332
125.286
119.712
114.796
110.884
107.676
105.043
102.861
100.963
99.1329
97.1214
94.6636
91.5181
87.5139
82.6038
76.9085
70.7282
64.5316
58.8698
54.1877
50.8702
49.5287
51.711
60.9785
84.0926
131.217
208.191
289.973
318.241
290.547
255.172
228.158
210.088
198.564
191.277
186.775
184.112
182.751
182.447
183.075
184.519
186.636
189.274
192.283
195.54
198.958
202.474
206.072
209.763
213.564
217.495
221.575
225.813
230.192
234.631
238.945
242.798
245.694
247.005
246.043
242.131
235.332
226.35
215.354
202.792
189.255
175.312
161.438
147.993
135.218
123.258
112.178
101.994
92.6876
84.2208
76.5446
69.6078
63.3571
57.7692
52.8169
48.4443
44.5907
41.1878
38.1572
35.4136
32.8739
30.4684
28.1493
25.8923
23.6938
21.5652
19.5263
17.5989
15.8021
14.1492
12.6494
11.3025
10.1042
9.04936
8.12965
7.33387
6.65028
6.06753
5.57485
5.162
4.81971
4.53992
4.31577
4.14163
4.01323
3.92793
3.88523
3.88766
3.94294
4.06591
4.29077
4.67086
114.477
110.54
106.32
99.5508
88.6321
76.9513
69.946
75.4945
104.488
163.838
238.147
303.345
340.2
345.87
331.275
309.152
286.317
264.798
244.713
225.919
208.577
193.013
179.414
167.666
157.474
148.52
140.566
133.454
127.081
121.392
116.377
112.066
108.502
105.723
103.741
102.538
102.07
102.28
103.1
104.462
106.298
108.571
111.123
113.877
116.78
119.799
122.921
126.152
129.501
132.968
136.522
140.08
143.496
146.557
149
150.543
150.933
149.987
147.639
143.951
139.11
133.392
127.118
120.614
114.179
108.062
102.687
98.236
94.5408
91.5667
89.2552
87.4949
86.1125
84.8738
83.4991
81.6942
79.1977
75.8413
71.6086
66.6753
61.4182
56.4359
52.5103
50.6918
52.5678
61.2467
82.8997
127.344
201.339
284.274
318.455
284.814
241.436
210.045
190.633
179.574
173.811
171.239
170.528
170.952
172.175
174.004
176.257
178.745
181.3
183.8
186.171
188.379
190.44
192.446
194.425
196.394
198.374
200.397
202.513
204.787
207.287
210.04
212.978
215.866
218.266
219.554
218.988
216.049
210.843
203.469
194.196
183.486
171.882
159.903
147.977
136.42
125.434
115.13
105.549
96.691
88.5284
81.0219
74.1257
67.7923
61.9753
56.6303
51.7297
47.2541
43.1783
39.4732
36.1065
33.043
30.2457
27.6771
25.3013
23.088
21.0151
19.0695
17.2458
15.5446
13.9689
12.5215
11.2038
10.0148
8.95054
8.00493
7.17025
6.43777
5.79827
5.24252
4.76171
4.34752
3.99235
3.6893
3.43229
3.21605
3.03611
2.88891
2.77195
2.68401
2.62593
2.60134
2.62053
2.69948
139.235
128.75
132.897
124.854
109.52
95.6426
96.1968
117.036
162.417
226.27
289.362
329.184
336.49
318.68
289.376
259.177
232.795
210.959
192.926
177.829
165.048
154.166
144.845
136.752
129.57
123.033
116.956
111.253
105.926
101.045
96.7064
93.0032
89.9988
87.721
86.1658
85.3066
85.1029
85.5061
86.4618
87.9099
89.8078
91.8903
94.0094
96.0775
98.0378
99.8751
101.626
103.381
105.278
107.476
110.115
113.27
116.907
120.853
124.807
128.368
131.096
132.586
132.552
130.881
127.655
123.114
117.604
111.503
105.17
98.9708
93.4838
88.6575
84.522
81.1264
78.4834
76.5506
75.2171
74.2944
73.5196
72.5777
71.1491
68.9789
65.9592
62.2016
58.0832
54.2805
51.8521
52.328
58.3063
74.6923
109.891
172.742
254.71
309.011
291.81
240.367
202.528
179.853
167.624
161.859
159.862
159.924
161.125
163.031
165.378
167.919
170.419
172.695
174.643
176.226
177.456
178.37
179.069
179.667
180.189
180.64
181.02
181.346
181.666
182.071
182.694
183.659
185.011
186.632
188.157
188.99
188.467
186.222
182.084
176.072
168.434
159.586
150.009
140.162
130.414
121.022
112.135
103.821
96.0879
88.9117
82.2519
76.063
70.2993
64.9181
59.8799
55.1383
50.6751
46.4921
42.5904
38.9693
35.6235
32.5426
29.7104
27.1069
24.7092
22.4946
20.4425
18.5368
16.7662
15.1242
13.6077
12.2154
10.9459
9.79714
8.76537
7.84505
7.02923
6.31006
5.67917
5.12794
4.64796
4.23124
3.87036
3.55857
3.28981
3.05873
2.86068
2.69168
2.54844
2.42844
2.33008
2.25304
2.19915
2.17269
160.657
159.302
165.656
157.372
142.352
131.92
136.037
162.152
208.679
262.486
303.388
317.216
304.528
276.063
243.669
214.705
191.487
173.497
159.438
148.154
138.823
130.876
123.88
117.493
111.468
105.678
100.116
94.8666
90.0586
85.8223
82.2604
79.4366
77.3768
76.0765
75.5094
75.633
76.3907
77.712
79.5114
81.6892
84.1011
86.4633
88.6237
90.4359
91.7711
92.546
92.7566
92.5088
92.0337
91.6725
91.8203
92.8338
94.9315
98.1201
102.174
106.662
111.016
114.611
116.889
117.471
116.241
113.327
109.051
103.819
98.0426
92.3805
87.0653
82.1832
77.8665
74.2262
71.3402
69.2407
67.8954
67.1893
66.9103
66.7537
66.3531
65.3524
63.5134
60.8414
57.6946
54.8728
53.759
56.5772
66.9045
91.0847
137.749
208.723
277.741
295.325
252.574
204.324
175.433
160.01
152.759
150.195
150.144
151.41
153.416
155.825
158.341
160.685
162.646
164.112
165.066
165.556
165.667
165.472
165.127
164.709
164.221
163.642
162.94
162.101
161.144
160.154
159.302
158.784
158.739
159.154
159.736
159.93
159.24
157.265
153.769
148.752
142.428
135.167
127.393
119.499
111.787
104.451
97.5843
91.2053
85.2883
79.7856
74.6444
69.8147
65.2529
60.9209
56.7838
52.7974
48.9551
45.2613
41.7277
38.3704
35.2055
32.2447
29.4922
26.9439
24.5886
22.411
20.3944
18.5235
16.7862
15.1742
13.6829
12.3098
11.0532
9.91133
8.88148
7.95927
7.13893
6.41351
5.77533
5.21625
4.72811
4.30304
3.93361
3.61302
3.3351
3.09437
2.88599
2.70577
2.55009
2.41593
2.30089
2.20324
2.12217
2.05788
176.55
195.2
200.789
194.671
181.062
172.008
176.98
202.091
241.165
278.305
297.373
292.441
269.043
237.713
207.389
182.48
163.552
149.408
138.588
129.93
122.617
116.089
109.97
104.054
98.287
92.7391
87.5501
82.8774
78.8571
75.585
73.1137
71.4592
70.6098
70.5335
71.1823
72.4919
74.3805
76.7465
79.4679
82.4052
85.4602
88.5182
91.3979
93.8678
95.6611
96.5087
96.1968
94.648
92.0089
88.707
85.4171
82.9131
81.8455
82.555
85.0096
88.8499
93.4857
98.1687
102.1
104.6
105.283
104.075
101.203
97.0632
92.3012
87.3697
82.4751
77.8236
73.5891
69.9202
66.9436
64.7565
63.4094
62.8809
63.0501
63.6762
64.3978
64.7773
64.4134
63.1236
61.1557
59.3788
59.4995
64.5544
79.0265
109.721
162.512
229.326
275.432
266.637
218.184
177.823
156.519
146.162
141.973
141.094
141.91
143.618
145.793
148.102
150.236
151.947
153.093
153.64
153.645
153.216
152.475
151.52
150.522
149.496
148.424
147.257
145.943
144.432
142.709
140.826
138.98
137.4
136.275
135.684
135.359
134.899
133.853
131.842
128.658
124.301
118.968
112.987
106.724
100.507
94.5688
89.0355
83.9421
79.2611
74.9327
70.8891
67.069
63.4238
59.9174
56.5223
53.2131
49.9576
46.7564
43.6071
40.5187
37.5107
34.6088
31.8389
29.222
26.7704
24.4868
22.3661
20.3978
18.57
16.8713
15.2931
13.8294
12.4771
11.2343
10.0995
9.071
8.14556
7.3187
6.58462
5.93655
5.36707
4.86849
4.4332
4.05394
3.72391
3.43692
3.1874
2.97043
2.78169
2.6174
2.47436
2.34984
2.24163
2.14801
2.06782
767.948
259.262
234.981
229.633
219.328
210.612
214.334
233.929
261.229
281.468
283.713
267.256
239.262
208.687
181.79
160.887
145.529
134.239
125.562
118.393
111.988
105.902
99.9376
94.0894
88.4765
83.2675
78.6244
74.6691
71.4732
69.0627
67.4311
66.5523
66.3908
66.9044
68.0437
69.7503
71.9555
74.5812
77.538
80.7226
84.2794
88.1659
92.2339
96.247
99.864
102.635
104.029
103.528
100.805
95.9794
89.7817
83.4621
78.3718
75.4616
75.0497
76.894
80.4526
84.973
89.5387
93.2101
95.3302
95.5694
93.9949
91.101
87.3893
83.2215
78.8992
74.6617
70.7024
67.1872
64.2683
62.0865
60.7595
60.3574
60.8701
62.169
63.9722
65.8354
67.2233
67.72
67.3661
67.0197
68.6972
76.0499
94.0901
128.683
180.937
235.289
259.301
236.531
191.561
158.971
142.747
135.648
133.201
133.123
134.239
135.968
137.94
139.834
141.373
142.367
142.742
142.528
141.826
140.776
139.507
138.122
136.774
135.427
134.044
132.567
130.93
129.075
126.951
124.559
122.106
119.869
118.029
116.653
115.582
114.488
112.994
110.791
107.722
103.811
99.2454
94.3133
89.3267
84.5452
80.1318
76.1463
72.5656
69.3163
66.307
63.4514
60.6826
57.9573
55.2528
52.5606
49.8742
47.1941
44.5221
41.8484
39.1747
36.5146
33.8921
31.3369
28.8786
26.5414
24.3404
22.2816
20.363
18.5778
16.9175
15.3738
13.9404
12.6131
11.3895
10.2679
9.24669
8.32359
7.49505
6.75631
6.10156
5.52416
5.01703
4.57299
4.18504
3.84653
3.55135
3.29396
3.06941
2.87335
2.70197
2.55196
2.42051
2.3052
2.20401
2.11534
174.141
238.141
254.103
257.279
251.653
244.375
245.521
257.361
272.262
278.455
269.207
246.406
217.111
188.476
164.76
146.979
134.162
124.734
117.282
110.787
104.639
98.5773
92.5966
86.8356
81.4766
76.676
72.5327
69.0849
66.3257
64.2256
62.7522
61.8783
61.5792
61.8247
62.5754
63.7879
65.4261
67.4709
69.9241
72.8037
76.3654
80.5853
85.4142
90.7253
96.2802
101.683
106.321
109.319
109.637
106.483
99.9012
91.1623
82.4068
75.6074
71.7968
70.9305
72.517
75.8589
80.063
84.0247
86.8921
88.109
87.6375
85.8112
83.0024
79.5818
75.8694
72.1217
68.5427
65.3036
62.5638
60.4829
59.2195
58.914
59.6576
61.4509
64.1492
67.3995
70.6303
73.222
74.9429
76.5316
80.2008
89.8785
110.405
145.594
191.916
231.056
238.374
210.246
171.398
145.264
132.548
127.227
125.594
125.783
126.872
128.388
129.977
131.357
132.3
132.677
132.467
131.733
130.6
129.206
127.667
126.079
124.562
123.047
121.485
119.811
117.96
115.909
113.586
111.003
108.299
105.697
103.406
101.504
99.8698
98.2397
96.3227
93.9017
90.8875
87.3337
83.4199
79.4004
75.5322
72.0098
68.9288
66.2854
64.0018
61.9616
60.0429
58.1413
56.1829
54.1281
51.9685
49.7183
47.4044
45.0727
42.7305
40.3707
37.9911
35.5976
33.2059
30.8402
28.5293
26.3015
24.1795
22.1779
20.3028
18.5535
16.9251
15.4111
14.0053
12.7028
11.5001
10.395
9.38569
8.4699
7.64468
6.906
6.24878
5.66712
5.15454
4.7043
4.30975
3.96449
3.66256
3.3985
3.16744
2.96505
2.78752
2.63157
2.49433
2.37334
2.26649
2.17204
169.772
258.018
269.324
277.906
277.228
271.99
270.194
274.097
278.078
273.715
257.126
231.138
201.998
175.32
154.027
138.398
127.214
118.876
112.023
105.746
99.5973
93.4855
87.5335
81.9318
76.8392
72.339
68.4403
65.107
62.2955
59.9827
58.1692
56.8617
56.049
55.6912
55.7283
56.1081
56.8178
57.9002
59.4537
61.7488
64.8669
68.8552
73.7266
79.4387
85.8849
92.8735
100.05
106.701
111.496
112.725
109.081
100.825
90.2304
80.3446
73.4032
69.794
69.119
70.7384
73.878
77.3867
80.2722
81.957
82.2191
81.1644
79.0793
76.3043
73.1551
69.8931
66.7262
63.8257
61.3478
59.4532
58.3171
58.1223
59.0365
61.1767
64.5558
68.9933
74.0156
78.9074
83.1425
87.1691
93.1092
104.812
126.298
159.038
196.461
221.377
217.687
188.99
156.308
134.991
124.504
120.121
118.792
118.948
119.812
120.963
122.099
122.979
123.429
123.361
122.781
121.763
120.423
118.877
117.219
115.545
113.929
112.293
110.587
108.767
106.792
104.625
102.22
99.578
96.8014
94.0778
91.5904
89.3989
87.3959
85.3758
83.1421
80.5745
77.6515
74.4547
71.1558
67.975
65.1193
62.7242
60.824
59.3575
58.1982
57.1929
56.1938
55.0803
53.7682
52.2145
50.4156
48.4033
46.2431
44.0303
41.7887
39.5319
37.2663
34.9964
32.7297
30.4804
28.269
26.1197
24.0558
22.0957
20.2507
18.5253
16.9182
15.4249
14.0398
12.7576
11.5737
10.4851
9.48911
8.58325
7.7646
7.02946
6.37324
5.79054
5.27539
4.82149
4.42252
4.07235
3.7652
3.49578
3.2593
3.0515
2.86866
2.70749
2.56517
2.43924
2.32759
2.22846
166.652
254.087
272.924
289.52
295.41
293.248
289.351
286.601
281.954
270.076
248.931
221.44
192.872
167.677
147.958
133.623
123.36
115.577
108.971
102.732
96.5412
90.4229
84.5576
79.1251
74.2186
69.8322
65.8988
62.3512
59.1705
56.3935
54.0776
52.25
50.877
49.8695
49.1231
48.5765
48.262
48.3202
48.9926
50.6706
53.2915
56.9111
61.5603
67.2167
73.8016
81.2182
89.3826
98.0572
106.217
111.926
112.827
107.645
97.7762
86.5926
77.5791
71.7875
69.0766
68.9065
70.5393
73.0671
75.5512
77.26
77.819
77.2003
75.602
73.315
70.6314
67.8025
65.0317
62.4856
60.3133
58.668
57.7247
57.6853
58.7669
61.177
65.074
70.488
77.1668
84.4633
91.6033
98.5432
106.914
120.03
140.859
168.97
196.646
209.857
199.531
172.416
144.936
127.044
117.919
113.946
112.613
112.561
113.098
113.841
114.533
114.98
115.05
114.689
113.908
112.773
111.373
109.796
108.109
106.397
104.705
102.963
101.129
99.1788
97.0926
94.8471
92.4145
89.7975
87.0758
84.4004
81.9073
79.6158
77.4184
75.1679
72.7629
70.1725
67.4303
64.6348
61.9456
59.5525
57.6202
56.2333
55.3712
54.9213
54.7166
54.5795
54.3508
53.9044
53.1492
52.0296
50.5281
48.6725
46.5592
44.2991
41.9613
39.5997
37.2485
34.9254
32.6382
30.3931
28.1994
26.0711
24.0253
22.0781
20.2416
18.5227
16.9223
15.4377
14.0636
12.7941
11.6241
10.549
9.56521
8.66961
7.85886
7.1292
6.47622
5.89481
5.37934
4.92386
4.52234
4.16889
3.85795
3.58436
3.34348
3.13115
2.9437
2.77795
2.6311
2.50075
2.38481
2.28155
168.688
232.411
266.156
292.169
306.043
308.476
304.308
297.095
286.302
269.279
245.296
217.061
188.952
164.593
145.635
131.858
121.96
114.383
107.853
101.615
95.4175
89.3416
83.5831
78.2875
73.4757
69.0586
64.9137
60.9768
57.2891
53.9678
51.125
48.7931
46.9016
45.3077
43.8654
42.505
41.2961
40.4876
40.557
41.8197
44.0797
47.3637
51.7294
57.1965
63.6869
71.0635
79.2892
88.4944
98.1185
106.506
111.088
109.583
102.246
92.0414
82.3852
75.1959
70.8815
69.1288
69.357
70.7898
72.554
73.8997
74.3794
73.8779
72.5195
70.5425
68.2036
65.7315
63.3143
61.1084
59.2536
57.8926
57.1923
57.3573
58.632
61.2861
65.5943
71.7888
79.9116
89.5612
99.8596
110.136
121.083
135.02
153.92
176.244
194.639
198.813
184.695
159.767
136.293
120.763
112.423
108.528
107.001
106.642
106.81
107.155
107.453
107.55
107.347
106.804
105.93
104.77
103.385
101.833
100.157
98.4221
96.6657
94.8319
92.8914
90.8339
88.6586
86.3618
83.9354
81.3921
78.8017
76.2792
73.9025
71.6404
69.3864
67.0561
64.6361
62.1637
59.7038
57.3567
55.2675
53.6036
52.4967
51.985
51.9919
52.3545
52.8777
53.3823
53.7279
53.8111
53.5515
52.881
51.7474
50.137
48.122
45.7966
43.2789
40.6781
38.0787
35.534
33.0702
30.6963
28.4146
26.2278
24.1421
22.1659
20.3073
18.5715
16.9596
15.4688
14.0937
12.8277
11.6644
10.5979
9.62343
8.73662
7.93348
7.20987
6.56123
5.9825
5.46823
5.01267
4.61002
4.2546
3.94101
3.66428
3.41988
3.20376
3.01237
2.84258
2.69168
2.55733
2.43747
2.33044
163.301
229.827
255.199
286.788
308.797
317.498
315.563
306.708
292.389
272.213
246.538
217.882
189.929
165.754
146.812
132.928
122.89
115.248
108.693
102.459
96.2962
90.2912
84.6361
79.4483
74.6925
70.2099
65.8256
61.4712
57.239
53.325
49.9071
47.0484
44.6799
42.6538
40.8208
39.0892
37.448
36.1261
35.895
36.9222
38.9225
41.8619
45.8383
50.9524
57.19
64.4052
72.4773
81.4179
91.0829
100.46
107.195
108.592
103.876
95.2059
85.9334
78.3404
73.1711
70.344
69.4535
69.8643
70.8019
71.5622
71.6963
71.0568
69.7237
67.8909
65.7771
63.5795
61.4631
59.5673
58.0195
56.9517
56.5197
56.9225
58.4142
61.3031
65.9446
72.7311
82.0015
93.7364
107.188
121.103
134.88
149.391
165.734
182.032
192.245
189.603
173.285
150.346
129.749
115.782
107.828
103.792
101.949
101.224
101.018
100.996
100.961
100.785
100.389
99.7382
98.8302
97.6889
96.3481
94.8389
93.1854
91.4405
89.6377
87.7377
85.7224
83.5932
81.3635
79.0472
76.6558
74.2175
71.8
69.4837
67.2855
65.1296
62.924
60.6513
58.3671
56.1436
54.0481
52.1698
50.6451
49.631
49.2303
49.4241
50.0667
50.9456
51.8591
52.6645
53.2831
53.675
53.8038
53.6084
52.9975
51.8766
50.1942
47.9956
45.4128
42.6012
39.7074
36.8449
34.0847
31.4606
28.9819
26.6468
24.4514
22.394
20.4747
18.6932
17.0476
15.5334
14.1437
12.8705
11.7057
10.6417
9.67221
8.79148
7.99451
7.27642
6.63226
6.0568
5.54455
5.08986
4.68704
4.33057
4.01521
3.73612
3.4889
3.26962
3.07483
2.90149
2.74696
2.60897
2.48552
2.375
176.539
184.932
229.128
271.587
302.62
319.008
321.792
314.359
299.339
278.06
251.92
223.438
195.782
171.591
152.211
137.636
126.915
118.748
111.907
105.586
99.4574
93.5355
87.9666
82.8418
78.1037
73.5646
69.0159
64.363
59.695
55.2339
51.2061
47.7351
44.8157
42.3619
40.2761
38.4932
36.9978
35.9301
35.6885
36.3475
37.8886
40.353
43.8549
48.5264
54.4082
61.386
69.296
78.0865
87.6445
97.1476
104.518
107.126
103.898
96.5316
88.0658
80.6958
75.247
71.8001
70.1068
69.6562
69.7772
69.8491
69.475
68.5225
67.0567
65.2395
63.2519
61.2563
59.3887
57.7666
56.5019
55.7148
55.5504
56.198
57.9103
61.0135
65.9116
73.1007
83.1539
96.4794
112.72
130.329
147.314
162.685
176.612
187.386
190.745
182.939
165.167
143.66
124.955
111.922
104.053
99.7179
97.4703
96.343
95.7637
95.4095
95.0938
94.7029
94.1671
93.4485
92.5335
91.4252
90.1353
88.6743
87.0407
85.313
83.4938
81.5629
79.5132
77.3546
75.1103
72.8081
70.4785
68.1681
65.9451
63.8552
61.8598
59.8569
57.7898
55.7037
53.6898
51.8148
50.1224
48.6908
47.664
47.1994
47.356
48.0271
48.9826
49.9786
50.8487
51.5309
52.042
52.4323
52.7388
52.9444
52.9512
52.5702
51.5617
49.884
47.5974
44.845
41.8143
38.6888
35.6121
32.6745
29.9186
27.3558
24.9816
22.7871
20.7636
18.9036
17.1995
15.6427
14.2235
12.9314
11.7561
10.6878
9.71827
8.84015
8.0471
7.33326
6.69301
6.12075
5.61078
5.15741
4.75498
4.39806
4.08152
3.80064
3.55113
3.32917
3.13141
2.95491
2.79711
2.6558
2.52906
2.4153
163.67
162.765
206.098
250.945
287.058
310.256
319.714
317.19
305.189
285.885
261.394
234.303
207.473
183.309
163.209
147.46
135.489
126.281
118.759
112.099
105.858
99.9219
94.3487
89.1968
84.4144
79.8261
75.2113
70.4281
65.5009
60.6094
55.9925
51.8418
48.2517
45.2332
42.7555
40.7794
39.2819
38.311
38.0741
38.5746
39.8711
42.0732
45.3314
49.7892
55.4941
62.3418
70.1621
78.8533
88.2191
97.3844
104.344
106.714
103.689
96.9677
89.2354
82.3013
76.8658
73.0888
70.8282
69.659
69.0044
68.3481
67.3808
66.0171
64.3265
62.4461
60.5205
58.6748
57.0135
55.6296
54.6172
54.084
54.1644
55.037
56.9456
60.2187
65.2823
72.683
83.1292
97.3869
115.672
136.653
157.299
174.458
186.93
193.254
191.051
179.145
160.097
139.342
121.685
109.057
101.005
96.2229
93.4838
91.9098
90.9505
90.2834
89.7216
89.1538
88.5101
87.7468
86.8374
85.7682
84.533
83.1276
81.5444
79.8644
78.0731
76.1588
74.122
71.9795
69.7624
67.5102
65.2723
63.1141
61.1024
59.2478
57.4696
55.6687
53.8388
52.0656
50.4294
48.952
47.6438
46.5918
45.9738
45.9404
46.4635
47.3154
48.1988
48.8958
49.3294
49.5393
49.6285
49.7182
49.914
50.2716
50.7482
51.0971
51.0114
50.2854
48.8084
46.606
43.8295
40.7007
37.4433
34.2339
31.1842
28.348
25.741
23.3583
21.1874
19.2143
17.4248
15.8048
14.3401
13.0168
11.8214
10.7417
9.76672
8.88733
8.09552
7.38418
6.74681
6.17722
5.66936
5.21736
4.81553
4.45845
4.14105
3.8587
3.60724
3.38293
3.18252
3.00315
2.84236
2.698
2.56819
2.45143
139.269
139.361
182.028
225.811
262.699
290.074
306.178
310.847
305.325
291.467
271.416
247.668
222.898
199.469
178.974
162.085
148.675
138.1
129.515
122.152
115.495
109.3
103.521
98.1658
93.1962
88.4752
83.8042
79.012
74.043
68.9871
64.035
59.3973
55.2394
51.6587
48.6924
46.3371
44.572
43.4185
43.0709
43.5112
44.8083
47.0737
50.4441
55.0289
60.8336
67.7304
75.5478
84.1405
93.1471
101.448
106.979
107.802
103.869
97.1637
89.9105
83.3478
77.9762
73.9809
71.2561
69.419
67.9841
66.5625
64.9569
63.1438
61.2013
59.2396
57.3619
55.6529
54.183
53.0195
52.2379
51.9324
52.2263
53.287
55.3456
58.7208
63.8392
71.2593
81.7297
96.2131
115.474
138.841
162.982
182.895
195.535
199.359
193.48
178.671
158.433
137.707
120.279
107.535
99.0441
93.6953
90.4043
88.3555
87.01
86.0376
85.2421
84.5049
83.7503
82.9267
81.9972
80.9352
79.7221
78.3446
76.7971
75.1459
73.3767
71.4814
69.4656
67.3513
65.1761
62.9915
60.8652
58.8787
57.0911
55.4786
53.9415
52.4142
50.9399
49.6003
48.4116
47.3245
46.3324
45.5755
45.2815
45.5478
46.2002
46.9011
47.3689
47.4944
47.3164
46.9465
46.5149
46.1523
45.9887
46.1421
46.667
47.4172
48.1491
48.5166
48.2028
47.0246
44.988
42.2673
39.1256
35.826
32.5726
29.4928
26.6483
24.0573
21.7147
19.6053
17.7104
16.011
14.4881
13.1234
11.8999
10.8023
9.81716
8.93288
8.13968
7.42904
6.7934
6.2258
5.71975
5.26908
4.86795
4.51093
4.19297
3.9095
3.65643
3.43013
3.22743
3.04555
2.88211
2.73502
2.60248
2.483
114.997
116.894
157.08
197.216
231.82
260.498
281.869
294.352
297.449
291.828
278.969
260.932
240.111
218.823
198.892
181.414
166.756
154.719
144.78
136.33
128.862
122.057
115.771
109.953
104.562
99.4993
94.6098
89.7292
84.7528
79.6821
74.6247
69.7504
65.2362
61.2253
57.8098
55.0347
52.9199
51.5745
51.091
51.5141
52.919
55.4028
59.0595
63.9289
69.9413
76.9294
84.7127
93.0589
101.332
108.055
111.196
109.631
104.308
97.3252
90.245
83.7992
78.3844
74.1762
71.0347
68.5907
66.4527
64.3605
62.2189
60.0504
57.9286
55.9307
54.119
52.5413
51.2394
50.2596
49.662
49.5292
49.9746
51.1543
53.2851
56.6688
61.7173
68.9774
79.181
93.3288
112.528
136.918
163.775
187.149
201.778
205.275
197.576
180.895
159.545
138.327
120.528
107.258
98.1057
92.077
88.1752
85.6212
83.877
82.5985
81.5732
80.6697
79.8024
78.911
77.9501
76.8843
75.687
74.3383
72.8306
71.2123
69.4726
67.6079
65.6287
63.5623
61.453
59.3642
57.3809
55.5941
54.0479
52.6936