/*--------------------------------*- C++ -*----------------------------------*\
  =========                 |
  \\      /  F ield         | OpenFOAM: The Open Source CFD Toolbox
   \\    /   O peration     | Website:  https://openfoam.org
    \\  /    A nd           | Version:  9
     \\/     M anipulation  |
\*---------------------------------------------------------------------------*/
FoamFile
{
    format      ascii;
    class       volScalarField;
    location    "0.05";
    object      p;
}
// * * * * * * * * * * * * * * * * * * * * * * * * * * * * * * * * * * * * * //

dimensions      [0 2 -2 0 0 0 0];

internalField   nonuniform List<scalar> 
12225
(
-3.13964
-4.31161
-4.86648
-4.97793
-5.04543
-5.12611
-5.17967
-5.19232
-5.1697
-5.11623
-5.03098
-4.91073
-4.75161
-4.54876
-4.29578
-3.98285
-3.59766
-3.12777
-4.25099
-4.88137
-5.10489
-5.11182
-5.12734
-5.17298
-5.20512
-5.20482
-5.17402
-5.11561
-5.02804
-4.9077
-4.75073
-4.55258
-4.30782
-4.00886
-3.65136
-3.24549
-4.37677
-4.62139
-4.86978
-4.9823
-5.04774
-5.11388
-5.16114
-5.17378
-5.15351
-5.10431
-5.02587
-4.91555
-4.77049
-4.58772
-4.36442
-4.09838
-3.7971
-3.49867
-4.46013
-4.64682
-4.92968
-5.06455
-5.11667
-5.16322
-5.19866
-5.20521
-5.18153
-5.13108
-5.05393
-4.94787
-4.81076
-4.64106
-4.43851
-4.20564
-3.95681
-3.72641
-4.55933
-4.71908
-4.96026
-5.08006
-5.12385
-5.16373
-5.19726
-5.2054
-5.18471
-5.13837
-5.06708
-4.96938
-4.84401
-4.69082
-4.51166
-4.31198
-4.10698
-3.92216
-4.65772
-4.78266
-4.97503
-5.0893
-5.13965
-5.18002
-5.21267
-5.22206
-5.20424
-5.16209
-5.09691
-5.00803
-4.89505
-4.75902
-4.60323
-4.43445
-4.26638
-4.11842
-4.74921
-4.84356
-4.99901
-5.1095
-5.16485
-5.20316
-5.2324
-5.24176
-5.22677
-5.18938
-5.13121
-5.05232
-4.95309
-4.83544
-4.70349
-4.56428
-4.42932
-4.31262
-4.83474
-4.90639
-5.03273
-5.1352
-5.19179
-5.22813
-5.25503
-5.26547
-5.25457
-5.22333
-5.17357
-5.10608
-5.02193
-4.92363
-4.81565
-4.70464
-4.59985
-4.51101
-4.91581
-4.97084
-5.07303
-5.16494
-5.22124
-5.25713
-5.28319
-5.29537
-5.28914
-5.26486
-5.22446
-5.16935
-5.10114
-5.02267
-4.9384
-4.85429
-4.7776
-4.71524
-4.99342
-5.03607
-5.11854
-5.19958
-5.25472
-5.29094
-5.31707
-5.33141
-5.33034
-5.31383
-5.28376
-5.24195
-5.19039
-5.13206
-5.07116
-5.01288
-4.96298
-4.92653
-5.06833
-5.10173
-5.16853
-5.23944
-5.29265
-5.32952
-5.35661
-5.37382
-5.37856
-5.37065
-5.35177
-5.32399
-5.28955
-5.25141
-5.21341
-5.18
-5.15582
-5.14483
-5.13512
-5.16231
-5.21796
-5.28064
-5.33169
-5.3694
-5.39822
-5.41881
-5.42948
-5.43005
-5.42205
-5.40759
-5.38902
-5.36921
-5.35164
-5.34017
-5.33866
-5.35041
-5.2
-5.22256
-5.26946
-5.32513
-5.37408
-5.41284
-5.44404
-5.46861
-5.48563
-5.49502
-5.49816
-5.49715
-5.49432
-5.49239
-5.49447
-5.50391
-5.52397
-5.55748
-5.27263
-5.29132
-5.33082
-5.38023
-5.42725
-5.46755
-5.50219
-5.53208
-5.55692
-5.57681
-5.59299
-5.60741
-5.6223
-5.64015
-5.66366
-5.69566
-5.73889
-5.79568
-5.35326
-5.36897
-5.40283
-5.4474
-5.49318
-5.5358
-5.57518
-5.61198
-5.6463
-5.67842
-5.70944
-5.74108
-5.77534
-5.81439
-5.86051
-5.91598
-5.98302
-6.06351
-5.44166
-5.45542
-5.48572
-5.52746
-5.57339
-5.61951
-5.66514
-5.71058
-5.75609
-5.80205
-5.84938
-5.8995
-5.95409
-6.0149
-6.08374
-6.16235
-6.25241
-6.35526
-5.53657
-5.5495
-5.5785
-5.61996
-5.6681
-5.71943
-5.77297
-5.82875
-5.88697
-5.94795
-6.0124
-6.08138
-6.15611
-6.2379
-6.32801
-6.42763
-6.53785
-6.65946
-5.63437
-5.64764
-5.67777
-5.72187
-5.77484
-5.83346
-5.89662
-5.96415
-6.03605
-6.11245
-6.19375
-6.2806
-6.37374
-6.47396
-6.58198
-6.69842
-6.82383
-6.95844
-5.72625
-5.74139
-5.77558
-5.82581
-5.88675
-5.95504
-6.02949
-6.10976
-6.1956
-6.28679
-6.38335
-6.48547
-6.59346
-6.70759
-6.8281
-6.95509
-7.08864
-7.22856
-5.77786
-5.79608
-5.83671
-5.8956
-5.96601
-6.04395
-6.12833
-6.21893
-6.31533
-6.41697
-6.52351
-6.63487
-6.75105
-6.87199
-6.99762
-7.12777
-7.26226
-7.40069
-5.79386
-5.81548
-5.86348
-5.93174
-6.01122
-6.09731
-6.18944
-6.28768
-6.39138
-6.49976
-6.61241
-6.72917
-6.84991
-6.9744
-7.10239
-7.23355
-7.36761
-7.50415
-5.78533
-5.8116
-5.86949
-5.94908
-6.0377
-6.13093
-6.22987
-6.33494
-6.44483
-6.5583
-6.67499
-6.79485
-6.91767
-7.0432
-7.17124
-7.30138
-7.43313
-7.56591
-5.75703
-5.78979
-5.86101
-5.9545
-6.05212
-6.15081
-6.25491
-6.3656
-6.48084
-6.59896
-6.71965
-6.84288
-6.96822
-7.09506
-7.22355
-7.35329
-7.48385
-7.6149
-5.71265
-5.75478
-5.84322
-5.95208
-6.0587
-6.16332
-6.27256
-6.38707
-6.50452
-6.62398
-6.74566
-6.86951
-6.99526
-7.12262
-7.25061
-7.37897
-7.50741
-7.63531
-5.65421
-5.71137
-5.82415
-5.94457
-6.05415
-6.16526
-6.28457
-6.40755
-6.5303
-6.65319
-6.77743
-6.90318
-7.02999
-7.15737
-7.28484
-7.41217
-7.53922
-7.66585
-5.58233
-5.65849
-5.81561
-5.94867
-6.04701
-6.15072
-6.27095
-6.39694
-6.52213
-6.64723
-6.7737
-6.9014
-7.0296
-7.15781
-7.28573
-7.41313
-7.53968
-7.66478
-5.50385
-5.58092
-5.7972
-5.9746
-6.08739
-6.19505
-6.316
-6.44043
-6.5633
-6.68634
-6.811
-6.93686
-7.06309
-7.18919
-7.31486
-7.43989
-7.56417
-7.6881
-5.44502
-5.50704
-5.67761
-5.83996
-5.97394
-6.11076
-6.25202
-6.38905
-6.52151
-6.65275
-6.78417
-6.91539
-7.04586
-7.1753
-7.3035
-7.43029
-7.55574
-7.68077
-5.37736
-5.81732
-5.99157
-6.02755
-6.09258
-6.2046
-6.32965
-6.45216
-6.57357
-6.69691
-6.82219
-6.94824
-7.07422
-7.19963
-7.32403
-7.44689
-7.56807
-7.688
-4.29649
-5.20744
-5.72893
-5.87407
-5.98721
-6.13565
-6.28484
-6.42233
-6.55429
-6.68575
-6.81728
-6.94808
-7.07763
-7.20569
-7.3319
-7.45563
-7.5763
-7.69164
-12.5173
-12.5393
-12.5767
-12.6533
-12.7775
-12.9571
-13.1885
-13.4563
-13.7366
-14.0118
-14.282
-14.5566
-14.8583
-15.221
-15.6397
-16.0573
-16.4097
-16.6657
-16.8314
-16.924
-17.0001
-17.1017
-17.2192
-17.3487
-17.5172
-17.7907
-18.2583
-18.9974
-20.0487
-21.4126
-23.0503
-24.8905
-26.8418
-28.8038
-30.6767
-32.3688
-33.8021
-34.9183
-35.6782
-36.0572
-36.0263
-35.5321
-34.5446
-33.1072
-31.2718
-29.0892
-26.6089
-23.8809
-20.9559
-17.8847
-14.7174
-11.5029
-8.28777
-5.11588
-2.02742
0.941699
3.76073
6.40476
8.85491
11.0982
13.1276
14.9422
16.5455
17.9438
19.1462
20.1652
21.0125
21.6947
22.218
22.5926
22.8276
22.9321
22.916
22.7905
22.5685
22.2654
21.8994
21.4916
21.0662
20.6498
20.2668
19.9418
19.6981
19.5454
19.4814
19.4917
19.5529
19.6354
19.7059
19.7336
19.6995
19.5027
18.9247
17.7846
15.9456
13.2603
9.62281
5.10877
0.0666112
-5.07632
-9.97363
-14.3959
-18.2167
-21.3813
-23.8791
-25.723
-26.934
-27.53
-27.5241
-26.9044
-25.7129
-23.9844
-21.7494
-19.0401
-15.894
-12.3566
-8.48354
-4.34396
-0.022653
4.37815
8.73897
12.9267
16.8041
20.2455
23.1568
25.4907
27.2131
28.3017
28.789
28.7441
28.2526
27.4092
26.3093
25.0432
23.692
22.3262
21.0053
19.7768
18.6843
17.7795
16.9977
16.337
15.7723
15.2984
14.8999
14.5611
14.2757
14.0465
13.8826
13.7948
13.7895
13.8652
14.0115
14.2114
14.4446
14.692
14.9373
15.1723
15.3811
15.5915
15.814
16.007
16.1646
16.2983
16.4163
16.5214
16.6146
16.6962
16.7695
16.837
16.9009
16.9631
17.0256
17.0905
17.1602
17.2373
17.3261
17.4267
17.5578
17.6685
-12.4358
-12.4327
-12.4663
-12.5471
-12.6892
-12.8958
-13.1538
-13.4447
-13.7549
-14.0731
-14.3923
-14.7312
-15.1327
-15.6147
-16.1423
-16.6343
-17.0197
-17.2549
-17.3067
-17.218
-17.1028
-17.0688
-17.178
-17.402
-17.6984
-18.1296
-18.8153
-19.8432
-21.2443
-22.9899
-25.0041
-27.1808
-29.4014
-31.5487
-33.5168
-35.2158
-36.5725
-37.5298
-38.0488
-38.1072
-37.7098
-36.9
-35.7196
-34.1682
-32.2591
-30.0217
-27.4961
-24.7281
-21.7662
-18.6598
-15.4581
-12.2092
-8.95917
-5.75147
-2.62627
0.380303
3.23701
5.91823
8.40442
10.6822
12.7443
14.5891
16.2194
17.642
18.8669
19.9074
20.775
21.4766
22.0207
22.4163
22.6717
22.7952
22.7953
22.6823
22.4694
22.1732
21.8139
21.4136
20.9948
20.5793
20.1949
19.8695
19.6237
19.4724
19.4176
19.446
19.5347
19.6514
19.7501
19.7606
19.6792
19.4718
19.0008
17.9413
15.9119
12.7632
8.55648
3.56726
-1.74297
-6.9519
-11.7681
-16.0289
-19.6604
-22.6383
-24.9626
-26.6441
-27.7005
-28.1555
-28.0335
-27.3724
-26.1741
-24.4532
-22.2335
-19.5443
-16.4214
-12.9082
-9.05863
-4.93909
-0.63182
3.7634
8.12927
12.3343
16.2412
19.7227
22.6808
25.0532
26.8003
27.9126
28.4276
28.412
27.9506
27.1372
26.0664
24.8277
23.5017
22.1583
20.8557
19.6412
18.546
17.5641
16.7336
16.0701
15.5305
15.0971
14.7458
14.4558
14.2153
14.0234
13.8871
13.8172
13.8219
13.9017
14.048
14.2452
14.4744
14.7174
14.9603
15.1956
15.4345
15.6516
15.8345
16.0062
16.1591
16.2918
16.4092
16.5143
16.6075
16.6901
16.7639
16.8319
16.896
16.9581
17.02
17.0838
17.1518
17.2264
17.3115
17.4067
17.5288
17.6226
-12.2533
-12.2481
-12.3205
-12.4956
-12.7308
-12.9815
-13.2215
-13.438
-13.6368
-13.8427
-14.1033
-14.4831
-14.9952
-15.5765
-16.1485
-16.6463
-17.0295
-17.2847
-17.4236
-17.4994
-17.5951
-17.8113
-18.2359
-18.908
-19.8279
-20.9891
-22.3818
-23.9836
-25.756
-27.6471
-29.5977
-31.5469
-33.4348
-35.2034
-36.797
-38.1621
-39.2483
-40.0072
-40.3933
-40.37
-39.9204
-39.0468
-37.7669
-36.1029
-34.0821
-31.7389
-29.1141
-26.2529
-23.2033
-20.014
-16.7334
-13.4085
-10.0848
-6.80516
-3.60994
-0.53577
2.38524
5.12646
7.66749
9.99458
12.1005
13.9841
15.649
17.1027
18.3556
19.4209
20.3128
21.0417
21.6163
22.0459
22.3383
22.4997
22.536
22.4537
22.2619
21.9736
21.6077
21.1892
20.7499
20.3268
19.9492
19.6401
19.4205
19.3037
19.2891
19.3656
19.5069
19.6817
19.8369
19.8922
19.7745
19.3752
18.4851
16.6365
13.4967
9.29385
4.50283
-0.485684
-5.383
-10.0005
-14.2209
-17.9713
-21.2057
-23.8957
-26.0241
-27.5809
-28.5621
-28.9733
-28.8283
-28.1463
-26.9388
-25.2211
-23.014
-20.3444
-17.2457
-13.7588
-9.93436
-5.83516
-1.5397
2.85539
7.2346
11.4662
15.411
18.9383
21.9495
24.3733
26.1655
27.3228
27.8812
27.9071
27.4855
26.7104
25.6761
24.4718
23.1774
21.8624
20.584
19.3869
18.3033
17.3521
16.561
15.8868
15.3443
14.9065
14.5558
14.2804
14.0715
13.9245
13.8394
13.818
13.8614
13.9662
14.1237
14.3209
14.5432
14.7765
15.0101
15.2383
15.4599
15.6574
15.8338
16.004
16.1593
16.294
16.4119
16.5166
16.6094
16.6914
16.7647
16.8318
16.8946
16.9549
17.0145
17.0751
17.1388
17.2074
17.2839
17.3667
17.4659
17.5331
-12.2176
-12.2795
-12.5768
-12.9845
-13.3346
-13.5615
-13.6581
-13.6506
-13.6015
-13.6051
-13.7589
-14.0883
-14.553
-15.0917
-15.6523
-16.1837
-16.6547
-17.0906
-17.5483
-18.0908
-18.7697
-19.625
-20.6817
-21.9393
-23.375
-24.9556
-26.6489
-28.4274
-30.2671
-32.1442
-34.0306
-35.8909
-37.6813
-39.35
-40.8402
-42.0941
-43.0563
-43.678
-43.9179
-43.7475
-43.1562
-42.1412
-40.7135
-38.8951
-36.7172
-34.218
-31.4413
-28.4344
-25.2459
-21.9245
-18.5179
-15.0718
-11.6306
-8.23667
-4.93062
-1.75034
1.27007
4.10178
6.7226
9.11781
11.2802
13.2096
14.9112
16.3945
17.6719
18.7589
19.6711
20.4207
21.0184
21.4746
21.7974
21.9924
22.0638
22.0152
21.8517
21.5828
21.2248
20.8031
20.3518
19.9121
19.5325
19.2496
19.0844
19.0385
19.1046
19.2729
19.53
19.8111
19.9964
19.9826
19.5497
18.4492
16.3599
13.0915
9.00446
4.52133
-0.0488994
-4.5421
-8.86357
-12.9402
-16.701
-20.079
-23.0178
-25.4758
-27.4245
-28.8453
-29.7284
-30.0744
-29.8897
-29.1824
-27.9632
-26.2463
-24.0507
-21.4011
-18.3283
-14.8701
-11.0731
-6.99507
-2.70939
1.69154
6.09368
10.3635
14.3577
17.9463
21.024
23.5105
25.3596
26.5689
27.1754
27.2465
26.8686
26.1361
25.1435
23.9792
22.7226
21.4422
20.1948
19.0253
17.9665
17.0374
16.2495
15.5905
15.0626
14.6466
14.3256
14.0865
13.919
13.8165
13.7755
13.7944
13.8703
13.9978
14.1682
14.3703
14.592
14.8218
15.0509
15.273
15.4844
15.6788
15.8572
16.0236
16.1736
16.3043
16.4187
16.5203
16.6106
16.6909
16.7627
16.8283
16.8893
16.9472
17.0038
17.0604
17.1186
17.1798
17.2455
17.3135
17.3868
17.4301
-12.3875
-12.6375
-13.0869
-13.4998
-13.7679
-13.8704
-13.8272
-13.684
-13.506
-13.4004
-13.4463
-13.6586
-14.0033
-14.4417
-14.9654
-15.5819
-16.2996
-17.1315
-18.097
-19.2128
-20.4844
-21.9039
-23.4542
-25.1143
-26.8658
-28.6949
-30.592
-32.5473
-34.5473
-36.5707
-38.5867
-40.5539
-42.4225
-44.1361
-45.6362
-46.8649
-47.7687
-48.3009
-48.4244
-48.1161
-47.366
-46.1746
-44.5574
-42.5408
-40.1607
-37.4602
-34.4873
-31.2921
-27.9248
-24.4342
-20.8662
-17.2642
-13.6698
-10.1239
-6.66706
-3.33908
-0.177475
2.78493
5.52234
8.0177
10.2631
12.2588
14.012
15.5344
16.8418
17.9536
18.8869
19.6553
20.2726
20.7511
21.1001
21.3255
21.4309
21.4178
21.288
21.0469
20.7069
20.2908
19.8341
19.3834
18.9917
18.712
18.5783
18.5965
18.7512
19.0217
19.3716
19.7108
19.8743
19.5976
18.4377
16.2388
12.898
8.86503
4.573
0.25761
-3.98082
-8.10024
-12.0562
-15.7893
-19.2324
-22.3226
-25.0081
-27.2503
-29.0216
-30.3019
-31.0788
-31.3505
-31.1176
-30.3818
-29.1506
-27.4359
-25.2548
-22.63
-19.5898
-16.169
-12.4094
-8.36284
-4.09605
0.303812
4.72476
9.03173
13.0807
16.738
19.8872
22.4406
24.351
25.616
26.2746
26.3961
26.0683
25.3862
24.4438
23.3286
22.1188
20.8821
19.6747
18.5412
17.514
16.6136
15.8511
15.2235
14.7251
14.3419
14.0583
13.8604
13.7369
13.6791
13.6812
13.7388
13.847
13.9992
14.1867
14.3992
14.6259
14.8571
15.085
15.3041
15.5112
15.7032
15.8787
16.0388
16.1831
16.3107
16.4232
16.5231
16.6121
16.6912
16.7619
16.826
16.885
16.9405
16.9937
17.0459
17.0983
17.1515
17.206
17.2588
17.3087
17.3299
-12.3984
-12.7154
-13.0321
-13.2793
-13.4263
-13.4656
-13.383
-13.2348
-13.0832
-13.005
-13.0405
-13.1976
-13.4921
-13.9503
-14.5985
-15.4528
-16.5136
-17.7674
-19.1933
-20.7685
-22.4705
-24.2799
-26.1812
-28.1638
-30.2217
-32.3505
-34.5441
-36.7905
-39.0695
-41.3507
-43.5944
-45.752
-47.7688
-49.5865
-51.146
-52.39
-53.2653
-53.725
-53.7341
-53.275
-52.3446
-50.9489
-49.1087
-46.8571
-44.2372
-41.2992
-38.0972
-34.6861
-31.1185
-27.4424
-23.7004
-19.9308
-16.1691
-12.4517
-8.81759
-5.30879
-1.96807
1.16494
4.05796
6.68924
9.04864
11.1365
12.9618
14.5395
15.8899
17.036
17.9958
18.7858
19.4234
19.9228
20.2953
20.5484
20.6858
20.7084
20.616
20.4107
20.1011
19.7066
19.2609
18.8116
18.4157
18.1305
17.9946
18.0271
18.2153
18.5318
18.9182
19.2355
19.2096
18.3986
16.3747
13.173
9.18802
4.93487
0.681902
-3.47392
-7.50598
-11.3936
-15.0976
-18.5654
-21.742
-24.5784
-27.0342
-29.0775
-30.6832
-31.8315
-32.5082
-32.7088
-32.4288
-31.666
-30.4251
-28.7158
-26.5533
-23.9585
-20.9581
-17.5837
-13.8727
-9.87028
-5.63591
-1.25088
3.1765
7.51217
11.6117
15.3326
18.5485
21.1656
23.1347
24.4545
25.1662
25.3413
25.0692
24.4449
23.5615
22.5048
21.3516
20.1681
19.0101
17.9221
16.9374
16.0775
15.3537
14.7657
14.3076
13.9673
13.7299
13.5812
13.5087
13.5018
13.5523
13.6531
13.7975
13.9781
14.186
14.412
14.6467
14.8818
15.1109
15.3294
15.5345
15.724
15.8966
16.0531
16.1943
16.32
16.4311
16.5293
16.6165
16.6939
16.7628
16.8248
16.8814
16.934
16.9835
17.0311
17.0773
17.1225
17.1662
17.2049
17.2348
17.2357
-11.906
-12.139
-12.2966
-12.4189
-12.4868
-12.4859
-12.4546
-12.391
-12.3428
-12.3542
-12.4584
-12.6965
-13.1192
-13.7704
-14.6753
-15.835
-17.2295
-18.8267
-20.591
-22.492
-24.5078
-26.6259
-28.8405
-31.1491
-33.5484
-36.031
-38.583
-41.1822
-43.7977
-46.3899
-48.9114
-51.3079
-53.5205
-55.4877
-57.1477
-58.4408
-59.3113
-59.7107
-59.6068
-58.9915
-57.8656
-56.2399
-54.1419
-51.6139
-48.71
-45.4919
-42.0245
-38.3714
-34.5904
-30.7299
-26.8272
-22.9102
-19.002
-15.1275
-11.3192
-7.6191
-4.07661
-0.741811
2.34191
5.14394
7.64911
9.85644
11.7768
13.4297
14.8403
16.034
17.0294
17.8486
18.5113
19.0345
19.4315
19.7117
19.8806
19.9395
19.8875
19.7245
19.4559
19.0976
18.6798
18.2477
17.8563
17.5603
17.4002
17.3986
17.5536
17.8391
18.1715
18.3396
17.9472
16.4786
13.7115
9.89316
5.64981
1.36008
-2.82251
-6.85964
-10.7406
-14.4445
-17.9362
-21.174
-24.1175
-26.7308
-28.9837
-30.8506
-32.3093
-33.3401
-33.9277
-34.0656
-33.7447
-32.9603
-31.7145
-30.0149
-27.8754
-25.3157
-22.3609
-19.0408
-15.3886
-11.4435
-7.2575
-2.90538
1.51082
5.85992
9.99535
13.7649
17.0335
19.7021
21.7203
23.0883
23.85
24.0797
23.8675
23.3078
22.4917
21.5024
20.4147
19.2935
18.1941
17.1614
16.2293
15.4205
14.7471
14.2105
13.8055
13.5202
13.3398
13.2497
13.2359
13.2861
13.3898
13.538
13.7225
13.9349
14.1668
14.4098
14.6558
14.8979
15.1308
15.3508
15.5556
15.7438
15.9148
16.0692
16.208
16.3315
16.4405
16.5367
16.6218
16.6971
16.764
16.8239
16.878
16.9274
16.9732
17.016
17.0562
17.0936
17.127
17.1528
17.1659
17.1493
-11.0011
-11.1073
-11.1958
-11.265
-11.3102
-11.3286
-11.3359
-11.3511
-11.4037
-11.5309
-11.7819
-12.2141
-12.8778
-13.8047
-15.0022
-16.4539
-18.1282
-19.9899
-22.0095
-24.1671
-26.4527
-28.8627
-31.3959
-34.0489
-36.8133
-39.6736
-42.6067
-45.5817
-48.5601
-51.4964
-54.3379
-57.0249
-59.4925
-61.6728
-63.4974
-64.9006
-65.8224
-66.2106
-66.0309
-65.279
-63.95
-62.0607
-59.6501
-56.7754
-53.5075
-49.9265
-46.1155
-42.1545
-38.1139
-34.0484
-29.9918
-25.9587
-21.9504
-17.9684
-14.0267
-10.1598
-6.42123
-2.87413
0.421349
3.4196
6.09638
8.44708
10.4844
12.2337
13.7223
14.9745
16.0171
16.8751
17.5709
18.1235
18.5487
18.8582
19.0595
19.1555
19.1458
19.0294
18.8089
18.4965
18.1181
17.714
17.3333
17.0248
16.8263
16.7636
16.8448
17.0409
17.2323
17.126
16.2527
14.1835
10.861
6.72929
2.40238
-1.85566
-5.9582
-9.89007
-13.6396
-17.1832
-20.4903
-23.5298
-26.2735
-28.6964
-30.7763
-32.4929
-33.8266
-34.7582
-35.271
-35.3576
-35.005
-34.2063
-32.9615
-31.2765
-29.1639
-26.6428
-23.7377
-20.4771
-16.8918
-13.016
-8.89501
-4.59533
-0.20971
4.13373
8.28247
12.0772
15.3761
18.0762
20.127
21.5313
22.3366
22.6192
22.4696
21.9799
21.2379
20.3234
19.3087
18.2572
17.2241
16.2549
15.3846
14.6372
14.0258
13.5529
13.2137
12.9958
12.884
12.8627
12.9161
13.0301
13.1926
13.393
13.6217
13.8702
14.1301
14.3939
14.6547
14.9069
15.1461
15.3695
15.5757
15.7638
15.9339
16.0867
16.2233
16.3445
16.4514
16.5456
16.6286
16.7019
16.7666
16.8241
16.8754
16.9216
16.9634
17.0014
17.0355
17.0653
17.0891
17.1032
17.102
17.0713
-9.90147
-9.96129
-10.0156
-10.0572
-10.0918
-10.1323
-10.1875
-10.2774
-10.4341
-10.7053
-11.1482
-11.815
-12.7406
-13.9378
-15.3961
-17.0893
-18.986
-21.0604
-23.2963
-25.6876
-28.2342
-30.9367
-33.7928
-36.7939
-39.9249
-43.164
-46.4835
-49.8499
-53.2232
-56.5551
-59.7879
-62.8535
-65.6752
-68.1719
-70.2624
-71.8692
-72.9218
-73.359
-73.1416
-72.2645
-70.7156
-68.524
-65.7423
-62.4438
-58.7187
-54.6687
-50.4009
-46.0199
-41.6199
-37.2736
-33.0223
-28.8715
-24.797
-20.7639
-16.7509
-12.7702
-8.87083
-5.12755
-1.62085
1.58253
4.44474
6.95554
9.12894
10.9899
12.5655
13.8881
14.9885
15.895
16.6323
17.2217
17.6807
18.0232
18.2588
18.3927
18.4259
18.3569
18.1864
17.9225
17.5859
17.2108
16.8404
16.519
16.2831
16.1599
16.1591
16.2365
16.2259
15.7693
14.3954
11.8177
8.15197
3.88091
-0.449795
-4.65499
-8.6839
-12.5244
-16.1587
-19.5623
-22.7103
-25.5814
-28.1574
-30.4216
-32.3583
-33.9508
-35.182
-36.0331
-36.4864
-36.5342
-36.1596
-35.3546
-34.1171
-32.4517
-30.3701
-27.891
-25.0386
-21.8425
-18.3324
-14.5371
-10.4944
-6.2611
-1.92488
2.38836
6.52269
10.3132
13.6133
16.3185
18.3802
19.8052
20.6448
20.9772
20.891
20.4748
19.8114
18.9765
18.0393
17.0624
16.1009
15.2016
14.4009
13.7242
13.1856
12.7883
12.5273
12.3893
12.3582
12.4165
12.5466
12.7326
12.9606
13.2186
13.4965
13.7853
14.0773
14.3656
14.6444
14.9093
15.1571
15.3859
15.5949
15.784
15.9539
16.1056
16.2405
16.3597
16.4645
16.5566
16.6374
16.7084
16.7707
16.8255
16.8739
16.9166
16.9543
16.9874
17.0155
17.038
17.0529
17.0564
17.0432
17.0012
-8.83868
-8.87685
-8.91447
-8.94494
-8.981
-9.03892
-9.13619
-9.2976
-9.56305
-9.98597
-10.6199
-11.5039
-12.6563
-14.0736
-15.7354
-17.6147
-19.6882
-21.9426
-24.3748
-26.9882
-29.7871
-32.7721
-35.937
-39.2692
-42.7508
-46.36
-50.0718
-53.8558
-57.6731
-61.4712
-65.1816
-68.719
-71.9856
-74.8784
-77.298
-79.1519
-80.3575
-80.8485
-80.592
-79.5803
-77.8124
-75.3236
-72.1735
-68.4452
-64.2418
-59.6808
-54.889
-49.9969
-45.1315
-40.3998
-35.8689
-31.5503
-27.4002
-23.3432
-19.3099
-15.2743
-11.2673
-7.36804
-3.67512
-0.27822
2.76894
5.44709
7.76192
9.73769
11.4076
12.808
13.9738
14.9362
15.7225
16.3556
16.8546
17.2349
17.5081
17.6813
17.7573
17.735
17.6135
17.3967
17.0996
16.7505
16.3888
16.058
15.7959
15.6286
15.5567
15.5075
15.2658
14.4435
12.6208
9.64719
5.76148
1.44903
-2.8608
-7.01803
-10.9848
-14.7442
-18.2761
-21.5578
-24.5706
-27.3011
-29.7387
-31.8733
-33.6935
-35.1859
-36.335
-37.1226
-37.5304
-37.5507
-37.1633
-36.3596
-35.1363
-33.4971
-31.4533
-29.0228
-26.2292
-23.1019
-19.67
-15.9606
-12.0051
-7.85244
-3.58504
0.672549
4.76197
8.51478
11.7825
14.4622
16.5096
17.9374
18.8006
19.1778
19.154
18.8119
18.228
17.4733
16.6144
15.7132
14.8259
14.0007
13.276
12.6783
12.2227
11.9127
11.7424
11.6972
11.7592
11.9088
12.126
12.3929
12.6939
13.0158
13.3481
13.6817
14.0096
14.3257
14.6255
14.9057
15.1642
15.4
15.6133
15.8045
15.975
16.1261
16.2595
16.3769
16.4797
16.5696
16.648
16.7165
16.7762
16.8282
16.8735
16.9126
16.9462
16.9743
16.9966
17.0121
17.0188
17.0129
16.9895
16.9383
-7.90437
-7.93105
-7.95931
-7.9841
-8.02364
-8.1004
-8.23752
-8.46623
-8.83151
-9.38634
-10.1765
-11.229
-12.5494
-14.1248
-15.9323
-17.9494
-20.1628
-22.5699
-25.1765
-27.9907
-31.0178
-34.256
-37.697
-41.3277
-45.133
-49.0971
-53.2015
-57.4201
-61.7115
-66.0122
-70.2332
-74.2623
-77.9732
-81.2391
-83.9462
-85.9983
-87.3132
-87.8301
-87.5302
-86.4116
-84.4704
-81.7411
-78.2872
-74.1991
-69.5887
-64.5815
-59.3122
-53.9229
-48.5658
-43.3909
-38.5096
-33.9589
-29.6908
-25.6004
-21.568
-17.5226
-13.4634
-9.46145
-5.62524
-2.06178
1.15365
3.98624
6.43515
8.52364
10.2879
11.768
13.0022
14.0248
14.8649
15.5472
16.0917
16.5148
16.8295
17.0445
17.1642
17.1887
17.1158
16.9459
16.6886
16.3674
16.0191
15.6889
15.4166
15.2245
15.0959
14.9225
14.4494
13.2898
11.0993
7.83611
3.80701
-0.527685
-4.81887
-8.94189
-12.8595
-16.5502
-19.9929
-23.1696
-26.0686
-28.6828
-31.0072
-33.0365
-34.7627
-36.175
-37.2591
-37.9978
-38.3737
-38.3756
-37.9841
-37.1902
-35.9892
-34.3832
-32.3819
-30.0029
-27.271
-24.2159
-20.8666
-17.2483
-13.3876
-9.32786
-5.14772
-0.971367
3.04121
6.72047
9.91957
12.5407
14.5472
15.9588
16.8339
17.2489
17.283
17.0108
16.5017
15.8223
15.0372
14.2088
13.3952
12.6467
12.0037
11.4936
11.1316
10.9214
10.8552
10.9163
11.0847
11.3377
11.6531
12.0105
12.3926
12.7852
13.1774
13.5606
13.9281
14.2754
14.5989
14.8967
15.1678
15.4123
15.631
15.8253
15.997
16.148
16.2804
16.3961
16.4969
16.5845
16.6606
16.7264
16.7834
16.8324
16.8744
16.9099
16.9392
16.9625
16.9792
16.9881
16.9872
16.9729
16.9408
16.882
-7.1129
-7.13983
-7.15599
-7.17806
-7.22375
-7.3185
-7.49
-7.77353
-8.21505
-8.86411
-9.75973
-10.9209
-12.3463
-14.0198
-15.9203
-18.0318
-20.3487
-22.8758
-25.6237
-28.6022
-31.8155
-35.2608
-38.9299
-42.8125
-46.8995
-51.1829
-55.6504
-60.2766
-65.0124
-69.7763
-74.4529
-78.9005
-82.967
-86.5103
-89.4157
-91.5977
-92.9863
-93.5261
-93.2141
-92.0345
-89.9723
-87.063
-83.3764
-79.013
-74.0962
-68.761
-63.1436
-57.381
-51.6293
-46.0664
-40.8468
-36.0445
-31.6268
-27.4955
-23.4649
-19.4369
-15.3686
-11.3097
-7.37203
-3.67765
-0.323599
2.63942
5.20402
7.39263
9.24324
10.7985
12.0996
13.1826
14.0786
14.8131
15.407
15.8774
16.2377
16.4981
16.6642
16.7373
16.7151
16.5958
16.3844
16.1
15.7779
15.4647
15.2004
15.0007
14.8276
14.5379
13.8522
12.4046
9.92609
6.45207
2.32136
-2.03315
-6.3157
-10.4151
-14.293
-17.9263
-21.2959
-24.3881
-27.1963
-29.7182
-31.9533
-33.8995
-35.552
-36.9016
-37.9356
-38.6373
-38.9895
-38.9808
-38.5916
-37.8127
-36.6388
-35.0708
-33.1174
-30.7956
-28.1303
-25.152
-21.8898
-18.3675
-14.6084
-10.6522
-6.57675
-2.50695
1.39625
4.96498
8.05806
10.587
12.5257
13.9015
14.7747
15.217
15.2986
15.0846
14.6377
14.0209
13.2988
12.5359
11.793
11.1233
10.5684
10.1564
9.90139
9.8062
9.85959
10.0425
10.3317
10.7016
11.1269
11.5851
12.0571
12.5277
12.9858
13.4231
13.8343
14.2158
14.5656
14.8831
15.1685
15.423
15.6482
15.8465
16.02
16.1714
16.3031
16.4173
16.5161
16.6014
16.675
16.7381
16.7922
16.8381
16.8767
16.9085
16.9337
16.9521
16.9634
16.966
16.9582
16.9365
16.8968
16.8318
-6.45952
-6.4764
-6.48545
-6.50521
-6.55558
-6.6632
-6.85796
-7.17615
-7.66189
-8.3607
-9.30725
-10.5173
-11.9878
-13.7042
-15.6489
-17.8112
-20.1907
-22.7963
-25.6403
-28.7328
-32.0774
-35.6711
-39.5069
-43.5787
-47.8831
-52.4177
-57.1735
-62.1226
-67.2051
-72.3209
-77.3314
-82.0717
-86.3729
-90.0865
-93.1017
-95.3458
-96.7679
-97.3247
-97.0195
-95.8128
-93.6904
-90.6853
-86.8662
-82.3392
-77.2395
-71.7144
-65.9053
-59.9451
-53.9802
-48.1825
-42.7293
-37.7369
-33.205
-29.0192
-25.0006
-20.9952
-16.93
-12.8379
-8.83163
-5.0474
-1.596
1.46175
4.11356
6.38089
8.30269
9.92323
11.2849
12.4253
13.3761
14.1635
14.8089
15.3295
15.7394
16.049
16.2654
16.3911
16.4244
16.3625
16.2074
15.9744
15.6964
15.4196
15.1814
14.9886
14.7813
14.3884
13.5195
11.839
9.14077
5.51293
1.30815
-3.06787
-7.35291
-11.4409
-15.2914
-18.8812
-22.1939
-25.2199
-27.9567
-30.4061
-32.5707
-34.4515
-36.0457
-37.3461
-38.3411
-39.015
-39.3516
-39.3382
-38.9567
-38.1979
-37.0558
-35.5307
-33.6302
-31.3708
-28.7776
-25.8812
-22.7111
-19.2896
-15.6382
-11.7959
-7.84219
-3.90436
-0.143284
3.27798
6.22819
8.63218
10.4766
11.7962
12.6502
13.1023
13.2114
13.0333
12.625
12.0489
11.3719
10.6626
9.98588
9.39754
8.94031
8.64119
8.51181
8.55166
8.7446
9.0683
9.49584
9.99803
10.5467
11.1169
11.688
12.2442
12.7743
13.2708
13.7295
14.1483
14.5268
14.8658
15.1669
15.4325
15.6653
15.8681
16.0441
16.1963
16.3275
16.4404
16.5373
16.6203
16.6912
16.7516
16.8027
16.8454
16.8805
16.9086
16.9296
16.9434
16.9494
16.9463
16.9321
16.9037
16.8574
16.7871
-5.91916
-5.92219
-5.92251
-5.93795
-5.98849
-6.09992
-6.30194
-6.62971
-7.12413
-7.82696
-8.77109
-9.97314
-11.4331
-13.1401
-15.0811
-17.2488
-19.6454
-22.2809
-25.1681
-28.3165
-31.7296
-35.4048
-39.3364
-43.5204
-47.956
-52.6429
-57.572
-62.7119
-67.995
-73.3099
-78.5048
-83.4035
-87.8296
-91.632
-94.7018
-96.9755
-98.4202
-99.0108
-98.7371
-97.5532
-95.4484
-92.4478
-88.6141
-84.0531
-78.9061
-73.3308
-67.4746
-61.4658
-55.4373
-49.5538
-44.0033
-38.9281
-34.35
-30.156
-26.1549
-22.1692
-18.1091
-14.0006
-9.95859
-6.12684
-2.62304
0.487789
3.19183
5.51057
7.48344
9.15503
10.5679
11.7597
12.7619
13.6007
14.2977
14.8702
15.3322
15.6947
15.9655
16.1484
16.2432
16.2471
16.1603
15.9944
15.779
15.5569
15.361
15.187
14.9561
14.4781
13.4626
11.605
8.74872
5.01522
0.757825
-3.64204
-7.94025
-12.0299
-15.8671
-19.4288
-22.7013
-25.6788
-28.362
-30.756
-32.866
-34.6954
-36.2434
-37.5045
-38.4685
-39.1208
-39.4466
-39.4324
-39.0619
-38.3262
-37.2189
-35.74
-33.8965
-31.7041
-29.1878
-26.3786
-23.3052
-19.9894
-16.4519
-12.7344
-8.92072
-5.14148
-1.55573
1.68198
4.45469
6.70372
8.42897
9.67005
10.4813
10.9151
11.0186
10.8398
10.434
9.8664
9.20956
8.53815
7.92188
7.41935
7.07329
6.9083
6.93058
7.13243
7.49184
7.98159
8.5698
9.22327
9.91094
10.6059
11.2863
11.9362
12.5446
13.1052
13.6151
14.0741
14.4834
14.8457
15.1638
15.4416
15.6825
15.8906
16.0694
16.2227
16.3537
16.4653
16.5604
16.6411
16.7094
16.7669
16.8149
16.8544
16.886
16.9103
16.9272
16.9365
16.9375
16.9289
16.9089
16.8745
16.8225
16.7477
-5.46445
-5.46051
-5.44891
-5.45726
-5.50271
-5.60645
-5.79707
-6.10656
-6.57238
-7.23377
-8.12436
-9.26503
-10.6618
-12.3098
-14.2002
-16.3279
-18.6951
-21.311
-24.1874
-27.3335
-30.7526
-34.442
-38.3961
-42.6106
-47.0836
-51.8134
-56.7892
-61.9777
-67.3094
-72.6714
-77.911
-82.8512
-87.3152
-91.1509
-94.2482
-96.5448
-98.0158
-98.6472
-98.4069
-97.2558
-95.1945
-92.248
-88.4772
-83.9865
-78.9174
-73.4292
-67.6696
-61.7614
-55.8274
-50.0264
-44.5467
-39.5348
-35.0144
-30.8691
-26.9028
-22.9356
-18.8806
-14.7698
-10.7237
-6.88836
-3.38043
-0.262117
2.45527
4.79451
6.79504
8.50061
9.95258
11.1872
12.2353
13.1222
13.869
14.493
15.0082
15.4257
15.7539
15.998
16.1592
16.2357
16.2271
16.1417
16.0039
15.8504
15.7085
15.5634
15.3216
14.7827
13.6631
11.6872
8.73311
4.9393
0.649891
-3.77287
-8.09182
-12.1944
-16.0319
-19.5808
-22.8297
-25.7755
-28.4217
-30.7756
-32.8448
-34.6345
-36.1459
-37.3751
-38.3137
-38.9484
-39.2661
-39.2532
-38.8954
-38.1842
-37.1133
-35.6825
-33.8984
-31.7763
-29.3409
-26.6228
-23.6501
-20.4436
-17.0261
-13.445
-9.79112
-6.19853
-2.82185
0.197075
2.7596
4.82555
6.40656
7.54258
8.27822
8.65236
8.70207
8.472
8.02075
7.4209
6.75381
6.10178
5.53994
5.12915
4.91154
4.90702
5.11355
5.51257
6.0742
6.76341
7.54145
8.37044
9.21648
10.0512
10.8526
11.6048
12.2981
12.9278
13.4927
13.9946
14.4368
14.8237
15.16
15.4506
15.7004
15.9141
16.0961
16.2507
16.3816
16.4922
16.5854
16.6638
16.7295
16.784
16.8289
16.8651
16.8932
16.9137
16.9265
16.9315
16.9277
16.9141
16.8887
16.8489
16.7919
16.7131
-5.07948
-5.05972
-5.04462
-5.04731
-5.08375
-5.17098
-5.3309
-5.59215
-5.98974
-6.56219
-7.34575
-8.36769
-9.64253
-11.1733
-12.957
-14.9902
-17.2744
-19.8161
-22.6239
-25.7052
-29.062
-32.6907
-36.5841
-40.7344
-45.1351
-49.7792
-54.652
-59.7197
-64.9175
-70.1427
-75.2558
-80.0937
-84.4901
-88.2973
-91.402
-93.7321
-95.2491
-95.9219
-95.7675
-94.6945
-92.7306
-89.9129
-86.3049
-82.0113
-77.1692
-71.9292
-66.4278
-60.7786
-55.1
-49.5509
-44.3148
-39.5222
-35.1752
-31.1427
-27.2311
-23.2791
-19.2256
-15.1248
-11.107
-7.31534
-3.85589
-0.780172
1.90763
4.23304
6.23501
7.9551
9.43201
10.6995
11.7864
12.7166
13.5104
14.1845
14.7527
15.2264
15.6142
15.9223
16.1535
16.3074
16.3832
16.3863
16.3358
16.2607
16.1808
16.072
15.832
15.2585
14.0798
12.0445
9.05293
5.24611
0.951993
-3.48323
-7.8227
-11.9445
-15.793
-19.3426
-22.5826
-25.5119
-28.1358
-30.4631
-32.5032
-34.263
-35.7454
-36.9486
-37.8657
-38.4856
-38.797
-38.7865
-38.4422
-37.7561
-36.7224
-35.3408
-33.6179
-31.5688
-29.218
-26.5952
-23.7268
-20.6335
-17.3423
-13.9099
-10.4371
-7.06104
-3.9294
-1.16751
1.14771
2.99581
4.39793
5.38976
6.00227
6.26059
6.19524
5.85337
5.30253
4.62674
3.91802
3.267
2.75411
2.44226
2.37303
2.55888
2.98805
3.62908
4.44022
5.37415
6.38223
7.42021
8.4511
9.44577
10.3829
11.2483
12.0345
12.7389
13.3629
13.9107
14.3878
14.8008
15.1562
15.4604
15.7195
15.9391
16.1246
16.2806
16.4116
16.5211
16.6125
16.6886
16.7515
16.8031
16.8448
16.8776
16.9021
16.9189
16.9278
16.9285
16.9202
16.9018
16.8715
16.8269
16.7654
16.6832
-4.79749
-4.74345
-4.73137
-4.74058
-4.77132
-4.83201
-4.93894
-5.1184
-5.40562
-5.84143
-6.46707
-7.31793
-8.41852
-9.78128
-11.4094
-13.302
-15.4585
-17.8813
-20.5745
-23.5413
-26.7811
-30.288
-34.0519
-38.0601
-42.2994
-46.7555
-51.4082
-56.2236
-61.145
-66.0857
-70.9289
-75.5352
-79.7574
-83.4573
-86.5191
-88.8571
-90.4139
-91.15
-91.0437
-90.071
-88.261
-85.6526
-82.3127
-78.3423
-73.8674
-69.0202