/*--------------------------------*- C++ -*----------------------------------*\
  =========                 |
  \\      /  F ield         | OpenFOAM: The Open Source CFD Toolbox
   \\    /   O peration     | Website:  https://openfoam.org
    \\  /    A nd           | Version:  9
     \\/     M anipulation  |
\*---------------------------------------------------------------------------*/
FoamFile
{
    format      ascii;
    class       surfaceScalarField;
    location    "0.05";
    object      phi;
}
// * * * * * * * * * * * * * * * * * * * * * * * * * * * * * * * * * * * * * //

dimensions      [0 3 -1 0 0 0 0];

internalField   nonuniform List<scalar> 
24170
(
3.07215e-06
1.16259e-07
2.93214e-06
1.40007e-07
2.80326e-06
1.28876e-07
2.68422e-06
1.19045e-07
2.57311e-06
1.1111e-07
2.4715e-06
1.01605e-07
2.37967e-06
9.18373e-08
2.29674e-06
8.29226e-08
2.22156e-06
7.51801e-08
2.15286e-06
6.87087e-08
2.08926e-06
6.35979e-08
2.02931e-06
5.99467e-08
1.97144e-06
5.78735e-08
1.91385e-06
5.75877e-08
1.8544e-06
5.94466e-08
1.79003e-06
6.43736e-08
1.71615e-06
7.38812e-08
9.42008e-08
1.62195e-06
3.47963e-06
5.38751e-08
3.51323e-06
1.06405e-07
3.53269e-06
1.0942e-07
3.53844e-06
1.13292e-07
3.53328e-06
1.1627e-07
3.51972e-06
1.15167e-07
3.49976e-06
1.11797e-07
3.47492e-06
1.07763e-07
3.44637e-06
1.03734e-07
3.41496e-06
1.00113e-07
3.38128e-06
9.72842e-08
3.3456e-06
9.56279e-08
3.30794e-06
9.5531e-08
3.26804e-06
9.74906e-08
3.2253e-06
1.02185e-07
3.17863e-06
1.1104e-07
3.12652e-06
1.25988e-07
1.53043e-07
3.06768e-06
3.67499e-06
4.14042e-08
3.6913e-06
9.00947e-08
3.70585e-06
9.48636e-08
3.71983e-06
9.93173e-08
3.73212e-06
1.03979e-07
3.74177e-06
1.05516e-07
3.74862e-06
1.0495e-07
3.7527e-06
1.03685e-07
3.75407e-06
1.02358e-07
3.75285e-06
1.01339e-07
3.74913e-06
1.01002e-07
3.743e-06
1.01752e-07
3.73451e-06
1.04023e-07
3.72364e-06
1.08364e-07
3.71031e-06
1.15513e-07
3.6946e-06
1.2675e-07
3.677e-06
1.43585e-07
1.67632e-07
3.66241e-06
3.93145e-06
3.53412e-08
3.94204e-06
7.95061e-08
3.94841e-06
8.84911e-08
3.9544e-06
9.33327e-08
3.96011e-06
9.82693e-08
3.96493e-06
1.0069e-07
3.96881e-06
1.01075e-07
3.97172e-06
1.00777e-07
3.97356e-06
1.00518e-07
3.97423e-06
1.00663e-07
3.97368e-06
1.01557e-07
3.97184e-06
1.03584e-07
3.9687e-06
1.07167e-07
3.96424e-06
1.1282e-07
3.95857e-06
1.21184e-07
3.95213e-06
1.33196e-07
3.94615e-06
1.49558e-07
1.70903e-07
3.94288e-06
4.21234e-06
3.01291e-08
4.2211e-06
7.07473e-08
4.22588e-06
8.37062e-08
4.22967e-06
8.95452e-08
4.23307e-06
9.48663e-08
4.23563e-06
9.81308e-08
4.23728e-06
9.94317e-08
4.23804e-06
1.00011e-07
4.23789e-06
1.00668e-07
4.23677e-06
1.0179e-07
4.23461e-06
1.0371e-07
4.2314e-06
1.06796e-07
4.22712e-06
1.1145e-07
4.22181e-06
1.18127e-07
4.21566e-06
1.27331e-07
4.20919e-06
1.3967e-07
4.20339e-06
1.55351e-07
1.74499e-07
4.1998e-06
4.51343e-06
2.57857e-08
4.52089e-06
6.32831e-08
4.52571e-06
7.88933e-08
4.52926e-06
8.59912e-08
4.53228e-06
9.18484e-08
4.53441e-06
9.60017e-08
4.53552e-06
9.8325e-08
4.53565e-06
9.98781e-08
4.53482e-06
1.01497e-07
4.533e-06
1.03606e-07
4.53018e-06
1.06533e-07
4.52635e-06
1.1063e-07
4.52153e-06
1.16266e-07
4.51583e-06
1.23826e-07
4.50949e-06
1.33678e-07
4.50299e-06
1.46167e-07
4.49711e-06
1.61229e-07
1.78591e-07
4.49302e-06
4.83618e-06
2.23213e-08
4.84267e-06
5.67946e-08
4.8476e-06
7.39706e-08
4.85116e-06
8.24265e-08
4.85408e-06
8.8929e-08
4.85616e-06
9.39255e-08
4.85721e-06
9.72684e-08
4.85727e-06
9.98184e-08
4.85636e-06
1.02405e-07
4.85448e-06
1.05486e-07
4.85163e-06
1.09385e-07
4.84783e-06
1.14428e-07
4.84316e-06
1.20939e-07
4.83776e-06
1.29226e-07
4.8319e-06
1.39535e-07
4.82605e-06
1.52017e-07
4.82081e-06
1.66468e-07
1.82514e-07
4.81689e-06
5.18235e-06
1.95568e-08
5.188e-06
5.11363e-08
5.19284e-06
6.91352e-08
5.19639e-06
7.8878e-08
5.19925e-06
8.60702e-08
5.20135e-06
9.18248e-08
5.20249e-06
9.61249e-08
5.20266e-06
9.96509e-08
5.20188e-06
1.03182e-07
5.20017e-06
1.07195e-07
5.19755e-06
1.12005e-07
5.19408e-06
1.17902e-07
5.18986e-06
1.25163e-07
5.18506e-06
1.34017e-07
5.17999e-06
1.44608e-07
5.17505e-06
1.56962e-07
5.1707e-06
1.70819e-07
1.85843e-07
5.16737e-06
5.55357e-06
1.73236e-08
5.55847e-06
4.62361e-08
5.56309e-06
6.45186e-08
5.56662e-06
7.53449e-08
5.56946e-06
8.32311e-08
5.57161e-06
8.96732e-08
5.57288e-06
9.4852e-08
5.57323e-06
9.93084e-08
5.57267e-06
1.03738e-07
5.57125e-06
1.08617e-07
5.569e-06
1.1425e-07
5.56601e-06
1.20891e-07
5.56242e-06
1.2876e-07
5.55841e-06
1.3802e-07
5.55428e-06
1.48737e-07
5.55038e-06
1.60862e-07
5.54707e-06
1.74131e-07
1.88283e-07
5.54463e-06
5.9516e-06
1.55004e-08
5.95583e-06
4.20098e-08
5.96017e-06
6.01755e-08
5.96369e-06
7.18243e-08
5.96654e-06
8.03757e-08
5.96877e-06
8.74487e-08
5.9702e-06
9.34173e-08
5.97078e-06
9.87316e-08
5.97053e-06
1.03991e-07
5.9695e-06
1.09649e-07
5.96775e-06
1.15998e-07
5.96539e-06
1.23252e-07
5.96257e-06
1.31581e-07
5.9595e-06
1.41089e-07
5.95645e-06
1.51787e-07
5.95372e-06
1.63589e-07
5.95161e-06
1.76243e-07
1.89572e-07
5.95032e-06
6.37832e-06
1.39951e-08
6.38197e-06
3.83578e-08
6.38603e-06
5.61194e-08
6.38953e-06
6.83203e-08
6.39244e-06
7.74681e-08
6.39477e-06
8.51115e-08
6.39642e-06
9.17689e-08
6.39731e-06
9.78441e-08
6.39746e-06
1.03841e-07
6.39693e-06
1.10176e-07
6.39582e-06
1.17116e-07
6.39422e-06
1.24842e-07
6.39233e-06
1.33477e-07
6.39034e-06
1.43079e-07
6.38851e-06
1.5362e-07
6.3871e-06
1.64998e-07
6.38635e-06
1.76984e-07
1.89466e-07
6.38646e-06
5.74192e-06
1.29048e-08
5.74464e-06
3.56412e-08
5.74786e-06
5.29045e-08
5.75081e-06
6.53683e-08
5.75334e-06
7.49359e-08
5.75545e-06
8.30043e-08
5.75706e-06
9.01591e-08
5.75811e-06
9.67867e-08
5.75863e-06
1.03321e-07
5.75868e-06
1.10134e-07
5.75832e-06
1.1747e-07
5.75769e-06
1.2548e-07
5.75691e-06
1.34253e-07
5.75617e-06
1.43815e-07
5.75567e-06
1.5412e-07
5.75561e-06
1.65058e-07
5.75618e-06
1.76419e-07
1.88136e-07
5.75751e-06
6.99924e-06
1.18156e-08
7.00203e-06
3.28595e-08
7.00549e-06
4.94399e-08
7.00886e-06
6.19993e-08
7.01188e-06
7.1918e-08
7.0145e-06
8.03842e-08
7.01665e-06
8.80052e-08
7.01829e-06
9.51516e-08
7.01942e-06
1.02188e-07
7.02012e-06
1.0943e-07
7.0205e-06
1.1709e-07
7.0207e-06
1.25288e-07
7.02087e-06
1.34081e-07
7.02122e-06
1.43466e-07
7.02196e-06
1.53382e-07
7.0233e-06
1.63719e-07
7.02543e-06
1.74287e-07
1.85054e-07
7.02851e-06
8.53193e-06
1.07303e-08
8.53477e-06
3.00194e-08
8.5385e-06
4.57132e-08
8.54236e-06
5.81424e-08
8.546e-06
6.82727e-08
8.54933e-06
7.70519e-08
8.55229e-06
8.50537e-08
8.55481e-06
9.26261e-08
8.55693e-06
1.00066e-07
8.55873e-06
1.07628e-07
8.56034e-06
1.15481e-07
8.56192e-06
1.23714e-07
8.56364e-06
1.32352e-07
8.56574e-06
1.41372e-07
8.56842e-06
1.50699e-07
8.57191e-06
1.6023e-07
8.57641e-06
1.69792e-07
1.79382e-07
8.58208e-06
1.04003e-05
9.63452e-09
1.04033e-05
2.70737e-08
1.04073e-05
4.16478e-08
1.04118e-05
5.36592e-08
1.04163e-05
6.37727e-08
1.04207e-05
7.26949e-08
1.04248e-05
8.09158e-08
1.04287e-05
8.87431e-08
1.04323e-05
9.64104e-08
1.04359e-05
1.04105e-07
1.04394e-05
1.11948e-07
1.04431e-05
1.19995e-07
1.04472e-05
1.28246e-07
1.04519e-05
1.36659e-07
1.04575e-05
1.45155e-07
1.04641e-05
1.53638e-07
1.04719e-05
1.61953e-07
1.7012e-07
1.04812e-05
1.26779e-05
8.48262e-09
1.26811e-05
2.38881e-08
1.26857e-05
3.70504e-08
1.26911e-05
4.82834e-08
1.26968e-05
5.80472e-08
1.27027e-05
6.68322e-08
1.27086e-05
7.50111e-08
1.27145e-05
8.28283e-08
1.27205e-05
9.04532e-08
1.27266e-05
9.80079e-08
1.27329e-05
1.05565e-07
1.27398e-05
1.13145e-07
1.27473e-05
1.20726e-07
1.27557e-05
1.28257e-07
1.27652e-05
1.35658e-07
1.2776e-05
1.42842e-07
1.27883e-05
1.49677e-07
1.56199e-07
1.28022e-05
1.54545e-05
7.18272e-09
1.54582e-05
2.02002e-08
1.54637e-05
3.15387e-08
1.54704e-05
4.15306e-08
1.5478e-05
5.04954e-08
1.54861e-05
5.87403e-08
1.54946e-05
6.65044e-08
1.55035e-05
7.39484e-08
1.55127e-05
8.11749e-08
1.55225e-05
8.8245e-08
1.55329e-05
9.51832e-08
1.5544e-05
1.0198e-07
1.55562e-05
1.08597e-07
1.55695e-05
1.14977e-07
1.55841e-05
1.21048e-07
1.56002e-05
1.26738e-07
1.56179e-05
1.31938e-07
1.367e-07
1.56374e-05
1.88392e-05
5.57031e-09
1.88439e-05
1.55556e-08
1.8851e-05
2.4448e-08
1.88599e-05
3.25875e-08
1.88702e-05
4.0181e-08
1.88816e-05
4.73694e-08
1.88939e-05
5.42493e-08
1.89069e-05
6.08842e-08
1.89208e-05
6.73064e-08
1.89355e-05
7.35203e-08
1.89512e-05
7.95074e-08
1.89679e-05
8.52317e-08
1.89859e-05
9.06447e-08
1.90052e-05
9.56902e-08
1.90259e-05
1.00307e-07
1.90482e-05
1.04441e-07
1.90721e-05
1.08016e-07
1.11086e-07
1.90978e-05
2.29656e-05
3.31905e-09
2.2972e-05
9.15513e-09
2.29818e-05
1.46423e-08
2.29943e-05
2.01262e-08
2.30088e-05
2.56748e-08
2.30249e-05
3.12276e-08
2.30424e-05
3.67194e-08
2.30612e-05
4.21123e-08
2.30811e-05
4.7368e-08
2.31022e-05
5.24329e-08
2.31245e-05
5.72461e-08
2.3148e-05
6.17492e-08
2.31727e-05
6.58875e-08
2.31988e-05
6.961e-08
2.32263e-05
7.28694e-08
2.32551e-05
7.56299e-08
2.32852e-05
7.78438e-08
7.95638e-08
2.33168e-05
1.68127e-05
1.31567e-09
1.68183e-05
3.58215e-09
1.68267e-05
6.21977e-09
1.68372e-05
9.58135e-09
1.68494e-05
1.35502e-08
1.68628e-05
1.7844e-08
1.68772e-05
2.22716e-08
1.68926e-05
2.6741e-08
1.69088e-05
3.11726e-08
1.69257e-05
3.54724e-08
1.69434e-05
3.95509e-08
1.69618e-05
4.3336e-08
1.6981e-05
4.67692e-08
1.70008e-05
4.98011e-08
1.70212e-05
5.23905e-08
1.70424e-05
5.45127e-08
1.70641e-05
5.61383e-08
5.73141e-08
1.70863e-05
1.46366e-05
-7.63845e-10
1.46424e-05
-2.17783e-09
1.46509e-05
-2.30026e-09
1.46613e-05
-8.18757e-10
1.46731e-05
1.82257e-09
1.46858e-05
5.05894e-09
1.46995e-05
8.60778e-09
1.47139e-05
1.23465e-08
1.47289e-05
1.61496e-08
1.47445e-05
1.98807e-08
1.47606e-05
2.3431e-08
1.47772e-05
2.67235e-08
1.47943e-05
2.96995e-08
1.48118e-05
3.23096e-08
1.48297e-05
3.4517e-08
1.48479e-05
3.63005e-08
1.48664e-05
3.76347e-08
3.8554e-08
1.48852e-05
1.27423e-05
-2.98164e-09
1.27484e-05
-8.27414e-09
1.27571e-05
-1.09848e-08
1.27673e-05
-1.09817e-08
1.27785e-05
-9.36137e-09
1.27905e-05
-7.00019e-09
1.28033e-05
-4.1557e-09
1.28166e-05
-9.42275e-10
1.28303e-05
2.44078e-09
1.28444e-05
5.80254e-09
1.28588e-05
9.02008e-09
1.28735e-05
1.2021e-08
1.28884e-05
1.47405e-08
1.29036e-05
1.71091e-08
1.2919e-05
1.91307e-08
1.29346e-05
2.07812e-08
1.29501e-05
2.2046e-08
2.29648e-08
1.29657e-05
1.10934e-05
-5.41781e-09
1.11e-05
-1.48678e-08
1.11089e-05
-1.99153e-08
1.11187e-05
-2.08238e-08
1.11292e-05
-1.98605e-08
1.11404e-05
-1.81954e-08
1.11522e-05
-1.59076e-08
1.11643e-05
-1.30799e-08
1.11767e-05
-9.99175e-09
1.11894e-05
-6.88086e-09
1.12023e-05
-3.87385e-09
1.12154e-05
-1.03019e-09
1.12285e-05
1.6162e-09
1.12418e-05
3.85785e-09
1.1255e-05
5.83277e-09
1.12684e-05
7.46679e-09
1.12817e-05
8.74188e-09
9.67398e-09
1.1295e-05
9.65801e-06
-8.20859e-09
9.6652e-06
-2.20618e-08
9.6743e-06
-2.90144e-08
9.6838e-06
-3.03294e-08
9.69371e-06
-2.97647e-08
9.70406e-06
-2.85504e-08
9.71471e-06
-2.65519e-08
9.72554e-06
-2.39133e-08
9.73656e-06
-2.10061e-08
9.74774e-06
-1.80629e-08
9.75905e-06
-1.51823e-08
9.77045e-06
-1.24324e-08
9.78195e-06
-9.88562e-09
9.79343e-06
-7.62213e-09
9.8049e-06
-5.63584e-09
9.81631e-06
-3.94699e-09
9.82761e-06
-2.55986e-09
-1.43422e-09
9.83872e-06
8.40877e-06
-1.1622e-08
8.41687e-06
-3.01633e-08
8.42561e-06
-3.7754e-08
8.43444e-06
-3.9165e-08
8.44384e-06
-3.91626e-08
8.45363e-06
-3.83376e-08
8.46348e-06
-3.64065e-08
8.47333e-06
-3.37653e-08
8.48322e-06
-3.08948e-08
8.49316e-06
-2.79999e-08
8.50313e-06
-2.51531e-08
8.51312e-06
-2.24219e-08
8.52311e-06
-1.98746e-08
8.53305e-06
-1.75657e-08
8.54294e-06
-1.55197e-08
8.55274e-06
-1.37472e-08
8.56245e-06
-1.22689e-08
-1.10874e-08
8.5721e-06
7.32121e-06
-1.55475e-08
7.33131e-06
-4.02681e-08
7.33941e-06
-4.58529e-08
7.34697e-06
-4.67208e-08
7.3553e-06
-4.74888e-08
7.36408e-06
-4.71186e-08
7.37297e-06
-4.52995e-08
7.38194e-06
-4.27376e-08
7.39099e-06
-3.99475e-08
7.40009e-06
-3.70936e-08
7.40919e-06
-3.42498e-08
7.41826e-06
-3.14963e-08
7.42729e-06
-2.89039e-08
7.43625e-06
-2.65228e-08
7.44511e-06
-2.43832e-08
7.45386e-06
-2.24972e-08
7.46245e-06
-2.08618e-08
-1.9388e-08
7.47075e-06
6.37317e-06
-1.8654e-08
6.3859e-06
-5.29978e-08
6.39503e-06
-5.49821e-08
6.40308e-06
-5.47708e-08
6.4117e-06
-5.61122e-08
6.42045e-06
-5.58606e-08
6.42918e-06
-5.40306e-08
6.43802e-06
-5.15812e-08
6.44698e-06
-4.89079e-08
6.45598e-06
-4.6094e-08
6.46495e-06
-4.3221e-08
6.47385e-06
-4.03898e-08
6.48262e-06
-3.76799e-08
6.49125e-06
-3.51469e-08
6.49969e-06
-3.28302e-08
6.50796e-06
-3.07611e-08
6.51605e-06
-2.89556e-08
-2.74065e-08
6.52407e-06
5.5501e-06
-2.32884e-08
5.56396e-06
-6.68632e-08
5.57779e-06
-6.88067e-08
5.59191e-06
-6.88872e-08
5.60645e-06
-7.06563e-08
5.62034e-06
-6.97544e-08
5.63329e-06
-6.6975e-08
5.64535e-06
-6.36485e-08
5.65659e-06
-6.01429e-08
5.66701e-06
-5.65153e-08
5.67665e-06
-5.28619e-08
5.68556e-06
-4.92956e-08
5.69378e-06
-4.5899e-08
5.70136e-06
-4.27292e-08
5.70835e-06
-3.98252e-08
5.71484e-06
-3.72494e-08
5.72089e-06
-3.50041e-08
-3.32484e-08
5.72673e-06
4.87902e-06
-7.47018e-08
4.911e-06
-9.88377e-08
4.93725e-06
-9.50584e-08
4.95622e-06
-8.78582e-08
4.9691e-06
-8.35391e-08
4.97696e-06
-7.76158e-08
4.98071e-06
-7.07214e-08
4.98111e-06
-6.40543e-08
4.97887e-06
-5.79036e-08
4.9746e-06
-5.2245e-08
4.96882e-06
-4.70724e-08
4.96192e-06
-4.23968e-08
4.95423e-06
-3.82137e-08
4.94601e-06
-3.4509e-08
4.93745e-06
-3.12651e-08
4.92871e-06
-2.85061e-08
4.91995e-06
-2.6244e-08
-2.49293e-08
4.91163e-06
4.12797e-06
4.02914e-06
3.93408e-06
3.84622e-06
3.76268e-06
3.68507e-06
3.61434e-06
3.55029e-06
3.49239e-06
3.44014e-06
3.39307e-06
3.35067e-06
3.31246e-06
3.27795e-06
3.24668e-06
3.21818e-06
3.19193e-06
3.167e-06
-4.87023e-09
4.87023e-09
2.03244e-08
-2.51946e-08
1.00273e-07
-7.99483e-08
2.21519e-07
-1.21247e-07
3.49222e-07
-1.27703e-07
4.53397e-07
-1.04174e-07
5.22785e-07
-6.93884e-08
5.66692e-07
-4.39065e-08
6.13899e-07
-4.72072e-08
6.98278e-07
-8.43796e-08
8.4298e-07
-1.44701e-07
1.05396e-06
-2.10981e-07
1.30842e-06
-2.54457e-07
1.55993e-06
-2.51516e-07
1.76494e-06
-2.05005e-07
1.89854e-06
-1.33596e-07
1.95339e-06
-5.48501e-08
1.92551e-06
2.78769e-08
1.81737e-06
1.08139e-07
1.66776e-06
1.49605e-07
1.48275e-06
1.85013e-07
1.23665e-06
2.46098e-07
9.01471e-07
3.35182e-07
4.47765e-07
4.53706e-07
-1.39308e-07
5.87073e-07
-8.43176e-07
7.03869e-07
-1.63314e-06
7.89964e-07
-2.47651e-06
8.43374e-07
-3.34185e-06
8.65333e-07
-4.2008e-06
8.58949e-07
-5.02924e-06
8.28445e-07
-5.80769e-06
7.7845e-07
-6.52135e-06
7.13657e-07
-7.15964e-06
6.3829e-07
-7.71557e-06
5.55935e-07
-8.18507e-06
4.69498e-07
-8.56626e-06
3.8119e-07
-8.859e-06
2.92737e-07
-9.06469e-06
2.05696e-07
-9.18628e-06
1.21587e-07
-9.22832e-06
4.20391e-08
-9.20295e-06
-2.53636e-08
-9.1188e-06
-8.41586e-08
-8.98249e-06
-1.36305e-07
-8.79886e-06
-1.83631e-07
-8.57172e-06
-2.2714e-07
-8.3045e-06
-2.67222e-07
-8.00049e-06
-3.04007e-07
-7.66297e-06
-3.37518e-07
-7.29524e-06
-3.6773e-07
-6.90064e-06
-3.94602e-07
-6.48256e-06
-4.18076e-07
-6.04448e-06
-4.38085e-07
-5.58992e-06
-4.54561e-07
-5.12247e-06
-4.67451e-07
-4.64573e-06
-4.76735e-07
-4.16328e-06
-4.82447e-07
-3.6786e-06
-4.84681e-07
-3.19499e-06
-4.83608e-07
-2.71552e-06
-4.79479e-07
-2.24292e-06
-4.72593e-07
-1.7796e-06
-4.63319e-07
-1.32755e-06
-4.52055e-07
-8.88344e-07
-4.39204e-07
-4.63508e-07
-4.24836e-07
-5.43925e-08
-4.09115e-07
3.3781e-07
-3.92203e-07
7.12133e-07
-3.74323e-07
1.06734e-06
-3.5521e-07
1.40158e-06
-3.34234e-07
1.71219e-06
-3.10614e-07
1.99571e-06
-2.83521e-07
2.24805e-06
-2.52336e-07
2.46496e-06
-2.16911e-07
2.64269e-06
-1.77735e-07
2.77875e-06
-1.36057e-07
2.87269e-06
-9.39396e-08
2.92684e-06
-5.41526e-08
2.94653e-06
-1.9692e-08
2.94084e-06
5.68967e-09
2.92127e-06
1.95763e-08
2.89906e-06
2.22065e-08
2.88456e-06
1.44986e-08
2.88479e-06
-2.27725e-10
2.90119e-06
-1.63967e-08
2.92936e-06
-2.81769e-08
2.96389e-06
-3.45276e-08
3.00454e-06
-4.06511e-08
3.05549e-06
-5.09489e-08
3.11115e-06
-5.56584e-08
3.14119e-06
-3.00394e-08
3.0792e-06
6.19895e-08
2.81093e-06
2.68266e-07
2.21774e-06
5.93198e-07
1.26946e-06
9.48275e-07
5.38201e-08
1.21564e-06
-1.27332e-06
1.32714e-06
-2.56833e-06
1.29501e-06
-3.74755e-06
1.17922e-06
-4.7732e-06
1.02564e-06
-5.63636e-06
8.63166e-07
-6.34396e-06
7.07599e-07
-6.90963e-06
5.65674e-07
-7.34831e-06
4.38672e-07
-7.6735e-06
3.25196e-07
-7.89658e-06
2.23075e-07
-8.02741e-06
1.30831e-07
-8.07443e-06
4.70233e-08
-8.05289e-06
-2.15377e-08
-7.97145e-06
-8.14444e-08
-7.83431e-06
-1.37142e-07
-7.64291e-06
-1.914e-07
-7.39758e-06
-2.45323e-07
-7.09819e-06
-2.99395e-07
-6.74435e-06
-3.53837e-07
-6.33568e-06
-4.08675e-07
-5.87198e-06
-4.63698e-07
-5.35359e-06
-5.18392e-07
-4.78173e-06
-5.71858e-07
-4.15894e-06
-6.22793e-07
-3.4894e-06
-6.69532e-07
-2.7793e-06
-7.101e-07
-2.03719e-06
-7.42115e-07
-1.27402e-06
-7.63166e-07
-5.0173e-07
-7.72292e-07
2.68166e-07
-7.69896e-07
1.02094e-06
-7.52772e-07
1.74527e-06
-7.2433e-07
2.43165e-06
-6.86384e-07
3.072e-06
-6.4035e-07
3.66016e-06
-5.88159e-07
4.19179e-06
-5.31628e-07
4.66408e-06
-4.72289e-07
5.07546e-06
-4.11381e-07
5.42538e-06
-3.49926e-07
5.71377e-06
-2.88387e-07
5.94054e-06
-2.26773e-07
6.10717e-06
-1.6662e-07
6.20933e-06
-1.02165e-07
6.2292e-06
-1.98658e-08
6.14299e-06
8.62039e-08
5.96238e-06
1.80607e-07
5.70034e-06
2.62041e-07
5.37442e-06
3.2592e-07
5.00442e-06
3.69999e-07
4.6119e-06
3.92529e-07
4.21868e-06
3.9322e-07
3.84494e-06
3.73734e-07
3.50726e-06
3.37683e-07
3.217e-06
2.90262e-07
2.97967e-06
2.37329e-07
2.79526e-06
1.84405e-07
2.65937e-06
1.3589e-07
2.56473e-06
9.46419e-08
2.50289e-06
6.18385e-08
2.46563e-06
3.72618e-08
2.44646e-06
1.91705e-08
2.44375e-06
2.70904e-09
2.44987e-06
-6.12239e-09
2.46438e-06
-1.45099e-08
2.48626e-06
-2.18772e-08
2.50481e-06
-1.8549e-08
2.51943e-06
-1.46206e-08
2.53044e-06
-1.10137e-08
2.5376e-06
-7.15847e-09
2.5405e-06
-2.89601e-09
2.53824e-06
2.25639e-09
2.53114e-06
7.09745e-09
2.51967e-06
1.14696e-08
2.50414e-06
1.55364e-08
2.48457e-06
1.95666e-08
2.46061e-06
2.39658e-08
2.4314e-06
2.92066e-08
2.39554e-06
3.58563e-08
2.35089e-06
4.46529e-08
2.29437e-06
5.65171e-08
2.22123e-06
7.31423e-08
2.12554e-06
9.56869e-08
1.99276e-06
1.32782e-07
1.765e-07
1.81626e-06
2.63285e-08
-2.14583e-08
1.92078e-07
-1.90944e-07
4.42411e-07
-3.30281e-07
6.99249e-07
-3.78085e-07
9.13735e-07
-3.42189e-07
1.06514e-06
-2.55581e-07
1.15068e-06
-1.54923e-07
1.18326e-06
-7.6488e-08
1.18893e-06
-5.28804e-08
1.20194e-06
-9.73861e-08
1.25448e-06
-1.97243e-07
1.35061e-06
-3.07109e-07
1.4556e-06
-3.59452e-07
1.52593e-06
-3.21847e-07
1.52993e-06
-2.09004e-07
1.44562e-06
-4.92807e-08
1.26798e-06
1.22783e-07
9.87301e-07
3.08559e-07
5.99289e-07
4.96151e-07
6.35117e-08
6.85383e-07
-6.33369e-07
8.81894e-07
-1.46492e-06
1.07765e-06
-2.38882e-06
1.25908e-06
-3.34973e-06
1.41462e-06
-4.29575e-06
1.53309e-06
-5.19635e-06
1.60448e-06
-6.03161e-06
1.62522e-06
-6.78615e-06
1.59791e-06
-7.44996e-06
1.52915e-06
-8.01877e-06
1.42776e-06
-8.49346e-06
1.30314e-06
-8.87911e-06
1.1641e-06
-9.18355e-06
1.01809e-06
-9.4161e-06
8.7084e-07
-9.58653e-06
7.26366e-07
-9.7042e-06
5.87167e-07
-9.7775e-06
4.54494e-07
-9.81356e-06
3.28792e-07
-9.81784e-06
2.09979e-07
-9.79412e-06
9.78702e-08
-9.74344e-06
-8.64696e-09
-9.65802e-06
-1.10777e-07
-9.53244e-06
-2.09743e-07
-9.3644e-06
-3.04342e-07
-9.15429e-06
-3.9374e-07
-8.90395e-06
-4.77489e-07
-8.61584e-06
-5.55329e-07
-8.29277e-06
-6.27073e-07
-7.93771e-06
-6.92577e-07
-7.55372e-06
-7.51726e-07
-7.1439e-06
-8.04419e-07
-6.71143e-06
-8.50553e-07
-6.25949e-06
-8.90017e-07
-5.79135e-06
-9.227e-07
-5.31029e-06
-9.48513e-07
-4.8196e-06
-9.67428e-07
-4.32252e-06
-9.79524e-07
-3.82217e-06
-9.85031e-07
-3.32143e-06
-9.84354e-07
-2.82284e-06
-9.78063e-07
-2.32857e-06
-9.66862e-07
-1.84033e-06
-9.51565e-07
-1.35932e-06
-9.33059e-07
-8.86401e-07
-9.12126e-07
-4.21856e-07
-8.89382e-07
3.45257e-08
-8.65497e-07
4.82899e-07
-8.40576e-07
9.23002e-07
-8.14426e-07
1.35427e-06
-7.86482e-07
1.77566e-06
-7.55615e-07
2.18522e-06
-7.20176e-07
2.57978e-06
-6.78081e-07
2.95442e-06
-6.2698e-07
3.30204e-06
-5.64526e-07
3.61316e-06
-4.88858e-07
3.87649e-06
-3.99388e-07
4.08036e-06
-2.97814e-07
4.21533e-06
-1.89113e-07
4.27776e-06
-8.2128e-08
4.27198e-06
1.14743e-08
4.21067e-06
8.08834e-08
4.113e-06
1.19876e-07
4.00083e-06
1.26674e-07
3.8957e-06
1.04896e-07
3.81604e-06
6.32641e-08
3.77654e-06
1.13222e-08
3.78742e-06
-4.54094e-08
3.84757e-06
-1.00796e-07
3.92746e-06
-1.30841e-07
3.93376e-06
-6.19546e-08
3.69462e-06
2.09097e-07
2.97906e-06
7.77551e-07
1.69137e-06
1.55595e-06
2.52195e-08
2.25935e-06
-1.68443e-06
2.65792e-06
-3.20321e-06
2.73442e-06
-4.44978e-06
2.57371e-06
-5.42615e-06
2.27138e-06
-6.16343e-06
1.9165e-06
-6.70577e-06
1.56798e-06
-7.09819e-06
1.25559e-06
-7.37892e-06
9.88331e-07
-7.57706e-06
7.63807e-07
-7.71321e-06
5.74829e-07
-7.80145e-06
4.1343e-07
-7.85092e-06
2.72547e-07
-7.86647e-06
1.46383e-07
-7.8496e-06
3.01471e-08
-7.79099e-06
-8.01421e-08
-7.68393e-06
-1.88504e-07
-7.5261e-06
-2.94968e-07
-7.31708e-06
-4.00425e-07
-7.0566e-06
-5.05804e-07
-6.74424e-06
-6.11759e-07
-6.37942e-06
-7.18654e-07
-5.96156e-06
-8.26529e-07
-5.49027e-06
-9.34993e-07
-4.9656e-06
-1.04306e-06
-4.38849e-06
-1.14897e-06
-3.76118e-06
-1.2501e-06
-3.08767e-06
-1.34304e-06
-2.37407e-06
-1.4237e-06
-1.62851e-06
-1.48767e-06
-8.60751e-07
-1.53093e-06
-8.2577e-08
-1.55047e-06
6.90988e-07
-1.54346e-06
1.44818e-06
-1.50996e-06
2.17776e-06
-1.45391e-06
2.86987e-06
-1.3785e-06
3.51684e-06
-1.28732e-06
4.11299e-06
-1.1843e-06
4.65446e-06
-1.0731e-06
5.13899e-06
-9.56818e-07
5.56555e-06
-8.37938e-07
5.93395e-06
-7.18332e-07
6.24486e-06
-5.99298e-07
6.49971e-06
-4.81617e-07
6.6986e-06
-3.65514e-07
6.84824e-06
-2.518e-07
6.97013e-06
-1.41756e-07
7.08162e-06
-2.52888e-08
7.17405e-06
8.81806e-08
7.23139e-06
2.04696e-07
7.24251e-06
3.14798e-07
7.2003e-06
4.12208e-07
7.10342e-06
4.89414e-07
6.95644e-06
5.40194e-07
6.76907e-06
5.61111e-07
6.55427e-06
5.5248e-07
6.32608e-06
5.18452e-07
6.09735e-06
4.6606e-07
5.87821e-06
4.03543e-07
5.67541e-06
3.38696e-07
5.49243e-06
2.77619e-07
5.33018e-06
2.24088e-07
5.18787e-06
1.79574e-07
5.06346e-06
1.43575e-07
4.9517e-06
1.14474e-07
4.84919e-06
9.6387e-08
4.75298e-06
8.16984e-08
4.66306e-06
6.80475e-08
4.5829e-06
6.16088e-08
4.50963e-06
5.86477e-08
4.44157e-06
5.70441e-08
4.37776e-06
5.66537e-08
4.3175e-06
5.73635e-08
4.26075e-06
5.90034e-08
4.20694e-06
6.09109e-08
4.15543e-06
6.29776e-08
4.10561e-06
6.53627e-08
4.05685e-06
6.83214e-08
4.00856e-06
7.22557e-08
3.96005e-06
7.77153e-08
3.91048e-06
8.5433e-08
3.85861e-06
9.65142e-08
3.80282e-06
1.12308e-07
3.74005e-06
1.35913e-07
3.6674e-06
1.68342e-07
3.5738e-06
2.26383e-07
2.88404e-07
3.46189e-06
1.88174e-07
-2.09633e-07
5.6917e-07
-5.7194e-07
9.43991e-07
-7.05102e-07
1.22992e-06
-6.64014e-07
1.41588e-06
-5.28152e-07
1.5166e-06
-3.56294e-07
1.55235e-06
-1.90673e-07
1.5338e-06
-5.79459e-08
1.46646e-06
1.44691e-08
1.36815e-06
9.23464e-10
1.27452e-06
-1.03619e-07
1.16988e-06
-2.02469e-07
1.00298e-06
-1.92549e-07
7.39547e-07
-5.84153e-08
3.87181e-07
1.43362e-07
-6.17896e-08
3.9969e-07
-6.20618e-07
6.81611e-07
-1.28087e-06
9.68812e-07
-2.03372e-06
1.249e-06
-2.85901e-06
1.51067e-06
-3.71922e-06
1.7421e-06
-4.57218e-06
1.9306e-06
-5.37945e-06
2.06635e-06
-6.10991e-06
2.14508e-06
-6.74437e-06
2.16755e-06
-7.27824e-06
2.13834e-06
-7.71797e-06
2.06495e-06
-8.07693e-06
1.95687e-06
-8.37187e-06
1.82409e-06
-8.61982e-06
1.67571e-06
-8.83557e-06
1.51889e-06
-9.03004e-06
1.35857e-06
-9.20955e-06
1.1976e-06
-9.37595e-06
1.03724e-06
-9.5274e-06
8.77817e-07
-9.65944e-06
7.19203e-07
-9.76619e-06
5.61251e-07
-9.84145e-06
4.04049e-07
-9.87948e-06
2.48005e-07
-9.87543e-06
9.38253e-08
-9.82648e-06
-5.75938e-08
-9.73169e-06
-2.05567e-07
-9.59266e-06
-3.48778e-07
-9.41095e-06
-4.86051e-07
-9.18828e-06
-6.16409e-07
-8.92674e-06
-7.3903e-07
-8.62879e-06
-8.5328e-07
-8.29716e-06
-9.58698e-07
-7.93477e-06
-1.05497e-06
-7.54464e-06
-1.14186e-06
-7.12985e-06
-1.21921e-06
-6.69357e-06
-1.28684e-06
-6.23901e-06
-1.34457e-06
-5.76954e-06
-1.39218e-06
-5.28858e-06
-1.42947e-06
-4.79965e-06
-1.45636e-06
-4.30624e-06
-1.47293e-06
-3.81171e-06
-1.47956e-06
-3.31913e-06
-1.47693e-06
-2.83115e-06
-1.46604e-06
-2.34988e-06
-1.44813e-06
-1.87681e-06
-1.42463e-06
-1.41284e-06
-1.39703e-06
-9.58219e-07
-1.36674e-06
-5.12536e-07
-1.33507e-06
-7.48302e-08
-1.3032e-06
3.56396e-07
-1.2718e-06
7.82669e-07
-1.2407e-06
1.20549e-06
-1.20931e-06
1.6263e-06
-1.17643e-06
2.04618e-06
-1.14005e-06
2.46541e-06
-1.09731e-06
2.88298e-06
-1.04455e-06
3.29594e-06
-9.77487e-07
3.69872e-06
-8.91631e-07
4.08241e-06
-7.83078e-07
4.43428e-06
-6.49685e-07
4.73774e-06
-4.92576e-07
4.97316e-06
-3.17547e-07
5.12156e-06
-1.36926e-07
5.17337e-06
2.90775e-08
5.13422e-06
1.5902e-07
5.02153e-06
2.39366e-07
4.86026e-06
2.6617e-07
4.68109e-06
2.4243e-07
4.5174e-06
1.75009e-07
4.39322e-06
7.87767e-08
4.29591e-06
-3.48985e-09
4.12466e-06
4.04082e-08
3.65977e-06
4.02936e-07
2.66358e-06
1.20529e-06
1.12002e-06
2.32111e-06
-6.26044e-07
3.30201e-06
-2.1893e-06
3.82261e-06
-3.41586e-06
3.88448e-06
-4.30668e-06
3.62524e-06
-4.93223e-06
3.19926e-06
-5.38392e-06
2.72307e-06
-5.73586e-06
2.26845e-06
-6.03378e-06
1.8659e-06
-6.29851e-06
1.52032e-06
-6.53506e-06
1.22488e-06
-6.74084e-06
9.69589e-07
-6.91097e-06
7.44959e-07
-7.04074e-06
5.432e-07
-7.12641e-06
3.58215e-07
-7.1653e-06
1.85273e-07
-7.15609e-06
2.09396e-08
-7.09809e-06
-1.38147e-07
-6.99218e-06
-2.94412e-07
-6.83815e-06
-4.48998e-07
-6.63553e-06
-6.03042e-07
-6.38379e-06
-7.57544e-07
-6.08227e-06
-9.13282e-07
-5.73018e-06
-1.07075e-06
-5.32667e-06
-1.23003e-06
-4.87101e-06
-1.39066e-06
-4.36282e-06
-1.55125e-06
-3.80256e-06
-1.70923e-06
-3.19199e-06
-1.86067e-06
-2.53473e-06
-2.0003e-06
-1.83664e-06
-2.1218e-06
-1.10577e-06
-2.21854e-06
-3.52107e-07
-2.28459e-06
4.10422e-07
-2.313e-06
1.16807e-06
-2.30111e-06
1.90912e-06
-2.25101e-06
2.62177e-06
-2.16656e-06
3.2962e-06
-2.05292e-06
3.92489e-06
-1.91601e-06
4.50248e-06
-1.7619e-06
5.02552e-06
-1.59614e-06
5.49213e-06
-1.42343e-06
5.90166e-06
-1.24746e-06
6.25434e-06
-1.07101e-06
6.55117e-06
-8.96129e-07
6.79391e-06
-7.2436e-07
6.98498e-06
-5.56575e-07
7.1266e-06
-3.93423e-07
7.2211e-06
-2.36255e-07
7.2807e-06
-8.48959e-08
7.31128e-06
5.76022e-08
7.32432e-06
1.91655e-07
7.32464e-06
3.14479e-07
7.31374e-06
4.23114e-07
7.28931e-06
5.13838e-07
7.247e-06
5.82503e-07
7.18253e-06
6.25581e-07
7.0936e-06
6.4141e-07
6.98092e-06
6.31135e-07
6.84815e-06
5.98832e-07
6.701e-06
5.50688e-07
6.54603e-06
4.93667e-07
6.38949e-06
4.34162e-07
6.23653e-06
3.77045e-07
6.09083e-06
3.2528e-07
5.95418e-06
2.80221e-07
5.82667e-06
2.41984e-07
5.71121e-06
2.11846e-07
5.60538e-06
1.87525e-07
5.50604e-06
1.67388e-07
5.41471e-06
1.52945e-07
5.33024e-06
1.43117e-07
5.25131e-06
1.35975e-07
5.17712e-06
1.30838e-07
5.107e-06
1.2749e-07
5.04037e-06
1.25631e-07
4.97653e-06
1.24745e-07
4.91493e-06
1.2458e-07
4.85508e-06
1.25215e-07
4.79652e-06
1.26877e-07
4.73884e-06
1.29944e-07
4.68157e-06
1.34983e-07
4.62421e-06
1.42791e-07
4.56613e-06
1.54598e-07
4.50649e-06
1.71943e-07
4.44421e-06
1.98194e-07
4.37773e-06
2.34824e-07
4.30678e-06
2.97331e-07
3.66825e-07
4.22836e-06
4.09537e-07
-6.1917e-07
8.70317e-07
-1.03272e-06
1.17331e-06
-1.0081e-06
1.32643e-06
-8.17127e-07
1.37018e-06
-5.7191e-07
1.33338e-06
-3.19491e-07
1.23994e-06
-9.72362e-08
1.09707e-06
8.49263e-08
9.37118e-07
1.74421e-07
7.84949e-07
1.53093e-07
5.91522e-07
8.98081e-08
2.85643e-07
1.0341e-07
-1.52352e-07
2.45446e-07
-6.96258e-07
4.85491e-07
-1.33181e-06
7.78914e-07
-2.03079e-06
1.09867e-06
-2.7721e-06
1.42292e-06
-3.53394e-06
1.73065e-06
-4.28886e-06
2.00392e-06
-5.00642e-06
2.22823e-06
-5.65864e-06
2.39432e-06
-6.2269e-06
2.49887e-06
-6.70465e-06
2.5441e-06
-7.09632e-06
2.53675e-06
-7.41487e-06
2.4861e-06
-7.6786e-06
2.40208e-06
-7.90756e-06
2.2939e-06
-8.1198e-06
2.1691e-06
-8.32857e-06
2.03286e-06
-8.54091e-06
1.88805e-06
-8.75778e-06
1.73575e-06
-8.97522e-06
1.57601e-06
-9.1862e-06
1.40857e-06
-9.38232e-06
1.23336e-06
-9.55529e-06
1.05078e-06
-9.69784e-06
8.6176e-07
-9.80428e-06
6.67691e-07
-9.87055e-06
4.70316e-07
-9.89409e-06
2.71544e-07
-9.87343e-06
7.31628e-08
-9.80824e-06
-1.22776e-07
-9.69896e-06
-3.14847e-07
-9.54663e-06
-5.01117e-07
-9.35271e-06
-6.79967e-07
-9.1191e-06
-8.5002e-07
-8.84798e-06
-1.01015e-06
-8.54176e-06
-1.1595e-06
-8.20301e-06
-1.29745e-06
-7.83439e-06
-1.42359e-06
-7.43861e-06
-1.53764e-06
-7.01844e-06
-1.63937e-06
-6.57676e-06
-1.72852e-06
-6.11663e-06
-1.8047e-06
-5.64136e-06
-1.86744e-06
-5.15461e-06
-1.91622e-06
-4.66031e-06
-1.95065e-06
-4.16261e-06
-1.97064e-06
-3.66561e-06
-1.97656e-06
-3.17318e-06
-1.96936e-06
-2.68869e-06
-1.95054e-06
-2.21478e-06
-1.92204e-06
-1.75334e-06
-1.88608e-06
-1.30538e-06
-1.84499e-06
-8.71144e-07
-1.80098e-06
-4.50075e-07
-1.75613e-06
-4.10159e-08
-1.71226e-06
3.57766e-07
-1.67058e-06
7.48518e-07
-1.63145e-06
1.13389e-06
-1.59468e-06
1.5167e-06
-1.55924e-06
1.89972e-06
-1.52308e-06
2.28535e-06
-1.48293e-06
2.67509e-06
-1.4343e-06
3.06909e-06
-1.37148e-06
3.46543e-06
-1.28797e-06
3.85949e-06
-1.17714e-06
4.24325e-06
-1.03344e-06
4.60473e-06
-8.54061e-07
4.92798e-06
-6.40792e-07
5.19272e-06
-4.0167e-07
5.37507e-06
-1.5327e-07
5.45593e-06
7.81572e-08
5.43217e-06
2.63124e-07
5.31601e-06
3.82339e-07
5.13358e-06
4.24855e-07
4.917e-06
3.91595e-07
4.67527e-06
3.20498e-07
4.33763e-06
3.3415e-07
3.72586e-06
6.52185e-07
2.65196e-06
1.47683e-06
1.10119e-06
2.75606e-06
-5.67826e-07
3.99013e-06
-1.95118e-06
4.68536e-06
-2.93597e-06
4.8074e-06
-3.58449e-06
4.533e-06
-4.01698e-06
4.05773e-06
-4.3442e-06
3.52648e-06
-4.63828e-06
3.01715e-06
-4.92826e-06
2.55842e-06
-5.21479e-06
2.15243e-06
-5.4867e-06
1.79223e-06
-5.73162e-06
1.4698e-06
-5.94026e-06
1.17822e-06
-6.10704e-06
9.11747e-07
-6.22928e-06
6.65432e-07
-6.30596e-06
4.349e-07
-6.33683e-06
2.16139e-07
-6.32226e-06
6.37599e-09
-6.26243e-06
-1.97982e-07
-6.15767e-06
-3.99175e-07
-6.00778e-06
-5.98888e-07
-5.8123e-06
-7.98518e-07
-5.57062e-06
-9.99224e-07
-5.28197e-06
-1.20194e-06
-4.9454e-06
-1.40731e-06
-4.55983e-06
-1.61561e-06
-4.12407e-06
-1.82641e-06
-3.63715e-06
-2.03816e-06
-3.09876e-06
-2.24763e-06
-2.50986e-06
-2.44957e-06
-1.87345e-06
-2.63671e-06
-1.19486e-06
-2.80038e-06
-4.82169e-07
-2.93123e-06
2.51985e-07
-3.01875e-06
9.94485e-07
-3.05549e-06
1.73228e-06
-3.03891e-06
2.45231e-06
-2.97104e-06
3.14273e-06
-2.85698e-06
3.79386e-06
-2.70406e-06
4.39847e-06