/*--------------------------------*- C++ -*----------------------------------*\
  =========                 |
  \\      /  F ield         | OpenFOAM: The Open Source CFD Toolbox
   \\    /   O peration     | Website:  https://openfoam.org
    \\  /    A nd           | Version:  9
     \\/     M anipulation  |
\*---------------------------------------------------------------------------*/
FoamFile
{
    format      ascii;
    class       volScalarField;
    location    "0.15";
    object      nut;
}
// * * * * * * * * * * * * * * * * * * * * * * * * * * * * * * * * * * * * * //

dimensions      [0 2 -1 0 0 0 0];

internalField   nonuniform List<scalar> 
12225
(
4.04768e-05
3.83178e-05
3.62504e-05
3.44199e-05
3.2952e-05
3.18977e-05
3.12563e-05
3.0994e-05
3.10585e-05
3.13908e-05
3.19322e-05
3.26289e-05
3.34345e-05
3.43107e-05
3.52282e-05
3.61626e-05
3.71197e-05
3.85063e-05
0.000281048
0.000209266
0.000176266
0.000157439
0.000146271
0.000139687
0.000135792
0.00013343
0.000131915
0.000130858
0.000130044
0.000129357
0.000128739
0.000128162
0.000127623
0.00012708
0.000126687
0.000125726
0.000556047
0.000419907
0.000349814
0.000304734
0.000272446
0.000247981
0.000228764
0.000213299
0.00020067
0.000190268
0.000181652
0.000174484
0.000168493
0.000163459
0.000159208
0.000155551
0.000152405
0.000149326
0.000740308
0.00062582
0.000544115
0.000484997
0.000439769
0.000403647
0.000373837
0.0003486
0.000326848
0.000307884
0.000291235
0.000276552
0.000263567
0.000252048
0.0002418
0.000232604
0.000224303
0.000216609
0.000817069
0.000759141
0.000700544
0.000648576
0.000603895
0.00056558
0.000532469
0.000503507
0.000477871
0.000454951
0.0004343
0.000415585
0.000398547
0.000382974
0.000368686
0.000355497
0.000343261
0.000331878
0.0008421
0.000819687
0.000789924
0.000757604
0.000725552
0.000695161
0.000666962
0.000641011
0.000617168
0.000595229
0.000574992
0.000556269
0.000538896
0.000522725
0.000507625
0.000493466
0.000480143
0.000467704
0.000849261
0.000841808
0.000829742
0.000814187
0.000796479
0.000777759
0.000758846
0.000740251
0.000722263
0.000705026
0.000688602
0.000672998
0.000658193
0.000644147
0.000630815
0.00061814
0.000606081
0.000594765
0.00085112
0.000848747
0.00084448
0.000838236
0.000830245
0.000820894
0.000810597
0.000799719
0.00078855
0.000777307
0.000766146
0.000755172
0.000744457
0.00073404
0.000723946
0.000714182
0.000704763
0.000695841
0.00085156
0.000850665
0.00084917
0.000846886
0.000843741
0.000839758
0.000835032
0.000829692
0.000823872
0.000817702
0.000811293
0.000804742
0.000798124
0.0007915
0.000784916
0.000778409
0.000772015
0.000765871
0.000851652
0.000851133
0.000850468
0.000849564
0.000848347
0.000846772
0.000844825
0.000842518
0.000839882
0.000836956
0.000833786
0.000830419
0.000826897
0.000823261
0.000819546
0.000815784
0.000812007
0.000808313
0.000851668
0.00085123
0.000850778
0.000850278
0.000849697
0.000849006
0.000848182
0.00084721
0.000846086
0.000844812
0.000843396
0.00084185
0.000840188
0.000838427
0.000836582
0.00083467
0.00083271
0.00083076
0.000851669
0.000851245
0.000850835
0.000850429
0.000850013
0.000849575
0.0008491
0.000848579
0.000848002
0.000847364
0.000846663
0.000845899
0.000845075
0.000844194
0.000843262
0.000842285
0.000841273
0.000840259
0.000851668
0.000851244
0.000850843
0.000850459
0.000850088
0.000849725
0.000849365
0.000849001
0.000848628
0.000848242
0.00084784
0.000847418
0.000846977
0.000846516
0.000846034
0.000845533
0.000845017
0.000844506
0.000851667
0.000851242
0.000850839
0.000850458
0.000850096
0.000849751
0.00084942
0.000849102
0.000848792
0.00084849
0.000848194
0.0008479
0.000847609
0.000847319
0.00084703
0.00084674
0.000846451
0.000846177
0.000851666
0.000851239
0.000850835
0.000850452
0.00085009
0.000849746
0.000849419
0.000849108
0.000848811
0.000848528
0.000848256
0.000847995
0.000847745
0.000847504
0.000847271
0.000847046
0.000846831
0.000846636
0.000851665
0.000851236
0.000850831
0.000850447
0.000850083
0.000849737
0.000849409
0.000849098
0.000848801
0.000848519
0.00084825
0.000847994
0.00084775
0.000847516
0.000847294
0.000847081
0.000846881
0.000846702
0.000851664
0.000851235
0.000850828
0.000850442
0.000850077
0.00084973
0.000849401
0.000849088
0.00084879
0.000848507
0.000848237
0.00084798
0.000847735
0.000847502
0.000847279
0.000847067
0.000846866
0.000846689
0.000851663
0.000851234
0.000850826
0.00085044
0.000850073
0.000849725
0.000849395
0.000849081
0.000848782
0.000848498
0.000848227
0.000847969
0.000847723
0.000847488
0.000847264
0.000847051
0.000846849
0.00084667
0.000851663
0.000851233
0.000850825
0.000850439
0.000850072
0.000849724
0.000849393
0.000849078
0.000848779
0.000848494
0.000848223
0.000847964
0.000847717
0.000847481
0.000847256
0.000847042
0.000846839
0.000846659
0.000851664
0.000851234
0.000850826
0.00085044
0.000850074
0.000849726
0.000849396
0.000849082
0.000848782
0.000848497
0.000848225
0.000847966
0.000847718
0.000847481
0.000847254
0.000847038
0.000846833
0.00084665
0.000851664
0.000851235
0.000850829
0.000850443
0.000850078
0.00084973
0.000849399
0.000849083
0.00084878
0.000848489
0.00084821
0.000847941
0.00084768
0.000847428
0.000847183
0.000846946
0.000846717
0.000846507
0.000851665
0.000851237
0.00085083
0.000850442
0.000850069
0.000849706
0.000849351
0.000848999
0.000848648
0.000848294
0.000847935
0.000847571
0.000847199
0.00084682
0.000846434
0.000846041
0.000845643
0.000845254
0.000851664
0.000851228
0.000850794
0.000850348
0.00084987
0.000849345
0.000848762
0.000848111
0.000847389
0.000846594
0.000845729
0.000844798
0.000843807
0.000842763
0.000841673
0.000840546
0.00083939
0.000838229
0.000851634
0.000851073
0.000850343
0.000849363
0.00084808
0.000846468
0.000844531
0.000842293
0.000839786
0.000837054
0.000834137
0.000831077
0.000827912
0.000824676
0.000821398
0.000818103
0.000814815
0.000811582
0.000851287
0.000849596
0.000846721
0.000842578
0.000837263
0.00083098
0.000823972
0.000816472
0.000808676
0.00080074
0.000792787
0.000784906
0.000777162
0.000769601
0.000762252
0.000755135
0.000748265
0.000741695
0.000848318
0.000839426
0.000826161
0.000810017
0.000792358
0.000774226
0.00075632
0.000739042
0.000722591
0.000707047
0.000692422
0.000678687
0.000665797
0.000653697
0.000642331
0.000631644
0.000621589
0.000612174
0.000828548
0.000788843
0.000746033
0.000705701
0.000669461
0.000637497
0.000609439
0.000584732
0.000562835
0.000543295
0.000525742
0.000509876
0.000495457
0.00048229
0.000470217
0.000459107
0.000448852
0.000439407
0.000730726
0.000627345
0.000554506
0.000501057
0.000460314
0.000428343
0.000402627
0.000381462
0.000363701
0.000348571
0.000335525
0.000324165
0.000314194
0.000305382
0.00029755
0.000290552
0.000284269
0.000278619
0.000439249
0.00033847
0.000287935
0.000256868
0.000236361
0.000222509
0.000212992
0.000206311
0.000201505
0.000197958
0.000195271
0.000193177
0.000191499
0.000190116
0.000188947
0.000187933
0.000187036
0.00018621
7.16431e-05
6.90587e-05
6.65522e-05
6.41646e-05
6.19883e-05
6.00784e-05
5.84564e-05
5.71211e-05
5.60569e-05
5.524e-05
5.46432e-05
5.42388e-05
5.40001e-05
5.39021e-05
5.39222e-05
5.40404e-05
5.42393e-05
5.45026e-05
4.84051e-07
1.06098e-05
1.69702e-05
2.28492e-05
2.92522e-05
3.64081e-05
4.44442e-05
5.34901e-05
6.30976e-05
7.27959e-05
8.25047e-05
9.21211e-05
0.000101556
0.000110743
0.000119636
0.000128201
0.000136417
0.000144262
0.000151718
0.000158765
0.000165376
0.000171521
0.000177153
0.000182205
0.000186586
0.000190188
0.000192947
0.000194927
0.000196364
0.000197546
0.000198589
0.000199445
0.000198958
4.54865e-05
0.000200379
0.00020094
4.58608e-05
4.61398e-05
4.65082e-05
0.000201343
4.67438e-05
4.77792e-05
4.87562e-05
4.97594e-05
5.07755e-05
5.17992e-05
5.28279e-05
5.38598e-05
5.48939e-05
5.59294e-05
5.69657e-05
5.80024e-05
5.90392e-05
6.00758e-05
6.11119e-05
6.2147e-05
6.31811e-05
6.42136e-05
6.52442e-05
6.62726e-05
6.72984e-05
6.83211e-05
6.93404e-05
7.03559e-05
7.1367e-05
7.23733e-05
7.33743e-05
7.43696e-05
7.53586e-05
7.63409e-05
7.7316e-05
7.82833e-05
7.92424e-05
8.01928e-05
8.11339e-05
8.20654e-05
8.29866e-05
8.38972e-05
8.47967e-05
8.56845e-05
8.65603e-05
8.74237e-05
8.82741e-05
8.91112e-05
8.99345e-05
9.07437e-05
9.15383e-05
9.23179e-05
9.30821e-05
9.38306e-05
9.45629e-05
9.52787e-05
9.59775e-05
9.66589e-05
9.73228e-05
9.7969e-05
9.85976e-05
9.92095e-05
9.98066e-05
0.000100393
0.000100958
0.000101501
0.000102024
0.000102525
0.000103005
0.000103462
0.000103898
0.00010431
0.0001047
0.000105066
0.000105408
0.000105727
0.000106021
0.000106291
0.000106536
0.000106756
0.00010695
0.00010712
0.000107264
0.000107383
0.000107476
0.000107543
0.000107584
0.0001076
0.00010759
0.000107555
0.000107494
0.000107407
0.000107295
0.000107158
0.000106996
0.000106809
0.000106598
0.000106362
0.000106102
0.000105819
0.000105512
0.000105182
0.00010483
0.000104456
0.000104059
0.000103642
0.000103204
0.000102746
0.000102268
0.00010177
0.000101255
0.000100721
0.00010017
9.96027e-05
9.90191e-05
9.84201e-05
9.78065e-05
9.71789e-05
9.6538e-05
9.58847e-05
9.52195e-05
9.45431e-05
9.38567e-05
9.31601e-05
9.24557e-05
9.17427e-05
9.10233e-05
9.03028e-05
8.96077e-05
8.91384e-05
8.87393e-05
8.83414e-05
8.79412e-05
8.75388e-05
8.71342e-05
8.67274e-05
8.63177e-05
8.5904e-05
8.54829e-05
8.50479e-05
8.45833e-05
8.40486e-05
8.33416e-05
8.20359e-05
1.56847e-06
3.25104e-05
6.83323e-05
9.43542e-05
0.000112614
0.000126385
0.000138238
0.000149512
0.000160784
0.000172194
0.000183684
0.000195135
0.000206427
0.000217458
0.000228148
0.00023843
0.000248251
0.000257557
0.000266295
0.000274402
0.000281798
0.000288372
0.000293961
0.000298334
0.000301193
0.000302235
0.000301319
0.000298673
0.000294934
0.000290778
0.000286476
0.000281852
0.000275132
0.000257586
0.000266909
0.000264624
0.000253272
0.000252759
0.000255825
0.000265662
0.000263653
0.000269879
0.000276094
0.000282117
0.000288497
0.000295154
0.000302027
0.000309072
0.000316262
0.00032358
0.000331016
0.000338563
0.000346218
0.000353979
0.000361843
0.000369811
0.00037788
0.00038605
0.00039432
0.000402689
0.000411155
0.000419718
0.000428374
0.000437122
0.000445959
0.000454883
0.000463889
0.000472975
0.000482136
0.000491369
0.000500668
0.000510029
0.000519447
0.000528917
0.000538433
0.000547989
0.000557581
0.000567201
0.000576845
0.000586506
0.000596179
0.000605858
0.000615536
0.00062521
0.000634873
0.00064452
0.000654147
0.000663748
0.000673319
0.000682857
0.000692355
0.00070181
0.000711216
0.000720565
0.000729847
0.000739044
0.000748129
0.000757055
0.000765757
0.00077375
0.000781515
0.000789153
0.000796674
0.000804074
0.000811347
0.000818489
0.000825492
0.000832352
0.000839063
0.000845619
0.000852016
0.000858247
0.000864308
0.000870195
0.000875901
0.000881423
0.000886757
0.000891898
0.000896842
0.000901585
0.000906125
0.000910458
0.000914581
0.000918492
0.000922188
0.000925666
0.000928925
0.000931963
0.000934779
0.00093737
0.000939737
0.000941879
0.000943796
0.000945487
0.000946953
0.000948195
0.000949212
0.000950007
0.000950581
0.000950935
0.000951073
0.000950995
0.000950706
0.000950207
0.000949502
0.000948596
0.000947491
0.000946192
0.000944703
0.000943029
0.000941175
0.000939147
0.00093695
0.00093459
0.000932071
0.000929403
0.000926591
0.000923638
0.000920564
0.000917356
0.000914044
0.000910631
0.000907089
0.000903341
0.000899001
0.000892633
0.00088536
0.00087782
0.000870162
0.000862429
0.000854643
0.000846814
0.000838948
0.000831047
0.000823103
0.000815092
0.00080694
0.000798538
0.000788872
0.00076974
2.97952e-06
5.01595e-05
0.000104014
0.000144022
0.000172953
0.000194583
0.000211827
0.000226685
0.000240378
0.000253552
0.000266478
0.000279221
0.000291746
0.000303983
0.000315853
0.000327285
0.000338213
0.000348579
0.000358328
0.000367405
0.000375751
0.000383296
0.000389955
0.000395633
0.000400246
0.000403783
0.00040639
0.00040844
0.00041046
0.000412917
0.000416035
0.000419862
0.000424233
0.000428722
0.000435532
0.000442764
0.000450265
0.000459083
0.00046919
0.000480601
0.000492305
0.000505358
0.000518905
0.000532699
0.000546792
0.000561178
0.000575838
0.000590755
0.000605913
0.000621299
0.000636908
0.000652732
0.000668768
0.000685013
0.000701464
0.000718119
0.000734976
0.000752032
0.000769283
0.000786727
0.000804359
0.000822174
0.000840168
0.000858334
0.000876666
0.000895156
0.000913796
0.000932578
0.000951492
0.000970529
0.000989678
0.00100893
0.00102827
0.00104769
0.00106717
0.00108671
0.00110629
0.0011259
0.00114552
0.00116515
0.00118477
0.00120437
0.00122393
0.00124345
0.00126291
0.00128229
0.0013016
0.00132081
0.00133992
0.0013589
0.00137776
0.00139646
0.001415
0.00143336
0.0014515
0.00146939
0.001487
0.00150428
0.00152099
0.00153715
0.00155299
0.00156857
0.00158389
0.00159896
0.00161376
0.00162828
0.0016425
0.00165642
0.00167003
0.00168331
0.00169625
0.00170885
0.00172108
0.00173295
0.00174444
0.00175554
0.00176624
0.00177655
0.00178643
0.0017959
0.00180494
0.00181355
0.00182172
0.00182944
0.00183671
0.00184353
0.0018499
0.0018558
0.00186123
0.0018662
0.0018707
0.00187473
0.00187829
0.00188138
0.001884
0.00188616
0.00188784
0.00188907
0.00188983
0.00189014
0.00188999
0.0018894
0.00188836
0.0018869
0.001885
0.00188268
0.00187995
0.00187682
0.00187329
0.00186937
0.00186508
0.00186043
0.00185543
0.00185009
0.00184442
0.00183844
0.00183216
0.00182559
0.00181877
0.0018117
0.00180439
0.00179686
0.00178906
0.00178084
0.00177179
0.00176093
0.00174894
0.00173641
0.00172358
0.00171055
0.00169738
0.00168408
0.00167069
0.00165719
0.00164356
0.00162974
0.00161552
0.0016004
0.00158242
0.0015529
4.54109e-06
6.27159e-05
0.000129316
0.000180395
0.000218332
0.000246955
0.000269424
0.000288068
0.000304474
0.000319629
0.000334084
0.000348106
0.000361791
0.000375146
0.00038814
0.000400729
0.000412871
0.00042453
0.000435682
0.000446313
0.000456418
0.000465999
0.000475069
0.000483657
0.000491821
0.000499677
0.00050742
0.000515331
0.000523724
0.000532856
0.000542865
0.000553791
0.000565616
0.000578309
0.000592015
0.000606632
0.000622091
0.000638408
0.000655607
0.000673649
0.000692411
0.000711831
0.000731709
0.000751929
0.000772464
0.000793306
0.000814453
0.0008359
0.000857644
0.00087968
0.000902005
0.000924616
0.000947511
0.000970685
0.000994138
0.00101786
0.00104186
0.00106613
0.00109065
0.00111543
0.00114046
0.00116573
0.00119124
0.00121696
0.0012429
0.00126904
0.00129537
0.00132188
0.00134855
0.00137537
0.00140232
0.00142938
0.00145655
0.00148379
0.00151111
0.00153847
0.00156585
0.00159325
0.00162064
0.001648
0.00167532
0.00170258
0.00172975
0.00175683
0.00178379
0.00181062
0.0018373
0.0018638
0.00189012
0.00191624
0.00194213
0.00196777
0.00199315
0.00201823
0.00204298
0.00206738
0.00209138
0.00211496
0.0021379
0.00216035
0.00218241
0.00220411
0.00222545
0.00224643
0.00226703
0.00228724
0.00230704
0.00232641
0.00234535
0.00236384
0.00238185
0.00239939
0.00241643
0.00243296
0.00244896
0.00246444
0.00247936
0.00249373
0.00250752
0.00252074
0.00253337
0.0025454
0.00255683
0.00256764
0.00257784
0.00258741
0.00259634
0.00260464
0.0026123
0.00261931
0.00262568
0.0026314
0.00263647
0.00264089
0.00264466
0.00264779
0.00265027
0.0026521
0.0026533
0.00265386
0.0026538
0.00265311
0.00265181
0.00264991
0.0026474
0.00264431
0.00264064
0.00263641
0.00263162
0.00262629
0.00262043
0.00261406
0.0026072
0.00259986
0.00259205
0.0025838
0.00257513
0.00256606
0.00255661
0.00254681
0.00253665
0.00252614
0.00251524
0.00250383
0.00249161
0.00247808
0.00246351
0.00244829
0.00243265
0.0024167
0.00240053
0.00238416
0.00236764
0.00235097
0.00233411
0.00231699
0.00229932
0.00228043
0.00225817
0.00222598
6.0278e-06
7.26443e-05
0.000149208
0.000209422
0.000254971
0.000289688
0.00031689
0.000339121
0.000358206
0.000375373
0.000391396
0.000406721
0.000421582
0.000436084
0.000450262
0.000464122
0.00047766
0.000490877
0.000503783
0.000516404
0.000528776
0.000540952
0.000553
0.000565003
0.000577065
0.000589319
0.000601927
0.000615072
0.000628932
0.000643644
0.000659285
0.000675879
0.000693416
0.000711876
0.000731246
0.000751489
0.000772556
0.000794402
0.000816989
0.000840264
0.000864154
0.000888575
0.000913437
0.000938677
0.000964268
0.0009902
0.00101647
0.00104308
0.00107002
0.0010973
0.00112491
0.00115285
0.00118113
0.00120973
0.00123865
0.00126789
0.00129744
0.00132731
0.00135747
0.00138792
0.00141866
0.00144966
0.00148093
0.00151245
0.0015442
0.00157617
0.00160835
0.00164071
0.00167324
0.00170593
0.00173874
0.00177167
0.00180469
0.00183777
0.00187091
0.00190407
0.00193723
0.00197038
0.00200349
0.00203653
0.00206948
0.00210233
0.00213504
0.00216761
0.0022
0.0022322
0.00226418
0.00229593
0.00232742
0.00235864
0.00238956
0.00242016
0.00245042
0.0024803
0.00250979
0.00253887
0.0025675
0.00259559
0.00262308
0.00265008
0.00267665
0.00270278
0.0027285
0.00275378
0.00277861
0.00280298
0.00282686
0.00285024
0.00287311
0.00289544
0.00291722
0.00293843
0.00295905
0.00297908
0.00299849
0.00301728
0.00303542
0.00305291
0.00306972
0.00308586
0.0031013
0.00311604
0.00313006
0.00314337
0.00315594
0.00316778
0.00317888
0.00318922
0.0031988
0.00320763
0.00321569
0.00322298
0.00322951
0.00323527
0.00324026
0.00324447
0.00324793
0.00325061
0.00325254
0.00325372
0.00325414
0.00325382
0.00325277
0.00325099
0.00324849
0.00324529
0.00324139
0.00323681
0.00323156
0.00322566
0.00321912
0.00321195
0.00320419
0.00319583
0.00318692
0.00317746
0.00316748
0.003157
0.00314605
0.00313464
0.00312279
0.00311049
0.00309773
0.00308441
0.00307036
0.00305533
0.00303942
0.00302284
0.00300579
0.00298836
0.00297063
0.00295268
0.00293452
0.00291619
0.00289766
0.00287887
0.00285953
0.00283898
0.00281535
0.0027843
7.34603e-06
8.0658e-05
0.000165376
0.000233208
0.000285291
0.000325397
0.000356926
0.00038255
0.000404259
0.00042346
0.000441102
0.000457789
0.000473882
0.00048959
0.000505023
0.000520243
0.00053529
0.000550199
0.00056501
0.000579775
0.000594554
0.000609421
0.000624462
0.000639769
0.000655447
0.000671609
0.00068837
0.000705847
0.000724138
0.000743315
0.000763416
0.000784447
0.000806393
0.000829226
0.000852911
0.000877406
0.000902663
0.000928631
0.000955262
0.000982501
0.00101029
0.00103858
0.00106731
0.00109644
0.00112595
0.00115583
0.00118608
0.00121669
0.00124766
0.00127899
0.00131069
0.00134274
0.00137515
0.00140791
0.00144102
0.00147447
0.00150825
0.00154236
0.00157679
0.00161152
0.00164655
0.00168187
0.00171745
0.00175329
0.00178936
0.00182566
0.00186216
0.00189884
0.00193569
0.00197268
0.00200979
0.00204699
0.00208427
0.0021216
0.00215896
0.00219631
0.00223364
0.00227092
0.00230813
0.00234524
0.00238222
0.00241905
0.00245571
0.00249217
0.00252842
0.00256442
0.00260015
0.0026356
0.00267074
0.00270556
0.00274002
0.00277412
0.00280782
0.00284111
0.00287397
0.00290637
0.0029383
0.0029696
0.00300036
0.00303062
0.00306042
0.00308976
0.00311864
0.00314704
0.00317496
0.00320236
0.00322924
0.00325558
0.00328135
0.00330654
0.00333113
0.00335511
0.00337845
0.00340114
0.00342316
0.0034445
0.00346513
0.00348506
0.00350425
0.0035227
0.00354039
0.00355732
0.00357347
0.00358883
0.0036034
0.00361716
0.0036301
0.00364222
0.00365351
0.00366397
0.00367359
0.00368236
0.00369029
0.00369738
0.00370362
0.00370901
0.00371355
0.00371725
0.00372011
0.00372213
0.00372333
0.00372369
0.00372324
0.00372198
0.00371993
0.00371708
0.00371346
0.00370907
0.00370393
0.00369806
0.00369146
0.00368417
0.00367619
0.00366754
0.00365825
0.00364834
0.00363784
0.00362676
0.00361512
0.00360296
0.00359028
0.00357709
0.00356338
0.0035491
0.00353415
0.00351841
0.00350191
0.00348478
0.00346715
0.0034491
0.00343072
0.00341208
0.00339322
0.00337418
0.00335497
0.00333554
0.00331567
0.00329479
0.00327146
0.0032429
8.44083e-06
8.71824e-05
0.000178492
0.000252687
0.000310413
0.00035533
0.000390845
0.000419702
0.000443997
0.000465264
0.000484589
0.000502707
0.000520098
0.000537063
0.00055379
0.000570398
0.000586969
0.000603568
0.000620258
0.000637104
0.000654176
0.000671552
0.000689312
0.000707543
0.000726331
0.000745759
0.000765907
0.000786845
0.000808627
0.000831288
0.00085484
0.000879277
0.000904578
0.00093071
0.000957635
0.00098531
0.00101369
0.00104273
0.00107237
0.00110259
0.00113332
0.00116454
0.00119619
0.00122827
0.00126074
0.00129361
0.00132685
0.00136048
0.00139448
0.00142886
0.00146361
0.00149873
0.00153422
0.00157007
0.00160627
0.00164282
0.00167972
0.00171694
0.00175448
0.00179234
0.00183048
0.00186891
0.00190761
0.00194656
0.00198574
0.00202513
0.00206472
0.00210448
0.00214439
0.00218443
0.00222458
0.00226481
0.0023051
0.00234542
0.00238574
0.00242605
0.00246631
0.00250649
0.00254658
0.00258653
0.00262634
0.00266597
0.00270539
0.00274458
0.00278352
0.00282218
0.00286055
0.00289859
0.0029363
0.00297364
0.0030106
0.00304717
0.00308331
0.00311902
0.00315427
0.00318904
0.00322329
0.00325695
0.00329008
0.00332273
0.0033549
0.0033866
0.00341782
0.00344856
0.00347878
0.00350848
0.00353763
0.00356622
0.00359422
0.00362162
0.0036484
0.00367453
0.00370001
0.00372481
0.00374891
0.0037723
0.00379495
0.00381686
0.00383801
0.00385838
0.00387796
0.00389673
0.00391469
0.00393182
0.00394811
0.00396355
0.00397814
0.00399186
0.00400471
0.00401667
0.00402775
0.00403794
0.00404723
0.00405563
0.00406314
0.00406974
0.00407544
0.00408025
0.00408416
0.00408719
0.00408933
0.00409059
0.00409097
0.00409048
0.00408915
0.00408697
0.00408395
0.0040801
0.00407547
0.00407002
0.00406379
0.0040568
0.00404906
0.00404061
0.00403145
0.00402161
0.00401112
0.004
0.00398826
0.00397594
0.00396304
0.00394958
0.00393557
0.00392096
0.00390573
0.00388981
0.00387322
0.00385603
0.00383833
0.0038202
0.00380172
0.00378295
0.00376397
0.00374482
0.00372554
0.00370612
0.0036864
0.00366597
0.00364373
0.00361791
9.33834e-06
9.22966e-05
0.000188859
0.000268357
0.000330964
0.00038018
0.000419375
0.000451311
0.000478145
0.000501499
0.000522561
0.00054217
0.000560905
0.000579154
0.000597173
0.000615137
0.000633164
0.000651349
0.000669768
0.000688495
0.000707601
0.000727158
0.000747236
0.000767905
0.00078923
0.000811272
0.00083408
0.000857695
0.000882145
0.000907442
0.000933584
0.000960556
0.000988334
0.00101689
0.00104617
0.00107616
0.00110679
0.00113804
0.00116987
0.00120223
0.00123509
0.00126842
0.00130219
0.00133638
0.00137098
0.00140598
0.00144136
0.00147713
0.00151328
0.00154981
0.00158671
0.00162398
0.00166161
0.00169961
0.00173796
0.00177665
0.00181568
0.00185503
0.00189471
0.00193468
0.00197494
0.00201548
0.00205628
0.00209732
0.00213858
0.00218005
0.00222171
0.00226353
0.0023055
0.00234759
0.00238978
0.00243204
0.00247435
0.00251668
0.00255901
0.00260131
0.00264356
0.00268572
0.00272777
0.00276968
0.00281142
0.00285297
0.00289431
0.00293539
0.00297621
0.00301673
0.00305694
0.00309681
0.00313632
0.00317545
0.00321419
0.00325252
0.00329042
0.00332787
0.00336486
0.00340137
0.00343731
0.00347273
0.00350766
0.00354212
0.00357611
0.00360964
0.00364269
0.00367525
0.0037073
0.00373882
0.00376979
0.0038002
0.00383001
0.00385922
0.00388779
0.00391572
0.00394297
0.00396954
0.00399539
0.00402053
0.00404491
0.00406854
0.00409138
0.00411343
0.00413466
0.00415507
0.00417463
0.00419335
0.00421121
0.0042282
0.0042443
0.00425951
0.00427382
0.00428722
0.00429969
0.00431125
0.00432189
0.0043316
0.00434038
0.00434823
0.00435513
0.00436111
0.00436615
0.00437028
0.00437349
0.00437577
0.00437713
0.00437759
0.00437718
0.00437586
0.00437365
0.00437058
0.00436667
0.00436191
0.00435633
0.00434995
0.00434278
0.00433485
0.00432617
0.00431677
0.00430667
0.00429588
0.00428444
0.00427237
0.00425968
0.00424638
0.0042325
0.00421801
0.00420291
0.00418717
0.00417082
0.00415389
0.00413645
0.00411858
0.00410034
0.00408182
0.00406307
0.00404418
0.00402521
0.00400618
0.00398701
0.0039674
0.00394655
0.00392327
1.00407e-05
9.61282e-05
0.000196743
0.000280588
0.000347379
0.000400416
0.000442984
0.00047783
0.000507131
0.000532562
0.000555382
0.00057651
0.000596606
0.000616128
0.000635396
0.00065463
0.000673987
0.000693581
0.000713505
0.000733835
0.000754641
0.000775985
0.000797926
0.000820519
0.000843809
0.000867838
0.000892635
0.000918223
0.000944612
0.000971801
0.000999781
0.00102853
0.00105803
0.00108824
0.00111914
0.00115067
0.00118282
0.00121554
0.0012488
0.00128256
0.00131681
0.00135151
0.00138664
0.00142219
0.00145814
0.00149448
0.00153121
0.00156831
0.00160579
0.00164365
0.00168187
0.00172045
0.00175938
0.00179867
0.0018383
0.00187827
0.00191857
0.00195918
0.00200011
0.00204132
0.00208283
0.0021246
0.00216663
0.00220889
0.00225138
0.00229408
0.00233696
0.00238001
0.00242321
0.00246653
0.00250995
0.00255346
0.00259702
0.00264061
0.0026842
0.00272778
0.0027713
0.00281475
0.00285809
0.0029013
0.00294435
0.00298721
0.00302985
0.00307225
0.00311438
0.00315621
0.00319773
0.0032389
0.00327971
0.00332015
0.00336018
0.00339981
0.00343901
0.00347776
0.00351606
0.00355387
0.00359117
0.00362799
0.00366437
0.0037003
0.00373579
0.00377083
0.00380541
0.00383951
0.00387311
0.00390619
0.00393873
0.0039707
0.00400209
0.00403287
0.00406303
0.00409253
0.00412137
0.00414951
0.00417694
0.00420365
0.0042296
0.00425479
0.00427918
0.00430277
0.00432553
0.00434746
0.00436853
0.00438874
0.00440808
0.00442653
0.00444409
0.00446073
0.00447645
0.00449124
0.00450509
0.004518
0.00452997
0.004541
0.00455108
0.0045602
0.00456835
0.00457554
0.00458178
0.00458708
0.00459145
0.00459484
0.00459729
0.0045988
0.0045994
0.00459908
0.00459785
0.00459572
0.00459272
0.00458885
0.00458413
0.00457857
0.00457219
0.00456502
0.00455707
0.00454835
0.0045389
0.00452874
0.00451788
0.00450635
0.00449416
0.00448134
0.00446789
0.00445383
0.00443915
0.00442386
0.00440797
0.00439153
0.00437458
0.00435719
0.00433943
0.00432137
0.0043031
0.00428471
0.00426628
0.00424787
0.00422945
0.00421082
0.00419138
0.00417029
1.05554e-05
9.88114e-05
0.000202398
0.000289708
0.000360025
0.000416411
0.000462035
0.000499589
0.000531243
0.000558697
0.000583251
0.000605884
0.000627313
0.000648058
0.000668488
0.000688866
0.000709378
0.00073016
0.000751316
0.000772927
0.000795058
0.000817766
0.000841098
0.000865096
0.000889792
0.000915213
0.000941374
0.000968285
0.000995946
0.00102435
0.00105348
0.00108333
0.00111385
0.00114503
0.00117683
0.00120923
0.00124218
0.00127567
0.00130966
0.00134412
0.00137904
0.00141439
0.00145015
0.00148632
0.00152287
0.0015598
0.0015971
0.00163476
0.00167279
0.00171118
0.00174992
0.00178901
0.00182845
0.00186822
0.00190833
0.00194877
0.00198953
0.00203061
0.00207199
0.00211367
0.00215563
0.00219787
0.00224037
0.00228311
0.00232609
0.00236929
0.0024127
0.00245629
0.00250004
0.00254395
0.00258798
0.00263211
0.00267633
0.00272061
0.00276491
0.00280923
0.00285352
0.00289777
0.00294193
0.00298599
0.00302991
0.00307367
0.00311722
0.00316055
0.00320362
0.00324642
0.0032889
0.00333105
0.00337285
0.00341428
0.00345532
0.00349596
0.00353617
0.00357596
0.00361531
0.00365421
0.00369268
0.00373074
0.00376838
0.00380563
0.00384245
0.00387885
0.00391482
0.00395031
0.00398533
0.00401984
0.00405382
0.00408724
0.00412009
0.00415234
0.00418397
0.00421496
0.00424528
0.00427491
0.00430383
0.00433203
0.00435948
0.00438615
0.00441203
0.0044371
0.00446133
0.00448472
0.00450725
0.00452891
0.00454969
0.00456958
0.00458856
0.00460663
0.00462375
0.00463992
0.00465514
0.00466941
0.00468272
0.00469508
0.0047065
0.00471692
0.00472635
0.0047348
0.00474229
0.00474881
0.00475436
0.00475895
0.00476257
0.00476525
0.00476698
0.00476777
0.00476764
0.0047666
0.00476465
0.00476181
0.0047581
0.00475354
0.00474813
0.00474189
0.00473485
0.00472703
0.00471844
0.0047091
0.00469903
0.00468826
0.00467681
0.00466468
0.00465191
0.0046385
0.00462447
0.00460983
0.00459459
0.00457881
0.00456251
0.00454577
0.00452865
0.00451123
0.0044936
0.00447586
0.00445811
0.00444044
0.00442287
0.00440526
0.00438715
0.00436789
1.08954e-05
0.000100483
0.000206072
0.00029603
0.000369239
0.000428502
0.000476837
0.00051686
0.000550706
0.000580073
0.000606284
0.000630351
0.000653038
0.000674906
0.000696366
0.000717715
0.000739167
0.000760875
0.000782955
0.000805489
0.000828545
0.000852171
0.00087641
0.000901291
0.000926838
0.000953066
0.000979983
0.00100759
0.00103588
0.00106485
0.00109447
0.00112474
0.00115561
0.00118707
0.0012191
0.00125166
0.00128472
0.00131827
0.00135227
0.00138672
0.00142157
0.00145683
0.00149248
0.0015285
0.00156488
0.00160163
0.00163872
0.00167617
0.00171396
0.00175209
0.00179056
0.00182938
0.00186853
0.00190801
0.00194783
0.00198798
0.00202846
0.00206926
0.00211038
0.0021518
0.00219354
0.00223556
0.00227788
0.00232047
0.00236334
0.00240645
0.00244981
0.0024934
0.0025372
0.00258119
0.00262536
0.00266968
0.00271413
0.00275869
0.00280334
0.00284804
0.00289277
0.0029375
0.00298219
0.00302682
0.00307136
0.00311576
0.00316
0.00320405
0.00324786
0.00329142
0.00333469
0.00337765
0.00342026
0.00346252
0.00350441
0.0035459
0.003587
0.00362768
0.00366798
0.00370793
0.00374752
0.00378676
0.00382563
0.00386413
0.00390225
0.00393997
0.00397727
0.00401413
0.00405053
0.00408643
0.00412181
0.00415665
0.00419093
0.00422462
0.0042577
0.00429013
0.00432191
0.004353
0.00438339
0.00441305
0.00444197
0.00447012
0.00449747
0.00452399
0.00454969
0.00457453
0.00459851
0.00462161
0.00464382
0.00466514
0.00468556
0.00470505
0.00472358
0.00474116
0.00475777
0.00477341
0.00478809
0.0048018
0.00481454
0.00482629
0.00483705
0.00484682
0.00485561
0.00486343
0.00487026
0.00487612
0.004881
0.00488492
0.00488789
0.00488991
0.00489099
0.00489114
0.00489038
0.00488871
0.00488615
0.00488271
0.00487842
0.00487328
0.00486731
0.00486053
0.00485297
0.00484463
0.00483553
0.00482571
0.00481517
0.00480394
0.00479204
0.00477947
0.00476626
0.00475244
0.00473802
0.00472303
0.00470753
0.00469158
0.00467523
0.00465858
0.00464171
0.00462474
0.00460778
0.00459093
0.00457424
0.00455763
0.00454073
0.00452301
1.10783e-05
0.000101281
0.000208014
0.000299861
0.000375346
0.000437001
0.000487674
0.000529878
0.000565694
0.0005968
0.000624521
0.000649887
0.000673689
0.00069652
0.000718821
0.000740916
0.000763041
0.000785366
0.000808013
0.000831074
0.000854613
0.00087868
0.000903307
0.000928522
0.00095434
0.000980769
0.00100781
0.00103547
0.00106373
0.00109257
0.001122
0.00115197
0.00118248
0.0012135
0.00124501
0.00127699
0.00130941
0.00134225
0.00137549
0.00140913
0.00144314
0.0014775
0.00151222
0.00154729
0.00158269
0.00161843
0.0016545
0.00169091
0.00172765
0.00176472
0.00180214
0.0018399
0.001878
0.00191645
0.00195525