/*--------------------------------*- C++ -*----------------------------------*\
  =========                 |
  \\      /  F ield         | OpenFOAM: The Open Source CFD Toolbox
   \\    /   O peration     | Website:  https://openfoam.org
    \\  /    A nd           | Version:  9
     \\/     M anipulation  |
\*---------------------------------------------------------------------------*/
FoamFile
{
    format      ascii;
    class       volScalarField;
    location    "0.06";
    object      k;
}
// * * * * * * * * * * * * * * * * * * * * * * * * * * * * * * * * * * * * * //

dimensions      [0 2 -2 0 0 0 0];

internalField   nonuniform List<scalar> 
12225
(
0.283105
0.213627
0.165596
0.133118
0.112272
0.100364
0.0954593
0.0960913
0.101112
0.109614
0.120897
0.134429
0.149828
0.166809
0.185121
0.204413
0.224155
0.249076
0.349217
0.32477
0.310856
0.309705
0.321718
0.346553
0.383243
0.430263
0.485769
0.547898
0.614985
0.685666
0.758829
0.833447
0.908278
0.981499
1.05061
1.11288
0.361952
0.348118
0.336032
0.326392
0.319762
0.316451
0.316566
0.320095
0.326959
0.337101
0.350567
0.367561
0.388444
0.413674
0.443689
0.478777
0.518937
0.564308
0.365603
0.355034
0.344781
0.335326
0.327002
0.319995
0.314339
0.309954
0.3067
0.304418
0.302984
0.302352
0.30259
0.3039
0.306619
0.311174
0.318068
0.327685
0.366987
0.358248
0.349551
0.341145
0.33321
0.325866
0.319165
0.313098
0.307614
0.302636
0.298079
0.293869
0.289953
0.286314
0.282975
0.27999
0.277467
0.275498
0.367521
0.359732
0.352065
0.344596
0.337403
0.330548
0.32407
0.317976
0.312256
0.306876
0.301793
0.296958
0.292318
0.287826
0.283442
0.279136
0.274899
0.270762
0.367717
0.360374
0.353295
0.346466
0.339892
0.333586
0.32756
0.321819
0.316357
0.311161
0.306212
0.301482
0.29694
0.292552
0.288281
0.28409
0.279946
0.275853
0.367783
0.360627
0.353845
0.347388
0.341225
0.335339
0.329716
0.324349
0.319228
0.314341
0.309675
0.305213
0.300936
0.296821
0.292845
0.288979
0.285201
0.281524
0.367802
0.360717
0.354066
0.347796
0.341866
0.336244
0.330904
0.325826
0.320993
0.316389
0.312002
0.307815
0.303813
0.299981
0.296298
0.292747
0.28931
0.28601
0.367807
0.360746
0.354144
0.347957
0.342141
0.336662
0.331488
0.326594
0.321959
0.317563
0.313391
0.309426
0.305654
0.30206
0.298627
0.29534
0.292187
0.289192
0.367808
0.360753
0.354169
0.348013
0.342246
0.336833
0.331744
0.326951
0.322431
0.318165
0.314133
0.31032
0.30671
0.303289
0.300042
0.296955
0.294017
0.291253
0.367807
0.360754
0.354176
0.34803
0.34228
0.336893
0.331838
0.32709
0.322624
0.318421
0.314463
0.310732
0.307213
0.303892
0.300755
0.29779
0.294986
0.292366
0.367807
0.360754
0.354178
0.348036
0.342293
0.336917
0.331878
0.327152
0.322714
0.318544
0.314626
0.310942
0.307477
0.304217
0.30115
0.298263
0.295548
0.293025
0.367806
0.360754
0.354178
0.348038
0.342299
0.336928
0.331897
0.327181
0.322757
0.318605
0.314708
0.311049
0.307614
0.304389
0.301362
0.298521
0.295859
0.293395
0.367806
0.360753
0.354177
0.348039
0.342302
0.336934
0.331908
0.327198
0.322782
0.31864
0.314753
0.311107
0.307686
0.304478
0.30147
0.298651
0.296015
0.293578
0.367805
0.360752
0.354176
0.348039
0.342304
0.33694
0.331918
0.327214
0.322803
0.318668
0.314789
0.311151
0.307738
0.304539
0.30154
0.298731
0.296104
0.293678
0.367804
0.36075
0.354175
0.348039
0.342307
0.336946
0.331929
0.32723
0.322827
0.318698
0.314827
0.311196
0.307791
0.304599
0.301606
0.298803
0.296181
0.293756
0.367803
0.360748
0.354173
0.348039
0.342309
0.336953
0.331942
0.32725
0.322854
0.318735
0.314872
0.311251
0.307855
0.30467
0.301684
0.298886
0.296267
0.293843
0.367801
0.360745
0.354171
0.348038
0.342312
0.336961
0.331957
0.327273
0.322887
0.318777
0.314926
0.311315
0.307929
0.304754
0.301776
0.298984
0.296369
0.293946
0.3678
0.360743
0.354169
0.348039
0.342317
0.336971
0.331973
0.327297
0.32292
0.318819
0.314977
0.311375
0.307997
0.304829
0.301858
0.299071
0.296459
0.294037
0.367799
0.360742
0.354169
0.348042
0.342323
0.336983
0.33199
0.32732
0.322949
0.318855
0.315019
0.311423
0.308051
0.304887
0.301919
0.299133
0.296521
0.294098
0.367798
0.360742
0.354171
0.348046
0.342331
0.336993
0.332003
0.327335
0.322965
0.318871
0.315034
0.311436
0.308061
0.304893
0.301919
0.299126
0.296505
0.294072
0.367798
0.360742
0.35417
0.348043
0.342322
0.336974
0.33197
0.327283
0.322889
0.318767
0.314897
0.311263
0.307849
0.30464
0.301623
0.298786
0.29612
0.293641
0.367796
0.360731
0.354141
0.347978
0.342204
0.336787
0.331701
0.326919
0.322422
0.31819
0.314207
0.310457
0.306926
0.303602
0.300473
0.297526
0.294754
0.292174
0.367778
0.360653
0.35395
0.347621
0.341633
0.335967
0.330608
0.325544
0.320765
0.316256
0.312007
0.308007
0.304244
0.300706
0.29738
0.294254
0.291319
0.288592
0.367671
0.360266
0.353141
0.346294
0.33974
0.333497
0.327581
0.322
0.316754
0.311843
0.307254
0.302973
0.29898
0.295258
0.291789
0.288554
0.285539
0.28275
0.367182
0.358828
0.350553
0.342521
0.334867
0.327685
0.321025
0.3149
0.309302
0.304208
0.299587
0.2954
0.291611
0.288176
0.285054
0.282207
0.279604
0.277229
0.365308
0.354445
0.343807
0.333853
0.324899
0.317088
0.310428
0.304866
0.300323
0.296702
0.293898
0.291795
0.290281
0.289246
0.288587
0.288216
0.288055
0.288041
0.357581
0.338119
0.321556
0.309199
0.3012
0.297307
0.297119
0.300161
0.305922
0.313882
0.323542
0.33443
0.346116
0.35822
0.370418
0.382442
0.394106
0.40517
0.314729
0.26407
0.224538
0.193511
0.16916
0.150137
0.135421
0.124214
0.115874
0.109874
0.105775
0.10321
0.101868
0.101485
0.10184
0.102746
0.104048
0.105615
0.0857044
0.141896
0.166008
0.186984
0.200298
0.208871
0.209252
0.207346
0.20951
0.214737
0.222968
0.234299
0.248987
0.267428
0.290151
0.31766
0.344933
0.368462
0.385386
0.391844
0.382777
0.351969
0.292984
0.206567
0.134655
0.0800801
0.0684812
0.0730024
0.079381
0.0865988
0.0949684
0.0994764
0.097516
0.0917189
0.0855817
0.0818911
0.0826672
0.0886479
0.0999304
0.1184
0.15539
0.259431
0.453457
0.635831
0.807424
0.960386
1.09074
1.19701
1.27934
1.33891
1.37749
1.39717
1.40018
1.38877
1.36516
1.33142
1.28952
1.24117
1.18783
1.1332
1.07859
1.02427
0.970535
0.917658
0.865878
0.815396
0.766372
0.718925
0.673137
0.629048
0.58666
0.545938
0.506821
0.469227
0.433073
0.398293
0.364857
0.332784
0.302147
0.273076
0.245756
0.220452
0.197571
0.177896
0.163321
0.159985
0.154483
0.151636
0.151797
0.151743
0.152972
0.156049
0.153679
0.150694
0.150243
0.157328
0.163701
0.169463
0.171339
0.153941
0.139137
0.126392
0.115186
0.105191
0.0964121
0.0887273
0.0822082
0.0770292
0.073377
0.0713486
0.0708698
0.0716663
0.0732903
0.0751896
0.0768078
0.0777159
0.0777549
0.0771738
0.0766761
0.0767003
0.0771485
0.0777232
0.0784596
0.0801799
0.084393
0.0930489
0.108865
0.134946
0.174697
0.273785
0.386217
0.47381
0.534718
0.571003
0.586483
0.585181
0.570805
0.546657
0.515545
0.481149
0.445148
0.408696
0.372762
0.338094
0.305213
0.274448
0.24603
0.220393
0.199435
0.195833
0.221679
0.254871
0.295109
0.343371
0.400239
0.465549
0.538215
0.616267
0.698924
0.784081
0.842955
0.839159
0.758131
0.604658
0.415288
0.251099
0.142476
0.0889214
0.0679239
0.0611703
0.0603643
0.0604173
0.0605693
0.0604546
0.0552803
0.0475845
0.039757
0.0331109
0.0269853
0.0237326
0.0580372
0.111572
0.126087
0.183349
0.271869
0.278295
0.264879
0.248606
0.232456
0.216589
0.201384
0.187419
0.175153
0.16483
0.15654
0.150488
0.150129
0.155911
0.167128
0.182167
0.198443
0.212333
0.219245
0.216027
0.205531
0.181213
0.145647
0.110591
0.0876451
0.0886913
0.105116
0.119254
0.121895
0.114378
0.107068
0.124845
0.175717
0.252539
0.316375
0.345892
0.374453
0.409408
0.445129
0.470178
0.484505
0.488818
0.484871
0.474831
0.460901
0.445072
0.429
0.413962
0.400876
0.390357
0.382815
0.378532
0.377718
0.380514
0.387204
0.395322
0.403803
0.412618
0.421741
0.431138
0.440761
0.450543
0.460386
0.470152
0.479652
0.488631
0.496763
0.503646
0.508814
0.511766
0.512012
0.509137
0.502863
0.493102
0.479987
0.463857
0.445216
0.424677
0.402895
0.380477
0.357862
0.334856
0.313709
0.296065
0.280339
0.265944
0.252884
0.241347
0.229897
0.218427
0.207201
0.196338
0.186016
0.176611
0.168292
0.16124
0.154924
0.149173
0.144002
0.139314
0.135017
0.131596
0.129773
0.130029
0.132717
0.137934
0.145461
0.154778
0.165098
0.175374
0.184277
0.190212
0.191484
0.186684
0.175204
0.158062
0.138091
0.119027
0.103995
0.0943709
0.0921223
0.102298
0.128932
0.162495
0.192864
0.22283
0.246603
0.26342
0.276846
0.289048
0.300729
0.311863
0.322383
0.332579
0.34335
0.353739
0.363711
0.373556
0.383385
0.393084
0.402239
0.41009
0.415516
0.416964
0.412566
0.402649
0.388912
0.371318
0.35129
0.330276
0.309447
0.28962
0.271205
0.254196
0.238599
0.225227
0.223615
0.239637
0.260366
0.276658
0.291837
0.316996
0.344821
0.345778
0.308005
0.267828
0.253272
0.250519
0.234956
0.208826
0.181512
0.157675
0.139492
0.127973
0.121125
0.122007
0.0389046
0.092579
0.188985
0.336145
0.337744
0.286463
0.237607
0.201694
0.176246
0.157688
0.14361
0.13261
0.12387
0.116872
0.111258
0.10679
0.104041
0.103855
0.106789
0.113259
0.123047
0.13496
0.146856
0.156548
0.162996
0.162493
0.152101
0.135002
0.120074
0.118683
0.136746
0.160146
0.173814
0.198056
0.240447
0.275803
0.294752
0.304947
0.309247
0.311375
0.315211
0.319904
0.32281
0.322446
0.319691
0.31575
0.311816
0.308758
0.307022
0.306686
0.307617
0.309609
0.312494
0.316167
0.320576
0.325677
0.331405
0.337667
0.344631
0.352267
0.360571
0.36956
0.37926
0.3897
0.400907
0.412891
0.425635
0.439073
0.453072
0.467407
0.481734
0.495579
0.508333
0.519277
0.527638
0.532668
0.533754
0.530513
0.522863
0.511037
0.495548
0.477105
0.456504
0.434512
0.411702
0.388412
0.366068
0.3467
0.328711
0.311958
0.296383
0.281903
0.268336
0.255574
0.243557
0.232216
0.22155
0.211589
0.202329
0.193748
0.185842
0.178573
0.171895
0.165725
0.160023
0.154789
0.149997
0.145885
0.142692
0.140464
0.139174
0.138726
0.138972
0.139735
0.140785
0.141773
0.142115
0.140918
0.137125
0.130046
0.120227
0.109696
0.101286
0.0983921
0.106238
0.127482
0.155549
0.178279
0.199038
0.227492
0.26063
0.294951
0.325501
0.348677
0.36421
0.373979
0.380172
0.384323
0.387249
0.389928
0.392862
0.396316
0.400416
0.405064
0.409856
0.414036
0.416486
0.415662
0.409966
0.399941
0.385495
0.367345
0.346818
0.325354
0.304199
0.284263
0.26609
0.249957
0.236082
0.224431
0.214101
0.204513
0.197345
0.194459
0.197742
0.211823
0.242336
0.29024
0.341436
0.376697
0.392085
0.387207
0.356793
0.301814
0.243281
0.192218
0.15082
0.119017
0.0953848
0.0795147
0.0408011
0.215753
0.404142
0.367161
0.285848
0.22159
0.179885
0.153711
0.136662
0.12481
0.116016
0.109144
0.103582
0.0989753
0.0951082
0.0918566
0.0893623
0.0879158
0.0878113
0.0895859
0.0937717
0.100439
0.108902
0.118109
0.127338
0.135024
0.139203
0.141376
0.148222
0.166569
0.20349
0.258964
0.298326
0.28501
0.275689
0.271211
0.265975
0.261145
0.257795
0.256418
0.256768
0.257842
0.258839
0.259672
0.260667
0.261993
0.263594
0.265263
0.266785
0.268061
0.269139
0.27017
0.271327
0.272747
0.274504
0.276631
0.279142
0.282064
0.285577
0.289635
0.294298
0.299653
0.305819
0.312936
0.321164
0.330669
0.341602
0.354082
0.368161
0.383789
0.400769
0.418719
0.437038
0.454902
0.471304
0.485137
0.495337
0.50104
0.501734
0.497344
0.488218
0.475039
0.458674
0.440029
0.419805
0.398505
0.378571
0.360344
0.343122
0.326914
0.311719
0.297486
0.284144
0.271635
0.259918
0.248946
0.238666
0.229033
0.220014
0.211577
0.203693
0.19633
0.189449
0.182999
0.176926
0.171173
0.165702
0.160517
0.155619
0.151116
0.147077
0.143481
0.140268
0.137347
0.134597
0.131862
0.128939
0.125582
0.121545
0.116692
0.111335
0.106751
0.105327
0.1107
0.125532
0.146693
0.166606
0.185427
0.213751
0.254819
0.300249
0.340331
0.369092
0.386372
0.394952
0.397687
0.396621
0.393155
0.388409
0.383737
0.379645
0.376412
0.37418
0.372916
0.37232
0.37174
0.370162
0.36604
0.358984
0.348508
0.334568
0.317802
0.29934
0.280448
0.262244
0.245538
0.230796
0.218236
0.20793
0.19988
0.19399
0.189616
0.185364
0.180238
0.175691
0.17491
0.183434
0.207378
0.246408
0.288607
0.318315
0.327709
0.318494
0.295399
0.260007
0.217949
0.176726
0.140272
0.109919
0.0860748
0.0559894
0.370713
0.335612
0.250211
0.190578
0.156048
0.136308
0.124192
0.115859
0.109424
0.104041
0.0993743
0.0952783
0.0916524
0.0884122
0.0855133
0.082992
0.0810228
0.0797598
0.0795138
0.0807828
0.0840533
0.0894181
0.0966505
0.105899
0.117656
0.13292
0.156477
0.197516
0.258318
0.331013
0.334205
0.288241
0.259161
0.242181
0.231864
0.225387
0.22201
0.221171
0.222222
0.224442
0.227169
0.229971
0.232601
0.234834
0.236434
0.237251
0.237287
0.236693
0.235707
0.234574
0.233493
0.232602
0.231984
0.231686
0.231731
0.232139
0.23296
0.23406
0.235347
0.236861
0.238699
0.241018
0.244035
0.248021
0.253291
0.260185
0.269043
0.280174
0.293806
0.310032
0.328742
0.349552
0.371749
0.394271
0.41576
0.434702
0.449641
0.459443
0.4635
0.46181
0.454911
0.443698
0.429206
0.412338
0.394115
0.377045
0.360605
0.344808
0.32977
0.315541
0.302131
0.289519
0.277677
0.266573
0.256163
0.2464
0.23724
0.228641
0.220565
0.212974
0.205831
0.199098
0.192735
0.186694
0.180916
0.17535
0.169961
0.164738
0.159684
0.154805
0.150145
0.145691
0.1414
0.137203
0.133012
0.128733
0.124304
0.11978
0.115439
0.111927
0.110591
0.113696
0.123546
0.139512
0.155201
0.169248
0.191911
0.230405
0.280439
0.328843
0.365538
0.388007
0.398833
0.401394
0.398346
0.391665
0.382983
0.373577
0.36443
0.35594
0.348349
0.341762
0.336179
0.33145
0.326981
0.321916
0.315501
0.306989
0.296002
0.282557
0.267184
0.25081
0.234509
0.219242
0.205686
0.194191
0.184829
0.177498
0.172056
0.168408
0.166396
0.165707
0.165004
0.163191
0.161059
0.161057
0.166979
0.181121
0.199781
0.214477
0.21904
0.213238
0.200538
0.185364
0.16919
0.151118
0.131602
0.111798
0.0932082
0.0480713
0.27857
0.214955
0.165252
0.140305
0.127451
0.119657
0.113778
0.108445
0.103296
0.0984745
0.0941861
0.0904707
0.0872234
0.0843046
0.0816433
0.0793229
0.0774745
0.0760847
0.075166
0.0749495
0.0760478
0.0791838
0.0849191
0.0944791
0.110674
0.13951
0.190118
0.255298
0.330132
0.336143
0.284835
0.243899
0.220192
0.207211
0.200674
0.198204
0.198492
0.200584
0.203691
0.207138
0.210373
0.212973
0.214642
0.215225
0.214729
0.213325
0.21129
0.208941
0.206577
0.204441
0.20271
0.201493
0.200838
0.200738
0.201142
0.201961
0.20303
0.203751
0.204054
0.203948
0.203516
0.202924
0.202422
0.202346
0.20311
0.205192
0.209108
0.215388
0.224528
0.23694
0.252879
0.272351
0.295006
0.320037
0.346135
0.371548
0.394294
0.412515
0.424873
0.430772
0.430421
0.424639
0.414528
0.401159
0.386654
0.372093
0.357533
0.343248
0.329428
0.316186
0.30358
0.291636
0.280356
0.269731
0.259738
0.250345
0.241516
0.233215
0.225403
0.218044
0.211098
0.204523
0.198274
0.192301
0.18655
0.180972
0.175535
0.17022
0.165022
0.159942
0.154971
0.150121
0.145367
0.140661
0.135941
0.131152
0.126293
0.121512
0.117257
0.11448
0.114867
0.120658
0.132729
0.147294
0.157759
0.169416
0.196184
0.242485
0.297195
0.343834
0.375243
0.391994
0.397813
0.396079
0.389396
0.379703
0.368731
0.357506
0.346405
0.335654
0.325549
0.316178
0.307492
0.299371
0.291961
0.284307
0.275831
0.266087
0.254827
0.242076
0.228214
0.21395
0.200156
0.187643
0.176972
0.168386
0.161837
0.157085
0.153817
0.151745
0.150653
0.150376
0.150854
0.151079
0.150558
0.149803
0.150196
0.152908
0.157099
0.159813
0.158647
0.153644
0.146434
0.13857
0.130638
0.122414
0.113394
0.103227
0.0920709
0.0483106
0.178148
0.147333
0.133132
0.126081
0.120938
0.116144
0.110867
0.104995
0.0992114
0.0942459
0.0902929
0.0871284
0.0844501
0.0819639
0.0795877
0.0777617
0.0764474
0.075441
0.0744424
0.0734092
0.0731358
0.0750145
0.0803895
0.0918148
0.116023
0.164546
0.230367
0.298281
0.31791
0.277122
0.232543
0.204648
0.189963
0.183358
0.181601
0.182764
0.185643
0.189373
0.193265
0.196764
0.199459
0.201116
0.201693
0.201322
0.200264
0.198847
0.197394
0.196182
0.195408
0.195189
0.195564
0.196506
0.197933
0.199721
0.201721
0.203779
0.205114
0.205382
0.204504
0.202476
0.199387
0.195426
0.1909
0.186228
0.18193
0.178609
0.176911
0.177489
0.180972
0.187936
0.198873
0.21413
0.233802
0.257574
0.284548
0.313131
0.341103
0.365979
0.38562
0.398643
0.404729
0.404427
0.398829
0.389575
0.378648
0.366662
0.354152
0.341507
0.328988
0.316767
0.304955
0.29362
0.282803
0.272523
0.262786
0.253583
0.244897
0.236703
0.228974
0.221676
0.214772
0.208221
0.201979
0.196
0.190234
0.184636
0.17917
0.173812
0.168549
0.163375
0.158286
0.153277
0.14834
0.14345
0.138568
0.133659
0.128728
0.123926
0.119777
0.117463
0.118944
0.126274
0.138905
0.151212
0.158375
0.169819
0.199468
0.247914
0.301473
0.345368
0.373498
0.387255
0.390523
0.386808
0.378846
0.368464
0.357227
0.345729
0.333941
0.321802
0.309735
0.298191
0.287099
0.276507
0.266337
0.256285
0.246071
0.235483
0.224366
0.212666
0.200553
0.18849
0.177156
0.167237
0.159223
0.153297
0.149335
0.146995
0.145837
0.145419
0.14536
0.145364
0.145288
0.145155
0.144633
0.143613
0.142383
0.141444
0.140658
0.139062
0.135958
0.131598
0.126756
0.12204
0.117576
0.113048
0.107897
0.10158
0.0938526
0.053661
0.131901
0.131412
0.130055
0.125786
0.120776
0.115302
0.108773
0.101867
0.0960209
0.0918199
0.0889004
0.0866968
0.0849
0.0832042
0.08151
0.0796607
0.0778124
0.0761927
0.0748611
0.0739298
0.074202
0.0771086
0.0850645
0.102769
0.139178
0.195462
0.254398
0.284618
0.26253
0.222855
0.193516
0.177601
0.1708
0.169448
0.171256
0.174829
0.179253
0.183863
0.188157
0.191801
0.194655
0.196771
0.198346
0.199651
0.20097
0.202545
0.204557
0.207112
0.210247
0.21392
0.218026
0.22239
0.226784
0.230941
0.234573
0.237361
0.238605
0.238281
0.23621
0.232269
0.226428
0.218782
0.209588
0.199307
0.18862
0.178411
0.169675
0.163374
0.160315
0.161093
0.166154
0.175872
0.190562
0.210364
0.234989
0.263391
0.293544
0.322604
0.347738
0.366749
0.378616
0.383472
0.382481
0.377556
0.370054
0.360862
0.350632
0.339831
0.328786
0.317725
0.306807
0.296143
0.285812
0.275866
0.266341
0.257255
0.248614
0.240414
0.232642
0.225277
0.218289
0.211646
0.205309
0.199235
0.193379
0.1877
0.18216
0.176733
0.171399
0.166146
0.160969
0.15586
0.15082
0.145838
0.140898
0.135985
0.131112
0.126431
0.122496
0.120591
0.122755
0.130734
0.142967
0.153222
0.15863
0.17001
0.199725
0.246374
0.296674
0.337557
0.363719
0.376538
0.379664
0.37644
0.369236
0.359735
0.349077
0.337741
0.325706
0.312941
0.299619
0.286078
0.272623
0.259515
0.246902
0.234844
0.223388
0.212519
0.202084
0.191849
0.181713
0.171884
0.162875
0.155306
0.149655
0.146101
0.144493
0.144422
0.145351
0.146718
0.148003
0.148746
0.148594
0.147444
0.145703
0.143425
0.140703
0.137761
0.134877
0.131994
0.128876
0.125524
0.122153
0.118953
0.115926
0.112835
0.109229
0.104567
0.0984296
0.0595494
0.124563
0.135965
0.133402
0.126955
0.120763
0.114263
0.106873
0.0999898
0.0951889
0.092375
0.0905783
0.0890353
0.0877711
0.0866665
0.0843936
0.0811984
0.078394
0.0769097
0.0768947
0.0780804
0.0805575
0.0857858
0.0981562
0.12371
0.165119
0.213897
0.246191
0.240866
0.212198
0.185014
0.168578
0.161449
0.160238
0.162488
0.166692
0.171914
0.177521
0.183067
0.188275
0.193046
0.197429
0.201561
0.205604
0.209714
0.214029
0.218673
0.22374
0.229285
0.235303
0.241719
0.248389
0.255101
0.261591
0.267559
0.272687
0.276217
0.278274
0.27859
0.276899
0.272981
0.266668
0.257849
0.2465
0.232751
0.217035
0.200241
0.183769
0.169329
0.158494
0.152287
0.151101
0.155022
0.164155
0.17876
0.199055
0.224735
0.254367
0.28509
0.313529
0.33694
0.353399
0.362714
0.366082
0.365134
0.361024
0.354684
0.346827
0.337982
0.328533
0.318755
0.308847
0.298958
0.2892
0.279654
0.270386
0.261439
0.252844
0.244618
0.236767
0.229285
0.222157
0.215362
0.208868
0.202642
0.196645
0.19084
0.185191
0.179669
0.17425
0.168916
0.163655
0.158464
0.153345
0.148298
0.143323
0.138421
0.13362
0.129084
0.125386
0.123809
0.126313
0.134314
0.14573
0.154448
0.158865
0.169415
0.196734
0.239154
0.285111
0.323247
0.34866
0.362166
0.366756
0.365316
0.359938
0.352135
0.342705
0.331931
0.319881
0.306518
0.291978
0.276658
0.261077
0.245748
0.231133
0.217656
0.205658
0.195223
0.186074
0.1777
0.169686
0.162003
0.155059
0.149486
0.145829
0.144318
0.144795
0.146788
0.149649
0.152706
0.155347
0.157048
0.15737
0.155963
0.153046
0.149146
0.144591
0.139722
0.135
0.130859
0.127434
0.124609
0.1222
0.12005
0.117996
0.115797
0.113063
0.109283
0.103978
0.0652564
0.131817
0.142935
0.136252
0.12774
0.120509
0.113445
0.10615
0.100271
0.0969553
0.0952589
0.0936768
0.0914121
0.0888749
0.0864085
0.0837415
0.0813496
0.0799535
0.0801892
0.0817821
0.0842918
0.0886204
0.0978937
0.116263
0.145804
0.182388
0.211154
0.215669
0.199072
0.177424
0.161845
0.154443
0.153125
0.155564
0.160222
0.166165
0.172789
0.179679
0.18656
0.193289
0.199812
0.206116
0.212213
0.218154
0.224047
0.230047
0.236322
0.243005
0.250163
0.257782
0.265764
0.273934
0.282056
0.289843
0.296967
0.303079
0.307622
0.310634
0.311788
0.310796
0.307455
0.301656
0.29334
0.282409
0.26867
0.251923
0.232299
0.210739
0.189257
0.170527
0.156837
0.149162
0.147441
0.151294
0.160686
0.176023
0.197639
0.224903
0.255341
0.284971
0.311197
0.330546
0.343506
0.350782
0.353389
0.352384
0.3487
0.343091
0.336129
0.328241
0.319741
0.310866
0.301791
0.292656
0.283567
0.274611
0.265855
0.257349
0.249129
0.24122
0.233633
0.226367
0.219413
0.212752
0.20636
0.200207
0.194261
0.18849
0.182864
0.177357
0.171947
0.166617
0.161362
0.156185
0.151091
0.146091
0.141197
0.13645
0.132035
0.12852
0.127133
0.129674
0.137292
0.147773
0.155421
0.159117
0.168019
0.19134
0.228136
0.269121
0.304644
0.329954
0.345023
0.351943
0.353029
0.350086
0.344379
0.33646
0.326434
0.314415
0.300445
0.284746
0.267839
0.250445
0.233355
0.217379
0.203291
0.191629
0.182433
0.175164
0.168955
0.163067
0.157288
0.152016
0.147999
0.145929
0.14612
0.148384
0.15212
0.156527
0.160824
0.164382
0.166736
0.167532
0.166459
0.163225
0.158329
0.152275
0.145669
0.13922
0.133628
0.129301
0.126207
0.124035
0.122408
0.120989
0.119439
0.117337
0.114154
0.109374
0.0708595
0.141772
0.14894
0.138913
0.128546
0.120317
0.113119
0.106657
0.102147
0.099917
0.0984635
0.0962176
0.0928716
0.0891639
0.0861159
0.0841519
0.0830365
0.0830028
0.0842605
0.0867864
0.0911482
0.0991206
0.113121
0.134471
0.160687
0.183057
0.191238
0.183951
0.169367
0.156382
0.149196
0.147629
0.149975
0.154793
0.161183
0.168578
0.176577
0.184872
0.193219
0.201411
0.209268
0.216667
0.2236
0.230192
0.236666
0.243272
0.250226
0.257665
0.26564
0.274114
0.282974
0.292041
0.30107
0.309753
0.317718
0.324536
0.330059
0.334103
0.33621
0.335945
0.333004
0.327316
0.319048
0.308457
0.295586
0.280043
0.261166
0.238699
0.213796
0.189396
0.169256
0.155548
0.148654
0.147883
0.152741
0.163508
0.180872
0.204861
0.233943
0.263091
0.289685
0.31145
0.327478
0.337903
0.343463
0.345097
0.343709
0.34006
0.334751
0.328243
0.320885
0.31294
0.304613
0.296065
0.287422
0.278787
0.270243
0.261857
0.253679
0.245747
0.238086
0.23071
0.223621
0.216812
0.210269
0.203971
0.197893
0.192007
0.186287
0.180705
0.175236
0.169862
0.164571
0.159364
0.154249
0.149238
0.144355
0.139652
0.135322
0.131912
0.130561
0.132898
0.139902
0.149479
0.156422
0.159499
0.166246
0.184747
0.215195
0.250735
0.283415
0.308601
0.325385
0.334906
0.338824
0.338577
0.335126
0.328766
0.319511
0.307537
0.293009
0.276303
0.25811
0.239373
0.221188
0.204727
0.19104
0.180711
0.173559
0.168665
0.164757
0.160809
0.156522
0.152412
0.149467
0.148591
0.150152
0.153833
0.158802
0.164063
0.168781
0.172417
0.174692
0.175466
0.174605
0.171774
0.166923
0.160449
0.152995
0.14543
0.138669
0.13334
0.129575
0.127104
0.125494
0.124305
0.123103
0.1214
0.118613
0.114179
0.0766426
0.150186
0.154307
0.141898
0.129735
0.120459
0.113245
0.107608
0.103972
0.102185
0.100894
0.0987256
0.0954351
0.0918094
0.0888717
0.0869716
0.0863426
0.0870713
0.0893805
0.0936871
0.100849
0.112015
0.127682
0.146058
0.162134
0.170232
0.168585
0.160458
0.151269
0.145163
0.143473
0.145516
0.150175
0.156646
0.164423
0.173128
0.182422
0.191956
0.201372
0.210326
0.218574
0.226045
0.232862
0.239289
0.245632
0.252169
0.259097
0.26653
0.274499
0.28296
0.291801
0.300848
0.309867
0.318573
0.326644
0.333762
0.340178
0.34552
0.349217
0.350582
0.348954
0.343946
0.335691
0.324819
0.312028
0.297434
0.280289
0.259404
0.234529
0.207719
0.183667
0.165566
0.15456
0.150072
0.151365
0.158521
0.172323
0.192919
0.218795
0.246926
0.273945
0.297215
0.315351
0.328112
0.335974
0.339732
0.340222
0.338187
0.334241
0.328867
0.32244
0.315253
0.307534
0.299465
0.29119
0.282826
0.274468
0.266194
0.258064
0.250128
0.242418
0.23496
0.227765
0.220836
0.214169
0.20775
0.201561
0.195582
0.189787
0.18415
0.178649
0.173259
0.167965
0.162763
0.157657
0.152662
0.147805
0.143147
0.138876
0.135502
0.134058
0.136021
0.142302
0.151089
0.157633
0.160228
0.164683
0.178148
0.201988
0.231683
0.260971
0.285461
0.303519
0.315369
0.321973
0.324313
0.323039
0.31819
0.309717
0.297862
0.282939
0.265516
0.246495
0.227084
0.208717
0.192882
0.180763
0.172784
0.168377
0.166153
0.164446
0.162027
0.158652
0.155124
0.152788
0.152765
0.155361
0.159964
0.165431
0.170624
0.174775
0.17755
0.17893
0.179031
0.177941
0.175553
0.171429
0.165648
0.15862
0.151087
0.143989
0.138106
0.133763
0.130842
0.128977
0.127728
0.126616
0.125094
0.122527
0.118304
0.0813636
0.157521
0.16008
0.145478
0.131452
0.120966
0.113383
0.107979
0.104602
0.102916
0.101925
0.100499
0.0982022
0.0954751
0.0931267
0.0917143
0.091716
0.0934028
0.0970823
0.103139
0.111926
0.123289
0.135847
0.146863
0.153522
0.154656
0.151304
0.146064
0.141833
0.140436
0.142159
0.146437
0.152665
0.160436
0.169431
0.179309
0.189657
0.199991
0.209825
0.218777
0.226677
0.233599
0.239801
0.245622
0.25139
0.257377
0.263774
0.27069
0.278133
0.286001
0.294097
0.302175
0.309994
0.31735
0.324145
0.330702
0.337184
0.34331
0.348564
0.352147
0.353013
0.350163
0.343192
0.332637
0.31971
0.305313
0.289323
0.270399
0.247274
0.220578
0.195422
0.175334
0.16187
0.154818
0.153383
0.157641
0.168477
0.186308
0.210011
0.236909
0.263715
0.287646
0.307047
0.321392
0.330932
0.336307
0.338265
0.337511
0.334647
0.330167
0.324467
0.31786
0.310598
0.302881
0.294871
0.286698
0.278468
0.270268
0.262167
0.254219
0.246467
0.23894
0.231659
0.224634
0.217867
0.211352
0.205078
0.199027
0.19318
0.187513
0.182003
0.176626
0.171362
0.1662
0.161139
0.156192
0.151387
0.146787
0.142569
0.139185
0.13756
0.13904
0.144557
0.152695
0.159147
0.16153
0.163912
0.172579
0.189911
0.213463
0.238635
0.261494
0.279933
0.293391
0.302136
0.306657
0.307269
0.303766
0.296063
0.284456
0.269419
0.251729
0.232545
0.213386
0.196012
0.182108
0.172769
0.168046
0.166851
0.167302
0.167403
0.165865
0.162696
0.159172
0.157073
0.157634
0.16088
0.165768
0.170879
0.175085
0.177827
0.17904
0.178957
0.177904
0.176158
0.173812
0.170531
0.166012
0.160374
0.154036
0.147705
0.142111
0.137698
0.134533
0.132412
0.130989
0.129816
0.128329
0.125858
0.121756
0.0844784
0.164131
0.165981
0.149766
0.134071
0.122246
0.113856
0.108051
0.10435
0.102329
0.10133
0.10058
0.099588
0.0984058
0.0973922
0.0972081
0.098344
0.101133
0.105763
0.112206
0.120048
0.128327
0.135673
0.140823
0.143153
0.142864
0.14093
0.1389
0.13829
0.139901
0.143751
0.149549
0.157035
0.165991
0.176127
0.187016
0.198102
0.208774
0.218503
0.226975
0.234154
0.24024
0.24557
0.25052
0.255443
0.260638
0.266319
0.272572
0.279295
0.286212
0.292955
0.299207
0.304785
0.309756
0.314487
0.319669
0.325296
0.331198
0.337023
0.34213
0.345405
0.345362
0.3409
0.331975
0.31978
0.30565
0.29018
0.272625
0.251491
0.227362
0.203151
0.182537
0.167846
0.159272
0.156194
0.158734
0.167799
0.183888
0.206051
0.23183
0.258092
0.282084
0.302054
0.317314
0.32795
0.334464
0.337507
0.337727
0.335701
0.331917
0.326777
0.320611
0.313685
0.306218
0.298385
0.290331
0.282171
0.274002
0.265898
0.257921
0.250118
0.242525
0.235168
0.22806
0.221211
0.214619
0.208278
0.202177
0.196298
0.190621
0.185125
0.179786
0.17458
0.169489
0.164508
0.159644
0.154922
0.150404
0.146247
0.14284
0.140989
0.141922
0.146649
0.154252
0.160914
0.163529
0.164388
0.168864
0.180099
0.197394
0.217731
0.237858
0.255496
0.269505
0.279531
0.285561
0.287567
0.285124
0.278137
0.26695
0.25219
0.234871
0.216444
0.198742
0.183758
0.173154
0.167687
0.16685
0.168974
0.171728
0.172922
0.171412
0.167706
0.16372
0.16163
0.162547
0.165989
0.17046
0.174442
0.176996
0.177848
0.177187
0.175427
0.173029
0.170392
0.167751
0.16502
0.161737
0.157811
0.153335
0.148653
0.144237
0.14047
0.137521
0.135363
0.133815
0.13254
0.131015
0.128573
0.12455
0.0859306
0.169127
0.171492
0.154709
0.137945
0.124967
0.115619
0.109092
0.104791
0.102247
0.100989
0.100527
0.100485
0.100724
0.101226
0.10238
0.104517
0.107794
0.112144
0.11725
0.122588
0.127544
0.131598
0.134429
0.135953
0.136393
0.13638
0.136856
0.138664
0.142217
0.147563
0.154643
0.16337
0.173555
0.184823
0.196599
0.208186
0.218908
0.228272
0.236071
0.242382
0.247487
0.251771
0.255659
0.259554
0.263788
0.268604
0.274029
0.27979
0.285429
0.290459
0.294516
0.297468
0.29986
0.302635
0.306363
0.310806
0.315761
0.321027
0.326232
0.330551
0.332363
0.33024
0.323559
0.313107
0.300338
0.286026
0.269622
0.250124
0.227803
0.205084
0.185394
0.171004
0.162224
0.158651
0.160603
0.16903
0.184374
0.205676
0.230586
0.256156
0.279775
0.299747
0.315338
0.326538
0.333741
0.33751
0.338425
0.337022
0.333769
0.329062
0.323235
0.316564
0.309279
0.301567
0.293584
0.285456
0.277287
0.269159
0.261138
0.253277
0.245617
0.238186
0.231005
0.224085
0.21743
0.211038
0.2049
0.199004
0.193334
0.187868
0.182584
0.177457
0.172464
0.167591
0.162842
0.158236
0.153829
0.149753
0.146333
0.144251
0.14461
0.148502
0.15558
0.162685
0.166114
0.166321
0.167553
0.173409
0.184603
0.199561
0.215879
0.231416
0.244707
0.25491
0.261561
0.264295
0.262526
0.256181
0.245653
0.231723
0.215646
0.19916
0.18434
0.173207
0.167131
0.166295
0.169527
0.174598
0.178855
0.180125
0.177687
0.172798
0.168089
0.16593
0.166981
0.170125
0.17357
0.175915
0.176518
0.175374
0.172851
0.169469
0.165759
0.162182
0.159068
0.156537
0.15417
0.151786
0.149264
0.146623
0.143994
0.141526
0.139336
0.137496
0.135998
0.134667
0.133092
0.130655
0.126705
0.0853708
0.171295
0.17564
0.159779
0.143007
0.12948
0.119416
0.112197
0.107284
0.104237
0.102669
0.102217
0.102567
0.103452
0.104713
0.106459
0.10877
0.111638
0.114944
0.118488
0.122054
0.125444
0.128488
0.131034
0.133013
0.13458
0.136195
0.138492
0.14201
0.147057
0.153785
0.162265
0.172444
0.184055
0.196569
0.209239
0.221269