/*--------------------------------*- C++ -*----------------------------------*\
  =========                 |
  \\      /  F ield         | OpenFOAM: The Open Source CFD Toolbox
   \\    /   O peration     | Website:  https://openfoam.org
    \\  /    A nd           | Version:  9
     \\/     M anipulation  |
\*---------------------------------------------------------------------------*/
FoamFile
{
    format      ascii;
    class       volScalarField;
    location    "0.06";
    object      kU;
}
// * * * * * * * * * * * * * * * * * * * * * * * * * * * * * * * * * * * * * //

dimensions      [0 2 -2 0 0 0 0];

internalField   nonuniform List<scalar> 
12225
(
0.0849314
0.064088
0.0496787
0.0399354
0.0336817
0.0301093
0.0286378
0.0288274
0.0303335
0.0328843
0.036269
0.0403288
0.0449483
0.0500427
0.0555363
0.0613238
0.0672466
0.0747229
0.104765
0.0974309
0.0932569
0.0929116
0.0965153
0.103966
0.114973
0.129079
0.145731
0.164369
0.184496
0.2057
0.227649
0.250034
0.272483
0.29445
0.315182
0.333864
0.108586
0.104435
0.10081
0.0979175
0.0959285
0.0949352
0.0949699
0.0960285
0.0980878
0.10113
0.10517
0.110268
0.116533
0.124102
0.133107
0.143633
0.155681
0.169292
0.109681
0.10651
0.103434
0.100598
0.0981005
0.0959986
0.0943016
0.0929862
0.09201
0.0913255
0.0908953
0.0907057
0.0907771
0.0911701
0.0919857
0.0933521
0.0954204
0.0983055
0.110096
0.107474
0.104865
0.102344
0.0999631
0.0977599
0.0957494
0.0939293
0.0922841
0.0907908
0.0894238
0.0881606
0.0869859
0.0858943
0.0848925
0.0839971
0.08324
0.0826494
0.110256
0.10792
0.105619
0.103379
0.101221
0.0991645
0.0972209
0.0953929
0.0936767
0.0920628
0.090538
0.0890873
0.0876954
0.0863479
0.0850325
0.0837408
0.0824698
0.0812287
0.110315
0.108112
0.105989
0.10394
0.101968
0.100076
0.0982681
0.0965456
0.094907
0.0933484
0.0918636
0.0904445
0.089082
0.0877656
0.0864844
0.0852271
0.0839838
0.0827558
0.110335
0.108188
0.106153
0.104216
0.102368
0.100602
0.0989149
0.0973047
0.0957683
0.0943023
0.0929025
0.0915639
0.0902807
0.0890464
0.0878534
0.0866938
0.0855603
0.0844571
0.110341
0.108215
0.10622
0.104339
0.10256
0.100873
0.0992712
0.0977478
0.0962978
0.0949168
0.0936005
0.0923445
0.091144
0.0899942
0.0888895
0.0878242
0.0867931
0.0858031
0.110342
0.108224
0.106243
0.104387
0.102642
0.100998
0.0994463
0.0979781
0.0965876
0.095269
0.0940173
0.0928279
0.0916963
0.0906179
0.0895881
0.0886021
0.0876562
0.0867577
0.110342
0.108226
0.106251
0.104404
0.102674
0.10105
0.0995231
0.0980852
0.0967293
0.0954494
0.0942399
0.0930961
0.0920131
0.0909868
0.0900126
0.0890864
0.0882052
0.087376
0.110342
0.108226
0.106253
0.104409
0.102684
0.101068
0.0995515
0.0981269
0.0967873
0.0955264
0.0943388
0.0932195
0.0921638
0.0911676
0.0902265
0.0893369
0.0884958
0.0877099
0.110342
0.108226
0.106253
0.104411
0.102688
0.101075
0.0995635
0.0981455
0.0968141
0.0955633
0.0943878
0.0932826
0.0922431
0.0912652
0.090345
0.0894789
0.0886644
0.0879075
0.110342
0.108226
0.106253
0.104411
0.10269
0.101078
0.0995692
0.0981543
0.0968271
0.0955816
0.0944125
0.0933148
0.0922842
0.0913167
0.0904085
0.0895563
0.0887577
0.0880184
0.110342
0.108226
0.106253
0.104412
0.102691
0.10108
0.0995725
0.0981595
0.0968346
0.0955919
0.094426
0.0933321
0.0923059
0.0913434
0.0904409
0.0895953
0.0888044
0.0880735
0.110341
0.108225
0.106253
0.104412
0.102691
0.101082
0.0995755
0.0981641
0.096841
0.0956003
0.0944367
0.0933452
0.0923214
0.0913616
0.0904619
0.0896192
0.0888313
0.0881033
0.110341
0.108225
0.106253
0.104412
0.102692
0.101084
0.0995787
0.098169
0.096848
0.0956095
0.0944481
0.0933589
0.0923374
0.0913796
0.0904819
0.0896408
0.0888542
0.0881268
0.110341
0.108224
0.106252
0.104412
0.102693
0.101086
0.0995825
0.0981749
0.0968563
0.0956204
0.0944617
0.0933752
0.0923564
0.091401
0.0905053
0.0896658
0.0888802
0.088153
0.11034
0.108224
0.106251
0.104411
0.102694
0.101088
0.0995871
0.0981819
0.0968661
0.0956332
0.0944778
0.0933945
0.0923787
0.0914261
0.0905327
0.0896951
0.0889106
0.0881837
0.11034
0.108223
0.106251
0.104412
0.102695
0.101091
0.099592
0.0981892
0.0968759
0.0956457
0.094493
0.0934124
0.0923991
0.0914488
0.0905574
0.0897212
0.0889376
0.088211
0.11034
0.108223
0.106251
0.104412
0.102697
0.101095
0.0995971
0.0981961
0.0968847
0.0956566
0.0945058
0.0934269
0.0924152
0.0914662
0.0905757
0.08974
0.0889563
0.0882293
0.110339
0.108223
0.106251
0.104414
0.102699
0.101098
0.0996009
0.0982005
0.0968895
0.0956614
0.0945103
0.0934309
0.0924183
0.0914679
0.0905757
0.0897378
0.0889516
0.0882215
0.110339
0.108223
0.106251
0.104413
0.102697
0.101092
0.0995911
0.0981849
0.0968667
0.0956301
0.0944692
0.093379
0.0923547
0.091392
0.0904868
0.0896357
0.0888359
0.0880924
0.110339
0.108219
0.106242
0.104393
0.102661
0.101036
0.0995102
0.0980758
0.0967266
0.095457
0.094262
0.0931371
0.0920779
0.0910807
0.0901418
0.0892578
0.0884262
0.0876522
0.110333
0.108196
0.106185
0.104286
0.10249
0.10079
0.0991823
0.0976632
0.0962294
0.0948768
0.0936022
0.0924022
0.0912733
0.0902117
0.0892139
0.0882762
0.0873958
0.0865776
0.110301
0.10808
0.105942
0.103888
0.101922
0.100049
0.0982742
0.0965999
0.0950263
0.0935529
0.0921762
0.0908919
0.089694
0.0885773
0.0875366
0.0865663
0.0856618
0.0848251
0.110155
0.107649
0.105166
0.102756
0.10046
0.0983055
0.0963075
0.0944701
0.0927906
0.0912625
0.0898761
0.0886201
0.0874832
0.0864527
0.0855161
0.0846621
0.0838811
0.0831688
0.109592
0.106334
0.103142
0.100156
0.0974697
0.0951264
0.0931283
0.0914597
0.0900968
0.0890107
0.0881693
0.0875386
0.0870844
0.0867737
0.0865761
0.0864649
0.0864164
0.0864123
0.107274
0.101436
0.0964668
0.0927596
0.0903601
0.089192
0.0891357
0.0900484
0.0917765
0.0941647
0.0970626
0.100329
0.103835
0.107466
0.111125
0.114733
0.118232
0.121551
0.0944187
0.0792209
0.0673613
0.0580533
0.0507481
0.0450411
0.0406264
0.0372643
0.0347622
0.0329621
0.0317325
0.030963
0.0305603
0.0304456
0.0305521
0.0308237
0.0312144
0.0316844
0.0257113
0.0425689
0.0498025
0.0560952
0.0600893
0.0626612
0.0627755
0.0622037
0.0628529
0.0644211
0.0668905
0.0702898
0.074696
0.0802283
0.0870454
0.095298
0.10348
0.110538
0.115616
0.117553
0.114833
0.105591
0.0878952
0.0619701
0.0403964
0.024024
0.0205444
0.0219007
0.0238143
0.0259796
0.0284905
0.0298429
0.0292548
0.0275157
0.0256745
0.0245673
0.0248002
0.0265944
0.0299791
0.03552
0.0466169
0.0778292
0.136037
0.190749
0.242227
0.288116
0.327221
0.359102
0.383802
0.401673
0.413247
0.419151
0.420054
0.416632
0.409547
0.399427
0.386856
0.372352
0.35635
0.33996
0.323576
0.307281
0.291161
0.275297
0.259764
0.244619
0.229911
0.215678
0.201941
0.188714
0.175998
0.163782
0.152046
0.140768
0.129922
0.119488
0.109457
0.0998352
0.0906442
0.0819227
0.0737267
0.0661355
0.0592712
0.0533687
0.0489963
0.0479955
0.0463449
0.0454908
0.0455391
0.0455228
0.0458915
0.0468148
0.0461037
0.0452083
0.0450728
0.0471983
0.0491103
0.0508389
0.0514018
0.0461823
0.0417411
0.0379177
0.0345557
0.0315573
0.0289236
0.0266182
0.0246625
0.0231088
0.0220131
0.0214046
0.0212609
0.0214999
0.0219871
0.0225569
0.0230423
0.0233148
0.0233265
0.0231521
0.0230028
0.0230101
0.0231445
0.023317
0.0235379
0.024054
0.0253179
0.0279147
0.0326596
0.0404837
0.0524092
0.0821355
0.115865
0.142143
0.160416
0.171301
0.175945
0.175554
0.171242
0.163997
0.154663
0.144345
0.133544
0.122609
0.111829
0.101428
0.0915639
0.0823343
0.073809
0.066118
0.0598306
0.05875
0.0665036
0.0764614
0.0885328
0.103011
0.120072
0.139665
0.161465
0.18488
0.209677
0.235224
0.252886
0.251748
0.227439
0.181397
0.124586
0.0753298
0.0427428
0.0266764
0.0203772
0.0183511
0.0181093
0.0181252
0.0181708
0.0181364
0.0165841
0.0142753
0.0119271
0.00993326
0.00809559
0.00711978
0.0174112
0.0334717
0.0378261
0.0550047
0.0815607
0.0834886
0.0794638
0.0745819
0.0697367
0.0649768
0.0604152
0.0562257
0.0525458
0.0494489
0.046962
0.0451463
0.0450386
0.0467732
0.0501383
0.0546502
0.0595328
0.0637
0.0657734
0.0648081
0.0616593
0.0543639
0.0436942
0.0331772
0.0262935
0.0266074
0.0315347
0.0357762
0.0365685
0.0343134
0.0321204
0.0374535
0.0527152
0.0757618
0.0949124
0.103768
0.112336
0.122822
0.133539
0.141053
0.145352
0.146646
0.145461
0.142449
0.13827
0.133521
0.1287
0.124189
0.120263
0.117107
0.114845
0.11356
0.113315
0.114154
0.116161
0.118597
0.121141
0.123785
0.126522
0.129341
0.132228
0.135163
0.138116
0.141046
0.143895
0.146589
0.149029
0.151094
0.152644
0.15353
0.153604
0.152741
0.150859
0.147931
0.143996
0.139157
0.133565
0.127403
0.120869
0.114143
0.107359
0.100457
0.0941126
0.0888195
0.0841017
0.0797832
0.0758653
0.072404
0.068969
0.065528
0.0621602
0.0589014
0.0558047
0.0529832
0.0504877
0.0483721
0.0464773
0.044752
0.0432007
0.0417943
0.040505
0.0394789
0.0389319
0.0390087
0.0398151
0.0413803
0.0436384
0.0464335
0.0495295
0.0526123
0.0552831
0.0570636
0.0574452
0.0560052
0.0525611
0.0474187
0.0414273
0.0357081
0.0311985
0.0283113
0.0276367
0.0306894
0.0386796
0.0487486
0.0578593
0.066849
0.0739809
0.079026
0.0830538
0.0867144
0.0902188
0.0935589
0.0967149
0.0997736
0.103005
0.106122
0.109113
0.112067
0.115016
0.117925
0.120672
0.123027
0.124655
0.125089
0.12377
0.120795
0.116674
0.111395
0.105387
0.0990828
0.0928342
0.0868859
0.0813614
0.0762588
0.0715798
0.067568
0.0670844
0.0718911
0.0781099
0.0829974
0.0875511
0.0950987
0.103446
0.103733
0.0924015
0.0803483
0.0759817
0.0751556
0.0704869
0.0626479
0.0544536
0.0473025
0.0418477
0.0383919
0.0363375
0.0366021
0.0116714
0.0277737
0.0566954
0.100843
0.101323
0.085939
0.0712821
0.0605081
0.0528739
0.0473065
0.043083
0.0397829
0.0371609
0.0350617
0.0333774
0.0320371
0.0312122
0.0311565
0.0320366
0.0339777
0.0369142
0.0404879
0.0440569
0.0469644
0.0488988
0.048748
0.0456302
0.0405006
0.0360223
0.0356049
0.0410237
0.0480437
0.0521441
0.0594168
0.072134
0.0827408
0.0884257
0.0914842
0.092774
0.0934125
0.0945634
0.0959712
0.096843
0.0967337
0.0959073
0.094725
0.0935448
0.0926275
0.0921065
0.0920059
0.092285
0.0928828
0.0937481
0.0948501
0.0961728
0.0977031
0.0994214
0.1013
0.103389
0.10568
0.108171
0.110868
0.113778
0.11691
0.120272
0.123867
0.12769
0.131722
0.135922
0.140222
0.14452
0.148674
0.1525
0.155783
0.158291
0.1598
0.160126
0.159154
0.156859
0.153311
0.148665
0.143132
0.136951
0.130354
0.123511
0.116524
0.10982
0.10401
0.0986132
0.0935875
0.0889148
0.0845708
0.0805009
0.0766721
0.0730672
0.0696649
0.0664651
0.0634767
0.0606987
0.0581243
0.0557526
0.053572
0.0515684
0.0497176
0.0480068
0.0464366
0.044999
0.0437654
0.0428076
0.0421393
0.0417523
0.0416177
0.0416917
0.0419204
0.0422354
0.0425318
0.0426344
0.0422754
0.0411374
0.0390139
0.036068
0.0329087
0.0303857
0.0295176
0.0318713
0.0382445
0.0466647
0.0534837
0.0597113
0.0682476
0.0781889
0.0884854
0.0976503
0.104603
0.109263
0.112194
0.114051
0.115297
0.116175
0.116978
0.117859
0.118895
0.120125
0.121519
0.122957
0.124211
0.124946
0.124699
0.12299
0.119982
0.115649
0.110203
0.104046
0.0976061
0.0912597
0.0852789
0.079827
0.0749872
0.0708247
0.0673293
0.0642302
0.0613539
0.0592034
0.0583377
0.0593226
0.0635468
0.0727008
0.0870721
0.102431
0.113009
0.117626
0.116162
0.107038
0.0905442
0.0729844
0.0576654
0.045246
0.0357051
0.0286154
0.0238544
0.0122403
0.0647258
0.121242
0.110148
0.0857543
0.0664771
0.0539654
0.0461133
0.0409985
0.037443
0.0348047
0.0327433
0.0310747
0.0296926
0.0285325
0.027557
0.0268087
0.0263747
0.0263434
0.0268758
0.0281315
0.0301317
0.0326705
0.0354328
0.0382015
0.0405072
0.0417609
0.0424128
0.0444665
0.0499707
0.0610469
0.0776891
0.0894977
0.0855029
0.0827067
0.0813632
0.0797926
0.0783434
0.0773385
0.0769254
0.0770304
0.0773526
0.0776517
0.0779017
0.0782001
0.0785979
0.0790783
0.0795788
0.0800355
0.0804183
0.0807417
0.0810509
0.0813982
0.081824
0.0823512
0.0829892
0.0837427
0.0846193
0.0856732
0.0868905
0.0882893
0.089896
0.0917456
0.0938807
0.0963493
0.0992006
0.102481
0.106225
0.110448
0.115137
0.120231
0.125616
0.131111
0.136471
0.141391
0.145541
0.148601
0.150312
0.15052
0.149203
0.146466
0.142512
0.137602
0.132009
0.125942
0.119552
0.113571
0.108103
0.102936
0.0980742
0.0935157
0.0892457
0.0852431
0.0814905
0.0779755
0.0746837
0.0715997
0.0687099
0.0660043
0.0634731
0.0611078
0.0588991
0.0568346
0.0548997
0.0530779
0.0513518
0.0497106
0.0481551
0.0466856
0.0453349
0.0441231
0.0430443
0.0420805
0.0412042
0.0403791
0.0395586
0.0386817
0.0376746
0.0364635
0.0350075
0.0334004
0.0320253
0.0315981
0.03321
0.0376595
0.044008
0.0499818
0.055628
0.0641252
0.0764456
0.0900746
0.102099
0.110728
0.115911
0.118486
0.119306
0.118986
0.117947
0.116523
0.115121
0.113893
0.112923
0.112254
0.111875
0.111696
0.111522
0.111049
0.109812
0.107695
0.104552
0.10037
0.0953407
0.0898021
0.0841343
0.0786733
0.0736613
0.0692388
0.0654707
0.062379
0.0599641
0.058197
0.0568848
0.0556092
0.0540715
0.0527074
0.0524729
0.0550301
0.0622134
0.0739223
0.0865821
0.0954946
0.0983126
0.0955483
0.0886197
0.078002
0.0653847
0.0530177
0.0420815
0.0329756
0.0258224
0.0167968
0.111214
0.100683
0.0750634
0.0571735
0.0468144
0.0408924
0.0372577
0.0347578
0.0328272
0.0312123
0.0298123
0.0285835
0.0274957
0.0265236
0.025654
0.0248976
0.0243068
0.0239279
0.0238542
0.0242348
0.025216
0.0268254
0.0289951
0.0317697
0.0352967
0.0398761
0.0469432
0.0592548
0.0774954
0.099304
0.100261
0.0864723
0.0777483
0.0726542
0.0695593
0.067616
0.0666029
0.0663513
0.0666667
0.0673325
0.0681506
0.0689914
0.0697803
0.0704501
0.0709302
0.0711753
0.071186
0.0710078
0.070712
0.0703722
0.070048
0.0697807
0.0695953
0.0695057
0.0695194
0.0696416
0.0698881
0.070218
0.070604
0.0710582
0.0716097
0.0723055
0.0732106
0.0744064
0.0759873
0.0780554
0.080713
0.0840523
0.0881419
0.0930097
0.0986227
0.104866
0.111525
0.118281
0.124728
0.13041
0.134892
0.137833
0.13905
0.138543
0.136473
0.133109
0.128762
0.123701
0.118234
0.113114
0.108181
0.103443
0.0989309
0.0946624
0.0906393
0.0868557
0.0833032
0.0799718
0.0768488
0.0739201
0.0711719
0.0685924
0.0661696
0.0638922
0.0617492
0.0597293
0.0578206
0.0560082
0.0542749
0.0526049
0.0509883
0.0494215
0.0479052
0.0464415
0.0450434
0.0437073
0.0424201
0.0411608
0.0399036
0.03862
0.0372911
0.035934
0.0346317
0.0335781
0.0331773
0.0341088
0.0370639
0.0418536
0.0465602
0.0507744
0.0575734
0.0691214
0.0841316
0.0986528
0.109661
0.116402
0.11965
0.120418
0.119504
0.1175
0.114895
0.112073
0.109329
0.106782
0.104505
0.102529
0.100854
0.0994351
0.0980943
0.0965748
0.0946502
0.0920967
0.0888005
0.084767
0.0801551
0.075243
0.0703527
0.0657725
0.0617059
0.0582574
0.0554486
0.0532493
0.0516167
0.0505223
0.0499189
0.0497122
0.0495011
0.0489574
0.0483176
0.0483172
0.0500938
0.0543363
0.0599344
0.0643431
0.065712
0.0639715
0.0601613
0.0556093
0.0507571
0.0453354
0.0394807
0.0335394
0.0279625
0.0144214
0.083571
0.0644866
0.0495757
0.0420914
0.0382354
0.0358971
0.0341333
0.0325336
0.0309889
0.0295423
0.0282558
0.0271412
0.026167
0.0252914
0.024493
0.0237969
0.0232423
0.0228254
0.0225498
0.0224848
0.0228143
0.0237552
0.0254757
0.0283437
0.0332022
0.041853
0.0570353
0.0765894
0.0990395
0.100843
0.0854506
0.0731697
0.0660575
0.0621633
0.0602021
0.0594611
0.0595476
0.0601753
0.0611072
0.0621413
0.0631118
0.0638919
0.0643927
0.0645675
0.0644188
0.0639976
0.063387
0.0626823
0.061973
0.0613322
0.0608129
0.0604478
0.0602513
0.0602215
0.0603427
0.0605884
0.0609091
0.0611252
0.0612161
0.0611843
0.0610548
0.0608771
0.0607265
0.0607038
0.0609331
0.0615575
0.0627324
0.0646164
0.0673583
0.0710819
0.0758636
0.0817053
0.0885019
0.0960112
0.103841
0.111464
0.118288
0.123755
0.127462
0.129232
0.129126
0.127392
0.124359
0.120348
0.115996
0.111628
0.10726
0.102974
0.0988284
0.0948558
0.0910741
0.0874908
0.0841069
0.0809194
0.0779214
0.0751034
0.0724548
0.0699644
0.067621
0.0654133
0.0633294
0.0613569
0.0594823
0.0576903
0.0559649
0.0542917
0.0526606
0.051066
0.0495065
0.0479825
0.0464912
0.0450362
0.0436101
0.0421984
0.0407824
0.0393456
0.0378879
0.0364535
0.0351771
0.0343441
0.0344602
0.0361975
0.0398188
0.0441882
0.0473278
0.0508249
0.0588552
0.0727456
0.0891586
0.10315
0.112573
0.117598
0.119344
0.118824
0.116819
0.113911
0.110619
0.107252
0.103921
0.100696
0.0976647
0.0948535
0.0922477
0.0898112
0.0875884
0.085292
0.0827493
0.079826
0.0764481
0.0726228
0.0684641
0.0641849
0.0600468
0.0562928
0.0530916
0.0505158
0.0485511
0.0471255
0.0461451
0.0455236
0.045196
0.0451127
0.0452561
0.0453237
0.0451674
0.044941
0.0450589
0.0458725
0.0471298
0.047944
0.0475941
0.0460931
0.0439303
0.0415709
0.0391915
0.0367242
0.0340183
0.0309681
0.0276213
0.0144932
0.0534443
0.0442
0.0399396
0.0378243
0.0362813
0.0348431
0.0332601
0.0314985
0.0297634
0.0282738
0.0270879
0.0261385
0.025335
0.0245892
0.0238763
0.0233285
0.0229342
0.0226323
0.0223327
0.0220228
0.0219407
0.0225043
0.0241169
0.0275444
0.034807
0.0493637
0.06911
0.0894842
0.095373
0.0831366
0.0697628
0.0613945
0.0569888
0.0550074
0.0544802
0.0548291
0.0556929
0.0568118
0.0579794
0.0590291
0.0598376
0.0603349
0.060508
0.0603966
0.0600793
0.059654
0.0592182
0.0588545
0.0586223
0.0585566
0.0586692
0.0589519
0.05938
0.0599164
0.0605164
0.0611336
0.0615343
0.0616146
0.0613511
0.0607429
0.059816
0.0586278
0.05727
0.0558683
0.0545791
0.0535828
0.0530732
0.0532466
0.0542915
0.0563809
0.059662
0.0642391
0.0701406
0.0772722
0.0853645
0.0939393
0.102331
0.109794
0.115686
0.119593
0.121419
0.121328
0.119649
0.116873
0.113595
0.109999
0.106246
0.102452
0.0986965
0.0950302
0.0914865
0.0880859
0.0848408
0.081757
0.0788359
0.076075
0.0734691
0.071011
0.0686923
0.0665028
0.0644315
0.0624662
0.0605938
0.0588
0.0570701
0.0553907
0.053751
0.0521436
0.0505646
0.0490125
0.0474857
0.045983
0.0445021
0.0430349
0.0415703
0.0400978
0.0386185
0.0371778
0.0359332
0.0352389
0.0356833
0.0378823
0.0416714
0.0453636
0.0475126
0.0509458
0.0598404
0.0743743
0.0904419
0.103611
0.112049
0.116176
0.117157
0.116042
0.113654
0.110539
0.107168
0.103719
0.100182
0.0965406
0.0929206
0.0894573
0.0861297
0.0829521
0.0799011
0.0768856
0.0738212
0.0706448
0.0673099
0.0637999
0.0601659
0.0565471
0.0531469
0.0501712
0.047767
0.045989
0.0448004
0.0440986
0.043751
0.0436256
0.0436081
0.0436092
0.0435863
0.0435464
0.0433898
0.043084
0.0427148
0.0424332
0.0421975
0.0417186
0.0407873
0.0394793
0.0380269
0.036612
0.0352729
0.0339145
0.0323691
0.0304739
0.0281558
0.0160983
0.0395703
0.0394237
0.0390166
0.0377357
0.0362329
0.0345906
0.0326318
0.0305601
0.0288063
0.027546
0.0266701
0.026009
0.02547
0.0249613
0.024453
0.0238982
0.0233437
0.0228578
0.0224583
0.0221789
0.0222606
0.0231326
0.0255194
0.0308307
0.0417534
0.0586386
0.0763194
0.0853853
0.078759
0.0668564
0.0580547
0.0532804
0.0512399
0.0508343
0.0513768
0.0524486
0.0537759
0.055159
0.0564471
0.0575402
0.0583965
0.0590314
0.0595037
0.0598954
0.060291
0.0607635
0.061367
0.0621337
0.063074
0.0641761
0.0654078
0.0667169
0.0680352
0.0692823
0.0703718
0.0712084
0.0715815
0.0714844
0.070863
0.0696808
0.0679285
0.0656346
0.0628765
0.059792
0.056586
0.0535233
0.0509024
0.0490123
0.0480944
0.048328
0.0498462
0.0527617
0.0571687
0.0631092
0.0704966
0.0790173
0.0880632
0.0967812
0.104321
0.110025
0.113585
0.115042
0.114744
0.113267
0.111016
0.108259
0.10519
0.101949
0.0986358
0.0953175
0.0920421
0.088843
0.0857436
0.0827599
0.0799023
0.0771765
0.0745842
0.0721243
0.0697927
0.067583
0.0654868
0.0634939
0.0615927
0.0597704
0.0580137
0.0563099
0.0546481
0.05302
0.0514197
0.0498439
0.0482906
0.046758
0.0452461
0.0437513
0.0422693
0.0407955
0.0393337
0.0379292
0.0367488
0.0361772
0.0368266
0.0392203
0.0428901
0.0459667
0.0475889
0.0510031
0.0599176
0.0739123
0.0890022
0.101267
0.109116
0.112962
0.113899
0.112932
0.110771
0.107921
0.104723
0.101322
0.0977117
0.0938822
0.0898856
0.0858235
0.0817869
0.0778544
0.0740707
0.0704533
0.0670164
0.0637557
0.0606251
0.0575548
0.0545139
0.0515652
0.0488626
0.0465917
0.0448965
0.0438304
0.0433478
0.0433267
0.0436053
0.0440155
0.044401
0.0446239
0.0445781
0.0442332
0.0437109
0.0430275
0.042211
0.0413283
0.0404632
0.0395982
0.0386628
0.0376573
0.036646
0.0356859
0.0347778
0.0338504
0.0327687
0.03137
0.0295289
0.0178648
0.0373688
0.0407896
0.0400206
0.0380866
0.0362289
0.034279
0.0320618
0.0299969
0.0285567
0.0277125
0.0271735
0.0267106
0.0263313
0.0259999
0.0253181
0.0243595
0.0235182
0.0230729
0.0230684
0.0234241
0.0241672
0.0257357
0.0294469
0.0371131
0.0495358
0.0641691
0.0738573
0.0722597
0.0636595
0.0555042
0.0505733
0.0484348
0.0480715
0.0487464
0.0500075
0.0515741
0.0532564
0.0549201
0.0564825
0.0579138
0.0592287
0.0604682
0.0616812
0.0629142
0.0642088
0.0656018
0.067122
0.0687855
0.0705908
0.0725157
0.0745166
0.0765302
0.0784774
0.0802677
0.0818061
0.082865
0.0834823
0.083577
0.0830697
0.0818943
0.0800003
0.0773547
0.0739499
0.0698254
0.0651105
0.0600722
0.0551308
0.0507987
0.0475482
0.0456861
0.0453304
0.0465066
0.0492465
0.0536279
0.0597166
0.0674205
0.07631
0.085527
0.0940587
0.101082
0.10602
0.108814
0.109825
0.10954
0.108307
0.106405
0.104048
0.101395
0.0985599
0.0956264
0.0926541
0.0896875
0.0867599
0.0838963
0.0811157
0.0784316
0.0758531
0.0733853
0.07103
0.0687854
0.0666472
0.0646086
0.0626605
0.0607926
0.0589935
0.057252
0.0555574
0.0539008
0.052275
0.0506748
0.0490966
0.0475391
0.0460034
0.0444894
0.0429969
0.0415264
0.0400859
0.0387253
0.0376157
0.0371426
0.0378938
0.0402941
0.043719
0.0463343
0.0476595
0.0508245
0.0590201
0.0717462
0.0855332
0.0969742
0.104598
0.10865
0.110027
0.109595
0.107981
0.10564
0.102812
0.0995792
0.0959642
0.0919555
0.0875935
0.0829975
0.0783231
0.0737244
0.0693398
0.0652969
0.0616974
0.0585669
0.0558222
0.0533101
0.0509058
0.0486008
0.0465176
0.0448457
0.0437486
0.0432953
0.0434386
0.0440364
0.0448948
0.0458118
0.0466042
0.0471144
0.0472109
0.0467888
0.0459138
0.0447437
0.0433774
0.0419166
0.0404999
0.0392576
0.0382302
0.0373826
0.03666
0.0360149
0.0353989
0.0347392
0.033919
0.032785
0.0311935
0.0195769
0.0395452
0.0428806
0.0408756
0.0383219
0.0361527
0.0340334
0.0318451
0.0300813
0.0290866
0.0285777
0.028103
0.0274236
0.0266625
0.0259226
0.0251224
0.0244049
0.023986
0.0240568
0.0245346
0.0252875
0.0265861
0.0293681
0.034879
0.0437413
0.0547163
0.0633461
0.0647006
0.0597215
0.0532272
0.0485535
0.0463328
0.0459374
0.0466692
0.0480666
0.0498494
0.0518368
0.0539036
0.055968
0.0579868
0.0599436
0.0618348
0.0636639
0.0654462
0.0672141
0.0690142
0.0708967
0.0729015
0.075049
0.0773347
0.0797292
0.0821803
0.0846169
0.0869528
0.08909
0.0909237
0.0922867
0.0931903
0.0935365
0.0932389
0.0922366
0.0904969
0.0880019
0.0847227
0.080601
0.0755768
0.0696897
0.0632217
0.0567771
0.051158
0.0470512
0.0447487
0.0442323
0.0453881
0.0482058
0.0528069
0.0592916
0.067471
0.0766024
0.0854913
0.093359
0.0991639
0.103052
0.105235
0.106017
0.105715
0.10461
0.102927
0.100839
0.0984722
0.0959224
0.0932597
0.0905374
0.0877967
0.0850702
0.0823834
0.0797564
0.0772046
0.0747388
0.0723661
0.0700899
0.0679101
0.0658238
0.0638255
0.0619079
0.060062
0.0582782
0.0565469
0.0548592
0.0532071
0.0515841
0.0499852
0.0484085
0.0468554
0.0453274
0.0438273
0.042359
0.0409351
0.0396105
0.038556
0.0381398
0.0389021
0.0411876
0.0443318
0.0466264
0.047735
0.0504058
0.0574019
0.0684408
0.0807362
0.0913931
0.0989862
0.103507
0.105583
0.105909
0.105026
0.103314
0.100938
0.0979301
0.0943246
0.0901335
0.0854237
0.0803516
0.0751336
0.0700066
0.0652138
0.0609874
0.0574888
0.0547298
0.0525492
0.0506865
0.0489201
0.0471864
0.0456048
0.0443997
0.0437788
0.043836
0.0445151
0.0456359
0.0469581
0.0482472
0.0493146
0.0500208
0.0502597
0.0499378
0.0489674
0.0474988
0.0456824
0.0437007
0.0417659
0.0400885
0.0387903
0.0378622
0.0372105
0.0367225
0.0362968
0.0358318
0.0352011
0.0342463
0.0328123
0.0212578
0.0425317
0.0446821
0.0416739
0.0385638
0.0360951
0.0339356
0.031997
0.030644
0.0299751
0.029539
0.0288653
0.0278615
0.0267492
0.0258348
0.0252456
0.0249109
0.0249008
0.0252781
0.0260359
0.0273445
0.0297362
0.0339362
0.0403414
0.0482062
0.054917
0.0573714
0.0551854
0.0508102
0.0469146
0.0447588
0.0442886
0.0449925
0.0464379
0.0483549
0.0505735
0.0529731
0.0554615
0.0579657
0.0604233
0.0627803
0.065
0.0670801
0.0690577
0.0709997
0.0729816
0.0750677
0.0772996
0.0796921
0.0822342
0.0848922
0.0876122
0.0903211
0.092926
0.0953153
0.0973609
0.0990178
0.100231
0.100863
0.100783
0.0999013
0.0981949
0.0957145
0.0925371
0.0886757
0.084013
0.0783497
0.0716098
0.0641388
0.0568189
0.0507768
0.0466644
0.0445962
0.044365
0.0458224
0.0490525
0.0542616
0.0614584
0.070183
0.0789272
0.0869056
0.0934351
0.0982433
0.101371
0.103039
0.103529
0.103113
0.102018
0.100425
0.098473
0.0962654
0.093882
0.091384
0.0888194
0.0862265
0.0836361
0.0810729
0.078557
0.0761036
0.0737241
0.0714258
0.0692129
0.0670862
0.0650435
0.0630806
0.0611912
0.0593678
0.0576022
0.0558861
0.0542114
0.0525709
0.0509586
0.0493712
0.0478093
0.0462746
0.0447715
0.0433064
0.0418956
0.0405966
0.0395736
0.0391684
0.0398695
0.0419707
0.0448438
0.0469266
0.0478496
0.0498737
0.0554241
0.0645585
0.0752205
0.0850245
0.0925802
0.0976156
0.100472
0.101647
0.101573
0.100538
0.0986297
0.0958533
0.0922612
0.0879028
0.082891
0.077433
0.0718119
0.0663565
0.0614181
0.057312
0.0542133
0.0520677
0.0505994
0.049427
0.0482427
0.0469565
0.0457237
0.0448402
0.0445773
0.0450457
0.04615
0.0476405
0.0492188
0.0506343
0.051725
0.0524075
0.0526399
0.0523815
0.0515322
0.050077
0.0481348
0.0458985
0.043629
0.0416008
0.040002
0.0388724
0.0381312
0.0376481
0.0372914
0.036931
0.03642
0.035584
0.0342538
0.0229928
0.0450558
0.0462922
0.0425695
0.0389204
0.0361378
0.0339734
0.0322824
0.0311915
0.0306556
0.0302681
0.0296177
0.0286305
0.0275428
0.0266615
0.0260915
0.0259028
0.0261214
0.0268142
0.0281061
0.0302548
0.0336045
0.0383047
0.0438173
0.0486403
0.0510696
0.0505755
0.0481375
0.0453807
0.0435488
0.0430418
0.0436547
0.0450525
0.0469939
0.0493268
0.0519385
0.0547265
0.0575868
0.0604115
0.0630979
0.0655723
0.0678135
0.0698587
0.0717866
0.0736897
0.0756506
0.0777291
0.0799589
0.0823496
0.0848879
0.0875404
0.0902543
0.0929601
0.095572
0.0979931
0.100128
0.102053
0.103656
0.104765
0.105175
0.104686
0.103184
0.100707
0.0974457
0.0936085
0.0892301
0.0840868
0.0778212
0.0703586
0.0623156
0.0551002
0.0496699
0.046368
0.0450215
0.0454094
0.0475562
0.051697
0.0578758
0.0656385
0.0740778
0.0821836
0.0891644
0.0946054
0.0984335
0.100792
0.10192
0.102066
0.101456
0.100272
0.09866
0.096732
0.0945759
0.0922603
0.0898395
0.0873569
0.0848477
0.0823404
0.0798582
0.0774193
0.0750383
0.0727255
0.0704879
0.0683294
0.0662508
0.0642506
0.0623249
0.0604684
0.0586745
0.056936
0.0552451
0.0535946
0.0519776
0.0503894
0.0488289
0.0472971
0.0457987
0.0443414
0.042944
0.0416629
0.0406505
0.0402174
0.0408063
0.0426907
0.0453266
0.04729
0.0480685
0.0494049
0.0534443
0.0605965
0.069505
0.0782914
0.0856384
0.0910558
0.0946107
0.0965918
0.097294
0.0969116
0.0954571
0.0929152
0.0893585
0.0848818
0.0796549
0.0739485
0.0681252
0.062615
0.0578646
0.0542289
0.0518352
0.050513
0.0498459
0.0493339
0.0486082
0.0475956
0.0465371
0.0458363
0.0458295
0.0466082
0.0479892
0.0496292
0.0511872
0.0524324
0.0532649
0.053679
0.0537092
0.0533823
0.0526658
0.0514288
0.0496944
0.0475859
0.045326
0.0431968
0.0414317
0.0401289
0.0392525
0.0386932
0.0383184
0.0379848
0.0375282
0.036758
0.0354911
0.0244091
0.0472564
0.0480241
0.0436434
0.0394356
0.0362897
0.0340149
0.0323936
0.0313805
0.0308748
0.0305776
0.0301496
0.0294606
0.0286425
0.027938
0.0275143
0.0275148
0.0280208
0.0291247
0.0309418
0.0335777
0.0369867
0.040754
0.0440588
0.0460565
0.0463968
0.0453912
0.0438191
0.0425498
0.0421307
0.0426477
0.043931
0.0457995
0.0481307
0.0508292
0.0537927
0.056897
0.0599974
0.0629475
0.065633
0.0680031
0.0700797
0.0719403
0.0736865
0.0754171
0.077213
0.0791322
0.081207
0.0834399
0.0858002
0.088229
0.0906525
0.0929983
0.0952049
0.0972434
0.0992106
0.101155
0.102993
0.104569
0.105644
0.105904
0.105049
0.102958
0.0997911
0.095913
0.0915939
0.0867968
0.0811198
0.0741823
0.0661735
0.0586266
0.0526003
0.0485609
0.0464455
0.0460149
0.0472924
0.0505431
0.0558923
0.0630032
0.0710728
0.0791146
0.0862937
0.092114
0.0964175
0.0992795
0.100892
0.10148
0.101253
0.100394
0.0990502
0.0973401
0.0953581
0.0931794
0.0908644
0.0884613
0.0860094
0.0835405
0.0810805
0.0786501
0.0762657
0.07394
0.071682
0.0694977
0.0673903
0.0653601
0.0634057
0.0615233
0.0597081
0.0579539
0.0562539
0.0546008
0.0529878
0.0514087
0.0498601
0.0483418
0.0468577
0.0454162
0.0440362
0.0427707
0.0417556
0.041268
0.041712
0.0433671
0.0458085
0.047744
0.0484591
0.0491735
0.0517737
0.0569732
0.0640388
0.0715904
0.0784483
0.0839798
0.0880172
0.0906409
0.0919972
0.0921807
0.0911299
0.0888189
0.0853369
0.0808256
0.0755186
0.0697634
0.0640158
0.0588037
0.0546323
0.0518306
0.0504138
0.0500553
0.0501906
0.050221
0.0497594
0.0488087
0.0477515
0.047122
0.0472901
0.0482641
0.0497304
0.0512636
0.0525256
0.053348
0.0537121
0.0536871
0.0533711
0.0528475
0.0521437
0.0511594
0.0498036
0.0481121
0.0462109
0.0443116
0.0426333
0.0413095
0.0403599
0.0397237
0.0392968
0.0389449
0.0384988
0.0377573
0.0365267
0.0253435
0.0492392
0.0497942
0.0449298
0.0402213
0.0366739
0.0341568
0.0324152
0.0313051
0.0306988
0.0303991
0.0301739
0.0298764
0.0295217
0.0292177
0.0291624
0.0295032
0.03034
0.031729
0.0336619
0.0360143
0.0384981
0.0407018
0.0422468
0.042946
0.0428591
0.0422789
0.0416699
0.041487
0.0419702
0.0431253
0.0448646
0.0471104
0.0497972
0.052838
0.0561048
0.0594305
0.0626321
0.0655508
0.0680926
0.0702463
0.072072
0.0736709
0.0751559
0.076633
0.0781915
0.0798958
0.0817715
0.0837886
0.0858637
0.0878865
0.0897622
0.0914356
0.0929267
0.0943461
0.0959006
0.0975889
0.0993594
0.101107
0.102639
0.103621
0.103609
0.10227
0.0995924
0.0959341
0.0916951
0.087054
0.0817876
0.0754474
0.0682086
0.0609453
0.0547611
0.0503537
0.0477816
0.0468582
0.0476203
0.0503398
0.0551664
0.0618153
0.0695489
0.0774277
0.0846252
0.0906161
0.0951943
0.098385
0.100339
0.101252
0.101318
0.10071
0.0995751
0.0980332
0.0961833
0.0941056
0.0918653
0.0895155
0.0870992
0.0846514
0.0822005
0.0797694
0.0773763
0.0750355
0.0727576
0.0705503
0.0684181
0.0663632
0.0643857
0.0624835
0.060653
0.0588893
0.0571863
0.0555374
0.0539357
0.052374
0.0508468
0.0493524
0.0478931
0.0464767
0.0451213
0.043874
0.042852
0.0422966
0.0425767
0.0439947
0.0462755
0.0482741
0.0490587
0.0493165
0.0506592
0.0540297
0.0592183
0.0653193
0.0713574
0.0766488
0.0808516
0.0838594
0.0856684
0.08627
0.0855371
0.0834411
0.0800849
0.075657
0.0704614
0.0649331
0.0596227
0.0551273