/*--------------------------------*- C++ -*----------------------------------*\
  =========                 |
  \\      /  F ield         | OpenFOAM: The Open Source CFD Toolbox
   \\    /   O peration     | Website:  https://openfoam.org
    \\  /    A nd           | Version:  9
     \\/     M anipulation  |
\*---------------------------------------------------------------------------*/
FoamFile
{
    format      ascii;
    class       surfaceScalarField;
    location    "0.01";
    object      phi;
}
// * * * * * * * * * * * * * * * * * * * * * * * * * * * * * * * * * * * * * //

dimensions      [0 3 -1 0 0 0 0];

internalField   nonuniform List<scalar> 
24170
(
3.1357e-06
5.27098e-08
3.04968e-06
8.6018e-08
2.97397e-06
7.57126e-08
2.90468e-06
6.92845e-08
2.83924e-06
6.54427e-08
2.78174e-06
5.75e-08
2.73268e-06
4.90581e-08
2.69107e-06
4.16068e-08
2.65557e-06
3.55071e-08
2.62493e-06
3.06367e-08
2.59815e-06
2.67799e-08
2.57438e-06
2.37693e-08
2.5529e-06
2.14817e-08
2.53304e-06
1.98547e-08
2.51419e-06
1.88517e-08
2.49533e-06
1.88644e-08
2.47545e-06
1.98783e-08
2.78939e-08
2.44756e-06
3.45237e-06
1.75923e-08
3.45492e-06
8.34655e-08
3.44864e-06
8.1988e-08
3.43735e-06
8.0578e-08
3.42315e-06
7.96445e-08
3.40567e-06
7.49787e-08
3.38599e-06
6.87353e-08
3.36495e-06
6.26515e-08
3.34334e-06
5.71188e-08
3.32177e-06
5.21993e-08
3.30065e-06
4.79067e-08
3.28016e-06
4.42563e-08
3.26039e-06
4.12555e-08
3.24128e-06
3.89556e-08
3.22278e-06
3.73601e-08
3.20458e-06
3.70609e-08
3.18677e-06
3.76893e-08
4.41455e-08
3.17052e-06
3.66448e-06
1.56281e-08
3.67773e-06
7.02206e-08
3.68493e-06
7.47839e-08
3.68921e-06
7.63012e-08
3.69091e-06
7.79379e-08
3.68971e-06
7.61828e-08
3.68615e-06
7.22942e-08
3.6808e-06
6.7997e-08
3.67409e-06
6.38344e-08
3.66634e-06
5.9947e-08
3.65782e-06
5.64259e-08
3.64872e-06
5.33606e-08
3.63915e-06
5.0827e-08
3.62916e-06
4.89372e-08
3.61874e-06
4.7787e-08
3.60793e-06
4.78692e-08
3.59649e-06
4.91286e-08
5.35585e-08
3.58708e-06
3.92455e-06
1.64687e-08
3.93575e-06
5.90173e-08
3.94236e-06
6.81701e-08
3.94771e-06
7.09535e-08
3.95206e-06
7.35898e-08
3.95488e-06
7.3359e-08
3.95632e-06
7.08547e-08
3.95666e-06
6.7661e-08
3.95606e-06
6.44313e-08
3.95467e-06
6.13444e-08
3.95258e-06
5.85144e-08
3.94988e-06
5.60603e-08
3.94661e-06
5.4092e-08
3.9428e-06
5.27462e-08
3.93842e-06
5.21671e-08
3.93358e-06
5.27122e-08
3.92822e-06
5.44911e-08
5.83134e-08
3.92346e-06
4.2078e-06
1.58004e-08
4.21598e-06
5.08337e-08
4.22153e-06
6.2615e-08
4.22635e-06
6.61334e-08
4.23098e-06
6.89646e-08
4.23484e-06
6.94966e-08
4.23782e-06
6.78753e-08
4.24004e-06
6.54387e-08
4.2416e-06
6.28714e-08
4.24257e-06
6.03777e-08
4.243e-06
5.80842e-08
4.24293e-06
5.61262e-08
4.24239e-06
5.46332e-08
4.24139e-06
5.37497e-08
4.23992e-06
5.36327e-08
4.23809e-06
5.45426e-08
4.23595e-06
5.6632e-08
6.0275e-08
4.23399e-06
4.51043e-06
1.44579e-08
4.51682e-06
4.44473e-08
4.52207e-06
5.73583e-08
4.52665e-06
6.15578e-08
4.53119e-06
6.4426e-08
4.53529e-06
6.53972e-08
4.53876e-06
6.44053e-08
4.54166e-06
6.25363e-08
4.54406e-06
6.04692e-08
4.546e-06
5.84346e-08
4.54752e-06
5.65695e-08
4.54863e-06
5.50173e-08
4.54934e-06
5.39156e-08
4.54969e-06
5.34066e-08
4.54968e-06
5.364e-08
4.54941e-06
5.4809e-08
4.549e-06
5.7047e-08
6.05455e-08
4.54873e-06
4.83409e-06
1.30893e-08
4.83953e-06
3.90102e-08
4.84474e-06
5.21431e-08
4.84926e-06
5.70372e-08
4.8537e-06
5.99862e-08
4.85785e-06
6.12505e-08
4.86151e-06
6.07419e-08
4.86472e-06
5.93278e-08
4.86753e-06
5.76606e-08
4.86997e-06
5.59969e-08
4.87205e-06
5.44829e-08
4.87381e-06
5.32641e-08
4.87524e-06
5.24787e-08
4.87639e-06
5.22599e-08
4.87729e-06
5.27402e-08
4.87804e-06
5.4062e-08
4.87876e-06
5.63213e-08
5.96304e-08
4.87968e-06
5.18087e-06
1.17995e-08
5.18565e-06
3.42293e-08
5.19075e-06
4.70458e-08
5.19527e-06
5.25193e-08
5.19967e-06
5.55839e-08
5.20386e-06
5.70581e-08
5.20766e-06
5.69409e-08
5.21108e-06
5.59145e-08
5.21415e-06
5.45861e-08
5.21691e-06
5.32333e-08
5.21939e-06
5.20115e-08
5.22159e-06
5.10639e-08
5.22354e-06
5.05242e-08
5.22529e-06
5.05133e-08
5.22689e-06
5.11418e-08
5.22844e-06
5.2512e-08
5.23007e-06
5.46831e-08
5.77268e-08
5.23198e-06
5.55258e-06
1.05601e-08
5.5568e-06
3.00085e-08
5.56168e-06
4.21661e-08
5.56619e-06
4.80039e-08
5.5706e-06
5.11774e-08
5.57486e-06
5.28007e-08
5.5788e-06
5.30021e-08
5.5824e-06
5.23136e-08
5.5857e-06
5.12804e-08
5.58874e-06
5.01926e-08
5.59154e-06
4.92127e-08
5.59413e-06
4.84795e-08
5.59653e-06
4.81177e-08
5.59881e-06
4.82339e-08
5.60104e-06
4.89163e-08
5.60331e-06
5.02347e-08
5.60578e-06
5.22167e-08
5.49084e-08
5.6086e-06
5.95097e-06
9.37005e-09
5.95471e-06
2.62673e-08
5.95933e-06
3.75449e-08
5.96382e-06
4.35099e-08
5.96824e-06
4.67557e-08
5.97257e-06
4.84754e-08
5.97665e-06
4.89233e-08
5.98044e-06
4.85212e-08
5.98398e-06
4.77419e-08
5.9873e-06
4.6876e-08
5.99042e-06
4.60902e-08
5.99338e-06
4.55155e-08
5.99623e-06
4.52652e-08
5.99904e-06
4.54298e-08
6.00188e-06
4.60767e-08
6.00486e-06
4.72492e-08
6.00813e-06
4.89496e-08
5.12061e-08
6.01183e-06
6.37794e-06
8.24377e-09
6.38128e-06
2.29241e-08
6.38564e-06
3.31875e-08
6.39009e-06
3.90587e-08
6.39453e-06
4.2319e-08
6.39892e-06
4.40853e-08
6.40313e-06
4.47059e-08
6.40712e-06
4.45306e-08
6.41091e-06
4.39594e-08
6.41451e-06
4.32699e-08
6.41798e-06
4.26278e-08
6.42134e-06
4.21545e-08
6.42465e-06
4.19492e-08
6.428e-06
4.20865e-08
6.43146e-06
4.26146e-08
6.43515e-06
4.3556e-08
6.43921e-06
4.48938e-08
4.66449e-08
6.44377e-06
5.74174e-06
7.34067e-09
5.7443e-06
2.03593e-08
5.74779e-06
2.97032e-08
5.7515e-06
3.53406e-08
5.75527e-06
3.85566e-08
5.75903e-06
4.03259e-08
5.7627e-06
4.10356e-08
5.76623e-06
4.10005e-08
5.76962e-06
4.05653e-08
5.7729e-06
3.99869e-08
5.77611e-06
3.94248e-08
5.77927e-06
3.89916e-08
5.78244e-06
3.8774e-08
5.7857e-06
3.88332e-08
5.78911e-06
3.92032e-08
5.79277e-06
3.98927e-08
5.79679e-06
4.08736e-08
4.21577e-08
5.80128e-06
6.99912e-06
6.3722e-09
7.00184e-06
1.76421e-08
7.00562e-06
2.59227e-08
7.0098e-06
3.11647e-08
7.01411e-06
3.42429e-08
7.01848e-06
3.596e-08
7.0228e-06
3.67112e-08
7.02702e-06
3.67782e-08
7.03114e-06
3.64484e-08
7.03518e-06
3.59498e-08
7.03917e-06
3.54308e-08
7.04317e-06
3.49915e-08
7.04724e-06
3.47041e-08
7.05146e-06
3.46155e-08
7.05592e-06
3.47463e-08
7.06072e-06
3.50933e-08
7.06597e-06
3.56202e-08
3.6335e-08
7.07179e-06
8.53187e-06
5.34601e-09
8.53472e-06
1.47931e-08
8.53878e-06
2.1864e-08
8.54342e-06
2.65243e-08
8.54833e-06
2.93372e-08
8.55337e-06
3.09197e-08
8.55844e-06
3.16399e-08
8.56347e-06
3.17454e-08
8.56845e-06
3.14672e-08
8.57341e-06
3.09965e-08
8.57837e-06
3.04634e-08
8.58341e-06
2.99527e-08
8.5886e-06
2.9521e-08
8.59401e-06
2.92004e-08
8.59976e-06
2.89999e-08
8.60594e-06
2.89079e-08
8.61268e-06
2.88848e-08
2.89376e-08
8.62007e-06
1.04003e-05
4.26986e-09
1.04033e-05
1.18203e-08
1.04076e-05
1.75314e-08
1.04127e-05
2.14061e-08
1.04183e-05
2.37922e-08
1.04241e-05
2.51263e-08
1.043e-05
2.57161e-08
1.0436e-05
2.57695e-08
1.0442e-05
2.54638e-08
1.0448e-05
2.49472e-08
1.04541e-05
2.43246e-08
1.04604e-05
2.36629e-08
1.0467e-05
2.30024e-08
1.04738e-05
2.23623e-08
1.04811e-05
2.17427e-08
1.04888e-05
2.11282e-08
1.04972e-05
2.04817e-08
1.98126e-08
1.05064e-05
1.26779e-05
3.14496e-09
1.2681e-05
8.70299e-09
1.26857e-05
1.28981e-08
1.26913e-05
1.57755e-08
1.26975e-05
1.7544e-08
1.27042e-05
1.8484e-08
1.27111e-05
1.882e-08
1.27181e-05
1.87093e-08
1.27253e-05
1.82773e-08
1.27326e-05
1.76272e-08
1.27401e-05
1.68331e-08
1.27479e-05
1.59417e-08
1.27559e-05
1.49779e-08
1.27643e-05
1.39508e-08
1.27732e-05
1.28558e-08
1.27826e-05
1.16783e-08
1.27927e-05
1.03893e-08
9.00293e-09
1.28035e-05
1.54544e-05
1.95485e-09
1.54577e-05
5.37692e-09
1.54627e-05
7.87935e-09
1.54689e-05
9.54256e-09
1.5476e-05
1.04879e-08
1.54836e-05
1.08693e-08
1.54916e-05
1.08178e-08
1.54999e-05
1.04282e-08
1.55084e-05
9.77397e-09
1.55171e-05
8.91316e-09
1.55261e-05
7.88718e-09
1.55353e-05
6.72086e-09
1.55448e-05
5.42602e-09
1.55548e-05
4.00421e-09
1.55652e-05
2.45072e-09
1.55761e-05
7.55437e-10
1.55876e-05
-1.09801e-09
-3.09073e-09
1.55997e-05
1.88389e-05
6.54272e-10
1.88426e-05
1.70355e-09
1.88482e-05
2.2847e-09
1.88552e-05
2.50582e-09
1.88633e-05
2.4285e-09
1.88721e-05
2.10005e-09
1.88813e-05
1.5529e-09
1.8891e-05
8.07267e-10
1.89008e-05
-1.15959e-10
1.8911e-05
-1.20407e-09
1.89213e-05
-2.44934e-09
1.89319e-05
-3.84892e-09
1.89427e-05
-5.40338e-09
1.89538e-05
-7.11544e-09
1.89653e-05
-8.98886e-09
1.8977e-05
-1.10268e-08
1.89892e-05
-1.32339e-08
-1.55888e-08
1.90017e-05
2.29649e-05
-8.58545e-10
2.29692e-05
-2.6039e-09
2.29757e-05
-4.28731e-09
2.2984e-05
-5.76481e-09
2.29935e-05
-7.02331e-09
2.30037e-05
-8.13846e-09
2.30144e-05
-9.19921e-09
2.30255e-05
-1.02647e-08
2.30368e-05
-1.1374e-08
2.30481e-05
-1.25624e-08
2.30595e-05
-1.38593e-08
2.3071e-05
-1.52854e-08
2.30824e-05
-1.68537e-08
2.30939e-05
-1.85716e-08
2.31053e-05
-2.04427e-08
2.31168e-05
-2.24658e-08
2.31282e-05
-2.46366e-08
-2.69372e-08
2.31395e-05
1.68119e-05
-2.04261e-09
1.68152e-05
-5.94111e-09
1.68203e-05
-9.3542e-09
1.68266e-05
-1.20533e-08
1.68336e-05
-1.40653e-08
1.68411e-05
-1.56168e-08
1.68488e-05
-1.69097e-08
1.68566e-05
-1.80541e-08
1.68644e-05
-1.91281e-08
1.6872e-05
-2.02053e-08
1.68795e-05
-2.13437e-08
1.68868e-05
-2.25796e-08
1.68939e-05
-2.39344e-08
1.69007e-05
-2.54203e-08
1.69073e-05
-2.7042e-08
1.69136e-05
-2.87977e-08
1.69197e-05
-3.06802e-08
-3.26744e-08
1.69254e-05
1.46357e-05
-3.17852e-09
1.46389e-05
-9.16443e-09
1.46438e-05
-1.42467e-08
1.46498e-05
-1.79927e-08
1.46562e-05
-2.05309e-08
1.46629e-05
-2.2329e-08
1.46697e-05
-2.36912e-08
1.46764e-05
-2.47555e-08
1.46829e-05
-2.5644e-08
1.46892e-05
-2.64747e-08
1.46952e-05
-2.73283e-08
1.47009e-05
-2.82508e-08
1.47062e-05
-2.92696e-08
1.47112e-05
-3.04014e-08
1.47158e-05
-3.16534e-08
1.472e-05
-3.30241e-08
1.47238e-05
-3.45059e-08
-3.60861e-08
1.47273e-05
1.27412e-05
-4.24804e-09
1.27444e-05
-1.24113e-08
1.27494e-05
-1.92161e-08
1.27552e-05
-2.37659e-08
1.27612e-05
-2.65773e-08
1.27674e-05
-2.84814e-08
1.27735e-05
-2.97913e-08
1.27794e-05
-3.06414e-08
1.2785e-05
-3.12243e-08
1.27902e-05
-3.1712e-08
1.27951e-05
-3.22e-08
1.27996e-05
-3.27371e-08
1.28036e-05
-3.3355e-08
1.28073e-05
-3.40741e-08
1.28106e-05
-3.49028e-08
1.28134e-05
-3.584e-08
1.28157e-05
-3.68778e-08
-3.8005e-08
1.28177e-05
1.10918e-05
-5.13914e-09
1.10952e-05
-1.57604e-08
1.11004e-05
-2.44882e-08
1.11061e-05
-2.94745e-08
1.11119e-05
-3.22832e-08
1.11176e-05
-3.4182e-08
1.11231e-05
-3.53351e-08
1.11283e-05
-3.5867e-08
1.11332e-05
-3.60704e-08
1.11376e-05
-3.61638e-08
1.11417e-05
-3.62448e-08
1.11453e-05
-3.63631e-08
1.11485e-05
-3.65552e-08
1.11513e-05
-3.68437e-08
1.11536e-05
-3.72373e-08
1.11555e-05
-3.77347e-08
1.11569e-05
-3.8328e-08
-3.9007e-08
1.11579e-05
9.65582e-06
-5.74722e-09
9.65936e-06
-1.92976e-08
9.66494e-06
-3.00638e-08
9.67054e-06
-3.50828e-08
9.67601e-06
-3.77541e-08
9.68138e-06
-3.95504e-08
9.68645e-06
-4.0403e-08
9.6911e-06
-4.05199e-08
9.69534e-06
-4.0309e-08
9.69918e-06
-3.99966e-08
9.70259e-06
-3.96634e-08
9.70559e-06
-3.9359e-08
9.70816e-06
-3.91254e-08
9.7103e-06
-3.89874e-08
9.71202e-06
-3.89534e-08
9.71331e-06
-3.90219e-08
9.71416e-06
-3.91848e-08
-3.94308e-08
9.71459e-06
8.40547e-06
-5.86224e-09
8.40978e-06
-2.36091e-08
8.41524e-06
-3.55233e-08
8.4204e-06
-4.02401e-08
8.42567e-06
-4.30259e-08
8.43087e-06
-4.47488e-08
8.43564e-06
-4.51737e-08
8.4399e-06
-4.47827e-08
8.4437e-06
-4.41129e-08
8.44707e-06
-4.33655e-08
8.45e-06
-4.25961e-08
8.4525e-06
-4.18547e-08
8.45456e-06
-4.11868e-08
8.45619e-06
-4.06178e-08
8.4574e-06
-4.01564e-08
8.45818e-06
-3.98023e-08
8.45854e-06
-3.95485e-08
-3.93854e-08
8.45849e-06
7.31536e-06
-3.9334e-09
7.32207e-06
-3.03244e-08
7.32733e-06
-4.07858e-08
7.33201e-06
-4.49169e-08
7.33714e-06
-4.81576e-08
7.34227e-06
-4.98806e-08
7.34689e-06
-4.9795e-08
7.35092e-06
-4.88092e-08
7.35439e-06
-4.75808e-08
7.35731e-06
-4.62867e-08
7.3597e-06
-4.49814e-08
7.36157e-06
-4.3725e-08
7.36294e-06
-4.25647e-08
7.36385e-06
-4.15234e-08
7.3643e-06
-4.06087e-08
7.36432e-06
-3.98205e-08
7.36392e-06
-3.91495e-08
-3.85842e-08
7.36312e-06
6.36266e-06
3.47126e-09
6.37331e-06
-4.0971e-08
6.3802e-06
-4.7679e-08
6.38609e-06
-5.08103e-08
6.39179e-06
-5.38488e-08
6.39683e-06
-5.49283e-08
6.4009e-06
-5.38658e-08
6.40411e-06
-5.20189e-08
6.40655e-06
-5.00189e-08
6.40825e-06
-4.79825e-08
6.40924e-06
-4.59776e-08
6.4096e-06
-4.40802e-08
6.40937e-06
-4.23368e-08
6.40861e-06
-4.07639e-08
6.40737e-06
-3.93649e-08
6.40568e-06
-3.81373e-08
6.4036e-06
-3.70683e-08
-3.61327e-08
6.40115e-06
5.53467e-06
1.42682e-08
5.54717e-06
-5.34709e-08
5.55722e-06
-5.77282e-08
5.56591e-06
-5.94995e-08
5.57259e-06
-6.05323e-08
5.57685e-06
-5.91845e-08
5.57874e-06
-5.57605e-08
5.57886e-06
-5.21376e-08
5.57761e-06
-4.87717e-08
5.57526e-06
-4.56303e-08
5.57201e-06
-4.27233e-08
5.56802e-06
-4.00901e-08
5.56342e-06
-3.77443e-08
5.55833e-06
-3.56755e-08
5.55284e-06
-3.38672e-08
5.54701e-06
-3.2314e-08
5.54095e-06
-3.10043e-08
-2.98815e-08
5.5347e-06
4.85568e-06
-1.38079e-08
4.85894e-06
-5.67317e-08
4.85997e-06
-5.87504e-08
4.85765e-06
-5.71802e-08
4.85428e-06
-5.71677e-08
4.84784e-06
-5.27462e-08
4.83868e-06
-4.65917e-08
4.82732e-06
-4.07849e-08
4.81446e-06
-3.59063e-08
4.80069e-06
-3.18642e-08
4.78648e-06
-2.85089e-08
4.77212e-06
-2.57303e-08
4.75781e-06
-2.34346e-08
4.74367e-06
-2.15385e-08
4.72978e-06
-1.99765e-08
4.7162e-06
-1.87363e-08
4.70304e-06
-1.78408e-08
-1.77683e-08
4.69093e-06
4.18887e-06
4.13214e-06
4.07339e-06
4.01621e-06
3.95904e-06
3.90629e-06
3.8597e-06
3.81892e-06
3.78301e-06
3.75115e-06
3.72264e-06
3.69691e-06
3.67347e-06
3.65193e-06
3.63196e-06
3.61322e-06
3.59538e-06
3.57761e-06
7.16712e-08
-7.16712e-08
9.16852e-08
-2.0014e-08
7.52434e-08
1.64418e-08
3.33213e-08
4.19221e-08
-2.17935e-08
5.51148e-08
-8.61604e-08
6.43669e-08
-1.61003e-07
7.48428e-08
-2.47502e-07
8.64989e-08
-3.47212e-07
9.97097e-08
-4.61782e-07
1.1457e-07
-5.9273e-07
1.30947e-07
-7.41322e-07
1.48593e-07
-9.08513e-07
1.67191e-07
-1.09489e-06
1.86372e-07
-1.3006e-06
2.05712e-07
-1.52533e-06
2.24732e-07
-1.76825e-06
2.42919e-07
-2.02799e-06
2.59737e-07
-2.30265e-06
2.74664e-07
-2.58986e-06
2.87211e-07
-2.88681e-06
2.9695e-07
-3.19034e-06
3.03531e-07
-3.49703e-06
3.06691e-07
-3.80329e-06
3.06254e-07
-4.10542e-06
3.02132e-07
-4.39972e-06
2.94305e-07
-4.68254e-06
2.82812e-07
-4.9503e-06
2.67763e-07
-5.1996e-06
2.49307e-07
-5.42724e-06
2.27631e-07
-5.63019e-06
2.02955e-07
-5.80571e-06
1.75517e-07
-5.9513e-06
1.45592e-07
-6.06479e-06
1.13493e-07
-6.14443e-06
7.96376e-08
-6.18913e-06
4.47008e-08
-6.19835e-06
9.21507e-09
-6.17669e-06
-2.16526e-08
-6.12485e-06
-5.18399e-08
-6.0441e-06
-8.075e-08
-5.93543e-06
-1.08672e-07
-5.79982e-06
-1.35616e-07
-5.63836e-06
-1.61453e-07
-5.45238e-06
-1.85985e-07
-5.24338e-06
-2.08999e-07
-5.01309e-06
-2.30285e-07
-4.76344e-06
-2.49655e-07
-4.49648e-06
-2.66955e-07
-4.21442e-06
-2.82063e-07
-3.91952e-06
-2.94902e-07
-3.61408e-06
-3.05437e-07
-3.30041e-06
-3.13672e-07
-2.98075e-06
-3.19655e-07
-2.65729e-06
-3.23464e-07
-2.33208e-06
-3.25209e-07
-2.00706e-06
-3.25019e-07
-1.68403e-06
-3.23032e-07
-1.36465e-06
-3.19377e-07
-1.05047e-06
-3.14178e-07
-7.42908e-07
-3.07567e-07
-4.43243e-07
-2.99665e-07
-1.5213e-07
-2.91113e-07
1.30699e-07
-2.82829e-07
4.04947e-07
-2.74248e-07
6.69793e-07
-2.64846e-07
9.24737e-07
-2.54944e-07
1.16945e-06
-2.44712e-07
1.40372e-06
-2.3427e-07
1.62743e-06
-2.23712e-07
1.84054e-06
-2.13111e-07
2.04307e-06
-2.02531e-07
2.2351e-06
-1.92027e-07
2.41674e-06
-1.81644e-07
2.58817e-06
-1.71423e-07
2.74957e-06
-1.61399e-07
2.90117e-06
-1.51603e-07
3.04323e-06
-1.42059e-07
3.17602e-06
-1.32792e-07
3.29984e-06
-1.23821e-07
3.415e-06
-1.15162e-07
3.52183e-06
-1.0683e-07
3.62067e-06
-9.88372e-08
3.71186e-06
-9.11932e-08
3.79577e-06
-8.39056e-08
3.87275e-06
-7.69798e-08
3.94317e-06
-7.04189e-08
4.00739e-06
-6.42236e-08
4.06578e-06
-5.8392e-08
4.1187e-06
-5.29202e-08
4.16651e-06
-4.78018e-08
4.20953e-06
-4.30284e-08
4.24812e-06
-3.85902e-08
4.2826e-06
-3.44754e-08
4.31327e-06
-3.06715e-08
4.34044e-06
-2.71643e-08
4.36437e-06
-2.39393e-08
4.38536e-06
-2.0981e-08
4.40363e-06
-1.82738e-08
4.41943e-06
-1.5802e-08
4.43298e-06
-1.35498e-08
4.44448e-06
-1.15018e-08
4.45413e-06
-9.64282e-09
4.46208e-06
-7.95834e-09
4.46852e-06
-6.43397e-09
4.47357e-06
-5.05588e-09
4.47738e-06
-3.81029e-09
4.48007e-06
-2.68078e-09
4.48171e-06
-1.64511e-09
4.48236e-06
-6.45101e-10
4.48196e-06
3.97332e-10
4.48047e-06
1.48442e-09
4.47795e-06
2.51957e-09
4.4745e-06
3.459e-09
4.47021e-06
4.287e-09
4.4652e-06
5.00644e-09
4.45959e-06
5.61344e-09
4.45349e-06
6.10264e-09
4.44701e-06
6.47731e-09
4.44026e-06
6.74917e-09
4.43332e-06
6.93518e-09
4.42627e-06
7.05424e-09
4.41914e-06
7.12566e-09
4.41198e-06
7.16593e-09
4.40479e-06
7.18815e-09
4.39759e-06
7.20138e-09
4.39038e-06
7.21132e-09
4.38316e-06
7.22133e-09
4.37592e-06
7.23268e-09
4.36868e-06
7.24592e-09
4.36142e-06
7.26108e-09
4.35414e-06
7.27787e-09
4.34684e-06
7.29632e-09
4.33953e-06
7.31613e-09
4.33219e-06
7.33742e-09
4.32483e-06
7.36017e-09
4.31744e-06
7.38444e-09
4.31003e-06
7.41015e-09
4.3026e-06
7.43758e-09
4.29513e-06
7.46656e-09
4.28763e-06
7.49719e-09
4.2801e-06
7.52955e-09
4.27254e-06
7.56366e-09
4.26494e-06
7.59968e-09
4.2573e-06
7.63762e-09
4.24962e-06
7.67764e-09
4.2419e-06
7.71987e-09
4.23414e-06
7.76456e-09
4.22633e-06
7.812e-09
4.21847e-06
7.86259e-09
4.21055e-06
7.91671e-09
4.20257e-06
7.97487e-09
4.19454e-06
8.03787e-09
4.18643e-06
8.1066e-09
4.17825e-06
8.18211e-09
4.16998e-06
8.2659e-09
4.16162e-06
8.35976e-09
4.15316e-06
8.4661e-09
4.14457e-06
8.58777e-09
4.13584e-06
8.7286e-09
4.12695e-06
8.89342e-09
4.11786e-06
9.08863e-09
4.10853e-06
9.32233e-09
4.09893e-06
9.60533e-09
4.08898e-06
9.95165e-09
4.0786e-06
1.03801e-08
4.06768e-06
1.09159e-08
4.05609e-06
1.15932e-08
4.04363e-06
1.24591e-08
4.03005e-06
1.35802e-08
4.015e-06
1.50514e-08
3.99798e-06
1.70134e-08
3.9783e-06
1.96797e-08
3.95492e-06
2.33873e-08
3.92623e-06
2.86893e-08
3.88967e-06
3.65551e-08
3.84103e-06
4.86439e-08
3.77232e-06
6.87105e-08
3.67146e-06
1.00862e-07
3.50096e-06
1.70492e-07
2.4834e-07
3.25263e-06
-7.69551e-08
5.28385e-09
-1.72536e-07
7.55666e-08
-2.87252e-07
1.31158e-07
-4.17546e-07
1.72216e-07
-5.63906e-07
2.01475e-07
-7.24859e-07
2.25319e-07
-8.98391e-07
2.48374e-07
-1.08434e-06
2.72448e-07
-1.28276e-06
2.98126e-07
-1.49363e-06
3.25446e-07
-1.71674e-06
3.54056e-07
-1.95152e-06
3.83372e-07
-2.197e-06
4.12673e-07
-2.45179e-06
4.41161e-07
-2.71408e-06
4.68001e-07
-2.9817e-06
4.92356e-07
-3.25222e-06
5.13436e-07
-3.52301e-06
5.30528e-07
-3.79138e-06
5.43035e-07
-4.05467e-06
5.50502e-07
-4.31035e-06
5.52627e-07
-4.55608e-06
5.49264e-07
-4.7898e-06
5.4041e-07
-5.00973e-06
5.26182e-07
-5.21439e-06
5.06793e-07
-5.40261e-06
4.82524e-07
-5.5735e-06
4.53697e-07
-5.72639e-06
4.20658e-07
-5.86085e-06
3.83762e-07
-5.97658e-06
3.43365e-07
-6.07345e-06
2.99826e-07
-6.15145e-06
2.53516e-07
-6.21069e-06
2.04834e-07
-6.25141e-06
1.54207e-07
-6.27388e-06
1.02107e-07
-6.27826e-06
4.90827e-08
-6.264e-06
-5.04279e-09
-6.22606e-06
-5.95953e-08
-6.16307e-06
-1.14823e-07
-6.0739e-06
-1.69928e-07
-5.95834e-06
-2.2423e-07
-5.81682e-06
-2.77134e-07
-5.6502e-06
-3.28076e-07
-5.45966e-06
-3.76523e-07
-5.24668e-06
-4.21974e-07
-5.01299e-06
-4.63983e-07
-4.76048e-06
-5.02164e-07
-4.49123e-06
-5.36202e-07
-4.20743e-06
-5.65864e-07
-3.91133e-06
-5.91004e-07
-3.6052e-06
-6.11561e-07
-3.29131e-06
-6.27565e-07
-2.97184e-06
-6.39125e-07
-2.64888e-06
-6.46423e-07
-2.32439e-06
-6.49704e-07
-2.00015e-06
-6.49257e-07
-1.67778e-06
-6.454e-07
-1.3587e-06
-6.38463e-07
-1.0441e-06
-6.28776e-07
-7.34989e-07
-6.16677e-07
-4.32111e-07
-6.02543e-07
-1.36341e-07
-5.86883e-07
1.50955e-07
-5.70125e-07
4.29044e-07
-5.52337e-07
6.97795e-07
-5.33596e-07
9.56972e-07
-5.14121e-07
1.20638e-06
-4.94121e-07
1.44588e-06
-4.73774e-07
1.67541e-06
-4.53234e-07
1.89493e-06
-4.32636e-07
2.1045e-06
-4.12097e-07
2.30419e-06
-3.91721e-07
2.49414e-06
-3.71595e-07
2.67452e-06
-3.51799e-07
2.84552e-06
-3.32398e-07
3.00737e-06
-3.1345e-07
3.16031e-06
-2.95001e-07
3.30461e-06
-2.77093e-07
3.44054e-06
-2.59756e-07
3.5684e-06
-2.43017e-07
3.68846e-06
-2.26896e-07
3.80104e-06
-2.11409e-07
3.90641e-06
-1.96566e-07
4.00488e-06
-1.82374e-07
4.09673e-06
-1.68836e-07
4.18227e-06
-1.55953e-07
4.26177e-06
-1.43723e-07
4.33551e-06
-1.3214e-07
4.40379e-06
-1.21195e-07
4.46687e-06
-1.10879e-07
4.52502e-06
-1.01178e-07
4.5785e-06
-9.20781e-08
4.62759e-06
-8.35618e-08
4.67253e-06
-7.56104e-08
4.71357e-06
-6.82035e-08
4.75095e-06
-6.13193e-08
4.7849e-06
-5.49346e-08
4.81565e-06
-4.90253e-08
4.84342e-06
-4.35666e-08
4.8684e-06
-3.85336e-08
4.8908e-06
-3.39011e-08
4.9108e-06
-2.96441e-08
4.92858e-06
-2.57377e-08
4.94431e-06
-2.21576e-08
4.95813e-06
-1.88797e-08
4.9702e-06
-1.58798e-08
4.98065e-06
-1.31336e-08
4.98962e-06
-1.06156e-08
4.99729e-06
-8.31168e-09
5.0039e-06
-6.21584e-09
5.00968e-06
-4.29102e-09
5.0147e-06
-2.50344e-09
5.01899e-06
-8.35145e-10
5.02258e-06
7.0211e-10
5.02546e-06
2.12167e-09
5.02765e-06
3.42339e-09
5.02915e-06
4.60541e-09
5.02996e-06
5.67036e-09
5.03008e-06
6.62446e-09
5.02954e-06
7.47417e-09
5.02837e-06
8.22822e-09
5.0266e-06
8.8971e-09
5.02427e-06
9.49158e-09
5.02144e-06
1.00222e-08
5.01814e-06
1.04986e-08
5.01442e-06
1.0929e-08
5.01033e-06
1.13204e-08
5.00588e-06
1.16785e-08
5.00112e-06
1.2008e-08
4.99607e-06
1.23125e-08
4.99075e-06
1.25953e-08
4.98519e-06
1.28588e-08
4.9794e-06
1.31054e-08
4.9734e-06
1.3337e-08
4.9672e-06
1.35553e-08
4.96082e-06
1.37617e-08
4.95428e-06
1.39578e-08
4.94757e-06
1.41448e-08
4.94071e-06
1.43238e-08
4.93371e-06
1.44958e-08
4.92658e-06
1.46619e-08
4.91932e-06
1.48229e-08
4.91194e-06
1.49796e-08
4.90445e-06
1.51329e-08
4.89684e-06
1.52835e-08
4.88913e-06
1.54322e-08
4.88131e-06
1.55797e-08
4.8734e-06
1.57266e-08
4.86539e-06
1.5874e-08
4.85728e-06
1.60226e-08
4.84908e-06
1.61735e-08
4.84079e-06
1.6328e-08
4.83241e-06
1.64874e-08
4.82394e-06
1.66536e-08
4.81538e-06
1.6829e-08
4.80672e-06
1.70163e-08
4.79797e-06
1.7219e-08
4.78911e-06
1.74416e-08
4.78015e-06
1.76897e-08
4.77108e-06
1.79705e-08
4.76187e-06
1.82932e-08
4.75252e-06
1.86694e-08
4.74302e-06
1.91145e-08
4.73332e-06
1.96484e-08
4.7234e-06
2.02971e-08
4.71322e-06
2.10958e-08
4.70272e-06
2.20914e-08
4.69183e-06
2.33481e-08
4.68046e-06
2.49553e-08
4.66847e-06
2.70395e-08
4.6557e-06
2.97847e-08
4.64192e-06
3.34642e-08
4.6268e-06
3.85042e-08
4.60992e-06
4.55726e-08
4.59061e-06
5.58572e-08
4.56808e-06
7.11793e-08
4.54067e-06
9.61158e-08
4.50645e-06
1.35088e-07
4.46077e-06
2.16173e-07
3.36227e-07
4.37288e-06
-1.66368e-07
1.71652e-07
-3.36316e-07
2.45514e-07
-5.07579e-07
3.02421e-07
-6.83513e-07
3.4815e-07
-8.67708e-07
3.8567e-07
-1.06095e-06
4.18562e-07
-1.26239e-06
4.49812e-07
-1.47104e-06
4.81103e-07
-1.68599e-06
5.13073e-07
-1.90624e-06
5.457e-07
-2.13073e-06
5.78539e-07
-2.35826e-06
6.10905e-07
-2.58757e-06
6.41981e-07
-2.81731e-06
6.70906e-07
-3.04615e-06
6.96836e-07
-3.27278e-06
7.1899e-07
-3.49604e-06
7.36698e-07
-3.71493e-06
7.49418e-07
-3.92865e-06
7.56756e-07
-4.13662e-06
7.58463e-07
-4.33841e-06
7.54417e-07
-4.53375e-06
7.44605e-07
-4.72242e-06
7.29085e-07
-4.9042e-06
7.07963e-07
-5.07877e-06
6.81359e-07
-5.24564e-06
6.49394e-07
-5.40412e-06
6.12176e-07
-5.55326e-06
5.69801e-07
-5.69186e-06
5.22362e-07
-5.81846e-06
4.69964e-07
-5.93138e-06
4.12742e-07
-6.02874e-06
3.50883e-07
-6.10855e-06
2.84646e-07
-6.16873e-06
2.14378e-07
-6.20714e-06
1.40522e-07
-6.22165e-06
6.3593e-08
-6.21085e-06
-1.58443e-08
-6.17333e-06
-9.71128e-08
-6.10882e-06
-1.79331e-07
-6.01723e-06
-2.61521e-07
-5.89878e-06
-3.42681e-07
-5.75407e-06
-4.21845e-07
-5.58406e-06
-4.9809e-07
-5.39002e-06
-5.70553e-07
-5.17355e-06
-6.38448e-07
-4.93646e-06
-7.01076e-07
-4.68077e-06
-7.57848e-07
-4.40868e-06
-8.08291e-07
-4.12249e-06
-8.52063e-07
-3.82453e-06
-8.88958e-07
-3.51718e-06
-9.18912e-07
-3.20275e-06
-9.41995e-07
-2.88347e-06
-9.58409e-07
-2.56142e-06
-9.68468e-07
-2.23854e-06
-9.72582e-07
-1.91657e-06
-9.71226e-07
-1.59705e-06
-9.64923e-07
-1.2813e-06
-9.54212e-07
-9.7044e-07
-9.39637e-07
-6.6538e-07
-9.21737e-07
-3.66872e-07
-9.01051e-07
-7.57021e-08
-8.78053e-07
2.07272e-07
-8.531e-07
4.81487e-07
-8.26551e-07
7.46641e-07
-7.9875e-07
1.0025e-06
-7.69982e-07
1.2489e-06
-7.40517e-07
1.48572e-06
-7.10595e-07
1.71291e-06
-6.80424e-07
1.93046e-06
-6.50191e-07
2.13843e-06
-6.2006e-07
2.33688e-06
-5.90175e-07
2.52595e-06
-5.60665e-07
2.70579e-06
-5.31639e-07
2.87659e-06
-5.03194e-07
3.03855e-06
-4.75413e-07
3.19191e-06
-4.48364e-07
3.33692e-06
-4.22104e-07
3.47385e-06
-3.96679e-07
3.60296e-06
-3.72127e-07
3.72453e-06
-3.48473e-07
3.83886e-06
-3.25737e-07
3.94623e-06
-3.03932e-07
4.04692e-06
-2.83062e-07
4.14121e-06
-2.6313e-07
4.22939e-06
-2.44131e-07
4.31172e-06
-2.26059e-07
4.38849e-06
-2.08902e-07
4.45994e-06
-1.92646e-07
4.52633e-06
-1.77276e-07
4.58793e-06
-1.62772e-07
4.64496e-06
-1.49113e-07
4.69768e-06
-1.36277e-07
4.74631e-06
-1.24239e-07
4.79107e-06
-1.12971e-07
4.8322e-06
-1.02446e-07
4.8699e-06
-9.26327e-08
4.90437e-06
-8.35006e-08
4.93583e-06
-7.50176e-08
4.96444e-06
-6.71506e-08
4.99041e-06
-5.98666e-08
5.0139e-06
-5.31324e-08
5.03507e-06
-4.69148e-08
5.0541e-06
-4.11811e-08
5.07112e-06
-3.58987e-08
5.08627e-06
-3.10359e-08
5.0997e-06
-2.65616e-08
5.11153e-06
-2.2446e-08
5.12188e-06
-1.86626e-08
5.13086e-06
-1.51902e-08
5.13857e-06
-1.20023e-08
5.14513e-06
-9.07002e-09
5.15067e-06
-6.37323e-09
5.15527e-06
-3.90081e-09
5.15903e-06
-1.63478e-09
5.162e-06
4.52862e-10
5.16424e-06
2.36824e-09
5.16579e-06
4.11835e-09
5.1667e-06
5.71775e-09
5.16699e-06
7.17764e-09
5.16671e-06
8.51007e-09
5.16588e-06
9.72712e-09
5.16453e-06
1.08401e-08
5.1627e-06
1.18603e-08
5.1604e-06
1.27974e-08
5.15766e-06
1.36608e-08
5.15453e-06
1.44586e-08
5.15101e-06
1.51978e-08
5.14713e-06
1.58844e-08
5.14292e-06
1.65236e-08
5.13839e-06
1.712e-08
5.13358e-06
1.76775e-08
5.12848e-06
1.81995e-08
5.12313e-06
1.86893e-08
5.11754e-06
1.91497e-08
5.11171e-06
1.95833e-08
5.10568e-06
1.99925e-08
5.09944e-06
2.03798e-08
5.09302e-06
2.07471e-08
5.08642e-06
2.10965e-08
5.07965e-06
2.14299e-08
5.07273e-06
2.17491e-08
5.06565e-06
2.20558e-08
5.05843e-06
2.23514e-08
5.05108e-06
2.26376e-08
5.04359e-06
2.29157e-08
5.03599e-06
2.31872e-08
5.02826e-06
2.34536e-08
5.02042e-06
2.37162e-08
5.01246e-06
2.39766e-08
5.0044e-06
2.42363e-08
4.99623e-06
2.44973e-08
4.98796e-06
2.47619e-08
4.97958e-06
2.50328e-08
4.97109e-06
2.53131e-08
4.9625e-06
2.56069e-08
4.9538e-06
2.59191e-08
4.94499e-06
2.6256e-08
4.93605e-06
2.66253e-08
4.92699e-06
2.70369e-08
4.91778e-06
2.75031e-08
4.90841e-06
2.80401e-08
4.89885e-06
2.86685e-08
4.88908e-06
2.9415e-08
4.87907e-06
3.03147e-08
4.86875e-06
3.14141e-08
4.85806e-06
3.27755e-08
4.84693e-06
3.44834e-08
4.83523e-06
3.66544e-08
4.82282e-06
3.94523e-08
4.80949e-06
4.31118e-08
4.79498e-06
4.79775e-08
4.77891e-06
5.45741e-08
4.76077e-06
6.37093e-08
4.73988e-06
7.67511e-08
4.71524e-06
9.58108e-08
4.68595e-06
1.2541e-07
4.64987e-06
1.71167e-07
4.61314e-06
2.52908e-07
3.7869e-07
4.57067e-06
-2.00392e-07
3.72044e-07
-3.94521e-07
4.39644e-07
-5.84317e-07
4.92217e-07
-7.73086e-07
5.36918e-07
-9.63512e-07
5.76096e-07
-1.15677e-06
6.11818e-07
-1.35286e-06
6.45903e-07
-1.55131e-06
6.79552e-07
-1.75152e-06
7.13282e-07
-1.95287e-06
7.47057e-07
-2.1548e-06
7.80463e-07
-2.35676e-06
8.12864e-07
-2.55829e-06
8.43511e-07
-2.75901e-06
8.71633e-07
-2.95867e-06
8.96496e-07
-3.15712e-06
9.1744e-07
-3.35433e-06
9.33907e-07
-3.55036e-06
9.45445e-07
-3.74531e-06
9.51705e-07
-3.93927e-06
9.52421e-07
-4.13223e-06
9.47386e-07
-4.32406e-06
9.36426e-07
-4.51434e-06
9.19372e-07
-4.70243e-06
8.96048e-07
-4.88732e-06
8.66255e-07
-5.06771e-06
8.2978e-07
-5.24194e-06
7.86402e-07
-5.40805e-06
7.35919e-07
-5.56386e-06
6.78172e-07
-5.70698e-06
6.13081e-07
-5.83491e-06
5.40676e-07
-5.94516e-06
4.61129e-07
-6.03529e-06
3.74779e-07
-6.10306e-06
2.82142e-07
-6.14644e-06
1.83909e-07
-6.16379e-06
8.09361e-08
-6.15387e-06
-2.57612e-08
-6.11592e-06
-1.35067e-07
-6.04954e-06
-2.4571e-07
-5.95473e-06
-3.56329e-07
-5.83187e-06
-4.65544e-07
-5.68171e-06
-5.71996e-07
-5.50542e-06
-6.74389e-07
-5.30445e-06
-7.71515e-07
-5.08062e-06
-8.62279e-07
-4.83598e-06
-9.45724e-07
-4.57278e-06
-1.02105e-06
-4.29346e-06
-1.08761e-06
-4.00055e-06
-1.14498e-06
-3.69661e-06
-1.19289e-06
-3.38422e-06
-1.23131e-06
-3.06584e-06
-1.26038e-06
-2.74381e-06
-1.28043e-06
-2.4203e-06
-1.29198e-06
-2.09725e-06
-1.29563e-06
-1.77637e-06
-1.29211e-06
-1.45911e-06
-1.28218e-06
-1.14671e-06
-1.26661e-06
-8.4017e-07
-1.24618e-06
-5.40294e-07
-1.22161e-06
-2.47737e-07
-1.19361e-06
3.69079e-08
-1.1627e-06
3.13153e-07
-1.12934e-06
5.80648e-07
-1.09405e-06
8.39138e-07
-1.05724e-06
1.08846e-06
-1.0193e-06
1.32852e-06
-9.80574e-07
1.55926e-06
-9.4134e-07
1.78069e-06
-9.01856e-07
1.99285e-06
-8.62345e-07
2.19579e-06
-8.23005e-07
2.38963e-06
-7.84011e-07
2.57448e-06
-7.45518e-07
2.7505e-06
-7.07662e-07
2.91787e-06
-6.70562e-07
3.07678e-06
-6.3432e-07
3.22744e-06
-5.99025e-07
3.37008e-06
-5.64747e-07
3.50495e-06
-5.31548e-07
3.6323e-06
-4.99473e-07
3.75238e-06
-4.68557e-07
3.86547e-06
-4.38825e-07
3.97183e-06
-4.10291e-07
4.07173e-06
-3.82963e-07
4.16544e-06
-3.5684e-07
4.25322e-06
-3.31915e-07
4.33534e-06
-3.08177e-07
4.41205e-06
-2.8561e-07
4.4836e-06
-2.64196e-07
4.55024e-06
-2.4391e-07
4.61219e-06
-2.24729e-07
4.6697e-06
-2.06625e-07
4.723e-06
-1.8957e-07
4.77229e-06
-1.73531e-07
4.81779e-06
-1.58476e-07
4.85972e-06
-1.44372e-07
4.89827e-06
-1.3118e-07
4.93363e-06
-1.18864e-07
4.966e-06
-1.07386e-07
4.99555e-06
-9.67053e-08
5.02247e-06
-8.67819e-08
5.04691e-06
-7.75754e-08
5.06904e-06
-6.90453e-08
5.08901e-06
-6.11513e-08
5.10697e-06
-5.38534e-08
5.12304e-06
-4.71126e-08
5.13737e-06
-4.08908e-08
5.15008e-06
-3.51514e-08
5.16128e-06
-2.98598e-08
5.17107e-06
-2.49854e-08
5.17957e-06
-2.04981e-08
5.18686e-06
-1.63665e-08
5.19305e-06
-1.25627e-08
5.19822e-06
-9.06452e-09
5.20243e-06
-5.85006e-09
5.20578e-06
-2.89408e-09
5.20833e-06
-1.78418e-10
5.21013e-06
2.31382e-09
5.21125e-06
4.60139e-09
5.21172e-06
6.70136e-09
5.2116e-06
8.63036e-09
5.21092e-06
1.04047e-08
5.20973e-06
1.20392e-08
5.20804e-06
1.35481e-08
5.20589e-06
1.49441e-08
5.20331e-06
1.62384e-08
5.20033e-06
1.74414e-08
5.19697e-06
1.85614e-08
5.19325e-06
1.96064e-08
5.18919e-06
2.05827e-08
5.18481e-06
2.14963e-08