/*--------------------------------*- C++ -*----------------------------------*\
  =========                 |
  \\      /  F ield         | OpenFOAM: The Open Source CFD Toolbox
   \\    /   O peration     | Website:  https://openfoam.org
    \\  /    A nd           | Version:  9
     \\/     M anipulation  |
\*---------------------------------------------------------------------------*/
FoamFile
{
    format      ascii;
    class       volScalarField;
    location    "0.001";
    object      s_0;
}
// * * * * * * * * * * * * * * * * * * * * * * * * * * * * * * * * * * * * * //

dimensions      [0 0 0 0 0 0 0];

internalField   nonuniform List<scalar> 
12225
(
1
0.999931
0.998922
0.991382
0.953004
0.787038
0.458635
0.237862
0.114268
0.0518809
0.0227363
0.0094956
0.00397839
0.00168581
0.000667314
0.000272608
0.000134716
6.32318e-05
1
0.999963
0.999494
0.996232
0.979993
0.914269
0.673323
0.38087
0.197908
0.0965889
0.0449927
0.0201895
0.00886112
0.00382359
0.00163165
0.000706308
0.000309326
0.000138179
1
0.999957
0.999364
0.995222
0.975148
0.895052
0.62901
0.356992
0.187648
0.0926654
0.0435324
0.0197434
0.00871882
0.0037662
0.00161613
0.000699062
0.000300894
0.000132924
1
0.999958
0.999398
0.995458
0.976147
0.898813
0.636721
0.361399
0.189734
0.093506
0.0438919
0.0198496
0.00873434
0.00376911
0.00161329
0.000690962
0.000295277
0.000129316
1
0.999953
0.999352
0.995258
0.975558
0.897049
0.633096
0.358841
0.188179
0.0926808
0.0434468
0.0196174
0.00862006
0.00371091
0.00157852
0.000670419
0.000283836
0.000122355
1
0.999952
0.999343
0.995189
0.975097
0.894783
0.628133
0.355973
0.186685
0.0918936
0.043026
0.0193895
0.00848939
0.00363815
0.00153912
0.000647838
0.00027039
0.000114364
1
0.999959
0.999419
0.99566
0.977128
0.901993
0.641763
0.362027
0.188701
0.0923346
0.0429888
0.0192564
0.00837891
0.00356877
0.00149683
0.000621747
0.000255434
0.000106214
1
0.999956
0.999374
0.995276
0.974975
0.892482
0.620823
0.350019
0.182778
0.0896224
0.0417831
0.0187166
0.00812646
0.00344321
0.00143253
0.000588796
0.000238598
9.73701e-05
1
0.999951
0.999315
0.995023
0.974597
0.893795
0.626666
0.354299
0.184938
0.0904159
0.0419582
0.0186811
0.00805422
0.00338607
0.0013951
0.000565725
0.000225315
9.02146e-05
1
0.999953
0.999342
0.995116
0.974588
0.892299
0.621921
0.350725
0.182719
0.0891595
0.041269
0.0183073
0.00784581
0.00326957
0.00133191
0.000532553
0.000208649
8.19646e-05
1
0.999957
0.999392
0.99553
0.976798
0.901603
0.641783
0.361269
0.187227
0.0907232
0.0416575
0.0183181
0.0077742
0.00320432
0.00128865
0.000507352
0.00019518
7.51373e-05
1
0.999954
0.999355
0.995226
0.974997
0.893014
0.621308
0.348189
0.180064
0.0870896
0.03988
0.0174582
0.00736175
0.00300754
0.00119556
0.00046423
0.000175819
6.65516e-05
1
0.999953
0.999323
0.994982
0.97408
0.890697
0.618262
0.346785
0.179167
0.0864058
0.0394058
0.0171614
0.00718963
0.00291324
0.00114686
0.000440234
0.000164584
6.14264e-05
1
0.999952
0.999329
0.994975
0.973655
0.887677
0.610381
0.341071
0.175587
0.0843266
0.0382212
0.0165038
0.00684019
0.00273798
0.00106301
0.000401717
0.000147627
5.41027e-05
1
0.999959
0.999408
0.995508
0.976074
0.89669
0.627087
0.348499
0.177974
0.0846778
0.037978
0.0162087
0.00663179
0.00261618
0.000999454
0.000371124
0.000133878
4.81343e-05
1
0.999957
0.999394
0.995443
0.975881
0.896118
0.625546
0.346431
0.175857
0.0829553
0.0368212
0.0155276
0.00626725
0.00243511
0.000914911
0.000333678
0.000118119
4.16546e-05
1
0.999957
0.99939
0.995419
0.975884
0.896596
0.626639
0.346215
0.1749
0.0818922
0.0359855
0.0149875
0.00596181
0.00227876
0.000840951
0.000300889
0.000104419
3.60896e-05
1
0.999965
0.999478
0.995915
0.97754
0.900291
0.629721
0.343598
0.17112
0.0789358
0.0341548
0.0139983
0.0054755
0.0020564
0.00074514
0.000261629
8.90809e-05
3.02092e-05
1
0.999954
0.999349
0.99512
0.974233
0.888775
0.607569
0.331146
0.164618
0.0756015
0.0324714
0.0131754
0.00509084
0.00188529
0.000672714
0.000232365
7.77941e-05
2.59371e-05
1
0.999956
0.999366
0.99518
0.974262
0.887901
0.603895
0.32719
0.161509
0.0735979
0.0313513
0.0126086
0.00482568
0.00176919
0.000624708
0.000213512
7.07395e-05
2.33446e-05
1
0.999958
0.999403
0.995488
0.975866
0.894606
0.617279
0.333853
0.164121
0.074364
0.0314624
0.0125583
0.00476815
0.00173372
0.000607069
0.000205724
6.7582e-05
2.21167e-05
1
0.99995
0.999305
0.994875
0.973136
0.883806
0.594844
0.320235
0.156906
0.0708961
0.0299154
0.0119079
0.00450792
0.00163396
0.000570246
0.000192576
6.30381e-05
2.05561e-05
1
0.999951
0.999277
0.994435
0.970279
0.870381
0.569478
0.306096
0.149982
0.0678337
0.0286549
0.0114144
0.00432162
0.0015654
0.000545563
0.000183889
6.00584e-05
1.95358e-05
1
0.999948
0.999247
0.994322
0.970242
0.872188
0.574847
0.309833
0.151904
0.0686212
0.0289189
0.0114841
0.00433306
0.00156415
0.000543342
0.000182569
5.94519e-05
1.92847e-05
1
0.999958
0.999407
0.995521
0.975963
0.894523
0.615422
0.330505
0.16103
0.0722275
0.0302265
0.0119284
0.00447626
0.00160821
0.000556318
0.000186232
6.04419e-05
1.95461e-05
1
0.999957
0.999388
0.995386
0.975437
0.893041
0.613473
0.330036
0.160992
0.072236
0.0302185
0.0119136
0.00446451
0.00160136
0.000552952
0.000184759
5.985e-05
1.93186e-05
1
0.999955
0.999349
0.995009
0.973199
0.882456
0.590374
0.316376
0.154209
0.0692564
0.0290199
0.0114609
0.00430146
0.00154483
0.000533982
0.000178569
5.78842e-05
1.86944e-05
1
0.999959
0.999409
0.995516
0.975946
0.894575
0.615672
0.330626
0.160996
0.0721279
0.0301344
0.0118673
0.00444297
0.00159232
0.000549445
0.000183477
5.94051e-05
1.9167e-05
1
0.99995
0.999298
0.994789
0.972685
0.8822
0.591927
0.31777
0.154882
0.0694796
0.0290671
0.0114596
0.00429378
0.00153975
0.000531546
0.000177569
5.75133e-05
1.85643e-05
1
0.999942
0.999104
0.992753
0.959625
0.814723
0.476395
0.239351
0.108882
0.0456774
0.017898
0.00661636
0.00232605
0.000782809
0.000253602
7.94861e-05
2.41558e-05
7.31552e-06
1.9559e-43
1.75394e-41
1.52687e-40
5.78502e-40
5.52024e-40
2.61856e-40
7.65164e-41
1.99053e-41
4.73249e-42
1.04381e-42
2.13968e-43
4.07832e-44
7.24499e-45
1.20372e-45
1.87741e-46
2.75846e-47
3.83041e-48
5.04131e-49
6.30509e-50
7.51121e-51
8.5415e-52
9.2902e-53
9.68238e-54
9.68614e-55
9.31597e-56
8.62721e-57
7.70365e-58
6.64184e-59
5.53603e-60
4.4663e-61
3.49164e-62
2.64795e-63
1.94999e-64
1.39577e-65
9.71964e-67
6.59049e-68
4.35481e-69
2.80634e-70
1.76501e-71
1.08416e-72
6.50812e-74
3.82038e-75
2.19431e-76
1.23387e-77
6.79588e-79
3.6681e-80
1.94115e-81
1.0076e-82
5.13232e-84
2.56627e-85
1.26014e-86
6.07874e-88
2.88161e-89
1.34283e-90
6.15319e-92
2.77331e-93
1.2298e-94
5.36681e-96
2.30545e-97
9.75102e-99
4.06161e-100
1.66645e-101
6.73625e-103
2.68325e-104
1.05342e-105
4.07675e-107
1.55551e-108
5.85255e-110
2.17171e-111
7.94883e-113
2.8702e-114
1.02256e-115
3.59489e-117
1.24726e-118
4.27129e-120
1.4439e-121
4.81882e-123
1.58787e-124
5.16657e-126
1.66015e-127
5.26854e-129
1.65146e-130
5.11355e-132
1.56418e-133
4.72709e-135
1.4115e-136
4.16465e-138
1.21428e-139
3.49888e-141
9.96415e-143
2.80466e-144
7.80321e-146
2.14607e-147
5.83475e-149
1.56827e-150
4.16823e-152
1.09641e-153
2.85411e-155
7.35254e-157
1.87443e-158
4.72893e-160
1.18065e-161
2.91707e-163
7.13246e-165
1.72585e-166
4.13274e-168
9.79381e-170
2.29692e-171
5.33122e-173
1.22461e-174
2.78396e-176
6.26368e-178
1.39477e-179
3.0739e-181
6.70494e-183
1.44752e-184
3.09307e-186
6.54173e-188
1.36944e-189
2.83756e-191
5.81984e-193
1.18153e-194
2.37442e-196
4.72341e-198
9.30137e-200
1.81317e-201
3.49899e-203
6.68442e-205
1.26419e-206
2.36699e-208
4.38757e-210
8.05201e-212
1.46301e-213
2.63183e-215
4.68758e-217
8.26659e-219
1.44344e-220
2.49562e-222
4.27238e-224
7.24243e-226
1.2157e-227
2.02074e-229
3.32615e-231
5.42161e-233
8.75142e-235
1.39895e-236
2.21465e-238
3.47214e-240
5.39122e-242
8.29049e-244
1.26266e-245
1.90463e-247
2.84552e-249
4.21063e-251
6.17124e-253
8.95869e-255
1.28816e-256
1.83464e-258
2.58817e-260
3.61662e-262
5.00586e-264
6.86316e-266
9.32044e-268
1.25376e-269
1.6705e-271
2.2046e-273
2.88166e-275
3.73047e-277
4.78256e-279
6.07142e-281
7.63115e-283
9.49457e-285
1.16904e-286
1.4239e-288
1.71474e-290
2.03991e-292
2.39471e-294
2.76587e-296
3.13712e-298
3.42279e-300
7.50528e-41
6.676e-39
6.07051e-38
2.4217e-37
2.47887e-37
1.25303e-37
3.77963e-38
1.0071e-38
2.43883e-39
5.46838e-40
1.13803e-40
2.1987e-41
3.95277e-42
6.63643e-43
1.04463e-43
1.5474e-44
2.16426e-45
2.8668e-46
3.60619e-47
4.31845e-48
4.9341e-49
5.38994e-50
5.64005e-51
5.66336e-52
5.46609e-53
5.07884e-54
4.54955e-55
3.93445e-56
3.28905e-57
2.66109e-58
2.08615e-59
1.58637e-60
1.17133e-61
8.40594e-63
5.8685e-64
3.9891e-65
2.6423e-66
1.70681e-67
1.07597e-68
6.62404e-70
3.98507e-71
2.34425e-72
1.34921e-73
7.6015e-75
4.19456e-76
2.26805e-77
1.20225e-78
6.25042e-80
3.18836e-81
1.5964e-82
7.84859e-84
3.79025e-85
1.79852e-86
8.38821e-88
3.84644e-89
1.73463e-90
7.69541e-92
3.35925e-93
1.44326e-94
6.10432e-96
2.54226e-97
1.04275e-98
4.21318e-100
1.67722e-101
6.57958e-103
2.54398e-104
9.69639e-106
3.64381e-107
1.35027e-108
4.93475e-110
1.77891e-111
6.32629e-113
2.21975e-114
7.68556e-116
2.62614e-117
8.85687e-119
2.94858e-120
9.69091e-122
3.14471e-123
1.00764e-124
3.18845e-126
9.96431e-128
3.07572e-129
9.37817e-131
2.82486e-132
8.40659e-134
2.47185e-135
7.18184e-137
2.06203e-138
5.85098e-140
1.64085e-141
4.54825e-143
1.24619e-144
3.37535e-146
9.03802e-148
2.39257e-149
6.26855e-151
1.62561e-152
4.17263e-154
1.06008e-155
2.66564e-157
6.63424e-159
1.63421e-160
3.98424e-162
9.61408e-164
2.2961e-165
5.42748e-167
1.26978e-168
2.94025e-170
6.73858e-172
1.52856e-173
3.43187e-175
7.62635e-177
1.67743e-178
3.65191e-180
7.86948e-182
1.67853e-183
3.54385e-185
7.40612e-187
1.53208e-188
3.13727e-190
6.35933e-192
1.27605e-193
2.53468e-195
4.98414e-197
9.7023e-199
1.86975e-200
3.56718e-202
6.73763e-204
1.2599e-205
2.33251e-207
4.27539e-209
7.7589e-211
1.39414e-212
2.48027e-214
4.36909e-216
7.6206e-218
1.31614e-219
2.25079e-221
3.81154e-223
6.39152e-225
1.06134e-226
1.74527e-228
2.84205e-230
4.58325e-232
7.31973e-234
1.15772e-235
1.81346e-237
2.8133e-239
4.3225e-241
6.57767e-243
9.91368e-245
1.47989e-246
2.18809e-248
3.2044e-250
4.64815e-252
6.67839e-254
9.50445e-256
1.33983e-257
1.87088e-259
2.5877e-261
3.54534e-263
4.81147e-265
6.468e-267
8.6125e-269
1.13592e-270
1.48391e-272
1.91996e-274
2.46022e-276
3.12183e-278
3.92235e-280
4.87875e-282
6.00606e-284
7.3155e-286
8.81172e-288
1.0489e-289
1.23238e-291
1.42685e-293
1.6209e-295
1.80726e-297
1.45276e-38
1.27288e-36
1.20626e-35
5.06002e-35
5.60795e-35
3.01364e-35
9.44915e-36
2.58766e-36
6.38924e-37
1.45701e-37
3.07948e-38
6.03234e-39
1.09767e-39
1.86246e-40
2.95885e-41
4.41855e-42
6.22443e-43
8.29775e-44
1.04978e-44
1.26366e-45
1.45068e-46
1.59167e-47
1.67237e-48
1.68581e-49
1.63312e-50
1.52285e-51
1.36889e-52
1.18785e-53
9.96333e-55
8.0879e-56
6.36148e-57
4.85341e-58
3.59543e-59
2.58874e-60
1.81326e-61
1.23663e-62
8.21826e-64
5.32616e-65
3.36866e-66
2.08068e-67
1.25584e-68
7.41165e-70
4.27947e-71
2.41878e-72
1.33892e-73
7.26228e-75
3.86146e-76
2.01361e-77
1.0302e-78
5.17312e-80
2.55054e-81
1.23511e-82
5.87648e-84
2.74789e-85
1.26322e-86
5.71054e-88
2.53927e-89
1.11092e-90
4.78303e-92
2.02707e-93
8.45812e-95
3.47543e-96
1.40656e-97
5.60797e-99
2.20308e-100
8.52913e-102
3.25465e-103
1.22432e-104
4.54095e-106
1.66082e-107
5.99075e-109
2.1315e-110
7.48151e-112
2.5909e-113
8.8536e-115
2.98573e-116
9.93779e-118
3.26503e-119
1.05898e-120
3.39107e-122
1.07221e-123
3.34774e-125
1.03229e-126
3.14384e-128
9.45742e-130
2.81043e-131
8.2508e-133
2.39319e-134
6.85884e-136
1.94244e-137
5.43628e-139
1.50363e-140
4.11054e-142
1.1107e-143
2.96669e-145
7.83346e-147
2.04701e-148
5.29473e-150
1.35555e-151
3.43503e-153
8.6156e-155
2.13883e-156
5.25534e-158
1.27808e-159
3.07642e-161
7.32936e-163
1.7283e-164
4.0337e-166
9.31805e-168
2.13051e-169
4.82152e-171
1.08001e-172
2.39452e-174
5.25488e-176
1.14147e-177
2.45429e-179
5.22343e-181
1.10042e-182
2.29477e-184
4.73701e-186
9.67967e-188
1.95801e-189
3.9208e-191
7.77222e-193
1.52523e-194
2.96313e-196
5.69902e-198
1.08515e-199
2.04565e-201
3.81792e-203
7.05484e-205
1.29069e-206
2.33795e-208
4.19311e-210
7.44621e-212
1.3093e-213
2.27958e-215
3.93e-217
6.70901e-219
1.13413e-220
1.8985e-222
3.14711e-224
5.16624e-226
8.39859e-228
1.35212e-229
2.15581e-231
3.40406e-233
5.32334e-235
8.24478e-237
1.26471e-238
1.92142e-240
2.89126e-242
4.3091e-244
6.36107e-246
9.30086e-248
1.34701e-249
1.93234e-251
2.74574e-253
3.86462e-255
5.38802e-257
7.44093e-259
1.0179e-260
1.37929e-262
1.85132e-264
2.46137e-266
3.24137e-268
4.22789e-270
5.46188e-272
6.98801e-274
8.85353e-276
1.11064e-277
1.37927e-279
1.69526e-281
2.06149e-283
2.47897e-285
2.94575e-287
3.455e-289
3.99425e-291
4.53709e-293
5.0664e-295
1.83464e-36
1.57914e-34
1.55424e-33
6.84934e-33
8.29251e-33
4.72965e-33
1.5538e-33
4.3895e-34
1.10626e-34
2.56657e-35
5.51078e-36
1.09474e-36
2.0165e-37
3.45781e-38
5.54402e-39
8.3458e-40
1.18402e-40
1.58834e-41
2.02082e-42
2.445e-43
2.82007e-44
3.1077e-45
3.27876e-46
3.31815e-47
3.22672e-48
3.02005e-49
2.72471e-50
2.37299e-51
1.99766e-52
1.62758e-53
1.28489e-54
9.83941e-56
7.31652e-57
5.28803e-58
3.71823e-59
2.54568e-60
1.69844e-61
1.10512e-62
7.01761e-64
4.35198e-65
2.63743e-66
1.5629e-67
9.06113e-69
5.14245e-70
2.85833e-71
1.55674e-72
8.31145e-74
4.3519e-75
2.23561e-76
1.12718e-77
5.57988e-79
2.71294e-80
1.29592e-81
6.08377e-83
2.80767e-84
1.27415e-85
5.68731e-87
2.49755e-88
1.0793e-89
4.59085e-91
1.92245e-92
7.92721e-94
3.21937e-95
1.28792e-96
5.07637e-98
1.97168e-99
7.5476e-101
2.848e-102
1.05949e-103
3.88633e-105
1.40582e-106
5.01566e-108
1.76518e-109
6.12866e-111
2.09948e-112
7.09707e-114
2.36764e-115
7.79594e-117
2.53386e-118
8.13027e-120
2.57559e-121
8.05637e-123
2.48848e-124
7.591e-126
2.28704e-127
6.80601e-129
2.00076e-130
5.81048e-132
1.66717e-133
4.72639e-135
1.32402e-136
3.66527e-138
1.00275e-139
2.71133e-141
7.24621e-143
1.91427e-144
5.00472e-146
1.29509e-147
3.31708e-149
8.40898e-151
2.10989e-152
5.23962e-154
1.28785e-155
3.13293e-157
7.54324e-159
1.79758e-160
4.23976e-162
9.89734e-164
2.28677e-165
5.22945e-167
1.18365e-168
2.65171e-170
5.87989e-172
1.2905e-173
2.80346e-175
6.0282e-177
1.28304e-178
2.70309e-180
5.63705e-182
1.16365e-183
2.37781e-185
4.80978e-187
9.631e-189
1.90908e-190
3.74618e-192
7.27739e-194
1.39956e-195
2.66465e-197
5.02267e-199
9.37305e-201
1.73176e-202
3.16781e-204
5.73731e-206
1.02882e-207
1.82669e-209
3.21137e-211
5.59013e-213
9.63543e-215
1.64454e-216
2.7794e-218
4.65155e-220
7.70891e-222
1.26516e-223
2.05619e-225
3.30943e-227
5.27502e-229
8.32691e-231
1.30179e-232
2.01558e-234
3.09079e-236
4.69418e-238
7.06114e-240
1.05202e-241
1.55242e-243
2.26905e-245
3.28495e-247
4.71056e-249
6.6908e-251
9.4135e-253
1.31188e-254
1.81097e-256
2.47629e-258
3.35403e-260
4.4999e-262
5.98005e-264
7.87159e-266
1.02627e-267
1.32522e-269
1.69474e-271
2.14623e-273
2.69123e-275
3.3408e-277
4.10466e-279
4.98985e-281
5.99904e-283
7.12828e-285
8.36296e-287
9.67728e-289
1.10193e-290
1.23536e-292
1.68563e-34
1.42129e-32
1.44767e-31
6.70907e-31
8.9293e-31
5.41493e-31
1.87795e-31
5.4926e-32
1.4143e-32
3.33846e-33
7.28251e-34
1.46712e-34
2.73527e-35
4.73916e-36
7.66639e-37
1.16301e-37
1.66111e-38
2.24165e-39
2.86722e-40
3.48582e-41
4.03843e-42
4.46883e-43
4.73343e-44
4.80852e-45
4.69339e-46
4.40892e-47
3.99232e-48
3.48977e-49
2.94872e-50
2.41149e-51
1.91104e-52
1.46914e-53
1.09678e-54
7.95901e-56
5.61932e-57
3.86336e-58
2.58853e-59
1.69153e-60
1.07883e-61
6.71996e-63
4.09068e-64
2.435e-65
1.41815e-66
8.08522e-68
4.51469e-69
2.47021e-70
1.32496e-71
6.96978e-73
3.5971e-74
1.82208e-75
9.06181e-77
4.42633e-78
2.12418e-79
1.00182e-80
4.6447e-82
2.11747e-83
9.4947e-85
4.18844e-86
1.81817e-87
7.76822e-89
3.26743e-90
1.35325e-91
5.51973e-93
2.21772e-94
8.77851e-96
3.424e-97
1.31618e-98
4.98696e-100
1.86276e-101
6.86025e-103
2.49142e-104
8.92353e-106
3.15255e-107
1.0987e-108
3.77779e-110
1.28171e-111
4.29122e-113
1.41795e-114
4.6246e-116
1.4889e-117
4.73233e-119
1.48507e-120
4.60169e-122
1.40809e-123
4.25519e-125
1.27006e-126
3.74436e-128
1.09047e-129
3.13741e-131
8.91824e-133
2.50478e-134
6.95141e-136
1.90642e-137
5.16701e-139
1.38409e-140
3.66459e-142
9.60245e-144
2.49033e-145
6.39213e-147
1.62383e-148
4.08265e-150
1.01589e-151
2.50179e-153
6.09756e-155
1.47083e-156
3.51134e-158
8.29633e-160
1.94002e-161
4.48988e-163
1.02843e-164
2.33149e-166
5.23131e-168
1.16175e-169
2.55354e-171
5.55532e-173
1.19623e-174
2.54957e-176
5.37863e-178
1.12314e-179
2.32147e-181
4.74966e-183
9.61928e-185
1.92845e-186
3.82708e-188
7.51845e-190
1.46217e-191
2.81504e-193
5.36532e-195
1.01237e-196
1.89114e-198
3.4975e-200
6.40394e-202
1.16092e-203
2.08368e-205
3.7029e-207
6.51543e-209
1.13512e-210
1.95816e-212
3.34479e-214
5.65735e-216
9.47521e-218
1.57146e-219
2.58088e-221
4.19746e-223
6.76037e-225
1.07827e-226
1.70318e-228
2.66431e-230
4.12765e-232
6.33323e-234
9.62404e-236
1.44846e-237
2.15915e-239
3.18778e-241
4.66159e-243
6.75185e-245
9.6864e-247
1.37644e-248
1.93737e-250
2.70104e-252
3.73007e-254
5.10235e-256
6.91341e-258
9.27855e-260
1.23347e-261
1.62417e-263
2.11822e-265
2.73612e-267
3.5002e-269
4.43414e-271
5.56204e-273
6.90716e-275
8.49006e-277
1.03262e-278
1.24226e-280
1.47737e-282
1.73548e-284
2.01227e-286
2.29956e-288
2.5943e-290
1.19644e-32
9.84673e-31
1.03443e-29
5.05726e-29
7.42155e-29
4.81485e-29
1.77518e-29
5.39316e-30
1.42019e-30
3.40998e-31
7.55585e-32
1.54332e-32
2.91128e-33
5.09429e-34
8.31031e-35
1.26976e-35
1.82485e-36
2.47601e-37
3.18228e-38
3.88578e-39
4.51995e-40
5.02064e-41
5.33724e-42
5.44112e-43
5.32946e-44
5.024e-45
4.5654e-46
4.00508e-47
3.39659e-48
2.78824e-49
2.21813e-50
1.71198e-51
1.28326e-52
9.35107e-54
6.63027e-55
4.57823e-56
3.08112e-57
2.02252e-58
1.29585e-59
8.10938e-61
4.95978e-62
2.96643e-63
1.73599e-64
9.94548e-66
5.58067e-67
3.06854e-68
1.65406e-69
8.7443e-71
4.5355e-72
2.30893e-73
1.15408e-74
5.66557e-76
2.73256e-77
1.29522e-78
6.03517e-80
2.76517e-81
1.2461e-82
5.52439e-84
2.41002e-85
1.03479e-86
4.37397e-88
1.82043e-89
7.46156e-91
3.01247e-92
1.1982e-93
4.6959e-95
1.8137e-96
6.90449e-98
2.5911e-99
9.58704e-101
3.49777e-102
1.25852e-103
4.46631e-105
1.56354e-106
5.39997e-108
1.84012e-109
6.18759e-111
2.05335e-112
6.72539e-114
2.17434e-115
6.93957e-117
2.18664e-118
6.80298e-120
2.08996e-121
6.34059e-123
1.89982e-124
5.62238e-126
1.64357e-127
4.74623e-129
1.35405e-130
3.81662e-132
1.06295e-133
2.92523e-135
7.95531e-137
2.13813e-138
5.6801e-140
1.49338e-141
3.88569e-143
1.00057e-144
2.54981e-146
6.43046e-148
1.60491e-149
3.96403e-151
9.68942e-153
2.34388e-154
5.61114e-156
1.32938e-157
3.11694e-159
7.23264e-161
1.66095e-162
3.77493e-164
8.49109e-166
1.89026e-167
4.16477e-169
9.08188e-171
1.96012e-172
4.18714e-174
8.85293e-176
1.85267e-177
3.83758e-179
7.86816e-181
1.5968e-182
3.20775e-184
6.37864e-186
1.25557e-187
2.44652e-189
4.71909e-191
9.01111e-193
1.7034e-194
3.18773e-196
5.90585e-198
1.08325e-199
1.96709e-201
3.53655e-203
6.29515e-205
1.10945e-206
1.93597e-208
3.3449e-210
5.72228e-212
9.69321e-214
1.62587e-215
2.70042e-217
4.44135e-219
7.23339e-221
1.1666e-222
1.86322e-224
2.94696e-226
4.61596e-228
7.16035e-230
1.10002e-231
1.67365e-233
2.52196e-235
3.76379e-237
5.56332e-239
8.14464e-241
1.18099e-242
1.69613e-244
2.41278e-246
3.39961e-248
4.74455e-250
6.55873e-252
8.9806e-254
1.21801e-255
1.63628e-257
2.17729e-259
2.86963e-261
3.74603e-263
4.84325e-265
6.20153e-267
7.86365e-269
9.87341e-271
1.22734e-272
1.51022e-274
1.83896e-276
2.21522e-278
2.63862e-280
3.10595e-282
3.61128e-284
4.14445e-286
4.70141e-288
6.81355e-31
5.44774e-29
5.88697e-28
3.05137e-27
4.9355e-27
3.46215e-27
1.36628e-27
4.32369e-28
1.16562e-28
2.84505e-29
6.40018e-30
1.3247e-30
2.52669e-31
4.4619e-32
7.33408e-33
1.12775e-33
1.62954e-34
2.22138e-35
2.86686e-36
3.51375e-37
4.10142e-38
4.57081e-39
4.87466e-40
4.98537e-41
4.89873e-42
4.63305e-43
4.22426e-44
3.71864e-45
3.16497e-46
2.60775e-47
2.08252e-48
1.6137e-49
1.21456e-50
8.88789e-52
6.32927e-53
4.38989e-54
2.96786e-55
1.95725e-56
1.25999e-57
7.92307e-59
4.86959e-60
2.92697e-61
1.72151e-62
9.91262e-64
5.59074e-65
3.08994e-66
1.67425e-67
8.89733e-69
4.6391e-70
2.37411e-71
1.19293e-72
5.88729e-74
2.85456e-75
1.36023e-76
6.37171e-78
2.93486e-79
1.32958e-80
5.92571e-82
2.59876e-83
1.12172e-84
4.76636e-86
1.99415e-87
8.21634e-89
3.33448e-90
1.33316e-91
5.25185e-93
2.03886e-94
7.80139e-96
2.9426e-97
1.09427e-98
4.01248e-100
1.45094e-101
5.1748e-103
1.82051e-104
6.31831e-106
2.16355e-107
7.31031e-109
2.43756e-110
8.02179e-112
2.6057e-113
8.3552e-115
2.6449e-116
8.26652e-118
2.55113e-119
7.7746e-121
2.33988e-122
6.95531e-124
2.04211e-125
5.92262e-127
1.69689e-128
4.80321e-130
1.34331e-131
3.71207e-133
1.01364e-134
2.73533e-136
7.29676e-138
1.92622e-139
5.03191e-141
1.30079e-142
3.32759e-144
8.42361e-146
2.11014e-147
5.23085e-149
1.28316e-150
3.11485e-152
7.48252e-154
1.77875e-155
4.18445e-157
9.74151e-159
2.2443e-160
5.11693e-162
1.15456e-163
2.57812e-165
5.69746e-167
1.24611e-168
2.6973e-170
5.77847e-172
1.22521e-173
2.57118e-175
5.34054e-177
1.09793e-178
2.23413e-180
4.49984e-182
8.97111e-184
1.77037e-185
3.45829e-187
6.6872e-189
1.28003e-190
2.4255e-192
4.54982e-194
8.44902e-196
1.55327e-197
2.827e-199
5.09391e-201
9.08722e-203
1.605e-204
2.80667e-206
4.85945e-208
8.33056e-210
1.41403e-211
2.37657e-213
3.95509e-215
6.5176e-217
1.06353e-218
1.71852e-220
2.74983e-222
4.35727e-224
6.83736e-226
1.06252e-227
1.63517e-229
2.49218e-231
3.76177e-233
5.62353e-235
8.32599e-237
1.2209e-238
1.77317e-240
2.55064e-242
3.63399e-244
5.12815e-246
7.16776e-248
9.92329e-250
1.36075e-251
1.84823e-253
2.48648e-255
3.31333e-257
4.37307e-259
5.71665e-261
7.40145e-263
9.49053e-265
1.20513e-266
1.51532e-268
1.88649e-270
2.32492e-272
2.83578e-274
3.42234e-276
4.08522e-278
4.82134e-280
5.62431e-282
6.48351e-284
7.3957e-286
3.19599e-29
2.46781e-27
2.73891e-26
1.51446e-25
2.69078e-25
2.0704e-25
8.81394e-26
2.91047e-26
8.04341e-27
1.99356e-27
4.54863e-28
9.53126e-29
1.8362e-29
3.26855e-30
5.4071e-31
8.35792e-32
1.21293e-32
1.65957e-33
2.14876e-34
2.64138e-35
3.0917e-36
3.45482e-37
3.6944e-38
3.78868e-39
3.7334e-40
3.5414e-41
3.23898e-42
2.86064e-43
2.4431e-44
2.02025e-45
1.61946e-46
1.25985e-47
9.52131e-49
6.99719e-50
5.00482e-51
3.48702e-52
2.36845e-53
1.56941e-54
1.01525e-55
6.41579e-57
3.96313e-58
2.39434e-59
1.41555e-60
8.1937e-62
4.64577e-63
2.5814e-64
1.40624e-65
7.51355e-67
3.93892e-68
2.02682e-69
1.02401e-70
5.08146e-72
2.47742e-73
1.18704e-74
5.59116e-76
2.58957e-77
1.17964e-78
5.2865e-80
2.33123e-81
1.01179e-82
4.32292e-84
1.81856e-85
7.53394e-87
3.07426e-88
1.23582e-89
4.89487e-91
1.91057e-92
7.34996e-94
2.78723e-95
1.04205e-96
3.84136e-98
1.39644e-99
5.00673e-101
1.77065e-102
6.1774e-104
2.1263e-105
7.22162e-107
2.42038e-108
8.00594e-110
2.61376e-111
8.42336e-113
2.67985e-114
8.41744e-116
2.61055e-117
7.99474e-119
2.41786e-120
7.22183e-122
2.13053e-123
6.20846e-125
1.78718e-126
5.08245e-128
1.428e-129
3.96423e-131
1.08743e-132
2.9477e-134
7.89989e-136
2.09496e-137
5.49727e-139
1.42735e-140
3.66715e-142
9.32265e-144
2.34512e-145
5.83723e-147
1.43769e-148
3.50387e-150
8.44996e-152
2.01646e-153
4.76165e-155
1.11266e-156
2.57284e-158
5.88721e-160
1.3331e-161
2.98727e-163
6.6245e-165
1.4538e-166
3.15747e-168
6.78674e-170
1.4437e-171
3.03947e-173
6.33329e-175
1.30611e-176
2.66598e-178
5.38603e-180
1.07702e-181
2.13173e-183
4.17639e-185
8.09914e-187
1.55473e-188
2.95432e-190
5.55721e-192
1.03481e-193
1.90755e-195
3.48109e-197
6.28906e-199
1.12485e-200
1.99184e-202
3.49198e-204
6.06115e-206
1.04163e-207
1.77238e-209
2.98603e-211
4.98118e-213
8.22774e-215
1.3457e-216
2.17943e-218
3.49521e-220
5.55071e-222
8.72923e-224
1.35945e-225
2.09662e-227
3.20224e-229
4.84362e-231
7.2557e-233
1.07643e-234
1.58162e-236
2.3016e-238
3.31724e-240
4.73532e-242
6.69504e-244
9.37546e-246
1.30039e-247
1.78647e-249
2.43088e-251
3.27626e-253
4.37356e-255
5.7827e-257
7.57283e-259
9.82212e-261
1.26169e-262
1.60502e-264
2.02186e-266
2.52185e-268
3.11408e-270
3.80631e-272
4.60416e-274
5.51015e-276
6.52277e-278
7.63698e-280
8.84426e-282
1.01442e-283
1.25978e-27
9.32432e-26
1.06273e-24
6.30697e-24
1.22438e-23
1.05049e-23
4.87443e-24
1.68006e-24
4.76846e-25
1.19821e-25
2.76837e-26
5.86392e-27
1.13921e-27
2.04074e-28
3.39218e-29
5.26277e-30
7.65987e-31
1.05059e-31
1.36315e-32
1.67895e-33
1.96895e-34
2.20451e-35
2.36225e-36
2.4279e-37
2.39823e-38
2.28082e-39
2.09195e-40
1.85322e-41
1.5879e-42
1.31765e-43
1.06016e-44
8.27963e-46
6.28297e-47
4.63709e-48
3.33147e-49
2.33181e-50
1.59132e-51
1.05959e-52
6.88859e-54
4.37535e-55
2.71673e-56
1.64996e-57
9.80675e-59
5.70716e-60
3.25359e-61
1.8178e-62
9.9576e-64
5.35007e-65
2.82049e-66
1.45951e-67
7.41564e-69
3.70077e-70
1.81455e-71
8.74384e-73
4.14202e-74
1.92935e-75
8.83907e-77
3.98382e-78
1.76681e-79
7.71198e-81
3.31375e-82
1.40195e-83
5.84102e-85
2.39697e-86
9.69008e-88
3.85972e-89
1.515e-90
5.86094e-92
2.23501e-93
8.4025e-95
3.11468e-96
1.13854e-97
4.1046e-99
1.45958e-100
5.12003e-102
1.77195e-103
6.05078e-105
2.03891e-106
6.7804e-108
2.22549e-109
7.21022e-111
2.30603e-112
7.2814e-114
2.27004e-115
6.98809e-117
2.12435e-118
6.37776e-120
1.89112e-121
5.53879e-123
1.60244e-124
4.5799e-126
1.29319e-127
3.60773e-129
9.94489e-131
2.70888e-132
7.29632e-134
1.94445e-135
5.12704e-137
1.33756e-138
3.45256e-140
8.81753e-142
2.2281e-143
5.57067e-145
1.37806e-146
3.37304e-148
8.16904e-150
1.95759e-151
4.64171e-153
1.08905e-154
2.52833e-156
5.80822e-158
1.32033e-159
2.97004e-161
6.61127e-163
1.45633e-164
3.17462e-166
6.84846e-168
1.46207e-169
3.08906e-171
6.45914e-173
1.33667e-174
2.73766e-176
5.54949e-178
1.1134e-179
2.21098e-181
4.3457e-183
8.45449e-185
1.62808e-186
3.10338e-188
5.85561e-190
1.0937e-191
2.02219e-193
3.70128e-195
6.70652e-197
1.20301e-198
2.13635e-200
3.75594e-202
6.5376e-204
1.12662e-205
1.92225e-207
3.24727e-209
5.43145e-211
8.99518e-213
1.47506e-214
2.3951e-216
3.85087e-218
6.13093e-220
9.66571e-222
1.509e-223
2.33292e-225
3.5717e-227
5.41531e-229
8.13112e-231
1.20911e-232
1.78064e-234
2.59709e-236
3.75151e-238
5.36713e-240
7.60498e-242
1.06729e-243
1.48352e-245
2.0424e-247
2.78501e-249
3.76141e-251
5.03168e-253
6.66668e-255
8.74856e-257
1.13706e-258
1.46365e-260
1.86586e-262
2.35549e-264
2.94447e-266
3.6443e-268
4.46522e-270
5.41538e-272
6.4999e-274
7.72011e-276
9.0741e-278
1.05576e-279
1.21744e-281
4.24642e-26
2.98393e-24
3.497e-23
2.23638e-22
4.719e-22
4.59592e-22
2.345e-22
8.45614e-23
2.47142e-23
6.28318e-24
1.46615e-24
3.13243e-25
6.12301e-26
1.10135e-26
1.83557e-27
2.85266e-28
4.15671e-29
5.70589e-30
7.40879e-31
9.13209e-32
1.0719e-32
1.20144e-33
1.28913e-34
1.32709e-35
1.31336e-36
1.2518e-37
1.151e-38
1.02249e-39
8.78791e-41
7.31658e-42
5.90793e-43
4.63168e-44
3.529e-45
2.61567e-46
1.88758e-47
1.32731e-48
9.10153e-50
6.09027e-51
3.9795e-52
2.54074e-53
1.58594e-54
9.68385e-56
5.78722e-57
3.38661e-58
1.94148e-59
1.09086e-60
6.00959e-62
3.2474e-63
1.72188e-64
8.96181e-66
4.57994e-67
2.29897e-68
1.13382e-69
5.49564e-71
2.61861e-72
1.22692e-73
5.65399e-75
2.56327e-76
1.14347e-77
5.02048e-79
2.16989e-80
9.23396e-82
3.86969e-83
1.59727e-84
6.4948e-86
2.60203e-87
1.02726e-88
3.99707e-90
1.53304e-91
5.79662e-93
2.16105e-94
7.94473e-96
2.88052e-97
1.03012e-98
3.63401e-100
1.26476e-101
4.34315e-103
1.47169e-104
4.92141e-106
1.6243e-107
5.29156e-109
1.70171e-110
5.40267e-112
1.69352e-113
5.24162e-115
1.60203e-116
4.8355e-118
1.44148e-119
4.24429e-121
1.23442e-122
3.54661e-124
1.00666e-125
2.82296e-127
7.82185e-129
2.14152e-130
5.79872e-132
1.55339e-133
4.11687e-135
1.07943e-136
2.80005e-138
7.1859e-140
1.82451e-141
4.58314e-143
1.13904e-144
2.80075e-146
6.81362e-148
1.64004e-149
3.90581e-151
9.20349e-153
2.14578e-154
4.95014e-156
1.12994e-157
2.55215e-159
5.70398e-161
1.26148e-162
2.76068e-164
5.97858e-166
1.28125e-167
2.71726e-169
5.70295e-171
1.18453e-172
2.43491e-174
4.95354e-176
9.97369e-178
1.98752e-179
3.92006e-181
7.65257e-183
1.47865e-184
2.82799e-186
5.35368e-188
1.00323e-189
1.86092e-191
3.417e-193
6.21103e-195
1.11761e-196
1.99085e-198
3.51086e-200
6.12952e-202
1.05946e-203
1.81302e-205
3.07172e-207
5.15271e-209
8.55803e-211
1.40735e-212
2.29157e-214
3.69465e-216
5.89836e-218
9.3243e-220
1.45961e-221
2.26256e-223
3.4731e-225
5.2795e-227
7.94762e-229
1.18483e-230
1.74928e-232
2.55773e-234
3.70379e-236
5.31181e-238
7.54483e-240
1.06139e-241
1.47883e-243
2.04075e-245
2.78928e-247
3.77595e-249
5.06283e-251
6.72345e-253
8.84341e-255
1.15205e-256
1.48639e-258
1.8993e-260
2.40345e-262
3.01181e-264
3.73715e-266
4.5913e-268
5.58437e-270
6.72395e-272
8.0146e-274
9.45835e-276
1.10561e-277
1.2816e-279
1.24645e-24
8.20779e-23
9.91099e-22
6.82581e-21
1.5612e-20
1.75957e-20
9.88512e-21
3.76242e-21
1.13621e-21
2.91555e-22
6.84374e-23
1.47029e-23
2.88308e-24
5.19205e-25
8.65287e-26
1.34374e-26
1.95596e-27
2.68204e-28
3.47925e-29
4.28572e-30
5.0289e-31
5.63714e-32
6.05155e-33
6.23541e-34
6.17906e-35
5.89961e-36
5.43599e-37
4.84102e-38
4.17243e-39
3.48481e-40
2.82362e-41
2.22193e-42
1.69972e-43
1.26516e-44
9.17073e-46
6.47876e-47
4.46408e-48
3.00209e-49
1.97173e-50
1.26552e-51
7.94208e-53
4.87617e-54
2.93037e-55
1.72454e-56
9.94326e-58
5.61919e-59
3.11375e-60
1.69249e-61
9.02728e-63
4.72637e-64
2.42986e-65
1.22702e-66
6.08785e-68
2.96855e-69
1.423e-70
6.70751e-72
3.10967e-73
1.41829e-74
6.36512e-76
2.81147e-77
1.22245e-78
5.2334e-80
2.20632e-81
9.16145e-83
3.7475e-84
1.51033e-85
5.99818e-87
2.34775e-88
9.0579e-90
3.44515e-91
1.29197e-92
4.7776e-94
1.74236e-95
6.2674e-97
2.22386e-98
7.78473e-100
2.68871e-101
9.16333e-103
3.08187e-104
1.02298e-105
3.35163e-107
1.08397e-108
3.4609e-110
1.09096e-111
3.39559e-113
1.04362e-114
3.16751e-116
9.49473e-118
2.81103e-119
8.22049e-121
2.37471e-122
6.7769e-124
1.91069e-125
5.32258e-127
1.46505e-128
3.98891e-130
1.07437e-131
2.86257e-133
7.545e-135
1.96729e-136
5.07442e-138
1.29485e-139
3.26866e-141
8.16291e-143
2.01674e-144
4.92938e-146
1.192e-147
2.85176e-149
6.75003e-151
1.58075e-152
3.66262e-154
8.39657e-156
1.90458e-157
4.2746e-159
9.49283e-161
2.08598e-162
4.53573e-164
9.75926e-166
2.07791e-167
4.37812e-169
9.12867e-171
1.88364e-172
3.84649e-174
7.77356e-176
1.55479e-177
3.07775e-179
6.02991e-181
1.16927e-182
2.24417e-184
4.26325e-186
8.01647e-188
1.49208e-189
2.74899e-191
5.0135e-193