/*--------------------------------*- C++ -*----------------------------------*\
  =========                 |
  \\      /  F ield         | OpenFOAM: The Open Source CFD Toolbox
   \\    /   O peration     | Website:  https://openfoam.org
    \\  /    A nd           | Version:  9
     \\/     M anipulation  |
\*---------------------------------------------------------------------------*/
FoamFile
{
    format      ascii;
    class       volVectorField;
    location    "0.001";
    object      UMean;
}
// * * * * * * * * * * * * * * * * * * * * * * * * * * * * * * * * * * * * * //

dimensions      [0 1 -1 0 0 0 0];

internalField   nonuniform List<vector> 
12225
(
(9.74634 0.0690267 0)
(9.49563 0.0806861 0)
(9.39756 0.0519051 0)
(9.27983 0.0233115 0)
(9.13826 0.00183124 0)
(9.10125 -0.0116149 0)
(9.19509 -0.0198587 0)
(9.33561 -0.0132013 0)
(9.46675 -0.0342944 0)
(9.59735 0.00366322 0)
(9.79118 -0.0732459 0)
(9.98211 0.0309113 0)
(10.2366 -0.140963 0)
(10.6466 0.0601959 0)
(10.9511 -0.237541 0)
(11.532 0.102923 0)
(12.5438 -0.65165 0)
(13.7456 0.0529941 0)
(9.9625 0.0285547 0)
(10.1733 0.028559 0)
(10.3834 0.0291891 0)
(10.4395 0.027394 0)
(10.3709 0.0141555 0)
(10.336 -0.00888229 0)
(10.3871 -0.0270094 0)
(10.5197 -0.0500524 0)
(10.6044 -0.0424146 0)
(10.7936 -0.0965299 0)
(10.9081 -0.0548256 0)
(11.1789 -0.145244 0)
(11.3891 -0.111542 0)
(11.7753 -0.236743 0)
(12.0632 -0.160769 0)
(12.8099 -0.484808 0)
(13.3197 -0.55793 0)
(14.4001 -1.22713 0)
(10.0134 0.0280394 0)
(10.0042 0.037634 0)
(10.1094 0.0240287 0)
(10.1769 0.0108584 0)
(10.1831 -0.00647767 0)
(10.2247 -0.028471 0)
(10.349 -0.0592206 0)
(10.4905 -0.0691653 0)
(10.6375 -0.112581 0)
(10.7657 -0.102593 0)
(10.9471 -0.177311 0)
(11.1513 -0.159925 0)
(11.4084 -0.281086 0)
(11.6837 -0.271747 0)
(12.1003 -0.467559 0)
(12.5629 -0.601019 0)
(13.1276 -1.00126 0)
(13.827 -1.65081 0)
(9.97468 0.0250098 0)
(10.0378 0.0506394 0)
(10.1621 0.0278753 0)
(10.2181 0.00109584 0)
(10.2072 -0.0291613 0)
(10.2386 -0.0627996 0)
(10.3507 -0.0909363 0)
(10.495 -0.122559 0)
(10.624 -0.139508 0)
(10.7631 -0.187662 0)
(10.9295 -0.2108 0)
(11.132 -0.274868 0)
(11.3708 -0.344583 0)
(11.6544 -0.453953 0)
(12.0078 -0.589373 0)
(12.4253 -0.849587 0)
(12.9016 -1.27087 0)
(13.3998 -1.877 0)
(9.75534 0.0163128 0)
(9.87436 0.0475532 0)
(10.0665 0.0103027 0)
(10.1718 -0.0201239 0)
(10.1817 -0.0510194 0)
(10.2188 -0.0852921 0)
(10.3364 -0.123557 0)
(10.4795 -0.153578 0)
(10.6117 -0.196435 0)
(10.7464 -0.231349 0)
(10.9075 -0.289347 0)
(11.102 -0.35546 0)
(11.3318 -0.4505 0)
(11.5886 -0.579067 0)
(11.9032 -0.758363 0)
(12.2612 -1.06347 0)
(12.6384 -1.47031 0)
(12.9823 -2.10144 0)
(9.78798 -0.0273344 0)
(9.86602 0.013319 0)
(10.0622 -0.00860107 0)
(10.1655 -0.0406071 0)
(10.1696 -0.0799009 0)
(10.2055 -0.122628 0)
(10.3241 -0.163794 0)
(10.4675 -0.203896 0)
(10.5971 -0.245061 0)
(10.7254 -0.295996 0)
(10.8809 -0.360475 0)
(11.0639 -0.439852 0)
(11.2741 -0.554376 0)
(11.5079 -0.709299 0)
(11.7817 -0.916848 0)
(12.0713 -1.22737 0)
(12.3559 -1.65484 0)
(12.588 -2.25462 0)
(9.97085 0.0211883 0)
(10.0039 -0.00142979 0)
(10.163 -0.0328282 0)
(10.2443 -0.067277 0)
(10.2255 -0.107156 0)
(10.236 -0.151512 0)
(10.3332 -0.198073 0)
(10.4618 -0.24427 0)
(10.5807 -0.295402 0)
(10.701 -0.356398 0)
(10.8461 -0.429321 0)
(11.014 -0.528334 0)
(11.2056 -0.655922 0)
(11.412 -0.827719 0)
(11.638 -1.05509 0)
(11.8653 -1.37733 0)
(12.0766 -1.79162 0)
(12.2223 -2.32421 0)
(9.94964 -0.0108836 0)
(9.99941 -0.0138545 0)
(10.1381 -0.0289194 0)
(10.1929 -0.0679322 0)
(10.1633 -0.120488 0)
(10.1801 -0.17849 0)
(10.2904 -0.236066 0)
(10.4283 -0.291842 0)
(10.5496 -0.350552 0)
(10.6659 -0.418668 0)
(10.801 -0.503246 0)
(10.9548 -0.612312 0)
(11.1238 -0.751576 0)
(11.2981 -0.938832 0)
(11.4818 -1.17696 0)
(11.655 -1.49096 0)
(11.7984 -1.8796 0)
(11.8722 -2.36243 0)
(9.77661 -0.00576879 0)
(9.82908 -0.0229497 0)
(10.0021 -0.0480088 0)
(10.1178 -0.0920391 0)
(10.1408 -0.150232 0)
(10.1818 -0.213689 0)
(10.2927 -0.276628 0)
(10.4206 -0.338396 0)
(10.5287 -0.403471 0)
(10.6312 -0.479867 0)
(10.7512 -0.572848 0)
(10.886 -0.691366 0)
(11.03 -0.841883 0)
(11.1739 -1.0347 0)
(11.3163 -1.27338 0)
(11.438 -1.57709 0)
(11.527 -1.93823 0)
(11.5526 -2.36333 0)
(9.8593 -0.00172919 0)
(9.92278 -0.0402975 0)
(10.0741 -0.0788932 0)
(10.1481 -0.134613 0)
(10.1368 -0.19909 0)
(10.1593 -0.263905 0)
(10.2628 -0.326719 0)
(10.387 -0.389788 0)
(10.4898 -0.458498 0)
(10.5836 -0.539999 0)
(10.6901 -0.63969 0)
(10.8064 -0.765249 0)
(10.9264 -0.92051 0)
(11.0393 -1.11472 0)
(11.1434 -1.34976 0)
(11.2234 -1.63527 0)
(11.2689 -1.96154 0)
(11.2548 -2.33433 0)
(9.84271 -0.0167702 0)
(9.91822 -0.0432157 0)
(10.0948 -0.0817136 0)
(10.1894 -0.138242 0)
(10.1827 -0.208435 0)
(10.1917 -0.283462 0)
(10.2732 -0.357432 0)
(10.3757 -0.430255 0)
(10.4596 -0.506909 0)
(10.536 -0.595056 0)
(10.6244 -0.70061 0)
(10.72 -0.830147 0)
(10.8148 -0.987298 0)
(10.8984 -1.1786 0)
(10.9691 -1.40293 0)
(11.0126 -1.66685 0)
(11.0225 -1.95997 0)
(10.9807 -2.2846 0)
(9.83301 -0.0145852 0)
(9.91569 -0.069058 0)
(10.0888 -0.123411 0)
(10.1618 -0.182577 0)
(10.1346 -0.250076 0)
(10.1368 -0.323098 0)
(10.2213 -0.396819 0)
(10.3274 -0.471213 0)
(10.4096 -0.550825 0)
(10.4786 -0.64234 0)
(10.5543 -0.75082 0)
(10.6328 -0.881684 0)
(10.7065 -1.03722 0)
(10.7656 -1.22195 0)
(10.8091 -1.43373 0)
(10.8253 -1.6762 0)
(10.8104 -1.93791 0)
(10.7501 -2.22109 0)
(9.8705 -0.0320626 0)
(9.86916 -0.0685175 0)
(9.99414 -0.129086 0)
(10.0764 -0.188964 0)
(10.0777 -0.261739 0)
(10.0999 -0.345069 0)
(10.1907 -0.428187 0)
(10.2932 -0.508632 0)
(10.3662 -0.591635 0)
(10.4224 -0.684831 0)
(10.4827 -0.793697 0)
(10.5433 -0.922952 0)
(10.5964 -1.07397 0)
(10.6332 -1.24982 0)
(10.6531 -1.44709 0)
(10.6467 -1.66784 0)
(10.612 -1.90099 0)
(10.5382 -2.14886 0)
(9.8556 -0.00014219 0)
(9.89132 -0.0580637 0)
(10.0166 -0.146079 0)
(10.0796 -0.23536 0)
(10.0574 -0.322855 0)
(10.0648 -0.405834 0)
(10.1483 -0.482503 0)
(10.2445 -0.556973 0)
(10.308 -0.636378 0)
(10.3511 -0.727288 0)
(10.3951 -0.833583 0)
(10.4367 -0.958358 0)
(10.4685 -1.10173 0)
(10.4827 -1.2652 0)
(10.48 -1.44461 0)
(10.4529 -1.64089 0)
(10.4014 -1.84343 0)
(10.3178 -2.05471 0)
(9.96285 -0.0217652 0)
(10.0077 -0.102864 0)
(10.1304 -0.150415 0)
(10.1735 -0.229513 0)
(10.1212 -0.330556 0)
(10.0931 -0.429732 0)
(10.1432 -0.516685 0)
(10.2115 -0.595255 0)
(10.2513 -0.674647 0)
(10.2727 -0.762867 0)
(10.2955 -0.864247 0)
(10.3154 -0.981319 0)
(10.3249 -1.11341 0)
(10.317 -1.26084 0)
(10.2934 -1.41902 0)
(10.2487 -1.58823 0)
(10.1842 -1.75889 0)
(10.0942 -1.934 0)
(9.94317 -0.0422501 0)
(9.98289 -0.0994513 0)
(10.1188 -0.153621 0)
(10.1702 -0.238356 0)
(10.1149 -0.34437 0)
(10.0755 -0.448221 0)
(10.1092 -0.538928 0)
(10.1582 -0.619563 0)
(10.1775 -0.698496 0)
(10.1783 -0.783184 0)
(10.1801 -0.877744 0)
(10.179 -0.984291 0)
(10.1675 -1.10186 0)
(10.1399 -1.23013 0)
(10.0987 -1.36467 0)
(10.0402 -1.50561 0)
(9.96657 -1.64481 0)
(9.87375 -1.78568 0)
(9.93353 -0.0293304 0)
(9.96073 -0.111764 0)
(10.0969 -0.18863 0)
(10.1443 -0.277945 0)
(10.0872 -0.378399 0)
(10.043 -0.474247 0)
(10.0644 -0.557557 0)
(10.0956 -0.631845 0)
(10.0944 -0.7045 0)
(10.0742 -0.781485 0)
(10.0551 -0.865786 0)
(10.0338 -0.958706 0)
(10.0031 -1.05901 0)
(9.95856 -1.16604 0)
(9.90331 -1.27593 0)
(9.83493 -1.38887 0)
(9.75581 -1.49833 0)
(9.66305 -1.60785 0)
(10.1788 -0.0224683 0)
(10.1997 -0.0693999 0)
(10.2939 -0.154143 0)
(10.2776 -0.246222 0)
(10.15 -0.343286 0)
(10.0465 -0.439723 0)
(10.0259 -0.5272 0)
(10.0269 -0.604251 0)
(10.0015 -0.67527 0)
(9.96038 -0.74562 0)
(9.92227 -0.81876 0)
(9.88367 -0.896461 0)
(9.83739 -0.978083 0)
(9.7801 -1.06318 0)
(9.71497 -1.14881 0)
(9.64062 -1.23533 0)
(9.55925 -1.31781 0)
(9.4688 -1.3996 0)
(9.87136 -0.0229604 0)
(9.89909 -0.0402862 0)
(10.0108 -0.0830041 0)
(10.0494 -0.157641 0)
(9.98146 -0.263452 0)
(9.92035 -0.374491 0)
(9.9206 -0.470248 0)
(9.92539 -0.547227 0)
(9.89342 -0.611497 0)
(9.84101 -0.670397 0)
(9.78993 -0.728802 0)
(9.73867 -0.789114 0)
(9.68097 -0.85122 0)
(9.61483 -0.914852 0)
(9.54343 -0.977892 0)
(9.46622 -1.04076 0)
(9.38493 -1.09995 0)
(9.29817 -1.15827 0)
(9.94997 -0.0252494 0)
(9.96641 -0.0993884 0)
(10.0824 -0.166566 0)
(10.0989 -0.232677 0)
(9.99781 -0.304526 0)
(9.90943 -0.375637 0)
(9.88716 -0.438026 0)
(9.87215 -0.490372 0)
(9.82374 -0.53614 0)
(9.75846 -0.57949 0)
(9.697 -0.623111 0)
(9.63738 -0.66822 0)
(9.57297 -0.714435 0)
(9.5022 -0.761421 0)
(9.42789 -0.807613 0)
(9.34995 -0.853361 0)
(9.26956 -0.896178 0)
(9.18581 -0.938227 0)
(9.90372 -0.0502189 0)
(9.95924 -0.0477826 0)
(10.0934 -0.0676464 0)
(10.1134 -0.136955 0)
(10.0081 -0.224303 0)
(9.90703 -0.303662 0)
(9.86938 -0.366615 0)
(9.8412 -0.415414 0)
(9.78249 -0.455591 0)
(9.70911 -0.491966 0)
(9.64107 -0.527421 0)
(9.57619 -0.563323 0)
(9.50764 -0.599621 0)
(9.43409 -0.636196 0)
(9.35809 -0.671932 0)
(9.27978 -0.707154 0)
(9.19998 -0.739997 0)
(9.11806 -0.772174 0)
(9.75369 -0.065611 0)
(9.81087 -0.122558 0)
(9.97262 -0.145688 0)
(10.0228 -0.161832 0)
(9.93865 -0.196054 0)
(9.85184 -0.245053 0)
(9.82352 -0.295354 0)
(9.80008 -0.339391 0)
(9.74266 -0.37638 0)
(9.66864 -0.408581 0)
(9.59898 -0.438465 0)
(9.53223 -0.467679 0)
(9.46192 -0.496625 0)
(9.38719 -0.52544 0)
(9.31054 -0.553384 0)
(9.23234 -0.580777 0)
(9.1532 -0.60622 0)
(9.07271 -0.631082 0)
(9.96575 -0.058078 0)
(9.928 -0.111866 0)
(9.9855 -0.136298 0)
(9.96758 -0.154222 0)
(9.86256 -0.186527 0)
(9.78428 -0.226395 0)
(9.77221 -0.262888 0)
(9.76117 -0.292767 0)
(9.71044 -0.317716 0)
(9.63907 -0.340246 0)
(9.5697 -0.362077 0)
(9.50221 -0.384084 0)
(9.4309 -0.406257 0)
(9.35544 -0.428503 0)
(9.27838 -0.450145 0)
(9.20029 -0.471381 0)
(9.12162 -0.49111 0)
(9.0421 -0.510384 0)
(9.84409 0.00156084 0)
(9.82865 -0.0158557 0)
(9.91072 -0.0540376 0)
(9.92387 -0.101701 0)
(9.84401 -0.154296 0)
(9.77879 -0.199813 0)
(9.7689 -0.231284 0)
(9.75455 -0.251294 0)
(9.69948 -0.265943 0)
(9.62454 -0.279625 0)
(9.55253 -0.294171 0)
(9.48315 -0.309949 0)
(9.41049 -0.326517 0)
(9.33423 -0.343473 0)
(9.25676 -0.360108 0)
(9.17869 -0.376484 0)
(9.10031 -0.391719 0)
(9.02144 -0.406608 0)
(9.91945 -0.0249083 0)
(9.96244 -0.0503634 0)
(10.1047 -0.0837206 0)
(10.1247 -0.12409 0)
(10.0043 -0.162664 0)
(9.88252 -0.188871 0)
(9.82407 -0.202172 0)
(9.7774 -0.208967 0)
(9.70397 -0.21499 0)
(9.61958 -0.222691 0)
(9.54287 -0.232413 0)
(9.47108 -0.243795 0)
(9.39709 -0.256144 0)
(9.32013 -0.268949 0)
(9.24233 -0.28158 0)
(9.16424 -0.294042 0)
(9.08604 -0.305652 0)
(9.0076 -0.316995 0)
(9.91708 -0.0067205 0)
(9.93882 -0.0559238 0)
(10.0725 -0.0622843 0)
(10.0967 -0.0700917 0)
(9.98815 -0.0898653 0)
(9.87722 -0.111922 0)
(9.82363 -0.13047 0)
(9.77686 -0.145081 0)
(9.7014 -0.156692 0)
(9.61488 -0.166419 0)
(9.5364 -0.175452 0)
(9.46329 -0.184628 0)
(9.3884 -0.194069 0)
(9.31093 -0.203673 0)
(9.23288 -0.213085 0)
(9.15476 -0.222352 0)
(9.07667 -0.230989 0)
(8.9985 -0.23941 0)
(9.96973 -0.0060577 0)
(9.97111 -0.0532221 0)
(10.0634 -0.0778984 0)
(10.052 -0.0953468 0)
(9.93123 -0.106596 0)
(9.82763 -0.110542 0)
(9.78898 -0.111455 0)
(9.75558 -0.113352 0)
(9.68885 -0.116945 0)
(9.60689 -0.121609 0)
(9.53022 -0.127077 0)
(9.45753 -0.133279 0)
(9.38259 -0.139915 0)
(9.30501 -0.14672 0)
(9.22688 -0.153403 0)
(9.14878 -0.159987 0)
(9.07079 -0.166134 0)
(8.99281 -0.172125 0)
(9.92808 -0.0160098 0)
(9.99925 -0.0277224 0)
(10.1321 -0.0299045 0)
(10.1375 -0.0363352 0)
(10.0132 -0.0473761 0)
(9.89119 -0.0580879 0)
(9.82948 -0.0666343 0)
(9.77745 -0.0732114 0)
(9.69929 -0.0778216 0)
(9.61139 -0.0811516 0)
(9.53187 -0.0844535 0)
(9.4579 -0.0883425 0)
(9.38251 -0.092641 0)
(9.30484 -0.0970661 0)
(9.22683 -0.101404 0)
(9.1489 -0.105699 0)
(9.07123 -0.109707 0)
(8.99352 -0.113664 0)
(9.77426 -0.0418983 0)
(9.8463 -0.0586544 0)
(10.0075 -0.0635417 0)
(10.0474 -0.062828 0)
(9.95442 -0.0549576 0)
(9.85783 -0.0444979 0)
(9.81421 -0.0386486 0)
(9.77388 -0.0390878 0)
(9.70284 -0.0420164 0)
(9.61886 -0.0445919 0)
(9.54137 -0.0468185 0)
(9.46871 -0.0492832 0)
(9.39461 -0.0519078 0)
(9.31815 -0.0544921 0)
(9.24146 -0.0569109 0)
(9.16458 -0.0592898 0)
(9.08825 -0.0614776 0)
(9.01135 -0.0636625 0)
(9.8394 -0.0393869 0)
(9.70494 -0.0468839 0)
(9.63818 -0.0447616 0)
(9.48534 -0.0357543 0)
(9.26349 -0.0265855 0)
(9.10658 -0.0190481 0)
(9.04811 -0.0147873 0)
(9.0058 -0.0138462 0)
(8.93235 -0.0141452 0)
(8.84694 -0.0143467 0)
(8.76987 -0.0145986 0)
(8.69779 -0.0152008 0)
(8.62349 -0.0159928 0)
(8.54678 -0.0167933 0)
(8.46973 -0.0175113 0)
(8.39322 -0.0182139 0)
(8.3167 -0.0188408 0)
(8.24114 -0.019464 0)
(0.0422116 -0.0924672 4.00056e-21)
(0.134836 -0.100854 -3.97467e-21)
(0.230871 -0.0996489 0)
(0.326863 -0.0992482 0)
(0.423254 -0.0990013 0)
(0.520185 -0.0987044 3.87505e-21)
(0.617595 -0.0983409 0)
(0.715412 -0.0979087 0)
(0.813566 -0.0974048 0)
(0.911982 -0.0968255 0)
(1.01058 -0.0961672 -3.77003e-21)
(1.10927 -0.0954263 0)
(1.20796 -0.0945996 0)
(1.30656 -0.0936845 0)
(1.40495 -0.0926791 0)
(1.50304 -0.0915824 -3.67711e-21)
(1.60072 -0.0903942 0)
(1.69787 -0.0891151 0)
(1.79437 -0.0877468 0)
(1.89013 -0.086292 0)
(1.98501 -0.084754 0)
(2.07891 -0.0831374 0)
(2.17173 -0.081447 0)
(2.26335 -0.0796888 -3.52631e-21)
(2.35368 -0.0778689 3.50596e-21)
(2.44262 -0.0759942 -3.48517e-21)
(2.53009 -0.0740716 -3.46392e-21)
(2.616 -0.0721085 0)
(2.70027 -0.0701122 0)
(2.78284 -0.0680901 3.39748e-21)
(2.86366 -0.0660495 3.37447e-21)
(2.94265 -0.0639973 0)
(3.01979 -0.0619405 0)
(3.09502 -0.0598855 3.30311e-21)
(3.16833 -0.0578385 0)
(3.23969 -0.0558052 0)
(3.30908 -0.0537908 -3.22884e-21)
(3.3765 -0.0518003 0)
(3.44193 -0.0498381 -3.17814e-21)
(3.50538 -0.047908 -6.30506e-21)
(3.56686 -0.0460136 0)
(3.62638 -0.0441579 0)
(3.68396 -0.0423435 0)
(3.73961 -0.0405727 0)
(3.79336 -0.0388474 0)
(3.84524 -0.0371689 -5.99441e-21)
(3.89529 -0.0355385 -5.94261e-21)
(3.94352 -0.0339569 -5.89094e-21)
(3.98998 -0.0324248 0)
(4.03471 -0.0309424 5.78814e-21)
(4.07773 -0.0295099 0)
(4.11911 -0.028127 -5.68632e-21)
(4.15886 -0.0267936 -5.63585e-21)
(4.19704 -0.025509 0)
(4.23369 -0.0242727 0)
(4.26885 -0.0230838 0)
(4.30256 -0.0219417 -5.43752e-21)
(4.33487 -0.0208453 0)
(4.36582 -0.0197937 0)
(4.39545 -0.0187857 0)
(4.42381 -0.0178202 0)
(4.45093 -0.0168961 0)
(4.47685 -0.0160122 0)
(4.50163 -0.0151673 0)
(4.52529 -0.0143601 0)
(4.54789 -0.0135894 5.01608e-21)
(4.56944 -0.012854 0)
(4.59001 -0.0121526 0)
(4.60961 -0.0114841 -4.88387e-21)
(4.62829 -0.0108473 -4.84073e-21)
(4.64608 -0.0102409 0)
(4.66302 -0.00966388 4.75581e-21)
(4.67914 -0.00911501 -4.71403e-21)
(4.69447 -0.00859317 0)
(4.70905 -0.00809731 4.6318e-21)
(4.7229 -0.00762635 0)
(4.73605 -0.00717925 0)
(4.74854 -0.00675499 -4.5117e-21)
(4.7604 -0.00635264 0)
(4.77164 -0.0059712 4.43372e-21)
(4.78229 -0.0056098 0)
(4.79239 -0.00526748 -4.35737e-21)
(4.80195 -0.00494346 -4.31978e-21)
(4.811 -0.00463684 -4.28258e-21)
(4.81956 -0.00434684 -8.4915e-21)
(4.82765 -0.00407266 8.41859e-21)
(4.8353 -0.0038136 0)
(4.84252 -0.00356881 0)
(4.84934 -0.00333768 0)
(4.85577 -0.00311931 8.13413e-21)
(4.86183 -0.00291354 8.06474e-21)
(4.86754 -0.00271738 -7.99602e-21)
(4.87292 -0.00253149 0)
(4.87797 -0.00235256 7.86052e-21)
(4.88272 -0.0021672 7.79372e-21)
(4.88715 -0.0019873 7.72754e-21)
(4.89128 -0.00183059 0)
(4.89514 -0.00169461 0)
(4.89875 -0.00157298 0)
(4.90214 -0.00146122 7.46874e-21)
(4.90531 -0.00135701 0)
(4.90827 -0.00125919 0)
(4.91105 -0.00116723 -7.28065e-21)
(4.91364 -0.00108083 0)
(4.91607 -0.000999623 0)
(4.91833 -0.000923506 -7.09743e-21)
(4.92044 -0.000852103 0)
(4.9224 -0.00078536 0)
(4.92423 -0.00072288 6.91888e-21)
(4.92592 -0.000664597 6.86036e-21)
(4.9275 -0.000610107 0)
(4.92896 -0.000559356 -6.74479e-21)
(4.93032 -0.00051196 0)
(4.93157 -0.000467881 6.63111e-21)
(4.93273 -0.000426777 0)
(4.93379 -0.000388571 6.51927e-21)
(4.93478 -0.000352998 6.46403e-21)
(4.93568 -0.000319945 0)
(4.93651 -0.000289291 0)
(4.93727 -0.000260886 0)
(4.93796 -0.000234582 0)
(4.93859 -0.000210184 0)
(4.93917 -0.00018746 0)
(4.93969 -0.000166414 0)
(4.94016 -0.000146851 6.03759e-21)
(4.94058 -0.000128871 -5.98614e-21)
(4.94096 -0.000112219 0)
(4.9413 -9.69339e-05 0)
(4.94159 -8.27772e-05 0)
(4.94186 -6.98028e-05 0)
(4.94208 -5.77891e-05 -1.14696e-20)
(4.94228 -4.68023e-05 0)
(4.94244 -3.6624e-05 1.12738e-20)
(4.94258 -2.73354e-05 -1.1177e-20)
(4.94269 -1.87196e-05 0)
(4.94278 -1.08548e-05 0)
(4.94284 -3.53608e-06 0)
(4.94289 3.16216e-06 1.07971e-20)
(4.94291 9.33546e-06 1.07039e-20)
(4.94291 1.49727e-05 0)
(4.9429 2.01146e-05 1.05196e-20)
(4.94287 2.49098e-05 1.04284e-20)
(4.94282 2.93945e-05 -1.0338e-20)
(4.94276 3.36725e-05 0)
(4.94269 3.77249e-05 0)
(4.9426 4.16334e-05 -1.00705e-20)
(4.9425 4.54087e-05 0)
(4.94238 4.91462e-05 0)
(4.94225 5.28894e-05 0)
(4.9421 5.6742e-05 0)
(4.94194 6.07735e-05 9.6377e-21)
(4.94176 6.51087e-05 9.55305e-21)
(4.94157 6.98826e-05 0)
(4.94136 7.52692e-05 9.38564e-21)
(4.94112 8.14655e-05 0)
(4.94085 8.87403e-05 0)
(4.94056 9.74159e-05 9.13926e-21)
(4.94023 0.000107915 0)
(4.93985 0.000120748 8.97823e-21)
(4.93941 0.00013659 0)
(4.9389 0.000156284 0)
(4.93831 0.000180943 8.74176e-21)
(4.9376 0.00021199 0)
(4.93675 0.000251292 8.58785e-21)
(4.93572 0.000301292 0)
(4.93446 0.000365262 0)
(4.93289 0.000447541 0)
(4.93094 0.000554073 -8.29134e-21)
(4.92847 0.000693044 0)
(4.92533 0.000875986 8.15102e-21)
(4.92128 0.00111958 0)
(4.916 0.00144799 0)
(4.90906 0.00190138 0)
(4.89969 0.00252685 0)
(4.88712 0.00349346 0)
(4.86846 0.00468122 0)
(4.84423 0.00797082 0)
(4.79491 0.00900061 -1.55493e-20)
(4.74577 0.0357194 0)
(4.55245 0.0394572 0)
(0.0416836 -0.279529 -1.19544e-20)
(0.136584 -0.306701 1.18768e-20)
(0.233569 -0.303093 0)
(0.330749 -0.301822 -7.80004e-21)
(0.42836 -0.30106 0)
(0.526505 -0.300161 -3.87523e-21)
(0.625138 -0.299063 7.66317e-21)
(0.724193 -0.297761 7.62133e-21)
(0.823599 -0.296241 0)
(0.923282 -0.294492 7.54229e-21)
(1.02316 -0.292502 3.77011e-21)
(1.12314 -0.29026 0)
(1.22313 -0.287755 0)
(1.32303 -0.284979 0)
(1.42273 -0.281927 0)
(1.52213 -0.278594 3.67708e-21)
(1.6211 -0.274981 0)
(1.71953 -0.271089 -7.25842e-21)
(1.81731 -0.266925 0)
(1.91431 -0.262496 0)
(2.01042 -0.257812 7.1514e-21)
(2.10552 -0.252888 0)
(2.19951 -0.24774 -7.07663e-21)
(2.29228 -0.242385 3.52616e-21)
(2.38371 -0.236842 -3.50579e-21)
(2.47373 -0.231132 3.48499e-21)
(2.56223 -0.225278 3.46373e-21)
(2.64913 -0.219301 0)
(2.73437 -0.213224 0)
(2.81786 -0.20707 -3.39728e-21)
(2.89956 -0.20086 3.36613e-21)
(2.97941 -0.194616 0)
(3.05736 -0.188359 0)
(3.13338 -0.182109 -3.30289e-21)
(3.20744 -0.175883 0)
(3.27951 -0.169701 0)
(3.34959 -0.163577 3.22862e-21)
(3.41766 -0.157526 0)
(3.48372 -0.151562 -3.17345e-21)
(3.54778 -0.145697 6.30463e-21)
(3.60984 -0.13994 0)
(3.66992 -0.134302 0)
(3.72803 -0.128789 1.22925e-20)
(3.7842 -0.12341 1.21892e-20)
(3.83845 -0.118168 1.20858e-20)
(3.89081 -0.113069 -5.98839e-21)
(3.94131 -0.108117 5.94223e-21)
(3.98999 -0.103313 1.76667e-20)
(4.03688 -0.0986591 -1.16735e-20)
(4.08202 -0.0941565 -5.78779e-21)
(4.12545 -0.0898053 0)
(4.16721 -0.085605 5.68598e-21)
(4.20734 -0.0815546 -5.63187e-21)
(4.24588 -0.0776527 0)
(4.28288 -0.0738974 0)
(4.31839 -0.0702863 0)
(4.35243 -0.0668169 5.43723e-21)
(4.38506 -0.0634864 0)
(4.41633 -0.0602917 -1.06784e-20)
(4.44626 -0.0572294 0)
(4.47491 -0.0542963 -1.04887e-20)
(4.50232 -0.0514887 0)
(4.52853 -0.0488031 1.03025e-20)
(4.55358 -0.0462358 0)
(4.57751 -0.0437831 -1.01199e-20)
(4.60036 -0.0414413 5.01421e-21)
(4.62217 -0.0392066 0)
(4.64298 -0.0370753 9.85308e-21)
(4.66283 -0.0350438 4.88367e-21)
(4.68174 -0.0331084 4.84053e-21)
(4.69976 -0.0312656 0)
(4.71693 -0.0295117 4.7545e-21)
(4.73326 -0.0278435 4.71385e-21)
(4.74881 -0.0262574 0)
(4.76359 -0.0247502 -4.63163e-21)
(4.77765 -0.0233186 9.18148e-21)
(4.79101 -0.0219596 0)
(4.80369 -0.02067 4.51155e-21)
(4.81574 -0.0194469 0)
(4.82717 -0.0182875 -1.33001e-20)
(4.83801 -0.0171889 0)
(4.84828 -0.0161484 1.30711e-20)
(4.85802 -0.0151635 4.31966e-21)
(4.86725 -0.0142316 -4.28195e-21)
(4.87598 -0.0133502 -8.49032e-21)
(4.88424 -0.0125171 8.41748e-21)
(4.89206 -0.0117299 0)
(4.89945 -0.0109864 0)
(4.90643 -0.0102845 0)
(4.91302 -0.00962209 -2.44011e-20)
(4.91925 -0.00899716 -8.06456e-21)
(4.92512 -0.00840658 7.99585e-21)
(4.93066 -0.00784886 0)
(4.93588 -0.00732103 7.85982e-21)
(4.9408 -0.00681824 -7.79358e-21)
(4.94547 -0.00634175 -7.7274e-21)
(4.94991 -0.00589677 0)
(4.9541 -0.00548544 0)
(4.95806 -0.00510355 0)
(4.96178 -0.00474699 -7.46862e-21)
(4.96527 -0.00441323 0)
(4.96855 -0.0041005 1.4685e-20)
(4.97164 -0.00380743 2.18413e-20)
(4.97453 -0.00353286 -1.44376e-20)
(4.97723 -0.00327563 0)
(4.97977 -0.00303493 -7.09707e-21)
(4.98215 -0.00280971 0)
(4.98438 -0.00259932 -1.39554e-20)
(4.98646 -0.00240273 6.91858e-21)
(4.9884 -0.00221933 6.86008e-21)
(4.99022 -0.00204813 0)
(4.99192 -0.00188863 2.02339e-20)
(4.9935 -0.00173989 -1.33751e-20)
(4.99498 -0.00160149 -6.63103e-21)
(4.99636 -0.00147258 0)
(4.99764 -0.00135274 -6.5192e-21)
(4.99884 -0.00124127 -1.93918e-20)
(4.99995 -0.00113774 0)
(5.00099 -0.0010417 -1.27095e-20)
(5.00195 -0.000952707 -1.26017e-20)
(5.00285 -0.000870241 -1.24947e-20)
(5.00368 -0.000793786 0)
(5.00445 -0.000722745 0)
(5.00517 -0.000656939 0)
(5.00583 -0.00059593 6.03747e-21)
(5.00645 -0.000539728 5.9861e-21)
(5.00702 -0.000487768 0)
(5.00755 -0.000439978 1.17687e-20)
(5.00804 -0.000395801 1.16682e-20)
(5.00849 -0.000355234 0)
(5.00891 -0.000317756 1.14695e-20)
(5.00929 -0.000283407 2.27424e-20)
(5.00965 -0.000251674 -1.12738e-20)
(5.00998 -0.000222646 -1.11769e-20)
(5.01028 -0.000195808 0)
(5.01056 -0.000171264 0)
(5.01082 -0.000148534 0)
(5.01106 -0.0001277 -1.07971e-20)
(5.01127 -0.000108524 1.07038e-20)
(5.01147 -9.09814e-05 2.12228e-20)
(5.01166 -7.49254e-05 -1.05196e-20)
(5.01182 -6.0065e-05 1.04284e-20)
(5.01198 -4.62449e-05 1.0338e-20)
(5.01212 -3.31895e-05 0)
(5.01225 -2.08572e-05 0)
(5.01236 -9.0373e-06 -1.00705e-20)
(5.01247 2.35671e-06 0)
(5.01256 1.35681e-05 0)
(5.01264 2.47442e-05 1.96178e-20)
(5.01271 3.61786e-05 0)
(5.01276 4.80934e-05 9.63767e-21)
(5.01281 6.08763e-05 -9.55311e-21)
(5.01283 7.48884e-05 0)
(5.01285 9.06616e-05 9.3856e-21)
(5.01284 0.000108773 0)
(5.01281 0.00013002 0)
(5.01275 0.000155329 -9.13934e-21)
(5.01266 0.000185937 1.81169e-20)
(5.01253 0.000223342 -8.97831e-21)
(5.01235 0.000269522 0)
(5.01211 0.000326955 0)
(5.01179 0.000398882 8.74161e-21)
(5.01137 0.000489441 0)
(5.01083 0.000604098 8.5876e-21)
(5.01012 0.000749951 0)
(5.0092 0.000936488 0)
(5.008 0.00117631 0)
(5.00646 0.00148656 8.29144e-21)
(5.00445 0.00189078 0)
(5.00183 0.00242195 -8.15112e-21)
(4.9984 0.00312757 0)
(4.99386 0.00407636 0)
(4.98784 0.00537868 1.5913e-20)
(4.97968 0.00718129 -1.57982e-20)
(4.96867 0.00987164 0)
(4.95271 0.0135714 0)
(4.93135 0.0213076 0)
(4.8963 0.029832 4.65755e-20)
(4.85483 0.0746949 0)
(4.81027 0.107956 -3.10702e-20)
(0.0415764 -0.467142 8.14957e-23)
(0.137198 -0.513032 -1.57231e-20)
(0.234514 -0.506909 0)
(0.332086 -0.504751 1.55225e-20)
(0.430131 -0.503492 0)
(0.528735 -0.502018 0)
(0.627854 -0.500221 -7.09061e-23)
(0.727421 -0.498084 -7.62127e-21)
(0.827367 -0.495585 -7.51561e-21)
(0.927616 -0.492702 -7.54221e-21)
(1.02808 -0.489411 0)
(1.12867 -0.485691 0)
(1.22929 -0.481524 7.37916e-21)
(1.32982 -0.476896 1.46943e-20)
(1.43016 -0.471795 -1.46309e-20)
(1.53018 -0.466216 0)
(1.62977 -0.460158 -1.45044e-20)
(1.72881 -0.453625 7.25817e-21)
(1.82715 -0.446627 0)
(1.9247 -0.439178 -1.43096e-20)
(2.02131 -0.431297 -7.15108e-21)
(2.11688 -0.42301 1.41727e-20)
(2.21128 -0.414342 7.07628e-21)
(2.3044 -0.405327 0)
(2.39615 -0.395996 -1.39526e-20)
(2.48642 -0.386387 -1.38749e-20)
(2.57512 -0.376537 0)
(2.66217 -0.366485 -1.37128e-20)
(2.7475 -0.356268 0)
(2.83104 -0.345925 -1.3542e-20)
(2.91273 -0.335493 -6.73998e-21)
(2.99253 -0.32501 0)
(3.07038 -0.31451 0)
(3.14627 -0.304026 0)
(3.22015 -0.293589 0)
(3.29203 -0.283228 0)
(3.36187 -0.27297 0)
(3.42968 -0.26284 -1.27877e-20)
(3.49547 -0.252858 1.90387e-20)
(3.55922 -0.243045 0)
(3.62097 -0.233419 0)
(3.68072 -0.223993 0)
(3.7385 -0.214781 -1.0945e-23)
(3.79432 -0.205793 -1.21886e-20)
(3.84822 -0.197039 -2.41609e-20)
(3.90024 -0.188526 2.39548e-20)
(3.95039 -0.180259 1.18702e-20)
(3.99872 -0.172241 -1.17757e-20)
(4.04527 -0.164476 7.43302e-24)
(4.09006 -0.156965 -1.15638e-20)
(4.13316 -0.149707 0)
(4.17459 -0.142703 -1.13615e-20)
(4.2144 -0.135949 5.7932e-24)
(4.25263 -0.129443 0)
(4.28933 -0.123183 0)
(4.32454 -0.117164 1.09643e-20)
(4.3583 -0.111381 0)
(4.39065 -0.105831 0)
(4.42165 -0.100507 -1.06702e-20)
(4.45133 -0.0954039 -2.11582e-20)
(4.47973 -0.0905164 1.04884e-20)
(4.5069 -0.0858384 0)
(4.53288 -0.0813638 -1.03023e-20)
(4.55771 -0.0770864 0)
(4.58143 -0.0730001 -1.01143e-20)
(4.60409 -0.0690985 -1.00299e-20)
(4.62571 -0.0653755 1.98771e-20)
(4.64633 -0.0618248 9.84841e-21)
(4.666 -0.0584404 0)
(4.68475 -0.0552162 -1.93553e-20)
(4.70262 -0.0521461 0)
(4.71963 -0.0492244 -2.85266e-20)
(4.73582 -0.0464452 -1.88498e-20)
(4.75123 -0.0438029 -1.86849e-20)
(4.76589 -0.0412921 1.85216e-20)
(4.77983 -0.0389072 -2.75415e-20)
(4.79307 -0.0366432 0)
(4.80564 -0.0344949 0)
(4.81758 -0.0324574 1.78857e-20)
(4.82891 -0.0305259 2.65973e-20)
(4.83966 -0.0286957 0)
(4.84985 -0.0269624 -8.71385e-21)
(4.85951 -0.0253217 0)
(4.86866 -0.0237693 2.56915e-20)
(4.87731 -0.0223011 1.44007e-24)
(4.88551 -0.0209134 -1.34127e-24)
(4.89326 -0.0196022 -1.66903e-20)
(4.90059 -0.018364 0)
(4.90751 -0.0171953 1.64061e-20)
(4.91405 -0.0160928 1.00543e-24)
(4.92022 -0.0150528 0)
(4.92604 -0.0140734 0)
(4.93153 -0.0131508 0)
(4.9367 -0.0122839 -1.57202e-20)
(4.94157 -0.0114764 0)
(4.94617 -0.0107184 0)
(4.95049 -0.00999858 0)
(4.95456 -0.00931734 0)
(4.95839 -0.00867578 0)
(4.96198 -0.00807309 -1.49364e-20)
(4.96536 -0.00750775 0)
(4.96854 -0.00697788 -1.4685e-20)
(4.97152 -0.00648155 -1.45607e-20)
(4.97431 -0.00601672 1.44376e-20)
(4.97693 -0.00558167 0)
(4.97939 -0.00517465 1.41944e-20)
(4.98168 -0.0047942 0)
(4.98384 -0.00443873 1.39554e-20)
(4.98585 -0.00410686 -1.38374e-20)
(4.98773 -0.00379712 -4.11606e-20)
(4.98949 -0.00350824 0)
(4.99113 -0.00323893 -4.04673e-20)
(4.99266 -0.00298803 -1.33748e-20)
(4.99409 -0.00275439 0)
(4.99542 -0.00253697 -2.6299e-20)
(4.99667 -0.00233472 -2.60763e-20)
(4.99782 -0.00214672 3.87832e-20)
(4.9989 -0.00197214 0)
(4.9999 -0.00181021 1.27095e-20)
(5.00083 -0.00166014 1.26017e-20)
(5.0017 -0.00152101 3.74838e-20)
(5.0025 -0.00139191 0)
(5.00325 -0.0012721 0)
(5.00394 -0.00116104 0)
(5.00459 -0.00105835 1.20749e-20)
(5.00518 -0.000963575 0)
(5.00573 -0.000876131 0)
(5.00624 -0.000795506 -1.17687e-20)
(5.00672 -0.000721151 -1.16682e-20)
(5.00715 -0.000652677 0)
(5.00756 -0.000589592 0)
(5.00793 -0.000531589 -2.27424e-20)
(5.00827 -0.000478185 0)
(5.00859 -0.000429142 2.23539e-20)
(5.00888 -0.000383992 2.21617e-20)
(5.00915 -0.000342512 0)
(5.0094 -0.000304291 0)
(5.00963 -0.000269189 -2.15941e-20)
(5.00984 -0.000236986 -3.81116e-26)
(5.01004 -0.000207511 -3.67684e-26)
(5.01021 -0.00018046 0)
(5.01037 -0.000155416 -4.17135e-20)
(5.01052 -0.000132065 0)
(5.01066 -0.000110104 0)
(5.01078 -8.93732e-05 0)
(5.01089 -6.96032e-05 2.0141e-20)
(5.01099 -5.05732e-05 0)
(5.01108 -3.19325e-05 -3.95817e-20)
(5.01116 -1.3378e-05 -1.96178e-20)
(5.01122 5.52316e-06 0)
(5.01128 2.51954e-05 -1.92754e-20)
(5.01132 4.62239e-05 0)
(5.01134 6.9232e-05 0)
(5.01135 9.50655e-05 -5.63137e-20)
(5.01134 0.000124699 3.72113e-20)
(5.01131 0.000159404 0)
(5.01125 0.000200705 3.65568e-20)
(5.01116 0.000250604 -1.81168e-20)
(5.01102 0.000311559 0)
(5.01084 0.00038677 0)
(5.0106 0.000480283 0)
(5.01027 0.00059734 -5.24496e-20)
(5.00985 0.00074469 0)
(5.00929 0.000931166 -1.71755e-20)
(5.00857 0.0011683 0)
(5.00765 0.00147137 0)
(5.00644 0.00186075 0)
(5.00489 0.00236397 0)
(5.00286 0.00301872 0)
(5.00023 0.00387756 0)
(4.99678 0.00501568 -3.2327e-20)
(4.99223 0.00654192 0)
(4.98621 0.00862746 -1.59129e-20)
(4.9781 0.0115177 4.73819e-20)
(4.9672 0.0157396 0)
(4.95175 0.0218639 0)
(4.93154 0.0326453 -3.10445e-20)
(4.90034 0.0492022 -3.10256e-20)
(4.86754 0.089059 3.0884e-20)
(4.81727 0.141938 3.1069e-20)
(0.0413014 -0.655643 2.33843e-20)
(0.138024 -0.720721 2.32341e-20)
(0.235919 -0.712056 1.53156e-20)
(0.334128 -0.709035 7.5016e-21)
(0.432852 -0.707333 0)
(0.532174 -0.705348 -1.50582e-20)
(0.632054 -0.702916 7.39074e-21)
(0.732429 -0.700008 0)
(0.833231 -0.696591 7.51564e-21)
(0.934379 -0.692627 0)
(1.03578 -0.688079 -1.47227e-20)
(1.13735 -0.682914 0)
(1.23896 -0.677103 -7.37909e-21)
(1.3405 -0.670623 -1.46941e-20)
(1.44185 -0.663457 1.46306e-20)
(1.54288 -0.655598 0)
(1.64346 -0.647043 1.45041e-20)
(1.74344 -0.637799 0)
(1.8427 -0.627883 0)
(1.9411 -0.617317 1.43091e-20)
(2.0385 -0.606131 0)
(2.13479 -0.594361 -7.6785e-23)
(2.22983 -0.582051 0)
(2.32352 -0.569246 0)
(2.41574 -0.555997 5.97241e-23)
(2.5064 -0.542358 1.38741e-20)
(2.59541 -0.528383 1.37437e-20)
(2.68268 -0.514129 1.3712e-20)
(2.76814 -0.499652 0)
(2.85173 -0.485006 2.7043e-20)
(2.9334 -0.470247 0)
(3.01309 -0.455425 1.33289e-20)
(3.09078 -0.440591 0)
(3.16644 -0.425791 0)
(3.24004 -0.41107 -1.30544e-20)
(3.31158 -0.396466 0)
(3.38105 -0.382018 1.28633e-20)
(3.44845 -0.367759 2.1101e-23)
(3.51378 -0.35372 -2.53542e-20)
(3.57706 -0.339927 2.51356e-20)
(3.63831 -0.326403 0)
(3.69754 -0.313169 0)
(3.75478 -0.300242 1.22505e-20)
(3.81007 -0.287637 0)
(3.86342 -0.275365 1.2075e-20)
(3.91488 -0.263435 -1.19723e-20)
(3.96448 -0.251855 -1.18697e-20)
(4.01226 -0.240629 0)
(4.05826 -0.22976 1.16651e-20)
(4.10253 -0.21925 1.15633e-20)
(4.14509 -0.209097 -2.29061e-20)
(4.18601 -0.199301 1.13611e-20)
(4.22531 -0.189858 1.12608e-20)
(4.26305 -0.180764 0)
(4.29926 -0.172015 0)
(4.334 -0.163604 -1.0964e-20)
(4.36731 -0.155525 0)
(4.39923 -0.147772 0)
(4.4298 -0.140335 2.13478e-20)
(4.45907 -0.133209 2.11577e-20)
(4.48708 -0.126384 0)
(4.51388 -0.119851 0)
(4.5395 -0.113604 0)
(4.56398 -0.107632 0)
(4.58737 -0.101927 2.02337e-20)
(4.6097 -0.0964807 -2.00474e-20)
(4.63102 -0.0912836 -1.98768e-20)
(4.65136 -0.0863273 -3.9396e-20)
(4.67075 -0.0816031 0)
(4.68923 -0.0771027 5.36514e-24)
(4.70685 -0.0728175 0)
(4.72362 -0.0687394 1.90163e-20)
(4.73959 -0.0648603 4.40266e-24)