/*--------------------------------*- C++ -*----------------------------------*\
  =========                 |
  \\      /  F ield         | OpenFOAM: The Open Source CFD Toolbox
   \\    /   O peration     | Website:  https://openfoam.org
    \\  /    A nd           | Version:  9
     \\/     M anipulation  |
\*---------------------------------------------------------------------------*/
FoamFile
{
    format      ascii;
    class       volSymmTensorField;
    location    "0.001";
    object      UPrime2Mean;
}
// * * * * * * * * * * * * * * * * * * * * * * * * * * * * * * * * * * * * * //

dimensions      [0 2 -2 0 0 0 0];

internalField   nonuniform List<symmTensor> 
12225
(
(-49.903 -0.358563 0 -0.000869022 0 0)
(-43.9608 -0.57709 0 -0.00318684 0 0)
(-40.9322 -0.420774 0 -0.000522099 0 0)
(-40.0794 -0.220234 0 0.000404922 0 0)
(-38.323 -0.0639629 0 0.000332436 0 0)
(-36.9453 0.0366885 0 1.14116e-05 0 0)
(-37.2912 0.103172 0 -0.000233757 0 0)
(-38.5666 0.0425349 0 -3.35764e-05 0 0)
(-39.7145 0.199247 0 -0.000700286 0 0)
(-40.562 -0.103413 0 0.000436509 0 0)
(-42.2546 0.404257 0 -0.00287053 0 0)
(-43.57 -0.211877 0 0.00138517 0 0)
(-45.1889 0.525079 0 -0.000387471 0 0)
(-49.67 0.0804013 0 0.0228054 0 0)
(-50.1531 -0.0938447 0 0.107914 0 0)
(-52.5511 1.20748 0 0.194757 0 0)
(-62.6106 -0.71385 0 0.917337 0 0)
(-58.2924 2.37786 0 0.56182 0 0)
(-50.1959 -0.121284 0 0.00123409 0 0)
(-50.5928 -0.133306 0 3.14229e-05 0 0)
(-52.4414 -0.180609 0 -0.000104453 0 0)
(-54.4987 -0.241017 0 -2.08052e-05 0 0)
(-53.9772 -0.201693 0 0.000814492 0 0)
(-52.7756 -0.0579041 0 0.000999209 0 0)
(-52.602 0.0623999 0 0.000505089 0 0)
(-53.9111 0.238307 0 -0.00101922 0 0)
(-54.436 0.127548 0 0.000387079 0 0)
(-56.3153 0.536494 0 -0.00487919 0 0)
(-57.2902 0.181972 0 0.00122806 0 0)
(-59.3456 0.631843 0 -0.00205232 0 0)
(-62.351 0.707003 0 0.00206455 0 0)
(-64.1915 0.780515 0 0.022277 0 0)
(-68.3402 0.825131 0 0.0263997 0 0)
(-72.8012 1.44516 0 0.120926 0 0)
(-79.4778 2.50484 0 -0.0105659 0 0)
(-81.5368 0.669672 0 1.52267 0 0)
(-53.7941 -0.12689 0 0.000903222 0 0)
(-50.09 -0.241986 0 -0.000451404 0 0)
(-49.1602 -0.193536 0 -1.99309e-06 0 0)
(-50.5852 -0.162609 0 0.000686897 0 0)
(-50.9126 -0.102032 0 0.00146768 0 0)
(-50.8272 0.0104681 0 0.0016154 0 0)
(-51.8675 0.221157 0 -0.00039938 0 0)
(-53.3604 0.257999 0 -0.000482305 0 0)
(-54.941 0.554843 0 -0.00547876 0 0)
(-56.0361 0.431547 0 -0.0023438 0 0)
(-57.6347 0.834929 0 -0.0109146 0 0)
(-59.7198 0.786427 0 -0.00814608 0 0)
(-61.849 1.17654 0 -0.0125594 0 0)
(-64.3258 1.43097 0 -0.0275747 0 0)
(-67.9303 1.57827 0 0.0333844 0 0)
(-72.3697 2.96343 0 -0.103132 0 0)
(-76.1772 3.16993 0 0.252441 0 0)
(-83.2308 4.29631 0 1.18411 0 0)
(-52.3476 -0.143863 0 0.00115653 0 0)
(-50.1746 -0.406372 0 -0.000851412 0 0)
(-49.8429 -0.334684 0 0.00116026 0 0)
(-51.2194 -0.198397 0 0.00260343 0 0)
(-51.3168 -0.0231038 0 0.00278238 0 0)
(-51.091 0.189834 0 0.00081086 0 0)
(-51.9388 0.364392 0 -0.00172665 0 0)
(-53.4908 0.569963 0 -0.00580066 0 0)
(-54.8012 0.621359 0 -0.00626795 0 0)
(-56.0258 0.904145 0 -0.0140927 0 0)
(-57.579 0.980368 0 -0.0150211 0 0)
(-59.4119 1.21849 0 -0.020343 0 0)
(-61.6485 1.64851 0 -0.0390636 0 0)
(-64.1534 1.99707 0 -0.0436375 0 0)
(-67.3692 2.48094 0 -0.0507324 0 0)
(-71.2967 3.5157 0 -0.0601394 0 0)
(-75.5614 4.81685 0 0.0688886 0 0)
(-81.4362 6.96501 0 0.32445 0 0)
(-49.2089 -0.0582883 0 0.00452274 0 0)
(-47.6176 -0.426881 0 0.0003417 0 0)
(-48.2576 -0.248444 0 0.00227781 0 0)
(-50.4777 -0.0845246 0 0.00293487 0 0)
(-50.9461 0.0787554 0 0.0027912 0 0)
(-50.8113 0.272125 0 0.000753236 0 0)
(-51.7483 0.510753 0 -0.00394331 0 0)
(-53.2959 0.676739 0 -0.00765099 0 0)
(-54.6683 0.917149 0 -0.0146149 0 0)
(-55.8946 1.07815 0 -0.0194913 0 0)
(-57.3472 1.32359 0 -0.0276261 0 0)
(-59.1833 1.66774 0 -0.0429275 0 0)
(-61.3625 2.03345 0 -0.0554311 0 0)
(-63.6648 2.60395 0 -0.0850211 0 0)
(-66.5737 3.25938 0 -0.0974742 0 0)
(-70.2085 4.49912 0 -0.136791 0 0)
(-74.0101 6.10512 0 -0.163802 0 0)
(-78.6817 8.24881 0 0.202903 0 0)
(-49.6707 0.192052 0 0.00191831 0 0)
(-47.5518 -0.203018 0 0.00141255 0 0)
(-48.3031 -0.170186 0 0.00330919 0 0)
(-50.4697 -0.023203 0 0.00458511 0 0)
(-50.8105 0.200069 0 0.00310219 0 0)
(-50.6438 0.458618 0 -0.00186285 0 0)
(-51.6061 0.710545 0 -0.00862337 0 0)
(-53.1836 0.944293 0 -0.0160115 0 0)
(-54.5509 1.14848 0 -0.0231159 0 0)
(-55.709 1.3882 0 -0.0327852 0 0)
(-57.1376 1.68478 0 -0.0462656 0 0)
(-58.8925 2.01984 0 -0.0616721 0 0)
(-60.8639 2.52347 0 -0.0890346 0 0)
(-63.0606 3.22284 0 -0.134463 0 0)
(-65.7195 4.0077 0 -0.166634 0 0)
(-68.7824 5.33033 0 -0.247189 0 0)
(-71.9387 7.09492 0 -0.320016 0 0)
(-75.4989 9.70624 0 -0.409818 0 0)
(-51.7454 -0.205881 0 0.00205759 0 0)
(-49.1927 -0.168174 0 0.00289337 0 0)
(-49.613 -0.0357615 0 0.00352378 0 0)
(-51.6487 0.128267 0 0.00374844 0 0)
(-51.7532 0.340565 0 0.00168514 0 0)
(-51.2384 0.590969 0 -0.00402655 0 0)
(-51.8769 0.863796 0 -0.0127331 0 0)
(-53.23 1.12257 0 -0.0223908 0 0)
(-54.4434 1.38034 0 -0.033358 0 0)
(-55.5232 1.67365 0 -0.0479251 0 0)
(-56.8599 1.98939 0 -0.0642935 0 0)
(-58.4663 2.43882 0 -0.0917313 0 0)
(-60.3173 3.01086 0 -0.130518 0 0)
(-62.3381 3.74215 0 -0.182915 0 0)
(-64.5788 4.70336 0 -0.255625 0 0)
(-67.1108 6.12345 0 -0.380261 0 0)
(-69.7258 7.97773 0 -0.565524 0 0)
(-72.3578 10.475 0 -0.851102 0 0)
(-51.9196 0.10341 0 0.00205848 0 0)
(-49.6964 -0.0301251 0 0.00227257 0 0)
(-49.7256 -0.102882 0 0.00559493 0 0)
(-51.1465 0.0427082 0 0.00817475 0 0)
(-50.9138 0.326932 0 0.00548498 0 0)
(-50.4172 0.670935 0 -0.00418847 0 0)
(-51.256 1.02374 0 -0.0180761 0 0)
(-52.7978 1.34915 0 -0.0329527 0 0)
(-54.1104 1.65104 0 -0.0485301 0 0)
(-55.2012 1.9688 0 -0.0669894 0 0)
(-56.4685 2.34694 0 -0.0911514 0 0)
(-57.979 2.83771 0 -0.126494 0 0)
(-59.6512 3.44724 0 -0.174234 0 0)
(-61.3944 4.28406 0 -0.251599 0 0)
(-63.3095 5.33458 0 -0.357915 0 0)
(-65.3847 6.74104 0 -0.519325 0 0)
(-67.3336 8.5526 0 -0.775544 0 0)
(-69.0367 10.9318 0 -1.20258 0 0)
(-49.8118 0.0220235 0 0.00243737 0 0)
(-47.05 -0.020906 0 0.00344557 0 0)
(-47.266 -0.0418763 0 0.00695046 0 0)
(-49.6533 0.130243 0 0.00900265 0 0)
(-50.42 0.454713 0 0.00423241 0 0)
(-50.4651 0.836321 0 -0.00869384 0 0)
(-51.4199 1.22076 0 -0.0263168 0 0)
(-52.8664 1.57679 0 -0.0452117 0 0)
(-54.0204 1.9063 0 -0.0649553 0 0)
(-54.9567 2.26177 0 -0.0890976 0 0)
(-56.0779 2.67703 0 -0.120032 0 0)
(-57.4131 3.20703 0 -0.164195 0 0)
(-58.8647 3.8848 0 -0.228515 0 0)
(-60.367 4.75355 0 -0.323125 0 0)
(-61.9263 5.82199 0 -0.453882 0 0)
(-63.4785 7.23284 0 -0.661815 0 0)
(-64.8574 8.9726 0 -0.978692 0 0)
(-65.9557 11.1116 0 -1.46443 0 0)
(-50.8429 -0.0907242 0 0.00601424 0 0)
(-48.6229 -0.030767 0 0.00655462 0 0)
(-48.702 0.0481162 0 0.00995692 0 0)
(-50.4237 0.33821 0 0.00802507 0 0)
(-50.569 0.72891 0 -0.00314524 0 0)
(-50.2694 1.12016 0 -0.0210616 0 0)
(-51.1019 1.49285 0 -0.0416673 0 0)
(-52.5231 1.84245 0 -0.0630599 0 0)
(-53.6542 2.18051 0 -0.0862287 0 0)
(-54.5363 2.55226 0 -0.114962 0 0)
(-55.5536 2.99633 0 -0.152833 0 0)
(-56.7362 3.56237 0 -0.207253 0 0)
(-57.9871 4.26286 0 -0.283466 0 0)
(-59.2147 5.1463 0 -0.394852 0 0)
(-60.4159 6.22729 0 -0.553461 0 0)
(-61.557 7.57587 0 -0.788756 0 0)
(-62.4618 9.15785 0 -1.12393 0 0)
(-62.9983 11.0409 0 -1.62049 0 0)
(-50.2262 0.0282629 0 0.0043762 0 0)
(-47.9215 0.0211788 0 0.00601228 0 0)
(-48.5293 0.0665913 0 0.00991101 0 0)
(-50.8293 0.317804 0 0.0106631 0 0)
(-51.2713 0.72093 0 0.000704577 0 0)
(-50.9111 1.1684 0 -0.0201993 0 0)
(-51.4801 1.61128 0 -0.0469878 0 0)
(-52.6114 2.02322 0 -0.075395 0 0)
(-53.4999 2.40811 0 -0.105362 0 0)
(-54.1843 2.81413 0 -0.140976 0 0)
(-55.0205 3.28807 0 -0.18689 0 0)
(-56.0095 3.87346 0 -0.250455 0 0)
(-57.029 4.58734 0 -0.33859 0 0)
(-57.9869 5.46766 0 -0.465064 0 0)
(-58.8697 6.5079 0 -0.638542 0 0)
(-59.6244 7.76358 0 -0.887273 0 0)
(-60.1049 9.19346 0 -1.23041 0 0)
(-60.2447 10.8279 0 -1.70908 0 0)
(-50.2117 -0.136648 0 0.00855139 0 0)
(-48.2094 0.110718 0 0.00684273 0 0)
(-48.8375 0.287193 0 0.00732788 0 0)
(-50.7247 0.58028 0 0.00363919 0 0)
(-50.7303 0.961328 0 -0.00950117 0 0)
(-50.1989 1.37955 0 -0.0325664 0 0)
(-50.8172 1.80685 0 -0.0613008 0 0)
(-52.056 2.21953 0 -0.0923005 0 0)
(-52.9985 2.61655 0 -0.126007 0 0)
(-53.6601 3.03819 0 -0.166546 0 0)
(-54.4069 3.52702 0 -0.218679 0 0)
(-55.2518 4.12114 0 -0.28984 0 0)
(-56.0817 4.83094 0 -0.386571 0 0)
(-56.8099 5.68403 0 -0.521514 0 0)
(-57.4204 6.6716 0 -0.703252 0 0)
(-57.8774 7.82965 0 -0.955053 0 0)
(-58.0606 9.10057 0 -1.28518 0 0)
(-57.9261 10.5081 0 -1.72393 0 0)
(-51.269 -0.0464549 0 0.0104238 0 0)
(-47.9417 0.101705 0 0.00898906 0 0)
(-47.5071 0.296103 0 0.00853237 0 0)
(-49.3557 0.549807 0 0.00695029 0 0)
(-49.8396 0.944592 0 -0.00553888 0 0)
(-49.7107 1.43664 0 -0.0339264 0 0)
(-50.5138 1.93957 0 -0.0707398 0 0)
(-51.7745 2.40039 0 -0.108784 0 0)
(-52.6485 2.81994 0 -0.147892 0 0)
(-53.1969 3.24874 0 -0.193013 0 0)
(-53.8022 3.73752 0 -0.249892 0 0)
(-54.4805 4.32302 0 -0.326155 0 0)
(-55.1159 5.01165 0 -0.428037 0 0)
(-55.6242 5.82418 0 -0.567272 0 0)
(-55.9947 6.74378 0 -0.749966 0 0)
(-56.1998 7.79362 0 -0.994348 0 0)
(-56.1371 8.91512 0 -1.30333 0 0)
(-55.7918 10.1284 0 -1.69927 0 0)
(-50.5084 -0.254785 0 0.0087827 0 0)
(-48.3745 -0.160052 0 0.0202633 0 0)
(-48.1478 0.229082 0 0.0196617 0 0)
(-49.6919 0.760515 0 0.00449437 0 0)
(-49.7614 1.3099 0 -0.0247599 0 0)
(-49.3865 1.81465 0 -0.0624381 0 0)
(-50.104 2.26789 0 -0.100883 0 0)
(-51.3271 2.67499 0 -0.137941 0 0)
(-52.1372 3.05841 0 -0.176929 0 0)
(-52.5808 3.4649 0 -0.223519 0 0)
(-53.044 3.93567 0 -0.283057 0 0)
(-53.5479 4.49723 0 -0.362328 0 0)
(-53.9797 5.14863 0 -0.466542 0 0)
(-54.2635 5.90106 0 -0.605322 0 0)
(-54.3965 6.73269 0 -0.782203 0 0)
(-54.3642 7.65816 0 -1.01081 0 0)
(-54.0884 8.61804 0 -1.28829 0 0)
(-53.5783 9.63017 0 -1.6296 0 0)
(-51.5741 0.0352539 0 0.0162269 0 0)
(-49.566 0.282971 0 0.0111757 0 0)
(-49.6078 0.271942 0 0.018827 0 0)
(-51.1263 0.64567 0 0.016991 0 0)
(-50.9102 1.27376 0 -0.0141029 0 0)
(-50.1045 1.90128 0 -0.0644494 0 0)
(-50.3854 2.4377 0 -0.11532 0 0)
(-51.2437 2.87887 0 -0.160259 0 0)
(-51.764 3.26226 0 -0.203459 0 0)
(-51.9677 3.65002 0 -0.252223 0 0)
(-52.2107 4.0915 0 -0.312872 0 0)
(-52.4961 4.612 0 -0.392028 0 0)
(-52.7025 5.20644 0 -0.493914 0 0)
(-52.7572 5.87839 0 -0.625768 0 0)
(-52.6659 6.60295 0 -0.788439 0 0)
(-52.4256 7.3883 0 -0.990913 0 0)
(-51.9778 8.17936 0 -1.22666 0 0)
(-51.3474 8.99534 0 -1.50608 0 0)
(-51.6635 0.230239 0 0.00858228 0 0)
(-49.2117 0.222362 0 0.0112506 0 0)
(-49.3687 0.245719 0 0.0222048 0 0)
(-51.1298 0.653598 0 0.0203547 0 0)
(-50.9941 1.31014 0 -0.0127505 0 0)
(-50.1211 1.96596 0 -0.0674887 0 0)
(-50.2459 2.52881 0 -0.123816 0 0)
(-50.9 2.98892 0 -0.173772 0 0)
(-51.2009 3.37598 0 -0.220572 0 0)
(-51.1911 3.74892 0 -0.271013 0 0)
(-51.2239 4.15774 0 -0.331135 0 0)
(-51.2982 4.62634 0 -0.406793 0 0)
(-51.2909 5.14868 0 -0.501139 0 0)
(-51.1375 5.7242 0 -0.619078 0 0)
(-50.8536 6.32884 0 -0.759468 0 0)
(-50.4456 6.96822 0 -0.927876 0 0)
(-49.8727 7.59513 0 -1.11639 0 0)
(-49.1669 8.23002 0 -1.33252 0 0)
(-51.8107 0.0724221 0 0.00993931 0 0)
(-48.8942 0.252206 0 0.0117392 0 0)
(-49.0184 0.465787 0 0.0142862 0 0)
(-50.772 0.927906 0 0.0040574 0 0)
(-50.7144 1.54881 0 -0.0325277 0 0)
(-49.9028 2.14405 0 -0.0855464 0 0)
(-49.9703 2.64882 0 -0.138025 0 0)
(-50.4651 3.06178 0 -0.184448 0 0)
(-50.5616 3.40951 0 -0.228316 0 0)
(-50.3402 3.74144 0 -0.275346 0 0)
(-50.1612 4.09927 0 -0.330251 0 0)
(-50.0269 4.50066 0 -0.397314 0 0)
(-49.8183 4.93763 0 -0.478337 0 0)
(-49.4815 5.40704 0 -0.576114 0 0)
(-49.04 5.88804 0 -0.688442 0 0)
(-48.5058 6.38539 0 -0.81855 0 0)
(-47.8512 6.86131 0 -0.958965 0 0)
(-47.1075 7.33621 0 -1.11537 0 0)
(-54.8632 -0.205776 0 0.0155075 0 0)
(-52.3928 -0.133351 0 0.0256067 0 0)
(-52.2686 0.234589 0 0.026932 0 0)
(-53.2293 0.750486 0 0.0168274 0 0)
(-52.1425 1.3285 0 -0.0121837 0 0)
(-50.4579 1.90432 0 -0.0598011 0 0)
(-49.9315 2.43398 0 -0.113455 0 0)
(-50.0309 2.87973 0 -0.163309 0 0)
(-49.8389 3.23852 0 -0.208588 0 0)
(-49.39 3.55176 0 -0.253173 0 0)
(-49.0134 3.8637 0 -0.301232 0 0)
(-48.6999 4.1955 0 -0.356464 0 0)
(-48.3278 4.54371 0 -0.420244 0 0)
(-47.8507 4.90684 0 -0.494212 0 0)
(-47.2973 5.26974 0 -0.576212 0 0)
(-46.6813 5.63737 0 -0.66813 0 0)
(-45.9854 5.98172 0 -0.764126 0 0)
(-45.2346 6.32133 0 -0.868453 0 0)
(-50.2487 0.246655 0 0.0136005 0 0)
(-47.8366 0.0167985 0 0.0142545 0 0)
(-47.8389 -0.0936193 0 0.0248732 0 0)
(-49.6622 0.147216 0 0.0371722 0 0)
(-49.634 0.751322 0 0.0222177 0 0)
(-48.7638 1.45714 0 -0.0252063 0 0)
(-48.718 2.08565 0 -0.0822426 0 0)
(-49.0188 2.56854 0 -0.132001 0 0)
(-48.848 2.91428 0 -0.172463 0 0)
(-48.3321 3.18219 0 -0.208134 0 0)
(-47.8472 3.4285 0 -0.243752 0 0)
(-47.4129 3.67975 0 -0.282805 0 0)
(-46.9238 3.93664 0 -0.326457 0 0)
(-46.3496 4.19886 0 -0.375581 0 0)
(-45.724 4.45603 0 -0.428531 0 0)
(-45.062 4.7126 0 -0.486347 0 0)
(-44.354 4.94913 0 -0.545176 0 0)
(-43.616 5.18054 0 -0.607902 0 0)
(-52.1748 0.111811 0 0.00669634 0 0)
(-49.3588 0.342877 0 0.00610407 0 0)
(-49.345 0.56185 0 0.0016338 0 0)
(-50.8138 0.86475 0 -0.00549213 0 0)
(-50.269 1.26272 0 -0.0236211 0 0)
(-49.0108 1.68012 0 -0.0531639 0 0)
(-48.6636 2.05731 0 -0.0852244 0 0)
(-48.6996 2.35728 0 -0.113358 0 0)
(-48.3177 2.57951 0 -0.137186 0 0)
(-47.6496 2.75917 0 -0.159136 0 0)
(-47.0493 2.93133 0 -0.181662 0 0)
(-46.5231 3.1107 0 -0.206531 0 0)
(-45.96 3.29459 0 -0.234153 0 0)
(-45.3321 3.48137 0 -0.264826 0 0)
(-44.6717 3.66326 0 -0.297401 0 0)
(-43.9918 3.84351 0 -0.332436 0 0)
(-43.2862 4.00845 0 -0.367565 0 0)
(-42.5638 4.16925 0 -0.404609 0 0)
(-50.676 0.375008 0 0.0115953 0 0)
(-48.6865 0.100898 0 0.0153582 0 0)
(-49.2771 -0.115981 0 0.0198414 0 0)
(-50.9921 0.202346 0 0.0227183 0 0)
(-50.518 0.760052 0 0.00485754 0 0)
(-49.1608 1.27656 0 -0.0257479 0 0)
(-48.6396 1.68196 0 -0.0556012 0 0)
(-48.5162 1.97573 0 -0.079536 0 0)
(-48.0128 2.17973 0 -0.0984573 0 0)
(-47.254 2.33485 0 -0.114897 0 0)
(-46.5812 2.47574 0 -0.130959 0 0)
(-45.9963 2.61736 0 -0.148051 0 0)
(-45.3863 2.75941 0 -0.166574 0 0)
(-44.7249 2.90176 0 -0.186788 0 0)
(-44.0431 3.03923 0 -0.207988 0 0)
(-43.3525 3.17471 0 -0.230549 0 0)
(-42.6487 3.29808 0 -0.252967 0 0)
(-41.9357 3.41804 0 -0.27644 0 0)
(-49.242 0.426923 0 0.00760747 0 0)
(-46.8783 0.74574 0 -0.00145465 0 0)
(-47.6548 0.757499 0 -0.00626505 0 0)
(-49.7698 0.677453 0 -0.00582512 0 0)
(-49.6056 0.765706 0 -0.00714008 0 0)
(-48.4691 1.01329 0 -0.0170026 0 0)
(-48.109 1.31217 0 -0.0334573 0 0)
(-48.084 1.57791 0 -0.0507001 0 0)
(-47.6265 1.77726 0 -0.0657674 0 0)
(-46.8815 1.92543 0 -0.0786736 0 0)
(-46.2034 2.05015 0 -0.0905324 0 0)
(-45.6043 2.16759 0 -0.102462 0 0)
(-44.9779 2.28094 0 -0.114943 0 0)
(-44.3037 2.39206 0 -0.128267 0 0)
(-43.6141 2.49802 0 -0.142044 0 0)
(-42.9212 2.60161 0 -0.15655 0 0)
(-42.222 2.69538 0 -0.170845 0 0)
(-41.5179 2.78622 0 -0.185716 0 0)
(-53.024 0.166999 0 0.0157976 0 0)
(-49.5755 0.559449 0 0.000672327 0 0)
(-48.5985 0.629784 0 -0.00597262 0 0)
(-49.3292 0.629155 0 -0.00597171 0 0)
(-48.6328 0.766648 0 -0.00946231 0 0)
(-47.5458 0.993121 0 -0.0191042 0 0)
(-47.4252 1.21883 0 -0.0306851 0 0)
(-47.6104 1.3969 0 -0.0407414 0 0)
(-47.2798 1.52213 0 -0.048864 0 0)
(-46.5958 1.61578 0 -0.055891 0 0)
(-45.9376 1.69952 0 -0.0626807 0 0)
(-45.3378 1.78314 0 -0.0698388 0 0)
(-44.703 1.86665 0 -0.0775393 0 0)
(-44.021 1.94999 0 -0.0858677 0 0)
(-43.3264 2.03013 0 -0.0945198 0 0)
(-42.6319 2.10882 0 -0.103637 0 0)
(-41.9358 2.18015 0 -0.112612 0 0)
(-41.2377 2.24934 0 -0.121936 0 0)
(-51.1646 -0.019747 0 0.00440312 0 0)
(-48.0448 -0.118935 0 0.00637018 0 0)
(-47.3911 -0.0296826 0 0.00806933 0 0)
(-48.5898 0.224287 0 0.00666001 0 0)
(-48.3305 0.576211 0 -0.00237372 0 0)
(-47.5018 0.897816 0 -0.0155729 0 0)
(-47.455 1.12044 0 -0.0261388 0 0)
(-47.6106 1.24364 0 -0.0323414 0 0)
(-47.2248 1.30511 0 -0.0359899 0 0)
(-46.4945 1.34625 0 -0.0389322 0 0)
(-45.8029 1.39041 0 -0.0421343 0 0)
(-45.1794 1.44342 0 -0.0459752 0 0)
(-44.5279 1.50191 0 -0.0504384 0 0)
(-43.8354 1.56315 0 -0.0554488 0 0)
(-43.1349 1.62326 0 -0.0607321 0 0)
(-42.4383 1.68284 0 -0.0663299 0 0)
(-41.7438 1.73706 0 -0.0718481 0 0)
(-41.0494 1.78975 0 -0.077581 0 0)
(-50.9893 0.142002 0 0.00380047 0 0)
(-48.7723 0.0594517 0 0.00446552 0 0)
(-49.5772 0.185071 0 0.00411789 0 0)
(-51.4372 0.46858 0 -0.000854791 0 0)
(-50.8218 0.767259 0 -0.0102604 0 0)
(-49.2149 0.963631 0 -0.0183875 0 0)
(-48.4325 1.05143 0 -0.0223675 0 0)
(-48.0727 1.07427 0 -0.0236812 0 0)
(-47.3893 1.07592 0 -0.0242883 0 0)
(-46.5083 1.08268 0 -0.0251591 0 0)
(-45.7446 1.10368 0 -0.0265932 0 0)
(-45.0858 1.13773 0 -0.0286391 0 0)
(-44.4157 1.17912 0 -0.0311822 0 0)
(-43.7134 1.22406 0 -0.0341109 0 0)
(-43.008 1.26882 0 -0.037228 0 0)
(-42.3096 1.31348 0 -0.040543 0 0)
(-41.6159 1.35427 0 -0.0438163 0 0)
(-40.9239 1.39394 0 -0.0472145 0 0)
(-51.3038 -0.00911503 0 0.00433866 0 0)
(-48.524 0.322483 0 0.000558107 0 0)
(-49.05 0.29636 0 -0.000717748 0 0)
(-50.9263 0.265206 0 -0.000451851 0 0)
(-50.5124 0.358931 0 -0.00152345 0 0)
(-49.1123 0.492979 0 -0.00435376 0 0)
(-48.4407 0.611893 0 -0.00750401 0 0)
(-48.1018 0.701338 0 -0.0101522 0 0)
(-47.3984 0.760428 0 -0.0121707 0 0)
(-46.4905 0.798691 0 -0.0137015 0 0)
(-45.7034 0.829269 0 -0.015021 0 0)
(-45.0267 0.860254 0 -0.0163913 0 0)
(-44.3444 0.892846 0 -0.0179081 0 0)
(-43.6348 0.926582 0 -0.0195832 0 0)
(-42.9255 0.959683 0 -0.021341 0 0)
(-42.2255 0.992589 0 -0.0232014 0 0)
(-41.5321 1.02267 0 -0.0250382 0 0)
(-40.8417 1.05187 0 -0.0269404 0 0)
(-52.5441 -0.0798378 0 0.00451755 0 0)
(-49.6323 0.169707 0 0.000948368 0 0)
(-49.4371 0.33938 0 -0.00190826 0 0)
(-50.5425 0.478785 0 -0.0043386 0 0)
(-49.7591 0.567249 0 -0.00625342 0 0)
(-48.3776 0.58968 0 -0.00692566 0 0)
(-47.9063 0.582303 0 -0.00690299 0 0)
(-47.7782 0.577214 0 -0.00689902 0 0)
(-47.2223 0.580338 0 -0.00710535 0 0)
(-46.3952 0.588593 0 -0.00745666 0 0)
(-45.6424 0.602142 0 -0.00793264 0 0)
(-44.9758 0.62124 0 -0.00855938 0 0)
(-44.2943 0.643545 0 -0.00931471 0 0)
(-43.5838 0.667152 0 -0.0101642 0 0)
(-42.8735 0.690418 0 -0.0110583 0 0)
(-42.1731 0.713619 0 -0.0120064 0 0)
(-41.4803 0.734879 0 -0.0129437 0 0)
(-40.7911 0.75554 0 -0.0139151 0 0)
(-51.2262 0.121312 0 0.00146499 0 0)
(-49.3394 0.173218 0 0.000354656 0 0)
(-49.9826 0.123663 0 0.000102958 0 0)
(-51.6083 0.1264 0 7.63179e-05 0 0)
(-50.9439 0.191215 0 -0.000388402 0 0)
(-49.3704 0.264007 0 -0.00125632 0 0)
(-48.5747 0.322503 0 -0.00209241 0 0)
(-48.1554 0.364276 0 -0.00273816 0 0)
(-47.4128 0.38641 0 -0.00313749 0 0)
(-46.4877 0.394715 0 -0.00334517 0 0)
(-45.6879 0.40123 0 -0.00351868 0 0)
(-45.0002 0.412106 0 -0.00376449 0 0)
(-44.3108 0.426154 0 -0.0040826 0 0)
(-43.5982 0.441276 0 -0.0044444 0 0)
(-42.8888 0.456117 0 -0.00482296 0 0)
(-42.1897 0.471113 0 -0.00522854 0 0)
(-41.5001 0.484861 0 -0.00562917 0 0)
(-40.8132 0.498477 0 -0.00605073 0 0)
(-49.8149 0.168464 0 0.00215736 0 0)
(-47.5575 0.323097 0 -0.0016801 0 0)
(-48.271 0.385409 0 -0.00233593 0 0)
(-50.23 0.403864 0 -0.0023839 0 0)
(-49.9765 0.349035 0 -0.00178117 0 0)
(-48.7747 0.259733 0 -0.00114744 0 0)
(-48.2589 0.199455 0 -0.000801257 0 0)
(-48.0265 0.190191 0 -0.000752047 0 0)
(-47.398 0.203402 0 -0.000871103 0 0)
(-46.5333 0.21379 0 -0.000980692 0 0)
(-45.7616 0.220629 0 -0.00106131 0 0)
(-45.0888 0.229094 0 -0.00116005 0 0)
(-44.4131 0.238857 0 -0.00127936 0 0)
(-43.7128 0.248331 0 -0.00140434 0 0)
(-43.0169 0.256788 0 -0.00152497 0 0)
(-42.3283 0.265119 0 -0.00165134 0 0)
(-41.6513 0.272618 0 -0.00177413 0 0)
(-40.9733 0.280123 0 -0.00190425 0 0)
(-50.804 0.217692 0 0.000329694 0 0)
(-46.6948 0.279261 0 -0.000948634 0 0)
(-44.5727 0.287084 0 -0.00114522 0 0)
(-43.7816 0.228901 0 -0.00074667 0 0)
(-41.6354 0.164682 0 -0.000418332 0 0)
(-39.5271 0.110269 0 -0.000218001 0 0)
(-38.7822 0.076036 0 -0.000129515 0 0)
(-38.5602 0.0656261 0 -0.00010672 0 0)
(-37.971 0.0650364 0 -0.000108186 0 0)
(-37.1677 0.0634021 0 -0.000106594 0 0)
(-36.4804 0.0616936 0 -0.00010405 0 0)
(-35.8922 0.0625666 0 -0.000108996 0 0)
(-35.2907 0.0650111 0 -0.00011968 0 0)
(-34.6641 0.0675658 0 -0.000131609 0 0)
(-34.04 0.069673 0 -0.000142499 0 0)
(-33.4308 0.0716939 0 -0.00015362 0 0)
(-32.8274 0.073432 0 -0.000164119 0 0)
(-32.2365 0.0751568 0 -0.000175066 0 0)
(-0.000638994 0.00143495 7.67821e-23 -0.00321781 -1.59416e-22 2.36091e-37)
(-0.00717946 0.00556715 -2.11089e-22 -0.00430235 1.36963e-22 2.3278e-37)
(-0.0218036 0.00954217 0 -0.00417378 0 0)
(-0.0442157 0.0135298 0 -0.00413936 0 0)
(-0.0746166 0.0175674 0 -0.00413549 0 0)
(-0.113262 0.0216357 7.12285e-22 -0.00413234 -1.32098e-22 2.19239e-37)
(-0.160338 0.0257255 0 -0.00412681 0 0)
(-0.216013 0.0298303 0 -0.00411839 0 0)
(-0.280445 0.0339417 0 -0.00410639 0 0)
(-0.353778 0.0380487 0 -0.00409 0 0)
(-0.436131 0.0421383 -1.2677e-21 -0.00406838 1.14026e-22 2.03051e-37)
(-0.527595 0.0461948 0 -0.00404072 0 0)
(-0.628226 0.0502007 0 -0.00400628 0 0)
(-0.738042 0.0541364 0 -0.00396442 0 0)
(-0.857015 0.0579811 0 -0.00391463 0 0)
(-0.98507 0.0617131 -1.69729e-21 -0.00385656 9.13933e-23 1.87661e-37)
(-1.12208 0.0653101 0 -0.00379 0 0)
(-1.26787 0.06875 0 -0.00371494 0 0)
(-1.4222 0.0720112 0 -0.00363154 0 0)
(-1.58479 0.0750735 0 -0.00354013 0 0)
(-1.7553 0.077918 0 -0.00344118 0 0)
(-1.93333 0.0805281 0 -0.00333532 0 0)
(-2.11846 0.0828893 0 -0.00322327 0 0)
(-2.31021 0.08499 -2.09968e-21 -0.00310586 5.65579e-23 1.64671e-37)
(-2.50806 0.0868211 2.12844e-21 -0.002984 -5.28326e-23 1.61938e-37)
(-2.71148 0.0883766 -2.15326e-21 -0.0028586 4.92877e-23 1.59236e-37)
(-2.91988 0.0896533 -2.1744e-21 -0.00273064 4.59268e-23 1.56566e-37)
(-3.13268 0.090651 0 -0.00260105 0 0)
(-3.34929 0.0913719 0 -0.00247076 0 0)
(-3.56908 0.091821 2.21841e-21 -0.00234066 -3.69512e-23 1.48741e-37)
(-3.79146 0.0920057 2.22745e-21 -0.00221157 -3.43193e-23 1.46194e-37)
(-4.01581 0.0919351 0 -0.00208425 0 0)
(-4.24154 0.0916206 0 -0.00195937 0 0)
(-4.46808 0.0910746 2.24085e-21 -0.00183754 -2.74275e-23 1.38742e-37)
(-4.69486 0.0903111 0 -0.00171927 0 0)
(-4.92133 0.0893448 0 -0.001605 0 0)
(-5.147 0.0881913 -2.23758e-21 -0.00149507 2.18838e-23 1.31567e-37)
(-5.37136 0.0868665 0 -0.00138976 0 0)
(-5.59397 0.0853864 -2.22814e-21 -0.00128927 1.88279e-23 1.26937e-37)
(-5.8144 0.0837672 -4.44319e-21 -0.00119373 3.49346e-23 4.98673e-37)
(-6.03224 0.0820248 0 -0.00110321 0 0)
(-6.24715 0.0801747 0 -0.00101773 0 0)
(-6.45878 0.0782319 0 -0.000937249 0 0)
(-6.66685 0.076211 0 -0.000861702 0 0)
(-6.87108 0.0741256 0 -0.000790979 0 0)
(-7.07125 0.0719889 -4.32364e-21 -0.000724944 2.2366e-23 4.46742e-37)
(-7.26713 0.0698131 -4.29795e-21 -0.000663436 2.07784e-23 4.38503e-37)
(-7.45857 0.0676095 -4.27084e-21 -0.000606279 1.93065e-23 4.30381e-37)
(-7.6454 0.0653887 0 -0.000553281 0 0)
(-7.8275 0.0631605 4.21257e-21 -0.000504241 -1.66741e-23 4.14485e-37)
(-8.00477 0.0609337 0 -0.000458953 0 0)
(-8.17714 0.0587164 -4.14925e-21 -0.00041721 1.44041e-23 3.99048e-37)
(-8.34455 0.0565159 -4.11581e-21 -0.000378801 1.33877e-23 3.91499e-37)
(-8.50696 0.0543386 0 -0.000343521 0 0)
(-8.66435 0.0521904 0 -0.000311168 0 0)
(-8.81673 0.0500764 0 -0.000281546 0 0)
(-8.96411 0.048001 -3.97102e-21 -0.000254462 9.9811e-24 3.62418e-37)
(-9.10652 0.045968 0 -0.000229737 0 0)
(-9.24399 0.0439807 0 -0.000207194 0 0)
(-9.37658 0.0420419 0 -0.00018667 0 0)
(-9.50436 0.0401538 0 -0.000168007 0 0)
(-9.62738 0.0383182 0 -0.000151057 0 0)
(-9.74574 0.0365366 0 -0.000135681 0 0)
(-9.85952 0.0348099 0 -0.000121751 0 0)
(-9.9688 0.0331389 0 -0.000109143 0 0)
(-10.0737 0.031524 3.59012e-21 -9.77463e-05 -5.07345e-24 3.03231e-37)
(-10.1743 0.0299654 0 -8.74544e-05 0 0)
(-10.2707 0.0284628 0 -7.81707e-05 0 0)
(-10.3631 0.0270161 -3.44951e-21 -6.98051e-05 4.01608e-24 2.85323e-37)
(-10.4514 0.0256246 -3.40143e-21 -6.22746e-05 3.71052e-24 2.79547e-37)
(-10.5359 0.0242878 0 -5.55029e-05 0 0)
(-10.6167 0.0230048 3.30367e-21 -4.94195e-05 -3.16174e-24 2.68277e-37)
(-10.6938 0.0217746 -3.25405e-21 -4.39603e-05 2.91576e-24 2.62781e-37)
(-10.7675 0.0205963 0 -3.90659e-05 0 0)
(-10.8377 0.0194685 3.15354e-21 -3.4682e-05 -2.4745e-24 2.52062e-37)
(-10.9046 0.0183902 0 -3.07597e-05 0 0)
(-10.9683 0.0173602 0 -2.72536e-05 0 0)
(-11.029 0.0163769 -3.00006e-21 -2.41226e-05 1.92414e-24 2.36648e-37)
(-11.0868 0.0154391 0 -2.13295e-05 0 0)
(-11.1416 0.0145454 2.8963e-21 -1.88402e-05 -1.6211e-24 2.26802e-37)
(-11.1938 0.0136943 0 -1.6624e-05 0 0)
(-11.2433 0.0128844 -2.7917e-21 -1.46526e-05 1.36236e-24 2.1729e-37)
(-11.2903 0.0121144 -2.73916e-21 -1.2901e-05 1.24769e-24 2.12656e-37)
(-11.3348 0.0113827 -2.68649e-21 -1.13462e-05 1.14194e-24 2.08102e-37)
(-11.377 0.0106879 -5.26744e-21 -9.96737e-06 2.08978e-24 8.14509e-37)
(-11.417 0.0100286 5.16175e-21 -8.74582e-06 -1.91082e-24 7.96921e-37)
(-11.4548 0.00940329 0 -7.66484e-06 0 0)
(-11.4906 0.0088106 0 -6.70899e-06 0 0)
(-11.5244 0.00824899 0 -5.86457e-06 0 0)
(-11.5563 0.00771632 4.73851e-21 -5.11836e-06 -1.33401e-24 7.29598e-37)
(-11.5865 0.00721364 4.63281e-21 -4.46229e-06 -1.21941e-24 7.13503e-37)
(-11.6149 0.00673142 -4.52722e-21 -3.87709e-06 1.12952e-24 6.97694e-37)
(-11.6416 0.00627267 0 -3.35991e-06 0 0)
(-11.6669 0.00583977 4.31661e-21 -2.90511e-06 -9.97128e-25 6.66918e-37)
(-11.6906 0.00536861 4.21173e-21 -2.45239e-06 -1.08584e-24 6.51942e-37)
(-11.7127 0.00488724 4.10734e-21 -2.03304e-06 -1.12985e-24 6.37235e-37)
(-11.7332 0.00447477 0 -1.70383e-06 0 0)
(-11.7523 0.00412944 0 -1.44952e-06 0 0)
(-11.7702 0.0038291 0 -1.24472e-06 0 0)
(-11.7869 0.00355714 3.69326e-21 -1.07275e-06 -8.15939e-25 5.81026e-37)
(-11.8026 0.00330461 0 -9.2464e-07 0 0)
(-11.8173 0.00306752 0 -7.95757e-07 0 0)
(-11.831 0.00284405 -3.38639e-21 -6.83273e-07 5.9665e-25 5.41507e-37)
(-11.8438 0.00263359 0 -5.85288e-07 0 0)
(-11.8558 0.00243531 0 -5.00002e-07 0 0)
(-11.8669 0.00224899 -3.08321e-21 -4.2605e-07 4.37823e-25 5.04137e-37)
(-11.8773 0.00207392 0 -3.62014e-07 0 0)
(-11.8869 0.00190985 0 -3.06779e-07 0 0)
(-11.8959 0.00175611 2.78415e-21 -2.59201e-07 -3.26989e-25 4.68817e-37)
(-11.9043 0.00161236 2.68543e-21 -2.18364e-07 -2.96621e-25 4.57482e-37)
(-11.912 0.00147789 0 -1.8335e-07 0 0)
(-11.9191 0.00135238 -2.48951e-21 -1.53441e-07 2.49854e-25 4.35453e-37)
(-11.9257 0.00123516 0 -1.27918e-07 0 0)
(-11.9318 0.00112589 2.29563e-21 -1.06222e-07 -2.15468e-25 4.14252e-37)
(-11.9374 0.00102404 0 -8.78124e-08 0 0)
(-11.9426 0.000929184 2.10385e-21 -7.22408e-08 -1.90883e-25 3.93854e-37)
(-11.9473 0.000840903 2.00876e-21 -5.91102e-08 -1.83024e-25 3.83948e-37)
(-11.9517 0.000758721 0 -4.80634e-08 0 0)
(-11.9556 0.000682436 0 -3.88236e-08 0 0)
(-11.9593 0.000611655 0 -3.11223e-08 0 0)
(-11.9625 0.000546047 0 -2.47325e-08 0 0)
(-11.9655 0.000485238 0 -1.94541e-08 0 0)
(-11.9682 0.000428599 0 -1.50944e-08 0 0)
(-11.9706 0.0003761 0 -1.15312e-08 0 0)
(-11.9727 0.00032732 1.26739e-21 -8.63351e-09 -1.45051e-25 3.1134e-37)
(-11.9746 0.000282364 -1.17717e-21 -6.31183e-09 1.40569e-25 3.0305e-37)
(-11.9763 0.000240791 0 -4.4663e-09 0 0)
(-11.9778 0.000202502 0 -3.01829e-09 0 0)
(-11.979 0.000167092 0 -1.89776e-09 0 0)
(-11.9801 0.000134527 0 -1.04866e-09 0 0)
(-11.981 0.000104428 -1.46806e-21 -4.22053e-10 2.67424e-25 1.05611e-36)
(-11.9818 7.67975e-05 0 2.33154e-11 0 0)
(-11.9824 5.12566e-05 1.12084e-21 3.20687e-10 -2.69246e-25 9.98021e-37)
(-11.9828 2.78436e-05 -9.48746e-22 5.01039e-10 2.70064e-25 9.69864e-37)
(-11.9832 6.19344e-06 0 5.84974e-10 0 0)
(-11.9834 -1.36604e-05 0 5.96237e-10 0 0)
(-11.9834 -3.20577e-05 0 5.46044e-10 0 0)
(-11.9834 -4.90067e-05 2.70316e-22 4.53473e-10 -2.91907e-25 8.62949e-37)
(-11.9833 -6.46056e-05 1.03141e-22 3.25585e-10 -3.02024e-25 8.37602e-37)
(-11.983 -7.89503e-05 0 1.75549e-10 0 0)
(-11.9827 -9.20486e-05 -2.28343e-22 9.30981e-12 -3.22653e-25 7.88506e-37)
(-11.9823 -0.000104252 -3.92669e-22 -1.71431e-10 -3.33583e-25 7.64739e-37)
(-11.9818 -0.000115704 5.5606e-22 -3.6221e-10 3.44214e-25 7.41481e-37)
(-11.9812 -0.000126612 0 -5.64559e-10 0 0)
(-11.9806 -0.000136982 0 -7.73918e-10 0 0)
(-11.9799 -0.000146954 1.04072e-21 -9.92902e-10 3.71341e-25 6.74683e-37)
(-11.9791 -0.00015661 0 -1.21979e-09 0 0)
(-11.9782 -0.000166138 0 -1.45977e-09 0 0)
(-11.9773 -0.000175691 0 -1.71508e-09 0 0)
(-11.9762 -0.000185495 0 -1.99372e-09 0 0)
(-11.9752 -0.000195758 -1.83085e-21 -2.3023e-09 -4.02236e-25 5.72796e-37)
(-11.974 -0.000206758 -1.98637e-21 -2.65365e-09 -4.08236e-25 5.53767e-37)
(-11.9727 -0.000218845 0 -3.06376e-09 0 0)
(-11.9713 -0.000232449 -2.29505e-21 -3.55556e-09 -4.22053e-25 5.17001e-37)
(-11.9698 -0.000248067 0 -4.15922e-09 0 0)
(-11.9682 -0.000266351 0 -4.91935e-09 0 0)
(-11.9664 -0.000288107 -2.75254e-21 -5.89817e-09 -4.52692e-25 4.64977e-37)
(-11.9644 -0.000314379 0 -7.18746e-09 0 0)
(-11.9622 -0.000346439 -3.05418e-21 -8.9186e-09 -4.85877e-25 4.32302e-37)
(-11.9597 -0.000385947 0 -1.12906e-08 0 0)
(-11.9569 -0.000435002 0 -1.46008e-08 0 0)
(-11.9536 -0.00049634 -3.50245e-21 -1.93091e-08 -5.73642e-25 3.86175e-37)
(-11.9497 -0.000573494 0 -2.61279e-08 0 0)
(-11.9451 -0.000671076 -3.79925e-21 -3.6183e-08 -6.7836e-25 3.57278e-37)
(-11.9397 -0.000795118 0 -5.12718e-08 0 0)
(-11.9331 -0.000953702 0 -7.4327e-08 0 0)
(-11.925 -0.00115756 0 -1.10175e-07 0 0)
(-11.9149 -0.00142131 4.3921e-21 -1.66943e-07 1.14254e-24 3.03736e-37)
(-11.9023 -0.00176516 0 -2.58576e-07 0 0)
(-11.8864 -0.00221745 -4.69166e-21 -4.0957e-07 -1.65079e-24 2.7901e-37)
(-11.8661 -0.00281928 0 -6.64327e-07 0 0)
(-11.8397 -0.00362878 0 -1.1045e-06 0 0)
(-11.8051 -0.00474784 0 -1.89762e-06 0 0)
(-11.7585 -0.00626792 0 -3.3251e-06 0 0)
(-11.6968 -0.00869778 0 -6.42325e-06 0 0)
(-11.6034 -0.0112792 0 -1.09573e-05 0 0)
(-11.4893 -0.020463 0 -3.54623e-05 0 0)
(-11.2383 -0.0190636 1.20836e-20 -3.06297e-05 1.50457e-23 7.7223e-37)
(-11.0284 -0.0951891 0 -0.000760793 0 0)
(-10.1225 -0.0809215 0 -0.000623437 0 0)
(-0.000607569 0.00425167 -2.37042e-22 -0.0296354 1.43636e-21 2.12568e-36)
(-0.00742485 0.0173292 6.3412e-22 -0.0402869 -1.21976e-21 2.09587e-36)
(-0.0224404 0.0296434 0 -0.039123 0 0)
(-0.045531 0.0420284 -9.34696e-22 -0.0387802 8.1667e-22 9.04295e-37)
(-0.0768776 0.0545787 0 -0.0387359 0 0)