/*--------------------------------*- C++ -*----------------------------------*\
  =========                 |
  \\      /  F ield         | OpenFOAM: The Open Source CFD Toolbox
   \\    /   O peration     | Website:  https://openfoam.org
    \\  /    A nd           | Version:  9
     \\/     M anipulation  |
\*---------------------------------------------------------------------------*/
FoamFile
{
    format      ascii;
    class       volScalarField;
    location    "0.064";
    object      nut;
}
// * * * * * * * * * * * * * * * * * * * * * * * * * * * * * * * * * * * * * //

dimensions      [0 2 -1 0 0 0 0];

internalField   nonuniform List<scalar> 
12225
(
0
0
0
0
0
0
0
0
0
0
0
0
0
0
0
0
0
0
0
0
0
0
0
0
0
0
0
0
0
0
0
0
0
0
0
0
0
0
0
0
1.63014e-10
4.00061e-10
3.42411e-10
0
0
0
0
0
0
0
0
0
0
0
0
0
0
3.63678e-09
9.49263e-09
1.3122e-08
1.11821e-08
4.89569e-09
0
0
0
0
0
0
0
0
0
0
0
5.24191e-07
7.63629e-08
0
0
0
6.9746e-07
1.40115e-06
1.76008e-06
1.664e-06
0
0
0
0
0
1.60375e-09
3.2863e-09
0
0
3.58771e-07
3.09402e-07
0
0
0
0
1.96711e-06
2.06957e-06
1.72893e-06
1.27388e-07
0
0
0
1.00453e-07
1.41612e-07
1.32326e-07
4.52795e-08
0
0
1.80033e-07
0
0
0
0
8.95098e-07
1.56943e-06
1.75043e-06
1.70481e-06
7.56857e-07
3.79862e-07
2.67639e-07
2.18438e-07
2.05891e-07
1.83771e-07
6.57125e-08
0
0
8.89044e-08
5.53146e-08
0
0
0
2.11903e-07
4.77435e-07
7.84126e-07
1.67618e-06
1.637e-06
1.38179e-06
1.13281e-06
8.70907e-07
6.365e-07
4.00679e-07
1.65097e-07
0
0
5.14889e-07
8.69083e-07
5.04634e-07
1.12271e-07
4.49837e-08
1.07673e-08
0
0
1.93211e-07
9.66009e-07
1.21345e-06
1.10866e-06
8.50059e-07
5.5314e-07
3.10915e-07
1.82452e-07
6.39405e-07
2.56919e-07
1.66692e-06
1.45291e-06
9.73505e-07
4.60331e-07
0
0
0
0
0
1.67027e-07
5.72953e-07
6.29951e-07
4.58638e-07
2.44587e-07
8.59876e-08
2.51119e-09
9.34855e-07
2.80827e-07
1.27005e-06
1.5606e-06
1.02238e-06
4.17615e-07
2.96851e-08
0
0
0
1.47914e-07
3.47863e-07
0
0
1.47345e-07
3.69548e-07
2.4493e-07
7.05086e-08
6.6685e-07
3.1461e-07
6.99961e-07
6.09352e-07
4.93491e-07
2.28836e-07
2.2477e-08
0
0
0
7.01184e-07
1.77372e-06
0
0
0
1.04147e-07
4.54046e-07
4.77815e-07
0
0
2.86048e-07
3.57077e-07
3.22515e-07
1.71458e-07
3.16747e-09
0
0
2.34904e-07
9.53754e-07
1.83491e-06
1.46877e-06
0
0
2.40613e-07
7.33111e-07
1.25648e-06
0
0
2.55251e-09
2.32818e-07
0
2.63728e-07
0
0
0
3.8104e-07
1.23513e-06
2.21205e-06
2.11165e-06
0
0
2.65036e-07
7.97405e-07
1.26432e-06
5.21157e-08
0
0
1.07481e-07
0
5.03597e-07
0
0
0
5.83924e-07
1.87676e-06
2.15402e-06
1.13093e-06
0
0
2.69285e-08
6.69015e-07
1.06498e-06
7.45732e-07
5.98566e-07
3.01123e-07
2.09887e-07
5.86646e-07
9.35577e-07
5.58892e-07
0
0
0
3.53953e-07
1.07857e-06
1.40926e-06
1.20919e-06
7.77917e-07
3.41123e-07
1.49472e-07
4.05896e-07
6.72786e-07
6.8624e-07
1.26085e-07
0
1.19132e-07
8.87101e-07
2.84288e-07
0
0
0
0
7.35396e-08
1.39451e-06
1.81644e-06
1.49431e-06
1.0214e-06
2.54526e-07
0
0
0
0
0
0
0
0
0
0
2.23071e-07
1.92433e-07
1.22364e-07
1.2682e-07
2.22882e-07
2.37642e-07
9.84584e-08
0
0
0
0
0
0
0
0
0
0
0
0
3.21446e-07
4.14363e-07
3.77796e-07
2.92993e-07
1.95947e-07
1.25775e-07
8.95497e-08
6.27949e-08
0
0
0
0
0
0
0
0
0
0
1.3266e-06
1.09094e-06
7.52106e-07
4.96552e-07
2.90519e-07
9.97711e-08
0
0
0
0
1.2009e-07
0
0
0
2.18972e-07
0
0
0
1.59969e-06
1.39143e-06
9.89057e-07
5.52e-07
9.68749e-08
0
0
0
0
7.01709e-07
9.86239e-07
0
0
0
0
0
0
0
1.78608e-06
1.3041e-06
8.17792e-07
2.80766e-07
0
0
0
0
0
2.24799e-07
1.80969e-06
1.74505e-06
1.26369e-06
0
0
0
0
0
1.97808e-07
6.99323e-07
6.58831e-07
3.27329e-07
9.86212e-09
0
0
4.22249e-09
0
0
1.23769e-06
1.65678e-06
1.16515e-06
0
0
0
0
0
0
0
0
0
7.3693e-08
1.47746e-07
1.32582e-07
1.45298e-07
0
0
1.89259e-07
2.46119e-07
4.04826e-08
0
0
0
0
0
0
0
0
0
0
1.82134e-07
0
0
0
0
0
0
0
0
0
0
0
3.15649e-07
1.31604e-06
1.75e-06
1.42603e-06
0
0
0
0
0
5.83703e-08
0
0
3.03479e-10
6.18406e-09
9.76195e-09
1.34147e-08
2.2266e-08
3.52883e-08
4.18775e-08
3.53063e-08
2.00239e-08
6.22974e-09
0
0
0
0
0
1.78673e-09
0
0
0
0
0
1.73647e-10
6.69129e-10
9.23919e-10
8.00914e-10
3.51664e-10
0
0
0
0
0
0
0
1.32276e-09
0
0
0
0
0
0
0
0
0
0
0
0
0
0
0
0
0
2.90883e-09
0
0
0
0
0
0
0
0
0
0
0
0
0
0
0
0
0
0
0
0
1.49007e-07
3.84088e-06
4.02616e-06
2.07129e-06
0
0
0
0
0
0
0
0
0
1.41574e-07
5.32495e-07
7.54985e-07
8.8839e-07
8.85236e-07
3.48607e-07
0
0
0
0
0
1.13153e-06
1.81882e-06
1.62599e-06
3.31948e-06
1.09626e-05
2.38974e-05
3.4933e-05
3.96934e-05
3.69689e-05
2.16941e-05
5.35244e-06
0
0
0
0
0
2.1627e-06
3.79709e-06
4.20819e-06
3.7876e-06
3.00361e-06
2.31082e-06
1.85577e-06
1.49246e-06
1.1375e-06
8.0715e-07
5.14641e-07
2.54318e-07
2.27105e-08
0
0
0
0
0
0
0
0
0
0
0
0
0
0
0
0
0
0
0
0
9.22317e-07
3.87828e-06
6.56526e-06
8.4713e-06
1.27231e-05
2.83729e-05
3.14307e-05
0
0
0
0
1.25082e-06
8.49838e-07
6.29719e-07
5.92731e-07
4.54603e-07
3.45924e-07
2.22141e-07
1.26425e-07
3.83593e-08
0
0
0
0
0
0
0
0
0
0
0
0
0
0
0
0
0
0
0
0
0
0
0
0
0
0
0
0
0
3.23113e-07
3.47869e-07
1.93557e-07
5.00938e-08
0
0
0
0
0
0
0
0
0
0
0
0
0
0
0
0
0
0
0
0
0
0
0
0
0
0
0
0
0
2.07627e-07
0
0
2.93227e-07
9.66626e-07
1.35787e-06
9.62895e-07
0
0
0
0
0
0
0
8.72088e-08
6.97141e-07
2.21573e-06
5.37635e-06
7.18023e-06
0
0
0
2.20472e-05
7.54363e-06
3.46722e-06
4.12485e-06
6.27208e-06
6.52483e-06
4.27211e-06
9.66842e-07
0
0
0
0
0
0
0
0
4.4427e-07
1.08301e-06
1.48376e-06
1.79609e-06
2.11553e-06
2.26365e-06
1.75802e-06
8.82873e-07
1.05679e-06
1.50465e-06
1.43851e-06
1.77652e-06
4.25246e-06
6.28622e-06
1.09181e-05
1.76305e-05
1.81233e-05
1.60659e-05
1.15002e-05
4.69562e-06
0
0
0
0
0
0
0
0
1.63388e-06
2.53626e-06
2.30039e-06
1.89342e-06
1.4693e-06
1.08494e-06
8.21729e-07
5.96475e-07
4.13473e-07
2.55308e-07
1.15097e-07
0
0
0
0
0
0
0
0
0
0
0
0
0
0
8.72066e-07
2.11936e-06
0
0
0
0
0
3.43766e-06
1.0836e-05
1.46146e-05
1.33913e-05
1.17542e-05
1.05572e-05
0
0
0
0
0
1.80949e-06
9.77013e-07
7.39549e-07
7.33978e-07
6.09905e-07
4.90648e-07
3.42197e-07
2.05756e-07
6.26986e-08
0
0
0
0
0
0
0
0
0
0
0
0
0
0
0
0
0
0
0
0
0
0
0
0
0
0
0
0
0
2.05866e-07
4.45e-07
4.10688e-07
2.63039e-07
1.16401e-07
1.38579e-08
0
0
0
0
0
0
0
0
0
0
0
0
0
0
0
0
0
0
0
0
0
0
0
0
0
0
0
3.74144e-07
0
0
0
0
0
4.64706e-08
8.75862e-08
2.14888e-07
2.60339e-07
0
0
0
1.21467e-07
5.54496e-07
1.11434e-06
2.06618e-06
3.15296e-06
2.56125e-06
0
0
0
1.17305e-05
1.18336e-05
7.07268e-06
5.56662e-06
6.74091e-06
6.44091e-06
2.75204e-06
0
0
0
0
0
0
0
0
0
2.20902e-06
7.3978e-06
1.12263e-05
1.28649e-05
1.28934e-05
1.24606e-05
1.00488e-05
7.28984e-06
4.98044e-06
2.71132e-06
2.3689e-07
0
0
0
0
0
0
0
0
0
0
0
0
0
0
0
0
0
0
0
0
4.19212e-07
6.27865e-07
5.62579e-07
4.5069e-07
3.25487e-07
2.10384e-07
1.05642e-07
4.33416e-09
0
0
0
0
0
0
0
0
0
0
0
0
3.0322e-07
1.39014e-06
1.91239e-06
1.06122e-06
0
0
0
0
0
6.35931e-06
1.79768e-05
1.35149e-05
8.71533e-06
5.52604e-06
0
0
0
0
0
1.33376e-06
3.42694e-06
2.12083e-06
2.54684e-06
2.76325e-06
2.39743e-06
1.93535e-06
1.34648e-06
7.98257e-07
2.39587e-07
0
0
0
0
0
0
0
0
0
0
0
0
0
0
0
0
0
0
0
0
0
0
0
0
0
0
0
0
0
0
0
1.78596e-07
3.57848e-07
3.56001e-07
2.35589e-07
1.1323e-07
4.85122e-08
3.92848e-08
5.97828e-08
8.73755e-08
1.09571e-07
1.21848e-07
1.23856e-07
1.17008e-07
1.02743e-07
8.01273e-08
5.07081e-08
1.80821e-08
0
0
0
0
0
0
0
0
0
0
0
0
0
5.70922e-09
7.01293e-07
0
0
0
0
0
0
0
0
1.40006e-07
1.65457e-07
6.02847e-08
7.96137e-08
3.65329e-07
7.54568e-07
1.10965e-06
1.39301e-06
1.50923e-06
1.18979e-06
0
0
0
5.92882e-06
7.28821e-06
6.04891e-06
5.69673e-06
4.41218e-06
0
0
0
0
0
0
0
0
0
0
0
0
1.58491e-06
5.61738e-06
8.26799e-06
7.4938e-06
4.86073e-06
1.65318e-06
0
0
0
0
0
0
0
0
0
0
0
0
0
0
0
0
0
0
0
0
0
0
0
0
0
0
0
0
0
1.73019e-07
1.61671e-07
1.66994e-08
0
0
8.76067e-08
3.0022e-07
5.21808e-07
7.29686e-07
9.23303e-07
1.10849e-06
1.28119e-06
1.44062e-06
1.59395e-06
1.73162e-06
1.82494e-06
1.76219e-06
1.07898e-06
0
0
0
0
0
0
0
2.53266e-06
5.06485e-06
3.74105e-06
2.30946e-06
0
0
0
1.75461e-07
9.50164e-08
3.28411e-06
5.40957e-06
3.29076e-06
3.56156e-06
2.26053e-06
1.71069e-06
9.62909e-07
2.94782e-07
0
0
0
0
0
0
0
0
0
0
0
0
0
0
0
0
0
0
0
0
0
0
0
0
0
0
0
0
0
0
0
0
0
0
0
0
0
0
0
0
0
0
0
0
0
0
0
0
0
0
0
0
0
0
0
0
0
0
0
0
1.21644e-08
7.58765e-07
3.89195e-08
1.90829e-07
1.69947e-06
0
0
0
0
0
0
0
0
1.90859e-07
2.04784e-07
1.57528e-07
2.77318e-07
6.97606e-07
1.23969e-06
1.46357e-06
1.09998e-06
0
0
1.0615e-06
8.17471e-07
0
6.24625e-07
1.2801e-06
2.77571e-06
6.41568e-06
0
0
0
0
0
0
0
0
0
0
0
0
0
0
0
4.06846e-06
3.68168e-06
0
0
0
0
0
0
0
0
0
0
0
0
0
0
0
0
0
0
0
0
0
0
0
0
0
0
0
0
2.24992e-10
3.62886e-07
7.4041e-07
1.036e-06
1.0305e-06
6.8959e-07
2.66311e-07
0
0
3.29452e-08
3.66459e-07
7.30164e-07
1.06139e-06
1.3271e-06
1.52715e-06
1.69507e-06
1.8297e-06
1.9139e-06
1.88978e-06
1.69811e-06
9.11208e-07
0
0
0
0
0
0
0
0
7.5852e-07
2.68362e-06
1.80342e-06
0
0
0
0
0
1.44478e-06
2.26064e-06
1.09258e-06
6.9556e-07
0
0
0
0
0
0
6.29776e-08
5.40905e-07
7.61596e-07
7.81364e-07
6.8455e-07
5.17506e-07
3.33469e-07
1.68446e-07
4.26857e-08
0
0
0
0
0
0
0
0
0
0
0
0
0
0
0
0
0
0
0
0
0
0
0
0
0
0
0
0
0
0
0
0
0
0
0
0
0
0
0
0
0
0
0
0
0
0
0
0
0
3.93896e-07
1.21447e-06
1.48164e-06
1.5666e-06
2.78891e-06
1.7497e-06
0
0
0
0
0
0
4.5064e-07
6.84041e-07
6.10489e-07
4.31816e-07
6.30849e-07
1.40502e-06
2.04393e-06
1.96006e-06
1.04699e-06
0
0
1.76287e-06
1.45613e-06
0
0
9.83887e-08
6.90648e-07
0
0
7.29171e-06
2.72786e-05
4.26669e-05
3.14132e-05
1.14156e-05
0
0
0
0
0
0
0
0
0
0
0
0
0
0
0
0
0
0
0
0
0
0
0
0
0
0
0
0
0
0
0
0
0
0
0
0
2.42099e-07
7.09567e-07
1.25276e-06
1.8517e-06
2.53165e-06
3.25495e-06
3.79517e-06
3.31885e-06
5.80565e-07
0
0
0
0
0
0
0
0
4.25994e-07
8.53974e-07
1.11374e-06
1.28898e-06
1.43964e-06
1.57807e-06
1.38383e-06
0
0
0
0
0
0
0
0
0
2.64542e-06
2.37732e-06
0
0
0
0
0
5.37317e-08
1.17678e-06
9.35224e-07
5.62599e-07
0
0
0
0
0
0
4.0158e-08
4.83152e-07
7.18632e-07
7.77345e-07
7.19861e-07
5.79187e-07
4.06265e-07
2.45533e-07
1.27957e-07
4.76233e-08
0
0
0
0
0
0
0
0
0
0
0
0
0
0
0
0
0
0
0
0
0
0
6.48004e-08
6.58383e-08
0
0
0
0
0
0
0
0
0
0
0
0
0
0
0
0
0
0
0
0
0
0
0
0
2.84994e-07
1.01564e-06
1.61938e-06
1.90681e-06
2.98545e-06
2.97604e-06
5.46728e-07
2.00492e-08
0
0
0
6.03446e-07
1.31474e-06
1.61134e-06
1.47664e-06
1.25938e-06
1.41101e-06
2.14155e-06
2.55538e-06
2.06664e-06
6.87148e-07
0
0
2.11773e-06
2.18926e-06
0
0
0
1.42989e-07
0
4.27445e-07
4.98217e-06
1.08697e-05
1.96755e-05
3.05106e-05
3.79192e-05
3.05243e-05
1.78427e-05
1.43901e-05
1.17379e-05
4.66177e-06
0
0
0
0
0
0
9.88743e-07
0
0
0
0
0
0
0
0
0
0
0
0
0
0
0
0
0
0
0
0
2.01245e-07
7.47818e-07
1.37661e-06
2.09836e-06
2.61014e-06
2.7276e-06
2.71609e-06
2.83962e-06
3.20032e-06
3.69471e-06
3.95315e-06
3.13846e-06
0
0
0
0
0
0
0
0
0
0
0
5.01482e-09
7.01824e-07
1.197e-06
1.83783e-06
2.54111e-06
7.10109e-07
0
0
0
0
0
0
0
0
0
4.39446e-06
1.84094e-06
9.40884e-07
2.86064e-06
8.13065e-06
6.65648e-07
0
0
0
0
0
0
0
0
0
0
0
1.14315e-07
3.8137e-07
5.10833e-07
5.13611e-07
4.17346e-07
2.65025e-07
1.29441e-07
5.4021e-08
3.6788e-09
0
0
0
0
0
0
0
0
0
0
0
0
0
0
0
0
0
0
0
0
0
0
1.68083e-07
8.47558e-07
2.75643e-07
0
0
0
0
0
0
0
0
0
0
0
0
0
0
0
0
0
0
0
0
0
0
0
1.49e-07
6.55813e-07
1.32077e-06
1.7625e-06
2.57947e-06
2.99648e-06
1.9855e-06
4.81397e-07
1.3263e-07
2.2516e-07
1.28149e-06
2.27972e-06
2.76902e-06
2.9787e-06
2.68841e-06
2.31835e-06
2.42303e-06
2.83461e-06
2.8865e-06
2.04756e-06
2.64316e-07
0
0
2.31372e-06
2.67313e-06
2.99594e-07
0
0
0
0
0
1.17376e-06
2.73853e-06
4.66593e-06
7.18359e-06
9.03289e-06
6.83598e-06
6.29975e-06
7.46625e-06
8.58337e-06
8.27595e-06
7.19318e-06
7.12183e-06
8.66145e-06
1.26812e-05
1.95543e-05
1.87565e-05
1.00461e-05
4.43994e-06
1.43068e-06
0
0
0
0
0
0
0
0
0
0
0
0
0
0
4.07574e-07
2.03324e-06
3.35929e-06
4.09353e-06
4.68053e-06
5.21538e-06
4.84883e-06
3.36161e-06
2.00031e-06
1.21251e-06
9.22072e-07
9.48268e-07
1.14342e-06
1.38634e-06
1.51672e-06
1.36125e-06
8.61895e-07
2.11125e-07
0
0
0
0
0
0
0
0
0
0
2.07091e-07
2.6273e-06
4.642e-06
6.26951e-06
0
0
0
6.5103e-08
7.3008e-07
0
0
0
0
0
4.353e-06
5.77704e-06
8.16061e-06
1.51328e-05
6.52382e-06
5.94236e-08
0
0
0
0
0
0
0
0
0
0
0
0
1.0078e-07
2.66856e-07
3.19738e-07
2.62471e-07
1.30017e-07
2.92374e-08
0
0
0
0
0
0
0
0
0
0
0
0
0
0
0
0
0
0
0
0
0
0
0
0
9.75428e-07
1.58065e-06
7.98119e-07
0
0
0
0
0
0
0
0
0
0
0
0
0
0
0
0
0
0
0
0
0
0
0
8.13424e-08
3.43537e-07
7.96386e-07
1.35493e-06
2.06563e-06
2.88162e-06
2.65059e-06
2.16095e-06
3.01704e-06
3.51853e-06
4.11721e-06
4.55439e-06
4.59676e-06
4.55707e-06
4.05835e-06
3.43709e-06
3.4233e-06
3.60866e-06
3.25707e-06
2.03897e-06
0
0
0
2.89529e-06
3.23153e-06
6.39621e-07
1.87342e-08
1.99767e-08
0
0
0
1.58098e-07
6.13078e-07
4.71078e-07
0
1.42682e-06
8.23048e-06
1.28241e-05
1.56688e-05
1.77107e-05
1.97442e-05
2.24334e-05
2.56571e-05
2.79382e-05
2.69737e-05
2.20143e-05
1.5726e-05
1.04074e-05
6.438e-06
3.55467e-06
1.41221e-06
0
0
0
0
0
0
0
0
0
0
0
6.75817e-08
1.97285e-06
4.87969e-06
8.70544e-06
1.2808e-05
1.45792e-05
1.07065e-05
5.79357e-06
2.28466e-06
4.38533e-07
0
0
0
0
9.59331e-08
2.40931e-07
2.70991e-07
2.35153e-07
2.68757e-07
4.73133e-07
7.1345e-07
8.33096e-07
7.57724e-07
4.43984e-07
0
0
0
0
0
0
5.4888e-07
2.89664e-06
2.18047e-06
6.13235e-07
0
0
0
0
5.90854e-07
5.64143e-07
3.95045e-07
5.07057e-07
2.43048e-07
9.46997e-07
3.3882e-06
6.00857e-06
1.02743e-05
8.12048e-06
2.68379e-06
1.49996e-07
0
0
0
0
0
0
0
0
0
0
0
0
0
9.54e-08
1.33155e-07
6.94168e-08
0
0
0
0
0
0
0
0
0
0
0
0
0
0
0
0
0
0
0
0
0
0
0
0
0
7.21257e-07
1.82455e-06
1.8682e-06
1.16515e-06
2.99692e-07
0
0
0
0
0
0
0
0
0
0
0
0
0
0
0
0
0
0
0
0
0
0
7.82458e-08
2.54592e-07
4.92786e-07
9.06399e-07
1.58594e-06
2.33891e-06
2.84719e-06
2.96051e-06
3.77925e-06
4.32176e-06
4.90707e-06
5.61588e-06
5.92935e-06
5.95897e-06
5.39908e-06
4.57242e-06
4.3265e-06
4.34359e-06
3.59456e-06
2.00542e-06
0
0
0
3.50048e-06
4.13646e-06
1.05873e-06
1.54863e-08
1.49495e-09
0
0
0
0
2.76985e-07
1.48954e-06
6.56708e-06
1.32762e-05
1.43179e-05
1.57318e-05
1.81277e-05
2.08491e-05
2.36554e-05
2.57262e-05
2.61556e-05
2.46807e-05
2.19261e-05
1.85972e-05
1.51788e-05
1.18202e-05
8.7709e-06
6.0461e-06
3.60895e-06
1.34495e-06
0
0
0
0
0
0
0
0
0
7.9093e-08
1.23934e-06
2.3927e-06
2.8463e-06
3.04279e-06
4.95998e-06
6.18774e-06
3.62863e-06
9.61173e-07
0
0
0
0
0
0
2.21712e-07
1.60036e-07
0
0
0
0
1.27625e-07
6.7431e-07
9.88858e-07
1.02795e-06
7.78615e-07
2.08949e-07
0
0
0
0
0
5.12949e-07
5.18745e-07
1.49804e-07
0
0
0
0
0
1.81002e-07
8.30384e-07
9.98004e-07
7.08336e-07
1.11978e-06
2.78988e-06
4.92136e-06
6.81879e-06
3.96444e-06
1.3695e-06
6.28532e-07
0
0
0
0
0
0
0
0
0
0
0
0
0
0
0
0
0
0
0
0
0
3.02392e-08
2.16061e-08
0
0
0
0
0
0
0
0
0
0
0
0
0
0
0
0
0
3.42658e-07
1.16472e-06
1.85046e-06
1.96772e-06
1.41006e-06
6.14311e-07
0
0
0
0
0
0
0
0
0
0
0
0
0
0
0
0
0
0
0
0
0
0
1.14919e-07
2.98902e-07
4.86407e-07
7.0661e-07
1.10564e-06
1.73249e-06
2.29443e-06
3.09158e-06
4.07484e-06
4.79742e-06
5.38114e-06
6.06658e-06
6.61157e-06
6.9654e-06
6.60723e-06
5.69997e-06
5.1885e-06
4.9341e-06
3.82798e-06
1.92203e-06
0
0
0
2.6952e-06
4.58284e-06
1.23607e-06
0
0
0
0
0
0
4.19194e-07
3.6843e-06
7.66058e-06
8.11435e-06
8.40968e-06
9.39115e-06
1.08134e-05
1.22254e-05
1.35797e-05
1.47343e-05
1.53377e-05
1.52074e-05
1.459e-05
1.36339e-05
1.24151e-05
1.10677e-05
9.58646e-06
7.91355e-06
5.99025e-06
3.78556e-06
1.86233e-06
1.22707e-06
1.46517e-06
1.10943e-06
0
0
0
0
0
5.21488e-07
9.04054e-07
7.74011e-07
6.30503e-07
1.52823e-06
2.70826e-06
1.85585e-06
1.85457e-07
0
0
0
0
3.99651e-07
1.40199e-06
2.44192e-06
3.04567e-06
2.5793e-06
8.61815e-07
0
0
0
2.56094e-07
1.21903e-06
1.87017e-06
2.17498e-06
2.159e-06
1.82842e-06
1.17313e-06
1.16756e-07
0
0
0
0
0
0
0
0
0
0
0
0
5.23101e-07
1.00896e-06
9.51554e-07
1.32628e-06
2.43744e-06
3.7008e-06
4.18872e-06
1.96963e-06
7.50541e-07
1.08161e-06
0
0
0
0
0
0
0
0
0
0
0
0
0
0
0
0
0
0
0
7.30767e-08
2.3203e-07
3.2488e-07
3.15028e-07
2.37828e-07
1.50217e-07
8.42139e-08
3.91386e-08
0
0
0
0
0
0
0
0
0
0
0
0
0
3.71124e-07
1.00464e-06
1.69515e-06
1.93101e-06
1.57764e-06
9.05762e-07
1.87321e-07
0
0
0
0
0
0
0
0
0
0
0
0
0
0
0
0
0
0
0
0
0
2.35471e-07
5.34158e-07
6.50763e-07
8.12803e-07
1.04406e-06
1.37664e-06
1.84132e-06
2.58486e-06
4.25949e-06
5.47398e-06
6.19133e-06
6.82578e-06
7.27402e-06
7.69913e-06
7.64981e-06
6.80617e-06
6.04852e-06
5.41758e-06
3.92483e-06
1.71999e-06
0
0
0
0
2.94052e-06
5.4676e-07
0
0
0
0
0
0
0
2.16046e-06
3.29511e-06
3.25729e-06
3.52419e-06
4.03271e-06
4.63316e-06
5.105e-06
5.72852e-06
6.47836e-06
7.08766e-06
7.375e-06
7.40905e-06
7.22009e-06
6.96153e-06
6.68937e-06
6.39092e-06
6.10467e-06
5.81054e-06
5.49938e-06
4.84999e-06
3.44846e-06
1.73006e-06
4.79173e-07
0
0
0
0
1.58995e-07
2.70388e-07
7.3152e-08
0
2.49628e-07
1.07375e-06
9.32026e-07
0
0
0
0
1.06389e-07
1.40435e-06
3.36352e-06
5.89907e-06
8.69378e-06
1.10625e-05
1.10512e-05
5.90043e-06
0
0
0
0
0
8.66837e-07
1.92617e-06
2.47792e-06
2.57975e-06
2.3456e-06
1.9076e-06
1.20547e-06
0
0
0
0
0
0
0
0
0
0
0
0
8.19743e-07
1.15537e-06
1.62259e-06
2.36077e-06
2.82174e-06
2.57572e-06
7.96531e-07
9.50354e-08
1.08738e-06
7.21353e-07
0
0
0
0
0
0
0
0
0
0
0
0
0
0
0
0
0
8.91895e-08
3.43305e-07
5.71451e-07
6.98096e-07
6.69156e-07
5.51569e-07
4.25618e-07
3.34791e-07
2.80495e-07
2.31057e-07
1.61242e-07
6.9226e-08
0
0
0
0
0
0
0
0
0
0
3.18011e-07
8.70934e-07
1.5374e-06
1.87623e-06
1.731e-06
1.21114e-06
5.16847e-07
0
0
0
0
0
0
0
0
0
0
0
0
0
0
0
0
0
0
0
0
0
3.47169e-07
1.09949e-06
1.25826e-06
1.19754e-06
1.23947e-06
1.46787e-06
1.74845e-06
2.35278e-06
4.03245e-06
6.72676e-06
7.97496e-06
8.58876e-06
8.78362e-06
8.60937e-06
8.5589e-06
7.88946e-06
6.9337e-06
5.79434e-06
3.81184e-06
1.32637e-06
0
0
0
0
0
0
0
0
0
0
0
0
0
1.76479e-07
4.33497e-07
4.93167e-07
8.65213e-07
1.16769e-06
1.31636e-06
1.35563e-06
1.55132e-06
1.85706e-06
2.15307e-06
2.34957e-06
2.4085e-06
2.39506e-06
2.40664e-06
2.528e-06
2.83823e-06
3.35631e-06
3.72568e-06
3.26724e-06
2.34654e-06
1.44921e-06
7.44461e-07
2.51928e-07
0
0
3.20674e-09
1.00287e-07
8.43298e-08
0
0
0
1.26097e-07
3.95023e-07
0
0
0
0
6.60181e-08
1.21545e-06
3.11361e-06
5.80123e-06
9.38249e-06
1.40446e-05
2.00419e-05
2.69911e-05
2.65837e-05
0
0
0
0
0
0
0
8.64598e-07
1.44287e-06
1.36564e-06
9.68455e-07
5.62326e-07
3.35725e-07
1.37932e-07
0
0
0
0
0
0
0
0
0
0
0
1.06845e-06
1.92117e-06
2.4249e-06
2.41834e-06
1.75609e-06
0
0
4.572e-07
1.83502e-06
8.46057e-07
0
0
0
0
0
0
0
0
0
0
0
0
0
0
0
8.30411e-08
4.61735e-07
7.82513e-07
1.10987e-06
1.24511e-06
1.11717e-06
8.45174e-07
6.17634e-07
4.87138e-07
4.23111e-07
3.66059e-07
2.96653e-07
1.88001e-07
3.73833e-08
0
0
0
0
0
0
0
0
0
2.08954e-07
7.65471e-07
1.41187e-06
1.85623e-06
1.92204e-06
1.6118e-06
8.55689e-07
0
0
0
0
0
0
0
0
0
0
0
0
0
0
0
0
0
0
0
0
0
0
1.87581e-06
2.45121e-06
2.21208e-06
1.85615e-06
1.752e-06
1.91812e-06
2.37604e-06
3.91996e-06
7.45742e-06
9.80687e-06
1.07821e-05
1.09576e-05
1.04313e-05
9.60369e-06
9.03947e-06
7.86735e-06
5.99754e-06
3.50376e-06
7.65096e-07
0
0
0
0
0
0
0
0
0
0
0
0
0
0
0
0
0
0
0
0
0
0
0
0
0
1.23652e-07
5.87819e-07
1.2922e-06
2.13637e-06
2.76999e-06
2.80949e-06
2.25476e-06
1.65448e-06
1.12643e-06
7.06311e-07
4.26015e-07
3.05209e-07
2.89155e-07
2.85605e-07
1.97719e-07
0
0
0
0
0
0
0
0
0
0
3.91959e-07
1.54246e-06
3.28896e-06
5.61528e-06
8.50095e-06
1.17488e-05
1.47727e-05
1.62792e-05
1.32234e-05
3.42686e-07
0
0
0
0
0
0
0
9.2833e-07
1.15686e-06
7.54367e-07
9.33456e-08
0
0
0
0
0
0
0
0
0
0
0
0
0
0
1.27491e-06
2.34454e-06
2.53859e-06
1.91734e-06
0
0
0
5.38497e-07
1.48125e-06
1.29513e-06
6.10851e-07
0
0
0
0
0
0
0
0
0
0
0
0
1.05314e-07
6.75768e-07
1.10231e-06
1.60749e-06
2.00181e-06
1.82052e-06
1.25581e-06
7.75489e-07
4.95948e-07
3.68352e-07
3.0759e-07
2.66241e-07
2.29286e-07
1.58505e-07
1.27624e-09
0
0
0
0
0
0
0
0
0
0
3.6016e-07
1.07536e-06
1.71373e-06
2.53151e-06
3.65356e-06
1.84186e-06
5.84763e-08
0
0
0
0
0
0
0
0
0
0
0
0
0
0
0
0
0
0
0
0
0
2.02847e-06
4.0372e-06
3.9735e-06
3.16417e-06
2.481e-06
2.31192e-06
2.57317e-06
3.91956e-06
7.57677e-06
1.10474e-05
1.24377e-05
1.27383e-05
1.21873e-05
1.1463e-05
1.0625e-05
8.96208e-06
6.10439e-06
3.0567e-06
2.09817e-07
0
0
0
0
0
0
0
0
0
0
0
0
0
0
0
0
0
0
0
0
0
0
0
0
0
0
5.547e-07
1.53626e-06
2.36294e-06
2.70053e-06
2.48832e-06
1.96987e-06
1.52679e-06
1.17306e-06
9.22892e-07
7.72323e-07
6.99409e-07
6.46481e-07
5.32421e-07
3.08643e-07
0
0
0
0
0
0
0
0
0
0
3.23257e-07
1.10385e-06
2.22944e-06
3.59127e-06
4.98579e-06
6.03202e-06
6.21925e-06
5.22947e-06
3.11358e-06
0
0
0
0
0
0
0
0
0
9.42502e-07
9.69614e-07
5.8442e-07
9.2532e-08
0
0
0
0
0
0
0
0
0
0
0
3.11633e-09
2.47006e-09
3.53295e-07
1.69823e-06
2.89621e-06
2.96575e-06
8.80708e-07
0
0
0
0
0
7.46973e-07
1.49771e-06
1.59267e-06
1.1681e-06
3.98672e-07
0
0
0
0
0
0
0
4.59874e-07
1.19806e-06
1.77578e-06
2.52503e-06
3.15956e-06
2.62727e-06
1.63366e-06
9.23553e-07
5.19382e-07
3.08728e-07
2.03885e-07
1.49102e-07
1.06326e-07
6.11577e-08
0
0
0
0
0
0
0
0
0
0
0
0
0
0
3.7177e-07
2.67114e-06
2.19115e-06
8.59109e-07
1.48438e-07
0
0
0
0
0
0
0
0
0
0
0
0
0
0
0
0
0
0
0
0
0
4.77527e-07
5.16486e-06
6.35573e-06
5.30317e-06
3.87595e-06
3.04194e-06
3.04322e-06
4.04136e-06
7.46455e-06
1.15013e-05
1.35155e-05
1.41684e-05
1.36929e-05
1.30423e-05
1.27052e-05
1.0539e-05
6.34931e-06
2.65134e-06
0
0
0
0
0
0
0
0
0
0
0
0
0
0
0
0
0
0
0
0
0
0
0
0
0
0
2.11211e-07
1.104e-06
2.05625e-06
2.68498e-06
2.79207e-06
2.45261e-06
1.97991e-06
1.6316e-06
1.37179e-06
1.19454e-06
1.07554e-06
9.72928e-07
8.61245e-07
6.94009e-07
4.54455e-07
1.69819e-07
0
0
0
0
1.65705e-08
2.53648e-08
0
0
0
0
0
2.76238e-07
6.43932e-07
9.55035e-07
1.07845e-06
8.67895e-07
3.06506e-07
0
0
0
0
0
0
0
0
0
0
3.42581e-07
7.983e-07
6.03377e-07
2.55218e-07
3.05049e-08
0
0
0
0
0
0
0
0
0
0
0
4.95864e-08
4.207e-08
3.63317e-07
1.87217e-06
3.33583e-06
2.85919e-06
3.59518e-08
0
0
0
0
0
0
0
9.80031e-08
7.58108e-07
7.60237e-07
7.94388e-08
0
0
0
0
1.02358e-06
2.12493e-06
3.3083e-06
4.74162e-06
5.23964e-06
3.50233e-06
1.90128e-06
9.99957e-07
5.4973e-07
3.23456e-07
2.08822e-07
1.51416e-07
1.20662e-07
9.79299e-08
7.30864e-08
4.13384e-08
0
0
0
0
0
0
0
0
0
0
0
0
0
8.82763e-07
1.26919e-06
7.26869e-07
2.30445e-07
8.92917e-08
1.76405e-08
0
0
0
0
0
0
0
0
0
0
0
0
0
0
1.61378e-06
3.30763e-06
4.77004e-06
5.08811e-06
4.1227e-06
1.36447e-06
0
3.71849e-06
8.355e-06
8.2165e-06
6.13934e-06
4.34857e-06
3.86165e-06
4.47369e-06
7.45609e-06
1.15234e-05
1.3885e-05
1.52361e-05
1.51021e-05
1.43535e-05
1.37607e-05
1.17026e-05
6.48092e-06
2.58291e-06
0
0
0
0
0
0
4.27148e-07
0
0
0
0
0
0
0
0
0
0
0
0
0
0
0
0
0
0
2.6104e-07
8.46695e-07
1.597e-06
2.35575e-06
2.77047e-06
2.7355e-06
2.37503e-06
1.93472e-06
1.63686e-06
1.41681e-06
1.25533e-06
1.1286e-06
1.01384e-06
8.96326e-07
7.55371e-07
5.83764e-07
3.96611e-07
2.2825e-07
1.23307e-07
9.92007e-08
1.33006e-07
1.94353e-07
2.48077e-07
2.21513e-07
5.69808e-08
0
0
0
0
0
0
0
0
0
0
0
0
0
0
0
0
0
0
0
1.16449e-07
6.73208e-07
6.42734e-07
1.50098e-07
0
0
0
0
0
0
0
0
0
0
0
0
0
0
5.42617e-08
3.25491e-07
1.2319e-06
2.02166e-06
1.29631e-06
0
0
0
0
0
0
0
0
0
0
0
0
0
0
2.92092e-07
2.85863e-06
5.82326e-06
8.04252e-06
6.81436e-06
3.74203e-06
1.87395e-06
9.65255e-07
5.43983e-07
3.41149e-07
2.35204e-07
1.76872e-07
1.46446e-07
1.30862e-07
1.20729e-07
1.11648e-07
1.02024e-07
8.98193e-08
6.78087e-08
1.5321e-08
0
0
0
0
0
0
0
0
0
0
1.94646e-07
9.20446e-08
0
6.16165e-08
1.16451e-07
6.30284e-08
1.04393e-08
0
0
0
0
0
0
0
0
0
0
0
1.33457e-07
8.70094e-07
1.61979e-06
3.42466e-06
6.1652e-06
8.4863e-06
9.42397e-06
8.47457e-06
3.04536e-06
1.7574e-06
7.17193e-06
1.08714e-05
9.12473e-06
6.31603e-06
5.19326e-06
5.39067e-06
7.63912e-06
1.12596e-05
1.35461e-05
1.54495e-05
1.59645e-05
1.52014e-05
1.40565e-05
1.20013e-05
6.85975e-06
3.38687e-06
0
0
0
0
0
1.33555e-06
1.98619e-06
0
0
0
0
0
0
0
0
0
0
0
0
0
0
0
3.05962e-08
1.17224e-07
2.67132e-07
5.48481e-07
1.02368e-06
1.65033e-06
2.28629e-06
2.61627e-06
2.5518e-06
2.24839e-06
1.84395e-06
1.56513e-06
1.36796e-06
1.2108e-06
1.0781e-06
9.61694e-07
8.5256e-07
7.48625e-07
6.46532e-07
5.48981e-07
4.53768e-07
3.74432e-07
3.31521e-07
3.3394e-07
3.97418e-07
4.88401e-07
5.14293e-07
3.88553e-07
7.43023e-08
0
0
0
0
0
0
0
0
0
0
0
0
0
0
0
0
0
0
1.16094e-07
5.1847e-07
6.70633e-07
2.81741e-07
0
0
0
0
0
0
0
0
0
0
0
0
0
0
0
6.12425e-09
5.98991e-08
1.47767e-07
6.57612e-08
0
0
0
0
0
0
0
0
0
0
0
0
0
0
5.00837e-06
9.13758e-06
9.05176e-06
5.65361e-06
3.01403e-06
1.57822e-06
8.61313e-07
5.14136e-07
3.46134e-07
2.60839e-07
2.09757e-07
1.74494e-07
1.527e-07
1.41113e-07
1.34909e-07
1.30766e-07
1.27029e-07
1.22918e-07
1.14161e-07
9.13688e-08
4.88091e-08
0
0
0
0
0
0
0
0
0
0
0
0
1.41419e-07
1.40583e-07
7.765e-08
3.29643e-08
0
0
0
0
0
0
0
0
0
0
0
0
0
0
1.94369e-06
5.38054e-06
9.57509e-06
1.22334e-05
1.40462e-05
1.1216e-05
6.83513e-07
3.35924e-06
1.09251e-05
1.20931e-05
8.92238e-06
6.64896e-06
6.45069e-06
8.02446e-06
1.10806e-05
1.30371e-05
1.5177e-05
1.61819e-05
1.54456e-05
1.38003e-05
1.19528e-05
8.18241e-06
5.04929e-06
0
0
0
0
9.10833e-07
2.59456e-06
2.05287e-06
0
0
0
0
0
0
0
0
5.82762e-07
0
0
3.08483e-08
3.23972e-07
3.54523e-07
2.58411e-07
1.27395e-07
4.1634e-08
1.43971e-08
1.12289e-07
4.57405e-07
1.05366e-06
1.69073e-06
2.05516e-06
2.06622e-06
1.87283e-06
1.57917e-06
1.35044e-06
1.18198e-06
1.02917e-06
8.98087e-07
7.893e-07
6.8937e-07
6.11354e-07
5.53992e-07
5.17155e-07
4.97028e-07
4.74252e-07
4.51437e-07
4.44159e-07
4.85463e-07
5.73324e-07
6.36918e-07
5.97957e-07
4.04743e-07
3.87089e-08
0
0
0
0
0
0
0
0
0
0
0
0
0
0
0
0
0
1.30921e-07
4.45574e-07
7.3346e-07
5.79456e-07
0
0
0
0
3.39558e-08
0
0
0
0
0
0
0
0
0
0
0
0
0
0
0
0
0
0
0
0
0
0
0
0
0
0
6.05326e-07
4.91858e-06
6.34757e-06
5.25838e-06
3.37349e-06
2.0114e-06
1.17498e-06
7.05444e-07
4.56489e-07
3.32006e-07
2.72903e-07
2.41929e-07
2.18055e-07
1.93057e-07
1.7017e-07
1.54887e-07
1.465e-07
1.41739e-07
1.37487e-07
1.333e-07
1.27691e-07
1.11951e-07
7.13456e-08
1.01279e-08
0
0
0
0
0
1.10962e-07
0
0
0
0
1.38851e-07
1.93301e-07
1.57442e-07
1.00647e-07
7.12704e-08
4.15192e-08
4.46236e-07
0
0
0
0
0
0
0
0
0
0
0
0
2.20506e-06
6.27375e-06
1.16412e-05
1.58054e-05
1.84825e-05
2.05942e-05
6.60333e-06
0
7.47368e-06
1.36611e-05
1.16506e-05
8.76157e-06
8.09058e-06
8.83597e-06
1.1082e-05
1.25699e-05
1.4566e-05
1.57752e-05
1.49358e-05
1.27018e-05
1.05731e-05
9.10054e-06
6.42596e-06
0
0
0
3.27496e-07
2.29573e-06
2.77712e-06
1.03316e-06
0
0
0
0
1.02505e-07
0
0
0
6.80922e-07
0
3.1192e-07
7.57418e-07
8.72038e-07
7.68707e-07
5.58473e-07
3.6608e-07
1.95848e-07
1.38148e-08
0
0
3.47135e-07
1.00476e-06
1.34862e-06
1.39733e-06
1.28859e-06
1.1549e-06
1.03009e-06
8.87723e-07
7.49073e-07
6.35718e-07
5.44206e-07
4.70662e-07
4.10868e-07
3.71738e-07
3.58319e-07
3.75415e-07
4.02084e-07
4.16319e-07
4.19505e-07
4.33936e-07
4.7882e-07
5.37049e-07
5.57155e-07
4.90563e-07
3.14867e-07
1.83798e-08
0
0
0
0
0
0
0
0
0
0
0
0
0
0
0
1.19986e-07
1.63995e-07
4.19707e-07
8.44631e-07
8.31737e-07
1.11658e-07
0
0
0
0
0
0
0
0
0
0
0
0
0
0
0
0
0
0
0
0
0
0
0
0
0
0
0
0
0
0
1.47161e-06
2.25084e-06
2.16252e-06
1.70082e-06
1.19796e-06
8.08222e-07
5.54324e-07
4.05182e-07
3.24197e-07
2.84364e-07
2.66524e-07
2.55976e-07
2.44125e-07
2.25736e-07
1.99901e-07
1.76773e-07
1.62974e-07
1.55589e-07
1.50081e-07
1.45892e-07
1.41851e-07
1.27871e-07
8.11092e-08
0
0
0
0
0
0
2.64297e-07
4.42891e-07
0
0
1.42483e-07
2.11002e-07
2.06635e-07
1.76485e-07
1.22945e-07
1.1098e-07
1.90749e-07
9.64342e-07
0
0
0
0
0
0
0
0
9.18779e-07
1.77846e-06
1.17004e-06
6.25992e-07
3.72126e-06
8.73357e-06
1.49076e-05
2.14849e-05
2.44253e-05
2.78026e-05
2.30231e-05
0
0
1.30334e-05
1.35539e-05
1.04391e-05
9.30739e-06
9.62828e-06
1.12085e-05
1.23722e-05
1.39904e-05
1.51237e-05
1.40693e-05
1.1109e-05
7.83326e-06
7.61617e-06
6.10682e-06
0
0
0
2.05928e-06
2.92668e-06
2.10372e-06
0
0
0
0
0
0
0
0
0
0
6.23003e-07
1.19801e-06
1.15059e-06
1.01537e-06
7.64865e-07
4.40941e-07
1.94031e-07
2.02295e-08
0
0
0
0
8.72931e-08
4.94364e-07
5.48839e-07
5.66624e-07
6.0879e-07
5.82154e-07
4.83554e-07
3.7568e-07
2.94767e-07
2.38812e-07
1.99002e-07
1.71966e-07
1.55662e-07
1.54037e-07
1.73504e-07
2.0951e-07
2.4354e-07
2.62467e-07
2.65123e-07
2.7066e-07
2.88519e-07
3.06985e-07
3.08144e-07
2.80884e-07
2.29966e-07
1.67757e-07
1.01142e-07
3.3213e-08
0
0
0
0
0
0
0
0
0
0
0
0
2.13473e-07
2.79384e-07
4.0141e-07
9.03341e-07
1.11115e-06
3.60674e-07
0
0
0
0
0
0
0
0
0
0
0
0
0
0
0
0
0
0
0
0
0
0
0
0
0
0
0
0
0
0
5.43682e-07
7.82725e-07
7.81347e-07
6.68314e-07
5.37591e-07
4.35172e-07
3.69841e-07
3.31097e-07
3.06321e-07
2.90507e-07
2.82945e-07
2.79347e-07
2.75017e-07
2.63878e-07
2.38717e-07
2.04397e-07
1.79735e-07
1.67476e-07
1.62165e-07
1.62307e-07
1.69141e-07
1.74009e-07
1.57655e-07
8.60069e-08
0
0
0
0
3.66437e-08
2.58144e-07
4.19968e-07
2.29133e-07
1.46807e-07
1.96429e-07
2.16878e-07
2.07351e-07
1.90954e-07
1.13874e-07
1.10284e-07
2.75579e-07
8.57855e-07
0
0
0
0
0
0
1.85754e-06
3.43832e-06
3.6864e-06
1.86172e-06
3.02613e-07
0
2.79105e-06
9.3206e-06
1.56962e-05
2.46377e-05
3.08567e-05
3.40016e-05
3.69821e-05
0
0
9.49665e-06
1.44466e-05
1.1735e-05
1.03246e-05
1.03936e-05
1.137e-05
1.23949e-05
1.36804e-05
1.4666e-05
1.33004e-05
9.5566e-06
4.87888e-06
4.22584e-06
3.94709e-06
0
0
1.5971e-06
3.23258e-06
2.71808e-06
9.15992e-07
0
0
0
0
1.66786e-07
3.46963e-07
0
0
0
0
0
0
1.96317e-07
2.42275e-07
8.67792e-08
0
0
0
0
0
0
0
0
0
0
0
9.44924e-08
1.21556e-07
5.69546e-08
0
0
0
0
0
0
0
0
0
1.11067e-08
2.04323e-08
1.35931e-08
0
0
0
0
1.94348e-08
1.51919e-07
4.11049e-07
8.46903e-07
1.52034e-06
2.50716e-06
3.85264e-06
5.45579e-06
6.34024e-06
2.39245e-06
0
0
0
0
0
0
0
3.04067e-07
5.27761e-07
4.91157e-07
8.63465e-07
1.22737e-06
5.19526e-07
0
0
0
0
0
0
0
0
0
0
0
0
0
0
0
0
0
0
0
0
0
0
0
0
0
0
0
0
0
0
1.85403e-07
3.06389e-07
3.469e-07
3.48281e-07
3.38842e-07
3.31866e-07
3.28852e-07
3.25944e-07
3.19201e-07
3.10214e-07
3.05218e-07
3.04414e-07
3.03123e-07
2.96688e-07
2.77275e-07
2.35551e-07
1.91268e-07
1.66421e-07
1.55581e-07
1.54881e-07
1.69382e-07
1.90121e-07
2.00774e-07
1.81852e-07
1.08535e-07
0
0
0
0
2.57771e-07
2.09253e-07
1.63723e-07
1.45515e-07
2.09563e-07
2.06664e-07
2.09043e-07
2.03078e-07
7.52027e-08
7.80347e-08
1.8052e-07
0
0
0
0
0
0
3.20697e-06
5.17979e-06
5.61918e-06
2.66898e-06
0
0
0
9.5251e-07
9.21902e-06
1.60677e-05
2.45291e-05
3.4592e-05
3.94343e-05
4.50702e-05
2.36656e-05
0
2.29732e-06
1.43048e-05
1.28969e-05
1.12349e-05
1.11035e-05
1.14e-05
1.2344e-05
1.36666e-05
1.45642e-05
1.26548e-05
7.95385e-06
2.08908e-06
4.25725e-07
9.3754e-07
0
8.00417e-07
3.45534e-06
3.56315e-06
1.78994e-06
0
0
0
0
1.08219e-06
2.94502e-06
5.52575e-06
6.13905e-06
0
0
0
0
0
0
0
0
0
0
0
0