/*--------------------------------*- C++ -*----------------------------------*\
  =========                 |
  \\      /  F ield         | OpenFOAM: The Open Source CFD Toolbox
   \\    /   O peration     | Website:  https://openfoam.org
    \\  /    A nd           | Version:  9
     \\/     M anipulation  |
\*---------------------------------------------------------------------------*/
FoamFile
{
    format      ascii;
    class       volScalarField;
    location    "0.064";
    object      p;
}
// * * * * * * * * * * * * * * * * * * * * * * * * * * * * * * * * * * * * * //

dimensions      [0 2 -2 0 0 0 0];

internalField   nonuniform List<scalar> 
12225
(
136.655
146.403
151.226
154.493
156.875
158.593
159.792
160.623
161.215
161.621
161.853
161.928
161.875
161.747
161.57
161.364
161.078
160.64
138.308
146.6
151.307
154.529
156.895
158.61
159.805
160.631
161.215
161.616
161.844
161.915
161.857
161.718
161.53
161.297
160.971
160.385
139.701
146.995
151.478
154.605
156.933
158.64
159.838
160.669
161.252
161.639
161.85
161.908
161.841
161.689
161.475
161.185
160.76
160.048
141.335
147.582
151.761
154.76
157.034
158.719
159.911
160.737
161.306
161.675
161.87
161.915
161.838
161.666
161.416
161.073
160.576
159.83
143.291
148.33
152.123
154.972
157.178
158.836
160.017
160.833
161.387
161.736
161.912
161.94
161.845
161.651
161.371
160.992
160.467
159.75
145.548
149.265
152.581
155.269
157.391
159.005
160.165
160.965
161.501
161.83
161.985
161.993
161.879
161.662
161.353
160.946
160.413
159.738
147.343
150.167
153.093
155.652
157.681
159.236
160.366
161.144
161.656
161.957
162.085
162.067
161.929
161.691
161.362
160.943
160.422
159.8
149.752
151.166
153.706
156.097
158.033
159.527
160.622
161.373
161.857
162.13
162.23
162.186
162.024
161.765
161.417
160.988
160.479
159.905
150.908
152.108
154.373
156.637
158.489
159.917
160.963
161.672
162.113
162.345
162.407
162.33
162.142
161.866
161.513
161.088
160.6
160.071
153.077
152.974
155.042
157.245
159.024
160.387
161.379
162.041
162.437
162.628
162.652
162.538
162.318
162.015
161.641
161.208
160.733
160.235
150.723
153.289
155.739
157.978
159.699
160.983
161.906
162.502
162.838
162.973
162.943
162.781
162.524
162.197
161.811
161.376
160.91
160.435
150.951
153.874
156.46
158.743
160.427
161.646
162.489
163.009
163.285
163.368
163.288
163.082
162.785
162.423
162.009
161.557
161.085
160.612
150.671
154.441
157.414
159.645
161.258
162.412
163.175
163.614
163.813
163.825
163.685
163.428
163.09
162.691
162.247
161.773
161.287
160.805
154.021
155.126
158.523
160.838
162.406
163.489
164.126
164.436
164.528
164.45
164.229
163.901
163.501
163.049
162.561
162.052
161.537
161.032
146.936
156.281
160.524
162.725
164.087
164.958
165.412
165.564
165.517
165.309
164.971
164.544
164.062
163.542
162.995
162.433
161.87
161.316
150.636
158.74
162.799
165.17
166.385
167.014
167.228
167.152
166.885
166.481
165.979
165.416
164.817
164.196
163.562
162.924
162.288
161.662
161.323
165.136
167.847
169.407
169.975
169.991
169.739
169.298
168.725
168.07
167.363
166.622
165.865
165.1
164.335
163.579
162.838
162.115
172.272
174.032
175.145
175.186
174.708
174.001
173.143
172.195
171.206
170.2
169.187
168.184
167.203
166.248
165.318
164.415
163.541
162.693
186.62
187.473
185.698
183.529
181.475
179.515
177.698
176.005
174.413
172.922
171.524
170.202
168.946
167.748
166.605
165.512
164.467
163.465
217.293
204.366
196.874
191.704
187.707
184.525
181.82
179.417
177.28
175.371
173.624
171.997
170.481
169.067
167.74
166.489
165.305
164.182
225.503
212.02
203.09
196.702
191.763
187.901
184.697
181.889
179.393
177.166
175.171
173.331
171.638
170.069
168.606
167.234
165.942
164.72
225.474
213.969
206.099
199.761
194.628
190.309
186.693
183.592
180.871
178.447
176.248
174.276
172.468
170.796
169.239
167.787
166.426
165.146
222.887
215.098
207.757
201.515
196.337
191.962
188.201
184.926
182.044
179.469
177.152
175.049
173.127
171.358
169.726
168.21
166.791
165.453
220.203
215.537
208.97
202.811
197.56
193.047
189.145
185.739
182.795
180.131
177.733
175.565
173.59
171.771
170.089
168.524
167.064
165.697
225.524
216.541
209.503
203.513
198.359
193.844
189.877
186.476
183.374
180.639
178.176
175.943
173.905
172.035
170.315
168.722
167.235
165.838
225.514
216.991
209.982
204.041
198.852
194.298
190.29
186.793
183.713
180.947
178.457
176.198
174.132
172.242
170.493
168.878
167.371
165.954
227.621
217.148
210.11
204.272
199.16
194.618
190.629
187.1
183.968
181.158
178.631
176.353
174.278
172.369
170.61
168.974
167.447
166.012
224.625
216.775
210.139
204.427
199.346
194.782
190.767
187.242
184.099
181.283
178.753
176.466
174.378
172.455
170.682
169.035
167.499
166.063
221.018
216.204
210.057
204.489
199.449
194.898
190.883
187.335
184.178
181.347
178.808
176.515
174.423
172.498
170.719
169.066
167.522
166.076
218.522
215.93
210.059
204.527
199.48
194.92
190.908
187.367
184.214
181.386
178.847
176.551
174.454
172.524
170.741
169.085
167.538
166.088
139.685
139.528
139.716
140.263
140.663
140.549
139.854
138.631
137.064
135.342
133.621
132.015
130.61
129.469
128.641
128.142
127.959
128.082
128.399
128.832
129.284
129.484
129.289
128.856
128.451
128.222
128.194
128.303
128.406
128.411
128.324
128.211
128.098
127.967
127.85
127.749
127.641
127.501
127.294
126.994
126.576
125.971
124.955
123.23
120.737
117.736
114.561
111.408
108.369
105.532
102.989
100.818
99.0705
97.7811
96.968
96.6399
96.7935
97.4345
98.5489
100.117
102.11
104.485
107.185
110.126
113.188
116.199
118.911
120.989
122.023
121.6
119.445
115.598
110.585
105.332
101.024
98.6981
98.8266
101.187
105.021
108.832
111.473
112.566
113.035
113.302
112.613
113.494
116.478
115.998
109.966
101.562
92.9124
84.8352
78.0465
72.6836
68.9212
66.7141
66.0497
66.823
68.932
72.2062
76.4697
81.5174
87.1406
93.1164
99.2206
105.231
110.942
116.178
120.804
124.74
127.956
130.468
132.325
133.599
134.376
134.742
134.777
134.552
134.13
133.56
132.88
132.118
131.297
130.431
129.543
128.666
127.826
127.049
126.344
125.704
125.103
124.515
123.916
123.29
122.626
121.914
121.142
120.292
119.343
118.265
117.029
115.599
113.942
112.024
109.825
107.342
104.604
101.673
98.6334
95.6105
92.7587
90.202
88.1627
86.6878
85.8901
85.9888
86.7172
88.3883
89.7031
85.9628
77.8117
72.6477
69.1356
66.5109
66.5051
68.5272
70.9558
72.8251
73.8202
74.1369
74.0855
73.7732
73.083
71.9306
70.3648
68.6999
67.3316
66.5022
66.2607
66.2114
138.731
138.638
138.751
139.098
139.077
138.57
137.582
136.235
134.687
133.077
131.512
130.074
128.82
127.794
127.016
126.505
126.262
126.31
126.629
127.086
127.632
128.092
128.196
128.205
128.341
128.401
128.396
128.443
128.46
128.38
128.26
128.138
128.016
127.853
127.659
127.531
127.42
127.245
126.967
126.517
125.809
124.792
123.379
121.39
118.806
115.843
112.74
109.637
106.652
103.899
101.466
99.4154
97.7828
96.5922
95.8616
95.6028
95.8254
96.5131
97.6548
99.2312
101.215
103.567
106.23
109.121
112.118
115.044
117.641
119.555
120.352
119.592
117.012
112.704
107.33
101.917
97.573
95.2565
95.4387
98.1736
102.684
107.256
110.679
112.459
113.149
113.703
113.625
111.684
112.058
109.945
103.424
95.9747
88.1325
81.0335
74.9499
70.1849
66.8405
64.9784
64.5827
65.5662
67.8231
71.2149
75.5768
80.7164
86.4281
92.4938
98.6898
104.792
110.592
115.906
120.599
124.585
127.835
130.365
132.23
133.504
134.277
134.637
134.667
134.439
134.015
133.445
132.768
132.011
131.194
130.33
129.44
128.554
127.705
126.922
126.218
125.585
124.997
124.424
123.839
123.225
122.57
121.865
121.097
120.25
119.298
118.217
116.973
115.533
113.863
111.93
109.716
107.218
104.464
101.519
98.4697
95.4283
92.5575
89.9743
87.8061
86.2754
85.283
85.1795
85.6065
86.4077
87.4973
83.4684
76.8443
73.001
69.04
65.6935
65.695
68.2733
70.9679
72.9381
73.937
74.2331
74.1555
73.8353
73.1425
71.9737
70.3707
68.6586
67.2564
66.4359
66.2322
66.205
138.538
138.519
138.194
137.592
136.724
135.601
134.294
132.894
131.469
130.065
128.721
127.469
126.357
125.429
124.701
124.215
124.033
124.068
124.326
124.84
125.542
126.292
127.005
127.745
128.399
128.765
128.844
128.783
128.625
128.392
128.172
127.924
127.595
127.263
126.855
126.58
126.309
125.984
125.51
124.788
123.752
122.371
120.613
118.426
115.819
112.915
109.893
106.914
104.094
101.514
99.238
97.3171
95.7935
94.6953
94.0396
93.836
94.0999
94.8175
95.9726
97.5453
99.5078
101.82
104.421
107.224
110.097
112.85
115.202
116.771
117.086
115.679
112.322
107.09
101.011
95.2068
90.6865
88.4761
89.2738
92.953
98.7005
104.572
109.485
112.978
114.95
114.615
113.063
110.114
106.469
101.87
95.9018
89.5081
82.8613
76.7002
71.2855
67.0068
64.0172
62.4298
62.2389
63.4082
65.844
69.408
73.9325
79.2275
85.0921
91.3133
97.6706
103.938
109.897
115.357
120.169
124.245
127.554
130.115
131.992
133.266
134.032
134.385
134.411
134.179
133.758
133.192
132.527
131.784
130.979
130.122
129.229
128.329
127.461
126.663
125.956
125.332
124.764
124.217
123.661
123.075
122.446
121.762
121.011
120.173
119.225
118.137
116.88
115.42
113.721
111.756
109.504
106.968
104.178
101.198
98.1178
95.0457
92.1331
89.4963
87.2638
85.6186
84.5142
84.0941
84.1277
84.1913
84.097
81.2542
76.2734
71.8921
67.9268
65.4124
65.6708
68.2275
71.0573
73.1289
74.1408
74.4066
74.2962
73.9645
73.2623
72.025
70.3401
68.5429
67.0899
66.2522
66.1247
66.1798
138.806
138.181
137.009
135.684
134.369
133.049
131.735
130.457
129.222
128.036
126.909
125.859
124.926
124.136
123.489
123.013
122.762
122.711
122.878
123.316
123.998
124.86
125.887
127.033
128.057
128.711
128.931
128.865
128.648
128.334
127.93
127.44
126.881
126.279
125.664
125.074
124.475
123.794
122.94
121.827
120.412
118.682
116.632
114.268
111.645
108.869
106.056
103.309
100.709
98.3216
96.204
94.4112
92.9906
91.9792
91.4022
91.2704
91.5823
92.323
93.4811
95.0379
96.9626
99.2099
101.714
104.381
107.073
109.588
111.639
112.835
112.7
110.77
106.862
101.34
95.1315
89.3943
84.7201
82.4119
83.5256
87.9573
94.7277
101.588
107.43
111.638
113.152
112.653
109.943
105.617
100.624
95.2042
89.3966
83.4587
77.4744
71.8993
66.9923
63.1122
60.4465
59.1309
59.1809
60.5738
63.2238
66.9965
71.7225
77.2127
83.2695
89.6876
96.2513
102.732
108.902
114.552
119.523
123.715
127.099
129.702
131.592
132.865
133.624
133.973
133.998
133.762
133.352
132.801
132.152
131.431
130.651
129.816
128.933
128.026
127.14
126.323
125.604
124.982
124.43
123.911
123.39
122.841
122.249
121.599
120.875
120.057
119.117
118.026
116.752
115.262
113.523
111.507
109.197
106.601
103.752
100.716
97.5855
94.4654
91.494
88.8035
86.4906
84.7188
83.4583
82.7372
82.416
81.9903
81.3854
79.3149
75.3209
71.3791
68.2554
66.1866
66.3161
68.6737
71.4543
73.4799
74.4347
74.6416
74.4824
74.1033
73.3554
72.0478
70.2585
68.3482
66.825
65.9963
65.9418
66.0825
137.917
136.868
135.242
133.819
132.529
131.291
130.125
129.022
127.957
126.922
125.922
124.977
124.123
123.362
122.707
122.244
121.98
121.919
122.072
122.506
123.212
124.111
125.142
126.253
127.29
128.032
128.387
128.451
128.299
127.968
127.487
126.843
126.043
125.121
124.135
123.129
122.089
120.959
119.662
118.137
116.363
114.349
112.115
109.686
107.106
104.439
101.761
99.143
96.6526
94.3574
92.323
90.6062
89.2481
88.293
87.7736
87.7189
88.0463
88.7951
89.957
91.5008
93.386
95.5608
97.9572
100.481
103
105.32
107.171
108.204
108.004
106.158
102.558
97.6558
92.2881
87.2555
83.1466
81.0158
82.1426
86.5083
92.9985
99.563
105.135
108.861
110.029
108.728
105.056
100.294
95.2296
89.7207
83.9329
78.0927
72.3592
67.0531
62.4286
58.8034
56.3819
55.3009
55.5819
57.2082
60.0953
64.1049
69.0607
74.7709
81.0418
87.6781
94.4738
101.2
107.615
113.491
118.646
122.975
126.448
129.099
131.006
132.282
133.035
133.385
133.415
133.196
132.798
132.267
131.643
130.952
130.208
129.407
128.549
127.652
126.762
125.933
125.201
124.575
124.033
123.538
123.052
122.543
121.991
121.378
120.685
119.888
118.958
117.862
116.568
115.042
113.252
111.17
108.785
106.109
103.18
100.068
96.8658
93.6773
90.6331
87.862
85.4524
83.5382
82.118
81.155
80.552
79.8819
79.0852
77.3974
74.1982
71.0347
68.7177
67.2963
67.5445
69.5866
72.0642
73.8942
74.7542
74.9064
74.7085
74.288
73.4582
72.0364
70.1181
68.0826
66.4897
65.6798
65.707
65.9531
135.573
134.577
133.42
132.39
131.381
130.385
129.45
128.55
127.668
126.794
125.924
125.088
124.317
123.624
123.037
122.625
122.32
122.188
122.264
122.6
123.174
123.921
124.791
125.721
126.577
127.232
127.641
127.803
127.737
127.437
126.878
126.052
124.989
123.752
122.403
120.981
119.487
117.886
116.138
114.214
112.11
109.837
107.411
104.851
102.19
99.4809
96.7838
94.1655
91.6926
89.4292
87.4348
85.7632
84.46
83.5562
83.0763
83.0137
83.4163
84.2493
85.4738
87.0476
88.9243
91.0523
93.37
95.7978
98.2227
100.478
102.337
103.524
103.715
102.565
99.9796
96.3483
92.3834
88.6649
85.6113
84.1872
85.4829
89.2734
94.5484
99.8001
104.058
106.63
106.998
104.804
100.643
95.8922
90.791
85.1997
79.3484
73.4404
67.7081
62.4359
57.8886
54.3664
52.0866
51.1785
51.6556
53.5043
56.6361
60.899
66.1008
72.0399
78.5259
85.3774
92.4048
99.3831
106.059
112.18
117.54
122.02
125.591
128.292
130.218
131.5
132.264
132.623
132.672
132.481
132.11
131.61
131.019
130.365
129.661
128.902
128.08
127.208
126.328
125.496
124.755
124.125
123.592
123.121
122.67
122.2
121.686
121.106
120.44
119.659
118.733
117.627
116.308
114.741
112.893
110.737
108.265
105.493
102.469
99.2633
95.9703
92.6951
89.5572
86.6817
84.1614
82.1049
80.5305
79.3745
78.5673
77.7837
76.8941
75.4589
73.0254
70.6118
68.9468
68.1212
68.5564
70.3378
72.5199
74.2006
75.0289
75.1565
74.9124
74.4173
73.4863
71.9473
69.9168
67.7884
66.141
65.3609
65.4545
65.7934
133.722
133.08
132.438
131.745
130.997
130.267
129.588
128.925
128.264
127.596
126.916
126.247
125.603
124.989
124.408
124.038
123.746
123.555
123.49
123.573
123.81
124.195
124.718
125.335
125.956
126.491
126.878
127.07
127.011
126.645
125.945
124.928
123.643
122.149
120.498
118.717
116.811
114.774
112.597
110.276
107.816
105.226
102.524
99.7395
96.9118
94.0896
91.3289
88.689
86.2221
83.9787
82.0114
80.3721
79.1152
78.2749
77.8681
77.8876
78.4168
79.3721
80.6932
82.329
84.2272
86.3381
88.6141
90.9988
93.4111
95.7274
97.7812
99.3759
100.27
100.19
99.0293
97.0693
94.8594
92.8314
91.344
91.1501
92.7616
95.7865
99.3592
102.665
105.192
106.374
105.51
102.324
97.8353
92.9708
87.5925
81.733
75.668
69.5548
63.6644
58.2695
53.6545
50.1168
47.8844
47.0804
47.709
49.7591
53.1286
57.6431
63.0877
69.2432
75.921
82.9583
90.1873
97.395
104.318
110.684
116.252
120.885
124.548
127.291
129.245
130.542
131.322
131.704
131.785
131.636
131.309
130.853
130.307
129.698
129.039
128.323
127.543
126.705
125.845
125.017
124.271
123.636
123.111
122.665
122.248
121.815
121.333
120.779
120.13
119.358
118.43
117.312
115.969
114.363
112.458
110.225
107.657
104.777
101.64
98.3232
94.9199
91.5344
88.2806
85.2809
82.6313
80.4253
78.7043
77.3972
76.4477
75.6111
74.7158
73.5365
71.7872
70.0364
68.9132
68.5695
69.1954
70.8073
72.7554
74.3234
75.1608
75.3103
75.0396
74.4681
73.4341
71.8034
69.7006
67.5035
65.8086
65.044
65.2001
65.614
132.968
132.643
132.271
131.778
131.223
130.683
130.158
129.615
129.058
128.477
127.867
127.252
126.637
126.037
125.47
124.968
124.548
124.217
123.992
123.89
123.92
124.093
124.434
124.879
125.363
125.807
126.129
126.237
126.05
125.525
124.66
123.48
122.029
120.344
118.452
116.371
114.11
111.683
109.103
106.388
103.56
100.647
97.6812
94.7041
91.7536
88.8566
86.0373
83.3261
80.7694
78.4285
76.3764
74.6866
73.4213
72.6316
72.3384
72.5803
73.2672
74.3855
75.8792
77.6767
79.7099
81.9203
84.2608
86.6949
89.1804
91.6509
94.0082
96.1228
97.8233
98.9131
99.2993
99.1325
98.7568
98.4961
98.6554
99.6583
101.54
103.88
106.081
107.763
108.721
108.406
106.051
101.737
96.826
91.6257
85.779
79.5058
73.0875
66.6516
60.5008
54.8906
50.1206
46.4911
44.2335
43.4539
44.188
46.388
49.9513
54.6783
60.3282
66.6591
73.4789
80.6481
88.0243
95.4128
102.551
109.128
114.877
119.635
123.371
126.156
128.135
129.455
130.261
130.676
130.799
130.699
130.426
130.023
129.528
128.972
128.363
127.695
126.959
126.159
125.325
124.505
123.754
123.115
122.598
122.175
121.789
121.384
120.925
120.387
119.748
118.981
118.051
116.928
115.571
113.937
111.98
109.668
106.993
103.987
100.716
97.2629
93.7232
90.2009
86.8068
83.6596
80.8612
78.5014
76.6414
75.2162
74.1729
73.3308
72.5184
71.6195
70.4476
69.29
68.6509
68.6992
69.4975
71.0084
72.7791
74.2592
75.1265
75.334
75.0621
74.4244
73.3069
71.6164
69.4755
67.2471
65.5403
64.8131
65.0092
65.4601
133.209
133.016
132.738
132.364
131.904
131.456
131.011
130.527
130.005
129.433
128.809
128.143
127.464
126.81
126.178
125.583
125.047
124.596
124.249
124.032
123.966
124.061
124.307
124.659
125.045
125.37
125.534
125.449
125.059
124.346
123.319
121.999
120.406
118.55
116.436
114.075
111.486
108.702
105.762
102.713
99.6003
96.4665
93.3385
90.2251
87.1254
84.0399
80.9775
77.9673
75.0717
72.3875
70.0313
68.1229
66.7589
65.9949
65.8638
66.3261
67.3421
68.8432
70.7391
72.9279
75.3156
77.8282
80.4189
83.0668
85.7628
88.4921
91.2201
93.879
96.3587
98.5286
100.307
101.733
102.972
104.251
105.78
107.684
109.811
111.764
113.28
114.112
114.031
112.345
108.446
102.923
97.4595
91.8111
85.3971
78.6357
71.7986
64.9748
58.5103
52.6482
47.6965
43.9475
41.6062
40.796
41.5311
43.7937
47.4717
52.3393
58.1241
64.56
71.4503
78.6745
86.1248
93.6247
100.926
107.641
113.497
118.332
122.112
124.924
126.927
128.28
129.125
129.587
129.763
129.721
129.507
129.16
128.719
128.214
127.659
127.041
126.35
125.588
124.778
123.965
123.209
122.569
122.065
121.665
121.301
120.913
120.465
119.936
119.304
118.543
117.621
116.506
115.151
113.497
111.49
109.089
106.287
103.127
99.6891
96.0666
92.3573
88.6662
85.1019
81.7821
78.8172
76.3008
74.3072
72.7941
71.709
70.9173
70.263
69.6629
68.9894
68.3777
68.1923
68.581
69.5417
71.0049
72.644
74.0469
74.9396
75.2165
74.9685
74.2882
73.1094
71.3929
69.2672
67.0616
65.3699
64.6781
64.8963
65.353
134.043
133.904
133.683
133.376
132.999
132.612
132.212
131.765
131.264
130.702
130.087
129.443
128.789
128.139
127.503
126.884
126.301
125.773
125.332
125.013
124.847
124.838
124.966
125.172
125.371
125.466
125.371
125.024
124.396
123.481
122.286
120.815
119.06
117.007
114.652
112.007
109.111
106.023
102.812
99.5411
96.2541
92.9636
89.6511
86.2756
82.7944
79.1976
75.526
71.8681
68.352
65.1278
62.3479
60.154
58.6616
57.9414
58.0121
58.8504
60.3657
62.4524
64.9805
67.8099
70.809
73.8773
76.9571
80.0303
83.1062
86.2073
89.3521
92.5319
95.6981
98.7749
101.693
104.422
106.995
109.509
112.064
114.644
117.063
119.012
120.353
120.911
120.187
117.404
112.131
105.49
99.4093
93.3517
86.3674
79.1091
71.8783
64.6857
57.9297
51.8484
46.7091
42.803
40.3116
39.3787
40.0378
42.2793
45.9855
50.9056
56.7307
63.1739
70.0452
77.2355
84.6772
92.2091
99.5514
106.309
112.184
117.019
120.791
123.606
125.628
127.021
127.923
128.449
128.693
128.721
128.575
128.289
127.902
127.452
126.952
126.389
125.744
125.013
124.218
123.407
122.65
122.018
121.532
121.15
120.799
120.417
119.973
119.449
118.827
118.08
117.177
116.083
114.734
113.058
110.99
108.478
105.517
102.164
98.5191
94.6866
90.7692
86.873
83.1057
79.5848
76.4329
73.7563
71.6406
70.0714
69.0018
68.3228
67.8891
67.6151
67.4053
67.3081
67.5563
68.2582
69.382
70.8423
72.3929
73.7293
74.6324
74.9743
74.7682
74.0689
72.858
71.1626
69.1039
66.957
65.3013
64.6441
64.8654
65.299
135.32
135.217
135.037
134.781
134.469
134.138
133.79
133.395
132.942
132.434
131.883
131.31
130.725
130.132
129.538
128.962
128.397
127.865
127.398
127.031
126.785
126.657
126.609
126.579
126.488
126.263
125.845
125.198
124.307
123.17
121.782
120.121
118.16
115.872
113.254
110.335
107.177
103.864
100.475
97.0588
93.6153
90.0977
86.4294
82.5382
78.3908
74.0164
69.509
65.0151
60.7166
56.8127
53.4961
50.9401
49.2927
48.6329
48.9631
50.211
52.3115
55.1272
58.4806
62.1752
66.0255
69.8902
73.6898
77.401
81.0381
84.6401
88.253
91.9121
95.6279
99.3857
103.149
106.865
110.486
113.985
117.348
120.496
123.272
125.485
126.967
127.47
126.39
122.832
116.595
108.991
102.299
95.9676
88.5239
80.8294
73.3026
65.8107
58.8053
52.5315
47.2155
43.1503
40.4914
39.3888
39.911
42.065
45.708
50.5644
56.3019
62.6298
69.3734
76.4479
83.7982
91.2638
98.5334
105.212
110.992
115.729
119.426
122.205
124.232
125.666
126.635
127.242
127.57
127.682
127.617
127.403
127.078
126.685
126.246
125.744
125.146
124.44
123.651
122.84
122.092
121.48
121.018
120.651
120.303
119.919
119.476
118.958
118.349
117.622
116.743
115.671
114.323
112.612
110.461
107.805
104.641
101.052
97.1564
93.0713
88.9059
84.7668
80.7598
77.004
73.639
70.7948
68.5678
66.9727
65.9767
65.479
65.3309
65.4281
65.6817
66.0825
66.7543
67.7595
69.053
70.5473
72.0525
73.3394
74.2413
74.6355
74.4791
73.7865
72.582
70.948
68.9886
66.9378
65.3556
64.7328
64.9265
65.2999
136.938
136.853
136.704
136.493
136.239
135.97
135.689
135.362
134.98
134.555
134.099
133.623
133.128
132.611
132.143
131.649
131.15
130.664
130.217
129.829
129.506
129.231
128.966
128.655
128.243
127.683
126.939
125.994
124.84
123.47
121.862
119.978
117.777
115.236
112.365
109.208
105.85
102.381
98.8642
95.3051
91.6424
87.765
83.5571
78.9469
73.9338
68.5971
63.0824
57.5819
52.324
47.5626
43.5462
40.4897
38.572
37.8908
38.4568
40.1633
42.9428
46.629
50.9929
55.7729
60.7123
65.6071
70.3415
74.8809
79.2415
83.4733
87.6375
91.7867
95.9605
100.192
104.502
108.873
113.238
117.489
121.507
125.175
128.357
130.895
132.591
133.202
132.053
128.12
121.389
113.124
105.839
99.2371
91.576
83.6056
75.8603
68.2361
61.0575
54.6533
49.2189
45.011
42.2014
40.9302
41.2786
43.2679
46.7394
51.3969
56.9049
62.9908
69.5035
76.3835
83.5676
90.8699
97.9492
104.412
109.968
114.505
118.059
120.762
122.775
124.24
125.271
125.959
126.376
126.579
126.604
126.475
126.225
125.898
125.522
125.082
124.532
123.851
123.07
122.27
121.55
120.975
120.541
120.183
119.831
119.441
118.997
118.485
117.89
117.181
116.324
115.269
113.912
112.149
109.888
107.043
103.625
99.7509
95.562
91.183
86.7307
82.3118
78.0263
73.9963
70.3847
67.3594
65.0178
63.4236
62.5566
62.3136
62.526
63.0548
63.7952
64.6951
65.7937
67.1062
68.5802
70.1411
71.6417
72.9014
73.7968
74.2282
74.1241
73.4659
72.3045
70.7617
68.9292
67.0092
65.5261
64.9338
65.073
65.3547
138.797
138.725
138.604
138.434
138.231
138.021
137.808
137.558
137.261
136.93
136.573
136.2
135.822
135.451
135.029
134.607
134.182
133.757
133.339
132.931
132.524
132.096
131.614
131.042
130.345
129.496
128.477
127.28
125.896
124.308
122.481
120.369
117.935
115.164
112.078
108.737
105.232
101.644
98.0001
94.2557
90.2866
85.9297
81.0484
75.5846
69.5717
63.1319
56.4545
49.786
43.4195
37.6746
32.8596
29.2281
26.9626
26.1785
26.8731
29.0307
32.5186
37.1351
42.6161
48.6416
54.869
60.9972
66.8399
72.3351
77.5026
82.4159
87.1665
91.8291
96.4558
101.083
105.744
110.475
115.256
119.982
124.485
128.576
132.093
134.914
136.901
137.622
136.546
132.815
126.049
117.655
109.847
102.776
95.2262
87.2529
79.3904
71.7384
64.5188
58.0577
52.58
48.3051
45.3998
43.9845
44.1414
45.893
49.0779
53.3964
58.5332
64.2581
70.4571
77.0793
84.0282
91.0679
97.8293
103.937
109.15
113.401
116.758
119.355
121.333
122.813
123.892
124.646
125.139
125.423
125.532
125.488
125.321
125.065
124.75
124.365
123.864
123.219
122.469
121.711
121.046
120.521
120.113
119.756
119.391
118.992
118.543
118.034
117.452
116.759
115.921
114.879
113.5
111.667
109.262
106.17
102.433
98.2236
93.7053
89.0023
84.2345
79.5039
74.8973
70.5436
66.6386
63.3936
60.9265
59.3552
58.6709
58.7592
59.4153
60.4491
61.7199
63.1376
64.6775
66.3112
67.9831
69.6407
71.1739
72.4319
73.3225
73.7793
73.729
73.1288
72.0428
70.6169
68.9271
67.1538
65.7902
65.2303
65.2931
65.4576
140.795
140.733
140.636
140.502
140.345
140.19
140.039
139.864
139.647
139.399
139.127
138.835
138.53
138.217
137.887
137.541
137.18
136.798
136.391
135.951
135.46
134.899
134.243
133.47
132.561
131.505
130.29
128.908
127.348
125.582
123.568
121.263
118.637
115.685
112.438
108.963
105.344
101.64
97.8452
93.8675
89.53
84.6312
79.0292
72.6791
65.646
58.0901
50.2477
42.4297
35.0038
28.3468
22.7957
18.6153
15.9936
15.0498
15.8195
18.2391
22.2359
27.6199
34.1096
41.3436
48.9033
56.3692
63.4312
69.953
75.9407
81.4961
86.7632
91.8779
96.9139
101.892
106.836
111.776
116.724
121.625
126.348
130.706
134.444
137.362
139.383
140.31
139.523
136.315
130.288
122.276
114.08
106.513
99.0675
91.3378
83.5889
76.0655
68.9691
62.575
57.1248
52.826
49.8434
48.3196
48.2878
49.7483
52.549
56.4142
61.0771
66.3685
72.2096
78.5318
85.1754
91.8419
98.1524
103.782
108.559
112.471
115.603
118.076
120.003
121.479
122.584
123.382
123.931
124.274
124.447
124.474
124.379
124.19
123.929
123.59
123.14
122.553
121.873
121.195
120.603
120.126
119.731
119.36
118.976
118.563
118.107
117.601
117.033
116.351
115.531
114.501
113.085
111.159
108.56
105.15
101.03
96.448
91.5879
86.5569
81.4683
76.4092
71.4384
66.693
62.4152
58.8693
56.2514
54.7034
54.2494
54.7504
55.9432
57.5687
59.4314
61.4007
63.4056
65.3824
67.2754
69.0591
70.6579
71.9411
72.8363
73.3152
73.3196
72.7945
71.8122
70.5195
68.9716
67.354
66.1249
65.5959
65.5678
65.5997
142.854
142.799
142.716
142.607
142.484
142.371
142.275
142.17
142.03
141.862
141.671
141.452
141.211
140.948
140.662
140.351
140.01
139.63
139.201
138.71
138.141
137.478
136.703
135.805
134.774
133.6
132.274
130.783
129.108
127.217
125.069
122.624
119.862
116.787
113.432
109.861
106.143
102.315
98.3477
94.1125
89.4007
83.9859
77.7205
70.5747
62.6412
54.1129
45.2666
36.4664
28.1371
20.6939
14.4824
9.76813
6.74677
5.56197
6.24749
8.80612
13.1608
19.124
26.4098
34.6444
43.3835
52.1251
60.4061
67.9575
74.7164
80.8126
86.4702
91.9036
97.2335
102.495
107.663
112.738
117.758
122.69
127.39
131.673
135.377
138.395
140.504
141.354
140.738
138.216
133.344
126.381
118.384
110.548
103.009
95.4688
87.9752
80.7398
73.9466
67.8143
62.5601
58.3679
55.3719
53.7333
53.4618
54.5542
56.8714
60.199
64.3507
69.2122
74.7041
80.6963
86.9449
93.1067
98.836
103.894
108.188
111.744
114.646
116.987
118.85
120.306
121.418
122.241
122.823
123.205
123.42
123.494
123.449
123.309
123.089
122.792
122.398
121.894
121.315
120.735
120.215
119.767
119.364
118.97
118.564
118.138
117.678
117.18
116.625
115.95
115.148
114.124
112.652
110.602
107.757
103.958
99.4098
94.4462
89.256
83.9138
78.5151
73.1237
67.7536
62.5474
57.8038
53.8583
50.9999
49.4293
49.2273
50.2198
52.0533
54.3729
56.9059
59.4756
61.9784
64.3276
66.4686
68.4051
70.0984
71.4339
72.3515
72.8586
72.9202
72.4836
71.6242
70.4667
69.0552
67.6005
66.512
66.0081
65.8772
65.7699
144.989
144.93
144.846
144.74
144.63
144.543
144.493
144.459
144.405
144.33
144.233
144.1
143.926
143.709
143.446
143.135
142.77
142.344
141.85
141.283
140.631
139.887
139.041
138.084
137.006
135.796
134.437
132.907
131.178
129.217
126.986
124.453
121.605
118.454
115.033
111.395
107.588
103.621
99.4742
94.9821
89.9278
84.0972
77.302
69.5452
60.9306
51.6723
42.0749
32.5363
23.5172
15.4616
8.72303
3.5658
0.2015
-1.22056
-0.653268
1.94388
6.47766
12.7764
20.5592
29.4416
38.9899
48.699
57.9974
66.4644
73.928
80.4453
86.2988
91.8341
97.2902
102.746
108.105
113.29
118.323
123.193
127.798
131.936
135.427
138.152
140.008
140.877
140.497
138.464
134.702
129.158
122.237
114.751
107.244
99.8425
92.5952
85.642
79.1467
73.2972
68.294
64.306
61.427
59.6392
59.1138
59.8301
61.6792
64.528
68.2631
72.7806
77.9441
83.5311
89.2341
94.7279
99.758
104.188
107.986
111.191
113.864
116.068
117.856
119.278
120.382
121.215
121.82
122.232
122.478
122.585
122.573
122.463
122.273
122.01
121.669
121.248
120.771
120.282
119.815
119.378
118.961
118.548
118.129
117.698
117.24
116.754
116.208
115.535
114.758
113.731
112.177
109.976
106.827
102.57
97.5612
92.2157
86.711
81.0788
75.3832
69.6501
63.8326
58.0823
52.7945
48.364
45.1615
43.4871
43.5255
45.0695
47.6546
50.7933
54.1006
57.3409
60.3899
63.15
65.5692
67.683
69.4957
70.9108
71.8759
72.4264
72.5522
72.215
71.4849
70.4566
69.1802
67.8928
66.9402
66.4465
66.2033
65.9582
147.078
146.998
146.88
146.739
146.604
146.516
146.503
146.547
146.594
146.631
146.648
146.629
146.55
146.395
146.156
145.827
145.404
144.888
144.284
143.599
142.844
142.022
141.133
140.17
139.116
137.947
136.632
135.135
133.42
131.448
129.187
126.614
123.723
120.535
117.081
113.403
109.53
105.461
101.138
96.4206
91.1069
84.9882
77.9185
69.861
60.9165
51.3058
41.3457
31.4433
22.068
13.6762
6.63619
1.21462
-2.3802
-3.99849
-3.55046
-1.02965
3.47227
9.81677
17.7552
26.879
36.7404
46.8724
56.7017
65.725
73.6586
80.4486
86.3441
91.7832
97.1368
102.552
107.975
113.272
118.352
123.143
127.554
131.471
134.704
137.113
138.67
139.311
138.931
137.417
134.431
130.038
124.393
117.953
111.164
104.239
97.3481
90.7004
84.489
78.8779
74.0385
70.1264
67.2624
65.4972
64.844
65.2949
66.8213
69.3587
72.8038
77.0055
81.7413
86.7354
91.7044
96.4155
100.722
104.557
107.907
110.792
113.248
115.309
117.008
118.38
119.462
120.294
120.912
121.347
121.623
121.761
121.78
121.699
121.534
121.296
120.992
120.625
120.214
119.784
119.352
118.927
118.509
118.093
117.676
117.251
116.797
116.322
115.779
115.108
114.369
113.32
111.652
109.273
105.752
100.963
95.4718
89.7759
84.0185
78.1659
72.23
66.1728
59.8638
53.4521
47.4724
42.4421
38.8016
36.9416
37.2073
39.3306
42.7491
46.8272
51.0217
55.0113
58.6592
61.871
64.5977
66.9081
68.8593
70.3804
71.4227
72.0371
72.2368
72.004
71.3988
70.4915
69.3529
68.2319
67.3989
66.8924
66.5306
66.1558
149.002
148.876
148.682
148.458
148.253
148.136
148.152
148.278
148.441
148.607
148.77
148.895
148.941
148.874
148.669
148.314
147.807
147.16
146.395
145.546
144.647
143.73
142.807
141.873
140.897
139.836
138.633
137.233
135.586
133.648
131.39
128.802
125.889
122.676
119.199
115.489
111.566
107.416
102.975
98.1201
92.6797
86.4685
79.3473
71.2711
62.3279
52.7269
42.775
32.8649
23.4498
14.9815
7.8388
2.30121
-1.4255
-3.19937
-2.922
-0.551487
3.79659
9.97644
17.7882
26.8395
36.6422
46.7298
56.5995
65.7809
73.9168
80.7919
86.5492
91.7147
96.8372
102.165
107.575
112.834
117.853
122.601
126.949
130.655
133.555
135.657
136.951
137.389
136.935
135.506
133.118
129.622
125.03
119.595
113.668
107.53
101.349
95.2848
89.5267
84.2638
79.6698
75.9031
73.1033
71.3233
70.5778
70.8727
72.1995
74.4887
77.5965
81.3232
85.4331
89.6866
93.8801
97.8697
101.568
104.923
107.909
110.522
112.776
114.694
116.296
117.607
118.655
119.474
120.094