/*--------------------------------*- C++ -*----------------------------------*\
  =========                 |
  \\      /  F ield         | OpenFOAM: The Open Source CFD Toolbox
   \\    /   O peration     | Website:  https://openfoam.org
    \\  /    A nd           | Version:  9
     \\/     M anipulation  |
\*---------------------------------------------------------------------------*/
FoamFile
{
    format      ascii;
    class       surfaceScalarField;
    location    "0.064";
    object      phi;
}
// * * * * * * * * * * * * * * * * * * * * * * * * * * * * * * * * * * * * * //

dimensions      [0 3 -1 0 0 0 0];

internalField   nonuniform List<scalar> 
24170
(
3.07176e-06
9.42385e-08
2.99085e-06
8.09141e-08
2.93708e-06
5.37674e-08
2.8628e-06
7.42787e-08
2.76214e-06
1.00658e-07
2.64639e-06
1.15755e-07
2.53171e-06
1.14681e-07
2.43e-06
1.01706e-07
2.34215e-06
8.78477e-08
2.26068e-06
8.1475e-08
2.17728e-06
8.34029e-08
2.08796e-06
8.93105e-08
1.99377e-06
9.41951e-08
1.89595e-06
9.78199e-08
1.79233e-06
1.03621e-07
1.68006e-06
1.12269e-07
1.54591e-06
1.34148e-07
1.71321e-07
1.37459e-06
3.47196e-06
7.99462e-08
3.49321e-06
5.96633e-08
3.49337e-06
5.3609e-08
3.47789e-06
8.97642e-08
3.4543e-06
1.24245e-07
3.43667e-06
1.33383e-07
3.42958e-06
1.21767e-07
3.42411e-06
1.07181e-07
3.40851e-06
1.03444e-07
3.37886e-06
1.11125e-07
3.34039e-06
1.21874e-07
3.30096e-06
1.28741e-07
3.26571e-06
1.29451e-07
3.23496e-06
1.28566e-07
3.20453e-06
1.34046e-07
3.16649e-06
1.50315e-07
3.11628e-06
1.84357e-07
2.36785e-07
3.05082e-06
3.70185e-06
7.32283e-08
3.72806e-06
3.34519e-08
3.7357e-06
4.59633e-08
3.72076e-06
1.04709e-07
3.68724e-06
1.57762e-07
3.65837e-06
1.6226e-07
3.652e-06
1.28129e-07
3.6648e-06
9.43805e-08
3.68177e-06
8.64776e-08
3.69083e-06
1.02064e-07
3.68904e-06
1.23661e-07
3.68007e-06
1.3772e-07
3.66889e-06
1.40623e-07
3.65901e-06
1.38448e-07
3.6511e-06
1.4196e-07
3.64328e-06
1.58129e-07
3.63745e-06
1.90194e-07
2.35981e-07
3.63825e-06
3.94085e-06
7.82233e-08
3.96297e-06
1.13257e-08
3.97776e-06
3.11744e-08
3.97975e-06
1.02724e-07
3.98013e-06
1.5738e-07
3.97786e-06
1.64526e-07
3.96942e-06
1.36565e-07
3.95786e-06
1.05947e-07
3.94942e-06
9.49175e-08
3.94753e-06
1.0395e-07
3.95129e-06
1.19901e-07
3.95725e-06
1.31763e-07
3.96104e-06
1.36834e-07
3.95958e-06
1.39905e-07
3.95258e-06
1.48965e-07
3.94217e-06
1.68536e-07
3.93473e-06
1.97638e-07
2.34752e-07
3.93595e-06
4.16169e-06
7.46668e-08
4.1985e-06
-2.54882e-08
4.21062e-06
1.90609e-08
4.22632e-06
8.70265e-08
4.2394e-06
1.443e-07
4.23623e-06
1.67689e-07
4.2124e-06
1.60396e-07
4.17746e-06
1.40894e-07
4.14809e-06
1.24279e-07
4.13747e-06
1.14572e-07
4.1484e-06
1.08973e-07
4.17383e-06
1.06338e-07
4.20161e-06
1.09047e-07
4.22087e-06
1.20652e-07
4.22655e-06
1.43281e-07
4.22029e-06
1.74797e-07
4.20885e-06
2.09077e-07
2.40986e-07
4.20261e-06
4.49252e-06
7.58299e-08
4.38822e-06
7.88081e-08
4.35828e-06
4.90029e-08
4.40556e-06
3.97493e-08
4.4771e-06
7.27551e-08
4.5322e-06
1.12594e-07
4.55344e-06
1.3915e-07
4.54547e-06
1.48862e-07
4.52618e-06
1.43573e-07
4.51305e-06
1.27696e-07
4.5133e-06
1.08726e-07
4.52379e-06
9.58538e-08
4.53622e-06
9.6616e-08
4.54303e-06
1.13838e-07
4.54085e-06
1.45465e-07
4.53119e-06
1.8445e-07
4.51842e-06
2.21856e-07
2.49364e-07
4.51004e-06
4.96245e-06
6.44597e-08
4.90458e-06
1.36678e-07
4.88971e-06
6.38675e-08
4.89806e-06
3.13967e-08
4.91169e-06
5.91295e-08
4.9169e-06
1.07378e-07
4.91118e-06
1.44879e-07
4.89901e-06
1.6103e-07
4.88506e-06
1.57516e-07
4.87085e-06
1.4191e-07
4.85599e-06
1.23591e-07
4.84106e-06
1.10782e-07
4.82823e-06
1.09446e-07
4.8198e-06
1.22265e-07
4.81715e-06
1.48118e-07
4.82028e-06
1.81319e-07
4.82833e-06
2.13799e-07
2.37153e-07
4.84055e-06
5.18913e-06
-4.73787e-08
5.24391e-06
8.18947e-08
5.2504e-06
5.7374e-08
5.23664e-06
4.51563e-08
5.21657e-06
7.91994e-08
5.19392e-06
1.30035e-07
5.17446e-06
1.6434e-07
5.16151e-06
1.73976e-07
5.15178e-06
1.67241e-07
5.14023e-06
1.53463e-07
5.12491e-06
1.3891e-07
5.10713e-06
1.28567e-07
5.0902e-06
1.26369e-07
5.07686e-06
1.35612e-07
5.06943e-06
1.55543e-07
5.06823e-06
1.8252e-07
5.07246e-06
2.09573e-07
2.29374e-07
5.08024e-06
5.56725e-06
-6.10838e-08
5.59152e-06
5.76282e-08
5.55926e-06
8.96323e-08
5.51411e-06
9.03091e-08
5.49638e-06
9.69263e-08
5.50679e-06
1.19626e-07
5.52327e-06
1.47862e-07
5.53365e-06
1.63594e-07
5.54192e-06
1.58976e-07
5.55435e-06
1.41027e-07
5.56927e-06
1.23998e-07
5.57808e-06
1.19749e-07
5.57245e-06
1.32005e-07
5.55075e-06
1.57306e-07
5.51825e-06
1.88042e-07
5.48397e-06
2.16806e-07
5.4555e-06
2.38045e-07
2.49361e-07
5.43551e-06
5.92772e-06
4.45029e-09
5.99685e-06
-1.15054e-08
6.00426e-06
8.22183e-08
5.95032e-06
1.44249e-07
5.88893e-06
1.58319e-07
5.86009e-06
1.48464e-07
5.8725e-06
1.35456e-07
5.91266e-06
1.23435e-07
5.95987e-06
1.11768e-07
5.99542e-06
1.05478e-07
6.00859e-06
1.1082e-07
5.99993e-06
1.28416e-07
5.97767e-06
1.54264e-07
5.9528e-06
1.82171e-07
5.93351e-06
2.07332e-07
5.92431e-06
2.26013e-07
5.92525e-06
2.371e-07
2.4107e-07
5.93354e-06
6.42696e-06
-3.50769e-08
6.32175e-06
9.36993e-08
6.26771e-06
1.36261e-07
6.26725e-06
1.44704e-07
6.27443e-06
1.51145e-07
6.27305e-06
1.49841e-07
6.27219e-06
1.36318e-07
6.28577e-06
1.09857e-07
6.31707e-06
8.04604e-08
6.35791e-06
6.46447e-08
6.3954e-06
7.33274e-08
6.41959e-06
1.04222e-07
6.42745e-06
1.46409e-07
6.42226e-06
1.87362e-07
6.41053e-06
2.19061e-07
6.39796e-06
2.38582e-07
6.3882e-06
2.46857e-07
2.48446e-07
6.38083e-06
5.83134e-06
1.58661e-07
5.72283e-06
2.0221e-07
5.7281e-06
1.30985e-07
5.74996e-06
1.22849e-07
5.77785e-06
1.23256e-07
5.8069e-06
1.20792e-07
5.8169e-06
1.26318e-07
5.79551e-06
1.31247e-07
5.75017e-06
1.25801e-07
5.70017e-06
1.14642e-07
5.66325e-06
1.10249e-07
5.64772e-06
1.19748e-07
5.65276e-06
1.41373e-07
5.67225e-06
1.67864e-07
5.69905e-06
1.92266e-07
5.72708e-06
2.10549e-07
5.75116e-06
2.22784e-07
2.30948e-07
5.76865e-06
7.03692e-06
-6.6378e-09
7.08367e-06
1.55456e-07
7.06159e-06
1.53064e-07
7.01185e-06
1.72596e-07
6.98764e-06
1.4746e-07
7.01712e-06
9.13163e-08
7.07239e-06
7.10474e-08
7.11213e-06
9.15036e-08
7.11599e-06
1.2194e-07
7.09045e-06
1.40184e-07
7.05605e-06
1.44652e-07
7.03111e-06
1.44684e-07
7.02364e-06
1.48838e-07
7.03135e-06
1.60156e-07
7.04653e-06
1.77083e-07
7.06091e-06
1.96174e-07
7.06824e-06
2.15455e-07
2.33625e-07
7.06556e-06
8.3351e-06
-1.5621e-07
8.50659e-06
-1.60288e-08
8.57942e-06
8.0229e-08
8.61429e-06
1.37726e-07
8.63624e-06
1.25511e-07
8.63801e-06
8.95505e-08
8.62293e-06
8.61208e-08
8.59814e-06
1.16296e-07
8.56669e-06
1.53395e-07
8.53075e-06
1.7612e-07
8.49531e-06
1.80097e-07
8.46788e-06
1.72115e-07
8.45462e-06
1.62093e-07
8.45794e-06
1.56835e-07
8.47491e-06
1.60113e-07
8.49923e-06
1.71858e-07
8.52433e-06
1.90354e-07
2.13984e-07
8.54397e-06
1.01873e-05
-1.14037e-07
1.02653e-05
-9.39773e-08
1.03832e-05
-3.76691e-08
1.0484e-05
3.69262e-08
1.05329e-05
7.65604e-08
1.05218e-05
1.00634e-07
1.04739e-05
1.34077e-07
1.04168e-05
1.73395e-07
1.03644e-05
2.05753e-07
1.03209e-05
2.19666e-07
1.02893e-05
2.11693e-07
1.02733e-05
1.88063e-07
1.02753e-05
1.60109e-07
1.02945e-05
1.37658e-07
1.03275e-05
1.27132e-07
1.03685e-05
1.30822e-07
1.04119e-05
1.469e-07
1.75345e-07
1.04506e-05
1.28788e-05
1.57154e-07
1.27583e-05
2.65102e-08
1.26674e-05
5.32451e-08
1.26053e-05
9.89597e-08
1.25836e-05
9.82504e-08
1.26055e-05
7.878e-08
1.26628e-05
7.677e-08
1.27328e-05
1.03376e-07
1.27982e-05
1.40393e-07
1.28504e-05
1.67411e-07
1.2885e-05
1.77092e-07
1.28973e-05
1.75782e-07
1.28851e-05
1.72345e-07
1.28506e-05
1.72177e-07
1.28027e-05
1.74958e-07
1.27522e-05
1.81307e-07
1.27098e-05
1.8931e-07
2.02231e-07
1.26829e-05
1.55442e-05
2.92352e-07
1.54615e-05
1.09163e-07
1.54348e-05
7.99848e-08
1.53926e-05
1.41167e-07
1.53268e-05
1.64031e-07
1.52684e-05
1.37139e-07
1.52478e-05
9.73918e-08
1.5281e-05
7.02102e-08
1.53532e-05
6.81869e-08
1.5431e-05
8.96165e-08
1.54836e-05
1.24405e-07
1.54994e-05
1.60074e-07
1.54845e-05
1.87166e-07
1.54547e-05
2.02047e-07
1.54252e-05
2.04377e-07
1.54068e-05
1.99717e-07
1.54045e-05
1.91681e-07
1.88137e-07
1.54186e-05
1.85702e-05
8.37442e-08
1.86349e-05
4.45176e-08
1.86866e-05
2.8269e-08
1.8761e-05
6.67841e-08
1.88038e-05
1.21159e-07
1.87818e-05
1.59193e-07
1.87422e-05
1.37015e-07
1.87325e-05
7.98392e-08
1.87647e-05
3.60507e-08
1.88222e-05
3.20805e-08
1.8882e-05
6.46151e-08
1.89291e-05
1.12939e-07
1.89608e-05
1.55531e-07
1.89821e-05
1.80676e-07
1.89987e-05
1.87857e-07
1.90139e-05
1.84519e-07
1.90271e-05
1.78415e-07
1.76914e-07
1.90383e-05
2.31222e-05
-1.7559e-07
2.31565e-05
1.01684e-08
2.31439e-05
4.08827e-08
2.31579e-05
5.28312e-08
2.31885e-05
9.05224e-08
2.3219e-05
1.28704e-07
2.32166e-05
1.39376e-07
2.31847e-05
1.11775e-07
2.31547e-05
6.6051e-08
2.31519e-05
3.48602e-08
2.31805e-05
3.6037e-08
2.32298e-05
6.36487e-08
2.32847e-05
1.00597e-07
2.33336e-05
1.31813e-07
2.3371e-05
1.50427e-07
2.33976e-05
1.57924e-07
2.34176e-05
1.5847e-07
1.58293e-07
2.34362e-05
1.67826e-05
6.71771e-08
1.6904e-05
-1.11225e-07
1.7042e-05
-9.71022e-08
1.70868e-05
8.02168e-09
1.70796e-05
9.77605e-08
1.70671e-05
1.41186e-07
1.70617e-05
1.44795e-07
1.70585e-05
1.14912e-07
1.70548e-05
6.97799e-08
1.70555e-05
3.41222e-08
1.70682e-05
2.33939e-08
1.70927e-05
3.90894e-08
1.71235e-05
6.98676e-08
1.71527e-05
1.02612e-07
1.71751e-05
1.28008e-07
1.71893e-05
1.43659e-07
1.71972e-05
1.50575e-07
1.52909e-07
1.72026e-05
1.46212e-05
2.65364e-07
1.46244e-05
-1.14386e-07
1.4736e-05
-2.08702e-07
1.48574e-05
-1.13336e-07
1.49323e-05
2.28608e-08
1.492e-05
1.53431e-07
1.48499e-05
2.14858e-07
1.47751e-05
1.89771e-07
1.4734e-05
1.10829e-07
1.47374e-05
3.07102e-08
1.47716e-05
-1.07181e-08
1.48204e-05
-9.73669e-09
1.4867e-05
2.32106e-08
1.49029e-05
6.67933e-08
1.49246e-05
1.06241e-07
1.4934e-05
1.3427e-07
1.49356e-05
1.48953e-07
1.51424e-07
1.49371e-05
1.29348e-05
1.55764e-07
1.28153e-05
5.10226e-09
1.27128e-05
-1.06155e-07
1.27289e-05
-1.29493e-07
1.27823e-05
-3.05461e-08
1.28333e-05
1.02484e-07
1.28698e-05
1.78282e-07
1.28981e-05
1.61475e-07
1.29235e-05
8.54577e-08
1.29457e-05
8.53472e-09
1.29705e-05
-3.55708e-08
1.29935e-05
-3.26621e-08
1.30154e-05
1.26043e-09
1.30349e-05
4.72873e-08
1.3052e-05
8.91267e-08
1.30678e-05
1.18468e-07
1.30836e-05
1.33201e-07
1.35245e-07
1.30998e-05
1.12216e-05
3.51688e-08
1.12531e-05
-2.63748e-08
1.12673e-05
-1.20362e-07
1.12131e-05
-7.52335e-08
1.11526e-05
2.98791e-08
1.11556e-05
9.95196e-08
1.12232e-05
1.10652e-07
1.12986e-05
8.60843e-08
1.13293e-05
5.47948e-08
1.1303e-05
3.48187e-08
1.12418e-05
2.56009e-08
1.11861e-05
2.30686e-08
1.11621e-05
2.52327e-08
1.11773e-05
3.20925e-08
1.12233e-05
4.31187e-08
1.12858e-05
5.59837e-08
1.13514e-05
6.76338e-08
7.54776e-08
1.14112e-05
9.52945e-06
-3.74463e-08
9.63304e-06
-1.29965e-07
9.62254e-06
-1.09868e-07
9.56582e-06
-1.85088e-08
9.53395e-06
6.17522e-08
9.55392e-06
7.95449e-08
9.61886e-06
4.57156e-08
9.7087e-06
-3.75409e-09
9.80235e-06
-3.88573e-08
9.88424e-06
-4.70777e-08
9.94418e-06
-3.4332e-08
9.97862e-06
-1.13711e-08
9.98976e-06
1.40879e-08
9.9855e-06
3.63545e-08
9.97596e-06
5.26588e-08
9.96937e-06
6.25691e-08
9.97117e-06
6.58411e-08
6.37929e-08
9.98285e-06
8.44676e-06
8.03397e-09
8.4316e-06
-1.14805e-07
8.40322e-06
-8.14917e-08
8.39306e-06
-8.34197e-09
8.39781e-06
5.69952e-08
8.39408e-06
8.3279e-08
8.38645e-06
5.33442e-08
8.39389e-06
-1.11938e-08
8.43256e-06
-7.7525e-08
8.50371e-06
-1.18225e-07
8.59129e-06
-1.21912e-07
8.67275e-06
-9.28338e-08
8.7301e-06
-4.32678e-08
8.75743e-06
9.02697e-09
8.7595e-06
5.05863e-08
8.74741e-06
7.46648e-08
8.73275e-06
8.05038e-08
7.22791e-08
8.72426e-06
7.40784e-06
-1.32683e-07
7.38583e-06
-9.27951e-08
7.34059e-06
-3.62516e-08
7.3368e-06
-4.55661e-09
7.38062e-06
1.31797e-08
7.45296e-06
1.09415e-08
7.5211e-06
-1.48054e-08
7.55537e-06
-4.5462e-08
7.54132e-06
-6.34712e-08
7.49112e-06
-6.80216e-08
7.43244e-06
-6.32344e-08
7.38981e-06
-5.02025e-08
7.3755e-06
-2.89592e-08
7.38784e-06
-3.31356e-09
7.41914e-06
1.9285e-08
7.46088e-06
3.29265e-08
7.50585e-06
3.55289e-08
2.96998e-08
7.54843e-06
6.42698e-06
-1.27301e-07
6.46426e-06
-1.30074e-07
6.47112e-06
-4.31111e-08
6.49128e-06
-2.4717e-08
6.52609e-06
-2.16383e-08
6.55937e-06
-2.2335e-08
6.5832e-06
-3.86341e-08
6.60018e-06
-6.244e-08
6.61133e-06
-7.46242e-08
6.61076e-06
-6.74467e-08
6.59355e-06
-4.60254e-08
6.5635e-06
-2.01594e-08
6.53238e-06
2.16319e-09
6.51217e-06
1.69022e-08
6.50919e-06
2.22634e-08
6.5225e-06
1.96155e-08
6.54704e-06
1.09923e-08
2.4528e-10
6.57649e-06
5.57456e-06
-3.08762e-08
5.54323e-06
-9.87516e-08
5.59105e-06
-9.09305e-08
5.6546e-06
-8.82617e-08
5.69477e-06
-6.18049e-08
5.69723e-06
-2.47988e-08
5.6678e-06
-9.2009e-09
5.62624e-06
-2.08876e-08
5.59304e-06
-4.14173e-08
5.57941e-06
-5.38218e-08
5.58633e-06
-5.29402e-08
5.60913e-06
-4.29674e-08
5.64178e-06
-3.04845e-08
5.67936e-06
-2.06726e-08
5.71756e-06
-1.59384e-08
5.75317e-06
-1.59964e-08
5.7837e-06
-1.95408e-08
-2.38143e-08
5.80776e-06
4.93299e-06
-3.11588e-08
4.88597e-06
-5.17266e-08
4.84104e-06
-4.60017e-08
4.82175e-06
-6.89687e-08
4.83409e-06
-7.4147e-08
4.86882e-06
-5.95338e-08
4.90635e-06
-4.67265e-08
4.92764e-06
-4.21802e-08
4.92647e-06
-4.02472e-08
4.91094e-06
-3.82918e-08
4.89543e-06
-3.74236e-08
4.8909e-06
-3.84402e-08
4.90072e-06
-4.03076e-08
4.92184e-06
-4.1795e-08
4.94798e-06
-4.2078e-08
4.97313e-06
-4.11447e-08
4.99277e-06
-3.91802e-08
-3.62452e-08
5.0052e-06
4.10839e-06
4.05666e-06
4.01066e-06
3.94169e-06
3.86755e-06
3.80801e-06
3.76129e-06
3.71911e-06
3.67886e-06
3.64057e-06
3.60314e-06
3.5647e-06
3.52439e-06
3.4826e-06
3.44052e-06
3.39938e-06
3.3602e-06
3.32395e-06
-4.20163e-07
4.20163e-07
-6.0079e-07
1.80628e-07
-3.0122e-07
-2.9957e-07
3.21336e-07
-6.22557e-07
1.0955e-06
-7.74162e-07
1.90583e-06
-8.10328e-07
2.68081e-06
-7.74985e-07
3.38359e-06
-7.02776e-07
3.99633e-06
-6.12748e-07
4.51234e-06
-5.16008e-07
4.9344e-06
-4.22054e-07
5.26429e-06
-3.29892e-07
5.49438e-06
-2.30088e-07
5.62854e-06
-1.34168e-07
5.67042e-06
-4.18717e-08
5.59917e-06
7.12478e-08
5.42492e-06
1.74252e-07
5.13383e-06
2.91087e-07
4.70553e-06
4.28295e-07
4.19111e-06
5.14425e-07
3.55246e-06
6.38653e-07
2.79128e-06
7.6118e-07
2.1037e-06
6.87573e-07
1.60166e-06
5.02046e-07
1.29624e-06
3.05422e-07
1.18314e-06
1.13093e-07
1.24344e-06
-6.02995e-08
1.41297e-06
-1.69528e-07
1.57129e-06
-1.58319e-07
1.6128e-06
-4.15137e-08
1.54639e-06
6.64111e-08
1.48509e-06
6.13019e-08
1.42917e-06
5.59213e-08
1.28982e-06
1.39354e-07
1.03709e-06
2.52724e-07
7.06379e-07
3.30712e-07
3.48583e-07
3.57796e-07
-3.9368e-08
3.87951e-07
-4.98849e-07
4.5948e-07
-1.05694e-06
5.58094e-07
-1.75359e-06
6.9665e-07
-2.61445e-06
8.60853e-07
-3.59543e-06
9.80984e-07
-4.56274e-06
9.67312e-07
-5.39873e-06
8.35987e-07
-6.1027e-06
7.0397e-07
-6.73519e-06
6.32488e-07
-7.31673e-06
5.81542e-07
-7.82644e-06
5.09712e-07
-8.2484e-06
4.21963e-07
-8.58385e-06
3.35446e-07
-8.84039e-06
2.56543e-07
-9.02483e-06
1.84437e-07
-9.14171e-06
1.16881e-07
-9.19405e-06
5.23406e-08
-9.18497e-06
-9.07779e-09
-9.12113e-06
-6.38389e-08
-9.00162e-06
-1.19517e-07
-8.82412e-06
-1.77496e-07
-8.5852e-06
-2.38924e-07
-8.27967e-06
-3.05527e-07
-7.9001e-06
-3.79565e-07
-7.43659e-06
-4.63512e-07
-6.87681e-06
-5.59782e-07
-6.20632e-06
-6.70492e-07
-5.40938e-06
-7.96941e-07
-4.47141e-06
-9.3797e-07
-3.38393e-06
-1.08748e-06
-2.15282e-06
-1.23111e-06
-8.09288e-07
-1.34353e-06
5.8097e-07
-1.39026e-06
1.91959e-06
-1.33862e-06
3.09695e-06
-1.17736e-06
3.98712e-06
-8.90172e-07
4.49716e-06
-5.10046e-07
4.56438e-06
-6.72224e-08
4.16434e-06
4.0005e-07
3.3486e-06
8.15735e-07
2.24289e-06
1.10571e-06
1.00289e-06
1.23999e-06
-2.04087e-07
1.20698e-06
-1.00523e-06
8.01145e-07
-1.07589e-06
7.06587e-08
-4.58171e-07
-6.1772e-07
-3.12234e-07
-1.45937e-07
-1.24421e-06
9.31973e-07
-3.6486e-06
2.40439e-06
-6.34758e-06
2.69898e-06
-8.32074e-06
1.97316e-06
-1.00022e-05
1.68144e-06
-1.12372e-05
1.23506e-06
-1.2197e-05
9.59806e-07
-1.2883e-05
6.8599e-07
-1.33601e-05
4.77055e-07
-1.3649e-05
2.88929e-07
-1.3776e-05
1.26995e-07
-1.37592e-05
-1.68506e-08
-1.36261e-05
-1.33059e-07
-1.3386e-05
-2.40101e-07
-1.30475e-05
-3.38453e-07
-1.26217e-05
-4.25891e-07
-1.21165e-05
-5.05116e-07
-1.15425e-05
-5.74046e-07
-1.09089e-05
-6.33588e-07
-1.02274e-05
-6.81547e-07
-9.50996e-06
-7.17402e-07
-8.77041e-06
-7.39549e-07
-8.02241e-06
-7.47999e-07
-7.27962e-06
-7.42793e-07
-6.55415e-06
-7.25463e-07
-5.85599e-06
-6.98161e-07
-5.19218e-06
-6.6381e-07
-4.56695e-06
-6.25227e-07
-3.98227e-06
-5.84686e-07
-3.43772e-06
-5.44552e-07
-2.9314e-06
-5.06314e-07
-2.4602e-06
-4.71203e-07
-2.02105e-06
-4.39153e-07
-1.61036e-06
-4.1069e-07
-1.22436e-06
-3.86001e-07
-8.61273e-07
-3.63082e-07
-5.1865e-07
-3.42623e-07
-1.96316e-07
-3.22334e-07
1.08705e-07
-3.05021e-07
4.0042e-07
-2.91715e-07
6.83881e-07
-2.83461e-07
9.68236e-07
-2.84355e-07
1.26089e-06
-2.92659e-07
1.56437e-06
-3.03477e-07
1.87544e-06
-3.11068e-07
2.18694e-06
-3.11502e-07
2.49141e-06
-3.04471e-07
2.78463e-06
-2.93222e-07
3.06732e-06
-2.82684e-07
3.34472e-06
-2.774e-07
3.62496e-06
-2.80242e-07
3.91667e-06
-2.91712e-07
4.22753e-06
-3.10854e-07
4.5637e-06
-3.3618e-07
4.92998e-06
-3.66274e-07
5.32951e-06
-3.9953e-07
5.76299e-06
-4.33485e-07
6.22802e-06
-4.65028e-07
6.71918e-06
-4.91158e-07
7.2253e-06
-5.06116e-07
7.73099e-06
-5.05694e-07
8.22507e-06
-4.94084e-07
8.68391e-06
-4.58834e-07
9.0863e-06
-4.02387e-07
9.42566e-06
-3.39366e-07
9.66513e-06
-2.39466e-07
9.8083e-06
-1.43172e-07
9.81466e-06
-6.35927e-09
9.63656e-06
1.781e-07
9.31885e-06
3.17706e-07
8.66527e-06
6.53582e-07
7.8184e-06
8.46867e-07
6.51858e-06
1.29983e-06
4.05225e-06
2.46633e-06
1.48595e-06
2.5663e-06
5.83365e-08
1.42761e-06
-5.78853e-07
6.3719e-07
-9.7849e-07
3.99636e-07
-1.25449e-06
2.76005e-07
-1.1607e-06
-9.37897e-08
-8.4467e-07
-3.16034e-07
-5.36617e-07
-3.08054e-07
-3.449e-07
-1.91717e-07
-2.45239e-07
-9.96615e-08
-1.6026e-07
-8.49783e-08
-5.33841e-08
-1.06876e-07
4.7551e-08
-1.00935e-07
7.92555e-08
-3.17044e-08
2.51536e-09
7.67401e-08
-1.45306e-07
1.47822e-07
-3.03204e-07
1.57898e-07
-4.08694e-07
1.0549e-07
-3.77e-07
-3.1694e-08
-3.40648e-07
-3.63522e-08
-2.25778e-07
-1.14869e-07
-2.77516e-08
4.47914e-07
3.58269e-07
-2.05392e-07
1.07513e-06
-1.01643e-06
1.86701e-06
-1.41444e-06
2.60147e-06
-1.50863e-06
3.25354e-06
-1.4624e-06
3.81999e-06
-1.34144e-06
4.30566e-06
-1.18844e-06
4.71843e-06
-1.02552e-06
5.0649e-06
-8.62478e-07
5.34811e-06
-7.05264e-07
5.56917e-06
-5.50948e-07
5.73539e-06
-3.9631e-07
5.8481e-06
-2.46876e-07
5.90426e-06
-9.80319e-08
5.90959e-06
6.59107e-08
5.84913e-06
2.3471e-07
5.73078e-06
4.09438e-07
5.55912e-06
5.99961e-07
5.30651e-06
7.67035e-07
5.01913e-06
9.26033e-07
4.70065e-06
1.07966e-06
4.23976e-06
1.14846e-06
3.65836e-06
1.08345e-06
3.07844e-06
8.85337e-07
2.58937e-06
6.02159e-07
2.28554e-06
2.43531e-07
2.16952e-06
-5.34994e-08
2.11412e-06
-1.02921e-07
2.01256e-06
6.00411e-08
1.85488e-06
2.24097e-07
1.59511e-06
3.21071e-07
1.20046e-06
4.50568e-07
7.51302e-07
5.88513e-07
3.25415e-07
6.78611e-07
-1.04628e-07
7.60756e-07
-6.09378e-07
8.62546e-07
-1.21803e-06
9.96606e-07
-1.92626e-06
1.1677e-06
-2.73963e-06
1.37146e-06
-3.62807e-06
1.58509e-06
-4.51147e-06
1.74425e-06
-5.30707e-06
1.77658e-06
-6.00865e-06
1.6689e-06
-6.66522e-06
1.49255e-06
-7.28805e-06
1.3268e-06
-7.83451e-06
1.17895e-06
-8.27445e-06
1.02148e-06
-8.61863e-06
8.5389e-07
-8.8884e-06
6.91734e-07
-9.0945e-06
5.41544e-07
-9.24078e-06
4.02832e-07
-9.33084e-06
2.74494e-07
-9.36909e-06
1.55129e-07
-9.35956e-06
4.28093e-08
-9.30211e-06
-6.65294e-08
-9.1926e-06
-1.73349e-07
-9.03092e-06
-2.81195e-07
-8.81613e-06
-3.92287e-07
-8.54514e-06
-5.09916e-07
-8.21289e-06
-6.37778e-07
-7.81237e-06
-7.80079e-07
-7.33411e-06
-9.41772e-07
-6.76565e-06
-1.12824e-06
-6.09147e-06
-1.34467e-06
-5.294e-06
-1.59441e-06
-4.35609e-06
-1.87588e-06
-3.26658e-06
-2.17699e-06
-2.03087e-06
-2.46682e-06
-6.85291e-07
-2.68911e-06
6.94325e-07
-2.76987e-06
1.99945e-06
-2.64374e-06
3.12123e-06
-2.29913e-06
3.97272e-06
-1.74166e-06
4.48481e-06
-1.02214e-06
4.62081e-06
-2.03228e-07
4.32701e-06
6.93857e-07
3.65734e-06
1.4854e-06
2.7532e-06
2.00986e-06
1.74274e-06
2.25045e-06
7.92658e-07
2.15706e-06
3.80282e-08
1.55577e-06
-3.90543e-07
4.9923e-07
-1.45899e-06
4.5073e-07
-3.84222e-06
2.23729e-06
-6.71156e-06
3.80131e-06
-8.42435e-06
4.11719e-06
-9.53175e-06
3.80638e-06
-1.05755e-05
3.01696e-06
-1.13647e-05
2.47059e-06
-1.20003e-05
1.87067e-06
-1.24856e-05
1.44504e-06
-1.28438e-05
1.04426e-06
-1.30895e-05
7.22726e-07
-1.32276e-05
4.27064e-07
-1.32651e-05
1.64439e-07
-1.32017e-05
-8.02385e-08
-1.30326e-05
-3.02166e-07
-1.27652e-05
-5.07506e-07
-1.24066e-05
-6.97045e-07
-1.19637e-05
-8.68762e-07
-1.14453e-05
-1.02356e-06
-1.08598e-05
-1.15952e-06
-1.0217e-05
-1.27633e-06
-9.52774e-06
-1.37086e-06
-8.80425e-06
-1.44089e-06
-8.06019e-06
-1.4836e-06
-7.30986e-06
-1.49833e-06
-6.56692e-06
-1.48573e-06
-5.84357e-06
-1.44881e-06
-5.14964e-06
-1.39209e-06
-4.49195e-06
-1.3215e-06
-3.87417e-06
-1.243e-06
-3.29777e-06
-1.16109e-06
-2.76173e-06
-1.08059e-06
-2.26413e-06
-1.00391e-06
-1.80157e-06
-9.33763e-07
-1.37102e-06
-8.69702e-07
-9.68863e-07
-8.12852e-07
-5.9189e-07
-7.62974e-07
-2.37987e-07
-7.16985e-07
9.49102e-08
-6.7552e-07
4.10306e-07
-6.3773e-07
7.05489e-07
-6.00204e-07
9.84371e-07
-5.70597e-07
1.25618e-06
-5.55271e-07
1.53152e-06
-5.59691e-07
1.82062e-06
-5.81758e-07
2.12895e-06
-6.11814e-07
2.45482e-06
-6.36937e-07
2.79037e-06
-6.47052e-07
3.12518e-06
-6.3928e-07
3.45055e-06
-6.18591e-07
3.76269e-06
-5.94827e-07
4.06359e-06
-5.78292e-07
4.35954e-06
-5.76196e-07
4.65916e-06
-5.91335e-07
4.97135e-06
-6.23037e-07
5.30412e-06
-6.68951e-07
5.66408e-06
-7.26237e-07
6.05579e-06
-7.91245e-07
6.48176e-06
-8.59447e-07
6.94118e-06
-9.24452e-07
7.42703e-06
-9.77003e-07
7.93093e-06
-1.01003e-06
8.44091e-06
-1.01567e-06
8.93599e-06
-9.89158e-07
9.40637e-06
-9.29217e-07
9.83144e-06
-8.27457e-07
1.01934e-05
-7.01365e-07
1.04858e-05
-5.31776e-07
1.06727e-05
-3.30133e-07
1.07795e-05
-1.13133e-07
1.07695e-05
1.88096e-07
1.06439e-05
4.43254e-07
1.04365e-05
8.61035e-07
9.95957e-06
1.32379e-06
9.42589e-06
1.83351e-06
8.78264e-06
3.10958e-06
7.33124e-06
4.0177e-06
4.99409e-06
3.76476e-06
2.70727e-06
2.92401e-06
1.18336e-06
1.92355e-06
5.5452e-07
9.04845e-07
4.56067e-07
4.66355e-09
6.53691e-07
-5.13659e-07
9.91057e-07
-6.4542e-07
1.28788e-06
-4.88542e-07
1.44064e-06
-2.52418e-07
1.4711e-06
-1.15442e-07
1.47949e-06
-1.15265e-07
1.49596e-06
-1.174e-07
1.45242e-06
1.18338e-08
1.29883e-06
2.30326e-07
1.06076e-06
3.85892e-07
8.48396e-07
3.70264e-07
7.60202e-07
1.93685e-07
8.50851e-07
-1.22344e-07
1.1058e-06
-2.913e-07
-5.05686e-07
1.38571e-06
3.12933e-07
1.34981e-07
1.30185e-06
-1.19431e-06
2.15347e-06
-1.86805e-06
2.74828e-06
-2.00925e-06
3.16069e-06
-1.92104e-06
3.45649e-06
-1.75819e-06
3.68584e-06
-1.57079e-06
3.87777e-06
-1.38037e-06
4.04944e-06
-1.19718e-06
4.20893e-06
-1.02197e-06
4.35831e-06
-8.54644e-07
4.49341e-06
-6.86042e-07
4.60914e-06
-5.12047e-07
4.70149e-06
-3.39223e-07
4.75833e-06
-1.54873e-07
4.78158e-06
4.26593e-08
4.78335e-06
2.32942e-07
4.75293e-06
4.39856e-07
4.68047e-06
6.72426e-07
4.55871e-06
8.88797e-07
4.41243e-06
1.07231e-06
4.25759e-06
1.2345e-06
4.0651e-06
1.34095e-06
3.78353e-06
1.36502e-06
3.37991e-06
1.28895e-06
2.97521e-06
1.00686e-06
2.65731e-06
5.61427e-07
2.34286e-06
2.60958e-07
1.98233e-06
2.57606e-07
1.62332e-06
4.19047e-07
1.24118e-06
6.06238e-07
7.96049e-07
7.66205e-07
3.79046e-07
8.67571e-07
1.0737e-08
9.56822e-07
-4.0171e-07
1.09106e-06
-9.1907e-07
1.27812e-06
-1.56383e-06
1.50731e-06
-2.33349e-06
1.76626e-06
-3.19507e-06
2.02928e-06
-4.08702e-06
2.26342e-06
-4.92912e-06
2.42719e-06
-5.6637e-06
2.47884e-06
-6.29027e-06
2.40315e-06
-6.85151e-06
2.23014e-06
-7.37343e-06
2.01447e-06
-7.83493e-06
1.78831e-06
-8.20912e-06
1.55314e-06
-8.50063e-06
1.31299e-06
-8.72999e-06
1.08325e-06
-8.91012e-06
8.7186e-07
-9.0452e-06
6.76627e-07
-9.13705e-06
4.94679e-07
-9.18685e-06
3.24299e-07
-9.19487e-06
1.63145e-07
-9.165e-06
1.29368e-08
-9.09276e-06
-1.38762e-07
-8.97845e-06
-2.87662e-07
-8.82156e-06
-4.38085e-07
-8.62002e-06
-5.93829e-07
-8.37045e-06
-7.59489e-07
-8.06781e-06
-9.40411e-07
-7.7051e-06
-1.14279e-06
-7.27286e-06
-1.37401e-06
-6.75885e-06
-1.64225e-06
-6.14815e-06
-1.95538e-06
-5.42438e-06
-2.31819e-06
-4.57304e-06
-2.72721e-06
-3.58699e-06
-3.16304e-06
-2.47744e-06
-3.57637e-06
-1.28776e-06
-3.87879e-06
-9.69627e-08
-3.96067e-06
1.01622e-06
-3.75692e-06
1.96627e-06
-3.24918e-06
2.71698e-06
-2.49238e-06
3.21859e-06
-1.52374e-06
3.41186e-06
-3.96506e-07
3.2443e-06
8.61424e-07
2.72934e-06
2.00035e-06
1.98438e-06
2.75482e-06
1.12568e-06
3.10915e-06
2.14677e-07
3.06807e-06
-6.4315e-07
2.4136e-06
-1.82166e-06
1.67774e-06
-4.26502e-06
2.89409e-06
-6.81028e-06
4.78254e-06
-8.31071e-06
5.30174e-06
-9.1309e-06
4.93738e-06
-9.58024e-06
4.25571e-06
-1.00944e-05
3.53115e-06
-1.057e-05
2.94613e-06
-1.10498e-05
2.35054e-06
-1.14666e-05
1.86184e-06
-1.18077e-05
1.38535e-06
-1.20492e-05
9.64232e-07
-1.21839e-05
5.61711e-07
-1.2208e-05
1.88553e-07
-1.21274e-05
-1.60868e-07
-1.19457e-05
-4.8383e-07
-1.16684e-05
-7.84816e-07
-1.13029e-05
-1.06251e-06
-1.08567e-05
-1.31496e-06
-1.03375e-05
-1.54274e-06
-9.75338e-06
-1.74368e-06
-9.11305e-06
-1.91666e-06
-8.42683e-06
-2.05708e-06
-7.7072e-06
-2.16051e-06
-6.96852e-06
-2.22229e-06
-6.22622e-06
-2.24063e-06
-5.49518e-06
-2.21677e-06
-4.78849e-06
-2.1555e-06
-4.11608e-06
-2.0645e-06
-3.4843e-06
-1.95327e-06
-2.89539e-06
-1.83191e-06
-2.34969e-06
-1.70679e-06
-1.8444e-06
-1.58588e-06
-1.37685e-06
-1.47146e-06
-9.42495e-07
-1.36812e-06
-5.39031e-07
-1.27317e-06
-1.62495e-07
-1.18939e-06
1.90869e-07
-1.11634e-06
5.24523e-07
-1.05064e-06
8.35845e-07
-9.86842e-07
1.12086e-06
-9.22743e-07
1.378e-06
-8.57346e-07
1.60817e-06
-8.00764e-07
1.82099e-06
-7.68095e-07
2.03187e-06
-7.70573e-07
2.25696e-06
-8.06847e-07
2.50739e-06
-8.62238e-07
2.78601e-06
-9.15562e-07
3.08807e-06
-9.49103e-07
3.40432e-06
-9.55537e-07
3.72494e-06
-9.39212e-07
4.04274e-06
-9.12627e-07
4.35514e-06
-8.90687e-07
4.66433e-06
-8.85392e-07
4.9763e-06
-9.03296e-07
5.29899e-06
-9.45727e-07
5.6406e-06
-1.01056e-06
6.00839e-06
-1.09403e-06
6.40778e-06
-1.19063e-06
6.84056e-06
-1.29223e-06
7.30436e-06
-1.38825e-06
7.79266e-06
-1.4653e-06
8.29307e-06
-1.51043e-06
8.79197e-06
-1.51457e-06
9.27418e-06
-1.47137e-06
9.72443e-06
-1.37947e-06
1.01299e-05
-1.2329e-06
1.04724e-05
-1.04388e-06
1.07469e-05
-8.06266e-07
1.0934e-05
-5.17274e-07
1.10332e-05
-2.12321e-07
1.10376e-05
1.83663e-07
1.09103e-05
5.70566e-07
1.07306e-05
1.0408e-06
1.04184e-05
1.63598e-06
1.00923e-05
2.1596e-06
1.00314e-05
3.17043e-06
9.77721e-06
4.27192e-06
8.92205e-06
4.61991e-06
7.50484e-06
4.34122e-06
5.86792e-06
3.56046e-06
4.48994e-06
2.28283e-06
3.49006e-06
1.00454e-06
2.86828e-06
1.08119e-07
2.56868e-06
-3.45816e-07
2.50035e-06
-4.20217e-07
2.5335e-06
-2.85562e-07
2.54074e-06
-1.22684e-07
2.47542e-06
-4.99455e-08
2.33102e-06
2.70044e-08
2.09061e-06
2.52238e-07
1.75202e-06
5.6892e-07
1.37053e-06
7.67376e-07
1.06313e-06
6.77665e-07
9.38348e-07
3.18468e-07
1.01897e-06
-2.02964e-07
1.29856e-06
-5.70893e-07
-8.145e-07
1.60738e-06
9.37319e-07
-8.02338e-07
1.84233e-06
-2.09931e-06
2.28904e-06
-2.31477e-06
2.43771e-06
-2.15792e-06
2.50323e-06
-1.98655e-06
2.55759e-06
-1.81255e-06
2.61538e-06
-1.62858e-06
2.68395e-06
-1.44894e-06
2.76495e-06
-1.27819e-06
2.85685e-06
-1.11387e-06
2.9524e-06
-9.5019e-07
3.04247e-06
-7.76121e-07
3.12422e-06
-5.93788e-07
3.198e-06
-4.13003e-07
3.25692e-06
-2.13793e-07
3.30876e-06
-9.18061e-09
3.34283e-06
1.98872e-07
3.37352e-06
4.09162e-07
3.39303e-06
6.52919e-07
3.37748e-06
9.04342e-07
3.32242e-06
1.12736e-06
3.24334e-06
1.31359e-06
3.10985e-06
1.47443e-06
2.87486e-06
1.60001e-06
2.62081e-06
1.543e-06
2.43463e-06
1.19304e-06
2.20448e-06
7.91582e-07
1.82295e-06
6.4249e-07
1.33079e-06
7.49765e-07
8.08673e-07
9.4116e-07
3.30502e-07
1.08441e-06
-6.93905e-08
1.1661e-06
-4.70268e-07
1.26845e-06
-9.63183e-07
1.44974e-06
-1.57417e-06
1.70204e-06
-2.2993e-06
2.00324e-06
-3.11377e-06
2.32178e-06
-3.96798e-06
2.62047e-06
-4.80202e-06
2.86332e-06
-5.5564e-06
3.01781e-06
-6.19095e-06
3.06174e-06
-6.70285e-06
2.99074e-06
-7.12268e-06
2.82297e-06
-7.48488e-06
2.59234e-06
-7.80212e-06
2.33171e-06
-8.07381e-06
2.06001e-06
-8.30817e-06
1.78749e-06
-8.51953e-06
1.52435e-06
-8.71289e-06
1.27661e-06
-8.88457e-06
1.04353e-06
-9.02989e-06
8.21949e-07
-9.14509e-06
6.0988e-07
-9.22726e-06
4.0647e-07
-9.27391e-06
2.09794e-07
-9.28142e-06
2.0451e-08
-9.24431e-06
-1.75873e-07
-9.16574e-06
-3.66237e-07
-9.04488e-06
-5.58942e-07
-8.87922e-06
-7.59489e-07
-8.66569e-06
-9.7302e-07
-8.40036e-06
-1.20574e-06
-8.07793e-06
-1.46522e-06
-7.69179e-06
-1.76015e-06
-7.23443e-06
-2.09962e-06
-6.69846e-06
-2.49134e-06
-6.07811e-06
-2.93853e-06
-5.37084e-06
-3.43449e-06
-4.5809e-06
-3.95298e-06
-3.72482e-06
-4.43245e-06
-2.83785e-06
-4.76576e-06
-1.972e-06
-4.82652e-06
-1.19267e-06
-4.53625e-06
-5.12018e-07
-3.92984e-06
9.09772e-08
-3.09537e-06
5.96393e-07
-2.02916e-06
8.91962e-07
-6.92075e-07
9.32836e-07
8.2055e-07
7.14159e-07
2.21903e-06
2.4888e-07
3.2201e-06
-3.79205e-07
3.73723e-06
-1.09226e-06
3.78113e-06
-1.99019e-06
3.31153e-06
-3.8233e-06
3.51084e-06
-6.13529e-06
5.20608e-06
-7.60671e-06
6.25397e-06
-8.20904e-06
5.90407e-06
-8.56774e-06
5.29608e-06
-8.91426e-06
4.60223e-06
-9.31848e-06
3.93537e-06
-9.72107e-06
3.34872e-06
-1.01309e-05
2.76036e-06
-1.04882e-05
2.21915e-06
-1.07803e-05
1.67749e-06
-1.09835e-05
1.16735e-06
-1.10897e-05
6.6798e-07
-1.10931e-05
1.91977e-07
-1.09969e-05
-2.57149e-07
-1.08035e-05
-6.77172e-07
-1.05178e-05
-1.07049e-06
-1.01466e-05
-1.43376e-06
-9.69712e-06
-1.76444e-06
-9.17697e-06
-2.06288e-06
-8.59307e-06
-2.32758e-06
-7.95308e-06
-2.55665e-06
-7.26601e-06
-2.74415e-06
-6.54434e-06
-2.88218e-06
-5.80347e-06
-2.96316e-06
-5.06114e-06
-2.98297e-06
-4.33451e-06
-2.9434e-06
-3.63911e-06
-2.8509e-06
-2.98631e-06
-2.7173e-06
-2.38251e-06
-2.55707e-06
-1.82909e-06
-2.38534e-06
-1.32436e-06
-2.21151e-06
-8.63271e-07
-2.04697e-06
-4.42188e-07
-1.89254e-06
-5.40909e-08
-1.75622e-06
3.09006e-07
-1.63626e-06
6.50954e-07
-1.53134e-06
9.74076e-07
-1.43946e-06
1.28279e-06
-1.35935e-06
1.57944e-06
-1.28349e-06
1.85834e-06
-1.20165e-06
2.10889e-06
-1.1079e-06
2.32095e-06
-1.01282e-06
2.49552e-06
-9.42665e-07
2.64774e-06
-9.22801e-07
2.80018e-06
-9.59283e-07
2.97249e-06