/*--------------------------------*- C++ -*----------------------------------*\
  =========                 |
  \\      /  F ield         | OpenFOAM: The Open Source CFD Toolbox
   \\    /   O peration     | Website:  https://openfoam.org
    \\  /    A nd           | Version:  9
     \\/     M anipulation  |
\*---------------------------------------------------------------------------*/
FoamFile
{
    format      ascii;
    class       surfaceScalarField;
    location    "0.064";
    object      phi_0;
}
// * * * * * * * * * * * * * * * * * * * * * * * * * * * * * * * * * * * * * //

dimensions      [0 3 -1 0 0 0 0];

internalField   nonuniform List<scalar> 
24170
(
3.08187e-06
1.34728e-07
2.99705e-06
8.48125e-08
2.94131e-06
5.57455e-08
2.86453e-06
7.67742e-08
2.76194e-06
1.02596e-07
2.64512e-06
1.16813e-07
2.53027e-06
1.14851e-07
2.42886e-06
1.01417e-07
2.34117e-06
8.76836e-08
2.25945e-06
8.17202e-08
2.17549e-06
8.3957e-08
2.08562e-06
8.98793e-08
1.99103e-06
9.45848e-08
1.89294e-06
9.80892e-08
1.78903e-06
1.03915e-07
1.67637e-06
1.1266e-07
1.54154e-06
1.3483e-07
1.73251e-07
1.36829e-06
3.48058e-06
9.8385e-08
3.498e-06
6.73971e-08
3.49509e-06
5.86501e-08
3.47775e-06
9.4121e-08
3.45357e-06
1.2677e-07
3.43638e-06
1.34004e-07
3.42971e-06
1.21525e-07
3.42378e-06
1.07342e-07
3.407e-06
1.04463e-07
3.37621e-06
1.12512e-07
3.33724e-06
1.22928e-07
3.298e-06
1.29118e-07
3.26331e-06
1.29276e-07
3.23308e-06
1.28315e-07
3.2028e-06
1.34201e-07
3.16443e-06
1.51025e-07
3.11341e-06
1.85855e-07
2.39893e-07
3.04677e-06
3.70956e-06
1.00433e-07
3.73324e-06
4.37225e-08
3.73774e-06
5.41474e-08
3.72016e-06
1.11702e-07
3.68525e-06
1.61678e-07
3.65688e-06
1.6237e-07
3.65183e-06
1.26574e-07
3.66533e-06
9.38462e-08
3.6819e-06
8.78981e-08
3.68989e-06
1.04515e-07
3.68707e-06
1.25747e-07
3.6775e-06
1.38688e-07
3.66621e-06
1.40572e-07
3.65644e-06
1.38087e-07
3.64857e-06
1.42064e-07
3.6405e-06
1.59097e-07
3.63403e-06
1.92327e-07
2.39616e-07
3.63431e-06
3.94738e-06
1.23691e-07
3.96811e-06
2.2989e-08
3.98068e-06
4.15849e-08
3.98115e-06
1.11225e-07
3.98074e-06
1.62095e-07
3.97759e-06
1.65519e-07
3.96826e-06
1.35904e-07
3.95624e-06
1.05862e-07
3.94786e-06
9.62769e-08
3.94622e-06
1.06155e-07
3.95009e-06
1.21875e-07
3.95586e-06
1.32927e-07
3.9591e-06
1.37324e-07
3.95687e-06
1.40317e-07
3.94903e-06
1.49907e-07
3.93782e-06
1.70306e-07
3.92969e-06
2.00454e-07
2.38702e-07
3.93061e-06
4.16811e-06
1.00465e-07
4.20318e-06
-1.20877e-08
4.21393e-06
3.08332e-08
4.22877e-06
9.63862e-08
4.2403e-06
1.50562e-07
4.23503e-06
1.70796e-07
4.20935e-06
1.61584e-07
4.1737e-06
1.4151e-07
4.14502e-06
1.24959e-07
4.13592e-06
1.15256e-07
4.1483e-06
1.09489e-07
4.17438e-06
1.06855e-07
4.20169e-06
1.10009e-07
4.21954e-06
1.22465e-07
4.22339e-06
1.46054e-07
4.21541e-06
1.78286e-07
4.20285e-06
2.13023e-07
2.45202e-07
4.19634e-06
4.49242e-06
9.69204e-08
4.38575e-06
9.45841e-08
4.36115e-06
5.5435e-08
4.41139e-06
4.61477e-08
4.48252e-06
7.94286e-08
4.53515e-06
1.18164e-07
4.55342e-06
1.43316e-07
4.54337e-06
1.51556e-07
4.52354e-06
1.4479e-07
4.51102e-06
1.27781e-07
4.51208e-06
1.0843e-07
4.52284e-06
9.60936e-08
4.53473e-06
9.81146e-08
4.54035e-06
1.16844e-07
4.53672e-06
1.49688e-07
4.52577e-06
1.89233e-07
4.51222e-06
2.2658e-07
2.53691e-07
4.50373e-06
4.96178e-06
1.31807e-07
4.90437e-06
1.51996e-07
4.89179e-06
6.80133e-08
4.90057e-06
3.73714e-08
4.91321e-06
6.67837e-08
4.91684e-06
1.14533e-07
4.90974e-06
1.50418e-07
4.89673e-06
1.64568e-07
4.88229e-06
1.59233e-07
4.86763e-06
1.42438e-07
4.85232e-06
1.23744e-07
4.83707e-06
1.11336e-07
4.82416e-06
1.11025e-07
4.81584e-06
1.25169e-07
4.81332e-06
1.52202e-07
4.81651e-06
1.86047e-07
4.82453e-06
2.18565e-07
2.41519e-07
4.8367e-06
5.1933e-06
-1.94425e-08
5.24735e-06
9.79368e-08
5.25162e-06
6.37453e-08
5.23661e-06
5.2387e-08
5.21544e-06
8.79465e-08
5.19195e-06
1.38031e-07
5.17221e-06
1.7016e-07
5.15914e-06
1.77629e-07
5.14901e-06
1.69364e-07
5.13677e-06
1.54679e-07
5.12076e-06
1.39754e-07
5.10252e-06
1.29577e-07
5.08544e-06
1.28102e-07
5.07217e-06
1.38444e-07
5.06492e-06
1.59451e-07
5.06383e-06
1.87136e-07
5.06805e-06
2.14344e-07
2.3388e-07
5.07569e-06
5.56582e-06
-2.68705e-08
5.59226e-06
7.14921e-08
5.55813e-06
9.7882e-08
5.51292e-06
9.75953e-08
5.49662e-06
1.04244e-07
5.50765e-06
1.27002e-07
5.52347e-06
1.54342e-07
5.533e-06
1.68094e-07
5.54099e-06
1.61379e-07
5.55343e-06
1.42239e-07
5.56788e-06
1.25304e-07
5.57535e-06
1.22106e-07
5.56776e-06
1.3569e-07
5.54421e-06
1.61993e-07
5.51057e-06
1.93096e-07
5.47607e-06
2.21631e-07
5.44814e-06
2.42275e-07
2.52957e-07
5.42906e-06
5.92236e-06
-2.8874e-08
6.00049e-06
-6.63468e-09
6.00428e-06
9.40865e-08
5.94727e-06
1.54608e-07
5.88595e-06
1.65563e-07
5.85918e-06
1.53775e-07
5.8737e-06
1.39818e-07
5.91483e-06
1.26962e-07
5.96144e-06
1.14777e-07
5.99502e-06
1.08655e-07
6.00566e-06
1.1466e-07
5.99484e-06
1.32935e-07
5.97137e-06
1.59155e-07
5.94635e-06
1.87014e-07
5.92769e-06
2.11758e-07
5.91951e-06
2.29805e-07
5.92146e-06
2.40326e-07
2.44033e-07
5.93039e-06
6.42706e-06
-5.78175e-08
6.31864e-06
1.01781e-07
6.26778e-06
1.44949e-07
6.26881e-06
1.53572e-07
6.27511e-06
1.59271e-07
6.27249e-06
1.56392e-07
6.27147e-06
1.40836e-07
6.2858e-06
1.12635e-07
6.31779e-06
8.2787e-08
6.35848e-06
6.79639e-08
6.39483e-06
7.83124e-08
6.41724e-06
1.10526e-07
6.4233e-06
1.53093e-07
6.41683e-06
1.93486e-07
6.4045e-06
2.24085e-07
6.39189e-06
2.42409e-07
6.38244e-06
2.49776e-07
2.50993e-07
6.37549e-06
5.8248e-06
1.64429e-07
5.72329e-06
2.03288e-07
5.73135e-06
1.36894e-07
5.75305e-06
1.31871e-07
5.78047e-06
1.31848e-07
5.80806e-06
1.28801e-07
5.81523e-06
1.33666e-07
5.79076e-06
1.37108e-07
5.7435e-06
1.30044e-07
5.69332e-06
1.18147e-07
5.65753e-06
1.14098e-07
5.64365e-06
1.24405e-07
5.65018e-06
1.46567e-07
5.67067e-06
1.72993e-07
5.69792e-06
1.96843e-07
5.72589e-06
2.14435e-07
5.74949e-06
2.26178e-07
2.3422e-07
5.76626e-06
7.0522e-06
3.97356e-08
7.08897e-06
1.66518e-07
7.06171e-06
1.6416e-07
7.0102e-06
1.8338e-07
6.98799e-06
1.5406e-07
7.01972e-06
9.70649e-08
7.0746e-06
7.87833e-08
7.11142e-06
1.00297e-07
7.11175e-06
1.2971e-07
7.08395e-06
1.45952e-07
7.04919e-06
1.48855e-07
7.02528e-06
1.48315e-07
7.01923e-06
1.52617e-07
7.02792e-06
1.64303e-07
7.04328e-06
1.81481e-07
7.05706e-06
2.00657e-07
7.06332e-06
2.19919e-07
2.38055e-07
7.05948e-06
8.3471e-06
-2.40795e-07
8.52118e-06
-7.56154e-09
8.58725e-06
9.80969e-08
8.61828e-06
1.52342e-07
8.63712e-06
1.35228e-07
8.63591e-06
9.82704e-08
8.61853e-06
9.61659e-08
8.59202e-06
1.26809e-07
8.55923e-06
1.62493e-07
8.52241e-06
1.82777e-07
8.48678e-06
1.84484e-07
8.45999e-06
1.75108e-07
8.44797e-06
1.64632e-07
8.45268e-06
1.59594e-07
8.4707e-06
1.63464e-07
8.49548e-06
1.7587e-07
8.52041e-06
1.9499e-07
2.19009e-07
8.53946e-06
1.02197e-05
-8.72124e-08
1.02833e-05
-7.11764e-08
1.03947e-05
-1.33072e-08
1.04904e-05
5.66351e-08
1.05329e-05
9.27784e-08
1.05164e-05
1.14788e-07
1.04654e-05
1.47126e-07
1.04071e-05
1.85125e-07
1.03544e-05
2.15173e-07
1.03111e-05
2.26142e-07
1.02802e-05
2.15376e-07
1.02654e-05
1.89845e-07
1.02689e-05
1.61146e-07
1.02896e-05
1.38944e-07
1.03237e-05
1.29332e-07
1.03654e-05
1.34187e-07
1.04089e-05
1.51485e-07
1.80975e-07
1.04469e-05
1.28907e-05
2.30246e-07
1.27646e-05
5.49409e-08
1.26682e-05
8.3058e-08
1.26032e-05
1.21616e-07
1.25816e-05
1.14453e-07
1.26045e-05
9.18728e-08
1.26621e-05
8.94643e-08
1.27314e-05
1.15844e-07
1.27953e-05
1.5128e-07
1.28457e-05
1.75758e-07
1.2878e-05
1.83074e-07
1.28876e-05
1.80296e-07
1.28725e-05
1.76231e-07
1.28356e-05
1.75812e-07
1.27865e-05
1.78434e-07
1.2736e-05
1.84684e-07
1.26947e-05
1.92746e-07
2.06041e-07
1.26697e-05
1.55523e-05
3.23036e-07
1.54692e-05
1.38084e-07
1.54366e-05
1.15617e-07
1.53866e-05
1.71644e-07
1.53159e-05
1.85157e-07
1.52567e-05
1.51079e-07
1.52383e-05
1.07841e-07
1.52745e-05
7.96031e-08
1.5348e-05
7.77782e-08
1.54243e-05
9.94443e-08
1.54736e-05
1.33838e-07
1.54855e-05
1.68337e-07
1.54681e-05
1.93714e-07
1.54372e-05
2.06692e-07
1.54083e-05
2.07362e-07
1.53913e-05
2.01592e-07
1.5391e-05
1.93107e-07
1.89783e-07
1.54072e-05
1.86064e-05
1.69583e-07
1.86439e-05
1.00628e-07
1.86865e-05
7.29415e-08
1.87555e-05
1.0271e-07
1.87918e-05
1.48872e-07
1.87645e-05
1.78369e-07
1.8724e-05
1.48294e-07
1.87166e-05
8.70425e-08
1.87512e-05
4.31868e-08
1.88096e-05
4.09755e-08
1.88687e-05
7.4769e-08
1.89143e-05
1.22698e-07
1.89447e-05
1.63397e-07
1.89653e-05
1.86066e-07
1.89815e-05
1.91141e-07
1.89965e-05
1.86575e-07
1.90095e-05
1.80168e-07
1.78991e-07
1.90202e-05
2.31256e-05
-1.8104e-08
2.31305e-05
9.57186e-08
2.31138e-05
8.96778e-08
2.31297e-05
8.67926e-08
2.31618e-05
1.16718e-07
2.31916e-05
1.4865e-07
2.31871e-05
1.52764e-07
2.31544e-05
1.19693e-07
2.31262e-05
7.14398e-08
2.31265e-05
4.0627e-08
2.31579e-05
4.33615e-08
2.32088e-05
7.18284e-08
2.32639e-05
1.08277e-07
2.3312e-05
1.3798e-07
2.33483e-05
1.54822e-07
2.3374e-05
1.60887e-07
2.33936e-05
1.60626e-07
1.6025e-07
2.34123e-05
1.66685e-05
9.50151e-08
1.685e-05
-8.57856e-08
1.70036e-05
-6.38739e-08
1.70517e-05
3.86226e-08
1.70474e-05
1.21038e-07
1.70383e-05
1.57726e-07
1.70355e-05
1.55606e-07
1.70338e-05
1.21365e-07
1.70313e-05
7.40096e-08
1.70335e-05
3.84093e-08
1.70478e-05
2.90165e-08
1.70738e-05
4.58571e-08
1.71052e-05
7.68997e-08
1.71342e-05
1.08913e-07
1.71561e-05
1.33008e-07
1.71696e-05
1.47304e-07
1.71771e-05
1.53126e-07
1.54817e-07
1.71826e-05
1.45264e-05
2.24241e-07
1.45668e-05
-1.26228e-07
1.46994e-05
-1.96471e-07
1.48291e-05
-9.10376e-08
1.49038e-05
4.63403e-08
1.48889e-05
1.72579e-07
1.48184e-05
2.26122e-07
1.47463e-05
1.93479e-07
1.47098e-05
1.10484e-07
1.47179e-05
3.03502e-08
1.47547e-05
-7.7784e-09
1.48048e-05
-4.217e-09
1.48513e-05
3.03798e-08
1.48862e-05
7.40377e-08
1.49067e-05
1.12428e-07
1.49152e-05
1.38878e-07
1.49164e-05
1.51885e-07
1.52985e-07
1.49182e-05
1.28807e-05
1.06572e-07
1.27661e-05
-1.16391e-08
1.26737e-05
-1.04114e-07
1.26999e-05
-1.17208e-07
1.2758e-05
-1.18054e-08
1.28109e-05
1.19701e-07
1.28488e-05
1.8827e-07
1.28784e-05
1.63811e-07
1.29048e-05
8.41223e-08
1.2928e-05
7.1886e-09
1.29538e-05
-3.36099e-08
1.29772e-05
-2.76022e-08
1.29994e-05
8.16449e-09
1.3019e-05
5.44046e-08
1.30362e-05
9.52008e-08
1.30523e-05
1.22853e-07
1.30684e-05
1.35748e-07
1.36244e-07
1.30851e-05
1.12023e-05
-4.16828e-09
1.12222e-05
-3.15681e-08
1.12361e-05
-1.18017e-07
1.11817e-05
-6.28594e-08
1.11259e-05
4.39996e-08
1.1136e-05
1.09603e-07
1.12082e-05
1.16083e-07
1.12833e-05
8.87038e-08
1.13104e-05
5.70316e-08
1.12803e-05
3.73078e-08
1.12184e-05
2.83051e-08
1.11651e-05
2.57104e-08
1.11453e-05
2.79306e-08
1.11648e-05
3.4939e-08
1.12139e-05
4.60739e-08
1.1278e-05
5.88043e-08
1.13437e-05
7.00512e-08
7.73556e-08
1.14025e-05
9.52165e-06
-4.49717e-09
9.61147e-06
-1.21386e-07
9.59463e-06
-1.01178e-07
9.53868e-06
-6.90365e-09
9.51165e-06
7.10226e-08
9.53722e-06
8.40375e-08
9.60633e-06
4.69712e-08
9.69914e-06
-4.10804e-09
9.79353e-06
-3.73575e-08
9.87484e-06
-4.40015e-08
9.93324e-06
-3.00946e-08
9.96582e-06
-6.87455e-09
9.97539e-06
1.83631e-08
9.97035e-06
3.99756e-08
9.96097e-06
5.5461e-08
9.95529e-06
6.44842e-08
9.9585e-06
6.68426e-08
6.40352e-08
9.97182e-06
8.41722e-06
2.99391e-08
8.40757e-06
-1.11743e-07
8.38004e-06
-7.36431e-08
8.37275e-06
3.87678e-10
8.37908e-06
6.46945e-08
8.37588e-06
8.72373e-08
8.37005e-06
5.27928e-08
8.37982e-06
-1.38701e-08
8.42252e-06
-8.00655e-08
8.49696e-06
-1.18438e-07
8.58596e-06
-1.19096e-07
8.66657e-06
-8.74852e-08
8.72153e-06
-3.65912e-08
8.74616e-06
1.53449e-08
8.74625e-06
5.53728e-08
8.73337e-06
7.73597e-08
8.71906e-06
8.11516e-08
7.15171e-08
8.71158e-06
7.3912e-06
-1.07295e-07
7.36299e-06
-8.35349e-08
7.31998e-06
-3.06293e-08
7.32053e-06
-1.63599e-10
7.36866e-06
1.65685e-08
7.44317e-06
1.27258e-08
7.51079e-06
-1.48261e-08
7.54229e-06
-4.53701e-08
7.52491e-06
-6.26889e-08
7.47308e-06
-6.66105e-08
7.41521e-06
-6.12194e-08
7.37516e-06
-4.74361e-08
7.36407e-06
-2.5505e-08
7.37913e-06
2.89378e-10
7.4124e-06
2.20974e-08
7.45528e-06
3.44875e-08
7.50065e-06
3.57794e-08
2.9023e-08
7.54314e-06
6.40227e-06
-1.58147e-07
6.44745e-06
-1.28713e-07
6.45599e-06
-3.91707e-08
6.47823e-06
-2.24007e-08
6.51434e-06
-1.95487e-08
6.54819e-06
-2.11151e-08
6.57212e-06
-3.87637e-08
6.58937e-06
-6.26219e-08
6.60039e-06
-7.3706e-08
6.59892e-06
-6.51403e-08
6.58055e-06
-4.28517e-08
6.55001e-06
-1.6894e-08
6.51964e-06
4.86919e-09
6.50121e-06
1.87164e-08
6.50032e-06
2.29879e-08
6.51544e-06
1.9366e-08
6.54114e-06
1.0082e-08
-1.03947e-09
6.5712e-06
5.55221e-06
-9.85466e-08
5.52909e-06
-1.05599e-07
5.58106e-06
-9.11342e-08
5.64508e-06
-8.64184e-08
5.68374e-06
-5.82165e-08
5.68417e-06
-2.15418e-08
5.65354e-06
-8.12863e-09
5.61234e-06
-2.14237e-08
5.58086e-06
-4.22259e-08
5.5695e-06
-5.3783e-08
5.57854e-06
-5.1893e-08
5.60301e-06
-4.13663e-08
5.6368e-06
-2.89196e-08
5.67507e-06
-1.9547e-08
5.71349e-06
-1.54366e-08
5.74892e-06
-1.60654e-08
5.77898e-06
-1.99782e-08
-2.43767e-08
5.80232e-06
4.9203e-06
-9.67003e-08
4.87044e-06
-5.57386e-08
4.82632e-06
-4.70157e-08
4.80963e-06
-6.9727e-08
4.82487e-06
-7.3449e-08
4.86148e-06
-5.81615e-08
4.89918e-06
-4.58256e-08
4.91944e-06
-4.16804e-08
4.9171e-06
-3.98906e-08
4.90132e-06
-3.79996e-08
4.88671e-06
-3.72802e-08
4.88379e-06
-3.84504e-08
4.89526e-06
-4.03896e-08
4.91757e-06
-4.18579e-08
4.94422e-06
-4.2084e-08
4.96924e-06
-4.10861e-08
4.98831e-06
-3.90508e-08
-3.6045e-08
4.99998e-06
4.10408e-06
4.04834e-06
4.00132e-06
3.93159e-06
3.85815e-06
3.79998e-06
3.75416e-06
3.71248e-06
3.67259e-06
3.63459e-06
3.59731e-06
3.55886e-06
3.51847e-06
3.47661e-06
3.43453e-06
3.39344e-06
3.35439e-06
3.31834e-06
-4.19448e-07
4.19448e-07
-5.99122e-07
1.79674e-07
-2.99159e-07
-2.99963e-07
3.23006e-07
-6.22165e-07
1.09657e-06
-7.73561e-07
1.90626e-06
-8.09696e-07
2.68064e-06
-7.74377e-07
3.38279e-06
-7.02154e-07
3.99481e-06
-6.12016e-07
4.51005e-06
-5.1524e-07
4.93138e-06
-4.21332e-07
5.26014e-06
-3.28756e-07
5.48865e-06
-2.28509e-07
5.62146e-06
-1.3281e-07
5.66165e-06
-4.01971e-08
5.58844e-06
7.32093e-08
5.41268e-06
1.75768e-07
5.11881e-06
2.93868e-07
4.68856e-06
4.3025e-07
4.17311e-06
5.15452e-07
3.53144e-06
6.41662e-07
2.77075e-06
7.60698e-07
2.08831e-06
6.82434e-07
1.59159e-06
4.96722e-07
1.29106e-06
3.0053e-07
1.18229e-06
1.08773e-07
1.24622e-06
-6.39361e-08
1.417e-06
-1.70775e-07
1.57323e-06
-1.56228e-07
1.61153e-06
-3.82986e-08
1.54376e-06
6.77668e-08
1.48288e-06
6.08779e-08
1.42665e-06
5.62325e-08
1.28601e-06
1.40636e-07
1.03209e-06
2.53927e-07
7.00898e-07
3.31187e-07
3.4308e-07
3.57818e-07
-4.49141e-08
3.87994e-07
-5.04249e-07
4.59335e-07
-1.06129e-06
5.5704e-07
-1.75529e-06
6.94001e-07
-2.61265e-06
8.57358e-07
-3.5922e-06
9.79551e-07
-4.56296e-06
9.70761e-07
-5.40457e-06
8.41609e-07
-6.11116e-06
7.06589e-07
-6.74267e-06
6.31506e-07
-7.32284e-06
5.80176e-07
-7.83246e-06
5.09619e-07
-8.25489e-06
4.2243e-07
-8.59046e-06
3.35572e-07
-8.84661e-06
2.56143e-07
-9.03031e-06
1.83699e-07
-9.14629e-06
1.15985e-07
-9.19763e-06
5.13362e-08
-9.1876e-06
-1.00264e-08
-9.12278e-06
-6.48231e-08
-9.00247e-06
-1.20305e-07
-8.82453e-06
-1.77941e-07
-8.58559e-06
-2.38937e-07
-8.28061e-06
-3.04981e-07
-7.90231e-06
-3.78306e-07
-7.44092e-06
-4.6139e-07
-6.88425e-06
-5.56665e-07
-6.21797e-06
-6.66287e-07
-5.4263e-06
-7.91661e-07
-4.49446e-06
-9.3184e-07
-3.41341e-06
-1.08105e-06
-2.18805e-06
-1.22536e-06
-8.48265e-07
-1.33979e-06
5.41562e-07
-1.38983e-06
1.88382e-06
-1.34226e-06
3.06816e-06
-1.18434e-06
3.96706e-06
-8.98906e-07
4.48676e-06
-5.19693e-07
4.56398e-06
-7.72255e-08
4.17325e-06
3.90732e-07
3.36461e-06
8.08636e-07
2.26276e-06
1.10185e-06
1.02292e-06
1.23984e-06
-1.88159e-07
1.21108e-06
-9.97175e-07
8.09016e-07
-1.07702e-06
7.98402e-08
-4.62474e-07
-6.14541e-07
-3.06999e-07
-1.55475e-07
-1.22685e-06
9.19846e-07
-3.62043e-06
2.39359e-06
-6.32598e-06
2.70554e-06
-8.30461e-06
1.97863e-06
-9.99051e-06
1.68589e-06
-1.12299e-05
1.23943e-06
-1.21927e-05
9.62772e-07
-1.28813e-05
6.88644e-07
-1.33602e-05
4.78817e-07
-1.36505e-05
2.90351e-07
-1.37784e-05
1.27929e-07
-1.37622e-05
-1.6279e-08
-1.36295e-05
-1.3263e-07
-1.33898e-05
-2.39729e-07
-1.30517e-05
-3.38124e-07
-1.26262e-05
-4.25514e-07
-1.21215e-05
-5.04662e-07
-1.1548e-05
-5.73482e-07
-1.09151e-05
-6.32903e-07
-1.02344e-05
-6.80747e-07
-9.51787e-06
-7.1651e-07
-8.77926e-06
-7.38607e-07
-8.0322e-06
-7.47061e-07
-7.29027e-06
-7.41924e-07
-6.56555e-06
-7.24721e-07
-5.86797e-06
-6.97589e-07
-5.20453e-06
-6.63435e-07
-4.57947e-06
-6.25061e-07
-3.99475e-06
-5.84723e-07
-3.44998e-06
-5.44767e-07
-2.9433e-06
-5.0668e-07
-2.47161e-06
-4.71687e-07
-2.03188e-06
-4.39735e-07
-1.62055e-06
-4.1133e-07
-1.23387e-06
-3.86681e-07
-8.701e-07
-3.63766e-07
-5.26798e-07
-3.43303e-07
-2.03818e-07
-3.2298e-07
1.01879e-07
-3.05697e-07
3.94372e-07
-2.92493e-07
6.78792e-07
-2.84421e-07
9.64301e-07
-2.85508e-07
1.25823e-06
-2.93928e-07
1.56294e-06
-3.04712e-07
1.87505e-06
-3.1211e-07
2.1873e-06
-3.12253e-07
2.49223e-06
-3.0493e-07
2.78571e-06
-2.93478e-07
3.06857e-06
-2.82861e-07
3.34619e-06
-2.77614e-07
3.62675e-06
-2.80568e-07
3.91892e-06
-2.9217e-07
4.23037e-06
-3.11445e-07
4.56727e-06
-3.36896e-07
4.93437e-06
-3.6711e-07
5.33483e-06
-4.00457e-07
5.76927e-06
-4.34439e-07
6.23519e-06
-4.65924e-07
6.72706e-06
-4.91861e-07
7.23348e-06
-5.06428e-07
7.7391e-06
-5.05614e-07
8.2326e-06
-4.93503e-07
8.68999e-06
-4.57392e-07
9.09054e-06
-4.00545e-07
9.42746e-06
-3.36923e-07
9.66387e-06
-2.36407e-07
9.80388e-06
-1.40008e-07
9.80547e-06
-1.59246e-09
9.6241e-06
1.81365e-07
9.30227e-06
3.21836e-07
8.64411e-06
6.58153e-07
7.79653e-06
8.4758e-07
6.48526e-06
1.31128e-06
4.00935e-06
2.47591e-06
1.45451e-06
2.55484e-06
4.00765e-08
1.41443e-06
-5.92073e-07
6.32149e-07
-9.88123e-07
3.96051e-07
-1.25532e-06
2.67199e-07
-1.15432e-06
-1.01006e-07
-8.35867e-07
-3.1845e-07
-5.29141e-07
-3.06726e-07
-3.40731e-07
-1.8841e-07
-2.44011e-07
-9.67197e-08
-1.61006e-07
-8.30056e-08
-5.54515e-08
-1.05554e-07
4.39942e-08
-9.94457e-08
7.39587e-08
-2.99646e-08
-4.10666e-09
7.80654e-08
-1.52128e-07
1.48022e-07
-3.09003e-07
1.56875e-07
-4.12543e-07
1.0354e-07
-3.78718e-07
-3.38248e-08
-3.41442e-07
-3.72764e-08
-2.25969e-07
-1.15473e-07
-2.72399e-08
4.46688e-07
3.59967e-07
-2.07533e-07
1.07665e-06
-1.01664e-06
1.868e-06
-1.41352e-06
2.60185e-06
-1.50741e-06
3.25345e-06
-1.4613e-06
3.81953e-06
-1.34045e-06
4.30483e-06
-1.18746e-06
4.71719e-06
-1.02437e-06
5.06307e-06
-8.61117e-07
5.34537e-06
-7.03636e-07
5.56549e-06
-5.48872e-07
5.73092e-06
-3.93939e-07
5.84254e-06
-2.44435e-07
5.89757e-06
-9.52257e-08
5.90148e-06
6.93005e-08
5.83935e-06
2.37901e-07
5.71997e-06
4.13248e-07
5.54675e-06
6.03472e-07
5.29265e-06
7.6955e-07
5.00552e-06
9.28787e-07
4.68483e-06
1.08139e-06
4.22004e-06
1.14722e-06
3.63839e-06
1.07838e-06
3.06088e-06
8.78036e-07
2.57659e-06
5.93065e-07
2.27878e-06
2.33875e-07
2.16639e-06
-5.83846e-08
2.11056e-06
-1.00407e-07
2.00694e-06
6.53219e-08
1.84708e-06
2.2763e-07
1.58476e-06
3.23203e-07
1.18836e-06
4.52626e-07
7.39678e-07
5.89321e-07
3.15937e-07
6.77668e-07
-1.12381e-07
7.59505e-07
-6.15841e-07
8.61278e-07
-1.22301e-06
9.95162e-07
-1.92917e-06
1.1655e-06
-2.73984e-06
1.36771e-06
-3.62592e-06
1.58008e-06
-4.50887e-06
1.74031e-06
-5.30584e-06
1.77652e-06
-6.00776e-06
1.67269e-06
-6.66296e-06
1.49681e-06
-7.28553e-06
1.32916e-06
-7.83452e-06
1.18049e-06
-8.27786e-06
1.02352e-06
-8.62426e-06
8.5602e-07
-8.89502e-06
6.9319e-07
-9.10161e-06
5.4216e-07
-9.24816e-06
4.0269e-07
-9.33815e-06
2.7369e-07
-9.37596e-06
1.53793e-07
-9.36576e-06
4.11346e-08
-9.30739e-06
-6.83914e-08
-9.19702e-06
-1.75196e-07
-9.03452e-06
-2.82809e-07
-8.81904e-06
-3.93422e-07
-8.54766e-06
-5.10309e-07
-8.21549e-06
-6.37153e-07
-7.81567e-06
-7.78133e-07
-7.33888e-06
-9.38173e-07
-6.77289e-06
-1.12266e-06
-6.1023e-06
-1.33687e-06
-5.30957e-06
-1.58439e-06
-4.37732e-06
-1.86409e-06
-3.29368e-06
-2.16469e-06
-2.06283e-06
-2.45621e-06
-7.19517e-07
-2.6831e-06
6.61442e-07
-2.77079e-06
1.97163e-06
-2.65244e-06
3.10048e-06
-2.31319e-06
3.95936e-06
-1.75779e-06
4.47864e-06
-1.03897e-06
4.62073e-06
-2.19321e-07
4.33367e-06
6.77793e-07
3.66911e-06
1.4732e-06
2.76847e-06
2.00249e-06
1.75948e-06
2.24883e-06
8.07929e-07
2.16263e-06
4.92222e-08
1.56772e-06
-3.81183e-07
5.10245e-07
-1.43689e-06
4.41169e-07
-3.81101e-06
2.21864e-06
-6.68565e-06
3.79449e-06
-8.41079e-06
4.11872e-06
-9.52106e-06
3.81581e-06
-1.0568e-05
3.02561e-06
-1.13604e-05
2.47822e-06
-1.19981e-05
1.87719e-06
-1.24852e-05
1.44987e-06
-1.28448e-05
1.04822e-06
-1.30915e-05
7.25496e-07
-1.32303e-05
4.29217e-07
-1.32683e-05
1.65904e-07
-1.32054e-05
-7.91814e-08
-1.30366e-05
-3.01406e-07
-1.27695e-05
-5.06854e-07
-1.24112e-05
-6.96412e-07
-1.19687e-05
-8.6803e-07
-1.14507e-05
-1.02266e-06
-1.08658e-05
-1.15839e-06
-1.02237e-05
-1.27496e-06
-9.53525e-06
-1.36924e-06
-8.81266e-06
-1.4391e-06
-8.06956e-06
-1.48171e-06
-7.32016e-06
-1.49646e-06
-6.57808e-06
-1.484e-06
-5.85545e-06
-1.44735e-06
-5.16206e-06
-1.39099e-06
-4.5047e-06
-1.3208e-06
-3.88703e-06
-1.24273e-06
-3.31053e-06
-1.16122e-06
-2.77422e-06
-1.08108e-06
-2.27622e-06
-1.00468e-06
-1.81315e-06
-9.34759e-07
-1.38199e-06
-8.70893e-07
-9.79181e-07
-8.14141e-07
-6.01515e-07
-7.64347e-07
-2.46943e-07
-7.18338e-07
8.65803e-08
-6.76826e-07
4.02623e-07
-6.39023e-07
6.98466e-07
-6.0154e-07
9.78125e-07
-5.72151e-07
1.25094e-06
-5.57233e-07
1.52754e-06
-5.62114e-07
1.81811e-06
-5.845e-07
2.12796e-06
-6.14561e-07
2.45518e-06
-6.39325e-07
2.79174e-06
-6.48818e-07
3.12717e-06
-6.40361e-07
3.45282e-06
-6.19128e-07
3.76505e-06
-5.95081e-07
4.06596e-06
-5.78531e-07
4.36201e-06
-5.76612e-07
4.66186e-06
-5.9202e-07
4.97443e-06
-6.24016e-07
5.30775e-06
-6.70223e-07
5.66843e-06
-7.27785e-07
6.06099e-06
-7.93014e-07
6.48787e-06
-8.61326e-07
6.94817e-06
-9.26219e-07
7.4347e-06
-9.78391e-07
7.93907e-06
-1.0108e-06
8.44902e-06
-1.01557e-06
8.94357e-06
-9.88053e-07
9.41307e-06
-9.2689e-07
9.83654e-06
-8.24017e-07
1.01966e-05
-6.97026e-07
1.04864e-05
-5.26154e-07
1.06706e-05
-3.24192e-07
1.07749e-05
-1.05947e-07
1.07613e-05
1.94951e-07
1.06338e-05
4.4936e-07
1.04228e-05
8.69192e-07
9.94247e-06
1.32789e-06
9.40991e-06
1.84383e-06
8.76112e-06
3.1247e-06
7.29926e-06
4.01671e-06
4.96209e-06
3.7516e-06
2.68725e-06
2.90699e-06
1.17744e-06
1.90586e-06
5.5696e-07
8.87679e-07
4.6331e-07
-7.35662e-09
6.63063e-07
-5.18203e-07
9.99476e-07
-6.43139e-07
1.29328e-06
-4.82211e-07
1.44248e-06
-2.45925e-07
1.47046e-06
-1.10979e-07
1.47743e-06
-1.12529e-07
1.49238e-06
-1.14397e-07
1.44691e-06
1.55115e-08
1.29161e-06
2.33363e-07
1.05318e-06
3.86452e-07
8.42324e-07
3.67729e-07
7.56896e-07
1.88968e-07
8.50273e-07
-1.27202e-07
1.10719e-06
-2.94191e-07
-5.06593e-07
1.38781e-06
3.13638e-07
1.3305e-07
1.30218e-06
-1.19607e-06
2.153e-06
-1.86746e-06
2.74729e-06
-2.00781e-06
3.15973e-06
-1.91986e-06
3.45584e-06
-1.75741e-06
3.68551e-06
-1.57013e-06
3.87761e-06
-1.37956e-06
4.04926e-06
-1.19602e-06
4.20853e-06
-1.02038e-06
4.35746e-06
-8.5257e-07
4.49185e-06
-6.83258e-07
4.60669e-06
-5.08777e-07
4.69786e-06
-3.35611e-07
4.75325e-06
-1.50608e-07
4.77582e-06
4.67231e-08
4.77653e-06
2.37197e-07
4.74489e-06
4.44889e-07
4.67083e-06
6.77525e-07
4.5478e-06
8.92587e-07
4.40139e-06
1.07519e-06
4.24648e-06
1.23631e-06
4.05309e-06
1.34061e-06
3.76817e-06
1.3633e-06
3.36215e-06
1.28405e-06
2.95999e-06
9.95227e-07
2.64457e-06
5.49293e-07
2.32911e-06
2.57077e-07
1.96752e-06
2.61188e-07
1.60817e-06
4.24672e-07
1.22478e-06
6.11014e-07
7.7895e-07
7.69034e-07
3.63304e-07
8.68272e-07
-3.38798e-09
9.56013e-07
-4.1546e-07
1.08974e-06
-9.31999e-07
1.27604e-06
-1.57519e-06
1.50447e-06
-2.34256e-06
1.76253e-06
-3.20164e-06
2.02458e-06
-4.09202e-06
2.25809e-06
-4.93445e-06
2.4225e-06
-5.67082e-06
2.47668e-06
-6.2988e-06
2.4045e-06
-6.86005e-06
2.23395e-06
-7.38205e-06
2.0188e-06
-7.84537e-06
1.79249e-06
-8.22226e-06
1.55738e-06
-8.51555e-06
1.31681e-06
-8.74534e-06
1.08581e-06
-8.92508e-06
8.72929e-07
-9.05933e-06
6.76413e-07
-9.14997e-06
4.93327e-07
-9.19822e-06
3.21944e-07
-9.20439e-06
1.59964e-07
-9.17253e-06
9.27172e-09
-9.09814e-06
-1.42782e-07
-8.98175e-06
-2.91588e-07
-8.82291e-06
-4.41647e-07
-8.61963e-06
-5.967e-07
-8.36865e-06
-7.61295e-07
-8.06507e-06
-9.4073e-07
-7.70206e-06
-1.14114e-06
-7.27037e-06
-1.36986e-06
-6.75792e-06
-1.63511e-06
-6.1499e-06
-1.94489e-06
-5.42982e-06
-2.30447e-06
-4.58273e-06
-2.71118e-06
-3.60062e-06
-3.14679e-06
-2.49343e-06
-3.5634e-06
-1.30319e-06
-3.87335e-06
-1.08385e-07
-3.96559e-06
1.01002e-06
-3.77085e-06
1.96515e-06
-3.26832e-06
2.71923e-06
-2.51186e-06
3.22374e-06
-1.54348e-06
3.42035e-06
-4.15924e-07
3.25576e-06
8.42375e-07
2.74243e-06
1.98654e-06
1.99803e-06
2.74689e-06
1.13925e-06
3.1076e-06
2.27858e-07
3.07403e-06
-6.30899e-07
2.42648e-06
-1.80082e-06
1.68016e-06
-4.23397e-06
2.87432e-06
-6.78788e-06
4.77256e-06
-8.29827e-06
5.30487e-06
-9.12619e-06
4.94665e-06
-9.57698e-06
4.2666e-06
-1.00922e-05
3.5408e-06
-1.05687e-05
2.9548e-06
-1.10496e-05
2.35801e-06
-1.14675e-05
1.86784e-06
-1.18096e-05
1.3903e-06
-1.2052e-05
9.67892e-07
-1.21873e-05
5.64494e-07
-1.22118e-05
1.90458e-07
-1.21315e-05
-1.59531e-07
-1.195e-05
-4.82867e-07
-1.16729e-05
-7.83989e-07
-1.13076e-05
-1.06167e-06
-1.08617e-05
-1.31394e-06
-1.0343e-05
-1.54142e-06
-9.75937e-06
-1.742e-06
-9.11975e-06
-1.91457e-06
-8.43439e-06
-2.0546e-06
-7.71576e-06
-2.15773e-06
-6.97813e-06
-2.21934e-06
-6.23689e-06
-2.2377e-06
-5.50682e-06
-2.21408e-06
-4.80092e-06
-2.15325e-06
-4.12907e-06
-2.06283e-06
-3.49762e-06
-1.95225e-06
-2.90878e-06
-1.83157e-06
-2.36291e-06
-1.70708e-06
-1.85727e-06
-1.58673e-06
-1.38922e-06
-1.47273e-06
-9.54278e-07
-1.3697e-06
-5.50113e-07
-1.27506e-06
-1.72874e-07
-1.19138e-06
1.81153e-07
-1.11837e-06
5.15467e-07
-1.05265e-06
8.27358e-07
-9.88717e-07
1.11279e-06
-9.24459e-07
1.3703e-06
-8.59048e-07
1.60095e-06
-8.02799e-07
1.81456e-06
-7.7084e-07
2.02663e-06
-7.74186e-07
2.25327e-06
-8.11143e-07
2.50544e-06
-8.66728e-07
2.78577e-06
-9.19652e-07
3.08928e-06
-9.52327e-07
3.40663e-06
-9.57713e-07
3.72796e-06
-9.40458e-07
4.04615e-06
-9.13273e-07
4.35874e-06
-8.91123e-07
4.66807e-06
-8.85939e-07
4.9802e-06
-9.04157e-07
5.30318e-06
-9.46992e-07
5.64522e-06
-1.01227e-06
6.01359e-06
-1.09615e-06
6.41367e-06
-1.19309e-06
6.84715e-06
-1.29481e-06
7.31158e-06
-1.39065e-06
7.80027e-06
-1.46708e-06
8.30071e-06
-1.51123e-06
8.79926e-06
-1.51412e-06
9.28071e-06
-1.4695e-06
9.72983e-06
-1.37602e-06
1.01337e-05
-1.2279e-06
1.04743e-05
-1.03764e-06
1.07467e-05
-7.98526e-07
1.09315e-05
-5.0897e-07
1.10285e-05
-2.03009e-07
1.10299e-05
1.93553e-07
1.09003e-05
5.78977e-07
1.07189e-05
1.05057e-06
1.04041e-05
1.64275e-06
1.00807e-05
2.16724e-06
1.00218e-05
3.18354e-06
9.76234e-06
4.27619e-06
8.90208e-06
4.61187e-06
7.4838e-06
4.32526e-06
5.8523e-06
3.53737e-06
4.48158e-06
2.2584e-06
3.48762e-06
9.86602e-07
2.86974e-06
9.96807e-08
2.57161e-06
-3.45016e-07
2.50316e-06
-4.13762e-07
2.53478e-06
-2.77543e-07
2.53984e-06
-1.16034e-07
2.47231e-06
-4.50025e-08
2.32556e-06
3.23524e-08
2.08268e-06
2.58395e-07
1.74236e-06
5.7368e-07
1.36097e-06
7.67837e-07
1.0558e-06
6.72904e-07
9.34562e-07
3.10206e-07
1.0185e-06
-2.11136e-07
1.30035e-06
-5.76047e-07
-8.1629e-07
1.61005e-06
9.35364e-07
-8.02314e-07
1.83866e-06
-2.09937e-06
2.28513e-06
-2.31393e-06
2.43462e-06
-2.1573e-06
2.50129e-06
-1.98653e-06
2.55661e-06
-1.81272e-06
2.615e-06
-1.62852e-06
2.68387e-06
-1.44842e-06
2.7649e-06
-1.27706e-06
2.85652e-06
-1.112e-06
2.95145e-06
-9.47505e-07
3.04075e-06
-7.72553e-07
3.12163e-06
-5.89657e-07
3.19444e-06
-4.08425e-07
3.25247e-06
-2.08642e-07
3.3033e-06
-4.1006e-09
3.33678e-06
2.03715e-07
3.36722e-06
4.14446e-07
3.38616e-06
6.5859e-07
3.36931e-06
9.09436e-07
3.31332e-06
1.13118e-06
3.23314e-06
1.31648e-06
3.09644e-06
1.47731e-06
2.85898e-06
1.60076e-06
2.60768e-06
1.53535e-06
2.42371e-06
1.1792e-06
2.1901e-06
7.82903e-07
1.80375e-06
6.43426e-07
1.30899e-06
7.55954e-07
7.86029e-07
9.47632e-07
3.07873e-07
1.08917e-06
-9.21997e-08
1.16911e-06
-4.94137e-07
1.27021e-06
-9.88303e-07
1.45018e-06
-1.59931e-06
1.70075e-06
-2.32323e-06
1.99996e-06
-3.13552e-06
2.31677e-06
-3.98731e-06
2.61431e-06
-4.81961e-06
2.85689e-06
-5.57377e-06
3.01225e-06
-6.20955e-06
3.05829e-06
-6.72305e-06
2.99017e-06
-7.14365e-06
2.8251e-06
-7.50578e-06
2.59607e-06
-7.82289e-06
2.33592e-06
-8.09448e-06
2.06407e-06
-8.328e-06
1.7909e-06
-8.53771e-06
1.52652e-06
-8.72911e-06
1.2772e-06
-8.89875e-06
1.04257e-06
-9.04192e-06
8.19588e-07
-9.15483e-06
6.06229e-07
-9.23459e-06
4.0171e-07
-9.27886e-06
2.04236e-07
-9.28404e-06
1.44435e-08
-9.24461e-06
-1.82208e-07
-9.16386e-06
-3.72337e-07
-9.04098e-06
-5.64531e-07
-8.87353e-06
-7.64143e-07
-8.65857e-06
-9.76259e-07
-8.39227e-06
-1.20703e-06
-8.06944e-06
-1.46397e-06
-7.68354e-06
-1.75577e-06
-7.22702e-06
-2.09162e-06
-6.69239e-06
-2.47953e-06
-6.07358e-06
-2.92328e-06
-5.36766e-06
-3.4171e-06
-4.57837e-06
-3.93608e-06
-3.72169e-06
-4.42009e-06
-2.83256e-06
-4.76247e-06
-1.96346e-06
-4.83469e-06
-1.1809e-06
-4.5534e-06
-4.99465e-07
-3.94976e-06
1.03391e-07
-3.11472e-06
6.07482e-07
-2.04757e-06
9.03766e-07
-7.12208e-07
9.44772e-07
8.01369e-07
7.26061e-07
2.20525e-06
2.60386e-07
3.21256e-06
-3.67917e-07
3.73591e-06
-1.08177e-06
3.78788e-06
-1.97521e-06
3.31992e-06
-3.7969e-06
3.50185e-06
-6.11343e-06
5.19084e-06
-7.59557e-06
6.2547e-06
-8.20523e-06
5.91453e-06
-8.56583e-06
5.30726e-06
-8.91301e-06
4.61378e-06
-9.3179e-06
3.94568e-06
-9.72121e-06
3.35811e-06
-1.01318e-05
2.76859e-06
-1.049e-05
2.22604e-06
-1.07828e-05
1.68312e-06
-1.09865e-05
1.17159e-06
-1.10931e-05
6.71116e-07
-1.10968e-05
1.94103e-07
-1.10006e-05
-2.55736e-07
-1.08072e-05
-6.76195e-07
-1.05216e-05
-1.06965e-06
-1.01504e-05
-1.43285e-06
-9.70109e-06
-1.76325e-06
-9.18123e-06
-2.06128e-06
-8.59778e-06
-2.32545e-06
-7.95844e-06
-2.55392e-06
-7.27221e-06
-2.74083e-06
-6.55158e-06
-2.87836e-06
-5.81189e-06
-2.95903e-06
-5.0708e-06
-2.97879e-06
-4.34537e-06
-2.9395e-06
-3.65102e-06
-2.8476e-06
-2.99902e-06
-2.71482e-06
-2.39575e-06
-2.55552e-06
-1.84254e-06
-2.38478e-06
-1.33777e-06
-2.21186e-06
-8.76341e-07
-2.04815e-06
-4.54767e-07
-1.8943e-06
-6.59874e-08
-1.75848e-06
2.97775e-07
-1.63882e-06
6.40566e-07
-1.53417e-06
9.646e-07
-1.44241e-06
1.27421e-06
-1.36226e-06
1.57164e-06
-1.28615e-06
1.85105e-06
-1.20387e-06
2.10178e-06
-1.10977e-06
2.31384e-06
-1.01487e-06
2.48862e-06
-9.45622e-07
2.64156e-06
-9.27126e-07