/*--------------------------------*- C++ -*----------------------------------*\
  =========                 |
  \\      /  F ield         | OpenFOAM: The Open Source CFD Toolbox
   \\    /   O peration     | Website:  https://openfoam.org
    \\  /    A nd           | Version:  9
     \\/     M anipulation  |
\*---------------------------------------------------------------------------*/
FoamFile
{
    format      ascii;
    class       volVectorField;
    location    "0.064";
    object      U;
}
// * * * * * * * * * * * * * * * * * * * * * * * * * * * * * * * * * * * * * //

dimensions      [0 1 -1 0 0 0 0];

internalField   nonuniform List<vector> 
12225
(
(9.74068 0.0408612 0)
(9.45242 0.0556974 0)
(9.32478 0.0414137 0)
(9.13161 0.062178 0)
(8.84329 0.0961105 0)
(8.48701 0.115872 0)
(8.11395 0.109906 0)
(7.77229 0.0847661 0)
(7.47898 0.0573518 0)
(7.21921 0.0409078 0)
(6.96486 0.0381838 0)
(6.69482 0.043009 0)
(6.40461 0.0479641 0)
(6.10775 0.0527161 0)
(5.78772 0.0611751 0)
(5.46525 0.0709819 0)
(5.07831 0.0970224 0)
(4.69279 0.122546 0)
(10.0758 0.0885052 0)
(10.1916 0.045586 0)
(10.2438 0.0351252 0)
(10.2222 0.0454607 0)
(10.1463 0.0526108 0)
(10.0705 0.0602542 0)
(10.0376 0.0704991 0)
(10.0328 0.0808659 0)
(10.0102 0.0918979 0)
(9.94164 0.104594 0)
(9.83487 0.118353 0)
(9.71513 0.132089 0)
(9.60365 0.14401 0)
(9.51098 0.154231 0)
(9.42373 0.168216 0)
(9.33691 0.188152 0)
(9.2182 0.226054 0)
(9.08394 0.284763 0)
(10.0379 0.0224473 0)
(10.1378 0.0300771 0)
(10.1999 0.0348076 0)
(10.2075 0.0777277 0)
(10.1247 0.127951 0)
(10.0131 0.145038 0)
(9.9601 0.128451 0)
(9.98041 0.103733 0)
(10.0328 0.0934247 0)
(10.0726 0.0999892 0)
(10.0809 0.112461 0)
(10.0623 0.121016 0)
(10.0324 0.121182 0)
(10.0032 0.118789 0)
(9.98088 0.1254 0)
(9.96418 0.15024 0)
(9.95388 0.199663 0)
(9.9487 0.283479 0)
(10.0086 0.0520401 0)
(10.0452 0.0188515 0)
(10.1251 0.0330862 0)
(10.1449 0.0779422 0)
(10.1428 0.111455 0)
(10.1385 0.108605 0)
(10.1252 0.0786868 0)
(10.098 0.0534006 0)
(10.0691 0.0557449 0)
(10.0543 0.0846049 0)
(10.0577 0.12242 0)
(10.0727 0.152583 0)
(10.0882 0.169191 0)
(10.0942 0.177664 0)
(10.0841 0.189114 0)
(10.0635 0.213565 0)
(10.0388 0.255794 0)
(10.0304 0.320915 0)
(9.87194 0.0399963 0)
(9.94368 -0.00709708 0)
(9.98063 0.00490655 0)
(10.0268 0.0647901 0)
(10.0713 0.120681 0)
(10.0853 0.146362 0)
(10.0511 0.142871 0)
(9.97394 0.125872 0)
(9.88737 0.110812 0)
(9.83351 0.104113 0)
(9.83476 0.103288 0)
(9.88422 0.105121 0)
(9.9556 0.11 0)
(10.0185 0.121272 0)
(10.0503 0.144353 0)
(10.0495 0.181526 0)
(10.0231 0.230521 0)
(9.99804 0.287393 0)
(10.1148 0.037805 0)
(9.8193 -0.0216039 0)
(9.63141 0.0218693 0)
(9.68948 0.05832 0)
(9.85281 0.092446 0)
(10.0059 0.111758 0)
(10.0934 0.114761 0)
(10.102 0.111076 0)
(10.0606 0.108376 0)
(10.0164 0.10736 0)
(10.0011 0.10625 0)
(10.0168 0.107035 0)
(10.0479 0.115292 0)
(10.0735 0.136848 0)
(10.0804 0.174018 0)
(10.0661 0.223391 0)
(10.0379 0.277305 0)
(10.01 0.325916 0)
(10.3211 0.0839116 0)
(10.1911 0.120554 0)
(10.1112 0.0439916 0)
(10.1172 0.000171462 0)
(10.1541 0.0162942 0)
(10.1756 0.0619992 0)
(10.1727 0.109561 0)
(10.1517 0.139328 0)
(10.1233 0.14235 0)
(10.094 0.123254 0)
(10.064 0.0966291 0)
(10.0326 0.0784832 0)
(10.0029 0.0803769 0)
(9.98051 0.105974 0)
(9.96889 0.152064 0)
(9.97003 0.209495 0)
(9.98075 0.266705 0)
(10.0027 0.312253 0)
(9.90431 -0.0292139 0)
(10.1079 0.0636511 0)
(10.1464 0.0442468 0)
(10.1233 0.0426859 0)
(10.0947 0.0697091 0)
(10.0515 0.1032 0)
(10.0057 0.124289 0)
(9.97464 0.132411 0)
(9.95588 0.135917 0)
(9.93719 0.139841 0)
(9.91105 0.143795 0)
(9.87834 0.146398 0)
(9.84322 0.149179 0)
(9.81363 0.15765 0)
(9.79173 0.177311 0)
(9.78492 0.209284 0)
(9.78533 0.248184 0)
(9.80041 0.285242 0)
(9.98727 -0.0385124 0)
(10.0739 0.0448581 0)
(10.0602 0.0385169 0)
(9.96477 0.0254579 0)
(9.90087 0.0519038 0)
(9.90381 0.10093 0)
(9.9365 0.141587 0)
(9.96131 0.158753 0)
(9.97449 0.153727 0)
(9.9913 0.135201 0)
(10.0187 0.114552 0)
(10.0452 0.103535 0)
(10.0518 0.109732 0)
(10.0261 0.135732 0)
(9.97402 0.176527 0)
(9.90854 0.224446 0)
(9.84923 0.270126 0)
(9.80349 0.304411 0)
(9.88893 0.000143961 0)
(10.0426 0.028158 0)
(10.113 0.079672 0)
(10.0563 0.100548 0)
(9.9433 0.0885459 0)
(9.85723 0.0807424 0)
(9.84334 0.0953844 0)
(9.89518 0.1168 0)
(9.97812 0.127055 0)
(10.0545 0.125916 0)
(10.0978 0.125694 0)
(10.0997 0.137396 0)
(10.0701 0.16412 0)
(10.0254 0.201026 0)
(9.9862 0.240767 0)
(9.95929 0.276176 0)
(9.9545 0.303124 0)
(9.9608 0.320726 0)
(10.11 -0.0381829 0)
(9.99808 -0.0534831 0)
(9.84977 0.0362576 0)
(9.81182 0.112172 0)
(9.83749 0.15432 0)
(9.84393 0.154778 0)
(9.83292 0.1254 0)
(9.83828 0.0889486 0)
(9.87524 0.0640231 0)
(9.93628 0.0603181 0)
(10.0026 0.0785558 0)
(10.0544 0.112039 0)
(10.08 0.15239 0)
(10.0797 0.191948 0)
(10.0634 0.226852 0)
(10.0421 0.255138 0)
(10.0234 0.276474 0)
(10.01 0.292864 0)
(10.2329 0.0246034 0)
(10.0082 0.164161 0)
(9.97123 0.13497 0)
(9.98958 0.0932065 0)
(10.0344 0.0745331 0)
(10.0932 0.0796567 0)
(10.1366 0.0934718 0)
(10.1288 0.0940373 0)
(10.0639 0.077001 0)
(9.97064 0.059952 0)
(9.8886 0.0641866 0)
(9.84175 0.096397 0)
(9.83458 0.148879 0)
(9.85855 0.206843 0)
(9.90161 0.257478 0)
(9.95112 0.294135 0)
(9.9991 0.316257 0)
(10.0349 0.328639 0)
(10.0109 0.11972 0)
(10.1154 0.103479 0)
(10.1253 0.0486986 0)
(10.0557 0.0787284 0)
(9.98288 0.107568 0)
(9.98739 0.109107 0)
(10.0643 0.113497 0)
(10.1464 0.130981 0)
(10.1797 0.149722 0)
(10.1574 0.157388 0)
(10.1066 0.153521 0)
(10.0598 0.146346 0)
(10.0355 0.144101 0)
(10.0376 0.150962 0)
(10.0565 0.166758 0)
(10.0808 0.189075 0)
(10.0975 0.216726 0)
(10.1015 0.247987 0)
(9.69861 -0.102011 0)
(9.92526 0.0686819 0)
(10.0038 0.154981 0)
(10.0769 0.177131 0)
(10.1187 0.116456 0)
(10.1285 0.0291289 0)
(10.1198 -0.0104673 0)
(10.0973 0.00938833 0)
(10.0632 0.0536177 0)
(10.0217 0.0918432 0)
(9.97801 0.117234 0)
(9.93946 0.137633 0)
(9.91394 0.162114 0)
(9.90757 0.194231 0)
(9.92094 0.232733 0)
(9.94712 0.273281 0)
(9.97821 0.313166 0)
(10.0062 0.34976 0)
(9.77599 -0.104345 0)
(9.82693 -0.108777 0)
(9.90837 -0.0414608 0)
(10.0409 0.019337 0)
(10.1273 0.0646181 0)
(10.135 0.112775 0)
(10.0985 0.163234 0)
(10.0457 0.205671 0)
(9.99077 0.233693 0)
(9.94289 0.244854 0)
(9.90638 0.237073 0)
(9.88301 0.211199 0)
(9.87568 0.175005 0)
(9.88583 0.139238 0)
(9.91199 0.115909 0)
(9.94917 0.112726 0)
(9.99083 0.131207 0)
(10.0325 0.173781 0)
(10.1812 0.0170674 0)
(10.1253 -0.0262085 0)
(10.0219 -0.0162607 0)
(9.96399 0.0217276 0)
(9.92675 0.0396803 0)
(9.92319 0.0401631 0)
(9.96027 0.0473315 0)
(10.0162 0.074456 0)
(10.0717 0.11258 0)
(10.1188 0.142102 0)
(10.1545 0.15322 0)
(10.1742 0.151686 0)
(10.1742 0.149232 0)
(10.1549 0.154866 0)
(10.12 0.17107 0)
(10.08 0.197688 0)
(10.0401 0.232164 0)
(10.0137 0.275039 0)
(10.0945 0.179617 0)
(10.0293 0.0689782 0)
(9.99588 0.102492 0)
(9.96793 0.148509 0)
(9.9403 0.127369 0)
(9.90044 0.0865081 0)
(9.86659 0.0750621 0)
(9.86826 0.0981694 0)
(9.90728 0.135512 0)
(9.96217 0.168321 0)
(10.0084 0.190797 0)
(10.031 0.205659 0)
(10.029 0.216258 0)
(10.0119 0.224253 0)
(9.99054 0.227379 0)
(9.97418 0.228602 0)
(9.96652 0.227424 0)
(9.97084 0.233214 0)
(9.91101 0.131704 0)
(9.89973 0.053364 0)
(9.88858 -0.0208268 0)
(9.93279 0.0185805 0)
(9.97869 0.0944908 0)
(9.98143 0.122668 0)
(9.95797 0.0810625 0)
(9.94154 0.0105864 0)
(9.94761 -0.0341654 0)
(9.9739 -0.0266127 0)
(10.0083 0.0248323 0)
(10.0385 0.0946018 0)
(10.0589 0.158228 0)
(10.072 0.202559 0)
(10.0815 0.225469 0)
(10.0898 0.233698 0)
(10.0978 0.235361 0)
(10.1039 0.239379 0)
(10.0603 -0.00618214 0)
(10.0664 0.0275964 0)
(10.09 0.0718223 0)
(10.0821 0.08228 0)
(10.0889 0.0979267 0)
(10.1096 0.131527 0)
(10.1157 0.150592 0)
(10.1042 0.138788 0)
(10.0878 0.112842 0)
(10.0796 0.0991453 0)
(10.0855 0.10956 0)
(10.1038 0.137678 0)
(10.1281 0.167826 0)
(10.1516 0.187471 0)
(10.1707 0.194003 0)
(10.1844 0.19357 0)
(10.1941 0.194129 0)
(10.2019 0.204899 0)
(9.95173 -0.12832 0)
(10.0115 0.011759 0)
(10.0989 0.00968588 0)
(10.1639 0.0114393 0)
(10.174 0.0413866 0)
(10.1554 0.0719909 0)
(10.1461 0.0793834 0)
(10.1482 0.0556362 0)
(10.148 0.0136987 0)
(10.1447 -0.0198851 0)
(10.1469 -0.0239902 0)
(10.1587 0.00387628 0)
(10.1766 0.0517709 0)
(10.1955 0.103399 0)
(10.2112 0.145939 0)
(10.2224 0.174768 0)
(10.2282 0.189931 0)
(10.2319 0.196787 0)
(10.0138 0.147142 0)
(10.0031 -0.134504 0)
(9.99762 -0.135423 0)
(10.1035 -0.00191618 0)
(10.2008 0.0972445 0)
(10.2172 0.14592 0)
(10.1743 0.156996 0)
(10.1168 0.139735 0)
(10.0746 0.107516 0)
(10.0624 0.0781355 0)
(10.0781 0.0652384 0)
(10.1094 0.0730105 0)
(10.144 0.0941082 0)
(10.1733 0.119712 0)
(10.1931 0.142898 0)
(10.2035 0.161601 0)
(10.2061 0.175907 0)
(10.2059 0.188077 0)
(10.2374 0.151419 0)
(10.1056 -0.0615546 0)
(10.0006 -0.146534 0)
(9.96437 -0.143243 0)
(10.0047 -0.0468513 0)
(10.0594 0.0878577 0)
(10.0916 0.174827 0)
(10.1131 0.165465 0)
(10.1338 0.0806937 0)
(10.1528 -0.0181275 0)
(10.1713 -0.0790037 0)
(10.1902 -0.0832848 0)
(10.2077 -0.0403876 0)
(10.224 0.0276603 0)
(10.2386 0.0970221 0)
(10.2511 0.152302 0)
(10.2632 0.186545 0)
(10.2755 0.197969 0)
(10.1556 0.0154671 0)
(10.1261 0.0614459 0)
(10.1662 -0.0220922 0)
(10.1453 -0.0618759 0)
(10.071 -0.00542504 0)
(10.0374 0.0805079 0)
(10.0802 0.130106 0)
(10.159 0.120797 0)
(10.2143 0.0758937 0)
(10.2151 0.0320467 0)
(10.1678 0.0110784 0)
(10.1064 0.0152387 0)
(10.0662 0.0384348 0)
(10.0625 0.070214 0)
(10.0931 0.100826 0)
(10.145 0.12404 0)
(10.2057 0.137725 0)
(10.2631 0.143021 0)
(9.84723 -0.000637179 0)
(9.94185 -0.0821244 0)
(9.98875 -0.116576 0)
(9.93919 -0.0381059 0)
(9.87514 0.0441261 0)
(9.86996 0.0650433 0)
(9.92209 0.0435438 0)
(10.0056 0.021693 0)
(10.1031 0.0183509 0)
(10.1981 0.0265856 0)
(10.2747 0.0326385 0)
(10.3239 0.0288391 0)
(10.3459 0.0167738 0)
(10.3471 0.00593221 0)
(10.3374 0.00519426 0)
(10.3273 0.0165799 0)
(10.3234 0.0362846 0)
(10.3308 0.0582026 0)
(10.0161 -0.000532318 0)
(10.0541 -0.0979447 0)
(10.0157 -0.0537997 0)
(9.98381 0.00625796 0)
(9.98575 0.0532675 0)
(9.9916 0.0668365 0)
(9.98303 0.0359912 0)
(9.97564 -0.0219294 0)
(9.99778 -0.0748126 0)
(10.0649 -0.0992229 0)
(10.1665 -0.0875393 0)
(10.2741 -0.0458664 0)
(10.3608 0.0101768 0)
(10.4115 0.0640158 0)
(10.4263 0.101695 0)
(10.4169 0.118416 0)
(10.3974 0.114772 0)
(10.3824 0.0964933 0)
(10.0981 -0.0167771 0)
(10.1161 -0.047702 0)
(10.0599 -0.0472982 0)
(10.0144 -0.0157945 0)
(10.0392 0.0275395 0)
(10.1302 0.0542704 0)
(10.241 0.0437184 0)
(10.319 -0.00389147 0)
(10.332 -0.0661248 0)
(10.2805 -0.115824 0)
(10.1962 -0.1389 0)
(10.1202 -0.129708 0)
(10.0794 -0.0912775 0)
(10.0798 -0.0352313 0)
(10.1128 0.0205475 0)
(10.1649 0.063078 0)
(10.2263 0.0861002 0)
(10.2874 0.0900836 0)
(10.0427 -0.0874624 0)
(10.1283 -0.0764978 0)
(10.1473 -0.00983992 0)
(10.167 0.00696033 0)
(10.2151 -0.00430155 0)
(10.2745 -0.0296822 0)
(10.3209 -0.0558496 0)
(10.3499 -0.0615976 0)
(10.372 -0.0442066 0)
(10.3845 -0.017165 0)
(10.3722 0.00545508 0)
(10.3314 0.0178845 0)
(10.2775 0.0228659 0)
(10.2329 0.0238187 0)
(10.2138 0.0213188 0)
(10.2228 0.0149343 0)
(10.2549 0.00345911 0)
(10.2997 -0.010027 0)
(10.0543 -0.0657724 0)
(9.95787 -0.0790332 0)
(10.0374 -0.0415658 0)
(10.1486 -0.0381891 0)
(10.2461 -0.0278327 0)
(10.2907 -0.0102889 0)
(10.2609 -0.0159351 0)
(10.1841 -0.0488393 0)
(10.1082 -0.0839354 0)
(10.0643 -0.0976284 0)
(10.0595 -0.0836195 0)
(10.0881 -0.0511629 0)
(10.1403 -0.0147349 0)
(10.2057 0.013685 0)
(10.2759 0.0284978 0)
(10.3435 0.0303246 0)
(10.4044 0.0222872 0)
(10.4534 0.0100842 0)
(10.1621 0.00124727 0)
(10.1645 -0.0658904 0)
(10.0876 -0.0885053 0)
(9.99672 -0.0842037 0)
(9.98292 -0.0584501 0)
(10.0425 -0.0236365 0)
(10.1298 0.00255162 0)
(10.1965 0.0104704 0)
(10.2166 0.0034407 0)
(10.1937 -0.0102013 0)
(10.154 -0.0250286 0)
(10.1284 -0.0381013 0)
(10.1336 -0.0479659 0)
(10.1685 -0.0547381 0)
(10.2208 -0.0593523 0)
(10.2768 -0.0627756 0)
(10.3249 -0.0657959 0)
(10.3584 -0.0674483 0)
(9.75526 -0.0317102 0)
(9.67932 -0.000297382 0)
(9.63351 0.0238551 0)
(9.4817 -0.0191366 0)
(9.28531 -0.0564027 0)
(9.12424 -0.0703513 0)
(9.0037 -0.0749855 0)
(8.89898 -0.0745093 0)
(8.80082 -0.0665137 0)
(8.70881 -0.0532818 0)
(8.61972 -0.041263 0)
(8.52976 -0.0346845 0)
(8.43586 -0.0331519 0)
(8.3382 -0.0339103 0)
(8.23712 -0.0342229 0)
(8.138 -0.0331237 0)
(8.04063 -0.0304523 0)
(7.95185 -0.0266708 0)
(-0.189466 0.623154 2.00712e-20)
(-0.603567 0.13299 -1.99031e-20)
(-0.465419 -0.306862 0)
(-0.0276195 -0.609064 0)
(0.635108 -0.766753 0)
(1.33492 -0.81316 1.93245e-20)
(2.02612 -0.78259 0)
(2.68406 -0.708293 0)
(3.27596 -0.60909 0)
(3.78557 -0.500417 0)
(4.20852 -0.402531 -1.75679e-20)
(4.55018 -0.309047 0)
(4.80995 -0.192058 0)
(4.97452 -0.0871964 0)
(5.06584 0.00656107 0)
(5.06038 0.130952 -1.62489e-20)
(4.95509 0.212639 0)
(4.76328 0.327347 0)
(4.43557 0.495545 0)
(4.01997 0.525328 0)
(3.51536 0.679921 0)
(2.82264 0.886445 0)
(2.1179 0.591387 0)
(1.59967 0.113169 -1.5624e-20)
(1.25771 -0.13244 1.5514e-20)
(1.0797 -0.255353 -1.54035e-20)
(1.07252 -0.299944 -1.52926e-20)
(1.19298 -0.204353 0)
(1.36112 -0.05908 0)
(1.46057 -0.0149309 1.49645e-20)
(1.43025 0.0206905 1.48439e-20)
(1.35282 0.0458442 0)
(1.31224 -0.0802084 0)
(1.25586 -0.132383 1.44729e-20)
(1.07496 0.0456901 0)
(0.794723 0.217787 0)
(0.479453 0.232978 -1.41546e-20)
(0.151938 0.211166 0)
(-0.223226 0.257357 -1.39276e-20)
(-0.677564 0.312327 -2.75443e-20)
(-1.22892 0.395051 0)
(-1.91998 0.538148 0)
(-2.77066 0.682047 0)
(-3.70974 0.689941 0)
(-4.57134 0.524654 0)
(-5.26724 0.352691 -2.40714e-20)
(-5.85852 0.302164 -2.32318e-20)
(-6.41004 0.312878 -2.24098e-20)
(-6.91216 0.293398 0)
(-7.33802 0.238505 2.09006e-20)
(-7.68247 0.179357 0)
(-7.9525 0.130556 -1.96843e-20)
(-8.15523 0.0901636 -1.92113e-20)
(-8.29538 0.0526962 0)
(-8.37577 0.0162969 0)
(-8.39869 -0.0175076 0)
(-8.36848 -0.0478459 -1.82776e-20)
(-8.29025 -0.0766338 0)
(-8.16015 -0.106868 0)
(-7.9755 -0.138983 0)
(-7.73234 -0.173894 0)
(-7.42449 -0.213315 0)
(-7.04394 -0.259061 0)
(-6.57988 -0.3122 0)
(-6.01918 -0.373381 0)
(-5.34679 -0.442792 2.07223e-20)
(-4.54803 -0.518799 0)
(-3.61308 -0.596843 0)
(-2.54302 -0.668111 -2.13737e-20)
(-1.35754 -0.718998 -2.11656e-20)
(-0.101609 -0.732666 0)
(1.14982 -0.691333 1.97669e-20)
(2.31311 -0.590909 -1.86997e-20)
(3.2817 -0.426959 0)
(3.95501 -0.221312 1.67683e-20)
(4.26202 0.00483164 0)
(4.17061 0.243428 0)
(3.6453 0.461408 -1.64945e-20)
(2.7272 0.618469 0)
(1.56512 0.685013 1.76857e-20)
(0.361102 0.64946 0)
(-0.771082 0.288962 -1.81932e-20)
(-1.14879 -0.2785 -1.81593e-20)
(-0.818894 -0.725439 -1.81121e-20)
(-0.110838 -0.989741 -3.5892e-20)
(-0.510834 -1.23371 3.54383e-20)
(-1.62461 0.99682 0)
(-5.01695 1.78937 0)
(-7.13693 1.08605 0)
(-8.72637 0.984575 2.98644e-20)
(-10.1527 0.673838 2.71392e-20)
(-11.0648 0.527315 -2.4664e-20)
(-11.8826 0.366644 0)
(-12.3768 0.256867 2.09271e-20)
(-12.7657 0.159139 1.97458e-20)
(-12.9449 0.0794121 1.90234e-20)
(-13.0147 0.0126517 0)
(-12.9384 -0.0444099 0)
(-12.7786 -0.0926996 0)
(-12.508 -0.136172 2.01843e-20)
(-12.1593 -0.173269 0)
(-11.7251 -0.206605 0)
(-11.2239 -0.234401 -2.39864e-20)
(-10.6585 -0.257876 0)
(-10.0427 -0.275706 0)
(-9.3855 -0.288208 -2.85237e-20)
(-8.70069 -0.294649 0)
(-8.00051 -0.295424 0)
(-7.29848 -0.290679 3.22326e-20)
(-6.60644 -0.281245 3.31022e-20)
(-5.93446 -0.268024 0)
(-5.29029 -0.252262 -3.42371e-20)
(-4.67932 -0.23505 0)
(-4.10475 -0.217315 3.46561e-20)
(-3.56719 -0.200007 0)
(-3.06581 -0.183679 3.45419e-20)
(-2.59844 -0.16875 3.43449e-20)
(-2.16241 -0.155189 0)
(-1.75427 -0.143191 0)
(-1.3706 -0.132625 0)
(-1.00935 -0.122893 0)
(-0.667753 -0.114262 0)
(-0.345036 -0.105491 0)
(-0.0404927 -0.0988949 0)
(0.249126 -0.093649 3.14219e-20)
(0.528343 -0.0898055 -3.0995e-20)
(0.805441 -0.089015 0)
(1.08775 -0.0904349 0)
(1.3805 -0.0924168 0)
(1.68375 -0.0934085 0)
(1.9925 -0.0925639 -5.82544e-20)
(2.299 -0.0901617 0)
(2.59665 -0.087486 5.69335e-20)
(2.88325 -0.0860864 -5.62694e-20)
(3.16192 -0.0869613 0)
(3.43969 -0.090241 0)
(3.72519 -0.0957456 0)
(4.02672 -0.103084 5.34574e-20)
(4.3512 -0.111679 5.26812e-20)
(4.7041 -0.121084 0)
(5.08952 -0.130795 5.09676e-20)
(5.50976 -0.139625 5.00044e-20)
(5.96427 -0.146853 -4.89524e-20)
(6.44939 -0.15267 0)
(6.95864 -0.153289 0)
(7.47671 -0.148588 -4.51814e-20)
(7.98956 -0.144489 0)
(8.48853 -0.127648 0)
(8.93355 -0.105743 0)
(9.32656 -0.0884673 0)
(9.64573 -0.0473755 3.77639e-20)
(9.83961 -0.02577 3.64873e-20)
(9.98135 0.0237699 0)
(9.87146 0.0858122 3.46017e-20)
(9.67273 0.111914 0)
(9.2815 0.27527 0)
(8.35228 0.26888 3.38901e-20)
(7.78213 0.476212 0)
(5.76971 1.08219 3.4502e-20)
(2.35615 0.583939 0)
(0.489212 -0.231621 0)
(-0.360666 -0.107368 2.80052e-20)
(-0.842111 0.158189 0)
(-1.23084 0.195059 2.51022e-20)
(-1.29415 0.0473521 0)
(-1.02706 -0.0240143 0)
(-0.676181 -0.010106 0)
(-0.427916 -0.00583403 -2.70441e-20)
(-0.303061 -0.0254893 0)
(-0.221151 -0.0415704 2.72118e-20)
(-0.117649 -0.0448381 0)
(0.0102976 -0.0362706 0)
(0.0909545 -0.0166269 0)
(0.0710188 0.0121202 0)
(-0.0684191 0.0318275 0)
(-0.252102 0.0449202 0)
(-0.398242 0.0417743 0)
(-0.456564 0.0215997 -4.65416e-20)
(-0.319055 0.0444138 0)
(-0.414633 -0.0597549 0)
(-0.0420998 0.880978 -5.99572e-20)
(-0.0162801 0.490031 5.95703e-20)
(0.646882 -0.874727 0)
(1.34061 -1.76242 -3.88126e-20)
(2.00681 -2.14881 0)
(2.60464 -2.22085 -1.92118e-20)
(3.1373 -2.10977 3.7109e-20)
(3.60517 -1.90646 3.64355e-20)
(4.00853 -1.66306 0)
(4.35166 -1.40657 3.50665e-20)
(4.63788 -1.15212 1.75311e-20)
(4.86762 -0.90299 0)
(5.04293 -0.655018 0)
(5.17554 -0.413833 0)
(5.2508 -0.176146 0)
(5.28227 0.0738867 1.62372e-20)
(5.26993 0.318991 0)
(5.19857 0.573959 -3.14628e-20)
(5.06915 0.843126 0)
(4.89264 1.07836 0)
(4.64054 1.30964 3.1154e-20)
(4.3359 1.48588 0)
(4.02381 1.53105 -3.10016e-20)
(3.57111 1.42581 1.5527e-20)
(2.99577 1.07901 -1.54285e-20)
(2.4991 0.604963 1.53359e-20)
(2.1557 0.104912 1.52455e-20)
(1.96972 -0.325349 0)
(1.92422 -0.433476 0)
(1.87441 -0.116559 -1.49461e-20)
(1.75376 0.174986 1.48088e-20)
(1.59639 0.139947 0)
(1.27955 0.254359 0)
(0.860158 0.559805 -1.44893e-20)
(0.475445 0.715162 0)
(0.117434 0.770816 0)
(-0.302323 0.833481 1.41585e-20)
(-0.805707 0.938081 0)
(-1.38994 1.09124 -1.36793e-20)
(-2.0784 1.30608 2.7418e-20)
(-2.86495 1.59116 0)
(-3.68859 1.86274 0)
(-4.45796 1.97909 5.13543e-20)
(-5.14036 1.88188 5.00511e-20)
(-5.76604 1.66765 4.85724e-20)
(-6.35921 1.47636 -2.29952e-20)
(-6.90157 1.33223 2.31564e-20)
(-7.35233 1.18019 6.61276e-20)
(-7.7053 1.00325 -4.22902e-20)
(-7.98298 0.824263 -2.086e-20)
(-8.20046 0.658523 0)
(-8.36247 0.506824 1.96614e-20)
(-8.47217 0.367213 -1.85559e-20)
(-8.53375 0.238412 0)
(-8.55094 0.118775 0)
(-8.52521 0.00574248 0)
(-8.45495 -0.10225 1.82725e-20)
(-8.3357 -0.208076 0)
(-8.16903 -0.315157 -3.62404e-20)
(-7.95258 -0.426777 0)
(-7.68226 -0.546267 -3.70748e-20)
(-7.35252 -0.677268 0)
(-6.95542 -0.823458 3.84119e-20)
(-6.48065 -0.988658 0)
(-5.91453 -1.17618 -4.00212e-20)
(-5.24071 -1.38775 2.00994e-20)
(-4.44243 -1.62118 0)
(-3.50694 -1.86633 4.18278e-20)
(-2.43385 -2.09965 2.13345e-20)
(-1.24482 -2.2794 2.11227e-20)
(0.00764818 -2.34824 0)
(1.23877 -2.24796 1.82508e-20)
(2.36217 -1.96253 1.86631e-20)
(3.28218 -1.48492 0)
(3.9356 -0.863527 -1.67552e-20)
(4.26706 -0.153831 3.08038e-20)
(4.24784 0.557773 0)
(3.84932 1.17588 1.64678e-20)
(3.10926 1.59841 0)
(2.14171 1.79556 -5.22166e-20)
(1.17502 1.74802 0)
(0.243831 1.27301 5.46238e-20)
(-0.19399 0.392339 1.81877e-20)
(-0.527523 -0.526803 -1.83145e-20)
(-2.0988 0.754337 -3.58541e-20)
(-5.36102 2.97802 3.40485e-20)
(-6.88473 3.49235 0)
(-8.61577 3.21065 0)
(-9.54259 2.47668 0)
(-10.3961 2.03467 -8.55735e-20)
(-11.0547 1.51523 -2.70623e-20)
(-11.5392 1.16761 2.46211e-20)
(-11.9592 0.838363 0)
(-12.22 0.58068 1.92593e-20)
(-12.4238 0.349176 -1.97504e-20)
(-12.4958 0.150107 -1.90345e-20)
(-12.5019 -0.0267096 0)
(-12.3971 -0.184244 0)
(-12.2015 -0.324243 0)
(-11.9123 -0.450003 -2.01931e-20)
(-11.5426 -0.560671 0)
(-11.095 -0.658421 4.44826e-20)
(-10.5807 -0.741851 7.14058e-20)
(-10.0052 -0.811531 -5.05111e-20)
(-9.38053 -0.865556 0)
(-8.71593 -0.90324 -2.81732e-20)
(-8.02545 -0.923192 0)
(-7.32122 -0.92562 -6.21077e-20)
(-6.61746 -0.911341 3.20634e-20)
(-5.92568 -0.882581 3.2972e-20)
(-5.25633 -0.842366 0)
(-4.61649 -0.794495 1.02629e-19)
(-4.01127 -0.74257 -6.89747e-20)
(-3.44348 -0.689446 -3.46626e-20)
(-2.91328 -0.637937 0)
(-2.4193 -0.589696 -3.45509e-20)
(-1.95929 -0.545938 -1.02972e-19)
(-1.53068 -0.506335 0)
(-1.12987 -0.471501 -6.74702e-20)
(-0.753385 -0.441472 -6.67789e-20)
(-0.399996 -0.41369 -6.60401e-20)
(-0.065353 -0.388842 0)
(0.24886 -0.366601 0)
(0.542624 -0.34491 0)
(0.821881 -0.327604 3.13151e-20)
(1.09073 -0.316916 3.09659e-20)
(1.35823 -0.31588 0)
(1.63465 -0.322872 6.02293e-20)
(1.92831 -0.332595 5.94865e-20)
(2.24166 -0.338735 0)
(2.57031 -0.33703 5.81976e-20)
(2.90488 -0.32717 1.14933e-19)
(3.23503 -0.31268 -5.6876e-20)
(3.55375 -0.298977 -5.61134e-20)
(3.86 -0.290858 0)
(4.15821 -0.290856 0)
(4.45621 -0.299416 0)
(4.76297 -0.315614 -5.33998e-20)
(5.08703 -0.33794 5.25715e-20)
(5.43588 -0.364814 1.0354e-19)
(5.81525 -0.394439 -5.09101e-20)
(6.22846 -0.424752 4.98693e-20)
(6.67741 -0.452646 4.88954e-20)
(7.15935 -0.474305 0)
(7.66353 -0.486986 0)
(8.1845 -0.486254 -4.49708e-20)
(8.70518 -0.471469 0)
(9.20087 -0.440975 0)
(9.67482 -0.391147 8.10712e-20)
(10.0854 -0.331438 0)
(10.4392 -0.250941 3.74721e-20)
(10.7032 -0.160583 -3.64535e-20)
(10.8623 -0.051008 0)
(10.9576 0.0908066 3.41379e-20)
(10.8698 0.21154 0)
(10.807 0.418112 0)
(10.4096 0.624922 -3.38073e-20)
(10.0418 0.878558 6.65371e-20)
(9.47194 1.56 -3.43284e-20)
(8.1992 2.08648 0)
(6.58355 1.71997 0)
(3.84473 0.859099 2.75883e-20)
(1.60984 0.302804 0)
(0.731213 0.0656785 2.46826e-20)
(0.461529 -0.170801 0)
(0.546944 -0.331146 0)
(0.844842 -0.315444 0)
(1.19607 -0.189439 2.70225e-20)
(1.43811 -0.0757939 0)
(1.52652 -0.045635 -2.71817e-20)
(1.54703 -0.0659899 0)
(1.5637 -0.0681596 0)
(1.56149 -0.0159214 5.27126e-20)
(1.4574 0.065521 -5.15439e-20)
(1.23224 0.117186 0)
(0.968175 0.112423 0)
(0.815068 0.0620738 0)
(0.807486 -0.0497123 1.39404e-19)
(1.03253 -0.0771052 0)
(1.28707 -0.150992 -9.156e-20)
(-0.119848 0.856667 -1.07449e-23)
(0.709208 -1.21438 -7.90142e-20)
(1.57962 -2.82036 0)
(2.22357 -3.44789 7.67884e-20)
(2.64684 -3.47676 0)
(2.94167 -3.2308 0)
(3.16931 -2.87622 -7.97256e-22)
(3.35705 -2.49249 -3.64317e-20)
(3.5194 -2.11532 -3.50368e-20)
(3.66864 -1.75765 -3.51133e-20)
(3.80646 -1.42778 0)
(3.9375 -1.1122 0)
(4.05671 -0.80176 3.2822e-20)
(4.15063 -0.507697 6.47385e-20)
(4.22584 -0.212371 -6.39365e-20)
(4.27115 0.0966413 0)
(4.27583 0.39408 -6.26387e-20)
(4.26603 0.701552 3.15283e-20)
(4.23845 1.03857 0)
(4.1566 1.3355 -6.15586e-20)
(4.02036 1.60565 -3.11756e-20)
(3.87917 1.92011 6.14153e-20)
(3.75156 2.13583 3.09906e-20)
(3.56545 2.04289 0)
(3.22441 1.74577 -6.15238e-20)
(2.80556 1.31159 -6.1433e-20)
(2.50123 0.669682 0)
(2.25587 0.169477 -6.07901e-20)
(1.93844 0.124247 0)
(1.62525 0.300677 -5.97941e-20)
(1.3215 0.50858 -2.96627e-20)
(0.91008 0.815532 0)
(0.502773 1.05124 0)
(0.175494 1.14046 0)
(-0.159731 1.24186 0)
(-0.569213 1.40266 0)
(-1.09102 1.61403 0)
(-1.72969 1.88272 -5.47968e-20)
(-2.47538 2.19816 8.14428e-20)
(-3.2891 2.52889 0)
(-4.09543 2.80939 0)
(-4.81861 2.95077 0)
(-5.42927 2.89752 -1.41495e-21)
(-5.96256 2.68172 -4.98964e-20)
(-6.46549 2.40262 -9.54061e-20)
(-6.92942 2.12542 9.23199e-20)
(-7.31572 1.84386 4.39222e-20)
(-7.61512 1.54929 -4.37264e-20)
(-7.84926 1.26459 1.19144e-21)
(-8.03658 1.00737 -3.97865e-20)
(-8.18262 0.775215 0)
(-8.28892 0.562517 -3.76494e-20)
(-8.35667 0.36753 9.34662e-22)
(-8.38686 0.188509 0)
(-8.38114 0.0219113 0)
(-8.33893 -0.136519 3.53728e-20)
(-8.25861 -0.290358 0)
(-8.14014 -0.443599 0)
(-7.98184 -0.599949 -3.46776e-20)
(-7.78117 -0.764123 -7.16018e-20)
(-7.53411 -0.94132 3.70645e-20)
(-7.23499 -1.13715 0)
(-6.8761 -1.35843 -3.83871e-20)
(-6.44705 -1.61289 0)
(-5.93468 -1.9084 -3.81599e-20)
(-5.32348 -2.25056 -4.07392e-20)
(-4.59811 -2.63805 8.06029e-20)
(-3.7489 -3.05456 3.93617e-20)
(-2.78039 -3.45718 0)
(-1.72163 -3.76646 -7.90879e-20)
(-0.626982 -3.87755 0)
(0.424312 -3.71089 -1.09906e-19)
(1.37288 -3.23619 -6.71958e-20)
(2.15953 -2.47555 -6.27847e-20)
(2.75018 -1.49631 5.92672e-20)
(3.10567 -0.367524 -8.82571e-20)
(3.18735 0.778006 0)
(2.91462 1.77372 0)
(2.31821 2.42339 6.35116e-20)
(1.47846 2.72586 1.01859e-19)
(0.671879 2.66172 0)
(-0.263326 2.02026 -3.63998e-20)
(-0.887541 0.74086 0)
(-2.61204 1.52184 1.08387e-19)
(-5.37312 3.77393 1.15329e-21)
(-7.41786 4.70891 -1.87909e-21)
(-8.15685 4.54933 -6.35934e-20)
(-8.83415 3.9447 0)
(-9.21896 3.18475 5.61511e-20)
(-9.73761 2.58949 3.76779e-21)
(-10.1822 2.00296 0)
(-10.6152 1.56166 0)
(-10.9846 1.14711 0)
(-11.2541 0.79955 -4.02252e-20)
(-11.4422 0.476346 0)
(-11.5125 0.186676 0)
(-11.4976 -0.0809583 0)
(-11.3747 -0.327034 0)
(-11.1681 -0.551063 0)
(-10.8689 -0.753892 -3.84484e-20)
(-10.4948 -0.934468 0)
(-10.044 -1.0939 -4.45171e-20)
(-9.52958 -1.23098 -4.74475e-20)
(-8.95465 -1.3456 5.05414e-20)
(-8.33141 -1.43507 0)
(-7.66875 -1.4974 5.6725e-20)
(-6.98131 -1.53017 0)
(-6.28247 -1.53318 6.21343e-20)
(-5.58714 -1.50778 -6.43238e-20)
(-4.90831 -1.4578 -1.9785e-19)
(-4.25647 -1.38858 0)
(-3.63878 -1.30666 -2.04913e-19)
(-3.05865 -1.21833 -6.86746e-20)
(-2.51845 -1.1282 0)
(-2.01666 -1.04112 -1.38199e-19)
(-1.55072 -0.959002 -1.3775e-19)
(-1.11738 -0.884853 2.05614e-19)
(-0.71382 -0.817519 0)
(-0.336775 -0.758405 6.75048e-20)
(0.0173448 -0.707255 6.67982e-20)
(0.350099 -0.660968 1.97747e-19)
(0.662204 -0.618507 0)
(0.951866 -0.579325 0)
(1.21597 -0.54188 0)
(1.45407 -0.512172 6.2394e-20)
(1.67091 -0.496523 0)
(1.8782 -0.499108 0)
(2.09159 -0.517676 -6.0179e-20)
(2.32516 -0.543343 -5.94395e-20)
(2.58654 -0.564424 0)
(2.87527 -0.571949 0)
(3.18439 -0.563293 -1.14853e-19)
(3.50386 -0.542547 0)
(3.82436 -0.518077 1.12251e-19)
(4.14051 -0.498905 1.10775e-19)
(4.45213 -0.491593 0)
(4.76354 -0.498774 0)
(5.08204 -0.519889 -1.06587e-19)
(5.41604 -0.552818 -8.01705e-23)
(5.77349 -0.595007 -8.36149e-23)
(6.16092 -0.643257 0)
(6.58257 -0.693553 -1.99351e-19)
(7.03798 -0.740799 0)
(7.52337 -0.777589 0)
(8.03032 -0.798103 0)
(8.54297 -0.797578 9.00199e-20)
(9.05074 -0.771994 0)
(9.53474 -0.722255 -1.67495e-19)
(9.98139 -0.642687 -8.10127e-20)
(10.3804 -0.545171 0)
(10.7067 -0.421605 -7.51579e-20)
(10.9657 -0.270896 0)
(11.1283 -0.119661 0)
(11.2131 0.0885315 -2.04812e-19)
(11.1699 0.268531 1.33391e-19)
(11.0407 0.511565 0)
(10.8232 0.818128 1.30597e-19)
(10.5081 1.0934 -6.64743e-20)
(10.2488 1.73714 0)
(10.0992 2.38116 0)
(9.75985 2.43938 0)
(8.54081 2.16439 -1.64204e-19)
(6.78683 1.63977 0)
(5.26858 0.859636 -4.95395e-20)
(4.09808 0.169428 0)
(3.24213 -0.238242 0)
(2.74336 -0.384457 0)
(2.55813 -0.33226 0)
(2.58209 -0.190067 0)
(2.65083 -0.0785785 0)
(2.65238 -0.0557046 -1.08289e-19)
(2.53991 -0.0533638 0)
(2.33138 0.0230756 -5.26731e-20)
(2.01817 0.162015 1.54578e-19)
(1.61794 0.260365 0)
(1.22893 0.245085 0)
(1.00948 0.122283 -9.42448e-20)
(0.988722 -0.0761313 -9.28564e-20)
(1.21333 -0.20486 9.18597e-20)
(1.52427 -0.323372 9.15219e-20)
(0.360741 -0.300034 1.19563e-19)
(1.30729 -3.20097 1.17481e-19)
(1.88702 -4.18548 7.65782e-20)
(2.13058 -4.0627 3.70751e-20)
(2.19544 -3.65632 0)
(2.23782 -3.24149 -7.27488e-20)
(2.29181 -2.85292 3.52189e-20)
(2.34992 -2.49388 0)
(2.41635 -2.16321 3.51397e-20)
(2.49455 -1.85344 0)
(2.57833 -1.55917 -6.72125e-20)
(2.66639 -1.25851 0)
(2.74952 -0.946841 -3.29374e-20)
(2.81557 -0.636512 -6.49715e-20)
(2.87776 -0.30523 6.41703e-20)
(2.93683 0.0467294 0)
(2.96987 0.393259 6.28752e-20)
(2.99398 0.755926 0)
(3.03408 1.1509 0)
(3.04895 1.52154 6.17441e-20)
(3.01061 1.81178 0)
(2.95259 1.99428 -5.34699e-22)
(2.88981 2.09945 0)
(2.72697 2.25304 0)
(2.44242 2.30194 2.6655e-22)
(2.23346 1.83967 6.14898e-20)
(2.09824 1.08113 6.11031e-20)
(1.83668 0.641995 6.08186e-20)
(1.4333 0.676555 0)
(0.963216 0.990276 1.19574e-19)
(0.490817 1.31943 0)
(0.10213 1.46738 5.84987e-20)
(-0.2305 1.52467 0)
(-0.627537 1.67915 0)
(-1.12169 1.94769 -5.60619e-20)
(-1.72568 2.30211 0)
(-2.42761 2.71159 5.43275e-20)
(-3.19039 3.1293 1.0969e-21)
(-3.96816 3.50282 -1.06187e-19)
(-4.70272 3.77574 1.02843e-19)
(-5.34076 3.89825 0)
(-5.85869 3.84623 0)
(-6.27567 3.63855 4.60533e-20)
(-6.63113 3.33046 0)
(-6.94707 2.97958 4.68745e-20)
(-7.21951 2.61597 -4.5382e-20)
(-7.44923 2.25099 -4.38811e-20)
(-7.65223 1.89923 0)
(-7.8399 1.57376 4.10456e-20)
(-8.0108 1.27509 3.97754e-20)
(-8.16 0.998402 -7.45358e-20)
(-8.28364 0.741194 3.76428e-20)
(-8.37827 0.501232 3.68141e-20)
(-8.44107 0.274207 0)
(-8.4697 0.0571278 0)
(-8.46099 -0.149499 -3.53607e-20)
(-8.41366 -0.354069 0)
(-8.32826 -0.559742 0)
(-8.20276 -0.771199 7.08634e-20)
(-8.03482 -0.993553 7.15364e-20)
(-7.8212 -1.23342 0)
(-7.55735 -1.49917 0)
(-7.2374 -1.80059 0)
(-6.85434 -2.14836 0)
(-6.40053 -2.55215 7.79874e-20)
(-5.86883 -3.01708 -7.66663e-20)
(-5.25505 -3.53715 -8.0395e-20)
(-4.5612 -4.0843 -1.58687e-19)
(-3.79936 -4.59186 0)
(-3.00241 -4.9451 3.31189e-21)
(-2.22467 -5.00949 0)
(-1.49012 -4.70265 7.17308e-20)
(-0.798067 -4.0345 2.98776e-21)
(-0.187443 -3.10735 6.29286e-20)
(0.326007 -1.95279 -5.94753e-20)
(0.713383 -0.589781 2.51549e-21)
(0.918609 0.881688 0)
(0.885551 2.19304 -5.78626e-20)
(0.543326 3.08612 -6.36547e-20)
(-0.0378302 3.50607 -1.3307e-19)
(-0.638546 3.48714 0)
(-1.32268 2.80318 7.09906e-20)
(-2.43313 2.4915 0)
(-4.74196 4.14763 -1.41492e-19)
(-6.75235 5.62145 6.95007e-20)
(-7.57358 5.5445 -6.66677e-20)
(-7.82547 5.00078 6.35661e-20)
(-8.20719 4.32832 1.12814e-19)
(-8.52368 3.63262 -5.61707e-20)
(-8.95327 3.02738 5.2096e-20)
(-9.34248 2.4385 0)
(-9.72308 1.93224 -8.26281e-20)
(-10.0376 1.44479 0)
(-10.2726 1.00578 -7.15758e-20)
(-10.4234 0.588122 6.81608e-20)
(-10.4731 0.202187 6.63522e-20)
(-10.4362 -0.158734 -6.61037e-20)
(-10.3011 -0.49183 -6.73699e-20)
(-10.0822 -0.796997 0)
(-9.77634 -1.0739 -3.54961e-20)
(-9.39633 -1.32132 0)
(-8.94354 -1.54011 0)
(-8.42771 -1.72906 -9.09753e-20)
(-7.85252 -1.88753 0)
(-7.22738 -2.01181 0)
(-6.56201 -2.09787 -1.10905e-19)
(-5.8707 -2.14184 0)