/*--------------------------------*- C++ -*----------------------------------*\
  =========                 |
  \\      /  F ield         | OpenFOAM: The Open Source CFD Toolbox
   \\    /   O peration     | Website:  https://openfoam.org
    \\  /    A nd           | Version:  9
     \\/     M anipulation  |
\*---------------------------------------------------------------------------*/
FoamFile
{
    format      ascii;
    class       volVectorField;
    location    "0.064";
    object      UMean;
}
// * * * * * * * * * * * * * * * * * * * * * * * * * * * * * * * * * * * * * //

dimensions      [0 1 -1 0 0 0 0];

internalField   nonuniform List<vector> 
12225
(
(9.84913 0.046773 0)
(9.55473 0.062859 0)
(9.25371 0.0607521 0)
(8.94705 0.0593932 0)
(8.64414 0.0586815 0)
(8.35102 0.0576689 0)
(8.06776 0.0562892 0)
(7.79481 0.0552942 0)
(7.52758 0.0543216 0)
(7.26909 0.0543935 0)
(7.00938 0.0540343 0)
(6.75996 0.0558807 0)
(6.49483 0.0563076 0)
(6.24806 0.0620355 0)
(5.95086 0.0642938 0)
(5.69749 0.078428 0)
(5.31741 0.085811 0)
(5.03919 0.118451 0)
(10.0352 0.0499203 0)
(10.0934 0.0733628 0)
(10.13 0.0730815 0)
(10.1416 0.0747933 0)
(10.1359 0.0786057 0)
(10.1198 0.0821747 0)
(10.0944 0.0851441 0)
(10.0615 0.0880274 0)
(10.0192 0.0911065 0)
(9.97061 0.0946891 0)
(9.91182 0.098984 0)
(9.84821 0.10431 0)
(9.77069 0.111746 0)
(9.68925 0.121001 0)
(9.58537 0.136112 0)
(9.47762 0.15341 0)
(9.33407 0.185543 0)
(9.18369 0.216462 0)
(10.0186 0.0336587 0)
(10.0492 0.0557471 0)
(10.0762 0.0586706 0)
(10.0917 0.0611703 0)
(10.1 0.0658106 0)
(10.1062 0.0706279 0)
(10.1116 0.0747567 0)
(10.1155 0.0791097 0)
(10.1168 0.0836017 0)
(10.1151 0.0893338 0)
(10.1105 0.0954137 0)
(10.1021 0.103941 0)
(10.0913 0.113663 0)
(10.0755 0.128252 0)
(10.0587 0.146518 0)
(10.0359 0.173014 0)
(10.0178 0.207988 0)
(9.99583 0.248641 0)
(10.0036 0.0282385 0)
(10.0261 0.0573706 0)
(10.0478 0.0639237 0)
(10.0608 0.0663408 0)
(10.0666 0.0706373 0)
(10.0695 0.0756467 0)
(10.0716 0.0803337 0)
(10.0728 0.0849369 0)
(10.0727 0.0899836 0)
(10.0709 0.0958242 0)
(10.0674 0.102862 0)
(10.0618 0.111488 0)
(10.0548 0.122664 0)
(10.0462 0.137216 0)
(10.038 0.156813 0)
(10.0313 0.182297 0)
(10.0298 0.213893 0)
(10.0372 0.247899 0)
(10.0057 0.0236559 0)
(10.0231 0.0486348 0)
(10.0417 0.0569623 0)
(10.0544 0.0601909 0)
(10.0605 0.0645788 0)
(10.063 0.0700371 0)
(10.0643 0.0753573 0)
(10.0648 0.0806224 0)
(10.0643 0.0862344 0)
(10.0623 0.0928244 0)
(10.0587 0.100696 0)
(10.0533 0.110438 0)
(10.0463 0.122641 0)
(10.0384 0.138099 0)
(10.0304 0.157729 0)
(10.0247 0.181753 0)
(10.0225 0.209235 0)
(10.027 0.236739 0)
(10.0055 0.0180361 0)
(10.0183 0.0454538 0)
(10.0354 0.0561865 0)
(10.0491 0.060752 0)
(10.0568 0.0655449 0)
(10.0602 0.0714026 0)
(10.0616 0.077389 0)
(10.062 0.0832857 0)
(10.0613 0.0895315 0)
(10.0595 0.0966879 0)
(10.0561 0.105184 0)
(10.0516 0.115527 0)
(10.0458 0.1282 0)
(10.0397 0.143814 0)
(10.034 0.162702 0)
(10.0303 0.184817 0)
(10.0293 0.208795 0)
(10.0327 0.232662 0)
(9.99409 0.0164311 0)
(10.0005 0.0398597 0)
(10.0122 0.0514096 0)
(10.0231 0.0572737 0)
(10.0298 0.0625732 0)
(10.0329 0.0687857 0)
(10.0343 0.0753139 0)
(10.035 0.0817625 0)
(10.0347 0.0884716 0)
(10.0334 0.09612 0)
(10.0309 0.105229 0)
(10.0276 0.116254 0)
(10.0235 0.129501 0)
(10.0196 0.145335 0)
(10.0162 0.163717 0)
(10.0147 0.184501 0)
(10.015 0.206452 0)
(10.0189 0.228621 0)
(10.0013 0.0161308 0)
(10.0074 0.0356386 0)
(10.0168 0.0489858 0)
(10.026 0.0564947 0)
(10.0323 0.0622246 0)
(10.0356 0.0684683 0)
(10.0374 0.0753281 0)
(10.0383 0.0824683 0)
(10.0385 0.0899487 0)
(10.0378 0.098229 0)
(10.0361 0.107769 0)
(10.0337 0.119009 0)
(10.0309 0.132213 0)
(10.0282 0.147666 0)
(10.0263 0.165215 0)
(10.0257 0.184697 0)
(10.0267 0.205127 0)
(10.0298 0.225965 0)
(9.99754 0.012949 0)
(10.0033 0.032084 0)
(10.0111 0.0454019 0)
(10.0197 0.0537992 0)
(10.0269 0.060174 0)
(10.0316 0.0666094 0)
(10.0344 0.0735791 0)
(10.036 0.0809604 0)
(10.0369 0.0888314 0)
(10.037 0.0975697 0)
(10.0362 0.107594 0)
(10.0348 0.119265 0)
(10.0329 0.132708 0)
(10.0314 0.148031 0)
(10.0306 0.165007 0)
(10.0312 0.183501 0)
(10.0332 0.202752 0)
(10.0373 0.222514 0)
(9.99354 0.0122249 0)
(9.99748 0.0296351 0)
(10.0035 0.0425479 0)
(10.0105 0.0515548 0)
(10.0169 0.0586843 0)
(10.0217 0.0656794 0)
(10.0251 0.0731392 0)
(10.0274 0.081082 0)
(10.0289 0.0895339 0)
(10.0295 0.0987897 0)
(10.0293 0.109153 0)
(10.0288 0.120914 0)
(10.0281 0.134141 0)
(10.028 0.14893 0)
(10.0284 0.165048 0)
(10.0303 0.182442 0)
(10.0331 0.200486 0)
(10.0377 0.219181 0)
(9.98238 0.0107301 0)
(9.9855 0.0272076 0)
(9.99114 0.0395682 0)
(9.99839 0.0487293 0)
(10.005 0.0561046 0)
(10.01 0.0630506 0)
(10.0136 0.0704782 0)
(10.0164 0.0786794 0)
(10.0185 0.0876636 0)
(10.02 0.0975156 0)
(10.021 0.108345 0)
(10.0215 0.120345 0)
(10.0219 0.133525 0)
(10.0227 0.148007 0)
(10.024 0.163543 0)
(10.0266 0.180179 0)
(10.03 0.197323 0)
(10.0351 0.215185 0)
(9.99166 0.0101034 0)
(9.99292 0.0249125 0)
(9.99708 0.036442 0)
(10.003 0.0459875 0)
(10.0087 0.0542188 0)
(10.013 0.0619581 0)
(10.0159 0.0698563 0)
(10.018 0.0782829 0)
(10.0198 0.0874158 0)
(10.0217 0.0974136 0)
(10.0237 0.108346 0)
(10.0259 0.120341 0)
(10.0282 0.133319 0)
(10.0309 0.147356 0)
(10.034 0.162184 0)
(10.0377 0.177924 0)
(10.0422 0.194039 0)
(10.0475 0.210891 0)
(10.0111 0.0111102 0)
(10.0114 0.0230569 0)
(10.0141 0.0346346 0)
(10.0187 0.0444753 0)
(10.024 0.052624 0)
(10.0287 0.0602237 0)
(10.0324 0.0680863 0)
(10.0351 0.0765374 0)
(10.0373 0.0856066 0)
(10.0393 0.0954052 0)
(10.0415 0.106032 0)
(10.0439 0.117678 0)
(10.0467 0.130333 0)
(10.0499 0.14406 0)
(10.0537 0.158569 0)
(10.0579 0.173922 0)
(10.0631 0.18958 0)
(10.0688 0.205872 0)
(10.0172 0.0112085 0)
(10.0198 0.0213307 0)
(10.0234 0.0321357 0)
(10.0278 0.0415919 0)
(10.0324 0.0497475 0)
(10.0366 0.0577085 0)
(10.0403 0.0661864 0)
(10.0436 0.0752445 0)
(10.0468 0.0847737 0)
(10.0501 0.0948323 0)
(10.0536 0.105522 0)
(10.0574 0.117013 0)
(10.0615 0.12926 0)
(10.0662 0.142338 0)
(10.0713 0.155959 0)
(10.0771 0.170267 0)
(10.0835 0.184716 0)
(10.0906 0.199788 0)
(10.0082 0.00640937 0)
(10.0131 0.0185904 0)
(10.0179 0.0295238 0)
(10.0223 0.0389536 0)
(10.0265 0.0473717 0)
(10.0308 0.0553745 0)
(10.0351 0.0633641 0)
(10.0393 0.0716293 0)
(10.0437 0.0803392 0)
(10.0484 0.0896421 0)
(10.0533 0.0996046 0)
(10.0587 0.110377 0)
(10.0644 0.121924 0)
(10.0707 0.134336 0)
(10.0773 0.147328 0)
(10.0846 0.161016 0)
(10.0923 0.174815 0)
(10.1009 0.189164 0)
(10.0226 0.00324434 0)
(10.0231 0.0162169 0)
(10.0251 0.0259297 0)
(10.029 0.0342802 0)
(10.0341 0.0424233 0)
(10.0398 0.050678 0)
(10.0455 0.0590609 0)
(10.0509 0.0676511 0)
(10.056 0.0765232 0)
(10.0612 0.0858142 0)
(10.0665 0.0955832 0)
(10.0722 0.105962 0)
(10.0781 0.116848 0)
(10.0847 0.128332 0)
(10.0918 0.140097 0)
(10.0998 0.152362 0)
(10.1082 0.164528 0)
(10.1177 0.177213 0)
(9.99457 0.00669211 0)
(9.99279 0.0151371 0)
(9.99349 0.0229955 0)
(9.9972 0.0303325 0)
(10.0025 0.0375626 0)
(10.0085 0.0449202 0)
(10.0148 0.0524863 0)
(10.0213 0.0603117 0)
(10.028 0.0684132 0)
(10.0349 0.0768743 0)
(10.0419 0.0856946 0)
(10.0493 0.0949558 0)
(10.057 0.104543 0)
(10.0653 0.114566 0)
(10.0741 0.124759 0)
(10.0837 0.135388 0)
(10.0936 0.145897 0)
(10.1044 0.156916 0)
(9.99619 0.01007 0)
(9.99734 0.0126384 0)
(10.0003 0.0180682 0)
(10.005 0.0244769 0)
(10.0105 0.0307422 0)
(10.0167 0.0368747 0)
(10.0235 0.0433212 0)
(10.0308 0.0504141 0)
(10.0384 0.0581378 0)
(10.0463 0.0663278 0)
(10.0545 0.0747161 0)
(10.063 0.0832358 0)
(10.0718 0.0917475 0)
(10.081 0.10041 0)
(10.0907 0.109031 0)
(10.1008 0.117921 0)
(10.1113 0.126587 0)
(10.1222 0.135638 0)
(9.99819 0.00254628 0)
(10.0026 0.00675824 0)
(10.0077 0.0110228 0)
(10.0133 0.0154237 0)
(10.0193 0.0201053 0)
(10.0257 0.0250342 0)
(10.0327 0.0302018 0)
(10.0402 0.0357016 0)
(10.0481 0.0415645 0)
(10.0566 0.0477794 0)
(10.0654 0.0542194 0)
(10.0747 0.060843 0)
(10.0843 0.0675082 0)
(10.0942 0.0743028 0)
(10.1044 0.0810486 0)
(10.115 0.0879717 0)
(10.1259 0.094666 0)
(10.1371 0.101601 0)
(10.0038 -0.000632722 0)
(10.006 0.00285138 0)
(10.0094 0.00554814 0)
(10.0142 0.00860777 0)
(10.0203 0.0121843 0)
(10.0273 0.0161098 0)
(10.035 0.0202965 0)
(10.0431 0.0247939 0)
(10.0515 0.0296534 0)
(10.0603 0.0348883 0)
(10.0695 0.0403693 0)
(10.0792 0.0459905 0)
(10.0892 0.0515608 0)
(10.0994 0.0570968 0)
(10.1099 0.0624361 0)
(10.1207 0.0677758 0)
(10.1316 0.0728273 0)
(10.1429 0.0780164 0)
(9.99329 -0.00161637 0)
(9.99585 -0.00121219 0)
(10.0011 6.21917e-06 0)
(10.008 0.00151551 0)
(10.0154 0.00341029 0)
(10.0229 0.00569315 0)
(10.0309 0.00827746 0)
(10.0396 0.0111757 0)
(10.0489 0.0144418 0)
(10.0587 0.0181004 0)
(10.069 0.0220417 0)
(10.0795 0.0261699 0)
(10.0901 0.0303225 0)
(10.101 0.0344991 0)
(10.112 0.0385555 0)
(10.1233 0.0426276 0)
(10.1347 0.0464675 0)
(10.1463 0.050392 0)
(9.9904 -0.0041509 0)
(9.99118 -0.00704704 0)
(9.99574 -0.00673533 0)
(10.0034 -0.00500331 0)
(10.0123 -0.00291825 0)
(10.0215 -0.000898652 0)
(10.0308 0.00100597 0)
(10.0402 0.00305715 0)
(10.0499 0.00556256 0)
(10.06 0.00865599 0)
(10.0704 0.012192 0)
(10.0811 0.015957 0)
(10.092 0.0196789 0)
(10.1031 0.023271 0)
(10.1144 0.0265823 0)
(10.1258 0.0297556 0)
(10.1373 0.0326256 0)
(10.1489 0.035518 0)
(9.99136 0.00143702 0)
(9.99773 -0.00840561 0)
(10.0052 -0.0128185 0)
(10.0132 -0.013619 0)
(10.0221 -0.0129949 0)
(10.0316 -0.012132 0)
(10.0412 -0.0112867 0)
(10.0508 -0.0102319 0)
(10.0606 -0.00873399 0)
(10.0706 -0.0067564 0)
(10.081 -0.00444977 0)
(10.0919 -0.00197198 0)
(10.1031 0.00051096 0)
(10.1146 0.0029721 0)
(10.1263 0.00531338 0)
(10.1379 0.0076243 0)
(10.1495 0.00976225 0)
(10.1609 0.0119351 0)
(10.0172 -0.0117173 0)
(10.0262 -0.0139444 0)
(10.0368 -0.0165579 0)
(10.0476 -0.0174968 0)
(10.0584 -0.0171007 0)
(10.0689 -0.016223 0)
(10.0793 -0.0152147 0)
(10.0897 -0.0140317 0)
(10.1001 -0.0126033 0)
(10.1106 -0.010948 0)
(10.1211 -0.00915826 0)
(10.1315 -0.00727547 0)
(10.1421 -0.00533647 0)
(10.1528 -0.0033332 0)
(10.1637 -0.00135809 0)
(10.1748 0.000604462 0)
(10.186 0.00240188 0)
(10.1972 0.00415583 0)
(9.99366 -0.0136186 0)
(9.99788 -0.0223041 0)
(10.0069 -0.027117 0)
(10.0185 -0.0288906 0)
(10.0299 -0.0292472 0)
(10.0404 -0.0293544 0)
(10.0507 -0.0293463 0)
(10.0615 -0.0289343 0)
(10.0728 -0.0279904 0)
(10.0843 -0.0266367 0)
(10.0957 -0.0251047 0)
(10.1069 -0.023571 0)
(10.1179 -0.0221586 0)
(10.129 -0.0208739 0)
(10.1401 -0.019733 0)
(10.1513 -0.0186388 0)
(10.1627 -0.0176399 0)
(10.1741 -0.0165803 0)
(10.0226 -0.00978216 0)
(10.0332 -0.0226803 0)
(10.047 -0.0268285 0)
(10.0606 -0.0272071 0)
(10.0723 -0.0272509 0)
(10.0825 -0.0277868 0)
(10.0921 -0.0283373 0)
(10.1018 -0.0284014 0)
(10.1119 -0.0278781 0)
(10.1224 -0.0269404 0)
(10.1334 -0.0257895 0)
(10.1447 -0.024566 0)
(10.1563 -0.0233967 0)
(10.1682 -0.0223381 0)
(10.1801 -0.0214524 0)
(10.1919 -0.0206899 0)
(10.2036 -0.0200794 0)
(10.2151 -0.0194874 0)
(9.99824 -0.025803 0)
(10.0103 -0.0381928 0)
(10.0249 -0.0419955 0)
(10.0379 -0.0421745 0)
(10.0484 -0.0423984 0)
(10.0576 -0.0430367 0)
(10.0668 -0.0433685 0)
(10.0766 -0.0431616 0)
(10.0868 -0.0426667 0)
(10.0972 -0.0421357 0)
(10.1077 -0.0416521 0)
(10.1185 -0.0411837 0)
(10.1296 -0.0406975 0)
(10.141 -0.0401854 0)
(10.1526 -0.03968 0)
(10.1643 -0.0391675 0)
(10.1759 -0.0386926 0)
(10.1874 -0.0381865 0)
(9.99601 -0.0170514 0)
(10.0137 -0.0294552 0)
(10.0335 -0.0325591 0)
(10.049 -0.0331995 0)
(10.0605 -0.0344922 0)
(10.0707 -0.0360985 0)
(10.0813 -0.0372598 0)
(10.0929 -0.0378338 0)
(10.1052 -0.0380066 0)
(10.1178 -0.0379867 0)
(10.1305 -0.0378934 0)
(10.1431 -0.0378234 0)
(10.1557 -0.0377913 0)
(10.1682 -0.037826 0)
(10.1804 -0.0378693 0)
(10.1924 -0.0379366 0)
(10.2042 -0.0379825 0)
(10.2156 -0.038048 0)
(10.0001 -0.0405057 0)
(10.0356 -0.0567093 0)
(10.0666 -0.0543585 0)
(10.0888 -0.0529967 0)
(10.1044 -0.0538072 0)
(10.1162 -0.0547403 0)
(10.1255 -0.0552452 0)
(10.1328 -0.0555173 0)
(10.1381 -0.0556893 0)
(10.1419 -0.0557922 0)
(10.1445 -0.0557874 0)
(10.1462 -0.0557002 0)
(10.1469 -0.0555093 0)
(10.147 -0.0552915 0)
(10.146 -0.0550028 0)
(10.1448 -0.054754 0)
(10.1423 -0.0544855 0)
(10.1403 -0.0543569 0)
(9.91035 -0.0296455 0)
(9.74768 -0.0449952 0)
(9.58182 -0.044228 0)
(9.41383 -0.0435399 0)
(9.24981 -0.0437022 0)
(9.09278 -0.0435429 0)
(8.94323 -0.0429553 0)
(8.80093 -0.042183 0)
(8.66537 -0.0413843 0)
(8.5363 -0.0406306 0)
(8.41327 -0.039919 0)
(8.29632 -0.0392452 0)
(8.18487 -0.0385691 0)
(8.07932 -0.0379125 0)
(7.97848 -0.0372426 0)
(7.88358 -0.0366275 0)
(7.79205 -0.0360238 0)
(7.70705 -0.0355581 0)
(-0.200941 0.434748 -1.25183e-21)
(-0.464332 0.221827 1.26802e-21)
(-0.549083 -0.00713168 0)
(-0.496935 -0.179135 0)
(-0.279661 -0.336539 0)
(0.0450284 -0.441986 -1.24295e-21)
(0.444895 -0.489212 0)
(0.875393 -0.483332 0)
(1.29299 -0.440677 0)
(1.66904 -0.375596 0)
(1.98666 -0.300557 1.33422e-21)
(2.24216 -0.230925 0)
(2.43753 -0.168792 0)
(2.57343 -0.103549 0)
(2.65411 -0.0339848 0)
(2.6802 0.0398479 1.63823e-21)
(2.64631 0.0646738 0)
(2.59841 0.0400942 0)
(2.53735 0.041538 0)
(2.46584 0.0582256 0)
(2.36525 0.0779425 0)
(2.22486 0.0898828 0)
(2.03537 0.112923 0)
(1.81766 0.169975 1.53742e-21)
(1.54342 0.248995 -1.50509e-21)
(1.24676 0.244147 1.48262e-21)
(0.955373 0.196606 1.47308e-21)
(0.654514 0.116872 0)
(0.394466 0.0678777 0)
(0.116533 0.157915 -1.5029e-21)
(-0.194759 0.218113 -1.5322e-21)
(-0.537913 0.2347 0)
(-0.895795 0.232078 0)
(-1.23737 0.213458 -1.67234e-21)
(-1.53344 0.174907 0)
(-1.77097 0.123014 0)
(-1.9401 0.0695939 1.76685e-21)
(-2.0529 0.0394521 0)
(-2.14227 0.0398693 1.8306e-21)
(-2.24622 0.0758085 3.76655e-21)
(-2.39654 0.119647 0)
(-2.59284 0.131183 0)
(-2.81599 0.135323 0)
(-3.05047 0.0795368 0)
(-3.19916 0.0315457 0)
(-3.32274 0.0493633 4.02516e-21)
(-3.44074 -0.0499196 4.06969e-21)
(-3.58854 -0.0698864 4.13545e-21)
(-3.74567 0.118801 0)
(-4.03453 0.207577 -4.1541e-21)
(-4.26894 0.172994 0)
(-4.47843 0.155419 4.21112e-21)
(-4.67135 0.140235 4.25212e-21)
(-4.84467 0.11899 0)
(-4.983 0.0866938 0)
(-5.10591 0.00852651 0)
(-5.20756 0.0307655 4.43312e-21)
(-5.36446 0.0832858 0)
(-5.49944 0.070691 0)
(-5.60284 0.0674116 0)
(-5.68532 0.0505784 0)
(-5.7259 0.0280096 0)
(-5.73504 0.00231341 0)
(-5.71461 -0.0187513 0)
(-5.67351 -0.0367075 0)
(-5.61911 -0.0499965 -4.80802e-21)
(-5.55809 -0.0604896 0)
(-5.49369 -0.0671404 0)
(-5.42957 -0.0702787 4.56212e-21)
(-5.36323 -0.0734815 4.43518e-21)
(-5.28355 -0.0798206 0)
(-5.18461 -0.0880079 -4.15615e-21)
(-5.05293 -0.102021 4.02311e-21)
(-4.88722 -0.114738 0)
(-4.70785 -0.11607 -3.81318e-21)
(-4.52937 -0.105968 0)
(-4.36176 -0.0895497 0)
(-4.21983 -0.0668736 3.56857e-21)
(-4.12004 -0.0381625 0)
(-4.0746 -0.00580317 -3.28788e-21)
(-4.08408 0.0238889 0)
(-4.14253 0.03711 2.91295e-21)
(-4.20308 0.0313531 2.71866e-21)
(-4.26972 0.00446994 2.52891e-21)
(-4.25551 -0.0621222 4.6835e-21)
(-4.24341 -0.122093 -4.35217e-21)
(-4.22692 -0.145421 0)
(-4.36903 -0.0017965 0)
(-4.73075 0.224352 0)
(-5.19662 0.259512 -3.40796e-21)
(-5.53124 0.198142 -3.58862e-21)
(-5.77439 0.145805 3.86385e-21)
(-5.93568 0.0973244 0)
(-6.02622 0.0576808 -4.3968e-21)
(-6.05735 0.0243896 -4.5806e-21)
(-6.03619 -0.00324585 -4.68732e-21)
(-5.9692 -0.0267977 0)
(-5.86048 -0.0470884 0)
(-5.71423 -0.0648812 0)
(-5.53322 -0.0806904 -4.2295e-21)
(-5.3201 -0.0950584 0)
(-5.07689 -0.107767 0)
(-4.80568 -0.118963 2.94345e-21)
(-4.50931 -0.128511 0)
(-4.19113 -0.136427 0)
(-3.85429 -0.142692 1.0522e-21)
(-3.50179 -0.147368 0)
(-3.13695 -0.150516 0)
(-2.76294 -0.152253 1.05659e-21)
(-2.38301 -0.152583 1.73638e-21)
(-2.00034 -0.15155 0)
(-1.61825 -0.149201 -2.9806e-21)
(-1.23971 -0.145739 0)
(-0.867043 -0.141463 4.00823e-21)
(-0.501751 -0.136722 0)
(-0.144765 -0.131899 4.79071e-21)
(0.203519 -0.127007 5.09236e-21)
(0.543046 -0.122205 0)
(0.8735 -0.117409 0)
(1.19459 -0.112496 0)
(1.5059 -0.107372 0)
(1.80683 -0.101932 0)
(2.0964 -0.0965004 0)
(2.37338 -0.0910195 0)
(2.63791 -0.0855294 5.71287e-21)
(2.88928 -0.0796962 -5.61505e-21)
(3.12729 -0.0738298 0)
(3.35155 -0.067984 0)
(3.56173 -0.0621661 0)
(3.75764 -0.0564274 0)
(3.93923 -0.0508297 -9.69991e-21)
(4.10665 -0.0454161 0)
(4.26018 -0.0401933 8.97152e-21)
(4.40012 -0.0351344 -8.60676e-21)
(4.52678 -0.0301809 0)
(4.64017 -0.0252477 0)
(4.74018 -0.0202723 0)
(4.82658 -0.015213 7.23904e-21)
(4.89904 -0.0100448 6.93484e-21)
(4.95707 -0.00475311 0)
(5.0002 0.000676937 6.38713e-21)
(5.0278 0.00622761 6.1469e-21)
(5.03933 0.0118575 -5.93092e-21)
(5.03428 0.0175378 0)
(5.0121 0.0232469 0)
(4.97241 0.0289188 -5.43952e-21)
(4.9147 0.0345835 0)
(4.83861 0.0402145 0)
(4.74395 0.0456003 0)
(4.63085 0.0508364 0)
(4.49905 0.0557003 5.16522e-21)
(4.34925 0.0600582 5.1836e-21)
(4.18138 0.0641585 0)
(3.99579 0.0671012 5.26666e-21)
(3.79483 0.0696678 0)
(3.5763 0.0698678 0)
(3.34927 0.0660418 5.38937e-21)
(3.11554 0.0595134 0)
(2.88435 0.036818 5.34819e-21)
(2.71504 0.00643566 0)
(2.61669 0.000309383 0)
(2.553 0.0103886 5.3283e-21)
(2.50243 0.0185253 0)
(2.4554 0.0211951 5.4413e-21)
(2.40877 0.0216159 0)
(2.35987 0.0212776 0)
(2.3092 0.0162335 0)
(2.26682 0.00676832 -5.64851e-21)
(2.23932 -0.000947513 0)
(2.22751 -0.00367528 5.70067e-21)
(2.22188 -0.0025299 0)
(2.21777 0.000348124 0)
(2.20596 0.00439049 0)
(2.18702 0.00749876 0)
(2.16146 0.0122015 0)
(2.12065 0.0132114 0)
(2.09183 0.0222703 0)
(1.99198 0.0180069 -1.1837e-20)
(1.9938 0.0495539 0)
(1.67322 0.0252905 0)
(-0.0155503 0.83895 3.83505e-21)
(0.0714903 0.458688 -3.87195e-21)
(0.204438 0.0174453 0)
(0.439847 -0.376929 2.68371e-21)
(0.759293 -0.791715 0)
(1.14833 -1.10994 1.2383e-21)
(1.5509 -1.26823 -2.75698e-21)
(1.9284 -1.2889 -2.81377e-21)
(2.26037 -1.2044 0)
(2.537 -1.04889 -3.02993e-21)
(2.75186 -0.860344 -1.33129e-21)
(2.90496 -0.664375 0)
(3.00157 -0.479248 0)
(3.04795 -0.315992 0)
(3.05624 -0.173578 0)
(3.04076 -0.0330009 -1.63491e-21)
(3.00514 0.0850725 0)
(2.93615 0.157959 3.65083e-21)
(2.84043 0.196053 0)
(2.72463 0.231879 0)
(2.56106 0.345637 -3.52965e-21)
(2.3582 0.492884 0)
(2.11966 0.601754 3.40034e-21)
(1.87241 0.685256 -1.53139e-21)
(1.62905 0.729639 1.49868e-21)
(1.36427 0.740452 -1.47599e-21)
(1.06021 0.790635 -1.46633e-21)
(0.698861 0.831835 0)
(0.288733 0.835216 0)
(-0.161033 0.824998 1.49814e-21)
(-0.575981 0.837719 -1.82816e-21)
(-0.955212 0.863786 0)
(-1.31897 0.857734 0)
(-1.6341 0.782498 1.66939e-21)
(-1.91075 0.646718 0)
(-2.14474 0.482658 0)
(-2.32653 0.311566 -1.7621e-21)
(-2.47283 0.193661 0)
(-2.61204 0.184326 2.27229e-21)
(-2.75961 0.276193 -3.75556e-21)
(-2.9266 0.385139 0)
(-3.11642 0.479282 0)
(-3.31328 0.506417 -8.59912e-21)
(-3.5577 0.429981 -8.58363e-21)
(-3.83994 0.34898 -8.62591e-21)
(-4.08026 0.296423 4.6733e-21)
(-4.36003 0.396776 -4.05991e-21)
(-4.6709 0.479281 -1.30781e-20)
(-4.8383 0.483353 9.05479e-21)
(-5.00621 0.461567 4.14317e-21)
(-5.11923 0.404903 0)
(-5.22729 0.367851 -4.20115e-21)
(-5.29952 0.318265 5.00726e-21)
(-5.37198 0.266775 0)
(-5.43595 0.239587 0)
(-5.55708 0.272626 0)
(-5.6577 0.284199 -4.4268e-21)
(-5.73772 0.25274 0)
(-5.78843 0.194848 9.6186e-21)
(-5.81495 0.138556 0)
(-5.81794 0.0742682 9.83603e-21)
(-5.79511 0.0122099 0)
(-5.75558 -0.0427933 -9.98692e-21)
(-5.70076 -0.0815695 0)
(-5.63876 -0.103497 9.9923e-21)
(-5.57637 -0.108932 -5.11849e-21)
(-5.52045 -0.103774 0)
(-5.47388 -0.0958369 -9.6276e-21)
(-5.43555 -0.0946221 -4.56175e-21)
(-5.39786 -0.108944 -4.43474e-21)
(-5.35031 -0.143372 0)
(-5.28584 -0.196677 -4.38961e-21)
(-5.18021 -0.262514 -4.02234e-21)
(-5.04986 -0.306844 0)
(-4.89902 -0.313769 3.81189e-21)
(-4.73432 -0.301124 -7.72172e-21)
(-4.57917 -0.269127 0)
(-4.4537 -0.208257 -3.56732e-21)
(-4.36647 -0.127853 0)
(-4.3219 -0.0429085 1.01245e-20)
(-4.31485 0.0331017 0)
(-4.35144 0.0810088 -8.95535e-21)
(-4.40075 0.0935015 -2.71797e-21)
(-4.46853 0.0547936 2.66991e-21)
(-4.54738 0.0223595 4.93143e-21)
(-4.78842 0.105607 -4.60456e-21)
(-5.09564 0.278512 0)
(-5.52125 0.512873 0)
(-5.79501 0.554957 0)
(-5.98782 0.46642 1.13809e-20)
(-6.07784 0.342033 3.58297e-21)
(-6.12125 0.227571 -3.85712e-21)
(-6.11254 0.124641 0)
(-6.06933 0.0382287 -5.1416e-21)
(-5.99144 -0.0357781 4.57667e-21)
(-5.88576 -0.099053 4.68521e-21)
(-5.75245 -0.154555 0)
(-5.59423 -0.204015 0)
(-5.41013 -0.249038 0)
(-5.20086 -0.290593 4.23264e-21)
(-4.96578 -0.329154 0)
(-4.70583 -0.36455 -7.26968e-21)
(-4.42158 -0.396537 -9.16941e-21)
(-4.1147 -0.424575 5.03501e-21)
(-3.78664 -0.448254 0)
(-3.44019 -0.467228 1.30457e-21)
(-3.07842 -0.481473 0)
(-2.70447 -0.49115 -5.01969e-22)
(-2.32144 -0.496551 8.68908e-22)
(-1.93241 -0.497747 1.56706e-21)
(-1.5406 -0.494822 0)
(-1.14937 -0.487965 8.8024e-21)
(-0.761894 -0.477715 -6.9244e-21)
(-0.380603 -0.465007 -4.00649e-21)
(-0.00697249 -0.450886 0)
(0.358339 -0.436362 -4.78877e-21)
(0.715171 -0.421877 -1.5175e-20)
(1.06356 -0.407586 0)
(1.40341 -0.393327 -1.09651e-20)
(1.7345 -0.378757 -1.125e-20)
(2.05635 -0.363544 -1.14386e-20)
(2.36835 -0.347526 0)
(2.66949 -0.331632 0)
(2.95854 -0.314975 0)
(3.23585 -0.297952 5.63699e-21)
(3.50075 -0.280599 5.609e-21)
(3.75288 -0.263105 0)
(3.99193 -0.245594 1.06318e-20)
(4.21761 -0.228167 1.03216e-20)
(4.42968 -0.210972 0)
(4.62809 -0.19418 9.69012e-21)
(4.81293 -0.177935 1.85592e-20)
(4.98448 -0.162305 -8.96264e-21)
(5.14309 -0.147265 -8.50969e-21)
(5.28912 -0.132699 0)
(5.42297 -0.118443 0)
(5.54489 -0.104326 0)
(5.65499 -0.0902146 -7.23173e-21)
(5.75315 -0.0760068 6.85001e-21)
(5.8392 -0.0616234 1.321e-20)
(5.91279 -0.0470154 -6.38038e-21)
(5.97358 -0.0321359 6.06454e-21)
(6.02112 -0.0169879 5.92435e-21)
(6.05487 -0.00161681 0)
(6.07441 0.0139229 0)
(6.07934 0.0295755 -5.35758e-21)
(6.06952 0.0452665 0)
(6.04495 0.060934 0)
(6.00566 0.0764213 1.02993e-20)
(5.95175 0.0916516 0)
(5.88373 0.106564 5.0755e-21)
(5.80154 0.120985 -5.17596e-21)
(5.70626 0.135093 0)
(5.59742 0.148421 5.16236e-21)
(5.47612 0.161066 0)
(5.34199 0.172397 0)
(5.19446 0.179606 -5.38067e-21)
(5.03679 0.181876 1.06636e-20)
(4.86215 0.169621 -5.33961e-21)
(4.68306 0.133401 0)
(4.50685 0.0847895 0)
(4.35434 0.0475611 5.31878e-21)
(4.25672 0.0301532 0)
(4.20372 0.0243598 5.43082e-21)
(4.17235 0.0239104 0)
(4.15297 0.0264911 0)
(4.13932 0.0285279 0)
(4.12611 0.0255931 5.63958e-21)
(4.11177 0.0180462 0)
(4.09943 0.00967047 -5.69172e-21)
(4.09158 0.00558321 0)
(4.08638 0.00525007 0)
(4.08341 0.00945737 1.15128e-20)
(4.07602 0.011388 -1.15469e-20)
(4.07521 0.018311 0)
(4.06261 0.0172652 0)
(4.07337 0.0344347 0)
(4.03109 0.0307007 3.54025e-20)
(4.06153 0.0812021 0)
(3.90581 0.0736937 -2.38903e-20)
(0.106578 0.455499 -3.14368e-23)
(0.388456 -0.0849755 5.16352e-21)
(0.7289 -0.672288 0)
(1.14535 -1.24009 -5.40976e-21)
(1.57306 -1.70523 0)
(1.94798 -1.98087 0)
(2.23188 -2.03953 -3.99098e-22)
(2.43287 -1.92744 2.80908e-21)
(2.56544 -1.69267 3.46272e-21)
(2.65174 -1.38368 3.02734e-21)
(2.69276 -1.0582 0)
(2.70209 -0.752667 0)
(2.68021 -0.475632 -3.97352e-21)
(2.63071 -0.234742 -8.07629e-21)
(2.55563 -0.0391222 8.14838e-21)
(2.46194 0.117241 0)
(2.36445 0.24795 8.14608e-21)
(2.24651 0.351785 -3.65012e-21)
(2.11394 0.430834 0)
(1.93028 0.58 7.89669e-21)
(1.72315 0.746706 3.52548e-21)
(1.51928 0.880339 -7.65675e-21)
(1.31149 0.988692 -3.39435e-21)
(1.10689 1.06304 0)
(0.891411 1.12682 7.31379e-21)
(0.631386 1.23354 7.23887e-21)
(0.349965 1.34228 0)
(0.0356671 1.45562 7.18182e-21)
(-0.304892 1.54244 0)
(-0.665132 1.57604 7.29757e-21)
(-1.03685 1.55367 3.34145e-21)
(-1.38094 1.48949 0)
(-1.68782 1.3804 0)
(-1.9479 1.21961 0)
(-2.1926 1.03568 0)
(-2.40414 0.824461 0)
(-2.60892 0.625836 0)
(-2.80297 0.494557 8.82737e-21)
(-3.01335 0.487066 -1.31319e-20)
(-3.24932 0.577312 0)
(-3.47901 0.684187 0)
(-3.73117 0.74984 0)
(-3.93696 0.831877 -8.09333e-22)
(-4.18896 0.850506 8.56463e-21)
(-4.42852 0.810863 1.80127e-20)
(-4.66813 0.784216 -1.8172e-20)
(-4.89209 0.762117 -9.62482e-21)
(-5.07419 0.715339 8.93469e-21)
(-5.17886 0.65615 8.62993e-22)
(-5.26541 0.585583 9.99747e-21)
(-5.31364 0.505862 0)
(-5.35888 0.426514 1.00996e-20)
(-5.38696 0.361425 8.64e-22)
(-5.44933 0.34008 0)
(-5.51177 0.340398 0)
(-5.56469 0.336991 -1.01285e-20)
(-5.57677 0.300888 0)
(-5.5743 0.250255 0)
(-5.56267 0.191069 1.08697e-20)
(-5.54798 0.125016 2.05948e-20)
(-5.52733 0.0489763 -9.83977e-21)
(-5.50242 -0.0267873 0)
(-5.4706 -0.0949723 9.99358e-21)
(-5.4334 -0.145584 0)
(-5.39178 -0.174855 1.08075e-20)
(-5.34903 -0.182311 9.93507e-21)
(-5.3059 -0.174248 -2.04559e-20)
(-5.2641 -0.161633 -1.04717e-20)
(-5.22092 -0.155378 0)
(-5.1755 -0.169996 1.90799e-20)
(-5.12686 -0.21368 0)
(-5.06722 -0.2872 2.63739e-20)
(-4.98527 -0.376177 1.72602e-20)
(-4.88629 -0.446561 1.68088e-20)
(-4.75933 -0.490087 -1.64679e-20)
(-4.62712 -0.48214 2.39319e-20)
(-4.50886 -0.409621 0)
(-4.40421 -0.299356 0)
(-4.32509 -0.181823 -1.5069e-20)
(-4.28475 -0.0636802 -2.12363e-20)
(-4.28086 0.0492428 0)
(-4.32545 0.131677 6.0497e-21)
(-4.40283 0.163341 0)
(-4.51918 0.167403 -1.6082e-20)
(-4.74302 0.275337 4.97071e-22)
(-5.0511 0.441597 -6.09986e-22)
(-5.40032 0.656177 9.26925e-21)
(-5.62693 0.740794 0)
(-5.68583 0.659136 -9.18928e-21)
(-5.69736 0.512426 1.37036e-21)
(-5.6694 0.352671 0)
(-5.63814 0.206402 0)
(-5.58716 0.0771389 0)
(-5.52493 -0.0334547 9.54092e-21)
(-5.44025 -0.13001 0)
(-5.33577 -0.21481 0)
(-5.20674 -0.29117 0)
(-5.05454 -0.361204 0)
(-4.87704 -0.427039 0)
(-4.67483 -0.489534 9.48695e-21)
(-4.44677 -0.548951 0)
(-4.19359 -0.604712 7.28326e-21)
(-3.91564 -0.655993 6.23421e-21)
(-3.61487 -0.701673 -5.04525e-21)
(-3.29326 -0.740761 0)
(-2.95385 -0.772317 -2.36594e-21)
(-2.59955 -0.796087 0)
(-2.23345 -0.812288 4.9793e-22)
(-1.85828 -0.821257 -1.92051e-21)
(-1.47677 -0.823261 -9.35117e-21)
(-1.09201 -0.818409 0)
(-0.707632 -0.806899 -1.70179e-20)
(-0.327218 -0.789546 -6.51753e-21)
(0.0463623 -0.767967 0)
(0.411523 -0.744111 -1.7149e-20)
(0.767652 -0.719609 -1.86165e-20)
(1.11492 -0.695526 2.99254e-20)
(1.45358 -0.672008 0)
(1.78367 -0.648691 1.09635e-20)
(2.1052 -0.624895 1.12483e-20)
(2.41748 -0.60003 3.40288e-20)
(2.71963 -0.574366 0)
(3.01053 -0.547938 0)
(3.28981 -0.520454 0)
(3.55709 -0.492435 1.10959e-20)
(3.81206 -0.464084 0)
(4.05453 -0.435558 0)
(4.28433 -0.406999 -1.06238e-20)
(4.50125 -0.378556 -1.03143e-20)
(4.70511 -0.350447 0)
(4.89582 -0.322943 0)
(5.07345 -0.296295 -1.85487e-20)
(5.23818 -0.270664 0)
(5.39033 -0.246065 1.70997e-20)
(5.53021 -0.222391 1.62395e-20)
(5.65816 -0.19942 0)
(5.7744 -0.176874 0)
(5.87905 -0.154515 -1.42446e-20)
(5.97209 -0.132154 -1.31942e-22)
(6.0534 -0.109641 -1.29714e-22)
(6.12277 -0.0868664 0)
(6.17994 -0.0637669 -2.42767e-20)
(6.22458 -0.0403345 0)
(6.2564 -0.0166223 0)
(6.27515 0.00726959 0)
(6.28075 0.0311983 1.07882e-20)
(6.27324 0.0549477 0)
(6.25274 0.0782981 -2.05735e-20)
(6.21965 0.101028 -1.0297e-20)
(6.17438 0.122929 0)
(6.11775 0.144006 -1.02309e-20)
(6.05059 0.163936 0)
(5.97403 0.182943 0)
(5.88941 0.200813 -3.10042e-20)
(5.798 0.217136 2.07764e-20)
(5.70188 0.232147 0)
(5.60118 0.242384 2.10816e-20)
(5.49713 0.24729 -1.06599e-20)
(5.38717 0.240971 0)
(5.26564 0.214458 0)
(5.12704 0.174809 0)
(4.98123 0.134184 -3.19279e-20)
(4.84998 0.0959791 0)
(4.74535 0.064724 -1.08602e-20)
(4.66701 0.0457766 0)
(4.61264 0.0358514 0)
(4.57804 0.029454 0)
(4.55574 0.0222694 0)
(4.5381 0.0139218 0)
(4.51995 0.00532193 0)
(4.50328 0.00099334 -2.28524e-20)
(4.48827 0.000634301 0)
(4.48132 0.00571471 -1.15084e-20)
(4.47696 0.00769022 3.45958e-20)
(4.48656 0.0137633 0)
(4.49461 0.0115406 0)
(4.52388 0.0273004 -2.33633e-20)
(4.53064 0.0286199 -2.3574e-20)
(4.57061 0.0781065 2.36573e-20)
(4.54697 0.0917645 2.38774e-20)
(0.0989582 -0.283011 -7.76347e-21)
(0.488907 -0.947856 -7.84584e-21)
(0.982079 -1.66687 -5.51853e-21)
(1.41738 -2.17459 -3.13642e-21)
(1.75615 -2.48169 0)
(1.95219 -2.50715 6.71363e-21)
(2.02556 -2.30024 -3.992e-21)
(2.02811 -1.98898 0)
(1.98651 -1.63363 -3.46555e-21)
(1.9388 -1.26395 0)
(1.88408 -0.913645 8.53009e-21)
(1.827 -0.586341 0)
(1.75956 -0.286031 3.97792e-21)
(1.68039 -0.0200846 8.08548e-21)
(1.58306 0.201902 -8.15716e-21)
(1.46831 0.377251 0)
(1.3401 0.526731 -8.15279e-21)
(1.1995 0.650229 0)
(1.02855 0.791327 0)
(0.825984 0.965688 -7.89681e-21)
(0.630392 1.11668 0)
(0.436738 1.24706 -8.48897e-22)
(0.248882 1.34739 0)
(0.0511778 1.44518 0)
(-0.173544 1.57075 9.47562e-22)
(-0.409388 1.69959 -7.22715e-21)
(-0.654962 1.83211 -8.17989e-21)
(-0.903418 1.95202 -7.1647e-21)
(-1.15134 2.0395 0)
(-1.39837 2.08051 -1.55173e-20)
(-1.65183 2.05658 0)
(-1.90058 1.96431 -8.41963e-21)
(-2.14592 1.8228 0)
(-2.3801 1.64354 0)
(-2.61356 1.43752 8.86353e-21)
(-2.83109 1.19977 0)
(-3.05862 1.00239 -9.22413e-21)
(-3.29415 0.901857 6.4247e-22)
(-3.55856 0.937311 1.87414e-20)
(-3.8414 1.05229 -1.98546e-20)
(-4.11678 1.16884 0)
(-4.36298 1.20541 0)
(-4.56286 1.20441 -1.09472e-20)
(-4.73466 1.1501 0)
(-4.87827 1.09179 -9.39269e-21)
(-5.00769 1.04979 9.49249e-21)
(-5.0973 0.980005 9.61577e-21)
(-5.15173 0.883526 0)
(-5.17531 0.778126 -9.89784e-21)
(-5.18933 0.666827 -9.99514e-21)
(-5.19228 0.565143 2.19133e-20)
(-5.21225 0.492953 -1.00991e-20)
(-5.24936 0.46184 -1.01084e-20)
(-5.31144 0.44629 0)
(-5.35716 0.413082 0)
(-5.3817 0.36329 1.01315e-20)
(-5.38516 0.301512 0)
(-5.38959 0.242794 0)
(-5.39038 0.178545 -2.05e-20)
(-5.39048 0.105951 -2.06068e-20)
(-5.38729 0.0257009 0)
(-5.38316 -0.0551024 0)
(-5.3747 -0.127254 0)
(-5.36291 -0.181653 0)
(-5.34517 -0.21407 -2.08299e-20)
(-5.31937 -0.225487 2.16507e-20)
(-5.28225 -0.222122 2.04802e-20)
(-5.23424 -0.214673 4.12465e-20)
(-5.1771 -0.214447 0)
(-5.10862 -0.234051 9.55338e-22)
(-5.03586 -0.290405 0)
(-4.95379 -0.386944 -1.78433e-20)
(-4.86036 -0.5005 8.41775e-22)
(-4.75208 -0.597912 -1.68329e-20)
(-4.62711 -0.631636 1.64928e-20)
(-4.49788 -0.604047 8.00346e-22)
(-4.35663 -0.541014 0)
(-4.226 -0.422083 1.63806e-20)
(-4.13349 -0.263019 1.50925e-20)
(-4.09653 -0.090812 2.951e-20)
(-4.11104 0.076076 0)
(-4.17596 0.205829 -1.32818e-20)
(-4.27953 0.290715 0)
(-4.45632 0.395705 2.2409e-20)
(-4.70545 0.563684 -1.0123e-20)
(-4.98159 0.746084 9.5739e-21)
(-5.18969 0.852217 -9.27355e-21)
(-5.23814 0.79447 -2.07544e-20)
(-5.21071 0.644548 9.19359e-21)
(-5.18302 0.480435 -9.35441e-21)
(-5.141 0.313568 0)
(-5.10168 0.159295 2.2353e-20)
(-5.04519 0.0170045 0)