/*--------------------------------*- C++ -*----------------------------------*\
  =========                 |
  \\      /  F ield         | OpenFOAM: The Open Source CFD Toolbox
   \\    /   O peration     | Website:  https://openfoam.org
    \\  /    A nd           | Version:  9
     \\/     M anipulation  |
\*---------------------------------------------------------------------------*/
FoamFile
{
    format      ascii;
    class       volSymmTensorField;
    location    "0.064";
    object      UPrime2Mean;
}
// * * * * * * * * * * * * * * * * * * * * * * * * * * * * * * * * * * * * * //

dimensions      [0 2 -2 0 0 0 0];

internalField   nonuniform List<symmTensor> 
12225
(
(-48.4125 -0.2376 0 0.00115392 0 0)
(-45.5719 -0.30734 0 -0.00100189 0 0)
(-42.7373 -0.287708 0 -0.00119074 0 0)
(-39.9315 -0.272285 0 -0.00125869 0 0)
(-37.2432 -0.259784 0 -0.00130581 0 0)
(-34.7257 -0.245919 0 -0.00130575 0 0)
(-32.3667 -0.231469 0 -0.00126751 0 0)
(-30.168 -0.219543 0 -0.00123503 0 0)
(-28.069 -0.209584 0 -0.00118275 0 0)
(-26.1039 -0.203926 0 -0.00119086 0 0)
(-24.155 -0.199039 0 -0.00111558 0 0)
(-22.3492 -0.200516 0 -0.00120346 0 0)
(-20.4089 -0.203216 0 -0.000903192 0 0)
(-18.6754 -0.217431 0 -0.00122121 0 0)
(-16.4804 -0.242308 0 0.000286554 0 0)
(-14.6447 -0.278185 0 -0.00100999 0 0)
(-11.682 -0.388776 0 0.00882753 0 0)
(-9.13134 -0.47726 0 0.00256753 0 0)
(-50.5044 -0.240729 0 0.00167039 0 0)
(-51.0825 -0.363797 0 -0.00123585 0 0)
(-51.4375 -0.3659 0 -0.00167794 0 0)
(-51.5395 -0.377645 0 -0.00201536 0 0)
(-51.4653 -0.398942 0 -0.00243031 0 0)
(-51.2848 -0.418841 0 -0.00279591 0 0)
(-51.0051 -0.434869 0 -0.00309533 0 0)
(-50.6449 -0.451186 0 -0.00335392 0 0)
(-50.1787 -0.467418 0 -0.00361092 0 0)
(-49.6472 -0.488397 0 -0.00380135 0 0)
(-48.995 -0.511123 0 -0.00403777 0 0)
(-48.2975 -0.544302 0 -0.0039957 0 0)
(-47.4219 -0.585306 0 -0.00411905 0 0)
(-46.5105 -0.647527 0 -0.0031062 0 0)
(-45.2921 -0.736808 0 -0.00239128 0 0)
(-44.0238 -0.865711 0 0.0029421 0 0)
(-42.24 -1.08245 0 0.0106268 0 0)
(-40.2902 -1.37815 0 0.0448243 0 0)
(-50.2459 -0.174455 0 0.00294539 0 0)
(-50.5507 -0.285717 0 0.000115505 0 0)
(-50.8164 -0.30302 0 -0.000629003 0 0)
(-50.964 -0.317895 0 -0.000972613 0 0)
(-51.0388 -0.342411 0 -0.00136811 0 0)
(-51.0943 -0.367414 0 -0.00175027 0 0)
(-51.1398 -0.389716 0 -0.0020392 0 0)
(-51.1658 -0.414512 0 -0.00229744 0 0)
(-51.1582 -0.44163 0 -0.00246384 0 0)
(-51.1132 -0.476294 0 -0.00265247 0 0)
(-51.0288 -0.514695 0 -0.00253125 0 0)
(-50.9007 -0.567559 0 -0.00241801 0 0)
(-50.7331 -0.631457 0 -0.00129203 0 0)
(-50.5049 -0.725211 0 7.66462e-05 0 0)
(-50.2448 -0.85034 0 0.00496878 0 0)
(-49.9043 -1.03134 0 0.0129267 0 0)
(-49.5899 -1.28821 0 0.0351036 0 0)
(-49.2207 -1.61453 0 0.0837759 0 0)
(-49.9986 -0.140569 0 0.00314131 0 0)
(-50.2308 -0.287711 0 0.000316476 0 0)
(-50.4454 -0.324888 0 -0.000800276 0 0)
(-50.5693 -0.339927 0 -0.00122357 0 0)
(-50.619 -0.362993 0 -0.00160969 0 0)
(-50.6354 -0.389796 0 -0.00197887 0 0)
(-50.6389 -0.415932 0 -0.00227576 0 0)
(-50.63 -0.443682 0 -0.00248861 0 0)
(-50.6052 -0.474803 0 -0.00262959 0 0)
(-50.5579 -0.5118 0 -0.00260909 0 0)
(-50.4878 -0.555773 0 -0.00237248 0 0)
(-50.3885 -0.611153 0 -0.00165805 0 0)
(-50.2666 -0.682918 0 -0.00014057 0 0)
(-50.1174 -0.779575 0 0.00301763 0 0)
(-49.9621 -0.911657 0 0.00939198 0 0)
(-49.8146 -1.08974 0 0.0224504 0 0)
(-49.7182 -1.32083 0 0.0493094 0 0)
(-49.7265 -1.58805 0 0.10312 0 0)
(-50.0936 -0.117478 0 0.00385514 0 0)
(-50.2805 -0.242757 0 0.00121847 0 0)
(-50.4676 -0.290022 0 -5.9321e-05 0 0)
(-50.5912 -0.311053 0 -0.000475502 0 0)
(-50.6439 -0.336179 0 -0.000758642 0 0)
(-50.6551 -0.365913 0 -0.00104361 0 0)
(-50.6487 -0.395488 0 -0.00125094 0 0)
(-50.6322 -0.426251 0 -0.00133819 0 0)
(-50.6036 -0.460557 0 -0.00124263 0 0)
(-50.5582 -0.501846 0 -0.000918889 0 0)
(-50.4903 -0.552125 0 -0.000178423 0 0)
(-50.3963 -0.615329 0 0.00122543 0 0)
(-50.2749 -0.695879 0 0.00387712 0 0)
(-50.1333 -0.799897 0 0.00879751 0 0)
(-49.9815 -0.934738 0 0.0178393 0 0)
(-49.8473 -1.10508 0 0.0350881 0 0)
(-49.7489 -1.30794 0 0.0660859 0 0)
(-49.7262 -1.52508 0 0.122996 0 0)
(-50.1688 -0.089521 0 0.00450308 0 0)
(-50.3064 -0.232489 0 0.00159055 0 0)
(-50.4943 -0.288555 0 9.39681e-05 0 0)
(-50.6471 -0.314777 0 -0.00047002 0 0)
(-50.729 -0.342244 0 -0.000805376 0 0)
(-50.7561 -0.374838 0 -0.00106408 0 0)
(-50.7534 -0.408592 0 -0.00121244 0 0)
(-50.7343 -0.443295 0 -0.00118607 0 0)
(-50.7011 -0.481511 0 -0.000924644 0 0)
(-50.6528 -0.526476 0 -0.000312296 0 0)
(-50.586 -0.5809 0 0.000869787 0 0)
(-50.5004 -0.648358 0 0.00300189 0 0)
(-50.3958 -0.73261 0 0.00675465 0 0)
(-50.2807 -0.838302 0 0.0133931 0 0)
(-50.1624 -0.969133 0 0.024904 0 0)
(-50.0626 -1.12648 0 0.0452333 0 0)
(-49.9901 -1.30389 0 0.0792491 0 0)
(-49.9695 -1.48912 0 0.136238 0 0)
(-49.9858 -0.0730259 0 0.00497907 0 0)
(-50.0337 -0.197487 0 0.0027414 0 0)
(-50.1414 -0.258756 0 0.00128383 0 0)
(-50.2464 -0.293731 0 0.000684857 0 0)
(-50.3042 -0.32653 0 0.000403221 0 0)
(-50.3211 -0.363516 0 0.000241957 0 0)
(-50.3167 -0.401884 0 0.000214161 0 0)
(-50.3014 -0.440406 0 0.000425264 0 0)
(-50.2746 -0.481586 0 0.00099671 0 0)
(-50.234 -0.529831 0 0.00208509 0 0)
(-50.1773 -0.588679 0 0.0039348 0 0)
(-50.108 -0.661424 0 0.0070234 0 0)
(-50.027 -0.750511 0 0.0121069 0 0)
(-49.9445 -0.858894 0 0.0206194 0 0)
(-49.8625 -0.987422 0 0.0345414 0 0)
(-49.8001 -1.13618 0 0.0575406 0 0)
(-49.7542 -1.29844 0 0.0936298 0 0)
(-49.7511 -1.46731 0 0.149525 0 0)
(-49.98 -0.0920208 0 0.0042134 0 0)
(-50.0421 -0.180958 0 0.00199596 0 0)
(-50.1267 -0.251921 0 0.000692708 0 0)
(-50.2094 -0.294661 0 0.000111859 0 0)
(-50.2612 -0.327867 0 -0.000123357 0 0)
(-50.2828 -0.363882 0 -0.00017524 0 0)
(-50.287 -0.403803 0 -5.08444e-05 0 0)
(-50.2811 -0.446455 0 0.00035232 0 0)
(-50.2646 -0.492526 0 0.00119096 0 0)
(-50.2351 -0.544814 0 0.00268631 0 0)
(-50.1923 -0.606287 0 0.0051588 0 0)
(-50.1385 -0.680064 0 0.00918299 0 0)
(-50.0778 -0.768439 0 0.0155849 0 0)
(-50.016 -0.873873 0 0.0258214 0 0)
(-49.9594 -0.996239 0 0.0417627 0 0)
(-49.9152 -1.1349 0 0.0665923 0 0)
(-49.8888 -1.28393 0 0.10341 0 0)
(-49.8842 -1.43846 0 0.157087 0 0)
(-49.9922 -0.0592347 0 0.00514725 0 0)
(-50.0694 -0.159524 0 0.00288011 0 0)
(-50.1456 -0.232321 0 0.00159797 0 0)
(-50.2258 -0.281023 0 0.00103326 0 0)
(-50.293 -0.3192 0 0.000859441 0 0)
(-50.3342 -0.357259 0 0.000938522 0 0)
(-50.3515 -0.398272 0 0.00127091 0 0)
(-50.3528 -0.442455 0 0.00198022 0 0)
(-50.3423 -0.491053 0 0.0032455 0 0)
(-50.3201 -0.54665 0 0.00532546 0 0)
(-50.2846 -0.611959 0 0.00856815 0 0)
(-50.238 -0.689373 0 0.0135779 0 0)
(-50.184 -0.780035 0 0.0212045 0 0)
(-50.1311 -0.884945 0 0.0328767 0 0)
(-50.0853 -1.00313 0 0.0502925 0 0)
(-50.0559 -1.13369 0 0.0761348 0 0)
(-50.0431 -1.27176 0 0.112691 0 0)
(-50.0538 -1.41426 0 0.163509 0 0)
(-49.9656 -0.0568548 0 0.00591912 0 0)
(-50.0092 -0.155066 0 0.00362965 0 0)
(-50.0611 -0.223992 0 0.00203128 0 0)
(-50.1213 -0.27315 0 0.00140728 0 0)
(-50.1769 -0.314141 0 0.00123632 0 0)
(-50.2203 -0.355751 0 0.00137026 0 0)
(-50.2491 -0.400816 0 0.00183721 0 0)
(-50.2634 -0.449402 0 0.00277228 0 0)
(-50.2632 -0.502059 0 0.00437869 0 0)
(-50.2492 -0.560954 0 0.0069488 0 0)
(-50.2226 -0.628214 0 0.0108771 0 0)
(-50.1886 -0.705699 0 0.0168036 0 0)
(-50.1516 -0.794113 0 0.0255549 0 0)
(-50.1193 -0.894081 0 0.0384378 0 0)
(-50.0944 -1.00458 0 0.0568645 0 0)
(-50.0841 -1.12486 0 0.0830381 0 0)
(-50.0854 -1.25106 0 0.118484 0 0)
(-50.1053 -1.38135 0 0.165846 0 0)
(-49.9 -0.0513072 0 0.0062345 0 0)
(-49.9321 -0.13988 0 0.00416602 0 0)
(-49.9895 -0.208202 0 0.0029189 0 0)
(-50.0659 -0.258662 0 0.00237951 0 0)
(-50.1334 -0.299613 0 0.00227626 0 0)
(-50.181 -0.339366 0 0.0026133 0 0)
(-50.2123 -0.38342 0 0.00339956 0 0)
(-50.2327 -0.433739 0 0.00470836 0 0)
(-50.2438 -0.490592 0 0.00672497 0 0)
(-50.2455 -0.554368 0 0.00979121 0 0)
(-50.2365 -0.62555 0 0.0143567 0 0)
(-50.22 -0.705083 0 0.0210722 0 0)
(-50.1987 -0.793264 0 0.030701 0 0)
(-50.1808 -0.890858 0 0.044381 0 0)
(-50.168 -0.996719 0 0.063217 0 0)
(-50.1696 -1.11067 0 0.0889454 0 0)
(-50.1805 -1.22904 0 0.122504 0 0)
(-50.2126 -1.35147 0 0.165832 0 0)
(-49.755 -0.0449928 0 0.0062758 0 0)
(-49.7745 -0.126543 0 0.00430758 0 0)
(-49.8151 -0.18912 0 0.00272873 0 0)
(-49.8718 -0.242009 0 0.00212961 0 0)
(-49.9251 -0.289539 0 0.00214211 0 0)
(-49.9619 -0.335786 0 0.00262721 0 0)
(-49.9802 -0.383631 0 0.00360258 0 0)
(-49.9868 -0.435214 0 0.00519629 0 0)
(-49.9905 -0.492283 0 0.00761577 0 0)
(-49.9971 -0.556331 0 0.0111904 0 0)
(-50.0074 -0.62782 0 0.0163485 0 0)
(-50.0204 -0.707149 0 0.0237228 0 0)
(-50.035 -0.793651 0 0.0340165 0 0)
(-50.0519 -0.887581 0 0.0482382 0 0)
(-50.072 -0.98749 0 0.0672388 0 0)
(-50.0977 -1.09375 0 0.0923714 0 0)
(-50.1302 -1.20314 0 0.124138 0 0)
(-50.1716 -1.31653 0 0.163985 0 0)
(-50.2245 -0.0544175 0 0.00737621 0 0)
(-50.2236 -0.126965 0 0.00583744 0 0)
(-50.2375 -0.189297 0 0.00418707 0 0)
(-50.2746 -0.242315 0 0.00366077 0 0)
(-50.322 -0.288039 0 0.00387333 0 0)
(-50.3638 -0.332923 0 0.00458499 0 0)
(-50.3909 -0.380766 0 0.00578178 0 0)
(-50.4031 -0.432852 0 0.0076335 0 0)
(-50.4066 -0.489347 0 0.0104215 0 0)
(-50.4075 -0.551249 0 0.0145084 0 0)
(-50.4104 -0.619544 0 0.0202874 0 0)
(-50.4167 -0.695543 0 0.0282989 0 0)
(-50.4281 -0.779233 0 0.0391033 0 0)
(-50.4434 -0.870757 0 0.0535452 0 0)
(-50.4657 -0.968191 0 0.0722433 0 0)
(-50.4923 -1.07127 0 0.0963147 0 0)
(-50.5294 -1.17643 0 0.125861 0 0)
(-50.57 -1.28443 0 0.1621 0 0)
(-50.0963 -0.0525714 0 0.00820062 0 0)
(-50.1118 -0.111169 0 0.00707407 0 0)
(-50.1395 -0.170942 0 0.00543185 0 0)
(-50.1805 -0.223439 0 0.00462188 0 0)
(-50.2214 -0.270028 0 0.00462532 0 0)
(-50.2568 -0.318055 0 0.00533765 0 0)
(-50.2855 -0.3714 0 0.00662564 0 0)
(-50.3096 -0.429404 0 0.00862484 0 0)
(-50.3326 -0.490751 0 0.0116171 0 0)
(-50.3573 -0.555713 0 0.0159334 0 0)
(-50.3851 -0.62514 0 0.0219146 0 0)
(-50.4168 -0.700217 0 0.0300316 0 0)
(-50.453 -0.780761 0 0.0407488 0 0)
(-50.4945 -0.866965 0 0.0547515 0 0)
(-50.5415 -0.956941 0 0.072454 0 0)
(-50.5948 -1.05093 0 0.0946933 0 0)
(-50.6539 -1.1455 0 0.121337 0 0)
(-50.7212 -1.2425 0 0.1533 0 0)
(-50.0627 -0.0369557 0 0.00923974 0 0)
(-50.1277 -0.101887 0 0.00825233 0 0)
(-50.1828 -0.165488 0 0.00673494 0 0)
(-50.2254 -0.221003 0 0.00619343 0 0)
(-50.2591 -0.270299 0 0.0065837 0 0)
(-50.2912 -0.317416 0 0.00769672 0 0)
(-50.3237 -0.365119 0 0.0094317 0 0)
(-50.3571 -0.415103 0 0.0119026 0 0)
(-50.3931 -0.468323 0 0.0153589 0 0)
(-50.4335 -0.525815 0 0.0201319 0 0)
(-50.4787 -0.588306 0 0.0265357 0 0)
(-50.5287 -0.656984 0 0.0349708 0 0)
(-50.5833 -0.731801 0 0.0457324 0 0)
(-50.6425 -0.813098 0 0.0593101 0 0)
(-50.7068 -0.898909 0 0.0758216 0 0)
(-50.7761 -0.989118 0 0.0959151 0 0)
(-50.8514 -1.07993 0 0.119177 0 0)
(-50.9321 -1.17276 0 0.146473 0 0)
(-50.3146 0.0043966 0 0.0103794 0 0)
(-50.3089 -0.0779508 0 0.00880867 0 0)
(-50.3204 -0.136899 0 0.00635822 0 0)
(-50.3559 -0.186181 0 0.00561662 0 0)
(-50.4088 -0.235096 0 0.00606486 0 0)
(-50.4698 -0.286375 0 0.0071888 0 0)
(-50.5284 -0.339676 0 0.00886546 0 0)
(-50.5807 -0.394721 0 0.0112688 0 0)
(-50.6282 -0.451541 0 0.0146605 0 0)
(-50.6744 -0.511003 0 0.0193147 0 0)
(-50.7212 -0.573836 0 0.0254517 0 0)
(-50.771 -0.641025 0 0.0333436 0 0)
(-50.8251 -0.711982 0 0.043168 0 0)
(-50.8864 -0.7869 0 0.0552495 0 0)
(-50.9547 -0.863661 0 0.0695933 0 0)
(-51.0339 -0.943052 0 0.0866294 0 0)
(-51.1198 -1.02138 0 0.105907 0 0)
(-51.2187 -1.10168 0 0.128047 0 0)
(-49.8941 -0.0585103 0 0.0108291 0 0)
(-49.8549 -0.10155 0 0.00942707 0 0)
(-49.8439 -0.14297 0 0.00629749 0 0)
(-49.8765 -0.182515 0 0.00562046 0 0)
(-49.9321 -0.223481 0 0.00641577 0 0)
(-49.9953 -0.267209 0 0.00800316 0 0)
(-50.0623 -0.313479 0 0.0101729 0 0)
(-50.1323 -0.361959 0 0.0130165 0 0)
(-50.2035 -0.412484 0 0.0167332 0 0)
(-50.2755 -0.465527 0 0.0215429 0 0)
(-50.3482 -0.521149 0 0.0275997 0 0)
(-50.4244 -0.579771 0 0.0350857 0 0)
(-50.5047 -0.640682 0 0.0440625 0 0)
(-50.5929 -0.704322 0 0.0547379 0 0)
(-50.6868 -0.769113 0 0.0669997 0 0)
(-50.7909 -0.836367 0 0.0811561 0 0)
(-50.8986 -0.902812 0 0.0967242 0 0)
(-51.0187 -0.971741 0 0.114228 0 0)
(-49.8715 -0.0515743 0 0.0112048 0 0)
(-49.8874 -0.0622285 0 0.010748 0 0)
(-49.9228 -0.0951213 0 0.00857365 0 0)
(-49.9761 -0.135361 0 0.00787635 0 0)
(-50.0351 -0.173915 0 0.00819369 0 0)
(-50.0994 -0.211092 0 0.0092751 0 0)
(-50.1707 -0.250916 0 0.0110402 0 0)
(-50.2487 -0.296333 0 0.0134563 0 0)
(-50.3315 -0.347137 0 0.0165417 0 0)
(-50.4177 -0.401499 0 0.0204349 0 0)
(-50.5062 -0.456936 0 0.0252881 0 0)
(-50.5976 -0.512547 0 0.0312345 0 0)
(-50.6925 -0.567427 0 0.038271 0 0)
(-50.7925 -0.622675 0 0.0464911 0 0)
(-50.8971 -0.677373 0 0.0557354 0 0)
(-51.0076 -0.733463 0 0.0662021 0 0)
(-51.1223 -0.788107 0 0.0774971 0 0)
(-51.243 -0.844702 0 0.0899382 0 0)
(-49.949 -0.0292611 0 0.0110884 0 0)
(-49.9899 -0.0524052 0 0.0105718 0 0)
(-50.0365 -0.077886 0 0.0082487 0 0)
(-50.0915 -0.104702 0 0.00755347 0 0)
(-50.1534 -0.133118 0 0.00803782 0 0)
(-50.2195 -0.16278 0 0.00928872 0 0)
(-50.29 -0.194028 0 0.0111 0 0)
(-50.3668 -0.22789 0 0.013429 0 0)
(-50.4506 -0.264722 0 0.0163079 0 0)
(-50.5414 -0.304287 0 0.0197959 0 0)
(-50.6384 -0.345474 0 0.0239295 0 0)
(-50.7405 -0.387704 0 0.0287599 0 0)
(-50.8466 -0.429968 0 0.0342606 0 0)
(-50.9568 -0.472771 0 0.0404813 0 0)
(-51.0707 -0.515168 0 0.0472865 0 0)
(-51.189 -0.558527 0 0.0548073 0 0)
(-51.311 -0.600464 0 0.0627505 0 0)
(-51.4378 -0.643588 0 0.0713537 0 0)
(-50.0963 -0.0107302 0 0.0133105 0 0)
(-50.141 -0.0267835 0 0.011871 0 0)
(-50.1855 -0.042155 0 0.00885828 0 0)
(-50.2369 -0.0621267 0 0.00768342 0 0)
(-50.2982 -0.0852579 0 0.00764387 0 0)
(-50.3714 -0.109927 0 0.0083406 0 0)
(-50.453 -0.136003 0 0.00959366 0 0)
(-50.5389 -0.164337 0 0.0112744 0 0)
(-50.6287 -0.195607 0 0.0133079 0 0)
(-50.724 -0.229931 0 0.0156887 0 0)
(-50.8254 -0.266219 0 0.018449 0 0)
(-50.9321 -0.303339 0 0.0216488 0 0)
(-51.0429 -0.339755 0 0.0252913 0 0)
(-51.1572 -0.375374 0 0.029397 0 0)
(-51.2743 -0.409255 0 0.0338491 0 0)
(-51.3949 -0.442709 0 0.0387237 0 0)
(-51.5178 -0.474138 0 0.0438393 0 0)
(-51.644 -0.50628 0 0.0492889 0 0)
(-49.9316 0.0152327 0 0.0114959 0 0)
(-49.9727 0.00167215 0 0.010941 0 0)
(-50.0398 -0.0142042 0 0.00820196 0 0)
(-50.1183 -0.0273303 0 0.00716667 0 0)
(-50.1926 -0.0404785 0 0.00712952 0 0)
(-50.2674 -0.0549818 0 0.00767848 0 0)
(-50.3504 -0.0706623 0 0.0086156 0 0)
(-50.444 -0.0881443 0 0.00985151 0 0)
(-50.5474 -0.10827 0 0.0113721 0 0)
(-50.6585 -0.13133 0 0.013192 0 0)
(-50.7746 -0.156484 0 0.0153095 0 0)
(-50.8942 -0.182838 0 0.0177269 0 0)
(-51.0158 -0.209179 0 0.0204181 0 0)
(-51.1398 -0.235394 0 0.0233933 0 0)
(-51.2655 -0.260623 0 0.0265787 0 0)
(-51.3944 -0.285739 0 0.0300383 0 0)
(-51.5248 -0.309314 0 0.0336408 0 0)
(-51.66 -0.333305 0 0.0374581 0 0)
(-49.718 0.0227367 0 0.0118094 0 0)
(-49.7137 0.0286938 0 0.0106763 0 0)
(-49.7545 0.0201822 0 0.00785318 0 0)
(-49.838 0.00514153 0 0.00632036 0 0)
(-49.9387 -0.0110352 0 0.00582589 0 0)
(-50.0406 -0.0251595 0 0.00605049 0 0)
(-50.142 -0.0367669 0 0.00661288 0 0)
(-50.2458 -0.0485139 0 0.00736763 0 0)
(-50.3536 -0.0637273 0 0.00836233 0 0)
(-50.4659 -0.0839463 0 0.00958921 0 0)
(-50.5825 -0.108017 0 0.0109949 0 0)
(-50.7028 -0.133926 0 0.0125851 0 0)
(-50.8262 -0.159293 0 0.0143831 0 0)
(-50.9526 -0.183166 0 0.0164037 0 0)
(-51.0812 -0.204491 0 0.0185721 0 0)
(-51.2125 -0.224317 0 0.0209192 0 0)
(-51.3449 -0.24183 0 0.0233426 0 0)
(-51.4794 -0.2593 0 0.0258774 0 0)
(-49.8762 -0.0212558 0 0.00917952 0 0)
(-49.937 0.0329711 0 0.00767093 0 0)
(-50.0063 0.054855 0 0.00582251 0 0)
(-50.0873 0.0549002 0 0.00519699 0 0)
(-50.1827 0.0479771 0 0.0052088 0 0)
(-50.2882 0.0415525 0 0.00548633 0 0)
(-50.3957 0.0364431 0 0.00586355 0 0)
(-50.5014 0.0303035 0 0.0063605 0 0)
(-50.6072 0.0210225 0 0.00704392 0 0)
(-50.7165 0.00821223 0 0.00792073 0 0)
(-50.8329 -0.0069738 0 0.00896286 0 0)
(-50.957 -0.0232546 0 0.0101566 0 0)
(-51.0883 -0.0393558 0 0.0114813 0 0)
(-51.2232 -0.0550141 0 0.0129365 0 0)
(-51.3605 -0.0696423 0 0.0144705 0 0)
(-51.4964 -0.0838966 0 0.0161224 0 0)
(-51.6329 -0.097007 0 0.0178281 0 0)
(-51.7656 -0.110358 0 0.0196083 0 0)
(-50.2132 0.0552264 0 0.00861397 0 0)
(-50.3242 0.0611677 0 0.00636052 0 0)
(-50.4415 0.0679599 0 0.00410106 0 0)
(-50.5634 0.0686576 0 0.00329638 0 0)
(-50.6894 0.0649574 0 0.00321369 0 0)
(-50.8154 0.0595159 0 0.00339964 0 0)
(-50.9387 0.0529368 0 0.00369922 0 0)
(-51.0604 0.0447678 0 0.0040797 0 0)
(-51.1812 0.0349851 0 0.00454668 0 0)
(-51.3006 0.0239666 0 0.00511684 0 0)
(-51.4185 0.01227 0 0.00579373 0 0)
(-51.5361 9.51444e-06 0 0.00657693 0 0)
(-51.655 -0.0127285 0 0.00745816 0 0)
(-51.7764 -0.0260027 0 0.00842956 0 0)
(-51.9009 -0.0391598 0 0.00946046 0 0)
(-52.0284 -0.0521408 0 0.0105748 0 0)
(-52.1579 -0.0639379 0 0.0117279 0 0)
(-52.2888 -0.0752376 0 0.0129206 0 0)
(-49.864 0.0659918 0 0.00815475 0 0)
(-49.907 0.109156 0 0.00597321 0 0)
(-49.9955 0.133456 0 0.00396872 0 0)
(-50.1182 0.142057 0 0.00306215 0 0)
(-50.2444 0.143316 0 0.00270681 0 0)
(-50.3633 0.143675 0 0.00266989 0 0)
(-50.481 0.143291 0 0.00282715 0 0)
(-50.6049 0.139912 0 0.00310068 0 0)
(-50.7358 0.132624 0 0.00344106 0 0)
(-50.869 0.122403 0 0.00383436 0 0)
(-50.9998 0.111081 0 0.00429384 0 0)
(-51.1267 0.100139 0 0.00483195 0 0)
(-51.2509 0.0905482 0 0.00543816 0 0)
(-51.3742 0.0823561 0 0.00609454 0 0)
(-51.4989 0.0755212 0 0.00676418 0 0)
(-51.6261 0.0691861 0 0.0074818 0 0)
(-51.756 0.0634777 0 0.00822466 0 0)
(-51.8883 0.0571841 0 0.00899799 0 0)
(-50.2939 0.0431955 0 0.00750776 0 0)
(-50.4029 0.102829 0 0.00587504 0 0)
(-50.5491 0.121993 0 0.0040134 0 0)
(-50.7004 0.122354 0 0.00318853 0 0)
(-50.8349 0.121424 0 0.00292679 0 0)
(-50.951 0.123921 0 0.00285235 0 0)
(-51.0577 0.126755 0 0.0028274 0 0)
(-51.1637 0.12643 0 0.00286368 0 0)
(-51.2739 0.121937 0 0.00298171 0 0)
(-51.3912 0.114329 0 0.00316453 0 0)
(-51.5168 0.105034 0 0.00339598 0 0)
(-51.6507 0.0952435 0 0.00367405 0 0)
(-51.791 0.0861124 0 0.00400536 0 0)
(-51.9348 0.0782753 0 0.0043915 0 0)
(-52.0795 0.072193 0 0.00479953 0 0)
(-52.2231 0.0674276 0 0.00524092 0 0)
(-52.3649 0.0639314 0 0.00569326 0 0)
(-52.5038 0.0606308 0 0.00614438 0 0)
(-50.0698 0.129498 0 0.00557442 0 0)
(-50.1788 0.196699 0 0.0033139 0 0)
(-50.3173 0.215181 0 0.00191272 0 0)
(-50.4509 0.215818 0 0.00135899 0 0)
(-50.5623 0.217018 0 0.00111322 0 0)
(-50.6597 0.21978 0 0.00102395 0 0)
(-50.7562 0.220187 0 0.00101695 0 0)
(-50.8589 0.217399 0 0.001055 0 0)
(-50.9674 0.21326 0 0.00112684 0 0)
(-51.0794 0.209356 0 0.00122853 0 0)
(-51.1946 0.206088 0 0.00135847 0 0)
(-51.3149 0.203094 0 0.00152049 0 0)
(-51.4416 0.200059 0 0.00171729 0 0)
(-51.5744 0.196889 0 0.00194702 0 0)
(-51.7114 0.193765 0 0.00219706 0 0)
(-51.8507 0.190538 0 0.00248417 0 0)
(-51.9898 0.187449 0 0.00279051 0 0)
(-52.128 0.183993 0 0.00310748 0 0)
(-49.9739 0.0605061 0 0.00497804 0 0)
(-50.176 0.130131 0 0.00268721 0 0)
(-50.3899 0.146674 0 0.00160422 0 0)
(-50.5529 0.149597 0 0.00118406 0 0)
(-50.6721 0.15632 0 0.000982725 0 0)
(-50.7776 0.165151 0 0.000856509 0 0)
(-50.8898 0.171677 0 0.000773797 0 0)
(-51.0152 0.174584 0 0.000736275 0 0)
(-51.152 0.174692 0 0.000734849 0 0)
(-51.2959 0.173352 0 0.000758626 0 0)
(-51.4434 0.171675 0 0.000806961 0 0)
(-51.5918 0.170555 0 0.000877925 0 0)
(-51.7397 0.170205 0 0.000965412 0 0)
(-51.885 0.170668 0 0.00106187 0 0)
(-52.0283 0.171417 0 0.0011649 0 0)
(-52.1673 0.172272 0 0.00129059 0 0)
(-52.305 0.17289 0 0.00143657 0 0)
(-52.4377 0.173348 0 0.00159144 0 0)
(-49.9806 0.219543 0 0.00270638 0 0)
(-50.341 0.302983 0 5.91389e-05 0 0)
(-50.6582 0.285934 0 -0.00037599 0 0)
(-50.8922 0.276392 0 -0.000476609 0 0)
(-51.0665 0.279689 0 -0.00060096 0 0)
(-51.2044 0.2842 0 -0.000700851 0 0)
(-51.3146 0.286836 0 -0.00077291 0 0)
(-51.4012 0.288441 0 -0.000826217 0 0)
(-51.4683 0.289476 0 -0.000857679 0 0)
(-51.522 0.289985 0 -0.000865212 0 0)
(-51.5657 0.289737 0 -0.000848585 0 0)
(-51.6029 0.288858 0 -0.000812169 0 0)
(-51.6313 0.287288 0 -0.000756968 0 0)
(-51.6532 0.285467 0 -0.000688875 0 0)
(-51.6636 0.283204 0 -0.000609199 0 0)
(-51.6697 0.281104 0 -0.000518863 0 0)
(-51.6629 0.278891 0 -0.000419045 0 0)
(-51.6586 0.27741 0 -0.000326988 0 0)
(-49.0805 0.110358 0 0.00268361 0 0)
(-47.5238 0.199315 0 0.000550131 0 0)
(-45.9348 0.195588 0 0.000190462 0 0)
(-44.3451 0.191263 0 3.24449e-05 0 0)
(-42.8239 0.190397 0 -9.40006e-05 0 0)
(-41.3951 0.187366 0 -0.000166793 0 0)
(-40.0565 0.182063 0 -0.00019799 0 0)
(-38.8022 0.175897 0 -0.000208959 0 0)
(-37.6257 0.169807 0 -0.000211296 0 0)
(-36.5223 0.16428 0 -0.000210024 0 0)
(-35.4856 0.159313 0 -0.000206384 0 0)
(-34.5138 0.154794 0 -0.000200829 0 0)
(-33.5998 0.150433 0 -0.000191514 0 0)
(-32.7452 0.146263 0 -0.000180516 0 0)
(-31.9386 0.142121 0 -0.00016688 0 0)
(-31.1887 0.138329 0 -0.000147824 0 0)
(-30.4734 0.134691 0 -0.000129057 0 0)
(-29.8162 0.1318 0 -0.000122361 0 0)
(-0.00615313 0.0188581 -2.46331e-22 -0.043804 4.9457e-22 4.14923e-39)
(0.00191923 -0.015932 5.95442e-22 0.0224329 -3.01899e-22 4.08383e-39)
(0.203254 -0.13164 0 0.0540726 0 0)
(0.582123 -0.184418 0 0.0174143 0 0)
(0.949805 -0.114552 0 -0.0440046 0 0)
(1.09968 0.0455039 -6.60432e-22 -0.0800251 -3.5491e-22 3.83874e-39)
(0.951552 0.216059 0 -0.0698547 0 0)
(0.531981 0.319322 0 -0.0266373 0 0)
(-0.0031466 0.320736 0 0.0313127 0 0)
(-0.485151 0.232217 0 0.0835521 0 0)
(-0.753055 0.0881602 -1.18466e-21 0.114086 4.52398e-22 3.534e-39)
(-0.746482 -0.0420137 0 0.115683 0 0)
(-0.492242 -0.128499 0 0.104223 0 0)
(-0.0351973 -0.218966 0 0.0966014 0 0)
(0.552608 -0.332331 0 0.088918 0 0)
(1.25774 -0.475794 -2.3017e-21 0.0795791 1.40503e-22 3.25599e-39)
(2.13138 -0.383506 0 0.0577516 0 0)
(2.72634 -0.0428555 0 0.0553652 0 0)
(3.03421 0.146781 0 0.0769885 0 0)
(3.08811 0.222346 0 0.101513 0 0)
(3.09556 0.253909 0 0.12696 0 0)
(3.22583 0.277531 0 0.152675 0 0)
(3.53913 0.238429 0 0.162619 0 0)
(3.93102 0.0619368 -3.14486e-21 0.142249 3.90835e-23 2.86774e-39)
(4.57646 -0.167128 3.15545e-21 0.150436 6.68939e-23 2.82217e-39)
(5.28383 -0.196632 -3.12394e-21 0.16629 -1.25308e-22 2.77697e-39)
(5.9822 -0.163878 -3.09682e-21 0.215724 -1.58099e-22 2.7321e-39)
(6.72222 -0.153405 0 0.269174 0 0)
(7.45659 -0.171525 0 0.243358 0 0)
(8.18896 -0.275806 2.95065e-21 0.275144 1.97673e-22 2.59494e-39)
(8.94207 -0.353384 2.90756e-21 0.285503 2.60618e-22 2.54849e-39)
(9.7157 -0.401045 0 0.282704 0 0)
(10.4885 -0.42184 0 0.271824 0 0)
(11.1562 -0.384499 2.79743e-21 0.271658 1.47462e-22 2.41338e-39)
(11.6999 -0.354193 0 0.29286 0 0)
(12.2399 -0.386052 0 0.349385 0 0)
(12.9801 -0.54238 -3.03181e-21 0.44926 -3.33929e-23 2.28568e-39)
(14.1131 -0.741593 0 0.495101 0 0)
(15.5976 -0.859176 -3.78933e-21 0.451999 1.17738e-22 2.20461e-39)
(17.0955 -0.73292 -8.4582e-21 0.340556 2.72996e-22 8.65844e-39)
(18.0596 -0.42975 0 0.269674 0 0)
(18.2783 -0.229588 0 0.251013 0 0)
(17.8509 -0.0789025 0 0.278756 0 0)
(17.0395 -0.360725 0 0.304312 0 0)
(17.2065 -0.630938 0 0.382781 0 0)
(17.6595 -0.568881 -1.41231e-20 0.449725 7.13669e-22 7.75729e-39)
(18.1919 -1.17879 -1.4756e-20 0.464882 6.94952e-22 7.61185e-39)
(18.3621 -1.33615 -1.47635e-20 0.583353 6.81595e-22 7.46773e-39)
(18.4069 -0.245659 0 0.315886 0 0)
(17.0358 0.150636 1.44689e-20 0.40837 2.47807e-22 7.18135e-39)
(16.3621 -0.0315625 0 0.330932 0 0)
(15.8878 -0.104648 -1.3832e-20 0.323358 -3.81248e-23 6.90466e-39)
(15.5363 -0.120785 -1.36632e-20 0.298768 -3.23278e-23 6.77096e-39)
(15.2432 -0.220147 0 0.259023 0 0)
(15.4009 -0.362721 0 0.219489 0 0)
(15.4686 -0.948538 0 0.239059 0 0)
(15.7745 -0.671118 -1.46309e-20 0.224491 6.28177e-22 6.26187e-39)
(15.2009 -0.344259 0 0.339439 0 0)
(15.246 -0.476077 0 0.266135 0 0)
(15.7915 -0.488812 0 0.226839 0 0)
(16.6783 -0.557994 0 0.179916 0 0)
(18.0452 -0.650598 0 0.14315 0 0)
(19.7422 -0.742824 0 0.112426 0 0)
(21.5789 -0.778748 0 0.0915948 0 0)
(23.4055 -0.777861 0 0.0773193 0 0)
(24.9943 -0.733799 2.15978e-20 0.0677662 -8.10969e-22 5.24498e-39)
(26.2324 -0.670075 0 0.0619959 0 0)
(27.0377 -0.584114 0 0.060767 0 0)
(27.4088 -0.486382 -2.44221e-20 0.0639181 6.81272e-22 4.94298e-39)
(27.4516 -0.418637 -2.47874e-20 0.0695548 5.8784e-22 4.84618e-39)
(27.479 -0.413067 0 0.0745319 0 0)
(27.7097 -0.45575 2.47449e-20 0.0777325 -5.03158e-22 4.65719e-39)
(28.4929 -0.581469 -2.43571e-20 0.081512 5.65811e-22 4.56334e-39)
(29.9172 -0.713632 0 0.0831768 0 0)
(31.619 -0.733841 2.25027e-20 0.0768649 -5.45625e-22 4.37365e-39)
(33.2709 -0.612926 0 0.063409 0 0)
(34.5645 -0.391482 0 0.0496144 0 0)
(35.1054 -0.0816342 -1.73001e-20 0.0438029 2.22271e-22 4.10051e-39)
(34.5403 0.280055 0 0.0505682 0 0)
(32.6896 0.637821 1.43588e-20 0.0672171 5.79295e-23 3.93083e-39)
(29.7128 0.91154 0 0.0830463 0 0)
(25.9003 0.99494 -1.1836e-20 0.080144 -2.62244e-22 3.77095e-39)
(22.1616 0.930516 -1.07465e-20 0.0765378 -2.25411e-22 3.69343e-39)
(18.3924 0.664028 -9.76553e-21 0.086542 -8.69225e-23 3.6172e-39)
(16.1067 0.043306 -1.86103e-20 0.0857721 4.72146e-22 1.41682e-38)
(13.9926 -0.530132 1.76922e-20 0.152539 -9.4242e-22 1.3872e-38)
(12.0739 -0.773701 0 0.138585 0 0)
(8.08161 0.136122 0 0.341202 0 0)
(1.83673 1.62527 0 0.293514 0 0)
(-4.85425 1.4826 1.038e-20 0.342839 9.34195e-22 1.26846e-38)
(-8.136 0.740693 8.32186e-21 0.245984 8.51271e-23 1.23952e-38)
(-9.30513 0.224592 -8.08991e-21 0.185916 5.89207e-22 1.21162e-38)
(-8.90791 -0.153716 0 0.137651 0 0)
(-7.3791 -0.413183 1.30089e-20 0.105057 -1.44719e-21 1.1589e-38)
(-5.03036 -0.5919 1.73927e-20 0.0807441 -1.64877e-21 1.13385e-38)
(-2.10339 -0.708098 2.24851e-20 0.062482 -1.73831e-21 1.10948e-38)
(1.21026 -0.775873 0 0.0477494 0 0)
(4.74433 -0.803644 0 0.0356076 0 0)
(8.35742 -0.797832 0 0.0252756 0 0)
(11.9206 -0.763522 4.28026e-20 0.016458 -1.36759e-21 1.01639e-38)
(15.3204 -0.707441 0 0.00900733 0 0)
(18.4553 -0.630512 0 0.00278434 0 0)
(21.2478 -0.539215 -5.08632e-20 -0.00218395 6.93158e-22 9.48944e-39)
(23.6328 -0.437704 0 -0.00594169 0 0)
(25.5719 -0.331003 0 -0.00857326 0 0)
(27.0401 -0.222898 -4.92961e-20 -0.010196 1.12252e-23 8.83233e-39)
(28.0272 -0.117295 0 -0.0109349 0 0)
(28.5405 -0.0174931 0 -0.0109272 0 0)
(28.601 0.0735404 3.96832e-20 -0.010338 4.50918e-22 8.20143e-39)
(28.2459 0.153706 3.5413e-20 -0.00932929 5.38622e-22 7.99859e-39)
(27.5248 0.221255 0 -0.00807542 0 0)
(26.4941 0.275501 -2.64085e-20 -0.00672754 -6.21422e-22 7.60606e-39)
(25.2111 0.316987 0 -0.00540521 0 0)
(23.7275 0.347474 1.78192e-20 -0.00416723 6.14683e-22 7.23161e-39)
(22.0865 0.36916 0 -0.00303274 0 0)
(20.3219 0.384056 1.03475e-20 -0.00201581 5.65109e-22 6.87435e-39)
(18.4617 0.393763 7.10983e-21 -0.00105914 5.33618e-22 6.70158e-39)
(16.5302 0.398976 0 -0.000181976 0 0)
(14.5496 0.39987 0 0.000619942 0 0)
(12.5417 0.39637 0 0.00133359 0 0)
(10.5274 0.388481 0 0.00193619 0 0)
(8.52748 0.376352 0 0.00241429 0 0)
(6.56332 0.361861 0 0.00286056 0 0)
(4.65618 0.345134 0 0.00318554 0 0)
(2.81362 0.327043 -7.3896e-21 0.00342716 2.79092e-22 5.4375e-39)
(1.049 0.3063 8.07017e-21 0.00358409 -2.56698e-22 5.28989e-39)
(-0.631358 0.284636 0 0.00367478 0 0)
(-2.22021 0.262495 0 0.00371755 0 0)
(-3.71179 0.240045 0 0.00372421 0 0)
(-5.10189 0.217636 0 0.00370745 0 0)
(-6.38845 0.195661 1.93404e-20 0.00367903 -3.41399e-22 1.84046e-38)
(-7.57159 0.174412 0 0.0036502 0 0)
(-8.65312 0.153983 -1.95882e-20 0.00363075 2.83292e-22 1.73882e-38)
(-9.63557 0.13426 1.95785e-20 0.00362699 -2.53744e-22 1.68971e-38)
(-10.5209 0.114969 0 0.00364391 0 0)
(-11.3095 0.0957462 0 0.00368635 0 0)
(-11.9994 0.0762971 0 0.00375322 0 0)
(-12.5874 0.0564019 -1.88635e-20 0.00383563 1.26725e-22 1.50383e-38)
(-13.0688 0.035952 -1.85381e-20 0.00392243 9.19455e-23 1.45986e-38)
(-13.4379 0.0149658 0 0.00399979 0 0)
(-13.6893 -0.00647869 -1.77696e-20 0.00405268 3.18983e-23 1.37478e-38)
(-13.8174 -0.0281028 -1.73475e-20 0.00406855 2.23638e-25 1.33362e-38)
(-13.8187 -0.049484 1.6909e-20 0.00404305 3.20621e-23 1.29335e-38)
(-13.692 -0.0701989 0 0.0039743 0 0)
(-13.4382 -0.0898006 0 0.00386656 0 0)
(-13.0617 -0.107706 1.55794e-20 0.00375413 1.20621e-22 1.17775e-38)
(-12.5699 -0.123563 0 0.00365489 0 0)
(-11.973 -0.136909 0 0.00360903 0 0)
(-11.2837 -0.147128 0 0.00373441 0 0)
(-10.517 -0.154028 0 0.00401758 0 0)
(-9.68831 -0.157227 -1.30954e-20 0.00456714 -3.11631e-22 1.00129e-38)
(-8.81264 -0.156619 -1.23484e-20 0.0054969 -3.48208e-22 9.68278e-39)
(-7.90417 -0.151934 0 0.00682849 0 0)
(-6.97135 -0.145259 -1.03888e-20 0.0089965 -4.42762e-22 9.04439e-39)
(-6.00513 -0.135066 0 0.012331 0 0)
(-5.01179 -0.121381 0 0.0172526 0 0)
(-3.95783 -0.102909 -5.88645e-21 0.023668 -4.52435e-22 8.14234e-39)
(-2.84404 -0.071664 0 0.0312742 0 0)
(-1.70592 -0.0377277 -2.36625e-21 0.0254663 -1.69888e-22 7.57765e-39)
(-0.675951 0.0386549 0 0.006475 0 0)
(-0.0672094 0.0640734 0 0.00505734 0 0)
(0.230264 0.00955844 -3.04118e-22 0.00246761 1.18281e-23 6.77309e-39)
(0.398604 -0.0372526 0 0.00195723 0 0)
(0.535849 -0.0525161 -6.37744e-22 0.00206757 -1.04295e-22 6.26479e-39)
(0.670089 -0.0564704 0 0.0020153 0 0)
(0.848867 -0.0622494 0 0.00159489 0 0)
(1.08059 -0.0490625 0 0.0011439 0 0)
(1.28431 -0.0144775 1.25013e-21 0.000784252 2.98374e-23 5.32276e-39)
(1.37968 0.0170822 0 0.000599 0 0)
(1.35583 0.029685 -1.48452e-21 0.000545776 4.58046e-23 4.88807e-39)
(1.26493 0.0278293 0 0.000452171 0 0)
(1.16146 0.017892 0 0.000294715 0 0)
(1.09275 0.00678759 0 0.000148273 0 0)
(1.06398 -0.00409986 0 3.65247e-05 0 0)
(1.05735 -0.0102437 0 -4.37849e-05 0 0)
(1.06981 -0.0147088 0 -7.04461e-05 0 0)
(1.0318 -0.0152305 0 -0.000218826 0 0)
(1.1034 -0.00947324 4.52529e-21 -8.50108e-05 9.71429e-23 1.35063e-38)
(0.892073 -0.0192806 0 -0.000907534 0 0)
(1.28074 0.0311904 0 0.00109589 0 0)
(0.00490784 -0.00355873 1.12384e-22 0.057872 -3.35888e-21 3.73402e-38)
(0.0390958 -0.137012 -4.01415e-23 0.467442 2.46841e-21 3.6796e-38)
(0.151946 -0.303026 0 0.67469 0 0)
(0.220681 -0.272572 -2.49399e-22 0.487771 -2.64343e-22 1.58416e-38)
(0.127495 0.0718518 0 -0.0312958 0 0)
(-0.186505 0.546223 -5.49554e-22 -0.422556 7.6841e-22 3.8217e-39)