/*--------------------------------*- C++ -*----------------------------------*\
  =========                 |
  \\      /  F ield         | OpenFOAM: The Open Source CFD Toolbox
   \\    /   O peration     | Website:  https://openfoam.org
    \\  /    A nd           | Version:  9
     \\/     M anipulation  |
\*---------------------------------------------------------------------------*/
FoamFile
{
    format      ascii;
    class       surfaceScalarField;
    location    "0.084";
    object      phi_0;
}
// * * * * * * * * * * * * * * * * * * * * * * * * * * * * * * * * * * * * * //

dimensions      [0 3 -1 0 0 0 0];

internalField   nonuniform List<scalar> 
24170
(
3.10619e-06
8.60076e-08
2.99477e-06
1.11421e-07
2.89934e-06
9.5429e-08
2.82469e-06
7.46494e-08
2.75313e-06
7.15619e-08
2.66642e-06
8.67063e-08
2.56586e-06
1.00561e-07
2.46633e-06
9.95366e-08
2.38185e-06
8.44781e-08
2.31131e-06
7.05341e-08
2.24327e-06
6.80452e-08
2.16492e-06
7.83461e-08
2.07426e-06
9.06631e-08
1.98213e-06
9.21352e-08
1.89536e-06
8.67686e-08
1.82327e-06
7.20842e-08
1.76171e-06
6.15657e-08
5.95456e-08
1.70216e-06
3.40103e-06
-1.74581e-08
3.46083e-06
5.16253e-08
3.46017e-06
9.60872e-08
3.43236e-06
1.02462e-07
3.41715e-06
8.67723e-08
3.42823e-06
7.56184e-08
3.4516e-06
7.71977e-08
3.46835e-06
8.27793e-08
3.46888e-06
8.39557e-08
3.45264e-06
8.67723e-08
3.4239e-06
9.67859e-08
3.38804e-06
1.14199e-07
3.34764e-06
1.31063e-07
3.30634e-06
1.33437e-07
3.26702e-06
1.26095e-07
3.23106e-06
1.08042e-07
3.19999e-06
9.26374e-08
8.0671e-08
3.17886e-06
3.78569e-06
-9.45711e-08
3.77521e-06
6.21147e-08
3.72999e-06
1.41301e-07
3.69779e-06
1.34659e-07
3.68974e-06
9.48225e-08
3.70313e-06
6.22314e-08
3.72894e-06
5.13916e-08
3.75302e-06
5.86945e-08
3.76323e-06
7.37448e-08
3.7574e-06
9.26014e-08
3.74111e-06
1.1308e-07
3.72321e-06
1.32097e-07
3.7081e-06
1.46178e-07
3.69481e-06
1.4672e-07
3.68347e-06
1.3744e-07
3.67103e-06
1.20481e-07
3.66024e-06
1.03427e-07
8.9687e-08
3.65122e-06
3.86405e-06
-1.20984e-07
3.86824e-06
5.79314e-08
3.90786e-06
1.01682e-07
3.9596e-06
8.292e-08
3.99281e-06
6.16087e-08
4.00181e-06
5.32337e-08
3.9961e-06
5.71015e-08
3.9883e-06
6.64935e-08
3.98541e-06
7.66291e-08
3.98846e-06
8.95589e-08
3.9939e-06
1.07632e-07
3.99789e-06
1.28109e-07
3.99827e-06
1.45806e-07
3.99302e-06
1.51964e-07
3.9841e-06
1.46364e-07
3.97128e-06
1.33294e-07
3.9573e-06
1.17411e-07
1.04771e-07
3.94222e-06
4.20978e-06
-1.95631e-07
4.21643e-06
5.12766e-08
4.22153e-06
9.65852e-08
4.26161e-06
4.28381e-08
4.29955e-06
2.36721e-08
4.31317e-06
3.96135e-08
4.30348e-06
6.67958e-08
4.28354e-06
8.64346e-08
4.26461e-06
9.55578e-08
4.2522e-06
1.01965e-07
4.24706e-06
1.12777e-07
4.24737e-06
1.27795e-07
4.25076e-06
1.42418e-07
4.25284e-06
1.49882e-07
4.25117e-06
1.48036e-07
4.24403e-06
1.40432e-07
4.23123e-06
1.30207e-07
1.21834e-07
4.21417e-06
4.45153e-06
-1.57914e-07
4.46548e-06
3.73256e-08
4.49339e-06
6.86809e-08
4.50646e-06
2.97658e-08
4.51839e-06
1.17472e-08
4.5396e-06
1.83955e-08
4.5697e-06
3.66992e-08
4.59944e-06
5.669e-08
4.61899e-06
7.60134e-08
4.62522e-06
9.57351e-08
4.62187e-06
1.16127e-07
4.61506e-06
1.34603e-07
4.60953e-06
1.47946e-07
4.60604e-06
1.53379e-07
4.60301e-06
1.5106e-07
4.59879e-06
1.44656e-07
4.59116e-06
1.3784e-07
1.34025e-07
4.57896e-06
4.89744e-06
-1.0831e-07
4.91528e-06
1.94876e-08
4.92398e-06
5.99794e-08
4.89957e-06
5.41792e-08
4.87034e-06
4.09778e-08
4.85905e-06
2.96818e-08
4.87088e-06
2.4874e-08
4.89529e-06
3.2272e-08
4.91715e-06
5.41558e-08
4.92606e-06
8.68262e-08
4.92034e-06
1.21851e-07
4.90552e-06
1.49424e-07
4.88989e-06
1.63574e-07
4.87978e-06
1.6349e-07
4.87744e-06
1.53399e-07
4.88205e-06
1.40047e-07
4.8912e-06
1.2869e-07
1.24015e-07
4.90121e-06
5.14254e-06
-4.93859e-08
5.18406e-06
-2.20323e-08
5.25159e-06
-7.55107e-09
5.29617e-06
9.59876e-09
5.29153e-06
4.56174e-08
5.24849e-06
7.273e-08
5.19673e-06
7.66322e-08
5.15903e-06
6.997e-08
5.14446e-06
6.8724e-08
5.15254e-06
7.87519e-08
5.17747e-06
9.69173e-08
5.211e-06
1.15894e-07
5.24514e-06
1.29435e-07
5.27292e-06
1.35707e-07
5.28998e-06
1.36337e-07
5.29542e-06
1.34606e-07
5.29084e-06
1.33271e-07
1.33666e-07
5.28119e-06
5.60061e-06
-9.38076e-08
5.64578e-06
-6.72083e-08
5.68076e-06
-4.25344e-08
5.71332e-06
-2.29535e-08
5.73728e-06
2.16495e-08
5.73782e-06
7.21959e-08
5.71282e-06
1.01634e-07
5.6733e-06
1.09487e-07
5.63508e-06
1.06943e-07
5.60959e-06
1.04243e-07
5.60117e-06
1.05335e-07
5.60776e-06
1.09302e-07
5.62408e-06
1.13121e-07
5.64401e-06
1.15772e-07
5.66165e-06
1.18696e-07
5.67278e-06
1.23481e-07
5.67382e-06
1.32233e-07
1.43273e-07
5.66421e-06
5.99893e-06
-1.89469e-07
6.02763e-06
-9.5903e-08
6.03355e-06
-4.84564e-08
6.04977e-06
-3.91744e-08
6.07952e-06
-8.0975e-09
6.09232e-06
5.93937e-08
6.07275e-06
1.21205e-07
6.03473e-06
1.47506e-07
6.0021e-06
1.39573e-07
5.98747e-06
1.18873e-07
5.98902e-06
1.03786e-07
5.99839e-06
9.99306e-08
6.00824e-06
1.03275e-07
6.0155e-06
1.08506e-07
6.02061e-06
1.13589e-07
6.02434e-06
1.19746e-07
6.02836e-06
1.28222e-07
1.40876e-07
6.03075e-06
6.44192e-06
-1.73694e-07
6.46633e-06
-1.20314e-07
6.4637e-06
-4.58224e-08
6.45158e-06
-2.70533e-08
6.45552e-06
-1.20407e-08
6.48377e-06
3.11398e-08
6.51678e-06
8.81999e-08
6.53687e-06
1.27415e-07
6.53732e-06
1.39129e-07
6.52183e-06
1.34357e-07
6.49797e-06
1.27651e-07
6.47219e-06
1.25707e-07
6.4473e-06
1.28165e-07
6.4242e-06
1.31603e-07
6.40365e-06
1.34142e-07
6.38689e-06
1.36511e-07
6.3759e-06
1.39205e-07
1.45061e-07
6.37172e-06
5.78198e-06
-1.3919e-07
5.81987e-06
-1.58201e-07
5.83285e-06
-5.88054e-08
5.80976e-06
-3.9682e-09
5.79226e-06
5.46709e-09
5.79719e-06
2.62019e-08
5.82578e-06
5.96122e-08
5.86403e-06
8.91617e-08
5.89288e-06
1.10284e-07
5.90202e-06
1.25214e-07
5.89385e-06
1.35827e-07
5.87832e-06
1.41232e-07
5.8646e-06
1.41886e-07
5.85746e-06
1.38742e-07
5.85646e-06
1.35136e-07
5.85992e-06
1.33059e-07
5.86502e-06
1.34105e-07
1.39087e-07
5.87099e-06
7.02009e-06
-2.0146e-07
7.03702e-06
-1.75125e-07
7.02642e-06
-4.82113e-08
7.04256e-06
-2.01084e-08
7.06091e-06
-1.28758e-08
7.07244e-06
1.46651e-08
7.07754e-06
5.45162e-08
7.07706e-06
8.96418e-08
7.07405e-06
1.13297e-07
7.0715e-06
1.27759e-07
7.07311e-06
1.34222e-07
7.08205e-06
1.32288e-07
7.09944e-06
1.24496e-07
7.12316e-06
1.15024e-07
7.1485e-06
1.09795e-07
7.17124e-06
1.10316e-07
7.18733e-06
1.18021e-07
1.29785e-07
7.19663e-06
8.76597e-06
5.26599e-08
8.61917e-06
-2.83283e-08
8.62963e-06
-5.86626e-08
8.62957e-06
-2.00575e-08
8.6021e-06
1.46031e-08
8.57367e-06
4.30871e-08
8.55994e-06
6.82451e-08
8.55662e-06
9.29652e-08
8.55399e-06
1.1593e-07
8.55215e-06
1.296e-07
8.55871e-06
1.27664e-07
8.57994e-06
1.11058e-07
8.61575e-06
8.86838e-08
8.65958e-06
7.11936e-08
8.70225e-06
6.71288e-08
8.73495e-06
7.76125e-08
8.75264e-06
1.00331e-07
1.29434e-07
8.75299e-06
1.05816e-05
2.17346e-07
1.04561e-05
9.71907e-08
1.04166e-05
-1.91663e-08
1.04537e-05
-5.7094e-08
1.05208e-05
-5.25683e-08
1.05646e-05
-7.1153e-10
1.05746e-05
5.83071e-08
1.05664e-05
1.01128e-07
1.05681e-05
1.14213e-07
1.05901e-05
1.0763e-07
1.0621e-05
9.67187e-08
1.06423e-05
8.97868e-08
1.06421e-05
8.88841e-08
1.06205e-05
9.28136e-08
1.05882e-05
9.94037e-08
1.05569e-05
1.08949e-07
1.05374e-05
1.19784e-07
1.33836e-07
1.0533e-05
1.3055e-05
1.83081e-07
1.30004e-05
1.51775e-07
1.2931e-05
5.02163e-08
1.28805e-05
-6.57785e-09
1.28179e-05
1.00772e-08
1.2748e-05
6.91254e-08
1.26965e-05
1.0983e-07
1.26879e-05
1.09756e-07
1.27154e-05
8.66641e-08
1.27557e-05
6.7378e-08
1.27866e-05
6.57556e-08
1.27973e-05
7.90903e-08
1.27887e-05
9.75352e-08
1.27694e-05
1.12089e-07
1.27507e-05
1.18092e-07
1.27419e-05
1.1775e-07
1.27479e-05
1.13771e-07
1.12785e-07
1.2769e-05
1.58746e-05
1.19121e-07
1.59433e-05
8.30449e-08
1.59845e-05
9.0722e-09
1.59228e-05
5.50729e-08
1.57842e-05
1.48711e-07
1.56606e-05
1.92748e-07
1.56026e-05
1.67817e-07
1.56014e-05
1.10961e-07
1.56196e-05
6.8427e-08
1.56276e-05
5.94334e-08
1.56187e-05
7.46092e-08
1.56009e-05
9.69007e-08
1.55844e-05
1.13984e-07
1.55753e-05
1.21264e-07
1.5573e-05
1.20345e-07
1.55745e-05
1.16221e-07
1.55748e-05
1.13479e-07
1.15178e-07
1.55724e-05
1.86321e-05
-1.33248e-07
1.86659e-05
4.92641e-08
1.86361e-05
3.88115e-08
1.86648e-05
2.64476e-08
1.87682e-05
4.53005e-08
1.8888e-05
7.29096e-08
1.89697e-05
8.61225e-08
1.89975e-05
8.31994e-08
1.89906e-05
7.52972e-08
1.89774e-05
7.26768e-08
1.89761e-05
7.58868e-08
1.89903e-05
8.26297e-08
1.90134e-05
9.09675e-08
1.90337e-05
1.00891e-07
1.90418e-05
1.12304e-07
1.9033e-05
1.24994e-07
1.90086e-05
1.37891e-07
1.49757e-07
1.8974e-05
2.30727e-05
-1.39455e-08
2.30927e-05
2.92285e-08
2.30848e-05
4.67502e-08
2.30393e-05
7.19095e-08
2.30234e-05
6.12344e-08
2.30596e-05
3.66741e-08
2.31201e-05
2.56287e-08
2.31647e-05
3.86403e-08
2.31744e-05
6.5571e-08
2.31524e-05
9.467e-08
2.31146e-05
1.13677e-07
2.30796e-05
1.17582e-07
2.30621e-05
1.08499e-07
2.30695e-05
9.35529e-08
2.31021e-05
7.96506e-08
2.31559e-05
7.12375e-08
2.3225e-05
6.87716e-08
7.1824e-08
2.33029e-05
1.66928e-05
-1.15751e-07
1.68822e-05
-1.60083e-07
1.70671e-05
-1.38169e-07
1.71844e-05
-4.537e-08
1.7203e-05
4.26234e-08
1.71558e-05
8.38653e-08
1.70912e-05
9.02183e-08
1.70456e-05
8.42014e-08
1.70205e-05
9.07373e-08
1.70032e-05
1.1194e-07
1.69833e-05
1.33583e-07
1.69592e-05
1.4166e-07
1.69371e-05
1.3061e-07
1.69269e-05
1.03793e-07
1.69359e-05
7.0616e-08
1.69661e-05
4.10546e-08
1.70145e-05
2.03655e-08
1.3665e-08
1.70726e-05
1.50556e-05
6.49811e-08
1.49036e-05
-8.09852e-09
1.48138e-05
-4.83899e-08
1.48277e-05
-5.92993e-08
1.49058e-05
-3.54864e-08
1.49854e-05
4.33822e-09
1.50194e-05
5.61884e-08
1.50003e-05
1.03266e-07
1.49506e-05
1.40497e-07
1.48996e-05
1.62954e-07
1.48634e-05
1.69721e-07
1.48448e-05
1.60244e-07
1.48397e-05
1.35767e-07
1.48444e-05
9.90781e-08
1.4859e-05
5.59909e-08
1.48857e-05
1.44147e-08
1.49278e-05
-2.17169e-08
-4.1046e-08
1.49825e-05
1.251e-05
2.8277e-07
1.24992e-05
2.74502e-09
1.25524e-05
-1.01641e-07
1.26267e-05
-1.33566e-07
1.27305e-05
-1.39227e-07
1.28525e-05
-1.17721e-07
1.29638e-05
-5.50598e-08
1.30276e-05
3.94318e-08
1.30396e-05
1.28525e-07
1.30149e-05
1.8763e-07
1.29752e-05
2.09389e-07
1.29373e-05
1.98165e-07
1.29099e-05
1.63139e-07
1.28944e-05
1.1458e-07
1.28893e-05
6.11218e-08
1.28918e-05
1.18681e-08
1.28952e-05
-2.50676e-08
-4.98919e-08
1.2904e-05
1.10722e-05
1.05057e-07
1.11407e-05
-6.57656e-08
1.11952e-05
-1.56146e-07
1.11871e-05
-1.25409e-07
1.11336e-05
-8.57389e-08
1.10881e-05
-7.22332e-08
1.10854e-05
-5.23947e-08
1.11263e-05
-1.40443e-09
1.11923e-05
6.25094e-08
1.12611e-05
1.18833e-07
1.13232e-05
1.47304e-07
1.13767e-05
1.44605e-07
1.14218e-05
1.18041e-07
1.14577e-05
7.86896e-08
1.14827e-05
3.6086e-08
1.14978e-05
-3.2e-09
1.1508e-05
-3.52714e-08
-5.44003e-08
1.15125e-05
9.73218e-06
8.09608e-08
9.78231e-06
-1.15896e-07
9.8113e-06
-1.85133e-07
9.80765e-06
-1.21757e-07
9.78417e-06
-6.22628e-08
9.75524e-06
-4.33053e-08
9.73711e-06
-3.42654e-08
9.74433e-06
-8.62358e-09
9.77492e-06
3.19246e-08
9.82661e-06
6.71446e-08
9.88896e-06
8.49454e-08
9.95038e-06
8.31908e-08
1.00018e-05
6.66066e-08
1.00393e-05
4.11761e-08
1.0064e-05
1.14221e-08
1.00746e-05
-1.38398e-08
1.00752e-05
-3.58814e-08
-4.87253e-08
1.00696e-05
8.57906e-06
7.89014e-09
8.54574e-06
-8.25789e-08
8.4465e-06
-8.58969e-08
8.41174e-06
-8.69876e-08
8.41752e-06
-6.80489e-08
8.42226e-06
-4.804e-08
8.42135e-06
-3.33548e-08
8.42958e-06
-1.68532e-08
8.45553e-06
5.97347e-09
8.4919e-06
3.07677e-08
8.52526e-06
5.15895e-08
8.54706e-06
6.13902e-08
8.55591e-06
5.77595e-08
8.55615e-06
4.0934e-08
8.55226e-06
1.53129e-08
8.55245e-06
-1.40276e-08
8.55557e-06
-3.90065e-08
-5.33624e-08
8.56021e-06
7.43469e-06
3.87569e-08
7.36628e-06
-1.41757e-08
7.32126e-06
-4.08741e-08
7.31453e-06
-8.02564e-08
7.34585e-06
-9.93695e-08
7.37728e-06
-7.94676e-08
7.39066e-06
-4.67374e-08
7.39526e-06
-2.14529e-08
7.40774e-06
-6.50174e-09
7.43733e-06
1.17887e-09
7.4843e-06
4.61558e-09
7.54344e-06
2.24988e-09
7.60578e-06
-4.57886e-09
7.66236e-06
-1.56472e-08
7.70559e-06
-2.79228e-08
7.73033e-06
-3.87666e-08
7.73753e-06
-4.62007e-08
-4.83263e-08
7.73249e-06
6.40435e-06
-8.40656e-08
6.52314e-06
-1.32969e-07
6.56917e-06
-8.69031e-08
6.55404e-06
-6.51253e-08
6.52078e-06
-6.61087e-08
6.50039e-06
-5.90854e-08
6.49283e-06
-3.9174e-08
6.48955e-06
-1.81689e-08
6.48922e-06
-6.17606e-09
6.49626e-06
-5.85651e-09
6.51516e-06
-1.42837e-08
6.5448e-06
-2.73975e-08
6.58014e-06
-3.99205e-08
6.61246e-06
-4.79599e-08
6.63398e-06
-4.9445e-08
6.64019e-06
-4.49761e-08
6.63057e-06
-3.65775e-08
-2.78075e-08
6.61005e-06
5.52724e-06
-5.33011e-08
5.57948e-06
-1.85209e-07
5.61713e-06
-1.24555e-07
5.62383e-06
-7.18251e-08
5.60178e-06
-4.40552e-08
5.57942e-06
-3.6731e-08
5.57845e-06
-3.82051e-08
5.60334e-06
-4.30558e-08
5.64442e-06
-4.72552e-08
5.68549e-06
-4.69275e-08
5.71336e-06
-4.21489e-08
5.72293e-06
-3.69709e-08
5.71745e-06
-3.44366e-08
5.70435e-06
-3.48593e-08
5.69152e-06
-3.66158e-08
5.68432e-06
-3.77782e-08
5.68525e-06
-3.75128e-08
-3.66987e-08
5.69414e-06
4.97012e-06
-1.51171e-07
4.93655e-06
-1.51634e-07
4.89941e-06
-8.74171e-08
4.89364e-06
-6.60568e-08
4.91067e-06
-6.10842e-08
4.92625e-06
-5.23134e-08
4.93074e-06
-4.26945e-08
4.93055e-06
-4.28691e-08
4.93468e-06
-5.13855e-08
4.94586e-06
-5.81054e-08
4.96082e-06
-5.71102e-08
4.97405e-06
-5.0196e-08
4.98139e-06
-4.17748e-08
4.9815e-06
-3.49696e-08
4.9759e-06
-3.10142e-08
4.96762e-06
-2.9507e-08
4.96055e-06
-3.04405e-08
-3.33728e-08
4.95723e-06
4.23484e-06
4.08321e-06
3.99579e-06
3.92973e-06
3.86865e-06
3.81634e-06
3.77364e-06
3.73077e-06
3.67939e-06
3.62128e-06
3.56417e-06
3.51398e-06
3.4722e-06
3.43723e-06
3.40622e-06
3.37671e-06
3.34627e-06
3.3129e-06
-1.71059e-07
1.71059e-07
-3.20762e-07
1.49704e-07
-3.86691e-07
6.59289e-08
-3.75956e-07
-1.07358e-08
-3.27486e-07
-4.84699e-08
-2.83587e-07
-4.38988e-08
-2.77471e-07
-6.11536e-09
-3.11458e-07
3.39869e-08
-3.6486e-07
5.34016e-08
-3.87142e-07
2.2282e-08
-3.23195e-07
-6.39466e-08
-2.4139e-07
-8.18054e-08
-2.90406e-07
4.90159e-08
-4.40428e-07
1.50022e-07
-5.34105e-07
9.36771e-08
-5.35859e-07
1.75378e-09
-4.92515e-07
-4.3344e-08
-4.67069e-07
-2.54463e-08
-5.09076e-07
4.20075e-08
-6.66857e-07
1.5778e-07
-9.65825e-07
2.98969e-07
-1.39585e-06
4.30022e-07
-1.86789e-06
4.7204e-07
-2.24278e-06
3.7489e-07
-2.48903e-06
2.46257e-07
-2.69372e-06
2.04687e-07
-2.91667e-06
2.22944e-07
-3.15371e-06
2.37048e-07
-3.4026e-06
2.4889e-07
-3.67801e-06
2.75408e-07
-3.97369e-06
2.9568e-07
-4.27551e-06
3.01816e-07
-4.5831e-06
3.07587e-07
-4.89145e-06
3.08356e-07
-5.19165e-06
3.00198e-07
-5.48237e-06
2.90723e-07
-5.76196e-06
2.79587e-07
-6.02662e-06
2.64665e-07
-6.27362e-06
2.46993e-07
-6.50001e-06
2.26397e-07
-6.70261e-06
2.02594e-07
-6.87823e-06
1.75619e-07
-7.02335e-06
1.45128e-07
-7.13412e-06
1.10763e-07
-7.20653e-06
7.2413e-08
-7.23781e-06
3.12786e-08
-7.22554e-06
-1.22733e-08
-7.16762e-06
-5.79184e-08
-7.06341e-06
-1.04207e-07
-6.91161e-06
-1.51804e-07
-6.71067e-06
-2.00938e-07
-6.45928e-06
-2.51387e-07
-6.15636e-06
-3.02923e-07
-5.80132e-06
-3.55042e-07
-5.39484e-06
-4.06473e-07
-4.94048e-06
-4.54359e-07
-4.44707e-06
-4.93415e-07
-3.93074e-06
-5.1633e-07
-3.41584e-06
-5.14903e-07
-2.93101e-06
-4.84831e-07
-2.49682e-06
-4.34183e-07
-2.10832e-06
-3.88507e-07
-1.72676e-06
-3.81554e-07
-1.30166e-06
-4.25105e-07
-8.41277e-07
-4.6038e-07
-3.6569e-07
-4.75586e-07
1.60003e-07
-5.25693e-07
7.62104e-07
-6.02101e-07
1.46384e-06
-7.01737e-07
2.25673e-06
-7.92884e-07
3.10879e-06
-8.52063e-07
3.9296e-06
-8.20816e-07
4.58054e-06
-6.50931e-07
4.89299e-06
-3.12451e-07
4.8596e-06
3.33829e-08
4.38663e-06
4.7297e-07
3.14428e-06
1.24236e-06
1.58914e-06
1.55513e-06
5.13281e-07
1.07586e-06
1.043e-08
5.02852e-07
2.51245e-08
-1.46945e-08
4.64549e-07
-4.39424e-07
1.11296e-06
-6.48407e-07
1.58927e-06
-4.76309e-07
1.7729e-06
-1.8363e-07
1.75473e-06
1.81677e-08
1.63973e-06
1.14994e-07
1.48801e-06
1.51727e-07
1.34041e-06
1.47599e-07
1.23353e-06
1.06882e-07
1.18951e-06
4.40129e-08
1.21146e-06
-2.19507e-08
1.28934e-06
-7.78723e-08
1.40864e-06
-1.19302e-07
1.55263e-06
-1.43987e-07
1.69684e-06
-1.44215e-07
1.80292e-06
-1.06082e-07
1.83887e-06
-3.59479e-08
1.77599e-06
6.28758e-08
1.57388e-06
2.02112e-07
1.1788e-06
3.95084e-07
5.41525e-07
6.37274e-07
-3.41355e-07
8.82879e-07
-1.39772e-06
1.05637e-06
-2.55447e-06
1.15675e-06
-3.75895e-06
1.20448e-06
-4.97595e-06
1.217e-06
-6.18348e-06
1.20753e-06
-7.36752e-06
1.18404e-06
-8.51716e-06
1.14964e-06
-9.62081e-06
1.10365e-06
-1.06641e-05
1.0433e-06
-1.16292e-05
9.6512e-07
-1.24948e-05
8.65545e-07
-1.32366e-05
7.41847e-07
-1.38296e-05
5.92988e-07
-1.42499e-05
4.20305e-07
-1.44777e-05
2.27817e-07
-1.44986e-05
2.08734e-08
-1.43158e-05
-1.82797e-07
-1.39262e-05
-3.89612e-07
-1.33337e-05
-5.92479e-07
-1.25539e-05
-7.79852e-07
-1.16159e-05
-9.37985e-07
-1.05612e-05
-1.05465e-06
-9.43239e-06
-1.12884e-06
-8.26643e-06
-1.16596e-06
-7.09097e-06
-1.17546e-06
-5.92429e-06
-1.16668e-06
-4.77766e-06
-1.14663e-06
-3.65987e-06
-1.1178e-06
-2.57981e-06
-1.08005e-06
-1.54861e-06
-1.03121e-06
-5.76967e-07
-9.7164e-07
3.27655e-07
-9.04621e-07
1.165e-06
-8.3735e-07
1.92549e-06
-7.6048e-07
2.60974e-06
-6.84257e-07
3.21979e-06
-6.10045e-07
3.75767e-06
-5.37884e-07
4.22439e-06
-4.66715e-07
4.61944e-06
-3.95057e-07
4.94083e-06
-3.21391e-07
5.18679e-06
-2.45956e-07
5.35621e-06
-1.69424e-07
5.44673e-06
-9.05109e-08
5.4601e-06
-1.33771e-08
5.4106e-06
4.95002e-08
5.31259e-06
9.80076e-08
5.15685e-06
1.55747e-07
4.91283e-06
2.44019e-07
4.56537e-06
3.47462e-07
4.14877e-06
4.16597e-07
3.73382e-06
4.14954e-07
3.382e-06
3.51819e-07
3.11615e-06
2.65845e-07
2.9269e-06
1.89256e-07
2.79081e-06
1.36089e-07
2.68524e-06
1.05572e-07
2.59628e-06
8.89597e-08
2.51765e-06
7.86281e-08
2.44677e-06
7.0875e-08
2.38307e-06
6.37051e-08
2.32595e-06
5.7115e-08
2.27781e-06
4.81407e-08
2.24335e-06
3.4463e-08
2.22206e-06
2.12917e-08
2.2104e-06
1.16602e-08
2.20789e-06
2.50669e-09
2.21078e-06
-2.88449e-09
2.20516e-06
5.61921e-09
2.19192e-06
1.32328e-08
2.18079e-06
1.11343e-08
2.16024e-06
2.05538e-08
2.11822e-06
4.20189e-08
2.0732e-06
4.50194e-08
2.01094e-06
6.22579e-08
1.92669e-06
8.42447e-08
1.77316e-06
1.53533e-07
1.47529e-07
1.62563e-06
-4.14378e-08
2.12496e-07
-2.66782e-08
1.34944e-07
1.13472e-07
-7.42213e-08
3.13938e-07
-2.11202e-07
5.02445e-07
-2.36977e-07
6.25919e-07
-1.67373e-07
6.52583e-07
-3.27793e-08
5.71322e-07
1.15248e-07
3.80248e-07
2.44476e-07
1.20848e-07
2.81682e-07
-1.70825e-07
2.27727e-07
-4.43918e-07
1.91288e-07
-5.86819e-07
1.91916e-07
-5.91445e-07
1.54649e-07
-6.33747e-07
1.35979e-07
-7.94155e-07
1.62162e-07
-9.76266e-07
1.38767e-07
-1.18728e-06
1.85563e-07
-1.4938e-06
3.48529e-07
-1.88418e-06
5.48163e-07
-2.2885e-06
7.03292e-07
-2.59464e-06
7.36164e-07
-2.77178e-06
6.49179e-07
-2.90408e-06
5.07183e-07
-3.07005e-06
4.12231e-07
-3.29099e-06
4.25626e-07
-3.56358e-06
4.95537e-07
-3.87307e-06
5.46537e-07
-4.19709e-06
5.72909e-07
-4.51735e-06
5.95665e-07
-4.82718e-06
6.05518e-07
-5.12512e-06
5.99753e-07
-5.41024e-06
5.92704e-07
-5.68615e-06
5.84269e-07
-5.95616e-06
5.70207e-07
-6.21854e-06
5.53096e-07
-6.47162e-06
5.32671e-07
-6.71376e-06
5.06803e-07
-6.94172e-06
4.74955e-07
-7.15206e-06
4.3674e-07
-7.34099e-06
3.91522e-07
-7.50395e-06
3.38582e-07
-7.63625e-06
2.77425e-07
-7.73365e-06
2.08161e-07
-7.79257e-06
1.3134e-07
-7.80811e-06
4.68138e-08
-7.77816e-06
-4.22221e-08
-7.70045e-06
-1.3563e-07
-7.57134e-06
-2.33316e-07
-7.39073e-06
-3.32411e-07
-7.1606e-06
-4.31072e-07
-6.88397e-06
-5.28017e-07
-6.5648e-06
-6.22089e-07
-6.20796e-06
-7.11889e-07
-5.81903e-06
-7.95395e-07
-5.40418e-06
-8.69213e-07
-4.97018e-06
-9.27411e-07
-4.52523e-06
-9.61285e-07
-4.07834e-06
-9.61791e-07
-3.63768e-06
-9.25495e-07
-3.20834e-06
-8.63519e-07
-2.78729e-06
-8.09553e-07
-2.36068e-06
-8.08167e-07
-1.91605e-06
-8.69736e-07
-1.45179e-06
-9.24645e-07
-9.72919e-07
-9.54453e-07
-4.31534e-07
-1.06708e-06
1.94152e-07
-1.22779e-06
9.26819e-07
-1.4344e-06
1.77413e-06
-1.6402e-06
2.71426e-06
-1.79219e-06
3.62368e-06
-1.73024e-06
4.37466e-06
-1.40191e-06
4.88567e-06
-8.23463e-07
5.04431e-06
-1.2526e-07
4.98781e-06
5.29475e-07
4.83068e-06
1.39949e-06
4.28868e-06
2.09713e-06
3.25171e-06
2.11284e-06
2.19847e-06
1.5561e-06
1.46533e-06
7.18445e-07
1.25681e-06
-2.30909e-07
1.39219e-06
-7.8379e-07
1.47381e-06
-5.57927e-07
1.32581e-06
-3.56256e-08
1.03275e-06
3.11226e-07
6.75766e-07
4.71977e-07
3.32005e-07
4.95488e-07
4.56881e-08
4.33916e-07
-1.77391e-07
3.29961e-07
-3.41594e-07
2.08216e-07
-4.50046e-07
8.65015e-08
-5.07208e-07
-2.07108e-08
-5.25166e-07
-1.01345e-07
-5.20522e-07
-1.48631e-07
-5.26646e-07
-1.38091e-07
-5.82532e-07
-5.01961e-08
-7.30781e-07
1.12301e-07
-1.01954e-06
3.5163e-07
-1.48505e-06
6.67632e-07
-2.12673e-06
1.03676e-06
-2.90917e-06
1.41972e-06
-3.78416e-06
1.75787e-06
-4.71516e-06
1.98737e-06
-5.67684e-06
2.11843e-06
-6.64558e-06
2.17322e-06
-7.60516e-06
2.17658e-06
-8.54515e-06
2.14752e-06
-9.45831e-06
2.09719e-06
-1.03377e-05
2.02903e-06
-1.1175e-05
1.94092e-06
-1.1959e-05
1.82731e-06
-1.26749e-05
1.681e-06
-1.33047e-05
1.49535e-06
-1.38293e-05
1.26649e-06
-1.423e-05
9.93644e-07
-1.44908e-05
6.81095e-07
-1.45984e-05
3.35447e-07
-1.45316e-05
-4.59348e-08
-1.42797e-05
-4.34699e-07
-1.38283e-05
-8.40942e-07
-1.31773e-05
-1.24351e-06
-1.23431e-05
-1.61403e-06
-1.13593e-05
-1.92183e-06
-1.02697e-05
-2.14424e-06
-9.11987e-06
-2.27867e-06
-7.94642e-06
-2.33941e-06
-6.77515e-06
-2.34673e-06
-5.62158e-06
-2.32025e-06
-4.49394e-06
-2.27426e-06
-3.39811e-06
-2.21363e-06
-2.3399e-06
-2.13827e-06
-1.32893e-06
-2.04218e-06
-3.7576e-07
-1.92481e-06
5.14761e-07
-1.79514e-06
1.33752e-06
-1.66011e-06
2.08914e-06
-1.5121e-06
2.77121e-06
-1.36633e-06
3.388e-06
-1.22684e-06
3.94369e-06
-1.09357e-06
4.44048e-06
-9.63501e-07
4.87766e-06
-8.32233e-07
5.25268e-06
-6.96415e-07
5.56149e-06
-5.5477e-07
5.79968e-06
-4.07612e-07
5.9675e-06
-2.58328e-07
6.06767e-06
-1.13551e-07
6.09617e-06
2.10059e-08
6.05323e-06
1.40946e-07
5.96112e-06
2.47855e-07
5.84997e-06
3.55173e-07
5.73184e-06
4.65586e-07
5.60136e-06
5.47081e-07
5.45726e-06
5.59051e-07
5.31026e-06
4.98814e-07
5.1648e-06
4.11308e-07
5.00037e-06
3.53686e-07
4.78816e-06
3.48295e-07
4.53018e-06
3.63556e-07
4.25892e-06
3.60222e-07
4.01426e-06
3.2329e-07
3.81301e-06
2.72126e-07
3.6494e-06
2.27306e-07
3.51439e-06
1.92129e-07
3.40493e-06
1.57598e-07
3.32206e-06
1.17339e-07
3.26614e-06
7.72092e-08
3.23467e-06
4.31283e-08
3.22199e-06
1.51889e-08
3.2192e-06
-9.76925e-11
3.22423e-06
5.95613e-10
3.2397e-06
-2.24129e-09
3.2647e-06
-1.38614e-08
3.29377e-06
-8.52133e-09
3.31321e-06
2.25774e-08
3.29921e-06
5.90203e-08
3.22528e-06
1.36189e-07
3.07383e-06
2.35694e-07
2.84896e-06
3.78409e-07
4.20288e-07
2.5762e-06
-5.94172e-08
2.71914e-07
2.01817e-07
-1.2629e-07
6.19636e-07
-4.9204e-07
1.04193e-06
-6.33496e-07
1.41205e-06
-6.07099e-07
1.72047e-06
-4.75789e-07
1.96588e-06
-2.78194e-07
2.1198e-06
-3.86741e-08
2.13991e-06
2.24367e-07
1.95495e-06
4.66646e-07
1.51422e-06
6.68459e-07
8.82318e-07
8.23185e-07
2.72668e-07
8.01567e-07
-1.56385e-07
5.83702e-07
-4.30503e-07
4.10098e-07
-6.75986e-07
4.07644e-07
-9.73981e-07
4.36761e-07
-1.27982e-06
4.91402e-07
-1.59666e-06
6.65368e-07
-1.91128e-06
8.62787e-07
-2.18535e-06
9.77356e-07
-2.3756e-06
9.26412e-07
-2.48647e-06
7.60057e-07
-2.61618e-06
6.36894e-07
-2.84529e-06
6.41336e-07
-3.16108e-06
7.4142e-07
-3.51104e-06
8.45489e-07
-3.85728e-06
8.92778e-07
-4.18268e-06
8.98314e-07
-4.48585e-06
8.98828e-07
-4.77371e-06
8.93381e-07
-5.0544e-06
8.80443e-07
-5.33381e-06
8.72121e-07
-5.6146e-06
8.65059e-07
-5.89664e-06
8.52239e-07
-6.17815e-06
8.34605e-07
-6.45572e-06
8.10249e-07
-6.7249e-06
7.75984e-07
-6.98124e-06
7.3129e-07
-7.21942e-06
6.74916e-07
-7.43351e-06
6.05619e-07
-7.61805e-06
5.23118e-07
-7.76786e-06
4.27233e-07
-7.87804e-06
3.1834e-07
-7.94443e-06
1.97735e-07
-7.96587e-06
6.82492e-08
-7.93518e-06
-7.29079e-08
-7.8496e-06
-2.21207e-07
-7.71282e-06
-3.701e-07
-7.52772e-06
-5.17513e-07
-7.29842e-06
-6.60371e-07
-7.03074e-06
-7.95691e-07
-6.7318e-06
-9.21038e-07
-6.40887e-06
-1.03481e-06
-6.06834e-06
-1.13593e-06
-5.71398e-06
-1.22358e-06
-5.3458e-06
-1.29559e-06
-4.95944e-06
-1.34764e-06
-4.54721e-06
-1.37403e-06
-4.10326e-06
-1.36944e-06
-3.63077e-06
-1.33601e-06
-3.14394e-06
-1.29638e-06
-2.66229e-06
-1.28982e-06
-2.19893e-06
-1.33309e-06
-1.72923e-06
-1.39435e-06
-1.22924e-06
-1.45444e-06
-6.90465e-07
-1.60585e-06
-7.73351e-08
-1.84092e-06
6.29247e-07
-2.14099e-06
1.4632e-06
-2.47415e-06
2.40053e-06
-2.72952e-06
3.3158e-06
-2.64551e-06
4.05431e-06
-2.14042e-06
4.56588e-06
-1.33503e-06
4.79848e-06
-3.57858e-07
4.76675e-06
5.61203e-07
4.75599e-06
1.41024e-06
4.64362e-06
2.20951e-06
4.22535e-06
2.5311e-06
3.5625e-06
2.21895e-06
2.82431e-06
1.45664e-06
2.20207e-06
3.91324e-07
1.6513e-06
-2.33019e-07
1.09909e-06
-5.71897e-09
5.96977e-07
4.66491e-07
1.54355e-07
7.53848e-07
-1.98435e-07
8.24767e-07
-4.65666e-07
7.62719e-07
-6.6791e-07
6.3616e-07
-8.26034e-07
4.88085e-07
-9.58551e-07
3.40733e-07
-1.08181e-06
2.09764e-07
-1.20521e-06
1.02691e-07
-1.33682e-06
3.02589e-08
-1.49232e-06
6.87147e-09
-1.68182e-06
5.14058e-08
-1.91839e-06
1.8638e-07
-2.22822e-06
4.22125e-07
-2.6293e-06
7.52709e-07
-3.12014e-06
1.15848e-06
-3.68552e-06
1.60213e-06
-4.29803e-06
2.03223e-06
-4.93576e-06
2.3956e-06
-5.60371e-06
2.65532e-06
-6.30137e-06
2.81609e-06
-7.02594e-06
2.8978e-06
-7.77196e-06
2.9226e-06
-8.5321e-06
2.90766e-06
-9.2993e-06
2.86439e-06
-1.0066e-05
2.79574e-06
-1.08218e-05
2.6967e-06
-1.15513e-05
2.55681e-06
-1.22337e-05
2.36344e-06
-1.28432e-05
2.10481e-06
-1.33497e-05
1.773e-06
-1.37222e-05
1.36609e-06
-1.39314e-05
8.90332e-07
-1.3953e-05
3.57095e-07
-1.37833e-05
-2.15667e-07
-1.34151e-05
-8.02884e-07
-1.28525e-05
-1.40353e-06
-1.21023e-05
-1.99372e-06
-1.11831e-05
-2.53327e-06
-1.01316e-05
-2.97332e-06
-8.9991e-06
-3.27674e-06
-7.8357e-06
-3.44207e-06
-6.67834e-06
-3.49677e-06
-5.54883e-06
-3.47623e-06
-4.45721e-06
-3.41187e-06
-3.40629e-06
-3.32518e-06
-2.39763e-06
-3.22229e-06
-1.43356e-06
-3.10234e-06
-5.23039e-07
-2.9527e-06
3.27079e-07
-2.77492e-06
1.11946e-06
-2.58753e-06
1.83542e-06
-2.37607e-06
2.48215e-06
-2.15883e-06
3.06345e-06
-1.94763e-06
3.5859e-06
-1.74928e-06
4.05749e-06
-1.56517e-06
4.48587e-06
-1.39188e-06
4.87548e-06
-1.22184e-06
5.22567e-06
-1.04661e-06
5.53227e-06
-8.61365e-07
5.791e-06
-6.66339e-07
5.99795e-06
-4.6528e-07
6.1472e-06
-2.62802e-07
6.23162e-06
-6.34116e-08
6.24243e-06
1.30131e-07
6.18422e-06
3.06062e-07
6.08066e-06
4.58738e-07
5.96256e-06
5.83685e-07
5.84535e-06
6.64295e-07
5.72806e-06
6.76342e-07
5.61162e-06
6.15248e-07
5.50548e-06
5.17455e-07
5.41941e-06
4.39751e-07
5.34948e-06
4.18221e-07
5.26592e-06
4.47116e-07
5.13357e-06
4.92575e-07
4.93401e-06
5.22856e-07
4.68594e-06
5.20187e-07
4.43142e-06
4.81828e-07
4.20702e-06
4.16528e-07
4.02709e-06
3.37528e-07
3.88984e-06
2.54593e-07
3.79101e-06
1.76039e-07
3.72529e-06
1.08848e-07
3.68295e-06
5.75281e-08
3.65154e-06
3.13114e-08
3.62378e-06
2.83524e-08
3.60079e-06
2.07563e-08
3.58775e-06
-8.24629e-10
3.58947e-06
-1.02393e-08
3.59769e-06
1.4359e-08
3.5908e-06
6.59088e-08
3.54143e-06
1.85562e-07
3.40819e-06
3.6893e-07
3.2016e-06
5.84999e-07
6.81958e-07
2.93993e-06
2.82936e-07
-1.1022e-08
8.86303e-07
-7.29658e-07
1.42122e-06
-1.02696e-06
1.83368e-06
-1.04595e-06
2.14973e-06
-9.23142e-07
2.3935e-06
-7.19566e-07
2.57283e-06
-4.57518e-07
2.69396e-06
-1.59808e-07
2.73717e-06
1.81161e-07
2.67133e-06
5.32483e-07
2.4871e-06
8.52689e-07
2.18206e-06
1.12823e-06
1.69846e-06
1.28516e-06
1.0156e-06
1.26656e-06
3.3539e-07
1.09031e-06
-1.48373e-07
8.91408e-07
-5.38114e-07
8.26502e-07
-8.9631e-07
8.49599e-07
-1.19799e-06
9.67049e-07
-1.46062e-06
1.12541e-06
-1.68627e-06
1.20301e-06
-1.88572e-06
1.12586e-06
-2.07937e-06
9.53714e-07
-2.32122e-06
8.78738e-07
-2.64716e-06
9.67283e-07
-3.01161e-06
1.10586e-06
-3.34906e-06
1.18294e-06
-3.64807e-06
1.19179e-06
-3.92538e-06
1.17563e-06
-4.19365e-06
1.16709e-06
-4.46592e-06
1.16565e-06
-4.75166e-06
1.16619e-06
-5.05247e-06
1.17294e-06
-5.36604e-06
1.17863e-06
-5.68761e-06
1.17381e-06
-6.01155e-06
1.15855e-06
-6.33199e-06
1.13069e-06
-6.64347e-06
1.08746e-06
-6.94098e-06
1.02881e-06
-7.21921e-06
9.53141e-07
-7.47285e-06
8.59256e-07
-7.69647e-06
7.46742e-07
-7.88404e-06
6.14804e-07
-8.02927e-06
4.63571e-07
-8.12615e-06
2.94617e-07
-8.1689e-06
1.10991e-07
-8.15455e-06
-8.72513e-08
-8.08058e-06
-2.9518e-07
-7.94636e-06
-5.04325e-07
-7.75451e-06
-7.09355e-07
-7.51046e-06
-9.0443e-07
-7.22172e-06
-1.08443e-06
-6.89738e-06
-1.24537e-06
-6.54721e-06
-1.38498e-06
-6.18032e-06
-1.50282e-06
-5.80384e-06
-1.60006e-06
-5.42048e-06
-1.67894e-06
-5.02661e-06
-1.74151e-06
-4.6133e-06
-1.78734e-06
-4.16915e-06
-1.81359e-06
-3.68503e-06
-1.82013e-06
-3.16627e-06
-1.81514e-06
-2.64146e-06
-1.81463e-06
-2.14142e-06
-1.83314e-06
-1.65789e-06
-1.87788e-06
-1.15679e-06
-1.95553e-06
-6.61863e-07
-2.10079e-06
-1.46411e-07
-2.35637e-06
4.34445e-07
-2.72184e-06
1.13217e-06
-3.17187e-06
1.93015e-06
-3.5275e-06
2.73942e-06
-3.45479e-06
3.41525e-06
-2.81624e-06
3.91599e-06
-1.83578e-06
4.20649e-06
-6.48358e-07
4.25379e-06
5.13907e-07
4.18335e-06
1.48068e-06
4.12211e-06
2.27075e-06
3.98061e-06
2.6726e-06
3.58638e-06
2.61318e-06
3.0021e-06
2.04092e-06
2.32574e-06
1.06769e-06
1.53836e-06
5.54356e-07
7.86876e-07
7.45766e-07
1.98051e-07
1.05532e-06
-1.97293e-07
1.14919e-06
-4.47669e-07
1.07514e-06
-6.07596e-07
9.22646e-07
-7.19465e-07
7.48029e-07
-8.13716e-07
5.82336e-07
-9.1367e-07
4.40688e-07
-1.0336e-06
3.2969e-07
-1.18471e-06
2.53802e-07
-1.37352e-06
2.19068e-07
-1.60336e-06
2.36709e-07
-1.87743e-06
3.25482e-07
-2.19589e-06
5.0484e-07
-2.55832e-06
7.84553e-07
-2.96478e-06
1.15917e-06
-3.41156e-06
1.60525e-06
-3.89288e-06
2.08346e-06
-4.40417e-06
2.54351e-06
-4.94583e-06
2.93727e-06
-5.52501e-06
3.2345e-06
-6.14081e-06
3.43189e-06
-6.78617e-06
3.54315e-06
-7.45239e-06
3.58882e-06
-8.13417e-06
3.58944e-06
-8.8297e-06
3.55992e-06
-9.53628e-06
3.50233e-06
-1.02454e-05
3.40579e-06
-1.09382e-05
3.24961e-06
-1.15829e-05
3.00821e-06
-1.21364e-05
2.65825e-06
-1.25514e-05
2.18801e-06
-1.27891e-05
1.60384e-06
-1.28264e-05
9.27638e-07
-1.26548e-05
1.85474e-07
-1.23004e-05
-5.70078e-07
-1.17731e-05
-1.33017e-06
-1.1081e-05
-2.0956e-06
-1.02274e-05
-2.8474e-06
-9.22057e-06
-3.54007e-06
-8.09435e-06
-4.09954e-06
-6.90772e-06
-4.46337e-06
-5.7194e-06
-4.63039e-06
-4.56823e-06
-4.64794e-06