/*--------------------------------*- C++ -*----------------------------------*\
  =========                 |
  \\      /  F ield         | OpenFOAM: The Open Source CFD Toolbox
   \\    /   O peration     | Website:  https://openfoam.org
    \\  /    A nd           | Version:  9
     \\/     M anipulation  |
\*---------------------------------------------------------------------------*/
FoamFile
{
    format      ascii;
    class       volVectorField;
    location    "0.084";
    object      UMean;
}
// * * * * * * * * * * * * * * * * * * * * * * * * * * * * * * * * * * * * * //

dimensions      [0 1 -1 0 0 0 0];

internalField   nonuniform List<vector> 
12225
(
(9.84155 0.045375 0)
(9.54758 0.0610622 0)
(9.2487 0.0590037 0)
(8.94548 0.0577171 0)
(8.6466 0.0572698 0)
(8.35753 0.0565488 0)
(8.07883 0.0553436 0)
(7.81095 0.0542944 0)
(7.55061 0.0531328 0)
(7.2997 0.0528225 0)
(7.05094 0.0520239 0)
(6.81263 0.0530988 0)
(6.56557 0.0525837 0)
(6.33576 0.0567392 0)
(6.07027 0.056968 0)
(5.84339 0.0685294 0)
(5.51851 0.0710646 0)
(5.28445 0.0992771 0)
(10.023 0.0515309 0)
(10.0839 0.0743845 0)
(10.1226 0.0735943 0)
(10.1364 0.0747169 0)
(10.1335 0.0780492 0)
(10.1204 0.0811559 0)
(10.0985 0.0836396 0)
(10.0692 0.0858918 0)
(10.0316 0.088294 0)
(9.9882 0.0910045 0)
(9.93609 0.0943361 0)
(9.88028 0.098198 0)
(9.81307 0.103743 0)
(9.74397 0.11008 0)
(9.65671 0.121346 0)
(9.56937 0.133145 0)
(9.45246 0.157785 0)
(9.3359 0.179583 0)
(10.0047 0.0307575 0)
(10.0363 0.053989 0)
(10.0648 0.0564351 0)
(10.0824 0.0585052 0)
(10.0932 0.0630936 0)
(10.1018 0.0679515 0)
(10.1094 0.0719655 0)
(10.1158 0.0758561 0)
(10.1201 0.079591 0)
(10.1221 0.0842115 0)
(10.1219 0.0888521 0)
(10.1191 0.0953469 0)
(10.1142 0.102238 0)
(10.106 0.112939 0)
(10.0964 0.125771 0)
(10.0832 0.145222 0)
(10.073 0.170818 0)
(10.0611 0.201567 0)
(9.99512 0.0285064 0)
(10.0191 0.0571898 0)
(10.0432 0.0627303 0)
(10.0586 0.0644446 0)
(10.0666 0.0683303 0)
(10.0717 0.0729744 0)
(10.0761 0.0771072 0)
(10.0801 0.080832 0)
(10.0833 0.0846943 0)
(10.0852 0.0890632 0)
(10.0858 0.0943016 0)
(10.085 0.100622 0)
(10.0832 0.108761 0)
(10.0805 0.11921 0)
(10.078 0.133356 0)
(10.077 0.151847 0)
(10.0798 0.175131 0)
(10.0899 0.200579 0)
(10.014 0.0216933 0)
(10.0315 0.0470067 0)
(10.0514 0.0545001 0)
(10.0656 0.0570663 0)
(10.0732 0.0611293 0)
(10.0774 0.0663327 0)
(10.0806 0.0711841 0)
(10.0835 0.0756228 0)
(10.0856 0.0800352 0)
(10.0867 0.0850464 0)
(10.0866 0.0908292 0)
(10.0855 0.097849 0)
(10.0834 0.10648 0)
(10.081 0.117376 0)
(10.0787 0.131275 0)
(10.0784 0.148464 0)
(10.0808 0.168375 0)
(10.0888 0.188548 0)
(9.9885 0.0167186 0)
(10.0028 0.043054 0)
(10.0204 0.0534509 0)
(10.0348 0.0575608 0)
(10.0438 0.0618215 0)
(10.0496 0.0671045 0)
(10.0541 0.0723302 0)
(10.0579 0.0771474 0)
(10.0609 0.081943 0)
(10.0627 0.0872584 0)
(10.0634 0.0934306 0)
(10.0632 0.100827 0)
(10.0625 0.109754 0)
(10.0617 0.120733 0)
(10.0614 0.134027 0)
(10.0629 0.149742 0)
(10.0666 0.16682 0)
(10.074 0.183977 0)
(10.0128 0.0155776 0)
(10.0219 0.0378264 0)
(10.0348 0.0490361 0)
(10.0467 0.0541511 0)
(10.0548 0.0584079 0)
(10.06 0.0635674 0)
(10.064 0.0690803 0)
(10.0675 0.0744018 0)
(10.0703 0.0796599 0)
(10.0723 0.0853283 0)
(10.0732 0.0917923 0)
(10.0736 0.099407 0)
(10.0735 0.108436 0)
(10.0738 0.119253 0)
(10.0746 0.131889 0)
(10.077 0.146346 0)
(10.0811 0.161635 0)
(10.088 0.177151 0)
(10.0048 0.0118968 0)
(10.0133 0.0328109 0)
(10.0252 0.0453638 0)
(10.0364 0.0519807 0)
(10.0443 0.0568013 0)
(10.0495 0.0620338 0)
(10.0536 0.0677606 0)
(10.0573 0.0735784 0)
(10.0609 0.0794105 0)
(10.0639 0.0855908 0)
(10.0661 0.0924563 0)
(10.0677 0.100347 0)
(10.0688 0.109455 0)
(10.07 0.120037 0)
(10.0716 0.132001 0)
(10.0746 0.145321 0)
(10.0787 0.15919 0)
(10.0853 0.1733 0)
(10.0064 0.0112949 0)
(10.0116 0.0291991 0)
(10.0204 0.0418457 0)
(10.0299 0.0494547 0)
(10.0374 0.0547599 0)
(10.0425 0.0599209 0)
(10.0461 0.0654704 0)
(10.0492 0.0712181 0)
(10.0522 0.077115 0)
(10.055 0.0834255 0)
(10.0575 0.0904493 0)
(10.0596 0.0984743 0)
(10.0615 0.107591 0)
(10.0637 0.11795 0)
(10.0664 0.129354 0)
(10.0702 0.141789 0)
(10.0748 0.154545 0)
(10.0814 0.167508 0)
(9.99599 0.00918685 0)
(10.0013 0.0253824 0)
(10.0091 0.0381539 0)
(10.0176 0.0467066 0)
(10.0251 0.0528698 0)
(10.0306 0.0584568 0)
(10.0346 0.0642177 0)
(10.0381 0.0701968 0)
(10.0415 0.0763665 0)
(10.0447 0.0829143 0)
(10.0477 0.0900622 0)
(10.0506 0.0980663 0)
(10.0532 0.106989 0)
(10.0563 0.116951 0)
(10.0598 0.127725 0)
(10.0645 0.139302 0)
(10.0698 0.151039 0)
(10.0769 0.162993 0)
(9.99262 0.0074501 0)
(9.99691 0.023937 0)
(10.0031 0.0351631 0)
(10.0104 0.0434083 0)
(10.0172 0.0500903 0)
(10.0229 0.0560453 0)
(10.0272 0.061797 0)
(10.0307 0.0676602 0)
(10.0339 0.0737822 0)
(10.0369 0.0803663 0)
(10.0397 0.087566 0)
(10.0426 0.0955591 0)
(10.0456 0.104306 0)
(10.049 0.113881 0)
(10.053 0.124019 0)
(10.058 0.134774 0)
(10.0637 0.145573 0)
(10.0707 0.156619 0)
(10.0013 0.00576902 0)
(10.0034 0.0214417 0)
(10.0081 0.0324899 0)
(10.0148 0.0409535 0)
(10.0216 0.0478754 0)
(10.0276 0.0540584 0)
(10.0326 0.0601293 0)
(10.0369 0.0663859 0)
(10.0407 0.0728728 0)
(10.0442 0.0796543 0)
(10.0477 0.0868254 0)
(10.0511 0.0945854 0)
(10.0548 0.102947 0)
(10.0588 0.112007 0)
(10.0633 0.121514 0)
(10.0684 0.131535 0)
(10.0743 0.141529 0)
(10.0807 0.151779 0)
(10.0006 0.00632294 0)
(10.0009 0.0179235 0)
(10.0049 0.0288944 0)
(10.0114 0.0376794 0)
(10.018 0.044712 0)
(10.0238 0.0509202 0)
(10.029 0.0569555 0)
(10.0338 0.0631346 0)
(10.0384 0.0695564 0)
(10.043 0.0763074 0)
(10.0476 0.0834281 0)
(10.0523 0.0910516 0)
(10.0571 0.0991726 0)
(10.0623 0.107869 0)
(10.0677 0.116921 0)
(10.0737 0.126385 0)
(10.0801 0.135791 0)
(10.0872 0.145426 0)
(9.99772 0.00881407 0)
(10.0005 0.0174724 0)
(10.0047 0.0276021 0)
(10.0099 0.0361509 0)
(10.0156 0.0429417 0)
(10.0213 0.0489281 0)
(10.0267 0.0548458 0)
(10.0318 0.0610025 0)
(10.0368 0.0673991 0)
(10.0418 0.0740537 0)
(10.0468 0.0809861 0)
(10.052 0.0883462 0)
(10.0574 0.0961014 0)
(10.063 0.10436 0)
(10.0688 0.11284 0)
(10.0751 0.121676 0)
(10.0817 0.130327 0)
(10.0889 0.139212 0)
(10.0005 0.00241538 0)
(10.0048 0.012609 0)
(10.0092 0.0222409 0)
(10.014 0.0303892 0)
(10.0192 0.0372079 0)
(10.0245 0.0433784 0)
(10.0297 0.0493896 0)
(10.0347 0.0554581 0)
(10.0398 0.0616425 0)
(10.0449 0.0680314 0)
(10.0502 0.0746748 0)
(10.0556 0.0816959 0)
(10.0612 0.0890534 0)
(10.0671 0.0968126 0)
(10.0735 0.104727 0)
(10.0803 0.112902 0)
(10.0877 0.120858 0)
(10.0954 0.128992 0)
(10.0169 0.00272394 0)
(10.0188 0.0141032 0)
(10.0213 0.0216646 0)
(10.025 0.0280737 0)
(10.0298 0.0344143 0)
(10.0355 0.0406568 0)
(10.0415 0.046608 0)
(10.0475 0.0523577 0)
(10.0535 0.0581565 0)
(10.0595 0.0642257 0)
(10.0657 0.0705753 0)
(10.072 0.077192 0)
(10.0786 0.0839148 0)
(10.0855 0.0907876 0)
(10.0926 0.0976035 0)
(10.1003 0.104587 0)
(10.1081 0.111329 0)
(10.1164 0.118362 0)
(9.99369 -0.000641461 0)
(9.99073 0.00868623 0)
(9.98985 0.0157756 0)
(9.99202 0.0217968 0)
(9.99632 0.0272407 0)
(10.0017 0.0323322 0)
(10.0075 0.0373134 0)
(10.0136 0.0424304 0)
(10.0197 0.0477674 0)
(10.0261 0.0533315 0)
(10.0328 0.0590298 0)
(10.0398 0.0648826 0)
(10.047 0.070801 0)
(10.0546 0.0768984 0)
(10.0623 0.0829847 0)
(10.0705 0.0892722 0)
(10.0787 0.0953309 0)
(10.0876 0.101637 0)
(9.98778 0.013351 0)
(9.98672 0.0136771 0)
(9.98787 0.0165103 0)
(9.99189 0.0206416 0)
(9.99759 0.0249056 0)
(10.0039 0.0289205 0)
(10.0102 0.0328512 0)
(10.0165 0.0369933 0)
(10.0231 0.0414511 0)
(10.0298 0.0461935 0)
(10.0369 0.0510597 0)
(10.0442 0.0560045 0)
(10.0518 0.0608908 0)
(10.0595 0.0658093 0)
(10.0675 0.0705817 0)
(10.0755 0.0754492 0)
(10.0839 0.0800419 0)
(10.0923 0.0848568 0)
(9.99394 0.000319638 0)
(9.99872 0.00183148 0)
(10.004 0.00426589 0)
(10.0095 0.00718329 0)
(10.0156 0.0103174 0)
(10.022 0.0136249 0)
(10.0288 0.0170875 0)
(10.0358 0.0206504 0)
(10.043 0.0242417 0)
(10.0504 0.0278792 0)
(10.0581 0.0315795 0)
(10.066 0.0354185 0)
(10.0742 0.039343 0)
(10.0825 0.0433982 0)
(10.0911 0.0473932 0)
(10.0997 0.0514383 0)
(10.1084 0.0552077 0)
(10.1171 0.0590545 0)
(10.0042 0.000774291 0)
(10.0062 0.00169094 0)
(10.0094 0.00274014 0)
(10.0137 0.00406886 0)
(10.0188 0.00578214 0)
(10.0249 0.00787528 0)
(10.0316 0.0102714 0)
(10.0388 0.0128843 0)
(10.0462 0.0156069 0)
(10.0539 0.0183709 0)
(10.0618 0.0211116 0)
(10.07 0.0238489 0)
(10.0784 0.0265469 0)
(10.087 0.0292929 0)
(10.0956 0.0319985 0)
(10.1044 0.0348038 0)
(10.1132 0.0374688 0)
(10.1221 0.0402823 0)
(10.0039 -0.00264059 0)
(10.0071 -0.00369302 0)
(10.0121 -0.00444967 0)
(10.0184 -0.00449768 0)
(10.0254 -0.0039111 0)
(10.0324 -0.00290377 0)
(10.0393 -0.00165563 0)
(10.0465 -0.000226393 0)
(10.0539 0.00135626 0)
(10.0616 0.00308605 0)
(10.0696 0.00491319 0)
(10.0779 0.00684056 0)
(10.0863 0.00882632 0)
(10.0948 0.0109209 0)
(10.1034 0.0130454 0)
(10.1121 0.0152809 0)
(10.1207 0.0174278 0)
(10.1293 0.0196721 0)
(9.99579 -0.00480488 0)
(9.99778 -0.00774823 0)
(10.0026 -0.00919946 0)
(10.0097 -0.00945657 0)
(10.0179 -0.0088441 0)
(10.0261 -0.00770463 0)
(10.034 -0.00639964 0)
(10.0416 -0.00516454 0)
(10.0494 -0.00402442 0)
(10.0573 -0.00288782 0)
(10.0654 -0.00170602 0)
(10.0738 -0.000442374 0)
(10.0824 0.000867701 0)
(10.091 0.00226175 0)
(10.0998 0.00368515 0)
(10.1085 0.0052353 0)
(10.1173 0.00676488 0)
(10.1261 0.00845926 0)
(9.99019 -0.00175167 0)
(9.9964 -0.0112748 0)
(10.0037 -0.0160759 0)
(10.0116 -0.0179015 0)
(10.0199 -0.0182387 0)
(10.0284 -0.0179695 0)
(10.0369 -0.0175061 0)
(10.0454 -0.017003 0)
(10.054 -0.0164986 0)
(10.0626 -0.0159793 0)
(10.0713 -0.0154328 0)
(10.0798 -0.0148132 0)
(10.0883 -0.0141007 0)
(10.0967 -0.0132308 0)
(10.105 -0.0122516 0)
(10.1133 -0.0111252 0)
(10.1217 -0.0100065 0)
(10.1299 -0.00879188 0)
(10.01 -0.0125241 0)
(10.0165 -0.0155619 0)
(10.0249 -0.0194326 0)
(10.034 -0.0213165 0)
(10.0427 -0.0215856 0)
(10.051 -0.0213094 0)
(10.0591 -0.0209957 0)
(10.0674 -0.0206489 0)
(10.0758 -0.0202099 0)
(10.0845 -0.0196715 0)
(10.0931 -0.0190925 0)
(10.1016 -0.0184941 0)
(10.1099 -0.0178882 0)
(10.1181 -0.0172369 0)
(10.1263 -0.0165635 0)
(10.1344 -0.0158119 0)
(10.1425 -0.0150741 0)
(10.1506 -0.0142505 0)
(9.98657 -0.0120223 0)
(9.98797 -0.0230503 0)
(9.99553 -0.0286356 0)
(10.0063 -0.0306751 0)
(10.0168 -0.0313223 0)
(10.026 -0.0317623 0)
(10.0347 -0.0321858 0)
(10.0435 -0.0324485 0)
(10.0526 -0.0324953 0)
(10.0619 -0.0323861 0)
(10.071 -0.0321981 0)
(10.08 -0.0319493 0)
(10.089 -0.0316511 0)
(10.0979 -0.0312762 0)
(10.1068 -0.0308526 0)
(10.1157 -0.0303581 0)
(10.1246 -0.0298786 0)
(10.1333 -0.0293579 0)
(10.014 -0.00758482 0)
(10.0243 -0.0244043 0)
(10.0375 -0.0288024 0)
(10.0502 -0.0291826 0)
(10.0608 -0.0295693 0)
(10.0699 -0.0305388 0)
(10.0784 -0.0314938 0)
(10.0871 -0.0320444 0)
(10.0962 -0.0322227 0)
(10.1053 -0.0322391 0)
(10.1144 -0.0322454 0)
(10.1232 -0.0322845 0)
(10.1318 -0.0323493 0)
(10.1402 -0.0323867 0)
(10.1484 -0.0323836 0)
(10.1565 -0.0323003 0)
(10.1646 -0.0321874 0)
(10.1724 -0.0319989 0)
(10.0062 -0.0220868 0)
(10.0217 -0.0378498 0)
(10.0367 -0.0428811 0)
(10.0484 -0.0432034 0)
(10.0575 -0.0434334 0)
(10.0658 -0.0442771 0)
(10.0741 -0.0450647 0)
(10.0829 -0.0454789 0)
(10.0919 -0.0456314 0)
(10.1011 -0.0456767 0)
(10.1101 -0.0456686 0)
(10.119 -0.0455941 0)
(10.1278 -0.0454457 0)
(10.1364 -0.0452412 0)
(10.1449 -0.0450334 0)
(10.1533 -0.0448487 0)
(10.1617 -0.0447387 0)
(10.17 -0.0446782 0)
(10.0139 -0.0202542 0)
(10.0326 -0.0302564 0)
(10.0526 -0.0337982 0)
(10.0672 -0.0347086 0)
(10.0778 -0.0361057 0)
(10.0874 -0.0378843 0)
(10.0974 -0.0393297 0)
(10.1079 -0.0403148 0)
(10.1184 -0.0410232 0)
(10.1286 -0.0416269 0)
(10.1385 -0.0421712 0)
(10.1481 -0.0426797 0)
(10.1576 -0.0431229 0)
(10.167 -0.0435385 0)
(10.1764 -0.0439038 0)
(10.1855 -0.0442854 0)
(10.1947 -0.0446592 0)
(10.2036 -0.0450911 0)
(10.0152 -0.0391974 0)
(10.0497 -0.055883 0)
(10.0805 -0.0541621 0)
(10.1016 -0.0532977 0)
(10.1154 -0.0543284 0)
(10.1253 -0.0553858 0)
(10.1327 -0.0559873 0)
(10.1381 -0.05631 0)
(10.1416 -0.0564919 0)
(10.1434 -0.056617 0)
(10.1434 -0.0567022 0)
(10.1421 -0.0567965 0)
(10.1396 -0.0568621 0)
(10.1362 -0.056951 0)
(10.1318 -0.0569936 0)
(10.1271 -0.0570885 0)
(10.1212 -0.0571665 0)
(10.1157 -0.057386 0)
(9.9231 -0.0297395 0)
(9.75997 -0.0459765 0)
(9.5943 -0.0447763 0)
(9.4258 -0.0439414 0)
(9.26041 -0.0441668 0)
(9.10152 -0.0441638 0)
(8.94984 -0.0438242 0)
(8.80505 -0.043352 0)
(8.6667 -0.042815 0)
(8.53458 -0.0422285 0)
(8.40835 -0.0416072 0)
(8.28804 -0.0410011 0)
(8.173 -0.0404155 0)
(8.06357 -0.039891 0)
(7.95851 -0.0393895 0)
(7.859 -0.0389553 0)
(7.76253 -0.038529 0)
(7.67226 -0.0382036 0)
(-0.213594 0.461342 -1.07847e-21)
(-0.530857 0.250535 1.09859e-21)
(-0.690106 0.0585099 0)
(-0.69184 -0.129998 0)
(-0.518177 -0.29655 0)
(-0.221869 -0.415535 -1.06861e-21)
(0.156483 -0.478863 0)
(0.575028 -0.488489 0)
(0.993859 -0.459443 0)
(1.38473 -0.403485 0)
(1.72994 -0.333055 1.12515e-21)
(2.01988 -0.260358 0)
(2.25125 -0.187286 0)
(2.41873 -0.113447 0)
(2.52247 -0.0508422 0)
(2.57184 0.00209269 1.40754e-21)
(2.57505 0.0223834 0)
(2.56299 0.0138025 0)
(2.53595 0.0223307 0)
(2.49194 0.0427288 0)
(2.41712 0.0686397 0)
(2.30232 0.0955912 0)
(2.13983 0.131634 0)
(1.94214 0.183274 1.33722e-21)
(1.6964 0.241153 -1.3046e-21)
(1.42514 0.244574 1.27835e-21)
(1.14851 0.216887 1.26159e-21)
(0.860311 0.158597 0)
(0.6032 0.0983191 0)
(0.353901 0.127614 -1.26013e-21)
(0.0973214 0.165588 -1.27177e-21)
(-0.164665 0.182676 0)
(-0.426256 0.178334 0)
(-0.666846 0.153984 -1.33231e-21)
(-0.870907 0.117612 0)
(-1.03494 0.0812183 0)
(-1.15577 0.0504863 1.36379e-21)
(-1.24621 0.0335755 0)
(-1.33017 0.0298857 1.38595e-21)
(-1.4378 0.0514237 2.81499e-21)
(-1.59395 0.0947911 0)
(-1.79391 0.138121 0)
(-2.03992 0.157328 0)
(-2.27598 0.122151 0)
(-2.47375 0.0840036 0)
(-2.62811 0.0181741 2.93613e-21)
(-2.72853 -0.0901626 2.97174e-21)
(-2.82629 -0.110438 3.00946e-21)
(-2.90897 0.0082607 0)
(-3.05272 0.0739934 -3.00858e-21)
(-3.15187 0.0648015 0)
(-3.22487 0.0605492 3.00626e-21)
(-3.27589 0.0533461 2.99856e-21)
(-3.30845 0.0386502 0)
(-3.31754 0.0148958 0)
(-3.31601 -0.0354745 0)
(-3.30115 -0.0256836 2.91217e-21)
(-3.32438 0.00166724 0)
(-3.32394 -0.0119901 0)
(-3.30489 -0.0266022 0)
(-3.24203 -0.0466067 0)
(-3.17606 -0.108415 0)
(-3.1003 -0.0936023 0)
(-3.10562 -0.0195108 0)
(-3.13603 -0.00877901 0)
(-3.16489 0.00129666 -3.13606e-21)
(-3.21061 0.00538223 0)
(-3.2591 0.0120905 0)
(-3.3248 0.0217051 3.3947e-21)
(-3.40484 0.0340032 3.4718e-21)
(-3.50492 0.0464414 0)
(-3.62651 0.0601265 -3.58234e-21)
(-3.76788 0.0757481 3.61927e-21)
(-3.92661 0.0865166 0)
(-4.09625 0.0864321 -3.69531e-21)
(-4.26833 0.0830349 0)
(-4.44228 0.0697672 0)
(-4.60231 0.0469595 3.82588e-21)
(-4.7478 0.037253 0)
(-4.89457 0.0463587 -3.84028e-21)
(-5.04777 0.0576103 0)
(-5.20726 0.0576006 3.77949e-21)
(-5.35137 0.0507364 3.73282e-21)
(-5.49794 0.0380475 3.67755e-21)
(-5.60557 0.00684089 7.22141e-21)
(-5.72422 -0.0128987 -7.08115e-21)
(-5.83695 -0.0133275 0)
(-6.01963 0.0486937 0)
(-6.28394 0.160872 0)
(-6.58591 0.165829 -6.56806e-21)
(-6.78391 0.116126 -6.60416e-21)
(-6.90899 0.0747491 6.65603e-21)
(-6.96802 0.0371458 0)
(-6.97102 0.00675138 -6.64478e-21)
(-6.92666 -0.0187509 -6.54696e-21)
(-6.84134 -0.0393169 -6.38144e-21)
(-6.72184 -0.0560767 0)
(-6.57305 -0.0694758 0)
(-6.40019 -0.0800113 0)
(-6.20734 -0.0876386 -5.08511e-21)
(-5.99869 -0.0928225 0)
(-5.77674 -0.0961169 0)
(-5.54249 -0.0990061 3.59183e-21)
(-5.29569 -0.102491 0)
(-5.03573 -0.106701 0)
(-4.76191 -0.111336 1.92273e-21)
(-4.47436 -0.115968 0)
(-4.17394 -0.120219 0)
(-3.86204 -0.123809 -3.19239e-22)
(-3.54046 -0.126468 1.74406e-22)
(-3.21125 -0.128043 0)
(-2.87684 -0.128485 -1.08406e-21)
(-2.53992 -0.127821 0)
(-2.20243 -0.126371 1.88806e-21)
(-1.86608 -0.124833 0)
(-1.53227 -0.122676 2.60078e-21)
(-1.20117 -0.120313 2.92916e-21)
(-0.873292 -0.11783 0)
(-0.549011 -0.115183 0)
(-0.228736 -0.112317 0)
(0.0869602 -0.109259 0)
(0.397708 -0.106008 0)
(0.702635 -0.102602 0)
(1.00064 -0.0990358 0)
(1.29106 -0.095177 4.89681e-21)
(1.57257 -0.0907347 -5.03187e-21)
(1.84416 -0.0859436 0)
(2.10469 -0.0808409 0)
(2.35308 -0.0754971 0)
(2.58841 -0.0699244 0)
(2.80999 -0.0642211 -1.04576e-20)
(3.01723 -0.0583947 0)
(3.20971 -0.0525143 1.02168e-20)
(3.38709 -0.0466082 -1.00339e-20)
(3.54874 -0.0407801 0)
(3.69439 -0.0350713 0)
(3.82451 -0.0294184 0)
(3.93915 -0.0239242 9.06097e-21)
(4.03853 -0.0186275 8.79755e-21)
(4.12296 -0.0135517 0)
(4.19285 -0.00870667 8.28939e-21)
(4.24865 -0.00410632 8.05266e-21)
(4.29085 0.000236871 -7.83125e-21)
(4.32003 0.00431575 0)
(4.33672 0.00815016 0)
(4.34146 0.011744 -7.27327e-21)
(4.3347 0.0151112 0)
(4.31672 0.0182961 0)
(4.28798 0.0213125 0)
(4.24879 0.0240679 0)
(4.19951 0.0263196 6.70345e-21)
(4.14084 0.0278215 6.63718e-21)
(4.07376 0.0286356 0)
(3.99882 0.0292522 6.54337e-21)
(3.9156 0.0301417 0)
(3.8229 0.0312531 0)
(3.71967 0.0320681 6.4656e-21)
(3.60566 0.0318153 0)
(3.48278 0.0291739 6.41108e-21)
(3.35734 0.0238458 0)
(3.23839 0.0176129 0)
(3.13425 0.0143624 6.3032e-21)
(3.04915 0.0153739 0)
(2.97409 0.0229259 6.24519e-21)
(2.89441 0.028604 0)
(2.80923 0.028452 0)
(2.7198 0.0251621 0)
(2.62942 0.0183764 -6.10838e-21)
(2.54678 0.011759 0)
(2.47621 0.00721398 6.03767e-21)
(2.4151 0.00529723 0)
(2.36124 0.00667752 0)
(2.30696 0.0115988 0)
(2.23991 0.0159662 0)
(2.16225 0.0181371 0)
(2.06742 0.015566 0)
(1.98553 0.0207143 0)
(1.85057 0.0180446 -1.17723e-20)
(1.79865 0.0413623 0)
(1.52018 0.0153479 0)
(-0.00934952 0.971091 3.32387e-21)
(0.00950771 0.681335 -3.36892e-21)
(0.0882499 0.236178 0)
(0.29191 -0.226646 2.36265e-21)
(0.576342 -0.689351 0)
(0.926688 -1.03446 1.06566e-21)
(1.29169 -1.22294 -2.3898e-21)
(1.63771 -1.27765 -2.42e-21)
(1.94854 -1.23065 0)
(2.2137 -1.11421 -2.57498e-21)
(2.42985 -0.960652 -1.12231e-21)
(2.59524 -0.786597 0)
(2.71656 -0.601439 0)
(2.80229 -0.418128 0)
(2.85687 -0.253881 0)
(2.87771 -0.115291 -1.40506e-21)
(2.86752 -0.0135443 0)
(2.82865 0.0525578 3.15301e-21)
(2.76604 0.100727 0)
(2.68147 0.156615 0)
(2.56058 0.263933 -3.08181e-21)
(2.40954 0.392321 0)
(2.23167 0.496856 2.97507e-21)
(2.04268 0.58264 -1.33319e-21)
(1.84919 0.640221 1.30012e-21)
(1.63509 0.672228 -1.27356e-21)
(1.39035 0.719689 -1.2566e-21)
(1.1029 0.751502 0)
(0.778657 0.743572 0)
(0.422036 0.709559 1.2561e-21)
(0.0807288 0.672759 -1.48424e-21)
(-0.221157 0.638873 0)
(-0.497774 0.602467 0)
(-0.729157 0.535148 1.32973e-21)
(-0.930741 0.439092 0)
(-1.10289 0.334068 0)
(-1.24539 0.22928 -1.36048e-21)
(-1.37926 0.176205 0)
(-1.52866 0.218267 1.67918e-21)
(-1.69832 0.324527 -2.80777e-21)
(-1.87711 0.426071 0)
(-2.05385 0.500015 0)
(-2.22659 0.518701 -6.25919e-21)
(-2.40783 0.456779 -6.24405e-21)
(-2.60704 0.401583 -6.2767e-21)
(-2.77475 0.334182 3.40034e-21)
(-2.97233 0.344245 -2.96704e-21)
(-3.19204 0.339314 -9.48691e-21)
(-3.31939 0.289041 6.5348e-21)
(-3.42896 0.222624 3.0022e-21)
(-3.48479 0.142747 0)
(-3.52188 0.0836386 -3.00004e-21)
(-3.51865 0.0267773 3.54284e-21)
(-3.50587 -0.0184053 0)
(-3.48087 -0.0358173 0)
(-3.48855 -0.0142107 0)
(-3.48503 0.00113256 -2.90912e-21)
(-3.48031 -0.0121751 0)
(-3.44741 -0.0511594 6.21218e-21)
(-3.41369 -0.108164 0)
(-3.36172 -0.151177 6.22834e-21)
(-3.39515 -0.0841009 0)
(-3.4414 -0.0127634 -6.37569e-21)
(-3.48757 0.0288051 0)
(-3.53307 0.0434714 6.62149e-21)
(-3.57686 0.0650967 -3.65804e-21)
(-3.62786 0.0837875 0)
(-3.68029 0.107264 -7.16836e-21)
(-3.74374 0.133387 -3.39264e-21)
(-3.81834 0.163897 -3.46941e-21)
(-3.91092 0.1961 0)
(-4.0233 0.226877 -4.10128e-21)
(-4.13924 0.245967 -3.616e-21)
(-4.26283 0.259293 0)
(-4.39211 0.272954 3.69259e-21)
(-4.52596 0.279911 -7.92812e-21)
(-4.67359 0.27914 0)
(-4.83691 0.274306 -3.8235e-21)
(-5.01179 0.267171 0)
(-5.19143 0.260315 1.18472e-20)
(-5.36109 0.255624 0)
(-5.52931 0.248991 -1.16224e-20)
(-5.68862 0.241507 -3.73047e-21)
(-5.85895 0.222957 3.92296e-21)
(-6.03585 0.216479 7.70188e-21)
(-6.27946 0.248186 -7.57925e-21)
(-6.52393 0.306357 0)
(-6.81748 0.39396 0)
(-6.99455 0.374983 0)
(-7.11125 0.286238 2.06235e-20)
(-7.14949 0.181811 6.60114e-21)
(-7.14895 0.0887397 -6.65273e-21)
(-7.10436 0.00632725 0)
(-7.02923 -0.0624921 -7.23956e-21)
(-6.92354 -0.1208 6.54544e-21)
(-6.79352 -0.169062 6.38083e-21)
(-6.64036 -0.209093 0)
(-6.46767 -0.241771 0)
(-6.27667 -0.268362 0)
(-6.06952 -0.290038 5.087e-21)
(-5.84672 -0.308442 0)
(-5.60909 -0.325078 -8.58307e-21)
(-5.35649 -0.34123 -1.11067e-20)
(-5.08882 -0.357409 6.40288e-21)
(-4.80582 -0.37333 0)
(-4.50815 -0.388427 2.22203e-21)
(-4.19696 -0.402116 0)
(-3.87377 -0.413879 1.94586e-21)
(-3.54039 -0.423243 -5.78538e-22)
(-3.19877 -0.429688 -6.93164e-23)
(-2.8511 -0.432869 0)
(-2.49971 -0.432847 3.0408e-21)
(-2.14739 -0.429869 -2.80039e-21)
(-1.79622 -0.424803 -1.88746e-21)
(-1.44753 -0.418665 0)
(-1.10203 -0.411596 -2.59933e-21)
(-0.759899 -0.404069 -8.63183e-21)
(-0.421403 -0.396294 0)
(-0.0866739 -0.388314 -6.93773e-21)
(0.244028 -0.379971 -7.50401e-21)
(0.570714 -0.371105 -8.03397e-21)
(0.892891 -0.361635 0)
(1.20979 -0.351882 0)
(1.52019 -0.341039 0)
(1.82358 -0.329101 4.80799e-21)
(2.11865 -0.315925 5.02687e-21)
(2.40421 -0.30164 0)
(2.67921 -0.286434 1.03368e-20)
(2.94262 -0.270507 1.04183e-20)
(3.1936 -0.253965 0)
(3.4315 -0.237027 1.04479e-20)
(3.65583 -0.219748 2.06078e-20)
(3.86616 -0.202279 -1.02075e-20)
(4.06226 -0.184681 -9.94288e-21)
(4.24349 -0.167373 0)
(4.40978 -0.150346 0)
(4.56181 -0.133615 0)
(4.69968 -0.117376 -9.05255e-21)
(4.82368 -0.101727 8.72412e-21)
(4.93418 -0.0867311 1.69985e-20)
(5.0316 -0.0724339 -8.28163e-21)
(5.11641 -0.0588476 7.98457e-21)
(5.18912 -0.0459867 7.82373e-21)
(5.25021 -0.0338601 0)
(5.30024 -0.0224477 0)
(5.33978 -0.0117075 -7.20659e-21)
(5.36951 -0.0015515 0)
(5.39018 0.00809842 0)
(5.40228 0.0172919 1.36829e-20)
(5.4063 0.0260996 0)
(5.40251 0.0345446 6.62836e-21)
(5.39081 0.0425525 -6.62855e-21)
(5.37099 0.0501075 0)
(5.34277 0.0575092 6.45562e-21)
(5.30587 0.0652457 0)
(5.25972 0.073599 0)
(5.20355 0.0822774 -6.45677e-21)
(5.13626 0.0905408 1.27549e-20)
(5.05703 0.0966989 -6.40239e-21)
(4.96514 0.0986188 0)
(4.85949 0.0936495 0)
(4.73904 0.0818942 6.20079e-21)
(4.60698 0.0667286 0)
(4.48194 0.0548613 6.15125e-21)
(4.38355 0.0523477 0)
(4.31232 0.0559337 0)
(4.25875 0.0614576 0)
(4.20451 0.064074 6.0998e-21)
(4.14279 0.0608063 0)
(4.07699 0.0538688 -6.02898e-21)
(4.01278 0.0475331 0)
(3.95049 0.0423082 0)
(3.89789 0.0436632 1.1834e-20)
(3.84816 0.048262 -1.17961e-20)
(3.80681 0.0586263 0)
(3.74652 0.0611939 0)
(3.69624 0.0740665 0)
(3.59141 0.0666002 3.51542e-20)
(3.545 0.097772 0)
(3.35677 0.0802012 -2.3344e-20)
(0.0851668 0.595432 -4.51042e-23)
(0.347956 0.192045 4.47895e-21)
(0.705142 -0.419 0)
(1.122 -1.02675 -4.74335e-21)
(1.5252 -1.51113 0)
(1.86397 -1.80338 0)
(2.12148 -1.89283 -3.4886e-22)
(2.30608 -1.82002 2.41582e-21)
(2.42825 -1.63093 2.96042e-21)
(2.50475 -1.37219 2.57328e-21)
(2.53864 -1.09327 0)
(2.53943 -0.82814 0)
(2.51287 -0.590723 -3.35406e-21)
(2.47199 -0.386292 -6.8278e-21)
(2.42497 -0.19956 6.90901e-21)
(2.37262 -0.0231835 0)
(2.31293 0.113319 6.96926e-21)
(2.23415 0.210166 -3.15489e-21)
(2.13771 0.295686 0)
(2.0064 0.427435 6.85004e-21)
(1.86077 0.567408 3.08124e-21)
(1.71534 0.687299 -6.67881e-21)
(1.56527 0.792372 -2.97282e-21)
(1.41474 0.876257 0)
(1.25448 0.951238 6.35054e-21)
(1.06284 1.04779 6.24591e-21)
(0.852475 1.13964 0)
(0.616086 1.22512 6.07821e-21)
(0.355811 1.28238 0)
(0.0739685 1.29361 6.00816e-21)
(-0.225509 1.25172 2.74286e-21)
(-0.512044 1.16797 0)
(-0.777799 1.04976 0)
(-1.00601 0.903636 0)
(-1.21617 0.761528 0)
(-1.40408 0.624665 0)
(-1.60132 0.536613 0)
(-1.80509 0.510523 6.55979e-21)
(-2.01141 0.54597 -9.72949e-21)
(-2.21707 0.620767 0)
(-2.39701 0.684529 0)
(-2.57106 0.708201 0)
(-2.70126 0.733012 -5.82557e-22)
(-2.84952 0.708643 6.2327e-21)
(-2.98064 0.652383 1.30956e-20)
(-3.10646 0.591406 -1.32092e-20)
(-3.22152 0.530954 -6.96017e-21)
(-3.31422 0.459139 6.47482e-21)
(-3.36197 0.384827 5.8973e-22)
(-3.3982 0.303829 7.16598e-21)
(-3.41089 0.217111 0)
(-3.42273 0.132081 7.17636e-21)
(-3.42347 0.0601931 6.00198e-22)
(-3.44262 0.0228681 0)
(-3.45873 0.00915379 0)
(-3.46814 0.00403421 -6.94037e-21)
(-3.45406 -0.012795 0)
(-3.44094 -0.0390868 0)
(-3.42324 -0.0807995 7.28839e-21)
(-3.42777 -0.1064 1.34396e-20)
(-3.4918 -0.0582599 -6.23008e-21)
(-3.59095 0.0136516 0)
(-3.66818 0.0645449 6.37548e-21)
(-3.73603 0.092456 0)
(-3.79679 0.106021 7.90072e-21)
(-3.8464 0.121447 6.78916e-21)
(-3.88715 0.135146 -1.5361e-20)
(-3.9211 0.158411 -8.60414e-21)
(-3.95587 0.196178 0)
(-3.99931 0.245844 1.64104e-20)
(-4.05772 0.297095 0)
(-4.13001 0.338831 2.44206e-20)
(-4.21005 0.364828 1.68247e-20)
(-4.29993 0.382933 1.68996e-20)
(-4.3917 0.392307 -1.69739e-20)
(-4.49565 0.406242 2.49784e-20)
(-4.61809 0.432375 0)
(-4.75529 0.453873 0)
(-4.90731 0.457044 -1.70249e-20)
(-5.0732 0.450972 -2.49108e-20)
(-5.24148 0.444648 0)
(-5.42289 0.435355 7.85209e-21)
(-5.60837 0.426917 0)
(-5.80534 0.427197 -2.35109e-20)
(-6.03098 0.464737 7.20273e-22)
(-6.2666 0.506441 -7.89985e-22)
(-6.49858 0.564281 1.53445e-20)
(-6.6468 0.547878 0)
(-6.68326 0.44173 -1.52316e-20)
(-6.68473 0.30577 1.12482e-21)
(-6.65148 0.169054 0)
(-6.60819 0.0465421 0)
(-6.54294 -0.0613621 0)
(-6.46265 -0.153548 1.38936e-20)
(-6.36014 -0.233166 0)
(-6.23843 -0.300971 0)
(-6.09525 -0.35872 0)
(-5.93288 -0.407362 0)
(-5.75117 -0.448692 0)
(-5.55167 -0.484305 1.10776e-20)
(-5.3345 -0.51613 0)
(-5.10073 -0.545717 8.59279e-21)
(-4.85117 -0.574137 7.5208e-21)
(-4.58729 -0.601643 -6.4095e-21)
(-4.31016 -0.627854 0)
(-4.02086 -0.652033 -4.14919e-21)
(-3.72018 -0.673577 0)
(-3.40886 -0.691911 -1.9473e-21)
(-3.08772 -0.70633 8.9848e-22)
(-2.75796 -0.716157 4.70588e-22)
(-2.42127 -0.720776 0)
(-2.0799 -0.719938 -5.1742e-21)
(-1.73651 -0.714305 -2.14959e-21)
(-1.39349 -0.705386 0)
(-1.05249 -0.694283 -8.09347e-21)
(-0.714176 -0.681945 -9.5326e-21)
(-0.378726 -0.669206 1.66e-20)
(-0.046306 -0.656268 0)
(0.282951 -0.643126 6.93533e-21)
(0.608852 -0.629518 7.50147e-21)
(0.930952 -0.61509 2.37015e-20)
(1.24866 -0.599923 0)
(1.56107 -0.583677 0)
(1.86741 -0.565725 0)
(2.16648 -0.545915 9.40691e-21)
(2.45695 -0.524148 0)
(2.73755 -0.500553 0)
(3.00717 -0.475436 -1.03293e-20)
(3.26487 -0.449162 -1.0411e-20)
(3.50986 -0.421968 0)
(3.74159 -0.39416 0)
(3.95967 -0.365835 -2.0595e-20)
(4.1638 -0.337236 0)
(4.35381 -0.30848 1.99563e-20)
(4.52923 -0.280431 1.93971e-20)
(4.69004 -0.252693 0)
(4.83701 -0.225664 0)
(4.97029 -0.199531 -1.79131e-20)
(5.09028 -0.174426 -1.11061e-22)
(5.19748 -0.150434 -1.07219e-22)
(5.2924 -0.127611 0)
(5.37559 -0.105996 -3.19457e-20)
(5.44758 -0.0856198 0)
(5.50892 -0.0664927 0)
(5.56021 -0.0486052 0)
(5.60205 -0.0319433 1.44676e-20)
(5.63505 -0.0164811 0)
(5.6598 -0.0021892 -2.76204e-20)
(5.67696 0.0110573 -1.36782e-20)
(5.68726 0.023407 0)
(5.69143 0.0350076 -1.33185e-20)
(5.68996 0.0460168 0)
(5.68302 0.0566389 0)
(5.67061 0.0673105 -3.87328e-20)
(5.6528 0.0786684 2.56e-20)
(5.62966 0.0911217 0)
(5.60104 0.104373 2.53613e-20)
(5.56634 0.117578 -1.27489e-20)
(5.52432 0.12931 0)
(5.47347 0.138253 0)
(5.41134 0.143419 0)
(5.33588 0.144757 -3.7232e-20)
(5.24365 0.142814 0)
(5.13219 0.133611 -1.23819e-20)
(5.00731 0.114799 0)
(4.88056 0.0950089 0)
(4.77201 0.0831942 0)
(4.69325 0.0801492 0)
(4.6301 0.0782793 0)
(4.56498 0.0730248 0)
(4.49812 0.0682391 -2.36324e-20)
(4.43065 0.0639148 0)
(4.3702 0.0626223 -1.18277e-20)
(4.31365 0.0614827 3.51856e-20)
(4.27535 0.0674252 0)
(4.23496 0.0700246 0)
(4.21467 0.0882016 -2.32615e-20)
(4.16238 0.0934897 -2.33862e-20)
(4.14209 0.129135 2.32034e-20)
(4.03829 0.125967 2.33305e-20)
(0.0835233 -0.00253261 -6.66169e-21)
(0.516382 -0.716953 -6.74155e-21)
(1.02297 -1.46156 -4.76391e-21)
(1.45785 -1.96453 -2.71322e-21)
(1.78322 -2.24869 0)
(1.98142 -2.29075 5.84005e-21)
(2.07273 -2.14284 -3.45342e-21)
(2.09783 -1.89583 0)
(2.08033 -1.5998 -2.96267e-21)
(2.05022 -1.28416 0)
(2.01121 -0.978258 7.25794e-21)
(1.96676 -0.690976 0)
(1.9102 -0.429807 3.35939e-21)
(1.83951 -0.204533 6.8386e-21)
(1.75109 -0.0177455 -6.91906e-21)
(1.65383 0.139779 0)
(1.55651 0.283893 -6.97641e-21)
(1.45087 0.405455 0)
(1.3213 0.53475 0)
(1.17282 0.68255 -6.8519e-21)
(1.02745 0.816656 0)
(0.876918 0.943402 -7.10737e-22)
(0.723536 1.0537 0)
(0.560368 1.15989 0)
(0.377974 1.27987 7.66208e-22)
(0.185576 1.39883 -6.2388e-21)
(-0.0148974 1.51301 -6.93662e-21)
(-0.218394 1.61062 -6.06752e-21)
(-0.42361 1.6777 0)
(-0.631312 1.70404 -1.27308e-20)
(-0.849832 1.6738 0)
(-1.07161 1.58002 -6.67084e-21)
(-1.29393 1.43834 0)
(-1.50699 1.27356 0)
(-1.71656 1.11418 6.73944e-21)
(-1.92694 0.980486 0)
(-2.15205 0.898981 -6.89851e-21)
(-2.37159 0.867828 4.77819e-22)
(-2.58629 0.894485 1.38413e-20)
(-2.78916 0.949157 -1.46062e-20)
(-2.96786 0.990509 0)
(-3.11599 0.976149 0)
(-3.22495 0.935363 -8.04672e-21)
(-3.31041 0.859214 0)
(-3.372 0.780608 -6.82e-21)
(-3.42046 0.710861 6.87937e-21)
(-3.44422 0.624361 6.95307e-21)
(-3.44914 0.523404 0)
(-3.43924 0.418302 -7.11498e-21)
(-3.42799 0.310256 -7.16402e-21)
(-3.41523 0.207764 1.56951e-20)
(-3.41726 0.124421 -7.17622e-21)
(-3.43297 0.0711953 -7.1363e-21)
(-3.46623 0.0376913 0)
(-3.49139 0.00808724 0)
(-3.50927 -0.0148864 6.94152e-21)
(-3.52027 -0.0337742 0)
(-3.54503 -0.0477475 0)
(-3.57845 -0.0615133 -1.35026e-20)
(-3.6568 -0.0222668 -1.34373e-20)
(-3.78211 0.0606544 0)
(-3.90641 0.125334 0)
(-3.99724 0.164914 0)
(-4.08274 0.187223 0)
(-4.15546 0.186036 -1.4509e-20)
(-4.20539 0.179325 1.63834e-20)
(-4.23563 0.175521 1.53529e-20)
(-4.25265 0.191407 3.30344e-20)
(-4.26489 0.23249 0)
(-4.27407 0.291047 1.51139e-21)
(-4.28612 0.348949 0)
(-4.30281 0.3947 -1.67386e-20)
(-4.33051 0.427418 1.42688e-21)
(-4.37237 0.452795 -1.69126e-20)
(-4.42538 0.488347 1.69902e-20)
(-4.49251 0.526157 1.23433e-21)
(-4.56221 0.551771 0)
(-4.64261 0.578931 1.82068e-20)
(-4.7458 0.602346 1.70454e-20)
(-4.87884 0.617674 3.47815e-20)
(-5.03241 0.627064 0)
(-5.20501 0.629516 -1.7334e-20)
(-5.38606 0.634825 0)
(-5.58324 0.65591 3.27179e-20)
(-5.78125 0.686626 -1.56634e-20)
(-5.96543 0.709497 1.54712e-20)
(-6.09634 0.68942 -1.5358e-20)
(-6.12703 0.579958 -3.2869e-20)
(-6.10536 0.425428 1.52442e-20)