/*--------------------------------*- C++ -*----------------------------------*\
  =========                 |
  \\      /  F ield         | OpenFOAM: The Open Source CFD Toolbox
   \\    /   O peration     | Website:  https://openfoam.org
    \\  /    A nd           | Version:  9
     \\/     M anipulation  |
\*---------------------------------------------------------------------------*/
FoamFile
{
    format      ascii;
    class       volScalarField;
    location    "0.086";
    object      k;
}
// * * * * * * * * * * * * * * * * * * * * * * * * * * * * * * * * * * * * * //

dimensions      [0 2 -2 0 0 0 0];

internalField   nonuniform List<scalar> 
12225
(
2.12354e-05
7.46001e-05
0.000212541
0.000294221
0.000326349
0.000329785
0.000315383
0.000241068
0.000155699
0.000108426
8.48826e-05
7.48332e-05
7.05495e-05
6.51233e-05
5.44189e-05
4.2977e-05
2.97504e-05
3.02361e-05
2.00987e-05
2.61375e-05
4.14963e-05
5.41713e-05
8.04296e-05
0.000101842
0.000106372
0.000103301
8.8324e-05
6.73791e-05
5.52553e-05
4.95271e-05
4.70997e-05
4.61292e-05
4.5039e-05
4.32168e-05
4.21372e-05
3.92248e-05
2.00554e-05
1.57399e-05
1.59215e-05
1.71092e-05
1.91203e-05
2.27352e-05
2.50841e-05
2.54705e-05
2.50282e-05
2.34437e-05
2.23848e-05
2.20067e-05
2.19379e-05
2.19715e-05
2.21946e-05
2.29411e-05
2.41971e-05
2.48771e-05
2.00545e-05
2.00468e-05
2.06524e-05
2.14467e-05
2.15729e-05
2.1381e-05
2.03753e-05
1.63121e-05
1.20162e-05
1.21917e-05
1.36365e-05
1.56885e-05
1.73348e-05
1.86938e-05
1.98805e-05
2.08297e-05
2.14965e-05
2.19103e-05
2.06302e-05
2.11137e-05
2.48342e-05
4.87372e-05
5.94904e-05
5.23235e-05
3.47176e-05
2.58983e-05
2.17954e-05
2.02935e-05
1.99365e-05
1.99304e-05
2.00336e-05
2.04614e-05
2.16389e-05
2.25992e-05
2.31814e-05
2.32736e-05
2.11647e-05
2.04617e-05
2.14278e-05
2.65805e-05
3.14627e-05
3.16905e-05
2.88272e-05
2.39566e-05
2.18602e-05
2.12111e-05
2.11123e-05
2.1215e-05
2.19768e-05
2.52368e-05
3.41971e-05
4.08714e-05
4.40217e-05
4.44432e-05
2.06449e-05
2.09119e-05
2.36798e-05
2.80309e-05
2.67785e-05
2.42575e-05
2.24838e-05
2.13779e-05
2.10047e-05
2.09154e-05
2.09363e-05
2.1218e-05
2.24248e-05
2.6108e-05
2.9806e-05
3.21516e-05
3.32468e-05
3.38808e-05
2.4977e-05
2.29063e-05
2.22003e-05
2.19611e-05
2.14647e-05
2.14051e-05
2.17763e-05
2.32748e-05
2.47834e-05
2.53347e-05
2.57523e-05
2.7064e-05
3.19303e-05
4.47902e-05
5.19402e-05
5.28685e-05
5.10407e-05
4.28716e-05
3.19411e-05
2.94233e-05
2.30118e-05
2.10336e-05
2.08315e-05
2.14902e-05
2.64746e-05
3.52052e-05
3.70326e-05
3.48679e-05
2.86749e-05
2.58856e-05
2.55752e-05
2.62968e-05
2.98179e-05
3.2693e-05
3.30887e-05
3.20682e-05
2.3281e-05
2.52786e-05
2.40552e-05
2.11976e-05
2.05409e-05
2.07146e-05
2.20379e-05
2.41847e-05
2.75106e-05
3.57664e-05
4.37189e-05
4.69835e-05
4.75e-05
4.71508e-05
4.47147e-05
3.75739e-05
3.08879e-05
2.62313e-05
2.28831e-05
2.42598e-05
2.32748e-05
2.14322e-05
2.09206e-05
2.08756e-05
2.09465e-05
2.11496e-05
2.15626e-05
2.26763e-05
2.63322e-05
3.6769e-05
4.42227e-05
4.69738e-05
4.70369e-05
4.4089e-05
3.50962e-05
2.85265e-05
2.00638e-05
2.08339e-05
2.40629e-05
2.78008e-05
2.78375e-05
2.50037e-05
2.21912e-05
2.12842e-05
2.12001e-05
2.15491e-05
2.36879e-05
3.23681e-05
3.94537e-05
4.06427e-05
3.87531e-05
3.20596e-05
2.73584e-05
2.50941e-05
2.02261e-05
2.26231e-05
2.6317e-05
2.81042e-05
2.70334e-05
2.35114e-05
2.16189e-05
2.09105e-05
2.07531e-05
2.07966e-05
2.12105e-05
2.31306e-05
2.94386e-05
3.3746e-05
3.42634e-05
3.28876e-05
2.83161e-05
2.5217e-05
2.05384e-05
2.13333e-05
2.41332e-05
2.63738e-05
2.65411e-05
2.59543e-05
2.5612e-05
2.57706e-05
2.6215e-05
2.62271e-05
2.58653e-05
2.57056e-05
2.58859e-05
2.74875e-05
3.18606e-05
3.34414e-05
3.3433e-05
3.2701e-05
2.0498e-05
2.05402e-05
2.07254e-05
2.10564e-05
2.14424e-05
2.23852e-05
2.62542e-05
4.67251e-05
7.19562e-05
7.48361e-05
6.55693e-05
4.47997e-05
3.33016e-05
2.8732e-05
2.79149e-05
2.87636e-05
3.12461e-05
3.16462e-05
2.07052e-05
2.1737e-05
2.16646e-05
2.14984e-05
2.14734e-05
2.16813e-05
2.30924e-05
3.01087e-05
3.543e-05
3.52465e-05
3.09096e-05
2.54674e-05
2.31065e-05
2.24712e-05
2.2559e-05
2.41332e-05
2.83934e-05
2.96304e-05
2.12356e-05
2.13926e-05
2.08589e-05
2.07921e-05
2.06085e-05
2.05865e-05
2.0803e-05
2.19521e-05
2.75078e-05
4.36379e-05
5.00905e-05
4.87297e-05
3.86024e-05
3.06392e-05
2.87229e-05
2.9254e-05
3.11998e-05
3.14409e-05
2.10705e-05
2.13694e-05
2.1237e-05
2.14073e-05
2.15165e-05
2.09911e-05
2.07658e-05
2.09108e-05
2.19899e-05
2.44344e-05
2.54759e-05
2.54556e-05
2.45837e-05
2.36177e-05
2.34012e-05
2.35171e-05
2.43128e-05
2.68712e-05
2.0484e-05
2.12824e-05
2.12897e-05
2.09034e-05
2.07321e-05
2.06693e-05
2.07083e-05
2.09579e-05
2.18091e-05
2.27935e-05
2.34894e-05
2.38351e-05
2.38594e-05
2.34451e-05
2.2359e-05
2.1775e-05
2.16212e-05
2.1671e-05
2.06222e-05
2.11586e-05
2.11952e-05
2.10981e-05
2.07423e-05
2.05476e-05
2.05177e-05
2.05585e-05
2.08131e-05
2.13373e-05
2.16908e-05
2.1859e-05
2.1901e-05
2.18895e-05
2.1796e-05
2.16796e-05
2.16392e-05
2.16381e-05
2.46063e-05
2.22974e-05
2.14799e-05
2.15045e-05
2.15114e-05
2.13317e-05
2.11808e-05
2.11672e-05
2.1214e-05
2.12884e-05
2.13264e-05
2.13669e-05
2.1444e-05
2.16668e-05
2.22453e-05
2.31168e-05
2.38097e-05
2.42268e-05
2.12201e-05
2.07901e-05
2.0683e-05
2.12171e-05
2.18285e-05
2.19882e-05
2.20189e-05
2.20781e-05
2.25011e-05
2.37713e-05
2.40344e-05
2.36328e-05
2.2861e-05
2.26049e-05
2.26054e-05
2.29158e-05
2.37892e-05
2.40991e-05
2.08057e-05
2.09242e-05
2.08733e-05
2.08924e-05
2.0891e-05
2.07978e-05
2.06483e-05
2.05958e-05
2.05922e-05
2.06144e-05
2.07303e-05
2.12479e-05
2.27006e-05
2.33834e-05
2.33509e-05
2.32935e-05
2.36446e-05
2.44441e-05
2.0328e-05
2.04651e-05
2.04219e-05
2.04594e-05
2.04673e-05
2.04512e-05
2.04451e-05
2.04596e-05
2.05499e-05
2.08473e-05
2.10756e-05
2.11918e-05
2.12602e-05
2.13056e-05
2.13549e-05
2.14552e-05
2.17796e-05
2.30341e-05
2.15587e-05
2.1796e-05
2.20422e-05
2.25304e-05
2.25754e-05
2.22905e-05
2.16412e-05
2.13513e-05
2.12486e-05
2.10981e-05
2.09121e-05
2.07915e-05
2.07566e-05
2.07626e-05
2.08338e-05
2.11578e-05
2.23299e-05
2.67916e-05
2.17518e-05
2.22747e-05
2.20112e-05
2.19265e-05
2.18808e-05
2.17129e-05
2.13939e-05
2.1246e-05
2.12315e-05
2.12044e-05
2.10061e-05
2.08875e-05
2.08656e-05
2.08691e-05
2.08929e-05
2.09659e-05
2.11573e-05
2.16678e-05
2.02042e-05
2.03209e-05
2.02477e-05
2.00222e-05
1.99557e-05
1.98785e-05
1.96431e-05
1.92652e-05
1.90689e-05
1.8893e-05
1.84779e-05
1.77944e-05
1.75874e-05
1.78165e-05
1.87699e-05
1.9537e-05
1.973e-05
1.96937e-05
2.00124e-05
1.85207e-05
1.79911e-05
1.60461e-05
1.46284e-05
1.42776e-05
1.42074e-05
1.40376e-05
1.32628e-05
1.11119e-05
9.61505e-06
8.97649e-06
8.85005e-06
8.92144e-06
9.48206e-06
1.11023e-05
1.24904e-05
1.36037e-05
2.05614e-05
2.12948e-05
2.26204e-05
2.72366e-05
3.22706e-05
3.38439e-05
3.36218e-05
3.15326e-05
2.86642e-05
2.6674e-05
2.49462e-05
2.34099e-05
2.22649e-05
2.16362e-05
2.14372e-05
2.14387e-05
2.16003e-05
2.22578e-05
5.88043e-05
5.83793e-05
6.65933e-05
0.000115113
0.000145876
0.000148791
0.000137556
0.000101391
7.55233e-05
5.81708e-05
4.45998e-05
3.44414e-05
2.83336e-05
2.59015e-05
2.56114e-05
2.65196e-05
3.17336e-05
5.24289e-05
0.0701874
0.0830257
0.0846142
0.0863276
0.0905885
0.0918881
0.0914808
0.0896278
0.0890449
0.087975
0.0854561
0.079461
0.0708738
0.0701214
0.0716389
0.0742572
0.0825114
0.0822872
0.0879249
0.129448
0.17849
0.175519
0.159986
0.151011
0.141977
0.123752
0.107097
0.100218
0.0962167
0.0919865
0.0897997
0.0877189
0.0855963
0.084192
0.0822482
0.0818713
0.082128
0.0831804
0.0851185
0.0875969
0.0910876
0.0956304
0.0977786
0.098195
0.0980047
0.096474
0.0935619
0.0901233
0.0868308
0.0839194
0.0816118
0.0802956
0.0793801
0.0787287
0.0784783
0.0782069
0.0780644
0.0779812
0.0778531
0.0777022
0.0774703
0.0771569
0.0768022
0.0764892
0.0763071
0.0762527
0.0762236
0.0762646
0.0766648
0.0777678
0.079565
0.0810344
0.0878023
0.0919593
0.100571
0.104911
0.10391
0.099672
0.102948
0.110556
0.247018
0.329614
0.270985
0.240791
0.239933
0.281776
0.39644
0.453408
0.441905
0.333509
0.174826
0.0880132
0.0524075
0.0404978
0.0376701
0.0376424
0.038273
0.0400452
0.0440244
0.0478043
0.0495676
0.0609346
0.122118
0.174019
0.178323
0.219299
0.188522
0.102345
0.0583093
0.0440771
0.0405194
0.0392095
0.0371603
0.0357614
0.035207
0.0350791
0.03588
0.0363091
0.0365254
0.0366184
0.036658
0.036671
0.0367163
0.0366287
0.036109
0.0353497
0.0347693
0.0343712
0.0336774
0.0328735
0.032215
0.0315464
0.0306808
0.0297166
0.0286519
0.0275394
0.0261175
0.0245289
0.0227725
0.0208872
0.0190021
0.0172563
0.015798
0.0146193
0.0136098
0.0127932
0.0121875
0.0118128
0.0116738
0.0116807
0.0118212
0.012391
0.0129938
0.0132712
0.0133013
0.0129877
0.0106226
0.0067463
0.00556711
0.00563756
0.0063439
0.00695666
0.00724402
0.00741443
0.00756864
0.00767222
0.00762389
0.00752642
0.00749721
0.00744237
0.00741679
0.00732526
0.00703821
0.0068107
0.00663251
0.00643277
0.00633062
0.00631202
0.00640611
0.00588956
0.0599445
0.0535846
0.0820712
0.106987
0.11468
0.115322
0.115409
0.108718
0.0935011
0.0900545
0.089189
0.0777728
0.0585322
0.0512707
0.0491065
0.0855469
0.150261
0.166778
0.15907
0.154711
0.156183
0.141093
0.13338
0.122637
0.106432
0.0966994
0.0919619
0.0870709
0.083106
0.080666
0.0783128
0.0760235
0.0742272
0.0719632
0.0699803
0.0686084
0.0680472
0.0680023
0.0682814
0.0692471
0.0712223
0.0738396
0.0758892
0.0764759
0.0764792
0.0759094
0.074484
0.0723465
0.0696384
0.0663637
0.0625578
0.058411
0.0542565
0.050854
0.0483899
0.0467215
0.0453707
0.0442901
0.0434764
0.0428872
0.0422328
0.0417341
0.0416542
0.0418569
0.0424885
0.0434418
0.0446727
0.046548
0.0497758
0.0559269
0.0680698
0.0796908
0.106897
0.13226
0.166118
0.174548
0.168625
0.153298
0.124985
0.116485
0.155537
0.278026
0.239389
0.155405
0.137674
0.136471
0.152199
0.176088
0.174813
0.131197
0.0838674
0.0530663
0.0410676
0.0388976
0.0393566
0.041616
0.0462391
0.0543989
0.0705231
0.106665
0.196337
0.28617
0.325336
0.316557
0.26347
0.200145
0.110911
0.0652495
0.0532654
0.0534319
0.0604141
0.0621252
0.0628684
0.0630743
0.0628531
0.0615062
0.0604772
0.0600418
0.0592349
0.0576882
0.056009
0.0548872
0.0540368
0.0528879
0.0514236
0.0499168
0.0485483
0.0472647
0.0461736
0.0453824
0.0442858
0.0437941
0.043615
0.0437809
0.0439552
0.0440705
0.044064
0.0438455
0.0434045
0.0427194
0.041488
0.0394189
0.0363113
0.032263
0.0276008
0.023021
0.0193837
0.0164074
0.0135372
0.0111615
0.00989095
0.00958367
0.00960917
0.00983154
0.0107715
0.0113549
0.0112252
0.0107587
0.0107004
0.0109852
0.012071
0.0127418
0.0127924
0.0122925
0.0103836
0.00893397
0.00816859
0.00765138
0.00727264
0.00697264
0.00668336
0.00641585
0.00613801
0.00582173
0.00553711
0.00532941
0.00524245
0.00523004
0.00527064
0.0054715
0.0670401
0.0620528
0.120905
0.125364
0.120438
0.11356
0.11363
0.117231
0.125102
0.123623
0.123118
0.121523
0.10499
0.0657602
0.0670403
0.120571
0.154245
0.152663
0.126665
0.107706
0.0998827
0.0965245
0.0884608
0.0731337
0.0640076
0.0599549
0.0561769
0.052413
0.0504046
0.0485666
0.0456062
0.0434174
0.040556
0.0371174
0.0348394
0.0316512
0.0293745
0.0279141
0.0260317
0.0253189
0.0250606
0.0250171
0.0251612
0.0253856
0.0252885
0.0246462
0.0232987
0.0213164
0.0188802
0.0163346
0.0141504
0.0125179
0.01138
0.0106406
0.0100991
0.00980976
0.00950228
0.00926301
0.00908646
0.00900819
0.0090547
0.00938677
0.0100671
0.0110722
0.0124747
0.0143933
0.0170004
0.0207673
0.0271608
0.038512
0.0575297
0.0855001
0.128751
0.182326
0.219019
0.243377
0.243383
0.232838
0.192845
0.135468
0.137712
0.186812
0.207008
0.182636
0.139968
0.121525
0.109284
0.0919783
0.0695204
0.0479193
0.0340236
0.0276222
0.0259756
0.0258046
0.0268145
0.0300312
0.037868
0.0521617
0.0763774
0.113539
0.157883
0.192764
0.207335
0.19578
0.152724
0.0928578
0.0632036
0.0566601
0.0598304
0.0692254
0.0714247
0.0717534
0.0706595
0.067055
0.0631073
0.0617491
0.061243
0.0610424
0.0609027
0.0601477
0.0589812
0.0580611
0.0567794
0.054893
0.0527807
0.0508468
0.0492142
0.0471946
0.0448927
0.0433673
0.0410204
0.0389267
0.0367449
0.0353014
0.0350175
0.0356914
0.0373338
0.039231
0.0412125
0.0431243
0.044658
0.0455469
0.0459336
0.0458806
0.0450156
0.0419121
0.0368993
0.0315148
0.0244439
0.015324
0.00780227
0.00427138
0.00354264
0.00356541
0.00388721
0.00487762
0.00658394
0.00804232
0.00885206
0.00924641
0.0100521
0.0111851
0.011734
0.0117512
0.0116083
0.0111768
0.00992737
0.00873806
0.00811948
0.00780123
0.00752703
0.00715219
0.00675302
0.0064583
0.00618278
0.00572196
0.00510355
0.00454366
0.00427685
0.00428644
0.0724156
0.132088
0.134356
0.116597
0.0813944
0.0724837
0.0741537
0.0788451
0.0837624
0.0875486
0.094462
0.109014
0.109547
0.103997
0.0808621
0.102893
0.150276
0.142302
0.0978396
0.081316
0.07647
0.0720157
0.0596776
0.0446418
0.0385984
0.0354341
0.031492
0.0286849
0.0272993
0.0250364
0.0225801
0.0209985
0.0182677
0.0159064
0.014511
0.0122393
0.0111421
0.0102304
0.00930383
0.00892314
0.00853344
0.00831122
0.008148
0.00793262
0.00775488
0.00744204
0.00699641
0.00647453
0.00592576
0.00561578
0.00548762
0.00545619
0.00555802
0.00570908
0.00576632
0.00578523
0.00574699
0.00551088
0.00511848
0.00466707
0.00415544
0.00376089
0.00361251
0.0035999
0.00387408
0.00457522
0.00589203
0.00855813
0.0143033
0.0252021
0.0459786
0.081227
0.131668
0.191668
0.228908
0.255794
0.264939
0.261951
0.244781
0.17905
0.144151
0.157586
0.175849
0.167648
0.138459
0.0937294
0.0610238
0.0439274
0.0315301
0.0241806
0.0208129
0.0197802
0.0201412
0.0207381
0.021754
0.0243797
0.0295775
0.0388136
0.0521685
0.0701339
0.088584
0.0998615
0.104199
0.0944727
0.0725109
0.0594948
0.0558365
0.0616009
0.0793455
0.0865905
0.0884911
0.0888581
0.0875826
0.0822692
0.0747887
0.0713724
0.0699959
0.0689874
0.067464
0.065627
0.0639509
0.0621458
0.0601978
0.0583432
0.0560429
0.0536053
0.0517521
0.0500169
0.0478045
0.045646
0.043105
0.0400383
0.0362398
0.0327734
0.0301158
0.0281911
0.0269709
0.0265981
0.0268088
0.0278661
0.0300436
0.0332026
0.036952
0.0411791
0.0449984
0.0465851
0.0464524
0.0440142
0.0398151
0.035619
0.0291437
0.0215365
0.0147718
0.0098147
0.00721271
0.00652234
0.00660622
0.00704544
0.00763236
0.00782925
0.00784625
0.00787748
0.00800728
0.00846871
0.00973361
0.0104468
0.0106608
0.010665
0.0105135
0.00997146
0.00962208
0.00946248
0.00920384
0.00860329
0.00797273
0.00753049
0.00718333
0.00662954
0.00577909
0.00499302
0.0971237
0.112273
0.0879868
0.0554821
0.0555926
0.0600172
0.0704691
0.0782749
0.0855823
0.0889038
0.0922452
0.0995343
0.106357
0.106455
0.0999092
0.0880627
0.138984
0.145179
0.0995215
0.0703124
0.0622431
0.0569888
0.0431436
0.0291622
0.0240348
0.0213093
0.0180682
0.0159238
0.0148799
0.0131686
0.0114051
0.0105351
0.00912906
0.00806632
0.00751273
0.0067309
0.00632242
0.00596307
0.00545482
0.00516066
0.00476736
0.00460752
0.00454446
0.0045159
0.0045069
0.00452058
0.00460215
0.00471869
0.00485047
0.00505232
0.00538021
0.0058321
0.00637301
0.00678628
0.00709965
0.007223
0.0072389
0.00691284
0.00617572
0.00529208
0.00426166
0.00330989
0.00266345
0.00225098
0.00193598
0.00180246
0.0018793
0.00237344
0.00388561
0.00795433
0.0185709
0.0458942
0.0971956
0.167814
0.215936
0.250699
0.266707
0.268078
0.258603
0.212746
0.159929
0.159677
0.164969
0.158048
0.134037
0.0823617
0.0413045
0.0258254
0.0191127
0.0161662
0.0150627
0.0147418
0.0153579
0.0160193
0.0170823
0.0201609
0.025619
0.0327637
0.0413179
0.0519731
0.0627735
0.0685222
0.0704077
0.065149
0.0573327
0.0551076
0.0584655
0.0776241
0.0942021
0.0985082
0.0996976
0.0998039
0.0981833
0.0932305
0.0863899
0.08023
0.0754631
0.0716556
0.0688272
0.067137
0.0653196
0.0627204
0.0606102
0.0589467
0.0568194
0.054483
0.0525275
0.0508753
0.049607
0.0481997
0.0468578
0.0453481
0.0428245
0.0376902
0.0320596
0.0285467
0.0263676
0.0250884
0.0244554
0.0242413
0.0242554
0.0245456
0.025533
0.0273436
0.031021
0.038205
0.0447137
0.0469939
0.0466684
0.0426878
0.0387255
0.0342538
0.0259774
0.0175352
0.0118377
0.00908654
0.00786526
0.0076239
0.00771624
0.00785472
0.00785904
0.00768736
0.00716395
0.00703201
0.00713324
0.00788749
0.00944842
0.0103998
0.0110014
0.0113045
0.0114201
0.0114237
0.0112942
0.0106855
0.00965761
0.00865337
0.00776751
0.00694163
0.00651777
0.0060346
0.0682985
0.0633338
0.039408
0.0410874
0.0533923
0.0804451
0.0936538
0.100311
0.110814
0.11242
0.110442
0.105989
0.107211
0.107081
0.104592
0.0895463
0.110761
0.146691
0.116098
0.0695319
0.0534175
0.0459619
0.0335615
0.0201684
0.0155621
0.0132276
0.0108667
0.00936275
0.00861244
0.00752251
0.0068492
0.00650536
0.00623834
0.00615913
0.00617893
0.0060783
0.00594662
0.00571069
0.0053817
0.00509817
0.00484237
0.00478505
0.0048064
0.00498361
0.00531079
0.00576792
0.00641525
0.00724422
0.00815461
0.00919881
0.0103888
0.0115426
0.012387
0.012987
0.0132552
0.0133382
0.0131974
0.0126429
0.0115749
0.00991442
0.00777212
0.005425
0.00370664
0.00252025
0.00191662
0.00151173
0.00133882
0.0012706
0.00156572
0.00294124
0.00749357
0.0201563
0.048387
0.100847
0.164387
0.214084
0.246939
0.259031
0.250254
0.205032
0.164588
0.162068
0.162242
0.14835
0.122484
0.0696706
0.0305941
0.018799
0.0149582
0.0131037
0.01187
0.011286
0.0113149
0.0123282
0.013636
0.0159283
0.0206668
0.0271362
0.0340384
0.0416214
0.0499799
0.0562571
0.0582127
0.0573075
0.0550888
0.055194
0.0662607
0.0917443
0.102993
0.105861
0.10653
0.106558
0.105423
0.101742
0.0955905
0.0880294
0.0801589
0.0733043
0.069273
0.0673782
0.0655966
0.0625526
0.0594685
0.0575893
0.0561644
0.0541182
0.0519667
0.0496702
0.0485969
0.0476545
0.0468174
0.0458628
0.0445699
0.0424831
0.0377958
0.0321909
0.0283882
0.026079
0.0248427
0.0242644
0.0240447
0.0240311
0.0242613
0.0253361
0.027635
0.0304632
0.0361322
0.0430407
0.046912
0.0474555
0.0461832
0.041867
0.037092
0.0283835
0.0190382
0.0126132
0.00956964
0.00828552
0.0078197
0.00780741
0.00784383
0.00780632
0.00749842
0.00676559
0.00647902
0.00649654
0.00682445
0.0083156
0.00997947
0.0109011
0.011346
0.0114943
0.0114889
0.0113194
0.0107836
0.0100012
0.00895403
0.0077908
0.00698708
0.00642487
0.0583794
0.0546741
0.0257685
0.0419686
0.0808347
0.0941396
0.100391
0.108558
0.117019
0.122973
0.122873
0.120091
0.112593
0.108818
0.106169
0.0946649
0.0942535
0.141741
0.134252
0.0786593
0.0510851
0.0388764
0.028327
0.0150185
0.0105779
0.0085507
0.00707336
0.00611248
0.00566836
0.00536885
0.00527659
0.00535154
0.00580474
0.00611885
0.00638744
0.00660789
0.00682175
0.00685221
0.00678069
0.00670597
0.00669268
0.0069311
0.00743145
0.00830949
0.00963208
0.0113215
0.0133862
0.0153365
0.0170625
0.0184867
0.0197824
0.0207631
0.0214173
0.0217111
0.0217691
0.021179
0.020451
0.0196124
0.0181012
0.0162371
0.0135544
0.010488
0.00742829
0.00477639
0.00308104
0.00194773
0.0013884
0.00114297
0.00107743
0.00132506
0.00290302
0.00924121
0.0279748
0.0613079
0.109639
0.15078
0.196443
0.217304
0.220381
0.185425
0.162264
0.161109
0.155252
0.131884
0.109268
0.0568345
0.0241688
0.01605
0.0137628
0.0125529
0.0115634
0.0106445
0.00982208
0.0096101
0.0110108
0.0130845
0.0167033
0.0224345
0.0280336
0.0336126
0.0394791
0.045555
0.0495742
0.0510277
0.0512123
0.0543202
0.0665136
0.09158
0.104379
0.108699
0.110175
0.110397
0.109941
0.107703
0.102732
0.0947953
0.0848589
0.0751794
0.0697232
0.0674053
0.0657957
0.062524
0.0586002
0.0551709
0.0533402
0.0521411
0.0507359
0.0482351
0.0457471
0.0446403
0.044436
0.0444087
0.0441041
0.0429433
0.0404997
0.0366196
0.032639
0.0297115
0.0278756
0.0268002
0.0261154
0.0257548
0.0256215
0.0258041
0.0273039
0.0318699
0.0361239
0.0406277
0.0455354
0.0480953
0.0487215
0.0483003
0.0454991
0.0389779
0.0288736
0.0189519
0.0124246
0.00941876
0.00825172
0.00786597
0.00779679
0.00775165
0.00757954
0.00692325
0.00609031
0.00564521
0.0055703
0.00566673
0.00635156
0.00836624
0.00988006
0.0106168
0.0108225
0.0108004
0.0105606
0.00996461
0.00948134
0.00874208
0.00790451
0.00712165
0.0581971
0.0528839
0.0149928
0.0659903
0.090154
0.0972556
0.102323
0.112218
0.122649
0.128166
0.128506
0.126899
0.120614
0.11271
0.106157
0.0978758
0.0883652
0.12215
0.139067
0.102361
0.0529989
0.0353607
0.0247715
0.012552
0.00776486
0.00602639
0.00513024
0.00471554
0.00458646
0.00456684
0.0047913
0.00535286
0.00597257
0.00673261
0.00788872
0.00942404
0.0112271
0.0125951
0.0132521
0.0139804
0.0146682
0.0158361
0.0172415
0.0192901
0.0214764
0.023523
0.0250149
0.0263153
0.0275919
0.0289211
0.0303712
0.031498
0.0321083
0.0323237
0.0319055
0.0309408
0.029707
0.0279112
0.0257167
0.0231167
0.0203979
0.0174781
0.0139853
0.0101201
0.00645832
0.00402588
0.0024295
0.00149197
0.00107685
0.000970777
0.00116933
0.00279649
0.0100157
0.0355958
0.07175
0.103555
0.128447
0.153808
0.167839
0.162607
0.155784
0.153238
0.132547
0.116449
0.093356
0.0431819
0.02061
0.0152488
0.0135234
0.0123793
0.0114563
0.0106348
0.00987633
0.00911405
0.00874228
0.0107165
0.0137809
0.0183277
0.0237249
0.0274831
0.0316824
0.0363821
0.0410495
0.0445579
0.0471388
0.0518205
0.0645523
0.0877713
0.102655
0.107997
0.110559
0.11174
0.111758
0.110601
0.107166
0.100094
0.0892115
0.0777979
0.0724984
0.0705561
0.0690707
0.0650536
0.0599209
0.0548866
0.0510362
0.0494983
0.0488981
0.0474812
0.0445504
0.0422911
0.0413671
0.0414763
0.0419479
0.0420552
0.0409656
0.0387767
0.0369218
0.0351927
0.0336811
0.03271
0.0321654
0.0320682
0.0319399
0.0315185
0.0314224
0.033001
0.0420078
0.0499604
0.0515607
0.0517108
0.0516303
0.0514537
0.0507776
0.0478318
0.0399661
0.028144
0.0178298
0.0116817
0.00909534
0.00814541
0.00786406
0.00775461
0.00754649
0.00688484
0.00574673
0.0049379
0.00425404
0.00369802
0.00352107
0.00372097
0.00480033
0.00656209
0.00775395
0.0083664
0.00860579
0.00866997
0.00866113
0.00852897
0.00807726
0.00750096
0.0626866
0.0522551
0.0107916
0.0769322
0.0918957
0.0975684
0.102064
0.113135
0.123742
0.128836
0.129321
0.127707
0.121384
0.11317
0.105323
0.0975322
0.0875387
0.103193
0.136627
0.117913
0.0638365
0.0348543
0.0210142
0.0104958
0.00621762
0.00484114
0.00431937
0.00416011
0.00414839
0.00430798
0.0047988
0.00554527
0.00675022
0.00885811
0.0126737
0.0184814
0.0216976
0.0231724
0.0239786
0.024776
0.0254275
0.0262055
0.0272212
0.0285236
0.029805
0.0311279
0.0324874
0.0343189
0.0364945
0.0390074
0.0415549
0.0437849
0.0448677
0.0452982
0.0452868
0.0435468
0.0411253
0.0381132
0.0345634
0.0309464
0.0278423
0.0253581
0.0229518
0.0194759
0.0146885
0.0094136
0.00591354
0.00332103
0.00180414
0.00110299
0.000886536
0.00100102
0.00243271
0.00972549
0.039009
0.0806603
0.100674
0.113914
0.121657
0.128598
0.132705
0.12482
0.110869
0.0963033
0.0649323
0.0324727
0.0189986
0.0151094
0.0132613
0.0117949
0.0106712
0.00999302
0.00956307
0.0090436
0.00835012
0.0084883
0.0109703
0.0151607
0.0199018
0.0239115
0.0264044
0.029594
0.0336764
0.0379239
0.0421039
0.0476351
0.0596326
0.0782907
0.0957943
0.103483
0.10724
0.110714
0.111595
0.110759
0.107754
0.101258
0.0911914
0.0816802
0.0780568
0.076776
0.0748029
0.0702122
0.0627195
0.0552647
0.0498547
0.046682
0.0453958
0.0447847
0.0428656
0.0407852
0.0398242
0.0396926
0.0401075
0.0405961
0.0405171
0.0393413
0.0384309
0.0381218
0.0382377
0.0390548
0.0404643
0.042155
0.0446248
0.0452091
0.0450329
0.0443008
0.0452866
0.055942
0.0641078
0.064136
0.0612163
0.0576836
0.0547646
0.0522527
0.0477105
0.0379015
0.0256036
0.015972
0.0107883
0.00873504
0.00802688
0.00779709
0.00755913
0.00694636
0.0058202
0.00461547
0.00356192
0.00292457
0.00272798
0.00275681
0.00311444
0.00432205
0.00532945
0.0056853
0.00573294
0.0058347
0.0062188
0.00711595
0.00727363
0.00720195
0.0696531
0.0521713
0.0110997
0.080939
0.089585
0.0957146
0.100259
0.109459
0.119045
0.125596
0.12776
0.126419
0.120302
0.112629
0.102623
0.0952838
0.0874808
0.0906917
0.121235
0.120992
0.0824607
0.0372374
0.0196006
0.00915251
0.00537068
0.00431015
0.00399553
0.00393521
0.00398496
0.00427015
0.00489241
0.00610423
0.008623
0.014033
0.0213921
0.0269476
0.0293175
0.0304356
0.0310067
0.0314021
0.0317719
0.0321519
0.0328179
0.034143
0.0358685
0.0383073
0.0414864
0.0448122
0.0481058
0.0504992
0.0518954
0.0525587
0.0528471
0.0529108
0.052547
0.0516777
0.0499452
0.0466326
0.041641
0.036723
0.0319245
0.0287939
0.0266431
0.0248397
0.0229678
0.020055
0.0142099
0.00860422
0.00458384
0.00231817
0.00121862
0.000820258
0.000805676
0.00179028
0.00800913
0.036492
0.0812102
0.100501
0.107711
0.110414
0.111175
0.106824
0.0987803
0.0822056
0.0510276
0.0282241
0.01875
0.0149399
0.0122236
0.00970614
0.00809001
0.00760834
0.00767867
0.00815761
0.00803381
0.00777132
0.00857228
0.0119109
0.0169292
0.0208078
0.0233
0.0252371
0.02801
0.03183
0.0363379
0.0418923
0.0518441
0.0668918
0.0839689
0.0920867
0.0954774
0.101394
0.107543
0.107682
0.104342
0.0975854
0.0889277
0.0829384
0.0806117
0.0791455
0.0771279
0.0735595
0.0655594
0.0550498
0.0475664
0.0437151
0.04269
0.0422128
0.0412157
0.0383634
0.0376603
0.0378819
0.0390448
0.0398929
0.0399493
0.0393456
0.038681
0.0387084
0.0394416
0.042524
0.0476587
0.0497383
0.0514848
0.0526851
0.0540606
0.0568791
0.0582194
0.059453
0.0691092
0.0797307
0.0797664
0.0751706
0.0641043
0.057403
0.0536812
0.0465448
0.0344791
0.0222684
0.0139588
0.00991291
0.0083744
0.00785085
0.00760162
0.00719904
0.00619921
0.00481278
0.00360753
0.00280354
0.0024792
0.00244026
0.00254212
0.00315477
0.00410522
0.00450119
0.00453093
0.00443454
0.00443472
0.00468181
0.0051624
0.00569615
0.0791588
0.0545281
0.0241705
0.0793158
0.0873767
0.0925809
0.0955292
0.10121
0.110364
0.116037
0.119967
0.120529
0.117012
0.111036
0.0991546
0.0877563
0.0868249
0.0853094
0.0978499
0.11568
0.0972674
0.0479531
0.0204145
0.00922196
0.00511553
0.0040783
0.00387155
0.00384962
0.00393846
0.00428513
0.00516439
0.00755311
0.0125179
0.0192748
0.0275049
0.0318065
0.033367
0.0340028
0.0343539
0.0348967
0.0354822
0.0364973
0.038337
0.0409228
0.0441183
0.0476275
0.0504836
0.0527029
0.0538171
0.0543588
0.0545917
0.0546927
0.0547093
0.0546844
0.0545451
0.0542824
0.0536711
0.0524134
0.0497874
0.0443177
0.0366859
0.0308746
0.0281628
0.0261453
0.0250262
0.0243255
0.0229847
0.0189208
0.011628
0.00596135
0.00294299
0.00139705
0.000759459
0.000637671
0.00114638
0.00532078
0.0262252
0.0729278
0.0968785
0.10404
0.10376
0.100438
0.0925204
0.0708951
0.0436056
0.0267655
0.0184619
0.0136598
0.0098612
0.0070897
0.00546958
0.00505366
0.00511087
0.00560187
0.0069836
0.00718869
0.0074823
0.00895577
0.0133489
0.0182636
0.0212428
0.022716
0.0244313
0.0270367
0.0309207
0.0357239
0.0431329
0.0555234
0.0704181
0.0820693
0.0845922
0.0861235
0.0928864
0.099208
0.0967449
0.0922312
0.0861245
0.0829559
0.0817016
0.0798585
0.0777501
0.0745681
0.0672637
0.0549749
0.0460534
0.0421403
0.0411831
0.0410376
0.0403692
0.0374646
0.0356147
0.0356697
0.0372975
0.0390888
0.0393343
0.0389536
0.038515
0.0386271
0.0398505
0.0451989
0.0510898
0.0531243
0.0536726
0.0538655
0.054775
0.0579204
0.0650418
0.0685096
0.0714816
0.0824398
0.0932806
0.0931827
0.0866098
0.068991
0.0605457
0.05422
0.0433041
0.0298082
0.0186528
0.012035
0.00908465
0.00799921
0.0076083
0.00734035
0.00680826
0.00547955
0.00397167
0.0029086
0.00232469
0.00212022
0.00211106
0.00224103
0.00272983
0.00300889
0.00302635
0.00294615
0.00292199
0.00294399
0.00302455
0.00330831
0.0828601
0.0620621
0.0418986
0.0782515
0.0853278
0.0910539
0.093315
0.09576
0.101562
0.106932
0.109713
0.110788
0.109229
0.106811
0.0983388
0.0854152
0.083277
0.0837202
0.0866049
0.10372
0.104189
0.0710785
0.0242364
0.00994148
0.00520812
0.00405353
0.0038402
0.00382731
0.00393649
0.00438573
0.00572082
0.00867821
0.0140525
0.0229099
0.0312519
0.0347442
0.0364307
0.037475
0.0380599
0.0385177
0.0398619
0.0417845
0.044444
0.0474631
0.0505251
0.0528483
0.0541938
0.0547239
0.0548707
0.0549152
0.0549335
0.0548847
0.0548628
0.0548641
0.0548613
0.0547977
0.0546583
0.0542535
0.0532517
0.0508929
0.045613
0.0347221
0.0288231
0.0263972
0.0253756
0.0249475
0.0249288
0.0242754
0.0215162
0.0137799
0.00704364
0.00347109
0.00155568
0.000721331
0.000510592
0.0006667
0.00282558
0.0163381
0.0584165
0.0898266
0.0975322
0.0955794
0.0835307
0.0598087
0.0383639
0.0245082
0.0165223
0.0114248
0.0083485
0.00641852
0.00496315
0.00391948
0.00370091
0.00383354
0.00456483
0.00608718
0.0065096
0.00729636
0.009631
0.0152624
0.0192081
0.0211974
0.0224078
0.0240715
0.0266581
0.0306559
0.0359339
0.0441688
0.0572363
0.0694577
0.0765074
0.0775541
0.0794801
0.0856192
0.0910868
0.0898182
0.0867841
0.083959
0.0822406
0.0800369
0.0777937
0.0746552
0.0675346
0.0546527
0.045358
0.0413127
0.0401789
0.0398157
0.0387566
0.0356397
0.0340334
0.034156
0.0360637
0.0381625
0.0383959
0.0378622
0.0375264
0.0378161
0.0400758
0.0477007
0.053116
0.0548945
0.0548856
0.0538036
0.0524011
0.0533106
0.0602174
0.0718024
0.0763174
0.0817262
0.0973894
0.10558
0.104365
0.093349
0.0724855
0.0621544
0.0517491
0.0380186
0.0246797
0.0153313
0.0103977
0.00836088
0.00765374
0.00734844
0.00693141
0.00588785
0.00434298
0.00306705
0.00222239
0.00177402
0.00161928
0.00161547
0.00171108
0.0018141
0.00180692
0.00171859
0.00169951
0.00172856
0.00172655
0.0017542
0.0830199
0.0688373
0.05686
0.0750991
0.0807033
0.0879985
0.090471
0.0917751
0.0940354
0.098717
0.10249
0.103935
0.103847
0.102003
0.0976269
0.086306
0.0784221
0.0812814
0.0808826
0.0905775
0.102914
0.0863592
0.0377888
0.0120368
0.00557387
0.00408969
0.0038419
0.00382801
0.00394288
0.00443143
0.0058511
0.00915472
0.0155376
0.0244397
0.0333317
0.0376732
0.0387698
0.0390811
0.0398586
0.0415435
0.0438999
0.0469011
0.0496706
0.0522957
0.0539835
0.05476
0.0549638
0.0548285
0.0547141
0.054565
0.0541937
0.05403
0.0540331
0.0543436
0.0546417
0.0547838
0.0547883
0.0546354
0.0541645
0.0528211
0.0495137
0.0416011
0.0312335
0.0261373
0.025125
0.0248281
0.025081
0.0251292
0.0244786
0.0216985
0.0142109
0.00752033
0.00363814
0.00160208
0.000717905
0.000465311
0.000498103
0.00148557
0.00849256
0.0378332
0.0702294
0.0777621
0.0711022
0.0504323
0.0330524
0.0212935
0.0143783
0.0105753
0.00827094
0.00661808
0.00521588
0.00412072
0.00327643
0.00304877
0.00321486
0.00399014
0.00542271
0.005997
0.00725568
0.0104767
0.0168405
0.0199797
0.0214082
0.0226181
0.0240398
0.0268332
0.0309838
0.0362189
0.0437663
0.0564631
0.0661315
0.0701718
0.0713796
0.0739444
0.0804671
0.0847244
0.084778
0.084173
0.0824353
0.0791822
0.0756747
0.071883
0.0634119
0.0504546
0.0426947
0.0394305
0.0386298
0.0382489
0.0369586
0.0326739
0.0310531
0.0314965
0.0347153
0.0371693
0.0372373