/*--------------------------------*- C++ -*----------------------------------*\
  =========                 |
  \\      /  F ield         | OpenFOAM: The Open Source CFD Toolbox
   \\    /   O peration     | Website:  https://openfoam.org
    \\  /    A nd           | Version:  9
     \\/     M anipulation  |
\*---------------------------------------------------------------------------*/
FoamFile
{
    format      ascii;
    class       volScalarField;
    location    "0.086";
    object      k_0;
}
// * * * * * * * * * * * * * * * * * * * * * * * * * * * * * * * * * * * * * //

dimensions      [0 2 -2 0 0 0 0];

internalField   nonuniform List<scalar> 
12225
(
2.15571e-05
8.21182e-05
0.0002206
0.000298589
0.000328322
0.000330747
0.000314125
0.000234974
0.000151818
0.000106401
8.39938e-05
7.4539e-05
7.03842e-05
6.47209e-05
5.37789e-05
4.22285e-05
2.93688e-05
2.9647e-05
2.01195e-05
2.68827e-05
4.2005e-05
5.48683e-05
8.15386e-05
0.000102008
0.000105768
0.000102257
8.61151e-05
6.57779e-05
5.4341e-05
4.90518e-05
4.68465e-05
4.59519e-05
4.48469e-05
4.30778e-05
4.20048e-05
3.90275e-05
2.00592e-05
1.57113e-05
1.5981e-05
1.72184e-05
1.92476e-05
2.28178e-05
2.50138e-05
2.53141e-05
2.48074e-05
2.32074e-05
2.22462e-05
2.19211e-05
2.1875e-05
2.19272e-05
2.21867e-05
2.3003e-05
2.4237e-05
2.48607e-05
2.0037e-05
2.00654e-05
2.07394e-05
2.14732e-05
2.15631e-05
2.13359e-05
2.0253e-05
1.60152e-05
1.21412e-05
1.24041e-05
1.39093e-05
1.58927e-05
1.74977e-05
1.88345e-05
2.00017e-05
2.09233e-05
2.15571e-05
2.19377e-05
2.05922e-05
2.11701e-05
2.53824e-05
4.95649e-05
5.84189e-05
5.06784e-05
3.36436e-05
2.53585e-05
2.15791e-05
2.02395e-05
1.99429e-05
1.99468e-05
2.00679e-05
2.05633e-05
2.1777e-05
2.26923e-05
2.32235e-05
2.32992e-05
2.09246e-05
2.04213e-05
2.15771e-05
2.70109e-05
3.1475e-05
3.1544e-05
2.83129e-05
2.36561e-05
2.17495e-05
2.11828e-05
2.11113e-05
2.12419e-05
2.21243e-05
2.59e-05
3.50478e-05
4.12778e-05
4.40373e-05
4.42757e-05
2.0485e-05
2.0959e-05
2.39921e-05
2.78709e-05
2.65416e-05
2.40785e-05
2.23245e-05
2.13141e-05
2.09826e-05
2.09102e-05
2.09407e-05
2.12692e-05
2.26334e-05
2.64973e-05
3.00355e-05
3.22232e-05
3.32127e-05
3.37679e-05
2.43861e-05
2.2671e-05
2.21714e-05
2.19247e-05
2.14377e-05
2.14003e-05
2.18467e-05
2.34381e-05
2.48742e-05
2.53629e-05
2.5808e-05
2.72472e-05
3.28023e-05
4.57013e-05
5.20824e-05
5.26832e-05
5.04083e-05
4.15762e-05
3.14472e-05
2.8664e-05
2.26973e-05
2.09623e-05
2.0825e-05
2.16075e-05
2.71915e-05
3.55282e-05
3.69089e-05
3.42828e-05
2.81741e-05
2.57142e-05
2.55258e-05
2.64201e-05
3.01908e-05
3.27456e-05
3.2967e-05
3.16119e-05
2.35266e-05
2.53289e-05
2.38533e-05
2.10773e-05
2.0519e-05
2.07483e-05
2.22092e-05
2.43657e-05
2.7846e-05
3.63966e-05
4.39359e-05
4.68418e-05
4.72263e-05
4.67766e-05
4.38975e-05
3.65351e-05
3.01177e-05
2.56996e-05
2.31162e-05
2.43013e-05
2.31348e-05
2.13496e-05
2.09007e-05
2.08738e-05
2.09579e-05
2.11727e-05
2.16096e-05
2.28185e-05
2.69829e-05
3.76784e-05
4.46063e-05
4.69742e-05
4.68491e-05
4.31478e-05
3.40458e-05
2.78952e-05
2.00761e-05
2.09256e-05
2.43602e-05
2.79308e-05
2.77907e-05
2.46973e-05
2.20544e-05
2.12474e-05
2.11971e-05
2.16188e-05
2.41118e-05
3.32851e-05
3.96565e-05
4.04476e-05
3.80874e-05
3.12459e-05
2.69338e-05
2.48841e-05
2.02775e-05
2.28714e-05
2.64999e-05
2.80956e-05
2.68126e-05
2.32762e-05
2.15203e-05
2.08763e-05
2.07461e-05
2.0805e-05
2.12845e-05
2.34999e-05
3.00402e-05
3.38574e-05
3.41501e-05
3.24276e-05
2.77896e-05
2.49497e-05
2.05937e-05
2.14108e-05
2.43488e-05
2.64512e-05
2.65458e-05
2.58995e-05
2.56053e-05
2.58105e-05
2.62378e-05
2.62284e-05
2.58299e-05
2.57032e-05
2.59232e-05
2.7866e-05
3.21073e-05
3.34192e-05
3.33458e-05
3.2492e-05
2.05256e-05
2.05392e-05
2.07481e-05
2.10782e-05
2.14792e-05
2.25021e-05
2.68558e-05
4.91947e-05
7.26717e-05
7.44037e-05
6.3549e-05
4.32425e-05
3.25109e-05
2.84631e-05
2.78676e-05
2.8993e-05
3.13259e-05
3.15623e-05
2.07833e-05
2.17672e-05
2.16532e-05
2.14925e-05
2.14735e-05
2.17157e-05
2.33211e-05
3.07104e-05
3.54023e-05
3.49568e-05
3.02285e-05
2.50947e-05
2.29568e-05
2.24338e-05
2.25844e-05
2.45476e-05
2.86018e-05
2.95278e-05
2.13169e-05
2.13946e-05
2.08204e-05
2.07734e-05
2.05919e-05
2.0586e-05
2.08409e-05
2.21332e-05
2.85363e-05
4.46909e-05
5.00801e-05
4.81364e-05
3.73444e-05
3.01475e-05
2.86321e-05
2.93706e-05
3.11885e-05
3.12407e-05
2.11488e-05
2.13671e-05
2.12281e-05
2.14152e-05
2.14836e-05
2.09353e-05
2.07579e-05
2.09391e-05
2.21826e-05
2.45708e-05
2.54874e-05
2.5412e-05
2.44393e-05
2.35544e-05
2.33883e-05
2.35442e-05
2.45002e-05
2.71754e-05
2.05413e-05
2.13077e-05
2.12869e-05
2.08713e-05
2.07201e-05
2.06671e-05
2.07158e-05
2.09997e-05
2.19039e-05
2.28676e-05
2.35362e-05
2.38512e-05
2.38515e-05
2.33376e-05
2.22643e-05
2.17347e-05
2.16131e-05
2.16785e-05
2.06512e-05
2.11712e-05
2.11964e-05
2.10823e-05
2.07175e-05
2.05396e-05
2.05169e-05
2.05664e-05
2.08562e-05
2.13769e-05
2.17147e-05
2.18686e-05
2.19028e-05
2.18868e-05
2.17818e-05
2.16721e-05
2.16377e-05
2.16406e-05
2.47752e-05
2.21114e-05
2.14502e-05
2.15075e-05
2.15079e-05
2.13121e-05
2.11752e-05
2.11674e-05
2.12222e-05
2.12938e-05
2.13304e-05
2.13731e-05
2.14565e-05
2.16998e-05
2.23314e-05
2.32101e-05
2.38781e-05
2.42674e-05
2.12946e-05
2.07561e-05
2.06805e-05
2.12795e-05
2.18563e-05
2.19954e-05
2.20224e-05
2.20868e-05
2.25825e-05
2.38196e-05
2.40021e-05
2.35337e-05
2.28061e-05
2.25902e-05
2.26078e-05
2.30027e-05
2.38535e-05
2.40932e-05
2.08623e-05
2.09273e-05
2.08706e-05
2.08943e-05
2.08904e-05
2.07846e-05
2.06405e-05
2.05937e-05
2.05921e-05
2.06187e-05
2.07511e-05
2.13552e-05
2.2818e-05
2.33812e-05
2.33202e-05
2.3286e-05
2.37297e-05
2.44714e-05
2.03488e-05
2.04619e-05
2.04179e-05
2.04617e-05
2.04674e-05
2.04495e-05
2.04446e-05
2.04617e-05
2.05663e-05
2.08761e-05
2.10923e-05
2.12016e-05
2.12665e-05
2.13098e-05
2.13614e-05
2.14718e-05
2.18559e-05
2.3291e-05
2.16205e-05
2.1802e-05
2.20694e-05
2.255e-05
2.25775e-05
2.22418e-05
2.1605e-05
2.13362e-05
2.1238e-05
2.10828e-05
2.08982e-05
2.07846e-05
2.07553e-05
2.07645e-05
2.0851e-05
2.12324e-05
2.2597e-05
2.79945e-05
2.18577e-05
2.22665e-05
2.19931e-05
2.19238e-05
2.18763e-05
2.169e-05
2.13763e-05
2.12419e-05
2.12334e-05
2.11951e-05
2.09886e-05
2.08841e-05
2.08668e-05
2.08716e-05
2.08992e-05
2.09816e-05
2.11972e-05
2.17757e-05
2.02215e-05
2.0328e-05
2.0242e-05
2.00179e-05
1.99558e-05
1.98748e-05
1.96233e-05
1.92548e-05
1.90671e-05
1.88852e-05
1.8438e-05
1.77845e-05
1.76371e-05
1.79135e-05
1.89164e-05
1.96141e-05
1.97678e-05
1.97223e-05
2.00129e-05
1.86248e-05
1.79773e-05
1.59178e-05
1.45692e-05
1.42585e-05
1.41918e-05
1.40043e-05
1.31153e-05
1.0919e-05
9.50779e-06
8.93227e-06
8.83575e-06
8.93101e-06
9.61243e-06
1.12868e-05
1.26344e-05
1.37343e-05
2.05601e-05
2.12683e-05
2.268e-05
2.75338e-05
3.23579e-05
3.37461e-05
3.34368e-05
3.11704e-05
2.84026e-05
2.6472e-05
2.47704e-05
2.32665e-05
2.21692e-05
2.15896e-05
2.14223e-05
2.14341e-05
2.16284e-05
2.23766e-05
6.14827e-05
5.8341e-05
6.79306e-05
0.000118956
0.000147182
0.000149102
0.000135891
9.88913e-05
7.40119e-05
5.70501e-05
4.37109e-05
3.38227e-05
2.80172e-05
2.58221e-05
2.56321e-05
2.67409e-05
3.27194e-05
5.64284e-05
0.0702003
0.0830324
0.0845955
0.0863035
0.0905553
0.0918553
0.0914513
0.0896303
0.0890609
0.0879948
0.0854735
0.079473
0.0708751
0.0701324
0.0716983
0.0742722
0.0824516
0.0823188
0.0880279
0.129959
0.178815
0.175438
0.15992
0.151052
0.142061
0.123886
0.10719
0.10029
0.0962956
0.0920603
0.0898639
0.0877918
0.085667
0.0842893
0.0822978
0.0818415
0.0820324
0.0829927
0.0848382
0.087213
0.0905761
0.0950555
0.0974137
0.0978799
0.0977428
0.0963382
0.0935438
0.0901763
0.0869285
0.084051
0.081755
0.0804234
0.079478
0.0787981
0.0785432
0.0782777
0.0781368
0.0780621
0.0779449
0.0778049
0.0775852
0.0772808
0.0769287
0.0766118
0.0764231
0.0763661
0.0763381
0.0763771
0.0767696
0.077861
0.0796294
0.0810793
0.0878066
0.0919497
0.100569
0.104827
0.103811
0.0996429
0.102988
0.110699
0.249273
0.329926
0.271302
0.241108
0.240614
0.283099
0.398057
0.453982
0.441775
0.331472
0.173322
0.0872647
0.0521072
0.0403996
0.0376491
0.0376346
0.0382769
0.0400755
0.0440812
0.0477708
0.0495648
0.061434
0.123173
0.172743
0.177505
0.217898
0.185307
0.101549
0.0581797
0.0438218
0.0401948
0.0388915
0.0369466
0.0355813
0.0350643
0.0350017
0.0358016
0.0362466
0.0364676
0.0365606
0.0365966
0.0365982
0.0366428
0.0365678
0.0360664
0.0353036
0.0347095
0.0343109
0.0336256
0.032816
0.0321534
0.0314819
0.0306113
0.0296391
0.0285672
0.0274461
0.0260157
0.0244177
0.0226537
0.0207655
0.0188907
0.0171629
0.0157295
0.0145634
0.0135657
0.0127612
0.0121672
0.0118036
0.0116732
0.0116834
0.0118344
0.0124214
0.0130125
0.0132795
0.0133047
0.0129707
0.0105214
0.00669493
0.00556271
0.00564571
0.00636217
0.0069657
0.00724921
0.00741851
0.00757212
0.00767255
0.00762183
0.0075259
0.0074978
0.00744316
0.00741684
0.00732329
0.00703463
0.00680816
0.00663057
0.00643213
0.00633153
0.00631346
0.0064086
0.0058928
0.0599573
0.0535652
0.0820168
0.106965
0.114694
0.115353
0.115413
0.108586
0.0934388
0.0900648
0.0892026
0.0778022
0.0585737
0.0512957
0.0491327
0.0853852
0.150208
0.166901
0.159267
0.154753
0.15615
0.14103
0.133362
0.122758
0.106558
0.0966846
0.09193
0.0870494
0.0830467
0.0806062
0.0782584
0.075959
0.0741743
0.0719078
0.0699065
0.0684912
0.0678533
0.067785
0.0680173
0.0689048
0.0707976
0.0733585
0.0755274
0.0762369
0.0762797
0.0757967
0.07448
0.0724425
0.0698261
0.0666396
0.0629113
0.0588205
0.0546865
0.0512555
0.0487553
0.047077
0.0457388
0.0446671
0.043858
0.0432811
0.042645
0.0421099
0.0420096
0.0421875
0.0427915
0.0437233
0.044929
0.0467684
0.0499562
0.056052
0.0681024
0.0796345
0.106734
0.131979
0.165854
0.173927
0.167939
0.152577
0.124585
0.116497
0.156423
0.278619
0.238757
0.155268
0.137698
0.136681
0.152653
0.176375
0.174808
0.130744
0.0836679
0.0530467
0.0410847
0.0389301
0.0394045
0.0416893
0.0463436
0.054581
0.0708748
0.107675
0.197976
0.28611
0.323428
0.313624
0.26075
0.19803
0.109569
0.0648245
0.0529892
0.0531415
0.0603367
0.062125
0.062912
0.0631357
0.0629587
0.0616535
0.0605496
0.0601068
0.0593479
0.0578337
0.0561219
0.0549487
0.0540911
0.0529641
0.051511
0.0499965
0.0486149
0.0473258
0.0462345
0.045448
0.0443589
0.043876
0.043705
0.0438586
0.0440122
0.0441193
0.0440998
0.0438626
0.0434049
0.0426916
0.0414084
0.0392807
0.0361122
0.0320262
0.0273537
0.0228165
0.019231
0.0162777
0.0134262
0.0110872
0.00985821
0.00957288
0.00960275
0.00983732
0.0107996
0.0113564
0.0112169
0.0107546
0.0107076
0.0110095
0.0121082
0.0127545
0.012795
0.0122683
0.0103374
0.00891243
0.00815657
0.00764308
0.00726649
0.00696745
0.00667854
0.00641108
0.00613286
0.00581653
0.00553277
0.00532672
0.00524144
0.00522975
0.00527107
0.00547406
0.0670746
0.062212
0.12106
0.125428
0.120519
0.113704
0.113789
0.117439
0.125203
0.123688
0.123155
0.121508
0.104785
0.0656978
0.0669214
0.12021
0.154296
0.152838
0.126861
0.107691
0.0998101
0.0964883
0.0885803
0.0732899
0.0639724
0.0598652
0.0560641
0.0522497
0.0502051
0.0483725
0.0454117
0.0432242
0.0403896
0.036941
0.0346706
0.031495
0.0291732
0.0277338
0.0258148
0.02506
0.02477
0.024713
0.0248273
0.0250852
0.0250306
0.0244669
0.0232143
0.02133
0.0189799
0.0164867
0.0143187
0.0126826
0.0115239
0.0107588
0.0101966
0.00989983
0.00959401
0.00935787
0.0091855
0.00910889
0.00916386
0.00949297
0.0101744
0.0111907
0.0126059
0.0145385
0.0171567
0.0209053
0.0272656
0.0385437
0.0575011
0.0854215
0.128848
0.182428
0.219247
0.24333
0.243152
0.232319
0.191634
0.135135
0.137666
0.187244
0.206802
0.182083
0.139737
0.121653
0.10939
0.091922
0.0693797
0.0478401
0.0340213
0.0276387
0.0259943
0.025831
0.0268488
0.0300759
0.0379161
0.0522042
0.0764121
0.113485
0.157436
0.191405
0.205142
0.192969
0.150241
0.0915575
0.0626652
0.0562761
0.0595367
0.0692699
0.0716046
0.0719807
0.0710234
0.067577
0.0634396
0.061944
0.0613988
0.0611771
0.0610356
0.0602951
0.0590959
0.0581389
0.0568687
0.0549897
0.0528644
0.0509116
0.0492667
0.0472446
0.0449284
0.0433922
0.0410389
0.0389374
0.0367733
0.0353861
0.03516
0.0358877
0.0375566
0.0394577
0.0414324
0.0433133
0.044789
0.0456289
0.0459787
0.0458929
0.0449456
0.0416889
0.0366506
0.031243
0.0241146
0.0150029
0.00760257
0.00420627
0.00353433
0.00356635
0.00390223
0.00491977
0.00662359
0.00806863
0.00886259
0.00925789
0.0100763
0.0112052
0.0117386
0.0117497
0.011602
0.0111599
0.00989519
0.00872034
0.00811165
0.00779706
0.00752212
0.00714569
0.00674696
0.00645339
0.00617637
0.00571238
0.00509308
0.00453626
0.00427412
0.00428589
0.0723345
0.132423
0.134491
0.116563
0.0813585
0.072587
0.0742705
0.0789813
0.0838715
0.0876674
0.094672
0.109125
0.109595
0.103972
0.0808197
0.102522
0.150296
0.142749
0.0982101
0.081316
0.0764276
0.0720667
0.0599216
0.0447211
0.0385571
0.0353665
0.0314243
0.0285619
0.0271688
0.0249304
0.0224604
0.0208959
0.0182008
0.0158192
0.014441
0.0121812
0.0110569
0.0101596
0.00921212
0.00882366
0.00842971
0.00820019
0.00803951
0.00782822
0.007662
0.0073746
0.00695769
0.00646316
0.00592911
0.0056125
0.00548157
0.00544751
0.00554011
0.00569227
0.00575071
0.00577045
0.00573814
0.00551441
0.00513025
0.00468418
0.00417695
0.00378365
0.00363627
0.00363314
0.00391562
0.00462761
0.00596539
0.00866348
0.0144293
0.0253686
0.0461749
0.0813958
0.131955
0.19203
0.22928
0.256049
0.26497
0.26184
0.244345
0.178136
0.144049
0.157804
0.175632
0.167257
0.13796
0.0935428
0.0609644
0.0438542
0.0314726
0.0241586
0.0208087
0.0197814
0.0201512
0.0207534
0.0217674
0.0243784
0.0295456
0.0387303
0.0519884
0.0697714
0.0879127
0.0987679
0.102868
0.0931013
0.071566
0.0589282
0.0554012
0.0610816
0.0790613
0.086702
0.0887082
0.0891209
0.0880191
0.0829566
0.0754036
0.0715843
0.070101
0.0690859
0.0675963
0.0657494
0.0640584
0.0622692
0.0603167
0.0584493
0.056141
0.0536682
0.0517868
0.0500392
0.0477814
0.045596
0.0430135
0.0399154
0.0361133
0.0326912
0.0300642
0.0281588
0.0269764
0.0266442
0.0268974
0.0280404
0.030297
0.0335115
0.0372787
0.0414855
0.045188
0.0466365
0.0464343
0.0438005
0.0396257
0.0353958
0.0288697
0.0212758
0.0145716
0.00969894
0.00717976
0.00652958
0.00661954
0.00707053
0.00764517
0.00783067
0.00784362
0.00787412
0.00800627
0.00848394
0.00975818
0.0104563
0.0106655
0.0106678
0.0105096
0.0099619
0.0096195
0.00946045
0.00919729
0.00859069
0.00796216
0.00752281
0.00717488
0.00661649
0.00576495
0.00498666
0.097203
0.112124
0.0877872
0.0554916
0.0556729
0.0601424
0.0706056
0.0784312
0.0857158
0.0890239
0.0924021
0.0997125
0.10644
0.106501
0.0999221
0.0879181
0.138716
0.145502
0.100148
0.0704494
0.0622398
0.0570513
0.0434048
0.0292257
0.0240052
0.0212605
0.0180254
0.0158419
0.0147961
0.0131122
0.0113395
0.0104734
0.00909536
0.00802988
0.00748281
0.00671757
0.00630537
0.00595761
0.00545401
0.00516003
0.00476169
0.00458666
0.00452078
0.00449159
0.00448259
0.00449554
0.00457622
0.00469492
0.00482648
0.00501995
0.00533485
0.00577509
0.00630689
0.00671567
0.00703146
0.007158
0.00717772
0.00687369
0.00615484
0.00528602
0.004271
0.00332181
0.00267044
0.00225956
0.00194247
0.00180918
0.00189156
0.00239232
0.003922
0.0080328
0.0187657
0.0463786
0.0980705
0.168843
0.216718
0.251207
0.2669
0.268116
0.258432
0.212079
0.159742
0.159674
0.164794
0.157696
0.133518
0.0819819
0.0411539
0.0257679
0.0190855
0.0161524
0.0150557
0.0147386
0.0153615
0.0160272
0.0170808
0.0201301
0.0255413
0.0326239
0.041071
0.0515504
0.0621406
0.0677722
0.0696208
0.0645862
0.0569311
0.0547466
0.0579738
0.0770136
0.0941198
0.0986227
0.0998886
0.100032
0.0985696
0.0938031
0.0869861
0.0807015
0.0758135
0.0719192
0.0690048
0.0672634
0.0654689
0.0628845
0.0607478
0.0590768
0.0569443
0.0545842
0.0526031
0.0509391
0.0496525
0.0482286
0.0468687
0.0453151
0.0426911
0.0374356
0.0318846
0.0284372
0.0262998
0.0250493
0.0244374
0.0242379
0.0242651
0.0245885
0.0256446
0.0275301
0.0313742
0.0386449
0.0449714
0.0470617
0.0466309
0.0424259
0.0385521
0.0340027
0.025664
0.0172841
0.0116996
0.00903013
0.00785184
0.00762997
0.00772564
0.00785827
0.00785942
0.00767384
0.00714876
0.007027
0.00713479
0.00792239
0.00947742
0.0104211
0.0110155
0.0113124
0.0114238
0.0114255
0.011289
0.0106636
0.00963548
0.00863301
0.00774936
0.00692865
0.00650882
0.00603049
0.0682708
0.0633225
0.0394252
0.041158
0.0535892
0.080653
0.0937826
0.100451
0.110962
0.112523
0.110545
0.106113
0.107294
0.107136
0.104613
0.089474
0.110294
0.146851
0.117
0.0698509
0.0535215
0.0460159
0.0337944
0.0202281
0.015548
0.0131925
0.0108369
0.00931446
0.00856329
0.00748518
0.00681148
0.00647044
0.00621184
0.00613705
0.00616801
0.00607906
0.00595594
0.00572979
0.00540578
0.00512687
0.00485805
0.00479354
0.00480972
0.00497912
0.00530335
0.00575632
0.00639573
0.0072171
0.00811608
0.0091364
0.0102963
0.0114291
0.0122679
0.0128711
0.0131405
0.013225
0.013093
0.0125585
0.0115216
0.00989349
0.00778071
0.00543551
0.00370708
0.00251933
0.00191665
0.00151136
0.00133913
0.00127097
0.00157137
0.00296187
0.00756103
0.0203444
0.0488052
0.10187
0.165364
0.214979
0.24747
0.259324
0.250217
0.204623
0.164487
0.161981
0.161995
0.147794
0.121989
0.0692483
0.0304307
0.0187577
0.0149447
0.0130986
0.0118682
0.0112836
0.011313
0.0123264
0.0136267
0.0158932
0.0205813
0.0269837
0.0337884
0.0412086
0.0493354
0.0555734
0.0575699
0.0567914
0.0546516
0.0547698
0.0654717
0.09089
0.102882
0.105937
0.106664
0.106713
0.105684
0.102162
0.0961206
0.0885885
0.0806713
0.0736894
0.0694646
0.0674978
0.0657345
0.0627276
0.0596463
0.0577717
0.056308
0.0542446
0.0520724
0.0497596
0.0486982
0.0477323
0.0468668
0.0458861
0.0445616
0.0424004
0.0375328
0.0319646
0.0282189
0.0259633
0.0247682
0.024219
0.0240179
0.0240149
0.0242756
0.0254408
0.0277859
0.0307104
0.0365184
0.0433609
0.0470488
0.0474885
0.0460495
0.04164
0.0368354
0.0280542
0.0187639
0.0124599
0.00950774
0.00826115
0.00781726
0.00780989
0.00784557
0.00780378
0.00747897
0.00674669
0.00647209
0.00649373
0.00683774
0.0083633
0.0100106
0.0109188
0.0113546
0.0114969
0.011489
0.0113112
0.0107657
0.00997991
0.00892909
0.0077698
0.00697325
0.00641916
0.0583844
0.0547088
0.0257987
0.0421339
0.0810102
0.0942377
0.100494
0.108684
0.117152
0.123059
0.122952
0.120155
0.112663
0.108878
0.106183
0.0947212
0.0939491
0.141553
0.134781
0.0795009
0.0513171
0.0389655
0.0285246
0.0150966
0.0105755
0.00852644
0.00705217
0.00608444
0.00563941
0.00534183
0.00524969
0.00532362
0.00577804
0.00610042
0.00638319
0.00661862
0.00686466
0.00692119
0.00686933
0.00680198
0.00678675
0.00701381
0.00750322
0.00836169
0.00966736
0.0113409
0.0133819
0.0153145
0.0170283
0.0184299
0.019701
0.0206635
0.021304
0.0215937
0.0216514
0.0210642
0.0203214
0.019501
0.0180227
0.0161968
0.0135441
0.0104734
0.0074084
0.00474858
0.00306079
0.00193407
0.00138046
0.00113817
0.00107233
0.00132668
0.00292981
0.00935871
0.0282464
0.0617343
0.110412
0.15166
0.197345
0.217975
0.220648
0.185419
0.162179
0.160991
0.154826
0.131394
0.108855
0.0563863
0.0240303
0.0160225
0.0137557
0.0125502
0.0115624
0.0106445
0.00982219
0.00960639
0.0109993
0.0130542
0.0166292
0.0222996
0.027828
0.0332853
0.0389793
0.0448988
0.0489223
0.0504928
0.0507685
0.0538178
0.0656927
0.0905927
0.104067
0.108607
0.110207
0.110472
0.110071
0.107954
0.10313
0.0953145
0.0854108
0.075626
0.0699031
0.0674835
0.065864
0.0626378
0.0587235
0.0552998
0.0535027
0.0522855
0.0508517
0.0483261
0.0458456
0.044758
0.0445535
0.0445014
0.0441498
0.0429232
0.0403909
0.0363905
0.0323865
0.0294964
0.0276961
0.0266509
0.0259918
0.0256545
0.0255451
0.0257788
0.027454
0.0321539
0.03637
0.0409188
0.0457675
0.0482101
0.0487728
0.0482617
0.0452649
0.0386562
0.0285199
0.0186743
0.0122746
0.0093593
0.00823012
0.00786084
0.0077962
0.00774959
0.00756949
0.00689415
0.00606763
0.00563347
0.00556421
0.00566628
0.0063768
0.00841161
0.00990467
0.0106264
0.010823
0.0107976
0.0105478
0.0099495
0.00946595
0.00872351
0.00788704
0.00711211
0.0581915
0.0529091
0.0150065
0.0661539
0.0902634
0.0973238
0.102419
0.112331
0.122746
0.128214
0.12854
0.126922
0.120613
0.112719
0.106153
0.0979041
0.088253
0.121476
0.139277
0.103338
0.0533873
0.0355157
0.0248993
0.0126509
0.00777052
0.00601602
0.00511612
0.00469825
0.00456766
0.00454748
0.00476684
0.0053239
0.00594593
0.00671615
0.0078959
0.00948132
0.0113754
0.0128489
0.0135399
0.0142823
0.0149585
0.0160987
0.0174547
0.0194462
0.0215865
0.0236029
0.0250786
0.0263556
0.0275974
0.0288782
0.0302874
0.0313859
0.0319813
0.0321908
0.0317528
0.030776
0.0295459
0.0277772
0.0256121
0.0230347
0.0203117
0.0173659
0.0138543
0.0100198
0.00636769
0.00395786
0.00238453
0.00146882
0.00106591
0.000964118
0.00117046
0.00283818
0.010219
0.0361493
0.0723305
0.104052
0.128996
0.154292
0.168287
0.162591
0.155671
0.152916
0.131955
0.116132
0.0929194
0.0428
0.0205104
0.0152289
0.0135154
0.0123732
0.0114518
0.0106317
0.00987436
0.00911251
0.00873502
0.010692
0.0137252
0.0182204
0.0235698
0.0272646
0.0313366
0.0358894
0.040474
0.0440078
0.0466769
0.0513077
0.063761
0.0866977
0.102218
0.107798
0.110471
0.11174
0.111798
0.110711
0.107399
0.100481
0.0896936
0.07817
0.072579
0.0705241
0.0690222
0.0650525
0.0599657
0.0549832
0.0511775
0.0496556
0.0490554
0.0475913
0.0446323
0.0423817
0.0414737
0.0415888
0.0420433
0.0421062
0.0409182
0.038675
0.036759
0.0349613
0.033431
0.0324903
0.0319472
0.0318525
0.0317165
0.0313211
0.0312884
0.0331555
0.0426822
0.050246
0.0516697
0.0517902
0.0516915
0.0514945
0.050718
0.0476049
0.0395641
0.0277602
0.0175592
0.0115491
0.00904388
0.00812773
0.00785877
0.00774937
0.00753579
0.00685069
0.00571434
0.00491182
0.00423051
0.00368191
0.00351517
0.00372694
0.00483864
0.00659351
0.00777119
0.00837157
0.00860402
0.00866558
0.00865571
0.00852016
0.00806232
0.00749273
0.0626001
0.052259
0.0107982
0.0770818
0.0919931
0.097619
0.102113
0.113214
0.123795
0.128856
0.129327
0.127694
0.12134
0.113144
0.105293
0.0975456
0.0875215
0.102644
0.136572
0.118456
0.0647034
0.0350838
0.0211292
0.0105668
0.00622774
0.00483706
0.00431114
0.00414947
0.00413651
0.00429124
0.00477394
0.00551451
0.00671887
0.00883465
0.0126804
0.0185775
0.0219139
0.0234175
0.0242411
0.0250357
0.0256791
0.0264225
0.0273924
0.0286547
0.0299065
0.031207
0.0325359
0.0343138
0.0364261
0.0388707
0.0413674
0.0435972
0.0446822
0.0451152
0.0451115
0.0434054
0.0409979
0.0380209
0.0345019
0.0308841
0.0277645
0.0252646
0.0228374
0.0192828
0.0144474
0.00919749
0.00575982
0.0032313
0.00175891
0.00108245
0.000876849
0.00100056
0.00248051
0.0099525
0.0397732
0.0811566
0.100969
0.114087
0.121732
0.128493
0.132457
0.12437
0.110594
0.0960454
0.0645928
0.0322373
0.0189312
0.0150876
0.0132454
0.0117787
0.0106571
0.00998336
0.00955704
0.0090395
0.00834549
0.00847471
0.0109297
0.0150812
0.0197844
0.0237679
0.0261994
0.0292743
0.0332425
0.0374396
0.0416454
0.0471657
0.0589562
0.077343
0.095045
0.103024
0.106905
0.110585
0.111585
0.110809
0.107883
0.101492
0.0915058
0.0818555
0.0780697
0.0767393
0.0747512
0.0701396
0.0627055
0.0553402
0.0499925
0.0468614
0.0455817
0.0449455
0.0429507
0.0408981
0.0399159
0.0397833
0.0401912
0.04065
0.0405317
0.0392917
0.0383882
0.0380685
0.0381705
0.0389514
0.0402896
0.0419997
0.0444272
0.0449448
0.0447497
0.0440573
0.0453969
0.0568181
0.064403
0.0642858
0.0611774
0.057672
0.0546807
0.0520823
0.0474348
0.0374968
0.0252364
0.0157367
0.0106819
0.00869446
0.00801273
0.00778957
0.00754696
0.00691586
0.00578344
0.00457913
0.00353441
0.0029104
0.0027235
0.00275689
0.00313199
0.00435728
0.00534607
0.00568818
0.00573333
0.00583597
0.00622983
0.00712103
0.00726874
0.00719648
0.0694755
0.0521643
0.0111059
0.0810779
0.0896593
0.0957705
0.100306
0.10951
0.11907
0.125586
0.127736
0.126378
0.120242
0.112592
0.102534
0.0952427
0.0875036
0.0903293
0.12056
0.121218
0.0833145
0.0376146
0.0197503
0.00921693
0.00538217
0.00430889
0.00399109
0.00392954
0.0039766
0.00425506
0.00486663
0.00606809
0.00857513
0.0139706
0.0213555
0.0270244
0.0294542
0.0305965
0.0311783
0.0315744
0.0319432
0.0323157
0.0329588
0.0342568
0.0359513
0.0383326
0.0414451
0.0447083
0.0479707
0.0503832
0.0518209
0.0525029
0.052801
0.052869
0.0525103
0.0516389
0.0499031
0.0465815
0.041579
0.0366658
0.0318943
0.0287679
0.0266102
0.0247966
0.0228705
0.0198078
0.0138654
0.00836982
0.00443404
0.0022451
0.00118563
0.000806343
0.000801962
0.00182956
0.00823141
0.037468
0.0818275
0.100737
0.107772
0.110389
0.111069
0.106673
0.0986427
0.0819493
0.0507181
0.0280598
0.018687
0.014904
0.0121822
0.0096678
0.008064
0.00759192
0.00766528
0.00815077
0.00802768
0.00776304
0.00855238
0.0118539
0.0168394
0.0207038
0.0231828
0.025059
0.0277372
0.0314717
0.035947
0.041482
0.0512924
0.0661811
0.083271
0.0915839
0.0949769
0.10084
0.10734
0.107593
0.104328
0.0976527
0.0890429
0.0829953
0.0806243
0.0791457
0.0771187
0.0735302
0.0654771
0.0550754
0.0476765
0.0438489
0.0428189
0.0423188
0.0412706
0.0384126
0.0377737
0.0380022
0.0391509
0.0399417
0.0399774
0.0393215
0.0386724
0.0387134
0.0394829
0.0426427
0.0476598
0.049683
0.0514816
0.052708
0.0541678
0.0569756
0.0581874
0.0595767
0.0700648
0.0801684
0.0800078
0.074994
0.063872
0.0572197
0.0534592
0.0461924
0.0340655
0.0219373
0.0137695
0.00983184
0.00834379
0.00783834
0.00759074
0.00718075
0.00616193
0.00477455
0.00357732
0.0027865
0.00247308
0.0024384
0.00254625
0.00317908
0.0041196
0.00450261
0.00452764
0.00442897
0.004431
0.00468678
0.0051645
0.00569291
0.0790247
0.0544639
0.0241313
0.0794036
0.0874314
0.0926181
0.0955598
0.101238
0.110366
0.115996
0.119874
0.12039
0.116891
0.110968
0.099121
0.0876661
0.086846
0.0852018
0.0972889
0.115487
0.0978197
0.048804
0.0206012
0.00929212
0.00513232
0.00407942
0.00386965
0.00384683
0.00393269
0.00427076
0.00513679
0.00750033
0.01244
0.0191942
0.0274481
0.0318659
0.033471
0.0341249
0.0344797
0.0350185
0.0356124
0.036623
0.0384499
0.0410038
0.0441533
0.0476208
0.0504432
0.0526524
0.0537777
0.054341
0.0545853
0.0546891
0.054707
0.0546838
0.0545426
0.0542771
0.0536566
0.0523784
0.0497072
0.0442
0.0365887
0.0308476
0.0281544
0.0261463
0.0250131
0.0242865
0.0228574
0.0185631
0.0112473
0.00575979
0.00284072
0.0013493
0.000743064
0.000632656
0.0011732
0.0055094
0.0272065
0.0738351
0.0971898
0.104121
0.103753
0.100387
0.0923968
0.0705762
0.0433291
0.0266105
0.0183779
0.0135841
0.00980198
0.00704954
0.00544753
0.00504155
0.00510054
0.00559442
0.00697816
0.00718064
0.00746963
0.00892577
0.0132797
0.0181865
0.0211659
0.0226242
0.0242892
0.0268233
0.0306436
0.0354176
0.0427356
0.0549943
0.0698397
0.0816254
0.0842706
0.0857896
0.0924879
0.0989931
0.0966648
0.0922133
0.0861334
0.0829561
0.0816917
0.0798505
0.0777454
0.0745501
0.0671839
0.054901
0.0460472
0.0421899
0.0412591
0.0411115
0.0404257
0.0374804
0.0357007
0.03578
0.0374484
0.0391642
0.0393771
0.0389666
0.0385335
0.0386581
0.0399438
0.0454395
0.0511863
0.0531035
0.0536432
0.0538928
0.0549111
0.0583394
0.0654264
0.0687054
0.0718171
0.0833954
0.0937881
0.0935038
0.0863505
0.0685808
0.0602985
0.0538972
0.0428794
0.0294061
0.0183774
0.0118937
0.00902644
0.00797681
0.00759737
0.00732769
0.00678507
0.00543607
0.0039357
0.0028851
0.0023125
0.00211559
0.00210897
0.00224566
0.00273873
0.00300765
0.00302175
0.00293939
0.0029167
0.00293944
0.00302175
0.00330412
0.0829046
0.0619616
0.041819
0.0783398
0.0853943
0.0910872
0.0933367
0.0957712
0.101552
0.106892
0.109637
0.110673
0.109081
0.10667
0.0983285
0.0854844
0.0832301
0.0836809
0.0863624
0.103405
0.104378
0.071828
0.0245397
0.010027
0.00522784
0.00405651
0.00383991
0.00382616
0.00393211
0.00437456
0.00569359
0.0086224
0.0139485
0.0227817
0.0312305
0.0347975
0.036505
0.0375576
0.0381621
0.0386316
0.0399848
0.0419189
0.0445568
0.0475362
0.0505506
0.0528304
0.0541774
0.0547117
0.0548664
0.0549169
0.0549365
0.0548898
0.0548688
0.0548705
0.0548669
0.0548036
0.0546601
0.0542502
0.0532364
0.0508487
0.0454832
0.0346027
0.0288236
0.0264234
0.0253819
0.0249518
0.024917
0.0242095
0.0212878
0.01336
0.00681469
0.00334413
0.00149658
0.00070115
0.000505347
0.000678132
0.00294526
0.0169775
0.0594627
0.0902295
0.0976426
0.0955581
0.0832967
0.0594826
0.038091
0.0243266
0.0163961
0.0113463
0.0083011
0.00638722
0.00493994
0.00390546
0.00369306
0.00382709
0.00456308
0.00607945
0.00649983
0.00727919
0.00959299
0.0151909
0.0191515
0.0211505
0.0223467
0.0239762
0.0265033
0.0304647
0.0357032
0.043838
0.0567997
0.0690622
0.076232
0.0773378
0.079262
0.0854643
0.091004
0.0897567
0.0867415
0.0839182
0.0822021
0.0800144
0.0777894
0.0746406
0.0674657
0.0545737
0.0453251
0.0413475
0.0402475
0.0398897
0.0388219
0.035714
0.03415
0.0342876
0.036228
0.038254
0.038456
0.0379086
0.0375929
0.0379049
0.0402993
0.0479933
0.0532106
0.0548706
0.0548307
0.0536906
0.0524739
0.0536048
0.0611432
0.0723953
0.0766858
0.0823213
0.0984221
0.106079
0.104643
0.0928336
0.0720623
0.0618061
0.0513337
0.0375761
0.0243269
0.0151189
0.0102977
0.00832155
0.00763808
0.00733671
0.00691194
0.00584643
0.00430204
0.00303637
0.00220318
0.00176402
0.00161511
0.0016131
0.00171173
0.00181144
0.00180271
0.00171301
0.00169556
0.00172478
0.00172224
0.00174935
0.0831105
0.0687373
0.0567622
0.0751518
0.0807753
0.0880378
0.0904936
0.0917863
0.0940225
0.0986661
0.102421
0.103859
0.10376
0.101908
0.0975992
0.0864
0.0785097
0.0812243
0.0806593
0.0900615
0.102888
0.0865712
0.0384747
0.0121555
0.00559975
0.00409358
0.00384217
0.00382775
0.00394122
0.00442587
0.0058286
0.0091066
0.0154694
0.0243398
0.0332489
0.0377137
0.0388615
0.0391778
0.0399436
0.0416486
0.0440285
0.0470338
0.0497728
0.0523555
0.0540058
0.054761
0.0549598
0.0548233
0.0547114
0.0545684
0.054202
0.0540411
0.0540524
0.0543612
0.0546539
0.0547929
0.0547927
0.0546371
0.0541602
0.0528018
0.0494683
0.0414707
0.0311451
0.0261516
0.0251736
0.0248576
0.0250944
0.0251318
0.0244459
0.0215231
0.0138271
0.00726844
0.00350054
0.00154024
0.000695679
0.000460018
0.000501619
0.00154682
0.00885455
0.0388228
0.0707295
0.0778462
0.0708708
0.0500498
0.032773
0.0211046
0.0142665
0.0105125
0.00823155
0.00658946
0.00519323
0.00410366
0.00326444
0.00304257
0.0032102
0.00399045
0.00541442
0.00598558
0.00723576
0.0104362
0.0167875
0.0199431
0.021385
0.0225915
0.0239891
0.0267417
0.0308559
0.0360518
0.0435253
0.0561777
0.0658911
0.0700058
0.0712456
0.0738487
0.0804457
0.0847019
0.0847508
0.0841432
0.0823958
0.0791554
0.0756912
0.0718997
0.0633872
0.0504307
0.0427069
0.0394892
0.0387206
0.0383391
0.0370153
0.0327289
0.0312015
0.0316732
0.0349313