/*--------------------------------*- C++ -*----------------------------------*\
  =========                 |
  \\      /  F ield         | OpenFOAM: The Open Source CFD Toolbox
   \\    /   O peration     | Website:  https://openfoam.org
    \\  /    A nd           | Version:  9
     \\/     M anipulation  |
\*---------------------------------------------------------------------------*/
FoamFile
{
    format      ascii;
    class       volScalarField;
    location    "0.086";
    object      nut;
}
// * * * * * * * * * * * * * * * * * * * * * * * * * * * * * * * * * * * * * //

dimensions      [0 2 -1 0 0 0 0];

internalField   nonuniform List<scalar> 
12225
(
0
0
0
0
0
0
0
0
0
0
0
0
0
0
0
0
0
0
0
0
0
0
0
0
0
0
0
0
0
0
0
0
0
0
0
0
0
0
0
0
0
0
0
0
0
0
0
0
0
0
0
0
0
0
1.11096e-08
0
0
7.36182e-09
1.09311e-08
7.89941e-09
2.87125e-09
0
0
0
0
0
0
0
0
0
5.83263e-10
1.57847e-09
1.05227e-07
0
0
7.00226e-07
1.62313e-06
1.77598e-06
1.26251e-06
5.12977e-07
1.24067e-07
5.02394e-08
3.98743e-08
0
0
8.69266e-09
3.26559e-08
4.727e-08
5.97113e-08
5.21408e-08
4.79183e-07
0
0
5.84075e-08
7.03214e-07
4.1455e-07
6.07453e-07
1.56533e-07
0
0
0
0
7.51585e-09
6.59067e-08
1.95946e-07
3.49959e-07
4.60107e-07
5.07438e-07
5.79074e-07
0
0
7.88765e-07
7.95524e-07
0
1.20529e-07
0
0
0
0
5.1924e-09
1.5857e-07
3.68799e-07
5.23328e-07
5.9204e-07
5.85583e-07
5.1644e-07
6.6415e-07
3.71147e-07
0
0
0
0
0
0
1.24092e-08
5.17061e-08
1.04025e-08
7.4148e-08
2.78786e-07
6.50129e-07
9.77963e-07
1.17899e-06
1.20883e-06
8.66928e-07
8.32314e-07
7.25073e-07
3.27671e-07
0
0
0
6.82308e-08
7.61711e-07
1.55489e-06
1.18933e-06
5.5877e-07
2.4797e-07
2.47559e-07
7.03877e-07
1.44603e-06
1.5064e-06
1.10679e-06
6.60333e-07
3.62058e-08
0
0
0
0
0
4.12368e-08
1.45014e-07
2.05348e-07
2.84565e-07
4.23427e-07
5.20322e-07
6.52195e-07
9.19188e-07
1.12761e-06
9.54055e-07
6.14564e-07
3.29358e-07
0
0
0
0
0
0
0
0
0
0
2.0558e-07
9.13706e-07
1.19709e-06
1.35639e-06
1.54489e-06
1.42224e-06
8.36646e-07
2.908e-07
0
0
0
0
3.52069e-08
0
0
0
0
0
0
3.42662e-08
2.82553e-07
6.32887e-07
8.78996e-07
4.88305e-07
0
0
0
0
0
2.74145e-07
3.85866e-07
0
0
0
0
0
0
0
1.91708e-08
5.78692e-07
5.26176e-07
3.23372e-07
1.1829e-07
0
0
0
0
0
0
0
0
0
0
0
0
0
0
0
2.82682e-07
4.47121e-07
4.55865e-07
3.79755e-07
2.9614e-07
0
0
0
0
0
0
5.26994e-07
4.93131e-06
5.2729e-06
1.1186e-06
0
0
0
0
0
6.09426e-07
8.27098e-07
0
0
0
0
0
0
0
8.69583e-07
3.16292e-06
4.28608e-06
4.03729e-06
4.99723e-07
0
0
0
0
4.29478e-07
9.45182e-07
0
0
0
3.47584e-07
7.6501e-08
0
0
0
0
3.74879e-07
1.03336e-06
9.07137e-07
1.29409e-07
0
0
4.59522e-07
9.28076e-07
9.6128e-07
0
2.89845e-07
0
2.57829e-07
1.03607e-06
4.41509e-07
0
0
0
0
2.71738e-07
6.21954e-07
2.35933e-07
0
0
1.2512e-07
8.54449e-07
9.44127e-07
0
0
0
0
0
0
0
0
0
0
0
0
2.48704e-07
3.38141e-07
0
0
0
1.77065e-07
4.03285e-08
0
0
0
0
0
0
0
0
0
0
0
0
0
0
0
0
0
5.34876e-07
3.91863e-07
0
0
0
0
0
0
0
0
0
0
0
9.98416e-08
1.72744e-07
0
0
0
0
0
0
0
0
0
0
0
0
2.445e-07
3.5252e-07
2.40926e-07
1.27609e-07
4.32577e-07
1.79893e-07
0
9.24163e-08
3.92378e-07
0
0
0
0
0
0
0
0
0
0
0
0
0
5.10139e-07
6.8743e-07
6.17302e-07
5.34196e-07
4.71497e-07
0
0
0
0
0
0
0
0
0
0
0
0
0
0
0
0
0
0
0
0
0
0
0
0
0
0
0
0
0
0
0
0
0
0
0
0
0
0
0
0
0
0
0
0
0
8.19322e-08
4.02929e-08
0
0
0
0
0
0
0
0
0
0
0
0
0
0
0
0
0
5.42163e-09
1.03971e-08
1.31031e-08
1.38457e-08
1.32779e-08
1.18207e-08
9.48759e-09
6.81397e-09
9.90506e-11
0
0
0
0
0
0
0
0
0
0
0
1.87267e-10
5.6501e-10
9.52666e-10
1.25586e-09
1.27377e-09
1.0179e-09
8.31208e-11
0
0
0
0
0
0
0
0
0
0
0
0
0
0
0
0
3.61211e-11
4.16255e-11
0
0
0
0
0
0
0
0
0
0
0
0
0
0
0
0
0
0
2.02115e-07
6.97494e-06
0
0
0
0
0
0
0
0
0
0
0
0
0
1.38618e-05
6.7628e-05
8.00173e-05
8.58298e-05
6.95133e-05
3.78248e-05
1.30923e-05
9.63648e-07
0
4.31873e-07
6.68491e-07
3.62591e-07
0
0
0
0
0
0
3.43327e-08
2.51031e-07
4.30572e-07
5.8048e-07
7.07347e-07
8.1276e-07
8.98687e-07
9.6356e-07
9.87236e-07
9.7098e-07
9.20832e-07
8.35494e-07
7.1815e-07
5.77046e-07
4.21238e-07
2.58514e-07
9.27066e-08
0
0
0
0
0
0
0
0
0
0
0
0
0
0
0
0
0
0
0
0
0
0
0
0
0
0
0
1.4638e-06
1.00239e-06
0
0
1.04375e-05
7.87048e-06
0
0
0
0
1.55692e-05
2.36237e-05
1.25572e-05
0
0
0
0
0
0
0
0
0
0
3.81863e-06
2.28515e-05
6.24491e-05
6.2057e-05
3.71558e-05
1.38951e-05
3.97827e-06
1.41246e-06
6.27659e-07
4.41926e-07
3.7648e-07
2.9079e-07
1.96959e-07
1.06858e-07
2.74061e-08
0
0
0
0
0
0
0
0
0
0
0
0
0
0
0
0
0
0
0
0
0
1.03842e-08
0
0
0
0
0
0
0
0
0
0
0
0
0
0
0
0
0
0
0
0
0
0
0
0
0
0
0
1.79414e-08
2.46546e-08
1.47301e-08
6.37388e-09
4.63287e-09
1.20085e-08
2.24431e-08
2.47383e-08
2.39961e-08
1.8801e-08
7.86529e-09
0
0
0
0
0
0
0
0
0
4.59815e-06
7.03986e-06
6.54074e-06
3.41846e-06
0
0
0
0
0
0
0
6.34472e-06
6.99612e-06
3.42827e-06
5.21268e-06
1.40087e-05
1.49514e-05
7.52858e-06
3.56786e-06
3.6002e-06
3.89692e-06
4.08156e-06
3.84096e-06
3.04421e-06
2.17638e-06
1.42245e-06
8.41962e-07
5.00813e-07
3.73154e-07
3.90138e-07
4.74941e-07
5.76351e-07
6.70268e-07
7.46678e-07
8.05561e-07
8.48583e-07
8.73714e-07
8.74265e-07
8.45451e-07
7.93708e-07
7.20605e-07
6.25089e-07
5.08391e-07
3.74637e-07
2.30627e-07
8.23455e-08
0
0
0
0
0
0
0
0
0
0
0
0
0
0
0
0
0
0
0
1.40903e-06
3.75485e-07
0
0
0
0
0
0
1.69406e-06
0
0
0
1.70402e-06
3.11698e-06
0
0
0
6.64764e-06
2.98774e-05
2.68031e-05
1.19152e-05
0
0
0
0
0
0
0
0
0
5.10647e-06
3.07037e-05
3.78105e-05
2.60323e-05
1.57191e-05
1.00691e-05
6.55186e-06
3.7048e-06
1.82846e-06
1.01723e-06
8.93986e-07
7.87698e-07
6.11506e-07
4.15782e-07
2.28332e-07
6.76215e-08
0
0
0
0
0
0
0
0
0
0
0
0
0
0
0
0
0
0
0
0
0
0
0
1.08707e-09
0
0
0
0
0
0
0
0
0
0
0
0
0
0
0
0
0
0
0
0
0
0
0
0
0
0
0
0
0
0
1.69533e-09
2.40136e-08
3.40706e-08
3.77494e-08
3.59657e-08
2.67277e-08
0
0
0
0
6.9555e-06
9.01453e-06
8.31789e-07
0
3.38927e-06
7.96316e-06
9.39039e-06
9.07483e-06
6.8622e-06
0
0
0
0
0
0
0
0
0
1.02162e-06
1.39466e-06
4.21243e-06
4.02565e-06
2.1404e-06
2.03927e-06
3.03391e-06
3.52762e-06
3.89028e-06
3.96939e-06
3.65088e-06
3.26238e-06
2.80091e-06
2.31291e-06
1.8221e-06
1.36385e-06
1.00304e-06
7.0398e-07
4.83154e-07
3.27531e-07
2.17689e-07
1.53075e-07
1.18068e-07
1.02197e-07
9.9456e-08
1.05751e-07
1.17972e-07
1.32621e-07
1.43754e-07
1.43071e-07
1.22997e-07
8.15907e-08
2.3031e-08
0
0
0
0
0
0
0
0
0
0
0
0
0
0
0
0
0
1.00379e-07
1.29816e-06
2.18032e-06
2.07189e-06
0
0
0
0
0
0
0
0
0
3.05393e-07
1.40378e-06
0
0
0
0
9.3383e-06
1.03854e-05
5.39558e-06
2.0824e-06
0
0
0
0
0
0
0
0
0
3.15955e-06
5.09214e-06
4.7768e-06
3.58474e-06
2.81573e-06
2.06169e-06
2.49181e-06
3.26633e-06
2.80149e-06
3.39661e-06
3.90965e-06
3.39253e-06
2.51767e-06
1.62576e-06
8.78127e-07
3.08257e-07
0
0
0
0
0
0
0
0
0
0
0
0
0
0
0
0
0
0
0
0
0
0
0
0
0
0
0
0
0
0
0
0
0
0
0
0
0
0
0
0
0
0
0
0
0
0
0
0
0
0
0
0
0
0
0
0
5.09442e-08
7.36866e-08
8.98732e-08
8.23324e-08
2.67948e-08
0
0
0
2.17114e-05
1.29117e-05
4.34564e-06
1.926e-06
3.23444e-06
5.84939e-06
5.81564e-06
4.87318e-06
3.79492e-06
5.07666e-07
0
0
0
0
0
0
0
0
0
0
0
0
0
0
0
0
0
0
0
0
0
0
0
0
0
0
0
0
0
0
0
0
0
0
0
0
0
0
0
0
0
0
2.38458e-07
5.68862e-07
8.41256e-07
1.0354e-06
1.15366e-06
1.19537e-06
1.17787e-06
1.12488e-06
1.04708e-06
9.73765e-07
9.23751e-07
8.79844e-07
8.56571e-07
8.59748e-07
8.83026e-07
9.31961e-07
1.02398e-06
1.24108e-06
1.7327e-06
1.89306e-06
4.04621e-07
0
0
0
0
0
0
0
7.16199e-06
9.2716e-06
3.59429e-06
0
0
0
0
1.12221e-06
4.0315e-06
2.61123e-06
1.11251e-06
1.22947e-06
2.02631e-06
2.31317e-06
2.06723e-06
1.79543e-06
1.68304e-06
1.71878e-06
1.73992e-06
1.76762e-06
2.07627e-06
2.52573e-06
2.62613e-06
2.22645e-06
1.81959e-06
1.64143e-06
1.78331e-06
2.77194e-07
0
0
1.08476e-07
0
0
0
0
1.77667e-07
1.24227e-08
0
0
0
0
0
0
0
0
0
0
0
0
0
0
0
0
0
0
0
0
0
0
0
0
0
0
0
0
0
0
0
0
0
4.3995e-07
7.16247e-07
7.41236e-07
0
0
0
0
0
0
0
0
0
0
0
0
0
0
0
0
0
0
0
0
0
7.85828e-08
7.868e-08
7.10371e-08
0
1.26363e-07
0
1.39532e-05
1.20486e-05
6.98312e-06
4.20983e-06
4.87895e-06
3.63125e-06
9.3976e-07
0
0
0
0
0
0
0
0
0
0
0
0
0
0
0
0
0
0
0
0
0
0
0
0
0
0
0
0
0
0
0
0
0
0
0
0
0
0
0
0
0
0
0
0
0
0
0
3.0686e-07
7.23291e-07
1.05193e-06
1.24939e-06
1.30324e-06
1.25402e-06
1.124e-06
9.61298e-07
8.18517e-07
7.03762e-07
6.07897e-07
5.46768e-07
5.12565e-07
5.01478e-07
5.05075e-07
5.42821e-07
9.10419e-07
1.5834e-06
4.0993e-07
0
0
0
0
0
0
0
7.57064e-06
2.35297e-05
8.31346e-06
0
0
0
0
0
1.53593e-06
3.72757e-06
3.54654e-06
3.30788e-06
3.58416e-06
3.69358e-06
3.63327e-06
3.60752e-06
3.58461e-06
3.48902e-06
3.46786e-06
3.77328e-06
4.42398e-06
5.11286e-06
5.74571e-06
6.34737e-06
7.65254e-06
1.12925e-05
1.46435e-05
2.95726e-06
0
0
0
0
0
0
0
2.86812e-07
1.20756e-07
0
0
3.21679e-07
3.84432e-07
1.14076e-07
0
0
0
0
0
0
0
0
0
0
0
0
0
0
0
0
0
0
0
0
0
0
0
0
0
0
0
0
5.80111e-07
1.04293e-06
1.29236e-06
1.45189e-06
1.57073e-06
2.94257e-08
0
0
0
0
3.33488e-08
6.52183e-07
7.0226e-07
2.59008e-07
0
0
0
0
0
0
0
0
0
0
0
7.31251e-08
1.62873e-07
1.2589e-07
5.58832e-07
0
2.13384e-06
3.61545e-06
4.15698e-06
5.11202e-06
1.08877e-06
0
0
0
0
0
0
0
0
0
0
0
0
0
0
0
0
0
0
0
0
0
0
0
0
0
0
0
0
0
0
0
0
0
0
0
0
0
0
0
0
0
1.43774e-08
6.89846e-07
1.30769e-06
1.02444e-06
0
0
0
0
0
0
0
6.83172e-07
1.17113e-06
1.408e-06
1.40613e-06
1.21749e-06
9.8354e-07
7.60062e-07
6.05745e-07
4.88395e-07
4.15893e-07
3.55507e-07
3.2604e-07
3.55405e-07
5.20665e-07
1.22135e-06
1.03239e-06
0
0
0
0
0
0
0
1.55416e-06
1.66556e-05
1.18329e-05
0
0
0
0
0
4.04097e-07
1.30883e-06
1.08943e-06
7.33091e-07
6.59184e-07
8.61162e-07
1.2189e-06
1.60098e-06
1.99841e-06
2.42956e-06
2.94576e-06
3.59366e-06
4.3768e-06
5.21407e-06
6.13674e-06
7.31875e-06
8.30379e-06
7.44542e-06
4.97884e-06
0
0
0
0
0
0
0
0
0
0
0
0
2.49304e-07
6.93657e-07
6.66063e-07
2.6474e-07
0
0
0
0
0
0
0
0
0
0
0
0
0
0
0
0
0
0
0
0
0
0
0
0
0
0
0
5.72376e-07
1.24313e-06
1.57657e-06
1.74748e-06
1.86813e-06
1.95683e-06
1.69406e-06
9.38076e-06
4.85234e-06
2.80393e-06
2.51917e-06
2.3868e-06
1.91795e-06
1.31268e-06
9.27142e-07
5.86256e-07
6.62298e-08
0
0
0
0
0
0
0
0
5.88965e-08
2.88933e-07
3.42256e-07
7.00717e-07
1.92304e-08
2.47769e-07
6.3733e-07
1.58615e-06
3.01301e-06
0
0
0
0
6.44763e-08
3.19789e-07
2.32629e-08
1.29503e-07
0
0
0
0
0
0
0
0
0
0
0
0
0
0
0
0
0
0
0
0
0
0
0
0
0
0
0
0
0
0
0
3.44905e-07
1.04921e-06
2.18768e-06
3.98602e-06
6.54664e-06
9.10678e-06
6.15079e-06
0
0
0
0
0
0
0
0
0
0
3.13166e-07
7.04215e-07
8.46532e-07
7.98874e-07
6.76652e-07
5.27743e-07
4.16153e-07
3.38105e-07
2.85064e-07
2.81573e-07
4.00893e-07
5.87801e-07
1.07779e-06
0
0
0
0
0
0
0
5.90546e-07
9.43019e-06
1.06529e-05
0
0
0
0
0
0
5.59244e-07
4.88301e-07
3.17871e-07
2.57952e-07
2.99044e-07
4.30639e-07
6.77773e-07
1.01305e-06
1.42382e-06
1.8382e-06
2.20228e-06
2.50344e-06
2.825e-06
3.24635e-06
3.6757e-06
3.5555e-06
2.42931e-06
0
0
0
0
0
0
0
0
0
0
0
0
0
2.21868e-07
1.14087e-06
1.30684e-06
8.53372e-07
5.20356e-08
0
0
0
0
0
0
0
0
0
0
0
0
0
0
0
0
0
0
0
0
0
0
0
0
0
0
2.29673e-08
1.47412e-06
1.96837e-06
2.14212e-06
2.2248e-06
2.33823e-06
2.67937e-06
5.8372e-06
7.9915e-06
6.26043e-06
5.62256e-06
4.54828e-06
3.54824e-06
2.7442e-06
2.21995e-06
1.83621e-06
1.38375e-06
4.96136e-07
0
0
0
0
0
0
7.79255e-08
3.71448e-07
7.3739e-07
7.57982e-07
8.02151e-07
0
1.48103e-09
1.06988e-07
4.4593e-07
4.89363e-07
0
0
0
0
0
0
0
0
0
0
0
0
0
0
0
0
0
0
0
0
0
0
0
0
0
0
0
0
0
0
0
0
0
0
0
2.0374e-07
4.15327e-07
7.01496e-07
1.13594e-06
1.83192e-06
2.91111e-06
4.53905e-06
6.86884e-06
9.87827e-06
1.18981e-05
7.18198e-06
0
0
0
0
0
0
0
0
0
0
0
0
0
0
0
2.30244e-07
3.51964e-07
3.36187e-07
2.94706e-07
2.74505e-07
2.94698e-07
3.35324e-07
0
0
0
0
0
0
0
0
1.32317e-06
5.34165e-06
5.77297e-06
0
0
0
0
0
0
7.10394e-07
5.21907e-07
2.90433e-07
1.96771e-07
2.17956e-07
2.66873e-07
3.80108e-07
5.50955e-07
7.8256e-07
1.02476e-06
1.17621e-06
1.25024e-06
1.30996e-06
1.50833e-06
1.80491e-06
1.74414e-06
6.737e-07
0
0
0
0
4.51932e-07
8.08634e-07
0
0
0
0
0
0
0
4.79251e-07
2.0802e-06
2.60129e-06
2.13164e-06
1.08742e-06
0
0
0
0
0
0
0
0
0
0
0
0
0
0
0
0
0
0
0
0
0
0
0
0
0
0
0
1.40427e-06
2.46283e-06
2.73427e-06
2.76916e-06
2.75613e-06
2.89121e-06
3.83855e-06
7.43398e-06
3.57236e-06
4.13639e-06
5.0836e-06
5.07317e-06
4.54012e-06
3.85702e-06
3.45377e-06
3.27788e-06
3.0138e-06
1.32091e-06
2.14201e-07
0
0
2.06378e-07
4.01967e-07
6.38009e-07
1.01272e-06
1.37549e-06
1.19058e-06
8.9313e-07
0
1.4391e-08
3.64958e-08
8.36769e-08
0
0
0
0
0
0
0
0
0
0
0
0
0
0
0
0
0
0
0
0
0
0
0
0
0
0
0
0
0
0
0
0
0
0
1.05689e-07
4.34024e-08
0
3.69872e-08
2.35313e-07
6.47427e-07
1.35943e-06
2.44741e-06
3.93315e-06
5.65035e-06
7.08471e-06
7.29011e-06
5.63224e-06
2.70032e-06
4.94093e-08
0
0
0
0
1.74749e-07
3.94458e-07
2.74027e-07
0
0
0
0
0
0
0
0
0
2.04437e-07
2.53401e-07
2.60804e-07
2.5966e-07
2.08588e-07
3.12911e-07
7.40875e-07
1.01422e-06
6.79953e-07
2.35727e-07
2.87712e-07
1.06263e-06
2.58634e-06
4.09201e-06
3.59997e-06
3.55774e-07
0
3.07155e-06
1.19179e-06
6.53661e-07
1.1455e-06
1.14647e-06
7.56491e-07
4.06833e-07
2.17644e-07
1.96383e-07
2.33807e-07
2.64119e-07
3.12176e-07
4.12108e-07
5.29359e-07
6.26968e-07
6.50017e-07
6.44695e-07
7.54516e-07
9.99515e-07
9.95963e-07
4.32017e-08
0
0
0
0
0
1.77559e-06
8.28682e-07
0
0
0
0
0
0
4.0198e-07
2.09721e-06
2.95798e-06
2.89755e-06
2.06176e-06
7.34328e-07
0
0
0
0
0
0
0
0
0
0
0
0
0
0
0
0
0
0
0
0
0
0
0
0
0
0
7.38275e-08
2.85763e-06
3.38899e-06
3.41393e-06
3.29564e-06
3.23621e-06
3.5425e-06
5.24402e-06
4.83128e-06
2.24709e-06
2.9486e-06
3.73314e-06
4.0719e-06
4.12946e-06
4.0764e-06
3.96782e-06
3.69327e-06
2.78776e-06
1.70642e-06
1.76387e-06
3.07974e-06
3.70222e-06
3.40816e-06
2.83344e-06
2.23856e-06
2.0169e-06
1.42525e-06
7.81054e-07
0
5.35216e-08
3.27013e-08
0
0
0
0
2.13298e-07
2.47574e-07
0
0
0
0
0
0
0
0
0
0
0
0
0
0
0
0
0
0
0
0
0
0
0
0
0
0
0
3.19289e-07
3.68211e-07
1.85449e-07
2.36949e-08
0
8.24918e-09
1.94117e-07
5.39589e-07
1.08943e-06
1.91288e-06
3.12524e-06
4.80465e-06
6.72382e-06
8.04426e-06
7.13517e-06
3.24965e-06
0
0
0
0
0
0
7.04584e-07
1.5352e-06
1.88617e-06
1.76603e-06
1.23368e-06
1.92797e-07
0
0
0
0
0
0
1.25184e-07
2.49947e-07
2.31469e-07
1.53245e-07
3.1924e-08
0
2.8042e-07
9.54473e-07
1.56275e-06
1.9733e-06
2.39959e-06
3.11599e-06
3.80284e-06
3.37606e-06
2.68242e-06
5.90558e-06
5.11346e-06
1.95294e-06
9.29608e-07
9.32081e-07
8.87174e-07
6.17483e-07
3.68957e-07
1.47362e-07
6.01405e-08
9.11886e-08
1.39146e-07
1.6954e-07
2.14833e-07
2.6983e-07
3.34456e-07
3.74736e-07
3.72455e-07
4.27668e-07
6.01298e-07
6.46245e-07
0
0
0
0
0
0
6.92501e-07
1.54916e-06
2.61979e-07
0
0
0
0
0
8.35182e-08
8.41771e-07
1.4331e-06
1.99396e-06
1.93282e-06
9.81203e-07
4.91971e-08
0
0
0
0
0
0
0
0
0
0
0
0
0
0
0
0
0
0
0
0
0
0
0
0
0
0
2.74e-06
4.15721e-06
4.21063e-06
3.99211e-06
3.75378e-06
3.73374e-06
4.32059e-06
5.73362e-06
2.69893e-06
1.75713e-06
2.37703e-06
2.82473e-06
2.90106e-06
2.77379e-06
2.57829e-06
2.27571e-06
1.83776e-06
1.352e-06
9.96533e-07
1.25872e-06
2.74425e-06
3.68776e-06
4.12241e-06
4.49064e-06
3.33406e-06
1.63103e-06
6.3502e-07
0
7.99615e-08
1.62647e-08
0
0
2.71093e-07
0
0
1.14276e-07
2.07921e-07
0
0
0
2.32895e-07
3.47525e-07
1.3895e-07
0
0
0
0
0
0
0
0
0
0
0
0
0
0
0
0
0
0
0
6.60773e-07
8.80242e-07
5.74658e-07
1.91342e-07
0
0
0
0
0
6.93597e-07
2.30373e-06
4.89389e-06
8.66235e-06
1.36384e-05
1.84185e-05
1.54414e-05
0
0
0
0
0
0
0
0
0
4.06038e-08
8.48153e-07
1.49465e-06
1.74195e-06
9.27074e-07
0
0
0
0
0
0
2.63708e-07
3.00689e-07
1.99082e-07
9.57184e-08
0
0
0
0
0
7.68507e-07
1.49445e-06
1.7603e-06
1.14518e-06
1.7092e-06
3.59625e-06
2.89439e-06
1.34896e-06
6.74454e-07
5.91107e-07
4.77348e-07
2.9187e-07
1.98237e-07
9.35251e-08
0
0
0
3.99576e-08
8.14053e-08
1.27861e-07
1.78708e-07
2.22116e-07
2.36631e-07
2.5921e-07
3.66363e-07
4.82803e-07
2.28831e-07
0
0
0
0
0
0
1.16314e-07
5.75861e-07
0
0
8.14127e-09
1.58261e-07
2.31905e-07
1.62673e-07
0
0
7.60672e-07
1.38484e-06
8.43759e-07
0
0
2.0353e-07
0
0
0
0
0
0
0
0
0
0
0
0
0
0
0
0
0
0
0
0
0
0
0
0
1.21012e-07
4.99162e-06
5.187e-06
4.82373e-06
4.40325e-06
4.13179e-06
4.22278e-06
4.98844e-06
4.6262e-06
1.78419e-06
1.6067e-06
2.01017e-06
2.1759e-06
1.98604e-06
1.61757e-06
1.25952e-06
1.03501e-06
9.40121e-07
7.96287e-07
6.8048e-07
1.45822e-06
2.32655e-06
2.55753e-06
1.73096e-06
1.28117e-06
2.10767e-06
6.67775e-07
0
7.74954e-08
0
0
0
0
0
0
0
1.57543e-07
0
0
0
0
5.05727e-07
1.02695e-06
1.26772e-06
5.06731e-06
3.90575e-06
8.25032e-07
2.70971e-06
0
0
0
0
0
0
0
0
0
0
0
0
0
2.5173e-07
7.63406e-07
4.83083e-07
1.40466e-08
0
0
0
0
0
4.29518e-07
1.73811e-06
3.71316e-06
6.48136e-06
1.01807e-05
1.48445e-05
1.86849e-05
4.90285e-06
0
0
0
0
0
0
0
0
0
0
0
0
2.20368e-07
1.0493e-06
6.26415e-07
0
0
0
0
0
5.87762e-08
4.30081e-07
3.07124e-07
1.65087e-07
8.79189e-08
3.97549e-08
0
0
0
0
0
2.35192e-07
6.68169e-07
1.56717e-06
1.96488e-06
1.37135e-06
6.14378e-07
3.63227e-07
6.32868e-07
7.13964e-07
3.56097e-07
1.17746e-07
5.31135e-08
0
0
0
0
0
2.40118e-08
9.26402e-08
1.46043e-07
1.63911e-07
1.4797e-07
1.90115e-07
3.52605e-07
4.56123e-07
6.21728e-08
0
0
0
0
0
0
0
3.8254e-07
5.92178e-07
9.66242e-07
1.15577e-06
8.18834e-07
2.59375e-07
0
0
2.46999e-07
1.12757e-06
7.18414e-07
0
1.38888e-07
7.08214e-07
1.91823e-07
0
0
0
0
0
0
0
0
0
0
0
0
0
0
0
0
0
0
0
0
0
0
5.42347e-07
0
5.21e-06
6.42394e-06
5.80176e-06
5.15436e-06
4.6544e-06
4.43743e-06
4.65238e-06
5.12091e-06
3.05206e-06
1.45928e-06
1.57187e-06
1.78822e-06
1.66891e-06
1.26275e-06
8.25338e-07
5.6902e-07
5.25401e-07
5.0253e-07
3.56748e-07
9.53233e-07
1.93838e-06
2.35536e-06
1.69389e-06
0
0
1.50251e-06
0
0
0
0
0
0
0
0
0
0
0
0
0
0
0
0
9.86213e-07
9.3272e-06
9.99725e-06
0
0
0
0
0
0
0
0
0
0
0
0
0
0
0
9.00556e-08
1.95371e-07
0
0
0
0
0
0
3.39004e-07
9.84266e-07
1.79199e-06
2.71864e-06
3.64994e-06
4.30483e-06
3.9811e-06
1.16217e-06
0
0
0
0
0
0
0
0
0
0
0
7.219e-08
0
0
0
1.39809e-07
0
0
0
0
0
0
4.43122e-07
4.54772e-07
2.45404e-07
1.14719e-07
6.18974e-08
4.83332e-08
8.44045e-08
1.88163e-07
2.47773e-07
1.93336e-07
3.41408e-07
8.89774e-07
1.27919e-06
1.04321e-06
3.68218e-07
0
0
0
2.56804e-07
1.63466e-07
0
0
0
0
0
0
0
0
8.42268e-09
1.0655e-07
1.3321e-07
6.60371e-08
2.41698e-08
1.54286e-07
4.45272e-07
6.46657e-07
1.58727e-07
0
0
0
0
0
0
1.25924e-07
1.14492e-06
1.91193e-06
2.12478e-06
1.43788e-06
6.13673e-07
0
0
3.01251e-07
9.35073e-07
4.80263e-07
0
3.46184e-07
1.22882e-06
8.81118e-07
0
0
0
0
0
0
0
0
0
0
0
0
0
0
0
0
0
0
0
0
0
0
3.7499e-06
2.94829e-06
3.54467e-06
7.8519e-06
7.0735e-06
6.04743e-06
5.26572e-06
4.77055e-06
4.63611e-06
4.86328e-06
4.36549e-06
2.05807e-06
1.41686e-06
1.54388e-06
1.48577e-06
1.13715e-06
6.95786e-07
3.61464e-07
2.36368e-07
1.96737e-07
4.32629e-08
4.28099e-07
1.55336e-06
1.97701e-06
9.76774e-07
0
0
1.06062e-09
6.57825e-07
0
0
0
0
0
0
0
0
0
3.06748e-08
0
0
0
0
0
2.09505e-06
9.7687e-06
1.77169e-05
1.48545e-05
8.6281e-07
0
0
0
0
0
0
0
0
0
0
0
0
0
0
0
0
0
0
0
0
1.27474e-08
1.77634e-07
3.3826e-07
4.04729e-07
3.42599e-07
9.58137e-08
0
0
0
0
0
0
0
0
0
0
0
0
0
0
0
2.50365e-07
0
0
0
0
0
0
0
0
0
4.66365e-08
4.79057e-07
3.21569e-07
1.59709e-07
8.25544e-08
4.95417e-08
4.17553e-08
7.19075e-08
1.95116e-07
3.97473e-07
4.7532e-07
6.12455e-07
7.0618e-07
3.22715e-07
0
0
0
0
0
0
0
0
0
0
0
0
0
0
0
3.52684e-08
1.0668e-07
1.13829e-08
0
0
1.76228e-07
6.80167e-07
1.04192e-06
4.70711e-07
0
0
0
0
0
0
6.90844e-07
2.17209e-06
2.92396e-06
2.54836e-06
1.83238e-06
1.20204e-06
6.56013e-07
4.31302e-07
4.04346e-07
0
0
6.05872e-07
1.8463e-06
1.72655e-06
5.27157e-07
0
0
0
0
0
0
0
0
0
0
0
0
0
0
0
0
0
0
0
0
0
0
8.06158e-06
5.05631e-06
8.43028e-06
8.56313e-06
7.05063e-06
5.89318e-06
5.13445e-06
4.75472e-06
4.70373e-06
4.65126e-06
3.15613e-06
1.56149e-06
1.3157e-06
1.26984e-06
1.04516e-06
6.95886e-07
3.1106e-07
7.69337e-08
0
0
3.34741e-08
1.05316e-06
1.17552e-06
0
1.60991e-07
6.54604e-07
7.48044e-07
7.76344e-07
0
0
0
0
0
0
0
0
0
0
0
0
0
3.23291e-07
1.78796e-06
4.71127e-06
9.01145e-06
1.14717e-05
1.0299e-05
7.59873e-06
5.95289e-06
3.80316e-06
1.58572e-06
0
0
0
4.81344e-08
1.0627e-07
1.56156e-07
2.42035e-07
3.05351e-07
2.21667e-07
0
0
0
0
0
6.92415e-08
2.58322e-07
9.37262e-08
0
0
0
0
0
0
0
0
0
0
0
0
0
0
0
0
0
0
0
0
0
0
5.82628e-09
0
0
0
2.69965e-07
1.56142e-07
0
0
0
0
2.19413e-07
2.37143e-07
1.26315e-07
7.03171e-08
5.46686e-08
4.6043e-08
3.97133e-08
4.91255e-08
1.04544e-07
2.56095e-07
3.73554e-07
1.49017e-07
0
0
0
0
0
0
0
0
0
0
0
0
0
0
0
0
0
4.80122e-08
0
0
0
0
3.07765e-07
1.06953e-06
1.6034e-06
1.01335e-06
0
0
0
0
0
0
7.95512e-07
1.94574e-06
2.21776e-06
2.07043e-06
1.75808e-06
9.14904e-07
0
0
0
0
1.0941e-06
2.80274e-06
2.78682e-06
1.48855e-06
5.20008e-07
5.78482e-08
0
0
0
0
0
0
0
0
0
0
0
0
0
0
0
0
0
0
0
0
7.04571e-06
9.69392e-06
8.53859e-06
9.91051e-06
8.18887e-06
6.63381e-06
5.57799e-06
4.9505e-06
4.65701e-06
4.5033e-06
3.85189e-06
2.06445e-06
1.10065e-06
9.12583e-07
8.16399e-07
6.52946e-07
3.44742e-07
3.76142e-08
0
0
5.28773e-08
3.24009e-07
5.61601e-07
0
6.20161e-07
1.22265e-06
6.18907e-07
7.36015e-07
0
0
0
0
0
0
0
0
0
0
0
0
3.82587e-07
1.91965e-06
3.97859e-06
6.44306e-06
8.43617e-06
8.67544e-06
7.6929e-06
6.59819e-06
6.00763e-06
5.00656e-06
2.97579e-06
1.17849e-06
0
9.35318e-08
3.50093e-07
4.61667e-07
5.19426e-07
5.98481e-07
6.76926e-07
6.2619e-07
1.70698e-07
0
0
0
0
0
4.06461e-07
2.98432e-07
0
0
0
0
0
0
0
0
0
0
0
0
0
0
0
0
1.16289e-07
2.4454e-07
4.24943e-07
3.85132e-07
6.73805e-08
0
1.10424e-07
0
0
0
2.25239e-07
9.36654e-07
3.05654e-07
0
0
1.21313e-08
2.40534e-07
1.80812e-07
8.53164e-08
4.13358e-08
3.43414e-08
4.04722e-08
4.71869e-08
5.18184e-08
5.26429e-08
7.56007e-08
1.09046e-07
0
0
0
0
0
0
0
0
0
0
0
0
0
0
0
0
0
0
0
0
0
0
0
0
5.3932e-07
1.53133e-06
2.22645e-06
1.90889e-06
0
0
0
0
0
0
0
3.0016e-07
4.34477e-07
3.05926e-07
0
0
0
0
0
2.11854e-06
4.3116e-06
3.939e-06
2.64868e-06
1.75734e-06
1.00458e-06
4.68097e-07
0
0
0
0
0
0
0
0
0
0
0
0
0
0
0
0
0
0
0
2.5256e-06
1.16798e-05
1.02344e-05
1.09038e-05
9.54223e-06
7.46622e-06
6.05039e-06
5.19687e-06
4.71802e-06
4.40054e-06
3.97404e-06
2.64974e-06
1.02722e-06
4.70164e-07
4.14184e-07
4.3251e-07
3.27673e-07
8.02338e-08
0
0
9.20184e-08
0
0
0
1.04359e-06
1.03465e-06
0
5.33467e-07
0
0
0
0
0
0
0
0
0
0
0
0
0
1.14485e-06
3.31153e-06
5.1647e-06
6.14479e-06
6.16345e-06
5.81641e-06
5.00822e-06
4.47757e-06
3.63978e-06
2.43087e-06
1.46288e-06
3.77733e-07
2.39276e-07
5.48503e-07
6.94429e-07
7.6327e-07
7.99489e-07
8.2917e-07
7.9651e-07
4.98867e-07
0
0
0
0
0
4.90097e-07
6.34319e-07
2.92384e-07
0
0
0
0
0
0
0
0
0
0
0
1.06341e-06
3.37454e-06
4.08139e-06
3.78224e-06
2.99174e-06
2.11961e-06
1.44637e-06
8.722e-07
3.48448e-07
2.03942e-07
3.07693e-07
1.45674e-07
0
0
1.72213e-07
6.47642e-07
4.96442e-07
1.23652e-07
2.66512e-07
5.9679e-07
5.85825e-07
3.65926e-07
1.70631e-07
7.68681e-08
5.12499e-08
4.69954e-08
4.41867e-08
4.46687e-08
5.31176e-08
6.76967e-08
7.55377e-08
6.65623e-08
0
0
0
0
0
0
0
0
0
0
0
0
0
0
0
0
0
0
0
0
0
0
0
0
8.04921e-07
2.02469e-06
3.08185e-06
3.55639e-06
2.59368e-06
4.52679e-07
0
0
0
0
0
0
0
0
0
0
0
9.53437e-08
3.8875e-06
5.54512e-06
4.56378e-06
3.9697e-06
3.30794e-06
2.07131e-06
1.34249e-06
5.07161e-07
0
0
0
0
0
0
0
0
0
0
0
0
0
0
0
4.95372e-07
0
0
0
1.12345e-05
1.24203e-05
1.16953e-05
1.08454e-05
8.37147e-06
6.57225e-06
5.47881e-06
4.82079e-06
4.34365e-06
3.83856e-06
2.84048e-06
1.07425e-06
9.41547e-08
0
6.37372e-08
1.66979e-07
8.92501e-08
0
0
0
0
0
0
0
0
0
0
0
0
0
0
0
0
0
0
0
0
0
0
0
3.59004e-07
2.11387e-06
3.28865e-06
3.84602e-06
3.96027e-06
3.81259e-06
3.26157e-06
2.71329e-06
2.16995e-06
1.74914e-06
1.60804e-06
1.15642e-06
5.88678e-07
7.36207e-07
8.41131e-07
8.85257e-07
8.91196e-07
8.56836e-07
8.03312e-07
6.76725e-07
3.35113e-07
0
0
0
1.41551e-07
6.70892e-07
9.73034e-07
9.04881e-07
4.90542e-07
0
0
0
0
0
0
0
0
0
0
4.57164e-06
6.14927e-06
5.52027e-06
4.32754e-06
3.14871e-06
2.14557e-06
1.43462e-06
8.75969e-07
3.44673e-07
1.51553e-07
2.63258e-07
2.60159e-07
1.31002e-07
1.11324e-07
2.66243e-07
4.14712e-07
4.06492e-07
4.0402e-07
6.1231e-07
7.47032e-07
6.52183e-07
4.79555e-07
2.9762e-07
1.63756e-07
9.16021e-08
5.81209e-08
4.48867e-08
3.93102e-08
3.62746e-08
3.60941e-08
3.17484e-08
2.22083e-08
0
0
0
0
0
0
0
0
0
0
0
0
0
0
0
0
0
0
0
0
0
0
0
0
0
1.29593e-06
2.9201e-06
4.54353e-06
6.29345e-06
7.7934e-06
8.40653e-06
7.54234e-06
6.25998e-06
4.36489e-06
4.61165e-07
0
0
0
0
0
0
1.43901e-06
5.51293e-06
5.38766e-06
5.08531e-06
5.93177e-06
4.86658e-06
3.26148e-06
2.26355e-06
1.37035e-06
9.75882e-08
0
0
0
0
0
0
0
0
0
0
0
0
0
0
2.22681e-06
4.30332e-06
1.98143e-06
8.36306e-07
1.01032e-05
1.38443e-05
1.27967e-05
1.21371e-05
9.41567e-06
7.12958e-06
5.76845e-06
4.96294e-06
4.36084e-06
3.70463e-06
2.73434e-06
1.12997e-06
0
0
0
0
2.5939e-09
0
0
0
0
0
0
0
0
0
0
0
0
0
0
0
0
0
0
0
0
0
0
0
7.56192e-07
2.05476e-06
2.67478e-06
2.83223e-06
2.75872e-06
2.51672e-06
2.13174e-06
1.70169e-06
1.45884e-06
1.48779e-06
1.73798e-06
1.88078e-06
1.22327e-06
8.90005e-07
8.92442e-07
8.74887e-07
8.50805e-07
7.99193e-07
7.12078e-07
6.04924e-07
4.50734e-07
2.03895e-07
0
0
2.18423e-07
6.30603e-07
9.99363e-07
1.15765e-06
1.03888e-06
6.46341e-07
3.05038e-08
0
0
0
0
0
0
0
9.27454e-07
5.50545e-06
5.10509e-06
3.79577e-06
2.70976e-06
1.9082e-06
1.29403e-06
9.14873e-07
6.70062e-07
3.71528e-07
1.80361e-07
2.22204e-07
4.08267e-07
6.13511e-07
6.22103e-07
5.88798e-07
5.62793e-07
5.42097e-07
6.68132e-07
9.58622e-07
8.73017e-07
5.96375e-07
3.91171e-07
2.55863e-07
1.74473e-07
1.16828e-07
7.5871e-08
5.10425e-08
3.39234e-08
2.18886e-08
1.43693e-08
6.52659e-09
0
0
0
0
0
0
0
0
0
0
0
0
0
0
0
0
0
0
0
0
0
0
0
0
0
0
1.26993e-08
2.05402e-06
4.13787e-06
6.35265e-06
8.94834e-06
1.23492e-05
1.65843e-05
2.06655e-05
2.13058e-05
9.46906e-06
0
0
0
0
0
0
4.19678e-06
5.32176e-06
5.11873e-06
5.88147e-06
8.44093e-06
6.10907e-06
4.41596e-06
3.33189e-06
2.80368e-06
1.43956e-06
0
0
0
0
0
0
0
0
0
0
0
0
0
0
1.45197e-06
7.45052e-06
7.39097e-06
5.14102e-06
9.59739e-06
1.43125e-05
1.3852e-05
1.31957e-05
1.05223e-05
7.68856e-06
6.02299e-06
5.07293e-06
4.37384e-06
3.59837e-06
2.54614e-06
1.06641e-06
0
0
0
0
0
0
0
0
0
0
0
0
0
0
0
0
0
0
0
0
0
0
0
0
0
0
0
0
1.66454e-06
2.44578e-06
2.59834e-06
2.40654e-06
2.09542e-06
1.75391e-06
1.44353e-06
1.18091e-06
1.04406e-06
1.03579e-06
1.15957e-06
1.41976e-06
1.34786e-06
8.24513e-07
7.19225e-07
7.0851e-07
6.70244e-07
6.20458e-07
5.50089e-07
4.49185e-07
3.23003e-07
1.61359e-07
0
0
0
2.27359e-07
5.88797e-07
8.91323e-07
1.03574e-06
9.62128e-07
6.71711e-07
1.88715e-07
0
0
0
0
0
0
2.39704e-06
3.44938e-06
2.43355e-06
1.65649e-06
1.18659e-06
8.39323e-07
5.57777e-07
5.14597e-07
6.27185e-07
5.18927e-07
2.60622e-07
2.73353e-07
7.5043e-07
9.60604e-07
8.55249e-07
8.51074e-07
8.92904e-07
1.00303e-06
1.25216e-06
1.10079e-06
6.7077e-07
4.13074e-07
2.73573e-07
1.80984e-07
1.21653e-07
8.49271e-08
6.02444e-08
4.58367e-08
3.76624e-08
2.74e-08
1.35772e-08
0
0
0
0
0
0
0
0
0
0
0
0
0
0
0
0
0
0
0
0
0
0
0
0
0
0
0
0
2.00413e-07
2.7445e-06
5.32884e-06
7.86695e-06
1.04164e-05
1.27263e-05
1.37403e-05
1.13082e-05
3.72222e-06
0
0
0
0
0
2.9305e-06
4.87369e-06
4.74081e-06
5.1e-06
7.46469e-06
9.99648e-06
7.43227e-06
5.56433e-06
4.93208e-06
6.08238e-06
4.54586e-06
0
0
0
0
0
0
0
0
0
0
0
0
0
0
0
8.75939e-06
1.09976e-05
9.37034e-06
1.034e-05
1.42019e-05
1.45243e-05
1.40277e-05
1.15294e-05
8.21366e-06
6.21972e-06
5.14105e-06
4.36813e-06
3.50598e-06
2.3698e-06
9.02908e-07
0
0
0
0
0
0
0
0
0
0
0
0
0
0
0
0
0
0
0
0
0
0
0
0
0
0
0
0
6.93595e-07
1.86644e-06
2.05946e-06
1.79112e-06
1.39513e-06
1.01546e-06
7.46833e-07
6.03707e-07
4.92037e-07
3.78184e-07
2.80053e-07
2.83135e-07
4.95951e-07
4.43159e-07
1.33666e-07
2.48708e-07
3.199e-07
3.35044e-07
3.07459e-07
2.42265e-07
1.40949e-07
1.05731e-08
0
0
0
0
0
1.87331e-07
4.81881e-07
6.77054e-07
7.33102e-07
6.53146e-07
4.65806e-07
2.21248e-07
0
0
8.62273e-08
1.31144e-06
9.98556e-07
2.6827e-07
1.57059e-07
1.94421e-07
2.82142e-07
2.0621e-07
1.30577e-07
4.63472e-07
9.39888e-07
8.39386e-07
4.38738e-07
5.07898e-07
1.14073e-06
1.04282e-06
9.14166e-07
9.9823e-07
1.30304e-06
1.44878e-06
9.52499e-07
5.16708e-07
3.31211e-07
2.30806e-07
1.54113e-07
9.71752e-08
6.60915e-08
5.65546e-08
4.9225e-08
3.62019e-08
2.7694e-08
2.21392e-08
1.31339e-08
0
0
0
0
0
0
0
0
0
0
0
0
0
0
0
0
0
0
0
0
0
0
0
0
0
0
0
0
0
0
2.56337e-06
5.28612e-06
7.5919e-06
8.93716e-06
8.47796e-06
5.35919e-06
0
0
0
0
0
2.59782e-06
4.38851e-06
4.2941e-06
4.43324e-06
5.42402e-06
1.12351e-05
1.12281e-05
8.65894e-06
6.84322e-06
8.34408e-06
9.31857e-06
7.44012e-06
0
0
0
0
0
0
0
0
0
0
0
2.22625e-07
0
0
0
6.40423e-06
1.32238e-05
1.2658e-05
1.19458e-05
1.39863e-05
1.46814e-05
1.46132e-05
1.23961e-05
8.65421e-06
6.34071e-06
5.1267e-06
4.27367e-06
3.35271e-06
2.16277e-06
6.71955e-07
0
0
0
0
0
9.256e-08
7.84591e-09
0
0
0
0
0
0
0
0
0
0
0
0
0
2.78762e-07
8.91334e-07
8.88416e-07
6.81299e-07
1.85316e-07
0
0
0
0
1.10348e-06
1.55537e-06
1.23269e-06
7.19413e-07
3.01655e-07
5.22425e-08
0
0
0
0
0
0
0
0
0
0
0
0
0
0
0
0
0
0
0
0
0
0
0
2.05558e-07
4.03038e-07
5.73817e-07
7.63462e-07
1.07684e-06
1.63193e-06
2.53631e-06
2.74067e-06
0
0
0
0
0
0
4.15759e-08
8.89821e-07
1.49858e-06
1.08805e-06
3.71206e-07
9.85413e-07
1.67838e-06
1.18994e-06
1.06761e-06
1.60179e-06
1.68256e-06
8.49804e-07
4.2873e-07
3.083e-07
2.68739e-07
2.17615e-07
1.47193e-07
8.0987e-08
4.4489e-08
4.23904e-08
4.94321e-08
4.03442e-08
2.10926e-08
1.12136e-08
7.09541e-09
0
0
0
0
0
0
0
0
0
0
0
0
0
0
0
0
0
0
0
0
0
0
0
0
0
0
0
0
0
0
0
6.64843e-07
2.47095e-06
3.44959e-06
2.99021e-06
1.02065e-06
0
0
0
1.33401e-07
2.77194e-06
3.889e-06
3.77515e-06
3.85673e-06
4.2748e-06
7.06198e-06
1.4741e-05
1.2546e-05
1.0048e-05
9.27011e-06
8.7084e-06
4.05271e-06
0
0
0
0
0
0
0
0
0
0
8.90663e-08
4.64925e-06
6.74988e-06
3.85099e-06
0
0
0
1.3617e-05
1.48045e-05
1.38291e-05
1.38227e-05
1.4302e-05
1.49075e-05
1.30181e-05
9.02411e-06
6.36657e-06
5.01425e-06
4.13684e-06
3.2134e-06
1.98863e-06
4.23223e-07
0
0
0
0
0
2.80045e-07
9.77554e-08
0
0
0
0
0
0
0
0
0
0
0
0
1.81335e-08
2.09072e-06
2.216e-06
1.81281e-06
1.52308e-06
1.52203e-06
1.16142e-06
0
0
0
8.00169e-07
7.29886e-07
4.72729e-07
7.72605e-08
0
0
0
0
0
0
0
0
0
0
0
0
0
0
0
0
0
0
0
0
0
0
0
0
0
0
0
1.86358e-07
5.78796e-07
1.13939e-06
1.93807e-06
2.85132e-06
2.43484e-06
0
0
0
0
0
0
2.34634e-07
1.6817e-06
1.9067e-06
8.34228e-07
0
2.46109e-06
2.76202e-06
1.72831e-06
2.11347e-06
2.02088e-06
9.18649e-07
4.55367e-07
2.95678e-07
2.64363e-07
2.44645e-07
1.97379e-07
1.39868e-07
9.14957e-08
6.18429e-08
5.31556e-08
5.90893e-08
5.75029e-08
3.11268e-08
4.49739e-09
0
0
0
0
0
0
0
0
0
0
0
0
0
0
0
0
0
0
0
0
0
0
0
0
0
0
0
0
0
0
0
0
0
0
0
0
0
0
1.95822e-07
1.35734e-06
2.72971e-06
3.26224e-06
3.15165e-06
3.27154e-06
3.53004e-06
4.20847e-06
1.47527e-05
1.60936e-05
1.44827e-05
1.17633e-05
9.58464e-06
6.01741e-06
1.87939e-06
0
0
0
0
0
0
0
0
0
0