/*--------------------------------*- C++ -*----------------------------------*\
  =========                 |
  \\      /  F ield         | OpenFOAM: The Open Source CFD Toolbox
   \\    /   O peration     | Website:  https://openfoam.org
    \\  /    A nd           | Version:  9
     \\/     M anipulation  |
\*---------------------------------------------------------------------------*/
FoamFile
{
    format      ascii;
    class       volScalarField;
    location    "0.066";
    object      k;
}
// * * * * * * * * * * * * * * * * * * * * * * * * * * * * * * * * * * * * * //

dimensions      [0 2 -2 0 0 0 0];

internalField   nonuniform List<scalar> 
12225
(
5.14138e-05
7.20065e-05
6.47187e-05
4.2942e-05
3.995e-05
4.6253e-05
5.72291e-05
6.16802e-05
6.45719e-05
7.05674e-05
8.44763e-05
9.29355e-05
9.45531e-05
9.25633e-05
7.89661e-05
5.29575e-05
3.74798e-05
3.60989e-05
2.09743e-05
2.36836e-05
2.36229e-05
2.27643e-05
2.28742e-05
2.47425e-05
2.8794e-05
3.15734e-05
3.34974e-05
3.59623e-05
4.14409e-05
5.09636e-05
5.88863e-05
6.29136e-05
6.31422e-05
6.20381e-05
5.93223e-05
4.86925e-05
2.00418e-05
1.81149e-05
1.68026e-05
1.68877e-05
1.74446e-05
1.77348e-05
1.76588e-05
1.70072e-05
1.66819e-05
1.67376e-05
1.70927e-05
1.85083e-05
2.0741e-05
2.21709e-05
2.50195e-05
2.79403e-05
2.92981e-05
2.93956e-05
2.00316e-05
1.9982e-05
1.98728e-05
1.97427e-05
1.97064e-05
1.96667e-05
1.9538e-05
1.9107e-05
1.78099e-05
1.33356e-05
1.01165e-05
9.605e-06
9.95421e-06
1.07901e-05
1.13683e-05
1.20249e-05
1.33778e-05
1.60654e-05
2.07784e-05
2.0643e-05
2.08374e-05
2.11371e-05
2.21383e-05
2.32686e-05
2.37563e-05
2.37093e-05
2.26179e-05
2.00803e-05
1.8834e-05
1.85373e-05
1.85603e-05
1.88376e-05
1.98288e-05
2.36529e-05
3.69133e-05
4.47245e-05
2.00185e-05
2.00629e-05
2.03204e-05
2.18861e-05
2.40473e-05
2.40784e-05
2.37366e-05
2.31184e-05
2.21283e-05
2.13522e-05
2.10759e-05
2.10999e-05
2.15895e-05
2.41629e-05
3.40218e-05
6.79193e-05
0.00010068
0.000112169
2.00881e-05
2.03195e-05
2.03978e-05
2.05408e-05
2.13397e-05
2.32591e-05
2.46326e-05
2.50349e-05
2.4953e-05
2.44217e-05
2.31602e-05
2.27941e-05
2.31356e-05
2.45244e-05
2.77615e-05
3.65843e-05
5.97477e-05
8.01489e-05
2.16531e-05
2.66242e-05
2.68899e-05
2.42433e-05
2.18102e-05
2.16702e-05
2.34087e-05
3.16544e-05
3.74534e-05
3.77171e-05
3.42078e-05
2.83771e-05
2.55299e-05
2.41575e-05
2.38238e-05
2.42128e-05
2.60365e-05
3.17143e-05
2.09206e-05
2.30084e-05
2.3047e-05
2.21869e-05
2.13617e-05
2.1091e-05
2.18518e-05
2.71341e-05
4.68079e-05
6.08742e-05
6.29175e-05
5.92401e-05
4.4106e-05
3.24669e-05
2.67371e-05
2.42249e-05
2.34502e-05
2.3487e-05
2.11077e-05
2.24174e-05
2.23444e-05
2.1627e-05
2.15514e-05
2.20117e-05
2.37293e-05
3.05432e-05
3.84413e-05
4.07285e-05
4.07439e-05
3.75811e-05
3.0354e-05
2.64405e-05
2.46595e-05
2.40099e-05
2.3893e-05
2.39008e-05
2.08297e-05
2.15255e-05
2.19012e-05
2.13188e-05
2.12766e-05
2.36397e-05
2.88237e-05
2.87249e-05
2.7572e-05
2.55669e-05
2.43294e-05
2.37237e-05
2.36035e-05
2.39663e-05
2.67203e-05
3.48043e-05
3.85364e-05
3.86114e-05
2.22995e-05
2.19852e-05
2.26478e-05
2.23432e-05
2.18852e-05
2.27993e-05
2.90775e-05
3.6878e-05
3.74912e-05
3.47874e-05
2.89822e-05
2.63938e-05
2.5947e-05
2.6504e-05
3.08978e-05
3.82888e-05
4.15026e-05
4.26612e-05
2.12063e-05
2.50737e-05
2.45371e-05
2.24083e-05
2.22154e-05
2.24151e-05
2.35572e-05
2.43095e-05
2.43651e-05
2.40004e-05
2.36136e-05
2.36562e-05
2.43273e-05
2.7631e-05
3.44987e-05
3.86481e-05
3.94922e-05
3.94912e-05
2.07276e-05
2.15079e-05
2.92246e-05
3.49201e-05
3.16526e-05
2.44886e-05
2.18729e-05
2.12731e-05
2.13367e-05
2.22842e-05
2.74442e-05
4.37403e-05
5.23714e-05
5.33224e-05
5.21148e-05
4.64498e-05
3.79355e-05
3.31118e-05
2.05787e-05
2.21035e-05
2.64569e-05
3.53817e-05
4.12534e-05
4.01768e-05
3.1729e-05
2.58279e-05
2.44064e-05
2.47224e-05
2.82943e-05
4.67176e-05
7.18839e-05
8.19899e-05
8.20514e-05
7.12003e-05
4.87902e-05
3.65557e-05
2.02241e-05
2.0574e-05
2.1458e-05
2.64525e-05
3.5387e-05
4.45302e-05
5.14751e-05
5.22361e-05
4.66087e-05
3.53319e-05
3.15098e-05
3.13882e-05
3.26529e-05
3.40273e-05
3.42241e-05
3.38937e-05
3.23798e-05
3.03416e-05
2.07511e-05
2.10135e-05
2.47221e-05
3.86066e-05
4.25388e-05
3.92932e-05
3.26546e-05
2.8583e-05
2.60985e-05
2.46754e-05
2.41019e-05
2.39501e-05
2.37717e-05
2.336e-05
2.30704e-05
2.29214e-05
2.285e-05
2.28688e-05
2.0835e-05
2.11588e-05
2.26752e-05
2.39344e-05
2.51227e-05
2.68361e-05
3.08951e-05
3.45939e-05
3.53207e-05
3.42904e-05
2.9659e-05
2.57004e-05
2.34449e-05
2.20228e-05
2.12633e-05
2.0894e-05
2.07331e-05
2.06886e-05
2.08625e-05
2.09401e-05
2.0848e-05
2.07134e-05
2.07753e-05
2.10187e-05
2.15076e-05
2.17565e-05
2.17636e-05
2.17461e-05
2.1787e-05
2.17707e-05
2.15506e-05
2.14157e-05
2.13864e-05
2.13929e-05
2.14461e-05
2.14805e-05
2.20372e-05
2.17724e-05
2.06917e-05
2.03862e-05
2.03587e-05
2.03719e-05
2.03987e-05
2.04924e-05
2.10852e-05
2.17674e-05
2.17867e-05
2.15318e-05
2.12986e-05
2.12226e-05
2.12041e-05
2.12029e-05
2.12097e-05
2.12333e-05
2.22848e-05
2.21378e-05
2.09272e-05
2.06094e-05
2.1006e-05
2.10515e-05
2.08707e-05
2.08471e-05
2.09065e-05
2.10496e-05
2.13123e-05
2.1917e-05
2.36441e-05
2.5384e-05
2.61896e-05
2.62113e-05
2.59029e-05
2.47899e-05
2.09798e-05
2.23041e-05
2.29367e-05
2.29533e-05
2.32972e-05
2.37279e-05
2.36065e-05
2.36124e-05
2.357e-05
2.31981e-05
2.25799e-05
2.23828e-05
2.23977e-05
2.26383e-05
2.36929e-05
2.81201e-05
3.93298e-05
4.61652e-05
2.11287e-05
2.33649e-05
2.34758e-05
2.21457e-05
2.1458e-05
2.1537e-05
2.22897e-05
2.49794e-05
2.69314e-05
2.74751e-05
2.7464e-05
2.72755e-05
2.71334e-05
2.7109e-05
2.71588e-05
2.74614e-05
2.83885e-05
3.15374e-05
2.1392e-05
2.1983e-05
2.19558e-05
2.13348e-05
2.08254e-05
2.08287e-05
2.13652e-05
2.43354e-05
3.04812e-05
3.26305e-05
3.22764e-05
2.90433e-05
2.53843e-05
2.34174e-05
2.24119e-05
2.19496e-05
2.18178e-05
2.18396e-05
2.00943e-05
2.01514e-05
2.03165e-05
2.05054e-05
2.06309e-05
2.08451e-05
2.14353e-05
2.21422e-05
2.24893e-05
2.25582e-05
2.25154e-05
2.21822e-05
2.15898e-05
2.12152e-05
2.1004e-05
2.08979e-05
2.08529e-05
2.08445e-05
2.17774e-05
2.11696e-05
2.0468e-05
2.06263e-05
2.1131e-05
2.11656e-05
2.10426e-05
2.08272e-05
2.07665e-05
2.07721e-05
2.08539e-05
2.09874e-05
2.10528e-05
2.10703e-05
2.1068e-05
2.10408e-05
2.08938e-05
2.0663e-05
2.01362e-05
2.02524e-05
2.02254e-05
2.0047e-05
1.98945e-05
1.98355e-05
1.98209e-05
1.98402e-05
1.99727e-05
2.01661e-05
2.02598e-05
2.02787e-05
2.0263e-05
2.01498e-05
1.9729e-05
1.84273e-05
1.48168e-05
1.13407e-05
2.00134e-05
1.77534e-05
1.66691e-05
1.45696e-05
1.35229e-05
1.33697e-05
1.34299e-05
1.36961e-05
1.45058e-05
1.5776e-05
1.6954e-05
1.77965e-05
1.82339e-05
1.84028e-05
1.84474e-05
1.84464e-05
1.83855e-05
1.80295e-05
2.028e-05
2.11419e-05
2.36548e-05
3.13577e-05
3.65585e-05
3.71823e-05
3.49514e-05
2.93179e-05
2.73726e-05
2.74651e-05
2.99403e-05
3.78254e-05
4.33416e-05
4.60133e-05
4.6992e-05
4.70877e-05
4.67177e-05
4.51487e-05
6.11044e-05
5.58307e-05
8.48339e-05
0.000172595
0.000204134
0.000199294
0.000146192
8.36284e-05
6.49111e-05
6.5425e-05
8.403e-05
0.000117329
0.000133122
0.000137166
0.000136542
0.000129215
0.000100735
7.12105e-05
0.0730478
0.132633
0.14269
0.144932
0.134179
0.144898
0.14472
0.140717
0.130133
0.121316
0.115904
0.112044
0.108098
0.105996
0.103727
0.101371
0.100101
0.0977522
0.0964167
0.0946986
0.0925023
0.0924231
0.0926372
0.0927462
0.0934522
0.0923512
0.0869486
0.0643884
0.0595735
0.0649429
0.071583
0.0876331
0.14196
0.189687
0.218162
0.238101
0.2401
0.228212
0.171869
0.198667
0.266663
0.187704
0.142338
0.127211
0.114714
0.100167
0.0866074
0.0755443
0.0698985
0.0636703
0.0613717
0.0603933
0.0603282
0.0633419
0.0706081
0.0758112
0.081155
0.0878964
0.0945635
0.102032
0.10954
0.117589
0.127705
0.136704
0.138573
0.138647
0.139224
0.139955
0.139801
0.138766
0.136146
0.130209
0.132285
0.140754
0.157401
0.187402
0.260232
0.365452
0.389773
0.364971
0.327057
0.311227
0.198436
0.0733606
0.058559
0.0485635
0.0387633
0.034534
0.0260504
0.0227003
0.0191748
0.016535
0.0154042
0.014975
0.0149778
0.0149797
0.0149254
0.014842
0.0146776
0.0145854
0.0144616
0.0142973
0.014143
0.0139688
0.013773
0.0135872
0.0134403
0.0132537
0.0130496
0.0129186
0.0128129
0.012499
0.0121596
0.0119281
0.0116603
0.0113532
0.0110684
0.0108295
0.010682
0.0104629
0.0103429
0.0102103
0.0101253
0.0101573
0.0102641
0.0104703
0.0108683
0.0110455
0.011039
0.0109455
0.0107978
0.0107276
0.0107571
0.010916
0.0111523
0.011354
0.011511
0.0115959
0.0116162
0.0116023
0.0115143
0.0112809
0.0109941
0.0106742
0.0103468
0.0100356
0.00975943
0.00954592
0.00941139
0.00938359
0.00940317
0.00944051
0.00950043
0.00960876
0.00969592
0.00984996
0.00997308
0.0101632
0.0103476
0.0105555
0.0116169
0.0119471
0.00655881
0.00294095
0.00766651
0.0204748
0.0163153
0.00573636
0.00222122
0.00185853
0.00192972
0.00195718
0.00198632
0.00208553
0.00240461
0.00268534
0.00206015
0.000967942
0.000491013
0.00048587
0.141246
0.128734
0.167482
0.155626
0.121939
0.0908964
0.0773132
0.0731777
0.0713842
0.0715472
0.0719462
0.0725568
0.0733607
0.074013
0.0745088
0.0750663
0.0755999
0.0758534
0.0760245
0.0763837
0.0768861
0.0774096
0.0782171
0.0791339
0.0803087
0.0836513
0.0838706
0.0816101
0.0790001
0.0760111
0.069897
0.0666695
0.0695483
0.0961319
0.173543
0.224702
0.206457
0.232539
0.241271
0.22504
0.197679
0.132292
0.10763
0.085487
0.0651014
0.0527904
0.0449285
0.042334
0.0417968
0.0437909
0.0512991
0.059168
0.0642913
0.070253
0.078035
0.0857346
0.0933306
0.102331
0.113061
0.124636
0.136668
0.150312
0.164001
0.172856
0.176441
0.178126
0.180673
0.183909
0.187125
0.189403
0.189753
0.187411
0.182787
0.176655
0.17287
0.174762
0.216255
0.266939
0.263118
0.225135
0.17668
0.13377
0.0745458
0.0432092
0.0333425
0.0261901
0.0231378
0.0215195
0.0205341
0.0202282
0.0201284
0.02014
0.0204689
0.020639
0.0209145
0.0210346
0.0210694
0.0209453
0.020589
0.0202507
0.0198309
0.0193109
0.0187038
0.018042
0.017255
0.0163746
0.0158291
0.015248
0.0146606
0.0143417
0.0139438
0.0137825
0.0136029
0.0134576
0.013279
0.0131251
0.0127812
0.0122924
0.0118687
0.0112548
0.010673
0.0100879
0.00952495
0.00903419
0.00854944
0.00814314
0.00782032
0.0074991
0.00715949
0.0068356
0.006564
0.00634974
0.00618653
0.00607312
0.00600444
0.00597479
0.00597439
0.00601196
0.00604373
0.00604362
0.00603599
0.00601878
0.00597896
0.00595181
0.00595072
0.00597398
0.00605778
0.00624805
0.00640635
0.00654613
0.00673764
0.00689973
0.00701804
0.00715234
0.00723801
0.0073503
0.00742499
0.00751477
0.00777409
0.00808702
0.0090471
0.0111027
0.0110861
0.00987256
0.00974732
0.0141411
0.0101185
0.00711663
0.00612435
0.00555358
0.00503576
0.00457608
0.00437463
0.0044006
0.00471913
0.00581355
0.00687509
0.00688335
0.00512696
0.00215758
0.0874839
0.21355
0.179318
0.10498
0.0581429
0.0527443
0.0549656
0.0598387
0.0647744
0.0683344
0.07046
0.0719072
0.0733444
0.0742287
0.0750064
0.0769041
0.0785888
0.0797776
0.082427
0.0843351
0.0844458
0.0840713
0.0829034
0.0812682
0.079571
0.0789212
0.0789012
0.0790852
0.0798661
0.0798329
0.0777864
0.0750243
0.0773353
0.116111
0.200054
0.210645
0.219766
0.227421
0.2117
0.145862
0.0897709
0.0661232
0.0477244
0.033702
0.0279179
0.0257901
0.0255277
0.0291092
0.036063
0.0414892
0.0464769
0.0513923
0.0543373
0.0571322
0.0612511
0.0672375
0.0757086
0.0870496
0.101447
0.117481
0.132672
0.147376
0.160573
0.170886
0.178197
0.182178
0.185075
0.189478
0.19392
0.197386
0.199633
0.201019
0.199771
0.195194
0.184965
0.173929
0.193415
0.220812
0.212501
0.147665
0.0789365
0.0541093
0.0341799
0.0268048
0.0242626
0.0232652
0.0230269
0.0230089
0.023807
0.0252269
0.0265836
0.0283743
0.029971
0.0318037
0.0334516
0.0346773
0.0355773
0.0359811
0.036106
0.0357254
0.0347448
0.0334007
0.0314932
0.0293896
0.0271288
0.0239988
0.0215642
0.0191025
0.0168585
0.015456
0.0139448
0.0132695
0.0127378
0.0124164
0.0123441
0.0124674
0.0126605
0.0128059
0.0128551
0.0127108
0.0123178
0.0117963
0.0111797
0.0105218
0.00982536
0.0091657
0.00852442
0.00785323
0.00724669
0.00676515
0.0063911
0.00609588
0.00586246
0.00567105
0.00551135
0.00538429
0.00529535
0.00523942
0.00520841
0.00520306
0.00520648
0.00522204
0.00525862
0.00531029
0.00539325
0.00555814
0.0058554
0.00606814
0.00620946
0.00627949
0.00633389
0.00633138
0.00631426
0.00627399
0.00622698
0.00610735
0.00607552
0.0059894
0.00600889
0.00608263
0.00631458
0.00715782
0.00966316
0.0101979
0.0135635
0.0120685
0.00810982
0.00865308
0.00946375
0.00945706
0.00831796
0.00618178
0.00482709
0.00431487
0.00406872
0.00406807
0.00421716
0.00406817
0.0035048
0.00325974
0.116143
0.0965031
0.0472337
0.0314335
0.0351484
0.0473731
0.0633594
0.0719328
0.0746244
0.0754372
0.0756163
0.0754204
0.0753998
0.0757406
0.0763341
0.0775865
0.0803112
0.0826302
0.0859171
0.0909803
0.0949644
0.0959067
0.0954352
0.093461
0.0880954
0.082191
0.0796703
0.0786046
0.0787392
0.0790588
0.0784097
0.0769647
0.0841816
0.155259
0.202977
0.206685
0.215263
0.202721
0.128877
0.0671708
0.0430713
0.0304589
0.0219398
0.0189441
0.0183397
0.0196261
0.0247617
0.0296899
0.0321513
0.0327284
0.0322435
0.0304235
0.0298679
0.0298908
0.0316901
0.0350869
0.0392974
0.0455201
0.0549169
0.0695485
0.0903735
0.11276
0.134087
0.153516
0.167515
0.176782
0.183183
0.188641
0.19332
0.196112
0.199265
0.201213
0.200505
0.193034
0.179874
0.175164
0.190065
0.196903
0.153088
0.0702175
0.0432736
0.0318481
0.0268605
0.0255159
0.0252385
0.0259314
0.0288071
0.0332129
0.0395316
0.0456916
0.0496111
0.0534601
0.0560523
0.0573582
0.0584804
0.0591177
0.0594372
0.0595419
0.0593113
0.0587623
0.0579115
0.0568262
0.0553602
0.0536096
0.0507965
0.0463129
0.0407038
0.0339453
0.0275067
0.0226622
0.0182723
0.0155583
0.01358
0.0122777
0.0114246
0.0108443
0.0104645
0.010198
0.0101185
0.0102227
0.0104493
0.0105565
0.0105438
0.0103247
0.00979795
0.00919701
0.00862556
0.00808301
0.00753946
0.00700659
0.00651962
0.0061415
0.00588776
0.00574427
0.00569871
0.00570636
0.00573941
0.00578384
0.00584342
0.00592938
0.00598465
0.00611003
0.0062245
0.00633532
0.00663156
0.00679557
0.00672675
0.00656801
0.00637427
0.00621968
0.00586703
0.00565004
0.00546628
0.00532094
0.00528322
0.0052951
0.00537264
0.0056226
0.00634256
0.00661602
0.0070813
0.00728293
0.00777823
0.0090728
0.0120887
0.0112355
0.00854576
0.00855721
0.00944391
0.010846
0.0118753
0.0120432
0.0094129
0.00655205
0.00509487
0.00436247
0.00400248
0.00378758
0.00384753
0.00403439
0.0327348
0.0295305
0.0217225
0.0257101
0.0487876
0.0705912
0.0754968
0.0759838
0.0757194
0.0752138
0.0737837
0.0721983
0.0716046
0.0715729
0.0718628
0.0732688
0.075851
0.0774144
0.0799341
0.0866516
0.0943528
0.0985879
0.0995511
0.0992892
0.0974399
0.0911413
0.0831989
0.0790595
0.0782778
0.0784499
0.0779644
0.0784573
0.102841
0.180877
0.200687
0.203598
0.202135
0.144974
0.061698
0.0333308
0.0215557
0.0161955
0.0142076
0.0139498
0.0156512
0.0200288
0.0238612
0.0250608
0.0243377
0.022002
0.0213947
0.0212307
0.0215129
0.0227255
0.0238049
0.0247918
0.0268821
0.029697
0.0338291
0.0409828
0.0527671
0.0715701
0.0959866
0.120937
0.143519
0.160739
0.172449
0.179297
0.183452
0.185587
0.187387
0.189002
0.1893
0.181807
0.177244
0.178637
0.182177
0.165485
0.0845286
0.0429199
0.0316231
0.0279761
0.0271119
0.0270994
0.0301334
0.0364935
0.0470185
0.0550371
0.058927
0.0622839
0.0638337
0.0651854
0.0663046
0.0670951
0.067955
0.0683801
0.0685595
0.0685078
0.0679298
0.066996
0.0659315
0.0649104
0.0635662
0.0627647
0.0613664
0.0597832
0.0571163
0.0522874
0.0437427
0.0343108
0.0269806
0.0209523
0.0166163
0.0139103
0.0123782
0.0113822
0.0106327
0.0100462
0.00953845
0.00908521
0.00871321
0.00837918
0.00810783
0.00791293
0.00769743
0.00733208
0.00696746
0.00671634
0.00656533
0.00644903
0.00624644
0.00605342
0.00600025
0.0060249
0.00616038
0.00641739
0.00675572
0.00701909
0.00729599
0.00764794
0.00782126
0.00823807
0.00848996
0.00837564
0.00791106
0.00736997
0.00682828
0.00605901
0.00511382
0.00444649
0.00428605
0.00433645
0.00455411
0.00460062
0.00451509
0.00423752
0.00382774
0.00359158
0.00365563
0.00402149
0.00544555
0.00690028
0.0073568
0.00799438
0.0099285
0.0102062
0.00967997
0.00931628
0.00952811
0.00994803
0.0110618
0.0138115
0.0142125
0.0119972
0.00789108
0.00559949
0.00450702
0.00417104
0.00435791
0.0045518
0.0232153
0.0257455
0.0204833
0.0355365
0.0691782
0.0766183
0.0764798
0.0749219
0.0722158
0.0715509
0.0716329
0.0715106
0.0715726
0.0717944
0.0724818
0.0742041
0.0761024
0.0770133
0.0774994
0.0788941
0.0848639
0.0938019
0.097801
0.098464
0.0972285
0.0911543
0.0830709
0.0787023
0.0774417
0.0768779
0.0773509
0.0840181
0.143139
0.187071
0.194638
0.197933
0.177591
0.0814949
0.0321739
0.0181168
0.0131038
0.0115362
0.0113218
0.0125722
0.0158652
0.0188715
0.0196851
0.0192424
0.01869
0.0184878
0.0186334
0.0195137
0.020144
0.0206372
0.0209874
0.0214013
0.0219178
0.0227502
0.0242182
0.027059
0.0321579
0.0412422
0.0579732
0.083819
0.114064
0.13928
0.158974
0.172497
0.178857
0.181055
0.181517
0.180931
0.178683
0.177671
0.175991
0.175013
0.16497
0.111606
0.0497488
0.0334168
0.0293816
0.0285781
0.0288757
0.0332597
0.0439714
0.0570583
0.0623935
0.0654889
0.0669591
0.0678532
0.0683793
0.0690746
0.0703411
0.0722895
0.0750741
0.07794
0.0794491
0.08004
0.0796576
0.076395
0.0727649
0.070189
0.0674266
0.0661707
0.0649431
0.063892
0.0624517
0.0596395
0.0537737
0.0420987
0.0314538
0.0232335
0.0174355
0.0141195
0.0124056
0.0115056
0.0109094
0.0104508
0.0100592
0.00963598
0.00907728
0.00844577
0.00789044
0.00742684
0.00698924
0.00655368
0.00614901
0.00583101
0.00565343
0.00560498
0.00561082
0.00565974
0.00580702
0.00620904
0.00710575
0.0080241
0.00905604
0.0100478
0.0108192
0.0115362
0.0118537
0.0116638
0.0107128
0.00934888
0.00811843
0.00678419
0.00508972
0.00370748
0.00353066
0.00378987
0.00458521
0.00623047
0.00901013
0.0099326
0.00974407
0.0090405
0.00743102
0.00492784
0.0033443
0.00292016
0.00306286
0.00433253
0.00628525
0.00713182
0.00845718
0.00958004
0.00962576
0.00964934
0.00976614
0.00997419
0.0106886
0.0137778
0.0164365
0.0163581
0.0132877
0.00828791
0.00574287
0.00477435
0.0047733
0.00507603
0.0227938
0.0263172
0.0202236
0.0540487
0.0768001
0.0776871
0.0745789
0.0695165
0.0692679
0.0697064
0.0708827
0.0732
0.075947
0.0789333
0.0823867
0.0830053
0.0826216
0.0813434
0.0784201
0.0777962
0.0791084
0.0845485
0.090947
0.0937734
0.092872
0.0868269
0.0799035
0.0761011
0.0750856
0.0759196
0.0796091
0.111089
0.169924
0.186768
0.18911
0.186628
0.135594
0.0436449
0.0183048
0.0118316
0.0100933
0.00982257
0.0104765
0.0125731
0.0154693
0.0166803
0.0169596
0.0170706
0.0173409
0.0180836
0.018884
0.0196542
0.0199761
0.0201026
0.0201612
0.0201767
0.0201547
0.0201578
0.0204119
0.0211556
0.0226735
0.0258175
0.0320154
0.0437557
0.0657625
0.0997895
0.130138
0.150526
0.168402
0.176687
0.179551
0.180028
0.178505
0.174707
0.171931
0.162399
0.130346
0.0636666
0.0376202
0.0312999
0.0301881
0.0305097
0.0352455
0.0481231
0.0611471
0.0663135
0.0685468
0.0694949
0.0698292
0.0699278
0.0703518
0.0718631
0.0755132
0.0828458
0.0937501
0.104621
0.110345
0.112716
0.113111
0.106889
0.0947896
0.0851122
0.0756819
0.0704519
0.06735
0.06578
0.0645213
0.0627229
0.059233
0.0496872
0.0354484
0.024581
0.0174991
0.0126686
0.0102679
0.00971743
0.00965885
0.00977162
0.00987312
0.00985703
0.00972479
0.00946179
0.00894463
0.00820401
0.00744707
0.00681222
0.00627149
0.00584442
0.00556182
0.00542605
0.00539797
0.00542322
0.00560127
0.00628052
0.00817399
0.0105459
0.0125134
0.0135758
0.0139929
0.0140215
0.0138067
0.0129361
0.0109069
0.00905925
0.00615772
0.0036095
0.00282861
0.00297068
0.00396072
0.00752597
0.0144218
0.0231693
0.033978
0.0378722
0.0373191
0.0348583
0.0291429
0.0196979
0.0109025
0.00558521
0.00341887
0.00317026
0.00363372
0.00550975
0.00730743
0.0085636
0.00928458
0.00956324
0.00972444
0.00990341
0.0105988
0.0127072
0.0171417
0.0185189
0.0176482
0.0123588
0.00726961
0.0052744
0.0050415
0.0052878
0.022857
0.0284544
0.0214654
0.0683257
0.079121
0.0766361
0.0681473
0.0654266
0.0653647
0.0664545
0.0705702
0.0778952
0.0865295
0.0934338
0.0986
0.0990724
0.0981232
0.0948332
0.0858257
0.0805673
0.0792626
0.079995
0.0812147
0.0812913
0.0793605
0.076109
0.0742461
0.0738976
0.0746039
0.0779875
0.0981867
0.151362
0.176972
0.183431
0.183052
0.164738
0.0741725
0.0240702
0.0121613
0.00959352
0.00916109
0.00937088
0.0104963
0.0126267
0.0150342
0.0159854
0.0164041
0.0168738
0.0177122
0.0192174
0.0204024
0.0206949
0.0207188
0.020437
0.0199682
0.0197967
0.01967
0.0195162
0.0194785
0.0194777
0.0196144
0.0203864
0.0221883
0.02626
0.0346981
0.0512172
0.0806743
0.114053
0.132587
0.154378
0.166716
0.17111
0.172129
0.16884
0.15781
0.135132
0.0839046
0.0460104
0.0348235
0.0323194
0.0323229
0.0362826
0.0463974
0.0613788
0.0687325
0.0712119
0.0719614
0.0720114
0.0704774
0.0700426
0.0704144
0.0727086
0.0792489
0.091546
0.108176
0.126001
0.135606
0.139467
0.140353
0.137783
0.129763
0.11446
0.0945866
0.0805111
0.0717897
0.0674827
0.0652855
0.063741
0.0613098
0.0555804
0.0403177
0.0254825
0.0154804
0.00915678
0.00580898
0.005202
0.00548728
0.00640789
0.00772011
0.00870509
0.00929201
0.00953143
0.00956847
0.00950306
0.00918223
0.00842084
0.00754287
0.00667493
0.00598591
0.00556339
0.00540517
0.00540251
0.0055625
0.00642481
0.00945696
0.0125495
0.014152
0.0146539
0.0146746
0.0145484
0.01407
0.0126528
0.0094066
0.00500792
0.0026668
0.00224351
0.00260116
0.0048802
0.0122754
0.0317667
0.0571157
0.0818764
0.106208
0.11484
0.113967
0.108897
0.0963925
0.0727885
0.0453444
0.0231557
0.0102309
0.00488686
0.00371742
0.00385989
0.00515455
0.00734077
0.00842057
0.00916943
0.00933927
0.00968184
0.0105552
0.0120737
0.0161383
0.0196379
0.0197959
0.016865
0.00942484
0.00590351
0.00521212
0.00528303
0.0232126
0.0315138
0.0286151
0.0754352
0.0792978
0.0705421
0.0604465
0.0581446
0.0586498
0.0642195
0.0742379
0.0864644
0.0979047
0.106894
0.111847
0.112562
0.11089
0.106049
0.093391
0.0826707
0.0782031
0.0754559
0.0741029
0.0738465
0.0740118
0.0741909
0.0745038
0.0758243
0.0804629
0.100846
0.141937
0.168275
0.176982
0.178758
0.169954
0.120933
0.0383431
0.0148693
0.00988712
0.00907252
0.00904468
0.0095157
0.0109012
0.0131486
0.0150934
0.0159406
0.0165197
0.0175229
0.0195325
0.0212653
0.0216298
0.0216443
0.021085
0.0206422
0.0204415
0.0202513
0.0200042
0.0198414
0.0197466
0.0194037
0.0192511
0.0192385
0.0195159
0.0204345
0.0228324
0.028869
0.0418682
0.0656796
0.0942521
0.108199
0.127721
0.140341
0.144659
0.144786
0.12834
0.0929614
0.0565615
0.040659
0.0354104
0.0341158
0.0352329
0.0426754
0.0582455
0.0706684
0.0745098
0.0753864
0.0753307
0.0734833
0.0701423
0.0686076
0.0685154
0.0695446
0.0736641
0.0821838
0.0964165
0.117759
0.135947
0.142853
0.144629
0.14357
0.139565
0.129243
0.107233
0.0877879
0.0752313
0.0684538
0.0655095
0.0639239
0.06178
0.0572462
0.0440211
0.0261174
0.0142339
0.00757139
0.00405454
0.00247793
0.00211613
0.00226579
0.00309085
0.00508463
0.00697739
0.00827211
0.00908384
0.0095446
0.00978896
0.00988715
0.00980831
0.00915506
0.00772125
0.00652243
0.00589025
0.00574021
0.00586578
0.00686137
0.0102859
0.013188
0.0144702
0.0147702
0.0147278
0.0143734
0.0131155
0.00935176
0.00448151
0.00220486
0.0018012
0.00225494
0.00556733
0.017988
0.0503072
0.109231
0.156408
0.17912
0.189281
0.189136
0.187533
0.183545
0.176824
0.16462
0.134009
0.0813614
0.0392788
0.0161507
0.00679607
0.00435159
0.00431044
0.00503346
0.00721759
0.00828281
0.00891288
0.00994292
0.0108877
0.0118915
0.0145845
0.0194204
0.0208896
0.0196129
0.0127032
0.00692253
0.00541161
0.00525113
0.0240373
0.0352829
0.0350522
0.07868
0.077128
0.0626104
0.0529902
0.0520963
0.0563722
0.0657936
0.0810111
0.0979892
0.113101
0.123336
0.128085
0.127975
0.124389
0.116651
0.103205
0.0879875
0.0798006
0.0758365
0.0742357
0.0747329
0.0768552
0.0801621
0.085528
0.0962453
0.118736
0.14653
0.163939
0.171591
0.17472
0.16926
0.143571
0.0604999
0.0212701
0.0112828
0.00938663
0.00912632
0.00937324
0.0104659
0.0127626
0.014642
0.0154982
0.0161727
0.0173623
0.0197788
0.0221167
0.0226252
0.0226219
0.0218384
0.0215786
0.0215304
0.0218963
0.0225598
0.0232317
0.0235349
0.0235991
0.0228907
0.0216357
0.0204333
0.0197109
0.0194842
0.0195911
0.0209488
0.0247309
0.0351044
0.0563439
0.0784284
0.0877242
0.0965069
0.100318
0.101287
0.0921684
0.063652
0.0472069
0.0401983
0.0372776
0.0371335
0.0407386
0.0516027
0.0667014
0.074367
0.0775842
0.0786475
0.0788592
0.077283
0.0720842
0.0684597
0.066942
0.0664708
0.0666629
0.0698384
0.0798412
0.0989775
0.123223
0.137949
0.143722
0.143255
0.140299
0.131828
0.110832
0.0898729
0.0761004
0.0685586
0.0649698
0.0632049
0.0614371
0.0575154
0.0452263
0.0267891
0.0139961
0.00697599
0.00340694
0.00169931
0.00105898
0.000952606
0.00103298
0.001422
0.0027347
0.00490891
0.00679805
0.0082162
0.00926294
0.00997882
0.0103822
0.0104989
0.0103261
0.00910918
0.00749597
0.00690799
0.00693576
0.00773992
0.0107896
0.0133985
0.0143817
0.0144671
0.014237
0.0131373
0.00932546
0.0045061
0.00207954
0.00149463
0.00181564
0.00503931
0.0199512
0.0666238
0.160222
0.198808
0.2117
0.211117
0.208217
0.203224
0.19982
0.196001
0.191959
0.189207
0.184376
0.170927
0.123048
0.0549034
0.0209606
0.00829328
0.00494181
0.00464292
0.00519394
0.00704051
0.0083909
0.00986682
0.0109234
0.0116462
0.0132508
0.0182593
0.0212315
0.020914
0.0160967
0.00848875
0.00582322
0.00524004
0.0253525
0.0401693
0.0470477
0.0791603
0.0717431
0.0542101
0.048758
0.0501967
0.0575901
0.072498
0.0933697
0.11727
0.137552
0.148656
0.152016
0.151135
0.146025
0.136621
0.123044
0.105155
0.0930664
0.0883882
0.0891678
0.0953117
0.104054
0.114615
0.127594
0.143817
0.15705
0.165557
0.16903
0.170298
0.166948
0.147439
0.0839703
0.0310982
0.01428
0.0102934
0.00958737
0.00965175
0.0107288
0.0129501
0.0145324
0.0155749
0.0163068
0.0174761
0.0203417
0.0232257
0.0239365
0.0239267
0.0230207
0.0227369
0.0229319
0.0242815
0.0264381
0.0291237
0.0315735
0.0328213
0.0333571
0.033407
0.0316347
0.0294588
0.0259219
0.0229391
0.0206339
0.0197407
0.0197081
0.021732
0.0283653
0.0462672
0.0688819
0.0771669
0.0796643
0.0791959
0.0704275
0.0569619
0.0469746
0.0422628
0.0406911
0.0404024
0.0437668
0.0548267
0.0720006
0.0818899
0.0840106
0.084594
0.0839721
0.0831587
0.0793299
0.0742354
0.070902
0.0695396
0.0707716
0.0749315
0.0853961
0.102322
0.121083
0.134084
0.138005
0.136927
0.133018
0.123854
0.105165
0.0854933
0.0721791
0.0651856
0.0621042
0.0605478
0.0590066
0.0555107
0.0440564
0.0253063
0.0126084
0.00587466
0.00272256
0.00128101
0.000666723
0.000481917
0.000470224
0.000520332
0.000720918
0.00132832
0.00286996
0.00484378
0.00673604
0.00838686
0.00971541
0.0105672
0.0109109
0.0109155
0.0104083
0.00951011
0.00938602
0.00984863
0.011946
0.0135823
0.013921
0.0138092
0.0130787
0.01008
0.00524352
0.00235397
0.00133808
0.0014151
0.0035045
0.0162805
0.0656064
0.178304
0.216799
0.223284
0.220616
0.21407
0.205835
0.198822
0.194844
0.192742
0.19031
0.188959
0.188131
0.185755
0.176309
0.141267
0.0622634
0.0230179
0.00896477
0.00530049
0.00493009
0.00539147
0.00723949
0.00947214
0.010749
0.0113058
0.0124016
0.0164603
0.0209361
0.021375
0.0187481
0.0105633
0.00651145
0.00536004
0.0271225
0.0460115
0.0571965
0.0779076
0.0658734
0.0494075
0.0470468
0.0499708
0.0623551
0.0851446
0.115088
0.143842
0.156123
0.160388
0.161277
0.160459
0.157152
0.151099
0.142929
0.133371
0.127562
0.125516
0.126584
0.131193
0.137609
0.146104
0.156244
0.163272
0.166595
0.167658
0.167116
0.162207
0.144759
0.0940294
0.0407265
0.0186609
0.0119898
0.0105776
0.0104359
0.012096
0.0143908
0.015676
0.0164612
0.0171135
0.0180376
0.0208953
0.0242483
0.0253383
0.025458
0.0247593
0.0243778
0.0247973
0.0271269
0.0319701
0.0388463
0.0429668
0.0454368
0.0467111
0.0471508
0.0471505
0.045901
0.0442367
0.0412241
0.0369135
0.0312664
0.0247381
0.020883
0.019449
0.0194303
0.0226199
0.0335838
0.0595511
0.0730417
0.0764505
0.0737685
0.0588961
0.0502242
0.0461582
0.0432436
0.0424132
0.0439896
0.0521764
0.0678174
0.0825151
0.0892945
0.0927662
0.0959685
0.0972375
0.097744
0.0970447
0.0955265
0.0966891
0.100293
0.108378
0.118014
0.12567
0.129981
0.133166
0.131043
0.124875
0.114966
0.0974608
0.0781904
0.0662591
0.0609114
0.0588092
0.0580649
0.0574086
0.0558227
0.0512178
0.0370628
0.0194879
0.00879075
0.00367802
0.00162005
0.000802646
0.000459455
0.00031369
0.000271287
0.000273218
0.000302404
0.000399878
0.000663154
0.0013133
0.00260628
0.004473
0.00661691
0.00862237
0.0101637
0.0110432
0.0113906
0.0115349
0.0117494
0.0123259
0.0132684
0.0135337
0.0134558
0.0130067
0.0113669
0.0069329
0.00320865
0.00141572
0.00117054
0.00208494
0.00986559
0.0495022
0.173
0.226754
0.232439
0.227247
0.213702
0.197226
0.184751
0.176964
0.173632
0.173868
0.175225
0.178273
0.181847
0.183349
0.182583
0.175035
0.140984
0.0597442
0.0215837
0.00863033
0.00545388
0.00521556
0.00586134
0.00848445
0.0102948
0.0108909
0.0117599
0.0147976
0.0202782
0.0215253
0.0201208
0.0130526
0.00752596
0.00563341
0.0296298
0.0525897
0.0654141
0.0762798
0.0599693
0.0458729
0.0443984
0.049473
0.0661072
0.0959439
0.131957
0.152408
0.160065
0.162607
0.162914
0.161306
0.156504
0.149716
0.143096
0.137002
0.134086
0.133498
0.134457
0.138747
0.145638
0.154615
0.161425
0.164269
0.165261
0.162961
0.154853
0.133272
0.090572
0.0464195
0.0232391
0.0145338
0.0121451
0.0115821
0.0129614
0.0150842
0.0161789
0.0168445
0.0174726
0.0186726
0.0216548
0.0252493
0.0266437
0.0269141
0.0267925
0.0266688
0.0274209
0.0307913
0.0391383
0.0466324
0.05014
0.0521284
0.0530178
0.0533536
0.0534099
0.0530496
0.0523878
0.051304
0.049726
0.0475259
0.0445979
0.0404512
0.0336351
0.0248779
0.0199278
0.0183389
0.0184363
0.0226253
0.0379622
0.0655983
0.0752864
0.0759637
0.0628372
0.0523653
0.0472951
0.044061
0.0437972
0.0458016
0.052821
0.0677058
0.0836008
0.0913798
0.096612
0.101048
0.10511
0.108412
0.112052
0.116094
0.119223
0.122893
0.125042
0.125705
0.123953
0.11896
0.109373
0.0957019
0.0824103
0.0685496
0.0610147
0.0572827
0.0561492
0.0559232
0.0554689
0.0543581
0.0515741
0.043859
0.0262091
0.0130147
0.00581863
0.00252129
0.00114093
0.00058876
0.00036178
0.000257371
0.000207636
0.000192044
0.000193132
0.000206967
0.000250865
0.000356425
0.000578368
0.001039
0.00206047
0.00405301
0.00662798
0.00900364
0.0104662
0.0112687
0.0120948
0.012759
0.0128936
0.0128248
0.0125444
0.0117021
0.00880749
0.00449301
0.0018072
0.000975139
0.00122203
0.00470458