/*--------------------------------*- C++ -*----------------------------------*\
  =========                 |
  \\      /  F ield         | OpenFOAM: The Open Source CFD Toolbox
   \\    /   O peration     | Website:  https://openfoam.org
    \\  /    A nd           | Version:  9
     \\/     M anipulation  |
\*---------------------------------------------------------------------------*/
FoamFile
{
    format      ascii;
    class       volScalarField;
    location    "0.066";
    object      nut;
}
// * * * * * * * * * * * * * * * * * * * * * * * * * * * * * * * * * * * * * //

dimensions      [0 2 -1 0 0 0 0];

internalField   nonuniform List<scalar> 
12225
(
1.17665e-09
0
0
0
0
0
0
0
0
0
0
0
0
0
0
0
0
0
8.72617e-10
0
0
0
0
0
0
0
0
0
0
0
0
0
0
0
0
0
1.17603e-09
0
0
0
0
0
4.77781e-11
3.52836e-10
5.07991e-10
3.28541e-10
0
0
0
0
0
0
0
0
1.07822e-08
0
0
0
0
0
1.55188e-09
3.10328e-09
3.621e-09
2.26325e-09
1.90208e-10
0
0
0
0
0
0
0
1.55652e-06
8.01431e-07
0
0
6.86234e-08
5.97777e-08
5.76486e-08
9.46393e-08
9.11669e-08
0
0
0
0
5.92043e-09
4.34893e-09
0
0
0
3.62131e-07
0
0
0
3.33603e-07
2.3661e-07
1.13354e-07
2.69634e-08
0
5.5734e-08
0
0
0
1.69096e-07
1.69279e-07
1.46842e-07
2.2094e-07
5.73744e-07
0
0
0
0
1.07675e-07
1.0854e-07
8.74863e-08
1.71579e-07
3.30427e-07
4.96407e-07
3.95323e-07
1.00204e-09
6.21715e-08
2.13863e-07
3.22964e-07
2.24614e-07
1.32419e-07
1.88597e-07
0
0
0
0
6.30106e-08
1.85551e-08
6.19228e-08
2.90076e-07
5.91258e-07
8.35694e-07
8.55859e-07
5.88095e-07
3.51514e-07
1.56679e-07
2.76159e-08
0
0
5.2396e-09
0
0
0
1.15276e-09
7.86488e-07
1.85996e-07
0
3.10676e-07
9.98177e-07
1.4293e-06
1.24965e-06
9.36414e-07
3.84237e-07
1.86278e-08
0
0
0
0
0
0
1.74392e-07
2.52058e-07
4.4822e-07
7.76266e-07
8.39813e-07
5.85478e-07
1.30697e-06
1.40462e-06
9.79205e-07
3.56286e-07
0
0
0
0
0
0
0
2.15637e-08
3.35704e-07
1.93998e-07
7.84857e-08
0
7.07839e-07
1.69947e-06
8.01707e-07
3.23445e-07
0
0
0
0
0
7.52503e-10
1.21433e-07
1.12839e-07
3.75648e-07
2.11627e-07
5.25208e-07
1.54099e-07
2.06828e-08
0
1.3005e-07
7.12226e-07
5.7014e-07
2.65392e-07
0
0
0
0
0
2.07111e-07
4.5142e-07
1.8557e-07
6.25689e-07
5.37476e-07
1.37075e-06
7.23066e-07
1.25282e-07
7.88324e-09
0
0
0
0
0
0
0
0
0
9.35094e-08
2.97664e-07
1.59421e-07
4.74397e-07
9.59307e-07
2.34254e-06
3.2419e-06
1.66377e-06
1.80184e-07
0
0
0
0
0
1.13094e-06
1.80225e-06
1.3188e-06
1.04543e-06
9.32428e-07
1.75649e-07
0
1.98326e-07
7.2783e-07
2.55926e-06
4.13364e-06
2.52344e-06
1.29763e-06
1.33318e-07
0
0
0
0
1.29995e-06
1.49157e-06
1.66907e-06
2.30859e-06
2.88604e-06
9.17952e-07
0
0
2.5982e-07
0
3.87957e-07
2.35558e-06
3.81426e-06
5.26116e-06
5.36422e-06
3.75288e-06
2.34754e-06
2.27018e-06
1.37094e-06
1.87644e-07
0
0
0
0
0
0
0
0
2.29327e-06
5.18592e-06
5.70633e-06
4.62438e-06
2.90845e-06
2.17237e-06
1.56971e-06
1.06377e-07
0
2.72461e-08
0
0
0
0
0
2.45768e-07
6.8725e-07
5.32758e-07
8.60284e-07
4.64598e-06
4.61348e-06
3.35651e-06
2.57243e-06
1.65077e-06
8.37357e-07
2.15246e-07
0
7.03664e-08
8.76073e-08
0
0
0
0
7.69789e-08
7.52797e-08
8.19242e-08
0
8.81671e-08
9.40665e-07
1.1222e-06
1.03464e-06
8.05203e-07
6.37315e-07
5.26645e-07
3.145e-07
9.53482e-09
0
0
0
0
0
9.13558e-07
1.09824e-06
0
0
0
1.98392e-07
0
0
4.82258e-08
2.38505e-07
3.49033e-07
3.57166e-07
1.1674e-07
0
0
0
0
0
6.68696e-07
1.14314e-06
2.88855e-07
0
1.51287e-07
3.22502e-07
1.10189e-07
0
0
0
0
0
0
0
1.00788e-07
1.57119e-07
0
0
0
0
3.74411e-07
2.5537e-07
4.32406e-07
6.17384e-07
2.0026e-07
0
0
0
0
0
0
0
0
0
1.28372e-07
8.92528e-07
0
0
4.85436e-07
7.30312e-08
1.38487e-07
5.19751e-07
1.26113e-07
0
7.14387e-09
8.02527e-08
0
0
0
0
0
0
0
0
0
0
0
0
0
0
0
0
0
6.64575e-07
3.96151e-07
2.41499e-08
0
0
0
0
0
0
0
0
0
0
0
0
0
0
0
0
0
0
0
0
0
0
0
0
9.55224e-07
6.67503e-07
4.55263e-08
0
0
0
0
0
0
0
0
0
0
0
0
0
0
0
0
0
0
0
0
0
0
0
0
0
0
0
0
3.547e-09
5.80157e-09
5.6924e-09
3.26354e-09
4.67508e-10
0
0
0
0
0
0
0
0
0
0
0
0
3.9845e-11
4.55945e-10
6.46922e-10
5.80988e-10
2.74079e-10
0
0
0
0
0
0
0
0
0
0
0
0
0
0
0
0
0
0
0
0
0
0
0
0
0
0
0
0
0
0
0
0
0
0
0
0
0
0
8.38281e-07
0
0
0
3.56106e-06
4.50151e-06
2.35579e-06
0
0
0
0
0
0
0
0
0
0
0
0
1.71473e-07
5.04339e-07
6.37697e-07
5.68589e-07
5.29567e-07
1.3962e-07
0
0
0
0
0
0
5.77169e-06
1.86946e-05
1.51667e-05
1.60102e-05
1.6257e-05
1.39863e-05
9.62648e-06
7.20161e-06
5.12638e-06
1.92253e-06
5.02009e-07
1.65283e-07
3.73976e-07
7.02938e-07
8.84002e-07
9.13065e-07
8.57926e-07
7.19821e-07
5.57205e-07
3.64285e-07
1.40865e-07
0
0
0
0
0
0
0
0
0
9.30828e-07
1.53797e-06
0
0
0
0
0
0
0
2.01993e-06
1.19507e-05
1.79451e-05
1.70034e-05
1.46303e-05
1.74583e-05
1.65687e-05
9.53614e-06
0
0
0
0
0
7.67318e-07
5.37268e-07
4.02141e-07
4.18104e-07
3.29263e-07
2.65322e-07
1.89046e-07
1.1793e-07
5.50436e-08
0
0
0
0
0
0
0
0
0
0
0
0
0
0
0
0
0
0
0
0
0
0
0
0
0
0
0
0
0
2.81707e-07
4.05249e-07
3.63069e-07
2.89017e-07
2.19326e-07
1.58021e-07
1.07767e-07
6.84988e-08
3.80187e-08
1.30404e-08
0
0
0
0
0
0
0
0
0
0
0
0
0
0
0
0
0
0
0
0
0
0
0
0
0
0
0
0
9.51943e-09
0
0
0
0
3.32524e-06
1.21999e-05
5.76969e-06
1.06172e-06
0
0
0
0
0
0
0
1.49121e-06
3.64794e-06
6.58267e-06
1.20884e-06
1.13273e-05
8.75142e-06
0
0
0
3.52814e-06
5.31228e-06
3.75508e-06
6.54712e-07
0
0
0
0
0
0
0
0
0
0
0
3.15657e-07
8.60876e-07
1.10574e-06
9.32312e-07
9.86029e-07
8.96331e-07
0
0
0
0
0
0
0
0
0
0
0
0
6.12819e-07
1.5597e-06
2.86011e-06
2.58947e-06
1.44616e-06
4.93472e-07
3.97732e-07
6.54535e-07
7.97961e-07
8.36359e-07
7.9201e-07
6.92805e-07
5.77108e-07
4.02116e-07
1.64408e-07
0
0
0
0
0
0
0
6.46812e-07
1.99122e-06
3.07513e-06
2.94043e-06
1.04512e-06
0
0
0
0
0
0
2.91421e-06
3.27539e-05
3.14801e-05
1.67771e-05
8.79832e-06
1.05374e-05
1.08152e-05
0
0
0
0
0
0
1.01446e-06
5.25817e-07
4.28932e-07
4.82914e-07
4.13604e-07
3.53932e-07
2.71102e-07
1.81905e-07
8.96314e-08
0
0
0
0
0
0
0
0
0
0
0
0
0
0
0
0
0
0
0
0
0
0
0
0
0
0
0
0
0
8.54397e-08
2.79372e-07
3.53555e-07
3.52194e-07
3.11494e-07
2.57517e-07
2.06112e-07
1.64508e-07
1.32872e-07
1.06643e-07
8.10691e-08
5.48682e-08
2.99847e-08
9.02951e-09
0
0
0
0
0
0
0
0
0
0
0
0
0
0
0
0
0
0
0
0
0
0
0
0
7.21893e-08
0
0
0
3.15411e-07
1.43672e-06
2.01105e-06
2.86766e-06
1.75425e-06
0
0
0
0
0
0
0
1.46097e-06
3.63132e-06
5.35771e-06
1.05988e-06
1.28447e-05
1.11674e-05
4.95246e-06
1.36354e-06
4.4271e-07
2.6344e-06
4.88621e-06
3.35474e-06
0
0
0
0
0
0
0
0
0
0
0
0
0
3.14005e-06
6.02563e-06
5.45147e-06
4.65127e-06
5.29869e-06
2.49412e-06
4.1257e-07
1.72412e-06
1.2053e-06
0
0
0
0
0
0
0
0
0
1.05933e-07
1.24493e-06
1.77673e-06
1.2782e-06
3.72927e-07
0
5.64827e-08
2.34209e-07
4.96178e-07
7.49899e-07
8.46938e-07
7.7098e-07
5.51952e-07
2.78955e-07
6.21647e-08
0
6.14203e-08
4.25012e-07
1.10141e-06
1.95553e-06
2.70561e-06
3.09947e-06
3.0934e-06
2.75224e-06
2.18634e-06
1.49568e-06
6.89725e-07
0
0
0
0
0
0
7.33125e-06
1.02433e-05
6.15702e-06
3.34199e-06
2.75108e-06
0
0
0
0
0
0
6.5178e-07
2.42995e-06
1.24921e-06
1.5808e-06
1.77292e-06
1.53801e-06
1.34176e-06
1.04124e-06
7.17166e-07
3.62911e-07
0
0
0
0
0
0
0
0
0
0
0
0
0
0
0
0
0
0
0
0
0
0
0
0
0
0
0
0
0
0
0
4.30625e-08
1.11096e-07
1.36529e-07
1.28259e-07
1.16519e-07
1.31189e-07
1.84115e-07
2.62003e-07
3.30171e-07
3.55729e-07
3.33597e-07
2.8167e-07
2.19991e-07
1.6272e-07
1.18896e-07
9.10087e-08
7.52797e-08
6.692e-08
6.07526e-08
5.19746e-08
4.06126e-08
2.56062e-08
5.90509e-09
0
0
0
0
0
0
0
0
0
0
0
0
0
2.82101e-07
0
0
0
9.59148e-07
7.98449e-07
6.1849e-08
0
0
0
0
0
0
0
0
2.14664e-07
8.30263e-07
1.42017e-06
1.62572e-06
8.44911e-08
7.01024e-06
7.86534e-06
4.7421e-06
2.80474e-06
1.0827e-06
0
0
0
0
0
0
0
0
0
0
0
0
0
0
0
0
0
8.05508e-07
6.13971e-05
4.21045e-05
2.65777e-05
1.20817e-05
3.66169e-06
7.88331e-07
0
0
0
0
0
0
0
0
0
0
0
0
0
0
0
0
0
0
0
0
0
0
6.34716e-07
1.67921e-06
2.53577e-06
3.12443e-06
3.34494e-06
3.28662e-06
3.14343e-06
3.0096e-06
2.92257e-06
2.83499e-06
2.63345e-06
2.28849e-06
1.79096e-06
1.13906e-06
4.07886e-07
0
0
0
0
0
0
0
0
0
2.11304e-06
5.57719e-07
0
0
0
0
1.00405e-06
5.22934e-07
6.81386e-06
9.25458e-06
5.24666e-06
3.28233e-06
1.5914e-06
9.16725e-07
6.30555e-07
2.40719e-07
4.10663e-08
0
0
0
0
0
0
0
0
0
0
0
0
0
0
0
0
0
0
0
0
0
0
0
0
0
0
0
0
0
0
0
0
0
0
0
0
0
0
0
0
0
1.76573e-08
2.1817e-07
5.32973e-07
6.39783e-07
2.64406e-07
0
0
0
0
0
0
0
0
0
0
0
0
0
0
0
0
0
0
0
0
1.20488e-07
0
1.65033e-06
1.00792e-06
0
5.05565e-08
6.81799e-07
2.52207e-08
0
0
0
0
0
0
0
0
2.86377e-07
5.97255e-07
8.71869e-07
6.65584e-07
0
0
4.50466e-07
1.14453e-06
2.2614e-06
3.88894e-06
0
0
0
0
0
0
0
0
0
0
0
0
0
0
0
0
0
0
3.26855e-05
6.89276e-05
6.14509e-05
4.1384e-05
1.80503e-05
4.2092e-06
0
0
0
0
0
0
0
0
0
0
0
0
0
0
0
0
0
0
0
0
0
7.72551e-08
1.15116e-06
2.15441e-06
2.8915e-06
3.2284e-06
3.1699e-06
3.0163e-06
3.03e-06
3.13005e-06
3.16606e-06
3.07831e-06
2.8775e-06
2.6063e-06
2.1942e-06
1.52294e-06
4.99388e-07
0
0
0
0
0
0
0
0
0
0
3.56065e-06
0
0
0
0
0
3.0921e-06
6.47729e-06
2.16754e-06
1.84648e-06
8.39636e-07
2.90957e-07
0
0
0
0
0
0
0
0
0
0
0
0
0
0
0
0
0
0
0
0
0
0
0
0
0
0
0
0
0
0
0
0
0
0
0
0
0
0
0
0
0
0
0
0
0
0
0
0
0
4.65737e-07
0
0
0
0
0
0
0
0
0
0
0
0
0
0
0
0
0
0
0
0
0
0
0
1.22067e-06
1.65691e-06
0
0
2.02899e-07
0
0
0
0
0
0
2.10908e-07
2.43773e-07
4.00749e-07
8.22053e-07
1.18796e-06
1.25865e-06
7.12967e-07
0
0
0
9.00139e-08
7.5538e-07
4.76671e-06
0
0
0
0
0
5.48859e-07
1.27512e-06
0
0
0
0
1.38665e-05
1.53238e-05
1.51166e-05
1.77679e-05
1.83741e-05
1.00269e-05
1.55872e-05
3.42576e-05
4.58711e-05
4.74482e-05
3.80397e-05
1.91437e-05
3.27229e-06
0
0
0
0
0
0
0
0
0
0
0
0
0
0
0
0
0
0
0
0
9.16166e-07
2.01028e-06
2.82382e-06
3.2673e-06
3.27485e-06
2.96174e-06
2.47485e-06
2.00702e-06
1.70805e-06
1.68148e-06
1.99895e-06
2.63159e-06
3.29273e-06
3.54263e-06
3.26704e-06
2.58438e-06
1.48433e-06
0
0
0
0
0
0
0
0
0
0
5.07339e-06
0
0
0
0
2.28505e-06
3.1346e-06
0
0
1.0071e-07
3.91692e-07
3.27604e-07
1.41663e-07
8.4694e-08
0
0
0
0
0
0
0
6.61968e-08
1.92611e-07
2.8799e-07
3.20588e-07
2.74097e-07
1.37095e-07
0
0
0
0
0
0
0
0
0
0
0
0
0
0
0
0
0
0
0
0
0
0
0
0
0
0
0
0
0
0
0
0
0
5.68436e-08
1.08209e-06
4.28644e-07
0
0
0
0
0
0
0
0
0
0
0
0
0
0
0
0
0
0
0
0
0
0
4.09836e-07
1.07876e-06
0
0
0
0
0
0
0
0
2.31182e-07
8.88249e-07
1.07334e-06
1.20407e-06
1.61904e-06
1.85678e-06
1.68631e-06
7.81572e-07
0
0
0
6.70366e-09
4.27949e-07
6.40047e-06
0
0
0
0
0
4.93374e-07
0
0
0
0
0
1.6566e-05
1.43969e-05
9.068e-06
8.31636e-06
1.15047e-05
1.71551e-05
2.30427e-05
2.8034e-05
3.22099e-05
3.52627e-05
3.48471e-05
2.48529e-05
3.90588e-06
0
0
0
0
0
0
0
0
0
0
0
0
0
0
0
0
0
0
3.7629e-07
1.70273e-06
2.72455e-06
3.244e-06
3.14078e-06
2.61827e-06
2.01699e-06
1.5507e-06
1.22617e-06
9.97419e-07
8.44172e-07
7.81402e-07
8.60523e-07
1.17763e-06
1.91198e-06
3.27625e-06
4.8809e-06
5.14948e-06
3.78804e-06
1.77975e-06
0
0
0
0
0
0
0
0
0
4.57726e-07
4.98814e-06
1.11425e-06
1.86834e-06
7.56629e-06
3.40983e-06
6.43343e-07
0
0
0
0
0
0
0
0
0
0
0
0
0
0
0
1.71048e-07
4.24972e-07
6.48355e-07
7.68242e-07
7.56652e-07
5.88837e-07
2.34521e-07
0
0
0
0
0
0
0
0
0
0
0
0
0
0
0
0
0
0
0
0
0
0
0
0
0
0
0
0
0
0
0
1.3598e-06
1.66895e-06
8.77176e-07
1.15504e-07
0
0
0
0
0
0
0
0
0
0
0
0
0
0
0
0
0
0
0
0
0
7.27565e-08
5.76207e-07
1.70032e-07
0
0
0
0
0
0
0
9.78182e-07
1.87793e-06
2.14773e-06
2.16498e-06
2.51533e-06
2.6608e-06
2.17913e-06
8.8717e-07
0
0
0
1.59491e-08
2.13341e-07
8.94944e-07
0
0
0
0
0
0
0
0
0
0
0
7.00016e-06
1.62402e-05
9.6783e-06
5.20188e-06
4.8235e-06
7.46449e-06
1.17705e-05
1.59484e-05
1.90865e-05
2.12815e-05
2.29074e-05
2.23027e-05
4.11678e-06
0
0
0
0
0
0
0
0
0
0
0
0
0
0
0
0
0
1.1255e-06
2.57152e-06
3.39815e-06
3.44355e-06
2.81847e-06
1.79281e-06
8.21788e-07
1.65797e-07
0
0
0
9.92603e-09
1.92987e-07
4.01769e-07
6.71045e-07
1.08063e-06
1.84805e-06
3.48745e-06
6.89047e-06
9.71919e-06
4.80561e-06
0
0
0
0
1.61876e-07
0
0
0
0
2.08569e-06
5.95593e-06
7.49228e-06
1.3418e-05
7.00868e-06
1.51349e-06
3.84092e-07
0
0
0
0
0
0
0
0
0
0
0
0
0
0
0
0
0
0
2.5212e-07
5.30954e-07
6.61271e-07
5.59263e-07
1.92861e-07
0
0
0
0
0
0
0
0
0
0
0
0
0
0
0
0
0
0
0
0
0
0
0
0
0
0
0
0
0
1.13707e-06
2.67752e-06
2.31241e-06
1.39193e-06
5.66325e-07
0
0
0
0
0
0
0
0
0
0
0
0
0
0
0
0
0
0
0
0
0
8.04063e-08
5.93855e-07
4.96973e-07
3.25374e-07
6.25224e-07
0
0
0
0
1.05077e-06
2.71574e-06
3.37199e-06
3.41299e-06
3.26747e-06
3.36046e-06
3.46207e-06
2.7174e-06
1.04492e-06
0
0
0
0
9.02477e-08
1.82288e-06
2.27767e-08
0
0
0
0
0
0
0
0
0
0
1.67519e-07
1.29125e-05
1.42884e-05
8.74699e-06
4.98207e-06
4.52248e-06
6.14024e-06
7.99805e-06
8.46478e-06
7.35188e-06
5.81543e-06
5.04658e-06
5.97875e-06
9.73924e-06
3.22093e-06
0
0
0
0
0
0
0
0
0
0
0
0
0
3.36602e-07
2.2722e-06
3.80388e-06
4.24064e-06
3.62087e-06
2.37797e-06
9.54228e-07
0
0
0
0
0
0
0
0
5.32904e-08
3.51551e-07
7.38339e-07
1.35835e-06
2.46053e-06
4.58612e-06
8.69839e-06
5.81713e-06
0
0
0
0
0
0
0
0
1.94576e-08
1.42481e-06
3.8273e-06
7.68039e-06
8.94118e-06
3.64108e-06
8.03911e-07
3.61698e-07
7.4729e-07
0
0
0
0
0
0
0
0
0
0
0
0
0
0
0
0
0
0
0
5.11012e-09
2.77623e-07
2.93863e-07
0
0
0
0
0
9.26382e-08
0
0
0
0
0
0
0
0
0
0
0
0
0
0
0
0
0
0
0
0
0
3.73399e-08
1.09352e-06
2.72298e-06
3.36396e-06
2.85283e-06
1.93027e-06
1.08299e-06
3.90408e-07
0
0
0
0
0
0
0
0
0
0
0
0
0
0
0
0
0
0
0
0
0
1.18864e-06
1.03088e-06
7.9882e-07
1.21967e-06
1.75306e-06
0
1.05148e-06
2.50268e-06
3.96213e-06
4.83095e-06
5.00377e-06
4.64048e-06
4.3322e-06
4.13578e-06
4.03911e-06
3.33483e-06
1.26302e-06
0
0
0
0
0
9.2527e-07
7.16225e-07
0
0
0
0
0
0
0
0
0
0
3.21167e-06
9.01022e-06
1.44801e-05
1.58765e-05
1.17947e-05
7.97137e-06
6.18284e-06
5.28407e-06
4.25788e-06
3.54931e-06
4.34298e-06
9.46658e-06
1.88244e-05
1.25417e-05
6.58977e-06
2.99227e-06
5.95434e-07
0
0
0
0
0
0
0
0
0
0
1.72974e-06
4.04218e-06
5.51937e-06
5.33316e-06
3.94463e-06
2.15926e-06
4.74123e-07
0
0
0
0
0
0
0
0
0
1.07036e-07
1.72382e-07
1.79728e-07
3.62496e-07
1.34365e-06
3.87367e-06
4.26238e-06
0
0
0
0
0
0
0
4.47828e-08
5.52212e-07
8.63939e-07
1.4382e-06
2.8564e-06
4.99655e-06
5.06671e-06
2.11311e-06
1.88079e-07
5.84927e-07
1.58366e-06
2.48442e-07
0
0
0
0
0
0
0
0
0
0
0
0
0
0
0
0
0
0
0
0
1.45796e-07
0
0
0
0
4.69862e-07
7.48446e-07
3.72936e-07
0
0
0
0
0
0
0
0
0
0
0
0
0
0
0
0
0
0
0
0
4.44092e-07
1.55804e-06
2.89483e-06
3.56563e-06
3.27367e-06
2.45955e-06
1.66356e-06
1.05154e-06
2.71618e-07
0
0
0
0
0
0
0
0
0
0
0
0
0
0
0
0
0
0
0
0
1.62928e-06
2.20153e-06
1.63471e-06
1.7029e-06
1.7208e-06
9.58288e-07
2.31328e-06
3.57102e-06
4.86126e-06
5.62841e-06
5.87093e-06
5.55695e-06
5.21446e-06
4.82775e-06
4.46053e-06
3.89772e-06
1.5335e-06
0
0
0
0
0
4.6666e-07
1.6183e-06
3.62654e-06
1.47338e-05
2.30417e-05
2.724e-05
2.70334e-05
2.3257e-05
2.73054e-05
3.00949e-05
2.92058e-05
2.79849e-05
2.73764e-05
2.85443e-05
3.44531e-05
4.64391e-05
4.69777e-05
3.76517e-05
3.16796e-05
2.73772e-05
2.4668e-05
2.90959e-05
3.84931e-05
3.38604e-05
2.22168e-05
1.39402e-05
8.85453e-06
5.54514e-06
3.14774e-06
9.22276e-07
0
0
0
0
0
0
0
1.61413e-06
3.6749e-06
5.6876e-06
6.91222e-06
6.28723e-06
4.34631e-06
2.25192e-06
4.29816e-07
0
0
0
0
0
0
0
3.83056e-07
7.19412e-07
9.58874e-07
1.05317e-06
8.88009e-07
2.86818e-07
0
0
0
1.39034e-06
0
0
0
0
0
0
0
3.93351e-07
1.09772e-06
1.5215e-06
1.89968e-06
2.65937e-06
3.54206e-06
3.08426e-06
6.84595e-07
0
3.25952e-07
1.9845e-06
8.43549e-07
0
0
7.77952e-08
0
0
0
0
0
0
0
0
0
0
0
0
0
0
0
0
0
1.02871e-07
0
0
0
2.54537e-07
1.38115e-06
1.66878e-06
9.9078e-07
3.58571e-07
4.26491e-08
0
0
0
0
0
0
0
0
0
0
0
0
0
0
0
0
0
0
3.29551e-07
1.39049e-06
2.6541e-06
3.53156e-06
3.59836e-06
3.1182e-06
3.04858e-06
4.13166e-06
1.72818e-06
0
0
0
0
0
0
0
0
0
0
0
0
0
0
0
0
0
0
0
0
0
3.20708e-06
3.29087e-06
2.82793e-06
2.54658e-06
2.03393e-06
2.53135e-06
3.5672e-06
4.85966e-06
5.63977e-06
5.96095e-06
6.05946e-06
5.82831e-06
5.45087e-06
4.82817e-06
4.31478e-06
1.80764e-06
0
0
0
0
0
0
1.11425e-06
3.91813e-06
7.85566e-06
9.11387e-06
1.32531e-05
1.91886e-05
2.72767e-05
3.73444e-05
4.44136e-05
4.93942e-05
5.54001e-05
6.5564e-05
8.36222e-05
9.68717e-05
3.43858e-05
0
0
0
4.86118e-06
2.98832e-05
5.97153e-05
4.95367e-05
3.39128e-05
2.36302e-05
1.71229e-05
1.28232e-05
9.77097e-06
7.31147e-06
4.68859e-06
0
0
0
0
3.57647e-07
1.69183e-06
1.97141e-06
2.29303e-06
3.1476e-06
4.45871e-06
5.07452e-06
4.05648e-06
2.29611e-06
5.60745e-07
0
0
0
0
0
0
8.43822e-07
1.8839e-06
2.87355e-06
3.7061e-06
4.28104e-06
4.39425e-06
3.64036e-06
8.41613e-07
0
0
0
1.01478e-06
9.83394e-07
2.65461e-07
0
0
0
0
0
0
8.70328e-07
1.66359e-06
2.10508e-06
2.61952e-06
2.85233e-06
1.7646e-06
0
0
0
1.50754e-06
2.15654e-06
8.7429e-07
0
0
0
0
0
0
0
0
0
0
0
0
0
0
0
0
0
0
1.47464e-07
2.85744e-07
1.94932e-07
0
1.66462e-07
1.44459e-06
2.74924e-06
2.51015e-06
1.40366e-06
6.03203e-07
2.1224e-07
3.99132e-08
0
0
0
0
0
0
0
0
0
0
0
0
0
0
0
0
0
0
9.40272e-07
2.24787e-06
3.37578e-06
4.28284e-06
6.17164e-06
7.09944e-06
3.44997e-06
8.96653e-07
0
0
0
0
0
0
0
0
0
0
0
0
0
0
5.95749e-07
1.14211e-06
1.30049e-06
8.10659e-07
0
0
0
1.40479e-06
4.72225e-06
4.8279e-06
3.86641e-06
2.99769e-06
2.92688e-06
3.41394e-06
4.63988e-06
5.47464e-06
5.77394e-06
6.15131e-06
6.23614e-06
6.03359e-06
5.21519e-06
4.56205e-06
2.07529e-06
0
0
0
0
0
0
0
7.34777e-07
1.41822e-06
2.10077e-06
4.35464e-06
7.54672e-06
1.20978e-05
1.73302e-05
2.24954e-05
2.84663e-05
3.65344e-05
4.85147e-05
6.63418e-05
7.66509e-05
2.95819e-05
0
0
0
0
2.42824e-05
6.51599e-05
4.88097e-05
3.44035e-05
2.59003e-05
2.06012e-05
1.69718e-05
1.44472e-05
1.28892e-05
1.16652e-05
4.56655e-06
1.49119e-07
0
0
0
0
0
0
4.67732e-07
1.50563e-06
2.16909e-06
1.77908e-06
6.65231e-07
0
0
0
0
0
6.94636e-07
2.22132e-06
4.30435e-06
6.57736e-06
8.94293e-06
1.14011e-05
1.40469e-05
1.67046e-05
1.72799e-05
3.11986e-06
0
0
0
1.19527e-06
1.83232e-06
1.4067e-06
6.09069e-07
6.01548e-09
0
0
0
0
0
8.38103e-07
1.94707e-06
2.64123e-06
2.56925e-06
1.17399e-06
0
0
0
0
0
1.0883e-06
1.23119e-06
9.86887e-07
6.90597e-07
3.22667e-07
5.01551e-08
0
0
0
0
0
0
0
0
0
0
0
1.82945e-07
4.03534e-07
6.67075e-07
9.27329e-07
1.06683e-06
1.23825e-06
2.14546e-06
3.71819e-06
4.01463e-06
2.69941e-06
1.43069e-06
6.74072e-07
2.9939e-07
1.18537e-07
2.62197e-08
0
0
0
0
0
0
0
0
0
0
0
0
0
0
0
0
0
0
1.17395e-07
1.4484e-06
4.71442e-06
5.18412e-06
3.74906e-06
1.80821e-06
5.67247e-07
8.52059e-08
0
0
0
0
0
0
0
0
0
0
1.47164e-06
8.3639e-07
0
0
0
0
0
0
9.0793e-08
0
0
2.84917e-06
6.78074e-06
5.92603e-06
4.117e-06
3.35786e-06
3.47174e-06
4.19602e-06
5.19528e-06
5.55039e-06
5.99861e-06
6.49527e-06
6.56877e-06
5.64888e-06
4.78134e-06
2.32785e-06
0
0
0
0
0
0
0
0
0
0
0
1.05994e-06
3.40826e-06
6.51557e-06
9.95767e-06
1.42104e-05
1.99828e-05
2.83545e-05
4.16743e-05
6.35705e-05
6.58738e-05
0
0
0
0
0
1.51544e-05
1.65217e-05
1.4915e-05
1.29972e-05
1.12728e-05
9.91432e-06
9.16878e-06
8.34467e-06
5.49642e-06
2.59185e-06
9.21774e-07
1.74768e-07
0
0
0
0
0
0
2.1914e-07
4.63741e-07
2.60336e-07
0
0
0
0
1.57221e-07
1.18454e-06
2.96318e-06
5.53531e-06
8.68586e-06
1.21791e-05
1.57388e-05
1.87244e-05
1.96782e-05
1.61668e-05
7.64154e-06
0
0
0
0
0
1.25952e-06
1.90625e-06
1.73268e-06
1.00747e-06
2.72572e-07
0
0
0
0
0
6.38656e-07
2.10667e-06
2.79976e-06
2.09388e-06
0
0
0
0
0
0
0
0
0
0
0
0
0
0
5.91512e-08
1.46193e-07
2.54928e-07
3.94747e-07
5.27646e-07
6.1819e-07
6.97333e-07
8.40576e-07
1.12068e-06
1.6026e-06
2.31932e-06
3.24025e-06
4.17176e-06
5.0838e-06
5.68717e-06
5.14944e-06
3.51847e-06
1.94108e-06
9.99813e-07
5.15949e-07
2.64224e-07
1.32836e-07
6.60396e-08
2.81165e-08
2.10023e-09
0
0
0
0
0
0
0
0
0
0
0
0
0
0
0
0
0
1.67346e-09
2.37417e-06
2.61729e-06
1.89645e-06
9.29219e-07
2.61669e-07
0
0
0
0
0
0
0
0
0
0
4.3968e-06
3.91803e-06
1.20778e-06
0
0
0
0
0
0
0
0
0
0
6.12838e-06
8.43087e-06
5.82431e-06
4.01369e-06
3.62052e-06
3.89127e-06
4.71446e-06
5.24062e-06
5.68982e-06
6.59934e-06
7.09961e-06
6.16067e-06
5.07144e-06
2.62977e-06
0
0
0
0
0
0
0
0
0
0
0
0
0
0
1.52517e-06
3.9148e-06
7.20543e-06
1.18188e-05
1.86669e-05
2.94639e-05
3.82386e-05
0
0
0
0
0
2.47721e-06
3.90787e-06
4.61507e-06
5.09921e-06
5.46845e-06
5.70049e-06
5.60535e-06
4.62007e-06
3.04527e-06
1.76958e-06
9.39678e-07
5.28404e-07
4.15607e-07
4.2604e-07
3.97459e-07
2.64534e-07
5.22665e-08
0
0
0
0
0
0
0
2.55969e-07
1.01975e-06
2.19942e-06
3.90374e-06
5.93889e-06
7.84696e-06
8.94567e-06
8.69329e-06
7.26842e-06
5.36184e-06
3.2226e-06
1.04096e-06
0
0
0
0
0
0
4.56865e-07
1.32011e-06
1.53584e-06
1.10567e-06
4.73924e-07
0
0
0
0
0
3.04118e-07
1.2862e-06
2.37857e-06
2.45133e-06
7.17792e-07
0
0
0
0
0
0
0
0
0
0
0
0
0
0
0
0
8.46002e-07
2.04851e-06
3.21107e-06
4.37301e-06
5.67887e-06
7.17943e-06
8.56123e-06
9.2525e-06
8.68383e-06
7.02652e-06
4.94955e-06
3.09295e-06
1.79718e-06
1.01304e-06
5.53974e-07
3.03351e-07
1.73828e-07
1.12107e-07
8.17324e-08
6.1794e-08
4.27052e-08
2.14386e-08
1.58841e-09
0
0
0
0
0
0
0
0
0
0
0
0
0
0
0
4.39984e-07
9.52168e-07
9.63658e-07
8.55834e-07
3.99197e-07
0
0
0
0
0
0
0
0
0
0
9.4885e-06
7.83895e-06
3.61127e-06
0
0
0
0
0
0
0
0
0
0
0
0
1.00104e-05
8.16027e-06
5.12703e-06
3.88719e-06
3.7943e-06
4.15717e-06
4.7775e-06
5.24895e-06
6.50572e-06
7.62324e-06
6.73778e-06
5.46146e-06
3.09064e-06
0
0
0
0
0
0
0
0
0
0
0
0
0
0
0
0
0
6.61731e-07
3.82969e-06
8.02334e-06
8.30073e-06
1.68457e-06
9.17097e-07
1.93375e-06
2.77387e-06
3.3468e-06
3.76871e-06
4.07094e-06
4.37326e-06
4.66889e-06
4.6934e-06
4.41472e-06
3.81299e-06
2.9545e-06
2.09797e-06
1.39214e-06
8.93601e-07
6.61843e-07
6.784e-07
8.13673e-07
8.35635e-07
6.46104e-07
3.14813e-07
0
0
0
0
0
0
0
2.36761e-07
5.84636e-07
9.18794e-07
1.17198e-06
1.18277e-06
7.86456e-07
3.95751e-08
0
0
0
0
0
0
0
0
0
0
0
0
0
7.12658e-07
9.93296e-07
7.45751e-07
3.292e-07
0
0
0
0
0
0
3.00548e-07
6.56982e-07
7.27381e-07
5.12605e-07
0
0
0
0
0
0
0
0
0
0
0
0
0
0
4.0244e-06
1.31666e-05
1.65544e-05
1.68026e-05
1.55996e-05
1.35309e-05
1.09833e-05
8.21556e-06
6.08814e-06
4.39115e-06
3.13336e-06
2.03192e-06
1.32788e-06
8.4373e-07
4.95066e-07
2.775e-07
1.71719e-07
1.3108e-07
1.1463e-07
1.01233e-07
8.74706e-08
7.11809e-08
4.61073e-08
1.62426e-08
0
0
0
0
0
0
0
0
0
0
0
0
0
0
0
6.60407e-09
0
1.69468e-07
4.44089e-07
0
0
0
0
0
0
0
0
0
0
1.30066e-05
1.5003e-05
3.65218e-06
0
0
0
0
0
0
0
0
0
0
0
0
0
8.59547e-06
1.06691e-05
6.83536e-06
4.45628e-06
3.79831e-06
3.86395e-06
4.3016e-06
4.85357e-06
6.27295e-06
8.00065e-06
7.30685e-06
5.93509e-06
3.74464e-06
0
0
0
0
0
0
0
0
0
0
0
0
0
0
0
0
0
0
0
1.63015e-06
4.8904e-06
4.47972e-06
4.17363e-06
3.90784e-06
3.6873e-06
3.57645e-06
3.59448e-06
3.62573e-06
3.67026e-06
3.6834e-06
3.40926e-06
2.94139e-06
2.35738e-06
1.85619e-06
1.40173e-06
9.97512e-07
6.98385e-07
6.14241e-07
7.67385e-07
9.87378e-07
1.03457e-06
8.56328e-07
5.40982e-07
1.89388e-07
0
0
0
0
0
0
0
0
0
0
0
0
0
0
0
0
0
0
0
0
0
0
0
0
0
0
7.98049e-08
6.10226e-07
6.81113e-07
4.15998e-07
6.22858e-08
0
0
0
0
0
0
0
0
0
2.92789e-08
1.72927e-07
1.11009e-07
0
0
0
0
0
0
0
0
0
0
6.22168e-06
8.71633e-06
8.16777e-06
7.19283e-06
6.38051e-06
5.81294e-06
5.4623e-06
4.81638e-06
3.70706e-06
2.66229e-06
1.86903e-06
1.28303e-06
8.70374e-07
5.9117e-07
3.90357e-07
2.44429e-07
1.59483e-07
1.30173e-07
1.27767e-07
1.28712e-07
1.18341e-07
1.02428e-07
8.84502e-08
6.68637e-08
2.67804e-08
0
0
0
0
0
0
0
0
0
0
0
0
0
0
0
0
0
1.58389e-07
2.04572e-07
0
0
0
0
0
0
0
0
0
4.03551e-06
1.77334e-05
6.32236e-06
0
0
0
0
0
0
0
0
0
0
0
0
0
0
2.39119e-06
1.20782e-05
8.74687e-06
5.37773e-06
3.91053e-06
3.72154e-06
3.98363e-06
4.58195e-06
5.91262e-06
8.01808e-06
7.69344e-06
6.39607e-06
4.43163e-06
0
0
0
0
0
0
0
0
0
0
0
0
0
0
0
0
0
0
0
0
2.29384e-06
3.00084e-06
3.10841e-06
2.95286e-06
2.72712e-06
2.56077e-06
2.50911e-06
2.5581e-06
2.61232e-06
2.58733e-06
2.35632e-06
1.93441e-06
1.47944e-06
1.17218e-06
8.91612e-07
6.29114e-07
4.3943e-07
4.25486e-07
6.31708e-07
9.15649e-07
1.02791e-06
9.22103e-07
6.9729e-07
4.29715e-07
1.66446e-07
0
0
0
0
0
0
0
0
0
0
0
0
0
0
0
0
0
0
0
0
0
0
0
0
0
0
3.26939e-07
6.11253e-07
4.50559e-07
1.2075e-07
0
0
0
0
0
0
0
0
0
0
0
0
0
0
0
0
0
0
0
0
0
7.1248e-06
6.80041e-06
5.5397e-06
4.69228e-06
4.23016e-06
4.15893e-06
4.31647e-06
3.96973e-06
2.84106e-06
1.7751e-06
1.11101e-06
7.29433e-07
5.08198e-07
3.7714e-07
2.98901e-07
2.4959e-07
2.08474e-07
1.69013e-07
1.42863e-07
1.34168e-07
1.36405e-07
1.30917e-07
1.14391e-07
1.03561e-07
9.71888e-08
6.96552e-08
8.66313e-09
0
0
0
0
0
0
0
0
0
0
0
0
0
0
0
0
4.0498e-07
1.38661e-08
0
4.0638e-08
0
0
0
0
1.00624e-06
3.04638e-07
4.36232e-07
1.09012e-05
8.60876e-06
0
0
0
0
0
0
0
0
0
0
0
1.8222e-06
0
0
0
0
1.21733e-05
1.04268e-05
6.39123e-06
4.17161e-06
3.63803e-06
3.82449e-06
4.47006e-06
5.63844e-06
7.70964e-06
7.82396e-06
6.78488e-06
4.93248e-06
0
0
0
0
0
0
0
0
0
0
0
0
0
0
0
0
0
0
0
0
1.64454e-06
2.25949e-06
2.272e-06
2.05937e-06
1.78301e-06
1.58312e-06
1.51513e-06
1.54672e-06
1.62422e-06
1.66104e-06
1.57377e-06
1.32548e-06
1.01315e-06
7.79214e-07
5.64153e-07
3.49161e-07
1.90041e-07
1.56723e-07
3.22884e-07
6.23448e-07
8.49807e-07
8.80437e-07
7.45197e-07
5.45839e-07
3.57263e-07
1.94903e-07
4.7295e-08
0
0
0
0
0
0
0
0
0
0
0
0
0
0
0
0
0
0
0
0
0
1.23786e-07
2.52895e-08
0
2.76199e-07
6.71428e-07
5.45018e-07
3.22669e-08
0
0
0
0
0
0
0
0
0
0
0
0
0
0
0
0
0
0
0
0
0
2.97798e-06
4.15909e-06
3.21432e-06
2.1996e-06
1.38918e-06
1.04972e-06
1.12318e-06
1.2218e-06
1.14655e-06
9.48297e-07
7.30584e-07
5.47057e-07
4.10977e-07
3.21853e-07
2.73516e-07
2.51724e-07
2.32976e-07
1.99425e-07
1.60016e-07
1.38261e-07
1.38477e-07
1.40422e-07
1.25454e-07
1.09572e-07
1.10244e-07
1.11376e-07
7.347e-08
0
0
0
0
0
0
0
0
0
0
0
0
0
4.4922e-08
0
0
1.95751e-07
0
0
1.88472e-07
0
0
0
0
2.22295e-06
2.69067e-06
5.69608e-06
1.02614e-05
1.049e-06
0
0
0
0
0
0
0
0
0
0
0
3.38482e-06
0
0
0
0
1.00519e-05
1.16773e-05
7.50275e-06
4.60204e-06
3.63829e-06
3.75325e-06
4.71825e-06
5.7198e-06
7.31173e-06
7.73491e-06
7.08176e-06
5.138e-06
0
0
0
0
0
0
0
0
0
0
0
0
0
0
0
0
0
0
0
0
1.52608e-06
2.16367e-06
1.9861e-06
1.60709e-06
1.23414e-06
9.68392e-07
8.55766e-07
8.60194e-07
9.13184e-07
9.70956e-07
9.90793e-07
9.08574e-07
7.3935e-07
5.42382e-07
3.44443e-07
1.49832e-07
0
0
0
2.02976e-07
4.91645e-07
6.76016e-07
6.77813e-07
5.41975e-07
3.75673e-07
2.40284e-07
1.4597e-07
8.69629e-08
6.92902e-08
7.55338e-08
6.10355e-08
0
0
0
0
0
0
0
0
0
0
0
0
0
0
0
0
4.77141e-08
2.87487e-07
3.43036e-07
2.08072e-07
3.05066e-07
7.26102e-07
8.2593e-07
2.44768e-07
0
0
0
0
0
0
0
0
0
0
0
0
0
0
0
0
0
0
0
0
0
0
0
0
0
0
0
0
6.41703e-07
9.40622e-07
9.03807e-07
7.41283e-07
5.73881e-07
4.40338e-07
3.48232e-07
2.95305e-07
2.71421e-07
2.57868e-07
2.3137e-07
1.91403e-07
1.62455e-07
1.54452e-07
1.5344e-07
1.37339e-07
1.08461e-07
9.89627e-08
1.10946e-07
1.11867e-07
5.05106e-08
0
0
0
0
0
0
0
0
0
0
0
0
7.57809e-08
0
0
2.93405e-08
0
0
2.63104e-07
0
0
0
5.11257e-08
3.20413e-06
4.93543e-06
9.95257e-06
6.44395e-06
0
0
0
0
0
0
0
0
0
0
0
1.02934e-07
3.89738e-06
7.00762e-07
0
0
0
5.95779e-06
1.2215e-05
8.31363e-06
5.00071e-06
3.74116e-06
3.83794e-06
5.144e-06
6.20228e-06
7.24055e-06
7.72091e-06
7.45184e-06
5.08212e-06
0
0
0
0
0
0
0
0
0
0
0
3.78427e-08
1.28696e-07
2.54112e-08
0
0
0
0
0
0
1.25373e-06
2.0212e-06
1.84508e-06
1.21856e-06
7.89857e-07
5.87184e-07
4.776e-07
4.36258e-07
4.47391e-07
4.87209e-07
5.32156e-07
5.35887e-07
4.75835e-07
3.41569e-07
1.83494e-07
2.348e-08
0
0
0
0
5.30753e-08
3.02337e-07
4.48657e-07
4.2835e-07
2.9265e-07
1.39613e-07
3.30235e-08
0
6.01276e-09
6.44658e-08
1.38552e-07
2.06546e-07
2.64067e-07
3.19557e-07
3.81435e-07
4.40896e-07
4.69357e-07
4.24701e-07
2.74795e-07
0
0
0
0
0
0
0
0
8.44719e-08
3.94731e-07
5.63573e-07
4.92616e-07
4.66788e-07
7.97565e-07
1.04146e-06
4.83304e-07
0
0
0
0
0
0
0
0
0
0
0
0
0
0
0
0
0
0
0
0
0
0
0
0
0
0
0
5.25638e-07
1.0514e-06
1.10614e-06
9.56404e-07
7.69484e-07
6.08742e-07
4.83526e-07
3.90401e-07
3.30118e-07
2.99996e-07
2.85135e-07
2.6307e-07
2.24576e-07
1.89506e-07
1.71613e-07
1.65154e-07
1.49891e-07
1.14516e-07
9.19894e-08
9.69813e-08
1.11888e-07
9.93868e-08
2.14077e-09
0
0
0
0
0
0
0
0
0
0
0
3.18018e-08
0
0
0
0
0
2.22968e-07
0
0
0
6.44348e-07
3.87582e-06
6.53104e-06
1.2454e-05
5.10562e-06
0
0
0
0
0
0
0
0
0
0
1.514e-06
0
1.04768e-06
9.32972e-09
0
0
0
6.57786e-07
1.19876e-05
8.89046e-06
5.38658e-06
3.9153e-06
3.97086e-06
5.32423e-06
6.47634e-06
7.17398e-06
7.65019e-06
7.85779e-06
4.92653e-06
0
0
0
0
0
0
0
0
0
0
0
2.55335e-07
7.52006e-07
1.24641e-06
1.53546e-06
1.48573e-06
1.061e-06
5.37069e-07
0
8.73386e-08
7.84765e-07
1.18154e-06
1.08538e-06
5.70038e-07
1.78221e-07
1.49616e-07
1.68573e-07
1.37436e-07
1.38361e-07
1.78023e-07
2.20437e-07
2.38421e-07
2.14388e-07
1.45024e-07
4.69524e-08
0
0
0
0
0
0
0
8.33297e-08
1.71941e-07
1.25113e-07
0
0
0
0
0
0
1.10713e-07
2.96622e-07
5.25575e-07
8.12182e-07
1.1584e-06
1.54357e-06
1.89716e-06
2.08019e-06
1.86838e-06
1.07337e-06
0
0
0
0
0
0
9.29798e-08
5.2885e-07
7.96208e-07
7.93987e-07
7.21478e-07
9.35867e-07
1.23764e-06
8.80023e-07
0
0
0
0
0
0
0
0
0
0
0
0
0
0
0
0
0
0
0
0
0
0
3.09939e-07
0
0
0
7.46076e-07
1.05863e-06
1.00765e-06
8.55606e-07
7.03819e-07
5.91288e-07
5.14236e-07
4.52348e-07
3.91867e-07
3.39436e-07
3.04409e-07
2.83486e-07
2.63304e-07
2.31685e-07
1.99167e-07
1.79403e-07
1.72293e-07
1.64146e-07
1.34133e-07
9.83211e-08
8.75531e-08
9.61714e-08
1.01626e-07
6.50107e-08
0
0
0
0
0
0
4.32041e-08
6.9986e-08
1.00658e-07
0
0
9.1873e-08
0
6.60177e-07
0
0
0
5.2523e-08
0
0
0
9.21736e-07
4.1925e-06
7.3842e-06
1.39418e-05
6.58848e-06
1.11764e-06
0
0
0
0
0
0
0
0
5.07894e-06
1.74585e-06
0
0
0
0
0
0
0
1.10856e-05
9.05544e-06
5.50024e-06
3.94694e-06
3.98309e-06
5.37256e-06
6.65316e-06
7.00901e-06
7.07941e-06
7.60211e-06
4.35038e-06
0
0
0
0
0
0
0
0
0
0
0
3.30177e-07
1.0889e-06
1.61496e-06
1.67754e-06
1.17293e-06
3.57673e-07
0
0
2.12104e-07
7.30076e-07
7.48574e-07
5.34623e-07
2.276e-07
0
0
0
0
0
0
0
0
0
0
0
0
0
0
0
0
0
0
0
0
0
0
0
0
0
0
0
0
1.83041e-08
3.27105e-07
7.46227e-07
1.29782e-06
2.00362e-06
2.845e-06
3.70875e-06
4.23935e-06
3.52274e-06
8.69544e-07
0
0
0
0
0
1.89555e-07
7.18677e-07
1.08063e-06
1.08477e-06
9.62434e-07
1.12207e-06
1.44586e-06
1.24807e-06
1.45903e-08
0
0
0
0
0
0
0
0
0
0
0
0
0
0
0
0
0
0
0
0
0
0
0
0
7.70545e-07
9.11401e-07
8.2719e-07
7.04776e-07
5.81626e-07
4.75842e-07
4.05258e-07
3.70847e-07
3.55875e-07
3.4236e-07
3.17702e-07
2.905e-07
2.67794e-07
2.48613e-07
2.267e-07
2.02926e-07
1.84846e-07
1.77884e-07
1.77091e-07
1.60029e-07
1.17469e-07
8.58201e-08
7.7876e-08
8.15099e-08
7.1482e-08
2.12608e-08
0
0
0
0
0
9.09129e-08
1.46985e-07
1.84934e-07
2.79768e-07
3.62805e-07
5.53959e-07
3.61683e-07
1.34021e-06
0
0
0
0
0
0
0
1.01544e-06
4.16681e-06
7.57778e-06
1.44702e-05
9.36976e-06
2.90877e-06
0
0
0
0
0
0
0
6.74363e-06
1.5211e-05
0
0
0
0
0
0
0
0
9.56162e-06
8.79468e-06
5.42802e-06
3.919e-06
3.93831e-06
5.28693e-06
6.7735e-06