/*--------------------------------*- C++ -*----------------------------------*\
  =========                 |
  \\      /  F ield         | OpenFOAM: The Open Source CFD Toolbox
   \\    /   O peration     | Website:  https://openfoam.org
    \\  /    A nd           | Version:  9
     \\/     M anipulation  |
\*---------------------------------------------------------------------------*/
FoamFile
{
    format      ascii;
    class       volScalarField;
    location    "0.066";
    object      s;
}
// * * * * * * * * * * * * * * * * * * * * * * * * * * * * * * * * * * * * * //

dimensions      [0 0 0 0 0 0 0];

internalField   nonuniform List<scalar> 
12225
(
1
1
1
1
1
1
1
1
1
1
1
1
1
1
1
1
1
0.999989
1
1
1
1
1
1
1
1
1
1
1
1
1
1
1
1
1
1
1
1
1
1
1
1
1
1
1
1
1
1
1
1
1
1
1
1
1
1
1
1
1
1
1
1
1
1
1
1
1
1
1
1
1
1
1
1
1
1
1
1
1
1
1
1
1
1
1
1
1
1
1
1
1
1
1
1
1
1
1
1
1
1
1
1
1
1
1
1
1
1
1
1
1
1
1
1
1
1
1
1
1
1
1
1
1
1
1
1
1
1
1
1
1
1
1
1
1
1
1
1
1
1
1
1
1
1
1
1
1
1
1
1
1
1
1
1
1
1
1
1
1
1
1
1
1
1
1
1
1
1
1
1
1
1
1
1
1
1
1
1
1
1
1
1
1
1
1
1
1
1
1
1
1
1
1
1
1
1
1
1
1
1
1
1
1
1
1
1
1
1
1
1
1
1
1
1
1
1
1
1
1
1
1
1
1
1
1
1
1
1
1
1
1
1
1
1
1
1
1
1
1
1
1
1
1
1
1
1
1
1
1
1
1
1
1
1
1
1
1
1
1
1
1
1
1
1
1
1
1
1
1
1
1
1
1
1
1
1
1
1
1
1
1
1
1
1
1
1
1
1
1
1
1
1
1
1
1
1
1
1
1
1
1
1
1
1
1
1
1
1
1
1
1
1
1
1
1
1
1
1
1
1
1
1
1
1
1
1
1
1
1
1
1
1
1
1
1
1
1
1
1
1
1
1
1
1
1
1
1
1
1
1
1
1
1
1
1
1
1
1
1
1
1
1
1
1
1
1
1
1
1
1
1
1
1
1
1
1
1
1
1
1
1
1
1
1
1
1
1
1
1
1
1
1
1
1
1
1
1
1
1
1
1
1
1
1
1
1
1
1
1
1
1
1
1
1
1
1
1
1
1
1
1
1
1
1
1
1
1
1
1
1
1
1
1
1
1
1
1
1
1
1
1
1
1
1
1
1
1
1
1
1
1
1
1
1
1
1
1
1
1
1
1
1
1
1
1
1
1
1
1
1
1
1
1
1
1
1
1
1
1
1
1
1
1
1
1
1
1
1
1
1
1
1
1
1
1
1
1
1
1
1
1
1
1
1
1
1
1
1
1
1
1
1
1
1
1
1
1
1
1
1
1
1
1
1
1
1
1
1
1
1
1
1
1
1
1
1
1
1
1
1
0.667425
0.727873
0.751277
0.75689
0.75955
0.759313
0.758216
0.755705
0.752341
0.74936
0.747371
0.746258
0.744868
0.744051
0.743784
0.743056
0.740975
0.739482
0.736294
0.734235
0.730463
0.724866
0.719288
0.707833
0.698694
0.683063
0.651069
0.634788
0.632214
0.629981
0.623306
0.617013
0.615948
0.621772
0.643829
0.657284
0.662896
0.677296
0.713447
0.690104
0.681034
0.73667
0.775867
0.7916
0.805134
0.817469
0.829643
0.840506
0.850635
0.856628
0.85858
0.859241
0.859388
0.859365
0.858663
0.856474
0.852901
0.848732
0.844174
0.838595
0.832713
0.827485
0.823883
0.822495
0.821935
0.821286
0.821039
0.820787
0.820702
0.821204
0.82198
0.822769
0.823089
0.82304
0.822049
0.817392
0.801268
0.770664
0.754719
0.753287
0.760953
0.78384
0.79461
0.792798
0.79207
0.792804
0.793391
0.793895
0.794612
0.795068
0.795758
0.796418
0.797233
0.798002
0.798724
0.799546
0.800352
0.801266
0.802241
0.803167
0.804247
0.805202
0.806175
0.807147
0.807801
0.808663
0.809438
0.810276
0.81101
0.812028
0.813177
0.815031
0.817915
0.821042
0.824326
0.828456
0.833
0.837234
0.841667
0.845629
0.848895
0.851938
0.854766
0.857424
0.859967
0.862301
0.864255
0.865765
0.866905
0.867748
0.868333
0.868651
0.868698
0.868459
0.867867
0.86731
0.867
0.866988
0.867094
0.867469
0.868501
0.871037
0.874211
0.877692
0.881175
0.884483
0.887717
0.890502
0.892961
0.895179
0.896756
0.897778
0.898028
0.897936
0.897664
0.896721
0.895602
0.893346
0.89077
0.888162
0.879654
0.870964
0.887368
0.920882
0.923339
0.905031
0.885441
0.884224
0.886624
0.888791
0.889445
0.889135
0.887064
0.880266
0.861387
0.804834
0.65905
0.468693
0.398444
0.489601
0.652203
0.67506
0.724069
0.747857
0.751801
0.749107
0.739753
0.723207
0.70133
0.685882
0.674564
0.669081
0.664743
0.660493
0.658499
0.654255
0.652791
0.64985
0.650302
0.652246
0.656612
0.664886
0.675029
0.682114
0.683275
0.680393
0.670548
0.657481
0.644468
0.634254
0.63026
0.627751
0.62312
0.623728
0.63905
0.665954
0.698762
0.692524
0.690462
0.700149
0.726455
0.778243
0.799837
0.821071
0.846917
0.871447
0.88895
0.897779
0.903195
0.904599
0.904364
0.900052
0.891842
0.885273
0.880904
0.873124
0.861614
0.851321
0.841092
0.8294
0.818072
0.807274
0.802164
0.800457
0.800141
0.80056
0.801692
0.803577
0.807725
0.812644
0.817072
0.820123
0.823467
0.823949
0.823007
0.818858
0.805131
0.780447
0.768528
0.770188
0.78784
0.791975
0.791238
0.786843
0.785106
0.78434
0.784183
0.784338
0.785559
0.786897
0.787666
0.789378
0.790561
0.791798
0.793435
0.794937
0.796414
0.798278
0.800421
0.802359
0.8051
0.807506
0.810327
0.813564
0.81613
0.818446
0.819704
0.820092
0.81802
0.813788
0.808435
0.803914
0.802104
0.800527
0.799762
0.800309
0.801896
0.804658
0.808473
0.813655
0.820367
0.828365
0.836955
0.84557
0.854007
0.862201
0.869941
0.877104
0.883506
0.889063
0.893887
0.898188
0.901983
0.905184
0.907704
0.909693
0.91119
0.912374
0.913384
0.914119
0.915182
0.916547
0.918269
0.920163
0.921844
0.92322
0.924405
0.925354
0.926235
0.92738
0.928389
0.929073
0.929766
0.93051
0.930901
0.930855
0.930624
0.930015
0.927769
0.924517
0.916099
0.888488
0.883839
0.887545
0.913703
0.907288
0.897808
0.901549
0.903581
0.903753
0.907112
0.910749
0.914547
0.917963
0.91798
0.913578
0.886618
0.853541
0.850428
0.898803
0.654098
0.707126
0.751217
0.754381
0.748547
0.727454
0.678739
0.629223
0.607532
0.598042
0.593303
0.590123
0.585618
0.580743
0.576463
0.568353
0.561203
0.555129
0.54545
0.542486
0.543397
0.54716
0.557169
0.579248
0.603713
0.642072
0.655819
0.654382
0.649138
0.640321
0.632635
0.627456
0.626155
0.629588
0.654693
0.693408
0.697588
0.695752
0.708232
0.74992
0.806956
0.831993
0.862368
0.901135
0.918803
0.926451
0.928856
0.92858
0.922477
0.916039
0.914075
0.911921
0.907511
0.903169
0.899378
0.891468
0.87901
0.865324
0.849871
0.832538
0.81612
0.803641
0.796337
0.792954
0.791757
0.791844
0.793714
0.800117
0.810682
0.822628
0.830067
0.832405
0.831151
0.828588
0.826066
0.821837
0.807996
0.785091
0.779684
0.785424
0.788058
0.787536
0.782104
0.780697
0.780471
0.781002
0.782601
0.783479
0.784357
0.784543
0.784507
0.784138
0.78299
0.781278
0.779776
0.779133
0.778985
0.780289
0.782577
0.785995
0.791102
0.79676
0.803423
0.811314
0.818817
0.82765
0.8366
0.84419
0.850849
0.856241
0.858861
0.85336
0.846858
0.838374
0.829812
0.821818
0.814882
0.809766
0.807397
0.806958
0.808078
0.81168
0.817463
0.824764
0.833402
0.842603
0.85187
0.860995
0.870173
0.879056
0.88739
0.894851
0.901248
0.906283
0.910283
0.913749
0.916563
0.918886
0.920932
0.922367
0.923906
0.924982
0.92589
0.92688
0.927713
0.928481
0.929635
0.931069
0.932005
0.933449
0.935492
0.936808
0.937639
0.938966
0.940278
0.940444
0.940234
0.939682
0.938088
0.936434
0.933449
0.924902
0.899016
0.89071
0.894489
0.900008
0.891449
0.876854
0.869471
0.871985
0.881258
0.895939
0.911119
0.918822
0.923014
0.924753
0.923185
0.921023
0.922278
0.927266
0.754517
0.766005
0.765018
0.756817
0.722963
0.638018
0.59705
0.585642
0.583617
0.5842
0.58503
0.585582
0.584555
0.581176
0.57713
0.569152
0.557384
0.546268
0.534938
0.523708
0.517932
0.517648
0.519428
0.526175
0.53922
0.566594
0.609
0.637604
0.642589
0.639554
0.63224
0.627397
0.627879
0.636607
0.683372
0.703799
0.700126
0.710402
0.758461
0.833992
0.867241
0.896403
0.927576
0.939269
0.943024
0.943486
0.940106
0.938199
0.938028
0.93904
0.943324
0.946724
0.947644
0.947635
0.944485
0.93711
0.926988
0.911771
0.88953
0.863546
0.837324
0.812176
0.797717
0.791456
0.788869
0.788171
0.791238
0.801036
0.816714
0.831857
0.837219
0.838599
0.83802
0.834516
0.828372
0.819794
0.8033
0.784451
0.782014
0.784388
0.784504
0.779007
0.777381
0.777028
0.776989
0.7769
0.776363
0.773206
0.766125
0.755076
0.741309
0.731728
0.72572
0.720852
0.718544
0.717145
0.716457
0.71629
0.717544
0.719948
0.723644
0.728737
0.736808
0.748542
0.764169
0.783656
0.807485
0.828579
0.849018
0.860318
0.87267
0.879971
0.882416
0.880301
0.876939
0.87251
0.86732
0.861325
0.854387
0.846853
0.839798
0.83441
0.832013
0.832258
0.835927
0.844039
0.852417
0.859818
0.867274
0.874748
0.881954
0.888138
0.893628
0.899015
0.903608
0.907927
0.911448
0.91469
0.917384
0.919399
0.921436
0.922728
0.924018
0.925113
0.926726
0.928531
0.930914
0.934166
0.936978
0.940405
0.945529
0.949665
0.952435
0.955863
0.958135
0.958093
0.95727
0.95517
0.952091
0.946835
0.941587
0.937154
0.927433
0.902164
0.895909
0.894691
0.890913
0.879432
0.871298
0.866534
0.865537
0.86689
0.876921
0.902407
0.917974
0.923888
0.924721
0.923805
0.919993
0.913692
0.771267
0.771072
0.763824
0.730652
0.640635
0.595247
0.583319
0.585092
0.596503
0.610757
0.623378
0.641226
0.649939
0.650299
0.647338
0.635977
0.60425
0.569123
0.541659
0.522972
0.512472
0.508701
0.508654
0.510407
0.515859
0.52897
0.559359
0.60014
0.625706
0.632941
0.62886
0.6269
0.630841
0.653095
0.70489
0.706431
0.707758
0.744396
0.833604
0.889028
0.915418
0.941648
0.95191
0.95455
0.954657
0.951622
0.950719
0.95117
0.954299
0.959185
0.961444
0.962349
0.962582
0.962262
0.960148
0.956498
0.951672
0.944445
0.933253
0.915023
0.885527
0.848355
0.81459
0.79601
0.788252
0.78565
0.785219
0.790549
0.808885
0.828432
0.834894
0.836736
0.836749
0.833148
0.82531
0.812999
0.791581
0.782297
0.781475
0.781856
0.777757
0.773943
0.77288
0.772345
0.770261
0.765007
0.754706
0.734926
0.718019
0.710304
0.705517
0.70209
0.70023
0.69832
0.696622
0.694373
0.693355
0.692913
0.692887
0.694743
0.697118
0.699161
0.703443
0.707455
0.714764
0.72598
0.745435
0.780783
0.820551
0.852851
0.874746
0.889482
0.896935
0.896279
0.894217
0.890624
0.886861
0.883007
0.879438
0.876402
0.87379
0.871484
0.86961
0.868983
0.869339
0.871912
0.879099
0.884106
0.885884
0.886469
0.887822
0.889798
0.891689
0.893013
0.894111
0.895696
0.896867
0.899134
0.900511
0.902954
0.905332
0.908308
0.912083
0.918251
0.924378
0.929485
0.936451
0.944629
0.954298
0.963999
0.972762
0.979381
0.983103
0.985677
0.987174
0.987211
0.986695
0.985054
0.981626
0.974704
0.961661
0.948017
0.940689
0.924772
0.90381
0.896823
0.892265
0.884962
0.880931
0.878595
0.871981
0.866648
0.866704
0.874874
0.903653
0.919311
0.92257
0.920569
0.906563
0.890383
0.773305
0.772326
0.755037
0.69026
0.604344
0.586837
0.591078
0.616076
0.659956
0.688588
0.71121
0.721532
0.72354
0.722085
0.717657
0.706526
0.67311
0.610234
0.559114
0.52883
0.514402
0.509213
0.50852
0.50949
0.513852
0.526281
0.557643
0.592664
0.61454
0.621721
0.623793
0.628008
0.638821
0.686777
0.713005
0.710113
0.724927
0.800523
0.893688
0.929921
0.948686
0.958978
0.961762
0.962037
0.959724
0.958697
0.958776
0.960398
0.9637
0.965932
0.966708
0.966987
0.967034
0.966736
0.965528
0.963435
0.960813
0.957499
0.952691
0.944865
0.931696
0.908264
0.868168
0.821055
0.796778
0.786104
0.782857
0.782474
0.788272
0.807409
0.823846
0.828477
0.829583
0.826574
0.814639
0.795848
0.783166
0.779825
0.779039
0.776736
0.771282
0.769062
0.767966
0.764299
0.754609
0.73538
0.714796
0.705845
0.701328
0.69932
0.698361
0.697466
0.695716
0.692249
0.686951
0.681122
0.677426
0.675671
0.675251
0.678293
0.683879
0.686456
0.69134
0.69381
0.698034
0.704467
0.716496
0.73881
0.784707
0.839116
0.877049
0.902027
0.920453
0.921579
0.91822
0.910713
0.902441
0.895233
0.889757
0.885879
0.883183
0.881381
0.88045
0.880342
0.880927
0.883835
0.889491
0.894154
0.896821
0.897632
0.897617
0.897054
0.894736
0.889847
0.884299
0.879042
0.873548
0.869514
0.867589
0.867781
0.872393
0.887401
0.903616
0.915232
0.928244
0.94131
0.957986
0.973837
0.984803
0.990369
0.992923
0.994127
0.994334
0.994547
0.994892
0.995242
0.995536
0.995625
0.995298
0.993799
0.989629
0.978353
0.955636
0.944309
0.923189
0.905364
0.896669
0.889382
0.885173
0.883564
0.880998
0.873381
0.868087
0.868763
0.882837
0.910352
0.917781
0.914374
0.891563
0.870145
0.778364
0.773045
0.736517
0.628689
0.585218
0.589166
0.621567
0.69401
0.731633
0.743021
0.745235
0.743051
0.739158
0.735142
0.730375
0.724283
0.711505
0.672455
0.594833
0.544935
0.523563
0.516668
0.514877
0.51601
0.522202
0.538059
0.568507
0.596891
0.612937
0.619293
0.624607
0.634587
0.663559
0.711603
0.715671
0.717281
0.755671
0.872206
0.932156
0.953671
0.962662
0.965656
0.965984
0.963801
0.962241
0.962035
0.962644
0.964657
0.967186
0.968122
0.968447
0.968535
0.968514
0.968172
0.967215
0.965723
0.964159
0.962686
0.960786
0.95786
0.952982
0.94391
0.926257
0.891551
0.83525
0.799597
0.784654
0.780015
0.779189
0.782557
0.795363
0.805046
0.807492
0.806633
0.793598
0.783109
0.778914
0.77707
0.775378
0.771294
0.766559
0.763704
0.758255
0.746207
0.725399
0.708047
0.701107
0.69875
0.698334
0.69954
0.699584
0.698708
0.694357
0.682008
0.660962
0.639852
0.627662
0.622071
0.620515
0.628229
0.650162
0.662428
0.676228
0.683556
0.688764
0.69327
0.701366
0.717437
0.754116
0.820601
0.878071
0.918606
0.9466
0.958868
0.957997
0.95137
0.937738
0.922021
0.908522
0.898331
0.891398
0.88701
0.884611
0.883759
0.883821
0.885155
0.8898
0.894764
0.898084
0.899582
0.89981
0.899351
0.89657
0.88715
0.872523
0.857296
0.84763
0.843841
0.843558
0.846064
0.858532
0.881946
0.903761
0.926175
0.951118
0.974664
0.987419
0.993343
0.995813
0.996118
0.995861
0.995269
0.994058
0.99325
0.993276
0.993591
0.994373
0.996071
0.997094
0.997141
0.996583
0.993772
0.985072
0.963338
0.94373
0.9246
0.908203
0.897142
0.890707
0.888253
0.886765
0.882835
0.873246
0.870234
0.873778
0.896974
0.911413
0.908982
0.884822
0.862051
0.783683
0.770494
0.698209
0.594736
0.581939
0.610836
0.702205
0.750765
0.75992
0.758032
0.751797
0.744887
0.738925
0.734133
0.729171
0.724943
0.719178
0.705603
0.661347
0.581892
0.540448
0.530259
0.533145
0.537999
0.547443
0.568251
0.587512
0.60325
0.613916
0.621082
0.632193
0.659107
0.704698
0.719783
0.718696
0.732477
0.807597
0.920897
0.953913
0.964273
0.967392
0.967902
0.966518
0.963835
0.962759
0.962739
0.963572
0.96567
0.967996
0.968828
0.96912
0.969185
0.969134
0.968702
0.96764
0.966331
0.965366
0.964778
0.96422
0.963545
0.962313
0.959614
0.953622
0.940604
0.913135
0.858366
0.80594
0.784918
0.77743
0.775926
0.776583
0.782509
0.78547
0.785908
0.781803
0.777392
0.776096
0.774763
0.772485
0.767067
0.759128
0.753005
0.745391
0.727473
0.705261
0.69722
0.694847
0.694656
0.699144
0.704259
0.705544
0.70477
0.695899
0.671876
0.635798
0.596081
0.571722
0.56205
0.559501
0.563662
0.579783
0.608395
0.641694
0.664352
0.678369
0.687266
0.694735
0.706302
0.731637
0.797913
0.870501
0.923517
0.956631
0.974775
0.982104
0.982464
0.979335
0.968479
0.948643
0.928272
0.912459
0.900772
0.89278
0.88799
0.885811
0.885387
0.886044
0.8896
0.894933
0.89837
0.899498
0.899295
0.896556
0.88317
0.85898
0.844142
0.838149
0.837078
0.837856
0.842049
0.857284
0.889635
0.926966
0.962787
0.982959
0.992531
0.996311
0.997129
0.996934
0.995803
0.992181
0.987844
0.982544
0.978623
0.978371
0.979163
0.981351
0.986203
0.991992
0.995701
0.997035
0.996915
0.994979
0.987571
0.967038
0.944085
0.926707
0.912877
0.902438
0.898548
0.898149
0.896877
0.887434
0.875021
0.874321
0.885495
0.904049
0.90407
0.885482
0.861205
0.789237
0.76204
0.655822
0.583375
0.588888
0.664828
0.758195
0.772818
0.770386
0.762065
0.75002
0.739013
0.72991
0.72454
0.721308
0.719079
0.716176
0.707737
0.679279
0.62407
0.57564
0.55365
0.553686
0.565281
0.579904
0.586981
0.598281
0.610387
0.620227
0.634767
0.667812
0.707237
0.72217
0.723208
0.726301
0.765692
0.891097
0.948253
0.963941
0.967875
0.968531
0.967887
0.965678
0.963127
0.962463
0.962518
0.963767
0.966149
0.968676
0.969712
0.969975
0.96999
0.969658
0.96864
0.967413
0.966422
0.965903
0.965797
0.965879
0.966092
0.966146
0.965725
0.964284
0.960512
0.951589
0.931899
0.889785
0.81976
0.788622
0.776163
0.77326
0.77306
0.775543
0.776612
0.776492
0.774413
0.77296
0.771507
0.766553
0.758749
0.749308
0.742317
0.729773
0.706981
0.693335
0.690056
0.689835
0.693625
0.70478
0.716527
0.718849
0.718742
0.712888
0.695279
0.662495
0.612203
0.569279
0.55289
0.548438
0.549793
0.55658
0.574678
0.612433
0.64795
0.671915
0.685258
0.693052
0.703499
0.725038
0.782928
0.864255
0.924068
0.960348
0.979937
0.989336
0.992625
0.992749
0.99147
0.986924
0.973989
0.95296
0.932439
0.915871
0.902884
0.893693
0.888017
0.88521
0.884383
0.884944
0.88946
0.89377
0.894345
0.89155
0.875013
0.851495
0.840205
0.836578
0.836384
0.838113
0.846586
0.873952
0.928264
0.966594
0.985766
0.994313
0.997366
0.997748
0.99718
0.994429
0.987355
0.973648
0.962287
0.953354
0.946265
0.944569
0.945334
0.94827
0.955346
0.969516
0.983576
0.992449
0.996006
0.99629
0.994837
0.987778
0.966402
0.946202
0.930661
0.918687
0.913997
0.913668
0.913185
0.907758
0.886697
0.877741
0.880818
0.896473
0.899332
0.887188
0.863011
0.791053
0.744554
0.617574
0.580284
0.612078
0.733864
0.780783
0.782994
0.776793
0.763379
0.747074
0.731047
0.71974
0.7136
0.710822
0.709463
0.708006
0.702292
0.685625
0.654376
0.621919
0.603551
0.599169
0.599262
0.599092
0.605866
0.617959
0.632702
0.655707
0.690349
0.717867
0.727476
0.728311
0.729378
0.747898
0.840441
0.934801
0.96106
0.96738
0.96844
0.968391
0.966626
0.962753
0.961315
0.961185
0.962121
0.964255
0.967445
0.969905
0.970539
0.970605
0.97031
0.969452
0.968282
0.966952
0.966505
0.966438
0.966487
0.966698
0.967106
0.96749
0.9676
0.967543
0.966876
0.964881
0.959582
0.946382
0.91531
0.849656
0.796419
0.777184
0.77164
0.770918
0.772323
0.772917
0.772472
0.770314
0.767307
0.76174
0.753596
0.743619
0.732315
0.719835
0.698777
0.687627
0.684498
0.684161
0.687731
0.699856
0.715863
0.724262
0.7275
0.728058
0.722449
0.700086
0.65512
0.597036
0.562803
0.549581
0.549897
0.554366
0.568564
0.604343
0.643075
0.670092
0.685556
0.694402
0.704251
0.724449
0.77929
0.863955
0.928273
0.964789
0.983208
0.9923
0.996111
0.997144
0.997094
0.996466
0.994436
0.989041
0.976208
0.957404
0.936691
0.918251
0.903229
0.892216
0.885461
0.882146
0.881142
0.881253
0.881179
0.878351
0.863389
0.846639
0.839305
0.838099
0.839172
0.845496
0.868407
0.925553
0.965446
0.985615
0.994574
0.997757
0.998158
0.997388
0.993253
0.981309
0.959996
0.94533
0.938047
0.933726
0.930714
0.928756
0.927873
0.927753
0.928336
0.931607
0.945265
0.972501
0.988542
0.994707
0.995481
0.994055
0.986433
0.966219
0.948318
0.93513
0.929599
0.929073
0.928935
0.925977
0.90712
0.885008
0.882618
0.890209
0.895462
0.889594
0.867889
0.790787
0.718266
0.600193
0.58207
0.649229
0.768204
0.796531
0.798382
0.789736
0.770475
0.742893
0.721653
0.71135
0.70671
0.704384
0.702421
0.700136
0.694892
0.683796
0.666582
0.647767
0.632206
0.623651
0.62608
0.637335
0.656828
0.678579
0.70087
0.720438
0.732347
0.735321
0.734514
0.734411
0.745821
0.800581
0.912915
0.954964
0.965726
0.967914
0.968193
0.966993
0.962638
0.960525
0.960113
0.960645
0.962423
0.965727
0.969563
0.97068
0.97087
0.970716
0.970101
0.96893
0.967448
0.966811
0.966631
0.966618
0.966656
0.9668
0.967198
0.967654
0.967988
0.968125
0.968183
0.968128
0.967303
0.964756
0.957332
0.938029
0.892135
0.813632
0.781251
0.770191
0.768398
0.769025
0.769453
0.767954
0.763505
0.757116
0.745887
0.731872
0.718561
0.706459
0.688132
0.673738
0.671729
0.673224
0.675561
0.684051
0.698104
0.711301
0.717673
0.716383
0.707149
0.68314
0.646193
0.601233
0.56994
0.559788
0.560281
0.564891
0.578486
0.610135
0.64938
0.678559
0.696388
0.70639
0.716822
0.73787
0.794169
0.880496
0.941035
0.973889
0.988603
0.994897
0.997726
0.998761
0.998956
0.998894
0.998584
0.997696
0.995531
0.990765
0.980345
0.96239
0.940422
0.919106
0.902161
0.889807
0.882153
0.878056
0.871908
0.861539
0.850235
0.843461
0.842415
0.84333
0.848074
0.865346
0.917148
0.960906
0.983682
0.993962
0.997784
0.998502
0.997947
0.993716
0.978928
0.952632
0.940945
0.935571
0.932922
0.930654
0.928881
0.927734
0.926769
0.925666
0.924152
0.923404
0.924462
0.931584
0.960255
0.984985
0.993472
0.99455
0.992878
0.9848
0.965401
0.95069
0.944083
0.94308
0.943008
0.94127
0.928587
0.897081
0.886005
0.887865
0.89263
0.890292
0.874812
0.787216
0.68475
0.586356
0.589479
0.686039
0.799553
0.822419
0.821894
0.806204
0.771246
0.730124
0.713254
0.707315
0.70443
0.702178
0.699072
0.694518
0.688878
0.681093
0.670713
0.662942
0.659635
0.671713
0.692664
0.711499
0.726811
0.73656
0.743109
0.746175
0.743677
0.741688
0.741137
0.749154
0.785189
0.892383
0.945331
0.962679
0.966817
0.967569
0.966792
0.962606
0.960163
0.959529
0.95964
0.960843
0.963651
0.968596
0.970471
0.970874
0.970868
0.970513
0.969478
0.96788
0.966618
0.966077
0.965785
0.965509
0.965382
0.965361
0.965838
0.966409
0.967239
0.967661
0.968225
0.968462
0.968528
0.968433
0.967509
0.964245
0.954054
0.926007
0.859488
0.793096
0.770482
0.765225
0.765215
0.765396
0.761804
0.753798
0.744704
0.73185
0.717949
0.705998
0.690808
0.672604
0.660079
0.651458
0.646697
0.644818
0.645914
0.649216
0.648597
0.641669
0.624855
0.604611
0.58696
0.577513
0.568284
0.570656
0.578573
0.593404
0.621816
0.659634
0.692103
0.71365
0.724254
0.731267
0.74211
0.766631
0.83125
0.90534
0.95471
0.980832
0.992506
0.997056
0.998763
0.999414
0.999621
0.999638
0.999599
0.99945
0.999056
0.998179
0.996444
0.992835
0.984785
0.967327
0.943811
0.920763
0.901948
0.886934
0.872556
0.858916
0.851696
0.850891
0.851896
0.855914
0.868269
0.907938
0.953989
0.980489
0.992826
0.997575
0.998796
0.998595
0.995738
0.982606
0.953503
0.941061
0.936317
0.934119
0.932805
0.932081
0.93254
0.934301
0.935151
0.934673
0.932762
0.926626
0.922113
0.922341
0.928214
0.956604
0.98415
0.992807
0.993675
0.991645
0.981653
0.965253
0.957107
0.955291
0.955078
0.953865
0.945661
0.913917
0.891908
0.889191
0.890781
0.889944
0.880399
0.778701
0.647165
0.576423
0.601053
0.725963
0.82517
0.840663
0.837226
0.812389
0.761044
0.723683
0.711808
0.707129
0.704698
0.70234
0.699346
0.696392
0.694683
0.693829
0.69625
0.708588
0.72525
0.73672
0.745754
0.753197
0.756429
0.757374
0.756098
0.752152
0.749975
0.749586
0.756906
0.78682
0.87623
0.935332
0.958108
0.964997
0.966419
0.966087
0.962845
0.960079
0.95924
0.959138
0.959753
0.961713
0.966648
0.969868
0.970718
0.970848
0.970693
0.969848
0.968076
0.966184
0.964761
0.963561
0.962065
0.960289
0.959403
0.959096
0.959792
0.961204
0.963143
0.964883
0.966352
0.967632
0.96832
0.968651
0.968744
0.96859
0.967653
0.963928
0.951463
0.916066
0.835844
0.779063
0.762109
0.760056
0.759249
0.755198
0.746823
0.735739
0.722555
0.710589
0.698711
0.683175
0.666524
0.653568
0.644036
0.634595
0.626573
0.617911
0.608932
0.601751
0.593217
0.587835
0.583669
0.585012
0.590803
0.603401
0.624396
0.649235
0.683912
0.717328
0.74039
0.753278
0.758204
0.764556
0.778391
0.812872
0.885348
0.941818
0.973078
0.988282
0.995225
0.998161
0.999296
0.999713
0.999854
0.999886
0.999883
0.999862
0.999794
0.999617
0.999271
0.998643
0.997358
0.994607
0.988231
0.972919
0.948478
0.918641
0.891129
0.874632
0.870531
0.87108
0.874152
0.882932
0.9102
0.953552
0.979784
0.992204
0.997355
0.998991
0.99906
0.997747
0.989052
0.959952
0.943454
0.937825
0.93561
0.935807
0.937376
0.941153
0.946783
0.955073
0.959763
0.959921
0.958404
0.95359
0.937926
0.92547
0.924121
0.929528
0.959145
0.985389
0.992557
0.992963
0.990107
0.978422
0.968545
0.965671
0.965169
0.964061
0.958431
0.931972
0.900805
0.891265
0.890359
0.889309
0.882559
0.763967
0.612188
0.573545
0.616757
0.758339
0.841506
0.852892
0.846672
0.813871
0.754254
0.724654
0.717627
0.715379
0.71471
0.714812
0.716802
0.722588
0.731913
0.746429
0.761585
0.767114
0.768604
0.768837
0.767706
0.766883
0.766534
0.764668
0.761397
0.759645
0.760424
0.76883
0.800185
0.869505
0.927784
0.953166
0.962381
0.964839
0.965123
0.96346
0.96051
0.959275
0.959015
0.959185
0.960366
0.964176
0.968596
0.970262
0.970672
0.970704
0.970214
0.968726
0.966278
0.963419
0.960484
0.956686
0.951481
0.947501
0.945623
0.944962
0.945967
0.94878
0.953135
0.957265
0.961517
0.964077
0.966166
0.967503
0.968332
0.96869
0.968788
0.968728
0.967998
0.965144
0.953823
0.918947
0.83607
0.773121
0.758885
0.755935
0.751532
0.745223
0.73704
0.727652
0.716231
0.707575
0.696416
0.682972
0.668679
0.655642
0.643847
0.634574
0.627003
0.621564
0.619511
0.621372
0.627106
0.63767
0.65464
0.677504
0.700041
0.731558
0.758716
0.774567
0.782681
0.793614
0.803227
0.81518
0.840958
0.898014
0.951414
0.978393
0.990688
0.996102
0.9984
0.999346
0.999727
0.999882
0.999944
0.999965
0.999968
0.999965
0.999955
0.999926
0.999851
0.999728
0.999508
0.999059
0.998094
0.995833
0.989775
0.969406
0.934844
0.91504
0.910772
0.911657
0.916171
0.932175
0.963528
0.982974
0.992953
0.997452
0.999133
0.999411
0.998981
0.99486
0.972218
0.947939
0.939763
0.937221
0.93795
0.941343
0.949955
0.961029
0.96871
0.971925
0.972165
0.971569
0.97111
0.970363
0.9675
0.950861
0.930604
0.928386
0.935032
0.966898
0.987789
0.992549
0.992364
0.987924
0.978146
0.97427
0.973378
0.972198
0.96802
0.948494
0.911997
0.895174
0.891062
0.888903
0.882095
0.741918
0.588401
0.573974
0.633976
0.785223
0.854262
0.863034
0.855591
0.821174
0.76184
0.737874
0.733083
0.73265
0.735827
0.746514
0.76125
0.775244
0.790959
0.801135
0.803283
0.802942
0.800026
0.794591
0.787404
0.779978
0.776531
0.774119
0.77281
0.775638
0.788155
0.818828
0.869442
0.921944
0.948518
0.959745
0.963664
0.964556
0.964437
0.96266
0.960082
0.959223
0.959068
0.95958
0.962201
0.966543
0.969242
0.970208
0.970456
0.970185
0.968943
0.966384
0.962166
0.956542
0.949826
0.942724
0.93753
0.933975
0.932265
0.931665
0.932089
0.933818
0.937251
0.943914
0.952037
0.957941
0.961983
0.96467
0.966345
0.967334
0.967903
0.968344
0.968575
0.968743
0.968767
0.968079
0.964988
0.951009
0.899532
0.814895
0.765723
0.756847
0.74991
0.744733
0.737255
0.729812
0.721134
0.715683
0.707149
0.703626
0.697371
0.692853
0.68988
0.689575
0.691329
0.695789
0.705317
0.716289
0.736815
0.754501
0.777819
0.802926
0.82116
0.838032
0.855503
0.879228
0.895228
0.911378
0.945088
0.969605
0.984614
0.992689
0.99668
0.998553
0.99939
0.999747
0.999894
0.999955
0.99998
0.999989
0.999992
0.999992
0.99999
0.999986
0.999974
0.99995
0.999913
0.999839
0.999679
0.999288
0.998161
0.994224
0.980412
0.968911
0.96672
0.967378
0.970376
0.979766
0.989388
0.995115
0.99804
0.999316
0.999663
0.999559
0.99819
0.988566
0.958522
0.942659
0.93863
0.938967
0.942323
0.953346
0.967956
0.97414
0.976177
0.976064
0.97437
0.971946
0.971544
0.971874
0.97231
0.970539
0.954931
0.934151
0.933318
0.94383
0.976896
0.990246
0.992755
0.991777
0.986232
0.98127
0.979849
0.978618
0.97525
0.961605
0.924907
0.90126
0.892748
0.889223
0.88037
0.716632
0.580479
0.576824
0.65091
0.804021
0.86581
0.874311
0.86863
0.839029
0.783119
0.757375
0.752619
0.752686
0.759321
0.776856
0.798848
0.815263
0.827868
0.836108
0.837429
0.83683
0.834133
0.828797
0.821344
0.812084
0.80478
0.802435
0.803364
0.817309
0.84426
0.879407
0.917167
0.944741
0.957073
0.962182
0.964048
0.964571
0.96442
0.962776
0.960291
0.959515
0.959583
0.961131
0.964298
0.967497
0.969204
0.969971
0.970093
0.969567
0.967586
0.9629
0.956319
0.948483
0.941152
0.934994
0.931025
0.928875
0.927846
0.927493
0.927703
0.92847
0.930073
0.933057
0.938887
0.94907
0.956586
0.961078
0.963905
0.965621
0.966529
0.966822
0.966936
0.966681
0.966548
0.967657
0.969337
0.970524
0.971085
0.969853
0.950214
0.925966
0.889719
0.852029
0.821468
0.798677
0.780123
0.768243
0.757113
0.748198
0.741775
0.738196
0.736901
0.738094
0.741861
0.748106
0.760763
0.776354
0.800263
0.830037
0.860321
0.888622
0.91259
0.936083
0.954122
0.966613
0.973751
0.980417
0.987095
0.992465
0.995989
0.998002
0.999052
0.999569
0.999812
0.99992
0.999966
0.999986
0.999994
0.999997
0.999998
0.999998
0.999998
0.999998
0.999996
0.999993
0.999987
0.999977
0.999954
0.999895
0.999711
0.99901
0.996214
0.993334
0.992527
0.992562
0.99312
0.995266
0.997567
0.998898
0.999576
0.999822
0.999812
0.999435
0.996482
0.978913
0.951298
0.940114
0.938437
0.939984
0.948994
0.966755
0.97519
0.977826
0.977898
0.977005
0.97228
0.965238
0.964059
0.965131
0.969919
0.972223
0.969996
0.951579
0.936787
0.93856
0.957987
0.9841
0.991899
0.992871
0.991334
0.986812
0.984875
0.983597
0.980723
0.970937
0.938392
0.907591
0.896116
0.890089
0.876098
0.694671
0.579122
0.581623
0.665815
0.815539
0.875301
0.885341
0.882255
0.859222
0.809757
0.778102
0.771503
0.77099
0.775864
0.792288
0.817634
0.839549
0.850608
0.857012
0.860475
0.861798
0.863474
0.864007
0.860614
0.852214
0.846876
0.845478
0.848382
0.861812
0.88263
0.911755
0.940747
0.955231
0.961611
0.964202
0.964916
0.964896
0.964663
0.963353
0.961158
0.960598
0.96112
0.962822
0.965325
0.967487
0.96899
0.969617
0.969594
0.968376
0.964695
0.957818
0.949956
0.942331
0.936257
0.93165
0.928728
0.927157
0.926477
0.926411
0.926611
0.927072
0.928129
0.929951
0.933423
0.941304
0.951606
0.95868
0.962422
0.96426
0.965371
0.966058
0.966309
0.965929
0.96471
0.963207
0.962906
0.96515
0.968491
0.970963
0.971393
0.971314
0.970839
0.969378
0.965742
0.958833
0.947896
0.935411
0.919572
0.902565
0.883916
0.872025
0.860979
0.860461
0.863005
0.86977
0.883867
0.904099
0.925096
0.942247
0.956172
0.967535
0.976476
0.983403
0.988506
0.991943
0.994255
0.996032
0.997447
0.998487
0.999172
0.999576
0.999793
0.999902
0.999956
0.99998
0.999991
0.999996
0.999998
0.999999
1
1
1
1
1
0.999999
0.999999
0.999997
0.999995
0.999988
0.999965
0.999874
0.999462
0.998849
0.998622
0.99861
0.998705
0.999107
0.999542
0.9998
0.999919
0.99993
0.999837
0.999041
0.993994
0.970684
0.947192
0.938725
0.937822
0.940902
0.956272
0.971318
0.977341
0.978526
0.978214
0.975533
0.964038
0.948455
0.944047
0.945537
0.953695
0.967454
0.970487
0.966481
0.945811
0.940137
0.946512
0.97323
0.9894
0.993304
0.993274
0.991154
0.988739
0.987384
0.984809
0.977368
0.949633
0.915507
0.901165
0.889553
0.873662
0.681587
0.579991
0.587567
0.675776
0.818403
0.879697
0.894316
0.894205
0.879575
0.840551
0.802059
0.7916
0.789803
0.791147
0.800283
0.819688
0.84281
0.859791
0.869031
0.875199
0.878024
0.879328
0.882323
0.886777
0.886218
0.880317
0.877078
0.877897
0.890657
0.906933
0.926477
0.948054
0.958262
0.962979
0.965147
0.966011
0.966099
0.965745
0.964885
0.96349
0.962888
0.962786
0.963556
0.965401
0.967324
0.968559
0.968934
0.968637
0.967005
0.962645
0.956071
0.949036
0.942275
0.936456
0.932032
0.929147
0.927514
0.926695
0.926511
0.926595
0.926933
0.927865
0.929509
0.932318
0.938966
0.949649
0.957683
0.961962
0.963938
0.964763
0.965153
0.965261
0.965201
0.964634
0.962891
0.960509
0.958656
0.957984
0.958577
0.962541
0.967566
0.971507
0.974096
0.974804
0.974464
0.973015
0.97132
0.968742
0.964847
0.961487
0.958773
0.954684
0.952313
0.952216
0.952666
0.954363
0.957547
0.961547
0.966529
0.972315
0.978397
0.984156
0.989122
0.992985
0.995691
0.997463
0.998565
0.999221
0.999595
0.999799
0.999904
0.999956
0.99998
0.999991
0.999996
0.999998
0.999999
1
1
1
1
1
1
1
1
1
1
0.999999
0.999999
0.999996
0.999985