/*--------------------------------*- C++ -*----------------------------------*\
  =========                 |
  \\      /  F ield         | OpenFOAM: The Open Source CFD Toolbox
   \\    /   O peration     | Website:  https://openfoam.org
    \\  /    A nd           | Version:  9
     \\/     M anipulation  |
\*---------------------------------------------------------------------------*/
FoamFile
{
    format      ascii;
    class       volVectorField;
    location    "0.066";
    object      U;
}
// * * * * * * * * * * * * * * * * * * * * * * * * * * * * * * * * * * * * * //

dimensions      [0 1 -1 0 0 0 0];

internalField   nonuniform List<vector> 
12225
(
(9.77862 0.0559033 0)
(9.54782 0.0764348 0)
(9.2464 0.064687 0)
(8.89495 0.061022 0)
(8.57357 0.0620141 0)
(8.31008 0.0610115 0)
(8.0846 0.0652894 0)
(7.85405 0.0790018 0)
(7.5793 0.0920379 0)
(7.26549 0.0906537 0)
(6.95617 0.0731486 0)
(6.68498 0.0502319 0)
(6.45644 0.0371811 0)
(6.23733 0.0409055 0)
(5.98569 0.0583409 0)
(5.70389 0.0811976 0)
(5.30645 0.10649 0)
(4.97422 0.112167 0)
(10.3199 -0.0197244 0)
(10.1601 0.0526888 0)
(10.1263 0.0817965 0)
(10.1209 0.0922034 0)
(10.1158 0.0780501 0)
(10.097 0.0595127 0)
(10.0561 0.0502762 0)
(10.003 0.0534259 0)
(9.95097 0.0676606 0)
(9.90061 0.0847489 0)
(9.84516 0.0967617 0)
(9.77693 0.102368 0)
(9.69332 0.10537 0)
(9.60212 0.115639 0)
(9.50438 0.134639 0)
(9.4068 0.163919 0)
(9.28548 0.208749 0)
(9.17463 0.259641 0)
(10.1707 0.085439 0)
(10.2135 0.129504 0)
(10.1456 0.0835156 0)
(10.1733 0.0608149 0)
(10.2422 0.0619007 0)
(10.2896 0.070662 0)
(10.2914 0.0873465 0)
(10.2506 0.109426 0)
(10.1868 0.128661 0)
(10.1193 0.135921 0)
(10.0562 0.129797 0)
(9.99555 0.117569 0)
(9.93668 0.108566 0)
(9.88404 0.110306 0)
(9.85225 0.126387 0)
(9.84197 0.159032 0)
(9.85688 0.2033 0)
(9.89285 0.26161 0)
(9.88577 -0.120587 0)
(9.84461 0.0806024 0)
(9.89567 0.0893252 0)
(9.99927 0.066211 0)
(10.101 0.0479756 0)
(10.1558 0.048161 0)
(10.1504 0.0672092 0)
(10.1082 0.0920244 0)
(10.0635 0.111344 0)
(10.0345 0.122056 0)
(10.0179 0.126784 0)
(9.99982 0.130014 0)
(9.97222 0.135054 0)
(9.93698 0.144284 0)
(9.90506 0.159057 0)
(9.88803 0.180389 0)
(9.89077 0.210592 0)
(9.92242 0.252572 0)
(10.1438 0.118432 0)
(10.1756 0.144999 0)
(10.1116 0.0526336 0)
(10.0305 0.00881989 0)
(9.9788 0.0148604 0)
(9.96235 0.0496825 0)
(9.9615 0.0946411 0)
(9.96957 0.13031 0)
(9.99068 0.148735 0)
(10.021 0.153425 0)
(10.0454 0.151518 0)
(10.0486 0.148858 0)
(10.0246 0.148067 0)
(9.98069 0.149752 0)
(9.92802 0.154478 0)
(9.88627 0.165506 0)
(9.85741 0.18486 0)
(9.85687 0.212873 0)
(9.71718 -0.0549194 0)
(9.9514 0.0750129 0)
(10.0795 0.124357 0)
(10.0633 0.110168 0)
(9.9723 0.0703233 0)
(9.90083 0.0561462 0)
(9.8756 0.0712863 0)
(9.88447 0.089662 0)
(9.91529 0.0979442 0)
(9.96216 0.101466 0)
(10.0198 0.109958 0)
(10.0768 0.127985 0)
(10.1155 0.152401 0)
(10.1199 0.177975 0)
(10.078 0.199468 0)
(9.99952 0.217349 0)
(9.89799 0.231281 0)
(9.80244 0.244746 0)
(9.92938 0.125358 0)
(9.84781 0.0376821 0)
(9.94637 0.0320714 0)
(10.056 0.0572749 0)
(10.09 0.0688019 0)
(10.0882 0.076784 0)
(10.0741 0.0919777 0)
(10.0485 0.106392 0)
(10.0155 0.111857 0)
(9.9859 0.109652 0)
(9.97215 0.10774 0)
(9.97864 0.115573 0)
(10.001 0.138088 0)
(10.0256 0.174775 0)
(10.0425 0.217945 0)
(10.0391 0.258598 0)
(10.0214 0.289458 0)
(9.98289 0.306136 0)
(10.2076 0.0527078 0)
(10.1769 0.059098 0)
(10.136 0.0524782 0)
(10.1437 0.0566289 0)
(10.1449 0.0524284 0)
(10.1071 0.0639404 0)
(10.0402 0.0948229 0)
(9.9794 0.123196 0)
(9.94672 0.1324 0)
(9.93764 0.123823 0)
(9.93611 0.110568 0)
(9.93241 0.106644 0)
(9.92699 0.119707 0)
(9.92491 0.148568 0)
(9.93065 0.186498 0)
(9.94327 0.224885 0)
(9.96084 0.257952 0)
(9.97781 0.283138 0)
(9.98936 0.04932 0)
(10.0937 0.0368161 0)
(10.1627 0.0634142 0)
(10.1803 0.0678436 0)
(10.1728 0.0843538 0)
(10.1696 0.117397 0)
(10.1792 0.137734 0)
(10.197 0.135063 0)
(10.2007 0.121564 0)
(10.1647 0.112553 0)
(10.085 0.115495 0)
(9.98556 0.130563 0)
(9.89787 0.154564 0)
(9.84544 0.18399 0)
(9.83242 0.214938 0)
(9.85037 0.244458 0)
(9.88326 0.269873 0)
(9.91454 0.28942 0)
(9.99147 -0.00843935 0)
(10.041 -0.0512188 0)
(10.0663 0.028675 0)
(10.0649 0.047938 0)
(10.0451 0.049218 0)
(10.0437 0.0645629 0)
(10.0646 0.0899958 0)
(10.0878 0.121891 0)
(10.0898 0.157293 0)
(10.0576 0.187836 0)
(9.99499 0.203429 0)
(9.92181 0.201407 0)
(9.85913 0.18861 0)
(9.82223 0.17602 0)
(9.81716 0.174051 0)
(9.84024 0.185303 0)
(9.88469 0.21071 0)
(9.93522 0.245946 0)
(10.0083 -0.0682004 0)
(9.9918 -0.0135073 0)
(10.0195 0.0696906 0)
(10.0743 0.0792384 0)
(10.0949 0.0953962 0)
(10.0734 0.110324 0)
(10.0358 0.108797 0)
(10.0142 0.108083 0)
(10.0253 0.12587 0)
(10.0659 0.159277 0)
(10.1237 0.193156 0)
(10.1843 0.215912 0)
(10.2322 0.224892 0)
(10.253 0.222093 0)
(10.2384 0.21357 0)
(10.196 0.205505 0)
(10.1349 0.205204 0)
(10.0745 0.218527 0)
(10.1525 -0.0559418 0)
(9.97018 -0.00794002 0)
(9.87554 0.000877186 0)
(9.89967 0.0091369 0)
(10.0325 0.0537665 0)
(10.1664 0.102508 0)
(10.2049 0.129774 0)
(10.1384 0.138665 0)
(10.033 0.140686 0)
(9.95967 0.139495 0)
(9.95161 0.13493 0)
(10.0015 0.131991 0)
(10.0824 0.139869 0)
(10.161 0.165232 0)
(10.2108 0.205534 0)
(10.2182 0.252017 0)
(10.1861 0.297085 0)
(10.1271 0.331708 0)
(9.98638 0.0713722 0)
(9.9217 0.141124 0)
(9.81734 0.0758412 0)
(9.76489 -0.00716516 0)
(9.79569 -0.0271464 0)
(9.8666 0.0225004 0)
(9.92908 0.104968 0)
(9.95993 0.175108 0)
(9.96297 0.206296 0)
(9.9485 0.198036 0)
(9.92575 0.16762 0)
(9.90558 0.138185 0)
(9.89897 0.127264 0)
(9.91117 0.141679 0)
(9.94105 0.17732 0)
(9.97852 0.223046 0)
(10.0166 0.269459 0)
(10.0445 0.308485 0)
(10.055 -0.0128523 0)
(10.1182 0.112897 0)
(10.0779 0.0636525 0)
(9.99627 0.0158544 0)
(9.89897 0.020746 0)
(9.82211 0.0541134 0)
(9.80972 0.093549 0)
(9.87445 0.129666 0)
(9.98725 0.156005 0)
(10.0969 0.168441 0)
(10.1609 0.166084 0)
(10.1647 0.153565 0)
(10.1219 0.141195 0)
(10.0592 0.140475 0)
(10.0025 0.159161 0)
(9.96831 0.196338 0)
(9.95599 0.247029 0)
(9.96778 0.304765 0)
(10.0181 -0.0804964 0)
(9.92661 0.185542 0)
(9.80048 0.170352 0)
(9.75534 0.11261 0)
(9.75334 0.0902586 0)
(9.76384 0.0769212 0)
(9.79326 0.0502101 0)
(9.85297 0.0210486 0)
(9.93455 0.0143573 0)
(10.0099 0.0426581 0)
(10.0478 0.099059 0)
(10.0342 0.164761 0)
(9.97697 0.220004 0)
(9.89832 0.254731 0)
(9.82169 0.267758 0)
(9.76666 0.270139 0)
(9.74027 0.267246 0)
(9.74656 0.272238 0)
(9.90329 0.225802 0)
(10.0052 0.217866 0)
(10.0669 0.104247 0)
(10.15 0.00892523 0)
(10.2041 -0.00724708 0)
(10.2151 0.0133674 0)
(10.186 0.0226361 0)
(10.1323 0.0233183 0)
(10.0774 0.0424578 0)
(10.0382 0.0936983 0)
(10.0214 0.167306 0)
(10.0269 0.241175 0)
(10.047 0.294541 0)
(10.0733 0.318229 0)
(10.0976 0.316279 0)
(10.1142 0.29973 0)
(10.1236 0.280684 0)
(10.1209 0.267999 0)
(9.82343 -0.0802552 0)
(9.90587 -0.00870722 0)
(9.9711 0.0180745 0)
(9.94252 0.0340406 0)
(9.86365 0.0762956 0)
(9.80816 0.124038 0)
(9.78909 0.148794 0)
(9.78566 0.141601 0)
(9.7835 0.113733 0)
(9.78495 0.0880958 0)
(9.79701 0.0818961 0)
(9.82189 0.0968848 0)
(9.85588 0.1241 0)
(9.89257 0.153534 0)
(9.92677 0.18204 0)
(9.9569 0.209953 0)
(9.98161 0.240067 0)
(10.0058 0.273883 0)
(9.98299 0.103521 0)
(10.0083 0.0665613 0)
(10.0129 0.107785 0)
(10.0195 0.133106 0)
(10.0259 0.116108 0)
(10.0406 0.0703912 0)
(10.0627 0.0293446 0)
(10.0729 0.0186045 0)
(10.0574 0.0423234 0)
(10.018 0.0888224 0)
(9.96867 0.142358 0)
(9.92441 0.189723 0)
(9.89445 0.22276 0)
(9.87969 0.238002 0)
(9.87761 0.235157 0)
(9.88442 0.221346 0)
(9.8979 0.200749 0)
(9.91675 0.185829 0)
(9.8133 -0.0594599 0)
(9.89622 -0.134809 0)
(9.96959 -0.0394498 0)
(10.0263 0.0360149 0)
(10.0534 0.0556507 0)
(10.0589 0.0729974 0)
(10.0547 0.11476 0)
(10.0419 0.170991 0)
(10.0229 0.218003 0)
(10.0093 0.239476 0)
(10.0129 0.234033 0)
(10.0358 0.210721 0)
(10.073 0.181922 0)
(10.1162 0.158621 0)
(10.1584 0.146136 0)
(10.1934 0.14534 0)
(10.2201 0.153555 0)
(10.2362 0.16674 0)
(10.0121 -0.0553099 0)
(9.97254 -0.144239 0)
(9.98409 -0.0735071 0)
(10.0197 0.0193275 0)
(10.0205 0.0559885 0)
(9.9858 0.0608056 0)
(9.95791 0.0736847 0)
(9.96481 0.0997134 0)
(10.0039 0.121381 0)
(10.0577 0.124244 0)
(10.1055 0.108301 0)
(10.1322 0.0847422 0)
(10.1345 0.0663205 0)
(10.1206 0.0608779 0)
(10.1034 0.0681363 0)
(10.0946 0.0845173 0)
(10.0993 0.103923 0)
(10.1213 0.124452 0)
(9.86167 0.0695924 0)
(9.78688 -0.0315699 0)
(9.75598 -0.0677508 0)
(9.82603 -0.0106989 0)
(9.94392 0.0783022 0)
(10.0256 0.126128 0)
(10.0676 0.119266 0)
(10.0993 0.0836812 0)
(10.1331 0.055426 0)
(10.1657 0.0565421 0)
(10.1899 0.0873637 0)
(10.201 0.132143 0)
(10.1987 0.169542 0)
(10.1864 0.183822 0)
(10.1686 0.168401 0)
(10.1515 0.131894 0)
(10.1394 0.0841153 0)
(10.137 0.0421148 0)
(10.1108 0.115294 0)
(10.1242 0.0155116 0)
(10.0994 -0.154908 0)
(10.0583 -0.180363 0)
(10.0674 -0.117022 0)
(10.1166 -0.0440348 0)
(10.1657 0.0055864 0)
(10.1979 0.0313026 0)
(10.2207 0.0439936 0)
(10.2461 0.0534072 0)
(10.2827 0.0660338 0)
(10.3323 0.084188 0)
(10.3877 0.10522 0)
(10.4376 0.125474 0)
(10.4706 0.138433 0)
(10.4809 0.140522 0)
(10.4701 0.129933 0)
(10.4424 0.104889 0)
(10.1628 0.0468248 0)
(10.2027 -0.0453415 0)
(10.1871 -0.0367247 0)
(10.15 -0.0165055 0)
(10.1211 -0.00202478 0)
(10.0991 0.00945617 0)
(10.0715 0.0176037 0)
(10.0464 0.0145534 0)
(10.0395 -0.000458544 0)
(10.0563 -0.0163219 0)
(10.0893 -0.0194043 0)
(10.1274 -0.0026571 0)
(10.163 0.0304979 0)
(10.1952 0.0709929 0)
(10.228 0.107627 0)
(10.2646 0.13268 0)
(10.3065 0.142688 0)
(10.351 0.136958 0)
(10.1965 -0.0563207 0)
(10.1099 -0.0315787 0)
(10.0517 -0.0671205 0)
(10.0275 -0.0926514 0)
(10.0378 -0.0562165 0)
(10.0613 0.00917251 0)
(10.0819 0.056444 0)
(10.0917 0.0607309 0)
(10.0845 0.0323656 0)
(10.0545 0.000910523 0)
(10.0061 -0.0110381 0)
(9.95492 0.000428335 0)
(9.9175 0.0243946 0)
(9.90491 0.045795 0)
(9.92118 0.0539042 0)
(9.96182 0.047046 0)
(10.0188 0.0272777 0)
(10.0815 0.00491219 0)
(9.84769 -0.0670522 0)
(9.91281 0.0355553 0)
(10.0173 -0.00220514 0)
(10.0841 -0.0336785 0)
(10.0977 -0.0363053 0)
(10.1119 -0.022481 0)
(10.1469 -0.00391564 0)
(10.1878 0.0131129 0)
(10.2181 0.0285377 0)
(10.2325 0.0457922 0)
(10.2361 0.0637268 0)
(10.2372 0.0756388 0)
(10.2431 0.0756622 0)
(10.2562 0.0629753 0)
(10.2748 0.0408195 0)
(10.2935 0.0157351 0)
(10.308 -0.00755852 0)
(10.3159 -0.0238108 0)
(9.93907 -0.0587497 0)
(10.0214 -0.129728 0)
(10.0962 -0.14091 0)
(10.1183 -0.111589 0)
(10.0862 -0.0667083 0)
(10.045 -0.023193 0)
(10.0166 0.00452762 0)
(10.0029 0.0120592 0)
(10.0068 0.00602924 0)
(10.0314 -0.00105914 0)
(10.0744 -0.000386933 0)
(10.1298 0.00745687 0)
(10.1895 0.0167288 0)
(10.2471 0.0224316 0)
(10.2984 0.0215152 0)
(10.3403 0.0148558 0)
(10.371 0.00443791 0)
(10.3879 -0.005948 0)
(10.2445 -0.0849223 0)
(10.0888 -0.0944989 0)
(9.98247 -0.0732084 0)
(9.92604 -0.0366811 0)
(9.9114 -0.00431792 0)
(9.93528 0.0126433 0)
(9.98094 0.0179839 0)
(10.0282 0.0141388 0)
(10.067 0.00400307 0)
(10.0976 -0.00614647 0)
(10.1248 -0.0111563 0)
(10.1528 -0.0129851 0)
(10.1839 -0.0166598 0)
(10.2174 -0.024847 0)
(10.2506 -0.0358072 0)
(10.2813 -0.0453034 0)
(10.3084 -0.0506183 0)
(10.3323 -0.0486266 0)
(9.99997 0.0831486 0)
(10.0305 -0.00062033 0)
(10.0492 -0.0513238 0)
(10.0643 -0.0730087 0)
(10.095 -0.0647995 0)
(10.1254 -0.048456 0)
(10.1608 -0.0340976 0)
(10.2119 -0.0272863 0)
(10.2775 -0.0272451 0)
(10.3467 -0.0291526 0)
(10.4064 -0.0296602 0)
(10.4465 -0.0283056 0)
(10.4626 -0.0262069 0)
(10.4565 -0.0244549 0)
(10.434 -0.0245025 0)
(10.4046 -0.0267203 0)
(10.3755 -0.0317258 0)
(10.3542 -0.0380601 0)
(9.97013 -0.0746903 0)
(10.1518 -0.100028 0)
(10.2288 -0.079217 0)
(10.1491 -0.0615382 0)
(10.0714 -0.0395973 0)
(10.0758 -0.0254362 0)
(10.1318 -0.0302205 0)
(10.1903 -0.049716 0)
(10.2311 -0.0683138 0)
(10.254 -0.0732043 0)
(10.2648 -0.0626425 0)
(10.2704 -0.0434907 0)
(10.2764 -0.0243254 0)
(10.2875 -0.0116795 0)
(10.3034 -0.00862486 0)
(10.3211 -0.013803 0)
(10.3352 -0.0241506 0)
(10.3398 -0.0351835 0)
(10.0286 -0.00886206 0)
(9.79323 -0.0539663 0)
(9.56085 -0.0418822 0)
(9.40253 -0.0230693 0)
(9.26628 -0.0394174 0)
(9.1293 -0.0610225 0)
(8.98599 -0.0656048 0)
(8.82782 -0.0594315 0)
(8.65812 -0.0531744 0)
(8.49328 -0.0483354 0)
(8.35107 -0.0431685 0)
(8.24137 -0.0383212 0)
(8.1618 -0.0353562 0)
(8.10312 -0.034969 0)
(8.05155 -0.0358167 0)
(7.99935 -0.0358164 0)
(7.93996 -0.0332786 0)
(7.87828 -0.0283093 0)
(-0.225539 0.69686 -9.8069e-20)
(-0.748777 0.105165 9.73192e-20)
(-0.893213 -0.0734658 0)
(-0.584767 -0.623046 0)
(-0.0394138 -0.800127 0)
(0.698189 -0.907456 -9.41834e-20)
(1.44488 -0.911167 0)
(2.17545 -0.845261 0)
(2.85639 -0.742427 0)
(3.45502 -0.625939 0)
(3.96348 -0.512562 9.05009e-20)
(4.38734 -0.412011 0)
(4.73666 -0.32382 0)
(5.02038 -0.245727 0)
(5.2459 -0.178015 0)
(5.42124 -0.109579 8.74553e-20)
(5.54153 -0.0445424 0)
(5.61323 0.0291535 0)
(5.61685 0.113899 0)
(5.54883 0.202862 0)
(5.37531 0.33517 0)
(5.08806 0.45338 0)
(4.67592 0.638567 0)
(4.07068 0.794061 8.1849e-20)
(3.3853 0.910569 -8.11476e-20)
(2.40866 1.23304 8.05164e-20)
(1.26024 0.826076 8.00207e-20)
(0.509804 -0.125228 0)
(0.0730587 -0.434437 0)
(-0.187484 -0.302716 -7.83213e-20)
(-0.188925 -0.173677 -7.76065e-20)
(-0.0537505 -0.0712361 0)
(0.053212 -0.00342526 0)
(0.152185 -0.0838873 -7.54098e-20)
(0.28163 -0.234544 0)
(0.408806 -0.289972 0)
(0.504229 -0.247159 7.33892e-20)
(0.554694 -0.254686 0)
(0.492713 -0.324757 7.21942e-20)
(0.234817 -0.202231 1.43258e-19)
(-0.265543 0.274172 0)
(-1.06939 0.648798 0)
(-2.02774 0.821925 0)
(-2.98061 0.809433 0)
(-3.83314 0.750802 0)
(-4.61267 0.681336 1.35882e-19)
(-5.29507 0.577616 1.35031e-19)
(-5.87836 0.484733 1.34233e-19)
(-6.36989 0.380247 0)
(-6.75687 0.281603 -1.32703e-19)
(-7.04375 0.18364 0)
(-7.22271 0.0879347 1.31122e-19)
(-7.29557 0.00048645 1.30277e-19)
(-7.25442 -0.0789566 0)
(-7.10925 -0.148459 0)
(-6.86286 -0.21732 0)
(-6.50684 -0.28419 1.26292e-19)
(-6.04859 -0.348618 0)
(-5.48884 -0.411899 0)
(-4.83505 -0.469432 0)
(-4.10069 -0.519194 0)
(-3.30006 -0.558956 0)
(-2.45048 -0.585598 0)
(-1.57165 -0.597463 0)
(-0.683012 -0.594968 0)
(0.200579 -0.577614 -1.18743e-19)
(1.05738 -0.544601 0)
(1.8559 -0.490038 0)
(2.55486 -0.393528 1.16827e-19)
(3.09051 -0.249816 1.1614e-19)
(3.39229 -0.0558508 0)
(3.39442 0.181051 -1.14035e-19)
(3.01877 0.443041 1.12399e-19)
(2.22102 0.686437 0)
(1.0012 0.848784 -1.08545e-19)
(-0.456456 0.829401 0)
(-1.78016 0.561751 0)
(-2.59099 0.172218 1.03272e-19)
(-2.76149 -0.187912 0)
(-2.34483 -0.583526 -1.00915e-19)
(-1.76215 -0.995573 0)
(-1.72746 -1.20575 9.89611e-20)
(-2.42 -0.412538 9.73855e-20)
(-4.40097 1.60675 9.53729e-20)
(-7.40075 1.70641 1.88314e-19)
(-9.12637 0.826954 -1.87312e-19)
(-10.3074 0.886495 0)
(-11.5578 0.580444 0)
(-12.2486 0.432339 0)
(-12.9453 0.357284 -1.84037e-19)
(-13.401 0.21971 -1.82863e-19)
(-13.7327 0.176166 1.81411e-19)
(-13.9606 0.0850426 0)
(-14.0382 0.0364063 -1.77695e-19)
(-14.0362 -0.0203036 -1.75397e-19)
(-13.9165 -0.0674252 -1.72813e-19)
(-13.7216 -0.110409 0)
(-13.4256 -0.153136 0)
(-13.0528 -0.18868 0)
(-12.5975 -0.224302 -1.60204e-19)
(-12.0708 -0.253638 0)
(-11.478 -0.280955 0)
(-10.8238 -0.303922 1.49508e-19)
(-10.1159 -0.323984 0)
(-9.35678 -0.340713 0)
(-8.55498 -0.353467 1.39067e-19)
(-7.7183 -0.361552 0)
(-6.86285 -0.362658 0)
(-6.00736 -0.3553 -1.29975e-19)
(-5.17288 -0.338781 -1.27436e-19)
(-4.37857 -0.314208 0)
(-3.64181 -0.283402 1.23158e-19)
(-2.97544 -0.249621 0)
(-2.38538 -0.215661 -1.19771e-19)
(-1.87151 -0.183795 0)
(-1.42837 -0.155277 -1.16933e-19)
(-1.04799 -0.131024 -1.15619e-19)
(-0.72033 -0.111247 0)
(-0.43603 -0.0941566 0)
(-0.186787 -0.0809984 0)
(0.0362666 -0.0708231 0)
(0.23796 -0.063908 0)
(0.423587 -0.0577988 0)
(0.598446 -0.054142 0)
(0.764749 -0.0509355 -1.05273e-19)
(0.924612 -0.0478661 1.03943e-19)
(1.07879 -0.044997 0)
(1.2265 -0.0420303 0)
(1.36687 -0.0390597 0)
(1.50039 -0.0366137 0)
(1.62956 -0.0351901 1.94558e-19)
(1.75829 -0.0348641 0)
(1.89024 -0.0353521 -1.89215e-19)
(2.02767 -0.0363533 1.86522e-19)
(2.1715 -0.0378922 0)
(2.32239 -0.0403301 0)
(2.48166 -0.04402 0)
(2.65128 -0.0490607 -1.75525e-19)
(2.83359 -0.0553371 -1.72722e-19)
(3.03133 -0.0626549 0)
(3.24777 -0.0709061 -1.67091e-19)
(3.48685 -0.079814 -1.64276e-19)
(3.75265 -0.0892533 1.61471e-19)
(4.0491 -0.100331 0)
(4.38176 -0.111636 0)
(4.7527 -0.121692 1.53212e-19)
(5.16206 -0.134368 0)
(5.6174 -0.14355 0)
(6.10502 -0.149378 0)
(6.62172 -0.157144 0)
(7.16534 -0.148594 -1.41137e-19)
(7.67854 -0.146508 -1.39133e-19)
(8.20604 -0.133423 0)
(8.65996 -0.105028 -1.3539e-19)
(9.05184 -0.109996 0)
(9.44019 -0.0365643 0)
(9.52358 -0.0378541 -1.29536e-19)
(9.79433 0.0121952 0)
(9.54379 0.202951 -1.24558e-19)
(9.01518 0.0879627 0)
(8.8609 0.704363 0)
(5.72268 1.13995 -1.15347e-19)
(2.70701 -0.100162 0)
(2.23038 -0.441432 -1.13585e-19)
(1.89517 0.278157 0)
(0.704282 0.445877 0)
(-0.877467 0.339004 0)
(-2.18279 0.208501 1.13786e-19)
(-2.80682 0.0381322 0)
(-2.75378 -0.0894758 -1.09227e-19)
(-2.28523 -0.149318 0)
(-1.67482 -0.149788 0)
(-1.07784 -0.122113 0)
(-0.569376 -0.0867233 0)
(-0.211614 -0.0484586 0)
(-0.0349904 -0.00742965 0)
(-0.0542997 0.0291328 0)
(-0.217026 0.058901 1.66965e-19)
(-0.433608 0.0611983 0)
(-0.674337 -0.0499588 0)
(0.180094 1.12253 2.94093e-19)
(-0.0276481 1.16011 -2.92268e-19)
(0.436586 -0.0570074 0)
(1.02124 -1.27467 1.91449e-19)
(1.66696 -2.00702 0)
(2.27405 -2.31749 9.35509e-20)
(2.8156 -2.33489 -1.86222e-19)
(3.29457 -2.17218 -1.84879e-19)
(3.70566 -1.9237 0)
(4.04909 -1.65141 -1.82484e-19)
(4.33334 -1.39153 -9.03159e-20)
(4.57043 -1.16066 0)
(4.77214 -0.960812 0)
(4.94663 -0.787784 0)
(5.10239 -0.635904 0)
(5.24026 -0.490906 -8.74683e-20)
(5.3612 -0.344642 0)
(5.45749 -0.187933 1.72832e-19)
(5.527 -0.00177998 0)
(5.56607 0.209572 0)
(5.56483 0.466221 -1.68611e-19)
(5.49962 0.757122 0)
(5.37623 1.08552 1.65473e-19)
(5.15352 1.44668 -8.15145e-20)
(4.86784 1.78384 8.07042e-20)
(4.45758 2.14394 -7.99439e-20)
(3.90403 2.30974 -7.93435e-20)
(3.3251 2.16178 0)
(2.43268 1.63874 0)
(1.45736 0.793227 7.79493e-20)
(0.918821 -0.0415455 -7.73736e-20)
(0.606848 -0.381425 0)
(0.515048 -0.336582 0)
(0.521351 -0.296125 7.54012e-20)
(0.364631 -0.195421 0)
(0.0674837 -0.0587458 0)
(-0.245672 -0.0129565 -7.3453e-20)
(-0.703703 0.273406 0)
(-1.47895 0.894935 7.19365e-20)
(-2.4006 1.45589 -1.42374e-19)
(-3.22522 1.80852 0)
(-3.95367 1.94839 0)
(-4.57548 1.90954 -2.77102e-19)
(-5.13234 1.77234 -2.75063e-19)
(-5.60135 1.59119 -2.73231e-19)
(-6.02382 1.39539 1.36261e-19)
(-6.40206 1.19958 -1.34565e-19)
(-6.74013 1.01261 -4.02392e-19)
(-7.04457 0.825623 2.67081e-19)
(-7.3055 0.638978 1.32474e-19)
(-7.51853 0.444577 0)
(-7.67658 0.243877 -1.30971e-19)
(-7.77198 0.0401302 1.30763e-19)
(-7.79585 -0.161242 0)
(-7.72981 -0.362804 0)
(-7.56974 -0.570261 0)
(-7.31815 -0.776452 -1.26009e-19)
(-6.96561 -0.978409 0)
(-6.51669 -1.17026 2.48313e-19)
(-5.97512 -1.34306 0)
(-5.34872 -1.48887 2.44193e-19)
(-4.6532 -1.60018 0)
(-3.9046 -1.67292 -2.40777e-19)
(-3.11897 -1.70766 0)
(-2.31184 -1.7081 2.38317e-19)
(-1.49557 -1.67462 -1.19123e-19)
(-0.678635 -1.59852 0)
(0.123672 -1.4553 -2.36063e-19)
(0.851418 -1.21493 -1.17066e-19)
(1.44517 -0.839633 -1.16401e-19)
(1.85534 -0.335344 0)
(2.0079 0.275456 -1.15587e-19)
(1.90111 0.946771 -1.12511e-19)
(1.4753 1.57363 0)
(0.702547 2.03084 1.08411e-19)
(-0.327007 2.13807 -2.13431e-19)
(-1.40002 1.71723 0)
(-2.12935 0.907057 -1.03293e-19)
(-2.34 -0.0133225 0)
(-2.52319 -0.571865 3.02292e-19)
(-3.64505 0.152135 0)
(-6.39549 2.22151 -2.94136e-19)
(-8.70001 3.37527 -9.62532e-20)
(-9.51385 3.22346 9.61348e-20)
(-10.6547 2.69523 1.90877e-19)
(-11.3269 2.00594 -1.89853e-19)
(-11.8174 1.65947 0)
(-12.3408 1.24143 0)
(-12.6378 0.957288 0)
(-12.9915 0.738507 5.53203e-19)
(-13.1886 0.516099 1.8284e-19)
(-13.3806 0.356759 -1.81461e-19)
(-13.4668 0.181484 0)
(-13.4997 0.0352598 -1.78756e-19)
(-13.4558 -0.107611 1.75533e-19)
(-13.319 -0.242206 1.7293e-19)
(-13.1007 -0.367974 0)
(-12.7922 -0.488917 0)
(-12.4057 -0.598134 0)
(-11.9396 -0.699889 1.60246e-19)
(-11.4049 -0.789327 0)
(-10.8043 -0.869123 -3.06837e-19)
(-10.1456 -0.938373 -4.49127e-19)
(-9.43254 -0.998432 2.92461e-19)
(-8.66948 -1.04938 0)
(-7.86179 -1.08933 1.39579e-19)
(-7.01723 -1.11498 0)
(-6.15095 -1.12 2.65931e-19)
(-5.28325 -1.09857 -1.30285e-19)
(-4.43807 -1.04858 -1.27671e-19)
(-3.63636 -0.973642 0)
(-2.89805 -0.879498 -3.6964e-19)
(-2.23617 -0.776758 2.42897e-19)
(-1.65606 -0.673909 1.19805e-19)
(-1.15581 -0.578133 0)
(-0.728037 -0.492863 1.16983e-19)
(-0.363463 -0.420448 3.47106e-19)
(-0.049617 -0.361772 0)
(0.22265 -0.315135 2.26234e-19)
(0.460399 -0.278437 2.2359e-19)
(0.673306 -0.249591 2.20962e-19)
(0.86741 -0.228452 0)
(1.0467 -0.212067 0)
(1.21506 -0.199854 0)
(1.3756 -0.19059 -1.05232e-19)
(1.52977 -0.182795 -1.03854e-19)
(1.6777 -0.174951 0)
(1.81812 -0.166076 -2.0242e-19)
(1.94974 -0.15671 -1.99757e-19)
(2.07315 -0.1489 0)
(2.19174 -0.144861 -1.94416e-19)
(2.31108 -0.145327 -3.83574e-19)
(2.43684 -0.149146 1.8908e-19)
(2.57302 -0.154453 1.86467e-19)
(2.72161 -0.160144 0)
(2.8834 -0.166293 0)
(3.05874 -0.173516 0)
(3.24762 -0.18233 1.75387e-19)
(3.44982 -0.193256 -1.72656e-19)
(3.66549 -0.206869 -3.39599e-19)
(3.89617 -0.223573 1.66945e-19)
(4.14453 -0.244059 -1.64195e-19)
(4.41539 -0.268602 -1.61321e-19)
(4.71515 -0.296796 0)
(5.04688 -0.328874 0)
(5.41814 -0.362758 1.5313e-19)
(5.83358 -0.397695 0)
(6.28818 -0.431665 0)
(6.79037 -0.456281 -2.90917e-19)
(7.31796 -0.474572 0)
(7.86711 -0.474796 -1.41108e-19)
(8.41867 -0.457627 1.38974e-19)
(8.93384 -0.432214 0)
(9.44757 -0.376099 -1.35458e-19)
(9.83487 -0.325723 0)
(10.2334 -0.23608 0)
(10.4536 -0.133954 1.29422e-19)
(10.5936 -0.0351495 -2.54815e-19)
(10.6936 0.213801 1.24408e-19)
(10.3853 0.388189 0)
(10.4877 0.826888 0)
(9.7177 1.79181 -1.16772e-19)
(8.96848 2.09335 0)
(5.57673 0.967597 -1.13272e-19)
(2.2981 0.478223 0)
(1.2332 0.952252 0)
(0.116695 1.06503 0)
(-0.956952 0.80172 -1.13829e-19)
(-1.46637 0.292512 0)
(-1.39225 -0.17939 1.09334e-19)
(-0.911092 -0.411308 0)
(-0.312722 -0.45265 0)
(0.252062 -0.405741 -1.93282e-19)
(0.731399 -0.316867 1.86393e-19)
(1.09791 -0.195663 0)
(1.27615 -0.0624378 0)
(1.24243 0.0535991 0)
(1.03944 0.113076 -5.00439e-19)
(0.839401 0.13216 0)
(0.680819 0.0255785 3.18664e-19)
(-0.0245954 0.596178 -6.41553e-23)
(0.551673 -0.27762 3.88815e-19)
(1.47728 -1.86142 0)
(2.20595 -2.90187 -3.81082e-19)
(2.66489 -3.32233 0)
(2.93544 -3.31032 0)
(3.11138 -3.03439 -7.68875e-22)
(3.22905 -2.63387 1.8478e-19)
(3.3066 -2.20966 1.84521e-19)
(3.36508 -1.82047 1.82757e-19)
(3.42274 -1.49273 0)
(3.49154 -1.23035 0)
(3.57712 -1.02483 -1.80008e-19)
(3.68116 -0.86262 -3.57608e-19)
(3.80295 -0.725346 3.55158e-19)
(3.93739 -0.591719 0)
(4.07522 -0.448555 3.50162e-19)
(4.21083 -0.281803 -1.73373e-19)
(4.33782 -0.0715145 0)
(4.44526 0.183895 3.42333e-19)
(4.52398 0.497921 1.69079e-19)
(4.572 0.861391 -3.36238e-19)
(4.59119 1.26661 -1.65738e-19)
(4.56903 1.72005 0)
(4.51025 2.15529 3.26231e-19)
(4.39665 2.58408 3.22776e-19)
(4.19448 2.92544 0)
(3.93949 2.93922 3.16223e-19)
(3.3847 2.66724 0)
(2.67108 2.15342 3.10698e-19)
(2.00502 1.40464 1.54185e-19)
(1.30315 0.632425 0)
(0.836841 0.146563 0)
(0.453456 0.214142 0)
(-0.0562173 0.520533 0)
(-0.556762 0.697116 0)
(-1.20551 1.07038 0)
(-2.09027 1.72594 2.89527e-19)
(-2.9599 2.27517 -4.29838e-19)
(-3.68743 2.58703 0)
(-4.24998 2.70926 0)
(-4.67142 2.67124 0)
(-5.006 2.52082 -1.1164e-21)
(-5.32351 2.324 2.74682e-19)
(-5.63816 2.11167 5.47081e-19)
(-5.99221 1.91195 -5.43804e-19)
(-6.37962 1.72161 -2.70871e-19)
(-6.7838 1.52337 2.68298e-19)
(-7.18249 1.304 1.01803e-21)
(-7.55018 1.05916 2.66344e-19)
(-7.87202 0.790409 0)
(-8.12964 0.50355 2.63265e-19)
(-8.30722 0.199877 1.04411e-21)
(-8.4046 -0.118471 0)
(-8.42795 -0.447734 0)
(-8.37174 -0.779903 -2.55554e-19)
(-8.23118 -1.11112 0)
(-8.00532 -1.435 0)
(-7.69047 -1.74176 2.50017e-19)
(-7.28777 -2.01978 4.93127e-19)
(-6.80216 -2.25529 -2.43217e-19)
(-6.24249 -2.43792 0)
(-5.62241 -2.56336 2.39665e-19)
(-4.95752 -2.63491 0)
(-4.2624 -2.66072 2.3934e-19)
(-3.54773 -2.64261 2.36184e-19)
(-2.82407 -2.56407 -4.73028e-19)
(-2.1136 -2.38713 -2.36964e-19)
(-1.44576 -2.05132 0)
(-0.858935 -1.49562 4.69857e-19)
(-0.413655 -0.725835 0)
(-0.183375 0.206043 6.94241e-19)
(-0.18182 1.19791 4.56223e-19)
(-0.407574 2.12152 4.47137e-19)
(-0.835234 2.82567 -4.37059e-19)
(-1.40287 3.0742 6.39955e-19)
(-2.07574 2.5667 0)
(-2.71568 1.3937 0)
(-3.32791 0.379988 -4.06595e-19)
(-4.79751 1.11618 -6.01298e-19)
(-7.24393 3.14323 0)
(-9.14134 4.13036 1.94635e-19)
(-9.99024 4.14317 0)
(-10.1432 3.73829 -5.73635e-19)
(-10.433 3.09584 3.59201e-21)
(-10.6475 2.45172 -3.0707e-21)
(-10.9192 2.01565 3.77283e-19)
(-11.2808 1.57767 0)
(-11.5842 1.26534 -3.73541e-19)
(-11.9197 0.985694 1.62289e-21)
(-12.1621 0.721027 0)
(-12.3709 0.493757 0)
(-12.4851 0.253754 0)
(-12.5244 0.036 3.57129e-19)
(-12.4782 -0.188104 0)
(-12.345 -0.402667 0)
(-12.1296 -0.610205 0)
(-11.8271 -0.807885 0)
(-11.4481 -0.990217 0)
(-10.9926 -1.15803 3.22392e-19)
(-10.4713 -1.30666 0)
(-9.88813 -1.43876 3.06957e-19)
(-9.24983 -1.55387 2.997e-19)
(-8.55961 -1.65498 -2.92514e-19)
(-7.81858 -1.74264 0)
(-7.02853 -1.81453 -2.78629e-19)
(-6.19287 -1.86363 0)
(-5.32324 -1.87811 -2.65909e-19)
(-4.44118 -1.84568 2.60225e-19)
(-3.57505 -1.76114 7.66226e-19)
(-2.75065 -1.63079 0)
(-1.99368 -1.46455 7.40143e-19)
(-1.32173 -1.28276 2.43446e-19)
(-0.74125 -1.10159 0)
(-0.250289 -0.935123 4.7419e-19)
(0.160512 -0.791754 4.68551e-19)
(0.502511 -0.67164 -6.94213e-19)
(0.789506 -0.573944 0)
(1.03437 -0.498067 -2.25929e-19)
(1.2461 -0.438301 -2.23307e-19)
(1.43367 -0.391907 -6.62338e-19)
(1.60344 -0.356436 0)
(1.76034 -0.329041 0)
(1.90832 -0.308051 0)
(2.05054 -0.291554 -2.10374e-19)
(2.18858 -0.27693 0)
(2.32093 -0.261611 0)
(2.44237 -0.244543 2.02242e-19)
(2.54667 -0.227478 1.99593e-19)
(2.63128 -0.214479 0)
(2.70019 -0.209464 0)
(2.76253 -0.213621 3.83335e-19)
(2.82856 -0.224886 0)
(2.9065 -0.239934 -3.72668e-19)
(3.0019 -0.256561 -3.674e-19)
(3.11863 -0.27419 0)
(3.25923 -0.292723 0)
(3.42444 -0.311728 3.5085e-19)
(3.61296 -0.331185 -1.2644e-22)
(3.82265 -0.35243 -1.18586e-22)
(4.05254 -0.377422 0)
(4.3044 -0.408034 6.56469e-19)
(4.58183 -0.446032 0)
(4.89049 -0.491584 0)
(5.23738 -0.544404 0)
(5.6263 -0.602526 -3.05996e-19)
(6.06228 -0.662535 0)
(6.54488 -0.721979 5.91403e-19)
(7.06859 -0.767268 2.90684e-19)
(7.6273 -0.796634 0)
(8.19704 -0.80055 2.81838e-19)
(8.76706 -0.768337 0)
(9.30749 -0.726945 0)
(9.80831 -0.632148 8.12229e-19)
(10.2433 -0.536517 -5.34597e-19)
(10.6072 -0.407622 0)
(10.8655 -0.21539 -5.19242e-19)
(11.0261 -0.0819052 2.54705e-19)
(11.0554 0.25073 0)
(10.9265 0.508118 0)
(10.7478 0.917305 0)
(10.4027 1.82526 6.98278e-19)
(10.7827 2.50035 0)
(9.74272 2.67852 2.25079e-19)
(6.54127 2.27373 0)
(3.40879 1.69088 0)
(1.51533 1.43519 0)
(0.361807 1.02143 0)
(-0.149351 0.263853 0)
(-0.159893 -0.431054 0)
(0.20523 -0.74557 4.20599e-19)
(0.720502 -0.755938 0)
(1.2062 -0.63866 1.93052e-19)
(1.56758 -0.496116 -5.58186e-19)
(1.8132 -0.314546 0)
(1.8939 -0.0854028 0)
(1.78543 0.125795 3.41212e-19)
(1.47263 0.240826 3.33419e-19)
(1.15328 0.235229 -3.25966e-19)
(0.897026 0.0618646 -3.1858e-19)
(0.226816 0.00314054 -5.88515e-19)
(1.07901 -2.3266 -5.82031e-19)
(1.74294 -3.5084 -3.84673e-19)
(2.08366 -3.77889 -1.91491e-19)
(2.19914 -3.60914 0)
(2.22213 -3.24972 3.776e-19)
(2.22794 -2.80559 -1.88397e-19)
(2.23202 -2.37094 0)
(2.25323 -2.0046 -1.8508e-19)
(2.30489 -1.7198 0)
(2.3849 -1.50748 3.66633e-19)
(2.48747 -1.3518 0)
(2.60601 -1.23817 1.80456e-19)
(2.73503 -1.14678 3.58455e-19)
(2.86878 -1.05117 -3.55978e-19)
(2.99827 -0.935162 0)
(3.11959 -0.79443 -3.50973e-19)
(3.24163 -0.615249 0)
(3.36759 -0.376868 0)
(3.48607 -0.0686792 -3.43247e-19)
(3.58245 0.311676 0)
(3.63737 0.748008 -1.1661e-21)
(3.65774 1.22698 0)
(3.65947 1.74917 0)
(3.63952 2.26686 1.37459e-21)
(3.57893 2.74569 -3.23082e-19)
(3.4734 3.15688 -3.21009e-19)
(3.30873 3.44137 -3.16393e-19)
(3.00726 3.4669 0)
(2.60898 3.08908 -6.2147e-19)
(2.02944 2.41539 0)
(1.4478 1.54932 -3.06043e-19)
(0.89212 1.05233 0)
(0.213994 1.21284 0)
(-0.419204 1.47925 2.98327e-19)
(-1.05609 1.78589 0)
(-1.90116 2.39778 -2.92049e-19)
(-2.76806 2.99982 6.23053e-22)
(-3.42942 3.29173 5.72621e-19)
(-3.907 3.3522 -5.69014e-19)
(-4.26328 3.28446 0)
(-4.54877 3.13772 0)
(-4.84593 2.97755 -2.79854e-19)
(-5.1945 2.8281 0)
(-5.596 2.68926 -2.73918e-19)
(-6.0531 2.55187 2.72185e-19)
(-6.52904 2.38092 2.70542e-19)
(-6.99364 2.1585 0)
(-7.41967 1.88146 -2.67491e-19)
(-7.78822 1.55529 -2.66029e-19)
(-8.09404 1.19289 5.31981e-19)
(-8.33379 0.805229 -2.63032e-19)
(-8.51222 0.400908 -2.61414e-19)
(-8.63787 -0.0138986 0)
(-8.71555 -0.432857 0)
(-8.74615 -0.852881 2.55316e-19)
(-8.722 -1.27868 0)
(-8.63298 -1.70489 0)
(-8.47021 -2.12036 -4.96502e-19)
(-8.22646 -2.50758 -4.9188e-19)
(-7.89901 -2.84601 0)
(-7.49047 -3.11753 0)
(-7.01133 -3.31124 0)
(-6.47981 -3.42853 0)
(-5.91806 -3.48074 -4.74388e-19)
(-5.34674 -3.47569 4.74522e-19)
(-4.78351 -3.39566 4.70743e-19)
(-4.24344 -3.18303 9.40658e-19)
(-3.73954 -2.75861 0)
(-3.28792 -2.06776 8.7463e-22)
(-2.92401 -1.10879 0)
(-2.70115 0.0548154 -4.6158e-19)
(-2.59877 1.28427 4.9884e-22)
(-2.62035 2.41305 -4.45316e-19)
(-2.79476 3.26852 4.35345e-19)
(-3.04365 3.58495 9.1695e-22)
(-3.35376 3.08505 0)
(-3.84847 2.11892 4.11651e-19)
(-5.01015 2.10391 4.04576e-19)
(-7.02394 3.58727 7.97724e-19)
(-8.75456 4.86908 0)
(-9.42915 4.81424 -3.91145e-19)
(-9.42442 4.23997 0)
(-9.4483 3.82845 7.69838e-19)
(-9.59217 3.25339 -3.81493e-19)
(-9.76598 2.72536 3.79576e-19)
(-10.0396 2.33881 -3.77627e-19)
(-10.3563 1.92126 -7.55791e-19)
(-10.6538 1.5889 3.73907e-19)
(-10.9495 1.26132 -3.71767e-19)
(-11.1755 0.939855 0)
(-11.3514 0.636593 7.35992e-19)
(-11.4428 0.321765 0)
(-11.4573 0.0204237 7.21123e-19)
(-11.3932 -0.287246 -7.11353e-19)
(-11.2462 -0.583604 -7.00497e-19)
(-11.0197 -0.870297 6.88601e-19)
(-10.7133 -1.14212 6.75756e-19)
(-10.3346 -1.39311 0)
(-9.88851 -1.6221 3.25217e-19)
(-9.38485 -1.82484 0)
(-8.83094 -2.00381 0)
(-8.23348 -2.16066 6.03848e-19)
(-7.59518 -2.30038 0)
(-6.91356 -2.42636 0)
(-6.18338 -2.53669 5.61385e-19)