/*--------------------------------*- C++ -*----------------------------------*\
  =========                 |
  \\      /  F ield         | OpenFOAM: The Open Source CFD Toolbox
   \\    /   O peration     | Website:  https://openfoam.org
    \\  /    A nd           | Version:  9
     \\/     M anipulation  |
\*---------------------------------------------------------------------------*/
FoamFile
{
    format      ascii;
    class       volScalarField;
    location    "0.059";
    object      k;
}
// * * * * * * * * * * * * * * * * * * * * * * * * * * * * * * * * * * * * * //

dimensions      [0 2 -2 0 0 0 0];

internalField   nonuniform List<scalar> 
12225
(
4.71408e-05
4.76998e-05
5.03809e-05
4.78418e-05
3.33229e-05
2.20138e-05
1.81694e-05
1.71879e-05
1.70945e-05
1.73234e-05
1.84831e-05
2.27095e-05
3.88731e-05
6.27244e-05
7.51044e-05
7.79561e-05
6.93252e-05
9.77606e-05
2.03597e-05
2.18079e-05
2.33979e-05
2.34875e-05
2.23871e-05
2.05695e-05
1.98389e-05
1.96283e-05
1.95989e-05
1.9621e-05
1.97414e-05
2.01927e-05
2.15713e-05
2.4761e-05
3.04538e-05
4.63638e-05
5.51138e-05
6.15514e-05
2.00202e-05
1.71649e-05
1.77912e-05
1.84171e-05
1.82436e-05
1.74047e-05
1.69235e-05
1.6827e-05
1.6885e-05
1.72196e-05
1.74669e-05
1.75523e-05
1.76842e-05
1.79611e-05
1.86126e-05
2.01374e-05
2.42144e-05
2.76947e-05
2.02042e-05
2.03223e-05
2.02889e-05
2.0117e-05
1.97007e-05
1.87166e-05
1.75668e-05
1.64791e-05
1.59905e-05
1.60563e-05
1.65349e-05
1.7015e-05
1.72867e-05
1.74056e-05
1.7593e-05
1.77613e-05
1.812e-05
1.85707e-05
2.09765e-05
2.2864e-05
2.28033e-05
2.14594e-05
2.16499e-05
2.43857e-05
2.53589e-05
2.38239e-05
2.17247e-05
2.11048e-05
2.0897e-05
2.08662e-05
2.08754e-05
2.08921e-05
2.10853e-05
2.21544e-05
2.2845e-05
2.27713e-05
2.16772e-05
2.32007e-05
2.31467e-05
2.44491e-05
2.68686e-05
2.62219e-05
2.31837e-05
2.16948e-05
2.12911e-05
2.12258e-05
2.12764e-05
2.16465e-05
2.31099e-05
2.59116e-05
2.75227e-05
2.78933e-05
2.77318e-05
2.6777e-05
2.28173e-05
2.32664e-05
2.52835e-05
2.46507e-05
2.39147e-05
2.33381e-05
2.30598e-05
2.30584e-05
2.3283e-05
2.41173e-05
2.67305e-05
3.65253e-05
4.79544e-05
5.37197e-05
5.52461e-05
5.50294e-05
5.33349e-05
4.59295e-05
2.57514e-05
2.52798e-05
3.19044e-05
3.72703e-05
3.53604e-05
2.9376e-05
2.49772e-05
2.32445e-05
2.28751e-05
2.29752e-05
2.37377e-05
2.61155e-05
3.25212e-05
4.18823e-05
5.00022e-05
5.44649e-05
5.51688e-05
5.46407e-05
2.07266e-05
2.22448e-05
3.44575e-05
3.80699e-05
3.40137e-05
2.71141e-05
2.42929e-05
2.37523e-05
2.42679e-05
2.80054e-05
4.14328e-05
5.2506e-05
5.72156e-05
5.98539e-05
6.16774e-05
6.23225e-05
6.23638e-05
6.16955e-05
2.00328e-05
2.08294e-05
2.65924e-05
3.47988e-05
3.26126e-05
2.55238e-05
2.28064e-05
2.24072e-05
2.28833e-05
2.64328e-05
4.03571e-05
5.15745e-05
5.46597e-05
5.46479e-05
5.29799e-05
4.99266e-05
4.56132e-05
4.3776e-05
2.03543e-05
2.7624e-05
3.46228e-05
3.24963e-05
2.72474e-05
2.58766e-05
2.50761e-05
2.47921e-05
2.49754e-05
2.6753e-05
3.52564e-05
4.77866e-05
5.3825e-05
5.52411e-05
5.50909e-05
5.38707e-05
4.8967e-05
4.16397e-05
2.17867e-05
2.4242e-05
2.35104e-05
2.18059e-05
2.12265e-05
2.11115e-05
2.1097e-05
2.11512e-05
2.1401e-05
2.22177e-05
2.50048e-05
3.48318e-05
4.5351e-05
4.97073e-05
5.03368e-05
4.94637e-05
4.42039e-05
3.74813e-05
2.11153e-05
2.29334e-05
2.20421e-05
2.12323e-05
2.08058e-05
2.07098e-05
2.07364e-05
2.09277e-05
2.16587e-05
2.47566e-05
3.44382e-05
3.994e-05
4.05196e-05
3.95802e-05
3.6168e-05
3.18067e-05
2.82607e-05
2.65359e-05
2.06744e-05
2.03536e-05
2.06027e-05
2.10869e-05
2.2245e-05
2.6055e-05
2.90868e-05
2.85798e-05
2.56524e-05
2.4898e-05
2.6084e-05
2.96448e-05
3.0683e-05
3.0383e-05
2.84579e-05
2.59166e-05
2.48506e-05
2.46711e-05
2.25824e-05
2.04192e-05
2.01597e-05
2.02443e-05
2.05344e-05
2.16995e-05
2.68709e-05
4.37166e-05
5.63199e-05
5.90593e-05
5.77461e-05
4.91725e-05
3.64954e-05
2.95058e-05
2.6297e-05
2.52537e-05
2.51832e-05
2.57446e-05
2.01247e-05
2.06629e-05
2.08987e-05
2.08515e-05
2.08711e-05
2.13377e-05
2.48009e-05
3.23845e-05
3.40952e-05
3.35449e-05
3.3175e-05
3.35014e-05
3.36194e-05
3.29103e-05
3.01376e-05
2.85834e-05
2.84044e-05
2.89244e-05
2.00436e-05
2.0723e-05
2.09922e-05
2.09095e-05
2.07649e-05
2.08241e-05
2.16185e-05
2.64903e-05
3.06707e-05
3.07854e-05
2.9809e-05
2.92771e-05
2.92744e-05
2.92806e-05
2.8931e-05
2.74099e-05
2.56487e-05
2.51445e-05
2.00043e-05
2.02526e-05
2.14058e-05
2.19454e-05
2.19705e-05
2.17116e-05
2.17099e-05
2.22692e-05
2.32314e-05
2.32068e-05
2.24793e-05
2.191e-05
2.18383e-05
2.19427e-05
2.2484e-05
2.30035e-05
2.3206e-05
2.32129e-05
2.05633e-05
2.12021e-05
2.17036e-05
2.1965e-05
2.23493e-05
2.34684e-05
2.4585e-05
2.48965e-05
2.48317e-05
2.41734e-05
2.28767e-05
2.19981e-05
2.14513e-05
2.11293e-05
2.09498e-05
2.08553e-05
2.08065e-05
2.08064e-05
2.11975e-05
2.20969e-05
2.17303e-05
2.13413e-05
2.13013e-05
2.16003e-05
2.25861e-05
2.3076e-05
2.31359e-05
2.29783e-05
2.22958e-05
2.17229e-05
2.14589e-05
2.13814e-05
2.13822e-05
2.14594e-05
2.16552e-05
2.17513e-05
2.00741e-05
2.05675e-05
2.39043e-05
2.50346e-05
2.3174e-05
2.17894e-05
2.15542e-05
2.15472e-05
2.15589e-05
2.15392e-05
2.14083e-05
2.12454e-05
2.11633e-05
2.1134e-05
2.11302e-05
2.11421e-05
2.12103e-05
2.13475e-05
2.01528e-05
2.14111e-05
2.61364e-05
3.21123e-05
3.22855e-05
3.12041e-05
2.87425e-05
2.5768e-05
2.37606e-05
2.24755e-05
2.16676e-05
2.11621e-05
2.08552e-05
2.06867e-05
2.06109e-05
2.05879e-05
2.05864e-05
2.05934e-05
2.01216e-05
2.06252e-05
2.09365e-05
2.15377e-05
2.40645e-05
2.60349e-05
2.54828e-05
2.35047e-05
2.23755e-05
2.18718e-05
2.16724e-05
2.16243e-05
2.1635e-05
2.17546e-05
2.23859e-05
2.31585e-05
2.34769e-05
2.35136e-05
2.05595e-05
2.15806e-05
2.15322e-05
2.09014e-05
2.05895e-05
2.05364e-05
2.04581e-05
2.03723e-05
2.03478e-05
2.03538e-05
2.03948e-05
2.05449e-05
2.10469e-05
2.2714e-05
2.51879e-05
2.69772e-05
2.80477e-05
2.84889e-05
2.06096e-05
2.09298e-05
2.08403e-05
2.04226e-05
2.02121e-05
2.01571e-05
2.01542e-05
2.01721e-05
2.02378e-05
2.04343e-05
2.10972e-05
2.32032e-05
2.5058e-05
2.59194e-05
2.61344e-05
2.61285e-05
2.60226e-05
2.56318e-05
2.01983e-05
2.31555e-05
2.37938e-05
2.14774e-05
2.03223e-05
2.00932e-05
2.00639e-05
2.00953e-05
2.0306e-05
2.12082e-05
2.50454e-05
3.56768e-05
4.18834e-05
4.34458e-05
4.31575e-05
4.00171e-05
3.33809e-05
2.87019e-05
2.0002e-05
1.99907e-05
2.01527e-05
2.03747e-05
2.03556e-05
2.01955e-05
1.97647e-05
1.93836e-05
1.92304e-05
1.92429e-05
1.94632e-05
1.96789e-05
1.97336e-05
1.97394e-05
1.97344e-05
1.96952e-05
1.95474e-05
1.90953e-05
2.00084e-05
1.69702e-05
1.59113e-05
1.67273e-05
1.81324e-05
1.86939e-05
1.86713e-05
1.77588e-05
1.50596e-05
1.32033e-05
1.23131e-05
1.19937e-05
1.1939e-05
1.20092e-05
1.2516e-05
1.34766e-05
1.42022e-05
1.4633e-05
2.07412e-05
2.05894e-05
2.11512e-05
2.32951e-05
3.07562e-05
3.86763e-05
4.24967e-05
4.39025e-05
4.42669e-05
4.42098e-05
4.38349e-05
4.29316e-05
4.14386e-05
3.87453e-05
3.55704e-05
3.25827e-05
3.02423e-05
2.84884e-05
0.000161768
7.43843e-05
4.65945e-05
5.72782e-05
0.000120675
0.000188354
0.000213799
0.000216762
0.000210182
0.000181649
0.000147538
0.00011769
9.21502e-05
7.26213e-05
5.91771e-05
5.05925e-05
4.49516e-05
4.07292e-05
0.0514047
0.084222
0.0967171
0.100062
0.0985887
0.0934856
0.0895826
0.085892
0.0818213
0.0777716
0.0746635
0.0724642
0.0712505
0.0694987
0.0663406
0.0621854
0.0576214
0.052144
0.0483925
0.0536774
0.0534658
0.0368066
0.0265618
0.141769
0.214794
0.170931
0.153403
0.147687
0.141975
0.138027
0.135247
0.134613
0.134645
0.135179
0.136317
0.137596
0.13864
0.139711
0.142042
0.144966
0.147689
0.151785
0.156494
0.161407
0.1668
0.172436
0.176403
0.177872
0.178328
0.178509
0.178701
0.17903
0.179865
0.182152
0.187569
0.197394
0.210537
0.216303
0.218093
0.218973
0.219724
0.220663
0.2213
0.221594
0.220562
0.219204
0.216648
0.212866
0.206061
0.195397
0.183751
0.179632
0.178332
0.170414
0.168057
0.169132
0.178751
0.224039
0.301495
0.34385
0.371796
0.397322
0.428674
0.497163
0.683745
0.683594
0.508175
0.384453
0.352942
0.133357
0.0820406
0.0666805
0.0591679
0.0469041
0.0408777
0.0330234
0.0295225
0.0264634
0.0252616
0.024912
0.0250099
0.0248148
0.0243246
0.0240567
0.023788
0.0233963
0.0231564
0.0226984
0.0222905
0.0220272
0.0218165
0.0215461
0.0211619
0.0205799
0.0202375
0.0200549
0.019896
0.0195474
0.0193078
0.0190612
0.0189605
0.018705
0.0185706
0.0183924
0.0182234
0.0180832
0.018591
0.0185968
0.0181628
0.0177391
0.0175038
0.0173348
0.0172086
0.0171187
0.0170242
0.0169092
0.0167535
0.0166489
0.0165828
0.0164095
0.0160886
0.0157602
0.0155402
0.0153396
0.0149217
0.0138735
0.0105786
0.00568038
0.0028526
0.0020033
0.00200209
0.0020698
0.00166402
0.00117604
0.00118284
0.00142162
0.00156406
0.00156466
0.00149246
0.00141015
0.00137708
0.00138161
0.00157223
0.0026665
0.00350948
0.0026364
0.000901439
0.000673241
0.000703717
0.000723259
0.00071963
0.000694531
0.000680775
0.000626238
0.000372962
0.000188053
0.000117059
0.000104228
0.000119145
8.50289e-05
0.0537238
0.0909834
0.0855378
0.080276
0.0763416
0.0752275
0.0754189
0.0762036
0.0782011
0.0789521
0.0790863
0.0789551
0.0783154
0.0765787
0.0691922
0.0602248
0.0554186
0.053034
0.0641519
0.114423
0.161603
0.162464
0.157763
0.160069
0.149895
0.117471
0.110659
0.107704
0.106112
0.104636
0.102661
0.101376
0.100446
0.100227
0.100229
0.100687
0.101542
0.101943
0.10261
0.102816
0.102549
0.10235
0.102301
0.102536
0.102867
0.104102
0.10542
0.107314
0.110679
0.115111
0.121289
0.129153
0.138557
0.148245
0.152898
0.153589
0.15284
0.152109
0.152231
0.1535
0.156169
0.161758
0.167164
0.172564
0.179062
0.187048
0.196916
0.208597
0.218925
0.222858
0.233832
0.23198
0.215139
0.19842
0.183003
0.171609
0.17688
0.172852
0.153286
0.135994
0.138227
0.150005
0.183397
0.24972
0.418901
0.58248
0.464201
0.300033
0.165692
0.0783023
0.0576452
0.0526797
0.0510251
0.0505187
0.051863
0.0523709
0.0526145
0.0526486
0.0521711
0.0510363
0.0501617
0.048995
0.0466995
0.0439696
0.041507
0.0390269
0.036336
0.0339224
0.0317097
0.0290244
0.0271719
0.0255221
0.02388
0.0225117
0.0217199
0.0211629
0.020967
0.0205142
0.020272
0.0198748
0.0197261
0.0194055
0.0191325
0.0188157
0.0185062
0.0179169
0.017728
0.0175585
0.0173408
0.0170932
0.0168347
0.0166475
0.0164988
0.0164049
0.0163869
0.0163935
0.0164161
0.0164758
0.0166191
0.0168297
0.0170594
0.0172714
0.0174614
0.01782
0.0185765
0.0190608
0.0190473
0.0186711
0.0171691
0.0135749
0.0105487
0.00769321
0.005248
0.00370111
0.00285672
0.00241288
0.00222471
0.00217794
0.00215056
0.00207663
0.00197801
0.00191905
0.00193769
0.00209873
0.00254493
0.00254979
0.00202393
0.00166732
0.00157693
0.00153168
0.00149598
0.0014568
0.00140254
0.00135373
0.00132503
0.00131321
0.00128913
0.00128719
0.00127499
0.00127939
0.0590149
0.0655634
0.0577277
0.0546083
0.056698
0.0606038
0.0650404
0.066267
0.0672242
0.0698204
0.0718864
0.0738225
0.076528
0.0763597
0.0741742
0.0665711
0.0606505
0.0657177
0.134971
0.165001
0.160843
0.146076
0.118846
0.0990666
0.0894787
0.0868354
0.0863688
0.0856565
0.0846484
0.0844604
0.0844405
0.0844914
0.0843205
0.0836811
0.0827164
0.0815612
0.079961
0.0775087
0.0744881
0.071603
0.069366
0.0679262
0.0670841
0.0667333
0.0666961
0.0675542
0.0684531
0.0702066
0.0720107
0.0736045
0.0755137
0.0784767
0.0825011
0.0871879
0.0922145
0.0975933
0.103042
0.108909
0.114659
0.119665
0.125316
0.131319
0.1385
0.144699
0.148678
0.148432
0.147606
0.146109
0.149429
0.155818
0.161496
0.166166
0.190826
0.217122
0.209395
0.165065
0.134724
0.0858008
0.0694824
0.0711722
0.0838922
0.115783
0.191533
0.288441
0.410983
0.417203
0.250821
0.122951
0.0752359
0.0590326
0.0567567
0.05762
0.0619335
0.0637665
0.0643887
0.0638302
0.0628272
0.0623115
0.0607707
0.0593247
0.0587653
0.0582709
0.0572578
0.05587
0.0544229
0.0525908
0.050191
0.0470209
0.0429142
0.0383094
0.0329135
0.0276827
0.0242836
0.0207462
0.0188063
0.0166077
0.0148026
0.0138552
0.0133269
0.0132707
0.0131306
0.0129535
0.0126645
0.0122666
0.0117257
0.0112682
0.0110283
0.0109224
0.010874
0.0108939
0.0109138
0.0109111
0.0108791
0.0108114
0.0107973
0.0108151
0.0109221
0.0111125
0.0112364
0.0113842
0.0117602
0.0124691
0.0129697
0.0132537
0.013671
0.0147286
0.0165243
0.0176132
0.0177332
0.0173344
0.0154107
0.0108022
0.00718676
0.00483758
0.00360725
0.00299119
0.0026527
0.00247795
0.00237493
0.00227936
0.002186
0.00211597
0.00210216
0.00213052
0.00214639
0.00209502
0.00195368
0.00194336
0.00193311
0.0018634
0.00177369
0.00170664
0.00160227
0.00142978
0.00123234
0.00106743
0.000985061
0.000960968
0.000964949
0.0010106
0.0437044
0.0473063
0.0458905
0.049254
0.0585535
0.0705224
0.0797617
0.080919
0.0795727
0.0755053
0.0732007
0.0728709
0.0731859
0.0745688
0.0735247
0.0688945
0.0640345
0.100556
0.154236
0.155963
0.126739
0.0836521
0.0700846
0.0659279
0.0642391
0.0632221
0.0605832
0.0581604
0.0570075
0.0554444
0.0536397
0.0515983
0.0492603
0.0460909
0.0421083
0.0379593
0.0342064
0.0314548
0.0293968
0.0278104
0.0269365
0.0265241
0.0264081
0.0268665
0.0278456
0.0291923
0.0312578
0.0341193
0.0376767
0.0418905
0.0469564
0.0534753
0.0608969
0.069165
0.0782685
0.087833
0.0964885
0.10342
0.109626
0.116442
0.125147
0.135792
0.147905
0.160377
0.167768
0.170297
0.170431
0.164026
0.151139
0.146374
0.152849
0.176928
0.223307
0.215786
0.143712
0.0436214
0.0414631
0.0525361
0.071807
0.0995309
0.138897
0.190104
0.247612
0.281714
0.298047
0.189102
0.107164
0.0720132
0.0619456
0.0606221
0.0669317
0.073617
0.0753685
0.0750939
0.0707766
0.0678923
0.0654472
0.0620856
0.0607659
0.0592174
0.0581103
0.0575937
0.0570855
0.0566903
0.0565105
0.0561188
0.0550279
0.0536703
0.0518789
0.0493406
0.0459761
0.0405432
0.0328701
0.0249211
0.0191672
0.0165543
0.0134366
0.0116215
0.00998924
0.00907095
0.00866686
0.00847112
0.00840521
0.00837534
0.00837359
0.00851249
0.00887541
0.00913499
0.00929861
0.00940317
0.00946372
0.00949639
0.0095184
0.00956017
0.0096401
0.00980897
0.0101966
0.0106086
0.010941
0.0112651
0.0118841
0.013631
0.0166956
0.0186648
0.0192152
0.0190419
0.0177732
0.0172765
0.0176214
0.0186204
0.0185378
0.0167708
0.0110925
0.00704817
0.00492154
0.00406085
0.0035662
0.00314209
0.00284159
0.00264967
0.00253793
0.00249511
0.00250276
0.00260883
0.00286723
0.0031958
0.00352415
0.00368888
0.00366265
0.00338937
0.00299489
0.00269703
0.00243749
0.00211496
0.00170237
0.00130061
0.000986868
0.000816593
0.000760999
0.000728305
0.0371957
0.0455609
0.043975
0.0555242
0.077426
0.0858535
0.0904282
0.0920994
0.0913035
0.0874848
0.077587
0.0736076
0.071753
0.0719068
0.0719018
0.0681222
0.0746803
0.131731
0.146914
0.121801
0.066488
0.0515831
0.0474599
0.045834
0.044094
0.0406718
0.0372887
0.0350904
0.0332284
0.0308272
0.0283577
0.0260348
0.0236617
0.0211043
0.0192122
0.0175359
0.0163249
0.0156714
0.0150598
0.0147857
0.0146565
0.01462
0.0147418
0.0148619
0.015192
0.0157035
0.0165636
0.0180238
0.0202625
0.0237368
0.0277999
0.031944
0.0371729
0.0435616
0.0503626
0.0568278
0.0630647
0.0685475
0.0737027
0.0816043
0.0932378
0.109793
0.12918
0.147666
0.162361
0.169659
0.172345
0.172672
0.173981
0.182808
0.193628
0.192215
0.144855
0.0530356
0.0348728
0.0353828
0.0469712
0.0657637
0.0868876
0.114566
0.147385
0.178329
0.192629
0.187781
0.138834
0.0915662
0.0701578
0.0638087
0.0640932
0.0732292
0.0812248
0.0825169
0.0804482
0.0725307
0.0658613
0.05769
0.0523802
0.0503132
0.0496532
0.0496736
0.0504725
0.0506266
0.0504212
0.0491396
0.0484179
0.0483953
0.0503203
0.0514544
0.0519864
0.0504213
0.0486375
0.0454656
0.041867
0.0355917
0.0258895
0.0194739
0.0152414
0.011966
0.00981852
0.00836561
0.0075915
0.00728906
0.00723789
0.00725236
0.00735416
0.00783181
0.00847442
0.00884837
0.00902373
0.00910341
0.00914312
0.00917184
0.0092134
0.00931436
0.00948162
0.00976292
0.0104763
0.0118654
0.0135942
0.0151278
0.0174406
0.0230335
0.034451
0.0433674
0.0468796
0.0468794
0.0429994
0.0290068
0.021647
0.0204904
0.0209383
0.0208622
0.018697
0.0118287
0.00757901
0.00558775
0.00479312
0.00430343
0.00377516
0.00339268
0.00321966
0.00315502
0.00316786
0.00341352
0.00390313
0.00425459
0.00449079
0.00459526
0.00457111
0.0043742
0.00408337
0.00367925
0.00315146
0.00270019
0.00235558
0.00205742
0.00181462
0.00160292
0.00152309
0.00139399
0.0358382
0.0455892
0.0438023
0.0703114
0.084882
0.0899755
0.093232
0.0965741
0.0969309
0.0944863
0.083466
0.0743011
0.0717874
0.0712444
0.0703678
0.0706199
0.0985506
0.131857
0.128063
0.066696
0.0411086
0.0350404
0.0328705
0.0312899
0.0283645
0.0249461
0.0226497
0.0211152
0.0195678
0.0180653
0.0166634
0.0157884
0.0149123
0.0142922
0.0139964
0.0137091
0.0135368
0.0134359
0.0133595
0.0133232
0.0133063
0.0132969
0.0132786
0.0131213
0.0128683
0.0126158
0.0123631
0.0120902
0.011808
0.0116343
0.0115715
0.0119898
0.012681
0.0138314
0.0156509
0.0181505
0.0214214
0.0257326
0.0301589
0.0344068
0.0385881
0.0453313
0.0561559
0.0753636
0.100067
0.125241
0.142562
0.150652
0.15311
0.143579
0.111717
0.0603378
0.0337119
0.0279932
0.0284211
0.0373272
0.05298
0.0673053
0.0824338
0.100928
0.115556
0.122037
0.122199
0.104073
0.0794471
0.0673848
0.0632813
0.0651979
0.0747839
0.0859552
0.0878119
0.0858551
0.0776607
0.062685
0.0515183
0.047196
0.0459745
0.0459491
0.0479351
0.0524065
0.0560496
0.0575128
0.0577372
0.0540812
0.0472248
0.0443415
0.0427144
0.0419031
0.0443899
0.0461672
0.0466234
0.0454739
0.0429238
0.0387164
0.0317822
0.0239251
0.0179272
0.013382
0.0102514
0.00829188
0.00721838
0.00678926
0.00672417
0.00674117
0.00693063
0.00766397
0.00841394
0.00882848
0.00899367
0.00902363
0.00903001
0.00904879
0.00910471
0.00925541
0.00962086
0.0104895
0.0126799
0.0175305
0.0251288
0.0324939
0.0414425
0.057755
0.0811424
0.105027
0.119888
0.123351
0.120482
0.0975271
0.0499795
0.029462
0.024856
0.0243594
0.0234935
0.0202969
0.0132012
0.00866626
0.0064973
0.00539315
0.00479
0.00440312
0.00408096
0.00385003
0.00379744
0.00392497
0.00430587
0.00456489
0.00471021
0.00476446
0.00471375
0.00446976
0.00427595
0.00411724
0.00385876
0.00339869
0.00285296
0.00243473
0.00219259
0.00197294
0.00183807
0.00169356
0.0353733
0.0455922
0.0458949
0.0785062
0.0880536
0.0913677
0.0943554
0.0984609
0.0977991
0.0938721
0.0839158
0.0762846
0.0723899
0.0699223
0.0694588
0.0799327
0.117467
0.124963
0.0882141
0.0391738
0.0279289
0.0248668
0.0234288
0.0216768
0.0190122
0.017113
0.0161824
0.0154399
0.0149175
0.014569
0.0143983
0.0142889
0.0142388
0.014235
0.0143715
0.014716
0.0151838
0.0157843
0.0163368
0.0168387
0.0171574
0.0172805
0.0172797
0.016821
0.0162136
0.0152053
0.0144941
0.0133577
0.0122392
0.0112282
0.0102146
0.00952916
0.00906462
0.00886721
0.0087897
0.00923992
0.0102951
0.0123035
0.0154282
0.0191894
0.0217555
0.0242248
0.026044
0.0281638
0.0317554
0.0372604
0.043488
0.046012
0.0459634
0.0343678
0.0239763
0.0198866
0.0186886
0.0189676
0.0233998
0.0344072
0.0468746
0.0572883
0.0687388
0.0800399
0.0855098
0.0873906
0.0831479
0.0701993
0.0637952
0.0615638
0.0640267
0.0758152
0.089459
0.0941078
0.0949118
0.0914603
0.0774849
0.056493
0.0462986
0.0442442
0.0442719
0.0471099
0.0552843
0.0700627
0.0872675
0.0950426
0.097009
0.0924299
0.0679035
0.0509701
0.0429454
0.0392575
0.0376131
0.0377842
0.0395705
0.0402074
0.0403503
0.0388628
0.0330672
0.025517
0.0188985
0.0138813
0.0104807
0.00829505
0.00705619
0.00653375
0.00643117
0.00648194
0.00679322
0.00771425
0.00855277
0.00895796
0.00905068
0.00899752
0.00894737
0.00895184
0.00903007
0.0093673
0.010398
0.0130968
0.019704
0.0359034
0.0570721
0.0811273
0.106623
0.12637
0.139757
0.149355
0.158146
0.165456
0.167647
0.164325
0.132475
0.0631266
0.0360467
0.0295474
0.0279074
0.0250167
0.0207427
0.0150233
0.0101321
0.00724741
0.00582438
0.00511902
0.00462862
0.00431664
0.00424937
0.0042975
0.00448166
0.00460612
0.0046927
0.00473413
0.0046385
0.00418751
0.00387571
0.00383953
0.00384643
0.00379657
0.00352228
0.00296249
0.00250295
0.00220239
0.00199812
0.00182953
0.0345405
0.045321
0.0491046
0.0817529
0.0890628
0.0914723
0.0919697
0.0927918
0.0950685
0.0916601
0.0830668
0.0761658
0.0715147
0.0686736
0.0715973
0.0948258
0.115016
0.109343
0.0506737
0.025969
0.0205373
0.0187437
0.0177425
0.0163665
0.0150832
0.0145704
0.0143827
0.0143351
0.0143922
0.0144774
0.0146011
0.0149454
0.0155757
0.016666
0.0184268
0.0207499
0.0226793
0.0244883
0.0254789
0.0261823
0.026508
0.0266231
0.0265603
0.0260894
0.0254689
0.0245155
0.0236457
0.0222415
0.0205812
0.0184793
0.0160252
0.0134317
0.0108957
0.0093286
0.00828521
0.00778245
0.00762693
0.00763033
0.0084926
0.0103299
0.0139905
0.0167878
0.0182694
0.0189233
0.0190641
0.0180869
0.0168899
0.0160907
0.0143458
0.0118903
0.0113613
0.011338
0.0116692
0.0131035
0.0173607
0.0253914
0.0355319
0.0444415
0.0518109
0.059212
0.0623491
0.0631323
0.0589726
0.0554805
0.0545078
0.0559718
0.0642457
0.0843663
0.102623
0.104975
0.102993
0.0979919
0.0840297
0.0613095
0.0476051
0.0445817
0.0444873
0.0473881
0.0573368
0.0780207
0.107943
0.139643
0.152894
0.154507
0.133858
0.0858884
0.0553886
0.0418103
0.0363829
0.0342751
0.0345498
0.0350447
0.0346739
0.0347123
0.0327385
0.0258101
0.0190116
0.0138475
0.0101918
0.00792833
0.00676451
0.00632273
0.00624739
0.00634466
0.00685775
0.00814564
0.00901452
0.00924854
0.00918435
0.0088826
0.00869537
0.00869786
0.00888286
0.00976737
0.0126089
0.020552
0.0410452
0.0796405
0.107394
0.126207
0.140314
0.15105
0.157533
0.160186
0.162299
0.167256
0.174065
0.17622
0.171485
0.130029
0.0623663
0.0391638
0.0331867
0.0293416
0.0254083
0.0215076
0.0159914
0.0109256
0.00779046
0.00608585
0.00508814
0.00460667
0.00449614
0.00450614
0.00455522
0.00462441
0.00472492
0.00474518
0.00456495
0.00375647
0.00309535
0.00296703
0.00303357
0.0033255
0.00348214
0.00344782
0.00311691
0.00254843
0.00217458
0.00193357
0.0341489
0.0441574
0.0515966
0.0823038
0.0892021
0.0908957
0.0907856
0.0889009
0.0877923
0.086314
0.0810913
0.074296
0.0691055
0.0685346
0.077416
0.103494
0.109138
0.0821639
0.0320678
0.0192948
0.0164708
0.0154563
0.0148744
0.0142745
0.0140439
0.0140733
0.014293
0.0144479
0.0147985
0.0154508
0.0166796
0.0188011
0.0220446
0.0250841
0.0277654
0.0293767
0.0306218
0.031247
0.0315755
0.0317044
0.031721
0.0314528
0.0311934
0.0304931
0.0298997
0.0291128
0.0281979
0.0271966
0.0262044
0.0253512
0.0242413
0.0227457
0.0206638
0.0169032
0.0134129
0.0100014
0.0082855
0.00712993
0.00657323
0.00644651
0.00683051
0.00846555
0.0123478
0.0151599
0.0162541
0.0157286
0.013973
0.0117537
0.00974359
0.0081287
0.00734365
0.00715859
0.00719895
0.00795986
0.0101097
0.015032
0.0237225
0.0340332
0.0391654
0.0425285
0.0454118
0.0464271
0.0455412
0.0451588
0.0456637
0.049334
0.0603698
0.0801965
0.104423
0.115791
0.118891
0.11517
0.103774
0.0818648
0.0601922
0.0520537
0.0509048
0.0533452
0.0612656
0.0768301
0.105957
0.145032
0.170757
0.175322
0.165267
0.134755
0.0840936
0.0522511
0.0375593
0.0327218
0.0314839
0.0320603
0.032036
0.0306187
0.0287191
0.0235758
0.016973
0.0120699
0.00896699
0.00713568
0.00622078
0.00598282
0.00600869
0.00626106
0.007298
0.00879687
0.00935681
0.00938556
0.00918871
0.00848208
0.00816893
0.00819755
0.00869238
0.0108757
0.0182469
0.0414944
0.0804426
0.107041
0.124569
0.136745
0.146408
0.153631
0.158305
0.160224
0.160225
0.15991
0.161661
0.173166
0.176611
0.1671
0.109395
0.0573946
0.04059
0.0337204
0.0290318
0.0249204
0.0210068
0.015763
0.0108937
0.00777358
0.0059898
0.00510323
0.00474618
0.00462873
0.00462061
0.00463946
0.00472228
0.00470846
0.00441669
0.00330436
0.00227429
0.00195953
0.00197826
0.00225043
0.00292059
0.00321691
0.00323204
0.00304488
0.0024804
0.00207129
0.0341951
0.0424357
0.0521257
0.0815504
0.0889379
0.0908033
0.0905462
0.0878847
0.0841743
0.0812437
0.0770662
0.071048
0.068217
0.0692674
0.0841672
0.103298
0.101848
0.0589299
0.0229802
0.0158144
0.0143132
0.0138684
0.0137224
0.0137553
0.0139645
0.0141763
0.0146487
0.0154072
0.0168652
0.0197079
0.0231327
0.0266114
0.0287907
0.0306008
0.0317528
0.0326648
0.0334019
0.0338457
0.0341133
0.0341971
0.0341693
0.0339986
0.0337168
0.033054
0.0324607
0.0315927
0.0304976
0.029567
0.0284463
0.0273633
0.0264825
0.025548
0.0248613
0.0239537
0.0226364
0.0199811
0.015605
0.0119642
0.00833506
0.0065342
0.00561249
0.00531494
0.00523575
0.00662002
0.0108094
0.0139065
0.0146818
0.0135889
0.0109394
0.00833591
0.00687723
0.00611209
0.00563725
0.00556622
0.00597227
0.00769755
0.0120553
0.0202953
0.0305927
0.035022
0.0357843
0.0355982
0.0349543
0.0353446
0.0363205
0.0391667
0.0481581
0.0670816
0.0941664
0.113736
0.122972
0.128344
0.129836
0.125267
0.112812
0.0992978
0.0944265
0.0995253
0.113338
0.134792
0.154376
0.165994
0.17682
0.180319
0.172622
0.147746
0.0957617
0.0579076
0.0390551
0.0318194
0.0299378
0.0288527
0.0283575
0.0282189
0.0264315
0.0206793
0.0147835
0.0107586
0.00813064
0.0066738
0.00595905
0.00579276
0.00588612
0.00639402
0.00800166
0.00920355
0.00948118
0.00943038
0.00887625
0.00774928
0.00743288
0.00756231
0.00872098
0.0136773
0.03147
0.0705336
0.0978878
0.115757
0.127962
0.137701
0.144619
0.147876
0.148454
0.148024
0.146009
0.145434
0.148737
0.168347
0.179222
0.177193
0.150508
0.0835777
0.0525046
0.0398252
0.032533
0.0273953
0.0232879
0.0196672
0.015402
0.010857
0.007805
0.00612898
0.00527961
0.00488805
0.00472471
0.00469207
0.00466911
0.0044942
0.00374066
0.00250717
0.00164159
0.00121758
0.00114732
0.00122098
0.00171014
0.00254921
0.00290138
0.00294051
0.00281678
0.00232802
0.0348191
0.0407567
0.0508084
0.0784112
0.0876676
0.0910642
0.09171
0.0895375
0.0845289
0.0804669
0.0761265
0.0706335
0.0684211
0.0711042
0.0909818
0.102118
0.0914564
0.0437918
0.0183793
0.0139852
0.0132235
0.0131067
0.0133025
0.0137827
0.0141102
0.0147435
0.0161245
0.0189814
0.0221937
0.0254448
0.0279627
0.0299639
0.0314723
0.0328932
0.0345277
0.0361534
0.0376304
0.0391269
0.0406015
0.0419745
0.0426822
0.042996
0.0430389
0.04171
0.0399869
0.0375449
0.0345284
0.031991
0.0295916
0.0278548
0.0268601
0.0261061
0.025763
0.0253375
0.0250788
0.0242185
0.0227133
0.0206082
0.0175266
0.0127871
0.00827092
0.00579748
0.00456463
0.00395639
0.00369168
0.00515164
0.0100877
0.0140543
0.0148261
0.013176
0.00976454
0.00698275
0.00574834
0.00520236
0.00491859
0.004948
0.00592124
0.00916342
0.0158761
0.0245092
0.030379
0.0315932
0.0301137
0.0290008
0.0288191
0.0298628
0.033443
0.0426507
0.0595854
0.0896473
0.114228
0.126405
0.133149
0.138208
0.141517
0.143446
0.14641
0.152581
0.162579
0.172462
0.180202
0.183199
0.18312
0.180886
0.172447
0.148271
0.0969313
0.0582621
0.0375668
0.029508
0.0272031
0.0269542
0.0266739
0.0256354
0.0226392
0.0168725
0.012388
0.00902516
0.00684163
0.00583133
0.00552311
0.00555363
0.00582132
0.00690038
0.00871191
0.00942647
0.00951524
0.00932228
0.00814396
0.00681957
0.00659074
0.0069524
0.00940368
0.0194419
0.0521981
0.0843483
0.104178
0.117727
0.126243
0.129552
0.130494
0.131047
0.131078
0.129733
0.12851
0.129095
0.138811
0.177206
0.191235
0.189484
0.174242
0.115363
0.067525
0.0465417
0.0359454
0.0293499
0.0246846
0.0214464
0.0186919
0.0155099
0.011347
0.00825029
0.00648863
0.00551033
0.00503491
0.00489292
0.00469104
0.00404926
0.003026
0.00214631
0.00140668
0.000934097
0.000790248
0.00079889
0.000957647
0.00166491
0.00238689
0.00265165
0.00266688
0.00251576
0.0371516
0.0392966
0.0479205
0.0751585
0.0859157
0.0907494
0.092762
0.0926099
0.0887041
0.0821586
0.0767313
0.0716559
0.0700586
0.0761208
0.0957275
0.099729
0.082842
0.0333152
0.0159084
0.012998
0.0126215
0.0127089
0.0132584
0.0139016
0.0146605
0.0163227
0.0197883
0.0228746
0.0257525
0.0278317
0.0297725
0.0318364
0.0342805
0.037569
0.0407804
0.0446842
0.0479102
0.0505868
0.0521953
0.0532314
0.0537423
0.0539537
0.053922
0.0533381
0.0523248
0.0507232
0.0480974
0.043719
0.0382583
0.0320374
0.0276785
0.0256316
0.0249122
0.0248537
0.0254209
0.0252546
0.024853
0.0235323
0.0223169
0.0207291
0.0172214
0.0116489
0.00756726
0.00478921
0.00323262
0.00253373
0.00237834
0.00420531
0.00974789
0.0148716
0.0159167
0.0136863
0.00916277
0.00631845
0.00528089
0.00481167
0.00464914
0.00507602
0.00694028
0.0112903
0.0180464
0.0246141
0.0269336
0.0265816
0.0259573
0.0255657
0.0261878
0.0286621
0.0343411
0.0460246
0.0689011
0.0976777
0.119997
0.132481
0.140606
0.146795
0.15306
0.159775
0.167035
0.173429
0.17948
0.180095
0.178186
0.171331
0.153734
0.112301
0.0656302
0.0392877
0.0290505
0.0259402
0.0253334
0.0248069
0.0239732
0.0224002
0.0188248
0.0136748
0.00936847
0.0067019
0.00566039
0.00532907
0.00531277
0.00546227
0.00604848
0.00784669
0.00915271
0.00950017
0.00946946
0.00893592
0.00696561
0.00574604
0.00567627
0.00653048
0.0111587
0.0301861
0.0669003
0.0904026
0.106292
0.112775
0.113327
0.113074
0.113125
0.113677
0.114783
0.11561
0.116629
0.119536
0.134428
0.19519
0.21942
0.216621
0.199818
0.141331
0.0848305
0.056085
0.0407751
0.0316113
0.0256789
0.0219937
0.0198142
0.0180671
0.0160328
0.0125067
0.0092313
0.00702621
0.00595084
0.00544128
0.00473579
0.00380991
0.00289365
0.00207398
0.0013347
0.000798448
0.000570759
0.0005461
0.000601686
0.000940878
0.00175382
0.00224163
0.00239195
0.00238209
0.0436125
0.0389809
0.0428464
0.0674847
0.0824891
0.0891052
0.0930726
0.0940307
0.0930956
0.0887938
0.0817175
0.0776476
0.0769538
0.0860195
0.0963975
0.096646
0.0728364
0.0271713
0.0145599
0.0124357
0.0122309
0.0124599
0.0132501
0.0142263
0.0160146
0.0197548
0.0229546
0.0253264
0.0277892
0.0296835
0.0322062
0.0356566
0.0401742
0.0451632
0.0494212
0.0528774
0.0551145
0.0562729
0.0568419
0.0571179
0.057277
0.0573396
0.0571587
0.0568184
0.0562251
0.0553697
0.0540405
0.052018
0.0492729
0.0445702
0.0362019
0.0293133
0.0251021
0.0235232
0.0230485
0.024668
0.0254978
0.0247853
0.0237641
0.023008
0.0217529
0.018887
0.0135329
0.00909848
0.00558253
0.00313734
0.00195102
0.00148981
0.00153421
0.00320158
0.00976428
0.0163049
0.0177977
0.0143963
0.00851645
0.00598517
0.00497117
0.00455926
0.00464637
0.00553159
0.00792157
0.0122346
0.01819
0.0221175
0.0232753
0.0234978
0.023703
0.0240821
0.0252129
0.0280992
0.0342862
0.04542
0.0649222
0.0876848
0.110647
0.127238
0.138096
0.147763
0.153372
0.161286
0.160916
0.157735
0.14971
0.132754
0.0986504
0.0597914
0.0394317
0.0294345
0.0255721
0.0242393
0.0235053
0.0228548
0.0216837
0.0191653
0.0138888
0.00922525
0.00672863
0.0056077
0.00519001
0.00512649
0.00522389
0.005571
0.0068573
0.00866857
0.00934129
0.0094504
0.0092365
0.00795452
0.00547535
0.00460757
0.00471375
0.00641084
0.0147257
0.0443087
0.0745282
0.0931173
0.0995432
0.100422
0.100279
0.10007
0.10026