/*--------------------------------*- C++ -*----------------------------------*\
  =========                 |
  \\      /  F ield         | OpenFOAM: The Open Source CFD Toolbox
   \\    /   O peration     | Website:  https://openfoam.org
    \\  /    A nd           | Version:  9
     \\/     M anipulation  |
\*---------------------------------------------------------------------------*/
FoamFile
{
    format      ascii;
    class       volScalarField;
    location    "0.059";
    object      p;
}
// * * * * * * * * * * * * * * * * * * * * * * * * * * * * * * * * * * * * * //

dimensions      [0 2 -2 0 0 0 0];

internalField   nonuniform List<scalar> 
12225
(
301.119
295.845
291.215
287.573
284.48
281.699
279.141
276.787
274.615
272.598
270.729
268.992
267.346
265.776
264.196
262.661
261.009
259.235
300.384
295.826
291.195
287.54
284.456
281.685
279.131
276.781
274.61
272.587
270.705
268.953
267.294
265.707
264.122
262.549
260.874
258.915
300.46
295.805
291.161
287.488
284.409
281.644
279.096
276.755
274.589
272.566
270.675
268.909
267.228
265.606
263.998
262.367
260.634
258.626
302.292
295.796
291.094
287.422
284.358
281.608
279.067
276.73
274.566
272.538
270.635
268.85
267.148
265.498
263.864
262.2
260.437
258.497
303.313
295.676
290.942
287.293
284.259
281.533
279.01
276.687
274.531
272.504
270.593
268.792
267.072
265.4
263.746
262.066
260.322
258.507
301.812
295.303
290.759
287.171
284.167
281.46
278.952
276.636
274.483
272.455
270.539
268.726
266.991
265.302
263.633
261.957
260.256
258.545
299.805
294.701
290.411
286.941
284.003
281.342
278.867
276.571
274.429
272.405
270.484
268.659
266.908
265.206
263.534
261.876
260.224
258.597
299.32
294.085
289.997
286.724
283.859
281.228
278.779
276.498
274.359
272.333
270.409
268.578
266.822
265.117
263.448
261.808
260.197
258.635
298.679
293.239
289.469
286.374
283.618
281.056
278.656
276.405
274.283
272.261
270.331
268.49
266.724
265.016
263.355
261.739
260.17
258.666
296.248
292.028
288.826
286.027
283.419
280.925
278.547
276.306
274.186
272.167
270.242
268.404
266.64
264.935
263.284
261.687
260.149
258.684
295.075
290.955
288.11
285.573
283.097
280.692
278.375
276.175
274.079
272.069
270.143
268.303
266.539
264.842
263.206
261.631
260.122
258.687
291.356
289.123
287.331
285.192
282.904
280.574
278.276
276.074
273.977
271.965
270.039
268.203
266.444
264.752
263.122
261.558
260.065
258.649
286.169
287.645
286.671
284.777
282.608
280.333
278.073
275.913
273.843
271.842
269.924
268.094
266.341
264.658
263.042
261.494
260.015
258.608
280.997
285.942
286.038
284.467
282.423
280.201
277.963
275.795
273.717
271.716
269.797
267.968
266.218
264.539
262.927
261.385
259.913
258.511
281.247
287.013
286.141
284.297
282.145
279.896
277.677
275.553
273.515
271.538
269.641
267.829
266.089
264.417
262.811
261.274
259.806
258.404
293.388
288.764
286.49
284.252
281.965
279.731
277.548
275.417
273.347
271.359
269.452
267.632
265.894
264.227
262.627
261.095
259.628
258.223
300.396
291.776
287.581
284.582
281.907
279.477
277.204
275.056
273.018
271.064
269.184
267.383
265.658
264
262.407
260.876
259.406
257.992
294.724
289.909
286.772
284.09
281.531
279.2
276.986
274.836
272.775
270.799
268.907
267.097
265.363
263.701
262.109
260.583
259.119
257.709
279.503
285.37
285.329
283.353
280.958
278.586
276.383
274.261
272.216
270.283
268.448
266.684
264.983
263.345
261.773
260.261
258.803
257.395
299.432
292.242
287.46
284.035
281.189
278.568
276.2
274.017
271.951
269.986
268.125
266.357
264.662
263.032
261.467
259.964
258.517
257.122
308.295
295.584
288.571
283.935
280.517
277.833
275.48
273.354
271.4
269.533
267.744
266.031
264.382
262.788
261.247
259.756
258.317
256.928
304.965
292.734
286.615
282.649
279.658
277.308
275.114
273.048
271.106
269.271
267.504
265.803
264.17
262.596
261.07
259.593
258.165
256.787
300.75
290.77
284.604
280.911
278.338
276.265
274.29
272.427
270.642
268.907
267.208
265.554
263.957
262.413
260.913
259.457
258.048
256.687
281.031
281.887
280.93
279.138
277.36
275.613
273.852
272.113
270.407
268.724
267.062
265.431
263.848
262.312
260.821
259.374
257.973
256.617
274.599
278.031
278.219
277.41
276.258
274.842
273.299
271.722
270.115
268.495
266.877
265.269
263.716
262.199
260.723
259.289
257.899
256.555
264.612
273.052
276.001
276.247
275.516
274.399
273.024
271.538
269.988
268.401
266.801
265.225
263.678
262.162
260.687
259.253
257.864
256.522
264.847
271.842
274.68
275.346
274.935
273.926
272.709
271.322
269.84
268.293
266.719
265.151
263.593
262.085
260.62
259.201
257.827
256.497
265.521
270.582
273.741
274.807
274.635
273.788
272.604
271.257
269.798
268.264
266.698
265.135
263.589
262.082
260.616
259.192
257.813
256.483
263.233
269.907
273.255
274.499
274.459
273.638
272.483
271.17
269.744
268.231
266.673
265.105
263.551
262.037
260.57
259.155
257.79
256.47
261.93
269.569
273.033
274.387
274.41
273.615
272.466
271.156
269.734
268.224
266.667
265.1
263.551
262.042
260.578
259.162
257.794
256.471
227.635
227.676
227.853
227.962
227.843
227.52
227.128
226.789
226.547
226.359
226.125
225.828
225.48
225.104
224.762
224.364
223.882
223.524
222.889
222.069
221.087
220.307
219.701
219.074
218.365
217.344
216.018
214.573
212.986
211.311
209.54
207.69
205.777
203.828
201.878
199.963
198.129
196.414
194.857
193.497
192.364
191.484
190.874
190.54
190.472
190.726
191.261
192.052
193.071
194.287
195.668
197.184
198.8
200.469
202.152
203.819
205.429
206.922
208.229
209.303
210.102
210.589
210.771
210.705
210.486
210.187
209.893
209.668
209.5
209.412
209.422
209.45
209.482
209.612
208.911
207.326
204.95
201.934
198.547
195.063
191.793
189.408
188.608
189.528
191.619
194.249
196.732
198.141
202.226
203.757
197.996
187.421
175.795
164.373
154.094
145.253
138.04
132.497
128.638
126.43
125.83
126.712
128.893
132.146
136.218
140.865
145.874
151.069
156.305
161.45
166.369
170.942
175.081
178.74
181.919
184.647
186.948
188.823
190.245
191.18
191.608
191.559
191.115
190.378
189.42
188.272
186.921
185.332
183.475
181.355
178.997
176.443
173.729
170.888
167.951
164.956
161.941
158.953
156.045
153.289
150.767
148.57
146.786
145.508
144.823
144.801
145.321
146.12
146.781
147.009
146.97
146.948
146.699
145.768
144.066
141.935
139.681
137.37
134.978
132.513
130.003
127.489
125.023
122.63
120.317
118.158
116.352
115.038
114.155
113.546
112.984
112.329
111.502
110.484
109.287
107.948
106.503
105.001
103.51
101.966
227.191
227.218
227.362
227.347
227.141
226.784
226.386
226.026
225.756
225.586
225.463
225.389
225.39
225.304
225.018
224.593
224.117
223.598
222.916
222
221.268
220.328
219.149
218.382
217.895
216.971
215.779
214.356
212.749
211.005
209.155
207.229
205.243
203.234
201.226
199.26
197.381
195.629
194.05
192.681
191.558
190.707
190.154
189.913
189.988
190.308
190.888
191.714
192.762
194.005
195.41
196.949
198.598
200.329
202.093
203.826
205.459
206.935
208.215
209.255
209.999
210.417
210.523
210.383
210.122
209.822
209.57
209.425
209.407
209.456
209.542
209.495
209.434
209.331
208.663
207.191
204.863
201.678
197.938
193.996
190.231
187.361
186.116
187.123
189.868
193.633
198.667
198.522
198.116
196.686
189.813
180.129
169.651
159.481
150.259
142.22
135.571
130.432
126.892
124.95
124.541
125.567
127.869
131.232
135.41
140.149
145.232
150.481
155.76
160.947
165.915
170.54
174.722
178.409
181.597
184.324
186.632
188.527
189.983
190.95
191.399
191.35
190.886
190.133
189.164
188.014
186.67
185.086
183.233
181.111
178.753
176.2
173.488
170.65
167.717
164.726
161.717
158.732
155.825
153.066
150.541
148.335
146.532
145.238
144.553
144.461
144.849
145.561
146.21
146.526
146.669
146.844
146.751
145.839
144.116
141.996
139.766
137.45
135.023
132.52
129.979
127.449
124.974
122.566
120.226
118.052
116.248
114.937
114.118
113.53
112.981
112.334
111.509
110.484
109.281
107.933
106.486
104.982
103.489
101.979
227.134
226.905
226.494
225.957
225.358
224.787
224.316
223.998
223.861
223.91
224.115
224.451
224.831
225.091
225.168
225.098
224.875
224.496
223.856
222.906
221.977
221.075
220.067
219.016
217.909
216.643
215.235
213.657
211.923
210.043
208.043
205.956
203.811
201.651
199.512
197.44
195.478
193.668
192.053
190.668
189.55
188.724
188.206
188.007
188.133
188.563
189.276
190.251
191.457
192.854
194.406
196.085
197.86
199.686
201.515
203.292
204.954
206.45
207.745
208.783
209.5
209.86
209.887
209.641
209.241
208.82
208.555
208.563
208.833
209.312
210.001
210.622
210.845
210.611
209.63
207.885
205.315
201.853
197.589
192.61
187.524
183.329
181.543
182.725
186.751
190.033
192.011
192.396
190.335
186.057
179.424
171.494
162.804
154.115
145.915
138.604
132.436
127.624
124.31
122.529
122.267
123.452
125.93
129.482
133.847
138.753
143.967
149.312
154.664
159.922
164.976
169.698
173.968
177.715
180.924
183.646
185.955
187.885
189.405
190.446
190.947
190.902
190.424
189.646
188.66
187.511
186.176
184.6
182.746
180.621
178.26
175.707
172.999
170.164
167.234
164.245
161.238
158.257
155.352
152.586
150.046
147.822
146.006
144.689
143.949
143.825
144.283
145
145.641
146.067
146.37
146.574
146.418
145.587
144.055
142.081
139.858
137.47
134.97
132.418
129.859
127.31
124.795
122.354
120.038
117.937
116.199
114.944
114.088
113.5
112.962
112.318
111.488
110.459
109.256
107.909
106.467
104.96
103.461
101.955
226.404
225.939
225.121
224.324
223.607
222.996
222.518
222.223
222.146
222.286
222.627
223.168
223.849
224.529
225.054
225.324
225.3
225.007
224.369
223.482
222.443
221.337
220.153
218.879
217.47
215.908
214.19
212.315
210.302
208.163
205.922
203.608
201.255
198.905
196.6
194.387
192.31
190.417
188.751
187.351
186.255
185.488
185.06
184.973
185.222
185.791
186.656
187.789
189.151
190.701
192.397
194.202
196.078
197.986
199.883
201.723
203.459
205.055
206.464
207.623
208.466
208.948
209.065
208.874
208.501
208.114
207.909
208.026
208.513
209.428
210.738
211.962
212.517
212.298
211.374
209.451
206.435
202.629
198.126
192.974
187.601
183.034
180.543
180.602
182.874
185.437
186.343
185.2
182.095
177.263
171.034
163.911
156.17
148.372
140.925
134.218
128.496
123.993
120.879
119.267
119.191
120.586
123.295
127.095
131.708
136.836
142.219
147.674
153.099
158.428
163.58
168.431
172.835
176.68
179.927
182.634
184.923
186.875
188.476
189.627
190.214
190.202
189.718
188.918
187.92
186.775
185.453
183.886
182.033
179.902
177.539
174.99
172.289
169.459
166.529
163.537
160.53
157.547
154.636
151.862
149.306
147.057
145.206
143.849
143.073
142.914
143.333
144.089
144.866
145.484
145.935
146.18
146.019
145.243
143.833
141.95
139.757
137.349
134.8
132.201
129.61
127.046
124.529
122.09
119.787
117.711
115.997
114.752
113.964
113.431
112.935
112.313
111.49
110.455
109.245
107.892
106.446
104.932
103.414
101.884
224.771
224.279
223.599
222.927
222.32
221.805
221.406
221.166
221.113
221.253
221.611
222.204
222.973
223.799
224.558
225.01
225.117
224.86
224.252
223.366
222.281
221.04
219.641
218.082
216.357
214.467
212.416
210.213
207.876
205.425
202.89
200.3
197.695
195.114
192.603
190.211
187.988
185.985
184.248
182.826
181.759
181.068
180.755
180.813
181.24
182.018
183.119
184.501
186.116
187.912
189.839
191.848
193.896
195.941
197.945
199.87
201.689
203.373
204.896
206.219
207.288
208.048
208.472
208.584
208.473
208.299
208.241
208.458
209.088
210.176
211.613
212.981
213.661
213.211
212.242
210.739
208.346
205.006
200.793
195.924
190.99
186.908
184.365
183.519
183.806
183.958
182.81
180.083
176.088
170.908
164.679
157.679
150.268
142.903
135.948
129.696
124.336
120.08
117.141
115.691
115.785
117.374
120.312
124.375
129.268
134.656
140.234
145.795
151.257
156.604
161.81
166.779
171.345
175.339
178.668
181.368
183.6
185.534
187.202
188.484
189.178
189.233
188.762
187.952
186.95
185.817
184.512
182.957
181.107
178.976
176.617
174.078
171.387
168.563
165.63
162.63
159.614
156.626
153.706
150.916
148.338
146.059
144.166
142.745
141.895
141.698
142.116
142.93
143.805
144.599
145.276
145.685
145.576
144.802
143.417
141.588
139.441
137.035
134.454
131.822
129.219
126.655
124.137
121.713
119.447
117.422
115.756
114.565
113.828
113.356
112.909
112.313
111.494
110.454
109.239
107.881
106.427
104.903
103.36
101.808
223.455
223.084
222.6
222.064
221.541
221.084
220.743
220.558
220.541
220.687
221.021
221.562
222.252
223.02
223.713
224.124
224.221
223.967
223.381
222.501
221.377
220.011
218.402
216.574
214.544
212.328
209.939
207.396
204.719
201.933
199.068
196.159
193.249
190.383
187.613
184.995
182.587
180.445
178.619
177.153
176.084
175.437
175.22
175.435
176.08
177.131
178.543
180.261
182.225
184.374
186.646
188.981
191.325
193.627
195.849
197.961
199.945
201.79
203.489
205.032
206.401
207.562
208.481
209.151
209.604
209.919
210.212
210.641
211.339
212.276
213.278
214.058
214.368
214.314
213.613
212.353
210.522
208.065
205.003
201.48
197.852
194.434
191.642
189.472
187.446
184.913
181.549
177.361
172.435
166.672
160.085
152.903
145.518
138.335
131.651
125.655
120.483
116.334
113.473
112.099
112.287
114.014
117.147
121.463
126.657
132.351
138.175
143.879
149.377
154.691
159.863
164.862
169.547
173.712
177.187
179.928
182.093
183.972
185.672
187.051
187.867
188.008
187.575
186.777
185.788
184.675
183.39
181.849
180.007
177.886
175.539
173.012
170.331
167.509
164.567
161.551
158.518
155.516
152.586
149.781
147.174
144.847
142.885
141.387
140.461
140.199
140.589
141.437
142.379
143.316
144.247
144.919
144.956
144.22
142.841
141.028
138.899
136.496
133.91
131.277
128.681
126.137
123.666
121.309
119.108
117.128
115.502
114.359
113.694
113.291
112.895
112.321
111.501
110.451
109.225
107.862
106.402
104.87
103.306
101.724
222.873
222.614
222.265
221.852
221.431
221.055
220.771
220.615
220.612
220.719
220.964
221.351
221.842
222.371
222.82
223.065
223.042
222.705
222.047
221.092
219.856
218.318
216.49
214.406
212.081
209.541
206.807
203.907
200.869
197.725
194.513
191.274
188.054
184.902
181.878
179.044
176.463
174.188
172.275
170.757
169.652
168.999
168.85
169.244
170.14
171.489
173.233
175.311
177.663
180.216
182.897
185.632
188.354
191.01
193.557
195.97
198.233
200.342
202.303
204.128
205.823
207.388
208.811
210.077
211.175
212.106
212.905
213.642
214.366
215.05
215.619
215.962
216.016
215.806
215.302
214.475
213.267
211.628
209.614
207.201
204.397
201.348
198.143
194.706
190.839
186.422
181.534
176.253
170.506
164.112
157.063
149.591
142.08
134.898
128.278
122.342
117.197
113.037
110.14
108.755
108.978
110.781
114.034
118.53
123.981
129.98
136.088
141.987
147.566
152.858
157.956
162.89
167.592
171.873
175.509
178.342
180.455
182.293
183.981
185.419
186.336
186.567
186.191
185.431
184.473
183.39
182.129
180.603
178.775
176.672
174.343
171.827
169.147
166.316
163.359
160.32
157.263
154.24
151.292
148.468
145.828
143.441
141.384
139.753
138.693
138.344
138.703
139.528
140.477
141.517
142.683
143.699
144.027
143.446
142.118
140.3
138.151
135.744
133.174
130.57
128.019
125.546
123.162
120.893
118.774
116.864
115.292
114.209
113.605
113.26
112.898
112.334
111.507
110.445
109.205
107.836
106.373
104.834
103.252
101.641
223.004
222.831
222.583
222.279
221.969
221.7
221.501
221.4
221.369
221.409
221.517
221.689
221.905
222.122
222.262
222.242
221.989
221.444
220.593
219.454
218.004
216.219
214.123
211.741
209.094
206.218
203.147
199.919
196.572
193.146
189.678
186.21
182.781
179.435
176.223
173.203
170.432
167.975
165.9
164.267
163.121
162.506
162.46
163.007
164.109
165.722
167.787
170.228
172.958
175.886
178.931
182.019
185.094
188.106
191.01
193.773
196.38
198.835
201.149
203.328
205.386
207.337
209.187
210.923
212.518
213.93
215.131
216.114
216.879
217.425
217.762
217.9
217.867
217.688
217.355
216.844
216.11
215.151
213.778
211.937
209.515
206.459
202.726
198.3
193.247
187.746
182.001
176.046
169.732
162.859
155.429
147.679
139.985
132.699
126.023
120.055
114.897
110.746
107.872
106.51
106.733
108.506
111.702
116.162
121.658
127.807
134.117
140.191
145.867
151.159
156.185
161.027
165.672
169.972
173.724
176.621
178.764
180.564
182.221
183.682
184.662
184.967
184.657
183.955
183.047
182.002
180.768
179.259
177.446
175.363
173.053
170.543
167.852
165.002
162.023
158.961
155.876
152.825
149.852
146.998
144.304
141.83
139.648
137.849
136.598
136.092
136.348
137.054
137.915
139.032
140.436
141.883
142.667
142.397
141.207
139.411
137.237
134.818
132.272
129.727
127.268
124.908
122.65
120.512
118.503
116.663
115.143
114.117
113.581
113.274
112.919
112.342
111.498
110.422
109.173
107.797
106.33
104.789
103.197
101.565
223.729
223.605
223.408
223.165
222.916
222.7
222.545
222.46
222.429
222.431
222.441
222.442
222.413
222.329
222.146
221.806
221.233
220.374
219.234
217.812
216.055
213.954
211.539
208.832
205.878
202.727
199.424
196.012
192.516
188.958
185.355
181.726
178.102
174.518
171.018
167.655
164.499
161.637
159.174
157.235
155.951
155.374
155.485
156.221
157.61
159.617
162.159
165.115
168.361
171.78
175.273
178.755
182.158
185.434
188.56
191.54
194.394
197.137
199.787
202.355
204.837
207.219
209.487
211.624
213.599
215.361
216.857
218.046
218.907
219.458
219.748
219.845
219.811
219.686
219.475
219.158
218.7
217.988
216.895
215.27
212.914
209.677
205.512
200.493
194.832
188.815
182.654
176.343
169.719
162.595
154.975
147.063
139.217
131.801
125.035
119.026
113.89
109.818
107.049
105.751
105.966
107.642
110.659
114.898
120.217
126.281
132.586
138.694
144.391
149.652
154.602
159.36
163.913
168.167
171.901
174.86
177.045
178.83
180.461
181.919
182.923
183.276
183.032
182.399
181.552
180.551
179.342
177.848
176.051
173.984
171.688
169.179
166.473
163.598
160.594
157.508
154.392
151.297
148.275
145.369
142.598
139.996
137.645
135.643
134.149
133.395
133.427
133.87
134.433
135.605
137.306
139.31
140.735
140.955
140.034
138.333
136.164
133.742
131.236
128.788
126.464
124.263
122.173
120.19
118.3
116.55
115.115
114.165
113.667
113.352
112.958
112.34
111.468
110.378
109.123
107.747
106.281
104.741
103.144
101.497
224.89
224.791
224.625
224.414
224.187
223.975
223.806
223.69
223.614
223.551
223.462
223.317
223.088
222.756
222.296
221.649
220.732
219.526
218.063
216.313
214.213
211.785
209.07
206.102
202.949
199.66
196.267
192.787
189.214
185.535
181.73
177.782
173.696
169.5
165.258
161.068
157.066
153.422
150.299
147.855
146.235
145.526
145.748
146.878
148.866
151.616
154.999
158.86
163.026
167.326
171.61
175.757
179.684
183.343
186.714
189.808
192.692
195.478
198.257
201.069
203.912
206.737
209.469
212.031
214.367
216.428
218.168
219.542
220.527
221.153
221.484
221.607
221.599
221.505
221.334
221.07
220.666
220.004
218.942
217.288
214.837
211.438
207.058
201.797
195.909
189.701
183.377
176.922
170.199
163.044
155.456
147.583
139.721
132.247
125.415
119.387
114.299
110.32
107.651
106.409
106.585
108.116
110.89
114.823
119.828
125.624
131.718
137.676
143.268
148.44
153.293
157.946
162.379
166.514
170.172
173.139
175.357
177.141
178.755
180.189
181.182
181.556
181.37
180.811
180.029
179.069
177.881
176.4
174.614
172.561
170.273
167.762
165.041
162.143
159.112
155.992
152.828
149.666
146.56
143.559
140.679
137.927
135.372
133.124
131.325
130.216
129.863
129.858
129.806
130.984
133.046
135.787
138.076
139.001
138.506
137.006
134.903
132.509
130.077
127.773
125.646
123.659
121.769
119.955
118.201
116.563
115.224
114.346
113.864
113.505
113.033
112.344
111.426
110.317
109.06
107.687
106.225
104.687
103.089
101.433
226.383
226.29
226.127
225.909
225.662
225.409
225.173
224.969
224.788
224.61
224.396
224.108
223.716
223.196
222.515
221.602
220.387
218.887
217.14
215.088
212.686
209.994
207.062
203.937
200.691
197.349
193.904
190.328
186.562
182.547
178.237
173.605
168.663
163.473
158.153
152.872
147.837
143.274
139.409
136.433
134.489
133.681
134.048
135.589
138.21
141.786
146.152
151.106
156.419
161.861
167.223
172.342
177.105
181.44
185.299
188.681
191.635
194.306
196.924
199.681
202.656
205.798
208.972
212.009
214.768
217.157
219.13
220.675
221.789
222.524
222.924
223.075
223.069
222.956
222.748
222.426
221.939
221.184
220.018
218.255
215.702
212.218
207.789
202.529
196.679
190.471
184.138
177.671
170.983
163.96
156.586
148.974
141.348
134.009
127.236
121.242
116.205
112.294
109.661
108.388
108.458
109.793
112.292
115.876
120.471
125.846
131.565
137.218
142.585
147.601
152.318
156.83
161.112
165.083
168.613
171.532
173.758
175.548
177.147
178.537
179.486
179.859
179.724
179.237
178.514
177.589
176.415
174.941
173.165
171.122
168.838
166.322
163.586
160.663
157.594
154.423
151.188
147.932
144.712
141.581
138.563
135.649
132.865
130.307
128.109
126.497
125.569
124.952
124.721
125.007
127.424
131.128
134.549
136.422
136.541
135.368
133.409
131.089
128.771
126.674
124.818
123.109
121.459
119.84
118.247
116.745
115.511
114.682
114.17
113.725
113.152
112.376
111.399
110.259
108.993
107.624
106.168
104.634
103.036
101.375
228.139
228.045
227.88
227.642
227.354
227.031
226.693
226.358
226.033
225.701
225.336
224.902
224.365
223.691
222.83
221.703
220.266
218.552
216.586
214.297
211.668
208.795
205.729
202.516
199.213
195.808
192.242
188.434
184.283
179.702
174.636
169.078
163.085
156.777
150.331
143.97
137.942
132.507
127.919
124.402
122.151
121.278
121.807
123.665
126.841
131.205
136.552
142.621
149.117
155.741
162.231
168.388
174.082
179.236
183.809
187.743
191.009
193.716
196.122
198.571
201.34
204.524
207.99
211.473
214.701
217.488
219.755
221.497
222.655
223.473
223.948
224.155
224.137
223.953
223.643
223.201
222.564
221.637
220.299
218.399
215.781
212.324
208.003
202.902
197.221
191.174
184.932
178.547
171.986
165.191
158.15
150.941
143.727
136.743
130.239
124.435
119.524
115.673
113.015
111.629
111.506
112.581
114.758
117.946
122.057
126.898
132.113
137.347
142.395
147.183
151.716
156.046
160.141
163.914
167.276
170.096
172.304
174.093
175.668
176.991
177.873
178.23
178.137
177.712
177.039
176.138
174.971
173.499
171.731
169.696
167.412
164.885
162.129
159.171
156.05
152.808
149.482
146.116
142.762
139.478
136.301
133.21
130.168
127.223
124.507
122.236
120.47
118.814
117.375
117.336
120.249
125.185
130.039
133.131
134.069
133.358
131.614
129.406
127.245
125.428
123.932
122.577
121.225
119.839
118.432
117.083
115.94
115.122
114.538
113.982
113.304
112.446
111.411
110.231
108.945
107.572
106.118
104.584
102.985
101.321
230.105
230.012
229.852
229.607
229.292
228.915
228.49
228.037
227.569
227.086
226.572
226
225.332
224.524
223.509
222.213
220.606
218.729
216.589
214.116
211.316
208.312
205.153
201.868
198.491
194.971
191.196
187.043
182.384
177.129
171.232
164.717
157.681
150.287
142.747
135.316
128.271
121.913
116.543
112.425
109.765
108.704
109.277
111.493
115.271
120.446
126.788
133.994
141.714
149.571
157.215
164.393
170.956
176.84
182.046
186.581
190.382
193.383
195.746
197.887
200.288
203.217
206.715
210.517
214.204
217.399
219.973
221.898
223.231
224.089
224.551
224.716
224.679
224.483
224.087
223.447
222.586
221.466
219.976
217.977
215.338
211.969
207.843
203.011
197.61
191.812
185.768
179.554
173.189
166.663
159.985
153.216
146.483
139.963
133.863
128.384
123.707
119.987
117.342
115.83
115.48
116.252
118.057
120.802
124.386
128.637
133.282
138.035
142.708
147.209
151.51
155.615
159.48
163.027
166.191
168.877
171.035
172.808
174.338
175.571
176.368
176.702
176.643
176.267
175.629
174.742
173.574
172.103
170.34
168.309
166.017
163.471
160.682
157.677
154.492
151.167
147.739
144.249
140.738
137.268
133.895
130.595
127.257
123.862
120.553
117.509
114.619
111.439
108.51
107.908
111.45
117.901
124.492
129.067
131.019
130.88
129.396
127.325
125.379
123.939
122.91
121.998
121
119.879
118.678
117.484
116.423
115.592
114.919
114.252
113.477
112.547
111.459
110.239
108.925
107.538
106.079
104.543
102.939
101.272
232.247
232.162
232.026
231.802
231.494
231.106
230.648
230.135
229.587
229.009
228.393
227.718
226.944
226.017
224.862
223.411
221.647
219.616
217.315
214.677
211.724
208.603
205.354
201.986
198.505
194.833
190.813
186.286
181.114
175.21
168.544
161.167
153.208
144.857
136.355
127.983
120.06
112.934
106.949
102.398
99.4733
98.2979
98.8973
101.285
105.411
111.124
118.181
126.259
134.984
143.934
152.661
160.81
168.191
174.703
180.36
185.283
189.5
192.912
195.451
197.509
199.571
202.142
205.435
209.346
213.47
217.01
219.853
221.942
223.378
224.289
224.775
224.915
224.778
224.422
223.892
223.207
222.264
220.96
219.256
217.13
214.503
211.276
207.401
202.899
197.853
192.39
186.638
180.687
174.587
168.364
162.051
155.709
149.444
143.395
137.73
132.62
128.224
124.679
122.086
120.499
119.955
120.434
121.867
124.166
127.229
130.906
134.986
139.245
143.511
147.681
151.698
155.533
159.13
162.426
165.373
167.899
169.977
171.706
173.163
174.284
174.992
175.302
175.267
174.925
174.308
173.424
172.251
170.777
169.016
166.981
164.672
162.094
159.261
156.198
152.94
149.525
145.985
142.349
138.647
134.938
131.306
127.74
124.079
120.233
116.314
112.417
108.158
102.985
98.1757
96.8238
101.119
109.352
117.949
124.221
127.332
127.829
126.622
124.724
123.085
122.159
121.729
121.347
120.748
119.912
118.919
117.874
116.889
116.039
115.284
114.517
113.657
112.668
111.536
110.281
108.936
107.528
106.057
104.514
102.902
101.23
234.488
234.43
234.337
234.169
233.914
233.57
233.141
232.661
232.125
231.54
230.901
230.183
229.343
228.315
227.023
225.413
223.482
221.286
218.821
216.023
212.918
209.674
206.329
202.865
199.262
195.436
191.187
186.344
180.755
174.342
167.089
159.072
150.444
141.418
132.251
123.249
114.754
107.134
100.752
95.9043
92.7713
91.4566
91.9936
94.4235
98.7179
104.731
112.213
120.808
130.126
139.766
149.232
158.07
166.065
173.104
179.132
184.242
188.575
192.17
194.97
197.152
199.121
201.42
204.452
208.335
212.57
216.416
219.503
221.724
223.196
224.084
224.534
224.648
224.487
224.073
223.42
222.544
221.428
220.04
218.316
216.159
213.502
210.347
206.698
202.542
197.904
192.858
187.495
181.9
176.14
170.267
164.334
158.407
152.582
146.976
141.727
136.978
132.864
129.505
126.988
125.37
124.677
124.901
125.994
127.879
130.46
133.607
137.154
140.924
144.765
148.564
152.25
155.773
159.073
162.102
164.817
167.166
169.138
170.788
172.139
173.137
173.761
174.049
174.029
173.706
173.096
172.207
171.024
169.545
167.778
165.729
163.393
160.771
157.881
154.75
151.412
147.894
144.221
140.411
136.484
132.493
128.543
124.648
120.647
116.386
111.891
107.092
101.269
93.7639
86.7376
84.4693
89.6054
99.8114
110.602
118.712
123.065
124.239
123.347
121.711
120.516
120.245
120.508
120.694
120.499
119.943
119.146
118.232
117.312
116.451
115.626
114.775
113.844
112.802
111.634
110.348
108.975
107.541
106.052
104.497
102.876
101.196
236.796
236.791
236.775
236.676
236.507
236.257
235.935
235.536
235.077
234.561
233.975
233.283
232.426
231.332
229.925
228.167
226.074
223.714
221.085
218.134
214.897
211.527
208.074
204.517
200.799
196.815
192.386
187.33
181.498
174.8
167.229
158.877
149.911
140.552
131.067
121.764
112.99
105.115
98.5026
93.4511
90.1503
88.7006
89.1413
91.5319
95.8347
101.909
109.516
118.29
127.808
137.69
147.47
156.607
164.827
172.108
178.413
183.66
187.946
191.468
194.337
196.668
198.729
200.965
203.83
207.585
211.822
215.786
218.972
221.22
222.673
223.531
223.942
223.997
223.761
223.287
222.589
221.641
220.423
218.934
217.125
214.943
212.367
209.359
205.894
202.002
197.734
193.128
188.226
183.084
177.76
172.315
166.812
161.325
155.942
150.768
145.919
141.516
137.677
134.502
132.074
130.443
129.63
129.633
130.416
131.917
134.048
136.701
139.742
143.025
146.418
149.811
153.127
156.304
159.286
162.031
164.501
166.656
168.49
170.025
171.244
172.117
172.668
172.939
172.926
172.609
171.995
171.092
169.896
168.406
166.626
164.552
162.174
159.497
156.54
153.333
149.899
146.253
142.408
138.387
134.207
129.917
125.626
121.37
117.014
112.367
107.328
101.618
94.1314
84.126
74.691
71.3725
77.3937
89.673
102.753
112.776
118.441
120.379
119.953
118.78
118.2
118.641
119.551
120.218
120.351
120.021
119.383
118.574
117.704
116.832
115.954
115.032
114.036
112.946
111.744
110.433
109.034
107.576
106.065
104.495
102.861
101.172
238.945
239.005
239.078
238.987
238.898
238.731
238.516
238.245
237.924
237.55
237.096
236.509
235.717
234.632
233.184
231.334
229.137
226.648
223.878
220.806
217.463
213.969
210.402
206.754
202.954
198.892
194.406
189.317
183.471
176.777
169.229
160.919
152.009
142.719
133.309
124.078
115.36
107.514
100.89
95.7866
92.4031
90.8219
91.0949
93.317
97.4356
103.292
110.663
119.21
128.48
138.094
147.678
156.7
164.784
171.942
178.21
183.422
187.553
190.846
193.587
195.996
198.254
200.647
203.549
207.219
211.32
215.156
218.231
220.394
221.78
222.58
222.95
222.993
222.752
222.244
221.483
220.489
219.258
217.742
215.918
213.769
211.26
208.358
205.07
201.426
197.455
193.201
188.715
184.033
179.192
174.234
169.213
164.199
159.276
154.536
150.081
146.016
142.443
139.45
137.11
135.477
134.569
134.384
134.897
136.055
137.784
139.992
142.566
145.386
148.336
151.317
154.249
157.069
159.727
162.183
164.401
166.354
168.032
169.427
170.507
171.271
171.769
172.027
172.009
171.68
171.05
170.129
168.915
167.408
165.605
163.494
161.064
158.321
155.289
151.99
148.437
144.63
140.576
136.305
131.857
127.276
122.655
118.054
113.361
108.352
102.814
96.2594
87.2056
74.7866
63.0666
58.7178
65.5385
79.7801
95.0576
106.951
113.975
116.836
117.128
116.658
116.779
117.825
119.17
120.104
120.405
120.201
119.663
118.923
118.083
117.198
116.274
115.29
114.235
113.098
111.864
110.528
109.108
107.626
106.093
104.505
102.858
101.157
240.593
240.607
240.638
240.663
240.67
240.625
240.545
240.433
240.282
240.08
239.792
239.358
238.689
237.684
236.268
234.42
232.175
229.597
226.724
223.559
220.127
216.528
212.858
209.132
205.289
201.224
196.791
191.824
186.166
179.723
172.479
164.51
155.965
147.053
138.021
129.152
120.756
113.166
106.702
101.646
98.2086
96.4979
96.5894
98.5634
102.37
107.831
114.721
122.736
131.442
140.455
149.453
157.954
165.571
172.337
178.345
183.361
187.212
190.167
192.695
195.152
197.688
200.41
203.514
207.144
210.99
214.488
217.263
219.241
220.559
221.366
221.763
221.812
221.568
221.067
220.323
219.327
218.074
216.559
214.771
212.682
210.264
207.505
204.398
200.953
197.209
193.223
189.046
184.72
180.283
175.769
171.214
166.668
162.197
157.881
153.811
150.077
146.769
143.967
141.735
140.118
139.14
138.808
139.101
139.973
141.361
143.185
145.35
147.754
150.296
152.886
155.45
157.928
160.277
162.461
164.447