/*--------------------------------*- C++ -*----------------------------------*\
  =========                 |
  \\      /  F ield         | OpenFOAM: The Open Source CFD Toolbox
   \\    /   O peration     | Website:  https://openfoam.org
    \\  /    A nd           | Version:  9
     \\/     M anipulation  |
\*---------------------------------------------------------------------------*/
FoamFile
{
    format      ascii;
    class       surfaceScalarField;
    location    "0.059";
    object      phi;
}
// * * * * * * * * * * * * * * * * * * * * * * * * * * * * * * * * * * * * * //

dimensions      [0 3 -1 0 0 0 0];

internalField   nonuniform List<scalar> 
24170
(
3.10545e-06
1.29389e-07
2.99938e-06
1.06073e-07
2.89851e-06
1.00865e-07
2.78991e-06
1.08596e-07
2.68868e-06
1.01238e-07
2.59418e-06
9.44949e-08
2.49935e-06
9.48344e-08
2.40624e-06
9.31095e-08
2.31935e-06
8.68835e-08
2.23871e-06
8.06423e-08
2.16009e-06
7.86178e-08
2.07499e-06
8.51069e-08
1.98061e-06
9.43779e-08
1.8651e-06
1.15511e-07
1.73434e-06
1.30759e-07
1.58598e-06
1.48359e-07
1.4093e-06
1.76679e-07
2.14837e-07
1.19446e-06
3.46521e-06
2.3541e-07
3.46531e-06
1.05976e-07
3.52358e-06
4.25948e-08
3.54341e-06
8.87648e-08
3.51442e-06
1.30231e-07
3.47183e-06
1.37079e-07
3.44224e-06
1.24431e-07
3.42758e-06
1.07769e-07
3.4169e-06
9.75551e-08
3.39855e-06
9.90017e-08
3.36932e-06
1.0784e-07
3.32932e-06
1.2511e-07
3.28305e-06
1.40645e-07
3.23308e-06
1.65482e-07
3.1749e-06
1.88938e-07
3.10716e-06
2.16098e-07
3.02539e-06
2.58455e-07
3.09354e-07
2.93087e-06
3.70524e-06
1.24156e-07
3.6834e-06
1.27814e-07
3.67054e-06
5.54554e-08
3.67997e-06
7.93297e-08
3.69108e-06
1.19131e-07
3.69205e-06
1.36106e-07
3.68624e-06
1.30239e-07
3.6805e-06
1.1351e-07
3.67891e-06
9.91485e-08
3.68062e-06
9.72857e-08
3.68201e-06
1.0645e-07
3.67983e-06
1.27294e-07
3.66964e-06
1.50833e-07
3.65488e-06
1.80239e-07
3.6318e-06
2.12024e-07
3.60406e-06
2.4383e-07
3.5783e-06
2.84216e-07
3.23097e-07
3.56456e-06
3.97422e-06
2.7861e-08
3.96516e-06
1.36869e-07
3.91872e-06
1.01894e-07
3.912e-06
8.60506e-08
3.92669e-06
1.04442e-07
3.9333e-06
1.29493e-07
3.92666e-06
1.36885e-07
3.91494e-06
1.2523e-07
3.90556e-06
1.08525e-07
3.90058e-06
1.02265e-07
3.89685e-06
1.10178e-07
3.89105e-06
1.33099e-07
3.87836e-06
1.6352e-07
3.86015e-06
1.98448e-07
3.83732e-06
2.3486e-07
3.81402e-06
2.67124e-07
3.80004e-06
2.98201e-07
3.27111e-07
3.79602e-06
4.2123e-06
8.64548e-08
4.20143e-06
1.47745e-07
4.1819e-06
1.2142e-07
4.17606e-06
9.18967e-08
4.17567e-06
1.04826e-07
4.1748e-06
1.30367e-07
4.17532e-06
1.36365e-07
4.17699e-06
1.23558e-07
4.17582e-06
1.09694e-07
4.16888e-06
1.09202e-07
4.1558e-06
1.23261e-07
4.13985e-06
1.49047e-07
4.12284e-06
1.80533e-07
4.1071e-06
2.14184e-07
4.09345e-06
2.48514e-07
4.08118e-06
2.79397e-07
4.07265e-06
3.06734e-07
3.31412e-07
4.06834e-06
4.55323e-06
2.95137e-08
4.55443e-06
1.46539e-07
4.52871e-06
1.47143e-07
4.50464e-06
1.1597e-07
4.47489e-06
1.3457e-07
4.44132e-06
1.63938e-07
4.41669e-06
1.60999e-07
4.40892e-06
1.3132e-07
4.41611e-06
1.02508e-07
4.43076e-06
9.45567e-08
4.44383e-06
1.10184e-07
4.44965e-06
1.43226e-07
4.44572e-06
1.84469e-07
4.43341e-06
2.26487e-07
4.41691e-06
2.65019e-07
4.39927e-06
2.97035e-07
4.3848e-06
3.21207e-07
3.39125e-07
4.37708e-06
4.747e-06
9.18398e-09
4.7824e-06
1.11138e-07
4.82462e-06
1.04922e-07
4.84624e-06
9.43509e-08
4.8503e-06
1.30517e-07
4.85379e-06
1.60449e-07
4.8615e-06
1.53283e-07
4.86436e-06
1.28457e-07
4.85418e-06
1.12688e-07
4.8312e-06
1.17546e-07
4.80067e-06
1.40713e-07
4.76844e-06
1.75449e-07
4.73862e-06
2.14296e-07
4.71351e-06
2.51595e-07
4.69405e-06
2.84483e-07
4.6799e-06
3.11182e-07
4.6695e-06
3.31605e-07
3.45414e-07
4.66321e-06
5.28096e-06
7.33558e-08
5.21958e-06
1.72521e-07
5.1805e-06
1.43998e-07
5.14591e-06
1.28938e-07
5.14034e-06
1.36088e-07
5.16384e-06
1.3695e-07
5.19262e-06
1.24507e-07
5.20738e-06
1.13694e-07
5.20528e-06
1.14792e-07
5.19382e-06
1.29007e-07
5.18104e-06
1.53486e-07
5.17112e-06
1.85373e-07
5.16393e-06
2.21483e-07
5.15815e-06
2.57381e-07
5.1521e-06
2.90529e-07
5.14544e-06
3.17845e-07
5.13731e-06
3.39726e-07
3.55476e-07
5.12725e-06
5.48822e-06
2.95359e-08
5.48988e-06
1.70856e-07
5.49235e-06
1.41531e-07
5.49692e-06
1.24366e-07
5.51515e-06
1.17858e-07
5.54927e-06
1.02829e-07
5.58126e-06
9.25166e-08
5.59391e-06
1.01043e-07
5.58269e-06
1.26012e-07
5.55532e-06
1.56383e-07
5.52434e-06
1.8446e-07
5.50024e-06
2.09472e-07
5.4869e-06
2.34831e-07
5.48167e-06
2.62608e-07
5.48014e-06
2.92058e-07
5.47776e-06
3.20229e-07
5.47359e-06
3.43888e-07
3.61668e-07
5.4674e-06
5.98159e-06
-3.83026e-08
6.09084e-06
6.16133e-08
6.08048e-06
1.51884e-07
6.01178e-06
1.93074e-07
5.95269e-06
1.7694e-07
5.93264e-06
1.22881e-07
5.94142e-06
8.37431e-08
5.95398e-06
8.84802e-08
5.94991e-06
1.30077e-07
5.92362e-06
1.82679e-07
5.88396e-06
2.24122e-07
5.84546e-06
2.47973e-07
5.81935e-06
2.60931e-07
5.80823e-06
2.73735e-07
5.80837e-06
2.91913e-07
5.81326e-06
3.15344e-07
5.81643e-06
3.40715e-07
3.62361e-07
5.81574e-06
6.4004e-06
1.05115e-07
6.34171e-06
1.20306e-07
6.34604e-06
1.47555e-07
6.37314e-06
1.65972e-07
6.40028e-06
1.49804e-07
6.40862e-06
1.14542e-07
6.39823e-06
9.41342e-08
6.38295e-06
1.03756e-07
6.3757e-06
1.37328e-07
6.38013e-06
1.78246e-07
6.39187e-06
2.12384e-07
6.40274e-06
2.37103e-07
6.40576e-06
2.57918e-07
6.39824e-06
2.81249e-07
6.38156e-06
3.08596e-07
6.35953e-06
3.37375e-07
6.33573e-06
3.64515e-07
3.85887e-07
6.3122e-06
5.67575e-06
1.42088e-07
5.6382e-06
1.57851e-07
5.61063e-06
1.7513e-07
5.62199e-06
1.54604e-07
5.64843e-06
1.23371e-07
5.67519e-06
8.77766e-08
5.70436e-06
6.49653e-08
5.73883e-06
6.92831e-08
5.77324e-06
1.02922e-07
5.79804e-06
1.53441e-07
5.80541e-06
2.05019e-07
5.79353e-06
2.48979e-07
5.76693e-06
2.84518e-07
5.73443e-06
3.13755e-07
5.70472e-06
3.38301e-07
5.68343e-06
3.58668e-07
5.67338e-06
3.74569e-07
3.88053e-07
5.67121e-06
7.03384e-06
6.5545e-08
6.93437e-06
2.57327e-07
6.87801e-06
2.31491e-07
6.88314e-06
1.49476e-07
6.92975e-06
7.67559e-08
6.98622e-06
3.13099e-08
7.03073e-06
2.04571e-08
7.05527e-06
4.47368e-08
7.06197e-06
9.62288e-08
7.05784e-06
1.57569e-07
7.04732e-06
2.15534e-07
7.03303e-06
2.63272e-07
7.01758e-06
2.99969e-07
7.00408e-06
3.27258e-07
6.99552e-06
3.4686e-07
6.99343e-06
3.60755e-07
6.99788e-06
3.70122e-07
3.78197e-07
7.00774e-06
8.48924e-06
9.05987e-08
8.57286e-06
1.73708e-07
8.62497e-06
1.79381e-07
8.62132e-06
1.5312e-07
8.56864e-06
1.2944e-07
8.49839e-06
1.01553e-07
8.43656e-06
8.22938e-08
8.39212e-06
8.91787e-08
8.36691e-06
1.21435e-07
8.35819e-06
1.66286e-07
8.36419e-06
2.09534e-07
8.38279e-06
2.44674e-07
8.41121e-06
2.71542e-07
8.44455e-06
2.93919e-07
8.47724e-06
3.14173e-07
8.50418e-06
3.33813e-07
8.5223e-06
3.52005e-07
3.67996e-07
8.5325e-06
1.04022e-05
2.8551e-07
1.0293e-05
2.8286e-07
1.03172e-05
1.55177e-07
1.03529e-05
1.17414e-07
1.03773e-05
1.05036e-07
1.04084e-05
7.04939e-08
1.04471e-05
4.35443e-08
1.04766e-05
5.97032e-08
1.04785e-05
1.19508e-07
1.04522e-05
1.92645e-07
1.04097e-05
2.5205e-07
1.03652e-05
2.89168e-07
1.03287e-05
3.07975e-07
1.03045e-05
3.18167e-07
1.0292e-05
3.26612e-07
1.02887e-05
3.37145e-07
1.02912e-05
3.49501e-07
3.63018e-07
1.02962e-05
1.25909e-05
2.10488e-07
1.27066e-05
1.67155e-07
1.27237e-05
1.38103e-07
1.27352e-05
1.05849e-07
1.27624e-05
7.7828e-08
1.27779e-05
5.5004e-08
1.27512e-05
7.02437e-08
1.26836e-05
1.27293e-07
1.26098e-05
1.93394e-07
1.25625e-05
2.39856e-07
1.25567e-05
2.57863e-07
1.25893e-05
2.56576e-07
1.2646e-05
2.51295e-07
1.27104e-05
2.538e-07
1.27696e-05
2.67391e-07
1.28173e-05
2.89405e-07
1.2852e-05
3.14874e-07
3.40099e-07
1.28749e-05
1.52648e-05
1.10611e-07
1.52991e-05
1.32943e-07
1.53143e-05
1.22859e-07
1.53043e-05
1.15853e-07
1.52812e-05
1.00972e-07
1.52534e-05
8.2798e-08
1.52568e-05
6.67938e-08
1.53176e-05
6.6526e-08
1.5422e-05
8.89608e-08
1.55331e-05
1.28739e-07
1.56181e-05
1.72857e-07
1.56627e-05
2.12006e-07
1.56704e-05
2.43616e-07
1.56553e-05
2.68861e-07
1.56336e-05
2.89125e-07
1.56164e-05
3.06638e-07
1.56097e-05
3.21527e-07
3.35052e-07
1.56147e-05
1.85065e-05
8.40066e-09
1.86326e-05
6.86881e-09
1.87771e-05
-2.16511e-08
1.886e-05
3.29439e-08
1.88692e-05
9.17264e-08
1.88485e-05
1.03531e-07
1.88444e-05
7.08455e-08
1.88742e-05
3.67507e-08
1.89251e-05
3.81137e-08
1.89748e-05
7.90494e-08
1.90069e-05
1.40713e-07
1.90154e-05
2.03548e-07
1.90073e-05
2.51628e-07
1.89985e-05
2.77706e-07
1.90038e-05
2.83821e-07
1.90313e-05
2.79163e-07
1.90825e-05
2.70255e-07
2.66345e-07
1.91513e-05
2.2786e-05
-7.19005e-08
2.28487e-05
-5.58671e-08
2.3026e-05
-1.9893e-07
2.32191e-05
-1.60218e-07
2.33364e-05
-2.55542e-08
2.33713e-05
6.86268e-08
2.3323e-05
1.19201e-07
2.3215e-05
1.44725e-07
2.30887e-05
1.64411e-07
2.29775e-05
1.90276e-07
2.29002e-05
2.1803e-07
2.2867e-05
2.36685e-07
2.28789e-05
2.39774e-07
2.29291e-05
2.27508e-07
2.30076e-05
2.05336e-07
2.31041e-05
1.8259e-07
2.32097e-05
1.64703e-07
1.5836e-07
2.33177e-05
1.71847e-05
1.68196e-07
1.70813e-05
4.75377e-08
1.69461e-05
-6.37637e-08
1.68135e-05
-2.76065e-08
1.67795e-05
8.42055e-09
1.68341e-05
1.40747e-08
1.6929e-05
2.4249e-08
1.70102e-05
6.35759e-08
1.70545e-05
1.20043e-07
1.70703e-05
1.74465e-07
1.70773e-05
2.11063e-07
1.70914e-05
2.22571e-07
1.71208e-05
2.10432e-07
1.71648e-05
1.83443e-07
1.72178e-05
1.5239e-07
1.72735e-05
1.269e-07
1.73275e-05
1.10652e-07
1.06529e-07
1.73793e-05
1.47153e-05
1.29093e-07
1.4674e-05
8.8853e-08
1.4517e-05
9.32796e-08
1.44015e-05
8.78501e-08
1.43823e-05
2.76162e-08
1.44459e-05
-4.9507e-08
1.45262e-05
-5.60972e-08
1.45807e-05
9.11468e-09
1.46122e-05
8.85188e-08
1.46385e-05
1.48159e-07
1.46831e-05
1.66457e-07
1.4755e-05
1.50733e-07
1.48464e-05
1.18958e-07
1.49408e-05
8.90991e-08
1.50219e-05
7.13228e-08
1.5081e-05
6.77136e-08
1.5117e-05
7.47137e-08
8.64727e-08
1.5137e-05
1.27287e-05
-9.66878e-08
1.27845e-05
3.29833e-08
1.28375e-05
4.02725e-08
1.29251e-05
3.3956e-10
1.29913e-05
-3.86157e-08
1.29783e-05
-3.64932e-08
1.29059e-05
1.62942e-08
1.28178e-05
9.7177e-08
1.27523e-05
1.53997e-07
1.27306e-05
1.6992e-07
1.27496e-05
1.47439e-07
1.2795e-05
1.05368e-07
1.285e-05
6.39395e-08
1.2902e-05
3.70659e-08
1.29443e-05
2.90607e-08
1.29751e-05
3.68847e-08
1.29954e-05
5.43805e-08
7.31394e-08
1.30088e-05
1.12867e-05
1.54494e-07
1.12747e-05
4.49753e-08
1.13305e-05
-1.55343e-08
1.13584e-05
-2.75788e-08
1.13309e-05
-1.10549e-08
1.12718e-05
2.25838e-08
1.12242e-05
6.39015e-08
1.12148e-05
1.06578e-07
1.12366e-05
1.32209e-07
1.12742e-05
1.32282e-07
1.13126e-05
1.09035e-07
1.13425e-05
7.54267e-08
1.13604e-05
4.60967e-08
1.13673e-05
3.01552e-08
1.13674e-05
2.89795e-08
1.13659e-05
3.84068e-08
1.13672e-05
5.30372e-08
6.71072e-08
1.13732e-05
9.67655e-06
8.42292e-08
9.77339e-06
-5.18588e-08
9.76215e-06
-4.29746e-09
9.69805e-06
3.65221e-08
9.65583e-06
3.11616e-08
9.64784e-06
3.05739e-08
9.6586e-06
5.31432e-08
9.68061e-06
8.45733e-08
9.71102e-06
1.01797e-07
9.74931e-06
9.39869e-08
9.79167e-06
6.66824e-08
9.83205e-06
3.50397e-08
9.86514e-06
1.30091e-08
9.88868e-06
6.61451e-09
9.90455e-06
1.31075e-08
9.91729e-06
2.56679e-08
9.93158e-06
3.87468e-08
4.8426e-08
9.95026e-06
8.28662e-06
1.18985e-07
8.2748e-06
-4.00371e-08
8.29635e-06
-2.58526e-08
8.31706e-06
1.58112e-08
8.32924e-06
1.89846e-08
8.34683e-06
1.2987e-08
8.38051e-06
1.94659e-08
8.42511e-06
3.99703e-08
8.47176e-06
5.51508e-08
8.51597e-06
4.97758e-08
8.55746e-06
2.51931e-08
8.59875e-06
-6.25377e-09
8.64119e-06
-2.94303e-08
8.68348e-06
-3.56768e-08
8.72302e-06
-2.64347e-08
8.75691e-06
-8.21959e-09
8.78412e-06
1.15329e-08
2.81082e-08
8.80444e-06
7.26664e-06
-2.23018e-09
7.32595e-06
-9.93509e-08
7.31393e-06
-1.38269e-08
7.29888e-06
3.08555e-08
7.29628e-06
2.15903e-08
7.31706e-06
-7.79064e-09
7.36659e-06
-3.00732e-08
7.43338e-06
-2.68131e-08
7.49549e-06
-6.96523e-09
7.53335e-06
1.19195e-08
7.54229e-06
1.62524e-08
7.52899e-06
7.04738e-09
7.50565e-06
-6.08999e-09
7.48618e-06
-1.62028e-08
7.47816e-06
-1.84243e-08
7.48289e-06
-1.29443e-08
7.49695e-06
-2.52694e-09
8.74999e-09
7.51631e-06
6.32135e-06
-1.00041e-07
6.32916e-06
-1.07161e-07
6.32227e-06
-6.93094e-09
6.28645e-06
6.66728e-08
6.26971e-06
3.83289e-08
6.29665e-06
-3.47284e-08
6.35037e-06
-8.37923e-08
6.41425e-06
-9.07005e-08
6.47797e-06
-7.06825e-08
6.53626e-06
-4.63725e-08
6.58331e-06
-3.07906e-08
6.61484e-06
-2.44905e-08
6.63068e-06
-2.19262e-08
6.63289e-06
-1.8413e-08
6.62665e-06
-1.21818e-08
6.61777e-06
-4.06351e-09
6.61117e-06
4.06623e-09
1.09137e-08
6.60901e-06
5.5194e-06
-8.80794e-08
5.56247e-06
-1.50233e-07
5.60102e-06
-4.54834e-08
5.64849e-06
1.92064e-08
5.67612e-06
1.06971e-08
5.67052e-06
-2.91277e-08
5.65016e-06
-6.34379e-08
5.63417e-06
-7.47036e-08
5.63219e-06
-6.87105e-08
5.6425e-06
-5.66746e-08
5.65772e-06
-4.60103e-08
5.67135e-06
-3.81278e-08
5.68082e-06
-3.13944e-08
5.68744e-06
-2.50348e-08
5.69466e-06
-1.93964e-08
5.70577e-06
-1.51776e-08
5.72248e-06
-1.26385e-08
-1.14988e-08
5.74489e-06
4.85943e-06
-8.49694e-08
4.76246e-06
-5.32596e-08
4.79367e-06
-7.6694e-08
4.89782e-06
-8.49451e-08
4.98309e-06
-7.45742e-08
5.01088e-06
-5.69211e-08
4.98743e-06
-3.99805e-08
4.94363e-06
-3.09086e-08
4.90796e-06
-3.30362e-08
4.89313e-06
-4.18441e-08
4.89708e-06
-4.99592e-08
4.91129e-06
-5.23439e-08
4.92813e-06
-4.82322e-08
4.94338e-06
-4.02826e-08
4.95588e-06
-3.18942e-08
4.96604e-06
-2.53434e-08
4.97449e-06
-2.10835e-08
-1.9058e-08
4.98205e-06
4.10598e-06
4.05272e-06
3.97602e-06
3.89108e-06
3.8165e-06
3.75958e-06
3.7196e-06
3.68869e-06
3.65566e-06
3.61381e-06
3.56385e-06
3.51151e-06
3.46328e-06
3.42299e-06
3.3911e-06
3.36576e-06
3.34467e-06
3.32561e-06
-1.94569e-07
1.94569e-07
-6.92132e-08
-1.25355e-07
3.24357e-07
-3.9357e-07
8.07276e-07
-4.82919e-07
1.25386e-06
-4.46584e-07
1.59355e-06
-3.3969e-07
1.78618e-06
-1.9263e-07
1.80642e-06
-2.02438e-08
1.64449e-06
1.6193e-07
1.30306e-06
3.41434e-07
8.91303e-07
4.11757e-07
5.51481e-07
3.39822e-07
3.09111e-07
2.4237e-07
1.66374e-07
1.42737e-07
1.186e-07
4.77742e-08
2.5083e-08
9.35166e-08
7.73883e-09
1.73441e-08
1.89495e-07
-1.81756e-07
4.95923e-07
-3.06427e-07
7.99947e-07
-3.04025e-07
8.80868e-07
-8.09204e-08
7.82415e-07
9.84532e-08
5.87062e-07
1.95353e-07
1.28203e-07
4.58858e-07
-4.51854e-07
5.80058e-07
-8.65499e-07
4.13644e-07
-1.23941e-06
3.73914e-07
-1.59083e-06
3.51422e-07
-1.94585e-06
3.55015e-07
-2.31825e-06
3.72402e-07
-2.69892e-06
3.80663e-07
-3.08617e-06
3.87255e-07
-3.46524e-06
3.79069e-07
-3.83237e-06
3.67126e-07
-4.17871e-06
3.46345e-07
-4.49939e-06
3.2068e-07
-4.79088e-06
2.91495e-07
-5.04761e-06
2.56725e-07
-5.26699e-06
2.19376e-07
-5.44655e-06
1.79562e-07
-5.58547e-06
1.38922e-07
-5.68495e-06
9.94792e-08
-5.74748e-06
6.25274e-08
-5.7771e-06
2.96217e-08
-5.77965e-06
2.54775e-09
-5.75147e-06
-2.81728e-08
-5.69697e-06
-5.45041e-08
-5.6167e-06
-8.02714e-08
-5.51018e-06
-1.06515e-07
-5.37719e-06
-1.32988e-07
-5.21859e-06
-1.58603e-07
-5.03615e-06
-1.82443e-07
-4.83106e-06
-2.05085e-07
-4.60227e-06
-2.28792e-07
-4.34539e-06
-2.56883e-07
-4.05217e-06
-2.93218e-07
-3.71173e-06
-3.40436e-07
-3.3175e-06
-3.94235e-07
-2.8747e-06
-4.42801e-07
-2.4e-06
-4.74698e-07
-1.91994e-06
-4.8006e-07
-1.46353e-06
-4.56411e-07
-1.06021e-06
-4.03323e-07
-7.29284e-07
-3.30922e-07
-4.91318e-07
-2.37967e-07
-3.5871e-07
-1.32608e-07
-3.21421e-07
-3.7289e-08
-3.54114e-07
3.26937e-08
-4.20751e-07
6.66365e-08
-4.64068e-07
4.33177e-08
-4.36615e-07
-2.74538e-08
-2.95388e-07
-1.41226e-07
9.89993e-08
-3.94388e-07
7.99174e-07
-7.00175e-07
1.58004e-06
-7.8087e-07
2.26895e-06
-6.88911e-07
2.83321e-06
-5.64255e-07
3.3087e-06
-4.75489e-07
3.77955e-06
-4.70854e-07
4.23555e-06
-4.55994e-07
4.54859e-06
-3.13048e-07
4.53238e-06
1.62156e-08
4.07824e-06
4.54143e-07
3.27503e-06
8.032e-07
2.32767e-06
9.47367e-07
1.74018e-06
5.8749e-07
1.43352e-06
3.06659e-07
6.08575e-07
8.24943e-07
-1.71951e-06
2.32808e-06
-4.87398e-06
3.15447e-06
-7.41471e-06
2.54074e-06
-9.4566e-06
2.04189e-06
-1.10444e-05
1.58784e-06
-1.22615e-05
1.21707e-06
-1.31824e-05
9.20858e-07
-1.38576e-05
6.75194e-07
-1.43275e-05
4.69905e-07
-1.46144e-05
2.86936e-07
-1.47365e-05
1.22065e-07
-1.47099e-05
-2.6555e-08
-1.45605e-05
-1.49458e-07
-1.42957e-05
-2.64728e-07
-1.39277e-05
-3.68025e-07
-1.34708e-05
-4.5688e-07
-1.2939e-05
-5.31851e-07
-1.23466e-05
-5.92405e-07
-1.17057e-05
-6.40856e-07
-1.10266e-05
-6.79156e-07
-1.03166e-05
-7.09928e-07
-9.58315e-06
-7.33481e-07
-8.8347e-06
-7.48451e-07
-8.08148e-06
-7.53217e-07
-7.33331e-06
-7.48174e-07
-6.59623e-06
-7.37073e-07
-5.872e-06
-7.24237e-07
-5.1571e-06
-7.14892e-07
-4.44628e-06
-7.10825e-07
-3.74018e-06
-7.06099e-07
-3.04382e-06
-6.96356e-07
-2.36801e-06
-6.75811e-07
-1.72309e-06
-6.44927e-07
-1.11171e-06
-6.11376e-07
-5.26549e-07
-5.85161e-07
4.71741e-08
-5.73723e-07
6.23359e-07
-5.76185e-07
1.21018e-06
-5.86821e-07
1.80729e-06
-5.97112e-07
2.40791e-06
-6.00619e-07
3.00312e-06
-5.9521e-07
3.58647e-06
-5.83351e-07
4.15534e-06
-5.68868e-07
4.70926e-06
-5.53925e-07
5.24795e-06
-5.38688e-07
5.77018e-06
-5.22227e-07
6.27343e-06
-5.03249e-07
6.75343e-06
-4.79997e-07
7.20364e-06
-4.5021e-07
7.61606e-06
-4.1242e-07
7.98411e-06
-3.68053e-07
8.30416e-06
-3.20054e-07
8.57247e-06
-2.68307e-07
8.78513e-06
-2.12655e-07
8.95078e-06
-1.65656e-07
9.09312e-06
-1.42341e-07
9.20303e-06
-1.09908e-07
9.19399e-06
9.04478e-09
8.93512e-06
2.58863e-07
8.35008e-06
5.8504e-07
7.49969e-06
8.50392e-07
6.57635e-06
9.23344e-07
5.75411e-06
8.22239e-07
5.04825e-06
7.05859e-07
4.37352e-06
6.74727e-07
3.70422e-06
6.69302e-07
3.10828e-06
5.95944e-07
2.65851e-06
4.49766e-07
2.35509e-06
3.03422e-07
2.14662e-06
2.08464e-07
1.97915e-06
1.67476e-07
1.81131e-06
1.67835e-07
1.62643e-06
1.84878e-07
1.42835e-06
1.98089e-07
1.20032e-06
2.28021e-07
9.03471e-07
2.96853e-07
5.53977e-07
3.49494e-07
2.54581e-07
2.99396e-07
9.86833e-08
1.55898e-07
1.06704e-07
-8.02094e-09
2.34113e-07
-1.27409e-07
4.30682e-07
-1.96569e-07
6.48271e-07
-2.17589e-07
8.46493e-07
-1.98222e-07
9.95517e-07
-1.49024e-07
1.08385e-06
-8.83338e-08
1.1036e-06
-1.97452e-08
1.07765e-06
2.59486e-08
1.00049e-06
7.71575e-08
9.37383e-07
6.31072e-08
8.11807e-07
1.25575e-07
2.16269e-08
7.9018e-07
9.4258e-08
1.00311e-07
5.6252e-07
-5.93617e-07
1.09325e-06
-9.24296e-07
1.56274e-06
-9.52416e-07
1.93736e-06
-8.21196e-07
2.21056e-06
-6.12892e-07
2.38723e-06
-3.69307e-07
2.48409e-06
-1.17095e-07
2.49885e-06
1.47169e-07
2.42867e-06
4.11611e-07
2.22409e-06
6.16339e-07
1.8241e-06
7.39805e-07
1.27134e-06
7.95134e-07
7.59476e-07
6.54602e-07
4.22612e-07
3.84638e-07
3.17918e-07
1.98211e-07
3.02984e-07
3.22787e-08
2.33579e-07
-1.12351e-07
1.27381e-07
-2.00229e-07
-1.88912e-07
1.2268e-08
-6.57541e-07
3.87708e-07
-1.17865e-06
6.19565e-07
-1.64147e-06
6.58165e-07
-1.88601e-06
7.03407e-07
-2.04353e-06
7.37575e-07
-2.36315e-06
7.33268e-07
-2.76787e-06
7.7863e-07
-3.21311e-06
7.96657e-07
-3.67378e-06
8.15687e-07
-4.12058e-06
8.19201e-07
-4.55204e-06
8.12128e-07
-4.96176e-06
7.96973e-07
-5.35319e-06
7.70504e-07
-5.72076e-06
7.34697e-07
-6.06129e-06
6.86866e-07
-6.36847e-06
6.27865e-07
-6.6347e-06
5.57722e-07
-6.85566e-06
4.77691e-07
-7.02638e-06
3.9009e-07
-7.14442e-06
2.97602e-07
-7.20831e-06
2.02815e-07
-7.21707e-06
1.08233e-07
-7.16977e-06
1.5234e-08
-7.0701e-06
-7.00523e-08
-6.91792e-06
-1.49637e-07
-6.72282e-06
-2.23272e-07
-6.48789e-06
-2.89431e-07
-6.22046e-06
-3.47697e-07
-5.92868e-06
-3.98303e-07
-5.61924e-06
-4.42424e-07
-5.29545e-06
-4.82398e-07
-4.95818e-06
-5.19712e-07
-4.60418e-06
-5.59084e-07
-4.22589e-06
-6.07079e-07
-3.81492e-06
-6.67853e-07
-3.36698e-06
-7.41158e-07
-2.88455e-06
-8.22869e-07
-2.37474e-06
-9.0404e-07
-1.84529e-06
-9.72249e-07
-1.30039e-06
-1.0196e-06
-7.40039e-07
-1.04041e-06
-1.76381e-07
-1.02007e-06
3.64282e-07
-9.43986e-07
8.44911e-07
-8.11551e-07
1.23908e-06
-6.32134e-07
1.52411e-06
-4.17637e-07
1.67235e-06
-1.85532e-07
1.68229e-06
2.27521e-08
1.53547e-06
2.1346e-07
1.299e-06
2.79781e-07
1.06269e-06
2.08858e-07
9.20231e-07
1.23509e-09
9.67931e-07
-4.42088e-07
1.1192e-06
-8.51446e-07
1.40886e-06
-1.07053e-06
1.89267e-06
-1.17272e-06
2.53049e-06
-1.20207e-06
3.15167e-06
-1.09666e-06
3.66758e-06
-9.86765e-07
4.05416e-06
-8.42581e-07
4.28305e-06
-5.41935e-07
4.33436e-06
-3.50918e-08
4.08909e-06
6.99414e-07
3.54563e-06
1.34666e-06
2.79281e-06
1.70019e-06
1.36998e-06
2.01031e-06
-1.35481e-06
3.03145e-06
-4.94267e-06
4.41281e-06
-7.58042e-06
4.96583e-06
-9.09255e-06
4.66659e-06
-1.0317e-05
3.76515e-06
-1.13162e-05
3.04114e-06
-1.21002e-05
2.37186e-06
-1.27285e-05
1.84534e-06
-1.32157e-05
1.40812e-06
-1.3588e-05
1.04748e-06
-1.38515e-05
7.33356e-07
-1.40089e-05
4.44361e-07
-1.40608e-05
1.73973e-07
-1.40059e-05
-8.15062e-08
-1.38331e-05
-3.22185e-07
-1.35517e-05
-5.46199e-07
-1.31712e-05
-7.48494e-07
-1.27023e-05
-9.2576e-07
-1.21596e-05
-1.07458e-06
-1.15566e-05
-1.19539e-06
-1.09062e-05
-1.29127e-06
-1.02177e-05
-1.36769e-06
-9.49839e-06
-1.4292e-06
-8.75494e-06
-1.47693e-06
-7.99504e-06
-1.50835e-06
-7.22898e-06
-1.51928e-06
-6.46813e-06
-1.50903e-06
-5.72007e-06
-1.48513e-06
-4.9863e-06
-1.458e-06
-4.26239e-06
-1.4388e-06
-3.53968e-06
-1.43353e-06
-2.81811e-06
-1.42767e-06
-2.10386e-06
-1.41061e-06
-1.41229e-06
-1.36738e-06
-7.57131e-07
-1.30008e-06
-1.4361e-07
-1.2249e-06
4.44455e-07
-1.17323e-06
1.01645e-06
-1.14572e-06
1.59013e-06
-1.14987e-06
2.17609e-06
-1.17278e-06
2.7733e-06
-1.19432e-06
3.37298e-06
-1.2003e-06
3.96533e-06
-1.18756e-06
4.54409e-06
-1.16212e-06
5.10734e-06
-1.13211e-06
5.65551e-06
-1.1021e-06
6.18897e-06
-1.07215e-06
6.70678e-06
-1.04004e-06
7.20685e-06
-1.00332e-06
7.68619e-06
-9.59335e-07
8.14018e-06
-9.04195e-07
8.56136e-06
-8.33601e-07
8.93925e-06
-7.45951e-07
9.26361e-06
-6.44407e-07
9.53364e-06
-5.38343e-07
9.76487e-06
-4.43878e-07
9.97086e-06
-3.71646e-07
1.01331e-05
-3.04587e-07
1.02261e-05
-2.02885e-07
1.02641e-05
-2.89389e-08
1.02876e-05
2.35342e-07
1.02693e-05
6.0335e-07
1.01184e-05
1.00125e-06
9.76528e-06
1.27648e-06
9.2082e-06
1.37932e-06
8.49255e-06
1.4215e-06
7.67463e-06
1.49265e-06
6.82565e-06
1.51828e-06
6.02002e-06
1.40157e-06
5.30491e-06
1.16487e-06
4.69483e-06
9.13506e-07
4.17949e-06
7.238e-07
3.73827e-06
6.08696e-07
3.35277e-06
5.53338e-07
3.00257e-06
5.35075e-07
2.6611e-06
5.39565e-07
2.32914e-06
5.59979e-07
2.0404e-06
5.8559e-07
1.82818e-06
5.61716e-07
1.70389e-06
4.23684e-07
1.6721e-06
1.87688e-07
1.73265e-06
-6.85709e-08
1.88206e-06
-2.76816e-07
2.09143e-06
-4.05945e-07
2.32433e-06
-4.50481e-07
2.55383e-06
-4.27728e-07
2.75818e-06
-3.53372e-07
2.93458e-06
-2.6473e-07
3.07695e-06
-1.62115e-07
3.19092e-06
-8.80202e-08
3.26132e-06
6.75551e-09
3.29617e-06
2.82594e-08
3.29247e-06
1.2927e-07
9.27758e-08
3.22132e-06
6.02602e-07
-5.02291e-07
1.25553e-06
-1.24654e-06
1.71925e-06
-1.38802e-06
2.02741e-06
-1.26058e-06
2.23095e-06
-1.02473e-06
2.36683e-06
-7.48766e-07
2.44575e-06
-4.48228e-07
2.46386e-06
-1.35211e-07
2.43058e-06
1.80452e-07
2.35538e-06
4.86812e-07
2.2174e-06
7.54315e-07
1.98789e-06
9.69319e-07
1.67375e-06
1.10927e-06
1.24304e-06
1.08531e-06
7.2956e-07
8.98122e-07
3.814e-07
5.4637e-07
1.02732e-07
3.10947e-07
-2.70466e-07
2.60848e-07
-8.21325e-07
3.5063e-07
-1.49754e-06
6.88487e-07
-1.97547e-06
8.6563e-07
-2.27686e-06
9.2096e-07
-2.60673e-06
9.88036e-07
-2.98186e-06
1.07854e-06
-3.40211e-06
1.15782e-06
-3.88751e-06
1.21867e-06
-4.37438e-06
1.2655e-06
-4.86699e-06
1.28927e-06
-5.35285e-06
1.30155e-06
-5.82793e-06
1.29428e-06
-6.29097e-06
1.27516e-06
-6.73307e-06
1.23908e-06
-7.14944e-06
1.18687e-06
-7.53252e-06
1.11778e-06
-7.87699e-06
1.03134e-06
-8.1787e-06
9.29573e-07
-8.43449e-06
8.13509e-07
-8.64261e-06
6.85817e-07
-8.80156e-06
5.49042e-07
-8.9099e-06
4.0594e-07
-8.96678e-06
2.59697e-07
-8.97221e-06
1.13657e-07
-8.92777e-06
-2.91994e-08
-8.83191e-06
-1.65915e-07
-8.68755e-06
-2.93998e-07
-8.49843e-06
-4.12394e-07
-8.2678e-06
-5.20059e-07
-7.99896e-06
-6.16532e-07
-7.69505e-06
-7.02219e-07
-7.35881e-06
-7.78662e-07
-6.99318e-06
-8.4803e-07
-6.60029e-06
-9.126e-07
-6.18321e-06
-9.76164e-07
-5.7464e-06
-1.04389e-06
-5.29424e-06
-1.12001e-06
-4.82884e-06
-1.20656e-06
-4.34901e-06
-1.3027e-06
-3.84965e-06
-1.40339e-06
-3.32152e-06
-1.50038e-06
-2.75675e-06
-1.58437e-06
-2.15447e-06
-1.64269e-06
-1.52155e-06
-1.65299e-06
-8.71336e-07
-1.59419e-06
-2.25062e-07
-1.45783e-06
3.92733e-07
-1.24993e-06
9.49978e-07
-9.74882e-07
1.41791e-06
-6.53464e-07
1.77426e-06
-3.33598e-07
2.02691e-06
-3.91939e-08
2.11066e-06
1.96034e-07
2.04791e-06
2.71613e-07
1.94491e-06
1.04235e-07
1.7796e-06
-2.76778e-07
1.56789e-06
-6.39735e-07
1.35822e-06
-8.60861e-07
1.25467e-06
-1.06917e-06
1.36324e-06
-1.31064e-06
1.61986e-06
-1.35329e-06
1.87961e-06
-1.24651e-06
2.06244e-06
-1.02541e-06
2.09002e-06
-5.6952e-07
1.87666e-06
1.78265e-07
1.4226e-06
1.15347e-06
5.35023e-07
2.23424e-06
-1.16768e-06
3.40289e-06
-3.77019e-06
4.61282e-06
-6.38816e-06
5.64943e-06
-8.155e-06
6.17964e-06
-9.10307e-06
5.91389e-06
-9.54172e-06
5.10525e-06
-1.00134e-05
4.23684e-06
-1.05299e-05
3.5576e-06
-1.10852e-05
2.92714e-06
-1.16289e-05
2.38905e-06
-1.21136e-05
1.89288e-06
-1.25098e-05
1.44363e-06
-1.28023e-05
1.02591e-06
-1.2986e-05
6.28019e-07
-1.30534e-05
2.41419e-07
-1.30002e-05
-1.34721e-07
-1.28378e-05
-4.84654e-07
-1.25684e-05
-8.15591e-07
-1.22008e-05
-1.11602e-06
-1.1748e-05
-1.37861e-06
-1.12235e-05
-1.59909e-06
-1.06416e-05
-1.7773e-06
-1.00138e-05
-1.91907e-06
-9.34826e-06
-2.0332e-06
-8.6499e-06
-2.12756e-06
-7.92298e-06
-2.20385e-06
-7.17456e-06
-2.25677e-06
-6.41607e-06
-2.27776e-06
-5.66233e-06
-2.26277e-06
-4.92516e-06
-2.2223e-06
-4.20683e-06
-2.17634e-06
-3.49942e-06
-2.14621e-06
-2.78533e-06
-2.14762e-06
-2.05788e-06
-2.15512e-06
-1.32393e-06
-2.14456e-06
-6.08289e-07
-2.08302e-06
6.22412e-08
-1.97061e-06
6.90414e-07
-1.85307e-06
1.27015e-06
-1.75296e-06
1.82817e-06
-1.70373e-06
2.38771e-06
-1.70941e-06
2.96222e-06
-1.7473e-06
3.55018e-06
-1.78228e-06
4.13937e-06
-1.78949e-06
4.71688e-06
-1.76507e-06
5.27579e-06
-1.72103e-06
5.81561e-06
-1.67193e-06
6.33875e-06
-1.62524e-06
6.84686e-06
-1.58026e-06
7.33985e-06
-1.53302e-06
7.81692e-06
-1.48039e-06
8.27707e-06
-1.41949e-06
8.71676e-06
-1.34388e-06
9.12678e-06
-1.24362e-06
9.49464e-06
-1.11381e-06
9.81359e-06
-9.6336e-07
1.00846e-05
-8.09322e-07
1.03056e-05
-6.6489e-07
1.04804e-05
-5.46466e-07
1.06479e-05
-4.72042e-07
1.08496e-05
-4.04589e-07
1.1036e-05
-2.15402e-07
1.10795e-05
1.91911e-07
1.09511e-05
7.31749e-07
1.07096e-05
1.24275e-06
1.03849e-05
1.60111e-06
9.96564e-06
1.79861e-06
9.44114e-06
1.946e-06
8.79349e-06
2.1403e-06
8.02004e-06
2.29174e-06
7.18507e-06
2.23655e-06
6.38342e-06
1.96652e-06
5.67278e-06
1.62414e-06
5.05909e-06
1.33749e-06
4.51971e-06
1.14808e-06
4.0281e-06
1.04494e-06
3.56605e-06
9.97132e-07
3.13346e-06
9.7215e-07
2.74912e-06
9.44321e-07
2.44069e-06
8.94022e-07
2.21548e-06
7.86928e-07
2.06885e-06
5.70309e-07
2.01092e-06
2.4562e-07
2.04942e-06
-1.07071e-07
2.17729e-06
-4.04688e-07
2.37405e-06
-6.02699e-07
2.60496e-06
-6.81394e-07
2.84148e-06
-6.64246e-07
3.06376e-06
-5.75657e-07
3.25948e-06
-4.60444e-07
3.42021e-06
-3.22851e-07
3.54584e-06
-2.13644e-07
3.65457e-06
-1.01981e-07
3.73967e-06
-5.6838e-08
3.84581e-06
2.31335e-08
4.56183e-08
3.89296e-06
7.25567e-07
-1.22786e-06
1.18821e-06
-1.70918e-06
1.40786e-06
-1.60767e-06
1.53089e-06
-1.38361e-06
1.62582e-06
-1.11966e-06
1.70938e-06
-8.32329e-07
1.76962e-06
-5.08464e-07
1.79298e-06
-1.58572e-07
1.79232e-06
1.81112e-07
1.75959e-06
5.19536e-07
1.66843e-06
8.45474e-07
1.50838e-06
1.12937e-06
1.28578e-06
1.33188e-06
9.69693e-07
1.40139e-06
6.12575e-07
1.25524e-06
2.08841e-07
9.50104e-07
-3.30979e-07
8.50768e-07
-9.30741e-07
8.6061e-07
-1.62473e-06
1.04462e-06
-2.20476e-06
1.26851e-06
-2.6419e-06
1.30277e-06
-3.08484e-06
1.3639e-06
-3.5791e-06
1.4823e-06
-4.09473e-06
1.59416e-06
-4.61527e-06
1.67837e-06
-5.12956e-06
1.73295e-06
-5.63103e-06
1.76697e-06
-6.12207e-06
1.78031e-06
-6.59535e-06
1.77482e-06
-7.05187e-06
1.7508e-06
-7.48555e-06
1.70885e-06
-7.89245e-06
1.64598e-06
-8.26934e-06
1.56376e-06
-8.61241e-06
1.46085e-06
-8.91949e-06
1.33841e-06
-9.1877e-06
1.19779e-06
-9.4147e-06
1.04051e-06
-9.59806e-06
8.69172e-07
-9.73541e-06
6.8639e-07
-9.82483e-06
4.95362e-07
-9.86462e-06
2.9949e-07
-9.85417e-06
1.03201e-07
-9.79486e-06
-8.85092e-08
-9.68845e-06
-2.72325e-07
-9.53733e-06
-4.45113e-07
-9.34511e-06
-6.04616e-07
-9.11622e-06
-7.48943e-07
-8.85558e-06
-8.77178e-07
-8.56827e-06
-9.89526e-07
-8.25948e-06
-1.08745e-06
-7.93409e-06
-1.17342e-06
-7.59564e-06
-1.25105e-06
-7.24672e-06
-1.32509e-06
-6.88978e-06
-1.40082e-06
-6.52639e-06
-1.4834e-06
-6.156e-06
-1.57696e-06
-5.77564e-06
-1.68306e-06
-5.37934e-06
-1.7997e-06
-4.95783e-06
-1.92188e-06
-4.50206e-06
-2.04015e-06
-4.00822e-06
-2.13653e-06
-3.47606e-06
-2.18516e-06
-2.91152e-06
-2.15873e-06
-2.33027e-06
-2.03907e-06
-1.7577e-06
-1.8225e-06
-1.21348e-06
-1.51911e-06
-7.13616e-07
-1.15333e-06
-2.86083e-07
-7.61132e-07
5.73924e-08
-3.82669e-07
3.01911e-07
-4.84837e-08
4.10568e-07
1.62955e-07
3.83738e-07
1.31064e-07
1.85006e-07
-7.80458e-08
-9.67767e-08
-3.57952e-07
-3.53473e-07
-6.04165e-07
-5.67727e-07
-8.5492e-07
-6.60367e-07
-1.218e-06
-6.48006e-07
-1.36565e-06
-6.49641e-07
-1.24488e-06
-8.37359e-07
-8.37688e-07
-1.28441e-06
-1.22469e-07
-2.00285e-06
8.96703e-07
-3.03353e-06
2.18415e-06
-4.40226e-06
3.60297e-06
-5.99024e-06
4.99087e-06
-7.47327e-06
6.09585e-06
-8.46167e-06
6.63782e-06
-8.79054e-06
6.50852e-06
-8.81219e-06
5.93554e-06
-8.9099e-06
5.20296e-06
-9.22626e-06
4.5532e-06
-9.64547e-06
3.97681e-06
-1.01242e-05
3.40592e-06
-1.05849e-05
2.8497e-06
-1.09892e-05
2.29714e-06
-1.13187e-05
1.77315e-06
-1.15647e-05
1.27196e-06
-1.17209e-05
7.84164e-07
-1.1777e-05
2.97501e-07
-1.17281e-05
-1.83567e-07
-1.15719e-05
-6.40891e-07
-1.13129e-05
-1.07459e-06
-1.09612e-05
-1.46765e-06
-1.05309e-05
-1.80891e-06
-1.00381e-05
-2.09189e-06
-9.49877e-06
-2.31667e-06
-8.92421e-06
-2.49363e-06
-8.31912e-06
-2.63829e-06
-7.68179e-06
-2.76489e-06
-7.00815e-06
-2.87749e-06
-6.2989e-06
-2.96603e-06
-5.56615e-06
-3.0105e-06
-4.83249e-06
-2.99643e-06
-4.12294e-06
-2.93185e-06
-3.44974e-06
-2.84954e-06
-2.80013e-06
-2.79582e-06
-2.14394e-06
-2.80381e-06
-1.45589e-06
-2.84317e-06
-7.35741e-07
-2.8647e-06
-1.49701e-08
-2.80379e-06
6.75277e-07
-2.66086e-06
1.30021e-06
-2.47801e-06
1.8694e-06
-2.32215e-06
2.41003e-06
-2.24436e-06
2.95291e-06
-2.2523e-06
3.51518e-06
-2.30956e-06
4.09333e-06
-2.36043e-06
4.66983e-06
-2.36599e-06