/*--------------------------------*- C++ -*----------------------------------*\
  =========                 |
  \\      /  F ield         | OpenFOAM: The Open Source CFD Toolbox
   \\    /   O peration     | Website:  https://openfoam.org
    \\  /    A nd           | Version:  9
     \\/     M anipulation  |
\*---------------------------------------------------------------------------*/
FoamFile
{
    format      ascii;
    class       volScalarField;
    location    "0.059";
    object      s;
}
// * * * * * * * * * * * * * * * * * * * * * * * * * * * * * * * * * * * * * //

dimensions      [0 0 0 0 0 0 0];

internalField   nonuniform List<scalar> 
12225
(
1
1
1
1
1
1
1
1
1
1
1
1
1
1
1
1
1
0.999966
1
1
1
1
1
1
1
1
1
1
1
1
1
1
1
1
1
0.999998
1
1
1
1
1
1
1
1
1
1
1
1
1
1
1
1
1
1
1
1
1
1
1
1
1
1
1
1
1
1
1
1
1
1
1
1
1
1
1
1
1
1
1
1
1
1
1
1
1
1
1
1
1
1
1
1
1
1
1
1
1
1
1
1
1
1
1
1
1
1
1
1
1
1
1
1
1
1
1
1
1
1
1
1
1
1
1
1
1
1
1
1
1
1
1
1
1
1
1
1
1
1
1
1
1
1
1
1
1
1
1
1
1
1
1
1
1
1
1
1
1
1
1
1
1
1
1
1
1
1
1
1
1
1
1
1
1
1
1
1
1
1
1
1
1
1
1
1
1
1
1
1
1
1
1
1
1
1
1
1
1
1
1
1
1
1
1
1
1
1
1
1
1
1
1
1
1
1
1
1
1
1
1
1
1
1
1
1
1
1
1
1
1
1
1
1
1
1
1
1
1
1
1
1
1
1
1
1
1
1
1
1
1
1
1
1
1
1
1
1
1
1
1
1
1
1
1
1
1
1
1
1
1
1
1
1
1
1
1
1
1
1
1
1
1
1
1
1
1
1
1
1
1
1
1
1
1
1
1
1
1
1
1
1
1
1
1
1
1
1
1
1
1
1
1
1
1
1
1
1
1
1
1
1
1
1
1
1
1
1
1
1
1
1
1
1
1
1
1
1
1
1
1
1
1
1
1
1
1
1
1
1
1
1
1
1
1
1
1
1
1
1
1
1
1
1
1
1
1
1
1
1
1
1
1
1
1
1
1
1
1
1
1
1
1
1
1
1
1
1
1
1
1
1
1
1
1
1
1
1
1
1
1
1
1
1
1
1
1
1
1
1
1
1
1
1
1
1
1
1
1
1
1
1
1
1
1
1
1
1
1
1
1
1
1
1
1
1
1
1
1
1
1
1
1
1
1
1
1
1
1
1
1
1
1
1
1
1
1
1
1
1
1
1
1
1
1
1
1
1
1
1
1
1
1
1
1
1
1
1
1
1
1
1
1
1
1
1
1
1
1
1
1
1
1
1
1
1
1
1
1
1
1
1
1
1
1
1
1
1
1
1
1
1
1
1
1
1
1
1
1
1
1
1
1
1
1
1
1
1
1
1
1
1
1
1
1
1
1
1
1
1
1
1
0.64929
0.643963
0.636145
0.629371
0.624864
0.624492
0.626046
0.631863
0.640278
0.646315
0.649098
0.649077
0.643517
0.629875
0.624254
0.628437
0.648432
0.653097
0.640804
0.600231
0.592143
0.577573
0.53681
0.600769
0.721317
0.747293
0.751502
0.751163
0.74698
0.738328
0.727093
0.716461
0.708535
0.702766
0.69766
0.693052
0.689602
0.6871
0.684862
0.683094
0.681814
0.680016
0.677287
0.67414
0.670508
0.666054
0.661057
0.65566
0.650493
0.646765
0.644042
0.641071
0.636397
0.630851
0.627473
0.62614
0.625777
0.625894
0.626426
0.626923
0.627022
0.62682
0.626581
0.626547
0.62625
0.625503
0.625229
0.62506
0.626079
0.62871
0.633962
0.641042
0.645459
0.653589
0.672558
0.690746
0.701741
0.714646
0.73281
0.754222
0.774605
0.791075
0.807725
0.824467
0.840443
0.849238
0.854554
0.861365
0.834204
0.81143
0.806168
0.802805
0.800593
0.79855
0.796846
0.795122
0.793699
0.792524
0.791153
0.790373
0.790028
0.790167
0.79178
0.793637
0.796011
0.79863
0.800336
0.802746
0.805449
0.807083
0.809793
0.812135
0.813859
0.815885
0.817967
0.819604
0.821097
0.823173
0.824635
0.827045
0.828121
0.830309
0.831719
0.832802
0.833449
0.83402
0.834508
0.834932
0.835341
0.835668
0.8359
0.836024
0.836047
0.836006
0.835835
0.835412
0.83485
0.834166
0.833343
0.832454
0.831597
0.83083
0.830296
0.830124
0.830348
0.832524
0.84208
0.857002
0.86793
0.873564
0.876709
0.88243
0.896122
0.909466
0.917663
0.92188
0.924586
0.927031
0.929176
0.930651
0.931342
0.931463
0.931185
0.928612
0.914264
0.887181
0.870504
0.869757
0.87214
0.872765
0.871673
0.86809
0.860011
0.840486
0.780923
0.599763
0.4083
0.263329
0.207339
0.128079
0.642098
0.623991
0.613548
0.596004
0.580278
0.564863
0.561078
0.563405
0.572156
0.595929
0.621605
0.637841
0.642259
0.642232
0.63621
0.621009
0.625536
0.636087
0.582919
0.53335
0.563529
0.620585
0.676397
0.743101
0.76741
0.771914
0.76119
0.739948
0.728728
0.721157
0.709332
0.698927
0.693696
0.687116
0.684265
0.683559
0.683422
0.683681
0.68499
0.687382
0.690574
0.694539
0.699238
0.704098
0.708548
0.712406
0.715777
0.718123
0.719146
0.719616
0.719732
0.718915
0.715183
0.707603
0.697864
0.69504
0.695841
0.698854
0.70187
0.703982
0.704762
0.703419
0.699785
0.693887
0.685522
0.674112
0.662204
0.650806
0.643693
0.640546
0.637666
0.631108
0.636306
0.642276
0.658396
0.694247
0.72765
0.76037
0.789094
0.81161
0.830327
0.838476
0.840572
0.846105
0.855507
0.860254
0.854145
0.838426
0.815372
0.801348
0.788105
0.768055
0.743199
0.720577
0.709622
0.697325
0.690184
0.686488
0.684645
0.684051
0.684688
0.686908
0.689031
0.692935
0.698555
0.704169
0.711771
0.721636
0.731403
0.74224
0.752099
0.75902
0.766481
0.77541
0.782232
0.790285
0.797466
0.80492
0.810819
0.818023
0.822929
0.829036
0.833651
0.838162
0.84266
0.846924
0.850672
0.853594
0.856195
0.858398
0.860499
0.862499
0.864215
0.865481
0.866329
0.866793
0.866893
0.866787
0.866148
0.863754
0.860615
0.858266
0.855494
0.84983
0.834814
0.820269
0.816126
0.816851
0.822116
0.842264
0.860965
0.873501
0.88139
0.887667
0.898861
0.909515
0.916261
0.920397
0.923262
0.926022
0.928036
0.92887
0.929094
0.929132
0.928037
0.924078
0.924135
0.925671
0.925803
0.926128
0.926736
0.927265
0.927359
0.927198
0.925879
0.919673
0.897681
0.861526
0.830929
0.760124
0.618587
0.616932
0.606188
0.577581
0.549362
0.531429
0.519833
0.518061
0.52
0.527327
0.54557
0.59179
0.626885
0.638946
0.639506
0.632345
0.615691
0.605038
0.552462
0.585961
0.691618
0.760462
0.783413
0.789013
0.781958
0.759308
0.743167
0.729886
0.721202
0.714765
0.70517
0.701125
0.699281
0.698726
0.70044
0.707098
0.715372
0.723678
0.733161
0.743239
0.752635
0.761009
0.767804
0.772642
0.776481
0.778451
0.779591
0.780315
0.780997
0.782059
0.783851
0.786196
0.788189
0.791231
0.797222
0.802985
0.806156
0.809156
0.811121
0.812291
0.812622
0.812031
0.809316
0.80484
0.798051
0.788297
0.776019
0.760791
0.739702
0.717831
0.700025
0.696011
0.682928
0.671289
0.685353
0.746224
0.834263
0.859716
0.866457
0.869444
0.870694
0.87061
0.865997
0.861946
0.859233
0.854033
0.835796
0.813153
0.796003
0.765811
0.714535
0.676463
0.659942
0.65295
0.650448
0.649907
0.650974
0.653822
0.656102
0.659435
0.66071
0.661619
0.662505
0.663805
0.665078
0.666377
0.668757
0.672699
0.678817
0.688071
0.702361
0.720557
0.736242
0.750558
0.76462
0.77883
0.791583
0.802067
0.811469
0.818455
0.825234
0.832991
0.84047
0.847484
0.854116
0.86085
0.867033
0.871125
0.874631
0.877019
0.879923
0.884028
0.888635
0.892659
0.896052
0.899408
0.902941
0.906542
0.909723
0.911324
0.911401
0.911147
0.910505
0.909659
0.907879
0.902964
0.884721
0.844249
0.823138
0.819303
0.823253
0.845866
0.868557
0.878079
0.882622
0.885653
0.890373
0.901736
0.912325
0.91908
0.92294
0.92431
0.924673
0.925503
0.926115
0.925733
0.925745
0.925995
0.927313
0.929925
0.932277
0.934233
0.936282
0.940093
0.945818
0.950857
0.952455
0.952381
0.950651
0.939656
0.632117
0.626105
0.593643
0.550916
0.52594
0.512855
0.50465
0.501851
0.502455
0.505643
0.514759
0.53767
0.591304
0.628227
0.637847
0.631955
0.609132
0.580986
0.590267
0.720538
0.789363
0.803216
0.803896
0.791772
0.772268
0.755313
0.745103
0.739554
0.737483
0.737169
0.740332
0.751378
0.768966
0.791463
0.816336
0.837199
0.858718
0.878282
0.889158
0.900835
0.907925
0.912287
0.914265
0.914851
0.913611
0.908712
0.903021
0.893415
0.883325
0.873407
0.865179
0.861169
0.856404
0.850764
0.846217
0.842507
0.840687
0.838723
0.8378
0.83683
0.835989
0.834107
0.830459
0.824307
0.814839
0.802369
0.789131
0.77415
0.765709
0.751227
0.727318
0.694834
0.668625
0.683521
0.821345
0.870518
0.872073
0.868971
0.864197
0.861095
0.861728
0.861918
0.859468
0.85467
0.845517
0.829596
0.81249
0.791275
0.752483
0.684408
0.654745
0.643814
0.641352
0.64565
0.655176
0.660165
0.672727
0.685758
0.691868
0.695407
0.696422
0.69424
0.687
0.680986
0.672672
0.667966
0.665906
0.665261
0.666713
0.669305
0.674955
0.685754
0.70446
0.727393
0.751336
0.770683
0.78954
0.807064
0.825442
0.840534
0.852105
0.862098
0.871584
0.880803
0.888415
0.894718
0.899495
0.902105
0.903807
0.904989
0.906688
0.910424
0.916222
0.921928
0.927684
0.933838
0.939485
0.944172
0.948099
0.950846
0.951785
0.951705
0.951288
0.950487
0.94924
0.946416
0.938966
0.914558
0.858965
0.82813
0.819841
0.822584
0.844049
0.867662
0.875756
0.877295
0.877882
0.879757
0.888649
0.906496
0.913386
0.913993
0.912142
0.911107
0.910824
0.910544
0.911026
0.913704
0.917626
0.921841
0.926396
0.930345
0.932926
0.934769
0.93783
0.944739
0.952887
0.959232
0.962882
0.963043
0.6481
0.630628
0.581947
0.539304
0.517509
0.506876
0.500266
0.496884
0.496831
0.498307
0.504199
0.521518
0.567481
0.616591
0.634697
0.625358
0.595832
0.594527
0.683754
0.794553
0.814268
0.815428
0.807041
0.793004
0.781947
0.778568
0.785344
0.804852
0.818854
0.843374
0.863887
0.889058
0.908347
0.922965
0.938019
0.94566
0.955096
0.959364
0.963045
0.96487
0.965828
0.966168
0.966158
0.965283
0.964297
0.962544
0.960092
0.956353
0.950727
0.942171
0.929566
0.912774
0.897391
0.883516
0.870073
0.860591
0.854664
0.849006
0.845851
0.843454
0.841714
0.838961
0.834195
0.825811
0.812353
0.793892
0.774476
0.756025
0.730024
0.699207
0.695739
0.713443
0.805845
0.866026
0.872321
0.870569
0.860967
0.848441
0.841493
0.840028
0.841394
0.843071
0.842714
0.836661
0.827241
0.811469
0.786502
0.742903
0.674521
0.641949
0.632115
0.631006
0.642519
0.662211
0.691951
0.730753
0.749326
0.757181
0.759272
0.758546
0.751323
0.745685
0.742984
0.738323
0.729732
0.71171
0.691045
0.67578
0.669549
0.66771
0.668592
0.672696
0.680069
0.693199
0.717516
0.748581
0.774145
0.801645
0.825873
0.847845
0.865296
0.878936
0.889791
0.898506
0.905236
0.909979
0.912773
0.914183
0.915103
0.916569
0.919811
0.927711
0.937509
0.948688
0.958596
0.966273
0.97178
0.975097
0.977036
0.977936
0.977944
0.977589
0.976354
0.974614
0.973555
0.97261
0.970562
0.963631
0.93511
0.864528
0.828399
0.819414
0.823569
0.848621
0.867922
0.872808
0.872892
0.872137
0.873612
0.881956
0.89645
0.899921
0.898368
0.890035
0.883025
0.881763
0.88562
0.894814
0.902155
0.909764
0.917396
0.924862
0.931066
0.934681
0.936356
0.938073
0.941997
0.949355
0.956995
0.962349
0.653899
0.632104
0.579948
0.535266
0.515381
0.505743
0.499456
0.495708
0.495435
0.497695
0.505548
0.525629
0.569867
0.612034
0.625959
0.607269
0.596054
0.636243
0.782386
0.827098
0.831081
0.826044
0.820016
0.818011
0.834194
0.861938
0.882912
0.900412
0.916865
0.931358
0.94277
0.953771
0.959411
0.965671
0.968517
0.970124
0.971096
0.971447
0.971553
0.971425
0.971235
0.971017
0.9707
0.970571
0.970495
0.970424
0.970272
0.970198
0.969896
0.969331
0.967234
0.962832
0.955874
0.944537
0.927447
0.907585
0.885788
0.870978
0.858777
0.852334
0.847943
0.844604
0.841365
0.836926
0.829387
0.814176
0.794459
0.783649
0.780188
0.78466
0.820382
0.858882
0.870702
0.872704
0.868855
0.854575
0.836903
0.829248
0.826941
0.826877
0.82745
0.827243
0.823431
0.81637
0.803033
0.780669
0.743638
0.685085
0.637257
0.623679
0.622186
0.632365
0.662493
0.714582
0.758965
0.775158
0.780209
0.780845
0.775526
0.760504
0.749264
0.744987
0.743747
0.746625
0.751482
0.751587
0.747079
0.729932
0.696513
0.679941
0.673686
0.672289
0.676572
0.684006
0.698262
0.724118
0.755458
0.790735
0.823741
0.850515
0.871257
0.886591
0.898096
0.906658
0.912925
0.91688
0.918956
0.919892
0.920816
0.922726
0.92743
0.937732
0.950777
0.963199
0.972981
0.97885
0.981818
0.983225
0.983521
0.983307
0.98261
0.981147
0.97861
0.976067
0.974367
0.97366
0.973299
0.972269
0.96606
0.932893
0.857106
0.823889
0.817969
0.825834
0.853825
0.86753
0.870075
0.869847
0.866942
0.867209
0.871889
0.878149
0.878362
0.875886
0.874106
0.876312
0.8832
0.886914
0.893433
0.904382
0.914914
0.923093
0.929843
0.935164
0.938226
0.939418
0.940376
0.942405
0.947996
0.955595
0.658503
0.640376
0.587408
0.533951
0.515829
0.508748
0.502899
0.497456
0.496942
0.500797
0.512836
0.538982
0.579012
0.60874
0.610605
0.59938
0.609621
0.716825
0.837398
0.857585
0.858436
0.856661
0.860597
0.882371
0.910402
0.926761
0.936997
0.948506
0.957041
0.96165
0.966109
0.968438
0.969539
0.970037
0.970108
0.969678
0.968974
0.967823
0.967189
0.966388
0.965977
0.965682
0.96555
0.965489
0.965494
0.965929
0.966799
0.967969
0.969625
0.971386
0.973494
0.974712
0.975419
0.975707
0.974774
0.969555
0.959279
0.939644
0.914333
0.887773
0.87092
0.860981
0.855985
0.853962
0.853168
0.854993
0.858193
0.861783
0.866154
0.873981
0.877578
0.878283
0.878181
0.875313
0.864937
0.844641
0.825775
0.820517
0.819269
0.818708
0.817639
0.815119
0.808931
0.798116
0.780226
0.750527
0.702327
0.641152
0.617893
0.613171
0.613917
0.629718
0.674304
0.748839
0.781849
0.788973
0.789224
0.781452
0.758224
0.716734
0.675081
0.65822
0.655289
0.67317
0.727322
0.749437
0.756425
0.756703
0.746796
0.717014
0.691408
0.682814
0.680298
0.683447
0.69425
0.714825
0.747081
0.785662
0.824563
0.859161
0.884518
0.901409
0.912195
0.918987
0.922694
0.924395
0.925261
0.926044
0.927524
0.930934
0.940162
0.956499
0.969077
0.977484
0.982381
0.984782
0.985665
0.985719
0.985379
0.984369
0.982092
0.97895
0.976416
0.974336
0.972958
0.972268
0.971912
0.971415
0.969864
0.960508
0.910634
0.841166
0.816999
0.815963
0.830829
0.85715
0.866472
0.867841
0.866842
0.862907
0.856717
0.856148
0.856091
0.855455
0.856563
0.859831
0.858508
0.856876
0.862699
0.888443
0.91375
0.927262
0.934485
0.939307
0.942431
0.943746
0.944166
0.944801
0.946609
0.952282
0.665877
0.649959
0.59692
0.538882
0.52149
0.516065
0.513274
0.510013
0.506164
0.51176
0.531481
0.559552
0.590993
0.602936
0.602804
0.599466
0.640278
0.798826
0.87501
0.88806
0.891346
0.895925
0.909779
0.93153
0.947837
0.9552
0.960305
0.965302
0.967562
0.968679
0.969194
0.969302
0.96897
0.968001
0.967306
0.966468
0.965979
0.965757
0.965576
0.965465
0.965347
0.965208
0.965042
0.964442
0.963732
0.962919
0.962175
0.961533
0.96108
0.960894
0.961602
0.965321
0.969619
0.975794
0.979084
0.980641
0.981262
0.980751
0.975412
0.962629
0.933506
0.90072
0.873485
0.86182
0.857385
0.857121
0.861309
0.869166
0.878061
0.8852
0.887893
0.888801
0.888123
0.883063
0.871156
0.849972
0.823793
0.815431
0.815056
0.81578
0.814806
0.810922
0.804907
0.795484
0.778921
0.7499
0.702554
0.635917
0.598645
0.592835
0.598514
0.61771
0.662136
0.736256
0.779684
0.789176
0.78971
0.781843
0.753758
0.696091
0.616209
0.54704
0.522126
0.521877
0.587339
0.692477
0.744082
0.758461
0.759657
0.750593
0.721253
0.699537
0.694139
0.692074
0.695736
0.712306
0.744384
0.78398
0.828786
0.86805
0.896305
0.912359
0.920842
0.925054
0.926817
0.927455
0.927903
0.928801
0.930949
0.936941
0.952093
0.966096
0.976444
0.982851
0.986104
0.987124
0.98716
0.986829
0.985748
0.983108
0.980428
0.97773
0.975785
0.975419
0.975841
0.976669
0.976564
0.975141
0.972517
0.966996
0.946246
0.873692
0.823969
0.81124
0.814459
0.837727
0.859007
0.865303
0.865714
0.863513
0.856495
0.848232
0.841615
0.838563
0.837485
0.835195
0.832817
0.833513
0.842662
0.876333
0.912723
0.93502
0.945114
0.949292
0.951037
0.951143
0.950912
0.950757
0.951127
0.953263
0.673459
0.663925
0.608212
0.542898
0.523884
0.519438
0.518608
0.520976
0.521989
0.530541
0.548413
0.572581
0.590108
0.593863
0.590653
0.604842
0.698405
0.85634
0.903739
0.914143
0.918597
0.92659
0.941557
0.956341
0.963118
0.966335
0.968244
0.969296
0.96956
0.969157
0.968912
0.968173
0.967677
0.967476
0.967415
0.96752
0.968593
0.969435
0.970464
0.971086
0.971539
0.971741
0.971793
0.971743
0.97135
0.970457
0.968754
0.966504
0.963355
0.960123
0.957731
0.956689
0.956306
0.95711
0.962657
0.971414
0.979519
0.984026
0.986002
0.986572
0.984205
0.974659
0.95053
0.90994
0.876205
0.861224
0.856138
0.857429
0.863518
0.873647
0.884537
0.893187
0.89595
0.896167
0.889678
0.869954
0.838218
0.814305
0.808678
0.80964
0.812177
0.810821
0.805979
0.797676
0.78329
0.757881
0.715716
0.652983
0.59971
0.577376
0.569948
0.57975
0.616964
0.682188
0.74839
0.772395
0.776185
0.770559
0.750354
0.71041
0.634998
0.536369
0.481739
0.471287
0.500172
0.587074
0.698082
0.749349
0.760772
0.75793
0.741974
0.715676
0.704896
0.705837
0.708168
0.717898
0.749018
0.792227
0.837198
0.87621
0.902574
0.917581
0.924831
0.927775
0.928606
0.928828
0.92919
0.930193
0.933215
0.942702
0.959245
0.972731
0.981824
0.986524
0.988196
0.988557
0.988344
0.987298
0.985672
0.983031
0.981238
0.981144
0.981367
0.982665
0.984298
0.984701
0.984638
0.983967
0.981116
0.975032
0.961004
0.909104
0.838487
0.810769
0.807287
0.815417
0.844612
0.859751
0.863672
0.863199
0.859634
0.849986
0.841082
0.834592
0.830647
0.828554
0.828251
0.830159
0.840723
0.87848
0.925641
0.954139
0.965596
0.967553
0.967203
0.965318
0.961497
0.959163
0.958567
0.958537
0.678736
0.67851
0.633449
0.556501
0.529088
0.521765
0.520522
0.523041
0.528255
0.539049
0.554639
0.575033
0.586518
0.587226
0.584693
0.614027
0.750101
0.8921
0.925337
0.934198
0.938809
0.947147
0.959389
0.966436
0.969204
0.970272
0.97061
0.970273
0.96963
0.968898
0.968429
0.968198
0.968131
0.968843
0.969729
0.970659
0.971297
0.971618
0.972046
0.972352
0.97257
0.97266
0.972722
0.9732
0.973622
0.973836
0.973941
0.973944
0.973334
0.971768
0.968361
0.962597
0.956579
0.953317
0.951871
0.95139
0.955595
0.967601
0.979158
0.986803
0.989992
0.990977
0.990214
0.982884
0.961637
0.916139
0.876352
0.858033
0.852499
0.854077
0.862006
0.873861
0.88732
0.899927
0.903612
0.900843
0.880635
0.836633
0.810344
0.803955
0.803863
0.807923
0.807448
0.804019
0.796996
0.782865
0.756071
0.709313
0.635467
0.586469
0.565975
0.554887
0.553934
0.570445
0.610807
0.653945
0.671962
0.663704
0.632004
0.581952
0.534097
0.50173
0.469548
0.45934
0.481072
0.556224
0.676302
0.741246
0.758965
0.758832
0.748407
0.726072
0.715859
0.7139
0.717868
0.733658
0.767982
0.811619
0.856538
0.892866
0.915007
0.925533
0.928868
0.929454
0.929412
0.929494
0.930021
0.931951
0.937969
0.954482
0.971691
0.982895
0.988088
0.989941
0.990243
0.990012
0.989328
0.987442
0.987416
0.987792
0.988639
0.989333
0.989317
0.988912
0.987623
0.986482
0.985999
0.98567
0.984845
0.981872
0.972468
0.937995
0.858446
0.81521
0.803507
0.805128
0.820697
0.848196
0.858985
0.861984
0.861307
0.857502
0.846758
0.837115
0.831609
0.830108
0.830832
0.836249
0.858295
0.909174
0.948406
0.971502
0.98122
0.983126
0.98285
0.981044
0.975236
0.969725
0.967276
0.966148
0.682466
0.68482
0.657294
0.576799
0.536919
0.524088
0.520852
0.521783
0.527888
0.53935
0.554703
0.572014
0.578653
0.573204
0.572167
0.630447
0.801195
0.915855
0.941245
0.948662
0.95277
0.959798
0.967566
0.970636
0.971678
0.971915
0.971379
0.970314
0.969424
0.968856
0.968681
0.968704
0.969184
0.969639
0.970014
0.970175
0.969905
0.968938
0.967701
0.966379
0.965594
0.9653
0.965901
0.967107
0.969338
0.971242
0.97312
0.974215
0.974726
0.974881
0.974755
0.97374
0.970873
0.963836
0.955086
0.949562
0.947911
0.947878
0.952627
0.966582
0.981636
0.989767
0.993323
0.994643
0.994451
0.988746
0.969082
0.921574
0.874806
0.85244
0.846838
0.849309
0.859667
0.875876
0.894792
0.905836
0.907434
0.895386
0.850951
0.812179
0.802153
0.799707
0.801709
0.803777
0.802439
0.799167
0.79115
0.773131
0.736327
0.664193
0.59605
0.56398
0.54859
0.538878
0.534664
0.53455
0.531681
0.520699
0.499724
0.476602
0.457511
0.450662
0.451165
0.457794
0.482064
0.555783
0.675569
0.740325
0.758479
0.75864
0.749787
0.730719
0.723408
0.724223
0.73084
0.751863
0.791994
0.837175
0.878494
0.90754
0.923197
0.929063
0.930256
0.929975
0.929673
0.92978
0.93069
0.934377
0.946732
0.967197
0.980993
0.987976
0.990765
0.991301
0.991253
0.990578
0.990427
0.990912
0.991758
0.992208
0.992195
0.991977
0.991389
0.9898
0.987766
0.986221
0.985548
0.985419
0.98523
0.984154
0.978996
0.957563
0.883743
0.823782
0.803341
0.800924
0.806504
0.826689
0.848883
0.857978
0.862424
0.862259
0.85938
0.848565
0.840177
0.839878
0.843133
0.856089
0.897045
0.941571
0.969633
0.984674
0.990759
0.991919
0.991712
0.99055
0.986247
0.979329
0.97522
0.973182
0.691792
0.693918
0.682467
0.613285
0.553494
0.530403
0.519694
0.516965
0.520348
0.532428
0.548672
0.55883
0.558375
0.553014
0.57249
0.649715
0.831367
0.931658
0.952434
0.958759
0.962141
0.967076
0.971311
0.972657
0.972985
0.972684
0.971577
0.97029
0.96932
0.968948
0.968875
0.968905
0.969048
0.969049
0.968317
0.966215
0.962373
0.956511
0.951788
0.94847
0.946822
0.946231
0.947022
0.949408
0.953503
0.958366
0.964069
0.969168
0.972721
0.974431
0.975084
0.975209
0.9748
0.973215
0.969132
0.95939
0.949717
0.945713
0.944755
0.946404
0.953657
0.972205
0.985176
0.992921
0.996229
0.997385
0.997205
0.992644
0.974507
0.925695
0.871664
0.845042
0.839887
0.844575
0.862838
0.887731
0.903607
0.909298
0.904217
0.87361
0.825469
0.804393
0.798958
0.797231
0.797944
0.799034
0.798179
0.795207
0.786672
0.765483
0.721571
0.655058
0.592746
0.558663
0.538834
0.525488
0.512762
0.498172
0.482811
0.468124
0.456033
0.456283
0.462595
0.482994
0.535484
0.654419
0.734211
0.757608
0.760983
0.758459
0.746008
0.733502
0.731773
0.734917
0.748801
0.784237
0.827487
0.869067
0.903173
0.921456
0.928881
0.9309
0.930839
0.930085
0.929791
0.930149
0.932295
0.939961
0.960158
0.976782
0.986753
0.991165
0.992592
0.992631
0.992288
0.992269
0.99245
0.992873
0.993016
0.992944
0.992706
0.992142
0.990842
0.988499
0.986434
0.985086
0.984525
0.984503
0.984646
0.984446
0.982049
0.96889
0.909326
0.835748
0.805322
0.799639
0.801958
0.812915
0.828921
0.848465
0.85815
0.865946
0.869104
0.867467
0.865691
0.867311
0.873858
0.893671
0.932698
0.962746
0.981333
0.991167
0.995303
0.996282
0.996227
0.995648
0.99341
0.987168
0.98205
0.979074
0.708995
0.705206
0.706156
0.659565
0.585481
0.55073
0.523993
0.511191
0.507113
0.510761
0.52274
0.530064
0.53454
0.543297
0.575747
0.670665
0.866603
0.943676
0.960387
0.96548
0.968091
0.97112
0.973323
0.973869
0.973845
0.97301
0.971742
0.970363
0.969379
0.968996
0.968831
0.96867
0.968137
0.966298
0.961234
0.953246
0.945417
0.940365
0.936029
0.933415
0.93211
0.931624
0.932055
0.933447
0.936059
0.940095
0.946192
0.954762
0.964115
0.970415
0.973625
0.974889
0.97514
0.974583
0.972647
0.967321
0.957033
0.94844
0.94403
0.942196
0.942474
0.947578
0.964226
0.981017
0.99094
0.996132
0.998212
0.998803
0.998471
0.994906
0.978679
0.924888
0.864015
0.836205
0.832571
0.838377
0.866151
0.896607
0.90788
0.907972
0.895041
0.85829
0.817748
0.802269
0.797342
0.794447
0.794443
0.794234
0.793731
0.791149
0.783279
0.76508
0.734683
0.684146
0.630427
0.58728
0.55877
0.533281
0.520021
0.502534
0.504335
0.514274
0.542259
0.590458
0.685917
0.737438
0.75792
0.762516
0.761583
0.7554
0.743941
0.73904
0.741118
0.750964
0.780727
0.826407
0.868728
0.902194
0.920472
0.928634
0.931342
0.931626
0.931079
0.930008
0.930033
0.931171
0.936217
0.95232
0.973241
0.986704
0.99254
0.994311
0.994325
0.993678
0.993141
0.99307
0.99317
0.993275
0.993228
0.992974
0.992117
0.990026
0.988333
0.987039
0.985796
0.984709
0.984128
0.984057
0.98425
0.984284
0.983188
0.975099
0.931488
0.849452
0.809381
0.79993
0.800979
0.808797
0.818339
0.828014
0.846312
0.860534
0.869621
0.878356
0.883267
0.888278
0.899141
0.925618
0.953728
0.974534
0.987463
0.994343
0.997353
0.998235
0.998281
0.998049
0.996984
0.99298
0.98761
0.983948
0.738632
0.711775
0.716869
0.704658
0.641568
0.597652
0.543454
0.512278
0.50259
0.501269
0.505156
0.513137
0.524097
0.543445
0.585663
0.71091
0.893445
0.951636
0.965646
0.969932
0.971894
0.973542
0.974551
0.974766
0.974384
0.973377
0.971967
0.97055
0.96955
0.969022
0.968667
0.967996
0.965928
0.959887
0.95109
0.942877
0.936334
0.931782
0.928933
0.927233
0.926422
0.926148
0.92653
0.927449
0.92912
0.931937
0.936029
0.941568
0.950033
0.961344
0.969442
0.973416
0.974719
0.974812
0.973703
0.96928
0.958304
0.949666
0.944338
0.941007
0.938772
0.938725
0.945861
0.965162
0.98068
0.990308
0.995723
0.998323
0.999231
0.99944
0.999044
0.995632
0.978112
0.915281
0.857879
0.837167
0.835706
0.843579
0.874008
0.901155
0.908344
0.904572
0.888347
0.856516
0.819635
0.803271
0.796046
0.793237
0.791629
0.790678
0.789705
0.787528
0.782765
0.772077
0.758102
0.733322
0.714519
0.685506
0.674503
0.667344
0.672668
0.687275
0.712771
0.737666
0.754776
0.763653
0.765069
0.763743
0.759432
0.752538
0.74625
0.74859
0.758065
0.783046
0.835653
0.878907
0.904189
0.919147
0.927579
0.93122
0.932039
0.931838
0.930665
0.930153
0.930732
0.933961
0.945258
0.968308
0.984045
0.992071
0.99508
0.995604
0.995034
0.993827
0.993374
0.993335
0.993394
0.993384
0.993196
0.992292
0.990003
0.98831
0.987384
0.986711
0.985751
0.984646
0.983941
0.983812
0.984003
0.984167
0.983632
0.978494
0.948226
0.864435
0.815045
0.800832
0.80086
0.807277
0.815289
0.820917
0.828075
0.842816
0.862038
0.875506
0.885665
0.897359
0.916075
0.940147
0.962867
0.979742
0.990179
0.995703
0.99818
0.999025
0.999155
0.999078
0.998601
0.996584
0.991903
0.987956
0.791307
0.731043
0.72282
0.727571
0.69349
0.660615
0.609874
0.531191
0.50532
0.501029
0.501887
0.508581
0.523096
0.546804
0.602226
0.754288
0.909613
0.957276
0.969093
0.972441
0.974011
0.97499
0.975485
0.975455
0.974874
0.973827
0.972379
0.970872
0.969817
0.969046
0.968129
0.966391
0.96093
0.952129
0.943176
0.93576
0.930758
0.927412
0.92555
0.924598
0.924179
0.92406
0.924368
0.925095
0.926269
0.928366
0.931823
0.936357
0.943355
0.953313
0.963493
0.970904
0.974235
0.974811
0.974194
0.970399
0.957405
0.946343
0.941478
0.938315
0.936183
0.935502
0.939627
0.955312
0.973285
0.985216
0.992367
0.996373
0.998462
0.999395
0.99971
0.999734
0.999249
0.995384
0.971039
0.898318
0.854443
0.839279
0.839535
0.849618
0.880331
0.900161
0.907799
0.904833
0.891811
0.865126
0.830624
0.809943
0.79803
0.79295
0.789915
0.788239
0.786612
0.784692
0.782581
0.777421
0.774375
0.768494
0.765365
0.76556
0.766225
0.767408
0.769189
0.769765
0.769425
0.768216
0.76601
0.760249
0.756836
0.753102
0.756605
0.768013
0.794453
0.849929
0.887527
0.905738
0.917345
0.925504
0.930251
0.93203
0.932174
0.93144
0.930497
0.930789
0.932976
0.940874
0.962592
0.981872
0.992052
0.996046
0.996982
0.996677
0.995165
0.993854
0.993473
0.99346
0.993488
0.993435
0.992964
0.991154
0.989276
0.987951
0.987184
0.986748
0.986032
0.984751
0.983721
0.983479
0.983679
0.984059
0.983805
0.980418
0.958676
0.880522
0.821766
0.80263
0.801196
0.805827
0.813728
0.819882
0.824841
0.8305
0.842636
0.863702
0.87992
0.897127
0.919895
0.944384
0.965887
0.981503
0.991068
0.996124
0.998439
0.999311
0.999518
0.999507
0.999304
0.998338
0.995155
0.991238
0.823722
0.784376
0.729089
0.736657
0.739837
0.707817
0.689809
0.625603
0.531119
0.508559
0.505288
0.50967
0.525919
0.558592
0.63723
0.799178
0.923517
0.960734
0.971966
0.974943
0.975718
0.976147
0.976229
0.975917
0.975391
0.97456
0.972947
0.971542
0.970383
0.969253
0.967943
0.964937
0.958509
0.950123
0.942134
0.935477
0.930779
0.927471
0.925583
0.924415
0.923732
0.923585
0.923756
0.924397
0.925453
0.927147
0.930121
0.934394
0.940538
0.949955
0.960666
0.969111
0.973618
0.974797
0.974504
0.971417
0.957882
0.943459
0.936656
0.934072
0.933561
0.934343
0.938411
0.95259
0.970959
0.983524
0.991172
0.995503
0.99784
0.999015
0.999576
0.999824
0.999896
0.999855
0.999182
0.992558
0.961371
0.891024
0.85492
0.842837
0.843696
0.853201
0.880798
0.899078
0.907264
0.90584
0.899297
0.881205
0.856169
0.825298
0.806722
0.796464
0.791506
0.788096
0.785837
0.782795
0.780552
0.778947
0.777801
0.777183
0.776526
0.775347
0.774019
0.771669
0.769852
0.7656
0.762602
0.759189
0.760387
0.767074
0.783664
0.816704
0.871832
0.897482
0.908224
0.914702
0.921958
0.927944
0.931228
0.932204
0.932086
0.931254
0.931381
0.932905
0.939085
0.957221
0.979129
0.991419
0.996433
0.99794
0.997969
0.997081
0.994875
0.993774
0.993519
0.993543
0.993577
0.993492
0.992832
0.990707
0.98909
0.987924
0.987256
0.986948
0.986528
0.98518
0.983591
0.983154
0.983325
0.983932
0.983852
0.981542
0.965536
0.896107
0.829344
0.805125
0.801855
0.804656
0.812767
0.819747
0.82507
0.830344
0.835634
0.844827
0.865274
0.890136
0.916905
0.943575
0.965904
0.98163
0.991135
0.996149
0.99847
0.999395
0.999671
0.999696
0.999614
0.999133
0.997263
0.993769
0.828008
0.81564
0.765343
0.733883
0.758593
0.750456
0.733577
0.722051
0.645814
0.548078
0.523996
0.520647
0.537699
0.597958
0.692912
0.829331
0.92299
0.959817
0.971895
0.975825
0.977154
0.977337
0.977285
0.976761
0.975887
0.975227
0.974117
0.972419
0.971099
0.969827
0.968362
0.965423
0.95935
0.951362
0.943623
0.937018
0.932179
0.928725
0.92664
0.925282
0.924435
0.924368
0.924533
0.92503
0.926173
0.927332
0.929886
0.934231
0.940126
0.949156
0.959835
0.968576
0.973443
0.975012
0.974879
0.972155
0.959864
0.944737
0.936695
0.934108
0.934196
0.935951
0.941991
0.956674
0.973131
0.984499
0.991411
0.995449
0.997714
0.998915
0.999505
0.99978
0.999907
0.999957
0.999955
0.999712
0.997108
0.985576
0.945051
0.883185
0.854759
0.845387
0.846407
0.855209
0.880344
0.89802
0.907494
0.908428
0.906027
0.897885
0.879508
0.85328
0.826859
0.810138
0.799211
0.792255
0.786825
0.783712
0.781054
0.77868
0.776046
0.77335
0.770788
0.768643
0.767267
0.765615
0.766754
0.771916
0.784334
0.811827
0.857199
0.891817
0.905837
0.911303
0.913598
0.916559
0.923179
0.928847
0.931594
0.932223
0.932071
0.932318
0.933536
0.938364
0.953621
0.977798
0.990858
0.996439
0.998441
0.998797
0.99846
0.996677
0.99447
0.993637
0.993527
0.993623
0.993664
0.993541
0.992733
0.990449
0.988997
0.988221
0.987803
0.987553
0.987141
0.985644
0.983465
0.982854
0.983032
0.98382
0.983852
0.982198
0.97005
0.911067
0.838153
0.808717
0.803274
0.805059
0.81254
0.820736
0.827432
0.832615
0.837416
0.842418
0.851285
0.873421
0.907713
0.939195
0.963948
0.980739
0.990703
0.995942
0.998392
0.999396
0.999731
0.999791
0.999757
0.999501
0.998425
0.99558
0.811321
0.813829
0.815898
0.748933
0.743339
0.771684
0.765578
0.759584
0.7543
0.678112
0.587104
0.558323
0.563737
0.624403
0.718585
0.829338
0.91808
0.956386
0.970728
0.975614
0.977371
0.978128
0.978112
0.977851
0.976899
0.975799
0.975001
0.973921
0.972474
0.970952
0.969377
0.966724
0.961471
0.954412
0.947262
0.940889
0.935721
0.931785
0.929371
0.927753
0.926583
0.926504
0.926708
0.927285
0.928552
0.930177
0.933709
0.939184
0.945717
0.954281
0.963679
0.970897
0.974693
0.975574
0.975178
0.972127
0.959866
0.94636
0.939844
0.938804
0.940136
0.94542
0.958996
0.977365
0.98857
0.994117
0.996632
0.997859
0.998623
0.999175
0.999562
0.999791
0.999904
0.99996
0.999982
0.999981
0.999847
0.998738
0.993207
0.97545
0.923053
0.873375
0.852886
0.846127
0.847429
0.855875
0.879775
0.899005
0.907195
0.912489
0.912031
0.908577
0.89969
0.883236
0.861592
0.837449
0.819474
0.807297
0.799361
0.792165
0.78802
0.784344
0.782324
0.782798
0.78469
0.789636
0.799713
0.82194
0.856664
0.893232
0.908986
0.91352
0.912974
0.912923
0.913648