/*--------------------------------*- C++ -*----------------------------------*\
  =========                 |
  \\      /  F ield         | OpenFOAM: The Open Source CFD Toolbox
   \\    /   O peration     | Website:  https://openfoam.org
    \\  /    A nd           | Version:  9
     \\/     M anipulation  |
\*---------------------------------------------------------------------------*/
FoamFile
{
    format      ascii;
    class       volScalarField;
    location    "0.046";
    object      s;
}
// * * * * * * * * * * * * * * * * * * * * * * * * * * * * * * * * * * * * * //

dimensions      [0 0 0 0 0 0 0];

internalField   nonuniform List<scalar> 
12225
(
1
1
1
1
1
1
1
1
1
1
1
1
1
1
1
1
1
0.999992
1
1
1
1
1
1
1
1
1
1
1
1
1
1
1
1
1
1
1
1
1
1
1
1
1
1
1
1
1
1
1
1
1
1
1
1
1
1
1
1
1
1
1
1
1
1
1
1
1
1
1
1
1
1
1
1
1
1
1
1
1
1
1
1
1
1
1
1
1
1
1
1
1
1
1
1
1
1
1
1
1
1
1
1
1
1
1
1
1
1
1
1
1
1
1
1
1
1
1
1
1
1
1
1
1
1
1
1
1
1
1
1
1
1
1
1
1
1
1
1
1
1
1
1
1
1
1
1
1
1
1
1
1
1
1
1
1
1
1
1
1
1
1
1
1
1
1
1
1
1
1
1
1
1
1
1
1
1
1
1
1
1
1
1
1
1
1
1
1
1
1
1
1
1
1
1
1
1
1
1
1
1
1
1
1
1
1
1
1
1
1
1
1
1
1
1
1
1
1
1
1
1
1
1
1
1
1
1
1
1
1
1
1
1
1
1
1
1
1
1
1
1
1
1
1
1
1
1
1
1
1
1
1
1
1
1
1
1
1
1
1
1
1
1
1
1
1
1
1
1
1
1
1
1
1
1
1
1
1
1
1
1
1
1
1
1
1
1
1
1
1
1
1
1
1
1
1
1
1
1
1
1
1
1
1
1
1
1
1
1
1
1
1
1
1
1
1
1
1
1
1
1
1
1
1
1
1
1
1
1
1
1
1
1
1
1
1
1
1
1
1
1
1
1
1
1
1
1
1
1
1
1
1
1
1
1
1
1
1
1
1
1
1
1
1
1
1
1
1
1
1
1
1
1
1
1
1
1
1
1
1
1
1
1
1
1
1
1
1
1
1
1
1
1
1
1
1
1
1
1
1
1
1
1
1
1
1
1
1
1
1
1
1
1
1
1
1
1
1
1
1
1
1
1
1
1
1
1
1
1
1
1
1
1
1
1
1
1
1
1
1
1
1
1
1
1
1
1
1
1
1
1
1
1
1
1
1
1
1
1
1
1
1
1
1
1
1
1
1
1
1
1
1
1
1
1
1
1
1
1
1
1
1
1
1
1
1
1
1
1
1
1
1
1
1
1
1
1
1
1
1
1
1
1
1
1
1
1
1
1
1
1
1
1
1
1
1
1
1
1
1
1
1
1
1
1
1
1
1
1
1
1
1
1
1
1
1
1
1
1
1
1
0.665005
0.706387
0.711621
0.711671
0.708881
0.705654
0.716985
0.721102
0.72599
0.730184
0.733444
0.734686
0.735824
0.737162
0.738723
0.740088
0.741578
0.743264
0.745135
0.747192
0.749294
0.751809
0.754166
0.756987
0.759738
0.762687
0.765677
0.768267
0.77055
0.772465
0.773848
0.774568
0.774691
0.773798
0.750351
0.614672
0.551214
0.544181
0.542279
0.542231
0.544298
0.546684
0.551958
0.567606
0.65353
0.673364
0.67206
0.666454
0.650897
0.643564
0.63328
0.624672
0.625194
0.634247
0.686495
0.839614
0.836129
0.806486
0.802976
0.801882
0.801592
0.801565
0.801638
0.80192
0.802532
0.803525
0.804817
0.806224
0.807643
0.809171
0.811339
0.813705
0.816519
0.820275
0.825216
0.831041
0.837457
0.844386
0.851218
0.857242
0.863509
0.870439
0.876597
0.879785
0.882076
0.885504
0.888381
0.890686
0.892169
0.893686
0.895924
0.896894
0.897576
0.898691
0.89984
0.900598
0.901279
0.901767
0.9023
0.902734
0.903076
0.903767
0.904428
0.904969
0.905541
0.906052
0.906989
0.907817
0.908414
0.909361
0.910127
0.910925
0.911706
0.912474
0.913229
0.913989
0.914778
0.915623
0.916476
0.917345
0.918239
0.919167
0.920134
0.921155
0.922246
0.923438
0.924757
0.926234
0.927872
0.929605
0.931314
0.932772
0.933647
0.934077
0.934097
0.933409
0.930406
0.924972
0.919496
0.913919
0.907756
0.90128
0.894884
0.888208
0.881173
0.874326
0.868361
0.863655
0.860299
0.858239
0.85721
0.856644
0.855818
0.853807
0.847857
0.841657
0.836208
0.826827
0.806546
0.754784
0.633089
0.486532
0.349191
0.240136
0.163833
0.114353
0.0829655
0.0624887
0.0482006
0.0374333
0.0287416
0.0215436
0.0156799
0.0111603
0.00770627
0.00515991
0.00332764
0.00199927
0.00129399
0.000323466
0.647124
0.688582
0.685314
0.631742
0.58487
0.610181
0.653016
0.672728
0.678804
0.678001
0.674598
0.669565
0.664599
0.659814
0.654953
0.650249
0.646144
0.644657
0.644708
0.645362
0.647179
0.651903
0.657483
0.663532
0.671859
0.680198
0.691304
0.70312
0.717787
0.731947
0.745149
0.755995
0.765334
0.770019
0.767146
0.746703
0.670547
0.575157
0.519691
0.485807
0.467679
0.462452
0.472683
0.501625
0.633594
0.757481
0.759161
0.735092
0.686623
0.651328
0.635987
0.640694
0.743003
0.848474
0.834074
0.836677
0.802459
0.786738
0.778867
0.768708
0.761824
0.754675
0.750199
0.745695
0.741172
0.73658
0.732353
0.730148
0.728107
0.726943
0.726393
0.726036
0.725885
0.725815
0.725789
0.726012
0.727202
0.729501
0.732846
0.737779
0.744302
0.753785
0.764825
0.777038
0.789493
0.801573
0.814046
0.824068
0.830232
0.837624
0.845641
0.850704
0.854288
0.858791
0.861764
0.863679
0.866266
0.86753
0.869601
0.87132
0.872147
0.873479
0.874999
0.877033
0.879564
0.881143
0.884165
0.886645
0.889835
0.892799
0.895774
0.898527
0.901007
0.903158
0.90501
0.906625
0.908049
0.909297
0.910417
0.911436
0.912369
0.913202
0.9139
0.91441
0.914674
0.914682
0.91438
0.913844
0.91387
0.914704
0.916415
0.919476
0.924958
0.932784
0.942307
0.952334
0.960656
0.965819
0.968416
0.96913
0.96885
0.966049
0.955975
0.944944
0.936352
0.928738
0.919191
0.906155
0.892083
0.88107
0.874827
0.871973
0.869921
0.866888
0.863079
0.860013
0.858695
0.858783
0.859135
0.858128
0.853173
0.84074
0.817777
0.774761
0.717222
0.661334
0.620666
0.598828
0.589247
0.581203
0.564452
0.519713
0.426485
0.335921
0.253591
0.186595
0.129211
0.0851359
0.0545538
0.0268951
0.603363
0.62538
0.596782
0.569188
0.582811
0.6236
0.657056
0.669901
0.668278
0.660868
0.644595
0.622337
0.601632
0.58021
0.5642
0.549928
0.537191
0.527584
0.519405
0.511743
0.506389
0.50475
0.505008
0.506826
0.512592
0.520959
0.533243
0.548343
0.572386
0.596489
0.632285
0.67777
0.71387
0.743766
0.758237
0.757356
0.747447
0.709308
0.593751
0.513119
0.470804
0.445392
0.452097
0.484777
0.593321
0.803152
0.802424
0.739578
0.672669
0.667517
0.756393
0.834142
0.85345
0.846047
0.822255
0.800892
0.786052
0.781238
0.777037
0.772395
0.77015
0.767104
0.764489
0.762314
0.757144
0.753186
0.752264
0.752174
0.752477
0.753404
0.754616
0.754884
0.753094
0.749684
0.744826
0.73798
0.73142
0.724709
0.718891
0.71502
0.71318
0.712607
0.712778
0.715583
0.719606
0.723575
0.731172
0.739347
0.748237
0.75674
0.76615
0.775273
0.786798
0.794724
0.801072
0.8074
0.810592
0.812793
0.814993
0.816204
0.816908
0.817358
0.817743
0.81991
0.822528
0.825892
0.8304
0.835834
0.842884
0.850896
0.859873
0.869381
0.878884
0.887796
0.895569
0.901859
0.906812
0.911057
0.914801
0.918173
0.921316
0.924345
0.927321
0.930227
0.932945
0.935285
0.937022
0.937854
0.93686
0.932213
0.924976
0.916318
0.907843
0.902833
0.902071
0.90454
0.916695
0.936377
0.953466
0.966219
0.973455
0.976301
0.97651
0.974591
0.965148
0.955126
0.950384
0.946136
0.93688
0.921584
0.906266
0.8947
0.888174
0.88553
0.883989
0.880709
0.874233
0.869509
0.86758
0.867228
0.867348
0.868508
0.874611
0.8848
0.88991
0.891697
0.892328
0.892778
0.89311
0.8931
0.891879
0.886117
0.875026
0.862958
0.838775
0.78518
0.649417
0.475954
0.333658
0.191176
0.465404
0.468645
0.518836
0.626462
0.679476
0.687025
0.683609
0.673207
0.650298
0.617525
0.59539
0.575366
0.559349
0.542433
0.527738
0.512015
0.496827
0.483219
0.470441
0.457243
0.444544
0.434855
0.427837
0.423329
0.423332
0.424559
0.42824
0.434896
0.450712
0.463851
0.48795
0.518805
0.560199
0.641475
0.704805
0.739944
0.744609
0.740318
0.717952
0.653394
0.543746
0.484796
0.477829
0.496009
0.590591
0.823539
0.814876
0.769076
0.782115
0.826191
0.852443
0.855035
0.844188
0.81502
0.79777
0.790363
0.787094
0.786165
0.787372
0.788115
0.788484
0.788258
0.788273
0.789434
0.793358
0.801367
0.815368
0.83443
0.854301
0.87131
0.884132
0.890862
0.89406
0.894854
0.889639
0.875699
0.860292
0.836688
0.809535
0.785056
0.760085
0.744264
0.731575
0.723439
0.719139
0.717329
0.716903
0.718907
0.722503
0.72544
0.729252
0.731957
0.736454
0.741012
0.746079
0.750499
0.754798
0.758152
0.761199
0.763547
0.76553
0.767464
0.768825
0.770632
0.77222
0.774002
0.775813
0.777745
0.780026
0.782764
0.786199
0.79056
0.796072
0.802854
0.810888
0.819941
0.829364
0.838269
0.846563
0.854464
0.862412
0.870938
0.880538
0.891496
0.903707
0.916615
0.929281
0.940481
0.94951
0.956709
0.96156
0.963527
0.962851
0.953694
0.929261
0.909268
0.899117
0.897538
0.900902
0.918059
0.942529
0.961495
0.973092
0.977408
0.977689
0.975387
0.968437
0.96417
0.958129
0.945869
0.929854
0.914671
0.90321
0.895977
0.892192
0.890384
0.888413
0.883789
0.876677
0.871163
0.868523
0.868122
0.86866
0.871174
0.879179
0.891757
0.90612
0.921999
0.93778
0.951158
0.960073
0.964185
0.964977
0.964693
0.962818
0.956857
0.940399
0.898297
0.796193
0.543939
0.450206
0.641955
0.702138
0.705619
0.701608
0.690049
0.66364
0.6413
0.620707
0.601996
0.585974
0.568826
0.554253
0.536759
0.521107
0.503405
0.486309
0.468478
0.450736
0.432229
0.414795
0.398875
0.386042
0.374509
0.367504
0.366912
0.369014
0.377143
0.386266
0.403586
0.420003
0.435596
0.46412
0.494258
0.554541
0.656487
0.713609
0.732316
0.73055
0.719138
0.688487
0.614098
0.564101
0.571311
0.629946
0.832509
0.849843
0.844033
0.855266
0.858567
0.852939
0.841337
0.812273
0.798979
0.793923
0.792232
0.792775
0.794302
0.794538
0.794488
0.795459
0.798879
0.80705
0.821902
0.84643
0.880154
0.910023
0.927384
0.936562
0.943166
0.947764
0.952936
0.95907
0.966513
0.970918
0.972146
0.971713
0.966434
0.957101
0.944246
0.923763
0.896382
0.865017
0.833228
0.803761
0.778331
0.759201
0.747602
0.740095
0.734941
0.73227
0.731272
0.731791
0.733319
0.736081
0.739203
0.742858
0.746042
0.749526
0.752931
0.756099
0.759304
0.762122
0.764734
0.767087
0.76895
0.770572
0.771974
0.773176
0.774237
0.775251
0.776284
0.777424
0.77871
0.780175
0.782018
0.784377
0.787202
0.790325
0.793631
0.797162
0.801228
0.806403
0.813453
0.823187
0.836179
0.852538
0.872051
0.89405
0.916738
0.93873
0.957738
0.970536
0.977003
0.978661
0.977002
0.96272
0.927688
0.908543
0.903847
0.905459
0.918841
0.946339
0.965761
0.975397
0.978344
0.978566
0.977603
0.97353
0.962603
0.946856
0.930365
0.916075
0.905548
0.898894
0.895419
0.893731
0.891791
0.887141
0.878971
0.87233
0.867723
0.865392
0.86498
0.865494
0.868684
0.88079
0.904073
0.924931
0.942531
0.957279
0.969409
0.978165
0.983033
0.984488
0.984406
0.982945
0.976861
0.957146
0.874959
0.74135
0.729127
0.721069
0.709222
0.692662
0.67422
0.656025
0.639737
0.628411
0.62132
0.612093
0.597248
0.581279
0.557527
0.536293
0.51042
0.488879
0.467574
0.446865
0.425759
0.406158
0.388123
0.371177
0.355754
0.341467
0.328278
0.319303
0.317423
0.32055
0.333557
0.357419
0.388756
0.417495
0.439361
0.465578
0.505807
0.606112
0.687114
0.718485
0.719304
0.715231
0.699131
0.654156
0.626775
0.647707
0.830921
0.865591
0.865282
0.865235
0.856205
0.839882
0.812025
0.801095
0.796926
0.795724
0.796583
0.79719
0.797217
0.796867
0.797977
0.803464
0.81761
0.844784
0.885967
0.919402
0.932615
0.939456
0.942878
0.944732
0.945643
0.946097
0.949382
0.956787
0.968138
0.979156
0.984443
0.987203
0.988591
0.98905
0.989078
0.987522
0.983803
0.978405
0.969714
0.957068
0.939733
0.915876
0.886286
0.856115
0.826962
0.800513
0.779784
0.765988
0.755865
0.749341
0.746177
0.745695
0.746669
0.74886
0.751752
0.754897
0.758245
0.761559
0.764718
0.767867
0.770903
0.773565
0.77574
0.777268
0.778183
0.778698
0.778937
0.779115
0.779421
0.77997
0.780809
0.782028
0.783751
0.785987
0.78859
0.791355
0.794312
0.797769
0.802326
0.808832
0.818099
0.830259
0.844817
0.861001
0.877838
0.895084
0.914006
0.936423
0.95936
0.976233
0.984526
0.986692
0.985668
0.975356
0.943525
0.925176
0.921611
0.923858
0.939419
0.961783
0.974079
0.979135
0.980256
0.979821
0.976262
0.962663
0.943027
0.926463
0.913968
0.905673
0.900846
0.898396
0.897002
0.895082
0.890686
0.880867
0.872539
0.867444
0.865093
0.864595
0.865
0.867979
0.880427
0.90502
0.927038
0.945717
0.960993
0.973066
0.981998
0.987745
0.990371
0.990812
0.990339
0.987352
0.966854
0.708797
0.709922
0.725259
0.72949
0.720803
0.709356
0.709035
0.718334
0.729582
0.731903
0.722834
0.70458
0.682984
0.651494
0.622506
0.586521
0.556164
0.523981
0.493441
0.463871
0.436094
0.409593
0.384216
0.361813
0.341839
0.323685
0.30786
0.295093
0.288154
0.288171
0.293504
0.310271
0.347699
0.39048
0.421922
0.447174
0.48706
0.579326
0.671857
0.707538
0.712992
0.710396
0.697393
0.65673
0.662251
0.827396
0.872252
0.871154
0.862957
0.842367
0.817091
0.804326
0.79892
0.797423
0.797607
0.799141
0.799544
0.799719
0.800566
0.805242
0.818054
0.843175
0.885788
0.921827
0.931496
0.933565
0.933662
0.927873
0.91234
0.901877
0.899476
0.90082
0.915303
0.942992
0.970085
0.982813
0.988226
0.990915
0.992884
0.994608
0.995671
0.995995
0.996029
0.995632
0.994517
0.992788
0.989882
0.985218
0.978345
0.967943
0.952624
0.930457
0.900641
0.869208
0.838338
0.81145
0.79219
0.780318
0.772666
0.768761
0.767621
0.768236
0.770281
0.77361
0.777646
0.781613
0.784902
0.787403
0.789093
0.790041
0.790512
0.790553
0.790431
0.790275
0.790324
0.79082
0.791625
0.792447
0.794181
0.797564
0.801655
0.805872
0.809649
0.812884
0.816462
0.822299
0.831647
0.844356
0.859236
0.874763
0.889855
0.904069
0.917798
0.932718
0.951255
0.970689
0.984161
0.989996
0.990676
0.988366
0.974005
0.950719
0.942814
0.94275
0.94791
0.964569
0.976025
0.980505
0.981128
0.979828
0.971993
0.951037
0.932204
0.918675
0.910159
0.905414
0.902973
0.901703
0.900647
0.898741
0.894231
0.883888
0.874426
0.868772
0.866759
0.866664
0.867894
0.874278
0.895635
0.920883
0.941031
0.956931
0.969497
0.97931
0.986522
0.991214
0.993512
0.994032
0.993782
0.989479
0.716627
0.779476
0.790224
0.76952
0.77896
0.843114
0.879408
0.88791
0.890341
0.88898
0.876947
0.865089
0.846087
0.820885
0.794646
0.760835
0.723497
0.680775
0.640132
0.597237
0.554009
0.511358
0.469115
0.429098
0.390438
0.354192
0.323535
0.299336
0.283623
0.275854
0.274505
0.277646
0.290179
0.324855
0.369928
0.403324
0.428714
0.476196
0.577708
0.670171
0.703186
0.708409
0.70482
0.675607
0.673978
0.819982
0.875868
0.874122
0.862848
0.834528
0.806812
0.799978
0.797963
0.797235
0.797671
0.799376
0.799842
0.800106
0.8016
0.807607
0.822551
0.854802
0.905533
0.925641
0.929023
0.927028
0.911308
0.877228
0.858126
0.853311
0.852882
0.859617
0.881541
0.917596
0.958428
0.978764
0.987075
0.991233
0.993682
0.995721
0.997136
0.997863
0.998257
0.99859
0.998756
0.99882
0.99882
0.998526
0.998034
0.997116
0.995553
0.992928
0.988594
0.981498
0.970232
0.953027
0.927857
0.897262
0.867475
0.842101
0.824269
0.813677
0.80714
0.803901
0.80307
0.803323
0.803543
0.803127
0.802312
0.801181
0.800209
0.799508
0.799135
0.799069
0.799322
0.800391
0.802823
0.805692
0.808968
0.814335
0.821894
0.830639
0.839089
0.845855
0.850298
0.853953
0.859405
0.868103
0.880002
0.892656
0.903668
0.9128
0.921407
0.930683
0.941468
0.954735
0.970388
0.983798
0.991077
0.992859
0.992135
0.986733
0.97066
0.96201
0.961
0.963051
0.972098
0.97923
0.981058
0.980492
0.975137
0.955413
0.934199
0.920214
0.912285
0.908447
0.906721
0.905847
0.905134
0.903939
0.901248
0.893341
0.8827
0.875541
0.872291
0.871676
0.872278
0.876728
0.894616
0.921171
0.942249
0.958353
0.97052
0.979682
0.986475
0.991302
0.994385
0.99587
0.996184
0.995361
0.76267
0.821565
0.822055
0.864035
0.931584
0.947875
0.953287
0.956006
0.957498
0.958089
0.95786
0.95673
0.953323
0.948474
0.940652
0.928221
0.909272
0.880133
0.836714
0.784481
0.725269
0.668933
0.611368
0.555436
0.500037
0.445057
0.393138
0.346077
0.309438
0.285645
0.274234
0.271635
0.274298
0.28751
0.324861
0.365483
0.392371
0.424571
0.499862
0.602507
0.674577
0.701347
0.703352
0.684025
0.680045
0.80684
0.875446
0.876316
0.865265
0.837223
0.806225
0.795686
0.793894
0.795027
0.796343
0.798259
0.798812
0.799031
0.80069
0.806245
0.818959
0.84995
0.902511
0.922078
0.922779
0.909566
0.875278
0.846295
0.837802
0.835672
0.836115
0.84349
0.866861
0.90938
0.955912
0.977414
0.986224
0.99081
0.993958
0.996213
0.997419
0.998173
0.99863
0.998998
0.999246
0.999431
0.999567
0.99965
0.99969
0.999701
0.999643
0.999499
0.999208
0.998653
0.997618
0.995713
0.992291
0.986358
0.976518
0.961355
0.939271
0.912927
0.888084
0.867655
0.853709
0.843635
0.83584
0.829435
0.823739
0.818621
0.814391
0.811254
0.809123
0.807834
0.807248
0.807219
0.808134
0.811358
0.815185
0.821291
0.830852
0.842654
0.855514
0.868491
0.881137
0.892968
0.902773
0.912002
0.923523
0.936659
0.947143
0.951174
0.95109
0.950087
0.949942
0.953011
0.962414
0.97443
0.985523
0.992221
0.994314
0.994099
0.991298
0.981636
0.97537
0.974253
0.975428
0.979768
0.981572
0.981229
0.976972
0.958551
0.935655
0.921527
0.914468
0.911744
0.910877
0.910444
0.909848
0.908656
0.905678
0.896924
0.887407
0.881637
0.879316
0.878984
0.879539
0.883156
0.898541
0.926399
0.948744
0.964776
0.975683
0.983105
0.988395
0.992298
0.99506
0.996773
0.997549
0.997485
0.797056
0.861078
0.891945
0.951973
0.969661
0.974503
0.976597
0.97793
0.978867
0.979494
0.979953
0.9804
0.980679
0.980857
0.980601
0.979416
0.97643
0.970348
0.95905
0.939487
0.906733
0.85185
0.783033
0.708585
0.642182
0.576196
0.510778
0.445716
0.384978
0.335179
0.301572
0.284493
0.279532
0.283308
0.304265
0.337456
0.361531
0.388173
0.446931
0.556612
0.649385
0.693013
0.701713
0.687337
0.683024
0.787971
0.872621
0.877565
0.870354
0.845915
0.811395
0.796028
0.790754
0.78898
0.789667
0.791517
0.792718
0.793755
0.797194
0.802424
0.809946
0.835067
0.890307
0.91499
0.915891
0.904209
0.872812
0.841363
0.831891
0.829258
0.829001
0.835126
0.860502
0.911635
0.959999
0.977018
0.984691
0.989392
0.993737
0.996066
0.997173
0.998056
0.998542
0.998939
0.99919
0.999399
0.999552
0.999675
0.999768
0.999835
0.999879
0.999903
0.999916
0.999904
0.999858
0.999751
0.999524
0.999048
0.998057
0.996167
0.992645
0.986451
0.976307
0.960938
0.940192
0.918399
0.897993
0.880395
0.866628
0.855597
0.84703
0.840464
0.835425
0.831681
0.829173
0.827751
0.827096
0.827022
0.827792
0.831042
0.839773
0.851843
0.865492
0.879987
0.897525
0.916235
0.932791
0.946155
0.956928
0.966408
0.974659
0.980331
0.982277
0.982045
0.978982
0.971763
0.969219
0.970222
0.977812
0.988104
0.993717
0.995545
0.995477
0.993757
0.987726
0.983768
0.982925
0.983267
0.983745
0.983365
0.979797
0.963016
0.938789
0.924598
0.918518
0.916827
0.916604
0.916497
0.916059
0.914395
0.908442
0.897944
0.890145
0.885954
0.884598
0.884579
0.885649
0.891177
0.911118
0.937677
0.957985
0.972303
0.981747
0.987763
0.991652
0.994312
0.99622
0.997535
0.998362
0.998538
0.825578
0.905413
0.947661
0.976057
0.981287
0.982323
0.982566
0.982609
0.982503
0.982494
0.982387
0.982291
0.982866
0.984064
0.985561
0.987493
0.989099
0.989761
0.990022
0.987575
0.981203
0.967622
0.941757
0.893158
0.814742
0.728458
0.65498
0.584147
0.511071
0.43917
0.375252
0.331808
0.308647
0.302227
0.30999
0.32684
0.340766
0.361042
0.405371
0.511099
0.619371
0.682224
0.699199
0.689577
0.685158
0.766729
0.865687
0.877312
0.873195
0.857751
0.831929
0.803111
0.791913
0.787963
0.786124
0.785662
0.786104
0.788115
0.793372
0.796186
0.797782
0.810787
0.858705
0.907317
0.913373
0.907229
0.882859
0.853528
0.840024
0.831045
0.82452
0.827616
0.855506
0.916696
0.959948
0.973584
0.980222
0.986086
0.991666
0.993939
0.995334
0.99668
0.997306
0.99786
0.99822
0.99854
0.99884
0.999126
0.999388
0.999608
0.99977
0.999873
0.999929
0.999957
0.99997
0.999975
0.99997
0.999949
0.999897
0.999778
0.999514
0.998942
0.997731
0.995389
0.991334
0.985027
0.975672
0.961988
0.944011
0.925485
0.909138
0.895644
0.884562
0.875626
0.868767
0.864703
0.863266
0.863207
0.863693
0.865303
0.869845
0.880594
0.894397
0.910454
0.928294
0.948413
0.965754
0.976854
0.981897
0.984418
0.987576
0.991053
0.992959
0.993273
0.992992
0.991116
0.984485
0.980458
0.980239
0.982984
0.990723
0.995187
0.996596
0.996559
0.995364
0.991449
0.988919
0.98812
0.987765
0.986972
0.983895
0.970381
0.945816
0.931103
0.925401
0.92446
0.924775
0.925009
0.924487
0.921337
0.910899
0.899617
0.892399
0.889007
0.888164
0.888356
0.8903
0.899036
0.922956
0.946177
0.963977
0.976659
0.985102
0.990436
0.993732
0.995814
0.997213
0.99816
0.998844
0.999092
0.843781
0.934555
0.970384
0.981294
0.982226
0.981886
0.980155
0.977068
0.972569
0.967518
0.962938
0.960663
0.959983
0.96418
0.968754
0.97646
0.983306
0.989514
0.992921
0.994926
0.995569
0.99459
0.990381
0.979685
0.955935
0.905058
0.814757
0.725935
0.652498
0.581933
0.506015
0.431836
0.37314
0.337408
0.325766
0.328453
0.338327
0.354714
0.390094
0.479691
0.585739
0.661115
0.692912
0.689147
0.68575
0.737841
0.85335
0.875571
0.873417
0.863401
0.851526
0.82969
0.803585
0.79156
0.787063
0.785364
0.785089
0.78661
0.791868
0.794316
0.790853
0.790725
0.820723
0.89052
0.91188
0.912148
0.902537
0.885304
0.870295
0.846258
0.816475
0.814244
0.842116
0.91122
0.952892
0.96639
0.973396
0.980345
0.985427
0.98765
0.990156
0.991953
0.992721
0.993522
0.994061
0.99466
0.995394
0.996282
0.997239
0.998154
0.9989
0.99942
0.999725
0.99988
0.99995
0.999977
0.999988
0.999992
0.999992
0.999989
0.999977
0.999946
0.999874
0.999706
0.999308
0.998516
0.997299
0.995288
0.991647
0.985537
0.977672
0.969286
0.959559
0.947133
0.933669
0.922677
0.916791
0.915392
0.915654
0.917097
0.920712
0.929819
0.941821
0.956391
0.971502
0.98167
0.98813
0.992036
0.994238
0.995452
0.996332
0.997131
0.99761
0.997683
0.997608
0.997199
0.995325
0.98986
0.986849
0.986675
0.988449
0.993639
0.99662
0.997481
0.997413
0.996401
0.993664
0.992153
0.991497
0.990565
0.988089
0.97875
0.956725
0.942112
0.936628
0.93604
0.936913
0.937642
0.937019
0.932296
0.917455
0.904336
0.896595
0.893121
0.892319
0.892553
0.894721
0.904416
0.928597
0.950382
0.966929
0.978713
0.986638
0.991706
0.994825
0.996718
0.9979
0.998638
0.999168
0.999409
0.861641
0.953012
0.977191
0.981125
0.980748
0.975941
0.965098
0.946283
0.929516
0.918433
0.912807
0.910445
0.909914
0.911626
0.91558
0.925781
0.942786
0.963311
0.981359
0.991547
0.996102
0.997806
0.998318
0.997505
0.994005
0.983941
0.957471
0.888477
0.78283
0.703437
0.644993
0.585672
0.514132
0.426201
0.371961
0.348644
0.347208
0.357553
0.389634
0.473087
0.570791
0.647256
0.68564
0.687612
0.685695
0.714334
0.825718
0.869739
0.871275
0.864627
0.858584
0.851001
0.837635
0.815262
0.797811
0.79028
0.787606
0.788498
0.792839
0.794384
0.787721
0.775394
0.794729
0.862051
0.909524
0.916248
0.91437
0.906919
0.89367
0.855868
0.800305
0.792317
0.823825
0.896197
0.941483
0.957277
0.964886
0.970243
0.972998
0.975072
0.978824
0.980071
0.980514
0.980851
0.981012
0.981627
0.983072
0.985466
0.988521
0.991814
0.994812
0.997118
0.998596
0.999388
0.999759
0.999911
0.999968
0.999988
0.999995
0.999997
0.999998
0.999997
0.999995
0.999987
0.999968
0.999915
0.999827
0.999669
0.99934
0.998546
0.996862
0.995141
0.993489
0.990863
0.986274
0.980707
0.976504
0.974852
0.974767
0.975148
0.976319
0.979276
0.984101
0.988626
0.99217
0.994689
0.996405
0.997525
0.998199
0.998599
0.998901
0.99915
0.999272
0.999282
0.999255
0.999136
0.998685
0.996625
0.992563
0.990826
0.990851
0.992581
0.996077
0.997781
0.998172
0.998033
0.996919
0.99514
0.994287
0.993457
0.991605
0.985523
0.96872
0.956058
0.951353
0.950959
0.952062
0.953255
0.952915
0.949041
0.933287
0.915919
0.906155
0.901946
0.900948
0.901118
0.902887
0.910753
0.932281
0.952944
0.968685
0.979939
0.987539
0.992426
0.995446
0.997258
0.998345
0.99898
0.9994
0.999608
0.875578
0.961976
0.978225
0.979873
0.974731
0.956521
0.925029
0.909399
0.902024
0.898919
0.897798
0.897613
0.898309
0.897325
0.896457
0.895956
0.896925
0.906368
0.934553
0.968366
0.987811
0.995746
0.998558
0.99929
0.999453
0.998623
0.995245
0.983716
0.947659
0.844623
0.730617
0.676793
0.641537
0.597888
0.511166
0.427275
0.387066
0.381345
0.397953
0.466019
0.563865
0.641264
0.68203
0.686375
0.685038
0.700224
0.791932
0.857454
0.866221
0.863576
0.859422
0.859173
0.856266
0.849033
0.834904
0.816125
0.804782
0.801822
0.800362
0.796696
0.781673
0.767257
0.778024
0.832511
0.903391
0.917449
0.91905
0.915823
0.901135
0.844582
0.770833
0.768821
0.810028
0.870222
0.925291
0.945753
0.952767
0.954124
0.953845
0.954745
0.955992
0.955133
0.953063
0.950412
0.948362
0.947374
0.948847
0.953584
0.961087
0.970334
0.979655
0.987804
0.993672
0.997131
0.998839
0.999567
0.999849
0.99995
0.999984
0.999995
0.999998
0.999999
0.999999
0.999999
0.999999
0.999997
0.999993
0.999984
0.999963
0.999911
0.999736
0.999457
0.999234
0.998883
0.998063
0.996765
0.995618
0.995006
0.994866
0.994895
0.995041
0.995475
0.99645
0.997405
0.998157
0.9987
0.999085
0.999354
0.999523
0.999624
0.999704
0.999767
0.999792
0.999792
0.999781
0.999744
0.999623
0.999133
0.996992
0.994424
0.993624
0.993842
0.995588
0.997709
0.998549
0.998651
0.998393
0.997203
0.99623
0.995557
0.994261
0.990538
0.979288
0.969658
0.96599
0.965653
0.966445
0.96751
0.967383
0.964957
0.953602
0.937394
0.927314
0.922658
0.921336
0.921306
0.922001
0.925418
0.937898
0.956522
0.971309
0.981928
0.989001
0.993459
0.996169
0.997774
0.998717
0.999253
0.99958
0.999746
0.890784
0.966608
0.977568
0.975965
0.959197
0.926677
0.908842
0.903109
0.90238
0.905881
0.915955
0.920479
0.92177
0.917292
0.911641
0.900868
0.89262
0.890359
0.895886
0.915522
0.96093
0.986047
0.995642
0.998903
0.999701
0.99986
0.999763
0.998906
0.994866
0.978087
0.912544
0.777435
0.69935
0.672995
0.649881
0.593417
0.500858
0.447286
0.437626
0.46149
0.544231
0.629677
0.676482
0.684754
0.684219
0.691951
0.758803
0.842924
0.861813
0.86124
0.85903
0.859804
0.864687
0.863841
0.85982
0.849584
0.834688
0.822269
0.809516
0.799287
0.77666
0.763696
0.770227
0.813962
0.892522
0.916095
0.919364
0.917006
0.899004
0.801346
0.737184
0.756627
0.791344
0.835594
0.896498
0.927962
0.935806
0.936023
0.931064
0.925157
0.918614
0.911729
0.903401
0.894832
0.887285
0.883012
0.881294
0.885808
0.897261
0.916375
0.937238
0.958486
0.976395
0.988566
0.995139
0.998124
0.999331
0.999777
0.999929
0.999978
0.999994
0.999998
0.999999
1
1
1
1
0.999999
0.999998
0.999996
0.999986
0.999958
0.999931
0.999891
0.999803
0.999593
0.999364
0.999203
0.99913
0.999116
0.999122
0.999158
0.999282
0.99947
0.999618
0.999723
0.999799
0.999855
0.999892
0.999915
0.999932
0.999944
0.999947
0.999946
0.999941
0.999929
0.999895
0.999769
0.9992
0.997282
0.995927
0.995669
0.996051
0.997593
0.998685
0.998995
0.99896
0.998467
0.997518
0.996958
0.996147
0.994135
0.98774
0.981086
0.978299
0.977923
0.978248
0.978787
0.978711
0.977295
0.970433
0.959523
0.952156
0.948042
0.946248
0.945797
0.94588
0.946809
0.950985
0.963586
0.976461
0.985577
0.991472
0.995051
0.997158
0.998383
0.999094
0.999494
0.999727
0.999845
0.892083
0.966342
0.975916
0.969351
0.945018
0.915009
0.904292
0.90282
0.908686
0.926352
0.934421
0.936336
0.935228
0.932586
0.930428
0.927418
0.916406
0.897538
0.890525
0.897539
0.92032
0.966636
0.988659
0.996789
0.999257
0.999855
0.999966
0.999975
0.999845
0.998835
0.992385
0.958188
0.837066
0.727095
0.695727
0.686041
0.662069
0.570282
0.499406
0.490256
0.514045
0.591733
0.659045
0.679647
0.681801
0.686187
0.718797
0.816203
0.854123
0.858345
0.857684
0.858883
0.865052
0.869913
0.86939
0.865089
0.852436
0.832776
0.814045
0.797454
0.771226
0.761757
0.767885
0.807385
0.879208
0.911527
0.917473
0.913819
0.879281
0.761492
0.720191
0.737847
0.762146
0.791548
0.843694
0.893817
0.914898
0.919012
0.91236
0.898657
0.886661
0.877545
0.870345
0.863772
0.85789
0.852201
0.846231
0.839691
0.834502
0.835551
0.854328
0.889121
0.928923
0.961988
0.982723
0.992981
0.99739
0.999098
0.999707
0.99991
0.999973
0.999992
0.999998
0.999999
1
1
1
1
1
1
0.999999
0.999998
0.999996
0.999993
0.999986
0.999968
0.999938
0.999911
0.999891
0.999882
0.99988
0.999882
0.99989
0.999915
0.999937
0.999953
0.999965
0.999974
0.99998
0.999984
0.999987
0.999989
0.999988
0.999988
0.999986
0.999982
0.999973
0.999941
0.9998
0.999135
0.997795
0.997209
0.997185
0.997709
0.998745
0.999193
0.99925
0.999101
0.998412
0.99784
0.99737
0.996406
0.993472
0.989557
0.987563
0.987123
0.98718
0.987273
0.987124
0.98596
0.98157
0.976412
0.972553
0.969616
0.967496
0.966307
0.965993
0.966167
0.967577
0.973525
0.983037
0.989865
0.994168
0.996692
0.998132
0.998952
0.999422
0.999686
0.999836
0.999912
0.89127
0.96254
0.974583
0.969818
0.947648
0.916881
0.904725
0.90171
0.90515
0.920491
0.931596
0.935353
0.934258
0.930438
0.929239
0.930589
0.929332
0.920762
0.899132
0.895773
0.907849
0.948997
0.98146
0.994441
0.998578
0.999678
0.999934
0.999989
0.999996
0.999983
0.999792
0.997882
0.983005
0.893299
0.755807
0.712583
0.709167
0.704099
0.654103
0.554368
0.538926
0.558559
0.62397
0.665209
0.675074
0.679087
0.695887
0.77052
0.837783
0.853518
0.855108
0.856491
0.863678
0.870754
0.872066
0.869946
0.859568
0.836104
0.814137
0.786293
0.761809
0.757707
0.767268
0.806533
0.866467
0.903035
0.910397
0.90148
0.833375
0.722382
0.689838
0.700481
0.716445
0.735372
0.779976
0.823749
0.86629
0.893945
0.897216
0.889182
0.878571
0.870146
0.864152
0.858956
0.853871
0.848131
0.841023
0.830754
0.818169
0.807053
0.801858
0.807927
0.839836
0.900358
0.950389
0.978435
0.991519
0.996929
0.998963
0.99967
0.9999
0.999971
0.999992
0.999998
0.999999
1
1
1
1
1
1
1
1
1
0.999999
0.999999
0.999997
0.999994
0.999991
0.999989
0.999988
0.999988
0.999989
0.99999
0.999992
0.999994
0.999995
0.999996
0.999997
0.999998
0.999998
0.999998
0.999998
0.999997
0.999997
0.999995
0.999993
0.999984
0.999948
0.999779
0.999084
0.998369
0.998178
0.998253
0.998802
0.999308
0.999435
0.999395
0.999033
0.998418
0.998086
0.997667
0.996585
0.994683
0.993489
0.993105
0.993049
0.992968
0.992653
0.991275
0.988497
0.986796
0.985578
0.984072
0.982331
0.980914
0.980249
0.980203
0.980679
0.983234
0.989167
0.993654
0.996435
0.998021
0.998899
0.999389
0.999668
0.999823
0.99991
0.999953
0.889606
0.952611
0.971858
0.970172
0.957238
0.92581
0.908901
0.902714
0.902921
0.906035
0.916843
0.923534
0.922165
0.917934
0.918895
0.926203
0.929131
0.925726
0.907748
0.901222
0.906736
0.943054
0.97882
0.993528
0.998325
0.999619
0.999921
0.999985
0.999998
0.999999
0.999996
0.999931
0.999039
0.990169
0.922196
0.774603
0.725533
0.723525
0.720221
0.685021
0.5941
0.579672
0.599589
0.650236
0.667975
0.673076
0.683509
0.72959
0.811643
0.843716
0.850668
0.853053
0.860457
0.87011
0.872284
0.870773
0.861243
0.835896
0.804266
0.76287
0.746326
0.747182
0.764306
0.805702
0.857535
0.891358
0.895088
0.87084
0.744727
0.650866
0.630602
0.63633
0.63857
0.646446
0.685591
0.724401
0.765931
0.811501
0.84394
0.861773
0.865826
0.863646
0.859332
0.855067
0.85027
0.844108
0.836167
0.824064
0.808897
0.795238
0.786211
0.783725
0.78747
0.812663
0.891328
0.948536
0.97825
0.991633
0.997027
0.999013
0.999691
0.999908
0.999974
0.999993
0.999998
0.999999
1
1
1
1
1
1
1
1
1
1
1
1
0.999999
0.999999
0.999999
0.999999
0.999999
0.999999
0.999999
0.999999
0.999999
1
1
1
1
0.999999
0.999999
0.999999
0.999998
0.999998
0.999997
0.999994