/*--------------------------------*- C++ -*----------------------------------*\
  =========                 |
  \\      /  F ield         | OpenFOAM: The Open Source CFD Toolbox
   \\    /   O peration     | Website:  https://openfoam.org
    \\  /    A nd           | Version:  9
     \\/     M anipulation  |
\*---------------------------------------------------------------------------*/
FoamFile
{
    format      ascii;
    class       volVectorField;
    location    "0.046";
    object      U_0;
}
// * * * * * * * * * * * * * * * * * * * * * * * * * * * * * * * * * * * * * //

dimensions      [0 1 -1 0 0 0 0];

internalField   nonuniform List<vector> 
12225
(
(9.84016 -0.0609501 0)
(9.70901 0.00624642 0)
(9.46188 0.0429132 0)
(9.15969 0.0588598 0)
(8.88186 0.0615798 0)
(8.62733 0.0629115 0)
(8.40434 0.0601957 0)
(8.20437 0.0547534 0)
(8.03834 0.0470724 0)
(7.86021 0.0466264 0)
(7.68748 0.0402972 0)
(7.49051 0.0392301 0)
(7.34612 0.0134682 0)
(7.2661 0.0154912 0)
(7.20733 -0.0224568 0)
(7.39292 -0.0184378 0)
(7.22485 -0.0205091 0)
(7.95534 -0.127246 0)
(10.0042 0.073979 0)
(10.0535 0.0808899 0)
(10.1253 0.0805614 0)
(10.1317 0.0701346 0)
(10.1072 0.0615931 0)
(10.1253 0.0551628 0)
(10.1976 0.0493672 0)
(10.2809 0.0429054 0)
(10.3519 0.0444571 0)
(10.3946 0.0522472 0)
(10.4221 0.067547 0)
(10.424 0.0732037 0)
(10.4358 0.060706 0)
(10.4418 0.0342717 0)
(10.4804 -0.00911412 0)
(10.545 -0.0244726 0)
(10.6343 -0.080915 0)
(10.8463 -0.141588 0)
(10.1223 -0.111933 0)
(10.1687 -0.00754864 0)
(10.2601 0.0440145 0)
(10.2923 0.0663798 0)
(10.2622 0.0562845 0)
(10.248 0.0314382 0)
(10.2791 0.0138771 0)
(10.3286 0.0113709 0)
(10.3736 0.0174439 0)
(10.4151 0.0290116 0)
(10.4656 0.0360131 0)
(10.5303 0.0367648 0)
(10.6042 0.0178699 0)
(10.6791 -0.00772384 0)
(10.7542 -0.0456002 0)
(10.833 -0.0864053 0)
(10.9357 -0.128237 0)
(11.052 -0.220361 0)
(9.94375 0.0297462 0)
(9.92406 0.0353501 0)
(10.0107 0.044113 0)
(10.0626 0.072469 0)
(10.0889 0.0759079 0)
(10.1369 0.0560684 0)
(10.2134 0.0332052 0)
(10.2943 0.0188104 0)
(10.3625 0.0156263 0)
(10.4174 0.019077 0)
(10.4662 0.0224707 0)
(10.5177 0.0168107 0)
(10.5734 -0.00175795 0)
(10.6329 -0.0310771 0)
(10.7013 -0.0728636 0)
(10.7838 -0.119891 0)
(10.8815 -0.179248 0)
(10.9873 -0.277067 0)
(10.0852 -0.0192832 0)
(10.0906 -0.0126651 0)
(10.0512 0.0241967 0)
(10.0698 0.050866 0)
(10.1342 0.0236351 0)
(10.2139 -0.0190429 0)
(10.2857 -0.0425107 0)
(10.3345 -0.0418697 0)
(10.3625 -0.0267546 0)
(10.3848 -0.0090567 0)
(10.4163 0.00200699 0)
(10.4634 -0.000133073 0)
(10.5235 -0.0213592 0)
(10.5898 -0.057709 0)
(10.6584 -0.104698 0)
(10.729 -0.16307 0)
(10.8013 -0.233577 0)
(10.8723 -0.329369 0)
(10.3511 0.0414645 0)
(10.2848 0.0392827 0)
(10.315 0.0436514 0)
(10.3945 0.0517478 0)
(10.3944 0.03425 0)
(10.3157 0.0114884 0)
(10.2301 -0.00082889 0)
(10.1792 -0.00223044 0)
(10.1623 0.000528822 0)
(10.1679 -0.000535727 0)
(10.1925 -0.0103702 0)
(10.2383 -0.0305548 0)
(10.3071 -0.0609091 0)
(10.3936 -0.100121 0)
(10.4926 -0.146187 0)
(10.5977 -0.202198 0)
(10.7033 -0.27087 0)
(10.8 -0.360095 0)
(10.1481 0.0554427 0)
(10.0369 0.00733013 0)
(10.0417 0.000885487 0)
(10.123 0.0333702 0)
(10.1971 0.0498353 0)
(10.2325 0.0350987 0)
(10.2405 0.00393152 0)
(10.2434 -0.0190613 0)
(10.2577 -0.025324 0)
(10.2901 -0.0229682 0)
(10.3395 -0.027412 0)
(10.4008 -0.0487871 0)
(10.4699 -0.0887098 0)
(10.5411 -0.142917 0)
(10.6113 -0.204282 0)
(10.6783 -0.270895 0)
(10.7415 -0.343553 0)
(10.7991 -0.426707 0)
(10.1467 0.063886 0)
(10.1483 0.0505753 0)
(10.1061 0.0145709 0)
(10.0973 -0.00475567 0)
(10.0997 -0.01243 0)
(10.0844 -0.00998506 0)
(10.0463 -0.00764488 0)
(10.0083 -0.0100267 0)
(9.9991 -0.0192228 0)
(10.0328 -0.0361092 0)
(10.1053 -0.0607495 0)
(10.2034 -0.0930361 0)
(10.3116 -0.131148 0)
(10.4179 -0.174505 0)
(10.5154 -0.222329 0)
(10.6033 -0.278389 0)
(10.6824 -0.346119 0)
(10.754 -0.429491 0)
(9.86299 -0.0338179 0)
(10.0181 0.00391206 0)
(10.0937 0.0325435 0)
(10.0573 0.0509703 0)
(9.97424 0.0663191 0)
(9.93926 0.0676294 0)
(9.9791 0.0435785 0)
(10.0643 0.00327999 0)
(10.1574 -0.0364167 0)
(10.2421 -0.0757373 0)
(10.3167 -0.117279 0)
(10.3851 -0.162432 0)
(10.4481 -0.210839 0)
(10.5089 -0.262025 0)
(10.5647 -0.315409 0)
(10.621 -0.372499 0)
(10.669 -0.435923 0)
(10.7166 -0.507981 0)
(9.84306 -0.0604045 0)
(9.8436 -0.0726551 0)
(9.90145 -0.00266211 0)
(9.96515 0.0406254 0)
(10.0583 0.0257042 0)
(10.1739 -0.0268181 0)
(10.2727 -0.0779872 0)
(10.3333 -0.104179 0)
(10.3585 -0.109404 0)
(10.3652 -0.111608 0)
(10.3726 -0.124303 0)
(10.3886 -0.150754 0)
(10.4107 -0.188412 0)
(10.4321 -0.234288 0)
(10.4487 -0.286995 0)
(10.4577 -0.347247 0)
(10.4633 -0.416096 0)
(10.4641 -0.495745 0)
(10.0815 -0.0359967 0)
(10.0861 -0.0382165 0)
(10.0875 -0.0186354 0)
(10.1088 -0.0148796 0)
(10.1404 -0.0196751 0)
(10.129 -0.019654 0)
(10.0569 -0.0151788 0)
(9.96236 -0.0215503 0)
(9.89878 -0.0461882 0)
(9.89727 -0.0879944 0)
(9.95629 -0.142604 0)
(10.0565 -0.200898 0)
(10.1762 -0.254037 0)
(10.2975 -0.300466 0)
(10.4096 -0.342596 0)
(10.5033 -0.388318 0)
(10.5799 -0.442126 0)
(10.6327 -0.509851 0)
(10.1044 -0.132535 0)
(10.0831 -0.0562275 0)
(10.07 -0.00422683 0)
(10.0641 0.0207076 0)
(10.0602 0.0187583 0)
(10.0442 0.0080622 0)
(10.0201 -0.00709663 0)
(10.015 -0.0329073 0)
(10.0461 -0.0780885 0)
(10.1038 -0.139401 0)
(10.173 -0.207107 0)
(10.2432 -0.271983 0)
(10.3096 -0.328068 0)
(10.3721 -0.375421 0)
(10.4302 -0.415743 0)
(10.4838 -0.456305 0)
(10.5275 -0.500297 0)
(10.5614 -0.554465 0)
(10.109 -0.123423 0)
(10.1698 -0.0454862 0)
(10.1778 -0.0213611 0)
(10.1551 -0.0217643 0)
(10.0928 -0.00987638 0)
(10.0275 0.00813478 0)
(9.99744 0.00568483 0)
(10.0145 -0.0280999 0)
(10.067 -0.0885449 0)
(10.1386 -0.162241 0)
(10.2135 -0.235333 0)
(10.2788 -0.299733 0)
(10.3297 -0.352799 0)
(10.3653 -0.396802 0)
(10.3888 -0.435037 0)
(10.4053 -0.47365 0)
(10.4151 -0.515179 0)
(10.4236 -0.564304 0)
(10.1331 -0.161429 0)
(10.0035 -0.111496 0)
(9.90306 0.0212389 0)
(9.88131 0.0927217 0)
(9.93427 0.0977178 0)
(10.0294 0.0562962 0)
(10.1257 -0.0115704 0)
(10.2029 -0.0903677 0)
(10.2539 -0.165877 0)
(10.2761 -0.232931 0)
(10.2793 -0.289415 0)
(10.2758 -0.334292 0)
(10.2745 -0.368725 0)
(10.2764 -0.397303 0)
(10.2812 -0.425641 0)
(10.2856 -0.458564 0)
(10.2876 -0.498459 0)
(10.2882 -0.546374 0)
(10.0626 0.0476282 0)
(10.0003 0.114943 0)
(9.91088 0.0560308 0)
(9.957 -0.0700856 0)
(10.0862 -0.136658 0)
(10.1732 -0.136045 0)
(10.1762 -0.11209 0)
(10.1274 -0.101138 0)
(10.0739 -0.122578 0)
(10.044 -0.173849 0)
(10.0394 -0.241367 0)
(10.0493 -0.312391 0)
(10.0629 -0.376666 0)
(10.0743 -0.429598 0)
(10.0837 -0.470852 0)
(10.0953 -0.504553 0)
(10.1119 -0.53819 0)
(10.1377 -0.577434 0)
(9.93823 -0.0145551 0)
(10.0545 0.0147867 0)
(10.1055 0.018026 0)
(10.1157 -0.0387933 0)
(10.0868 -0.040191 0)
(10.039 0.0104072 0)
(10.0104 0.038084 0)
(10.016 -0.00261217 0)
(10.0442 -0.0977351 0)
(10.0728 -0.205857 0)
(10.0872 -0.291885 0)
(10.0855 -0.343483 0)
(10.0732 -0.369174 0)
(10.0591 -0.38825 0)
(10.0508 -0.417624 0)
(10.0535 -0.465438 0)
(10.0667 -0.531712 0)
(10.0853 -0.609821 0)
(10.0121 0.0228684 0)
(10.0371 0.0027496 0)
(10.0279 -0.0117013 0)
(9.97849 -0.0360951 0)
(9.94482 -0.0611585 0)
(9.94869 -0.086149 0)
(9.98663 -0.115636 0)
(10.0299 -0.15105 0)
(10.0451 -0.189441 0)
(10.0227 -0.226534 0)
(9.9793 -0.264002 0)
(9.94124 -0.308462 0)
(9.9256 -0.364173 0)
(9.93577 -0.430221 0)
(9.96282 -0.498539 0)
(9.99522 -0.56187 0)
(10.021 -0.612872 0)
(10.0329 -0.649621 0)
(9.92145 -0.093243 0)
(9.99857 -0.00598115 0)
(9.98859 0.0645349 0)
(9.99604 0.0603862 0)
(10.0226 0.0140276 0)
(10.0365 -0.033133 0)
(10.0436 -0.0567448 0)
(10.0418 -0.0590554 0)
(10.0268 -0.0629578 0)
(10.0043 -0.0922906 0)
(9.98352 -0.155328 0)
(9.97007 -0.243357 0)
(9.96302 -0.338497 0)
(9.95698 -0.424836 0)
(9.94701 -0.492583 0)
(9.93058 -0.542294 0)
(9.908 -0.577106 0)
(9.88054 -0.606806 0)
(9.85587 -0.100552 0)
(9.86816 -0.120489 0)
(9.8645 -0.10654 0)
(9.86594 -0.0763517 0)
(9.88147 -0.0890332 0)
(9.90259 -0.118701 0)
(9.93029 -0.132453 0)
(9.97228 -0.133829 0)
(10.0238 -0.144176 0)
(10.0705 -0.177759 0)
(10.0988 -0.23246 0)
(10.1027 -0.297221 0)
(10.0867 -0.360254 0)
(10.0588 -0.415106 0)
(10.0262 -0.457831 0)
(9.99253 -0.489238 0)
(9.95904 -0.509519 0)
(9.92584 -0.522353 0)
(10.0015 0.0133405 0)
(10.0133 0.0479359 0)
(9.9526 0.0428071 0)
(9.97778 0.016172 0)
(10.0385 -0.0406154 0)
(10.0849 -0.117718 0)
(10.1088 -0.186243 0)
(10.1179 -0.227208 0)
(10.1174 -0.235725 0)
(10.1054 -0.2225 0)
(10.0793 -0.208143 0)
(10.04 -0.210821 0)
(9.99138 -0.2368 0)
(9.93783 -0.27959 0)
(9.8811 -0.326903 0)
(9.82491 -0.368599 0)
(9.7709 -0.400025 0)
(9.72568 -0.423391 0)
(9.75195 -0.0654061 0)
(9.8189 0.0184524 0)
(9.83693 -0.0661723 0)
(9.88496 -0.155419 0)
(9.9523 -0.186781 0)
(10.0129 -0.193198 0)
(10.026 -0.189444 0)
(9.98435 -0.173076 0)
(9.92337 -0.149953 0)
(9.88008 -0.13413 0)
(9.86627 -0.135999 0)
(9.87244 -0.155505 0)
(9.88162 -0.185172 0)
(9.88027 -0.216634 0)
(9.8616 -0.246885 0)
(9.82571 -0.27777 0)
(9.77746 -0.311472 0)
(9.72245 -0.35238 0)
(10.019 0.109915 0)
(10.1677 0.0318736 0)
(10.1606 -0.0484675 0)
(10.0798 -0.143228 0)
(9.97556 -0.207457 0)
(9.89204 -0.199767 0)
(9.8522 -0.147149 0)
(9.84587 -0.105499 0)
(9.86049 -0.105519 0)
(9.8842 -0.140549 0)
(9.90219 -0.185594 0)
(9.90351 -0.218887 0)
(9.88729 -0.231964 0)
(9.8585 -0.228402 0)
(9.82375 -0.216922 0)
(9.78739 -0.207089 0)
(9.75243 -0.203623 0)
(9.72001 -0.211253 0)
(9.97542 -0.0323689 0)
(10.0476 -0.0305361 0)
(10.0602 0.0115758 0)
(10.0875 0.0192118 0)
(10.063 -0.0165253 0)
(10.0072 -0.0748599 0)
(9.95664 -0.131071 0)
(9.91678 -0.166946 0)
(9.88043 -0.178031 0)
(9.84318 -0.171689 0)
(9.80523 -0.158714 0)
(9.76923 -0.147632 0)
(9.73815 -0.143301 0)
(9.71329 -0.147122 0)
(9.69396 -0.160379 0)
(9.67807 -0.182936 0)
(9.66378 -0.213901 0)
(9.64858 -0.252593 0)
(9.81211 0.0574628 0)
(9.78886 0.0165623 0)
(9.79373 -0.0658839 0)
(9.87894 -0.131898 0)
(9.9554 -0.145165 0)
(9.99564 -0.11628 0)
(10.0192 -0.0782116 0)
(10.0271 -0.0567188 0)
(10.015 -0.0607292 0)
(9.98833 -0.084602 0)
(9.9576 -0.115594 0)
(9.93189 -0.141398 0)
(9.91555 -0.1561 0)
(9.90694 -0.160007 0)
(9.90082 -0.157419 0)
(9.88943 -0.154596 0)
(9.86967 -0.154648 0)
(9.83759 -0.163645 0)
(10.0214 0.0576682 0)
(10.0542 -0.00563972 0)
(10.0384 -0.0625648 0)
(9.98157 -0.0693894 0)
(9.89629 -0.0881404 0)
(9.83204 -0.114647 0)
(9.82494 -0.133667 0)
(9.86993 -0.135274 0)
(9.93531 -0.120374 0)
(9.98325 -0.103053 0)
(9.98794 -0.0980269 0)
(9.94785 -0.108048 0)
(9.8821 -0.125685 0)
(9.81501 -0.141717 0)
(9.76563 -0.151586 0)
(9.74041 -0.156929 0)
(9.7379 -0.161457 0)
(9.75177 -0.171532 0)
(10.1746 0.0785869 0)
(10.1667 -0.00585485 0)
(10.1247 -0.0388461 0)
(10.1352 -0.0588723 0)
(10.1543 -0.0760181 0)
(10.1513 -0.0930436 0)
(10.1211 -0.120662 0)
(10.0745 -0.149475 0)
(10.0292 -0.156614 0)
(9.99576 -0.133101 0)
(9.97181 -0.0919168 0)
(9.95064 -0.0558247 0)
(9.9284 -0.0417716 0)
(9.90601 -0.0532878 0)
(9.88607 -0.0826303 0)
(9.86788 -0.119057 0)
(9.84996 -0.154664 0)
(9.82534 -0.184795 0)
(9.97362 0.0280496 0)
(10.1286 -0.0268527 0)
(10.1337 -0.0212555 0)
(10.1057 -0.0498056 0)
(10.0464 -0.0789585 0)
(9.99845 -0.0850904 0)
(9.98219 -0.081205 0)
(9.98173 -0.0768726 0)
(9.97733 -0.0717188 0)
(9.96407 -0.0663476 0)
(9.94844 -0.0650351 0)
(9.93732 -0.0714708 0)
(9.93211 -0.085721 0)
(9.92993 -0.104236 0)
(9.9262 -0.121019 0)
(9.91593 -0.132852 0)
(9.89612 -0.137561 0)
(9.86375 -0.13704 0)
(9.92484 -0.08979 0)
(10.0289 -0.120679 0)
(10.1088 -0.0433935 0)
(10.1002 -0.0242605 0)
(9.99081 -0.0363838 0)
(9.86455 -0.0671844 0)
(9.78303 -0.108346 0)
(9.75062 -0.13634 0)
(9.74804 -0.135126 0)
(9.75913 -0.108241 0)
(9.77576 -0.0728071 0)
(9.79322 -0.0470374 0)
(9.80694 -0.0407036 0)
(9.81173 -0.0520146 0)
(9.80374 -0.0713928 0)
(9.78254 -0.0900678 0)
(9.75068 -0.10223 0)
(9.71444 -0.108302 0)
(10.0475 -0.113494 0)
(9.82933 -0.0990254 0)
(9.828 -0.0393269 0)
(9.93609 0.00945615 0)
(10.0573 0.0199899 0)
(10.1164 -0.00685121 0)
(10.0879 -0.0464417 0)
(9.99809 -0.0753752 0)
(9.89557 -0.087175 0)
(9.81858 -0.0877062 0)
(9.78028 -0.0856922 0)
(9.77415 -0.086949 0)
(9.78429 -0.0924342 0)
(9.79559 -0.0991651 0)
(9.79713 -0.103378 0)
(9.78413 -0.104098 0)
(9.75523 -0.102069 0)
(9.71302 -0.101212 0)
(9.86658 0.0302861 0)
(9.643 -0.0524747 0)
(9.36744 -0.0910632 0)
(9.17491 -0.098101 0)
(9.05803 -0.0832156 0)
(8.95042 -0.0615181 0)
(8.81698 -0.0480522 0)
(8.65095 -0.0476519 0)
(8.46243 -0.0526197 0)
(8.27148 -0.054 0)
(8.09302 -0.0512132 0)
(7.92698 -0.0497182 0)
(7.76139 -0.0532751 0)
(7.58765 -0.0594418 0)
(7.40806 -0.0628099 0)
(7.23266 -0.0602523 0)
(7.07061 -0.0512294 0)
(6.9299 -0.0412879 0)
(-0.387742 0.695231 1.14218e-19)
(-0.959761 0.426258 -1.13101e-19)
(-1.36914 0.24274 0)
(-1.65314 0.014205 0)
(-1.74982 -0.193582 0)
(-1.58405 -0.427179 1.09601e-19)
(-1.26033 -0.616469 0)
(-0.739479 -0.76735 0)
(-0.114932 -0.817389 0)
(0.573721 -0.821535 0)
(1.24648 -0.778508 -1.06019e-19)
(1.89216 -0.71134 0)
(2.4932 -0.634321 0)
(3.0375 -0.556882 0)
(3.52552 -0.48562 0)
(3.96296 -0.423911 -1.00834e-19)
(4.35714 -0.370546 0)
(4.7124 -0.324262 0)
(5.03532 -0.283984 0)
(5.32669 -0.244624 0)
(5.58879 -0.20954 0)
(5.82203 -0.169212 0)
(6.01822 -0.130671 0)
(6.18642 -0.0848125 -9.33258e-20)
(6.29833 -0.0304817 9.25038e-20)
(6.38151 0.0215191 -9.17218e-20)
(6.38337 0.110845 -9.09821e-20)
(6.33364 0.17066 0)
(6.17918 0.314382 0)
(5.89949 0.402422 8.90722e-20)
(5.56444 0.575359 8.85602e-20)
(4.90988 0.80537 0)
(4.32479 0.804122 0)
(3.269 1.50497 8.72544e-20)
(1.84401 1.05153 0)
(1.00497 -0.259267 0)
(0.39805 0.000366246 -8.5531e-20)
(-0.0561115 0.505561 0)
(-0.596617 0.479392 -8.36152e-20)
(-1.30789 0.394188 -1.64882e-19)
(-1.85203 0.229543 0)
(-2.03171 -0.0951722 0)
(-1.73784 -0.590955 0)
(-0.829606 -1.24493 0)
(0.718885 -1.55179 0)
(2.41898 -1.3696 -1.5587e-19)
(3.65692 -1.07259 -1.53364e-19)
(4.51768 -0.373642 -1.51105e-19)
(4.73599 -0.187233 0)
(4.33873 -0.323205 1.47857e-19)
(3.59423 0.682478 0)
(2.93276 1.13269 -1.45654e-19)
(2.65156 0.128269 -1.44564e-19)
(2.53755 -0.783759 0)
(2.43848 -0.751106 0)
(1.32909 -0.362978 0)
(-0.601349 1.40052 -1.41004e-19)
(-3.79242 2.53281 0)
(-6.39775 1.61862 0)
(-7.73881 1.11644 0)
(-9.01927 0.848419 0)
(-9.8212 0.562991 0)
(-10.4617 0.431556 0)
(-10.9485 0.310092 0)
(-11.3151 0.233874 0)
(-11.6048 0.175814 1.15577e-19)
(-11.8163 0.125868 0)
(-11.9616 0.0812607 0)
(-12.0364 0.0381479 -1.09974e-19)
(-12.0412 -0.00250286 -1.08426e-19)
(-11.9816 -0.0417036 0)
(-11.8586 -0.0782099 1.05771e-19)
(-11.6778 -0.111052 -1.04646e-19)
(-11.4443 -0.139109 0)
(-11.1682 -0.159974 1.02715e-19)
(-10.8616 -0.172925 0)
(-10.5376 -0.179011 0)
(-10.2071 -0.179328 -1.00322e-19)
(-9.87863 -0.175374 0)
(-9.55676 -0.169353 9.89114e-20)
(-9.24322 -0.162862 0)
(-8.9379 -0.156862 -9.76232e-20)
(-8.63938 -0.152001 -9.70261e-20)
(-8.34558 -0.148472 -9.646e-20)
(-8.05426 -0.146161 -1.91847e-19)
(-7.76339 -0.144828 1.90826e-19)
(-7.47145 -0.14414 0)
(-7.17764 -0.143703 0)
(-6.88189 -0.143145 0)
(-6.58481 -0.142155 1.87058e-19)
(-6.28759 -0.140518 1.86129e-19)
(-5.99184 -0.138093 -1.85179e-19)
(-5.69934 -0.134821 0)
(-5.41185 -0.130774 1.83164e-19)
(-5.13101 -0.12617 1.82082e-19)
(-4.85813 -0.121331 1.80941e-19)
(-4.59404 -0.116611 0)
(-4.3387 -0.11228 0)
(-4.09086 -0.108608 0)
(-3.84831 -0.10598 1.75767e-19)
(-3.6082 -0.104603 0)
(-3.36753 -0.10443 0)
(-3.12377 -0.10524 -1.71339e-19)
(-2.87523 -0.106629 0)
(-2.62086 -0.108184 0)
(-2.36051 -0.109441 -1.66593e-19)
(-2.09511 -0.109988 0)
(-1.82646 -0.10959 0)
(-1.5571 -0.108167 1.61607e-19)
(-1.28999 -0.10565 1.59898e-19)
(-1.02742 -0.1022 0)
(-0.771454 -0.0978494 -1.56417e-19)
(-0.524071 -0.0930182 0)
(-0.286374 -0.0880481 1.5287e-19)
(-0.0580515 -0.0841942 0)
(0.161655 -0.0809154 1.49232e-19)
(0.375784 -0.0783764 1.4736e-19)
(0.587538 -0.0772427 0)
(0.799734 -0.0774702 0)
(1.01592 -0.0789556 0)
(1.23943 -0.0814813 0)
(1.47285 -0.0846609 0)
(1.71769 -0.0879887 0)
(1.97408 -0.0909086 0)
(2.24062 -0.0928904 1.3292e-19)
(2.51444 -0.0934983 -1.31174e-19)
(2.79152 -0.0924134 0)
(3.06707 -0.0894575 0)
(3.33606 -0.0846007 0)
(3.59362 -0.0779887 0)
(3.8354 -0.0699735 -2.44922e-19)
(4.05777 -0.0609283 0)
(4.2576 -0.0509211 2.37993e-19)
(4.43182 -0.0401317 -2.34556e-19)
(4.57841 -0.0300789 0)
(4.69903 -0.0229784 0)
(4.79901 -0.0178757 0)
(4.8817 -0.00998742 2.21104e-19)
(4.94502 0.00163697 2.17831e-19)
(4.98807 0.00986749 0)
(5.01697 0.010444 2.11404e-19)
(5.03528 0.0119267 2.08251e-19)
(5.0334 0.0271277 -2.05134e-19)
(4.99184 0.0602278 0)
(4.89295 0.0964743 0)
(4.74211 0.111891 -1.95982e-19)
(4.56674 0.0985099 0)
(4.39225 0.0728074 0)
(4.22655 0.0563418 0)
(4.06635 0.0530976 0)
(3.91188 0.0522495 1.81159e-19)
(3.77319 0.0431701 1.78239e-19)
(3.66331 0.024842 0)
(3.58753 0.00370248 1.72465e-19)
(3.53995 -0.0114514 0)
(3.50822 -0.0160616 0)
(3.48008 -0.0104786 1.63945e-19)
(3.44597 0.00274609 0)
(3.39715 0.020658 1.58318e-19)
(3.32477 0.0398819 0)
(3.2237 0.0549272 0)
(3.09919 0.0602574 1.49939e-19)
(2.9666 0.0545988 0)
(2.8438 0.0421584 1.44412e-19)
(2.74159 0.0289848 0)
(2.66217 0.0191843 0)
(2.60015 0.0135706 0)
(2.54984 0.0106221 -1.33585e-19)
(2.50512 0.00852834 0)
(2.46497 0.00620034 1.28262e-19)
(2.4265 0.00408168 0)
(2.39089 0.00260874 0)
(2.35512 0.00322518 0)
(2.31633 0.00452526 0)
(2.27706 0.00945021 0)
(2.21551 0.012526 0)
(2.17065 0.0239732 0)
(2.03758 0.0254357 -2.15353e-19)
(2.01408 0.0549334 0)
(1.65599 0.0440109 0)
(-0.0147008 1.84675 -3.42521e-19)
(-0.110053 1.53792 3.40014e-19)
(-0.0611627 1.01921 0)
(-0.0318568 0.691552 -2.23455e-19)
(0.0753033 0.166469 0)
(0.300032 -0.569262 -1.09918e-19)
(0.725861 -1.2277 2.17851e-19)
(1.22727 -1.72071 2.1595e-19)
(1.73218 -1.99041 0)
(2.20248 -2.06537 2.12193e-19)
(2.63119 -1.99882 1.05431e-19)
(3.02159 -1.85403 0)
(3.37433 -1.6803 0)
(3.69324 -1.50739 0)
(3.98643 -1.34977 0)
(4.26152 -1.2125 1.00658e-19)
(4.52405 -1.09446 0)
(4.77762 -0.991617 -1.97227e-19)
(5.02228 -0.900347 0)
(5.2595 -0.813738 0)
(5.48484 -0.730419 1.91708e-19)
(5.699 -0.642594 0)
(5.89493 -0.549387 -1.88146e-19)
(6.0718 -0.44665 9.33203e-20)
(6.22301 -0.325366 -9.24997e-20)
(6.3442 -0.19568 9.17157e-20)
(6.4327 -0.0263677 9.09693e-20)
(6.48364 0.147594 0)
(6.51366 0.381743 0)
(6.46046 0.629836 -8.88993e-20)
(6.41481 0.925195 8.76687e-20)
(6.19355 1.31958 0)
(6.03729 1.6301 0)
(5.60039 2.17712 -8.65894e-20)
(5.08769 2.50045 0)
(4.49224 2.66389 0)
(2.88821 1.9751 8.48407e-20)
(1.57428 1.10154 0)
(0.74127 1.31415 -8.31537e-20)
(0.0182499 1.43599 1.65171e-19)
(-0.46528 0.900902 0)
(-0.745861 -0.0159101 0)
(-0.806272 -1.28435 3.187e-19)
(-0.324186 -2.91395 3.16053e-19)
(0.464558 -3.94818 3.13451e-19)
(1.73693 -3.2762 -1.53995e-19)
(2.5364 -2.13309 1.53491e-19)
(2.99261 -0.963574 4.53162e-19)
(3.35384 0.57647 -2.9839e-19)
(3.12267 1.5541 -1.48127e-19)
(2.87169 1.02473 0)
(2.95549 0.161849 1.45699e-19)
(2.3902 0.294481 -1.43723e-19)
(0.627372 1.06562 0)
(-1.89169 2.76101 0)
(-4.80578 4.46835 0)
(-6.7526 5.04084 1.38899e-19)
(-8.20237 4.31885 0)
(-9.07417 3.12764 -2.64298e-19)
(-9.61911 2.3602 0)
(-10.1455 1.71963 -2.53609e-19)
(-10.4719 1.24726 0)
(-10.8095 0.938727 2.43587e-19)
(-11.0638 0.700336 0)
(-11.2996 0.533601 -2.34502e-19)
(-11.4919 0.397924 1.14756e-19)
(-11.6454 0.278345 0)
(-11.7535 0.163297 2.22769e-19)
(-11.81 0.0473929 1.10021e-19)
(-11.8117 -0.0689302 1.08471e-19)
(-11.7492 -0.183018 0)
(-11.6254 -0.289158 1.05306e-19)
(-11.4419 -0.383466 1.04655e-19)
(-11.2062 -0.462247 0)
(-10.9278 -0.521395 -1.0271e-19)
(-10.6201 -0.558307 2.03407e-19)
(-10.2972 -0.573471 0)
(-9.97242 -0.570832 1.00309e-19)
(-9.65306 -0.556782 0)
(-9.34175 -0.537565 -2.96469e-19)
(-9.03883 -0.517376 0)
(-8.74321 -0.49895 2.92623e-19)
(-8.45278 -0.484098 9.70129e-20)
(-8.16501 -0.473487 -9.62627e-20)
(-7.87764 -0.466845 -1.91483e-19)
(-7.58883 -0.463403 1.90498e-19)
(-7.29716 -0.462047 0)
(-7.00197 -0.461472 0)
(-6.70334 -0.460476 0)
(-6.4021 -0.458109 -5.60969e-19)
(-6.09973 -0.453668 -1.86106e-19)
(-5.79817 -0.446708 1.85158e-19)
(-5.49959 -0.437153 0)
(-5.20617 -0.425205 1.8317e-19)
(-4.91979 -0.411297 -1.82072e-19)
(-4.64176 -0.396108 -1.80935e-19)
(-4.37264 -0.380615 0)
(-4.11223 -0.365978 0)
(-3.8595 -0.353419 0)
(-3.61238 -0.344082 -1.75775e-19)
(-3.36779 -0.338658 0)
(-3.12229 -0.337197 3.45774e-19)
(-2.87299 -0.339157 5.14076e-19)
(-2.61808 -0.343388 -3.3961e-19)
(-2.35653 -0.348622 0)
(-2.08822 -0.353375 -1.666e-19)
(-1.8142 -0.356213 0)
(-1.53651 -0.356134 -3.26596e-19)
(-1.25783 -0.352742 1.61603e-19)
(-0.981316 -0.345675 1.59894e-19)
(-0.70927 -0.335426 0)
(-0.443951 -0.322398 4.69299e-19)
(-0.187713 -0.307702 -3.09329e-19)
(0.0574297 -0.293471 -1.52868e-19)
(0.292222 -0.280691 0)
(0.51838 -0.270201 -1.49129e-19)
(0.73808 -0.262525 -4.41737e-19)
(0.954388 -0.258953 0)
(1.17075 -0.259674 -2.87058e-19)
(1.39101 -0.26441 -2.83394e-19)
(1.61879 -0.272474 -2.79767e-19)
(1.85693 -0.28273 0)
(2.1071 -0.293662 0)
(2.3694 -0.303557 0)
(2.64227 -0.310751 1.3277e-19)
(2.92245 -0.313898 1.31074e-19)
(3.20536 -0.312162 0)
(3.48561 -0.305295 2.55145e-19)
(3.7576 -0.293556 2.51669e-19)
(4.01605 -0.277507 0)
(4.25648 -0.257731 2.44755e-19)
(4.47545 -0.234594 4.82541e-19)
(4.67115 -0.20833 -2.37848e-19)
(4.84396 -0.17973 -2.34383e-19)
(4.99563 -0.150936 0)
(5.12613 -0.124901 0)
(5.23316 -0.103402 0)
(5.31947 -0.0859161 -2.20994e-19)
(5.39815 -0.0706193 2.17692e-19)
(5.48133 -0.0559959 4.28939e-19)
(5.56421 -0.0407494 -2.11284e-19)
(5.63194 -0.0234229 2.08097e-19)
(5.67805 -0.00305158 2.05006e-19)
(5.71114 0.0226353 0)
(5.75126 0.0530415 0)
(5.8124 0.0830381 -1.95736e-19)
(5.88818 0.108074 0)
(5.94716 0.126747 0)
(5.94944 0.13657 3.73413e-19)
(5.88103 0.134545 0)
(5.76742 0.120953 1.80816e-19)
(5.64995 0.0998057 -1.77901e-19)
(5.55709 0.0780709 0)
(5.49356 0.0620655 1.72164e-19)
(5.44249 0.0534738 0)
(5.37863 0.0488187 0)
(5.2881 0.0453466 -1.63665e-19)
(5.17609 0.0433721 3.2172e-19)
(5.05943 0.0454464 -1.58069e-19)
(4.95496 0.0530176 0)
(4.87165 0.0639442 0)
(4.81021 0.0735602 1.49694e-19)
(4.76649 0.0767611 0)
(4.73499 0.0714366 1.44171e-19)
(4.71085 0.0605308 0)
(4.69159 0.0486859 0)
(4.67597 0.0393216 0)
(4.66361 0.0333146 1.33344e-19)
(4.65328 0.0305102 0)
(4.64306 0.0291923 -1.28029e-19)
(4.63038 0.0294874 0)
(4.61107 0.029247 0)
(4.58485 0.031058 2.40344e-19)
(4.54509 0.0306519 -2.35177e-19)
(4.50371 0.0367207 0)
(4.43837 0.0369272 0)
(4.39421 0.0544326 0)
(4.2844 0.0544887 6.44818e-19)
(4.26327 0.100174 0)
(4.0337 0.0973494 -4.10286e-19)
(0.159004 1.28672 -2.78897e-22)
(0.434563 0.91306 -4.53105e-19)
(0.60543 0.30023 0)
(0.821697 -0.099914 4.4613e-19)
(1.22108 -0.725317 0)
(1.70977 -1.50162 0)
(2.13339 -2.19648 1.13948e-22)
(2.41504 -2.62255 -2.14966e-19)
(2.55854 -2.7454 -2.13141e-19)
(2.61529 -2.63716 -2.11785e-19)
(2.63311 -2.40238 0)
(2.64565 -2.13277 0)
(2.6776 -1.88396 2.06498e-19)
(2.74451 -1.6789 4.09589e-19)
(2.85193 -1.51962 -4.06108e-19)
(2.99758 -1.39817 0)
(3.17574 -1.30288 -3.98954e-19)
(3.37884 -1.22285 1.97861e-19)
(3.59937 -1.14903 0)
(3.83107 -1.07287 -3.87961e-19)
(4.06587 -0.990936 -1.92324e-19)
(4.30041 -0.895518 3.80665e-19)
(4.52585 -0.785923 1.88728e-19)
(4.74036 -0.657927 0)
(4.9358 -0.505669 -3.70163e-19)
(5.10925 -0.337007 -3.6686e-19)
(5.25756 -0.129824 0)
(5.36923 0.0903665 -3.60607e-19)
(5.46447 0.364517 0)
(5.52051 0.668393 -3.54418e-19)
(5.60391 1.02277 -1.76286e-19)
(5.62393 1.46306 0)
(5.70353 1.90675 0)
(5.70823 2.48146 0)
(5.67133 2.97635 0)
(5.64441 3.49111 0)
(5.16747 3.75417 0)
(4.40887 3.49482 -3.32393e-19)
(3.22168 2.92973 4.95291e-19)
(2.27026 2.22786 0)
(1.73363 1.40262 0)
(1.26409 0.441108 0)
(0.909365 -1.02768 1.40371e-22)
(1.00027 -3.11933 -3.15457e-19)
(1.00075 -4.82281 -6.25246e-19)
(1.30199 -4.48047 6.18764e-19)
(1.66538 -2.815 3.05888e-19)
(1.55108 -1.38011 -3.02572e-19)
(1.48004 -0.250594 7.94207e-23)
(1.43889 0.51617 -2.96267e-19)
(0.869484 1.13916 0)
(-0.424881 1.91064 -2.90565e-19)
(-2.23639 3.19438 1.28009e-21)
(-4.50434 4.88589 0)
(-6.6087 6.28633 0)
(-8.13077 6.75337 2.71691e-19)
(-8.70639 6.11701 0)
(-8.89398 4.86925 0)
(-8.97013 3.68941 -2.55253e-19)
(-9.09682 2.80112 -5.10714e-19)
(-9.2497 2.08413 2.53848e-19)
(-9.43953 1.59059 0)
(-9.68354 1.24842 -2.43969e-19)
(-9.93051 0.988319 0)
(-10.1917 0.794771 -2.32561e-19)
(-10.436 0.624414 -2.30686e-19)
(-10.6547 0.461024 4.51625e-19)
(-10.8283 0.290711 2.21319e-19)
(-10.9435 0.109544 0)
(-10.9884 -0.0794391 -4.3174e-19)
(-10.956 -0.267742 0)
(-10.8491 -0.44544 -6.32543e-19)
(-10.6742 -0.605421 -4.16808e-19)
(-10.4396 -0.739234 -4.12887e-19)
(-10.1575 -0.839259 4.09366e-19)
(-9.84551 -0.90046 -6.09704e-19)
(-9.52583 -0.923031 0)
(-9.21711 -0.915025 0)
(-8.92735 -0.89012 3.97377e-19)
(-8.65509 -0.859875 5.92346e-19)
(-8.39548 -0.830477 0)
(-8.14366 -0.805096 -1.95114e-19)
(-7.8946 -0.785718 0)
(-7.64361 -0.772826 5.77747e-19)
(-7.38748 -0.765625 5.54022e-22)
(-7.12434 -0.76287 -4.93064e-22)
(-6.8533 -0.76297 -3.79046e-19)
(-6.57453 -0.76403 0)
(-6.28907 -0.764253 3.75516e-19)
(-5.9984 -0.762049 2.05626e-22)
(-5.70431 -0.755868 0)
(-5.40903 -0.74459 0)
(-5.11508 -0.727964 0)
(-4.82507 -0.706447 -3.66367e-19)
(-4.54143 -0.681091 0)
(-4.26605 -0.653388 0)
(-3.99983 -0.625204 0)
(-3.74262 -0.598783 0)
(-3.49327 -0.57657 0)
(-3.24976 -0.560625 -3.51776e-19)
(-3.00925 -0.552069 0)
(-2.76822 -0.550969 -3.45825e-19)
(-2.52355 -0.556281 -3.42773e-19)
(-2.27343 -0.565577 3.39651e-19)
(-2.01708 -0.576445 0)
(-1.75463 -0.586229 3.3323e-19)
(-1.48702 -0.592548 0)
(-1.21585 -0.59346 3.26614e-19)
(-0.943868 -0.588038 -3.23239e-19)
(-0.673562 -0.575812 -9.59394e-19)
(-0.406959 -0.557817 0)
(-0.146189 -0.534791 -9.38534e-19)
(0.105437 -0.509342 -3.0917e-19)
(0.346667 -0.483798 0)
(0.578325 -0.459556 -6.03442e-19)
(0.801142 -0.439183 -5.95933e-19)
(1.01725 -0.424481 8.82735e-19)
(1.22972 -0.416859 0)
(1.44238 -0.416863 2.86881e-19)
(1.6595 -0.424193 2.83219e-19)
(1.88528 -0.437702 8.38587e-19)
(2.12326 -0.455391 0)
(2.37573 -0.47453 0)
(2.64334 -0.491944 0)
(2.92479 -0.50443 2.65237e-19)
(3.21682 -0.509267 0)
(3.51448 -0.504635 0)
(3.81147 -0.4898 -2.54962e-19)
(4.10051 -0.465066 -2.51489e-19)
(4.37347 -0.431679 0)
(4.62154 -0.391869 0)
(4.83588 -0.348801 -4.82238e-19)
(5.00954 -0.30581 0)
(5.14075 -0.264783 4.68581e-19)
(5.23502 -0.225371 4.61766e-19)
(5.30202 -0.18669 0)
(5.34887 -0.150538 0)
(5.3788 -0.122622 -4.41861e-19)
(5.3992 -0.107319 -4.79414e-23)
(5.42862 -0.0999037 -4.76777e-23)
(5.48737 -0.0876504 0)
(5.57497 -0.0609228 -8.32393e-19)
(5.66145 -0.021761 0)
(5.71334 0.0161283 0)
(5.73041 0.0363611 0)
(5.74872 0.034055 3.91543e-19)
(5.80843 0.0264323 0)
(5.9178 0.0419704 -7.58807e-19)
(6.03918 0.0911743 -3.73384e-19)
(6.11181 0.15137 0)
(6.09755 0.184303 -3.61485e-19)
(6.00876 0.170363 0)
(5.89472 0.122806 0)
(5.80492 0.0746468 -1.03259e-18)
(5.75946 0.0532394 6.77021e-19)
(5.74192 0.0644318 0)
(5.71445 0.093287 6.54328e-19)
(5.64651 0.11906 -3.21548e-19)
(5.53543 0.131748 0)
(5.4034 0.132775 0)
(5.28001 0.126457 0)
(5.18564 0.114527 -8.97807e-19)
(5.12529 0.0969702 0)
(5.0931 0.0756149 -2.88236e-19)
(5.07961 0.0550982 0)
(5.07585 0.039053 0)
(5.07599 0.028554 0)
(5.07684 0.022146 0)
(5.07859 0.0188446 0)
(5.08128 0.017247 0)
(5.08703 0.0189703 -5.01367e-19)
(5.09262 0.0223241 0)
(5.09872 0.0306308 -2.40235e-19)
(5.09492 0.0378712 7.05163e-19)
(5.0864 0.0521139 0)
(5.05522 0.0588486 0)
(5.02743 0.081634 -4.39504e-19)
(4.96321 0.0872376 -4.29597e-19)
(4.9341 0.134958 4.1955e-19)
(4.83333 0.147007 4.10011e-19)
(0.114143 0.334327 6.86093e-19)
(0.306346 0.543581 6.81177e-19)
(0.667065 0.0537324 4.5047e-19)
(1.1408 -0.810141 2.23293e-19)
(1.6084 -1.7153 0)
(1.92088 -2.40896 -4.37535e-19)
(1.98836 -2.73645 2.17036e-19)
(1.8348 -2.69639 0)
(1.56748 -2.42856 2.13794e-19)
(1.30665 -2.11359 0)
(1.13448 -1.87862 -4.21213e-19)
(1.0741 -1.75568 0)
(1.11068 -1.71337 -2.07396e-19)
(1.22067 -1.71072 -4.11249e-19)
(1.38566 -1.71927 4.07626e-19)
(1.59136 -1.72412 0)
(1.82725 -1.71771 4.00213e-19)
(2.08462 -1.6961 0)
(2.35639 -1.65625 0)
(2.63653 -1.59576 3.88943e-19)
(2.91929 -1.51305 0)
(3.20061 -1.40432 -3.37916e-22)
(3.47428 -1.26938 0)
(3.73559 -1.10486 0)
(3.97794 -0.90897 4.24835e-22)
(4.19564 -0.685975 3.67567e-19)
(4.38455 -0.426099 3.63857e-19)
(4.54093 -0.147845 3.61343e-19)
(4.67258 0.169465 0)
(4.76303 0.511296 7.0959e-19)
(4.84874 0.881921 0)
(4.91099 1.3091 3.48339e-19)
(5.01223 1.7495 0)
(5.1348 2.29261 0)
(5.28158 2.85418 -3.39305e-19)
(5.50054 3.43378 0)
(5.63775 4.04067 3.33159e-19)
(5.66867 4.39667 6.54392e-22)
(5.27281 4.34137 -6.55527e-19)
(4.67809 3.78343 6.50392e-19)
(4.01519 2.77077 0)
(3.31646 1.37934 0)
(2.62889 -0.451632 3.22176e-19)
(2.07815 -2.60087 0)
(1.397 -4.36083 3.12513e-19)
(0.744714 -4.06782 -3.09797e-19)
(0.374706 -2.23147 -3.06932e-19)
(-0.312989 -0.450107 0)
(-1.02434 0.974554 2.99328e-19)
(-1.79522 2.10797 2.95444e-19)
(-2.81157 3.12916 -5.84144e-19)
(-4.20132 4.42497 2.87522e-19)
(-5.83887 6.02691 2.82996e-19)
(-7.39822 7.35886 0)
(-8.40602 7.83067 0)
(-8.72484 7.28566 -2.71024e-19)
(-8.55943 6.09416 0)
(-8.36383 4.80929 0)
(-8.23709 3.74171 5.19977e-19)
(-8.16725 2.90487 5.1153e-19)
(-8.17693 2.27784 0)
(-8.31189 1.86623 0)
(-8.54337 1.57484 0)
(-8.8425 1.3511 0)
(-9.18261 1.16556 4.6808e-19)
(-9.52698 0.980602 -4.57445e-19)
(-9.84746 0.775496 -4.521e-19)
(-10.1138 0.53721 -8.87365e-19)
(-10.3025 0.267482 0)
(-10.397 -0.0204331 2.17834e-21)
(-10.3905 -0.307276 0)
(-10.2863 -0.580263 4.21525e-19)
(-10.0943 -0.823881 1.80834e-21)
(-9.82293 -1.02657 4.13124e-19)
(-9.48491 -1.17485 -4.09602e-19)
(-9.10382 -1.25653 1.34637e-21)
(-8.715 -1.27014 0)
(-8.35321 -1.23285 -3.99415e-19)
(-8.0359 -1.17383 -3.97763e-19)
(-7.76011 -1.1166 -7.89066e-19)
(-7.51507 -1.07054 0)
(-7.29119 -1.03769 3.88979e-19)
(-7.0787 -1.01901 0)
(-6.86736 -1.01307 -7.69761e-19)
(-6.64957 -1.01607 3.83177e-19)
(-6.42064 -1.02421 -3.81181e-19)
(-6.17778 -1.03408 3.7929e-19)
(-5.92055 -1.04232 7.54003e-19)
(-5.65056 -1.04659 -3.7572e-19)
(-5.37042 -1.04565 3.7398e-19)
(-5.08338 -1.03879 0)
(-4.79336 -1.02547 -7.4066e-19)
(-4.50367 -1.00554 0)
(-4.21688 -0.979125 -7.33242e-19)