/*--------------------------------*- C++ -*----------------------------------*\
  =========                 |
  \\      /  F ield         | OpenFOAM: The Open Source CFD Toolbox
   \\    /   O peration     | Website:  https://openfoam.org
    \\  /    A nd           | Version:  9
     \\/     M anipulation  |
\*---------------------------------------------------------------------------*/
FoamFile
{
    format      ascii;
    class       volVectorField;
    location    "0.046";
    object      UMean;
}
// * * * * * * * * * * * * * * * * * * * * * * * * * * * * * * * * * * * * * //

dimensions      [0 1 -1 0 0 0 0];

internalField   nonuniform List<vector> 
12225
(
(9.86193 0.0447939 0)
(9.56807 0.0617275 0)
(9.26773 0.0597255 0)
(8.96212 0.0582882 0)
(8.66139 0.0575778 0)
(8.37005 0.0567327 0)
(8.09005 0.0555029 0)
(7.81808 0.0546326 0)
(7.55598 0.0535216 0)
(7.29673 0.053561 0)
(7.04816 0.0526238 0)
(6.79358 0.0548636 0)
(6.55307 0.0538124 0)
(6.28724 0.0620639 0)
(6.04195 0.0590851 0)
(5.73493 0.0827927 0)
(5.46577 0.0680668 0)
(5.06551 0.125406 0)
(10.0217 0.0505652 0)
(10.0829 0.0746366 0)
(10.1228 0.0739365 0)
(10.1367 0.075114 0)
(10.1338 0.078617 0)
(10.12 0.0817629 0)
(10.0981 0.0847201 0)
(10.0673 0.0870656 0)
(10.0296 0.0903875 0)
(9.98256 0.0928283 0)
(9.93072 0.0977118 0)
(9.86746 0.100751 0)
(9.8021 0.109741 0)
(9.71792 0.115302 0)
(9.63684 0.133162 0)
(9.51948 0.144245 0)
(9.41679 0.17212 0)
(9.23945 0.183167 0)
(10.0079 0.0309915 0)
(10.0393 0.0536533 0)
(10.0675 0.0568748 0)
(10.0837 0.0590955 0)
(10.0931 0.0635795 0)
(10.1003 0.0684345 0)
(10.1074 0.0727443 0)
(10.1126 0.0769708 0)
(10.1167 0.0812457 0)
(10.1175 0.0863677 0)
(10.1174 0.091771 0)
(10.1128 0.0993658 0)
(10.1089 0.107838 0)
(10.0986 0.121482 0)
(10.0931 0.136784 0)
(10.0795 0.160633 0)
(10.0778 0.183094 0)
(10.0636 0.207013 0)
(10.0132 0.0290144 0)
(10.0384 0.0573034 0)
(10.0621 0.0635952 0)
(10.0763 0.0654125 0)
(10.0836 0.0693082 0)
(10.0882 0.0739568 0)
(10.0922 0.0784178 0)
(10.0953 0.0823244 0)
(10.0974 0.0867993 0)
(10.0979 0.0914945 0)
(10.0976 0.0977907 0)
(10.0958 0.10486 0)
(10.0943 0.114793 0)
(10.0924 0.126933 0)
(10.0933 0.143243 0)
(10.0973 0.162999 0)
(10.1085 0.183422 0)
(10.1272 0.201322 0)
(10.0104 0.0195002 0)
(10.0286 0.0475803 0)
(10.0483 0.0554925 0)
(10.0623 0.0578456 0)
(10.07 0.0618433 0)
(10.0743 0.0672827 0)
(10.0774 0.0727093 0)
(10.0799 0.0777832 0)
(10.0814 0.0828787 0)
(10.0819 0.0884293 0)
(10.0814 0.0949314 0)
(10.0802 0.102749 0)
(10.0786 0.112538 0)
(10.0778 0.124714 0)
(10.0786 0.139569 0)
(10.0835 0.156472 0)
(10.0927 0.172976 0)
(10.1084 0.1852 0)
(9.99252 0.0173434 0)
(10.0029 0.0450204 0)
(10.0179 0.055133 0)
(10.0295 0.0587631 0)
(10.0359 0.0629176 0)
(10.0396 0.0683778 0)
(10.0429 0.0739781 0)
(10.0463 0.0791927 0)
(10.0492 0.0845074 0)
(10.0515 0.0903045 0)
(10.0528 0.0970495 0)
(10.0537 0.105067 0)
(10.0543 0.114729 0)
(10.0558 0.126339 0)
(10.0584 0.139657 0)
(10.0642 0.153968 0)
(10.0727 0.167108 0)
(10.0854 0.176599 0)
(9.98875 0.0164643 0)
(9.99695 0.0394156 0)
(10.01 0.050907 0)
(10.0219 0.0558279 0)
(10.0295 0.0599553 0)
(10.0338 0.065142 0)
(10.0367 0.0708214 0)
(10.0393 0.0763974 0)
(10.0416 0.0820476 0)
(10.0432 0.0881923 0)
(10.0441 0.0952034 0)
(10.0446 0.103389 0)
(10.0451 0.112969 0)
(10.0464 0.124056 0)
(10.049 0.136234 0)
(10.0539 0.148767 0)
(10.061 0.16003 0)
(10.0708 0.168554 0)
(10.0026 0.0120462 0)
(10.0077 0.0343841 0)
(10.0175 0.0471884 0)
(10.0278 0.0538849 0)
(10.0356 0.0589879 0)
(10.0406 0.0645666 0)
(10.0444 0.0705771 0)
(10.0479 0.0765649 0)
(10.0513 0.0825442 0)
(10.0542 0.0889218 0)
(10.0565 0.0960868 0)
(10.0583 0.104295 0)
(10.0599 0.11362 0)
(10.0619 0.123995 0)
(10.0648 0.134981 0)
(10.0689 0.145907 0)
(10.0746 0.155684 0)
(10.0813 0.163307 0)
(9.99658 0.0143411 0)
(10.0008 0.0329308 0)
(10.0085 0.044889 0)
(10.018 0.0517355 0)
(10.0265 0.0567303 0)
(10.0332 0.0618315 0)
(10.0384 0.0674319 0)
(10.0426 0.0733778 0)
(10.046 0.0796218 0)
(10.0487 0.0863404 0)
(10.0508 0.0938189 0)
(10.0525 0.102246 0)
(10.0542 0.111601 0)
(10.0564 0.121706 0)
(10.0592 0.132155 0)
(10.0634 0.142392 0)
(10.0681 0.151614 0)
(10.0741 0.159144 0)
(9.983 0.0107088 0)
(9.98764 0.0267419 0)
(9.99543 0.0394834 0)
(10.0046 0.0477893 0)
(10.0127 0.0537742 0)
(10.0183 0.0595196 0)
(10.0218 0.0657689 0)
(10.0244 0.0724565 0)
(10.0266 0.0793604 0)
(10.0288 0.0865138 0)
(10.0309 0.0940827 0)
(10.0331 0.102255 0)
(10.0354 0.111034 0)
(10.0384 0.120321 0)
(10.042 0.129738 0)
(10.0467 0.138919 0)
(10.0518 0.147224 0)
(10.0578 0.154354 0)
(9.97136 0.0112191 0)
(9.97353 0.0258606 0)
(9.97829 0.0369777 0)
(9.98491 0.0455248 0)
(9.99123 0.0522787 0)
(9.99618 0.0583141 0)
(10.0002 0.0643912 0)
(10.004 0.0707151 0)
(10.0082 0.0773189 0)
(10.0124 0.0843088 0)
(10.0164 0.0918403 0)
(10.0199 0.100036 0)
(10.0232 0.108783 0)
(10.0264 0.117932 0)
(10.0296 0.127073 0)
(10.0331 0.135951 0)
(10.0369 0.144061 0)
(10.0406 0.151304 0)
(10.0114 0.0106864 0)
(10.0118 0.0240685 0)
(10.0159 0.0346218 0)
(10.0223 0.0430436 0)
(10.0287 0.0498326 0)
(10.0341 0.0558833 0)
(10.0387 0.0619604 0)
(10.0428 0.068353 0)
(10.0467 0.075111 0)
(10.0503 0.0822905 0)
(10.0536 0.0899658 0)
(10.0565 0.0982091 0)
(10.0593 0.106887 0)
(10.062 0.115832 0)
(10.0649 0.124707 0)
(10.0675 0.133307 0)
(10.0706 0.141277 0)
(10.0726 0.14859 0)
(10.0058 0.0108205 0)
(10.0058 0.0194986 0)
(10.0088 0.0305139 0)
(10.0141 0.0399177 0)
(10.02 0.0471558 0)
(10.0258 0.0532484 0)
(10.0314 0.0591752 0)
(10.0366 0.0654787 0)
(10.0415 0.0722722 0)
(10.0461 0.0795985 0)
(10.0503 0.0874281 0)
(10.0543 0.0957438 0)
(10.0582 0.104431 0)
(10.062 0.113332 0)
(10.066 0.122186 0)
(10.0698 0.130823 0)
(10.0737 0.139008 0)
(10.077 0.146733 0)
(10.0279 0.0136247 0)
(10.0334 0.0215712 0)
(10.0393 0.0313286 0)
(10.0454 0.039387 0)
(10.0516 0.0456699 0)
(10.0572 0.0512527 0)
(10.062 0.0570688 0)
(10.066 0.0634767 0)
(10.0694 0.070459 0)
(10.0726 0.0779175 0)
(10.0759 0.085783 0)
(10.0793 0.0939979 0)
(10.0829 0.102428 0)
(10.0865 0.110973 0)
(10.0904 0.119426 0)
(10.094 0.127773 0)
(10.0979 0.135778 0)
(10.1011 0.143666 0)
(10.0042 0.00194779 0)
(10.0091 0.0142215 0)
(10.0147 0.0227361 0)
(10.0204 0.0303655 0)
(10.0259 0.0378805 0)
(10.031 0.0451401 0)
(10.0358 0.0520868 0)
(10.0407 0.0588731 0)
(10.0458 0.0657338 0)
(10.0511 0.0728771 0)
(10.0566 0.0803841 0)
(10.0623 0.088284 0)
(10.0679 0.0964814 0)
(10.0736 0.104906 0)
(10.0792 0.113359 0)
(10.0848 0.121838 0)
(10.0901 0.130112 0)
(10.0954 0.138433 0)
(10.0039 0.00794231 0)
(10.0054 0.0182302 0)
(10.0076 0.0253528 0)
(10.0112 0.0319416 0)
(10.0159 0.0385473 0)
(10.0214 0.044734 0)
(10.0272 0.0503932 0)
(10.0329 0.0559722 0)
(10.0386 0.0619687 0)
(10.0441 0.0686343 0)
(10.0496 0.0758799 0)
(10.0551 0.0835455 0)
(10.0608 0.0913701 0)
(10.0665 0.0993238 0)
(10.0722 0.107251 0)
(10.0779 0.115372 0)
(10.0832 0.123471 0)
(10.0885 0.132005 0)
(9.99621 -0.00207311 0)
(9.99675 0.00653253 0)
(9.99904 0.0139796 0)
(10.0034 0.0208322 0)
(10.0089 0.027314 0)
(10.0147 0.0335177 0)
(10.0206 0.0396365 0)
(10.0263 0.0458876 0)
(10.0319 0.05236 0)
(10.0376 0.0590912 0)
(10.0435 0.0660228 0)
(10.0497 0.0732013 0)
(10.056 0.0805786 0)
(10.0623 0.0882967 0)
(10.0685 0.0962258 0)
(10.0746 0.104559 0)
(10.0803 0.11297 0)
(10.0859 0.121839 0)
(9.99974 0.0115057 0)
(9.99894 0.0146884 0)
(10 0.0185593 0)
(10.0035 0.0226422 0)
(10.0083 0.0269277 0)
(10.0138 0.0315306 0)
(10.0197 0.0364384 0)
(10.0258 0.0415588 0)
(10.0321 0.0468146 0)
(10.0386 0.0522835 0)
(10.0454 0.0580527 0)
(10.0523 0.0642928 0)
(10.0593 0.0709838 0)
(10.0663 0.0782084 0)
(10.0734 0.0857371 0)
(10.0804 0.0936931 0)
(10.0875 0.101698 0)
(10.0944 0.110141 0)
(10.006 -0.0019631 0)
(10.0126 0.00087386 0)
(10.0195 0.00450473 0)
(10.0264 0.00817557 0)
(10.0333 0.0120195 0)
(10.0403 0.0162682 0)
(10.0475 0.0208093 0)
(10.0548 0.0254939 0)
(10.062 0.030291 0)
(10.069 0.0353271 0)
(10.076 0.0406831 0)
(10.083 0.0464651 0)
(10.0901 0.0526023 0)
(10.0974 0.0591526 0)
(10.1048 0.065914 0)
(10.1124 0.0730299 0)
(10.1202 0.0801543 0)
(10.128 0.0876751 0)
(9.99828 -0.00675076 0)
(9.99919 -0.00164549 0)
(10.0021 0.0008036 0)
(10.007 0.00265975 0)
(10.0128 0.00508814 0)
(10.019 0.0083805 0)
(10.0253 0.0123439 0)
(10.0319 0.016719 0)
(10.0386 0.0212919 0)
(10.0456 0.0259571 0)
(10.0529 0.0306477 0)
(10.0606 0.0354471 0)
(10.0685 0.0403826 0)
(10.0768 0.0456194 0)
(10.0854 0.0510608 0)
(10.0942 0.0568729 0)
(10.1033 0.0627437 0)
(10.1127 0.0690055 0)
(9.99199 -0.002614 0)
(9.99245 -0.00470085 0)
(9.99589 -0.00552386 0)
(10.0025 -0.00467195 0)
(10.0102 -0.00271505 0)
(10.0178 -7.07162e-05 0)
(10.0251 0.00301257 0)
(10.0326 0.00629176 0)
(10.0407 0.00960617 0)
(10.0494 0.012976 0)
(10.0584 0.0164529 0)
(10.0676 0.0201574 0)
(10.0768 0.0240772 0)
(10.0861 0.0282898 0)
(10.0954 0.032657 0)
(10.1049 0.0373259 0)
(10.1147 0.0420374 0)
(10.1245 0.0471387 0)
(10.0144 -0.00387013 0)
(10.0163 -0.0108706 0)
(10.0197 -0.0124291 0)
(10.0253 -0.0114334 0)
(10.0327 -0.00948329 0)
(10.0411 -0.00719169 0)
(10.0499 -0.00484503 0)
(10.0588 -0.00250673 0)
(10.0679 -7.87852e-05 0)
(10.0771 0.00262344 0)
(10.0864 0.00567604 0)
(10.0958 0.00907592 0)
(10.1053 0.0126683 0)
(10.1149 0.0164074 0)
(10.1248 0.0201327 0)
(10.1349 0.0239537 0)
(10.1452 0.0276888 0)
(10.1556 0.0316405 0)
(9.98531 -0.00373099 0)
(9.99268 -0.0110774 0)
(10.0004 -0.015106 0)
(10.0077 -0.0166548 0)
(10.0152 -0.0167889 0)
(10.0232 -0.0162131 0)
(10.0317 -0.0151395 0)
(10.0405 -0.0135721 0)
(10.0497 -0.0115953 0)
(10.0592 -0.00934246 0)
(10.0691 -0.00694063 0)
(10.0793 -0.00443043 0)
(10.0897 -0.00185805 0)
(10.1002 0.000837759 0)
(10.1109 0.00360146 0)
(10.1217 0.00656947 0)
(10.1325 0.00959438 0)
(10.1434 0.0129224 0)
(10.0175 -0.0144664 0)
(10.0258 -0.0181733 0)
(10.0362 -0.0217932 0)
(10.0466 -0.0229617 0)
(10.0559 -0.0221666 0)
(10.0645 -0.0208303 0)
(10.0729 -0.0196651 0)
(10.0813 -0.0186413 0)
(10.09 -0.017497 0)
(10.0991 -0.0160535 0)
(10.1084 -0.0143037 0)
(10.118 -0.0122856 0)
(10.1277 -0.0101002 0)
(10.1376 -0.00777713 0)
(10.1476 -0.00542753 0)
(10.1577 -0.00298149 0)
(10.1678 -0.000574544 0)
(10.1781 0.00198238 0)
(9.98346 -0.015869 0)
(9.98854 -0.0238853 0)
(9.99739 -0.0283757 0)
(10.0078 -0.0301305 0)
(10.0179 -0.0304177 0)
(10.0277 -0.0301803 0)
(10.0375 -0.0297444 0)
(10.0473 -0.0290779 0)
(10.0572 -0.0281714 0)
(10.067 -0.0270976 0)
(10.0768 -0.0259145 0)
(10.0867 -0.0245894 0)
(10.0969 -0.0231146 0)
(10.1075 -0.021458 0)
(10.1185 -0.019693 0)
(10.1296 -0.0178032 0)
(10.1408 -0.0159029 0)
(10.1521 -0.0138713 0)
(10.0087 -0.0161998 0)
(10.0163 -0.027812 0)
(10.0272 -0.0315356 0)
(10.0382 -0.0318277 0)
(10.0473 -0.0316365 0)
(10.0553 -0.0317282 0)
(10.0632 -0.0317628 0)
(10.0717 -0.0313411 0)
(10.0809 -0.0304797 0)
(10.0905 -0.0294412 0)
(10.1002 -0.028465 0)
(10.1102 -0.0276055 0)
(10.1203 -0.0268104 0)
(10.1306 -0.0259284 0)
(10.1411 -0.0249031 0)
(10.1517 -0.0236476 0)
(10.1623 -0.022253 0)
(10.1731 -0.0206376 0)
(9.98232 -0.0243828 0)
(9.99394 -0.0364321 0)
(10.0071 -0.0406293 0)
(10.0184 -0.0410287 0)
(10.0276 -0.0410883 0)
(10.0361 -0.0415742 0)
(10.045 -0.0419869 0)
(10.0544 -0.0419996 0)
(10.0642 -0.0417012 0)
(10.0742 -0.041269 0)
(10.0843 -0.0407871 0)
(10.0945 -0.0402351 0)
(10.1048 -0.0395794 0)
(10.1152 -0.0387819 0)
(10.1257 -0.0378746 0)
(10.1363 -0.0368556 0)
(10.147 -0.0358073 0)
(10.1577 -0.0346935 0)
(9.99129 -0.0249173 0)
(10.006 -0.0332648 0)
(10.0228 -0.0359469 0)
(10.0362 -0.0368602 0)
(10.0467 -0.0381048 0)
(10.057 -0.0394444 0)
(10.0683 -0.0402326 0)
(10.0803 -0.0404033 0)
(10.0926 -0.0402423 0)
(10.1049 -0.0400433 0)
(10.117 -0.0399217 0)
(10.1289 -0.0398848 0)
(10.1408 -0.0398335 0)
(10.1526 -0.0397018 0)
(10.1643 -0.0394135 0)
(10.1759 -0.0390102 0)
(10.1878 -0.0385029 0)
(10.1994 -0.0379752 0)
(9.99778 -0.0375131 0)
(10.0314 -0.0525313 0)
(10.0619 -0.0509591 0)
(10.0835 -0.0504876 0)
(10.0977 -0.0519832 0)
(10.1075 -0.0533976 0)
(10.115 -0.0541106 0)
(10.121 -0.0543384 0)
(10.1256 -0.0543366 0)
(10.129 -0.0542505 0)
(10.1312 -0.054099 0)
(10.1324 -0.0539056 0)
(10.1324 -0.0536082 0)
(10.1318 -0.053244 0)
(10.1303 -0.0527626 0)
(10.1286 -0.0522811 0)
(10.126 -0.0517593 0)
(10.124 -0.0513575 0)
(9.90945 -0.0357025 0)
(9.74157 -0.0496479 0)
(9.57382 -0.0479188 0)
(9.40599 -0.0463806 0)
(9.24187 -0.0459793 0)
(9.08397 -0.04556 0)
(8.93323 -0.0449112 0)
(8.78977 -0.0441375 0)
(8.65333 -0.043292 0)
(8.52375 -0.0424217 0)
(8.4006 -0.0415606 0)
(8.28385 -0.0407359 0)
(8.17285 -0.0399001 0)
(8.06808 -0.0390513 0)
(7.9684 -0.0381575 0)
(7.87508 -0.0373022 0)
(7.78555 -0.036475 0)
(7.70293 -0.0358171 0)
(-0.222765 0.460825 -1.05495e-21)
(-0.499563 0.229527 1.07811e-21)
(-0.644568 0.034023 0)
(-0.661045 -0.140171 0)
(-0.485697 -0.323783 0)
(-0.169308 -0.469773 -1.0263e-21)
(0.2735 -0.568284 0)
(0.790875 -0.606281 0)
(1.33703 -0.603268 0)
(1.86953 -0.566324 0)
(2.36716 -0.505063 1.08999e-21)
(2.81281 -0.429072 0)
(3.1927 -0.345364 0)
(3.49814 -0.258987 0)
(3.72525 -0.172797 0)
(3.87369 -0.0885675 1.67813e-21)
(3.94353 -0.00666954 0)
(3.93674 0.0722245 0)
(3.8531 0.148779 0)
(3.69751 0.221001 0)
(3.46797 0.289123 0)
(3.17953 0.346172 0)
(2.82468 0.39542 0)
(2.43615 0.412144 1.5022e-21)
(1.99497 0.438589 -1.4419e-21)
(1.54827 0.389202 1.39698e-21)
(1.10696 0.279786 1.37114e-21)
(0.665676 0.109491 0)
(0.307231 0.00607809 0)
(-0.0730579 0.169607 -1.38267e-21)
(-0.513177 0.282099 -1.42182e-21)
(-1.00868 0.310941 0)
(-1.51797 0.289462 0)
(-1.97063 0.209847 -1.65568e-21)
(-2.30418 0.0947808 0)
(-2.51649 0.00394848 0)
(-2.60323 -0.066712 1.81781e-21)
(-2.59393 -0.119072 0)
(-2.53779 -0.123647 1.94194e-21)
(-2.50761 -0.0641848 4.09585e-21)
(-2.54843 0.00470927 0)
(-2.66438 0.0557419 0)
(-2.86333 0.0978847 0)
(-3.10102 0.0881327 0)
(-3.30019 0.102166 0)
(-3.55053 0.120765 4.80052e-21)
(-3.82271 -0.0636179 4.93135e-21)
(-4.17291 -0.0875348 5.09068e-21)
(-4.55894 0.279716 0)
(-5.21573 0.462718 -5.22458e-21)
(-5.77977 0.406331 0)
(-6.29319 0.370681 5.5715e-21)
(-6.77327 0.3395 5.82042e-21)
(-7.20556 0.320348 0)
(-7.59456 0.28872 0)
(-7.94451 0.247676 0)
(-8.26238 0.230491 6.87921e-21)
(-8.56183 0.229724 0)
(-8.8371 0.202656 0)
(-9.05887 0.166567 0)
(-9.23787 0.133949 0)
(-9.3741 0.102487 0)
(-9.47105 0.0740264 0)
(-9.53149 0.0480074 0)
(-9.5576 0.024206 0)
(-9.55124 0.00243983 -8.0736e-21)
(-9.51389 -0.0175814 0)
(-9.44696 -0.0359435 0)
(-9.35271 -0.0527946 7.66313e-21)
(-9.23243 -0.0681944 7.4286e-21)
(-9.08761 -0.0821817 0)
(-8.92014 -0.0947417 -6.83111e-21)
(-8.73171 -0.105868 6.47724e-21)
(-8.52434 -0.115497 0)
(-8.30022 -0.123599 -5.68714e-21)
(-8.06174 -0.130151 0)
(-7.81129 -0.135217 0)
(-7.55121 -0.13893 4.38852e-21)
(-7.28354 -0.141498 0)
(-7.00987 -0.143219 -3.51243e-21)
(-6.73133 -0.144405 0)
(-6.44844 -0.145397 2.66358e-21)
(-6.16112 -0.146527 2.25373e-21)
(-5.86882 -0.148068 1.85413e-21)
(-5.57053 -0.150189 2.92878e-21)
(-5.26497 -0.153005 -2.16768e-21)
(-4.9508 -0.156442 0)
(-4.62677 -0.160334 0)
(-4.29196 -0.164424 0)
(-3.94607 -0.16835 7.07953e-22)
(-3.58977 -0.171791 1.37889e-21)
(-3.22439 -0.174329 -2.02215e-21)
(-2.85225 -0.175561 0)
(-2.47625 -0.175224 3.19547e-21)
(-2.09983 -0.17316 3.70981e-21)
(-1.7264 -0.16942 4.1674e-21)
(-1.35906 -0.164222 0)
(-1.00031 -0.157915 0)
(-0.652105 -0.150861 0)
(-0.31571 -0.143406 5.40578e-21)
(0.0079107 -0.136223 0)
(0.318282 -0.128805 0)
(0.615669 -0.121557 -5.81185e-21)
(0.899873 -0.11434 0)
(1.17095 -0.107233 0)
(1.42883 -0.100153 -5.93389e-21)
(1.67342 -0.0931567 0)
(1.90452 -0.0862606 0)
(2.12201 -0.0795741 5.88239e-21)
(2.32599 -0.0730681 5.83909e-21)
(2.51685 -0.0668144 0)
(2.69498 -0.0608312 -5.72576e-21)
(2.8609 -0.0551829 0)
(3.01518 -0.049891 5.58797e-21)
(3.15846 -0.0449847 0)
(3.29139 -0.0404027 5.4366e-21)
(3.41459 -0.0361366 5.35838e-21)
(3.5286 -0.032144 0)
(3.63387 -0.0283748 0)
(3.73075 -0.0247858 0)
(3.81951 -0.0213364 0)
(3.9003 -0.0179886 0)
(3.97322 -0.0147149 0)
(4.03828 -0.0114965 0)
(4.09551 -0.00832553 4.7402e-21)
(4.14488 -0.00520687 -4.66783e-21)
(4.18643 -0.002154 0)
(4.2202 0.000815182 0)
(4.24631 0.00367466 0)
(4.26494 0.00640022 0)
(4.27632 0.00896761 -8.67575e-21)
(4.28075 0.0113605 0)
(4.27858 0.0135655 8.4494e-21)
(4.27018 0.0155662 -8.34524e-21)
(4.25601 0.0173519 0)
(4.23651 0.0189455 0)
(4.21212 0.0203928 0)
(4.18317 0.0216931 7.98612e-21)
(4.15002 0.0227758 7.90918e-21)
(4.11308 0.0236208 0)
(4.07272 0.0243294 7.76771e-21)
(4.02923 0.0249717 7.70219e-21)
(3.98295 0.0254202 -7.63949e-21)
(3.93446 0.0253802 0)
(3.88475 0.0246126 0)
(3.83499 0.0232237 -7.46438e-21)
(3.78612 0.0216442 0)
(3.73862 0.0202538 0)
(3.69266 0.0190853 0)
(3.64842 0.0179465 0)
(3.60609 0.0167382 7.20509e-21)
(3.56573 0.0155847 7.15717e-21)
(3.52706 0.0147064 0)
(3.48954 0.0142459 7.0644e-21)
(3.45254 0.0141755 0)
(3.41564 0.0143216 0)
(3.3786 0.0144709 6.92836e-21)
(3.34151 0.014432 0)
(3.30461 0.0140454 6.83834e-21)
(3.26846 0.0131867 0)
(3.23379 0.011826 0)
(3.20156 0.0101095 6.7066e-21)
(3.17229 0.00832841 0)
(3.14636 0.00676707 6.62403e-21)
(3.12313 0.00558522 0)
(3.10247 0.00477401 0)
(3.08302 0.00428395 0)
(3.06514 0.00398788 -6.47384e-21)
(3.04687 0.00397223 0)
(3.02953 0.00406345 6.40617e-21)
(3.00991 0.00469932 0)
(2.99019 0.00524616 0)
(2.96592 0.00705769 0)
(2.93817 0.00789483 0)
(2.9054 0.0121936 0)
(2.85594 0.0126116 0)
(2.81319 0.0237525 0)
(2.70131 0.0213256 -1.25348e-20)
(2.6632 0.0554854 0)
(2.34636 0.0448534 0)
(0.00521921 0.913657 3.252e-21)
(0.0602141 0.579956 -3.29813e-21)
(0.0860225 0.227657 0)
(0.279407 -0.171978 2.29007e-21)
(0.621199 -0.698118 0)
(1.08885 -1.15514 1.02185e-21)
(1.60187 -1.46167 -2.28113e-21)
(2.11091 -1.61159 -2.32852e-21)
(2.58855 -1.62838 0)
(3.02176 -1.54465 -2.63226e-21)
(3.40255 -1.39232 -1.08641e-21)
(3.72569 -1.19846 0)
(3.98778 -0.983169 0)
(4.18935 -0.759539 0)
(4.3321 -0.535977 0)
(4.41854 -0.317173 -1.67367e-21)
(4.45076 -0.106359 0)
(4.43244 0.0951676 4.05257e-21)
(4.36533 0.285482 0)
(4.25189 0.46554 0)
(4.09349 0.631074 -3.86422e-21)
(3.89069 0.783172 0)
(3.65254 0.907713 3.58628e-21)
(3.37422 1.01909 -1.49426e-21)
(3.07948 1.07707 1.43343e-21)
(2.73081 1.09724 -1.38808e-21)
(2.29623 1.18264 -1.36192e-21)
(1.75596 1.24712 0)
(1.11787 1.2315 0)
(0.410814 1.19171 1.37737e-21)
(-0.227206 1.20572 -1.79218e-21)
(-0.787009 1.22932 0)
(-1.31879 1.17523 0)
(-1.7793 1.00419 1.65453e-21)
(-2.18283 0.733437 0)
(-2.51769 0.408952 0)
(-2.74194 0.0719393 -1.81259e-21)
(-2.87828 -0.143881 0)
(-2.99617 -0.150364 2.55144e-21)
(-3.13587 0.0130791 -4.08426e-21)
(-3.32103 0.201699 0)
(-3.54596 0.39211 0)
(-3.79661 0.484606 -9.86488e-21)
(-4.13024 0.455686 -9.90495e-21)
(-4.54129 0.52793 -1.00863e-20)
(-4.91808 0.656634 5.52132e-21)
(-5.48265 0.93776 -4.91856e-21)
(-6.14818 1.1299 -1.60411e-20)
(-6.59498 1.17473 1.12383e-20)
(-7.07305 1.152 5.20886e-21)
(-7.46899 1.04742 0)
(-7.853 0.97617 -5.55678e-21)
(-8.18583 0.874018 6.80486e-21)
(-8.47572 0.771614 0)
(-8.73121 0.68617 0)
(-8.96613 0.625039 0)
(-9.16383 0.563845 -6.86785e-21)
(-9.32524 0.491259 0)
(-9.4521 0.406461 1.53365e-20)
(-9.54411 0.323613 0)
(-9.60888 0.245551 1.60521e-20)
(-9.64632 0.172671 0)
(-9.6597 0.105667 -1.65031e-20)
(-9.64979 0.0436871 0)
(-9.61772 -0.0139125 1.66028e-20)
(-9.56396 -0.0678048 -8.43563e-21)
(-9.48884 -0.118587 0)
(-9.3925 -0.166538 -1.60151e-20)
(-9.27412 -0.211738 -7.66348e-21)
(-9.13391 -0.254078 -7.42923e-21)
(-8.97244 -0.293278 0)
(-8.79027 -0.329027 -7.06326e-21)
(-8.58888 -0.360976 -6.47791e-21)
(-8.36995 -0.388812 0)
(-8.13551 -0.412321 5.68768e-21)
(-7.88779 -0.431425 -1.06817e-20)
(-7.62911 -0.446242 0)
(-7.3617 -0.457137 -4.38887e-21)
(-7.08754 -0.464699 0)
(-6.80812 -0.469765 1.06435e-20)
(-6.5244 -0.473253 0)
(-6.23676 -0.476144 -8.09124e-21)
(-5.94496 -0.479368 -2.25396e-21)
(-5.64825 -0.483711 1.9589e-21)
(-5.34547 -0.489694 3.14733e-21)
(-5.03522 -0.497599 -2.39572e-21)
(-4.71604 -0.507326 0)
(-4.38667 -0.518452 0)
(-4.04621 -0.530275 0)
(-3.69433 -0.541837 -1.88197e-21)
(-3.33138 -0.551997 -1.37775e-21)
(-2.95899 -0.559477 2.02094e-21)
(-2.57962 -0.563098 0)
(-2.19661 -0.56202 3.01511e-21)
(-1.81369 -0.555846 -3.70825e-21)
(-1.4346 -0.54473 -4.16572e-21)
(-1.06255 -0.529347 0)
(-0.699984 -0.510713 0)
(-0.348627 -0.489999 0)
(-0.00959829 -0.468413 -5.40321e-21)
(0.316647 -0.446727 0)
(0.630117 -0.425118 1.13253e-20)
(0.931144 -0.403909 1.73314e-20)
(1.21975 -0.382966 -1.16594e-20)
(1.49602 -0.362277 0)
(1.75987 -0.341693 -5.8534e-21)
(2.01121 -0.32128 0)
(2.24974 -0.301144 -1.17558e-20)
(2.47533 -0.281502 5.81871e-21)
(2.68814 -0.262347 5.7804e-21)
(2.8885 -0.243848 0)
(3.07684 -0.226188 1.71203e-20)
(3.25364 -0.209532 -1.12686e-20)
(3.41949 -0.19393 -5.58441e-21)
(3.57508 -0.179406 0)
(3.72109 -0.165875 -5.43301e-21)
(3.85814 -0.153267 -1.6034e-20)
(3.98679 -0.141465 0)
(4.10751 -0.130334 -1.03682e-20)
(4.22069 -0.119741 -1.02128e-20)
(4.32659 -0.109564 -1.00583e-20)
(4.42542 -0.0996996 0)
(4.51728 -0.0900703 0)
(4.60224 -0.0806266 0)
(4.68033 -0.071348 4.72182e-21)
(4.75157 -0.0622433 4.66441e-21)
(4.81599 -0.0533441 0)
(4.87371 -0.0446985 9.0391e-21)
(4.92486 -0.0363613 8.90754e-21)
(4.96965 -0.0283844 0)
(5.00835 -0.0208162 8.66854e-21)
(5.04129 -0.0136992 1.70884e-20)
(5.06884 -0.00707327 -8.442e-21)
(5.0914 -0.000974687 -8.32402e-21)
(5.10937 0.00457395 0)
(5.12313 0.00958616 0)
(5.13306 0.0141095 0)
(5.13962 0.0182024 -7.97795e-21)
(5.14314 0.0219074 7.89209e-21)
(5.14374 0.0252456 1.56482e-20)
(5.14149 0.0282225 -7.75907e-21)
(5.13661 0.0308157 7.68702e-21)
(5.12947 0.0329753 7.63051e-21)
(5.1204 0.0346204 0)
(5.10948 0.0356419 0)
(5.09653 0.0359742 -7.45197e-21)
(5.08134 0.0356562 0)
(5.06394 0.0347902 0)
(5.04494 0.0334993 1.45891e-20)
(5.02537 0.0319426 0)
(5.00617 0.0303168 7.19525e-21)
(4.98778 0.0288263 -7.1474e-21)
(4.97014 0.02762 0)
(4.9529 0.0267266 7.05447e-21)
(4.93581 0.0260643 0)
(4.91893 0.0255275 0)
(4.90265 0.0250463 -6.91862e-21)
(4.88741 0.0245649 1.37468e-20)
(4.8735 0.0239998 -6.82861e-21)
(4.86093 0.023219 0)
(4.84946 0.0220946 0)
(4.83876 0.0205724 6.69794e-21)
(4.82853 0.0187547 0)
(4.81859 0.01685 6.61566e-21)
(4.80878 0.0151509 0)
(4.7991 0.0137529 0)
(4.78929 0.0128281 0)
(4.77931 0.0121537 6.46453e-21)
(4.76878 0.0120762 0)
(4.75743 0.0119866 -6.39703e-21)
(4.74515 0.0130249 0)
(4.73071 0.0134916 0)
(4.71567 0.0166645 1.26164e-20)
(4.69485 0.0176434 -1.25688e-20)
(4.67632 0.0256001 0)
(4.64064 0.0265699 0)
(4.61936 0.0463945 0)
(4.54525 0.0462974 3.74836e-20)
(4.53008 0.100041 0)
(4.35549 0.102938 -2.50316e-20)
(0.0869265 0.487723 -5.20445e-23)
(0.220244 0.244582 4.35347e-21)
(0.519362 -0.317896 0)
(1.04332 -1.10323 -4.55088e-21)
(1.63381 -1.82371 0)
(2.17805 -2.32618 0)
(2.63468 -2.58068 -4.99129e-22)
(3.00193 -2.61839 2.32024e-21)
(3.29297 -2.49338 3.21779e-21)
(3.52161 -2.26039 2.62552e-21)
(3.69792 -1.96474 0)
(3.82953 -1.63911 0)
(3.92258 -1.3049 -4.21138e-21)
(3.98118 -0.974742 -8.80305e-21)
(4.00751 -0.655638 9.09616e-21)
(4.00261 -0.350816 0)
(3.96792 -0.062118 9.39076e-21)
(3.90491 0.209758 -4.05363e-21)
(3.81602 0.464368 0)
(3.70412 0.701755 9.12691e-21)
(3.5735 0.920801 3.86337e-21)
(3.42136 1.11537 -8.61093e-21)
(3.2524 1.29005 -3.58283e-21)
(3.0681 1.41059 0)
(2.85383 1.52291 7.6813e-21)
(2.54319 1.72926 7.41576e-21)
(2.18323 1.93329 0)
(1.75948 2.13963 7.04362e-21)
(1.27855 2.29158 0)
(0.755554 2.34437 7.00558e-21)
(0.205249 2.28739 3.19288e-21)
(-0.305791 2.15595 0)
(-0.776999 1.96166 0)
(-1.18398 1.67851 0)
(-1.57328 1.33932 0)
(-1.9102 0.93384 0)
(-2.24124 0.541939 0)
(-2.55226 0.279473 9.44195e-21)
(-2.89148 0.263627 -1.43711e-20)
(-3.28102 0.443723 0)
(-3.67728 0.664058 0)
(-4.14201 0.82029 0)
(-4.53903 1.03238 -9.49993e-22)
(-5.05555 1.17541 9.89628e-21)
(-5.5473 1.29303 2.11471e-20)
(-6.02596 1.48211 -2.16747e-20)
(-6.49755 1.64266 -1.17082e-20)
(-6.91476 1.70067 1.09549e-20)
(-7.22632 1.6964 1.18156e-21)
(-7.52866 1.63259 1.27367e-20)
(-7.77007 1.50852 0)
(-7.99363 1.36331 1.34511e-20)
(-8.1757 1.20594 1.22747e-21)
(-8.35414 1.07455 0)
(-8.51463 0.958032 0)
(-8.66168 0.85198 -1.50611e-20)
(-8.78028 0.741204 0)
(-8.87574 0.62534 0)
(-8.94946 0.507517 1.70418e-20)
(-9.00618 0.395213 3.30336e-20)
(-9.04588 0.289066 -1.6067e-20)
(-9.06848 0.190035 0)
(-9.07351 0.0977846 1.65206e-20)
(-9.06013 0.0112284 0)
(-9.02751 -0.0706414 1.76915e-20)
(-8.97485 -0.148786 1.65278e-20)
(-8.90133 -0.223948 -3.36204e-20)
(-8.80627 -0.296428 -1.69417e-20)
(-8.6892 -0.366065 0)
(-8.55016 -0.432368 3.11088e-20)
(-8.38959 -0.494549 0)
(-8.20854 -0.551708 4.24375e-20)
(-8.00846 -0.602974 2.70084e-20)
(-7.79131 -0.647626 2.53733e-20)
(-7.55938 -0.685191 -2.36469e-20)
(-7.31525 -0.715463 3.25511e-20)
(-7.06167 -0.738629 0)
(-6.80131 -0.75529 0)
(-6.53653 -0.766516 -1.63813e-20)
(-6.26907 -0.773755 -2.17344e-20)
(-5.99989 -0.778648 0)
(-5.72921 -0.782901 5.43284e-21)
(-5.45644 -0.788088 0)
(-5.18028 -0.795508 -1.17746e-20)
(-4.89887 -0.806021 3.40501e-22)
(-4.61007 -0.819976 -3.58558e-22)
(-4.31162 -0.837167 3.46347e-21)
(-4.0015 -0.856822 0)
(-3.67813 -0.877682 -6.09413e-22)
(-3.34068 -0.898037 3.90091e-22)
(-2.98938 -0.915841 0)
(-2.62582 -0.928823 0)
(-2.25298 -0.934906 0)
(-1.87495 -0.932596 -6.20805e-21)
(-1.4965 -0.92129 0)
(-1.12239 -0.90129 0)
(-0.756623 -0.87381 0)
(-0.402015 -0.84075 0)
(-0.060514 -0.804617 0)
(0.267077 -0.767272 -1.0518e-20)
(0.580968 -0.730127 0)
(0.881622 -0.693794 -1.13198e-20)
(1.16981 -0.65857 -1.15177e-20)
(1.44589 -0.624258 1.16541e-20)
(1.71025 -0.590684 0)
(1.96284 -0.55744 1.17791e-20)
(2.20355 -0.52451 0)
(2.43209 -0.492033 1.17515e-20)
(2.64827 -0.460025 -1.16934e-20)
(2.85225 -0.42872 -3.46511e-20)
(3.04425 -0.398503 0)
(3.2246 -0.36969 -3.4026e-20)
(3.39381 -0.342546 -1.11223e-20)
(3.55253 -0.317171 0)
(3.70142 -0.293575 -2.18394e-20)
(3.84116 -0.271692 -2.15484e-20)
(3.97238 -0.251374 3.19264e-20)
(4.09563 -0.232425 0)
(4.2114 -0.214619 1.03654e-20)
(4.32003 -0.197733 1.02102e-20)
(4.42177 -0.18156 3.00966e-20)
(4.51679 -0.165921 0)
(4.60514 -0.150684 0)
(4.68683 -0.135768 0)
(4.76187 -0.121138 9.4078e-21)
(4.83021 -0.106808 0)
(4.89187 -0.0928434 0)
(4.94688 -0.0793369 -9.03779e-21)
(4.99539 -0.0663917 -8.90633e-21)
(5.03761 -0.0541152 0)
(5.07387 -0.0426012 0)
(5.10458 -0.0319217 -1.70866e-20)
(5.13026 -0.0221159 0)
(5.15152 -0.0131835 1.66602e-20)
(5.16898 -0.00510217 1.64457e-20)
(5.18318 0.00214718 0)
(5.1946 0.00858876 0)
(5.20366 0.0142854 -1.59308e-20)
(5.21075 0.0193811 -1.26394e-23)
(5.21611 0.0240332 -1.1255e-23)
(5.21968 0.0282793 0)
(5.22122 0.0319953 -3.07489e-20)
(5.22064 0.0349954 0)
(5.21832 0.0371785 0)
(5.21487 0.0386437 0)
(5.2106 0.0396719 1.49049e-20)
(5.20524 0.0405077 0)
(5.19813 0.0410771 -2.93746e-20)
(5.18881 0.0409819 -1.45867e-20)
(5.17749 0.0398711 0)
(5.1651 0.0378603 -1.4388e-20)
(5.15283 0.0355547 0)
(5.14149 0.0336578 0)
(5.13117 0.0325126 -4.23179e-20)
(5.12144 0.031943 2.80286e-20)
(5.11181 0.031456 0)
(5.10215 0.0305956 2.76666e-20)
(5.09292 0.0291926 -1.37439e-20)
(5.08481 0.02734 0)
(5.07838 0.0251919 0)
(5.07374 0.0228723 0)
(5.07052 0.0204697 -4.01785e-20)
(5.06815 0.0181585 0)
(5.06604 0.0161066 -1.3227e-20)
(5.06388 0.0145422 0)
(5.06133 0.0134178 0)
(5.05845 0.0128916 0)
(5.05486 0.0126402 0)
(5.05094 0.0131504 0)
(5.04576 0.0136829 0)
(5.04031 0.0156216 -2.54451e-20)
(5.03236 0.0169944 0)
(5.0246 0.0214215 -1.26129e-20)
(5.01185 0.0237449 3.76761e-20)
(5.00117 0.0333651 0)
(4.98014 0.037092 0)
(4.96649 0.0590208 -2.49069e-20)
(4.93072 0.0667245 -2.49585e-20)
(4.91647 0.1203 2.48637e-20)
(4.86042 0.144735 2.50207e-20)
(-0.0537572 0.16155 -6.42975e-21)
(0.306148 -0.418213 -6.45001e-21)
(0.994888 -1.60567 -4.53753e-21)
(1.65865 -2.54583 -2.69767e-21)
(2.19449 -3.10378 0)
(2.57132 -3.31638 6.13714e-21)
(2.80581 -3.26543 -3.99516e-21)
(2.9359 -3.03714 0)
(3.00085 -2.70677 -3.21709e-21)
(3.03154 -2.33071 0)
(3.04752 -1.9437 9.0266e-21)
(3.0576 -1.56255 0)
(3.06294 -1.19303 4.21872e-21)
(3.06004 -0.837018 8.81981e-21)
(3.04432 -0.495514 -9.11428e-21)
(3.01181 -0.169801 0)
(2.96146 0.138484 -9.40968e-21)
(2.89268 0.428174 0)
(2.80682 0.699538 0)
(2.70597 0.952564 -9.14306e-21)
(2.59589 1.18806 0)
(2.47375 1.40302 -1.05287e-21)
(2.35201 1.57446 0)
(2.19566 1.76146 0)
(1.97826 2.01745 1.07971e-21)
(1.72798 2.28657 -7.41376e-21)
(1.45097 2.55516 -8.26532e-21)
(1.15991 2.79056 -7.03256e-21)
(0.856768 2.96004 0)
(0.540642 3.04534 -1.48478e-20)
(0.189405 3.02371 0)
(-0.180604 2.89357 -7.91984e-21)
(-0.563923 2.6753 0)
(-0.935289 2.37387 0)
(-1.31729 2.00888 8.51216e-21)
(-1.68615 1.57332 0)
(-2.0947 1.20525 -9.17573e-21)
(-2.54085 1.01764 2.19635e-22)
(-3.06193 1.09548 2.00988e-20)
(-3.63414 1.3386 -2.14474e-20)
(-4.21067 1.60598 0)
(-4.75377 1.74728 0)
(-5.23211 1.85312 -1.24062e-20)
(-5.6871 1.89595 0)
(-6.10255 1.98168 -1.10633e-20)
(-6.48732 2.12683 1.13736e-20)
(-6.79884 2.18292 1.17074e-20)
(-7.04509 2.14798 0)
(-7.23963 2.06388 -1.242e-20)
(-7.40882 1.92618 -1.27455e-20)
(-7.54235 1.75543 2.88082e-20)
(-7.66922 1.57991 -1.34621e-20)
(-7.78349 1.41512 -1.38548e-20)
(-7.90144 1.26972 0)
(-8.00647 1.13166 0)
(-8.10106 0.996085 1.50746e-20)
(-8.17751 0.85684 0)
(-8.24282 0.717491 0)
(-8.29633 0.580508 -3.24239e-20)
(-8.33935 0.44895 -3.30686e-20)
(-8.369 0.322595 0)
(-8.38499 0.202305 0)
(-8.38564 0.0875715 0)
(-8.3701 -0.0223423 0)
(-8.33703 -0.128339 -3.43594e-20)
(-8.28531 -0.231169 3.53501e-20)
(-8.21346 -0.331383 3.3669e-20)
(-8.12012 -0.429126 6.71829e-20)
(-8.0042 -0.524031 0)
(-7.8652 -0.615089 1.0188e-21)
(-7.70319 -0.700868 0)
(-7.51912 -0.779773 -2.85674e-20)
(-7.31468 -0.850373 8.10118e-22)
(-7.09223 -0.911464 -2.54108e-20)
(-6.85458 -0.962184 2.3682e-20)
(-6.60492 -1.00207 5.81632e-22)
(-6.3468 -1.03126 0)
(-6.08382 -1.05061 1.86831e-20)
(-5.81935 -1.06176 1.64066e-20)
(-5.55604 -1.06709 2.96165e-20)
(-5.2956 -1.06935 0)
(-5.03864 -1.07132 -1.15474e-20)
(-4.78462 -1.07556 0)
(-4.53194 -1.08417 1.6331e-20)
(-4.2781 -1.09851 -6.4338e-21)
(-4.02001 -1.11909 4.93603e-21)
(-3.75433 -1.1455 -3.4703e-21)
(-3.47773 -1.17643 -5.06157e-21)
(-3.18729 -1.20976 6.13414e-22)
(-2.88084 -1.24264 7.80012e-22)
(-2.55735 -1.2718 0)
(-2.21746 -1.29374 -5.95991e-21)
(-1.86395 -1.3051 0)
(-1.5014 -1.30343 -1.10055e-20)