/*--------------------------------*- C++ -*----------------------------------*\
  =========                 |
  \\      /  F ield         | OpenFOAM: The Open Source CFD Toolbox
   \\    /   O peration     | Website:  https://openfoam.org
    \\  /    A nd           | Version:  9
     \\/     M anipulation  |
\*---------------------------------------------------------------------------*/
FoamFile
{
    format      ascii;
    class       volSymmTensorField;
    location    "0.046";
    object      UPrime2Mean;
}
// * * * * * * * * * * * * * * * * * * * * * * * * * * * * * * * * * * * * * //

dimensions      [0 2 -2 0 0 0 0];

internalField   nonuniform List<symmTensor> 
12225
(
(-48.6152 -0.219304 0 0.00111056 0 0)
(-45.7805 -0.297424 0 -0.000974055 0 0)
(-42.9555 -0.278933 0 -0.00116108 0 0)
(-40.1651 -0.263099 0 -0.00120866 0 0)
(-37.509 -0.250969 0 -0.00123938 0 0)
(-35.0135 -0.238875 0 -0.00123544 0 0)
(-32.697 -0.22627 0 -0.00119389 0 0)
(-30.4999 -0.215771 0 -0.00116586 0 0)
(-28.4611 -0.205651 0 -0.00108718 0 0)
(-26.4621 -0.200298 0 -0.00108636 0 0)
(-24.6363 -0.193416 0 -0.000889232 0 0)
(-22.718 -0.198943 0 -0.00100609 0 0)
(-21.0156 -0.198148 0 -0.000241558 0 0)
(-18.9517 -0.230771 0 -0.00090327 0 0)
(-17.1551 -0.24533 0 0.00281358 0 0)
(-14.4808 -0.336216 0 -0.000707713 0 0)
(-12.1091 -0.416218 0 0.0225417 0 0)
(-7.53413 -0.625726 0 0.00628101 0 0)
(-50.2747 -0.246257 0 0.00124855 0 0)
(-50.9075 -0.375329 0 -0.00153275 0 0)
(-51.3267 -0.373824 0 -0.00187483 0 0)
(-51.4775 -0.380464 0 -0.00210403 0 0)
(-51.4622 -0.398656 0 -0.00244336 0 0)
(-51.3305 -0.414491 0 -0.00270388 0 0)
(-51.1234 -0.430877 0 -0.00296713 0 0)
(-50.807 -0.442348 0 -0.00306275 0 0)
(-50.4347 -0.461822 0 -0.00329964 0 0)
(-49.9342 -0.472526 0 -0.00307839 0 0)
(-49.4197 -0.503181 0 -0.00328162 0 0)
(-48.7161 -0.517231 0 -0.00214932 0 0)
(-48.0642 -0.579926 0 -0.00214302 0 0)
(-47.0531 -0.616657 0 0.00172168 0 0)
(-46.2194 -0.751382 0 0.00369812 0 0)
(-44.6291 -0.852085 0 0.0179365 0 0)
(-43.4526 -1.0871 0 0.0385904 0 0)
(-40.5961 -1.29822 0 0.115662 0 0)
(-50.0278 -0.146614 0 0.00285311 0 0)
(-50.3465 -0.260746 0 0.000371089 0 0)
(-50.6377 -0.283087 0 -0.000402899 0 0)
(-50.8047 -0.295436 0 -0.000692078 0 0)
(-50.9059 -0.317928 0 -0.000983122 0 0)
(-50.9869 -0.343146 0 -0.00127241 0 0)
(-51.0709 -0.367612 0 -0.00150304 0 0)
(-51.1309 -0.391444 0 -0.00165529 0 0)
(-51.1852 -0.41719 0 -0.00162489 0 0)
(-51.1956 -0.446819 0 -0.00145981 0 0)
(-51.2098 -0.480767 0 -0.00065677 0 0)
(-51.1579 -0.527843 0 0.000423243 0 0)
(-51.136 -0.58591 0 0.00364856 0 0)
(-51.0138 -0.680613 0 0.00780878 0 0)
(-50.9867 -0.794372 0 0.019933 0 0)
(-50.8113 -0.976525 0 0.0389377 0 0)
(-50.8287 -1.1514 0 0.0913991 0 0)
(-50.579 -1.36608 0 0.195753 0 0)
(-50.2136 -0.15382 0 0.00276101 0 0)
(-50.5121 -0.288402 0 0.000139988 0 0)
(-50.7712 -0.324054 0 -0.000834665 0 0)
(-50.9247 -0.332569 0 -0.0010929 0 0)
(-51.0076 -0.35074 0 -0.00133616 0 0)
(-51.0631 -0.373516 0 -0.00154148 0 0)
(-51.1114 -0.397312 0 -0.00166939 0 0)
(-51.1458 -0.418034 0 -0.00156341 0 0)
(-51.1706 -0.443632 0 -0.00131384 0 0)
(-51.1758 -0.469896 0 -0.00058461 0 0)
(-51.1772 -0.50839 0 0.000560787 0 0)
(-51.1606 -0.551722 0 0.00298484 0 0)
(-51.1556 -0.617304 0 0.00714362 0 0)
(-51.1452 -0.69999 0 0.0151734 0 0)
(-51.1845 -0.815334 0 0.0304017 0 0)
(-51.2633 -0.959416 0 0.0601517 0 0)
(-51.4471 -1.10943 0 0.1196 0 0)
(-51.7137 -1.24653 0 0.231382 0 0)
(-50.23 -0.0672259 0 0.00437888 0 0)
(-50.4503 -0.227718 0 0.0017339 0 0)
(-50.6646 -0.272117 0 0.000414872 0 0)
(-50.8167 -0.284761 0 0.000112369 0 0)
(-50.9054 -0.306192 0 -2.42878e-05 0 0)
(-50.9584 -0.335867 0 -0.000151684 0 0)
(-50.9964 -0.366761 0 -0.000196776 0 0)
(-51.0244 -0.395958 0 -2.13752e-05 0 0)
(-51.0432 -0.425733 0 0.000553602 0 0)
(-51.0525 -0.457654 0 0.0017373 0 0)
(-51.053 -0.496372 0 0.00390719 0 0)
(-51.0479 -0.543906 0 0.0076585 0 0)
(-51.0422 -0.606503 0 0.0142167 0 0)
(-51.0503 -0.68704 0 0.0257404 0 0)
(-51.0851 -0.788149 0 0.0462375 0 0)
(-51.1768 -0.905865 0 0.0837593 0 0)
(-51.329 -1.02063 0 0.149268 0 0)
(-51.5589 -1.1043 0 0.264281 0 0)
(-50.0191 -0.0811707 0 0.00463161 0 0)
(-50.1114 -0.230706 0 0.00162123 0 0)
(-50.2566 -0.277158 0 0.000275158 0 0)
(-50.3691 -0.292078 0 -6.48713e-05 0 0)
(-50.4287 -0.312279 0 -0.000203802 0 0)
(-50.4659 -0.340044 0 -0.000235234 0 0)
(-50.5053 -0.36915 0 -5.68212e-05 0 0)
(-50.5507 -0.396552 0 0.000492221 0 0)
(-50.5951 -0.425573 0 0.00154579 0 0)
(-50.635 -0.457693 0 0.00341489 0 0)
(-50.6682 -0.496323 0 0.00656738 0 0)
(-50.6991 -0.543523 0 0.0118453 0 0)
(-50.73 -0.602706 0 0.0206496 0 0)
(-50.7739 -0.675835 0 0.0355535 0 0)
(-50.837 -0.76161 0 0.0606408 0 0)
(-50.9408 -0.853913 0 0.103537 0 0)
(-51.0809 -0.936989 0 0.173426 0 0)
(-51.2683 -0.989134 0 0.287043 0 0)
(-49.8876 -0.0626717 0 0.00485221 0 0)
(-49.9684 -0.190869 0 0.00276524 0 0)
(-50.1062 -0.251634 0 0.00142878 0 0)
(-50.2355 -0.276697 0 0.00102282 0 0)
(-50.3178 -0.297674 0 0.00103374 0 0)
(-50.3634 -0.324207 0 0.00125195 0 0)
(-50.3951 -0.353804 0 0.00173969 0 0)
(-50.4255 -0.383367 0 0.00269162 0 0)
(-50.4546 -0.414016 0 0.00434695 0 0)
(-50.4797 -0.447828 0 0.00709439 0 0)
(-50.4987 -0.487181 0 0.011516 0 0)
(-50.516 -0.534189 0 0.0186478 0 0)
(-50.5355 -0.590865 0 0.030024 0 0)
(-50.5679 -0.657776 0 0.0484754 0 0)
(-50.6187 -0.732168 0 0.0778626 0 0)
(-50.7003 -0.807325 0 0.125195 0 0)
(-50.8083 -0.871436 0 0.197817 0 0)
(-50.9462 -0.908961 0 0.308078 0 0)
(-50.0266 -0.0495544 0 0.00531476 0 0)
(-50.055 -0.164129 0 0.00277774 0 0)
(-50.1438 -0.229861 0 0.00144531 0 0)
(-50.2503 -0.263563 0 0.00103692 0 0)
(-50.3354 -0.289277 0 0.00104904 0 0)
(-50.3949 -0.317887 0 0.0013805 0 0)
(-50.4437 -0.348994 0 0.0021081 0 0)
(-50.4933 -0.380073 0 0.00343123 0 0)
(-50.5453 -0.411362 0 0.00564683 0 0)
(-50.5953 -0.445272 0 0.00921618 0 0)
(-50.6393 -0.48432 0 0.0148065 0 0)
(-50.6775 -0.529924 0 0.0235951 0 0)
(-50.7142 -0.582686 0 0.0372303 0 0)
(-50.755 -0.641489 0 0.0586041 0 0)
(-50.8069 -0.703186 0 0.0912968 0 0)
(-50.8723 -0.761116 0 0.141426 0 0)
(-50.9527 -0.807097 0 0.214499 0 0)
(-51.0367 -0.828966 0 0.319592 0 0)
(-49.9942 -0.0747157 0 0.00516399 0 0)
(-50.0449 -0.166021 0 0.00296548 0 0)
(-50.1215 -0.225701 0 0.00193929 0 0)
(-50.221 -0.258564 0 0.00180042 0 0)
(-50.3194 -0.281947 0 0.00213524 0 0)
(-50.4043 -0.305695 0 0.00286527 0 0)
(-50.4735 -0.332268 0 0.0041122 0 0)
(-50.5297 -0.361528 0 0.0061056 0 0)
(-50.575 -0.39359 0 0.00915945 0 0)
(-50.6109 -0.429095 0 0.0138064 0 0)
(-50.6388 -0.469531 0 0.0207764 0 0)
(-50.6626 -0.515649 0 0.0312993 0 0)
(-50.687 -0.567171 0 0.0470212 0 0)
(-50.7179 -0.621985 0 0.0707021 0 0)
(-50.7574 -0.676968 0 0.105499 0 0)
(-50.8095 -0.726037 0 0.15652 0 0)
(-50.8654 -0.762729 0 0.227773 0 0)
(-50.9258 -0.777502 0 0.325956 0 0)
(-49.7584 -0.0300681 0 0.00561292 0 0)
(-49.8141 -0.120536 0 0.00378564 0 0)
(-49.8985 -0.18821 0 0.00261688 0 0)
(-50.0024 -0.229374 0 0.00248245 0 0)
(-50.0949 -0.257863 0 0.00285524 0 0)
(-50.1566 -0.286004 0 0.00367619 0 0)
(-50.1919 -0.317949 0 0.00508289 0 0)
(-50.2148 -0.352921 0 0.00733351 0 0)
(-50.2353 -0.389064 0 0.0108509 0 0)
(-50.2578 -0.426056 0 0.0162715 0 0)
(-50.2828 -0.464728 0 0.0244027 0 0)
(-50.3113 -0.505889 0 0.0365072 0 0)
(-50.3437 -0.549569 0 0.0541525 0 0)
(-50.3839 -0.594048 0 0.0798352 0 0)
(-50.4311 -0.636522 0 0.116149 0 0)
(-50.4885 -0.672014 0 0.167239 0 0)
(-50.546 -0.695771 0 0.235663 0 0)
(-50.6044 -0.700809 0 0.326395 0 0)
(-49.734 -0.0604168 0 0.00546199 0 0)
(-49.7395 -0.128308 0 0.0041533 0 0)
(-49.7735 -0.181378 0 0.00321009 0 0)
(-49.8363 -0.223482 0 0.00304891 0 0)
(-49.8994 -0.256458 0 0.00351069 0 0)
(-49.948 -0.285516 0 0.00469458 0 0)
(-49.9887 -0.314588 0 0.00670034 0 0)
(-50.0339 -0.344737 0 0.00975271 0 0)
(-50.0879 -0.376578 0 0.0142332 0 0)
(-50.1462 -0.410772 0 0.0207742 0 0)
(-50.2016 -0.4483 0 0.0301691 0 0)
(-50.2504 -0.489244 0 0.0436234 0 0)
(-50.2922 -0.53243 0 0.0625532 0 0)
(-50.3282 -0.575425 0 0.0891784 0 0)
(-50.3603 -0.614989 0 0.125534 0 0)
(-50.3885 -0.646901 0 0.174923 0 0)
(-50.4119 -0.667632 0 0.238747 0 0)
(-50.4235 -0.672059 0 0.320787 0 0)
(-50.015 -0.0438329 0 0.0059961 0 0)
(-50.0187 -0.113453 0 0.00440675 0 0)
(-50.0586 -0.165286 0 0.00323766 0 0)
(-50.1283 -0.205637 0 0.00315116 0 0)
(-50.2022 -0.237591 0 0.00390477 0 0)
(-50.2675 -0.265558 0 0.00544113 0 0)
(-50.3258 -0.293584 0 0.00783634 0 0)
(-50.3808 -0.323156 0 0.0113818 0 0)
(-50.4343 -0.354819 0 0.0165091 0 0)
(-50.4833 -0.388931 0 0.0238414 0 0)
(-50.5279 -0.425861 0 0.0341204 0 0)
(-50.5648 -0.465273 0 0.0484639 0 0)
(-50.5984 -0.505738 0 0.0681204 0 0)
(-50.6241 -0.544719 0 0.0950213 0 0)
(-50.6496 -0.57966 0 0.130703 0 0)
(-50.6613 -0.60687 0 0.177784 0 0)
(-50.6731 -0.624321 0 0.236858 0 0)
(-50.6542 -0.627736 0 0.310808 0 0)
(-50.2073 -0.0523746 0 0.00706167 0 0)
(-50.1844 -0.0923048 0 0.00594525 0 0)
(-50.199 -0.146581 0 0.00434371 0 0)
(-50.2469 -0.192472 0 0.00425375 0 0)
(-50.3092 -0.226772 0 0.00528012 0 0)
(-50.3762 -0.254603 0 0.00719669 0 0)
(-50.4439 -0.281078 0 0.0100624 0 0)
(-50.5096 -0.309648 0 0.014178 0 0)
(-50.5714 -0.341298 0 0.019992 0 0)
(-50.6267 -0.376245 0 0.0281042 0 0)
(-50.676 -0.414024 0 0.0392002 0 0)
(-50.7183 -0.453626 0 0.0543087 0 0)
(-50.7572 -0.493784 0 0.0744867 0 0)
(-50.7894 -0.531973 0 0.101362 0 0)
(-50.8203 -0.566218 0 0.136005 0 0)
(-50.8393 -0.593146 0 0.180486 0 0)
(-50.854 -0.611876 0 0.234686 0 0)
(-50.8424 -0.618507 0 0.30097 0 0)
(-50.297 -0.0817205 0 0.0088527 0 0)
(-50.365 -0.109294 0 0.00747065 0 0)
(-50.436 -0.157437 0 0.00610303 0 0)
(-50.5134 -0.195583 0 0.00603199 0 0)
(-50.5926 -0.221896 0 0.00703941 0 0)
(-50.6626 -0.243911 0 0.00908413 0 0)
(-50.7179 -0.268268 0 0.0121538 0 0)
(-50.7594 -0.297258 0 0.0164578 0 0)
(-50.7921 -0.330363 0 0.0223991 0 0)
(-50.8205 -0.366144 0 0.0305816 0 0)
(-50.8489 -0.403678 0 0.0416628 0 0)
(-50.8773 -0.441672 0 0.0565655 0 0)
(-50.9062 -0.478834 0 0.076137 0 0)
(-50.9317 -0.513081 0 0.101676 0 0)
(-50.9546 -0.543051 0 0.133808 0 0)
(-50.9677 -0.56666 0 0.174067 0 0)
(-50.9733 -0.583472 0 0.221865 0 0)
(-50.9583 -0.5917 0 0.279026 0 0)
(-49.9949 0.00534363 0 0.00939166 0 0)
(-50.069 -0.0570005 0 0.00830429 0 0)
(-50.1414 -0.0932644 0 0.00717389 0 0)
(-50.2107 -0.127661 0 0.00759904 0 0)
(-50.2702 -0.16474 0 0.00891784 0 0)
(-50.3199 -0.201176 0 0.011138 0 0)
(-50.3661 -0.235283 0 0.0145262 0 0)
(-50.4142 -0.267325 0 0.0194209 0 0)
(-50.4668 -0.298767 0 0.0261875 0 0)
(-50.5237 -0.331076 0 0.0352838 0 0)
(-50.5823 -0.364993 0 0.0471499 0 0)
(-50.6404 -0.400186 0 0.062442 0 0)
(-50.6948 -0.435805 0 0.0816595 0 0)
(-50.7446 -0.470104 0 0.105746 0 0)
(-50.787 -0.5019 0 0.134901 0 0)
(-50.8218 -0.529226 0 0.170296 0 0)
(-50.8427 -0.552029 0 0.210952 0 0)
(-50.8511 -0.568699 0 0.258453 0 0)
(-49.9423 -0.0357476 0 0.0107123 0 0)
(-49.9463 -0.0951214 0 0.00976961 0 0)
(-49.9523 -0.126246 0 0.00771581 0 0)
(-49.9813 -0.154698 0 0.0077211 0 0)
(-50.0268 -0.185639 0 0.0090929 0 0)
(-50.0834 -0.214098 0 0.0114946 0 0)
(-50.1445 -0.237878 0 0.0149982 0 0)
(-50.2049 -0.260062 0 0.0198951 0 0)
(-50.2613 -0.284851 0 0.0265052 0 0)
(-50.314 -0.314215 0 0.0351473 0 0)
(-50.3637 -0.347345 0 0.0461122 0 0)
(-50.4116 -0.38215 0 0.0599413 0 0)
(-50.4568 -0.416351 0 0.0770386 0 0)
(-50.499 -0.448634 0 0.0980792 0 0)
(-50.5346 -0.478413 0 0.122928 0 0)
(-50.5629 -0.505967 0 0.152266 0 0)
(-50.5774 -0.531658 0 0.18488 0 0)
(-50.5796 -0.55606 0 0.221841 0 0)
(-49.9245 0.0146098 0 0.0106447 0 0)
(-49.9162 -0.0182536 0 0.00993271 0 0)
(-49.924 -0.0490417 0 0.0078985 0 0)
(-49.9648 -0.0800447 0 0.00816817 0 0)
(-50.0237 -0.110436 0 0.0100037 0 0)
(-50.086 -0.13929 0 0.0129619 0 0)
(-50.1443 -0.167462 0 0.0169417 0 0)
(-50.1963 -0.196392 0 0.0220833 0 0)
(-50.2437 -0.226643 0 0.0286492 0 0)
(-50.29 -0.258082 0 0.0369889 0 0)
(-50.3381 -0.290053 0 0.047363 0 0)
(-50.3874 -0.322446 0 0.0600671 0 0)
(-50.4353 -0.355151 0 0.075123 0 0)
(-50.4778 -0.388676 0 0.0927773 0 0)
(-50.5121 -0.422799 0 0.112661 0 0)
(-50.5357 -0.457731 0 0.135227 0 0)
(-50.5484 -0.49278 0 0.159447 0 0)
(-50.5489 -0.528171 0 0.186358 0 0)
(-49.9432 -0.0761727 0 0.0119403 0 0)
(-49.9298 -0.0849815 0 0.0110173 0 0)
(-49.9332 -0.0977306 0 0.00834438 0 0)
(-49.9677 -0.111534 0 0.00816816 0 0)
(-50.013 -0.127291 0 0.00965957 0 0)
(-50.0621 -0.145951 0 0.0121795 0 0)
(-50.1138 -0.16697 0 0.0155714 0 0)
(-50.1666 -0.189034 0 0.0199949 0 0)
(-50.2205 -0.211229 0 0.0256918 0 0)
(-50.2754 -0.234044 0 0.0328804 0 0)
(-50.3315 -0.258486 0 0.0416292 0 0)
(-50.3865 -0.285938 0 0.0519669 0 0)
(-50.4395 -0.316682 0 0.0637273 0 0)
(-50.4874 -0.350938 0 0.0769508 0 0)
(-50.5316 -0.387543 0 0.0913154 0 0)
(-50.5686 -0.426395 0 0.10714 0 0)
(-50.6032 -0.466167 0 0.123715 0 0)
(-50.6283 -0.507703 0 0.141698 0 0)
(-50.113 0.0225846 0 0.0100557 0 0)
(-50.1965 0.0130546 0 0.0103278 0 0)
(-50.2765 -0.00492109 0 0.00920788 0 0)
(-50.3576 -0.0221922 0 0.0093886 0 0)
(-50.4378 -0.0395597 0 0.0106857 0 0)
(-50.5154 -0.0597114 0 0.0128903 0 0)
(-50.5902 -0.081964 0 0.0159359 0 0)
(-50.6615 -0.104755 0 0.0198567 0 0)
(-50.7276 -0.127647 0 0.0246874 0 0)
(-50.7875 -0.151691 0 0.030453 0 0)
(-50.8424 -0.177863 0 0.037114 0 0)
(-50.8944 -0.207096 0 0.0446515 0 0)
(-50.9454 -0.239209 0 0.0529444 0 0)
(-50.9959 -0.274436 0 0.0620239 0 0)
(-51.0464 -0.31175 0 0.0716537 0 0)
(-51.0954 -0.351621 0 0.0820385 0 0)
(-51.1441 -0.392551 0 0.0926745 0 0)
(-51.1898 -0.436052 0 0.104006 0 0)
(-50.0429 0.0384612 0 0.0123684 0 0)
(-50.0615 0.010485 0 0.0116528 0 0)
(-50.094 0.00145172 0 0.00838676 0 0)
(-50.1442 -0.00256952 0 0.00747411 0 0)
(-50.1995 -0.0106335 0 0.0082105 0 0)
(-50.2531 -0.0256951 0 0.00987757 0 0)
(-50.3046 -0.0464215 0 0.0120772 0 0)
(-50.356 -0.0704617 0 0.0146614 0 0)
(-50.4084 -0.0957502 0 0.017674 0 0)
(-50.4623 -0.121113 0 0.0212517 0 0)
(-50.5181 -0.146028 0 0.0254759 0 0)
(-50.5769 -0.171246 0 0.0303675 0 0)
(-50.6388 -0.197491 0 0.0358239 0 0)
(-50.7042 -0.226232 0 0.041779 0 0)
(-50.7721 -0.257362 0 0.0480016 0 0)
(-50.8434 -0.29191 0 0.0545457 0 0)
(-50.9159 -0.328284 0 0.0611121 0 0)
(-50.9924 -0.368138 0 0.0678942 0 0)
(-49.8591 0.0326755 0 0.0108115 0 0)
(-49.8563 0.0438744 0 0.0100224 0 0)
(-49.8847 0.0497876 0 0.00775267 0 0)
(-49.9551 0.0451631 0 0.00733632 0 0)
(-50.0378 0.0334482 0 0.00786636 0 0)
(-50.1122 0.0174346 0 0.00888572 0 0)
(-50.1776 -0.00115429 0 0.0102788 0 0)
(-50.2441 -0.0204011 0 0.0120695 0 0)
(-50.3192 -0.0389413 0 0.014313 0 0)
(-50.4024 -0.0569226 0 0.017045 0 0)
(-50.4896 -0.0750982 0 0.0202381 0 0)
(-50.577 -0.0947706 0 0.0238458 0 0)
(-50.6633 -0.116299 0 0.0277772 0 0)
(-50.7479 -0.140414 0 0.0319972 0 0)
(-50.8324 -0.166429 0 0.0363775 0 0)
(-50.9175 -0.195385 0 0.0409651 0 0)
(-51.0054 -0.225933 0 0.0455504 0 0)
(-51.0951 -0.260325 0 0.0502091 0 0)
(-50.0772 0.010162 0 0.0117523 0 0)
(-50.0913 0.0621391 0 0.0102178 0 0)
(-50.1057 0.0753839 0 0.00759085 0 0)
(-50.1482 0.0704715 0 0.00645948 0 0)
(-50.2172 0.0580933 0 0.00627639 0 0)
(-50.3028 0.0433307 0 0.00673838 0 0)
(-50.3935 0.0291911 0 0.00768678 0 0)
(-50.4846 0.016446 0 0.00897687 0 0)
(-50.5758 0.00393832 0 0.0105247 0 0)
(-50.6669 -0.0104028 0 0.012313 0 0)
(-50.7569 -0.027643 0 0.0143246 0 0)
(-50.8464 -0.0479121 0 0.0165471 0 0)
(-50.9364 -0.0700431 0 0.0189662 0 0)
(-51.0283 -0.0935589 0 0.0216038 0 0)
(-51.1226 -0.11736 0 0.0243965 0 0)
(-51.2198 -0.142247 0 0.0273984 0 0)
(-51.3195 -0.167293 0 0.0304667 0 0)
(-51.4217 -0.194621 0 0.0336131 0 0)
(-49.7152 0.0296861 0 0.00943106 0 0)
(-49.7966 0.0639574 0 0.00761603 0 0)
(-49.8695 0.0846577 0 0.00538014 0 0)
(-49.9341 0.0940897 0 0.00458157 0 0)
(-49.9992 0.096326 0 0.00475565 0 0)
(-50.073 0.0943499 0 0.00542194 0 0)
(-50.1539 0.0886746 0 0.00625079 0 0)
(-50.239 0.0792421 0 0.00714403 0 0)
(-50.3285 0.0670089 0 0.00815002 0 0)
(-50.4231 0.0531681 0 0.00934218 0 0)
(-50.5228 0.0386137 0 0.0107521 0 0)
(-50.6265 0.0234732 0 0.0123877 0 0)
(-50.7335 0.00783712 0 0.0142183 0 0)
(-50.8427 -0.00892615 0 0.0162238 0 0)
(-50.9536 -0.0266926 0 0.0183212 0 0)
(-51.0653 -0.0466333 0 0.0205175 0 0)
(-51.1785 -0.0680187 0 0.0226951 0 0)
(-51.292 -0.0926823 0 0.0248486 0 0)
(-50.2633 0.0823911 0 0.00828587 0 0)
(-50.3603 0.103108 0 0.0057211 0 0)
(-50.4734 0.120844 0 0.00372909 0 0)
(-50.5847 0.125038 0 0.00307536 0 0)
(-50.68 0.118421 0 0.00306129 0 0)
(-50.7646 0.109306 0 0.00336984 0 0)
(-50.8445 0.102156 0 0.00383427 0 0)
(-50.9232 0.0967651 0 0.00439229 0 0)
(-51.0039 0.09115 0 0.00505691 0 0)
(-51.089 0.0836528 0 0.00586131 0 0)
(-51.1786 0.0737678 0 0.00680292 0 0)
(-51.2719 0.0615109 0 0.00786185 0 0)
(-51.3677 0.0475554 0 0.00901323 0 0)
(-51.4653 0.0321815 0 0.0102488 0 0)
(-51.5639 0.0162076 0 0.0115399 0 0)
(-51.6641 -0.000875917 0 0.0129086 0 0)
(-51.7655 -0.0182777 0 0.0142988 0 0)
(-51.87 -0.0374007 0 0.0157133 0 0)
(-49.5682 0.0844571 0 0.00801685 0 0)
(-49.6268 0.125279 0 0.00581488 0 0)
(-49.708 0.149169 0 0.00399682 0 0)
(-49.8039 0.15952 0 0.00333732 0 0)
(-49.9035 0.161569 0 0.00317494 0 0)
(-50.0052 0.159704 0 0.00329602 0 0)
(-50.108 0.156102 0 0.00357163 0 0)
(-50.2094 0.151219 0 0.00392149 0 0)
(-50.3068 0.145404 0 0.00433908 0 0)
(-50.4 0.139124 0 0.00485022 0 0)
(-50.4916 0.13241 0 0.00547003 0 0)
(-50.5861 0.12461 0 0.00619324 0 0)
(-50.6866 0.115364 0 0.00699591 0 0)
(-50.7949 0.104315 0 0.00785979 0 0)
(-50.9091 0.0919652 0 0.00874294 0 0)
(-51.0282 0.0782062 0 0.00967644 0 0)
(-51.1486 0.0637901 0 0.0106173 0 0)
(-51.2708 0.047812 0 0.0115507 0 0)
(-50.044 0.104962 0 0.00721735 0 0)
(-50.0916 0.151172 0 0.00544425 0 0)
(-50.1798 0.166234 0 0.00360286 0 0)
(-50.2766 0.166326 0 0.00283362 0 0)
(-50.3579 0.163777 0 0.00261151 0 0)
(-50.4272 0.162602 0 0.00259111 0 0)
(-50.496 0.16109 0 0.00265119 0 0)
(-50.5726 0.156755 0 0.00275323 0 0)
(-50.6583 0.149729 0 0.00289275 0 0)
(-50.7508 0.141964 0 0.0030951 0 0)
(-50.8474 0.135315 0 0.00338201 0 0)
(-50.9472 0.13013 0 0.00374273 0 0)
(-51.0499 0.125731 0 0.00416024 0 0)
(-51.1562 0.120571 0 0.00463581 0 0)
(-51.2655 0.113836 0 0.00514534 0 0)
(-51.3777 0.104655 0 0.00569941 0 0)
(-51.4923 0.0935832 0 0.00625969 0 0)
(-51.6098 0.0800356 0 0.00679527 0 0)
(-49.7749 0.116074 0 0.00526321 0 0)
(-49.8731 0.182807 0 0.00291135 0 0)
(-49.9801 0.206192 0 0.00159678 0 0)
(-50.0749 0.209433 0 0.00114558 0 0)
(-50.1557 0.209523 0 0.00102722 0 0)
(-50.2351 0.211439 0 0.00101691 0 0)
(-50.3202 0.213331 0 0.00104638 0 0)
(-50.411 0.213343 0 0.00111212 0 0)
(-50.5054 0.211742 0 0.00122399 0 0)
(-50.6025 0.209413 0 0.0013864 0 0)
(-50.7021 0.206781 0 0.00159757 0 0)
(-50.8041 0.203568 0 0.00185497 0 0)
(-50.9081 0.199415 0 0.0021525 0 0)
(-51.0139 0.193892 0 0.00248208 0 0)
(-51.1214 0.187143 0 0.00282478 0 0)
(-51.2308 0.179124 0 0.00319253 0 0)
(-51.3429 0.170429 0 0.00356461 0 0)
(-51.4581 0.160867 0 0.00393954 0 0)
(-49.8932 0.133219 0 0.00435315 0 0)
(-50.0407 0.161269 0 0.0020155 0 0)
(-50.1959 0.175291 0 0.001073 0 0)
(-50.3164 0.182175 0 0.000703406 0 0)
(-50.4138 0.189295 0 0.000520071 0 0)
(-50.5167 0.196258 0 0.000417769 0 0)
(-50.6355 0.199766 0 0.000358776 0 0)
(-50.7651 0.199233 0 0.000318611 0 0)
(-50.8979 0.196552 0 0.000295189 0 0)
(-51.0298 0.194026 0 0.000303382 0 0)
(-51.16 0.192753 0 0.000346835 0 0)
(-51.2882 0.192685 0 0.000415234 0 0)
(-51.4154 0.192842 0 0.000506166 0 0)
(-51.5415 0.192262 0 0.0006263 0 0)
(-51.6686 0.190212 0 0.00077639 0 0)
(-51.7956 0.186752 0 0.000957796 0 0)
(-51.9265 0.182095 0 0.00116068 0 0)
(-52.0583 0.176742 0 0.00137442 0 0)
(-49.9465 0.202804 0 0.00297708 0 0)
(-50.2593 0.271429 0 0.000225153 0 0)
(-50.5592 0.259788 0 -0.000235357 0 0)
(-50.7816 0.258611 0 -0.000397217 0 0)
(-50.9265 0.268515 0 -0.000590712 0 0)
(-51.0216 0.277488 0 -0.000731351 0 0)
(-51.0908 0.282002 0 -0.000785372 0 0)
(-51.1471 0.283167 0 -0.000781917 0 0)
(-51.1947 0.282574 0 -0.000749031 0 0)
(-51.2348 0.281333 0 -0.000697843 0 0)
(-51.2649 0.279772 0 -0.0006302 0 0)
(-51.2854 0.278007 0 -0.000549011 0 0)
(-51.2939 0.275565 0 -0.000452248 0 0)
(-51.2948 0.272471 0 -0.000343419 0 0)
(-51.2855 0.268459 0 -0.00022538 0 0)
(-51.2754 0.26418 0 -9.72796e-05 0 0)
(-51.257 0.259557 0 3.97149e-05 0 0)
(-51.2473 0.255412 0 0.000165926 0 0)
(-49.0394 0.151609 0 0.00211726 0 0)
(-47.3869 0.234546 0 8.02582e-05 0 0)
(-45.763 0.222003 0 -0.000126305 0 0)
(-44.1771 0.210473 0 -0.000194825 0 0)
(-42.6533 0.205297 0 -0.000276791 0 0)
(-41.2066 0.200485 0 -0.000326008 0 0)
(-39.8429 0.195023 0 -0.000350327 0 0)
(-38.5632 0.189138 0 -0.000362569 0 0)
(-37.365 0.182862 0 -0.000366227 0 0)
(-36.246 0.17651 0 -0.0003648 0 0)
(-35.1993 0.170447 0 -0.000361017 0 0)
(-34.2218 0.164854 0 -0.000356064 0 0)
(-33.3053 0.159369 0 -0.000347113 0 0)
(-32.4527 0.153805 0 -0.000334332 0 0)
(-31.6534 0.147994 0 -0.000316325 0 0)
(-30.917 0.142387 0 -0.000292594 0 0)
(-30.2213 0.137071 0 -0.000268391 0 0)
(-29.5894 0.132777 0 -0.000252359 0 0)
(-0.0165743 0.0325323 -2.44057e-22 -0.0592933 4.93567e-22 4.23394e-39)
(-0.0334031 -0.0170328 5.92524e-22 0.0350348 -3.29452e-22 4.16525e-39)
(0.0722548 -0.110486 0 0.0495049 0 0)
(0.337653 -0.184965 0 0.0193964 0 0)
(0.679914 -0.174864 0 -0.050097 0 0)
(0.934578 -0.0616526 -1.06569e-21 -0.125534 -2.99306e-22 3.91935e-39)
(0.928447 0.14001 0 -0.181601 0 0)
(0.534344 0.364948 0 -0.201118 0 0)
(-0.273885 0.568242 0 -0.191259 0 0)
(-1.40429 0.70964 0 -0.160092 0 0)
(-2.7425 0.770375 -9.80423e-22 -0.117835 5.97864e-22 3.59647e-39)
(-4.15928 0.749995 0 -0.073681 0 0)
(-5.50735 0.657844 0 -0.0334849 0 0)
(-6.65296 0.508442 0 -0.00045886 0 0)
(-7.48963 0.316984 0 0.0243972 0 0)
(-7.94323 0.0990358 -4.48551e-21 0.040873 3.44839e-22 3.29958e-39)
(-7.95998 -0.133053 0 0.0493663 0 0)
(-7.52251 -0.363742 0 0.0499132 0 0)
(-6.61896 -0.582137 0 0.0426238 0 0)
(-5.312 -0.764531 0 0.0275092 0 0)
(-3.621 -0.897948 0 0.00560686 0 0)
(-1.75233 -0.943173 0 -0.0177029 0 0)
(0.289349 -0.909643 0 -0.037738 0 0)
(2.10995 -0.721534 -4.50207e-21 -0.0217668 -2.35783e-22 2.91583e-39)
(3.83751 -0.569517 4.28798e-21 -0.0050294 2.96979e-22 2.87349e-39)
(5.06632 -0.25552 -4.06935e-21 0.105216 -3.36184e-22 2.83132e-39)
(5.94419 0.0600323 -3.87667e-21 0.294082 -3.56683e-22 2.78924e-39)
(6.54323 0.228955 0 0.456281 0 0)
(6.88462 0.177517 0 0.40528 0 0)
(7.14652 -0.063775 3.20929e-21 0.482654 3.58337e-22 2.65334e-39)
(7.33273 -0.197025 2.96091e-21 0.479137 4.73648e-22 2.60476e-39)
(7.40678 -0.293002 0 0.457614 0 0)
(7.39098 -0.416196 0 0.445821 0 0)
(7.41979 -0.67805 1.97089e-21 0.466219 9.48462e-23 2.46385e-39)
(7.99842 -1.11173 0 0.481177 0 0)
(9.36376 -1.43618 0 0.570476 0 0)
(11.8273 -1.84212 -2.61205e-21 0.737823 3.08222e-22 2.33155e-39)
(15.5436 -2.35927 0 0.80736 0 0)
(20.2886 -2.65308 -4.6658e-21 0.723003 7.4938e-22 2.24753e-39)
(25.1455 -2.4224 -1.17077e-20 0.538042 1.64155e-21 8.82354e-39)
(29.133 -1.88688 0 0.427358 0 0)
(31.8133 -1.38466 0 0.406221 0 0)
(32.9993 -0.96209 0 0.455495 0 0)
(33.3243 -0.990255 0 0.481469 0 0)
(34.2117 -0.85466 0 0.55311 0 0)
(34.1567 -0.639292 -2.35677e-20 0.615581 4.86502e-22 7.89426e-39)
(33.3586 -1.92006 -2.2938e-20 0.647003 9.84465e-22 7.74506e-39)
(30.7747 -2.11727 -2.07223e-20 0.913253 1.06227e-21 7.59585e-39)
(27.043 0.997924 0 0.329106 0 0)
(18.1172 2.70595 1.43629e-20 0.352557 2.63591e-21 7.29287e-39)
(10.2785 2.42767 0 0.264805 0 0)
(2.8155 2.21636 -4.50804e-21 0.244597 -2.05793e-21 6.99323e-39)
(-4.53312 2.14806 1.03419e-21 0.203071 -2.08013e-21 6.84705e-39)
(-11.5795 2.25796 0 0.151594 0 0)
(-18.1795 2.2141 0 0.102231 0 0)
(-24.5791 1.96068 0 0.0803677 0 0)
(-30.63 2.0127 2.18288e-20 0.0831895 -1.63462e-21 6.2976e-39)
(-36.5477 2.13303 0 0.160738 0 0)
(-41.7914 1.77599 0 0.158819 0 0)
(-45.6474 1.33741 0 0.128259 0 0)
(-48.4488 0.965034 0 0.105433 0 0)
(-50.2876 0.635032 0 0.0855375 0 0)
(-51.3061 0.358843 0 0.0701855 0 0)
(-51.6187 0.124949 0 0.058002 0 0)
(-51.3168 -0.0730354 0 0.0481114 0 0)
(-50.4784 -0.240292 -3.79545e-20 0.0398517 -5.39148e-22 5.24485e-39)
(-49.1691 -0.381883 0 0.0327649 0 0)
(-47.4479 -0.500431 0 0.0265593 0 0)
(-45.3789 -0.598801 3.08033e-20 0.0210629 8.2192e-22 4.94889e-39)
(-43.0113 -0.678578 2.77076e-20 0.0161589 8.64753e-22 4.85459e-39)
(-40.3961 -0.741097 0 0.0117863 0 0)
(-37.5836 -0.787149 -2.09854e-20 0.00791109 -8.78706e-22 4.67132e-39)
(-34.6227 -0.817707 1.75339e-20 0.00453628 8.53646e-22 4.58205e-39)
(-31.5618 -0.833525 0 0.00167966 0 0)
(-28.448 -0.835874 -1.08371e-20 -0.000635253 -7.57268e-22 4.4076e-39)
(-25.3254 -0.826107 0 -0.00240389 0 0)
(-22.2337 -0.806212 0 -0.0036475 0 0)
(-19.2063 -0.778354 2.16489e-21 -0.00442379 5.52582e-22 4.15447e-39)
(-16.2683 -0.744839 0 -0.00482039 0 0)
(-13.4366 -0.708162 2.38039e-21 -0.00494789 -4.18291e-22 3.99093e-39)
(-10.7214 -0.670143 0 -0.00493184 0 0)
(-8.12622 -0.632281 -5.95604e-21 -0.00489723 3.12507e-22 3.83157e-39)
(-5.65085 -0.59557 -7.4293e-21 -0.0049595 2.70643e-22 3.75351e-39)
(-3.29397 -0.560229 -8.7202e-21 -0.00521466 2.33701e-22 3.67656e-39)
(-1.05361 -0.525646 -1.96858e-20 -0.00573118 3.97419e-22 1.4403e-38)
(1.06933 -0.491191 2.16042e-20 -0.0065451 -3.26468e-22 1.41042e-38)
(3.06865 -0.455276 0 -0.00764262 0 0)
(4.93333 -0.416537 0 -0.00895954 0 0)
(6.64652 -0.37397 0 -0.0103834 0 0)
(8.18763 -0.326816 2.57188e-20 -0.0117639 1.63208e-23 1.29533e-38)
(9.53603 -0.275561 2.57201e-20 -0.0129505 1.18636e-22 1.26761e-38)
(10.673 -0.221395 -2.52767e-20 -0.0137583 -2.20461e-22 1.2403e-38)
(11.5887 -0.166376 0 -0.0140399 0 0)
(12.2828 -0.113212 2.31808e-20 -0.0137547 3.92903e-22 1.18693e-38)
(12.765 -0.064195 2.16573e-20 -0.0129624 4.52086e-22 1.16087e-38)
(13.0529 -0.020918 1.99286e-20 -0.0118171 4.90401e-22 1.13525e-38)
(13.1681 0.0161784 0 -0.0105086 0 0)
(13.1321 0.047659 0 -0.00920896 0 0)
(12.9628 0.0746879 0 -0.00803663 0 0)
(12.6727 0.098623 1.23677e-20 -0.00704456 5.02469e-22 1.03688e-38)
(12.2693 0.120412 0 -0.00624275 0 0)
(11.7573 0.141129 0 -0.00557527 0 0)
(11.1409 0.160716 -6.96385e-21 -0.00498668 -4.68133e-22 9.66587e-39)
(10.4249 0.178575 0 -0.00441781 0 0)
(9.61588 0.194187 0 -0.00383233 0 0)
(8.72427 0.206605 -2.13955e-21 -0.00321735 -4.18909e-22 8.99633e-39)
(7.76352 0.215445 0 -0.00258497 0 0)
(6.75047 0.220415 0 -0.00195705 0 0)
(5.70331 0.221906 -1.83602e-21 -0.00136069 3.47211e-22 8.36241e-39)
(4.63906 0.219951 -2.93533e-21 -0.000818916 3.20952e-22 8.15848e-39)
(3.57168 0.215156 0 -0.00034376 0 0)
(2.51338 0.207963 4.79898e-21 6.04696e-05 -2.69494e-22 7.76177e-39)
(1.47442 0.199129 0 0.000395027 0 0)
(0.46242 0.189194 -6.25714e-21 0.000665982 2.22818e-22 7.37968e-39)
(-0.517136 0.178745 0 0.000881577 0 0)
(-1.46039 0.167782 -7.37768e-21 0.00105114 1.83426e-22 7.01217e-39)
(-2.36498 0.156603 -7.83346e-21 0.0011823 1.66091e-22 6.834e-39)
(-3.22851 0.145262 0 0.00128186 0 0)
(-4.04886 0.133719 0 0.00135449 0 0)
(-4.82375 0.121922 0 0.0014027 0 0)
(-5.55062 0.109815 0 0.00142753 0 0)
(-6.22641 0.0973493 0 0.00142909 0 0)
(-6.848 0.0845234 0 0.0014066 0 0)
(-7.41219 0.071386 0 0.00135945 0 0)
(-7.91616 0.0580418 -9.66511e-21 0.00128783 5.40001e-23 5.53546e-39)
(-8.35767 0.0446507 9.71305e-21 0.00119313 -4.19606e-23 5.38789e-39)
(-8.73545 0.0314092 0 0.00107848 0 0)
(-9.04913 0.0185228 0 0.000948689 0 0)
(-9.29953 0.00619875 0 0.00080976 0 0)
(-9.4885 -0.00538869 0 0.000668483 0 0)
(-9.6188 -0.0160932 1.90636e-20 0.000531154 2.66731e-23 1.87786e-38)
(-9.69387 -0.0258241 0 0.000402786 0 0)
(-9.71769 -0.0345309 -1.86166e-20 0.000287427 -6.00432e-23 1.77482e-38)
(-9.69457 -0.0421748 1.83497e-20 0.000188915 7.49581e-23 1.72489e-38)
(-9.62908 -0.0487567 0 0.000109254 0 0)
(-9.52585 -0.0544144 0 4.52775e-05 0 0)
(-9.3889 -0.0593672 0 -8.67717e-06 0 0)
(-9.22158 -0.0636528 -1.70829e-20 -5.17864e-05 -1.2458e-22 1.53537e-38)
(-9.02708 -0.0670732 -1.67182e-20 -7.62449e-05 -1.37811e-22 1.49044e-38)
(-8.80881 -0.0696116 0 -8.17734e-05 0 0)
(-8.5698 -0.0716292 -1.59361e-20 -7.80212e-05 -1.48764e-22 1.4034e-38)
(-8.31228 -0.0733533 -1.55282e-20 -7.03872e-05 -1.49871e-22 1.36125e-38)
(-8.0388 -0.0744172 1.51132e-20 -4.95408e-05 1.51683e-22 1.32001e-38)
(-7.75324 -0.0740268 0 -6.9284e-06 0 0)
(-7.46141 -0.0715751 0 2.75185e-05 0 0)
(-7.17003 -0.0673584 1.38572e-20 1.69551e-05 1.4049e-22 1.2015e-38)
(-6.88449 -0.0625506 0 -1.02447e-05 0 0)
(-6.60769 -0.0582541 0 -1.25586e-05 0 0)
(-6.34087 -0.054605 0 4.74298e-06 0 0)
(-6.08517 -0.0510328 0 2.55424e-05 0 0)
(-5.84199 -0.0472235 -1.20499e-20 4.49288e-05 -9.22101e-23 1.02054e-38)
(-5.61177 -0.0435814 -1.17457e-20 6.67343e-05 -8.52407e-23 9.86704e-39)
(-5.39277 -0.0408651 0 9.41905e-05 0 0)
(-5.18124 -0.0395872 -1.11789e-20 0.000117261 -7.81491e-23 9.21308e-39)
(-4.97285 -0.0396616 0 0.000121344 0 0)
(-4.7644 -0.0404855 0 0.000107347 0 0)
(-4.55438 -0.0413324 -1.03566e-20 9.05372e-05 -8.36321e-23 8.28726e-39)
(-4.343 -0.0415753 0 8.55668e-05 0 0)
(-4.1318 -0.0407108 -9.80416e-21 9.60735e-05 -8.31498e-23 7.70552e-39)
(-3.92419 -0.0383396 0 0.000111352 0 0)
(-3.72491 -0.0343308 0 0.000111034 0 0)
(-3.54005 -0.0290705 -9.03229e-21 8.45791e-05 -5.80172e-23 6.88386e-39)
(-3.37378 -0.023428 0 4.54559e-05 0 0)
(-3.22866 -0.018323 -8.62278e-21 1.44537e-05 -3.61313e-23 6.36873e-39)
(-3.10239 -0.01432 0 -1.38977e-06 0 0)
(-2.99318 -0.0114485 0 -7.00016e-06 0 0)
(-2.89515 -0.00949586 0 -8.69005e-06 0 0)
(-2.80784 -0.00812258 8.04196e-21 -9.00509e-06 1.68751e-23 5.41353e-39)
(-2.72468 -0.00734669 0 -9.47426e-06 0 0)
(-2.64803 -0.00700728 -7.8103e-21 -9.61209e-06 -1.5319e-23 4.97218e-39)
(-2.56922 -0.00760077 0 -1.21697e-05 0 0)
(-2.49077 -0.00861013 0 -1.52305e-05 0 0)
(-2.40425 -0.0111902 0 -2.84545e-05 0 0)
(-2.30276 -0.0134614 0 -3.76686e-05 0 0)
(-2.19753 -0.0189437 0 -8.93131e-05 0 0)
(-2.03006 -0.0220197 0 -0.000100045 0 0)
(-1.91114 -0.0335928 0 -0.000332214 0 0)
(-1.57251 -0.0354123 1.28567e-20 -0.000287513 1.65674e-22 1.37498e-38)
(-1.52028 -0.0609077 0 -0.0015883 0 0)
(-0.739424 -0.0410691 0 -0.00103394 0 0)
(0.00332482 -0.0213204 2.7069e-23 -0.102377 -3.3099e-21 3.81121e-38)
(0.022153 -0.0901654 8.06629e-23 0.283399 2.85226e-21 3.75723e-38)
(0.0765221 -0.16907 0 0.448277 0 0)