/*--------------------------------*- C++ -*----------------------------------*\
  =========                 |
  \\      /  F ield         | OpenFOAM: The Open Source CFD Toolbox
   \\    /   O peration     | Website:  https://openfoam.org
    \\  /    A nd           | Version:  9
     \\/     M anipulation  |
\*---------------------------------------------------------------------------*/
FoamFile
{
    format      ascii;
    class       volScalarField;
    location    "0.042";
    object      k;
}
// * * * * * * * * * * * * * * * * * * * * * * * * * * * * * * * * * * * * * //

dimensions      [0 2 -2 0 0 0 0];

internalField   nonuniform List<scalar> 
12225
(
1.96424e-05
2.12941e-05
3.64712e-05
5.79029e-05
6.0461e-05
5.43535e-05
5.19314e-05
6.15472e-05
0.000124364
0.000215482
0.000249943
0.000252161
0.000233096
0.000161066
7.74069e-05
0.000152404
0.000277394
0.00958005
1.99994e-05
2.02057e-05
2.19921e-05
2.56844e-05
2.71476e-05
2.73029e-05
2.74033e-05
2.84519e-05
3.38556e-05
5.30979e-05
9.27682e-05
0.000116504
0.00012361
0.00012314
0.000114525
0.000108222
7.99039e-05
0.000138217
2.00369e-05
1.76139e-05
1.19109e-05
1.06763e-05
1.10222e-05
1.31646e-05
1.5472e-05
1.6663e-05
1.82223e-05
2.17797e-05
2.77398e-05
3.15175e-05
3.41825e-05
3.50359e-05
3.46408e-05
3.34e-05
2.9069e-05
2.47689e-05
2.273e-05
2.21785e-05
2.03787e-05
1.95897e-05
1.91692e-05
1.91811e-05
1.91604e-05
1.89809e-05
1.84937e-05
1.7273e-05
1.43149e-05
1.26821e-05
1.2343e-05
1.25047e-05
1.31346e-05
1.47187e-05
1.54007e-05
1.75804e-05
2.0787e-05
2.03507e-05
2.03769e-05
2.07977e-05
2.11838e-05
2.12095e-05
2.10013e-05
2.05686e-05
2.04651e-05
2.04989e-05
2.07685e-05
2.12119e-05
2.14369e-05
2.15526e-05
2.1736e-05
2.21689e-05
2.32832e-05
2.57516e-05
2.5494e-05
2.23254e-05
2.411e-05
2.56683e-05
2.51566e-05
2.28307e-05
2.15212e-05
2.12467e-05
2.13435e-05
2.19286e-05
2.24043e-05
2.2592e-05
2.27095e-05
2.29128e-05
2.34175e-05
2.50745e-05
3.09414e-05
3.82613e-05
2.12555e-05
2.14262e-05
2.26812e-05
2.34376e-05
2.34979e-05
2.31311e-05
2.20887e-05
2.16539e-05
2.16161e-05
2.17104e-05
2.18353e-05
2.18769e-05
2.19005e-05
2.19686e-05
2.22486e-05
2.32016e-05
2.64949e-05
3.1281e-05
2.22755e-05
2.10353e-05
2.08107e-05
2.1357e-05
2.18881e-05
2.19281e-05
2.19098e-05
2.20073e-05
2.28842e-05
2.55368e-05
2.65953e-05
2.65694e-05
2.55184e-05
2.39693e-05
2.32219e-05
2.29875e-05
2.29477e-05
2.31683e-05
2.7905e-05
3.31376e-05
2.61257e-05
2.34351e-05
2.30005e-05
2.23808e-05
2.19877e-05
2.20251e-05
2.28546e-05
2.74778e-05
3.02801e-05
3.0277e-05
2.92116e-05
2.61512e-05
2.39354e-05
2.26997e-05
2.2075e-05
2.18273e-05
2.43449e-05
4.06417e-05
3.76407e-05
2.64198e-05
2.25112e-05
2.14661e-05
2.14041e-05
2.19517e-05
2.54149e-05
3.07913e-05
3.22843e-05
3.21261e-05
3.02233e-05
2.61051e-05
2.36775e-05
2.25926e-05
2.22751e-05
2.21346e-05
2.16192e-05
2.48028e-05
2.49905e-05
2.43932e-05
2.2775e-05
2.21141e-05
2.21176e-05
2.27037e-05
2.37792e-05
2.40543e-05
2.39912e-05
2.36249e-05
2.25608e-05
2.19232e-05
2.19134e-05
2.21122e-05
2.27295e-05
2.28119e-05
2.00172e-05
2.04936e-05
2.11869e-05
2.14337e-05
2.18071e-05
2.29392e-05
2.40049e-05
2.43825e-05
2.43872e-05
2.41191e-05
2.29354e-05
2.18216e-05
2.17315e-05
2.21655e-05
2.38491e-05
2.48134e-05
2.49926e-05
2.49007e-05
2.001e-05
2.0167e-05
2.05934e-05
2.15527e-05
2.5316e-05
3.29108e-05
3.35359e-05
3.00971e-05
2.55628e-05
2.33962e-05
2.2592e-05
2.24969e-05
2.27574e-05
2.4262e-05
2.67537e-05
2.8369e-05
2.92567e-05
2.96606e-05
2.00527e-05
2.0062e-05
2.0442e-05
2.20684e-05
2.82048e-05
3.18919e-05
3.05171e-05
2.59252e-05
2.38139e-05
2.33296e-05
2.33505e-05
2.38092e-05
2.59123e-05
2.91095e-05
3.11025e-05
3.19843e-05
3.21822e-05
3.20325e-05
2.0041e-05
2.01034e-05
2.04137e-05
2.2118e-05
2.94325e-05
3.42074e-05
3.4359e-05
3.08981e-05
2.49754e-05
2.27353e-05
2.23219e-05
2.24694e-05
2.37332e-05
2.6071e-05
2.74961e-05
2.8214e-05
2.85602e-05
2.85967e-05
2.03882e-05
2.03994e-05
2.06692e-05
2.1775e-05
2.37117e-05
2.43688e-05
2.39304e-05
2.21968e-05
2.10936e-05
2.07586e-05
2.07766e-05
2.08686e-05
2.09292e-05
2.10597e-05
2.14049e-05
2.22815e-05
2.46361e-05
3.02989e-05
2.01787e-05
2.09596e-05
2.12721e-05
2.13071e-05
2.12409e-05
2.11258e-05
2.0768e-05
2.07094e-05
2.07592e-05
2.08465e-05
2.09053e-05
2.09769e-05
2.11456e-05
2.12867e-05
2.13059e-05
2.13125e-05
2.13771e-05
2.16791e-05
2.00167e-05
2.0442e-05
2.12723e-05
2.14629e-05
2.12863e-05
2.06844e-05
2.04073e-05
2.03402e-05
2.03433e-05
2.04088e-05
2.06335e-05
2.09716e-05
2.12769e-05
2.14088e-05
2.14292e-05
2.14281e-05
2.14372e-05
2.14752e-05
2.04856e-05
2.08514e-05
2.14563e-05
2.18321e-05
2.20088e-05
2.17198e-05
2.09626e-05
2.06512e-05
2.06029e-05
2.06569e-05
2.10153e-05
2.1937e-05
2.33784e-05
2.48377e-05
2.53652e-05
2.53498e-05
2.51062e-05
2.43187e-05
2.05449e-05
2.06383e-05
2.17809e-05
2.27425e-05
2.27828e-05
2.25983e-05
2.26909e-05
2.30417e-05
2.28726e-05
2.17503e-05
2.1022e-05
2.08562e-05
2.08503e-05
2.09296e-05
2.11319e-05
2.13029e-05
2.14515e-05
2.16005e-05
2.13335e-05
2.09682e-05
2.06673e-05
2.05672e-05
2.05542e-05
2.06583e-05
2.15282e-05
2.46459e-05
2.60084e-05
2.57863e-05
2.37189e-05
2.18878e-05
2.11556e-05
2.08544e-05
2.07391e-05
2.07097e-05
2.07137e-05
2.07778e-05
2.06488e-05
2.02682e-05
2.02408e-05
2.03083e-05
2.05211e-05
2.11093e-05
2.28437e-05
2.90694e-05
3.36793e-05
3.35526e-05
2.96535e-05
2.49947e-05
2.276e-05
2.17221e-05
2.12526e-05
2.10547e-05
2.09882e-05
2.09791e-05
2.11477e-05
2.09609e-05
2.10208e-05
2.11447e-05
2.10657e-05
2.10435e-05
2.10728e-05
2.1253e-05
2.22031e-05
2.38565e-05
2.43909e-05
2.44038e-05
2.43006e-05
2.40687e-05
2.35566e-05
2.30478e-05
2.25269e-05
2.20448e-05
2.05523e-05
2.17898e-05
2.26717e-05
2.21059e-05
2.11221e-05
2.07105e-05
2.06577e-05
2.07847e-05
2.15435e-05
2.47221e-05
3.40714e-05
3.96273e-05
4.03066e-05
3.88961e-05
3.2972e-05
2.76029e-05
2.45176e-05
2.28895e-05
2.05209e-05
2.34635e-05
2.40377e-05
2.23184e-05
2.09646e-05
2.07623e-05
2.09943e-05
2.2355e-05
2.76976e-05
3.88282e-05
4.5679e-05
4.74871e-05
4.72242e-05
4.52365e-05
3.92571e-05
3.31658e-05
2.81448e-05
2.47147e-05
2.02197e-05
2.05302e-05
2.04737e-05
2.02497e-05
2.02102e-05
2.0294e-05
2.07698e-05
2.25378e-05
2.83196e-05
3.61734e-05
4.1674e-05
4.38515e-05
4.37952e-05
4.02897e-05
3.13802e-05
2.604e-05
2.35823e-05
2.25595e-05
2.03234e-05
2.03461e-05
1.99894e-05
1.95664e-05
1.94395e-05
1.94728e-05
1.98293e-05
2.04326e-05
2.05788e-05
2.05597e-05
2.04069e-05
1.989e-05
1.92953e-05
1.87469e-05
1.83517e-05
1.82005e-05
1.82034e-05
1.83264e-05
2.00095e-05
1.53379e-05
1.19461e-05
1.18551e-05
1.23029e-05
1.2799e-05
1.29815e-05
1.3146e-05
1.34676e-05
1.40421e-05
1.44397e-05
1.45537e-05
1.45359e-05
1.44131e-05
1.43093e-05
1.42926e-05
1.43315e-05
1.4557e-05
2.02002e-05
2.0394e-05
2.18742e-05
2.32712e-05
2.35544e-05
2.3724e-05
2.45059e-05
2.84563e-05
3.58817e-05
3.96999e-05
4.04755e-05
4.01134e-05
3.7951e-05
3.51113e-05
3.39379e-05
3.38257e-05
3.41576e-05
3.56429e-05
6.86193e-05
4.63586e-05
4.93978e-05
4.97122e-05
4.83075e-05
4.85638e-05
5.45472e-05
8.02629e-05
9.95591e-05
0.000103645
0.000101392
8.90174e-05
8.06883e-05
7.94603e-05
8.15252e-05
9.4341e-05
0.000114541
0.000126019
0.077515
0.0912829
0.0905656
0.0920378
0.0950421
0.095606
0.0914961
0.0985711
0.115378
0.116259
0.113527
0.107082
0.101184
0.0966053
0.0930935
0.0901055
0.088349
0.0863896
0.0858487
0.084883
0.084085
0.0841989
0.0844727
0.0842857
0.0834214
0.0832957
0.0826673
0.0920807
0.199694
0.331756
0.32928
0.256024
0.213842
0.171517
0.153078
0.148761
0.150053
0.152343
0.16755
0.161614
0.151566
0.155503
0.174605
0.242117
0.28292
0.264797
0.172221
0.103861
0.0613264
0.0421759
0.0238913
0.0218716
0.0216825
0.0204973
0.0186276
0.0159798
0.0137127
0.0108739
0.00930224
0.00695967
0.00584548
0.00432596
0.00362578
0.00282897
0.00247265
0.00224299
0.00216745
0.00216426
0.00215096
0.00214285
0.00213042
0.00212666
0.00212069
0.00210819
0.00210263
0.00210341
0.00211414
0.00214951
0.00223584
0.00241019
0.00270962
0.0031254
0.00336031
0.00341363
0.00323553
0.00262487
0.00237996
0.00232365
0.00243601
0.00248354
0.00250656
0.00251368
0.00249795
0.00242537
0.00235611
0.00232573
0.00228531
0.00223018
0.00219438
0.00216988
0.00214161
0.00211597
0.00209686
0.00208149
0.00205961
0.00204279
0.00202081
0.00200157
0.00198323
0.00196591
0.00194891
0.00193309
0.00191938
0.00190853
0.0019011
0.00189775
0.00189957
0.00190867
0.00192595
0.00194869
0.00197719
0.00201007
0.00203975
0.00206049
0.00207631
0.00208497
0.0020857
0.00207102
0.00204651
0.0020328
0.00202193
0.00199695
0.001933
0.00184534
0.00177188
0.00172475
0.00168158
0.00159805
0.00140942
0.00112264
0.000808514
0.000571441
0.000462166
0.000445252
0.000471277
0.000576412
0.000614829
0.000578708
0.000405189
0.000249868
0.000176686
0.000137298
0.000104722
7.54188e-05
5.16057e-05
3.46194e-05
2.37219e-05
1.71362e-05
1.31263e-05
1.04815e-05
8.52866e-06
6.96203e-06
5.66125e-06
4.58142e-06
3.69239e-06
2.96941e-06
2.38134e-06
1.9069e-06
1.51892e-06
1.2069e-06
9.48524e-07
7.43565e-07
5.70766e-07
4.38121e-07
3.23326e-07
2.40397e-07
1.65021e-07
1.19076e-07
6.60844e-08
4.24281e-07
0.0696605
0.0687067
0.0785435
0.115634
0.117587
0.109468
0.0959489
0.0910008
0.0817557
0.0730995
0.0647973
0.0583801
0.0545546
0.0515091
0.0499924
0.0482962
0.0474593
0.046588
0.0459818
0.0461752
0.0468372
0.0485653
0.0505201
0.0548397
0.0582869
0.0658751
0.0717294
0.077404
0.0963169
0.155152
0.276684
0.310117
0.279631
0.194975
0.168471
0.171657
0.166403
0.1371
0.135049
0.136235
0.137019
0.138593
0.150925
0.198392
0.260518
0.208017
0.0660582
0.0407854
0.0334994
0.0215544
0.0140153
0.0115629
0.00928352
0.00765527
0.00600587
0.00513036
0.00423547
0.00380387
0.00344701
0.00325682
0.00314078
0.00305903
0.00302453
0.00300988
0.0030086
0.00302043
0.00303425
0.00303844
0.00303242
0.00299979
0.00296537
0.00294169
0.00291754
0.00288404
0.00284347
0.00280984
0.00279572
0.00279034
0.00279225
0.00283381
0.0029091
0.00297213
0.00304488
0.00313921
0.00324168
0.0033912
0.00367784
0.00408583
0.00456577
0.00490529
0.00504127
0.00507579
0.0049481
0.00444478
0.00396804
0.00375323
0.00358595
0.00340451
0.00324098
0.00312505
0.00305493
0.00297135
0.00291693
0.00286293
0.00281648
0.00277848
0.00273667
0.00269167
0.00264103
0.00257965
0.00250157
0.00240561
0.00229511
0.00217164
0.00203615
0.001894
0.00177224
0.00168309
0.00160905
0.00154834
0.00150515
0.00148247
0.00148372
0.00153455
0.00164808
0.00177741
0.00189646
0.00196741
0.00198455
0.00197929
0.00197258
0.0019752
0.00198885
0.0020428
0.00213695
0.00219525
0.0022181
0.00221987
0.00220563
0.00213483
0.00204423
0.0019939
0.00196844
0.00193186
0.00184366
0.0016988
0.0015241
0.00133058
0.00113586
0.000957432
0.000800568
0.000665653
0.000549685
0.00044974
0.000365291
0.000296462
0.000242562
0.000201816
0.00017182
0.000149997
0.00013366
0.000120262
0.000107712
9.49119e-05
8.16774e-05
6.86336e-05
5.64482e-05
4.57959e-05
3.67579e-05
2.94615e-05
2.34581e-05
1.87763e-05
1.48276e-05
1.1807e-05
9.14137e-06
7.12634e-06
5.28596e-06
3.82745e-06
2.78933e-06
1.62407e-06
0.0899749
0.0779038
0.133413
0.136021
0.123192
0.0915387
0.066442
0.0514123
0.0456411
0.0434028
0.0427317
0.0422803
0.0419957
0.0414337
0.0410269
0.0404477
0.0398629
0.0394492
0.0386821
0.0382767
0.0377017
0.0374501
0.0375386
0.0380029
0.0390936
0.0411997
0.045649
0.0521214
0.0595522
0.074693
0.110458
0.215203
0.247781
0.237213
0.209506
0.192513
0.176299
0.137182
0.121095
0.125868
0.139811
0.143568
0.154616
0.203688
0.180074
0.0587181
0.0266128
0.0175045
0.0131189
0.0085149
0.00656779
0.00569775
0.00498164
0.00464919
0.00430959
0.00414825
0.0039735
0.00389976
0.00386868
0.00388353
0.00391167
0.00392129
0.00392876
0.00393157
0.00392421
0.00391193
0.003911
0.00390735
0.0038968
0.00387278
0.0038462
0.00383102
0.00381173
0.00378606
0.0037433
0.00369083
0.00362978
0.00356701
0.00348867
0.00342231
0.00340764
0.00340982
0.00346081
0.00360727
0.0039447
0.00464787
0.00585446
0.00764376
0.0096972
0.0107085
0.011105
0.0111879
0.0107406
0.00922716
0.00744105
0.00617181
0.00538889
0.00504655
0.00466741
0.00410181
0.00384199
0.00358082
0.0034019
0.00325165
0.00313709
0.00305249
0.0029968
0.00297658
0.00299451
0.00304919
0.00313086
0.00317915
0.00320422
0.00321192
0.00319592
0.00314162
0.00300893
0.00279287
0.00252021
0.00220089
0.00184822
0.00152169
0.00128381
0.00111869
0.00101826
0.000981977
0.000986668
0.00103673
0.00105949
0.00104303
0.000979625
0.000977193
0.00104228
0.00122325
0.00135733
0.00144607
0.00148338
0.00148055
0.0014169
0.00124553
0.00115504
0.0011367
0.00114945
0.00122656
0.00129331
0.00130577
0.00130011
0.00126911
0.0011543
0.000953051
0.000783647
0.00065269
0.000552339
0.000470883
0.000399217
0.000334166
0.000277032
0.000229932
0.000193597
0.000166955
0.000147388
0.00013278
0.000121467
0.000112043
0.000103378
9.47177e-05
8.55863e-05
7.58207e-05
6.56742e-05
5.5521e-05
4.60889e-05
3.75692e-05
3.06018e-05
2.45717e-05
2.02164e-05
1.6108e-05
1.36259e-05
1.05677e-05
9.22443e-06
6.37863e-06
0.0671212
0.166878
0.155258
0.110696
0.0573013
0.0392038
0.0363556
0.0368759
0.0382043
0.0400021
0.0414812
0.0420722
0.042004
0.0416789
0.0410058
0.0405172
0.0400108
0.0395897
0.0390882
0.0386988
0.0381705
0.0375968
0.037178
0.0366205
0.0364886
0.0366245
0.037252
0.0388779
0.0424505
0.0484163
0.0593204
0.0837967
0.142459
0.188237
0.188784
0.181979
0.153821
0.115635
0.115193
0.132194
0.149651
0.154529
0.160743
0.16644
0.0568979
0.021952
0.0123562
0.00872574
0.00688166
0.00574538
0.0053187
0.00512556
0.00494717
0.00485152
0.00478335
0.00475628
0.00472107
0.00470709
0.00462431
0.00448581
0.00438183
0.00431698
0.00420515
0.00406625
0.00396629
0.00388223
0.00380311
0.00373547
0.00367226
0.00358956
0.00350126
0.00345357
0.00343396
0.00342695
0.00343555
0.00349069
0.00353725
0.00359742
0.00364796
0.00369385
0.00373261
0.00381109
0.0040138
0.00457177
0.00585315
0.00829857
0.0122257
0.0152196
0.0161072
0.0163914
0.0164324
0.0161238
0.0153618
0.0141566
0.0124449
0.0103651
0.00834362
0.00725824
0.00681839
0.00635443
0.00592247
0.00541601
0.00487208
0.00431028
0.00375927
0.00328713
0.00294245
0.00265404
0.00242181
0.00226026
0.00217315
0.00221861
0.00240143
0.00266129
0.00296391
0.0032336
0.00341577
0.00351658
0.00356006
0.00355224
0.00347091
0.00323675
0.00280331
0.00224582
0.00167352
0.00126739
0.00105923
0.000999244
0.00102347
0.00123152
0.00161121
0.00184651
0.00201733
0.00216969
0.00224579
0.00224814
0.00219094
0.00202522
0.00194389
0.00188092
0.00171586
0.00135826
0.00121502
0.00122603
0.00131189
0.00143535
0.00150887
0.00153392
0.00153352
0.00152084
0.00147702
0.00140464
0.00133645
0.00124035
0.00107499
0.000847019
0.000611824
0.000420984
0.000286281
0.00019709
0.000139995
0.000104605
8.34367e-05
7.13426e-05
6.44954e-05
6.05787e-05
5.83465e-05
5.60203e-05
5.24255e-05
4.69556e-05
4.01976e-05
3.27273e-05
2.58357e-05
1.97561e-05
1.53606e-05
1.19439e-05
9.9235e-06
8.13836e-06
7.10432e-06
6.03545e-06
0.0982765
0.114945
0.0652114
0.0339287
0.0286866
0.0302876
0.0347616
0.0400031
0.0436917
0.0449389
0.0448688
0.0444992
0.0435179
0.0422727
0.041164
0.0407346
0.0408223
0.0410917
0.0417708
0.0421036
0.0419793
0.0415486
0.0406198
0.0393577
0.0382567
0.037261
0.036937
0.037035
0.0376327
0.0393403
0.0432037
0.0513818
0.0709898
0.101346
0.122031
0.120284
0.105452
0.104089
0.115977
0.147152
0.150086
0.149318
0.134052
0.0613133
0.0207916
0.0106722
0.00756998
0.00635937
0.00581184
0.00555322
0.00543699
0.00538957
0.00522511
0.00508936
0.00491145
0.00467947
0.00453866
0.00437909
0.00422933
0.00400525
0.00390595
0.00385584
0.00383283
0.00382605
0.00384114
0.0039224
0.00405181
0.00410986
0.00411364
0.00390743
0.00359925
0.00325966
0.00307273
0.00287974
0.00268197
0.00260919
0.00258318
0.00259636
0.0027112
0.0029439
0.00333232
0.00392936
0.0048704
0.00657244
0.00961687
0.0142141
0.0168108
0.0175867
0.0178334
0.0178874
0.0177943
0.0172984
0.016472
0.0154327
0.0138073
0.0117575
0.00966898
0.0079342
0.0072269
0.00704787
0.00696503
0.00689975
0.00685418
0.00673986
0.00646044
0.00597278
0.00525359
0.00438897
0.00345175
0.00260965
0.0020263
0.00163151
0.00136964
0.00122163
0.00116797
0.0012555
0.00161055
0.00211854
0.00266069
0.00316696
0.00350213
0.00365908
0.00369689
0.00364332
0.00338292
0.00271669
0.00192949
0.00132713
0.00104507
0.00098003
0.00101581
0.00123458
0.00151085
0.0017774
0.00207287
0.00228958
0.00237105
0.00236963
0.0023323
0.00232094
0.00231192
0.00226587
0.00222544
0.00218143
0.00205854
0.0019184
0.00187527
0.00188098
0.00192385
0.00198845
0.00201255
0.00201255
0.00198429
0.00184586
0.00159586
0.00135817
0.00110979
0.000865647
0.000666796
0.000523889
0.00040875
0.000293075
0.000180976
9.75849e-05
5.57835e-05
4.43513e-05
4.3801e-05
4.65235e-05
5.11714e-05
5.2198e-05
5.18344e-05
4.96595e-05
4.159e-05
2.92535e-05
1.94647e-05
1.25191e-05
8.03002e-06
5.4998e-06
4.23527e-06
3.57662e-06
0.0500306
0.0421395
0.0237715
0.0226602
0.0268496
0.037722
0.043601
0.0454375
0.0457369
0.045597
0.0448675
0.0427912
0.0403445
0.0391943
0.0391909
0.0398523
0.0418417
0.0456671
0.0494296
0.0539217
0.0544159
0.0538381
0.0521959
0.0491834
0.0457787
0.0421581
0.0394187
0.0378424
0.0377531
0.0380175
0.0391047
0.042019
0.0492449
0.0640035
0.0849145
0.0911589
0.0920013
0.104418
0.135563
0.144063
0.136771
0.113671
0.054032
0.0213678
0.0103141
0.00735375
0.00642412
0.00607522
0.00590612
0.00583699
0.00577156
0.00547335
0.00531504
0.00504361
0.00484491
0.00461641
0.00453685
0.00449968
0.00450347
0.00466505
0.00515091
0.0059222
0.00698146
0.0082629
0.00965731
0.0110236
0.0120664
0.0125093
0.0125929
0.011737
0.0103946
0.00849435
0.00704656
0.00586873
0.00442926
0.00361469
0.00299324
0.00277314
0.0027096
0.00282802
0.00336483
0.00437254
0.00603104
0.00875667
0.0129844
0.0167
0.0178663
0.0182462
0.0183467
0.0183593
0.0182845
0.0179799
0.0173044
0.0161624
0.0144499
0.0122432
0.0101025
0.00856783
0.00704039
0.00658301
0.00648407
0.00659434
0.00679689
0.00696284
0.00702583
0.00698138
0.00683198
0.00657646
0.00612614
0.00538903
0.00434718
0.00318385
0.00213382
0.00140963
0.000991967
0.00075062
0.000623505
0.000575094
0.000610239
0.000836422
0.00143792
0.00223506
0.00300775
0.00349188
0.00365246
0.00364128
0.00343052
0.00269731
0.00178498
0.00123528
0.00104459
0.00103151
0.0010979
0.00128071
0.00159443
0.00201081
0.00235477
0.00253762
0.00260869
0.00265687
0.00269004
0.00269634
0.00268958
0.00266283
0.00260054
0.00244299
0.00220763
0.0020362
0.00198427
0.00198513
0.00198711
0.0019773
0.0019195
0.00173332
0.00151763
0.00131673
0.00112211
0.000932763
0.00075832
0.000613898
0.000503495
0.000414737
0.000331079
0.000248826
0.000177902
0.000127966
0.000101814
9.30203e-05
9.1739e-05
9.22123e-05
9.30096e-05
9.26907e-05
8.9137e-05
7.45275e-05
5.42363e-05
3.83881e-05
2.72007e-05
1.88164e-05
1.3979e-05
9.2203e-06
0.0288366
0.0317735
0.0172625
0.0221407
0.0375382
0.0436109
0.0454669
0.0458938
0.0457056
0.0444841
0.0407284
0.0365609
0.0357397
0.0360586
0.0376379
0.0419218
0.0540166
0.0697763
0.082513
0.0983292
0.101638
0.0997418
0.0936538
0.0823768
0.0684142
0.0564471
0.0473687
0.0415629
0.0389298
0.0383362
0.0385233
0.0396264
0.0431729
0.0510854
0.0756218
0.0848769
0.0920747
0.115914
0.128024
0.121074
0.0853706
0.0437006
0.0201529
0.0105435
0.00752773
0.00669748
0.00641614
0.00629645
0.00632227
0.00605655
0.00579964
0.0054873
0.00533442
0.00509085
0.00498254
0.00494992
0.00521118
0.00590489
0.00714982
0.00934292
0.0127693
0.0174007
0.0229794
0.0290826
0.0350442
0.039993
0.0425124
0.043467
0.0433749
0.0395978
0.0359347
0.0296939
0.024609
0.0194206
0.014901
0.0110133
0.00734017
0.00544098
0.0042547
0.00389749
0.00389159
0.004803
0.00686831
0.00982489
0.0138681
0.0170463
0.0180519
0.0183659
0.0184312
0.0184435
0.0184621
0.0184134
0.0180788
0.0171999
0.0155205
0.0131899
0.0103305
0.00891589
0.00730615
0.00631621
0.0059186
0.00571872
0.00563132
0.00570156
0.00596727
0.00626036
0.00649675
0.00658278
0.00646169
0.00615258
0.00571755
0.00516348
0.0044058
0.00328475
0.00212378
0.00127816
0.000777359
0.00050357
0.00036483
0.000305195
0.000298054
0.000360925
0.000656573
0.00155443
0.00261213
0.00327466
0.00347488
0.00343908
0.0030814
0.00211861
0.00138953
0.00109466
0.00103993
0.00106832
0.00124116
0.00167036
0.00212939
0.00248972
0.0027087
0.00282421
0.0028726
0.00287611
0.00283827
0.00274716
0.00269846
0.00263669
0.00248364
0.0022808
0.00214549
0.00209022
0.00207169
0.00204359
0.00196903
0.00173449
0.00140868
0.00115935
0.000973489
0.000818384
0.000675086
0.000544321
0.000437248
0.000358997
0.000303247
0.00025781
0.000213659
0.000172144
0.000139414
0.000117921
0.00010645
0.000101986
0.000100834
0.000100422
9.9572e-05
9.70289e-05
8.87551e-05
7.06123e-05
5.42603e-05
4.00898e-05
2.98992e-05
2.04013e-05
0.0276531
0.0315567
0.0119441
0.0297605
0.0416926
0.0446848
0.0456248
0.0454725
0.0442368
0.0402048
0.0346502
0.0327641
0.0327837
0.033982
0.0391081
0.0548574
0.0808935
0.106163
0.127607
0.146353
0.152015
0.150769
0.145692
0.133035
0.113493
0.0892506
0.0641073
0.0490889
0.0416876
0.0390936
0.0386737
0.0391937
0.0421018
0.051262
0.0825549
0.082772
0.0929445
0.105106
0.095052
0.0634483
0.0363048
0.0183453
0.0106286
0.00787039
0.00705678
0.00680739
0.00673873
0.00680455
0.00645528
0.00612439
0.00579634
0.00555657
0.00546553
0.00543481
0.00572164
0.00650272
0.00819708
0.0114457
0.0168057
0.0251025
0.0367134
0.0514729
0.0685186
0.086447
0.100914
0.109688
0.113885
0.115121
0.11124
0.102113
0.092295
0.0787718
0.0671843
0.054476
0.044668
0.0348534
0.0265712
0.0183264
0.011949
0.00833204
0.00676358
0.0062358
0.0065864
0.00920907
0.0125926
0.0159001
0.017494
0.017984
0.0181453
0.0183025
0.0185443
0.0186293
0.0184384
0.0176064
0.015906
0.013843
0.010998
0.00879569
0.00802551
0.00691036
0.00616144
0.0057068
0.00544512
0.00526571
0.0051248
0.00507011
0.00510502
0.00524516
0.00546059
0.0056003
0.00559227
0.00534784
0.00494402
0.00441756
0.00359789
0.0026426
0.00170439
0.00100264
0.000569115
0.000333343
0.000223381
0.000182256
0.000179835
0.000230158
0.000494005
0.00147955
0.00260145
0.00311526
0.00318781
0.00301266
0.0022245
0.0014242
0.00110005
0.00104534
0.00109916
0.0014066
0.00189516
0.00230615
0.00259135
0.00274434
0.00279799
0.00279673
0.00272864
0.00261259
0.00256791
0.00255134
0.00253031
0.00248625
0.00237955
0.00230316
0.00227045
0.00223651
0.00216059
0.00195478
0.00164904
0.00134594
0.00107349
0.000842416
0.000646891
0.000479986
0.000344481
0.000250836
0.000203745
0.000189811
0.000185175
0.000176785
0.00015378
0.000125503
0.000106629
9.76315e-05
9.51088e-05
9.48563e-05
9.48236e-05
9.44512e-05
9.29951e-05
8.86386e-05
7.61686e-05
5.90773e-05
4.54801e-05
3.19453e-05
0.0282578
0.0314675
0.00963364
0.0361299
0.0429013
0.0447576
0.0448601
0.0441073
0.0411927
0.0355304
0.0314817
0.0294902
0.029669
0.0323725
0.0410296
0.0625876
0.0911703
0.121741
0.148859
0.16766
0.174658
0.174424
0.171575
0.163617
0.147585
0.12449
0.0952632
0.0667409
0.0491321
0.0411802
0.0390274
0.0393356
0.042995
0.0590247
0.0848603
0.0761731
0.0812637
0.0727159
0.0509281
0.0300244
0.0170037
0.0107565
0.00829792
0.00748769
0.00723697
0.00724807
0.00730067
0.00693744
0.006487
0.00616903
0.00589215
0.00581111
0.00593785
0.00652722
0.00796755
0.0109226
0.0164235
0.0261911
0.0419768
0.0663387
0.101913
0.137959
0.163785
0.184488
0.194464
0.198913
0.199747
0.193277
0.18027
0.164369
0.145112
0.124856
0.10446
0.0855341
0.069551
0.0575888
0.0486575
0.0413
0.0343866
0.0265143
0.0193914
0.0138567
0.0112616
0.0106529
0.0117852
0.0143882
0.0156908
0.0168498
0.0176219
0.0182516
0.0189281
0.0191499
0.0188731
0.0177488
0.0159443
0.0138998
0.0112779
0.00862964
0.00802935
0.0072459
0.00660044
0.00603616
0.00560287
0.0052889
0.00505044
0.00487367
0.00476442
0.00471346
0.00470278
0.00471495
0.00474387
0.00478549
0.00476937
0.00454612
0.00402164
0.00330666
0.00254777
0.00178579
0.00111927
0.000644613
0.000354866
0.000204205
0.000141835
0.000126718
0.000138379
0.000238215
0.000740046
0.00196651
0.00268393
0.00285358
0.00275212
0.00211008
0.00135575
0.00107332
0.00104825
0.0011718
0.00164965
0.002059
0.00229235
0.00239837
0.002426
0.00242116
0.00235552
0.00226616
0.00225619
0.00231439
0.00242909
0.00245544
0.00244928
0.00241398
0.00234737
0.00224732
0.0020765
0.00184963
0.00159489
0.00132947
0.001074
0.000841743
0.000638836
0.000469173
0.000336741
0.000243606
0.000189888
0.000171919
0.00016994
0.000167707
0.000158977
0.00012913
9.73595e-05
7.97438e-05
7.37767e-05
7.35162e-05
7.62329e-05
8.2412e-05
8.45309e-05
8.44105e-05
8.2788e-05
7.65061e-05
6.24117e-05
4.56721e-05
0.0283314
0.0311019
0.00913941
0.0390199
0.0430316
0.0437526
0.0437199
0.0422668
0.0386817
0.0333235
0.02951
0.0273007
0.0271437
0.0296317
0.0387377
0.0598613
0.0922292
0.125861
0.155803
0.174714
0.180978
0.1809
0.17805
0.169101
0.152188
0.128063
0.0979838
0.0685791
0.0496834
0.0410741
0.0389613
0.0398504
0.0472451
0.0723492
0.078452
0.0624235
0.0581336
0.0416943
0.0269354
0.0160454
0.0109883
0.00882518
0.00802315
0.00772816
0.00780482
0.00789423
0.00755808
0.00695147
0.00656944
0.00631542
0.00621263
0.00642516
0.00722096
0.00924995
0.0133813
0.0213773
0.036174
0.0637863
0.105442
0.150928
0.187256
0.213629
0.231725
0.24009
0.243336
0.2437
0.236236
0.223146
0.207915
0.187314
0.165041
0.140818
0.116746
0.094549
0.0758614
0.0623923
0.0530251
0.046516
0.0416546
0.0377966
0.034486
0.031302
0.0267336
0.0222772
0.0195501
0.018024
0.0182185
0.0186763
0.0192406
0.0202003
0.0208533
0.0202516
0.0190728
0.017499
0.0150134
0.0126379
0.0108562
0.0085576
0.00705514
0.00694446
0.00655569
0.00603895
0.00562417
0.00529259
0.00501927
0.0048086
0.00466238
0.00457305
0.00452771
0.004509
0.00449897
0.00448417
0.00445401
0.00438432
0.00418529
0.0036124
0.00288991
0.00220782
0.00158238
0.00103694
0.000621719
0.000348182
0.000193534
0.000123533
0.000104037
0.000108313
0.000166589
0.000488995
0.00155452
0.00231806
0.00251792
0.0024409
0.00187167
0.00123451
0.0010312
0.00103408
0.00123016
0.00174515
0.00203983
0.00215576
0.00222569
0.00227909
0.00228524
0.00225589
0.00217942
0.0021699
0.00223851
0.00236098
0.0023882
0.00236938
0.00225949
0.00214442
0.00204177
0.00183136
0.0015262
0.00122597
0.000972551
0.000760666
0.000581073
0.00043079
0.00031162
0.000227369
0.000179861
0.000162866
0.000158811
0.000156091
0.000149983
0.000130185
9.5798e-05
7.10013e-05
6.04081e-05
5.94105e-05
6.22291e-05
7.13416e-05
7.72908e-05
7.94437e-05
7.95766e-05
7.84691e-05
7.39841e-05
5.97048e-05
0.0283249
0.030986
0.0134493
0.0400456
0.0421162
0.0428249
0.0427902
0.0410293
0.0375152
0.0319282
0.0278439
0.0259858
0.0254345
0.0261133
0.0298127
0.0395374
0.064743
0.101701
0.138051
0.164506
0.176001
0.177533
0.174389
0.164161
0.147183
0.122767
0.0932172
0.0654884
0.0481374
0.0402299
0.0390746
0.0420764
0.0603252
0.0722544
0.0628268
0.0465483
0.0393058
0.0237525
0.0161471
0.0114051
0.00947684
0.00868621
0.00832759
0.00840225
0.00854074
0.00828306
0.00758919
0.00703522
0.0067798
0.00669019
0.00692119
0.00797066
0.0107273
0.0162203
0.0258807
0.0426324
0.0731896
0.119091
0.167611
0.209534
0.239696
0.254568
0.263146
0.266323
0.266909
0.262063
0.249263
0.234406
0.21577
0.193527
0.169263
0.143032
0.1171
0.0932252
0.0730961
0.0579618
0.0475969
0.0413658
0.0379208
0.0356445
0.0339749
0.0332329
0.0323095
0.0312762
0.0298939
0.0283065
0.0267679
0.0257042
0.024621
0.0236366
0.0222958
0.0204805
0.0185854
0.0160713
0.0135136
0.0112584
0.00896182
0.00767769
0.00665819
0.00586682
0.00554799
0.00534849
0.00514568
0.00492175
0.00472855
0.00459894
0.00451106
0.00444356
0.00439587
0.00438451
0.00438579
0.00437685
0.00435747
0.00431831
0.00422187
0.00397782
0.00332097
0.00250262
0.00182298
0.00127944
0.000846831
0.000521837
0.00030113
0.000170432
0.00010863
9.13813e-05
9.50598e-05
0.000144565
0.00042414
0.00137699
0.00206898
0.00223711
0.00215037
0.00160137
0.00110795
0.000976045
0.000995082
0.00121302
0.0016756
0.00196367
0.00212853
0.00221128
0.00222757
0.00220764
0.00210586
0.00202899
0.00202544
0.00211123
0.00222738
0.0022374
0.00216557
0.00198345
0.00193085
0.00188127
0.00175828
0.00141782
0.00104608
0.000768182
0.000566516
0.000417498
0.000305413
0.00022409
0.000173379
0.000151345
0.000143266
0.000140062
0.00013648
0.00012811
0.000105758
8.11689e-05
6.56743e-05
6.0987e-05
6.21491e-05
6.80962e-05
7.34053e-05
7.55739e-05
7.60859e-05
7.59294e-05
7.45306e-05
6.86964e-05
0.0281221
0.0309921
0.0254413
0.0394842
0.041576
0.0423804
0.0422445
0.040455
0.0369253
0.031296
0.0269169
0.0252183
0.024697
0.0248277
0.0269018
0.032661
0.0448595
0.0702711
0.103088
0.134235
0.1538
0.161778
0.160395
0.150422
0.133728
0.108993
0.0814934
0.0574844
0.0443576
0.0398293
0.0399791
0.0489631
0.0669206
0.0690967
0.0459717
0.0342168
0.025809
0.0158442
0.0120217
0.0101739
0.00949097
0.00916558
0.00934307
0.00944176
0.00918326
0.0084349
0.0076838
0.0073514
0.00731624
0.00755818
0.0085604
0.0109754
0.0155874
0.023863
0.0392907
0.0713109
0.121297
0.174501
0.218042
0.249725
0.265968
0.273412
0.276473
0.277143
0.274821
0.265167
0.250967
0.232154
0.206404
0.175231
0.142877
0.110658
0.0805507
0.0573047
0.0414054
0.0305509
0.0236335
0.0202379
0.0190331
0.0188424
0.0189132
0.0202007
0.0222714
0.0243344
0.0261217
0.0270123
0.0269542
0.0261502
0.0247238
0.0233185
0.0212978
0.0185943
0.0155154
0.0124017
0.00983788
0.00814882
0.00697683
0.00620973
0.00580548
0.00536512
0.00503686
0.00486298
0.00475193
0.00466313
0.00458545
0.00451738
0.00445831
0.00439626
0.00431668
0.00421943
0.00417672
0.00418187
0.00418111
0.00418077
0.00416544
0.00407427
0.0038244
0.00314215
0.00219171
0.00148446
0.00098705
0.000639422
0.00039716
0.000235383
0.000138646
9.33767e-05
8.22359e-05
8.78431e-05
0.000142952
0.000447015
0.00134409
0.00188979
0.00199289
0.00187245
0.00132989
0.000970523
0.000888474
0.000911686
0.00109765
0.00153764
0.00183648
0.00197251
0.00199924
0.00198166
0.00187026
0.0017567
0.00173157
0.0017525
0.00189244
0.00201081
0.00201672
0.0019551
0.00184969
0.00181712
0.00175096
0.00153941
0.00117708
0.000861638
0.000621122
0.000445604
0.000319669
0.00023243
0.000178148
0.000150082
0.000134961
0.000126685
0.000122597
0.000119591
0.000114017
0.000102028
8.60539e-05
7.38248e-05
6.95347e-05
7.00316e-05
7.20698e-05
7.28411e-05
7.28305e-05
7.24415e-05
7.14772e-05
6.91773e-05
0.0275739
0.0311825
0.0305061
0.0390691
0.0408534