/*--------------------------------*- C++ -*----------------------------------*\
  =========                 |
  \\      /  F ield         | OpenFOAM: The Open Source CFD Toolbox
   \\    /   O peration     | Website:  https://openfoam.org
    \\  /    A nd           | Version:  9
     \\/     M anipulation  |
\*---------------------------------------------------------------------------*/
FoamFile
{
    format      ascii;
    class       volScalarField;
    location    "0.042";
    object      k_0;
}
// * * * * * * * * * * * * * * * * * * * * * * * * * * * * * * * * * * * * * //

dimensions      [0 2 -2 0 0 0 0];

internalField   nonuniform List<scalar> 
12225
(
1.96592e-05
2.1565e-05
3.81563e-05
5.88091e-05
6.0686e-05
5.39717e-05
5.19823e-05
6.3142e-05
0.000131584
0.000220325
0.000251801
0.000252842
0.000230431
0.000154312
7.43032e-05
0.000149333
0.00026776
0.0096251
2e-05
2.02344e-05
2.22091e-05
2.58028e-05
2.71196e-05
2.72222e-05
2.73301e-05
2.85411e-05
3.45479e-05
5.60814e-05
9.55105e-05
0.000117773
0.00012377
0.000122982
0.000113324
0.000106333
7.70704e-05
0.00013645
2.00339e-05
1.7393e-05
1.17147e-05
1.06502e-05
1.10737e-05
1.33778e-05
1.55935e-05
1.67643e-05
1.84113e-05
2.22284e-05
2.81302e-05
3.17474e-05
3.42757e-05
3.50228e-05
3.45713e-05
3.32133e-05
2.85175e-05
2.43046e-05
2.27656e-05
2.20941e-05
2.02977e-05
1.95673e-05
1.92012e-05
1.92144e-05
1.91822e-05
1.89817e-05
1.84615e-05
1.71082e-05
1.40998e-05
1.25992e-05
1.23323e-05
1.25353e-05
1.32572e-05
1.48261e-05
1.54895e-05
1.75957e-05
2.04544e-05
2.03254e-05
2.03826e-05
2.08389e-05
2.12005e-05
2.12134e-05
2.09688e-05
2.05501e-05
2.0463e-05
2.05064e-05
2.08155e-05
2.12479e-05
2.1457e-05
2.15701e-05
2.17611e-05
2.22213e-05
2.34134e-05
2.59319e-05
2.41625e-05
2.21503e-05
2.43051e-05
2.57261e-05
2.5062e-05
2.2652e-05
2.1462e-05
2.12382e-05
2.13677e-05
2.1997e-05
2.24386e-05
2.26105e-05
2.27309e-05
2.29518e-05
2.35261e-05
2.55012e-05
3.19943e-05
3.9065e-05
2.12134e-05
2.14532e-05
2.27755e-05
2.34643e-05
2.34996e-05
2.30659e-05
2.20255e-05
2.16357e-05
2.16134e-05
2.17212e-05
2.18364e-05
2.18724e-05
2.1897e-05
2.19779e-05
2.23072e-05
2.34346e-05
2.71828e-05
3.18322e-05
2.22797e-05
2.09407e-05
2.08022e-05
2.1414e-05
2.19065e-05
2.19287e-05
2.19094e-05
2.20267e-05
2.30614e-05
2.57298e-05
2.66359e-05
2.65415e-05
2.53114e-05
2.38321e-05
2.3162e-05
2.29768e-05
2.29641e-05
2.3241e-05
2.8585e-05
3.25167e-05
2.55553e-05
2.33316e-05
2.29625e-05
2.23418e-05
2.19744e-05
2.20359e-05
2.30172e-05
2.7937e-05
3.03434e-05
3.02553e-05
2.89491e-05
2.58408e-05
2.37442e-05
2.25932e-05
2.20219e-05
2.18056e-05
2.51785e-05
4.11379e-05
3.6647e-05
2.58501e-05
2.23391e-05
2.14265e-05
2.14025e-05
2.20583e-05
2.59365e-05
3.10956e-05
3.2349e-05
3.20965e-05
2.98352e-05
2.57728e-05
2.34917e-05
2.25067e-05
2.22298e-05
2.21049e-05
2.18312e-05
2.48793e-05
2.49616e-05
2.43008e-05
2.26823e-05
2.20888e-05
2.21201e-05
2.27993e-05
2.38333e-05
2.40569e-05
2.39798e-05
2.35528e-05
2.24638e-05
2.18816e-05
2.18816e-05
2.20991e-05
2.2684e-05
2.27372e-05
2.00205e-05
2.05432e-05
2.12155e-05
2.14552e-05
2.18453e-05
2.30118e-05
2.40335e-05
2.43854e-05
2.43783e-05
2.40666e-05
2.27956e-05
2.1764e-05
2.17149e-05
2.22209e-05
2.3921e-05
2.47317e-05
2.48521e-05
2.47544e-05
2.00122e-05
2.01881e-05
2.06418e-05
2.16618e-05
2.58334e-05
3.30896e-05
3.33278e-05
2.95564e-05
2.52726e-05
2.32672e-05
2.25522e-05
2.24907e-05
2.28073e-05
2.45004e-05
2.69133e-05
2.84102e-05
2.91941e-05
2.95215e-05
2.00012e-05
2.00687e-05
2.04935e-05
2.22967e-05
2.86706e-05
3.17851e-05
3.00925e-05
2.55617e-05
2.37019e-05
2.33105e-05
2.3361e-05
2.39112e-05
2.62586e-05
2.93833e-05
3.12546e-05
3.20366e-05
3.21786e-05
3.1976e-05
2.00373e-05
2.01103e-05
2.04533e-05
2.23635e-05
2.98996e-05
3.41771e-05
3.41446e-05
3.02458e-05
2.46135e-05
2.26195e-05
2.22991e-05
2.25029e-05
2.39811e-05
2.62858e-05
2.76335e-05
2.8294e-05
2.85927e-05
2.85863e-05
2.03926e-05
2.03925e-05
2.07104e-05
2.19052e-05
2.38085e-05
2.43759e-05
2.38382e-05
2.2054e-05
2.10344e-05
2.07446e-05
2.07738e-05
2.08666e-05
2.09325e-05
2.10815e-05
2.14716e-05
2.24567e-05
2.51746e-05
3.09684e-05
2.02161e-05
2.0995e-05
2.1274e-05
2.13002e-05
2.12212e-05
2.10877e-05
2.07491e-05
2.07084e-05
2.07688e-05
2.08541e-05
2.09125e-05
2.09853e-05
2.11543e-05
2.12827e-05
2.12975e-05
2.13082e-05
2.13882e-05
2.17321e-05
2.00199e-05
2.04954e-05
2.12967e-05
2.14589e-05
2.12431e-05
2.06443e-05
2.03944e-05
2.03382e-05
2.03447e-05
2.04219e-05
2.06644e-05
2.09932e-05
2.12757e-05
2.13924e-05
2.1409e-05
2.141e-05
2.14237e-05
2.14718e-05
2.05296e-05
2.08838e-05
2.14719e-05
2.1822e-05
2.19545e-05
2.16329e-05
2.09093e-05
2.06354e-05
2.06002e-05
2.06678e-05
2.10863e-05
2.20637e-05
2.35144e-05
2.49004e-05
2.53467e-05
2.5313e-05
2.50353e-05
2.41957e-05
2.04661e-05
2.06551e-05
2.18814e-05
2.27585e-05
2.27661e-05
2.25846e-05
2.2703e-05
2.30169e-05
2.27721e-05
2.16086e-05
2.09791e-05
2.08485e-05
2.08505e-05
2.09491e-05
2.11537e-05
2.13221e-05
2.14701e-05
2.16168e-05
2.128e-05
2.09281e-05
2.06551e-05
2.05609e-05
2.05515e-05
2.06758e-05
2.16695e-05
2.48103e-05
2.59637e-05
2.56267e-05
2.34193e-05
2.17649e-05
2.11048e-05
2.08332e-05
2.07317e-05
2.07082e-05
2.07153e-05
2.07944e-05
2.05233e-05
2.0243e-05
2.02407e-05
2.03184e-05
2.05483e-05
2.11866e-05
2.31025e-05
2.95907e-05
3.36932e-05
3.33272e-05
2.90466e-05
2.46619e-05
2.2596e-05
2.1643e-05
2.12162e-05
2.10399e-05
2.0984e-05
2.09789e-05
2.1192e-05
2.09476e-05
2.10293e-05
2.11314e-05
2.106e-05
2.10431e-05
2.10782e-05
2.12823e-05
2.23288e-05
2.3906e-05
2.43699e-05
2.4373e-05
2.4261e-05
2.4016e-05
2.34912e-05
2.29867e-05
2.24667e-05
2.19918e-05
2.06293e-05
2.18582e-05
2.26153e-05
2.2023e-05
2.10721e-05
2.06937e-05
2.06557e-05
2.08076e-05
2.1665e-05
2.52814e-05
3.47847e-05
3.97256e-05
4.01477e-05
3.84135e-05
3.21489e-05
2.71132e-05
2.42409e-05
2.27405e-05
2.06452e-05
2.3585e-05
2.39439e-05
2.21499e-05
2.09122e-05
2.07561e-05
2.10366e-05
2.25754e-05
2.85614e-05
3.95466e-05
4.58619e-05
4.73394e-05
4.697e-05
4.46839e-05
3.8429e-05
3.24699e-05
2.75962e-05
2.43651e-05
2.02425e-05
2.05323e-05
2.04591e-05
2.02384e-05
2.021e-05
2.03102e-05
2.08464e-05
2.28191e-05
2.90367e-05
3.67803e-05
4.19446e-05
4.37982e-05
4.3553e-05
3.92779e-05
3.05203e-05
2.56075e-05
2.33866e-05
2.2474e-05
2.03453e-05
2.03455e-05
1.99551e-05
1.956e-05
1.94514e-05
1.94951e-05
1.98949e-05
2.04743e-05
2.05977e-05
2.05721e-05
2.03914e-05
1.9839e-05
1.92492e-05
1.87118e-05
1.83429e-05
1.82169e-05
1.82296e-05
1.83734e-05
2.00086e-05
1.52171e-05
1.19353e-05
1.18795e-05
1.23618e-05
1.28251e-05
1.29939e-05
1.31598e-05
1.34935e-05
1.4064e-05
1.44371e-05
1.45326e-05
1.45085e-05
1.43792e-05
1.4288e-05
1.42777e-05
1.43286e-05
1.46066e-05
2.01562e-05
2.04064e-05
2.19772e-05
2.32761e-05
2.35186e-05
2.36969e-05
2.45779e-05
2.89644e-05
3.62453e-05
3.9769e-05
4.03843e-05
3.99369e-05
3.75492e-05
3.48501e-05
3.38246e-05
3.37674e-05
3.41756e-05
3.59407e-05
5.43207e-05
4.53563e-05
4.96667e-05
4.97871e-05
4.82768e-05
4.86854e-05
5.55609e-05
8.25205e-05
0.000100547
0.00010394
0.000101105
8.80361e-05
8.0434e-05
7.95289e-05
8.20613e-05
9.63978e-05
0.000116163
0.000127015
0.077441
0.0911578
0.0904118
0.0919794
0.0949338
0.095489
0.091444
0.0985476
0.115343
0.116168
0.113434
0.107004
0.101103
0.0965349
0.0930079
0.0900373
0.0882704
0.0863198
0.0857867
0.084809
0.0840435
0.0841612
0.0844324
0.0842341
0.0833758
0.0832403
0.0826606
0.0925285
0.20198
0.332336
0.329162
0.255743
0.213239
0.17097
0.152826
0.148713
0.149947
0.152626
0.167498
0.161275
0.151506
0.155663
0.175108
0.243431
0.283131
0.264246
0.170828
0.103339
0.0607799
0.041881
0.0238444
0.0218563
0.0216691
0.0204662
0.0186013
0.0159479
0.013697
0.0108492
0.00928976
0.00695357
0.00584329
0.00432724
0.0036282
0.00283117
0.00247479
0.00224445
0.00216863
0.00216549
0.00215229
0.00214405
0.00213096
0.00212673
0.00212122
0.0021089
0.00210219
0.00210231
0.00211132
0.0021429
0.00222233
0.0023861
0.00267346
0.00308323
0.00333101
0.00338943
0.00323644
0.00263576
0.0023799
0.00231733
0.00242637
0.00247582
0.00249928
0.00250681
0.00249338
0.00242412
0.00235424
0.00232374
0.00228451
0.00222975
0.00219364
0.00216923
0.00214109
0.0021154
0.00209617
0.00208084
0.00205878
0.00204182
0.00201984
0.00200072
0.00198255
0.00196527
0.00194834
0.00193262
0.00191907
0.0019084
0.0019012
0.0018981
0.00190029
0.0019099
0.0019275
0.00195052
0.00197928
0.00201227
0.00204145
0.00206186
0.00207742
0.00208573
0.00208615
0.00207061
0.00204627
0.00203277
0.00202168
0.00199587
0.00193052
0.00184289
0.00177023
0.00172369
0.00167996
0.00159438
0.00140227
0.00111407
0.000800978
0.000567078
0.000460937
0.000445438
0.000473001
0.0005786
0.000614243
0.00057564
0.000399372
0.000246968
0.00017548
0.000136571
0.000104121
7.49181e-05
5.12329e-05
3.43722e-05
2.35704e-05
1.70451e-05
1.3068e-05
1.04396e-05
8.49513e-06
6.93362e-06
5.63687e-06
4.56068e-06
3.675e-06
2.95504e-06
2.36959e-06
1.89736e-06
1.51123e-06
1.2007e-06
9.43572e-07
7.39593e-07
5.67636e-07
4.35634e-07
3.21417e-07
2.38912e-07
1.63956e-07
1.18274e-07
6.56235e-08
4.24339e-07
0.0696301
0.0686517
0.0785019
0.115555
0.11747
0.10931
0.0959005
0.0909714
0.0817427
0.073096
0.0647789
0.0583694
0.0545295
0.0514795
0.0499632
0.04825
0.0474243
0.0465333
0.0459445
0.0461422
0.0468125
0.0485552
0.0505198
0.0548705
0.0583468
0.0660168
0.0717844
0.0775311
0.0967765
0.156689
0.277836
0.310161
0.27814
0.193736
0.168197
0.171528
0.166018
0.136741
0.135021
0.136244
0.136944
0.138574
0.15119
0.199301
0.26064
0.206875
0.0657866
0.0405858
0.0332462
0.0214481
0.0139672
0.0115315
0.00925216
0.0076352
0.00599192
0.00512355
0.00423138
0.00380084
0.00344446
0.00325604
0.00314188
0.00306121
0.0030264
0.0030111
0.00300936
0.00301937
0.00303306
0.00303775
0.00303281
0.00300115
0.00296533
0.00294021
0.00291609
0.00288325
0.00284301
0.00280764
0.00279272
0.0027869
0.00278801
0.00282691
0.00290167
0.0029652
0.00303615
0.0031288
0.00322885
0.00337136
0.00364485
0.00403926
0.0045093
0.00485676
0.00499674
0.00503448
0.00492302
0.00444033
0.00395979
0.00374471
0.00358106
0.00340127
0.00323802
0.00312262
0.00305277
0.0029697
0.00291528
0.0028615
0.00281524
0.00277739
0.00273469
0.0026893
0.00263795
0.0025757
0.00249648
0.00239954
0.00228815
0.00216385
0.00202766
0.00188595
0.00176629
0.00167874
0.00160545
0.00154567
0.0015036
0.00148209
0.00148493
0.00153965
0.00165442
0.00178418
0.00190232
0.00197106
0.00198653
0.00198032
0.00197359
0.00197633
0.00199057
0.00204673
0.00214027
0.0021972
0.00221894
0.00222028
0.00220491
0.0021317
0.00204239
0.00199336
0.00196815
0.00193056
0.00183999
0.0016938
0.00151831
0.00132456
0.00113022
0.000952518
0.000796403
0.000662142
0.000546721
0.000447269
0.000363292
0.000294904
0.000241388
0.000200956
0.000171202
0.000149551
0.000133319
0.000119966
0.000107421
9.46106e-05
8.13719e-05
6.83407e-05
5.61848e-05
4.55708e-05
3.65734e-05
2.93132e-05
2.33407e-05
1.86829e-05
1.47538e-05
1.17479e-05
9.09429e-06
7.08835e-06
5.2555e-06
3.80512e-06
2.77086e-06
1.61361e-06
0.0899278
0.0779185
0.133438
0.135918
0.123092
0.0914913
0.0664384
0.0514254
0.0456571
0.0434061
0.0427243
0.042258
0.0419578
0.0413876
0.0409817
0.0403921
0.0398158
0.0393927
0.0386268
0.0382238
0.037644
0.037403
0.0374955
0.0379696
0.0390795
0.0412121
0.0457117
0.0522545
0.0597682
0.075094
0.111292
0.216868
0.247324
0.236478
0.208557
0.191912
0.175557
0.136293
0.12105
0.12607
0.140092
0.143682
0.154887
0.204118
0.179046
0.058288
0.0264893
0.0174092
0.0130442
0.00848662
0.00655427
0.00569033
0.00497826
0.00464914
0.00431376
0.00415411
0.00397903
0.0039049
0.00387388
0.00388756
0.0039176
0.00392825
0.00393608
0.00393911
0.00393245
0.00391852
0.00391707
0.00391372
0.0039041
0.00388088
0.00385377
0.0038368
0.00381771
0.00379298
0.00375121
0.003699
0.00363776
0.00357499
0.00349753
0.00342504
0.00340775
0.00340831
0.00345286
0.0035873
0.00390116
0.00456589
0.005722
0.00745817
0.00950387
0.0105771
0.0109959
0.0110935
0.0106942
0.00922183
0.00743189
0.00615932
0.00537563
0.00503037
0.00465549
0.00409142
0.00383442
0.00357403
0.00339584
0.00324709
0.00313417
0.00305119
0.00299768
0.00297987
0.00300017
0.003057
0.00313839
0.00318382
0.00320792
0.00321433
0.00319635
0.00313859
0.00300017
0.0027801
0.0025047
0.00218312
0.00182995
0.00150744
0.00127466
0.00111281
0.00101576
0.000982098
0.000988403
0.00104061
0.00106218
0.00104431
0.000981025
0.000980383
0.00104959
0.0012311
0.00136226
0.00144886
0.00148394
0.00147992
0.00141126
0.0012394
0.00115248
0.00113583
0.0011499
0.00122952
0.00129429
0.00130571
0.00129964
0.00126729
0.00114845
0.000947261
0.000779041
0.000649191
0.000549613
0.00046861
0.000397209
0.000332394
0.000275539
0.00022875
0.000192713
0.000166313
0.000146913
0.000132425
0.000121187
0.000111803
0.000103151
9.44874e-05
8.53435e-05
7.55665e-05
6.5417e-05
5.52751e-05
4.58661e-05
3.73791e-05
3.04447e-05
2.44478e-05
2.01176e-05
1.60322e-05
1.35642e-05
1.05197e-05
9.18154e-06
6.34606e-06
0.0670109
0.166809
0.155097
0.110475
0.0572454
0.0392039
0.0363717
0.0368902
0.038213
0.0399936
0.0414678
0.0420365
0.0419609
0.0416184
0.0409558
0.0404724
0.039967
0.0395449
0.0390451
0.0386592
0.0381255
0.0375548
0.0371326
0.0365795
0.0364593
0.0366002
0.0372419
0.0388986
0.0425497
0.0485683
0.0596107
0.0843457
0.143793
0.188214
0.188448
0.181361
0.152675
0.115355
0.115182
0.132937
0.149851
0.154536
0.160643
0.16625
0.056487
0.0218252
0.0123032
0.00869477
0.00686702
0.00574626
0.00532373
0.00513185
0.00495752
0.00486579
0.00479773
0.00477034
0.00473499
0.00472213
0.00464085
0.00450203
0.00439215
0.00432662
0.00421882
0.0040793
0.00397657
0.00389217
0.00381246
0.00374319
0.00368008
0.00359873
0.0035095
0.00346034
0.00344059
0.00343372
0.00344156
0.00349545
0.0035415
0.00360062
0.0036496
0.00369262
0.0037281
0.00379956
0.00398461
0.00450203
0.00571223
0.00804643
0.0118695
0.01507
0.0160378
0.0163502
0.016403
0.016125
0.0153812
0.0141871
0.0124867
0.0104046
0.00836662
0.00726527
0.00681996
0.00634728
0.00590642
0.00539539
0.00484542
0.00428122
0.00373132
0.00326574
0.0029271
0.0026419
0.00241406
0.00225702
0.00217626
0.00223138
0.00242097
0.00268449
0.00298702
0.00325238
0.00342724
0.00352421
0.00356413
0.00355307
0.00346569
0.00322037
0.00277849
0.00221685
0.00164824
0.00125265
0.00105232
0.000997438
0.00102549
0.00124687
0.00162468
0.00185553
0.00202531
0.00217523
0.00224782
0.00224864
0.00218734
0.00202163
0.00194327
0.00187938
0.00170714
0.00135098
0.00121593
0.00122896
0.00131783
0.00143987
0.00151165
0.00153537
0.0015346
0.00152136
0.00147618
0.00140363
0.00133499
0.00123733
0.00106994
0.000840929
0.000606232
0.000416715
0.000283297
0.000195093
0.000138707
0.000103804
8.29572e-05
7.10629e-05
6.43273e-05
6.04729e-05
5.82659e-05
5.59274e-05
5.2298e-05
4.67906e-05
4.00096e-05
3.25398e-05
2.56681e-05
1.96221e-05
1.52611e-05
1.18749e-05
9.87367e-06
8.10116e-06
7.07439e-06
6.00825e-06
0.0982379
0.11468
0.065118
0.0339286
0.0287066
0.0303085
0.0347827
0.0400086
0.0436951
0.0449355
0.0448596
0.0444768
0.0434704
0.0422209
0.0411263
0.0407325
0.0408276
0.0411046
0.0417949
0.0421117
0.0419825
0.0415428
0.0405991
0.0393325
0.0382276
0.0372307
0.0369206
0.0370255
0.0376422
0.0393853
0.0433153
0.0516085
0.0715382
0.101841
0.122072
0.12014
0.105178
0.104056
0.116668
0.147495
0.150077
0.149114
0.13352
0.0605937
0.0206488
0.0106293
0.00755729
0.00636076
0.00582054
0.00556501
0.00545142
0.00540867
0.00524937
0.00510784
0.0049335
0.0046959
0.00455059
0.00438924
0.0042438
0.00401608
0.00390847
0.00385512
0.00383001
0.00382211
0.00383352
0.0039085
0.00403325
0.00408969
0.0040943
0.00389844
0.00359561
0.00325356
0.00306348
0.00287883
0.00267955
0.00260581
0.00257903
0.00258952
0.00269717
0.00292139
0.00329529
0.00387221
0.00477569
0.00640653
0.00934381
0.0139021
0.0167146
0.0175485
0.017816
0.0178762
0.0177958
0.0173151
0.0164967
0.015467
0.0138575
0.0118166
0.00972524
0.00795933
0.0072385
0.00705542
0.00697104
0.00690361
0.00685606
0.00673489
0.00644538
0.00594305
0.005211
0.00433777
0.00340055
0.00256848
0.00200138
0.00161421
0.00136003
0.00121803
0.00117157
0.00127221
0.00164486
0.00215546
0.00269734
0.00319648
0.00351803
0.00366719
0.00369976
0.00363979
0.00336248
0.00267988
0.00189468
0.00130687
0.00103689
0.000978267
0.00101882
0.00124792
0.00152257
0.00178992
0.00208378
0.00229563
0.0023726
0.00236985
0.00233203
0.00232188
0.00231243
0.00226535
0.00222583
0.00218077
0.00205492
0.00191683
0.00187611
0.00188248
0.001927
0.00199058
0.00201353
0.00201306
0.00198292
0.00183889
0.00158866
0.00135107
0.00110268
0.000859384
0.000662111
0.000520453
0.000405713
0.000290091
0.000178479
9.60711e-05
5.52252e-05
4.42774e-05
4.38302e-05
4.66784e-05
5.12597e-05
5.22297e-05
5.18433e-05
4.95911e-05
4.13153e-05
2.89956e-05
1.92675e-05
1.23812e-05
7.94441e-06
5.45214e-06
4.20948e-06
3.56156e-06
0.0499109
0.0420868
0.0237936
0.0226872
0.0268728
0.0377408
0.0436235
0.0454541
0.0457463
0.0456019
0.0448605
0.0427583
0.0403374
0.0392289
0.0392425
0.0399205
0.0419669
0.0457787
0.0495901
0.0540301
0.0544781
0.0538873
0.0522194
0.0491859
0.0457529
0.0421161
0.0393815
0.0378235
0.0377506
0.0380225
0.039138
0.0421108
0.0495158
0.0644092
0.085292
0.0913215
0.0920443
0.104996
0.135703
0.14399
0.136263
0.112426
0.0532366
0.0211482
0.0102728
0.00735034
0.00643305
0.00608892
0.00592326
0.00585865
0.00579436
0.00549359
0.00533579
0.00506324
0.00486657
0.00462749
0.00454435
0.00450568
0.00450748
0.00465716
0.00512542
0.00587959
0.00691993
0.00818008
0.00955217
0.0108945
0.0119321
0.0123768
0.0124658
0.0116482
0.0103386
0.00845535
0.00698822
0.00584038
0.00441816
0.00360805
0.00298248
0.00276038
0.00269452
0.00280003
0.00331156
0.00428531
0.00589336
0.00854348
0.0126959
0.0165749
0.017827
0.0182334
0.018343
0.0183579
0.0182871
0.0179854
0.0173148
0.0161829
0.0144853
0.0122912
0.0101475
0.00859864
0.00705613
0.00659684
0.00649846
0.0066112
0.00681385
0.0069779
0.00703706
0.00698932
0.0068356
0.00657452
0.006109
0.00535119
0.00428733
0.00312028
0.00208043
0.00137932
0.000974286
0.000741338
0.000619658
0.000575931
0.000618082
0.00086301
0.00148422
0.00228338
0.00304648
0.0035105
0.00365839
0.00364106
0.00341365
0.00265307
0.00174965
0.0012188
0.00104009
0.0010312
0.00110381
0.00129209
0.00161025
0.00202625
0.00236488
0.00254225
0.0026113
0.00265922
0.00269136
0.00269689
0.00268947
0.00266152
0.00259753
0.00243618
0.00220137
0.00203346
0.00198449
0.00198567
0.00198739
0.00197682
0.00191613
0.00172598
0.00151117
0.0013107
0.00111638
0.000927408
0.0007537
0.000610265
0.000500704
0.000412356
0.000328811
0.000246787
0.000176351
0.000127046
0.000101452
9.29691e-05
9.17822e-05
9.22812e-05
9.3056e-05
9.27026e-05
8.89965e-05
7.40427e-05
5.38362e-05
3.81002e-05
2.70012e-05
1.86893e-05
1.38929e-05
9.17162e-06
0.0288329
0.031806
0.017288
0.0221649
0.0375662
0.0436466
0.045497
0.0459129
0.0457215
0.0444901
0.0407016
0.0366007
0.0358244
0.0361563
0.0377693
0.042151
0.054529
0.0701983
0.0830532
0.0987416
0.101809
0.099859
0.0936456
0.082328
0.0683322
0.0563431
0.0472687
0.0415015
0.0388987
0.0383344
0.0385325
0.0396718
0.0433159
0.051383
0.0762975
0.085102
0.0922044
0.115852
0.127655
0.120105
0.0841885
0.0430926
0.0198985
0.0104848
0.00752668
0.00671076
0.00643328
0.00631754
0.00634939
0.0060813
0.00582181
0.00550621
0.00535273
0.00510999
0.0049989
0.00496123
0.00520908
0.00588994
0.00711233
0.00926103
0.012631
0.0171996
0.0227114
0.0287535
0.0346662
0.0395865
0.04212
0.0430843
0.0430221
0.0393286
0.0357267
0.0295689
0.0244634
0.0193296
0.0148215
0.0109857
0.00731608
0.00542648
0.00422959
0.00386487
0.00385101
0.00471743
0.00673587
0.00964976
0.0136662
0.0169692
0.0180284
0.0183617
0.0184325
0.0184444
0.0184594
0.0184074
0.0180743
0.0172063
0.0155413
0.0132124
0.0103608
0.00894714
0.00731098
0.00631933
0.00592062
0.0057215
0.00563912
0.0057201
0.00599537
0.00629148
0.0065255
0.00660137
0.00647136
0.00615437
0.00571168
0.00514369
0.00436369
0.00322111
0.00206808
0.00124238
0.000756385
0.000492783
0.000359863
0.000303756
0.000299245
0.000369511
0.000687314
0.0016162
0.00266075
0.00329782
0.0034809
0.00343645
0.00305167
0.00207563
0.00136743
0.00108742
0.00103889
0.00107096
0.00125486
0.0016893
0.00214532
0.00250056
0.0027149
0.00282741
0.00287358
0.002876
0.00283519
0.00274453
0.00269654
0.00263353
0.00247731
0.00227564
0.00214309
0.00208988
0.00207159
0.00204271
0.00196553
0.00172466
0.00140012
0.00115295
0.000968421
0.00081393
0.000671003
0.000540809
0.000434552
0.00035709
0.000301855
0.000256604
0.000212507
0.000171161
0.000138715
0.000117504
0.000106258
0.000101926
0.00010082
0.00010041
9.95421e-05
9.69319e-05
8.84181e-05
7.02086e-05
5.39215e-05
3.98263e-05
2.96911e-05
2.02571e-05
0.0276613
0.0315965
0.0119208
0.0297651
0.0417327
0.0447275
0.0456579
0.0455061
0.0442643
0.0402098
0.0346915
0.0328474
0.032879
0.0341263
0.0394096
0.0555466
0.0816831
0.106862
0.128225
0.146778
0.152156
0.150851
0.145679
0.132831
0.113225
0.0889472
0.063855
0.048934
0.0416121
0.0390712
0.0386786
0.039218
0.0422212
0.0515997
0.0831579
0.0826956
0.0926905
0.104464
0.0937987
0.0623068
0.0357082
0.0181343
0.0105654
0.00786769
0.0070722
0.00683021
0.0067684
0.00683409
0.00648115
0.00614907
0.00581884
0.00557365
0.00548099
0.00545014
0.0057314
0.0065023
0.00816739
0.0113731
0.0166622
0.0248448
0.0363122
0.0509161
0.067805
0.0855968
0.100102
0.108917
0.11318
0.114479
0.110816
0.101757
0.0920936
0.0786173
0.0670687
0.054377
0.0445648
0.0347671
0.0264915
0.0182718
0.0119004
0.00829631
0.00672342
0.00619228
0.00651567
0.00909001
0.0124673
0.0158176
0.0174761
0.017989
0.0181537
0.0183032
0.0185353
0.0186165
0.0184273
0.0176081
0.0159239
0.0138668
0.0110123
0.00881306
0.00803434
0.00690409
0.00615333
0.00570148
0.00544284
0.00526558
0.00512781
0.00507856
0.00512062
0.00527115
0.00548968
0.00562507
0.00560823
0.0053464
0.00493551
0.00439416
0.00355863
0.00259327
0.00165985
0.00097205
0.000551022
0.000324331
0.000219552
0.000181252
0.000180395
0.000236318
0.000520953
0.00154667
0.0026441
0.00313052
0.00319023
0.00299759
0.00218038
0.0014005
0.00109246
0.00104441
0.00110401
0.00142597
0.00191239
0.00231912
0.00259909
0.00274769
0.00279837
0.00279576
0.00272349
0.0026093
0.00256652
0.00255037
0.00252917
0.00248414
0.0023767
0.00230193
0.00226981
0.00223515
0.00215707
0.00194637
0.00164013
0.00133759
0.00106618
0.000836192
0.000641578
0.000475564
0.000341163
0.000248848
0.000202964
0.000189611
0.000185008
0.00017645
0.000153009
0.000124876
0.000106262
9.74803e-05
9.50667e-05
9.48402e-05
9.48081e-05
9.44236e-05
9.2932e-05
8.84684e-05
7.5784e-05
5.87349e-05
4.51835e-05
3.17176e-05
0.0282771
0.0315101
0.009575
0.036158
0.0429479
0.0448037
0.044912
0.0441571
0.0412222
0.0355641
0.0315133
0.0295629
0.0297707
0.0325714
0.0414579
0.063396
0.0920226
0.122521
0.149454
0.16801
0.174769
0.174487
0.171567
0.163477
0.147339
0.124105
0.0948188
0.066387
0.0489379
0.0410984
0.0390127
0.039358
0.0431417
0.0597122
0.0849971
0.0756573
0.0804079
0.0715183
0.050078
0.0295617
0.0168031
0.010706
0.00830102
0.00750852
0.00725952
0.00728331
0.0073352
0.00696602
0.00651275
0.00619515
0.00591304
0.00582842
0.00595028
0.00653505
0.00796188
0.0108901
0.0163256
0.0259734
0.0415545
0.0655868
0.100709
0.136931
0.162878
0.183773
0.19403
0.198643
0.199596
0.193514
0.180648
0.16491
0.145714
0.125486
0.105073
0.0860869
0.0699995
0.0578897
0.0488426
0.0413881
0.0344036
0.0264516
0.0193068
0.0137747
0.0111838
0.0105856
0.0117155
0.0143421
0.0156804
0.0168435
0.0176126
0.0182328
0.0188954
0.0191105
0.0188541
0.0177494
0.015961
0.0139239
0.0112904
0.00863289
0.00804233
0.00724764
0.0065991
0.00603323
0.00559899
0.00528614
0.00504944
0.00487453
0.00476745
0.00471864
0.00470968
0.00472367
0.00475484
0.00479834
0.00477635
0.00453609
0.00399509
0.00327275
0.00251076
0.00174825
0.00108872
0.000624014
0.00034313
0.000198731
0.000139908
0.000126458
0.000139999
0.000248567
0.000790014
0.00201843
0.00270587
0.00285822
0.00274317
0.00207068
0.00133433
0.00106734
0.00104792
0.0011821
0.00167015
0.00207061
0.00229803
0.00239982
0.00242545
0.00241964
0.00235103
0.00226418
0.00225613
0.0023181
0.00243102
0.00245564
0.00244895
0.00241219
0.00234488
0.00224303
0.00206998
0.00184196
0.00158686
0.00132162
0.00106672
0.000835289
0.000633338
0.000464758
0.000333494
0.000241534
0.000188947
0.000171787
0.00016992
0.000167617
0.000158559
0.000128139
9.6689e-05
7.94125e-05
7.3675e-05
7.34832e-05
7.63484e-05
8.24955e-05
8.45363e-05
8.43915e-05
8.27157e-05
7.62503e-05
6.20547e-05
4.53735e-05
0.0283537
0.0311358
0.00905225
0.0390561
0.0430799
0.0438138
0.0437757
0.0423209
0.0387178
0.0333572
0.0295494
0.0273512
0.0272196
0.0298104
0.0391669
0.0606828
0.0930872
0.126648
0.156381
0.175001
0.181047
0.180913
0.177974
0.168859
0.151835
0.127585
0.0974637
0.0681856
0.0494776
0.0409932
0.0389505
0.0398931
0.0475001
0.0725383
0.0781638
0.0618618
0.0574019
0.0409451
0.0265205
0.0158804
0.0109419
0.00883431
0.00805004
0.00775722
0.0078446
0.00793506
0.00759318
0.00698039
0.00659578
0.00634099
0.00623506
0.00644299
0.0072328
0.0092541
0.0133659
0.0213033
0.0358585
0.0630984
0.104501
0.149989
0.186612
0.213041
0.231419
0.239991
0.24337
0.243822
0.236702
0.223722
0.208701
0.188255
0.166062
0.141896
0.117796
0.0954467
0.0765312
0.0628596
0.053351
0.0467411
0.0418046
0.0378934
0.0345447
0.0312921
0.0266427
0.022144
0.0194052
0.0178851
0.0181042
0.0185706
0.0191368
0.0201039
0.0207852
0.0202137
0.0190615
0.0175062
0.0150327
0.0126643
0.0108773
0.00855824
0.00706391
0.00695907
0.00656158
0.00604183
0.0056247
0.00529233
0.00501911
0.00480928
0.00466394
0.00457569
0.00453126
0.00451326
0.00450323
0.00448788
0.00445654
0.00438354
0.00417143
0.00357656
0.0028549
0.00217485
0.00155206
0.00101158
0.000603384
0.000336833
0.000187704
0.00012132
0.000103586
0.000108981
0.000172663
0.00052067
0.00160842
0.0023411
0.0025229
0.00243369
0.00183738
0.00121746
0.00102722
0.00103447
0.00124539
0.00176074
0.00204652
0.00215868
0.0022283
0.00228016
0.00228518
0.00225373
0.00217803
0.00217052
0.00224287
0.00236313
0.0023883
0.00236789
0.00225462
0.00214096
0.00203723
0.0018236
0.00151724
0.00121788
0.000965705
0.000754848
0.000576178
0.000426839
0.000308682
0.000225503
0.000178997
0.000162634
0.000158722
0.000155972
0.000149706
0.000129353
9.50115e-05
7.05385e-05
6.02719e-05
5.94028e-05
6.23742e-05
7.15608e-05
7.73818e-05
7.94633e-05
7.95692e-05
7.84159e-05
7.38023e-05
5.93425e-05
0.0283496
0.0310141
0.013236
0.0400846
0.0421654
0.0428665
0.0428324
0.0410754
0.0375624
0.0319822
0.0279029
0.026027
0.0254726
0.0261759
0.0299467
0.0398357
0.0653728
0.102358
0.138562
0.16478
0.176078
0.177513
0.174274
0.163894
0.146812
0.122286
0.0927229
0.065132
0.0479562
0.0401756
0.0390755
0.0421691
0.0606615
0.0723589
0.0623307
0.0460793
0.0387795
0.0234208
0.0159752
0.011365
0.00949098
0.00872086
0.00836667
0.00845473
0.00859098
0.00832421
0.00762531
0.0070653
0.00680794
0.00671797
0.00694604
0.00799263
0.0107292
0.0161745
0.02574
0.0423248
0.0726549
0.118348
0.166788
0.208772
0.239338
0.254389
0.263116
0.266387
0.267031
0.26247
0.249886
0.235178
0.216728
0.19467
0.170554
0.144397
0.118448
0.0944446
0.0740913
0.0587407
0.0482169
0.0418665
0.0382849
0.0358875
0.0341445
0.0333534
0.0323828
0.0313059
0.0298842
0.0282699
0.0267165
0.0256506
0.0245833
0.0236094
0.0222693
0.0204657
0.0185981
0.0161087
0.0135558
0.0112913
0.00899175
0.00769327
0.00666078
0.00587771
0.00556417
0.00536337
0.00515658
0.00492862
0.00473276
0.00460121
0.00451229
0.00444497
0.00439942
0.00439051
0.00439049
0.00438061
0.00436036
0.00431899
0.00421669
0.0039556
0.00327076
0.00246088
0.00179063
0.00125401
0.000827005
0.000507468
0.000291902
0.000165468
0.000106685
9.09864e-05
9.55733e-05
0.000149592
0.000450956
0.00142468
0.00208875
0.00224076
0.00214193
0.00157196
0.00109535
0.000973275
0.000996264
0.00122804
0.0016879
0.00197091
0.00213275
0.00221286
0.00222762
0.00220598
0.00210171
0.00202762
0.00202576
0.0021158
0.00222895
0.00223706
0.00216057
0.00198032
0.00193008
0.00187952
0.00175286
0.00140641
0.00103694
0.000761399
0.000561529
0.00041376
0.000302654
0.000222227
0.000172406
0.000150979
0.000143107
0.000139955
0.000136318
0.000127746
0.000105087
8.0682e-05
6.54485e-05
6.09797e-05
6.22314e-05
6.82854e-05
7.34952e-05
7.56008e-05
7.60859e-05
7.59134e-05
7.44666e-05
6.84718e-05
0.0281557
0.0310163
0.0253008
0.0395091
0.0416024
0.0424066
0.0422711
0.040498
0.0369954
0.0313659
0.0269688
0.0252508
0.0247227
0.0248558
0.0269542
0.0327624
0.0450747
0.070592
0.103384
0.134397
0.153808
0.161704
0.160186
0.150111
0.133311
0.108505
0.0810634
0.0572169
0.0442483
0.039806
0.040003
0.0491509
0.0670346
0.069097
0.0456557
0.0338948
0.0254967
0.0157122
0.011976
0.0101803
0.00952503
0.00922707
0.00941271
0.00950696
0.00924129
0.00848124
0.007722
0.00738487
0.00734807
0.00758408
0.00857489
0.0109608
0.0155266
0.0237368
0.0391049
0.0709176
0.120708
0.173818
0.217394
0.249264
0.265806
0.273372
0.276506
0.277213
0.275044
0.265634
0.251682
0.233226
0.207937
0.177205
0.145124
0.113168
0.0828313
0.0590804
0.0426831
0.0314362
0.0242364
0.0206638
0.0193988
0.019185
0.0192081
0.0204904
0.022541
0.0245826
0.0263311
0.0271578
0.0270482
0.0262061
0.0247748
0.0233616
0.0213339
0.0186388
0.0155762
0.0124746
0.00990133
0.00819952
0.00700637
0.00623247
0.00582092
0.00536995
0.00504067
0.0048662
0.00475382
0.00466317
0.0045841
0.0045155
0.00445625
0.00439358
0.00431325
0.00421821
0.00418413
0.0041896
0.00418907
0.00418805
0.00416927
0.00406933
0.00380399
0.00308256
0.00214292
0.00145108
0.000964572
0.000623978
0.000386591
0.000228647
0.000135019
9.20082e-05
8.20115e-05
8.84988e-05
0.000148297
0.000475469
0.00138288
0.00190397
0.00199464
0.00186081
0.00130562
0.000961487
0.000886407
0.00091272
0.00110964
0.00154964
0.00184237
0.00197375
0.00199821
0.00197909
0.00186419
0.00175378
0.00173068
0.0017536
0.00189774
0.0020123
0.00201648
0.00195187
0.00184861
0.00181625
0.00174804
0.00152962
0.00116707
0.000853667
0.000615232
0.000441338
0.000316655
0.000230445
0.000177045
0.00014951
0.000134635
0.000126504
0.000122485
0.000119459
0.000113803
0.000101676
8.5731e-05
7.36593e-05
6.95361e-05
7.00836e-05
7.21185e-05
7.28467e-05
7.28231e-05
7.2415e-05
7.14301e-05
6.90859e-05
0.0276128
0.0312118
0.0304485
0.0390906
0.0408911
0.0416197