/*--------------------------------*- C++ -*----------------------------------*\
  =========                 |
  \\      /  F ield         | OpenFOAM: The Open Source CFD Toolbox
   \\    /   O peration     | Website:  https://openfoam.org
    \\  /    A nd           | Version:  9
     \\/     M anipulation  |
\*---------------------------------------------------------------------------*/
FoamFile
{
    format      ascii;
    class       volScalarField;
    location    "0.042";
    object      pMean;
}
// * * * * * * * * * * * * * * * * * * * * * * * * * * * * * * * * * * * * * //

dimensions      [0 2 -2 0 0 0 0];

internalField   nonuniform List<scalar> 
12225
(
-1.02684
-1.57519
-1.85416
-1.93712
-1.94529
-1.92991
-1.89751
-1.84123
-1.75458
-1.63317
-1.47412
-1.27297
-1.02617
-0.732048
-0.393667
-0.0405327
0.289133
0.384511
-1.26232
-1.60784
-1.85851
-1.94899
-1.95883
-1.94233
-1.90976
-1.85469
-1.7702
-1.65206
-1.4974
-1.30329
-1.06583
-0.78677
-0.467894
-0.140659
0.147418
0.224578
-1.30526
-1.61263
-1.85256
-1.95331
-1.96936
-1.95383
-1.92207
-1.86957
-1.78926
-1.67716
-1.53077
-1.34936
-1.13055
-0.880278
-0.604012
-0.338583
-0.129091
-0.0828194
-1.44234
-1.66692
-1.86908
-1.96957
-1.99002
-1.97472
-1.94275
-1.89226
-1.81645
-1.71125
-1.57498
-1.40821
-1.21153
-0.992297
-0.762339
-0.551926
-0.403824
-0.369616
-1.53368
-1.70308
-1.87433
-1.9764
-2.00579
-1.99446
-1.96393
-1.91654
-1.84655
-1.74997
-1.62564
-1.47545
-1.30224
-1.11473
-0.927202
-0.764528
-0.658639
-0.638844
-1.66611
-1.76434
-1.89968
-1.99604
-2.03063
-2.02283
-1.99384
-1.94926
-1.88519
-1.79804
-1.68702
-1.5548
-1.4062
-1.25029
-1.10117
-0.978492
-0.906039
-0.904641
-1.7652
-1.82119
-1.92368
-2.01286
-2.0535
-2.05206
-2.02696
-1.98676
-1.92992
-1.85342
-1.75709
-1.64407
-1.52021
-1.3946
-1.28025
-1.19275
-1.15007
-1.16748
-1.82585
-1.87799
-1.96346
-2.04142
-2.08352
-2.08754
-2.06706
-2.03167
-1.98252
-1.91762
-1.83712
-1.74437
-1.64548
-1.54903
-1.46616
-1.40968
-1.39322
-1.42774
-1.93595
-1.95427
-2.00801
-2.07361
-2.11661
-2.12716
-2.11358
-2.08513
-2.04472
-1.99207
-1.92782
-1.85534
-1.78059
-1.71145
-1.65764
-1.62932
-1.63639
-1.68628
-1.98133
-2.00437
-2.05468
-2.11297
-2.15553
-2.17133
-2.16495
-2.14429
-2.11347
-2.07385
-2.02694
-1.97555
-1.92476
-1.88168
-1.85453
-1.85125
-1.87914
-1.94314
-2.07237
-2.08473
-2.11802
-2.16395
-2.20266
-2.2228
-2.22459
-2.21337
-2.19365
-2.16775
-2.13724
-2.10531
-2.0768
-2.0577
-2.05456
-2.07363
-2.12011
-2.19755
-2.12003
-2.13208
-2.16527
-2.20979
-2.24935
-2.27413
-2.28349
-2.28123
-2.27182
-2.25872
-2.24441
-2.23108
-2.22261
-2.22425
-2.24144
-2.27914
-2.3411
-2.43001
-2.21389
-2.20719
-2.22838
-2.26793
-2.30668
-2.33481
-2.35116
-2.35866
-2.36101
-2.36129
-2.36193
-2.36567
-2.37587
-2.39673
-2.43254
-2.48717
-2.56335
-2.66302
-2.24333
-2.2656
-2.29716
-2.33485
-2.37243
-2.40539
-2.4314
-2.45074
-2.46642
-2.48208
-2.50044
-2.52372
-2.55463
-2.5964
-2.65222
-2.72493
-2.81636
-2.9276
-2.32145
-2.35306
-2.38757
-2.42316
-2.46171
-2.50051
-2.53643
-2.56881
-2.59998
-2.63307
-2.67051
-2.71421
-2.76626
-2.82898
-2.90476
-2.99534
-3.10213
-3.22559
-2.45896
-2.46427
-2.48276
-2.51851
-2.56444
-2.61288
-2.66024
-2.70686
-2.75507
-2.80719
-2.86495
-2.92987
-3.00359
-3.08768
-3.18362
-3.29233
-3.41444
-3.54988
-2.53328
-2.55654
-2.59411
-2.63983
-2.6915
-2.74797
-2.80752
-2.87008
-2.93689
-3.00923
-3.08812
-3.17455
-3.26964
-3.37436
-3.48948
-3.61539
-3.75242
-3.90049
-2.70598
-2.71444
-2.74177
-2.78531
-2.84039
-2.90644
-2.98077
-3.06044
-3.14539
-3.23687
-3.33586
-3.44277
-3.55797
-3.68187
-3.81477
-3.95671
-4.10759
-4.26706
-2.6961
-2.7593
-2.83422
-2.9079
-2.98498
-3.06983
-3.16204
-3.26055
-3.36575
-3.47805
-3.59745
-3.72394
-3.85772
-3.99897
-4.14764
-4.30333
-4.46566
-4.63413
-2.92365
-2.92767
-2.96366
-3.03047
-3.11585
-3.21162
-3.31497
-3.42516
-3.54231
-3.66711
-3.79958
-3.93913
-4.08536
-4.23796
-4.39674
-4.5613
-4.7313
-4.90625
-2.94502
-2.95576
-3.00357
-3.08709
-3.18892
-3.29652
-3.40856
-3.52725
-3.65346
-3.78733
-3.9286
-4.07651
-4.23035
-4.38969
-4.55421
-4.72347
-4.89695
-5.07405
-2.91563
-2.96292
-3.03439
-3.1268
-3.23431
-3.35027
-3.47138
-3.59745
-3.73036
-3.87096
-4.01857
-4.17224
-4.33126
-4.49519
-4.66374
-4.8364
-5.01266
-5.19189
-2.87022
-2.96206
-3.0607
-3.16323
-3.27466
-3.39384
-3.51917
-3.65086
-3.78927
-3.93448
-4.0861
-4.24344
-4.40581
-4.5727
-4.74359
-4.91797
-5.09542
-5.27541
-2.84034
-2.9249
-3.04105
-3.16524
-3.28897
-3.41293
-3.54133
-3.6769
-3.82012
-3.97011
-4.12584
-4.2865
-4.45167
-4.62091
-4.79383
-4.9699
-5.14852
-5.3289
-2.9094
-2.94858
-3.05154
-3.18365
-3.31452
-3.44041
-3.56917
-3.7062
-3.85182
-4.00412
-4.16163
-4.32383
-4.49034
-4.6607
-4.8345
-5.0112
-5.19026
-5.37109
-2.79264
-2.89621
-3.03456
-3.17862
-3.31265
-3.44029
-3.57162
-3.71212
-3.86127
-4.01659
-4.17655
-4.34064
-4.50873
-4.68057
-4.85568
-5.03342
-5.21325
-5.39444
-2.73206
-2.87893
-3.04546
-3.19527
-3.3258
-3.45098
-3.58305
-3.72551
-3.87625
-4.03255
-4.1931
-4.35772
-4.52635
-4.69864
-4.87405
-5.05198
-5.23183
-5.4129
-2.71209
-2.84468
-3.02763
-3.18837
-3.31958
-3.44515
-3.57989
-3.72513
-3.87771
-4.03521
-4.19679
-4.36233
-4.53172
-4.70459
-4.88049
-5.05883
-5.2391
-5.42089
-2.6668
-2.84011
-3.03844
-3.19423
-3.32115
-3.44727
-3.58371
-3.72994
-3.88304
-4.04107
-4.20326
-4.36934
-4.53918
-4.7124
-4.8886
-5.06697
-5.24711
-5.42815
-2.46114
-2.81188
-3.04481
-3.19139
-3.31489
-3.44298
-3.58131
-3.7284
-3.88197
-4.04044
-4.20305
-4.36943
-4.53949
-4.71284
-4.88916
-5.06752
-5.24755
-5.42774
-10.6566
-10.824
-10.995
-11.0594
-10.9354
-10.6533
-10.3597
-10.2422
-10.422
-10.9208
-11.6968
-12.6537
-13.6714
-14.6366
-15.4585
-16.074
-16.4467
-16.5653
-16.4438
-16.1166
-15.6362
-15.0655
-14.4814
-13.9509
-13.5683
-13.3859
-13.4788
-13.7904
-14.174
-14.5457
-14.9416
-15.4601
-16.1268
-16.8214
-17.3886
-17.7827
-18.0512
-18.5863
-19.75
-21.4072
-23.0261
-24.3279
-25.2709
-26.0539
-26.9561
-27.8446
-28.5993
-29.2943
-29.7848
-30.2936
-31.3563
-32.7673
-34.3028
-35.8425
-37.286
-38.5863
-39.7128
-40.6565
-41.4137
-41.9869
-42.3773
-42.5853
-42.6083
-42.4416
-42.0789
-41.5134
-40.7391
-39.7524
-38.553
-37.1464
-35.5436
-33.7613
-31.8218
-29.7514
-27.5785
-25.3321
-23.0398
-20.7264
-18.4126
-16.1146
-13.8434
-11.6059
-9.4045
-7.2386
-5.10569
-3.00223
-0.923078
1.13901
3.19307
5.24666
7.29889
9.33693
11.3357
13.2604
15.0718
16.7334
18.2173
19.5071
20.5976
21.4938
22.2076
22.7557
23.1565
23.4294
23.5932
23.6652
23.661
23.5945
23.4774
23.3201
23.1313
22.9184
22.6876
22.444
22.1924
21.9367
21.6803
21.4262
21.177
20.9347
20.7012
20.4777
20.2652
20.0645
19.8758
19.6994
19.5352
19.383
19.2424
19.1131
18.9944
18.8856
18.7858
18.6943
18.6105
18.5342
18.4647
18.4013
18.3432
18.2897
18.2405
18.1953
18.154
18.1163
18.0818
18.0499
18.0201
17.9921
17.9654
17.94
17.9157
17.8924
17.8699
17.8482
17.8277
17.8085
17.791
17.7754
17.7615
17.7493
17.7384
17.7288
17.7205
17.7138
17.7086
17.7054
17.7041
17.7053
17.7092
17.7167
17.7283
17.7459
17.7704
17.8057
17.8531
17.9206
18.0114
18.1406
18.318
18.5568
-11.4634
-11.6281
-11.77
-11.8482
-11.7203
-11.5093
-11.3688
-11.4485
-11.8175
-12.4669
-13.3311
-14.3112
-15.3023
-16.2116
-16.9678
-17.5223
-17.8498
-17.9461
-17.8215
-17.4977
-17.0085
-16.4137
-15.7864
-15.2069
-14.7447
-14.4871
-14.4138
-14.5538
-14.7998
-15.2393
-16.0582
-17.0894
-18.2039
-19.2424
-20.0394
-20.5958
-20.9869
-21.5104
-22.4187
-23.7269
-25.0622
-26.1428
-26.8984
-27.4581
-28.1941
-28.8314
-29.7757
-31.1465
-31.9524
-32.5949
-33.6302
-34.8853
-36.2378
-37.5679
-38.8059
-39.9124
-40.868
-41.6656
-42.3031
-42.7806
-43.0967
-43.2479
-43.2276
-43.0273
-42.6365
-42.0451
-41.2445
-40.2302
-39.0021
-37.5656
-35.9319
-34.1184
-32.1474
-30.0452
-27.841
-25.565
-23.246
-20.9101
-18.5787
-16.2683
-13.9902
-11.7504
-9.55158
-7.39333
-5.27304
-3.18618
-1.126
0.917248
2.95527
4.99679
7.04349
9.08428
11.0938
13.0355
14.8671
16.549
18.0509
19.3552
20.4571
21.3621
22.0835
22.6387
23.0465
23.3266
23.4977
23.5769
23.5799
23.5203
23.4098
23.2588
23.0759
22.8685
22.6426
22.4035
22.156
21.9039
21.6507
21.3994
21.1527
20.9128
20.6812
20.4595
20.2486
20.0493
19.8618
19.6865
19.5233
19.3719
19.2321
19.1035
18.9855
18.8773
18.7782
18.6875
18.6046
18.5291
18.4602
18.3973
18.3396
18.2866
18.2378
18.1931
18.1521
18.1147
18.0802
18.0484
18.0186
17.9904
17.9638
17.9385
17.9143
17.8912
17.8689
17.8476
17.8273
17.8084
17.7911
17.7757
17.7619
17.7497
17.7388
17.7291
17.7208
17.7139
17.7086
17.7051
17.7036
17.7044
17.7079
17.7148
17.7258
17.7423
17.7659
17.7989
17.8446
17.9067
17.9935
18.1055
18.2636
18.4183
-11.1393
-11.1768
-11.3272
-11.5894
-11.9194
-12.3233
-12.848
-13.5416
-14.4157
-15.4317
-16.5149
-17.5833
-18.5653
-19.4049
-20.0589
-20.4986
-20.709
-20.6886
-20.4518
-20.0316
-19.4719
-18.8155
-18.1121
-17.4275
-16.798
-16.3264
-16.0214
-15.9157
-16.0899
-16.5666
-17.3395
-18.359
-19.5654
-20.7781
-21.8597
-22.713
-23.5045
-24.4489
-25.6054
-26.9108
-28.0411
-28.8458
-29.2596
-29.7488
-30.6698
-31.6354
-32.5895
-33.7585
-34.8874
-35.9044
-36.9322
-37.9585
-38.9849
-39.968
-40.8859
-41.7135
-42.4386
-43.0502
-43.5419
-43.9069
-44.1383
-44.2274
-44.1632
-43.9327
-43.5212
-42.9145
-42.0997
-41.067
-39.8132
-38.3425
-36.6663
-34.8027
-32.7756
-30.614
-28.3502
-26.0172
-23.6469
-21.2674
-18.902
-16.568
-14.2768
-12.0344
-9.84221
-7.69868
-5.60038
-3.54219
-1.51611
0.490296
2.49291
4.50781
6.54161
8.58587
10.6149
12.5883
14.4583
16.1789
17.7151
19.0471
20.1702
21.0925
21.8287
22.3979
22.8199
23.1144
23.3002
23.3941
23.4113
23.3653
23.2682
23.1299
22.959
22.7625
22.5467
22.3169
22.0776
21.8329
21.5864
21.3412
21.0999
20.8648
20.6377
20.42
20.2129
20.017
19.8328
19.6604
19.4998
19.3508
19.2131
19.0863
18.97
18.8633
18.7657
18.6763
18.5946
18.5201
18.4523
18.3903
18.3335
18.2813
18.2332
18.1891
18.1486
18.1115
18.0773
18.0457
18.0161
17.9882
17.9619
17.9369
17.9131
17.8905
17.8687
17.848
17.8284
17.81
17.7931
17.7778
17.764
17.7515
17.7404
17.7305
17.7219
17.7147
17.7091
17.7051
17.703
17.7031
17.7058
17.7115
17.7213
17.7359
17.7573
17.7865
17.8277
17.8811
17.9558
18.0436
18.1617
18.249
-11.2505
-11.2518
-11.5137
-12.1001
-12.9758
-14.0306
-15.1726
-16.3492
-17.5261
-18.6763
-19.7684
-20.7666
-21.6349
-22.3397
-22.8532
-23.1592
-23.2541
-23.1465
-22.8542
-22.4017
-21.8238
-21.1603
-20.4485
-19.7435
-19.1096
-18.5666
-18.163
-17.9124
-17.8533
-18.0217
-18.445
-19.1231
-20.0171
-21.0208
-22.0432
-23.0784
-24.2682
-25.749
-27.4494
-29.1103
-30.5014
-31.5967
-32.3516
-33.0881
-34.0363
-35.0894
-36.179
-37.2712
-38.3096
-39.2845
-40.1923
-41.0299
-41.8112
-42.5323
-43.1948
-43.7894
-44.3109
-44.7509
-45.1023
-45.3561
-45.5027
-45.5297
-45.4226
-45.1633
-44.7328
-44.1113
-43.2808
-42.2266
-40.9421
-39.4284
-37.6959
-35.7635
-33.6584
-31.4132
-29.0646
-26.6502
-24.2061
-21.7642
-19.35
-16.9821
-14.6721
-12.4255
-10.2426
-8.1205
-6.05433
-4.03815
-2.0628
-0.11162
1.83783
3.80972
5.81937
7.86403
9.91835
11.9369
13.863
15.6405
17.2264
18.5971
19.7499
20.6955
21.4527
22.0424
22.4856
22.802
23.0098
23.1257
23.1644
23.1396
23.0626
22.9432
22.7899
22.6096
22.4086
22.1922
21.965
21.7311
21.4943
21.2577
21.0242
20.7963
20.5757
20.364
20.1624
19.9715
19.7919
19.6237
19.467
19.3215
19.1868
19.0627
18.9486
18.844
18.7483
18.6607
18.5807
18.5077
18.4412
18.3805
18.3249
18.2737
18.2265
18.1832
18.1433
18.1066
18.0729
18.0417
18.0126
17.9852
17.9593
17.9347
17.9113
17.8891
17.8678
17.8475
17.8283
17.8103
17.7936
17.7783
17.7645
17.7521
17.7409
17.7309
17.7221
17.7146
17.7086
17.7041
17.7014
17.7007
17.7025
17.707
17.7153
17.7278
17.7464
17.7717
17.8072
17.8519
17.9125
17.979
18.0598
18.1015
-11.1844
-11.488
-12.242
-13.3966
-14.7673
-16.1947
-17.5963
-18.9321
-20.1848
-21.348
-22.4128
-23.359
-24.1584
-24.7793
-25.1978
-25.4046
-25.4076
-25.2268
-24.8898
-24.4213
-23.841
-23.1803
-22.4941
-21.8352
-21.2467
-20.7572
-20.3774
-20.1055
-19.9375
-19.8769
-19.9422
-20.1591
-20.5545
-21.1449
-21.9453
-22.9996
-24.3935
-26.1683
-28.1754
-30.1896
-32.0142
-33.6299
-35.042
-36.3394
-37.5799
-38.7681
-39.8923
-40.9129
-41.8254
-42.6467
-43.3819
-44.0366
-44.6198
-45.1381
-45.5993
-46.0053
-46.3567
-46.6495
-46.8781
-47.0336
-47.1051
-47.0787
-46.9366
-46.6571
-46.2154
-45.5855
-44.7436
-43.6701
-42.3529
-40.7892
-38.9874
-36.969
-34.7648
-32.4126
-29.9547
-27.4349
-24.8951
-22.3721
-19.8947
-17.483
-15.1487
-12.8961
-10.7241
-8.6281
-6.60248
-4.64068
-2.73235
-0.857324
1.01673
2.92597
4.89558
6.93136
9.01153
11.0858
13.086
14.9407
16.5939
18.0158
19.2051
20.1787
20.9608
21.5757
22.0458
22.3905
22.6278
22.7737
22.8421
22.8457
22.7956
22.7014
22.5713
22.4124
22.2307
22.0316
21.8199
21.5999
21.3754
21.1499
20.9263
20.7073
20.4949
20.2908
20.0961
19.9116
19.738
19.5753
19.4237
19.2828
19.1523
19.0318
18.9209
18.8191
18.7259
18.6406
18.5627
18.4916
18.4269
18.3679
18.3138
18.2639
18.2179
18.1754
18.1363
18.1003
18.0672
18.0366
18.0081
17.9813
17.956
17.9319
17.909
17.8872
17.8664
17.8466
17.8278
17.8102
17.7939
17.7788
17.7651
17.7526
17.7413
17.7311
17.7221
17.7143
17.7079
17.7029
17.6995
17.698
17.6987
17.7019
17.7084
17.7186
17.734
17.755
17.784
17.8198
17.8659
17.913
17.9616
17.9716
-11.681
-12.4274
-13.7791
-15.2916
-16.837
-18.3609
-19.8224
-21.198
-22.4881
-23.7033
-24.8331
-25.847
-26.7043
-27.3636
-27.7961
-27.9939
-27.9663
-27.7357
-27.3336
-26.7956
-26.1587
-25.4659
-24.7669
-24.1089
-23.5342
-23.0671
-22.7104
-22.4482
-22.2542
-22.107
-22.0041
-21.9724
-22.0743
-22.3998
-23.0271
-24.0548
-25.5085
-27.3849
-29.548
-31.813
-34.0126
-36.0582
-37.9243
-39.61
-41.1113
-42.431
-43.5774
-44.5497
-45.3637
-46.0423
-46.6069
-47.0773
-47.4704
-47.8013
-48.0828
-48.3232
-48.5274
-48.695
-48.8215
-48.8975
-48.91
-48.843
-48.677
-48.3877
-47.9451
-47.3162
-46.4694
-45.3788
-44.0264
-42.4059
-40.5243
-38.4043
-36.0808
-33.5973
-31.0037
-28.3517
-25.691
-23.0646
-20.5061
-18.0376
-15.6705
-13.408
-11.2468
-9.18041
-7.20195
-5.30425
-3.475
-1.69069
0.0885724
1.91076
3.81773
5.82708
7.9242
10.0561
12.142
14.0906
15.8279
17.3145
18.5487
19.5551
20.3651
21.0086
21.5101
21.8896
22.1639
22.3473
22.4528
22.4921
22.4757
22.4129
22.3116
22.179
22.0209
21.843
21.65
21.4466
21.2367
21.0243
20.8124
20.6041
20.4014
20.2061
20.0195
19.8425
19.6757
19.5195
19.3737
19.2383
19.1128
18.9967
18.8896
18.7911
18.7008
18.6182
18.5426
18.4736
18.4107
18.3534
18.3009
18.2526
18.2078
18.1664
18.1281
18.0929
18.0606
18.0308
18.003
17.9769
17.9523
17.9288
17.9064
17.8851
17.8647
17.8454
17.827
17.8098
17.7937
17.7788
17.7651
17.7526
17.7412
17.7309
17.7216
17.7135
17.7066
17.7011
17.697
17.6946
17.6941
17.6958
17.7004
17.7081
17.7201
17.7365
17.7588
17.7856
17.8178
17.8475
17.8701
17.8568
-13.8553
-14.7119
-16.0043
-17.3983
-18.8312
-20.2677
-21.6741
-23.0348
-24.3611
-25.6546
-26.8812
-27.9895
-28.9258
-29.6421
-30.1107
-30.3275
-30.3084
-30.0838
-29.6905
-29.1631
-28.537
-27.8534
-27.161
-26.5117
-25.9483
-25.4957
-25.16
-24.9261
-24.7663
-24.649
-24.5547
-24.4947
-24.5269
-24.7743
-25.3597
-26.417
-27.9312
-29.8588
-32.1036
-34.5194
-36.9341
-39.23
-41.3375
-43.2219
-44.8626
-46.2548
-47.4047
-48.3263
-49.0424
-49.5798
-49.9701
-50.2452
-50.4357
-50.5689
-50.6667
-50.7446
-50.8116
-50.8698
-50.9148
-50.9351
-50.9135
-50.8299
-50.661
-50.3788
-49.9485
-49.3301
-48.4853
-47.3811
-45.9916
-44.3062
-42.3321
-40.0923
-37.6258
-34.9837
-32.225
-29.4112
-26.6012
-23.8457
-21.1838
-18.6401
-16.2265
-13.9438
-11.7872
-9.74779
-7.81646
-5.98336
-4.2338
-2.54194
-0.86373
0.857159
2.67808
4.63675
6.73052
8.90698
11.0734
13.1191
14.9483
16.508
17.7937
18.8371
19.679
20.3556
20.8943
21.3151
21.6333
21.8612
22.0101
22.0908
22.1133
22.0866
22.0186
21.916
21.785
21.6312
21.4595
21.2748
21.0814
20.8835
20.6846
20.4879
20.2958
20.1103
19.9327
19.7641
19.605
19.4558
19.3165
19.1871
19.0671
18.956
18.8533
18.7586
18.6716
18.592
18.5191
18.4525
18.3917
18.3363
18.2857
18.2391
18.1958
18.1557
18.1185
18.0843
18.0528
18.0238
17.9969
17.9716
17.9477
17.9249
17.9032
17.8824
17.8625
17.8436
17.8257
17.8088
17.7931
17.7784
17.7648
17.7522
17.7408
17.7303
17.7208
17.7124
17.705
17.6989
17.6941
17.6907
17.6889
17.6891
17.6916
17.6967
17.7051
17.7167
17.7323
17.7503
17.7698
17.7839
17.7858
17.7547
-16.3149
-16.9768
-17.9087
-19.0312
-20.2708
-21.56
-22.8557
-24.1476
-25.4571
-26.7708
-28.0349
-29.1907
-30.1833
-30.967
-31.5148
-31.8204
-31.898
-31.775
-31.4828
-31.0512
-30.5124
-29.9064
-29.282
-28.6897
-28.1732
-27.7632
-27.4732
-27.2988
-27.2195
-27.2035
-27.2244
-27.284
-27.431
-27.7921
-28.5174
-29.7012
-31.3223
-33.3409
-35.6791
-38.1985
-40.7309
-43.1542
-45.3826
-47.3633
-49.0624
-50.4646
-51.572
-52.4012
-52.9772
-53.3338
-53.5127
-53.559
-53.5177
-53.4298
-53.329
-53.2388
-53.1723
-53.1332
-53.1169
-53.1091
-53.087
-53.0221
-52.8836
-52.6368
-52.2405
-51.6481
-50.8135
-49.6967
-48.2663
-46.5066
-44.4234
-42.0416
-39.4058
-36.576
-33.6217
-30.6163
-27.6296
-24.7214
-21.9361
-19.3005
-16.8258
-14.5107
-12.3466
-10.322
-8.42507
-6.64289
-4.95751
-3.3415
-1.75287
-0.131329
1.59395
3.47911
5.54035
7.73246
9.95556
12.0819
13.9946
15.6253
16.9646
18.0477
18.9248
19.6391
20.2212
20.6899
21.058
21.3353
21.5317
21.6571
21.7214
21.7332
21.7006
21.6302
21.5282
21.4002
21.2514
21.0869
20.9113
20.7291
20.5443
20.3602
20.1796
20.0047
19.837
19.6775
19.5268
19.3855
19.2534
19.1305
19.0165
18.9109
18.8132
18.7229
18.6397
18.5634
18.4934
18.4294
18.3709
18.3174
18.2686
18.2238
18.1822
18.1436
18.1078
18.0747
18.0443
18.0162
17.9901
17.9657
17.9425
17.9205
17.8994
17.8792
17.8599
17.8415
17.824
17.8075
17.7921
17.7776
17.7641
17.7516
17.74
17.7294
17.7197
17.7109
17.7031
17.6964
17.6907
17.6863
17.6833
17.6818
17.6822
17.6845
17.6892
17.6961
17.705
17.7145
17.7226
17.7231
17.7084
17.6631
-17.852
-18.316
-19.0092
-19.9098
-20.9424
-22.0422
-23.1756
-24.3431
-25.5716
-26.839
-28.0814
-29.2451
-30.277
-31.1319
-31.7819
-32.2187
-32.4516
-32.4983
-32.3778
-32.1119
-31.7303
-31.2728
-30.7866
-30.3182
-29.9113
-29.6007
-29.407
-29.3354
-29.3737
-29.4971
-29.6838
-29.9391
-30.3108
-30.9199
-31.903
-33.3034
-35.1175
-37.3045
-39.7881
-42.4294
-45.0765
-47.6098
-49.9337
-51.9797
-53.7015
-55.078
-56.107
-56.8014
-57.1911
-57.3206
-57.2447
-57.0238
-56.7188
-56.3852
-56.0688
-55.802
-55.6022
-55.4735
-55.4094
-55.3926
-55.3939
-55.3755
-55.2953
-55.1084
-54.7656
-54.2133
-53.3962
-52.2658
-50.7873
-48.9434
-46.7389
-44.1997
-41.3764
-38.3381
-35.166
-31.9466
-28.7633
-25.6859
-22.7635
-20.0229
-17.4739
-15.113
-12.9281
-10.9033
-9.02292
-7.26987
-5.62353
-4.05974
-2.53666
-0.997517
0.634172
2.43311
4.43676
6.61194
8.85841
11.0358
13.0104
14.7005
16.0909
17.2146
18.1305
18.8873
19.517
20.0371
20.4573
20.7856
21.0303
21.201
21.3073
21.3582
21.3616
21.3242
21.2521
21.1509
21.0259
20.8825
20.7256
20.56
20.3901
20.2196
20.0514
19.8879
19.7309
19.5813
19.4399
19.3071
19.183
19.0675
18.9601
18.8606
18.7683
18.6828
18.6039
18.5313
18.4646
18.4035
18.3475
18.2963
18.2494
18.2064
18.1666
18.1298
18.0956
18.064
18.0348
18.0077
17.9825
17.9589
17.9366
17.9153
17.8949
17.8753
17.8566
17.8388
17.8218
17.8058
17.7907
17.7764
17.7631
17.7506
17.739
17.7282
17.7182
17.7091
17.7009
17.6935
17.687
17.6816
17.6772
17.6741
17.6723
17.6718
17.6728
17.6749
17.6776
17.6791
17.6769
17.6655
17.6374
17.5807
-18.3562
-18.69
-19.2111
-19.9235
-20.7636
-21.6818
-22.6426
-23.6517
-24.7344
-25.8759
-27.028
-28.1489
-29.1915
-30.1089
-30.8689
-31.4556
-31.8676
-32.11
-32.1941
-32.1368
-31.9682
-31.7255
-31.4489
-31.1788
-30.9555
-30.8138
-30.7779
-30.8587
-31.0509
-31.3414
-31.7227
-32.2144
-32.8776
-33.8125
-35.1115
-36.8018
-38.8764
-41.293
-43.9696
-46.771
-49.5609
-52.2205
-54.6478
-56.7643
-58.5134
-59.8649
-60.8111
-61.3648
-61.5604
-61.453
-61.1122
-60.615
-60.0377
-59.4505
-58.912
-58.4645
-58.1292
-57.9099
-57.797
-57.7694
-57.7927
-57.8203
-57.7992
-57.6738
-57.3856
-56.8728
-56.0718
-54.9253
-53.3943
-51.4621
-49.1341
-46.4385
-43.429
-40.1819
-36.7894
-33.3526
-29.9694
-26.7209
-23.6596
-20.8111
-18.1819
-15.7655
-13.5474
-11.509
-9.62951
-7.88804
-6.2628
-4.72528
-3.23815
-1.75102
-0.190534
1.52858
3.46255
5.59547
7.83274
10.0293
12.0396
13.7705
15.2039
16.3682
17.3256
18.1275
18.8055
19.376
19.8468
20.2238
20.5149
20.7291
20.8762
20.9653
21.004
20.9993
20.9572
20.8831
20.7825
20.6608
20.5234
20.3754
20.2214
20.0653
19.9105
19.7594
19.6138
19.475
19.3438
19.2204
19.105
18.9976
18.8977
18.8049
18.7187
18.6387
18.5646
18.4962
18.4332
18.3754
18.3223
18.2735
18.2289
18.1878
18.15
18.115
18.0826
18.0526
18.0247
17.9987
17.9745
17.9516
17.9301
17.9096
17.8899
17.8711
17.853
17.8358
17.8193
17.8037
17.7889
17.7749
17.7618
17.7493
17.7377
17.7268
17.7166
17.7071
17.6984
17.6904
17.6831
17.6766
17.6709
17.666
17.662
17.6587
17.6561
17.6536
17.6503
17.6444
17.6331
17.6114
17.5724
17.5064
-17.9357
-18.1828
-18.602
-19.1879
-19.8852
-20.6494
-21.4519
-22.2952
-23.2042
-24.1804
-25.2016
-26.2385
-27.2529
-28.2007
-29.0456
-29.7633
-30.3408
-30.7721
-31.0597
-31.2198
-31.2819
-31.2805
-31.2507
-31.2266
-31.2404
-31.3203
-31.4895
-31.7621
-32.1416
-32.6291
-33.2361
-33.9952
-34.9708
-36.2461
-37.8779
-39.8777
-42.2291
-44.8853
-47.7614
-50.734
-53.6791
-56.4789
-59.0261
-61.2308
-63.0256
-64.3735
-65.2648
-65.7126
-65.7551
-65.4549
-64.8935
-64.1608
-63.3465
-62.5334
-61.7924
-61.1757
-60.7091
-60.3977
-60.2303
-60.1815
-60.2105
-60.2628
-60.278
-60.1919
-59.9362
-59.4388
-58.6293
-57.4483
-55.8558
-53.837
-51.3973
-48.5639
-45.3922
-41.9634
-38.3782
-34.749
-31.1863
-27.7817
-24.5928
-21.645
-18.9415
-16.4719
-14.2191
-12.1619
-10.2769
-8.53906
-6.91993
-5.38766
-3.90757
-2.43756
-0.913283
0.751886
2.62595
4.70646
6.9143
9.10414
11.1227
12.8721
14.3333
15.5322
16.5291
17.3751
18.1
18.718
19.2351
19.6568
19.9907
20.2459
20.4319
20.5573
20.63
20.6568
20.6437
20.5963
20.5201
20.4207
20.3034
20.1737
20.0365
19.8961
19.7557
19.618
19.485
19.3579
19.2376
19.1244
19.0185
18.9199
18.8282
18.743
18.6637
18.5898
18.5212
18.4576
18.3988
18.3447
18.2948
18.249
18.2069
18.1682
18.1325
18.0994
18.0689
18.0405
18.0141
17.9893
17.966
17.9441
17.9233
17.9035
17.8846
17.8664
17.849
17.8324
17.8165
17.8013
17.7869
17.7732
17.7601
17.7478
17.7361
17.7251
17.7147
17.7049
17.6957
17.6871
17.679
17.6714
17.6644
17.6578
17.6515
17.6455
17.6393
17.6323
17.6235
17.6108
17.5914
17.5608
17.5128
17.4392
-16.785
-16.9911
-17.3543
-17.8648
-18.4744
-19.1434
-19.8434
-20.5686
-21.3381
-22.1629
-23.0432
-23.9637
-24.8994
-25.8164
-26.6808
-27.465
-28.1495
-28.7245
-29.1913
-29.5613
-29.8543
-30.0968
-30.3183
-30.5483
-30.8133
-31.1359
-31.5347
-32.0245
-32.6154
-33.3212
-34.167
-35.1936
-36.4634
-38.0399
-39.9548
-42.2096
-44.7839
-47.6326
-50.6739
-53.7955
-56.8798
-59.8072
-62.465
-64.7573
-66.6119
-67.9898
-68.8792
-69.2909
-69.263
-68.8625
-68.1782
-67.307
-66.3468
-65.3885
-64.5097
-63.77
-63.2005
-62.8105
-62.5883
-62.5044
-62.5129
-62.5557
-62.5688
-62.4819
-62.2178
-61.6963
-60.8448
-59.6064
-57.9435
-55.8413
-53.304
-50.3591
-47.0634
-43.5016
-39.7785
-36.0113
-32.3166
-28.7927
-25.5035
-22.4777
-19.7174
-17.2092
-14.9335
-12.8642
-10.975
-9.23561
-7.61294
-6.07253
-4.58101
-3.10226
-1.57966
0.0675848
1.90859
3.94848
6.12147
8.2848
10.2848
12.0276
13.4974
14.72
15.7514
16.6385
17.4069
18.0679
18.6265
19.0882
19.4611
19.7543
19.9766
20.1362
20.2408
20.2971
20.3116
20.2899
20.2377
20.1606
20.064
19.9536
19.8343
19.7105
19.5858
19.4628
19.3434
19.2291
19.1207
19.0185
18.9229
18.8339
18.7511
18.6742
18.6025
18.5356
18.4732
18.415
18.3611
18.3111
18.265
18.2225
18.1833
18.1472
18.1139
18.0831
18.0544
18.0278
18.0028
17.9794
17.9571
17.9361
17.9161
17.8971
17.879
17.8615
17.8448
17.8288
17.8134
17.7987
17.7846
17.7712
17.7583
17.7461
17.7345
17.7233
17.7127
17.7026
17.6929
17.6837
17.6748
17.6661
17.6577
17.6494
17.6411
17.6323
17.6227
17.6116
17.5975
17.5787
17.5521
17.5138
17.4582
17.3785
-15.0613
-15.2539
-15.6037
-16.0954
-16.6836
-17.327
-17.9929
-18.6694
-19.3667
-20.1009
-20.8815
-21.7061
-22.5603
-23.4213
-24.2616
-25.0558
-25.7853
-26.442
-27.0275
-27.5491
-28.0203
-28.4608
-28.894
-29.3431
-29.8301
-30.3741
-30.9907
-31.6918
-32.4893
-33.4019
-34.4586
-35.7032
-37.1913
-38.9714
-41.0654
-43.4759
-46.1862
-49.1537
-52.2977
-55.5109
-58.6794
-61.6855
-64.4192
-66.7864
-68.7157
-70.1648
-71.1156
-71.5773
-71.5859
-71.2072
-70.5312
-69.6562
-68.68
-67.6937
-66.7763
-65.991
-65.374
-64.9374
-64.6695
-64.5385
-64.4985
-64.4928
-64.459
-64.3247
-64.0081
-63.4278
-62.5117
-61.2048
-59.47
-57.2915
-54.6752
-51.6512
-48.2784
-44.6426
-40.8481
-37.0118
-33.2505
-29.6667
-26.3272
-23.2635
-20.4785
-17.9567
-15.6757
-13.6071
-11.7191
-9.97546
-8.33901
-6.77494
-5.25574
-3.74847
-2.20111
-0.539846
1.29756
3.31648
5.45426
7.57313
9.52874
11.2428
12.7039
13.9404
15.0013
15.9249
16.7316
17.4295
18.0234
18.52
18.9276
19.255
19.5104
19.7015
19.8355
19.9196
19.9601
19.9631
19.9344
19.8797
19.8044
19.7141
19.6139
19.5081
19.4002
19.293
19.1886
19.0882
18.9927
18.9026
18.8182
18.7395
18.6663
18.5982
18.5349
18.4756
18.4201
18.3682
18.3196
18.2745
18.2326
18.1938
18.1579
18.1248
18.0941
18.0655
18.039
18.0141
17.9907
17.9686
17.9476
17.9276
17.9085
17.8904
17.873
17.8563
17.8403
17.8249
17.8101
17.7958
17.7821
17.769
17.7564
17.7442
17.7326
17.7214
17.7106
17.7002
17.6901
17.6802
17.6705
17.6608
17.6511
17.6411
17.6307
17.6193
17.6065
17.5914
17.5726
17.5481
17.5153
17.4703
17.4083
17.3235
-12.8844
-13.0858
-13.4546
-13.9714
-14.5928
-15.2749
-15.9794
-16.6846
-17.3893
-18.1063
-18.8483
-19.6225
-20.4251
-21.2429
-22.0556
-22.841
-23.5819
-24.2712
-24.9105
-25.5088
-26.0796
-26.6414
-27.2138
-27.8158
-28.4651
-29.1764
-29.9592
-30.8202
-31.7682
-32.8211
-34.0093
-35.3773
-36.976
-38.8455
-41.0094
-43.4746
-46.2272
-49.223
-52.3826
-55.6056
-58.7875
-61.8187
-64.5959
-67.0289
-69.0465
-70.6054
-71.6834
-72.2808
-72.4309
-72.1973
-71.664
-70.9231
-70.0643
-69.1719
-68.3208
-67.5727
-66.9671
-66.5187
-66.218
-66.0341
-65.9241
-65.8384
-65.7205
-65.5023
-65.1053
-64.4483
-63.4598
-62.0845
-60.2857
-58.0494
-55.3855
-52.3264
-48.9325
-45.2879
-41.4945
-37.6657
-33.9163
-30.3457
-27.0207
-23.9724
-21.2037
-18.6987
-16.4322
-14.3728
-12.484
-10.7264
-9.063
-7.46387
-5.90555
-4.35698
-2.7674
-1.06992
0.786907
2.79908
4.8984
6.95442
8.84712
10.5161
11.9577
13.2014
14.2864
15.2403
16.0774
16.8045
17.4273
17.9534
18.3909
18.7481
19.0328
19.2522
19.4135
19.5236
19.589
19.616
19.6104
19.5781
19.5246
19.4554
19.3753
19.2888
19.1992
19.1091
19.0207
18.9353
18.8539
18.777
18.7047
18.6372
18.5744
18.516
18.4615
18.4106
18.3626
18.3174
18.2748
18.2349
18.1977
18.163
18.1308
18.1009
18.073
18.047
18.0225
17.9995
17.9778
17.9571
17.9374
17.9185
17.9005
17.8832
17.8667
17.8508
17.8355
17.8208
17.8065
17.7928
17.7795
17.7666
17.7542
17.7422
17.7306
17.7193
17.7083
17.6976
17.6871
17.6767
17.6662
17.6555
17.6445
17.6329
17.6205
17.6067
17.5909
17.572
17.5489
17.5194
17.481
17.4303
17.3628
17.2737
-10.371
-10.5865
-10.9884
-11.5563
-12.2474
-13.0144
-13.8141
-14.6149
-15.4038
-16.1844
-16.9657
-17.7571
-18.5612
-19.3714
-20.173
-20.9492
-21.6865
-22.3772
-23.0221
-23.6328
-24.2273
-24.8267
-25.4505
-26.1147
-26.8323
-27.6132
-28.4619
-29.3807
-30.3773
-31.4709
-32.6939
-34.0914
-35.7082
-37.5791
-39.7288
-42.1681
-44.8812
-47.8209
-50.913
-54.0692
-57.1976
-60.2005
-62.9855
-65.4686
-67.5805
-69.2755
-70.5272
-71.3321
-71.7148
-71.7297
-71.4516
-70.96
-70.3319
-69.6391
-68.9468
-68.311
-67.7721
-67.3471
-67.029
-66.7914
-66.5985
-66.412
-66.1867
-65.8618
-65.3664
-64.624
-63.5641
-62.1309
-60.2903
-58.0313
-55.367
-52.3295
-48.9792
-45.3986
-41.6863
-37.9496
-34.2954
-30.815
-27.5696
-24.5888
-21.8752
-19.4125
-17.1737
-15.1252
-13.2282
-11.4457
-9.74658
-8.1071
-6.5068
-4.9108
-3.26707
-1.51746
0.372504
2.38205
4.43308
6.41335
8.23081
9.84593
11.2631
12.5089
13.6106
14.5857
15.4439
16.1923
16.838
17.3884
17.8513
18.2344
18.5447
18.7895
18.9757
19.11
19.1991
19.2493
19.2666
19.2568
19.2254
19.178
19.1192
19.0531
18.983
18.9114
18.8403
18.7711
18.7049
18.6421
18.5831
18.5279
18.4764
18.4283
18.3834
18.3412
18.3012
18.2632
18.2271
18.1929
18.1608
18.1306
18.1023
18.0757
18.0509
18.0274
18.0053
17.9842
17.9642
17.945
17.9266
17.9089
17.892
17.8757
17.8601
17.8451
17.8305
17.8164
17.8027
17.7895
17.7766
17.7641
17.7519
17.74
17.7285
17.7171
17.706
17.695
17.6841
17.6731
17.6619
17.6503
17.6381
17.625
17.6107
17.5945
17.5759
17.5537
17.5265
17.4926
17.4493
17.3935
17.3215
17.2288
-7.62136
-7.84371
-8.26415
-8.87287
-9.62993
-10.4898
-11.4081
-12.3457
-13.2779
-14.1941
-15.0936
-15.9776
-16.8462
-17.6935
-18.5085
-19.2784
-19.9924
-20.6472
-21.2484
-21.8104
-22.3538
-22.9014
-23.4734
-24.0878
-24.7578
-25.4928
-26.2977
-27.1767
-28.1412
-29.2118
-30.4201
-31.8046
-33.3996
-35.2329
-37.3294
-39.6983
-42.3187
-45.1434
-48.1082
-51.1407
-54.1626
-57.0902
-59.8445
-62.3502
-64.543
-66.3783
-67.8286
-68.8852
-69.5629
-69.9018
-69.9592
-69.7987
-69.4821
-69.0657
-68.6012
-68.1354
-67.7054
-67.3311
-67.0112
-66.7275
-66.4542
-66.1625
-65.8181
-65.3749
-64.7718
-63.9403
-62.8144
-61.3413
-59.4893
-57.2503
-54.6363
-51.6813
-48.4441
-45.0048
-41.4554
-37.8932
-34.4123
-31.0911
-27.9829
-25.114
-22.4863
-20.0832
-17.8774
-15.8356
-13.9234
-12.111
-10.375
-8.69727
-7.05231
-5.40017
-3.68959
-1.87625
0.04731
2.04369
4.03189
5.92352
7.65828
9.21686
10.6081
11.8507
12.96
13.9461
14.817
15.5805
16.2441
16.8149
17.2998
17.7055
18.0388
18.3065
18.5156
18.6728
18.7846
18.8576
18.8978
18.9111
18.9029
18.8785
18.8423
18.7981
18.749
18.6973
18.6451
18.5937
18.5441
18.4968
18.4523
18.4105
18.3714
18.3347
18.3001
18.2672
18.2358
18.2055
18.1764
18.1484
18.1217
18.0963
18.0722
18.0493
18.0276
18.0069
17.9871
17.968
17.9497
17.9321
17.9151
17.8988
17.883
17.8679
17.8532
17.839
17.8252
17.8117
17.7987
17.786
17.7736
17.7614
17.7495
17.7377
17.7262
17.7149
17.7036
17.6924
17.6811
17.6695
17.6576
17.6451
17.6318
17.6173
17.6012
17.5829
17.5616
17.5363
17.5056
17.4677
17.4201
17.36
17.284
17.1883
-5.0355
-5.24108
-5.65192
-6.26202
-7.04183
-7.95463
-8.96325
-10.0287
-11.1153
-12.1951
-13.2495
-14.2644
-15.2288
-16.1317
-16.9609
-17.7046
-18.3569
-18.9207
-19.4103
-19.848
-20.2605
-20.6738
-21.1119
-21.595
-22.1399
-22.7595
-23.4637
-24.263
-25.1738
-26.2191
-27.4249
-28.8156
-30.4107
-32.228