/*--------------------------------*- C++ -*----------------------------------*\
  =========                 |
  \\      /  F ield         | OpenFOAM: The Open Source CFD Toolbox
   \\    /   O peration     | Website:  https://openfoam.org
    \\  /    A nd           | Version:  9
     \\/     M anipulation  |
\*---------------------------------------------------------------------------*/
FoamFile
{
    format      ascii;
    class       volScalarField;
    location    "0.042";
    object      pPrime2Mean;
}
// * * * * * * * * * * * * * * * * * * * * * * * * * * * * * * * * * * * * * //

dimensions      [0 4 -4 0 0 0 0];

internalField   nonuniform List<scalar> 
12225
(
300368
297571
294332
290807
287117
283347
279558
275784
272050
268365
264732
261147
257598
254063
250508
246874
243041
238723
300386
297599
294355
290826
287132
283360
279569
275795
272060
268375
264744
261161
257615
254085
250540
246926
243147
239030
300456
297663
294406
290868
287166
283389
279594
275818
272083
268399
264770
261191
257652
254135
250611
247037
243352
239499
300585
297770
294492
290937
287223
283437
279636
275857
272121
268438
264813
261242
257715
254216
250725
247211
243647
240048
300771
297930
294620
291039
287306
283507
279698
275914
272177
268496
264877
261316
257805
254333
250884
247445
244013
240636
301048
298151
294795
291179
287421
283604
279783
275993
272253
268576
264964
261416
257927
254488
251092
247735
244434
241245
301435
298450
295028
291365
287573
283732
279896
276097
272355
268680
265077
261546
258083
254683
251346
248077
244899
241865
301945
298835
295329
291605
287768
283896
280040
276229
272484
268813
265221
261709
258275
254920
251646
248463
245398
242493
302627
299323
295706
291903
288011
284101
280220
276395
272644
268976
265397
261907
258507
255199
251989
248890
245924
243127
303382
299917
296169
292271
288310
284352
280439
276596
272839
269175
265609
262142
258778
255518
252372
249351
246474
243766
304283
300633
296730
292715
288670
284654
280703
276838
273072
269411
265858
262416
259088
255877
252791
249842
247042
244410
305247
301424
297345
293199
289061
284981
280989
277100
273323
269663
266123
262704
259409
256241
253207
250316
247578
245004
306509
302339
298042
293745
289502
285351
281311
277394
273604
269944
266416
263019
259755
256628
253643
250804
248120
245596
308159
303550
298957
294458
290077
285831
281729
277774
273967
270306
266789
263416
260187
257102
254166
251381
248749
246274
310337
305116
300139
295377
290815
286446
282265
278263
274432
270765
267260
263910
260716
257674
254787
252052
249471
247041
313046
307125
301637
296531
291737
287216
282936
278873
275011
271337
267840
264513
261352
258352
255509
252822
250287
247898
316292
309495
303391
297886
292829
288134
283741
279610
275712
272025
268534
265228
262097
259133
256332
253686
251190
248838
320198
312073
305264
299333
294003
289135
284634
280439
276507
272810
269325
266038
262934
260003
257236
254626
252163
249841
323010
313977
306691
300496
295014
290051
285494
281268
277326
273633
270163
266897
263820
260919
258183
255603
253168
250870
321447
313510
306681
300714
295357
290474
285971
281787
277878
274216
270774
267536
264485
261609
258897
256338
253922
251642
319377
312324
306086
300467
295328
290582
286169
282049
278189
274562
271150
267937
264908
262051
259356
256811
254408
252139
317196
311042
305346
300071
295152
290550
286237
282185
278374
274785
271402
268211
265201
262360
259678
257145
254752
252490
315332
309877
304637
299658
294935
290464
286240
282251
278484
274927
271569
268398
265403
262575
259903
257378
254992
252736
313927
308958
304050
299302
294734
290370
286218
282279
278548
275018
271679
268524
265541
262722
260058
257540
255159
252907
312897
308245
303596
299022
294571
290287
286190
282289
278585
275075
271752
268608
265634
262822
260164
257650
255273
253024
312039
307707
303261
298815
294450
290223
286165
282292
278608
275112
271799
268663
265695
262889
260234
257723
255349
253102
311378
307331
303030
298674
294366
290178
286147
282292
278621
275134
271828
268698
265734
262931
260279
257771
255398
253152
310910
307082
302883
298584
294313
290149
286135
282291
278628
275148
271846
268719
265758
262956
260306
257799
255427
253183
310662
306942
302801
298535
294284
290133
286128
282291
278632
275155
271855
268730
265770
262970
260321
257814
255443
253199
310537
306884
302768
298515
294272
290127
286125
282290
278634
275157
271859
268734
265776
262976
260327
257821
255449
253205
202068
202049
202014
201963
201900
201823
201730
201618
201483
201322
201137
200927
200695
200442
200173
199888
199590
199279
198954
198615
198261
197890
197500
197091
196661
196210
195734
195236
194716
194181
193629
193057
192470
191865
191250
190632
190013
189389
188733
188039
187326
186608
185889
185159
184397
183610
182807
181984
181152
180294
179365
178384
177375
176356
175339
174331
173338
172358
171394
170443
169503
168573
167651
166734
165820
164906
163990
163069
162140
161200
160247
159277
158288
157280
156252
155203
154134
153045
151940
150817
149681
148531
147370
146198
145017
143827
142628
141421
140204
138976
137734
136479
135210
133931
132645
131356
130065
128777
127491
126210
124932
123657
122385
121115
119846
118579
117311
116042
114773
113502
112229
110954
109677
108398
107116
105832
104545
103256
101964
100670
99374
98075.8
96775.7
95473.6
94169.9
92864.6
91557.8
90249.7
88940.5
87630.4
86319.5
85008.1
83696.3
82384.3
81072.3
79760.4
78449
77138.1
75828
74519
73211.2
71904.7
70599.9
69296.9
67995.9
66697.2
65401
64107.5
62816.9
61529.5
60245.6
58965.3
57688.9
56416.6
55148.8
53885.6
52627.4
51374.3
50126.6
48884.8
47649
46419.7
45197
43981.3
42773
41572.5
40380
39196
38020.8
36855
35699.1
34553.4
33418.7
32295.5
31184.8
30087.5
29005.1
27939.7
26894.9
25879.7
202128
202109
202074
202022
201959
201880
201784
201667
201526
201361
201171
200958
200724
200471
200201
199917
199618
199306
198980
198640
198285
197913
197523
197114
196684
196232
195759
195263
194747
194212
193651
193066
192466
191850
191228
190601
189977
189350
188702
188019
187312
186597
185882
185161
184405
183627
182801
181914
181047
180168
179234
178260
177264
176260
175258
174265
173284
172315
171359
170414
169480
168554
167634
166720
165808
164896
163982
163062
162135
161197
160244
159275
158288
157281
156253
155204
154135
153047
151941
150819
149682
148532
147371
146199
145018
143829
142631
141426
140210
138984
137743
136488
135220
133941
132654
131363
130072
128782
127497
126215
124936
123661
122389
121119
119850
118582
117314
116045
114775
113504
112231
110956
109679
108399
107117
105833
104546
103257
101965
100671
99374.7
98076.5
96776.2
95474.2
94170.3
92865
91558.2
90250.1
88940.8
87630.7
86319.8
85008.3
83696.5
82384.5
81072.4
79760.6
78449.1
77138.2
75828.2
74519.1
73211.2
71904.8
70600
69296.9
67996
66697.3
65401
64107.5
62817
61529.6
60245.6
58965.3
57688.9
56416.7
55148.8
53885.6
52627.3
51374.2
50126.6
48884.8
47649
46419.6
45196.9
43981.3
42773
41572.4
40379.9
39195.9
38020.7
36854.9
35698.9
34553.2
33418.4
32295.2
31184.4
30086.9
29004.2
27938.2
26892
25872
202282
202265
202230
202176
202103
202012
201902
201770
201615
201438
201238
201018
200779
200523
200251
199966
199667
199355
199031
198692
198338
197966
197577
197168
196739
196287
195816
195323
194809
194272
193710
193128
192524
191903
191273
190640
190002
189355
188689
187998
187291
186586
185883
185153
184376
183564
182724
181837
180927
180002
179056
178093
177118
176138
175159
174185
173219
172262
171315
170377
169448
168525
167609
166697
165787
164878
163966
163049
162124
161188
160238
159271
158286
157280
156253
155205
154137
153049
151943
150821
149684
148534
147372
146201
145021
143832
142637
141434
140222
138999
137761
136508
135240
133959
132670
131377
130084
128794
127507
126225
124946
123671
122398
121127
119858
118589
117320
116051
114781
113509
112236
110960
109682
108402
107120
105835
104548
103259
101967
100673
99376.2
98077.8
96777.4
95475.2
94171.3
92865.8
91558.9
90250.7
88941.4
87631.2
86320.3
85008.8
83696.9
82384.8
81072.7
79760.8
78449.3
77138.4
75828.3
74519.3
73211.4
71904.9
70600.1
69297.1
67996.1
66697.4
65401.1
64107.6
62817.1
61529.7
60245.7
58965.3
57688.9
56416.6
55148.8
53885.6
52627.3
51374.2
50126.5
48884.7
47648.9
46419.5
45196.8
43981.2
42772.9
41572.3
40379.7
39195.7
38020.5
36854.7
35698.6
34552.8
33417.9
32294.6
31183.5
30085.7
29002.4
27935.6
26887.2
25861.6
202501
202485
202448
202389
202305
202200
202074
201927
201760
201573
201367
201142
200900
200641
200368
200081
199780
199467
199140
198799
198442
198069
197678
197267
196836
196384
195911
195421
194910
194380
193831
193260
192669
192061
191439
190807
190160
189487
188788
188068
187338
186603
185872
185119
184323
183488
182620
181722
180802
179865
178915
177956
176992
176026
175062
174102
173148
172201
171262
170330
169406
168488
167576
166667
165760
164853
163943
163029
162107
161175
160228
159265
158282
157279
156253
155207
154139
153051
151945
150823
149686
148536
147375
146204
145025
143838
142645
141446
140239
139021
137788
136537
135269
133986
132694
131398
130102
128810
127522
126239
124960
123684
122411
121139
119869
118599
117330
116059
114788
113516
112242
110966
109687
108407
107124
105839
104552
103262
101969
100675
99378.4
98079.7
96779.1
95476.7
94172.7
92867
91560
90251.6
88942.3
87632
86321
85009.4
83697.4
82385.3
81073.1
79761.2
78449.7
77138.7
75828.6
74519.5
73211.6
71905.1
70600.3
69297.2
67996.2
66697.5
65401.3
64107.7
62817.1
61529.7
60245.7
58965.4
57688.9
56416.7
55148.8
53885.5
52627.2
51374.1
50126.5
48884.6
47648.8
46419.4
45196.7
43981
42772.7
41572.1
40379.5
39195.5
38020.2
36854.3
35698.1
34552.2
33417.1
32293.5
31182.1
30083.8
28999.7
27931.4
26880.5
25848.9
202800
202779
202734
202662
202567
202450
202314
202158
201983
201790
201577
201346
201099
200835
200557
200265
199960
199643
199311
198965
198604
198226
197830
197413
196977
196520
196044
195552
195044
194523
193987
193438
192872
192291
191692
191072
190423
189737
189014
188263
187500
186725
185937
185128
184293
183429
182538
181626
180698
179755
178803
177846
176886
175928
174972
174021
173075
172136
171204
170278
169359
168445
167536
166631
165727
164822
163916
163005
162087
161158
160216
159256
158277
157276
156253
155208
154141
153054
151948
150825
149689
148539
147378
146208
145029
143844
142655
141461
140261
139050
137823
136576
135308
134023
132727
131426
130126
128832
127542
126258
124979
123702
122428
121155
119884
118613
117342
116071
114798
113525
112250
110973
109694
108413
107129
105844
104556
103265
101973
100678
99381.2
98082.3
96781.5
95478.8
94174.5
92868.6
91561.3
90252.9
88943.4
87632.9
86321.8
85010.1
83698.1
82385.9
81073.7
79761.7
78450.1
77139.1
75828.9
74519.8
73211.9
71905.4
70600.5
69297.4
67996.4
66697.7
65401.4
64107.9
62817.3
61529.8
60245.8
58965.4
57689
56416.7
55148.8
53885.5
52627.2
51374.1
50126.4
48884.6
47648.8
46419.3
45196.6
43980.9
42772.5
41571.9
40379.3
39195.1
38019.8
36853.8
35697.5
34551.4
33416.1
32292.1
31180.2
30081.3
28996.2
27926.1
26872.2
25835.2
203173
203142
203082
202999
202896
202772
202629
202466
202284
202082
201861
201620
201361
201086
200798
200497
200185
199861
199525
199174
198807
198423
198020
197597
197153
196691
196211
195716
195209
194691
194165
193631
193086
192528
191949
191341
190693
190000
189263
188490
187692
186875
186040
185186
184310
183414
182499
181568
180625
179672
178714
177754
176796
175840
174890
173944
173004
172070
171142
170221
169306
168396
167491
166590
165689
164789
163887
162979
162065
161141
160202
159247
158271
157273
156252
155209
154143
153056
151950
150828
149691
148542
147381
146212
145035
143852
142666
141478
140287
139085
137867
136626
135360
134072
132769
131462
130157
128858
127567
126282
125001
123724
122448
121175
119901
118629
117357
116084
114810
113535
112259
110981
109701
108420
107135
105849
104561
103270
101977
100682
99384.5
98085.2
96784.1
95481.1
94176.5
92870.4
91563
90254.3
88944.6
87634
86322.8
85011
83698.9
82386.6
81074.3
79762.3
78450.6
77139.5
75829.3
74520.1
73212.2
71905.7
70600.8
69297.7
67996.6
66697.9
65401.6
64108
62817.4
61529.9
60245.9
58965.5
57689
56416.7
55148.8
53885.5
52627.2
51374
50126.4
48884.5
47648.7
46419.2
45196.5
43980.7
42772.3
41571.6
40379
39194.7
38019.3
36853.2
35696.7
34550.4
33414.7
32290.4
31177.9
30078.2
28991.9
27920
26863.1
25821.2
203591
203555
203491
203406
203300
203173
203025
202856
202666
202455
202222
201968
201697
201409
201108
200797
200474
200141
199795
199435
199058
198664
198251
197819
197367
196898
196412
195913
195403
194883
194357
193827
193291
192744
192175
191570
190920
190223
189479
188692
187874
187031
186166
185280
184374
183448
182505
181550
180584
179614
178644
177677
176716
175761
174813
173871
172935
172004
171079
170160
169246
168340
167438
166541
165646
164751
163854
162953
162044
161124
160191
159240
158268
157273
156254
155212
154146
153060
151954
150831
149694
148545
147385
146216
145040
143860
142677
141495
140312
139121
137914
136681
135418
134128
132820
131505
130193
128890
127596
126309
125028
123749
122472
121197
119922
118648
117373
116099
114824
113548
112270
110991
109710
108427
107142
105855
104566
103275
101981
100686
99388.2
98088.6
96787.1
95483.8
94178.9
92872.5
91564.8
90255.9
88946.1
87635.3
86323.9
85012
83699.8
82387.4
81075.1
79762.9
78451.2
77140
75829.8
74520.5
73212.6
71906
70601.1
69298
67996.9
66698.1
65401.8
64108.2
62817.5
61530.1
60246
58965.6
57689.1
56416.8
55148.8
53885.5
52627.2
51374
50126.3
48884.4
47648.6
46419.1
45196.3
43980.5
42772.1
41571.3
40378.6
39194.3
38018.7
36852.4
35695.7
34549.2
33413.2
32288.4
31175.3
30074.6
28987
27913.1
26853.3
25807.2
204076
204042
203983
203900
203793
203663
203511
203337
203140
202919
202676
202411
202126
201825
201511
201185
200849
200501
200140
199764
199373
198964
198537
198093
197630
197152
196658
196152
195635
195108
194575
194038
193498
192946
192370
191758
191106
190408
189662
188873
188051
187199
186322
185418
184488
183535
182562
181575
180580
179586
178597
177617
176648
175691
174743
173803
172869
171940
171015
170095
169182
168276
167377
166484
165595
164707
163818
162924
162023
161111
160184
159239
158272
157280
156262
155220
154154
153066
151960
150836
149699
148549
147389
146221
145047
143868
142688
141510
140332
139150
137953
136731
135474
134185
132872
131550
130232
128924
127628
126339
125057
123777
122498
121221
119944
118668
117392
116115
114839
113561
112282
111001
109719
108435
107150
105862
104572
103280
101986
100690
99392.2
98092.2
96790.4
95486.8
94181.6
92874.9
91566.9
90257.8
88947.7
87636.8
86325.2
85013.1
83700.8
82388.3
81075.8
79763.6
78451.8
77140.6
75830.3
74521
73213
71906.4
70601.4
69298.3
67997.2
66698.4
65402
64108.4
62817.7
61530.2
60246.1
58965.7
57689.2
56416.8
55148.9
53885.5
52627.2
51374
50126.3
48884.4
47648.5
46419
45196.2
43980.3
42771.8
41571
40378.2
39193.8
38018.1
36851.6
35694.7
34547.8
33411.5
32286.1
31172.3
30070.7
28981.7
27905.9
26843.3
25793.5
204665
204633
204576
204493
204386
204254
204099
203920
203716
203488
203235
202959
202663
202350
202022
201680
201326
200959
200577
200181
199769
199341
198896
198435
197958
197467
196963
196446
195918
195380
194835
194284
193730
193162
192571
191950
191294
190597
189857
189078
188264
187418
186537
185621
184670
183687
182678
181653
180621
179593
178576
177577
176596
175632
174682
173741
172807
171878
170952
170031
169116
168209
167310
166420
165537
164657
163778
162895
162005
161103
160185
159246
158283
157294
156277
155234
154166
153076
151968
150843
149704
148554
147395
146227
145054
143877
142698
141521
140346
139169
137980
136767
135518
134232
132918
131592
130270
128959
127660
126371
125087
123806
122526
121246
119968
118689
117411
116133
114854
113575
112294
111013
109729
108444
107158
105869
104579
103286
101992
100695
99396.7
98096.3
96794
95490.1
94184.5
92877.5
91569.2
90259.8
88949.5
87638.3
86326.6
85014.4
83701.9
82389.3
81076.7
79764.4
78452.5
77141.3
75830.9
74521.6
73213.5
71906.8
70601.8
69298.7
67997.5
66698.7
65402.3
64108.6
62817.9
61530.4
60246.3
58965.9
57689.3
56416.9
55148.9
53885.6
52627.2
51374
50126.2
48884.3
47648.4
46418.9
45196
43980.1
42771.6
41570.7
40377.7
39193.2
38017.4
36850.7
35693.5
34546.3
33409.6
32283.6
31169.1
30066.5
28976.1
27898.4
26833.3
25780.2
205367
205336
205279
205196
205088
204954
204795
204612
204402
204167
203907
203623
203317
202991
202648
202289
201914
201524
201119
200698
200261
199809
199342
198860
198365
197858
197340
196809
196266
195714
195153
194586
194013
193427
192822
192193
191535
190844
190116
189353
188554
187716
186835
185907
184932
183915
182864
181793
180714
179643
178590
177563
176563
175588
174632
173688
172752
171821
170894
169970
169052
168142
167243
166355
165477
164605
163738
162868
161991
161101
160193
159262
158303
157315
156298
155253
154182
153090
151978
150851
149711
148561
147401
146234
145062
143886
142709
141531
140356
139180
137996
136789
135547
134267
132956
131629
130306
128993
127694
126403
125118
123835
122553
121272
119991
118711
117431
116151
114871
113590
112308
111025
109740
108454
107167
105877
104586
103293
101998
100701
99401.6
98100.7
96798
95493.7
94187.7
92880.4
91571.8
90262.1
88951.5
87640.1
86328.1
85015.8
83703.1
82390.4
81077.7
79765.3
78453.3
77142
75831.6
74522.2
73214
71907.3
70602.2
69299
67997.9
66699
65402.6
64108.9
62818.1
61530.6
60246.5
58966
57689.4
56417
55149
53885.6
52627.2
51374
50126.2
48884.2
47648.3
46418.7
45195.8
43979.9
42771.3
41570.3
40377.3
39192.6
38016.6
36849.7
35692.3
34544.7
33407.5
32281
31165.7
30062
28970.3
27890.8
26823.3
25767.4
206187
206156
206098
206013
205901
205764
205600
205411
205196
204954
204687
204394
204078
203739
203380
203001
202605
202191
201760
201313
200850
200373
199882
199378
198862
198337
197800
197252
196693
196125
195549
194965
194375
193774
193158
192523
191865
191180
190463
189712
188923
188090
187204
186261
185259
184204
183108
181986
180856
179737
178644
177584
176560
175569
174603
173653
172713
171778
170845
169917
168995
168082
167181
166294
165420
164557
163701
162845
161982
161105
160206
159282
158328
157341
156323
155275
154200
153104
151990
150861
149720
148569
147410
146244
145073
143898
142721
141544
140367
139189
138005
136801
135565
134290
132983
131660
130338
129026
127726
126435
125149
123865
122581
121298
120015
118734
117452
116170
114888
113606
112322
111038
109752
108465
107176
105886
104594
103300
102004
100707
99407
98105.6
96802.5
95497.7
94191.3
92883.6
91574.6
90264.6
88953.7
87642.1
86329.9
85017.3
83704.4
82391.5
81078.7
79766.2
78454.2
77142.8
75832.3
74522.8
73214.6
71907.8
70602.7
69299.4
67998.2
66699.3
65402.9
64109.2
62818.4
61530.8
60246.7
58966.1
57689.5
56417.1
55149
53885.7
52627.2
51374
50126.2
48884.2
47648.2
46418.6
45195.6
43979.7
42771
41569.9
40376.8
39192
38015.8
36848.7
35691
34543.1
33405.4
32278.3
31162.2
30057.5
28964.4
27883.2
26813.6
25755.1
207127
207095
207034
206944
206827
206683
206512
206314
206090
205839
205561
205258
204928
204575
204200
203802
203384
202947
202492
202020
201532
201031
200516
199990
199454
198908
198352
197787
197212
196629
196038
195442
194838
194224
193596
192952
192287
191596
190877
190125
189334
188494
187595
186629
185597
184505
183366
182199
181025
179865
178735
177645
176598
175590
174611
173652
172703
171760
170820
169885
168956
168038
167134
166247
165376
164520
163674
162830
161979
161112
160222
159304
158353
157367
156347
155296
154218
153119
152002
150872
149731
148580
147422
146257
145087
143913
142737
141559
140381
139200
138014
136811
135576
134306
133003
131685
130367
129058
127758
126467
125180
123894
122608
121324
120039
118756
117473
116190
114906
113622
112337
111051
109764
108476
107186
105895
104602
103308
102011
100713
99412.9
98110.9
96807.3
95502
94195.3
92887.1
91577.8
90267.4
88956.2
87644.3
86331.8
85019
83705.9
82392.9
81079.9
79767.3
78455.1
77143.6
75833
74523.5
73215.2
71908.3
70603.2
69299.8
67998.6
66699.6
65403.2
64109.4
62818.6
61531
60246.8
58966.3
57689.7
56417.2
55149.1
53885.7
52627.2
51374
50126.1
48884.1
47648.1
46418.5
45195.5
43979.4
42770.6
41569.5
40376.2
39191.3
38015
36847.6
35689.6
34541.4
33403.2
32275.5
31158.6
30052.9
28958.6
27875.7
26804.2
25743.5
208189
208154
208088
207992
207867
207712
207529
207319
207080
206815
206522
206202
205857
205486
205092
204675
204237
203779
203302
202809
202299
201776
201241
200695
200140
199575
199002
198420
197831
197234
196630
196018
195397
194763
194114
193447
192759
192047
191307
190534
189720
188856
187932
186939
185880
184759
183593
182399
181199
180015
178863
177753
176688
175664
174672
173700
172739
171784
170834
169888
168952
168027
167119
166229
165359
164506
163665
162827
161982
161121
160236
159322
158373
157387
156365
155312
154232
153132
152015
150885
149745
148595
147437
146273
145103
143930
142755
141577
140398
139215
138026
136820
135585
134315
133017
131705
130393
129087
127789
126498
125209
123922
122635
121349
120063
118779
117494
116209
114924
113639
112353
111066
109777
108488
107197
105905
104612
103316
102019
100720
99419.3
98116.8
96812.6
95506.8
94199.6
92891
91581.3
90270.6
88959
87646.7
86333.9
85020.8
83707.6
82394.3
81081.2
79768.4
78456.1
77144.5
75833.8
74524.2
73215.8
71908.9
70603.7
69300.3
67999
66700
65403.5
64109.7
62818.9
61531.3
60247
58966.5
57689.8
56417.3
55149.2
53885.8
52627.3
51374
50126.1
48884
47648
46418.3
45195.3
43979.2
42770.3
41569.1
40375.7
39190.6
38014.1
36846.5
35688.2
34539.6
33401
32272.7
31155.1
30048.4
28952.8
27868.5
26795.2
25732.5
209378
209339
209267
209162
209025
208856
208657
208428
208170
207884
207571
207230
206864
206472
206057
205620
205162
204684
204189
203676
203148
202607
202054
201490
200917
200335
199745
199146
198539
197922
197296
196658
196006
195340
194656
193951
193224
192471
191689
190876
190024
189125
188170
187154
186077
184945
183771
182573
181370
180182
179025
177908
176833
175798
174791
173805
172829
171861
170899
169943
168997
168065
167149
166254
165379
164523
163679
162839
161993
161132
160248
159333
158384
157397
156375
155322
154243
153143
152028
150899
149760
148611
147454
146291
145122
143950
142775
141597
140417
139234
138040
136828
135589
134320
133025
131720
130414
129114
127818
126527
125238
123949
122661
121374
120087
118801
117515
116230
114943
113656
112369
111081
109791
108501
107209
105916
104622
103326
102027
100728
99426.2
98123
96818.2
95511.9
94204.2
92895.2
91585.1
90273.9
88962
87649.3
86336.3
85022.9
83709.4
82395.9
81082.6
79769.6
78457.2
77145.5
75834.7
74525
73216.5
71909.5
70604.2
69300.8
67999.5
66700.4
65403.9
64110.1
62819.2
61531.5
60247.3
58966.7
57690
56417.4
55149.3
53885.8
52627.3
51374
50126.1
48884
47647.9
46418.2
45195.1
43978.9
42770
41568.6
40375.2
39189.9
38013.2
36845.4
35686.9
34537.9
33398.8
32269.9
31151.5
30043.9
28947.2
27861.5
26786.6
25722.2
210703
210659
210578
210462
210310
210123
209903
209651
209368
209057
208717
208350
207958
207543
207105
206646
206167
205669
205155
204624
204078
203519
202946
202363
201769
201164
200548
199921
199283
198633
197971
197294
196601
195891
195160
194406
193628
192823
191991
191130
190235
189299
188318
187285
186203
185075
183913
182730
181544
180371
179224
178109
177031
175986
174967
173965
172975
171993
171019
170054
169099
168159
167234
166328
165443
164576
163721
162871
162017
161149
160259
159340
158388
157400
156379
155327
154249
153152
152038
150913
149776
148629
147474
146312
145145
143973
142799
141621
140440
139253
138053
136833
135588
134317
133028
131731
130433
129137
127844
126553
125264
123975
122686
121398
120111
118824
117537
116250
114962
113674
112386
111096
109806
108515
107222
105928
104632
103335
102037
100736
99433.7
98129.8
96824.4
95517.5
94209.2
92899.7
91589.1
90277.5
88965.1
87652.2
86338.8
85025.1
83711.3
82397.6
81084.1
79771
78458.4
77146.5
75835.6
74525.8
73217.3
71910.2
70604.8
69301.3
67999.9
66700.8
65404.2
64110.4
62819.5
61531.8
60247.5
58966.9
57690.1
56417.6
55149.4
53885.9
52627.4
51374
50126.1
48884
47647.9
46418.1
45194.9
43978.7
42769.7
41568.2
40374.7
39189.3
38012.4
36844.4
35685.5
34536.1
33396.6
32267.1
31148.1
30039.6
28941.8
27854.9
26778.5
25712.6
212225
212174
212083
211951
211779
211569
211322
211041
210728
210384
210013
209615
209194
208750
208284
207799
207295
206773
206233
205677
205104
204516
203912
203295
202664
202020
201364
200697
200018
199327
198620
197898
197158
196397
195614
194807
193975
193119
192239
191334
190400
189435
188433
187392
186313
185200
184060
182905
181746
180596
179464
178356
177276
176223
175191
174175
173170
172176
171191
170217
169255
168305
167370
166451
165550
164666
163794
162928
162058
161175
160274
159346
158389
157399
156377
155327
154252
153158
152048
150925
149792
148649
147497
146338
145172
144002
142829
141651
140467
139273
138065
136836
135584
134313
133029
131740
130449
129158
127868
126578
125289
123999
122711
121422
120134
118846
117559
116271
114982
113693
112404
111113
109822
108529
107236
105941
104644
103346
102046
100745
99441.9
98137.2
96831.1
95523.5
94214.6
92904.6
91593.4
90281.4
88968.6
87655.3
86341.5
85027.5
83713.4
82399.4
81085.7
79772.4
78459.7
77147.7
75836.7
74526.7
73218.1
71910.9
70605.5
69301.9
68000.5
66701.3
65404.7
64110.8
62819.9
61532.1
60247.8
58967.1
57690.4
56417.8
55149.6
53886.1
52627.5
51374.1
50126.2
48884
47647.8
46418
45194.8
43978.5
42769.5
41567.9
40374.2
39188.7
38011.6
36843.4
35684.2
34534.5
33394.5
32264.5
31144.8
30035.5
28936.8
27848.7
26771
25703.7
213897
213838
213732
213580
213383
213144
212865
212550
212201
211822
211415
210982
210526
210046
209544
209022
208479
207916
207334
206733
206114
205478
204828
204164
203489
202802
202106
201398
200680
199948
199200
198434
197650
196845
196017
195166
194293
193397
192481
191542
190581
189593
188578
187533
186460
185362
184244
183113
181978
180848
179730
178628
177546
176484
175441
174412
173395
172389
171394
170411
169440
168480
167533
166600
165681
164778
163886
162999
162110
161210
160294
159355
158389
157396
156374
155326
154254
153164
152057
150938
149809
148669
147521
146365
145203
144035
142863
141684
140495
139294
138075
136836
135580
134309
133031
131748
130463
129176
127888
126600
125311
124022
122733
121445
120156
118868
117579
116291
115002
113712
112421
111130
109838
108544
107250
105954
104656
103357
102056
100754
99450.3
98144.9
96838
95529.7
94220.2
92909.5
91597.9
90285.3
88972.1
87658.3
86344.2
85029.8
83715.5
82401.2
81087.3
79773.8
78460.9
77148.8
75837.6
74527.5
73218.8
71911.6
70606
69302.4
68000.9
66701.7
65405
64111.1
62820.1
61532.3
60247.9
58967.3
57690.5
56417.8
55149.6
53886.1
52627.4
51374
50126.1
48883.9
47647.7
46417.8
45194.6
43978.2
42769.1
41567.4
40373.6
39188
38010.7
36842.2
35682.8
34532.8
33392.4
32261.9
31141.5
30031.4
28931.8
27842.7
26763.9
25695.4
215573
215503
215380
215204
214978
214707
214393
214040
213653
213234
212785
212309
211807
211280
210728
210154
209559
208942
208306
207652
206982
206299
205604
204900
204187
203466
202736
201997
201247
200483
199702
198904
198087
197251
196392
195510
194607
193685
192744
191782
190800
189797
188771
187722
186651
185561
184455
183339
182219
181102
179991
178893
177807
176739
175685
174646
173618
172602
171598
170606
169624
168653
167693
166746
165812
164892
163982
163076
162167
161250
160318
159368
158395
157397
156375
155329
154260
153171
152068
150952
149826
148690
147545
146392
145232
144067
142895
141715
140520
139310
138081
136835
135577
134309
133035
131757
130475
129191
127905
126618
125330
124042
122753
121465
120176
118887
117599
116310
115020
113730
112438
111146
109853
108559
107263
105966
104668
103368
102066
100763
99458.7
98152.5
96844.8
95535.9
94225.7
92914.4
91602.2
90289.2
88975.5
87661.3
86346.8
85032.1
83717.5
82403
81088.8
79775.1
78462.1
77149.8
75838.5
74528.3
73219.5
71912.2
70606.6
69302.9
68001.3
66702.1
65405.3
64111.3
62820.3
61532.5
60248.1
58967.4
57690.6
56417.9
55149.7
53886.1
52627.4
51374
50126
48883.8
47647.5
46417.6
45194.3
43977.9
42768.7
41567
40373.1
39187.3
38009.9
36841.2
35681.5
34531.2
33390.4
32259.4
31138.4
30027.7
28927.2
27837.2
26757.4
25687.8
217250
217169
217024
216819
216559
216249
215893
215496
215059
214585
214078
213543
212983
212401
211798
211172
210523
209854
209166
208463
207746
207020
206286
205547
204802
204053
203296
202531
201755
200965
200158
199335
198493
197632
196749
195845
194921
193979
193019
192040
191043
190027
188991
187937
186865
185777
184677
183569
182457
181346
180240
179142
178055
176981
175919
174870
173834
172809
171796
170793
169801
168818
167846
166887
165940
165005
164078
163153
162226
161293
160349
159388
158408
157407
156383
155337
154270
153183
152081
150968
149845
148712
147570
146419
145261
144096
142923
141738
140538
139319
138083
136833
135575
134309
133039
131764
130485
129203
127919
126633
125346
124059
122771
121483
120194
118905
117616
116327
115037
113746
112455
111162
109868
108573
107277
105979
104680
103379
102076
100773
99467
98160.1
96851.7
95542.1
94231.2
92919.3
91606.5
90293
88978.8
87664.2
86349.4
85034.4
83719.5
82404.8
81090.4
79776.5
78463.3
77150.9
75839.4
74529.2
73220.2
71912.8
70607.1
69303.4
68001.8
66702.5
65405.7
64111.6
62820.6
61532.7
60248.3
58967.5
57690.7
56418
55149.7
53886.1
52627.4
51373.9
50125.9
48883.7
47647.4
46417.5
45194.1
43977.7
42768.4
41566.6
40372.6
39186.7
38009.1
36840.3
35680.4
34529.7
33388.5
32257.1
31135.6
30024.2
28923.1
27832.2
26751.5
25680.9
218932
218835
218663
218421
218118
217759
217347
216887
216382
215839
215263
214664
214049
213424
212782
212117
211425
210708
209970
209217
208454
207685
206913
206139
205365
204588
203806
203018
202219
201406
200577
199731
198869
197987
197085
196163
195222
194264
193289
192297
191287
190260
189217
188157
187082
185994
184897
183792
182684
181577
180473
179375
178286
177208
176140
175084
174038
173005
171983
170970
169968
168975
167992
167022
166065
165116
164172
163230
162288
161343
160388
159419
158432
157424
156397
155350
154284
153199
152099
150987
149867
148737
147597
146447
145287
144120
142943
141753
140547
139322
138081
136831
135573
134311
133043
131771