/*--------------------------------*- C++ -*----------------------------------*\
  =========                 |
  \\      /  F ield         | OpenFOAM: The Open Source CFD Toolbox
   \\    /   O peration     | Website:  https://openfoam.org
    \\  /    A nd           | Version:  9
     \\/     M anipulation  |
\*---------------------------------------------------------------------------*/
FoamFile
{
    format      ascii;
    class       volScalarField;
    location    "0.042";
    object      s;
}
// * * * * * * * * * * * * * * * * * * * * * * * * * * * * * * * * * * * * * //

dimensions      [0 0 0 0 0 0 0];

internalField   nonuniform List<scalar> 
12225
(
1
1
1
1
1
1
1
1
1
1
1
1
1
1
1
1
1
1
1
1
1
1
1
1
1
1
1
1
1
1
1
1
1
1
1
1
1
1
1
1
1
1
1
1
1
1
1
1
1
1
1
1
1
1
1
1
1
1
1
1
1
1
1
1
1
1
1
1
1
1
1
1
1
1
1
1
1
1
1
1
1
1
1
1
1
1
1
1
1
1
1
1
1
1
1
1
1
1
1
1
1
1
1
1
1
1
1
1
1
1
1
1
1
1
1
1
1
1
1
1
1
1
1
1
1
1
1
1
1
1
1
1
1
1
1
1
1
1
1
1
1
1
1
1
1
1
1
1
1
1
1
1
1
1
1
1
1
1
1
1
1
1
1
1
1
1
1
1
1
1
1
1
1
1
1
1
1
1
1
1
1
1
1
1
1
1
1
1
1
1
1
1
1
1
1
1
1
1
1
1
1
1
1
1
1
1
1
1
1
1
1
1
1
1
1
1
1
1
1
1
1
1
1
1
1
1
1
1
1
1
1
1
1
1
1
1
1
1
1
1
1
1
1
1
1
1
1
1
1
1
1
1
1
1
1
1
1
1
1
1
1
1
1
1
1
1
1
1
1
1
1
1
1
1
1
1
1
1
1
1
1
1
1
1
1
1
1
1
1
1
1
1
1
1
1
1
1
1
1
1
1
1
1
1
1
1
1
1
1
1
1
1
1
1
1
1
1
1
1
1
1
1
1
1
1
1
1
1
1
1
1
1
1
1
1
1
1
1
1
1
1
1
1
1
1
1
1
1
1
1
1
1
1
1
1
1
1
1
1
1
1
1
1
1
1
1
1
1
1
1
1
1
1
1
1
1
1
1
1
1
1
1
1
1
1
1
1
1
1
1
1
1
1
1
1
1
1
1
1
1
1
1
1
1
1
1
1
1
1
1
1
1
1
1
1
1
1
1
1
1
1
1
1
1
1
1
1
1
1
1
1
1
1
1
1
1
1
1
1
1
1
1
1
1
1
1
1
1
1
1
1
1
1
1
1
1
1
1
1
1
1
1
1
1
1
1
1
1
1
1
1
1
1
1
1
1
1
1
1
1
1
1
1
1
1
1
1
1
1
1
1
1
1
1
1
1
1
1
1
1
1
1
1
1
1
1
1
1
1
1
1
1
1
1
1
1
1
1
1
1
1
1
1
1
1
1
1
1
1
1
1
1
1
1
1
1
1
1
1
1
0.400891
0.457805
0.515208
0.571548
0.598824
0.627354
0.652442
0.675236
0.694273
0.706382
0.710574
0.714831
0.715382
0.714924
0.713769
0.71121
0.707996
0.705135
0.698703
0.694208
0.686864
0.680362
0.674451
0.662815
0.654362
0.63881
0.615226
0.563533
0.443059
0.402607
0.390641
0.389616
0.392909
0.401401
0.413984
0.429072
0.455438
0.528932
0.568052
0.599231
0.615997
0.618251
0.61934
0.618995
0.611517
0.576158
0.48107
0.472532
0.831268
0.901117
0.904363
0.906557
0.908452
0.90929
0.91044
0.911879
0.912341
0.912609
0.913137
0.914299
0.915958
0.916581
0.916753
0.916834
0.916893
0.917007
0.917285
0.917796
0.918528
0.918875
0.91903
0.919216
0.919706
0.920568
0.921139
0.921373
0.921522
0.921599
0.921626
0.921588
0.921244
0.920308
0.918546
0.916197
0.91339
0.909815
0.905777
0.902848
0.901585
0.900777
0.900215
0.900045
0.900198
0.901351
0.902603
0.903263
0.904335
0.906502
0.908724
0.910677
0.912909
0.915255
0.91677
0.919043
0.920948
0.922756
0.924382
0.92561
0.926775
0.927876
0.928909
0.929836
0.930619
0.931216
0.931553
0.931462
0.930776
0.929524
0.927758
0.925453
0.922618
0.919196
0.915168
0.9108
0.906361
0.901953
0.897783
0.894073
0.89083
0.887505
0.883074
0.877447
0.872039
0.867645
0.864214
0.86166
0.859564
0.857925
0.85692
0.856291
0.855756
0.85531
0.854926
0.854341
0.853116
0.849945
0.841041
0.830061
0.81953
0.805565
0.78011
0.733057
0.657479
0.555475
0.439567
0.327277
0.232711
0.16144
0.111546
0.077731
0.0546791
0.0384995
0.0268676
0.0185238
0.0126107
0.00846978
0.00559712
0.00363034
0.00230593
0.00143264
0.000869186
0.000514943
0.0002973
0.000167443
9.15942e-05
4.87586e-05
2.5043e-05
1.23109e-05
6.10252e-06
1.52413e-06
0.38881
0.422258
0.411385
0.456594
0.577617
0.670822
0.727
0.751649
0.76228
0.766637
0.766892
0.766203
0.764714
0.761348
0.758928
0.754625
0.752037
0.746667
0.743582
0.73807
0.734242
0.725932
0.719986
0.708506
0.696074
0.685678
0.6625
0.639042
0.597179
0.49535
0.428056
0.40102
0.386486
0.360988
0.354322
0.368044
0.400341
0.485128
0.592591
0.635986
0.664861
0.673151
0.669381
0.656787
0.600165
0.592435
0.786339
0.865428
0.893475
0.902263
0.903581
0.904206
0.904359
0.903729
0.903251
0.902819
0.901175
0.899021
0.897148
0.89545
0.893751
0.892277
0.890568
0.887931
0.884238
0.880688
0.878588
0.877519
0.877141
0.877401
0.878128
0.878688
0.881232
0.884731
0.886763
0.888285
0.889259
0.889515
0.88917
0.886056
0.880895
0.875766
0.870248
0.868078
0.867019
0.86589
0.864221
0.862259
0.859666
0.855855
0.854276
0.85369
0.854014
0.857516
0.862338
0.86643
0.86896
0.870945
0.872384
0.872976
0.873506
0.874348
0.874684
0.875674
0.876701
0.878187
0.88057
0.884027
0.888504
0.893946
0.900333
0.907647
0.915883
0.924976
0.934725
0.94415
0.951974
0.957909
0.962912
0.966946
0.969844
0.971635
0.972494
0.972483
0.970808
0.96549
0.957377
0.947686
0.938673
0.932492
0.92909
0.927121
0.924098
0.916525
0.902727
0.890212
0.881705
0.877231
0.875414
0.874595
0.873344
0.869985
0.865195
0.861929
0.860524
0.860344
0.860731
0.8635
0.875442
0.889753
0.895174
0.895315
0.89301
0.885403
0.867955
0.823036
0.757116
0.707502
0.682198
0.671093
0.657538
0.62647
0.549963
0.450201
0.352838
0.268657
0.198606
0.142045
0.0981737
0.0656665
0.0424861
0.0266797
0.0162169
0.00959877
0.00548401
0.00305938
0.00163171
0.000845789
0.000421596
0.000170118
0.353789
0.355815
0.432578
0.615727
0.727075
0.766218
0.776975
0.777945
0.777175
0.774902
0.772289
0.767864
0.760913
0.752528
0.744331
0.734117
0.724995
0.716186
0.709852
0.705645
0.703478
0.701107
0.700188
0.698116
0.69312
0.688656
0.679037
0.668876
0.655555
0.630069
0.583609
0.495684
0.434185
0.391843
0.386568
0.394795
0.424766
0.526654
0.630567
0.651274
0.67582
0.686179
0.677115
0.641886
0.639536
0.807813
0.876692
0.890731
0.894449
0.895516
0.889574
0.882417
0.870932
0.857875
0.843008
0.830712
0.812314
0.802294
0.793104
0.785416
0.777396
0.772945
0.770013
0.768804
0.768487
0.769535
0.77206
0.773384
0.776088
0.779778
0.781942
0.784027
0.787177
0.790721
0.793219
0.796633
0.800542
0.804761
0.809613
0.815057
0.820743
0.827647
0.838684
0.853211
0.858535
0.859168
0.857725
0.850514
0.833997
0.817293
0.810502
0.807585
0.807623
0.815893
0.831558
0.847618
0.857257
0.865699
0.872543
0.87592
0.878776
0.880114
0.879822
0.878215
0.875376
0.871207
0.865364
0.858481
0.852596
0.848766
0.846465
0.845212
0.845283
0.8471
0.850996
0.858213
0.870067
0.886209
0.905035
0.925554
0.945647
0.961406
0.971804
0.978795
0.982907
0.98468
0.984926
0.983605
0.976055
0.960843
0.948701
0.941563
0.938215
0.936482
0.934095
0.928472
0.913448
0.898989
0.890397
0.886374
0.884795
0.884134
0.883441
0.881952
0.877295
0.869987
0.866244
0.865552
0.865911
0.867666
0.872973
0.880725
0.892681
0.909242
0.924085
0.931961
0.933903
0.933821
0.933641
0.933405
0.932181
0.92669
0.913949
0.903401
0.889565
0.860168
0.781072
0.620548
0.463533
0.332376
0.230455
0.15566
0.102161
0.0654487
0.0405227
0.0245051
0.0141917
0.00798124
0.00431195
0.0020185
0.31267
0.529117
0.725367
0.77909
0.792328
0.790521
0.785695
0.780251
0.775699
0.765533
0.75477
0.733325
0.710008
0.684626
0.655348
0.633729
0.61097
0.597076
0.585466
0.578561
0.579604
0.584068
0.595364
0.609352
0.629746
0.651261
0.660711
0.660396
0.656856
0.648871
0.635957
0.609871
0.565162
0.506657
0.487337
0.49273
0.518911
0.608742
0.65613
0.657799
0.663441
0.675605
0.669892
0.673133
0.804323
0.870712
0.882895
0.884871
0.875819
0.8559
0.822619
0.798904
0.770112
0.756954
0.748835
0.743776
0.741191
0.740342
0.740188
0.741201
0.743501
0.749488
0.754834
0.759447
0.765673
0.774069
0.78266
0.790027
0.795087
0.799472
0.801374
0.802113
0.802312
0.801918
0.801555
0.801503
0.802697
0.805204
0.810153
0.818408
0.833429
0.856975
0.871198
0.873483
0.87284
0.863964
0.837502
0.793957
0.772838
0.765751
0.760469
0.750232
0.742811
0.741219
0.748559
0.764568
0.789539
0.816724
0.842452
0.859112
0.8774
0.891495
0.902188
0.9117
0.919977
0.926967
0.93256
0.935641
0.933612
0.925729
0.913706
0.898873
0.882351
0.865903
0.851712
0.842215
0.838134
0.837261
0.839457
0.846784
0.859206
0.879937
0.90796
0.937386
0.961335
0.976259
0.984709
0.988405
0.989139
0.988196
0.981268
0.964147
0.952031
0.945808
0.943028
0.940714
0.936024
0.92318
0.907133
0.896336
0.890976
0.889041
0.88853
0.888286
0.887773
0.886192
0.880376
0.871409
0.865118
0.861918
0.861192
0.86149
0.86397
0.874173
0.89531
0.912953
0.927412
0.941347
0.954826
0.9663
0.974138
0.977933
0.978924
0.978894
0.978164
0.975518
0.968036
0.949081
0.898759
0.755314
0.570948
0.413137
0.287337
0.193735
0.126457
0.0805417
0.049568
0.029454
0.0170569
0.00862508
0.595925
0.756113
0.804329
0.804423
0.799371
0.787653
0.775063
0.765469
0.751839
0.727537
0.692631
0.64765
0.604733
0.564686
0.529433
0.504595
0.48474
0.473093
0.465197
0.465497
0.468338
0.476483
0.487255
0.504414
0.529206
0.553256
0.588147
0.621248
0.639801
0.640941
0.637636
0.630312
0.614478
0.589787
0.562674
0.560032
0.577924
0.648585
0.662139
0.652869
0.668492
0.681009
0.700371
0.800677
0.858339
0.870219
0.87133
0.847177
0.797265
0.767689
0.747722
0.737056
0.732259
0.73163
0.734453
0.738449
0.744099
0.751663
0.763628
0.77928
0.801032
0.823937
0.841366
0.856635
0.868437
0.876394
0.879898
0.882195
0.886952
0.892429
0.89845
0.902957
0.905752
0.90854
0.9113
0.911885
0.909114
0.906881
0.906123
0.906264
0.907168
0.905057
0.900998
0.891222
0.866876
0.8223
0.779482
0.768298
0.766792
0.767016
0.76475
0.754403
0.734567
0.726347
0.723451
0.724081
0.730581
0.744429
0.762502
0.77509
0.787307
0.806307
0.828594
0.852813
0.87873
0.905888
0.929372
0.945881
0.957911
0.965855
0.970995
0.974103
0.974816
0.971977
0.963053
0.947206
0.924768
0.899614
0.874813
0.85564
0.847385
0.846686
0.85199
0.868434
0.893805
0.926498
0.956569
0.976061
0.986248
0.989945
0.990231
0.988065
0.976462
0.96111
0.952693
0.948808
0.945422
0.938159
0.922582
0.90798
0.898409
0.893906
0.892616
0.892572
0.892706
0.892571
0.891479
0.886161
0.874144
0.86599
0.861476
0.859736
0.859627
0.860648
0.865992
0.883694
0.906086
0.92556
0.942287
0.956347
0.967952
0.977379
0.984504
0.988892
0.990737
0.991023
0.990724
0.989012
0.982995
0.965075
0.913171
0.763036
0.575214
0.416477
0.289945
0.194955
0.126635
0.0789991
0.0484687
0.0260545
0.812776
0.820023
0.817247
0.80635
0.786873
0.774471
0.763021
0.747814
0.716423
0.669267
0.612235
0.555304
0.506044
0.467775
0.438578
0.422186
0.404295
0.394266
0.383501
0.378461
0.379569
0.384054
0.393341
0.414035
0.434122
0.468278
0.503699
0.539722
0.5867
0.616896
0.627883
0.626698
0.619854
0.610131
0.586874
0.581951
0.634727
0.678218
0.662975
0.662823
0.690445
0.722352
0.803266
0.845146
0.855368
0.851459
0.812155
0.760098
0.737246
0.727549
0.724293
0.725832
0.731283
0.736846
0.749801
0.769548
0.801612
0.830073
0.853608
0.868763
0.876472
0.883356
0.886529
0.887619
0.887714
0.885644
0.879842
0.877344
0.876972
0.883528
0.895427
0.905077
0.914982
0.924034
0.939388
0.947912
0.952201
0.953924
0.954222
0.952381
0.944932
0.932104
0.913702
0.887495
0.844775
0.794501
0.78062
0.779943
0.789757
0.802284
0.804575
0.794772
0.76131
0.730593
0.72001
0.717934
0.720229
0.72936
0.742513
0.753955
0.758815
0.763545
0.769479
0.777645
0.788952
0.805722
0.837863
0.877916
0.914998
0.941857
0.960806
0.973309
0.981206
0.98612
0.988977
0.99047
0.990658
0.988866
0.982507
0.967065
0.939486
0.906702
0.879723
0.868487
0.868925
0.88037
0.907104
0.938371
0.96606
0.982329
0.989036
0.990233
0.988997
0.980367
0.967439
0.961167
0.955791
0.945575
0.930994
0.916477
0.905903
0.900277
0.898285
0.898014
0.898289
0.898481
0.89831
0.897139
0.89207
0.878548
0.868098
0.862872
0.861227
0.861218
0.862459
0.868833
0.889606
0.912968
0.931753
0.947077
0.95997
0.970889
0.979783
0.986602
0.99128
0.99388
0.9948
0.994853
0.994415
0.992254
0.984787
0.962102
0.89348
0.720526
0.541537
0.390852
0.271712
0.179402
0.116095
0.0658202
0.822242
0.824897
0.815157
0.793632
0.782858
0.771845
0.758292
0.731309
0.675281
0.609471
0.539418
0.48052
0.443554
0.420801
0.402581
0.38783
0.370746
0.353047
0.34117
0.326691
0.321531
0.322693
0.327446
0.340634
0.357187
0.389813
0.425547
0.471839
0.52013
0.568196
0.599919
0.614711
0.614553
0.60884
0.585003
0.613102
0.712531
0.687179
0.679231
0.712542
0.762872
0.807262
0.832647
0.840405
0.831092
0.780061
0.73963
0.722803
0.717598
0.717386
0.72442
0.73139
0.748553
0.776546
0.814752
0.838212
0.854836
0.862072
0.865118
0.8657
0.861175
0.84463
0.821631
0.792433
0.757117
0.724398
0.699513
0.68789
0.683445
0.689729
0.712981
0.738732
0.776417
0.811141
0.859287
0.893116
0.925156
0.944701
0.954081
0.956703
0.955948
0.945691
0.924601
0.89243
0.844706
0.801057
0.791417
0.793307
0.807476
0.819684
0.820995
0.808513
0.781049
0.741702
0.719351
0.715056
0.716388
0.723978
0.733713
0.747597
0.753498
0.757126
0.760446
0.764258
0.76888
0.774517
0.785878
0.805889
0.833205
0.869093
0.904562
0.933964
0.956668
0.972955
0.98373
0.99018
0.993748
0.995631
0.996478
0.996608
0.995811
0.992125
0.979846
0.94803
0.916144
0.899732
0.898586
0.908313
0.935672
0.962411
0.980495
0.988117
0.989686
0.989049
0.984848
0.97521
0.963244
0.948768
0.933209
0.919397
0.909855
0.905053
0.903531
0.903402
0.903721
0.903928
0.903857
0.903348
0.90108
0.892168
0.878866
0.87025
0.866294
0.865396
0.865792
0.868918
0.882188
0.907997
0.929717
0.946727
0.959826
0.970018
0.978187
0.984816
0.989979
0.99362
0.995799
0.996746
0.996921
0.996784
0.995879
0.992405
0.981115
0.947225
0.841106
0.653723
0.486556
0.342641
0.237112
0.14415
0.825076
0.826817
0.808777
0.791863
0.783103
0.771084
0.747734
0.70088
0.635095
0.552878
0.488696
0.448272
0.424357
0.409404
0.394775
0.377206
0.357136
0.333324
0.313744
0.295634
0.285847
0.285767
0.288493
0.296602
0.313025
0.341118
0.37751
0.424898
0.477489
0.535009
0.582128
0.603477
0.608663
0.602158
0.584727
0.718716
0.730369
0.715738
0.736237
0.78354
0.806414
0.820529
0.826086
0.81297
0.756745
0.725756
0.713426
0.710119
0.714725
0.720312
0.735534
0.761122
0.807155
0.831967
0.844375
0.85014
0.852426
0.851816
0.836214
0.802448
0.740103
0.6428
0.555584
0.500451
0.448622
0.426677
0.416532
0.413395
0.418478
0.437247
0.458814
0.485686
0.520261
0.558387
0.606537
0.667656
0.739469
0.816607
0.887989
0.926126
0.942659
0.947772
0.943119
0.915796
0.87457
0.826128
0.807419
0.805988
0.813997
0.826406
0.825271
0.811569
0.784372
0.744305
0.717091
0.71061
0.714067
0.721817
0.728901
0.74021
0.749482
0.754459
0.757955
0.760848
0.76362
0.76621
0.770856
0.781166
0.799128
0.821754
0.849164
0.88079
0.911328
0.937918
0.959305
0.975157
0.9859
0.992479
0.996045
0.997748
0.998476
0.998673
0.998487
0.99706
0.990762
0.967707
0.941322
0.930524
0.930919
0.943429
0.966443
0.981814
0.988524
0.990046
0.989712
0.986547
0.974075
0.954117
0.935801
0.92136
0.912423
0.908574
0.907732
0.907874
0.908473
0.908596
0.90848
0.907881
0.905468
0.896322
0.884671
0.877693
0.874685
0.873978
0.874112
0.875787
0.884292
0.908779
0.932704
0.950923
0.964169
0.973694
0.980743
0.986188
0.990463
0.993715
0.996009
0.997415
0.998067
0.998218
0.998164
0.99772
0.995905
0.989801
0.970833
0.913502
0.756712
0.565303
0.414732
0.269371
0.827458
0.828937
0.807298
0.794453
0.786725
0.769879
0.735555
0.679596
0.60158
0.523941
0.469396
0.439043
0.420795
0.40856
0.394399
0.374821
0.352053
0.321512
0.290708
0.268844
0.259958
0.259924
0.262281
0.269436
0.282316
0.301779
0.338343
0.390931
0.452049
0.518741
0.570263
0.597823
0.599049
0.595613
0.647237
0.76566
0.756624
0.758632
0.78677
0.801622
0.808116
0.811672
0.793322
0.740533
0.714687
0.705646
0.703678
0.710804
0.719654
0.736723
0.775211
0.814951
0.833325
0.840472
0.842703
0.842075
0.826635
0.788787
0.708156
0.574451
0.470788
0.399238
0.358037
0.328404
0.314918
0.3095
0.308657
0.317445
0.332804
0.35328
0.379486
0.407828
0.439446
0.47055
0.501418
0.530496
0.559307
0.594768
0.646959
0.732293
0.82084
0.887933
0.920463
0.928958
0.92334
0.890241
0.859342
0.842438
0.839116
0.833224
0.822641
0.79922
0.761924
0.722182
0.7081
0.708561
0.713284
0.721399
0.728207
0.737612
0.746725
0.753184
0.7573
0.760134
0.76244
0.764148
0.766036
0.769355
0.776541
0.792205
0.816313
0.8465
0.877079
0.905932
0.93133
0.952621
0.969477
0.981849
0.99011
0.995055
0.997672
0.998863
0.999313
0.999404
0.999251
0.998086
0.992281
0.973642
0.959782
0.956605
0.959677
0.973795
0.985116
0.989549
0.990288
0.989583
0.984812
0.966958
0.94386
0.927195
0.917657
0.913901
0.913285
0.913637
0.914453
0.914553
0.914268
0.912867
0.907453
0.896458
0.888231
0.883749
0.882094
0.881854
0.882119
0.883899
0.89166
0.915331
0.940155
0.959055
0.97243
0.981183
0.986634
0.990147
0.992719
0.994827
0.996537
0.997786
0.998562
0.998926
0.999013
0.998983
0.998731
0.997677
0.994059
0.982489
0.947406
0.831602
0.646533
0.445195
0.830408
0.831691
0.807825
0.798119
0.787073
0.765056
0.723067
0.662543
0.584794
0.510823
0.46399
0.438706
0.428864
0.422146
0.410319
0.389821
0.357164
0.318852
0.282984
0.259533
0.251571
0.251419
0.253762
0.261257
0.274729
0.298329
0.338949
0.393563
0.456131
0.522754
0.572239
0.593439
0.597381
0.615195
0.749877
0.783776
0.779369
0.786755
0.797821
0.800551
0.799017
0.780128
0.73016
0.70792
0.699787
0.698021
0.705626
0.720254
0.742577
0.775522
0.80818
0.827138
0.834258
0.836562
0.830329
0.804963
0.739106
0.603891
0.471537
0.38889
0.331648
0.291913
0.272984
0.262075
0.257912
0.257217
0.265034
0.280157
0.298228
0.323513
0.35202
0.384567
0.419851
0.45429
0.486051
0.513405
0.534869
0.552324
0.56859
0.58446
0.607503
0.648741
0.725261
0.798909
0.850077
0.877833
0.880367
0.870024
0.843507
0.818171
0.784059
0.740451
0.708194
0.702493
0.705245
0.708504
0.714123
0.724872
0.734536
0.741604
0.749047
0.755115
0.759477
0.762183
0.763838
0.76485
0.765808
0.767216
0.769425
0.773233
0.781074
0.798329
0.832806
0.874008
0.908514
0.934519
0.954531
0.969873
0.981346
0.989378
0.994493
0.997407
0.998871
0.99949
0.999679
0.999681
0.999425
0.997827
0.990105
0.979144
0.975156
0.975554
0.981697
0.988629
0.99079
0.990814
0.989113
0.980737
0.959129
0.93995
0.928044
0.92299
0.922029
0.922337
0.923323
0.923458
0.922854
0.919616
0.909156
0.897985
0.89081
0.887309
0.88625
0.886232
0.886962
0.890683
0.904726
0.928359
0.94899
0.965456
0.977518
0.985598
0.990577
0.993497
0.995277
0.996524
0.997519
0.998321
0.998912
0.999276
0.999441
0.999475
0.999452
0.999285
0.998598
0.996202
0.988333
0.962756
0.886664
0.670569
0.833254
0.835767
0.812311
0.798392
0.784674
0.756515
0.713305
0.652883
0.578466
0.507702
0.470476
0.457186
0.446264
0.436755
0.42623
0.41167
0.388655
0.34927
0.305404
0.270655
0.255943
0.253815
0.256215
0.264314
0.27884
0.305273
0.349153
0.405796
0.469651
0.533296
0.576872
0.593842
0.604388
0.682749
0.788679
0.796617
0.794461
0.796331
0.796347
0.790452
0.763766
0.719543
0.699132
0.692239
0.69098
0.697609
0.713923
0.738766
0.767701
0.796712
0.816773
0.825877
0.828883
0.821888
0.791157
0.705542
0.568611
0.451583
0.35486
0.301504
0.265121
0.244888
0.235478
0.231568
0.230741
0.23572
0.250102
0.267106
0.289162
0.316394
0.347584
0.382472
0.420293
0.458297
0.494102
0.525807
0.551338
0.566308
0.575753
0.58195
0.587026
0.591046
0.59854
0.610226
0.629933
0.659014
0.68438
0.700138
0.698667
0.693561
0.685851
0.68514
0.690892
0.698797
0.705766
0.712885
0.722658
0.734974
0.74851
0.757927
0.764101
0.767539
0.769859
0.77109
0.771374
0.771191
0.770525
0.770102
0.770381
0.77209
0.776137
0.783241
0.796733
0.827107
0.86953
0.910073
0.940674
0.960946
0.974415
0.983893
0.990528
0.994898
0.997515
0.998914
0.999559
0.999789
0.999826
0.999757
0.999199
0.996092
0.989145
0.986008
0.985869
0.988309
0.991518
0.992121
0.991592
0.988164
0.975833
0.958245
0.944707
0.937457
0.93539
0.935404
0.93614
0.936373
0.935591
0.93073
0.916085
0.903281
0.89549
0.89176
0.890692
0.890709
0.891684
0.896521
0.913387
0.935642
0.954296
0.969076
0.980002
0.987497
0.99226
0.995082
0.996697
0.997665
0.998329
0.998836
0.999226
0.999499
0.999657
0.99972
0.999728
0.999707
0.999579
0.999064
0.997229
0.990892
0.969809
0.885929
0.836063
0.839485
0.813614
0.79829
0.781712
0.749892
0.706168
0.648021
0.579931
0.521817
0.490284
0.472111
0.459935
0.4478
0.434842
0.421003
0.407026
0.387758
0.353616
0.31023
0.280382
0.26926
0.267779
0.276262
0.293329
0.324829
0.374914
0.432898
0.488871
0.547503
0.581792
0.597014
0.629792
0.760005
0.804812
0.80611
0.79991
0.796264
0.789278
0.763641
0.709514
0.687422
0.680192
0.679101
0.683504
0.697008
0.715729
0.741791
0.773043
0.801614
0.814822
0.819254
0.814567
0.787459
0.709419
0.582757
0.452736
0.353627
0.289684
0.252616
0.232852
0.223845
0.220235
0.219393
0.221731
0.232398
0.248444
0.270173
0.301664
0.342112
0.387526
0.432944
0.479376
0.525354
0.566666
0.600299
0.629694
0.645032
0.650909
0.648608
0.643629
0.634202
0.622817
0.615786
0.613593
0.614485
0.619341
0.62839
0.638891
0.649587
0.662437
0.676652
0.690652
0.704581
0.717724
0.72984
0.743067
0.754137
0.76309
0.77139
0.774854
0.776599
0.77758
0.778137
0.778449
0.778795
0.778889
0.778417
0.778401
0.778979
0.781437
0.786624
0.795582
0.816954
0.852514
0.889139
0.922315
0.949336
0.968382
0.980364
0.987853
0.992749
0.995965
0.997973
0.999097
0.99964
0.99985
0.999894
0.999868
0.999599
0.997992
0.993764
0.991735
0.991602
0.992712
0.993702
0.99359
0.992014
0.985722
0.974855
0.964445
0.95689
0.953457
0.952909
0.953138
0.953324
0.952782
0.949023
0.934226
0.9167
0.906196
0.901253
0.899778
0.899727
0.900466
0.904244
0.918344
0.939636
0.957341
0.971182
0.981368
0.98841
0.992978
0.995762
0.997375
0.998298
0.998856
0.999226
0.999489
0.999673
0.999789
0.999847
0.999865
0.999864
0.999841
0.999724
0.999264
0.997563
0.99145
0.963184
0.839016
0.841613
0.815052
0.799136
0.780141
0.746507
0.703278
0.646506
0.581229
0.533834
0.515329
0.506306
0.495272
0.4791
0.459536
0.438518
0.41973
0.406893
0.39383
0.374171
0.343836
0.318633
0.308673
0.312777
0.334684
0.372042
0.416514
0.464361
0.511908
0.563158
0.588604
0.607082
0.687374
0.795793
0.81416
0.810424
0.798931
0.790175
0.769134
0.726045
0.690031
0.675635
0.671424
0.671297
0.677919
0.694468
0.714768
0.740451
0.772446
0.798514
0.806577
0.803481
0.77798
0.712344
0.607552
0.486514
0.375258
0.310905
0.273136
0.24624
0.231234
0.223359
0.221092
0.221999
0.232295
0.252461
0.282886
0.32309
0.374929
0.435936
0.499376
0.556853
0.606285
0.647592
0.682803
0.706914
0.727364
0.737756
0.740692
0.738784
0.734018
0.72665
0.715848
0.702923
0.689091
0.67501
0.66408
0.659344
0.659934
0.665464
0.679566
0.698483
0.718535
0.736988
0.750794
0.761429
0.769365
0.774516
0.777663
0.778702
0.779353
0.780101
0.780795
0.781371
0.781764
0.782312
0.783537
0.785078
0.786883
0.790239
0.798508
0.810315
0.819347
0.83273
0.858418
0.88861
0.918264
0.943733
0.963207
0.976955
0.985998
0.991628
0.995094
0.997247
0.998585
0.999357
0.999743
0.999897
0.999931
0.999913
0.999721
0.998556
0.995903
0.994786
0.994757
0.995301
0.995471
0.995054
0.992578
0.985724
0.978688
0.973408
0.970771
0.970232
0.970324
0.970369
0.969766
0.966156
0.953718
0.939418
0.929261
0.923656
0.921621
0.921351
0.921562
0.922846
0.928094
0.943387
0.959953
0.973086
0.982764
0.989401
0.993675
0.996282
0.997807
0.998678
0.999182
0.999485
0.999678
0.999801
0.999877
0.999919
0.999935
0.999937
0.999933
0.999905
0.999777
0.999273
0.997343
0.987702
0.840909
0.842854
0.819972
0.800296
0.779237
0.744855
0.704092
0.651532
0.597831
0.558847
0.543033
0.53568
0.531899
0.522983
0.50386
0.476235
0.445239
0.423144
0.412841
0.405596
0.395831
0.38393
0.377613
0.37814
0.393936
0.41959
0.451158
0.489461
0.53116
0.573695
0.594911
0.628461
0.741089
0.813701
0.821289
0.812854
0.794115
0.766591
0.716599
0.681022
0.668585
0.664501
0.66312
0.664344
0.671241
0.688014
0.710249
0.734993
0.766428
0.787652
0.791776
0.784129
0.747167
0.655762
0.5466
0.436311
0.364397
0.312269
0.278024
0.253224
0.240144
0.233527
0.235761
0.246472
0.268133
0.304787
0.357184
0.422475
0.494884
0.56858
0.633792
0.686538
0.727261
0.752217
0.766941
0.775317
0.779263
0.779846
0.778984
0.777453
0.774621
0.77049
0.765594
0.759627
0.753333
0.747913
0.743217
0.739231
0.739725
0.742217
0.747966
0.760207
0.769889
0.775711
0.778982
0.780788
0.782149
0.783192
0.78359
0.783553
0.783604
0.784144
0.785836
0.787766
0.789085
0.789915
0.790951
0.79248
0.794919
0.799177
0.808591
0.833038
0.86349
0.891308
0.909909
0.920627
0.93199
0.947395
0.963015
0.975938
0.985081
0.991007
0.994699
0.996944
0.998301
0.999123
0.999599
0.99984
0.999935
0.999952
0.999931
0.999737
0.998657
0.99707
0.996557
0.996609
0.996935
0.996934
0.996459
0.994133
0.98894
0.985024
0.98297
0.98236
0.982328
0.982301
0.98187
0.979478
0.97096
0.961524
0.955148
0.951114
0.94877
0.947764
0.947606
0.947742
0.948646
0.952765
0.964818
0.976864
0.985598
0.991412
0.995013
0.997134
0.998349
0.99904
0.999436
0.999668
0.999805
0.999887
0.999934
0.999959
0.99997
0.999973
0.999972
0.999964
0.999924
0.999757
0.999081
0.995585
0.842487
0.846099
0.824602
0.802593
0.779579
0.745962
0.703354
0.653106
0.607964
0.582646
0.572256
0.567223
0.564367
0.561746
0.553556
0.533781
0.499735
0.457978
0.432584
0.421309
0.417237
0.415919
0.418117
0.422119
0.432733
0.450743
0.475295
0.50774
0.545024
0.581737
0.601276
0.651514
0.776691
0.824461
0.827357
0.815475
0.793823
0.760171
0.700064
0.650544
0.636128
0.634624
0.638671
0.645362
0.654898
0.671034
0.694224
0.718403
0.745781
0.759806
0.7598
0.742778
0.688465
0.612113
0.521969
0.439072
0.373841
0.325744
0.296097
0.276233
0.266766
0.269261
0.279
0.299232
0.336349
0.394751
0.474037
0.562372
0.650568
0.723732
0.773059
0.802533
0.816287
0.819907
0.81787
0.813431
0.807114
0.802184
0.798757
0.796221
0.793158
0.791184
0.78922
0.785444
0.780549
0.776901
0.776009
0.776771
0.779222
0.781475
0.785207
0.788261
0.790386
0.79032
0.789878
0.789121
0.788595
0.788456
0.788403
0.78855
0.78911
0.790656
0.794138
0.798457
0.801766
0.804182
0.807163
0.810157
0.814516
0.819455
0.826784
0.844634
0.894537
0.93787
0.962772
0.974071
0.975736
0.973989
0.973883
0.978645
0.985571
0.990927
0.994563
0.996839
0.998208
0.999017
0.999497
0.999772
0.99991
0.99996
0.999964
0.99993
0.999683
0.998665
0.997848
0.997681
0.997808
0.998082
0.99807
0.997731
0.996184
0.993177
0.991162
0.99024
0.989975
0.989831
0.989478
0.988151
0.983334
0.978159
0.975164
0.973135
0.971221
0.969493
0.968437
0.968169
0.968299
0.969399
0.974267
0.983117
0.989758
0.994086
0.996671
0.998133
0.998942
0.999394
0.999653
0.999804
0.999891
0.999941
0.999968
0.999981
0.999987
0.999989
0.999989
0.999986
0.999972
0.999909
0.999644
0.998262
0.845812
0.852268
0.832787
0.809225
0.788261
0.756665
0.718273
0.678046
0.643191
0.617049
0.603807
0.596337
0.590321
0.584189
0.579544
0.572063
0.55654
0.528426
0.482412
0.447504
0.433676
0.430107
0.431111
0.440439
0.451154
0.466258
0.488829
0.519381
0.555273
0.588214
0.61257
0.682227
0.799943
0.833126
0.834283
0.821097
0.796123
0.761875
0.702132
0.64597
0.622312
0.612173
0.608319
0.607831
0.610351
0.617562
0.631903
0.650933
0.665111
0.668111
0.661614
0.640141
0.604066
0.558317
0.506376
0.453879
0.406335
0.369014
0.346618
0.328922
0.329173
0.334901
0.349309
0.380662
0.440772
0.533391
0.637075
0.725376
0.79153
0.83405
0.858041
0.865245
0.864911
0.862929
0.858951
0.851858
0.842328
0.831375
0.821759
0.814205
0.809017
0.80538
0.803125
0.802127
0.801361
0.800688
0.800706
0.800916
0.80048
0.800236
0.800933
0.801288
0.801123
0.800608
0.799188
0.797805
0.796796
0.796269
0.796312
0.796734
0.798054
0.801107
0.805194
0.811233
0.816754
0.820962
0.826411
0.831409
0.841335
0.855227
0.871917
0.897044
0.930481
0.960897
0.980564
0.989971
0.993523
0.994063
0.993483
0.991348
0.990721
0.992308
0.995133
0.997024
0.998242
0.998999
0.999457
0.999727
0.99988
0.999952
0.999973
0.999969
0.99991
0.999544
0.998782
0.998464
0.998451
0.998653
0.998888
0.99889
0.998688
0.997739
0.996139
0.995191
0.994811
0.994657
0.994414
0.993724
0.991288
0.988594
0.987338
0.986863
0.986226
0.984748
0.983258
0.982492
0.982385
0.982659
0.984319
0.98925
0.993632
0.996421
0.998042
0.998927
0.999401
0.999661
0.999809
0.999895
0.999944
0.999971
0.999985
0.999992
0.999995
0.999996
0.999996
0.999995
0.999989
0.999961
0.999844
0.999238
0.847551
0.857099
0.840293
0.818631
0.797073
0.76747
0.740146
0.718727
0.699423
0.683009
0.669104
0.654631
0.636982
0.617293
0.600536
0.590846
0.581258
0.568363
0.546682
0.509477
0.466217
0.447068
0.442371
0.445135
0.456593
0.471565
0.493616
0.524024
0.559843
0.593476
0.619551
0.693854
0.810422
0.841064
0.841765
0.831181
0.804241
0.768647
0.712295
0.651231
0.622831
0.609379
0.601326
0.595279
0.590391
0.586763
0.585616
0.586911
0.587819
0.584872
0.577839
0.565483
0.547316
0.525363
0.502426
0.471603
0.441785
0.41487
0.39619
0.391997
0.395205
0.408401
0.445346
0.518358
0.617734
0.70133
0.760634
0.812047
0.853017
0.882603
0.902838
0.917245
0.926971
0.932088
0.933334
0.930896
0.920723
0.903321
0.881602
0.860718
0.843928
0.830719
0.82159
0.816033
0.812847
0.811436
0.811349
0.812561
0.813786
0.813905
0.813805
0.81347
0.812693
0.811321
0.809642
0.807986
0.806596
0.805748
0.805796
0.806473
0.809248
0.814553
0.819502
0.826529
0.834624
0.843131
0.852155
0.85931
0.872368
0.894631
0.935398
0.96415
0.979412
0.988112
0.993406
0.996373
0.99792
0.99849
0.998532
0.998396
0.997767
0.997081
0.997019
0.997717
0.99858
0.999128
0.999485
0.999716
0.99986
0.99994
0.999973
0.999978
0.999964
0.999849
0.999387
0.999021
0.998942
0.998995
0.999252
0.999391
0.999385
0.999216
0.998507
0.997781
0.997461
0.997346
0.997218
0.99689
0.995753
0.994499
0.993985
0.993858
0.993725
0.993314
0.992159
0.991287
0.991034
0.991095
0.991707
0.994039
0.996559
0.998119
0.998996
0.999459
0.999701
0.999832
0.999906
0.999949
0.999973
0.999987
0.999994
0.999997
0.999998
0.999998
0.999998
0.999998
0.999995
0.999981
0.999922
0.999625
0.848598
0.862302
0.8518
0.833101
0.81573
0.797164
0.785844
0.786623
0.798213
0.811315
0.816596
0.801167
0.761912
0.712952
0.662901
0.625338
0.599427
0.586877
0.573892
0.554578
0.523507
0.482884
0.459228
0.453701
0.459088
0.47318
0.494595
0.52468
0.560681
0.595038
0.619271
0.69167
0.809969
0.846291
0.848002
0.841634
0.822301
0.786257
0.738317
0.677011
0.635031
0.615425
0.604603
0.596649
0.590037
0.583888
0.578246
0.573216
0.568206
0.562053
0.554627
0.545505
0.534257
0.521149
0.504295
0.485233
0.466647
0.454029
0.45323
0.461305
0.490661
0.534448
0.59777
0.670694
0.722176
0.764374
0.804122
0.847126
0.880237
0.899753
0.916421
0.932734
0.947784
0.961068
0.971563
0.97803
0.980094
0.97933
0.973486
0.957868
0.933653
0.905117
0.877835
0.85883
0.84609
0.837835
0.832329
0.828697
0.826408
0.824647
0.823304
0.821846
0.819605
0.817269
0.815011
0.812921
0.812301
0.812543
0.813515
0.816113
0.823516
0.831611
0.838149
0.845463
0.856573
0.872489