/*--------------------------------*- C++ -*----------------------------------*\
  =========                 |
  \\      /  F ield         | OpenFOAM: The Open Source CFD Toolbox
   \\    /   O peration     | Website:  https://openfoam.org
    \\  /    A nd           | Version:  9
     \\/     M anipulation  |
\*---------------------------------------------------------------------------*/
FoamFile
{
    format      ascii;
    class       volScalarField;
    location    "0.042";
    object      s_0;
}
// * * * * * * * * * * * * * * * * * * * * * * * * * * * * * * * * * * * * * //

dimensions      [0 0 0 0 0 0 0];

internalField   nonuniform List<scalar> 
12225
(
1
1
1
1
1
1
1
1
1
1
1
1
1
1
1
1
1
1
1
1
1
1
1
1
1
1
1
1
1
1
1
1
1
1
1
1
1
1
1
1
1
1
1
1
1
1
1
1
1
1
1
1
1
1
1
1
1
1
1
1
1
1
1
1
1
1
1
1
1
1
1
1
1
1
1
1
1
1
1
1
1
1
1
1
1
1
1
1
1
1
1
1
1
1
1
1
1
1
1
1
1
1
1
1
1
1
1
1
1
1
1
1
1
1
1
1
1
1
1
1
1
1
1
1
1
1
1
1
1
1
1
1
1
1
1
1
1
1
1
1
1
1
1
1
1
1
1
1
1
1
1
1
1
1
1
1
1
1
1
1
1
1
1
1
1
1
1
1
1
1
1
1
1
1
1
1
1
1
1
1
1
1
1
1
1
1
1
1
1
1
1
1
1
1
1
1
1
1
1
1
1
1
1
1
1
1
1
1
1
1
1
1
1
1
1
1
1
1
1
1
1
1
1
1
1
1
1
1
1
1
1
1
1
1
1
1
1
1
1
1
1
1
1
1
1
1
1
1
1
1
1
1
1
1
1
1
1
1
1
1
1
1
1
1
1
1
1
1
1
1
1
1
1
1
1
1
1
1
1
1
1
1
1
1
1
1
1
1
1
1
1
1
1
1
1
1
1
1
1
1
1
1
1
1
1
1
1
1
1
1
1
1
1
1
1
1
1
1
1
1
1
1
1
1
1
1
1
1
1
1
1
1
1
1
1
1
1
1
1
1
1
1
1
1
1
1
1
1
1
1
1
1
1
1
1
1
1
1
1
1
1
1
1
1
1
1
1
1
1
1
1
1
1
1
1
1
1
1
1
1
1
1
1
1
1
1
1
1
1
1
1
1
1
1
1
1
1
1
1
1
1
1
1
1
1
1
1
1
1
1
1
1
1
1
1
1
1
1
1
1
1
1
1
1
1
1
1
1
1
1
1
1
1
1
1
1
1
1
1
1
1
1
1
1
1
1
1
1
1
1
1
1
1
1
1
1
1
1
1
1
1
1
1
1
1
1
1
1
1
1
1
1
1
1
1
1
1
1
1
1
1
1
1
1
1
1
1
1
1
1
1
1
1
1
1
1
1
1
1
1
1
1
1
1
1
1
1
1
1
1
1
1
1
1
1
1
1
1
1
1
1
1
1
1
1
1
1
1
1
1
1
1
1
1
1
1
1
1
1
1
0.40059
0.457049
0.514124
0.570686
0.59844
0.62684
0.651966
0.674799
0.69392
0.705969
0.710147
0.714411
0.714929
0.714461
0.713289
0.710686
0.707522
0.704583
0.698061
0.693559
0.686141
0.679737
0.673662
0.661995
0.653553
0.637765
0.613973
0.56182
0.441722
0.402461
0.390642
0.389577
0.392766
0.401127
0.413591
0.428784
0.45521
0.529254
0.568238
0.599561
0.616096
0.618315
0.619354
0.618969
0.611201
0.575145
0.480169
0.472376
0.833246
0.901055
0.904268
0.906443
0.908373
0.909216
0.910302
0.911809
0.912305
0.91257
0.913049
0.914127
0.915797
0.916547
0.91674
0.916827
0.916886
0.916987
0.91724
0.917727
0.918468
0.918876
0.919047
0.919222
0.919674
0.920515
0.921141
0.921388
0.921542
0.921623
0.921653
0.921625
0.921315
0.920437
0.918746
0.916448
0.913702
0.910193
0.906158
0.903057
0.901726
0.900924
0.900353
0.900176
0.900303
0.901414
0.902673
0.903327
0.904386
0.906551
0.908799
0.910755
0.912984
0.915348
0.916873
0.919149
0.921062
0.922858
0.924461
0.925672
0.926834
0.927931
0.928956
0.929874
0.930646
0.931228
0.931543
0.931422
0.930698
0.929423
0.927631
0.925302
0.922441
0.918994
0.914945
0.910575
0.906141
0.90175
0.897609
0.893922
0.890691
0.887348
0.882875
0.877234
0.871858
0.867501
0.864107
0.861579
0.859501
0.857881
0.856893
0.856272
0.855739
0.855296
0.854912
0.854316
0.853066
0.849811
0.84076
0.829794
0.819227
0.805086
0.779252
0.731647
0.655496
0.553115
0.437176
0.325182
0.231085
0.160281
0.110754
0.0771875
0.0542938
0.038216
0.0266577
0.0183706
0.0125007
0.00839178
0.00554258
0.00359292
0.00228084
0.00141623
0.000858741
0.000508471
0.000293405
0.000165161
9.02996e-05
4.80448e-05
2.46637e-05
1.21185e-05
6.00344e-06
1.49935e-06
0.388574
0.421782
0.410825
0.456414
0.57765
0.670685
0.726865
0.75148
0.762129
0.766479
0.766715
0.766012
0.764498
0.761059
0.758609
0.754285
0.751614
0.74618
0.743068
0.737579
0.733721
0.725308
0.719333
0.707663
0.695389
0.684876
0.661344
0.637895
0.595727
0.493596
0.427395
0.400775
0.386124
0.360536
0.354231
0.368199
0.400773
0.486642
0.593945
0.636975
0.665505
0.673405
0.669559
0.656671
0.599236
0.592264
0.78674
0.865546
0.893584
0.902148
0.903463
0.904091
0.904252
0.903622
0.903114
0.902725
0.901178
0.899034
0.897134
0.895425
0.893712
0.892255
0.890647
0.888178
0.8846
0.881008
0.87881
0.877723
0.877341
0.877634
0.878423
0.87894
0.881337
0.884878
0.887035
0.888557
0.889586
0.889863
0.889586
0.886627
0.881476
0.876333
0.870572
0.868156
0.867041
0.865946
0.864349
0.86247
0.860058
0.856301
0.854674
0.854082
0.854331
0.857661
0.86239
0.866467
0.868972
0.870912
0.872344
0.872929
0.873441
0.87431
0.874648
0.875643
0.876696
0.878237
0.880702
0.884244
0.888789
0.894293
0.900741
0.908115
0.916406
0.925547
0.935323
0.944656
0.95235
0.958199
0.963151
0.967123
0.969958
0.971696
0.972512
0.972452
0.970638
0.965144
0.956951
0.947246
0.93833
0.932279
0.92897
0.927013
0.923911
0.916073
0.90222
0.889824
0.881481
0.877136
0.875385
0.874575
0.873291
0.869838
0.865066
0.861858
0.860508
0.860351
0.860768
0.863686
0.875975
0.890088
0.89531
0.895396
0.893004
0.88525
0.867493
0.821744
0.755949
0.706912
0.682113
0.671128
0.657308
0.625439
0.547725
0.44786
0.350702
0.26685
0.19711
0.140858
0.0972749
0.0650155
0.0420348
0.0263786
0.0160238
0.00947883
0.00541245
0.0030178
0.00160867
0.000833413
0.000415193
0.000167455
0.353448
0.355496
0.432579
0.616015
0.72704
0.766058
0.776782
0.777834
0.777069
0.77479
0.772183
0.767693
0.760657
0.752267
0.743993
0.733642
0.724478
0.715633
0.709337
0.70514
0.702901
0.700506
0.699573
0.697451
0.692479
0.687996
0.678221
0.668141
0.654636
0.62912
0.582136
0.494181
0.433268
0.391423
0.38659
0.395071
0.425682
0.529851
0.632131
0.651998
0.676457
0.686374
0.676958
0.641421
0.639289
0.808133
0.876745
0.890689
0.894316
0.895332
0.88935
0.88219
0.870649
0.857468
0.842557
0.830648
0.812344
0.802016
0.792879
0.785332
0.777318
0.772789
0.769785
0.768552
0.76822
0.76921
0.771804
0.773127
0.775666
0.779367
0.781634
0.783674
0.786745
0.790344
0.792877
0.796241
0.800128
0.804322
0.809125
0.814538
0.82017
0.826864
0.837453
0.852122
0.858366
0.859207
0.858055
0.851565
0.835981
0.818963
0.811926
0.808892
0.808833
0.816693
0.83203
0.847852
0.857484
0.865784
0.872564
0.87592
0.878717
0.879972
0.879585
0.877891
0.874958
0.870681
0.864723
0.857848
0.852061
0.848392
0.846146
0.844971
0.84513
0.847078
0.851103
0.858617
0.870764
0.887113
0.906068
0.926645
0.946598
0.962046
0.972229
0.979067
0.983051
0.984732
0.984931
0.98347
0.97546
0.960241
0.948284
0.941341
0.938104
0.936392
0.933947
0.928109
0.91281
0.898564
0.890177
0.886282
0.884763
0.884118
0.883413
0.881882
0.877062
0.869808
0.866179
0.865544
0.865926
0.867749
0.873185
0.881015
0.893119
0.909726
0.924449
0.932159
0.934017
0.933925
0.933749
0.933498
0.932222
0.926513
0.913748
0.903225
0.889167
0.859137
0.777771
0.616515
0.459929
0.329502
0.228305
0.154119
0.101092
0.0647271
0.0400534
0.0242076
0.0140115
0.00787549
0.00425218
0.00198949
0.312352
0.529567
0.725325
0.778935
0.792154
0.79034
0.78551
0.78017
0.775631
0.765434
0.75461
0.73298
0.709616
0.68397
0.654701
0.633077
0.610325
0.596537
0.58485
0.57804
0.579107
0.583609
0.595007
0.608932
0.629554
0.650966
0.660191
0.659842
0.656263
0.648214
0.635159
0.608954
0.563927
0.505879
0.487244
0.492913
0.51985
0.611187
0.656972
0.657843
0.663565
0.675503
0.669654
0.673128
0.804604
0.870638
0.882758
0.884719
0.875459
0.85539
0.822008
0.798578
0.769624
0.756335
0.748306
0.743331
0.740766
0.739924
0.739775
0.740765
0.742858
0.748707
0.754178
0.758781
0.764796
0.773056
0.781643
0.789022
0.794044
0.798484
0.800426
0.801188
0.801368
0.801059
0.800745
0.800715
0.801961
0.804461
0.809301
0.817268
0.831783
0.854976
0.87085
0.873623
0.87325
0.865432
0.840448
0.797366
0.773904
0.766287
0.761035
0.750982
0.743411
0.741756
0.749058
0.76526
0.790127
0.817254
0.843009
0.859721
0.877927
0.891855
0.902539
0.911996
0.920192
0.927076
0.932574
0.935389
0.933016
0.92475
0.912529
0.897512
0.88094
0.864554
0.85062
0.841509
0.837699
0.837003
0.839466
0.847088
0.859882
0.881112
0.909382
0.93874
0.96225
0.976804
0.984989
0.988512
0.989158
0.988105
0.980684
0.963493
0.951652
0.945618
0.942917
0.94057
0.935742
0.92256
0.906634
0.896044
0.890849
0.889002
0.888521
0.888279
0.887753
0.886111
0.880088
0.87116
0.864955
0.861848
0.861172
0.861499
0.864094
0.874706
0.895867
0.913412
0.927828
0.941757
0.955201
0.966592
0.974319
0.978018
0.978961
0.978919
0.978159
0.975438
0.96777
0.948374
0.896689
0.750625
0.56669
0.409665
0.284696
0.191829
0.125144
0.0796652
0.0490015
0.029101
0.0168412
0.00851097
0.596392
0.75604
0.804172
0.804264
0.799207
0.787454
0.77496
0.765428
0.751755
0.727232
0.692078
0.646946
0.6041
0.564069
0.529112
0.504366
0.484621
0.473015
0.465245
0.465571
0.468446
0.476645
0.487298
0.504683
0.529359
0.553322
0.588369
0.621284
0.63949
0.640453
0.637135
0.629758
0.613694
0.589004
0.562184
0.559893
0.578902
0.650621
0.66238
0.65268
0.668618
0.680964
0.700466
0.801206
0.858259
0.870017
0.871055
0.846682
0.796401
0.766893
0.747202
0.736603
0.7318
0.731153
0.733953
0.737916
0.743558
0.751112
0.763037
0.778525
0.799898
0.822838
0.840461
0.855795
0.867644
0.875959
0.879566
0.88182
0.886423
0.891843
0.897899
0.902525
0.905266
0.907863
0.910561
0.911178
0.908459
0.906165
0.905396
0.90571
0.907064
0.905278
0.901546
0.892479
0.869369
0.826093
0.781074
0.768592
0.766693
0.766779
0.764563
0.754561
0.734917
0.726564
0.72362
0.724194
0.730629
0.744446
0.762638
0.775383
0.787795
0.80714
0.8296
0.853981
0.879997
0.907094
0.930153
0.946488
0.958323
0.966109
0.971128
0.974136
0.974652
0.971469
0.962057
0.945683
0.922956
0.897734
0.873128
0.854524
0.846909
0.846482
0.85232
0.869295
0.895155
0.928016
0.957742
0.976725
0.986556
0.990034
0.990238
0.98787
0.975753
0.960622
0.952438
0.948654
0.945219
0.93771
0.922002
0.907533
0.898156
0.893806
0.892597
0.892577
0.892718
0.892571
0.891422
0.88584
0.873825
0.865791
0.861372
0.859704
0.859623
0.860709
0.86629
0.884395
0.906701
0.926084
0.942729
0.956712
0.96825
0.977616
0.984669
0.988983
0.990771
0.991035
0.990718
0.988945
0.982755
0.964373
0.911038
0.75831
0.571039
0.413098
0.287368
0.193089
0.125345
0.0781508
0.0479142
0.0257396
0.812566
0.819882
0.817101
0.806198
0.786608
0.774156
0.762698
0.747368
0.71582
0.668485
0.611435
0.554732
0.505763
0.467539
0.438378
0.421994
0.404035
0.394095
0.383274
0.378401
0.379563
0.384133
0.393515
0.414384
0.434455
0.468911
0.504082
0.540335
0.587106
0.61691
0.627559
0.626287
0.619287
0.609538
0.586202
0.581859
0.637138
0.678824
0.662796
0.662949
0.690977
0.723423
0.803625
0.845053
0.855155
0.850914
0.811262
0.75937
0.736609
0.726976
0.723769
0.72534
0.730803
0.736382
0.749278
0.768932
0.800835
0.829451
0.853136
0.868525
0.87629
0.883134
0.886537
0.887714
0.887872
0.886104
0.880566
0.877956
0.877529
0.883723
0.895587
0.905414
0.915278
0.923945
0.939026
0.947811
0.952166
0.95394
0.954281
0.952619
0.945498
0.933095
0.915149
0.889594
0.848208
0.796257
0.780772
0.779667
0.788659
0.801467
0.804001
0.794977
0.761857
0.730947
0.72019
0.718034
0.72023
0.729284
0.742484
0.753982
0.758867
0.763637
0.769663
0.777972
0.789504
0.806664
0.839403
0.879573
0.916498
0.942977
0.961618
0.973836
0.981545
0.986317
0.989073
0.990493
0.990585
0.988573
0.981786
0.965623
0.937479
0.904728
0.878383
0.868048
0.868865
0.881249
0.908369
0.939758
0.967062
0.982823
0.989202
0.990258
0.988886
0.979796
0.967041
0.960925
0.95548
0.945092
0.930437
0.916009
0.905611
0.900147
0.898251
0.898015
0.89831
0.898495
0.898312
0.897083
0.891779
0.878127
0.867861
0.862771
0.861206
0.86122
0.862539
0.869199
0.89039
0.913597
0.932257
0.94749
0.960314
0.971171
0.980004
0.986762
0.991382
0.99393
0.994816
0.994858
0.994398
0.992166
0.984489
0.961221
0.890669
0.715951
0.537707
0.38777
0.269346
0.177698
0.114891
0.0650909
0.822108
0.824799
0.815044
0.793377
0.78251
0.771467
0.757887
0.730732
0.674409
0.608759
0.538886
0.480047
0.443125
0.420346
0.402067
0.38731
0.370081
0.352504
0.340612
0.3262
0.321301
0.32253
0.327387
0.340762
0.3575
0.390385
0.426251
0.472802
0.520982
0.568855
0.600107
0.614554
0.61424
0.608321
0.584314
0.61525
0.714218
0.687473
0.679635
0.713956
0.763985
0.807532
0.832482
0.840134
0.830445
0.778914
0.738936
0.722246
0.717095
0.716899
0.723906
0.730901
0.74808
0.776085
0.814323
0.837719
0.854544
0.861962
0.865137
0.86578
0.861666
0.845446
0.82271
0.794146
0.759438
0.727256
0.702403
0.690655
0.686102
0.691914
0.714951
0.740534
0.778062
0.812198
0.859823
0.893435
0.925296
0.944783
0.95423
0.956897
0.956286
0.946505
0.925987
0.894425
0.847385
0.802101
0.791495
0.792984
0.806703
0.819362
0.820912
0.808862
0.781681
0.742455
0.719613
0.715169
0.716404
0.723915
0.733684
0.747622
0.753523
0.757162
0.760498
0.764357
0.769062
0.774831
0.786467
0.806817
0.834564
0.870754
0.906181
0.935354
0.957753
0.973728
0.984224
0.990456
0.993896
0.995699
0.996498
0.996588
0.995688
0.991717
0.978588
0.945984
0.914647
0.899162
0.898474
0.909135
0.936925
0.963428
0.981037
0.988304
0.989716
0.98899
0.984515
0.974763
0.962729
0.948194
0.932653
0.918962
0.909599
0.904949
0.90351
0.903405
0.903742
0.90394
0.903863
0.903329
0.900954
0.891737
0.87852
0.870062
0.866231
0.865395
0.865829
0.869109
0.8829
0.90872
0.930298
0.947173
0.960166
0.970283
0.978399
0.984983
0.990102
0.993701
0.995843
0.996763
0.996926
0.99678
0.995842
0.992267
0.980678
0.945928
0.837202
0.649653
0.483064
0.339893
0.234975
0.142713
0.82496
0.826728
0.808568
0.791548
0.782685
0.770694
0.747366
0.700485
0.63446
0.552305
0.488182
0.447792
0.42389
0.40889
0.394138
0.376501
0.356328
0.332576
0.313114
0.295101
0.285589
0.285577
0.288398
0.296682
0.313321
0.341541
0.378166
0.425784
0.478569
0.536091
0.582746
0.60355
0.608424
0.601571
0.584516
0.721888
0.731293
0.716912
0.737618
0.784041
0.806474
0.820194
0.825668
0.812106
0.755588
0.725007
0.712873
0.709628
0.714309
0.719868
0.735091
0.760734
0.806719
0.831752
0.844177
0.849964
0.852274
0.851863
0.836797
0.803773
0.742774
0.646847
0.558471
0.503548
0.450857
0.428319
0.417869
0.414551
0.41913
0.437672
0.459237
0.485967
0.520628
0.558927
0.607282
0.668539
0.740213
0.817134
0.888297
0.926348
0.942924
0.948075
0.943741
0.91704
0.876313
0.827275
0.807521
0.805796
0.81346
0.826159
0.825377
0.811984
0.785137
0.745175
0.717511
0.71074
0.714055
0.721762
0.728849
0.740242
0.749534
0.754492
0.757973
0.760879
0.763683
0.766333
0.771147
0.781847
0.80015
0.823028
0.850687
0.882391
0.912849
0.93924
0.960362
0.975925
0.986402
0.992769
0.99619
0.997812
0.998499
0.998673
0.998455
0.996898
0.990108
0.966057
0.940248
0.930171
0.930928
0.944374
0.967275
0.982285
0.988688
0.990075
0.989681
0.986297
0.973335
0.953401
0.935199
0.920939
0.912205
0.908505
0.907729
0.907892
0.908495
0.908605
0.908482
0.907855
0.905326
0.895905
0.884376
0.877549
0.874645
0.873984
0.874137
0.87591
0.884792
0.90962
0.933345
0.951399
0.964511
0.973939
0.980926
0.986328
0.990569
0.993792
0.99606
0.997444
0.998079
0.998222
0.998163
0.997702
0.995833
0.989567
0.970125
0.911296
0.752278
0.561511
0.41151
0.267008
0.827322
0.828812
0.80706
0.794056
0.786508
0.769625
0.735413
0.67928
0.601261
0.523537
0.468928
0.438556
0.420309
0.408013
0.393707
0.374011
0.351177
0.320626
0.290023
0.26844
0.259816
0.259829
0.262247
0.269507
0.282426
0.302128
0.339154
0.392028
0.453271
0.519794
0.570788
0.597834
0.598816
0.595458
0.650075
0.766869
0.757656
0.759717
0.78731
0.801617
0.807754
0.811085
0.7919
0.739343
0.713962
0.705081
0.70318
0.710375
0.719341
0.736429
0.774678
0.814412
0.833053
0.840327
0.842579
0.84205
0.826904
0.789548
0.710195
0.577489
0.473224
0.400794
0.359231
0.329178
0.315387
0.309766
0.308797
0.317181
0.332392
0.352597
0.37874
0.406979
0.438567
0.469648
0.500611
0.529901
0.558962
0.594707
0.647201
0.733061
0.821665
0.888509
0.920855
0.929345
0.923767
0.890633
0.85928
0.841986
0.838885
0.833324
0.823134
0.800283
0.763569
0.72318
0.708319
0.708564
0.71326
0.721337
0.728119
0.737573
0.746721
0.753187
0.757297
0.76013
0.762443
0.764162
0.766093
0.769565
0.77716
0.793484
0.818126
0.848448
0.878801
0.90744
0.932612
0.953681
0.970301
0.982437
0.990486
0.995268
0.997776
0.998905
0.999327
0.999405
0.99923
0.997959
0.991689
0.972618
0.959304
0.956481
0.959943
0.974459
0.98544
0.98965
0.990302
0.989523
0.984458
0.966054
0.943159
0.926753
0.917451
0.913851
0.913294
0.913675
0.914477
0.914563
0.91426
0.912792
0.907136
0.89614
0.888034
0.883666
0.88208
0.881864
0.882149
0.884019
0.892121
0.916199
0.940822
0.959541
0.972761
0.981394
0.986767
0.990237
0.992788
0.994882
0.996579
0.997814
0.998578
0.998933
0.999015
0.998983
0.998721
0.997636
0.993922
0.982058
0.946116
0.827681
0.642261
0.441761
0.830249
0.831497
0.807518
0.798021
0.787037
0.765196
0.723246
0.662611
0.584683
0.510528
0.463534
0.438205
0.428342
0.421577
0.40962
0.388878
0.356161
0.317918
0.282282
0.259186
0.251485
0.251395
0.253809
0.261416
0.274987
0.298866
0.339829
0.394686
0.457304
0.523678
0.572643
0.593365
0.597276
0.61571
0.751489
0.784686
0.780284
0.787304
0.797878
0.800463
0.798384
0.778766
0.729206
0.707217
0.699259
0.697545
0.705197
0.720138
0.742567
0.775259
0.807489
0.826669
0.833966
0.836378
0.83036
0.805271
0.74027
0.606325
0.473603
0.390024
0.332837
0.292511
0.273305
0.262221
0.257916
0.257125
0.264552
0.279518
0.297314
0.32237
0.350702
0.383088
0.418306
0.452849
0.484796
0.512366
0.534016
0.551653
0.568081
0.584121
0.60756
0.649364
0.726737
0.800743
0.851955
0.879472
0.881772
0.871058
0.844575
0.819718
0.786149
0.742441
0.709202
0.702737
0.705278
0.708467
0.714032
0.72474
0.734315
0.741398
0.748894
0.754996
0.759362
0.762069
0.763736
0.76477
0.765769
0.767223
0.769495
0.773468
0.781721
0.800041
0.835523
0.876572
0.910315
0.93583
0.955504
0.970608
0.981886
0.989745
0.994716
0.997527
0.998926
0.99951
0.999684
0.99968
0.999395
0.997665
0.989519
0.978757
0.975033
0.975587
0.982071
0.988811
0.990832
0.990814
0.988977
0.980157
0.95835
0.939445
0.927798
0.922932
0.922048
0.922384
0.923361
0.923472
0.922827
0.919431
0.908744
0.897695
0.89065
0.887249
0.886246
0.886243
0.887021
0.89091
0.905423
0.929044
0.949553
0.965882
0.977815
0.985789
0.990692
0.993566
0.995321
0.996557
0.997545
0.998341
0.998925
0.999284
0.999444
0.999476
0.999451
0.999279
0.998572
0.996112
0.988038
0.96181
0.883799
0.665711
0.833096
0.835543
0.812188
0.798408
0.784856
0.756989
0.713834
0.653344
0.578499
0.507477
0.470012
0.456614
0.445748
0.436344
0.425856
0.411271
0.388003
0.348471
0.304737
0.270316
0.255859
0.253828
0.256297
0.264501
0.27916
0.305883
0.350098
0.406886
0.470561
0.533839
0.577005
0.59375
0.604419
0.684171
0.789646
0.797399
0.795053
0.796671
0.796308
0.789998
0.762118
0.71822
0.698154
0.691452
0.690283
0.696961
0.713238
0.737924
0.766954
0.796013
0.81616
0.82539
0.828492
0.821683
0.791429
0.706608
0.570245
0.453246
0.356353
0.302177
0.265642
0.245116
0.235527
0.231517
0.230626
0.235293
0.249419
0.266237
0.288042
0.314985
0.345888
0.380568
0.418279
0.456198
0.49202
0.523849
0.549534
0.564799
0.574574
0.581102
0.586397
0.590631
0.598355
0.610279
0.630609
0.660521
0.686585
0.702754
0.701188
0.695707
0.687184
0.685703
0.691136
0.698846
0.705684
0.712675
0.722376
0.734734
0.748278
0.757636
0.763797
0.767259
0.769613
0.770857
0.771147
0.770956
0.770306
0.769931
0.770271
0.7721
0.776266
0.783573
0.797597
0.829153
0.872096
0.912289
0.942188
0.961868
0.975033
0.984326
0.990826
0.995088
0.997624
0.998968
0.999581
0.999796
0.999827
0.999749
0.999143
0.995799
0.988897
0.985924
0.985861
0.988478
0.991595
0.992134
0.991552
0.987924
0.975217
0.957743
0.944411
0.937364
0.935411
0.935448
0.936196
0.936397
0.935558
0.930452
0.915601
0.902977
0.89533
0.891707
0.890695
0.890729
0.891762
0.896815
0.914104
0.936266
0.954799
0.969457
0.980271
0.987674
0.992369
0.995146
0.996734
0.997689
0.998346
0.998849
0.999236
0.999505
0.99966
0.999722
0.999729
0.999706
0.999574
0.999044
0.997158
0.990651
0.969012
0.883157
0.835897
0.839369
0.813628
0.798371
0.782049
0.75052
0.706959
0.648787
0.580566
0.521816
0.489754
0.471428
0.459246
0.447257
0.434487
0.420782
0.406818
0.387437
0.35327
0.31006
0.280379
0.269369
0.267965
0.276552
0.293807
0.325611
0.375946
0.433807
0.489381
0.547767
0.581817
0.596917
0.630004
0.760864
0.805524
0.806747
0.800331
0.796516
0.78916
0.763328
0.708751
0.686596
0.679406
0.67833
0.68267
0.696197
0.71477
0.740566
0.771739
0.800693
0.814172
0.818668
0.814045
0.78714
0.70966
0.583803
0.454029
0.354694
0.290629
0.253123
0.233056
0.223905
0.220207
0.219322
0.221498
0.231888
0.247645
0.268927
0.299785
0.339539
0.384319
0.429302
0.475545
0.521566
0.56306
0.597035
0.62674
0.642265
0.64838
0.646396
0.641759
0.632625
0.621552
0.614862
0.612909
0.61401
0.619168
0.628386
0.639008
0.649782
0.662637
0.676759
0.690616
0.704327
0.717314
0.729372
0.74262
0.753727
0.762825
0.771233
0.774724
0.776479
0.777455
0.778
0.778303
0.778633
0.778685
0.778162
0.778144
0.778739
0.781254
0.786505
0.795809
0.818029
0.854002
0.890717
0.92387
0.950631
0.969244
0.980885
0.988179
0.992964
0.996105
0.998057
0.99914
0.999659
0.999856
0.999895
0.999865
0.999572
0.997841
0.993606
0.991687
0.9916
0.992781
0.993725
0.993585
0.991901
0.985369
0.974517
0.964193
0.956773
0.953458
0.952955
0.95319
0.953358
0.952773
0.94882
0.933644
0.916311
0.906006
0.9012
0.899797
0.899764
0.900549
0.90449
0.919001
0.94023
0.957814
0.971537
0.98162
0.988577
0.993083
0.995825
0.997411
0.998319
0.998869
0.999235
0.999496
0.999677
0.999791
0.999849
0.999866
0.999865
0.99984
0.99972
0.999246
0.997497
0.991212
0.962223
0.838877
0.841633
0.815066
0.7993
0.780631
0.747349
0.70419
0.647623
0.582205
0.533745
0.514681
0.505428
0.494353
0.478255
0.4589
0.438152
0.419574
0.406779
0.39368
0.374137
0.344117
0.319141
0.309251
0.313555
0.33563
0.373084
0.417321
0.464925
0.512196
0.56325
0.588568
0.606996
0.687595
0.796401
0.81483
0.811024
0.79921
0.789848
0.767833
0.724804
0.68958
0.675184
0.670872
0.670682
0.677058
0.693439
0.713743
0.739143
0.771008
0.797482
0.805796
0.80294
0.777667
0.711843
0.607481
0.487064
0.376298
0.311696
0.273839
0.246746
0.231551
0.223455
0.221098
0.221911
0.231937
0.251717
0.281563
0.320978
0.371967
0.432197
0.495084
0.552273
0.601741
0.643471
0.679247
0.703924
0.724926
0.735734
0.738947
0.73703
0.732234
0.724845
0.713994
0.701055
0.687206
0.673144
0.662418
0.658042
0.658811
0.664702
0.679055
0.697908
0.717846
0.73627
0.750124
0.760881
0.76897
0.774245
0.777455
0.778542
0.779242
0.780007
0.780685
0.781234
0.781612
0.782166
0.783397
0.784913
0.786715
0.790114
0.798495
0.809939
0.81875
0.832491
0.858912
0.889623
0.919437
0.944791
0.964029
0.977548
0.986383
0.991865
0.995239
0.997338
0.99864
0.999387
0.999756
0.999902
0.999932
0.999911
0.999703
0.998452
0.99582
0.994765
0.994761
0.995331
0.99548
0.995028
0.992418
0.985477
0.978518
0.973329
0.970777
0.970275
0.97037
0.970404
0.969754
0.965963
0.953252
0.939096
0.929093
0.923621
0.921667
0.921421
0.921646
0.922983
0.928422
0.943949
0.960403
0.973426
0.983003
0.989559
0.993774
0.996341
0.997841
0.998698
0.999193
0.999492
0.999682
0.999804
0.999879
0.999919
0.999935
0.999938
0.999933
0.999903
0.999772
0.999253
0.997265
0.987357
0.840814
0.842896
0.820029
0.800606
0.779919
0.745889
0.705553
0.653222
0.599061
0.558808
0.542405
0.534811
0.530926
0.522054
0.503085
0.475701
0.444975
0.423006
0.412741
0.405536
0.395924
0.384288
0.378075
0.378849
0.394679
0.420264
0.451635
0.48971
0.531225
0.57362
0.59471
0.62815
0.740822
0.81424
0.821956
0.813578
0.794721
0.766603
0.715673
0.679107
0.6669
0.66338
0.662237
0.663515
0.670197
0.686702
0.708964
0.733492
0.764668
0.786254
0.790515
0.783013
0.746282
0.65554
0.54693
0.436997
0.365314
0.313068
0.278735
0.253791
0.240574
0.23379
0.235906
0.24645
0.267825
0.304035
0.355711
0.420065
0.491527
0.564544
0.629537
0.682451
0.723594
0.749108
0.764499
0.773412
0.777859
0.77875
0.777997
0.776541
0.773733
0.769527
0.764538
0.758512
0.752203
0.74675
0.741921
0.737842
0.738318
0.740862
0.746819
0.759417
0.769288
0.775224
0.778577
0.780462
0.781896
0.783001
0.78343
0.783396
0.783454
0.784018
0.785702
0.78755
0.788797
0.789591
0.790612
0.792147
0.794609
0.798997
0.808857
0.8339
0.863575
0.890608
0.908661
0.919605
0.931845
0.947852
0.963651
0.976485
0.985464
0.991253
0.994851
0.997037
0.998357
0.999157
0.999617
0.999848
0.999937
0.999952
0.999928
0.999719
0.998583
0.997028
0.99655
0.996619
0.996951
0.99694
0.996434
0.993995
0.988808
0.984961
0.982966
0.982387
0.98236
0.982327
0.981866
0.979355
0.970652
0.961332
0.955057
0.951091
0.948792
0.947818
0.947671
0.947815
0.948758
0.953032
0.965247
0.977179
0.985814
0.99155
0.995096
0.997181
0.998376
0.999055
0.999445
0.999673
0.999808
0.999889
0.999935
0.99996
0.99997
0.999973
0.999972
0.999964
0.999923
0.99975
0.999053
0.995454
0.842364
0.846097
0.82477
0.803024
0.780378
0.74725
0.705171
0.654959
0.609105
0.582423
0.571571
0.566357
0.563474
0.560931
0.552885
0.533341
0.499462
0.457912
0.432513
0.421238
0.417179
0.415886
0.418231
0.422405
0.433059
0.451005
0.475449
0.507757
0.544956
0.581622
0.601098
0.65096
0.776446
0.825004
0.828059
0.816338
0.79463
0.76131
0.701383
0.650196
0.634738
0.63264
0.63648
0.643144
0.652753
0.668685
0.691813
0.716001
0.742945
0.757021
0.75692
0.7395
0.685414
0.61047
0.521706
0.439776
0.37478
0.326641
0.296925
0.277041
0.267448
0.269887
0.279487
0.29956
0.336514
0.394476
0.472961
0.560407
0.647582
0.720328
0.76972
0.799468
0.813665
0.817685
0.81588
0.811744
0.80575
0.801133
0.79794
0.795538
0.792548
0.790612
0.78859
0.784701
0.779755
0.776119
0.775267
0.7761
0.778593
0.780908
0.784747
0.787842
0.78998
0.789944
0.789529
0.788826
0.788351
0.788245
0.788204
0.788355
0.788925
0.790505
0.794012
0.798245
0.801434
0.803781
0.806698
0.80966
0.813933
0.818799
0.8263
0.845223
0.896248
0.938589
0.962872
0.973578
0.974845
0.973156
0.97348
0.978935
0.985858
0.991157
0.994715
0.996933
0.998264
0.99905
0.999517
0.999783
0.999914
0.999961
0.999964
0.999927
0.999662
0.998617
0.997831
0.997682
0.997823
0.998092
0.998075
0.997717
0.996106
0.993114
0.991138
0.990245
0.989991
0.989844
0.989478
0.988093
0.983168
0.978073
0.975137
0.973128
0.971219
0.969503
0.96847
0.968218
0.968359
0.969508
0.974539
0.983359
0.989924
0.994189
0.99673
0.998165
0.99896
0.999404
0.999659
0.999807
0.999893
0.999942
0.999968
0.999982
0.999987
0.999989
0.999989
0.999986
0.999971
0.999906
0.999633
0.998208
0.845658
0.852311
0.83311
0.809752
0.789163
0.758204
0.720122
0.679543
0.643884
0.61679
0.602835
0.595183
0.589332
0.583461
0.579025
0.571678
0.556361
0.528433
0.48268
0.447547
0.433649
0.43006
0.431054
0.440371
0.451144
0.466211
0.488709
0.519194
0.55509
0.588081
0.612307
0.681378
0.799806
0.833686
0.835018
0.822204
0.797174
0.763187
0.703845
0.646629
0.622226
0.611553
0.60722
0.606283
0.608118
0.614441
0.627706
0.645955
0.659599
0.662367
0.655902
0.635165
0.600444
0.556039
0.505587
0.454241
0.407251
0.37016
0.347659
0.329885
0.330081
0.335743
0.350156
0.381744
0.441961
0.53414
0.637041
0.724522
0.790335
0.832286
0.855728
0.862685
0.862236
0.860241
0.856132
0.848972
0.839574
0.829005
0.819919
0.812853
0.808035
0.804673
0.802605
0.801682
0.800913
0.800285
0.800318
0.800485
0.799995
0.799806
0.800592
0.800947
0.800777
0.80024
0.798793
0.797443
0.79647
0.795987
0.796044
0.796491
0.797848
0.800919
0.80505
0.811069
0.816448
0.820542
0.825905
0.830953
0.840961
0.854718
0.871155
0.896382
0.930631
0.961401
0.980873
0.990034
0.993422
0.993875
0.993184
0.991016
0.990579
0.992437
0.995248
0.997103
0.998293
0.99903
0.999475
0.999738
0.999885
0.999954
0.999973
0.999968
0.999904
0.999515
0.998762
0.998461
0.998454
0.998669
0.998897
0.998894
0.998681
0.997696
0.99611
0.995183
0.994816
0.994664
0.994415
0.9937
0.991209
0.988561
0.987343
0.986879
0.986228
0.984734
0.983259
0.982516
0.98242
0.982711
0.984438
0.989422
0.993742
0.996487
0.998078
0.998946
0.999412
0.999667
0.999812
0.999897
0.999945
0.999971
0.999985
0.999992
0.999995
0.999996
0.999996
0.999995
0.999988
0.99996
0.999839
0.999213
0.847382
0.857229
0.840727
0.819283
0.798223
0.768964
0.74128
0.719115
0.698862
0.681171
0.666206
0.651469
0.634471
0.615573
0.599494
0.59026
0.581033
0.568195
0.546648
0.509763
0.466529
0.447132
0.442385
0.445084
0.456462
0.471398
0.493377
0.523726
0.559553
0.593309
0.619132
0.692653
0.809984
0.841555
0.842434
0.832349
0.805932
0.770256
0.714571
0.65274
0.623244
0.60944
0.601206
0.594968
0.589851
0.585825
0.584082
0.58472
0.585135
0.581986
0.574959
0.562926
0.545351
0.524129
0.501781
0.471459
0.441992
0.415356
0.397032
0.393053
0.396381
0.410001
0.448206
0.52159
0.620321
0.702807
0.761537
0.812433
0.852808
0.882075
0.902081
0.91589
0.924797
0.929026
0.929842
0.926704
0.915663
0.897886
0.87642
0.856753
0.840853
0.828446
0.820023
0.814955
0.812093
0.810911
0.810945
0.812315
0.813479
0.813582
0.813475
0.813131
0.81234
0.810964
0.809285
0.807647
0.806274
0.805463
0.805523
0.806232
0.809098
0.814338
0.819294
0.826377
0.834391
0.842689
0.851476
0.858586
0.871917
0.894643
0.935426
0.964024
0.979247
0.988009
0.993379
0.996372
0.997912
0.998458
0.998489
0.998332
0.997658
0.996999
0.996991
0.997771
0.998615
0.999151
0.9995
0.999726
0.999866
0.999943
0.999974
0.999978
0.999962
0.99984
0.999366
0.999014
0.998944
0.999002
0.999264
0.999396
0.999387
0.999208
0.998482
0.997771
0.997462
0.99735
0.99722
0.996881
0.99572
0.994489
0.993994
0.993872
0.993736
0.993311
0.992145
0.991293
0.991054
0.991122
0.991761
0.994136
0.996623
0.998156
0.999016
0.99947
0.999707
0.999835
0.999908
0.99995
0.999974
0.999987
0.999994
0.999997
0.999998
0.999998
0.999998
0.999998
0.999995
0.999981
0.99992
0.999613
0.848392
0.862413
0.852201
0.83382
0.816601
0.798341
0.785218
0.784473
0.793072
0.804425
0.808746
0.792965
0.753682
0.706638
0.658607
0.623183
0.598533
0.586508
0.573743
0.554492
0.523612
0.483295
0.459407
0.453787
0.459046
0.47306
0.494408
0.524428
0.560438
0.594861
0.618855
0.69047
0.809413
0.846532
0.848553
0.842582
0.824125
0.788892
0.742044
0.681552
0.637308
0.616579
0.605228
0.596948
0.590074
0.583804
0.578018
0.572795
0.567608
0.56135
0.553887
0.544802
0.533656
0.520632
0.503882
0.485285
0.467206
0.455311
0.454842
0.463712
0.494144
0.53801
0.60143
0.673383
0.723974
0.765991
0.805395
0.847979
0.880833
0.900556
0.917327
0.933634
0.948492
0.961483
0.971592
0.977487
0.97909
0.977813
0.97046
0.952881
0.927775
0.899194
0.873097
0.855526
0.84365
0.836048
0.831003
0.827706
0.825638
0.824006
0.822746
0.821304
0.819079
0.816781
0.814563
0.812532
0.81197
0.812228
0.813227
0.815891
0.823418
0.831306
0.837722
0.845168
0.856381
0.872144
0.887402