/*--------------------------------*- C++ -*----------------------------------*\
  =========                 |
  \\      /  F ield         | OpenFOAM: The Open Source CFD Toolbox
   \\    /   O peration     | Website:  https://openfoam.org
    \\  /    A nd           | Version:  9
     \\/     M anipulation  |
\*---------------------------------------------------------------------------*/
FoamFile
{
    format      ascii;
    class       volSymmTensorField;
    location    "0.042";
    object      UPrime2Mean;
}
// * * * * * * * * * * * * * * * * * * * * * * * * * * * * * * * * * * * * * //

dimensions      [0 2 -2 0 0 0 0];

internalField   nonuniform List<symmTensor> 
12225
(
(-48.422 -0.207724 0 0.00116326 0 0)
(-45.5549 -0.283265 0 -0.000810196 0 0)
(-42.6641 -0.273153 0 -0.00110902 0 0)
(-39.7766 -0.263687 0 -0.00124849 0 0)
(-36.9815 -0.255698 0 -0.00133559 0 0)
(-34.3313 -0.245074 0 -0.00135871 0 0)
(-31.8292 -0.234642 0 -0.00136541 0 0)
(-29.4554 -0.226347 0 -0.00139003 0 0)
(-27.1677 -0.222514 0 -0.00145309 0 0)
(-24.9442 -0.220472 0 -0.00156672 0 0)
(-22.7417 -0.224854 0 -0.00171593 0 0)
(-20.5358 -0.228891 0 -0.00191875 0 0)
(-18.2924 -0.249883 0 -0.0021846 0 0)
(-15.8834 -0.265855 0 -0.00256833 0 0)
(-13.4149 -0.324374 0 -0.00275779 0 0)
(-10.3559 -0.364043 0 -0.00399477 0 0)
(-7.38784 -0.507598 0 -9.04448e-05 0 0)
(-2.54177 -0.612181 0 -0.00696541 0 0)
(-50.4533 -0.269148 0 0.0011674 0 0)
(-51.0124 -0.38936 0 -0.00171424 0 0)
(-51.3588 -0.395142 0 -0.00221457 0 0)
(-51.4391 -0.40897 0 -0.00259267 0 0)
(-51.3153 -0.433962 0 -0.00310392 0 0)
(-51.025 -0.458942 0 -0.00360137 0 0)
(-50.6062 -0.480774 0 -0.00404682 0 0)
(-50.0477 -0.505197 0 -0.00452054 0 0)
(-49.386 -0.533464 0 -0.00508675 0 0)
(-48.5652 -0.57099 0 -0.00577686 0 0)
(-47.652 -0.61847 0 -0.00674368 0 0)
(-46.5044 -0.680425 0 -0.00778568 0 0)
(-45.2803 -0.768785 0 -0.00958012 0 0)
(-43.6302 -0.882022 0 -0.011014 0 0)
(-41.968 -1.05991 0 -0.0143337 0 0)
(-39.4151 -1.28381 0 -0.0156119 0 0)
(-37.086 -1.62973 0 -0.019981 0 0)
(-32.8322 -2.07126 0 -0.0119828 0 0)
(-49.7791 -0.154215 0 0.0029074 0 0)
(-50.0488 -0.26892 0 0.000347858 0 0)
(-50.2761 -0.300587 0 -0.00058252 0 0)
(-50.3894 -0.326875 0 -0.00110165 0 0)
(-50.4268 -0.365986 0 -0.00172723 0 0)
(-50.4117 -0.406511 0 -0.00237935 0 0)
(-50.3623 -0.446318 0 -0.00301492 0 0)
(-50.2503 -0.487138 0 -0.00368468 0 0)
(-50.0971 -0.537673 0 -0.0044809 0 0)
(-49.852 -0.596035 0 -0.00545848 0 0)
(-49.5733 -0.675233 0 -0.00666781 0 0)
(-49.162 -0.767991 0 -0.00815601 0 0)
(-48.7416 -0.903944 0 -0.00992461 0 0)
(-48.1206 -1.07275 0 -0.0122276 0 0)
(-47.5495 -1.32312 0 -0.0141322 0 0)
(-46.6862 -1.65641 0 -0.017087 0 0)
(-45.9982 -2.10089 0 -0.0150215 0 0)
(-44.9438 -2.67963 0 -0.00798428 0 0)
(-50.1939 -0.164158 0 0.00258803 0 0)
(-50.3909 -0.307057 0 -9.60289e-05 0 0)
(-50.5451 -0.344761 0 -0.00113522 0 0)
(-50.5925 -0.364304 0 -0.00159257 0 0)
(-50.5624 -0.399422 0 -0.00217964 0 0)
(-50.4906 -0.442818 0 -0.00288736 0 0)
(-50.3953 -0.487821 0 -0.00362371 0 0)
(-50.2628 -0.535573 0 -0.00439391 0 0)
(-50.0916 -0.592151 0 -0.00532026 0 0)
(-49.8594 -0.659865 0 -0.00641213 0 0)
(-49.5807 -0.747221 0 -0.00783213 0 0)
(-49.2309 -0.85543 0 -0.00944807 0 0)
(-48.8436 -1.00246 0 -0.0115436 0 0)
(-48.3917 -1.19233 0 -0.0137141 0 0)
(-47.9386 -1.45243 0 -0.015996 0 0)
(-47.4756 -1.79519 0 -0.0173629 0 0)
(-47.1048 -2.22357 0 -0.0150413 0 0)
(-46.8516 -2.73967 0 -0.00514351 0 0)
(-50.0593 -0.111068 0 0.00418996 0 0)
(-50.2882 -0.267874 0 0.00124634 0 0)
(-50.4557 -0.321687 0 -0.000336706 0 0)
(-50.5307 -0.35454 0 -0.00104739 0 0)
(-50.5189 -0.397429 0 -0.00169222 0 0)
(-50.4477 -0.446144 0 -0.00238516 0 0)
(-50.3411 -0.497112 0 -0.00311177 0 0)
(-50.2036 -0.552447 0 -0.00390879 0 0)
(-50.0296 -0.61942 0 -0.0048963 0 0)
(-49.8096 -0.700636 0 -0.00615409 0 0)
(-49.5398 -0.802657 0 -0.00771625 0 0)
(-49.2206 -0.927798 0 -0.00951103 0 0)
(-48.8551 -1.08785 0 -0.0114648 0 0)
(-48.4613 -1.29236 0 -0.0133849 0 0)
(-48.0533 -1.5536 0 -0.0146831 0 0)
(-47.6816 -1.88769 0 -0.0143209 0 0)
(-47.3719 -2.28188 0 -0.0101196 0 0)
(-47.1977 -2.73434 0 0.00352298 0 0)
(-50.0514 -0.0847419 0 0.00508856 0 0)
(-50.1085 -0.249984 0 0.00164542 0 0)
(-50.1904 -0.31002 0 -7.57834e-05 0 0)
(-50.2435 -0.346389 0 -0.000830962 0 0)
(-50.2406 -0.393897 0 -0.00158384 0 0)
(-50.1877 -0.451627 0 -0.00244989 0 0)
(-50.0967 -0.513214 0 -0.00334701 0 0)
(-49.972 -0.579019 0 -0.00428596 0 0)
(-49.8102 -0.654429 0 -0.0053484 0 0)
(-49.6092 -0.744521 0 -0.00661468 0 0)
(-49.3654 -0.855259 0 -0.00814239 0 0)
(-49.0842 -0.991515 0 -0.00987598 0 0)
(-48.7658 -1.16089 0 -0.0116911 0 0)
(-48.4312 -1.37326 0 -0.0133449 0 0)
(-48.0903 -1.63448 0 -0.0141799 0 0)
(-47.7888 -1.95477 0 -0.0131807 0 0)
(-47.5405 -2.32076 0 -0.00805559 0 0)
(-47.4092 -2.73029 0 0.00547474 0 0)
(-49.6454 -0.109245 0 0.00464542 0 0)
(-49.681 -0.241257 0 0.00218909 0 0)
(-49.7312 -0.317685 0 0.000367588 0 0)
(-49.7628 -0.366185 0 -0.000585818 0 0)
(-49.7493 -0.415543 0 -0.00130304 0 0)
(-49.6932 -0.472779 0 -0.00205338 0 0)
(-49.6051 -0.536651 0 -0.00287527 0 0)
(-49.4892 -0.608428 0 -0.00379177 0 0)
(-49.3421 -0.692614 0 -0.00490294 0 0)
(-49.1636 -0.79364 0 -0.00628232 0 0)
(-48.9522 -0.915614 0 -0.00793406 0 0)
(-48.7133 -1.0635 0 -0.00974038 0 0)
(-48.448 -1.24171 0 -0.0114531 0 0)
(-48.1728 -1.45857 0 -0.0126907 0 0)
(-47.8977 -1.7161 0 -0.0127161 0 0)
(-47.6566 -2.02087 0 -0.010307 0 0)
(-47.4634 -2.36238 0 -0.00360815 0 0)
(-47.3648 -2.73793 0 0.0105408 0 0)
(-50.016 -0.0704296 0 0.00539734 0 0)
(-50.0614 -0.202082 0 0.00260628 0 0)
(-50.1292 -0.291024 0 0.000731283 0 0)
(-50.1869 -0.349726 0 -0.000261073 0 0)
(-50.1982 -0.405442 0 -0.0010098 0 0)
(-50.1529 -0.471054 0 -0.00181883 0 0)
(-50.0594 -0.546446 0 -0.00276446 0 0)
(-49.9274 -0.62973 0 -0.0038162 0 0)
(-49.7623 -0.722902 0 -0.00495633 0 0)
(-49.5694 -0.831083 0 -0.00619598 0 0)
(-49.3531 -0.959316 0 -0.00753492 0 0)
(-49.1196 -1.11368 0 -0.00892627 0 0)
(-48.8744 -1.298 0 -0.010194 0 0)
(-48.6279 -1.51845 0 -0.0110087 0 0)
(-48.3938 -1.77481 0 -0.0107214 0 0)
(-48.1901 -2.06999 0 -0.00822943 0 0)
(-48.0378 -2.39443 0 -0.00209727 0 0)
(-47.9533 -2.74395 0 0.0101668 0 0)
(-49.8614 -0.107092 0 0.00510407 0 0)
(-49.8614 -0.214999 0 0.00249229 0 0)
(-49.8759 -0.30271 0 0.000832755 0 0)
(-49.8921 -0.371061 0 -0.000193577 0 0)
(-49.8797 -0.433929 0 -0.00100776 0 0)
(-49.8308 -0.502715 0 -0.00183296 0 0)
(-49.7523 -0.581812 0 -0.00279182 0 0)
(-49.6499 -0.672021 0 -0.00393365 0 0)
(-49.5236 -0.774082 0 -0.00523081 0 0)
(-49.3744 -0.891346 0 -0.00665077 0 0)
(-49.2056 -1.02783 0 -0.00817175 0 0)
(-49.0247 -1.18839 0 -0.00969285 0 0)
(-48.8396 -1.37547 0 -0.0109493 0 0)
(-48.6627 -1.59315 0 -0.0114795 0 0)
(-48.5048 -1.84094 0 -0.010617 0 0)
(-48.383 -2.12047 0 -0.00733753 0 0)
(-48.3058 -2.42346 0 -0.000483635 0 0)
(-48.2922 -2.74682 0 0.0116678 0 0)
(-49.7133 -0.0739125 0 0.00543627 0 0)
(-49.68 -0.1834 0 0.00337868 0 0)
(-49.6908 -0.275885 0 0.00162307 0 0)
(-49.7368 -0.353671 0 0.000563966 0 0)
(-49.7682 -0.423789 0 -0.000269364 0 0)
(-49.7545 -0.498142 0 -0.00111673 0 0)
(-49.6945 -0.583575 0 -0.00209597 0 0)
(-49.5991 -0.680863 0 -0.00320317 0 0)
(-49.4792 -0.789633 0 -0.00434335 0 0)
(-49.3458 -0.912422 0 -0.00542507 0 0)
(-49.2053 -1.05234 0 -0.00635855 0 0)
(-49.0647 -1.21423 0 -0.00703257 0 0)
(-48.9266 -1.40081 0 -0.00728172 0 0)
(-48.8021 -1.61588 0 -0.00684102 0 0)
(-48.6955 -1.85772 0 -0.00531802 0 0)
(-48.6248 -2.12675 0 -0.00197241 0 0)
(-48.5891 -2.41397 0 0.00391299 0 0)
(-48.6121 -2.71746 0 0.0136192 0 0)
(-49.7189 -0.112958 0 0.00514104 0 0)
(-49.722 -0.202945 0 0.00339344 0 0)
(-49.7218 -0.284061 0 0.00176493 0 0)
(-49.7346 -0.360515 0 0.000685465 0 0)
(-49.7352 -0.437232 0 -0.000207111 0 0)
(-49.7049 -0.522 0 -0.00118498 0 0)
(-49.6408 -0.617772 0 -0.00239945 0 0)
(-49.5516 -0.723621 0 -0.00376845 0 0)
(-49.4462 -0.83903 0 -0.00512234 0 0)
(-49.3311 -0.966752 0 -0.00634112 0 0)
(-49.2077 -1.11042 0 -0.00735965 0 0)
(-49.0807 -1.27434 0 -0.00808803 0 0)
(-48.9538 -1.45986 0 -0.00836481 0 0)
(-48.8376 -1.66957 0 -0.0079231 0 0)
(-48.7399 -1.90039 0 -0.00637275 0 0)
(-48.6751 -2.15276 0 -0.00307955 0 0)
(-48.6489 -2.41813 0 0.00249675 0 0)
(-48.6721 -2.69652 0 0.0112492 0 0)
(-50.0877 -0.0911234 0 0.00553472 0 0)
(-50.1419 -0.190517 0 0.00365774 0 0)
(-50.1796 -0.27441 0 0.00178151 0 0)
(-50.2124 -0.354403 0 0.000633982 0 0)
(-50.2303 -0.437392 0 -0.000232904 0 0)
(-50.2215 -0.527726 0 -0.00114054 0 0)
(-50.1826 -0.627012 0 -0.00221578 0 0)
(-50.1186 -0.735643 0 -0.00336169 0 0)
(-50.0384 -0.854237 0 -0.00443103 0 0)
(-49.9493 -0.98535 0 -0.00531314 0 0)
(-49.8562 -1.13173 0 -0.00593476 0 0)
(-49.7596 -1.29708 0 -0.00623394 0 0)
(-49.6663 -1.48207 0 -0.0061047 0 0)
(-49.5798 -1.68837 0 -0.00535673 0 0)
(-49.5144 -1.91286 0 -0.0037663 0 0)
(-49.4689 -2.15535 0 -0.000870641 0 0)
(-49.4633 -2.4081 0 0.00364097 0 0)
(-49.4812 -2.6713 0 0.010387 0 0)
(-50.1858 -0.0712366 0 0.00733604 0 0)
(-50.1663 -0.177151 0 0.00542553 0 0)
(-50.156 -0.264201 0 0.00289217 0 0)
(-50.1557 -0.348339 0 0.00164115 0 0)
(-50.1411 -0.437101 0 0.000809775 0 0)
(-50.1089 -0.534297 0 -0.000189988 0 0)
(-50.0679 -0.640536 0 -0.0014619 0 0)
(-50.0249 -0.755269 0 -0.0027722 0 0)
(-49.9816 -0.878562 0 -0.00389647 0 0)
(-49.9361 -1.01332 0 -0.00476605 0 0)
(-49.8879 -1.16188 0 -0.0053315 0 0)
(-49.8376 -1.32738 0 -0.00555669 0 0)
(-49.7928 -1.51013 0 -0.00535657 0 0)
(-49.7585 -1.71093 0 -0.00454859 0 0)
(-49.7473 -1.9263 0 -0.00288544 0 0)
(-49.7599 -2.15633 0 -3.44953e-05 0 0)
(-49.8083 -2.39401 0 0.00417537 0 0)
(-49.8837 -2.64123 0 0.0099687 0 0)
(-50.4318 -0.117046 0 0.00889743 0 0)
(-50.4373 -0.182823 0 0.00662016 0 0)
(-50.4359 -0.273191 0 0.00408704 0 0)
(-50.4394 -0.369059 0 0.00244707 0 0)
(-50.4364 -0.464379 0 0.00118769 0 0)
(-50.4229 -0.559774 0 0.00014992 0 0)
(-50.3998 -0.658939 0 -0.000789372 0 0)
(-50.3695 -0.766684 0 -0.00167926 0 0)
(-50.3358 -0.886616 0 -0.00250162 0 0)
(-50.3022 -1.02103 0 -0.00322845 0 0)
(-50.2728 -1.17031 0 -0.00380286 0 0)
(-50.2506 -1.33487 0 -0.0040901 0 0)
(-50.2414 -1.51337 0 -0.00392143 0 0)
(-50.2489 -1.70623 0 -0.00308575 0 0)
(-50.2796 -1.91025 0 -0.00144721 0 0)
(-50.3341 -2.12637 0 0.00120334 0 0)
(-50.4184 -2.34805 0 0.00486272 0 0)
(-50.5272 -2.57861 0 0.0095905 0 0)
(-50.0573 -0.0514022 0 0.008717 0 0)
(-50.1241 -0.157127 0 0.00682135 0 0)
(-50.1659 -0.25061 0 0.00473169 0 0)
(-50.1976 -0.341047 0 0.00365557 0 0)
(-50.2321 -0.437846 0 0.00278743 0 0)
(-50.2684 -0.543598 0 0.00172971 0 0)
(-50.2966 -0.656588 0 0.00055052 0 0)
(-50.3123 -0.775836 0 -0.000524614 0 0)
(-50.3199 -0.902062 0 -0.00134891 0 0)
(-50.3281 -1.03753 0 -0.00185863 0 0)
(-50.3416 -1.18362 0 -0.00202491 0 0)
(-50.3655 -1.34222 0 -0.00181859 0 0)
(-50.3998 -1.51266 0 -0.00122543 0 0)
(-50.4514 -1.69589 0 -0.000186925 0 0)
(-50.5175 -1.88816 0 0.00131964 0 0)
(-50.6094 -2.09093 0 0.00340089 0 0)
(-50.717 -2.2969 0 0.00603359 0 0)
(-50.8598 -2.51096 0 0.00922704 0 0)
(-49.6997 -0.0720084 0 0.00993468 0 0)
(-49.6938 -0.160847 0 0.00859513 0 0)
(-49.7034 -0.247699 0 0.00615918 0 0)
(-49.7358 -0.338081 0 0.00462256 0 0)
(-49.777 -0.432121 0 0.00368379 0 0)
(-49.8213 -0.531383 0 0.00293215 0 0)
(-49.8659 -0.636754 0 0.00218676 0 0)
(-49.9111 -0.749767 0 0.0014684 0 0)
(-49.9579 -0.87171 0 0.000851037 0 0)
(-50.0089 -1.00393 0 0.000405632 0 0)
(-50.0643 -1.14612 0 0.000187058 0 0)
(-50.1275 -1.299 0 0.000217297 0 0)
(-50.1989 -1.46075 0 0.000532446 0 0)
(-50.2855 -1.63215 0 0.00117356 0 0)
(-50.3856 -1.80895 0 0.00219449 0 0)
(-50.5081 -1.99311 0 0.00373118 0 0)
(-50.6453 -2.17749 0 0.00578799 0 0)
(-50.8108 -2.36806 0 0.00834123 0 0)
(-49.8374 -0.0680423 0 0.0102824 0 0)
(-49.8827 -0.136684 0 0.00858872 0 0)
(-49.928 -0.217807 0 0.00562107 0 0)
(-49.9752 -0.312188 0 0.00432901 0 0)
(-50.0297 -0.411602 0 0.00378064 0 0)
(-50.0898 -0.513488 0 0.00342 0 0)
(-50.1485 -0.619459 0 0.00299382 0 0)
(-50.2062 -0.731829 0 0.00249735 0 0)
(-50.2678 -0.851535 0 0.002049 0 0)
(-50.3379 -0.979485 0 0.00174464 0 0)
(-50.4176 -1.11515 0 0.00161384 0 0)
(-50.5086 -1.25911 0 0.00162807 0 0)
(-50.6111 -1.40938 0 0.00178217 0 0)
(-50.7274 -1.56658 0 0.00211428 0 0)
(-50.8571 -1.72689 0 0.00266105 0 0)
(-51.003 -1.89252 0 0.00351804 0 0)
(-51.163 -2.05713 0 0.00470616 0 0)
(-51.3401 -2.22702 0 0.00617628 0 0)
(-49.8667 -0.0331044 0 0.0121527 0 0)
(-49.9124 -0.108748 0 0.0108999 0 0)
(-49.9625 -0.188051 0 0.00748482 0 0)
(-50.0165 -0.26962 0 0.00609577 0 0)
(-50.0778 -0.356223 0 0.00575442 0 0)
(-50.1533 -0.450061 0 0.00559315 0 0)
(-50.2387 -0.551005 0 0.00528687 0 0)
(-50.3296 -0.657608 0 0.00493629 0 0)
(-50.4269 -0.768545 0 0.00475152 0 0)
(-50.5334 -0.884592 0 0.00482254 0 0)
(-50.6507 -1.0064 0 0.0050983 0 0)
(-50.7798 -1.13534 0 0.00545211 0 0)
(-50.9211 -1.27 0 0.00578714 0 0)
(-51.0756 -1.41059 0 0.00610226 0 0)
(-51.2434 -1.5533 0 0.00642649 0 0)
(-51.4247 -1.69974 0 0.00689159 0 0)
(-51.6189 -1.84413 0 0.00754187 0 0)
(-51.8264 -1.99217 0 0.00833834 0 0)
(-50.1487 -0.00484292 0 0.010364 0 0)
(-50.2132 -0.0904357 0 0.0102345 0 0)
(-50.2825 -0.16922 0 0.00808712 0 0)
(-50.3462 -0.244196 0 0.00679884 0 0)
(-50.4181 -0.321542 0 0.00618683 0 0)
(-50.5085 -0.404092 0 0.00593068 0 0)
(-50.6156 -0.49259 0 0.00583875 0 0)
(-50.7357 -0.586961 0 0.00578629 0 0)
(-50.8671 -0.68608 0 0.0057401 0 0)
(-51.0086 -0.789449 0 0.00572105 0 0)
(-51.1584 -0.896186 0 0.00575781 0 0)
(-51.3167 -1.00667 0 0.00585496 0 0)
(-51.4849 -1.11965 0 0.00602228 0 0)
(-51.6653 -1.23598 0 0.00626622 0 0)
(-51.8584 -1.35288 0 0.00660308 0 0)
(-52.0647 -1.47234 0 0.0070932 0 0)
(-52.2824 -1.58916 0 0.00778483 0 0)
(-52.5124 -1.70861 0 0.00863153 0 0)
(-49.9095 0.0498863 0 0.0112118 0 0)
(-49.9184 -0.0399667 0 0.0114478 0 0)
(-49.96 -0.11096 0 0.00816465 0 0)
(-50.0386 -0.1707 0 0.00634903 0 0)
(-50.1384 -0.230933 0 0.00572432 0 0)
(-50.2566 -0.294719 0 0.00580605 0 0)
(-50.3936 -0.363267 0 0.00626737 0 0)
(-50.5475 -0.438721 0 0.00678794 0 0)
(-50.7167 -0.521674 0 0.00712616 0 0)
(-50.9007 -0.611168 0 0.00723324 0 0)
(-51.0972 -0.704832 0 0.00721914 0 0)
(-51.3046 -0.801202 0 0.00722694 0 0)
(-51.5208 -0.898103 0 0.00735981 0 0)
(-51.7465 -0.995717 0 0.00765048 0 0)
(-51.98 -1.092 0 0.00808617 0 0)
(-52.223 -1.18888 0 0.00868667 0 0)
(-52.4724 -1.28267 0 0.00946152 0 0)
(-52.7318 -1.37778 0 0.0103426 0 0)
(-49.9308 -0.00864959 0 0.0105474 0 0)
(-49.9446 -0.038662 0 0.00950707 0 0)
(-50.0065 -0.0877167 0 0.00705568 0 0)
(-50.1267 -0.13723 0 0.00592814 0 0)
(-50.2687 -0.183077 0 0.00556843 0 0)
(-50.4144 -0.229865 0 0.00561129 0 0)
(-50.5673 -0.281908 0 0.0059213 0 0)
(-50.7325 -0.341177 0 0.00637404 0 0)
(-50.9116 -0.407661 0 0.00682621 0 0)
(-51.1051 -0.480363 0 0.00720777 0 0)
(-51.312 -0.557172 0 0.00753298 0 0)
(-51.5307 -0.636987 0 0.00783601 0 0)
(-51.7597 -0.718126 0 0.00814398 0 0)
(-51.9992 -0.800702 0 0.00847832 0 0)
(-52.2484 -0.882648 0 0.00885234 0 0)
(-52.5072 -0.965002 0 0.00934361 0 0)
(-52.7732 -1.04412 0 0.00998624 0 0)
(-53.0464 -1.12332 0 0.0107737 0 0)
(-50.0602 0.0208566 0 0.0114588 0 0)
(-50.1318 0.0210454 0 0.0100516 0 0)
(-50.2161 -0.00913574 0 0.00736262 0 0)
(-50.3342 -0.0518775 0 0.00608882 0 0)
(-50.475 -0.0958362 0 0.00571267 0 0)
(-50.6229 -0.139026 0 0.00578988 0 0)
(-50.7711 -0.183654 0 0.00607246 0 0)
(-50.9235 -0.232744 0 0.00644069 0 0)
(-51.0887 -0.287794 0 0.0067983 0 0)
(-51.2714 -0.348639 0 0.00707137 0 0)
(-51.4709 -0.413191 0 0.00727561 0 0)
(-51.6841 -0.479602 0 0.0074924 0 0)
(-51.9079 -0.545721 0 0.00779756 0 0)
(-52.1415 -0.611414 0 0.00822415 0 0)
(-52.3841 -0.675611 0 0.00873365 0 0)
(-52.6369 -0.740095 0 0.00934845 0 0)
(-52.8975 -0.802867 0 0.0100335 0 0)
(-53.1679 -0.867371 0 0.0107129 0 0)
(-49.8083 0.0230845 0 0.00971476 0 0)
(-49.9139 0.0292336 0 0.00788104 0 0)
(-50.0225 0.0145078 0 0.00557897 0 0)
(-50.1465 -0.0134771 0 0.00460206 0 0)
(-50.2921 -0.0474806 0 0.00438914 0 0)
(-50.4553 -0.0840243 0 0.00456688 0 0)
(-50.6317 -0.121757 0 0.00485395 0 0)
(-50.82 -0.161218 0 0.00513739 0 0)
(-51.0205 -0.203722 0 0.00541163 0 0)
(-51.2339 -0.250499 0 0.005683 0 0)
(-51.4602 -0.301651 0 0.00593286 0 0)
(-51.6978 -0.356541 0 0.00615532 0 0)
(-51.9446 -0.413072 0 0.00638169 0 0)
(-52.1984 -0.469981 0 0.00667433 0 0)
(-52.4577 -0.524971 0 0.00705978 0 0)
(-52.7215 -0.578635 0 0.00757151 0 0)
(-52.9898 -0.628962 0 0.00818226 0 0)
(-53.2626 -0.678789 0 0.00884884 0 0)
(-50.5064 0.0833421 0 0.00880974 0 0)
(-50.5804 0.0744988 0 0.00582205 0 0)
(-50.7052 0.0701014 0 0.00363619 0 0)
(-50.8599 0.0504326 0 0.00310473 0 0)
(-51.0205 0.0230814 0 0.00312899 0 0)
(-51.1818 -0.00483547 0 0.00330071 0 0)
(-51.3483 -0.0326895 0 0.00351488 0 0)
(-51.5231 -0.0629088 0 0.00376692 0 0)
(-51.7067 -0.0974062 0 0.00404433 0 0)
(-51.8998 -0.136396 0 0.00432717 0 0)
(-52.1041 -0.178665 0 0.00460101 0 0)
(-52.3218 -0.22316 0 0.00486898 0 0)
(-52.5533 -0.268611 0 0.00514259 0 0)
(-52.7981 -0.31458 0 0.00543744 0 0)
(-53.054 -0.359779 0 0.0057579 0 0)
(-53.3198 -0.404639 0 0.00613577 0 0)
(-53.592 -0.447358 0 0.0065685 0 0)
(-53.8709 -0.489615 0 0.00704342 0 0)
(-49.6233 0.0764617 0 0.00810462 0 0)
(-49.6508 0.0967441 0 0.00584136 0 0)
(-49.7536 0.103597 0 0.00412348 0 0)
(-49.9245 0.0945441 0 0.00351275 0 0)
(-50.1215 0.0746047 0 0.00336343 0 0)
(-50.318 0.0500502 0 0.0034207 0 0)
(-50.5098 0.0244434 0 0.0035645 0 0)
(-50.703 -0.00233245 0 0.00372379 0 0)
(-50.9038 -0.0312706 0 0.00387559 0 0)
(-51.1163 -0.0625305 0 0.00403217 0 0)
(-51.3418 -0.0953553 0 0.00421752 0 0)
(-51.5815 -0.12918 0 0.0044423 0 0)
(-51.8334 -0.163178 0 0.00470487 0 0)
(-52.0969 -0.197281 0 0.0050045 0 0)
(-52.3682 -0.230482 0 0.00532298 0 0)
(-52.6477 -0.263044 0 0.0056911 0 0)
(-52.9299 -0.293619 0 0.00609274 0 0)
(-53.2187 -0.323651 0 0.00649986 0 0)
(-50.0129 0.0693584 0 0.00714832 0 0)
(-50.1446 0.12806 0 0.00529888 0 0)
(-50.2875 0.141062 0 0.00331312 0 0)
(-50.4345 0.135188 0 0.0025258 0 0)
(-50.5756 0.122162 0 0.00240498 0 0)
(-50.7149 0.105078 0 0.00246793 0 0)
(-50.8631 0.0853148 0 0.00254765 0 0)
(-51.0277 0.0639845 0 0.00264654 0 0)
(-51.2095 0.0417598 0 0.00277759 0 0)
(-51.4059 0.018553 0 0.00293476 0 0)
(-51.6148 -0.00563939 0 0.00311131 0 0)
(-51.8362 -0.0308889 0 0.0032987 0 0)
(-52.0706 -0.0568244 0 0.00349422 0 0)
(-52.3186 -0.0836593 0 0.00370449 0 0)
(-52.5791 -0.110835 0 0.00391611 0 0)
(-52.8507 -0.138506 0 0.00415553 0 0)
(-53.1294 -0.165404 0 0.00441857 0 0)
(-53.4137 -0.192077 0 0.00469044 0 0)
(-49.5864 0.140699 0 0.00533523 0 0)
(-49.742 0.180149 0 0.00332823 0 0)
(-49.9071 0.19051 0 0.00206146 0 0)
(-50.058 0.178636 0 0.00163258 0 0)
(-50.1941 0.162547 0 0.00152319 0 0)
(-50.3282 0.14821 0 0.00150777 0 0)
(-50.475 0.134177 0 0.00152083 0 0)
(-50.6444 0.118941 0 0.00155291 0 0)
(-50.8396 0.102065 0 0.00160951 0 0)
(-51.0583 0.0836519 0 0.00169227 0 0)
(-51.2959 0.0644921 0 0.00180117 0 0)
(-51.5473 0.0455023 0 0.0019399 0 0)
(-51.8089 0.0275057 0 0.00210683 0 0)
(-52.0782 0.0104357 0 0.00229448 0 0)
(-52.3547 -0.00585355 0 0.00249046 0 0)
(-52.6377 -0.0222787 0 0.00271194 0 0)
(-52.927 -0.038527 0 0.00294667 0 0)
(-53.2215 -0.0556068 0 0.00318415 0 0)
(-50.213 0.132672 0 0.00419879 0 0)
(-50.3176 0.165002 0 0.00173162 0 0)
(-50.4875 0.177221 0 0.000880476 0 0)
(-50.6553 0.17546 0 0.000620111 0 0)
(-50.8075 0.171191 0 0.00052996 0 0)
(-50.9698 0.16536 0 0.000490033 0 0)
(-51.1578 0.158475 0 0.000479503 0 0)
(-51.3692 0.152553 0 0.000484936 0 0)
(-51.5961 0.147694 0 0.000490849 0 0)
(-51.8327 0.142137 0 0.000517697 0 0)
(-52.0772 0.134229 0 0.000583564 0 0)
(-52.3291 0.123783 0 0.000677229 0 0)
(-52.589 0.11153 0 0.0007838 0 0)
(-52.8558 0.0985017 0 0.000901565 0 0)
(-53.1303 0.085285 0 0.0010312 0 0)
(-53.4098 0.0722487 0 0.00117867 0 0)
(-53.6961 0.0595869 0 0.00134066 0 0)
(-53.9843 0.047152 0 0.00151224 0 0)
(-49.9834 0.1806 0 0.00324034 0 0)
(-50.3062 0.266322 0 0.000159934 0 0)
(-50.597 0.256392 0 -0.000242876 0 0)
(-50.8242 0.244951 0 -0.000299189 0 0)
(-51.013 0.241859 0 -0.000360763 0 0)
(-51.1943 0.240074 0 -0.00038071 0 0)
(-51.3768 0.236857 0 -0.000363497 0 0)
(-51.5561 0.231874 0 -0.00031681 0 0)
(-51.7255 0.224938 0 -0.000245947 0 0)
(-51.8846 0.216228 0 -0.000160306 0 0)
(-52.0362 0.206436 0 -6.4433e-05 0 0)
(-52.1874 0.196843 0 3.91022e-05 0 0)
(-52.3404 0.188009 0 0.000148618 0 0)
(-52.5007 0.180318 0 0.000257204 0 0)
(-52.6645 0.173095 0 0.000361322 0 0)
(-52.8386 0.166236 0 0.000470202 0 0)
(-53.0129 0.159134 0 0.000586619 0 0)
(-53.2011 0.152094 0 0.000696221 0 0)
(-49.2944 0.179403 0 0.00183255 0 0)
(-47.6413 0.243805 0 4.66515e-05 0 0)
(-46.0039 0.229305 0 -0.000138951 0 0)
(-44.4177 0.21876 0 -0.000189915 0 0)
(-42.9297 0.213535 0 -0.000252131 0 0)
(-41.5547 0.207171 0 -0.000281489 0 0)
(-40.286 0.199419 0 -0.000285367 0 0)
(-39.1154 0.191496 0 -0.000282674 0 0)
(-38.0379 0.18368 0 -0.000277583 0 0)
(-37.0519 0.175801 0 -0.000267194 0 0)
(-36.1522 0.167815 0 -0.000251246 0 0)
(-35.3349 0.160099 0 -0.000233592 0 0)
(-34.5879 0.152855 0 -0.000215793 0 0)
(-33.9083 0.146367 0 -0.000200897 0 0)
(-33.28 0.14048 0 -0.000187954 0 0)
(-32.7101 0.135337 0 -0.000174606 0 0)
(-32.1742 0.130602 0 -0.000163371 0 0)
(-31.6981 0.126505 0 -0.00015732 0 0)
(-0.0074168 0.0129135 -2.12182e-22 -0.0179918 4.64486e-22 4.26377e-39)
(0.0208368 -0.048214 4.79184e-22 0.0526888 -2.56469e-22 4.19601e-39)
(0.178043 -0.128563 0 0.0530985 0 0)
(0.452404 -0.169025 0 0.0147849 0 0)
(0.719207 -0.118724 0 -0.0502299 0 0)
(0.848302 0.01136 -2.71984e-22 -0.109784 -4.56017e-22 3.94765e-39)
(0.695513 0.195465 0 -0.146447 0 0)
(0.20136 0.377397 0 -0.154086 0 0)
(-0.61235 0.525797 0 -0.140139 0 0)
(-1.64598 0.612551 0 -0.111551 0 0)
(-2.7985 0.628751 -2.45123e-21 -0.0765873 5.88888e-22 3.6208e-39)
(-3.94848 0.576772 0 -0.0419517 0 0)
(-4.9719 0.466796 0 -0.0119465 0 0)
(-5.75896 0.312434 0 0.0109021 0 0)
(-6.22495 0.127884 0 0.0256112 0 0)
(-6.31878 -0.0709113 -5.24398e-21 0.0317216 9.60774e-23 3.32656e-39)
(-6.01236 -0.270193 0 0.0293039 0 0)
(-5.31994 -0.452222 0 0.0183061 0 0)
(-4.26542 -0.603606 0 -0.00115123 0 0)
(-2.95485 -0.699534 0 -0.0279365 0 0)
(-1.44987 -0.727881 0 -0.0597672 0 0)
(0.011147 -0.659911 0 -0.0866145 0 0)
(1.39655 -0.514616 0 -0.103128 0 0)
(2.34868 -0.261817 -2.69417e-21 -0.063384 -5.27571e-22 2.94667e-39)
(3.01064 -0.0750741 2.2199e-21 -0.0245258 5.47335e-22 2.90433e-39)
(3.14149 0.109268 -1.76147e-21 0.132097 -4.76464e-22 2.86175e-39)
(3.07598 0.0935312 -1.3051e-21 0.338435 -3.37725e-22 2.81885e-39)
(3.02074 -0.229972 0 0.442691 0 0)
(3.28937 -0.572189 0 0.31321 0 0)
(3.71642 -0.645757 3.6181e-22 0.485032 -1.23089e-23 2.67606e-39)
(4.17015 -0.704897 1.21328e-22 0.528308 1.52753e-22 2.62425e-39)
(4.60976 -0.779703 0 0.514233 0 0)
(5.09477 -0.854335 0 0.489814 0 0)
(5.85129 -1.00623 -4.57944e-22 0.506189 -1.49955e-23 2.47758e-39)
(7.19496 -1.29258 0 0.558305 0 0)
(9.38794 -1.71602 0 0.663656 0 0)
(12.9011 -2.33956 -1.38507e-21 0.837955 6.10052e-22 2.34395e-39)
(17.7792 -2.88413 0 0.893367 0 0)
(23.5174 -3.00903 -4.38157e-21 0.788457 9.32058e-22 2.25895e-39)
(28.786 -2.43104 -1.11159e-20 0.534296 1.33459e-21 8.86527e-39)
(32.2185 -1.49775 0 0.349128 0 0)
(33.2588 -0.581109 0 0.255027 0 0)
(31.5199 0.203452 0 0.244589 0 0)
(28.422 -0.0302892 0 0.323945 0 0)
(26.2752 0.255119 0 0.480996 0 0)
(23.5186 -0.0727937 -1.1614e-20 0.631277 -2.05135e-22 7.92517e-39)
(19.9849 -2.48198 -9.53285e-21 0.711214 1.35595e-21 7.77397e-39)
(15.0884 -1.91548 -5.94618e-21 0.886319 6.73576e-22 7.62208e-39)
(8.57825 2.86442 0 0.116505 0 0)
(-3.81769 4.75363 -3.51516e-21 0.168089 4.22222e-21 7.31232e-39)
(-13.6014 3.81602 0 0.131769 0 0)
(-21.6883 3.26121 1.57831e-20 0.125989 -2.96712e-21 7.00702e-39)
(-28.5726 2.62127 2.15414e-20 0.110948 -2.33357e-21 6.86053e-39)
(-34.0021 2.11357 0 0.0995868 0 0)
(-38.4424 1.65341 0 0.0887409 0 0)
(-41.8168 1.27334 0 0.0797569 0 0)
(-44.395 0.94613 3.62882e-20 0.0717604 -5.84367e-22 6.31915e-39)
(-46.1882 0.670542 0 0.0648113 0 0)
(-47.3484 0.433954 0 0.0584795 0 0)
(-47.9122 0.230662 0 0.052628 0 0)
(-47.9681 0.0540432 0 0.047071 0 0)
(-47.5552 -0.10014 0 0.0417083 0 0)
(-46.7296 -0.2353 0 0.0364954 0 0)
(-45.5264 -0.353873 0 0.0314148 0 0)
(-43.9856 -0.457527 0 0.0264947 0 0)
(-42.1383 -0.547208 -2.88026e-20 0.0217622 -8.48982e-22 5.3047e-39)
(-40.0178 -0.623702 0 0.0172817 0 0)
(-37.6572 -0.686987 0 0.0130834 0 0)
(-35.0961 -0.73771 1.95877e-20 0.00921416 9.14852e-22 5.00993e-39)
(-32.3701 -0.776 1.62884e-20 0.00568473 9.04059e-22 4.91509e-39)
(-29.5158 -0.802122 0 0.00251297 0 0)
(-26.5731 -0.816184 -9.7285e-21 -0.000294118 -8.41024e-22 4.7297e-39)
(-23.5799 -0.818791 6.58672e-21 -0.00272721 7.92081e-22 4.63899e-39)
(-20.5741 -0.810421 0 -0.00477121 0 0)
(-17.5924 -0.792157 -8.3076e-22 -0.00641649 -6.69756e-22 4.46121e-39)
(-14.6686 -0.765101 0 -0.00766924 0 0)
(-11.8324 -0.730895 0 -0.00855234 0 0)
(-9.10859 -0.691223 -6.01146e-21 -0.00910346 4.61911e-22 4.20264e-39)
(-6.51495 -0.647851 0 -0.00936685 0 0)
(-4.06276 -0.602794 9.26232e-21 -0.00938345 -3.32966e-22 4.03552e-39)
(-1.7582 -0.557529 0 -0.00919015 0 0)
(0.398805 -0.513503 -1.15615e-20 -0.00880494 2.2526e-22 3.87271e-39)
(2.41267 -0.472028 -1.24072e-20 -0.00821622 1.80651e-22 3.79295e-39)
(4.29098 -0.434077 -1.30812e-20 -0.00744391 1.4339e-22 3.7143e-39)
(6.04518 -0.399936 -2.72155e-20 -0.00662636 2.26375e-22 1.45472e-38)
(7.68722 -0.369466 2.80166e-20 -0.00599237 -1.7615e-22 1.42418e-38)
(9.22483 -0.340672 0 -0.00578082 0 0)
(10.6574 -0.310709 0 -0.00616952 0 0)
(11.9697 -0.276396 0 -0.00716421 0 0)
(13.1337 -0.234985 2.87752e-20 -0.00858578 6.72389e-23 1.30669e-38)
(14.1161 -0.185467 2.81319e-20 -0.0101972 1.68266e-22 1.27845e-38)
(14.8799 -0.128638 -2.70379e-20 -0.0117028 -2.82559e-22 1.25063e-38)
(15.3987 -0.0670445 0 -0.0128585 0 0)
(15.6576 -0.00439021 2.34965e-20 -0.0135374 5.08615e-22 1.19631e-38)
(15.6569 0.0556455 2.11579e-20 -0.0136981 5.99411e-22 1.16982e-38)
(15.4103 0.110088 1.8567e-20 -0.0133785 6.66116e-22 1.14379e-38)
(14.9403 0.15715 0 -0.0126612 0 0)
(14.2738 0.196224 0 -0.0116503 0 0)
(13.439 0.227503 0 -0.010451 0 0)
(12.4629 0.25162 7.64761e-21 -0.00915387 7.04636e-22 1.04414e-38)
(11.3716 0.269706 0 -0.00786786 0 0)
(10.1907 0.281803 0 -0.00658421 0 0)
(8.94294 0.288858 -6.40216e-22 -0.00536454 -6.00613e-22 9.73031e-39)
(7.65055 0.290772 0 -0.00422027 0 0)
(6.33326 0.288264 0 -0.00317342 0 0)
(5.01033 0.281493 4.58787e-21 -0.00223748 -4.59932e-22 9.05343e-39)
(3.6995 0.271282 0 -0.00142339 0 0)
(2.41752 0.258296 0 -0.000733872 0 0)
(1.17918 0.243435 -8.03402e-21 -0.000163778 3.24001e-22 8.41272e-39)
(-0.0047619 0.226735 -8.83515e-21 0.000288101 2.84156e-22 8.2065e-39)
(-1.12737 0.208715 0 0.000631119 0 0)
(-2.18205 0.189955 1.00154e-20 0.000878057 -2.14102e-22 7.80596e-39)
(-3.16351 0.170896 0 0.00104216 0 0)
(-4.06857 0.151871 -1.07409e-20 0.00113634 1.56577e-22 7.42208e-39)
(-4.89572 0.133154 0 0.001173 0 0)
(-5.64477 0.114965 -1.11261e-20 0.0011638 1.10275e-22 7.05412e-39)
(-6.3166 0.0974753 -1.12217e-20 0.00111921 9.05751e-23 6.87584e-39)
(-6.91293 0.0808041 0 0.00104859 0 0)
(-7.43607 0.0650215 0 0.00095947 0 0)
(-7.88875 0.0501769 0 0.000857818 0 0)
(-8.27413 0.0362954 0 0.000748659 0 0)
(-8.59529 0.0233617 0 0.000635812 0 0)
(-8.8556 0.0113527 0 0.000521934 0 0)
(-9.0584 0.000257647 0 0.000409774 0 0)
(-9.20706 -0.00991358 -1.06754e-20 0.000302428 -1.61728e-23 5.57474e-39)
(-9.30507 -0.0191604 1.05152e-20 0.000202088 2.44586e-23 5.42661e-39)
(-9.35609 -0.0274839 0 0.000110685 0 0)
(-9.36391 -0.0348188 0 3.24235e-05 0 0)
(-9.33296 -0.0410692 0 -2.82146e-05 0 0)
(-9.2679 -0.046372 0 -7.37407e-05 0 0)
(-9.17267 -0.0510364 1.91782e-20 -0.000111132 1.11935e-22 1.89195e-38)
(-9.0502 -0.0550492 0 -0.000139236 0 0)
(-8.90397 -0.0578788 -1.83476e-20 -0.000148906 -1.21062e-22 1.78826e-38)
(-8.73925 -0.0591859 1.79322e-20 -0.000146561 1.19378e-22 1.738e-38)
(-8.56176 -0.0593273 0 -0.000145461 0 0)
(-8.37621 -0.0590774 0 -0.000143375 0 0)
(-8.18517 -0.0590361 0 -0.00013604 0 0)
(-7.98938 -0.0592284 -1.63576e-20 -0.000126067 -1.24103e-22 1.54709e-38)
(-7.7891 -0.0591398 -1.59776e-20 -0.000113358 -1.23422e-22 1.5018e-38)
(-7.58548 -0.0582087 0 -9.87684e-05 0 0)
(-7.38077 -0.0563218 -1.52401e-20 -8.83815e-05 -1.12918e-22 1.41406e-38)
(-7.17752 -0.0539104 -1.48893e-20 -8.16858e-05 -1.06508e-22 1.37157e-38)
(-6.97741 -0.0516598 1.4552e-20 -7.06505e-05 1.01653e-22 1.32998e-38)
(-6.78063 -0.0501223 0 -5.34431e-05 0 0)
(-6.58596 -0.0495 0 -3.72855e-05 0 0)
(-6.39142 -0.0496496 1.35987e-20 -2.87608e-05 9.99832e-23 1.21047e-38)
(-6.19496 -0.0502261 0 -2.73378e-05 0 0)
(-5.99515 -0.0508383 0 -2.73015e-05 0 0)
(-5.79147 -0.051162 0 -2.28995e-05 0 0)
(-5.58426 -0.050998 0 -1.16399e-05 0 0)
(-5.37448 -0.0502472 -1.20517e-20 5.88008e-06 -1.02394e-22 1.02804e-38)
(-5.16363 -0.0488122 -1.17449e-20 2.73791e-05 -9.91406e-23 9.93959e-39)
(-4.95385 -0.0465378 0 4.84527e-05 0 0)
(-4.74819 -0.0432818 -1.11491e-20 6.16009e-05 -8.58961e-23 9.28079e-39)
(-4.55043 -0.0390864 0 5.98031e-05 0 0)
(-4.36436 -0.0342895 0 4.39682e-05 0 0)
(-4.19273 -0.0294213 -1.03641e-20 2.34971e-05 -5.5526e-23 8.348e-39)
(-4.03672 -0.0249702 0 7.54989e-06 0 0)
(-3.89574 -0.0212015 -9.93772e-21 -1.12441e-06 -3.99086e-23 7.76169e-39)
(-3.7685 -0.0181247 0 -4.66698e-06 0 0)
(-3.6532 -0.0155905 0 -5.89311e-06 0 0)
(-3.54893 -0.0134246 -9.41454e-21 -6.43544e-06 -2.57391e-23 6.93348e-39)
(-3.45428 -0.0115315 0 -6.82247e-06 0 0)
(-3.3693 -0.00990353 -9.12599e-21 -7.07671e-06 -1.92697e-23 6.41437e-39)
(-3.29196 -0.00861344 0 -7.16536e-06 0 0)
(-3.22264 -0.00769041 0 -7.11224e-06 0 0)
(-3.15732 -0.00720825 0 -7.29124e-06 0 0)
(-3.09719 -0.00706725 8.65417e-21 -7.70504e-06 1.46595e-23 5.45208e-39)
(-3.03567 -0.00739694 0 -9.12073e-06 0 0)
(-2.97608 -0.00790636 -8.44146e-21 -1.075e-05 -1.66437e-23 5.00752e-39)
(-2.90903 -0.00907672 0 -1.51288e-05 0 0)
(-2.83936 -0.0101646 0 -1.86592e-05 0 0)
(-2.75725 -0.0126839 0 -3.2162e-05 0 0)
(-2.65993 -0.0144001 0 -3.83141e-05 0 0)
(-2.55474 -0.0198023 0 -8.78279e-05 0 0)
(-2.3895 -0.0220195 0 -9.10673e-05 0 0)
(-2.26654 -0.0344099 0 -0.000317229 0 0)