/*--------------------------------*- C++ -*----------------------------------*\
  =========                 |
  \\      /  F ield         | OpenFOAM: The Open Source CFD Toolbox
   \\    /   O peration     | Website:  https://openfoam.org
    \\  /    A nd           | Version:  9
     \\/     M anipulation  |
\*---------------------------------------------------------------------------*/
FoamFile
{
    format      ascii;
    class       volScalarField;
    location    "0.04";
    object      epsilon;
}
// * * * * * * * * * * * * * * * * * * * * * * * * * * * * * * * * * * * * * //

dimensions      [0 2 -3 0 0 0 0];

internalField   nonuniform List<scalar> 
12225
(
222.803
168.197
130.502
105.022
88.5696
78.8883
74.2944
73.4511
75.256
78.7895
83.293
88.1586
92.9196
97.2387
100.89
104.074
107.662
111.278
39.9297
48.7004
52.5732
56.5846
62.8568
72.4586
85.9464
103.421
124.506
148.392
173.957
199.93
225.052
248.198
268.446
284.773
296.024
301.122
19.9043
23.8906
26.6157
28.7695
30.8935
33.3464
36.3564
40.0326
44.3614
49.2163
54.3853
59.6059
64.6002
69.1052
72.8849
75.7709
78.0515
79.464
15.8869
17.1998
18.3302
19.2766
20.131
20.9818
21.8942
22.9046
24.0187
25.2137
26.4454
27.6574
28.7886
29.7802
30.5594
31.1976
31.6974
32.0369
14.818
15.0465
15.3484
15.6469
15.9276
16.1972
16.468
16.7498
17.0465
17.3547
17.6652
17.9647
18.2375
18.4632
18.6496
18.7984
18.9069
18.9714
14.5156
14.3138
14.2086
14.1554
14.1295
14.1192
14.1194
14.1283
14.1448
14.1671
14.1919
14.2153
14.2303
14.2384
14.2392
14.2308
14.2118
14.1804
14.4322
14.0726
13.7837
13.5491
13.3546
13.1898
13.0472
12.9217
12.8097
12.7085
12.6156
12.5278
12.4446
12.3657
12.2896
12.2152
12.1414
12.067
14.4104
13.9987
13.6366
13.3186
13.0384
12.7901
12.5682
12.3683
12.1866
12.0205
11.867
11.7248
11.5928
11.4697
11.3543
11.2456
11.1425
11.0442
14.4051
13.9779
13.5901
13.2388
12.9204
12.6316
12.3688
12.129
11.9093
11.7072
11.5207
11.3484
11.1887
11.0404
10.9024
10.7734
10.6525
10.5393
14.4038
13.9724
13.5767
13.2137
12.8806
12.5747
12.2935
12.0346
11.7958
11.5752
11.3712
11.1822
11.0068
10.844
10.6924
10.5512
10.4192
10.2964
14.4034
13.971
13.573
13.2064
12.8682
12.556
12.2675
12.0006
11.7534
11.5243
11.3117
11.1142
10.9307
10.7599
10.6009
10.4526
10.3141
10.1856
14.4033
13.9706
13.572
13.2043
12.8646
12.5504
12.2595
11.9898
11.7395
11.507
11.2909
11.0898
10.9027
10.7282
10.5656
10.4138
10.272
10.1404
14.4033
13.9704
13.5715
13.2034
12.8631
12.5481
12.2562
11.9853
11.7336
11.4996
11.2819
11.079
10.89
10.7136
10.549
10.3952
10.2515
10.1183
14.4033
13.9703
13.5712
13.2028
12.8622
12.5468
12.2543
11.9827
11.7304
11.4955
11.2768
11.0729
10.8827
10.7052
10.5393
10.3843
10.2394
10.105
14.4033
13.9702
13.571
13.2024
12.8615
12.5457
12.2528
11.9808
11.7279
11.4924
11.273
11.0683
10.8773
10.6989
10.532
10.376
10.2301
10.0948
14.4032
13.9702
13.5709
13.2021
12.8609
12.5448
12.2515
11.979
11.7256
11.4895
11.2694
11.064
10.8722
10.6929
10.5251
10.3681
10.2212
10.085
14.4033
13.9702
13.5708
13.2018
12.8604
12.544
12.2503
11.9774
11.7233
11.4866
11.2659
11.0597
10.867
10.6868
10.5181
10.3601
10.2121
10.0748
14.4033
13.9702
13.5707
13.2016
12.86
12.5433
12.2492
11.9758
11.7212
11.4839
11.2624
11.0555
10.8619
10.6808
10.511
10.352
10.2028
10.0643
14.4033
13.9702
13.5707
13.2015
12.8596
12.5426
12.2482
11.9744
11.7193
11.4814
11.2592
11.0515
10.8571
10.675
10.5043
10.3441
10.1939
10.0541
14.4033
13.9702
13.5707
13.2014
12.8595
12.5423
12.2477
11.9735
11.718
11.4797
11.257
11.0488
10.8538
10.6711
10.4997
10.3387
10.1876
10.047
14.4034
13.9703
13.5707
13.2014
12.8594
12.5422
12.2475
11.9732
11.7176
11.479
11.2562
11.0477
10.8525
10.6695
10.4978
10.3366
10.1852
10.0443
14.4034
13.9703
13.5709
13.2016
12.8598
12.5427
12.2481
11.9741
11.7188
11.4807
11.2583
11.0504
10.8557
10.6734
10.5025
10.3421
10.1916
10.0516
14.4035
13.9706
13.5716
13.2032
12.8625
12.547
12.2545
11.9829
11.7305
11.4955
11.2766
11.0725
10.8819
10.7039
10.5374
10.3817
10.2361
10.1011
14.4041
13.9732
13.5779
13.2153
12.8824
12.5765
12.295
12.0356
11.7962
11.5749
11.37
11.1803
11.0044
10.8413
10.69
10.5497
10.4197
10.3004
14.4095
13.9935
13.6225
13.2917
12.9957
12.7297
12.4895
12.2717
12.0734
11.8927
11.7279
11.5778
11.4413
11.3178
11.2064
11.1067
11.0182
10.9411
14.4524
14.1255
13.8694
13.6623
13.4888
13.3391
13.2073
13.0907
12.9882
12.9001
12.8268
12.7691
12.7277
12.7035
12.6967
12.7078
12.7367
12.783
14.7367
14.8181
14.9571
15.0925
15.2084
15.3068
15.3962
15.488
15.5936
15.7231
15.8855
16.088
16.3363
16.6347
16.986
17.3919
17.853
18.3662
16.4073
17.962
19.1145
19.9435
20.5805
21.1299
21.6708
22.2661
22.9658
23.8104
24.8324
26.0577
27.5065
29.1929
31.1256
33.3082
35.7396
38.4068
27.2042
32.6585
34.9777
36.1901
37.2314
38.5659
40.4663
43.1127
46.6352
51.1347
56.6921
63.3695
71.2077
80.2237
90.4092
101.73
114.136
127.489
142.549
119.583
101.635
87.5271
76.444
67.7949
61.1407
56.1453
52.5446
50.1266
48.7179
48.1739
48.3711
49.2028
50.575
52.4039
54.6155
57.1351
4.90052
2.57813
2.92643
3.07103
3.13701
3.16314
3.16758
3.15971
3.13792
3.10015
3.04926
3.01026
2.98033
2.95918
2.94559
2.93864
2.94001
2.95309
2.98401
3.046
3.15055
3.31144
3.54228
3.84752
4.22596
4.67817
5.21745
5.88152
6.7075
7.88928
40.4063
51.0693
62.3612
74.6161
88.3144
103.934
121.193
137.54
146.619
144.716
129.167
101.094
68.7258
42.285
6.83498
4.81238
3.74053
3.30102
3.21209
3.29625
3.44529
3.5993
3.72289
3.83135
3.93593
4.03947
4.14582
4.26347
4.38442
4.4668
4.43667
4.26629
3.96435
3.60467
3.31403
3.18278
3.30209
3.75667
4.59799
5.80705
7.57655
10.2439
61.5331
96.699
183.937
305.017
427.195
539.843
635.008
709.385
762.77
796.819
814.136
817.659
810.264
794.541
772.668
746.397
717.06
685.581
653.389
620.728
587.691
554.381
520.925
487.484
454.259
421.479
389.391
358.239
328.236
299.547
272.269
246.421
221.952
198.759
176.72
155.733
135.761
116.858
99.1746
83.0246
69.2374
61.293
61.6622
63.5547
66.1354
69.4684
73.692
78.9204
85.2178
92.5822
100.933
110.103
119.848
129.862
139.798
149.301
158.11
165.559
170.398
172.42
171.644
168.302
162.788
155.598
147.266
138.299
129.137
120.135
111.553
103.564
96.2686
89.711
83.8962
78.802
74.3906
70.6078
67.4177
64.457
12.3009
10.1545
8.4461
7.09113
6.01681
5.15999
4.46907
3.90519
3.44062
3.05561
2.73551
2.46875
2.24584
2.05883
1.90111
1.76724
1.65281
1.55427
1.46885
1.39434
1.32899
1.27138
1.22039
1.17515
1.13506
1.09982
1.06943
1.04461
1.02512
1.02069
2.74537
2.22093
2.47342
2.81679
3.48093
4.71505
5.06546
5.16465
5.13894
4.98847
4.74384
4.49742
4.28966
4.2337
4.37083
4.71806
5.29738
6.13431
7.3026
8.8301
10.8092
13.2858
16.3183
19.6947
22.9459
25.9092
28.4956
30.5635
32.1047
33.235
34.0474
33.9326
33.205
31.9877
30.4733
29.0125
28.2039
29.0203
33.2825
37.8701
40.2703
39.4047
36.5043
32.673
31.0182
29.8442
27.7864
24.4773
20.318
16.0888
12.3763
9.49713
7.62109
6.72827
6.49936
6.59229
6.90298
7.5133
8.41741
9.49016
10.3715
10.6223
10.0388
8.78659
7.31336
6.34229
6.4748
8.73266
15.5017
31.5986
60.6178
97.9635
126.698
149.367
172.105
187.232
193.287
190.534
180.686
165.975
148.637
130.643
113.556
98.4669
85.9961
76.3409
69.3832
64.7999
62.1396
60.991
60.0715
59.1905
58.349
57.5528
56.811
56.1363
55.5445
55.0531
54.6787
54.433
54.3177
54.3184
54.3979
54.4913
54.5032
54.3118
53.7789
52.7681
51.1709
48.9349
46.0794
42.7032
38.9867
35.3778
32.4357
29.6792
27.1239
24.824
22.8042
21.0667
19.5969
18.3684
17.3474
16.4963
15.7772
15.1539
14.5944
14.072
13.572
13.273
13.6125
14.1691
14.6449
14.9058
14.8982
14.6308
14.1459
13.4988
12.7456
11.9364
11.1117
10.302
9.528
8.8024
8.13176
7.51813
6.96079
6.45681
5.99413
5.57562
4.8671
4.41069
4.1069
3.90372
3.77037
3.68648
3.63772
3.6144
3.61062
3.62311
3.64998
3.68983
3.74136
3.8033
3.87455
3.95433
4.04228
4.13854
4.24379
4.35929
4.48695
4.62946
4.79048
4.97505
5.18998
5.4459
5.7542
6.14933
6.60651
7.44651
1.3427
1.62367
2.24895
3.72239
5.22479
5.58601
5.60072
5.70918
6.07416
6.27118
6.42375
7.22002
9.0385
11.5993
14.7073
18.2413
22.1199
26.2605
30.5387
34.7949
38.8852
42.6562
45.9579
48.685
50.7864
52.3081
53.2969
53.7801
53.7673
53.2578
52.241
50.7115
48.6621
46.091
43.1224
40.0844
37.1296
34.5192
32.3599
30.5788
29.0495
27.3832
25.3343
23.2378
21.7095
21.0367
21.1736
21.6799
21.7082
20.5132
17.9704
14.69
11.5586
9.11301
7.40452
6.31117
5.81037
5.86216
6.45369
7.59967
9.09978
10.3591
10.6773
9.96376
9.04581
9.57166
14.1266
27.2205
52.43
79.9989
94.1613
100.445
104.567
106.771
106.349
101.567
92.9507
82.0179
70.6406
60.3507
51.9964
45.7738
41.463
38.6706
36.9854
36.0545
35.6071
35.4533
35.4696
35.52
35.5592
35.6072
35.6899
35.8329
36.06
36.3935
36.8543
37.4609
38.2289
39.1679
40.2775
41.5415
42.9213
44.3491
45.7242
46.914
47.7621
48.106
47.8009
46.7546
44.9339
42.3694
39.112
35.7127
32.4811
29.2991
26.258
23.4267
20.8427
18.5207
16.4586
14.6435
13.0555
11.6716
10.4675
9.41957
8.50597
7.70691
7.00606
6.39673
5.87891
5.45464
5.13034
4.87599
4.6652
4.47627
4.29306
4.10534
3.90841
3.70185
3.48811
3.27108
3.05503
2.84389
2.64086
2.44829
2.26774
2.10004
1.94521
1.80405
1.67146
1.55195
1.44731
1.35728
1.28056
1.21552
1.1605
1.114
1.07479
1.04195
1.01469
0.992385
0.974502
0.960623
0.950441
0.943767
0.940535
0.940819
0.944863
0.953121
0.966316
0.985526
1.01232
1.04897
1.09879
1.16653
1.25979
1.38826
1.57227
1.83278
0.834703
1.99658
4.54816
5.91229
6.00454
6.82269
8.03165
9.51607
13.0836
16.5977
19.6882
22.5855
25.986
29.9769
34.3259
38.7547
43.0498
47.0678
50.7061
53.889
56.5649
58.6908
60.2522
61.2559
61.8927
62.2203
62.2572
62.0032
61.4468
60.5637
59.3241
57.6975
55.6545
53.1771
50.2706
46.9746
43.3742
39.8494
36.6165
33.7859
31.3692
29.1682
26.878
24.309
21.6408
19.3227
17.7446
17.0824
17.1243
17.2363
16.7044
15.2704
13.2689
11.2119
9.40019
7.92339
6.82021
6.27323
6.44387
7.46524
9.33902
11.596
13.2433
13.8007
14.7533
20.4763
36.4736
62.5225
81.1403
83.5101
81.8282
79.8541
77.6206
74.1617
68.808
61.7395
54.1919
47.4529
42.2873
38.8445
36.8804
36.0055
35.836
36.0561
36.432
36.805
37.0791
37.2075
37.1765
37.0059
36.7276
36.3829
36.0168
35.6748
35.3999
35.2318
35.206
35.3536
35.7006
36.2661
37.0583
38.0691
39.2673
40.5924
41.9506
43.2159
44.2369
44.8522
44.9072
44.2968
42.9569
40.8757
38.1786
35.3847
32.4649
29.5086
26.618
23.868
21.3062
18.9585
16.8348
14.9331
13.2437
11.752
10.4409
9.29216
8.28781
7.41054
6.64446
5.97573
5.39236
4.88416
4.44391
4.0652
3.73841
3.45457
3.20568
2.98491
2.78664
2.60645
2.44104
2.288
2.14569
2.01297
1.88904
1.77336
1.66548
1.56505
1.47171
1.38517
1.30496
1.2308
1.16244
1.09965
1.04209
0.989398
0.941186
0.897065
0.856669
0.819661
0.785728
0.754588
0.725982
0.699685
0.675502
0.653277
0.632883
0.614234
0.597287
0.582049
0.568592
0.557077
0.54779
0.541201
0.538077
0.539623
0.547947
0.566028
0.600994
0.658483
1.00404
3.95473
5.21557
6.60069
8.20279
15.1565
21.3967
24.733
27.0253
30.2826
34.0584
37.8847
41.7223
45.558
49.2703
52.7087
55.7624
58.367
60.4939
62.1409
63.3287
64.0978
64.5027
64.6539
64.7057
64.6677
64.525
64.2484
63.7982
63.1279
62.1878
60.9307
59.317
57.3209
54.9324
52.1502
48.965
45.3602
41.3067
37.1672
33.2324
29.7594
26.9532
24.8403
23.1369
21.3028
19.1768
17.1501
15.6415
14.7082
14.0503
13.293
12.2761
11.0747
9.83673
8.69067
7.75195
7.16414
7.25583
8.3942
10.8492
14.3985
18.0716
21.6193
28.9397
44.4017
65.2101
76.3113
74.4037
69.5146
65.4414
62.0759
58.414
53.8607
48.612
43.4675
39.2616
36.3863
34.8041
34.2499
34.4054
34.9885
35.7796
36.6167
37.3816
37.989
38.38
38.5206
38.4244
38.11
37.6071
36.96
36.2233
35.4565
34.7204
34.073
33.5674
33.2495
33.1563
33.314
33.7336
34.4073
35.3027
36.3587
37.4849
38.567
39.4745
40.0749
40.2341
39.853
38.8702
37.2947
35.3895
33.2099
30.8432
28.3854
25.9232
23.5244
21.2372
19.0933
17.111
15.2985
13.6564
12.1799
10.8606
9.6878
8.64951
7.7332
6.92636
6.21701
5.59391
5.04679
4.56658
4.14571
3.77709
3.4538
3.16967
2.91921
2.6976
2.50069
2.32491
2.16729
2.0253
1.89687
1.78027
1.67406
1.57702
1.48814
1.40654
1.33148
1.26229
1.1984
1.1393
1.08453
1.03369
0.98642
0.942383
0.901282
0.862848
0.826838
0.793035
0.761248
0.731309
0.703069
0.676402
0.651199
0.627368
0.604832
0.583528
0.563408
0.544439
0.526608
0.509931
0.494465
0.480335
0.467776
0.457237
0.449481
0.446201
0.44966
1.93521
4.62592
7.70064
18.5561
25.6641
29.0786
32.6334
36.1025
39.2387
42.4326
45.6114
48.5816
51.2995
53.7613
55.9287
57.7555
59.2171
60.3181
61.0889
61.5777
61.8417
61.9377
61.9142
61.9672
62.1328
62.3855
62.6797
62.9535
63.1314
63.1288
62.8578
62.2365
61.2012
59.7181
57.7887
55.4387
52.6892
49.5251
45.8847
41.6252
36.8257
32.149
27.9012
24.4366
21.9985
20.585
19.7073
18.5615
16.8662
15.0675
13.5152
12.2565
11.1916
10.2319
9.34548
8.55572
7.95247
7.71596
8.20088
9.99353
13.7122
19.6031
27.2053
37.8351
52.3954
66.0655
70.9248
67.2172
61.3433
56.5114
52.8928
49.5631
45.8873
41.9399
38.2478
35.3393
33.4471
32.5017
32.2821
32.5469
33.0994
33.7986
34.5454
35.2633
35.8855
36.3521
36.6128
36.6423
36.4212
35.9667
35.3169
34.5236
33.6452
32.7428
31.877
31.1065
30.4852
30.0596
29.8651
29.9222
30.2319
30.7725
31.497
32.3342
33.1937
33.9784
34.594
34.9595
34.9964
34.6324
33.8812
32.8015
31.4337
29.8295
28.053
26.1695
24.2387
22.311
20.4256
18.6121
16.8919
15.2792
13.7827
12.4064
11.1508
10.0133
8.98905
8.07147
7.25294
6.52522
5.87991
5.30871
4.80369
4.35752
3.96362
3.61587
3.3087
3.0371
2.79661
2.58327
2.39359
2.22453
2.07344
1.93803
1.8163
1.70654
1.60729
1.51725
1.43533
1.36056
1.2921
1.22923
1.17129
1.11773
1.06805
1.02181
0.978624
0.938166
0.900136
0.864274
0.830358
0.798195
0.767624
0.738513
0.710749
0.684245
0.658929
0.634743
0.611639
0.589578
0.568526
0.548449
0.529324
0.511131
0.493869
0.477562
0.462287
0.448225
0.435775
0.425637
7.07298
16.0606
25.7881
30.6777
35.3305
39.0273
42.2196
45.0112
47.3265
49.3061
50.9901
52.3551
53.4097
54.1738
54.6606
54.8903
54.9012
54.7493
54.502
54.2286
53.9922
53.8435
53.8186
54.1645
54.8282
55.7733
56.9439
58.2586
59.6074
60.8515
61.8291
62.3712
62.3289
61.6086
60.2023
58.189
55.6888
52.7831
49.4562
45.5896
41.0363
35.7009
30.5386
25.8631
21.9014
18.9547
17.2092
16.4825
16.0995
15.1908
13.751
12.2229
10.8735
9.78106
8.93442
8.32418
8.0226
8.25785
9.4601
12.4384
18.3956
28.4863
43.4196
59.5142
68.1943
67.3834
61.9628
55.7423
50.6901
47.0426
44.0698
41.1218
38.1186
35.3911
33.2923
31.974
31.3729
31.3125
31.6091
32.1237
32.7661
33.4736
34.1888
34.8474
35.3781
35.7113
35.7833
35.5445
34.9949
34.1776
33.166
32.0487
30.9137
29.8374
28.8819
28.0962
27.518
27.1748
27.0807
27.2322
27.6026
28.1385
28.7645
29.3903
29.9275
30.3033
30.48
30.444
30.1784
29.7121
29.0545
28.2144
27.2052
26.0489
24.7737
23.4106
21.9901
20.5403
19.0856
17.6473
16.2433
14.8888
13.5963
12.3758
11.2343
10.1763
9.20392
8.3167
7.51242
6.78732
6.13654
5.55455
5.03549
4.57357
4.16293
3.79823
3.47446
3.18701
2.93167
2.70466
2.5026
2.32248
2.16163
2.01771
1.88867
1.77268
1.66817
1.57376
1.48821
1.41047
1.3396
1.27478
1.21528
1.16046
1.10977
1.0627
1.01884
0.977788
0.939219
0.902836
0.868389
0.835661
0.804471
0.774671
0.746141
0.718789
0.692543
0.667351
0.643174
0.61998
0.597745
0.576445
0.556056
0.536555
0.517917
0.50013
0.48319
0.467133
0.452059
0.438192
24.2035
30.3529
36.0191
40.3175
43.8408
46.4532
48.2741
49.4665
50.1156
50.3487
50.2467
49.8506
49.2
48.3377
47.3107
46.1763
45.0032
43.8674
42.8472
42.018
41.4475
41.1912
41.4082
42.0758
43.1868
44.7428
46.7351
49.1296
51.8478
54.7456
57.5972
60.0979
61.9035
62.7131
62.3736
60.9534
58.7047
55.9082
52.7136
49.0922
44.8826
39.8475
34.0977
28.7346
23.7474
19.3936
16.0036
13.7879
12.7073
12.3949
12.0359
11.1897
10.1418
9.17206
8.43166
8.00764
8.05229
8.91049
11.2167
16.0405
25.587
42.2997
61.6909
71.1458
66.9628
58.8613
51.957
46.7359
43.0823
40.3692
37.9653
35.6642
33.6347
32.1171
31.2151
30.8734
30.9524
31.3134
31.8628
32.5498
33.341
34.1962
35.0551
35.8364
36.4463
36.7903
36.7729
36.3525
35.5244
34.3416
32.9098
31.3651
29.845
28.4645
27.3051
26.4169
25.8256
25.5366
25.5355
25.7847
26.2176
26.7339
27.2216
27.5692
27.7016
27.5845
27.2477
26.766
26.1855
25.5433
24.8524
24.1141
23.3242
22.4786
21.577
20.6227
19.6221
18.5833
17.5159
16.4302
15.3378
14.2506
13.1808
12.1403
11.1398
10.1884
9.29337
8.45947
7.68941
6.98382
6.3416
5.76031
5.23658
4.76656
4.34558
3.96929
3.63342
3.33385
3.06674
2.82852
2.61596
2.42612
2.25639
2.10442
1.96813
1.84568
1.73543
1.63595
1.54596
1.46434
1.39009
1.32233
1.26029
1.20328
1.1507
1.10201
1.05674
1.01448
0.974856
0.937546
0.90227
0.868788
0.836893
0.806415
0.777216
0.749184
0.722239
0.696318
0.671381
0.647398
0.624349
0.602218
0.58099
0.560649
0.541178
0.52256
0.504784
0.487852
0.471792
0.456691
33.4738
40.7033
45.136
48.0537
49.7573
50.4523
50.3347
49.6201
48.4648
47.0006
45.3182
43.4784
41.5325
39.5306
37.5257
35.5769
33.7491
32.1117
30.7355
29.6886
29.0315
28.8122
29.1252
29.8208
30.9219
32.4743
34.5408
37.1937
40.4942
44.45
48.9467
53.672
58.0863
61.5114
63.3534
63.3872
61.8737
59.3387
56.2194
52.6932
48.6949
44.0053
38.347
32.5408
26.89
21.5187
16.8309
13.1717
10.6984
9.3382
8.84624
8.65462
8.2676
7.78335
7.39966
7.32778
7.8824
9.63725
13.6056
21.5318
35.7814
55.5276
70.4327
68.9194
58.315
49.8037
44.0621
40.2778
37.6897
35.6506
33.8522
32.3314
31.2373
30.6371
30.4781
30.6464
31.0364
31.5859
32.2699
33.0758
33.9823
34.9489
35.9132
36.7919
37.4863
37.8935
37.9341
37.5227
36.6154
35.243
33.5195
31.6209
29.7424
28.0526
26.6682
25.6498
25.0172
24.7563
24.8215
25.1364
25.5919
26.0304
26.309
26.3067
25.9844
25.3918
24.6195
23.7691
22.9197
22.1202
21.3858
20.7079
20.0661
19.4375
18.8025
18.1465
17.4599
16.7376
15.978
15.183
14.3575
13.5091
12.6471
11.7826
10.927
10.0912
9.28533
8.51764
7.79449
7.12017
6.49694
5.92532
5.40478
4.93272
4.50641
4.12271
3.77818
3.46936
3.19284
2.94536
2.72388
2.52561
2.348
2.18873
2.04575
1.91719
1.80141
1.69694
1.60246
1.51683
1.43899
1.36805
1.30319
1.24368
1.1889
1.13827
1.0913
1.04754
1.0066
0.96814
0.931852
0.897473
0.864778
0.833575
0.803704
0.775038
0.747476
0.720946
0.695395
0.670789
0.647108
0.624338
0.602472
0.581502
0.56142
0.542219
0.523892
0.506439
0.489874
0.474242
39.0694
47.8763
51.4615
52.7381
52.4416
51.1421
49.1696
46.7914
44.194
41.507
38.8112
36.1549
33.5721
31.0952
28.7624
26.6212
24.7254
23.1286
21.8763
20.9993
20.5119
20.4169
20.7046
21.2535
22.0782
23.2134
24.7263
26.7316
29.4047
32.9717
37.6378
43.4231
49.9535
56.3562
61.4183
64.1492
64.3882
62.7515
60.0125
56.6644
52.8387
48.4081
43.1393
37.268
31.2388
25.0857
19.2812
14.3423
10.6097
8.1479
6.79046
6.27443
6.14407
6.0673
6.09329
6.46452
7.61679
10.2782
15.6707
25.8858
42.7842
61.5312
68.7931
60.1277
49.4534
42.5047
38.2854
35.6452
33.8002
32.3332
31.1666
30.3728
29.9865
29.952
30.1695
30.5544
31.0621
31.6776
32.393
33.1937
34.0555
34.9465
35.8255
36.6358
37.3004
37.7711
37.9406
37.6804
36.8912
35.5485
33.7364
31.6429
29.5141
27.5844
26.0266
24.9185
24.2767
24.0723
24.2207
24.5928
25.04
25.3482
25.3617
25.0103
24.3072
23.3442
22.2518
21.1593
20.1598
19.299
18.5814
17.9846
17.4744
17.0156
16.5777
16.1366
15.6747
15.18
14.6454
14.0677
13.4477
12.7894
12.0993
11.3865
10.6612
9.93422
9.21642
8.51766
7.84642
7.2094
6.6114
6.05542
5.54314
5.07377
4.64619
4.25846
3.9081
3.59236
3.30835
3.0532
2.82413
2.61851
2.4339
2.26806
2.11896
1.98476
1.8638
1.75459
1.65581
1.56626
1.48491
1.41079
1.34308
1.28102
1.22395
1.17129
1.12251
1.07714
1.03478
0.995053
0.957651
0.922289
0.888722
0.856743
0.826174
0.796872
0.768718
0.741627
0.715532
0.690392
0.666179
0.642881
0.620491
0.599009
0.578434
0.558769
0.540016
0.522179
0.505274
0.489334
41.7165
51.2784
54.2041
54.1373
52.2347
49.3831
46.0501
42.5576
39.1037
35.797
32.6816
29.7665
27.0522
24.5489
22.2828
20.2932
18.6219
17.3016
16.3451
15.7424
15.4674
15.4874
15.7897
16.3225
17.066
17.9955
19.0934
20.383
21.995
24.242
27.6194
32.6216
39.427
47.5752
55.684
61.8506
64.9143
65.1185
63.4185
60.6535
57.2098
53.1277
48.3001
42.8131
36.7711
30.1804
23.4574
17.2529
12.1786
8.54489
6.29202
5.14099
4.76834
4.79261
5.09737
5.87701
7.60133
11.0762
17.7182
29.7106
47.0171
61.2854
61.4648
50.9087
42.1896
37.0243
34.0673
32.2411
30.9565
30.0155
29.4233
29.1883
29.2477
29.5051
29.8862
30.3573
30.9069
31.5227
32.1812
32.8533
33.5158
34.1566
34.7678
35.3403
35.8568
36.2994
36.5481
36.4587
35.8871
34.7431
33.0491
30.9642
28.7491
26.6913
25.0492
23.9182
23.3082
23.1827
23.4183
23.816
24.1769
24.3091
24.0744
23.4282
22.4305
21.2202
19.9587
18.7824
17.7746
16.9641
16.338
15.8606
15.488
15.1783
14.8963
14.6146
14.3129
13.9772
13.5986
13.1724
12.6979
12.1773
11.6156
11.0201
10.3996
9.7639
9.12323
8.4876
7.86621
7.26698
6.69624
6.15892
5.65779
5.19405
4.76791
4.37855
4.02445
3.70358
3.41361
3.15206
2.91647
2.7044
2.51356
2.3418
2.18712
2.04772
1.92195
1.80831
1.70547
1.61222
1.52748
1.4503
1.37982
1.31525
1.25593
1.20123
1.15063
1.10363
1.0598
1.01878
0.98022
0.943829
0.90935
0.87656
0.845268
0.815317
0.786575
0.758941
0.732337
0.706711
0.682028
0.65827
0.635431
0.613512
0.592519
0.572461
0.553349
0.535194
0.518014
0.50184
41.8289
51.4065
53.8925
53.0191
50.124
46.3267
42.2219
38.1789
34.3898
30.9227
27.7698
24.8935
22.2607
19.86
17.7065
15.8364
14.2894
13.0892
12.235
11.7101
11.4983
11.5939
11.9979
12.6812
13.6288
14.8055
16.1288
17.4504
18.6205
19.734
21.4106
24.5949
29.9983
37.8675
47.4169
56.4388
62.6408
65.3793
65.4106
63.802
61.1601
57.7024
53.5412
48.7023
43.0649
36.5693
29.4093
22.1603
15.6485
10.5716
7.16866
5.23577
4.39524
4.32579
4.78548
5.88898
8.08629
12.2514
19.9768
32.837
48.2016
56.8876
52.8638
43.2443
36.6248
32.9457
30.916
29.6736
28.8506
28.376
28.2417
28.3799
28.6863
29.0844
29.5473
30.0732
30.6513
31.2476
31.8128
32.3012
32.6897
32.9845
33.2189
33.4387
33.7103
33.9896
34.1918
34.1836
33.8016
32.9049
31.4548
29.5657
27.4651
25.4304
23.8406
22.7819
22.2524
22.1816
22.4212
22.7679
23.0016
22.93
22.4426
21.545
20.35
19.0289
17.7493
16.6313
15.7328
15.0586
14.5789
14.2476
14.0165
13.8423
13.6894
13.5305
13.3457
13.1212
12.8484
12.5232
12.1451
11.7166
11.2423
10.7288
10.1841
9.61697
9.03669
8.45264
7.87379
7.30827
6.76308
6.24421
5.75508
5.29825
4.875
4.48549
4.12903
3.80428
3.50945
3.24249
3.00122
2.78345
2.58701
2.40988
2.25011
2.10593
1.9757
1.85794
1.75131
1.65458
1.56667
1.48658
1.41345
1.34649
1.28498
1.22832
1.17593
1.12733
1.08206
1.03974
1.00002
0.962593
0.927188
0.893574
0.861548
0.830942
0.801611
0.773444
0.74635
0.720268
0.695153
0.670982
0.647744
0.625442
0.604083
0.583681
0.564253
0.545817
0.528393
0.512013
39.785
49.4543
51.7291
50.5995
47.2661
43.0349
38.6132
34.411
30.606
27.2219
24.2006
21.4601
18.933
16.5915
14.4619
12.6058
11.0749
9.87881
8.99985
8.42977
8.19746
8.35538
8.82009
9.56496
10.6063
11.9727
13.6702
15.5777
17.3064
18.3652
18.9791
20.4227
23.8926
30.1528
39.2506
49.496
58.0352
63.2374
65.2735
65.2321
63.8419
61.4453
58.2037
54.1671
49.2723
43.4141
36.5513
28.9351
21.2964
14.6504
9.74223
6.69829
5.1885
4.82621
5.31198
6.62044
9.18056
13.9756
22.4884
34.9143
46.8271
50.7959
45.1911
37.2853
32.424
29.8601
28.4906
27.6894
27.2591
27.173
27.3727
27.7416
28.181
28.6585
29.1865
29.7735
30.3933
30.9841
31.4687
31.7824
31.8967
31.8339
31.6706
31.5007
31.4296
31.4387
31.4671
31.4078
31.1029
30.3843
29.164
27.5569
25.7471
24.0091
22.5942
21.6417
21.1825
21.1383
21.3445
21.582
21.6272
21.312
20.5772
19.4881
18.2002
16.8947
15.7198
14.7618
14.0463
13.5544
13.2437
13.0639
12.9674
12.9131
12.8678
12.8062
12.7094
12.5645
12.3641
12.105
11.7881
11.4168
10.9966
10.5347
10.0388
9.51734
8.97894
8.43221
7.88549
7.34658
6.82278
6.3195
5.84113
5.39089
4.97077
4.58168
4.22358
3.89571
3.59677
3.32509
3.07879
2.85589
2.65438
2.47234
2.30789
2.15931
2.02498
1.90341
1.79325
1.69328
1.6024
1.5196
1.44399
1.37476
1.31121
1.25267
1.19859
1.14845
1.1018
1.05822
1.01737
0.978932
0.942619
0.908192
0.87544
0.844185
0.814275
0.785586
0.75802
0.731505
0.705988
0.681439
0.657843
0.635199
0.613515
0.592808
0.573098
0.554407
0.53676
0.520187
35.418
46.9019
49.1877
48.072
44.6752
40.3132
35.8083
31.6205
27.9231
24.7069
21.8725
19.2942
16.8668
14.5578
12.4318
10.5916
9.08881
7.9021
6.99479
6.38364
6.16428
6.41783
6.93188
7.67865
8.67451
9.97469
11.6801
13.8587
16.2523
18.0459
18.7129
19.3122
21.3204
25.8119
33.3734
43.1382
52.5247
59.3253
63.1541
64.7164
64.7234
63.5689
61.4384
58.4111
54.4708
49.5537
43.5806
36.5152
28.6543
20.9044
14.4253
9.93274
7.40884
6.42219
6.70409
8.06531
10.9325
16.2716
24.9382
35.69
43.8429
44.638
38.9949
32.7956
29.2237
27.4626
26.5686
26.1192
26.0235
26.2485
26.6849
27.1968
27.7137
28.247
28.8351
29.4863
30.1575
30.7644
31.2059
31.3942
31.2853
30.9072
30.3614
29.812
29.3809
29.0671
28.8421
28.6164
28.2569
27.624
26.6355
25.3202
23.8272
22.3841
21.2096
20.4387
20.0933
20.0824
20.2279
20.3086
20.1221
19.5519
18.6069
17.4093
16.1361
14.9517
13.9658
13.2238
12.7201
12.4189
12.2721
12.231
12.2522
12.2992
12.3424
12.3583
12.3296
12.244
12.0949
11.88
11.6014
11.2638
10.8741
10.4405
9.97161
9.47605
8.96233
8.43863
7.91272
7.39205
6.88325
6.39147
5.92125
5.47607
5.05833
4.66941
4.30976
3.97906
3.6764
3.40044
3.14955
2.92195
2.71579
2.52923
2.36048
2.20783
2.06969
1.9446
1.83119
1.72823
1.6346
1.54928
1.47138
1.40006
1.33459
1.27432
1.21866
1.16709
1.11913
1.07438
1.03246
0.993061
0.955883
0.920679
0.887232
0.855354
0.824888
0.7957
0.767686
0.740765
0.714876
0.689982
0.666064
0.643115
0.621144
0.600167
0.580206
0.561285
0.543432
0.526678
31.4709
44.8027
46.6139
46.1579
43.0001
38.691
34.1852
30.0216
26.4082
23.3343
20.6801
18.2832
15.9927
13.7529
11.6486
9.81933
8.32848
7.14157
6.20535
5.55184
5.37053
5.71609
6.30312
7.07679
8.05513
9.2881
10.883
12.9817
15.4961
17.74
18.9747
19.6462
21.0627
24.3569
30.3054
38.7148
47.7307
55.1233
59.9863
62.6585
63.7775
63.759
62.779
60.887
58.048
54.1802
49.2501
43.2379
36.123
28.2916
20.8104
14.8727
11.0314
9.14213
8.88632
10.1671
13.2779
18.837
26.8298
35.2257
40.1658
39.1661
34.1372
29.4062
26.7938
25.5775
25.0296
24.8714
25.0545
25.5173
26.1188
26.7255
27.2951
27.8676
28.4945
29.1812
29.8737
30.4749
30.8728
30.9689
30.711
30.1206
29.3127
28.4672
27.7145
27.0885
26.5836
26.1399
25.6544
25.0099
24.1271
23.0162
21.7932
20.6414
19.7374
19.1828
18.9709
18.9889
19.0488
18.9428
18.5153
17.7223
16.6439
15.4404
14.2819
13.2948
12.5418
12.0305
11.7328
11.6046
11.599
11.6732
11.79
11.9184
12.0322
12.1097
12.1345
12.0948
11.9841
11.8006
11.5471
11.2293
10.8554
10.4349
9.97761
9.49302
8.99009
8.47704
7.96148
7.45084
6.95031
6.46505
5.99942
5.55692
5.14008
4.75051
4.38892
4.0553
3.74903
3.46901
3.21381
2.98184
2.77135
2.58059
2.40783
2.25142
2.10977
1.98142
1.86501
1.75929
1.66314
1.57553
1.49552
1.42229
1.35508
1.29322
1.23612
1.18324
1.13409
1.08826
1.04537
1.00508
0.967106
0.931185
0.897095
0.86464
0.833658
0.80401
0.775583
0.74829
0.722065
0.696863
0.67266
0.649446
0.627225
0.606014
0.585834
0.566711
0.548674
0.531754
27.4877
45.994
44.8008
44.8011
42.4226
38.3998
33.9564
29.782
26.1606
23.1248
20.5725
18.3373
16.2436
14.1923
12.2233
10.4573
8.981
7.80629
6.91657
6.32821
6.13639
6.33669
6.81796
7.52598
8.46014
9.6552
11.1977
13.2171
15.6733
18.0075
19.5055
20.3973
21.7476
24.5526
29.5387
36.6971
44.6749
51.6199
56.5805
59.6728
61.4036
62.1738
62.1643
61.3896
59.7531
57.0785
53.2264
48.2286
42.1463
35.0214
27.4007
20.4991
15.4121
12.5131
11.6768
12.8064
15.9561
21.2048
27.8436
33.754
36.2628
34.4283
30.2621
26.7237
24.8205
23.9942
23.7207
23.8162
24.2375
24.8934
25.6269
26.3124
26.9246
27.5152
28.1388
28.8
29.4437
29.9753
30.2896
30.297
29.9512
29.2686
28.3358
27.299
26.3085
25.4306
24.6813
24.0243
23.3807
22.6582
21.7965
20.8096
19.7954
18.8995
18.2501
17.9014
17.8072
17.8289
17.7763
17.4745
16.8356
15.8955
14.789
13.6841
12.7184
11.9695
11.4568
11.1602
11.0403
11.0532
11.1584
11.3208
11.5104
11.7009
11.8688
11.9943
12.0612
12.0579
11.9776
11.8186
11.5835
11.2787
10.9132
10.4977
10.0431
9.55998
9.05832
8.54691
8.03428
7.52591
7.02746
6.54379
6.07903
5.63651
5.21869
4.82723
4.46296
4.12603
3.81598
3.53189
3.2725
3.0363
2.82167
2.62693
2.4504
2.29045
2.14551
2.01412
1.89492
1.78665
1.68817
1.59844
1.51651
1.44153
1.37273
1.30944
1.25103
1.19696
1.14674
1.09994
1.05617
1.01509
0.976396
0.939831
0.905161
0.872189
0.840744
0.810683
0.781888
0.754265
0.727745
0.702276
0.677828
0.654387
0.631956
0.610547
0.590182
0.570887
0.552691
0.535625
23.8894
56.6886
48.2969
45.0424
42.7719
39.3123
35.1063
30.9388
27.2362
24.1199
21.5417
19.3691
17.4369
15.6136
13.8646
12.2453
10.8346
9.68354
8.81704
8.24904
8.0307
8.11808
8.47197
9.07723
9.94533
11.1132
12.6626
14.6877
17.0736
19.254
20.6923
21.7194
23.2103
25.9222
30.3962
36.5169
43.1592
48.941
53.1948
56.0324
57.8612
59.0277
59.7084
59.914
59.512
58.243
55.7779
51.928
46.8045
40.5604
33.3737
26.0529
19.9548
16.0326
14.5339
15.3335
18.2051
22.7617
27.9557
31.9396
32.9849
30.9338
27.5349
24.812
23.3628
22.7862
22.7076
22.9933
23.591
24.3906
25.2298
25.9855
26.633
27.2203
27.8001
28.3808
28.9169
29.3276
29.5225
29.4249
28.9929
28.2356
27.2181
26.0744
24.9413
23.8971
22.9696
22.1375
21.3437
20.5242
19.647
18.7411
17.895
17.2189
16.7898
16.6091
16.5881
16.5672
16.3696
15.8765
15.0828
14.0946
13.0708
12.155
11.4353
10.9403
10.6559
10.5465
10.5713
10.6933
10.8812
11.1086
11.3517
11.5882
11.7973
11.96
12.0604
12.0867
12.0317
11.8931
11.6735
11.379
11.0192
10.6052
10.1491
9.66246
9.15641
8.64139
8.12455
7.61242
7.1107
6.62417
6.15674
5.71153
5.29085
4.89627
4.5286
4.18802
3.87415
3.58614
3.32281
3.08275
2.86439
2.66608
2.48619
2.3231
2.17526
2.0412
1.91956
1.80907
1.70858
1.61702
1.53343
1.45696
1.38682
1.3223
1.26279
1.20773
1.15661
1.10899
1.06449
1.02275
0.983464
0.946366
0.91122
0.877823
0.846
0.815603
0.786511
0.758626
0.731872
0.706194
0.681558
0.657947
0.635357
0.613801
0.593299
0.573875
0.555558
0.53838
20.9975
85.5362
65.434
51.8649
45.3625
41.1057
37.052
33.0219
29.3052
26.0914
23.4107
21.1919
19.3119
17.6438
16.1055
14.6823
13.408
12.3305
11.4907
10.9136
10.6446
10.6402
10.8981
11.4293
12.2626
13.4513
15.0779
17.1651
19.4322
21.2862
22.5073
23.6202
25.2985
28.0701
32.2459
37.474
42.7357
47.0962
50.2554
52.4248
53.9667
55.1739
56.2008
57.0554
57.6086
57.5929
56.5991
54.1745
50.1379
44.704
38.1383
30.9094
24.2204
19.432
17.2165
17.5103
19.8732
23.6044
27.5362
30.1509
30.3576
28.3549
25.5626
23.3927
22.2384
21.8253
21.8839
22.3069
23.0329
23.9427
24.8734
25.6989
26.3833
26.9614
27.4808
27.956
28.3565
28.6199