/*--------------------------------*- C++ -*----------------------------------*\
  =========                 |
  \\      /  F ield         | OpenFOAM: The Open Source CFD Toolbox
   \\    /   O peration     | Website:  https://openfoam.org
    \\  /    A nd           | Version:  9
     \\/     M anipulation  |
\*---------------------------------------------------------------------------*/
FoamFile
{
    format      ascii;
    class       volScalarField;
    location    "0.04";
    object      kU;
}
// * * * * * * * * * * * * * * * * * * * * * * * * * * * * * * * * * * * * * //

dimensions      [0 2 -2 0 0 0 0];

internalField   nonuniform List<scalar> 
12225
(
0.0849374
0.0641204
0.0497502
0.0400369
0.0337647
0.030074
0.0283227
0.0280012
0.0286893
0.0300363
0.0317532
0.033608
0.035423
0.0370696
0.0384614
0.0396755
0.0410432
0.0424216
0.104769
0.0974087
0.093106
0.0923758
0.0951224
0.10098
0.109374
0.119571
0.130778
0.14223
0.153274
0.163397
0.172239
0.179576
0.185292
0.189154
0.190799
0.189988
0.108594
0.104443
0.100794
0.0978466
0.0957378
0.0944974
0.0940652
0.0943162
0.095078
0.0961552
0.0973548
0.0985053
0.0994669
0.100135
0.100435
0.100335
0.0999612
0.0992211
0.109684
0.106522
0.103456
0.100626
0.0981257
0.0959931
0.0942182
0.0927568
0.0915459
0.0905151
0.0895969
0.0887336
0.0878805
0.0870067
0.0860948
0.0851713
0.084251
0.0833537
0.110097
0.107485
0.104894
0.102399
0.100052
0.0978867
0.0959131
0.094125
0.0925047
0.0910281
0.0896696
0.0884056
0.0872171
0.0860925
0.085024
0.0840109
0.0830573
0.0821768
0.110256
0.107928
0.105645
0.103431
0.101309
0.0992993
0.0974131
0.0956527
0.0940148
0.0924921
0.091075
0.0897538
0.0885214
0.0873686
0.0862893
0.0852808
0.0843425
0.0834812
0.110314
0.108117
0.106008
0.103981
0.10204
0.100192
0.0984396
0.0967856
0.0952291
0.0937676
0.0923976
0.0911155
0.0899158
0.0887932
0.0877439
0.0867651
0.0858541
0.0850146
0.110333
0.10819
0.106166
0.104247
0.102423
0.100693
0.0990528
0.0975008
0.096035
0.0946532
0.0933531
0.0921313
0.0909841
0.0899084
0.0889012
0.0879594
0.0870797
0.0862652
0.110339
0.108215
0.106227
0.10436
0.102601
0.100942
0.0993757
0.0978977
0.0965032
0.0951886
0.0939503
0.0927848
0.0916887
0.0906592
0.0896933
0.0887876
0.0879386
0.0871496
0.11034
0.108222
0.106247
0.104401
0.102672
0.101048
0.0995233
0.0980892
0.0967398
0.09547
0.094275
0.0931508
0.0920936
0.0911
0.0901667
0.08929
0.0884666
0.0877
0.11034
0.108223
0.106252
0.104413
0.102694
0.101086
0.0995796
0.0981667
0.0968405
0.095595
0.0944248
0.0933252
0.0922919
0.0913211
0.0904089
0.0895517
0.088746
0.0879958
0.11034
0.108223
0.106252
0.104414
0.102699
0.101095
0.0995939
0.0981883
0.0968707
0.0956347
0.0944747
0.0933856
0.0923629
0.0914024
0.0905
0.089652
0.0888551
0.0881137
0.11034
0.108223
0.106251
0.104413
0.102697
0.101094
0.0995947
0.0981911
0.096876
0.0956431
0.0944866
0.0934013
0.0923824
0.0914256
0.0905269
0.0896823
0.0888889
0.0881514
0.110339
0.108222
0.10625
0.104411
0.102694
0.10109
0.0995899
0.0981854
0.0968697
0.0956363
0.0944793
0.0933936
0.0923742
0.0914168
0.0905174
0.0896721
0.0888782
0.0881407
0.110339
0.108222
0.106249
0.104409
0.102691
0.101085
0.099583
0.0981766
0.0968586
0.0956227
0.0944631
0.0933744
0.0923519
0.0913912
0.0904882
0.0896394
0.088842
0.0881012
0.110339
0.108222
0.106248
0.104407
0.102688
0.10108
0.099576
0.098167
0.0968462
0.095607
0.0944438
0.0933511
0.0923242
0.0913588
0.0904508
0.0895967
0.088794
0.0880479
0.110339
0.108221
0.106247
0.104406
0.102685
0.101076
0.0995693
0.0981577
0.0968338
0.0955911
0.0944239
0.0933267
0.092295
0.0913242
0.0904104
0.0895502
0.088741
0.0879882
0.110339
0.108222
0.106247
0.104405
0.102683
0.101072
0.0995633
0.0981491
0.0968221
0.0955758
0.0944044
0.0933027
0.0922659
0.0912895
0.0903697
0.089503
0.0886868
0.0879266
0.11034
0.108222
0.106247
0.104404
0.102681
0.101069
0.099558
0.0981413
0.0968113
0.0955616
0.0943863
0.0932801
0.0922383
0.0912564
0.0903307
0.0894575
0.0886343
0.0878667
0.11034
0.108222
0.106247
0.104404
0.10268
0.101067
0.0995548
0.0981364
0.0968043
0.095552
0.0943738
0.0932643
0.0922188
0.0912329
0.0903026
0.0894245
0.0885959
0.0878226
0.11034
0.108222
0.106247
0.104404
0.10268
0.101066
0.099553
0.0981334
0.0967998
0.0955457
0.0943652
0.0932531
0.0922046
0.0912153
0.0902812
0.0893988
0.0885655
0.0877871
0.11034
0.108222
0.106248
0.104403
0.102679
0.101064
0.0995496
0.0981277
0.0967911
0.0955332
0.0943481
0.0932305
0.0921757
0.0911792
0.090237
0.0893458
0.0885029
0.0877143
0.11034
0.108222
0.106246
0.1044
0.102672
0.101052
0.0995298
0.0980982
0.0967497
0.0954778
0.0942768
0.0931414
0.0920672
0.0910498
0.0900856
0.0891713
0.0883044
0.0874913
0.11034
0.108218
0.106235
0.104377
0.10263
0.100985
0.0994323
0.097965
0.0965765
0.0952611
0.0940141
0.0928312
0.0917084
0.0906424
0.0896297
0.0886676
0.0877539
0.0868955
0.110334
0.108194
0.106175
0.104263
0.102447
0.100722
0.0990815
0.0975219
0.09604
0.0946328
0.0932975
0.092031
0.0908306
0.0896931
0.0886155
0.0875949
0.0866288
0.0857235
0.110301
0.108075
0.105927
0.103855
0.101863
0.0999571
0.0981431
0.0964241
0.0948015
0.0932752
0.0918435
0.0905034
0.0892512
0.0880824
0.0869921
0.085975
0.0850264
0.0841488
0.110153
0.107641
0.105148
0.102724
0.10041
0.0982363
0.0962217
0.0943739
0.0926948
0.091182
0.0898298
0.0886296
0.0875714
0.0866437
0.0858344
0.0851313
0.0845228
0.0840015
0.109589
0.106317
0.103116
0.100132
0.0974693
0.0951762
0.093265
0.091732
0.0905676
0.0897579
0.0892848
0.0891271
0.089261
0.0896605
0.0902986
0.0911483
0.0921831
0.0933744
0.107271
0.101425
0.0964777
0.092861
0.0906701
0.0898835
0.0904414
0.0922629
0.0952531
0.099308
0.104316
0.110161
0.116721
0.123872
0.131495
0.139473
0.147704
0.156046
0.0944167
0.0792052
0.0673176
0.057973
0.0506322
0.0449035
0.0404961
0.0371875
0.0348025
0.033201
0.032268
0.0319077
0.0320383
0.0325892
0.033498
0.0347094
0.0361742
0.037843
0.00512998
0.012305
0.0139552
0.014632
0.0149332
0.0150443
0.0150519
0.015001
0.014884
0.0146914
0.0144369
0.0142389
0.0140841
0.0139709
0.0138935
0.0138473
0.0138403
0.0138883
0.0140199
0.0142969
0.0147728
0.0155115
0.0165759
0.0179857
0.0197343
0.0218232
0.0243132
0.0273787
0.0311902
0.0366458
0.0439504
0.0513583
0.0586525
0.06608
0.0739106
0.0823556
0.0912023
0.0991914
0.10347
0.102532
0.0950123
0.0806592
0.0623367
0.045076
0.0312027
0.0219421
0.0170338
0.0150135
0.0145905
0.0149537
0.0156097
0.0162863
0.0168235
0.0172907
0.0177391
0.0181813
0.0186347
0.0191374
0.0196532
0.0199946
0.019832
0.0190434
0.0176705
0.0160442
0.0147292
0.0141252
0.0146331
0.0166228
0.0203151
0.0256183
0.0333736
0.0450538
0.0571165
0.0771632
0.118399
0.165788
0.207422
0.242316
0.269869
0.290391
0.304615
0.313438
0.317784
0.318519
0.316415
0.312128
0.306194
0.299038
0.290977
0.282229
0.273158
0.263817
0.254215
0.244365
0.234285
0.224007
0.213574
0.203041
0.192476
0.18195
0.17153
0.161277
0.15123
0.141404
0.131792
0.122359
0.113059
0.103848
0.0947012
0.0856314
0.0767037
0.0680831
0.060276
0.0555313
0.0557125
0.056804
0.0582873
0.0601835
0.0625506
0.0654243
0.0688059
0.0726574
0.0769015
0.0814259
0.0860922
0.0907487
0.0952419
0.0994273
0.103214
0.10634
0.108309
0.10907
0.108647
0.107137
0.104691
0.101494
0.0977491
0.0936537
0.089388
0.0851048
0.0809257
0.0769412
0.0732138
0.0697826
0.0666685
0.0638787
0.0614109
0.0592515
0.0573949
0.0556451
0.0453791
0.0373442
0.0309635
0.0259135
0.0219171
0.0187351
0.0161735
0.0140862
0.0123691
0.0109481
0.00976794
0.00878521
0.00796431
0.00727564
0.00669461
0.00620106
0.00577869
0.00541447
0.00509817
0.00482167
0.00457853
0.00436356
0.00417262
0.0040025
0.00385095
0.00371681
0.00359981
0.00350221
0.00342303
0.00339436
0.00287392
0.0104482
0.0124012
0.0131661
0.0137723
0.0146641
0.01498
0.0150591
0.0149738
0.0146883
0.014239
0.0137802
0.0134001
0.013322
0.0136303
0.0143512
0.0155065
0.0171082
0.0192574
0.0219996
0.025514
0.0299226
0.0353752
0.0415583
0.0476597
0.0533608
0.0584639
0.0626627
0.0658887
0.0680341
0.0689408
0.0685398
0.0669629
0.0643004
0.0607462
0.0566516
0.0524754
0.0488781
0.0470531
0.0462957
0.0458695
0.0447707
0.0430499
0.0416706
0.0408217
0.0398756
0.0380795
0.0355017
0.0327808
0.0303199
0.0277411
0.0246011
0.0213447
0.018944
0.0177058
0.0173819
0.0177394
0.0186676
0.0201178
0.0218338
0.0232143
0.0235806
0.0226401
0.0206693
0.0183994
0.0168757
0.0168966
0.019552
0.0268062
0.0410873
0.0608861
0.0786864
0.0893758
0.0975456
0.106109
0.112106
0.114892
0.115209
0.113956
0.111956
0.109828
0.107968
0.10658
0.105744
0.105468
0.10573
0.1065
0.107749
0.109436
0.11147
0.113581
0.115781
0.118114
0.120621
0.123331
0.12627
0.129458
0.132908
0.136624
0.140596
0.144793
0.149147
0.153544
0.157811
0.161708
0.164935
0.167149
0.167999
0.16717
0.164441
0.159705
0.152958
0.144269
0.134172
0.124825
0.115546
0.106436
0.0976963
0.0894537
0.0817764
0.0746867
0.0681731
0.0622022
0.0567291
0.0517052
0.047084
0.0428244
0.038892
0.0352628
0.0319802
0.0292042
0.026802
0.0247153
0.0228839
0.0212587
0.0198009
0.0184798
0.0172721
0.0161615
0.0151374
0.014193
0.0133235
0.0125252
0.0117939
0.0111256
0.0105157
0.00995988
0.00945335
0.00898479
0.00855938
0.0090634
0.00937708
0.00960924
0.00981567
0.0100223
0.0102369
0.0104578
0.0106822
0.0109102
0.0111446
0.011389
0.0116454
0.0119143
0.0121942
0.0124828
0.012778
0.0130784
0.0133835
0.0136939
0.0140119
0.0143406
0.0146849
0.0150511
0.0154477
0.0158855
0.0163811
0.0169492
0.0176465
0.0184029
0.0197888
0.00140557
0.00704505
0.00998491
0.0127481
0.0148312
0.0152902
0.0153049
0.0155664
0.0162738
0.0167304
0.01717
0.0187127
0.0218462
0.0260181
0.0309964
0.0367217
0.0431774
0.0503073
0.0579638
0.06592
0.0739465
0.0817796
0.0891436
0.0958254
0.10143
0.105942
0.109389
0.111781
0.113104
0.113322
0.112387
0.110252
0.106853
0.102121
0.0961854
0.0895901
0.0825241
0.0753991
0.0683969
0.0613647
0.0541659
0.0472895
0.0413058
0.0368826
0.0339651
0.0324886
0.0322407
0.0327536
0.0332725
0.0330285
0.0314228
0.0283689
0.0245539
0.0209149
0.0179895
0.0159533
0.0149495
0.0149976
0.0160953
0.0181611
0.0207298
0.0227885
0.023292
0.0221697
0.0207024
0.0211645
0.0261854
0.0386882
0.0583495
0.0753794
0.0817694
0.0838829
0.0860295
0.0889587
0.0925477
0.0962044
0.10005
0.104255
0.108752
0.113289
0.117585
0.121446
0.124795
0.127642
0.130034
0.132028
0.133679
0.135042
0.13617
0.137091
0.137927
0.138772
0.13972
0.140854
0.142246
0.14396
0.146049
0.148558
0.15152
0.15495
0.158834
0.16312
0.167697
0.172379
0.176906
0.180938
0.18408
0.185916
0.186058
0.184222
0.180224
0.173989
0.165444
0.155817
0.146132
0.136146
0.12615
0.116395
0.107056
0.0982496
0.0900391
0.0824505
0.0754808
0.0691076
0.0632963
0.0580056
0.053192
0.0488116
0.0448236
0.0411906
0.0378752
0.0348191
0.0319796
0.0293587
0.0269395
0.0247098
0.0226603
0.0207832
0.0190713
0.0175169
0.0161117
0.0148469
0.013713
0.0127
0.0117983
0.0109979
0.0102895
0.00966432
0.0091139
0.00863056
0.00823352
0.00790749
0.00764121
0.00742575
0.00725321
0.00711639
0.00700874
0.00692466
0.00685967
0.00681035
0.00677401
0.00674836
0.00673133
0.00672105
0.00671585
0.00671434
0.00671552
0.00671882
0.00672418
0.00673215
0.006744
0.00676191
0.00678926
0.00683103
0.00689455
0.00699049
0.00713511
0.00735116
0.0076761
0.0081709
0.000873787
0.00680697
0.0121415
0.0148017
0.0154453
0.0171987
0.0196032
0.0224893
0.0285074
0.0343212
0.0396397
0.0448725
0.0510864
0.0584459
0.0666526
0.0753254
0.0841406
0.0928446
0.101219
0.10907
0.11623
0.122536
0.127876
0.132125
0.135504
0.138123
0.140019
0.141191
0.141604
0.141193
0.139867
0.13752
0.134035
0.129302
0.123239
0.115821
0.107087
0.0978087
0.0885555
0.0796563
0.0713247
0.0634264
0.0556341
0.0477427
0.0406199
0.035161
0.0315004
0.0295912
0.0290516
0.0290889
0.0287355
0.0273606
0.0250394
0.0223026
0.019629
0.0173069
0.0155858
0.0148562
0.0154113
0.0174112
0.0206949
0.0243691
0.0269366
0.0277811
0.0288399
0.0346884
0.0488878
0.0684191
0.080128
0.0809966
0.0803719
0.0814655
0.0848421
0.0902075
0.0970437
0.104775
0.112883
0.120811
0.128105
0.134544
0.140119
0.144919
0.149021
0.152448
0.155175
0.157169
0.158421
0.158961
0.158837
0.158243
0.157302
0.156149
0.154923
0.153762
0.152797
0.152145
0.151912
0.152191
0.153057
0.154566
0.15674
0.159554
0.162923
0.166681
0.170584
0.174309
0.177477
0.17968
0.180516
0.179684
0.176928
0.17208
0.165249
0.157678
0.149363
0.140524
0.131458
0.122414
0.113583
0.105103
0.0970687
0.0895366
0.0825346
0.0760679
0.0701256
0.0646854
0.0597176
0.0551885
0.0510626
0.0473052
0.0438819
0.0407574
0.0378844
0.0352412
0.0328087
0.0305678
0.0285033
0.0266026
0.0248548
0.0232504
0.0217806
0.0204367
0.0192107
0.0180943
0.0170798
0.0161594
0.0153259
0.0145721
0.0138911
0.013276
0.0127214
0.0122223
0.0117732
0.0113689
0.0110051
0.0106774
0.010382
0.0101151
0.00987315
0.00965295
0.00945158
0.00926639
0.00909489
0.00893478
0.00878389
0.00864025
0.00850209
0.00836779
0.00823596
0.00810535
0.00797489
0.00784368
0.00771105
0.00757659
0.00744029
0.00730291
0.0071663
0.00703521
0.00691762
0.006835
0.00105105
0.00924383
0.0128946
0.0162689
0.0199082
0.0318562
0.0423999
0.0488121
0.0536689
0.060088
0.0675803
0.0754715
0.0836793
0.0921707
0.100744
0.109128
0.117081
0.124415
0.130991
0.136715
0.141542
0.145474
0.148556
0.15089
0.152882
0.154591
0.156013
0.157102
0.157775
0.157915
0.157377
0.155999
0.153612
0.150051
0.145169
0.138835
0.130914
0.121292
0.109856
0.0976474
0.0856242
0.0745734
0.0650389
0.0571133
0.0502991
0.0437279
0.0377003
0.032832
0.0293881
0.0272508
0.0258967
0.024692
0.0232529
0.0215427
0.0197111
0.0179667
0.0165616
0.0158264
0.0163081
0.018513
0.0226453
0.0280907
0.0333196
0.0378442
0.0453182
0.0583833
0.0736169
0.0808205
0.0797054
0.0781231
0.0792727
0.083583
0.0905353
0.0992938
0.108919
0.11852
0.127403
0.135186
0.14183
0.147512
0.152449
0.156785
0.160559
0.16373
0.166212
0.16791
0.168752
0.168705
0.167851
0.166305
0.16418
0.161621
0.158793
0.155874
0.153044
0.150476
0.14833
0.14675
0.145853
0.145724
0.146401
0.147868
0.150038
0.152746
0.155756
0.158776
0.161484
0.163553
0.164634
0.164458
0.162764
0.159433
0.154947
0.149447
0.143106
0.136145
0.128794
0.121258
0.113708
0.106281
0.0990842
0.0921952
0.0856681
0.0795364
0.0738169
0.0685126
0.0636159
0.0591115
0.0549784
0.0511921
0.0477268
0.0445555
0.0416502
0.0389789
0.036525
0.0342694
0.0321949
0.0302864
0.0285305
0.0269153
0.0254302
0.0240656
0.0228127
0.0216633
0.0206098
0.0196448
0.0187617
0.0179539
0.0172153
0.0165397
0.0159216
0.0153559
0.0148376
0.0143622
0.0139256
0.0135239
0.0131536
0.0128115
0.0124944
0.0121996
0.0119242
0.0116659
0.0114223
0.0111914
0.0109712
0.0107599
0.0105558
0.0103575
0.0101635
0.00997253
0.00978333
0.00959468
0.00940533
0.00921403
0.00901943
0.00882015
0.00861453
0.00840155
0.00817878
0.00795039
0.00202582
0.0107715
0.0184226
0.0377679
0.0502549
0.0570993
0.0642167
0.0715015
0.0785466
0.0859207
0.0935432
0.101091
0.10843
0.115487
0.122134
0.128222
0.133633
0.138298
0.142205
0.145389
0.147922
0.149898
0.151415
0.152927
0.154656
0.156607
0.158727
0.160914
0.163018
0.164848
0.166175
0.16675
0.166321
0.164658
0.161571
0.156902
0.150502
0.142187
0.131746
0.118836
0.103807
0.0889095
0.0752154
0.0636723
0.0547181
0.048197
0.0431045
0.0382954
0.0336531
0.0296154
0.026444
0.0240392
0.0221331
0.0205007
0.0190351
0.0177584
0.0168392
0.0166131
0.0176566
0.0207527
0.0264907
0.034691
0.0441696
0.055322
0.0676815
0.0773665
0.0802589
0.0781522
0.0762927
0.0775408
0.0824109
0.0902647
0.100042
0.11058
0.120817
0.129972
0.137677
0.143954
0.149065
0.153325
0.15698
0.160168
0.162918
0.165174
0.16683
0.16776
0.16786
0.167066
0.1654
0.162955
0.159882
0.156361
0.152586
0.148751
0.145043
0.141643
0.138717
0.136413
0.134845
0.134084
0.134141
0.134958
0.136407
0.138298
0.140395
0.142457
0.144264
0.145627
0.146337
0.146215
0.145129
0.143135
0.140268
0.136583
0.132181
0.127188
0.121744
0.115983
0.110029
0.103995
0.097977
0.0920589
0.0863094
0.0807836
0.0755226
0.0705545
0.0658957
0.061552
0.0575209
0.053793
0.0503547
0.047189
0.0442769
0.0415956
0.0391271
0.036855
0.0347637
0.0328385
0.0310662
0.0294346
0.0279328
0.0265505
0.0252786
0.0241086
0.0230326
0.0220433
0.021134
0.0202983
0.0195301
0.0188237
0.0181737
0.0175749
0.0170228
0.0165127
0.0160407
0.0156028
0.0151957
0.014816
0.0144608
0.0141272
0.0138125
0.0135144
0.0132307
0.0129593
0.0126985
0.0124468
0.0122026
0.0119647
0.011732
0.0115034
0.0112779
0.0110545
0.0108321
0.0106096
0.0103858
0.0101593
0.00992847
0.00969166
0.00944636
0.00919264
0.00740418
0.0332161
0.0506428
0.0599327
0.0689188
0.0767746
0.0841275
0.0911467
0.0976614
0.103805
0.109577
0.114868
0.119606
0.123745
0.127238
0.130058
0.132224
0.133807
0.134918
0.135699
0.136304
0.136878
0.137555
0.139021
0.141272
0.14429
0.148007
0.152296
0.156959
0.161718
0.166218
0.170048
0.172775
0.174013
0.173477
0.171009
0.166527
0.159926
0.150988
0.139369
0.124747
0.107037
0.0896582
0.0739562
0.0606437
0.0503222
0.043157
0.0385442
0.0351332
0.0317064
0.0281783
0.0249851
0.022356
0.0202996
0.0187382
0.0176377
0.0171231
0.0175657
0.0195858
0.0241853
0.0325023
0.044993
0.0609354
0.0754344
0.0816533
0.0802416
0.0767082
0.0745112
0.0756351
0.0806108
0.0888414
0.0991935
0.1104
0.121295
0.131006
0.139086
0.145522
0.150586
0.154656
0.158079
0.16109
0.163785
0.166132
0.167996
0.169192
0.169529
0.168822
0.166951
0.163978
0.16007
0.155489
0.150539
0.14552
0.140691
0.136263
0.132398
0.129223
0.126828
0.125263
0.124519
0.124521
0.125116
0.126093
0.127214
0.128262
0.129062
0.129555
0.129737
0.129557
0.129019
0.128092
0.126729
0.124887
0.122544
0.119708
0.11641
0.112699
0.108633
0.104277
0.0996994
0.0949716
0.0901643
0.085346
0.0805807
0.0759251
0.0714267
0.0671226
0.0630392
0.0591931
0.0555916
0.0522351
0.0491178
0.0462302
0.0435597
0.0410911
0.0388112
0.0367071
0.0347658
0.0329754
0.0313244
0.0298023
0.0283992
0.0271062
0.0259147
0.024817
0.0238059
0.0228745
0.0220165
0.0212258
0.0204969
0.0198244
0.0192032
0.0186286
0.0180962
0.0176018
0.0171416
0.0167121
0.01631
0.015932
0.0155753
0.0152373
0.0149155
0.0146076
0.0143117
0.014026
0.0137491
0.0134796
0.0132164
0.0129585
0.0127053
0.0124558
0.0122094
0.0119654
0.0117229
0.011481
0.0112387
0.0109949
0.0107483
0.0104973
0.0102421
0.0253368
0.0563705
0.0685723
0.0775994
0.0855762
0.0924533
0.098319
0.103321
0.107482
0.110892
0.113588
0.115559
0.116799
0.117328
0.117194
0.116486
0.115338
0.113922
0.112438
0.111099
0.110114
0.109673
0.110223
0.111892
0.114712
0.11873
0.123969
0.130407
0.137932
0.146296
0.155072
0.163639
0.171232
0.177066
0.180521
0.181294
0.179393
0.174931
0.167879
0.157981
0.144814
0.127828
0.107684
0.0886366
0.071231
0.0563406
0.0447645
0.03675
0.0318587
0.029039
0.0267831
0.0243065
0.0218908
0.019843
0.0183229
0.0174341
0.0174034
0.0187287
0.0222303
0.0290568
0.0411277
0.0594956
0.0780517
0.0858607
0.0819713
0.0759969
0.0728293
0.0734189
0.0780497
0.0862084
0.0968061
0.108553
0.120215
0.130798
0.139708
0.146809
0.152327
0.156685
0.160331
0.163613
0.166716
0.169655
0.172297
0.174412
0.17572
0.17594
0.174764
0.172126
0.168051
0.162735
0.156535
0.149906
0.143313
0.137154
0.131718
0.127189
0.123661
0.121158
0.119633
0.118965
0.118949
0.119305
0.119711
0.119875
0.11965
0.118953
0.117922
0.116757
0.115565
0.114418
0.113302
0.112156
0.110899
0.109448
0.107741
0.105734
0.103406
0.100752
0.0977831
0.0945234
0.0910102
0.0872914
0.083423
0.0794651
0.0754783
0.0715201
0.0676414
0.0638846
0.0602824
0.0568581
0.0536256
0.0505915
0.0477565
0.0451173
0.0426636
0.0403867
0.038277
0.036324
0.0345174
0.0328473
0.0313041
0.0298786
0.0285623
0.0273472
0.0262258
0.0251911
0.0242363
0.0233554
0.0225423
0.0217914
0.0210976
0.0204556
0.0198609
0.0193091
0.0187958
0.0183173
0.0178699
0.0174502
0.0170551
0.0166815
0.0163267
0.0159882
0.0156637
0.0153512
0.0150488
0.014755
0.0144685
0.0141883
0.0139134
0.0136433
0.0133774
0.0131152
0.0128562
0.0125999
0.0123459
0.0120934
0.0118418
0.0115904
0.0113382
0.0110858
0.0350413
0.0722142
0.0839343
0.091743
0.0976843
0.102137
0.105271
0.10728
0.108293
0.108425
0.107756
0.106343
0.10425
0.101566
0.0984079
0.0949323
0.0913304
0.0878223
0.084645
0.0820367
0.0802173
0.0793698
0.0798395
0.0813619
0.0840064
0.087899
0.0932103
0.100139
0.108866
0.119471
0.131791
0.145271
0.158878
0.171203
0.180814
0.186759
0.188857
0.187442
0.182833
0.175046
0.163776
0.148481
0.128485
0.107047
0.086246
0.0669685
0.0506734
0.0382822
0.0298868
0.0248747
0.0222728
0.0207379
0.0192712
0.0179159
0.0169175
0.0165737
0.0173387
0.0199857
0.0257228
0.036223
0.0528554
0.0729064
0.0863441
0.0849512
0.0766811
0.0716026
0.0710377
0.0748343
0.0824604
0.0929215
0.104965
0.117318
0.12886
0.138801
0.14681
0.153004
0.157812
0.161758
0.16529
0.168679
0.17201
0.175217
0.178118
0.180457
0.181931
0.182192
0.181029
0.178229
0.173692
0.167545
0.160166
0.15213
0.144083
0.136606
0.130124
0.124868
0.120924
0.118253
0.116715
0.116045
0.115899
0.115863
0.115525
0.11455
0.112945
0.110831
0.108474
0.106163
0.10411
0.102424
0.101102
0.100063
0.0991856
0.0983446
0.0974281
0.0963472
0.0950358
0.0934493
0.0915617
0.0893648
0.0868674
0.084094
0.0810826
0.0778816
0.0745464
0.0711347
0.0677027
0.0643019
0.060976
0.0577604
0.0546811
0.0517558
0.0489975
0.0464057
0.0439797
0.0417157
0.0396077
0.0376483
0.0358294
0.0341425
0.0325793
0.0311317
0.0297917
0.028552
0.0274056
0.0263457
0.0253659
0.0244603
0.0236231
0.0228488
0.0221323
0.0214686
0.020853
0.0202812
0.0197488
0.0192521
0.0187872
0.0183509
0.0179397
0.0175507
0.0171811
0.0168283
0.01649
0.0161639
0.0158483
0.0155415
0.0152421
0.0149491
0.0146616
0.014379
0.0141009
0.0138269
0.0135568
0.0132903
0.0130274
0.0127676
0.0125107
0.0122565
0.0120045
0.0117555
0.0408988
0.0829516
0.0946018
0.100713
0.104124
0.105705
0.10583
0.104796
0.102823
0.100081
0.096694
0.0927594
0.0883737
0.0836525
0.0787461
0.0738437
0.0691648
0.0649388
0.0613795
0.0586609
0.0569053
0.0561858
0.0565408
0.0576536
0.0595692
0.0624031
0.066361
0.0717664
0.0790725
0.0888223
0.1015
0.11723
0.135392
0.154361
0.171695
0.185045
0.193273
0.196566
0.195563
0.190672
0.181872
0.168734
0.150648
0.12877
0.105747
0.0825564
0.0613525
0.0440371
0.0314814
0.0234113
0.018851
0.016691
0.0156937
0.0150731
0.01482
0.0152837
0.0170902
0.0211858
0.0289135
0.0420072
0.0608512
0.0792129
0.0856922
0.078773
0.0713253
0.068851
0.0712468
0.077844
0.0877118
0.0996721
0.11246
0.124862
0.13588
0.144938
0.151976
0.157359
0.161644
0.165337
0.168767
0.172065
0.175228
0.178173
0.180766
0.182822
0.184095
0.184403
0.183479
0.180961
0.17658
0.170295
0.162391
0.153471
0.144334
0.135776
0.128427
0.122588
0.118338
0.115587
0.114106
0.113443
0.113098
0.112552
0.11138
0.109384
0.106632
0.103403
0.100075
0.0970153
0.0944773
0.0925653
0.0912499
0.0904133
0.0898986
0.0895471
0.0892197
0.0888038
0.0882131
0.0873844
0.0862747
0.084859
0.0831295
0.0810944
0.0787765
0.0762116
0.0734451
0.0705288
0.0675171
0.0644634
0.0614167
0.0584195
0.0555064
0.052704
0.0500336
0.0475017
0.0451139
0.0428714
0.0407722
0.038812
0.036985
0.0352847
0.033704
0.0322359
0.0308734
0.0296097
0.0284382
0.0273527
0.0263472
0.0254159
0.0245533
0.0237543
0.0230136
0.0223266
0.0216886
0.0210953
0.0205424
0.0200262
0.0195428
0.0190888
0.018661
0.0182562
0.0178716
0.0175045
0.0171527
0.0168138
0.0164859
0.0161673
0.0158565
0.0155525
0.0152544
0.0149614
0.0146732
0.0143896
0.0141105
0.0138358
0.0135655
0.0132999
0.0130387
0.0127822
0.0125303
0.0122841
0.0436698
0.0882446
0.0997265
0.104271
0.10541
0.10447
0.10206
0.0986181
0.0944518
0.0897699
0.0847028
0.079339
0.0737691
0.06812
0.0625694
0.057336
0.0526491
0.0487091
0.0456517
0.0435326
0.0423409
0.0420256
0.0424383
0.0433927
0.0448573
0.0468294
0.0493705
0.052683
0.0572264
0.0638142
0.0735518
0.0874966
0.106141
0.12876
0.152775
0.174335
0.190452
0.200347
0.20457
0.203863
0.198532
0.188368
0.172968
0.152897
0.12944
0.103642
0.0778937
0.0550808
0.0373699
0.0253602
0.0182246
0.0145643
0.0131071
0.0127582
0.0131181
0.014421
0.0173174
0.0227997
0.032281
0.0472508
0.066002
0.0797656
0.0801334
0.0722114
0.0673443
0.0677213
0.0727528
0.0815188
0.0929204
0.105747
0.118759
0.130797
0.141016
0.149102
0.15528
0.160083
0.16406
0.167575
0.170774
0.173657
0.176175
0.178286
0.179957
0.181155
0.181813
0.181894
0.181072
0.178918
0.175017
0.169125
0.161345
0.152192
0.142501
0.13323
0.125324
0.119154
0.114775
0.112019
0.11064
0.109947
0.109322
0.108227
0.106297
0.103434
0.0998306
0.095889
0.0920736
0.0887727
0.0862155
0.0844591
0.0834246
0.0829534
0.0828598
0.0829663
0.0831218
0.0832063
0.0831289
0.0828231
0.0822428
0.0813597
0.0801611
0.0786487
0.0768372
0.0747532
0.0724332
0.0699212
0.0672659
0.0645178
0.0617258
0.0589348
0.0561839
0.0535071
0.0509274
0.0484597
0.0461149
0.0438987
0.0418126
0.0398555
0.0380239
0.0363132
0.0347177
0.0332314
0.0318483
0.030562
0.0293668
0.0282566
0.0272258
0.0262691
0.0253811
0.0245568
0.0237914
0.0230802
0.0224187
0.0218028
0.0212282
0.0206911
0.0201879
0.0197151
0.0192693
0.0188476
0.018447
0.0180649
0.0176988
0.0173466
0.0170061
0.0166757
0.0163538
0.0160392
0.015731
0.0154284
0.0151311
0.0148388
0.0145516
0.0142695
0.0139927
0.0137215
0.0134563
0.0131973
0.012945
0.0127003
0.0437876
0.0888427
0.100113
0.103568
0.103088
0.100362
0.0962261
0.0912554
0.0858176
0.0801183
0.0742508
0.0682656
0.062235
0.0562912
0.050634
0.045506
0.0411361
0.0376783
0.0351827
0.0336141
0.0328974
0.0329604
0.0336487
0.0348438
0.0364884
0.038509
0.0407949
0.0432133
0.0457728
0.0490413
0.0545018
0.0641004
0.0794174
0.101192
0.128097
0.155934
0.179812
0.197239
0.207951
0.212733
0.212095
0.205977
0.194396
0.177605
0.155758
0.129565
0.1009
0.0729262
0.0491441
0.0317811
0.0209028
0.0150453
0.012482
0.011973
0.0127139
0.0147141
0.0185342
0.0251625
0.036021
0.0516688
0.0680234
0.0764082
0.0733599
0.0668881
0.0647931
0.0677056
0.0748311
0.0851397
0.0975012
0.110726
0.123589
0.135008
0.14435
0.151591
0.157179
0.161697
0.165572
0.168975
0.171874
0.174159
0.17575
0.176654
0.176977
0.176875
0.176559
0.17598
0.174884
0.172855
0.169389
0.16407
0.156822
0.148045
0.138464
0.128967
0.120977
0.114838
0.110562
0.107928
0.106469
0.105543
0.104497
0.102795
0.100149
0.0965979
0.0924716
0.0882612
0.0844488
0.0813796
0.0792102
0.077925
0.0773893
0.077411
0.0777883
0.0783389
0.0789127
0.0793926
0.0796912
0.0797461
0.0795155
0.0789752
0.0781154
0.0769391
0.07546
0.0737016
0.071695
0.0694784
0.0670942
0.064588
0.0620054
0.0593901
0.0567824
0.05422
0.0517255
0.0493196
0.047017
0.0448274
0.0427556
0.040803
0.0389686
0.0372493
0.035641
0.0341385
0.0327367
0.0314298
0.0302125
0.0290793
0.0280248
0.0270438
0.0261313
0.0252826
0.0244928
0.0237577
0.0230727
0.0224338
0.021837
0.0212784
0.0207546
0.020262
0.0197974
0.0193578
0.0189403
0.0185422
0.0181611
0.0177947
0.017441
0.0170982
0.0167647
0.0164393
0.0161209
0.0158088
0.0155025
0.0152019
0.0149068
0.0146175
0.0143343
0.0140577
0.0137881
0.0135261
0.0132724
0.0130279
0.0416479
0.0862102
0.0973806
0.100369
0.0989928
0.0952384
0.0901484
0.0844108
0.0784245
0.0723635
0.0662653
0.0601281
0.0539901
0.0479834
0.0423511
0.0373883
0.0333238
0.0302397
0.0280947
0.0268086
0.0263406
0.0266917
0.0276263
0.0290463
0.0309187
0.0332242
0.0359147
0.0387814
0.0413312
0.043189
0.0453409
0.0503825
0.0608635
0.0786819
0.104244
0.13448
0.163693
0.187748
0.204907
0.215706
0.220666
0.219809
0.213077
0.200451
0.181916
0.157738
0.128922
0.0978592
0.0684197
0.0445724
0.0282903
0.0189312
0.0145166
0.0132826
0.0140644
0.0164637
0.0209076
0.0283995
0.0400244
0.0547936
0.0673493
0.0713218
0.0672598
0.0629444
0.0633009
0.068247
0.0769031
0.0882258
0.101123
0.114427
0.126928
0.137657
0.146224
0.152866
0.158157
0.162634
0.166568
0.169946
0.172581
0.174259
0.174864
0.174448
0.173265
0.171648
0.170016
0.168404
0.166632
0.164343
0.161019
0.156112
0.149378
0.141297
0.132449
0.123782
0.116217
0.110279
0.106111
0.103473
0.101845
0.100557
0.0989585
0.0965851
0.093288
0.0892641
0.0849591
0.0808935
0.0774975
0.0750195
0.0735149
0.0728898
0.0729637
0.0735262
0.0743755
0.0753378
0.0762725
0.0770712
0.0776533
0.0779623
0.0779623
0.0776352
0.0769771
0.0759964
0.0747108
0.0731454
0.0713311
0.0693032
0.0671003
0.0647632
0.0623335
0.059852
0.0573604
0.0548888
0.0524648
0.0501111
0.0478449
0.0456783
0.0436187
0.0416698
0.0398324
0.038105
0.0364846
0.0349672
0.0335481
0.0322223
0.0309848
0.0298303
0.0287538
0.0277504
0.0268152
0.0259434
0.0251307
0.0243727
0.0236651
0.0230039
0.0223853
0.0218056
0.0212611
0.0207487
0.020265
0.0198072
0.0193722
0.0189576
0.0185609
0.0181798
0.0178122
0.0174565
0.017111
0.0167743
0.0164455
0.0161236
0.0158082
0.0154991
0.0151962
0.0148997
0.01461
0.0143277
0.0140534
0.0137878
0.0135316
0.0132861
0.0370765
0.0821027
0.0934788
0.0964174
0.094755
0.0905512
0.0850412
0.0790261
0.0729338
0.0669093
0.060933
0.0549325
0.0488835
0.0429162
0.03735
0.0325529
0.0287367
0.0258937
0.0239099
0.0227216
0.0224012
0.023022
0.0241791
0.0257657
0.0277284
0.030065
0.0328457
0.0360893
0.0393642
0.0416581
0.0428133
0.0451057
0.0515894
0.064881
0.0866278
0.115478
0.146405
0.174231
0.196536
0.212987
0.22365
0.228367
0.226919
0.21916
0.204986
0.184475
0.158128
0.127261
0.0947427
0.065049
0.0422286
0.0276653
0.0200292
0.0170446
0.0172371
0.0195999
0.0243738
0.0323681
0.0437983
0.0563296
0.0649049
0.0660259
0.0623452
0.0601199
0.0624273
0.0688819
0.0785712
0.0905046
0.103652
0.116858
0.128935
0.139049
0.147033
0.153307
0.158495
0.163054
0.167117
0.17053
0.172987
0.174174
0.173916
0.17228
0.169601
0.166457
0.163407
0.160541
0.157812
0.154896
0.151334
0.146658
0.140619
0.133349
0.125387
0.117554
0.110658
0.105214
0.101341
0.098764
0.0969363
0.0951983
0.0929722
0.0899399
0.0861385
0.0819192
0.0777897
0.0742277
0.0715525
0.0698853
0.069177
0.0692697
0.0699571
0.0710303
0.0723023
0.0736171
0.0748493
0.0759012
0.0766995
0.0771928
0.0773495
0.0771561
0.076614
0.0757373
0.0745493
0.0730797
0.0713625
0.0694339
0.0673316
0.0650938
0.062759
0.0603669
0.0579532
0.0555461
0.0531731
0.0508573
0.0486173
0.0464666
0.0444143
0.0424659
0.0406236
0.038887
0.0372543
0.0357222
0.0342866
0.032943
0.0316867
0.0305127
0.0294161
0.0283921
0.027436
0.0265433
0.0257094
0.0249303
0.0242017
0.0235197
0.0228806
0.0222806
0.0217165
0.0211849
0.0206826
0.0202068
0.0197547
0.0193236
0.0189112
0.0185152
0.0181337
0.0177648
0.017407
0.0170589
0.0167193
0.0163875
0.0160629
0.0157453
0.0154344
0.0151307
0.0148344
0.0145462
0.0142668
0.013997