/*--------------------------------*- C++ -*----------------------------------*\
  =========                 |
  \\      /  F ield         | OpenFOAM: The Open Source CFD Toolbox
   \\    /   O peration     | Website:  https://openfoam.org
    \\  /    A nd           | Version:  9
     \\/     M anipulation  |
\*---------------------------------------------------------------------------*/
FoamFile
{
    format      ascii;
    class       volScalarField;
    location    "0.011";
    object      k_0;
}
// * * * * * * * * * * * * * * * * * * * * * * * * * * * * * * * * * * * * * //

dimensions      [0 2 -2 0 0 0 0];

internalField   nonuniform List<scalar> 
12225
(
3.27008e-05
8.25366e-05
0.000112141
0.000124517
0.00012554
0.000117774
8.15213e-05
5.16336e-05
4.19284e-05
4.09697e-05
4.27964e-05
4.42486e-05
4.39733e-05
4.09206e-05
3.32698e-05
2.82544e-05
2.43635e-05
3.4306e-05
2.06076e-05
2.40044e-05
2.9229e-05
3.84476e-05
4.3191e-05
4.32925e-05
3.96337e-05
3.18447e-05
2.84853e-05
2.79217e-05
2.84639e-05
3.11112e-05
3.30719e-05
3.34598e-05
3.32647e-05
3.26463e-05
3.05895e-05
2.81022e-05
2.00322e-05
1.58886e-05
1.40298e-05
1.40977e-05
1.47178e-05
1.51268e-05
1.50561e-05
1.47341e-05
1.46855e-05
1.49254e-05
1.62313e-05
1.78946e-05
1.87279e-05
1.94761e-05
2.02056e-05
2.05005e-05
2.05247e-05
1.99059e-05
2.0092e-05
2.00359e-05
1.97021e-05
1.94649e-05
1.92687e-05
1.88403e-05
1.75994e-05
1.64333e-05
1.6285e-05
1.6609e-05
1.78599e-05
1.87137e-05
1.89218e-05
1.88016e-05
1.77434e-05
1.55924e-05
1.44975e-05
1.41311e-05
2.18425e-05
2.41591e-05
2.40374e-05
2.4033e-05
2.47466e-05
2.81218e-05
3.13178e-05
3.15461e-05
3.01643e-05
2.62538e-05
2.43908e-05
2.39935e-05
2.42611e-05
2.4671e-05
2.45755e-05
2.36217e-05
2.13694e-05
2.02704e-05
2.03186e-05
2.10488e-05
2.23563e-05
2.80047e-05
3.79473e-05
3.92289e-05
3.59559e-05
2.88712e-05
2.51328e-05
2.31529e-05
2.22993e-05
2.20461e-05
2.20292e-05
2.21514e-05
2.28225e-05
2.32671e-05
2.33328e-05
2.32903e-05
2.02094e-05
2.07607e-05
2.20197e-05
2.65576e-05
2.95063e-05
3.04155e-05
3.041e-05
2.75387e-05
2.37104e-05
2.24585e-05
2.22114e-05
2.22874e-05
2.3176e-05
2.44982e-05
2.50244e-05
2.53379e-05
2.54282e-05
2.54282e-05
2.46513e-05
2.49123e-05
2.43472e-05
2.51699e-05
3.04311e-05
3.48605e-05
3.36137e-05
2.69405e-05
2.37517e-05
2.32045e-05
2.36159e-05
2.71967e-05
3.35501e-05
3.57203e-05
3.60735e-05
3.55787e-05
3.2073e-05
2.80997e-05
2.11511e-05
2.14723e-05
2.14203e-05
2.16545e-05
2.3108e-05
2.41694e-05
2.39751e-05
2.27636e-05
2.20999e-05
2.20914e-05
2.27809e-05
2.7041e-05
3.38109e-05
3.75715e-05
3.89759e-05
3.90796e-05
3.83861e-05
3.53053e-05
2.07711e-05
2.2736e-05
2.27485e-05
2.32248e-05
2.39987e-05
2.43213e-05
2.42164e-05
2.29887e-05
2.20097e-05
2.18853e-05
2.20336e-05
2.30092e-05
2.70165e-05
3.60575e-05
4.12951e-05
4.26024e-05
4.27393e-05
4.34151e-05
2.1222e-05
2.45055e-05
2.39367e-05
2.27522e-05
2.26699e-05
2.33158e-05
2.67045e-05
2.80472e-05
2.70676e-05
2.52217e-05
2.43716e-05
2.41726e-05
2.42357e-05
2.48013e-05
2.5544e-05
2.5885e-05
2.61663e-05
2.68855e-05
2.30572e-05
2.6143e-05
2.30214e-05
2.22149e-05
2.33049e-05
2.52203e-05
2.59599e-05
2.5813e-05
2.49432e-05
2.43409e-05
2.41675e-05
2.41515e-05
2.4169e-05
2.41367e-05
2.38052e-05
2.35696e-05
2.35199e-05
2.35854e-05
2.52258e-05
2.75213e-05
2.50252e-05
2.17274e-05
2.12161e-05
2.12524e-05
2.13332e-05
2.14849e-05
2.20335e-05
2.46112e-05
3.47189e-05
4.24033e-05
4.4069e-05
4.30163e-05
3.60935e-05
2.88009e-05
2.4937e-05
2.3006e-05
2.48852e-05
2.76978e-05
2.50245e-05
2.29435e-05
2.29461e-05
2.31193e-05
2.28772e-05
2.28822e-05
2.37146e-05
2.94526e-05
3.88361e-05
4.07267e-05
3.90455e-05
3.19879e-05
2.66342e-05
2.37743e-05
2.23536e-05
2.16544e-05
2.23098e-05
2.62258e-05
2.52908e-05
2.19974e-05
2.14038e-05
2.14007e-05
2.14046e-05
2.14166e-05
2.14423e-05
2.15613e-05
2.18448e-05
2.19357e-05
2.19069e-05
2.17356e-05
2.1596e-05
2.15662e-05
2.174e-05
2.19403e-05
2.03564e-05
2.14984e-05
2.18109e-05
2.18064e-05
2.19334e-05
2.18338e-05
2.1692e-05
2.16422e-05
2.15395e-05
2.1206e-05
2.08876e-05
2.07431e-05
2.07115e-05
2.07253e-05
2.08361e-05
2.12769e-05
2.27189e-05
2.81187e-05
2.0051e-05
2.0461e-05
2.26774e-05
2.63055e-05
2.50723e-05
2.21293e-05
2.17648e-05
2.29967e-05
2.59652e-05
2.66083e-05
2.55755e-05
2.32993e-05
2.22826e-05
2.19715e-05
2.19469e-05
2.20947e-05
2.27096e-05
2.3874e-05
2.07485e-05
2.05523e-05
2.09513e-05
2.15325e-05
2.10417e-05
2.11031e-05
2.31467e-05
2.6063e-05
2.60635e-05
2.48586e-05
2.47499e-05
2.62307e-05
2.80664e-05
2.80406e-05
2.68532e-05
2.51355e-05
2.40917e-05
2.35435e-05
2.03153e-05
2.10855e-05
2.15755e-05
2.36159e-05
2.32132e-05
2.21999e-05
2.25002e-05
2.32577e-05
2.32525e-05
2.31769e-05
2.32817e-05
2.39717e-05
2.55796e-05
2.69997e-05
2.75229e-05
2.73288e-05
2.5889e-05
2.47977e-05
2.00015e-05
2.00818e-05
2.06773e-05
2.2254e-05
2.28463e-05
2.2968e-05
2.31987e-05
2.38454e-05
2.44655e-05
2.4517e-05
2.3743e-05
2.23482e-05
2.17463e-05
2.15121e-05
2.14503e-05
2.14782e-05
2.16733e-05
2.2525e-05
2.02282e-05
2.04468e-05
2.1065e-05
2.12265e-05
2.11449e-05
2.11573e-05
2.15757e-05
2.35981e-05
2.46768e-05
2.44281e-05
2.3437e-05
2.30828e-05
2.31157e-05
2.38635e-05
2.5552e-05
2.60702e-05
2.59185e-05
2.48854e-05
2.15084e-05
2.263e-05
2.25768e-05
2.17538e-05
2.11058e-05
2.12794e-05
2.2723e-05
2.93484e-05
3.72345e-05
3.88297e-05
3.5799e-05
2.85938e-05
2.51977e-05
2.40436e-05
2.39215e-05
2.43013e-05
2.43574e-05
2.3928e-05
2.02321e-05
2.02366e-05
2.0729e-05
2.12825e-05
2.16287e-05
2.21607e-05
2.37213e-05
2.66876e-05
2.77492e-05
2.84242e-05
2.94122e-05
3.02342e-05
3.04269e-05
3.03513e-05
2.98577e-05
2.79117e-05
2.54955e-05
2.37271e-05
2.1332e-05
2.12958e-05
2.08871e-05
2.08563e-05
2.11443e-05
2.21473e-05
2.36112e-05
2.43911e-05
2.4528e-05
2.44915e-05
2.44096e-05
2.44312e-05
2.47757e-05
2.69205e-05
2.91453e-05
2.94185e-05
2.88148e-05
2.70325e-05
2.19795e-05
2.07952e-05
2.05122e-05
2.08371e-05
2.18348e-05
2.25746e-05
2.28945e-05
2.29412e-05
2.28547e-05
2.25449e-05
2.24345e-05
2.24671e-05
2.27477e-05
2.36383e-05
2.68834e-05
3.1794e-05
3.36306e-05
3.34856e-05
2.05488e-05
2.04825e-05
2.03963e-05
2.07451e-05
2.12062e-05
2.1318e-05
2.12841e-05
2.10705e-05
2.09457e-05
2.09534e-05
2.11908e-05
2.25835e-05
2.90928e-05
3.61264e-05
3.78968e-05
3.67327e-05
3.08907e-05
2.64542e-05
2.00788e-05
1.99952e-05
2.00018e-05
2.01284e-05
2.01936e-05
2.01676e-05
1.99806e-05
1.984e-05
1.97251e-05
1.9442e-05
1.83609e-05
1.71484e-05
1.70438e-05
1.74534e-05
1.79997e-05
1.81499e-05
1.81133e-05
1.77824e-05
2.00036e-05
1.16697e-05
1.16343e-05
1.24001e-05
1.3495e-05
1.36071e-05
1.31268e-05
1.21152e-05
1.15333e-05
1.12357e-05
1.11007e-05
1.10365e-05
1.09927e-05
1.09662e-05
1.09473e-05
1.09119e-05
1.07758e-05
1.05197e-05
2.07193e-05
2.05746e-05
2.05469e-05
2.13855e-05
2.20532e-05
2.2086e-05
2.18341e-05
2.11005e-05
2.06831e-05
2.05682e-05
2.05856e-05
2.0761e-05
2.14182e-05
2.19659e-05
2.25018e-05
2.30014e-05
2.35938e-05
2.44876e-05
7.04247e-05
4.61978e-05
2.81872e-05
3.01732e-05
3.83266e-05
3.99717e-05
3.80111e-05
2.99438e-05
2.46215e-05
2.28935e-05
2.2673e-05
2.29634e-05
2.42849e-05
2.77221e-05
3.26489e-05
3.81296e-05
4.36976e-05
4.85671e-05
3.62287e-06
2.50762e-05
9.14396e-05
0.000223553
0.000398989
0.000590785
0.000788822
0.000989302
0.00119062
0.00139503
0.00160616
0.0018303
0.00207223
0.0023175
0.0025591
0.00279326
0.0030247
0.00326025
0.0035035
0.00375989
0.00397725
0.00411712
0.00417555
0.00414657
0.00399605
0.00373313
0.00335871
0.0029426
0.00250863
0.0020041
0.00156284
0.0012372
0.000845612
0.000573715
0.000429693
0.000258474
0.000180102
0.000139138
0.000121773
0.00011802
0.000122185
0.00012401
0.000124845
0.000124979
0.000123257
0.000120353
0.000117059
0.000114381
0.000109708
0.000104174
9.9206e-05
9.44352e-05
8.81224e-05
8.10466e-05
7.61838e-05
6.84015e-05
6.20781e-05
5.52228e-05
4.8891e-05
4.21681e-05
3.59052e-05
2.95939e-05
2.357e-05
1.80476e-05
1.37377e-05
1.0772e-05
8.62088e-06
7.00727e-06
5.77432e-06
4.77953e-06
3.94751e-06
3.24559e-06
2.65433e-06
2.15839e-06
1.74474e-06
1.40171e-06
1.11886e-06
8.87144e-07
6.98568e-07
5.46018e-07
4.23474e-07
3.25801e-07
2.48553e-07
1.87956e-07
1.40836e-07
1.04537e-07
7.6846e-08
5.5936e-08
4.03099e-08
2.87552e-08
2.03017e-08
1.41832e-08
9.80325e-09
6.7029e-09
4.53352e-09
3.03325e-09
2.00788e-09
1.31524e-09
8.52689e-10
5.47248e-10
3.47745e-10
2.18833e-10
1.3641e-10
8.42568e-11
5.15874e-11
3.13216e-11
1.88665e-11
1.12797e-11
6.69596e-12
3.94957e-12
2.31378e-12
1.35106e-12
7.86501e-13
4.56558e-13
2.6437e-13
1.52728e-13
8.80669e-14
5.07104e-14
2.91729e-14
1.67786e-14
9.65942e-15
5.57892e-15
3.24613e-15
1.91681e-15
1.16239e-15
7.36483e-16
4.97679e-16
3.65071e-16
2.92528e-16
2.53871e-16
2.34307e-16
2.25478e-16
2.22463e-16
2.22045e-16
2.22045e-16
2.22045e-16
2.22045e-16
2.22045e-16
2.22045e-16
2.22045e-16
2.22045e-16
2.22045e-16
2.22045e-16
2.22045e-16
2.22045e-16
2.22045e-16
2.22045e-16
2.22045e-16
2.22045e-16
2.22045e-16
2.22045e-16
2.22045e-16
2.22045e-16
2.22045e-16
2.22045e-16
2.22045e-16
2.22045e-16
2.22045e-16
2.22045e-16
2.22045e-16
2.22045e-16
2.22045e-16
2.22045e-16
2.22045e-16
2.22045e-16
2.22045e-16
2.22045e-16
2.22045e-16
2.22045e-16
2.22045e-16
2.22045e-16
2.22045e-16
2.25538e-16
2.84778e-16
1.3692e-15
3.76854e-14
6.64043e-13
7.27954e-12
3.01811e-10
2.58385e-07
1.28335e-05
7.23609e-05
0.000208379
0.000394236
0.000617421
0.000858141
0.00106904
0.00124122
0.00139076
0.0015257
0.00164387
0.0017478
0.00182195
0.00185942
0.00187001
0.00186778
0.00184565
0.0018137
0.00176739
0.00170271
0.00161531
0.00150682
0.00137999
0.00123849
0.00109171
0.000941885
0.000798277
0.000685033
0.000595629
0.000519176
0.000476543
0.000448347
0.000435272
0.000432956
0.000450276
0.000465319
0.000485435
0.000513715
0.000526134
0.000540454
0.000548177
0.000552271
0.000553471
0.000548248
0.000537422
0.000514833
0.000502292
0.000487407
0.000464307
0.000442183
0.000420181
0.000401923
0.000379414
0.000353072
0.000339888
0.00030969
0.000291399
0.000269201
0.000249931
0.000228758
0.000207819
0.000187315
0.000167613
0.0001355
9.90771e-05
7.27043e-05
5.68338e-05
4.50408e-05
3.68508e-05
3.09113e-05
2.60396e-05
2.18867e-05
1.83187e-05
1.52597e-05
1.265e-05
1.04342e-05
8.56014e-06
6.98724e-06
5.67848e-06
4.59192e-06
3.69076e-06
2.94791e-06
2.33837e-06
1.84105e-06
1.43831e-06
1.1148e-06
8.57097e-07
6.53556e-07
4.94176e-07
3.70458e-07
2.75262e-07
2.02664e-07
1.47805e-07
1.06744e-07
7.63189e-08
5.40121e-08
3.78352e-08
2.62337e-08
1.80059e-08
1.22345e-08
8.22971e-09
5.48043e-09
3.61342e-09
2.35935e-09
1.5261e-09
9.78268e-10
6.21724e-10
3.91898e-10
2.45099e-10
1.52137e-10
9.37535e-11
5.7367e-11
3.48607e-11
2.10421e-11
1.26209e-11
7.51962e-12
4.45825e-12
2.63217e-12
1.54755e-12
9.0599e-13
5.28058e-13
3.06375e-13
1.76938e-13
1.01733e-13
5.82665e-14
3.32806e-14
1.89945e-14
1.08656e-14
6.25819e-15
3.6527e-15
2.17963e-15
1.34498e-15
8.7005e-16
5.9844e-16
4.42153e-16
3.51625e-16
2.98847e-16
2.67894e-16
2.49641e-16
2.38817e-16
2.32358e-16
2.28476e-16
2.26119e-16
2.2467e-16
2.23767e-16
2.23194e-16
2.22825e-16
2.22582e-16
2.22418e-16
2.22306e-16
2.22229e-16
2.22176e-16
2.22138e-16
2.2211e-16
2.22089e-16
2.22074e-16
2.22063e-16
2.22055e-16
2.2205e-16
2.22047e-16
2.22046e-16
2.22045e-16
2.22045e-16
2.22045e-16
2.22045e-16
2.22045e-16
2.22045e-16
2.22045e-16
2.22045e-16
2.22045e-16
2.22045e-16
2.22055e-16
2.22192e-16
2.23815e-16
2.55772e-16
1.26993e-15
2.69914e-14
3.19421e-13
2.53168e-11
1.98425e-08
1.39958e-05
7.36807e-05
0.000195065
0.00033068
0.000440532
0.000543589
0.000628132
0.000686431
0.000742118
0.00078533
0.000804202
0.000807681
0.000794692
0.000777565
0.000762505
0.000740939
0.000715006
0.000687044
0.000659729
0.000633406
0.000609882
0.000590346
0.000576892
0.000567152
0.000562112
0.000560031
0.000564081
0.000576434
0.000593142
0.000614511
0.000662162
0.00072142
0.000790542
0.000870316
0.000954205
0.00103445
0.00110684
0.00117045
0.00122184
0.00126806
0.00129699
0.00130933
0.00131226
0.00129077
0.00123464
0.00115157
0.00109279
0.00102926
0.000950041
0.000894076
0.000819367
0.00076777
0.000712546
0.000653443
0.000624865
0.000560952
0.000523095
0.000471504
0.000423249
0.000377061
0.000333575
0.000293059
0.000254715
0.000218321
0.000184808
0.00015498
0.000128393
0.000105451
8.76136e-05
7.51901e-05
6.48812e-05
5.57764e-05
4.7729e-05
4.0636e-05
3.44171e-05
2.89981e-05
2.42888e-05
2.0214e-05
1.67232e-05
1.37476e-05
1.12338e-05
9.1355e-06
7.37686e-06
5.91119e-06
4.70769e-06
3.7288e-06
2.9378e-06
2.30199e-06
1.79338e-06
1.38847e-06
1.06781e-06
8.15294e-07
6.17654e-07
4.64039e-07
3.4557e-07
2.54994e-07
1.86385e-07
1.34932e-07
9.67444e-08
6.86989e-08
4.83098e-08
3.36341e-08
2.31853e-08
1.5837e-08
1.07332e-08
7.22664e-09
4.83878e-09
3.22411e-09
2.13829e-09
1.41141e-09
9.26869e-10
6.05228e-10
3.9272e-10
2.53088e-10
1.61904e-10
1.02777e-10
6.47323e-11
4.04e-11
2.49786e-11
1.53162e-11
9.31284e-12
5.61588e-12
3.3599e-12
1.99572e-12
1.17804e-12
6.91932e-13
4.05028e-13
2.36692e-13
1.38337e-13
8.09978e-14
4.7578e-14
2.80686e-14
1.66471e-14
9.93744e-15
5.98262e-15
3.6452e-15
2.26111e-15
1.44057e-15
9.53667e-16
6.64332e-16
4.91953e-16
3.88797e-16
3.26615e-16
2.88729e-16
2.65336e-16
2.50674e-16
2.41322e-16
2.35228e-16
2.31171e-16
2.28427e-16
2.26554e-16
2.25261e-16
2.24347e-16
2.23682e-16
2.23187e-16
2.22821e-16
2.22556e-16
2.22374e-16
2.22253e-16
2.22177e-16
2.22131e-16
2.22103e-16
2.22085e-16
2.22075e-16
2.22068e-16
2.22063e-16
2.22058e-16
2.22055e-16
2.22054e-16
2.22054e-16
2.22058e-16
2.22074e-16
2.22156e-16
2.22702e-16
2.27387e-16
2.75604e-16
1.28355e-15
1.21317e-14
1.08444e-12
7.42852e-10
1.13904e-05
5.43103e-05
0.000127452
0.000191589
0.000232822
0.000265883
0.000292608
0.000310814
0.000329148
0.000346921
0.000362832
0.000377613
0.000390005
0.000401585
0.000413203
0.00042722
0.000445056
0.000466978
0.00049148
0.000518001
0.000546587
0.000577235
0.000607832
0.000647189
0.000689058
0.000744996
0.000814396
0.000886183
0.00101513
0.00119627
0.00137857
0.00156839
0.00178076
0.00198644
0.00217255
0.00235342
0.00252339
0.00262908
0.00268097
0.00270544
0.00271222
0.00268404
0.00261845
0.0025374
0.0024262
0.00231033
0.00217926
0.00204226
0.00187767
0.00170648
0.00150648
0.00138077
0.00122585
0.00104778
0.00093958
0.000791116
0.000686754
0.000586081
0.000503111
0.000431829
0.000370461
0.000317619
0.000271426
0.000230987
0.000196351
0.000167086
0.000142881
0.000122883
0.00010624
9.23189e-05
8.03923e-05
6.95749e-05
5.99118e-05
5.1359e-05
4.38018e-05
3.71748e-05
3.14085e-05
2.64274e-05
2.21389e-05
1.84353e-05
1.52555e-05
1.25636e-05
1.0267e-05
8.32768e-06
6.74973e-06
5.46128e-06
4.40686e-06
3.54405e-06
2.83887e-06
2.264e-06
1.79653e-06
1.418e-06
1.11291e-06
8.68288e-07
6.73217e-07
5.18542e-07
3.96628e-07
3.01147e-07
2.26896e-07
1.69609e-07
1.25752e-07
9.24065e-08
6.72516e-08
4.8518e-08
3.47835e-08
2.48126e-08
1.76208e-08
1.24585e-08
8.7668e-09
6.13577e-09
4.2678e-09
2.9478e-09
2.02055e-09
1.37374e-09
9.26086e-10
6.18918e-10
4.10021e-10
2.69316e-10
1.75423e-10
1.13327e-10
7.26354e-11
4.62033e-11
2.91803e-11
1.83085e-11
1.14207e-11
7.08879e-12
4.38192e-12
2.69959e-12
1.65844e-12
1.01617e-12
6.20992e-13
3.78391e-13
2.29824e-13
1.39112e-13
8.39304e-14
5.05076e-14
3.03602e-14
1.82727e-14
1.105e-14
6.74589e-15
4.18322e-15
2.65416e-15
1.73607e-15
1.17982e-15
8.38857e-16
6.26954e-16
4.9297e-16
4.06421e-16
3.49271e-16
3.10891e-16
2.84847e-16
2.66995e-16
2.54457e-16
2.45343e-16
2.38563e-16
2.3353e-16
2.29877e-16
2.27382e-16
2.25693e-16
2.24615e-16
2.23946e-16
2.23489e-16
2.23174e-16
2.22967e-16
2.22793e-16
2.2261e-16
2.22547e-16
2.22555e-16
2.22665e-16
2.2306e-16
2.24379e-16
2.29208e-16
2.5554e-16
4.35025e-16
1.89198e-15
1.00206e-14
1.25151e-13
2.45762e-13
7.27855e-13
3.45577e-11
7.79511e-06
3.27425e-05
7.45189e-05
0.000110321
0.000128223
0.000142052
0.000156066
0.000170238
0.000188253
0.000209397
0.00023292
0.00025896
0.000287182
0.000318387
0.000354436
0.000393084
0.000434761
0.000476506
0.000525769
0.000581042
0.000640844
0.00069425
0.000761447
0.00083608
0.000953039
0.0010834
0.00128521
0.00157686
0.00188945
0.00214346
0.00239775
0.00265834
0.00284227
0.00300262
0.00316232
0.0032461
0.00328134
0.00329207
0.00328764
0.00323279
0.00314458
0.00305825
0.00293314
0.00280802
0.00272301
0.00263941
0.00253055
0.00246049
0.00239895
0.00227538
0.00206663
0.0018537
0.00154682
0.00138468
0.0011277
0.000970877
0.000806418
0.000679679
0.000574888
0.000490519
0.000421824
0.000362441
0.000306745
0.000254871
0.000209013
0.000171876
0.00014225
0.000118235
9.88046e-05
8.29602e-05
7.02443e-05
6.066e-05
5.31996e-05
4.70372e-05
4.13652e-05
3.59222e-05
3.09214e-05
2.63939e-05
2.23557e-05
1.88135e-05
1.57398e-05
1.30961e-05
1.08393e-05
8.92622e-06
7.31494e-06
5.96597e-06
4.8428e-06
3.91231e-06
3.14461e-06
2.51484e-06
1.99999e-06
1.58253e-06
1.24641e-06
9.76783e-07
7.6141e-07
5.90186e-07
4.54762e-07
3.48245e-07
2.64955e-07
2.0023e-07
1.50261e-07
1.11945e-07
8.27757e-08
6.07357e-08
4.42124e-08
3.1924e-08
2.28598e-08
1.62296e-08
1.14212e-08
7.96442e-09
5.50166e-09
3.76338e-09
2.54825e-09
1.70729e-09
1.13133e-09
7.41112e-10
4.79698e-10
3.06625e-10
1.93438e-10
1.20362e-10
7.38115e-11
4.459e-11
2.6511e-11
1.55075e-11
8.92684e-12
5.03611e-12
2.81265e-12
1.56582e-12
8.73043e-13
4.90144e-13
2.7858e-13
1.61093e-13
9.51754e-14
5.7625e-14
3.58163e-14
2.28575e-14
1.49609e-14
1.00329e-14
6.8868e-15
4.82345e-15
3.4402e-15
2.50211e-15
1.86094e-15
1.41594e-15
1.10186e-15
8.76871e-16
7.13582e-16
5.93594e-16
5.04532e-16
4.37899e-16
3.87645e-16
3.49639e-16
3.20463e-16
2.97928e-16
2.80667e-16
2.66958e-16
2.56379e-16
2.48446e-16
2.41751e-16
2.37081e-16
2.33663e-16
2.30565e-16
2.29481e-16
2.29685e-16
2.31131e-16
2.34434e-16
2.44119e-16
2.60406e-16
3.02984e-16
4.16857e-16
8.14586e-16
2.30416e-15
1.18672e-14
7.78888e-14
6.55384e-13
3.4321e-12
3.42535e-11
4.62401e-11
1.77857e-10
1.74058e-10
5.81838e-06
2.05368e-05
4.44773e-05
6.52928e-05
7.52298e-05
8.45184e-05
9.73723e-05
0.000113867
0.000135765
0.00016257
0.000193947
0.000229708
0.00026958
0.000313871
0.000362717
0.000425857
0.000516948
0.000623808
0.000689245
0.000772602
0.00083161
0.000914724
0.00106771
0.00130213
0.00154907
0.00179863
0.00210223
0.00233993
0.00252371
0.00269557
0.0028729
0.0030592
0.00326735
0.00344756
0.00357106
0.00362338
0.00364095
0.00363732
0.00357593
0.0034672
0.00335676
0.00322559
0.0029267
0.00276843
0.00265384
0.00255
0.00247307
0.00246489
0.00246996
0.00248232
0.00249193
0.00246406
0.00226898
0.00191848
0.0015491
0.00123561
0.000991596
0.000802343
0.000656123
0.000543172
0.000456672
0.000390665
0.000339532
0.000297634
0.000258432
0.000217134
0.000174506
0.000136044
0.000106759
8.45619e-05
6.79044e-05
5.51214e-05
4.51691e-05
3.74869e-05
3.20633e-05
2.83741e-05
2.55154e-05
2.2837e-05
2.00791e-05
1.73846e-05
1.48747e-05
1.25925e-05
1.05617e-05
8.78442e-06
7.25087e-06
5.94271e-06
4.83896e-06
3.91543e-06
3.15009e-06
2.51913e-06
2.00387e-06
1.58379e-06
1.2458e-06
9.75064e-07
7.59197e-07
5.879e-07
4.52658e-07
3.46451e-07
2.63514e-07
1.9913e-07
1.49461e-07
1.11394e-07
8.24188e-08
6.05214e-08
4.40959e-08
3.18699e-08
2.28423e-08
1.62315e-08
1.14316e-08
7.97742e-09
5.51418e-09
3.77411e-09
2.55681e-09
1.71378e-09
1.13602e-09
7.44366e-10
4.81855e-10
3.07979e-10
1.94228e-10
1.20773e-10
7.39845e-11
4.46105e-11
2.64511e-11
1.54069e-11
8.80634e-12
4.93416e-12
2.70727e-12
1.45335e-12
7.62829e-13
3.91311e-13
1.96186e-13
9.62035e-14
4.62344e-14
2.1871e-14
1.02681e-14
4.86004e-15
2.38598e-15
1.26215e-15
7.47645e-16
5.15611e-16
4.11209e-16
3.58751e-16
3.25897e-16
3.0273e-16
2.85478e-16
2.72239e-16
2.6189e-16
2.5376e-16
2.4728e-16
2.42193e-16
2.3808e-16
2.34877e-16
2.32304e-16
2.30155e-16
2.28674e-16
2.27079e-16
2.26332e-16
2.25153e-16
2.2453e-16
2.27297e-16
2.38375e-16
2.68175e-16
3.34925e-16
4.7655e-16
7.77661e-16
1.44863e-15
3.02304e-15
6.90044e-15
1.68566e-14
4.30429e-14
1.13709e-13
3.03555e-13
8.20595e-13
2.1415e-12
5.57091e-12
1.25672e-11
4.78535e-11
5.33955e-11
8.26436e-11
1.04747e-10
4.82743e-06
1.38329e-05
2.75417e-05
4.07255e-05
4.81033e-05
5.70319e-05
7.10168e-05
9.02098e-05
0.00011597
0.000148215
0.000186393
0.00022908
0.000277714
0.000341158
0.000427655
0.000507246
0.000620523
0.00074194
0.000837381
0.000928743
0.0010775
0.00133202
0.00162369
0.00186375
0.0021136
0.00233867
0.00252168
0.00271595
0.002849
0.00309664
0.00341401
0.00377632
0.00422766
0.00470713
0.0052104
0.00569092
0.00609066
0.00629578
0.00637735
0.00633506
0.00593052
0.00564382
0.00458954
0.00391595
0.00340501
0.00299216
0.00259554
0.00244244
0.00237071
0.0023638
0.00246265
0.00257582
0.0026516
0.00257235
0.00215902
0.00155847
0.00118669
0.000916514
0.000726877
0.000588741
0.000477555
0.000396847
0.000339543
0.000300587
0.000270209
0.000243681
0.000218324
0.000188716
0.000150982
0.000112543
8.28186e-05
6.16273e-05
4.67053e-05
3.62063e-05
2.85789e-05
2.28946e-05
1.87125e-05
1.595e-05
1.42845e-05
1.3067e-05
1.18529e-05
1.05032e-05
9.1312e-06
7.81858e-06
6.60543e-06
5.51454e-06
4.55553e-06
3.72714e-06
3.02341e-06
2.43241e-06
1.94311e-06
1.54026e-06
1.21378e-06
9.51042e-07
7.40912e-07
5.73851e-07
4.41816e-07
3.38081e-07
2.57072e-07
1.94201e-07
1.45717e-07
1.08575e-07
8.03162e-08
5.89693e-08
4.29626e-08
3.1052e-08
2.22592e-08
1.5821e-08
1.11465e-08
7.78206e-09
5.38222e-09
3.68628e-09
2.49926e-09
1.67669e-09
1.11254e-09
7.29769e-10
4.72965e-10
3.02684e-10
1.91153e-10
1.19038e-10
7.30396e-11
4.41172e-11
2.62068e-11
1.52943e-11
8.75956e-12
4.91807e-12
2.70388e-12
1.45409e-12
7.6415e-13
3.92085e-13
1.96296e-13
9.58519e-14
4.56578e-14
2.12427e-14
9.68956e-15
4.37331e-15
1.99502e-15
9.60496e-16
5.22741e-16
3.42512e-16
2.70262e-16
2.41941e-16
2.30965e-16
2.26666e-16
2.2489e-16
2.24064e-16
2.23602e-16
2.23297e-16
2.23064e-16
2.22883e-16
2.2273e-16
2.22609e-16
2.22508e-16
2.2242e-16
2.2236e-16
2.2229e-16
2.22256e-16
2.22209e-16
2.22171e-16
2.23348e-16
2.30113e-16
2.48646e-16
2.91155e-16
3.82965e-16
5.84176e-16
1.04111e-15
2.1458e-15
4.91734e-15
1.22165e-14
3.14761e-14
8.39494e-14
2.21615e-13
5.92456e-13
1.48699e-12
4.08711e-12
8.10349e-12
2.69025e-11
2.93536e-11
3.12581e-11
3.87108e-11
4.38625e-06
1.03739e-05
1.84122e-05
2.73195e-05
3.39293e-05
4.34779e-05
5.87438e-05
8.00567e-05
0.000108692
0.000145637
0.000189065
0.000243613
0.000318226
0.0004103
0.000543659
0.000720589
0.000814347
0.000865065
0.0010003
0.00118437
0.0014684
0.00179684
0.00205868
0.002284
0.00247825
0.00266321
0.00282905
0.00304062
0.00337168
0.0039035
0.00467419
0.00577562
0.00734443
0.00939911
0.0118837
0.0144345
0.0165193
0.0176159
0.0180535
0.0178393
0.0164153
0.0155121
0.0125847
0.0100033
0.00813528
0.00636695
0.00461829
0.00374776
0.00291978
0.00260515
0.00249991
0.00249863
0.00266088
0.002758
0.00272278
0.00218348
0.00146757
0.00104654
0.000787271
0.000619793
0.000501501
0.000405692
0.00033278
0.000280607
0.000250915
0.000236012
0.000221099
0.000204806
0.000187164
0.000164351
0.000130202
9.29637e-05
6.47975e-05
4.52887e-05
3.22096e-05
2.35871e-05
1.7832e-05
1.38023e-05
1.08932e-05
8.9021e-06
7.70006e-06
7.03677e-06
6.52463e-06
5.95879e-06
5.29833e-06
4.61208e-06
3.94276e-06
3.31644e-06
2.74993e-06
2.25096e-06
1.82179e-06
1.45892e-06
1.15786e-06
9.11892e-07
7.13001e-07
5.53643e-07
4.27012e-07
3.27154e-07
2.48977e-07
1.88203e-07
1.41282e-07
1.0531e-07
7.79274e-08
5.72338e-08
4.17121e-08
3.0159e-08
2.16276e-08
1.53789e-08
1.08405e-08
7.57268e-09
5.24075e-09
3.59197e-09
2.43729e-09
1.63658e-09
1.08701e-09
7.1382e-10
4.632e-10
2.96841e-10
1.87747e-10
1.17114e-10
7.19919e-11
4.35733e-11
2.59422e-11
1.51774e-11
8.71628e-12
4.90828e-12
2.70718e-12
1.46094e-12
7.70617e-13
3.96953e-13
1.99529e-13
9.78234e-14
4.67814e-14
2.18459e-14
9.99539e-15
4.51929e-15
2.05975e-15
9.8637e-16
5.31284e-16
3.43793e-16
2.68697e-16
2.39463e-16
2.28399e-16
2.24326e-16
2.22864e-16
2.22351e-16
2.22173e-16
2.2211e-16
2.22086e-16
2.22075e-16
2.22069e-16
2.22065e-16
2.22061e-16
2.22058e-16
2.22056e-16
2.22054e-16
2.22053e-16
2.22051e-16
2.2205e-16
2.22122e-16
2.26797e-16
2.41535e-16
2.7658e-16
3.52118e-16
5.15388e-16
8.76437e-16
1.72879e-15
3.80806e-15
9.1701e-15
2.29051e-14
5.93409e-14
1.50846e-13
3.85816e-13
9.13218e-13
2.58459e-12
4.40471e-12
1.0576e-11
1.16972e-11
1.24839e-11
1.52858e-11
4.23386e-06
8.72317e-06
1.36528e-05
2.01693e-05
2.62233e-05
3.57773e-05
5.15449e-05
7.45554e-05
0.000106948
0.000150574
0.000210312
0.000292155
0.000400177
0.000542409
0.000681431
0.000820636
0.000989237
0.00117605
0.00140468
0.0016746
0.00195559
0.00219999
0.00236299
0.00251473
0.0026547
0.0028663
0.00317024
0.00362084
0.00437718
0.00564253
0.00774444
0.0110955
0.0161578
0.0232531
0.0320017
0.0372627
0.0409168
0.0430416
0.0437937
0.0428242
0.0398018
0.0360423
0.031961
0.0250357
0.0217685
0.0161704
0.0121802
0.00904895
0.00583333
0.00402042
0.00317432
0.00278364
0.00263753
0.00267832
0.00275219
0.00257414
0.0019201
0.00127181
0.00085216
0.000629376
0.000506075
0.00041262
0.000337843
0.000276959
0.000230163
0.00019965
0.000190441
0.000190211
0.000186242
0.000176389
0.000163285
0.000142392
0.000108259
7.35057e-05
4.87636e-05
3.21747e-05
2.15935e-05
1.49984e-05
1.08595e-05
8.13843e-06
6.24648e-06
4.93519e-06
4.11036e-06
3.64665e-06
3.38381e-06
3.15437e-06
2.88184e-06
2.56093e-06
2.22368e-06
1.89127e-06
1.57872e-06
1.29627e-06
1.04874e-06
8.38297e-07
6.62897e-07
5.1912e-07
4.02919e-07
3.10143e-07
2.36852e-07
1.79505e-07
1.35024e-07
1.00805e-07
7.46918e-08
5.49199e-08
4.00671e-08
2.89979e-08
2.08149e-08
1.48153e-08
1.04535e-08
7.30991e-09
5.06438e-09
3.47507e-09
2.36084e-09
1.58731e-09
1.05576e-09
6.94338e-10
4.51287e-10
2.89712e-10
1.83587e-10
1.14755e-10
7.07013e-11
4.28977e-11
2.56088e-11
1.50266e-11
8.65746e-12
4.89231e-12
2.70868e-12
1.4678e-12
7.77684e-13
4.02512e-13
2.03362e-13
1.00247e-13
4.82147e-14
2.26478e-14
1.04225e-14
4.73677e-15
2.1659e-15
1.03603e-15
5.53457e-16
3.53224e-16
2.72534e-16
2.40944e-16
2.28927e-16
2.24484e-16
2.22888e-16
2.22329e-16
2.22138e-16
2.22075e-16
2.22055e-16
2.22048e-16
2.22046e-16
2.22045e-16
2.22045e-16
2.22045e-16
2.22045e-16
2.22045e-16
2.22045e-16
2.22045e-16
2.22045e-16
2.22047e-16
2.24548e-16
2.34691e-16
2.60853e-16
3.1869e-16
4.4364e-16
7.14532e-16
1.33628e-15
2.80453e-15
6.47191e-15
1.55381e-14
3.86395e-14
9.37994e-14
2.25997e-13
5.0773e-13
1.03999e-12
2.18649e-12
2.74683e-12
3.28969e-12
3.64436e-12
4.80307e-12
4.1803e-06
8.03425e-06
1.11907e-05
1.64125e-05
2.21017e-05
3.14159e-05
4.66984e-05
6.99172e-05
0.000104483
0.000153481
0.000222567
0.00031064
0.000429143
0.000595947
0.000791827
0.000931961
0.00106227
0.00127733
0.001567
0.00186406
0.00215745
0.0023838
0.00250929
0.00268864
0.00295797
0.00335186
0.00386674
0.00458928
0.00629486
0.00955978
0.0156049
0.0264902
0.0381262
0.0493924
0.057465
0.0670929
0.0757867
0.0813186
0.0845273
0.0854075
0.0763747
0.0664573
0.0565744
0.0432827
0.0366027
0.0301814
0.0243216
0.0193472
0.0148818
0.00846276
0.0052003
0.00374461
0.00304693
0.00270637
0.00256571
0.00248391
0.00202763
0.00142822
0.000954005
0.000638706
0.00048528
0.000401702
0.000338303
0.000281435
0.000232061
0.000191326
0.000162639
0.000149277
0.000151518
0.000159759
0.00016118
0.000156022
0.000143267
0.00011981
8.42844e-05
5.429e-05
3.41064e-05
2.13583e-05
1.36655e-05
9.11059e-06
6.37822e-06
4.65786e-06
3.49703e-06
2.70003e-06
2.18531e-06
1.87204e-06
1.69275e-06
1.5833e-06
1.47797e-06
1.34779e-06
1.19243e-06
1.02857e-06
8.66237e-07
7.15265e-07
5.80466e-07
4.63937e-07
3.65835e-07
2.85038e-07
2.19701e-07
1.67676e-07
1.26797e-07
9.50494e-08
7.06501e-08
5.20795e-08
3.80743e-08
2.76052e-08
1.98473e-08
1.41479e-08
9.99721e-09
7.00095e-09
4.85747e-09
3.33814e-09
2.27139e-09
1.52971e-09
1.01923e-09
6.71555e-10
4.37343e-10
2.81355e-10
1.78696e-10
1.11973e-10
6.91701e-11
4.20898e-11
2.52055e-11
1.48406e-11
8.58227e-12
4.86955e-12
2.708e-12
1.47445e-12
7.85244e-13
4.0868e-13
2.07703e-13
1.0303e-13
4.98805e-14
2.35897e-14
1.09293e-14
4.99746e-15
2.29448e-15
1.09701e-15
5.81361e-16
3.65564e-16
2.77799e-16
2.43112e-16
2.29788e-16
2.24813e-16
2.23007e-16
2.2237e-16
2.22152e-16
2.22079e-16
2.22055e-16
2.22048e-16
2.22046e-16
2.22045e-16
2.22045e-16
2.22045e-16
2.22045e-16
2.22045e-16
2.22045e-16
2.22045e-16
2.22045e-16
2.22045e-16
2.221e-16
2.27282e-16
2.44224e-16
2.84127e-16
3.71146e-16
5.56248e-16
9.6645e-16
1.89717e-15
4.12299e-15
9.38298e-15
2.20525e-14
5.0327e-14
1.24798e-13
2.31818e-13
5.69883e-13
6.26727e-13
6.82631e-13
8.14066e-13
9.18334e-13
1.27873e-12
4.13632e-06
7.81792e-06
9.9729e-06
1.42498e-05
1.95256e-05
2.83475e-05
4.36884e-05
6.80417e-05
0.00010556
0.000160323
0.000235101
0.00034291
0.000491634
0.000656669
0.000827819
0.00099978
0.00119206
0.00146057
0.00178843
0.00211246
0.00235326
0.00252962
0.00267906
0.00287872
0.00318733
0.00369562
0.00459602
0.00660493
0.0118238
0.0206001
0.0324347
0.0456739
0.060134
0.0788028
0.100889
0.127931
0.157216
0.186351
0.200931
0.205302
0.185697
0.158094
0.1214
0.0846666
0.0553183
0.0388708
0.0292174
0.0235481
0.0201478
0.0167426
0.0100405
0.00597885
0.00423931
0.00328824
0.00261206
0.00213184
0.00176942
0.00137924
0.000963295
0.000647278
0.000444394
0.000349134
0.000310691
0.000276678
0.000235905
0.000196465
0.000161587
0.000137275
0.000123315
0.000121555
0.000131038
0.000141513
0.000143388
0.000138797
0.000124284
9.3191e-05
5.96627e-05
3.63923e-05
2.17039e-05
1.2996e-05
8.0246e-06
5.21064e-06
3.57645e-06
2.56877e-06
1.89897e-06
1.44538e-06
1.14656e-06
9.50317e-07
8.26879e-07
7.56407e-07
7.11672e-07
6.64339e-07
6.0259e-07
5.2912e-07
4.52099e-07
3.76987e-07
3.07663e-07
2.46395e-07
1.94089e-07
1.50671e-07
1.15453e-07
8.74324e-08
6.5501e-08
4.85781e-08
3.56835e-08
2.59698e-08
1.87292e-08
1.33859e-08
9.48063e-09
6.65333e-09
4.62569e-09
3.18526e-09
2.17177e-09
1.46567e-09
9.78674e-10
6.463e-10
4.21907e-10
2.72118e-10
1.73301e-10
1.0891e-10
6.74933e-11
4.12129e-11
2.47749e-11
1.46483e-11
8.51002e-12
4.85282e-12
2.71353e-12
1.48635e-12
7.96781e-13
4.17659e-13
2.13925e-13
1.07016e-13
5.22834e-14
2.49655e-14
1.16816e-14
5.39174e-15
2.49298e-15
1.19317e-15
6.26249e-16
3.85772e-16
2.86582e-16
2.46799e-16
2.31284e-16
2.25401e-16
2.23231e-16
2.22453e-16
2.22181e-16
2.22089e-16
2.22059e-16
2.22049e-16
2.22046e-16
2.22045e-16
2.22045e-16
2.22045e-16
2.22045e-16
2.22045e-16
2.22045e-16
2.22045e-16
2.22045e-16
2.22045e-16
2.22046e-16
2.22508e-16
2.29278e-16