/*--------------------------------*- C++ -*----------------------------------*\
  =========                 |
  \\      /  F ield         | OpenFOAM: The Open Source CFD Toolbox
   \\    /   O peration     | Website:  https://openfoam.org
    \\  /    A nd           | Version:  9
     \\/     M anipulation  |
\*---------------------------------------------------------------------------*/
FoamFile
{
    format      ascii;
    class       surfaceScalarField;
    location    "0.011";
    object      phi_0;
}
// * * * * * * * * * * * * * * * * * * * * * * * * * * * * * * * * * * * * * //

dimensions      [0 3 -1 0 0 0 0];

internalField   nonuniform List<scalar> 
24170
(
3.10515e-06
-4.22561e-09
3.01201e-06
9.31364e-08
2.9209e-06
9.11162e-08
2.82583e-06
9.50633e-08
2.72361e-06
1.02225e-07
2.62252e-06
1.01094e-07
2.52557e-06
9.69481e-08
2.43116e-06
9.44097e-08
2.34007e-06
9.1089e-08
2.25472e-06
8.53495e-08
2.17905e-06
7.56732e-08
2.11244e-06
6.66096e-08
2.05282e-06
5.96144e-08
1.99193e-06
6.08895e-08
1.9277e-06
6.42343e-08
1.85727e-06
7.04299e-08
1.7663e-06
9.09667e-08
1.0729e-07
1.65901e-06
3.41859e-06
-1.97586e-09
3.4444e-06
6.73285e-08
3.45377e-06
8.17463e-08
3.4494e-06
9.94235e-08
3.4386e-06
1.13033e-07
3.42259e-06
1.17096e-07
3.40188e-06
1.17665e-07
3.3789e-06
1.17388e-07
3.35816e-06
1.11822e-07
3.34355e-06
9.9961e-08
3.33516e-06
8.40693e-08
3.32901e-06
7.27566e-08
3.31982e-06
6.88066e-08
3.30282e-06
7.78869e-08
3.2759e-06
9.11538e-08
3.23931e-06
1.07019e-07
3.1963e-06
1.33982e-07
1.54283e-07
3.1493e-06
3.59339e-06
8.3036e-08
3.63585e-06
2.4865e-08
3.67338e-06
4.42149e-08
3.70057e-06
7.22292e-08
3.71215e-06
1.01462e-07
3.70502e-06
1.24218e-07
3.69077e-06
1.31919e-07
3.68276e-06
1.25398e-07
3.68593e-06
1.08656e-07
3.6983e-06
8.75858e-08
3.7132e-06
6.9173e-08
3.72423e-06
6.17216e-08
3.72502e-06
6.80207e-08
3.71477e-06
8.81407e-08
3.69276e-06
1.13164e-07
3.66438e-06
1.35397e-07
3.63959e-06
1.58766e-07
1.74025e-07
3.61985e-06
3.92666e-06
1.47625e-08
3.92281e-06
2.87143e-08
3.92019e-06
4.68341e-08
3.93051e-06
6.19107e-08
3.94366e-06
8.83126e-08
3.9483e-06
1.19572e-07
3.94528e-06
1.34941e-07
3.93996e-06
1.30721e-07
3.93435e-06
1.14265e-07
3.92831e-06
9.3622e-08
3.9216e-06
7.58825e-08
3.91526e-06
6.80672e-08
3.91013e-06
7.31487e-08
3.90705e-06
9.12184e-08
3.90482e-06
1.15392e-07
3.90305e-06
1.37168e-07
3.90445e-06
1.57374e-07
1.70245e-07
3.90823e-06
4.18461e-06
1.65522e-08
4.20091e-06
1.24108e-08
4.18384e-06
6.39111e-08
4.15944e-06
8.63025e-08
4.15393e-06
9.38293e-08
4.16421e-06
1.09293e-07
4.17863e-06
1.20519e-07
4.19049e-06
1.1886e-07
4.19905e-06
1.05708e-07
4.20552e-06
8.7147e-08
4.20966e-06
7.17413e-08
4.21018e-06
6.75547e-08
4.20619e-06
7.71327e-08
4.19917e-06
9.82399e-08
4.19123e-06
1.23332e-07
4.18408e-06
1.44315e-07
4.18133e-06
1.60127e-07
1.67344e-07
4.18423e-06
4.4494e-06
9.8199e-08
4.44183e-06
1.99863e-08
4.45967e-06
4.60729e-08
4.4626e-06
8.33656e-08
4.45217e-06
1.04265e-07
4.43914e-06
1.2232e-07
4.43046e-06
1.29199e-07
4.42902e-06
1.20299e-07
4.43564e-06
9.90902e-08
4.44952e-06
7.32659e-08
4.46751e-06
5.37537e-08
4.48481e-06
5.02533e-08
4.49705e-06
6.48941e-08
4.50288e-06
9.24128e-08
4.50393e-06
1.22277e-07
4.50305e-06
1.45192e-07
4.50486e-06
1.58324e-07
1.60545e-07
4.51166e-06
4.83344e-06
2.51997e-08
4.9265e-06
-7.30727e-08
4.91563e-06
5.69442e-08
4.88532e-06
1.1367e-07
4.87166e-06
1.1793e-07
4.86506e-06
1.2892e-07
4.84852e-06
1.45741e-07
4.82146e-06
1.47359e-07
4.79588e-06
1.24669e-07
4.78226e-06
8.68864e-08
4.78307e-06
5.29468e-08
4.79416e-06
3.91602e-08
4.80889e-06
5.01605e-08
4.82148e-06
7.98292e-08
4.82905e-06
1.14702e-07
4.83129e-06
1.42954e-07
4.83082e-06
1.58797e-07
1.6096e-07
4.8304e-06
5.23262e-06
5.23712e-08
5.18467e-06
-2.51197e-08
5.19994e-06
4.16725e-08
5.1991e-06
1.14503e-07
5.16651e-06
1.5052e-07
5.13742e-06
1.58018e-07
5.13631e-06
1.46852e-07
5.16234e-06
1.21324e-07
5.20009e-06
8.69188e-08
5.23119e-06
5.57823e-08
5.24359e-06
4.05517e-08
5.23558e-06
4.71686e-08
5.21373e-06
7.20137e-08
5.18772e-06
1.05833e-07
5.16484e-06
1.37582e-07
5.14907e-06
1.58725e-07
5.14219e-06
1.65679e-07
1.6051e-07
5.14264e-06
5.49089e-06
-9.15048e-09
5.47297e-06
-7.19817e-09
5.48707e-06
2.75737e-08
5.52687e-06
7.47059e-08
5.5379e-06
1.3949e-07
5.52253e-06
1.73388e-07
5.50827e-06
1.61105e-07
5.51336e-06
1.16237e-07
5.53521e-06
6.50645e-08
5.55856e-06
3.24393e-08
5.56856e-06
3.05512e-08
5.55923e-06
5.64944e-08
5.53541e-06
9.58377e-08
5.50869e-06
1.3255e-07
5.49011e-06
1.56167e-07
5.48588e-06
1.62953e-07
5.49571e-06
1.55844e-07
1.41038e-07
5.51518e-06
5.96032e-06
7.10002e-08
5.93473e-06
1.83898e-08
5.91481e-06
4.74913e-08
5.89807e-06
9.14493e-08
5.90639e-06
1.31164e-07
5.93861e-06
1.4117e-07
5.9779e-06
1.21812e-07
6.00343e-06
9.07124e-08
6.00443e-06
6.40655e-08
5.98529e-06
5.15785e-08
5.95991e-06
5.59245e-08
5.9422e-06
7.42114e-08
5.93884e-06
9.91987e-08
5.9492e-06
1.22187e-07
5.96789e-06
1.37471e-07
5.9875e-06
1.43349e-07
6.00076e-06
1.42582e-07
1.37748e-07
6.00405e-06
6.41808e-06
1.6061e-07
6.33863e-06
9.78325e-08
6.27456e-06
1.11567e-07
6.22857e-06
1.37433e-07
6.22167e-06
1.38069e-07
6.24842e-06
1.1442e-07
6.28754e-06
8.26929e-08
6.32151e-06
5.67413e-08
6.34383e-06
4.17425e-08
6.35691e-06
3.84995e-08
6.36538e-06
4.74506e-08
6.37266e-06
6.69373e-08
6.38042e-06
9.14399e-08
6.38858e-06
1.14027e-07
6.39639e-06
1.29654e-07
6.40257e-06
1.37172e-07
6.40757e-06
1.37581e-07
1.33949e-07
6.41137e-06
5.67575e-06
1.58224e-07
5.63659e-06
1.36999e-07
5.63942e-06
1.08728e-07
5.68337e-06
9.34867e-08
5.71762e-06
1.03823e-07
5.71316e-06
1.18879e-07
5.68288e-06
1.1297e-07
5.65357e-06
8.60556e-08
5.64085e-06
5.44616e-08
5.6461e-06
3.32434e-08
5.6633e-06
3.02578e-08
5.68558e-06
4.46533e-08
5.70723e-06
6.97878e-08
5.72415e-06
9.71079e-08
5.73562e-06
1.18181e-07
5.7425e-06
1.30299e-07
5.7477e-06
1.3238e-07
1.28238e-07
5.75341e-06
6.80423e-06
1.76213e-07
6.8172e-06
1.24035e-07
6.8476e-06
7.83296e-08
6.87035e-06
7.07362e-08
6.88839e-06
8.57832e-08
6.91685e-06
9.04163e-08
6.9605e-06
6.93238e-08
7.01116e-06
3.53863e-08
7.05273e-06
1.28948e-08
7.07386e-06
1.21157e-08
7.07243e-06
3.16831e-08
7.05295e-06
6.4134e-08
7.02335e-06
9.93937e-08
6.99076e-06
1.29692e-07
6.96076e-06
1.48185e-07
6.93705e-06
1.54012e-07
6.92193e-06
1.47496e-07
1.34642e-07
6.91553e-06
8.56499e-06
1.32124e-07
8.57717e-06
1.11855e-07
8.59828e-06
5.7215e-08
8.60722e-06
6.17959e-08
8.5919e-06
1.01112e-07
8.57501e-06
1.07298e-07
8.56561e-06
7.87281e-08
8.55941e-06
4.15816e-08
8.54805e-06
2.42548e-08
8.52378e-06
3.63871e-08
8.48865e-06
6.6813e-08
8.45168e-06
1.01103e-07
8.42256e-06
1.28517e-07
8.40848e-06
1.4377e-07
8.41155e-06
1.45123e-07
8.42986e-06
1.35695e-07
8.45821e-06
1.19151e-07
1.01572e-07
8.49128e-06
1.0421e-05
1.00543e-07
1.03466e-05
1.86321e-07
1.03075e-05
9.62345e-08
1.03331e-05
3.61875e-08
1.03635e-05
7.07933e-08
1.03589e-05
1.11841e-07
1.03209e-05
1.16697e-07
1.02785e-05
8.40427e-08
1.02543e-05
4.8451e-08
1.02558e-05
3.48611e-08
1.02784e-05
4.42049e-08
1.03135e-05
6.60328e-08
1.03535e-05
8.84762e-08
1.03924e-05
1.04909e-07
1.04237e-05
1.13813e-07
1.0444e-05
1.15382e-07
1.04508e-05
1.12421e-07
1.04609e-07
1.04477e-05
1.24149e-05
5.27878e-09
1.25347e-05
6.64697e-08
1.25517e-05
7.92723e-08
1.25517e-05
3.61939e-08
1.25889e-05
3.35727e-08
1.26248e-05
7.59504e-08
1.26318e-05
1.09709e-07
1.26091e-05
1.06737e-07
1.25755e-05
8.20676e-08
1.25522e-05
5.80915e-08
1.25545e-05
4.19371e-08
1.25886e-05
3.1934e-08
1.26504e-05
2.67131e-08
1.2728e-05
2.73171e-08
1.28061e-05
3.5685e-08
1.28716e-05
4.99054e-08
1.29159e-05
6.80614e-08
8.34468e-08
1.29371e-05
1.53309e-05
-1.16953e-07
1.54558e-05
-5.83855e-08
1.54262e-05
1.08825e-07
1.53777e-05
8.46928e-08
1.53758e-05
3.55166e-08
1.53872e-05
6.45476e-08
1.5362e-05
1.34901e-07
1.52869e-05
1.81788e-07
1.51896e-05
1.79446e-07
1.5111e-05
1.36615e-07
1.50741e-05
7.88617e-08
1.50766e-05
2.94023e-08
1.51029e-05
3.98847e-10
1.51367e-05
-6.40659e-09
1.51692e-05
3.20155e-09
1.51998e-05
1.92812e-08
1.52314e-05
3.64172e-08
4.92617e-08
1.52656e-05
1.82487e-05
-1.11025e-08
1.818e-05
1.03125e-08
1.82107e-05
7.82111e-08
1.8268e-05
2.73641e-08
1.83291e-05
-2.55997e-08
1.84124e-05
-1.87156e-08
1.85274e-05
1.98835e-08
1.86568e-05
5.2326e-08
1.87734e-05
6.28746e-08
1.88546e-05
5.54777e-08
1.88889e-05
4.45241e-08
1.8879e-05
3.92504e-08
1.88397e-05
3.97666e-08
1.87911e-05
4.21285e-08
1.87525e-05
4.18435e-08
1.87343e-05
3.74658e-08
1.87424e-05
2.8306e-08
1.69763e-08
1.87747e-05
2.29576e-05
-1.32874e-07
2.29717e-05
-3.81647e-09
2.29405e-05
1.09375e-07
2.28302e-05
1.37649e-07
2.27245e-05
8.01017e-08
2.26875e-05
1.83354e-08
2.27159e-05
-8.49396e-09
2.27701e-05
-1.91708e-09
2.28128e-05
2.0184e-08
2.28278e-05
4.04735e-08
2.28199e-05
5.24422e-08
2.28084e-05
5.07206e-08
2.28152e-05
3.29824e-08
2.28558e-05
1.51133e-09
2.29319e-05
-3.42602e-08
2.30347e-05
-6.52863e-08
2.31499e-05
-8.69116e-08
-9.55999e-08
2.32625e-05
1.62226e-05
-1.16197e-07
1.64357e-05
-2.17005e-07
1.66217e-05
-7.65596e-08
1.66943e-05
6.50288e-08
1.66938e-05
8.06012e-08
1.66667e-05
4.54133e-08
1.66471e-05
1.11685e-08
1.66509e-05
-5.7515e-09
1.66823e-05
-1.11873e-08
1.67342e-05
-1.15046e-08
1.67978e-05
-1.11042e-08
1.686e-05
-1.14961e-08
1.69085e-05
-1.54746e-08
1.69341e-05
-2.41108e-08
1.69356e-05
-3.57531e-08
1.69177e-05
-4.73583e-08
1.68874e-05
-5.66598e-08
-6.07496e-08
1.68526e-05
1.43001e-05
-1.68069e-07
1.4383e-05
-2.99916e-07
1.44445e-05
-1.38068e-07
1.45019e-05
7.59135e-09
1.45111e-05
7.14371e-08
1.44989e-05
5.76063e-08
1.45028e-05
7.29648e-09
1.45309e-05
-3.38438e-08
1.45792e-05
-5.95083e-08
1.46369e-05
-6.92522e-08
1.46953e-05
-6.94198e-08
1.47482e-05
-6.4432e-08
1.479e-05
-5.72611e-08
1.48164e-05
-5.05053e-08
1.48267e-05
-4.60632e-08
1.48236e-05
-4.43134e-08
1.4812e-05
-4.49931e-08
-4.59819e-08
1.47972e-05
1.28846e-05
-1.09191e-07
1.27218e-05
-1.37115e-07
1.26515e-05
-6.77471e-08
1.26611e-05
-2.03542e-09
1.27113e-05
2.12847e-08
1.27546e-05
1.42927e-08
1.27599e-05
1.9722e-09
1.27264e-05
-3.02639e-10
1.26645e-05
2.36734e-09
1.2597e-05
-1.74951e-09
1.25497e-05
-2.21646e-08
1.25389e-05
-5.36322e-08
1.25656e-05
-8.39262e-08
1.26177e-05
-1.02563e-07
1.26768e-05
-1.05211e-07
1.27269e-05
-9.44525e-08
1.27571e-05
-7.51464e-08
-5.45811e-08
1.27657e-05
1.10638e-05
-6.73168e-08
1.11058e-05
-1.79145e-07
1.11541e-05
-1.16027e-07
1.11843e-05
-3.22306e-08
1.12003e-05
5.26373e-09
1.12033e-05
1.12449e-08
1.12064e-05
-1.06374e-09
1.12181e-05
-1.20614e-08
1.12372e-05
-1.6688e-08
1.12533e-05
-1.78692e-08
1.12568e-05
-2.56981e-08
1.12449e-05
-4.16829e-08
1.12211e-05
-6.00847e-08
1.11923e-05
-7.3765e-08
1.11649e-05
-7.78086e-08
1.11423e-05
-7.19364e-08
1.11252e-05
-5.80451e-08
-4.12951e-08
1.1112e-05
9.71106e-06
-1.52248e-07
9.62838e-06
-9.64649e-08
9.56986e-06
-5.75077e-08
9.54408e-06
-6.44506e-09
9.53713e-06
1.22172e-08
9.54159e-06
6.78379e-09
9.54305e-06
-2.52881e-09
9.54191e-06
-1.09169e-08
9.54642e-06
-2.12016e-08
9.56526e-06
-3.67111e-08
9.59419e-06
-5.46282e-08
9.62064e-06
-6.81312e-08
9.63327e-06
-7.2715e-08
9.62852e-06
-6.90096e-08
9.61171e-06
-6.10015e-08
9.59224e-06
-5.24649e-08
9.57928e-06
-4.50867e-08
-3.97761e-08
9.57776e-06
8.24778e-06
2.12985e-08
8.23937e-06
-8.80599e-08
8.29702e-06
-1.1516e-07
8.37399e-06
-8.34065e-08
8.43442e-06
-4.8217e-08
8.46246e-06
-2.12588e-08
8.46445e-06
-4.5198e-09
8.45501e-06
-1.47165e-09
8.44855e-06
-1.47468e-08
8.45203e-06
-4.0187e-08
8.46524e-06
-6.78358e-08
8.48314e-06
-8.60294e-08
8.49884e-06
-8.84216e-08
8.50522e-06
-7.5388e-08
8.49754e-06
-5.33201e-08
8.47563e-06
-3.05566e-08
8.44336e-06
-1.2817e-08
-4.88638e-09
8.40847e-06
7.24754e-06
2.9385e-08
7.26736e-06
-1.07878e-07
7.27752e-06
-1.25322e-07
7.26396e-06
-6.98485e-08
7.24982e-06
-3.4073e-08
7.25152e-06
-2.29588e-08
7.27162e-06
-2.4617e-08
7.30273e-06
-3.2588e-08
7.33271e-06
-4.47219e-08
7.35022e-06
-5.77013e-08
7.35024e-06
-6.78493e-08
7.33596e-06
-7.17577e-08
7.31526e-06
-6.77223e-08
7.2957e-06
-5.58209e-08
7.28164e-06
-3.92596e-08
7.27431e-06
-2.32328e-08
7.27335e-06
-1.18553e-08
-8.82535e-09
7.27729e-06
6.33761e-06
-6.83151e-08
6.35113e-06
-1.21395e-07
6.35978e-06
-1.33969e-07
6.35721e-06
-6.72835e-08
6.35661e-06
-3.34738e-08
6.37112e-06
-3.74705e-08
6.39593e-06
-4.94281e-08
6.41838e-06
-5.50322e-08
6.42874e-06
-5.50856e-08
6.42448e-06
-5.34352e-08
6.40738e-06
-5.07533e-08
6.38178e-06
-4.61555e-08
6.35381e-06
-3.97522e-08
6.33084e-06
-3.28577e-08
6.3193e-06
-2.77191e-08
6.32211e-06
-2.60434e-08
6.33904e-06
-2.87794e-08
-3.55762e-08
6.36579e-06
5.52595e-06
-1.70916e-07
5.52937e-06
-1.2482e-07
5.51087e-06
-1.15468e-07
5.54227e-06
-9.86814e-08
5.57831e-06
-6.95145e-08
5.5797e-06
-3.88603e-08
5.55309e-06
-2.28218e-08
5.52399e-06
-2.59257e-08
5.50934e-06
-4.04376e-08
5.51176e-06
-5.58575e-08
5.52567e-06
-6.46611e-08
5.54437e-06
-6.48602e-08
5.56292e-06
-5.83032e-08
5.57831e-06
-4.82469e-08
5.58914e-06
-3.85451e-08
5.59518e-06
-3.20884e-08
5.59666e-06
-3.02536e-08
-3.36164e-08
5.5947e-06
4.8158e-06
-3.36051e-08
4.80793e-06
-1.16953e-07
4.79373e-06
-1.01272e-07
4.77821e-06
-8.31577e-08
4.76927e-06
-6.05786e-08
4.77587e-06
-4.54512e-08
4.79724e-06
-4.41927e-08
4.82229e-06
-5.09781e-08
4.83872e-06
-5.68681e-08
4.84036e-06
-5.74965e-08
4.82915e-06
-5.34475e-08
4.81176e-06
-4.74703e-08
4.79506e-06
-4.16051e-08
4.78363e-06
-3.68159e-08
4.77891e-06
-3.38307e-08
4.78003e-06
-3.32062e-08
4.78464e-06
-3.48677e-08
-3.85334e-08
4.78956e-06
4.1511e-06
4.03415e-06
3.93288e-06
3.84972e-06
3.78914e-06
3.74369e-06
3.6995e-06
3.64852e-06
3.59165e-06
3.53416e-06
3.48071e-06
3.43324e-06
3.39163e-06
3.35482e-06
3.32099e-06
3.28778e-06
3.25291e-06
3.21438e-06
3.35668e-08
-3.35668e-08
5.98435e-08
-2.62767e-08
7.75464e-08
-1.7703e-08
8.23395e-08
-4.79306e-09
7.29484e-08
9.39112e-09
4.80538e-08
2.48946e-08
6.52824e-09
4.15256e-08
-5.24754e-08
5.90036e-08
-1.29563e-07
7.70873e-08
-2.25334e-07
9.57708e-08
-3.40458e-07
1.15125e-07
-4.75667e-07
1.35209e-07
-6.31652e-07
1.55986e-07
-8.08916e-07
1.77264e-07
-1.00762e-06
1.98707e-07
-1.22755e-06
2.19923e-07
-1.46809e-06
2.40544e-07
-1.72841e-06
2.60315e-07
-2.00757e-06
2.79169e-07
-2.30458e-06
2.97005e-07
-2.61779e-06
3.13209e-07
-2.94542e-06
3.27634e-07
-3.28562e-06
3.40198e-07
-3.63626e-06
3.50641e-07
-3.99487e-06
3.58604e-07
-4.35855e-06
3.63684e-07
-4.72401e-06
3.65464e-07
-5.08757e-06
3.63552e-07
-5.44514e-06
3.5757e-07
-5.7923e-06
3.47169e-07
-6.12436e-06
3.32056e-07
-6.4364e-06
3.12038e-07
-6.72345e-06
2.87053e-07
-6.98065e-06
2.57195e-07
-7.20332e-06
2.22676e-07
-7.38718e-06
1.83862e-07
-7.52869e-06
1.41504e-07
-7.62534e-06
9.66531e-08
-7.67548e-06
5.01379e-08
-7.67797e-06
2.48999e-09
-7.63375e-06
-4.42162e-08
-7.54424e-06
-8.95099e-08
-7.41102e-06
-1.33225e-07
-7.23611e-06
-1.74911e-07
-7.02175e-06
-2.1436e-07
-6.77035e-06
-2.51397e-07
-6.4846e-06
-2.85744e-07
-6.16742e-06
-3.17182e-07
-5.82201e-06
-3.45416e-07
-5.45192e-06
-3.70087e-07
-5.06115e-06
-3.9077e-07
-4.6541e-06
-4.07052e-07
-4.23546e-06
-4.18642e-07
-3.81002e-06
-4.25434e-07
-3.38248e-06
-4.27542e-07
-2.95718e-06
-4.25301e-07
-2.53795e-06
-4.19229e-07
-2.12797e-06
-4.09975e-07
-1.72983e-06
-3.98143e-07
-1.34554e-06
-3.84288e-07
-9.76307e-07
-3.69237e-07
-6.23223e-07
-3.53084e-07
-2.86666e-07
-3.36558e-07
3.3069e-08
-3.19735e-07
3.36543e-07
-3.03474e-07
6.2377e-07
-2.87227e-07
8.95091e-07
-2.71321e-07
1.15095e-06
-2.55863e-07
1.39187e-06
-2.40913e-07
1.61837e-06
-2.26505e-07
1.83103e-06
-2.12654e-07
2.0304e-06
-1.99369e-07
2.21704e-06
-1.86649e-07
2.39154e-06
-1.74491e-07
2.55443e-06
-1.6289e-07
2.70626e-06
-1.51836e-07
2.84758e-06
-1.41319e-07
2.97891e-06
-1.31327e-07
3.10075e-06
-1.21846e-07
3.21362e-06
-1.12862e-07
3.31798e-06
-1.04362e-07
3.41431e-06
-9.63308e-08
3.50306e-06
-8.87527e-08
3.58467e-06
-8.16126e-08
3.65957e-06
-7.48956e-08
3.72816e-06
-6.85861e-08
3.79083e-06
-6.26691e-08
3.84795e-06
-5.71291e-08
3.89991e-06
-5.19509e-08
3.94702e-06
-4.71192e-08
3.98964e-06
-4.26187e-08
4.02808e-06
-3.84341e-08
4.06263e-06
-3.45503e-08
4.09358e-06
-3.09522e-08
4.1212e-06
-2.76246e-08
4.14576e-06
-2.45528e-08
4.16748e-06
-2.17225e-08
4.1866e-06
-1.91189e-08
4.20333e-06
-1.67278e-08
4.21786e-06
-1.45356e-08
4.23039e-06
-1.25285e-08
4.24108e-06
-1.06934e-08
4.2501e-06
-9.01764e-09
4.25759e-06
-7.49002e-09
4.26369e-06
-6.09808e-09
4.26852e-06
-4.83121e-09
4.2722e-06
-3.67829e-09
4.27483e-06
-2.63079e-09
4.27651e-06
-1.67632e-09
4.27731e-06
-8.07334e-10
4.27734e-06
-2.4047e-11
4.27658e-06
7.55365e-10
4.27512e-06
1.45958e-09
4.27301e-06
2.1093e-09
4.27031e-06
2.70338e-09
4.26707e-06
3.23995e-09
4.26335e-06
3.72286e-09
4.25918e-06
4.16941e-09
4.25459e-06
4.59137e-09
4.2496e-06
4.9834e-09
4.24426e-06
5.34156e-09
4.23859e-06
5.67508e-09
4.23259e-06
5.99657e-09
4.22627e-06
6.31664e-09
4.21964e-06
6.63546e-09
4.2127e-06
6.9386e-09
4.20549e-06
7.20411e-09
4.19808e-06
7.41421e-09
4.19052e-06
7.56392e-09
4.18286e-06
7.66129e-09
4.17513e-06
7.72211e-09
4.16737e-06
7.76357e-09
4.15957e-06
7.79859e-09
4.15174e-06
7.83488e-09
4.14386e-06
7.87529e-09
4.13594e-06
7.91996e-09
4.12797e-06
7.96773e-09
4.11996e-06
8.01775e-09
4.11189e-06
8.06912e-09
4.10376e-06
8.12159e-09
4.09559e-06
8.17511e-09
4.08736e-06
8.22973e-09
4.07907e-06
8.28563e-09
4.07073e-06
8.34285e-09
4.06233e-06
8.40157e-09
4.05387e-06
8.46194e-09
4.04534e-06
8.52415e-09
4.03676e-06
8.58845e-09
4.0281e-06
8.65514e-09
4.01938e-06
8.72454e-09
4.01058e-06
8.79699e-09
4.00171e-06
8.87323e-09
3.99275e-06
8.95377e-09
3.98371e-06
9.03968e-09
3.97458e-06
9.13161e-09
3.96535e-06
9.23177e-09
3.95601e-06
9.34065e-09
3.94655e-06
9.46239e-09
3.93695e-06
9.5973e-09
3.9272e-06
9.75223e-09
3.91727e-06
9.92892e-09
3.90713e-06
1.01356e-08
3.89675e-06
1.03819e-08
3.88608e-06
1.06692e-08
3.87504e-06
1.10372e-08
3.8636e-06
1.14472e-08
3.85155e-06
1.20425e-08
3.83893e-06
1.26273e-08
3.82524e-06
1.36843e-08
3.81077e-06
1.44753e-08
3.7942e-06
1.65669e-08
3.77676e-06
1.74447e-08
3.75466e-06
2.2097e-08
3.73227e-06
2.23846e-08
3.69833e-06
3.39451e-08
3.66696e-06
3.13646e-08
3.60307e-06
6.38934e-08
3.54893e-06
5.41362e-08
3.37914e-06
1.69792e-07
1.77111e-07
3.20203e-06
-9.34885e-08
5.99217e-08
-2.03958e-07
8.41928e-08
-3.19024e-07
9.7363e-08
-4.41178e-07
1.17361e-07
-5.71137e-07
1.3935e-07
-7.09357e-07
1.63115e-07
-8.5599e-07
1.88158e-07
-1.01136e-06
2.14374e-07
-1.17604e-06
2.41771e-07
-1.35069e-06
2.70415e-07
-1.53571e-06
3.0014e-07
-1.73116e-06
3.30665e-07
-1.93691e-06
3.61732e-07
-2.15269e-06
3.93045e-07
-2.37819e-06
4.24213e-07
-2.61307e-06
4.54803e-07
-2.85695e-06
4.84418e-07
-3.10936e-06
5.12726e-07
-3.36964e-06
5.39452e-07
-3.63697e-06
5.64335e-07
-3.91082e-06
5.87059e-07
-4.19048e-06
6.07291e-07
-4.47496e-06
6.24681e-07
-4.76311e-06
6.38788e-07
-5.05357e-06
6.49061e-07
-5.34474e-06
6.54857e-07
-5.63479e-06
6.55518e-07
-5.92165e-06
6.50405e-07
-6.20277e-06
6.38695e-07
-6.47518e-06
6.19578e-07
-6.73545e-06
5.92327e-07
-6.97979e-06
5.56379e-07
-7.20416e-06
5.11419e-07
-7.40441e-06
4.57446e-07
-7.5765e-06
3.94769e-07
-7.71672e-06
3.24075e-07
-7.82174e-06
2.4653e-07
-7.88877e-06
1.63677e-07
-7.91592e-06
7.72929e-08
-7.90188e-06
-1.15563e-08
-7.84265e-06
-1.03443e-07
-7.739e-06
-1.93162e-07
-7.59193e-06
-2.80297e-07
-7.40297e-06
-3.63864e-07
-7.17431e-06
-4.43021e-07
-6.9085e-06
-5.17208e-07
-6.60822e-06
-5.86027e-07
-6.27633e-06
-6.49069e-07
-5.91594e-06
-7.05812e-07
-5.53051e-06
-7.55515e-07
-5.12406e-06
-7.97218e-07
-4.70113e-06
-8.29981e-07
-4.26667e-06
-8.53107e-07
-3.82574e-06
-8.66356e-07
-3.38336e-06
-8.69928e-07
-2.94412e-06
-8.64539e-07
-2.51195e-06
-8.51394e-07
-2.09e-06
-8.31924e-07
-1.68087e-06
-8.07276e-07
-1.28633e-06
-7.78826e-07
-9.07572e-07
-7.47998e-07
-5.45142e-07
-7.15514e-07
-1.99444e-07
-6.82255e-07
1.30222e-07
-6.49401e-07
4.43222e-07
-6.16474e-07
7.40209e-07
-5.84214e-07
1.02164e-06
-5.5275e-07
1.28801e-06
-5.22237e-07
1.53987e-06
-4.92774e-07
1.77778e-06
-4.64412e-07
2.0023e-06
-4.37176e-07
2.214e-06
-4.11072e-07
2.41345e-06
-3.86098e-07
2.60121e-06
-3.62243e-07
2.7778e-06
-3.39488e-07
2.94378e-06
-3.17813e-07
3.09965e-06
-2.97194e-07
3.24593e-06
-2.77601e-07
3.38309e-06
-2.59005e-07
3.5116e-06
-2.41375e-07
3.63192e-06
-2.24679e-07
3.74447e-06
-2.08884e-07
3.84967e-06
-1.93957e-07
3.94793e-06
-1.79864e-07
4.03961e-06
-1.66575e-07
4.12507e-06
-1.54055e-07
4.20468e-06
-1.42274e-07
4.27875e-06
-1.312e-07
4.3476e-06
-1.20803e-07
4.41153e-06
-1.11051e-07
4.47083e-06
-1.01915e-07
4.52576e-06
-9.3367e-08
4.57659e-06
-8.53771e-08
4.62356e-06
-7.79176e-08
4.66689e-06
-7.09612e-08
4.70682e-06
-6.44809e-08
4.74355e-06
-5.84509e-08
4.77728e-06
-5.28456e-08
4.80819e-06
-4.76402e-08
4.83646e-06
-4.28112e-08
4.86227e-06
-3.8335e-08
4.88577e-06
-3.41895e-08
4.9071e-06
-3.03533e-08
4.92642e-06
-2.68059e-08
4.94385e-06
-2.35278e-08
4.95952e-06
-2.04996e-08
4.97354e-06
-1.77037e-08
4.98603e-06
-1.51231e-08
4.9971e-06
-1.27419e-08
5.00684e-06
-1.05439e-08
5.01534e-06
-8.52534e-09
5.02275e-06
-6.65713e-09
5.02914e-06
-4.92892e-09
5.03458e-06
-3.32877e-09
5.03912e-06
-1.84523e-09
5.04283e-06
-4.68214e-10
5.04578e-06
7.79997e-10
5.04799e-06
1.95351e-09
5.04953e-06
3.04812e-09
5.05046e-06
4.06202e-09
5.0508e-06
4.9993e-09
5.0506e-06
5.87111e-09
5.04991e-06
6.68484e-09
5.04878e-06
7.44965e-09
5.04725e-06
8.17002e-09
5.04535e-06
8.83911e-09
5.04311e-06
9.44281e-09
5.04055e-06
9.96924e-09
5.0377e-06
1.04161e-08
5.03457e-06
1.07934e-08
5.03117e-06
1.11201e-08
5.02752e-06
1.14177e-08
5.02361e-06
1.17038e-08
5.01946e-06
1.19893e-08
5.01505e-06
1.2278e-08
5.0104e-06
1.25689e-08
5.00551e-06
1.2859e-08
5.00039e-06
1.31446e-08
4.99503e-06
1.34232e-08
4.98946e-06
1.36932e-08
4.98368e-06
1.3954e-08
4.97771e-06
1.42056e-08
4.97154e-06
1.44485e-08
4.9652e-06
1.46835e-08
4.95869e-06
1.49114e-08
4.95202e-06
1.5133e-08
4.9452e-06
1.53493e-08
4.93822e-06
1.55613e-08
4.93111e-06
1.577e-08
4.92386e-06
1.59767e-08
4.91647e-06
1.61825e-08
4.90896e-06
1.63889e-08
4.90131e-06
1.65974e-08
4.89354e-06
1.68101e-08
4.88564e-06
1.70292e-08
4.87762e-06
1.72572e-08
4.86946e-06
1.74981e-08
4.86117e-06
1.77547e-08
4.85273e-06
1.8035e-08
4.84414e-06
1.83406e-08
4.83538e-06
1.86897e-08
4.82644e-06
1.90753e-08
4.81728e-06
1.95433e-08
4.80789e-06
2.0057e-08
4.7982e-06
2.07353e-08
4.78819e-06
2.14489e-08
4.77772e-06
2.25143e-08
4.76682e-06
2.35274e-08
4.75516e-06
2.53502e-08
4.74286e-06
2.67716e-08
4.72923e-06
3.01934e-08
4.71462e-06
3.20603e-08
4.69758e-06
3.91382e-08
4.67875e-06
4.1212e-08
4.6553e-06
5.73903e-08
4.62742e-06
5.92448e-08
4.58988e-06
1.01438e-07
4.53697e-06
1.07046e-07
4.47088e-06
2.35881e-07
2.74321e-07
4.37367e-06
-1.50819e-07
2.10741e-07
-3.1909e-07
2.52464e-07
-4.85919e-07
2.64192e-07
-6.53075e-07
2.84517e-07
-8.2035e-07
3.06625e-07
-9.88458e-07
3.31223e-07
-1.15798e-06
3.57678e-07
-1.32953e-06
3.85927e-07
-1.50357e-06
4.15813e-07
-1.68036e-06
4.47208e-07
-1.86012e-06
4.79897e-07
-2.04321e-06
5.1375e-07
-2.23009e-06
5.4861e-07
-2.42125e-06
5.84211e-07
-2.61723e-06
6.20195e-07
-2.8186e-06
6.56172e-07
-3.02596e-06
6.91774e-07
-3.23993e-06
7.26698e-07
-3.46118e-06
7.60703e-07
-3.69042e-06
7.93575e-07
-3.92846e-06
8.25095e-07
-4.17604e-06
8.54879e-07
-4.43366e-06
8.82293e-07
-4.70135e-06
9.06477e-07
-4.97868e-06
9.26398e-07
-5.26471e-06
9.40882e-07
-5.55781e-06
9.4862e-07
-5.85556e-06
9.48153e-07
-6.15477e-06
9.37905e-07
-6.4515e-06
9.16309e-07
-6.74109e-06
8.81916e-07
-7.01819e-06
8.33478e-07
-7.27686e-06
7.70089e-07
-7.51084e-06
6.91428e-07
-7.71397e-06
5.97904e-07
-7.88059e-06
4.9069e-07
-8.00583e-06
3.71772e-07
-8.08602e-06
2.43867e-07
-8.11895e-06
1.10224e-07
-8.10319e-06
-2.73166e-08
-8.03791e-06
-1.68725e-07
-7.92436e-06
-3.06709e-07
-7.76482e-06
-4.39834e-07
-7.56204e-06
-5.6665e-07
-7.31887e-06
-6.86186e-07
-7.0382e-06
-7.97876e-07
-6.72284e-06
-9.01388e-07
-6.37556e-06
-9.9635e-07
-5.99924e-06
-1.08213e-06
-5.59717e-06
-1.15759e-06
-5.17336e-06
-1.22103e-06
-4.73275e-06
-1.27058e-06
-4.281e-06
-1.30486e-06
-3.82408e-06
-1.32328e-06
-3.3678e-06
-1.32621e-06
-2.91722e-06
-1.31512e-06
-2.47645e-06
-1.29216e-06
-2.04881e-06
-1.25956e-06
-1.63646e-06
-1.21963e-06
-1.2406e-06
-1.17468e-06
-8.62099e-07
-1.1265e-06
-5.01264e-07
-1.07635e-06
-1.57909e-07
-1.02561e-06
1.67808e-07
-9.75117e-07
4.76998e-07
-9.25664e-07
7.69957e-07
-8.77174e-07
1.04724e-06
-8.30034e-07
1.30945e-06
-7.84446e-07
1.55719e-06
-7.40517e-07
1.79108e-06
-6.98297e-07
2.01171e-06
-6.57806e-07
2.21968e-06
-6.19044e-07
2.41558e-06
-5.81998e-07
2.59998e-06
-5.46643e-07
2.77344e-06
-5.12951e-07
2.93652e-06
-4.80885e-07
3.08972e-06
-4.50403e-07
3.23358e-06
-4.2146e-07
3.36859e-06
-3.94009e-07
3.49521e-06
-3.67998e-07
3.61391e-06
-3.43376e-07
3.72512e-06
-3.20091e-07
3.82925e-06
-2.98089e-07
3.9267e-06
-2.77319e-07
4.01786e-06
-2.57728e-07
4.10307e-06
-2.39266e-07
4.18267e-06
-2.21882e-07
4.257e-06
-2.05527e-07
4.32635e-06
-1.90152e-07
4.39101e-06
-1.75712e-07
4.45126e-06
-1.6216e-07
4.50734e-06
-1.49452e-07
4.55951e-06
-1.37545e-07
4.60799e-06
-1.26396e-07
4.65299e-06
-1.15965e-07
4.69472e-06
-1.06212e-07
4.73337e-06
-9.71016e-08
4.76912e-06
-8.85954e-08
4.80214e-06
-8.0659e-08
4.83259e-06
-7.3259e-08
4.86062e-06
-6.63631e-08
4.88637e-06
-5.99405e-08
4.90998e-06
-5.39619e-08
4.93157e-06
-4.83996e-08
4.95127e-06
-4.32268e-08
4.96919e-06
-3.84176e-08
4.98543e-06
-3.39483e-08
5.00011e-06
-2.97966e-08
5.0133e-06
-2.5941e-08
5.02512e-06
-2.23604e-08
5.03563e-06
-1.90377e-08
5.04493e-06
-1.59512e-08
5.05308e-06
-1.30804e-08
5.06016e-06
-1.04095e-08
5.06624e-06
-7.92875e-09
5.07141e-06
-5.63034e-09
5.07569e-06
-3.50522e-09
5.07917e-06
-1.52931e-09
5.0819e-06
3.1621e-10
5.08393e-06
2.03855e-09
5.08529e-06
3.63498e-09
5.08604e-06
5.12312e-09
5.08622e-06
6.50848e-09
5.08586e-06
7.80259e-09
5.08502e-06
9.01274e-09
5.08372e-06
1.0138e-08
5.08199e-06
1.1171e-08
5.07986e-06
1.21053e-08
5.07733e-06
1.29411e-08
5.07444e-06
1.36883e-08
5.07119e-06
1.43643e-08
5.06762e-06
1.49897e-08
5.06374e-06
1.55818e-08
5.05958e-06
1.61526e-08
5.05515e-06
1.67077e-08
5.05047e-06
1.72483e-08
5.04556e-06
1.77731e-08
5.04042e-06
1.82802e-08
5.03508e-06
1.87681e-08
5.02953e-06
1.92363e-08
5.0238e-06
1.96849e-08
5.01789e-06
2.01149e-08
5.01181e-06
2.05273e-08
5.00557e-06
2.09236e-08
4.99918e-06
2.13053e-08
4.99264e-06
2.16738e-08
4.98596e-06
2.20309e-08
4.97914e-06
2.23782e-08
4.97219e-06
2.27174e-08
4.96512e-06
2.30504e-08
4.95792e-06
2.33792e-08
4.95061e-06
2.37057e-08
4.94317e-06
2.40329e-08
4.93562e-06
2.4363e-08
4.92795e-06
2.47e-08
4.92016e-06
2.50468e-08
4.91225e-06
2.54103e-08
4.90421e-06
2.57926e-08
4.89604e-06
2.62078e-08
4.88772e-06
2.66541e-08
4.87925e-06
2.71615e-08
4.87061e-06
2.77156e-08
4.86177e-06
2.83843e-08
4.85271e-06
2.91139e-08
4.84338e-06
3.0066e-08
4.83375e-06
3.10773e-08
4.82373e-06
3.25403e-08
4.81326e-06
3.39971e-08
4.80219e-06
3.6422e-08
4.79039e-06
3.85681e-08
4.77767e-06
4.29112e-08
4.76361e-06
4.61179e-08
4.74821e-06
5.45389e-08
4.7299e-06
5.95225e-08
4.70989e-06
7.73987e-08
4.68256e-06
8.65792e-08
4.65501e-06
1.28986e-07
4.60895e-06
1.53104e-07
4.57989e-06
2.64941e-07
3.44014e-07
4.5102e-06
-1.53457e-07
3.64198e-07
-3.24335e-07
4.23342e-07
-4.92046e-07
4.31903e-07
-6.57854e-07
4.50325e-07
-8.21582e-07
4.70354e-07
-9.83729e-07
4.9337e-07
-1.1447e-06
5.18645e-07
-1.30521e-06
5.46445e-07
-1.466e-06
5.76598e-07
-1.62764e-06
6.08845e-07
-1.79094e-06
6.43206e-07
-1.957e-06
6.79802e-07
-2.12686e-06
7.18474e-07
-2.30149e-06
7.58838e-07
-2.48179e-06
8.00502e-07
-2.66883e-06
8.43204e-07
-2.86387e-06
8.86813e-07
-3.06843e-06
9.31265e-07
-3.28421e-06
9.7648e-07
-3.51282e-06
1.02219e-06
-3.75553e-06
1.0678e-06
-4.01305e-06
1.1124e-06
-4.28564e-06
1.15488e-06
-4.57307e-06
1.19391e-06
-4.87466e-06
1.22799e-06
-5.18911e-06
1.25533e-06
-5.51444e-06
1.27394e-06
-5.84791e-06
1.28163e-06
-6.186e-06
1.27599e-06
-6.5241e-06
1.25441e-06
-6.85634e-06
1.21416e-06
-7.17562e-06
1.15275e-06
-7.47397e-06
1.06845e-06
-7.74333e-06
9.6078e-07
-7.97614e-06
8.30719e-07
-8.16583e-06
6.80379e-07
-8.30698e-06
5.12921e-07
-8.39577e-06
3.32656e-07
-8.43027e-06
1.44725e-07
-8.4091e-06
-4.84839e-08
-8.33283e-06
-2.45002e-07
-8.20431e-06
-4.35228e-07
-8.02675e-06
-6.1739e-07
-7.80371e-06
-7.89689e-07
-7.53868e-06
-9.51219e-07
-7.23497e-06
-1.10158e-06
-6.89556e-06
-1.24081e-06
-6.52299e-06
-1.36891e-06
-6.11972e-06
-1.48541e-06
-5.68863e-06
-1.58868e-06
-5.23383e-06
-1.67583e-06
-4.76109e-06
-1.74332e-06
-4.27765e-06
-1.78831e-06
-3.79144e-06
-1.80948e-06
-3.31017e-06
-1.80749e-06
-2.83994e-06
-1.78535e-06
-2.38512e-06
-1.74697e-06
-1.94845e-06
-1.69624e-06
-1.53113e-06
-1.63695e-06
-1.13372e-06
-1.57209e-06
-7.56266e-07
-1.50395e-06
-3.9809e-07
-1.43452e-06
-5.86362e-08
-1.36506e-06
2.64534e-07
-1.29829e-06
5.70128e-07
-1.23126e-06
8.59184e-07
-1.16623e-06
1.13248e-06
-1.10333e-06
1.39071e-06
-1.04268e-06
1.63454e-06
-9.84345e-07
1.8646e-06
-9.28358e-07
2.08151e-06
-8.74718e-07
2.28588e-06
-8.23409e-07
2.47828e-06
-7.74404e-07
2.6593e-06
-7.27665e-07
2.8295e-06
-6.83149e-07
2.98942e-06
-6.40804e-07
3.13959e-06
-6.00572e-07
3.28052e-06
-5.6239e-07
3.4127e-06
-5.26191e-07
3.53661e-06
-4.91905e-07
3.65269e-06
-4.59461e-07
3.76139e-06
-4.28786e-07
3.86311e-06
-3.99808e-07
3.95825e-06
-3.72457e-07
4.04718e-06
-3.46661e-07
4.13026e-06
-3.2235e-07
4.20784e-06
-2.99458e-07
4.28023e-06
-2.77916e-07
4.34774e-06
-2.5766e-07
4.41065e-06
-2.38626e-07
4.46924e-06
-2.20752e-07
4.52377e-06
-2.03979e-07
4.57447e-06
-1.88248e-07
4.62158e-06
-1.73503e-07
4.6653e-06
-1.59691e-07
4.70585e-06
-1.46759e-07
4.74341e-06
-1.34658e-07
4.77815e-06
-1.23339e-07
4.81025e-06
-1.12757e-07
4.83986e-06
-1.02868e-07
4.86713e-06
-9.36318e-08
4.89219e-06
-8.50076e-08
4.91519e-06
-7.69583e-08
4.93624e-06
-6.94483e-08
4.95546e-06
-6.24439e-08
4.97295e-06
-5.59128e-08
4.98883e-06
-4.9825e-08
5.00318e-06
-4.4152e-08
5.01611e-06
-3.88665e-08
5.02769e-06
-3.39429e-08
5.03801e-06
-2.93568e-08
5.04714e-06
-2.50848e-08
5.05517e-06
-2.11041e-08
5.06215e-06
-1.73952e-08
5.06817e-06
-1.39449e-08
5.07327e-06
-1.0734e-08
5.07751e-06
-7.74481e-09
5.08094e-06
-4.96081e-09
5.08362e-06
-2.3612e-09
5.0856e-06
5.84314e-11
5.08692e-06
2.31626e-09
5.08762e-06
4.41888e-09
5.08775e-06
6.37853e-09
5.08735e-06
8.20786e-09
5.08645e-06
9.91422e-09
5.08508e-06
1.15009e-08
5.08329e-06
1.29683e-08
5.08108e-06
1.43167e-08
5.07847e-06
1.55507e-08
5.07547e-06
1.668e-08