/*--------------------------------*- C++ -*----------------------------------*\
  =========                 |
  \\      /  F ield         | OpenFOAM: The Open Source CFD Toolbox
   \\    /   O peration     | Website:  https://openfoam.org
    \\  /    A nd           | Version:  9
     \\/     M anipulation  |
\*---------------------------------------------------------------------------*/
FoamFile
{
    format      ascii;
    class       volScalarField;
    location    "0.011";
    object      pMean;
}
// * * * * * * * * * * * * * * * * * * * * * * * * * * * * * * * * * * * * * //

dimensions      [0 2 -2 0 0 0 0];

internalField   nonuniform List<scalar> 
12225
(
-5.13688
-5.72218
-6.06793
-6.22821
-6.33114
-6.43721
-6.55728
-6.6869
-6.82149
-6.96006
-7.1042
-7.25615
-7.42115
-7.60001
-7.80463
-8.03438
-8.32984
-8.72407
-5.33101
-5.75541
-6.07299
-6.23836
-6.34147
-6.44457
-6.56258
-6.69081
-6.82471
-6.96195
-7.10571
-7.25586
-7.42132
-7.59702
-7.80343
-8.02348
-8.31667
-8.66327
-5.3669
-5.75194
-6.05741
-6.23573
-6.34432
-6.44588
-6.56167
-6.68885
-6.82169
-6.95849
-7.10075
-7.25093
-7.41311
-7.58974
-7.78706
-8.01019
-8.27332
-8.57964
-5.63669
-5.81006
-6.06467
-6.24855
-6.36022
-6.45729
-6.56839
-6.69231
-6.8232
-6.95772
-7.09824
-7.24603
-7.406
-7.57933
-7.77198
-7.98628
-8.22556
-8.48808
-5.70857
-5.8297
-6.05799
-6.24397
-6.36158
-6.4592
-6.56739
-6.68874
-6.81776
-6.95117
-7.0898
-7.23577
-7.39246
-7.5621
-7.74763
-7.95042
-8.16916
-8.39943
-5.73832
-5.88123
-6.08056
-6.25061
-6.36949
-6.46796
-6.57275
-6.68987
-6.81572
-6.94666
-7.08262
-7.22558
-7.37822
-7.54261
-7.71981
-7.91008
-8.11105
-8.31826
-5.7649
-5.92629
-6.10527
-6.25458
-6.37192
-6.47266
-6.57473
-6.68698
-6.80867
-6.93647
-7.06928
-7.20852
-7.35631
-7.51442
-7.68319
-7.86199
-8.04817
-8.23773
-5.7931
-5.96252
-6.12122
-6.25717
-6.37301
-6.47418
-6.57396
-6.68242
-6.80099
-6.92601
-7.05553
-7.19054
-7.33305
-7.48425
-7.64393
-7.81141
-7.98438
-8.16002
-5.9568
-6.03445
-6.15172
-6.27269
-6.38382
-6.48164
-6.57681
-6.67982
-6.79219
-6.91131
-7.03534
-7.16489
-7.30097
-7.44442
-7.59512
-7.75209
-7.91369
-8.07809
-5.99713
-6.05907
-6.15843
-6.27299
-6.37975
-6.47521
-6.56906
-6.66942
-6.77758
-6.89205
-7.01173
-7.13616
-7.26609
-7.40179
-7.54335
-7.68987
-7.84053
-7.99368
-6.12421
-6.12409
-6.1966
-6.2994
-6.39491
-6.48083
-6.5682
-6.6631
-6.76548
-6.87337
-6.98578
-7.1027
-7.22455
-7.35172
-7.48399
-7.6207
-7.76098
-7.90427
-6.13023
-6.14892
-6.2145
-6.29857
-6.38362
-6.46837
-6.55595
-6.6479
-6.74471
-6.84666
-6.95373
-7.06517
-7.18059
-7.30007
-7.4236
-7.55072
-7.68123
-7.81437
-6.09719
-6.18758
-6.2636
-6.32607
-6.39288
-6.46819
-6.55009
-6.63627
-6.72631
-6.8209
-6.92014
-7.02379
-7.13135
-7.24245
-7.35688
-7.47443
-7.59514
-7.71866
-6.18712
-6.2297
-6.27373
-6.32322
-6.38278
-6.45264
-6.52976
-6.61135
-6.69611
-6.78428
-6.87608
-6.97136
-7.06981
-7.1711
-7.27495
-7.38129
-7.48988
-7.60075
-6.39706
-6.30009
-6.28863
-6.33173
-6.39022
-6.45072
-6.51552
-6.58576
-6.66025
-6.73789
-6.81887
-6.90296
-6.9897
-7.07857
-7.16941
-7.26176
-7.35575
-7.45089
-6.36901
-6.31969
-6.31043
-6.33217
-6.37027
-6.42011
-6.47655
-6.53792
-6.60314
-6.6708
-6.7406
-6.81236
-6.88554
-6.95952
-7.03442
-7.11014
-7.18662
-7.26326
-6.24365
-6.27345
-6.29796
-6.31226
-6.3386
-6.38095
-6.42956
-6.47961
-6.53102
-6.58406
-6.63867
-6.69443
-6.75068
-6.80707
-6.86354
-6.91979
-6.97555
-7.03039
-6.44413
-6.37071
-6.31153
-6.29326
-6.30647
-6.33276
-6.36334
-6.39706
-6.43292
-6.46939
-6.50602
-6.543
-6.57994
-6.61614
-6.6511
-6.68471
-6.71667
-6.74663
-6.23881
-6.21156
-6.19359
-6.19107
-6.20566
-6.22856
-6.25215
-6.27594
-6.30024
-6.32322
-6.34389
-6.36224
-6.37817
-6.3915
-6.40232
-6.41057
-6.41614
-6.41863
-6.25889
-6.18499
-6.1469
-6.14058
-6.14648
-6.15791
-6.17091
-6.18112
-6.18833
-6.19412
-6.19857
-6.20061
-6.19952
-6.19511
-6.18733
-6.17599
-6.16106
-6.14244
-6.13737
-6.07431
-6.0475
-6.0486
-6.05807
-6.07027
-6.08239
-6.09083
-6.09438
-6.09452
-6.09094
-6.08277
-6.07001
-6.05318
-6.03245
-6.00779
-5.97909
-5.94652
-5.91994
-5.94032
-5.96073
-5.98536
-6.00618
-6.01776
-6.02349
-6.02506
-6.02324
-6.01767
-6.00724
-5.99118
-5.96972
-5.94366
-5.9133
-5.87862
-5.83947
-5.79617
-5.75635
-5.84691
-5.90883
-5.94081
-5.95354
-5.96105
-5.96786
-5.97102
-5.96778
-5.95809
-5.9422
-5.92019
-5.89242
-5.85955
-5.82192
-5.77954
-5.73241
-5.68068
-5.62926
-5.73662
-5.82386
-5.88093
-5.91167
-5.92293
-5.9263
-5.92636
-5.92157
-5.90971
-5.89062
-5.86462
-5.83225
-5.79422
-5.75098
-5.70276
-5.64964
-5.59193
-5.74304
-5.73957
-5.789
-5.85318
-5.89087
-5.90084
-5.90003
-5.89754
-5.89114
-5.87738
-5.85549
-5.82614
-5.79014
-5.74823
-5.70089
-5.64839
-5.59075
-5.52829
-5.56725
-5.63692
-5.73521
-5.81804
-5.86166
-5.87295
-5.87255
-5.87016
-5.86371
-5.8492
-5.82574
-5.7941
-5.75524
-5.71014
-5.65937
-5.6033
-5.54211
-5.4761
-5.4977
-5.61144
-5.73131
-5.81283
-5.85074
-5.86
-5.85928
-5.85632
-5.84858
-5.83241
-5.80702
-5.77341
-5.73267
-5.68559
-5.6327
-5.57431
-5.51059
-5.4419
-5.37468
-5.55578
-5.71353
-5.79762
-5.83117
-5.84085
-5.84257
-5.84106
-5.83353
-5.81683
-5.79057
-5.75577
-5.71355
-5.66473
-5.60985
-5.54932
-5.48352
-5.41302
-5.31283
-5.53749
-5.71116
-5.79414
-5.82404
-5.83369
-5.83649
-5.83494
-5.82649
-5.80873
-5.78136
-5.74538
-5.70196
-5.65186
-5.59569
-5.53364
-5.46619
-5.39355
-5.19659
-5.50798
-5.71015
-5.78997
-5.81554
-5.82473
-5.82816
-5.82683
-5.81829
-5.80036
-5.77274
-5.7363
-5.69219
-5.64118
-5.584
-5.52084
-5.45229
-5.37801
-8.80433
-8.81481
-8.83652
-8.86833
-8.91007
-8.96138
-9.02222
-9.09258
-9.17268
-9.26275
-9.36302
-9.4738
-9.59528
-9.72757
-9.87058
-10.0241
-10.1878
-10.3609
-10.542
-10.7293
-10.9203
-11.1115
-11.2986
-11.4764
-11.6384
-11.7773
-11.8846
-11.9509
-11.9657
-11.9181
-11.797
-11.5909
-11.2895
-10.8831
-10.3644
-9.728
-8.97167
-8.096
-7.10475
-6.00518
-4.80838
-3.52902
-2.18424
-0.792598
0.626848
2.05494
3.47344
4.86514
6.2148
7.50879
8.73597
9.88759
10.9571
11.9402
12.8352
13.642
14.3626
15.0002
15.559
16.0445
16.4622
16.8181
17.118
17.3674
17.5726
17.7384
17.8695
17.9701
18.0441
18.0952
18.1265
18.1409
18.1409
18.1288
18.1067
18.0763
18.0391
17.9964
17.9496
17.8996
17.8472
17.7933
17.7385
17.6834
17.6284
17.5739
17.5203
17.4678
17.4166
17.367
17.319
17.2727
17.2283
17.1858
17.1451
17.1064
17.0696
17.0348
17.0018
16.9706
16.9412
16.9137
16.8878
16.8635
16.8409
16.8198
16.8002
16.782
16.7652
16.7497
16.7354
16.7223
16.7103
16.6994
16.6894
16.6804
16.6724
16.6651
16.6587
16.6531
16.6482
16.644
16.6404
16.6374
16.635
16.6332
16.6319
16.6311
16.6307
16.6308
16.6312
16.6321
16.6333
16.6349
16.6367
16.6389
16.6413
16.644
16.647
16.6501
16.6535
16.6571
16.6609
16.6649
16.669
16.6734
16.6778
16.6825
16.6873
16.6922
16.6974
16.7026
16.708
16.7136
16.7194
16.7254
16.7316
16.7381
16.7449
16.752
16.7596
16.7676
16.7763
16.7858
16.7963
16.8081
16.8213
16.8368
16.8547
16.8763
16.9021
16.9346
16.9744
17.0274
17.0941
17.1893
17.314
17.5122
17.7865
18.2675
-8.78449
-8.79576
-8.81951
-8.85481
-8.90152
-8.95923
-9.02768
-9.10679
-9.19664
-9.2974
-9.40929
-9.53255
-9.66738
-9.81389
-9.97211
-10.1418
-10.3224
-10.513
-10.7122
-10.9183
-11.1287
-11.34
-11.5478
-11.7465
-11.9296
-12.0894
-12.217
-12.3025
-12.3352
-12.3034
-12.1953
-11.9991
-11.7037
-11.299
-10.7773
-10.133
-9.36389
-8.47114
-7.45965
-6.33806
-5.11866
-3.81654
-2.44867
-1.03381
0.408675
1.85911
3.29895
4.71082
6.07918
7.39034
8.63329
9.79879
10.8806
11.8742
12.7778
13.5918
14.3182
14.9602
15.5227
16.0111
16.4311
16.7889
17.0904
17.3413
17.5479
17.715
17.8473
17.949
18.0242
18.0763
18.1086
18.124
18.1249
18.1138
18.0925
18.0628
18.0264
17.9845
17.9383
17.8889
17.8372
17.7838
17.7296
17.675
17.6205
17.5664
17.5133
17.4612
17.4104
17.3611
17.3134
17.2675
17.2234
17.1812
17.1408
17.1024
17.0658
17.0312
16.9984
16.9674
16.9383
16.9108
16.8851
16.8611
16.8386
16.8176
16.7981
16.78
16.7633
16.7479
16.7337
16.7206
16.7087
16.6978
16.688
16.6791
16.6711
16.664
16.6577
16.6521
16.6473
16.6431
16.6396
16.6367
16.6344
16.6326
16.6313
16.6305
16.6302
16.6303
16.6308
16.6317
16.6329
16.6345
16.6363
16.6385
16.641
16.6437
16.6466
16.6498
16.6532
16.6568
16.6606
16.6646
16.6688
16.6731
16.6776
16.6822
16.687
16.692
16.6971
16.7024
16.7078
16.7134
16.7192
16.7252
16.7314
16.7378
16.7446
16.7517
16.7592
16.7672
16.7759
16.7853
16.7957
16.8073
16.8205
16.8357
16.8534
16.8745
16.9001
16.9316
16.971
17.0215
17.0875
17.1754
17.2967
17.4617
17.69
17.942
-8.88948
-8.90132
-8.92688
-8.96493
-9.01549
-9.07825
-9.15313
-9.24011
-9.33932
-9.45097
-9.57537
-9.71279
-9.86351
-10.0277
-10.2052
-10.396
-10.5995
-10.8148
-11.0406
-11.2747
-11.5145
-11.7566
-11.9964
-12.2284
-12.4459
-12.641
-12.8043
-12.9252
-12.9921
-12.9926
-12.9137
-12.7426
-12.4668
-12.0755
-11.5596
-10.913
-10.1331
-9.2212
-8.18271
-7.02702
-5.76737
-4.42031
-3.00481
-1.54127
-0.0505511
1.44673
2.93116
4.38507
5.7924
7.13961
8.41524
9.61016
10.7177
11.7334
12.6556
13.4848
14.2233
14.8751
15.4452
15.9396
16.3646
16.7264
17.0314
17.2856
17.4952
17.6651
17.8
17.9042
17.9817
18.0362
18.0707
18.0881
18.0911
18.0819
18.0624
18.0345
17.9997
17.9594
17.9147
17.8667
17.8163
17.7642
17.7112
17.6577
17.6043
17.5513
17.499
17.4479
17.3979
17.3494
17.3025
17.2573
17.2139
17.1723
17.1325
17.0946
17.0586
17.0245
16.9922
16.9616
16.9329
16.9059
16.8805
16.8568
16.8346
16.8139
16.7947
16.7769
16.7604
16.7452
16.7312
16.7184
16.7067
16.696
16.6863
16.6775
16.6697
16.6626
16.6564
16.651
16.6462
16.6422
16.6387
16.6359
16.6336
16.6319
16.6307
16.63
16.6297
16.6298
16.6304
16.6313
16.6326
16.6342
16.6361
16.6383
16.6407
16.6435
16.6465
16.6497
16.6531
16.6567
16.6605
16.6645
16.6687
16.673
16.6775
16.6821
16.6869
16.6919
16.697
16.7023
16.7077
16.7133
16.719
16.725
16.7312
16.7376
16.7443
16.7514
16.7589
16.7668
16.7754
16.7847
16.795
16.8064
16.8193
16.8342
16.8515
16.872
16.8968
16.9272
16.9652
17.0131
17.0757
17.1561
17.2653
17.4005
17.5782
17.7391
-9.09757
-9.11007
-9.13742
-9.17827
-9.23282
-9.30085
-9.38244
-9.47772
-9.58698
-9.71059
-9.84902
-10.0027
-10.172
-10.3573
-10.5589
-10.7766
-11.0101
-11.2587
-11.521
-11.7952
-12.0787
-12.3681
-12.6589
-12.9452
-13.22
-13.4746
-13.6989
-13.8812
-14.0083
-14.0662
-14.0397
-13.9139
-13.6742
-13.3073
-12.8027
-12.1534
-11.3563
-10.4132
-9.32999
-8.11752
-6.79162
-5.37177
-3.87989
-2.33885
-0.77155
0.799921
2.35498
3.87513
5.34409
6.74793
8.07531
9.31675
10.4651
11.5159
12.4676
13.3207
14.0783
14.745
15.3269
15.8308
16.2635
16.6317
16.9422
17.2014
17.4158
17.59
17.729
17.8372
17.9185
17.9765
18.0145
18.0352
18.0413
18.035
18.0183
17.9931
17.9608
17.9228
17.8804
17.8346
17.7862
17.7361
17.6848
17.633
17.5812
17.5297
17.4789
17.429
17.3803
17.333
17.2872
17.243
17.2006
17.1599
17.121
17.0839
17.0486
17.0151
16.9835
16.9535
16.9254
16.8989
16.874
16.8507
16.829
16.8087
16.7899
16.7724
16.7562
16.7413
16.7276
16.715
16.7036
16.6931
16.6836
16.675
16.6674
16.6605
16.6545
16.6492
16.6446
16.6406
16.6373
16.6346
16.6325
16.6308
16.6297
16.6291
16.6288
16.6291
16.6297
16.6306
16.632
16.6336
16.6356
16.6378
16.6403
16.6431
16.6461
16.6493
16.6527
16.6564
16.6602
16.6642
16.6684
16.6727
16.6773
16.6819
16.6867
16.6917
16.6968
16.7021
16.7075
16.713
16.7188
16.7247
16.7309
16.7373
16.744
16.751
16.7584
16.7662
16.7747
16.7838
16.7939
16.805
16.8176
16.832
16.8488
16.8685
16.8923
16.9211
16.957
17.0016
17.0592
17.131
17.2246
17.3341
17.4652
17.5612
-9.4077
-9.42059
-9.44923
-9.49225
-9.55019
-9.62308
-9.71128
-9.81514
-9.93527
-10.0723
-10.227
-10.4
-10.5921
-10.804
-11.0361
-11.2888
-11.5619
-11.8551
-12.1675
-12.4978
-12.8436
-13.2016
-13.5672
-13.9342
-14.2949
-14.6399
-14.9576
-15.2347
-15.456
-15.6043
-15.6614
-15.6084
-15.4273
-15.102
-14.6191
-13.9691
-13.1469
-12.1537
-10.9984
-9.69731
-8.27163
-6.74422
-5.13991
-3.4847
-1.80452
-0.124072
1.5341
3.15043
4.70826
6.19383
7.59589
8.90457
10.1124
11.2144
12.2085
13.0958
13.8804
14.5682
15.1666
15.6833
16.1264
16.5034
16.8215
17.088
17.3088
17.489
17.6337
17.7473
17.8337
17.8966
17.9392
17.9643
17.9746
17.9723
17.9594
17.9377
17.9089
17.8741
17.8348
17.7918
17.7461
17.6986
17.6497
17.6002
17.5505
17.501
17.4521
17.404
17.357
17.3113
17.2669
17.2241
17.1829
17.1435
17.1057
17.0696
17.0354
17.0028
16.972
16.9429
16.9155
16.8897
16.8655
16.8429
16.8217
16.802
16.7836
16.7666
16.7509
16.7364
16.723
16.7108
16.6997
16.6895
16.6803
16.672
16.6646
16.6579
16.6521
16.647
16.6426
16.6388
16.6356
16.6331
16.631
16.6295
16.6285
16.628
16.6279
16.6282
16.6288
16.6299
16.6313
16.633
16.635
16.6373
16.6398
16.6426
16.6457
16.6489
16.6524
16.6561
16.6599
16.6639
16.6681
16.6725
16.677
16.6817
16.6865
16.6915
16.6966
16.7018
16.7072
16.7128
16.7185
16.7245
16.7306
16.7369
16.7436
16.7505
16.7578
16.7655
16.7738
16.7828
16.7925
16.8034
16.8156
16.8294
16.8454
16.8641
16.8866
16.9135
16.9468
16.9874
17.039
17.1012
17.179
17.2641
17.3558
17.4051
-9.79888
-9.81256
-9.84313
-9.88924
-9.95177
-10.031
-10.1278
-10.2427
-10.3769
-10.5312
-10.7068
-10.9049
-11.1265
-11.373
-11.6451
-11.9437
-12.2695
-12.623
-13.0039
-13.4116
-13.8438
-14.2976
-14.768
-15.249
-15.7325
-16.2081
-16.663
-17.0811
-17.4436
-17.7287
-17.913
-17.9722
-17.8822
-17.6208
-17.1688
-16.5128
-15.6476
-14.5783
-13.3212
-11.898
-10.3311
-8.64749
-6.87877
-5.05772
-3.21592
-1.38173
0.419881
2.16862
3.84798
5.44518
6.94979
8.35199
9.64345
10.8174
11.8712
12.8062
13.6277
14.3438
14.9638
15.4973
15.9537
16.3418
16.6699
16.9455
17.1745
17.3626
17.5146
17.6351
17.7281
17.7972
17.8456
17.8764
17.8919
17.8946
17.8865
17.8693
17.8447
17.814
17.7784
17.739
17.6968
17.6524
17.6065
17.5599
17.5128
17.4658
17.4192
17.3734
17.3284
17.2846
17.2421
17.201
17.1614
17.1234
17.087
17.0523
17.0193
16.9879
16.9581
16.93
16.9035
16.8786
16.8552
16.8333
16.8128
16.7938
16.776
16.7596
16.7444
16.7304
16.7175
16.7057
16.6949
16.6851
16.6762
16.6682
16.6611
16.6548
16.6492
16.6443
16.6401
16.6365
16.6335
16.6311
16.6293
16.6279
16.627
16.6266
16.6266
16.627
16.6278
16.6289
16.6304
16.6322
16.6342
16.6366
16.6392
16.642
16.6451
16.6484
16.6519
16.6556
16.6595
16.6636
16.6678
16.6722
16.6767
16.6814
16.6862
16.6912
16.6963
16.7016
16.707
16.7125
16.7182
16.7241
16.7302
16.7365
16.743
16.7499
16.7571
16.7647
16.7728
16.7815
16.791
16.8014
16.813
16.8262
16.8414
16.8589
16.8798
16.9045
16.9347
16.971
17.0157
17.0682
17.1303
17.1938
17.2529
17.2711
-10.2501
-10.2652
-10.299
-10.3501
-10.4199
-10.5089
-10.6182
-10.749
-10.9026
-11.0804
-11.2841
-11.5155
-11.7764
-12.0683
-12.3932
-12.7531
-13.1497
-13.5845
-14.0581
-14.5701
-15.1194
-15.7033
-16.3183
-16.9591
-17.6177
-18.2829
-18.9388
-19.5652
-20.1367
-20.6242
-20.9951
-21.2146
-21.2481
-21.0649
-20.642
-19.9665
-19.037
-17.8629
-16.4607
-14.8504
-13.0654
-11.1483
-9.14383
-7.09415
-5.03697
-3.00346
-1.0193
0.895662
2.72653
4.46342
6.09875
7.62415
9.02926
10.3036
11.4411
12.4423
13.3146
14.0687
14.7171
15.2721
15.7452
16.1471
16.4878
16.7743
17.0134
17.2109
17.3718
17.5008
17.6017
17.6784
17.734
17.7715
17.7934
17.8021
17.7997
17.7879
17.7684
17.7425
17.7115
17.6764
17.6381
17.5976
17.5553
17.512
17.4681
17.4241
17.3803
17.337
17.2946
17.2531
17.2127
17.1736
17.1359
17.0997
17.065
17.0318
17.0002
16.9702
16.9417
16.9148
16.8894
16.8655
16.843
16.822
16.8024
16.7841
16.7671
16.7513
16.7367
16.7233
16.7109
16.6996
16.6893
16.6799
16.6715
16.6639
16.6571
16.651
16.6457
16.6411
16.6372
16.6339
16.6311
16.6289
16.6272
16.6261
16.6253
16.6251
16.6252
16.6257
16.6266
16.6278
16.6294
16.6312
16.6334
16.6358
16.6385
16.6414
16.6445
16.6479
16.6514
16.6552
16.6591
16.6632
16.6674
16.6718
16.6764
16.6811
16.6859
16.6909
16.696
16.7013
16.7067
16.7122
16.7179
16.7237
16.7298
16.736
16.7425
16.7492
16.7563
16.7637
16.7716
16.78
16.7891
16.7991
16.8102
16.8226
16.8367
16.853
16.872
16.8944
16.9212
16.9527
16.9904
17.0332
17.0806
17.1251
17.1582
17.1535
-10.7434
-10.7608
-10.7997
-10.8587
-10.9392
-11.0423
-11.1694
-11.322
-11.5019
-11.7114
-11.9527
-12.2284
-12.5409
-12.8932
-13.2886
-13.7303
-14.2215
-14.7645
-15.361
-16.0124
-16.7193
-17.482
-18.2996
-19.1685
-20.0803
-21.0203
-21.9663
-22.8888
-23.751
-24.5105
-25.1209
-25.5348
-25.707
-25.6012
-25.1913
-24.4627
-23.4124
-22.047
-20.3866
-18.4727
-16.3646
-14.1241
-11.8091
-9.47144
-7.15531
-4.8946
-2.71248
-0.623145
1.36531
3.24965
5.02843
6.69696
8.24295
9.6487
10.8996
11.9918
12.9332
13.7382
14.4238
15.0064
15.5006
15.9206
16.2762
16.5758
16.8268
17.0353
17.2066
17.3454
17.4556
17.5411
17.605
17.6503
17.6797
17.6954
17.6996
17.6941
17.6805
17.6602
17.6344
17.6043
17.5707
17.5346
17.4964
17.457
17.4168
17.3762
17.3356
17.2954
17.2557
17.2169
17.179
17.1423
17.1067
17.0725
17.0397
17.0083
16.9784
16.9499
16.9229
16.8973
16.8732
16.8505
16.8291
16.8091
16.7904
16.773
16.7568
16.7418
16.7279
16.7152
16.7034
16.6927
16.6829
16.674
16.666
16.6589
16.6525
16.6468
16.6418
16.6375
16.6339
16.6308
16.6283
16.6264
16.6249
16.6239
16.6234
16.6232
16.6235
16.6242
16.6252
16.6266
16.6282
16.6302
16.6324
16.6349
16.6377
16.6407
16.6439
16.6473
16.6509
16.6546
16.6586
16.6627
16.667
16.6714
16.676
16.6807
16.6856
16.6906
16.6957
16.7009
16.7063
16.7118
16.7175
16.7233
16.7293
16.7354
16.7418
16.7484
16.7553
16.7626
16.7702
16.7784
16.7871
16.7966
16.807
16.8186
16.8316
16.8464
16.8635
16.8833
16.9064
16.9331
16.9638
16.997
17.0311
17.0591
17.0717
17.0491
-11.2596
-11.2804
-11.3267
-11.3966
-11.4921
-11.6145
-11.7656
-11.9476
-12.1631
-12.4148
-12.706
-13.0401
-13.4209
-13.8532
-14.342
-14.8921
-15.5081
-16.1941
-16.9544
-17.7939
-18.7184
-19.7331
-20.8401
-22.0348
-23.3029
-24.6196
-25.9493
-27.2471
-28.4597
-29.5283
-30.3955
-31.0092
-31.3205
-31.2812
-30.8491
-29.9968
-28.7174
-27.0314
-24.9924
-22.6778
-20.1585
-17.5058
-14.7928
-12.0879
-9.44831
-6.91425
-4.50871
-2.2399
-0.10633
1.90278
3.80299
5.60293
7.29407
8.85017
10.2402
11.4484
12.4787
13.3487
14.0812
14.6984
15.2207
15.6627
16.0365
16.3517
16.6165
16.8376
17.0206
17.1703
17.2909
17.3862
17.4595
17.5137
17.5515
17.5751
17.5869
17.5884
17.5815
17.5675
17.5477
17.5232
17.4949
17.4637
17.4302
17.3952
17.3591
17.3223
17.2854
17.2485
17.2121
17.1762
17.1411
17.107
17.0739
17.042
17.0114
16.982
16.9539
16.9271
16.9018
16.8777
16.855
16.8336
16.8135
16.7946
16.777
16.7606
16.7453
16.7312
16.7181
16.7061
16.695
16.6849
16.6758
16.6674
16.6599
16.6532
16.6473
16.642
16.6375
16.6335
16.6302
16.6274
16.6252
16.6235
16.6223
16.6215
16.6212
16.6212
16.6217
16.6225
16.6237
16.6251
16.6269
16.629
16.6313
16.6339
16.6368
16.6398
16.6431
16.6466
16.6502
16.6541
16.6581
16.6622
16.6665
16.671
16.6756
16.6803
16.6852
16.6902
16.6953
16.7006
16.7059
16.7114
16.7171
16.7228
16.7288
16.7349
16.7411
16.7476
16.7544
16.7614
16.7688
16.7766
16.7849
16.7938
16.8035
16.8142
16.8261
16.8393
16.8544
16.8714
16.8909
16.9126
16.9364
16.9607
16.9829
16.9966
16.9927
16.956
-11.7765
-11.8024
-11.8591
-11.944
-12.0599
-12.2082
-12.3915
-12.6126
-12.8748
-13.1819
-13.5383
-13.949
-14.4202
-14.9585
-15.5709
-16.264
-17.0449
-17.9218
-18.9047
-20.0057
-21.2368
-22.6062
-24.1126
-25.7409
-27.4609
-29.2288
-30.9903
-32.6856
-34.2549
-35.6447
-36.8004
-37.6621
-38.1644
-38.2391
-37.8223
-36.8662
-35.3604
-33.3392
-30.8707
-28.0388
-24.9401
-21.6835
-18.3797
-15.1288
-12.0106
-9.07849
-6.35922
-3.85668
-1.55744
0.567635
2.55833
4.4502
6.25562
7.95125
9.48719
10.8246
11.9571
12.9024
13.6901
14.3505
14.906
15.3747
15.7704
16.1041
16.3848
16.6199
16.8157
16.9773
17.1092
17.2152
17.2986
17.3625
17.4095
17.442
17.4621
17.4715
17.472
17.4651
17.4519
17.4335
17.4111
17.3854
17.3571
17.3269
17.2953
17.2628
17.2299
17.1968
17.1638
17.1313
17.0993
17.0681
17.0377
17.0083
16.98
16.9528
16.9268
16.902
16.8784
16.8561
16.8349
16.815
16.7962
16.7786
16.7622
16.7469
16.7326
16.7194
16.7073
16.696
16.6858
16.6764
16.6679
16.6601
16.6532
16.647
16.6416
16.6368
16.6326
16.6291
16.6261
16.6237
16.6217
16.6203
16.6194
16.6188
16.6187
16.619
16.6196
16.6206
16.622
16.6236
16.6255
16.6277
16.6302
16.6329
16.6358
16.6389
16.6423
16.6458
16.6495
16.6534
16.6575
16.6617
16.666
16.6705
16.6752
16.6799
16.6848
16.6898
16.6949
16.7002
16.7055
16.711
16.7166
16.7223
16.7282
16.7342
16.7404
16.7467
16.7533
16.7601
16.7672
16.7747
16.7825
16.7909
16.7999
16.8096
16.8202
16.8319
16.8448
16.8591
16.8748
16.8916
16.9089
16.9249
16.9364
16.9378
16.9207
16.8728
-12.269
-12.3024
-12.3734
-12.4781
-12.621
-12.8035
-13.029
-13.301
-13.6242
-14.004
-14.4467
-14.9596
-15.5506
-16.2288
-17.0038
-17.8869
-18.8915
-20.0329
-21.328
-22.793
-24.4399
-26.2695
-28.265
-30.3904
-32.5927
-34.8113
-36.9909
-39.0866
-41.0602
-42.8686
-44.4543
-45.7366
-46.6117
-46.9669
-46.6937
-45.7091
-43.977
-41.5226
-38.4298
-34.8298
-30.8879
-26.7781
-22.661
-18.6707
-14.9092
-11.4426
-8.29862
-5.47513
-2.94931
-0.680699
1.392
3.34424
5.22748
7.03101
8.69411
10.1531
11.3867
12.4109
13.26
13.9675
14.5605
15.0596
15.4805
15.8353
16.134
16.3846
16.5943
16.7686
16.9123
17.0296
17.1238
17.1981
17.255
17.297
17.3261
17.3441
17.3528
17.3534
17.3474
17.3359
17.3198
17.3001
17.2774
17.2525
17.2259
17.1981
17.1695
17.1405
17.1114
17.0824
17.0537
17.0257
16.9982
16.9716
16.9459
16.9211
16.8974
16.8746
16.853
16.8325
16.813
16.7947
16.7774
16.7612
16.7461
16.7319
16.7188
16.7066
16.6954
16.6851
16.6757
16.667
16.6592
16.6522
16.6459
16.6403
16.6353
16.631
16.6273
16.6242
16.6216
16.6196
16.618
16.6169
16.6162
16.6159
16.6161
16.6166
16.6174
16.6186
16.6201
16.6219
16.624
16.6263
16.6289
16.6317
16.6347
16.6379
16.6414
16.645
16.6488
16.6527
16.6568
16.6611
16.6655
16.67
16.6747
16.6795
16.6844
16.6894
16.6945
16.6997
16.7051
16.7106
16.7161
16.7218
16.7276
16.7335
16.7396
16.7458
16.7522
16.7588
16.7656
16.7727
16.7801
16.7878
16.796
16.8048
16.8141
16.8241
16.8349
16.8464
16.8584
16.8705
16.8817
16.8899
16.8921
16.883
16.855
16.7983
-12.7084
-12.7529
-12.8433
-12.975
-13.1539
-13.3814
-13.6623
-14.0015
-14.4058
-14.8823
-15.4393
-16.0866
-16.8357
-17.7007
-18.6984
-19.8472
-21.1665
-22.6739
-24.3844
-26.3079
-28.4451
-30.7802
-33.2765
-35.8808
-38.5353
-41.1929
-43.8223
-46.405
-48.9202
-51.3217
-53.5217
-55.3873
-56.7454
-57.4042
-57.1911
-55.9931
-53.7832
-50.6284
-46.6764
-42.1278
-37.2026
-32.1255
-27.1036
-22.3068
-17.8562
-13.8224
-10.2281
-7.05704
-4.27445
-1.83433
0.326997
2.33782
4.28057
6.15994
7.91657
9.4733
10.7953
11.8946
12.8042
13.5598
14.1916
14.7227
15.1705
15.5483
15.8664
16.1338
16.3582
16.5458
16.702
16.8311
16.9366
17.0217
17.0891
17.1411
17.1799
17.2071
17.2245
17.2334
17.2352
17.231
17.2217
17.2084
17.1918
17.1725
17.1512
17.1284
17.1045
17.0799
17.0549
17.0297
17.0047
16.98
16.9558
16.9321
16.9091
16.887
16.8656
16.8452
16.8256
16.8071
16.7895
16.7728
16.7571
16.7424
16.7287
16.7158
16.7039
16.6929
16.6827
16.6733
16.6648
16.657
16.65
16.6436
16.638
16.633
16.6286
16.6249
16.6217
16.619
16.6168
16.6152
16.6139
16.6132
16.6128
16.6128
16.6132
16.614
16.615
16.6164
16.6181
16.6201
16.6223
16.6248
16.6275
16.6304
16.6335
16.6369
16.6404
16.6441
16.6479
16.652
16.6561
16.6604
16.6649
16.6695
16.6742
16.679
16.6839
16.6889
16.6941
16.6993
16.7046
16.7101
16.7156
16.7213
16.727
16.7328
16.7388
16.7449
16.7511
16.7574
16.7639
16.7706
16.7775
16.7847
16.7921
16.7998
16.8078
16.8162
16.8248
16.8335
16.842
16.8496
16.8551
16.8564
16.8503
16.8321
16.7952
16.7313
-13.0652
-13.1255
-13.2426
-13.4109
-13.6372
-13.9243
-14.2788
-14.7076
-15.2192
-15.8237
-16.5336
-17.3643
-18.3348
-19.4661
-20.7797
-22.2946
-24.0262
-25.9842
-28.1719
-30.586
-33.2145
-36.0305
-38.9923
-42.0505
-45.1609
-48.296
-51.4447
-54.5964
-57.713
-60.7028
-63.4142
-65.6461
-67.167
-67.7547
-67.2381
-65.5379
-62.6777
-58.7659
-53.9774
-48.5324
-42.6883
-36.7188
-30.8807
-25.383
-20.3524
-15.8521
-11.8986
-8.45714
-5.47072
-2.88184
-0.615968
1.45684
3.44733
5.37885
7.19619
8.8216
10.2133
11.3764
12.3404
13.1409
13.8096
14.3716
14.8457
15.2461
15.5841
15.8689
16.1086
16.3103
16.4795
16.6209
16.7382
16.8347
16.9131
16.9756
17.0245
17.0614
17.0881
17.1057
17.1158
17.1193
17.1174
17.1109
17.1007
17.0874
17.0718
17.0543
17.0353
17.0153
16.9947
16.9737
16.9525
16.9314
16.9105
16.89
16.87
16.8505
16.8318
16.8137
16.7964
16.78
16.7643
16.7495
16.7355
16.7224
16.7101
16.6986
16.688
16.6781
16.6691
16.6607
16.6531
16.6463
16.64
16.6345
16.6296
16.6252
16.6215
16.6183
16.6156
16.6134
16.6117
16.6104
16.6096
16.6092
16.6091
16.6095
16.6101
16.6111
16.6125
16.6141
16.6159
16.6181
16.6205
16.6231
16.626
16.629
16.6323
16.6357
16.6393
16.6431
16.6471
16.6512
16.6554
16.6598
16.6643
16.6689
16.6736
16.6785
16.6834
16.6885
16.6936
16.6988
16.7042
16.7096
16.7151
16.7207
16.7264
16.7321
16.738
16.7439
16.7499
16.756
16.7622
16.7685
16.775
16.7815
16.7881
16.7948
16.8015
16.8082
16.8148
16.8208
16.8259
16.8292
16.8294
16.8244
16.8111
16.7851
16.7407
16.671
-13.3076
-13.3897
-13.5442
-13.7629
-14.054
-14.422
-14.8756
-15.4246
-16.083
-16.8678
-17.7986
-18.8968
-20.1843
-21.6814
-23.4047
-25.3644
-27.5651
-30.0039
-32.6714
-35.5526
-38.6288
-41.8742
-45.2535
-48.7257
-52.2521
-55.8017
-59.3469
-62.8457
-66.2173
-69.3311
-72.0131
-74.057
-75.2449
-75.385
-74.3409
-72.0597
-68.581
-64.0252
-58.5739
-52.4642
-46.0019
-39.4869
-33.1844
-27.305
-21.9725
-17.237
-13.0998
-9.52328
-6.43659
-3.76075
-1.41294
0.721061
2.75408
4.71916
6.56801
8.23199
9.66935
10.8793
11.8865
12.7242
13.4242
14.0129
14.5106
14.9321
15.2891
15.591
15.8465
16.0626
16.2454
16.3999
16.5297
16.6382
16.728
16.8016
16.8611
16.9082
16.9445
16.9714
16.9901
17.0018
17.0075
17.0082
17.0047
16.9978
16.988
16.9761
16.9623
16.9473
16.9312
16.9145
16.8974
16.88
16.8627
16.8455
16.8286
16.8121
16.796
16.7805
16.7656
16.7513
16.7377
16.7248
16.7126
16.7012
16.6905
16.6804
16.6711
16.6625
16.6546
16.6474
16.6408
16.6349
16.6295
16.6248
16.6206
16.617
16.6139
16.6113
16.6092
16.6075
16.6063
16.6054
16.605
16.605
16.6053
16.6059
16.6069
16.6082
16.6097
16.6116
16.6137
16.616
16.6186
16.6214
16.6244
16.6276
16.631
16.6345
16.6382
16.6421
16.6462
16.6503
16.6546
16.6591
16.6636
16.6683
16.673
16.6779
16.6829
16.688
16.6931
16.6984
16.7037
16.7091
16.7146
16.7201
16.7257
16.7314
16.7371
16.7429
16.7487
16.7546
16.7605
16.7664
16.7724
16.7783
16.7841
16.7898
16.7953
16.8003
16.8048
16.8083
16.8102
16.8095
16.8049
16.7942
16.7746
16.7419
16.6913
16.6167
-13.4072
-13.5201
-13.7295
-14.0184
-14.3971
-14.8736
-15.4632
-16.1851
-17.063
-18.1188
-19.3717
-20.8385
-22.5345
-24.4718
-26.6562
-29.0846
-31.7447
-34.6179
-37.6838
-40.9241
-44.3205
-47.847
-51.4636
-55.1135
-58.7359
-62.2751
-65.68
-68.8958
-71.8498
-74.4426
-76.5346
-77.9668
-78.5528
-78.1251
-76.5595
-73.8195
-69.9415
-65.0532
-59.3446
-53.0571
-46.4876
-39.9327
-33.6429
-27.8022
-22.5189
-17.8296
-13.7236
-10.1656
-7.08856
-4.40285
-2.01927
0.158146
2.22103
4.19819
6.05155
7.72613
9.18405
10.4205
11.4553
12.3187
13.0418
13.6515
14.1688
14.6089
14.9834
15.302
15.573
15.804
16.001
16.1691
16.3121
16.4333
16.5353
16.6204
16.6909
16.7485
16.7948
16.8312
16.8589
16.879
16.8927
16.9009
16.9044
16.904
16.9004
16.8943
16.886
16.876
16.8647
16.8525
16.8396
16.8262
16.8126
16.7989
16.7852
16.7717
16.7585
16.7456
16.7332
16.7212
16.7098
16.6989
16.6886
16.6789
16.6698
16.6613
16.6534
16.6462
16.6395
16.6334
16.6279
16.6229
16.6185
16.6146
16.6112
16.6083
16.6059
16.6039
16.6024
16.6013
16.6005
16.6002
16.6002
16.6005
16.6012
16.6022
16.6035
16.6051
16.6069
16.609
16.6113
16.6138
16.6166
16.6196
16.6227
16.6261
16.6296
16.6333
16.6371
16.6411
16.6452
16.6494
16.6538
16.6583
16.6629
16.6676
16.6724
16.6774
16.6824
16.6875
16.6926
16.6979
16.7032
16.7086
16.714
16.7195
16.7251
16.7307
16.7363
16.7419
16.7476
16.7532
16.7588
16.7644
16.7698
16.7751
16.7801
16.7848
16.7891
16.7926
16.7952
16.7962
16.795
16.7907
16.7817
16.766
16.7408
16.7024
16.6465
16.568
-13.3438
-13.4976
-13.786
-14.1742
-14.6775
-15.3157
-16.1195
-17.1189
-18.337
-19.7835
-21.4617
-23.3743
-25.5229
-27.9005
-30.4915
-33.2763
-36.2325
-39.3343
-42.5536
-45.8602
-49.218
-52.5834
-55.9028
-59.1279
-62.2031
-65.094
-67.7719
-70.2014
-72.3419
-74.1162
-75.4185
-76.1129
-76.0506
-75.0977
-73.1622
-70.2174
-66.3056
-61.5433
-56.1078
-50.2179
-44.1246
-38.0798
-32.2931
-26.9104
-22.0158
-17.639
-13.7727
-10.3864
-7.4201
-4.78946
-2.41408
-0.223314
1.84362
3.80749
5.64266
7.30512
8.75976
10.0002
11.0439
11.9195
12.6569
13.2821
13.8155
14.272
14.663
14.9978
15.2846
15.5308
15.7426
15.925
16.0819
16.2166
16.3315
16.4291
16.5112
16.5799
16.6367
16.683
16.7201
16.7491
16.7711
16.7871
16.798
16.8045
16.8075
16.8074
16.8048
16.8003
16.7941
16.7866
16.7782
16.769
16.7593
16.7493
16.739
16.7288
16.7186
16.7085
16.6987
16.6892
16.6801
16.6714
16.6631
16.6552
16.6478
16.641
16.6346
16.6287
16.6234
16.6185
16.6141
16.6102
16.6067
16.6038
16.6012
16.5991
16.5974
16.5961
16.5952
16.5946
16.5944
16.5946
16.5951
16.5958
16.5969
16.5982
16.5999
16.6017
16.6038
16.6062
16.6087
16.6115
16.6145
16.6176
16.6209
16.6244
16.6281
16.6319
16.6359
16.6399
16.6442
16.6485
16.6529
16.6575
16.6622
16.667
16.6718
16.6768
16.6818
16.6869
16.6921
16.6974
16.7027
16.708
16.7135
16.7189
16.7244
16.7299
16.7354
16.7409
16.7464
16.7518
16.7571
16.7623
16.7673
16.7719
16.7763
16.78
16.7831
16.7851
16.7858
16.7846
16.7806
16.7729
16.7599
16.7397
16.7097
16.6664
16.6061
16.5242
-13.1323
-13.3302
-13.7224
-14.2506
-14.9403
-15.8287
-16.9566
-18.3426
-19.9828
-21.8575
-23.9409
-26.2047
-28.6235
-31.1731
-33.833
-36.5785
-39.3813
-42.2014
-45.0082
-47.768
-50.4693
-53.0891
-55.6151
-58.024
-60.2885
-62.3756
-64.2506
-65.8771
-67.2152
-68.2081
-68.7805
-68.8444
-68.3061
-67.0789
-65.1
-62.3475
-58.8528
-54.7026
-50.0326
-45.0129
-39.8296
-34.6766
-29.7152
-25.0544
-20.7574
-16.8539
-13.3492
-10.2227
-7.42375
-4.88678
-2.55823
-0.396035
1.64031
3.56849
5.36888
6.99864
8.42457
9.6439
10.6764
11.5498
12.2919
12.9263
13.4718
13.942
14.3476
14.6971
14.9987
15.2595
15.4856
15.6819
15.8523
16.0001
16.1277
16.2373
16.3311
16.4107
16.4778
16.5339
16.5802
16.618
16.6483
16.6721
16.6903
16.7038
16.7132
16.7193
16.7225
16.7234
16.7223
16.7196
16.7157
16.7108
16.705
16.6987
16.692
16.685
16.6778
16.6707
16.6635
16.6565
16.6497
16.6432
16.6369
16.631
16.6254
16.6201
16.6153
16.6109
16.6068
16.6032
16.6
16.5971
16.5947
16.5926
16.591
16.5896
16.5887
16.5881
16.5878
16.5878
16.5882
16.5888
16.5898
16.591