/*--------------------------------*- C++ -*----------------------------------*\
  =========                 |
  \\      /  F ield         | OpenFOAM: The Open Source CFD Toolbox
   \\    /   O peration     | Website:  https://openfoam.org
    \\  /    A nd           | Version:  9
     \\/     M anipulation  |
\*---------------------------------------------------------------------------*/
FoamFile
{
    format      ascii;
    class       volScalarField;
    location    "0.011";
    object      pPrime2Mean;
}
// * * * * * * * * * * * * * * * * * * * * * * * * * * * * * * * * * * * * * //

dimensions      [0 4 -4 0 0 0 0];

internalField   nonuniform List<scalar> 
12225
(
342848
339079
334790
330301
325737
321170
316644
312186
307811
303521
299314
295178
291098
287047
282985
278851
274513
269702
342870
339108
334811
330318
325750
321181
316654
312196
307820
303532
299326
295193
291116
287071
283021
278907
274627
269973
343008
339175
334857
330354
325780
321207
316677
312218
307842
303555
299352
295225
291157
287126
283100
279030
274847
270481
343226
339280
334934
330414
325829
321249
316715
312254
307879
303594
299397
295278
291224
287215
283225
279221
275171
271085
343401
339432
335047
330503
325902
321311
316771
312307
307932
303652
299462
295355
291321
287343
283402
279480
275575
271738
343712
339635
335202
330626
326003
321397
316848
312380
308006
303730
299550
295461
291452
287512
283630
279801
276042
272416
344116
339903
335403
330786
326134
321510
316949
312476
308103
303833
299666
295597
291618
287724
283909
280179
276558
273106
344499
340229
335663
330993
326304
321654
317078
312599
308226
303964
299812
295767
291824
287981
284238
280606
277112
273805
345064
340636
335980
331248
326514
321834
317239
312751
308378
304125
299990
295973
292070
288282
284613
281076
277696
274511
345618
341130
336378
331565
326774
322053
317435
312935
308562
304319
300204
296218
292358
288627
285031
281584
278305
275221
346287
341715
336851
331946
327087
322319
317672
313157
308783
304549
300456
296501
292686
289013
285488
282123
278933
275935
347053
342380
337378
332362
327423
322604
317925
313396
309019
304794
300721
296797
293023
289402
285938
282642
279523
276592
348114
343154
337973
332832
327804
322927
318212
313665
309284
305067
301014
297121
293387
289815
286409
283175
280119
277246
349500
344207
338770
333448
328302
323344
318582
314010
309623
305416
301385
297526
293837
290319
286973
283801
280807
277992
351433
345595
339797
334239
328932
323875
319051
314448
310053
305856
301849
298026
294385
290922
287636
284527
281594
278834
354172
347434
341111
335227
329716
324532
319635
314993
310586
306399
302418
298633
295040
291631
288404
285355
282478
279769
357526
349649
342634
336362
330619
325297
320319
315638
311221
307044
303089
299344
295797
292442
289271
286276
283451
280789
360709
351637
344050
337450
331520
326088
321050
316344
311926
307767
303844
300139
296640
293335
290215
287270
284491
281871
361626
352495
344825
338164
332191
326743
321710
317021
312632
308509
304629
300971
297520
294264
291192
288292
285554
282971
359148
351324
344309
338004
332253
326949
322018
317409
313086
309020
305191
301580
298173
294957
291921
289054
286346
283789
356648
349891
343499
337580
332076
326932
322115
317590
313331
309318
305531
301958
298583
295396
292386
289541
286853
284312
354797
348637
342697
337100
331813
326824
322116
317670
313471
309505
305757
302215
298867
295702
292711
289883
287210
284681
353286
347607
342014
336662
331553
326693
322077
317698
313550
309623
305906
302388
299061
295914
292937
290122
287459
284939
352222
346769
341448
336296
331333
326572
322028
317703
313594
309697
306003
302505
299194
296059
293093
290287
287631
285118
351166
346103
341006
336016
331158
326474
321984
317698
313619
309744
306068
302583
299283
296158
293199
290399
287749
285240
350202
345584
340687
335810
331031
326400
321949
317691
313632
309773
306109
302634
299342
296223
293270
290474
287828
285322
349593
345212
340462
335669
330944
326350
321924
317685
313640
309791
306135
302667
299379
296265
293315
290522
287878
285374
349241
344988
340324
335582
330889
326318
321908
317680
313644
309801
306150
302686
299402
296290
293343
290551
287908
285406
349045
344866
340248
335533
330859
326301
321899
317678
313646
309807
306159
302697
299414
296304
293357
290567
287925
285423
348931
344814
340216
335514
330847
326293
321896
317677
313647
309809
306162
302701
299419
296309
293363
290574
287932
285430
228068
228050
228013
227958
227883
227789
227675
227541
227386
227211
227015
226798
226560
226301
226021
225719
225396
225052
224686
224300
223893
223466
223018
222551
222064
221558
221033
220489
219928
219348
218751
218136
217504
216853
216183
215494
214785
214055
213304
212530
211734
210915
210073
209208
208322
207415
206487
205541
204578
203598
202603
201595
200573
199539
198494
197439
196373
195297
194211
193116
192011
190897
189774
188641
187500
186349
185189
184021
182843
181656
180461
179257
178045
176824
175594
174357
173111
171857
170596
169327
168050
166766
165474
164175
162869
161557
160237
158911
157578
156239
154894
153543
152185
150822
149453
148079
146699
145314
143924
142528
141128
139723
138313
136899
135480
134057
132630
131199
129764
128326
126883
125438
123989
122536
121081
119623
118162
116699
115233
113764
112294
110822
109347
107871
106394
104915
103435
101954
100472
98989
97505.8
96022.2
94538.6
93054.9
91571.5
90088.6
88606.3
87124.8
85644.4
84165.2
82687.6
81211.6
79737.6
78265.8
76796.3
75329.5
73865.5
72404.6
70947.1
69493.2
68043.2
66597.4
65155.9
63719.2
62287.5
60861.1
59440.3
58025.4
56616.7
55214.6
53819.3
52431.3
51050.9
49678.4
48314.3
46958.9
45612.7
44276
42949.4
41633.3
40328.4
39035
37754
36486.1
35232.2
33993.3
32771.2
31567.5
30386.5
29235.7
228149
228131
228094
228038
227963
227868
227754
227619
227463
227287
227090
226871
226632
226371
226089
225786
225461
225115
224748
224360
223952
223522
223073
222604
222115
221607
221080
220536
219973
219392
218794
218178
217545
216893
216223
215534
214824
214094
213342
212567
211770
210950
210106
209241
208353
207444
206515
205568
204603
203621
202625
201615
200592
199557
198511
197454
196387
195310
194223
193127
192022
190908
189784
188651
187509
186357
185197
184028
182850
181663
180467
179263
178050
176829
175599
174361
173115
171861
170600
169330
168053
166769
165477
164178
162872
161559
160239
158913
157580
156241
154896
153544
152187
150823
149454
148080
146700
145315
143924
142529
141129
139724
138314
136900
135481
134058
132631
131200
129765
128326
126884
125438
123989
122537
121081
119623
118162
116699
115233
113764
112294
110822
109347
107871
106394
104915
103435
101954
100472
98989
97505.8
96022.3
94538.6
93054.9
91571.5
90088.6
88606.3
87124.8
85644.4
84165.2
82687.6
81211.6
79737.6
78265.8
76796.3
75329.5
73865.5
72404.6
70947.1
69493.2
68043.2
66597.4
65156
63719.2
62287.5
60861.1
59440.3
58025.4
56616.7
55214.5
53819.3
52431.3
51050.9
49678.4
48314.3
46958.8
45612.6
44275.9
42949.3
41633.2
40328.2
39034.8
37753.7
36485.7
35231.6
33992.6
32770
31566.1
30384
29230.9
228312
228293
228256
228199
228123
228027
227910
227774
227616
227438
227238
227018
226776
226512
226227
225920
225592
225243
224872
224481
224068
223636
223182
222709
222217
221706
221176
220628
220062
219479
218878
218261
217626
216973
216302
215611
214901
214170
213417
212641
211842
211020
210174
209306
208415
207503
206571
205621
204653
203668
202669
201656
200630
199592
198544
197485
196416
195337
194249
193151
192045
190929
189804
188670
187526
186374
185213
184043
182864
181676
180480
179275
178061
176839
175609
174370
173124
171869
170607
169337
168060
166775
165483
164183
162877
161564
160244
158917
157584
156244
154899
153547
152189
150826
149457
148082
146702
145317
143926
142531
141130
139725
138315
136901
135482
134059
132632
131201
129765
128327
126884
125439
123989
122537
121082
119624
118163
116699
115233
113765
112294
110822
109348
107872
106394
104915
103435
101954
100472
98989.1
97505.9
96022.3
94538.6
93055
91571.6
90088.6
88606.3
87124.8
85644.4
84165.3
82687.6
81211.7
79737.7
78265.8
76796.3
75329.5
73865.5
72404.7
70947.1
69493.3
68043.2
66597.4
65156
63719.2
62287.5
60861.1
59440.3
58025.4
56616.7
55214.5
53819.3
52431.2
51050.8
49678.3
48314.2
46958.7
45612.4
44275.7
42949
41632.9
40327.8
39034.3
37753.1
36484.8
35230.5
33991
32767.8
31562.9
30378.6
29219.8
228556
228537
228499
228441
228363
228265
228147
228007
227847
227665
227462
227238
226991
226724
226434
226122
225789
225435
225059
224662
224243
223805
223346
222867
222369
221852
221317
220764
220194
219606
219002
218382
217745
217090
216418
215727
215016
214283
213529
212752
211951
211125
210276
209404
208509
207593
206657
205701
204728
203739
202735
201717
200687
199646
198593
197531
196459
195378
194287
193187
192079
190961
189834
188698
187553
186399
185237
184065
182885
181696
180498
179292
178078
176855
175623
174384
173137
171881
170618
169348
168069
166784
165491
164191
162884
161571
160250
158923
157590
156250
154904
153552
152194
150830
149461
148086
146705
145320
143929
142533
141132
139727
138317
136902
135484
134060
132633
131202
129767
128328
126885
125439
123990
122538
121082
119624
118163
116700
115233
113765
112295
110822
109348
107872
106394
104915
103435
101954
100472
98989.2
97506
96022.4
94538.7
93055.1
91571.6
90088.7
88606.3
87124.9
85644.4
84165.3
82687.6
81211.7
79737.7
78265.8
76796.4
75329.5
73865.6
72404.7
70947.2
69493.3
68043.3
66597.4
65156
63719.3
62287.5
60861.1
59440.3
58025.3
56616.6
55214.5
53819.2
52431.2
51050.7
49678.2
48314
46958.6
45612.2
44275.4
42948.7
41632.4
40327.2
39033.5
37752.1
36483.5
35228.7
33988.7
32764.6
31558.1
30371
29205.7
228884
228865
228825
228766
228686
228585
228463
228321
228156
227970
227762
227533
227281
227007
226711
226393
226052
225691
225307
224902
224476
224029
223562
223076
222570
222045
221502
220942
220366
219773
219164
218540
217901
217245
216571
215880
215168
214436
213681
212901
212097
211268
210415
209538
208637
207715
206772
205810
204830
203834
202824
201800
200764
199717
198660
197593
196517
195432
194338
193235
192124
191003
189874
188736
187589
186433
185268
184095
182913
181722
180523
179315
178099
176875
175643
174402
173153
171897
170633
169361
168082
166796
165502
164202
162894
161580
160259
158931
157597
156257
154910
153558
152199
150835
149465
148090
146709
145323
143932
142536
141135
139730
138320
136905
135486
134062
132635
131203
129768
128329
126887
125441
123991
122539
121083
119625
118164
116700
115234
113766
112295
110823
109348
107872
106395
104916
103435
101954
100472
98989.4
97506.1
96022.5
94538.8
93055.1
91571.7
90088.7
88606.4
87124.9
85644.5
84165.3
82687.7
81211.7
79737.7
78265.9
76796.4
75329.6
73865.6
72404.7
70947.2
69493.3
68043.3
66597.4
65156
63719.3
62287.5
60861.1
59440.3
58025.3
56616.6
55214.4
53819.2
52431.1
51050.6
49678.1
48313.9
46958.3
45611.9
44275.1
42948.2
41631.8
40326.4
39032.5
37750.8
36481.8
35226.5
33985.7
32760.4
31552
30361.7
29190.4
229299
229278
229237
229175
229092
228988
228863
228715
228546
228354
228140
227903
227644
227362
227058
226731
226382
226011
225617
225202
224766
224308
223831
223333
222816
222281
221728
221159
220574
219974
219360
218731
218089
217432
216759
216068
215358
214626
213871
213091
212284
211451
210593
209709
208801
207870
206919
205949
204961
203956
202937
201905
200861
199807
198743
197670
196588
195499
194401
193294
192179
191056
189923
188783
187633
186475
185308
184132
182948
181755
180554
179344
178126
176900
175666
174424
173174
171917
170652
169379
168099
166811
165517
164215
162906
161591
160269
158941
157606
156265
154918
153565
152206
150842
149471
148096
146714
145328
143937
142540
141139
139733
138323
136908
135488
134065
132637
131205
129770
128331
126888
125442
123993
122540
121084
119626
118165
116701
115235
113766
112296
110823
109349
107873
106395
104916
103436
101954
100472
98989.6
97506.3
96022.7
94538.9
93055.3
91571.8
90088.8
88606.5
87125
85644.6
84165.4
82687.7
81211.8
79737.8
78265.9
76796.5
75329.6
73865.6
72404.8
70947.2
69493.3
68043.3
66597.5
65156
63719.3
62287.5
60861.1
59440.2
58025.3
56616.6
55214.4
53819.1
52431
51050.5
49677.9
48313.6
46958.1
45611.6
44274.6
42947.6
41631.1
40325.5
39031.3
37749.2
36479.8
35223.8
33982
32755.4
31544.9
30351.3
29174.7
229802
229780
229737
229673
229586
229478
229347
229194
229018
228819
228597
228352
228083
227792
227477
227139
226778
226395
225989
225561
225111
224640
224148
223637
223106
222556
221990
221408
220812
220202
219580
218947
218302
217644
216973
216286
215579
214851
214098
213318
212510
211672
210807
209915
208998
208058
207098
206118
205120
204106
203077
202035
200980
199916
198843
197763
196675
195579
194476
193365
192246
191118
189983
188838
187685
186524
185354
184176
182989
181794
180590
179379
178159
176931
175695
174451
173199
171940
170673
169399
168118
166829
165533
164231
162921
161605
160282
158953
157617
156276
154928
153574
152214
150849
149478
148102
146721
145334
143942
142545
141144
139737
138326
136911
135492
134068
132640
131208
129772
128333
126890
125444
123994
122541
121086
119627
118166
116702
115236
113767
112296
110824
109349
107873
106395
104916
103436
101955
100473
98989.8
97506.5
96022.9
94539.1
93055.4
91571.9
90088.9
88606.6
87125.1
85644.6
84165.5
82687.8
81211.9
79737.9
78266
76796.5
75329.7
73865.7
72404.8
70947.3
69493.4
68043.4
66597.5
65156
63719.3
62287.5
60861.1
59440.2
58025.3
56616.5
55214.3
53819
52430.9
51050.3
49677.7
48313.4
46957.7
45611.2
44274.1
42947
41630.2
40324.4
39029.9
37747.4
36477.4
35220.7
33977.9
32749.8
31537.1
30340.3
29158.9
230398
230375
230329
230261
230171
230057
229920
229760
229576
229368
229136
228880
228600
228297
227969
227617
227242
226844
226423
225978
225511
225023
224513
223982
223432
222864
222279
221680
221067
220444
219811
219171
218523
217867
217200
216519
215820
215099
214351
213572
212762
211919
211046
210145
209219
208269
207300
206311
205304
204281
203242
202188
201122
200046
198963
197872
196776
195673
194563
193447
192323
191191
190051
188903
187746
186581
185408
184227
183037
181839
180633
179418
178196
176966
175728
174482
173228
171967
170699
169423
168140
166850
165553
164249
162938
161621
160297
158966
157630
156287
154939
153584
152224
150858
149487
148110
146728
145340
143948
142551
141149
139742
138331
136915
135495
134071
132643
131211
129775
128335
126892
125446
123996
122543
121087
119628
118167
116703
115237
113768
112297
110825
109350
107874
106396
104917
103436
101955
100473
98990.1
97506.7
96023.1
94539.3
93055.5
91572.1
90089
88606.7
87125.2
85644.7
84165.6
82687.9
81212
79737.9
78266.1
76796.6
75329.7
73865.8
72404.9
70947.3
69493.4
68043.4
66597.5
65156.1
63719.3
62287.6
60861.1
59440.2
58025.2
56616.5
55214.3
53818.9
52430.8
51050.2
49677.5
48313.1
46957.4
45610.7
44273.5
42946.2
41629.3
40323.1
39028.3
37745.3
36474.8
35217.2
33973.3
32743.7
31528.8
30328.9
29143.4
231093
231067
231019
230947
230851
230731
230586
230417
230223
230004
229760
229491
229198
228879
228536
228168
227775
227358
226918
226453
225965
225454
224920
224364
223789
223194
222583
221959
221324
220682
220035
219384
218732
218077
217417
216749
216065
215357
214619
213846
213037
212189
211307
210395
209455
208494
207514
206516
205502
204472
203426
202363
201285
200196
199099
197998
196891
195780
194663
193540
192410
191273
190128
188975
187814
186646
185469
184284
183091
181889
180680
179463
178238
177005
175765
174516
173261
171998
170727
169450
168165
166873
165574
164269
162957
161638
160313
158982
157644
156301
154951
153596
152235
150868
149496
148118
146736
145348
143955
142557
141155
139747
138336
136920
135499
134075
132646
131214
129778
128338
126895
125448
123998
122545
121089
119630
118168
116704
115238
113769
112298
110825
109351
107874
106397
104917
103437
101956
100473
98990.4
97507
96023.3
94539.5
93055.7
91572.2
90089.2
88606.8
87125.3
85644.8
84165.7
82688
81212.1
79738
78266.2
76796.7
75329.8
73865.8
72404.9
70947.4
69493.5
68043.4
66597.6
65156.1
63719.3
62287.6
60861.1
59440.2
58025.2
56616.4
55214.2
53818.8
52430.6
51050
49677.2
48312.8
46957
45610.2
44272.8
42945.4
41628.2
40321.8
39026.6
37743.1
36471.9
35213.5
33968.5
32737.3
31520.3
30317.5
29128.3
231891
231863
231811
231734
231632
231503
231350
231170
230964
230731
230473
230189
229878
229542
229180
228792
228379
227940
227476
226986
226471
225930
225365
224776
224166
223536
222890
222232
221566
220897
220227
219562
218905
218256
217613
216970
216316
215639
214927
214171
213366
212513
211615
210682
209721
208740
207742
206731
205707
204669
203617
202548
201462
200362
199252
198138
197020
195899
194774
193643
192507
191364
190213
189056
187890
186717
185536
184347
183150
181946
180733
179513
178285
177049
175806
174555
173297
172032
170759
169479
168193
166899
165599
164292
162978
161658
160332
158999
157660
156316
154965
153609
152247
150879
149506
148128
146744
145356
143962
142564
141161
139753
138341
136925
135504
134079
132650
131217
129781
128341
126897
125450
124000
122547
121091
119632
118170
116706
115239
113770
112299
110826
109352
107875
106397
104918
103437
101956
100474
98990.7
97507.3
96023.6
94539.7
93055.9
91572.4
90089.3
88606.9
87125.4
85645
84165.8
82688.1
81212.2
79738.1
78266.3
76796.8
75329.9
73865.9
72405
70947.5
69493.5
68043.5
66597.6
65156.1
63719.4
62287.6
60861.1
59440.2
58025.2
56616.4
55214.1
53818.7
52430.5
51049.8
49677
48312.4
46956.5
45609.6
44272.1
42944.5
41627.1
40320.3
39024.7
37740.8
36468.9
35209.6
33963.4
32730.7
31511.6
30306.2
29113.8
232801
232771
232714
232631
232521
232383
232218
232025
231804
231556
231281
230978
230648
230291
229907
229496
229058
228593
228101
227581
227033
226456
225850
225219
224563
223888
223196
222493
221783
221073
220368
219678
219009
218368
217752
217149
216548
215926
215262
214539
213747
212890
211975
211015
210024
209013
207991
206960
205921
204872
203812
202738
201646
200538
199416
198289
197160
196029
194895
193757
192613
191463
190307
189144
187973
186795
185609
184416
183215
182007
180791
179567
178336
177097
175851
174597
173336
172069
170794
169512
168223
166927
165625
164316
163001
161680
160352
159018
157678
156332
154980
153623
152260
150891
149517
148138
146754
145365
143971
142572
141168
139760
138347
136930
135509
134084
132654
131221
129784
128344
126900
125453
124003
122549
121093
119633
118172
116707
115240
113771
112300
110827
109352
107876
106398
104919
103438
101956
100474
98991.1
97507.6
96023.8
94539.9
93056.1
91572.6
90089.5
88607.1
87125.6
85645.1
84165.9
82688.3
81212.3
79738.3
78266.4
76796.9
75330
73866
72405.1
70947.5
69493.6
68043.5
66597.6
65156.2
63719.4
62287.6
60861.1
59440.2
58025.2
56616.3
55214
53818.6
52430.3
51049.6
49676.7
48312.1
46956.1
45609.1
44271.4
42943.5
41625.9
40318.8
39022.8
37738.3
36465.7
35205.6
33958.2
32724
31503
30295.2
29100
233833
233799
233737
233647
233527
233377
233198
232990
232753
232486
232191
231867
231514
231134
230725
230289
229825
229332
228808
228254
227667
227046
226393
225710
224999
224265
223513
222747
221972
221196
220433
219698
219005
218367
217782
217238
216706
216158
215560
214887
214126
213276
212351
211368
210346
209304
208255
207202
206146
205083
204013
202932
201834
200718
199588
198451
197310
196168
195025
193878
192727
191570
190408
189238
188062
186879
185689
184491
183286
182073
180853
179626
178391
177149
175899
174643
173379
172109
170831
169547
168256
166958
165654
164343
163026
161703
160373
159038
157697
156349
154996
153638
152274
150904
149529
148149
146764
145374
143979
142580
141176
139767
138354
136936
135514
134089
132659
131225
129788
128348
126903
125456
124005
122551
121095
119635
118173
116709
115242
113773
112302
110828
109353
107877
106399
104919
103439
101957
100475
98991.5
97508
96024.1
94540.2
93056.4
91572.8
90089.7
88607.3
87125.7
85645.3
84166.1
82688.4
81212.4
79738.4
78266.5
76797
75330.1
73866.1
72405.2
70947.6
69493.7
68043.6
66597.7
65156.2
63719.4
62287.6
60861.1
59440.2
58025.1
56616.3
55213.9
53818.5
52430.2
51049.4
49676.4
48311.7
46955.6
45608.5
44270.6
42942.6
41624.6
40317.2
39020.8
37735.8
36462.5
35201.5
33953
32717.3
31494.5
30284.5
29086.8
234998
234961
234892
234793
234661
234498
234303
234077
233819
233531
233214
232866
232490
232085
231653
231192
230703
230184
229631
229043
228415
227747
227039
226293
225515
224708
223876
223025
222162
221298
220455
219656
218927
218282
217725
217237
216780
216313
215792
215183
214461
213627
212699
211702
210659
209592
208520
207449
206377
205302
204221
203130
202025
200903
199765
198618
197467
196316
195162
194007
192848
191684
190515
189340
188158
186969
185773
184571
183361
182144
180920
179688
178450
177204
175951
174692
173425
172152
170871
169584
168291
166991
165685
164372
163053
161728
160397
159060
157717
156368
155014
153654
152289
150918
149542
148161
146776
145385
143989
142589
141184
139774
138360
136942
135520
134094
132664
131230
129792
128351
126907
125459
124008
122554
121097
119638
118175
116711
115244
113774
112303
110830
109354
107878
106399
104920
103439
101958
100475
98991.9
97508.4
96024.5
94540.5
93056.6
91573
90089.9
88607.5
87125.9
85645.4
84166.3
82688.6
81212.6
79738.5
78266.6
76797.1
75330.2
73866.2
72405.3
70947.7
69493.7
68043.7
66597.7
65156.2
63719.4
62287.6
60861.1
59440.2
58025.1
56616.2
55213.9
53818.3
52430
51049.1
49676.2
48311.4
46955.1
45607.9
44269.9
42941.6
41623.4
40315.6
39018.8
37733.2
36459.3
35197.4
33947.8
32710.7
31486.3
30274.3
29074.3
236313
236271
236194
236083
235938
235758
235545
235299
235019
234709
234368
233999
233602
233179
232730
232256
231752
231215
230640
230022
229353
228633
227862
227044
226186
225292
224368
223418
222453
221491
220558
219688
218913
218254
217711
217261
216857
216446
215981
215418
214728
213911
212987
211987
210938
209861
208775
207691
206609
205525
204433
203333
202219
201089
199945
198790
197630
196468
195306
194143
192976
191805
190629
189447
188259
187064
185863
184656
183441
182219
180991
179755
178512
177263
176006
174743
173474
172197
170914
169624
168328
167026
165717
164402
163081
161754
160422
159083
157738
156388
155032
153671
152305
150933
149556
148174
146787
145396
143999
142598
141192
139782
138368
136949
135526
134100
132669
131235
129797
128355
126910
125462
124011
122557
121100
119640
118177
116712
115245
113776
112304
110831
109355
107879
106400
104921
103440
101958
100476
98992.4
97508.8
96024.8
94540.8
93056.9
91573.3
90090.2
88607.7
87126.1
85645.6
84166.4
82688.7
81212.7
79738.7
78266.8
76797.2
75330.3
73866.3
72405.4
70947.8
69493.8
68043.7
66597.8
65156.3
63719.5
62287.7
60861.1
59440.2
58025.1
56616.2
55213.8
53818.2
52429.8
51048.9
49675.9
48311
46954.7
45607.2
44269.1
42940.6
41622.1
40314.1
39016.8
37730.7
36456.1
35193.3
33942.7
32704.4
31478.4
30264.6
29062.6
237794
237746
237660
237537
237376
237178
236945
236679
236380
236051
235695
235314
234911
234485
234038
233567
233064
232522
231932
231285
230573
229796
228954
228052
227098
226102
225070
224016
222954
221906
220900
219977
219163
218475
217915
217460
217058
216648
216184
215626
214944
214133
213216
212222
211178
210105
209018
207928
206839
205748
204648
203538
202416
201278
200126
198964
197796
196626
195455
194284
193109
191931
190748
189560
188365
187165
185958
184745
183525
182298
181065
179825
178578
177325
176065
174798
173525
172245
170959
169666
168367
167063
165751
164434
163111
161782
160448
159107
157761
156409
155052
153690
152322
150949
149571
148188
146800
145407
144010
142608
141201
139791
138375
136956
135533
134106
132674
131240
129801
128359
126914
125466
124014
122560
121102
119642
118180
116714
115247
113777
112306
110832
109357
107880
106401
104921
103441
101959
100476
98992.9
97509.2
96025.2
94541.2
93057.2
91573.6
90090.4
88607.9
87126.4
85645.9
84166.6
82688.9
81212.9
79738.8
78266.9
76797.4
75330.5
73866.4
72405.5
70947.9
69493.9
68043.8
66597.9
65156.4
63719.5
62287.7
60861.1
59440.2
58025.1
56616.1
55213.7
53818.1
52429.7
51048.7
49675.6
48310.6
46954.2
45606.6
44268.3
42939.6
41620.9
40312.5
39014.8
37728.2
36452.9
35189.4
33937.8
32698.2
31470.8
30255.4
29051.7
239520
239465
239367
239228
239050
238835
238587
238310
238008
237683
237338
236973
236589
236185
235756
235295
234795
234240
233621
232925
232144
231275
230322
229300
228222
227106
225972
224839
223722
222636
221603
220652
219807
219077
218460
217937
217468
216993
216469
215863
215154
214334
213419
212433
211400
210337
209257
208168
207075
205977
204871
203752
202621
201475
200315
199144
197968
196791
195613
194433
193251
192066
190876
189680
188479
187272
186059
184840
183615
182383
181145
179900
178649
177391
176127
174856
173579
172296
171007
169711
168410
167102
165788
164469
163143
161812
160475
159133
157785
156432
155073
153709
152340
150966
149586
148202
146813
145420
144021
142618
141211
139800
138384
136964
135540
134112
132680
131245
129806
128364
126918
125470
124018
122563
121105
119645
118182
116717
115249
113779
112307
110833
109358
107881
106402
104922
103441
101959
100477
98993.5
97509.7
96025.7
94541.6
93057.6
91573.9
90090.8
88608.3
87126.7
85646.2
84166.9
82689.2
81213.2
79739.1
78267.1
76797.6
75330.7
73866.6
72405.7
70948.1
69494.1
68044
66598
65156.5
63719.7
62287.8
60861.2
59440.2
58025.1
56616.2
55213.7
53818.1
52429.6
51048.6
49675.4
48310.4
46953.8
45606.1
44267.7
42938.7
41619.7
40311
39012.9
37725.8
36449.9
35185.6
33933.1
32692.5
31463.8
30246.9
29041.6
241443
241380
241270
241116
240925
240705
240465
240213
239952
239678
239385
239062
238702
238298
237844
237333
236757
236105
235369
234538
233618
232609
231532
230405
229250
228081
226914
225769
224658
223588
222569
221618
220751
219973
219277
218651
218065
217477
216850
216162
215397
214549
213626
212643
211619
210565
209491
208404
207309
206205
205091
203964
202825
201670
200501
199322
198139
196955
195771
194584
193395
192202
191005
189802
188595
187381
186162
184937
183706
182469
181226
179976
178720
177458
176190
174916
173635
172348
171056
169757
168452
167142
165826
164504
163176
161843
160504
159160
157810
156455
155094
153729
152358
150983
149602
148217
146827
145432
144033
142629
141221
139809
138392
136971
135547
134118
132686
131250
129811
128368
126922
125473
124021
122566
121108
119647
118184
116719
115251
113781
112309
110835
109359
107882
106403
104923
103442
101960
100477
98993.9
97510.1
96026
94541.9
93057.9
91574.2
90091
88608.5
87126.8
85646.3
84167.1
82689.3
81213.3
79739.2
78267.2
76797.6
75330.7
73866.6
72405.7
70948
69494.1
68043.9
66598
65156.4
63719.6
62287.7
60861.1
59440.1
58025
56616
55213.5
53817.9
52429.4
51048.3
49675
48309.9
46953.3
45605.5
44266.8
42937.7
41618.5
40309.4
39011
37723.4
36446.9
35181.9
33928.5
32686.8
31457
30238.8
29032.2
243389
243320
243202
243045
242863
242673
242488
242308
242126
241917
241655
241314
240883
240359
239747
239055
238289
237455
236551
235583
234552
233466
232340
231191
230034
228880
227736
226621
225543
224506
223511
222567
221683
220861
220094
219375
218683
217986
217261
216492
215670
214787
213847
212859
211835
210785
209713
208626
207527
206416
205294
204160
203012
201848
200670
199485
198297
197107
195917
194724
193529
192329
191126
189917
188703
187484
186259
185029
183793
182550
181302
180048
178788
177522
176250
174972
173688
172398
171102
169801
168493
167180
165861
164537
163207
161872
160531
159185
157833
156477
155115
153748
152376
150999
149618
148231
146840
145444
144044
142639
141231
139817
138400
136979
135554
134125
132692
131256
129816
128373
126926
125477
124024
122569
121111
119650
118186
116721
115252
113782
112310
110836
109360
107883
106404
104924
103443
101961
100478
98994.3
97510.5
96026.4
94542.2
93058.1
91574.4
90091.2
88608.7
87127
85646.5
84167.2
82689.4
81213.4
79739.2
78267.3
76797.7
75330.7
73866.7
72405.7
70948.1
69494
68043.9
66597.9
65156.4
63719.5
62287.7
60861.1
59440
58024.9
56615.9
55213.4
53817.7
52429.1
51048
49674.7
48309.5
46952.8
45604.8
44266
42936.7
41617.3
40308
39009.1
37721.1
36444.1
35178.4
33924.2
32681.6
31450.7
30231.4
29023.5
245348
245277
245161
245025
244890
244769
244663
244547
244380
244119
243733
243209
242560
241811
240986
240102
239171
238203
237202
236171
235109
234022
232913
231794
230676
229563
228465
227389
226345
225331
224350
223405
222502
221641
220818
220026
219249
218467
217665
216830
215957
215039
214079
213080
212051
210997
209924
208834
207729
206611
205482
204340
203183
202009
200824
199634
198441
197248
196052
194854
193653
192448
191238
190024
188804
187580
186350
185114
183873
182627
181374
180116
178852
177582
176306
175025
173738
172445
171146
169842
168532
167216
165895
164569
163237
161900
160557
159209
157856
156498
155134
153766
152393
151015
149632
148245
146853
145456
144055
142649
141240
139826
138408
136986
135560
134131
132698
131261
129821
128377
126930
125480
124027
122572
121113
119652
118188
116722
115254
113784
112311
110837
109361
107884
106405
104925
103443
101961
100478
98994.8
97510.9
96026.7
94542.5
93058.4
91574.7
90091.4
88608.9
87127.2
85646.6
84167.3
82689.6
81213.5
79739.3
78267.4
76797.8
75330.8
73866.7
72405.7
70948.1
69494
68043.9
66597.9
65156.4
63719.5
62287.6
60861
59439.9
58024.8
56615.8
55213.2
53817.5
52428.9
51047.8
49674.4
48309.1
46952.3
45604.3
44265.3
42935.9
41616.2
40306.6
39007.4
37719
36441.5
35175.2
33920.3
32676.9
31445
30224.7
29015.8
247316
247249
247153
247064
247001
246932
246825
246623
246282
245784
245143
244383
243531
242613
241654
240672
239671
238659
237636
236601
235551
234488
233414
232337
231261
230191
229130
228086
227064
226061
225081
224128
223203
222308
221439
220591
219750
218904
218042
217156
216241
215293
214311
213299
212262
211203
210125
209028
207917
206791
205654
204502
203335
202154
200964
199771
198575
197377
196177
194974
193768
192557
191342
190123
188898
187669
186434
185194
183949
182698
181441
180179
178911
177638
176359
175074
173784
172489
171187
169880
168568
167250
165927
164599
163265
161926
160581
159232
157877
156518
155153
153783
152409
151030
149646
148257
146864
145467
144065
142659
141248
139834
138415
136993
135567
134136
132703
131266
129825
128381