/*--------------------------------*- C++ -*----------------------------------*\
  =========                 |
  \\      /  F ield         | OpenFOAM: The Open Source CFD Toolbox
   \\    /   O peration     | Website:  https://openfoam.org
    \\  /    A nd           | Version:  9
     \\/     M anipulation  |
\*---------------------------------------------------------------------------*/
FoamFile
{
    format      ascii;
    class       volScalarField;
    location    "0.011";
    object      s;
}
// * * * * * * * * * * * * * * * * * * * * * * * * * * * * * * * * * * * * * //

dimensions      [0 0 0 0 0 0 0];

internalField   nonuniform List<scalar> 
12225
(
1
1
1
1
1
1
1
1
1
1
1
1
1
1
1
1
1
0.999962
1
1
1
1
1
1
1
1
1
1
1
1
1
1
1
1
1
0.999999
1
1
1
1
1
1
1
1
1
1
1
1
1
1
1
1
1
1
1
1
1
1
1
1
1
1
1
1
1
1
1
1
1
1
1
1
1
1
1
1
1
1
1
1
1
1
1
1
1
1
1
1
1
1
1
1
1
1
1
1
1
1
1
1
1
1
1
1
1
1
1
1
1
1
1
1
1
1
1
1
1
1
1
1
1
1
1
1
1
1
1
1
1
1
1
1
1
1
1
1
1
1
1
1
1
1
1
1
1
1
1
1
1
1
1
1
1
1
1
1
1
1
1
1
1
1
1
1
1
1
1
1
1
1
1
1
1
1
1
1
1
1
1
1
1
1
1
1
1
1
1
1
1
1
1
1
1
1
1
1
1
1
1
1
1
1
1
1
1
1
1
1
1
1
1
1
1
1
1
1
1
1
1
1
1
1
1
1
1
1
1
1
1
1
1
1
1
1
1
1
1
1
1
1
1
1
1
1
1
1
1
1
1
1
1
1
1
1
1
1
1
1
1
1
1
1
1
1
1
1
1
1
1
1
1
1
1
1
1
1
1
1
1
1
1
1
1
1
1
1
1
1
1
1
1
1
1
1
1
1
1
1
1
1
1
1
1
1
1
1
1
1
1
1
1
1
1
1
1
1
1
1
1
1
1
1
1
1
1
1
1
1
1
1
1
1
1
1
1
1
1
1
1
1
1
1
1
1
1
1
1
1
1
1
1
1
1
1
1
1
1
1
1
1
1
1
1
1
1
1
1
1
1
1
1
1
1
1
1
1
1
1
1
1
1
1
1
1
1
1
1
1
1
1
1
1
1
1
1
1
1
1
1
1
1
1
1
1
1
1
1
1
1
1
1
1
1
1
1
1
1
1
1
1
1
1
1
1
1
1
1
1
1
1
1
1
1
1
1
1
1
1
1
1
1
1
1
1
1
1
1
1
1
1
1
1
1
1
1
1
1
1
1
1
1
1
1
1
1
1
1
1
1
1
1
1
1
1
1
1
1
1
1
1
1
1
1
1
1
1
1
1
1
1
1
1
1
1
1
1
1
1
1
1
1
1
1
1
1
1
1
1
1
1
1
1
1
1
1
1
1
1
1
1
1
1
1
1
1
1
1
1
1
1
1
1
1
1
1
1
1
1
1
1
5.80592e-18
1.11924e-16
1.21466e-15
7.8105e-15
5.91038e-14
4.03019e-13
2.3858e-12
1.27393e-11
6.23692e-11
2.83412e-10
1.19152e-09
4.59418e-09
1.61312e-08
5.14426e-08
1.49227e-07
3.95242e-07
9.60019e-07
2.14746e-06
4.44122e-06
8.52718e-06
1.5276e-05
2.56956e-05
4.08836e-05
6.20159e-05
9.03916e-05
0.000127524
0.000175238
0.000235738
0.000311626
0.000405811
0.000521376
0.000661592
0.000829919
0.00102906
0.00125981
0.00152371
0.00182783
0.00217722
0.00255749
0.0029495
0.00338564
0.00370655
0.00390525
0.00401713
0.00404784
0.00387784
0.00369458
0.0034101
0.00303582
0.00266731
0.00226409
0.00186733
0.00147756
0.00114582
0.000848913
0.000606273
0.000418056
0.000276274
0.000175307
0.000106775
6.25164e-05
3.50801e-05
1.89237e-05
9.81603e-06
4.89044e-06
2.34411e-06
1.08216e-06
4.81522e-07
2.06699e-07
8.56696e-08
3.43112e-08
1.32898e-08
4.98228e-09
1.80936e-09
6.37023e-10
2.17603e-10
7.21752e-11
2.32621e-11
7.29049e-12
2.22338e-12
6.60242e-13
1.91029e-13
5.38847e-14
1.48268e-14
3.98186e-15
1.04425e-15
2.67563e-16
6.70128e-17
1.64134e-17
3.93321e-18
9.22548e-19
2.11888e-19
4.76736e-20
1.05118e-20
2.27234e-21
4.81761e-22
1.00211e-22
2.04591e-23
4.10107e-24
8.07419e-25
1.56185e-25
2.96936e-26
5.55015e-27
1.02024e-27
1.84491e-28
3.28286e-29
5.74965e-30
9.91407e-31
1.68335e-31
2.81512e-32
4.63751e-33
7.55895e-34
1.21822e-34
1.93994e-35
3.05075e-36
4.73566e-37
7.25453e-38
1.09655e-38
1.63525e-39
2.40558e-40
3.49054e-41
4.99535e-42
7.05029e-43
9.81265e-44
1.34673e-44
1.8225e-45
2.43183e-46
3.19941e-47
4.1503e-48
5.30844e-49
6.69491e-50
8.32578e-51
1.02099e-51
1.23464e-52
1.4723e-53
1.73139e-54
2.00787e-55
2.29631e-56
2.58986e-57
2.88058e-58
3.15968e-59
3.41798e-60
3.64639e-61
3.83644e-62
3.9808e-63
4.07375e-64
4.11155e-65
4.09272e-66
4.01811e-67
3.89082e-68
3.71603e-69
3.50062e-70
3.25272e-71
2.98122e-72
2.69523e-73
2.4036e-74
2.11446e-75
1.83492e-76
1.57081e-77
1.32655e-78
1.10516e-79
9.08301e-81
7.36442e-82
5.89046e-83
4.64788e-84
3.6178e-85
2.77779e-86
2.10371e-87
1.57133e-88
1.15738e-89
8.40511e-91
6.01607e-92
4.2432e-93
2.9465e-94
2.01399e-95
1.35199e-96
8.91304e-98
5.73285e-99
3.59636e-100
2.05887e-101
6.01228e-16
1.62781e-14
2.45118e-13
2.50264e-12
1.91473e-11
1.16382e-10
5.85143e-10
2.50608e-09
9.35486e-09
3.10095e-08
9.2728e-08
2.53526e-07
6.40978e-07
1.5125e-06
3.3552e-06
7.03455e-06
1.39948e-05
2.65031e-05
4.79257e-05
8.30399e-05
0.000138413
0.000222898
0.000348393
0.000530927
0.000792076
0.00116063
0.00167437
0.00238172
0.00334249
0.00462682
0.00631242
0.00848047
0.0112063
0.014536
0.0184565
0.0229047
0.0278337
0.0332063
0.038799
0.0441599
0.0488952
0.0526919
0.0548416
0.0559574
0.056301
0.0541959
0.051893
0.0485803
0.044051
0.0395934
0.0345452
0.0294447
0.0242733
0.0194888
0.0150889
0.0112787
0.00815038
0.0056725
0.00378948
0.00243239
0.00150061
0.000888223
0.000504648
0.000275417
0.000144222
7.25666e-05
3.51148e-05
1.63548e-05
7.33837e-06
3.17517e-06
1.32599e-06
5.34947e-07
2.08685e-07
7.87938e-08
2.88218e-08
1.02231e-08
3.51945e-09
1.17701e-09
3.82709e-10
1.21088e-10
3.7309e-11
1.1203e-11
3.28071e-12
9.37586e-13
2.6166e-13
7.13522e-14
1.90225e-14
4.96073e-15
1.26608e-15
3.16382e-16
7.74445e-17
1.8577e-17
4.36848e-18
1.00742e-18
2.2791e-19
5.05966e-20
1.10258e-20
2.35909e-21
4.95721e-22
1.02326e-22
2.07534e-23
4.13648e-24
8.1039e-25
1.56082e-25
2.95584e-26
5.50478e-27
1.00831e-27
1.81676e-28
3.22036e-29
5.61649e-30
9.63893e-31
1.6279e-31
2.70586e-32
4.42693e-33
7.12954e-34
1.13034e-34
1.76589e-35
2.71944e-36
4.1279e-37
6.17593e-38
9.10735e-39
1.32372e-39
1.89631e-40
2.67752e-41
3.72625e-42
5.11131e-43
6.91071e-44
9.20987e-45
1.20986e-45
1.56669e-46
1.99989e-47
2.51659e-48
3.12188e-49
3.81788e-50
4.60298e-51
5.47109e-52
6.41112e-53
7.40671e-54
8.43633e-55
9.47385e-56
1.04894e-56
1.14508e-57
1.2325e-58
1.30803e-59
1.36878e-60
1.41236e-61
1.43703e-62
1.44181e-63
1.42652e-64
1.39185e-65
1.33926e-66
1.27087e-67
1.18938e-68
1.09782e-69
9.99418e-71
8.97389e-72
7.94775e-73
6.94303e-74
5.9828e-75
5.08536e-76
4.26392e-77
3.52674e-78
2.87752e-79
2.31605e-80
1.83891e-81
1.44029e-82
1.11277e-83
8.48017e-85
6.37409e-86
4.72506e-87
3.45377e-88
2.48895e-89
1.76764e-90
1.23692e-91
8.51946e-93
5.77477e-94
3.84095e-95
2.50683e-96
1.59016e-97
9.82638e-99
1.20485e-14
3.01291e-13
4.06346e-12
3.67827e-11
2.50061e-10
1.35972e-09
6.16686e-09
2.40412e-08
8.24398e-08
2.53315e-07
7.08457e-07
1.82734e-06
4.39429e-06
9.93734e-06
2.12721e-05
4.33126e-05
8.41953e-05
0.00015675
0.00028038
0.000483537
0.000807096
0.00130918
0.00207202
0.00321119
0.00488729
0.00731967
0.0108019
0.0157166
0.02254
0.0318246
0.0441463
0.0600169
0.0797534
0.103291
0.13006
0.159187
0.189893
0.221779
0.253937
0.283445
0.306183
0.322857
0.332178
0.336396
0.336406
0.325956
0.313476
0.296505
0.273088
0.249626
0.223052
0.197705
0.170838
0.143657
0.116847
0.0918109
0.0697335
0.0513591
0.0364633
0.0248123
0.0162151
0.0101841
0.00612822
0.00353445
0.00195378
0.00103534
0.000526432
0.000257036
0.000120628
5.44682e-05
2.36869e-05
9.93079e-06
4.01806e-06
1.57058e-06
5.93699e-07
2.17263e-07
7.70478e-08
2.65043e-08
8.85252e-09
2.8735e-09
9.07251e-10
2.78854e-10
8.35028e-11
2.43794e-11
6.94467e-12
1.93139e-12
5.24748e-13
1.39362e-13
3.61981e-14
9.20024e-15
2.28923e-15
5.57889e-16
1.33216e-16
3.11802e-17
7.15608e-18
1.61097e-18
3.55838e-19
7.71425e-20
1.64183e-20
3.43136e-21
7.04381e-22
1.42051e-22
2.81493e-23
5.48224e-24
1.04952e-24
1.97531e-25
3.65561e-26
6.65313e-27
1.19095e-27
2.09707e-28
3.63278e-29
6.19183e-30
1.03847e-30
1.71399e-31
2.7842e-32
4.45156e-33
7.00606e-34
1.08546e-34
1.65616e-35
2.4907e-36
3.69194e-37
5.39373e-38
7.76638e-39
1.10215e-39
1.54155e-40
2.12506e-41
2.88725e-42
3.86636e-43
5.10307e-44
6.6386e-45
8.5122e-46
1.0758e-46
1.34016e-47
1.64558e-48
1.99171e-49
2.37623e-50
2.79458e-51
3.23981e-52
3.70264e-53
4.1716e-54
4.63345e-55
5.07377e-56
5.47765e-57
5.83052e-58
6.11904e-59
6.33194e-60
6.46072e-61
6.50024e-62
6.44906e-63
6.30953e-64
6.08759e-65
5.79235e-66
5.43552e-67
5.03057e-68
4.59195e-69
4.13423e-70
3.67133e-71
3.21585e-72
2.77858e-73
2.36819e-74
1.99106e-75
1.65134e-76
1.35107e-77
1.09047e-78
8.68236e-80
6.81949e-81
5.28373e-82
4.03824e-83
3.04415e-84
2.26329e-85
1.65929e-86
1.19944e-87
8.54471e-89
5.99881e-90
4.1452e-91
2.81993e-92
1.88248e-93
1.23464e-94
7.88695e-96
4.93979e-97
4.34742e-14
1.09402e-12
1.48297e-11
1.34828e-10
9.20065e-10
5.01815e-09
2.28163e-08
8.90882e-08
3.05918e-07
9.41805e-07
2.64134e-06
6.83843e-06
1.65219e-05
3.7568e-05
8.0907e-05
0.000165801
0.000324475
0.00060832
0.0010961
0.00190502
0.00320631
0.00524717
0.00838103
0.0131073
0.0201233
0.0303935
0.0452379
0.0664257
0.0962346
0.137458
0.1935
0.268517
0.367163
0.470787
0.546744
0.621334
0.686245
0.728922
0.762998
0.788065
0.801348
0.813866
0.821547
0.826047
0.828137
0.825362
0.819014
0.808535
0.791054
0.767572
0.734559
0.691019
0.637144
0.573863
0.501312
0.421676
0.339264
0.262257
0.201004
0.147283
0.102827
0.069033
0.0445487
0.027402
0.0161317
0.00907976
0.00488818
0.00251978
0.00124485
0.00059007
0.000268673
0.000117647
4.96003e-05
2.01579e-05
7.90629e-06
2.99625e-06
1.09839e-06
3.89931e-07
1.34196e-07
4.48187e-08
1.45401e-08
4.58634e-09
1.40779e-09
4.20859e-10
1.22632e-10
3.4854e-11
9.66895e-12
2.61974e-12
6.93661e-13
1.79591e-13
4.5488e-14
1.12769e-14
2.73749e-15
6.5098e-16
1.51706e-16
3.46585e-17
7.76484e-18
1.7065e-18
3.68003e-19
7.78909e-20
1.61852e-20
3.30253e-21
6.6186e-22
1.30305e-22
2.52069e-23
4.79194e-24
8.9539e-25
1.64471e-25
2.97033e-26
5.27499e-27
9.21286e-28
1.58262e-28
2.67436e-29
4.446e-30
7.27236e-31
1.17053e-31
1.85409e-32
2.89044e-33
4.43514e-34
6.69975e-35
9.97366e-36
1.46314e-36
2.11519e-37
3.01331e-38
4.23033e-39
5.85256e-40
7.97932e-41
1.07212e-41
1.41965e-42
1.85265e-43
2.38276e-44
3.02031e-45
3.77322e-46
4.6459e-47
5.63814e-48
6.74404e-49
7.95126e-50
9.24051e-51
1.05856e-51
1.19538e-52
1.33071e-53
1.46037e-54
1.58e-55
1.68532e-56
1.77238e-57
1.83776e-58
1.87888e-59
1.89409e-60
1.88282e-61
1.84561e-62
1.78405e-63
1.7007e-64
1.59888e-65
1.48247e-66
1.35567e-67
1.22274e-68
1.08777e-69
9.54507e-71
8.26172e-72
7.0538e-73
5.94082e-74
4.93571e-75
4.04517e-76
3.27049e-77
2.60841e-78
2.05222e-79
1.59273e-80
1.21932e-81
9.20679e-83
6.85639e-84
5.0348e-85
3.64536e-86
2.60106e-87
1.82893e-88
1.26584e-89
8.62451e-91
5.76889e-92
3.79083e-93
2.43247e-94
1.53052e-95
9.60001e-14
2.47357e-12
3.42845e-11
3.18049e-10
2.21004e-09
1.22879e-08
5.70878e-08
2.27951e-07
8.00519e-07
2.5202e-06
7.21733e-06
1.90509e-05
4.68481e-05
0.000108228
0.000236367
0.000490301
0.000969486
0.00183348
0.00332871
0.00582739
0.0098882
0.0163528
0.0264951
0.0422474
0.066537
0.103792
0.160686
0.247141
0.376586
0.513344
0.625553
0.739777
0.79475
0.836845
0.870479
0.886914
0.900755
0.907197
0.911604
0.91371
0.915994
0.92007
0.926164
0.93019
0.937786
0.943095
0.947894
0.953098
0.956988
0.959115
0.958609
0.955324
0.948203
0.935688
0.915298
0.883909
0.836612
0.765671
0.663871
0.545574
0.41887
0.300024
0.210871
0.140416
0.0887634
0.0536887
0.0308742
0.0169413
0.00887315
0.00444308
0.00212993
0.000978893
0.000431912
0.000183209
7.4814e-05
2.94504e-05
1.11904e-05
4.10958e-06
1.46043e-06
5.02807e-07
1.67897e-07
5.44324e-08
1.71505e-08
5.25654e-09
1.56857e-09
4.56083e-10
1.29313e-10
3.57776e-11
9.66561e-12
2.55131e-12
6.58347e-13
1.66163e-13
4.104e-14
9.92367e-15
2.35022e-15
5.45356e-16
1.24035e-16
2.76594e-17
6.04936e-18
1.29798e-18
2.73294e-19
5.64816e-20
1.14603e-20
2.28345e-21
4.46871e-22
8.59109e-23
1.62281e-23
3.0124e-24
5.49607e-25
9.85714e-26
1.73808e-26
3.01348e-27
5.13809e-28
8.61633e-29
1.42128e-29
2.30635e-30
3.68217e-31
5.7844e-32
8.94196e-33
1.36038e-33
2.03791e-34
3.00791e-35
4.37418e-36
6.2674e-37
8.84793e-38
1.23074e-38
1.68684e-39
2.27808e-40
3.03157e-41
3.97536e-42
5.13697e-43
6.54141e-44
8.2088e-45
1.01518e-45
1.2373e-46
1.48623e-47
1.75952e-48
2.0531e-49
2.3613e-50
2.67691e-51
2.99139e-52
3.29522e-53
3.57837e-54
3.83082e-55
4.04315e-56
4.20712e-57
4.31624e-58
4.36613e-59
4.35486e-60
4.28307e-61
4.15389e-62
3.97275e-63
3.74695e-64
3.48522e-65
3.19717e-66
2.89266e-67
2.58131e-68
2.272e-69
1.97248e-70
1.68914e-71
1.42685e-72
1.18893e-73
9.77261e-75
7.92395e-76
6.33796e-77
5.00071e-78
3.89201e-79
2.9879e-80
2.26238e-81
1.68948e-82
1.24405e-83
9.03198e-85
6.4624e-86
4.55645e-87
3.16269e-88
2.16098e-89
1.45046e-90
9.56561e-92
6.17421e-93
3.91179e-94
1.48928e-13
3.9705e-12
5.82043e-11
5.76682e-10
4.29003e-09
2.51488e-08
1.2086e-07
4.96078e-07
1.78443e-06
5.73319e-06
1.67278e-05
4.49092e-05
0.000112087
0.000262002
0.000577176
0.00121403
0.00242952
0.00464541
0.00852588
0.0151077
0.0260297
0.0439519
0.0733238
0.12179
0.20256
0.337762
0.501078
0.637092
0.746142
0.807419
0.854899
0.874905
0.883
0.88542
0.885065
0.877382
0.869385
0.855999
0.841178
0.831772
0.827782
0.8284
0.845075
0.857741
0.879418
0.900927
0.921502
0.941035
0.955983
0.967521
0.974533
0.980079
0.983857
0.986174
0.987341
0.986372
0.981995
0.972988
0.9563
0.927114
0.876752
0.790862
0.654792
0.494911
0.338975
0.223554
0.139167
0.0821607
0.0460676
0.0245717
0.0124917
0.00606395
0.00281575
0.00125277
0.000534937
0.000219576
8.67747e-05
3.30657e-05
1.21663e-05
4.32832e-06
1.4908e-06
4.97709e-07
1.61242e-07
5.07441e-08
1.55282e-08
4.62468e-09
1.34164e-09
3.79425e-10
1.04681e-10
2.81938e-11
7.41749e-12
1.90733e-12
4.79618e-13
1.17998e-13
2.84163e-14
6.70116e-15
1.54808e-15
3.50472e-16
7.7781e-17
1.69273e-17
3.61346e-18
7.56818e-19
1.55561e-19
3.13874e-20
6.21794e-21
1.20966e-21
2.31146e-22
4.33907e-23
8.00326e-24
1.45066e-24
2.58442e-25
4.52603e-26
7.79274e-27
1.31928e-27
2.19642e-28
3.59646e-29
5.79251e-30
9.1778e-31
1.43067e-31
2.19435e-32
3.31238e-33
4.9252e-34
7.21372e-35
1.04078e-35
1.47922e-36
2.07107e-37
2.85669e-38
3.88196e-39
5.19726e-40
6.85562e-41
8.91007e-42
1.14101e-42
1.43976e-43
1.79017e-44
2.19339e-45
2.64833e-46
3.15123e-47
3.69537e-48
4.27092e-49
4.86506e-50
5.46232e-51
6.04512e-52
6.59462e-53
7.09169e-54
7.51799e-55
7.85713e-56
8.09569e-57
8.22411e-58
8.23733e-59
8.13512e-60
7.92206e-61
7.60722e-62
7.20352e-63
6.72682e-64
6.19496e-65
5.62658e-66
5.04017e-67
4.453e-68
3.88044e-69
3.33536e-70
2.82779e-71
2.36487e-72
1.95085e-73
1.58748e-74
1.27426e-75
1.00895e-76
7.88004e-78
6.07056e-79
4.61246e-80
3.45632e-81
2.55385e-82
1.86051e-83
1.33585e-84
9.45156e-86
6.58472e-87
4.51596e-88
3.0445e-89
2.01727e-90
1.31083e-91
8.36984e-93
2.36313e-13
6.45943e-12
9.6055e-11
9.39618e-10
6.76282e-09
4.01858e-08
2.01828e-07
8.64652e-07
3.23129e-06
1.0738e-05
3.22522e-05
8.88126e-05
0.000227129
0.000547114
0.0012715
0.00281073
0.00561418
0.0105478
0.0192803
0.0348773
0.0619567
0.108962
0.191701
0.339666
0.515287
0.650204
0.756053
0.813819
0.845243
0.857469
0.861416
0.860232
0.837317
0.796116
0.73575
0.65083
0.58664
0.54356
0.507939
0.492294
0.486455
0.488876
0.51345
0.540301
0.590286
0.64624
0.715756
0.788502
0.848982
0.899312
0.93345
0.956491
0.971234
0.983909
0.989295
0.993131
0.994922
0.995811
0.995609
0.993451
0.988065
0.976707
0.953578
0.906818
0.813663
0.650557
0.457618
0.292214
0.178305
0.102354
0.0556951
0.028784
0.0141624
0.00664845
0.00298395
0.00128295
0.000529407
0.000210047
8.02646e-05
2.95874e-05
1.05369e-05
3.63031e-06
1.21162e-06
3.92196e-07
1.23265e-07
3.76556e-08
1.11914e-08
3.23887e-09
9.135e-10
2.51281e-10
6.74606e-11
1.76872e-11
4.53148e-12
1.1351e-12
2.78137e-13
6.66979e-14
1.56597e-14
3.60114e-15
8.11413e-16
1.79199e-16
3.88022e-17
8.24003e-18
1.71661e-18
3.50908e-19
7.04036e-20
1.38667e-20
2.68174e-21
5.09343e-22
9.50239e-23
1.74164e-23
3.13661e-24
5.55143e-25
9.6573e-26
1.65148e-26
2.77663e-27
4.59034e-28
7.46289e-29
1.19332e-29
1.87692e-30
2.90413e-31
4.42101e-32
6.62714e-33
9.78351e-34
1.42244e-34
2.03685e-35
2.87268e-36
3.9906e-37
5.46048e-38
7.36012e-39
9.77278e-40
1.27835e-40
1.64738e-41
2.09155e-42
2.61634e-43
3.22467e-44
3.91618e-45
4.68645e-46
5.5265e-47
6.42242e-48
7.35547e-49
8.30241e-50
9.23633e-51
1.01278e-51
1.09465e-52
1.16625e-53
1.22486e-54
1.26818e-55
1.29447e-56
1.30268e-57
1.29251e-58
1.26446e-59
1.21973e-60
1.1602e-61
1.08824e-62
1.0066e-63
9.18221e-65
8.26059e-66
7.32932e-67
6.41386e-68
5.53593e-69
4.7129e-70
3.95753e-71
3.27797e-72
2.67816e-73
2.15834e-74
1.71575e-75
1.34533e-76
1.04048e-77
7.93665e-79
5.97054e-80
4.4289e-81
3.23916e-82
2.33503e-83
1.65876e-84
1.16053e-85
7.9941e-87
5.41633e-88
3.60849e-89
2.36136e-90
1.51993e-91
2.72778e-13
7.60385e-12
1.20916e-10
1.34877e-09
1.18516e-08
7.95888e-08
4.24907e-07
1.89047e-06
7.23616e-06
2.42188e-05
7.19287e-05
0.000194311
0.000486503
0.00112794
0.00239586
0.00494428
0.010247
0.0204701
0.0402896
0.0745183
0.136961
0.258999
0.45121
0.601955
0.719544
0.789318
0.822769
0.836047
0.840429
0.835753
0.798746
0.723921
0.590041
0.497333
0.421418
0.3829
0.361722
0.350425
0.346058
0.345153
0.346283
0.349478
0.352406
0.35715
0.364516
0.379713
0.409297
0.465326
0.565312
0.685274
0.80452
0.872141
0.912641
0.951805
0.971075
0.985354
0.992428
0.995987
0.997635
0.998383
0.998665
0.998179
0.996332
0.991527
0.979846
0.952029
0.885953
0.736367
0.520815
0.32425
0.191598
0.106481
0.0559929
0.027939
0.0132634
0.00600558
0.00259975
0.00107833
0.000429445
0.000164528
6.07458e-05
2.16498e-05
7.45947e-06
2.48822e-06
8.04549e-07
2.52474e-07
7.69761e-08
2.28247e-08
6.5882e-09
1.85272e-09
5.08012e-10
1.35916e-10
3.5505e-11
9.0613e-12
2.26057e-12
5.5156e-13
1.31681e-13
3.07747e-14
7.04339e-15
1.57924e-15
3.47007e-16
7.4747e-17
1.57885e-17
3.27113e-18
6.6493e-19
1.32642e-19
2.5972e-20
4.9928e-21
9.42499e-22
1.74742e-22
3.18251e-23
5.6947e-24
1.00131e-24
1.73033e-25
2.9391e-26
4.90776e-27
8.05741e-28
1.30078e-28
2.0652e-29
3.22493e-30
4.9537e-31
7.49015e-32
1.1151e-32
1.63461e-33
2.35944e-34
3.35367e-35
4.69429e-36
6.47116e-37
8.78576e-38
1.17485e-38
1.54745e-39
2.0077e-40
2.56596e-41
3.23068e-42
4.00727e-43
4.89707e-44
5.89629e-45
6.99514e-46
8.17734e-47
9.41991e-48
1.06935e-48
1.19635e-49
1.3191e-50
1.43352e-51
1.53551e-52
1.62124e-53
1.68735e-54
1.73122e-55
1.75107e-56
1.74614e-57
1.71672e-58
1.66412e-59
1.59056e-60
1.49906e-61
1.39317e-62
1.2768e-63
1.15398e-64
1.02858e-65
9.042e-67
7.83948e-68
6.70377e-69
5.65422e-70
4.70387e-71
3.85988e-72
3.12415e-73
2.49419e-74
1.96408e-75
1.52549e-76
1.16857e-77
8.8282e-79
6.57665e-80
4.83058e-81
3.49745e-82
2.49555e-83
1.75412e-84
1.21418e-85
8.27123e-87
5.54346e-88
3.65367e-89
2.37106e-90
4.24616e-13
1.15675e-11
1.80469e-10
1.84413e-09
1.43018e-08
9.4688e-08
5.16628e-07
2.36364e-06
9.41986e-06
3.41912e-05
0.000111695
0.000323625
0.000839076
0.00200467
0.00461624
0.0103295
0.0218566
0.0416416
0.0753618
0.147499
0.297555
0.489694
0.645668
0.739399
0.791936
0.814818
0.822443
0.824181
0.799582
0.730864
0.577
0.457592
0.393359
0.357614
0.340642
0.334145
0.332412
0.332503
0.336556
0.340155
0.346169
0.350956
0.355724
0.357888
0.352742
0.347309
0.346109
0.356722
0.374898
0.425746
0.534623
0.70359
0.814057
0.884632
0.934187
0.96431
0.981221
0.990571
0.995437
0.997862
0.998954
0.999387
0.999535
0.999385
0.998563
0.995995
0.988581
0.967741
0.909693
0.753185
0.512894
0.30925
0.175692
0.094038
0.0475845
0.0228385
0.0104287
0.00454329
0.00189327
0.000756461
0.000290422
0.00010735
3.82719e-05
1.31819e-05
4.39287e-06
1.41835e-06
4.4425e-07
1.35138e-07
3.99656e-08
1.1502e-08
3.22419e-09
8.81003e-10
2.34836e-10
6.1105e-11
1.55304e-11
3.85773e-12
9.37024e-13
2.22663e-13
5.17865e-14
1.17933e-14
2.63066e-15
5.7499e-16
1.23186e-16
2.58759e-17
5.33072e-18
1.07732e-18
2.13639e-19
4.15805e-20
7.94446e-21
1.49037e-21
2.74573e-22
4.96864e-23
8.83291e-24
1.54287e-24
2.64837e-25
4.46804e-26
7.40976e-27
1.20809e-27
1.93669e-28
3.05307e-29
4.73351e-30
7.22219e-31
1.0847e-31
1.60372e-32
2.33426e-33
3.34501e-34
4.71952e-35
6.55661e-36
8.96951e-37
1.20835e-37
1.60314e-38
2.09477e-39
2.69592e-40
3.41751e-41
4.26742e-42
5.24929e-43
6.36118e-44
7.59453e-45
8.93335e-46
1.03538e-46
1.18246e-47
1.33073e-48
1.47583e-49
1.61306e-50
1.73761e-51
1.84486e-52
1.93066e-53
1.99161e-54
2.02523e-55
2.03021e-56
2.00643e-57
1.95499e-58
1.8781e-59
1.77897e-60
1.66155e-61
1.53028e-62
1.38982e-63
1.24479e-64
1.09949e-65
9.57788e-67
8.22882e-68
6.97284e-69
5.82769e-70
4.80402e-71
3.90607e-72
3.13258e-73
2.47793e-74
1.93326e-75
1.48761e-76
1.1289e-77
8.44796e-79
6.2334e-80
4.53412e-81
3.25064e-82
2.29623e-83
1.59774e-84
1.09465e-85
7.3827e-87
4.90117e-88
3.20675e-89
4.43191e-13
1.25748e-11
2.14498e-10
2.51307e-09
2.1625e-08
1.43224e-07
7.64797e-07
3.41159e-06
1.27554e-05
4.18638e-05
0.00013114
0.000381017
0.00101621
0.00252822
0.00603615
0.0138914
0.030138
0.063389
0.136328
0.278008
0.466392
0.649036
0.739962
0.786289
0.806043
0.811901
0.809922
0.776577
0.673926
0.511214
0.415146
0.36376
0.340773
0.330805
0.326195
0.324098
0.324045
0.327222
0.330483
0.332679
0.346306
0.358711
0.377801
0.396897
0.409264
0.418209
0.395338
0.369298
0.356849
0.363488
0.387692
0.455533
0.653695
0.774965
0.877384
0.936902
0.9687
0.984454
0.992285
0.996231
0.99818
0.99918
0.999623
0.999795
0.999832
0.99972
0.999175
0.997207
0.990535
0.968693
0.898495
0.69645
0.439382
0.255278
0.138999
0.0712679
0.0345489
0.0158937
0.00696155
0.00291186
0.00116623
0.000448322
0.000165781
5.90829e-05
2.033e-05
6.76477e-06
2.17989e-06
6.81161e-07
2.06641e-07
6.09267e-08
1.74764e-08
4.88137e-09
1.32873e-09
3.52748e-10
9.13958e-11
2.31258e-11
5.71783e-12
1.38216e-12
3.26809e-13
7.56193e-14
1.713e-14
3.80042e-15
8.26063e-16
1.75973e-16
3.67502e-17
7.52628e-18
1.5119e-18
2.97986e-19
5.76367e-20
1.09428e-20
2.03972e-21
3.73347e-22
6.71169e-23
1.18524e-23
2.05638e-24
3.50585e-25
5.8741e-26
9.67408e-27
1.56624e-27
2.49311e-28
3.90228e-29
6.0095e-30
9.10768e-31
1.35848e-31
1.99437e-32
2.882e-33
4.09968e-34
5.74124e-35
7.91573e-36
1.07457e-36
1.43638e-37
1.89067e-38
2.4508e-39
3.12872e-40
3.9339e-41
4.87195e-42
5.94335e-43
7.14226e-44
8.45554e-45
9.86219e-46
1.13334e-46
1.28328e-47
1.43181e-48
1.57426e-49
1.70575e-50
1.82151e-51
1.91709e-52
1.98873e-53
2.03352e-54
2.04969e-55
2.03664e-56
1.99503e-57
1.92669e-58
1.83453e-59
1.72229e-60
1.59432e-61
1.45531e-62
1.30996e-63
1.1628e-64
1.01792e-65
8.78802e-67
7.48268e-68
6.28379e-69
5.20469e-70
4.25189e-71
3.42599e-72
2.72275e-73
2.13422e-74
1.64993e-75
1.25797e-76
9.45834e-78
7.01227e-79
5.12552e-80
3.69299e-81
2.62231e-82
1.83466e-83
1.26444e-84
8.58321e-86
5.73955e-87
3.78575e-88
4.13536e-13
1.11139e-11
1.94736e-10
2.32098e-09
2.06524e-08
1.42854e-07
8.43076e-07
4.19688e-06
1.79181e-05
6.5377e-05
0.000203777
0.000576597
0.00154189
0.00399515
0.00991645
0.0224662
0.0465848
0.097593
0.203835
0.389591
0.600347
0.720549
0.774778
0.797478
0.804091
0.80258
0.775004
0.672454
0.514054
0.407993
0.358297
0.335037
0.324404
0.310829
0.297521
0.280679
0.25392
0.229922
0.216966
0.213352
0.228204
0.252076
0.289514
0.345771
0.408182
0.444823
0.462318
0.467605
0.419962
0.373192
0.363951
0.369603
0.429344
0.587998
0.763723
0.885228
0.949035
0.978126
0.990336
0.995555
0.997907
0.998999
0.999522
0.999781
0.999898
0.999936
0.999923
0.999798
0.999218
0.996849
0.987698
0.953984
0.832371
0.561974
0.332831
0.183974
0.0953867
0.0466158
0.0215668
0.00948212
0.00397521
0.00159384
0.000612785
0.000226449
8.06005e-05
2.76836e-05
9.19076e-06
2.95378e-06
9.20219e-07
2.78243e-07
8.17453e-08
2.33585e-08
6.49791e-09
1.76122e-09
4.65476e-10
1.20042e-10
3.02271e-11
7.43617e-12
1.78824e-12
4.20572e-13
9.67824e-14
2.1801e-14
4.80897e-15
1.03915e-15
2.20043e-16
4.5674e-17
9.29592e-18
1.85565e-18
3.63402e-19
6.98348e-20
1.31718e-20
2.43894e-21
4.43427e-22
7.91754e-23
1.38862e-23
2.39262e-24
4.05069e-25
6.73936e-26
1.10206e-26
1.77151e-27
2.79965e-28
4.35233e-29
6.65705e-30
1.00188e-30
1.48376e-31
2.1625e-32
3.10194e-33
4.37954e-34
6.08662e-35
8.3274e-36
1.12166e-36
1.4875e-37
1.94238e-38
2.49758e-39
3.16259e-40
3.94397e-41
4.84416e-42
5.86042e-43
6.98379e-44
8.19848e-45
9.48163e-46
1.08035e-46
1.21286e-47
1.34165e-48
1.46245e-49
1.57094e-50
1.66303e-51
1.73511e-52
1.78428e-53
1.80856e-54
1.80701e-55
1.77978e-56
1.72811e-57
1.65426e-58
1.56127e-59
1.45283e-60
1.33303e-61
1.20605e-62
1.07601e-63
9.46678e-65
8.21383e-66
7.02844e-67
5.93137e-68
4.9368e-69
4.05265e-70
3.28126e-71
2.62031e-72
2.06382e-73
1.6032e-74
1.22826e-75
9.28001e-77
6.91403e-78
5.07917e-79
3.67854e-80
2.62613e-81
1.84776e-82
1.28122e-83
8.75454e-85
5.89653e-86
3.9203e-87
4.25828e-13
9.59699e-12
1.58675e-10
1.83125e-09
1.62337e-08
1.20593e-07
7.40085e-07
3.8307e-06
1.68949e-05
6.46155e-05
0.000220409
0.000678651
0.00190259
0.00491585
0.0117931
0.0267764
0.0603061
0.133792
0.271551
0.468381
0.662361
0.749887
0.784803
0.797071
0.799852
0.784967
0.704986
0.555918
0.427537
0.364533
0.334983
0.319942
0.299923
0.267405
0.223942
0.174992
0.139643
0.12238
0.115403
0.114654
0.125675
0.145119
0.169868
0.205832
0.274581
0.38912
0.46558
0.494796
0.498077
0.454959
0.376635
0.352765
0.350363
0.38943
0.566764
0.782389
0.903378
0.961358
0.985314
0.994351
0.997701
0.999004
0.999539
0.999774
0.999895
0.999957
0.999976
0.999975
0.999938
0.999728
0.998715
0.994188
0.97524
0.899947
0.658414
0.396343
0.221591
0.11579
0.0568747
0.0263922
0.0116204
0.00487272
0.00195229
0.000749499
0.0002764
9.81301e-05
3.36055e-05
1.11203e-05
3.5612e-06
1.10523e-06
3.32833e-07
9.73676e-08
2.76988e-08
7.66956e-09
2.06877e-09
5.44032e-10
1.39577e-10
3.49595e-11
8.55335e-12
2.04534e-12
4.78272e-13
1.09412e-13
2.44978e-14
5.37069e-15
1.15329e-15
2.42659e-16
5.00435e-17
1.01186e-17
2.00648e-18
3.90303e-19
7.44954e-20
1.39545e-20
2.56598e-21
4.63265e-22
8.21351e-23
1.4303e-23
2.44682e-24
4.11265e-25
6.7929e-26
1.10272e-26
1.75963e-27
2.76156e-28
4.26308e-29
6.47395e-30
9.67236e-31
1.42186e-31
2.05674e-32
2.9278e-33
4.10186e-34
5.6563e-35
7.67773e-36
1.02592e-36
1.34962e-37
1.74806e-38
2.22937e-39
2.79975e-40
3.46258e-41
4.21749e-42
5.05954e-43
5.97863e-44
6.95911e-45
7.97989e-46
9.01485e-47
1.00338e-47
1.10039e-48
1.18913e-49
1.2663e-50
1.32891e-51
1.37446e-52
1.4011e-53
1.40777e-54
1.39427e-55
1.36124e-56
1.31014e-57
1.24314e-58
1.16295e-59
1.07267e-60
9.75553e-62
8.74856e-63
7.73645e-64
6.74658e-65
5.80202e-66
4.92087e-67
4.1161e-68
3.39564e-69
2.76285e-70
2.21716e-71
1.75487e-72
1.36991e-73
1.05471e-74
8.00852e-76
5.99685e-77
4.42811e-78
3.22401e-79
2.31433e-80
1.6378e-81
1.14265e-82
7.85952e-84
5.33177e-85
3.57251e-86
4.40879e-13
8.02619e-12
1.26101e-10
1.40494e-09
1.24014e-08
8.98964e-08
5.5796e-07
2.99522e-06
1.39709e-05
5.67772e-05
0.000200026
0.00062779
0.00178546
0.00464183
0.0111204
0.0253204
0.0581481
0.132824
0.283375
0.497065
0.676976
0.752988
0.784223
0.79528
0.793188
0.75042
0.644514
0.494698
0.398374
0.347148
0.320431
0.294916
0.257277
0.20954
0.158851
0.119076
0.0966139
0.084552
0.0797307
0.0822199
0.0919907
0.111497
0.139222
0.167201
0.208297
0.297316
0.418629
0.49664
0.518727
0.510174
0.436322
0.354505
0.325255
0.332669
0.418875
0.659629
0.838262
0.931892
0.974123
0.990934
0.996953
0.998948
0.99961
0.999846
0.999927
0.999967
0.999988
0.999993
0.999992
0.999976
0.999877
0.999331
0.996589
0.983859
0.928957
0.718939
0.438304
0.246523
0.129222
0.0635369
0.0294685
0.0129536
0.00541851
0.00216434
0.000827994
0.00030417
0.000107543
3.66685e-05
1.20788e-05
3.84996e-06
1.18905e-06
3.56294e-07
1.03698e-07
2.9345e-08
8.08174e-09
2.16796e-09
5.66905e-10
1.44607e-10
3.6006e-11
8.75636e-12
2.08103e-12
4.83569e-13
1.09918e-13
2.44513e-14
5.32515e-15
1.13585e-15
2.37369e-16
4.8616e-17
9.76156e-18
1.92207e-18
3.71228e-19
7.03467e-20
1.30822e-20
2.38805e-21
4.27981e-22
7.53193e-23
1.30188e-23
2.21051e-24
3.68761e-25
6.04496e-26
9.73934e-27
1.54294e-27
2.40381e-28
3.68326e-29
5.55128e-30
8.23056e-31
1.20057e-31
1.72308e-32
2.43347e-33
3.38213e-34
4.62632e-35
6.22872e-36
8.25498e-37
1.07702e-37
1.38342e-38
1.74962e-39
2.17885e-40
2.67198e-41
3.22697e-42
3.83834e-43
4.49688e-44
5.18952e-45
5.89958e-46
6.60727e-47
7.29051e-48
7.92607e-49
8.4908e-50
8.96307e-51
9.32417e-52
9.55946e-53
9.65946e-54
9.62041e-55
9.44451e-56
9.13976e-57
8.71933e-58
8.20062e-59
7.60411e-60
6.95199e-61
6.26686e-62
5.57046e-63
4.88259e-64
4.22033e-65
3.59745e-66
3.02421e-67
2.50732e-68
2.05022e-69
1.65345e-70
1.31518e-71
1.03179e-72
7.98356e-74
6.09259e-75
4.58554e-76
3.40369e-77
2.49147e-78
1.79846e-79
1.28019e-80
8.98686e-82
6.2224e-83
4.25114e-84
2.8702e-85
4.7135e-12
7.06397e-12
8.55925e-11
1.07159e-09
9.35719e-09
6.76176e-08
4.10244e-07
2.14994e-06
9.88822e-06
4.02019e-05
0.000146459
0.000476315
0.00140255
0.00374718
0.00913508
0.0213343
0.0509459
0.120162
0.264325
0.480383
0.664864
0.746748
0.780337
0.790617
0.782986
0.740036
0.61945
0.474661
0.387212
0.339795
0.314213
0.288409
0.250486
0.202275
0.15042
0.110256
0.0849657
0.0705445
0.0669385
0.0704528
0.0800301
0.0980928
0.128519
0.158855
0.194068
0.272006
0.401408
0.493537
0.530147
0.527896
0.472501
0.35918
0.313836
0.31647
0.378309
0.603112
0.804117
0.912963
0.964578
0.986641
0.995317
0.998477
0.99953
0.999854
0.999953
0.999984
0.999994
0.999998
0.999998
0.999997
0.999988
0.999926
0.999553
0.997507
0.987266
0.940285
0.745236
0.456384
0.25661
0.134187
0.0657272
0.0303406
0.0132665
0.00551806
0.0021912
0.000833254
0.000304249
0.000106916
3.62321e-05
1.18621e-05
3.75774e-06
1.15346e-06
3.43501e-07
9.93565e-08
2.79413e-08
7.6468e-09
2.03826e-09
5.29566e-10
1.34204e-10
3.31955e-11
8.01893e-12
1.89286e-12
4.36825e-13
9.86025e-14
2.17796e-14
4.70945e-15
9.97277e-16
2.06889e-16
4.20613e-17
8.38265e-18
1.63818e-18
3.14006e-19
5.90503e-20
1.08973e-20
1.97388e-21
3.51015e-22
6.12936e-23
1.05117e-23
1.77082e-24
2.93086e-25
4.767e-26
7.62208e-27
1.19822e-27
1.85221e-28
2.81571e-29
4.20996e-30
6.1917e-31
8.95838e-32
1.27521e-32
1.78612e-33
2.46181e-34
3.33931e-35
4.45816e-36
5.85853e-37
7.57869e-38
9.65176e-39
1.21021e-39
1.49415e-40
1.81652e-41
2.17484e-42
2.56444e-43
2.97828e-44
3.40705e-45
3.83937e-46
4.26227e-47
4.66177e-48
5.02363e-49
5.3342e-50
5.58129e-51
5.75493e-52
5.84807e-53
5.85703e-54
5.78177e-55
5.62584e-56
5.39612e-57
5.10232e-58
4.75629e-59
4.37126e-60
3.961e-61
3.53902e-62
3.1179e-63
2.7087e-64
2.3206e-65
1.96062e-66
1.63364e-67
1.34248e-68
1.08806e-69
8.69774e-71
6.85761e-72
5.33281e-73
4.09033e-74
3.09441e-75
2.30894e-76
1.69926e-77
1.23348e-78
8.83164e-80
6.2381e-81
4.34753e-82
2.99098e-83
2.03443e-84
3.18435e-09
4.81876e-10
1.25272e-10
5.95833e-10
5.93931e-09
4.38466e-08
2.59696e-07
1.35152e-06
6.20599e-06
2.52972e-05
9.23614e-05
0.000304288
0.000911005
0.00249349
0.00631967
0.0154047
0.0375079
0.0901853
0.210306
0.428459
0.626853
0.727248
0.770675
0.782216
0.778201
0.746294
0.638399
0.490265
0.39691
0.345216
0.318008
0.29398
0.25996
0.216165
0.166737