/*--------------------------------*- C++ -*----------------------------------*\
  =========                 |
  \\      /  F ield         | OpenFOAM: The Open Source CFD Toolbox
   \\    /   O peration     | Website:  https://openfoam.org
    \\  /    A nd           | Version:  9
     \\/     M anipulation  |
\*---------------------------------------------------------------------------*/
FoamFile
{
    format      ascii;
    class       volScalarField;
    location    "0.011";
    object      s_0;
}
// * * * * * * * * * * * * * * * * * * * * * * * * * * * * * * * * * * * * * //

dimensions      [0 0 0 0 0 0 0];

internalField   nonuniform List<scalar> 
12225
(
1
1
1
1
1
1
1
1
1
1
1
1
1
1
1
1
1
0.999964
1
1
1
1
1
1
1
1
1
1
1
1
1
1
1
1
1
0.999999
1
1
1
1
1
1
1
1
1
1
1
1
1
1
1
1
1
1
1
1
1
1
1
1
1
1
1
1
1
1
1
1
1
1
1
1
1
1
1
1
1
1
1
1
1
1
1
1
1
1
1
1
1
1
1
1
1
1
1
1
1
1
1
1
1
1
1
1
1
1
1
1
1
1
1
1
1
1
1
1
1
1
1
1
1
1
1
1
1
1
1
1
1
1
1
1
1
1
1
1
1
1
1
1
1
1
1
1
1
1
1
1
1
1
1
1
1
1
1
1
1
1
1
1
1
1
1
1
1
1
1
1
1
1
1
1
1
1
1
1
1
1
1
1
1
1
1
1
1
1
1
1
1
1
1
1
1
1
1
1
1
1
1
1
1
1
1
1
1
1
1
1
1
1
1
1
1
1
1
1
1
1
1
1
1
1
1
1
1
1
1
1
1
1
1
1
1
1
1
1
1
1
1
1
1
1
1
1
1
1
1
1
1
1
1
1
1
1
1
1
1
1
1
1
1
1
1
1
1
1
1
1
1
1
1
1
1
1
1
1
1
1
1
1
1
1
1
1
1
1
1
1
1
1
1
1
1
1
1
1
1
1
1
1
1
1
1
1
1
1
1
1
1
1
1
1
1
1
1
1
1
1
1
1
1
1
1
1
1
1
1
1
1
1
1
1
1
1
1
1
1
1
1
1
1
1
1
1
1
1
1
1
1
1
1
1
1
1
1
1
1
1
1
1
1
1
1
1
1
1
1
1
1
1
1
1
1
1
1
1
1
1
1
1
1
1
1
1
1
1
1
1
1
1
1
1
1
1
1
1
1
1
1
1
1
1
1
1
1
1
1
1
1
1
1
1
1
1
1
1
1
1
1
1
1
1
1
1
1
1
1
1
1
1
1
1
1
1
1
1
1
1
1
1
1
1
1
1
1
1
1
1
1
1
1
1
1
1
1
1
1
1
1
1
1
1
1
1
1
1
1
1
1
1
1
1
1
1
1
1
1
1
1
1
1
1
1
1
1
1
1
1
1
1
1
1
1
1
1
1
1
1
1
1
1
1
1
1
1
1
1
1
1
1
1
1
1
1
1
1
1
1
1
1
1
1
1
1
1
1
1
1
1
1
1
1
1
1
1
1
1
1
1
1
5.56465e-18
1.07142e-16
1.16248e-15
7.5282e-15
5.76556e-14
3.93914e-13
2.33769e-12
1.25059e-11
6.13236e-11
2.78944e-10
1.17311e-09
4.52205e-09
1.58678e-08
5.05613e-08
1.46543e-07
3.87815e-07
9.41335e-07
2.10463e-06
4.35147e-06
8.35438e-06
1.49681e-05
2.51833e-05
4.00791e-05
6.08103e-05
8.86497e-05
0.000125077
0.000171873
0.000231194
0.000305589
0.000397923
0.00051124
0.000648776
0.000814001
0.00100974
0.00123689
0.00149676
0.00179624
0.00214135
0.00251911
0.00290872
0.00333587
0.00365389
0.00384794
0.00395663
0.00398641
0.00381598
0.00363047
0.00334952
0.00297861
0.0026129
0.00221537
0.0018248
0.00144155
0.00111605
0.000825709
0.000588667
0.000405198
0.000267283
0.000169281
0.000102902
6.01261e-05
3.36687e-05
1.81242e-05
9.38158e-06
4.66388e-06
2.23075e-06
1.02764e-06
4.56306e-07
1.95468e-07
8.08495e-08
3.23155e-08
1.2492e-08
4.67413e-09
1.69422e-09
5.95376e-10
2.03006e-10
6.72135e-11
2.16251e-11
6.76588e-12
2.05994e-12
6.10708e-13
1.76415e-13
4.96843e-14
1.36501e-14
3.66031e-15
9.58512e-16
2.45239e-16
6.13345e-17
1.50017e-17
3.59001e-18
8.40917e-19
1.92884e-19
4.33415e-20
9.5444e-21
2.06062e-21
4.36335e-22
9.06515e-23
1.84851e-23
3.70099e-24
7.27798e-25
1.40621e-25
2.67039e-26
4.98568e-27
9.15447e-28
1.65358e-28
2.93916e-29
5.14206e-30
8.85675e-31
1.5022e-31
2.50947e-32
4.12955e-33
6.72378e-34
1.08245e-34
1.72186e-35
2.70487e-36
4.1942e-37
6.41813e-38
9.69084e-39
1.44361e-39
2.12139e-40
3.0749e-41
4.39585e-42
6.19759e-43
8.61672e-44
1.18134e-44
1.597e-45
2.1287e-46
2.79766e-47
3.62534e-48
4.63215e-49
5.83589e-50
7.24996e-51
8.88137e-52
1.07288e-52
1.27808e-53
1.50143e-54
1.7394e-55
1.98722e-56
2.23895e-57
2.48772e-58
2.72595e-59
2.94577e-60
3.1394e-61
3.29964e-62
3.42029e-63
3.49656e-64
3.5254e-65
3.50566e-66
3.43823e-67
3.32592e-68
3.17326e-69
2.98627e-70
2.77196e-71
2.538e-72
2.2922e-73
2.04209e-74
1.79462e-75
1.55578e-76
1.3305e-77
1.12247e-78
9.34193e-80
7.6701e-81
6.21256e-82
4.96413e-83
3.91301e-84
3.04272e-85
2.33389e-86
1.76575e-87
1.31758e-88
9.69498e-90
7.03365e-91
5.02939e-92
3.54375e-93
2.45834e-94
1.67865e-95
1.12577e-96
7.41433e-98
4.76421e-99
2.9858e-100
1.70772e-101
5.83721e-16
1.58216e-14
2.38458e-13
2.43667e-12
1.86579e-11
1.13501e-10
5.71111e-10
2.44785e-09
9.14401e-09
3.03305e-08
9.07518e-08
2.48256e-07
6.27961e-07
1.48248e-06
3.29016e-06
6.90172e-06
1.37383e-05
2.60331e-05
4.7106e-05
8.16719e-05
0.000136214
0.000219468
0.000343166
0.000523093
0.000780475
0.00114361
0.00164965
0.00234618
0.00329206
0.0045564
0.00621587
0.00835071
0.0110362
0.0143204
0.0181927
0.0225893
0.0274589
0.0327701
0.0383187
0.0436534
0.0483112
0.0520693
0.0541801
0.0552605
0.0555915
0.0534831
0.0511436
0.047861
0.0433609
0.0389243
0.0339316
0.0288815
0.0237731
0.0190569
0.0147328
0.010995
0.00793251
0.0055107
0.00367409
0.00235366
0.00144907
0.000855855
0.000485197
0.000264212
0.000138043
6.9302e-05
3.34604e-05
1.55499e-05
6.96203e-06
3.00589e-06
1.25265e-06
5.04318e-07
1.96339e-07
7.39857e-08
2.70108e-08
9.56267e-09
3.28602e-09
1.09697e-09
3.56057e-10
1.12462e-10
3.45932e-11
1.03705e-11
3.03206e-12
8.65167e-13
2.41079e-13
6.56412e-14
1.74741e-14
4.55035e-15
1.15969e-15
2.89392e-16
7.07405e-17
1.69459e-17
3.97961e-18
9.16537e-19
2.0708e-19
4.59132e-20
9.99252e-21
2.13534e-21
4.48146e-22
9.23924e-23
1.87159e-23
3.72587e-24
7.29072e-25
1.40254e-25
2.65295e-26
4.93493e-27
9.0288e-28
1.62492e-28
2.87701e-29
5.01195e-30
8.59168e-31
1.4494e-31
2.40645e-32
3.9327e-33
6.32655e-34
1.00192e-34
1.56356e-35
2.40523e-36
3.64699e-37
5.45051e-38
8.02893e-39
1.16571e-39
1.66816e-40
2.35287e-41
3.27095e-42
4.482e-43
6.05343e-44
8.05884e-45
1.05754e-45
1.368e-46
1.74443e-47
2.19284e-48
2.71741e-49
3.31977e-50
3.99827e-51
4.74741e-52
5.55732e-53
6.41366e-54
7.29768e-55
8.18669e-56
9.05492e-57
9.87461e-58
1.06176e-58
1.12566e-59
1.17673e-60
1.21295e-61
1.23287e-62
1.2357e-63
1.22134e-64
1.19044e-65
1.14428e-66
1.08474e-67
1.01415e-68
9.35126e-70
8.5044e-71
7.62844e-72
6.74928e-73
5.89007e-74
5.07032e-75
4.30538e-76
3.60628e-77
2.97977e-78
2.42879e-79
1.9529e-80
1.54901e-81
1.21201e-82
9.35455e-84
7.12175e-85
5.34766e-86
3.9602e-87
2.8918e-88
2.08189e-89
1.47707e-90
1.03256e-91
7.10483e-93
4.8111e-94
3.19683e-95
2.08438e-96
1.3209e-97
8.15452e-99
1.16507e-14
2.91756e-13
3.94033e-12
3.5717e-11
2.43143e-10
1.32383e-09
6.0116e-09
2.3464e-08
8.05512e-08
2.47773e-07
6.93635e-07
1.79073e-06
4.30994e-06
9.75473e-06
2.08988e-05
4.25898e-05
8.28653e-05
0.000154415
0.000276451
0.000477154
0.000797015
0.00129357
0.00204815
0.00317497
0.00483259
0.00723742
0.010679
0.0155342
0.0222735
0.0314433
0.0436153
0.0593013
0.0788246
0.102138
0.128683
0.157572
0.187982
0.219505
0.251351
0.28074
0.303347
0.319883
0.329081
0.333241
0.333073
0.322583
0.309857
0.292918
0.269516
0.246131
0.219906
0.194849
0.168105
0.14112
0.114585
0.0898775
0.0681623
0.0501355
0.0355141
0.0241146
0.0157272
0.00985592
0.0059166
0.0034045
0.00187744
0.000992503
0.00050345
0.000245237
0.000114824
5.17297e-05
2.24458e-05
9.38989e-06
3.7911e-06
1.47877e-06
5.57859e-07
2.03743e-07
7.21134e-08
2.47602e-08
8.25482e-09
2.6747e-09
8.4301e-10
2.58668e-10
7.73296e-11
2.25405e-11
6.41065e-12
1.78011e-12
4.82911e-13
1.2806e-13
3.32139e-14
8.42965e-15
2.09453e-15
5.09733e-16
1.21551e-16
2.84116e-17
6.51201e-18
1.46406e-18
3.22968e-19
6.9927e-20
1.48638e-20
3.10258e-21
6.36098e-22
1.28123e-22
2.53583e-23
4.9327e-24
9.43181e-25
1.77306e-25
3.27743e-26
5.95784e-27
1.06524e-27
1.87354e-28
3.24182e-29
5.51911e-30
9.24591e-31
1.5243e-31
2.47326e-32
3.94996e-33
6.20966e-34
9.60996e-35
1.46466e-35
2.20029e-36
3.25791e-37
4.75444e-38
6.83844e-39
9.69415e-40
1.35443e-40
1.8651e-41
2.53133e-42
3.38612e-43
4.46444e-44
5.80162e-45
7.4311e-46
9.38175e-47
1.16747e-47
1.43202e-48
1.7314e-49
2.0635e-50
2.42424e-51
2.80753e-52
3.20525e-53
3.60743e-54
4.00265e-55
4.37846e-56
4.72207e-57
5.02105e-58
5.26406e-59
5.44157e-60
5.5465e-61
5.57466e-62
5.52507e-63
5.39996e-64
5.20465e-65
4.94715e-66
4.63761e-67
4.28771e-68
3.90985e-69
3.51652e-70
3.11959e-71
2.72977e-72
2.35619e-73
2.00614e-74
1.68496e-75
1.39604e-76
1.14104e-77
9.20011e-79
7.31776e-80
5.74186e-81
4.44429e-82
3.39324e-83
2.55535e-84
1.89796e-85
1.39005e-86
1.00381e-87
7.1439e-89
5.01035e-90
3.45872e-91
2.35058e-92
1.5676e-93
1.02709e-94
6.5547e-96
4.1013e-97
4.20525e-14
1.05986e-12
1.43892e-11
1.31028e-10
8.95529e-10
4.89202e-09
2.22743e-08
8.70887e-08
2.99432e-07
9.22937e-07
2.59131e-06
6.71595e-06
1.62422e-05
3.69683e-05
7.96943e-05
0.000163481
0.000320261
0.000601029
0.001084
0.00188564
0.00317601
0.00520056
0.00830992
0.012999
0.0199582
0.0301402
0.0448476
0.0658249
0.095318
0.136077
0.191439
0.265464
0.36279
0.466804
0.543354
0.617463
0.682982
0.726336
0.760507
0.786007
0.799512
0.811954
0.819653
0.824112
0.82618
0.823166
0.816513
0.805678
0.787641
0.7636
0.729808
0.685536
0.631185
0.567463
0.494634
0.414974
0.332965
0.257146
0.196914
0.143875
0.1002
0.0671491
0.0432159
0.0265139
0.0155702
0.00874067
0.00469362
0.00241336
0.0011893
0.000562366
0.000255448
0.000111596
4.69421e-05
1.90353e-05
7.44994e-06
2.81739e-06
1.03072e-06
3.65184e-07
1.25438e-07
4.18151e-08
1.35409e-08
4.2636e-09
1.30646e-09
3.89909e-10
1.13427e-10
3.21859e-11
8.91476e-12
2.41168e-12
6.37609e-13
1.64836e-13
4.169e-14
1.03206e-14
2.50183e-15
5.9412e-16
1.38267e-16
3.15458e-17
7.05812e-18
1.54915e-18
3.3364e-19
7.05273e-20
1.46366e-20
2.98279e-21
5.97037e-22
1.17398e-22
2.26823e-23
4.30679e-24
8.0377e-25
1.47465e-25
2.66005e-26
4.7184e-27
8.23111e-28
1.41233e-28
2.38383e-29
3.95845e-30
6.46746e-31
1.03979e-31
1.64514e-32
2.5618e-33
3.92646e-34
5.92482e-35
8.81034e-36
1.29106e-36
1.86438e-37
2.65312e-38
3.72061e-39
5.1418e-40
7.00271e-41
9.39885e-42
1.24322e-42
1.62067e-43
2.08218e-44
2.63649e-45
3.29021e-46
4.04689e-47
4.906e-48
5.8621e-49
6.90416e-50
8.01519e-51
9.17226e-52
1.03469e-52
1.15063e-53
1.26142e-54
1.36334e-55
1.45271e-56
1.52616e-57
1.58082e-58
1.61452e-59
1.62591e-60
1.61457e-61
1.58102e-62
1.52672e-63
1.4539e-64
1.36545e-65
1.26474e-66
1.15538e-67
1.04102e-68
9.25161e-70
8.1099e-71
7.01236e-72
5.98101e-73
5.03218e-74
4.17655e-75
3.41952e-76
2.76185e-77
2.20051e-78
1.72955e-79
1.34094e-80
1.02553e-81
7.73574e-83
5.7551e-84
4.22184e-85
3.05368e-86
2.17671e-87
1.52902e-88
1.05721e-89
7.19585e-91
4.80849e-92
3.1566e-93
2.02351e-94
1.27194e-95
9.29902e-14
2.39972e-12
3.3319e-11
3.09646e-10
2.15541e-09
1.20033e-08
5.5853e-08
2.23357e-07
7.85516e-07
2.47605e-06
7.09898e-06
1.87586e-05
4.61767e-05
0.000106784
0.000233448
0.000484739
0.000959467
0.00181633
0.00330057
0.00578257
0.00981783
0.0162423
0.0263203
0.0419673
0.0660826
0.103045
0.159449
0.245118
0.373453
0.510514
0.622271
0.737296
0.793818
0.835627
0.869798
0.886403
0.900434
0.906973
0.911425
0.913533
0.915856
0.919872
0.926055
0.930081
0.937607
0.942999
0.947724
0.952865
0.956714
0.958784
0.958033
0.954503
0.947053
0.934067
0.913006
0.880695
0.832077
0.759177
0.655926
0.53701
0.410418
0.293129
0.205792
0.136548
0.0861083
0.0519299
0.0297789
0.0162951
0.00851151
0.00425072
0.00203247
0.000931758
0.000410114
0.000173551
7.07076e-05
2.7772e-05
1.05299e-05
3.85892e-06
1.36857e-06
4.70254e-07
1.56727e-07
5.07169e-08
1.5951e-08
4.88031e-09
1.45382e-09
4.22011e-10
1.19458e-10
3.29984e-11
8.90094e-12
2.34589e-12
6.04437e-13
1.52333e-13
3.75701e-14
9.07177e-15
2.14547e-15
4.97162e-16
1.12921e-16
2.51474e-17
5.49269e-18
1.177e-18
2.47502e-19
5.10858e-20
1.03524e-20
2.06012e-21
4.02663e-22
7.73166e-23
1.45868e-23
2.70445e-24
4.92829e-25
8.82827e-26
1.55482e-26
2.69256e-27
4.58552e-28
7.68074e-29
1.26549e-29
2.05117e-30
3.27101e-31
5.13265e-32
7.92545e-33
1.20437e-33
1.80221e-34
2.65708e-35
3.85974e-36
5.52423e-37
7.79023e-38
1.08244e-38
1.48196e-39
1.99922e-40
2.6576e-41
3.48121e-42
4.49361e-43
5.71602e-44
7.16536e-45
8.85194e-46
1.07772e-46
1.29318e-47
1.52935e-48
1.78264e-49
2.04809e-50
2.31939e-51
2.58915e-52
2.84915e-53
3.09073e-54
3.30533e-55
3.4849e-56
3.62247e-57
3.71257e-58
3.75159e-59
3.73804e-60
3.67263e-61
3.55819e-62
3.39952e-63
3.20301e-64
2.97622e-65
2.72744e-66
2.46514e-67
2.19756e-68
1.93226e-69
1.67582e-70
1.43363e-71
1.20978e-72
1.00704e-73
8.2691e-75
6.69806e-76
5.35201e-77
4.21852e-78
3.27993e-79
2.51546e-80
1.90274e-81
1.41949e-82
1.04419e-83
7.57335e-85
5.41333e-86
3.81296e-87
2.64399e-88
1.80477e-89
1.21017e-90
7.973e-92
5.14117e-93
3.25409e-94
1.44856e-13
3.86644e-12
5.67443e-11
5.62804e-10
4.19193e-09
2.46136e-08
1.18468e-07
4.86939e-07
1.75385e-06
5.64205e-06
1.64813e-05
4.42969e-05
0.000110683
0.000259042
0.000571399
0.001203
0.00240982
0.00461212
0.00847205
0.0150226
0.0258945
0.0437301
0.0729412
0.1211
0.201303
0.33556
0.499015
0.634974
0.744787
0.806263
0.854502
0.874899
0.883285
0.885831
0.885594
0.878035
0.86999
0.856973
0.842275
0.832919
0.828972
0.829573
0.84597
0.858884
0.880349
0.901934
0.922326
0.94161
0.956396
0.96782
0.974738
0.980168
0.983897
0.98611
0.987236
0.986064
0.981449
0.972039
0.954709
0.924455
0.872329
0.783522
0.645023
0.484588
0.330318
0.217499
0.134898
0.079413
0.0443898
0.0236079
0.0119679
0.0057938
0.00268321
0.00119076
0.000507204
0.000207697
8.18914e-05
3.11355e-05
1.14315e-05
4.05846e-06
1.39504e-06
4.64832e-07
1.50307e-07
4.72158e-08
1.44227e-08
4.288e-09
1.24187e-09
3.5063e-10
9.65811e-11
2.59714e-11
6.82229e-12
1.75164e-12
4.39817e-13
1.08049e-13
2.59832e-14
6.11878e-15
1.41158e-15
3.19135e-16
7.07309e-17
1.53726e-17
3.27725e-18
6.8551e-19
1.40723e-19
2.83574e-20
5.61059e-21
1.09014e-21
2.0805e-22
3.9007e-23
7.18593e-24
1.30094e-24
2.31489e-25
4.04917e-26
6.96343e-27
1.17749e-27
1.95807e-28
3.20244e-29
5.15192e-30
8.15343e-31
1.26953e-31
1.94498e-32
2.93268e-33
4.35574e-34
6.37257e-35
9.18399e-36
1.30384e-36
1.82352e-37
2.51248e-38
3.41049e-39
4.56108e-40
6.00992e-41
7.80249e-42
9.98102e-43
1.25808e-43
1.56259e-44
1.9125e-45
2.30673e-46
2.74184e-47
3.21188e-48
3.7082e-49
4.21961e-50
4.73264e-51
5.23209e-52
5.7017e-53
6.12505e-54
6.48647e-55
6.77202e-56
6.97038e-57
7.0736e-58
7.07763e-59
6.98258e-60
6.79268e-61
6.516e-62
6.16386e-63
5.75005e-64
5.28998e-65
4.79971e-66
4.29507e-67
3.79083e-68
3.30004e-69
2.83359e-70
2.39994e-71
2.00502e-72
1.65233e-73
1.34319e-74
1.07708e-75
8.5196e-77
6.64724e-78
5.11568e-79
3.88302e-80
2.90679e-81
2.14565e-82
1.56156e-83
1.12009e-84
7.91705e-86
5.51016e-87
3.77524e-88
2.54261e-89
1.68306e-90
1.09258e-91
6.96941e-93
2.30493e-13
6.3094e-12
9.40107e-11
9.21772e-10
6.64621e-09
3.95078e-08
1.98678e-07
8.52241e-07
3.18864e-06
1.06076e-05
3.1891e-05
8.78921e-05
0.000224926
0.000541943
0.00125836
0.00278513
0.00557422
0.0104863
0.0191916
0.0347377
0.0617298
0.108569
0.190972
0.338275
0.514039
0.649013
0.755076
0.813067
0.844974
0.857462
0.861551
0.86059
0.838256
0.797403
0.737836
0.65366
0.588552
0.545701
0.50984
0.494011
0.488048
0.490296
0.515299
0.542437
0.592568
0.648936
0.718528
0.791222
0.850644
0.900856
0.934496
0.957308
0.971811
0.984204
0.989465
0.993192
0.994924
0.995797
0.995498
0.993195
0.987528
0.975639
0.951463
0.902641
0.805641
0.639099
0.446076
0.284206
0.172683
0.0988136
0.0535979
0.0276166
0.0135487
0.00634266
0.0028391
0.00121753
0.000501172
0.000198372
7.56299e-05
2.78174e-05
9.88545e-06
3.39887e-06
1.13213e-06
3.6576e-07
1.14742e-07
3.49885e-08
1.03805e-08
2.99904e-09
8.44449e-10
2.31909e-10
6.21611e-11
1.62724e-11
4.16268e-12
1.04116e-12
2.54745e-13
6.10008e-14
1.43018e-14
3.28429e-15
7.39005e-16
1.62987e-16
3.52444e-17
7.47462e-18
1.55512e-18
3.17484e-19
6.36162e-20
1.2514e-20
2.41709e-21
4.58505e-22
8.54337e-23
1.56395e-23
2.81317e-24
4.97295e-25
8.64059e-26
1.47586e-26
2.47841e-27
4.0925e-28
6.64572e-29
1.06142e-29
1.66752e-30
2.57716e-31
3.91879e-32
5.86774e-33
8.65272e-34
1.25663e-34
1.79741e-35
2.53217e-36
3.5137e-37
4.80263e-38
6.46632e-39
8.57662e-40
1.12066e-40
1.4426e-41
1.82959e-42
2.28617e-43
2.81471e-44
3.41465e-45
4.08191e-46
4.80846e-47
5.58204e-48
6.38622e-49
7.20076e-50
8.00232e-51
8.76548e-52
9.46405e-53
1.00725e-53
1.05677e-54
1.093e-55
1.1145e-56
1.1204e-57
1.11051e-58
1.08528e-59
1.04581e-60
9.93736e-62
9.31141e-63
8.60402e-64
7.84054e-65
7.04636e-66
6.24558e-67
5.4599e-68
4.70774e-69
4.00376e-70
3.35863e-71
2.77908e-72
2.26826e-73
1.82615e-74
1.45021e-75
1.13597e-76
8.77673e-78
6.68804e-79
5.02618e-80
3.72464e-81
2.72135e-82
1.95979e-83
1.39081e-84
9.72093e-86
6.68942e-87
4.52786e-88
3.01359e-89
1.97012e-90
1.26686e-91
2.67185e-13
7.45363e-12
1.1863e-10
1.32289e-09
1.16376e-08
7.83503e-08
4.1897e-07
1.86638e-06
7.15318e-06
2.39817e-05
7.13419e-05
0.000192957
0.000483554
0.00112232
0.00238669
0.00491555
0.0101934
0.0203805
0.040122
0.0743126
0.136611
0.258294
0.450709
0.601628
0.718874
0.788871
0.82244
0.835805
0.840252
0.835933
0.79931
0.725156
0.592044
0.498458
0.422729
0.383301
0.362027
0.350489
0.346046
0.345122
0.346087
0.349182
0.352046
0.356634
0.364227
0.379799
0.409941
0.466797
0.568527
0.688732
0.806649
0.8743
0.914034
0.952745
0.971682
0.985665
0.992591
0.996054
0.997664
0.998389
0.998646
0.998105
0.996137
0.991054
0.978729
0.949411
0.879818
0.724347
0.507664
0.314926
0.185305
0.102639
0.0537987
0.0267616
0.0126672
0.00571956
0.00246931
0.0010216
0.000405855
0.000155124
5.71444e-05
2.03219e-05
6.98729e-06
2.326e-06
7.50627e-07
2.35107e-07
7.15497e-08
2.11779e-08
6.10229e-09
1.71318e-09
4.6898e-10
1.25272e-10
3.26732e-11
8.3258e-12
2.07396e-12
5.05282e-13
1.20457e-13
2.81116e-14
6.42485e-15
1.43856e-15
3.15665e-16
6.79041e-17
1.4324e-17
2.96381e-18
6.01677e-19
1.19869e-19
2.34411e-20
4.50058e-21
8.48519e-22
1.57122e-22
2.85809e-23
5.10793e-24
8.97047e-25
1.54829e-25
2.62673e-26
4.38096e-27
7.18402e-28
1.15842e-28
1.83703e-29
2.8653e-30
4.3962e-31
6.63968e-32
9.87368e-33
1.44574e-33
2.08448e-34
2.95953e-35
4.13798e-36
5.69795e-37
7.72744e-38
1.0322e-38
1.35806e-39
1.76006e-40
2.24702e-41
2.82604e-42
3.50157e-43
4.27447e-44
5.14112e-45
6.09271e-46
7.11478e-47
8.18717e-48
9.28426e-49
1.03759e-49
1.14284e-50
1.24066e-51
1.32753e-52
1.40017e-53
1.45575e-54
1.49204e-55
1.50757e-56
1.50176e-57
1.47493e-58
1.42825e-59
1.36371e-60
1.28393e-61
1.19201e-62
1.09132e-63
9.85328e-65
8.77359e-66
7.70474e-67
6.67324e-68
5.70066e-69
4.80326e-70
3.99188e-71
3.27231e-72
2.6459e-73
2.11023e-74
1.66005e-75
1.28805e-76
9.85691e-78
7.43911e-79
5.53627e-80
4.06234e-81
2.93828e-82
2.09447e-83
1.47074e-84
1.01701e-85
6.92121e-87
4.63408e-88
3.05129e-89
1.9782e-90
4.1864e-13
1.14166e-11
1.78309e-10
1.82334e-09
1.41153e-08
9.34512e-08
5.10373e-07
2.33698e-06
9.31076e-06
3.37761e-05
0.000110422
0.000320324
0.000831361
0.00198705
0.00457766
0.0102669
0.0217741
0.0415554
0.075256
0.147175
0.297235
0.489866
0.645729
0.739372
0.791698
0.814583
0.822219
0.823993
0.799593
0.731319
0.578226
0.458561
0.393654
0.357701
0.340561
0.333932
0.33214
0.332196
0.336147
0.339701
0.345639
0.350358
0.354779
0.356899
0.351399
0.345975
0.344946
0.355794
0.374704
0.42699
0.53905
0.708472
0.816511
0.886822
0.935305
0.964917
0.981536
0.990737
0.995522
0.997907
0.998974
0.999392
0.99953
0.999357
0.998472
0.99573
0.987836
0.965683
0.904026
0.739916
0.498886
0.299692
0.169627
0.0904772
0.0456332
0.0218343
0.00994093
0.00431874
0.00179493
0.000715356
0.000273978
0.000101037
3.59414e-05
1.23528e-05
4.10812e-06
1.32378e-06
4.13834e-07
1.25652e-07
3.70933e-08
1.06567e-08
2.98215e-09
8.13515e-10
2.16496e-10
5.62438e-11
1.42728e-11
3.53996e-12
8.58561e-13
2.0372e-13
4.73128e-14
1.07593e-14
2.39667e-15
5.23127e-16
1.11923e-16
2.34786e-17
4.83046e-18
9.74946e-19
1.93087e-19
3.75323e-20
7.16192e-21
1.34187e-21
2.46908e-22
4.46248e-23
7.92336e-24
1.38231e-24
2.3699e-25
3.99342e-26
6.61476e-27
1.0772e-27
1.72481e-28
2.71587e-29
4.20582e-30
6.40973e-31
9.61581e-32
1.42007e-32
2.06462e-33
2.95527e-34
4.16495e-35
5.77971e-36
7.8979e-37
1.0628e-37
1.40849e-38
1.83841e-39
2.3634e-40
2.99271e-41
3.73291e-42
4.58682e-43
5.55238e-44
6.62177e-45
7.78074e-46
9.0083e-47
1.02769e-47
1.15533e-48
1.27995e-49
1.39748e-50
1.50379e-51
1.59493e-52
1.66736e-53
1.71819e-54
1.74537e-55
1.74784e-56
1.72556e-57
1.67957e-58
1.61185e-59
1.52519e-60
1.42305e-61
1.30927e-62
1.18788e-63
1.06282e-64
9.37807e-66
8.16104e-67
7.00438e-68
5.92924e-69
4.95044e-70
4.07672e-71
3.31135e-72
2.65294e-73
2.0964e-74
1.63394e-75
1.25602e-76
9.52198e-78
7.11847e-79
5.24716e-80
3.81292e-81
2.73086e-82
1.92714e-83
1.33959e-84
9.16876e-86
6.17761e-87
4.0971e-88
2.67803e-89
4.37438e-13
1.24196e-11
2.12003e-10
2.48707e-09
2.14454e-08
1.42123e-07
7.59475e-07
3.39186e-06
1.26982e-05
4.16111e-05
0.000130175
0.000378258
0.00100965
0.00251406
0.00600675
0.0138377
0.0300406
0.0631589
0.135956
0.27799
0.466711
0.649346
0.740113
0.786248
0.805865
0.811679
0.809656
0.776304
0.673859
0.511589
0.415468
0.363828
0.34065
0.330559
0.325866
0.32372
0.323642
0.326811
0.330186
0.332309
0.345946
0.358538
0.377511
0.39659
0.408281
0.416609
0.392853
0.366842
0.355361
0.362911
0.388627
0.459349
0.660466
0.779978
0.880272
0.938251
0.969247
0.984677
0.99239
0.996281
0.998206
0.999198
0.99963
0.999797
0.999829
0.999704
0.999113
0.996995
0.989834
0.966444
0.891337
0.681099
0.426333
0.246832
0.133904
0.0684182
0.0330597
0.0151622
0.006622
0.00276227
0.00110345
0.000423141
0.000156101
5.55074e-05
1.90584e-05
6.32842e-06
2.03518e-06
6.34711e-07
1.92189e-07
5.65624e-08
1.61959e-08
4.51593e-09
1.2272e-09
3.25262e-10
8.41401e-11
2.12568e-11
5.24767e-12
1.26661e-12
2.99047e-13
6.90957e-14
1.56299e-14
3.46277e-15
7.51634e-16
1.59899e-16
3.33486e-17
6.82058e-18
1.36834e-18
2.6934e-19
5.20291e-20
9.86555e-21
1.83661e-21
3.35748e-22
6.02829e-23
1.06324e-23
1.84246e-24
3.13735e-25
5.25034e-26
8.63646e-27
1.39658e-27
2.22043e-28
3.47139e-29
5.33977e-30
8.08336e-31
1.20431e-31
1.76602e-32
2.54912e-33
3.62205e-34
5.06666e-35
6.97783e-36
9.46194e-37
1.26337e-37
1.6611e-38
2.15084e-39
2.74278e-40
3.44487e-41
4.26165e-42
5.19319e-43
6.23401e-44
7.37232e-45
8.58953e-46
9.86025e-47
1.11528e-47
1.24304e-48
1.36526e-49
1.47773e-50
1.57634e-51
1.65731e-52
1.71743e-53
1.75428e-54
1.76637e-55
1.7533e-56
1.71568e-57
1.65519e-58
1.57438e-59
1.47653e-60
1.36541e-61
1.24507e-62
1.11957e-63
9.92779e-65
8.68186e-66
7.48769e-67
6.36899e-68
5.34309e-69
4.42102e-70
3.60802e-71
2.90424e-72
2.30576e-73
1.80554e-74
1.39443e-75
1.06209e-76
7.97757e-78
5.90851e-79
4.31442e-80
3.10548e-81
2.20294e-82
1.53971e-83
1.06011e-84
7.18911e-86
4.80259e-87
3.16463e-88
4.09381e-13
1.10042e-11
1.92808e-10
2.29881e-09
2.04798e-08
1.41829e-07
8.37716e-07
4.17376e-06
1.784e-05
6.52436e-05
0.000203648
0.000576526
0.00154178
0.00399489
0.00991788
0.0224695
0.0465764
0.0976307
0.20388
0.389626
0.600856
0.72079
0.774814
0.797373
0.803926
0.802314
0.774475
0.671731
0.513625
0.407898
0.358196
0.334892
0.324218
0.310451
0.297003
0.280068
0.253385
0.229892
0.217166
0.213679
0.228858
0.253129
0.29092
0.347398
0.408419
0.444655
0.461589
0.465532
0.416938
0.3712
0.363677
0.37096
0.435197
0.598705
0.771023
0.888927
0.950653
0.978718
0.990537
0.995627
0.997937
0.999011
0.999529
0.999785
0.999899
0.999936
0.99992
0.999782
0.999151
0.996585
0.986706
0.950401
0.819607
0.546461
0.322222
0.177417
0.0916528
0.0446393
0.020587
0.00902448
0.00377277
0.00150867
0.000578583
0.000213298
7.57464e-05
2.59594e-05
8.60021e-06
2.75838e-06
8.57664e-07
2.58838e-07
7.59049e-08
2.16511e-08
6.0125e-09
1.6269e-09
4.29271e-10
1.10527e-10
2.77876e-11
6.82552e-12
1.63892e-12
3.84884e-13
8.8441e-14
1.98936e-14
4.38204e-15
9.45589e-16
1.99956e-16
4.14487e-17
8.42471e-18
1.67952e-18
3.28481e-19
6.30427e-20
1.18756e-20
2.19614e-21
3.98782e-22
7.11153e-23
1.24572e-23
2.14377e-24
3.62498e-25
6.0238e-26
9.83863e-27
1.57964e-27
2.49346e-28
3.87181e-29
5.91521e-30
8.89208e-31
1.31537e-31
1.9149e-32
2.74364e-33
3.86928e-34
5.3714e-35
7.34062e-36
9.87636e-37
1.30831e-37
1.7065e-38
2.19185e-39
2.7724e-40
3.45358e-41
4.23721e-42
5.12056e-43
6.09548e-44
7.14793e-45
8.25775e-46
9.39892e-47
1.05404e-47
1.16472e-48
1.26824e-49
1.36088e-50
1.43913e-51
1.49992e-52
1.5408e-53
1.56013e-54
1.55715e-55
1.53208e-56
1.48606e-57
1.42107e-58
1.3398e-59
1.24545e-60
1.14157e-61
1.03177e-62
9.19566e-64
8.08211e-65
7.00524e-66
5.98814e-67
5.0483e-68
4.19752e-69
3.44227e-70
2.78423e-71
2.22114e-72
1.74766e-73
1.35624e-74
1.038e-75
7.83467e-77
5.83133e-78
4.27951e-79
3.0963e-80
2.20826e-81
1.5522e-82
1.07522e-83
7.33965e-85
4.93868e-86
3.28025e-87
4.22843e-13
9.53563e-12
1.57773e-10
1.82006e-09
1.61213e-08
1.19795e-07
7.35605e-07
3.81058e-06
1.68225e-05
6.44447e-05
0.000220061
0.00067801
0.00190135
0.00491175
0.0117763
0.0267263
0.0602245
0.133711
0.271726
0.468686
0.662586
0.749946
0.784751
0.796945
0.799686
0.784485
0.703837
0.554273
0.426832
0.364139
0.334674
0.319501
0.299268
0.266668
0.223066
0.174237
0.139229
0.122108
0.115268
0.114813
0.125937
0.145604
0.170432
0.206945
0.277718
0.391427
0.465989
0.494442
0.496481
0.450895
0.374828
0.352709
0.352146
0.395231
0.579325
0.789753
0.907007
0.962917
0.98589
0.994539
0.997759
0.999023
0.999545
0.999776
0.999897
0.999958
0.999976
0.999974
0.999933
0.999702
0.998596
0.993674
0.973152
0.891738
0.64125
0.384086
0.213857
0.111326
0.0544902
0.0252036
0.0110634
0.00462596
0.00184845
0.000707834
0.000260405
9.22385e-05
3.15183e-05
1.04076e-05
3.32616e-06
1.03025e-06
3.09665e-07
9.0423e-08
2.56772e-08
7.09743e-09
1.9112e-09
5.01765e-10
1.28525e-10
3.21406e-11
7.8515e-12
1.87467e-12
4.3771e-13
9.99869e-14
2.23552e-14
4.89405e-15
1.04947e-15
2.20512e-16
4.54146e-17
9.17037e-18
1.81604e-18
3.52798e-19
6.72498e-20
1.25812e-20
2.31051e-21
4.16618e-22
7.37726e-23
1.28309e-23
2.19229e-24
3.68036e-25
6.07152e-26
9.84428e-27
1.569e-27
2.4595e-28
3.79235e-29
5.75237e-30
8.58434e-31
1.26046e-31
1.82118e-32
2.58953e-33
3.62382e-34
4.99146e-35
6.76766e-36
9.03304e-37
1.18699e-37
1.53571e-38
1.95638e-39
2.45421e-40
3.03189e-41
3.68886e-42
4.42055e-43
5.21788e-44
6.06703e-45
6.94945e-46
7.84232e-47
8.7194e-48
9.5522e-49
1.03115e-49
1.0969e-50
1.14991e-51
1.18807e-52
1.20982e-53
1.21431e-54
1.2014e-55
1.17172e-56
1.12656e-57
1.06783e-58
9.97917e-60
9.19492e-61
8.3538e-62
7.4838e-63
6.6112e-64
5.7594e-65
4.94797e-66
4.19224e-67
3.50306e-68
2.88696e-69
2.34658e-70
1.8812e-71
1.48745e-72
1.15998e-73
8.92185e-75
6.76763e-76
5.06258e-77
3.73449e-78
2.71629e-79
1.94792e-80
1.37713e-81
9.59835e-83
6.59553e-84
4.46988e-85
2.99207e-86
4.38149e-13
7.99032e-12
1.25534e-10
1.40047e-09
1.23681e-08
8.96502e-08
5.56467e-07
2.98688e-06
1.39332e-05
5.6627e-05
0.000199665
0.000626999
0.00178382
0.00463718
0.0111033
0.0252749
0.0581022
0.132953
0.283832
0.497847
0.677396
0.753072
0.784153
0.795115
0.792769
0.749337
0.642436
0.492804
0.397558
0.346679
0.320063
0.294388
0.256528
0.2087
0.158038
0.118508
0.0962791
0.084377
0.0796369
0.0823218
0.0922227
0.111972
0.139707
0.167648
0.20945
0.300039
0.420742
0.496956
0.517784
0.508258
0.431903
0.353364
0.325889
0.334439
0.42597
0.668974
0.843673
0.934615
0.975327
0.991401
0.997109
0.998992
0.999624
0.999849
0.999928
0.999967
0.999988
0.999993
0.999992
0.999974
0.999864
0.999265
0.996266
0.982409
0.922833
0.701732
0.425021
0.238013
0.124274
0.0608853
0.0281454
0.0123341
0.00514456
0.00204938
0.000782018
0.000286585
0.000101092
3.43931e-05
1.13053e-05
3.59606e-06
1.10845e-06
3.31511e-07
9.63069e-08
2.72046e-08
7.47918e-09
2.00291e-09
5.22876e-10
1.3316e-10
3.31032e-11
8.03794e-12
1.90738e-12
4.42556e-13
1.00448e-13
2.23125e-14
4.85245e-15
1.03358e-15
2.15698e-16
4.41175e-17
8.84644e-18
1.73957e-18
3.3554e-19
6.35015e-20
1.1794e-20
2.15018e-21
3.84864e-22
6.76469e-23
1.16782e-23
1.98045e-24
3.29979e-25
5.40267e-26
8.69412e-27
1.37572e-27
2.14076e-28
3.27634e-29
4.93223e-30
7.30425e-31
1.06422e-31
1.52564e-32
2.15217e-33
2.98777e-34
4.08226e-35
5.49002e-36
7.26781e-37
9.47165e-38
1.21527e-38
1.53526e-39
1.90979e-40
2.33945e-41
2.82227e-42
3.35332e-43
3.92437e-44
4.52392e-45
5.13735e-46
5.74741e-47
6.33493e-48
6.87982e-49
7.36214e-50
7.76338e-51
8.06758e-52
8.26243e-53
8.34006e-54
8.29761e-55
8.13736e-56
7.86656e-57
7.49687e-58
7.04355e-59
6.52443e-60
5.95873e-61
5.36594e-62
4.76474e-63
4.17207e-64
3.60249e-65
3.06766e-66
2.5762e-67
2.13371e-68
1.74294e-69
1.40421e-70
1.11581e-71
8.74487e-73
6.75963e-74
5.15336e-75
3.87475e-76
2.87321e-77
2.10107e-78
1.51514e-79
1.07744e-80
7.55606e-82
5.22655e-83
3.56726e-84
2.4061e-85
4.56084e-12
7.00897e-12
8.54731e-11
1.06991e-09
9.35475e-09
6.76458e-08
4.10355e-07
2.14992e-06
9.88525e-06
4.01726e-05
0.000146273
0.000475678
0.00140082
0.00374319
0.00912765
0.021335
0.0510026
0.120382
0.264808
0.481258
0.66538
0.746883
0.780264
0.790313
0.782347
0.738559
0.616389
0.472194
0.385753
0.338945
0.31357
0.287643
0.249517
0.201177
0.149381
0.109479
0.0844259
0.0702591
0.0668876
0.0705359
0.080232
0.0985501
0.12912
0.159233
0.194918
0.274533
0.403795
0.49444
0.529644
0.526773
0.468063
0.356933
0.313478
0.317021
0.382741
0.611996
0.809353
0.915699
0.965873
0.987205
0.995546
0.998563
0.999558
0.999862
0.999955
0.999984
0.999994
0.999998
0.999998
0.999997
0.999987
0.999918
0.999506
0.99726
0.986071
0.934948
0.728098
0.442625
0.247749
0.129037
0.0629759
0.0289739
0.01263
0.00523827
0.00207451
0.000786881
0.000286626
0.000100492
3.39806e-05
1.11015e-05
3.50968e-06
1.0752e-06
3.1959e-07
9.227e-08
2.5902e-08
7.07634e-09
1.883e-09
4.88414e-10
1.23575e-10
3.05176e-11
7.36059e-12
1.73481e-12
3.99751e-13
9.01011e-14
1.9873e-14
4.29107e-15
9.07405e-16
1.87985e-16
3.81659e-17
7.59608e-18
1.48249e-18
2.8379e-19
5.32989e-20
9.82325e-21
1.77708e-21
3.15618e-22
5.50439e-23
9.4282e-24
1.58635e-24
2.62233e-25
4.26005e-26
6.80335e-27
1.06824e-27
1.64934e-28
2.50436e-29
3.74008e-30
5.49425e-31
7.94011e-32
1.12896e-32
1.57947e-33
2.17451e-34
2.94627e-35
3.929e-36
5.15736e-37
6.66419e-38
8.47767e-39
1.06182e-39
1.3095e-40
1.59027e-41
1.90188e-42
2.24014e-43
2.59881e-44
2.96973e-45
3.34294e-46
3.70717e-47
4.05028e-48
4.36001e-49
4.62462e-50
4.8337e-51
4.9788e-52
5.05403e-53
5.05644e-54
4.98622e-55
4.84666e-56
4.6439e-57
4.38648e-58
4.08475e-59
3.75019e-60
3.3947e-61
3.02992e-62
2.66663e-63
2.31428e-64
1.98066e-65
1.6717e-66
1.39149e-67
1.14232e-68
9.24897e-70
7.38594e-71
5.81745e-72
4.51937e-73
3.46293e-74
2.61713e-75
1.95086e-76
1.4343e-77
1.04011e-78
7.43969e-80
5.2497e-81
3.65507e-82
2.5121e-83
1.70702e-84
3.08416e-09
4.65776e-10
1.23536e-10
5.95734e-10
5.94921e-09
4.38909e-08
2.60084e-07
1.35382e-06
6.21639e-06
2.53384e-05
9.24997e-05
0.000304735
0.000912302
0.00249712
0.00633133
0.0154474
0.037644
0.0904737
0.210894
0.429438
0.627549
0.727527
0.770651
0.781902
0.777675
0.744998
0.635291
0.487574
0.395172
0.344186
0.317279
0.293197
0.259003
0.215067
0.165658
0.125235