/*--------------------------------*- C++ -*----------------------------------*\
  =========                 |
  \\      /  F ield         | OpenFOAM: The Open Source CFD Toolbox
   \\    /   O peration     | Website:  https://openfoam.org
    \\  /    A nd           | Version:  9
     \\/     M anipulation  |
\*---------------------------------------------------------------------------*/
FoamFile
{
    format      ascii;
    class       volVectorField;
    location    "0.011";
    object      U;
}
// * * * * * * * * * * * * * * * * * * * * * * * * * * * * * * * * * * * * * //

dimensions      [0 1 -1 0 0 0 0];

internalField   nonuniform List<vector> 
12225
(
(9.91597 0.069058 0)
(9.60353 0.0780565 0)
(9.31537 0.0609735 0)
(9.0487 0.0491422 0)
(8.72891 0.0455585 0)
(8.40026 0.0451417 0)
(8.08883 0.047028 0)
(7.79175 0.0486003 0)
(7.49665 0.0465904 0)
(7.22139 0.0415356 0)
(6.95975 0.0356239 0)
(6.74817 0.0311004 0)
(6.53621 0.0333934 0)
(6.37945 0.0385838 0)
(6.13918 0.0508675 0)
(6.00529 0.0539219 0)
(5.66061 0.0796057 0)
(5.54213 0.0554738 0)
(9.9814 -0.0185055 0)
(10.0572 0.0427231 0)
(10.1133 0.0595272 0)
(10.1323 0.0805174 0)
(10.1049 0.102309 0)
(10.0607 0.109622 0)
(10.0058 0.107524 0)
(9.94044 0.107172 0)
(9.8709 0.109897 0)
(9.81715 0.112515 0)
(9.78147 0.10882 0)
(9.76733 0.102512 0)
(9.74456 0.0915581 0)
(9.71728 0.0915904 0)
(9.6451 0.0922609 0)
(9.57238 0.103796 0)
(9.44337 0.132147 0)
(9.34699 0.17778 0)
(9.79309 0.0535223 0)
(9.87097 0.042023 0)
(9.98248 0.0556177 0)
(10.0912 0.0652738 0)
(10.1538 0.0681596 0)
(10.1534 0.0736174 0)
(10.114 0.0848347 0)
(10.0761 0.0941497 0)
(10.0662 0.0911838 0)
(10.0886 0.075119 0)
(10.1301 0.0546605 0)
(10.1719 0.0428936 0)
(10.1937 0.0479949 0)
(10.1842 0.0722304 0)
(10.1431 0.106157 0)
(10.0761 0.141048 0)
(9.99937 0.180567 0)
(9.93776 0.213583 0)
(10.0344 0.0548493 0)
(10.0093 0.000354767 0)
(9.98062 -6.48663e-05 0)
(10.0136 0.0291454 0)
(10.0534 0.0758274 0)
(10.0738 0.114636 0)
(10.0726 0.125277 0)
(10.0606 0.114183 0)
(10.0471 0.097139 0)
(10.0332 0.0833987 0)
(10.0174 0.0753457 0)
(10.0009 0.0756304 0)
(9.98569 0.0854069 0)
(9.97469 0.106879 0)
(9.96928 0.135374 0)
(9.96612 0.163023 0)
(9.96576 0.194007 0)
(9.974 0.219794 0)
(9.95359 -0.00789131 0)
(9.99152 0.0335944 0)
(9.97987 0.0653507 0)
(9.93357 0.062266 0)
(9.89077 0.0536435 0)
(9.89389 0.0676726 0)
(9.92732 0.0931386 0)
(9.96151 0.110186 0)
(9.98581 0.109326 0)
(10.0038 0.0932877 0)
(10.018 0.0730637 0)
(10.0261 0.0615928 0)
(10.0233 0.0661897 0)
(10.0098 0.088482 0)
(9.9918 0.121397 0)
(9.97436 0.154397 0)
(9.96197 0.184777 0)
(9.96161 0.204072 0)
(9.931 0.0181513 0)
(9.83545 -0.0107792 0)
(9.88146 0.0152224 0)
(9.92538 0.0566767 0)
(9.91191 0.0865347 0)
(9.87626 0.101601 0)
(9.84819 0.0987741 0)
(9.83552 0.0858424 0)
(9.83974 0.0728028 0)
(9.86193 0.063835 0)
(9.89907 0.0607488 0)
(9.94156 0.0665718 0)
(9.97772 0.0831695 0)
(9.99916 0.109431 0)
(10.007 0.140074 0)
(10.0072 0.168206 0)
(10.0067 0.191335 0)
(10.0148 0.206461 0)
(9.90571 0.0581054 0)
(10.1577 0.0203581 0)
(10.2214 0.0469942 0)
(10.1597 0.0638974 0)
(10.1047 0.0655263 0)
(10.0924 0.0836886 0)
(10.0758 0.10968 0)
(10.0282 0.120215 0)
(9.96637 0.105434 0)
(9.92038 0.0732992 0)
(9.9057 0.0426396 0)
(9.91965 0.0317159 0)
(9.94898 0.0475781 0)
(9.98043 0.0850587 0)
(10.0032 0.129497 0)
(10.0159 0.1666 0)
(10.017 0.189109 0)
(10.0162 0.194029 0)
(10.2116 -0.0317722 0)
(10.0139 -0.0883192 0)
(10.0443 0.0167983 0)
(10.0814 0.0891827 0)
(10.0342 0.109643 0)
(9.95713 0.116313 0)
(9.91846 0.12525 0)
(9.94213 0.129314 0)
(10.0101 0.11787 0)
(10.0861 0.0913396 0)
(10.1356 0.0614789 0)
(10.1431 0.0433854 0)
(10.1131 0.0460247 0)
(10.064 0.0705297 0)
(10.0142 0.108957 0)
(9.97498 0.149483 0)
(9.95129 0.182353 0)
(9.94528 0.201685 0)
(9.97261 0.0754466 0)
(9.86919 0.0349033 0)
(9.86532 0.0361696 0)
(9.94034 0.0751124 0)
(9.99479 0.114926 0)
(9.98688 0.127915 0)
(9.94719 0.110416 0)
(9.93133 0.073127 0)
(9.95788 0.0326884 0)
(10.0067 0.00803745 0)
(10.0449 0.0121891 0)
(10.05 0.0457941 0)
(10.0191 0.0982372 0)
(9.96877 0.153113 0)
(9.92271 0.195846 0)
(9.89787 0.2178 0)
(9.90184 0.216869 0)
(9.92762 0.199556 0)
(10.0539 -0.052993 0)
(10.0174 -0.0337306 0)
(9.98768 -0.00437031 0)
(9.93615 0.018592 0)
(9.92092 0.0798535 0)
(9.95842 0.137697 0)
(10.0257 0.15494 0)
(10.0888 0.13187 0)
(10.1169 0.0907402 0)
(10.1008 0.0566922 0)
(10.0584 0.0448879 0)
(10.0167 0.0573634 0)
(9.99565 0.0849201 0)
(10.0002 0.114501 0)
(10.0261 0.136939 0)
(10.061 0.147971 0)
(10.0935 0.150868 0)
(10.1088 0.14932 0)
(10.1566 0.113445 0)
(10.0325 0.0540232 0)
(9.91551 0.0718191 0)
(9.80912 0.117639 0)
(9.76197 0.118157 0)
(9.78149 0.0803981 0)
(9.83884 0.0394442 0)
(9.90099 0.0180329 0)
(9.9475 0.0179506 0)
(9.9751 0.0318911 0)
(9.99138 0.0540861 0)
(10.0029 0.0820288 0)
(10.0148 0.113477 0)
(10.0272 0.14404 0)
(10.0407 0.16907 0)
(10.0523 0.185672 0)
(10.0612 0.194073 0)
(10.0688 0.195429 0)
(10.0465 0.0941293 0)
(9.87064 0.0827092 0)
(9.79607 0.0751329 0)
(9.85969 0.0739491 0)
(9.95645 0.0853365 0)
(9.98966 0.0973909 0)
(9.94955 0.0943953 0)
(9.8874 0.0769128 0)
(9.84633 0.0549963 0)
(9.83891 0.0386783 0)
(9.85919 0.0353165 0)
(9.89566 0.0462314 0)
(9.93612 0.0669631 0)
(9.97238 0.0905071 0)
(9.99732 0.110282 0)
(10.0149 0.124631 0)
(10.0225 0.13257 0)
(10.0339 0.137938 0)
(9.84192 0.171454 0)
(9.73395 0.128318 0)
(9.75963 0.087122 0)
(9.8149 0.0634178 0)
(9.84364 0.0671208 0)
(9.86979 0.083013 0)
(9.91796 0.085738 0)
(9.99028 0.0665754 0)
(10.0641 0.0377205 0)
(10.1142 0.0166201 0)
(10.1307 0.0138287 0)
(10.1163 0.032953 0)
(10.0804 0.0697078 0)
(10.0348 0.114461 0)
(9.98821 0.154269 0)
(9.94825 0.181373 0)
(9.91803 0.191325 0)
(9.90262 0.186362 0)
(10.109 0.108554 0)
(10.0621 0.0542601 0)
(10.0746 0.0108416 0)
(10.103 0.031098 0)
(10.0983 0.0597258 0)
(10.0768 0.0558243 0)
(10.0593 0.0237029 0)
(10.0521 -0.0106505 0)
(10.0467 -0.020621 0)
(10.029 0.00171272 0)
(9.99356 0.0437885 0)
(9.9486 0.0889615 0)
(9.90675 0.126496 0)
(9.87829 0.151816 0)
(9.86978 0.162984 0)
(9.88067 0.163139 0)
(9.90867 0.153767 0)
(9.94398 0.143292 0)
(10.1498 0.0699807 0)
(10.0019 0.106786 0)
(9.90607 0.0839755 0)
(9.91565 0.0693117 0)
(9.96719 0.0907363 0)
(9.9914 0.112979 0)
(9.96681 0.112443 0)
(9.91961 0.0906525 0)
(9.88324 0.0673857 0)
(9.87143 0.0602905 0)
(9.88264 0.0740398 0)
(9.91065 0.10202 0)
(9.94775 0.131807 0)
(9.98736 0.153567 0)
(10.0232 0.161107 0)
(10.0493 0.153883 0)
(10.0652 0.135869 0)
(10.065 0.111547 0)
(9.79365 0.0866233 0)
(9.87379 0.139195 0)
(9.90557 0.0364672 0)
(9.9121 -0.0328576 0)
(9.92079 -0.0114602 0)
(9.95812 0.0452423 0)
(9.9827 0.0701227 0)
(9.97574 0.049632 0)
(9.95103 0.0155157 0)
(9.92515 -0.00264141 0)
(9.91192 -0.000132032 0)
(9.92303 0.0141742 0)
(9.96021 0.0323589 0)
(10.0169 0.0520226 0)
(10.0808 0.0752925 0)
(10.1407 0.100501 0)
(10.1867 0.128183 0)
(10.215 0.150526 0)
(9.90407 -0.172995 0)
(9.98079 -0.1048 0)
(10.0258 0.0815538 0)
(9.99265 0.102574 0)
(9.9545 0.0705241 0)
(9.96454 0.0782805 0)
(9.97446 0.113792 0)
(9.94371 0.139751 0)
(9.88266 0.139617 0)
(9.81957 0.1177 0)
(9.77739 0.0840256 0)
(9.76491 0.0473946 0)
(9.77597 0.0152179 0)
(9.7974 -0.00603678 0)
(9.81929 -0.0122627 0)
(9.83973 -0.00374829 0)
(9.85808 0.0157822 0)
(9.88082 0.0404228 0)
(9.80543 -0.0165494 0)
(9.67864 -0.0162594 0)
(9.67504 0.0313208 0)
(9.68974 -0.00349188 0)
(9.71671 -0.0390191 0)
(9.75912 -0.0091724 0)
(9.81304 0.0742542 0)
(9.87688 0.151247 0)
(9.94553 0.17338 0)
(10.004 0.136217 0)
(10.0384 0.069891 0)
(10.0451 0.0114301 0)
(10.0315 -0.0166454 0)
(10.0064 -0.011502 0)
(9.98117 0.0142267 0)
(9.96291 0.0457089 0)
(9.95868 0.069748 0)
(9.96756 0.08037 0)
(9.99614 0.0549192 0)
(10.007 0.0568283 0)
(10.0311 0.0853181 0)
(9.99412 0.0534385 0)
(9.92447 0.0117324 0)
(9.89103 -0.022773 0)
(9.89677 -0.0581149 0)
(9.91763 -0.0854067 0)
(9.94082 -0.0862476 0)
(9.95577 -0.0514116 0)
(9.95668 0.00842262 0)
(9.9497 0.0682351 0)
(9.94588 0.104501 0)
(9.95385 0.10695 0)
(9.97752 0.0798954 0)
(10.0157 0.0365454 0)
(10.0638 -0.0116206 0)
(10.1147 -0.0519877 0)
(9.62564 -0.0979088 0)
(9.71534 -0.0482437 0)
(9.83654 0.0703389 0)
(9.92874 0.125893 0)
(9.95519 0.0885281 0)
(9.93832 0.0370664 0)
(9.92018 0.0261741 0)
(9.916 0.0527721 0)
(9.92532 0.0827885 0)
(9.94834 0.0911324 0)
(9.9829 0.073253 0)
(10.0227 0.0344158 0)
(10.0586 -0.0168576 0)
(10.0829 -0.0711864 0)
(10.092 -0.118972 0)
(10.0875 -0.153291 0)
(10.073 -0.171105 0)
(10.053 -0.170875 0)
(9.82239 -0.150623 0)
(9.83042 -0.276852 0)
(9.83667 -0.193405 0)
(9.90588 -0.0515958 0)
(9.93878 0.0339537 0)
(9.92469 0.0388644 0)
(9.91602 -0.00379476 0)
(9.93065 -0.055887 0)
(9.9575 -0.0912024 0)
(9.99193 -0.10069 0)
(10.0323 -0.0854868 0)
(10.0725 -0.0537474 0)
(10.1066 -0.0175115 0)
(10.1309 0.0120359 0)
(10.1441 0.0279861 0)
(10.147 0.0297247 0)
(10.1419 0.019453 0)
(10.1322 0.00327067 0)
(10.1706 -0.0721222 0)
(10.0786 -0.111355 0)
(9.97017 -0.0156274 0)
(9.93614 0.043684 0)
(9.97278 0.0562998 0)
(10.0154 0.0397519 0)
(10.0369 0.0121042 0)
(10.0291 -0.0102742 0)
(9.99039 -0.0232896 0)
(9.93288 -0.0348605 0)
(9.8813 -0.052939 0)
(9.85504 -0.0768011 0)
(9.85961 -0.0997615 0)
(9.89075 -0.11621 0)
(9.93641 -0.124501 0)
(9.9825 -0.125729 0)
(10.0175 -0.122094 0)
(10.0338 -0.115114 0)
(9.95939 -0.0379109 0)
(10.0377 -0.110461 0)
(10.0481 -0.106455 0)
(10.083 -0.0620418 0)
(10.1145 -0.0308504 0)
(10.1193 -0.0174971 0)
(10.1159 -0.00914824 0)
(10.1225 0.00498666 0)
(10.1382 0.0215113 0)
(10.1554 0.026645 0)
(10.166 0.0097591 0)
(10.1641 -0.0268222 0)
(10.1482 -0.0693804 0)
(10.123 -0.101503 0)
(10.0958 -0.111759 0)
(10.0722 -0.0996678 0)
(10.0539 -0.0698952 0)
(10.0404 -0.03514 0)
(10.0998 -0.0947502 0)
(10.0471 -0.107179 0)
(9.97053 -0.049213 0)
(9.90662 0.00555781 0)
(9.89436 0.0285128 0)
(9.90111 0.0266739 0)
(9.90306 0.00327758 0)
(9.89934 -0.0277666 0)
(9.89765 -0.049001 0)
(9.90744 -0.0560115 0)
(9.93284 -0.0555417 0)
(9.96517 -0.0546536 0)
(9.98939 -0.0567675 0)
(9.99505 -0.0626115 0)
(9.98255 -0.0704148 0)
(9.9615 -0.0770384 0)
(9.94148 -0.0794315 0)
(9.93243 -0.0757358 0)
(9.91347 -0.0480027 0)
(9.82582 -0.0454395 0)
(9.83549 -0.0517092 0)
(9.91611 -0.0260427 0)
(10.0194 -0.0147265 0)
(10.0821 -0.0153466 0)
(10.0935 -0.00784039 0)
(10.0817 0.00601663 0)
(10.0696 0.00760149 0)
(10.0664 -0.0123963 0)
(10.0751 -0.0456748 0)
(10.0943 -0.0752101 0)
(10.1167 -0.0883113 0)
(10.1331 -0.0827789 0)
(10.1345 -0.065834 0)
(10.1183 -0.0471463 0)
(10.0858 -0.0332552 0)
(10.0441 -0.0284651 0)
(9.92822 0.0931488 0)
(9.93082 -0.0409238 0)
(9.96971 -0.0991383 0)
(9.95304 -0.0962346 0)
(9.9334 -0.0617552 0)
(9.92569 -0.0234049 0)
(9.93446 -0.00396305 0)
(9.96802 -0.0089284 0)
(10.0152 -0.0297151 0)
(10.053 -0.056272 0)
(10.0668 -0.080738 0)
(10.0564 -0.0967431 0)
(10.0308 -0.100074 0)
(10.0009 -0.0884579 0)
(9.97593 -0.0642253 0)
(9.95971 -0.034728 0)
(9.95311 -0.00710196 0)
(9.95474 0.00898032 0)
(9.91039 -0.0392321 0)
(9.9678 -0.0842186 0)
(10.0127 -0.0736046 0)
(10.0034 -0.0113031 0)
(9.99204 0.00458447 0)
(10.0037 -0.0153159 0)
(10.0346 -0.0365758 0)
(10.074 -0.04622 0)
(10.1041 -0.0478365 0)
(10.1114 -0.0475054 0)
(10.095 -0.0469343 0)
(10.0605 -0.0449931 0)
(10.0165 -0.0406625 0)
(9.97256 -0.0339953 0)
(9.94128 -0.026897 0)
(9.93079 -0.0221286 0)
(9.94395 -0.0221588 0)
(9.97824 -0.0286865 0)
(9.96164 -0.0770791 0)
(10.0085 -0.0830316 0)
(9.95926 -0.117427 0)
(9.96857 -0.0920884 0)
(10.05 -0.0569021 0)
(10.0986 -0.0413914 0)
(10.0679 -0.0401893 0)
(10.0041 -0.0435045 0)
(9.95848 -0.0476359 0)
(9.9464 -0.0510351 0)
(9.96168 -0.0523324 0)
(9.99237 -0.0507598 0)
(10.0273 -0.0467857 0)
(10.0592 -0.0422379 0)
(10.0836 -0.0399189 0)
(10.0994 -0.0415951 0)
(10.1068 -0.0479411 0)
(10.106 -0.058105 0)
(10.0067 -0.0986791 0)
(9.97156 -0.0733024 0)
(9.98274 -0.0394148 0)
(9.94372 -0.0476982 0)
(9.90127 -0.0465334 0)
(9.89475 -0.0222497 0)
(9.92379 -0.00245079 0)
(9.97579 -0.00543682 0)
(10.0253 -0.0260993 0)
(10.048 -0.0501545 0)
(10.0376 -0.067146 0)
(10.0051 -0.0729839 0)
(9.9663 -0.0686905 0)
(9.93419 -0.057319 0)
(9.91547 -0.0433088 0)
(9.91081 -0.0313748 0)
(9.91687 -0.0253723 0)
(9.92807 -0.0288361 0)
(10.0276 0.0023254 0)
(9.73457 -0.0869611 0)
(9.51061 -0.102544 0)
(9.27735 -0.0754738 0)
(9.09247 -0.0494714 0)
(8.97418 -0.0484927 0)
(8.87443 -0.0622869 0)
(8.76233 -0.0708642 0)
(8.63248 -0.0661953 0)
(8.49363 -0.0526341 0)
(8.35901 -0.0377752 0)
(8.23778 -0.0276112 0)
(8.13115 -0.0247675 0)
(8.03801 -0.0286657 0)
(7.95437 -0.036904 0)
(7.87602 -0.0464793 0)
(7.79634 -0.0555488 0)
(7.71092 -0.0618802 0)
(0.0186776 -0.0984248 8.68387e-20)
(0.0426994 -0.100812 -8.62142e-20)
(0.064483 -0.0939602 0)
(0.075421 -0.0833794 0)
(0.0744076 -0.0688418 0)
(0.0601855 -0.0511425 8.36391e-20)
(0.0316217 -0.0314307 0)
(-0.0121324 -0.0106027 0)
(-0.0716282 0.010633 0)
(-0.147698 0.032134 0)
(-0.240795 0.0539896 -8.03475e-20)
(-0.351598 0.0764266 0)
(-0.480776 0.0996683 0)
(-0.628937 0.123665 0)
(-0.79646 0.148004 0)
(-0.983389 0.172049 -7.69032e-20)
(-1.18942 0.195129 0)
(-1.41395 0.216679 0)
(-1.65619 0.236359 0)
(-1.91525 0.254095 0)
(-2.18992 0.269933 0)
(-2.47868 0.283781 0)
(-2.77998 0.295517 0)
(-3.09208 0.304953 -7.10283e-20)
(-3.41293 0.311792 7.02594e-20)
(-3.74015 0.315689 -6.94846e-20)
(-4.07095 0.316293 -6.87056e-20)
(-4.40219 0.313294 0)
(-4.73033 0.306454 0)
(-5.05151 0.295617 6.63655e-20)
(-5.36155 0.280723 6.55952e-20)
(-5.656 0.261848 0)
(-5.93032 0.239202 0)
(-6.18001 0.213125 6.33747e-20)
(-6.40063 0.183985 0)
(-6.58816 0.152226 0)
(-6.73923 0.118765 -6.1396e-20)
(-6.85084 0.0847312 0)
(-6.92081 0.0506779 -6.02697e-20)
(-6.94808 0.0170354 -1.19544e-19)
(-6.93102 -0.0153004 0)
(-6.8742 -0.0457763 0)
(-6.77703 -0.0749986 0)
(-6.64109 -0.102524 0)
(-6.46844 -0.128206 0)
(-6.26087 -0.151957 -1.1525e-19)
(-6.02073 -0.173547 -1.14758e-19)
(-5.75043 -0.192883 -1.14304e-19)
(-5.45271 -0.209812 0)
(-5.13057 -0.224163 1.13462e-19)
(-4.78746 -0.235744 0)
(-4.42722 -0.244375 -1.12632e-19)
(-4.05399 -0.249939 -1.12195e-19)
(-3.67205 -0.252423 0)
(-3.2856 -0.251953 0)
(-2.89858 -0.248801 0)
(-2.5146 -0.243345 -1.10128e-19)
(-2.13699 -0.236029 0)
(-1.76844 -0.227206 0)
(-1.41068 -0.217178 0)
(-1.06541 -0.206633 0)
(-0.733883 -0.195513 0)
(-0.416153 -0.184391 0)
(-0.115016 -0.173283 0)
(0.170045 -0.162648 0)
(0.441699 -0.152129 1.03135e-19)
(0.699373 -0.141952 0)
(0.943122 -0.132169 0)
(1.17327 -0.122809 -1.00155e-19)
(1.39023 -0.113885 -9.91536e-20)
(1.59446 -0.105401 0)
(1.78643 -0.0973548 9.71476e-20)
(1.96665 -0.0897411 -9.61458e-20)
(2.13561 -0.0825511 0)
(2.29381 -0.0757747 9.41503e-20)
(2.44175 -0.0694004 0)
(2.57989 -0.0634159 0)
(2.70873 -0.0578084 -9.11889e-20)
(2.82872 -0.0525643 0)
(2.94032 -0.0476702 8.92425e-20)
(3.04396 -0.043112 0)
(3.14008 -0.0388759 -8.73218e-20)
(3.22909 -0.034948 -8.63717e-20)
(3.31139 -0.0313143 -8.54286e-20)
(3.38737 -0.0279611 -1.68985e-19)
(3.4574 -0.0248747 1.67128e-19)
(3.52185 -0.0220416 0)
(3.58107 -0.0194481 0)
(3.63538 -0.017081 0)
(3.68511 -0.0149273 1.59843e-19)
(3.73057 -0.0129737 1.58057e-19)
(3.77206 -0.0112075 -1.56286e-19)
(3.80984 -0.00961613 0)
(3.8442 -0.00818719 1.52787e-19)
(3.87538 -0.00690836 1.51058e-19)
(3.90363 -0.00576766 1.49342e-19)
(3.92917 -0.00475383 0)
(3.95222 -0.00385559 0)
(3.97299 -0.0030629 0)
(3.99165 -0.00236681 1.42614e-19)
(4.00838 -0.00175757 0)
(4.02336 -0.00122694 0)
(4.03673 -0.00076666 -1.37703e-19)
(4.04864 -0.000370387 0)
(4.05922 -2.98379e-05 0)
(4.06858 0.000261143 -1.32903e-19)
(4.07684 0.000508624 0)
(4.0841 0.000717036 0)
(4.09047 0.000894555 1.28209e-19)
(4.09599 0.0010461 1.26667e-19)
(4.1008 0.00118394 0)
(4.10488 0.00130101 -1.23617e-19)
(4.1083 0.00140777 0)
(4.1111 0.00151058 1.20611e-19)
(4.11336 0.00160051 0)
(4.11511 0.00168039 1.17647e-19)
(4.11642 0.00174531 1.16181e-19)
(4.11731 0.00179753 0)
(4.11782 0.00184834 0)
(4.11799 0.00189582 0)
(4.11782 0.0019335 0)
(4.11736 0.00196569 0)
(4.11663 0.00200468 0)
(4.11562 0.00206138 0)
(4.11433 0.00213545 1.04815e-19)
(4.11277 0.00221249 -1.03438e-19)
(4.11097 0.0022714 0)
(4.10896 0.00229561 0)
(4.10682 0.0022799 0)
(4.10459 0.0022302 0)
(4.10232 0.00215839 -1.93377e-19)
(4.10004 0.00207661 0)
(4.09776 0.00199356 1.88103e-19)
(4.09549 0.00191387 -1.85492e-19)
(4.09321 0.00183914 0)
(4.09093 0.00176947 0)
(4.08864 0.0017045 0)
(4.08633 0.00164397 1.75215e-19)
(4.08402 0.00158774 1.72687e-19)
(4.08169 0.00153579 0)
(4.07934 0.00148804 1.6768e-19)
(4.07699 0.00144441 1.652e-19)
(4.07461 0.00140475 -1.62736e-19)
(4.07222 0.00136885 0)
(4.0698 0.0013365 0)
(4.06737 0.00130751 -1.55436e-19)
(4.06492 0.00128168 0)
(4.06244 0.00125885 0)
(4.05994 0.00123889 0)
(4.05741 0.00122173 0)
(4.05484 0.00120729 1.43568e-19)
(4.05225 0.00119565 1.41237e-19)
(4.04961 0.00118673 0)
(4.04694 0.00118091 1.36618e-19)
(4.04421 0.00117796 0)
(4.04143 0.00117889 0)
(4.03858 0.00118302 1.29792e-19)
(4.03567 0.00119255 0)
(4.03265 0.001206 1.25309e-19)
(4.02955 0.00122737 0)
(4.02629 0.00125443 0)
(4.02292 0.00129294 1.18681e-19)
(4.01929 0.00134148 0)
(4.01553 0.0014053 1.14326e-19)
(4.01132 0.00149074 0)
(4.00699 0.0015907 0)
(4.00181 0.00174621 0)
(3.9966 0.00189219 -1.0577e-19)
(3.98979 0.00219436 0)
(3.98315 0.00237859 1.01569e-19)
(3.97353 0.00302433 0)
(3.96434 0.00315236 0)
(3.94992 0.00469376 0)
(3.93528 0.00437674 0)
(3.91299 0.00842661 0)
(3.88411 0.00636536 0)
(3.85008 0.0182727 0)
(3.77587 0.0106699 -1.70866e-19)
(3.72724 0.053495 0)
(3.48293 0.0426738 0)
(-0.0314882 -0.0244255 -2.60569e-19)
(-0.132262 0.00547143 2.58636e-19)
(-0.229991 0.0304436 0)
(-0.334971 0.0659897 -1.69777e-19)
(-0.446394 0.105136 0)
(-0.564809 0.14622 -8.34963e-20)
(-0.69073 0.187907 1.65709e-19)
(-0.824519 0.23024 1.64344e-19)
(-0.966528 0.273203 0)
(-1.11736 0.31687 1.61601e-19)
(-1.27752 0.361371 8.00802e-20)
(-1.44725 0.406633 0)
(-1.62647 0.452218 0)
(-1.81501 0.497412 0)
(-2.01262 0.54139 0)
(-2.21903 0.583374 7.6602e-20)
(-2.43393 0.622722 0)
(-2.65695 0.65899 -1.50373e-19)
(-2.88761 0.691919 0)
(-3.12534 0.721367 0)
(-3.36956 0.747236 1.46003e-19)
(-3.61965 0.769303 0)
(-3.87482 0.787208 -1.43023e-19)
(-4.13413 0.800423 7.07894e-20)
(-4.39648 0.808307 -7.00347e-20)
(-4.66059 0.810151 6.92749e-20)
(-4.92496 0.805224 6.85113e-20)
(-5.18782 0.792813 0)
(-5.44707 0.772284 0)
(-5.70019 0.743082 -6.62181e-20)
(-5.94425 0.704767 6.52852e-20)
(-6.17589 0.657081 0)
(-6.3915 0.60001 0)
(-6.58731 0.533826 -6.32854e-20)
(-6.75949 0.459077 0)
(-6.90442 0.376725 0)
(-7.01902 0.288355 6.13432e-20)
(-7.10052 0.195874 0)
(-7.1465 0.100958 -5.99679e-20)
(-7.15572 0.00532775 1.19492e-19)
(-7.1277 -0.0889881 0)
(-7.05742 -0.180453 0)
(-6.94765 -0.26816 2.33497e-19)
(-6.79931 -0.351019 2.32177e-19)
(-6.6138 -0.428373 2.30999e-19)
(-6.39345 -0.499779 -1.14777e-19)
(-6.14031 -0.56484 1.14668e-19)
(-5.85686 -0.623222 3.42312e-19)
(-5.5457 -0.674511 -2.27273e-19)
(-5.20976 -0.718164 -1.13366e-19)
(-4.85247 -0.753525 0)
(-4.47776 -0.779965 1.12537e-19)
(-4.08996 -0.797092 -1.11941e-19)
(-3.69361 -0.804865 0)
(-3.29323 -0.803638 0)
(-2.89304 -0.794191 0)
(-2.49678 -0.777675 1.10051e-19)
(-2.10779 -0.755459 0)
(-1.72864 -0.728774 -2.17522e-19)
(-1.36103 -0.698856 0)
(-1.00651 -0.667148 -2.14698e-19)
(-0.666136 -0.63407 0)
(-0.339861 -0.600718 2.11596e-19)
(-0.0305211 -0.567875 0)
(0.26305 -0.535727 -2.08057e-19)
(0.543905 -0.504305 1.0304e-19)
(0.810846 -0.473918 0)
(1.06418 -0.444705 2.02158e-19)
(1.30429 -0.416741 1.00094e-19)
(1.53164 -0.390057 9.9094e-20)
(1.74668 -0.364652 0)
(1.94993 -0.340512 9.7073e-20)
(2.14187 -0.317614 9.60898e-20)
(2.323 -0.295928 0)
(2.49382 -0.275419 -9.40958e-20)
(2.6548 -0.25605 1.86196e-19)
(2.80641 -0.23778 0)
(2.94911 -0.220567 9.11355e-20)
(3.08335 -0.204371 0)
(3.20955 -0.189149 -2.67558e-19)
(3.32812 -0.174858 0)
(3.43946 -0.161457 2.61797e-19)
(3.54395 -0.148906 8.6318e-20)
(3.64197 -0.137164 -8.53676e-20)
(3.73384 -0.126194 -1.68864e-19)
(3.81992 -0.115958 1.67006e-19)
(3.90052 -0.106419 0)
(3.97594 -0.0975416 0)
(4.04648 -0.0892921 0)
(4.11241 -0.0816371 -4.79182e-19)
(4.174 -0.0745441 -1.57944e-19)
(4.23149 -0.0679819 1.56173e-19)
(4.28514 -0.0619201 0)
(4.33516 -0.0563291 1.52665e-19)
(4.38178 -0.0511802 -1.50942e-19)
(4.42519 -0.0464454 -1.49226e-19)
(4.46559 -0.0420979 0)
(4.50318 -0.0381116 0)
(4.53812 -0.0344618 0)
(4.57057 -0.0311252 -1.42497e-19)
(4.60071 -0.028079 0)
(4.62867 -0.0253018 2.78417e-19)
(4.6546 -0.0227728 4.12755e-19)
(4.67864 -0.020473 -2.71945e-19)
(4.70089 -0.0183837 0)
(4.7215 -0.0164878 -1.32784e-19)
(4.74056 -0.0147681 0)
(4.75818 -0.0132098 -2.59293e-19)
(4.77446 -0.0117967 1.28093e-19)
(4.78951 -0.0105145 1.26552e-19)
(4.80337 -0.0093454 0)
(4.81621 -0.00828278 3.70517e-19)
(4.82811 -0.00731837 -2.43996e-19)
(4.83913 -0.00644571 -1.20502e-19)
(4.84932 -0.00565679 0)
(4.85876 -0.00495358 -1.17541e-19)
(4.86748 -0.00432031 -3.48227e-19)
(4.87553 -0.00373796 0)
(4.88298 -0.00320669 -2.26353e-19)
(4.88987 -0.00272495 -2.23485e-19)
(4.89623 -0.00229036 -2.20636e-19)
(4.90211 -0.00189446 0)
(4.90755 -0.00153028 0)
(4.91259 -0.00119193 0)
(4.91728 -0.000877502 1.04719e-19)
(4.92165 -0.000592389 1.03343e-19)
(4.92574 -0.000346562 0)
(4.92957 -0.000148056 2.01237e-19)
(4.93315 1.61255e-06 1.98541e-19)
(4.93652 0.000108599 0)
(4.93967 0.000184222 1.93201e-19)
(4.94263 0.000241048 3.81115e-19)
(4.94539 0.000289331 -1.87932e-19)
(4.94797 0.000335485 -1.85323e-19)
(4.95036 0.00038218 0)
(4.95257 0.000429597 0)
(4.95459 0.000476687 0)
(4.95643 0.000522224 -1.75058e-19)
(4.9581 0.000565251 1.72533e-19)
(4.95961 0.000605291 3.40048e-19)
(4.96096 0.000642196 -1.67531e-19)
(4.96217 0.000676083 1.65054e-19)
(4.96325 0.000707176 1.62593e-19)
(4.96421 0.000735793 0)
(4.96505 0.000762283 0)
(4.96578 0.000787031 -1.55301e-19)
(4.96642 0.000810393 0)
(4.96696 0.000832762 0)
(4.96742 0.000854528 2.96289e-19)
(4.9678 0.000876148 0)
(4.9681 0.000898089 1.43446e-19)
(4.96833 0.000920945 -1.41118e-19)
(4.96849 0.000945289 0)
(4.96858 0.000971986 1.36504e-19)
(4.96861 0.00100176 0)
(4.96857 0.00103599 0)
(4.96846 0.00107566 -1.29686e-19)
(4.96827 0.00112293 2.5488e-19)
(4.96801 0.00117949 -1.25207e-19)
(4.96766 0.00124812 0)
(4.96721 0.00133317 0)
(4.96663 0.00143588 1.18586e-19)
(4.96593 0.00156953 0)
(4.96504 0.00172547 1.14235e-19)
(4.96398 0.00194453 0)
(4.96259 0.00218105 0)
(4.96098 0.00255829 0)
(4.95879 0.00290837 1.05687e-19)
(4.9563 0.00360123 0)
(4.95274 0.00408409 -1.0149e-19)
(4.94885 0.00546399 0)
(4.94276 0.00601419 0)
(4.93657 0.00902604 1.90591e-19)
(4.92553 0.00928674 -1.86524e-19)
(4.91542 0.0165356 0)
(4.89374 0.0153986 0)
(4.87664 0.0350191 0)
(4.83031 0.0312521 5.1209e-19)
(4.80287 0.0953077 0)
(4.70722 0.103999 -3.26259e-19)
(-0.0545678 0.25469 -1.03101e-22)
(-0.210888 0.315286 -3.44816e-19)
(-0.356731 0.337387 0)
(-0.505347 0.373308 3.39352e-19)
(-0.653201 0.411769 0)
(-0.801851 0.453614 0)
(-0.951565 0.49794 9.20527e-23)
(-1.10304 0.544142 -1.64145e-19)
(-1.25677 0.592083 -1.62855e-19)
(-1.4131 0.641892 -1.61395e-19)
(-1.57215 0.692902 0)
(-1.73416 0.744433 0)
(-1.8995 0.796135 1.5731e-19)
(-2.06861 0.847685 3.11824e-19)
(-2.24199 0.898523 -3.09014e-19)
(-2.42016 0.947927 0)
(-2.60363 0.995237 -3.03346e-19)
(-2.79292 1.03992 1.50234e-19)
(-2.9886 1.08153 0)
(-3.19132 1.11967 -2.94679e-19)
(-3.40182 1.15392 -1.45902e-19)
(-3.62087 1.18386 2.88759e-19)
(-3.8491 1.20897 1.42942e-19)
(-4.08679 1.22855 0)
(-4.33378 1.24167 -2.79633e-19)
(-4.58947 1.24721 -2.76527e-19)
(-4.85272 1.24387 0)
(-5.12175 1.23024 -2.70247e-19)
(-5.39404 1.20483 0)
(-5.66636 1.16613 -2.6394e-19)
(-5.9348 1.11273 -1.30672e-19)
(-6.19478 1.04353 0)
(-6.44107 0.957985 0)
(-6.66805 0.856283 0)
(-6.86989 0.739296 0)
(-7.04112 0.608524 0)
(-7.17706 0.466095 0)
(-7.2739 0.31477 -2.4151e-19)
(-7.32876 0.157876 3.59535e-19)
(-7.34004 -0.001056 0)
(-7.30692 -0.158775 0)
(-7.22969 -0.31249 0)
(-7.10993 -0.459525 -8.1835e-22)
(-6.94987 -0.598337 -2.32009e-19)
(-6.75188 -0.727749 -4.60918e-19)
(-6.51845 -0.847028 4.58838e-19)
(-6.25198 -0.955722 2.28174e-19)
(-5.95485 -1.05336 -2.27901e-19)
(-5.6295 -1.13934 5.01883e-22)
(-5.27867 -1.21275 -2.25825e-19)
(-4.9057 -1.27229 0)
(-4.51478 -1.31663 -2.24347e-19)
(-4.11078 -1.34488 2.81228e-22)
(-3.69904 -1.3568 0)
(-3.2849 -1.35296 0)
(-2.87314 -1.33488 2.20812e-19)
(-2.46778 -1.30483 0)
(-2.07219 -1.2652 0)
(-1.68883 -1.2183 -2.17178e-19)
(-1.31921 -1.16655 -4.31846e-19)
(-0.964337 -1.11198 2.14567e-19)
(-0.6248 -1.05579 0)
(-0.300871 -0.999507 -2.11481e-19)
(0.0055648 -0.944303 0)
(0.296092 -0.890357 -2.07824e-19)
(0.573353 -0.838019 -2.05989e-19)
(0.836544 -0.787575 4.07972e-19)
(1.08605 -0.739206 2.01975e-19)
(1.32234 -0.693002 0)
(1.54591 -0.648988 -3.96096e-19)
(1.75729 -0.607155 0)
(1.957 -0.567468 -5.82218e-19)
(2.14556 -0.529881 -3.84142e-19)
(2.32348 -0.494335 -3.80166e-19)
(2.49128 -0.460766 3.76201e-19)
(2.64944 -0.429107 -5.58398e-19)
(2.79845 -0.399285 0)
(2.93878 -0.371225 0)
(3.07087 -0.344853 3.60511e-19)
(3.19517 -0.320092 5.34979e-19)
(3.31208 -0.296868 0)
(3.42202 -0.275107 -1.74503e-19)
(3.52536 -0.254735 0)
(3.62248 -0.235683 5.12142e-19)
(3.71371 -0.217881 2.19745e-23)
(3.7994 -0.201264 -2.02919e-23)
(3.87986 -0.185766 -3.30291e-19)
(3.95538 -0.171328 0)
(4.02624 -0.157888 3.23013e-19)
(4.09273 -0.145391 1.47345e-23)
(4.15509 -0.13378 0)
(4.21355 -0.123005 0)
(4.26835 -0.113013 0)
(4.3197 -0.103758 -3.05323e-19)
(4.3678 -0.0951928 0)
(4.41284 -0.0872738 0)
(4.455 -0.0799594 0)
(4.49444 -0.0732094 0)
(4.53132 -0.0669858 0)
(4.56581 -0.0612528 -2.84973e-19)
(4.59802 -0.055976 0)
(4.62811 -0.0511228 -2.78408e-19)
(4.6562 -0.0466629 -2.7516e-19)
(4.6824 -0.0425676 2.71936e-19)
(4.70683 -0.0388097 0)
(4.7296 -0.0353628 2.65562e-19)
(4.7508 -0.0322037 0)
(4.77054 -0.0293101 2.59284e-19)
(4.78891 -0.0266607 -2.56179e-19)
(4.80598 -0.0242337 -7.59287e-19)
(4.82185 -0.0220161 0)
(4.83658 -0.0199891 -7.41e-19)
(4.85025 -0.0181401 -2.43982e-19)
(4.86293 -0.0164577 0)
(4.87469 -0.0149239 -4.76041e-19)
(4.88558 -0.0135287 -4.70141e-19)
(4.89568 -0.0122501 6.96424e-19)
(4.90504 -0.0110662 0)
(4.91371 -0.00997677 2.26345e-19)
(4.92174 -0.00898827 2.23476e-19)
(4.92917 -0.00808952 6.6188e-19)
(4.93605 -0.00726988 0)
(4.94241 -0.0065223 0)
(4.94829 -0.00583724 0)
(4.95375 -0.00520811 2.09427e-19)
(4.9588 -0.00463687 0)
(4.96348 -0.00413163 0)
(4.96781 -0.00369956 -2.01228e-19)
(4.97182 -0.00334048 -1.98531e-19)
(4.97551 -0.00304454 0)
(4.97891 -0.00279474 0)
(4.98203 -0.00257241 -3.81096e-19)
(4.9849 -0.00236246 0)
(4.98754 -0.00215599 3.70628e-19)
(4.98996 -0.0019502 3.65445e-19)
(4.99219 -0.00174642 0)
(4.99424 -0.00154787 0)
(4.99612 -0.00135781 -3.50098e-19)
(4.99784 -0.00117865 -4.32682e-25)
(4.99942 -0.00101166 -3.89428e-25)
(5.00087 -0.000857211 0)
(5.0022 -0.000714998 -6.60184e-19)
(5.00341 -0.000584358 0)
(5.00452 -0.000464423 0)
(5.00552 -0.000354243 0)
(5.00644 -0.000252841 3.10588e-19)
(5.00728 -0.00015924 0)
(5.00803 -7.24547e-05 -6.02032e-19)
(5.00872 8.53185e-06 -2.96275e-19)
(5.00933 8.47333e-05 0)
(5.00988 0.000157278 -2.86878e-19)
(5.01038 0.000227239 0)
(5.01081 0.000296015 0)
(5.01119 0.000364761 -8.18985e-19)
(5.01151 0.000435514 5.36845e-19)
(5.01177 0.000509433 0)
(5.01197 0.000589991 5.18718e-19)
(5.01212 0.000677882 -2.54867e-19)
(5.01219 0.000779843 0)
(5.01219 0.000894469 0)
(5.01211 0.00103619 0)
(5.01191 0.00119653 -7.11479e-19)
(5.01161 0.00140877 0)
(5.01113 0.00164333 -2.2846e-19)
(5.0105 0.00198034 0)
(5.00959 0.00233207 0)
(5.00847 0.00289481 0)
(5.00685 0.00342611 0)
(5.00494 0.00441687 0)
(5.00212 0.00520938 0)
(4.99891 0.00706338 -3.97611e-19)
(4.99396 0.00821346 0)
(4.98853 0.0119265 -1.9058e-19)
(4.97971 0.0135652 5.59518e-19)
(4.97023 0.0216531 0)
(4.95415 0.0243117 0)
(4.93721 0.0440978 -3.49026e-19)
(4.90887 0.0522163 -3.41329e-19)
(4.88127 0.107854 3.33488e-19)
(4.8468 0.143459 3.26204e-19)
(-0.0547962 0.543055 5.21352e-19)
(-0.215289 0.633625 5.17342e-19)
(-0.362106 0.648362 3.42237e-19)
(-0.511022 0.680173 1.69855e-19)
(-0.656636 0.714543 0)
(-0.801281 0.753309 -3.34021e-19)
(-0.944586 0.795129 1.65737e-19)
(-1.08738 0.840281 0)
(-1.23032 0.888166 1.62798e-19)
(-1.37393 0.938119 0)
(-1.51867 0.990018 -3.20255e-19)
(-1.66552 1.04405 0)
(-1.81549 1.0999 -1.57278e-19)
(-1.9695 1.15681 -3.1177e-19)
(-2.12833 1.21402 3.0897e-19)
(-2.2928 1.27103 0)
(-2.46393 1.32744 3.03313e-19)
(-2.64302 1.38296 0)
(-2.8316 1.4373 0)
(-3.03125 1.49008 2.94642e-19)
(-3.24334 1.54073 0)
(-3.46882 1.58838 -9.36828e-23)
(-3.70812 1.63175 0)
(-3.96127 1.66924 0)
(-4.22791 1.69905 2.44288e-22)
(-4.50722 1.71919 2.76393e-19)
(-4.79777 1.72726 2.72859e-19)
(-5.09746 1.7205 2.7007e-19)
(-5.40351 1.69602 0)
(-5.71231 1.65114 5.26796e-19)
(-6.01913 1.58354 0)
(-6.31792 1.49143 2.56621e-19)
(-6.60161 1.37371 0)
(-6.86277 1.23028 0)
(-7.09425 1.06223 -2.47568e-19)
(-7.28949 0.871949 0)
(-7.4431 0.663331 2.42293e-19)
(-7.55093 0.441585 1.35455e-21)
(-7.61008 0.212503 -4.77068e-19)
(-7.61926 -0.018207 4.71861e-19)
(-7.57869 -0.245362 0)
(-7.49002 -0.465662 0)
(-7.35566 -0.67581 2.29871e-19)
(-7.17865 -0.873325 0)
(-6.96197 -1.05666 2.29871e-19)
(-6.7086 -1.225 -2.28853e-19)
(-6.42118 -1.37805 -2.27939e-19)
(-6.10198 -1.51564 0)
(-5.75304 -1.63727 2.26332e-19)
(-5.37659 -1.74161 2.25593e-19)
(-4.97587 -1.82644 -4.48571e-19)
(-4.55562 -1.8892 2.24128e-19)
(-4.12196 -1.92801 2.23356e-19)
(-3.68192 -1.94218 0)
(-3.2427 -1.93259 0)
(-2.81046 -1.90201 -2.20648e-19)
(-2.38976 -1.8542 0)
(-1.98368 -1.79306 0)
(-1.59403 -1.72234 4.34302e-19)
(-1.2216 -1.64555 4.31615e-19)
(-0.866371 -1.56541 0)
(-0.528139 -1.48415 0)
(-0.20676 -1.40353 0)
(0.096338 -1.32555 0)
(0.383426 -1.24909 4.15457e-19)
(0.657355 -1.17536 -4.11469e-19)
(0.916994 -1.10461 -4.07715e-19)
(1.16289 -1.03698 -8.0747e-19)
(1.39558 -0.972494 0)
(1.61562 -0.911144 9.85744e-23)
(1.82356 -0.852888 0)
(2.01992 -0.79766 3.87946e-19)
(2.20523 -0.745381 7.81931e-23)
(2.38001 -0.695965 3.80013e-19)
(2.54476 -0.649317 -3.76059e-19)
(2.69999 -0.605337 6.21749e-23)
(2.84616 -0.563921 0)
(2.98375 -0.524962 -3.64238e-19)
(3.1132 -0.488352 -3.60408e-19)
(3.23495 -0.453983 -7.13048e-19)
(3.34942 -0.421748 0)
(3.457 -0.391541 3.48859e-19)
(3.55808 -0.36326 0)