/*--------------------------------*- C++ -*----------------------------------*\
  =========                 |
  \\      /  F ield         | OpenFOAM: The Open Source CFD Toolbox
   \\    /   O peration     | Website:  https://openfoam.org
    \\  /    A nd           | Version:  9
     \\/     M anipulation  |
\*---------------------------------------------------------------------------*/
FoamFile
{
    format      ascii;
    class       volVectorField;
    location    "0.011";
    object      UMean;
}
// * * * * * * * * * * * * * * * * * * * * * * * * * * * * * * * * * * * * * //

dimensions      [0 1 -1 0 0 0 0];

internalField   nonuniform List<vector> 
12225
(
(9.88409 0.0381846 0)
(9.58976 0.0525535 0)
(9.29411 0.0512445 0)
(8.99435 0.0505004 0)
(8.70219 0.0501358 0)
(8.42502 0.0495064 0)
(8.16496 0.0477514 0)
(7.92161 0.0464003 0)
(7.6941 0.0436622 0)
(7.4841 0.0427457 0)
(7.28661 0.0389803 0)
(7.11124 0.039527 0)
(6.93677 0.0335978 0)
(6.80179 0.0367699 0)
(6.63615 0.0261854 0)
(6.564 0.0337541 0)
(6.3788 0.0159387 0)
(6.41953 0.0270962 0)
(10.0067 0.0606227 0)
(10.0731 0.0812143 0)
(10.1176 0.079297 0)
(10.1364 0.0789774 0)
(10.1396 0.0804246 0)
(10.1352 0.0807309 0)
(10.1255 0.0803158 0)
(10.1129 0.0789741 0)
(10.0965 0.0777171 0)
(10.0799 0.075397 0)
(10.0593 0.073594 0)
(10.0417 0.0704977 0)
(10.0186 0.0686257 0)
(10.0047 0.064626 0)
(9.98125 0.0625408 0)
(9.97886 0.0558528 0)
(9.95827 0.0533681 0)
(9.97808 0.0368574 0)
(10.0408 0.0208436 0)
(10.0826 0.0488492 0)
(10.1182 0.0488889 0)
(10.1399 0.0496512 0)
(10.1534 0.0530282 0)
(10.1657 0.055996 0)
(10.1802 0.0568834 0)
(10.197 0.0571262 0)
(10.2149 0.0558196 0)
(10.2331 0.0553806 0)
(10.2511 0.0532314 0)
(10.2691 0.0529598 0)
(10.2875 0.0495914 0)
(10.3073 0.0482592 0)
(10.3295 0.042343 0)
(10.3547 0.0372003 0)
(10.3851 0.0284356 0)
(10.4185 0.00986511 0)
(10.0125 0.0251292 0)
(10.0306 0.0581638 0)
(10.0584 0.0624435 0)
(10.0802 0.063846 0)
(10.0946 0.0664256 0)
(10.1072 0.0676673 0)
(10.1212 0.0671179 0)
(10.1371 0.0654329 0)
(10.1544 0.0634976 0)
(10.173 0.0612293 0)
(10.1928 0.0587937 0)
(10.2142 0.0556969 0)
(10.2373 0.0520445 0)
(10.2626 0.0470407 0)
(10.2899 0.0408377 0)
(10.3199 0.0319713 0)
(10.3517 0.0204159 0)
(10.3862 0.0012638 0)
(9.96793 0.0236557 0)
(9.98165 0.0430393 0)
(10.0052 0.0486825 0)
(10.0263 0.0484741 0)
(10.043 0.0492871 0)
(10.0585 0.0508951 0)
(10.0746 0.0510326 0)
(10.0915 0.0495655 0)
(10.1088 0.0468542 0)
(10.1268 0.0439137 0)
(10.1453 0.0406173 0)
(10.1649 0.0371084 0)
(10.1858 0.0327762 0)
(10.2089 0.0271239 0)
(10.2338 0.019781 0)
(10.2615 0.0093726 0)
(10.2903 -0.00401252 0)
(10.3211 -0.0230379 0)
(9.93159 0.0158537 0)
(9.94945 0.0351183 0)
(9.97315 0.048333 0)
(9.99282 0.0511781 0)
(10.0079 0.0513916 0)
(10.0222 0.0517915 0)
(10.0382 0.0515121 0)
(10.0562 0.0501179 0)
(10.0756 0.0477762 0)
(10.0955 0.0448081 0)
(10.1157 0.0411361 0)
(10.1362 0.0366387 0)
(10.1573 0.0309193 0)
(10.1795 0.0236139 0)
(10.2029 0.0142705 0)
(10.2278 0.00227834 0)
(10.2537 -0.0128045 0)
(10.2801 -0.0316508 0)
(10.0104 0.0190662 0)
(10.023 0.0328192 0)
(10.0343 0.0423619 0)
(10.0443 0.0436692 0)
(10.0538 0.042996 0)
(10.0627 0.0425816 0)
(10.0725 0.041199 0)
(10.0845 0.0381921 0)
(10.0994 0.034154 0)
(10.1167 0.0298372 0)
(10.1355 0.0254278 0)
(10.1554 0.0205397 0)
(10.1761 0.0145043 0)
(10.1975 0.00664196 0)
(10.2198 -0.0036327 0)
(10.2429 -0.0165719 0)
(10.2666 -0.0324767 0)
(10.2904 -0.0510677 0)
(9.98329 0.00423459 0)
(9.99784 0.0293005 0)
(10.0145 0.0409442 0)
(10.0277 0.0434715 0)
(10.0394 0.0431052 0)
(10.0519 0.0421016 0)
(10.066 0.0401247 0)
(10.0814 0.036782 0)
(10.097 0.0322635 0)
(10.112 0.0270849 0)
(10.1267 0.0214754 0)
(10.1419 0.0153155 0)
(10.1586 0.00808329 0)
(10.1771 -0.000767078 0)
(10.1979 -0.0119294 0)
(10.2199 -0.0255448 0)
(10.2434 -0.0420519 0)
(10.2661 -0.0607167 0)
(10.0351 0.00801134 0)
(10.0464 0.0265134 0)
(10.0635 0.0339161 0)
(10.0796 0.0360107 0)
(10.093 0.0350873 0)
(10.1049 0.0325322 0)
(10.1177 0.0293211 0)
(10.1324 0.0258999 0)
(10.1482 0.0221885 0)
(10.164 0.0179039 0)
(10.1797 0.0126717 0)
(10.1959 0.00593338 0)
(10.2132 -0.00285374 0)
(10.2322 -0.0140006 0)
(10.2529 -0.0276074 0)
(10.2748 -0.0433741 0)
(10.2971 -0.061252 0)
(10.319 -0.0804223 0)
(10.0137 0.00253906 0)
(10.0195 0.0202475 0)
(10.0304 0.0282371 0)
(10.0445 0.0327955 0)
(10.0592 0.0338495 0)
(10.0728 0.0313758 0)
(10.0851 0.0268886 0)
(10.0968 0.0216325 0)
(10.1086 0.0161073 0)
(10.1213 0.0102286 0)
(10.1356 0.00359469 0)
(10.1517 -0.00426094 0)
(10.1689 -0.0138944 0)
(10.1874 -0.0253953 0)
(10.2058 -0.039035 0)
(10.225 -0.0543749 0)
(10.2426 -0.071747 0)
(10.2616 -0.0902275 0)
(9.98709 0.00459039 0)
(9.9851 0.0160742 0)
(9.99357 0.0234286 0)
(10.0085 0.0252035 0)
(10.025 0.0230584 0)
(10.0412 0.0197664 0)
(10.0566 0.0166781 0)
(10.0715 0.0134197 0)
(10.086 0.00911181 0)
(10.1007 0.00327639 0)
(10.1156 -0.00429425 0)
(10.131 -0.0135724 0)
(10.1468 -0.0247493 0)
(10.163 -0.0377864 0)
(10.1797 -0.0528305 0)
(10.1963 -0.0695477 0)
(10.2133 -0.0881013 0)
(10.2296 -0.10776 0)
(10.008 0.00965303 0)
(10.012 0.0118246 0)
(10.0248 0.0191133 0)
(10.0391 0.0223165 0)
(10.0509 0.020904 0)
(10.0612 0.0171446 0)
(10.0724 0.0125228 0)
(10.0857 0.00736055 0)
(10.1011 0.00141432 0)
(10.1176 -0.0054793 0)
(10.1346 -0.0135386 0)
(10.1515 -0.0229441 0)
(10.1681 -0.0340019 0)
(10.1845 -0.0467612 0)
(10.2006 -0.0614443 0)
(10.2168 -0.0776788 0)
(10.2325 -0.09578 0)
(10.2487 -0.114799 0)
(9.97592 0.00210956 0)
(9.99156 0.00571773 0)
(10.007 0.0106444 0)
(10.0198 0.0127892 0)
(10.0318 0.0117392 0)
(10.0441 0.00826499 0)
(10.0564 0.00319527 0)
(10.0679 -0.00273292 0)
(10.0784 -0.00923252 0)
(10.0884 -0.0164017 0)
(10.0985 -0.0246746 0)
(10.1093 -0.0344472 0)
(10.121 -0.0461546 0)
(10.134 -0.0598828 0)
(10.148 -0.075823 0)
(10.1631 -0.0934646 0)
(10.1785 -0.112938 0)
(10.1946 -0.133224 0)
(10.0447 -0.00576613 0)
(10.0463 0.00725531 0)
(10.0494 0.0105244 0)
(10.0524 0.0103915 0)
(10.0564 0.00842678 0)
(10.0621 0.0049307 0)
(10.0694 0.000455936 0)
(10.0778 -0.00455642 0)
(10.087 -0.0102902 0)
(10.0969 -0.01746 0)
(10.108 -0.0266476 0)
(10.1204 -0.0379927 0)
(10.1341 -0.0514491 0)
(10.1485 -0.0666975 0)
(10.1636 -0.0836366 0)
(10.1784 -0.101764 0)
(10.1933 -0.121321 0)
(10.207 -0.141488 0)
(10.0516 0.00026163 0)
(10.0428 0.00720485 0)
(10.045 0.00802022 0)
(10.0531 0.00698169 0)
(10.0616 0.00404035 0)
(10.0693 -0.00103476 0)
(10.0777 -0.00788441 0)
(10.0878 -0.0158359 0)
(10.0994 -0.0244768 0)
(10.1119 -0.0339867 0)
(10.1248 -0.0448094 0)
(10.1376 -0.0573086 0)
(10.1499 -0.0716384 0)
(10.1618 -0.0876698 0)
(10.1729 -0.105259 0)
(10.1839 -0.123953 0)
(10.194 -0.143748 0)
(10.2046 -0.164094 0)
(10.0152 0.0109666 0)
(10.0164 0.00238336 0)
(10.0197 0.000174184 0)
(10.0251 -0.000161591 0)
(10.0323 -0.00239082 0)
(10.0399 -0.00739761 0)
(10.0473 -0.0145644 0)
(10.0552 -0.0227738 0)
(10.0639 -0.0314178 0)
(10.0736 -0.0406422 0)
(10.0839 -0.0509549 0)
(10.0945 -0.0626771 0)
(10.1046 -0.0759895 0)
(10.114 -0.0908463 0)
(10.1221 -0.10733 0)
(10.1293 -0.125316 0)
(10.1353 -0.144878 0)
(10.141 -0.165779 0)
(9.98369 -0.00557067 0)
(9.9888 0.00229467 0)
(9.99149 0.00184668 0)
(9.99344 -0.00319977 0)
(9.99789 -0.0088288 0)
(10.004 -0.0152595 0)
(10.0103 -0.0235612 0)
(10.0171 -0.0338619 0)
(10.0251 -0.0456097 0)
(10.0347 -0.0582194 0)
(10.0454 -0.0713774 0)
(10.0566 -0.0849563 0)
(10.0677 -0.0990195 0)
(10.0782 -0.113676 0)
(10.0881 -0.129218 0)
(10.0972 -0.145802 0)
(10.1057 -0.163711 0)
(10.1134 -0.182826 0)
(10.0024 -0.00340713 0)
(10.005 -0.00236 0)
(10.01 -0.00658093 0)
(10.0181 -0.012098 0)
(10.0282 -0.0169114 0)
(10.0385 -0.022382 0)
(10.0479 -0.0304308 0)
(10.0561 -0.0415418 0)
(10.0629 -0.0546877 0)
(10.0682 -0.0684754 0)
(10.0725 -0.0820187 0)
(10.0762 -0.0952771 0)
(10.0799 -0.108701 0)
(10.0836 -0.122971 0)
(10.0875 -0.138496 0)
(10.0912 -0.155475 0)
(10.0948 -0.173749 0)
(10.0976 -0.193123 0)
(10.0414 -0.000607271 0)
(10.0401 -0.00941568 0)
(10.0389 -0.0191879 0)
(10.039 -0.0279959 0)
(10.0423 -0.0357805 0)
(10.0475 -0.0432387 0)
(10.0529 -0.0504625 0)
(10.0578 -0.0576438 0)
(10.0621 -0.0653341 0)
(10.0656 -0.0743052 0)
(10.0685 -0.0851363 0)
(10.071 -0.0980643 0)
(10.0732 -0.112711 0)
(10.0748 -0.128556 0)
(10.0755 -0.144832 0)
(10.0754 -0.161326 0)
(10.0737 -0.177619 0)
(10.0711 -0.194069 0)
(9.97505 -0.00109042 0)
(9.97877 -0.00412382 0)
(9.98184 -0.0114498 0)
(9.98399 -0.0216604 0)
(9.98538 -0.031799 0)
(9.98726 -0.0408028 0)
(9.98967 -0.0493266 0)
(9.99192 -0.0585604 0)
(9.99364 -0.0691188 0)
(9.99466 -0.0807539 0)
(9.9947 -0.0928902 0)
(9.99357 -0.105123 0)
(9.99114 -0.117155 0)
(9.98769 -0.128957 0)
(9.98328 -0.140491 0)
(9.97841 -0.152098 0)
(9.97283 -0.163801 0)
(9.96727 -0.17615 0)
(9.97868 -0.00888642 0)
(9.97738 -0.0169442 0)
(9.97957 -0.0212009 0)
(9.98223 -0.0273666 0)
(9.98385 -0.0357806 0)
(9.98562 -0.0449959 0)
(9.98768 -0.0538513 0)
(9.98911 -0.0618613 0)
(9.98946 -0.0692094 0)
(9.98864 -0.0764951 0)
(9.98655 -0.0843369 0)
(9.98301 -0.093255 0)
(9.97821 -0.103387 0)
(9.97224 -0.114731 0)
(9.9655 -0.126914 0)
(9.95791 -0.139803 0)
(9.94998 -0.152923 0)
(9.94128 -0.166427 0)
(9.998 0.000666927 0)
(9.99578 -0.0127923 0)
(9.99793 -0.0214936 0)
(10.0026 -0.0295334 0)
(10.0061 -0.0378846 0)
(10.0074 -0.0463213 0)
(10.0072 -0.0543994 0)
(10.0062 -0.062085 0)
(10.0053 -0.0696368 0)
(10.0049 -0.0773365 0)
(10.0049 -0.0851843 0)
(10.0048 -0.093106 0)
(10.0042 -0.101029 0)
(10.0022 -0.109118 0)
(9.99891 -0.117421 0)
(9.99388 -0.126197 0)
(9.98772 -0.13533 0)
(9.98005 -0.145126 0)
(10.0522 -0.0025923 0)
(10.0604 -0.0175876 0)
(10.0666 -0.0261894 0)
(10.0691 -0.0327688 0)
(10.0684 -0.0391009 0)
(10.0666 -0.0457023 0)
(10.0646 -0.0526253 0)
(10.0621 -0.0598777 0)
(10.0586 -0.0675416 0)
(10.054 -0.0756588 0)
(10.0482 -0.0839487 0)
(10.0415 -0.0920471 0)
(10.0342 -0.0997069 0)
(10.0266 -0.10708 0)
(10.0187 -0.114425 0)
(10.0104 -0.122259 0)
(10.0018 -0.130672 0)
(9.99267 -0.140116 0)
(9.94774 -0.0130833 0)
(9.95425 -0.0153152 0)
(9.9617 -0.0230629 0)
(9.9686 -0.0310909 0)
(9.97346 -0.0376709 0)
(9.97614 -0.0437403 0)
(9.97771 -0.0498824 0)
(9.97877 -0.0557649 0)
(9.97917 -0.0612316 0)
(9.97855 -0.0665986 0)
(9.97657 -0.07218 0)
(9.97299 -0.0781081 0)
(9.96796 -0.0843331 0)
(9.96178 -0.0908347 0)
(9.95493 -0.0975083 0)
(9.94754 -0.104434 0)
(9.9398 -0.111519 0)
(9.93147 -0.119015 0)
(10.0132 -0.0157392 0)
(10.0181 -0.0251845 0)
(10.029 -0.0336467 0)
(10.0397 -0.0402542 0)
(10.0449 -0.0457067 0)
(10.0452 -0.0507572 0)
(10.0436 -0.0560046 0)
(10.0417 -0.0617115 0)
(10.0396 -0.06769 0)
(10.0367 -0.0735341 0)
(10.0328 -0.0789436 0)
(10.0275 -0.0839441 0)
(10.021 -0.0887927 0)
(10.0132 -0.0938929 0)
(10.0046 -0.0994656 0)
(9.99516 -0.10566 0)
(9.98556 -0.112305 0)
(9.97557 -0.119415 0)
(10.007 -0.0087999 0)
(10.017 -0.0280989 0)
(10.0283 -0.0343318 0)
(10.0381 -0.0366682 0)
(10.0444 -0.0393205 0)
(10.0477 -0.0431262 0)
(10.0496 -0.047676 0)
(10.0505 -0.0523578 0)
(10.0496 -0.05675 0)
(10.0468 -0.0607259 0)
(10.0422 -0.0643454 0)
(10.0365 -0.0678079 0)
(10.0302 -0.0713319 0)
(10.0234 -0.0751958 0)
(10.0163 -0.0796227 0)
(10.0087 -0.0847725 0)
(10.0004 -0.0905726 0)
(9.9913 -0.096985 0)
(10.0034 -0.0259484 0)
(10.0158 -0.0410554 0)
(10.0275 -0.0438769 0)
(10.0356 -0.0462 0)
(10.0397 -0.0506906 0)
(10.0409 -0.055361 0)
(10.0404 -0.0591945 0)
(10.0386 -0.062434 0)
(10.0354 -0.0655391 0)
(10.0307 -0.0687453 0)
(10.025 -0.0721117 0)
(10.0188 -0.0756924 0)
(10.0124 -0.0794991 0)
(10.0059 -0.0835965 0)
(9.99926 -0.0879798 0)
(9.99204 -0.0926736 0)
(9.98407 -0.0975498 0)
(9.97478 -0.102592 0)
(9.98777 -0.0203009 0)
(10.0038 -0.0354628 0)
(10.0203 -0.0375838 0)
(10.0315 -0.037723 0)
(10.0363 -0.0400794 0)
(10.0366 -0.0433929 0)
(10.036 -0.046407 0)
(10.0364 -0.0490597 0)
(10.0374 -0.0515838 0)
(10.0379 -0.0541343 0)
(10.0371 -0.0567624 0)
(10.0346 -0.0595692 0)
(10.0305 -0.0625807 0)
(10.0246 -0.0658789 0)
(10.0173 -0.0693852 0)
(10.0087 -0.0731273 0)
(9.99932 -0.0769354 0)
(9.98873 -0.0808658 0)
(9.96476 -0.0362351 0)
(10.0039 -0.0500686 0)
(10.035 -0.0521602 0)
(10.0544 -0.0529546 0)
(10.0664 -0.0548237 0)
(10.0737 -0.0574853 0)
(10.0769 -0.0604885 0)
(10.0758 -0.0634741 0)
(10.07 -0.0661061 0)
(10.0601 -0.0682633 0)
(10.0469 -0.0700278 0)
(10.0313 -0.0716826 0)
(10.0135 -0.0734274 0)
(9.99413 -0.0754913 0)
(9.97253 -0.0778853 0)
(9.9492 -0.080685 0)
(9.92318 -0.0837099 0)
(9.89574 -0.0869771 0)
(9.9398 -0.0442796 0)
(9.76821 -0.052478 0)
(9.59795 -0.0501986 0)
(9.42641 -0.047709 0)
(9.25756 -0.0470831 0)
(9.0924 -0.0470755 0)
(8.93105 -0.0466792 0)
(8.77382 -0.0458598 0)
(8.62084 -0.0450105 0)
(8.47222 -0.0444524 0)
(8.32766 -0.0442847 0)
(8.18699 -0.0444696 0)
(8.04942 -0.0448458 0)
(7.91507 -0.0453011 0)
(7.7827 -0.0456875 0)
(7.65336 -0.0460195 0)
(7.52489 -0.0462282 0)
(7.40031 -0.0464476 0)
(-0.0254344 0.0299737 -1.26064e-21)
(-0.0846044 0.032613 1.25309e-21)
(-0.145384 0.0367312 0)
(-0.211682 0.0429904 0)
(-0.283087 0.0507417 0)
(-0.361026 0.0595744 -1.23766e-21)
(-0.44548 0.0689006 0)
(-0.536774 0.0782306 0)
(-0.634589 0.087176 0)
(-0.738782 0.0955258 0)
(-0.848955 0.103197 1.24862e-21)
(-0.964749 0.110164 0)
(-1.08577 0.116443 0)
(-1.21156 0.122015 0)
(-1.34155 0.126857 0)
(-1.47513 0.130818 1.2911e-21)
(-1.6116 0.133822 0)
(-1.75015 0.135763 0)
(-1.88978 0.136562 0)
(-2.02945 0.136157 0)
(-2.16798 0.134505 0)
(-2.30409 0.131512 0)
(-2.43648 0.127166 0)
(-2.56375 0.121406 1.39765e-21)
(-2.68447 0.114281 -1.40743e-21)
(-2.79711 0.105766 1.41422e-21)
(-2.90013 0.0958821 1.41708e-21)
(-2.99191 0.0846709 0)
(-3.07083 0.0721888 0)
(-3.13531 0.0585269 -1.39123e-21)
(-3.18386 0.0438104 -1.3673e-21)
(-3.21501 0.0282278 0)
(-3.22749 0.0119347 0)
(-3.22028 -0.00481755 -1.23443e-21)
(-3.19253 -0.021765 0)
(-3.14375 -0.0386472 0)
(-3.07373 -0.0551708 9.95541e-22)
(-2.98261 -0.0710418 0)
(-2.87085 -0.085994 7.76608e-22)
(-2.73942 -0.0998311 1.30288e-21)
(-2.58969 -0.11242 0)
(-2.42301 -0.123658 0)
(-2.24098 -0.133457 0)
(-2.04535 -0.141758 0)
(-1.83799 -0.148533 0)
(-1.62085 -0.153746 -4.28286e-22)
(-1.39587 -0.157457 -7.18148e-22)
(-1.16501 -0.159744 -9.98574e-22)
(-0.930139 -0.160607 0)
(-0.69303 -0.160234 1.51942e-21)
(-0.455509 -0.158703 0)
(-0.218999 -0.156038 -1.97312e-21)
(0.015071 -0.152537 -2.17154e-21)
(0.245306 -0.148164 0)
(0.4706 -0.143166 0)
(0.690039 -0.137653 0)
(0.902785 -0.131732 -2.7683e-21)
(1.10823 -0.125532 0)
(1.30571 -0.119221 0)
(1.49508 -0.112774 0)
(1.67618 -0.106398 0)
(1.84877 -0.100091 0)
(2.01299 -0.0939507 0)
(2.16887 -0.0880098 0)
(2.31669 -0.0822643 0)
(2.45671 -0.0767515 3.20553e-21)
(2.58907 -0.0714852 0)
(2.71403 -0.0664722 0)
(2.83186 -0.0617148 -3.19157e-21)
(2.94282 -0.0572116 -3.17792e-21)
(3.04722 -0.0529589 0)
(3.14533 -0.0489511 3.14112e-21)
(3.23744 -0.0451812 -3.11904e-21)
(3.32383 -0.0416417 0)
(3.40479 -0.0383241 3.06969e-21)
(3.48057 -0.0352198 0)
(3.55145 -0.0323198 0)
(3.61768 -0.029615 -2.98768e-21)
(3.6795 -0.0270964 0)
(3.73717 -0.0247549 2.93055e-21)
(3.7909 -0.0225815 0)
(3.84092 -0.0205674 -2.87307e-21)
(3.88745 -0.0187039 -2.84451e-21)
(3.93068 -0.0169824 -2.81618e-21)
(3.97083 -0.0153946 -5.57632e-21)
(4.00807 -0.0139326 5.52102e-21)
(4.04258 -0.0125885 0)
(4.07454 -0.0113546 0)
(4.10411 -0.0102238 0)
(4.13144 -0.00918894 5.30862e-21)
(4.15668 -0.0082433 5.25797e-21)
(4.17997 -0.00738041 -5.20833e-21)
(4.20144 -0.00659411 0)
(4.22122 -0.00587847 5.11215e-21)
(4.23943 -0.00522788 5.0656e-21)
(4.25616 -0.00463696 5.02005e-21)
(4.27153 -0.00410063 0)
(4.28564 -0.00361413 0)
(4.29857 -0.00317303 0)
(4.31041 -0.00277311 4.84752e-21)
(4.32123 -0.00241046 0)
(4.33112 -0.00208139 0)
(4.34013 -0.00178246 -4.72761e-21)
(4.34834 -0.00151057 0)
(4.35579 -0.00126254 0)
(4.36255 -0.00103585 -4.61501e-21)
(4.36865 -0.000827297 0)
(4.37415 -0.000634801 0)
(4.37909 -0.000454849 4.50896e-21)
(4.38349 -0.000285812 4.47494e-21)
(4.38741 -0.000123604 0)
(4.39084 3.21604e-05 -4.40875e-21)
(4.39381 0.000180687 0)
(4.39635 0.000319082 4.34484e-21)
(4.39851 0.000445461 0)
(4.4003 0.000559446 4.28306e-21)
(4.40176 0.000660158 4.25291e-21)
(4.40291 0.000749363 0)
(4.40378 0.000827935 0)
(4.40438 0.000895945 0)
(4.40475 0.000954022 0)
(4.40491 0.00100298 0)
(4.40486 0.00104292 0)
(4.40465 0.0010731 0)
(4.40427 0.00109229 4.02728e-21)
(4.40376 0.00109976 -4.00079e-21)
(4.40314 0.00109603 0)
(4.40242 0.00108309 0)
(4.40162 0.00106378 0)
(4.40075 0.00104101 0)
(4.39983 0.00101713 -7.7465e-21)
(4.39884 0.00099366 0)
(4.39781 0.000971367 7.64866e-21)
(4.39672 0.000950537 -7.60058e-21)
(4.39559 0.000931203 0)
(4.3944 0.000913326 0)
(4.39318 0.000896848 0)
(4.39191 0.000881731 7.41341e-21)
(4.3906 0.000867927 7.36786e-21)
(4.38926 0.000855405 0)
(4.38787 0.000844106 7.27814e-21)
(4.38645 0.000833988 7.23397e-21)
(4.38499 0.000824993 -7.19024e-21)
(4.3835 0.00081708 0)
(4.38197 0.000810208 0)
(4.38042 0.000804357 -7.06163e-21)
(4.37882 0.000799507 0)
(4.3772 0.000795668 0)
(4.37553 0.000792857 0)
(4.37384 0.000791125 0)
(4.37211 0.000790531 6.85552e-21)
(4.37033 0.000791199 6.81549e-21)
(4.36852 0.000793237 0)
(4.36667 0.000796904 6.73663e-21)
(4.36476 0.000802333 0)
(4.3628 0.000810089 0)
(4.36078 0.000820206 6.62133e-21)
(4.3587 0.000833955 0)
(4.35653 0.000850907 6.54654e-21)
(4.35427 0.000873867 0)
(4.35188 0.000901239 0)
(4.34937 0.000938713 6.43776e-21)
(4.34667 0.000982785 0)
(4.34381 0.00104312 6.36789e-21)
(4.3406 0.00111594 0)
(4.33721 0.00121087 0)
(4.33316 0.00133878 0)
(4.32895 0.0014797 -6.23695e-21)
(4.32349 0.00172818 0)
(4.31796 0.00190664 6.17819e-21)
(4.31 0.00245529 0)
(4.30217 0.00256941 0)
(4.28985 0.00394487 0)
(4.27718 0.00355499 0)
(4.25747 0.00737645 0)
(4.23217 0.00496973 0)
(4.20074 0.0166764 0)
(4.13418 0.00814052 -1.22236e-20)
(4.08458 0.0521493 0)
(3.85671 0.0417564 0)
(-0.0489414 0.212276 3.79313e-21)
(-0.167726 0.23056 -3.76973e-21)
(-0.283244 0.238979 0)
(-0.402416 0.25295 2.49608e-21)
(-0.522778 0.267844 0)
(-0.645067 0.283319 1.23589e-21)
(-0.768599 0.298475 -2.48859e-21)
(-0.89357 0.3129 -2.4921e-21)
(-1.01975 0.326321 0)
(-1.14713 0.338568 -2.50785e-21)
(-1.27552 0.349553 -1.24583e-21)
(-1.4048 0.359151 0)
(-1.53476 0.367292 0)
(-1.66511 0.373799 0)
(-1.79551 0.378528 0)
(-1.92556 0.381239 -1.28792e-21)
(-2.05475 0.381756 0)
(-2.18257 0.379911 2.68319e-21)
(-2.30838 0.375525 0)
(-2.43155 0.36844 0)
(-2.55142 0.358548 -2.78387e-21)
(-2.66715 0.345692 0)
(-2.77786 0.329787 2.85057e-21)
(-2.88249 0.310704 -1.39478e-21)
(-2.97996 0.288366 1.40467e-21)
(-3.06918 0.26269 -1.4116e-21)
(-3.14893 0.233632 -1.41461e-21)
(-3.21789 0.201213 0)
(-3.27476 0.165526 0)
(-3.31818 0.126734 1.38928e-21)
(-3.34681 0.0850618 -1.49366e-21)
(-3.35939 0.0408989 0)
(-3.35474 -0.00534625 0)
(-3.33181 -0.0530842 1.23321e-21)
(-3.28974 -0.101693 0)
(-3.22799 -0.150429 0)
(-3.14621 -0.198523 -9.94855e-22)
(-3.04442 -0.245164 0)
(-2.92283 -0.28959 8.92857e-22)
(-2.78193 -0.331122 -1.30206e-21)
(-2.62249 -0.369189 0)
(-2.44592 -0.403315 0)
(-2.25379 -0.433102 -1.09753e-21)
(-2.04799 -0.458338 -4.87921e-22)
(-1.83039 -0.478857 1.24397e-22)
(-1.60305 -0.49469 -3.02859e-22)
(-1.36806 -0.50588 7.18111e-22)
(-1.12728 -0.512752 2.89723e-21)
(-0.882685 -0.51536 -2.44671e-21)
(-0.636158 -0.514237 -1.51878e-21)
(-0.389307 -0.509526 0)
(-0.143763 -0.501645 1.97232e-21)
(0.0990546 -0.490934 -2.12332e-21)
(0.337885 -0.477864 0)
(0.571461 -0.462751 0)
(0.79901 -0.446025 0)
(1.01973 -0.428115 2.7669e-21)
(1.23298 -0.409366 0)
(1.43819 -0.390162 -5.88848e-21)
(1.63526 -0.370688 0)
(1.824 -0.351361 -6.14632e-21)
(2.00427 -0.332261 0)
(2.17619 -0.313607 6.30252e-21)
(2.33991 -0.295521 0)
(2.49571 -0.278021 -6.37931e-21)
(2.64381 -0.2612 3.19051e-21)
(2.78438 -0.245095 0)
(2.91769 -0.229724 6.38719e-21)
(3.04399 -0.215091 3.18981e-21)
(3.16357 -0.201192 3.17617e-21)
(3.27671 -0.188014 0)
(3.38367 -0.17554 3.13028e-21)
(3.48474 -0.163751 3.11731e-21)
(3.58018 -0.152623 0)
(3.67026 -0.142132 -3.06798e-21)
(3.75523 -0.132255 6.07585e-21)
(3.83534 -0.122964 0)
(3.91083 -0.114235 2.98598e-21)
(3.98193 -0.106042 0)
(4.04887 -0.0983608 -8.78124e-21)
(4.11185 -0.0911656 0)
(4.17109 -0.0844324 8.60953e-21)
(4.22677 -0.0781377 2.84284e-21)
(4.27909 -0.0722585 -2.81044e-21)
(4.32823 -0.0667726 -5.5654e-21)
(4.37436 -0.0616585 5.51062e-21)
(4.41764 -0.0568953 0)
(4.45824 -0.052463 0)
(4.49629 -0.0483424 0)
(4.53195 -0.0445149 -1.59108e-20)
(4.56535 -0.0409628 -5.25473e-21)
(4.59661 -0.0376691 5.20511e-21)
(4.62587 -0.0346175 0)
(4.65323 -0.0317924 5.10496e-21)
(4.67881 -0.029179 -5.06242e-21)
(4.70271 -0.0267633 -5.01689e-21)
(4.72503 -0.0245317 0)
(4.74587 -0.0224714 0)
(4.76531 -0.0205705 0)
(4.78345 -0.0188176 -4.84444e-21)
(4.80036 -0.0172019 0)
(4.81612 -0.0157132 9.5252e-21)
(4.83081 -0.0143419 1.41718e-20)
(4.84449 -0.0130791 -9.37074e-21)
(4.85722 -0.0119163 0)
(4.86908 -0.0108456 -4.61045e-21)
(4.88012 -0.00985922 0)
(4.89039 -0.00895035 -9.08007e-21)
(4.89995 -0.00811159 4.5048e-21)
(4.90885 -0.00733712 4.4709e-21)
(4.91713 -0.00662029 0)
(4.92487 -0.00595755 1.32168e-20)
(4.93211 -0.00534709 -8.74652e-21)
(4.93887 -0.00478719 -4.34208e-21)
(4.94519 -0.00427507 0)
(4.95109 -0.0038064 -4.28034e-21)
(4.9566 -0.00337566 -1.275e-20)
(4.96175 -0.00298104 0)
(4.96656 -0.00262142 -8.38213e-21)
(4.97106 -0.00229471 -8.32464e-21)
(4.97525 -0.00199828 -8.26798e-21)
(4.97917 -0.00173 0)
(4.98284 -0.00148831 0)
(4.98626 -0.00127188 0)
(4.98945 -0.0010796 4.0244e-21)
(4.99242 -0.000910207 3.99828e-21)
(4.9952 -0.00076187 0)
(4.99777 -0.000631923 7.89246e-21)
(5.00017 -0.000517249 7.84152e-21)
(5.00239 -0.00041468 0)
(5.00444 -0.000321561 7.74169e-21)
(5.00634 -0.000235928 1.53847e-20)
(5.00808 -0.00015659 -7.64395e-21)
(5.00968 -8.2891e-05 -7.59559e-21)
(5.01115 -1.45254e-05 0)
(5.01249 4.87113e-05 0)
(5.01371 0.000106996 0)
(5.01482 0.000160581 -7.40893e-21)
(5.01583 0.000209747 7.3632e-21)
(5.01674 0.000254848 1.46366e-20)
(5.01755 0.000296221 -7.27381e-21)
(5.01829 0.000334238 7.22949e-21)
(5.01895 0.000369246 7.18599e-21)
(5.01954 0.000401605 0)
(5.02006 0.000431657 0)
(5.02052 0.000459752 -7.05736e-21)
(5.02092 0.000486227 0)
(5.02127 0.000511444 0)
(5.02157 0.00053577 1.38654e-20)
(5.02182 0.000559619 0)
(5.02202 0.000583429 6.85149e-21)
(5.02218 0.000607717 -6.81165e-21)
(5.0223 0.000633051 0)
(5.02237 0.000660153 6.73272e-21)
(5.0224 0.000689801 0)
(5.02238 0.00072309 0)
(5.02232 0.000761131 -6.61769e-21)
(5.0222 0.000805681 1.31601e-20)
(5.02202 0.000858399 -6.54298e-21)
(5.02176 0.000922073 0)
(5.02143 0.000999622 0)
(5.02099 0.00109474 6.43401e-21)
(5.02045 0.00121442 0)
(5.01973 0.00136002 6.36409e-21)
(5.01886 0.00155337 0)
(5.0177 0.00177748 0)
(5.01634 0.00210712 0)
(5.01442 0.00244553 6.2337e-21)
(5.01229 0.00304876 0)
(5.00904 0.00352813 -6.17499e-21)
(5.00567 0.00473691 0)
(4.99996 0.00530435 0)
(4.99451 0.00799264 1.22017e-20)
(4.98403 0.00829104 -1.21662e-20)
(4.97484 0.0149539 0)
(4.95441 0.0137951 0)
(4.93757 0.0325662 0)
(4.89566 0.0285538 3.65724e-20)
(4.8645 0.0938004 0)
(4.79057 0.104935 -2.4646e-20)
(-0.0538048 0.478293 4.51469e-23)
(-0.187031 0.511575 5.07698e-21)
(-0.313537 0.516261 0)
(-0.442436 0.527526 -5.03458e-21)
(-0.569724 0.538412 0)
(-0.696716 0.549759 0)
(-0.822845 0.56097 -4.88769e-23)
(-0.948603 0.571851 2.49033e-21)
(-1.07396 0.582082 2.5497e-21)
(-1.19917 0.591479 2.50605e-21)
(-1.32436 0.59986 0)
(-1.44958 0.60694 0)
(-1.57481 0.612471 -2.61778e-21)
(-1.70007 0.616196 -5.28638e-21)
(-1.82526 0.617828 5.34378e-21)
(-1.95026 0.617088 0)
(-2.07484 0.613677 5.47723e-21)
(-2.19877 0.607269 -2.68174e-21)
(-2.32171 0.597575 0)
(-2.44316 0.584254 5.71508e-21)
(-2.56259 0.567048 2.78253e-21)
(-2.67931 0.54566 -5.88563e-21)
(-2.79252 0.51981 -2.8492e-21)
(-2.90129 0.489224 0)
(-3.00447 0.453622 6.11949e-21)
(-3.10082 0.412771 6.17928e-21)
(-3.18888 0.366528 0)
(-3.267 0.314801 6.24648e-21)
(-3.33348 0.257634 0)
(-3.38662 0.195185 6.20961e-21)
(-3.42462 0.12778 2.85747e-21)
(-3.44574 0.0559066 0)
(-3.44836 -0.0197403 0)
(-3.43107 -0.0982537 0)
(-3.39268 -0.178592 0)
(-3.33238 -0.259512 0)
(-3.24976 -0.339713 0)
(-3.14485 -0.417849 4.2307e-21)
(-3.01811 -0.492582 -5.40839e-21)
(-2.87044 -0.562637 0)
(-2.70314 -0.626837 0)
(-2.51788 -0.68428 0)
(-2.31657 -0.734235 -3.01191e-22)
(-2.10138 -0.776294 4.86373e-22)
(-1.87448 -0.810243 -6.15714e-24)
(-1.63815 -0.836193 1.24572e-21)
(-1.39468 -0.854249 1.13205e-21)
(-1.14609 -0.864874 -1.89896e-21)
(-0.894408 -0.868492 1.48673e-22)
(-0.641578 -0.865682 -2.83358e-21)
(-0.389184 -0.857012 0)
(-0.138881 -0.843086 -3.79273e-21)
(0.10787 -0.824428 8.19184e-23)
(0.34976 -0.801854 0)
(0.585761 -0.775942 0)
(0.8149 -0.747342 5.20842e-21)
(1.03643 -0.716855 0)
(1.24991 -0.685103 0)
(1.45484 -0.652646 -5.8122e-21)
(1.65111 -0.619968 -1.19911e-20)
(1.83868 -0.587561 6.14424e-21)
(2.01758 -0.555651 0)
(2.18792 -0.524559 -6.30059e-21)
(2.34998 -0.494455 0)
(2.50407 -0.465416 -6.32955e-21)
(2.65044 -0.437553 -6.39263e-21)
(2.78932 -0.410914 1.27472e-20)
(2.921 -0.385519 6.34601e-21)
(3.04576 -0.361368 0)
(3.16389 -0.338446 -1.26466e-20)
(3.27568 -0.316728 0)
(3.38142 -0.296182 -1.87752e-20)
(3.48138 -0.276769 -1.24216e-20)
(3.57585 -0.258451 -1.2329e-20)
(3.66508 -0.241185 1.22303e-20)
(3.74933 -0.224928 -1.8202e-20)
(3.82885 -0.209635 0)
(3.90388 -0.195262 0)
(3.97464 -0.181766 1.17986e-20)
(4.04135 -0.169104 1.75379e-20)
(4.10423 -0.157234 0)
(4.16347 -0.146115 -5.73771e-21)
(4.21927 -0.135707 0)
(4.27181 -0.125972 1.68605e-20)
(4.32127 -0.116873 1.23782e-23)
(4.36781 -0.108374 -1.15059e-23)
(4.41158 -0.100441 -1.09086e-20)
(4.45275 -0.0930407 0)
(4.49145 -0.0861424 1.06986e-20)
(4.52781 -0.079716 8.55398e-24)
(4.56198 -0.0737328 0)
(4.59405 -0.0681656 0)
(4.62417 -0.0629886 0)
(4.65242 -0.0581774 -1.02136e-20)
(4.67892 -0.0537085 0)
(4.70377 -0.04956 0)
(4.72705 -0.0457111 0)
(4.74887 -0.0421418 0)
(4.76929 -0.0388337 0)
(4.7884 -0.0357691 -9.68213e-21)
(4.80628 -0.0329315 0)
(4.823 -0.0303052 -9.52496e-21)
(4.83863 -0.0278757 -9.44693e-21)
(4.85323 -0.0256289 9.37051e-21)
(4.86685 -0.0235522 0)
(4.87957 -0.0216333 9.22229e-21)
(4.89144 -0.0198612 0)
(4.9025 -0.0182249 9.07986e-21)
(4.9128 -0.0167148 -9.01068e-21)
(4.9224 -0.0153214 -2.68249e-20)
(4.93134 -0.0140374 0)
(4.93966 -0.0128549 -2.6429e-20)
(4.94739 -0.0117668 -8.74365e-21)
(4.95459 -0.0107653 0)
(4.96128 -0.00984229 -1.72396e-20)
(4.9675 -0.00899073 -1.71174e-20)
(4.97329 -0.00820385 2.54968e-20)
(4.97866 -0.0074794 0)
(4.98365 -0.00681514 8.38194e-21)
(4.98829 -0.00620666 8.32445e-21)
(4.99259 -0.00564884 2.48021e-20)
(4.99658 -0.00513798 0)
(5.00028 -0.00467088 0)
(5.00371 -0.00424449 0)
(5.00689 -0.00385623 8.04804e-21)
(5.00983 -0.00350361 0)
(5.01255 -0.00318365 0)
(5.01506 -0.00289263 -7.89227e-21)
(5.01739 -0.00262642 -7.84134e-21)
(5.01953 -0.00238095 0)
(5.0215 -0.00215284 0)
(5.02332 -0.0019397 -1.53844e-20)
(5.025 -0.00174014 0)
(5.02654 -0.00155349 1.51912e-20)
(5.02796 -0.00137949 1.50958e-20)
(5.02927 -0.00121795 0)
(5.03047 -0.00106857 0)
(5.03158 -0.000930901 -1.4817e-20)
(5.0326 -0.000804346 -2.54046e-25)
(5.03353 -0.000688181 -2.33699e-25)
(5.03438 -0.000581633 0)
(5.03517 -0.000483899 -2.89175e-20)
(5.03588 -0.000394192 0)
(5.03654 -0.000311728 0)
(5.03714 -0.00023575 0)
(5.03768 -0.000165515 1.41146e-20)
(5.03818 -0.000100297 0)
(5.03863 -3.93606e-05 -2.78946e-20)
(5.03904 1.80451e-05 -1.38651e-20)
(5.03941 7.27009e-05 0)
(5.03974 0.000125455 -1.37028e-20)
(5.04003 0.000177202 0)
(5.04028 0.000229008 0)
(5.04049 0.000281969 -4.03955e-20)
(5.04067 0.000337606 2.67751e-20)
(5.04081 0.000397296 0)
(5.0409 0.000463498 2.64694e-20)
(5.04094 0.000537794 -1.31597e-20)
(5.04093 0.000624732 0)
(5.04085 0.000725399 0)
(5.0407 0.000849343 0)
(5.04045 0.000994354 -3.86033e-20)
(5.0401 0.00118272 0)
(5.03959 0.00139968 -1.27283e-20)
(5.03892 0.00170122 0)
(5.03799 0.00203197 0)
(5.03684 0.00253844 0)
(5.03522 0.0030444 0)
(5.03328 0.00394002 0)
(5.03047 0.00470565 0)
(5.0272 0.00638719 -2.45826e-20)
(5.02228 0.00751792 0)
(5.0167 0.0109063 -1.22014e-20)
(5.00789 0.0125484 3.64831e-20)
(4.99801 0.0200014 0)
(4.98185 0.0227533 0)
(4.9637 0.0413753 -2.42327e-20)
(4.93501 0.0499593 -2.4354e-20)
(4.90436 0.104205 2.4339e-20)
(4.86881 0.141981 2.46429e-20)
(-0.051165 0.731101 -7.87715e-21)
(-0.181372 0.780629 -7.82824e-21)
(-0.304069 0.781407 -5.24362e-21)
(-0.429661 0.789845 -2.6877e-21)
(-0.553478 0.797169 0)
(-0.677315 0.805251 5.21685e-21)
(-0.800573 0.813535 -2.68859e-21)
(-0.923802 0.821856 0)
(-1.04705 0.82995 -2.54895e-21)
(-1.17072 0.837613 0)
(-1.29494 0.84447 5.32673e-21)
(-1.41986 0.850228 0)
(-1.5456 0.85457 2.61707e-21)
(-1.67232 0.857169 5.28493e-21)
(-1.80007 0.857617 -5.34232e-21)
(-1.92874 0.855484 0)
(-2.05814 0.850315 -5.47564e-21)
(-2.18803 0.84162 0)
(-2.31804 0.828942 0)
(-2.44776 0.811784 -5.713e-21)
(-2.57663 0.789646 0)
(-2.70399 0.761969 -3.54784e-22)
(-2.82889 0.7282 0)
(-2.95015 0.687772 0)
(-3.0664 0.640165 4.43624e-22)
(-3.17605 0.584908 -6.17509e-21)
(-3.27733 0.521637 -6.72749e-21)
(-3.36835 0.450105 -6.24162e-21)
(-3.44708 0.370232 0)
(-3.51145 0.282147 -1.30118e-20)
(-3.55935 0.186285 0)
(-3.5887 0.0833616 -6.67021e-21)
(-3.59749 -0.025583 0)
(-3.58397 -0.13919 0)
(-3.54673 -0.255828 6.05376e-21)
(-3.48484 -0.37361 0)
(-3.39791 -0.490439 -5.32576e-21)
(-3.2861 -0.604087 6.38683e-22)
(-3.15006 -0.712336 8.08252e-21)
(-2.99095 -0.813238 -7.54744e-21)
(-2.81053 -0.905175 0)
(-2.61096 -0.986885 0)
(-2.39461 -1.05748 -2.29185e-21)
(-2.16409 -1.11636 0)
(-1.92203 -1.16331 -1.17615e-22)
(-1.67098 -1.19851 -5.14903e-22)
(-1.4135 -1.2223 -1.13285e-21)
(-1.15193 -1.23536 0)
(-0.88839 -1.23851 2.29756e-21)
(-0.624949 -1.23257 2.83302e-21)
(-0.363201 -1.21847 -6.33707e-21)
(-0.104712 -1.19695 3.79155e-21)
(0.148904 -1.16898 4.20907e-21)
(0.396356 -1.13543 0)
(0.636644 -1.09726 0)
(0.868821 -1.05555 -5.20646e-21)
(1.09218 -1.01125 0)
(1.30646 -0.965456 0)
(1.51138 -0.918884 1.1694e-20)
(1.70698 -0.87221 1.19864e-20)
(1.89338 -0.826099 0)
(2.07072 -0.780951 0)
(2.23919 -0.737116 0)
(2.39923 -0.694767 0)
(2.55122 -0.654036 1.27028e-20)
(2.6954 -0.615032 -1.26726e-20)
(2.83208 -0.577799 -1.27433e-20)
(2.96157 -0.542346 -2.54005e-20)