/*--------------------------------*- C++ -*----------------------------------*\
  =========                 |
  \\      /  F ield         | OpenFOAM: The Open Source CFD Toolbox
   \\    /   O peration     | Website:  https://openfoam.org
    \\  /    A nd           | Version:  9
     \\/     M anipulation  |
\*---------------------------------------------------------------------------*/
FoamFile
{
    format      ascii;
    class       volScalarField;
    location    "0.07";
    object      p;
}
// * * * * * * * * * * * * * * * * * * * * * * * * * * * * * * * * * * * * * //

dimensions      [0 2 -2 0 0 0 0];

internalField   nonuniform List<scalar> 
12225
(
-132.329
-131.858
-131.963
-131.589
-130.98
-130.211
-129.335
-128.466
-127.694
-127.029
-126.425
-125.828
-125.223
-124.66
-124.159
-123.803
-123.494
-123.223
-132.274
-131.851
-131.965
-131.601
-130.984
-130.213
-129.348
-128.494
-127.728
-127.056
-126.437
-125.827
-125.217
-124.652
-124.156
-123.777
-123.491
-123.227
-130.464
-131.752
-132
-131.644
-131.011
-130.229
-129.362
-128.517
-127.75
-127.062
-126.419
-125.799
-125.196
-124.643
-124.157
-123.769
-123.465
-123.212
-129.828
-131.764
-132.052
-131.681
-131.042
-130.251
-129.389
-128.545
-127.773
-127.07
-126.414
-125.789
-125.189
-124.635
-124.147
-123.737
-123.411
-123.165
-129.904
-131.882
-132.17
-131.782
-131.105
-130.283
-129.4
-128.558
-127.785
-127.071
-126.4
-125.766
-125.164
-124.608
-124.113
-123.689
-123.346
-123.09
-128.646
-132.126
-132.348
-131.884
-131.177
-130.337
-129.448
-128.592
-127.804
-127.073
-126.387
-125.742
-125.136
-124.573
-124.066
-123.627
-123.268
-122.985
-130.202
-132.716
-132.621
-132.039
-131.274
-130.37
-129.45
-128.592
-127.804
-127.066
-126.37
-125.715
-125.102
-124.532
-124.013
-123.551
-123.153
-122.833
-132.531
-133.576
-133.036
-132.227
-131.381
-130.471
-129.522
-128.637
-127.824
-127.066
-126.348
-125.675
-125.05
-124.47
-123.937
-123.456
-123.028
-122.655
-135.138
-134.761
-133.483
-132.436
-131.486
-130.482
-129.511
-128.627
-127.815
-127.048
-126.321
-125.639
-125.003
-124.409
-123.853
-123.336
-122.863
-122.43
-139.009
-136.115
-134.094
-132.703
-131.627
-130.586
-129.58
-128.667
-127.827
-127.039
-126.289
-125.583
-124.922
-124.302
-123.723
-123.18
-122.672
-122.186
-141.903
-137.277
-134.465
-132.929
-131.734
-130.63
-129.6
-128.659
-127.815
-127.012
-126.249
-125.534
-124.862
-124.224
-123.612
-123.026
-122.472
-121.927
-144.737
-138.235
-134.897
-133.122
-131.831
-130.674
-129.621
-128.685
-127.817
-126.994
-126.209
-125.468
-124.772
-124.11
-123.478
-122.874
-122.287
-121.697
-147.992
-138.762
-135.064
-133.239
-131.916
-130.717
-129.632
-128.668
-127.793
-126.955
-126.157
-125.409
-124.703
-124.023
-123.363
-122.717
-122.07
-121.436
-145.707
-138.113
-134.976
-133.247
-131.928
-130.707
-129.61
-128.64
-127.76
-126.908
-126.093
-125.322
-124.591
-123.888
-123.206
-122.54
-121.886
-121.232
-137.339
-135.546
-134.42
-133.137
-131.916
-130.694
-129.6
-128.637
-127.726
-126.845
-126.012
-125.23
-124.485
-123.76
-123.051
-122.355
-121.663
-120.969
-138.058
-134.67
-133.886
-133.003
-131.813
-130.603
-129.522
-128.547
-127.607
-126.715
-125.877
-125.089
-124.33
-123.59
-122.866
-122.159
-121.459
-120.758
-124.646
-133.804
-133.893
-133.09
-131.755
-130.511
-129.468
-128.482
-127.522
-126.61
-125.761
-124.965
-124.199
-123.452
-122.714
-121.995
-121.287
-120.584
-136.878
-136.012
-134.124
-132.694
-131.499
-130.315
-129.221
-128.225
-127.272
-126.369
-125.53
-124.741
-123.98
-123.24
-122.526
-121.833
-121.155
-120.489
-146.105
-139.184
-135.789
-133.394
-131.505
-130.056
-128.921
-127.914
-126.973
-126.102
-125.297
-124.535
-123.801
-123.095
-122.414
-121.754
-121.112
-120.485
-148.623
-138.768
-134.45
-132.155
-130.557
-129.35
-128.331
-127.411
-126.56
-125.759
-125.006
-124.285
-123.596
-122.93
-122.291
-121.68
-121.093
-120.529
-131.211
-131.182
-131.124
-130.297
-129.389
-128.484
-127.689
-126.932
-126.208
-125.497
-124.791
-124.117
-123.474
-122.854
-122.259
-121.683
-121.13
-120.596
-121.515
-128.082
-129.014
-128.878
-128.429
-127.861
-127.185
-126.515
-125.87
-125.229
-124.582
-123.951
-123.347
-122.766
-122.203
-121.663
-121.142
-120.64
-124.186
-126.708
-127.548
-127.798
-127.651
-127.273
-126.759
-126.197
-125.622
-125.03
-124.431
-123.841
-123.272
-122.719
-122.183
-121.659
-121.158
-120.678
-128.471
-126.584
-126.992
-127.253
-127.173
-126.875
-126.459
-125.96
-125.419
-124.868
-124.309
-123.748
-123.194
-122.659
-122.142
-121.644
-121.169
-120.713
-122.538
-125.328
-126.433
-126.793
-126.772
-126.563
-126.233
-125.791
-125.282
-124.751
-124.215
-123.678
-123.151
-122.636
-122.137
-121.656
-121.193
-120.746
-121.164
-125.046
-126.199
-126.57
-126.589
-126.388
-126.074
-125.666
-125.188
-124.681
-124.163
-123.639
-123.113
-122.602
-122.111
-121.641
-121.189
-120.755
-124.526
-125.401
-126.162
-126.439
-126.42
-126.247
-125.966
-125.588
-125.133
-124.638
-124.125
-123.602
-123.081
-122.577
-122.098
-121.643
-121.208
-120.787
-124.327
-125.536
-126.168
-126.393
-126.348
-126.175
-125.902
-125.536
-125.094
-124.608
-124.1
-123.581
-123.059
-122.557
-122.083
-121.636
-121.209
-120.798
-127.588
-125.897
-126.183
-126.349
-126.298
-126.133
-125.872
-125.517
-125.083
-124.598
-124.085
-123.557
-123.031
-122.528
-122.062
-121.629
-121.221
-120.828
-126.6
-125.911
-126.215
-126.355
-126.286
-126.111
-125.851
-125.503
-125.079
-124.6
-124.087
-123.553
-123.019
-122.511
-122.046
-121.62
-121.223
-120.839
-113.009
-113.297
-113.716
-113.784
-113.283
-112.347
-111.438
-110.997
-111.129
-111.849
-113.024
-114.491
-116.114
-117.788
-119.437
-121.002
-122.442
-123.723
-124.827
-125.733
-126.439
-126.934
-127.232
-127.351
-127.283
-127.096
-126.757
-126.401
-126.102
-125.897
-126.352
-127.459
-128.75
-130.018
-130.956
-131.335
-131.021
-130.513
-130.78
-132.217
-134.213
-136.328
-138.458
-140.376
-141.819
-142.892
-143.843
-144.662
-145.243
-145.465
-145.255
-144.556
-143.33
-141.561
-139.273
-136.536
-133.463
-130.208
-126.967
-123.95
-121.364
-119.302
-117.798
-116.77
-116.432
-116.929
-112.297
-105.202
-106.574
-117.208
-131.442
-144.342
-155.919
-164.391
-170.325
-173.797
-175.089
-174.68
-172.803
-169.865
-166.108
-161.757
-157.014
-152.029
-146.91
-141.765
-136.655
-131.618
-126.687
-121.871
-117.169
-112.582
-108.104
-103.733
-99.4706
-95.3261
-91.311
-87.4406
-83.7325
-80.205
-76.8762
-73.7641
-70.8858
-68.2561
-65.8859
-63.7783
-61.9265
-60.3126
-58.9094
-57.6857
-56.6102
-55.6566
-54.8078
-54.0508
-53.384
-52.8133
-52.3474
-51.9896
-51.7342
-51.5668
-51.4663
-51.4099
-51.3768
-51.3504
-51.3186
-51.2716
-51.2046
-51.1112
-50.987
-50.8294
-50.6375
-50.4116
-50.1496
-49.857
-49.5359
-49.1897
-48.8223
-48.4386
-48.0436
-47.6421
-47.2398
-46.8448
-46.4685
-46.1244
-45.8206
-45.5515
-45.2938
-45.0151
-44.6817
-44.283
-43.8503
-43.4268
-43.0528
-42.7571
-42.5318
-42.3458
-42.1239
-41.6914
-40.8331
-39.4218
-37.3899
-34.8845
-32.2947
-29.9213
-27.7768
-25.9672
-24.5252
-21.9162
-18.6641
-18.7993
-22.107
-22.7611
-21.6307
-21.1974
-22.0392
-24.7109
-29.5747
-36.8302
-44.5392
-49.9508
-114.52
-114.785
-115.122
-115.4
-114.821
-114.021
-113.348
-113.131
-113.439
-114.219
-115.331
-116.647
-118.073
-119.541
-120.994
-122.387
-123.679
-124.838
-125.84
-126.675
-127.332
-127.828
-128.177
-128.362
-128.386
-128.283
-128.104
-127.83
-127.686
-127.517
-127.769
-128.883
-129.632
-130.006
-130.85
-131.998
-132.55
-132.341
-132.673
-134.101
-135.911
-137.676
-139.405
-140.956
-142.157
-143.178
-144.248
-145.337
-146.197
-146.588
-146.436
-145.78
-144.613
-142.899
-140.645
-137.91
-134.798
-131.453
-128.048
-124.761
-121.76
-119.185
-117.462
-116.49
-114.82
-115.319
-119.063
-118.35
-121.955
-133.598
-144.658
-155.589
-164.459
-170.928
-175.29
-177.351
-177.772
-176.655
-174.364
-171.11
-167.135
-162.636
-157.765
-152.692
-147.504
-142.304
-137.157
-132.092
-127.143
-122.315
-117.605
-113.011
-108.525
-104.144
-99.8699
-95.7108
-91.6792
-87.791
-84.0641
-80.5169
-77.1674
-74.0329
-71.1307
-68.4766
-66.0829
-63.9553
-62.0888
-60.4665
-59.0605
-57.8371
-56.7627
-55.8091
-54.9574
-54.1929
-53.5134
-52.9247
-52.4365
-52.055
-51.7779
-51.5931
-51.4804
-51.4172
-51.382
-51.3572
-51.3291
-51.2865
-51.2205
-51.1266
-51.0014
-50.8426
-50.6493
-50.4214
-50.1594
-49.8664
-49.5449
-49.1981
-48.8298
-48.445
-48.0485
-47.6453
-47.2407
-46.8425
-46.4628
-46.117
-45.8149
-45.5516
-45.3025
-45.0272
-44.6953
-44.291
-43.8509
-43.4214
-43.0446
-42.7524
-42.5366
-42.3732
-42.1978
-41.8064
-40.9879
-39.6129
-37.6084
-35.0949
-32.4787
-30.1063
-27.9841
-26.1597
-24.8679
-23.0179
-20.1037
-20.4086
-22.5181
-22.4588
-21.4512
-21.0334
-21.8418
-24.5809
-29.6632
-36.9587
-45.0773
-50.6707
-113.459
-113.458
-113.732
-114.258
-114.618
-114.787
-114.977
-115.37
-116.013
-116.871
-117.886
-119.018
-120.232
-121.496
-122.77
-124.013
-125.183
-126.247
-127.174
-127.947
-128.553
-128.994
-129.244
-129.395
-129.469
-129.461
-129.405
-129.298
-129.219
-129.145
-129.11
-129.244
-129.225
-129.35
-129.95
-130.573
-130.858
-131.138
-131.971
-133.536
-135.411
-137.344
-139.266
-141.024
-142.515
-143.806
-145.042
-146.222
-147.212
-147.854
-148.114
-147.776
-146.802
-145.185
-142.958
-140.205
-137.051
-133.656
-130.177
-126.758
-123.571
-120.856
-118.71
-117.861
-119.515
-122.687
-128.727
-135.038
-141.928
-150.94
-159.06
-166.961
-173.349
-177.957
-180.812
-181.823
-181.387
-179.625
-176.822
-173.173
-168.895
-164.17
-159.122
-153.911
-148.62
-143.337
-138.129
-133.023
-128.041
-123.19
-118.461
-113.848
-109.343
-104.939
-100.637
-96.4473
-92.3825
-88.4597
-84.6976
-81.1147
-77.7283
-74.555
-71.6113
-68.9139
-66.4773
-64.3106
-62.413
-60.771
-59.3565
-58.1329
-57.0599
-56.1064
-55.2511
-54.4792
-53.7849
-53.1734
-52.6562
-52.2422
-51.9323
-51.7177
-51.5808
-51.4993
-51.4503
-51.4143
-51.3773
-51.3253
-51.2536
-51.1557
-51.0277
-50.867
-50.6716
-50.4412
-50.1801
-49.8838
-49.5596
-49.2099
-48.8388
-48.4512
-48.0527
-47.648
-47.2414
-46.8392
-46.454
-46.1039
-45.8028
-45.5489
-45.3156
-45.0459
-44.7234
-44.3072
-43.8503
-43.4102
-43.0265
-42.7331
-42.5403
-42.4241
-42.31
-42.0264
-41.3123
-39.9886
-38.0253
-35.5347
-32.8822
-30.481
-28.3719
-26.602
-25.3526
-23.8689
-21.8248
-21.5994
-22.6767
-22.5913
-21.4333
-20.7924
-21.5814
-24.4122
-29.7988
-37.3265
-46.0592
-51.8872
-113.566
-113.48
-113.661
-114.273
-115.065
-115.823
-116.534
-117.252
-118.029
-118.886
-119.835
-120.876
-121.996
-123.165
-124.342
-125.483
-126.542
-127.483
-128.279
-128.918
-129.403
-129.748
-129.975
-130.071
-130.077
-130.03
-129.955
-129.845
-129.736
-129.614
-129.431
-129.195
-128.823
-128.345
-127.834
-127.5
-127.737
-128.992
-130.596
-132.545
-134.595
-136.608
-138.607
-140.588
-142.532
-144.448
-146.297
-148.019
-149.474
-150.531
-150.992
-150.864
-150.052
-148.513
-146.28
-143.466
-140.237
-136.816
-133.424
-130.154
-127.081
-124.511
-123.306
-124.453
-128.77
-135.553
-143.187
-150.945
-158.46
-165.964
-172.42
-178.165
-182.598
-185.508
-186.913
-186.844
-185.532
-183.077
-179.745
-175.686
-171.095
-166.132
-160.903
-155.543
-150.14
-144.77
-139.494
-134.338
-129.318
-124.434
-119.675
-115.031
-110.491
-106.048
-101.703
-97.4653
-93.3516
-89.3797
-85.5693
-81.9388
-78.5048
-75.2826
-72.2875
-69.5356
-67.0425
-64.821
-62.8755
-61.1996
-59.7639
-58.5263
-57.4457
-56.4861
-55.6222
-54.8386
-54.1307
-53.5033
-52.9661
-52.5268
-52.1867
-51.9388
-51.7682
-51.6551
-51.5781
-51.5181
-51.4596
-51.3945
-51.3102
-51.2014
-51.0641
-50.8952
-50.6934
-50.4581
-50.1907
-49.8948
-49.5704
-49.2208
-48.8487
-48.4588
-48.0563
-47.6466
-47.2346
-46.8267
-46.4349
-46.0811
-45.7841
-45.547
-45.3426
-45.1166
-44.7761
-44.3364
-43.8527
-43.396
-43.0041
-42.7129
-42.5496
-42.5018
-42.5014
-42.3607
-41.7898
-40.5724
-38.6732
-36.2101
-33.5257
-31.0781
-28.9837
-27.2259
-26.0509
-24.9259
-23.348
-22.885
-23.5651
-23.2319
-21.7644
-20.8818
-21.4413
-24.2916
-30.1126
-38.4084
-47.4671
-53.8141
-113.407
-113.65
-114.302
-115.203
-116.149
-117.06
-117.925
-118.772
-119.648
-120.593
-121.629
-122.754
-123.947
-125.173
-126.389
-127.545
-128.589
-129.48
-130.186
-130.69
-130.995
-131.133
-131.114
-130.989
-130.795
-130.551
-130.285
-130.013
-129.775
-129.554
-129.289
-128.932
-128.389
-127.664
-126.794
-126.356
-127.052
-128.202
-129.81
-131.771
-133.953
-136.249
-138.618
-141.033
-143.466
-145.876
-148.195
-150.33
-152.165
-153.596
-154.471
-154.702
-154.172
-152.806
-150.629
-147.767
-144.457
-141.098
-137.921
-135.022
-132.55
-131.118
-131.785
-135.549
-142.348
-150.51
-158.208
-165.401
-172.336
-178.753
-184.087
-188.316
-191.229
-192.752
-192.937
-191.908
-189.782
-186.684
-182.848
-178.413
-173.537
-168.353
-162.959
-157.465
-151.956
-146.503
-141.161
-135.955
-130.892
-125.968
-121.169
-116.481
-111.892
-107.396
-102.993
-98.6956
-94.5207
-90.4891
-86.6207
-82.9339
-79.4446
-76.1667
-73.1133
-70.2988
-67.7386
-65.4492
-63.4424
-61.7176
-60.2454
-58.9858
-57.8938
-56.9264
-56.0514
-55.2509
-54.5233
-53.8783
-53.3263
-52.8712
-52.5102
-52.2352
-52.0334
-51.887
-51.7764
-51.6839
-51.5954
-51.5009
-51.3919
-51.2634
-51.1112
-50.9317
-50.7219
-50.4807
-50.2083
-49.9073
-49.58
-49.2288
-48.856
-48.4644
-48.0581
-47.6428
-47.2246
-46.8105
-46.4123
-46.0558
-45.7642
-45.5485
-45.3781
-45.1706
-44.8374
-44.3669
-43.8514
-43.3806
-42.987
-42.7028
-42.5757
-42.6144
-42.7672
-42.8358
-42.4602
-41.3829
-39.5653
-37.1413
-34.4428
-31.9407
-29.8368
-28.1438
-27.0624
-26.1619
-24.9641
-24.5164
-24.9506
-24.4708
-22.8405
-21.5996
-21.7822
-24.5175
-30.7966
-39.9487
-49.7025
-56.5182
-114.198
-114.71
-115.688
-116.662
-117.598
-118.497
-119.388
-120.309
-121.294
-122.363
-123.52
-124.749
-126.023
-127.302
-128.541
-129.69
-130.696
-131.516
-132.115
-132.478
-132.618
-132.55
-132.321
-131.986
-131.579
-131.119
-130.629
-130.148
-129.725
-129.352
-128.985
-128.536
-127.922
-127.077
-126.036
-125.645
-126.198
-127.342
-128.959
-130.962
-133.271
-135.833
-138.604
-141.528
-144.518
-147.475
-150.289
-152.869
-155.142
-157.039
-158.426
-159.178
-159.097
-158.032
-156.004
-153.189
-149.892
-146.723
-143.897
-141.63
-140.245
-140.489
-143.366
-149.21
-156.88
-164.678
-171.806
-178.346
-184.421
-189.763
-194.027
-197.07
-198.804
-199.239
-198.479
-196.598
-193.776
-190.147
-185.892
-181.143
-176.028
-170.66
-165.126
-159.521
-153.924
-148.402
-143.001
-137.746
-132.639
-127.671
-122.825
-118.085
-113.44
-108.882
-104.416
-100.052
-95.811
-91.7145
-87.7825
-84.0331
-80.4812
-77.1401
-74.0216
-71.1377
-68.5019
-66.1319
-64.0492
-62.2539
-60.7322
-59.4487
-58.3546
-57.3975
-56.5315
-55.7277
-54.9809
-54.3069
-53.7263
-53.2495
-52.872
-52.5779
-52.3483
-52.167
-52.0195
-51.8911
-51.768
-51.6405
-51.5019
-51.3474
-51.173
-50.9755
-50.7529
-50.5027
-50.2239
-49.9182
-49.5875
-49.2353
-48.8632
-48.4724
-48.0643
-47.643
-47.2158
-46.7924
-46.3843
-46.0276
-45.744
-45.5545
-45.4227
-45.2275
-44.8944
-44.3852
-43.8415
-43.3661
-42.9769
-42.7038
-42.6176
-42.7659
-43.1311
-43.4668
-43.3263
-42.4021
-40.6876
-38.3327
-35.6232
-33.0446
-30.9236
-29.2842
-28.3107
-27.6941
-26.8515
-26.451
-26.6816
-26.1919
-24.6115
-23.1036
-22.8706
-25.4092
-32.0964
-42.15
-52.7458
-60.0694
-116.473
-117.009
-117.724
-118.466
-119.241
-120.058
-120.928
-121.869
-122.902
-124.035
-125.262
-126.556
-127.876
-129.178
-130.411
-131.529
-132.483
-133.233
-133.738
-133.98
-133.972
-133.743
-133.333
-132.807
-132.21
-131.557
-130.866
-130.185
-129.574
-129.047
-128.563
-128.019
-127.317
-126.34
-125.451
-125.266
-125.719
-126.715
-128.232
-130.236
-132.7
-135.58
-138.795
-142.206
-145.661
-149.037
-152.26
-155.282
-158.066
-160.564
-162.663
-164.193
-164.791
-164.232
-162.486
-159.788
-156.706
-153.798
-151.454
-149.99
-149.828
-151.703
-156.206
-162.783
-170.016
-176.994
-183.524
-189.499
-194.773
-199.139
-202.386
-204.411
-205.179
-204.738
-203.199
-200.692
-197.348
-193.314
-188.735
-183.734
-178.428
-172.913
-167.269
-161.578
-155.913
-150.335
-144.887
-139.59
-134.443
-129.434
-124.542
-119.75
-115.045
-110.426
-105.897
-101.471
-97.1692
-93.0122
-89.0186
-85.2038
-81.5817
-78.1674
-74.9757
-72.0172
-69.3012
-66.8419
-64.6613
-62.7756
-61.1861
-59.8693
-58.7787
-57.8511
-57.0214
-56.2408
-55.4927
-54.7947
-54.1779
-53.6633
-53.2527
-52.932
-52.6787
-52.4696
-52.288
-52.1228
-51.9646
-51.8044
-51.6349
-51.4521
-51.2528
-51.0354
-50.7967
-50.5343
-50.2464
-49.9335
-49.5978
-49.2429
-48.8702
-48.4809
-48.0724
-47.6466
-47.211
-46.7787
-46.37
-46.0051
-45.7272
-45.5588
-45.4609
-45.3099
-44.924
-44.3739
-43.8143
-43.3456
-42.9631
-42.6998
-42.6544
-42.9509
-43.59
-44.217
-44.324
-43.6061
-42.0512
-39.7846
-37.063
-34.3805
-32.1954
-30.5893
-29.7067
-29.3787
-28.9371
-28.6621
-28.7998
-28.3499
-26.933
-25.3943
-24.8612
-27.2087
-34.149
-44.9774
-56.4567
-64.3841
-118.746
-119.087
-119.56
-120.142
-120.813
-121.549
-122.368
-123.3
-124.365
-125.558
-126.848
-128.186
-129.52
-130.798
-131.973
-133.01
-133.873
-134.525
-134.932
-135.072
-134.958
-134.608
-134.076
-133.423
-132.681
-131.86
-130.987
-130.136
-129.372
-128.706
-128.096
-127.424
-126.609
-125.611
-124.993
-124.859
-125.193
-126.067
-127.503
-129.545
-132.169
-135.356
-138.952
-142.733
-146.521
-150.23
-153.836
-157.324
-160.66
-163.765
-166.472
-168.922
-170.105
-170.029
-168.704
-166.416
-163.762
-161.362
-159.684
-159.09
-160.026
-163.073
-168.235
-174.537
-180.979
-187.246
-193.225
-198.622
-203.197
-206.755
-209.135
-210.321
-210.33
-209.225
-207.116
-204.146
-200.432
-196.103
-191.289
-186.109
-180.665
-175.041
-169.312
-163.554
-157.837
-152.217
-146.733
-141.405
-136.23
-131.19
-126.261
-121.42
-116.655
-111.97
-107.375
-102.892
-98.5411
-94.341
-90.3031
-86.4337
-82.7411
-79.2436
-75.9637
-72.9197
-70.123
-67.5818
-65.31
-63.3292
-61.6572
-60.2886
-59.1856
-58.2806
-57.4921
-56.7487
-56.0154
-55.3056
-54.6575
-54.1032
-53.6519
-53.2938
-53.008
-52.7701
-52.5597
-52.3633
-52.1729
-51.982
-51.7844
-51.575
-51.3509
-51.1103
-50.8516
-50.5732
-50.2739
-49.9526
-49.6101
-49.2503
-48.878
-48.4906
-48.0834
-47.6541
-47.2079
-46.7619
-46.3436
-45.9766
-45.7019
-45.5433
-45.4596
-45.3019
-44.8965
-44.3196
-43.7615
-43.3098
-42.9342
-42.6774
-42.6748
-43.1566
-44.0947
-45.0297
-45.4199
-44.9901
-43.6683
-41.5092
-38.768
-35.976
-33.7102
-32.1518
-31.3234
-31.1996
-31.1524
-31.1025
-31.292
-30.9442
-29.7198
-28.3585
-27.7373
-29.9207
-36.904
-48.2876
-60.6474
-69.2567
-120.53
-120.776
-121.135
-121.6
-122.159
-122.819
-123.609
-124.553
-125.652
-126.875
-128.169
-129.474
-130.729
-131.886
-132.913
-133.791
-134.502
-135.023
-135.33
-135.408
-135.255
-134.878
-134.311
-133.599
-132.772
-131.849
-130.882
-129.948
-129.092
-128.317
-127.577
-126.785
-125.873
-125.02
-124.572
-124.4
-124.674
-125.468
-126.86
-128.926
-131.689
-135.082
-138.926
-142.924
-146.894
-150.85
-154.799
-158.697
-162.483
-166.074
-169.265
-171.871
-173.503
-173.924
-173.171
-171.574
-169.701
-168.123
-167.27
-167.499
-169.266
-172.912
-178.066
-183.829
-189.66
-195.431
-200.896
-205.712
-209.675
-212.581
-214.296
-214.862
-214.325
-212.736
-210.261
-206.98
-203.025
-198.515
-193.564
-188.274
-182.737
-177.033
-171.238
-165.428
-159.67
-154.017
-148.507
-143.157
-137.965
-132.908
-127.955
-123.072
-118.246
-113.481
-108.805
-104.252
-99.8553
-95.6336
-91.5881
-87.7057
-83.9746
-80.4058
-77.0288
-73.8782
-70.9863
-68.3649
-66.0201
-63.9646
-62.2174
-60.7858
-59.6441
-58.7287
-57.9531
-57.2352
-56.5248
-55.8214
-55.1588
-54.573
-54.0807
-53.6783
-53.3506
-53.0764
-52.8344
-52.6085
-52.3892
-52.1702
-51.9462
-51.7127
-51.4663
-51.2041
-50.9248
-50.628
-50.3128
-49.9788
-49.627
-49.2595
-48.88
-48.4889
-48.0832
-47.6562
-47.2043
-46.7436
-46.3087
-45.9356
-45.6569
-45.4949
-45.4072
-45.2298
-44.8025
-44.2159
-43.6774
-43.2506
-42.8867
-42.6424
-42.7111
-43.374
-44.5982
-45.8536
-46.5824
-46.5151
-45.4876
-43.4671
-40.7183
-37.8392
-35.4962
-34.014
-33.2988
-33.3178
-33.6017
-33.7976
-34.1049
-33.9265
-32.9259
-31.8227
-31.3016
-33.3715
-40.2441
-51.9438
-65.088
-74.3708
-121.791
-121.973
-122.255
-122.651
-123.158
-123.787
-124.569
-125.521
-126.63
-127.843
-129.092
-130.305
-131.418
-132.39
-133.202
-133.864
-134.385
-134.759
-134.97
-135
-134.839
-134.475
-133.929
-133.226
-132.383
-131.441
-130.472
-129.535
-128.648
-127.812
-126.979
-126.105
-125.215
-124.557
-124.146
-123.992
-124.255
-124.988
-126.32
-128.37
-131.176
-134.637
-138.522
-142.53
-146.565
-150.705
-154.921
-159.089
-163.134
-166.909
-170.222
-172.868
-174.657
-175.451
-175.327
-174.591
-173.685
-173.04
-173.013
-173.983
-176.391
-180.349
-185.357
-190.758
-196.268
-201.716
-206.74
-211.056
-214.513
-216.899
-218.111
-218.229
-217.323
-215.459
-212.747
-209.303
-205.239
-200.65
-195.632
-190.277
-184.672
-178.901
-173.046
-167.188
-161.392
-155.712
-150.182
-144.821
-139.623
-134.564
-129.601
-124.69
-119.803
-114.946
-110.158
-105.496
-101.023
-96.7782
-92.7616
-88.9364
-85.2442
-81.6682
-78.2227
-74.954
-71.9402
-69.2162
-66.7968
-64.6847
-62.8861
-61.4029
-60.212
-59.256
-58.456
-57.7352
-57.0397
-56.3542
-55.696
-55.0934
-54.5649
-54.1143
-53.735
-53.4132
-53.1305
-52.87
-52.6197
-52.3723
-52.1224
-51.8651
-51.5961
-51.3127
-51.0138
-50.6987
-50.367
-50.0185
-49.6537
-49.2737
-48.8826
-48.4828
-48.0716
-47.6425
-47.1883
-46.7209
-46.2727
-45.8843
-45.5904
-45.4115
-45.3016
-45.0901
-44.6429
-44.0663
-43.5598
-43.1599
-42.8175
-42.5983
-42.7378
-43.5729
-45.0525
-46.6321
-47.7457
-48.0857
-47.398
-45.5598
-42.8413
-39.9308
-37.5681
-36.1742
-35.6604
-35.8309
-36.3804
-36.8312
-37.24
-37.2416
-36.4882
-35.6396
-35.3167
-37.3217
-43.9633
-55.6779
-69.291
-79.0791
-122.492
-122.648
-122.9
-123.265
-123.74
-124.343
-125.123
-126.085
-127.196
-128.383
-129.567
-130.667
-131.617
-132.376
-132.948
-133.364
-133.663
-133.86
-133.95
-133.909
-133.713
-133.366
-132.873
-132.237
-131.471
-130.626
-129.743
-128.863
-127.999
-127.146
-126.286
-125.423
-124.668
-124.144
-123.795
-123.716
-123.984
-124.649
-125.81
-127.812
-130.508
-133.836
-137.563
-141.413
-145.368
-149.549
-153.872
-158.127
-162.232
-166.075
-169.394
-172.024
-173.904
-174.994
-175.4
-175.377
-175.249
-175.358
-176.07
-177.816
-180.916
-185.246
-190.288
-195.604
-201.016
-206.262
-210.963
-214.922
-218.009
-220.02
-220.887
-220.716
-219.602
-217.6
-214.805
-211.324
-207.241
-202.631
-197.58
-192.175
-186.506
-180.664
-174.742
-168.825
-162.989
-157.287
-151.752
-146.396
-141.213
-136.168
-131.208
-126.276
-121.332
-116.375
-111.443
-106.617
-102.004
-97.6848
-93.6861
-89.9687
-86.3898
-82.9019
-79.4757
-76.1562
-73.0277
-70.1693
-67.6372
-65.4521
-63.6094
-62.0928
-60.8687
-59.8766
-59.041
-58.2956
-57.596
-56.922
-56.2744
-55.6661
-55.1106
-54.6149
-54.1802
-53.8018
-53.4685
-53.165
-52.8776
-52.5972
-52.3178
-52.0343
-51.7417
-51.4365
-51.117
-50.7828
-50.4342
-50.0706
-49.6918
-49.2988
-48.8931
-48.4768
-48.0518
-47.6154
-47.1646
-46.6982
-46.2405
-45.8319
-45.5115
-45.2996
-45.1469
-44.8906
-44.4334
-43.8839
-43.4089
-43.0307
-42.7185
-42.5351
-42.7417
-43.7094
-45.4038
-47.2897
-48.8083
-49.576
-49.2592
-47.6495
-45.0386
-42.2143
-39.9882
-38.7519
-38.4777
-38.8407
-39.5711
-40.2521
-40.7478
-40.8702
-40.3368
-39.6983
-39.5654
-41.4986
-47.7488
-59.0633
-72.5922
-82.5471
-122.657
-122.795
-123.027
-123.372
-123.831
-124.426
-125.209
-126.178
-127.288
-128.453
-129.58
-130.584
-131.392
-131.973
-132.347
-132.576
-132.719
-132.801
-132.814
-132.731
-132.52
-132.191
-131.714
-131.099
-130.378
-129.594
-128.78
-127.956
-127.126
-126.294
-125.474
-124.732
-124.151
-123.754
-123.529
-123.555
-123.86
-124.525
-125.698
-127.284
-129.601
-132.561
-135.931
-139.461
-143.158
-147.156
-151.332
-155.411
-159.362
-163.144
-166.455
-169.109
-171.11
-172.449
-173.231
-173.69
-174.112
-174.871
-176.407
-179.103
-183.037
-187.888
-193.189
-198.661
-204.126
-209.257
-213.735
-217.443
-220.278
-222.071
-222.783
-222.511
-221.349
-219.38
-216.652
-213.238
-209.2
-204.604
-199.532
-194.07
-188.313
-182.367
-176.344
-170.349
-164.468
-158.756
-153.237
-147.916
-142.774
-137.764
-132.82
-127.872
-122.86
-117.785
-112.687
-107.651
-102.838
-98.3683
-94.3159
-90.6377
-87.1912
-83.8525
-80.5528
-77.3015
-74.1627
-71.2243
-68.5746
-66.2789
-64.3611
-62.802
-61.5513
-60.5359
-59.6747
-58.9035
-58.1864
-57.5077
-56.8614
-56.2483
-55.6741
-55.1446
-54.6638
-54.2329
-53.8472
-53.4961
-53.1669
-52.8491
-52.536
-52.2227
-51.9037
-51.5749
-51.2336
-50.8792
-50.5119
-50.1315
-49.7382
-49.3324
-48.9147
-48.4859
-48.046
-47.5948
-47.1378
-46.6759
-46.2161
-45.7868
-45.427
-45.1597
-44.9379
-44.6362
-44.1948
-43.6858
-43.2277
-42.8593
-42.5766
-42.4258
-42.6807
-43.7375
-45.5939
-47.7475
-49.6466
-50.8418
-50.9252
-49.6167
-47.2456
-44.693
-42.8208
-41.9265
-41.9202
-42.5049
-43.3257
-44.1207
-44.6682
-44.821
-44.418
-43.9071
-43.866
-45.6314
-51.2647
-61.69
-74.4782
-84.1657
-122.317
-122.441
-122.666
-122.997
-123.44
-124.028
-124.807
-125.774
-126.88
-128.032
-129.126
-130.059
-130.754
-131.194
-131.428
-131.545
-131.625
-131.706
-131.764
-131.745
-131.566
-131.204
-130.667
-129.99
-129.228
-128.428
-127.618
-126.803
-125.989
-125.201
-124.495
-123.935
-123.543
-123.304
-123.231
-123.347
-123.652
-124.208
-125.098
-126.422
-128.311
-130.77
-133.627
-136.666
-139.877
-143.403
-147.128
-150.734
-154.2
-157.606
-160.723
-163.335
-165.445
-167.06
-168.265
-169.296
-170.471
-172.197
-174.876
-178.695
-183.508
-188.937
-194.637
-200.41
-206.022
-211.122
-215.473
-219.035
-221.752
-223.5
-224.248
-224.064
-223.03
-221.198
-218.609
-215.316
-211.363
-206.792
-201.667
-196.083
-190.161
-184.039
-177.86
-171.753
-165.815
-160.098
-154.616
-149.361
-144.298
-139.365
-134.476
-129.534
-124.441
-119.227
-113.932
-108.669
-103.61
-98.9254
-94.7297
-91.0052
-87.6149
-84.4028
-81.2636
-78.1695
-75.149
-72.2607
-69.5847
-67.2082
-65.197
-63.5637
-62.2637
-61.2136
-60.322
-59.5202
-58.7751
-58.0765
-57.4185
-56.7956
-56.2066
-55.6538
-55.1412
-54.6715
-54.243
-53.8487
-53.4785
-53.1226
-52.7743
-52.4286
-52.0808
-51.7262
-51.3619
-50.9863
-50.5995
-50.2013
-49.7916
-49.3708
-48.9399
-48.4997
-48.0501
-47.5896
-47.1225
-46.6542
-46.1864
-45.7347
-45.3313
-44.9904
-44.6762
-44.3524
-43.9546
-43.4871
-43.0294
-42.6576
-42.3869
-42.2518
-42.5294
-43.6245
-45.5772
-47.9301
-50.1425
-51.7429
-52.2545
-51.3494
-49.4104
-47.3784
-46.0838
-45.766
-46.1315
-46.946
-47.823
-48.5629
-49.0437
-49.1082
-48.6972
-48.1884
-48.0827
-49.5077
-54.2578
-63.3055
-74.7189
-83.695
-121.548
-121.663
-121.873
-122.186
-122.606
-123.175
-123.942
-124.897
-125.99
-127.131
-128.198
-129.071
-129.665
-129.986
-130.109
-130.157
-130.24
-130.4
-130.572
-130.635
-130.464
-130.024
-129.376
-128.591
-127.747
-126.891
-126.045
-125.217
-124.433
-123.752
-123.233
-122.894
-122.717
-122.68
-122.774
-122.977
-123.281
-123.726
-124.377
-125.341
-126.728
-128.599
-130.839
-133.256
-135.79
-138.563
-141.511
-144.42
-147.179
-149.885
-152.493
-154.875
-157.028
-158.998
-160.875
-162.868
-165.266
-168.379
-172.421
-177.375
-182.997
-188.98
-195.115
-201.239
-207.069
-212.25
-216.604
-220.141
-222.842
-224.641
-225.52
-225.533
-224.74
-223.189
-220.915
-217.864
-214.012
-209.387
-204.082
-198.241
-192.035
-185.641
-179.233
-172.963
-166.94
-161.214
-155.792
-150.645
-145.724
-140.946
-136.196
-131.36
-126.136
-120.828
-115.324
-109.792
-104.453
-99.5164
-95.1331
-91.3053
-87.8988
-84.7443
-81.7186
-78.7745
-75.918
-73.1733
-70.5811
-68.2101
-66.1426
-64.4297
-63.0558
-61.9462
-61.0049
-60.1569
-59.3683
-58.6329
-57.9481
-57.306
-56.699
-56.1255
-55.5885
-55.0906
-54.6301
-54.2012
-53.7956
-53.405
-53.0231
-52.6456
-52.2683
-51.8871
-51.4989
-51.1017
-50.6948
-50.2779
-49.8507
-49.4142
-48.9691
-48.5162
-48.0564
-47.5877
-47.1111
-46.6312
-46.1489
-45.6771
-45.2361
-44.8268
-44.4493
-44.1071
-43.7366
-43.2912
-42.8337
-42.4512
-42.1636
-42.0187
-42.2902
-43.3674
-45.3315
-47.7808
-50.2112
-52.1728
-53.1327
-52.7495
-51.468
-50.235
-49.7394
-50.1667
-51.0901
-52.1867
-53.1446
-53.715
-53.937
-53.7484
-53.1544
-52.4826
-52.1311
-53.015
-56.6317
-63.9152
-73.4455
-81.2607
-120.488
-120.59
-120.781
-121.064
-121.449
-121.981
-122.711
-123.633
-124.699
-125.817
-126.853
-127.66
-128.142
-128.316
-128.288
-128.208
-128.208
-128.332
-128.49
-128.518
-128.275
-127.742
-127.016
-126.188
-125.324
-124.465
-123.638
-122.875
-122.235
-121.782
-121.535
-121.477
-121.574
-121.787
-122.072
-122.39
-122.724
-123.092
-123.548
-124.177
-125.094
-126.369
-127.952
-129.671
-131.36
-133.167
-135.197
-137.307
-139.376
-141.428
-143.52
-145.678
-147.944
-150.386
-153.113
-156.263
-160.001
-164.466
-169.679
-175.511
-181.74
-188.173
-194.696
-201.153
-207.24
-212.61
-217.108
-220.759
-223.594
-225.62
-226.866
-227.367
-227.099
-225.958
-224.081
-221.183
-217.282
-212.442
-206.803
-200.558
-193.928
-187.141
-180.403
-173.894
-167.744
-162.01
-156.68
-151.704
-147.011
-142.494
-137.996
-133.329
-128.206
-122.785
-117.045
-111.19
-105.502
-100.255
-95.6422
-91.6879
-88.2449
-85.1154
-82.1561
-79.3073
-76.5686
-73.9587
-71.4942
-69.2026
-67.1423
-65.3785
-63.9289
-62.7442
-61.7379
-60.8341
-59.9943
-59.2108
-58.4844
-57.8094
-57.1753
-56.5762
-56.0133
-55.4893
-55.0021
-54.5445
-54.1084
-53.6867
-53.2741
-52.8667
-52.461
-52.0536
-51.6415
-51.2226
-50.7958
-50.3601
-49.9153
-49.4621
-49.0013
-48.5339
-48.0615
-47.5826
-47.0958
-46.6044
-46.1119
-45.6284
-45.1649
-44.7166
-44.3002
-43.9258
-43.5352
-43.0888
-42.6364
-42.2415
-41.9256
-41.7574
-41.9928
-42.9917
-44.8632
-47.2843
-49.8236
-52.0778
-53.5014
-53.7835
-53.3882
-53.1972
-53.7188
-54.9851
-56.6236
-58.1309
-59.2367
-59.6309
-59.4183
-58.7673
-57.7812
-56.7515
-55.9708
-56.1339
-58.4294
-63.7146
-71.0386
-77.2805
-119.291
-119.375
-119.537
-119.781
-120.117
-120.592
-121.26
-122.122
-123.137
-124.216
-125.207
-125.932
-126.268
-126.231
-125.946
-125.579
-125.277
-125.096
-124.962
-124.734
-124.305
-123.689
-122.963
-122.191
-121.416
-120.681
-120.027
-119.515
-119.206
-119.122
-119.25
-119.564
-120.02
-120.538
-121.061
-121.556
-121.985
-122.356
-122.713
-123.105
-123.62
-124.34
-125.254
-126.246
-127.237
-128.174
-129.187
-130.351
-131.684
-133.233
-135.063
-137.259
-139.89
-143.001
-146.652
-150.883
-155.708
-161.121
-167.054
-173.379