/*--------------------------------*- C++ -*----------------------------------*\
  =========                 |
  \\      /  F ield         | OpenFOAM: The Open Source CFD Toolbox
   \\    /   O peration     | Website:  https://openfoam.org
    \\  /    A nd           | Version:  9
     \\/     M anipulation  |
\*---------------------------------------------------------------------------*/
FoamFile
{
    format      ascii;
    class       volScalarField;
    location    "0.07";
    object      pMean;
}
// * * * * * * * * * * * * * * * * * * * * * * * * * * * * * * * * * * * * * //

dimensions      [0 2 -2 0 0 0 0];

internalField   nonuniform List<scalar> 
12225
(
-2.54601
-3.10228
-3.39763
-3.50338
-3.53853
-3.55571
-3.56464
-3.56055
-3.53801
-3.49318
-3.42512
-3.33112
-3.21289
-3.06675
-2.90441
-2.73372
-2.61066
-2.63409
-2.77416
-3.13309
-3.40084
-3.51376
-3.55057
-3.56657
-3.57505
-3.57143
-3.55003
-3.50689
-3.44153
-3.35144
-3.23923
-3.10163
-2.95214
-2.7975
-2.70074
-2.75976
-2.82082
-3.13827
-3.39509
-3.5178
-3.55999
-3.57633
-3.58483
-3.58254
-3.56332
-3.52371
-3.46299
-3.3812
-3.27942
-3.16097
-3.03463
-2.92344
-2.86972
-2.95584
-2.96513
-3.18863
-3.40713
-3.53093
-3.57754
-3.5935
-3.60091
-3.59922
-3.58259
-3.54697
-3.49231
-3.41906
-3.33032
-3.23069
-3.1315
-3.05455
-3.03303
-3.10921
-3.06299
-3.22684
-3.41263
-3.53596
-3.58995
-3.60891
-3.61648
-3.61584
-3.60214
-3.57172
-3.52415
-3.46101
-3.386
-3.30536
-3.23058
-3.17965
-3.17502
-3.23596
-3.15076
-3.27946
-3.4361
-3.55206
-3.61025
-3.63205
-3.63991
-3.64011
-3.62934
-3.60408
-3.56404
-3.51138
-3.45041
-3.38792
-3.33408
-3.30254
-3.30786
-3.36025
-3.26432
-3.3381
-3.45727
-3.5645
-3.62712
-3.65364
-3.66325
-3.66505
-3.6581
-3.63918
-3.6078
-3.56641
-3.51962
-3.47399
-3.4382
-3.4222
-3.43579
-3.48511
-3.34613
-3.39741
-3.49266
-3.58756
-3.65067
-3.68114
-3.69332
-3.69703
-3.69355
-3.68084
-3.65839
-3.62849
-3.59557
-3.56555
-3.54548
-3.54272
-3.56398
-3.61284
-3.41933
-3.45486
-3.52738
-3.6114
-3.6745
-3.7092
-3.7254
-3.73267
-3.73375
-3.72778
-3.71452
-3.69603
-3.67636
-3.66062
-3.65462
-3.66382
-3.69279
-3.74341
-3.51995
-3.52145
-3.57369
-3.64533
-3.70492
-3.74225
-3.7626
-3.77377
-3.77959
-3.78046
-3.77664
-3.76972
-3.76301
-3.76087
-3.76795
-3.78834
-3.82505
-3.87916
-3.54735
-3.57483
-3.62328
-3.68395
-3.73897
-3.77832
-3.80341
-3.81995
-3.83168
-3.83993
-3.84526
-3.84926
-3.85474
-3.8652
-3.88425
-3.91493
-3.9594
-4.01851
-3.61448
-3.62884
-3.66695
-3.72076
-3.77325
-3.81474
-3.8445
-3.86614
-3.88352
-3.89869
-3.91278
-3.92694
-3.94336
-3.96489
-3.99444
-4.03441
-4.08634
-4.15084
-3.69888
-3.69122
-3.71888
-3.76658
-3.8158
-3.85738
-3.8904
-3.91735
-3.94094
-3.96319
-3.98542
-4.00899
-4.0356
-4.06742
-4.10672
-4.15538
-4.21455
-4.28479
-3.71023
-3.7348
-3.77172
-3.81555
-3.86112
-3.90494
-3.94417
-3.97831
-4.00941
-4.04003
-4.0719
-4.10619
-4.14415
-4.18738
-4.23754
-4.29602
-4.3637
-4.44107
-3.78784
-3.81889
-3.85074
-3.88554
-3.92618
-3.97034
-4.01399
-4.05509
-4.09457
-4.13467
-4.17712
-4.22289
-4.27286
-4.32808
-4.38973
-4.45878
-4.53587
-4.62121
-3.9007
-3.89773
-3.91527
-3.95028
-3.99619
-4.04703
-4.09769
-4.14665
-4.19548
-4.24627
-4.30039
-4.35843
-4.42098
-4.48878
-4.5626
-4.64297
-4.73036
-4.82498
-4.02733
-4.00162
-4.00493
-4.03671
-4.08555
-4.14051
-4.19638
-4.25306
-4.31216
-4.37486
-4.44163
-4.51262
-4.58823
-4.66893
-4.75522
-4.84731
-4.94554
-5.04977
-4.05996
-4.06524
-4.08882
-4.12928
-4.18091
-4.24022
-4.30468
-4.37252
-4.44366
-4.51866
-4.59796
-4.68172
-4.77013
-4.86342
-4.96175
-5.06512
-5.17352
-5.28688
-4.05668
-4.10273
-4.1593
-4.21791
-4.28065
-4.3493
-4.42318
-4.50185
-4.58525
-4.67316
-4.7653
-4.86169
-4.96246
-5.06762
-5.1771
-5.29075
-5.40844
-5.53002
-4.18668
-4.19853
-4.2319
-4.28502
-4.35321
-4.4309
-4.51428
-4.60191
-4.69358
-4.78965
-4.89042
-4.99572
-5.10522
-5.21858
-5.33561
-5.45608
-5.57983
-5.70648
-4.1627
-4.19144
-4.24412
-4.31485
-4.39638
-4.48308
-4.57327
-4.66706
-4.76509
-4.8677
-4.9749
-5.08628
-5.20135
-5.31976
-5.44125
-5.56564
-5.69273
-5.82229
-4.21361
-4.21467
-4.25542
-4.32833
-4.41682
-4.51078
-4.60684
-4.7056
-4.80837
-4.91586
-5.02789
-5.14376
-5.26288
-5.38485
-5.50959
-5.63686
-5.7664
-5.89774
-4.12784
-4.18431
-4.25987
-4.34705
-4.44077
-4.53771
-4.63692
-4.73931
-4.84593
-4.95708
-5.07234
-5.19103
-5.31259
-5.43676
-5.56336
-5.69215
-5.82288
-5.95533
-4.05084
-4.12384
-4.22308
-4.33
-4.43536
-4.53789
-4.64035
-4.7462
-4.85699
-4.9723
-5.09103
-5.21244
-5.33635
-5.46266
-5.59118
-5.72161
-5.85359
-5.98659
-4.11958
-4.14484
-4.23032
-4.345
-4.45743
-4.56073
-4.66196
-4.76793
-4.88028
-4.9973
-5.11723
-5.23953
-5.36416
-5.49106
-5.62009
-5.75089
-5.88311
-6.01647
-3.9562
-4.05029
-4.18772
-4.32546
-4.44364
-4.54812
-4.65197
-4.76198
-4.8781
-4.99799
-5.12009
-5.24404
-5.37011
-5.4984
-5.62871
-5.76056
-5.89358
-6.02742
-3.93094
-4.05594
-4.20869
-4.34534
-4.45699
-4.55801
-4.66211
-4.77361
-4.89071
-5.01081
-5.13283
-5.25689
-5.38325
-5.51183
-5.64226
-5.77407
-5.90691
-6.04032
-3.77746
-3.97395
-4.17914
-4.33102
-4.44225
-4.54406
-4.65202
-4.76711
-4.88626
-5.0075
-5.13045
-5.25539
-5.38254
-5.51176
-5.6427
-5.77492
-5.90816
-6.04231
-3.7977
-3.98958
-4.19622
-4.34026
-4.44564
-4.54691
-4.65596
-4.77156
-4.89063
-5.01176
-5.13479
-5.25995
-5.38741
-5.51691
-5.64812
-5.78034
-5.91338
-6.04666
-3.53524
-3.94675
-4.1984
-4.33358
-4.43575
-4.53957
-4.65099
-4.76768
-4.88727
-5.00875
-5.13211
-5.2576
-5.38539
-5.51517
-5.64661
-5.77885
-5.91173
-6.04405
-8.44797
-8.64583
-8.81882
-8.82656
-8.66295
-8.41479
-8.23376
-8.25369
-8.53044
-9.04341
-9.73143
-10.518
-11.3203
-12.0693
-12.7171
-13.2392
-13.6242
-13.866
-13.9656
-13.9364
-13.8078
-13.5893
-13.3031
-12.9837
-12.686
-12.4693
-12.3995
-12.4838
-12.6667
-12.8941
-13.1539
-13.4648
-13.8399
-14.2375
-14.6072
-14.9372
-15.2342
-15.6156
-16.1863
-16.876
-17.5062
-18.0205
-18.4724
-18.9663
-19.5942
-20.2914
-21.0001
-21.7152
-22.3244
-22.8496
-23.4913
-24.1879
-24.8913
-25.6066
-26.2973
-26.8883
-27.3144
-27.7213
-28.198
-28.7207
-29.2223
-29.667
-30.0168
-30.261
-30.397
-30.4317
-30.346
-30.0957
-29.7138
-29.2908
-28.8905
-28.5253
-28.1899
-27.8902
-27.6369
-27.3964
-27.1065
-26.6972
-26.1226
-25.379
-24.507
-23.5797
-22.6137
-21.6523
-20.6697
-19.7642
-18.8002
-17.8505
-17.0969
-16.9745
-17.4779
-18.2188
-18.9121
-19.4048
-19.6129
-19.498
-19.0428
-18.2433
-17.1023
-15.6298
-13.8434
-11.7696
-9.44378
-6.91034
-4.22138
-1.43521
1.38662
4.1828
6.895
9.47082
11.8656
14.0442
15.9844
17.6791
19.1334
20.3602
21.3756
22.1953
22.8339
23.3043
23.6179
23.7857
23.819
23.7303
23.5326
23.2397
22.8653
22.4237
21.9283
21.3922
20.8272
20.2441
19.6524
19.0609
18.477
17.9074
17.3576
16.8326
16.3365
15.8729
15.4447
15.0541
14.703
14.3927
14.1244
13.8987
13.7158
13.575
13.4752
13.4146
13.3917
13.4046
13.4512
13.5287
13.6314
13.7501
13.8719
13.9812
14.0612
14.1041
14.1185
14.1313
14.1586
14.1768
14.1765
14.1686
14.1391
14.0781
13.9775
13.872
13.8248
13.8334
13.8558
13.8847
13.9295
14.0061
14.1329
14.3285
14.6219
14.9551
-9.38151
-9.56818
-9.7281
-9.79148
-9.68758
-9.54996
-9.51096
-9.67155
-10.0584
-10.6272
-11.3067
-12.027
-12.7285
-13.3648
-13.9057
-14.333
-14.6425
-14.8346
-14.9083
-14.8797
-14.7473
-14.5409
-14.2981
-14.0266
-13.7462
-13.5425
-13.4316
-13.4453
-13.5426
-13.7252
-14.0877
-14.5778
-15.1188
-15.645
-16.1067
-16.5161
-16.895
-17.296
-17.7922
-18.4009
-18.9963
-19.4862
-19.8861
-20.2778
-20.8085
-21.3997
-22.1641
-23.1354
-23.8813
-24.4786
-25.1367
-25.8066
-26.4545
-27.0724
-27.6327
-28.1889
-28.6567
-29.0727
-29.5325
-29.994
-30.4231
-30.7811
-31.0463
-31.218
-31.2897
-31.2563
-31.149
-30.9538
-30.6555
-30.3253
-29.9904
-29.6607
-29.3432
-29.0385
-28.7601
-28.4818
-28.1493
-27.7008
-27.0857
-26.2996
-25.3742
-24.3853
-23.3572
-22.3232
-21.3074
-20.3857
-19.6103
-18.9956
-18.5891
-18.6301
-19.0938
-19.6758
-20.1887
-20.5064
-20.5667
-20.3324
-19.784
-18.911
-17.7118
-16.1917
-14.3642
-12.2521
-9.8895
-7.32059
-4.59799
-1.77984
1.07278
3.89888
6.64047
9.245
11.6671
13.8701
15.8304
17.54
19.0045
20.2383
21.2586
22.0826
22.7253
23.1999
23.5176
23.6893
23.7259
23.6408
23.4465
23.157
22.786
22.3477
21.8557
21.3229
20.761
20.1808
19.5917
19.0024
18.4202
17.8517
17.3025
16.7777
16.2815
15.8175
15.3887
14.9974
14.6454
14.3341
14.0645
13.8371
13.6519
13.5084
13.4054
13.3407
13.3123
13.3179
13.355
13.4197
13.5057
13.603
13.7007
13.7874
13.8535
13.9004
13.9432
14.0018
14.0644
14.0826
14.0686
14.0586
14.0309
13.9789
13.8998
13.8215
13.7904
13.7965
13.8134
13.8404
13.8862
13.9628
14.0932
14.2846
14.5742
14.8853
-9.03429
-9.12394
-9.38655
-9.76045
-10.1618
-10.5836
-11.0629
-11.6299
-12.2854
-12.9922
-13.6965
-14.361
-14.9546
-15.4577
-15.8576
-16.1508
-16.3391
-16.4282
-16.4307
-16.3657
-16.2369
-16.0495
-15.8245
-15.5849
-15.3411
-15.1391
-14.9883
-14.9109
-14.9449
-15.1058
-15.4118
-15.8409
-16.3553
-16.9043
-17.4434
-17.9391
-18.4482
-19.03
-19.6652
-20.3204
-20.8922
-21.3355
-21.6487
-22.0269
-22.6116
-23.3275
-24.0939
-24.9662
-25.8291
-26.6042
-27.3257
-27.9825
-28.5595
-29.0759
-29.5696
-30.0334
-30.4765
-30.8962
-31.2956
-31.6561
-31.9663
-32.2157
-32.3999
-32.5176
-32.5805
-32.5893
-32.5381
-32.4194
-32.2155
-31.943
-31.6177
-31.2733
-30.9391
-30.6285
-30.3382
-30.0204
-29.6234
-29.0977
-28.4001
-27.5297
-26.5139
-25.4157
-24.2888
-23.1982
-22.2249
-21.4597
-20.9965
-20.7697
-20.7551
-20.9375
-21.2582
-21.6001
-21.8737
-21.9923
-21.8986
-21.5475
-20.9116
-19.9719
-18.7191
-17.152
-15.2801
-13.1234
-10.7142
-8.09569
-5.3202
-2.44751
0.459292
3.33821
6.1314
8.7864
11.257
13.5045
15.5021
17.2401
18.7251
19.9735
21.0053
21.8396
22.4923
22.9766
23.304
23.4843
23.5295
23.4523
23.2656
22.9833
22.6195
22.1883
21.7032
21.1771
20.6217
20.0475
19.464
18.8795
18.3016
17.7367
17.1905
16.668
16.1735
15.7108
15.2826
14.8912
14.5385
14.226
13.9545
13.7247
13.5365
13.3895
13.2824
13.2128
13.1782
13.1762
13.2036
13.2567
13.3297
13.4145
13.5018
13.5826
13.6498
13.7036
13.7512
13.7997
13.8462
13.8836
13.9107
13.9169
13.8884
13.8353
13.7712
13.7142
13.6896
13.6948
13.7129
13.7396
13.7873
13.8655
14.0018
14.1932
14.4812
14.7813
-9.07438
-9.21636
-9.65776
-10.304
-11.0754
-11.9035
-12.7382
-13.5649
-14.3659
-15.1143
-15.7874
-16.3745
-16.8646
-17.2521
-17.5393
-17.7371
-17.8568
-17.907
-17.9053
-17.8541
-17.764
-17.6384
-17.4815
-17.3073
-17.1378
-16.9812
-16.8555
-16.767
-16.732
-16.7678
-16.8942
-17.1246
-17.4611
-17.8822
-18.3584
-18.8918
-19.5242
-20.2809
-21.1107
-21.9022
-22.5701
-23.1079
-23.5218
-23.9589
-24.5513
-25.3081
-26.1754
-27.0899
-27.9885
-28.828
-29.5778
-30.2298
-30.7862
-31.2768
-31.7432
-32.178
-32.5744
-32.9243
-33.2286
-33.487
-33.7037
-33.8812
-34.0263
-34.1486
-34.259
-34.3535
-34.4012
-34.3641
-34.2131
-33.941
-33.5672
-33.1547
-32.7684
-32.4292
-32.1183
-31.797
-31.3773
-30.7788
-29.9713
-28.9862
-27.8635
-26.6783
-25.5213
-24.4805
-23.6224
-23.0932
-22.8818
-22.9074
-23.0528
-23.267
-23.5068
-23.7132
-23.8338
-23.808
-23.5881
-23.132
-22.4111
-21.4026
-20.0915
-18.4704
-16.544
-14.3296
-11.859
-9.17524
-6.33102
-3.38755
-0.410467
2.53637
5.39495
8.11404
10.6478
12.955
15.0037
16.7815
18.2962
19.5668
20.6167
21.4673
22.1359
22.636
22.9781
23.1726
23.2309
23.1657
22.9904
22.719
22.3658
21.9451
21.4704
20.9545
20.4087
19.8435
19.2682
18.691
18.1193
17.5595
17.0172
16.4978
16.0056
15.5443
15.1169
14.7259
14.3732
14.06
13.7873
13.5558
13.3657
13.2163
13.1059
13.0317
12.9909
12.9809
12.9991
13.0416
13.1035
13.1782
13.2586
13.3383
13.4117
13.4774
13.5376
13.5933
13.6439
13.6824
13.7019
13.7004
13.682
13.6404
13.582
13.5312
13.5118
13.5215
13.5452
13.5776
13.6321
13.7173
13.8631
14.0641
14.3553
14.6551
-9.41062
-9.75732
-10.4525
-11.3537
-12.3296
-13.3091
-14.2516
-15.1344
-15.9531
-16.6991
-17.3674
-17.9489
-18.4334
-18.8139
-19.0931
-19.2877
-19.416
-19.4911
-19.5251
-19.5249
-19.4937
-19.4323
-19.3509
-19.2602
-19.1719
-19.0955
-19.0341
-18.9852
-18.944
-18.9095
-18.8934
-18.9232
-19.035
-19.2553
-19.6007
-20.0886
-20.741
-21.5478
-22.428
-23.2792
-24.0257
-24.6742
-25.2601
-25.8588
-26.5416
-27.3454
-28.2523
-29.2054
-30.1539
-31.0544
-31.8642
-32.5637
-33.1514
-33.6581
-34.1167
-34.5202
-34.8621
-35.1448
-35.3778
-35.5635
-35.7095
-35.8259
-35.9295
-36.0396
-36.1675
-36.2949
-36.3713
-36.3402
-36.1684
-35.8468
-35.403
-34.9098
-34.4406
-34.0268
-33.6509
-33.2703
-32.8076
-32.1717
-31.3177
-30.2731
-29.1019
-27.9014
-26.789
-25.869
-25.2258
-24.9285
-24.9199
-25.0706
-25.2874
-25.5318
-25.7582
-25.9162
-25.9604
-25.8438
-25.5292
-24.9838
-24.1839
-23.1077
-21.7367
-20.0584
-18.0725
-15.7942
-13.2541
-10.4949
-7.57024
-4.54383
-1.48573
1.53721
4.46647
7.25363
9.85567
12.2297
14.3385
16.1657
17.7185
19.0184
20.0926
20.9651
21.6553
22.1765
22.5383
22.7511
22.8263
22.7766
22.616
22.359
22.02
21.6135
21.1529
20.6506
20.1177
19.5643
18.9994
18.4313
17.8669
17.3129
16.7755
16.2599
15.7706
15.3115
14.8856
14.4956
14.1433
13.8302
13.5573
13.3254
13.1349
12.9847
12.8728
12.7959
12.7506
12.7343
12.7444
12.7774
12.8292
12.8949
12.9695
13.0486
13.1282
13.2049
13.2778
13.3462
13.4088
13.46
13.4893
13.4953
13.4826
13.4472
13.3906
13.3335
13.3067
13.3165
13.3455
13.3829
13.4407
13.5298
13.6824
13.8986
14.2049
14.5245
-10.1383
-10.6835
-11.5812
-12.5591
-13.5777
-14.5835
-15.5371
-16.4314
-17.2705
-18.0562
-18.7814
-19.4308
-19.9885
-20.4441
-20.8004
-21.073
-21.2764
-21.4211
-21.5199
-21.5842
-21.6196
-21.6311
-21.6264
-21.6128
-21.5992
-21.5918
-21.5908
-21.5889
-21.5737
-21.5346
-21.4726
-21.4104
-21.3949
-21.4832
-21.7189
-22.1379
-22.7428
-23.5091
-24.3615
-25.2229
-26.0354
-26.7867
-27.503
-28.2237
-28.9904
-29.8374
-30.7624
-31.7321
-32.704
-33.6331
-34.4814
-35.228
-35.8506
-36.3536
-36.7659
-37.1007
-37.3669
-37.5773
-37.7391
-37.8573
-37.9388
-37.9932
-38.0394
-38.0956
-38.1602
-38.2045
-38.1868
-38.0616
-37.7979
-37.3901
-36.8636
-36.2755
-35.6826
-35.1219
-34.6062
-34.1091
-33.5552
-32.8655
-31.9949
-30.9618
-29.8325
-28.7345
-27.7812
-27.0699
-26.6788
-26.6133
-26.7784
-27.0464
-27.3586
-27.6764
-27.9449
-28.1141
-28.137
-27.9732
-27.594
-26.9782
-26.1104
-24.9725
-23.5449
-21.8109
-19.7663
-17.4237
-14.8113
-11.9721
-8.96063
-5.8439
-2.69747
0.406104
3.40653
6.25823
8.92279
11.3589
13.5287
15.41
17.0069
18.3422
19.4458
20.3458
21.0631
21.6094
21.9944
22.2284
22.3231
22.2918
22.149
21.9097
21.5885
21.1999
20.7568
20.2713
19.7539
19.2144
18.6615
18.1027
17.546
16.9982
16.4655
15.9535
15.4668
15.0096
14.5852
14.1965
13.8453
13.5332
13.2616
13.0313
12.8424
12.6939
12.5831
12.5061
12.4589
12.4387
12.4426
12.4673
12.5092
12.5652
12.6329
12.7104
12.7946
12.8811
12.9669
13.0503
13.1288
13.1973
13.2483
13.2774
13.2838
13.2655
13.2232
13.1705
13.1331
13.1267
13.1493
13.1863
13.2429
13.331
13.4854
13.7135
14.0374
14.3819
-11.4968
-12.034
-12.8486
-13.733
-14.6488
-15.5784
-16.4977
-17.399
-18.2814
-19.1393
-19.9561
-20.7111
-21.3861
-21.9677
-22.454
-22.8547
-23.1798
-23.4418
-23.6555
-23.8308
-23.9728
-24.0881
-24.1833
-24.2651
-24.3392
-24.4092
-24.4755
-24.5327
-24.5702
-24.5751
-24.541
-24.4801
-24.4343
-24.4733
-24.6572
-25.034
-25.5977
-26.3136
-27.1324
-27.999
-28.8602
-29.6923
-30.4984
-31.2969
-32.1145
-32.9722
-33.8746
-34.8054
-35.7296
-36.6147
-37.4344
-38.1665
-38.7636
-39.205
-39.5239
-39.7577
-39.929
-40.0567
-40.1496
-40.211
-40.2419
-40.2448
-40.2283
-40.1999
-40.1503
-40.0544
-39.8793
-39.5934
-39.178
-38.6338
-37.9809
-37.2553
-36.4968
-35.7411
-35.014
-34.3142
-33.6043
-32.8288
-31.9526
-30.9846
-29.9845
-29.076
-28.3638
-27.9309
-27.8191
-27.987
-28.3232
-28.7335
-29.1766
-29.6059
-29.9614
-30.1899
-30.2381
-30.0662
-29.6514
-28.9842
-28.0617
-26.8731
-25.4001
-23.6207
-21.5239
-19.1196
-16.4375
-13.5204
-10.4233
-7.21606
-3.98039
-0.795172
2.27542
5.18508
7.8998
10.3863
12.6097
14.5422
16.1838
17.5568
18.6937
19.6258
20.3726
20.9459
21.3554
21.6118
21.7274
21.7164
21.5939
21.3753
21.0754
20.708
20.2855
19.8191
19.3187
18.7937
18.2525
17.7034
17.1542
16.612
16.0833
15.5741
15.0893
14.6334
14.2103
13.823
13.4737
13.1644
12.8963
12.6699
12.4852
12.3408
12.2335
12.1585
12.1116
12.0895
12.089
12.1062
12.1384
12.1846
12.2453
12.321
12.4093
12.5055
12.6053
12.7057
12.8032
12.8931
12.9705
13.0306
13.0702
13.0866
13.0762
13.042
13.0035
12.9818
12.9857
13.0132
13.0616
13.1411
13.2893
13.5225
13.8625
14.2352
-12.7409
-13.1655
-13.762
-14.4956
-15.3239
-16.2011
-17.0992
-18.013
-18.9452
-19.8861
-20.8125
-21.6992
-22.5247
-23.2729
-23.9365
-24.5147
-25.0113
-25.4368
-25.8031
-26.1188
-26.3931
-26.6352
-26.8522
-27.0475
-27.2231
-27.3814
-27.5234
-27.6476
-27.7471
-27.8115
-27.8323
-27.8179
-27.8065
-27.8664
-28.0661
-28.4464
-29.0046
-29.7134
-30.5397
-31.4358
-32.3481
-33.2467
-34.1189
-34.9639
-35.7907
-36.6133
-37.4454
-38.2834
-39.1008
-39.8828
-40.6133
-41.2579
-41.7532
-42.0752
-42.2664
-42.3859
-42.4666
-42.5229
-42.5551
-42.5653
-42.551
-42.5035
-42.421
-42.2984
-42.1209
-41.8718
-41.5317
-41.0803
-40.5031
-39.7983
-38.9775
-38.0637
-37.0887
-36.0898
-35.1042
-34.1543
-33.2373
-32.3311
-31.4217
-30.5247
-29.7002
-29.0357
-28.6103
-28.4807
-28.6458
-29.0292
-29.5267
-30.0833
-30.6675
-31.2246
-31.6947
-32.0174
-32.1257
-31.9751
-31.5465
-30.8439
-29.8795
-28.653
-27.1477
-25.3368
-23.2004
-20.7459
-18.0062
-15.0247
-11.8567
-8.57313
-5.2593
-2.00134
1.13074
4.08585
6.83677
9.3604
11.6248
13.5985
15.2788
16.6873
17.8592
18.824
19.6006
20.2006
20.6341
20.9128
21.0501
21.0611
20.9615
20.7668
20.4912
20.1477
19.7476
19.3012
18.8181
18.3073
17.7774
17.237
16.6943
16.1567
15.631
15.1236
14.6401
14.1854
13.7634
13.3777
13.031
12.7251
12.4613
12.2401
12.0611
11.9228
11.8206
11.7489
11.7032
11.6802
11.6759
11.6866
11.7107
11.7491
11.8051
11.8811
11.9752
12.0829
12.1992
12.3195
12.4388
12.5525
12.6567
12.7483
12.8247
12.8837
12.92
12.9275
12.9135
12.8932
12.8822
12.8893
12.9208
12.984
13.117
13.3464
13.6958
14.0933
-13.3974
-13.7125
-14.2026
-14.8522
-15.6172
-16.4545
-17.3431
-18.2803
-19.2692
-20.2962
-21.334
-22.3583
-23.3447
-24.2718
-25.1254
-25.8985
-26.5922
-27.2129
-27.7654
-28.2543
-28.6901
-29.084
-29.4436
-29.7689
-30.059
-30.3155
-30.5415
-30.7389
-30.905
-31.0335
-31.1205
-31.1799
-31.2489
-31.3936
-31.6733
-32.1196
-32.7298
-33.483
-34.3516
-35.2875
-36.2413
-37.1794
-38.078
-38.9242
-39.7155
-40.462
-41.19
-41.9059
-42.5901
-43.2393
-43.8388
-44.3441
-44.6952
-44.8807
-44.9514
-44.9697
-44.9676
-44.9544
-44.9232
-44.8725
-44.7968
-44.6865
-44.5311
-44.3182
-44.0304
-43.6513
-43.1638
-42.5507
-41.8019
-40.916
-39.901
-38.7747
-37.5662
-36.3146
-35.0657
-33.863
-32.7335
-31.687
-30.7314
-29.8933
-29.2298
-28.8031
-28.6607
-28.8175
-29.2261
-29.7852
-30.4141
-31.0973
-31.8105
-32.4919
-33.0856
-33.5179
-33.7015
-33.5847
-33.1517
-32.4242
-31.4315
-30.1822
-28.6605
-26.8343
-24.6745
-22.1852
-19.4034
-16.3757
-13.1588
-9.82213
-6.45262
-3.14586
0.0243943
3.00762
5.77886
8.32492
10.6138
12.6132
14.322
15.7613
16.965
17.9601
18.7641
19.3885
19.8442
20.1445
20.3039
20.3386
20.2642
20.0958
19.8466
19.528
19.1503
18.7232
18.256
17.7578
17.2381
16.7052
16.1675
15.633
15.109
14.6026
14.1197
13.6654
13.2441
12.8596
12.5148
12.2116
11.9516
11.7351
11.562
11.4293
11.3322
11.2645
11.2209
11.1976
11.1912
11.1985
11.2189
11.2552
11.3128
11.3947
11.4994
11.6222
11.7579
11.9007
12.0441
12.1829
12.3138
12.4356
12.5478
12.6496
12.7369
12.8003
12.8351
12.8446
12.8392
12.8355
12.8474
12.8899
13
13.2114
13.5558
13.9696
-13.6059
-13.8614
-14.2872
-14.8824
-15.6096
-16.4328
-17.3294
-18.2964
-19.3358
-20.4364
-21.5747
-22.7273
-23.8681
-24.9704
-26.014
-26.9874
-27.8875
-28.7133
-29.4626
-30.1384
-30.752
-31.3147
-31.8313
-32.3005
-32.7207
-33.0949
-33.4281
-33.7254
-33.9869
-34.2104
-34.3994
-34.5756
-34.7805
-35.0659
-35.4768
-36.0348
-36.734
-37.5574
-38.4774
-39.4469
-40.4216
-41.3659
-42.2532
-43.0663
-43.798
-44.4595
-45.0854
-45.6751
-46.2125
-46.7057
-47.1452
-47.4805
-47.6618
-47.6948
-47.6411
-47.558
-47.4639
-47.3659
-47.2586
-47.1347
-46.9856
-46.8014
-46.5665
-46.2619
-45.8683
-45.3666
-44.7374
-43.964
-43.0382
-41.961
-40.7425
-39.4027
-37.9727
-36.4946
-35.0187
-33.5998
-32.2867
-31.1162
-30.1184
-29.3289
-28.7946
-28.5604
-28.6491
-29.0388
-29.6406
-30.329
-31.0531
-31.8343
-32.6505
-33.4324
-34.1332
-34.6634
-34.9129
-34.8241
-34.3862
-33.6369
-32.6235
-31.3632
-29.8414
-28.0191
-25.8577
-23.3562
-20.5537
-17.4997
-14.2539
-10.8888
-7.49665
-4.17393
-0.995545
1.99343
4.76751
7.31496
9.608
11.6175
13.3428
14.8047
16.0335
17.0532
17.8797
18.5246
19.0002
19.3212
19.5034
19.5631
19.5155
19.3744
19.1512
18.8563
18.4991
18.089
17.6354
17.1478
16.6356
16.1079
15.5732
15.04
14.5163
14.0095
13.5259
13.0715
12.6504
12.2662
11.9219
11.6201
11.3622
11.1486
10.9788
10.8502
10.7567
10.6915
10.6496
10.6275
10.6225
10.6327
10.6584
10.7033
10.7726
10.8686
10.9898
11.132
11.2898
11.4568
11.6256
11.7903
11.948
12.0988
12.2446
12.3863
12.5218
12.6429
12.739
12.8029
12.8335
12.8421
12.8487
12.8723
12.9572
13.1427
13.4679
13.8819
-13.5191
-13.7429
-14.1512
-14.7349
-15.4607
-16.2971
-17.2251
-18.2399
-19.3412
-20.5196
-21.7564
-23.0283
-24.308
-25.5667
-26.7807
-27.9348
-29.0193
-30.0265
-30.9522
-31.8005
-32.5841
-33.3135
-33.9919
-34.6167
-35.1851
-35.6988
-36.1637
-36.5863
-36.9691
-37.3153
-37.636
-37.9559
-38.3131
-38.7466
-39.2913
-39.9607
-40.7478
-41.6378
-42.6035
-43.6019
-44.5926
-45.5406
-46.42
-47.2113
-47.9041
-48.5066
-49.054
-49.5336
-49.9377
-50.2821
-50.5548
-50.7101
-50.7165
-50.5925
-50.4038
-50.2049
-50.0049
-49.8047
-49.6041
-49.3947
-49.161
-48.8884
-48.5575
-48.145
-47.6298
-46.9911
-46.2079
-45.2659
-44.1593
-42.893
-41.4808
-39.9466
-38.3261
-36.6661
-35.0196
-33.4445
-31.9976
-30.7368
-29.7122
-28.9653
-28.5341
-28.4455
-28.703
-29.257
-29.9895
-30.7553
-31.5283
-32.3691
-33.2543
-34.1017
-34.8737
-35.4647
-35.746
-35.6607
-35.2029
-34.4274
-33.3961
-32.1358
-30.6294
-28.83
-26.69
-24.1998
-21.396
-18.3342
-15.0843
-11.724
-8.34783
-5.0463
-1.89136
1.07526
3.82978
6.35808
8.63555
10.638
12.3658
13.8388
15.0831
16.1195
16.9621
17.6229
18.116
18.4571
18.6624
18.7476
18.7267
18.6114
18.4118
18.1371
17.7966
17.3997
16.9562
16.4754
15.9672
15.4411
14.9064
14.3722
13.8473
13.3388
12.8538
12.398
11.976
11.5914
11.2471
10.9455
10.6882
10.4754
10.3065
10.1783
10.0851
10.0204
9.97996
9.96157
9.96397
9.98672
10.0296
10.0947
10.1857
10.3041
10.4481
10.6144
10.7979
10.9918
11.1879
11.3796
11.5646
11.7445
11.9231
12.1026
12.2825
12.4567
12.6146
12.7442
12.8345
12.8848
12.91
12.933
12.998
13.1546
13.4501
13.8482
-13.322
-13.5406
-13.9574
-14.564
-15.3337
-16.2365
-17.248
-18.3537
-19.5469
-20.8167
-22.1473
-23.5163
-24.898
-26.265
-27.5941
-28.8683
-30.0748
-31.2058
-32.2617
-33.2512
-34.1852
-35.0696
-35.9028
-36.678
-37.3895
-38.0364
-38.6228
-39.1556
-39.6423
-40.0949
-40.5336
-40.9854
-41.4815
-42.0506
-42.7156
-43.4807
-44.3393
-45.2809
-46.2809
-47.3022
-48.3073
-49.2626
-50.1407
-50.9208
-51.5911
-52.1506
-52.6176
-52.9871
-53.2704
-53.5007
-53.6653
-53.716
-53.6277
-53.4194
-53.1428
-52.8511
-52.5605
-52.266
-51.9668
-51.6626
-51.3315
-50.9508
-50.4993
-49.9524
-49.2884
-48.4856
-47.5268
-46.4036
-45.1155
-43.6713
-42.0903
-40.399
-38.6348
-36.8484
-35.095
-33.4303
-31.9096
-30.5992
-29.5661
-28.8578
-28.4993
-28.5009
-28.856
-29.5004
-30.3049
-31.1149
-31.9135
-32.7801
-33.6918
-34.565
-35.3484
-35.9355
-36.1966
-36.0773
-35.5815
-34.7765
-33.7324
-32.4779
-30.991
-29.2187
-27.1077
-24.6451
-21.8642
-18.8259
-15.6093
-12.2951
-8.97691
-5.73728
-2.6398
0.276184
2.98716
5.47508
7.71686
9.69401
11.4093
12.8807
14.1299
15.1737
16.0253
16.6977
17.2059
17.566
17.7936
17.9028
17.9057
17.8121
17.6311
17.3716
17.0428
16.6542
16.2156
15.7366
15.2277
14.6992
14.1616
13.6248
13.0972
12.5867
12.1
11.6426
11.219
10.8328
10.4873
10.1847
9.92604
9.71151
9.54045
9.40948
9.31397
9.24949
9.21373
9.20562
9.2247
9.26955
9.3384
9.43126
9.55033
9.69673
9.86895
10.0641
10.2776
10.5019
10.7276
10.9479
11.1616
11.3723
11.5849
11.8028
12.0256
12.2491
12.4643
12.6592
12.8188
12.9322
13.0034
13.0494
13.1136
13.2466
13.5064
13.8744
-13.1115
-13.3445
-13.8067
-14.4893
-15.3643
-16.3929
-17.5381
-18.7725
-20.078
-21.4411
-22.8465
-24.2743
-25.7015
-27.105
-28.4672
-29.777
-31.0267
-32.214
-33.3447
-34.4278
-35.4694
-36.4677
-37.414
-38.2963
-39.1052
-39.8388
-40.5032
-41.1103
-41.6757
-42.2195
-42.7657
-43.337
-43.9541
-44.6363
-45.3962
-46.2346
-47.149
-48.133
-49.1639
-50.2069
-51.2252
-52.1868
-53.0633
-53.8336
-54.4919
-55.0235
-55.4222
-55.7037
-55.9041
-56.0602
-56.1751
-56.207
-56.1269
-55.9339
-55.6593
-55.3447
-55.018
-54.6717
-54.2933
-53.8877
-53.4412
-52.9312
-52.3343
-51.6264
-50.7852
-49.7942
-48.6447
-47.3369
-45.8761
-44.2754
-42.5607
-40.7573
-38.9013
-37.0449
-35.2447
-33.5521
-32.016
-30.71
-29.6957
-29.0166
-28.6963
-28.7369
-29.1271
-29.7959
-30.6185
-31.4414
-32.2426
-33.0889
-33.9758
-34.8219
-35.5572
-36.0813
-36.2776
-36.0957
-35.5519
-34.7184
-33.6622
-32.4064
-30.9268
-29.1708
-27.0879
-24.6665
-21.9385
-18.963
-15.8229
-12.6003
-9.38098
-6.23896
-3.22984
-0.390699
2.25287
4.67866
6.86485
8.79945
10.4877
11.945
13.1879
14.23
15.084
15.7634
16.2838
16.6602
16.9069
17.0359
17.057
16.979
16.8103
16.5598
16.2367
15.8504
15.4106
14.928
14.4141
13.8808
13.3391
12.7988
12.2688
11.7568
11.2684
10.8087
10.3821
9.99246
9.64353
9.33702
9.07341
8.85278
8.67499
8.53873
8.44137
8.3821
8.35985
8.37311
8.41917
8.49408
8.59354
8.71671
8.8659
9.04279
9.24666
9.47438
9.721
9.97773
10.2344
10.4848
10.7296
10.9749
11.2259
11.4857
11.754
12.0262
12.2955
12.5512
12.7787
12.9633
13.099
13.1922
13.2772
13.4031
13.63
13.9581
-12.8944
-13.1637
-13.7047
-14.5028
-15.5205
-16.7006
-17.9881
-19.3425
-20.7365
-22.1534
-23.5793
-25.002
-26.4075
-27.7832
-29.1226
-30.4238
-31.6829
-32.8928
-34.0517
-35.1636
-36.2316
-37.2537
-38.2248
-39.1357
-39.9797
-40.7558
-41.4694
-42.1325
-42.7622
-43.379
-44.004
-44.6554
-45.3498
-46.1031
-46.9249
-47.8159
-48.7752
-49.796
-50.8561
-51.9222
-52.9609
-53.9413
-54.8375
-55.6251
-56.3021
-56.8517
-57.2518
-57.5158
-57.7031
-57.8471
-57.9704
-58.0464
-58.0443
-57.9506
-57.7709
-57.5224
-57.2322
-56.8874
-56.4652
-55.9642
-55.3867
-54.7254
-53.9615
-53.0743
-52.0436
-50.8593
-49.5224
-48.0404
-46.4227
-44.6896
-42.8775
-41.0123
-39.1203
-37.2461
-35.448
-33.7791
-32.2801
-31.0075
-30.0226
-29.3751
-29.0722
-29.1047
-29.4624
-30.0932
-30.8948
-31.719
-32.5067
-33.2954
-34.1055
-34.8696
-35.5027
-35.9145
-36.0124
-35.7559
-35.1664
-34.3098
-33.242
-31.9771
-30.4896
-28.7343
-26.6745
-24.3066
-21.659
-18.7847
-15.7601
-12.6651
-9.57638
-6.55882
-3.66192
-0.922234
1.63135
3.97379
6.08646
7.96376
9.61227
11.0438
12.27
13.3019
14.1516
14.8331
15.3611
15.7492
16.0094
16.1516
16.184
16.1147
15.9518
15.7037
15.3791
14.9878
14.5405
14.0499
13.5289
12.9898
12.4439
11.9013
11.3703
10.8568
10.3667
9.90397
9.47264
9.07732
8.72158
8.40612
8.13186
7.90055
7.71259
7.56927
7.47365
7.42779
7.4302
7.47575
7.55779
7.66815
7.80086
7.95537
8.13508
8.34309
8.57956
8.84126
9.12178
9.41063
9.69749
9.97841
10.2574
10.5417
10.8367
11.1444
11.4637
11.7888
12.113
12.4267
12.7174
12.971
13.1774
13.333
13.4592
13.596
13.8014
14.089
-12.5171
-12.8297
-13.4567
-14.3682
-15.5155
-16.8235
-18.223
-19.6598
-21.1031
-22.5391
-23.9641
-25.3774
-26.7695
-28.1243
-29.4312
-30.6894
-31.9032
-33.0662
-34.1729
-35.2252
-36.2271
-37.1834
-38.0991
-38.971
-39.7939
-40.5634
-41.2811
-41.9559
-42.6054
-43.2508
-43.9125
-44.608
-45.3522
-46.1574
-47.0299
-47.97
-48.9735
-50.0322
-51.1258
-52.2244
-53.298
-54.3161
-55.2561
-56.097
-56.8296
-57.4475
-57.9232
-58.2591
-58.5091
-58.7223
-58.9294
-59.1156
-59.2486
-59.3024
-59.2655
-59.1376
-58.9262
-58.6229
-58.2031
-57.6497
-56.9682
-56.1704
-55.2528
-54.1997
-52.9972
-51.6436
-50.1486
-48.5266
-46.7939
-44.9734
-43.1107
-41.228
-39.3424
-37.4922
-35.7341
-34.1185
-32.6814
-31.4751
-30.5424
-29.9073
-29.5847
-29.5651
-29.8305
-30.3568
-31.0853
-31.8827
-32.6432
-33.3582
-34.0565
-34.6933
-35.1862
-35.4563
-35.4382
-35.1061
-34.4805
-33.6103
-32.533
-31.2545
-29.7526
-27.9961
-25.9632
-23.6569
-21.1049
-18.3535
-15.4694
-12.5246
-9.58605
-6.71038
-3.94364
-1.32341
1.11884
3.35888
5.38381
7.1927
8.79124
10.1867
11.3866
12.4001
13.239
13.917
14.4469
14.8404
15.1072
15.2553
15.2919
15.2241
15.0591
14.8049
14.4705
14.0668
13.607
13.1059
12.5778
12.0348
11.488
10.9467
10.417
9.90387
9.41254
8.94627
8.50873
8.10468
7.73709
7.40745
7.1168
6.86812
6.66682
6.51843
6.43069
6.40643
6.44059
6.52334
6.64469
6.79324
6.96178
7.14996
7.36196
7.60187
7.87051
8.16453
8.47584
8.79312
9.10776
9.41955
9.73566
10.0635
10.4084
10.7712
11.1487
11.5339
11.9175
12.2902
12.6412
12.9585
13.2324
13.4544
13.634
13.7979
13.9959
14.2492
-11.677
-12.042
-12.7479
-13.7554
-15.0131
-16.4321
-17.9356
-19.4607
-20.9739
-22.4622
-23.9226
-25.3507
-26.7298
-28.0311
-29.2367
-30.3523
-31.4021
-32.4018
-33.3563
-34.268
-35.1389
-35.975
-36.7837
-37.5645
-38.313
-39.0251
-39.7031
-40.3567
-41.0035
-41.6653
-42.3599
-43.1004
-43.897
-44.7582
-45.688
-46.6838
-47.738
-48.8432
-49.9824
-51.1294
-52.2575
-53.3364
-54.3429
-55.2624
-56.0838
-56.8068
-57.4107
-57.8937
-58.2826
-58.6355
-58.9849
-59.3369
-59.644
-59.8666
-59.9832
-59.9884
-59.8793
-59.6438
-59.2611
-58.711
-57.9919
-57.1169
-56.0944
-54.9235
-53.5988
-52.1274
-50.5274
-48.8214
-47.0297
-45.1755
-43.2989
-41.4263
-39.5705
-37.7656
-36.0735
-34.5417
-33.1921
-32.0639
-31.1878
-30.5832
-30.2392
-30.1457
-30.2863
-30.6473
-31.2141
-31.906
-32.5952
-33.2198
-33.7848
-34.2655
-34.599
-34.7214
-34.5884
-34.1833
-33.5233
-32.6403
-31.552
-30.2593
-28.7477
-26.9989
-25.0036
-22.7704
-20.3247
-17.7101
-14.9825
-12.2026
-9.42798
-6.70972
-4.09232
-1.61392
0.695509
2.81727
4.74425
6.47652
8.01621
9.36583
10.53
11.5172
12.3389
13.0072
13.533
13.9253
14.1917
14.3385
14.3715
14.2964
14.1197
13.8497
13.4973
13.0765
12.6035
12.0945
11.5636
11.0229
10.4821
9.94754
9.42432
8.9159
8.42584
7.9564
7.51089
7.09448
6.71071
6.35847
6.04266
5.77092
5.55404
5.40462
5.33019
5.33071
5.39697
5.51594
5.67539
5.8621
6.06868
6.29453
6.54277
6.81668
7.11678
7.43859
7.77364
8.11286
8.45192
8.7949
9.15177
9.52908
9.93108
10.3571
10.8019
11.2559
11.7064
12.1424
12.5541
12.9317
13.2668
13.551
13.7864
13.9873
14.1909
14.4199
-10.1738
-10.6183
-11.4141
-12.5228
-13.8916
-15.4308