/*--------------------------------*- C++ -*----------------------------------*\
  =========                 |
  \\      /  F ield         | OpenFOAM: The Open Source CFD Toolbox
   \\    /   O peration     | Website:  https://openfoam.org
    \\  /    A nd           | Version:  9
     \\/     M anipulation  |
\*---------------------------------------------------------------------------*/
FoamFile
{
    format      ascii;
    class       volScalarField;
    location    "0.07";
    object      pPrime2Mean;
}
// * * * * * * * * * * * * * * * * * * * * * * * * * * * * * * * * * * * * * //

dimensions      [0 4 -4 0 0 0 0];

internalField   nonuniform List<scalar> 
12225
(
299329
296362
293001
289398
285655
281852
278042
274258
270520
266837
263211
259635
256097
252575
249037
245422
241612
237327
299355
296388
293023
289415
285669
281864
278053
274268
270530
266848
263222
259648
256113
252598
249069
245474
241717
237629
299429
296448
293071
289454
285701
281891
278076
274290
270552
266871
263248
259678
256150
252646
249138
245583
241920
238091
299528
296547
293151
289518
285754
281936
278116
274327
270588
266909
263290
259727
256211
252726
249250
245754
242210
238633
299701
296695
293269
289613
285832
282002
278175
274382
270642
266965
263351
259799
256300
252841
249408
245985
242571
239215
299992
296903
293432
289744
285940
282094
278256
274457
270716
267041
263436
259897
256419
252994
249612
246272
242988
239816
300371
297179
293648
289918
286082
282214
278362
274556
270813
267142
263546
260024
256572
253186
249863
246609
243447
240430
300822
297532
293927
290141
286265
282369
278499
274683
270937
267270
263686
260183
256762
253419
250159
246991
243940
241050
301401
297977
294277
290420
286493
282563
278670
274841
271091
267429
263857
260377
256988
253693
250497
247412
244461
241677
302083
298522
294706
290764
286774
282799
278878
275033
271278
267620
264063
260607
257254
254007
250874
247866
245003
242308
302907
299183
295229
291180
287112
283084
279129
275264
271502
267848
264305
260874
257558
254360
251288
248351
245565
242944
303789
299916
295802
291633
287480
283394
279400
275514
271743
268092
264562
261155
257872
254717
251697
248819
246094
243531
304931
300765
296456
292147
287896
283743
279705
275794
272013
268364
264846
261462
258212
255098
252125
249300
246629
244116
306484
301904
297319
292819
288438
284197
280102
276158
272361
268713
265209
261849
258634
255563
252640
249868
247249
244785
308552
303401
298439
293687
289136
284779
280612
276623
272807
269156
265665
262331
259151
256124
253250
250529
247961
245543
311250
305332
299858
294778
290007
285508
281249
277206
273363
269706
266227
262917
259772
256787
253960
251287
248764
246388
314501
307606
301524
296058
291037
286375
282012
277908
274034
270369
266899
263612
260499
257553
254767
252136
249654
247315
317912
309964
303259
297405
292137
287318
282858
278697
274795
271125
267664
264399
261315
258403
255654
253059
250612
248304
320505
311698
304566
298478
293075
288174
283668
279484
275578
271916
268474
265233
262178
259298
256581
254018
251600
249318
318838
311164
304517
298665
293391
288571
284119
279978
276108
272478
269065
265853
262826
259972
257280
254740
252342
250077
316990
310090
303958
298427
293356
288668
284305
280227
276404
272811
269429
266243
263239
260404
257729
255204
252819
250566
315109
308925
303270
298052
293186
288636
284368
280357
276582
273026
269673
266509
263524
260706
258045
255532
253156
250912
313351
307822
302592
297654
292976
288551
284369
280419
276687
273163
269835
266691
263721
260916
258265
255760
253393
251154
311856
306890
302017
297308
292782
288460
284347
280445
276749
273251
269942
266813
263856
261060
258417
255919
253557
251322
310747
306175
301568
297033
292623
288378
284320
280455
276785
273307
270012
266895
263946
261158
258521
256027
253669
251437
309904
305647
301240
296831
292504
288315
284296
280458
276807
273342
270058
266949
264006
261223
258590
256099
253743
251514
309315
305280
301013
296692
292422
288271
284277
280457
276819
273364
270087
266983
264044
261264
258634
256145
253791
251563
308874
305041
300870
296604
292370
288243
284265
280456
276827
273377
270104
267003
264067
261289
258660
256173
253820
251593
308635
304908
300790
296556
292341
288228
284258
280456
276830
273383
270113
267014
264080
261302
258675
256188
253836
251609
308517
304852
300758
296536
292330
288221
284255
280455
276832
273386
270117
267018
264085
261308
258680
256194
253842
251616
200929
200909
200873
200823
200759
200682
200590
200479
200347
200192
200014
199813
199590
199349
199088
198810
198514
198200
197869
197521
197155
196773
196374
195959
195527
195078
194609
194121
193614
193090
192549
191991
191417
190825
190217
189593
188957
188310
187652
186982
186302
185609
184901
184173
183423
182652
181863
181054
180231
179396
178546
177682
176809
175925
175031
174133
173240
172335
171409
170466
169516
168565
167614
166662
165705
164738
163760
162772
161776
160757
159709
158635
157540
156426
155298
154162
153022
151883
150748
149623
148505
147391
146274
145151
144026
142890
141759
140629
139492
138320
137117
135920
134746
133599
132473
131357
130242
129118
127977
126812
125619
124392
123131
121834
120503
119144
117761
116362
114953
113543
112136
110739
109355
107986
106630
105288
103957
102637
101324
100018
98715.6
97416.8
96120
94824.2
93529
92233.9
90938.9
89644.1
88349.5
87055.5
85762
84469.4
83177.5
81886.5
80596.3
79306.8
78017.9
76729.5
75441.6
74154.1
72867
71580.3
70294.1
69008.5
67723.5
66439.3
65156
63873.8
62592.8
61313.5
60035.9
58760.4
57487.3
56217
54950.4
53689
52434.1
51186.3
49946.1
48713.7
47488.3
46267.4
45050.3
43841.2
42641.5
41449.1
40265.7
39094.3
37932.9
36780.8
35640
34507.9
33384.6
32272.3
31171.1
30082.3
29005.5
27943.4
26898.9
25881.8
200985
200965
200930
200878
200814
200736
200641
200527
200391
200233
200053
199852
199631
199390
199132
198855
198560
198247
197916
197566
197198
196813
196411
195992
195556
195104
194632
194143
193635
193111
192570
192011
191437
190846
190239
189616
188977
188328
187668
186995
186309
185610
184898
184170
183421
182650
181856
181036
180204
179363
178508
177641
176768
175889
175003
174104
173200
172290
171363
170428
169487
168545
167601
166654
165700
164737
163761
162766
161758
160734
159684
158615
157530
156420
155292
154156
153011
151872
150738
149610
148495
147383
146269
145152
144028
142897
141754
140603
139444
138264
137072
135891
134733
133598
132479
131368
130255
129133
127993
126830
125636
124410
123148
121850
120519
119158
117774
116374
114964
113552
112144
110746
109361
107991
106635
105292
103961
102640
101327
100020
98718.1
97419.1
96122.1
94826.2
93530.9
92235.7
90940.7
89645.8
88351.2
87057.1
85763.6
84470.9
83179.1
81888.1
80597.9
79308.4
78019.5
76731.2
75443.4
74155.8
72868.8
71582.1
70296
69010.4
67725.5
66441.3
65158.1
63876
62595.3
61316.1
60038.8
58763.7
57491.1
56221.4
54955.6
53695
52440.7
51193.5
49953.1
48719.9
47492.6
46269.8
45052.2
43844.3
42645.7
41452.8
40269.3
39097.6
37935.8
36784.2
35643.7
34511.9
33388.9
32276.2
31174.6
30085
29007.2
27943.7
26896.9
25873.2
201137
201119
201083
201029
200958
200871
200766
200643
200499
200336
200153
199952
199732
199494
199237
198961
198667
198353
198019
197666
197294
196904
196496
196071
195629
195169
194694
194201
193692
193167
192624
192066
191492
190901
190295
189673
189036
188385
187722
187046
186355
185652
184936
184202
183449
182670
181870
181048
180207
179353
178490
177617
176741
175862
174973
174076
173169
172255
171334
170409
169480
168547
167609
166664
165707
164737
163752
162753
161739
160714
159670
158608
157525
156418
155288
154147
152999
151853
150718
149593
148481
147375
146268
145156
144030
142890
141728
140554
139373
138192
137018
135858
134718
133595
132484
131379
130271
129152
128015
126854
125663
124438
123177
121879
120547
119185
117799
116396
114984
113570
112160
110760
109374
108002
106645
105301
103970
102648
101334
100026
98723.7
97424.1
96126.7
94830.5
93534.9
92239.6
90944.4
89649.4
88354.7
87060.5
85767
84474.3
83182.4
81891.4
80601.2
79311.7
78022.9
76734.6
75446.8
74159.3
72872.3
71585.7
70299.7
69014.1
67729.3
66445.2
65162.1
63880.2
62599.6
61320.7
60043.7
58769
57496.8
56227.7
54962.6
53702.4
52448.1
51200.3
49959.2
48725.1
47497.3
46275.4
45059.4
43850.7
42650.3
41457.7
40275
39103.5
37942.3
36791.5
35651.7
34520.8
33397.8
32284.5
31182.2
30091
29011.3
27944.8
26893.5
25861.5
201358
201341
201304
201247
201171
201077
200965
200835
200686
200519
200334
200131
199910
199671
199413
199135
198837
198518
198180
197821
197443
197046
196631
196198
195748
195282
194800
194303
193791
193265
192723
192167
191594
191005
190400
189779
189142
188491
187824
187145
186453
185748
185029
184294
183536
182749
181936
181101
180247
179381
178506
177625
176742
175855
174962
174062
173158
172250
171339
170423
169502
168573
167635
166685
165719
164737
163740
162732
161716
160691
159655
158600
157520
156413
155283
154134
152980
151832
150698
149577
148469
147365
146259
145140
144008
142852
141676
140490
139307
138133
136972
135828
134702
133590
132489
131391
130289
129175
128042
126885
125697
124475
123216
121919
120586
119222
117833
116428
115013
113596
112184
110781
109392
108018
106660
105315
103982
102660
101345
100036
98732.4
97432.1
96134
94837.2
93541.1
92245.4
90950
89654.7
88359.9
87065.7
85772.1
84479.3
83187.5
81896.5
80606.3
79316.9
78028.2
76739.9
75452.1
74164.7
72877.8
71591.3
70305.3
69019.8
67735
66451
65168
63886.2
62605.9
61327.2
60050.5
58776.1
57504.4
56235.9
54971.3
53711.4
52457
51208.8
49967
48731.7
47502.9
46280.6
45064.4
43855.6
42655.6
41464.3
40281.9
39111
37951.4
36802.4
35664.4
34534.8
33412.2
32298.1
31194.8
30101.8
29018.7
27948
26890.9
25849.9
201651
201632
201592
201532
201453
201356
201241
201107
200954
200784
200595
200387
200161
199915
199651
199365
199060
198733
198386
198019
197632
197226
196803
196362
195904
195431
194943
194440
193925
193396
192856
192302
191734
191149
190548
189930
189294
188642
187975
187295
186605
185902
185184
184446
183682
182886
182060
181207
180335
179449
178555
177657
176760
175863
174964
174064
173162
172259
171353
170442
169524
168598
167660
166707
165736
164747
163745
162734
161717
160693
159659
158606
157526
156418
155285
154138
152983
151835
150698
149577
148468
147361
146247
145119
143971
142802
141617
140430
139251
138084
136933
135800
134684
133583
132491
131401
130306
129198
128071
126919
125736
124518
123261
121965
120631
119265
117874
116466
115049
113629
112214
110808
109416
108040
106680
105334
104000
102676
101359
100049
98744.5
97443
96144
94846.4
93549.7
92253.4
90957.6
89662.1
88367.1
87072.7
85779.1
84486.3
83194.5
81903.6
80613.5
79324.3
78035.7
76747.5
75459.7
74172.4
72885.5
71599.1
70313.2
69027.8
67743
66459
65176
63894.4
62614.1
61335.6
60059.1
58785.1
57513.8
56245.8
54981.6
53722
52467.7
51219.1
49976.7
48740.6
47510.9
46287.7
45070.9
43861.2
42660.5
41468.7
40286.7
39116.3
37958.3
36812.3
35677.5
34549.8
33427.8
32314.2
31210.6
30116
29029.6
27953.9
26889.7
25839.3
202019
201996
201953
201891
201809
201709
201591
201454
201298
201122
200927
200713
200479
200225
199950
199654
199337
198999
198640
198261
197863
197446
197012
196561
196094
195613
195117
194609
194088
193557
193015
192463
191897
191318
190721
190107
189473
188821
188154
187475
186785
186082
185362
184620
183848
183042
182201
181329
180434
179524
178606
177686
176771
175864
174962
174062
173163
172263
171360
170453
169539
168617
167682
166734
165768
164786
163790
162784
161769
160744
159707
158649
157566
156457
155325
154177
153024
151876
150739
149614
148497
147378
146251
145107
143943
142761
141570
140382
139205
138042
136896
135770
134663
133571
132488
131407
130320
129219
128098
126951
125774
124561
123308
122014
120681
119313
117919
116508
115089
113667
112249
110840
109444
108066
106704
105356
104021
102695
101377
100066
98759.6
97456.9
96156.6
94858
93560.4
92263.6
90967.2
89671.4
88376.1
87081.6
85788
84495.3
83203.6
81912.8
80623
79334
78045.5
76757.5
75469.9
74182.7
72895.8
71609.4
70323.5
69038.2
67753.4
66469.3
65186.2
63904.5
62624.4
61346
60069.7
58796
57525
56257.4
54993.6
53734.3
52480.1
51231.4
49988.6
48751.8
47521.3
46297.2
45079.7
43869.2
42667
41474
40290.8
39119.5
37961.5
36817.1
35684.9
34560.2
33440.7
32328.8
31226.1
30131
29042
27961.8
26890.5
25830.6
202457
202434
202389
202325
202243
202142
202020
201878
201716
201534
201331
201108
200863
200597
200309
199999
199668
199316
198943
198550
198139
197709
197261
196798
196321
195830
195326
194810
194284
193747
193201
192646
192080
191501
190906
190292
189659
189008
188341
187661
186970
186264
185539
184791
184011
183194
182339
181450
180535
179602
178660
177718
176785
175868
174962
174063
173168
172273
171375
170472
169564
168647
167721
166781
165828
164859
163877
162881
161873
160849
159808
158744
157658
156547
155416
154269
153116
151966
150825
149692
148563
147429
146282
145119
143936
142739
141540
140348
139168
138005
136863
135741
134639
133553
132478
131404
130325
129231
128118
126978
125808
124601
123353
122063
120730
119361
117964
116551
115130
113707
112286
110875
109477
108096
106732
105382
104045
102718
101399
100086
98777.6
97473.3
96171.8
94872
93573.5
92275.9
90979
89682.8
88387.3
87092.6
85799
84506.4
83214.8
81924.4
80634.9
79346.2
78058.1
76770.4
75483
74195.9
72909.1
71622.7
70336.9
69051.5
67766.6
66482.3
65199
63917.2
62636.9
61358.5
60082.4
58808.8
57538.2
56270.9
55007.4
53748.5
52494.5
51245.8
50002.7
48765.4
47534.3
46309.5
45091.2
43879.9
42676.3
41481.7
40296.8
39123.2
37963
36817.5
35685.9
34563.6
33447.6
32338.9
31238.7
30144.8
29054.7
27970.7
26892.6
25824
202978
202954
202910
202846
202760
202653
202526
202376
202205
202013
201799
201563
201305
201023
200720
200394
200047
199680
199292
198885
198459
198016
197555
197079
196590
196089
195576
195052
194517
193973
193420
192857
192286
191702
191103
190486
189851
189200
188534
187854
187161
186453
185724
184969
184181
183354
182485
181579
180644
179689
178723
177758
176809
175883
174976
174079
173187
172297
171406
170510
169609
168701
167784
166858
165919
164967
163998
163014
162012
160990
159947
158882
157794
156683
155553
154409
153258
152106
150959
149815
148669
147514
146344
145155
143950
142737
141527
140326
139141
137975
136832
135712
134612
133530
132459
131391
130318
129231
128125
126993
125831
124631
123390
122104
120773
119404
118007
116592
115169
113745
112324
110911
109512
108128
106762
105411
104073
102744
101422
100108
98798
97492.2
96189.2
94888.2
93588.7
92290.3
90992.9
89696.3
88400.6
87105.9
85812.2
84519.8
83228.5
81938.5
80649.5
79361.3
78073.7
76786.5
75499.4
74212.6
72925.9
71639.6
70353.7
69068.2
67783.1
66498.4
65214.6
63932.3
62652
61373.5
60097.3
58823.9
57553.6
56286.5
55023.4
53764.8
52511
51262.4
50019.2
48781.6
47549.9
46324.4
45105.4
43893.2
42688.7
41492.6
40305.7
39129.7
37966
36816.6
35682.1
34559.4
33445.8
32341.4
31245.2
30154.4
29065.1
27978.9
26895.4
25818.9
203592
203567
203520
203451
203359
203244
203107
202947
202764
202559
202331
202079
201804
201507
201186
200845
200482
200099
199696
199274
198833
198376
197902
197413
196912
196400
195877
195344
194799
194245
193682
193110
192528
191934
191327
190704
190066
189415
188751
188074
187383
186675
185944
185183
184386
183548
182665
181740
180782
179802
178810
177825
176861
175927
175016
174119
173231
172346
171461
170574
169683
168784
167879
166964
166038
165099
164143
163168
162173
161156
160114
159049
157961
156852
155725
154584
153435
152281
151128
149971
148806
147627
146430
145214
143985
142753
141530
140319
139125
137953
136806
135684
134584
133503
132434
131368
130298
129216
128116
126993
125839
124648
123414
122133
120806
119438
118041
116627
115204
113781
112360
110947
109546
108162
106795
105442
104102
102771
101448
100132
98820.5
97513.1
96208.8
94906.6
93606
92306.9
91008.9
89711.9
88416.1
87121.4
85827.9
84535.8
83244.9
81955.5
80667
79379.6
78092.7
76806.2
75519.8
74233.2
72946.8
71660.8
70375.1
69089.4
67803.9
66518.6
65234.3
63951.4
62670.5
61391.6
60115.1
58841.8
57571.7
56304.8
55042
53783.7
52530.1
51281.6
50038.2
48800.3
47568.1
46341.9
45122.1
43909
42703.6
41506.2
40317.7
39139.3
37972.2
36818.1
35678.2
34551.6
33437.4
32335.2
31242.7
30155.6
29069
27983.3
26897.1
25814
204294
204267
204216
204141
204041
203916
203768
203595
203398
203178
202933
202665
202374
202059
201722
201364
200985
200585
200166
199729
199274
198803
198316
197815
197303
196780
196246
195702
195147
194582
194007
193422
192827
192221
191603
190972
190330
189678
189016
188344
187657
186951
186219
185453
184646
183793
182890
181942
180959
179952
178934
177928
176951
176008
175092
174194
173307
172426
171548
170667
169783
168894
167997
167091
166175
165246
164301
163337
162350
161338
160300
159237
158150
157042
155916
154777
153630
152477
151318
150149
148965
147761
146536
145291
144037
142788
141550
140326
139121
137941
136788
135661
134559
133476
132405
131338
130268
129189
128094
126977
125832
124649
123422
122146
120822
119458
118063
116651
115231
113810
112391
110979
109579
108195
106827
105474
104132
102800
101476
100158
98844.9
97536.1
96230.4
94927
93625.4
92325.4
91026.9
89729.7
88433.8
87139.2
85846.1
84554.5
83264.4
81975.7
80688.3
79402
78116.2
76830.7
75545.2
74259.3
72973.5
71687.7
70402.1
69116.3
67830.2
66544.1
65258.7
63975.1
62693.3
61413.6
60136.6
58863.3
57593.3
56326.5
55063.7
53805.5
52552.2
51303.5
50059.8
48821.5
47588.8
46361.9
45141.3
43927.4
42720.9
41522.4
40332.6
39152.1
37982
36823.4
35677.7
34545.4
33426.8
32323.1
31231.9
30147.6
29064
27980.5
26894.1
25807.3
205087
205058
205002
204920
204811
204677
204517
204331
204121
203885
203625
203341
203033
202702
202348
201974
201578
201162
200728
200275
199805
199320
198820
198307
197784
197250
196706
196151
195585
195008
194420
193820
193209
192588
191956
191314
190664
190008
189344
188672
187987
187281
186546
185773
184953
184083
183156
182182
181172
180137
179094
178069
177078
176126
175205
174303
173417
172539
171663
170786
169906
169020
168128
167229
166320
165399
164464
163509
162530
161525
160493
159432
158346
157238
156111
154973
153827
152674
151512
150335
149135
147910
146658
145386
144108
142841
141589
140351
139134
137945
136784
135651
134543
133454
132377
131306
130233
129153
128060
126949
125810
124634
123411
122139
120819
119459
118070
116663
115248
113830
112415
111006
109609
108227
106860
105506
104163
102830
101504
100185
98871
97560.9
96253.9
94949.4
93646.9
92346.1
91047.1
89749.8
88453.9
87159.7
85867.2
84576.5
83287.5
82000.2
80714.4
79429.7
78145.7
76861.8
75577.5
74292.4
73007.1
71721.9
70436.5
69150.5
67863.7
66576.3
65289.6
64004.7
62721.7
61440.7
60163
58889.1
57619.1
56352.2
55089.2
53831
52577.5
51328.5
50084.4
48845.6
47612.2
46384.6
45163.1
43948.2
42740.8
41541.2
40350
39167.7
37994.9
36832.6
35681.7
34543.1
33418.2
32309.3
31215.3
30130.8
29049.6
27968.7
26883.9
25796
205980
205948
205888
205799
205684
205541
205371
205175
204954
204706
204434
204136
203813
203467
203098
202706
202293
201861
201409
200940
200454
199954
199440
198915
198380
197835
197279
196712
196133
195541
194936
194318
193687
193046
192395
191736
191071
190402
189728
189047
188354
187642
186900
186116
185282
184394
183452
182462
181434
180378
179314
178269
177261
176295
175364
174457
173565
172683
171806
170926
170044
169157
168265
167367
166462
165547
164619
163672
162700
161701
160671
159614
158529
157421
156294
155155
154010
152859
151697
150515
149306
148064
146791
145496
144197
142913
141646
140396
139167
137968
136798
135657
134540
133441
132355
131276
130197
129113
128019
126909
125772
124598
123378
122109
120793
119440
118059
116661
115253
113841
112432
111028
109635
108256
106890
105537
104194
102860
101534
100214
98898.6
97587.3
96279.2
94973.6
93670.3
92369
91069.8
89772.4
88476.9
87183.4
85892
84602.8
83315.7
82030.7
80747.2
79465.1
78183.5
76901.5
75618.9
74334.9
73050.2
71765.5
70480.4
69194.2
67906.3
66617.2
65328.5
64041.8
62757
61474.3
60195.2
58920.5
57649.9
56382.4
55118.9
53860.3
52606.5
51357
50112.4
48872.9
47638.8
46410.2
45187.8
43972
42763.5
41562.7
40370
39185.9
38010.7
36844.9
35689.5
34545.3
33413.7
32297.6
31197.2
30109
29027.1
27948
26865.7
25779
206992
206958
206894
206801
206681
206534
206360
206160
205932
205677
205395
205085
204748
204386
203999
203588
203156
202703
202231
201743
201238
200721
200191
199651
199101
198540
197968
197384
196787
196176
195551
194911
194257
193590
192912
192227
191537
190844
190147
189445
188733
188002
187242
186444
185596
184698
183751
182760
181729
180668
179595
178536
177511
176527
175580
174659
173754
172860
171974
171086
170195
169300
168402
167500
166594
165681
164756
163813
162845
161848
160821
159765
158681
157574
156447
155309
154165
153016
151857
150678
149466
148216
146928
145616
144301
143001
141722
140461
139223
138013
136834
135681
134552
133442
132344
131254
130167
129075
127975
126859
125718
124542
123322
122055
120747
119402
118032
116644
115246
113843
112440
111044
109657
108282
106919
105567
104225
102891
101564
100243
98927.1
97614.9
96305.9
94999.6
93695.7
92394.2
91095
89798
88503.3
87211.1
85921.7
84635.1
83351
82069.1
80789
79510.2
78231.5
76952.1
75671.5
74388.6
73104.8
71820.6
70535.8
69249.1
67959.8
66668.7
65377.6
64088.3
62800.9
61515.9
60234.7
58958.3
57686.1
56417.6
55153.1
53893.9
52639.6
51389.6
50144.2
48904
47669
46439.5
45216
43999.2
42789.6
41587.5
40393.2
39207
38029.2
36860.1
35700.5
34551.1
33413.4
32289.8
31181.4
30086.5
29001
27921.1
26840.5
25756.5
208151
208115
208050
207958
207839
207693
207520
207318
207086
206821
206524
206196
205839
205454
205045
204613
204160
203685
203190
202678
202150
201609
201057
200495
199923
199341
198747
198141
197521
196885
196233
195564
194879
194179
193467
192747
192023
191295
190565
189830
189087
188328
187545
186730
185872
184969
184026
183046
182026
180975
179907
178844
177807
176803
175834
174893
173967
173055
172152
171252
170349
169443
168533
167621
166709
165792
164866
163922
162954
161956
160929
159873
158791
157684
156559
155423
154281
153138
151986
150811
149603
148353
147060
145738
144411
143100
141811
140542
139297
138078
136887
135722
134579
133454
132343
131242
130143
129041
127930
126803
125652
124469
123248
121985
120684
119351
117992
116616
115228
113834
112441
111053
109673
108304
106944
105595
104254
102920
101594
100273
98956
97643.3
96333.8
95027.1
93723.2
92421.9
91123.2
89827.2
88534
87244.1
85957.9
84675.3
83395.6
82118.1
80842.2
79566.8
78291.5
77015.4
75736.5
74454.9
73171.7
71888
70603.3
69316
68025.5
66731.7
65437.6
64145.4
62855.1
61567.1
60282.9
59003.6
57729.1
56458.5
55192.6
53932.3
52677.4
51426.6
50180.3
48939.4
47703.6
46473.2
45248.6
44030.8
42820
41616.5
40420.3
39231.7
38050.8
36878.1
35714.1
34559.9
33416.4
32285.8
31169.4
30066.6
28975.1
27892
26811.5
25730.1
209484
209447
209383
209293
209177
209032
208856
208646
208399
208114
207794
207441
207059
206649
206213
205755
205274
204773
204250
203707
203149
202578
201996
201404
200804
200194
199570
198933
198280
197611
196925
196221
195500
194763
194013
193255
192491
191723
190952
190178
189398
188607
187798
186965
186099
185195
184258
183292
182293
181262
180209
179152
178110
177094
176105
175140
174191
173255
172329
171411
170494
169574
168650
167726
166802
165877
164944
163996
163025
162026
160998
159942
158861
157756
156634
155500
154360
153219
152071
150905
149705
148461
147173
145852
144521
143203
141907
140633
139380
138152
136950
135772
134615
133476
132353
131238
130126
129010
127885
126744
125581
124391
123166
121906
120612
119289
117941
116576
115199
113817
112434
111056
109685
108321
106966
105620
104281
102949
101623
100302
98985.1
97672.2
96362.7
95056.3
93752.9
92452.5
91155.1
89860.8
88570.2
87283.9
86002.4
84725.3
83451.4
82179.2
80907.9
79636.5
78364.6
77090.7
75813.4
74532.8
73249.7
71965.8
70681.6
69393.9
68101.5
66805.3
65508.3
64213.4
62920
61628.5
60340.7
59057.7
57779.9
56506.5
55238.4
53976.6
52720.4
51468.6
50221.4
48979.6
47743.1
46511.8
45286.5
44067.6
42855.6
41650.5
40452.3
39260.8
38076.2
36899.2
35730.4
34571
33421.9
32284.9
31161.1
30050.5
28952.1
27864.1
26782
25702.4
211042
211003
210938
210846
210725
210573
210384
210156
209886
209576
209227
208843
208428
207983
207509
207009
206487
205945
205384
204803
204207
203599
202980
202349
201710
201061
200398
199721
199030
198322
197597
196856
196098
195324
194535
193738
192935
192128
191317
190504
189686
188862
188026
187173
186297
185392
184460
183505
182524
181515
180481
179434
178393
177371
176370
175387
174418
173459
172510
171570
170634
169697
168758
167818
166881
165943
164999
164043
163068
162067
161039
159983
158901
157797
156676
155543
154404
153264
152117
150954
149762
148529
147254
145945
144623
143306
142007
140727
139467
138231
137018
135828
134658
133507
132369
131240
130113
128981
127839
126684
125509
124309
123081
121822
120534
119218
117881
116527
115162
113792
112422
111054
109692
108335
106985
105642
104306
102976
101651
100331
99014.6
97702.2
96393.3
95087.8
93785.7
92487.1
91192.2
89901.1
88614.6
87333.5
86057.9
84787.1
83519.7
82253.2
80986.5
79718.7
78448.7
77175.4
75898.5
74618.1
73334.9
72051.4
70766.5
69478.2
68184.6
66887.2
65588.9
64291.3
62995.3
61700.5
60409
59122.1
57840.3
56563.5
55292.4
54028.4
52770.3
51517
50268.7
49026
47788.8
46557.1
45331.2
44111.6
42898.3
41691.3
40490.5
39295.5
38106.5
36924.2
35749.7
34584.4
33429.6
32286.4
31155.9
30038.3
28933.1
27839.6
26754.8
25675.8
212733
212690
212617
212514
212380
212212
212005
211753
211453
211105
210711
210276
209806
209307
208781
208230
207659
207071
206467
205844
205205
204554
203892
203218
202536
201845
201144
200429
199699
198954
198194
197417
196625
195818
194997
194167
193332
192493
191651
190806
189956
189101
188239
187366
186477
185568
184637
183686
182715
181721
180703
179669
178631
177603
176593
175598
174616
173642
172676
171716
170761
169808
168853
167899
166947
165994
165038
164072
163090
162086
161056
159999
158917
157813
156693
155560
154419
153275
152126
150962
149773
148551
147291
146002
144698
143393
142097
140814
139550
138306
137084
135884
134703
133539
132387
131242
130099
128951
127794
126624
125438
124229
122996
121736
120452
119143
117815
116472
115120
113763
112405
111048
109694
108344
106999
105661
104328
103000
101677
100358
99043.1
97731.9
96424.4
95120.7
93821
92525.7
91234.8
89948.8
88668.1
87393
86123.8
84859.2
83597.1
82335
81071.3
79804.4
78534.2
77260.5
75983.4
74701.3
73416.7
72132.7
70848.3
69560.6
68267.4
66970
65671.7
64374.3
63077.1
61780.5
60485.9
59195.9
57910.2
56629.4
55355
54088.1
52827.6
51572.3
50322.7
49079.3
47842
46610.2
45384.3
44164.2
42949.7
41740.6
40536.3
39336.7
38142.2
36953.4
35772.1
34600.1
33438.8
32289.4
31152.7
30028.9
28917.7
27819.1
26731.2
25651.9
214390
214341
214252
214128
213970
213775
213538
213250
212905
212502
212047
211549
211019
210464
209886
209287
208670
208037
207390
206726
206046
205354
204652
203942
203224
202499
201764
201017
200257
199482
198693
197889
197070
196237
195392
194537
193678
192815
191948
191078
190204
189326
188441
187549
186646
185728
184794
183840
182869
181881
180874
179850
178815
177785
176767
175761
174768
173783
172806
171832
170863
169897
168930
167964
166999
166035
165068
164093
163103
162095
161062
160004
158921
157817
156695
155560
154414
153264
152108
150941
149754
148541
147298
146029
144744
143453
142164
140884
139618
138370
137141
135932
134741
133565
132400
131240
130082
128920
127749
126567
125369
124153
122915
121655
120373
119070
117751
116420
115080
113735
112387
111040
109693
108349
107010
105676
104346
103021
101700
100383
99069.7
97760.1
96454.8
95154
93858
92567.4
91282.4
90002.9
88728.8
87459.7
86195.9
84935.2
83676
82415.7
81151.5
79883.4
78610.8
77334.6
76054.4
74770.3
73484.7
72200.2
70916.7
69631.1
68340.1
67045.4
65749.6
64454.5
63159.2
61862.7
60567.6
59275.8
57987.4
56703.3
55425.6
54155.4
52892.1
51634.7
50384.1
49140.7
47904.1
46673.1
45447.7
44227.4
43011.8
41800.1
40591.4
39386
38184.3
36987.6
35798.1
34618.1
33449.6
32293.8
31151.2
30021.8
28905.6
27802.6
26711.8
25631.7
216029
215965
215851
215690
215487
215244
214955
214615
214214
213752
213236
212680
212095
211488
210860
210215
209554
208878
208190
207486
206769
206042
205307
204564
203815
203061
202298
201525
200739
199941
199128
198301
197461
196609
195743
194869
193990
193106
192219
191328
190434
189536
188632
187722
186804
185876
184934
183976
183002
182013
181010
179992
178963
177932
176906
175890
174886
173893
172906
171924
170944
169967
168991
168016
167043
166070
165093
164110
163114
162100
161064
160004
158920
157814
156690
155551
154400
153242
152079
150908
149722
148516
147286
146034
144766
143487
142207
140932
139667
138416
137183
135968
134768
133581
132403
131232
130061
128886
127704
126510
125304
124081
122840
121580
120300
119004
117694
116372
115043
113708
112369
111029
109690
108352
107018
105689
104363
103040
101721
100406
99094.7
97787.2
96484.6
95187.9
93897.4
92613.3
91335.5
90063.1
88795.1
87530.8
86269.2
85009.5
83749.5
82487
81219.9
79947.2
78670.1
77389.8
76106.2
74819.9
73533.5
72249.7
70968.6
69686.3
68399.8
67109.9
65818.8
64528.1
63236.7
61943.4
60650.9
59359.3
58070
56783.9
55503.8
54230.7
52964.7
51705.8
50455.1
49212.7
47977.7
46748.6
45524.3
44304.3
43087.6
41872.6
40658.4
39445.3
38234.5
37027.9
35828.3
34638.8
33462
32299.3
31150.8
30016.4
28895.9
27789.4
26696.1
25615
217673
217587
217434
217220
216952
216637
216275
215863
215397
214876
214304
213696
213063
212411
211740
211055
210355
209641
208913
208173
207420
206660
205893
205120
204343
203562
202775
201978
201171
200351
199518
198672
197814
196944
196063
195172
194275
193374
192469
191560
190648
189732
188812
187886
186955
186015
185064
184099
183121
182130
181125
180109
179084
178053
177023
175999
174985
173982
172988
171998
171011
170026
169043
168060
167080
166099
165115
164124
163122
162103
161063
160001
158915
157807
156680
155538
154383
153220
152050
150875
149689
148487
147266
146025
144767
143499
142226
140956
139694
138444
137208
135988
134782
133587
132400
131218
130036
128851