/*--------------------------------*- C++ -*----------------------------------*\
  =========                 |
  \\      /  F ield         | OpenFOAM: The Open Source CFD Toolbox
   \\    /   O peration     | Website:  https://openfoam.org
    \\  /    A nd           | Version:  9
     \\/     M anipulation  |
\*---------------------------------------------------------------------------*/
FoamFile
{
    format      ascii;
    class       volScalarField;
    location    "0.07";
    object      s_0;
}
// * * * * * * * * * * * * * * * * * * * * * * * * * * * * * * * * * * * * * //

dimensions      [0 0 0 0 0 0 0];

internalField   nonuniform List<scalar> 
12225
(
1
1
1
1
1
1
1
1
1
1
1
1
1
1
1
1
1
0.999998
1
1
1
1
1
1
1
1
1
1
1
1
1
1
1
1
1
1
1
1
1
1
1
1
1
1
1
1
1
1
1
1
1
1
1
1
1
1
1
1
1
1
1
1
1
1
1
1
1
1
1
1
1
1
1
1
1
1
1
1
1
1
1
1
1
1
1
1
1
1
1
1
1
1
1
1
1
1
1
1
1
1
1
1
1
1
1
1
1
1
1
1
1
1
1
1
1
1
1
1
1
1
1
1
1
1
1
1
1
1
1
1
1
1
1
1
1
1
1
1
1
1
1
1
1
1
1
1
1
1
1
1
1
1
1
1
1
1
1
1
1
1
1
1
1
1
1
1
1
1
1
1
1
1
1
1
1
1
1
1
1
1
1
1
1
1
1
1
1
1
1
1
1
1
1
1
1
1
1
1
1
1
1
1
1
1
1
1
1
1
1
1
1
1
1
1
1
1
1
1
1
1
1
1
1
1
1
1
1
1
1
1
1
1
1
1
1
1
1
1
1
1
1
1
1
1
1
1
1
1
1
1
1
1
1
1
1
1
1
1
1
1
1
1
1
1
1
1
1
1
1
1
1
1
1
1
1
1
1
1
1
1
1
1
1
1
1
1
1
1
1
1
1
1
1
1
1
1
1
1
1
1
1
1
1
1
1
1
1
1
1
1
1
1
1
1
1
1
1
1
1
1
1
1
1
1
1
1
1
1
1
1
1
1
1
1
1
1
1
1
1
1
1
1
1
1
1
1
1
1
1
1
1
1
1
1
1
1
1
1
1
1
1
1
1
1
1
1
1
1
1
1
1
1
1
1
1
1
1
1
1
1
1
1
1
1
1
1
1
1
1
1
1
1
1
1
1
1
1
1
1
1
1
1
1
1
1
1
1
1
1
1
1
1
1
1
1
1
1
1
1
1
1
1
1
1
1
1
1
1
1
1
1
1
1
1
1
1
1
1
1
1
1
1
1
1
1
1
1
1
1
1
1
1
1
1
1
1
1
1
1
1
1
1
1
1
1
1
1
1
1
1
1
1
1
1
1
1
1
1
1
1
1
1
1
1
1
1
1
1
1
1
1
1
1
1
1
1
1
1
1
1
1
1
1
1
1
1
1
1
1
1
1
1
1
1
1
1
1
1
1
1
1
1
1
1
1
1
1
1
1
1
1
1
1
1
1
1
1
1
1
1
0.745824
0.745618
0.739457
0.732521
0.722235
0.714461
0.711744
0.710964
0.710784
0.710789
0.710595
0.710109
0.70969
0.709212
0.708815
0.708345
0.707903
0.707484
0.707203
0.707138
0.707206
0.707522
0.708455
0.710107
0.712319
0.715056
0.717961
0.720001
0.720683
0.720616
0.718698
0.69713
0.641912
0.625981
0.626672
0.633297
0.641865
0.651528
0.659127
0.660681
0.661854
0.661677
0.660697
0.657594
0.655981
0.656126
0.658406
0.666339
0.689166
0.748537
0.800466
0.830419
0.84296
0.84596
0.845458
0.841029
0.834345
0.828318
0.822204
0.815767
0.809569
0.804677
0.80256
0.803699
0.806277
0.805328
0.800888
0.800629
0.796489
0.78568
0.781172
0.77633
0.770362
0.767362
0.763039
0.759409
0.756822
0.754469
0.753618
0.753305
0.753374
0.754308
0.756045
0.757962
0.760085
0.762987
0.765678
0.768063
0.771362
0.77507
0.778493
0.781823
0.785052
0.788075
0.791281
0.794924
0.798647
0.801948
0.80513
0.808505
0.812017
0.815778
0.819572
0.823498
0.827392
0.831236
0.834412
0.837342
0.840113
0.842726
0.844715
0.846451
0.847783
0.848196
0.84785
0.846006
0.842323
0.837286
0.832485
0.830054
0.829403
0.830065
0.833012
0.837346
0.841859
0.846107
0.849955
0.853392
0.856477
0.85928
0.861838
0.864173
0.86632
0.868276
0.870083
0.871724
0.873165
0.874328
0.875128
0.875563
0.875699
0.875659
0.875388
0.87508
0.875043
0.875435
0.877134
0.880581
0.88371
0.887016
0.890654
0.893384
0.895701
0.898816
0.901595
0.903197
0.905733
0.908058
0.909856
0.912508
0.918505
0.922476
0.924437
0.925836
0.925498
0.922948
0.919887
0.915042
0.911259
0.904113
0.8968
0.8941
0.890474
0.873751
0.79105
0.609146
0.569086
0.624468
0.727383
0.757407
0.743512
0.74501
0.737792
0.723234
0.707681
0.706198
0.707446
0.710637
0.715306
0.719297
0.722291
0.724396
0.724493
0.723941
0.722406
0.718879
0.715285
0.710631
0.705535
0.700879
0.695478
0.690984
0.68714
0.682953
0.681219
0.681276
0.682308
0.686442
0.690874
0.700687
0.708207
0.706806
0.700903
0.687856
0.662708
0.658395
0.664101
0.681494
0.724223
0.74556
0.748404
0.746718
0.736557
0.720684
0.718151
0.733844
0.790617
0.827073
0.839075
0.841289
0.84131
0.83842
0.831426
0.825049
0.819679
0.815073
0.811258
0.809116
0.807749
0.805966
0.803471
0.800592
0.801492
0.803486
0.803256
0.800946
0.795302
0.786041
0.76355
0.722509
0.689819
0.671333
0.654292
0.646885
0.641489
0.639836
0.63952
0.641057
0.643995
0.646627
0.648872
0.651534
0.654819
0.658335
0.66228
0.666755
0.671207
0.675758
0.680685
0.685957
0.691616
0.697605
0.703506
0.709552
0.715646
0.722168
0.728661
0.734946
0.741193
0.747305
0.752924
0.758509
0.764718
0.770899
0.77737
0.784637
0.791552
0.799224
0.807481
0.816278
0.826037
0.835751
0.846439
0.856969
0.868241
0.879351
0.887249
0.891066
0.890747
0.880281
0.8584
0.839011
0.825617
0.818726
0.816585
0.816566
0.817923
0.822741
0.829217
0.836039
0.843123
0.850118
0.857146
0.863745
0.870211
0.876437
0.882295
0.887896
0.892913
0.897166
0.900768
0.903963
0.906701
0.908958
0.910864
0.912549
0.914076
0.915507
0.916492
0.917391
0.918619
0.919704
0.920257
0.921204
0.922541
0.923682
0.925919
0.931722
0.93793
0.94884
0.959264
0.964594
0.966475
0.967199
0.967214
0.966755
0.96548
0.96053
0.940991
0.918081
0.904579
0.89889
0.896268
0.888272
0.84394
0.736537
0.73806
0.802931
0.874266
0.904575
0.721355
0.722621
0.712827
0.700634
0.703163
0.712281
0.726726
0.747821
0.764187
0.774964
0.780939
0.782008
0.781213
0.779074
0.775918
0.771954
0.769128
0.765426
0.758757
0.752498
0.743609
0.729066
0.713693
0.697978
0.685638
0.677833
0.668097
0.659592
0.657946
0.659439
0.664695
0.679373
0.690284
0.69
0.687285
0.686174
0.687279
0.699414
0.762781
0.818184
0.833395
0.839627
0.845635
0.849942
0.853623
0.853605
0.852784
0.849875
0.843478
0.836666
0.828755
0.819393
0.810103
0.803182
0.798517
0.795587
0.794326
0.794241
0.794752
0.795991
0.79705
0.799716
0.802077
0.802177
0.798362
0.789445
0.770098
0.724523
0.660295
0.634358
0.623815
0.61985
0.618831
0.619814
0.624455
0.62968
0.632574
0.635798
0.640625
0.644097
0.646677
0.650446
0.654436
0.657879
0.661917
0.666616
0.671378
0.676468
0.681695
0.686848
0.692226
0.698295
0.704278
0.710762
0.716987
0.723525
0.730044
0.736275
0.742516
0.748794
0.754399
0.759358
0.764808
0.769752
0.774154
0.778848
0.782991
0.787776
0.793827
0.797889
0.801981
0.806395
0.811867
0.819065
0.828802
0.842073
0.861438
0.885117
0.907809
0.923844
0.929713
0.928935
0.91631
0.885898
0.86059
0.842485
0.831146
0.825236
0.822876
0.822497
0.823015
0.826068
0.833823
0.841638
0.849403
0.85707
0.864225
0.871322
0.878312
0.885325
0.892017
0.898351
0.904054
0.908805
0.912284
0.915093
0.916758
0.917066
0.916748
0.915519
0.914635
0.914505
0.914881
0.916181
0.918548
0.92182
0.927553
0.942415
0.961037
0.971621
0.974028
0.973576
0.971815
0.970725
0.970743
0.971292
0.97316
0.973849
0.971168
0.958158
0.92652
0.908686
0.901253
0.896723
0.880865
0.850154
0.862757
0.896076
0.914255
0.919161
0.702655
0.688948
0.688026
0.696894
0.722786
0.764702
0.794459
0.804267
0.805799
0.804833
0.802231
0.798285
0.793461
0.788666
0.784235
0.780478
0.778527
0.776854
0.775015
0.77394
0.772737
0.77014
0.763864
0.752967
0.733092
0.70487
0.680968
0.664164
0.648186
0.641009
0.640878
0.643597
0.655005
0.675639
0.683395
0.685193
0.688949
0.718894
0.813864
0.854927
0.865745
0.86951
0.874414
0.874978
0.872316
0.866008
0.857861
0.844468
0.827473
0.811989
0.801632
0.795765
0.792958
0.791958
0.791684
0.79181
0.791908
0.792054
0.79287
0.794596
0.797423
0.800599
0.801105
0.797571
0.785764
0.7583
0.69675
0.641551
0.623675
0.619494
0.620033
0.627204
0.638574
0.652906
0.665014
0.670508
0.674645
0.679622
0.683358
0.686504
0.69103
0.696881
0.702922
0.709287
0.71673
0.724304
0.731998
0.740194
0.749478
0.758353
0.766122
0.775047
0.78421
0.793305
0.801069
0.807782
0.813257
0.817586
0.821879
0.826438
0.830895
0.834944
0.839491
0.844213
0.847846
0.849962
0.8532
0.858144
0.868332
0.873757
0.874557
0.872203
0.86529
0.856407
0.847376
0.84204
0.843555
0.853258
0.872927
0.899553
0.927483
0.945243
0.951048
0.950174
0.940761
0.917591
0.898614
0.884028
0.8722
0.86254
0.855813
0.852492
0.851671
0.85178
0.852865
0.85731
0.864052
0.869834
0.874414
0.879205
0.883825
0.888112
0.893258
0.899073
0.903403
0.905186
0.905211
0.903373
0.895687
0.887332
0.88359
0.883139
0.884779
0.892826
0.90239
0.918404
0.944239
0.9665
0.975884
0.976407
0.973429
0.963288
0.95466
0.951476
0.9515
0.952915
0.956312
0.966416
0.972651
0.971832
0.964163
0.935037
0.910856
0.90256
0.891439
0.88328
0.891231
0.905433
0.913694
0.914598
0.674485
0.673397
0.692853
0.749641
0.806006
0.820025
0.818657
0.81528
0.812375
0.808911
0.804565
0.800309
0.793558
0.782586
0.77335
0.764654
0.758719
0.757695
0.758554
0.762124
0.766591
0.768246
0.768168
0.766407
0.761088
0.750316
0.722576
0.681918
0.654128
0.635551
0.628482
0.628462
0.632469
0.651196
0.673745
0.68103
0.698325
0.782672
0.852811
0.873961
0.887002
0.896563
0.893997
0.886593
0.872581
0.844801
0.815912
0.800295
0.792924
0.790362
0.789989
0.790243
0.791616
0.793151
0.793811
0.793821
0.793208
0.792772
0.793202
0.795256
0.799045
0.800032
0.797517
0.7861
0.756602
0.689709
0.636743
0.620939
0.618348
0.622635
0.637681
0.666759
0.684595
0.691192
0.694301
0.695851
0.696888
0.698498
0.700924
0.704595
0.71002
0.717666
0.727953
0.74118
0.757497
0.776626
0.797757
0.819422
0.838939
0.857604
0.878404
0.89647
0.910912
0.920562
0.928264
0.934153
0.937209
0.938389
0.938668
0.938034
0.935265
0.932886
0.932214
0.932068
0.93245
0.932826
0.933811
0.935032
0.936709
0.940332
0.946075
0.951912
0.955356
0.955889
0.952684
0.941205
0.920239
0.897922
0.884898
0.886969
0.906219
0.93359
0.954795
0.964885
0.966164
0.963205
0.947838
0.924516
0.907853
0.896206
0.887993
0.882569
0.879638
0.87862
0.878556
0.878936
0.88088
0.885571
0.889094
0.890914
0.8916
0.891789
0.891875
0.891966
0.891999
0.891463
0.886579
0.871125
0.858975
0.853726
0.85285
0.854153
0.860634
0.877873
0.906379
0.939226
0.965453
0.976947
0.977442
0.970474
0.950358
0.939992
0.935959
0.934845
0.93492
0.936033
0.938973
0.942506
0.954761
0.967535
0.968222
0.962016
0.933566
0.910341
0.897061
0.891604
0.894767
0.900476
0.901227
0.900968
0.654697
0.680436
0.778327
0.828352
0.831739
0.82647
0.819583
0.816258
0.815493
0.813796
0.812492
0.807548
0.79666
0.780669
0.76305
0.748233
0.735327
0.727173
0.725611
0.726431
0.729937
0.741596
0.75351
0.756797
0.756218
0.75248
0.741192
0.707711
0.666765
0.638201
0.623885
0.621328
0.625873
0.652854
0.671898
0.686516
0.756423
0.852461
0.885516
0.903657
0.910749
0.907026
0.894016
0.862075
0.818751
0.797999
0.789986
0.788066
0.788184
0.78935
0.792984
0.799433
0.805779
0.809194
0.808683
0.806691
0.802434
0.797084
0.795282
0.797335
0.799143
0.797762
0.788413
0.760533
0.698886
0.63886
0.620756
0.617668
0.621893
0.641928
0.677374
0.69249
0.697621
0.699572
0.700497
0.701101
0.702118
0.703903
0.70659
0.710781
0.717197
0.726425
0.738909
0.75512
0.775456
0.799913
0.828178
0.859269
0.891156
0.919261
0.938022
0.949103
0.956057
0.961621
0.96644
0.970111
0.972263
0.97322
0.973447
0.972619
0.96938
0.964582
0.961248
0.95913
0.958024
0.957857
0.958375
0.95849
0.957764
0.957407
0.959385
0.964286
0.970066
0.975204
0.979099
0.981218
0.981169
0.977161
0.962673
0.94009
0.927941
0.929831
0.947362
0.96664
0.97704
0.980039
0.979684
0.975716
0.959072
0.933564
0.914704
0.901796
0.89347
0.88868
0.886489
0.885908
0.885971
0.886852
0.890272
0.893903
0.895843
0.896435
0.89638
0.895429
0.89108
0.877125
0.861068
0.850541
0.846073
0.845204
0.845608
0.848231
0.857868
0.888275
0.928995
0.960089
0.976119
0.978434
0.971123
0.949422
0.93862
0.934434
0.932612
0.931713
0.931444
0.931794
0.934783
0.938252
0.941734
0.95319
0.96515
0.965459
0.957085
0.926412
0.903369
0.894222
0.89365
0.892738
0.893373
0.895245
0.668899
0.748791
0.834938
0.841854
0.833371
0.821631
0.820188
0.826806
0.835542
0.836212
0.829618
0.817513
0.800555
0.779208
0.755284
0.736458
0.723028
0.713733
0.710416
0.710506
0.711862
0.71561
0.725618
0.740149
0.747065
0.747176
0.741842
0.725778
0.684792
0.63963
0.620505
0.617858
0.628393
0.661573
0.676724
0.731535
0.850574
0.893608
0.913251
0.91977
0.916272
0.897192
0.854006
0.808417
0.791246
0.786594
0.786303
0.787373
0.791289
0.80017
0.811842
0.820977
0.823902
0.823983
0.821854
0.816522
0.806926
0.799798
0.798315
0.798513
0.798031
0.791559
0.769272
0.719026
0.646304
0.62055
0.614963
0.6157
0.627453
0.65543
0.686459
0.696758
0.70003
0.701386
0.702124
0.703055
0.704974
0.708542
0.714393
0.723059
0.73501
0.750616
0.77
0.793075
0.820073
0.85084
0.885612
0.918529
0.940609
0.951732
0.957603
0.961573
0.965133
0.968798
0.972585
0.975479
0.977641
0.979237
0.980239
0.980622
0.979868
0.977131
0.972392
0.96865
0.966138
0.964842
0.9647
0.965213
0.965585
0.965241
0.964847
0.966368
0.970884
0.97628
0.981266
0.985377
0.988604
0.990477
0.990531
0.987766
0.977676
0.965812
0.962087
0.965878
0.978505
0.986496
0.989499
0.989814
0.988957
0.984718
0.969183
0.943323
0.922339
0.907138
0.897245
0.89181
0.88956
0.889075
0.889304
0.891106
0.894626
0.896401
0.896622
0.895755
0.890132
0.871619
0.855348
0.847347
0.844929
0.844825
0.845997
0.852056
0.874938
0.918031
0.952153
0.972987
0.97906
0.97609
0.95736
0.942328
0.93656
0.934125
0.932874
0.931855
0.931086
0.930942
0.931846
0.937043
0.940456
0.943999
0.955517
0.963819
0.962503
0.947634
0.913325
0.896881
0.890666
0.890447
0.89371
0.897015
0.681346
0.785955
0.849134
0.843634
0.827667
0.825172
0.838624
0.852145
0.850584
0.843764
0.829487
0.81257
0.793949
0.769742
0.739148
0.714599
0.703375
0.70014
0.70036
0.70149
0.703671
0.706487
0.712806
0.725522
0.735796
0.739049
0.737241
0.723911
0.679766
0.633381
0.61183
0.615575
0.646305
0.670118
0.708302
0.843234
0.90015
0.919816
0.925961
0.924441
0.904376
0.86075
0.8089
0.789699
0.785677
0.785395
0.786975
0.792327
0.802169
0.814028
0.823447
0.826583
0.827169
0.826394
0.823006
0.816383
0.806183
0.80017
0.798712
0.797972
0.794319
0.779205
0.740163
0.66761
0.622748
0.611142
0.609365
0.612274
0.62602
0.650779
0.68073
0.694555
0.699177
0.701381
0.702953
0.705533
0.710855
0.720257
0.734172
0.752401
0.77463
0.800274
0.828291
0.857551
0.888158
0.917142
0.938365
0.950313
0.956563
0.960071
0.962186
0.963838
0.965898
0.969019
0.972513
0.975204
0.977308
0.979033
0.980518
0.981509
0.981986
0.981786
0.980411
0.976742
0.971912
0.968483
0.966987
0.966914
0.96754
0.968431
0.96925
0.969495
0.970611
0.97438
0.979048
0.984065
0.988479
0.991812
0.994024
0.994993
0.994704
0.9922
0.987501
0.984753
0.984818
0.988566
0.993229
0.995171
0.995578
0.995419
0.994285
0.990216
0.976712
0.951389
0.928874
0.911769
0.900364
0.893935
0.891126
0.890436
0.890679
0.892551
0.894028
0.893824
0.890216
0.874242
0.857202
0.849975
0.848661
0.849091
0.852223
0.865833
0.906183
0.943696
0.968
0.978868
0.979558
0.970713
0.950476
0.940804
0.937657
0.937454
0.937302
0.936211
0.933673
0.931642
0.931315
0.933305
0.94038
0.943466
0.947548
0.959218
0.962161
0.957415
0.930393
0.901389
0.890445
0.889708
0.894409
0.900401
0.687488
0.806176
0.855702
0.841741
0.828955
0.842141
0.858474
0.858794
0.852584
0.836558
0.81262
0.791528
0.775112
0.751237
0.715861
0.690581
0.687031
0.689325
0.6954
0.69891
0.702531
0.706884
0.714577
0.726099
0.73427
0.736068
0.733174
0.716246
0.663748
0.613755
0.602266
0.621231
0.666633
0.694312
0.822717
0.901006
0.924548
0.931077
0.931115
0.916476
0.878295
0.822224
0.792626
0.786109
0.785295
0.786527
0.791617
0.800449
0.810212
0.819701
0.824843
0.826642
0.826934
0.825758
0.821571
0.813753
0.80382
0.79983
0.798217
0.795565
0.785696
0.756407
0.69598
0.632205
0.610749
0.605755
0.605456
0.609469
0.621802
0.643325
0.671854
0.691531
0.698533
0.702098
0.70594
0.713598
0.727609
0.748769
0.77593
0.807107
0.840438
0.874849
0.904889
0.926614
0.940102
0.948802
0.954623
0.958459
0.960879
0.962426
0.963394
0.964095
0.965056
0.966835
0.969102
0.97086
0.972431
0.97402
0.975917
0.978169
0.980272
0.981825
0.982606
0.982617
0.981388
0.977074
0.97153
0.968713
0.968202
0.968883
0.970501
0.972774
0.974237
0.974962
0.977616
0.982065
0.986623
0.990678
0.993869
0.995982
0.997127
0.997372
0.997041
0.995982
0.995338
0.995267
0.9959
0.997432
0.998176
0.99836
0.998336
0.998063
0.996948
0.993443
0.982426
0.95768
0.934326
0.916053
0.903269
0.895427
0.891384
0.889863
0.889562
0.889366
0.887642
0.877548
0.861982
0.855765
0.855061
0.856032
0.861644
0.884942
0.927151
0.957919
0.975495
0.980918
0.979472
0.965784
0.948347
0.942635
0.94329
0.946035
0.947411
0.947021
0.943405
0.936709
0.932762
0.932432
0.936686
0.943806
0.946649
0.953084
0.960784
0.960057
0.947033
0.908983
0.891445
0.889626
0.893769
0.898669
0.697026
0.826507
0.859702
0.841267
0.840241
0.858066
0.864906
0.860424
0.845865
0.814499
0.785619
0.766954
0.755353
0.735831
0.699241
0.674996
0.675148
0.68412
0.695634
0.702786
0.706761
0.711735
0.719438
0.727524
0.732395
0.732397
0.725564
0.695914
0.62453
0.58809
0.605069
0.642717
0.693271
0.775672
0.894544
0.926668
0.935675
0.937017
0.930367
0.904451
0.856417
0.804844
0.788668
0.785887
0.786138
0.789764
0.797056
0.805081
0.812607
0.818728
0.823293
0.824893
0.825041
0.822781
0.816173
0.806326
0.801116
0.798917
0.796081
0.788502
0.766174
0.720357
0.654486
0.616199
0.606009
0.604249
0.604726
0.609514
0.622485
0.645631
0.675768
0.693019
0.70032
0.706226
0.717168
0.737629
0.768358
0.807594
0.851382
0.892666
0.923128
0.940208
0.949804
0.955202
0.958484
0.960592
0.96182
0.962456
0.962968
0.963491
0.963921
0.964171
0.964495
0.964985
0.965387
0.965534
0.965411
0.965293
0.965744
0.9674
0.970561
0.974806
0.979039
0.981883
0.983294
0.983361
0.981748
0.976288
0.971413
0.970006
0.970486
0.972949
0.976816
0.980065
0.981257
0.982852
0.986556
0.990217
0.993315
0.99569
0.997324
0.998281
0.99869
0.998754
0.998698
0.998655
0.998707
0.998995
0.999301
0.99944
0.99947
0.99946
0.999387
0.999098
0.998136
0.995199
0.986204
0.964857
0.943017
0.923422
0.907195
0.895822
0.890025
0.887575
0.884103
0.873656
0.862994
0.86005
0.860351
0.8631
0.874179
0.90927
0.945385
0.968249
0.979648
0.981969
0.979193
0.962669
0.949575
0.948839
0.952195
0.95774
0.959746
0.959224
0.956614
0.948984
0.938605
0.933886
0.934163
0.941119
0.947028
0.950194
0.957643
0.959655
0.954465
0.923358
0.89478
0.889639
0.891361
0.892514
0.707681
0.839833
0.862374
0.843535
0.84813
0.866033
0.869765
0.859565
0.828634
0.788034
0.760593
0.74916
0.742507
0.726189
0.687108
0.654833
0.655917
0.666215
0.673436
0.683434
0.691547
0.701715
0.713141
0.721992
0.72503
0.721881
0.702003
0.632688
0.581854
0.587662
0.618766
0.683845
0.747377
0.874084
0.925292
0.939156
0.942218
0.941168
0.929
0.897888
0.845377
0.799629
0.788048
0.786617
0.788032
0.793472
0.800339
0.805533
0.809404
0.814085
0.817406
0.818699
0.818733
0.814431
0.806686
0.801898
0.799429
0.796719
0.790629
0.774865
0.740958
0.687261
0.631483
0.611414
0.605965
0.604875
0.606629
0.614747
0.633239
0.661877
0.684047
0.696667
0.70536
0.720211
0.749119
0.793001
0.847866
0.900763
0.934272
0.949228
0.956626
0.960801
0.963776
0.965564
0.966302
0.966358
0.965998
0.965426
0.965001
0.964811
0.964818
0.964821
0.964776
0.964883
0.96483
0.964554
0.963838
0.962854
0.962015
0.961539
0.961644
0.962617
0.965471
0.971178
0.978003
0.982292
0.984041
0.984169
0.981735
0.976248
0.973592
0.973699
0.976632
0.981809
0.986359
0.989174
0.990742
0.992139
0.99386
0.995694
0.997234
0.99833
0.998991
0.999331
0.999473
0.999531
0.999585
0.999663
0.999746
0.999807
0.999833
0.999837
0.999833
0.999809
0.999726
0.999476
0.998746
0.996715
0.991089
0.975663
0.955187
0.932995
0.911368
0.892647
0.87689
0.866588
0.863946
0.864681
0.868075
0.877132
0.903884
0.9425
0.967418
0.979458
0.983623
0.983703
0.979303
0.961611
0.95475
0.955776
0.962171
0.966518
0.96677
0.964865
0.961077
0.958008
0.950074
0.938649
0.935093
0.937148
0.946004
0.949721
0.955583
0.959136
0.957497
0.939261
0.901172
0.890633
0.888442
0.88793
0.718477
0.846451
0.863555
0.850647
0.855346
0.873804
0.873502
0.853653
0.809073
0.766239
0.746792
0.738982
0.734029
0.717943
0.677275
0.63196
0.61214
0.600648
0.589969
0.592456
0.608013
0.633701
0.664823
0.688066
0.694258
0.678659
0.622616
0.578735
0.57388
0.596856
0.6508
0.731497
0.833561
0.916151
0.939903
0.946623
0.94788
0.945794
0.933205
0.903344
0.8504
0.801149
0.788782
0.787376
0.789228
0.795427
0.800202
0.8023
0.805163
0.808104
0.80945
0.809933
0.809205
0.805713
0.802112
0.799926
0.79716
0.792286
0.781451
0.755947
0.716843
0.664826
0.625677
0.612601
0.609079
0.609844
0.617358
0.636555
0.660964
0.680622
0.693982
0.706907
0.725893
0.762667
0.823865
0.892413
0.935756
0.952524
0.959925
0.963893
0.966693
0.968815
0.970111
0.970721
0.970911
0.970928
0.970646
0.970118
0.969426
0.968714
0.968111
0.967649
0.967206
0.96666
0.966054
0.96541
0.964398
0.963085
0.961904
0.96099
0.96038
0.959945
0.959522
0.959448
0.961743
0.970217
0.979072
0.984044
0.986129
0.986492
0.983546
0.980009
0.9795
0.982128
0.987533
0.991912
0.994893
0.996449
0.996902
0.99714
0.997692
0.998429
0.99905
0.999451
0.99967
0.99978
0.999837
0.999875
0.999906
0.999931
0.999946
0.999952
0.999952
0.99995
0.999942
0.999914
0.999838
0.999644
0.999173
0.998048
0.995242
0.987096
0.959279
0.917527
0.890142
0.881022
0.88147
0.885837
0.895902
0.918046
0.949641
0.974981
0.986704
0.989079
0.988786
0.987354
0.97949
0.963762
0.960786
0.96318
0.969289
0.970793
0.970431
0.967763
0.962783
0.959595
0.956736
0.947683
0.938009
0.936943
0.942539
0.949521
0.953745
0.958154
0.958057
0.94961
0.914996
0.893903
0.88855
0.886765
0.728477
0.852797
0.866176
0.855161
0.864601
0.876726
0.87357
0.846018
0.796662
0.75568
0.74009
0.732891
0.726188
0.707108
0.668
0.612066
0.580308
0.565298
0.555586
0.552902
0.5564
0.569146
0.589571
0.606716
0.612081
0.591005
0.569239
0.564627
0.580375
0.623501
0.710545
0.788382
0.895417
0.935781
0.948286
0.952142
0.952902
0.951333
0.941773
0.917572
0.870776
0.810219
0.790604
0.788004
0.78943
0.795487
0.799212
0.800648
0.802069
0.803217
0.803617
0.803669
0.80254
0.800595
0.799119
0.796946
0.792364
0.782419
0.763797
0.734783
0.697694
0.658542
0.629073
0.620802
0.621097
0.630351
0.648701
0.666338
0.6809
0.693332
0.707425
0.730788
0.773613
0.8558
0.928786
0.95209
0.96021
0.963588
0.965621
0.96773
0.969958
0.972243
0.974172
0.975729
0.977165
0.978384
0.979242
0.979664
0.979545
0.97876
0.977508
0.976144
0.974821
0.973389
0.971886
0.970376
0.968545
0.966391
0.964294
0.962498
0.961168
0.960234
0.95934
0.958013
0.956243
0.955474
0.960907
0.973656
0.983377
0.988259
0.99042
0.990511
0.988102
0.986834
0.988423
0.992642
0.99577
0.997667
0.998638
0.998998
0.999039
0.999037
0.99921
0.999521
0.99973
0.999849
0.999911
0.999943
0.999962
0.999974
0.999982
0.999986
0.999987
0.999987
0.999986
0.999983
0.999973
0.999948
0.999886
0.999733
0.99931
0.997871
0.992064
0.966951
0.935922
0.928215
0.930038
0.939333
0.955426
0.968855
0.982593
0.992038
0.995276
0.995257
0.994221
0.99135
0.980106
0.968122
0.966889
0.969652
0.973726
0.97455
0.973611
0.969886
0.964194
0.959668
0.957509
0.954114
0.943516
0.938338
0.939819
0.948183
0.953072
0.957373
0.95812
0.954639
0.930438
0.90037
0.889868
0.887006
0.738111
0.859673
0.869104
0.859039
0.868375
0.878284
0.873124
0.843171
0.790793
0.749131
0.732993
0.725023
0.714402
0.691974
0.647698
0.592194
0.566426
0.556124
0.54955
0.543941
0.541204
0.542358
0.549581
0.556659
0.558398
0.555416
0.558531
0.570372
0.605322
0.686575
0.758662
0.851119
0.92283
0.945371
0.953744
0.956662
0.957316
0.956513
0.950474
0.933513
0.897315
0.834196
0.795143
0.788583
0.788734
0.793487
0.798245
0.799762
0.800639
0.801051
0.801158
0.800836
0.799323
0.797646
0.795937
0.791168
0.781662
0.767374
0.746308
0.721072
0.694703
0.661689
0.644573
0.643789
0.649152
0.660495
0.672514
0.683051
0.693693
0.710384
0.737398
0.791743
0.897091
0.949144
0.960353
0.963328
0.964416
0.965184
0.966445
0.968308
0.970526
0.973093
0.975985
0.979095
0.981939
0.984115
0.98565
0.986806
0.987744
0.988414
0.988707
0.988616
0.988192
0.987367
0.985819
0.983506
0.980309
0.976197
0.971978
0.968127
0.964979
0.962882
0.96152
0.959761
0.956706
0.95306
0.950969
0.953537
0.967472
0.9827
0.990335
0.99358
0.994802
0.994317
0.993104
0.993605
0.996105
0.997986
0.998993
0.999471
0.999653
0.99969
0.999684
0.999692
0.999783
0.999883
0.999938
0.999966
0.999981
0.999989
0.999993
0.999995
0.999996
0.999997
0.999997
0.999996
0.999995
0.999992
0.999983
0.999959
0.999883
0.999575
0.998165
0.991108
0.980962
0.979038
0.980218
0.984435
0.987636
0.99117
0.995342
0.997926
0.998585
0.998432
0.997508
0.994419
0.982344
0.973317
0.972732
0.975012
0.978041
0.978259
0.975397
0.970327
0.964662
0.95904
0.956577
0.954918
0.949437
0.940765
0.939935
0.94542
0.952453
0.956689
0.958058
0.956781
0.945774
0.912542
0.893873
0.888438
0.744818
0.863699
0.873087
0.86262
0.871856
0.881093
0.874846
0.843103
0.789478
0.74588
0.725524
0.714344
0.699243
0.671916
0.630571
0.58345
0.563817
0.555587
0.549743
0.540666
0.535947
0.535644
0.537605
0.542006
0.547376
0.554222
0.566428
0.597502
0.667911
0.733081
0.805767
0.8981
0.935969
0.950003
0.956612
0.959786
0.960601
0.960378
0.957176
0.946524
0.921289
0.871344
0.808432
0.790218
0.788183
0.789762
0.79539
0.797791
0.798579
0.798872
0.798895
0.798143
0.796337
0.793766
0.789392
0.781359
0.769957
0.755917
0.739165
0.721136
0.696857
0.673356
0.66748
0.667585
0.671949
0.677916
0.685795
0.697637
0.717039
0.754791
0.844593
0.929504
0.959862
0.964207
0.964316
0.96433
0.964509
0.965035
0.966081
0.967771
0.96984
0.972328
0.975451
0.978939
0.982155
0.984562
0.986193
0.987445
0.988611
0.989734
0.990701
0.991453
0.992045
0.992553
0.993018
0.993377
0.993211
0.991786
0.987648
0.980702
0.973337
0.968186
0.965522
0.963902
0.960776
0.954603
0.949501
0.947728
0.949916
0.965039
0.983621
0.992433
0.995929
0.997282
0.997407
0.996935
0.996988
0.99814
0.999118
0.999591
0.999798
0.999876
0.999898
0.999902
0.999908
0.99993
0.999959
0.999978
0.999989
0.999994
0.999997
0.999998
0.999999
0.999999
0.999999
0.999999
0.999999
0.999999
0.999998
0.999994
0.999984
0.999941
0.999761
0.998893
0.996786
0.996139
0.996257
0.996706
0.997085
0.997893
0.998949
0.999523
0.999627
0.999528
0.998935
0.996383
0.985953
0.978741
0.978345
0.980148
0.981802
0.981047
0.975904
0.970237
0.964503
0.957479
0.95384
0.953134
0.951636
0.944324
0.940741
0.942981
0.951308
0.956328
0.958002
0.957654
0.953017
0.93391
0.90285
0.892557
0.752851
0.868767
0.876853
0.867073
0.876373
0.885878
0.881185
0.853241
0.801402
0.747397
0.72211
0.707131
0.68804
0.661357
0.625627
0.587318
0.573005
0.566549
0.56004
0.54779
0.540351
0.539115
0.539977
0.545434
0.55481
0.57005
0.603879
0.65726
0.708298
0.767317
0.852733
0.920334
0.943583
0.953397
0.958321
0.961412
0.962453
0.962621
0.961588
0.956535
0.94235
0.911123
0.853421
0.800785
0.789321
0.788193
0.789403
0.792824
0.794096
0.794363
0.794089
0.7921
0.788944
0.785313
0.779935
0.771757
0.762013
0.751948
0.739964
0.724208
0.706477
0.691659
0.686466
0.686418
0.687085
0.691675
0.703839
0.727867
0.782991
0.869799
0.933907
0.959862
0.964423
0.964184
0.963404
0.962897
0.962705
0.963122
0.964065
0.965469
0.966968
0.968269
0.970375
0.973651
0.977552
0.98063
0.982313
0.983371
0.98453
0.986008
0.987543
0.988837
0.989947
0.991071
0.992396
0.993823
0.995112
0.995943
0.996133
0.994739
0.988219
0.977841
0.971683
0.968838
0.965959
0.958992
0.950661
0.946554
0.946179
0.950024
0.969598
0.986939
0.994695
0.997617
0.998672
0.998928
0.998886
0.998877
0.999246
0.999655
0.999847
0.999927
0.999958
0.999969
0.999974
0.999979
0.999984
0.99999
0.999994
0.999997
0.999998
0.999999
1
1
1
1
1
1
1
0.999999
0.999998
0.999994
0.999979
0.999903
0.999581
0.999386
0.999386
0.999421
0.999459
0.999569
0.999792
0.999897
0.999905
0.999844
0.999474
0.99764
0.989637
0.983911
0.983618
0.984784
0.98509
0.982491
0.975834
0.968595
0.96177
0.954173
0.949373
0.949137
0.949526
0.947549
0.942089
0.942368
0.949105
0.955845
0.957971
0.957994
0.956192
0.947674
0.921888
0.903517
0.762153
0.874681
0.881797
0.87254
0.881561
0.891635
0.888436
0.865355
0.818697
0.763803
0.724167
0.704553
0.684789
0.65968
0.634915
0.604992
0.589076
0.584145
0.581513
0.577222
0.568364
0.561973
0.560996
0.569988
0.593129
0.618524
0.651888
0.691893
0.734068
0.796055
0.884225
0.930686
0.946967
0.954074
0.958618
0.962369
0.963557
0.963825
0.963647
0.961952
0.955984
0.940624
0.907966
0.850047
0.800604
0.789668
0.788269
0.788476
0.789425
0.789764
0.789555
0.787409
0.783451
0.779355
0.774632
0.768203
0.760705
0.752418
0.742695
0.731325
0.720698
0.710089
0.704323
0.701419
0.7034
0.714532
0.743528
0.805723
0.880344
0.934206
0.957675
0.962947
0.962948
0.960784
0.958666
0.957247
0.956827
0.95771
0.959443
0.961417
0.963022
0.964716
0.965714
0.966535
0.967766
0.969222
0.969921
0.969872
0.970172
0.971345
0.973052
0.974595
0.976094
0.978151
0.981529
0.986119
0.990926
0.994712
0.996718
0.997346
0.996944
0.992796
0.98462
0.979248
0.973834
0.964535
0.953863
0.947162
0.9456
0.946855
0.957315
0.979324
0.991563
0.996835
0.998749
0.999411
0.999624
0.999675
0.999702
0.999789
0.999892
0.99995
0.999976
0.999987
0.999992
0.999994
0.999995
0.999997
0.999998
0.999999
0.999999
1
1
1
1
1
1
1
1
1
1
0.999999
0.999998
0.99999
0.999949
0.999917
0.999916
0.999919
0.999921
0.999933
0.999965
0.999977
0.999973
0.999929
0.999689
0.998466
0.99285
0.988441
0.988201
0.988608
0.987188
0.982365
0.974854
0.964771
0.956006
0.949126
0.94471
0.944097
0.945626
0.946227
0.943748
0.942698
0.946741
0.955113
0.957966
0.958353
0.9577
0.954069
0.938776
0.920603
0.773784
0.879885
0.886033
0.878409
0.887684
0.897466
0.895497
0.878134
0.841687
0.794019
0.748324
0.713409
0.689469
0.667061
0.651168
0.631198
0.607108
0.599931
0.598143
0.597996
0.600685
0.605801
0.607873
0.614033
0.633857
0.656445
0.678294
0.710593
0.755085
0.821275
0.901264
0.934397
0.947314
0.953779
0.958277
0.962428
0.964185
0.964783
0.964826
0.964344
0.962237
0.956088
0.941303
0.910651
0.856642
0.804718
0.791011
0.788347
0.787698
0.787404
0.787041
0.78565
0.782727
0.778726
0.774228
0.768429
0.761521
0.754193
0.746986
0.740493
0.733651
0.726243
0.719021
0.720114
0.732524
0.76591
0.823837
0.883814
0.930566
0.954101
0.960635
0.961235
0.957349
0.952304
0.94795
0.945326
0.945312
0.947636
0.951625
0.95628
0.960571
0.963592
0.965184
0.965643
0.965691
0.965284
0.963555
0.960594
0.958162
0.9569
0.956662
0.956905
0.957456
0.958732
0.961081
0.966163
0.97574
0.986293
0.9934
0.996851
0.997855
0.99786
0.996584
0.994364
0.989293
0.977619
0.96171
0.950432
0.94639
0.946724
0.953038
0.973597
0.988436
0.995513
0.99839
0.999412
0.999756
0.999876
0.999921
0.999945
0.999962
0.999976
0.999987
0.999993
0.999996
0.999998
0.999999
0.999999
0.999999
1
1
1
1
1