/*--------------------------------*- C++ -*----------------------------------*\
  =========                 |
  \\      /  F ield         | OpenFOAM: The Open Source CFD Toolbox
   \\    /   O peration     | Website:  https://openfoam.org
    \\  /    A nd           | Version:  9
     \\/     M anipulation  |
\*---------------------------------------------------------------------------*/
FoamFile
{
    format      ascii;
    class       volScalarField;
    location    "0.09";
    object      k;
}
// * * * * * * * * * * * * * * * * * * * * * * * * * * * * * * * * * * * * * //

dimensions      [0 2 -2 0 0 0 0];

internalField   nonuniform List<scalar> 
12225
(
0.314464
0.264119
0.226176
0.198719
0.180398
0.170147
0.167029
0.170131
0.178545
0.191393
0.207871
0.227303
0.249203
0.273325
0.299747
0.328955
0.36219
0.411671
0.362057
0.35039
0.34789
0.358321
0.382298
0.419058
0.466982
0.523864
0.587279
0.654959
0.725093
0.796512
0.868799
0.94234
1.01839
1.099
1.1876
1.28875
0.368484
0.362668
0.357241
0.353393
0.35234
0.354644
0.360448
0.369669
0.382081
0.397415
0.415471
0.436222
0.459919
0.487206
0.519257
0.557975
0.606328
0.668953
0.369747
0.364154
0.35876
0.353823
0.349699
0.346615
0.344621
0.343669
0.343664
0.344506
0.346132
0.348553
0.351895
0.356452
0.362762
0.371727
0.384818
0.40424
0.370289
0.365247
0.360262
0.355443
0.350922
0.346801
0.343132
0.339916
0.337122
0.334707
0.332626
0.330851
0.329384
0.32827
0.327624
0.327671
0.328818
0.331733
0.370517
0.365854
0.361265
0.356785
0.352463
0.348349
0.344474
0.340853
0.337482
0.33435
0.331439
0.328734
0.326223
0.323906
0.321794
0.319916
0.318337
0.317166
0.370604
0.366141
0.361813
0.357618
0.353563
0.349663
0.345931
0.342377
0.339007
0.335822
0.332821
0.330002
0.327366
0.324914
0.322649
0.32057
0.318679
0.316963
0.370634
0.366259
0.362075
0.358062
0.354209
0.350511
0.346967
0.34358
0.340354
0.337292
0.334398
0.331679
0.329143
0.326798
0.324652
0.322711
0.320973
0.319423
0.370642
0.366303
0.362185
0.35827
0.354539
0.35098
0.347583
0.344347
0.341269
0.338351
0.335599
0.333019
0.330623
0.328422
0.32643
0.324656
0.323105
0.321773
0.370644
0.366317
0.362227
0.358356
0.354688
0.351208
0.347904
0.34477
0.341801
0.338997
0.336362
0.333902
0.331627
0.32955
0.327683
0.326039
0.324627
0.32345
0.370643
0.366321
0.362242
0.35839
0.35475
0.351309
0.348054
0.344978
0.342075
0.339345
0.336787
0.334409
0.332216
0.330222
0.328436
0.326871
0.325537
0.32444
0.370643
0.366321
0.362246
0.358402
0.354773
0.351348
0.348115
0.345065
0.342195
0.3395
0.336982
0.334644
0.332493
0.330536
0.328785
0.327247
0.325934
0.324852
0.370642
0.366321
0.362249
0.358408
0.354785
0.351368
0.348145
0.345109
0.342255
0.339579
0.33708
0.334762
0.332629
0.330687
0.328943
0.327405
0.326081
0.324976
0.370641
0.366321
0.36225
0.358412
0.354793
0.35138
0.348164
0.345136
0.34229
0.339622
0.337132
0.33482
0.332688
0.330741
0.328983
0.327419
0.326054
0.324895
0.370641
0.366321
0.362251
0.358415
0.354799
0.351391
0.348179
0.345156
0.342314
0.33965
0.337162
0.334847
0.332707
0.330742
0.328956
0.327349
0.325926
0.32469
0.37064
0.36632
0.362251
0.358417
0.354805
0.3514
0.348193
0.345174
0.342337
0.339675
0.337186
0.334866
0.332713
0.330727
0.328908
0.327253
0.325764
0.324447
0.370639
0.366318
0.36225
0.358418
0.354809
0.351408
0.348206
0.345193
0.34236
0.339701
0.337212
0.334887
0.332723
0.330717
0.328865
0.327165
0.325615
0.324222
0.370637
0.366315
0.362247
0.358418
0.354811
0.351416
0.34822
0.345213
0.342386
0.339732
0.337244
0.334916
0.332744
0.33072
0.328842
0.327103
0.325502
0.324044
0.370634
0.366311
0.362243
0.358415
0.354813
0.351423
0.348234
0.345234
0.342415
0.339767
0.337283
0.334955
0.332777
0.330741
0.328843
0.327074
0.325432
0.323924
0.370632
0.366306
0.362238
0.358413
0.354815
0.351431
0.348248
0.345256
0.342444
0.339802
0.337321
0.334995
0.332814
0.330772
0.328861
0.327075
0.325408
0.323869
0.37063
0.366303
0.362237
0.358415
0.354821
0.351442
0.348266
0.34528
0.342473
0.339836
0.33736
0.335034
0.332852
0.330805
0.328886
0.327088
0.325404
0.323846
0.370629
0.366302
0.362238
0.35842
0.35483
0.351456
0.348283
0.3453
0.342496
0.33986
0.337383
0.335055
0.332868
0.330814
0.328884
0.327072
0.325372
0.323794
0.370628
0.366303
0.362241
0.358423
0.354834
0.351456
0.348277
0.345285
0.342466
0.339812
0.337312
0.334957
0.33274
0.330653
0.328687
0.326836
0.325095
0.323476
0.370628
0.3663
0.362231
0.358397
0.35478
0.351366
0.348142
0.345097
0.342219
0.339498
0.336928
0.334499
0.332206
0.33004
0.327996
0.326066
0.324247
0.32255
0.37062
0.366268
0.362149
0.358233
0.354501
0.350945
0.347561
0.344346
0.341295
0.338405
0.335671
0.333089
0.330653
0.328356
0.326193
0.324154
0.322237
0.32045
0.370574
0.366098
0.361788
0.357631
0.353621
0.349768
0.346091
0.342602
0.339311
0.336221
0.333329
0.330628
0.32811
0.325764
0.323578
0.321541
0.319643
0.317886
0.370376
0.365533
0.360712
0.355945
0.351339
0.347003
0.342996
0.339342
0.336044
0.333091
0.330464
0.328135
0.326075
0.324251
0.322634
0.321199
0.319922
0.318791
0.369702
0.364249
0.358419
0.352626
0.347439
0.343128
0.339754
0.337297
0.335703
0.334894
0.334775
0.335244
0.336197
0.337535
0.339167
0.34101
0.342994
0.345058
0.36582
0.354717
0.345378
0.339824
0.338429
0.34095
0.346972
0.355981
0.367415
0.380713
0.395349
0.410845
0.426786
0.442815
0.458648
0.474062
0.488917
0.503012
0.336637
0.302362
0.274008
0.250586
0.231409
0.21592
0.203659
0.194226
0.187254
0.182407
0.179374
0.177869
0.177631
0.178423
0.180038
0.182291
0.185026
0.1881
0.189843
0.290251
0.418938
0.516062
0.54559
0.55386
0.554427
0.55151
0.54701
0.541713
0.535944
0.529172
0.519225
0.503388
0.4785
0.440611
0.385152
0.308847
0.216141
0.147789
0.142273
0.140965
0.190512
0.235786
0.258526
0.272176
0.26986
0.249905
0.233599
0.221436
0.239472
0.371952
0.552371
0.701467
0.827775
0.93152
1.01424
1.0781
1.12547
1.15867
1.17985
1.19097
1.19376
1.18976
1.18028
1.16645
1.14922
1.12939
1.1076
1.08515
1.06272
1.04035
1.01809
0.995997
0.97412
0.952494
0.931144
0.910077
0.889285
0.868741
0.848395
0.828166
0.807942
0.787568
0.766848
0.745542
0.723378
0.70007
0.67535
0.649009
0.620943
0.591184
0.559926
0.527511
0.4944
0.461137
0.428348
0.396844
0.36786
0.344048
0.332124
0.326586
0.32254
0.319449
0.317225
0.315858
0.315349
0.315699
0.316903
0.318941
0.32177
0.325312
0.329424
0.333851
0.338146
0.341582
0.343137
0.341743
0.337036
0.328833
0.317136
0.302764
0.287074
0.271542
0.257386
0.245334
0.235662
0.228473
0.224064
0.223142
0.226073
0.232371
0.241426
0.252263
0.263744
0.275657
0.288758
0.305333
0.341313
0.436323
0.587434
0.712997
0.812589
0.887875
0.942336
0.979614
1.00307
1.01573
1.02042
1.01991
1.01473
1.00493
0.991002
0.973148
0.951351
0.925403
0.894955
0.859621
0.819153
0.77391
0.726503
0.689246
0.689235
0.696486
0.702852
0.708417
0.713638
0.718759
0.723806
0.728555
0.731807
0.729823
0.716512
0.685104
0.6305
0.553907
0.465142
0.380856
0.316513
0.276783
0.254244
0.238322
0.224056
0.210828
0.197799
0.194572
0.184261
0.173742
0.168852
0.168809
0.17297
0.18063
0.191294
0.19327
0.194803
0.195994
0.239247
0.275553
0.302963
0.323308
0.258497
0.619468
0.805964
0.80641
0.776629
0.744898
0.709916
0.671848
0.633728
0.598217
0.566807
0.538505
0.512833
0.490845
0.472594
0.456519
0.438904
0.414259
0.378126
0.336179
0.304119
0.294566
0.363656
0.46249
0.508056
0.584846
0.753087
0.910404
0.928597
0.899787
0.869155
0.854813
0.847397
0.836219
0.822284
0.806941
0.791573
0.777256
0.764712
0.75436
0.746398
0.740868
0.737714
0.736827
0.738084
0.741366
0.74658
0.753643
0.76238
0.771706
0.781038
0.790439
0.800027
0.809957
0.820402
0.831545
0.843555
0.856582
0.870737
0.88608
0.902598
0.920191
0.938637
0.957566
0.976429
0.994477
1.01076
1.02416
1.03347
1.03753
1.03539
1.02643
1.0105
0.987956
0.959566
0.926416
0.889733
0.850727
0.810388
0.769483
0.732753
0.699956
0.669408
0.640987
0.614654
0.590346
0.567981
0.547472
0.528723
0.511637
0.496116
0.482059
0.469366
0.457938
0.447702
0.438612
0.430562
0.423035
0.414694
0.405435
0.396446
0.389388
0.385967
0.386427
0.389858
0.39382
0.394605
0.388494
0.373727
0.352036
0.329029
0.31247
0.307904
0.317937
0.349432
0.422633
0.542731
0.661644
0.72659
0.765818
0.815459
0.868719
0.925462
0.984284
1.04317
1.10047
1.15534
1.20761
1.25766
1.30622
1.35364
1.4005
1.44652
1.49092
1.53239
1.56897
1.59806
1.61657
1.62116
1.6088
1.57714
1.52713
1.46974
1.40424
1.33309
1.25923
1.18498
1.11196
1.04102
0.972469
0.907048
0.845248
0.784534
0.729544
0.690038
0.673838
0.687855
0.733616
0.802007
0.87125
0.91213
0.900445
0.829557
0.714965
0.587751
0.470398
0.383419
0.322924
0.286804
0.270588
0.270608
0.28745
0.323109
0.368808
0.420677
0.480802
0.535822
0.581512
0.620159
0.658867
0.44232
0.871453
0.823352
0.742679
0.693612
0.660602
0.629593
0.597411
0.565736
0.53642
0.510283
0.487873
0.468532
0.451067
0.435493
0.42264
0.413326
0.407722
0.406508
0.415418
0.452685
0.561263
0.744867
0.994731
1.2085
1.17132
1.07349
0.988566
0.90776
0.840854
0.792238
0.760239
0.739277
0.725598
0.718052
0.715835
0.718119
0.72392
0.732151
0.741769
0.75193
0.762072
0.771912
0.781352
0.790371
0.798937
0.80697
0.814345
0.82063
0.825806
0.829918
0.833123
0.835697
0.838016
0.840526
0.843717
0.848087
0.854112
0.862219
0.872757
0.885976
0.901998
0.92079
0.942115
0.965492
0.990145
1.01498
1.03859
1.05934
1.07552
1.08556
1.08824
1.08289
1.06951
1.04869
1.02148
0.989189
0.953102
0.914305
0.874087
0.837544
0.803275
0.770827
0.740249
0.711565
0.684753
0.659769
0.636552
0.615037
0.595164
0.576884
0.560156
0.544954
0.531264
0.519082
0.5084
0.499163
0.491171
0.483983
0.477003
0.469443
0.460182
0.448069
0.433404
0.417576
0.402375
0.388791
0.376595
0.364674
0.35273
0.343618
0.344304
0.365585
0.421266
0.528108
0.67806
0.806349
0.84585
0.85648
0.898966
0.972346
1.05961
1.14554
1.22052
1.28242
1.33401
1.37935
1.42164
1.46251
1.50221
1.54218
1.58298
1.62434
1.66561
1.70558
1.74225
1.77278
1.79351
1.80028
1.78906
1.75632
1.70611
1.64432
1.57258
1.49472
1.41422
1.33371
1.25506
1.17939
1.10741
1.0397
0.975635
0.911975
0.845787
0.779533
0.720342
0.675849
0.651828
0.648716
0.66074
0.678157
0.690543
0.68898
0.667719
0.625306
0.564737
0.494281
0.425829
0.370768
0.339771
0.339344
0.371262
0.433925
0.513671
0.602525
0.694867
0.768881
0.816539
0.847401
0.874321
0.592814
0.718
0.676327
0.678118
0.686592
0.676671
0.64739
0.607726
0.566171
0.52772
0.49441
0.466306
0.442735
0.423304
0.407828
0.3976
0.39654
0.411394
0.455082
0.561216
0.778314
1.09661
1.44123
1.42188
1.23257
1.05888
0.928282
0.835669
0.771146
0.729993
0.707736
0.699587
0.701114
0.709226
0.721829
0.737191
0.753789
0.770354
0.786017
0.800403
0.813556
0.825731
0.837157
0.847886
0.857752
0.866405
0.87341
0.878178
0.880036
0.87887
0.874627
0.867417
0.857552
0.845557
0.832154
0.818229
0.804779
0.792848
0.783455
0.777525
0.775834
0.778956
0.787237
0.800755
0.819276
0.8422
0.868506
0.896728
0.92499
0.951147
0.973016
0.988677
0.996766
0.996657
0.988501
0.973077
0.951566
0.92522
0.894982
0.86391
0.834354
0.805681
0.778046
0.751606
0.726435
0.702555
0.679956
0.658617
0.638515
0.619637
0.601982
0.585573
0.570449
0.556664
0.544272
0.533289
0.52366
0.515229
0.50772
0.500699
0.493566
0.485571
0.475885
0.46372
0.448459
0.430484
0.41167
0.394279
0.38043
0.372524
0.375552
0.399621
0.459521
0.569761
0.722442
0.859299
0.90565
0.900788
0.934233
1.01549
1.1194
1.2197
1.3015
1.36227
1.40687
1.44149
1.47062
1.49659
1.52028
1.54197
1.56418
1.58755
1.61218
1.63791
1.66414
1.68947
1.71155
1.72689
1.73112
1.71966
1.6893
1.64522
1.58903
1.52395
1.4538
1.38194
1.31088
1.2423
1.17723
1.1163
1.05971
1.00709
0.956958
0.90591
0.849567
0.789101
0.729506
0.676151
0.632714
0.600439
0.578332
0.563935
0.553983
0.544746
0.532068
0.511876
0.482409
0.447239
0.415708
0.399372
0.408554
0.450922
0.527141
0.627384
0.74129
0.852781
0.937998
0.988664
1.01533
1.03251
0.70596
0.635523
0.692669
0.757719
0.7745
0.746201
0.690352
0.625631
0.564645
0.512809
0.471059
0.439062
0.416607
0.400787
0.389575
0.385196
0.398858
0.456625
0.602122
0.864012
1.20184
1.45735
1.42122
1.20966
1.00957
0.869197
0.779461
0.726412
0.699481
0.691468
0.696694
0.710608
0.729795
0.751818
0.774812
0.797287
0.81823
0.837233
0.854436
0.870291
0.885287
0.899746
0.913747
0.927126
0.939533
0.950491
0.959453
0.964643
0.965634
0.961888
0.952991
0.938737
0.919185
0.894702
0.865996
0.834127
0.80048
0.766705
0.734602
0.705975
0.682472
0.665436
0.655824
0.654162
0.660539
0.674599
0.695503
0.721887
0.751846
0.783007
0.812721
0.838386
0.857837
0.86967
0.873429
0.869511
0.858945
0.842947
0.822861
0.802163
0.781131
0.760152
0.739542
0.719481
0.700058
0.681305
0.663227
0.645821
0.629086
0.613033
0.597693
0.583118
0.569381
0.556574
0.54479
0.534102
0.524537
0.516048
0.508478
0.501518
0.494702
0.487457
0.47917
0.469245
0.457173
0.442747
0.426659
0.41124
0.400114
0.398384
0.414362
0.461824
0.557313
0.702994
0.855157
0.932179
0.92581
0.935238
1.00705
1.11719
1.23038
1.32276
1.38744
1.42907
1.45539
1.47241
1.48366
1.49092
1.49514
1.49709
1.49951
1.50311
1.5083
1.51543
1.52455
1.53503
1.54526
1.55227
1.55178
1.53905
1.51332
1.47562
1.42769
1.37271
1.3142
1.25518
1.1979
1.14377
1.09359
1.04773
1.0062
0.968601
0.933864
0.899724
0.862377
0.818212
0.768024
0.715195
0.663877
0.617067
0.576101
0.541215
0.512205
0.488666
0.4697
0.453615
0.438669
0.425542
0.419552
0.428493
0.458414
0.51436
0.599915
0.712175
0.841462
0.966876
1.06256
1.11841
1.14669
1.15658
0.841093
0.685455
0.804946
0.87132
0.865832
0.805669
0.717812
0.629829
0.556745
0.501412
0.46223
0.437074
0.419557
0.407261
0.403498
0.421299
0.484512
0.622304
0.849077
1.12967
1.33192
1.31469
1.14331
0.958883
0.825844
0.745858
0.704958
0.690914
0.69497
0.711007
0.734621
0.762589
0.792451
0.822279
0.850684
0.876926
0.900912
0.92301
0.943789
0.963789
0.983377
1.00269
1.02164
1.0399
1.05697
1.07219
1.08437
1.09213
1.09502
1.09218
1.08279
1.06617
1.04186
1.00971
0.969995
0.923485
0.871589
0.816357
0.760399
0.706646
0.658009
0.617002
0.585463
0.564443
0.554258
0.554617
0.564731
0.583345
0.608716
0.638578
0.670194
0.70056
0.726817
0.746696
0.758957
0.763492
0.761083
0.752932
0.741564
0.728533
0.714614
0.700359
0.686085
0.671962
0.658062
0.644405
0.630984
0.617788
0.604811
0.592061
0.579567
0.567383
0.555586
0.544273
0.533556
0.523541
0.514313
0.50591
0.498297
0.491332
0.484756
0.478196
0.471199
0.463284
0.454038
0.443299
0.431529
0.420641
0.414709
0.420673
0.449824
0.518523
0.640066
0.797283
0.919885
0.946369
0.930747
0.971248
1.07333
1.19584
1.30315
1.37899
1.42446
1.44785
1.45693
1.45679
1.45048
1.43998
1.4267
1.4119
1.3978
1.38495
1.37384
1.36511
1.35931
1.3565
1.35583
1.35493
1.34974
1.33675
1.31419
1.28181
1.24124
1.19536
1.14735
1.09991
1.05497
1.01372
0.976725
0.944172
0.915954
0.89167
0.870452
0.850641
0.829596
0.803424
0.770524
0.731409
0.688227
0.643665
0.599844
0.557994
0.518883
0.48336
0.452516
0.427481
0.409461
0.400863
0.406775
0.433254
0.482403
0.553461
0.648325
0.768564
0.907629
1.04373
1.14961
1.21283
1.24414
1.25049
0.891182
0.750619
0.902146
0.95832
0.930493
0.841952
0.732135
0.634463
0.563569
0.514678
0.482756
0.46053
0.447369
0.446843
0.46891
0.529435
0.645566
0.822672
1.02825
1.17126
1.16998
1.05251
0.907511
0.794271
0.726742
0.696667
0.692616
0.705786
0.73014
0.761483
0.796611
0.832904
0.86833
0.901578
0.932097
0.959972
0.985691
1.00992
1.03334
1.05646
1.07962
1.1029
1.12611
1.1488
1.17031
1.18978
1.2056
1.21785
1.22561
1.2279
1.22373
1.21215
1.19225
1.16309
1.12386
1.07401
1.0136
0.943774
0.867138
0.787802
0.710898
0.641576
0.583888
0.540111
0.510764
0.49511
0.491757
0.499072
0.515344
0.538665
0.566704
0.596544
0.624979
0.648978
0.666294
0.676252
0.679224
0.676826
0.671139
0.663446
0.654638
0.645276
0.635687
0.626035
0.616383
0.606737
0.597077
0.587375
0.577613
0.567782
0.557895
0.547988
0.538119
0.528373
0.518856
0.509686
0.500984
0.492856
0.485363
0.478501
0.472171
0.466174
0.460225
0.453991
0.447182
0.439707
0.432025
0.425896
0.425631
0.439517
0.480955
0.566627
0.702269
0.852544
0.941128
0.941395
0.936703
1.00517
1.12589
1.24875
1.3433
1.40162
1.42999
1.43753
1.43134
1.41607
1.39492
1.3702
1.34384
1.3174
1.29205
1.26807
1.24571
1.22569
1.2089
1.19586
1.18658
1.17906
1.17033
1.15681
1.13615
1.10776
1.07296
1.03425
0.994441
0.955911
0.920319
0.888603
0.861161
0.83805
0.819117
0.804031
0.792173
0.782407
0.772882
0.760726
0.74343
0.720129
0.69111
0.657434
0.620346
0.580943
0.540272
0.499687
0.461114
0.427107
0.400936
0.387197
0.392539
0.423972
0.483434
0.566571
0.670677
0.797331
0.942662
1.0863
1.20103
1.2725
1.3077
1.31302
0.891226
0.815065
0.971085
1.01306
0.965203
0.862323
0.751034
0.661909
0.599104
0.556784
0.529329
0.513342
0.513464
0.536206
0.59041
0.683346
0.811089
0.94464
1.03102
1.03142
0.95747
0.855855
0.768919
0.7152
0.693791
0.696526
0.715664
0.745611
0.782233
0.822094
0.862265
0.900544
0.935636
0.967115
0.995238
1.02069
1.04438
1.06723
1.09004
1.11337
1.13752
1.16243
1.18779
1.21296
1.23713
1.2593
1.27868
1.29477
1.30659
1.31326
1.31406
1.30845
1.29594
1.27591
1.24735
1.20877
1.15821
1.09391
1.01529
0.924226
0.82594
0.728497
0.640738
0.569415
0.517407
0.48395
0.466237
0.461092
0.466079
0.479553
0.500019
0.525186
0.551926
0.576838
0.596444
0.609696
0.616209
0.617984
0.616397
0.612618
0.607511
0.601652
0.595384
0.588886
0.58223
0.575427
0.568457
0.561293
0.55391
0.546292
0.53844
0.530372
0.522126
0.513764
0.505373
0.497069
0.488983
0.481258
0.474026
0.467379
0.461347
0.455878
0.450843
0.446062
0.441372
0.436753
0.432669
0.430913
0.436071
0.457342
0.509005
0.605748
0.74457
0.879164
0.941573
0.934243
0.946018
1.03102
1.15734
1.27622
1.35867
1.40241
1.4171
1.4118
1.39325
1.36614
1.33397
1.29942
1.26462
1.2312
1.19925
1.16869
1.13944
1.11204
1.08782
1.06726
1.05134
1.03881
1.02684
1.01229
0.992757
0.96741
0.937177
0.904151
0.870737
0.838983
0.810272
0.785323
0.764361
0.747326
0.73403
0.724221
0.717528
0.713301
0.710465
0.707188
0.701029
0.690498
0.674862
0.653949
0.627809
0.596563
0.5606
0.520989
0.479825
0.440299
0.406721
0.384953
0.382993
0.409618
0.469195
0.557699
0.66858
0.800134
0.948955
1.09703
1.21853
1.29781
1.33766
1.3432
0.865671
0.873312
1.01969
1.04383
0.983134
0.879133
0.775934
0.698679
0.648952
0.620488
0.60349
0.601925
0.620363
0.662568
0.728277
0.808357
0.882077
0.923802
0.91861
0.87236
0.806738
0.746181
0.706621
0.69201
0.698559
0.720603
0.753276
0.792489
0.834511
0.876076
0.914773
0.949261
0.979211
1.00507
1.02779
1.04856
1.06858
1.0889
1.11028
1.13317
1.15769
1.18365
1.21055
1.23767
1.26404
1.2886
1.31092
1.32983
1.3441
1.35272
1.355
1.35073
1.34015
1.32377
1.30188
1.27402
1.23837
1.19166
1.12987
1.05002
0.952593
0.843468
0.733672
0.63582
0.559046
0.505977
0.473538
0.456117
0.449419
0.451546
0.462036
0.47972
0.501775
0.525066
0.544533
0.558996
0.568379
0.573392
0.575074
0.574439
0.572291
0.569187
0.56547
0.561329
0.556853
0.552071
0.546984
0.541582
0.535852
0.529788
0.523393
0.516679
0.509674
0.502424
0.494998
0.487495
0.480045
0.472805
0.465948
0.459636
0.453995
0.449095
0.444947
0.441517
0.438761
0.436727
0.435888
0.438104
0.448217
0.475808
0.534801
0.636571
0.770895
0.88808
0.933866
0.928647
0.954414
1.0469
1.17096
1.28126
1.35405
1.38883
1.3944
1.37988
1.35249
1.31713
1.27762
1.23696
1.19732
1.16008
1.12456
1.09031
1.057
1.02451
0.99509
0.969541
0.948536
0.931514
0.916491
0.900767
0.882003
0.859163
0.83277
0.804476
0.776294
0.749956
0.726591
0.706713
0.690378
0.677392
0.66749
0.660441
0.656042
0.654025
0.653935
0.654978
0.655312
0.653307
0.647709
0.63762
0.622278
0.60094
0.573063
0.538805
0.499586
0.458435
0.42003
0.390832
0.37949
0.396066
0.447857
0.53387
0.646552
0.780218
0.929743
1.07919
1.20488
1.29051
1.33514
1.34198
0.830775
0.924093
1.06161
1.06825
0.996684
0.894715
0.802838
0.740881
0.70878
0.693473
0.691112
0.702395
0.727439
0.763134
0.80168
0.831973
0.843947
0.833343
0.803446
0.763425
0.725084
0.698803
0.689908
0.69826
0.720794
0.753761
0.79331
0.835548
0.876935
0.914822
0.947737
0.975345
0.998202
1.01744
1.03445
1.05064
1.06722
1.08509
1.10484
1.12675
1.1508
1.17673
1.20403
1.23192
1.25941
1.28599
1.31069
1.33213
1.34882
1.35935
1.36262
1.35813
1.34621
1.32808
1.30553
1.2801
1.25197
1.21891
1.17602
1.11699
1.03701
0.936373
0.823204
0.711811
0.616551
0.545933
0.499974
0.471455
0.45389
0.444747
0.444533
0.45352
0.469138
0.487798
0.505866
0.520946
0.532103
0.539484
0.543776
0.545776
0.54616
0.545414
0.543846
0.541637
0.538883
0.535637
0.531926
0.527768
0.523181
0.51818
0.512787
0.507024
0.500922
0.494522
0.487881
0.481083
0.474247
0.467531
0.461125
0.455238
0.450069
0.445792
0.442542
0.440422
0.439515
0.439945
0.442206
0.448174
0.462754
0.495335
0.55859
0.660369
0.785824
0.887176
0.923633
0.923875
0.958502
1.05132
1.16873
1.27036
1.336
1.36524
1.36593
1.34673
1.31456
1.2746
1.23095
1.18678
1.14417
1.1044
1.0665
1.0297
0.993669
0.958523
0.925397
0.895674
0.870433
0.849718
0.832172
0.815517
0.797531
0.776965
0.75395
0.729716
0.70593
0.684061
0.665043
0.649221
0.636497
0.626537
0.618962
0.613487
0.609965
0.608353
0.608625
0.610782
0.613823
0.616405
0.617162
0.614805
0.60808
0.595692
0.57642
0.549526
0.515382
0.4761
0.435926
0.401365
0.381243
0.386185
0.425671
0.502493
0.610809
0.742372
0.889357
1.037
1.16399
1.25387
1.30268
1.31163
0.789679
0.971177
1.10479
1.09839
1.01912
0.920262
0.838918
0.788955
0.766105
0.757201
0.758182
0.765552
0.775868
0.784977
0.788683
0.784245
0.771281
0.751571
0.728493
0.70677
0.691844
0.688152
0.697541
0.719286
0.751048
0.789534
0.830935
0.87156
0.908509
0.940073
0.965755
0.986065
1.00218
1.01562
1.0279
1.04038
1.05407
1.06967
1.08753
1.10773
1.1301
1.15431
1.17987
1.20618
1.23249
1.25874
1.28383
1.30646
1.32506
1.3379
1.3433
1.34002
1.3277
1.30728
1.28115
1.25253
1.22412
1.19615
1.16506
1.12365
1.06374
0.980462
0.87742
0.767968
0.667269
0.587194
0.532318
0.495285
0.468589
0.449623
0.439524
0.43945
0.448164
0.462327
0.478152
0.492774
0.504724
0.513685
0.519989
0.524175
0.526741
0.528057
0.528364
0.52781
0.52649
0.524471
0.521809
0.518558
0.514767
0.510486
0.505764
0.500646
0.495176
0.489403
0.48338
0.477183
0.470916
0.464728
0.458811
0.453399
0.448746
0.445109
0.442738
0.441874
0.442742
0.445581
0.450922
0.460567
0.479193
0.515476
0.580356
0.678632
0.793336
0.881438
0.913076
0.918641
0.956989
1.04515
1.15371
1.24744
1.30827
1.33491
1.33392
1.31319
1.27945
1.23798
1.19296
1.14752
1.10358
1.06209
1.02226
0.983326
0.944931
0.907268
0.87124
0.838353
0.809997
0.786642
0.767422
0.750423
0.733496
0.715165
0.695183
0.674421
0.654283
0.636069
0.620586
0.608066
0.598287
0.590783
0.58505
0.580704
0.577568
0.575683
0.575269
0.576789
0.580035
0.584204
0.588158
0.590529
0.589797
0.58433
0.572494
0.552947
0.525164
0.490115
0.450977
0.413614
0.386611
0.380633
0.406317
0.469624
0.567838
0.692341
0.833048
0.975573
1.10075
1.19239
1.2442
1.25556
0.74487
1.01253
1.14938
1.13809
1.05603
0.959461
0.882412
0.833864
0.804552
0.788616
0.779105
0.771505
0.763247
0.753217
0.741424
0.728594
0.715624
0.703381
0.693151
0.687176
0.688338
0.698971
0.719869
0.750063
0.787086
0.82748
0.867562
0.904207
0.935371
0.960243
0.979113
0.993074
1.00366
1.01253
1.02118
1.0308
1.04223
1.05589
1.07182
1.08972
1.1091
1.12947
1.15048
1.17186
1.194
1.21665
1.23914
1.2604
1.27901
1.29318
1.30087
1.30017
1.28974
1.26953
1.24136
1.209
1.17693
1.14796
1.12091
1.08955
1.04458
0.97782
0.8883
0.790072
0.696132
0.618468
0.560624
0.517909
0.48406
0.457092
0.439058
0.431926
0.434978
0.445114
0.458538
0.472192
0.484315
0.494271
0.502087
0.50805
0.512458
0.515542
0.517455
0.518302
0.518165
0.517123
0.515259
0.512659
0.50941
0.505597
0.5013
0.496594
0.491544
0.486212
0.48066
0.474957
0.469199
0.463517
0.458096
0.453177
0.449046
0.446027
0.44447
0.444756
0.447279
0.452436
0.460833
0.47411
0.49644
0.535405
0.600039
0.692798
0.796503
0.873887
0.903012
0.912238
0.950096
1.03035
1.12894
1.21554
1.27331
1.29966
1.29951
1.27981
1.24693
1.20611
1.16145
1.11599
1.07153
1.02884
0.987289
0.946327
0.905753
0.865861
0.827599
0.792528
0.762207
0.737393
0.71756
0.701028
0.685613
0.669566
0.652293
0.634405
0.617164
0.601806
0.589092
0.579188
0.571777
0.566276
0.562063
0.558654
0.555804
0.553545
0.552185
0.552398
0.55454
0.558385
0.563226
0.567876
0.570765
0.57008
0.563937
0.550632
0.529039
0.499191
0.463038
0.425286
0.393756
0.378752
0.391257
0.439265
0.523273
0.636066
0.766617
0.900662
1.02078
1.11141
1.16457
1.17808
0.698105
1.03917
1.18594
1.17906
1.09932
1.00258
0.921096
0.861661
0.820423
0.791343
0.768571
0.748849
0.731156
0.715786
0.703402
0.694353
0.688482
0.685584
0.68615
0.691688
0.704178
0.725036
0.754303
0.790398
0.830423
0.870867
0.908438
0.940697
0.966369
0.98534
0.998444
1.00713
1.01313
1.01811
1.02352
1.03042
1.03945
1.05074
1.06396
1.07844
1.09339
1.10818
1.12263
1.137
1.15254
1.16925
1.18672
1.20413
1.22032
1.2337
1.24219
1.24357
1.23583
1.21789
1.19055
1.15708
1.12245
1.0909
1.0634
1.03539
0.99805
0.943607
0.870456
0.785771
0.702155
0.6308
0.575081
0.530733
0.492665
0.460539
0.437582
0.426191
0.425709
0.433091
0.444639
0.457351
0.46941
0.48002
0.48899
0.49638
0.502299
0.506836
0.510058
0.512024
0.512805
0.512492
0.511189
0.509016
0.506095
0.502545
0.49848
0.494001
0.4892
0.484157
0.478944
0.473635
0.468315
0.463103
0.458165
0.453735
0.450113
0.447666
0.44683
0.448118
0.452106
0.459401
0.470726
0.487524
0.51328
0.554258
0.617589
0.704068
0.797498
0.866294
0.893826
0.904687
0.938959
1.00927
1.09718
1.17699
1.23271
1.26027
1.26283
1.24614
1.21603
1.17752
1.13454
1.08996
1.04545
1.00172
0.958516
0.91558
0.872978
0.831198
0.791315
0.754964
0.723803
0.698754
0.679472
0.664319
0.65092
0.637189
0.622247
0.60658
0.591455
0.578153
0.567456
0.559495
0.553869
0.549893
0.546851
0.544185
0.541592
0.53906
0.536881
0.535748
0.536329
0.538875
0.543158
0.54833
0.552963
0.555211
0.553048
0.544546
0.528214
0.503449
0.471189
0.434841
0.401041
0.379327
0.380472
0.413447
0.48125
0.57891
0.695867
0.818271
0.930158
1.01685
1.06935
1.08422
0.654742
1.03818
1.19801
1.20433
1.13331
1.03776
0.949811
0.879248
0.826292
0.785934
0.754076
0.728584
0.708847
0.69487
0.686509
0.68317
0.684051
0.688765
0.697829
0.712572
0.734402
0.763902
0.800243
0.841166
0.883478
0.923802
0.959291
0.988075
1.00943
1.02371
1.03209
1.03622
1.03791
1.03884
1.04041
1.04362
1.04899
1.05659
1.06598
1.07639
1.08674
1.09577
1.1029
1.10945
1.11748
1.12726
1.13818
1.1496
1.16087
1.17081
1.17746
1.17862
1.17209
1.15626
1.13115
1.09925
1.06513
1.03322
1.00501
0.977334
0.943185
0.8955
0.832215
0.759098
0.687099
0.625219
0.574785
0.531211
0.491287
0.456948
0.432365
0.419747
0.418071
0.424232
0.434746
0.446867
0.458911
0.470046
0.479936
0.48846
0.495563
0.501215
0.50541
0.508177
0.509582
0.509729
0.508749
0.506788
0.504001
0.500538
0.496543
0.492143
0.487452
0.482571
0.477586
0.472577
0.467627
0.462839
0.458362
0.454408
0.451275
0.449352
0.449136
0.451254
0.456464
0.465608
0.479589
0.499674
0.528607
0.571252
0.632937
0.713308
0.79774
0.8597
0.885891
0.896605
0.92521
0.984321
1.06093
1.13373
1.18761
1.21706
1.22341
1.21106
1.18507
1.15004
1.10968
1.06665
1.02252
0.978071
0.933465
0.888817
0.844498
0.801265
0.760396
0.723648
0.692762
0.668723
0.651182
0.638317
0.62737
0.615874
0.602767
0.588587
0.574768
0.562734
0.553325
0.546637
0.542178
0.53917
0.536839
0.534608
0.532164
0.529466
0.526737
0.52455
0.523654
0.524624
0.527641
0.532255
0.537307
0.541051
0.541424
0.536361
0.524142
0.503767
0.475469
0.441539
0.407275
0.3811
0.373176
0.392697
0.444232
0.525048
0.626003
0.734205
0.835075
0.915015
0.964648
0.979667
0.634051
0.996564
1.17019
1.19799
1.14492
1.05786
0.969042
0.893316
0.832927
0.785652
0.74901
0.721468
0.702237
0.690692
0.685993
0.687123
0.693274
0.704307
0.72089
0.744113
0.774734
0.812477
0.855722
0.901699
0.947034
0.988496
1.02358
1.05077
1.06965
1.0808
1.08554
1.08563
1.08291
1.07914
1.07577
1.07378
1.07374
1.0758
1.07972
1.08492
1.09038
1.09464
1.09642
1.09664
1.09728
1.09924
1.10225
1.10606
1.11036
1.11435
1.11659
1.11508
1.10766
1.09252
1.06925
1.0396
1.00732
0.976248
0.947826
0.919552
0.88565
0.840456
0.783061
0.719419
0.658845
0.606922
0.562016
0.519787
0.479827
0.446198
0.423162
0.412054
0.41122
0.41753
0.427855
0.439853
0.452074
0.463722
0.474369
0.483753
0.491699
0.498094
0.50289
0.506104
0.507812
0.508137
0.507235
0.505278
0.502447
0.498918
0.494857
0.490415
0.485727
0.480909
0.476061
0.471272
0.466625
0.462215
0.458169
0.454676
0.452014
0.450574
0.450886
0.453662
0.459816
0.470428
0.486626
0.509617
0.541459
0.585656
0.64587
0.720921
0.797925
0.854579
0.879542
0.888873
0.910597
0.95779
1.02247
1.08755
1.13902
1.17023
1.1807
1.17336
1.1523
1.12155
1.0845
1.04362
1.00038
0.955716
0.910195
0.864308
0.818771
0.774665
0.733547
0.697357
0.667913
0.646158
0.631529
0.621753
0.613516
0.603966
0.592033
0.578521
0.565185
0.553665
0.544855
0.538779
0.534825
0.532127
0.529903
0.527635
0.525085
0.522236
0.519235
0.516431
0.514475
0.514082
0.515716
0.519286
0.523962
0.528207
0.530014
0.52726
0.518077
0.50122
0.476473
0.445306
0.411791
0.38306
0.368354
0.376613
0.413201
0.477153
0.561092
0.65353
0.741355
0.812205
0.856886
0.870677
0.614666
0.925154
1.09513
1.14854
1.12349
1.05853
0.980321
0.906217
0.843327
0.792766
0.753718
0.725198
0.70633
0.696183
0.693716
0.697973
0.70843
0.725232
0.749068
0.780654
0.820091
0.866428
0.917543
0.97054
1.02129
1.06581
1.10256
1.13032
1.14884
1.15872
1.16131
1.15831
1.1516
1.14291
1.13368
1.12499
1.11761
1.11193
1.10801
1.10557
1.1039
1.10202
1.09889
1.09436
1.08901
1.08366
1.0789
1.07511
1.07224
1.06969
1.06623
1.06015
1.04948
1.03262
1.00916
0.980621
0.950043
0.920297
0.892049
0.862688
0.827328
0.782254
0.72883
0.673755
0.62389
0.580351
0.539256
0.498307
0.460298
0.430282
0.411477
0.403902
0.405315
0.412742
0.423547
0.43585
0.448454
0.460615
0.47184
0.481778
0.490184
0.49691
0.501902
0.505188
0.506867
0.507086
0.506024
0.503876
0.500842
0.497116
0.492881
0.488305
0.483537
0.478706
0.473926
0.469294
0.464896
0.460822
0.45718
0.454134
0.451933
0.450949
0.451719
0.454999
0.461818
0.473469
0.491347
0.516756
0.551222
0.597035
0.656321
0.727215
0.798467
0.851237
0.875236
0.882512
0.896655
0.931324
0.983138
1.03924
1.08707
1.11922
1.13354
1.13138
1.1157
1.08981
1.05667
1.01854
0.976874
0.932733
0.887018
0.840587
0.794536
0.750338
0.7099
0.675393
0.648682
0.630534
0.619917
0.613835
0.608274
0.600104
0.588492
0.574752