/*--------------------------------*- C++ -*----------------------------------*\
  =========                 |
  \\      /  F ield         | OpenFOAM: The Open Source CFD Toolbox
   \\    /   O peration     | Website:  https://openfoam.org
    \\  /    A nd           | Version:  9
     \\/     M anipulation  |
\*---------------------------------------------------------------------------*/
FoamFile
{
    format      ascii;
    class       volScalarField;
    location    "0.09";
    object      kU;
}
// * * * * * * * * * * * * * * * * * * * * * * * * * * * * * * * * * * * * * //

dimensions      [0 2 -2 0 0 0 0];

internalField   nonuniform List<scalar> 
12225
(
0.157232
0.132059
0.113088
0.0993593
0.0901991
0.0850737
0.0835144
0.0850655
0.0892727
0.0956966
0.103935
0.113652
0.124601
0.136662
0.149873
0.164478
0.181095
0.205836
0.181028
0.175195
0.173945
0.179161
0.191149
0.209529
0.233491
0.261932
0.293639
0.32748
0.362547
0.398256
0.434399
0.47117
0.509196
0.5495
0.593799
0.644377
0.184242
0.181334
0.178621
0.176697
0.17617
0.177322
0.180224
0.184834
0.19104
0.198708
0.207736
0.218111
0.22996
0.243603
0.259628
0.278987
0.303164
0.334477
0.184873
0.182077
0.17938
0.176911
0.17485
0.173307
0.17231
0.171835
0.171832
0.172253
0.173066
0.174276
0.175947
0.178226
0.181381
0.185863
0.192409
0.20212
0.185144
0.182624
0.180131
0.177722
0.175461
0.173401
0.171566
0.169958
0.168561
0.167354
0.166313
0.165426
0.164692
0.164135
0.163812
0.163835
0.164409
0.165867
0.185259
0.182927
0.180633
0.178392
0.176232
0.174175
0.172237
0.170427
0.168741
0.167175
0.165719
0.164367
0.163112
0.161953
0.160897
0.159958
0.159168
0.158583
0.185302
0.18307
0.180907
0.178809
0.176782
0.174831
0.172965
0.171189
0.169504
0.167911
0.166411
0.165001
0.163683
0.162457
0.161324
0.160285
0.159339
0.158482
0.185317
0.18313
0.181037
0.179031
0.177104
0.175255
0.173483
0.17179
0.170177
0.168646
0.167199
0.16584
0.164571
0.163399
0.162326
0.161356
0.160487
0.159711
0.185321
0.183151
0.181093
0.179135
0.177269
0.17549
0.173792
0.172173
0.170634
0.169176
0.167799
0.16651
0.165311
0.164211
0.163215
0.162328
0.161553
0.160887
0.185322
0.183158
0.181114
0.179178
0.177344
0.175604
0.173952
0.172385
0.1709
0.169499
0.168181
0.166951
0.165814
0.164775
0.163842
0.16302
0.162314
0.161725
0.185322
0.18316
0.181121
0.179195
0.177375
0.175654
0.174027
0.172489
0.171038
0.169672
0.168394
0.167204
0.166108
0.165111
0.164218
0.163435
0.162768
0.16222
0.185321
0.183161
0.181123
0.179201
0.177387
0.175674
0.174057
0.172533
0.171097
0.16975
0.168491
0.167322
0.166246
0.165268
0.164392
0.163624
0.162967
0.162426
0.185321
0.183161
0.181124
0.179204
0.177392
0.175684
0.174073
0.172555
0.171127
0.169789
0.16854
0.167381
0.166315
0.165343
0.164472
0.163702
0.16304
0.162488
0.185321
0.183161
0.181125
0.179206
0.177396
0.17569
0.174082
0.172568
0.171145
0.169811
0.168566
0.16741
0.166344
0.16537
0.164491
0.163709
0.163027
0.162448
0.18532
0.18316
0.181125
0.179208
0.1774
0.175695
0.174089
0.172578
0.171157
0.169825
0.168581
0.167423
0.166353
0.165371
0.164478
0.163675
0.162963
0.162345
0.18532
0.18316
0.181126
0.179209
0.177402
0.1757
0.174096
0.172587
0.171168
0.169838
0.168593
0.167433
0.166357
0.165364
0.164454
0.163626
0.162882
0.162223
0.185319
0.183159
0.181125
0.179209
0.177404
0.175704
0.174103
0.172596
0.17118
0.169851
0.168606
0.167443
0.166361
0.165358
0.164432
0.163582
0.162808
0.162111
0.185319
0.183158
0.181124
0.179209
0.177406
0.175708
0.17411
0.172606
0.171193
0.169866
0.168622
0.167458
0.166372
0.16536
0.164421
0.163552
0.162751
0.162022
0.185317
0.183155
0.181121
0.179207
0.177406
0.175711
0.174117
0.172617
0.171207
0.169883
0.168641
0.167477
0.166388
0.165371
0.164421
0.163537
0.162716
0.161962
0.185316
0.183153
0.181119
0.179207
0.177408
0.175715
0.174124
0.172628
0.171222
0.169901
0.168661
0.167497
0.166407
0.165386
0.164431
0.163537
0.162704
0.161935
0.185315
0.183152
0.181118
0.179207
0.177411
0.175721
0.174133
0.17264
0.171237
0.169918
0.16868
0.167517
0.166426
0.165403
0.164443
0.163544
0.162702
0.161923
0.185314
0.183151
0.181119
0.17921
0.177415
0.175728
0.174141
0.17265
0.171248
0.16993
0.168691
0.167528
0.166434
0.165407
0.164442
0.163536
0.162686
0.161897
0.185314
0.183151
0.18112
0.179212
0.177417
0.175728
0.174139
0.172642
0.171233
0.169906
0.168656
0.167479
0.16637
0.165326
0.164344
0.163418
0.162548
0.161738
0.185314
0.18315
0.181116
0.179199
0.17739
0.175683
0.174071
0.172549
0.171109
0.169749
0.168464
0.16725
0.166103
0.16502
0.163998
0.163033
0.162124
0.161275
0.18531
0.183134
0.181075
0.179116
0.17725
0.175472
0.173781
0.172173
0.170648
0.169203
0.167836
0.166545
0.165326
0.164178
0.163096
0.162077
0.161118
0.160225
0.185287
0.183049
0.180894
0.178816
0.17681
0.174884
0.173045
0.171301
0.169655
0.16811
0.166664
0.165314
0.164055
0.162882
0.161789
0.160771
0.159821
0.158943
0.185188
0.182766
0.180356
0.177972
0.17567
0.173501
0.171498
0.169671
0.168022
0.166546
0.165232
0.164068
0.163037
0.162126
0.161317
0.160599
0.159961
0.159395
0.184851
0.182124
0.17921
0.176313
0.17372
0.171564
0.169877
0.168649
0.167851
0.167447
0.167387
0.167622
0.168098
0.168767
0.169583
0.170505
0.171497
0.172529
0.18291
0.177358
0.172689
0.169912
0.169214
0.170475
0.173486
0.17799
0.183708
0.190357
0.197674
0.205423
0.213393
0.221408
0.229324
0.237031
0.244459
0.251506
0.168319
0.151181
0.137004
0.125293
0.115704
0.10796
0.10183
0.0971128
0.093627
0.0912037
0.0896872
0.0889346
0.0888153
0.0892116
0.0900188
0.0911453
0.0925129
0.0940502
0.0949216
0.145126
0.209469
0.258031
0.272795
0.27693
0.277214
0.275755
0.273505
0.270857
0.267972
0.264586
0.259613
0.251694
0.23925
0.220305
0.192576
0.154424
0.10807
0.0738944
0.0711367
0.0704827
0.0952559
0.117893
0.129263
0.136088
0.13493
0.124953
0.116799
0.110718
0.119736
0.185976
0.276185
0.350733
0.413887
0.46576
0.507118
0.53905
0.562736
0.579335
0.589925
0.595485
0.596882
0.59488
0.59014
0.583225
0.574611
0.564694
0.5538
0.542574
0.531358
0.520173
0.509044
0.497998
0.48706
0.476247
0.465572
0.455038
0.444642
0.434371
0.424197
0.414083
0.403971
0.393784
0.383424
0.372771
0.361689
0.350035
0.337675
0.324505
0.310472
0.295592
0.279963
0.263755
0.2472
0.230568
0.214174
0.198422
0.18393
0.172024
0.166062
0.163293
0.16127
0.159724
0.158612
0.157929
0.157674
0.15785
0.158452
0.15947
0.160885
0.162656
0.164712
0.166925
0.169073
0.170791
0.171568
0.170871
0.168518
0.164416
0.158568
0.151382
0.143537
0.135771
0.128693
0.122667
0.117831
0.114237
0.112032
0.111571
0.113037
0.116185
0.120713
0.126132
0.131872
0.137829
0.144379
0.152666
0.170656
0.218161
0.293717
0.356498
0.406294
0.443937
0.471168
0.489807
0.501535
0.507866
0.510212
0.509953
0.507364
0.502466
0.495501
0.486574
0.475675
0.462701
0.447478
0.42981
0.409577
0.386955
0.363251
0.344623
0.344618
0.348243
0.351426
0.354209
0.356819
0.35938
0.361903
0.364277
0.365904
0.364911
0.358256
0.342552
0.31525
0.276953
0.232571
0.190428
0.158256
0.138391
0.127122
0.119161
0.112028
0.105414
0.0988997
0.0972861
0.0921305
0.0868708
0.084426
0.0844044
0.0864852
0.0903149
0.095647
0.0966351
0.0974017
0.0979969
0.119624
0.137776
0.151481
0.161654
0.129249
0.309734
0.402982
0.403205
0.388314
0.372449
0.354958
0.335924
0.316864
0.299109
0.283404
0.269252
0.256417
0.245422
0.236297
0.228259
0.219452
0.207129
0.189063
0.168089
0.15206
0.147283
0.181828
0.231245
0.254028
0.292423
0.376544
0.455202
0.464298
0.449894
0.434578
0.427407
0.423699
0.418109
0.411142
0.40347
0.395786
0.388628
0.382356
0.37718
0.373199
0.370434
0.368857
0.368414
0.369042
0.370683
0.37329
0.376822
0.38119
0.385853
0.390519
0.39522
0.400014
0.404978
0.410201
0.415772
0.421778
0.428291
0.435369
0.44304
0.451299
0.460096
0.469318
0.478783
0.488215
0.497239
0.505379
0.512078
0.516734
0.518767
0.517695
0.513215
0.505252
0.493978
0.479783
0.463208
0.444866
0.425363
0.405194
0.384741
0.366377
0.349978
0.334704
0.320494
0.307327
0.295173
0.283991
0.273736
0.264362
0.255818
0.248058
0.24103
0.234683
0.228969
0.223851
0.219306
0.215281
0.211517
0.207347
0.202718
0.198223
0.194694
0.192983
0.193214
0.194929
0.19691
0.197303
0.194247
0.186863
0.176018
0.164515
0.156235
0.153952
0.158969
0.174716
0.211317
0.271366
0.330822
0.363295
0.382909
0.40773
0.43436
0.462731
0.492142
0.521583
0.550235
0.57767
0.603806
0.62883
0.653109
0.676818
0.700248
0.72326
0.745462
0.766195
0.784483
0.799032
0.808284
0.810582
0.804398
0.788571
0.763563
0.734872
0.702121
0.666545
0.629616
0.592489
0.555979
0.520511
0.486234
0.453524
0.422624
0.392267
0.364772
0.345019
0.336919
0.343928
0.366808
0.401004
0.435625
0.456065
0.450222
0.414778
0.357482
0.293875
0.235199
0.191709
0.161462
0.143402
0.135294
0.135304
0.143725
0.161555
0.184404
0.210339
0.240401
0.267911
0.290756
0.310079
0.329433
0.22116
0.435727
0.411676
0.371339
0.346806
0.330301
0.314797
0.298706
0.282868
0.26821
0.255142
0.243936
0.234266
0.225533
0.217746
0.21132
0.206663
0.203861
0.203254
0.207709
0.226342
0.280631
0.372434
0.497365
0.604248
0.585659
0.536745
0.494283
0.45388
0.420427
0.396119
0.38012
0.369638
0.362799
0.359026
0.357917
0.35906
0.36196
0.366075
0.370885
0.375965
0.381036
0.385956
0.390676
0.395185
0.399469
0.403485
0.407172
0.410315
0.412903
0.414959
0.416562
0.417849
0.419008
0.420263
0.421859
0.424044
0.427056
0.43111
0.436378
0.442988
0.450999
0.460395
0.471057
0.482746
0.495072
0.507489
0.519294
0.52967
0.537762
0.542781
0.544119
0.541447
0.534757
0.524346
0.510742
0.494594
0.476551
0.457153
0.437043
0.418772
0.401637
0.385413
0.370125
0.355782
0.342377
0.329885
0.318276
0.307518
0.297582
0.288442
0.280078
0.272477
0.265632
0.259541
0.2542
0.249582
0.245586
0.241991
0.238501
0.234721
0.230091
0.224034
0.216702
0.208788
0.201187
0.194396
0.188298
0.182337
0.176365
0.171809
0.172152
0.182793
0.210633
0.264054
0.33903
0.403174
0.422925
0.42824
0.449483
0.486173
0.529806
0.572771
0.610259
0.64121
0.667006
0.689677
0.710818
0.731253
0.751104
0.771089
0.791489
0.81217
0.832806
0.852788
0.871125
0.886392
0.896753
0.900141
0.894532
0.878159
0.853053
0.822159
0.786291
0.747362
0.707108
0.666856
0.627528
0.589694
0.553704
0.519848
0.487817
0.455988
0.422893
0.389766
0.360171
0.337925
0.325914
0.324358
0.33037
0.339079
0.345271
0.34449
0.333859
0.312653
0.282369
0.247141
0.212915
0.185384
0.169885
0.169672
0.185631
0.216962
0.256836
0.301262
0.347433
0.384441
0.408269
0.4237
0.43716
0.296407
0.359
0.338163
0.339059
0.343296
0.338336
0.323695
0.303863
0.283085
0.26386
0.247205
0.233153
0.221368
0.211652
0.203914
0.1988
0.19827
0.205697
0.227541
0.280608
0.389157
0.548307
0.720615
0.710939
0.616283
0.529441
0.464141
0.417834
0.385573
0.364996
0.353868
0.349793
0.350557
0.354613
0.360915
0.368596
0.376895
0.385177
0.393009
0.400201
0.406778
0.412866
0.418578
0.423943
0.428876
0.433202
0.436705
0.439089
0.440018
0.439435
0.437314
0.433708
0.428776
0.422778
0.416077
0.409115
0.40239
0.396424
0.391727
0.388763
0.387917
0.389478
0.393619
0.400377
0.409638
0.4211
0.434253
0.448364
0.462495
0.475573
0.486508
0.494339
0.498383
0.498328
0.49425
0.486538
0.475783
0.46261
0.447491
0.431955
0.417177
0.402841
0.389023
0.375803
0.363217
0.351277
0.339978
0.329309
0.319258
0.309818
0.300991
0.292787
0.285224
0.278332
0.272136
0.266645
0.26183
0.257614
0.25386
0.25035
0.246783
0.242785
0.237942
0.23186
0.224229
0.215242
0.205835
0.197139
0.190215
0.186262
0.187776
0.19981
0.22976
0.28488
0.361221
0.429649
0.452825
0.450394
0.467116
0.507747
0.559699
0.609851
0.650749
0.681136
0.703434
0.720743
0.735309
0.748295
0.760138
0.770986
0.78209
0.793775
0.806089
0.818957
0.83207
0.844737
0.855776
0.863445
0.865561
0.859828
0.844649
0.822612
0.794516
0.761973
0.7269
0.690969
0.655438
0.621149
0.588617
0.558148
0.529853
0.503546
0.478479
0.452955
0.424783
0.39455
0.364753
0.338075
0.316357
0.300219
0.289166
0.281967
0.276992
0.272373
0.266034
0.255938
0.241204
0.223619
0.207854
0.199686
0.204277
0.225461
0.263571
0.313692
0.370645
0.42639
0.468999
0.494332
0.507664
0.516256
0.35298
0.317762
0.346334
0.378859
0.38725
0.3731
0.345176
0.312815
0.282322
0.256405
0.235529
0.219531
0.208304
0.200393
0.194787
0.192598
0.199429
0.228313
0.301061
0.432006
0.600922
0.728675
0.710611
0.604829
0.504784
0.434598
0.38973
0.363206
0.349741
0.345734
0.348347
0.355304
0.364897
0.375909
0.387406
0.398643
0.409115
0.418616
0.427218
0.435146
0.442644
0.449873
0.456873
0.463563
0.469767
0.475245
0.479727
0.482322
0.482817
0.480944
0.476495
0.469369
0.459592
0.447351
0.432998
0.417064
0.40024
0.383352
0.367301
0.352988
0.341236
0.332718
0.327912
0.327081
0.33027
0.337299
0.347751
0.360943
0.375923
0.391504
0.406361
0.419193
0.428919
0.434835
0.436714
0.434755
0.429473
0.421473
0.41143
0.401082
0.390565
0.380076
0.369771
0.359741
0.350029
0.340652
0.331614
0.322911
0.314543
0.306517
0.298847
0.291559
0.28469
0.278287
0.272395
0.267051
0.262268
0.258024
0.254239
0.250759
0.247351
0.243729
0.239585
0.234622
0.228587
0.221373
0.213329
0.20562
0.200057
0.199192
0.207181
0.230912
0.278656
0.351497
0.427579
0.466089
0.462905
0.467619
0.503527
0.558596
0.615188
0.661381
0.693722
0.714533
0.727693
0.736207
0.74183
0.745461
0.747569
0.748546
0.749756
0.751555
0.754151
0.757716
0.762274
0.767514
0.772628
0.776134
0.77589
0.769526
0.756661
0.737811
0.713845
0.686356
0.657098
0.627591
0.598949
0.571884
0.546795
0.523866
0.5031
0.484301
0.466932
0.449862
0.431188
0.409106
0.384012
0.357597
0.331939
0.308533
0.288051
0.270608
0.256102
0.244333
0.23485
0.226807
0.219334
0.212771
0.209776
0.214246
0.229207
0.25718
0.299957
0.356088
0.420731
0.483438
0.531278
0.559204
0.573347
0.578289
0.420547
0.342728
0.402473
0.43566
0.432916
0.402834
0.358906
0.314914
0.278372
0.250706
0.231115
0.218537
0.209779
0.203631
0.201749
0.21065
0.242256
0.311152
0.424538
0.564835
0.665961
0.657343
0.571654
0.479442
0.412922
0.372929
0.352479
0.345457
0.347485
0.355503
0.36731
0.381294
0.396225
0.411139
0.425342
0.438463
0.450456
0.461505
0.471895
0.481894
0.491689
0.501347
0.51082
0.519951
0.528487
0.536096
0.542186
0.546065
0.547512
0.546092
0.541395
0.533083
0.520929
0.504857
0.484997
0.461742
0.435794
0.408179
0.380199
0.353323
0.329004
0.308501
0.292731
0.282221
0.277129
0.277309
0.282365
0.291672
0.304358
0.319289
0.335097
0.35028
0.363409
0.373348
0.379478
0.381746
0.380541
0.376466
0.370782
0.364266
0.357307
0.350179
0.343043
0.335981
0.329031
0.322202
0.315492
0.308894
0.302405
0.29603
0.289784
0.283692
0.277793
0.272137
0.266778
0.26177
0.257156
0.252955
0.249148
0.245666
0.242378
0.239098
0.2356
0.231642
0.227019
0.221649
0.215764
0.210321
0.207354
0.210337
0.224912
0.259261
0.320033
0.398641
0.459942
0.473185
0.465374
0.485624
0.536664
0.597919
0.651577
0.689493
0.71223
0.723927
0.728466
0.728393
0.725241
0.719991
0.713351
0.705952
0.698898
0.692476
0.686922
0.682557
0.679657
0.678249
0.677915
0.677466
0.674872
0.668377
0.657094
0.640903
0.620618
0.597681
0.573675
0.549954
0.527487
0.50686
0.488363
0.472086
0.457977
0.445835
0.435226
0.42532
0.414798
0.401712
0.385262
0.365705
0.344113
0.321833
0.299922
0.278997
0.259441
0.24168
0.226258
0.21374
0.20473
0.200432
0.203387
0.216627
0.241202
0.276731
0.324163
0.384282
0.453815
0.521867
0.574805
0.606417
0.622068
0.625245
0.445591
0.375309
0.451073
0.47916
0.465246
0.420976
0.366068
0.317232
0.281784
0.257339
0.241378
0.230265
0.223685
0.223422
0.234455
0.264718
0.322783
0.411336
0.514127
0.58563
0.58499
0.526253
0.453755
0.397135
0.363371
0.348333
0.346308
0.352893
0.36507
0.380742
0.398305
0.416452
0.434165
0.450789
0.466049
0.479986
0.492845
0.504962
0.516668
0.52823
0.539812
0.551452
0.563056
0.574402
0.585153
0.59489
0.602802
0.608923
0.612806
0.613949
0.611863
0.606076
0.596123
0.581546
0.561931
0.537003
0.506798
0.471887
0.433569
0.393901
0.355449
0.320788
0.291944
0.270055
0.255382
0.247555
0.245878
0.249536
0.257672
0.269333
0.283352
0.298272
0.31249
0.324489
0.333147
0.338126
0.339612
0.338413
0.33557
0.331723
0.327319
0.322638
0.317844
0.313017
0.308191
0.303368
0.298538
0.293688
0.288806
0.283891
0.278948
0.273994
0.26906
0.264187
0.259428
0.254843
0.250492
0.246428
0.242682
0.23925
0.236085
0.233087
0.230112
0.226995
0.223591
0.219854
0.216013
0.212948
0.212815
0.219758
0.240477
0.283314
0.351134
0.426272
0.470564
0.470697
0.468352
0.502584
0.562946
0.624375
0.671649
0.700811
0.714995
0.718766
0.715668
0.708036
0.697458
0.685101
0.671919
0.6587
0.646027
0.634035
0.622853
0.612844
0.604452
0.597931
0.593289
0.589532
0.585166
0.578406
0.568073
0.553879
0.536478
0.517125
0.497221
0.477956
0.460159
0.444301
0.430581
0.419025
0.409559
0.402015
0.396086
0.391204
0.386441
0.380363
0.371715
0.360064
0.345555
0.328717
0.310173
0.290472
0.270136
0.249843
0.230557
0.213553
0.200468
0.193599
0.19627
0.211986
0.241717
0.283285
0.335338
0.398666
0.471331
0.543151
0.600517
0.636249
0.653849
0.65651
0.445613
0.407533
0.485543
0.50653
0.482601
0.431161
0.375517
0.330954
0.299552
0.278392
0.264665
0.256671
0.256732
0.268103
0.295205
0.341673
0.405545
0.47232
0.515511
0.515708
0.478735
0.427927
0.38446
0.3576
0.346896
0.348263
0.357832
0.372805
0.391117
0.411047
0.431133
0.450272
0.467818
0.483558
0.497619
0.510347
0.522191
0.533614
0.545018
0.556686
0.568758
0.581217
0.593893
0.606481
0.618567
0.629651
0.639338
0.647383
0.653296
0.656631
0.657031
0.654225
0.647969
0.637953
0.623677
0.604383
0.579107
0.546957
0.507644
0.462113
0.41297
0.364248
0.320369
0.284708
0.258703
0.241975
0.233119
0.230546
0.23304
0.239777
0.250009
0.262593
0.275963
0.288419
0.298222
0.304848
0.308105
0.308992
0.308199
0.306309
0.303755
0.300826
0.297692
0.294443
0.291115
0.287713
0.284228
0.280646
0.276955
0.273146
0.26922
0.265186
0.261063
0.256882
0.252687
0.248534
0.244491
0.240629
0.237013
0.23369
0.230673
0.227939
0.225421
0.223031
0.220686
0.218376
0.216335
0.215456
0.218035
0.228671
0.254503
0.302874
0.372285
0.439582
0.470786
0.467121
0.473009
0.515508
0.578672
0.638111
0.679333
0.701207
0.708548
0.705898
0.696625
0.683071
0.666983
0.649709
0.632312
0.6156
0.599626
0.584347
0.569719
0.556019
0.543912
0.533632
0.525668
0.519405
0.51342
0.506147
0.496378
0.483705
0.468589
0.452076
0.435368
0.419491
0.405136
0.392662
0.382181
0.373663
0.367015
0.36211
0.358764
0.356651
0.355233
0.353594
0.350514
0.345249
0.337431
0.326975
0.313905
0.298282
0.2803
0.260495
0.239912
0.22015
0.20336
0.192477
0.191497
0.204809
0.234597
0.27885
0.33429
0.400067
0.474477
0.548517
0.609266
0.648905
0.668831
0.6716
0.432836
0.436656
0.509847
0.521917
0.491567
0.439567
0.387967
0.34934
0.324476
0.310244
0.301745
0.300962
0.310182
0.331284
0.364138
0.404179
0.441039
0.461901
0.459305
0.43618
0.403369
0.373091
0.353311
0.346005
0.34928
0.360302
0.376638
0.396245
0.417255
0.438038
0.457386
0.47463
0.489605
0.502536
0.513896
0.524281
0.534291
0.544448
0.555138
0.566585
0.578846
0.591823
0.605276
0.618835
0.632022
0.644302
0.655459
0.664913
0.672052
0.67636
0.6775
0.675365
0.670076
0.661883
0.65094
0.637011
0.619187
0.59583
0.564935
0.52501
0.476297
0.421734
0.366836
0.31791
0.279523
0.252989
0.236769
0.228058
0.224709
0.225773
0.231018
0.23986
0.250887
0.262533
0.272266
0.279498
0.284189
0.286696
0.287537
0.28722
0.286146
0.284593
0.282735
0.280665
0.278426
0.276035
0.273492
0.270791
0.267926
0.264894
0.261696
0.258339
0.254837
0.251212
0.247499
0.243747
0.240022
0.236403
0.232974
0.229818
0.226997
0.224548
0.222474
0.220758
0.219381
0.218364
0.217944
0.219052
0.224108
0.237904
0.267401
0.318286
0.385448
0.44404
0.466933
0.464323
0.477207
0.523451
0.585482
0.640629
0.677024
0.694414
0.6972
0.689942
0.676246
0.658565
0.638809
0.618478
0.598659
0.580039
0.56228
0.545155
0.528498
0.512254
0.497545
0.48477
0.474268
0.465757
0.458245
0.450383
0.441002
0.429581
0.416385
0.402238
0.388147
0.374978
0.363295
0.353357
0.345189
0.338696
0.333745
0.330221
0.328021
0.327013
0.326968
0.327489
0.327656
0.326653
0.323855
0.31881
0.311139
0.30047
0.286532
0.269403
0.249793
0.229218
0.210015
0.195416
0.189745
0.198033
0.223928
0.266935
0.323276
0.390109
0.464871
0.539593
0.60244
0.645253
0.66757
0.670989
0.415387
0.462046
0.530803
0.534127
0.498342
0.447357
0.401419
0.370441
0.35439
0.346736
0.345556
0.351197
0.36372
0.381567
0.40084
0.415986
0.421973
0.416671
0.401723
0.381713
0.362542
0.349402
0.344954
0.34913
0.360397
0.376881
0.396655
0.417774
0.438468
0.457411
0.473869
0.487673
0.499101
0.508719
0.517226
0.525321
0.533608
0.542544
0.552422
0.563376
0.575402
0.588366
0.602014
0.615962
0.629705
0.642993
0.655344
0.666065
0.674412
0.679677
0.681311
0.679065
0.673106
0.664042
0.652764
0.64005
0.625987
0.609455
0.588008
0.558496
0.518503
0.468186
0.411602
0.355906
0.308275
0.272967
0.249987
0.235727
0.226945
0.222373
0.222266
0.22676
0.234569
0.243899
0.252933
0.260473
0.266052
0.269742
0.271888
0.272888
0.27308
0.272707
0.271923
0.270818
0.269442
0.267818
0.265963
0.263884
0.26159
0.25909
0.256393
0.253512
0.250461
0.247261
0.24394
0.240542
0.237124
0.233765
0.230563
0.227619
0.225035
0.222896
0.221271
0.220211
0.219757
0.219973
0.221103
0.224087
0.231377
0.247668
0.279295
0.330185
0.392912
0.443588
0.461817
0.461938
0.479251
0.525659
0.584367
0.635178
0.668
0.682618
0.682965
0.673364
0.657279
0.637298
0.615477
0.59339
0.572086
0.552202
0.53325
0.514851
0.496834
0.479261
0.462698
0.447837
0.435217
0.424859
0.416086
0.407759
0.398765
0.388482
0.376975
0.364858
0.352965
0.342031
0.332521
0.32461
0.318249
0.313268
0.309481
0.306744
0.304983
0.304177
0.304312
0.305391
0.306912
0.308203
0.308581
0.307402
0.30404
0.297846
0.28821
0.274763
0.257691
0.23805
0.217963
0.200682
0.190621
0.193093
0.212836
0.251247
0.305405
0.371186
0.444678
0.518498
0.581995
0.626936
0.651342
0.655815
0.394839
0.485589
0.552397
0.549194
0.50956
0.460131
0.419459
0.394477
0.383053
0.3786
0.379091
0.382776
0.387934
0.392489
0.394342
0.392122
0.38564
0.375786
0.364247
0.353385
0.345922
0.344076
0.34877
0.359643
0.375524
0.394767
0.415468
0.43578
0.454255
0.470036
0.482877
0.493032
0.501092
0.50781
0.513952
0.520188
0.527034
0.534834
0.543767
0.553866
0.565049
0.577154
0.589937
0.603088
0.616247
0.62937
0.641915
0.65323
0.66253
0.668949
0.671649
0.670009
0.663848
0.65364
0.640573
0.626266
0.612061
0.598077
0.582529
0.561825
0.53187
0.490231
0.43871
0.383984
0.333634
0.293597
0.266159
0.247643
0.234294
0.224812
0.219762
0.219725
0.224082
0.231163
0.239076
0.246387
0.252362
0.256843
0.259994
0.262087
0.263371
0.264029
0.264182
0.263905
0.263245
0.262235
0.260905
0.259279
0.257383
0.255243
0.252882
0.250323
0.247588
0.244701
0.24169
0.238592
0.235458
0.232364
0.229405
0.2267
0.224373
0.222555
0.221369
0.220937
0.221371
0.22279
0.225461
0.230284
0.239596
0.257738
0.290178
0.339316
0.396668
0.440719
0.456538
0.45932
0.478494
0.522574
0.576854
0.623722
0.654135
0.667456
0.666958
0.656595
0.639726
0.618989
0.59648
0.573762
0.55179
0.531045
0.511132
0.491663
0.472465
0.453634
0.43562
0.419177
0.404998
0.393321
0.383711
0.375212
0.366748
0.357583
0.347591
0.33721
0.327142
0.318035
0.310293
0.304033
0.299144
0.295392
0.292525
0.290352
0.288784
0.287842
0.287634
0.288395
0.290018
0.292102
0.294079
0.295264
0.294898
0.292165
0.286247
0.276474
0.262582
0.245058
0.225488
0.206807
0.193306
0.190316
0.203158
0.234812
0.283919
0.34617
0.416524
0.487786
0.550375
0.596197
0.622102
0.627781
0.372435
0.506264
0.574692
0.569046
0.528014
0.47973
0.441206
0.416932
0.402276
0.394308
0.389553
0.385752
0.381624
0.376609
0.370712
0.364297
0.357812
0.351691
0.346575
0.343588
0.344169
0.349485
0.359934
0.375032
0.393543
0.41374
0.433781
0.452104
0.467686
0.480122
0.489557
0.496537
0.501832
0.506265
0.510588
0.515401
0.521116
0.527947
0.535912
0.544861
0.55455
0.564737
0.575238
0.585929
0.597
0.608326
0.619569
0.630201
0.639505
0.646588
0.650434
0.650084
0.644871
0.634763
0.620679
0.604501
0.588467
0.573978
0.560454
0.544775
0.522292
0.48891
0.44415
0.395036
0.348066
0.309234
0.280312
0.258954
0.24203
0.228546
0.219529
0.215963
0.217489
0.222557
0.229269
0.236096
0.242158
0.247135
0.251044
0.254025
0.256229
0.257771
0.258728
0.259151
0.259082
0.258562
0.25763
0.25633
0.254705
0.252798
0.25065
0.248297
0.245772
0.243106
0.24033
0.237479
0.234599
0.231758
0.229048
0.226588
0.224523
0.223013
0.222235
0.222378
0.223639
0.226218
0.230416
0.237055
0.24822
0.267703
0.300019
0.346399
0.398252
0.436944
0.451506
0.456119
0.475048
0.515177
0.564468
0.607771
0.636657
0.649829
0.649754
0.639904
0.623467
0.603054
0.580727
0.557995
0.535766
0.514419
0.493645
0.473164
0.452877
0.432931
0.4138
0.396264
0.381104
0.368696
0.35878
0.350514
0.342807
0.334783
0.326146
0.317202
0.308582
0.300903
0.294546
0.289594
0.285889
0.283138
0.281032
0.279327
0.277902
0.276772
0.276092
0.276199
0.27727
0.279192
0.281613
0.283938
0.285382
0.28504
0.281969
0.275316
0.26452
0.249595
0.231519
0.212643
0.196878
0.189376
0.195628
0.219632
0.261636
0.318033
0.383308
0.450331
0.510389
0.555704
0.582285
0.589042
0.349053
0.519587
0.59297
0.589532
0.549661
0.501292
0.460548
0.430831
0.410212
0.395671
0.384285
0.374424
0.365578
0.357893
0.351701
0.347176
0.344241
0.342792
0.343075
0.345844
0.352089
0.362518
0.377152
0.395199
0.415211
0.435434
0.454219
0.470349
0.483185
0.49267
0.499222
0.503567
0.506565
0.509057
0.511761
0.515212
0.519723
0.525368
0.531981
0.539222
0.546694
0.55409
0.561315
0.568501
0.57627
0.584624
0.593362
0.602066
0.61016
0.616851
0.621096
0.621784
0.617915
0.608946
0.595276
0.578538
0.561226
0.545452
0.531698
0.517695
0.499025
0.471803
0.435228
0.392885
0.351078
0.3154
0.287541
0.265367
0.246332
0.23027
0.218791
0.213095
0.212854
0.216546
0.22232
0.228675
0.234705
0.24001
0.244495
0.24819
0.251149
0.253418
0.255029
0.256012
0.256403
0.256246
0.255595
0.254508
0.253048
0.251273
0.24924
0.247001
0.2446
0.242078
0.239472
0.236817
0.234158
0.231551
0.229083
0.226868
0.225057
0.223833
0.223415
0.224059
0.226053
0.229701
0.235363
0.243762
0.25664
0.277129
0.308794
0.352034
0.398749
0.433147
0.446913
0.452343
0.469479
0.504636
0.548588
0.588493
0.616356
0.630136
0.631413
0.623068
0.608017
0.588758
0.567272
0.544982
0.522726
0.500862
0.479258
0.45779
0.436489
0.415599
0.395658
0.377482
0.361902
0.349377
0.339736
0.33216
0.32546
0.318595
0.311124
0.30329
0.295727
0.289077
0.283728
0.279747
0.276934
0.274946
0.273426
0.272093
0.270796
0.26953
0.26844
0.267874
0.268164
0.269438
0.271579
0.274165
0.276481
0.277605
0.276524
0.272273
0.264107
0.251725
0.235595
0.217421
0.20052
0.189664
0.190236
0.206723
0.240625
0.289455
0.347933
0.409136
0.465079
0.508425
0.534676
0.542112
0.327371
0.519092
0.599004
0.602163
0.566656
0.518882
0.474905
0.439624
0.413146
0.392967
0.377038
0.364292
0.354423
0.347435
0.343255
0.341585
0.342025
0.344382
0.348915
0.356286
0.367201
0.381951
0.400121
0.420583
0.441739
0.461901
0.479645
0.494037
0.504717
0.511857
0.516045
0.51811
0.518953
0.519419
0.520205
0.521808
0.524497
0.528294
0.532991
0.538194
0.543369
0.547887
0.551452
0.554726
0.558739
0.563631
0.569089
0.5748
0.580435
0.585404
0.588728
0.589308
0.586046
0.578132
0.565575
0.549626
0.532565
0.516608
0.502506
0.488667
0.471593
0.44775
0.416107
0.379549
0.34355
0.31261
0.287392
0.265606
0.245644
0.228474
0.216182
0.209873
0.209035
0.212116
0.217373
0.223434
0.229455
0.235023
0.239968
0.24423
0.247782
0.250608
0.252705
0.254089
0.254791
0.254865
0.254374
0.253394
0.252
0.250269
0.248271
0.246071
0.243726
0.241286
0.238793
0.236289
0.233813
0.23142
0.229181
0.227204
0.225637
0.224676
0.224568
0.225627
0.228232
0.232804
0.239795
0.249837
0.264303
0.285626
0.316469
0.356654
0.39887
0.42985
0.442946
0.448302
0.462605
0.492161
0.530465
0.566867
0.593804
0.608532
0.611707
0.605531
0.592535
0.57502
0.55484
0.533325
0.511259
0.489036
0.466733
0.444408
0.422249
0.400633
0.380198
0.361824
0.346381
0.334362
0.325591
0.319158
0.313685
0.307937
0.301383
0.294294
0.287384
0.281367
0.276663
0.273318
0.271089
0.269585
0.26842
0.267304
0.266082
0.264733
0.263369
0.262275
0.261827
0.262312
0.26382
0.266128
0.268653
0.270526
0.270712
0.268181
0.262071
0.251883
0.237734
0.22077
0.203637
0.19055
0.186588
0.196349
0.222116
0.262524
0.313002
0.367102
0.417538
0.457508
0.482324
0.489834
0.317026
0.498282
0.585097
0.598997
0.572459
0.528931
0.484521
0.446658
0.416464
0.392826
0.374505
0.360734
0.351119
0.345346
0.342996
0.343561
0.346637
0.352153
0.360445
0.372056
0.387367
0.406238
0.427861
0.450849
0.473517
0.494248
0.51179
0.525385
0.534825
0.5404
0.542772
0.542814
0.541454
0.539569
0.537883
0.536888
0.536869
0.537901
0.539861
0.54246
0.545191
0.547321
0.54821
0.548319
0.548642
0.549619
0.551126
0.55303
0.55518
0.557176
0.558294
0.557541
0.553828
0.546262
0.534623
0.519799
0.503659
0.488124
0.473913
0.459776
0.442825
0.420228
0.39153
0.35971
0.329423
0.303461
0.281008
0.259893
0.239914
0.223099
0.211581
0.206027
0.20561
0.208765
0.213928
0.219927
0.226037
0.231861
0.237185
0.241877
0.24585
0.249047
0.251445
0.253052
0.253906
0.254069
0.253617
0.252639
0.251223
0.249459
0.247428
0.245208
0.242864
0.240454
0.238031
0.235636
0.233313
0.231108
0.229085
0.227338
0.226007
0.225287
0.225443
0.226831
0.229908
0.235214
0.243313
0.254809
0.27073
0.292828
0.322935
0.360461
0.398962
0.427289
0.439771
0.444436
0.455299
0.478895
0.511233
0.543777
0.569511
0.585115
0.590352
0.58668
0.576148
0.560776
0.542252
0.52181
0.500191
0.477858
0.455098
0.432154
0.409385
0.387332
0.366773
0.348679
0.333957
0.323079
0.315764
0.310877
0.306758
0.301983
0.296017
0.289261
0.282592
0.276832
0.272428
0.26939
0.267413
0.266063
0.264952
0.263817
0.262543
0.261118
0.259618
0.258215
0.257238
0.257041
0.257858
0.259643
0.261981
0.264104
0.265007
0.26363
0.259039
0.25061
0.238237
0.222653
0.205895
0.19153
0.184177
0.188306
0.206601
0.238577
0.280546
0.326765
0.370678
0.406103
0.428443
0.435338
0.307333
0.462577
0.547566
0.57427
0.561745
0.529266
0.49016
0.453109
0.421663
0.396383
0.376859
0.362599
0.353165
0.348092
0.346858
0.348987
0.354215
0.362616
0.374534
0.390327
0.410046
0.433214
0.458772
0.48527
0.510644
0.532905
0.551278
0.565162
0.574418
0.579362
0.580653
0.579157
0.575802
0.571455
0.566839
0.562497
0.558805
0.555964
0.554006
0.552785
0.551948
0.551011
0.549447
0.54718
0.544505
0.541829
0.539451
0.537553
0.536119
0.534844
0.533117
0.530073
0.524741
0.51631