/*--------------------------------*- C++ -*----------------------------------*\
  =========                 |
  \\      /  F ield         | OpenFOAM: The Open Source CFD Toolbox
   \\    /   O peration     | Website:  https://openfoam.org
    \\  /    A nd           | Version:  9
     \\/     M anipulation  |
\*---------------------------------------------------------------------------*/
FoamFile
{
    format      ascii;
    class       volScalarField;
    location    "0.09";
    object      nut;
}
// * * * * * * * * * * * * * * * * * * * * * * * * * * * * * * * * * * * * * //

dimensions      [0 2 -1 0 0 0 0];

internalField   nonuniform List<scalar> 
12225
(
8.99105e-06
7.55159e-06
6.46674e-06
5.6817e-06
5.15798e-06
4.86513e-06
4.77646e-06
4.86602e-06
5.10798e-06
5.47739e-06
5.95145e-06
6.51112e-06
7.14266e-06
7.83945e-06
8.60409e-06
9.45097e-06
1.04162e-05
1.18534e-05
6.73564e-05
4.76531e-05
4.03012e-05
3.68518e-05
3.51599e-05
3.43635e-05
3.40089e-05
3.38508e-05
3.37671e-05
3.37027e-05
3.36366e-05
3.35651e-05
3.3494e-05
3.34357e-05
3.34082e-05
3.34328e-05
3.35432e-05
3.38111e-05
0.000145931
0.000110813
9.13729e-05
7.847e-05
6.87933e-05
6.09976e-05
5.44658e-05
4.89167e-05
4.42173e-05
4.02781e-05
3.70103e-05
3.4321e-05
3.21218e-05
3.03385e-05
2.89176e-05
2.78303e-05
2.7076e-05
2.66892e-05
0.000188743
0.000163099
0.000142948
0.000127141
0.000114202
0.000103162
9.34116e-05
8.45935e-05
7.65233e-05
6.91151e-05
6.23232e-05
5.61083e-05
5.04261e-05
4.52295e-05
4.04788e-05
3.61554e-05
3.22739e-05
2.89052e-05
0.00020491
0.000192124
0.000178725
0.000166123
0.000154589
0.00014404
0.000134287
0.000125143
0.000116461
0.000108141
0.000100112
9.23153e-05
8.46933e-05
7.71829e-05
6.97197e-05
6.22532e-05
5.47763e-05
4.7419e-05
0.000210133
0.000204674
0.000197677
0.000189974
0.000182069
0.000174222
0.000166539
0.000159032
0.000151669
0.000144402
0.000137176
0.000129929
0.000122586
0.000115055
0.000107224
9.8959e-05
9.01288e-05
8.07371e-05
0.000211673
0.000209301
0.000205994
0.000201949
0.000197387
0.000192492
0.000187397
0.000182176
0.000176863
0.000171463
0.000165956
0.000160307
0.000154458
0.00014833
0.000141817
0.000134777
0.00012704
0.000118541
0.000212094
0.000210816
0.000209153
0.000207088
0.000204652
0.0002019
0.00019889
0.000195671
0.000192276
0.00018872
0.000185004
0.000181114
0.000177017
0.000172664
0.000167981
0.000162867
0.00015719
0.000150909
0.000212201
0.000211264
0.000210217
0.000209019
0.000207649
0.000206104
0.00020439
0.000202518
0.0002005
0.000198342
0.000196045
0.000193603
0.000190999
0.000188207
0.000185184
0.000181869
0.000178183
0.000174114
0.000212226
0.000211385
0.000210538
0.000209663
0.00020874
0.000207756
0.000206701
0.00020557
0.000204362
0.000203074
0.000201703
0.000200245
0.000198691
0.000197026
0.000195229
0.000193266
0.000191097
0.000188721
0.000212231
0.000211415
0.000210626
0.000209856
0.000209095
0.000208333
0.000207562
0.000206776
0.00020597
0.000205139
0.000204281
0.000203391
0.000202465
0.000201495
0.000200471
0.000199377
0.000198194
0.000196926
0.000212232
0.000211421
0.000210647
0.000209906
0.000209193
0.000208502
0.00020783
0.000207172
0.000206524
0.000205885
0.00020525
0.00020462
0.000203991
0.00020336
0.000202724
0.000202075
0.000201404
0.000200714
0.000212232
0.000211423
0.000210653
0.000209921
0.000209224
0.000208559
0.000207924
0.000207318
0.000206737
0.000206182
0.000205652
0.000205146
0.000204666
0.00020421
0.000203777
0.000203367
0.000202977
0.000202608
0.000212232
0.000211423
0.000210655
0.000209926
0.000209234
0.000208578
0.000207956
0.000207368
0.000206813
0.000206291
0.000205802
0.000205349
0.000204931
0.000204551
0.000204209
0.000203906
0.000203643
0.000203421
0.000212232
0.000211423
0.000210655
0.000209927
0.000209237
0.000208584
0.000207966
0.000207384
0.000206836
0.000206324
0.000205848
0.000205409
0.000205009
0.00020465
0.000204332
0.000204057
0.000203827
0.000203644
0.000212232
0.000211422
0.000210655
0.000209928
0.000209239
0.000208587
0.000207972
0.000207391
0.000206846
0.000206335
0.000205861
0.000205424
0.000205024
0.000204662
0.000204341
0.000204061
0.000203822
0.000203628
0.000212232
0.000211422
0.000210655
0.000209928
0.00020924
0.00020859
0.000207975
0.000207396
0.000206852
0.000206343
0.000205868
0.000205428
0.000205024
0.000204655
0.000204323
0.000204027
0.000203769
0.00020355
0.000212231
0.000211421
0.000210654
0.000209928
0.000209241
0.000208592
0.000207979
0.000207402
0.000206859
0.00020635
0.000205875
0.000205433
0.000205025
0.000204649
0.000204306
0.000203995
0.000203716
0.000203474
0.00021223
0.00021142
0.000210652
0.000209927
0.000209241
0.000208593
0.000207982
0.000207407
0.000206866
0.000206359
0.000205884
0.000205441
0.000205029
0.000204648
0.000204296
0.000203973
0.000203678
0.000203417
0.000212229
0.000211418
0.000210651
0.000209926
0.000209241
0.000208595
0.000207986
0.000207413
0.000206874
0.000206367
0.000205893
0.00020545
0.000205036
0.000204651
0.000204293
0.000203962
0.000203658
0.000203384
0.000212229
0.000211417
0.00021065
0.000209926
0.000209243
0.000208598
0.00020799
0.000207417
0.000206878
0.000206372
0.000205896
0.000205451
0.000205033
0.000204643
0.000204279
0.000203939
0.000203624
0.000203338
0.000212228
0.000211417
0.00021065
0.000209925
0.00020924
0.000208591
0.000207978
0.000207397
0.000206848
0.000206328
0.000205836
0.000205371
0.000204932
0.000204517
0.000204125
0.000203755
0.000203407
0.000203087
0.000212227
0.000211412
0.000210636
0.000209895
0.000209182
0.000208494
0.000207828
0.000207183
0.000206556
0.000205947
0.000205356
0.000204783
0.000204229
0.000203694
0.000203177
0.00020268
0.000202203
0.000201754
0.000212216
0.000211362
0.000210504
0.000209628
0.000208727
0.000207799
0.000206849
0.000205882
0.000204904
0.000203924
0.000202948
0.000201984
0.000201036
0.000200108
0.000199205
0.000198329
0.000197483
0.000196679
0.000212115
0.00021096
0.000209583
0.000207987
0.000206211
0.000204305
0.000202322
0.000200307
0.000198288
0.000196292
0.00019434
0.000192444
0.000190614
0.000188855
0.000187168
0.000185555
0.000184015
0.000182563
0.000211345
0.000208475
0.000204776
0.000200589
0.000196189
0.000191772
0.00018747
0.000183357
0.000179474
0.000175834
0.000172431
0.000169234
0.000166234
0.000163418
0.000160775
0.000158291
0.000155952
0.000153762
0.000206579
0.000196734
0.000186425
0.000176756
0.000168034
0.000160293
0.000153449
0.000147378
0.000141957
0.000137083
0.000132672
0.000128671
0.00012502
0.00012167
0.000118584
0.00011571
0.000113021
0.000110514
0.000183072
0.000157322
0.000139083
0.000125818
0.000115711
0.000107737
0.000101252
9.58304e-05
9.11923e-05
8.71541e-05
8.35915e-05
8.04178e-05
7.75698e-05
7.50003e-05
7.26728e-05
7.05627e-05
6.86447e-05
6.68992e-05
0.000105398
7.88192e-05
6.69279e-05
6.03175e-05
5.62468e-05
5.36561e-05
5.20006e-05
5.09491e-05
5.02876e-05
4.98744e-05
4.96139e-05
4.94415e-05
4.93139e-05
4.92027e-05
4.90907e-05
4.89673e-05
4.8828e-05
4.86655e-05
1.67227e-05
1.50201e-05
1.36116e-05
1.24481e-05
1.14954e-05
1.0726e-05
1.01168e-05
9.64792e-06
9.30122e-06
9.05991e-06
8.90849e-06
8.83273e-06
8.81965e-06
8.85754e-06
8.93602e-06
9.04598e-06
9.17967e-06
9.33001e-06
1.48597e-05
1.69516e-05
2.00456e-05
2.2381e-05
2.31449e-05
2.33559e-05
2.33926e-05
2.33548e-05
2.32865e-05
2.32077e-05
2.31266e-05
2.30353e-05
2.28947e-05
2.26477e-05
2.22262e-05
2.15329e-05
2.04181e-05
1.86476e-05
1.59625e-05
1.21122e-05
5.04883e-05
1.12016e-05
1.31372e-05
1.50767e-05
1.58459e-05
1.6202e-05
1.65105e-05
1.58862e-05
1.53753e-05
1.46796e-05
1.37458e-05
1.58013e-05
2.09275e-05
2.43437e-05
2.69723e-05
2.89983e-05
3.05482e-05
3.17175e-05
3.25797e-05
3.31924e-05
3.36016e-05
3.38442e-05
3.39504e-05
3.39453e-05
3.38493e-05
3.36796e-05
3.34506e-05
3.31736e-05
3.28584e-05
3.251e-05
3.21587e-05
3.18047e-05
3.14482e-05
3.10899e-05
3.07305e-05
3.03706e-05
3.00106e-05
2.96507e-05
2.92911e-05
2.89316e-05
2.85717e-05
2.82106e-05
2.78469e-05
2.74786e-05
2.71026e-05
2.67153e-05
2.63115e-05
2.58855e-05
2.54307e-05
2.49406e-05
2.44093e-05
2.38327e-05
2.32091e-05
2.25397e-05
2.18286e-05
2.10828e-05
2.03104e-05
1.95189e-05
1.87111e-05
1.7865e-05
1.72961e-05
1.70845e-05
1.69305e-05
1.68033e-05
1.66979e-05
1.66136e-05
1.65504e-05
1.65085e-05
1.64884e-05
1.64902e-05
1.65141e-05
1.65605e-05
1.66298e-05
1.67221e-05
1.68369e-05
1.69685e-05
1.70988e-05
1.71887e-05
1.71956e-05
1.71285e-05
1.69533e-05
1.66604e-05
1.62671e-05
1.58116e-05
1.53429e-05
1.49038e-05
1.45159e-05
1.41793e-05
1.38878e-05
1.36655e-05
1.35885e-05
1.36433e-05
1.38211e-05
1.40957e-05
1.44088e-05
1.46765e-05
1.49347e-05
1.48658e-05
1.43031e-05
1.47458e-05
1.86279e-05
2.16372e-05
2.39169e-05
2.55915e-05
2.67935e-05
2.76297e-05
2.81819e-05
2.85121e-05
2.86716e-05
2.87152e-05
2.87058e-05
2.86188e-05
2.84669e-05
2.82574e-05
2.79931e-05
2.76739e-05
2.72953e-05
2.68487e-05
2.63194e-05
2.56814e-05
2.4855e-05
2.34788e-05
2.31425e-05
2.32705e-05
2.339e-05
2.34871e-05
2.35732e-05
2.36574e-05
2.37434e-05
2.38385e-05
2.39576e-05
2.40964e-05
2.41541e-05
2.40372e-05
2.3567e-05
2.25832e-05
2.10028e-05
1.89557e-05
1.69001e-05
1.53833e-05
1.45208e-05
1.39866e-05
1.34463e-05
1.30404e-05
1.24014e-05
1.21982e-05
4.95523e-05
4.61749e-05
4.42702e-05
4.36943e-05
4.41459e-05
4.58565e-05
4.86031e-05
4.99873e-05
5.10858e-05
1.04746e-05
1.1873e-05
1.30318e-05
1.38854e-05
1.45085e-05
1.97198e-05
3.22661e-05
3.96534e-05
4.25286e-05
4.47435e-05
4.67411e-05
4.8151e-05
4.88323e-05
4.88857e-05
4.84585e-05
4.76337e-05
4.56705e-05
4.24829e-05
3.88847e-05
3.55795e-05
3.29355e-05
3.0969e-05
2.9412e-05
2.7852e-05
2.64341e-05
2.6796e-05
2.91355e-05
3.50169e-05
3.91908e-05
4.0977e-05
4.49746e-05
4.73729e-05
4.48499e-05
4.15326e-05
3.90403e-05
3.74773e-05
3.68746e-05
3.67813e-05
3.67358e-05
3.68942e-05
3.73799e-05
3.8304e-05
3.97663e-05
4.18583e-05
4.4661e-05
4.82371e-05
5.26128e-05
5.77517e-05
6.3522e-05
6.96677e-05
7.58032e-05
8.14571e-05
8.61725e-05
8.9508e-05
9.20624e-05
9.45213e-05
9.69292e-05
9.9319e-05
0.000101727
0.00010419
0.000106747
0.000109433
0.000112281
0.000115315
0.000118556
0.000122011
0.000125679
0.000129544
0.000133572
0.000137711
0.000141888
0.000146012
0.000149972
0.000153645
0.000156909
0.000159653
0.000161787
0.000163251
0.00016402
0.000164095
0.000163494
0.000162231
0.000160277
0.000157519
0.000153713
0.000149173
0.000144585
0.000139974
0.000135381
0.000130839
0.000126371
0.000121996
0.000117731
0.000113594
0.000109602
0.00010577
0.000102115
9.86546e-05
9.53987e-05
9.23496e-05
8.94781e-05
8.66535e-05
8.34317e-05
7.85086e-05
7.26653e-05
6.73411e-05
6.31453e-05
6.03743e-05
5.87145e-05
5.78331e-05
5.73509e-05
5.68407e-05
5.5908e-05
5.4327e-05
5.20872e-05
4.94978e-05
4.72502e-05
4.52905e-05
4.31454e-05
4.10389e-05
3.98673e-05
3.99827e-05
4.04359e-05
4.10189e-05
4.34212e-05
4.83694e-05
5.52316e-05
6.40905e-05
7.48564e-05
8.7234e-05
0.000100744
0.000114718
0.00012827
0.00014036
0.000149919
0.000158248
0.000166438
0.000174494
0.000182344
0.000189862
0.000196855
0.000203059
0.000208131
0.000211648
0.000213077
0.000211608
0.000206067
0.000198427
0.000189747
0.000180277
0.000170301
0.000160052
0.000149708
0.000139371
0.00012909
0.000118901
0.000108361
9.37269e-05
7.76565e-05
6.59133e-05
5.9164e-05
5.66226e-05
5.70614e-05
5.92666e-05
6.20724e-05
6.41883e-05
6.43949e-05
6.20396e-05
5.74935e-05
5.22881e-05
4.80306e-05
4.71555e-05
4.81646e-05
5.11805e-05
5.54731e-05
5.97652e-05
6.2975e-05
6.66697e-05
6.77492e-05
7.20638e-05
7.3261e-05
8.38978e-05
9.48507e-05
0.000106372
0.000119785
3.38424e-05
3.56399e-05
3.76404e-05
4.03962e-05
4.47249e-05
4.92846e-05
5.29685e-05
5.54419e-05
5.68201e-05
5.73051e-05
5.70205e-05
5.5786e-05
5.32028e-05
4.9334e-05
4.47889e-05
4.04623e-05
3.70737e-05
3.49467e-05
3.41813e-05
3.52818e-05
3.96898e-05
4.8335e-05
5.75546e-05
6.43116e-05
6.4029e-05
5.84627e-05
5.31562e-05
4.87077e-05
4.53772e-05
4.34297e-05
4.27488e-05
4.32174e-05
4.47771e-05
4.75047e-05
5.1629e-05
5.73735e-05
6.48915e-05
7.4175e-05
8.49625e-05
9.66993e-05
0.000108603
0.000119835
0.000129713
0.000137846
0.000144155
0.000148792
0.000152023
0.000154133
0.000155425
0.000156401
0.000157154
0.000157734
0.0001582
0.000158618
0.000159061
0.000159606
0.000160326
0.000161294
0.000162573
0.000164216
0.000166263
0.000168738
0.000171648
0.000174979
0.000178693
0.000182728
0.000186993
0.000191372
0.000195729
0.000199917
0.000203793
0.000207231
0.00021013
0.000212424
0.000214073
0.000215061
0.00021538
0.000215021
0.000213951
0.000212079
0.000209636
0.00020695
0.000204096
0.000201117
0.000198043
0.000194894
0.000191688
0.000188439
0.000185164
0.000181879
0.0001786
0.000175345
0.000172126
0.000168948
0.000165797
0.000162625
0.000159331
0.000155724
0.00015151
0.000146606
0.000140996
0.000134369
0.000126142
0.000116991
0.000107839
9.94957e-05
9.23069e-05
8.6395e-05
8.15889e-05
7.7482e-05
7.34832e-05
6.87293e-05
6.33703e-05
5.89611e-05
5.72274e-05
5.7735e-05
5.84788e-05
5.92173e-05
6.38994e-05
7.48099e-05
9.2116e-05
0.00011463
0.000140066
0.000165701
0.000189443
0.000210193
0.000227614
0.000241795
0.000253023
0.000261633
0.000269146
0.000276115
0.000282596
0.000288583
0.000293999
0.000298689
0.000302407
0.000304818
0.00030552
0.000304086
0.000300038
0.000293582
0.000285617
0.000276462
0.000266483
0.000256016
0.000245315
0.000234554
0.000223827
0.000213156
0.000202479
0.000191378
0.000178391
0.000160849
0.000138975
0.000117269
9.91216e-05
8.58735e-05
7.73184e-05
7.25317e-05
7.03079e-05
6.94247e-05
6.88267e-05
6.77772e-05
6.59665e-05
6.3573e-05
6.12197e-05
5.98736e-05
6.07922e-05
6.51626e-05
7.25677e-05
8.09491e-05
9.08666e-05
0.000102847
0.000120351
0.00014301
0.00016867
0.000190282
0.000208665
0.000224561
4.60953e-05
2.82165e-05
3.39214e-05
4.43521e-05
5.52617e-05
6.35367e-05
6.84917e-05
7.08289e-05
7.14752e-05
7.10822e-05
6.99047e-05
6.75343e-05
6.34774e-05
5.80863e-05
5.2009e-05
4.62541e-05
4.19332e-05
3.99556e-05
4.11894e-05
4.68835e-05
5.7335e-05
6.91314e-05
7.58047e-05
7.19398e-05
6.37987e-05
5.66563e-05
5.18123e-05
4.90095e-05
4.81967e-05
4.93075e-05
5.22861e-05
5.71997e-05
6.42274e-05
7.3542e-05
8.51295e-05
9.85948e-05
0.000113092
0.000127468
0.000140585
0.000151658
0.000160398
0.00016694
0.000171648
0.000174935
0.000177152
0.00017855
0.000179283
0.000179411
0.000179051
0.000178281
0.000177119
0.000175599
0.00017377
0.000171703
0.000169489
0.000167233
0.000165055
0.000163082
0.000161441
0.000160257
0.000159641
0.000159686
0.000160459
0.000161996
0.000164302
0.00016734
0.000171039
0.000175289
0.000179949
0.000184854
0.000189838
0.00019474
0.000199424
0.000203782
0.000207736
0.000211227
0.000214213
0.000216652
0.000218498
0.000219515
0.000219986
0.000220156
0.000220084
0.000219801
0.000219322
0.000218655
0.000217807
0.000216783
0.00021559
0.000214237
0.00021273
0.000211081
0.000209297
0.00020738
0.000205319
0.000203082
0.000200605
0.00019779
0.000194512
0.00019064
0.000186027
0.000180455
0.000173654
0.000165373
0.000155261
0.00014368
0.000131932
0.000120828
0.000110766
0.000101412
9.19089e-05
8.21819e-05
7.43197e-05
7.07163e-05
7.07253e-05
7.13407e-05
7.13947e-05
7.61819e-05
9.04195e-05
0.000114787
0.000146858
0.000181909
0.000215113
0.000243516
0.000266286
0.00028386
0.000297121
0.000306937
0.000313997
0.000318807
0.000322553
0.000325613
0.000328119
0.000330155
0.00033175
0.000332853
0.000333314
0.000332867
0.000331156
0.000327807
0.000322537
0.000315935
0.000308112
0.000299388
0.000290137
0.000280691
0.000271301
0.000262123
0.00025324
0.000244667
0.000236336
0.000228012
0.000219092
0.000208274
0.000193388
0.000174722
0.000154051
0.000133761
0.000115864
0.000101463
9.07015e-05
8.30843e-05
7.78799e-05
7.43794e-05
7.19829e-05
7.02608e-05
6.909e-05
6.89509e-05
7.10313e-05
7.66143e-05
8.59022e-05
9.79118e-05
0.000113178
0.00013398
0.000162977
0.000198411
0.000233493
0.000261766
0.000282312
0.000297011
1.2333e-05
2.05571e-05
3.89708e-05
6.00307e-05
7.45426e-05
8.15386e-05
8.34495e-05
8.27046e-05
8.09312e-05
7.89311e-05
7.67442e-05
7.35247e-05
6.84392e-05
6.20016e-05
5.50581e-05
4.88306e-05
4.49905e-05
4.53541e-05
5.10982e-05
6.13747e-05
7.2381e-05
7.81527e-05
7.44444e-05
6.61182e-05
5.89431e-05
5.46099e-05
5.31153e-05
5.42025e-05
5.78451e-05
6.40416e-05
7.28076e-05
8.41223e-05
9.77543e-05
0.000113048
0.000128888
0.000143943
0.00015708
0.000167685
0.000175709
0.000181502
0.000185575
0.000188415
0.0001904
0.000191773
0.000192669
0.000193145
0.000193209
0.0001927
0.000191622
0.000189939
0.000187626
0.000184682
0.000181134
0.000177039
0.000172488
0.000167603
0.000162537
0.000157468
0.000152592
0.000148116
0.000144249
0.000141185
0.000139089
0.000138082
0.000138228
0.000139532
0.00014194
0.000145348
0.000149607
0.000154535
0.000159936
0.000165611
0.000171383
0.000177103
0.000182658
0.000187962
0.000192956
0.000197574
0.000201672
0.000204969
0.000207927
0.000210631
0.000213106
0.000215354
0.00021737
0.000219142
0.000220662
0.000221918
0.000222905
0.000223616
0.000224051
0.000224207
0.000224084
0.00022368
0.000222982
0.000221968
0.000220596
0.000218804
0.000216509
0.0002136
0.000209935
0.000205333
0.000199581
0.000192428
0.000183585
0.000172778
0.000160184
0.000146578
0.000132363
0.000117524
0.000102443
8.95302e-05
8.20961e-05
8.04452e-05
8.1062e-05
8.04779e-05
8.23716e-05
9.5047e-05
0.000121077
0.000157995
0.0001995
0.000238745
0.000271511
0.000296701
0.000315073
0.000327975
0.000336675
0.00034214
0.000345028
0.000345801
0.000345442
0.000344292
0.000342539
0.000340361
0.000337905
0.000335248
0.000332369
0.000329093
0.000325115
0.000320095
0.00031418
0.00030732
0.000299631
0.000291423
0.000283054
0.000274839
0.000267005
0.000259693
0.000252964
0.000246822
0.000241201
0.000235936
0.000230669
0.000224678
0.000216558
0.000205205
0.000190709
0.000173948
0.000156301
0.000139153
0.000123518
0.000109948
9.8654e-05
8.96785e-05
8.29711e-05
7.84203e-05
7.59556e-05
7.58557e-05
7.89595e-05
8.61111e-05
9.72773e-05
0.000112058
0.00013159
0.000158816
0.000195651
0.000238527
0.000279021
0.000310539
0.000332575
0.000345973
1.36299e-05
2.6166e-05
5.74989e-05
8.1033e-05
9.11885e-05
9.2949e-05
9.04821e-05
8.65665e-05
8.28e-05
7.98148e-05
7.71395e-05
7.24114e-05
6.61124e-05
5.93498e-05
5.32805e-05
4.92044e-05
4.87743e-05
5.30752e-05
6.15125e-05
7.09897e-05
7.61143e-05
7.35132e-05
6.66395e-05
6.06009e-05
5.75613e-05
5.77888e-05
6.11459e-05
6.75347e-05
7.69238e-05
8.91368e-05
0.000103748
0.000119974
0.000136654
0.000152456
0.000166262
0.00017747
0.000186047
0.000192362
0.00019695
0.000200337
0.000202932
0.00020501
0.00020672
0.000208122
0.00020921
0.000209935
0.000210166
0.000209729
0.000208593
0.000206681
0.000203926
0.000200278
0.000195714
0.000190245
0.000183922
0.000176851
0.000169197
0.000161185
0.000153092
0.000145224
0.000137897
0.000131412
0.00012604
0.000121999
0.00011943
0.000118385
0.000118831
0.000120665
0.00012374
0.000127873
0.000132856
0.000138464
0.000144475
0.000150685
0.000156925
0.00016308
0.000169077
0.000174832
0.000179908
0.00018466
0.000189236
0.000193665
0.000197943
0.00020205
0.000205959
0.000209641
0.000213066
0.000216207
0.000219039
0.00022154
0.000223691
0.000225478
0.000226884
0.000227896
0.000228492
0.000228647
0.000228322
0.000227465
0.000226007
0.00022386
0.000220912
0.000217024
0.000212017
0.000205667
0.000197689
0.000187725
0.000175373
0.00016063
0.000143648
0.000125056
0.000107181
9.41553e-05
8.85096e-05
8.8173e-05
8.82195e-05
8.72543e-05
9.36407e-05
0.000115784
0.000152662
0.000197949
0.000242899
0.000281198
0.000310587
0.000331566
0.000345693
0.00035457
0.00035947
0.000361277
0.000360576
0.000357795
0.000353782
0.00034885
0.000343226
0.000337164
0.000330927
0.000324717
0.00031868
0.000312726
0.000306625
0.000300408
0.000293736
0.000286473
0.000278756
0.000270873
0.000263156
0.000255894
0.000249294
0.000243475
0.000238486
0.000234324
0.000230935
0.000228194
0.000225852
0.000223431
0.000220069
0.000214538
0.000206375
0.000195604
0.000182709
0.000168443
0.000153584
0.000138795
0.000124641
0.000111679
0.000100507
9.1731e-05
8.59159e-05
8.37107e-05
8.59635e-05
9.32939e-05
0.000105514
0.000122361
0.00014511
0.000176643
0.000218208
0.000265244
0.000308925
0.000342565
0.000365197
0.000377708
1.41223e-05
3.57665e-05
7.51256e-05
9.42333e-05
9.91949e-05
9.68377e-05
9.13209e-05
8.52102e-05
7.98022e-05
7.50078e-05
6.97695e-05
6.48519e-05
5.98757e-05
5.53433e-05
5.23285e-05
5.2025e-05
5.52298e-05
6.1546e-05
6.86329e-05
7.25459e-05
7.09866e-05
6.60871e-05
6.17474e-05
6.03436e-05
6.24633e-05
6.80555e-05
7.69884e-05
8.90535e-05
0.000103816
0.000120454
0.000137798
0.00015453
0.000169503
0.000182016
0.000191904
0.000199432
0.000205093
0.000209422
0.00021288
0.000215803
0.000218404
0.000220786
0.000222973
0.000224931
0.000226588
0.000227849
0.000228461
0.000228436
0.000227695
0.000226143
0.000223698
0.000220284
0.000215833
0.000210283
0.000203579
0.000195696
0.000186664
0.000176616
0.000165825
0.000154713
0.000143803
0.000133633
0.00012467
0.000117266
0.000111647
0.0001079
0.00010598
0.000105763
0.000107091
0.000109806
0.000113731
0.00011865
0.000124314
0.000130459
0.000136819
0.000143238
0.000149615
0.000155477
0.000161092
0.000166607
0.000172065
0.000177474
0.000182818
0.000188067
0.000193184
0.000198127
0.000202853
0.000207321
0.000211491
0.000215326
0.000218791
0.000221853
0.000224482
0.000226643
0.000228303
0.000229422
0.000229953
0.000229841
0.000229017
0.000227403
0.000224905
0.000221406
0.000216763
0.000210782
0.000203183
0.000193551
0.000181298
0.000165903
0.000147434
0.000127329
0.000109323
9.78254e-05
9.39311e-05
9.40292e-05
9.33846e-05
9.34696e-05
0.000105041
0.00013606
0.000181408
0.000230919
0.000275779
0.000311395
0.000337207
0.000354593
0.0003654
0.00037123
0.000373251
0.00037224
0.000368715
0.000363088
0.000356116
0.000348082
0.000339214
0.000329829
0.000320314
0.000310948
0.00030211
0.000293726
0.000286115
0.000278726
0.000271224
0.000263496
0.000255644
0.000247912
0.00024059
0.000233933
0.000228117
0.000223241
0.000219341
0.000216412
0.000214422
0.000213293
0.000212866
0.000212829
0.000212609
0.000211238
0.000207997
0.000202553
0.000194872
0.000185168
0.000173781
0.000161098
0.000147551
0.000133704
0.000120322
0.000108397
9.90829e-05
9.36378e-05
9.33222e-05
9.90148e-05
0.000110849
0.00012872
0.000153577
0.000187683
0.000231668
0.000280689
0.000326106
0.000361213
0.000384424
0.000396445
1.41718e-05
4.65202e-05
8.5747e-05
0.000100142
0.000101555
9.6692e-05
8.95789e-05
8.24816e-05
7.61218e-05
7.04445e-05
6.5573e-05
6.14484e-05
5.80858e-05
5.60374e-05
5.59828e-05
5.8304e-05
6.25462e-05
6.70175e-05
6.93457e-05
6.83389e-05
6.52387e-05
6.26771e-05
6.28274e-05
6.66179e-05
7.40886e-05
8.50021e-05
9.89615e-05
0.00011527
0.000132858
0.000150408
0.000166675
0.000180772
0.00019231
0.000201354
0.00020828
0.000213597
0.000217811
0.000221344
0.000224499
0.000227464
0.000230329
0.000233105
0.000235745
0.000238163
0.000240247
0.000241868
0.000242866
0.00024323
0.000242861
0.00024167
0.00023959
0.000236581
0.000232613
0.000227656
0.00022165
0.000214492
0.000206036
0.000196144
0.000184774
0.000172105
0.000158627
0.000145112
0.000132447
0.000121396
0.000112452
0.000105799
0.000101359
9.89023e-05
9.8213e-05
9.91525e-05
0.000101623
0.000105467
0.000110438
0.000116253
0.00012247
0.000128968
0.000135121
0.000141166
0.00014716
0.000153141
0.000159129
0.000165121
0.000171097
0.000177026
0.000182867
0.000188576
0.000194107
0.000199415
0.000204453
0.000209177
0.000213542
0.000217501
0.000221008
0.000224014
0.000226467
0.000228309
0.000229478
0.000229904
0.000229509
0.000228207
0.000225905
0.000222499
0.000217868
0.000211847
0.00020418
0.000194448
0.000182026
0.000166296
0.000147457
0.000127582
0.000110906
0.000101262
9.85428e-05
9.85691e-05
9.77185e-05
9.9864e-05
0.000116432
0.000153325
0.000203301
0.000255111
0.000299205
0.000332276
0.000355312
0.000370109
0.000378619
0.000382365
0.000382385
0.000379349
0.00037371
0.000365874
0.00035657
0.000346055
0.000334544
0.000322358
0.000310115
0.000298024
0.000286815
0.000276797
0.000267675
0.000259127
0.000250866
0.000242739
0.00023478
0.00022717
0.000220139
0.000213896
0.000208577
0.000204249
0.000200929
0.000198608
0.000197266
0.000196872
0.000197352
0.00019854
0.000200098
0.000201361
0.000201573
0.000200219
0.000196978
0.00019171
0.000184401
0.00017512
0.00016404
0.000151515
0.000138186
0.000125045
0.000113432
0.000104981
0.000101425
0.000104209
0.000114194
0.000131754
0.000157467
0.000192676
0.000237363
0.000286797
0.000332852
0.0003689
0.00039273
0.000404629
1.39878e-05
5.39591e-05
9.06544e-05
0.000102193
0.000101441
9.52844e-05
8.76471e-05
8.05533e-05
7.45867e-05
6.96891e-05
6.58071e-05
6.28444e-05
6.10798e-05
6.08004e-05
6.20227e-05
6.42303e-05
6.63437e-05
6.71991e-05
6.63757e-05
6.46481e-05
6.36477e-05
6.50855e-05
7.00513e-05
7.8784e-05
9.09584e-05
0.000105988
0.000123002
0.000140819
0.000158141
0.000173849
0.000187244
0.000198097
0.000206565
0.000213054
0.000218066
0.000222092
0.00022554
0.000228707
0.000231782
0.000234854
0.000237943
0.000241009
0.000243975
0.000246734
0.000249159
0.000251052
0.00025241
0.000253119
0.000253048
0.000252085
0.000250158
0.000247245
0.000243372
0.000238602
0.000232994
0.000226547
0.000219153
0.000210567
0.000200464
0.000188587
0.000174959
0.000160074
0.000144916
0.000130708
0.000118519
0.000108939
0.000102006
9.73482e-05
9.46105e-05
9.36481e-05
9.44725e-05
9.70409e-05
0.00010111
0.000106475
0.000112355
0.000118503
0.00012477
0.000131095
0.000137462
0.000143873
0.000150322
0.000156793
0.000163259
0.000169682
0.000176022
0.000182235
0.00018828
0.000194114
0.000199694
0.000204977
0.000209916
0.00021446
0.000218556
0.000222142
0.000225149
0.000227503
0.000229122
0.000229915
0.000229786
0.000228631
0.000226342
0.000222814
0.000217938
0.00021158
0.00020353
0.000193423
0.000180715
0.000164937
0.000146512
0.000127796
0.000112854
0.000104725
0.000102583
0.000102376
0.00010182
0.000106266
0.000126604
0.000166838
0.000218652
0.000270269
0.000313289
0.000345242
0.00036713
0.000380531
0.00038775
0.000390299
0.000389086
0.000384674
0.00037744
0.000367839
0.000356629
0.000344081
0.000330415
0.000315779
0.000301251
0.000287277
0.000274296
0.00026256
0.000252032
0.000242485
0.000233627
0.000225251
0.00021731
0.000209902
0.000203193
0.000197333
0.000192417
0.000188476
0.000185497
0.000183452
0.000182321
0.000182095
0.000182763
0.00018428
0.000186501
0.000189075
0.000191372
0.000192823
0.000192941
0.000191357
0.000187804
0.000182093
0.000174139
0.000164039
0.000152193
0.000139404
0.000126935
0.000116478
0.000110006
0.000109467
0.000116564
0.000132458
0.000157673
0.000192657
0.000236697
0.000285316
0.000331064
0.000367497
0.000391862
0.000403904
1.37039e-05
5.92106e-05
9.43736e-05
0.00010343
0.000100819
9.37878e-05
8.61736e-05
7.9733e-05
7.48245e-05
7.11682e-05
6.83972e-05
6.65242e-05
6.56097e-05
6.55402e-05
6.59365e-05
6.62536e-05
6.60567e-05
6.5323e-05
6.45767e-05
6.48074e-05
6.72241e-05
7.28605e-05
8.21586e-05
9.48645e-05
0.000110267
0.000127387
0.000145031
0.000161972
0.000177208
0.000190132
0.000200569
0.000208687
0.000214878
0.000219628
0.00022342
0.000226661
0.000229656
0.0002326
0.000235597
0.000238681
0.000241831
0.000244991
0.000248077
0.000250979
0.000253565
0.000255707
0.000257356
0.000258368
0.000258583
0.000257855
0.000256071
0.000253173
0.000249187
0.00024422
0.000238445
0.000232034
0.000225062
0.000217405
0.000208708
0.000198458
0.000186232
0.000172009
0.000156425
0.000140716
0.000126316
0.000114356
0.000105299
9.87276e-05
9.41413e-05
9.13814e-05
9.05828e-05
9.18726e-05
9.49772e-05
9.95012e-05
0.000104987
0.000111068
0.000117499
0.000124143
0.000130931
0.000137822
0.00014478
0.000151763
0.000158724
0.000165616
0.000172393
0.000179012
0.000185436
0.00019163
0.00019756
0.000203191
0.000208484
0.000213391
0.000217859
0.00022182
0.000225196
0.000227898
0.000229824
0.000230862
0.000230888
0.000229773
0.000227389
0.000223617
0.000218351
0.000211493
0.000202898
0.000192306
0.000179333
0.000163735
0.00014613
0.000128848
0.000115469
0.00010833
0.000106312
0.000105863
0.000105862
0.000112234
0.0001347
0.000175924
0.000227571
0.000278239
0.000320365
0.000351707
0.00037309
0.000386306
0.000393364
0.000395638
0.000393934
0.000388716
0.000380281
0.000369185
0.000356309
0.000341993
0.000326549
0.000310372
0.000294104
0.000278347
0.000263665
0.000250437
0.000238754
0.000228446
0.000219212
0.000210778
0.000203007
0.000195914
0.000189595
0.000184152
0.00017964
0.000176055
0.000173357
0.00017149
0.000170417
0.000170127
0.000170639
0.000171979
0.000174145
0.000177046
0.000180282
0.000183351
0.000185721
0.000186885
0.000186398
0.000183875
0.000179024
0.000171708
0.000162061
0.000150621
0.000138434
0.000127071
0.000118519
0.000114967
0.000118745
0.000131892
0.000155289
0.000188801
0.000231068
0.000277851
0.000322423
0.00035862
0.000383269
0.000395572
1.3362e-05
6.42882e-05
9.79632e-05
0.00010488
0.000100762
9.31539e-05
8.57744e-05
8.00526e-05
7.60188e-05
7.30983e-05
7.09174e-05
6.93128e-05
6.81523e-05
6.72645e-05
6.64771e-05
6.57249e-05
6.51441e-05
6.51106e-05
6.62393e-05
6.93433e-05
7.52714e-05
8.45713e-05
9.71774e-05
0.000112418
0.000129265
0.000146546
0.000163113
0.00017804
0.000190752
0.000201054
0.000209074
0.000215157
0.000219762
0.000223361
0.000226369
0.00022911
0.0002318
0.000234561
0.000237443
0.000240436
0.000243495
0.000246551
0.000249517
0.000252292
0.000254765
0.000256877
0.000258556
0.000259664
0.000260036
0.000259501
0.000257894
0.000255095
0.000251064
0.000245876
0.000239737
0.000232939
0.000225757
0.000218291
0.000210339
0.000201364
0.000190686
0.000177857
0.000163102
0.000147516
0.000132465
0.00011927
0.000108906
0.00010099
9.49814e-05
9.0778e-05
8.8603e-05
8.86407e-05
9.0788e-05
9.46828e-05
9.98645e-05
0.000105918
0.000112543
0.000119547
0.000126811
0.000134247
0.00014178
0.000149334
0.000156836
0.000164222
0.000171434
0.000178429
0.000185173
0.00019164
0.000197807
0.000203652
0.000209148
0.000214259
0.000218937
0.000223117
0.000226719
0.000229641
0.000231765
0.000232955
0.000233063
0.000231929
0.000229396
0.000225326
0.000219615
0.000212198
0.000203012
0.000191938
0.000178782
0.000163519
0.000146873
0.000130956
0.000118777
0.000112152
0.000109959
0.000109281
0.000109829
0.000117423
0.000140412
0.000180714
0.000230762
0.00028003
0.000321455
0.000352696
0.000374312
0.000387964
0.000395403
0.000397873