/*--------------------------------*- C++ -*----------------------------------*\
  =========                 |
  \\      /  F ield         | OpenFOAM: The Open Source CFD Toolbox
   \\    /   O peration     | Website:  https://openfoam.org
    \\  /    A nd           | Version:  9
     \\/     M anipulation  |
\*---------------------------------------------------------------------------*/
FoamFile
{
    format      ascii;
    class       volVectorField;
    location    "0.09";
    object      U;
}
// * * * * * * * * * * * * * * * * * * * * * * * * * * * * * * * * * * * * * //

dimensions      [0 1 -1 0 0 0 0];

internalField   nonuniform List<vector> 
12225
(
(9.79395 -0.229475 0)
(9.39429 -0.19714 0)
(8.98225 -0.124219 0)
(8.56924 -0.0689657 0)
(8.17618 -0.031537 0)
(7.81019 -0.00721842 0)
(7.46879 0.0087283 0)
(7.14768 0.0197261 0)
(6.84257 0.0279129 0)
(6.54835 0.0346987 0)
(6.2587 0.0411442 0)
(5.96618 0.0481278 0)
(5.66234 0.0564497 0)
(5.33762 0.0668855 0)
(4.98119 0.080213 0)
(4.58166 0.0969645 0)
(4.12597 0.118737 0)
(3.61104 0.142246 0)
(10.0825 0.13767 0)
(10.2404 0.226413 0)
(10.325 0.217167 0)
(10.3494 0.194477 0)
(10.336 0.17586 0)
(10.2937 0.160981 0)
(10.2256 0.149601 0)
(10.1349 0.141763 0)
(10.0245 0.137297 0)
(9.89616 0.136162 0)
(9.75034 0.138634 0)
(9.58579 0.145303 0)
(9.39971 0.157062 0)
(9.18745 0.175137 0)
(8.942 0.201016 0)
(8.65342 0.236737 0)
(8.30785 0.283772 0)
(7.88948 0.347844 0)
(10.0076 0.0399954 0)
(10.0493 0.0415207 0)
(10.0929 0.0325022 0)
(10.1271 0.0407407 0)
(10.154 0.0562827 0)
(10.1743 0.0708947 0)
(10.1858 0.0837437 0)
(10.187 0.0959781 0)
(10.1774 0.108577 0)
(10.1569 0.122473 0)
(10.1253 0.138787 0)
(10.0817 0.158893 0)
(10.0253 0.18447 0)
(9.95454 0.217607 0)
(9.86738 0.2609 0)
(9.7604 0.317643 0)
(9.63068 0.391667 0)
(9.46791 0.488045 0)
(10.0028 0.0238842 0)
(10.0217 0.0507317 0)
(10.0423 0.0672764 0)
(10.0528 0.0825798 0)
(10.0567 0.0952768 0)
(10.0577 0.104674 0)
(10.0554 0.112693 0)
(10.0485 0.121234 0)
(10.0363 0.131405 0)
(10.0187 0.144051 0)
(9.99541 0.160175 0)
(9.96625 0.181067 0)
(9.93109 0.208365 0)
(9.89011 0.244169 0)
(9.84394 0.291189 0)
(9.79383 0.352769 0)
(9.74239 0.433079 0)
(9.69381 0.535911 0)
(10.0023 0.0213322 0)
(10.0166 0.0541242 0)
(10.031 0.0701 0)
(10.0355 0.0800816 0)
(10.0329 0.0894982 0)
(10.027 0.0987053 0)
(10.0177 0.108188 0)
(10.0039 0.118911 0)
(9.98511 0.131666 0)
(9.96123 0.147182 0)
(9.93216 0.16639 0)
(9.89777 0.190502 0)
(9.8581 0.221047 0)
(9.81363 0.259911 0)
(9.7654 0.309395 0)
(9.71564 0.372194 0)
(9.6674 0.450986 0)
(9.62829 0.548439 0)
(10.0017 0.0195402 0)
(10.0125 0.0503918 0)
(10.0236 0.0662195 0)
(10.0271 0.0771225 0)
(10.024 0.0887921 0)
(10.0171 0.100881 0)
(10.0066 0.113093 0)
(9.9916 0.126279 0)
(9.97167 0.141432 0)
(9.94682 0.159439 0)
(9.91704 0.181284 0)
(9.88228 0.208169 0)
(9.84269 0.241534 0)
(9.79874 0.283067 0)
(9.75145 0.334658 0)
(9.70272 0.398358 0)
(9.65505 0.475649 0)
(9.61366 0.568362 0)
(10.0012 0.0176156 0)
(10.009 0.0465109 0)
(10.0177 0.0642196 0)
(10.0208 0.077547 0)
(10.0179 0.0910718 0)
(10.0111 0.104795 0)
(10.0007 0.118641 0)
(9.98615 0.133574 0)
(9.96705 0.150701 0)
(9.94344 0.170954 0)
(9.91541 0.195289 0)
(9.88306 0.224837 0)
(9.84666 0.260911 0)
(9.80686 0.304977 0)
(9.76472 0.35857 0)
(9.722 0.423211 0)
(9.68093 0.499762 0)
(9.64501 0.589336 0)
(10.0008 0.0160403 0)
(10.0064 0.0436702 0)
(10.0131 0.0630478 0)
(10.0156 0.0781747 0)
(10.0129 0.0928895 0)
(10.0064 0.107905 0)
(9.9965 0.123416 0)
(9.9829 0.14029 0)
(9.96523 0.159562 0)
(9.94356 0.182136 0)
(9.91806 0.208924 0)
(9.88897 0.240966 0)
(9.85673 0.279428 0)
(9.82209 0.325548 0)
(9.7862 0.380533 0)
(9.75072 0.445462 0)
(9.71768 0.520786 0)
(9.68977 0.607061 0)
(10.0006 0.0148723 0)
(10.0046 0.0415116 0)
(10.0095 0.0619708 0)
(10.0114 0.0785756 0)
(10.0089 0.0945392 0)
(10.0028 0.110991 0)
(9.99371 0.12827 0)
(9.98129 0.147098 0)
(9.96532 0.168426 0)
(9.9459 0.193144 0)
(9.92328 0.222121 0)
(9.89783 0.256299 0)
(9.87009 0.296684 0)
(9.84089 0.344284 0)
(9.81139 0.4 0)
(9.78315 0.464544 0)
(9.75792 0.538054 0)
(9.7379 0.620759 0)
(10.0004 0.014015 0)
(10.0032 0.0398237 0)
(10.0067 0.0610147 0)
(10.0081 0.0789757 0)
(10.0059 0.0962602 0)
(10.0005 0.114131 0)
(9.99228 0.133052 0)
(9.98123 0.153672 0)
(9.96718 0.176867 0)
(9.95026 0.203492 0)
(9.9308 0.234358 0)
(9.90924 0.27029 0)
(9.88621 0.31212 0)
(9.86255 0.360632 0)
(9.83941 0.416458 0)
(9.81817 0.480014 0)
(9.80033 0.55121 0)
(9.78771 0.630092 0)
(10.0003 0.0133824 0)
(10.0022 0.0385275 0)
(10.0047 0.0602469 0)
(10.0057 0.0793987 0)
(10.0039 0.0979364 0)
(9.99924 0.117114 0)
(9.99216 0.137513 0)
(9.98269 0.159749 0)
(9.97077 0.18461 0)
(9.95659 0.212886 0)
(9.94051 0.245304 0)
(9.92304 0.282563 0)
(9.90484 0.325324 0)
(9.88675 0.374164 0)
(9.86983 0.429487 0)
(9.8553 0.491479 0)
(9.84443 0.55989 0)
(9.83871 0.634657 0)
(10.0002 0.0129407 0)
(10.0016 0.0376016 0)
(10.0035 0.0596777 0)
(10.0043 0.0797541 0)
(10.0028 0.0993382 0)
(9.99905 0.119608 0)
(9.99318 0.14122 0)
(9.98535 0.164764 0)
(9.97558 0.190941 0)
(9.96409 0.22046 0)
(9.95128 0.253962 0)
(9.93767 0.292027 0)
(9.92393 0.335169 0)
(9.91088 0.383793 0)
(9.89948 0.438124 0)
(9.89081 0.498191 0)
(9.88592 0.563636 0)
(9.88606 0.634343 0)
(10.0001 0.0126097 0)
(10.0012 0.036877 0)
(10.0027 0.0591746 0)
(10.0034 0.0799801 0)
(10.0025 0.100473 0)
(9.99964 0.121707 0)
(9.99513 0.144358 0)
(9.98906 0.168994 0)
(9.98156 0.196235 0)
(9.97286 0.226697 0)
(9.96338 0.260931 0)
(9.95364 0.299403 0)
(9.94431 0.342492 0)
(9.93615 0.390453 0)
(9.93 0.443369 0)
(9.92681 0.501145 0)
(9.92743 0.563352 0)
(9.93291 0.62984 0)
(10.0001 0.0123085 0)
(10.0009 0.0361856 0)
(10.0022 0.0586087 0)
(10.0031 0.0800282 0)
(10.0029 0.101359 0)
(10.0013 0.123497 0)
(9.99848 0.147096 0)
(9.9946 0.172688 0)
(9.98982 0.200805 0)
(9.98442 0.231958 0)
(9.9788 0.266584 0)
(9.97348 0.305029 0)
(9.96907 0.347532 0)
(9.96625 0.394205 0)
(9.96575 0.445003 0)
(9.96834 0.499729 0)
(9.9747 0.557904 0)
(9.98565 0.619362 0)
(10.0001 0.0120033 0)
(10.0009 0.0354444 0)
(10.0022 0.057844 0)
(10.0035 0.0796692 0)
(10.0043 0.101639 0)
(10.0043 0.124485 0)
(10.0036 0.148794 0)
(10.0024 0.175043 0)
(10.0008 0.203665 0)
(9.99923 0.235052 0)
(9.99797 0.269517 0)
(9.99753 0.307277 0)
(9.99843 0.34844 0)
(10.0013 0.392992 0)
(10.0066 0.440781 0)
(10.0151 0.49154 0)
(10.0271 0.544766 0)
(10.0434 0.600306 0)
(10.0001 0.0116322 0)
(10.001 0.0344723 0)
(10.0027 0.0565825 0)
(10.0048 0.0784628 0)
(10.0069 0.100697 0)
(10.0089 0.123861 0)
(10.0108 0.148442 0)
(10.0127 0.174832 0)
(10.0149 0.203359 0)
(10.0175 0.234289 0)
(10.021 0.267809 0)
(10.0258 0.304014 0)
(10.0322 0.342893 0)
(10.0408 0.384334 0)
(10.0519 0.428111 0)
(10.066 0.473918 0)
(10.0834 0.521263 0)
(10.1046 0.570023 0)
(10.0001 0.0110829 0)
(10.0013 0.0329403 0)
(10.0037 0.0542953 0)
(10.0071 0.0756708 0)
(10.011 0.0975524 0)
(10.0154 0.120378 0)
(10.0203 0.144514 0)
(10.0257 0.170247 0)
(10.0319 0.197795 0)
(10.0391 0.227304 0)
(10.0476 0.258845 0)
(10.0576 0.292406 0)
(10.0695 0.32789 0)
(10.0835 0.365117 0)
(10.1 0.403827 0)
(10.1193 0.443712 0)
(10.1413 0.48432 0)
(10.1665 0.525571 0)
(10.0002 0.0101672 0)
(10.0019 0.0303094 0)
(10.0053 0.0501401 0)
(10.0103 0.0701766 0)
(10.0165 0.0908148 0)
(10.0237 0.112363 0)
(10.0319 0.135059 0)
(10.0411 0.159079 0)
(10.0516 0.184529 0)
(10.0634 0.211451 0)
(10.0767 0.239818 0)
(10.0917 0.269541 0)
(10.1086 0.300467 0)
(10.1276 0.332387 0)
(10.1487 0.365042 0)
(10.1721 0.398151 0)
(10.1978 0.431334 0)
(10.226 0.464548 0)
(10.0003 0.00859936 0)
(10.0028 0.0257208 0)
(10.0076 0.0427285 0)
(10.0146 0.0601164 0)
(10.0234 0.0781843 0)
(10.0337 0.0971061 0)
(10.0454 0.116993 0)
(10.0585 0.137911 0)
(10.0732 0.159878 0)
(10.0893 0.182856 0)
(10.107 0.206754 0)
(10.1264 0.23144 0)
(10.1475 0.256741 0)
(10.1703 0.282454 0)
(10.1949 0.308348 0)
(10.2213 0.334194 0)
(10.2493 0.359694 0)
(10.2792 0.38483 0)
(10.0004 0.00666769 0)
(10.0036 0.0200177 0)
(10.0098 0.0334752 0)
(10.0188 0.0475253 0)
(10.0298 0.0623713 0)
(10.0426 0.0780563 0)
(10.0571 0.0945828 0)
(10.0731 0.11194 0)
(10.0906 0.130084 0)
(10.1098 0.148931 0)
(10.1304 0.168366 0)
(10.1525 0.188247 0)
(10.1761 0.208414 0)
(10.2012 0.228689 0)
(10.2277 0.248883 0)
(10.2555 0.268814 0)
(10.2845 0.28826 0)
(10.3147 0.307219 0)
(10.0005 0.0047297 0)
(10.0043 0.014342 0)
(10.0117 0.0244004 0)
(10.0223 0.0353811 0)
(10.0351 0.0473386 0)
(10.0497 0.0601654 0)
(10.066 0.0737917 0)
(10.0839 0.0881736 0)
(10.1033 0.103228 0)
(10.1243 0.118832 0)
(10.1467 0.134844 0)
(10.1704 0.151122 0)
(10.1955 0.167519 0)
(10.2217 0.183879 0)
(10.2492 0.200046 0)
(10.2776 0.215872 0)
(10.307 0.231185 0)
(10.3373 0.24598 0)
(10.0006 0.00269934 0)
(10.0051 0.00846569 0)
(10.0138 0.0152062 0)
(10.0259 0.023376 0)
(10.0402 0.0327577 0)
(10.0563 0.0430133 0)
(10.074 0.0540102 0)
(10.0934 0.0657126 0)
(10.1142 0.078039 0)
(10.1365 0.0908624 0)
(10.16 0.104039 0)
(10.1848 0.117421 0)
(10.2107 0.13086 0)
(10.2376 0.144211 0)
(10.2655 0.157333 0)
(10.2942 0.170102 0)
(10.3236 0.182377 0)
(10.3536 0.194157 0)
(10.0007 0.000585274 0)
(10.0061 0.00244211 0)
(10.0163 0.00602305 0)
(10.03 0.0116658 0)
(10.0456 0.0187929 0)
(10.0628 0.0268686 0)
(10.0816 0.0356871 0)
(10.1021 0.0451202 0)
(10.124 0.0550016 0)
(10.1473 0.0652358 0)
(10.1717 0.0757407 0)
(10.1973 0.0864076 0)
(10.2238 0.0971058 0)
(10.2512 0.107708 0)
(10.2794 0.118103 0)
(10.3083 0.128192 0)
(10.3377 0.137863 0)
(10.3676 0.147109 0)
(10.0008 -0.00169975 0)
(10.0074 -0.00381909 0)
(10.0193 -0.00287286 0)
(10.0347 0.000645927 0)
(10.0515 0.005519 0)
(10.0697 0.0114359 0)
(10.0894 0.018485 0)
(10.1106 0.0264774 0)
(10.1331 0.0349563 0)
(10.1569 0.0436968 0)
(10.1819 0.0526083 0)
(10.2079 0.0616119 0)
(10.2348 0.0705791 0)
(10.2625 0.0793792 0)
(10.2908 0.0879137 0)
(10.3197 0.0961127 0)
(10.3491 0.103907 0)
(10.3787 0.111301 0)
(10.0011 -0.00420386 0)
(10.0093 -0.0108376 0)
(10.0234 -0.0115731 0)
(10.04 -0.00873135 0)
(10.0577 -0.00557154 0)
(10.0769 -0.00242457 0)
(10.0978 0.00147048 0)
(10.12 0.00635602 0)
(10.1432 0.0121768 0)
(10.1675 0.0185379 0)
(10.1929 0.0252028 0)
(10.2192 0.032108 0)
(10.2463 0.0391335 0)
(10.2741 0.0461332 0)
(10.3025 0.0529891 0)
(10.3313 0.0595894 0)
(10.3605 0.0658567 0)
(10.3901 0.0718085 0)
(10.0013 -0.0064487 0)
(10.012 -0.0189027 0)
(10.0293 -0.0224399 0)
(10.047 -0.0189345 0)
(10.0643 -0.0137213 0)
(10.0834 -0.00865541 0)
(10.1047 -0.00363501 0)
(10.1278 0.00150003 0)
(10.1519 0.00686382 0)
(10.177 0.012346 0)
(10.2031 0.0178016 0)
(10.2301 0.0230773 0)
(10.2578 0.0282111 0)
(10.2861 0.0332664 0)
(10.3149 0.0382224 0)
(10.344 0.0429678 0)
(10.3733 0.0474039 0)
(10.4028 0.0515722 0)
(10.001 -0.00793315 0)
(10.0137 -0.0226517 0)
(10.0358 -0.0343699 0)
(10.0576 -0.0421512 0)
(10.0774 -0.0454535 0)
(10.0981 -0.0446973 0)
(10.121 -0.0413328 0)
(10.1454 -0.0367188 0)
(10.1709 -0.0316665 0)
(10.1973 -0.0263409 0)
(10.2246 -0.0208973 0)
(10.2525 -0.0155522 0)
(10.2811 -0.0103438 0)
(10.3103 -0.00526389 0)
(10.3397 -0.000377129 0)
(10.3693 0.00434637 0)
(10.399 0.00886423 0)
(10.4288 0.0131385 0)
(10.0016 -0.017191 0)
(10.0198 -0.00705424 0)
(10.0492 0.0108542 0)
(10.0811 0.0141527 0)
(10.113 0.009244 0)
(10.1453 0.00417388 0)
(10.1776 0.000768465 0)
(10.2093 -0.0014585 0)
(10.2402 -0.00284475 0)
(10.2704 -0.00341498 0)
(10.3 -0.00323836 0)
(10.3291 -0.00241822 0)
(10.3578 -0.00115689 0)
(10.386 0.000347433 0)
(10.4139 0.00195535 0)
(10.4414 0.00363336 0)
(10.4685 0.0053054 0)
(10.4952 0.00677306 0)
(10.042 -0.0982315 0)
(10.1412 -0.172992 0)
(10.2121 -0.168273 0)
(10.2576 -0.149494 0)
(10.2917 -0.1333 0)
(10.3186 -0.118756 0)
(10.3381 -0.105408 0)
(10.3511 -0.0936197 0)
(10.3594 -0.0833147 0)
(10.3644 -0.0741515 0)
(10.3672 -0.0658604 0)
(10.3688 -0.0582914 0)
(10.3697 -0.0514073 0)
(10.3704 -0.045182 0)
(10.3714 -0.0395461 0)
(10.3727 -0.0345638 0)
(10.3746 -0.0302441 0)
(10.3775 -0.0269727 0)
(9.89431 0.17523 0)
(9.6991 0.157051 0)
(9.49278 0.106916 0)
(9.28351 0.0692076 0)
(9.08791 0.0432411 0)
(8.91252 0.0262843 0)
(8.75686 0.015471 0)
(8.61948 0.00849623 0)
(8.49931 0.00398013 0)
(8.39521 0.00114976 0)
(8.30581 -0.00049043 0)
(8.22971 -0.00129863 0)
(8.16553 -0.00155274 0)
(8.11189 -0.001452 0)
(8.06744 -0.00112658 0)
(8.03094 -0.000734099 0)
(8.0007 -0.000376419 0)
(7.97638 -0.000445612 0)
(-0.348133 0.368322 -5.26369e-20)
(-0.690923 0.0870488 5.04167e-20)
(-0.462325 -0.33678 0)
(0.188987 -0.878822 0)
(1.01673 -1.17947 0)
(1.92023 -1.23118 -2.94055e-20)
(2.80623 -1.1176 0)
(3.57701 -0.917045 0)
(4.17235 -0.676536 0)
(4.56621 -0.418941 0)
(4.77683 -0.148544 3.16191e-20)
(4.77527 0.132684 0)
(4.54973 0.409829 0)
(4.12388 0.653871 0)
(3.52698 0.827135 0)
(2.80161 0.891426 3.48446e-20)
(2.01382 0.817405 0)
(1.25759 0.595506 0)
(0.632661 0.259757 0)
(0.235051 -0.0835314 0)
(0.0752596 -0.342589 0)
(0.088115 -0.459353 0)
(0.273279 -0.539033 0)
(0.569729 -0.608163 4.79149e-20)
(0.902812 -0.592531 -4.41476e-20)
(1.1871 -0.490512 4.21581e-20)
(1.3688 -0.377155 4.14414e-20)
(1.42083 -0.368639 0)
(1.3369 -0.43431 0)
(1.13118 -0.39427 -4.34037e-20)
(0.733913 -0.106075 -4.71512e-20)
(0.0664932 0.300617 0)
(-0.796171 0.602994 0)
(-1.76367 0.80952 -3.38425e-20)
(-2.78249 0.932724 0)
(-3.80773 0.983661 0)
(-4.80143 0.976062 2.94499e-20)
(-5.73456 0.924561 0)
(-6.587 0.842987 3.09422e-20)
(-7.34647 0.743307 6.39903e-20)
(-8.00709 0.635136 0)
(-8.56772 0.525752 0)
(-9.03051 0.420311 0)
(-9.4 0.322286 0)
(-9.68215 0.234126 0)
(-9.88356 0.157465 7.20071e-20)
(-10.0116 0.0931841 7.20233e-20)
(-10.0735 0.041686 7.1631e-20)
(-10.0762 0.00248281 0)
(-10.0399 -0.0270856 -6.91403e-20)
(-9.96835 -0.051001 0)
(-9.86719 -0.0710311 6.50277e-20)
(-9.74031 -0.088193 6.24345e-20)
(-9.59089 -0.103103 0)
(-9.42145 -0.116225 0)
(-9.23402 -0.127979 0)
(-9.03004 -0.138777 4.9081e-20)
(-8.81043 -0.149039 0)
(-8.57548 -0.159184 0)
(-8.32488 -0.169611 0)
(-8.05774 -0.180674 0)
(-7.77263 -0.192642 0)
(-7.46775 -0.205662 0)
(-7.14116 -0.219721 0)
(-6.79104 -0.234612 0)
(-6.41606 -0.249927 -1.79055e-21)
(-6.0157 -0.265069 0)
(-5.5906 -0.279294 0)
(-5.14279 -0.291795 -2.19751e-20)
(-4.67568 -0.301793 -3.09995e-20)
(-4.19401 -0.308654 0)
(-3.70345 -0.311967 5.05618e-20)
(-3.21028 -0.311596 -6.10103e-20)
(-2.72087 -0.307652 0)
(-2.24118 -0.300429 8.29879e-20)
(-1.77629 -0.290355 0)
(-1.33032 -0.277968 0)
(-0.906578 -0.263726 -1.17975e-19)
(-0.507388 -0.247567 0)
(-0.133472 -0.228628 1.38038e-19)
(0.217067 -0.209223 0)
(0.545864 -0.19057 -1.29149e-19)
(0.851413 -0.17344 -1.23038e-19)
(1.13418 -0.157841 -1.17563e-19)
(1.39593 -0.143738 -2.25263e-19)
(1.6384 -0.131088 2.16336e-19)
(1.8633 -0.119817 0)
(2.07233 -0.109843 0)
(2.26721 -0.10108 0)
(2.44956 -0.0934402 1.87785e-19)
(2.62096 -0.0868403 1.82025e-19)
(2.7829 -0.081194 -1.76693e-19)
(2.93674 -0.0763749 0)
(3.08359 -0.071901 1.67176e-19)
(3.22372 -0.0657363 1.63028e-19)
(3.35459 -0.0518782 1.59484e-19)
(3.46706 -0.0196906 0)
(3.53893 0.0360581 0)
(3.54105 0.0990048 0)
(3.48167 0.148406 1.53945e-19)
(3.37533 0.171579 0)
(3.2386 0.166255 0)
(3.0887 0.137724 -1.56459e-19)
(2.94051 0.0949454 0)
(2.80566 0.0474078 0)
(2.69241 0.00331692 -1.5987e-19)
(2.60535 -0.0313104 0)
(2.54566 -0.0532774 0)
(2.51284 -0.063168 1.61596e-19)
(2.50747 -0.0658056 1.61029e-19)
(2.53811 -0.0672199 0)
(2.61563 -0.0687329 -1.58019e-19)
(2.74186 -0.0653925 0)
(2.89517 -0.051586 1.5452e-19)
(3.02475 -0.0344566 0)
(3.06289 -0.0286502 1.52075e-19)
(2.9346 -0.00219293 1.50668e-19)
(2.49255 0.119513 0)
(1.59313 0.350161 0)
(0.274592 0.555828 0)
(-1.18518 0.615936 0)
(-2.56399 0.575694 0)
(-3.7765 0.490166 0)
(-4.78491 0.391765 0)
(-5.58695 0.296429 -3.32051e-20)
(-6.19563 0.210279 4.64939e-20)
(-6.62788 0.134881 0)
(-6.89861 0.0707788 0)
(-7.02301 0.0172786 0)
(-7.01721 -0.0278274 0)
(-6.91298 -0.0661645 1.15036e-19)
(-6.7107 -0.102675 0)
(-6.41313 -0.13842 -7.72044e-20)
(-6.02155 -0.173546 4.87313e-20)
(-5.53746 -0.207806 0)
(-4.9636 -0.240645 0)
(-4.30509 -0.271177 0)
(-3.57056 -0.29808 1.29506e-19)
(-2.77282 -0.319481 1.89564e-19)
(-1.92857 -0.333191 0)
(-1.0557 -0.337221 3.26246e-19)
(-0.17102 -0.328709 3.73025e-19)
(0.709423 -0.310478 -3.73408e-19)
(1.56651 -0.288495 0)
(2.38117 -0.264089 0)
(3.14031 -0.237705 -3.17191e-19)
(3.83489 -0.209748 0)
(4.45768 -0.179938 0)
(5.00155 -0.149642 0)
(5.46205 -0.124226 0)
(5.84554 -0.0956238 2.22523e-19)
(6.12587 -0.0259011 2.11792e-19)
(6.16044 0.0903983 0)
(5.90941 0.216159 1.98236e-19)
(5.39822 0.304941 0)
(4.69364 0.32457 0)
(3.90364 0.272435 1.98099e-19)
(3.14641 0.176966 0)
(2.51154 0.0767349 2.0094e-19)
(2.04373 -0.00407192 0)
(1.74796 -0.0593305 0)
(1.60154 -0.0900384 2.13626e-19)
(1.5642 -0.0950935 0)
(1.58786 -0.0750998 2.21658e-19)
(1.63518 -0.0431129 0)
(1.67935 -0.02239 0)
(1.69608 -0.0169458 0)
(1.71884 -0.0154037 -2.25927e-19)
(1.78075 -0.0175863 0)
(1.87794 -0.0119598 2.2645e-19)
(1.94124 0.0069434 0)
(1.88429 0.0356664 0)
(1.65189 0.074904 0)
(1.21722 0.120841 0)
(0.615308 0.15562 0)
(-0.0570665 0.158899 0)
(-0.695679 0.13937 0)
(-1.23672 0.106289 -2.55263e-19)
(-1.62926 0.0590942 0)
(-1.85985 -0.0277237 0)
(-0.200961 1.00651 1.60838e-19)
(0.274975 0.358713 -1.44379e-19)
(1.15962 -1.25022 0)
(2.08874 -2.45711 5.88843e-20)
(2.92225 -2.9469 0)
(3.61465 -2.88311 1.98943e-20)
(4.16574 -2.51108 -5.73906e-20)
(4.58709 -2.00915 -6.12344e-20)
(4.89153 -1.47194 0)
(5.09836 -0.936995 -6.9056e-20)
(5.20827 -0.411592 -2.91783e-20)
(5.2557 0.112611 0)
(5.24134 0.636307 0)
(5.13074 1.14036 0)
(4.89006 1.5849 0)
(4.49796 1.90972 -2.50998e-20)
(3.9575 2.04522 0)
(3.31091 1.93889 5.88374e-20)
(2.64024 1.5958 0)
(2.05485 1.09171 0)
(1.62912 0.5497 -7.52326e-20)
(1.32626 0.0288689 0)
(1.26658 -0.481194 7.65296e-20)
(1.32376 -0.80182 -3.84012e-20)
(1.28529 -0.781438 4.01753e-20)
(1.0656 -0.538112 -4.30271e-20)
(0.620888 -0.0743458 -4.75763e-20)
(-0.173793 0.500781 0)
(-1.23014 1.05235 0)
(-2.39697 1.56142 2.73023e-20)
(-3.59434 1.99536 -2.65807e-20)
(-4.7614 2.30645 0)
(-5.85013 2.47052 0)
(-6.83001 2.50438 1.67985e-20)
(-7.68263 2.43079 0)
(-8.3993 2.27699 0)
(-8.98115 2.07016 -1.91741e-20)
(-9.4374 1.83426 0)
(-9.78264 1.58835 3.07426e-20)
(-10.0341 1.34618 -5.04417e-20)
(-10.2093 1.11656 0)
(-10.3248 0.904327 0)
(-10.3947 0.71146 -1.34074e-19)
(-10.4303 0.538088 -1.38531e-19)
(-10.4405 0.383449 -1.41778e-19)
(-10.4318 0.24665 7.54059e-20)
(-10.4082 0.126993 -6.91341e-20)
(-10.3715 0.0240153 -2.12415e-19)
(-10.3224 -0.0632563 1.40668e-19)
(-10.2471 -0.136772 6.67131e-20)
(-10.1473 -0.199578 0)
(-10.0235 -0.253588 -6.26414e-20)
(-9.87758 -0.30024 6.26879e-20)
(-9.71153 -0.340701 0)
(-9.52741 -0.376048 0)
(-9.32697 -0.407374 0)
(-9.11151 -0.435818 -4.69971e-20)
(-8.88186 -0.462572 0)
(-8.63823 -0.488846 7.99435e-20)
(-8.38021 -0.515814 0)
(-8.10673 -0.54452 6.21092e-20)
(-7.81616 -0.575775 0)
(-7.5064 -0.61003 -4.20959e-20)
(-7.17512 -0.647254 0)
(-6.8201 -0.686845 1.9289e-20)
(-6.43957 -0.727575 -4.96614e-21)
(-6.03266 -0.767634 0)
(-5.5998 -0.804764 2.1453e-20)
(-5.14292 -0.836499 2.01536e-20)
(-4.66565 -0.860485 2.82772e-20)
(-4.17304 -0.874823 0)
(-3.6713 -0.878357 4.26695e-20)
(-3.16719 -0.870835 5.48221e-20)
(-2.66746 -0.852873 0)
(-2.17833 -0.825754 -7.39406e-20)
(-1.70508 -0.791196 1.65291e-19)
(-1.25177 -0.751158 0)
(-0.821041 -0.70755 1.04128e-19)
(-0.413946 -0.661867 0)
(-0.0323528 -0.615271 -3.57438e-19)
(0.323406 -0.568061 0)
(0.655776 -0.522713 3.37073e-19)
(0.964267 -0.48033 1.0879e-19)
(1.25009 -0.441117 -1.03726e-19)
(1.51498 -0.405183 -2.00638e-19)
(1.7606 -0.372547 1.94288e-19)
(1.98858 -0.343143 0)
(2.20054 -0.316855 0)
(2.39803 -0.293539 0)
(2.58253 -0.273027 -5.21411e-19)
(2.75546 -0.255121 -1.69652e-19)
(2.91809 -0.239557 1.65328e-19)
(3.07151 -0.225939 0)
(3.21653 -0.213551 1.56478e-19)
(3.35382 -0.200851 -1.54105e-19)
(3.48522 -0.184377 -1.5097e-19)
(3.61674 -0.158033 0)
(3.76358 -0.116947 0)
(3.94425 -0.0654471 0)
(4.14214 -0.0110594 -1.37897e-19)
(4.3374 0.0415878 0)
(4.50979 0.0897372 2.62568e-19)
(4.64176 0.130203 3.86281e-19)
(4.72056 0.159903 -2.53914e-19)
(4.73574 0.176564 0)
(4.6822 0.178899 -1.2658e-19)
(4.56369 0.166728 0)
(4.39489 0.140868 -2.60604e-19)
(4.20125 0.101694 1.33227e-19)
(4.01617 0.0472413 1.35924e-19)
(3.87258 -0.0239004 0)
(3.8002 -0.104257 4.13609e-19)
(3.81221 -0.170687 -2.75384e-19)
(3.87822 -0.181992 -1.38574e-19)
(3.8999 -0.0967654 0)
(3.66483 0.133615 -1.40495e-19)
(2.83276 0.570999 -4.34117e-19)
(1.26604 1.1567 0)
(-0.625043 1.58742 -2.22803e-19)
(-2.32335 1.70055 -1.50926e-19)
(-3.67454 1.58917 -9.30383e-20)
(-4.6785 1.36355 0)
(-5.39613 1.10836 0)
(-5.89762 0.866789 0)
(-6.2435 0.653719 -4.12123e-20)
(-6.47767 0.469609 -4.40794e-20)
(-6.6285 0.309775 0)
(-6.71331 0.169629 -1.27732e-19)
(-6.73829 0.0455189 -1.32224e-19)
(-6.69896 -0.0667046 0)
(-6.56802 -0.169631 -1.12556e-19)
(-6.34676 -0.268056 -2.03707e-19)
(-6.03427 -0.363491 7.44411e-20)
(-5.63069 -0.45612 5.80424e-20)
(-5.13692 -0.545275 0)
(-4.55521 -0.629565 0)
(-3.8901 -0.706895 0)
(-3.14952 -0.774457 -1.19274e-19)
(-2.34555 -0.828781 1.59733e-19)
(-1.49407 -0.86612 4.47652e-19)
(-0.612351 -0.882964 -2.85927e-19)
(0.282368 -0.874193 3.01086e-19)
(1.1712 -0.843336 3.10787e-19)
(2.03537 -0.798718 0)
(2.85778 -0.743514 0)
(3.62643 -0.68026 -2.71243e-19)
(4.33264 -0.611376 0)
(4.97038 -0.538419 0)
(5.53668 -0.462241 4.58109e-19)
(6.027 -0.383704 0)
(6.42458 -0.29729 2.01062e-19)
(6.74156 -0.182352 -1.94797e-19)
(7.08317 -0.0291224 0)
(7.42005 0.154525 1.66924e-19)
(7.64695 0.343079 0)
(7.67671 0.498494 0)
(7.47801 0.585067 -1.47374e-19)
(7.08162 0.589288 2.84655e-19)
(6.55537 0.523458 -1.42537e-19)
(5.97101 0.4155 0)
(5.37896 0.296308 0)
(4.80416 0.188696 1.61289e-19)
(4.26413 0.103903 0)
(3.77575 0.0469382 1.81527e-19)
(3.35174 0.0142135 0)
(2.99815 0.00493348 0)
(2.74079 -0.000175406 0)
(2.5832 -0.0272285 2.07836e-19)
(2.53065 -0.066072 0)
(2.56699 -0.0747251 -2.10491e-19)
(2.61511 -0.0138317 0)
(2.50264 0.114921 0)
(2.0691 0.276429 4.06141e-19)
(1.33651 0.419066 -3.95974e-19)
(0.506481 0.482529 0)
(-0.218697 0.457186 0)
(-0.784374 0.387125 0)
(-1.20595 0.307374 7.14883e-19)
(-1.48544 0.220579 0)
(-1.63837 0.0786071 -3.73606e-19)
(0.118089 0.524625 5.07945e-21)
(1.09036 -1.85782 1.41828e-19)
(2.13918 -3.78007 0)
(2.94377 -4.47572 -1.04124e-19)
(3.41924 -4.29431 0)
(3.65924 -3.6953 0)
(3.78146 -2.96993 -1.48287e-20)
(3.8549 -2.25282 6.52264e-20)
(3.90781 -1.58608 8.61432e-20)
(3.95082 -0.967885 7.85379e-20)
(3.98226 -0.380967 0)
(4.00032 0.193363 0)
(4.005 0.773516 -9.28389e-20)
(3.99096 1.36969 -1.7385e-19)
(3.9425 1.96211 1.60334e-19)
(3.82691 2.48492 0)
(3.60727 2.83336 1.33199e-19)
(3.26669 2.90015 -5.53439e-20)
(2.82535 2.62564 0)
(2.32891 2.05474 1.18365e-19)
(1.84638 1.35985 6.71715e-20)
(1.54622 0.577691 -1.37126e-19)
(1.33525 -0.224137 -7.76133e-20)
(0.824922 -0.429276 0)
(-0.0891374 0.315293 1.62006e-19)
(-1.25482 1.22023 1.29888e-19)
(-2.47713 2.01238 0)
(-3.72279 2.69796 9.16772e-20)
(-4.91489 3.23242 0)
(-5.99499 3.6001 8.02024e-20)
(-6.91848 3.80142 3.28885e-20)
(-7.66257 3.84371 0)
(-8.23185 3.74156 0)
(-8.64792 3.52233 0)
(-8.94129 3.22055 0)
(-9.14583 2.87122 0)
(-9.29329 2.50478 0)
(-9.4095 2.14442 1.17494e-19)
(-9.51225 1.80536 -1.78262e-19)
(-9.61108 1.49564 0)
(-9.70855 1.21783 0)
(-9.80233 0.970894 0)
(-9.88737 0.751898 -1.08957e-20)
(-9.95784 0.557199 1.4006e-19)
(-10.0082 0.383073 2.95168e-19)
(-10.0339 0.226262 -2.98282e-19)
(-10.0321 0.0840733 -1.53202e-19)
(-10.0019 -0.0454534 1.44091e-19)
(-9.94446 -0.163633 6.0539e-21)
(-9.8618 -0.270463 1.43025e-19)
(-9.75641 -0.365379 0)
(-9.63032 -0.448873 1.32692e-19)
(-9.48548 -0.521834 3.90016e-21)
(-9.3238 -0.585433 0)
(-9.14702 -0.641057 0)
(-8.95668 -0.690297 -1.06025e-19)
(-8.75393 -0.734944 0)
(-8.53943 -0.77695 0)
(-8.31325 -0.818365 8.50702e-20)
(-8.07475 -0.861225 1.47114e-19)
(-7.82253 -0.907395 -6.1278e-20)
(-7.55442 -0.958366 0)
(-7.26763 -1.01503 4.12579e-20)
(-6.95891 -1.07742 0)
(-6.62501 -1.14457 2.79074e-20)
(-6.26307 -1.21434 6.41983e-21)
(-5.87126 -1.28349 3.44895e-21)
(-5.44929 -1.34793 1.06164e-20)
(-4.99887 -1.40311 0)
(-4.52387 -1.44467 -9.19206e-20)
(-4.03016 -1.46908 0)
(-3.52508 -1.47421 -2.4201e-19)
(-3.01669 -1.45957 -1.93696e-19)
(-2.51295 -1.42633 -2.29576e-19)
(-2.02098 -1.377 2.66094e-19)
(-1.5466 -1.31491 -4.57613e-19)
(-1.09405 -1.24376 0)
(-0.665958 -1.1672 0)
(-0.263593 -1.08848 4.13952e-19)
(0.11243 -1.01038 6.39681e-19)
(0.462505 -0.933428 0)
(0.787853 -0.860141 -2.02726e-19)
(1.08904 -0.79139 0)
(1.36763 -0.727538 5.7116e-19)
(1.62532 -0.668793 2.8547e-21)
(1.86379 -0.615195 -2.60016e-21)
(2.08465 -0.566644 -3.50403e-19)
(2.28945 -0.522955 0)
(2.47962 -0.483893 3.33276e-19)
(2.65653 -0.44919 1.85629e-21)
(2.82146 -0.418534 0)
(2.97562 -0.391529 0)
(3.12018 -0.367608 0)
(3.2563 -0.345874 -2.9968e-19)
(3.38528 -0.325009 0)
(3.50892 -0.303594 0)
(3.6299 -0.280971 0)
(3.7521 -0.256701 0)
(3.88129 -0.227843 0)
(4.02275 -0.193226 -2.68703e-19)
(4.17882 -0.1532 0)
(4.35045 -0.107368 -2.59788e-19)
(4.53225 -0.0541492 -2.54009e-19)
(4.70932 0.00800737 2.49236e-19)
(4.85991 0.077866 0)
(4.9604 0.149096 2.4044e-19)
(4.99189 0.210786 0)
(4.94685 0.250177 2.40385e-19)
(4.83282 0.255149 -2.43994e-19)
(4.67313 0.215 -7.49969e-19)
(4.50523 0.122422 0)
(4.36754 -0.010951 -7.88439e-19)
(4.2661 -0.123654 -2.68817e-19)
(4.12907 -0.100051 0)
(3.75882 0.20198 -5.51355e-19)
(2.86582 0.871327 -5.52372e-19)
(1.28661 1.79666 7.94925e-19)
(-0.557929 2.53338 0)
(-2.05273 2.77743 1.772e-19)
(-3.10394 2.63399 1.31883e-19)
(-3.81967 2.28013 2.0913e-19)
(-4.33569 1.86315 0)
(-4.7534 1.47 0)
(-5.11918 1.13182 0)
(-5.44142 0.848482 -9.7478e-20)
(-5.71132 0.60842 0)
(-5.91605 0.398853 0)
(-6.0449 0.209433 1.29619e-19)
(-6.09134 0.0329846 1.33819e-19)
(-6.05192 -0.135503 0)
(-5.92578 -0.299064 0)
(-5.7127 -0.45785 2.02034e-19)
(-5.41177 -0.612426 0)
(-5.02246 -0.762515 -1.023e-19)
(-4.54493 -0.906714 -5.3218e-20)
(-3.98071 -1.04246 0)
(-3.33358 -1.16599 0)
(-2.61074 -1.27244 -1.96616e-19)
(-1.8237 -1.35645 -1.69223e-20)
(-0.987899 -1.41293 -1.68689e-20)
(-0.120924 -1.43697 0)
(0.758325 -1.42457 -1.0349e-18)
(1.63004 -1.38092 0)
(2.47529 -1.31264 0)
(3.27837 -1.22514 0)
(4.0279 -1.12362 4.94683e-19)
(4.71597 -1.01249 0)
(5.33725 -0.894996 -8.83536e-19)
(5.88811 -0.772729 -4.24278e-19)
(6.3663 -0.644291 0)
(6.77002 -0.507741 -3.80906e-19)
(7.09485 -0.36561 0)
(7.34531 -0.212378 0)
(7.56158 -0.032744 -9.90188e-19)
(7.79068 0.176449 6.09264e-19)
(8.02556 0.391512 0)
(8.20563 0.570657 5.32731e-19)
(8.26039 0.677986 -2.57636e-19)
(8.15013 0.702901 0)
(7.87511 0.661752 0)
(7.46161 0.585456 0)
(6.9463 0.503189 -8.0844e-19)
(6.36783 0.431121 0)
(5.75924 0.370867 -3.05178e-19)
(5.1499 0.318999 0)
(4.57307 0.266006 0)
(4.06284 0.19839 0)
(3.64245 0.106043 0)
(3.32298 0.00215904 0)
(3.10884 -0.0484532 0)
(2.94808 0.0386205 -8.12334e-19)
(2.67918 0.274543 0)
(2.14404 0.563915 -3.7896e-19)
(1.40714 0.770545 1.0856e-18)
(0.696367 0.81303 0)
(0.123 0.725476 0)
(-0.342873 0.593848 -5.32273e-19)
(-0.72818 0.457206 -4.60951e-19)
(-1.02844 0.314712 3.91314e-19)
(-1.23947 0.134917 3.65671e-19)
(0.536644 -1.4439 -2.8942e-19)
(1.48663 -4.52123 -1.89237e-19)
(2.21512 -5.49186 -1.26425e-19)
(2.55309 -5.14745 -8.03522e-20)
(2.60852 -4.36568 0)
(2.56561 -3.54414 1.73566e-19)
(2.52038 -2.7949 -1.07324e-19)
(2.49471 -2.12758 0)
(2.48653 -1.52145 -1.04932e-19)
(2.49004 -0.949324 0)
(2.49628 -0.38586 2.6262e-19)
(2.50586 0.188622 0)
(2.50918 0.787277 1.15351e-19)
(2.49015 1.41997 2.13347e-19)
(2.44701 2.07935 -1.93887e-19)
(2.3714 2.71247 0)
(2.2377 3.20731 -1.54712e-19)
(2.01867 3.42921 0)
(1.70813 3.30035 0)
(1.34915 2.81261 -1.29365e-19)
(1.05983 1.89505 0)
(0.749939 0.830738 -2.07592e-21)
(-0.119736 0.845173 0)
(-1.43288 1.73894 0)
(-2.79374 2.70703 4.69363e-21)
(-4.09604 3.53515 -7.61315e-20)
(-5.25754 4.16724 -7.87804e-20)
(-6.2416 4.59851 -6.63465e-20)
(-7.02601 4.82161 0)
(-7.61217 4.85462 -1.50746e-19)
(-8.01845 4.73083 0)
(-8.27798 4.48698 -9.44794e-20)
(-8.43281 4.15977 0)
(-8.52546 3.78527 0)
(-8.59268 3.39436 1.15844e-19)
(-8.66038 3.00923 0)
(-8.74198 2.64259 -1.303e-19)
(-8.84016 2.29934 1.75157e-20)
(-8.95016 1.97937 2.70158e-19)
(-9.06352 1.68034 -2.98396e-19)
(-9.171 1.39959 0)
(-9.26445 1.13517 0)
(-9.33768 0.886117 -1.75809e-19)
(-9.38659 0.652358 0)
(-9.40898 0.434442 -1.56921e-19)
(-9.40421 0.232977 1.58922e-19)
(-9.37292 0.0481466 1.59061e-19)
(-9.31651 -0.120226 0)
(-9.23676 -0.272348 -1.52649e-19)
(-9.13618 -0.408871 -1.48301e-19)
(-9.0173 -0.530245 2.98753e-19)
(-8.88272 -0.637159 -1.37613e-19)
(-8.73498 -0.730629 -1.3138e-19)
(-8.5764 -0.812019 0)
(-8.40895 -0.88304 0)
(-8.23415 -0.945747 1.09766e-19)
(-8.05301 -1.00253 0)
(-7.86588 -1.05608 0)
(-7.67243 -1.10936 -1.69303e-19)
(-7.4715 -1.16541 -1.51161e-19)
(-7.261 -1.22714 0)
(-7.03785 -1.29702 0)
(-6.79803 -1.37669 0)
(-6.53673 -1.46652 0)
(-6.24884 -1.56528 -4.69068e-20)
(-5.92949 -1.66985 3.51305e-20)
(-5.57488 -1.77526 -3.42849e-21)
(-5.18319 -1.87498 -4.83968e-20)
(-4.75526 -1.96162 0)
(-4.29503 -2.028 1.2449e-20)
(-3.80936 -2.06827 0)
(-3.30732 -2.07892 1.54497e-19)
(-2.79904 -2.05928 9.74739e-21)
(-2.29446 -2.0114 2.22921e-19)
(-1.80229 -1.93948 -2.58198e-19)
(-1.32938 -1.84895 7.54966e-21)
(-0.880546 -1.74568 0)
(-0.458444 -1.63529 -3.59667e-19)
(-0.0637891 -1.52214 -3.89755e-19)
(0.303138 -1.40954 -7.74492e-19)
(0.643587 -1.30028 0)
(0.958444 -1.19662 3.6908e-19)
(1.24912 -1.09963 0)
(1.51743 -1.00981 -7.1008e-19)
(1.76521 -0.927345 3.48719e-19)
(1.99419 -0.85217 -3.40734e-19)
(2.206 -0.784038 3.33014e-19)
(2.40213 -0.72261 6.45936e-19)
(2.58394 -0.667502 -3.18488e-19)
(2.75266 -0.618309 3.11718e-19)
(2.90944 -0.574614 0)
(3.05535 -0.535961 -5.94511e-19)
(3.19146 -0.501809 0)
(3.31894 -0.471446 -5.72606e-19)
(3.43923 -0.443895 5.62596e-19)
(3.55426 -0.4179 5.53175e-19)
(3.66648 -0.392105 -5.44272e-19)
(3.77861 -0.365197 -5.35799e-19)
(3.89373 -0.335951 0)
(4.01463 -0.304718 -2.58401e-19)
(4.14262 -0.272326 0)
(4.27726 -0.237323 0)
(4.41722 -0.194067 -4.98459e-19)
(4.56083 -0.134066 0)
(4.70417 -0.0504799 0)
(4.83465 0.0552724 -4.77533e-19)
(4.93054 0.170222 0)
(4.96863 0.2724 0)
(4.93474 0.335365 0)