/*--------------------------------*- C++ -*----------------------------------*\
  =========                 |
  \\      /  F ield         | OpenFOAM: The Open Source CFD Toolbox
   \\    /   O peration     | Website:  https://openfoam.org
    \\  /    A nd           | Version:  9
     \\/     M anipulation  |
\*---------------------------------------------------------------------------*/
FoamFile
{
    format      ascii;
    class       volVectorField;
    location    "0.1";
    object      U;
}
// * * * * * * * * * * * * * * * * * * * * * * * * * * * * * * * * * * * * * //

dimensions      [0 1 -1 0 0 0 0];

internalField   nonuniform List<vector> 
12225
(
(9.62909 0.0840753 0)
(9.3824 0.0630475 0)
(9.07426 0.0386175 0)
(8.84631 0.0285706 0)
(8.65046 0.0365457 0)
(8.38476 0.0577275 0)
(8.04921 0.0765588 0)
(7.71306 0.081264 0)
(7.42284 0.0750875 0)
(7.17364 0.0698453 0)
(6.93129 0.0703358 0)
(6.67645 0.0726362 0)
(6.41554 0.0707754 0)
(6.16223 0.0644818 0)
(5.95011 0.0541459 0)
(5.75862 0.0487516 0)
(5.55816 0.0539913 0)
(5.39529 0.0676433 0)
(9.86001 0.0386998 0)
(9.88632 0.0617796 0)
(9.94517 0.0726522 0)
(10.0158 0.066174 0)
(10.0878 0.0702941 0)
(10.1126 0.087746 0)
(10.0746 0.0981703 0)
(9.99975 0.0904472 0)
(9.91822 0.0753988 0)
(9.84673 0.069116 0)
(9.78951 0.0768731 0)
(9.74213 0.0891205 0)
(9.70162 0.0982015 0)
(9.66147 0.0954448 0)
(9.62572 0.0865629 0)
(9.58575 0.0892395 0)
(9.53153 0.0997837 0)
(9.45866 0.135462 0)
(10.1206 0.111799 0)
(9.93689 0.062707 0)
(9.88049 0.0168169 0)
(9.91371 -0.0039599 0)
(9.99494 0.0127086 0)
(10.0928 0.0569789 0)
(10.1814 0.101457 0)
(10.2331 0.12406 0)
(10.2341 0.122756 0)
(10.1984 0.110969 0)
(10.159 0.10249 0)
(10.1389 0.0996145 0)
(10.1403 0.0988337 0)
(10.1511 0.0961464 0)
(10.1556 0.0922321 0)
(10.1465 0.0971375 0)
(10.1271 0.117686 0)
(10.1028 0.163786 0)
(9.85667 0.149603 0)
(9.96938 0.0953003 0)
(9.99277 0.0665616 0)
(9.91732 0.040259 0)
(9.8455 0.0250977 0)
(9.83708 0.0325118 0)
(9.89108 0.0544959 0)
(9.96526 0.0751573 0)
(10.0163 0.087728 0)
(10.0314 0.0956663 0)
(10.0251 0.101952 0)
(10.0176 0.103487 0)
(10.0171 0.0989254 0)
(10.0234 0.0903847 0)
(10.0265 0.0839283 0)
(10.0256 0.0919637 0)
(10.0145 0.118057 0)
(10.0056 0.163814 0)
(9.98109 0.00570476 0)
(10.0607 0.0430017 0)
(10.0457 0.0511437 0)
(10.0396 0.0421075 0)
(10.0669 0.0345136 0)
(10.0594 0.0453346 0)
(10.0109 0.0687064 0)
(9.95607 0.0906334 0)
(9.91401 0.102418 0)
(9.88814 0.10398 0)
(9.87833 0.0996097 0)
(9.8825 0.0934615 0)
(9.89311 0.088628 0)
(9.90224 0.0883446 0)
(9.90087 0.0949449 0)
(9.88856 0.113121 0)
(9.86623 0.143829 0)
(9.84561 0.188053 0)
(9.92492 0.131 0)
(9.88662 0.0589242 0)
(9.8854 0.048464 0)
(9.94628 0.0326012 0)
(10.0216 0.0231591 0)
(10.0588 0.0443436 0)
(10.0592 0.0772786 0)
(10.0364 0.100404 0)
(9.99601 0.109735 0)
(9.94873 0.111092 0)
(9.91258 0.109671 0)
(9.89977 0.106075 0)
(9.90944 0.0999418 0)
(9.93095 0.0945156 0)
(9.95121 0.0946982 0)
(9.96043 0.106807 0)
(9.95687 0.133941 0)
(9.94029 0.173858 0)
(10.0159 0.0675829 0)
(9.98379 0.072106 0)
(9.93915 0.0510078 0)
(9.94732 0.00635137 0)
(9.96528 -0.00404212 0)
(9.97097 0.0326911 0)
(9.97326 0.0863051 0)
(9.97671 0.129051 0)
(9.97792 0.146517 0)
(9.98008 0.138763 0)
(9.99177 0.114695 0)
(10.0142 0.0864218 0)
(10.0406 0.0654513 0)
(10.0599 0.060497 0)
(10.0639 0.0749314 0)
(10.0501 0.107661 0)
(10.0213 0.154432 0)
(9.98597 0.205982 0)
(9.98213 0.0404157 0)
(9.99687 0.0716218 0)
(10.0764 0.0306405 0)
(10.1246 0.0185947 0)
(10.115 0.0234497 0)
(10.0837 0.0397013 0)
(10.0772 0.0624633 0)
(10.097 0.0833175 0)
(10.1143 0.0959135 0)
(10.1101 0.0990538 0)
(10.0871 0.0955541 0)
(10.0566 0.0901991 0)
(10.0282 0.0875708 0)
(10.0042 0.0928426 0)
(9.98521 0.109132 0)
(9.96842 0.137672 0)
(9.95607 0.17561 0)
(9.94695 0.217941 0)
(10.021 0.0061627 0)
(10.0006 0.0436648 0)
(9.81478 0.0127418 0)
(9.75941 0.00141382 0)
(9.83577 0.0101898 0)
(9.94722 0.0415017 0)
(10.0391 0.087604 0)
(10.0926 0.130815 0)
(10.103 0.157472 0)
(10.0818 0.160268 0)
(10.0489 0.141422 0)
(10.0202 0.111846 0)
(10.0011 0.0858437 0)
(9.99114 0.0757608 0)
(9.99004 0.0873849 0)
(9.99439 0.117994 0)
(10.006 0.161124 0)
(10.0187 0.206817 0)
(9.7819 -0.0239471 0)
(9.71239 0.111875 0)
(9.71824 0.104072 0)
(9.79049 0.0175331 0)
(9.84512 -0.0429134 0)
(9.84631 -0.0498073 0)
(9.84401 -0.015232 0)
(9.88284 0.0368251 0)
(9.95817 0.0845823 0)
(10.0437 0.114671 0)
(10.1154 0.12454 0)
(10.159 0.120571 0)
(10.1713 0.112704 0)
(10.1594 0.109203 0)
(10.1369 0.116553 0)
(10.1162 0.136042 0)
(10.1045 0.166226 0)
(10.1048 0.202737 0)
(9.86216 0.0419985 0)
(9.94463 0.0331253 0)
(10.0169 -0.0229117 0)
(10.0994 -0.0497267 0)
(10.15 -0.0146618 0)
(10.1161 0.0427178 0)
(10.0268 0.0807123 0)
(9.94832 0.0933998 0)
(9.91602 0.0912795 0)
(9.9281 0.0844846 0)
(9.96527 0.0782422 0)
(10.0056 0.0753246 0)
(10.0321 0.0780319 0)
(10.0405 0.0877454 0)
(10.0351 0.105285 0)
(10.0281 0.129944 0)
(10.0249 0.1593 0)
(10.0341 0.191525 0)
(10.1268 -0.0556302 0)
(10.1692 0.0344546 0)
(10.1906 0.0251579 0)
(10.1154 -0.0262185 0)
(10.0244 -0.034956 0)
(9.96636 0.00879361 0)
(9.96786 0.0583381 0)
(10.0236 0.0824253 0)
(10.0952 0.082851 0)
(10.1435 0.0757875 0)
(10.1527 0.0738541 0)
(10.13 0.0817784 0)
(10.096 0.0971556 0)
(10.0677 0.115665 0)
(10.0553 0.13464 0)
(10.0559 0.153289 0)
(10.0671 0.172665 0)
(10.0767 0.193882 0)
(10.1099 -0.00856909 0)
(10.1677 -0.0126728 0)
(10.2687 -0.00561302 0)
(10.2727 0.027163 0)
(10.2088 0.0575685 0)
(10.1198 0.0686204 0)
(10.0444 0.0575611 0)
(9.99858 0.0410305 0)
(9.96911 0.0415991 0)
(9.94129 0.0634971 0)
(9.91435 0.091519 0)
(9.8951 0.109124 0)
(9.89259 0.111538 0)
(9.90868 0.104831 0)
(9.94529 0.101177 0)
(9.99412 0.108672 0)
(10.0516 0.130363 0)
(10.1067 0.165254 0)
(10.1217 -0.0766225 0)
(10.0943 -0.0849903 0)
(9.99824 -0.0365989 0)
(9.9221 -0.00445228 0)
(9.94992 0.0413923 0)
(10.0403 0.0892024 0)
(10.1082 0.121442 0)
(10.1065 0.129269 0)
(10.049 0.119231 0)
(9.98531 0.106232 0)
(9.95421 0.0986433 0)
(9.9636 0.0941053 0)
(9.99651 0.0888552 0)
(10.0337 0.0815888 0)
(10.0595 0.0753155 0)
(10.0778 0.075615 0)
(10.0868 0.0845132 0)
(10.1063 0.106985 0)
(10.1515 -0.146309 0)
(10.1317 0.0787743 0)
(10.1287 0.150513 0)
(10.0905 0.0832004 0)
(10.0617 -0.00865039 0)
(10.035 -0.0442239 0)
(10.0118 0.0018837 0)
(9.99394 0.0835208 0)
(9.97988 0.139611 0)
(9.96822 0.144988 0)
(9.95693 0.112984 0)
(9.94409 0.0722265 0)
(9.92902 0.045415 0)
(9.91407 0.0412043 0)
(9.89952 0.0549247 0)
(9.89049 0.0781452 0)
(9.88512 0.101635 0)
(9.89076 0.122669 0)
(9.74334 0.0495835 0)
(9.85411 -0.0402178 0)
(9.97922 -0.0740026 0)
(10.0925 -0.0204032 0)
(10.1024 0.0744225 0)
(10.027 0.150025 0)
(9.95628 0.174385 0)
(9.94558 0.157851 0)
(9.99386 0.12954 0)
(10.0677 0.113665 0)
(10.1309 0.116803 0)
(10.1608 0.129104 0)
(10.1563 0.136386 0)
(10.1277 0.131846 0)
(10.0901 0.11698 0)
(10.0545 0.100904 0)
(10.0292 0.0892669 0)
(10.016 0.0892358 0)
(10.1008 0.0335005 0)
(10.02 -0.0371572 0)
(9.9536 -0.0390947 0)
(9.89911 0.0192632 0)
(9.87783 0.0737844 0)
(9.87173 0.091077 0)
(9.86975 0.069686 0)
(9.86729 0.0299566 0)
(9.86755 -0.00426974 0)
(9.88043 -0.0180864 0)
(9.91039 -0.00711059 0)
(9.95424 0.025597 0)
(10.0036 0.0703968 0)
(10.0488 0.115975 0)
(10.081 0.149505 0)
(10.0982 0.165209 0)
(10.1022 0.161614 0)
(10.0992 0.142395 0)
(10.1668 0.0974792 0)
(10.116 0.202818 0)
(10.0761 0.0992846 0)
(10.0748 0.0356204 0)
(10.0955 0.0687358 0)
(10.1015 0.142367 0)
(10.092 0.189294 0)
(10.0747 0.181466 0)
(10.0532 0.132943 0)
(10.0254 0.072644 0)
(9.99013 0.0224624 0)
(9.95305 -0.0068842 0)
(9.92218 -0.0139638 0)
(9.90426 -0.00247212 0)
(9.90268 0.0212489 0)
(9.91651 0.05016 0)
(9.94297 0.0777686 0)
(9.97664 0.0996043 0)
(9.92119 0.101403 0)
(9.9305 0.0618415 0)
(9.94981 -0.0154624 0)
(9.96884 -0.00289783 0)
(9.97767 0.0602746 0)
(10.007 0.107415 0)
(10.0664 0.106774 0)
(10.1336 0.0794694 0)
(10.1862 0.0654831 0)
(10.2144 0.0852177 0)
(10.217 0.130189 0)
(10.2004 0.175162 0)
(10.1751 0.197783 0)
(10.1507 0.1879 0)
(10.134 0.147837 0)
(10.1277 0.0897491 0)
(10.1316 0.0248301 0)
(10.1409 -0.0324692 0)
(9.99822 0.0830476 0)
(10.0435 0.102939 0)
(10.0365 0.0382719 0)
(10.0093 0.0067944 0)
(9.94571 -0.00579709 0)
(9.90142 -0.0175835 0)
(9.90055 -0.0284455 0)
(9.93331 -0.0303729 0)
(9.98424 -0.016748 0)
(10.0406 0.012195 0)
(10.0947 0.0476367 0)
(10.1433 0.0774132 0)
(10.1851 0.0919411 0)
(10.2181 0.0884546 0)
(10.2405 0.0731027 0)
(10.2515 0.0545805 0)
(10.2509 0.0421612 0)
(10.2389 0.040813 0)
(9.94561 0.0231283 0)
(10.0788 -0.0696375 0)
(10.1503 0.00911583 0)
(10.1623 0.129446 0)
(10.118 0.182346 0)
(10.0805 0.144366 0)
(10.0651 0.0474779 0)
(10.0582 -0.046983 0)
(10.0498 -0.0917633 0)
(10.0384 -0.0791888 0)
(10.0272 -0.0311359 0)
(10.0214 0.0239222 0)
(10.0238 0.0646335 0)
(10.0331 0.0821815 0)
(10.0451 0.0801882 0)
(10.0569 0.0682872 0)
(10.0662 0.0556309 0)
(10.074 0.0499985 0)
(9.80134 -0.0349209 0)
(9.76896 -0.169525 0)
(9.74882 -0.0650154 0)
(9.81236 0.0683115 0)
(9.93699 0.101203 0)
(10.0338 0.0553392 0)
(10.0528 -0.0029903 0)
(10.0183 -0.0269648 0)
(9.97677 -0.0112708 0)
(9.95832 0.0225926 0)
(9.9743 0.0517279 0)
(10.018 0.0651801 0)
(10.0704 0.0622512 0)
(10.1131 0.047999 0)
(10.1362 0.030798 0)
(10.1392 0.0175755 0)
(10.1271 0.01291 0)
(10.1072 0.0166406 0)
(10.0219 0.000247301 0)
(9.87643 -0.0743897 0)
(9.76111 -0.0800223 0)
(9.81878 -0.0474516 0)
(9.98084 -0.00333645 0)
(10.1085 0.0344472 0)
(10.1404 0.0523433 0)
(10.1136 0.0374158 0)
(10.0833 -0.00672794 0)
(10.0758 -0.0561175 0)
(10.0933 -0.083134 0)
(10.1267 -0.0771162 0)
(10.162 -0.0441967 0)
(10.1877 0.0014329 0)
(10.2012 0.0453411 0)
(10.2053 0.0789434 0)
(10.2068 0.0993049 0)
(10.208 0.105554 0)
(10.1125 -0.0629577 0)
(9.99764 0.0612197 0)
(9.92327 -0.0141084 0)
(9.82865 -0.111334 0)
(9.78535 -0.126659 0)
(9.81421 -0.0725395 0)
(9.89489 -0.00490208 0)
(9.9874 0.0285566 0)
(10.0502 0.0201268 0)
(10.0636 -0.00710056 0)
(10.0388 -0.0274658 0)
(10.0027 -0.0310595 0)
(9.97911 -0.020754 0)
(9.97934 -0.005989 0)
(10.0067 0.00673694 0)
(10.0552 0.0150455 0)
(10.1163 0.0191871 0)
(10.1806 0.0222119 0)
(9.99527 0.0582265 0)
(10.015 0.065983 0)
(10.0747 0.0127139 0)
(10.0791 0.0117422 0)
(10.0686 -0.0145487 0)
(10.0776 -0.0593103 0)
(10.0958 -0.0852816 0)
(10.0948 -0.0803069 0)
(10.057 -0.0569276 0)
(9.9906 -0.0310419 0)
(9.92198 -0.014061 0)
(9.8744 -0.00874765 0)
(9.85502 -0.0127481 0)
(9.85818 -0.0220881 0)
(9.87569 -0.0328153 0)
(9.90213 -0.0420639 0)
(9.93261 -0.0477887 0)
(9.96732 -0.0439002 0)
(10.0045 -0.0207923 0)
(9.92849 0.00402826 0)
(9.89992 -0.0357388 0)
(9.91135 -0.0787507 0)
(9.94659 -0.09495 0)
(9.97155 -0.0735354 0)
(9.96142 -0.0212079 0)
(9.93752 0.0387042 0)
(9.93122 0.0770177 0)
(9.95329 0.0794528 0)
(9.9972 0.0538136 0)
(10.0498 0.0181064 0)
(10.099 -0.0127308 0)
(10.1378 -0.0318502 0)
(10.1611 -0.0413298 0)
(10.1694 -0.0460115 0)
(10.165 -0.0504116 0)
(10.1523 -0.0553149 0)
(9.97542 0.0547765 0)
(9.93724 0.0659795 0)
(9.96496 0.0100364 0)
(9.97856 -0.0350946 0)
(9.97951 -0.0685698 0)
(9.98021 -0.0793313 0)
(9.9744 -0.066704 0)
(9.97376 -0.0503173 0)
(9.99431 -0.0455917 0)
(10.0381 -0.0528967 0)
(10.0972 -0.0630908 0)
(10.1628 -0.0687934 0)
(10.2278 -0.067718 0)
(10.2856 -0.0621461 0)
(10.3278 -0.0542594 0)
(10.349 -0.0456687 0)
(10.3463 -0.0368338 0)
(10.3203 -0.028797 0)
(9.79008 0.024619 0)
(9.95154 -0.0225278 0)
(10.004 -0.040651 0)
(10.0313 -0.0578482 0)
(10.0323 -0.0738705 0)
(10.0242 -0.0603268 0)
(10.0251 -0.0201863 0)
(10.0455 0.0173947 0)
(10.0786 0.0267555 0)
(10.1079 0.00309643 0)
(10.1231 -0.0395902 0)
(10.1267 -0.0804143 0)
(10.1286 -0.104408 0)
(10.137 -0.105995 0)
(10.1538 -0.0877209 0)
(10.1749 -0.057633 0)
(10.1958 -0.0239886 0)
(10.2128 0.000809072 0)
(10.0831 -0.00759437 0)
(10.0275 -0.0502243 0)
(10.0414 -0.0344991 0)
(10.1273 -0.0574614 0)
(10.1684 -0.0799241 0)
(10.1549 -0.0835187 0)
(10.1437 -0.0757132 0)
(10.1745 -0.0668825 0)
(10.2304 -0.062059 0)
(10.2647 -0.0607521 0)
(10.2459 -0.0612919 0)
(10.1804 -0.0638028 0)
(10.099 -0.0689916 0)
(10.032 -0.0751841 0)
(9.9965 -0.0778737 0)
(9.99372 -0.0740622 0)
(10.0175 -0.0630571 0)
(10.0571 -0.0499563 0)
(10.0246 -0.0270381 0)
(9.89271 -0.0209923 0)
(9.77813 -0.0548327 0)
(9.5508 -0.0837721 0)
(9.27205 -0.0761329 0)
(9.03836 -0.0509211 0)
(8.86192 -0.0329979 0)
(8.72265 -0.0255337 0)
(8.60686 -0.0202841 0)
(8.50959 -0.0137153 0)
(8.42434 -0.0109473 0)
(8.33775 -0.0182952 0)
(8.23267 -0.0356521 0)
(8.10012 -0.055376 0)
(7.94673 -0.0676695 0)
(7.7929 -0.0686562 0)
(7.65552 -0.0592514 0)
(7.55208 -0.0453362 0)
(-0.0545057 0.246674 -9.0774e-20)
(-0.19282 0.245132 9.00896e-20)
(-0.338432 0.167866 0)
(-0.422648 0.0612652 0)
(-0.333969 -0.118639 0)
(-0.10003 -0.303755 -8.74509e-20)
(0.262266 -0.41562 0)
(0.704576 -0.480843 0)
(1.16609 -0.507896 0)
(1.6321 -0.506162 0)
(2.09258 -0.485486 8.3837e-20)
(2.53413 -0.454455 0)
(2.95007 -0.420218 0)
(3.33925 -0.385945 0)
(3.70249 -0.352781 0)
(4.04083 -0.32051 8.08607e-20)
(4.35451 -0.288467 0)
(4.64314 -0.255942 0)
(4.90516 -0.221935 0)
(5.13827 -0.186139 0)
(5.34044 -0.147999 0)
(5.50728 -0.10753 0)
(5.63826 -0.0645017 0)
(5.727 -0.018594 7.63993e-20)
(5.77413 0.0313234 -7.57916e-20)
(5.7717 0.0876021 7.51598e-20)
(5.70991 0.153071 7.4507e-20)
(5.57985 0.232017 0)
(5.37065 0.327309 0)
(5.06637 0.440835 -7.24619e-20)
(4.64864 0.569364 -7.17701e-20)
(4.10123 0.706416 0)
(3.40384 0.839093 0)
(2.55312 0.858251 -6.98676e-20)
(1.68471 0.662015 0)
(0.925723 0.412099 0)
(0.296371 0.204457 6.83692e-20)
(-0.120345 -0.0318472 0)
(-0.388045 -0.153731 6.71603e-20)
(-0.495391 -0.143207 1.33011e-19)
(-0.533941 -0.129092 0)
(-0.572764 -0.0547969 0)
(-0.420797 0.0458334 0)
(-0.315832 0.108231 0)
(-0.243576 0.00250396 0)
(-0.0715865 -0.392536 1.2584e-19)
(0.251398 -0.597046 1.24659e-19)
(0.816049 -0.615094 1.23413e-19)
(1.34169 -0.432484 0)
(1.56504 -0.649511 -1.20887e-19)
(1.55262 -0.870882 0)
(1.44474 -0.55387 1.18923e-19)
(0.832757 0.28963 1.18005e-19)
(-0.298635 0.855262 0)
(-1.46624 0.924504 0)
(-2.5444 0.841993 0)
(-3.49579 0.740191 1.14006e-19)
(-4.34073 0.643171 0)
(-5.08228 0.552585 0)
(-5.73465 0.474436 0)
(-6.30911 0.409785 0)
(-6.81814 0.35625 0)
(-7.26968 0.311931 0)
(-7.67193 0.274384 0)
(-8.02989 0.242242 0)
(-8.34858 0.214104 -1.08675e-19)
(-8.63088 0.188871 0)
(-8.8794 0.165554 0)
(-9.09536 0.143542 1.06509e-19)
(-9.27988 0.122273 1.05695e-19)
(-9.43319 0.101262 0)
(-9.55536 0.0802075 -1.03916e-19)
(-9.64609 0.0591838 1.02951e-19)
(-9.70513 0.0385046 0)
(-9.7323 0.0183227 -1.00877e-19)
(-9.72737 -0.000852365 0)
(-9.69443 -0.0181539 0)
(-9.63299 -0.033885 9.74333e-20)
(-9.54537 -0.0474328 0)
(-9.43406 -0.0583972 -9.49804e-20)
(-9.30239 -0.0664876 0)
(-9.15433 -0.071615 9.24559e-20)
(-8.99424 -0.0740335 9.1181e-20)
(-8.82646 -0.0743864 8.99041e-20)
(-8.65474 -0.0736821 1.77258e-19)
(-8.48179 -0.0732146 -1.74715e-19)
(-8.30872 -0.0743298 0)
(-8.13486 -0.0781106 0)
(-7.95789 -0.0850842 0)
(-7.77431 -0.0950659 -1.64644e-19)
(-7.58019 -0.10723 -1.62141e-19)
(-7.37167 -0.120433 1.59635e-19)
(-7.14508 -0.133686 0)
(-6.89697 -0.146446 -1.54596e-19)
(-6.62423 -0.15864 -1.52059e-19)
(-6.32428 -0.170434 -1.49511e-19)
(-5.9949 -0.181967 0)
(-5.63376 -0.193271 0)
(-5.23873 -0.204354 0)
(-4.80948 -0.215152 -1.39369e-19)
(-4.34842 -0.225395 0)
(-3.85847 -0.234554 0)
(-3.34042 -0.24133 1.32221e-19)
(-2.798 -0.242362 0)
(-2.24846 -0.231641 0)
(-1.7153 -0.206743 1.25925e-19)
(-1.21428 -0.180506 0)
(-0.768777 -0.159979 0)
(-0.36158 -0.154199 -1.20658e-19)
(0.053102 -0.174524 -1.19028e-19)
(0.539711 -0.215547 0)
(1.15872 -0.27994 1.15669e-19)
(1.93596 -0.394861 0)
(2.86342 -0.549289 -1.12484e-19)
(4.01495 -0.471211 0)
(4.84893 0.0314345 -1.10333e-19)
(4.40186 0.422506 -1.09128e-19)
(3.39303 0.30354 0)
(2.88748 0.000838077 0)
(2.87611 -0.137645 0)
(2.98843 -0.113467 0)
(2.92604 -0.02601 0)
(2.62311 0.070798 0)
(2.15949 0.146224 0)
(1.62554 0.186524 -9.96299e-20)
(1.06434 0.207177 9.87503e-20)
(0.48042 0.22171 0)
(-0.137203 0.235599 0)
(-0.788967 0.24943 0)
(-1.48231 0.26597 0)
(-2.22626 0.285092 1.90626e-19)
(-3.02373 0.304172 0)
(-3.86906 0.319181 -1.89024e-19)
(-4.74556 0.325666 1.88499e-19)
(-5.62531 0.319822 0)
(-6.47063 0.298971 0)
(-7.23638 0.261829 0)
(-7.87415 0.208626 -1.8549e-19)
(-8.33743 0.140721 -1.83462e-19)
(-8.58376 0.0622549 0)
(-8.57653 -0.019928 -1.76499e-19)
(-8.31698 -0.102508 -1.71454e-19)
(-7.79901 -0.18131 1.65583e-19)
(-7.04965 -0.246965 0)
(-6.12006 -0.292347 0)
(-5.07818 -0.315437 1.46967e-19)
(-3.98846 -0.319767 0)
(-2.89795 -0.310304 0)
(-1.83685 -0.291127 0)
(-0.82934 -0.264826 0)
(0.0839858 -0.233973 -1.26785e-19)
(0.88499 -0.19985 -1.24278e-19)
(1.57699 -0.163674 0)
(2.15126 -0.128478 -1.20216e-19)
(2.61206 -0.0970045 0)
(2.97023 -0.0707546 0)
(3.24095 -0.0492339 -1.15188e-19)
(3.4394 -0.0332751 0)
(3.58196 -0.0233615 -1.11846e-19)
(3.68493 -0.0138134 0)
(3.75299 -0.00672187 0)
(3.79795 -0.0106314 -1.06515e-19)
(3.84537 -0.00963966 0)
(3.88158 -0.00127844 -1.02725e-19)
(3.90878 -0.0177266 0)
(3.99467 -0.0316209 0)
(4.10209 -0.0134567 0)
(4.1952 -0.0460012 9.44486e-20)
(4.43609 -0.0945286 0)
(4.77419 -0.0430148 -8.98146e-20)
(5.03059 -0.074869 0)
(5.4976 -0.210145 0)
(6.24399 -0.0837649 0)
(6.56033 0.0144256 0)
(6.86297 -0.263187 0)
(7.86766 -0.0840631 0)
(7.64432 0.525372 0)
(5.60877 0.46934 1.44287e-19)
(4.10428 0.0786379 0)
(3.31809 -0.0685427 0)
(0.0170556 0.258194 2.72327e-19)
(0.0308609 0.298167 -2.70406e-19)
(0.0470774 0.264258 0)
(0.262969 -0.0471692 1.77551e-19)
(0.619758 -0.530546 0)
(1.04421 -0.959551 8.71234e-20)
(1.46895 -1.24488 -1.72847e-19)
(1.87228 -1.39551 -1.7137e-19)
(2.24739 -1.44152 0)
(2.59567 -1.41691 -1.68676e-19)
(2.9206 -1.35299 -8.35445e-20)
(3.22567 -1.27207 0)
(3.51494 -1.18753 0)
(3.79247 -1.10551 0)
(4.06109 -1.02741 0)
(4.32144 -0.952068 -8.0736e-20)
(4.57252 -0.877219 0)
(4.81132 -0.800658 1.59649e-19)
(5.03427 -0.720448 0)
(5.23758 -0.635145 0)
(5.41615 -0.543981 -1.56459e-19)
(5.56832 -0.44649 0)
(5.68908 -0.342461 1.54237e-19)
(5.78112 -0.231396 -7.63787e-20)
(5.8409 -0.112437 7.5775e-20)
(5.87446 0.0161956 -7.51397e-20)
(5.88628 0.158035 -7.44637e-20)
(5.87453 0.319766 0)
(5.83638 0.506068 0)
(5.76411 0.725826 7.22906e-20)
(5.64961 0.978339 -7.20579e-20)
(5.47592 1.25834 0)
(5.22762 1.54759 0)
(4.87345 1.78999 6.93768e-20)
(4.40103 1.89447 0)
(3.77617 1.80533 0)
(3.01357 1.5293 -6.78355e-20)
(2.28508 1.12214 0)
(1.60152 0.767394 6.69307e-20)
(1.06739 0.380931 -1.32794e-19)
(0.614811 0.165576 0)
(0.403606 -0.0439234 0)
(0.331867 -0.472789 -2.585e-19)
(0.382505 -0.436755 -2.55949e-19)
(0.598536 -0.381157 -2.53485e-19)
(0.668427 -0.369476 1.25415e-19)
(1.22839 -0.728674 -1.24344e-19)
(1.24701 -1.188 -3.69985e-19)
(0.943491 -0.795809 2.44987e-19)
(0.222392 0.3914 1.21429e-19)
(-0.946998 1.07538 0)
(-2.01882 1.61658 -1.18899e-19)
(-2.93269 2.00271 1.17905e-19)
(-3.7527 2.11845 0)
(-4.45962 2.00229 0)
(-5.08397 1.81395 0)
(-5.64448 1.60867 -1.13355e-19)
(-6.14714 1.41168 0)
(-6.5997 1.23503 2.25335e-19)
(-7.00987 1.08254 0)
(-7.38224 0.952059 2.23198e-19)
(-7.72199 0.840031 0)
(-8.03125 0.742655 -2.21049e-19)
(-8.31306 0.656945 0)
(-8.56785 0.580331 2.1873e-19)
(-8.79699 0.510688 -1.08934e-19)
(-9.0003 0.44623 0)
(-9.17832 0.385546 -2.14723e-19)
(-9.3307 0.32761 -1.06438e-19)
(-9.45749 0.271595 -1.05641e-19)
(-9.55831 0.216888 0)
(-9.63317 0.163053 -1.04181e-19)
(-9.68191 0.109949 -1.02942e-19)
(-9.70473 0.0577582 0)
(-9.70189 0.0067094 1.00886e-19)
(-9.67413 -0.0428012 -1.9976e-19)
(-9.61804 -0.0898939 0)
(-9.53592 -0.134225 -9.74394e-20)
(-9.42845 -0.174756 0)
(-9.29769 -0.210412 2.8508e-19)
(-9.14628 -0.240118 0)
(-8.97759 -0.263023 -2.77473e-19)
(-8.79544 -0.278746 -9.11881e-20)
(-8.60397 -0.287555 8.99744e-20)
(-8.40719 -0.29047 1.77385e-19)
(-8.20873 -0.28924 -1.74837e-19)
(-8.01137 -0.286149 0)
(-7.81672 -0.283669 0)
(-7.62496 -0.284056 0)
(-7.43468 -0.289038 4.9418e-19)
(-7.24298 -0.299652 1.62183e-19)
(-7.04566 -0.31628 -1.5967e-19)
(-6.83739 -0.338886 0)
(-6.61197 -0.367252 -1.54803e-19)
(-6.36299 -0.40103 1.52064e-19)
(-6.08465 -0.43956 1.49504e-19)
(-5.77214 -0.481672 0)
(-5.42163 -0.525773 0)
(-5.03065 -0.570233 0)
(-4.59963 -0.613567 1.39329e-19)
(-4.13314 -0.654169 0)
(-3.63736 -0.689879 -2.69157e-19)
(-3.11537 -0.718038 -3.967e-19)
(-2.56819 -0.735698 2.60092e-19)
(-2.0037 -0.735269 0)
(-1.43116 -0.700694 1.2601e-19)
(-0.846491 -0.633773 0)
(-0.306281 -0.570374 2.44699e-19)
(0.158668 -0.55127 -1.20703e-19)
(0.586315 -0.60086 -1.1905e-19)
(1.04881 -0.720388 0)
(1.62056 -0.903562 -3.46853e-19)
(2.36077 -1.129 2.28104e-19)
(3.18835 -1.29979 1.12311e-19)
(3.9572 -1.10118 0)
(4.6749 -0.285284 1.10303e-19)
(4.85541 0.630203 3.27541e-19)
(4.34327 0.879643 0)
(3.7988 0.442518 2.13064e-19)
(3.4638 0.0411554 2.10562e-19)
(3.13844 0.0723576 2.08093e-19)
(2.63265 0.319099 0)
(1.96414 0.523366 0)
(1.2617 0.624371 0)
(0.57672 0.659457 -9.98055e-20)
(-0.0882733 0.669844 -9.87969e-20)
(-0.736998 0.679322 0)
(-1.37638 0.696318 -1.94297e-19)
(-2.02266 0.721975 -1.92808e-19)
(-2.68952 0.75596 0)
(-3.38486 0.794588 -1.90227e-19)
(-4.10971 0.830607 -3.7916e-19)
(-4.85741 0.854727 1.8866e-19)
(-5.61367 0.857472 1.88926e-19)
(-6.35718 0.830359 0)
(-7.06007 0.766578 0)
(-7.68845 0.661962 0)
(-8.2044 0.515508 1.85338e-19)
(-8.56959 0.329675 -1.84814e-19)
(-8.75144 0.111819 -3.62378e-19)
(-8.72322 -0.125506 1.76458e-19)
(-8.43775 -0.369614 -1.72645e-19)
(-7.89048 -0.604287 -1.65466e-19)
(-7.10087 -0.802543 0)
(-6.1258 -0.939463 0)
(-5.03918 -1.0086 1.47326e-19)
(-3.90934 -1.02093 0)
(-2.78348 -0.992433 0)
(-1.69027 -0.936026 -2.66152e-19)
(-0.652101 -0.858356 0)
(0.290316 -0.769362 -1.26887e-19)
(1.11965 -0.667706 1.24165e-19)
(1.84111 -0.560935 0)
(2.44608 -0.45632 -1.20235e-19)
(2.94076 -0.359808 0)
(3.33573 -0.27583 0)
(3.64429 -0.206869 1.15125e-19)
(3.88364 -0.151466 -2.27033e-19)
(4.06554 -0.108487 1.1179e-19)
(4.19772 -0.0781201 0)
(4.30013 -0.0542299 0)
(4.37848 -0.0376535 -1.06516e-19)
(4.42902 -0.0347475 0)
(4.48326 -0.0327683 -1.02723e-19)
(4.55612 -0.0382003 0)
(4.62827 -0.0680274 0)
(4.72411 -0.0900134 0)
(4.90078 -0.115852 -9.43864e-20)
(5.10865 -0.196601 0)
(5.33753 -0.257329 8.97475e-20)
(5.77812 -0.270635 0)
(6.26003 -0.378459 0)
(6.64397 -0.452784 -1.65219e-19)
(7.36005 -0.292986 1.60756e-19)
(8.01277 -0.281798 0)
(8.12633 -0.310594 0)
(8.70847 0.35004 0)
(9.02393 1.08444 -4.32694e-19)
(8.14434 1.03866 0)
(6.36853 0.529326 2.77399e-19)
(-0.00718581 0.206417 7.51179e-23)
(0.0374202 0.239439 3.60511e-19)
(0.43983 -0.306063 0)
(0.971573 -1.02386 -3.5397e-19)
(1.48257 -1.60591 0)
(1.89006 -1.9654 0)
(2.18096 -2.11037 -2.83033e-22)
(2.38792 -2.09933 1.70966e-19)
(2.54732 -1.9968 1.70071e-19)
(2.69036 -1.85726 1.6852e-19)
(2.83895 -1.71724 0)
(3.00639 -1.59484 0)
(3.1985 -1.49406 -1.65477e-19)
(3.41477 -1.41056 -3.28747e-19)
(3.64993 -1.33621 3.2658e-19)
(3.89587 -1.26231 0)
(4.14313 -1.18147 3.22359e-19)
(4.38235 -1.08889 -1.59736e-19)
(4.60472 -0.982312 0)
(4.80296 -0.861343 3.16151e-19)
(4.97101 -0.727984 1.56583e-19)
(5.10474 -0.585459 -3.11896e-19)
(5.20247 -0.43741 -1.54402e-19)
(5.26322 -0.287086 0)
(5.28805 -0.136842 3.05036e-19)
(5.28175 0.0162987 3.02556e-19)
(5.25402 0.176406 0)
(5.21548 0.350338 2.97141e-19)
(5.17887 0.550794 0)
(5.15288 0.790002 2.91451e-19)
(5.14284 1.07505 1.43723e-19)
(5.13981 1.40988 0)
(5.13363 1.77338 0)
(5.08837 2.13652 0)
(4.97064 2.42907 0)
(4.7246 2.57049 0)
(4.29957 2.51461 0)
(3.75148 2.25872 2.68811e-19)
(3.09152 1.85769 -3.99721e-19)
(2.48424 1.34944 0)
(1.8427 0.916279 0)
(1.4225 0.446669 0)
(1.03271 0.115716 3.30056e-22)
(0.683168 -0.293793 2.55815e-19)
(0.444761 -0.403545 5.06624e-19)
(0.470204 -1.11845 -5.017e-19)
(0.51258 -1.51053 -2.48625e-19)
(-0.491987 0.200871 2.47038e-19)
(-1.54107 1.21556 -3.7895e-22)
(-2.36932 1.85332 2.41476e-19)
(-3.21233 2.32956 0)
(-3.89128 2.6792 2.36907e-19)
(-4.42085 2.83824 4.9862e-22)
(-4.80856 2.81228 0)
(-5.12905 2.63907 0)
(-5.43123 2.40908 -2.29972e-19)
(-5.73939 2.16491 0)
(-6.05817 1.93481 0)
(-6.38657 1.72743 2.27194e-19)
(-6.71816 1.54551 4.50192e-19)
(-7.04388 1.38477 -2.23194e-19)
(-7.35863 1.24218 0)
(-7.6564 1.11367 2.21082e-19)
(-7.93583 0.996636 0)
(-8.19421 0.888411 2.19969e-19)
(-8.43133 0.786911 2.17533e-19)
(-8.64544 0.690326 -4.33492e-19)
(-8.83613 0.597163 -2.15832e-19)
(-9.00192 0.50629 0)
(-9.14192 0.416857 4.24322e-19)
(-9.2547 0.328388 0)
(-9.33936 0.240692 6.25368e-19)
(-9.3947 0.153747 4.13333e-19)
(-9.42002 0.0677747 4.09249e-19)
(-9.41527 -0.0163492 -4.04919e-19)
(-9.38052 -0.0980801 6.00196e-19)
(-9.31649 -0.176426 0)
(-9.22456 -0.249569 0)
(-9.1067 -0.315892 -3.85779e-19)
(-8.96564 -0.373638 -5.70859e-19)
(-8.80479 -0.421218 0)
(-8.62817 -0.457486 1.8506e-19)
(-8.44015 -0.482014 0)
(-8.2452 -0.495331 -5.39999e-19)
(-8.04751 -0.499047 1.72595e-22)
(-7.85068 -0.495798 -1.53067e-22)
(-7.65732 -0.488981 3.44752e-19)
(-7.46877 -0.482317 0)
(-7.28491 -0.479339 -3.34721e-19)
(-7.10406 -0.483001 1.80103e-22)
(-6.9231 -0.495524 0)
(-6.7376 -0.518444 0)
(-6.54203 -0.552764 0)
(-6.33004 -0.599035 3.09436e-19)
(-6.09502 -0.657164 0)
(-5.83075 -0.726014 0)
(-5.53199 -0.803044 0)
(-5.1947 -0.884391 0)
(-4.8165 -0.965584 0)
(-4.39751 -1.04227 2.79119e-19)
(-3.94077 -1.11052 0)
(-3.45074 -1.16677 2.69031e-19)
(-2.93189 -1.20818 2.64395e-19)
(-2.38936 -1.23467 -2.59952e-19)
(-1.82914 -1.24847 0)
(-1.25069 -1.24126 -2.51752e-19)
(-0.63618 -1.16966 0)
(0.0126516 -1.02888 -2.44503e-19)
(0.613596 -0.911419 2.4102e-19)
(1.11749 -0.903792 7.13351e-19)
(1.55602 -1.05754 0)
(2.01549 -1.36069 6.9404e-19)
(2.56858 -1.74045 2.2893e-19)
(3.23806 -1.94992 0)
(3.88726 -1.616 4.47098e-19)
(4.3319 -0.549967 4.43631e-19)
(4.38614 0.708517 -6.56768e-19)
(4.0314 1.1391 0)
(3.62501 0.708021 -2.12999e-19)
(3.15237 0.387798 -2.10539e-19)
(2.50687 0.556257 -6.24365e-19)
(1.78571 0.866908 0)
(1.11349 1.05696 0)
(0.511626 1.12353 0)
(-0.0499613 1.12952 -1.99947e-19)
(-0.58571 1.117 0)
(-1.1065 1.11225 0)
(-1.62674 1.12439 1.94114e-19)
(-2.16255 1.1564 1.9264e-19)
(-2.72782 1.20491 0)
(-3.33281 1.26177 0)
(-3.98308 1.3154 3.78904e-19)
(-4.67818 1.35241 0)
(-5.41046 1.35907 -3.76856e-19)
(-6.16303 1.32218 -3.77665e-19)
(-6.90714 1.2298 0)
(-7.60159 1.0729 0)
(-8.1957 0.846801 3.74094e-19)
(-8.63523 0.552836 -2.36812e-21)
(-8.86963 0.202133 -2.40698e-21)
(-8.85744 -0.188553 0)
(-8.56886 -0.602748 6.89852e-19)
(-7.99524 -1.00614 0)
(-7.16058 -1.35025 0)
(-6.13197 -1.58476 0)
(-4.99736 -1.69801 -2.93809e-19)
(-3.83002 -1.71316 0)
(-2.67386 -1.66071 5.49045e-19)
(-1.55248 -1.56288 2.65901e-19)
(-0.487195 -1.43122 0)
(0.480516 -1.28151 2.53335e-19)
(1.32952 -1.10579 0)
(2.05829 -0.92429 0)
(2.65738 -0.749835 7.20984e-19)
(3.13532 -0.592743 -4.73916e-19)
(3.50949 -0.458322 0)
(3.80027 -0.348225 -4.60819e-19)
(4.02579 -0.260716 2.2696e-19)
(4.20386 -0.191746 0)
(4.34682 -0.139072 0)
(4.45995 -0.100432 0)
(4.55679 -0.0766526 6.38964e-19)
(4.64897 -0.0682803 0)
(4.73575 -0.0672609 2.05336e-19)
(4.8317 -0.0866509 0)
(4.94856 -0.125783 0)
(5.0675 -0.156689 0)
(5.20878 -0.22311 0)
(5.41978 -0.324591 0)
(5.65097 -0.395554 0)
(5.9402 -0.499103 3.4966e-19)
(6.43558 -0.629542 0)
(6.94186 -0.666714 1.65119e-19)
(7.3824 -0.624701 -4.82306e-19)
(8.23091 -0.536857 0)
(8.66086 -0.394757 0)
(8.7344 0.0698726 2.9753e-19)
(9.49155 0.884514 2.88726e-19)
(9.85063 1.42113 -2.84115e-19)
(8.55399 1.31211 -2.7664e-19)
(-0.138598 0.151408 -5.453e-19)
(0.33728 -0.725401 -5.40352e-19)
(0.952482 -1.7261 -3.56773e-19)
(1.43438 -2.3075 -1.77039e-19)
(1.72724 -2.50862 0)
(1.85772 -2.45989 3.48309e-19)
(1.9038 -2.29178 -1.7328e-19)
(1.94112 -2.1086 0)
(2.02248 -1.97264 -1.70259e-19)
(2.16984 -1.90183 0)
(2.38147 -1.88264 3.36385e-19)
(2.64462 -1.89035 0)
(2.94437 -1.90195 1.65432e-19)
(3.26694 -1.9006 3.28539e-19)
(3.59953 -1.87514 -3.26276e-19)
(3.93009 -1.8183 0)
(4.24715 -1.72602 -3.21942e-19)
(4.53989 -1.5977 0)
(4.79855 -1.43539 0)
(5.01492 -1.24256 -3.15757e-19)
(5.18219 -1.02548 0)
(5.29615 -0.793234 -1.36107e-21)
(5.35565 -0.553867 0)
(5.36227 -0.316659 0)
(5.32143 -0.0903942 1.25251e-21)
(5.23846 0.117666 -3.02523e-19)
(5.11896 0.310609 -3.01036e-19)
(4.97657 0.495083 -2.97244e-19)
(4.82298 0.677907 0)
(4.67819 0.868573 -5.84367e-19)
(4.56993 1.09336 0)
(4.5152 1.3771 -2.86842e-19)
(4.52226 1.72289 0)
(4.55944 2.12345 0)
(4.58811 2.51749 2.77786e-19)
(4.55643 2.85166 0)
(4.40239 3.03898 -2.71732e-19)
(4.11232 2.98854 6.09763e-22)
(3.6492 2.71236 5.32116e-19)
(3.10022 2.31115 -5.27579e-19)
(2.52147 1.79526 0)
(1.97604 1.25526 0)
(1.46329 0.746646 -2.56685e-19)
(1.00762 0.327584 0)
(0.483345 0.0100382 -2.5308e-19)
(0.425315 -0.486782 2.50827e-19)
(-0.855305 0.644364 2.48341e-19)
(-1.83897 1.61796 0)
(-2.62446 2.27383 -2.43082e-19)
(-3.30168 2.78133 -2.40689e-19)
(-3.84558 3.11203 4.77373e-19)
(-4.22981 3.26134 -2.36504e-19)
(-4.51767 3.26551 -2.3467e-19)
(-4.75664 3.16281 0)
(-5.00126 2.98992 0)
(-5.27172 2.79076 2.29911e-19)
(-5.5683 2.57894 0)
(-5.88571 2.36985 0)
(-6.21058 2.16674 -4.52321e-19)
(-6.53438 1.97486 -4.50081e-19)
(-6.84701 1.79412 0)
(-7.14641 1.62604 0)
(-7.42801 1.46956 0)
(-7.69208 1.32371 0)
(-7.93639 1.18656 -4.38769e-19)
(-8.16123 1.05616 4.37706e-19)
(-8.36489 0.930439 4.33559e-19)
(-8.54671 0.807547 8.62808e-19)
(-8.70482 0.686008 0)
(-8.83797 0.564731 1.30275e-21)
(-8.94417 0.443132 0)
(-9.02185 0.321174 -4.17393e-19)
(-9.06926 0.199241 1.13385e-21)
(-9.08496 0.0778201 -4.0949e-19)
(-9.06869 -0.0416438 4.05138e-19)
(-9.02073 -0.158104 9.01498e-22)
(-8.94167 -0.269611 0)
(-8.83333 -0.373673 3.9166e-19)
(-8.6984 -0.467611 3.85947e-19)
(-8.54054 -0.548752 7.62285e-19)
(-8.36412 -0.614772 0)
(-8.17407 -0.664056 -3.70954e-19)
(-7.97553 -0.69607 0)
(-7.77359 -0.711639 7.20708e-19)
(-7.57283 -0.713088 -3.55076e-19)
(-7.37694 -0.704153 3.49969e-19)
(-7.18829 -0.68968 -3.44899e-19)
(-7.00756 -0.67508 -6.8012e-19)
(-6.83359 -0.665652 3.34859e-19)
(-6.66355 -0.665966 -3.29869e-19)
(-6.49326 -0.679503 0)
(-6.31766 -0.708601 6.40401e-19)
(-6.13115 -0.754672 0)
(-5.92778 -0.8183 6.20418e-19)
(-5.70146 -0.899049 -6.10296e-19)
(-5.44626 -0.995135 -6.00079e-19)
(-5.15692 -1.10314 5.89787e-19)
(-4.8296 -1.21809 5.79468e-19)
(-4.46277 -1.33427 0)