/*--------------------------------*- C++ -*----------------------------------*\
  =========                 |
  \\      /  F ield         | OpenFOAM: The Open Source CFD Toolbox
   \\    /   O peration     | Website:  https://openfoam.org
    \\  /    A nd           | Version:  9
     \\/     M anipulation  |
\*---------------------------------------------------------------------------*/
FoamFile
{
    format      ascii;
    class       volVectorField;
    location    "0.1";
    object      U_0;
}
// * * * * * * * * * * * * * * * * * * * * * * * * * * * * * * * * * * * * * //

dimensions      [0 1 -1 0 0 0 0];

internalField   nonuniform List<vector> 
12225
(
(9.64452 0.071153 0)
(9.42914 0.0606025 0)
(9.11956 0.0378748 0)
(8.89337 0.0286998 0)
(8.69448 0.0375987 0)
(8.42276 0.0591947 0)
(8.08333 0.0776182 0)
(7.74711 0.0815808 0)
(7.45861 0.0749954 0)
(7.21037 0.0698138 0)
(6.96751 0.0704466 0)
(6.71197 0.0726304 0)
(6.45149 0.0704502 0)
(6.20062 0.0638172 0)
(5.99266 0.0531447 0)
(5.80529 0.0475468 0)
(5.61264 0.0522098 0)
(5.46418 0.0638077 0)
(9.88105 0.0155858 0)
(9.93409 0.0626883 0)
(9.99253 0.0738763 0)
(10.063 0.0665656 0)
(10.1325 0.0713149 0)
(10.1522 0.0888749 0)
(10.1098 0.0982844 0)
(10.033 0.0895617 0)
(9.95177 0.0744973 0)
(9.88179 0.0689521 0)
(9.82629 0.0772773 0)
(9.78056 0.0893653 0)
(9.74179 0.0976494 0)
(9.70375 0.0937715 0)
(9.67075 0.0844237 0)
(9.63388 0.0865781 0)
(9.58384 0.095393 0)
(9.51703 0.125573 0)
(10.1329 0.117731 0)
(9.97707 0.0598229 0)
(9.92289 0.0154631 0)
(9.95919 -0.00327629 0)
(10.0414 0.0156074 0)
(10.1385 0.0607875 0)
(10.2244 0.104363 0)
(10.2718 0.125105 0)
(10.2688 0.122215 0)
(10.2315 0.10978 0)
(10.193 0.101306 0)
(10.1753 0.0984524 0)
(10.1792 0.0973956 0)
(10.1919 0.0940938 0)
(10.1976 0.0894631 0)
(10.1902 0.0933862 0)
(10.1733 0.11177 0)
(10.1514 0.151898 0)
(9.88663 0.175446 0)
(10.0189 0.0943595 0)
(10.0339 0.0665018 0)
(9.95299 0.0402948 0)
(9.88201 0.0258664 0)
(9.87712 0.0343297 0)
(9.9332 0.0567161 0)
(10.0064 0.076883 0)
(10.0548 0.0886966 0)
(10.0674 0.0959812 0)
(10.0603 0.101512 0)
(10.0536 0.102066 0)
(10.0545 0.0964919 0)
(10.0624 0.0870731 0)
(10.067 0.0800404 0)
(10.0675 0.0872694 0)
(10.0577 0.111117 0)
(10.0488 0.151662 0)
(10.0036 0.025888 0)
(10.1036 0.044791 0)
(10.0876 0.0529384 0)
(10.0816 0.0434227 0)
(10.1077 0.0361768 0)
(10.0958 0.0478521 0)
(10.044 0.071431 0)
(9.98836 0.0926054 0)
(9.94699 0.103149 0)
(9.92242 0.103474 0)
(9.91409 0.09816 0)
(9.91957 0.0913964 0)
(9.93112 0.0861817 0)
(9.94076 0.0855388 0)
(9.93964 0.0915587 0)
(9.92765 0.10853 0)
(9.90567 0.136794 0)
(9.88444 0.176545 0)
(9.93884 0.118441 0)
(9.92751 0.0550334 0)
(9.93051 0.0502538 0)
(9.99254 0.0343108 0)
(10.0653 0.0256539 0)
(10.0984 0.0480841 0)
(10.0953 0.0807003 0)
(10.07 0.10247 0)
(10.0282 0.110439 0)
(9.98095 0.110777 0)
(9.94644 0.108484 0)
(9.93607 0.103922 0)
(9.94803 0.096812 0)
(9.97101 0.0905348 0)
(9.99171 0.0899528 0)
(10.0006 0.101066 0)
(9.99582 0.126329 0)
(9.97708 0.163005 0)
(10.051 0.0572212 0)
(10.0257 0.0710598 0)
(9.98164 0.0518607 0)
(9.98942 0.00740849 0)
(10.0053 -0.000365966 0)
(10.0092 0.0383714 0)
(10.0104 0.0917745 0)
(10.0129 0.132496 0)
(10.0137 0.147194 0)
(10.0164 0.13689 0)
(10.0293 0.11105 0)
(10.0527 0.0820417 0)
(10.0794 0.0612604 0)
(10.0982 0.0569412 0)
(10.101 0.071784 0)
(10.0856 0.104095 0)
(10.0553 0.149089 0)
(10.0181 0.197498 0)
(10.0074 0.0426321 0)
(10.0474 0.0693707 0)
(10.1256 0.0325905 0)
(10.1673 0.0222635 0)
(10.1524 0.0274286 0)
(10.12 0.043739 0)
(10.1146 0.066012 0)
(10.1346 0.0857714 0)
(10.1505 0.0969541 0)
(10.1442 0.09869 0)
(10.1198 0.0940209 0)
(10.0891 0.0878293 0)
(10.0612 0.0846963 0)
(10.0379 0.089684 0)
(10.0195 0.105601 0)
(10.0031 0.133287 0)
(9.99076 0.169531 0)
(9.9809 0.209311 0)
(10.0681 0.000185351 0)
(10.0447 0.0466658 0)
(9.85057 0.0162349 0)
(9.80101 0.0062213 0)
(9.88169 0.0157821 0)
(9.99271 0.0478179 0)
(10.0813 0.0934993 0)
(10.1305 0.135196 0)
(10.1372 0.159373 0)
(10.1139 0.159277 0)
(10.0807 0.137943 0)
(10.0527 0.106937 0)
(10.0346 0.0807517 0)
(10.0258 0.0713344 0)
(10.0257 0.0836373 0)
(10.0306 0.114182 0)
(10.0422 0.156135 0)
(10.0542 0.199563 0)
(9.80193 -0.0159209 0)
(9.76247 0.121475 0)
(9.76605 0.106888 0)
(9.83576 0.0177923 0)
(9.8854 -0.0406024 0)
(9.88295 -0.0450368 0)
(9.88111 -0.00904044 0)
(9.92252 0.0426908 0)
(9.99972 0.0886546 0)
(10.0853 0.116192 0)
(10.1552 0.123582 0)
(10.196 0.117788 0)
(10.2056 0.108846 0)
(10.1918 0.104854 0)
(10.1687 0.111987 0)
(10.1483 0.131106 0)
(10.1371 0.160527 0)
(10.1372 0.195674 0)
(9.90636 0.054844 0)
(10.0048 0.0414183 0)
(10.0676 -0.0170382 0)
(10.1443 -0.0422176 0)
(10.1884 -0.00537189 0)
(10.1477 0.050651 0)
(10.0554 0.0857968 0)
(9.97834 0.0957876 0)
(9.9494 0.0917892 0)
(9.9643 0.083766 0)
(10.0026 0.0766854 0)
(10.0423 0.0731694 0)
(10.067 0.0754163 0)
(10.0737 0.0846851 0)
(10.0673 0.101698 0)
(10.0599 0.125597 0)
(10.057 0.153938 0)
(10.0663 0.184873 0)
(10.147 -0.0421231 0)
(10.2225 0.0524104 0)
(10.2326 0.0346278 0)
(10.148 -0.0202937 0)
(10.0556 -0.0269841 0)
(9.99999 0.017548 0)
(10.0052 0.0647463 0)
(10.0632 0.0855485 0)
(10.1343 0.0835851 0)
(10.1796 0.075423 0)
(10.1851 0.0732047 0)
(10.1599 0.0809722 0)
(10.1254 0.0958113 0)
(10.0979 0.113334 0)
(10.0868 0.131063 0)
(10.0883 0.148437 0)
(10.0994 0.166701 0)
(10.1076 0.186917 0)
(10.1529 0.0143752 0)
(10.2292 0.000978363 0)
(10.3154 0.00602953 0)
(10.3077 0.0385464 0)
(10.2389 0.0664309 0)
(10.1483 0.0740436 0)
(10.0738 0.0601284 0)
(10.0289 0.0427964 0)
(9.99946 0.0440439 0)
(9.97124 0.0661935 0)
(9.94431 0.0929357 0)
(9.92596 0.108177 0)
(9.92506 0.108208 0)
(9.94304 0.0999885 0)
(9.9813 0.0959347 0)
(10.031 0.103738 0)
(10.0884 0.125998 0)
(10.1423 0.16095 0)
(10.1519 -0.0497008 0)
(10.1381 -0.0577805 0)
(10.0328 -0.0192637 0)
(9.95798 0.00984077 0)
(9.98963 0.0536423 0)
(10.0806 0.0985768 0)
(10.144 0.127303 0)
(10.1363 0.131915 0)
(10.0755 0.119797 0)
(10.0128 0.105786 0)
(9.98501 0.0974543 0)
(9.99733 0.0918948 0)
(10.0314 0.0854064 0)
(10.0679 0.0769755 0)
(10.0922 0.070014 0)
(10.109 0.0701659 0)
(10.1173 0.0794127 0)
(10.1367 0.102348 0)
(10.1746 -0.0695332 0)
(10.1743 0.124679 0)
(10.1622 0.169128 0)
(10.1216 0.0890526 0)
(10.0922 -0.00516046 0)
(10.0651 -0.0373488 0)
(10.0418 0.0119319 0)
(10.024 0.0926033 0)
(10.0099 0.144116 0)
(9.99806 0.144293 0)
(9.98643 0.108957 0)
(9.97306 0.0673858 0)
(9.95744 0.0414396 0)
(9.94206 0.0384189 0)
(9.92726 0.0527059 0)
(9.91817 0.0756215 0)
(9.91288 0.0981888 0)
(9.9187 0.11819 0)
(9.71571 0.091977 0)
(9.86881 -0.0238701 0)
(10.0125 -0.0580791 0)
(10.1272 -0.00351143 0)
(10.1303 0.0899023 0)
(10.0517 0.160758 0)
(9.98336 0.179525 0)
(9.97752 0.159173 0)
(10.0294 0.129553 0)
(10.1039 0.113996 0)
(10.1648 0.117486 0)
(10.1912 0.129031 0)
(10.1833 0.134488 0)
(10.1525 0.12785 0)
(10.1141 0.111472 0)
(10.0785 0.0948241 0)
(10.0539 0.0834291 0)
(10.0416 0.0841033 0)
(10.1186 0.0283546 0)
(10.0419 -0.0271108 0)
(9.97668 -0.0224425 0)
(9.9245 0.0351141 0)
(9.90513 0.0854096 0)
(9.89952 0.0973932 0)
(9.89781 0.0719165 0)
(9.89554 0.0301796 0)
(9.89649 -0.00418369 0)
(9.91068 -0.0170218 0)
(9.94204 -0.00475263 0)
(9.98675 0.0288349 0)
(10.036 0.0735639 0)
(10.0801 0.117891 0)
(10.1105 0.149133 0)
(10.1257 0.162121 0)
(10.1281 0.155868 0)
(10.124 0.134783 0)
(10.1738 0.136265 0)
(10.1385 0.221039 0)
(10.0969 0.106459 0)
(10.0994 0.0448077 0)
(10.1217 0.0806657 0)
(10.1275 0.153166 0)
(10.1175 0.195349 0)
(10.0998 0.182187 0)
(10.0779 0.130223 0)
(10.0494 0.0688401 0)
(10.0135 0.0192075 0)
(9.97627 -0.00884884 0)
(9.94601 -0.0145981 0)
(9.92931 -0.00212739 0)
(9.92917 0.0220101 0)
(9.94429 0.0507029 0)
(9.97162 0.0775246 0)
(10.0055 0.098014 0)
(9.92913 0.135536 0)
(9.94096 0.0694884 0)
(9.96735 -0.00926644 0)
(9.98946 0.00693425 0)
(10.0012 0.0702545 0)
(10.034 0.113807 0)
(10.096 0.109027 0)
(10.1635 0.0803029 0)
(10.2148 0.0677558 0)
(10.241 0.0896316 0)
(10.2415 0.135235 0)
(10.2234 0.17852 0)
(10.1975 0.197731 0)
(10.1733 0.183902 0)
(10.1574 0.140541 0)
(10.152 0.0804344 0)
(10.1565 0.0149671 0)
(10.166 -0.0414537 0)
(9.99348 0.0568498 0)
(10.0421 0.094635 0)
(10.0493 0.0354373 0)
(10.0253 0.00825179 0)
(9.96318 -0.00337601 0)
(9.92256 -0.0154298 0)
(9.92542 -0.02629 0)
(9.96079 -0.0275384 0)
(10.0131 -0.0130307 0)
(10.0699 0.0164342 0)
(10.1238 0.051495 0)
(10.172 0.0797808 0)
(10.2131 0.0921562 0)
(10.245 0.0866479 0)
(10.2662 0.0701016 0)
(10.2757 0.0514383 0)
(10.2734 0.0398138 0)
(10.2597 0.0395807 0)
(9.9754 -0.0326782 0)
(10.1228 -0.0831523 0)
(10.1793 0.0140996 0)
(10.1831 0.137656 0)
(10.1368 0.185403 0)
(10.1012 0.141351 0)
(10.0875 0.0418219 0)
(10.0809 -0.0509027 0)
(10.0723 -0.091516 0)
(10.0609 -0.0751128 0)
(10.05 -0.025379 0)
(10.0447 0.0290108 0)
(10.0478 0.06749 0)
(10.0576 0.0824879 0)
(10.0697 0.0786046 0)
(10.0812 0.0658614 0)
(10.09 0.0533598 0)
(10.0975 0.0483937 0)
(9.8313 -0.0229265 0)
(9.81073 -0.172282 0)
(9.77983 -0.0561114 0)
(9.84379 0.0762948 0)
(9.96798 0.102928 0)
(10.0608 0.0533194 0)
(10.0747 -0.00433742 0)
(10.0376 -0.0255198 0)
(9.99693 -0.00758202 0)
(9.98136 0.0266034 0)
(10.0005 0.0544371 0)
(10.0461 0.0659835 0)
(10.0985 0.0613009 0)
(10.1396 0.0459958 0)
(10.1605 0.0285497 0)
(10.1613 0.0158383 0)
(10.1477 0.0120339 0)
(10.1271 0.0164242 0)
(10.0375 0.0263469 0)
(9.89662 -0.0659556 0)
(9.78734 -0.0723732 0)
(9.85191 -0.0405606 0)
(10.0149 0.00303073 0)
(10.137 0.0392545 0)
(10.1627 0.054467 0)
(10.1335 0.0364183 0)
(10.1043 -0.00967519 0)
(10.0991 -0.0587525 0)
(10.1186 -0.0834627 0)
(10.153 -0.0747476 0)
(10.188 -0.0399396 0)
(10.2124 0.00611201 0)
(10.2246 0.0493588 0)
(10.228 0.0815496 0)
(10.2293 0.1002 0)
(10.2306 0.10485 0)
(10.1246 -0.0312112 0)
(10.021 0.0805315 0)
(9.94151 -0.0108172 0)
(9.84587 -0.109938 0)
(9.80638 -0.121516 0)
(9.84007 -0.0651089 0)
(9.92381 0.00105714 0)
(10.016 0.0308541 0)
(10.0756 0.0194352 0)
(10.0852 -0.00861171 0)
(10.0583 -0.028088 0)
(10.0222 -0.0303709 0)
(10.0005 -0.0193023 0)
(10.0035 -0.00464072 0)
(10.0337 0.00762034 0)
(10.0841 0.0153059 0)
(10.1464 0.019017 0)
(10.2106 0.0218698 0)
(10.003 0.110781 0)
(10.0409 0.0811314 0)
(10.0976 0.0220795 0)
(10.099 0.0170049 0)
(10.089 -0.0137134 0)
(10.0997 -0.0597422 0)
(10.1182 -0.0844008 0)
(10.115 -0.0777699 0)
(10.0744 -0.0537851 0)
(10.0065 -0.0283854 0)
(9.93876 -0.0125619 0)
(9.89353 -0.00836278 0)
(9.87659 -0.0132548 0)
(9.88159 -0.0230657 0)
(9.90035 -0.0340784 0)
(9.92755 -0.0432461 0)
(9.95857 -0.048332 0)
(9.99383 -0.0433332 0)
(10.0193 0.031075 0)
(9.93776 0.0231444 0)
(9.91614 -0.0285323 0)
(9.93077 -0.0755546 0)
(9.96832 -0.0916562 0)
(9.9925 -0.0685182 0)
(9.98102 -0.0151106 0)
(9.95768 0.0439028 0)
(9.95372 0.0794076 0)
(9.97844 0.0787001 0)
(10.0241 0.0511644 0)
(10.0772 0.015125 0)
(10.1257 -0.0150268 0)
(10.1632 -0.0332053 0)
(10.1848 -0.0421732 0)
(10.1914 -0.0468225 0)
(10.1858 -0.0514468 0)
(10.1725 -0.0564892 0)
(9.97042 0.0993705 0)
(9.94116 0.0802295 0)
(9.97979 0.013917 0)
(9.99541 -0.0336046 0)
(9.99811 -0.0677758 0)
(10 -0.0776164 0)
(9.99499 -0.0643967 0)
(9.996 -0.0487402 0)
(10.0189 -0.0453367 0)
(10.065 -0.0534859 0)
(10.1255 -0.0635697 0)
(10.1917 -0.0686562 0)
(10.2566 -0.0669553 0)
(10.3132 -0.0611332 0)
(10.3534 -0.053288 0)
(10.3719 -0.0448571 0)
(10.3663 -0.0361923 0)
(10.338 -0.0283067 0)
(9.79484 0.0336842 0)
(9.95878 -0.0157839 0)
(10.0176 -0.0362602 0)
(10.0475 -0.0559891 0)
(10.0498 -0.0720777 0)
(10.0433 -0.0569051 0)
(10.0465 -0.0161171 0)
(10.069 0.0199037 0)
(10.1029 0.0263483 0)
(10.1317 0.000147574 0)
(10.1459 -0.0434601 0)
(10.149 -0.0833617 0)
(10.1512 -0.10532 0)
(10.1604 -0.104705 0)
(10.1778 -0.0847974 0)
(10.1992 -0.0539941 0)
(10.22 -0.0207777 0)
(10.2367 0.00260963 0)
(10.0965 -0.00782514 0)
(10.0263 -0.0455112 0)
(10.0547 -0.0317627 0)
(10.1462 -0.057335 0)
(10.1867 -0.07981 0)
(10.1732 -0.0827496 0)
(10.1653 -0.0747282 0)
(10.2001 -0.0661648 0)
(10.2569 -0.0617229 0)
(10.2882 -0.0606158 0)
(10.2648 -0.0612584 0)
(10.1961 -0.0638984 0)
(10.1144 -0.0692208 0)
(10.0498 -0.0753435 0)
(10.0177 -0.0776498 0)
(10.0185 -0.0732911 0)
(10.045 -0.0619266 0)
(10.0858 -0.0489327 0)
(10.0258 -0.0116663 0)
(9.89682 -0.0201869 0)
(9.78967 -0.0560676 0)
(9.56108 -0.0838186 0)
(9.28455 -0.0745475 0)
(9.05551 -0.0492163 0)
(8.88264 -0.0320783 0)
(8.74543 -0.0251025 0)
(8.63096 -0.0198391 0)
(8.53472 -0.0133195 0)
(8.44985 -0.0111017 0)
(8.3624 -0.0193044 0)
(8.25524 -0.0372345 0)
(8.12034 -0.0568113 0)
(7.96557 -0.0683506 0)
(7.81193 -0.0684361 0)
(7.67615 -0.0583623 0)
(7.57479 -0.0442122 0)
(-0.0543292 0.24597 -2.15388e-21)
(-0.192385 0.244551 2.14066e-21)
(-0.337775 0.167525 0)
(-0.421756 0.0611328 0)
(-0.332874 -0.118589 0)
(-0.0985715 -0.303769 -2.07567e-21)
(0.264217 -0.41578 0)
(0.707069 -0.481104 0)
(1.16913 -0.508217 0)
(1.6357 -0.50651 0)
(2.0967 -0.485838 2.14598e-21)
(2.53874 -0.454804 0)
(2.95516 -0.420563 0)
(3.34482 -0.386286 0)
(3.70855 -0.353115 0)
(4.04737 -0.320828 2.70865e-21)
(4.36153 -0.288769 0)
(4.65064 -0.256217 0)
(4.91313 -0.222176 0)
(5.1467 -0.186346 0)
(5.34929 -0.148164 0)
(5.51653 -0.107656 0)
(5.64789 -0.0645687 0)
(5.73689 -0.0185797 3.42894e-21)
(5.78428 0.0314881 -3.42425e-21)
(5.78188 0.0880041 3.39045e-21)
(5.71984 0.153824 3.32716e-21)
(5.58918 0.233246 0)
(5.37894 0.329031 0)
(5.07311 0.442888 -2.96672e-21)
(4.65352 0.57137 -2.8019e-21)
(4.10405 0.707983 0)
(3.40478 0.838321 0)
(2.55493 0.852963 -2.35552e-21)
(1.69073 0.655918 0)
(0.935618 0.410021 0)
(0.309158 0.205307 2.25072e-21)
(-0.106068 -0.0305583 0)
(-0.37337 -0.152922 2.19881e-21)
(-0.480658 -0.142855 4.30462e-21)
(-0.519435 -0.129197 0)
(-0.558939 -0.0549107 0)
(-0.407203 0.0464411 0)
(-0.303429 0.10936 0)
(-0.233455 0.0040462 0)
(-0.0632337 -0.392956 3.87883e-21)
(0.258333 -0.599158 3.91229e-21)
(0.824579 -0.616518 4.00591e-21)
(1.35121 -0.436027 0)
(1.57265 -0.657237 -4.14947e-21)
(1.56113 -0.873851 0)
(1.45174 -0.545577 4.33735e-21)
(0.831201 0.300229 4.27578e-21)
(-0.302271 0.856912 0)
(-1.4679 0.923606 0)
(-2.54523 0.841487 0)
(-3.49611 0.739784 4.98045e-21)
(-4.34055 0.642863 0)
(-5.08169 0.552336 0)
(-5.73359 0.474076 0)
(-6.30743 0.409295 0)
(-6.81573 0.355646 0)
(-7.26641 0.311236 0)
(-7.6677 0.273604 0)
(-8.02456 0.241377 0)
(-8.34205 0.213171 -9.76012e-21)
(-8.62305 0.187901 0)
(-8.87019 0.164577 0)
(-9.08475 0.142589 1.06448e-20)
(-9.26787 0.121385 1.08216e-20)
(-9.41983 0.100481 0)
(-9.54076 0.0795581 -1.09898e-20)
(-9.63038 0.0586729 1.09812e-20)
(-9.68848 0.03815 0)
(-9.71491 0.0181409 -1.07862e-20)
(-9.7095 -0.000956011 0)
(-9.67622 -0.0182185 0)
(-9.61459 -0.0339408 1.0098e-20)
(-9.52685 -0.047531 0)
(-9.41544 -0.0585664 -9.43544e-21)
(-9.28363 -0.0667452 0)
(-9.13534 -0.0719584 8.66861e-21)
(-8.97489 -0.0744353 8.26193e-21)
(-8.80663 -0.0747973 7.84699e-21)
(-8.63436 -0.0740364 1.4856e-20)
(-8.46082 -0.073444 -1.40158e-20)
(-8.28719 -0.0743833 0)
(-8.11289 -0.0779741 0)
(-7.93559 -0.0847914 0)
(-7.7518 -0.0946932 -1.06582e-20)
(-7.55755 -0.106876 -9.80641e-21)
(-7.3489 -0.120186 8.93989e-21)
(-7.12215 -0.133591 0)
(-6.87385 -0.146501 -7.14224e-21)
(-6.60091 -0.158804 -6.20477e-21)
(-6.30077 -0.170652 -5.24237e-21)
(-5.9713 -0.182183 0)
(-5.6102 -0.19344 0)
(-5.21534 -0.204451 0)
(-4.78639 -0.215166 -1.29818e-21)
(-4.32574 -0.22533 0)
(-3.8363 -0.234431 0)
(-3.31884 -0.241203 -1.35242e-21)
(-2.77695 -0.242296 0)
(-2.22785 -0.231615 0)
(-1.69522 -0.206608 -3.25293e-21)
(-1.19494 -0.180229 0)
(-0.7504 -0.159661 0)
(-0.343911 -0.154069 4.15453e-21)
(0.0710143 -0.174877 4.2808e-21)
(0.55941 -0.216535 0)
(1.18183 -0.281744 -4.45697e-21)
(1.96267 -0.398049 0)
(2.89394 -0.551241 4.36924e-21)
(4.04829 -0.464125 0)
(4.86201 0.0437201 3.45354e-21)
(4.39047 0.424679 3.22799e-21)
(3.38521 0.297089 0)
(2.8936 -0.00433319 0)
(2.88927 -0.138532 0)
(3.00063 -0.112191 0)
(2.93286 -0.023955 0)
(2.62478 0.0730441 0)
(2.15792 0.148002 0)
(1.62225 0.187684 1.8388e-21)
(1.06 0.208021 -1.41194e-21)
(0.475102 0.222335 0)
(-0.143156 0.235927 0)
(-0.795042 0.249563 0)
(-1.48819 0.265952 0)
(-2.23147 0.28486 3.81126e-21)
(-3.02759 0.303639 0)
(-3.87073 0.318289 -7.759e-21)
(-4.74409 0.324405 9.97459e-21)
(-5.61978 0.318236 0)
(-6.46023 0.297146 0)
(-7.22056 0.259886 0)
(-7.85275 0.206742 -1.75451e-20)
(-8.31078 0.139099 -1.80373e-20)
(-8.55278 0.0609964 0)
(-8.54232 -0.0207186 -1.59742e-20)
(-8.28129 -0.102763 -1.33332e-20)
(-7.76339 -0.181069 9.81763e-21)
(-7.01552 -0.246335 0)
(-6.0883 -0.291533 0)
(-5.04897 -0.314649 -1.99373e-21)
(-3.96148 -0.319104 0)
(-2.87279 -0.309756 0)
(-1.8133 -0.290615 0)
(-0.807455 -0.264253 0)
(0.10388 -0.233381 1.11232e-20)
(0.902721 -0.199208 1.12632e-20)
(1.59264 -0.163084 0)
(2.16504 -0.128004 1.06037e-20)
(2.62433 -0.0966797 0)
(2.98143 -0.0705717 0)
(3.25151 -0.0491675 8.77636e-21)
(3.44966 -0.0333216 0)
(3.59224 -0.0234638 7.66185e-21)
(3.69542 -0.0139102 0)
(3.76378 -0.00693381 0)
(3.80937 -0.0109278 6.43524e-21)
(3.85763 -0.00977333 0)
(3.89449 -0.00154898 5.92311e-21)
(3.92303 -0.0183455 0)
(4.01096 -0.0318817 0)
(4.11962 -0.0137811 0)
(4.21513 -0.0473154 -5.72095e-21)
(4.46057 -0.094994 0)
(4.80049 -0.0427382 6.15632e-21)
(5.0585 -0.0773191 0)
(5.53343 -0.211018 0)
(6.28003 -0.0796983 0)
(6.58599 0.0118559 0)
(6.90012 -0.267052 0)
(7.9058 -0.0712044 0)
(7.63248 0.534071 0)
(5.58119 0.460993 -1.51377e-20)
(4.09986 0.0722889 0)
(3.32717 -0.0674515 0)
(0.0171398 0.257551 6.45496e-21)
(0.0310972 0.297644 -6.40916e-21)
(0.0473144 0.263605 0)
(0.263182 -0.0479886 4.24972e-21)
(0.620459 -0.531897 0)
(1.0455 -0.961314 2.0679e-21)
(1.47088 -1.24683 -4.23689e-21)
(1.87482 -1.39749 -4.26719e-21)
(2.25047 -1.44342 0)
(2.59922 -1.41868 -4.44219e-21)
(2.92457 -1.35466 -2.1385e-21)
(3.23001 -1.27366 0)
(3.51964 -1.18909 0)
(3.79753 -1.10706 0)
(4.06651 -1.02896 0)
(4.32726 -0.953625 -2.70448e-21)
(4.57874 -0.878775 0)
(4.81796 -0.802205 6.18203e-21)
(5.04135 -0.721961 0)
(5.24512 -0.636596 0)
(5.42419 -0.545343 -6.83634e-21)
(5.57692 -0.44773 0)
(5.69828 -0.343541 7.09386e-21)
(5.79106 -0.232261 -3.42801e-21)
(5.8516 -0.112997 3.42349e-21)
(5.88606 0.0160907 -3.38953e-21)
(5.8988 0.158624 -3.32521e-21)
(5.88785 0.321217 0)
(5.85022 0.508479 0)
(5.77803 0.729222 2.95964e-21)
(5.6631 0.98232 -3.29866e-21)
(5.48841 1.26244 0)
(5.23847 1.5504 0)
(4.88221 1.78951 2.33894e-21)
(4.40752 1.89004 0)
(3.78035 1.79799 0)
(3.01891 1.52145 -2.23319e-21)
(2.29365 1.11709 0)
(1.61346 0.765988 2.19892e-21)
(1.08131 0.380756 -4.2975e-21)
(0.62924 0.167404 0)
(0.418577 -0.0423744 0)
(0.3457 -0.471154 -7.85456e-21)
(0.395754 -0.432437 -7.64826e-21)
(0.60961 -0.376547 -7.5528e-21)
(0.678096 -0.364143 3.68127e-21)
(1.23603 -0.725964 -3.90241e-21)
(1.25018 -1.19177 -1.19671e-20)
(0.946459 -0.789268 8.27321e-21)
(0.217345 0.400815 4.16805e-21)
(-0.952466 1.08052 0)
(-2.02044 1.62039 -4.33619e-21)
(-2.93286 2.00426 4.72089e-21)
(-3.75134 2.11758 0)
(-4.4574 2.00115 0)
(-5.08116 1.81271 0)
(-5.64115 1.60756 -4.95205e-21)
(-6.14327 1.41068 0)
(-6.59524 1.23399 1.29795e-20)
(-7.00482 1.08139 0)
(-7.37656 0.950763 1.51829e-20)
(-7.71569 0.838582 0)
(-8.02427 0.741041 -1.72735e-20)
(-8.30537 0.655154 0)
(-8.55938 0.578362 1.91013e-20)
(-8.78769 0.508559 -1.01368e-20)
(-8.99012 0.443976 0)
(-9.16722 0.383209 -2.11442e-20)
(-9.31866 0.325243 -1.06378e-20)
(-9.44451 0.269261 -1.08162e-20)
(-9.54441 0.214662 0)
(-9.61839 0.161007 -1.12713e-20)
(-9.6663 0.108147 -1.09801e-20)
(-9.68838 0.0562626 0)
(-9.68492 0.00557444 1.07871e-20)
(-9.65657 -0.0436155 -2.14164e-20)
(-9.60009 -0.0904175 0)
(-9.51769 -0.134512 -1.00987e-20)
(-9.41007 -0.1749 0)
(-9.27922 -0.210513 2.84297e-20)
(-9.12774 -0.240279 0)
(-8.95893 -0.263327 -2.60936e-20)
(-8.77658 -0.279243 -8.26256e-21)
(-8.58476 -0.288251 7.90673e-21)
(-8.38751 -0.291327 1.49574e-20)
(-8.18842 -0.290187 -1.41061e-20)
(-7.99032 -0.2871 0)
(-7.79485 -0.284547 0)
(-7.60224 -0.284814 0)
(-7.41115 -0.289666 3.20927e-20)
(-7.21871 -0.300171 9.80894e-21)
(-7.02077 -0.316723 -8.94189e-21)
(-6.81203 -0.33927 0)
(-6.58632 -0.367571 -7.3312e-21)
(-6.33724 -0.401252 6.20499e-21)
(-6.05899 -0.439643 5.24215e-21)
(-5.74673 -0.481577 0)
(-5.39664 -0.525478 0)
(-5.00615 -0.569746 0)
(-4.57564 -0.612927 1.29781e-21)
(-4.10961 -0.653434 0)
(-3.6143 -0.689104 8.661e-22)
(-3.09285 -0.717263 3.86809e-21)
(-2.54623 -0.734958 -4.00364e-21)
(-1.98232 -0.73456 0)
(-1.41058 -0.699819 -3.12867e-21)
(-0.826753 -0.632679 0)
(-0.28784 -0.569441 -7.8457e-21)
(0.175745 -0.55114 4.06169e-21)
(0.602948 -0.602253 4.12597e-21)
(1.06676 -0.723706 0)
(1.64184 -0.908521 1.30006e-20)
(2.38585 -1.1344 -8.51071e-21)
(3.21302 -1.3014 -4.36257e-21)
(3.9816 -1.09031 0)
(4.69582 -0.263552 -3.45264e-21)
(4.85773 0.644167 -9.18755e-21)
(4.3376 0.875481 0)
(3.79793 0.430097 -6.04168e-21)
(3.46641 0.0367073 -5.8948e-21)
(3.13849 0.0766248 -5.61957e-21)
(2.62757 0.325177 0)
(1.95657 0.527544 0)
(1.25424 0.626538 0)
(0.570079 0.660472 1.73204e-21)
(-0.0938822 0.670303 1.41258e-21)
(-0.741409 0.679447 0)
(-1.37954 0.696103 5.19527e-22)
(-2.02464 0.721443 -8.00538e-22)
(-2.69019 0.755058 0)
(-3.38398 0.793184 -3.80332e-21)
(-4.10691 0.828562 -1.1845e-20)
(-4.85221 0.851942 7.74415e-21)
(-5.60555 0.85392 1.0719e-20)
(-6.34558 0.826096 0)
(-7.04446 0.761767 0)
(-7.66843 0.656865 0)
(-8.17988 0.510493 1.75308e-20)
(-8.54082 0.325188 -1.94696e-20)
(-8.71895 0.108241 -3.65277e-20)
(-8.68808 -0.127907 1.59704e-20)
(-8.40105 -0.370582 -1.45927e-20)
(-7.85393 -0.603768 -9.81072e-21)
(-7.06604 -0.8008 0)
(-6.09358 -0.937135 0)
(-5.00966 -1.00635 -1.48544e-21)
(-3.88209 -1.0191 0)
(-2.75802 -0.990955 0)
(-1.66634 -0.934663 1.83458e-20)
(-0.629857 -0.85678 0)
(0.310538 -0.767719 1.09128e-20)
(1.1377 -0.665893 -1.1253e-20)
(1.85708 -0.559225 0)
(2.46025 -0.454873 1.04902e-20)
(2.95354 -0.358702 0)
(3.34752 -0.275087 0)
(3.65547 -0.206448 -8.77158e-21)
(3.89451 -0.151288 1.62944e-20)
(4.07624 -0.108521 -7.65801e-21)
(4.20847 -0.0783094 0)
(4.31119 -0.0545003 0)
(4.38981 -0.0381135 6.37857e-21)
(4.44087 -0.0353959 0)
(4.49624 -0.0334896 5.8686e-21)
(4.57026 -0.0393125 0)
(4.6436 -0.0694978 0)
(4.74174 -0.0914547 0)
(4.92115 -0.118022 5.71717e-21)
(5.13094 -0.19952 0)
(5.36392 -0.259267 -6.1517e-21)
(5.80973 -0.272695 0)
(6.29118 -0.381864 0)
(6.67842 -0.45207 1.40442e-20)
(7.40104 -0.289561 -1.44012e-20)
(8.04165 -0.283622 0)
(8.15394 -0.303627 0)
(8.74218 0.370726 0)
(9.0378 1.09408 4.40449e-20)
(8.12633 1.02956 0)
(6.34628 0.522876 -2.59136e-20)
(-0.00674177 0.205075 -7.6069e-24)
(0.0381116 0.23852 8.51444e-21)
(0.440626 -0.306424 0)
(0.973171 -1.02495 -8.48668e-21)
(1.48497 -1.60799 0)
(1.89306 -1.96814 0)
(2.18438 -2.11332 -2.0839e-22)
(2.39159 -2.10217 4.25711e-21)
(2.55107 -1.99938 4.61552e-21)
(2.69406 -1.85954 4.43807e-21)
(2.84254 -1.7193 0)
(3.00984 -1.59676 0)
(3.20182 -1.49593 -5.25602e-21)
(3.41798 -1.41244 -1.09606e-20)
(3.65306 -1.33814 1.14549e-20)
(3.89894 -1.26429 0)
(4.14618 -1.18352 1.25288e-20)
(4.38542 -1.09103 -6.1855e-21)
(4.60789 -0.984535 0)
(4.80632 -0.863671 1.406e-20)
(4.97466 -0.730451 6.84182e-21)
(5.10883 -0.588081 -1.47736e-20)
(5.20717 -0.440185 -7.10149e-21)
(5.26869 -0.289991 0)
(5.29457 -0.139736 1.50853e-20)
(5.28961 0.0136456 1.49761e-20)
(5.26334 0.174359 0)
(5.22643 0.349381 1.44593e-20)
(5.1916 0.551389 0)
(5.1674 0.792236 1.36682e-20)
(5.15875 1.07882 6.09681e-21)
(5.15637 1.41462 0)
(5.14989 1.77798 0)
(5.10296 2.13986 0)
(4.98271 2.42929 0)
(4.73298 2.56695 0)
(4.30543 2.5083 0)
(3.75671 2.25141 9.33648e-21)
(3.09816 1.85044 -1.32177e-20)
(2.49257 1.34499 0)
(1.85261 0.915307 0)
(1.4345 0.447489 0)
(1.0441 0.118764 3.66363e-22)
(0.694241 -0.288904 7.64425e-21)
(0.455407 -0.397092 1.46681e-20)
(0.478661 -1.11192 -1.45998e-20)
(0.523881 -1.50411 -7.20053e-21)
(-0.487756 0.208067 7.97597e-21)
(-1.53663 1.22087 -4.04762e-22)
(-2.36583 1.85724 8.17775e-21)
(-3.2081 2.33106 0)
(-3.88618 2.68031 8.96339e-21)
(-4.4147 2.83817 4.80563e-22)
(-4.80187 2.81113 0)
(-5.12239 2.63757 0)
(-5.42468 2.40746 -1.12197e-20)
(-5.73302 2.16338 0)
(-6.05195 1.93336 0)
(-6.38034 1.72593 1.48877e-20)
(-6.71191 1.54389 2.98892e-20)
(-7.03748 1.38298 -1.51826e-20)
(-7.35198 1.24016 0)
(-7.64933 1.11138 1.72761e-20)
(-7.92819 0.994064 0)
(-8.18585 0.885578 2.02732e-20)
(-8.4221 0.783851 1.98903e-20)
(-8.63527 0.687095 -4.2214e-20)
(-8.82493 0.593832 -2.21757e-20)
(-8.98967 0.502941 0)
(-9.12864 0.413578 4.48611e-20)
(-9.24043 0.325267 0)
(-9.32419 0.23782 6.76751e-20)
(-9.37874 0.151216 4.5299e-20)
(-9.4034 0.0656388 4.49403e-20)
(-9.39814 -0.0180772 -4.43382e-20)
(-9.36303 -0.0993692 6.49338e-20)
(-9.29876 -0.177317 0)
(-9.2067 -0.25015 0)
(-9.08876 -0.316282 -3.9893e-20)
(-8.94764 -0.37398 -5.7397e-20)
(-8.78668 -0.421657 0)
(-8.60988 -0.458138 1.7429e-20)
(-8.42155 -0.482952 0)
(-8.22616 -0.496569 -4.74717e-20)
(-8.0279 -0.500541 1.66757e-22)
(-7.83036 -0.497458 -1.47652e-22)
(-7.63621 -0.490695 2.65881e-20)
(-7.44682 -0.483978 0)
(-7.2621 -0.480867 -2.32626e-20)
(-7.08045 -0.484355 1.75933e-22)
(-6.89877 -0.496684 0)
(-6.71267 -0.519396 0)
(-6.51664 -0.553482 0)
(-6.30439 -0.599478 1.44752e-20)
(-6.0693 -0.65729 0)
(-5.80515 -0.725799 0)
(-5.50669 -0.802497 0)
(-5.16988 -0.883561 0)
(-4.79224 -0.964559 0)
(-4.37384 -1.04115 3.15199e-21)
(-3.91763 -1.10938 0)
(-3.42805 -1.16562 -8.65695e-22)
(-2.90959 -1.20695 -2.51492e-21)
(-2.36738 -1.23329 4.0015e-21)
(-1.80748 -1.24691 0)
(-1.22941 -1.23951 6.37697e-21)
(-0.61478 -1.16737 0)
(0.0338284 -1.02616 7.83939e-21)
(0.633185 -0.909602 -8.20454e-21)
(1.13512 -0.904766 -2.47489e-20)
(1.57308 -1.06241 0)
(2.03413 -1.369 -2.47438e-20)
(2.59034 -1.74833 -7.38166e-21)
(3.26138 -1.95014 0)
(3.90778 -1.60139 -1.31325e-20)
(4.34706 -0.521929 -1.14307e-20)
(4.39062 0.729612 1.69094e-20)
(4.03127 1.13623 0)
(3.62538 0.695968 6.03986e-21)
(3.14908 0.386434 5.89421e-21)
(2.4999 0.563521 1.67891e-20)
(1.77837 0.87367 0)
(1.10818 1.06029 0)
(0.508334 1.12454 0)
(-0.0516903 1.12938 3.09772e-21)
(-0.586102 1.11638 0)
(-1.10579 1.1114 0)
(-1.62519 1.12337 -5.19041e-22)
(-2.16032 1.15514 7.99844e-22)
(-2.72494 1.20322 0)
(-3.3292 1.25945 0)
(-3.97853 1.31222 1.1837e-20)
(-4.67229 1.34821 0)
(-5.40262 1.35373 -2.06632e-20)
(-6.15238 1.31569 -2.68068e-20)
(-6.89271 1.22234 0)
(-7.58251 1.06481 0)
(-8.17148 0.83866 3.86403e-20)
(-8.606 0.54534 -2.35768e-21)
(-8.83624 0.196004 -2.39518e-21)
(-8.82122 -0.19259 0)
(-8.5315 -0.604303 5.80044e-20)
(-7.95861 -1.00499 0)
(-7.12628 -1.34685 0)
(-6.1007 -1.58036 0)
(-4.96877 -1.69388 3.47319e-21)
(-3.80325 -1.70988 0)
(-2.64822 -1.65814 -2.80698e-20)
(-1.52776 -1.5605 -1.83286e-20)
(-0.463979 -1.42849 0)
(0.501536 -1.27846 -2.20065e-20)
(1.34798 -1.10258 0)
(2.07407 -0.921389 0)
(2.67089 -0.747532 -6.28036e-20)
(3.14717 -0.591112 3.94788e-20)
(3.52036 -0.457297 0)
(3.81069 -0.347687 3.45771e-20)
(4.03616 -0.260523 -1.62892e-20)
(4.21444 -0.191797 0)
(4.3577 -0.139336 0)
(4.47122 -0.100913 0)
(4.5687 -0.077412 -3.82431e-20)
(4.66164 -0.0693077 0)
(4.74929 -0.0685994 -1.17852e-20)
(4.84648 -0.0885333 0)
(4.96465 -0.127996 0)
(5.08493 -0.159312 0)
(5.22856 -0.226787 0)
(5.44249 -0.328597 0)
(5.67605 -0.399517 0)
(5.97 -0.503612 -2.53605e-20)
(6.47073 -0.632825 0)
(6.97546 -0.667429 -1.40357e-20)
(7.42055 -0.622905 4.28228e-20)
(8.27249 -0.533577 0)
(8.68491 -0.387746 0)
(8.76381 0.0872528 -2.8539e-20)
(9.52937 0.903858 -2.89409e-20)
(9.85712 1.42711 2.55378e-20)
(8.52838 1.30998 2.58425e-20)
(-0.138129 0.148367 -1.29254e-20)
(0.337849 -0.726682 -1.28251e-20)
(0.954299 -1.72809 -8.62499e-21)
(1.43732 -2.31073 -4.5095e-21)
(1.7309 -2.51261 0)
(1.86161 -2.46385 9.09437e-21)
(1.90749 -2.29507 -4.84849e-21)
(1.94436 -2.11101 0)
(2.02523 -1.97429 -4.62066e-21)
(2.17219 -1.903 0)
(2.38351 -1.88358 1.03078e-20)
(2.64639 -1.89123 0)
(2.94587 -1.90287 5.25463e-21)
(3.26815 -1.90159 1.09538e-20)
(3.60044 -1.87622 -1.14443e-20)
(3.93069 -1.81946 0)
(4.24746 -1.72727 -1.25127e-20)
(4.53993 -1.5991 0)
(4.79837 -1.43697 0)
(5.01458 -1.24435 -1.40427e-20)
(5.18178 -1.02763 0)
(5.29581 -0.79585 -1.21858e-21)
(5.35555 -0.557005 0)
(5.36259 -0.320453 0)
(5.32218 -0.0949331 1.12356e-21)
(5.23981 0.11267 -1.49747e-20)
(5.12147 0.305697 -1.57646e-20)
(4.9805 0.490751 -1.44645e-20)
(4.82842 0.674516 0)
(4.68577 0.866683 -2.8233e-20)
(4.58023 1.09379 0)
(4.52838 1.37993 -1.36046e-20)
(4.53764 1.72771 0)
(4.57534 2.129 0)
(4.60318 2.5218 1.19727e-20)
(4.56891 2.85379 0)
(4.41209 3.03683 -1.05975e-20)
(4.11938 2.98194 5.40891e-22)
(3.6544 2.70541 1.79749e-20)
(3.10643 2.30582 -1.70207e-20)
(2.53019 1.7906 0)
(1.98527 1.25474 0)
(1.47375 0.749187 -6.74385e-21)
(1.017 0.333535 0)
(0.493629 0.017527 -7.11346e-21)
(0.436171 -0.480822 7.05083e-21)
(-0.842997 0.649481 7.19217e-21)
(-1.82964 1.62581 0)
(-2.61523 2.28015 -7.81825e-21)
(-3.29247 2.78496 -8.15119e-21)
(-3.83597 3.11386 1.73762e-20)
(-4.22037 3.26209 -8.94824e-21)
(-4.50845 3.26552 -9.41148e-21)
(-4.74817 3.16223 0)
(-4.99347 2.98914 0)
(-5.2647 2.7899 1.12167e-20)
(-5.5619 2.57802 0)
(-5.87985 2.36881 0)
(-6.20501 2.16546 -2.78546e-20)
(-6.52899 1.97326 -2.98818e-20)
(-6.84156 1.79211 0)
(-7.14073 1.62355 0)
(-7.42185 1.46655 0)
(-7.68525 1.32018 0)
(-7.9287 1.18256 -3.93807e-20)
(-8.15253 1.05177 4.23369e-20)
(-8.35508 0.925761 4.22205e-20)
(-8.53573 0.802721 8.80325e-20)
(-8.69265 0.681183 0)
(-8.82465 0.560062 1.28106e-21)
(-8.9298 0.438767 0)
(-9.00657 0.317241 -4.54275e-20)
(-9.05327 0.195869 1.11469e-21)
(-9.06848 0.0751069 -4.49668e-20)
(-9.05192 -0.0437597 4.43621e-20)
(-9.00386 -0.159587 8.85061e-22)
(-8.92483 -0.270535 0)
(-8.8166 -0.374181 4.19884e-20)
(-8.68179 -0.467895 3.99103e-20)
(-8.524 -0.54903 7.73603e-20)
(-8.34753 -0.615252 0)
(-8.15728 -0.664903 -3.55348e-20)
(-7.95838 -0.697381 0)
(-7.7559 -0.713434 6.37149e-20)
(-7.55444 -0.715301 -3.0002e-20)
(-7.35775 -0.706657 2.82907e-20)
(-7.16823 -0.692308 -2.65993e-20)
(-6.98663 -0.677663 -5.02339e-20)
(-6.81184 -0.66805 2.32721e-20)
(-6.64107 -0.668089 -2.16204e-20)
(-6.47016 -0.681304 0)
(-6.29404 -0.710056 3.71644e-20)
(-6.10712 -0.755756 0)
(-5.90344 -0.818976 3.03247e-20)
(-5.67695 -0.899273 -2.67155e-20)
(-5.42178 -0.994871 -2.29634e-20)
(-5.1327 -1.10238 1.90822e-20)
(-4.8059 -1.2169 1.51126e-20)