/*--------------------------------*- C++ -*----------------------------------*\
  =========                 |
  \\      /  F ield         | OpenFOAM: The Open Source CFD Toolbox
   \\    /   O peration     | Website:  https://openfoam.org
    \\  /    A nd           | Version:  9
     \\/     M anipulation  |
\*---------------------------------------------------------------------------*/
FoamFile
{
    format      ascii;
    class       volScalarField;
    location    "0.009";
    object      p;
}
// * * * * * * * * * * * * * * * * * * * * * * * * * * * * * * * * * * * * * //

dimensions      [0 2 -2 0 0 0 0];

internalField   nonuniform List<scalar> 
12225
(
-280.076
-279.25
-278.741
-277.997
-277.02
-275.829
-274.436
-272.899
-271.245
-269.499
-267.71
-265.918
-264.147
-262.385
-260.632
-258.791
-256.859
-254.594
-279.784
-279.23
-278.75
-278.024
-277.05
-275.854
-274.452
-272.913
-271.258
-269.514
-267.725
-265.933
-264.164
-262.41
-260.661
-258.849
-256.942
-254.892
-280.381
-279.197
-278.77
-278.078
-277.104
-275.896
-274.476
-272.918
-271.259
-269.526
-267.755
-265.982
-264.221
-262.469
-260.714
-258.918
-257.057
-255.066
-280.233
-279.174
-278.766
-278.139
-277.181
-275.97
-274.539
-272.969
-271.302
-269.569
-267.801
-266.03
-264.272
-262.527
-260.785
-259.026
-257.217
-255.35
-277.313
-279.071
-278.945
-278.291
-277.304
-276.062
-274.604
-273.013
-271.34
-269.612
-267.856
-266.096
-264.349
-262.615
-260.888
-259.154
-257.404
-255.652
-277.916
-279.123
-278.956
-278.389
-277.425
-276.193
-274.722
-273.111
-271.419
-269.685
-267.928
-266.173
-264.434
-262.714
-261.01
-259.32
-257.637
-255.986
-278.513
-279.327
-279.272
-278.65
-277.694
-276.367
-274.851
-273.211
-271.505
-269.77
-268.021
-266.274
-264.545
-262.841
-261.16
-259.507
-257.883
-256.317
-281.668
-279.334
-279.29
-278.803
-277.911
-276.584
-275.044
-273.369
-271.634
-269.884
-268.127
-266.382
-264.665
-262.98
-261.331
-259.722
-258.16
-256.669
-280.956
-279.837
-279.819
-279.304
-278.296
-276.854
-275.252
-273.538
-271.775
-270.018
-268.264
-266.527
-264.819
-263.151
-261.528
-259.956
-258.446
-257.014
-278.042
-279.662
-280.004
-279.649
-278.598
-277.173
-275.533
-273.77
-271.982
-270.191
-268.42
-266.677
-264.978
-263.329
-261.737
-260.207
-258.749
-257.373
-274.448
-280.242
-281.696
-280.978
-279.377
-277.615
-275.871
-274.033
-272.192
-270.376
-268.597
-266.861
-265.176
-263.547
-261.979
-260.481
-259.061
-257.727
-275.086
-280.653
-281.864
-281.191
-279.577
-278.011
-276.23
-274.331
-272.433
-270.581
-268.782
-267.037
-265.354
-263.736
-262.191
-260.725
-259.344
-258.05
-277.625
-282.29
-283.304
-282.292
-280.676
-278.727
-276.664
-274.654
-272.681
-270.787
-268.969
-267.229
-265.559
-263.959
-262.433
-260.991
-259.633
-258.365
-279.234
-284.935
-285.034
-283.57
-281.586
-279.376
-277.178
-275.058
-273.014
-271.062
-269.21
-267.454
-265.786
-264.197
-262.69
-261.275
-259.951
-258.708
-287.919
-289.602
-288.063
-285.6
-282.924
-280.304
-277.841
-275.521
-273.389
-271.373
-269.485
-267.72
-266.058
-264.483
-262.998
-261.607
-260.319
-259.142
-302.642
-297.775
-292.384
-288.091
-284.478
-281.332
-278.568
-276.116
-273.83
-271.731
-269.792
-267.997
-266.327
-264.76
-263.295
-261.93
-260.652
-259.448
-323.492
-305.959
-296.951
-290.765
-286.112
-282.346
-279.218
-276.51
-274.14
-272.004
-270.05
-268.257
-266.597
-265.054
-263.614
-262.269
-261.01
-259.835
-326.534
-310.667
-299.565
-292.269
-286.993
-282.883
-279.577
-276.811
-274.385
-272.204
-270.236
-268.44
-266.789
-265.262
-263.844
-262.524
-261.292
-260.139
-321.227
-306.085
-296.948
-290.69
-285.834
-281.998
-278.879
-276.242
-273.942
-271.889
-270.026
-268.32
-266.75
-265.293
-263.931
-262.653
-261.45
-260.321
-293.183
-292.509
-289.283
-285.651
-282.545
-279.84
-277.413
-275.177
-273.151
-271.312
-269.605
-268.011
-266.523
-265.13
-263.821
-262.588
-261.424
-260.325
-283.873
-284.969
-283.993
-281.88
-279.719
-277.663
-275.721
-273.906
-272.191
-270.572
-269.041
-267.589
-266.213
-264.906
-263.66
-262.472
-261.34
-260.266
-280.334
-279.093
-278.905
-278.248
-277.124
-275.814
-274.379
-272.906
-271.445
-270.01
-268.602
-267.24
-265.935
-264.681
-263.478
-262.325
-261.223
-260.171
-271.853
-274.525
-275.815
-275.839
-275.287
-274.34
-273.22
-272.011
-270.753
-269.471
-268.188
-266.923
-265.69
-264.493
-263.333
-262.215
-261.138
-260.103
-264.399
-270.498
-272.873
-273.607
-273.676
-273.202
-272.385
-271.372
-270.254
-269.083
-267.883
-266.677
-265.485
-264.32
-263.189
-262.094
-261.037
-260.018
-263.546
-268.955
-271.469
-272.552
-272.712
-272.404
-271.753
-270.882
-269.874
-268.784
-267.648
-266.494
-265.342
-264.207
-263.098
-262.022
-260.98
-259.973
-265.884
-268.093
-270.282
-271.579
-272.002
-271.847
-271.321
-270.549
-269.61
-268.571
-267.476
-266.352
-265.224
-264.106
-263.013
-261.952
-260.924
-259.928
-266.477
-267.468
-269.762
-271.041
-271.558
-271.49
-271.046
-270.338
-269.444
-268.44
-267.375
-266.278
-265.163
-264.049
-262.956
-261.898
-260.878
-259.893
-261.216
-266.497
-269.248
-270.678
-271.246
-271.243
-270.859
-270.192
-269.326
-268.343
-267.293
-266.204
-265.096
-263.99
-262.909
-261.866
-260.859
-259.883
-260.833
-266.053
-268.978
-270.494
-271.097
-271.126
-270.769
-270.123
-269.275
-268.307
-267.266
-266.179
-265.068
-263.958
-262.874
-261.832
-260.832
-259.865
-260.906
-265.915
-268.878
-270.404
-271.008
-271.059
-270.728
-270.096
-269.253
-268.283
-267.238
-266.148
-265.033
-263.921
-262.841
-261.806
-260.817
-259.862
-237.284
-237.295
-237.318
-237.354
-237.402
-237.463
-237.536
-237.624
-237.728
-237.851
-237.993
-238.157
-238.346
-238.562
-238.808
-239.084
-239.394
-239.737
-240.112
-240.518
-240.951
-241.406
-241.876
-242.349
-242.814
-243.253
-243.648
-243.976
-244.211
-244.328
-244.301
-244.102
-243.71
-243.103
-242.266
-241.186
-239.854
-238.275
-236.464
-234.44
-232.231
-229.866
-227.381
-224.811
-222.194
-219.565
-216.958
-214.401
-211.921
-209.538
-207.267
-205.117
-203.095
-201.202
-199.438
-197.797
-196.275
-194.866
-193.558
-192.342
-191.21
-190.152
-189.16
-188.227
-187.346
-186.508
-185.708
-184.94
-184.198
-183.48
-182.779
-182.092
-181.416
-180.749
-180.087
-179.428
-178.771
-178.113
-177.453
-176.79
-176.123
-175.45
-174.771
-174.085
-173.392
-172.69
-171.981
-171.262
-170.535
-169.798
-169.052
-168.297
-167.531
-166.756
-165.972
-165.177
-164.372
-163.558
-162.734
-161.9
-161.056
-160.203
-159.34
-158.467
-157.584
-156.692
-155.79
-154.879
-153.958
-153.028
-152.088
-151.139
-150.181
-149.213
-148.236
-147.25
-146.255
-145.251
-144.237
-143.215
-142.183
-141.142
-140.092
-139.033
-137.965
-136.887
-135.8
-134.704
-133.599
-132.484
-131.36
-130.227
-129.084
-127.932
-126.771
-125.6
-124.42
-123.23
-122.031
-120.822
-119.603
-118.375
-117.137
-115.89
-114.632
-113.365
-112.087
-110.8
-109.502
-108.194
-106.876
-105.547
-104.208
-102.859
-101.498
-100.127
-98.7453
-97.3524
-95.9485
-94.5334
-93.1069
-91.669
-90.2193
-88.7578
-87.2841
-85.7979
-84.2989
-82.7865
-81.2604
-79.7194
-78.1631
-76.5892
-74.9973
-73.382
-71.7434
-70.0681
-68.3566
-66.5705
-64.7115
-62.6801
-237.212
-237.224
-237.251
-237.292
-237.348
-237.418
-237.502
-237.603
-237.721
-237.858
-238.017
-238.199
-238.407
-238.644
-238.911
-239.211
-239.543
-239.91
-240.312
-240.747
-241.211
-241.7
-242.206
-242.719
-243.224
-243.705
-244.142
-244.51
-244.784
-244.936
-244.936
-244.758
-244.375
-243.766
-242.915
-241.817
-240.463
-238.859
-237.019
-234.961
-232.714
-230.309
-227.781
-225.169
-222.509
-219.84
-217.194
-214.604
-212.094
-209.685
-207.391
-205.224
-203.187
-201.283
-199.51
-197.862
-196.333
-194.923
-193.61
-192.391
-191.255
-190.195
-189.201
-188.266
-187.382
-186.543
-185.741
-184.971
-184.228
-183.507
-182.805
-182.117
-181.44
-180.771
-180.108
-179.448
-178.789
-178.131
-177.47
-176.806
-176.137
-175.464
-174.784
-174.097
-173.403
-172.701
-171.991
-171.272
-170.544
-169.807
-169.06
-168.304
-167.538
-166.763
-165.978
-165.183
-164.378
-163.563
-162.739
-161.905
-161.061
-160.207
-159.343
-158.47
-157.587
-156.695
-155.793
-154.881
-153.961
-153.03
-152.09
-151.141
-150.183
-149.215
-148.238
-147.252
-146.257
-145.252
-144.239
-143.216
-142.184
-141.143
-140.093
-139.034
-137.965
-136.888
-135.801
-134.705
-133.599
-132.484
-131.36
-130.227
-129.084
-127.932
-126.771
-125.6
-124.42
-123.23
-122.031
-120.822
-119.604
-118.375
-117.138
-115.89
-114.632
-113.365
-112.087
-110.8
-109.502
-108.194
-106.876
-105.547
-104.208
-102.859
-101.498
-100.127
-98.7455
-97.3527
-95.9488
-94.5337
-93.1073
-91.6694
-90.2198
-88.7583
-87.2846
-85.7986
-84.2997
-82.7876
-81.2616
-79.7211
-78.165
-76.592
-75.0005
-73.3876
-71.7496
-70.0812
-68.3727
-66.6169
-64.7978
-62.9659
-237.307
-237.32
-237.35
-237.395
-237.456
-237.533
-237.627
-237.738
-237.868
-238.019
-238.192
-238.391
-238.618
-238.876
-239.166
-239.492
-239.854
-240.253
-240.691
-241.167
-241.677
-242.216
-242.778
-243.352
-243.923
-244.475
-244.985
-245.43
-245.779
-246.004
-246.071
-245.95
-245.613
-245.037
-244.203
-243.103
-241.725
-240.079
-238.181
-236.055
-233.73
-231.24
-228.623
-225.921
-223.173
-220.419
-217.694
-215.032
-212.458
-209.995
-207.656
-205.451
-203.384
-201.456
-199.664
-198.001
-196.461
-195.041
-193.721
-192.495
-191.353
-190.288
-189.289
-188.35
-187.462
-186.618
-185.812
-185.038
-184.292
-183.567
-182.862
-182.17
-181.49
-180.819
-180.153
-179.49
-178.829
-178.168
-177.505
-176.839
-176.168
-175.493
-174.811
-174.123
-173.427
-172.724
-172.012
-171.292
-170.563
-169.824
-169.076
-168.319
-167.553
-166.776
-165.99
-165.194
-164.389
-163.573
-162.748
-161.913
-161.068
-160.214
-159.35
-158.476
-157.593
-156.7
-155.798
-154.886
-153.965
-153.034
-152.094
-151.145
-150.186
-149.218
-148.241
-147.254
-146.259
-145.254
-144.24
-143.217
-142.186
-141.144
-140.094
-139.035
-137.966
-136.889
-135.801
-134.705
-133.6
-132.485
-131.361
-130.228
-129.085
-127.933
-126.771
-125.601
-124.42
-123.23
-122.031
-120.822
-119.604
-118.376
-117.138
-115.89
-114.633
-113.365
-112.088
-110.8
-109.502
-108.194
-106.876
-105.548
-104.209
-102.859
-101.499
-100.128
-98.7457
-97.3529
-95.949
-94.534
-93.1076
-91.6697
-90.2202
-88.7588
-87.2853
-85.7994
-84.3007
-82.7889
-81.2633
-79.7233
-78.1679
-76.596
-75.0057
-73.3953
-71.7603
-70.099
-68.4017
-66.6737
-64.9021
-63.1538
-237.527
-237.541
-237.572
-237.62
-237.685
-237.767
-237.866
-237.985
-238.125
-238.287
-238.474
-238.689
-238.935
-239.215
-239.532
-239.888
-240.288
-240.732
-241.221
-241.757
-242.336
-242.954
-243.606
-244.281
-244.964
-245.637
-246.276
-246.853
-247.335
-247.687
-247.869
-247.847
-247.586
-247.058
-246.244
-245.133
-243.718
-242.007
-240.02
-237.784
-235.333
-232.708
-229.951
-227.105
-224.216
-221.327
-218.476
-215.7
-213.026
-210.476
-208.065
-205.801
-203.688
-201.723
-199.902
-198.216
-196.659
-195.222
-193.89
-192.654
-191.503
-190.43
-189.423
-188.477
-187.581
-186.731
-185.919
-185.139
-184.387
-183.657
-182.946
-182.25
-181.565
-180.889
-180.218
-179.552
-178.887
-178.222
-177.556
-176.887
-176.213
-175.535
-174.851
-174.16
-173.462
-172.756
-172.042
-171.32
-170.589
-169.849
-169.099
-168.341
-167.572
-166.795
-166.007
-165.21
-164.403
-163.587
-162.761
-161.925
-161.08
-160.224
-159.36
-158.485
-157.601
-156.708
-155.805
-154.893
-153.971
-153.04
-152.099
-151.149
-150.19
-149.222
-148.244
-147.258
-146.262
-145.257
-144.243
-143.22
-142.188
-141.146
-140.096
-139.037
-137.968
-136.89
-135.803
-134.706
-133.601
-132.486
-131.362
-130.228
-129.086
-127.933
-126.772
-125.601
-124.421
-123.231
-122.032
-120.823
-119.604
-118.376
-117.138
-115.89
-114.633
-113.365
-112.088
-110.8
-109.503
-108.195
-106.876
-105.548
-104.209
-102.859
-101.499
-100.128
-98.746
-97.3532
-95.9494
-94.5344
-93.1081
-91.6703
-90.2209
-88.7596
-87.2863
-85.8006
-84.3023
-82.7908
-81.2657
-79.7264
-78.1719
-76.6014
-75.013
-73.4055
-71.7751
-70.1215
-68.4383
-66.7335
-65.0033
-63.306
-237.865
-237.878
-237.909
-237.957
-238.022
-238.105
-238.207
-238.33
-238.476
-238.647
-238.847
-239.078
-239.344
-239.65
-239.999
-240.396
-240.843
-241.345
-241.904
-242.521
-243.198
-243.931
-244.715
-245.539
-246.389
-247.245
-248.08
-248.86
-249.546
-250.094
-250.458
-250.592
-250.453
-250.007
-249.229
-248.107
-246.631
-244.814
-242.686
-240.281
-237.644
-234.819
-231.856
-228.802
-225.708
-222.621
-219.586
-216.643
-213.823
-211.149
-208.635
-206.287
-204.107
-202.09
-200.227
-198.51
-196.929
-195.47
-194.121
-192.871
-191.707
-190.622
-189.605
-188.648
-187.743
-186.883
-186.062
-185.274
-184.514
-183.777
-183.059
-182.356
-181.665
-180.983
-180.307
-179.635
-178.965
-178.295
-177.624
-176.951
-176.273
-175.591
-174.903
-174.209
-173.508
-172.799
-172.082
-171.357
-170.624
-169.881
-169.13
-168.369
-167.599
-166.819
-166.03
-165.231
-164.423
-163.605
-162.778
-161.941
-161.094
-160.238
-159.372
-158.497
-157.612
-156.718
-155.814
-154.901
-153.978
-153.047
-152.106
-151.155
-150.196
-149.227
-148.249
-147.262
-146.266
-145.261
-144.246
-143.223
-142.191
-141.149
-140.098
-139.039
-137.97
-136.892
-135.804
-134.708
-133.602
-132.487
-131.363
-130.229
-129.086
-127.934
-126.773
-125.602
-124.421
-123.231
-122.032
-120.823
-119.604
-118.376
-117.138
-115.891
-114.633
-113.366
-112.088
-110.801
-109.503
-108.195
-106.877
-105.548
-104.209
-102.859
-101.499
-100.128
-98.7463
-97.3536
-95.9498
-94.5349
-93.1086
-91.671
-90.2217
-88.7606
-87.2875
-85.8021
-84.3041
-82.7932
-81.2687
-79.7303
-78.1769
-76.608
-75.0219
-73.4178
-71.7928
-70.1477
-68.4785
-66.7948
-65.0982
-63.4362
-238.283
-238.296
-238.326
-238.373
-238.438
-238.521
-238.625
-238.752
-238.904
-239.085
-239.299
-239.548
-239.839
-240.176
-240.563
-241.007
-241.514
-242.09
-242.74
-243.469
-244.278
-245.166
-246.131
-247.164
-248.25
-249.368
-250.487
-251.569
-252.564
-253.414
-254.059
-254.437
-254.488
-254.164
-253.429
-252.27
-250.688
-248.71
-246.377
-243.733
-240.831
-237.725
-234.471
-231.124
-227.741
-224.377
-221.083
-217.905
-214.881
-212.034
-209.379
-206.919
-204.649
-202.562
-200.646
-198.887
-197.276
-195.79
-194.418
-193.147
-191.966
-190.865
-189.834
-188.863
-187.946
-187.074
-186.242
-185.444
-184.673
-183.927
-183.2
-182.488
-181.789
-181.099
-180.416
-179.737
-179.061
-178.385
-177.708
-177.029
-176.347
-175.66
-174.968
-174.269
-173.564
-172.852
-172.132
-171.403
-170.667
-169.921
-169.167
-168.404
-167.631
-166.849
-166.058
-165.257
-164.447
-163.628
-162.799
-161.96
-161.112
-160.254
-159.387
-158.511
-157.625
-156.73
-155.825
-154.911
-153.988
-153.055
-152.114
-151.163
-150.203
-149.233
-148.255
-147.267
-146.271
-145.265
-144.25
-143.227
-142.194
-141.152
-140.101
-139.041
-137.972
-136.894
-135.806
-134.709
-133.603
-132.488
-131.364
-130.23
-129.087
-127.935
-126.773
-125.602
-124.422
-123.232
-122.032
-120.823
-119.605
-118.377
-117.139
-115.891
-114.633
-113.366
-112.088
-110.801
-109.503
-108.195
-106.877
-105.548
-104.209
-102.86
-101.499
-100.128
-98.7467
-97.354
-95.9503
-94.5354
-93.1093
-91.6717
-90.2226
-88.7617
-87.2889
-85.8039
-84.3063
-82.7959
-81.2722
-79.7348
-78.1828
-76.6158
-75.0323
-73.432
-71.8129
-70.1762
-68.5207
-66.8551
-65.1855
-63.5461
-238.747
-238.76
-238.791
-238.838
-238.903
-238.989
-239.096
-239.229
-239.39
-239.582
-239.811
-240.082
-240.4
-240.773
-241.206
-241.709
-242.29
-242.959
-243.724
-244.592
-245.57
-246.662
-247.87
-249.188
-250.607
-252.103
-253.641
-255.17
-256.625
-257.928
-258.994
-259.733
-260.063
-259.909
-259.229
-258.013
-256.301
-254.105
-251.473
-248.472
-245.179
-241.668
-238.006
-234.254
-230.473
-226.723
-223.065
-219.558
-216.248
-213.162
-210.314
-207.703
-205.318
-203.143
-201.161
-199.354
-197.7
-196.181
-194.78
-193.485
-192.282
-191.161
-190.111
-189.123
-188.19
-187.304
-186.458
-185.646
-184.863
-184.105
-183.367
-182.645
-181.937
-181.238
-180.546
-179.859
-179.175
-178.492
-177.809
-177.123
-176.435
-175.742
-175.045
-174.341
-173.631
-172.914
-172.19
-171.458
-170.717
-169.969
-169.211
-168.445
-167.669
-166.885
-166.091
-165.288
-164.476
-163.654
-162.823
-161.983
-161.133
-160.274
-159.405
-158.528
-157.64
-156.744
-155.838
-154.923
-153.999
-153.066
-152.123
-151.171
-150.211
-149.241
-148.262
-147.274
-146.276
-145.27
-144.255
-143.231
-142.198
-141.156
-140.104
-139.044
-137.975
-136.896
-135.808
-134.711
-133.605
-132.49
-131.365
-130.231
-129.088
-127.936
-126.774
-125.603
-124.423
-123.233
-122.033
-120.824
-119.605
-118.377
-117.139
-115.891
-114.634
-113.366
-112.089
-110.801
-109.504
-108.196
-106.877
-105.549
-104.21
-102.86
-101.5
-100.129
-98.7471
-97.3545
-95.9508
-94.5361
-93.11
-91.6726
-90.2237
-88.7631
-87.2905
-85.8059
-84.3088
-82.7991
-81.2762
-79.7399
-78.1894
-76.6244
-75.0439
-73.4476
-71.8346
-70.2062
-68.5631
-66.913
-65.2641
-63.6402
-239.233
-239.246
-239.278
-239.327
-239.395
-239.484
-239.597
-239.736
-239.907
-240.113
-240.361
-240.656
-241.005
-241.418
-241.905
-242.476
-243.145
-243.924
-244.827
-245.866
-247.058
-248.414
-249.947
-251.662
-253.549
-255.584
-257.721
-259.894
-262.017
-263.98
-265.655
-266.91
-267.631
-267.73
-267.132
-265.863
-263.899
-261.301
-258.171
-254.629
-250.793
-246.761
-242.604
-238.37
-234.102
-229.854
-225.704
-221.735
-218.019
-214.594
-211.476
-208.657
-206.117
-203.83
-201.77
-199.904
-198.202
-196.643
-195.209
-193.883
-192.654
-191.508
-190.435
-189.427
-188.475
-187.57
-186.708
-185.881
-185.084
-184.312
-183.561
-182.827
-182.107
-181.397
-180.696
-180
-179.307
-178.615
-177.924
-177.231
-176.536
-175.837
-175.133
-174.424
-173.708
-172.986
-172.257
-171.52
-170.776
-170.023
-169.262
-168.492
-167.713
-166.925
-166.129
-165.323
-164.508
-163.684
-162.851
-162.009
-161.157
-160.296
-159.426
-158.547
-157.658
-156.76
-155.853
-154.937
-154.012
-153.077
-152.134
-151.181
-150.22
-149.249
-148.269
-147.281
-146.283
-145.276
-144.261
-143.236
-142.202
-141.16
-140.108
-139.047
-137.978
-136.899
-135.811
-134.713
-133.607
-132.492
-131.367
-130.233
-129.09
-127.937
-126.775
-125.604
-124.423
-123.233
-122.034
-120.825
-119.606
-118.378
-117.14
-115.892
-114.634
-113.367
-112.089
-110.802
-109.504
-108.196
-106.878
-105.549
-104.21
-102.86
-101.5
-100.129
-98.7476
-97.355
-95.9515
-94.5368
-93.1109
-91.6736
-90.2249
-88.7645
-87.2923
-85.8081
-84.3116
-82.8025
-81.2806
-79.7455
-78.1967
-76.6339
-75.0564
-73.4643
-71.8572
-70.2366
-68.6046
-66.9677
-65.3346
-63.7222
-239.716
-239.73
-239.764
-239.815
-239.887
-239.98
-240.099
-240.246
-240.427
-240.648
-240.915
-241.235
-241.619
-242.077
-242.623
-243.272
-244.04
-244.944
-246.007
-247.252
-248.71
-250.413
-252.386
-254.642
-257.172
-259.941
-262.886
-265.921
-268.924
-271.737
-274.174
-276.068
-277.269
-277.657
-277.172
-275.602
-273.102
-269.816
-265.931
-261.645
-257.142
-252.553
-247.931
-243.277
-238.58
-233.846
-229.144
-224.593
-220.324
-216.428
-212.931
-209.821
-207.067
-204.633
-202.471
-200.53
-198.773
-197.171
-195.7
-194.341
-193.08
-191.905
-190.806
-189.774
-188.799
-187.873
-186.991
-186.146
-185.332
-184.545
-183.78
-183.032
-182.299
-181.578
-180.865
-180.158
-179.455
-178.754
-178.054
-177.353
-176.65
-175.943
-175.232
-174.517
-173.795
-173.067
-172.333
-171.591
-170.841
-170.084
-169.319
-168.545
-167.762
-166.971
-166.172
-165.363
-164.545
-163.719
-162.883
-162.038
-161.184
-160.321
-159.449
-158.568
-157.678
-156.779
-155.87
-154.953
-154.026
-153.091
-152.146
-151.192
-150.23
-149.258
-148.278
-147.289
-146.29
-145.283
-144.267
-143.242
-142.208
-141.164
-140.112
-139.051
-137.981
-136.902
-135.813
-134.716
-133.609
-132.494
-131.369
-130.234
-129.091
-127.938
-126.776
-125.605
-124.424
-123.234
-122.035
-120.825
-119.607
-118.378
-117.14
-115.893
-114.635
-113.367
-112.09
-110.802
-109.504
-108.196
-106.878
-105.549
-104.21
-102.861
-101.501
-100.13
-98.7481
-97.3556
-95.9521
-94.5376
-93.1118
-91.6747
-90.2262
-88.7661
-87.2943
-85.8105
-84.3146
-82.8063
-81.2854
-79.7515
-78.2045
-76.6439
-75.0695
-73.4815
-71.8801
-70.2669
-68.6445
-67.0188
-65.3978
-63.7941
-240.173
-240.189
-240.226
-240.28
-240.355
-240.453
-240.577
-240.732
-240.924
-241.158
-241.444
-241.789
-242.206
-242.71
-243.317
-244.045
-244.916
-245.955
-247.197
-248.69
-250.487
-252.639
-255.181
-258.122
-261.439
-265.077
-268.953
-272.952
-276.933
-280.731
-284.133
-286.878
-288.693
-289.332
-288.655
-286.729
-283.605
-279.454
-274.538
-269.171
-263.655
-258.224
-253.036
-248.094
-243.237
-238.288
-233.199
-228.092
-223.193
-218.705
-214.717
-211.228
-208.2
-205.574
-203.268
-201.228
-199.403
-197.752
-196.242
-194.848
-193.555
-192.349
-191.22
-190.16
-189.159
-188.21
-187.306
-186.441
-185.608
-184.803
-184.021
-183.259
-182.512
-181.777
-181.051
-180.333
-179.619
-178.908
-178.198
-177.487
-176.775
-176.061
-175.342
-174.619
-173.891
-173.157
-172.416
-171.669
-170.914
-170.152
-169.381
-168.603
-167.817
-167.022
-166.219
-165.407
-164.586
-163.756
-162.918
-162.071
-161.214
-160.349
-159.475
-158.592
-157.7
-156.799
-155.889
-154.97
-154.042
-153.105
-152.159
-151.205
-150.241
-149.269
-148.287
-147.297
-146.298
-145.29
-144.273
-143.248
-142.213
-141.17
-140.117
-139.055
-137.985
-136.905
-135.816
-134.719
-133.612
-132.496
-131.371
-130.236
-129.093
-127.94
-126.778
-125.606
-124.425
-123.235
-122.035
-120.826
-119.608
-118.379
-117.141
-115.893
-114.635
-113.368
-112.09
-110.803
-109.505
-108.197
-106.879
-105.55
-104.211
-102.861
-101.501
-100.13
-98.7487
-97.3562
-95.9528
-94.5384
-93.1128
-91.6759
-90.2276
-88.7678
-87.2963
-85.813
-84.3177
-82.8102
-81.2904
-79.7579
-78.2126
-76.6543
-75.083
-73.499
-71.903
-70.2965
-68.6825
-67.0661
-65.4545
-63.8573
-240.58
-240.6
-240.641
-240.698
-240.777
-240.88
-241.01
-241.172
-241.372
-241.619
-241.92
-242.286
-242.734
-243.279
-243.942
-244.745
-245.714
-246.892
-248.335
-250.116
-252.313
-254.983
-258.152
-261.806
-265.9
-270.378
-275.188
-280.279
-285.557
-290.846
-295.855
-300.144
-303.211
-304.653
-304.212
-302.066
-298.178
-292.725
-286.088
-278.795
-271.385
-264.297
-257.838
-252.157
-247.106
-242.254
-237.199
-231.833
-226.41
-221.309
-216.768
-212.847
-209.506
-206.638
-204.159
-201.998
-200.088
-198.377
-196.823
-195.394
-194.068
-192.83
-191.671
-190.581
-189.552
-188.577
-187.649
-186.762
-185.908
-185.084
-184.285
-183.506
-182.743
-181.994
-181.254
-180.523
-179.797
-179.075
-178.354
-177.634
-176.912
-176.189
-175.462
-174.731
-173.995
-173.254
-172.507
-171.754
-170.993
-170.225
-169.45
-168.667
-167.876
-167.077
-166.27
-165.454
-164.63
-163.797
-162.956
-162.106
-161.247
-160.379
-159.503
-158.618
-157.724
-156.821
-155.909
-154.989
-154.059
-153.121
-152.174
-151.218
-150.254
-149.28
-148.298
-147.307
-146.307
-145.298
-144.281
-143.254
-142.219
-141.175
-140.122
-139.06
-137.989
-136.909
-135.82
-134.722
-133.615
-132.498
-131.373
-130.238
-129.094
-127.941
-126.779
-125.607
-124.427
-123.236
-122.036
-120.827
-119.608
-118.38
-117.142
-115.894
-114.636
-113.368
-112.091
-110.803
-109.505
-108.197
-106.879
-105.55
-104.211
-102.862
-101.502
-100.131
-98.7493
-97.3569
-95.9536
-94.5392
-93.1138
-91.6771
-90.229
-88.7695
-87.2985
-85.8157
-84.321
-82.8144
-81.2955
-79.7644
-78.2209
-76.6649
-75.0967
-73.5165
-71.9254
-70.325
-68.7183
-67.1097
-65.5054
-63.9132
-240.922
-240.948
-240.994
-241.055
-241.139
-241.245
-241.379
-241.545
-241.751
-242.004
-242.315
-242.697
-243.166
-243.743
-244.45
-245.313
-246.372
-247.684
-249.328
-251.402
-253.99
-257.144
-260.876
-265.16
-269.971
-275.323
-281.265
-287.837
-294.986
-302.475
-309.842
-316.407
-321.403
-324.225
-324.507
-322.094
-317.109
-309.895
-301.019
-291.202
-281.216
-271.707
-263.134
-255.873
-250.076
-245.263
-240.471
-235.231
-229.558
-223.967
-218.927
-214.582
-210.898
-207.776
-205.114
-202.82
-200.816
-199.037
-197.433
-195.965
-194.606
-193.338
-192.149
-191.03
-189.973
-188.971
-188.017
-187.106
-186.231
-185.386
-184.568
-183.771
-182.992
-182.227
-181.473
-180.728
-179.989
-179.255
-178.523
-177.791
-177.06
-176.327
-175.591
-174.852
-174.108
-173.359
-172.605
-171.845
-171.078
-170.305
-169.524
-168.736
-167.94
-167.137
-166.325
-165.506
-164.678
-163.842
-162.997
-162.144
-161.282
-160.412
-159.533
-158.646
-157.749
-156.845
-155.931
-155.009
-154.078
-153.138
-152.19
-151.233
-150.267
-149.292
-148.309
-147.317
-146.316
-145.307
-144.289
-143.262
-142.226
-141.181
-140.127
-139.065
-137.993
-136.913
-135.823
-134.725
-133.617
-132.501
-131.375
-130.24
-129.096
-127.943
-126.781
-125.609
-124.428
-123.237
-122.038
-120.828
-119.609
-118.381
-117.143
-115.895
-114.637
-113.369
-112.091
-110.804
-109.506
-108.198
-106.88
-105.551
-104.212
-102.862
-101.502
-100.131
-98.7499
-97.3576
-95.9544
-94.5401
-93.1148
-91.6783
-90.2305
-88.7714
-87.3007
-85.8184
-84.3244
-82.8186
-81.3008
-79.7711
-78.2293
-76.6756
-75.1102
-73.5337
-71.9471
-70.3522
-68.7517
-67.1496
-65.5512
-63.9628
-241.19
-241.225
-241.278
-241.346
-241.435
-241.544
-241.679
-241.845
-242.049
-242.301
-242.612
-242.999
-243.48
-244.064
-244.796
-245.699
-246.824
-248.241
-250.046
-252.352
-255.248
-258.782
-262.959
-267.771
-273.246
-279.503
-286.694
-294.915
-304.078
-313.798
-323.397
-331.968
-338.514
-342.257
-342.838
-340.097
-334.223
-325.633
-314.986
-303.097
-290.946
-279.374
-268.76
-259.638
-252.56
-247.412
-242.853
-237.909
-232.268
-226.423
-220.996
-216.268
-212.276
-208.918
-206.08
-203.657
-201.561
-199.715
-198.06
-196.551
-195.159
-193.862
-192.645
-191.498
-190.414
-189.385
-188.406
-187.47
-186.572
-185.706
-184.868
-184.052
-183.256
-182.474
-181.705
-180.946
-180.193
-179.446
-178.702
-177.959
-177.217
-176.473
-175.728
-174.98
-174.228
-173.471
-172.709
-171.942
-171.169
-170.389
-169.603
-168.809
-168.008
-167.2
-166.384
-165.56
-164.729
-163.889
-163.041
-162.184
-161.32
-160.447
-159.565
-158.675
-157.777
-156.87
-155.954
-155.03
-154.098
-153.156
-152.207
-151.248
-150.281
-149.305
-148.321
-147.328
-146.326
-145.316
-144.297
-143.269
-142.233
-141.187
-140.133
-139.07
-137.998
-136.917
-135.827
-134.728
-133.62
-132.504
-131.378
-130.243
-129.098
-127.945
-126.782
-125.61
-124.429
-123.239
-122.039
-120.829
-119.61
-118.382
-117.143
-115.895
-114.638
-113.37
-112.092
-110.804
-109.506
-108.198
-106.88
-105.551
-104.212
-102.863
-101.503
-100.132
-98.7505
-97.3583
-95.9552
-94.5411
-93.1159
-91.6796
-90.2321
-88.7732
-87.303
-85.8212
-84.3278
-82.8228
-81.3061
-79.7777
-78.2377
-76.6861
-75.1235
-73.5503
-71.9679
-70.3778
-68.7827
-67.186
-65.5924
-64.0068
-241.39
-241.436
-241.503
-241.581
-241.675
-241.786
-241.918
-242.077
-242.272
-242.513
-242.81
-243.183
-243.65
-244.233
-244.96
-245.869
-247.017
-248.484
-250.375
-252.803
-255.869
-259.621
-264.075
-269.239
-275.192
-282.106
-290.167
-299.491
-309.932
-320.99
-331.878
-341.624
-349.129
-353.44
-354.224
-351.352
-344.982
-335.55
-323.792
-310.623
-297.191
-284.612
-273.103
-262.861
-254.706
-248.992
-244.478
-239.813
-234.359
-228.433
-222.754
-217.746
-213.52
-209.98
-207
-204.469
-202.293
-200.388
-198.688
-197.142
-195.717
-194.391
-193.148
-191.976
-190.868
-189.815
-188.811
-187.851
-186.93
-186.042
-185.183
-184.348
-183.533
-182.735
-181.949
-181.175
-180.408
-179.647
-178.89
-178.136
-177.382
-176.628
-175.873
-175.115
-174.354
-173.589
-172.82
-172.045
-171.265
-170.479
-169.686
-168.887
-168.081
-167.267
-166.447
-165.618
-164.782
-163.939
-163.087
-162.227
-161.36
-160.484
-159.599
-158.707
-157.806
-156.897
-155.979
-155.053
-154.119
-153.176
-152.224
-151.264
-150.296
-149.319
-148.334
-147.34
-146.337
-145.326
-144.306
-143.277
-142.24
-141.194
-140.139
-139.075
-138.003
-136.922
-135.831
-134.732
-133.624
-132.507
-131.38
-130.245
-129.1
-127.947
-126.784
-125.612
-124.431
-123.24
-122.04
-120.83
-119.611
-118.383
-117.144
-115.896
-114.638
-113.371
-112.093
-110.805
-109.507
-108.199
-106.881
-105.552
-104.213
-102.863
-101.503
-100.133
-98.7512
-97.359
-95.956
-94.542
-93.117
-91.6809
-90.2336
-88.7751
-87.3052
-85.824
-84.3313
-82.8271
-81.3114
-79.7843
-78.2459
-76.6964
-75.1363
-73.5663
-71.9876
-70.4017
-68.8112
-67.2192
-65.6293
-64.0459
-241.544
-241.603
-241.692
-241.785
-241.885
-241.994
-242.118
-242.263
-242.438
-242.654
-242.924
-243.266
-243.7
-244.249
-244.94
-245.813
-246.927
-248.367
-250.24
-252.659
-255.725
-259.497
-263.999
-269.252
-275.338
-282.42
-290.669
-300.19
-310.833
-322.098
-333.183
-343.125
-350.868
-355.478
-356.486
-353.625
-347.181
-337.613
-325.755
-312.482
-298.866
-286.143
-274.82
-264.675
-256.152
-250.025
-245.493
-241.021
-235.753
-229.839
-224.039
-218.881
-214.528
-210.889
-207.827
-205.227
-202.992
-201.041
-199.304
-197.727
-196.273
-194.919
-193.651
-192.457
-191.327
-190.252
-189.226
-188.244
-187.3
-186.39
-185.51
-184.655
-183.822
-183.006
-182.204
-181.414
-180.633
-179.858
-179.088
-178.321
-177.555
-176.79
-176.025
-175.257
-174.487
-173.713
-172.935
-172.153
-171.365
-170.572
-169.773
-168.968
-168.156
-167.338
-166.512
-165.679
-164.839
-163.991
-163.136
-162.272
-161.401
-160.522
-159.635
-158.74
-157.837
-156.925
-156.005
-155.077
-154.141
-153.196
-152.243
-151.282
-150.312
-149.334
-148.347
-147.352
-146.348
-145.336
-144.315
-143.286
-142.248
-141.201
-140.145
-139.081
-138.008
-136.926
-135.835
-134.736
-133.627
-132.51
-131.383
-130.247
-129.103
-127.949
-126.786
-125.614
-124.432
-123.241
-122.041
-120.832
-119.612
-118.384
-117.145
-115.897
-114.639
-113.371
-112.093
-110.806
-109.508
-108.2
-106.881
-105.552
-104.213
-102.864
-101.504
-100.133
-98.7518
-97.3597
-95.9568
-94.5429
-93.1181
-91.6822
-90.2351
-88.7769
-87.3075
-85.8267
-84.3347
-82.8313
-81.3166
-79.7908
-78.2539
-76.7063
-75.1486
-73.5815
-72.006
-70.424
-68.8374
-67.2492
-65.6625
-64.0808
-241.71
-241.782
-241.904
-242.017
-242.121
-242.221
-242.325
-242.441
-242.58
-242.754
-242.978
-243.268
-243.646
-244.133
-244.756
-245.551
-246.572
-247.902
-249.642
-251.905
-254.788
-258.361
-262.652
-267.673
-273.465
-280.126
-287.799
-296.567
-306.3
-316.569
-326.666
-335.731
-342.837
-347.175
-348.229
-345.727
-339.845
-331.079
-320.279
-308.317
-295.939
-284.186
-273.749
-264.485
-256.514
-250.502
-246.014
-241.651
-236.489
-230.606
-224.789
-219.623
-215.273
-211.636
-208.566
-205.942
-203.675
-201.69
-199.923
-198.32