/*--------------------------------*- C++ -*----------------------------------*\
  =========                 |
  \\      /  F ield         | OpenFOAM: The Open Source CFD Toolbox
   \\    /   O peration     | Website:  https://openfoam.org
    \\  /    A nd           | Version:  9
     \\/     M anipulation  |
\*---------------------------------------------------------------------------*/
FoamFile
{
    format      ascii;
    class       surfaceScalarField;
    location    "0.009";
    object      phi;
}
// * * * * * * * * * * * * * * * * * * * * * * * * * * * * * * * * * * * * * //

dimensions      [0 3 -1 0 0 0 0];

internalField   nonuniform List<scalar> 
24170
(
3.07163e-06
5.28472e-08
2.97739e-06
9.42385e-08
2.90445e-06
7.2937e-08
2.82383e-06
8.06218e-08
2.72739e-06
9.64359e-08
2.62433e-06
1.03057e-07
2.52933e-06
9.50023e-08
2.45154e-06
7.77921e-08
2.39126e-06
6.02831e-08
2.33997e-06
5.12915e-08
2.28889e-06
5.10717e-08
2.23048e-06
5.8416e-08
2.16433e-06
6.61499e-08
2.09184e-06
7.24845e-08
2.01932e-06
7.25282e-08
1.9528e-06
6.65123e-08
1.88341e-06
6.93886e-08
6.65049e-08
1.81691e-06
3.40731e-06
3.67361e-08
3.38438e-06
1.17174e-07
3.39218e-06
6.5138e-08
3.42176e-06
5.10356e-08
3.45273e-06
6.5473e-08
3.47621e-06
7.95744e-08
3.49106e-06
8.01517e-08
3.49763e-06
7.12177e-08
3.49436e-06
6.35548e-08
3.48012e-06
6.55329e-08
3.45761e-06
7.35871e-08
3.43216e-06
8.38584e-08
3.40914e-06
8.91701e-08
3.39077e-06
9.08554e-08
3.37549e-06
8.78096e-08
3.36175e-06
8.02573e-08
3.3512e-06
7.99331e-08
7.51292e-08
3.34258e-06
3.61377e-06
1.53297e-08
3.62089e-06
1.10055e-07
3.65456e-06
3.14645e-08
3.71021e-06
-4.6092e-09
3.75694e-06
1.87468e-08
3.77564e-06
6.08737e-08
3.76843e-06
8.73568e-08
3.7518e-06
8.78471e-08
3.74022e-06
7.51373e-08
3.73856e-06
6.71941e-08
3.742e-06
7.01454e-08
3.74531e-06
8.05488e-08
3.74451e-06
8.9969e-08
3.74167e-06
9.36916e-08
3.73866e-06
9.08217e-08
3.7387e-06
8.02237e-08
3.74615e-06
7.24747e-08
6.40677e-08
3.75722e-06
3.93303e-06
-7.93049e-08
3.97223e-06
7.08535e-08
3.97858e-06
2.51198e-08
3.98669e-06
-1.27206e-08
4.0077e-06
-2.26532e-09
4.02755e-06
4.10283e-08
4.03344e-06
8.14576e-08
4.02703e-06
9.42667e-08
4.0155e-06
8.66606e-08
4.00433e-06
7.83642e-08
3.99512e-06
7.93564e-08
3.98757e-06
8.80957e-08
3.98102e-06
9.65276e-08
3.97596e-06
9.87457e-08
3.97316e-06
9.36259e-08
3.97236e-06
8.1023e-08
3.97624e-06
6.8591e-08
5.76532e-08
3.98266e-06
4.1418e-06
-2.65008e-08
4.17421e-06
3.84411e-08
4.2062e-06
-6.86961e-09
4.22798e-06
-3.44958e-08
4.24342e-06
-1.77064e-08
4.25706e-06
2.73864e-08
4.27057e-06
6.79494e-08
4.28374e-06
8.10981e-08
4.29602e-06
7.43741e-08
4.30682e-06
6.75691e-08
4.31459e-06
7.15837e-08
4.31726e-06
8.54301e-08
4.31281e-06
1.00973e-07
4.30034e-06
1.1122e-07
4.28133e-06
1.12629e-07
4.25787e-06
1.04484e-07
4.23458e-06
9.1888e-08
7.79986e-08
4.21423e-06
4.56422e-06
-1.97591e-08
4.53817e-06
6.44887e-08
4.54443e-06
-1.31292e-08
4.5475e-06
-3.75641e-08
4.53013e-06
-3.41514e-10
4.51285e-06
4.46695e-08
4.51619e-06
6.46061e-08
4.53739e-06
5.98967e-08
4.561e-06
5.0766e-08
4.57532e-06
5.32481e-08
4.57774e-06
6.91644e-08
4.57192e-06
9.12538e-08
4.5631e-06
1.09788e-07
4.55521e-06
1.19109e-07
4.54973e-06
1.18117e-07
4.54584e-06
1.08365e-07
4.54222e-06
9.55169e-08
8.28105e-08
4.5374e-06
4.79905e-06
3.81505e-08
4.80621e-06
5.73301e-08
4.83868e-06
-4.56006e-08
4.87556e-06
-7.445e-08
4.90918e-06
-3.39533e-08
4.93448e-06
1.93654e-08
4.94154e-06
5.75412e-08
4.92897e-06
7.24688e-08
4.90687e-06
7.28698e-08
4.88876e-06
7.13594e-08
4.88255e-06
7.53705e-08
4.88806e-06
8.5743e-08
4.89994e-06
9.79117e-08
4.91181e-06
1.0724e-07
4.91847e-06
1.11453e-07
4.91698e-06
1.09857e-07
4.90708e-06
1.05415e-07
9.90818e-08
4.89081e-06
5.13105e-06
3.71739e-08
5.15632e-06
3.20641e-08
5.17593e-06
-6.52171e-08
5.16981e-06
-6.8324e-08
5.16448e-06
-2.8627e-08
5.17511e-06
8.73689e-09
5.19764e-06
3.50054e-08
5.2172e-06
5.29156e-08
5.22353e-06
6.65319e-08
5.21927e-06
7.56214e-08
5.21422e-06
8.0427e-08
5.21697e-06
8.29932e-08
5.22893e-06
8.59477e-08
5.24621e-06
8.99614e-08
5.26216e-06
9.55065e-08
5.27177e-06
1.00245e-07
5.2731e-06
1.04081e-07
1.05319e-07
5.26686e-06
5.46988e-06
3.14917e-08
5.55001e-06
-4.80617e-08
5.58006e-06
-9.52763e-08
5.55351e-06
-4.17664e-08
5.50929e-06
1.55947e-08
5.48745e-06
3.05729e-08
5.51119e-06
1.12613e-08
5.56887e-06
-4.76445e-09
5.63149e-06
3.91469e-09
5.67527e-06
3.18384e-08
5.69145e-06
6.42481e-08
5.68622e-06
8.8226e-08
5.67245e-06
9.97181e-08
5.66213e-06
1.00284e-07
5.66186e-06
9.57742e-08
5.67238e-06
8.97192e-08
5.69169e-06
8.47782e-08
8.2561e-08
5.71445e-06
6.10621e-06
2.34157e-08
6.01897e-06
3.91813e-08
5.90763e-06
1.60632e-08
5.84839e-06
1.74779e-08
5.84822e-06
1.576e-08
5.88611e-06
-7.31963e-09
5.937e-06
-3.9628e-08
5.98585e-06
-5.36111e-08
6.02317e-06
-3.34e-08
6.04147e-06
1.35373e-08
6.04014e-06
6.55719e-08
6.02508e-06
1.0329e-07
6.00678e-06
1.18012e-07
5.99434e-06
1.12727e-07
5.99308e-06
9.70317e-08
6.00244e-06
8.03654e-08
6.01909e-06
6.8131e-08
6.3622e-08
6.03802e-06
6.43557e-06
1.35658e-07
6.41837e-06
5.63832e-08
6.43612e-06
-1.68489e-09
6.45718e-06
-3.58542e-09
6.46506e-06
7.88002e-09
6.46214e-06
-4.39844e-09
6.45617e-06
-3.36526e-08
6.45077e-06
-4.8211e-08
6.44609e-06
-2.87261e-08
6.44045e-06
1.91848e-08
6.4353e-06
7.07153e-08
6.43248e-06
1.06108e-07
6.43368e-06
1.16813e-07
6.43828e-06
1.08134e-07
6.44488e-06
9.043e-08
6.45057e-06
7.46719e-08
6.45427e-06
6.44278e-08
6.24999e-08
6.4554e-06
5.84618e-06
1.79363e-07
5.77719e-06
1.25371e-07
5.78183e-06
-6.32485e-09
5.7975e-06
-1.92508e-08
5.79661e-06
8.76694e-09
5.78599e-06
6.22876e-09
5.77306e-06
-2.0731e-08
5.7636e-06
-3.87489e-08
5.75803e-06
-2.31538e-08
5.75763e-06
1.95795e-08
5.75999e-06
6.8357e-08
5.76448e-06
1.01619e-07
5.76962e-06
1.11675e-07
5.77369e-06
1.04063e-07
5.7757e-06
8.84231e-08
5.77608e-06
7.42882e-08
5.77657e-06
6.39363e-08
5.95051e-08
5.77957e-06
6.89656e-06
1.21543e-07
6.88852e-06
1.33416e-07
6.92988e-06
-4.76848e-08
6.99056e-06
-7.99351e-08
7.04243e-06
-4.30962e-08
7.07636e-06
-2.77029e-08
7.08303e-06
-2.7407e-08
7.05807e-06
-1.37833e-08
7.01094e-06
2.3973e-08
6.96116e-06
6.93604e-08
6.92793e-06
1.01588e-07
6.92063e-06
1.08919e-07
6.93838e-06
9.3927e-08
6.97389e-06
6.85457e-08
7.01616e-06
4.61563e-08
7.05761e-06
3.28403e-08
7.09193e-06
2.96152e-08
3.22273e-08
7.11921e-06
8.55021e-06
1.21294e-07
8.64038e-06
4.3249e-08
8.64267e-06
-4.99753e-08
8.61763e-06
-5.48934e-08
8.61589e-06
-4.13565e-08
8.63026e-06
-4.20722e-08
8.64137e-06
-3.85184e-08
8.63288e-06
-5.29761e-09
8.6049e-06
5.19573e-08
8.57097e-06
1.03287e-07
8.54983e-06
1.2273e-07
8.55344e-06
1.05314e-07
8.58347e-06
6.38974e-08
8.63388e-06
1.81339e-08
8.69362e-06
-1.35848e-08
8.75263e-06
-2.61736e-08
8.80237e-06
-2.01258e-08
-1.72815e-09
8.83633e-06
1.03631e-05
2.2496e-08
1.04017e-05
4.65231e-09
1.03761e-05
-2.43608e-08
1.04057e-05
-8.44946e-08
1.04863e-05
-1.21943e-07
1.05601e-05
-1.15867e-07
1.05893e-05
-6.77252e-08
1.05823e-05
1.67322e-09
1.05705e-05
6.37264e-08
1.05763e-05
9.75658e-08
1.05991e-05
9.98746e-08
1.06257e-05
7.86884e-08
1.0642e-05
4.76485e-08
1.06413e-05
1.88063e-08
1.06283e-05
-5.79547e-10
1.06112e-05
-9.03039e-09
1.05992e-05
-8.11284e-09
-3.1043e-11
1.05975e-05
1.30417e-05
-4.64166e-08
1.29635e-05
8.28666e-08
1.28169e-05
1.22244e-07
1.27152e-05
1.71484e-08
1.26809e-05
-8.7619e-08
1.26769e-05
-1.11885e-07
1.26637e-05
-5.4542e-08
1.26401e-05
2.53095e-08
1.26212e-05
8.26279e-08
1.26223e-05
9.64312e-08
1.26485e-05
7.36619e-08
1.2694e-05
3.31781e-08
1.27473e-05
-5.61198e-09
1.27956e-05
-2.95014e-08
1.28323e-05
-3.72742e-08
1.28555e-05
-3.22373e-08
1.28675e-05
-2.01303e-08
-6.07418e-09
1.28736e-05
1.54192e-05
5.42661e-08
1.5303e-05
1.9906e-07
1.5331e-05
9.4195e-08
1.53586e-05
-1.03722e-08
1.53248e-05
-5.38926e-08
1.5258e-05
-4.50534e-08
1.52174e-05
-1.39308e-08
1.52306e-05
1.21217e-08
1.53e-05
1.31814e-08
1.54072e-05
-1.07126e-08
1.55259e-05
-4.50917e-08
1.56375e-05
-7.83736e-08
1.57278e-05
-9.59218e-08
1.57926e-05
-9.43272e-08
1.58331e-05
-7.77602e-08
1.58548e-05
-5.39929e-08
1.58654e-05
-3.06512e-08
-1.32206e-08
1.58725e-05
1.84222e-05
-1.95668e-07
1.87077e-05
-8.6427e-08
1.88747e-05
-7.28787e-08
1.89416e-05
-7.7264e-08
1.8947e-05
-5.9264e-08
1.89218e-05
-1.9891e-08
1.89052e-05
2.71335e-09
1.89256e-05
-8.27398e-09
1.8981e-05
-4.22589e-08
1.90481e-05
-7.77847e-08
1.91047e-05
-1.01733e-07
1.9135e-05
-1.08616e-07
1.9138e-05
-9.89246e-08
1.91224e-05
-7.8787e-08
1.91012e-05
-5.64853e-08
1.90851e-05
-3.79475e-08
1.90808e-05
-2.6365e-08
-2.13093e-08
1.90889e-05
2.35199e-05
-2.53418e-07
2.35912e-05
-1.57815e-07
2.3545e-05
-2.66696e-08
2.34358e-05
3.19514e-08
2.32983e-05
7.82561e-08
2.31944e-05
8.3987e-08
2.315e-05
4.71828e-08
2.31446e-05
-2.93054e-09
2.31391e-05
-3.67932e-08
2.31196e-05
-5.8282e-08
2.30865e-05
-6.8563e-08
2.30493e-05
-7.1442e-08
2.30194e-05
-6.89879e-08
2.30021e-05
-6.15499e-08
2.29965e-05
-5.08394e-08
2.2998e-05
-3.94413e-08
2.30012e-05
-2.96028e-08
-2.41411e-08
2.3004e-05
1.69279e-05
2.23471e-08
1.67392e-05
3.08077e-08
1.6663e-05
4.95275e-08
1.66072e-05
8.77749e-08
1.65949e-05
9.05724e-08
1.66227e-05
5.61474e-08
1.66741e-05
-4.1446e-09
1.67422e-05
-7.1033e-08
1.68123e-05
-1.06929e-07
1.68651e-05
-1.11041e-07
1.689e-05
-9.35215e-08
1.68868e-05
-6.82565e-08
1.68632e-05
-4.53225e-08
1.68311e-05
-2.94811e-08
1.68011e-05
-2.08049e-08
1.67795e-05
-1.78286e-08
1.67687e-05
-1.88479e-08
-2.29784e-08
1.67675e-05
1.45559e-05
-8.3717e-08
1.46193e-05
-3.25125e-08
1.46853e-05
-1.65248e-08
1.47474e-05
2.56895e-08
1.47762e-05
6.1743e-08
1.4775e-05
5.73856e-08
1.47602e-05
1.06525e-08
1.4729e-05
-3.98719e-08
1.46886e-05
-6.6509e-08
1.46394e-05
-6.17937e-08
1.45866e-05
-4.07266e-08
1.45416e-05
-2.32918e-08
1.45174e-05
-2.11334e-08
1.45225e-05
-3.4538e-08
1.45571e-05
-5.5421e-08
1.4614e-05
-7.47895e-08
1.46824e-05
-8.71696e-08
-8.96633e-08
1.47491e-05
1.29061e-05
-2.25552e-07
1.28098e-05
6.37581e-08
1.26719e-05
1.21406e-07
1.26384e-05
5.90952e-08
1.26951e-05
5.10878e-09
1.27733e-05
-2.08236e-08
1.28156e-05
-3.1685e-08
1.28141e-05
-3.83873e-08
1.27895e-05
-4.18826e-08
1.27681e-05
-4.03501e-08
1.27638e-05
-3.64457e-08
1.27767e-05
-3.621e-08
1.27984e-05
-4.28576e-08
1.28184e-05
-5.45324e-08
1.28303e-05
-6.73311e-08
1.28333e-05
-7.77048e-08
1.28301e-05
-8.40551e-08
-8.60377e-08
1.28265e-05
1.09871e-05
-1.80186e-07
1.10432e-05
7.67729e-09
1.10856e-05
7.90084e-08
1.11012e-05
4.351e-08
1.11293e-05
-2.29568e-08
1.1165e-05
-5.65689e-08
1.11852e-05
-5.1859e-08
1.11768e-05
-3.00018e-08
1.11485e-05
-1.36075e-08
1.11193e-05
-1.11165e-08
1.11047e-05
-2.1827e-08
1.11084e-05
-3.99753e-08
1.11253e-05
-5.97721e-08
1.11466e-05
-7.57465e-08
1.11637e-05
-8.44461e-08
1.11723e-05
-8.62824e-08
1.11713e-05
-8.30793e-08
-7.85159e-08
1.11638e-05
9.57666e-06
1.29311e-07
9.56867e-06
1.56587e-08
9.64814e-06
-4.6039e-10
9.70222e-06
-1.05713e-08
9.70681e-06
-2.75385e-08
9.69614e-06
-4.59032e-08
9.70017e-06
-5.58921e-08
9.73022e-06
-6.00469e-08
9.77559e-06
-5.89834e-08
9.81576e-06
-5.12784e-08
9.833e-06
-3.9075e-08
9.82226e-06
-2.9235e-08
9.79071e-06
-2.82189e-08
9.75288e-06
-3.79158e-08
9.72292e-06
-5.44884e-08
9.70861e-06
-7.19688e-08
9.71156e-06
-8.60337e-08
-9.28515e-08
9.7259e-06
8.41211e-06
2.36329e-07
8.34624e-06
8.15262e-08
8.32932e-06
1.64685e-08
8.38948e-06
-7.07317e-08
8.47262e-06
-1.10682e-07
8.52477e-06
-9.80554e-08
8.53124e-06
-6.23609e-08
8.51129e-06
-4.01009e-08
8.49021e-06
-3.79023e-08
8.47997e-06
-4.10317e-08
8.47788e-06
-3.69928e-08
8.47524e-06
-2.65953e-08
8.46556e-06
-1.85346e-08
8.44751e-06
-1.98704e-08
8.42438e-06
-3.13575e-08
8.40089e-06
-4.84785e-08
8.38172e-06
-6.6856e-08
-8.17018e-08
8.37057e-06
7.21843e-06
9.36333e-08
7.26857e-06
3.13793e-08
7.28815e-06
-3.10912e-09
7.28596e-06
-6.85405e-08
7.29804e-06
-1.22768e-07
7.3192e-06
-1.19206e-07
7.33768e-06
-8.08461e-08
7.34758e-06
-5.00015e-08
7.34991e-06
-4.02317e-08
7.34992e-06
-4.10408e-08
7.35388e-06
-4.09524e-08
7.36571e-06
-3.8423e-08
7.38494e-06
-3.77639e-08
7.40714e-06
-4.20775e-08
7.42636e-06
-5.05694e-08
7.43803e-06
-6.0154e-08
7.44053e-06
-6.93567e-08
-7.70886e-08
7.43592e-06
6.3334e-06
-6.38878e-08
6.41805e-06
-5.32672e-08
6.48654e-06
-7.15958e-08
6.47632e-06
-5.83244e-08
6.41211e-06
-5.85613e-08
6.3508e-06
-5.78898e-08
6.32966e-06
-5.97099e-08
6.34999e-06
-7.03325e-08
6.39412e-06
-8.43607e-08
6.444e-06
-9.09136e-08
6.48685e-06
-8.38035e-08
6.514e-06
-6.55784e-08
6.52045e-06
-4.42124e-08
6.50607e-06
-2.76968e-08
6.47672e-06
-2.12247e-08
6.44105e-06
-2.44748e-08
6.40735e-06
-3.566e-08
-5.06293e-08
6.38089e-06
5.5885e-06
6.30704e-08
5.57976e-06
-4.45242e-08
5.56294e-06
-5.47787e-08
5.56898e-06
-6.43662e-08
5.58923e-06
-7.88079e-08
5.60843e-06
-7.7091e-08
5.61184e-06
-6.31207e-08
5.59354e-06
-5.20291e-08
5.55973e-06
-5.05549e-08
5.52342e-06
-5.45999e-08
5.49675e-06
-5.71287e-08
5.48647e-06
-5.53063e-08
5.49359e-06
-5.13246e-08
5.51539e-06
-4.94988e-08
5.54633e-06
-5.21719e-08
5.58039e-06
-5.85319e-08
5.61111e-06
-6.6381e-08
-7.30821e-08
5.63357e-06
4.82226e-06
4.80143e-08
4.83521e-06
-5.7476e-08
4.84181e-06
-6.13713e-08
4.83124e-06
-5.3799e-08
4.82019e-06
-6.77569e-08
4.82588e-06
-8.27864e-08
4.84729e-06
-8.45264e-08
4.87192e-06
-7.66636e-08
4.8883e-06
-6.69284e-08
4.89244e-06
-5.87463e-08
4.8881e-06
-5.27854e-08
4.88282e-06
-5.00246e-08
4.88308e-06
-5.15855e-08
4.89089e-06
-5.73136e-08
4.9031e-06
-6.43743e-08
4.91421e-06
-6.9645e-08
4.91827e-06
-7.04449e-08
-6.63287e-08
4.91152e-06
4.18597e-06
4.12849e-06
4.06712e-06
4.01332e-06
3.94556e-06
3.86278e-06
3.77825e-06
3.70159e-06
3.63466e-06
3.57591e-06
3.52313e-06
3.4731e-06
3.42152e-06
3.3642e-06
3.29983e-06
3.23018e-06
3.15974e-06
3.09341e-06
-5.04339e-08
5.04339e-08
-1.13197e-07
6.27635e-08
-1.82052e-07
6.88544e-08
-2.60463e-07
7.8411e-08
-3.50205e-07
8.97423e-08
-4.52516e-07
1.02311e-07
-5.67984e-07
1.15467e-07
-6.96746e-07
1.28762e-07
-8.38662e-07
1.41916e-07
-9.93428e-07
1.54766e-07
-1.16065e-06
1.67227e-07
-1.3399e-06
1.7925e-07
-1.5307e-06
1.90798e-07
-1.73255e-06
2.01846e-07
-1.94493e-06
2.12384e-07
-2.16733e-06
2.22394e-07
-2.39896e-06
2.31629e-07
-2.63859e-06
2.39635e-07
-2.8849e-06
2.46308e-07
-3.13638e-06
2.51482e-07
-3.39131e-06
2.54934e-07
-3.64772e-06
2.56409e-07
-3.90334e-06
2.55622e-07
-4.15563e-06
2.52287e-07
-4.40177e-06
2.46141e-07
-4.63872e-06
2.36946e-07
-4.86321e-06
2.24495e-07
-5.07184e-06
2.08625e-07
-5.26108e-06
1.89246e-07
-5.42745e-06
1.66361e-07
-5.56753e-06
1.40089e-07
-5.67821e-06
1.10677e-07
-5.75672e-06
7.85072e-08
-5.80087e-06
4.41502e-08
-5.80915e-06
8.2764e-09
-5.7804e-06
-2.87436e-08
-5.7149e-06
-6.55069e-08
-5.61315e-06
-1.01746e-07
-5.47616e-06
-1.36992e-07
-5.30539e-06
-1.70768e-07
-5.1028e-06
-2.02589e-07
-4.87081e-06
-2.31994e-07
-4.61223e-06
-2.58578e-07
-4.33023e-06
-2.81995e-07
-4.02826e-06
-3.01976e-07
-3.7099e-06
-3.1836e-07
-3.37881e-06
-3.31083e-07
-3.03867e-06
-3.40147e-07
-2.69296e-06
-3.4571e-07
-2.3449e-06
-3.48059e-07
-1.99756e-06
-3.47336e-07
-1.65367e-06
-3.43895e-07
-1.31543e-06
-3.38239e-07
-9.84868e-07
-3.30561e-07
-6.63597e-07
-3.21271e-07
-3.52855e-07
-3.10743e-07
-5.36946e-08
-2.9916e-07
2.3408e-07
-2.87775e-07
5.09315e-07
-2.75235e-07
7.71865e-07
-2.6255e-07
1.0217e-06
-2.49834e-07
1.2589e-06
-2.37204e-07
1.48366e-06
-2.24758e-07
1.69623e-06
-2.12574e-07
1.89694e-06
-2.00709e-07
2.08615e-06
-1.89206e-07
2.26425e-06
-1.78097e-07
2.43165e-06
-1.67403e-07
2.58879e-06
-1.57137e-07
2.73609e-06
-1.47306e-07
2.874e-06
-1.37911e-07
3.00296e-06
-1.28952e-07
3.12338e-06
-1.20423e-07
3.2357e-06
-1.12317e-07
3.34032e-06
-1.04625e-07
3.43766e-06
-9.73373e-08
3.5281e-06
-9.04415e-08
3.61203e-06
-8.3926e-08
3.6898e-06
-7.77777e-08
3.76179e-06
-7.19837e-08
3.82832e-06
-6.65303e-08
3.88972e-06
-6.1404e-08
3.94631e-06
-5.65909e-08
3.99839e-06
-5.20773e-08
4.04624e-06
-4.78493e-08
4.09013e-06
-4.38935e-08
4.13033e-06
-4.01965e-08
4.16707e-06
-3.6745e-08
4.2006e-06
-3.35259e-08
4.23113e-06
-3.05265e-08
4.25886e-06
-2.77344e-08
4.284e-06
-2.51374e-08
4.30672e-06
-2.2724e-08
4.32721e-06
-2.04829e-08
4.34561e-06
-1.84029e-08
4.36208e-06
-1.64741e-08
4.37677e-06
-1.46864e-08
4.3898e-06
-1.30295e-08
4.40129e-06
-1.14953e-08
4.41137e-06
-1.0076e-08
4.42013e-06
-8.76082e-09
4.42767e-06
-7.54348e-09
4.43409e-06
-6.41942e-09
4.43947e-06
-5.37682e-09
4.44388e-06
-4.41236e-09
4.4474e-06
-3.51956e-09
4.45009e-06
-2.69162e-09
4.45202e-06
-1.9283e-09
4.45323e-06
-1.21126e-09
4.45378e-06
-5.44532e-10
4.4537e-06
7.33082e-11
4.453e-06
7.07016e-10
4.45169e-06
1.31103e-09
4.4498e-06
1.88211e-09
4.44739e-06
2.41192e-09
4.44449e-06
2.9035e-09
4.44112e-06
3.37324e-09
4.43729e-06
3.82807e-09
4.43301e-06
4.27733e-09
4.42829e-06
4.71721e-09
4.42317e-06
5.12732e-09
4.41768e-06
5.48613e-09
4.4119e-06
5.78094e-09
4.40589e-06
6.01246e-09
4.39969e-06
6.19233e-09
4.39336e-06
6.33689e-09
4.3869e-06
6.46133e-09
4.38032e-06
6.57575e-09
4.37363e-06
6.68578e-09
4.36684e-06
6.79342e-09
4.35994e-06
6.89884e-09
4.35294e-06
7.00182e-09
4.34584e-06
7.10194e-09
4.33864e-06
7.19918e-09
4.33135e-06
7.2937e-09
4.32396e-06
7.38565e-09
4.31648e-06
7.47526e-09
4.30892e-06
7.56294e-09
4.30127e-06
7.64887e-09
4.29354e-06
7.73323e-09
4.28572e-06
7.81641e-09
4.27782e-06
7.89848e-09
4.26984e-06
7.97985e-09
4.26178e-06
8.06061e-09
4.25364e-06
8.14109e-09
4.24542e-06
8.22149e-09
4.23712e-06
8.30217e-09
4.22874e-06
8.38343e-09
4.22027e-06
8.46569e-09
4.21172e-06
8.54931e-09
4.20309e-06
8.63473e-09
4.19436e-06
8.72262e-09
4.18555e-06
8.81366e-09
4.17664e-06
8.90871e-09
4.16763e-06
9.00877e-09
4.15852e-06
9.11554e-09
4.14929e-06
9.23013e-09
4.13993e-06
9.356e-09
4.13044e-06
9.49359e-09
4.12079e-06
9.65035e-09
4.11096e-06
9.82515e-09
4.10093e-06
1.00316e-08
4.09066e-06
1.02692e-08
4.08011e-06
1.05532e-08
4.0692e-06
1.09038e-08
4.0579e-06
1.13042e-08
4.04603e-06
1.18707e-08
4.0336e-06
1.2433e-08
4.02015e-06
1.34458e-08
4.00596e-06
1.41876e-08
3.98975e-06
1.6211e-08
3.97276e-06
1.69942e-08
3.95124e-06
2.15194e-08
3.92961e-06
2.16249e-08
3.89662e-06
3.29884e-08
3.8667e-06
2.99206e-08
3.80432e-06
6.23893e-08
3.75254e-06
5.17789e-08
3.58277e-06
1.69771e-07
1.80057e-07
3.40271e-06
-1.41812e-07
1.92246e-07
-3.00804e-07
2.21755e-07
-4.61182e-07
2.29233e-07
-6.25058e-07
2.42287e-07
-7.9228e-07
2.56964e-07
-9.62936e-07
2.72967e-07
-1.137e-06
2.8953e-07
-1.31466e-06
3.06426e-07
-1.49616e-06
3.2341e-07
-1.68167e-06
3.40277e-07
-1.87134e-06
3.56901e-07
-2.06528e-06
3.73185e-07
-2.26351e-06
3.89036e-07
-2.46601e-06
4.04341e-07
-2.67257e-06
4.18944e-07
-2.88281e-06
4.32631e-07
-3.09629e-06
4.45111e-07
-3.31266e-06
4.56008e-07
-3.5313e-06
4.64951e-07
-3.75139e-06
4.71566e-07
-3.97192e-06
4.75469e-07
-4.19171e-06
4.76194e-07
-4.40928e-06
4.73195e-07
-4.6229e-06
4.65908e-07
-4.83053e-06
4.5377e-07
-5.02982e-06
4.36239e-07
-5.21816e-06
4.1283e-07
-5.39269e-06
3.83151e-07
-5.55039e-06
3.46949e-07
-5.68819e-06
3.0416e-07
-5.80305e-06
2.54948e-07
-5.8921e-06
1.99728e-07
-5.95276e-06
1.39169e-07
-5.98283e-06
7.42228e-08
-5.9814e-06
6.847e-09
-5.94287e-06
-6.72727e-08
-5.86755e-06
-1.40831e-07
-5.75534e-06
-2.13958e-07
-5.60694e-06
-2.85388e-07
-5.42382e-06
-3.53889e-07
-5.20804e-06
-4.18367e-07
-4.96218e-06
-4.77854e-07
-4.68925e-06
-5.31514e-07
-4.39258e-06
-5.78665e-07
-4.07578e-06
-6.18774e-07
-3.74262e-06
-6.51519e-07
-3.39697e-06
-6.76729e-07
-3.04262e-06
-6.94499e-07
-2.68325e-06
-7.05083e-07
-2.3221e-06
-7.09209e-07
-1.96244e-06
-7.06992e-07
-1.60666e-06
-6.99678e-07
-1.2574e-06
-6.87496e-07
-9.16142e-07
-6.7182e-07
-5.84349e-07
-6.53063e-07
-2.63427e-07
-6.31665e-07
4.61381e-08
-6.08725e-07
3.43211e-07
-5.84847e-07
6.27999e-07
-5.60023e-07
9.00268e-07
-5.34818e-07
1.16e-06
-5.09565e-07
1.40731e-06
-4.84515e-07
1.64242e-06
-4.59863e-07
1.8656e-06
-4.35757e-07
2.07719e-06
-4.12305e-07
2.27757e-06
-3.89587e-07
2.46713e-06
-3.67657e-07
2.64628e-06
-3.46552e-07
2.81544e-06
-3.26294e-07
2.97503e-06
-3.06891e-07
3.12546e-06
-2.88344e-07
3.26715e-06
-2.70646e-07
3.40051e-06
-2.53783e-07
3.52593e-06
-2.3774e-07
3.6438e-06
-2.22496e-07
3.7545e-06
-2.08028e-07
3.85837e-06
-1.94314e-07
3.95577e-06
-1.81328e-07
4.04704e-06
-1.69044e-07
4.13249e-06
-1.57435e-07
4.21243e-06
-1.46474e-07
4.28716e-06
-1.36135e-07
4.35696e-06
-1.26391e-07
4.4221e-06
-1.17216e-07
4.48283e-06
-1.08583e-07
4.53941e-06
-1.00467e-07
4.59205e-06
-9.28423e-08
4.64099e-06
-8.56854e-08
4.68644e-06
-7.8972e-08
4.72859e-06
-7.26789e-08
4.76764e-06
-6.67836e-08
4.80377e-06
-6.12644e-08
4.83714e-06
-5.61004e-08
4.86793e-06
-5.12713e-08
4.89629e-06
-4.67576e-08
4.92235e-06
-4.2541e-08
4.94627e-06
-3.86033e-08
4.96817e-06
-3.49274e-08
4.98817e-06
-3.14975e-08
5.00639e-06
-2.82982e-08
5.02295e-06
-2.53135e-08
5.03793e-06
-2.25309e-08
5.05145e-06
-1.99373e-08
5.06359e-06
-1.75185e-08
5.07444e-06
-1.52636e-08
5.08409e-06
-1.31619e-08
5.0926e-06
-1.1202e-08
5.10004e-06
-9.37529e-09
5.1065e-06
-7.66973e-09
5.11204e-06
-6.07817e-09
5.11671e-06
-4.59996e-09
5.12063e-06
-3.20985e-09
5.12384e-06
-1.89789e-09
5.12638e-06
-6.65006e-10
5.12832e-06
4.77734e-10
5.12967e-06
1.55098e-09
5.13048e-06
2.56474e-09
5.13079e-06
3.51276e-09
5.13066e-06
4.41097e-09
5.13012e-06
5.25797e-09
5.12921e-06
6.04049e-09
5.12794e-06
6.74706e-09
5.12635e-06
7.37378e-09
5.12444e-06
7.92761e-09
5.1222e-06
8.42433e-09
5.11966e-06
8.88232e-09
5.1168e-06
9.31688e-09
5.11364e-06
9.73747e-09
5.11018e-06
1.01478e-08
5.10643e-06
1.05477e-08
5.10239e-06
1.09354e-08
5.09808e-06
1.13089e-08
5.09352e-06
1.1667e-08
5.08871e-06
1.20093e-08
5.08366e-06
1.23361e-08
5.0784e-06
1.26478e-08
5.07293e-06
1.29455e-08
5.06726e-06
1.32301e-08
5.06141e-06
1.35026e-08
5.05538e-06
1.3764e-08
5.04918e-06
1.40154e-08
5.04282e-06
1.42573e-08
5.03631e-06
1.44912e-08
5.02965e-06
1.47175e-08
5.02286e-06
1.49375e-08
5.01593e-06
1.51518e-08
5.00887e-06
1.53615e-08
5.00168e-06
1.55674e-08
4.99438e-06
1.57705e-08
4.98696e-06
1.5972e-08
4.97942e-06
1.61728e-08
4.97177e-06
1.63745e-08
4.964e-06
1.65784e-08
4.95612e-06
1.67864e-08
4.94813e-06
1.70006e-08
4.94002e-06
1.72235e-08
4.9318e-06
1.74586e-08
4.92344e-06
1.77091e-08
4.91495e-06
1.79818e-08
4.90633e-06
1.82794e-08
4.89753e-06
1.86172e-08
4.88857e-06
1.89919e-08
4.8794e-06
1.94427e-08
4.87001e-06
1.99401e-08
4.86032e-06
2.05922e-08
4.85035e-06
2.12796e-08
4.83991e-06
2.23059e-08
4.82907e-06
2.3273e-08
4.81748e-06
2.50369e-08
4.80529e-06
2.63807e-08
4.79181e-06
2.96939e-08
4.77735e-06
3.14536e-08
4.76057e-06
3.82954e-08
4.74199e-06
4.02093e-08
4.71899e-06
5.59872e-08
4.69147e-06
5.74416e-08
4.65477e-06
9.90835e-08
4.60204e-06
1.0451e-07
4.53837e-06
2.33442e-07
2.74223e-07
4.44421e-06
-1.59309e-07
3.51555e-07
-3.3543e-07
3.97875e-07
-5.09652e-07
4.03455e-07
-6.8297e-07
4.15605e-07
-8.54901e-07
4.28895e-07
-1.02581e-06
4.43879e-07
-1.19638e-06
4.60098e-07
-1.36725e-06
4.77294e-07
-1.53907e-06
4.95231e-07
-1.71271e-06
5.13915e-07
-1.88906e-06
5.33256e-07
-2.06892e-06
5.53042e-07
-2.25289e-06
5.73004e-07
-2.44141e-06
5.92869e-07
-2.63485e-06
6.12382e-07
-2.83351e-06
6.31287e-07
-3.03766e-06
6.4926e-07
-3.24749e-06
6.65843e-07
-3.46297e-06
6.80432e-07
-3.68373e-06
6.92323e-07
-3.909e-06
7.00734e-07
-4.13761e-06
7.04804e-07
-4.36801e-06
7.03601e-07
-4.59824e-06
6.96135e-07
-4.82584e-06
6.81372e-07
-5.04789e-06
6.58287e-07
-5.26099e-06
6.25934e-07
-5.46136e-06
5.83522e-07
-5.64492e-06
5.30501e-07
-5.8074e-06
4.66646e-07
-5.94459e-06
3.9214e-07
-6.05249e-06
3.07619e-07
-6.12752e-06
2.142e-07
-6.16684e-06
1.13547e-07
-6.16908e-06
9.08966e-09
-6.12994e-06
-1.06414e-07
-6.04998e-06
-2.20788e-07
-5.92997e-06
-3.33973e-07
-5.77123e-06
-4.44126e-07
-5.57567e-06
-5.49455e-07
-5.34573e-06
-6.48304e-07
-5.08439e-06
-7.3919e-07
-4.79506e-06
-8.20844e-07
-4.48151e-06
-8.92218e-07
-4.14779e-06
-9.52495e-07
-3.79816e-06
-1.00115e-06
-3.43686e-06
-1.03802e-06
-3.06808e-06
-1.06328e-06
-2.69568e-06
-1.07749e-06
-2.32356e-06
-1.08132e-06
-1.95455e-06
-1.07601e-06
-1.59153e-06
-1.0627e-06
-1.23645e-06
-1.04258e-06
-8.91347e-07
-1.01692e-06
-5.57387e-07
-9.87024e-07
-2.35492e-07
-9.5356e-07
7.36741e-08
-9.17891e-07
3.69904e-07
-8.81077e-07
6.5308e-07
-8.432e-07
9.23216e-07
-8.04954e-07
1.18045e-06
-7.66802e-07
1.42503e-06
-7.29094e-07
1.65726e-06
-6.92096e-07
1.87751e-06
-6.56007e-07
2.08618e-06
-6.20973e-07
2.28369e-06
-5.87097e-07
2.47048e-06
-5.54448e-07
2.647e-06
-5.23068e-07
2.81368e-06
-4.92978e-07
2.97098e-06
-4.64185e-07
3.11931e-06
-4.36681e-07
3.25912e-06
-4.1045e-07
3.3908e-06
-3.85468e-07
3.51477e-06
-3.61707e-07
3.6314e-06
-3.39131e-07
3.74108e-06
-3.17706e-07
3.84416e-06
-2.97393e-07
3.94098e-06
-2.78151e-07
4.03188e-06
-2.5994e-07
4.11716e-06
-2.42718e-07
4.19713e-06
-2.26444e-07
4.27207e-06
-2.11077e-07
4.34226e-06
-1.96576e-07
4.40794e-06
-1.82901e-07
4.46938e-06
-1.70013e-07
4.52678e-06
-1.57875e-07
4.58039e-06
-1.46449e-07
4.6304e-06
-1.35699e-07
4.67702e-06
-1.2559e-07
4.72043e-06
-1.16089e-07
4.76081e-06
-1.07164e-07
4.79833e-06
-9.87835e-08
4.83315e-06
-9.09179e-08
4.86542e-06
-8.35384e-08
4.89528e-06
-7.66177e-08
4.92286e-06
-7.01301e-08
4.94831e-06
-6.40501e-08
4.97174e-06
-5.83539e-08
4.99326e-06
-5.30195e-08
5.01299e-06
-4.80249e-08
5.03102e-06
-4.33489e-08
5.04746e-06
-3.8973e-08
5.06241e-06
-3.48791e-08
5.07594e-06
-3.10484e-08
5.08814e-06
-2.74643e-08
5.09909e-06
-2.41121e-08
5.10886e-06
-2.09775e-08
5.11753e-06
-1.8045e-08
5.12516e-06
-1.53013e-08
5.13182e-06
-1.2733e-08
5.13755e-06
-1.03302e-08
5.14242e-06
-8.07801e-09
5.14648e-06
-5.96049e-09
5.14979e-06
-3.97879e-09
5.1524e-06
-2.12879e-09
5.15436e-06
-4.10956e-10
5.15571e-06
1.22154e-09
5.15648e-06
2.74001e-09
5.15672e-06
4.17173e-09
5.15646e-06
5.51398e-09
5.15574e-06
6.76073e-09
5.15458e-06
7.90675e-09
5.153e-06
8.95218e-09
5.15102e-06
9.90609e-09
5.14866e-06
1.07837e-08
5.14594e-06
1.16024e-08
5.14289e-06
1.23767e-08
5.13951e-06
1.31158e-08
5.13583e-06
1.38246e-08
5.13187e-06
1.45043e-08
5.12765e-06
1.51547e-08
5.12319e-06
1.57756e-08
5.11849e-06
1.63671e-08
5.11357e-06
1.69299e-08
5.10844e-06
1.74651e-08
5.10311e-06
1.79743e-08
5.0976e-06
1.84591e-08
5.09191e-06
1.89213e-08
5.08605e-06
1.93624e-08
5.08003e-06
1.97841e-08
5.07385e-06
2.01881e-08
5.06754e-06
2.05758e-08
5.06108e-06
2.09488e-08
5.05449e-06
2.13085e-08
5.04777e-06
2.16565e-08
5.04093e-06
2.1994e-08
5.03396e-06
2.23227e-08
5.02689e-06
2.2644e-08
5.0197e-06
2.29593e-08
5.0124e-06
2.32704e-08
5.00499e-06
2.3579e-08
4.99748e-06
2.3887e-08
4.98986e-06
2.41968e-08
4.98214e-06
2.45108e-08
4.97431e-06
2.48324e-08
4.96637e-06
2.51648e-08
4.95831e-06
2.55138e-08
4.95014e-06
2.58826e-08
4.94184e-06
2.62828e-08
4.9334e-06
2.67152e-08
4.92481e-06
2.72058e-08
4.91606e-06
2.77435e-08
4.90711e-06
2.83917e-08
4.89795e-06
2.90999e-08
4.88852e-06
3.0025e-08
4.87879e-06
3.10059e-08
4.86867e-06
3.24308e-08
4.8581e-06
3.38404e-08
4.84693e-06
3.62097e-08
4.83503e-06
3.82819e-08
4.82219e-06
4.25272e-08
4.80801e-06
4.56353e-08
4.79244e-06
5.38618e-08
4.77395e-06
5.87054e-08
4.75366e-06
7.62765e-08
4.72588e-06
8.52179e-08
4.6977e-06
1.27267e-07
4.65066e-06
1.51555e-07
4.62021e-06
2.6389e-07
3.46495e-07
4.54793e-06
-1.46052e-07
4.97607e-07
-3.09435e-07
5.61259e-07
-4.71114e-07
5.65133e-07
-6.32061e-07
5.76553e-07
-7.9225e-07
5.89083e-07
-9.52169e-07
6.03798e-07
-1.11245e-06
6.20375e-07
-1.27401e-06
6.38858e-07
-1.43802e-06
6.59239e-07
-1.60549e-06
6.81382e-07
-1.77715e-06
7.04921e-07
-1.95373e-06
7.2962e-07
-2.13609e-06
7.55364e-07
-2.32522e-06
7.82004e-07
-2.52204e-06
8.09198e-07
-2.72715e-06
8.36393e-07
-2.94076e-06
8.62878e-07
-3.1628e-06
8.87874e-07
-3.39294e-06
9.10574e-07
-3.63071e-06
9.30091e-07
-3.87537e-06
9.45397e-07
-4.12583e-06
9.55267e-07
-4.3805e-06
9.58271e-07
-4.63718e-06
9.52811e-07
-4.89302e-06
9.37213e-07
-5.14455e-06
9.09815e-07
-5.38767e-06
8.69058e-07
-5.61776e-06
8.13607e-07
-5.82977e-06
7.42513e-07
-6.01848e-06
6.55357e-07
-6.17869e-06
5.5235e-07
-6.30549e-06
4.34425e-07
-6.39461e-06
3.03317e-07
-6.44271e-06
1.61644e-07
-6.44789e-06
1.42686e-08
-6.40632e-06
-1.47976e-07
-6.31886e-06
-3.08256e-07
-6.18641e-06
-4.66422e-07
-6.0108e-06
-6.19728e-07
-5.79471e-06
-7.65553e-07
-5.5414e-06
-9.01608e-07
-5.25464e-06
-1.02595e-06
-4.93853e-06
-1.13696e-06
-4.59747e-06
-1.23328e-06
-4.23615e-06
-1.31381e-06
-3.85951e-06
-1.37779e-06
-3.47252e-06
-1.42502e-06
-3.07998e-06
-1.45582e-06
-2.68639e-06
-1.47108e-06
-2.29561e-06
-1.47211e-06
-1.91098e-06
-1.46063e-06
-1.53534e-06
-1.43834e-06
-1.17066e-06
-1.40725e-06
-8.18254e-07
-1.36933e-06
-4.79454e-07
-1.32582e-06
-1.54435e-07
-1.27858e-06
1.56355e-07
-1.22868e-06
4.52859e-07
-1.17758e-06
7.35275e-07
-1.12562e-06
1.00386e-06
-1.07354e-06
1.25896e-06
-1.0219e-06
1.50097e-06
-9.71113e-07
1.73036e-06
-9.21481e-07
1.94758e-06
-8.73223e-07
2.1531e-06
-8.26499e-07
2.34742e-06
-7.81415e-07
2.53101e-06
-7.38039e-07
2.70435e-06
-6.9641e-07
2.86792e-06
-6.56539e-07
3.02216e-06
-6.18424e-07
3.16752e-06
-5.82045e-07
3.30444e-06
-5.47373e-07
3.43334e-06
-5.1437e-07
3.55463e-06
-4.82991e-07
3.66869e-06
-4.5319e-07
3.77589e-06
-4.24913e-07
3.87661e-06
-3.98108e-07
3.97118e-06
-3.72718e-07
4.05992e-06
-3.48687e-07
4.14317e-06
-3.25959e-07
4.2212e-06
-3.04478e-07
4.29431e-06
-2.84187e-07
4.36277e-06
-2.65032e-07
4.42682e-06
-2.46959e-07
4.48673e-06
-2.29916e-07
4.5427e-06
-2.13852e-07
4.59497e-06
-1.98718e-07
4.64374e-06
-1.84466e-07
4.6892e-06
-1.7105e-07
4.73154e-06
-1.58427e-07
4.77093e-06
-1.46554e-07
4.80754e-06
-1.35391e-07
4.84152e-06
-1.24898e-07
4.87302e-06
-1.15039e-07
4.90218e-06
-1.05779e-07
4.92913e-06
-9.70833e-08
4.954e-06
-8.89203e-08
4.97691e-06
-8.12593e-08
4.99796e-06
-7.40717e-08
5.01726e-06
-6.73296e-08
5.03492e-06
-6.10068e-08
5.05103e-06
-5.50784e-08
5.06567e-06
-4.95212e-08
5.07893e-06
-4.43125e-08
5.0909e-06
-3.94308e-08
5.10164e-06
-3.48571e-08
5.11124e-06
-3.05717e-08
5.11975e-06
-2.65561e-08
5.12724e-06
-2.27937e-08
5.13378e-06
-1.92679e-08
5.13941e-06
-1.59634e-08
5.1442e-06
-1.28662e-08
5.1482e-06
-9.96404e-09
5.15147e-06
-7.24318e-09
5.15403e-06
-4.69163e-09
5.15592e-06
-2.30052e-09
5.15719e-06
-5.16991e-11
5.15789e-06
2.04101e-09
5.15806e-06
4.00649e-09
5.15772e-06
5.84615e-09
5.15692e-06
7.56399e-09
5.15567e-06
9.15971e-09
5.15398e-06
1.06366e-08
5.15189e-06
1.20036e-08
5.1494e-06
1.32732e-08
5.14654e-06
1.44593e-08
5.14334e-06
1.5575e-08
5.13983e-06
1.66301e-08
5.13602e-06
1.76315e-08
5.13194e-06