/*--------------------------------*- C++ -*----------------------------------*\
  =========                 |
  \\      /  F ield         | OpenFOAM: The Open Source CFD Toolbox
   \\    /   O peration     | Website:  https://openfoam.org
    \\  /    A nd           | Version:  9
     \\/     M anipulation  |
\*---------------------------------------------------------------------------*/
FoamFile
{
    format      ascii;
    class       surfaceScalarField;
    location    "0.009";
    object      phi_0;
}
// * * * * * * * * * * * * * * * * * * * * * * * * * * * * * * * * * * * * * //

dimensions      [0 3 -1 0 0 0 0];

internalField   nonuniform List<scalar> 
24170
(
3.07611e-06
8.14989e-08
2.97918e-06
9.69348e-08
2.90577e-06
7.34107e-08
2.82405e-06
8.1718e-08
2.72676e-06
9.72883e-08
2.62363e-06
1.03128e-07
2.52925e-06
9.43785e-08
2.45235e-06
7.6906e-08
2.39273e-06
5.96161e-08
2.34161e-06
5.11198e-08
2.29023e-06
5.13858e-08
2.23123e-06
5.8991e-08
2.16453e-06
6.67046e-08
2.09174e-06
7.2787e-08
2.0193e-06
7.24392e-08
1.95309e-06
6.62145e-08
1.88368e-06
6.9405e-08
6.55156e-08
1.81817e-06
3.40917e-06
3.10773e-08
3.38394e-06
1.22168e-07
3.39331e-06
6.40357e-08
3.42381e-06
5.1218e-08
3.45488e-06
6.62224e-08
3.47822e-06
7.97861e-08
3.49285e-06
7.97452e-08
3.49901e-06
7.07472e-08
3.49503e-06
6.36011e-08
3.48002e-06
6.61244e-08
3.45707e-06
7.4339e-08
3.4317e-06
8.43569e-08
3.40919e-06
8.92231e-08
3.3914e-06
9.05715e-08
3.37662e-06
8.72188e-08
3.36326e-06
7.95741e-08
3.35275e-06
7.99125e-08
7.45945e-08
3.34368e-06
3.61734e-06
4.3747e-08
3.62253e-06
1.16982e-07
3.65747e-06
2.90881e-08
3.71374e-06
-5.04415e-09
3.75912e-06
2.08342e-08
3.77575e-06
6.31615e-08
3.7672e-06
8.82969e-08
3.75055e-06
8.73971e-08
3.73979e-06
7.43616e-08
3.73893e-06
6.69785e-08
3.74264e-06
7.06297e-08
3.74574e-06
8.12605e-08
3.7446e-06
9.03597e-08
3.74167e-06
9.34989e-08
3.73891e-06
8.99882e-08
3.73942e-06
7.90561e-08
3.74776e-06
7.15764e-08
6.28052e-08
3.75955e-06
3.93939e-06
-1.00574e-08
3.97378e-06
8.25889e-08
3.97869e-06
2.41829e-08
3.9874e-06
-1.37582e-08
4.00892e-06
-6.82033e-10
4.02828e-06
4.37983e-08
4.03328e-06
8.32958e-08
4.02632e-06
9.43592e-08
4.01473e-06
8.59528e-08
4.00372e-06
7.79882e-08
3.99466e-06
7.96897e-08
3.98717e-06
8.87533e-08
3.98066e-06
9.68657e-08
3.97575e-06
9.84087e-08
3.97318e-06
9.25568e-08
3.97274e-06
7.94949e-08
3.97719e-06
6.71317e-08
5.60692e-08
3.98392e-06
4.13815e-06
1.38948e-08
4.1757e-06
4.50327e-08
4.2078e-06
-7.91402e-09
4.22891e-06
-3.48719e-08
4.24404e-06
-1.58088e-08
4.25782e-06
3.00225e-08
4.27155e-06
6.95573e-08
4.28493e-06
8.09857e-08
4.29733e-06
7.35545e-08
4.30806e-06
6.72534e-08
4.31552e-06
7.22344e-08
4.31757e-06
8.67046e-08
4.31227e-06
1.02164e-07
4.2989e-06
1.11773e-07
4.2792e-06
1.12264e-07
4.25538e-06
1.03311e-07
4.23221e-06
9.02998e-08
7.60965e-08
4.21218e-06
4.56225e-06
-3.39658e-08
4.53656e-06
7.07277e-08
4.54407e-06
-1.54258e-08
4.54643e-06
-3.7235e-08
4.52815e-06
2.47315e-09
4.51196e-06
4.62171e-08
4.51719e-06
6.43235e-08
4.53951e-06
5.86679e-08
4.56296e-06
5.01067e-08
4.57637e-06
5.38443e-08
4.57782e-06
7.07843e-08
4.5714e-06
9.31227e-08
4.56244e-06
1.1112e-07
4.55472e-06
1.19492e-07
4.54949e-06
1.17497e-07
4.54577e-06
1.07036e-07
4.54214e-06
9.39289e-08
8.11544e-08
4.53708e-06
4.79607e-06
1.90115e-10
4.80665e-06
6.01433e-08
4.84014e-06
-4.89109e-08
4.87732e-06
-7.44174e-08
4.9112e-06
-3.14062e-08
4.93567e-06
2.1745e-08
4.94133e-06
5.86626e-08
4.92761e-06
7.23931e-08
4.90532e-06
7.23969e-08
4.88799e-06
7.11686e-08
4.88297e-06
7.5808e-08
4.88942e-06
8.66674e-08
4.90167e-06
9.88757e-08
4.91329e-06
1.07875e-07
4.91921e-06
1.11577e-07
4.91672e-06
1.09519e-07
4.90589e-06
1.04758e-07
9.81382e-08
4.88891e-06
5.13528e-06
7.44712e-08
5.15649e-06
3.89314e-08
5.17446e-06
-6.68788e-08
5.16789e-06
-6.78527e-08
5.1641e-06
-2.76102e-08
5.17617e-06
9.67779e-09
5.19935e-06
3.54811e-08
5.21846e-06
5.32825e-08
5.22388e-06
6.69707e-08
5.21921e-06
7.58391e-08
5.21457e-06
8.04535e-08
5.21822e-06
8.30191e-08
5.23096e-06
8.61361e-08
5.24846e-06
9.03673e-08
5.264e-06
9.60432e-08
5.27279e-06
1.00728e-07
5.27319e-06
1.04355e-07
1.05159e-07
5.26617e-06
5.47299e-06
8.76505e-08
5.55134e-06
-3.94206e-08
5.57834e-06
-9.38816e-08
5.5496e-06
-3.91091e-08
5.50633e-06
1.56589e-08
5.48748e-06
2.85322e-08
5.51478e-06
8.17156e-09
5.57448e-06
-6.41179e-09
5.63673e-06
4.71556e-09
5.67854e-06
3.40344e-08
5.69243e-06
6.65658e-08
5.68571e-06
8.9738e-08
5.67166e-06
1.00184e-07
5.66206e-06
9.99698e-08
5.66299e-06
9.51134e-08
5.67472e-06
8.89933e-08
5.69489e-06
8.41879e-08
8.20356e-08
5.71801e-06
6.09887e-06
9.01974e-08
6.0084e-06
5.10548e-08
5.8986e-06
1.59221e-08
5.84462e-06
1.4863e-08
5.84905e-06
1.12364e-08
5.88948e-06
-1.18974e-08
5.94127e-06
-4.36258e-08
5.98985e-06
-5.49874e-08
6.02607e-06
-3.15105e-08
6.04265e-06
1.74555e-08
6.03969e-06
6.95249e-08
6.02373e-06
1.05699e-07
6.00555e-06
1.18371e-07
5.994e-06
1.11513e-07
5.99397e-06
9.51467e-08
6.00438e-06
7.85879e-08
6.02161e-06
6.69509e-08
6.31203e-08
6.04053e-06
6.41615e-06
1.41064e-07
6.41128e-06
5.59283e-08
6.43519e-06
-7.98997e-09
6.458e-06
-7.9529e-09
6.46532e-06
3.9228e-09
6.46182e-06
-8.4029e-09
6.45605e-06
-3.78547e-08
6.45082e-06
-4.97583e-08
6.44619e-06
-2.68747e-08
6.4405e-06
2.31428e-08
6.43546e-06
7.45675e-08
6.43296e-06
1.08194e-07
6.43456e-06
1.16769e-07
6.43945e-06
1.06629e-07
6.44609e-06
8.85063e-08
6.45155e-06
7.31242e-08
6.4549e-06
6.3602e-08
6.23765e-08
6.45564e-06
5.82799e-06
1.6816e-07
5.76903e-06
1.1489e-07
5.77926e-06
-1.82195e-08
5.79713e-06
-2.58258e-08
5.79528e-06
5.77678e-09
5.78485e-06
2.02496e-09
5.77248e-06
-2.54905e-08
5.76351e-06
-4.0788e-08
5.75835e-06
-2.17115e-08
5.75829e-06
2.32017e-08
5.76088e-06
7.19753e-08
5.76548e-06
1.03597e-07
5.77056e-06
1.11685e-07
5.77442e-06
1.02772e-07
5.77617e-06
8.67625e-08
5.77641e-06
7.28818e-08
5.77702e-06
6.29924e-08
5.89119e-08
5.78048e-06
6.87891e-06
1.56103e-07
6.88084e-06
1.12957e-07
6.92984e-06
-6.72215e-08
6.99306e-06
-8.90408e-08
7.04569e-06
-4.68615e-08
7.07869e-06
-3.09663e-08
7.08296e-06
-2.97679e-08
7.0557e-06
-1.35245e-08
7.00732e-06
2.6664e-08
6.95806e-06
7.24621e-08
6.92674e-06
1.03295e-07
6.92191e-06
1.08431e-07
6.94187e-06
9.17292e-08
6.97878e-06
6.58595e-08
7.02146e-06
4.40769e-08
7.06254e-06
3.1805e-08
7.09604e-06
2.94917e-08
3.24866e-08
7.12247e-06
8.52206e-06
6.58309e-08
8.63341e-06
1.60993e-09
8.63827e-06
-7.20897e-08
8.61542e-06
-6.6191e-08
8.61683e-06
-4.82712e-08
8.63256e-06
-4.66938e-08
8.64275e-06
-3.99612e-08
8.63251e-06
-3.28328e-09
8.60329e-06
5.58838e-08
8.56962e-06
1.06133e-07
8.55025e-06
1.22664e-07
8.55639e-06
1.02292e-07
8.58883e-06
5.92907e-08
8.64091e-06
1.37837e-08
8.70121e-06
-1.62241e-08
8.75969e-06
-2.66748e-08
8.808e-06
-1.8817e-08
8.15949e-10
8.83967e-06
1.03376e-05
-9.29944e-08
1.03923e-05
-5.31087e-08
1.03746e-05
-5.43775e-08
1.04114e-05
-1.02942e-07
1.04947e-05
-1.31619e-07
1.05667e-05
-1.18617e-07
1.05925e-05
-6.57945e-08
1.05833e-05
5.90215e-09
1.05721e-05
6.71154e-08
1.05793e-05
9.88966e-08
1.06031e-05
9.89176e-08
1.06292e-05
7.6167e-08
1.06438e-05
4.46645e-08
1.06413e-05
1.62922e-08
1.06271e-05
-2.06342e-09
1.06098e-05
-9.30078e-09
1.05984e-05
-7.41759e-09
7.36383e-10
1.05984e-05
1.30417e-05
-2.19682e-07
1.29638e-05
2.48092e-08
1.28151e-05
9.42814e-08
1.27163e-05
-4.09013e-09
1.26848e-05
-1.00142e-07
1.26809e-05
-1.14672e-07
1.26657e-05
-5.06574e-08
1.26415e-05
3.01871e-08
1.2623e-05
8.55461e-08
1.26259e-05
9.60335e-08
1.2654e-05
7.08102e-08
1.27007e-05
2.94819e-08
1.2754e-05
-8.63658e-09
1.28013e-05
-3.09939e-08
1.28364e-05
-3.71962e-08
1.28581e-05
-3.09967e-08
1.2869e-05
-1.83337e-08
-4.18288e-09
1.28739e-05
1.54855e-05
4.70992e-08
1.53315e-05
1.78799e-07
1.53535e-05
7.23273e-08
1.53727e-05
-2.33089e-08
1.53312e-05
-5.87172e-08
1.52615e-05
-4.49768e-08
1.52228e-05
-1.18759e-08
1.5239e-05
1.40035e-08
1.53116e-05
1.28482e-08
1.54208e-05
-1.31498e-08
1.55397e-05
-4.80143e-08
1.56497e-05
-8.05407e-08
1.57375e-05
-9.64478e-08
1.57996e-05
-9.30663e-08
1.58376e-05
-7.51971e-08
1.58575e-05
-5.09038e-08
1.58669e-05
-2.78003e-08
-1.11031e-08
1.58739e-05
1.85252e-05
-2.25513e-07
1.87804e-05
-7.63765e-08
1.89197e-05
-6.69954e-08
1.89684e-05
-7.19662e-08
1.89624e-05
-5.27224e-08
1.89312e-05
-1.37781e-08
1.89139e-05
5.41503e-09
1.89355e-05
-7.654e-09
1.8992e-05
-4.35965e-08
1.90581e-05
-7.92713e-08
1.91122e-05
-1.02142e-07
1.91392e-05
-1.07532e-07
1.91393e-05
-9.65318e-08
1.9122e-05
-7.57343e-08
1.91003e-05
-5.34974e-08
1.90849e-05
-3.55289e-08
1.90818e-05
-2.47154e-08
-2.0289e-08
1.9091e-05
2.36331e-05
-1.58387e-07
2.36536e-05
-9.68458e-08
2.35777e-05
8.85009e-09
2.34533e-05
5.25073e-08
2.33075e-05
9.30036e-08
2.32021e-05
9.16461e-08
2.31572e-05
5.03702e-08
2.31511e-05
-1.64555e-09
2.31433e-05
-3.57221e-08
2.3121e-05
-5.69787e-08
2.30859e-05
-6.70789e-08
2.30482e-05
-6.98144e-08
2.30188e-05
-6.7129e-08
2.30025e-05
-5.94299e-08
2.29976e-05
-4.85966e-08
2.29993e-05
-3.72883e-08
2.30024e-05
-2.78109e-08
-2.29411e-08
2.30051e-05
1.69222e-05
8.38986e-08
1.67468e-05
7.85418e-08
1.66703e-05
8.53727e-08
1.66121e-05
1.10657e-07
1.66012e-05
1.03909e-07
1.66303e-05
6.25576e-08
1.66827e-05
-2.04854e-09
1.6751e-05
-6.99509e-08
1.68201e-05
-1.04752e-07
1.68705e-05
-1.07378e-07
1.68924e-05
-8.90705e-08
1.68866e-05
-6.39282e-08
1.68612e-05
-4.17194e-08
1.68285e-05
-2.67984e-08
1.67989e-05
-1.89378e-08
1.67782e-05
-1.66086e-08
1.67685e-05
-1.81469e-08
-2.27705e-08
1.67683e-05
1.45517e-05
-3.2432e-08
1.46209e-05
9.30565e-09
1.46921e-05
1.42322e-08
1.47531e-05
4.96724e-08
1.47789e-05
7.80437e-08
1.47752e-05
6.6264e-08
1.47589e-05
1.43112e-08
1.47264e-05
-3.74795e-08
1.46848e-05
-6.32065e-08
1.46348e-05
-5.73168e-08
1.4582e-05
-3.63009e-08
1.45384e-05
-2.02842e-08
1.45167e-05
-2.00914e-08
1.4525e-05
-3.51029e-08
1.45627e-05
-5.66412e-08
1.46219e-05
-7.57891e-08
1.46911e-05
-8.73577e-08
-8.89474e-08
1.47573e-05
1.29033e-05
-1.43156e-07
1.2793e-05
1.19591e-07
1.26586e-05
1.48727e-07
1.26344e-05
7.38116e-08
1.26971e-05
1.53233e-08
1.2776e-05
-1.25894e-08
1.28156e-05
-2.53105e-08
1.28118e-05
-3.36424e-08
1.27866e-05
-3.80816e-08
1.27664e-05
-3.70784e-08
1.2764e-05
-3.38725e-08
1.27784e-05
-3.46755e-08
1.28006e-05
-4.23217e-08
1.28201e-05
-5.46508e-08
1.28312e-05
-6.76589e-08
1.28333e-05
-7.78979e-08
1.28299e-05
-8.39434e-08
-8.56344e-08
1.28265e-05
1.09616e-05
-1.13786e-07
1.10301e-05
5.10975e-08
1.1078e-05
1.0085e-07
1.10963e-05
5.54536e-08
1.11272e-05
-1.5523e-08
1.11639e-05
-4.93167e-08
1.11831e-05
-4.45242e-08
1.11732e-05
-2.37135e-08
1.11443e-05
-9.26174e-09
1.11161e-05
-8.78124e-09
1.11033e-05
-2.11255e-08
1.11089e-05
-4.02731e-08
1.1127e-05
-6.03819e-08
1.11484e-05
-7.60821e-08
1.1165e-05
-8.42298e-08
1.11726e-05
-8.55585e-08
1.11708e-05
-8.20761e-08
-7.75589e-08
1.11627e-05
9.52889e-06
1.29409e-07
9.55395e-06
2.6034e-08
9.64077e-06
1.40349e-08
9.69545e-06
7.66409e-10
9.70039e-06
-2.04655e-08
9.69142e-06
-4.0343e-08
9.69845e-06
-5.15531e-08
9.73125e-06
-5.65088e-08
9.77776e-06
-5.57743e-08
9.8171e-06
-4.81192e-08
9.83221e-06
-3.62352e-08
9.81922e-06
-2.72915e-08
9.7864e-06
-2.75595e-08
9.74878e-06
-3.84609e-08
9.72027e-06
-5.57235e-08
9.70802e-06
-7.33012e-08
9.71289e-06
-8.69487e-08
-9.30987e-08
9.72843e-06
8.37913e-06
1.66152e-07
8.32743e-06
7.77367e-08
8.32014e-06
2.13297e-08
8.38761e-06
-6.6703e-08
8.4723e-06
-1.05156e-07
8.52275e-06
-9.07955e-08
8.52722e-06
-5.6023e-08
8.50692e-06
-3.62058e-08
8.48691e-06
-3.57719e-08
8.47802e-06
-3.92247e-08
8.47663e-06
-3.48426e-08
8.47381e-06
-2.44782e-08
8.46346e-06
-1.72055e-08
8.44476e-06
-1.97591e-08
8.42135e-06
-3.2317e-08
8.39811e-06
-5.00621e-08
8.37972e-06
-6.85537e-08
-8.30797e-08
8.3697e-06
7.21267e-06
8.98634e-08
7.25862e-06
3.17867e-08
7.27854e-06
1.41156e-09
7.2791e-06
-6.72624e-08
7.29384e-06
-1.19903e-07
7.31667e-06
-1.13624e-07
7.33573e-06
-7.50814e-08
7.34569e-06
-4.61693e-08
7.34814e-06
-3.82218e-08
7.34867e-06
-3.97557e-08
7.35358e-06
-3.97508e-08
7.3665e-06
-3.73978e-08
7.38655e-06
-3.72528e-08
7.40898e-06
-4.21875e-08
7.42777e-06
-5.11099e-08
7.43862e-06
-6.09118e-08
7.44028e-06
-7.02138e-08
-7.7906e-08
7.43511e-06
6.33681e-06
-1.09474e-08
6.41269e-06
-4.40933e-08
6.4806e-06
-6.64948e-08
6.46712e-06
-5.37851e-08
6.40214e-06
-5.49239e-08
6.34364e-06
-5.51209e-08
6.32681e-06
-5.82567e-08
6.35068e-06
-7.00344e-08
6.39677e-06
-8.43167e-08
6.44719e-06
-9.01729e-08
6.48944e-06
-8.19988e-08
6.51509e-06
-6.30484e-08
6.51952e-06
-4.16823e-08
6.50322e-06
-2.58852e-08
6.47264e-06
-2.05391e-08
6.43666e-06
-2.49261e-08
6.40349e-06
-3.70495e-08
-5.24935e-08
6.37808e-06
5.56996e-06
6.92261e-08
5.56981e-06
-4.39349e-08
5.55532e-06
-5.20057e-08
5.56427e-06
-6.27361e-08
5.58638e-06
-7.70358e-08
5.60594e-06
-7.46806e-08
5.60851e-06
-6.08308e-08
5.58911e-06
-5.06302e-08
5.55488e-06
-5.00839e-08
5.5192e-06
-5.44947e-08
5.49402e-06
-5.68219e-08
5.48563e-06
-5.46586e-08
5.49457e-06
-5.06213e-08
5.51782e-06
-4.91311e-08
5.5496e-06
-5.23253e-08
5.58382e-06
-5.9144e-08
5.61401e-06
-6.72408e-08
-7.39428e-08
5.63546e-06
4.81186e-06
3.53688e-08
4.82722e-06
-5.92903e-08
4.83481e-06
-5.96003e-08
4.82497e-06
-5.28912e-08
4.81576e-06
-6.78299e-08
4.8238e-06
-8.2722e-08
4.84687e-06
-8.38986e-08
4.87202e-06
-7.57743e-08
4.88806e-06
-6.6126e-08
4.8917e-06
-5.81413e-08
4.88728e-06
-5.24012e-08
4.88256e-06
-4.99311e-08
4.88378e-06
-5.18458e-08
4.8925e-06
-5.78464e-08
4.90511e-06
-6.49399e-08
4.91596e-06
-6.99942e-08
4.91913e-06
-7.04065e-08
-6.59451e-08
4.91113e-06
4.18149e-06
4.1222e-06
4.0626e-06
4.00971e-06
3.94188e-06
3.85915e-06
3.77526e-06
3.69948e-06
3.63335e-06
3.57521e-06
3.52281e-06
3.47288e-06
3.42104e-06
3.36319e-06
3.29825e-06
3.22826e-06
3.15785e-06
3.0919e-06
-5.08443e-08
5.08443e-08
-1.14033e-07
6.31888e-08
-1.83295e-07
6.9262e-08
-2.6209e-07
7.87945e-08
-3.52187e-07
9.00972e-08
-4.54822e-07
1.02635e-07
-5.70581e-07
1.15759e-07
-6.99601e-07
1.2902e-07
-8.4174e-07
1.42139e-07
-9.96693e-07
1.54954e-07
-1.16407e-06
1.67377e-07
-1.34343e-06
1.7936e-07
-1.5343e-06
1.90866e-07
-1.73616e-06
2.01869e-07
-1.94853e-06
2.12361e-07
-2.17085e-06
2.22322e-07
-2.40234e-06
2.31497e-07
-2.64179e-06
2.39441e-07
-2.88784e-06
2.46052e-07
-3.139e-06
2.51163e-07
-3.39355e-06
2.54551e-07
-3.64951e-06
2.55959e-07
-3.90461e-06
2.55103e-07
-4.15631e-06
2.51698e-07
-4.40179e-06
2.45478e-07
-4.638e-06
2.36206e-07
-4.86167e-06
2.23677e-07
-5.0694e-06
2.0773e-07
-5.25768e-06
1.88278e-07
-5.423e-06
1.65325e-07
-5.562e-06
1.38995e-07
-5.67154e-06
1.09538e-07
-5.74888e-06
7.73391e-08
-5.79185e-06
4.29768e-08
-5.799e-06
7.14692e-09
-5.76915e-06
-2.98508e-08
-5.70259e-06
-6.65583e-08
-5.59987e-06
-1.02718e-07
-5.462e-06
-1.37871e-07
-5.29046e-06
-1.71539e-07
-5.08723e-06
-2.03238e-07
-4.85472e-06
-2.32509e-07
-4.59576e-06
-2.58954e-07
-4.31353e-06
-2.8223e-07
-4.01146e-06
-3.02071e-07
-3.69314e-06
-3.18321e-07
-3.36222e-06
-3.30922e-07
-3.02234e-06
-3.39875e-07
-2.677e-06
-3.45342e-07
-2.32939e-06
-3.47612e-07
-1.98256e-06
-3.46827e-07
-1.63923e-06
-3.43337e-07
-1.30158e-06
-3.37648e-07
-9.71631e-07
-3.29947e-07
-6.50986e-07
-3.20645e-07
-3.40873e-07
-3.10113e-07
-4.23452e-08
-2.98528e-07
2.44837e-07
-2.87182e-07
5.19488e-07
-2.7465e-07
7.81468e-07
-2.6198e-07
1.03075e-06
-2.49285e-07
1.26743e-06
-2.36677e-07
1.49168e-06
-2.24255e-07
1.70378e-06
-2.12094e-07
1.90403e-06
-2.00253e-07
2.0928e-06
-1.88773e-07
2.27049e-06
-1.77688e-07
2.43751e-06
-1.67016e-07
2.59428e-06
-1.56772e-07
2.74124e-06
-1.46962e-07
2.87883e-06
-1.37589e-07
3.00748e-06
-1.2865e-07
3.12762e-06
-1.2014e-07
3.23967e-06
-1.12053e-07
3.34405e-06
-1.04379e-07
3.44116e-06
-9.71078e-08
3.53139e-06
-9.02284e-08
3.61512e-06
-8.37285e-08
3.69271e-06
-7.75951e-08
3.76453e-06
-7.18153e-08
3.8309e-06
-6.63753e-08
3.89216e-06
-6.12616e-08
3.94862e-06
-5.64604e-08
4.00058e-06
-5.1958e-08
4.04832e-06
-4.77407e-08
4.09212e-06
-4.37947e-08
4.13222e-06
-4.01069e-08
4.16889e-06
-3.66639e-08
4.20234e-06
-3.34528e-08
4.2328e-06
-3.04608e-08
4.26048e-06
-2.76754e-08
4.28556e-06
-2.50846e-08
4.30824e-06
-2.2677e-08
4.32868e-06
-2.04411e-08
4.34704e-06
-1.83659e-08
4.36349e-06
-1.64414e-08
4.37814e-06
-1.46576e-08
4.39115e-06
-1.30043e-08
4.40262e-06
-1.14734e-08
4.41268e-06
-1.00569e-08
4.42142e-06
-8.74431e-09
4.42895e-06
-7.52932e-09
4.43536e-06
-6.40733e-09
4.44073e-06
-5.3665e-09
4.44513e-06
-4.40368e-09
4.44864e-06
-3.51229e-09
4.45133e-06
-2.68564e-09
4.45325e-06
-1.92337e-09
4.45446e-06
-1.20711e-09
4.455e-06
-5.41148e-10
4.45492e-06
7.57565e-11
4.45421e-06
7.09339e-10
4.4529e-06
1.31318e-09
4.45102e-06
1.88393e-09
4.4486e-06
2.41328e-09
4.4457e-06
2.90463e-09
4.44232e-06
3.37445e-09
4.43849e-06
3.82968e-09
4.43422e-06
4.27941e-09
4.4295e-06
4.71934e-09
4.42437e-06
5.12882e-09
4.41888e-06
5.48646e-09
4.4131e-06
5.77989e-09
4.40709e-06
6.01024e-09
4.4009e-06
6.18935e-09
4.39457e-06
6.33361e-09
4.38811e-06
6.45808e-09
4.38154e-06
6.57272e-09
4.37485e-06
6.68302e-09
4.36806e-06
6.79095e-09
4.36117e-06
6.89661e-09
4.35417e-06
6.9998e-09
4.34707e-06
7.1001e-09
4.33987e-06
7.19752e-09
4.33258e-06
7.29218e-09
4.32519e-06
7.38428e-09
4.31772e-06
7.47403e-09
4.31016e-06
7.56184e-09
4.30251e-06
7.64789e-09
4.29478e-06
7.73237e-09
4.28696e-06
7.81564e-09
4.27906e-06
7.8978e-09
4.27108e-06
7.97924e-09
4.26302e-06
8.06006e-09
4.25488e-06
8.14059e-09
4.24666e-06
8.22104e-09
4.23836e-06
8.30176e-09
4.22998e-06
8.38307e-09
4.22151e-06
8.46537e-09
4.21296e-06
8.54903e-09
4.20433e-06
8.63447e-09
4.19561e-06
8.7224e-09
4.18679e-06
8.81346e-09
4.17788e-06
8.90853e-09
4.16887e-06
9.00861e-09
4.15976e-06
9.11539e-09
4.15053e-06
9.22999e-09
4.14117e-06
9.35586e-09
4.13168e-06
9.49344e-09
4.12203e-06
9.65019e-09
4.11221e-06
9.82495e-09
4.10217e-06
1.00313e-08
4.0919e-06
1.02689e-08
4.08135e-06
1.05528e-08
4.07045e-06
1.09033e-08
4.05915e-06
1.13036e-08
4.04728e-06
1.18699e-08
4.03484e-06
1.24321e-08
4.0214e-06
1.34445e-08
4.00721e-06
1.41861e-08
3.991e-06
1.6209e-08
3.97401e-06
1.69915e-08
3.9525e-06
2.1516e-08
3.93088e-06
2.16204e-08
3.89789e-06
3.29824e-08
3.86798e-06
2.99123e-08
3.8056e-06
6.23808e-08
3.75383e-06
5.17655e-08
3.58406e-06
1.69771e-07
1.80094e-07
3.40397e-06
-1.41989e-07
1.92834e-07
-3.01152e-07
2.22351e-07
-4.61688e-07
2.29798e-07
-6.25701e-07
2.42807e-07
-7.93039e-07
2.57436e-07
-9.63791e-07
2.73387e-07
-1.13793e-06
2.89897e-07
-1.31565e-06
3.06737e-07
-1.49717e-06
3.23664e-07
-1.68269e-06
3.40473e-07
-1.87235e-06
3.57036e-07
-2.06625e-06
3.73257e-07
-2.26442e-06
3.89042e-07
-2.46683e-06
4.04278e-07
-2.67328e-06
4.18808e-07
-2.88338e-06
4.3242e-07
-3.0967e-06
4.44819e-07
-3.31289e-06
4.55631e-07
-3.53132e-06
4.64482e-07
-3.75116e-06
4.70999e-07
-3.9714e-06
4.74799e-07
-4.19086e-06
4.75413e-07
-4.40805e-06
4.72293e-07
-4.62123e-06
4.64878e-07
-4.82835e-06
4.52602e-07
-5.02707e-06
4.34926e-07
-5.21476e-06
4.11368e-07
-5.38857e-06
3.81538e-07
-5.54548e-06
3.45189e-07
-5.68242e-06
3.02263e-07
-5.79636e-06
2.5293e-07
-5.88443e-06
1.97613e-07
-5.94408e-06
1.36989e-07
-5.97312e-06
7.2014e-08
-5.97068e-06
4.70755e-09
-5.93105e-06
-6.9485e-08
-5.85466e-06
-1.42941e-07
-5.74146e-06
-2.15925e-07
-5.59216e-06
-2.87169e-07
-5.40825e-06
-3.55448e-07
-5.19181e-06
-4.19675e-07
-4.94543e-06
-4.78888e-07
-4.67213e-06
-5.32262e-07
-4.37523e-06
-5.79121e-07
-4.05836e-06
-6.18944e-07
-3.72527e-06
-6.51417e-07
-3.37981e-06
-6.76376e-07
-3.02576e-06
-6.93923e-07
-2.66679e-06
-7.04314e-07
-2.30612e-06
-7.08285e-07
-1.947e-06
-7.05944e-07
-1.5918e-06
-6.98539e-07
-1.24315e-06
-6.86292e-07
-9.02521e-07
-6.7058e-07
-5.71357e-07
-6.51809e-07
-2.51059e-07
-6.30411e-07
5.79045e-08
-6.07491e-07
3.54353e-07
-5.8363e-07
6.38545e-07
-5.58843e-07
9.10244e-07
-5.33679e-07
1.16943e-06
-5.08469e-07
1.41622e-06
-4.83465e-07
1.65082e-06
-4.5886e-07
1.87353e-06
-4.348e-07
2.08467e-06
-4.11395e-07
2.28462e-06
-3.88723e-07
2.47377e-06
-3.66838e-07
2.65253e-06
-3.45778e-07
2.82132e-06
-3.25562e-07
2.98056e-06
-3.06201e-07
3.13067e-06
-2.87694e-07
3.27205e-06
-2.70034e-07
3.40512e-06
-2.53209e-07
3.53027e-06
-2.37201e-07
3.64788e-06
-2.21991e-07
3.75833e-06
-2.07556e-07
3.86197e-06
-1.93873e-07
3.95916e-06
-1.80917e-07
4.05023e-06
-1.68661e-07
4.13549e-06
-1.57078e-07
4.21526e-06
-1.46143e-07
4.28982e-06
-1.35828e-07
4.35947e-06
-1.26107e-07
4.42447e-06
-1.16953e-07
4.48506e-06
-1.0834e-07
4.54151e-06
-1.00243e-07
4.59404e-06
-9.26363e-08
4.64287e-06
-8.5496e-08
4.68822e-06
-7.87981e-08
4.73028e-06
-7.25194e-08
4.76924e-06
-6.66375e-08
4.80529e-06
-6.11308e-08
4.83859e-06
-5.59784e-08
4.86931e-06
-5.116e-08
4.8976e-06
-4.66562e-08
4.9236e-06
-4.24488e-08
4.94747e-06
-3.85195e-08
4.96931e-06
-3.48513e-08
4.98927e-06
-3.14285e-08
5.00745e-06
-2.82358e-08
5.02396e-06
-2.5257e-08
5.03891e-06
-2.24798e-08
5.05239e-06
-1.98913e-08
5.0645e-06
-1.7477e-08
5.07533e-06
-1.52262e-08
5.08494e-06
-1.31282e-08
5.09343e-06
-1.11718e-08
5.10085e-06
-9.34806e-09
5.10729e-06
-7.64518e-09
5.11281e-06
-6.05613e-09
5.11746e-06
-4.5803e-09
5.12136e-06
-3.19202e-09
5.12456e-06
-1.88164e-09
5.12709e-06
-6.50199e-10
5.12902e-06
4.90814e-10
5.13036e-06
1.56284e-09
5.13116e-06
2.57543e-09
5.13146e-06
3.52263e-09
5.13132e-06
4.42012e-09
5.13078e-06
5.26609e-09
5.12986e-06
6.04717e-09
5.12859e-06
6.75204e-09
5.12699e-06
7.37713e-09
5.12508e-06
7.92973e-09
5.12284e-06
8.42577e-09
5.12029e-06
8.88361e-09
5.11743e-06
9.31835e-09
5.11426e-06
9.73927e-09
5.1108e-06
1.01499e-08
5.10704e-06
1.055e-08
5.10299e-06
1.09378e-08
5.09868e-06
1.13114e-08
5.09411e-06
1.16694e-08
5.0893e-06
1.20116e-08
5.08425e-06
1.23383e-08
5.07899e-06
1.26498e-08
5.07351e-06
1.29475e-08
5.06784e-06
1.3232e-08
5.06199e-06
1.35044e-08
5.05595e-06
1.37657e-08
5.04975e-06
1.4017e-08
5.04339e-06
1.42589e-08
5.03688e-06
1.44926e-08
5.03022e-06
1.47188e-08
5.02342e-06
1.49387e-08
5.01649e-06
1.5153e-08
5.00943e-06
1.53626e-08
5.00224e-06
1.55684e-08
4.99494e-06
1.57715e-08
4.98751e-06
1.59729e-08
4.97998e-06
1.61737e-08
4.97232e-06
1.63753e-08
4.96456e-06
1.65792e-08
4.95668e-06
1.67871e-08
4.94869e-06
1.70013e-08
4.94058e-06
1.72241e-08
4.93235e-06
1.74592e-08
4.92399e-06
1.77096e-08
4.9155e-06
1.79822e-08
4.90688e-06
1.82798e-08
4.89808e-06
1.86175e-08
4.88912e-06
1.89921e-08
4.87995e-06
1.94427e-08
4.87056e-06
1.99401e-08
4.86087e-06
2.05919e-08
4.8509e-06
2.12791e-08
4.84046e-06
2.23051e-08
4.82962e-06
2.32719e-08
4.81803e-06
2.50353e-08
4.80584e-06
2.63785e-08
4.79236e-06
2.96911e-08
4.7779e-06
3.14499e-08
4.76112e-06
3.82902e-08
4.74254e-06
4.02031e-08
4.71955e-06
5.5978e-08
4.69203e-06
5.74305e-08
4.65534e-06
9.907e-08
4.60261e-06
1.04495e-07
4.53895e-06
2.3343e-07
2.74251e-07
4.44479e-06
-1.5931e-07
3.52144e-07
-3.35427e-07
3.98468e-07
-5.0965e-07
4.04022e-07
-6.82973e-07
4.1613e-07
-8.54913e-07
4.29375e-07
-1.02583e-06
4.44308e-07
-1.19641e-06
4.60476e-07
-1.3673e-06
4.77619e-07
-1.53913e-06
4.95502e-07
-1.71279e-06
5.14127e-07
-1.88916e-06
5.33406e-07
-2.06903e-06
5.53129e-07
-2.25301e-06
5.73026e-07
-2.44156e-06
5.92821e-07
-2.63501e-06
6.12259e-07
-2.83367e-06
6.31079e-07
-3.0378e-06
6.48956e-07
-3.2476e-06
6.65432e-07
-3.46302e-06
6.79901e-07
-3.68368e-06
6.91659e-07
-3.9088e-06
6.99921e-07
-4.13722e-06
7.03825e-07
-4.36736e-06
7.02437e-07
-4.59725e-06
6.94765e-07
-4.82442e-06
6.79778e-07
-5.04595e-06
6.56452e-07
-5.25843e-06
6.23847e-07
-5.45806e-06
5.81176e-07
-5.64077e-06
5.279e-07
-5.80231e-06
4.63803e-07
-5.93846e-06
3.89079e-07
-6.04523e-06
3.0438e-07
-6.11908e-06
2.10836e-07
-6.15719e-06
1.10131e-07
-6.15827e-06
5.7809e-09
-6.11789e-06
-1.09863e-07
-6.03676e-06
-2.24068e-07
-5.91566e-06
-3.37022e-07
-5.75595e-06
-4.4688e-07
-5.55955e-06
-5.51856e-07
-5.32892e-06
-6.50305e-07
-5.06705e-06
-7.40758e-07
-4.77735e-06
-8.21958e-07
-4.4636e-06
-8.92872e-07
-4.12984e-06
-9.52699e-07
-3.78033e-06
-1.00093e-06
-3.4193e-06
-1.03741e-06
-3.05089e-06
-1.06232e-06
-2.67896e-06
-1.07625e-06
-2.3074e-06
-1.07985e-06
-1.93899e-06
-1.07435e-06
-1.57661e-06
-1.06092e-06
-1.22219e-06
-1.04071e-06
-8.77755e-07
-1.01501e-06
-5.44458e-07
-9.85106e-07
-2.23215e-07
-9.51654e-07
8.53142e-08
-9.1602e-07
3.80925e-07
-8.79241e-07
6.63505e-07
-8.41424e-07
9.33071e-07
-8.03245e-07
1.18976e-06
-7.65161e-07
1.43382e-06
-7.27524e-07
1.66556e-06
-6.90598e-07
1.88534e-06
-6.5458e-07
2.09356e-06
-6.19617e-07
2.29065e-06
-5.8581e-07
2.47704e-06
-5.53229e-07
2.65318e-06
-5.21915e-07
2.8195e-06
-4.91889e-07
2.97646e-06
-4.63157e-07
3.12448e-06
-4.35713e-07
3.26398e-06
-4.09539e-07
3.39539e-06
-3.84612e-07
3.51909e-06
-3.60903e-07
3.63548e-06
-3.38378e-07
3.74492e-06
-3.17e-07
3.84778e-06
-2.96732e-07
3.9444e-06
-2.77534e-07
4.0351e-06
-2.59363e-07
4.1202e-06
-2.4218e-07
4.2e-06
-2.25943e-07
4.27478e-06
-2.10611e-07
4.34482e-06
-1.96142e-07
4.41036e-06
-1.82498e-07
4.47166e-06
-1.6964e-07
4.52895e-06
-1.57529e-07
4.58244e-06
-1.46128e-07
4.63235e-06
-1.35402e-07
4.67887e-06
-1.25315e-07
4.72218e-06
-1.15835e-07
4.76247e-06
-1.0693e-07
4.79991e-06
-9.85675e-08
4.83465e-06
-9.07189e-08
4.86685e-06
-8.33551e-08
4.89664e-06
-7.64492e-08
4.92417e-06
-6.99751e-08
4.94955e-06
-6.39077e-08
4.97293e-06
-5.82232e-08
4.9944e-06
-5.28995e-08
5.01408e-06
-4.79149e-08
5.03207e-06
-4.32481e-08
5.04847e-06
-3.88808e-08
5.06337e-06
-3.47947e-08
5.07686e-06
-3.09712e-08
5.08903e-06
-2.73937e-08
5.09995e-06
-2.40476e-08
5.1097e-06
-2.09186e-08
5.11834e-06
-1.79912e-08
5.12595e-06
-1.52522e-08
5.13258e-06
-1.26882e-08
5.13829e-06
-1.02892e-08
5.14314e-06
-8.04056e-09
5.14718e-06
-5.92614e-09
5.15048e-06
-3.94737e-09
5.15307e-06
-2.10013e-09
5.15502e-06
-3.84992e-10
5.15635e-06
1.24533e-09
5.15711e-06
2.762e-09
5.15734e-06
4.19191e-09
5.15707e-06
5.53221e-09
5.15634e-06
6.7768e-09
5.15517e-06
7.92054e-09
5.15359e-06
8.96386e-09
5.1516e-06
9.91607e-09
5.14923e-06
1.07925e-08
5.14651e-06
1.16106e-08
5.14344e-06
1.23846e-08
5.14006e-06
1.31235e-08
5.13637e-06
1.38321e-08
5.13241e-06
1.45116e-08
5.12819e-06
1.51618e-08
5.12372e-06
1.57824e-08
5.11901e-06
1.63736e-08
5.11409e-06
1.6936e-08
5.10896e-06
1.74708e-08
5.10363e-06
1.79797e-08
5.09811e-06
1.84642e-08
5.09242e-06
1.89261e-08
5.08655e-06
1.9367e-08
5.08053e-06
1.97884e-08
5.07435e-06
2.01921e-08
5.06803e-06
2.05796e-08
5.06157e-06
2.09524e-08
5.05498e-06
2.13119e-08
5.04826e-06
2.16596e-08
5.04142e-06
2.1997e-08
5.03445e-06
2.23255e-08
5.02738e-06
2.26466e-08
5.02018e-06
2.29618e-08
5.01289e-06
2.32728e-08
5.00548e-06
2.35812e-08
4.99796e-06
2.38891e-08
4.99034e-06
2.41988e-08
4.98262e-06
2.45127e-08
4.97479e-06
2.48342e-08
4.96684e-06
2.51665e-08
4.95879e-06
2.55154e-08
4.95061e-06
2.58841e-08
4.94231e-06
2.62842e-08
4.93387e-06
2.67164e-08
4.92528e-06
2.72069e-08
4.91653e-06
2.77445e-08
4.90758e-06
2.83926e-08
4.89842e-06
2.91006e-08
4.88899e-06
3.00255e-08
4.87926e-06
3.10061e-08
4.86914e-06
3.24307e-08
4.85857e-06
3.38399e-08
4.84739e-06
3.62087e-08
4.83549e-06
3.82803e-08
4.82266e-06
4.25248e-08
4.80848e-06
4.56319e-08
4.79291e-06
5.3857e-08
4.77441e-06
5.86995e-08
4.75412e-06
7.6268e-08
4.72635e-06
8.52077e-08
4.69816e-06
1.27255e-07
4.65111e-06
1.51543e-07
4.62066e-06
2.63885e-07
3.4653e-07
4.54838e-06
-1.46027e-07
4.98171e-07
-3.0938e-07
5.61821e-07
-4.71041e-07
5.65683e-07
-6.31985e-07
5.77074e-07
-7.92185e-07
5.89575e-07
-9.52133e-07
6.04256e-07
-1.11245e-06
6.20795e-07
-1.27407e-06
6.39235e-07
-1.43814e-06
6.59572e-07
-1.60568e-06
6.8167e-07
-1.77743e-06
7.0516e-07
-1.95411e-06
7.29804e-07
-2.13657e-06
7.55482e-07
-2.32579e-06
7.82045e-07
-2.52268e-06
8.09152e-07
-2.72785e-06
8.36249e-07
-2.94152e-06
8.62623e-07
-3.16358e-06
8.87491e-07
-3.39372e-06
9.10042e-07
-3.63145e-06
9.29385e-07
-3.87601e-06
9.44486e-07
-4.12631e-06
9.54123e-07
-4.38073e-06
9.56861e-07
-4.63707e-06
9.51106e-07
-4.89248e-06
9.35182e-07
-5.14346e-06
9.07433e-07
-5.38592e-06
8.66304e-07
-5.61521e-06
8.1047e-07
-5.8263e-06
7.38993e-07
-6.01397e-06
6.51467e-07
-6.17301e-06
5.48124e-07
-6.29855e-06
4.29919e-07
-6.38632e-06
2.98608e-07
-6.43303e-06
1.56841e-07
-6.43689e-06
9.63192e-09
-6.39391e-06
-1.52836e-07
-6.3051e-06
-3.12881e-07
-6.17141e-06
-4.7071e-07
-5.99471e-06
-6.2358e-07
-5.77768e-06
-7.68885e-07
-5.52363e-06
-9.04357e-07
-5.23632e-06
-1.02807e-06
-4.91985e-06
-1.13843e-06
-4.57863e-06
-1.23409e-06
-4.21735e-06
-1.31398e-06
-3.84091e-06
-1.37736e-06
-3.45428e-06
-1.42404e-06
-3.06223e-06
-1.45437e-06
-2.66923e-06
-1.46925e-06
-2.27911e-06
-1.46998e-06
-1.89519e-06
-1.45827e-06
-1.52027e-06
-1.43583e-06
-1.15633e-06
-1.40465e-06
-8.04655e-07
-1.36669e-06
-4.66571e-07
-1.32319e-06
-1.42244e-07
-1.27598e-06
1.67882e-07
-1.22615e-06
4.63757e-07
-1.17512e-06
7.4557e-07
-1.12324e-06
1.01358e-06
-1.07125e-06
1.26813e-06
-1.01971e-06
1.50963e-06
-9.69024e-07
1.73852e-06
-9.19489e-07
1.95527e-06
-8.71329e-07
2.16035e-06
-8.247e-07
2.35425e-06
-7.79709e-07
2.53745e-06
-7.36424e-07
2.71041e-06
-6.94882e-07
2.87362e-06
-6.55097e-07
3.02753e-06
-6.17064e-07
3.17258e-06
-5.80763e-07
3.30921e-06
-5.46167e-07
3.43783e-06
-5.13236e-07
3.55885e-06
-4.81927e-07
3.67267e-06
-4.52191e-07
3.77965e-06
-4.23978e-07
3.88014e-06
-3.97232e-07
3.97451e-06
-3.71899e-07
4.06307e-06
-3.47922e-07
4.14613e-06
-3.25245e-07
4.224e-06
-3.03811e-07
4.29696e-06
-2.83566e-07
4.36527e-06
-2.64453e-07
4.42919e-06
-2.46421e-07
4.48896e-06
-2.29415e-07
4.54482e-06
-2.13387e-07
4.59698e-06
-1.98286e-07
4.64564e-06
-1.84065e-07
4.69101e-06
-1.70679e-07
4.73325e-06
-1.58083e-07
4.77256e-06
-1.46235e-07
4.80909e-06
-1.35096e-07
4.84299e-06
-1.24625e-07
4.87443e-06
-1.14787e-07
4.90352e-06
-1.05545e-07
4.93041e-06
-9.68677e-08
4.95523e-06
-8.87213e-08
4.97808e-06
-8.10758e-08
4.99908e-06
-7.39024e-08
5.01834e-06
-6.71736e-08
5.03596e-06
-6.08631e-08
5.05202e-06
-5.49461e-08
5.06663e-06
-4.93995e-08
5.07986e-06
-4.42005e-08
5.09179e-06
-3.93279e-08
5.10251e-06
-3.47625e-08
5.11207e-06
-3.04848e-08
5.12056e-06
-2.64762e-08
5.12802e-06
-2.27203e-08
5.13454e-06
-1.92005e-08
5.14015e-06
-1.59015e-08
5.14492e-06
-1.28093e-08
5.1489e-06
-9.91181e-09
5.15215e-06
-7.19516e-09
5.1547e-06
-4.64747e-09
5.15657e-06
-2.2597e-09
5.15783e-06
-1.50497e-11
5.15852e-06
2.07542e-09
5.15867e-06
4.0378e-09
5.15833e-06
5.87466e-09
5.15752e-06
7.58973e-09
5.15626e-06
9.18272e-09
5.15456e-06
1.06571e-08
5.15246e-06
1.20219e-08
5.14996e-06
1.32897e-08
5.1471e-06
1.44745e-08
5.14389e-06
1.55892e-08
5.14037e-06