/*--------------------------------*- C++ -*----------------------------------*\
  =========                 |
  \\      /  F ield         | OpenFOAM: The Open Source CFD Toolbox
   \\    /   O peration     | Website:  https://openfoam.org
    \\  /    A nd           | Version:  9
     \\/     M anipulation  |
\*---------------------------------------------------------------------------*/
FoamFile
{
    format      ascii;
    class       volScalarField;
    location    "0.009";
    object      pMean;
}
// * * * * * * * * * * * * * * * * * * * * * * * * * * * * * * * * * * * * * //

dimensions      [0 2 -2 0 0 0 0];

internalField   nonuniform List<scalar> 
12225
(
-1.75506
-2.35802
-2.71764
-2.90204
-3.04136
-3.18863
-3.35382
-3.53373
-3.72445
-3.92804
-4.14746
-4.38788
-4.65219
-4.94623
-5.27848
-5.6686
-6.15077
-6.82172
-1.93382
-2.38759
-2.71957
-2.90929
-3.04969
-3.19402
-3.35715
-3.53578
-3.72619
-3.92811
-4.14711
-4.38401
-4.64889
-4.93562
-5.27101
-5.63681
-6.11171
-6.64345
-1.99755
-2.39014
-2.7054
-2.90761
-3.05293
-3.19464
-3.35471
-3.53241
-3.72198
-3.92331
-4.13919
-4.37406
-4.63155
-4.91604
-5.23421
-5.595
-6.01128
-6.47368
-2.25866
-2.43608
-2.7022
-2.91488
-3.06488
-3.20189
-3.35702
-3.53124
-3.71882
-3.9169
-4.12975
-4.35957
-4.61217
-4.88858
-5.19594
-5.53588
-5.90968
-6.30828
-2.37631
-2.46384
-2.69624
-2.91017
-3.06509
-3.20162
-3.35314
-3.52471
-3.71015
-3.90619
-4.11508
-4.3401
-4.58502
-4.85188
-5.14368
-5.4607
-5.79911
-6.14821
-2.35878
-2.49614
-2.70793
-2.91107
-3.0688
-3.20603
-3.35325
-3.51941
-3.70068
-3.8929
-4.09699
-4.31589
-4.55246
-4.80834
-5.08384
-5.3779
-5.68553
-5.99804
-2.39862
-2.54853
-2.73116
-2.90929
-3.06451
-3.20338
-3.34807
-3.5095
-3.68589
-3.87326
-4.07155
-4.28305
-4.50967
-4.75258
-5.01131
-5.28393
-5.56527
-5.84864
-2.39014
-2.55734
-2.73512
-2.90756
-3.06166
-3.2014
-3.34308
-3.49849
-3.66907
-3.85115
-4.04298
-4.2459
-4.46183
-4.69132
-4.93294
-5.18478
-5.44252
-5.7015
-2.54549
-2.62589
-2.76085
-2.91092
-3.05628
-3.19361
-3.33191
-3.48206
-3.64581
-3.82
-4.00331
-4.1966
-4.40052
-4.61526
-4.83978
-5.07201
-5.30873
-5.54672
-2.53875
-2.62595
-2.76137
-2.90875
-3.05198
-3.18647
-3.32063
-3.46376
-3.61902
-3.78498
-3.95984
-4.14298
-4.33479
-4.53478
-4.74221
-4.9551
-5.17154
-5.38823
-2.62023
-2.67453
-2.7856
-2.91687
-3.04719
-3.17269
-3.30063
-3.43807
-3.58645
-3.74361
-3.90768
-4.07848
-4.25606
-4.44045
-4.63077
-4.8253
-5.02215
-5.21998
-2.57908
-2.6785
-2.78946
-2.91103
-3.03528
-3.15744
-3.28178
-3.41242
-3.5515
-3.69855
-3.8529
-4.01297
-4.17822
-4.34841
-4.52279
-4.70015
-4.87911
-5.05826
-2.59411
-2.71485
-2.81971
-2.91772
-3.02407
-3.13682
-3.25433
-3.37794
-3.50862
-3.64615
-3.78927
-3.9371
-4.08891
-4.24418
-4.40248
-4.56253
-4.72375
-4.88515
-2.56875
-2.69771
-2.81699
-2.91232
-3.00525
-3.11043
-3.22254
-3.33814
-3.45824
-3.58368
-3.71376
-3.84723
-3.9833
-4.12159
-4.26155
-4.40214
-4.54235
-4.68126
-2.80412
-2.79641
-2.83425
-2.90349
-2.98716
-3.07818
-3.17548
-3.27787
-3.3844
-3.49494
-3.60899
-3.72498
-3.84199
-3.95964
-4.07764
-4.19511
-4.31155
-4.42594
-2.72027
-2.75267
-2.81301
-2.88274
-2.95456
-3.03187
-3.11491
-3.20211
-3.2933
-3.38726
-3.48264
-3.57824
-3.67329
-3.7673
-3.86011
-3.9511
-4.03948
-4.1244
-2.69455
-2.74062
-2.79232
-2.84047
-2.88805
-2.94615
-3.01531
-3.08942
-3.16405
-3.23845
-3.31202
-3.38379
-3.4535
-3.52107
-3.58598
-3.64747
-3.70505
-3.75831
-2.99991
-2.87612
-2.81295
-2.80735
-2.83275
-2.87467
-2.92353
-2.97259
-3.01994
-3.0661
-3.11116
-3.15468
-3.19573
-3.23327
-3.26669
-3.29544
-3.31922
-3.33751
-2.46176
-2.54044
-2.60417
-2.63354
-2.65827
-2.69273
-2.73333
-2.77364
-2.80934
-2.83815
-2.86102
-2.87892
-2.89162
-2.89852
-2.8995
-2.89459
-2.88402
-2.86764
-2.51693
-2.52676
-2.53783
-2.5593
-2.58391
-2.60482
-2.62264
-2.63765
-2.64849
-2.65373
-2.65325
-2.64758
-2.63668
-2.61988
-2.59674
-2.56713
-2.53134
-2.48939
-2.56924
-2.48535
-2.4375
-2.44163
-2.46953
-2.49533
-2.51181
-2.52059
-2.52221
-2.5173
-2.50573
-2.4874
-2.46196
-2.42932
-2.38971
-2.34365
-2.29134
-2.23314
-2.28978
-2.31294
-2.34371
-2.37212
-2.39955
-2.41882
-2.42852
-2.43041
-2.4245
-2.41055
-2.38915
-2.36055
-2.32442
-2.28074
-2.2298
-2.17222
-2.10821
-2.03828
-2.10776
-2.23038
-2.30469
-2.33176
-2.34181
-2.35303
-2.36325
-2.36495
-2.35538
-2.33539
-2.30671
-2.27014
-2.2256
-2.17309
-2.11305
-2.04601
-1.97246
-1.89267
-1.92085
-2.08654
-2.20157
-2.26314
-2.29164
-2.30308
-2.30699
-2.30422
-2.29213
-2.2694
-2.23665
-2.19492
-2.14486
-2.0868
-2.0211
-1.94827
-1.86872
-1.78299
-2.10367
-2.1303
-2.18345
-2.23825
-2.27065
-2.28082
-2.27935
-2.27158
-2.25625
-2.23081
-2.19458
-2.14846
-2.09348
-2.03044
-1.95976
-1.88181
-1.79683
-1.70547
-1.91877
-2.00745
-2.11269
-2.19618
-2.2361
-2.24581
-2.24315
-2.23464
-2.21865
-2.19221
-2.15427
-2.10569
-2.04786
-1.98184
-1.90809
-1.82686
-1.73843
-1.64332
-1.99023
-2.02589
-2.11676
-2.1949
-2.22893
-2.23463
-2.22993
-2.21955
-2.2015
-2.17295
-2.13271
-2.08151
-2.02091
-1.95221
-1.87593
-1.79218
-1.70109
-1.60307
-1.7971
-1.9537
-2.09478
-2.17365
-2.20485
-2.21271
-2.21055
-2.20115
-2.1829
-2.15358
-2.11236
-2.0601
-1.99843
-1.92857
-1.85091
-1.76542
-1.67218
-1.57197
-1.74803
-1.94736
-2.09919
-2.17214
-2.19809
-2.20532
-2.20343
-2.19345
-2.17406
-2.14342
-2.1008
-2.04714
-1.98418
-1.91312
-1.83436
-1.74755
-1.65276
-1.55019
-1.61746
-1.91424
-2.09636
-2.16523
-2.18798
-2.19622
-2.19534
-2.18518
-2.16507
-2.13371
-2.09056
-2.03655
-1.97342
-1.90228
-1.82342
-1.73625
-1.64077
-1.53642
-5.86028
-5.86619
-5.87756
-5.89395
-5.9154
-5.94159
-5.97232
-6.00721
-6.04587
-6.08775
-6.1321
-6.17804
-6.22441
-6.26969
-6.31193
-6.34885
-6.37763
-6.39494
-6.39695
-6.37941
-6.33746
-6.26582
-6.15869
-6.00999
-5.81334
-5.56236
-5.25083
-4.87293
-4.42369
-3.89912
-3.29675
-2.6155
-1.85641
-1.0223
-0.118137
0.848928
1.8695
2.93249
4.02584
5.13693
6.25296
7.36146
8.45073
9.50992
10.5297
11.5018
12.42
13.2792
14.0766
14.8101
15.4792
16.0849
16.6288
17.1132
17.5415
17.9169
18.2433
18.5246
18.7652
18.9685
19.1382
19.2778
19.3906
19.4797
19.5478
19.5975
19.6313
19.6511
19.659
19.6566
19.6454
19.6269
19.6022
19.5723
19.5383
19.501
19.461
19.4191
19.3757
19.3313
19.2863
19.2411
19.1959
19.1511
19.1068
19.0632
19.0205
18.9787
18.9379
18.8983
18.8598
18.8226
18.7866
18.7518
18.7183
18.6861
18.655
18.6252
18.5965
18.569
18.5427
18.5174
18.4932
18.47
18.4477
18.4264
18.406
18.3865
18.3677
18.3498
18.3325
18.316
18.3001
18.2848
18.2701
18.2559
18.2423
18.2291
18.2164
18.2041
18.1923
18.1808
18.1697
18.1589
18.1484
18.1382
18.1283
18.1187
18.1092
18.1
18.0909
18.082
18.0733
18.0647
18.0563
18.0479
18.0397
18.0315
18.0235
18.0155
18.0076
17.9997
17.9919
17.9841
17.9764
17.9687
17.961
17.9534
17.9457
17.9381
17.9306
17.923
17.9155
17.9081
17.9007
17.8934
17.8862
17.8791
17.8722
17.8656
17.8592
17.8533
17.8478
17.8431
17.8392
17.8364
17.835
17.8357
17.8387
17.8453
17.856
17.8732
17.8977
17.9353
17.9865
18.0666
18.1762
18.3619
18.6257
19.1112
-5.89307
-5.89994
-5.91402
-5.93456
-5.96149
-5.99438
-6.03284
-6.07641
-6.12452
-6.17649
-6.23144
-6.28831
-6.34578
-6.40225
-6.45587
-6.50428
-6.54477
-6.57409
-6.58831
-6.58308
-6.55347
-6.4939
-6.3984
-6.26039
-6.07328
-5.83034
-5.52496
-5.15096
-4.70301
-4.17687
-3.56989
-2.88119
-2.11196
-1.26547
-0.347391
0.634664
1.6708
2.74992
3.85974
4.98731
6.11951
7.24356
8.34747
9.42015
10.4522
11.4351
12.3628
13.2303
14.0345
14.7735
15.4474
16.0566
16.6034
17.0901
17.52
17.8968
18.2242
18.5066
18.7479
18.9519
19.1222
19.2624
19.3757
19.4653
19.5339
19.5842
19.6185
19.6388
19.6472
19.6453
19.6347
19.6166
19.5924
19.563
19.5295
19.4926
19.453
19.4114
19.3684
19.3244
19.2797
19.2349
19.1901
19.1456
19.1016
19.0582
19.0158
18.9742
18.9337
18.8943
18.8561
18.8191
18.7833
18.7487
18.7154
18.6833
18.6524
18.6227
18.5942
18.5668
18.5406
18.5154
18.4913
18.4682
18.446
18.4248
18.4045
18.385
18.3663
18.3484
18.3312
18.3147
18.2988
18.2836
18.269
18.2549
18.2413
18.2282
18.2156
18.2034
18.1916
18.1801
18.1691
18.1583
18.1479
18.1377
18.1278
18.1182
18.1088
18.0995
18.0905
18.0816
18.0729
18.0644
18.0559
18.0476
18.0394
18.0312
18.0232
18.0152
18.0073
17.9994
17.9916
17.9839
17.9761
17.9684
17.9608
17.9531
17.9455
17.9379
17.9303
17.9228
17.9153
17.9078
17.9004
17.8931
17.8859
17.8788
17.8719
17.8653
17.8589
17.8529
17.8474
17.8425
17.8385
17.8356
17.8342
17.8346
17.8374
17.8436
17.854
17.8702
17.8944
17.9295
17.9801
18.0528
18.1592
18.3103
18.5254
18.7657
-6.07832
-6.0857
-6.10151
-6.12463
-6.15513
-6.19258
-6.23666
-6.28689
-6.34275
-6.40357
-6.46857
-6.53669
-6.6067
-6.677
-6.74567
-6.81032
-6.86807
-6.91568
-6.94918
-6.96404
-6.95507
-6.91641
-6.84167
-6.72395
-6.55601
-6.3305
-6.0401
-5.67788
-5.23786
-4.71526
-4.10685
-3.41137
-2.62985
-1.76568
-0.824741
0.184741
1.25189
2.36431
3.50856
4.67073
5.83687
6.99354
8.12812
9.22922
10.287
11.2929
12.2405
13.1252
13.9438
14.6949
15.3783
15.9954
16.5483
17.0398
17.4735
17.8532
18.1831
18.4675
18.7105
18.916
19.0878
19.2293
19.3439
19.4347
19.5046
19.5561
19.5916
19.6132
19.6227
19.6219
19.6124
19.5955
19.5723
19.5439
19.5114
19.4754
19.4368
19.3961
19.3539
19.3107
19.2669
19.2227
19.1786
19.1348
19.0914
19.0487
19.0068
18.9658
18.9258
18.8869
18.8492
18.8126
18.7772
18.743
18.7101
18.6783
18.6478
18.6184
18.5902
18.5631
18.5371
18.5122
18.4883
18.4654
18.4434
18.4224
18.4023
18.3829
18.3644
18.3466
18.3296
18.3132
18.2975
18.2824
18.2679
18.2539
18.2404
18.2273
18.2148
18.2026
18.1909
18.1795
18.1685
18.1578
18.1474
18.1373
18.1275
18.1178
18.1084
18.0992
18.0902
18.0814
18.0727
18.0641
18.0557
18.0474
18.0392
18.0311
18.023
18.0151
18.0072
17.9993
17.9915
17.9838
17.976
17.9683
17.9607
17.953
17.9454
17.9378
17.9302
17.9227
17.9152
17.9077
17.9003
17.893
17.8858
17.8787
17.8717
17.865
17.8586
17.8525
17.8469
17.842
17.8378
17.8348
17.8331
17.8332
17.8356
17.8412
17.8509
17.866
17.8888
17.9213
17.9687
18.0341
18.1285
18.2497
18.4144
18.5651
-6.37732
-6.38545
-6.40314
-6.42919
-6.4638
-6.50661
-6.55743
-6.61587
-6.68154
-6.7539
-6.83235
-6.91598
-7.00363
-7.09383
-7.18471
-7.27388
-7.35858
-7.43535
-7.50012
-7.54802
-7.57348
-7.57017
-7.53099
-7.44819
-7.3136
-7.11862
-6.85476
-6.5138
-6.08845
-5.57272
-4.96254
-4.2561
-3.45426
-2.56077
-1.58239
-0.528744
0.587788
1.75323
2.95251
4.17008
5.39052
6.59932
7.78291
8.9292
10.0278
11.0702
12.0496
12.9616
13.8031
14.5729
15.2716
15.901
16.4635
16.9625
17.4023
17.7866
18.1203
18.4081
18.654
18.862
19.036
19.1797
19.2964
19.3893
19.4612
19.5146
19.552
19.5755
19.5868
19.5879
19.5801
19.5648
19.5433
19.5165
19.4855
19.4509
19.4137
19.3743
19.3334
19.2914
19.2487
19.2056
19.1625
19.1197
19.0772
19.0354
18.9943
18.9541
18.9149
18.8766
18.8395
18.8036
18.7688
18.7351
18.7027
18.6714
18.6413
18.6124
18.5846
18.5579
18.5322
18.5076
18.4841
18.4614
18.4398
18.419
18.3991
18.38
18.3616
18.3441
18.3272
18.311
18.2954
18.2804
18.266
18.2522
18.2388
18.2259
18.2135
18.2014
18.1898
18.1785
18.1675
18.1569
18.1466
18.1365
18.1268
18.1172
18.1078
18.0987
18.0897
18.0809
18.0723
18.0637
18.0553
18.0471
18.0389
18.0308
18.0228
18.0148
18.0069
17.9991
17.9913
17.9835
17.9758
17.9681
17.9605
17.9528
17.9452
17.9376
17.9301
17.9225
17.915
17.9075
17.9001
17.8927
17.8855
17.8783
17.8714
17.8646
17.8581
17.8519
17.8462
17.8411
17.8368
17.8334
17.8314
17.8311
17.833
17.8377
17.8464
17.8601
17.8808
17.9101
17.9525
18.0092
18.0882
18.1836
18.3014
18.3845
-6.78345
-6.79236
-6.81215
-6.84164
-6.88126
-6.93085
-6.99042
-7.05978
-7.13878
-7.22714
-7.32435
-7.42973
-7.54236
-7.66096
-7.78384
-7.90878
-8.03298
-8.15287
-8.26411
-8.36153
-8.43916
-8.48989
-8.50571
-8.47763
-8.39588
-8.25008
-8.02965
-7.7242
-7.32435
-6.82214
-6.21194
-5.49103
-4.66018
-3.7239
-2.69029
-1.57069
-0.3797
0.865811
2.1477
3.44784
4.74869
6.03408
7.28935
8.50158
9.65982
10.7552
11.7807
12.732
13.6063
14.403
15.1236
15.7701
16.3462
16.856
17.3041
17.6952
18.0343
18.3268
18.5768
18.7884
18.9657
19.1125
19.2322
19.328
19.4027
19.4589
19.4989
19.525
19.5389
19.5424
19.5369
19.524
19.5046
19.48
19.451
19.4184
19.383
19.3454
19.3062
19.2658
19.2246
19.183
19.1413
19.0997
19.0585
19.0179
18.9779
18.9387
18.9005
18.8632
18.8269
18.7918
18.7578
18.7249
18.6931
18.6625
18.633
18.6046
18.5773
18.5511
18.526
18.5018
18.4786
18.4564
18.4351
18.4146
18.395
18.3762
18.3582
18.3408
18.3242
18.3082
18.2929
18.2781
18.2639
18.2502
18.237
18.2242
18.2119
18.2
18.1885
18.1773
18.1664
18.1559
18.1457
18.1357
18.126
18.1165
18.1072
18.0981
18.0892
18.0804
18.0718
18.0633
18.0549
18.0467
18.0385
18.0304
18.0225
18.0145
18.0067
17.9988
17.9911
17.9833
17.9756
17.9679
17.9603
17.9527
17.945
17.9374
17.9299
17.9223
17.9148
17.9073
17.8999
17.8925
17.8852
17.878
17.871
17.8641
17.8575
17.8512
17.8454
17.8401
17.8355
17.8318
17.8294
17.8285
17.8297
17.8334
17.8408
17.8526
17.8707
17.8961
17.9325
17.9796
18.0428
18.1134
18.1913
18.2264
-7.28605
-7.29629
-7.31937
-7.35409
-7.40111
-7.46048
-7.5325
-7.61732
-7.71509
-7.82579
-7.94927
-8.08522
-8.23302
-8.39171
-8.55976
-8.73515
-8.9152
-9.09654
-9.27477
-9.44448
-9.59894
-9.73003
-9.82825
-9.88275
-9.88154
-9.81157
-9.65918
-9.4107
-9.05329
-8.576
-7.97077
-7.2333
-6.36348
-5.36587
-4.25018
-3.03146
-1.72967
-0.366835
1.03461
2.4529
3.86801
5.2616
6.61765
7.9223
9.16377
10.3329
11.4223
12.4278
13.3472
14.1807
14.9306
15.6002
16.1945
16.7184
17.1777
17.5776
17.9245
18.2232
18.4785
18.695
18.8768
19.0278
19.1515
19.2511
19.3295
19.3892
19.4328
19.4621
19.4793
19.4859
19.4835
19.4734
19.4569
19.4349
19.4085
19.3783
19.3453
19.3099
19.2728
19.2344
19.1951
19.1553
19.1153
19.0754
19.0357
18.9965
18.9578
18.92
18.8829
18.8468
18.8116
18.7775
18.7444
18.7124
18.6815
18.6516
18.6229
18.5952
18.5685
18.5429
18.5183
18.4947
18.472
18.4503
18.4294
18.4094
18.3901
18.3717
18.3539
18.3369
18.3206
18.3049
18.2898
18.2752
18.2612
18.2477
18.2347
18.2221
18.21
18.1982
18.1868
18.1758
18.165
18.1546
18.1445
18.1346
18.125
18.1155
18.1063
18.0973
18.0884
18.0797
18.0712
18.0627
18.0544
18.0462
18.0381
18.03
18.0221
18.0142
18.0063
17.9985
17.9908
17.9831
17.9754
17.9677
17.9601
17.9524
17.9448
17.9372
17.9296
17.9221
17.9145
17.907
17.8996
17.8922
17.8848
17.8776
17.8705
17.8635
17.8568
17.8504
17.8443
17.8388
17.8339
17.8299
17.8269
17.8254
17.8257
17.8283
17.8341
17.8437
17.8588
17.8798
17.9094
17.9468
17.9941
18.043
18.0877
18.0912
-7.87365
-7.88599
-7.91402
-7.95656
-8.01453
-8.08822
-8.17831
-8.28525
-8.40947
-8.55138
-8.71138
-8.88967
-9.086
-9.2999
-9.5305
-9.77639
-10.0354
-10.3043
-10.5786
-10.8523
-11.1179
-11.366
-11.5856
-11.7637
-11.8852
-11.9332
-11.8892
-11.7342
-11.4496
-11.0186
-10.4278
-9.6684
-8.73889
-7.64645
-6.40753
-5.04618
-3.58681
-2.05651
-0.483736
1.104
2.68162
4.22763
5.72409
7.15651
8.51255
9.78269
10.9594
12.0385
13.0183
13.9005
14.6888
15.3885
16.006
16.5478
17.0212
17.4325
17.789
18.0957
18.3581
18.5809
18.7686
18.925
19.0538
19.1583
19.2413
19.3056
19.3534
19.387
19.4081
19.4185
19.4198
19.4133
19.4001
19.3813
19.358
19.3308
19.3005
19.2678
19.2332
19.1972
19.1602
19.1225
19.0846
19.0465
19.0087
18.9712
18.9342
18.8978
18.8622
18.8274
18.7935
18.7606
18.7286
18.6977
18.6677
18.6388
18.611
18.5841
18.5582
18.5333
18.5094
18.4864
18.4643
18.4431
18.4227
18.4032
18.3844
18.3663
18.349
18.3324
18.3163
18.301
18.2861
18.2719
18.2581
18.2449
18.2321
18.2197
18.2077
18.1961
18.1849
18.174
18.1634
18.1532
18.1431
18.1334
18.1238
18.1145
18.1054
18.0964
18.0876
18.079
18.0705
18.0621
18.0538
18.0457
18.0376
18.0296
18.0217
18.0138
18.006
17.9982
17.9905
17.9828
17.9751
17.9674
17.9598
17.9522
17.9446
17.937
17.9294
17.9218
17.9143
17.9067
17.8993
17.8918
17.8844
17.8771
17.8699
17.8629
17.856
17.8494
17.8432
17.8374
17.8321
17.8276
17.8241
17.8218
17.8211
17.8224
17.8265
17.8337
17.8453
17.8617
17.8842
17.9119
17.9443
17.974
17.9923
17.9726
-8.53416
-8.54968
-8.58501
-8.63879
-8.71226
-8.80603
-8.92104
-9.05817
-9.21844
-9.40304
-9.61302
-9.84917
-10.1121
-10.4023
-10.7198
-11.0642
-11.4338
-11.8257
-12.2356
-12.6575
-13.0836
-13.504
-13.9058
-14.2729
-14.5853
-14.8191
-14.9474
-14.9416
-14.7727
-14.4141
-13.8448
-13.0535
-12.0413
-10.8209
-9.41265
-7.84259
-6.14437
-4.35932
-2.53037
-0.696226
1.11098
2.86687
4.55375
6.15804
7.66858
9.0754
10.3706
11.5493
12.6104
13.557
14.3952
15.1331
15.7793
16.343
16.8335
17.2592
17.6272
17.944
18.2151
18.4459
18.6408
18.804
18.9392
19.0497
19.1384
19.2081
19.2612
19.2997
19.3256
19.3406
19.3462
19.3438
19.3346
19.3196
19.2998
19.276
19.249
19.2194
19.1877
19.1544
19.12
19.0849
19.0493
19.0135
18.9777
18.9422
18.907
18.8724
18.8385
18.8052
18.7728
18.7412
18.7106
18.6808
18.652
18.6242
18.5973
18.5714
18.5464
18.5223
18.4992
18.4769
18.4555
18.4349
18.4151
18.3961
18.3778
18.3603
18.3434
18.3271
18.3115
18.2965
18.282
18.268
18.2546
18.2416
18.229
18.2169
18.2052
18.1938
18.1828
18.172
18.1616
18.1515
18.1416
18.1319
18.1225
18.1133
18.1043
18.0954
18.0867
18.0781
18.0697
18.0614
18.0532
18.0451
18.037
18.0291
18.0212
18.0133
18.0056
17.9978
17.9901
17.9824
17.9748
17.9671
17.9595
17.9519
17.9443
17.9367
17.9291
17.9215
17.914
17.9064
17.8989
17.8914
17.884
17.8766
17.8693
17.8621
17.8551
17.8484
17.8419
17.8358
17.8301
17.8251
17.821
17.8178
17.816
17.8159
17.818
17.8227
17.8307
17.8422
17.8576
17.8757
17.8948
17.9077
17.9052
17.8672
-9.25111
-9.27104
-9.31633
-9.38537
-9.47984
-9.60064
-9.74929
-9.92736
-10.1368
-10.3796
-10.6573
-10.9721
-11.3259
-11.7207
-12.1583
-12.6391
-13.1628
-13.7275
-14.3303
-14.9667
-15.6298
-16.3087
-16.9873
-17.6428
-18.2455
-18.759
-19.1428
-19.3538
-19.3499
-19.0934
-18.5556
-17.721
-16.5883
-15.1671
-13.4797
-11.5692
-9.49907
-7.33581
-5.14259
-2.97273
-0.865285
1.15593
3.07809
4.89386
6.5966
8.17823
9.62863
10.9402
12.11
13.142
14.0453
14.8315
15.5133
16.1037
16.6151
17.0573
17.439
17.7675
18.0492
18.2896
18.4933
18.6648
18.8077
18.9254
19.021
19.0972
19.1564
19.2007
19.2321
19.2524
19.263
19.2653
19.2606
19.2499
19.2342
19.2143
19.191
19.1648
19.1364
19.1063
19.0749
19.0425
19.0096
18.9763
18.9429
18.9096
18.8765
18.8439
18.8118
18.7803
18.7495
18.7195
18.6903
18.6619
18.6344
18.6078
18.582
18.5571
18.5331
18.51
18.4877
18.4662
18.4456
18.4257
18.4066
18.3882
18.3705
18.3534
18.3371
18.3213
18.3061
18.2915
18.2774
18.2638
18.2506
18.238
18.2257
18.2138
18.2023
18.1912
18.1803
18.1698
18.1596
18.1496
18.1399
18.1304
18.1211
18.112
18.103
18.0943
18.0857
18.0772
18.0688
18.0606
18.0524
18.0444
18.0364
18.0285
18.0207
18.0129
18.0051
17.9974
17.9897
17.9821
17.9744
17.9668
17.9592
17.9516
17.944
17.9364
17.9288
17.9212
17.9137
17.9061
17.8985
17.891
17.8835
17.876
17.8686
17.8614
17.8542
17.8472
17.8405
17.834
17.828
17.8224
17.8175
17.8135
17.8105
17.8089
17.8089
17.8109
17.8152
17.8217
17.8303
17.8394
17.8464
17.8448
17.8257
17.7733
-10.0022
-10.0284
-10.0875
-10.1773
-10.3001
-10.4573
-10.6512
-10.8845
-11.1597
-11.4799
-11.8485
-12.2694
-12.7472
-13.2859
-13.8887
-14.5581
-15.2963
-16.1054
-16.9867
-17.9389
-18.9551
-20.02
-21.1072
-22.1791
-23.1884
-24.081
-24.7988
-25.2812
-25.4695
-25.3149
-24.7779
-23.8292
-22.4584
-20.6844
-18.5604
-16.1646
-13.5853
-10.9148
-8.24091
-5.63714
-3.15526
-0.820694
1.36249
3.40362
5.31192
7.0886
8.72249
10.1984
11.5068
12.6484
13.6342
14.481
15.2067
15.8304
16.3665
16.8278
17.2251
17.5672
17.861
18.1125
18.3267
18.5078
18.6598
18.786
18.8895
18.9732
19.0394
19.0904
19.1281
19.1543
19.1706
19.1783
19.1786
19.1728
19.1616
19.146
19.1268
19.1045
19.0798
19.0531
19.025
18.9958
18.9657
18.9352
18.9044
18.8736
18.8429
18.8124
18.7824
18.7528
18.7239
18.6956
18.6679
18.6411
18.615
18.5897
18.5651
18.5414
18.5185
18.4964
18.4751
18.4545
18.4346
18.4155
18.3971
18.3794
18.3624
18.3459
18.3301
18.3148
18.3001
18.286
18.2723
18.2591
18.2463
18.2339
18.222
18.2104
18.1992
18.1883
18.1777
18.1673
18.1573
18.1475
18.1379
18.1286
18.1194
18.1105
18.1017
18.093
18.0845
18.0761
18.0679
18.0597
18.0516
18.0436
18.0357
18.0279
18.0201
18.0123
18.0046
17.997
17.9893
17.9817
17.9741
17.9665
17.9589
17.9513
17.9437
17.9361
17.9285
17.9209
17.9133
17.9057
17.8981
17.8905
17.883
17.8754
17.8679
17.8605
17.8532
17.846
17.839
17.8321
17.8256
17.8195
17.8139
17.8089
17.8047
17.8015
17.7994
17.7986
17.7991
17.8007
17.8028
17.8035
17.7997
17.7858
17.7531
17.6895
-10.7595
-10.7946
-10.8724
-10.9895
-11.1497
-11.3551
-11.609
-11.9149
-12.2773
-12.7014
-13.1933
-13.7596
-14.4069
-15.1415
-15.9704
-16.9018
-17.9455
-19.1111
-20.4039
-21.8205
-23.3444
-24.9438
-26.5715
-28.1662
-29.6568
-30.969
-32.0332
-32.7839
-33.1566
-33.0834
-32.5015
-31.3657
-29.6668
-27.4483
-24.7936
-21.7964
-18.5605
-15.2118
-11.8804
-8.68057
-5.69222
-2.95211
-0.458371
1.81873
3.91939
5.87504
7.69002
9.34332
10.8102
12.0807
13.1644
14.0826
14.8618
15.5241
16.0889
16.5723
16.9875
17.3447
17.6521
17.9161
18.1419
18.3341
18.4963
18.6322
18.7448
18.8369
18.9111
18.9695
19.0142
19.0471
19.0696
19.0832
19.0891
19.0885
19.0823
19.0715
19.0567
19.0387
19.018
18.9952
18.9706
18.9448
18.9179
18.8904
18.8625
18.8343
18.8062
18.7781
18.7503
18.7229
18.6959
18.6694
18.6436
18.6184
18.5938
18.5699
18.5468
18.5243
18.5026
18.4816
18.4613
18.4417
18.4228
18.4045
18.3869
18.3699
18.3535
18.3378
18.3225
18.3078
18.2936
18.28
18.2667
18.2539
18.2415
18.2296
18.2179
18.2067
18.1957
18.1851
18.1748
18.1647
18.1548
18.1453
18.1359
18.1267
18.1177
18.1089
18.1002
18.0917
18.0833
18.075
18.0668
18.0587
18.0508
18.0428
18.035
18.0272
18.0195
18.0118
18.0041
17.9965
17.9889
17.9813
17.9737
17.9661
17.9585
17.9509
17.9434
17.9358
17.9282
17.9206
17.9129
17.9053
17.8977
17.8901
17.8824
17.8748
17.8672
17.8596
17.8521
17.8447
17.8374
17.8302
17.8232
17.8165
17.8101
17.8041
17.7987
17.7938
17.7895
17.7859
17.7828
17.7797
17.7755
17.7685
17.7553
17.7306
17.687
17.6143
-11.4869
-11.5348
-11.6381
-11.7919
-12.0023
-12.2715
-12.6048
-13.008
-13.4881
-14.0532
-14.7118
-15.474
-16.3506
-17.3553
-18.5046
-19.8167
-21.308
-22.9879
-24.8527
-26.882
-29.0362
-31.2572
-33.4724
-35.6014
-37.5673
-39.3034
-40.7458
-41.8244
-42.4535
-42.5339
-41.9677
-40.6866
-38.6724
-35.9599
-32.6326
-28.8151
-24.6711
-20.3881
-16.157
-12.1448
-8.46757
-5.18131
-2.28596
0.264959
2.55086
4.65625
6.62252
8.43693
10.0596
11.4635
12.6512
13.6478
14.4842
15.1887
15.7853
16.2934
16.7285
17.1026
17.4249
17.7026
17.9411
18.1453
18.3188
18.4653
18.5879
18.6893
18.7722
18.8388
18.8912
18.9313
18.9605
18.9805
18.9925
18.9977
18.9969
18.9912
18.9813
18.9678
18.9514
18.9327
18.912
18.8898
18.8665
18.8422
18.8173
18.7921
18.7666
18.7411
18.7158
18.6906
18.6658
18.6413
18.6173
18.5939
18.571
18.5487
18.527
18.5059
18.4854
18.4656
18.4464
18.4279
18.4099
18.3926
18.3758
18.3597
18.344
18.3289
18.3144
18.3003
18.2867
18.2735
18.2607
18.2484
18.2364
18.2248
18.2136
18.2027
18.192
18.1817
18.1716
18.1618
18.1522
18.1428
18.1336
18.1246
18.1158
18.1071
18.0986
18.0902
18.0819
18.0738
18.0657
18.0577
18.0498
18.042
18.0342
18.0265
18.0188
18.0111
18.0035
17.9959
17.9884
17.9808
17.9732
17.9657
17.9581
17.9506
17.943
17.9354
17.9278
17.9202
17.9126
17.9049
17.8972
17.8896
17.8819
17.8741
17.8664
17.8587
17.851
17.8434
17.8357
17.8282
17.8207
17.8134
17.8062
17.7992
17.7924
17.7859
17.7795
17.7731
17.7665
17.7588
17.7489
17.7348
17.7133
17.6795
17.6267
17.5467
-12.1433
-12.2103
-12.3478
-12.5506
-12.8271
-13.1812
-13.6213
-14.1556
-14.7943
-15.5491
-16.4347
-17.4693
-18.6742
-20.0732
-21.6891
-23.54
-25.6344
-27.9661
-30.5101
-33.2216
-36.0378
-38.8834
-41.679
-44.3502
-46.8346
-49.0767
-51.0098
-52.5387
-53.5285
-53.8152
-53.2404
-51.6929
-49.1413
-45.6481
-41.3551
-36.4615
-31.2055
-25.8357
-20.593
-15.6838
-11.2518
-7.36367
-4.02009
-1.17274
1.29771
3.53506
5.61949
7.55968
9.31289
10.8351
12.1206
13.1922
14.085
14.8322
15.4617
15.9958
16.4521
16.8443
17.1826
17.4748
17.7269
17.9437
18.1292
18.287
18.4202
18.5317
18.6239
18.6993
18.7599
18.8077
18.8443
18.8711
18.8896
18.9008
18.9058
18.9055
18.9008
18.8922
18.8805
18.8661
18.8496
18.8313
18.8116
18.7908
18.7692
18.747
18.7245
18.7017
18.6789
18.6562
18.6336
18.6113
18.5893
18.5678
18.5466
18.526
18.5058
18.4862
18.4671
18.4486
18.4306
18.4131
18.3962
18.3799
18.364
18.3487
18.3339
18.3195
18.3056
18.2922
18.2792
18.2666
18.2544
18.2425
18.231
18.2198
18.209
18.1984
18.1881
18.1781
18.1683
18.1587
18.1494
18.1402
18.1313
18.1224
18.1138
18.1053
18.0969
18.0887
18.0805
18.0725
18.0645
18.0566
18.0488
18.0411
18.0334
18.0257
18.0181
18.0105
18.0029
17.9954
17.9879
17.9803
17.9728
17.9653
17.9577
17.9502
17.9426
17.9351
17.9275
17.9198
17.9122
17.9045
17.8968
17.889
17.8813
17.8735
17.8656
17.8578
17.8499
17.842
17.8341
17.8261
17.8182
17.8102
17.8022
17.7942
17.7862
17.778
17.7695
17.7604
17.7503
17.7383
17.7232
17.7027
17.6739
17.6322
17.5719
17.486
-12.6796
-12.7733
-12.9575
-13.2276
-13.5949
-14.0653
-14.6506
-15.3631
-16.221
-17.2462
-18.4641
-19.901
-21.5827
-23.5313
-25.7621
-28.2794
-31.0742
-34.1197
-37.369
-40.7581
-44.2134
-47.6592
-51.0238
-54.2419
-57.2525
-59.9838
-62.3293
-64.1336
-65.1954
-65.3014
-64.2795
-62.0382
-58.5928
-54.0797
-48.7182
-42.765
-36.4978
-30.1993
-24.132
-18.5064
-13.5031
-9.17515
-5.49366
-2.39746
0.238487
2.57809
4.74768
6.77643
8.62479
10.239
11.6031
12.7377
13.6797
14.4658
15.1265
15.6861
16.1638
16.5743
16.929
17.2362
17.5023
17.7321
17.9299
18.0993
18.2436
18.3654
18.4674
18.5521
18.6214
18.6773
18.7215
18.7556
18.7808
18.7985
18.8096
18.8151
18.8158
18.8124
18.8055
18.7957
18.7835
18.7693
18.7535
18.7364
18.7183
18.6994
18.6799
18.66
18.6399
18.6198
18.5996
18.5796
18.5597
18.5401
18.5209
18.502
18.4835
18.4654
18.4477
18.4305
18.4138
18.3976
18.3818
18.3664
18.3516
18.3371
18.3231
18.3096
18.2964
18.2837
18.2713
18.2593
18.2476
18.2363
18.2252
18.2145
18.2041
18.1939
18.1839
18.1742
18.1647
18.1555
18.1464
18.1375
18.1287
18.1201
18.1117
18.1033
18.0951
18.087
18.079
18.0711
18.0632
18.0555
18.0478
18.0401
18.0325
18.0249
18.0173
18.0098
18.0023
17.9948
17.9873
17.9798
17.9723
17.9648
17.9573
17.9498
17.9422
17.9347
17.9271
17.9194
17.9118
17.9041
17.8963
17.8885
17.8807
17.8728
17.8648
17.8568
17.8488
17.8406
17.8324
17.8241
17.8156
17.807
17.7983
17.7893
17.7799
17.7701
17.7596
17.7479
17.7346
17.7186
17.6986
17.6724
17.6372
17.5887
17.5221
17.4313
-13.0442
-13.1773
-13.4297
-13.7939
-14.2846
-14.9128
-15.6993
-16.6708
-17.8595
-19.2944
-20.9997
-22.9948
-25.2957
-27.912
-30.843
-34.0728
-37.5678
-41.277
-45.1382
-49.0824
-53.0371
-56.9239
-60.6592
-64.1506
-67.3028
-70.0077
-72.1307
-73.5075
-73.9568
-73.3152
-71.4627
-68.3756
-64.1064
-58.8107
-52.7112
-46.0997
-39.2564
-32.4705
-26.0059
-20.0751
-14.836
-10.3366
-6.5249
-3.30976
-0.576023
1.83155
4.05587
6.13941
8.04497
9.71564
11.1306
12.3085
13.2869
14.1037
14.7906
15.3728
15.8702
16.2983
16.6689
16.9909
17.2708
17.5136
17.7237
17.9046
18.0599
18.1922
18.3042
18.3983
18.4765
18.5409
18.5931
18.6346
18.667
18.6914
18.7088
18.7203
18.7267
18.7287
18.7269
18.722
18.7143
18.7044
18.6927
18.6794
18.6649
18.6494
18.6331
18.6163
18.5991
18.5816
18.5639
18.5462
18.5286
18.5111
18.4938
18.4767
18.46
18.4435
18.4274
18.4116
18.3962
18.3812
18.3665
18.3523
18.3384
18.325
18.3118
18.2991
18.2867
18.2747
18.263
18.2516
18.2405
18.2297
18.2192
18.2089
18.1989
18.1891
18.1795
18.1702
18.161
18.152
18.1432
18.1346
18.1261
18.1177
18.1094
18.1013
18.0932
18.0853
18.0774
18.0696
18.0619
18.0543
18.0466
18.0391
18.0315
18.024
18.0166
18.0091
18.0016
17.9942
17.9868
17.9793
17.9719
17.9644
17.9569
17.9494
17.9419
17.9343
17.9267
17.919
17.9114
17.9036
17.8959
17.888
17.8801
17.8721
17.8641
17.8559
17.8476
17.8392
17.8307
17.822
17.8131
17.8039
17.7944
17.7844
17.7738
17.7624
17.7499
17.7358
17.7195
17.6998
17.6754
17.6441
17.6032
17.549
17.477
17.3822
-13.186
-13.3765
-13.7299
-14.2296
-14.8988
-15.7656
-16.8739
-18.2649
-19.9693
-21.9977
-24.3499
-27.0246
-30.0168
-33.3082
-36.8662
-40.6513
-44.6158
-48.701
-52.8356
-56.9364
-60.9064
-64.6393
-68.0263
-70.9829
-73.4244
-75.2894
-76.5015
-76.9513
-76.5245
-75.0958
-72.5821
-68.9612
-64.2919
-58.7204
-52.4612
-45.7799
-38.9562
-32.2644
-25.9473
-20.1893
-15.1091
-10.7387
-7.01965
-3.84928
-1.1151
1.31559
3.56499
5.67002
7.59443
9.28393
10.7181
11.9155
12.9135
13.7498
14.4558
15.0561
15.5707
16.0149
16.4006
16.7369
17.0303
17.286
17.5081
17.7006
17.8668
18.0096
18.1318
18.2356
18.3231
18.3962
18.4567
18.5062
18.546
18.5775
18.6017
18.6195
18.6319
18.6396
18.6432
18.6434
18.6406
18.6353
18.6279
18.6187
18.608
18.5961
18.5833
18.5697
18.5555
18.5408
18.5259
18.5107
18.4955
18.4802
18.465
18.4499
18.4349
18.4202
18.4056
18.3914
18.3774
18.3637
18.3503
18.3372
18.3244
18.312
18.2998
18.288
18.2764
18.2651
18.2541
18.2434
18.2329
18.2227
18.2127
18.2029
18.1934
18.184
18.1749
18.1659
18.1571
18.1484
18.1399
18.1315
18.1232
18.1151
18.107
18.0991
18.0912
18.0835
18.0758
18.0681
18.0605
18.053
18.0455
18.038
18.0306
18.0231
18.0157
18.0083
18.0009
17.9936
17.9862
17.9788
17.9713
17.9639
17.9564
17.949
17.9414
17.9339
17.9263
17.9186
17.9109
17.9032
17.8954
17.8875
17.8795
17.8714
17.8633
17.855
17.8465
17.8379
17.8291
17.82
17.8106
17.8008
17.7905
17.7796
17.7678
17.755
17.7406
17.7242
17.705
17.682
17.6536
17.6178
17.5719
17.5128
17.4363
17.3381
-13.042
-13.3135
-13.819
-14.5204
-15.4656
-16.7103
-18.3121
-20.2935
-22.6432
-25.3272
-28.3021
-31.5196
-34.9355
-38.5059
-42.1919
-45.9476
-49.7191
-53.4301
-57.011
-60.3795
-63.4808
-66.2413
-68.6108
-70.5379
-71.9801
-72.8922
-73.2176
-72.8814
-71.8009
-69.8918
-67.0977
-63.4162
-58.9088
-53.6993
-47.9601
-41.8988
-35.7532
-29.7619
-24.1249
-18.983
-14.4161
-10.4362
-6.98722
-3.98031
-1.32267
1.08464
3.32329
5.41144
7.31346
8.98165
10.4002
11.5896
12.5869
13.4283
14.1434
14.7556
15.2831
15.7406
16.1395
16.4885
16.7943
17.0617
17.295
17.4981
17.6745
17.8272
17.9589
18.072
18.1685
18.2503
18.319
18.3763
18.4236
18.4621
18.493
18.5173
18.5357
18.5492
18.5582
18.5636
18.5657
18.565
18.5619
18.5568
18.5501
18.5419
18.5325
18.5222
18.511
18.4993
18.4871
18.4745
18.4616
18.4486
18.4355
18.4224
18.4093
18.3963
18.3834
18.3707
18.3582
18.3458
18.3337
18.3218
18.3101
18.2987
18.2875
18.2765
18.2658
18.2553
18.245
18.235
18.2251
18.2155
18.2061
18.1968
18.1877
18.1788
18.1701
18.1615
18.153
18.1447
18.1364
18.1283
18.1203
18.1124
18.1046
18.0969
18.0892
18.0816
18.074
18.0665
18.0591
18.0516