/*--------------------------------*- C++ -*----------------------------------*\
  =========                 |
  \\      /  F ield         | OpenFOAM: The Open Source CFD Toolbox
   \\    /   O peration     | Website:  https://openfoam.org
    \\  /    A nd           | Version:  9
     \\/     M anipulation  |
\*---------------------------------------------------------------------------*/
FoamFile
{
    format      ascii;
    class       volVectorField;
    location    "0.009";
    object      UMean;
}
// * * * * * * * * * * * * * * * * * * * * * * * * * * * * * * * * * * * * * //

dimensions      [0 1 -1 0 0 0 0];

internalField   nonuniform List<vector> 
12225
(
(9.86723 0.0425888 0)
(9.58172 0.0563064 0)
(9.29268 0.0549031 0)
(8.99986 0.053991 0)
(8.71502 0.0531687 0)
(8.44551 0.051612 0)
(8.19677 0.0483113 0)
(7.966 0.0460639 0)
(7.75327 0.0425282 0)
(7.55395 0.0421256 0)
(7.36955 0.0373798 0)
(7.2021 0.0384623 0)
(7.04557 0.0289917 0)
(6.92403 0.0332283 0)
(6.79104 0.015376 0)
(6.74335 0.0282677 0)
(6.61081 -0.00565513 0)
(6.69236 0.0173659 0)
(10.0147 0.0546937 0)
(10.0848 0.0755573 0)
(10.137 0.0736048 0)
(10.1651 0.0728894 0)
(10.1757 0.074343 0)
(10.1754 0.074462 0)
(10.1679 0.0740414 0)
(10.1564 0.0725024 0)
(10.1406 0.0719245 0)
(10.1246 0.0696324 0)
(10.107 0.0685933 0)
(10.0947 0.0641918 0)
(10.0815 0.0619671 0)
(10.0796 0.0542576 0)
(10.0737 0.050462 0)
(10.0896 0.0369147 0)
(10.0945 0.0289574 0)
(10.1392 -0.00296668 0)
(10.0316 0.0218401 0)
(10.075 0.048004 0)
(10.1155 0.045794 0)
(10.1437 0.0473308 0)
(10.1619 0.0519545 0)
(10.1761 0.0553506 0)
(10.1914 0.0556721 0)
(10.2097 0.0554446 0)
(10.2308 0.0535739 0)
(10.2542 0.0528119 0)
(10.2794 0.0488405 0)
(10.3062 0.0463427 0)
(10.3355 0.0384252 0)
(10.3676 0.0330399 0)
(10.4037 0.0206258 0)
(10.4438 0.00970987 0)
(10.4898 -0.0091988 0)
(10.5381 -0.0418739 0)
(10.0227 0.0222259 0)
(10.0406 0.0557843 0)
(10.0653 0.0566443 0)
(10.0867 0.0569476 0)
(10.1022 0.0599596 0)
(10.1152 0.0617106 0)
(10.1292 0.0611273 0)
(10.1455 0.0587237 0)
(10.1645 0.0559906 0)
(10.1864 0.0525473 0)
(10.2112 0.0485637 0)
(10.2393 0.042887 0)
(10.2706 0.0358477 0)
(10.3055 0.0264121 0)
(10.3442 0.0148773 0)
(10.3869 -0.000767108 0)
(10.4325 -0.0216441 0)
(10.4808 -0.0530057 0)
(9.96579 0.0208437 0)
(9.98227 0.0380781 0)
(10.0097 0.0429332 0)
(10.0336 0.0439708 0)
(10.0507 0.0462821 0)
(10.0657 0.0486464 0)
(10.0818 0.0483777 0)
(10.0997 0.0458052 0)
(10.119 0.0416732 0)
(10.1395 0.0370328 0)
(10.1616 0.0311798 0)
(10.1858 0.0239685 0)
(10.2125 0.0145983 0)
(10.2428 0.00271427 0)
(10.2765 -0.011938 0)
(10.3146 -0.0310463 0)
(10.3551 -0.0546617 0)
(10.3985 -0.0861709 0)
(9.94517 0.0173191 0)
(9.95358 0.0330111 0)
(9.97406 0.043479 0)
(9.99306 0.0458146 0)
(10.0079 0.0465052 0)
(10.023 0.0471453 0)
(10.0411 0.0464033 0)
(10.0615 0.0438793 0)
(10.0826 0.0399916 0)
(10.1042 0.0350041 0)
(10.127 0.0285255 0)
(10.152 0.0201792 0)
(10.1798 0.00940192 0)
(10.2107 -0.0041494 0)
(10.2443 -0.0209989 0)
(10.2805 -0.0419066 0)
(10.318 -0.0675701 0)
(10.3559 -0.0989047 0)
(9.98679 0.0191541 0)
(10.0035 0.0275693 0)
(10.0232 0.035525 0)
(10.0414 0.0387966 0)
(10.0557 0.0391675 0)
(10.0669 0.0381654 0)
(10.0779 0.0357026 0)
(10.0911 0.0317936 0)
(10.1075 0.0266849 0)
(10.1271 0.0203559 0)
(10.1497 0.0122986 0)
(10.1746 0.00190836 0)
(10.2015 -0.0112114 0)
(10.23 -0.0272418 0)
(10.2601 -0.0464947 0)
(10.2916 -0.069206 0)
(10.3241 -0.0959524 0)
(10.3567 -0.126692 0)
(9.95988 0.0101641 0)
(9.98033 0.0241404 0)
(10.0004 0.0315494 0)
(10.0195 0.0346311 0)
(10.038 0.0354537 0)
(10.0559 0.0356122 0)
(10.0738 0.0340862 0)
(10.0923 0.0299549 0)
(10.1118 0.0233779 0)
(10.1327 0.0150118 0)
(10.1557 0.00515481 0)
(10.1807 -0.00631465 0)
(10.2078 -0.0199742 0)
(10.2358 -0.0363289 0)
(10.2652 -0.0561282 0)
(10.2944 -0.079572 0)
(10.3249 -0.107266 0)
(10.3533 -0.138529 0)
(10.0685 0.000897025 0)
(10.0831 0.0136956 0)
(10.0981 0.0226562 0)
(10.1132 0.0276205 0)
(10.1303 0.0280888 0)
(10.1499 0.0256227 0)
(10.1715 0.0217487 0)
(10.1933 0.016728 0)
(10.2139 0.0100975 0)
(10.233 0.00131361 0)
(10.2517 -0.00978937 0)
(10.2714 -0.0232873 0)
(10.2932 -0.0392372 0)
(10.317 -0.0579175 0)
(10.3427 -0.0795306 0)
(10.3692 -0.104345 0)
(10.3957 -0.132481 0)
(10.4212 -0.163692 0)
(9.99975 0.00697051 0)
(9.99947 0.0162521 0)
(10.0109 0.0211706 0)
(10.031 0.0217801 0)
(10.0542 0.0196507 0)
(10.0767 0.0163723 0)
(10.0975 0.0129418 0)
(10.1171 0.00892934 0)
(10.1362 0.00330253 0)
(10.1553 -0.00483142 0)
(10.1749 -0.0159775 0)
(10.1962 -0.0301578 0)
(10.219 -0.0473154 0)
(10.2442 -0.0671052 0)
(10.27 -0.0896458 0)
(10.2976 -0.114671 0)
(10.3231 -0.142744 0)
(10.3503 -0.173072 0)
(9.99132 0.000993133 0)
(9.99497 0.0053331 0)
(10.0052 0.00891701 0)
(10.0167 0.0105726 0)
(10.0277 0.00971208 0)
(10.0386 0.00670589 0)
(10.0505 0.00250994 0)
(10.0643 -0.00270687 0)
(10.08 -0.00979867 0)
(10.0973 -0.0196722 0)
(10.1161 -0.0328374 0)
(10.1362 -0.0491955 0)
(10.1575 -0.0685614 0)
(10.1795 -0.0904026 0)
(10.2023 -0.11469 0)
(10.2249 -0.14104 0)
(10.2477 -0.169942 0)
(10.2696 -0.200714 0)
(10.0358 0.00829614 0)
(10.041 0.00877813 0)
(10.0515 0.0135628 0)
(10.0631 0.0142943 0)
(10.0744 0.0106031 0)
(10.0861 0.00518104 0)
(10.0991 -0.000385886 0)
(10.1139 -0.00638396 0)
(10.1306 -0.0141075 0)
(10.1488 -0.0246576 0)
(10.1681 -0.0384956 0)
(10.1881 -0.055503 0)
(10.2086 -0.0752806 0)
(10.2295 -0.0973766 0)
(10.2506 -0.121724 0)
(10.2718 -0.148083 0)
(10.2929 -0.176983 0)
(10.3133 -0.207675 0)
(9.98384 -0.00135387 0)
(10.0017 -0.00644786 0)
(10.0184 -0.00400685 0)
(10.0326 -0.000404586 0)
(10.0452 -0.00128584 0)
(10.0565 -0.00584015 0)
(10.0672 -0.0122941 0)
(10.0786 -0.0200697 0)
(10.0922 -0.0295797 0)
(10.1088 -0.0415513 0)
(10.1281 -0.0564977 0)
(10.1494 -0.0744263 0)
(10.1712 -0.0951006 0)
(10.1929 -0.118159 0)
(10.2134 -0.143485 0)
(10.2331 -0.170839 0)
(10.2507 -0.200391 0)
(10.268 -0.231652 0)
(10.034 -0.00235682 0)
(10.0435 0.00311262 0)
(10.0515 0.0044311 0)
(10.0576 0.00345528 0)
(10.0651 -0.000128594 0)
(10.0744 -0.00538692 0)
(10.0841 -0.0118222 0)
(10.0942 -0.0201596 0)
(10.1055 -0.0315482 0)
(10.1187 -0.046487 0)
(10.1339 -0.0645357 0)
(10.1504 -0.0847614 0)
(10.1673 -0.10643 0)
(10.1838 -0.129096 0)
(10.1993 -0.152994 0)
(10.2133 -0.178395 0)
(10.2258 -0.205914 0)
(10.2369 -0.235638 0)
(10.061 -0.0216173 0)
(10.0609 -0.0148567 0)
(10.0669 -0.0127071 0)
(10.0772 -0.0126734 0)
(10.0879 -0.0146232 0)
(10.097 -0.0191648 0)
(10.105 -0.0262778 0)
(10.1131 -0.0360452 0)
(10.1224 -0.0487145 0)
(10.1329 -0.0643225 0)
(10.1438 -0.0824782 0)
(10.1546 -0.102571 0)
(10.165 -0.124101 0)
(10.1752 -0.146874 0)
(10.1854 -0.171024 0)
(10.196 -0.196772 0)
(10.2062 -0.224479 0)
(10.2167 -0.254173 0)
(10.0086 0.00661801 0)
(10.0011 0.00174865 0)
(10.0013 -0.00431631 0)
(10.0065 -0.00961263 0)
(10.0145 -0.0136533 0)
(10.0239 -0.0178643 0)
(10.0339 -0.0243883 0)
(10.0449 -0.0346802 0)
(10.057 -0.0488046 0)
(10.0699 -0.0659298 0)
(10.083 -0.0851839 0)
(10.0956 -0.105998 0)
(10.1072 -0.128174 0)
(10.1176 -0.151725 0)
(10.1269 -0.176779 0)
(10.1351 -0.203366 0)
(10.1425 -0.231571 0)
(10.149 -0.261223 0)
(10.0096 -0.0178386 0)
(10.0169 -0.0134501 0)
(10.0282 -0.0171582 0)
(10.0377 -0.0237858 0)
(10.0459 -0.0309967 0)
(10.056 -0.039003 0)
(10.0689 -0.0490098 0)
(10.0829 -0.0619498 0)
(10.0968 -0.0778169 0)
(10.1094 -0.0958252 0)
(10.12 -0.11493 0)
(10.1286 -0.134516 0)
(10.1352 -0.154381 0)
(10.1401 -0.174963 0)
(10.1438 -0.196706 0)
(10.1465 -0.220367 0)
(10.1482 -0.245967 0)
(10.1491 -0.273963 0)
(10.0437 -0.00285164 0)
(10.0416 -0.0145017 0)
(10.0417 -0.0241126 0)
(10.0436 -0.0312706 0)
(10.0466 -0.038504 0)
(10.0512 -0.0474342 0)
(10.057 -0.0582714 0)
(10.0631 -0.070383 0)
(10.0687 -0.0831347 0)
(10.0733 -0.0964513 0)
(10.0766 -0.110602 0)
(10.079 -0.126119 0)
(10.0805 -0.143458 0)
(10.0814 -0.163067 0)
(10.0819 -0.184861 0)
(10.0817 -0.20875 0)
(10.0809 -0.234092 0)
(10.0792 -0.260749 0)
(10.044 -0.00796414 0)
(10.0453 -0.0127948 0)
(10.0448 -0.0194166 0)
(10.041 -0.0279377 0)
(10.0384 -0.0378226 0)
(10.0385 -0.0494995 0)
(10.0405 -0.0631155 0)
(10.0429 -0.0781352 0)
(10.0447 -0.0938764 0)
(10.0456 -0.110049 0)
(10.046 -0.126565 0)
(10.046 -0.143585 0)
(10.0455 -0.161182 0)
(10.0445 -0.179686 0)
(10.0425 -0.199108 0)
(10.0396 -0.21982 0)
(10.0356 -0.241507 0)
(10.0308 -0.264631 0)
(9.95857 -0.0122134 0)
(9.95857 -0.0104514 0)
(9.96118 -0.0180077 0)
(9.96635 -0.0293263 0)
(9.97249 -0.042018 0)
(9.97797 -0.054915 0)
(9.98234 -0.0670566 0)
(9.98541 -0.07834 0)
(9.98667 -0.089354 0)
(9.98593 -0.100808 0)
(9.98345 -0.113197 0)
(9.97985 -0.126858 0)
(9.97538 -0.141822 0)
(9.97041 -0.158145 0)
(9.96467 -0.175618 0)
(9.95846 -0.194273 0)
(9.95111 -0.213644 0)
(9.9433 -0.233914 0)
(9.9529 0.000202629 0)
(9.94576 -0.0144296 0)
(9.94074 -0.0253039 0)
(9.93905 -0.0364964 0)
(9.93787 -0.0483465 0)
(9.93587 -0.0601815 0)
(9.93303 -0.071484 0)
(9.92965 -0.0820695 0)
(9.92597 -0.0922874 0)
(9.92212 -0.102866 0)
(9.91822 -0.114408 0)
(9.91422 -0.127289 0)
(9.90996 -0.141454 0)
(9.90492 -0.156792 0)
(9.89883 -0.172832 0)
(9.89102 -0.189562 0)
(9.88169 -0.206438 0)
(9.87009 -0.223899 0)
(9.99749 0.00374729 0)
(9.99604 -0.0134677 0)
(9.99791 -0.0228027 0)
(10.0033 -0.0301026 0)
(10.0094 -0.0393874 0)
(10.0125 -0.0505426 0)
(10.0125 -0.0617598 0)
(10.0107 -0.0720581 0)
(10.008 -0.081776 0)
(10.0048 -0.0919592 0)
(10.001 -0.103233 0)
(9.9962 -0.115615 0)
(9.99011 -0.128516 0)
(9.98234 -0.141467 0)
(9.97331 -0.153948 0)
(9.96274 -0.166181 0)
(9.95154 -0.178058 0)
(9.93883 -0.190354 0)
(10.0126 0.00544217 0)
(10.0273 -0.0152676 0)
(10.0369 -0.0333776 0)
(10.0408 -0.0459243 0)
(10.0421 -0.054349 0)
(10.0423 -0.061182 0)
(10.041 -0.0682607 0)
(10.0382 -0.0763779 0)
(10.0342 -0.0853412 0)
(10.0295 -0.0946697 0)
(10.0242 -0.104069 0)
(10.0182 -0.113635 0)
(10.0107 -0.123489 0)
(10.0017 -0.13389 0)
(9.991 -0.144829 0)
(9.97894 -0.156439 0)
(9.96546 -0.168379 0)
(9.95122 -0.180806 0)
(9.93393 -0.015802 0)
(9.95226 -0.0169898 0)
(9.96561 -0.025887 0)
(9.97091 -0.035849 0)
(9.97097 -0.0435623 0)
(9.96913 -0.049882 0)
(9.96692 -0.0563967 0)
(9.96384 -0.0637655 0)
(9.95875 -0.0719634 0)
(9.95105 -0.0807942 0)
(9.94103 -0.0900046 0)
(9.92943 -0.0992843 0)
(9.91706 -0.108268 0)
(9.90433 -0.116809 0)
(9.89147 -0.124892 0)
(9.87815 -0.132916 0)
(9.86427 -0.14097 0)
(9.84921 -0.149628 0)
(9.99664 -0.0214557 0)
(9.99904 -0.0332692 0)
(10.0085 -0.0439992 0)
(10.0189 -0.0512142 0)
(10.0241 -0.0563781 0)
(10.0235 -0.0613257 0)
(10.0198 -0.0665476 0)
(10.0152 -0.0717585 0)
(10.0104 -0.0766904 0)
(10.005 -0.0815653 0)
(9.99844 -0.0869525 0)
(9.99052 -0.0934076 0)
(9.98144 -0.100996 0)
(9.97128 -0.109456 0)
(9.96056 -0.118162 0)
(9.94903 -0.126792 0)
(9.93722 -0.134959 0)
(9.92431 -0.142822 0)
(10.0154 -0.0101559 0)
(10.0287 -0.0240477 0)
(10.0422 -0.0353185 0)
(10.0529 -0.0412748 0)
(10.059 -0.0436676 0)
(10.0612 -0.0457283 0)
(10.0609 -0.0494848 0)
(10.059 -0.0551537 0)
(10.0556 -0.0618653 0)
(10.0508 -0.0687697 0)
(10.0445 -0.0755185 0)
(10.0365 -0.0821743 0)
(10.0268 -0.088771 0)
(10.0153 -0.0953356 0)
(10.0019 -0.101745 0)
(9.98681 -0.108069 0)
(9.97033 -0.114233 0)
(9.95275 -0.120457 0)
(10.0053 -0.040949 0)
(10.0115 -0.053103 0)
(10.0182 -0.0567084 0)
(10.0197 -0.0590923 0)
(10.0174 -0.061876 0)
(10.0159 -0.0645384 0)
(10.0162 -0.0670881 0)
(10.0165 -0.0697199 0)
(10.0146 -0.0724609 0)
(10.0095 -0.0753843 0)
(10.001 -0.0786633 0)
(9.9894 -0.0824881 0)
(9.97571 -0.0868255 0)
(9.96071 -0.0915628 0)
(9.94522 -0.0964387 0)
(9.9296 -0.101379 0)
(9.91411 -0.106236 0)
(9.89849 -0.111103 0)
(9.97804 -0.0113847 0)
(9.98896 -0.0298625 0)
(10.0021 -0.0328797 0)
(10.0109 -0.0353542 0)
(10.0148 -0.039952 0)
(10.0153 -0.0450263 0)
(10.0135 -0.0496297 0)
(10.0107 -0.0535761 0)
(10.0077 -0.0568655 0)
(10.0051 -0.0597115 0)
(10.0025 -0.0624783 0)
(9.99957 -0.0656412 0)
(9.99553 -0.0694418 0)
(9.98972 -0.0739688 0)
(9.98175 -0.0789471 0)
(9.97109 -0.0841614 0)
(9.9581 -0.0892547 0)
(9.94239 -0.0941569 0)
(9.99028 -0.0463811 0)
(10.0282 -0.0621966 0)
(10.0573 -0.0639569 0)
(10.0743 -0.0645951 0)
(10.0843 -0.0654333 0)
(10.0897 -0.065771 0)
(10.0902 -0.0662517 0)
(10.0852 -0.0676137 0)
(10.0748 -0.0698325 0)
(10.0599 -0.0725089 0)
(10.0412 -0.0752464 0)
(10.0195 -0.0778573 0)
(9.99478 -0.0801732 0)
(9.96744 -0.0822095 0)
(9.93679 -0.0838439 0)
(9.90344 -0.0852803 0)
(9.86665 -0.086496 0)
(9.82829 -0.0879702 0)
(9.95006 -0.0355405 0)
(9.77161 -0.0453191 0)
(9.59239 -0.0441729 0)
(9.40873 -0.0441071 0)
(9.22507 -0.0459225 0)
(9.04601 -0.0474143 0)
(8.87364 -0.0476629 0)
(8.70812 -0.0469938 0)
(8.54849 -0.0460103 0)
(8.39363 -0.0451751 0)
(8.2424 -0.0447364 0)
(8.09442 -0.0447611 0)
(7.94917 -0.0451079 0)
(7.8073 -0.0455701 0)
(7.66838 -0.0459176 0)
(7.53403 -0.0461337 0)
(7.40245 -0.0462136 0)
(7.27668 -0.0464462 0)
(-0.0388353 0.0708543 -8.35108e-22)
(-0.120875 0.073003 8.29859e-22)
(-0.203658 0.0752859 0)
(-0.29024 0.0788614 0)
(-0.379033 0.0829453 0)
(-0.471388 0.0874085 -8.16644e-22)
(-0.566768 0.0918989 0)
(-0.665338 0.0961256 0)
(-0.766549 0.0998075 0)
(-0.87011 0.102766 0)
(-0.97542 0.104897 8.14411e-22)
(-1.08191 0.106145 0)
(-1.18897 0.106502 0)
(-1.29593 0.105953 0)
(-1.40193 0.104559 0)
(-1.50617 0.102237 8.14969e-22)
(-1.6078 0.0990288 0)
(-1.70586 0.0948967 0)
(-1.79932 0.0898178 0)
(-1.8872 0.0837773 0)
(-1.96843 0.076795 0)
(-2.04187 0.0688207 0)
(-2.10642 0.0599149 0)
(-2.16094 0.0500569 7.30414e-22)
(-2.2043 0.0393849 -7.01668e-22)
(-2.2354 0.0279391 6.66786e-22)
(-2.25326 0.0158283 6.25134e-22)
(-2.25691 0.00319025 0)
(-2.24554 -0.0098269 0)
(-2.21851 -0.0230495 -4.54637e-22)
(-2.17543 -0.0362876 -3.81616e-22)
(-2.11602 -0.0493005 0)
(-2.04031 -0.0619496 0)
(-1.94864 -0.0740123 -1.15255e-22)
(-1.8415 -0.0853105 0)
(-1.71976 -0.0957358 0)
(-1.58434 -0.105177 -2.08595e-22)
(-1.43639 -0.113546 0)
(-1.27713 -0.120769 -4.42066e-22)
(-1.10795 -0.126798 -1.11982e-21)
(-0.93031 -0.131614 0)
(-0.74571 -0.135213 0)
(-0.555611 -0.137617 0)
(-0.361519 -0.13888 0)
(-0.164823 -0.139099 0)
(0.0330671 -0.138307 -2.40107e-21)
(0.230898 -0.136648 -2.57424e-21)
(0.427498 -0.13425 -2.73288e-21)
(0.621843 -0.131089 0)
(0.813051 -0.127421 3.00479e-21)
(1.00011 -0.123313 0)
(1.18253 -0.118698 -3.21734e-21)
(1.3598 -0.113945 -3.30269e-21)
(1.53133 -0.108923 0)
(1.6968 -0.103804 0)
(1.85601 -0.0986606 0)
(2.00874 -0.0935177 -3.52092e-21)
(2.155 -0.0884302 0)
(2.29479 -0.0834245 0)
(2.42814 -0.0785431 0)
(2.55511 -0.0738099 0)
(2.67579 -0.0692429 0)
(2.79036 -0.0648555 0)
(2.89896 -0.0606564 0)
(3.00178 -0.0566509 0)
(3.09904 -0.0528415 3.54358e-21)
(3.19093 -0.049228 0)
(3.27766 -0.0458085 0)
(3.35946 -0.0425795 -3.47957e-21)
(3.43653 -0.0395365 -3.45459e-21)
(3.5091 -0.0366738 0)
(3.57737 -0.0339854 3.40104e-21)
(3.64154 -0.0314644 -3.37296e-21)
(3.70183 -0.029104 0)
(3.75843 -0.0268968 3.31518e-21)
(3.81152 -0.0248357 0)
(3.8613 -0.0229134 0)
(3.90794 -0.0211225 -3.22672e-21)
(3.95162 -0.019456 0)
(3.99249 -0.0179068 3.16785e-21)
(4.03071 -0.0164681 0)
(4.06644 -0.0151333 -3.10974e-21)
(4.09982 -0.0138959 -3.08111e-21)
(4.13099 -0.01275 -3.05281e-21)
(4.16007 -0.0116894 -6.04974e-21)
(4.1872 -0.0107087 5.99461e-21)
(4.21249 -0.00980247 0)
(4.23604 -0.00896555 0)
(4.25798 -0.00819314 0)
(4.27839 -0.00748067 5.78226e-21)
(4.29737 -0.00682382 5.73127e-21)
(4.31502 -0.00621851 -5.68113e-21)
(4.33141 -0.00566087 0)
(4.34662 -0.00514726 5.58334e-21)
(4.36074 -0.00467421 5.53568e-21)
(4.37383 -0.00423835 5.48882e-21)
(4.38595 -0.00383649 0)
(4.39717 -0.00346573 0)
(4.40755 -0.00312335 0)
(4.41713 -0.00280664 5.30908e-21)
(4.42597 -0.00251318 0)
(4.43412 -0.00224087 0)
(4.44161 -0.00198725 -5.18183e-21)
(4.44849 -0.00175037 0)
(4.45479 -0.00152863 0)
(4.46055 -0.00131968 -5.06044e-21)
(4.46579 -0.00112208 0)
(4.47055 -0.00093336 0)
(4.47485 -0.000752019 4.9444e-21)
(4.47871 -0.000577192 4.90682e-21)
(4.48214 -0.000406444 0)
(4.48517 -0.000241462 -4.8332e-21)
(4.48781 -8.6146e-05 0)
(4.49009 5.59978e-05 4.76153e-21)
(4.49204 0.000182682 0)
(4.49369 0.000295426 4.69168e-21)
(4.49505 0.000395303 4.65741e-21)
(4.49615 0.000481936 0)
(4.49702 0.000554033 0)
(4.49768 0.000610121 0)
(4.49815 0.000649738 0)
(4.49847 0.000674249 0)
(4.49864 0.000686549 0)
(4.4987 0.000690252 0)
(4.49865 0.000688725 4.3973e-21)
(4.4985 0.000684553 -4.36639e-21)
(4.49826 0.000679337 0)
(4.49794 0.000673951 0)
(4.49754 0.000668747 0)
(4.49706 0.000663878 0)
(4.49651 0.000659362 -8.43312e-21)
(4.4959 0.000655225 0)
(4.49522 0.000651449 8.31738e-21)
(4.49449 0.000648048 -8.26036e-21)
(4.49369 0.000645002 0)
(4.49285 0.000642319 0)
(4.49195 0.00063997 0)
(4.49101 0.000637963 8.03756e-21)
(4.49002 0.000636264 7.98314e-21)
(4.48899 0.000634881 0)
(4.48791 0.000633789 7.87579e-21)
(4.4868 0.000633001 7.82283e-21)
(4.48565 0.000632515 -7.77035e-21)
(4.48446 0.000632351 0)
(4.48323 0.000632524 0)
(4.48197 0.000633065 -7.6157e-21)
(4.48067 0.000634005 0)
(4.47934 0.000635396 0)
(4.47798 0.000637292 0)
(4.47657 0.000639778 0)
(4.47514 0.000642948 7.36692e-21)
(4.47366 0.000646938 7.31848e-21)
(4.47214 0.000651902 0)
(4.47058 0.000658071 7.2229e-21)
(4.46898 0.000665676 0)
(4.46732 0.000675132 0)
(4.46561 0.000686729 7.08284e-21)
(4.46383 0.000701315 0)
(4.46197 0.000719027 6.99174e-21)
(4.46002 0.000741857 0)
(4.45796 0.000769039 0)
(4.45578 0.000805397 6.85881e-21)
(4.45342 0.000847616 0)
(4.4509 0.000906091 6.77304e-21)
(4.44807 0.000973817 0)
(4.44503 0.00106683 0)
(4.44142 0.00118327 0)
(4.43758 0.00132375 -6.61076e-21)
(4.43263 0.00154849 0)
(4.42752 0.00173012 6.53656e-21)
(4.42021 0.00223373 0)
(4.41287 0.00235358 0)
(4.40138 0.0036516 0)
(4.38943 0.00325462 0)
(4.37075 0.00695936 0)
(4.34679 0.00446039 0)
(4.31643 0.0160437 0)
(4.2528 0.00717936 -1.28232e-20)
(4.20309 0.0515364 0)
(3.98179 0.041256 0)
(-0.0522672 0.277334 2.53578e-21)
(-0.169235 0.287372 -2.51964e-21)
(-0.282862 0.289901 0)
(-0.399232 0.295614 1.67456e-21)
(-0.514893 0.300963 0)
(-0.630879 0.306217 8.15819e-22)
(-0.746143 0.310828 -1.66499e-21)
(-0.860795 0.314457 -1.66495e-21)
(-0.974378 0.316787 0)
(-1.08672 0.317618 -1.66853e-21)
(-1.19743 0.316839 -8.13349e-22)
(-1.30621 0.314288 0)
(-1.41274 0.309942 0)
(-1.51658 0.303679 0)
(-1.61736 0.295473 0)
(-1.71459 0.285181 -8.13912e-22)
(-1.80768 0.272756 0)
(-1.89604 0.258134 1.6835e-21)
(-1.97888 0.241209 0)
(-2.05542 0.221883 0)
(-2.12492 0.200141 -1.64708e-21)
(-2.18644 0.175904 0)
(-2.23906 0.149224 1.58903e-21)
(-2.28177 0.120123 -7.29691e-22)
(-2.31354 0.0887409 7.01021e-22)
(-2.33354 0.0552344 -6.66228e-22)
(-2.34079 0.0198378 -6.24674e-22)
(-2.3344 -0.0171323 0)
(-2.31361 -0.0552737 0)
(-2.27778 -0.0941369 4.54432e-22)
(-2.2264 -0.133254 -4.74626e-22)
(-2.1592 -0.172015 0)
(-2.07612 -0.20991 0)
(-1.97719 -0.246311 1.15198e-22)
(-1.86276 -0.28071 0)
(-1.73345 -0.312591 0)
(-1.59013 -0.341543 2.08595e-22)
(-1.43398 -0.367215 0)
(-1.26632 -0.389365 -3.85756e-22)
(-1.08859 -0.407835 1.11952e-21)
(-0.902313 -0.422568 0)
(-0.70906 -0.433592 0)
(-0.510359 -0.440966 3.53531e-21)
(-0.307815 -0.444906 3.96716e-21)
(-0.102794 -0.445577 4.37514e-21)
(0.103255 -0.443286 -2.35656e-21)
(0.308961 -0.438237 2.573e-21)
(0.513354 -0.430936 8.16304e-21)
(0.715332 -0.421394 -5.72301e-21)
(0.913843 -0.410281 -3.0032e-21)
(1.10825 -0.397662 0)
(1.29783 -0.383917 3.21586e-21)
(1.48203 -0.369306 -3.28513e-21)
(1.66054 -0.354151 0)
(1.83283 -0.338632 0)
(1.99884 -0.322942 0)
(2.15841 -0.307272 3.51905e-21)
(2.31153 -0.291746 0)
(2.45823 -0.276467 -7.12408e-21)
(2.59851 -0.261539 0)
(2.73245 -0.247035 -7.16162e-21)
(2.86018 -0.233007 0)
(2.98184 -0.219495 7.15262e-21)
(3.09761 -0.206525 0)
(3.20766 -0.194112 -7.10834e-21)
(3.31219 -0.182263 3.53424e-21)
(3.41141 -0.170979 0)
(3.5055 -0.160255 6.99546e-21)
(3.59469 -0.150082 3.47772e-21)
(3.67917 -0.140446 3.45275e-21)
(3.75916 -0.131334 0)
(3.83483 -0.122727 3.3938e-21)
(3.9064 -0.114609 3.37115e-21)
(3.97405 -0.106959 0)
(4.03797 -0.0997589 -3.31339e-21)
(4.09833 -0.0929883 6.56375e-21)
(4.1553 -0.0866276 0)
(4.20906 -0.0806571 3.22496e-21)
(4.25976 -0.0750574 0)
(4.30756 -0.0698097 -9.49494e-21)
(4.35261 -0.0648955 0)
(4.39504 -0.0602969 9.32109e-21)
(4.43499 -0.0559966 3.07939e-21)
(4.47259 -0.0519778 -3.04851e-21)
(4.50797 -0.0482244 -6.04148e-21)
(4.54124 -0.0447211 5.98668e-21)
(4.57252 -0.041453 0)
(4.60191 -0.038406 0)
(4.62952 -0.0355667 0)
(4.65544 -0.0329222 -1.73334e-20)
(4.67977 -0.0304604 -5.72799e-21)
(4.70259 -0.0281696 5.67787e-21)
(4.724 -0.0260388 0)
(4.74406 -0.0240577 5.57752e-21)
(4.76286 -0.0222164 -5.5325e-21)
(4.78047 -0.0205055 -5.48567e-21)
(4.79696 -0.0189162 0)
(4.81239 -0.0174401 0)
(4.82683 -0.0160695 0)
(4.84033 -0.0147969 -5.30603e-21)
(4.85296 -0.0136154 0)
(4.86476 -0.0125186 1.04397e-20)
(4.87579 -0.0115001 1.55352e-20)
(4.8861 -0.0105544 -1.02743e-20)
(4.89573 -0.009676 0)
(4.90473 -0.00885963 -5.05646e-21)
(4.91314 -0.00810081 0)
(4.921 -0.00739443 -9.95843e-21)
(4.92835 -0.00673624 4.94071e-21)
(4.93524 -0.00612309 4.90322e-21)
(4.94169 -0.00555128 0)
(4.94776 -0.00501972 1.44907e-20)
(4.95346 -0.00452872 -9.5882e-21)
(4.95881 -0.0040765 -4.75885e-21)
(4.96385 -0.00365893 0)
(4.96857 -0.00327453 -4.68906e-21)
(4.97301 -0.00292283 -1.39639e-20)
(4.97718 -0.00260261 0)
(4.9811 -0.00231253 -9.17468e-21)
(4.98477 -0.00205163 -9.10865e-21)
(4.98821 -0.00181841 -9.04338e-21)
(4.99143 -0.00161039 0)
(4.99443 -0.00142438 0)
(4.99723 -0.00125681 0)
(4.99983 -0.00110447 4.39464e-21)
(5.00224 -0.000964686 4.36399e-21)
(5.00447 -0.000835703 0)
(5.00653 -0.00071633 8.60618e-21)
(5.00843 -0.000605887 8.54632e-21)
(5.01018 -0.000503831 0)
(5.01179 -0.000409757 8.42856e-21)
(5.01327 -0.00032318 1.67406e-20)
(5.01462 -0.000243659 -8.31293e-21)
(5.01586 -0.000170665 -8.2557e-21)
(5.01699 -0.000103735 0)
(5.01803 -4.23514e-05 0)
(5.01897 1.39108e-05 0)
(5.01982 6.55174e-05 -8.03335e-21)
(5.0206 0.000112842 7.97879e-21)
(5.02131 0.000156301 1.585e-20)
(5.02195 0.00019623 -7.87173e-21)
(5.02252 0.000232994 7.81866e-21)
(5.02304 0.000266918 7.7664e-21)
(5.02351 0.00029834 0)
(5.02392 0.000327578 0)
(5.02429 0.000354955 -7.61174e-21)
(5.02461 0.000380787 0)
(5.0249 0.000405407 0)
(5.02514 0.000429162 1.49227e-20)
(5.02535 0.000452439 0)
(5.02552 0.000475656 7.3632e-21)
(5.02566 0.000499297 -7.31493e-21)
(5.02576 0.000523915 0)
(5.02583 0.000550177 7.2193e-21)
(5.02586 0.000578865 0)
(5.02585 0.000610972 0)
(5.0258 0.000647648 -7.07951e-21)
(5.0257 0.000690467 1.40673e-20)
(5.02555 0.000741145 -6.98849e-21)
(5.02533 0.00080229 0)
(5.02504 0.000876579 0)
(5.02465 0.000968196 6.85537e-21)
(5.02416 0.00108223 0)
(5.0235 0.00122351 6.76956e-21)
(5.02271 0.0014064 0)
(5.02162 0.00162618 0)
(5.02036 0.0019358 0)
(5.01853 0.00227192 6.60782e-21)
(5.01653 0.00283657 0)
(5.0134 0.00331972 -6.53368e-21)
(5.01021 0.00445471 0)
(5.00466 0.00503833 0)
(4.99947 0.00758707 1.28735e-20)
(4.98922 0.00791805 -1.2823e-20)
(4.98036 0.0143261 0)
(4.96044 0.0131875 0)
(4.94372 0.0315774 0)
(4.90351 0.0274897 3.83727e-20)
(4.87109 0.0930301 0)
(4.80546 0.104924 -2.57988e-20)
(-0.0522354 0.525534 6.98306e-23)
(-0.17229 0.543393 3.44839e-21)
(-0.287249 0.542802 0)
(-0.404869 0.545633 -3.41733e-21)
(-0.520832 0.546671 0)
(-0.636504 0.547093 0)
(-0.750923 0.54649 -7.22767e-23)
(-0.864494 0.544722 1.66431e-21)
(-0.97693 0.541629 1.74115e-21)
(-1.08824 0.537002 1.6679e-21)
(-1.19832 0.530659 0)
(-1.30703 0.522356 0)
(-1.41415 0.5119 -1.76517e-21)
(-1.51944 0.499073 -3.54503e-21)
(-1.62248 0.483614 3.55904e-21)
(-1.72282 0.46531 0)
(-1.8198 0.443939 3.57997e-21)
(-1.91285 0.419254 -1.68283e-21)
(-2.00124 0.391076 0)
(-2.08407 0.359152 3.5689e-21)
(-2.16044 0.32338 1.64635e-21)
(-2.22928 0.283641 -3.50754e-21)
(-2.28944 0.239897 -1.58819e-21)
(-2.33977 0.192194 0)
(-2.37902 0.140633 3.27899e-21)
(-2.40601 0.0854319 3.15379e-21)
(-2.41955 0.0269704 0)
(-2.41843 -0.0342994 2.81113e-21)
(-2.40164 -0.0977543 0)
(-2.36842 -0.162669 2.32889e-21)
(-2.31812 -0.22819 8.55549e-22)
(-2.25034 -0.29339 0)
(-2.16501 -0.357268 0)
(-2.06236 -0.418783 0)
(-1.94291 -0.476991 0)
(-1.80753 -0.530941 0)
(-1.65738 -0.579854 0)
(-1.49388 -0.623109 -9.55543e-22)
(-1.31858 -0.660261 2.28598e-21)
(-1.13314 -0.691059 0)
(-0.939293 -0.715391 0)
(-0.738735 -0.733382 0)
(-0.533159 -0.745177 -1.19369e-22)
(-0.324241 -0.751114 -3.96572e-21)
(-0.113449 -0.751543 -8.65836e-21)
(0.0977422 -0.747038 9.43348e-21)
(0.307893 -0.737934 5.04246e-21)
(0.516016 -0.724908 -5.42933e-21)
(0.721028 -0.708431 4.70375e-23)
(0.921893 -0.689115 -5.94022e-21)
(1.11806 -0.667501 0)
(1.30884 -0.644135 -6.38046e-21)
(1.49376 -0.619329 2.76963e-23)
(1.67241 -0.593728 0)
(1.84461 -0.567605 0)
(2.01021 -0.541241 6.92638e-21)
(2.16908 -0.514995 0)
(2.32133 -0.489041 0)
(2.46703 -0.463567 -7.08633e-21)
(2.60622 -0.43872 -1.4261e-20)
(2.73903 -0.414613 7.15969e-21)
(2.8656 -0.391328 0)
(2.98612 -0.368922 -7.15092e-21)
(3.10078 -0.347434 0)
(3.20977 -0.326883 -7.08047e-21)
(3.31331 -0.307277 -7.07456e-21)
(3.4116 -0.288612 1.40497e-20)
(3.50486 -0.270878 6.97178e-21)
(3.5933 -0.254055 0)
(3.67713 -0.23812 -1.37768e-20)
(3.75655 -0.223047 0)
(3.83176 -0.208806 -2.03586e-20)
(3.90296 -0.195365 -1.3456e-20)
(3.97033 -0.182691 -1.3343e-20)
(4.03405 -0.170753 1.32283e-20)
(4.09431 -0.159516 -1.96755e-20)
(4.15126 -0.148947 0)
(4.20508 -0.139014 0)
(4.25591 -0.129685 1.27623e-20)
(4.30391 -0.120929 1.89745e-20)
(4.34921 -0.112716 0)
(4.39196 -0.105015 -6.21271e-21)
(4.43229 -0.0978004 0)
(4.47031 -0.0910437 1.82897e-20)
(4.50615 -0.0847194 7.66897e-24)
(4.53992 -0.0788026 -7.15346e-24)
(4.57173 -0.0732698 -1.18624e-20)
(4.60167 -0.0680983 0)
(4.62986 -0.0632667 1.16516e-20)
(4.65638 -0.0587545 5.38591e-24)
(4.68132 -0.0545425 0)
(4.70476 -0.0506121 0)
(4.72679 -0.0469461 0)
(4.74749 -0.043528 -1.11573e-20)
(4.76691 -0.0403423 0)
(4.78515 -0.0373743 0)
(4.80225 -0.0346103 0)
(4.81829 -0.0320372 0)
(4.83332 -0.0296426 0)
(4.8474 -0.027415 -1.06076e-20)
(4.86059 -0.0253435 0)
(4.87293 -0.0234181 -1.04395e-20)
(4.88448 -0.0216288 -1.03561e-20)
(4.89528 -0.0199666 1.02741e-20)
(4.90537 -0.0184232 0)
(4.9148 -0.0169908 1.01138e-20)
(4.9236 -0.015662 0)
(4.93182 -0.0144297 9.95824e-21)
(4.93949 -0.0132876 -9.88213e-21)
(4.94664 -0.0122298 -2.9419e-20)
(4.95331 -0.0112512 0)
(4.95953 -0.0103457 -2.89783e-20)
(4.96532 -0.00950775 -9.58625e-21)
(4.97072 -0.00873164 0)
(4.97575 -0.00801131 -1.8892e-20)
(4.98044 -0.00734554 -1.87535e-20)
(4.9848 -0.00673291 2.79256e-20)
(4.98886 -0.00616899 0)
(4.99264 -0.00565036 9.17453e-21)
(4.99615 -0.00517451 9.10849e-21)
(4.99941 -0.00473831 2.71288e-20)
(5.00244 -0.00433783 0)
(5.00524 -0.00396872 0)
(5.00784 -0.00362678 0)
(5.01025 -0.00330852 8.78874e-21)
(5.01247 -0.00301146 0)
(5.01453 -0.00273411 0)
(5.01643 -0.00247557 -8.60603e-21)
(5.01819 -0.00223523 -8.54618e-21)
(5.01982 -0.00201249 0)
(5.02132 -0.00180665 0)
(5.0227 -0.00161686 -1.67404e-20)
(5.02398 -0.0014422 0)
(5.02515 -0.00128165 1.65114e-20)
(5.02624 -0.00113423 1.63983e-20)
(5.02724 -0.000998951 0)
(5.02815 -0.000874885 0)
(5.029 -0.00076114 -1.6066e-20)
(5.02978 -0.000656888 -1.89723e-25)
(5.03049 -0.000561324 -1.76034e-25)
(5.03115 -0.000473699 0)
(5.03175 -0.000393277 -3.12743e-20)
(5.0323 -0.00031937 0)
(5.0328 -0.0002513 0)
(5.03327 -0.000188425 0)
(5.03369 -0.000130113 1.52234e-20)
(5.03407 -7.57492e-05 0)
(5.03442 -2.47046e-05 -3.00435e-20)
(5.03474 2.36703e-05 -1.49225e-20)
(5.03502 7.00667e-05 0)
(5.03528 0.000115233 -1.47263e-20)
(5.0355 0.00015999 0)
(5.03569 0.000205287 0)
(5.03585 0.000252185 -4.33152e-20)
(5.03598 0.000302019 2.86883e-20)
(5.03607 0.000356232 0)
(5.03613 0.000416905 2.83168e-20)
(5.03614 0.000485968 -1.40671e-20)
(5.0361 0.000567074 0)
(5.03599 0.000662417 0)
(5.03582 0.000779367 0)
(5.03555 0.000918661 -4.11317e-20)
(5.03518 0.00109748 0)
(5.03466 0.0013081 -1.35393e-20)
(5.03399 0.00159509 0)
(5.03306 0.00191891 0)
(5.0319 0.00240148 0)
(5.03028 0.0029004 0)
(5.02833 0.003755 0)
(5.02554 0.00451437 0)
(5.02225 0.0061233 -2.59871e-20)
(5.01736 0.00725129 0)
(5.01174 0.0105045 -1.28732e-20)
(5.00296 0.0121551 3.84542e-20)
(4.99296 0.0193452 0)
(4.9768 0.0221345 0)
(4.9583 0.040279 -2.54603e-20)
(4.92953 0.0489977 -2.55542e-20)
(4.8979 0.102603 2.55144e-20)
(4.86191 0.140887 2.57959e-20)
(-0.0501359 0.761235 -5.5113e-21)
(-0.167906 0.788358 -5.47682e-21)
(-0.280418 0.785485 -3.70062e-21)
(-0.39632 0.78646 -1.94492e-21)
(-0.510973 0.784714 0)
(-0.626079 0.782086 3.67744e-21)
(-0.740795 0.778458 -1.9436e-21)
(-0.855489 0.773734 0)
(-0.969849 0.767522 -1.74054e-21)
(-1.08403 0.759634 0)
(-1.19792 0.749799 3.73008e-21)
(-1.31134 0.737735 0)
(-1.42393 0.723029 1.7644e-21)
(-1.53539 0.705306 3.54341e-21)
(-1.64531 0.684157 -3.55737e-21)
(-1.75314 0.659208 0)
(-1.85829 0.630068 -3.57815e-21)
(-1.96004 0.596312 0)
(-2.05751 0.5576 0)
(-2.14969 0.513587 -3.56679e-21)
(-2.23547 0.464007 0)
(-2.31367 0.408601 -3.86577e-22)
(-2.38298 0.347234 0)
(-2.44199 0.279862 0)
(-2.4893 0.20661 4.41898e-22)
(-2.52344 0.127754 -3.15107e-21)
(-2.54296 0.0437883 -3.46693e-21)
(-2.54649 -0.0445924 -2.80859e-21)
(-2.53277 -0.13647 0)
(-2.50076 -0.230733 -5.1413e-21)
(-2.44969 -0.326028 0)
(-2.37911 -0.420894 -2.16886e-21)
(-2.28892 -0.513772 0)
(-2.17942 -0.603078 0)
(-2.05134 -0.687313 8.98065e-22)
(-1.90579 -0.765113 0)
(-1.7443 -0.835304 1.01855e-22)
(-1.56862 -0.896965 3.2749e-22)
(-1.38067 -0.94946 -2.62171e-21)
(-1.18247 -0.992505 3.39601e-21)
(-0.976091 -1.02603 0)
(-0.76351 -1.05021 0)
(-0.546556 -1.06546 3.05915e-21)
(-0.327113 -1.07224 0)
(-0.106837 -1.07118 4.28308e-21)
(0.112832 -1.06307 -4.67681e-21)
(0.330474 -1.04856 -5.04023e-21)
(0.544929 -1.0285 0)
(0.755227 -1.00375 5.67113e-21)
(0.960271 -0.975081 5.93763e-21)
(1.15959 -0.943365 -1.22435e-20)
(1.35275 -0.909198 6.37787e-21)
(1.53917 -0.87343 6.55343e-21)
(1.71861 -0.836582 0)
(1.89103 -0.79915 0)
(2.05634 -0.761623 -6.92378e-21)
(2.2145 -0.724362 0)
(2.36575 -0.687634 0)
(2.51019 -0.651688 1.4203e-20)
(2.64793 -0.616711 1.4256e-20)
(2.77914 -0.582844 0)
(2.90404 -0.550185 0)
(3.02282 -0.518803 0)
(3.13571 -0.48874 0)
(3.24293 -0.460014 1.41835e-20)
(3.34471 -0.432628 -1.40855e-20)
(3.44128 -0.406572 -1.40464e-20)