/*--------------------------------*- C++ -*----------------------------------*\
  =========                 |
  \\      /  F ield         | OpenFOAM: The Open Source CFD Toolbox
   \\    /   O peration     | Website:  https://openfoam.org
    \\  /    A nd           | Version:  9
     \\/     M anipulation  |
\*---------------------------------------------------------------------------*/
FoamFile
{
    format      ascii;
    class       volScalarField;
    location    "0.095";
    object      k_0;
}
// * * * * * * * * * * * * * * * * * * * * * * * * * * * * * * * * * * * * * //

dimensions      [0 2 -2 0 0 0 0];

internalField   nonuniform List<scalar> 
12225
(
3.91638e-05
3.97089e-05
3.03544e-05
3.11852e-05
4.55732e-05
5.98549e-05
6.43662e-05
6.459e-05
6.20674e-05
5.11201e-05
3.79443e-05
2.92572e-05
2.44058e-05
2.19781e-05
2.07933e-05
2.02833e-05
2.01821e-05
2.20284e-05
2.04098e-05
2.07299e-05
2.07077e-05
2.11111e-05
2.31197e-05
2.84301e-05
3.31599e-05
3.54963e-05
3.58179e-05
3.54258e-05
3.4079e-05
3.09283e-05
2.77498e-05
2.52635e-05
2.36091e-05
2.26635e-05
2.21449e-05
2.21334e-05
2.00064e-05
1.69274e-05
1.65312e-05
1.63101e-05
1.63335e-05
1.64911e-05
1.69784e-05
1.748e-05
1.77769e-05
1.80601e-05
1.86127e-05
1.90066e-05
1.92098e-05
1.93527e-05
1.94258e-05
1.94464e-05
1.94378e-05
1.91556e-05
2.00438e-05
1.99979e-05
1.97905e-05
1.92915e-05
2.00767e-05
2.31296e-05
2.43339e-05
2.41422e-05
2.23954e-05
1.82003e-05
1.56977e-05
1.53936e-05
1.53954e-05
1.47003e-05
1.36122e-05
1.35358e-05
1.36494e-05
1.41274e-05
2.50547e-05
2.39066e-05
2.24399e-05
2.54713e-05
5.20336e-05
0.000160584
0.000214613
0.000203465
0.000124774
6.14944e-05
3.64005e-05
2.68999e-05
2.33228e-05
2.14103e-05
2.05274e-05
1.97791e-05
1.94428e-05
1.88253e-05
2.05378e-05
2.06288e-05
2.0778e-05
2.1833e-05
2.79046e-05
4.69875e-05
5.46966e-05
5.33196e-05
4.18878e-05
3.33217e-05
3.08187e-05
2.95449e-05
2.85241e-05
2.82982e-05
2.98447e-05
3.73724e-05
4.39477e-05
4.57633e-05
2.4077e-05
2.27284e-05
2.23557e-05
2.34389e-05
2.37046e-05
2.36586e-05
2.4281e-05
2.98732e-05
3.88403e-05
4.00708e-05
3.98228e-05
4.1727e-05
5.2016e-05
5.57433e-05
5.36116e-05
4.99172e-05
4.87365e-05
4.7012e-05
2.19518e-05
2.66249e-05
3.54201e-05
3.56327e-05
2.82155e-05
2.53818e-05
2.74815e-05
4.77736e-05
0.000125006
0.000171061
0.000174329
0.000151807
9.34057e-05
5.86019e-05
4.36201e-05
3.84286e-05
3.73924e-05
3.77781e-05
2.20402e-05
2.58036e-05
2.71985e-05
2.58571e-05
2.37436e-05
2.39647e-05
2.87626e-05
4.45707e-05
5.23592e-05
5.29597e-05
5.03308e-05
4.03944e-05
3.18204e-05
2.71401e-05
2.51178e-05
2.45882e-05
2.46e-05
2.5433e-05
2.0057e-05
2.19365e-05
2.86246e-05
3.13773e-05
3.03766e-05
2.99001e-05
3.04526e-05
3.10498e-05
3.10245e-05
3.01226e-05
2.98268e-05
3.0251e-05
3.31326e-05
3.44301e-05
3.37617e-05
3.06015e-05
2.70039e-05
2.51438e-05
2.14841e-05
2.20205e-05
2.41561e-05
3.18136e-05
3.35931e-05
2.96527e-05
2.56406e-05
2.44461e-05
2.42583e-05
2.44266e-05
2.56245e-05
3.16328e-05
4.12477e-05
4.44109e-05
4.42285e-05
4.16006e-05
3.34551e-05
2.78306e-05
2.06947e-05
2.87499e-05
3.29463e-05
3.1686e-05
2.63225e-05
2.34117e-05
2.25015e-05
2.22105e-05
2.21328e-05
2.21481e-05
2.2314e-05
2.31525e-05
2.46605e-05
2.57936e-05
2.66273e-05
2.70643e-05
2.69149e-05
2.56622e-05
2.40843e-05
2.49861e-05
2.35689e-05
2.30134e-05
2.21263e-05
2.13533e-05
2.11802e-05
2.11771e-05
2.12426e-05
2.13135e-05
2.13375e-05
2.13387e-05
2.1358e-05
2.14718e-05
2.18671e-05
2.19198e-05
2.17103e-05
2.14154e-05
2.06469e-05
2.06369e-05
2.05807e-05
2.06362e-05
2.0865e-05
2.08972e-05
2.08099e-05
2.07327e-05
2.07604e-05
2.10536e-05
2.26024e-05
2.43821e-05
2.48886e-05
2.4758e-05
2.36692e-05
2.23074e-05
2.1636e-05
2.13147e-05
2.29964e-05
2.36944e-05
2.21959e-05
2.09435e-05
2.06674e-05
2.05614e-05
2.054e-05
2.05563e-05
2.06746e-05
2.12347e-05
2.31976e-05
2.46515e-05
2.49612e-05
2.4833e-05
2.42039e-05
2.37178e-05
2.35563e-05
2.35662e-05
2.18368e-05
2.77783e-05
2.79933e-05
2.46893e-05
2.16548e-05
2.10495e-05
2.1112e-05
2.15556e-05
2.18816e-05
2.20518e-05
2.22397e-05
2.26009e-05
2.36569e-05
2.48e-05
2.52412e-05
2.52665e-05
2.51284e-05
2.45746e-05
2.46509e-05
2.38337e-05
2.14436e-05
2.08163e-05
2.09038e-05
2.12439e-05
2.13319e-05
2.13018e-05
2.11147e-05
2.09821e-05
2.09644e-05
2.10249e-05
2.13526e-05
2.25318e-05
2.61272e-05
2.88966e-05
2.99632e-05
3.01009e-05
2.38711e-05
2.35355e-05
2.13788e-05
2.0618e-05
2.0405e-05
2.03438e-05
2.03432e-05
2.0428e-05
2.09321e-05
2.14067e-05
2.14151e-05
2.11449e-05
2.09862e-05
2.09949e-05
2.11236e-05
2.1665e-05
2.25857e-05
2.3277e-05
2.0712e-05
2.05846e-05
2.04075e-05
2.04923e-05
2.07288e-05
2.08314e-05
2.08477e-05
2.08472e-05
2.0864e-05
2.08257e-05
2.08385e-05
2.10283e-05
2.17453e-05
2.2319e-05
2.25545e-05
2.26485e-05
2.27151e-05
2.27563e-05
2.15169e-05
2.13949e-05
2.10892e-05
2.13521e-05
2.29052e-05
2.50608e-05
2.5094e-05
2.38321e-05
2.22958e-05
2.19295e-05
2.2053e-05
2.3176e-05
2.85497e-05
4.36828e-05
5.4535e-05
5.84536e-05
5.85315e-05
5.54514e-05
2.12332e-05
2.09294e-05
2.07072e-05
2.09908e-05
2.18001e-05
2.22103e-05
2.21818e-05
2.19206e-05
2.1796e-05
2.18272e-05
2.21574e-05
2.34353e-05
2.62516e-05
2.87042e-05
3.03018e-05
3.1222e-05
3.23657e-05
3.5232e-05
2.06941e-05
2.05392e-05
2.05138e-05
2.06891e-05
2.0903e-05
2.09062e-05
2.08341e-05
2.08126e-05
2.08378e-05
2.10146e-05
2.17699e-05
2.4904e-05
3.35546e-05
3.92851e-05
4.08011e-05
4.02277e-05
3.621e-05
3.18677e-05
2.00536e-05
2.08093e-05
2.20917e-05
2.22778e-05
2.22171e-05
2.1697e-05
2.10368e-05
2.08002e-05
2.07844e-05
2.0917e-05
2.16531e-05
2.39339e-05
2.59018e-05
2.68776e-05
2.7226e-05
2.68941e-05
2.5275e-05
2.40882e-05
2.00109e-05
2.0559e-05
2.27805e-05
2.36556e-05
2.32806e-05
2.19019e-05
2.11725e-05
2.09368e-05
2.0892e-05
2.0907e-05
2.10365e-05
2.16879e-05
2.30326e-05
2.34423e-05
2.3139e-05
2.26614e-05
2.2616e-05
2.28217e-05
2.0005e-05
2.04171e-05
2.30398e-05
2.46565e-05
2.39389e-05
2.2036e-05
2.11281e-05
2.07806e-05
2.06039e-05
2.05272e-05
2.05242e-05
2.05816e-05
2.05759e-05
2.05161e-05
2.05158e-05
2.05816e-05
2.08729e-05
2.1797e-05
2.0236e-05
2.22981e-05
2.30728e-05
2.3062e-05
2.2268e-05
2.22346e-05
2.30605e-05
2.40385e-05
2.42587e-05
2.41712e-05
2.34328e-05
2.22044e-05
2.15736e-05
2.13846e-05
2.13855e-05
2.15519e-05
2.2299e-05
2.49617e-05
2.03088e-05
2.05795e-05
2.03886e-05
1.98879e-05
1.97157e-05
1.96976e-05
1.98079e-05
2.01247e-05
2.02683e-05
2.02868e-05
2.024e-05
1.99334e-05
1.94663e-05
1.93388e-05
1.94241e-05
1.97047e-05
1.9822e-05
1.9901e-05
2.0024e-05
1.85507e-05
1.5787e-05
1.21485e-05
1.06897e-05
1.05495e-05
1.09225e-05
1.15447e-05
1.16518e-05
1.14819e-05
1.08568e-05
1.05689e-05
1.05473e-05
1.06336e-05
1.1089e-05
1.17795e-05
1.23038e-05
1.26114e-05
2.47488e-05
2.64636e-05
2.56385e-05
2.48126e-05
2.33979e-05
2.20311e-05
2.16684e-05
2.18337e-05
2.32214e-05
2.80348e-05
3.25023e-05
3.49932e-05
3.59031e-05
3.59424e-05
3.54323e-05
3.31024e-05
2.9801e-05
2.75272e-05
0.000236572
0.000219223
0.000122748
7.80116e-05
5.0509e-05
3.58249e-05
3.25195e-05
3.4634e-05
5.13863e-05
8.42989e-05
0.000101318
0.000106027
0.000105557
9.84243e-05
7.45882e-05
5.44729e-05
4.25154e-05
3.67239e-05
0.0702282
0.0874198
0.0869491
0.0860886
0.0861002
0.0866409
0.0866035
0.086681
0.0876311
0.0895044
0.0893701
0.0885858
0.0866614
0.084852
0.0834044
0.0822996
0.0814667
0.0807672
0.0799675
0.0789091
0.0778541
0.07728
0.0774405
0.0782632
0.0811807
0.0833381
0.0831589
0.079368
0.0733524
0.0708989
0.0709368
0.0733399
0.0761988
0.0804593
0.0882015
0.105324
0.13823
0.165727
0.17254
0.203091
0.209607
0.221959
0.325906
0.406474
0.299664
0.173989
0.14269
0.141395
0.157174
0.177634
0.201059
0.220997
0.225825
0.22367
0.206491
0.156957
0.105345
0.0969651
0.0987272
0.103055
0.103971
0.102691
0.0972937
0.0922117
0.0871965
0.0823884
0.0780786
0.0741217
0.07073
0.069009
0.0683717
0.0681732
0.0682038
0.0687214
0.0705404
0.0747068
0.0825142
0.0944188
0.110044
0.129393
0.152581
0.168862
0.173586
0.174606
0.174078
0.168986
0.15546
0.132576
0.104112
0.07645
0.0561003
0.0468506
0.0424308
0.0398737
0.0377392
0.0359225
0.0345495
0.0324402
0.0308895
0.0310084
0.0326421
0.0367502
0.0424796
0.0473233
0.0489719
0.044175
0.0377185
0.0372553
0.0458735
0.104643
0.343036
0.571272
0.54106
0.210616
0.0660111
0.0496748
0.0448857
0.0418066
0.0389044
0.0355198
0.0335138
0.0304875
0.0289071
0.0270137
0.0260457
0.0254256
0.0252642
0.0249957
0.0247672
0.0245307
0.0243492
0.024203
0.0241825
0.024272
0.0244763
0.0247543
0.0251812
0.0257026
0.0263037
0.0270113
0.0277881
0.028556
0.029268
0.0298784
0.0303389
0.0306229
0.0307428
0.0307298
0.0306414
0.0305346
0.0303729
0.0301708
0.029951
0.0297111
0.0294867
0.0293434
0.0292486
0.0291526
0.0291006
0.0291021
0.0291301
0.0291596
0.0291913
0.0292233
0.0292722
0.0293161
0.0293103
0.0291651
0.0281515
0.0109393
0.00408875
0.00894251
0.00853737
0.00827088
0.00853653
0.00870069
0.00885752
0.00900582
0.009577
0.00905219
0.0622695
0.047863
0.0682783
0.0757836
0.079485
0.0845521
0.0849303
0.0844786
0.0829737
0.0797135
0.074539
0.0700926
0.0662432
0.0636825
0.0618873
0.0613366
0.0614704
0.0619779
0.0630167
0.0637041
0.0638269
0.0631257
0.0613881
0.0610965
0.0614635
0.0633098
0.0674256
0.0683972
0.0678256
0.0667002
0.0665073
0.0669862
0.0675317
0.0688675
0.073097
0.0817671
0.106567
0.123645
0.134264
0.167218
0.220547
0.237977
0.245115
0.218636
0.179394
0.16565
0.18264
0.203149
0.210539
0.213334
0.213802
0.211195
0.19648
0.161885
0.136631
0.124692
0.119343
0.118836
0.118922
0.116756
0.107601
0.0947336
0.0863604
0.0824875
0.0799139
0.0767771
0.0729244
0.0687045
0.0642496
0.059392
0.0541221
0.0489449
0.0450092
0.0420626
0.0404274
0.0394823
0.0381608
0.0361173
0.0340149
0.0318961
0.0293988
0.0270406
0.0246797
0.0219089
0.0197237
0.017595
0.0160349
0.0147474
0.0140903
0.0131958
0.0122067
0.0117529
0.0115167
0.0113821
0.011315
0.0113014
0.0115688
0.012404
0.0141107
0.0175235
0.0245234
0.0358436
0.0447479
0.0559403
0.0676616
0.0684714
0.0574514
0.0429276
0.0427042
0.0531808
0.112558
0.443924
0.427706
0.108002
0.0465621
0.0350305
0.0305405
0.0276221
0.025493
0.0236576
0.0225291
0.0210284
0.0201427
0.0191078
0.0182087
0.0173568
0.0165536
0.0159125
0.0153668
0.0149399
0.0145837
0.0142819
0.0140943
0.0140122
0.0139871
0.0140595
0.0142843
0.0146409
0.0151888
0.015931
0.0169753
0.0182016
0.0194795
0.0207655
0.0220586
0.0232882
0.0242804
0.0249114
0.0251275
0.0251353
0.0250719
0.0248536
0.0244501
0.0240532
0.0237629
0.0236659
0.0236627
0.0236806
0.02373
0.0238125
0.0239628
0.0243233
0.0248939
0.0253279
0.0260959
0.0273319
0.0284251
0.0292007
0.0292459
0.0273185
0.0218876
0.0136973
0.0104232
0.0106154
0.0132394
0.0143338
0.0138184
0.0117575
0.0108497
0.00976161
0.0469977
0.0402472
0.0454494
0.0596031
0.0715779
0.0730576
0.0712693
0.0654552
0.0564361
0.0514721
0.0485014
0.0470901
0.0470754
0.0472497
0.047914
0.0488161
0.0497519
0.0507012
0.0518765
0.052933
0.053356
0.0534007
0.0532903
0.0527083
0.0500575
0.0474066
0.0471114
0.0475764
0.0497585
0.0514797
0.0522231
0.0536114
0.0587312
0.0682501
0.0764237
0.0851864
0.101331
0.151222
0.195108
0.195435
0.196919
0.172945
0.159344
0.157884
0.171492
0.194848
0.20432
0.206858
0.207179
0.203092
0.188032
0.161392
0.141376
0.132658
0.127454
0.123802
0.119817
0.112266
0.0940398
0.0587171
0.0300243
0.0230722
0.0212653
0.0206277
0.0204363
0.0205067
0.0209534
0.0217424
0.0227394
0.0237176
0.0245417
0.0253409
0.0259024
0.0267736
0.0279134
0.0297345
0.0317397
0.0325075
0.0327561
0.0325134
0.030686
0.0280095
0.0248701
0.0219306
0.0200296
0.0185224
0.0173319
0.016508
0.0157559
0.0153126
0.0150984
0.0148522
0.0143072
0.0138421
0.0131629
0.012406
0.0118249
0.0114556
0.0113675
0.0123227
0.0144988
0.0189884
0.0239051
0.0326095
0.0581698
0.0716403
0.0755815
0.0801824
0.0849849
0.0960562
0.220861
0.422201
0.171675
0.0465704
0.0271016
0.0214896
0.0177238
0.0153518
0.0133687
0.0117606
0.0108018
0.00980055
0.00921783
0.00878734
0.00859216
0.00882976
0.00991947
0.0110098
0.0115267
0.0117439
0.0118284
0.0118554
0.0118301
0.0117276
0.0116446
0.011582
0.0115311
0.0115071
0.0115576
0.0117616
0.0122477
0.0130633
0.0141259
0.0151116
0.0158404
0.0161414
0.0161608
0.016088
0.0159729
0.0159809
0.0161001
0.0164645
0.0172374
0.0180653
0.0187789
0.0194218
0.0198811
0.0201965
0.0203014
0.0202857
0.020214
0.0200328
0.0197952
0.0194521
0.0186279
0.0185575
0.0190035
0.0200521
0.0234511
0.0254669
0.0249859
0.0231664
0.0184534
0.0173408
0.0176581
0.0188812
0.0194946
0.0177346
0.0133939
0.0111935
0.0389636
0.0472485
0.0608094
0.0728833
0.0678307
0.0576562
0.0472443
0.0425828
0.0426923
0.0432177
0.0444456
0.0459336
0.0485487
0.0515856
0.0556831
0.0587536
0.0612442
0.0621251
0.062093
0.0617809
0.0611814
0.0603732
0.0595602
0.0584352
0.0558638
0.0527096
0.0502855
0.0496147
0.0499846
0.0509521
0.0520063
0.0542046
0.0611059
0.0722831
0.0806683
0.093822
0.153642
0.177669
0.176957
0.148924
0.138013
0.135641
0.141281
0.165174
0.189474
0.19858
0.200392
0.198346
0.187159
0.170228
0.151708
0.141193
0.136002
0.133177
0.130306
0.125107
0.11318
0.0885598
0.0468573
0.0205337
0.0142662
0.012322
0.0116221
0.011307
0.0111432
0.0110217
0.0108656
0.01064
0.0103912
0.0101875
0.010082
0.0100505
0.0102316
0.0107761
0.0117253
0.0134766
0.0163706
0.0208186
0.0254082
0.0287225
0.031065
0.0320906
0.0324606
0.0321602
0.0291526
0.0273984
0.0265764
0.0249725
0.0233443
0.0226937
0.0221497
0.0215625
0.0210868
0.0205053
0.019835
0.019181
0.0186086
0.0173529
0.0154136
0.0139508
0.0133716
0.0145828
0.017326
0.0205258
0.0289997
0.0522836
0.0692027
0.0903676
0.111246
0.169892
0.320904
0.269241
0.0724406
0.0280157
0.0208434
0.0183857
0.0161473
0.0145496
0.0132787
0.012369
0.0119481
0.0116878
0.0116408
0.0116783
0.0118462
0.0120854
0.0122949
0.0124549
0.0125925
0.0126575
0.0127012
0.0127978
0.0128797
0.0127466
0.0125274
0.0123263
0.0120513
0.0117372
0.0114433
0.0112939
0.0113509
0.0116734
0.0123352
0.0131971
0.0142303
0.0152195
0.0159645
0.016557
0.0169267
0.0173198
0.017813
0.0184949
0.0191751
0.0197625
0.020155
0.0204668
0.020718
0.020825
0.0208331
0.0208193
0.0208006
0.0208279
0.0209309
0.021099
0.0214989
0.0217641
0.0217603
0.0218496
0.0229506
0.0245346
0.0249681
0.0248205
0.0240066
0.0219397
0.021404
0.0215922
0.0223506
0.0221732
0.0191196
0.0136496
0.0449637
0.058521
0.0524608
0.0397501
0.0337222
0.0345803
0.0364011
0.040089
0.0470563
0.0552231
0.0652559
0.0745139
0.083806
0.0906288
0.0959896
0.0960134
0.0951088
0.0926901
0.088951
0.0847875
0.0819165
0.079449
0.0767305
0.0744199
0.07223
0.0684773
0.0638384
0.0599113
0.0575888
0.0574248
0.0581474
0.0612551
0.0718313
0.0818392
0.092056
0.142738
0.160105
0.154412
0.117625
0.106466
0.105863
0.114768
0.137681
0.170644
0.18756
0.191664
0.19124
0.185521
0.172581
0.155348
0.143295
0.138105
0.134845
0.130633
0.121081
0.100581
0.0618878
0.0260019
0.016031
0.0130794
0.0121713
0.0118769
0.0118109
0.0118266
0.0118899
0.011897
0.0117323
0.0113229
0.0107815
0.0101759
0.00956656
0.00897837
0.00850803
0.00828118
0.00810296
0.00804244
0.00805491
0.00834157
0.00879721
0.00929678
0.0103432
0.0117152
0.0135431
0.0157358
0.0180286
0.0189927
0.0194977
0.0197726
0.0198693
0.0197749
0.0197764
0.0196699
0.0197434
0.0197015
0.0196224
0.0197655
0.020147
0.0200753
0.0192126
0.0179051
0.0166075
0.0164482
0.017076
0.0187422
0.0210244
0.0293987
0.0520943
0.103593
0.190969
0.271508
0.314745
0.133405
0.0393776
0.0232808
0.0204902
0.018676
0.0170023
0.0158426
0.0149453
0.0142618
0.0139816
0.0139101
0.0140306
0.0143931
0.0149873
0.0157274
0.0162715
0.0165047
0.0165456
0.01623
0.01571
0.0149782
0.0141585
0.0138486
0.0137284
0.0136883
0.01367
0.0136687
0.0135453
0.0131974
0.0127679
0.0124278
0.0124025
0.0128111
0.0134518
0.0141923
0.0148631
0.0156647
0.0162572
0.0172167
0.0180207
0.0189616
0.0194924
0.0198879
0.0201395
0.020097
0.0198881
0.0193406
0.0185817
0.0180578
0.0174056
0.0172225
0.0173019
0.0175954
0.0182801
0.0190484
0.0197274
0.0203057
0.0215779
0.023683
0.0246381
0.0250201
0.0250054
0.0247307
0.0237138
0.0231012
0.0234822
0.0236986
0.0227414
0.0176527
0.036687
0.0329697
0.0269076
0.0270947
0.0295418
0.0371359
0.0525916
0.0749025
0.0951444
0.108423
0.114566
0.116777
0.116205
0.114765
0.11191
0.107778
0.104036
0.0986807
0.0935478
0.0886941
0.0869456
0.0869097
0.0871305
0.0873107
0.0880372
0.0917077
0.0940683
0.0921321
0.0901024
0.0910767
0.0953383
0.104701
0.111896
0.111025
0.133194
0.146668
0.141053
0.0952293
0.0786204
0.0756706
0.0768123
0.0871718
0.113545
0.150776
0.169523
0.17334
0.173311
0.169529
0.159577
0.145502
0.134191
0.128412
0.120387
0.100566
0.0635278
0.0321576
0.020605
0.0167244
0.0159215
0.0158542
0.0162957
0.0171072
0.0175306
0.0176189
0.017591
0.0174242
0.0171962
0.0169305
0.0165599
0.0161518
0.0156977
0.0150261
0.014205
0.0132996
0.0122792
0.0111889
0.0102674
0.00935226
0.00877627
0.00848466
0.00838183
0.00835409
0.00847177
0.00862273
0.00886
0.00907756
0.00930019
0.00945683
0.00954247
0.00959076
0.00963336
0.0097167
0.00980652
0.00998446
0.0100889
0.0105218
0.0121362
0.0139213
0.0150637
0.0155236
0.0154338
0.0160795
0.0173588
0.0181976
0.0183761
0.0226254
0.0475131
0.154135
0.253083
0.288276
0.247788
0.0715012
0.0285889
0.0230872
0.0217086
0.0212071
0.0208446
0.020434
0.0194784
0.0184944
0.0183725
0.018705
0.0197143
0.0213466
0.0225384
0.0235141
0.0238709
0.0235585
0.022029
0.0203188
0.0179428
0.015859
0.014155
0.0131737
0.0127901
0.0129342
0.0132687
0.0136792
0.0140092
0.0141992
0.0143642
0.0144942
0.0145164
0.0145515
0.0146697
0.0152011
0.015846
0.016661
0.0175203
0.0183751
0.0188606
0.0193041
0.0195337
0.0194563
0.0191292
0.0183627
0.0168829
0.0150592
0.0128524
0.0112886
0.00985127
0.00916162
0.00922494
0.0096278
0.0106865
0.0129026
0.0150684
0.0165164
0.018029
0.0208891
0.0231369
0.0243898
0.025058
0.0252512
0.0249795
0.0249714
0.0256583
0.0269151
0.0265676
0.0228457
0.0246358
0.0247382
0.0244123
0.029198
0.0464782
0.0818113
0.111218
0.124695
0.129926
0.129882
0.127954
0.12452
0.119665
0.115044
0.104818
0.0966783
0.0898863
0.0868795
0.0876868
0.0902109
0.0958472
0.109365
0.128809
0.143443
0.156186
0.16793
0.17503
0.174593
0.173183
0.170297
0.159303
0.142279
0.132961
0.132467
0.13671
0.133179
0.0859268
0.0599785
0.0529707
0.0515125
0.0519068
0.0569925
0.0700127
0.0895145
0.108338
0.120018
0.123538
0.123838
0.12128
0.113347
0.100541
0.0846496
0.0632215
0.0363228
0.024416
0.0198652
0.0186477
0.0184342
0.0189928
0.0202966
0.0206967
0.0208343
0.0208319
0.0204594
0.0198343
0.0193653
0.0189115
0.0185151
0.0180939
0.0177398
0.0174676
0.0171852
0.0170035
0.0168218
0.0166177
0.0164066
0.0161022
0.0156344
0.0150046
0.0141869
0.0133042
0.0125233
0.0118153
0.0112319
0.0107361
0.0103516
0.010023
0.00972307
0.00941751
0.00908461
0.00872465
0.00838275
0.00806032
0.00774192
0.00736081
0.00708328
0.00698213
0.00700143
0.00708679
0.00729837
0.00750945
0.00835381
0.0118839
0.0148035
0.0149537
0.0181573
0.0439366
0.172159
0.275889
0.282371
0.147182
0.0452887
0.0267646
0.0244877
0.0263743
0.0312248
0.033533
0.03412
0.0332687
0.0312176
0.030851
0.030839
0.0311394
0.0323515
0.0341104
0.0350176
0.0352252
0.0337346
0.0314375
0.0272846
0.0231837
0.0186067
0.0148976
0.0122202
0.0100417
0.00883466
0.00919092
0.0104177
0.0118167
0.0128837
0.0138461
0.0145444
0.0150147
0.0155133
0.0159211
0.0165243
0.0169821
0.0176194
0.0180233
0.0184465
0.0186031
0.0184931
0.0181416
0.017337
0.0156992
0.0129182
0.0095729
0.00658118
0.0044289
0.00325773
0.00264709
0.00239314
0.00242194
0.00256913
0.00290141
0.00361483
0.00539626
0.00823085
0.0104415
0.0127836
0.0177492
0.0215871
0.0238392
0.0250527
0.0260085
0.0266674
0.0282621
0.0305268
0.0305842
0.0278644
0.0184057
0.0230525
0.0270706
0.0528283
0.10236
0.124134
0.133444
0.136544
0.135572
0.132281
0.126495
0.116811
0.10193
0.0891769
0.0789369
0.0790311
0.0838167
0.093171
0.108133
0.124805
0.143888
0.16579
0.184018
0.200659
0.20944
0.213367
0.213458
0.208091
0.19802
0.182784
0.162037
0.142121
0.133811
0.131315
0.124349
0.085045
0.0505054
0.0397268
0.036199
0.0352462
0.0352491
0.0371615
0.0430098
0.0507627
0.0583297
0.0645203
0.0661517
0.066119
0.0638822
0.0580426
0.0493025
0.0393766
0.0295772
0.0242192
0.0224567
0.0219821
0.0226598
0.0252753
0.0268701
0.0277001
0.0280703
0.0281596
0.0276067
0.0270575
0.0259681
0.0248342
0.0230956
0.0213729
0.0200696
0.0188376
0.0180483
0.0173589
0.0169812
0.0167379
0.0166064
0.0165562
0.0166258
0.0167529
0.016902
0.0168838
0.0167532
0.0165477
0.0162575
0.0158712
0.0154361
0.0149987
0.0145948
0.0142577
0.0139837
0.0137219
0.0134087
0.012937
0.0121745
0.0112121
0.0099473
0.00861934
0.00761876
0.0068949
0.00634015
0.00594264
0.00560878
0.00542351
0.00570937
0.00721591
0.0076383
0.00985745
0.0319235
0.174107
0.283402
0.255047
0.0983398
0.0351695
0.0272755
0.0286577
0.0395914
0.0461485
0.0483869
0.0491474
0.0492118
0.0488944
0.0491857
0.0498414
0.0505774
0.0517847
0.0526955
0.0532641
0.0535577
0.0527391
0.0496329
0.0439935
0.0359565
0.0274522
0.0196108
0.0135458
0.00975614
0.00708838
0.00534193
0.00472213
0.00548048
0.00729712
0.00960505
0.0116836
0.0131813
0.0143898
0.0151852
0.0158806
0.0162625
0.0165919
0.0166338
0.0165206
0.0161831
0.0154342
0.0142024
0.0115301
0.00783851
0.00459395
0.00272932
0.00171002
0.0012023
0.00101221
0.0010452
0.00111358
0.00125443
0.00143174
0.00150079
0.00156571
0.00180183
0.00247144
0.00422773
0.00638766
0.00860222
0.0133056
0.019445
0.0235295
0.0257094
0.0270863
0.0301156
0.0334423
0.034043
0.0322359
0.0181032
0.0275808
0.040605
0.100633
0.124932
0.133868
0.137233
0.136741
0.130969
0.119331
0.100724
0.0798346
0.0737161
0.0739128
0.0773515
0.0842858
0.0933166
0.106461
0.122736
0.143212
0.167115
0.191905
0.207495
0.21442
0.216993
0.217353
0.21359
0.205368
0.192996
0.175442
0.154446
0.136168
0.1275
0.115076
0.0785263
0.0453953
0.0326311
0.0280457
0.0264467
0.0260448
0.0260803
0.0276724
0.0303322
0.0328588
0.0350575
0.0373796
0.0379755
0.0377832
0.0366319
0.0343434
0.0314622
0.0289355
0.0271572
0.0265281
0.0277304
0.0322539
0.0370403
0.0396645
0.0416679
0.0425965
0.0429609
0.0429758
0.0419642
0.040616
0.0386555
0.0367639
0.0347454
0.0324368
0.0298358
0.0269711
0.0240361
0.0212749
0.0189646
0.0174536
0.0163524
0.0155366
0.0149602
0.0146233
0.0143789
0.0145456
0.01489
0.0152565
0.0155063
0.0155681
0.0153375
0.0150068
0.0146639
0.0144461
0.0143983
0.0145075
0.0147273
0.0150554
0.0153895
0.0156251
0.015586
0.0148536
0.0133016
0.0111592
0.00891332
0.00720674
0.00604638
0.00541774
0.00503702
0.00477359
0.00482407
0.00596305
0.0186993
0.149353
0.280354
0.205137
0.0685927
0.032597
0.0289249
0.0392206
0.0512407
0.0555974
0.0574994
0.058209
0.0584756
0.0586169
0.0591521
0.059953
0.0607773
0.0617536
0.0626325
0.0630904
0.0632311
0.0630116
0.0621499
0.0601879
0.0558052
0.0458416
0.0322047
0.0207462
0.0126289
0.00765241
0.00492278
0.00331576
0.00245661
0.00236798
0.00304751
0.0048364
0.00727296
0.0093837
0.0108921
0.0117245
0.0120213
0.0119979
0.0118447
0.0114517
0.0104966
0.00892787
0.00595229
0.00355229
0.00206193
0.00117974
0.000762712
0.000599699
0.000628024
0.000724021
0.00100542
0.00127974
0.00199889
0.00236557
0.00229678
0.00197078
0.00168973
0.00169428
0.00191642
0.00270026
0.00395428
0.00601259
0.0101206
0.0188442
0.0240603
0.0264453
0.0306012
0.0351794
0.0366293
0.0355975
0.0187485
0.0374007
0.0668196
0.117112
0.129401
0.134199
0.13293
0.123174
0.103113
0.0784024
0.0688366
0.0676273
0.0690198
0.0731737
0.0791343
0.0859401
0.0942182
0.108233
0.128395
0.148074
0.167491
0.184397
0.195645
0.201433
0.20367
0.203748
0.197769
0.187125
0.172451
0.154367
0.135363
0.117723
0.0978506
0.065733
0.0403659
0.0284536
0.0236402
0.0218831
0.021399
0.0213643
0.0223725
0.0240872
0.0255117
0.0263045
0.0269681
0.0278783
0.0287597
0.0294497
0.0301025
0.0305586
0.0308404
0.0309054
0.0330942
0.0389802
0.0443442
0.0483289
0.050146
0.0512756
0.0517246
0.0518084
0.0510793
0.0499834
0.048334
0.0461731
0.0436043
0.0406242
0.0382696
0.0370604
0.0358853
0.0348139
0.0336113
0.0322031
0.0301171
0.0272348
0.0240265
0.0207444
0.0177601
0.0154533
0.013878
0.012609
0.0116989
0.0110807
0.0105875
0.0102837
0.0100833
0.00992186
0.00978031
0.00974591
0.00981735
0.0100419
0.0105646
0.0115731
0.0131859
0.0150321
0.016163
0.0166211
0.0165246
0.0159769
0.0146902
0.0122569
0.00909706
0.00705547
0.00578121
0.00471442
0.00444642
0.0049263
0.010814
0.104112
0.26497
0.196993
0.0641708
0.0329109
0.0327464
0.0481996
0.0575557
0.0613679
0.0623166
0.062843
0.0629514
0.0628922
0.0631114
0.0634277
0.0638052
0.0642146
0.0645904
0.0647589
0.0648229
0.0648781
0.0649035
0.0648693
0.0643455
0.0622114
0.0544163
0.036717
0.0218712
0.0118345
0.0062028
0.00343659
0.00209735
0.0013915
0.00115298
0.00128204
0.00186607
0.00280169
0.00372784
0.00428385
0.00444494
0.00443926
0.00433149
0.00400923
0.00321452
0.00224084
0.00144129
0.000861158
0.00054077
0.000380106
0.000391034
0.000455333
0.000637413
0.00116309
0.00259618
0.00389407
0.00706381
0.00825863
0.00793086
0.0068245
0.00442577
0.00270163
0.00215889
0.002185
0.0024079
0.00308029
0.00482815
0.00977648
0.0195853
0.0247403
0.0299558
0.0356277
0.0382763
0.0379225
0.020474
0.0453897
0.0864664
0.119842
0.127084
0.125583
0.113077
0.0866576
0.0650215
0.0604879
0.0606207
0.0628881
0.066029
0.0684668
0.0702374
0.0765391
0.0888477
0.101037
0.109325
0.117375
0.12808
0.137571
0.147256
0.154365
0.15711
0.157418
0.14959
0.13947
0.125299
0.109553
0.0933358
0.0742072
0.0527426
0.0347337
0.0255334
0.0210343
0.0192559
0.0187202
0.0186663
0.0194482
0.0211788
0.023024
0.0241362
0.0246535
0.0251264
0.0259775
0.0272733
0.0288593
0.0305364
0.0327127
0.0359136
0.0413587
0.0468442
0.0505511
0.0532554
0.0545767
0.0552713
0.05561
0.0557217
0.0556419
0.0549744
0.0538949
0.0520683
0.049545
0.046299
0.0420017
0.0380858
0.0357872
0.0348076
0.0343528
0.0341053
0.0340492
0.0337523
0.033253
0.0324496
0.0312722
0.029285
0.0262654
0.0224069
0.0183075
0.0145979
0.011993
0.0103682
0.00926794
0.00864214
0.00839276
0.00836627
0.0084725
0.00852614
0.00838803
0.00806072
0.00777688
0.00776929
0.00861544
0.011159
0.0141266
0.0157729
0.0161991
0.0160721
0.0153722
0.0139399
0.0108207
0.00821822
0.00595667
0.00474199
0.00479861
0.00726965
0.0493742
0.229147
0.199132
0.0702804
0.0345301
0.0375168
0.0539039
0.0620742
0.0637789
0.065036
0.0653089
0.0650034
0.0644188
0.0642256
0.0642296
0.0643178
0.0644667
0.0646933
0.0648519
0.0649174
0.0649814
0.0651324
0.0655218
0.0660865
0.0666967
0.0661216
0.059481
0.0386769
0.0215237
0.0106002
0.00499337
0.00244126
0.00134442
0.000839344
0.000621599
0.000612624
0.00074074
0.000919487
0.00102411
0.0010563
0.00105068
0.0010175
0.000919354
0.000722502
0.000525521
0.000360705
0.000256678
0.00023326
0.000262331
0.000366466
0.000701562
0.00158583
0.00375429
0.00919883
0.0138392
0.023209
0.0267248
0.0259377
0.0231031
0.0164359
0.00921987
0.00483402
0.00293145
0.00255468
0.00262472
0.00307105
0.00495388
0.0115139
0.020955
0.0283648
0.0351259
0.0390554
0.0393129
0.0215693
0.0487308
0.0922052
0.115861
0.116077
0.10688
0.0825829
0.0586744
0.0527646
0.0522307
0.0547686
0.057634
0.0584907
0.059371
0.0629806
0.071105
0.0784344
0.0809949
0.082771
0.0851634
0.0879738
0.0922926
0.0988472
0.103261
0.104852
0.104453
0.0977403
0.0904305
0.0809824
0.068662
0.056295
0.0434553
0.0305117
0.02301
0.0193963
0.0176799
0.0170762
0.0169741
0.0174204
0.0188556
0.020927
0.0229146
0.0240333
0.0245662
0.0251267
0.0262212
0.0281309
0.0310882
0.0358014
0.0418592
0.0472294
0.0505814
0.0534445
0.055021
0.056075
0.0565606
0.0568724
0.0569938
0.0570329
0.0570141
0.0568873
0.0565701
0.0558792
0.0543644
0.0508068
0.0450616
0.0381702
0.0333026
0.0305035
0.0287931
0.0278452
0.0275797
0.0287736
0.0305853
0.0319938
0.0323258
0.0321331
0.0314231
0.0302805
0.0287751
0.0263803
0.0228568
0.0189226
0.0154728
0.0131737
0.0121125
0.0119591
0.0123733
0.0126765
0.01229
0.0109196
0.00920942
0.00775889
0.00699411
0.00692951
0.00749026
0.00935953
0.0115447
0.0134783
0.0146541
0.0148336
0.0139608
0.0116509
0.00837852
0.0059341
0.00524925
0.0060356
0.0194956
0.171091
0.192123
0.0893934
0.03888
0.0393212
0.0554599
0.0632763
0.0658754
0.0668244
0.0665958
0.0660848
0.0650078
0.0645501
0.0643998
0.0644151
0.0645064
0.0646902
0.0648662
0.0649608
0.0649054
0.0648591
0.0649556
0.065834
0.0674205
0.068838
0.0693565
0.0601402
0.0368722
0.0187605
0.00858884
0.00376762
0.00170071
0.000867886
0.000522745
0.000369516
0.000328097
0.000328021
0.000326478
0.00031949
0.00030519
0.000284427
0.000252246
0.00021208
0.000177805
0.000153545
0.000160137
0.000192257
0.000319734
0.000775388
0.00210199
0.00538167
0.01281
0.0288598
0.0420186
0.0604654
0.0679935
0.0666835
0.0613309
0.0485828
0.0298241
0.0152711
0.00715588
0.00386041
0.00294426
0.00297326
0.00351769
0.00622807
0.014822
0.0252441
0.033889
0.0391064
0.0402585
0.0220861
0.0502332
0.0927838
0.108314
0.105531
0.0878294
0.0561994
0.0439361
0.0426221
0.0454804
0.050824
0.0517261
0.0514318
0.0517158
0.0550529
0.0628487
0.0667119
0.0669841
0.0641897
0.0594594
0.0592475
0.061737
0.064686
0.0659266
0.0663375
0.0646086
0.0616547
0.0564265
0.0499131
0.0424639
0.0342249
0.0275176
0.0215355
0.0182659
0.0167865
0.0161447
0.015974
0.0160967
0.0169312
0.0186143
0.0209622
0.0233529
0.0248625
0.0257449
0.0265392
0.0284672
0.032778
0.0392161
0.0452203
0.0497021
0.0522865
0.0540058
0.0552556
0.0558209
0.0562513
0.0565261
0.0567923
0.0569955
0.0570614
0.0570986
0.0571153
0.0570667
0.056821
0.0563404
0.0551848
0.0523903
0.0453994
0.0352681
0.0301073
0.0277032
0.026009
0.0238741
0.0216899
0.0204309
0.0210037
0.0232724
0.0258294
0.0281255
0.0294473
0.0296373
0.0292855
0.0284192
0.0271995
0.0258006
0.0242199
0.0229642
0.0225279
0.0227809
0.0230705
0.0228641
0.0215837
0.0186123
0.0144941
0.0102572
0.00763113
0.00636295
0.00561376
0.00513487
0.00549738
0.00780539
0.0113608
0.0134989
0.0134861
0.0117927
0.00795541
0.00601891
0.00595572
0.00974788
0.0943405
0.179171
0.129
0.0495537
0.0415087
0.0544787
0.0650678
0.0668367
0.0676346
0.0673387
0.0668329
0.0658175
0.0649283
0.0646677
0.0647865
0.0652539
0.066008
0.0666652
0.0669421
0.0663543
0.0653269
0.0647072
0.064566
0.0661172
0.0691928
0.071944
0.07117
0.0558615
0.0308342
0.0143008
0.00613871
0.00256488
0.00111673
0.000557019
0.000338177
0.000244704
0.000208677
0.000188801
0.000171309
0.000155241
0.000142326
0.00013106
0.000123151
0.000120892
0.000126828