/*--------------------------------*- C++ -*----------------------------------*\
  =========                 |
  \\      /  F ield         | OpenFOAM: The Open Source CFD Toolbox
   \\    /   O peration     | Website:  https://openfoam.org
    \\  /    A nd           | Version:  9
     \\/     M anipulation  |
\*---------------------------------------------------------------------------*/
FoamFile
{
    format      ascii;
    class       volScalarField;
    location    "0.095";
    object      nut;
}
// * * * * * * * * * * * * * * * * * * * * * * * * * * * * * * * * * * * * * //

dimensions      [0 2 -1 0 0 0 0];

internalField   nonuniform List<scalar> 
12225
(
0
0
0
0
0
0
0
0
0
0
0
0
0
0
0
0
0
0
0
0
0
0
0
0
0
0
0
0
0
0
0
0
0
0
0
0
0
0
0
0
0
0
0
0
0
0
0
0
0
0
0
0
0
0
0
0
0
0
0
0
0
0
0
0
0
0
0
0
0
0
0
0
0
0
0
0
3.93871e-07
1.40529e-06
1.98624e-06
1.68736e-06
7.08476e-07
0
1.36202e-07
3.79029e-07
4.00182e-07
2.39533e-07
3.14322e-08
0
0
0
0
0
0
0
9.35252e-07
1.04179e-06
8.5611e-07
5.54151e-07
2.50775e-07
2.46381e-07
4.36734e-07
6.8102e-07
7.36894e-07
6.45197e-07
4.55759e-07
1.4509e-07
0
0
0
0
0
1.59684e-07
2.84297e-07
0
0
0
3.55264e-07
7.21944e-07
1.08077e-06
1.3559e-06
1.53009e-06
1.0961e-06
3.39769e-07
0
0
8.05732e-08
3.33115e-08
3.70688e-08
1.24411e-07
3.49978e-07
0
0
0
3.55081e-07
1.9659e-06
2.32283e-06
2.02384e-06
1.5269e-06
8.36143e-07
3.00427e-07
0
0
0
0
6.47692e-08
1.75151e-08
4.44114e-07
2.83751e-07
0
0
0
8.0869e-07
1.69941e-06
2.20576e-06
1.88796e-06
7.67623e-07
0
0
0
0
0
0
0
0
0
5.77075e-08
0
0
1.83881e-09
5.65985e-07
7.03814e-07
0
0
0
0
1.62064e-07
2.15961e-07
3.05318e-09
0
0
0
0
8.41231e-08
5.25491e-07
9.10196e-07
2.61674e-07
0
0
0
0
0
0
3.98723e-07
6.97392e-07
5.25839e-07
5.11786e-07
6.17342e-07
2.42444e-07
0
0
2.65659e-07
4.04824e-07
4.10173e-07
7.00229e-08
0
0
0
0
0
0
0
0
1.38924e-07
4.83525e-07
2.7992e-07
1.27697e-07
0
0
4.27175e-07
3.28771e-07
4.83564e-07
0
0
0
0
0
4.84006e-08
4.54103e-08
0
0
1.3684e-07
1.54601e-07
1.18787e-07
8.72247e-08
1.44579e-08
3.06133e-07
0
0
0
0
0
7.27086e-08
0
0
2.05063e-07
5.33479e-07
6.36557e-07
5.73612e-07
4.46159e-07
3.06551e-07
2.16402e-07
1.91406e-07
0
6.62213e-07
0
0
0
0
0
0
0
0
0
3.07119e-07
6.75013e-07
9.71969e-07
1.11468e-06
1.0513e-06
9.41901e-07
9.65366e-07
0
5.05201e-07
4.38932e-07
2.90511e-07
0
0
0
0
0
0
0
0
6.03134e-09
6.4868e-07
1.36875e-06
1.6308e-06
1.41934e-06
1.156e-06
8.24439e-08
5.09769e-07
5.81756e-07
5.10729e-07
0
0
0
0
0
0
0
0
8.41872e-07
1.77567e-06
1.69815e-06
1.25855e-06
8.63099e-07
6.12556e-07
3.2862e-08
8.38609e-08
0
0
0
0
0
0
3.98625e-07
1.05838e-06
1.424e-06
1.01987e-06
6.87792e-07
1.97798e-06
2.63149e-06
1.79709e-06
1.17054e-06
8.41365e-07
3.54872e-07
4.90823e-07
0
0
0
8.62297e-08
0
0
7.73384e-08
4.24618e-07
0
0
0
2.17204e-07
5.37608e-07
8.38447e-07
1.17122e-06
1.42964e-06
3.16189e-07
2.64366e-07
0
0
0
9.69363e-07
4.34892e-07
1.70548e-07
2.70237e-08
0
0
0
1.44619e-08
2.47224e-07
6.0938e-07
1.01427e-06
1.41256e-06
1.7268e-06
4.18252e-07
2.37105e-07
2.83412e-08
0
0
8.58854e-07
3.83101e-07
0
0
0
5.62503e-09
7.9443e-08
5.75204e-08
0
0
5.73846e-09
0
0
4.28231e-07
1.68465e-07
3.19118e-07
1.89074e-07
0
3.18693e-08
0
0
0
0
0
3.67341e-07
5.61223e-07
6.9425e-07
8.86079e-07
8.65481e-07
8.05187e-08
0
5.16544e-07
3.73198e-07
2.522e-07
1.24633e-07
0
0
0
0
0
0
0
0
1.80446e-07
1.36602e-06
1.10659e-06
3.87156e-07
0
0
0
7.64561e-08
0
0
5.60636e-08
0
0
0
0
0
0
0
3.48922e-07
4.22624e-07
1.86492e-07
0
0
0
0
0
0
0
9.4235e-09
0
0
0
0
0
0
0
7.21487e-08
0
0
0
0
0
0
0
0
0
5.21293e-07
0
0
0
0
0
0
0
0
0
0
0
0
0
5.64616e-09
0
0
0
0
0
0
2.066e-09
4.74611e-09
7.56666e-09
8.50041e-09
4.52249e-09
0
0
0
0
0
0
0
0
0
0
0
0
0
0
2.49232e-11
2.3539e-10
2.78832e-10
3.81241e-11
0
0
0
0
0
0
0
0
0
0
0
0
0
0
0
0
0
0
0
0
0
0
0
0
0
0
0
0
0
0
0
0
0
0
0
0
0
0
0
0
0
0
3.04933e-06
6.51846e-06
0
0
0
0
0
1.50368e-06
2.37974e-06
2.20282e-06
1.46449e-06
5.80236e-07
0
0
0
0
0
0
0
0
0
0
1.96162e-07
4.79879e-07
8.33637e-07
1.18131e-06
1.37226e-06
1.29748e-06
9.93453e-07
6.70976e-07
5.60838e-07
8.78143e-07
1.43974e-06
1.25455e-06
1.50508e-06
4.06949e-06
2.24767e-06
0
5.1616e-06
3.101e-05
6.83538e-05
0.000100293
0.000129329
0.000121846
7.24451e-05
3.02133e-05
1.07504e-05
2.34231e-06
0
0
0
0
0
0
0
0
0
0
0
1.09155e-07
3.20263e-07
1.85879e-07
0
0
0
0
0
0
0
0
0
0
0
0
0
0
0
0
0
0
0
0
0
0
0
0
0
0
0
0
0
0
0
0
0
0
0
0
0
0
0
0
0
0
0
0
0
0
0
7.26696e-08
1.67127e-05
6.45418e-05
8.78722e-05
4.01206e-05
8.15716e-06
2.34116e-06
1.36741e-06
1.1202e-06
9.42084e-07
7.68804e-07
6.18968e-07
4.72121e-07
3.47269e-07
2.27737e-07
1.17753e-07
1.28183e-08
0
0
0
0
0
0
0
0
0
0
0
0
0
0
0
0
0
0
0
0
0
0
0
0
0
0
0
0
0
0
0
0
0
0
0
0
0
0
0
0
0
0
7.31772e-08
0
0
3.01133e-07
1.76671e-06
1.77464e-06
4.32268e-07
0
0
0
0
8.58347e-08
8.22956e-06
2.3556e-06
0
0
0
3.94262e-07
1.22174e-06
2.3028e-06
3.30777e-06
3.88439e-06
3.79634e-06
3.09038e-06
1.99776e-06
8.92512e-07
3.27359e-08
0
0
0
0
0
0
3.87862e-10
2.37422e-07
5.21195e-07
8.35144e-07
1.07819e-06
1.10653e-06
8.03377e-07
2.87375e-07
0
0
4.95365e-07
1.6154e-06
2.67206e-06
3.81431e-06
2.82755e-06
0
0
0
0
0
2.74605e-06
4.1733e-06
9.26746e-06
1.18399e-05
8.36742e-06
3.29661e-06
2.5757e-08
0
0
0
0
0
0
0
0
0
0
0
0
3.27439e-07
1.73041e-07
0
0
0
0
0
0
0
0
0
0
0
0
0
0
0
0
0
0
0
0
0
0
0
0
0
0
0
0
0
0
0
0
0
0
0
0
0
0
0
0
0
0
0
0
0
0
0
7.2072e-06
2.45663e-05
4.33665e-05
4.14969e-05
1.85633e-05
7.55074e-06
3.66009e-06
2.44462e-06
1.85396e-06
1.42272e-06
1.089e-06
8.31344e-07
6.13053e-07
4.37009e-07
2.82153e-07
1.46303e-07
2.5068e-08
0
0
0
0
0
0
0
0
0
0
0
0
0
0
0
0
0
0
0
0
0
0
0
0
0
0
0
0
0
0
0
0
0
0
0
0
0
0
0
0
0
0
1.7618e-07
0
0
0
0
1.03691e-08
7.8397e-08
1.72252e-07
3.25781e-07
1.32256e-07
0
0
5.53341e-06
3.17128e-06
4.12895e-06
5.00028e-06
5.31861e-06
5.04243e-06
4.77242e-06
4.59493e-06
4.44135e-06
4.43144e-06
4.37291e-06
4.16222e-06
3.72428e-06
2.94895e-06
1.8634e-06
6.20213e-07
0
0
0
0
0
2.82703e-07
1.2418e-06
2.01317e-06
2.19853e-06
1.76576e-06
1.03012e-06
2.12545e-07
0
0
0
0
0
0
0
0
0
0
0
0
0
1.55332e-06
1.51191e-06
2.56552e-06
3.71169e-06
1.74635e-06
0
0
0
0
0
0
0
0
0
0
0
0
0
0
3.5382e-08
0
0
0
0
0
0
0
0
0
0
0
0
0
0
0
0
0
0
0
0
0
0
0
0
0
0
0
0
0
0
0
0
0
0
0
0
0
0
0
0
0
0
0
9.91515e-08
0
0
9.22427e-07
1.15865e-05
1.29701e-05
1.13075e-05
1.30605e-05
8.98291e-06
5.48471e-06
4.18246e-06
4.88348e-06
5.43748e-06
5.02589e-06
4.0236e-06
3.0135e-06
2.19352e-06
1.5228e-06
1.02287e-06
6.35176e-07
3.3458e-07
9.15766e-08
0
0
0
0
0
0
0
0
0
0
0
0
0
0
0
0
0
0
0
0
0
0
0
0
2.74954e-08
5.34378e-08
6.42436e-08
6.56017e-08
6.0816e-08
5.1598e-08
3.91326e-08
2.6664e-08
1.77279e-08
1.13615e-08
1.09984e-08
4.41165e-09
3.89698e-09
0
0
0
0
0
5.89836e-07
0
0
0
0
0
0
0
4.09217e-07
5.82036e-07
2.88069e-07
0
0
1.91072e-06
4.22842e-06
5.95175e-06
6.48105e-06
6.41666e-06
6.05917e-06
5.7925e-06
5.46831e-06
4.60115e-06
3.01806e-06
4.41e-07
0
0
0
0
0
0
0
0
0
0
0
2.39632e-05
2.30647e-05
1.12338e-05
2.71341e-06
0
0
0
0
0
0
0
0
0
0
0
0
0
0
1.21321e-06
4.08867e-07
3.6712e-07
5.18314e-07
0
0
0
0
0
0
0
4.29889e-07
0
0
0
0
0
0
0
0
0
0
0
0
0
0
0
1.20821e-07
2.17481e-07
2.47155e-07
2.23386e-07
1.50932e-07
2.74678e-08
0
0
0
0
0
0
0
0
0
0
0
0
0
0
0
0
0
0
0
0
0
0
0
0
0
0
0
0
0
0
0
2.06168e-07
1.08311e-06
3.40348e-06
8.77255e-06
4.77532e-06
5.01367e-06
3.81898e-06
1.17406e-06
9.34367e-08
5.53109e-07
2.39095e-06
2.96699e-06
3.13474e-06
3.14233e-06
3.11126e-06
3.12834e-06
3.15334e-06
3.17317e-06
3.06954e-06
2.56831e-06
9.64923e-07
0
0
0
0
0
0
0
0
0
0
0
0
0
0
0
0
0
0
0
0
0
0
0
0
0
0
0
0
0
0
0
0
0
0
0
0
0
0
0
0
0
8.05374e-08
2.78115e-06
3.36274e-07
0
0
0
0
0
0
6.04092e-08
4.60261e-07
6.58976e-07
0
0
9.86143e-07
2.63881e-06
3.67536e-06
4.52731e-06
5.40346e-06
5.64921e-06
4.69854e-06
1.65581e-06
0
0
0
0
0
0
0
0
0
0
0
0
0
0
0
7.2798e-06
1.74709e-05
8.27844e-06
2.03778e-06
0
0
0
0
0
0
0
0
0
0
0
0
0
0
0
0
0
0
0
0
0
0
0
1.73423e-06
2.41212e-06
0
0
0
0
0
0
0
0
0
0
0
0
0
0
0
0
0
0
0
0
0
0
0
0
0
0
0
0
0
0
0
0
0
0
0
0
0
0
0
0
0
0
0
0
0
0
0
0
0
0
0
0
3.99733e-07
1.4606e-06
2.80342e-06
1.04769e-06
1.6123e-06
1.40007e-06
0
0
0
8.41597e-07
2.44471e-06
2.65972e-06
2.59927e-06
2.53453e-06
2.46449e-06
2.42441e-06
2.34411e-06
2.12834e-06
1.5533e-06
1.84267e-07
0
0
0
0
0
0
0
0
0
0
0
0
0
0
0
0
0
0
0
0
0
0
0
0
0
0
0
0
0
0
0
0
0
0
0
0
0
0
0
0
0
0
8.92365e-07
3.45808e-06
3.65448e-06
1.83964e-07
0
0
0
0
0
5.78917e-07
9.65778e-07
1.32142e-06
6.61635e-07
0
6.65498e-07
1.46922e-06
2.68417e-06
4.22589e-06
4.50769e-06
1.55484e-06
2.1163e-06
2.10678e-05
2.15935e-05
1.55451e-05
1.0027e-05
5.11196e-06
9.9755e-07
0
0
0
0
0
0
8.05715e-07
2.44531e-07
0
0
0
3.60266e-05
2.41887e-05
1.39301e-05
7.35692e-06
2.77775e-06
0
0
0
0
0
0
0
0
0
0
0
0
0
0
0
0
0
0
0
4.25276e-07
4.92782e-06
5.99802e-06
1.09921e-06
0
0
5.52499e-07
5.65785e-07
1.36993e-07
0
0
0
0
0
0
0
0
0
0
0
0
0
0
0
0
0
0
0
0
0
0
0
0
0
0
0
0
0
0
0
0
0
0
0
0
0
0
0
0
0
0
0
0
0
0
0
1.19691e-06
0
0
0
8.34025e-07
0
0
0
0
2.48903e-06
2.9372e-06
2.88398e-06
2.75948e-06
2.65453e-06
2.52709e-06
2.37599e-06
2.05197e-06
1.34207e-06
0
0
0
0
0
0
0
0
0
0
0
0
0
0
0
0
0
0
0
0
0
0
0
0
0
0
0
0
0
0
0
0
0
0
0
0
0
0
0
0
0
0
0
0
6.37425e-07
2.90898e-06
3.28903e-06
0
0
0
0
0
1.45335e-06
2.46928e-06
2.79252e-06
2.98249e-06
2.36012e-06
1.02568e-07
6.32612e-07
1.69287e-06
3.56031e-06
4.40959e-06
1.23932e-05
3.5508e-05
3.25391e-05
2.41547e-05
1.66663e-05
1.08027e-05
5.64097e-06
5.88561e-07
0
0
0
0
1.87956e-06
2.46731e-06
1.37622e-06
0
0
0
0
1.29859e-05
3.58183e-05
3.05695e-05
2.11653e-05
1.33194e-05
7.22112e-06
2.94251e-06
0
0
0
0
0
0
0
0
0
0
0
0
0
0
0
0
0
0
9.4334e-08
1.34773e-06
5.6639e-07
0
0
3.63737e-09
0
0
0
0
0
0
0
0
0
0
0
0
0
0
0
0
0
0
0
0
0
0
0
0
0
0
0
0
0
0
0
0
0
0
0
0
0
0
0
0
0
0
0
0
0
0
0
0
0
0
0
0
0
0
2.35073e-06
1.40095e-06
0
0
2.08804e-06
3.3389e-06
3.58194e-06
3.52518e-06
3.43127e-06
3.27315e-06
2.92154e-06
2.34559e-06
1.30175e-06
0
0
0
0
3.74623e-06
2.17338e-06
0
0
0
0
0
0
0
0
0
0
0
0
0
0
0
0
0
0
0
0
0
0
0
0
0
0
0
0
0
0
0
0
0
0
0
0
0
0
0
1.2869e-07
1.73523e-06
2.50115e-06
6.57298e-07
0
2.02027e-07
2.05249e-06
3.59154e-06
4.8566e-06
5.32633e-06
5.17493e-06
5.0381e-06
4.55659e-06
0
1.14296e-07
7.60081e-07
5.3249e-06
2.24484e-05
2.67852e-05
2.59867e-05
2.3312e-05
1.93675e-05
1.45851e-05
9.27887e-06
3.27012e-06
0
0
0
8.52894e-07
1.42912e-06
1.16992e-06
0
0
0
0
0
8.64996e-06
1.888e-05
2.36946e-05
2.20336e-05
1.73109e-05
1.18412e-05
6.77724e-06
2.77267e-06
0
0
0
0
0
0
0
0
0
0
0
0
0
0
0
0
0
0
0
0
0
0
1.67008e-07
3.24087e-07
3.97584e-07
2.77747e-07
0
0
0
0
0
1.84241e-07
6.48755e-07
8.9214e-07
9.69306e-07
9.23918e-07
8.14771e-07
6.84637e-07
5.46947e-07
4.10549e-07
2.67132e-07
1.11896e-07
0
0
0
0
0
0
0
0
0
0
0
0
0
0
0
0
0
0
0
0
0
0
0
0
0
0
0
0
0
0
0
0
0
0
0
7.24093e-07
3.45624e-06
3.01763e-06
1.95967e-06
1.73026e-06
3.48277e-06
3.96161e-06
3.99976e-06
3.76461e-06
3.60247e-06
3.29691e-06
2.66347e-06
1.47334e-06
0
0
0
0
0
1.00683e-05
7.73402e-06
3.09253e-06
0
0
0
0
0
0
0
0
0
0
0
0
0
0
0
0
0
0
0
0
0
0
0
0
0
0
0
0
0
0
0
0
0
0
0
0
0
0
0
9.0967e-07
1.91152e-06
1.72072e-06
1.0018e-06
3.97402e-06
5.75238e-06
6.7055e-06
7.57623e-06
7.87983e-06
7.2928e-06
6.60345e-06
5.97096e-06
0
0
0
9.74987e-06
1.43327e-05
1.61272e-05
1.75141e-05
1.816e-05
1.70356e-05
1.30448e-05
6.55845e-06
1.23449e-06
2.58967e-07
6.03312e-07
4.37745e-07
0
0
0
0
0
2.89839e-06
7.72357e-06
1.33686e-05
1.84133e-05
2.17838e-05
2.27274e-05
2.11266e-05
1.78075e-05
1.34689e-05
8.80364e-06
4.6413e-06
1.21914e-06
0
0
0
0
0
0
0
0
0
0
0
0
0
0
0
0
0
0
1.32308e-07
1.22061e-06
2.27461e-06
3.02109e-06
3.24011e-06
2.40031e-06
0
0
0
0
0
0
0
0
0
0
0
0
0
0
0
0
0
0
0
0
0
0
0
0
0
0
0
0
0
0
0
0
0
0
0
0
0
0
0
0
0
0
0
0
0
0
0
0
0
0
0
0
4.00832e-07
3.22791e-06
2.74742e-06
1.34309e-06
2.25846e-06
3.63746e-06
3.64621e-06
3.28598e-06
2.73509e-06
2.35933e-06
1.85472e-06
1.05844e-06
0
0
0
0
0
0
8.33767e-06
1.6542e-05
8.67265e-06
2.72939e-06
0
0
0
0
0
0
0
0
0
0
0
0
0
0
0
0
0
0
0
0
0
0
0
0
0
0
0
0
0
0
0
0
0
0
0
0
0
0
5.19879e-07
1.25486e-06
1.72708e-06
2.35793e-06
4.40877e-06
6.89079e-06
8.00426e-06
8.73967e-06
9.36889e-06
8.78789e-06
7.656e-06
6.78215e-06
0
0
0
4.5062e-06
6.8116e-06
8.35903e-06
9.84418e-06
1.10601e-05
1.11512e-05
7.99676e-06
2.58306e-06
6.64e-07
0
0
0
0
1.16848e-06
2.74441e-06
4.42993e-06
6.93736e-06
1.04873e-05
1.50495e-05
2.02854e-05
2.54828e-05
2.97967e-05
3.23127e-05
3.21655e-05
2.96302e-05
2.50639e-05
1.90178e-05
1.25063e-05
6.345e-06
1.10838e-06
0
0
0
0
0
2.15997e-06
1.22945e-06
4.16864e-07
0
0
0
0
0
0
0
0
6.67941e-08
1.58199e-06
4.01906e-06
7.46782e-06
1.16469e-05
1.21982e-05
0
0
0
0
0
0
0
0
0
3.63971e-08
3.34504e-07
2.91031e-07
0
0
0
0
0
0
0
0
0
0
0
0
0
0
0
0
0
0
0
0
0
0
0
0
0
0
0
0
0
0
0
0
0
0
0
0
0
0
0
0
0
0
2.6858e-06
1.72572e-06
0
1.77186e-06
3.06329e-06
2.6197e-06
1.87039e-06
1.03718e-06
5.79683e-07
1.54716e-07
0
0
0
0
0
0
0
0
7.13583e-06
1.22063e-05
8.036e-06
2.60486e-06
0
0
0
0
0
0
0
0
0
0
0
0
0
0
0
0
0
0
0
0
0
0
0
0
0
0
0
0
0
0
0
0
0
0
0
0
8.87871e-08
5.28589e-07
1.07084e-06
1.5265e-06
2.22176e-06
3.52395e-06
5.55862e-06
8.02194e-06
9.13498e-06
1.00593e-05
9.74173e-06
8.41398e-06
7.2435e-06
0
0
0
1.02884e-06
2.55606e-06
3.49353e-06
4.40075e-06
5.15562e-06
5.87568e-06
5.14079e-06
9.82776e-07
0
0
0
1.88615e-08
7.66805e-07
1.92741e-06
3.55832e-06
5.40193e-06
7.5789e-06
1.03736e-05
1.38567e-05
1.81297e-05
2.25923e-05
2.64438e-05
2.9268e-05
3.0283e-05
3.00069e-05
2.79975e-05
2.41303e-05
1.84931e-05
1.17812e-05
6.08173e-06
2.9384e-06
1.39165e-06
1.31056e-07
0
0
7.01754e-07
7.85535e-07
5.75892e-07
2.96437e-07
0
0
0
0
0
0
8.65339e-08
1.23595e-06
3.26792e-06
6.63365e-06
1.1366e-05
1.53446e-05
6.89175e-06
0
0
0
0
0
0
0
0
1.9223e-07
1.14912e-06
1.64218e-06
1.73726e-06
1.46379e-06
8.47336e-07
3.72343e-08
0
0
0
0
0
0
0
0
0
0
0
0
0
0
0
0
0
0
0
0
0
0
0
0
0
0
0
0
0
0
0
0
0
0
0
0
0
0
0
1.8853e-06
2.98952e-07
0
1.22327e-06
2.47425e-06
1.67211e-06
5.86529e-07
0
0
0
0
0
0
0
0
0
0
0
0
4.17046e-06
7.84495e-06
6.53818e-06
2.2014e-06
0
0
0
0
0
0
0
0
0
0
0
0
0
0
0
0
0
0
0
0
0
0
0
0
0
0
0
0
0
0
0
0
0
0
0
3.14586e-07
9.15407e-07
1.23825e-06
1.65934e-06
2.27997e-06
3.00922e-06
4.12674e-06
6.44046e-06
8.78614e-06
1.02565e-05
1.03674e-05
9.00043e-06
7.5065e-06
0
0
0
0
0
8.26197e-09
0
0
0
0
0
0
0
0
0
0
0
6.08141e-07
1.40306e-06
2.38495e-06
3.704e-06
5.40402e-06
7.29207e-06
8.7978e-06
9.62529e-06
9.72414e-06
8.95973e-06
7.90308e-06
6.85081e-06
6.02927e-06
5.44338e-06
4.69049e-06
3.60816e-06
2.61448e-06
1.7549e-06
1.00197e-06
4.38961e-07
1.41216e-07
5.53795e-08
7.82479e-08
1.00808e-07
1.14083e-08
0
0
0
0
0
9.8106e-08
7.80212e-07
1.84832e-06
3.19076e-06
4.26383e-06
4.09717e-06
1.49647e-06
0
0
0
0
0
0
0
0
0
0
0
0
3.41808e-07
9.24591e-07
1.26853e-06
1.2623e-06
9.2271e-07
3.19909e-07
0
0
0
0
0
0
0
0
0
0
0
0
0
0
0
0
0
0
0
0
0
0
0
0
0
0
0
0
0
0
0
9.44549e-09
0
0
0
0
0
7.29114e-07
0
0
5.31666e-07
2.07474e-06
1.0939e-06
0
0
0
0
0
0
0
0
0
0
0
0
0
0
2.65887e-06
5.36061e-06
4.90421e-06
1.18805e-06
0
0
0
0
0
0
0
0
0
0
0
0
0
0
0
0
0
0
0
0
0
0
0
0
0
0
0
0
0
0
0
0
0
0
8.1597e-07
1.89573e-06
2.07098e-06
2.11845e-06
2.54961e-06
3.08983e-06
3.55829e-06
4.82868e-06
7.52892e-06
9.93664e-06
1.07458e-05
9.4713e-06
7.7268e-06
0
0
0
0
0
0
0
0
0
0
0
0
0
0
0
0
0
0
0
0
0
0
5.8578e-07
1.23621e-06
1.69513e-06
2.08768e-06
2.50546e-06
2.9231e-06
3.27368e-06
3.42523e-06
3.27043e-06
2.89606e-06
2.34501e-06
1.83932e-06
1.39581e-06
1.01873e-06
7.06121e-07
4.36703e-07
2.221e-07
6.35229e-08
0
0
0
0
0
0
4.08643e-08
3.47166e-07
6.99242e-07
9.88634e-07
9.92863e-07
4.43401e-07
0
0
0
0
0
0
0
0
0
0
0
0
0
0
0
0
0
2.01397e-07
5.38334e-07
6.48813e-07
5.17785e-07
2.3767e-07
0
0
0
0
0
0
0
0
0
0
0
0
0
0
0
0
0
0
0
0
0
0
0
0
0
0
0
0
0
0
0
0
0
0
0
0
0
0
0
1.77063e-06
9.37087e-07
0
0
0
0
0
0
0
0
0
0
0
0
0
0
0
1.37964e-06
3.811e-06
3.26167e-06
0
0
0
0
0
0
0
0
0
0
0
0
0
0
0
0
0
0
0
0
0
0
0
0
0
0
0
0
0
0
0
0
0
0
2.44029e-06
3.98974e-06
3.97064e-06
3.36291e-06
3.2625e-06
3.38428e-06
3.61433e-06
4.14883e-06
5.93313e-06
9.09392e-06
1.07777e-05
9.86049e-06
7.96309e-06
0
0
0
0
0
0
0
0
0
0
0
0
0
0
0
0
0
0
0
0
0
0
0
0
3.19313e-07
9.08404e-07
1.41462e-06
1.8381e-06
2.12707e-06
2.27244e-06
2.22393e-06
2.03358e-06
1.78148e-06
1.51395e-06
1.27431e-06
1.06264e-06
8.59198e-07
6.51891e-07
4.48637e-07
2.35099e-07
0
0
0
0
0
1.69351e-08
1.33054e-07
1.14155e-07
0
0
0
0
0
0
0
0
0
0
0
0
0
0
0
0
0
0
0
0
0
0
0
2.68785e-07
3.31716e-07
1.31151e-07
0
0
0
0
0
0
0
0
0
0
0
0
0
0
0
0
0
0
0
0
0
0
0
0
0
0
0
0
0
0
0
0
0
0
0
0
0
0
0
1.17802e-06
9.83741e-07
0
0
0
0
0
0
0
0
0
0
0
0
0
0
0
0
2.90479e-08
2.50639e-06
1.35608e-06
0
0
0
0
0
0
0
0
0
0
0
0
0
0
0
0
0
0
0
0
0
0
0
0
0
0
0
0
0
0
0
0
6.10187e-07
5.12446e-06
8.28446e-06
7.91975e-06
6.08535e-06
4.81856e-06
4.16611e-06
3.88225e-06
4.06517e-06
5.03469e-06
7.75097e-06
1.0408e-05
1.01468e-05
8.23627e-06
0
0
0
0
0
0
0
0
0
0
0
0
0
0
0
0
0
0
0
0
0
0
0
0
2.98419e-07
9.02724e-07
1.32079e-06
1.58172e-06
1.70583e-06
1.73627e-06
1.69715e-06
1.59237e-06
1.47086e-06
1.35485e-06
1.25922e-06
1.17205e-06
1.06215e-06
9.13662e-07
7.26188e-07
4.85493e-07
1.84646e-07
0
0
0
8.03083e-08
2.31564e-07
1.96982e-07
0
0
0
0
0
0
0
0
0
0
0
0
0
0
0
0
0
0
0
0
0
0
0
0
1.1745e-09
2.55371e-07
4.50338e-08
0
0
0
0
1.39953e-07
0
0
0
0
0
0
0
0
0
0
0
0
0
0
0
0
0
0
0
0
0
0
0
0
0
0
0
0
0
0
0
0
0
0
0
8.18032e-07
0
0
0
0
0
0
0
0
0
0
0
0
0
0
0
0
0
0
1.26549e-06
0
0
0
0
0
0
0
0
0
0
0
0
0
0
0
0
0
0
0
0
0
0
0
0
0
0
0
0
0
0
0
0
7.70465e-07
6.49504e-06
1.16644e-05
1.40642e-05
1.10278e-05
7.74853e-06
5.74724e-06
4.5222e-06
4.27908e-06
4.69806e-06
6.45052e-06
9.65301e-06
1.02854e-05
8.53427e-06
0
0
0
0
0
0
0
0
0
0
0
0
0
0
0
0
0
0
0
0
0
0
0
0
2.15982e-07
8.34595e-07
1.32794e-06
1.61736e-06
1.70747e-06
1.65762e-06
1.54136e-06
1.4064e-06
1.28165e-06
1.20868e-06
1.1952e-06
1.21469e-06
1.21766e-06
1.16287e-06
1.02543e-06
7.93552e-07
4.68616e-07
1.09615e-07
0
0
1.99659e-07
4.10516e-07
3.68761e-07
0
0
0
0
0
0
0
0
0
0
0
0
0
0
0
0
0
0
1.22756e-07
1.56239e-07
3.72635e-08
0
0
0
0
2.58457e-07
2.66434e-07
0
0
0
0
0
0
1.47738e-07
0
0
0
0
0
0
0
0
0
0
0
0
0
0
0
0
0
0
0
0
0
0
0
0
0
0
0
0
0
0
0
0
0
0
0
0
0
0
0
0
0
0
0
0
0
0
0
0
0
0
0
0
0
6.36582e-07
0
0
0
0
0
0
0
0
0
0
0
0
0
0
0
0
0
0
0
0
0
0
0
0
0
0
0
0
0
0
0
0
5.90295e-06
1.27111e-05
1.77682e-05
1.80387e-05
1.26466e-05
8.47058e-06
5.82094e-06
4.71341e-06
4.78041e-06
5.71803e-06
8.5137e-06
1.0199e-05
8.82606e-06
0
0
0
0
0
0
0
0
0
0
0
0
0
0
0
0
0
0
0
0
0
0
0
0
3.65217e-08
4.17485e-07
8.22522e-07
1.15497e-06
1.35593e-06
1.40568e-06
1.35882e-06
1.25962e-06
1.13787e-06
1.04805e-06
1.02738e-06
1.06532e-06
1.12549e-06
1.15964e-06
1.12287e-06
9.86312e-07
7.43497e-07
4.0285e-07
6.9356e-08
0
1.61386e-07
4.82017e-07
6.55321e-07
4.70357e-07
0
0
0
0
0
0
0
0
0
0
0
0
0
9.91525e-08
7.06377e-07
8.50159e-07
6.76366e-07
5.33228e-07
4.19915e-07
2.63589e-07
2.07945e-07
1.05465e-07
0
0
1.99287e-07
4.96132e-07
0
0
0
0
0
0
0
1.9635e-07
5.07738e-07
3.87567e-07
2.84811e-07
1.62374e-07
0
0
0
0
0
0
0
0
0
0
0
0
0
0
0
0
0
0
0
0
0
0
0
0
0
0
0
0
0
0
0
0
0
0
0
0
0
0
0
0
0
0
0
0
0
0
0
0
2.80882e-07
2.34904e-07
0
0
0
0
0
0
0
0
0
0
0
0
0
0
0
0
0
0
0
0
0
0
0
0
0
0
0
0
0
0
0
3.62892e-06
1.10233e-05
1.85801e-05
2.20265e-05
1.9166e-05
1.26486e-05
7.95222e-06
5.50274e-06
4.98411e-06
5.3924e-06
7.30849e-06
9.82266e-06
9.0633e-06
0
0
0
0
0
0
0
0
0
0
0
0
0
0
0
0
0
0
0
0
0
3.25221e-07
4.795e-07
4.01008e-07
3.26511e-07
3.47308e-07
4.46982e-07
5.90194e-07
7.16249e-07
8.01219e-07
8.62669e-07
9.0152e-07
8.87248e-07
8.43521e-07
8.21234e-07
8.47201e-07
9.13699e-07
9.90963e-07
1.03413e-06
1.00816e-06
8.73867e-07
6.08657e-07
2.63463e-07
0
0
2.16695e-07
5.35255e-07
7.10217e-07
5.9483e-07
1.27665e-07
0
0
0
0
0
0
0
0
0
0
7.50224e-07
1.47485e-06
1.55918e-06
1.23848e-06
7.75554e-07
5.495e-07
5.08207e-07
3.519e-07
2.55493e-07
2.3557e-07
3.09604e-08
0
6.87925e-08
4.78419e-07
3.28379e-07
0
0
0
0
0
0
0
4.85129e-07
3.62647e-07
2.77388e-07
2.90886e-07
2.6015e-07
1.49026e-07
0
0
0
0
0
0
0
0
0
0
0
1.93269e-07
0
0
0
0
0
0
0
0
0
0
0
0
0
0
0
0
0
0
0
0
0
0
0
0
0
0
0
0
0
0
0
0
0
0
0
7.64038e-07
3.43104e-07
0
0
0
0
0
0
0
0
0
0
0
0
0
0
0
0
0
0
0
0
0
0
0
0
0
0
0
0
0
0
1.38204e-06
7.0764e-06
1.67701e-05
2.31899e-05
2.38074e-05
1.77262e-05
1.10885e-05
6.90916e-06
5.43441e-06
5.42288e-06
6.38186e-06
9.06397e-06
9.1777e-06
0
0
0
0
0
0
0
0
0
0
0
4.42321e-08
3.37199e-08
3.6185e-09
1.21526e-07
1.64328e-07
0
0
0
0
0
2.66144e-07
6.12954e-07
7.85118e-07
8.02641e-07
7.22589e-07
6.1264e-07
5.21074e-07
4.47838e-07
4.10697e-07
4.05428e-07
4.11599e-07
4.14596e-07
4.18381e-07
4.43344e-07
5.01946e-07
5.99718e-07
7.21328e-07
8.36174e-07
9.08734e-07
8.87513e-07
7.21735e-07
4.14607e-07
6.19588e-08
0
0
0
1.05359e-07
2.31989e-07
1.93638e-07
0
0
0
0
0
0
0
0
0
0
1.09951e-06
1.33434e-06
1.0453e-06
7.36128e-07
5.2819e-07
5.14211e-07
6.38395e-07
5.40603e-07
2.89281e-07
1.94715e-07
4.9297e-08
0
0
2.43189e-07
3.76429e-07
0
0
0
0
0
0
0
0
1.59894e-06
1.03386e-06
6.49105e-07
4.3776e-07
1.46715e-07
0
0
0
0
0
0
0
0
0
0
0
8.85769e-07
6.25083e-07
0
0
0
0
0
0
0
0
0
0
0
0
0
0
0
0
0
0
0
0
0
0
0
0
0
0
0
0
0
0
0
0
0
0
9.68668e-07
1.64707e-06
1.2067e-06
6.60088e-07
2.78162e-07
1.28985e-07
1.06265e-07
4.79525e-08
0
0
0
0
0
0
0
0
0
0
0
0
0
0
0
0
0
0
0
0
0
0
0
0
0
2.16654e-06
1.20769e-05
2.21678e-05
2.54994e-05
2.24115e-05
1.4811e-05
8.89458e-06
6.06625e-06
5.56286e-06
5.84747e-06
7.98671e-06
9.0924e-06
0
0
0
0
0
0
0
0
0
0
5.36615e-07
6.23482e-07
4.13295e-07
2.183e-07
1.73997e-07
1.98013e-07
1.08498e-07
0
0
0
0
0
0
3.54705e-07
6.76216e-07
7.96274e-07
7.94875e-07
6.86035e-07
5.06601e-07
3.43596e-07
2.29662e-07
1.54611e-07
1.10565e-07
8.30212e-08
6.89276e-08
7.93102e-08
1.30371e-07
2.38153e-07
4.03708e-07
5.90444e-07
7.26343e-07
7.47576e-07
6.01703e-07
3.16658e-07
0
0
0
0
0
0
0
0
0
0
0
0
0
0
0
0
6.23785e-08
2.07558e-07
0
0
2.51352e-07
5.88831e-07
8.00633e-07
8.38784e-07
3.78764e-07
0
0
0
0
0
1.8267e-07
5.76489e-08
0
0
0
0
0
0
0
0
2.2977e-06
1.58797e-06
6.88879e-07
0
0
0
0
0
0
0
0
0
0
0
8.53084e-08
1.47257e-06
1.41389e-06
3.52308e-07
0
0
0
0
0
0
0
0
0
0
0
0
0
0
0
0
0
0
0
0
0
0
0
0
0
0
0
0
0
0
0
0
0
1.13276e-06
3.0428e-06
2.87685e-06
1.98189e-06
1.05277e-06
5.25648e-07
3.20999e-07
2.026e-07
9.00145e-08
2.14917e-08
0
0
0
0
0
0
0
0
0
0
0
0
0
0
0
0
0
0
0
0
0
0
0
0
4.74841e-06
1.86823e-05
2.55544e-05
2.52975e-05
1.83533e-05
1.12114e-05
7.14009e-06
5.8386e-06
5.64937e-06
6.844e-06
8.69153e-06
0
0
0
0
0
0
0
1.85186e-06
2.88342e-07
2.98495e-07
9.44173e-07
9.57967e-07
6.73529e-07
3.81975e-07
2.46201e-07
2.02509e-07
1.38577e-07
0
0
0
0
0
0
0
1.5307e-07
3.28059e-07
4.45375e-07
4.46885e-07
3.33991e-07
1.97944e-07
7.7973e-08
0
0
0
0
0
0
0
0
0
1.29924e-07
3.45689e-07
4.63871e-07
4.17453e-07
2.46245e-07
3.37063e-08
0
0
0
0
0
0
0
0
0
1.09176e-07
8.64741e-08
0
0
0
0
0
0
0
4.65602e-07
1.02233e-06
9.83389e-07
8.67156e-07
4.44544e-07
0
0
0
0
0
0
2.57577e-09
0
0
0
0
0
0
0
0
0
1.58699e-06
9.49983e-07
0
0
0
0
1.2096e-07
1.09885e-06
3.5357e-07
0
0
0
0
1.41879e-08
2.10832e-06
2.16067e-06
1.24088e-06
0
0
0
0
0
0
0
0
0
0
0
0
0
0
0
0
0
0
0
0
0
0
0
0
0
0
0
0
0
0
0
0
0
1.56286e-06
4.58492e-06
4.64496e-06
3.42971e-06
1.93833e-06
9.80915e-07
5.38736e-07
3.37683e-07
2.23401e-07
1.71195e-07
1.51613e-07
1.4699e-07
1.64861e-07
0
0
0
0
0
0
0
0
0
0
0
0
0
0
0
0
3.07708e-06
2.79683e-06
0
0
0
0
1.23248e-05
2.39269e-05
2.62238e-05
2.14422e-05
1.35368e-05
8.32413e-06
6.15854e-06
5.57187e-06
5.80768e-06
7.93961e-06
0
0
0
0
0
0
3.44045e-07
9.70175e-07
2.57143e-07
0
1.79562e-07
7.31063e-07
5.51912e-07
2.28679e-07
1.22652e-07
1.353e-07
1.48277e-07
1.16889e-07
1.34715e-08
0
0
0
0
0
0
0
0
0
0
0
0
0
0
0
0
0
0
0
0
0
0
0
0
3.86498e-08
3.79396e-08
0
0
0
0
0
0
0
1.00269e-07
5.2842e-07
1.25649e-06
2.49559e-06
4.45732e-06
9.27444e-08
0
0
0
0
0
0
1.23699e-06
1.50414e-06
1.02231e-06
5.14844e-07
0
3.04431e-07
0
0
0
0
0
0
0
0
0
0
0
0
0
0
0
0
2.21797e-07
0
0
0
0
1.60728e-08
6.96248e-07
1.44551e-06
0
0
0
0
0
2.59153e-06
2.84715e-06
1.97643e-06
8.04247e-07
0
0
0
0
0
0
0
0
0
0
0
0
0
0
0
0
0
0
0
0
0
0
0
0
0
0
0
0
0
0
0
0
2.49261e-06
6.302e-06
6.4386e-06
4.84696e-06
2.8379e-06
1.46558e-06
7.64687e-07
4.58017e-07
3.32761e-07
3.00395e-07
2.91198e-07
3.14685e-07
3.6465e-07
0
0
0
0
0
0
0
0
0
0
0
0
0
0
0
5.2462e-06
1.09443e-05
8.58186e-06
0
0
0
0
3.4442e-06
2.04819e-05
2.59513e-05
2.3321e-05
1.5445e-05
9.56189e-06
6.61562e-06
5.55925e-06
5.09512e-06
6.80015e-06
0
0
0
0
0
0
0
6.40909e-07
3.49849e-09
0
0
0
2.59266e-07
1.66071e-07
8.04131e-08
9.12072e-08
1.69116e-07
2.65626e-07
4.10221e-07
4.89362e-07
0
0
0
0
0
0
0
0
0
0
0
0
0
0
0
0
0
0
0
0
0
0
0
0
0
0
0
0
0
0
0
0
1.51865e-07
8.50182e-07
2.03269e-06
4.16964e-06
8.61949e-06
2.00048e-06
0
0
0
0
0
4.61382e-07
2.05314e-06
1.74568e-06
8.01527e-07
0
0
1.76138e-06
0
0
0
0
0
0
0
0
0
0
0
0
0
0
0
0
0
0
0
0
0
0
4.07332e-08
0
0
0
0
0
0
2.49146e-06
3.29468e-06
2.4654e-06
1.40543e-06
3.39202e-07
0
0
0
0
0
0
0
0
0
0
0
0
0
0
0
0
0
0
0
0
0
0
0
0
0
0
0
0
0
0
0
4.03796e-06
8.16233e-06
8.18684e-06
6.1361e-06
3.67526e-06
1.94629e-06
9.83966e-07
5.59914e-07
4.19261e-07
3.98106e-07
3.98132e-07
4.38132e-07
4.81672e-07
1.14591e-07
2.16321e-07
5.47938e-07
0
0
0
0
0
0
0
0
0
0
0
3.06863e-06
1.50009e-05
2.34995e-05
1.87122e-05
0
0
0
0
0
1.52348e-05
2.46261e-05
2.38591e-05
1.69097e-05
1.04769e-05
6.95299e-06
5.47022e-06
4.53195e-06
5.48308e-06
0
0
3.22453e-06
4.47286e-06
0
0
0
0
2.69223e-07
0
0
0
0
0
0
0
0
3.40971e-07
9.41068e-07
1.47057e-06
1.07505e-06
0
0
0
0
0
0
0
0
0
0
0
0
0
0
0
0
0
0
0
0
0
0
0
0
0
0
0
0
0
0
0
0
2.46667e-07
1.51869e-06
3.78089e-06
8.09316e-06
1.36673e-06
0
0
0
0
0
1.63593e-06
2.58312e-06
1.71799e-06
2.42732e-07
0
0
3.23307e-06
0
0
0
0
0
0
0
0
0
0
0
0
0
0
0
0
0
0
5.7563e-09
0
0
0
0
2.85767e-08
0
0
0
0
0
1.26412e-06
3.4319e-06
2.70157e-06
1.66492e-06
9.28815e-07
0
0
0
0
0
0
0
0
0
0
0
0
0
0
0
0
0
0
0
0
0
0
0
0
0
0
0
0
0
0
0
6.18461e-06
1.00852e-05
9.80284e-06
7.22427e-06
4.35936e-06
2.34599e-06
1.18116e-06
6.52381e-07
4.86149e-07
4.66935e-07
4.76608e-07
5.25134e-07
5.5913e-07
4.0818e-07
7.75224e-07
1.3983e-06
0
0
0
0
0
0
0
0
0
0
0
1.1497e-05
2.89576e-05
4.24231e-05
3.6599e-05
0
0
0
0
0
8.57622e-06
2.23037e-05
2.33804e-05
1.77071e-05
1.11753e-05
7.26131e-06
5.33544e-06
4.06567e-06
4.16643e-06
0
1.11506e-06
1.55845e-06
3.23871e-07
0
0
0
0
0
0
0
0
0
0
0
0
2.02259e-07
8.7393e-07
1.84667e-06
2.60821e-06
2.5305e-06
1.00888e-06
5.19086e-07
9.88141e-08
0
0
0
0
0
0
0
0
0
0
0
0
0
0
0
0
0
1.41763e-07
1.30775e-07
0
0
0
0
0
0
0
0
0
0
0
5.37177e-07
2.3267e-06
4.68472e-06
8.09967e-07
0
0
0
0
0
2.58775e-06
2.81384e-06
1.50267e-06
0
0
0
5.37053e-06
9.43477e-08
0
0
0
0
0
0
0
0
0
0
0
0
0
0
0
0
0
3.67295e-07
7.37136e-08
0
0
1.06626e-07
6.18734e-07
0
0
0
0
0
0
3.23273e-06
2.65697e-06
1.66219e-06
1.08601e-06
4.65515e-07
0
0
0
0
0
0
0
0
0
0
0
0
0
0
0
0
0
0
0
0
0
0
0
0
0
0
0
0
0
0
8.74862e-06
1.19291e-05
1.11898e-05
7.97745e-06
4.82476e-06
2.63344e-06
1.33333e-06
7.27571e-07
5.35586e-07
5.11596e-07
5.28019e-07
5.82336e-07
6.11935e-07
6.28765e-07
1.3079e-06
2.26333e-06
0
0
0
0
0
0
0
0
0
0
2.62062e-06
2.24075e-05
4.71603e-05
6.98623e-05
6.92479e-05
0
0
0
0
0
1.46012e-06
1.91483e-05
2.21224e-05
1.76078e-05
1.1303e-05
7.27149e-06
5.05254e-06
3.56437e-06
2.99518e-06
0
3.64953e-07
7.4679e-07
3.25436e-07
0
0
0
0
0
0
0
0
0
0
0
3.57929e-07
1.29745e-06
1.89063e-06
2.5516e-06
3.03336e-06
2.71217e-06
2.10575e-06
1.28307e-06
5.33135e-07
0
0
0
0
0
0
0
0
0
0
0
0
0
0
0
0
0
2.24463e-07
0
0
0
0
0
0
0
0
0
0
0
0
0
1.14961e-06
2.64021e-06
6.88706e-07
0
0
0
0
9.71241e-07
3.09981e-06
2.8178e-06
1.03231e-06
0
0
1.20502e-06
7.49344e-06
3.23283e-07
0
0
0
0
0
0
0
0
0
0
0
0
0
0
0
0
2.93699e-07
8.38406e-07
5.30279e-07
1.90121e-07
1.63243e-08
3.28031e-07
8.31792e-07
4.22206e-07
0
0
0
0
0
2.40477e-06
2.25294e-06
1.42945e-06
9.48952e-07
6.39988e-07
0
0
0
0
0
0
0
0
0
0
0
0
0
0
0
0
0
0
0
0
0
0
0
0
0
0
0
0
0
1.8992e-06
1.12923e-05
1.34117e-05
1.21459e-05
8.304e-06
5.00173e-06
2.73823e-06
1.39662e-06
7.65979e-07
5.62128e-07
5.32272e-07
5.51006e-07
6.04763e-07
6.35632e-07
7.88841e-07
1.75259e-06
3.02042e-06
0
0
0
0
0
0
0
0
0
0
9.0836e-06
3.44868e-05
6.81182e-05
0.000105762
0.000126692
1.67726e-05
0
0
0
0
0
1.53528e-05
2.00433e-05
1.66254e-05
1.09279e-05
7.02859e-06
4.61704e-06
2.95661e-06
1.95719e-06
0
1.45629e-07
4.2317e-07
3.07587e-07
0
0
0
0
0
0
0
0
0
0
0
0
1.39864e-06
2.15954e-06
2.33182e-06
2.20062e-06
2.27137e-06
2.29935e-06
1.84772e-06
1.14807e-06
4.12623e-07
6.3785e-09
0
0
0
0
0
0
0
0
0
0
0
0
0
0
0
0
0
0
0
0
0
0
0
0
0
0
0
0
0
7.69039e-08
1.6459e-06
1.08036e-06
0
0
0
0
1.75712e-06
3.19814e-06
2.58017e-06
2.57204e-07
0
0
2.26582e-06
9.30751e-06
5.99318e-07
0
0
0
0
0
0
0
0
0
0
0
0
0
0
0
0
7.99781e-07
1.36032e-06
1.01174e-06
5.46682e-07
2.80524e-07
3.95268e-07
8.15092e-07
1.01262e-06
0
0
0
0
0
0
1.46422e-06
9.86219e-07
6.56444e-07
5.07924e-07
1.86723e-07
0
0
0
0
0
0
0
0
0
0
0
0
0
0
0
0
0
0
0
0
0
0
0
0
0
0
0
0
5.62046e-06
1.31326e-05
1.41116e-05
1.22367e-05
8.04048e-06
4.80069e-06
2.61201e-06
1.33595e-06
7.42746e-07
5.51053e-07
5.20821e-07
5.39053e-07
5.83255e-07
6.1793e-07
8.76987e-07
2.04844e-06
3.47686e-06
0
0
0
0
0
0
0
0
0
0
1.5034e-05
4.48281e-05
8.69717e-05
0.00014237
0.000206122
0.000121339
0
0
0
0
0
1.12525e-05
1.69566e-05
1.44013e-05
9.58447e-06
6.15497e-06
3.85263e-06
2.1822e-06
9.91473e-07
0
1.02953e-08
3.14636e-08
8.30442e-10
0
0
0
4.71236e-09
2.02804e-07
2.26862e-07
0
0
0
0
0
0
0
1.30315e-06
1.95956e-06
2.3022e-06
2.88267e-06
3.04222e-06
3.09993e-06
2.18615e-06
9.35218e-07
2.39613e-07
0
0
0
0
0
0
0
0
0
0
0
0
0
2.94745e-07
1.20913e-06
6.79248e-07
9.88928e-08
0
0
0
0
0
0
0
0
0
0
0
0
0
2.83006e-07
1.88012e-06
0
0
0
0
2.19542e-06
3.02497e-06
2.1093e-06
0
0
0
2.57994e-06
1.10824e-05
1.01836e-06
0
0
0
0
0
0
0
0
0
0
0
0
0
0
0
5.56783e-07
1.43652e-06
1.90134e-06
1.45773e-06
8.62118e-07
4.76596e-07
4.37766e-07
7.22121e-07
1.1064e-06
5.24198e-07
0
0
0
0
0
5.20936e-07
4.93833e-07
3.45819e-07
2.72756e-07
1.74805e-07
0
0
0
0
0
0
0
0
0
0
0
0
0
0
0
0
0
0
0
0
0
0
0
0
0
0
0
0
9.87369e-06
1.51307e-05
1.51108e-05
1.23611e-05
7.85744e-06
4.59375e-06
2.48103e-06
1.28752e-06
7.42978e-07
5.65044e-07
5.32239e-07
5.47655e-07
5.81798e-07
6.31406e-07
1.00706e-06
2.41945e-06
3.79993e-06
0
0
0
0
0
0
0
0
0
1.27129e-06
2.1359e-05
5.5998e-05
0.000108036
0.000181485
0.00028695
0.00033377
0
0
0
0
0
7.9698e-06
1.43167e-05
1.24409e-05
8.46664e-06
5.42639e-06
3.17719e-06
1.46349e-06
1.71114e-07
0
0
0
0
0
0
8.18061e-09
1.36206e-07
2.54169e-07
8.57236e-08
0
0
0
0
0
0
0
8.17096e-07
1.94432e-06
2.4152e-06
2.9078e-06
3.52788e-06
3.58181e-06
2.35075e-06
9.38139e-07
1.83589e-07
0
0
1.98598e-08
3.43489e-07