/*--------------------------------*- C++ -*----------------------------------*\
  =========                 |
  \\      /  F ield         | OpenFOAM: The Open Source CFD Toolbox
   \\    /   O peration     | Website:  https://openfoam.org
    \\  /    A nd           | Version:  9
     \\/     M anipulation  |
\*---------------------------------------------------------------------------*/
FoamFile
{
    format      ascii;
    class       volScalarField;
    location    "0.095";
    object      p;
}
// * * * * * * * * * * * * * * * * * * * * * * * * * * * * * * * * * * * * * //

dimensions      [0 2 -2 0 0 0 0];

internalField   nonuniform List<scalar> 
12225
(
-441.794
-431.685
-423.444
-416.794
-411.081
-406.091
-401.703
-397.771
-394.154
-390.745
-387.463
-384.257
-381.098
-377.977
-374.876
-371.701
-368.353
-364.707
-441.52
-431.645
-423.392
-416.75
-411.06
-406.089
-401.71
-397.776
-394.152
-390.738
-387.461
-384.269
-381.13
-378.029
-374.94
-371.807
-368.547
-365.13
-440.928
-431.518
-423.281
-416.662
-410.984
-406.036
-401.68
-397.761
-394.146
-390.737
-387.468
-384.29
-381.178
-378.11
-375.068
-372.021
-368.9
-365.824
-441.708
-431.336
-423.065
-416.504
-410.889
-405.982
-401.647
-397.738
-394.124
-390.721
-387.469
-384.32
-381.244
-378.221
-375.236
-372.275
-369.322
-366.494
-442.796
-431.072
-422.783
-416.271
-410.702
-405.853
-401.565
-397.688
-394.102
-390.721
-387.49
-384.368
-381.328
-378.351
-375.429
-372.565
-369.766
-367.125
-442.117
-430.536
-422.372
-415.948
-410.49
-405.716
-401.471
-397.622
-394.057
-390.699
-387.499
-384.415
-381.423
-378.506
-375.66
-372.895
-370.23
-367.738
-440.258
-429.62
-421.825
-415.504
-410.147
-405.48
-401.315
-397.522
-394.009
-390.695
-387.533
-384.491
-381.546
-378.685
-375.91
-373.235
-370.684
-368.311
-439.692
-428.659
-421.049
-414.977
-409.792
-405.241
-401.148
-397.409
-393.935
-390.66
-387.544
-384.556
-381.673
-378.885
-376.193
-373.611
-371.159
-368.872
-436.529
-426.961
-420.041
-414.279
-409.283
-404.869
-400.89
-397.24
-393.845
-390.639
-387.584
-384.655
-381.833
-379.11
-376.492
-373.995
-371.633
-369.427
-430.407
-424.996
-418.837
-413.467
-408.709
-404.479
-400.631
-397.069
-393.741
-390.594
-387.599
-384.733
-381.978
-379.329
-376.795
-374.386
-372.112
-369.979
-426.134
-422.92
-417.441
-412.526
-408.01
-403.953
-400.267
-396.833
-393.603
-390.545
-387.632
-384.844
-382.165
-379.593
-377.135
-374.8
-372.596
-370.523
-427.525
-421.254
-416.057
-411.5
-407.267
-403.444
-399.927
-396.613
-393.474
-390.492
-387.647
-384.926
-382.318
-379.818
-377.433
-375.17
-373.031
-371.018
-424.949
-419.335
-414.616
-410.385
-406.454
-402.86
-399.509
-396.328
-393.304
-390.423
-387.671
-385.032
-382.5
-380.075
-377.763
-375.568
-373.493
-371.536
-421.945
-416.94
-412.74
-408.946
-405.397
-402.116
-399.009
-396.008
-393.119
-390.346
-387.685
-385.132
-382.686
-380.345
-378.114
-375.997
-373.996
-372.108
-419.804
-413.757
-410.302
-407.189
-404.136
-401.225
-398.382
-395.582
-392.863
-390.243
-387.716
-385.283
-382.945
-380.704
-378.567
-376.537
-374.614
-372.794
-413.275
-409.706
-407.224
-405.009
-402.584
-400.136
-397.639
-395.104
-392.593
-390.137
-387.745
-385.431
-383.204
-381.069
-379.031
-377.094
-375.259
-373.524
-396.293
-402.469
-403.478
-402.526
-400.924
-399.047
-396.903
-394.644
-392.343
-390.076
-387.846
-385.673
-383.574
-381.557
-379.626
-377.783
-376.031
-374.371
-402.715
-401.432
-401.032
-400.52
-399.435
-397.941
-396.121
-394.134
-392.123
-390.057
-387.977
-385.934
-383.956
-382.052
-380.226
-378.482
-376.824
-375.251
-382.622
-393.036
-398.11
-399.352
-399.034
-397.876
-396.2
-394.317
-392.37
-390.388
-388.405
-386.457
-384.567
-382.748
-381.006
-379.342
-377.756
-376.248
-409.158
-404.916
-403.065
-401.634
-400.18
-398.596
-396.758
-394.799
-392.819
-390.835
-388.871
-386.948
-385.083
-383.295
-381.595
-379.981
-378.447
-376.991
-405.047
-407.349
-406.465
-404.347
-402.311
-400.074
-397.831
-395.63
-393.501
-391.423
-389.393
-387.431
-385.557
-383.778
-382.093
-380.496
-378.982
-377.55
-413.441
-410.973
-408.539
-406.159
-403.59
-401.144
-398.686
-396.312
-394.06
-391.898
-389.814
-387.828
-385.945
-384.157
-382.459
-380.851
-379.331
-377.894
-416.115
-414.9
-411.652
-408.307
-405.155
-402.236
-399.499
-396.942
-394.557
-392.305
-390.164
-388.143
-386.242
-384.444
-382.741
-381.133
-379.619
-378.198
-426.451
-419.652
-414.288
-410.036
-406.376
-403.11
-400.159
-397.455
-394.959
-392.628
-390.438
-388.382
-386.451
-384.635
-382.923
-381.313
-379.799
-378.373
-434.118
-423.184
-416.255
-411.391
-407.331
-403.785
-400.657
-397.836
-395.252
-392.865
-390.637
-388.554
-386.605
-384.777
-383.059
-381.448
-379.934
-378.512
-435.854
-425.029
-417.6
-412.323
-407.986
-404.261
-401.015
-398.109
-395.463
-393.032
-390.778
-388.676
-386.714
-384.878
-383.157
-381.549
-380.037
-378.617
-437.579
-426.257
-418.494
-412.933
-408.416
-404.575
-401.251
-398.293
-395.609
-393.149
-390.873
-388.756
-386.783
-384.939
-383.213
-381.593
-380.077
-378.662
-437.066
-426.511
-418.873
-413.293
-408.685
-404.775
-401.402
-398.408
-395.701
-393.224
-390.934
-388.804
-386.823
-384.975
-383.247
-381.629
-380.124
-378.714
-435.772
-426.63
-419.097
-413.494
-408.823
-404.876
-401.483
-398.472
-395.75
-393.262
-390.964
-388.834
-386.849
-384.995
-383.259
-381.631
-380.116
-378.707
-433.64
-426.406
-419.182
-413.565
-408.878
-404.924
-401.527
-398.51
-395.781
-393.284
-390.975
-388.832
-386.84
-384.985
-383.251
-381.634
-380.133
-378.733
-345.253
-345.277
-345.31
-345.347
-345.369
-345.381
-345.396
-345.432
-345.518
-345.686
-345.957
-346.332
-346.807
-347.357
-347.948
-348.544
-349.107
-349.603
-350.001
-350.277
-350.414
-350.398
-350.225
-349.89
-349.403
-348.789
-348.081
-347.317
-346.529
-345.738
-344.936
-344.122
-343.302
-342.496
-341.828
-341.274
-340.824
-340.838
-340.845
-340.421
-340.52
-340.964
-341.241
-341.206
-340.92
-340.978
-341.698
-342.637
-343.701
-344.861
-346.145
-347.51
-348.701
-349.28
-348.945
-347.939
-347.459
-348.458
-350.48
-352.306
-353.344
-353.353
-352.693
-351.474
-349.767
-347.665
-345.243
-342.565
-339.69
-336.664
-333.533
-330.336
-327.104
-323.864
-320.637
-317.436
-314.267
-311.126
-308.009
-304.916
-301.844
-298.785
-295.733
-292.683
-289.632
-286.571
-283.502
-280.43
-277.358
-274.294
-271.247
-268.227
-265.256
-262.351
-259.532
-256.821
-254.237
-251.779
-249.437
-247.179
-244.966
-242.778
-240.501
-238.101
-236.13
-234.923
-234.124
-233.414
-232.722
-231.993
-230.732
-229.263
-228.131
-227.505
-228.562
-231.423
-234.987
-238.786
-242.58
-246.231
-249.611
-252.576
-254.96
-256.59
-257.299
-256.946
-255.429
-252.724
-248.873
-244.014
-238.349
-232.124
-225.599
-219.027
-212.627
-206.56
-200.926
-195.784
-191.148
-186.99
-183.431
-180.12
-177.135
-174.395
-171.836
-169.411
-167.085
-164.832
-162.638
-160.497
-158.407
-156.372
-154.399
-152.505
-150.715
-149.062
-147.585
-146.314
-145.265
-144.432
-143.761
-143.171
-142.542
-141.73
-140.535
-138.717
-136.417
-133.082
-128.749
-128.277
-133.034
-135.701
-135.367
-133.491
-129.604
-124.363
-118.923
-114.093
-110.066
-106.797
-345.282
-345.294
-345.322
-345.353
-345.39
-345.443
-345.52
-345.636
-345.816
-346.082
-346.444
-346.897
-347.424
-348
-348.596
-349.181
-349.724
-350.198
-350.579
-350.848
-350.993
-351.001
-350.849
-350.53
-350.05
-349.424
-348.678
-347.838
-346.925
-345.963
-344.974
-343.989
-343.06
-342.212
-341.514
-340.98
-340.525
-340.432
-340.914
-341.19
-340.586
-340.588
-341.791
-342.193
-341.853
-341.863
-342.424
-343.205
-344.023
-344.862
-345.849
-347.144
-348.832
-350.771
-352.347
-352.959
-352.912
-353.563
-354.968
-355.873
-355.539
-354.899
-353.85
-352.351
-350.472
-348.255
-345.747
-343.001
-340.065
-336.987
-333.81
-330.571
-327.304
-324.032
-320.776
-317.548
-314.355
-311.195
-308.064
-304.958
-301.877
-298.813
-295.758
-292.708
-289.659
-286.602
-283.536
-280.467
-277.399
-274.338
-271.296
-268.281
-265.308
-262.397
-259.562
-256.824
-254.207
-251.732
-249.407
-247.202
-245.062
-242.987
-240.843
-238.578
-236.528
-235.245
-234.288
-233.527
-232.852
-232.13
-230.918
-229.312
-228.09
-227.971
-229.587
-232.542
-235.978
-239.602
-243.264
-246.845
-250.207
-253.183
-255.593
-257.249
-257.973
-257.618
-256.095
-253.35
-249.458
-244.553
-238.836
-232.553
-225.969
-219.34
-212.886
-206.77
-201.097
-195.925
-191.265
-187.103
-183.466
-180.158
-177.163
-174.413
-171.849
-169.421
-167.094
-164.842
-162.65
-160.512
-158.426
-156.394
-154.425
-152.536
-150.75
-149.103
-147.633
-146.368
-145.326
-144.504
-143.843
-143.266
-142.661
-141.87
-140.773
-139.07
-136.928
-134.327
-130.419
-130.38
-134.349
-135.788
-135.501
-133.962
-130.046
-124.529
-118.916
-114.004
-109.951
-106.706
-345.138
-345.118
-345.079
-345.097
-345.19
-345.367
-345.632
-345.981
-346.407
-346.902
-347.457
-348.061
-348.698
-349.343
-349.973
-350.566
-351.101
-351.56
-351.926
-352.183
-352.319
-352.316
-352.159
-351.83
-351.321
-350.638
-349.797
-348.813
-347.702
-346.489
-345.2
-343.899
-342.677
-341.609
-340.736
-340.075
-339.716
-339.41
-338.712
-339.685
-340.447
-340.733
-341.272
-341.957
-342.628
-343.371
-344.258
-345.242
-346.265
-347.377
-348.723
-350.354
-352.109
-353.826
-355.463
-356.817
-357.668
-358.15
-358.378
-358.142
-357.678
-356.817
-355.533
-353.83
-351.75
-349.349
-346.679
-343.792
-340.736
-337.557
-334.296
-330.987
-327.66
-324.334
-321.028
-317.753
-314.517
-311.322
-308.167
-305.045
-301.954
-298.886
-295.831
-292.784
-289.74
-286.691
-283.632
-280.568
-277.504
-274.446
-271.404
-268.389
-265.413
-262.493
-259.641
-256.879
-254.231
-251.723
-249.377
-247.188
-245.126
-243.243
-241.378
-239.294
-237.13
-235.573
-234.391
-233.543
-233.042
-232.448
-231.23
-229.921
-228.865
-229.711
-231.679
-234.262
-237.304
-240.663
-244.202
-247.747
-251.126
-254.152
-256.627
-258.35
-259.13
-258.808
-257.285
-254.526
-250.59
-245.611
-239.796
-233.401
-226.699
-219.956
-213.397
-207.189
-201.439
-196.205
-191.496
-187.296
-183.597
-180.263
-177.244
-174.476
-171.897
-169.459
-167.125
-164.87
-162.678
-160.542
-158.46
-156.435
-154.474
-152.594
-150.821
-149.188
-147.733
-146.486
-145.465
-144.663
-144.03
-143.487
-142.922
-142.186
-141.162
-139.63
-137.663
-135.435
-132.655
-132.158
-134.487
-136.013
-135.949
-133.906
-129.851
-124.439
-118.838
-113.932
-109.909
-106.661
-345.2
-345.151
-345.093
-345.146
-345.36
-345.752
-346.29
-346.926
-347.617
-348.337
-349.063
-349.774
-350.456
-351.101
-351.7
-352.247
-352.735
-353.154
-353.502
-353.77
-353.934
-353.975
-353.891
-353.642
-353.182
-352.492
-351.574
-350.424
-349.066
-347.562
-345.965
-344.323
-342.708
-341.304
-340.212
-339.285
-338.354
-338.54
-338.842
-339.258
-340.037
-340.947
-341.932
-343.002
-344.189
-345.462
-346.799
-348.184
-349.625
-351.173
-352.929
-354.922
-356.986
-358.832
-360.262
-361.224
-361.767
-361.986
-361.896
-361.456
-360.656
-359.424
-357.823
-355.851
-353.528
-350.893
-348
-344.909
-341.676
-338.346
-334.959
-331.547
-328.134
-324.739
-321.375
-318.051
-314.774
-311.547
-308.369
-305.235
-302.136
-299.063
-296.005
-292.956
-289.907
-286.855
-283.795
-280.728
-277.658
-274.593
-271.544
-268.524
-265.544
-262.615
-259.751
-256.974
-254.31
-251.771
-249.378
-247.154
-245.11
-243.291
-241.655
-239.82
-237.751
-235.984
-234.77
-234.218
-234.059
-233.464
-232.083
-230.821
-230.609
-231.635
-233.437
-235.744
-238.58
-241.84
-245.37
-248.976
-252.457
-255.609
-258.214
-260.057
-260.929
-260.656
-259.124
-256.347
-252.336
-247.233
-241.258
-234.68
-227.789
-220.862
-214.134
-207.78
-201.911
-196.584
-191.801
-187.542
-183.781
-180.407
-177.358
-174.567
-171.972
-169.522
-167.179
-164.917
-162.724
-160.59
-158.515
-156.499
-154.553
-152.69
-150.938
-149.328
-147.9
-146.685
-145.697
-144.933
-144.346
-143.853
-143.353
-142.691
-141.774
-140.417
-138.652
-136.758
-134.53
-133.574
-134.915
-135.957
-135.314
-133.069
-129.196
-123.987
-118.577
-113.797
-109.836
-106.562
-345.689
-345.595
-345.584
-345.783
-346.239
-346.905
-347.689
-348.512
-349.326
-350.101
-350.823
-351.49
-352.102
-352.668
-353.188
-353.664
-354.106
-354.513
-354.881
-355.217
-355.498
-355.672
-355.723
-355.609
-355.272
-354.668
-353.768
-352.549
-351.016
-349.236
-347.282
-345.232
-343.223
-341.415
-339.824
-338.629
-338.088
-338.177
-338.856
-339.795
-340.92
-342.182
-343.556
-345.02
-346.578
-348.215
-349.923
-351.704
-353.578
-355.56
-357.65
-359.783
-361.813
-363.547
-364.829
-365.616
-365.977
-366.015
-365.745
-365.108
-364.061
-362.646
-360.788
-358.5
-355.845
-352.889
-349.7
-346.343
-342.873
-339.338
-335.777
-332.221
-328.691
-325.203
-321.768
-318.393
-315.082
-311.833
-308.645
-305.509
-302.413
-299.344
-296.292
-293.248
-290.202
-287.146
-284.078
-280.997
-277.908
-274.823
-271.753
-268.712
-265.713
-262.768
-259.889
-257.095
-254.416
-251.866
-249.447
-247.175
-245.065
-243.183
-241.614
-239.998
-238.173
-236.449
-235.351
-234.984
-234.865
-234.097
-232.669
-231.868
-232.1
-233.157
-234.767
-237.014
-239.871
-243.229
-246.896
-250.673
-254.342
-257.686
-260.475
-262.475
-263.466
-263.264
-261.756
-258.888
-254.73
-249.431
-243.219
-236.379
-229.219
-222.034
-215.072
-208.518
-202.486
-197.035
-192.157
-187.824
-183.992
-180.57
-177.488
-174.674
-172.065
-169.606
-167.258
-164.994
-162.801
-160.674
-158.611
-156.612
-154.686
-152.847
-151.123
-149.546
-148.153
-146.979
-146.038
-145.326
-144.8
-144.381
-143.968
-143.418
-142.622
-141.445
-139.892
-138.215
-136.286
-135.088
-135.605
-135.925
-134.768
-132.203
-128.286
-123.327
-118.187
-113.585
-109.739
-106.524
-345.99
-346.052
-346.289
-346.821
-347.578
-348.445
-349.331
-350.179
-350.957
-351.655
-352.275
-352.829
-353.333
-353.8
-354.238
-354.661
-355.105
-355.571
-356.033
-356.488
-356.946
-357.391
-357.747
-357.944
-357.866
-357.449
-356.648
-355.416
-353.744
-351.698
-349.394
-346.963
-344.564
-342.368
-340.631
-339.6
-339.323
-339.714
-340.576
-341.711
-343.015
-344.454
-346.029
-347.734
-349.559
-351.489
-353.516
-355.636
-357.841
-360.107
-362.374
-364.544
-366.495
-368.125
-369.38
-370.252
-370.754
-370.87
-370.551
-369.757
-368.466
-366.658
-364.366
-361.654
-358.591
-355.25
-351.706
-348.027
-344.272
-340.49
-336.721
-332.991
-329.321
-325.724
-322.208
-318.777
-315.43
-312.163
-308.971
-305.844
-302.768
-299.728
-296.706
-293.688
-290.66
-287.612
-284.538
-281.441
-278.329
-275.214
-272.108
-269.028
-265.99
-263.01
-260.097
-257.27
-254.551
-251.972
-249.532
-247.229
-245.073
-243.083
-241.394
-239.843
-238.178
-236.551
-235.48
-235.08
-234.719
-233.758
-232.728
-232.571
-233.102
-234.198
-235.843
-238.241
-241.304
-244.902
-248.822
-252.857
-256.78
-260.364
-263.369
-265.544
-266.653
-266.506
-264.976
-262.01
-257.683
-252.148
-245.642
-238.47
-230.966
-223.45
-216.19
-209.381
-203.147
-197.552
-192.561
-188.147
-184.237
-180.76
-177.64
-174.804
-172.184
-169.721
-167.373
-165.113
-162.929
-160.815
-158.769
-156.792
-154.889
-153.076
-151.382
-149.839
-148.485
-147.355
-146.467
-145.817
-145.369
-145.043
-144.74
-144.325
-143.678
-142.683
-141.312
-139.778
-138.055
-136.714
-136.464
-136.076
-134.465
-131.58
-127.607
-122.814
-117.852
-113.387
-109.63
-106.44
-346.075
-346.429
-347.121
-347.995
-348.943
-349.878
-350.741
-351.497
-352.137
-352.673
-353.128
-353.535
-353.916
-354.288
-354.666
-355.089
-355.598
-356.213
-356.931
-357.731
-358.573
-359.417
-360.205
-360.842
-361.195
-361.118
-360.529
-359.352
-357.557
-355.246
-352.601
-349.828
-347.137
-344.886
-343.355
-342.541
-342.418
-342.849
-343.653
-344.723
-345.996
-347.445
-349.072
-350.881
-352.867
-355.018
-357.313
-359.73
-362.23
-364.754
-367.222
-369.543
-371.629
-373.408
-374.826
-375.838
-376.396
-376.456
-375.97
-374.905
-373.245
-371.021
-368.285
-365.113
-361.594
-357.817
-353.869
-349.827
-345.756
-341.706
-337.713
-333.803
-329.989
-326.281
-322.681
-319.188
-315.802
-312.516
-309.323
-306.209
-303.16
-300.155
-297.175
-294.199
-291.209
-288.188
-285.128
-282.028
-278.898
-275.751
-272.605
-269.48
-266.397
-263.373
-260.419
-257.552
-254.776
-252.127
-249.635
-247.294
-245.1
-243.027
-241.152
-239.511
-237.863
-236.253
-235.07
-234.376
-233.663
-232.579
-232.209
-232.772
-233.636
-234.867
-236.782
-239.496
-242.914
-246.862
-251.119
-255.47
-259.691
-263.548
-266.792
-269.166
-270.42
-270.338
-268.785
-265.745
-261.254
-255.463
-248.618
-241.045
-233.112
-225.177
-217.54
-210.413
-203.924
-198.174
-193.052
-188.535
-184.549
-181.016
-177.859
-175.001
-172.371
-169.908
-167.564
-165.311
-163.137
-161.037
-159.007
-157.048
-155.163
-153.37
-151.698
-150.182
-148.861
-147.775
-146.944
-146.367
-146.012
-145.802
-145.634
-145.376
-144.898
-144.091
-142.894
-141.467
-139.859
-138.365
-137.464
-136.441
-134.398
-131.227
-127.167
-122.475
-117.649
-113.247
-109.513
-106.346
-346.782
-347.325
-348.226
-349.179
-350.085
-350.891
-351.566
-352.113
-352.548
-352.897
-353.188
-353.463
-353.743
-354.078
-354.495
-355.022
-355.693
-356.517
-357.498
-358.649
-359.949
-361.336
-362.682
-363.823
-364.598
-364.827
-364.411
-363.293
-361.479
-359.09
-356.298
-353.44
-350.84
-348.718
-347.213
-346.382
-346.178
-346.471
-347.138
-348.093
-349.292
-350.718
-352.371
-354.252
-356.36
-358.687
-361.217
-363.917
-366.728
-369.567
-372.342
-374.955
-377.323
-379.366
-381.009
-382.174
-382.783
-382.765
-382.058
-380.644
-378.576
-375.902
-372.671
-368.974
-364.921
-360.629
-356.206
-351.745
-347.316
-342.969
-338.738
-334.641
-330.685
-326.87
-323.191
-319.642
-316.217
-312.91
-309.714
-306.615
-303.595
-300.629
-297.693
-294.763
-291.814
-288.826
-285.784
-282.684
-279.536
-276.356
-273.169
-269.998
-266.871
-263.805
-260.807
-257.899
-255.081
-252.362
-249.787
-247.367
-245.113
-242.976
-240.929
-239.106
-237.378
-235.667
-234.24
-233.088
-231.936
-230.896
-231.323
-232.558
-233.774
-235.283
-237.633
-240.803
-244.689
-249.066
-253.718
-258.432
-262.994
-267.169
-270.704
-273.332
-274.788
-274.838
-273.322
-270.247
-265.612
-259.553
-252.321
-244.263
-235.793
-227.322
-219.202
-211.67
-204.842
-198.947
-193.645
-189.02
-184.962
-181.378
-178.185
-175.303
-172.66
-170.19
-167.844
-165.594
-163.426
-161.335
-159.314
-157.36
-155.48
-153.694
-152.034
-150.539
-149.25
-148.211
-147.448
-146.962
-146.723
-146.656
-146.651
-146.574
-146.282
-145.661
-144.641
-143.296
-141.706
-140.032
-138.601
-137.011
-134.559
-131.117
-126.94
-122.302
-117.572
-113.194
-109.441
-106.266
-347.964
-348.475
-349.19
-349.948
-350.63
-351.199
-351.649
-351.992
-352.249
-352.448
-352.629
-352.84
-353.109
-353.459
-353.912
-354.498
-355.268
-356.245
-357.426
-358.772
-360.244
-361.795
-363.335
-364.723
-365.741
-366.198
-365.968
-365.013
-363.37
-361.171
-358.629
-356.037
-353.67
-351.724
-350.342
-349.576
-349.372
-349.626
-350.249
-351.18
-352.39
-353.869
-355.607
-357.597
-359.839
-362.337
-365.088
-368.065
-371.211
-374.437
-377.636
-380.702
-383.529
-386.011
-388.031
-389.468
-390.204
-390.144
-389.239
-387.496
-384.955
-381.68
-377.779
-373.388
-368.656
-363.73
-358.738
-353.788
-348.953
-344.281
-339.797
-335.511
-331.42
-327.512
-323.771
-320.18
-316.725
-313.398
-310.192
-307.094
-304.085
-301.142
-298.237
-295.342
-292.427
-289.467
-286.441
-283.342
-280.174
-276.958
-273.721
-270.495
-267.318
-264.211
-261.18
-258.239
-255.395
-252.634
-249.979
-247.453
-245.094
-242.876
-240.699
-238.65
-236.804
-234.952
-233.222
-231.628
-230.041
-229.132
-230.253
-232.078
-233.611
-235.533
-238.412
-242.149
-246.586
-251.452
-256.543
-261.663
-266.615
-271.168
-275.06
-278.008
-279.732
-279.983
-278.58
-275.495
-270.731
-264.408
-256.765
-248.16
-239.047
-229.916
-221.192
-213.163
-205.973
-199.768
-194.309
-189.575
-185.45
-181.825
-178.602
-175.699
-173.038
-170.554
-168.198
-165.943
-163.774
-161.682
-159.657
-157.696
-155.809
-154.022
-152.37
-150.894
-149.641
-148.66
-147.982
-147.613
-147.522
-147.632
-147.824
-147.956
-147.873
-147.442
-146.576
-145.291
-143.658
-141.781
-139.887
-137.774
-134.93
-131.226
-126.912
-122.277
-117.602
-113.234
-109.433
-106.214
-348.582
-348.935
-349.411
-349.951
-350.403
-350.773
-351.057
-351.266
-351.423
-351.561
-351.713
-351.902
-352.15
-352.482
-352.934
-353.519
-354.244
-355.131
-356.198
-357.437
-358.817
-360.275
-361.696
-362.914
-363.802
-364.22
-364.054
-363.27
-361.915
-360.12
-358.082
-356.034
-354.199
-352.757
-351.81
-351.374
-351.395
-351.804
-352.549
-353.6
-354.944
-356.57
-358.462
-360.61
-363.027
-365.737
-368.759
-372.088
-375.679
-379.446
-383.27
-387.007
-390.496
-393.57
-396.055
-397.781
-398.607
-398.445
-397.263
-395.072
-391.918
-387.929
-383.261
-378.091
-372.604
-366.973
-361.35
-355.856
-350.572
-345.545
-340.794
-336.32
-332.109
-328.135
-324.365
-320.764
-317.307
-313.975
-310.761
-307.652
-304.633
-301.683
-298.775
-295.882
-292.978
-290.036
-287.031
-283.95
-280.788
-277.556
-274.28
-270.992
-267.743
-264.566
-261.489
-258.513
-255.643
-252.868
-250.172
-247.561
-245.061
-242.725
-240.443
-238.191
-236.195
-234.232
-232.25
-230.324
-228.326
-227.539
-229.13
-231.407
-233.279
-235.666
-239.117
-243.491
-248.532
-253.921
-259.474
-265.023
-270.4
-275.377
-279.675
-282.985
-285.011
-285.494
-284.26
-281.219
-276.375
-269.835
-261.811
-252.649
-242.832
-232.933
-223.483
-214.853
-207.222
-200.669
-195.016
-190.161
-185.967
-182.305
-179.062
-176.145
-173.47
-170.968
-168.597
-166.332
-164.157
-162.057
-160.018
-158.041
-156.142
-154.352
-152.708
-151.254
-150.045
-149.136
-148.566
-148.344
-148.437
-148.765
-149.196
-149.57
-149.715
-149.476
-148.742
-147.493
-145.78
-143.676
-141.347
-138.729
-135.493
-131.53
-127.066
-122.386
-117.73
-113.358
-109.493
-106.199
-348.506
-348.699
-348.987
-349.301
-349.576
-349.81
-350.009
-350.177
-350.32
-350.445
-350.575
-350.736
-350.945
-351.205
-351.532
-351.961
-352.518
-353.196
-353.983
-354.873
-355.833
-356.835
-357.763
-358.575
-359.152
-359.384
-359.203
-358.596
-357.615
-356.373
-355.034
-353.771
-352.739
-352.045
-351.733
-351.795
-352.195
-352.905
-353.909
-355.205
-356.787
-358.64
-360.748
-363.113
-365.768
-368.769
-372.167
-375.981
-380.177
-384.655
-389.256
-393.772
-397.966
-401.6
-404.462
-406.378
-407.218
-406.888
-405.365
-402.717
-399.019
-394.377
-388.971
-383.02
-376.753
-370.382
-364.085
-358.002
-352.225
-346.802
-341.75
-337.06
-332.71
-328.664
-324.875
-321.294
-317.873
-314.574
-311.377
-308.267
-305.234
-302.263
-299.339
-296.44
-293.545
-290.633
-287.679
-284.655
-281.538
-278.316
-275
-271.624
-268.261
-264.965
-261.788
-258.745
-255.824
-253.012
-250.29
-247.644
-245.048
-242.568
-240.201
-237.817
-235.624
-233.58
-231.46
-229.379
-227.038
-226.268
-228.034
-230.626
-232.851
-235.735
-239.723
-244.738
-250.39
-256.299
-262.309
-268.288
-274.102
-279.524
-284.248
-287.935
-290.27
-290.992
-289.931
-286.979
-282.134
-275.478
-267.181
-257.543
-247.042
-236.321
-226.047
-216.717
-208.568
-201.632
-195.75
-190.758
-186.488
-182.785
-179.524
-176.599
-173.916
-171.404
-169.021
-166.746
-164.56
-162.444
-160.387
-158.393
-156.484
-154.691
-153.056
-151.629
-150.472
-149.65
-149.212
-149.167
-149.483
-150.072
-150.788
-151.447
-151.852
-151.816
-151.201
-149.954
-148.12
-145.756
-143.001
-139.883
-136.236
-132.005
-127.376
-122.617
-117.947
-113.555
-109.615
-106.23
-347.978
-348.07
-348.226
-348.404
-348.572
-348.737
-348.895
-349.041
-349.167
-349.273
-349.372
-349.473
-349.584
-349.722
-349.905
-350.15
-350.459
-350.831
-351.259
-351.744
-352.251
-352.74
-353.214
-353.596
-353.82
-353.836
-353.623
-353.196
-352.605
-351.935
-351.293
-350.785
-350.497
-350.476
-350.734
-351.265
-352.055
-353.106
-354.428
-356.031
-357.909
-360.041
-362.416
-365.052
-368.012
-371.381
-375.243
-379.631
-384.506
-389.737
-395.107
-400.335
-405.129
-409.225
-412.412
-414.526
-415.445
-415.079
-413.382
-410.44
-406.272
-401.014
-394.881
-388.143
-381.085
-373.965
-366.983
-360.288
-353.981
-348.12
-342.728
-337.798
-333.298
-329.173
-325.357
-321.781
-318.384
-315.118
-311.96
-308.889
-305.883
-302.924
-299.997
-297.094
-294.213
-291.346
-288.479
-285.579
-282.589
-279.449
-276.119
-272.614
-269.014
-265.478
-262.103
-258.936
-255.959
-253.121
-250.371
-247.684
-245.036
-242.451
-240.009
-237.578
-235.212
-233.084
-230.939
-228.837
-226.371
-225.389
-227.063
-229.848
-232.423
-235.714
-240.185
-245.765
-251.989
-258.383
-264.823
-271.215
-277.462
-283.331
-288.485
-292.553
-295.195
-296.145
-295.236
-292.389
-287.595
-280.923
-272.498
-262.544
-251.477
-239.968
-228.825
-218.719
-209.995
-202.641
-196.506
-191.369
-187.015
-183.265
-179.979
-177.044
-174.357
-171.842
-169.454
-167.17
-164.97
-162.837
-160.763
-158.757
-156.839
-155.043
-153.417
-152.022
-150.926
-150.206
-149.916
-150.076
-150.653
-151.552
-152.609
-153.604
-154.31
-154.5
-153.997
-152.723
-150.726
-148.06
-144.868
-141.243
-137.158
-132.628
-127.814
-122.952
-118.239
-113.81
-109.794
-106.308
-347.348
-347.39
-347.467
-347.572
-347.687
-347.817
-347.95
-348.068
-348.153
-348.205
-348.231
-348.243
-348.249
-348.258
-348.281
-348.326
-348.397
-348.486
-348.584
-348.699
-348.846
-348.983
-349.085
-349.125
-349.085
-348.954
-348.737
-348.465
-348.188
-347.965
-347.857
-347.912
-348.162
-348.622
-349.298
-350.189
-351.305
-352.663
-354.291
-356.203
-358.387
-360.817
-363.481
-366.415
-369.702
-373.458
-377.787
-382.728
-388.227
-394.121
-400.138
-405.95
-411.237
-415.737
-419.249
-421.61
-422.683
-422.369
-420.614
-417.383
-412.776
-406.943
-400.139
-392.69
-384.939
-377.191
-369.661
-362.477
-355.723
-349.461
-343.726
-338.527
-333.848
-329.633
-325.794
-322.24
-318.887
-315.672
-312.562
-309.53
-306.557
-303.622
-300.702
-297.782
-294.87
-291.987
-289.154
-286.359
-283.538
-280.575
-277.357
-273.822
-270.034
-266.193
-262.509
-259.122
-256.051
-253.202
-250.452
-247.751
-245.085
-242.435
-239.916
-237.485
-235.057
-232.84
-230.724
-228.679
-226.419
-224.985
-226.315
-229.146
-232.011
-235.597
-240.439
-246.483
-253.17
-260.012
-266.853
-273.634
-280.295
-286.606
-292.192
-296.641
-299.581
-300.74
-299.954
-297.201
-292.471
-285.839
-277.403
-267.309
-255.858
-243.678
-231.695
-220.799
-211.439
-203.657
-197.263
-191.982
-187.55
-183.755
-180.442
-177.491
-174.798
-172.282
-169.892
-167.6
-165.387
-163.238
-161.153
-159.135
-157.205
-155.406
-153.794
-152.434
-151.404
-150.789
-150.666
-151.067
-151.964
-153.245
-154.718
-156.117
-157.165
-157.595
-157.191
-155.854
-153.637
-150.621
-146.965
-142.816
-138.259
-133.391
-128.364
-123.372
-118.59
-114.111
-110.019
-106.426
-346.877
-346.88
-346.905
-346.96
-347.041
-347.141
-347.24
-347.314
-347.343
-347.324
-347.271
-347.194
-347.098
-346.984
-346.862
-346.737
-346.602
-346.46
-346.329
-346.206
-346.092
-345.972
-345.821
-345.63
-345.406
-345.175
-344.966
-344.809
-344.74
-344.793
-345.003
-345.391
-345.965
-346.726
-347.676
-348.823
-350.187
-351.797
-353.686
-355.869
-358.33
-361.038
-363.979
-367.192
-370.773
-374.855
-379.554
-384.91
-390.864
-397.23
-403.71
-409.947
-415.605
-420.414
-424.176
-426.724
-427.902
-427.596
-425.743
-422.317
-417.405
-411.173
-403.894
-395.935
-387.692
-379.513
-371.64
-364.177
-357.166
-350.65
-344.661
-339.218
-334.355
-330.046
-326.213
-322.714
-319.415
-316.243
-313.171
-310.187
-307.26
-304.346
-301.399
-298.404
-295.375
-292.359
-289.42
-286.602
-283.869
-281.091
-278.088
-274.719
-270.977
-267.019
-263.1
-259.454
-256.211
-253.334
-250.62
-247.902
-245.206
-242.564
-240.014
-237.582
-235.174
-232.919
-230.841
-228.901
-227.078
-225.169
-225.919
-228.562
-231.607
-235.377
-240.433
-246.787
-253.856
-261.097
-268.309
-275.457
-282.507
-289.238
-295.237
-300.052
-303.271
-304.613
-303.945
-301.255
-296.578
-290.006
-281.634
-271.542
-259.902
-247.219
-234.48
-222.835
-212.844
-204.63
-197.978
-192.565
-188.071
-184.244
-180.91
-177.945
-175.244
-172.726
-170.334
-168.035
-165.81
-163.65
-161.553
-159.52
-157.577
-155.779
-154.188
-152.863
-151.89
-151.389
-151.467
-152.178
-153.495
-155.278
-157.283
-159.185
-160.627
-161.298
-160.946
-159.477
-156.932
-153.474
-149.303
-144.603
-139.54
-134.289
-129.01
-123.86
-118.984
-114.446
-110.278
-106.576
-346.741
-346.719
-346.706
-346.717
-346.752
-346.804
-346.848
-346.858
-346.814
-346.715
-346.578
-346.414
-346.221
-345.999
-345.755
-345.496
-345.227
-344.943
-344.653
-344.361
-344.07
-343.776
-343.469
-343.144
-342.812
-342.5
-342.252
-342.115
-342.125
-342.308
-342.678
-343.237
-343.986
-344.919
-346.038
-347.355
-348.893
-350.689
-352.776
-355.17
-357.855
-360.796
-363.969
-367.405
-371.194
-375.473
-380.367
-385.919
-392.078
-398.659
-405.358
-411.816
-417.684
-422.678
-426.581
-429.221
-430.451
-430.173
-428.282
-424.774
-419.757
-413.372
-405.884
-397.692
-389.224
-380.851
-372.828
-365.263
-358.164
-351.544
-345.425
-339.822
-334.773
-330.343
-326.51
-323.114
-319.956
-316.906
-313.916
-310.979
-308.074
-305.15
-302.148
-299.033
-295.822
-292.589
-289.448
-286.492
-283.717
-281
-278.141
-274.954
-271.374
-267.53
-263.654
-259.956
-256.599
-253.63
-250.91
-248.209
-245.484
-242.829
-240.301
-237.914
-235.567
-233.334
-231.299
-229.488
-227.921
-226.037
-226.04
-228.161
-231.195
-235.048
-240.154
-246.631
-253.973
-261.556
-269.106
-276.588
-283.994
-291.097
-297.448
-302.545
-305.977
-307.471
-306.941
-304.311
-299.709
-293.238
-284.989
-275.013
-263.364
-250.363
-237.013
-224.697
-214.123
-205.502
-198.61
-193.08
-188.541
-184.698
-181.357
-178.387
-175.684
-173.164
-170.77
-168.465
-166.231
-164.063
-161.953
-159.904
-157.955
-156.17
-154.598
-153.294
-152.374
-152.014
-152.369
-153.505
-155.381
-157.81
-160.479
-162.998
-164.92
-165.863
-165.528
-163.801
-160.766
-156.708
-151.912
-146.604
-140.995
-135.316
-129.743
-124.402
-119.409
-114.799
-110.555
-106.748
-346.971
-346.938
-346.899
-346.867
-346.846
-346.826
-346.791
-346.716
-346.582
-346.392
-346.163
-345.908
-345.625
-345.314
-344.983
-344.641
-344.284
-343.911
-343.527
-343.134
-342.73
-342.313
-341.88
-341.436
-341.001
-340.606
-340.29
-340.102
-340.087
-340.278
-340.69
-341.322
-342.165
-343.207
-344.443
-345.884
-347.552
-349.482
-351.706
-354.242
-357.078
-360.19
-363.526
-367.107
-370.999
-375.32
-380.196
-385.68
-391.744
-398.227
-404.852
-411.279
-417.161
-422.194
-426.137
-428.808
-430.062
-429.806
-427.981