/*--------------------------------*- C++ -*----------------------------------*\
  =========                 |
  \\      /  F ield         | OpenFOAM: The Open Source CFD Toolbox
   \\    /   O peration     | Website:  https://openfoam.org
    \\  /    A nd           | Version:  9
     \\/     M anipulation  |
\*---------------------------------------------------------------------------*/
FoamFile
{
    format      ascii;
    class       surfaceScalarField;
    location    "0.095";
    object      phi;
}
// * * * * * * * * * * * * * * * * * * * * * * * * * * * * * * * * * * * * * //

dimensions      [0 3 -1 0 0 0 0];

internalField   nonuniform List<scalar> 
24170
(
3.02886e-06
3.69659e-08
2.95322e-06
7.56458e-08
2.85546e-06
9.7757e-08
2.76741e-06
8.80471e-08
2.69022e-06
7.71991e-08
2.60886e-06
8.13564e-08
2.51682e-06
9.20432e-08
2.41842e-06
9.83976e-08
2.32299e-06
9.54241e-08
2.23914e-06
8.38565e-08
2.16749e-06
7.16521e-08
2.10261e-06
6.48717e-08
2.0369e-06
6.57113e-08
1.96159e-06
7.53125e-08
1.87853e-06
8.3064e-08
1.78088e-06
9.76459e-08
1.66261e-06
1.18266e-07
1.36536e-07
1.52608e-06
3.40011e-06
3.56295e-08
3.40427e-06
7.14824e-08
3.42344e-06
7.85908e-08
3.43093e-06
8.05523e-08
3.42551e-06
8.2625e-08
3.4149e-06
9.19663e-08
3.40192e-06
1.05017e-07
3.38831e-06
1.12008e-07
3.37723e-06
1.06511e-07
3.3714e-06
8.96867e-08
3.36988e-06
7.31657e-08
3.36684e-06
6.79088e-08
3.35618e-06
7.63752e-08
3.33118e-06
1.00316e-07
3.28998e-06
1.24261e-07
3.23693e-06
1.50699e-07
3.16817e-06
1.8702e-07
2.07525e-07
3.09718e-06
3.60354e-06
9.32598e-08
3.62408e-06
5.09368e-08
3.66016e-06
4.25155e-08
3.67414e-06
6.65706e-08
3.66709e-06
8.96807e-08
3.65503e-06
1.04017e-07
3.64942e-06
1.10632e-07
3.65093e-06
1.10494e-07
3.65335e-06
1.04097e-07
3.65085e-06
9.21888e-08
3.64381e-06
8.02024e-08
3.63641e-06
7.53085e-08
3.63253e-06
8.02576e-08
3.63369e-06
9.91512e-08
3.6345e-06
1.23456e-07
3.63307e-06
1.52125e-07
3.63343e-06
1.86659e-07
2.11705e-07
3.62925e-06
3.93433e-06
1.80381e-08
3.96507e-06
2.0197e-08
3.96127e-06
4.63146e-08
3.96701e-06
6.0832e-08
3.98471e-06
7.19739e-08
4.0019e-06
8.68328e-08
4.00621e-06
1.06319e-07
3.99383e-06
1.22872e-07
3.96805e-06
1.29873e-07
3.93562e-06
1.24626e-07
3.90471e-06
1.11106e-07
3.88189e-06
9.81298e-08
3.87056e-06
9.15897e-08
3.87216e-06
9.75532e-08
3.88218e-06
1.13433e-07
3.89758e-06
1.36725e-07
3.91679e-06
1.6745e-07
1.95932e-07
3.93256e-06
4.11852e-06
-4.37338e-08
4.18029e-06
-4.1573e-08
4.22058e-06
6.02588e-09
4.23879e-06
4.26163e-08
4.22354e-06
8.72236e-08
4.19102e-06
1.1936e-07
4.16729e-06
1.30042e-07
4.16388e-06
1.26286e-07
4.17623e-06
1.17525e-07
4.19309e-06
1.07765e-07
4.20558e-06
9.86165e-08
4.21054e-06
9.31657e-08
4.20931e-06
9.28243e-08
4.20684e-06
1.00023e-07
4.20631e-06
1.13959e-07
4.20981e-06
1.3323e-07
4.21879e-06
1.58471e-07
1.83496e-07
4.23122e-06
4.49149e-06
-1.08097e-08
4.48638e-06
-3.64622e-08
4.50356e-06
-1.11576e-08
4.5182e-06
2.79812e-08
4.51529e-06
9.01364e-08
4.49532e-06
1.39325e-07
4.47397e-06
1.51396e-07
4.46446e-06
1.35797e-07
4.46697e-06
1.15007e-07
4.47298e-06
1.01759e-07
4.47474e-06
9.68599e-08
4.47018e-06
9.77177e-08
4.46177e-06
1.01239e-07
4.4545e-06
1.07295e-07
4.45186e-06
1.16591e-07
4.45498e-06
1.30114e-07
4.46454e-06
1.48909e-07
1.6961e-07
4.47843e-06
4.87862e-06
3.48708e-08
4.88412e-06
-4.19646e-08
4.9169e-06
-4.3937e-08
4.89649e-06
4.83916e-08
4.85345e-06
1.33181e-07
4.83165e-06
1.6112e-07
4.84206e-06
1.4099e-07
4.86994e-06
1.07919e-07
4.89652e-06
8.84188e-08
4.91117e-06
8.71083e-08
4.9117e-06
9.63321e-08
4.90027e-06
1.09149e-07
4.87944e-06
1.22066e-07
4.85136e-06
1.35379e-07
4.81897e-06
1.48983e-07
4.78652e-06
1.62557e-07
4.75935e-06
1.7608e-07
1.87619e-07
4.74134e-06
5.23626e-06
2.16413e-08
5.21261e-06
-1.83151e-08
5.20996e-06
-4.12808e-08
5.22421e-06
3.41378e-08
5.24743e-06
1.09965e-07
5.27423e-06
1.34322e-07
5.28867e-06
1.26547e-07
5.27939e-06
1.17199e-07
5.25029e-06
1.17517e-07
5.21565e-06
1.21745e-07
5.19039e-06
1.21594e-07
5.18229e-06
1.17251e-07
5.1893e-06
1.15053e-07
5.2028e-06
1.21884e-07
5.21163e-06
1.40154e-07
5.20928e-06
1.64905e-07
5.19358e-06
1.91773e-07
2.12124e-07
5.16908e-06
5.55358e-06
1.52725e-08
5.50215e-06
3.31168e-08
5.45607e-06
4.7994e-09
5.44411e-06
4.60967e-08
5.46751e-06
8.65712e-08
5.49739e-06
1.04441e-07
5.51031e-06
1.13621e-07
5.50181e-06
1.25701e-07
5.47918e-06
1.40146e-07
5.4538e-06
1.47131e-07
5.43593e-06
1.39464e-07
5.43258e-06
1.20596e-07
5.44546e-06
1.02171e-07
5.47235e-06
9.49989e-08
5.50717e-06
1.05331e-07
5.54302e-06
1.29054e-07
5.5739e-06
1.60891e-07
1.91298e-07
5.59473e-06
5.85652e-06
5.02526e-08
5.93024e-06
-4.05954e-08
5.97308e-06
-3.80445e-08
5.98259e-06
3.65834e-08
5.98531e-06
8.38539e-08
5.9838e-06
1.05954e-07
5.9788e-06
1.18615e-07
5.97853e-06
1.25975e-07
5.98883e-06
1.29849e-07
6.00423e-06
1.31729e-07
6.0129e-06
1.30791e-07
6.00672e-06
1.2678e-07
5.98646e-06
1.22427e-07
5.95959e-06
1.21874e-07
5.93637e-06
1.2855e-07
5.922e-06
1.43419e-07
5.91887e-06
1.6402e-07
1.87478e-07
5.92269e-06
6.36733e-06
6.54265e-08
6.41071e-06
-8.3979e-08
6.42243e-06
-4.97669e-08
6.39957e-06
5.9445e-08
6.35084e-06
1.32588e-07
6.30689e-06
1.499e-07
6.29084e-06
1.34665e-07
6.30724e-06
1.09573e-07
6.34654e-06
9.05514e-08
6.39147e-06
8.68059e-08
6.42432e-06
9.79404e-08
6.43366e-06
1.17434e-07
6.41768e-06
1.38412e-07
6.38311e-06
1.56443e-07
6.34143e-06
1.70229e-07
6.30337e-06
1.81483e-07
6.27672e-06
1.90663e-07
2.00922e-07
6.26328e-06
5.83564e-06
-1.79549e-07
5.84959e-06
-9.79324e-08
5.75196e-06
4.78621e-08
5.68043e-06
1.30971e-07
5.66694e-06
1.46079e-07
5.68697e-06
1.29876e-07
5.71206e-06
1.09571e-07
5.72668e-06
9.49522e-08
5.72785e-06
8.93871e-08
5.71969e-06
9.49604e-08
5.70684e-06
1.10797e-07
5.69272e-06
1.31549e-07
5.67961e-06
1.51523e-07
5.67016e-06
1.65887e-07
5.66633e-06
1.74068e-07
5.66975e-06
1.7806e-07
5.68032e-06
1.80092e-07
1.84596e-07
5.69665e-06
6.90914e-06
-2.14187e-07
6.95467e-06
-1.43466e-07
6.9527e-06
4.98345e-08
6.92914e-06
1.54525e-07
6.9258e-06
1.49425e-07
6.94331e-06
1.12368e-07
6.96241e-06
9.04633e-08
6.96636e-06
9.10033e-08
6.95094e-06
1.04806e-07
6.92465e-06
1.21256e-07
6.90225e-06
1.3319e-07
6.89557e-06
1.38239e-07
6.90841e-06
1.38679e-07
6.93615e-06
1.38148e-07
6.97035e-06
1.39862e-07
7.00256e-06
1.4585e-07
7.02683e-06
1.55831e-07
1.69562e-07
7.04186e-06
8.48612e-06
-9.06826e-08
8.45659e-06
-1.13938e-07
8.4935e-06
1.29254e-08
8.51999e-06
1.28032e-07
8.51908e-06
1.50333e-07
8.50596e-06
1.25496e-07
8.49284e-06
1.03574e-07
8.48027e-06
1.03577e-07
8.46488e-06
1.20193e-07
8.44982e-06
1.36316e-07
8.44213e-06
1.40888e-07
8.44628e-06
1.34085e-07
8.46184e-06
1.23116e-07
8.484e-06
1.15985e-07
8.50656e-06
1.17302e-07
8.52498e-06
1.27431e-07
8.53644e-06
1.44378e-07
1.64196e-07
8.5418e-06
1.03047e-05
-1.71017e-07
1.0308e-05
-1.17223e-07
1.02871e-05
3.38934e-08
1.02947e-05
1.20362e-07
1.03102e-05
1.34824e-07
1.03126e-05
1.23099e-07
1.03068e-05
1.09433e-07
1.03086e-05
1.01712e-07
1.03253e-05
1.03487e-07
1.03519e-05
1.09712e-07
1.03789e-05
1.13966e-07
1.03997e-05
1.13295e-07
1.04141e-05
1.08717e-07
1.04261e-05
1.03982e-07
1.04388e-05
1.04541e-07
1.04526e-05
1.13623e-07
1.04643e-05
1.32744e-07
1.59912e-07
1.04685e-05
1.27237e-05
-4.07699e-07
1.27732e-05
-1.66745e-07
1.26794e-05
1.27661e-07
1.25837e-05
2.1606e-07
1.25504e-05
1.68138e-07
1.2587e-05
8.65116e-08
1.26655e-05
3.09546e-08
1.27415e-05
2.57515e-08
1.27866e-05
5.83607e-08
1.27944e-05
1.01863e-07
1.27741e-05
1.34321e-07
1.27395e-05
1.47889e-07
1.27023e-05
1.45944e-07
1.26683e-05
1.37922e-07
1.26399e-05
1.32962e-07
1.26169e-05
1.36596e-07
1.25998e-05
1.49915e-07
1.711e-07
1.25886e-05
1.54525e-05
-8.70482e-08
1.52558e-05
2.9886e-08
1.52374e-05
1.46085e-07
1.52818e-05
1.7162e-07
1.5321e-05
1.28975e-07
1.53422e-05
6.53534e-08
1.53576e-05
1.55422e-08
1.53842e-05
-8.42595e-10
1.5429e-05
1.35297e-08
1.54837e-05
4.71357e-08
1.55361e-05
8.19114e-08
1.55764e-05
1.07627e-07
1.56001e-05
1.2224e-07
1.56081e-05
1.29925e-07
1.56039e-05
1.37193e-07
1.5592e-05
1.48469e-07
1.55768e-05
1.6514e-07
1.85811e-07
1.55621e-05
1.89386e-05
-1.18226e-07
1.8964e-05
4.47558e-09
1.89972e-05
1.129e-07
1.9037e-05
1.31828e-07
1.90711e-05
9.49063e-08
1.90919e-05
4.4549e-08
1.90922e-05
1.52377e-08
1.90708e-05
2.05059e-08
1.90342e-05
5.0136e-08
1.89939e-05
8.74993e-08
1.89567e-05
1.19082e-07
1.89264e-05
1.37905e-07
1.8905e-05
1.43682e-07
1.88933e-05
1.41645e-07
1.88919e-05
1.3855e-07
1.89005e-05
1.39888e-07
1.89189e-05
1.46689e-07
1.59272e-07
1.89455e-05
2.28954e-05
8.08876e-08
2.28744e-05
2.55138e-08
2.29114e-05
7.5838e-08
2.29901e-05
5.31809e-08
2.30623e-05
2.27292e-08
2.30801e-05
2.67092e-08
2.3029e-05
6.63023e-08
2.29393e-05
1.10259e-07
2.28602e-05
1.2922e-07
2.28271e-05
1.20633e-07
2.28458e-05
1.00374e-07
2.28973e-05
8.63627e-08
2.29542e-05
8.67978e-08
2.29948e-05
1.00994e-07
2.30132e-05
1.20211e-07
2.30164e-05
1.36711e-07
2.30186e-05
1.44409e-07
1.41972e-07
2.30359e-05
1.71409e-05
-4.0775e-08
1.70516e-05
1.14871e-07
1.70775e-05
4.99658e-08
1.71429e-05
-1.23078e-08
1.71343e-05
3.13991e-08
1.70206e-05
1.40348e-07
1.68643e-05
2.22596e-07
1.67405e-05
2.3412e-07
1.66868e-05
1.82865e-07
1.66971e-05
1.1038e-07
1.67423e-05
5.51133e-08
1.67909e-05
3.78117e-08
1.68214e-05
5.63308e-08
1.68272e-05
9.51302e-08
1.68127e-05
1.34705e-07
1.67882e-05
1.61277e-07
1.67631e-05
1.69485e-07
1.5953e-07
1.67455e-05
1.45899e-05
1.71702e-07
1.44947e-05
2.10048e-07
1.45148e-05
2.99193e-08
1.4565e-05
-6.25331e-08
1.45692e-05
2.71827e-08
1.45513e-05
1.58303e-07
1.45492e-05
2.24694e-07
1.45905e-05
1.92827e-07
1.46693e-05
1.04054e-07
1.47628e-05
1.68807e-08
1.48528e-05
-3.48902e-08
1.49294e-05
-3.87834e-08
1.49927e-05
-6.95636e-09
1.50471e-05
4.07024e-08
1.50934e-05
8.83742e-08
1.51311e-05
1.23632e-07
1.51583e-05
1.42303e-07
1.42832e-07
1.51749e-05
1.28836e-05
2.065e-07
1.27756e-05
3.18059e-07
1.27171e-05
8.83458e-08
1.26942e-05
-3.96364e-08
1.27323e-05
-1.08524e-08
1.28204e-05
7.01466e-08
1.29331e-05
1.1207e-07
1.30345e-05
9.13568e-08
1.31036e-05
3.499e-08
1.31345e-05
-1.4034e-08
1.31292e-05
-2.95431e-08
1.30974e-05
-7.01999e-09
1.30489e-05
4.15854e-08
1.29931e-05
9.64245e-08
1.29394e-05
1.42132e-07
1.28933e-05
1.69665e-07
1.28589e-05
1.76696e-07
1.64804e-07
1.2837e-05
1.115e-05
3.59229e-07
1.112e-05
3.48016e-07
1.11079e-05
1.00424e-07
1.11016e-05
-3.32906e-08
1.11205e-05
-2.97792e-08
1.11809e-05
9.74879e-09
1.12594e-05
3.35975e-08
1.13183e-05
3.2451e-08
1.13323e-05
2.1007e-08
1.13005e-05
1.77963e-08
1.12401e-05
3.08056e-08
1.11769e-05
5.61894e-08
1.11331e-05
8.54266e-08
1.11193e-05
1.1021e-07
1.11364e-05
1.25024e-07
1.11782e-05
1.2786e-07
1.12354e-05
1.19425e-07
1.02871e-07
1.12974e-05
9.50648e-06
4.07822e-07
9.52397e-06
3.30522e-07
9.53701e-06
8.73853e-08
9.53896e-06
-3.52387e-08
9.56806e-06
-5.88783e-08
9.62935e-06
-5.15437e-08
9.69929e-06
-3.63378e-08
9.74991e-06
-1.81768e-08
9.76835e-06
2.56787e-09
9.76113e-06
2.50245e-08
9.74623e-06
4.57021e-08
9.74172e-06
6.07016e-08
9.75854e-06
6.86025e-08
9.79869e-06
7.00618e-08
9.85768e-06
6.60342e-08
9.92756e-06
5.79757e-08
1.00003e-05
4.67118e-08
3.43551e-08
1.00688e-05
8.3549e-06
2.72587e-07
8.43447e-06
2.50949e-07
8.47272e-06
4.91311e-08
8.45969e-06
-2.22031e-08
8.41671e-06
-1.58982e-08
8.37243e-06
-7.26455e-09
8.3491e-06
-1.30068e-08
8.35183e-06
-2.09096e-08
8.37387e-06
-1.94697e-08
8.40591e-06
-7.01933e-09
8.44057e-06
1.10448e-08
8.47348e-06
2.77922e-08
8.50296e-06
3.91215e-08
8.52895e-06
4.40737e-08
8.55205e-06
4.29372e-08
8.57324e-06
3.67804e-08
8.59316e-06
2.67957e-08
1.46522e-08
8.61286e-06
7.22786e-06
2.2589e-07
7.35967e-06
1.19137e-07
7.40451e-06
4.29386e-09
7.41173e-06
-2.94266e-08
7.39945e-06
-3.61247e-09
7.37278e-06
1.94019e-08
7.34568e-06
1.40931e-08
7.33369e-06
-8.92273e-09
7.34221e-06
-2.79867e-08
7.36665e-06
-3.14575e-08
7.39974e-06
-2.20502e-08
7.43647e-06
-8.93447e-09
7.47531e-06
2.78744e-10
7.51631e-06
3.07256e-09
7.55794e-06
1.31186e-09
7.59763e-06
-2.91429e-09
7.63059e-06
-6.15861e-09
-6.92601e-09
7.65217e-06
6.29584e-06
1.23619e-07
6.31617e-06
9.8808e-08
6.31506e-06
5.39763e-09
6.31917e-06
-3.35301e-08
6.35841e-06
-4.28602e-08
6.42063e-06
-4.28108e-08
6.478e-06
-4.32773e-08
6.51294e-06
-4.38704e-08
6.52555e-06
-4.05949e-08
6.52565e-06
-3.15594e-08
6.52171e-06
-1.81097e-08
6.51671e-06
-3.93276e-09
6.51027e-06
6.71753e-09
6.50224e-06
1.11024e-08
6.49453e-06
9.02951e-09
6.48958e-06
2.03662e-09
6.48909e-06
-5.67637e-09
-1.2083e-08
6.49425e-06
5.37798e-06
1.09749e-07
5.41181e-06
6.49782e-08
5.46989e-06
-5.26891e-08
5.51996e-06
-8.35941e-08
5.56014e-06
-8.30401e-08
5.59242e-06
-7.5092e-08
5.61356e-06
-6.44204e-08
5.62048e-06
-5.07895e-08
5.61482e-06
-3.49351e-08
5.60337e-06
-2.01128e-08
5.59494e-06
-9.67363e-09
5.59635e-06
-5.34793e-09
5.60979e-06
-6.71612e-09
5.63374e-06
-1.28478e-08
5.66388e-06
-2.11136e-08
5.69526e-06
-2.93423e-08
5.72466e-06
-3.50798e-08
-3.68478e-08
5.74943e-06
4.67503e-06
-1.44621e-07
4.84772e-06
-1.07711e-07
4.87251e-06
-7.74738e-08
4.86214e-06
-7.32328e-08
4.85134e-06
-7.22365e-08
4.84738e-06
-7.11299e-08
4.84566e-06
-6.26984e-08
4.84322e-06
-4.83545e-08
4.84349e-06
-3.51995e-08
4.8514e-06
-2.80234e-08
4.86798e-06
-2.62568e-08
4.88987e-06
-2.72358e-08
4.91203e-06
-2.88817e-08
4.93039e-06
-3.12036e-08
4.94368e-06
-3.44001e-08
4.95285e-06
-3.8515e-08
4.95998e-06
-4.22084e-08
-4.32336e-08
4.96636e-06
4.17493e-06
4.06722e-06
3.98975e-06
3.91651e-06
3.84428e-06
3.77315e-06
3.71045e-06
3.66209e-06
3.62689e-06
3.59887e-06
3.57261e-06
3.54538e-06
3.5165e-06
3.48529e-06
3.45089e-06
3.41238e-06
3.37017e-06
3.32694e-06
-7.97741e-08
7.97741e-08
-1.70379e-07
9.06044e-08
-2.2225e-07
5.1871e-08
-2.0549e-07
-1.67597e-08
-1.19086e-07
-8.64035e-08
3.63958e-08
-1.55482e-07
2.6142e-07
-2.25024e-07
5.48664e-07
-2.87244e-07
8.84052e-07
-3.35389e-07
1.25048e-06
-3.6643e-07
1.63183e-06
-3.81347e-07
2.01188e-06
-3.80049e-07
2.37678e-06
-3.64897e-07
2.7155e-06
-3.38727e-07
3.0194e-06
-3.03895e-07
3.28172e-06
-2.62326e-07
3.49812e-06
-2.16394e-07
3.66641e-06
-1.68294e-07
3.78481e-06
-1.18402e-07
3.85112e-06
-6.63075e-08
3.86541e-06
-1.42905e-08
3.83528e-06
3.01357e-08
3.76719e-06
6.80878e-08
3.66043e-06
1.06758e-07
3.50906e-06
1.51375e-07
3.30611e-06
2.02946e-07
3.04752e-06
2.5859e-07
2.74537e-06
3.02154e-07
2.42479e-06
3.2058e-07
2.12318e-06
3.0161e-07
1.87797e-06
2.45202e-07
1.7005e-06
1.77473e-07
1.6221e-06
7.84059e-08
1.56371e-06
5.83832e-08
1.46391e-06
9.98061e-08
1.45487e-06
9.03587e-09
1.31717e-06
1.37703e-07
1.05151e-06
2.65663e-07
1.22886e-06
-1.77358e-07
1.73783e-06
-5.08966e-07
2.03019e-06
-2.92365e-07
2.09508e-06
-6.48887e-08
1.92636e-06
1.68721e-07
1.36017e-06
5.66193e-07
5.54714e-07
8.05455e-07
-1.64569e-07
7.19284e-07
-7.33822e-07
5.69253e-07
-1.21291e-06
4.79084e-07
-1.64776e-06
4.34852e-07
-2.06578e-06
4.18021e-07
-2.49236e-06
4.26584e-07
-2.97512e-06
4.82753e-07
-3.5965e-06
6.21385e-07
-4.45163e-06
8.55125e-07
-5.61717e-06
1.16554e-06
-7.08717e-06
1.47001e-06
-8.68535e-06
1.59818e-06
-1.00259e-05
1.34051e-06
-1.07302e-05
7.04307e-07
-1.0812e-05
8.18296e-08
-1.06585e-05
-1.53527e-07
-1.05371e-05
-1.21341e-07
-1.04699e-05
-6.72578e-08
-1.03825e-05
-8.73846e-08
-1.02366e-05
-1.45866e-07
-1.00401e-05
-1.96485e-07
-9.81109e-06
-2.29045e-07
-9.56065e-06
-2.50436e-07
-9.29432e-06
-2.66334e-07
-9.01505e-06
-2.79269e-07
-8.72463e-06
-2.90423e-07
-8.42488e-06
-2.99749e-07
-8.11877e-06
-3.06107e-07
-7.811e-06
-3.07771e-07
-7.50763e-06
-3.03373e-07
-7.21498e-06
-2.92644e-07
-6.93822e-06
-2.76764e-07
-6.68005e-06
-2.58166e-07
-6.44053e-06
-2.39527e-07
-6.21819e-06
-2.22333e-07
-6.01188e-06
-2.06316e-07
-5.82117e-06
-1.90704e-07
-5.64519e-06
-1.75984e-07
-5.48097e-06
-1.64221e-07
-5.32265e-06
-1.58316e-07
-5.16218e-06
-1.60474e-07
-4.99245e-06
-1.69726e-07
-4.8099e-06
-1.82551e-07
-4.61212e-06
-1.97781e-07
-4.39517e-06
-2.16952e-07
-4.15487e-06
-2.40302e-07
-3.88899e-06
-2.6588e-07
-3.60073e-06
-2.88262e-07
-3.2988e-06
-3.01925e-07
-2.99525e-06
-3.03553e-07
-2.71062e-06
-2.84623e-07
-2.46506e-06
-2.45562e-07
-2.26135e-06
-2.03716e-07
-2.06797e-06
-1.9338e-07
-1.84501e-06
-2.22957e-07
-1.58138e-06
-2.63633e-07
-1.29398e-06
-2.87393e-07
-8.38151e-07
-4.55831e-07
-7.83453e-08
-7.59806e-07
7.30093e-07
-8.08439e-07
1.40168e-06
-6.71584e-07
1.88597e-06
-4.84293e-07
2.03124e-06
-1.45265e-07
1.77836e-06
2.52879e-07
1.54494e-06
2.33419e-07
1.71295e-06
-1.68016e-07
1.88783e-06
-1.74881e-07
1.27334e-06
6.14497e-07
-1.1238e-07
1.38572e-06
-1.5119e-06
1.39952e-06
-2.64466e-06
1.13276e-06
-3.56111e-06
9.16447e-07
-4.32192e-06
7.60813e-07
-4.97303e-06
6.51112e-07
-5.5412e-06
5.6817e-07
-6.0364e-06
4.95196e-07
-6.4589e-06
4.22502e-07
-6.80243e-06
3.43525e-07
-7.05712e-06
2.54691e-07
-7.21165e-06
1.54533e-07
-7.25536e-06
4.37085e-08
-7.18663e-06
-6.8728e-08
-7.00368e-06
-1.82949e-07
-6.70808e-06
-2.956e-07
-6.30725e-06
-4.00834e-07
-5.81329e-06
-4.93962e-07
-5.24192e-06
-5.71362e-07
-4.6109e-06
-6.31026e-07
-3.93906e-06
-6.71836e-07
-3.24568e-06
-6.93387e-07
-2.54897e-06
-6.96705e-07
-1.86373e-06
-6.85238e-07
-1.20413e-06
-6.59598e-07
-5.8196e-07
-6.22175e-07
-9.68697e-09
-5.72273e-07
5.10223e-07
-5.1991e-07
9.65372e-07
-4.5515e-07
1.35462e-06
-3.8925e-07
1.68295e-06
-3.28323e-07
1.96137e-06
-2.78428e-07
2.20445e-06
-2.43077e-07
2.42703e-06
-2.2258e-07
2.64194e-06
-2.14914e-07
2.85923e-06
-2.17285e-07
3.08645e-06
-2.27217e-07
3.32968e-06
-2.43233e-07
3.59431e-06
-2.64633e-07
3.8855e-06
-2.9119e-07
4.20849e-06
-3.22983e-07
4.56518e-06
-3.56699e-07
4.95251e-06
-3.8733e-07
5.36734e-06
-4.1483e-07
5.79874e-06
-4.31392e-07
6.22995e-06
-4.31217e-07
6.64691e-06
-4.16956e-07
7.02877e-06
-3.81865e-07
7.36153e-06
-3.32757e-07
7.59576e-06
-2.34232e-07
7.75013e-06
-1.54363e-07
7.81656e-06
-6.64385e-08
7.55089e-06
2.65678e-07
7.18991e-06
3.60975e-07
6.52252e-06
6.67394e-07
4.49351e-06
2.02901e-06
1.88688e-06
2.60663e-06
2.45446e-07
1.64143e-06
-4.87095e-07
7.32541e-07
-7.9174e-07
3.04645e-07
-8.6823e-07
7.64891e-08
-6.72143e-07
-1.96087e-07
-2.83412e-07
-3.8873e-07
1.17526e-07
-4.00938e-07
4.4001e-07
-3.22485e-07
5.9866e-07
-1.5865e-07
-8.12113e-08
6.79871e-07
6.27067e-08
1.70674e-08
1.18985e-07
3.43259e-08
2.0583e-07
-3.49741e-08
3.43719e-07
-1.54648e-07
5.51757e-07
-2.94442e-07
8.32235e-07
-4.3596e-07
1.17024e-06
-5.63025e-07
1.54548e-06
-6.62487e-07
1.93714e-06
-7.27045e-07
2.32727e-06
-7.56564e-07
2.69961e-06
-7.53688e-07
3.04506e-06
-7.25495e-07
3.35954e-06
-6.79377e-07
3.6398e-06
-6.18989e-07
3.88415e-06
-5.48246e-07
4.09123e-06
-4.69411e-07
4.25936e-06
-3.84524e-07
4.38855e-06
-2.97481e-07
4.48115e-06
-2.11003e-07
4.53812e-06
-1.23279e-07
4.55762e-06
-3.37856e-08
4.53119e-06
5.65618e-08
4.45989e-06
1.39389e-07
4.34806e-06
2.18589e-07
4.19343e-06
3.06009e-07
3.9957e-06
4.00674e-07
3.76999e-06
4.84301e-07
3.53449e-06
5.37655e-07
3.29364e-06
5.61421e-07
3.0398e-06
5.55451e-07
2.76756e-06
5.17449e-07
2.48464e-06
4.60394e-07
2.22165e-06
3.41393e-07
2.07733e-06
2.02702e-07
2.00993e-06
1.67208e-07
1.81206e-06
2.06901e-07
1.7597e-06
1.90063e-07
2.11623e-06
-9.08651e-08
2.14431e-06
-2.0544e-07
1.63347e-06
1.87157e-09
7.49483e-07
5.91627e-07
-3.32309e-07
1.0169e-06
-1.26151e-06
1.09792e-06
-1.83543e-06
1.14011e-06
-2.15867e-06
1.1287e-06
-2.51636e-06
1.07696e-06
-2.99762e-06
1.05051e-06
-3.61211e-06
1.09358e-06
-4.3719e-06
1.19464e-06
-5.28054e-06
1.32667e-06
-6.32848e-06
1.47452e-06
-7.49125e-06
1.64552e-06
-8.71377e-06
1.8439e-06
-9.88149e-06
2.02285e-06
-1.08043e-05
2.08836e-06
-1.13042e-05
1.96993e-06
-1.13479e-05
1.64188e-06
-1.11039e-05
1.09643e-06
-1.08584e-05
4.5885e-07
-1.07947e-05
1.81278e-08
-1.08015e-05
-1.46776e-07
-1.07493e-05
-1.73539e-07
-1.06092e-05
-2.07269e-07
-1.04281e-05
-2.68544e-07
-1.02434e-05
-3.30547e-07
-1.0058e-05
-3.81844e-07
-9.86218e-06
-4.24904e-07
-9.64938e-06
-4.6324e-07
-9.41733e-06
-4.9838e-07
-9.16599e-06
-5.3061e-07
-8.89725e-06
-5.59168e-07
-8.61503e-06
-5.81964e-07
-8.3251e-06
-5.96036e-07
-8.03436e-06
-5.9851e-07
-7.74978e-06
-5.87962e-07
-7.47696e-06
-5.65464e-07
-7.21886e-06
-5.34859e-07
-6.97524e-06
-5.01782e-07
-6.74342e-06
-4.71352e-07
-6.52031e-06
-4.45447e-07
-6.3041e-06
-4.22518e-07
-6.09416e-06
-4.00645e-07
-5.88896e-06
-3.81187e-07
-5.68466e-06
-3.68516e-07
-5.47657e-06
-3.6641e-07
-5.26134e-06
-3.75708e-07
-5.03697e-06
-3.94091e-07
-4.80193e-06
-4.17588e-07
-4.55513e-06
-4.44588e-07
-4.29558e-06
-4.765e-07
-4.02363e-06
-5.1225e-07
-3.74093e-06
-5.4858e-07
-3.44727e-06
-5.81924e-07
-3.14398e-06
-6.05215e-07
-2.83295e-06
-6.14582e-07
-2.52047e-06
-5.97105e-07
-2.21821e-06
-5.4782e-07
-1.94358e-06
-4.78341e-07
-1.71215e-06
-4.24813e-07
-1.51019e-06
-4.24915e-07
-1.30516e-06
-4.68659e-07
-1.04178e-06
-5.50773e-07
-5.97685e-07
-8.99932e-07
6.00108e-08
-1.4175e-06
7.87066e-07
-1.53549e-06
1.32425e-06
-1.20877e-06
1.64572e-06
-8.05758e-07
1.8777e-06
-3.77247e-07
2.2296e-06
-9.90169e-08
2.64507e-06
-1.8205e-07
2.51337e-06
-3.63193e-08
1.36547e-06
9.73014e-07
-3.71644e-07
2.35161e-06
-1.76921e-06
2.78329e-06
-2.72091e-06
2.35122e-06
-3.46802e-06
1.87987e-06
-4.08947e-06
1.5379e-06
-4.63795e-06
1.30929e-06
-5.13646e-06
1.14962e-06
-5.59258e-06
1.02429e-06
-6.00157e-06
9.04184e-07
-6.35688e-06
7.77817e-07
-6.6488e-06
6.35444e-07
-6.86685e-06
4.72744e-07
-7.00027e-06
2.87948e-07
-7.04164e-06
8.50799e-08
-6.97332e-06
-1.37046e-07
-6.7905e-06
-3.65772e-07
-6.49559e-06
-5.9051e-07
-6.09532e-06
-8.01098e-07
-5.60206e-06
-9.87223e-07
-5.03191e-06
-1.14152e-06
-4.40291e-06
-1.26002e-06
-3.73402e-06
-1.34073e-06
-3.04411e-06
-1.3833e-06
-2.35072e-06
-1.3901e-06
-1.66935e-06
-1.36661e-06
-1.01152e-06
-1.31743e-06
-3.8622e-07
-1.24748e-06
2.01725e-07
-1.16022e-06
7.4117e-07
-1.05936e-06
1.22957e-06
-9.43554e-07
1.66274e-06
-8.22415e-07
2.0407e-06
-7.06285e-07
2.36794e-06
-6.0567e-07
2.65326e-06
-5.28395e-07
2.90846e-06
-4.77775e-07
3.14609e-06
-4.52546e-07
3.37744e-06
-4.48641e-07
3.61206e-06
-4.6183e-07
3.85823e-06
-4.89403e-07
4.12418e-06
-5.3059e-07
4.41812e-06
-5.85123e-07
4.746e-06
-6.50863e-07
5.11197e-06
-7.22668e-07
5.51589e-06
-7.91249e-07
5.94998e-06
-8.48918e-07
6.40409e-06
-8.85511e-07
6.86175e-06
-8.8887e-07
7.30817e-06
-8.63375e-07
7.71811e-06
-7.9181e-07
8.07414e-06
-6.88784e-07
8.38305e-06
-5.43141e-07
8.55202e-06
-3.2333e-07
8.64347e-06
-1.57894e-07
8.68416e-06
2.24994e-07
8.41324e-06
6.31894e-07
8.17316e-06
9.07471e-07
7.94329e-06
2.25888e-06
6.95101e-06
3.59891e-06
5.1061e-06
3.48635e-06
3.21601e-06
2.62263e-06
1.92349e-06
1.59716e-06
1.38916e-06
6.10822e-07
1.35424e-06
-1.61161e-07
1.56736e-06
-6.01858e-07
1.84625e-06
-6.79827e-07
2.04384e-06
-5.20071e-07
2.09259e-06
-2.07398e-07
-6.53172e-08
2.07669e-06
1.19823e-07
-1.02755e-07
2.45436e-07
-9.1287e-08
4.52041e-07
-2.4158e-07
7.71141e-07
-4.73748e-07
1.18099e-06
-7.04286e-07
1.63834e-06
-8.93311e-07
2.10146e-06
-1.02615e-06
2.54045e-06
-1.10147e-06
2.93559e-06
-1.12219e-06
3.28202e-06
-1.10299e-06
3.57979e-06
-1.05146e-06
3.83135e-06
-9.77053e-07
4.04021e-06
-8.88243e-07
4.21126e-06
-7.90038e-07
4.34935e-06
-6.8633e-07
4.45951e-06
-5.79571e-07
4.54536e-06
-4.70378e-07
4.60908e-06
-3.61207e-07
4.65319e-06
-2.55107e-07
4.68105e-06
-1.51145e-07
4.69334e-06
-4.60671e-08
4.68255e-06
6.73453e-08
4.63302e-06
1.88918e-07
4.53764e-06
3.13971e-07
4.40414e-06
4.39514e-07
4.24719e-06
5.57619e-07
4.0734e-06
6.58097e-07
3.87399e-06
7.37059e-07
3.63821e-06
7.97199e-07
3.34774e-06
8.45924e-07
2.99264e-06
8.72546e-07
2.60574e-06
8.47302e-07
2.21848e-06
7.28649e-07
1.83621e-06
5.84966e-07
1.42229e-06
5.81128e-07
1.17194e-06
4.57253e-07
1.20978e-06
1.52229e-07
9.24676e-07
1.94236e-07
-1.35701e-07
8.54938e-07
-1.47925e-06
1.34542e-06
-2.40977e-06
1.52215e-06
-2.99415e-06
1.60128e-06
-3.49038e-06
1.59416e-06
-3.90184e-06
1.55156e-06
-4.30157e-06
1.52843e-06
-4.79145e-06
1.56684e-06
-5.42304e-06
1.6821e-06
-6.19557e-06
1.86611e-06
-7.09115e-06
2.09021e-06
-8.07327e-06
2.30879e-06
-9.07476e-06
2.47601e-06
-9.99207e-06
2.56283e-06
-1.07044e-05
2.55627e-06
-1.11223e-05
2.44074e-06
-1.12272e-05
2.19328e-06
-1.1065e-05
1.80769e-06
-1.07364e-05
1.31324e-06
-1.04152e-05
7.75308e-07
-1.02682e-05
3.11767e-07
-1.0276e-05
2.59777e-08
-1.03132e-05
-1.09544e-07
-1.02905e-05
-1.9626e-07
-1.0205e-05
-2.92757e-07
-1.00844e-05
-3.89221e-07
-9.93989e-06
-4.7501e-07
-9.77089e-06
-5.50847e-07
-9.57695e-06
-6.18836e-07
-9.36134e-06
-6.78854e-07
-9.12873e-06
-7.30986e-07
-8.88382e-06
-7.75528e-07
-8.63044e-06
-8.12549e-07
-8.37127e-06
-8.41134e-07
-8.10763e-06
-8.59668e-07
-7.83982e-06
-8.66324e-07
-7.5677e-06
-8.60081e-07
-7.29158e-06
-8.41583e-07
-7.01297e-06
-8.13471e-07
-6.73498e-06
-7.79773e-07
-6.4618e-06
-7.44527e-07
-6.19706e-06
-7.10186e-07
-5.94238e-06
-6.77207e-07
-5.69715e-06
-6.45867e-07
-5.4592e-06
-6.19138e-07
-5.22489e-06
-6.02827e-07
-4.98993e-06
-6.01376e-07
-4.75158e-06
-6.14052e-07
-4.50912e-06
-6.36552e-07
-4.26122e-06
-6.65485e-07
-4.00654e-06
-6.99272e-07
-3.74467e-06
-7.38369e-07
-3.47648e-06
-7.80437e-07
-3.20576e-06
-8.19303e-07
-2.93383e-06
-8.53853e-07
-2.65774e-06
-8.81303e-07
-2.37097e-06
-9.01353e-07
-2.06689e-06
-9.01184e-07
-1.73735e-06
-8.77362e-07
-1.38999e-06
-8.25701e-07
-1.0615e-06
-7.533e-07
-7.99716e-07
-6.86704e-07
-6.05826e-07
-6.6255e-07
-4.30588e-07
-7.2601e-07
-2.40617e-07
-1.0899e-06
4.6919e-08
-1.70504e-06
5.62275e-07
-2.05085e-06
1.09987e-06
-1.74637e-06
1.63872e-06
-1.3446e-06
2.24267e-06
-9.81203e-07
2.76942e-06
-6.25763e-07
2.76018e-06
-1.72806e-07
1.75316e-06
9.70694e-07
3.35875e-08
2.69259e-06
-1.39179e-06
3.777e-06
-2.1079e-06
3.4994e-06
-2.57453e-06
2.81785e-06
-3.03843e-06
2.34377e-06
-3.52982e-06
2.02929e-06
-4.04701e-06
1.82649e-06
-4.56516e-06
1.66777e-06
-5.06562e-06
1.52475e-06
-5.53303e-06
1.37159e-06
-5.95272e-06
1.19751e-06
-6.31001e-06
9.92729e-07
-6.58882e-06
7.51555e-07
-6.77344e-06
4.72566e-07
-6.85005e-06
1.6169e-07
-6.80688e-06
-1.80211e-07
-6.64109e-06
-5.31562e-07
-6.35559e-06
-8.76017e-07
-5.95964e-06
-1.19705e-06
-5.468e-06
-1.47886e-06
-4.89887e-06
-1.71065e-06
-4.27224e-06
-1.88665e-06
-3.60811e-06
-2.00485e-06
-2.92558e-06
-2.06583e-06
-2.24237e-06
-2.0733e-06
-1.57416e-06
-2.03482e-06
-9.32718e-07
-1.95887e-06
-3.26023e-07
-1.85417e-06
2.41118e-07
-1.72736e-06
7.62839e-07
-1.58108e-06
1.23864e-06
-1.41936e-06
1.66829e-06
-1.25206e-06
2.05361e-06
-1.09161e-06
2.39833e-06
-9.50382e-07
2.70757e-06
-8.37634e-07
2.98803e-06
-7.58239e-07
3.24798e-06
-7.12502e-07
3.49672e-06
-6.97374e-07
3.74459e-06
-7.09703e-07
4.00331e-06
-7.48126e-07
4.28534e-06
-8.12619e-07
4.60206e-06
-9.01846e-07
4.96126e-06
-1.01006e-06
5.36455e-06
-1.12596e-06
5.80714e-06
-1.23384e-06
6.27765e-06
-1.31943e-06
6.76264e-06
-1.3705e-06
7.24573e-06
-1.37196e-06
7.70714e-06
-1.32479e-06
8.13596e-06
-1.22063e-06
8.50345e-06
-1.05628e-06
8.80525e-06
-8.44944e-07
9.0181e-06
-5.36179e-07
9.09508e-06
-2.34876e-07
9.1225e-06
1.97581e-07
8.96258e-06
7.91808e-07
8.66015e-06
1.2099e-06
8.70442e-06
2.2146e-06
8.75713e-06
3.5462e-06
8.25193e-06
3.99156e-06
7.25232e-06
3.62224e-06
6.04699e-06
2.80249e-06
4.96307e-06
1.69474e-06
4.1565e-06
6.45416e-07
3.70953e-06
-1.54893e-07
3.56644e-06
-5.36734e-07
3.56573e-06
-5.19365e-07
3.55281e-06
-1.94482e-07
2.73763e-08
3.46012e-06
-1.47638e-08
-8.79916e-08
1.73425e-07
-2.79476e-07
6.1473e-07
-6.82885e-07
1.18631e-06
-1.04533e-06
1.77299e-06
-1.29096e-06
2.30609e-06
-1.42641e-06
2.75722e-06
-1.47728e-06
3.12118e-06
-1.46543e-06
3.40646e-06
-1.40748e-06
3.62108e-06
-1.31761e-06
3.7769e-06
-1.20727e-06
3.8857e-06
-1.08586e-06
3.9593e-06
-9.61839e-07
4.00698e-06
-8.37714e-07
4.0358e-06
-7.15149e-07
4.05229e-06
-5.96066e-07
4.06142e-06
-4.79503e-07
4.06969e-06
-3.69479e-07
4.07995e-06
-2.65367e-07
4.09023e-06
-1.61425e-07
4.10357e-06
-5.94046e-08
4.12471e-06
4.61973e-08
4.14757e-06
1.66066e-07
4.14727e-06
3.14266e-07
4.10575e-06
4.81038e-07
4.01575e-06
6.4762e-07
3.86094e-06
8.12898e-07
3.61765e-06
9.80352e-07
3.30208e-06
1.11277e-06
2.95467e-06
1.19333e-06
2.58563e-06
1.24159e-06
2.20294e-06
1.22999e-06
1.76573e-06
1.16585e-06
1.24625e-06
1.10445e-06
9.04063e-07
9.23316e-07
6.60827e-07
7.00488e-07
-1.80277e-07
9.93332e-07
-1.61305e-06
1.62701e-06
-2.75277e-06
1.99465e-06
-3.5667e-06
2.15935e-06
-4.20089e-06
2.15634e-06
-4.69589e-06
2.09628e-06
-5.14307e-06
2.04133e-06
-5.61434e-06
2.02283e-06
-6.15206e-06
2.06616e-06
-6.76262e-06
2.1774e-06
-7.4317e-06
2.35119e-06
-8.13016e-06
2.56456e-06
-8.82202e-06
2.78208e-06
-9.46746e-06
2.95423e-06
-1.00191e-05
3.02761e-06
-1.04221e-05
2.96589e-06
-1.06285e-05
2.76269e-06
-1.06242e-05
2.43642e-06
-1.04529e-05
2.02199e-06
-1.02118e-05
1.56656e-06
-1.00187e-05
1.12014e-06
-9.9683e-06
7.24914e-07
-1.00662e-05
4.09681e-07
-1.02171e-05
1.76871e-07
-1.03222e-05
-4.50319e-09
-1.03389e-05
-1.79502e-07
-1.02916e-05
-3.40081e-07
-1.01907e-05
-4.90117e-07
-1.00379e-05
-6.27763e-07
-9.83968e-06
-7.49098e-07
-9.60687e-06
-8.51651e-07
-9.35091e-06
-9.34814e-07
-9.08191e-06
-9.99985e-07
-8.80825e-06
-1.04919e-06
-8.53663e-06
-1.08417e-06
-8.2714e-06
-1.10636e-06
-8.01401e-06
-1.11706e-06
-7.76256e-06
-1.11778e-06
-7.51228e-06
-1.11036e-06
-7.25724e-06
-1.09662e-06
-6.99276e-06
-1.07796e-06
-6.71751e-06
-1.05502e-06
-6.43391e-06
-1.02813e-06
-6.14603e-06
-9.98068e-07
-5.85678e-06
-9.66458e-07
-5.56695e-06
-9.35702e-07
-5.2769e-06
-9.09182e-07
-4.98832e-06
-8.91407e-07
-4.70368e-06
-8.8602e-07
-4.42317e-06
-8.94556e-07
-4.14393e-06
-9.15799e-07
-3.86273e-06
-9.46682e-07
-3.57788e-06
-9.84117e-07
-3.29048e-06
-1.02577e-06
-3.00215e-06
-1.06877e-06
-2.71475e-06
-1.10671e-06
-2.43145e-06
-1.13714e-06
-2.15262e-06
-1.16014e-06
-1.87555e-06
-1.17842e-06
-1.60308e-06
-1.17365e-06
-1.33027e-06
-1.15017e-06
-1.00965e-06
-1.14632e-06
-6.36704e-07
-1.12625e-06
-2.50225e-07
-1.07318e-06
9.2688e-08
-1.00546e-06
3.07809e-07
-9.41132e-07
3.2534e-07
-1.10743e-06
3.03646e-07
-1.68334e-06
5.82405e-07
-2.32961e-06
1.18072e-06
-2.34469e-06
1.90391e-06
-2.06779e-06
2.54244e-06
-1.61973e-06
2.70093e-06
-7.8426e-07
1.98561e-06
5.42512e-07
5.40469e-07
2.41584e-06
-9.17468e-07
4.15053e-06
-1.64529e-06
4.50482e-06
-1.92215e-06
3.77625e-06
-2.26762e-06
3.16331e-06
-2.72594e-06
2.80209e-06
-3.26772e-06
2.57107e-06
-3.8468e-06
2.40556e-06
-4.43207e-06
2.25304e-06
-4.99799e-06
2.09066e-06
-5.52679e-06
1.9004e-06
-6.00004e-06
1.67077e-06
-6.39994e-06
1.39262e-06
-6.70741e-06
1.05903e-06
-6.90504e-06