/*--------------------------------*- C++ -*----------------------------------*\
  =========                 |
  \\      /  F ield         | OpenFOAM: The Open Source CFD Toolbox
   \\    /   O peration     | Website:  https://openfoam.org
    \\  /    A nd           | Version:  9
     \\/     M anipulation  |
\*---------------------------------------------------------------------------*/
FoamFile
{
    format      ascii;
    class       volScalarField;
    location    "0.095";
    object      pPrime2Mean;
}
// * * * * * * * * * * * * * * * * * * * * * * * * * * * * * * * * * * * * * //

dimensions      [0 4 -4 0 0 0 0];

internalField   nonuniform List<scalar> 
12225
(
292590
289816
286590
283104
279471
275771
272060
268371
264723
261127
257585
254090
250632
247190
243730
240195
236468
232277
292627
289845
286612
283122
279485
275783
272071
268381
264733
261138
257596
254104
250649
247212
243762
240246
236571
232573
292729
289909
286661
283161
279517
275811
272095
268403
264755
261160
257621
254133
250686
247260
243830
240354
236771
233028
292869
290015
286743
283226
279570
275856
272135
268440
264791
261198
257663
254182
250746
247339
243941
240523
237057
233560
293093
290170
286862
283321
279648
275922
272193
268494
264844
261253
257724
254253
250833
247452
244096
240749
237412
234130
293401
290384
287027
283453
279757
276014
272274
268569
264918
261330
257808
254350
250951
247602
244297
241031
237820
234720
293784
290662
287245
283627
279899
276134
272380
268668
265014
261429
257917
254475
251101
247791
244543
241362
238270
235321
294190
291012
287524
283851
280082
276289
272517
268794
265137
261556
258054
254632
251287
248020
244833
241736
238754
235929
294730
291452
287873
284130
280312
276483
272687
268951
265290
261713
258223
254822
251511
248290
245165
242149
239264
236542
295388
291995
288304
284475
280593
276720
272895
269143
265476
261903
258426
255049
251772
248598
245535
242595
239796
237161
296244
292659
288827
284892
280932
277005
273146
269373
265698
262128
258666
255313
252071
248945
245941
243070
240346
237784
297156
293396
289402
285347
281301
277315
273416
269621
265937
262370
258920
255589
252380
249296
246342
243529
240864
238359
298308
294249
290058
285862
281717
277664
273721
269900
266205
262639
259200
255892
252714
249669
246763
244001
241388
238932
299862
295387
290923
286537
282261
278118
274118
270262
266551
262984
259558
256273
253129
250127
247268
244557
241997
239587
301842
296875
292047
287410
282961
278702
274626
270726
266993
263423
260009
256748
253638
250678
247867
245206
242694
240330
304544
298819
293478
288506
283836
279431
275262
271306
267545
263968
260564
257326
254249
251330
248564
245950
243482
241158
307958
301161
295177
289802
284873
280300
276024
272004
268211
264624
261227
258011
254965
252082
249357
246783
244355
242067
311564
303607
296946
291165
285978
281244
276867
272788
268965
265370
261983
258786
255767
252918
250228
247689
245295
243036
313999
305260
298216
292220
286905
282091
277669
273567
269738
266151
262780
259606
256616
253797
251138
248630
246264
244031
312318
304706
298147
292388
287205
282475
278109
274050
270257
266702
263360
260215
257252
254459
251824
249338
246991
244775
310350
303591
297566
292134
287159
282562
278286
274291
270546
267027
263716
260597
257656
254882
252264
249793
247459
245255
308386
302372
296848
291741
286977
282521
278341
274414
270718
267236
263954
260857
257936
255178
252574
250114
247790
245593
306628
301263
296164
291336
286761
282430
278337
274471
270818
267369
264111
261034
258128
255383
252789
250338
248021
245831
305207
300338
295581
290983
286560
282333
278311
274493
270876
267453
264215
261154
258259
255524
252938
250493
248182
245996
304091
299622
295129
290704
286397
282249
278280
274500
270910
267507
264283
261233
258348
255619
253039
250599
248291
246108
303232
299085
294795
290498
286275
282183
278254
274501
270930
267540
264327
261285
258406
255682
253106
250669
248364
246183
302607
298710
294566
290357
286191
282138
278234
274499
270941
267561
264355
261318
258443
255723
253149
250715
248411
246232
302154
298467
294420
290268
286138
282108
278221
274498
270948
267573
264372
261338
258466
255747
253175
250742
248439
246261
301901
298331
294340
290219
286109
282092
278214
274497
270951
267580
264381
261349
258478
255760
253189
250757
248455
246276
301798
298274
294307
290199
286097
282086
278211
274496
270952
267582
264384
261353
258483
255766
253195
250762
248461
246283
196682
196666
196634
196586
196521
196441
196346
196235
196107
195961
195796
195612
195408
195185
194943
194681
194399
194097
193774
193432
193071
192691
192293
191877
191444
190994
190528
190045
189547
189033
188504
187959
187400
186825
186233
185627
185008
184378
183738
183087
182424
181746
181047
180328
179589
178832
178062
177280
176488
175688
174882
174070
173253
172429
171598
170760
169916
169059
168185
167296
166396
165488
164576
163656
162721
161767
160794
159811
158821
157822
156809
155780
154731
153661
152574
151478
150380
149281
148190
147107
146024
144934
143833
142729
141620
140500
139372
138238
137095
135937
134769
133603
132446
131298
130153
129004
127847
126678
125493
124295
123083
121855
120611
119348
118066
116767
115467
114167
112876
111607
110359
109128
107916
106718
105522
104314
103080
101809
100495
99138.7
97747.4
96331.7
94904.7
93479.1
92064.6
90667.4
89289.7
87931.4
86590.8
85265.9
83954.4
82654
81362.5
80077.8
78798.2
77522.5
76249.8
74979.6
73711.4
72445.4
71181.2
69918.8
68658.3
67399.7
66142.8
64887.6
63634.1
62382.2
61131.9
59883.2
58636.3
57391.3
56148.4
54908.4
53671.9
52440.3
51214.5
49995.2
48783.1
47578.5
46380.8
45188.6
44001.3
42820.4
41645.9
40476.1
39313.6
38163.1
37027.7
35906.5
34794.6
33685.6
32582.2
31488.4
30405.2
29335.7
28281.1
27244
26228.4
25243.1
196752
196736
196704
196656
196591
196512
196417
196305
196177
196030
195864
195679
195475
195252
195010
194748
194465
194162
193838
193495
193131
192748
192347
191928
191491
191038
190568
190083
189582
189067
188539
187996
187441
186869
186280
185674
185054
184421
183777
183119
182447
181761
181058
180336
179595
178836
178068
177291
176500
175699
174890
174075
173255
172432
171604
170765
169919
169062
168192
167310
166417
165511
164595
163668
162725
161769
160799
159817
158828
157831
156818
155790
154743
153670
152580
151482
150377
149277
148186
147104
146028
144945
143848
142745
141639
140522
139393
138253
137105
135947
134784
133625
132474
131328
130183
129034
127875
126703
125516
124315
123101
121872
120627
119364
118084
116785
115480
114177
112889
111622
110376
109150
107944
106750
105557
104349
103113
101839
100523
99164.1
97770.2
96351.6
94921.5
93492.9
92075.9
90676.6
89297.3
87937.7
86596.1
85270.3
83958
82656.9
81364.9
80080
78800.2
77524.4
76251.7
74981.4
73713.3
72447.2
71183
69920.7
68660.2
67401.6
66144.7
64889.5
63636.1
62384.3
61134.1
59885.5
58638.7
57394
56151.5
54911.9
53675.9
52444.8
51219.5
50000.6
48788.5
47583.4
46384.5
45191.1
44003.3
42823.1
41649.4
40479.9
39318
38168.2
37032.8
35911.4
34798.2
33688.8
32586.2
31492.5
30408.9
29338.6
28282.6
27244
26226.4
25236.3
196894
196879
196848
196801
196737
196658
196562
196449
196320
196172
196006
195823
195620
195396
195152
194888
194603
194297
193970
193622
193254
192866
192459
192034
191591
191131
190656
190166
189662
189144
188613
188069
187512
186939
186351
185746
185125
184492
183844
183183
182506
181813
181103
180379
179641
178887
178119
177338
176543
175738
174926
174109
173289
172465
171635
170796
169948
169092
168226
167349
166457
165550
164626
163689
162740
161779
160810
159831
158842
157844
156832
155801
154751
153679
152591
151493
150389
149289
148199
147118
146044
144967
143875
142776
141671
140555
139424
138280
137128
135971
134815
133663
132516
131372
130228
129078
127918
126745
125555
124351
123135
121905
120659
119394
118113
116813
115505
114201
112912
111643
110399
109181
107984
106797
105608
104402
103165
101890
100572
99210.4
97812.5
96389
94953.5
93519.4
92097.6
90694.5
89312.3
87950.4
86606.7
85279.1
83965.3
82663
81370.1
80084.6
78804.5
77528.5
76255.6
74985.3
73717
72450.9
71186.6
69924.3
68663.9
67405.2
66148.4
64893.3
63639.9
62388.2
61138.1
59889.6
58643
57398.5
56156.3
54917.1
53681.5
52450.6
51225.2
50006.1
48793.6
47587.9
46388.7
45195.7
44008.6
42827.7
41653.1
40484.6
39324.6
38175.8
37039.9
35916.8
34802.9
33694.5
32591.8
31497.2
30413.1
29341.7
28284.6
27244.5
26223.7
25226.5
197109
197094
197063
197017
196954
196874
196777
196663
196532
196383
196215
196030
195825
195600
195355
195088
194800
194490
194158
193806
193432
193038
192625
192193
191743
191277
190796
190300
189790
189267
188731
188181
187619
187042
186450
185843
185221
184587
183938
183275
182596
181901
181190
180465
179726
178970
178199
177414
176618
175813
175000
174181
173356
172526
171690
170847
169999
169144
168280
167403
166509
165596
164665
163723
162771
161810
160839
159859
158868
157867
156850
155815
154762
153693
152610
151516
150418
149322
148234
147155
146083
145010
143923
142821
141714
140596
139464
138319
137168
136015
134864
133717
132573
131431
130288
129138
127977
126802
125610
124403
123184
121952
120703
119436
118151
116848
115538
114232
112941
111674
110438
109230
108043
106864
105678
104473
103236
101960
100640
99275.3
97872.7
96442.9
95000
93558.5
92130
90721.3
89334.8
87969.4
86622.8
85292.6
83976.4
82672.2
81377.9
80091.6
78810.9
77534.6
76261.6
74991
73722.7
72456.4
71192.2
69929.9
68669.5
67410.9
66154.1
64899.1
63645.7
62394
61144
59895.7
58649.2
57404.8
56162.9
54924
53688.7
52458
51232.5
50013.1
48800.1
47593.8
46394
45200.6
44013.4
42832.5
41658.5
40491.6
39332.6
38184.5
37048.6
35924.9
34810.9
33702.6
32599.7
31505
30420.7
29348.3
28289
27245.9
26220.8
25216.7
197397
197382
197351
197304
197239
197157
197058
196941
196806
196654
196483
196295
196087
195860
195612
195341
195049
194734
194398
194039
193659
193259
192839
192401
191945
191473
190984
190482
189965
189435
188893
188337
187769
187186
186590
185979
185354
184716
184064
183398
182719
182024
181314
180589
179847
179088
178311
177519
176714
175900
175080
174253
173423
172589
171751
170908
170059
169204
168339
167459
166561
165643
164712
163771
162820
161860
160888
159905
158910
157901
156877
155836
154781
153715
152640
151557
150468
149380
148295
147217
146146
145073
143986
142883
141769
140647
139514
138371
137224
136075
134927
133784
132643
131503
130361
129211
128049
126871
125676
124465
123242
122007
120755
119485
118195
116890
115578
114270
112979
111719
110492
109295
108117
106944
105761
104556
103320
102043
100722
99355.3
97948.3
96511.7
95060.4
93609.9
92172.9
90757.1
89364.9
87994.9
86644.4
85310.8
83991.6
82684.9
81388.7
80101
78819.7
77542.9
76269.6
74998.9
73730.5
72464.2
71199.9
69937.7
68677.4
67418.9
66162.1
64907
63653.7
62402
61152
59903.7
58657.3
57413.1
56171.4
54932.7
53697.6
52467
51241.5
50021.8
48808.4
47601.6
46401.2
45207.4
44019.8
42838.6
41664.6
40498
39339.9
38192.3
37056.8
35933.6
34820
33712.1
32609.2
31514.6
30430.2
29357
28295.5
27249.1
26219.2
25208.2
197761
197745
197713
197664
197597
197513
197410
197289
197151
196994
196820
196627
196415
196183
195931
195657
195359
195038
194695
194329
193941
193534
193106
192660
192196
191716
191220
190710
190186
189649
189099
188537
187961
187373
186771
186156
185526
184883
184227
183557
182874
182178
181467
180739
179993
179227
178441
177638
176822
175996
175165
174329
173492
172655
171815
170971
170121
169264
168397
167514
166612
165695
164768
163833
162889
161933
160963
159978
158977
157959
156926
155878
154820
153757
152688
151615
150537
149458
148381
147305
146232
145155
144065
142958
141838
140711
139577
138436
137291
136145
135001
133861
132723
131585
130444
129294
128130
126949
125750
124534
123306
122066
120811
119536
118243
116937
115623
114315
113027
111774
110557
109369
108198
107028
105847
104643
103407
102132
100811
99443.7
98033.6
96591.1
95131.3
93671.2
92224.8
90800.8
89401.7
88026.1
86671
85333.2
84010.4
82700.7
81402.3
80113
78830.6
77553.2
76279.6
75008.8
73740.4
72474.1
71210
69947.9
68687.7
67429.3
66172.5
64917.4
63663.9
62412.2
61162.2
59913.8
58667.5
57423.3
56181.8
54943.2
53708.2
52477.6
51252.2
50032.3
48818.6
47611.4
46410.6
45216.3
44028.4
42846.9
41672.4
40505.6
39347.4
38199.7
37063.8
35940.2
34827
33719.9
32618
31524.2
30440.3
29366.8
28303.7
27254.3
26219.6
25202
198204
198187
198153
198100
198031
197942
197835
197710
197566
197405
197225
197027
196809
196571
196312
196031
195726
195398
195046
194672
194276
193860
193423
192968
192496
192008
191504
190986
190454
189909
189350
188780
188196
187600
186991
186369
185732
185082
184420
183744
183057
182356
181640
180906
180153
179379
178583
177768
176938
176099
175253
174405
173560
172717
171875
171031
170181
169325
168457
167572
166671
165760
164842
163918
162983
162034
161070
160087
159084
158061
157020
155965
154902
153837
152770
151700
150629
149556
148483
147411
146337
145255
144159
143047
141921
140788
139651
138509
137364
136221
135081
133944
132809
131673
130533
129383
128217
127033
125828
124607
123373
122127
120866
119587
118291
116984
115671
114365
113082
111835
110625
109444
108278
107110
105929
104725
103489
102216
100897
99531.6
98120.9
96674.5
95207.8
93738.8
92283.2
90850.6
89444.1
88062.3
86701.9
85359.5
84032.5
82719.5
81418.5
80127.4
78843.9
77565.8
76291.8
75021
73752.7
72486.6
71222.7
69960.8
68700.8
67442.6
66185.9
64930.5
63676.8
62424.9
61174.7
59926.2
58679.8
57435.7
56194.2
54955.6
53720.8
52490.2
51264.7
50044.7
48830.8
47623.2
46422
45227.4
44039.3
42857.5
41682.6
40515.3
39356.5
38207.6
37070.2
35945
34831
33724.7
32624.5
31532.2
30449.7
29376.6
28312.6
27260.6
26221.8
25198.8
198728
198708
198671
198615
198540
198446
198333
198201
198051
197883
197696
197489
197263
197017
196750
196461
196147
195810
195450
195067
194662
194237
193792
193328
192847
192350
191838
191312
190771
190217
189648
189066
188472
187864
187245
186612
185967
185310
184641
183960
183267
182560
181837
181096
180334
179548
178740
177911
177066
176210
175348
174487
173631
172784
171940
171096
170248
169393
168526
167643
166747
165846
164940
164027
163103
162165
161209
160232
159230
158206
157162
156102
155034
153965
152894
151822
150749
149676
148605
147534
146457
145371
144268
143148
142016
140877
139733
138587
137441
136298
135160
134026
132894
131760
130620
129470
128303
127115
125905
124678
123438
122184
120916
119633
118337
117030
115720
114417
113139
111897
110693
109516
108350
107182
105999
104794
103559
102287
100972
99610.1
98201.5
96754.3
95283.8
93808.5
92345.3
90904.8
89491.1
88103
86737
85389.4
84057.9
82741.2
81437.4
80144.3
78859.5
77580.7
76306.4
75035.6
73767.5
72501.9
71238.3
69976.8
68717
67458.9
66202.1
64946.7
63692.6
62440.2
61189.7
59941.1
58694.5
57450.4
56208.9
54970.3
53735.4
52504.8
51279.2
50059.1
48845
47637.1
46435.7
45240.8
44052.3
42870.3
41695.2
40527.4
39367.8
38217.5
37077.8
35949.6
34833.1
33726
32626.9
31536.9
30456.4
29384.8
28321
27267.5
26225.5
25198.2
199332
199311
199270
199210
199129
199029
198908
198767
198608
198431
198233
198017
197780
197524
197246
196946
196623
196277
195907
195516
195102
194668
194214
193742
193253
192747
192227
191691
191140
190574
189993
189398
188790
188169
187536
186893
186238
185573
184898
184212
183514
182802
182072
181321
180548
179749
178924
178077
177213
176338
175459
174583
173719
172866
172021
171178
170332
169479
168614
167734
166846
165956
165062
164159
163246
162319
161372
160401
159406
158385
157342
156281
155209
154133
153055
151977
150899
149824
148750
147675
146594
145501
144390
143263
142122
140975
139823
138670
137520
136374
135236
134104
132974
131842
130702
129551
128384
127194
125980
124747
123500
122238
120962
119675
118378
117073
115766
114469
113196
111957
110755
109579
108412
107240
106054
104845
103609
102340
101029
99672.3
98268.3
96823.8
95353.1
93875.1
92407.4
90961.2
89541.4
88147.5
86775.9
85423
84086.8
82766.1
81459.2
80163.9
78877.7
77598.2
76323.6
75052.9
73785.4
72520.2
71257.2
69996.3
68736.9
67478.8
66222
64966.3
63711.9
62459.1
61208
59958.9
58712
57467.8
56226.3
54987.6
53752.5
52521.8
51296
50075.7
48861.4
47653.1
46451.4
45256.3
44067.6
42885.4
41709.9
40541.7
39381.4
38229.8
37087.6
35956.1
34835.8
33726.1
32626.5
31537.6
30459
29389.3
28326.7
27273.4
26230
25199.6
200024
200001
199956
199890
199803
199694
199564
199414
199244
199054
198844
198615
198366
198098
197808
197497
197162
196806
196426
196025
195603
195160
194698
194217
193720
193206
192677
192131
191569
190990
190396
189786
189163
188528
187882
187227
186562
185889
185208
184516
183812
183092
182353
181591
180802
179985
179140
178271
177385
176489
175591
174702
173829
172972
172126
171285
170441
169590
168727
167851
166969
166088
165202
164309
163405
162487
161549
160586
159597
158582
157542
156483
155409
154326
153241
152155
151072
149992
148915
147835
146747
145646
144527
143390
142241
141084
139923
138760
137602
136451
135310
134178
133049
131917
130778
129627
128459
127269
126054
124816
123562
122292
121007
119713
118415
117110
115807
114515
113248
112012
110810
109631
108460
107282
106090
104878
103640
102372
101066
99714.8
98317
96877.7
95410.2
93933.9
92465.5
91016.8
89593.3
88194.6
86817.9
85459.9
84118.9
82794
81483.9
80186.3
78898.8
77618.6
76344
75073.8
73806.8
72542.4
71280.1
70019.8
68760.8
67502.9
66245.9
64989.9
63735.1
62481.9
61230.3
59980.5
58733.1
57488.6
56246.8
55007.9
53772.5
52541.4
51315.3
50094.6
48879.9
47671.4
46469.5
45274.1
44085.2
42902.7
41726.9
40558.3
39397.3
38244.4
37100.2
35965.5
34841.4
33728.1
32626
31536.1
30458.2
29389.9
28328.8
27276.6
26233.5
25201.9
200809
200783
200735
200663
200569
200452
200312
200151
199969
199766
199544
199302
199040
198757
198454
198130
197783
197414
197024
196612
196179
195727
195256
194767
194262
193740
193202
192646
192072
191480
190871
190247
189607
188956
188295
187625
186947
186262
185570
184867
184152
183421
182669
181890
181082
180243
179374
178481
177572
176654
175739
174839
173959
173100
172255
171416
170574
169725
168864
167991
167113
166236
165356
164469
163572
162661
161729
160772
159789
158778
157743
156686
155612
154527
153435
152344
151256
150173
149094
148010
146917
145809
144682
143537
142377
141209
140035
138860
137691
136532
135387
134253
133123
131990
130849
129696
128528
127340
126126
124886
123626
122348
121053
119750
118447
117141
115841
114555
113293
112059
110855
109671
108492
107306
106108
104891
103651
102384
101081
99736.6
98345.6
96913.1
95452
93980.7
92516
91068.4
89643.6
88242.2
86861.5
85499
84153.7
82824.9
81511.7
80211.9
78923.2
77642.8
76368.6
75099
73832.9
72569.3
71307.8
70048.1
68789.7
67532
66274.9
65018.4
63763.1
62509.4
61257.2
60006.6
58758.5
57513.4
56271.2
55031.9
53795.9
52564.2
51337.5
50116.2
48900.9
47692.1
46489.9
45294.2
44105.1
42922.3
41746.2
40577.1
39415.5
38261.4
37115.4
35978.2
34850.8
33733.8
32628.1
31535.4
30455.9
29387.3
28327.4
27276.5
26234.5
25203.3
201695
201667
201614
201538
201437
201312
201164
200994
200802
200588
200354
200099
199824
199528
199210
198870
198509
198125
197720
197295
196850
196387
195906
195408
194893
194361
193812
193243
192656
192048
191422
190778
190120
189449
188767
188078
187380
186676
185965
185245
184513
183765
182995
182197
181367
180506
179614
178701
177772
176838
175908
174998
174113
173252
172408
171571
170731
169883
169022
168149
167272
166396
165518
164634
163740
162832
161904
160950
159968
158959
157925
156871
155799
154715
153623
152531
151443
150361
149281
148197
147101
145988
144855
143702
142531
141350
140162
138972
137790
136622
135470
134332
133198
132062
130918
129764
128596
127409
126198
124958
123693
122405
121097
119784
118473
117165
115867
114587
113330
112097
110888
109697
108509
107314
106108
104887
103644
102376
101076
99736.7
98352.9
96928.6
95476.5
94014
92556.2
91112.9
89689.9
88287.8
86904.8
85539.2
84190.5
82858.7
81542.9
80241.5
78951.9
77671.6
76398.3
75129.8
73864.8
72602.2
71341.6
70082.6
68824.9
67567.5
66310.1
65053
63797
62542.6
61289.6
60038.2
58789.1
57543.1
56300
55059.8
53823
52590.5
51363
50140.9
48924.9
47715.5
46513
45317.1
44127.7
42944.7
41768.3
40598.7
39436.2
38281
37133.5
35994.2
34864.2
33744
32634.7
31538.1
30455.1
29384.3
28323.8
27273.7
26233
25202.7
202695
202664
202609
202529
202424
202295
202143
201967
201768
201546
201301
201035
200745
200433
200097
199739
199358
198955
198531
198089
197627
197148
196653
196140
195611
195064
194498
193912
193306
192680
192033
191368
190686
189991
189284
188568
187844
187114
186376
185631
184875
184103
183310
182489
181638
180756
179849
178922
177982
177038
176102
175185
174294
173429
172583
171745
170904
170055
169194
168320
167441
166561
165681
164797
163902
162992
162063
161108
160125
159114
158081
157028
155959
154878
153792
152705
151622
150544
149469
148387
147292
146178
145042
143881
142699
141504
140300
139096
137900
136720
135560
134415
133277
132138
130992
129836
128667
127481
126270
125029
123757
122458
121138
119814
118495
117183
115886
114610
113357
112124
110908
109707
108508
107304
106089
104862
103616
102346
101048
99713.3
98336.9
96922.9
95482.7
94032.3
92584.6
91148.7
89729.8
88329.4
86946
85578.9
84228.5
82895.1
81578
80275.8
78986.1
77706.5
76434.3
75167.2
73903.7
72642.1
71382.5
70124.5
68867.6
67610.6
66353.1
65095.4
63838.4
62582.7
61328.7
60076.1
58825.7
57578.2
56333.8
55092.2
53854.1
52620.6
51392.1
50169.1
48952.2
47742.3
46539.3
45343.2
44153.6
42970.5
41793.7
40623.6
39460.3
38303.9
37154.9
36013.8
34881.5
33758.7
32646.3
31545.9
30458.5
29384
28321.2
27270.1
26229.6
25200.1
203828
203796
203740
203658
203553
203423
203269
203089
202884
202654
202397
202115
201806
201473
201115
200733
200327
199900
199451
198983
198497
197995
197476
196941
196390
195822
195235
194629
194001
193351
192680
191988
191277
190550
189811
189063
188307
187544
186775
185998
185212
184412
183593
182750
181880
180983
180066
179134
178192
177247
176310
175390
174494
173623
172769
171926
171081
170229
169365
168490
167608
166724
165839
164950
164050
163135
162199
161239
160252
159238
158203
157151
156086
155012
153933
152856
151782
150714
149645
148570
147480
146370
145234
144066
142873
141664
140445
139225
138016
136824
135654
134502
133360
132220
131074
129917
128745
127554
126339
125092
123813
122504
121174
119840
118512
117198
115900
114625
113374
112137
110913
109698
108487
107271
106048
104814
103564
102294
100996
99665.2
98297.1
96895.4
95469.8
94034.2
92599.7
91174
89762.1
88365.5
86983.9
85617.4
84267.4
82934.3
81617.5
80315.8
79026.8
77748.3
76477.7
75212.6
73950.3
72690
71431.4
70174.4
68918.3
67661.8
66404.5
65146.1
63888.1
62631.3
61375.8
60121.6
58869.4
57619.9
56373.4
55129.9
53890.2
52655.3
51425.6
50201.4
48983.5
47772.9
46569.6
45373.4
44183.8
43000.6
41823.6
40652.9
39488.6
38330.9
37180.3
36037.5
34903.2
33778.1
32663
31559.3
30467.7
29388.8
28322.3
27268.4
26226.5
25196.5
205115
205081
205023
204941
204835
204703
204545
204359
204143
203899
203625
203323
202993
202634
202247
201833
201395
200935
200453
199952
199434
198900
198352
197789
197210
196614
195999
195362
194703
194022
193318
192593
191849
191088
190314
189531
188741
187943
187139
186329
185511
184682
183838
182975
182091
181185
180264
179332
178394
177454
176519
175598
174699
173820
172958
172106
171253
170393
169525
168647
167763
166875
165983
165086
164178
163254
162310
161342
160350
159333
158297
157248
156187
155120
154051
152984
151921
150862
149803
148736
147655
146551
145417
144245
143042
141820
140586
139352
138129
136926
135747
134588
133445
132308
131165
130007
128829
127626
126399
125143
123857
122539
121202
119862
118529
117211
115912
114635
113378
112135
110898
109668
108442
107215
105983
104743
103489
102217
100920
99593.8
98235
96847.1
95438.3
94019.9
92601.2
91188.3
89785.6
88395.3
87017.9
85654.8
84307.5
82976.8
81662.1
80362.2
79075
77798.1
76529.3
75265.6
74004.8
72745.6
71487.7
70231.4
68976.4
67720.7
66463.5
65204.9
63946.4
62688.8
61431.8
60175.7
58921.4
57669.4
56420.2
55174.3
53932.3
52695.6
51464.2
50238.5
49019.5
47808.3
46604.9
45408.8
44219.7
43036.7
41859.6
40688.2
39522.7
38363.3
37210.8
36066.1
34929.7
33802.5
32685.2
31578.6
30483.3
29400.1
28329.1
27271.2
26226.1
25194
206606
206570
206508
206421
206308
206168
206000
205801
205571
205310
205017
204691
204332
203938
203511
203053
202569
202063
201538
200994
200435
199861
199272
198669
198050
197413
196757
196081
195383
194664
193924
193165
192388
191594
190787
189970
189146
188316
187479
186637
185789
184933
184067
183186
182291
181380
180457
179528
178595
177661
176731
175809
174904
174018
173146
172283
171420
170551
169675
168792
167904
167011
166112
165206
164288
163353
162399
161424
160426
159408
158373
157326
156269
155208
154148
153091
152038
150989
149938
148878
147804
146707
145575
144402
143193
141960
140714
139469
138234
137021
135834
134672
133530
132399
131263
130104
128915
127694
126448
125178
123886
122564
121227
119883
118547
117225
115922
114638
113371
112115
110864
109618
108376
107136
105895
104648
103391
102118
100823
99501.3
98152.9
96780.3
95390
93990.7
92589.4
91191.4
89800.5
88419.2
87049.1
85692.1
84350.2
83023.9
81712.8
80415.9
79131.3
77856.5
76589
75326.2
74066.1
72807.5
71550.2
70294.9
69040.3
67785.3
66528.9
65271.2
64013.4
62755.4
61497.5
60239.7
58983.2
57728.7
56476.6
55227.6
53982.7
52743.3
51509.6
50282.1
49061.9
47850.3
46647.1
45451.9
44263.6
43081.3
41904
40731.7
39564.4
38402.7
37247.8
36100.7
34962.1
33832.7
32713.2
31604
30505.6
29418.3
28342.7
27280.1
26230.5
25194.8
208232
208191
208120
208019
207891
207735
207549
207333
207082
206796
206471
206106
205700
205253
204769
204252
203710
203148
202569
201976
201367
200745
200110
199462
198798
198118
197422
196707
195973
195219
194447
193658
192851
192030
191194
190350
189500
188644
187783
186916
186044
185167
184283
183389
182485
181571
180649
179721
178792
177862
176934
176011
175100
174202
173319
172443
171569
170690
169805
168915
168022
167124
166218
165302
164373
163428
162465
161483
160481
159462
158428
157383
156330
155274
154221
153172
152125
151080
150032
148975
147903
146808
145680
144511
143303
142068
140816
139563
138322
137100
135906
134741
133601
132475
131344
130185
128985
127746
126480
125197
123898
122579
121244
119903
118566
117240
115930
114635
113352
112081
110814
109553
108296
107045
105794
104541
103280
102004
100710
99394.7
98057.4
96700.8
95329.6
93949.6
92566.4
91184.2
89807
88437.5
87077.7
85729.5
84394.9
83074.4
81767.9
80474.4
79192.4
77919
76652.2
75390
74130.3
72871.1
71613.6
70358.7
69105.3
67851.7
66596.8
65341.1
64085
62828.8
61571.3
60312.8
59054.6
57798.1
56543.1
55290.6
54042.2
52799.5
51563
50333.3
49112
47900.4
46698.2
45504.5
44317.7
43136.3
41958.9
40785.2
39615.3
38450.4
37292.2
36141.9
35000.7
33869
32747.3
31635.7
30534.3
29443.4
28363.5
27295.9
26241.3
25200.8
209841
209792
209704
209581
209426
209241
209026
208777
208491
208164
207791
207371
206905
206394
205845
205267
204668
204055
203428
202788
202136
201471
200795
200106
199404
198687
197956
197209
196446
195665
194868
194055
193227
192385
191531
190668
189799
188926
188047
187163
186275
185383
184485
183580
182669
181751
180829
179902
178973
178043
177116
176191
175273
174366
173469
172578
171691
170801
169907
169010
168111
167206
166293
165369
164431
163478
162509
161523
160520
159502
158469
157425
156374
155321
154270
153223
152176
151129
150080
149020
147946
146851
145726
144564
143365
142134
140884
139631
138387
137159
135959
134790
133646
132518
131387
130225
129016
127765
126486
125196
123895
122581
121252
119915
118578
117249
115931
114625
113329
112043
110763
109488
108219
106956
105696
104435
103168
101889
100596
99286.9
97960.7
96619.4
95265.7
93903.6
92537.5
91171.5
89808.9
88452.8
87105
85767
84440.5
83125.9
81823.7
80533.4
79253.1
77980.4
76713.3
75450.4
74189.6
72929.9
71672.2
70417.9
69166.3
67915.1
66662.9
65410.4
64157.6
62904.5
61649.6
60392.2
59134.2
57876.4
56618.9
55363.1
54111.1
52864.6
51625
50393.2
49171.2
47960.3
46760
45568.6
44383.9
43203.6
42026.1
40850.4
39676.9
38507.7
37344.9
36190.7
35046.2
33911.9
32787.9
31674
30569.9
29475.7
28391.8
27319.5
26259.8
25213.8
211440
211376
211263
211103
210904
210670
210403
210102
209763
209381
208952
208472
207943
207369
206759
206128
205484
204827
204159
203480
202789
202087
201374
200649
199913
199164
198403
197630
196842
196040
195224
194394
193550
192693
191825
190949
190066
189179
188286
187389
186489
185585
184677
183763
182845
181922
180997
180068
179137
178205
177275
176348
175425
174508
173598
172692
171790
170888
169986
169081
168175
167263
166343
165411
164467
163509
162537
161549
160547
159529
158498
157455
156404
155351
154298
153248
152197
151146
150090
149026
147948
146851
145729
144574
143384
142163
140921
139672
138429
137199
135992
134816
133665
132529
131390
130221
129008
127750
126468
125176
123878
122571
121250
119919
118585
117253
115928
114613
113307
112008
110716
109429
108149
106875
105605
104334
103060
101779
100487
99184.1
97868.5
96540.7
95202.3
93856.4
92506.9
91157.1
89810.2
88468.3
87133
85805.1
84485.9
83176.6
81877.7
80589.2
79309.7
78036.6
76767.9
75503.4
74241.5
72981
71723.5
70470.6
69222
67974.7
66726.8
65478.7
64230.4
62981.7
61730.8
60476.5
59220.6
57962.8
56703.8
55445.3
54189.9
52939.7
51697
50463.7
49241.8
48032.4
46834.9
45646.6
44464.6
43285.8
42107.9
40929.5
39751.3
38576.2
37407.5
36248
35099.3
33961.8
32835.2
31718.9
30612.3
29515.2
28427.7
27351.2
26286.5
25235
213046
212961
212810
212600
212338
212032
211691
211317
210908
210462
209974
209436
208852
208223
207564
206891
206209
205517
204812
204097
203370
202634
201888
201132
200366
199590
198803
198007
197199
196379
195545
194700
193842
192973
192094
191206
190312
189413
188510
187602
186691
185777
184859
183937
183012
182084
181153
180220
179286
178351
177417
176485
175556
174630
173708
172789
171873
170959
170047
169135
168220
167300
166373
165435
164486
163525
162551
161563
160561
159545
158514
157472
156420
155365
154309
153254
152198
151140
150077
149006
147923
146824
145702
144552
143370
142159
140928
139688
138449
137219
136009
134825