/*--------------------------------*- C++ -*----------------------------------*\
  =========                 |
  \\      /  F ield         | OpenFOAM: The Open Source CFD Toolbox
   \\    /   O peration     | Website:  https://openfoam.org
    \\  /    A nd           | Version:  9
     \\/     M anipulation  |
\*---------------------------------------------------------------------------*/
FoamFile
{
    format      ascii;
    class       volScalarField;
    location    "0.095";
    object      s_0;
}
// * * * * * * * * * * * * * * * * * * * * * * * * * * * * * * * * * * * * * //

dimensions      [0 0 0 0 0 0 0];

internalField   nonuniform List<scalar> 
12225
(
1
1
1
1
1
1
1
1
1
1
1
1
1
1
1
1
1
0.999996
1
1
1
1
1
1
1
1
1
1
1
1
1
1
1
1
1
1
1
1
1
1
1
1
1
1
1
1
1
1
1
1
1
1
1
1
1
1
1
1
1
1
1
1
1
1
1
1
1
1
1
1
1
1
1
1
1
1
1
1
1
1
1
1
1
1
1
1
1
1
1
1
1
1
1
1
1
1
1
1
1
1
1
1
1
1
1
1
1
1
1
1
1
1
1
1
1
1
1
1
1
1
1
1
1
1
1
1
1
1
1
1
1
1
1
1
1
1
1
1
1
1
1
1
1
1
1
1
1
1
1
1
1
1
1
1
1
1
1
1
1
1
1
1
1
1
1
1
1
1
1
1
1
1
1
1
1
1
1
1
1
1
1
1
1
1
1
1
1
1
1
1
1
1
1
1
1
1
1
1
1
1
1
1
1
1
1
1
1
1
1
1
1
1
1
1
1
1
1
1
1
1
1
1
1
1
1
1
1
1
1
1
1
1
1
1
1
1
1
1
1
1
1
1
1
1
1
1
1
1
1
1
1
1
1
1
1
1
1
1
1
1
1
1
1
1
1
1
1
1
1
1
1
1
1
1
1
1
1
1
1
1
1
1
1
1
1
1
1
1
1
1
1
1
1
1
1
1
1
1
1
1
1
1
1
1
1
1
1
1
1
1
1
1
1
1
1
1
1
1
1
1
1
1
1
1
1
1
1
1
1
1
1
1
1
1
1
1
1
1
1
1
1
1
1
1
1
1
1
1
1
1
1
1
1
1
1
1
1
1
1
1
1
1
1
1
1
1
1
1
1
1
1
1
1
1
1
1
1
1
1
1
1
1
1
1
1
1
1
1
1
1
1
1
1
1
1
1
1
1
1
1
1
1
1
1
1
1
1
1
1
1
1
1
1
1
1
1
1
1
1
1
1
1
1
1
1
1
1
1
1
1
1
1
1
1
1
1
1
1
1
1
1
1
1
1
1
1
1
1
1
1
1
1
1
1
1
1
1
1
1
1
1
1
1
1
1
1
1
1
1
1
1
1
1
1
1
1
1
1
1
1
1
1
1
1
1
1
1
1
1
1
1
1
1
1
1
1
1
1
1
1
1
1
1
1
1
1
1
1
1
1
1
1
1
1
1
1
1
1
1
1
1
1
1
1
1
1
1
1
1
1
1
1
1
1
1
1
1
1
1
1
0.71287
0.710954
0.713361
0.715498
0.715908
0.716335
0.717358
0.71974
0.721984
0.725127
0.727878
0.730303
0.731855
0.732417
0.732375
0.732064
0.731172
0.729829
0.728696
0.727991
0.72778
0.727931
0.728455
0.728714
0.728853
0.729148
0.730351
0.736264
0.746628
0.752242
0.754376
0.755628
0.758391
0.76404
0.768538
0.774639
0.779472
0.781223
0.782087
0.784917
0.789912
0.79496
0.811089
0.857121
0.882107
0.883396
0.879996
0.876623
0.871898
0.865335
0.857785
0.850563
0.847097
0.846501
0.847654
0.854044
0.869806
0.878487
0.879754
0.880148
0.880828
0.882716
0.885778
0.889416
0.892833
0.895709
0.898132
0.900361
0.902639
0.905138
0.90776
0.910329
0.912727
0.914816
0.916435
0.917227
0.91757
0.917662
0.917352
0.915482
0.913552
0.913266
0.913378
0.914227
0.917023
0.922956
0.932018
0.942544
0.950129
0.953367
0.955472
0.958484
0.960721
0.961329
0.961454
0.961399
0.961337
0.962003
0.964252
0.964905
0.964917
0.963998
0.963196
0.962414
0.961384
0.961521
0.961375
0.958881
0.953407
0.950906
0.946776
0.942211
0.942775
0.947443
0.949119
0.949624
0.95018
0.950599
0.950984
0.951303
0.95167
0.952111
0.952531
0.952945
0.95346
0.954096
0.954846
0.955659
0.956489
0.957152
0.957686
0.95802
0.958167
0.958191
0.957735
0.956738
0.955667
0.954042
0.951999
0.949344
0.946187
0.94264
0.938917
0.935395
0.932698
0.931001
0.929944
0.929392
0.929225
0.929242
0.929425
0.92985
0.930342
0.930895
0.931458
0.931859
0.932205
0.93249
0.932575
0.932555
0.93248
0.932284
0.931918
0.931596
0.931375
0.931338
0.931426
0.932418
0.934486
0.924257
0.887079
0.88254
0.883558
0.88422
0.884675
0.884185
0.883028
0.882667
0.884022
0.889581
0.714443
0.710547
0.710124
0.710894
0.712942
0.717142
0.722598
0.732453
0.743177
0.756265
0.766173
0.773858
0.778535
0.778972
0.778452
0.777034
0.774047
0.769748
0.763704
0.755949
0.747383
0.74043
0.736766
0.735816
0.736339
0.739672
0.742451
0.745131
0.748698
0.750601
0.750812
0.750556
0.750789
0.75403
0.763501
0.771684
0.777358
0.779003
0.781634
0.789328
0.831247
0.863892
0.876848
0.883908
0.886052
0.880739
0.868789
0.853256
0.847737
0.845913
0.845395
0.845703
0.848473
0.852899
0.857272
0.862999
0.867816
0.869633
0.870852
0.876242
0.890632
0.899097
0.900788
0.901352
0.901522
0.901462
0.90077
0.900378
0.90031
0.900761
0.902741
0.904919
0.907111
0.909892
0.912699
0.915888
0.919767
0.924942
0.931602
0.938489
0.945189
0.9521
0.956933
0.959547
0.962866
0.966462
0.968464
0.970483
0.972623
0.973632
0.974867
0.976527
0.977402
0.977921
0.978368
0.978568
0.978633
0.978525
0.978443
0.978348
0.977472
0.974002
0.970655
0.965647
0.959959
0.958993
0.960961
0.962418
0.961518
0.960582
0.957811
0.947029
0.944617
0.949032
0.951004
0.953136
0.955309
0.957171
0.959004
0.960542
0.961991
0.963624
0.965162
0.966705
0.968298
0.969846
0.971154
0.972266
0.973177
0.973881
0.974528
0.97523
0.975854
0.976473
0.976921
0.977113
0.977175
0.976999
0.976624
0.975938
0.974738
0.972963
0.970555
0.967061
0.962224
0.956796
0.95168
0.947537
0.945017
0.944227
0.944223
0.944469
0.94527
0.946703
0.947813
0.948315
0.948361
0.948288
0.948038
0.947425
0.946557
0.945033
0.943179
0.941022
0.937799
0.934146
0.9314
0.930729
0.931715
0.929933
0.920383
0.903798
0.898748
0.901594
0.908525
0.910699
0.905966
0.890756
0.878109
0.874082
0.722457
0.717544
0.71603
0.719526
0.72797
0.746513
0.766719
0.78382
0.793924
0.799531
0.80021
0.799804
0.798492
0.79587
0.793275
0.790481
0.787633
0.784763
0.781524
0.777306
0.772738
0.767032
0.7596
0.752311
0.747819
0.746642
0.746925
0.749834
0.754463
0.755935
0.75571
0.753947
0.753969
0.757837
0.769194
0.775633
0.778263
0.78466
0.828496
0.867543
0.882253
0.888
0.88963
0.886959
0.874779
0.855183
0.846287
0.843897
0.843504
0.843549
0.84457
0.846606
0.849568
0.852725
0.855566
0.858579
0.864382
0.876743
0.903042
0.945999
0.963784
0.967555
0.968527
0.96877
0.968762
0.967975
0.966036
0.963372
0.960269
0.956674
0.952436
0.948412
0.943879
0.938084
0.930839
0.922434
0.915955
0.913336
0.912571
0.913372
0.918543
0.926367
0.932147
0.938667
0.947381
0.95133
0.95467
0.959068
0.961461
0.963024
0.965171
0.967582
0.969141
0.971843
0.973919
0.976176
0.97795
0.979877
0.981107
0.98163
0.981598
0.979807
0.976357
0.970733
0.96115
0.956159
0.954585
0.954968
0.956944
0.957659
0.954945
0.946109
0.948417
0.953286
0.957834
0.962438
0.965614
0.967818
0.969842
0.971534
0.973002
0.974097
0.974972
0.975946
0.976483
0.97678
0.976867
0.976881
0.976872
0.976859
0.97693
0.977207
0.977549
0.977926
0.978401
0.978855
0.979208
0.979561
0.979846
0.979998
0.979929
0.97955
0.978628
0.97734
0.975793
0.97403
0.972365
0.970834
0.969625
0.968733
0.967717
0.966607
0.964979
0.963094
0.961355
0.959751
0.958464
0.957568
0.956839
0.956098
0.955563
0.955243
0.954591
0.953664
0.952896
0.951299
0.947579
0.938712
0.934383
0.932063
0.929769
0.924037
0.921662
0.922699
0.926134
0.932337
0.936544
0.937218
0.934443
0.916633
0.738906
0.734472
0.740994
0.760371
0.787876
0.8025
0.80823
0.808657
0.807469
0.804062
0.799337
0.791778
0.783265
0.77297
0.766745
0.762556
0.761915
0.762898
0.764431
0.764958
0.764492
0.763579
0.762932
0.762045
0.760651
0.758909
0.758008
0.758358
0.760097
0.761136
0.761038
0.760795
0.7634
0.775764
0.780168
0.779674
0.791997
0.852494
0.885374
0.896514
0.899281
0.898966
0.891373
0.873616
0.846939
0.837313
0.835501
0.835477
0.8367
0.839038
0.841478
0.843323
0.844876
0.84744
0.852195
0.862576
0.881843
0.917223
0.964391
0.979373
0.982936
0.983985
0.984357
0.984509
0.984585
0.984639
0.984718
0.984773
0.984793
0.984771
0.984596
0.984188
0.983539
0.982286
0.980164
0.97672
0.971283
0.963254
0.951918
0.940372
0.93351
0.928663
0.926486
0.925865
0.928182
0.935691
0.938915
0.941436
0.946109
0.948372
0.950272
0.953443
0.95483
0.957582
0.959843
0.961853
0.96348
0.967119
0.972463
0.976965
0.979642
0.979938
0.97722
0.971876
0.967512
0.959206
0.954297
0.950821
0.949741
0.950067
0.948187
0.946748
0.953084
0.95724
0.962251
0.966258
0.969729
0.972573
0.974814
0.976328
0.977356
0.977762
0.977917
0.977948
0.977762
0.977224
0.97654
0.975881
0.97519
0.974293
0.973875
0.973818
0.973829
0.973925
0.97404
0.974438
0.975124
0.976137
0.977462
0.978735
0.979548
0.979871
0.979737
0.97909
0.978171
0.977078
0.976094
0.974768
0.973667
0.972412
0.970547
0.968579
0.965688
0.962919
0.96079
0.959323
0.958473
0.957916
0.957596
0.957506
0.957492
0.957383
0.957136
0.956745
0.956362
0.955916
0.955051
0.953121
0.946868
0.938028
0.933363
0.929963
0.929041
0.929382
0.931175
0.934074
0.938248
0.94257
0.944021
0.941652
0.736244
0.742511
0.776154
0.808055
0.814359
0.813399
0.808769
0.798621
0.783979
0.762057
0.741675
0.72067
0.704141
0.692493
0.691691
0.694142
0.70186
0.714557
0.72786
0.739337
0.749204
0.754577
0.758916
0.76473
0.767535
0.769103
0.770735
0.771162
0.771914
0.773918
0.779326
0.785426
0.789859
0.788499
0.78303
0.794509
0.854142
0.899286
0.913791
0.917383
0.916999
0.909868
0.892682
0.865607
0.841778
0.83542
0.834358
0.834425
0.835507
0.837759
0.840412
0.843032
0.846418
0.85355
0.869171
0.900033
0.95006
0.974262
0.980931
0.982677
0.982974
0.982923
0.982656
0.982258
0.982073
0.982041
0.982249
0.982902
0.983656
0.984351
0.984978
0.985526
0.985884
0.986093
0.986172
0.986159
0.985763
0.985192
0.984385
0.982873
0.980719
0.977642
0.973638
0.968786
0.963539
0.960202
0.958673
0.957891
0.957583
0.957914
0.958085
0.958773
0.958988
0.959745
0.960685
0.960761
0.960116
0.960903
0.963643
0.967631
0.971434
0.973201
0.972746
0.971214
0.970927
0.966813
0.957454
0.949663
0.946491
0.946301
0.946542
0.949644
0.955101
0.958461
0.962859
0.966444
0.969707
0.972385
0.974501
0.975643
0.976008
0.975912
0.975122
0.973828
0.972119
0.97012
0.968991
0.96867
0.968773
0.969819
0.97136
0.971938
0.972185
0.972226
0.971982
0.971623
0.971323
0.97114
0.971193
0.97184
0.973214
0.974955
0.976529
0.977302
0.977274
0.976615
0.97572
0.974002
0.972448
0.96953
0.966035
0.962559
0.960152
0.959136
0.958402
0.958222
0.958406
0.959051
0.960404
0.961313
0.962542
0.962925
0.962777
0.962231
0.960838
0.959581
0.958597
0.95763
0.955641
0.950324
0.94098
0.934711
0.932401
0.932241
0.932682
0.934982
0.93767
0.940927
0.946986
0.948565
0.739157
0.779181
0.815368
0.817859
0.81143
0.795329
0.761934
0.726531
0.696517
0.678418
0.667911
0.662135
0.661647
0.663236
0.667499
0.676569
0.693156
0.71097
0.728716
0.750338
0.770737
0.784476
0.797553
0.814406
0.828478
0.832381
0.831946
0.829475
0.823866
0.817118
0.81044
0.803205
0.796058
0.789546
0.794859
0.845873
0.90482
0.927851
0.936474
0.938212
0.937277
0.929405
0.908407
0.877233
0.850278
0.841349
0.839394
0.83924
0.840202
0.843291
0.848803
0.857771
0.873908
0.903527
0.942391
0.966377
0.974534
0.976781
0.977107
0.97644
0.974342
0.973038
0.97265
0.972559
0.972558
0.97267
0.973006
0.973471
0.973962
0.974595
0.975426
0.976601
0.977936
0.979446
0.980975
0.982479
0.983891
0.984876
0.985409
0.98564
0.985729
0.985697
0.985435
0.985087
0.984676
0.984246
0.983824
0.983453
0.983134
0.982924
0.982768
0.982412
0.98218
0.981785
0.981514
0.980733
0.977606
0.97426
0.972206
0.971564
0.972426
0.972421
0.971247
0.970798
0.972453
0.97224
0.962162
0.947482
0.944107
0.944962
0.946681
0.952031
0.955267
0.958428
0.962264
0.964888
0.966904
0.968513
0.969853
0.970289
0.969805
0.968159
0.965355
0.961962
0.960445
0.959897
0.960091
0.961979
0.965411
0.968338
0.971562
0.974268
0.976015
0.976679
0.976181
0.974791
0.973343
0.971847
0.970687
0.969936
0.969329
0.968999
0.969041
0.969481
0.969938
0.969873
0.96915
0.967238
0.964406
0.962126
0.960548
0.959644
0.958944
0.958971
0.959436
0.960729
0.963508
0.967349
0.971961
0.975168
0.978155
0.979696
0.979562
0.978692
0.976318
0.971788
0.967828
0.965062
0.962768
0.959353
0.951017
0.9415
0.936121
0.934268
0.934219
0.935013
0.937826
0.940214
0.945304
0.950246
0.790951
0.818589
0.820454
0.80559
0.763362
0.712147
0.684409
0.669112
0.660533
0.655516
0.654414
0.655657
0.659749
0.668894
0.689025
0.715321
0.75632
0.790659
0.826596
0.857581
0.874708
0.880315
0.88155
0.881077
0.878383
0.868593
0.855414
0.845231
0.833765
0.821789
0.811115
0.802057
0.796371
0.798937
0.837173
0.904497
0.933763
0.948416
0.953948
0.955156
0.954884
0.95105
0.940261
0.921605
0.899723
0.880779
0.874988
0.874169
0.875643
0.882953
0.897863
0.918948
0.942851
0.960979
0.968835
0.971692
0.972294
0.971743
0.969033
0.968207
0.967899
0.967825
0.968018
0.968682
0.969272
0.969653
0.97028
0.970812
0.971205
0.971663
0.971886
0.972135
0.972311
0.972509
0.972714
0.973068
0.973675
0.974629
0.975961
0.97741
0.978801
0.980071
0.981115
0.981966
0.98259
0.983078
0.983476
0.983844
0.98423
0.984652
0.985086
0.985503
0.986007
0.986496
0.987057
0.987465
0.987616
0.987624
0.987565
0.987183
0.98672
0.985141
0.979299
0.97536
0.977239
0.97777
0.966468
0.946775
0.94318
0.944933
0.947495
0.952625
0.955062
0.95752
0.958993
0.957252
0.95328
0.951046
0.950027
0.949374
0.948572
0.947455
0.947285
0.947738
0.947586
0.948311
0.950178
0.95389
0.958485
0.964356
0.969866
0.975636
0.980068
0.984391
0.986737
0.987148
0.98521
0.981807
0.977805
0.974434
0.971447
0.969248
0.967854
0.966777
0.965977
0.96503
0.964019
0.96279
0.961781
0.960973
0.960396
0.960506
0.96108
0.962601
0.965803
0.971665
0.978967
0.985357
0.990389
0.993064
0.994578
0.995304
0.995308
0.995051
0.994304
0.992524
0.98798
0.982278
0.977338
0.973475
0.967876
0.954672
0.943616
0.937935
0.935999
0.936009
0.937495
0.939908
0.943744
0.949735
0.808278
0.824669
0.806557
0.742381
0.692489
0.673829
0.663981
0.658143
0.65483
0.654455
0.660309
0.676401
0.704872
0.751553
0.815294
0.857686
0.886451
0.898196
0.899179
0.896553
0.891037
0.883044
0.872254
0.863436
0.855505
0.84607
0.837318
0.829745
0.821055
0.812501
0.806076
0.802815
0.807005
0.839328
0.905576
0.93669
0.952629
0.962088
0.965094
0.965787
0.965711
0.963703
0.958077
0.950733
0.942412
0.934236
0.931732
0.931593
0.93351
0.939163
0.947845
0.957262
0.964295
0.967145
0.968094
0.968198
0.965704
0.963515
0.962564
0.962016
0.961818
0.961873
0.962393
0.963031
0.964276
0.965484
0.967208
0.968664
0.969871
0.971027
0.971742
0.97225
0.972492
0.972611
0.972487
0.972188
0.971758
0.971316
0.971157
0.971104
0.971191
0.971437
0.971833
0.972474
0.97319
0.973897
0.974507
0.974958
0.975347
0.975655
0.976127
0.97697
0.97841
0.980431
0.98272
0.984775
0.986407
0.987749
0.98876
0.989487
0.990061
0.990429
0.989949
0.987115
0.987466
0.987297
0.97352
0.947024
0.942681
0.945163
0.949041
0.952508
0.954111
0.954163
0.947571
0.934882
0.928227
0.92552
0.924528
0.924498
0.924739
0.924496
0.925427
0.926782
0.927331
0.929565
0.931584
0.935575
0.941986
0.951728
0.961686
0.97183
0.97925
0.985153
0.989499
0.992528
0.994197
0.994361
0.992848
0.989324
0.983989
0.97808
0.973373
0.970098
0.967915
0.966329
0.96537
0.964781
0.964572
0.964738
0.965302
0.966542
0.969076
0.974722
0.98278
0.990069
0.994276
0.996616
0.997848
0.998409
0.998627
0.99861
0.998502
0.998332
0.998231
0.99803
0.997351
0.995511
0.991159
0.986894
0.982869
0.97578
0.959221
0.945864
0.939489
0.937662
0.937993
0.93975
0.942706
0.948561
0.812723
0.824085
0.754272
0.692011
0.674804
0.666377
0.660773
0.658192
0.662432
0.679723
0.716757
0.775512
0.840612
0.883709
0.905036
0.911244
0.909569
0.903515
0.895493
0.886912
0.878168
0.870844
0.858672
0.844609
0.83288
0.824881
0.820155
0.816308
0.81325
0.81149
0.81104
0.820383
0.856433
0.911421
0.939558
0.954722
0.965571
0.969855
0.971115
0.971318
0.970734
0.968165
0.964747
0.961389
0.958481
0.956093
0.955422
0.955522
0.956503
0.958528
0.960913
0.962906
0.963963
0.964211
0.961564
0.956724
0.952616
0.950483
0.948517
0.94768
0.947383
0.947456
0.948765
0.950084
0.951841
0.953592
0.955554
0.958139
0.961031
0.964207
0.967374
0.970201
0.972161
0.97344
0.974375
0.974957
0.97521
0.975292
0.974632
0.973705
0.972673
0.971803
0.971394
0.971603
0.97211
0.97273
0.973242
0.973431
0.973395
0.972887
0.971972
0.970745
0.969507
0.968576
0.968956
0.971285
0.9751
0.979656
0.983998
0.987083
0.989193
0.9904
0.991072
0.991596
0.992097
0.99177
0.982488
0.950487
0.942639
0.94517
0.949335
0.951918
0.951278
0.946536
0.927826
0.916654
0.912219
0.91056
0.910475
0.911613
0.912802
0.914217
0.916
0.917943
0.919038
0.921251
0.922707
0.92489
0.927582
0.932322
0.942213
0.956182
0.970554
0.981038
0.988334
0.992741
0.995382
0.996985
0.99767
0.997537
0.996496
0.993922
0.989089
0.983774
0.979497
0.97697
0.976003
0.975976
0.976188
0.97678
0.978121
0.980897
0.98707
0.992424
0.99577
0.997728
0.998728
0.999192
0.999298
0.999231
0.999035
0.998813
0.998295
0.998073
0.99812
0.998331
0.998378
0.99821
0.997418
0.995147
0.992473
0.988534
0.980241
0.961335
0.946958
0.940597
0.939376
0.940071
0.942236
0.947198
0.813855
0.812828
0.711486
0.681483
0.672046
0.6664
0.666763
0.679352
0.711297
0.764895
0.8292
0.881219
0.908841
0.918332
0.919393
0.914726
0.905616
0.896528
0.892523
0.890151
0.884914
0.873602
0.85926
0.843837
0.832992
0.826735
0.823184
0.821698
0.822757
0.829304
0.849221
0.883492
0.919585
0.944679
0.956755
0.966636
0.971938
0.973623
0.973969
0.973711
0.971897
0.96907
0.966073
0.963844
0.96273
0.961972
0.961425
0.961109
0.960865
0.960696
0.960573
0.959809
0.956805
0.950131
0.944847
0.941421
0.93973
0.938766
0.938442
0.938457
0.939543
0.94076
0.942729
0.944952
0.947374
0.94966
0.951264
0.952255
0.953269
0.954283
0.955639
0.95769
0.960799
0.964468
0.968305
0.97179
0.974542
0.97632
0.97781
0.978888
0.979555
0.979994
0.979879
0.979757
0.979854
0.980322
0.980843
0.981096
0.980922
0.980046
0.978225
0.97506
0.970903
0.967477
0.965239
0.964391
0.964602
0.966271
0.970232
0.976785
0.983582
0.987511
0.989685
0.99171
0.992789
0.992693
0.98897
0.959079
0.943263
0.944968
0.949197
0.950627
0.948257
0.930817
0.913398
0.906503
0.903776
0.903723
0.904937
0.907188
0.90906
0.911413
0.913218
0.915257
0.917523
0.919539
0.920488
0.921779
0.922809
0.924499
0.927493
0.933873
0.949147
0.968371
0.981638
0.990129
0.994768
0.997102
0.998311
0.998924
0.999042
0.998793
0.997958
0.996406
0.994653
0.993369
0.992841
0.992773
0.992833
0.993069
0.993771
0.995498
0.997193
0.998393
0.999141
0.999519
0.999618
0.999572
0.999416
0.998906
0.997793
0.996682
0.994308
0.993751
0.994056
0.995022
0.996855
0.99784
0.997971
0.997756
0.997
0.995225
0.991229
0.980816
0.960013
0.946638
0.9417
0.941265
0.942415
0.946153
0.814004
0.790324
0.700488
0.680459
0.675962
0.679441
0.697445
0.738657
0.796934
0.851727
0.890206
0.916088
0.925227
0.926261
0.922249
0.910822
0.90626
0.906453
0.908263
0.908661
0.9066
0.899064
0.885215
0.870013
0.860663
0.855934
0.85439
0.859315
0.871089
0.889349
0.911331
0.933063
0.949033
0.959901
0.967103
0.972614
0.974729
0.975245
0.975224
0.974139
0.971859
0.968627
0.965398
0.963729
0.962926
0.962425
0.961798
0.960983
0.959832
0.957795
0.953763
0.947733
0.941927
0.938541
0.936092
0.934933
0.934369
0.934153
0.934135
0.934681
0.935513
0.937086
0.939111
0.942009
0.945281
0.948768
0.95139
0.952963
0.953705
0.953938
0.953975
0.954167
0.954608
0.955271
0.956275
0.958183
0.96123
0.965533
0.970373
0.975118
0.97878
0.981045
0.982758
0.983994
0.984893
0.985456
0.985678
0.985684
0.985625
0.985597
0.985552
0.985153
0.983221
0.97774
0.970335
0.965665
0.964021
0.963826
0.964533
0.966433
0.97127
0.980257
0.985655
0.989332
0.992085
0.992653
0.99125
0.97282
0.945452
0.944683
0.948636
0.948912
0.941671
0.921725
0.906309
0.899983
0.899294
0.901453
0.903631
0.906654
0.909018
0.911873
0.914021
0.916274
0.918119
0.918978
0.919784
0.920512
0.920966
0.921647
0.922874
0.925298
0.930813
0.946878
0.968434
0.983086
0.991758
0.996166
0.998178
0.999064
0.99948
0.999609
0.99956
0.99932
0.99897
0.998707
0.998582
0.998552
0.998555
0.998592
0.998753
0.999143
0.999491
0.999706
0.99982
0.999799
0.999712
0.999411
0.998561
0.996278
0.991863
0.987745
0.981715
0.979835
0.98056
0.982764
0.987985
0.993475
0.996498
0.997539
0.997642
0.997362
0.996027
0.991543
0.976735
0.956211
0.945761
0.943104
0.943327
0.945822
0.813968
0.781024
0.69917
0.687763
0.691785
0.707527
0.742339
0.796322
0.849578
0.886656
0.908344
0.925137
0.932065
0.932023
0.924532
0.914294
0.912869
0.915533
0.925173
0.929615
0.929212
0.92538
0.918579
0.911511
0.908035
0.906651
0.907828
0.913726
0.921928
0.933578
0.944103
0.954602
0.962842
0.96775
0.972479
0.974953
0.975749
0.975865
0.975434
0.973929
0.97072
0.96531
0.962629
0.961916
0.961502
0.960884
0.959644
0.957351
0.953356
0.94799
0.942589
0.938433
0.935479
0.933811
0.932916
0.932489
0.932293
0.932229
0.932263
0.932491
0.932833
0.933412
0.934446
0.936286
0.939804
0.945074
0.950839
0.954108
0.956264
0.957718
0.958456
0.958228
0.957272
0.956093
0.9553
0.955262
0.95566
0.956518
0.957863
0.960338
0.96451
0.969932
0.975201
0.979376
0.982057
0.983237
0.9835
0.98321
0.982943
0.9832
0.984229
0.985454
0.986073
0.985584
0.983415
0.977653
0.972159
0.968901
0.966998
0.966083
0.966643
0.969889
0.978506
0.9855
0.989799
0.991678
0.99151
0.985207
0.952649
0.945093
0.947452
0.947758
0.940556
0.915887
0.901498
0.897401
0.89774
0.900851
0.903809
0.907762
0.91173
0.915803
0.917938
0.919128
0.919493
0.919452
0.919348
0.919268
0.919674
0.920135
0.920897
0.922098
0.924584
0.930677
0.95107
0.972232
0.986186
0.993768
0.997362
0.998893
0.999503
0.999755
0.999842
0.999844
0.999804
0.99976
0.999739
0.999732
0.999733
0.999742
0.999782
0.99986
0.999916
0.999928
0.999904
0.999802
0.999384
0.998071
0.994703
0.987091
0.974879
0.964955
0.95665
0.953559
0.954085
0.956819
0.963701
0.978197
0.98923
0.99498
0.99708
0.997492
0.997299
0.995708
0.988911
0.968176
0.951714
0.94564
0.944924
0.946229
0.815398
0.778064
0.702144
0.696949
0.708494
0.73495
0.778939
0.836309
0.880435
0.900525
0.911614
0.926454
0.938309
0.939407
0.932305
0.919451
0.916926
0.919665
0.932319
0.944036
0.945543
0.944384
0.941292
0.939194
0.938477
0.938807
0.941227
0.944318
0.948513
0.95484
0.960254
0.964663
0.969055
0.971927
0.974481
0.975623
0.975973
0.975965
0.975335
0.973184
0.968283
0.961654
0.958223
0.956952
0.95653
0.955894
0.953674
0.949778
0.945217
0.940757
0.937061
0.934294
0.93289
0.932155
0.931832
0.931708
0.931673
0.931706
0.931769
0.931894
0.9321
0.932391
0.932918
0.933885
0.935396
0.938176
0.943996
0.951537
0.955747
0.958069
0.959719
0.961138
0.962375
0.963188
0.963
0.961592
0.959691
0.957896
0.957202
0.957274
0.958066
0.959456
0.961321
0.964003
0.96702
0.969509
0.970572
0.97034
0.969838
0.970069
0.971967
0.975886
0.980907
0.984409
0.985766
0.986097
0.986218
0.985548
0.982856
0.97736
0.971058
0.968965
0.970763
0.978198
0.986543
0.9902
0.990933
0.989368
0.967656
0.947156
0.946569
0.94644
0.940952
0.916814
0.898512
0.893608
0.895526
0.901445
0.90725
0.9131
0.917435
0.919826
0.920935
0.920599
0.919817
0.918821
0.917461
0.916477
0.916348
0.917352
0.918946
0.920436
0.921963
0.925026
0.9345
0.958948
0.978659
0.990184
0.995891
0.998393
0.999387
0.999755
0.999893
0.999941
0.999952
0.999953
0.999952
0.999952
0.999953
0.999957
0.999967
0.999978
0.999974
0.999953
0.999853
0.999417
0.99786
0.9933
0.982037
0.962762
0.950765
0.945696
0.943821
0.942897
0.942538
0.942583
0.943733
0.948455
0.965142
0.98486
0.993701
0.996725
0.997241
0.996895
0.993935
0.980339
0.959186
0.949052
0.946706
0.947172
0.820148
0.777678
0.705223
0.70083
0.720426
0.758182
0.808815
0.865664
0.893801
0.904779
0.911507
0.923909
0.942612
0.947345
0.944982
0.930905
0.921886
0.921695
0.928899
0.945905
0.954651
0.955909
0.955432
0.954754
0.954674
0.956158
0.958655
0.960474
0.962037
0.964694
0.967694
0.969759
0.971719
0.973499
0.974943
0.975627
0.975925
0.975861
0.974802
0.97117
0.964651
0.95775
0.955483
0.954594
0.95334
0.951223
0.948359
0.944649
0.940678
0.936839
0.93413
0.932668
0.931981
0.931674
0.931558
0.931524
0.931523
0.931573
0.931659
0.931762
0.931917
0.932125
0.932516
0.933348
0.934636
0.936405
0.940016
0.947152
0.953771
0.957581
0.959438
0.96094
0.962497
0.964263
0.965976
0.967676
0.969255
0.969883
0.96838
0.965155
0.962067
0.960526
0.960252
0.960671
0.961571
0.962445
0.962986
0.963079
0.963037
0.963117
0.963504
0.964491
0.966899
0.972678
0.980007
0.985305
0.988748
0.991524
0.993386
0.993358
0.989479
0.978224
0.972267
0.972998
0.979895
0.987685
0.990198
0.99012
0.983602
0.954563
0.947211
0.946315
0.94233
0.9207
0.899034
0.89222
0.893617
0.900648
0.912142
0.919901
0.922754
0.92345
0.922538
0.921389
0.919589
0.916527
0.912696
0.90965
0.908558
0.91051
0.914243
0.917837
0.920372
0.9225
0.927252
0.944654
0.969424
0.985574
0.993933
0.997663
0.999155
0.999704
0.999893
0.999958
0.99998
0.999988
0.99999
0.999991
0.999992
0.999993
0.999994
0.999991
0.999978
0.999902
0.999533
0.998088
0.993185
0.979321
0.954751
0.945277
0.942528
0.941966
0.942119
0.942207
0.941977
0.940799
0.93997
0.940467
0.944131
0.959143
0.983005
0.99327
0.996521
0.996808
0.995748
0.988687
0.967409
0.953231
0.948733
0.948514
0.826926
0.777896
0.706461
0.702511
0.72788
0.771019
0.823994
0.882035
0.903442
0.910741
0.914377
0.919977
0.935287
0.952011
0.954903
0.951125
0.935639
0.927217
0.927609
0.936391
0.952556
0.959146
0.961339
0.962114
0.962466
0.963409
0.965319
0.967025
0.968084
0.969162
0.970462
0.971622
0.972605
0.97366
0.974895
0.975427
0.975581
0.975359
0.974007
0.970788
0.964793
0.956914
0.952231
0.950931
0.95063
0.94949
0.946704
0.942861
0.938974
0.935782
0.933473
0.932306
0.931766
0.931541
0.931472
0.931485
0.931554
0.931635
0.931669
0.931728
0.931856
0.932061
0.932414
0.933203
0.934601
0.936248
0.939265
0.945875
0.953133
0.957683
0.959719
0.960848
0.961881
0.962976
0.964948
0.967446
0.970194
0.973276
0.976294
0.978446
0.978589
0.975879
0.972114
0.968874
0.96649
0.965121
0.964135
0.963327
0.962806
0.962596
0.962622
0.962849
0.963219
0.96402
0.96642
0.973614
0.983177
0.990017
0.994098
0.996032
0.996323
0.994156
0.98295
0.975517
0.975914
0.982478
0.988621
0.989906
0.988562
0.970216
0.950506
0.947057
0.943851
0.930356
0.902195
0.889963
0.890214
0.897553
0.911576
0.920677
0.925241
0.926247
0.92564
0.923274
0.919092
0.913017
0.905922
0.899379
0.896152
0.897784
0.904872
0.912428
0.917735
0.920934
0.924218
0.933405
0.958856
0.979858
0.991435
0.996731
0.99885
0.999618
0.999876
0.999959
0.999986
0.999994
0.999997
0.999998
0.999999
0.999998
0.999997
0.999991
0.999945
0.999689
0.998529
0.994245
0.980755
0.952314
0.942785
0.941144
0.941529
0.942692
0.945439
0.947382
0.947268
0.946308
0.943074
0.940102
0.940029
0.943161
0.958884
0.983813
0.993673
0.996245
0.99602
0.992457
0.975925
0.958035
0.951091
0.950031
0.828576
0.773158
0.706602
0.702653
0.729148
0.774064
0.827408
0.890421
0.913055
0.918836
0.920193
0.921408
0.926725
0.940786
0.956698
0.9603
0.958399
0.946932
0.935058
0.934324
0.940135
0.952195
0.960376
0.963055
0.964391
0.965353
0.96659
0.968066
0.969344
0.970167
0.97084
0.971741
0.972575
0.973452
0.974593
0.975043
0.975175
0.975031
0.973982
0.971235
0.965893
0.958008
0.952168
0.949064
0.94735
0.946436
0.945072
0.942426
0.939206
0.936153
0.933811
0.932523
0.931887
0.931601
0.93149
0.931485
0.931506
0.93156
0.931614
0.931682
0.931822
0.932188
0.932679
0.933524
0.935622
0.938018
0.941203
0.946706
0.954512
0.960469
0.962636
0.962879
0.962712
0.962684
0.962506
0.963043
0.966058
0.970564
0.975805
0.980229
0.983661
0.98622
0.98755
0.98769
0.986476
0.983509
0.979315
0.974051
0.969426
0.966463
0.964581
0.96354
0.963165
0.96316
0.963395
0.964287
0.968139
0.979127
0.989112
0.994771
0.996884
0.997
0.994888
0.984212
0.978182
0.978841
0.985023
0.989089
0.989329
0.984755
0.961285
0.949765
0.946284
0.938392
0.911348
0.891926
0.886081
0.889768
0.906214
0.918968
0.924944
0.926825
0.926849
0.925744
0.921668
0.913058
0.901076
0.889311
0.882124
0.88144
0.889486
0.903508
0.913357
0.918864
0.922413
0.928523
0.948417
0.973394
0.988385
0.99555
0.998459
0.999505
0.999849
0.999955
0.999987
0.999996
0.999999
0.999999
1
0.999999
0.999996
0.999974
0.999831
0.999072
0.995693
0.984002
0.953398
0.940944
0.939629
0.940782
0.944477
0.950009
0.952344
0.953085
0.953087
0.952939
0.951977
0.94726
0.941599
0.941218
0.944894
0.963702
0.986487
0.994326
0.995504
0.993871
0.982887
0.963053
0.953832
0.951699
0.824908
0.750662
0.704383
0.701758
0.727671
0.771144
0.815463
0.876562
0.916902
0.928375
0.930537
0.930144
0.929888
0.933356
0.943364
0.957801
0.963531
0.963804
0.958518
0.946095
0.94182
0.944169
0.950309
0.957912
0.962897
0.965001
0.966327
0.967717
0.969054
0.969873
0.970379
0.971047
0.971855
0.972635
0.973684
0.97428
0.97452
0.974553
0.97393
0.97238
0.968805
0.9618
0.953809
0.949472
0.946967
0.945142
0.943655
0.94202
0.939868
0.937389
0.935032
0.933349
0.932418
0.931934
0.931689
0.931592
0.93159
0.931611
0.93167
0.931788
0.931993
0.932531
0.933348
0.934292
0.936344
0.939953
0.946499
0.954995
0.9618
0.966246
0.967911
0.967857
0.966783
0.965041
0.962623
0.959677
0.95797
0.959831
0.967571
0.976174
0.982475
0.986802
0.98988
0.992114
0.993698
0.994531
0.99443
0.992696
0.986622
0.977772
0.971037
0.966863
0.964788
0.963849
0.963391
0.963273
0.963546
0.965873
0.976373
0.988488
0.994893
0.996895
0.996708
0.993259
0.983386
0.980218
0.981485
0.987008
0.988978
0.988199
0.979023
0.956599
0.949421
0.943944
0.930049
0.899659
0.886502
0.885704
0.89241
0.911307
0.922111
0.926014
0.926582
0.925911
0.923113
0.91449
0.897666
0.880702
0.86965
0.866666
0.87187
0.890943
0.907267
0.916489
0.920978
0.926128
0.940702
0.967296
0.985239
0.994255
0.998011
0.999372
0.999815
0.999948
0.999986
0.999996
0.999999
1
1
0.999999
0.99999
0.999927
0.999528
0.997463
0.988314
0.95844
0.940152
0.937494
0.939214
0.945645
0.952016
0.953728
0.953981
0.953776
0.953482
0.953651
0.953775
0.953174
0.948491
0.942566
0.942618
0.948448
0.971961
0.989732
0.994292
0.993816
0.987431
0.968258
0.956826
0.953518
0.80892
0.715387
0.696943
0.699854
0.725156
0.767005
0.805115
0.853989
0.90486
0.92951
0.938873
0.94087
0.940205
0.938718
0.940128
0.946234
0.956771
0.964686
0.966752
0.965483
0.958549
0.950202
0.949376
0.951594
0.955314
0.959858
0.96363
0.966025
0.96765
0.968603
0.969053
0.968878
0.969047
0.969498
0.970543
0.971967
0.972873
0.97343
0.973391
0.972553
0.970851
0.967495
0.960266
0.952209
0.947966
0.945449
0.943678
0.942109
0.940366
0.938535
0.936738
0.935154
0.933868
0.933004
0.932466
0.932128
0.931989
0.931997
0.932058
0.932205
0.932506
0.933278
0.934513
0.935813
0.938201
0.94401
0.953906
0.964143
0.971201
0.974046
0.974307
0.973966
0.972084
0.969791
0.966183
0.960429
0.955555
0.953497
0.954878
0.964004
0.974567
0.982039
0.987288
0.990979
0.993588
0.995333
0.996275
0.996448
0.99544
0.988406
0.976051
0.96941
0.9673
0.966586
0.965434
0.963868
0.963118
0.963192
0.965701
0.978081
0.990075
0.995152
0.996084
0.994848
0.987933
0.982301
0.981682
0.984084
0.988053
0.988454
0.986038
0.970887
0.954888
0.949329
0.941047
0.917176
0.89168
0.882709
0.883568