/*--------------------------------*- C++ -*----------------------------------*\
  =========                 |
  \\      /  F ield         | OpenFOAM: The Open Source CFD Toolbox
   \\    /   O peration     | Website:  https://openfoam.org
    \\  /    A nd           | Version:  9
     \\/     M anipulation  |
\*---------------------------------------------------------------------------*/
FoamFile
{
    format      ascii;
    class       volVectorField;
    location    "0.095";
    object      UMean;
}
// * * * * * * * * * * * * * * * * * * * * * * * * * * * * * * * * * * * * * //

dimensions      [0 1 -1 0 0 0 0];

internalField   nonuniform List<vector> 
12225
(
(9.84203 0.0440347 0)
(9.54671 0.0594574 0)
(9.2467 0.0575985 0)
(8.94268 0.0563433 0)
(8.643 0.0558527 0)
(8.35305 0.0551658 0)
(8.07315 0.0541413 0)
(7.80367 0.0532698 0)
(7.54136 0.0523038 0)
(7.28837 0.0520114 0)
(7.03743 0.0514323 0)
(6.79645 0.0524244 0)
(6.54692 0.0524587 0)
(6.31281 0.0561279 0)
(6.0456 0.0573801 0)
(5.81209 0.0670115 0)
(5.48997 0.0721566 0)
(5.24542 0.0958297 0)
(10.0279 0.053775 0)
(10.0871 0.0762783 0)
(10.1253 0.0755413 0)
(10.1384 0.076705 0)
(10.1343 0.0800343 0)
(10.1197 0.0831551 0)
(10.0963 0.0856504 0)
(10.0658 0.0879469 0)
(10.0271 0.0903409 0)
(9.98242 0.0930911 0)
(9.92884 0.0964227 0)
(9.87093 0.100453 0)
(9.80149 0.106045 0)
(9.72929 0.112688 0)
(9.63943 0.123654 0)
(9.54839 0.135771 0)
(9.42934 0.159693 0)
(9.30932 0.183183 0)
(10.0018 0.0296455 0)
(10.034 0.0520019 0)
(10.0628 0.0548839 0)
(10.0801 0.0574118 0)
(10.0901 0.0621761 0)
(10.0977 0.0670943 0)
(10.1045 0.0712349 0)
(10.1101 0.0752927 0)
(10.1137 0.0793053 0)
(10.1149 0.084176 0)
(10.1136 0.0892869 0)
(10.1095 0.096151 0)
(10.1029 0.103711 0)
(10.0927 0.11467 0)
(10.0807 0.127975 0)
(10.0644 0.147312 0)
(10.0501 0.173306 0)
(10.0339 0.205435 0)
(10.0016 0.0313773 0)
(10.0233 0.0592446 0)
(10.0454 0.0650882 0)
(10.0592 0.0671076 0)
(10.066 0.0711005 0)
(10.0699 0.0757645 0)
(10.073 0.0798765 0)
(10.0756 0.0835858 0)
(10.0772 0.0874559 0)
(10.0776 0.0919079 0)
(10.0767 0.097331 0)
(10.0744 0.103974 0)
(10.0711 0.112515 0)
(10.0666 0.123413 0)
(10.0618 0.137952 0)
(10.0577 0.156895 0)
(10.0565 0.181029 0)
(10.0618 0.208382 0)
(10.0076 0.0204242 0)
(10.025 0.0453204 0)
(10.0443 0.0534424 0)
(10.0575 0.0564091 0)
(10.0643 0.0605976 0)
(10.0681 0.0659213 0)
(10.0712 0.0710267 0)
(10.0738 0.0758104 0)
(10.0753 0.0806121 0)
(10.0754 0.0860088 0)
(10.0739 0.0922479 0)
(10.0712 0.0998155 0)
(10.0671 0.109108 0)
(10.0626 0.120759 0)
(10.0577 0.135466 0)
(10.0545 0.153687 0)
(10.0533 0.175049 0)
(10.0573 0.197671 0)
(9.98432 0.0208376 0)
(9.99801 0.0459374 0)
(10.0148 0.0566984 0)
(10.028 0.0609705 0)
(10.0358 0.0651836 0)
(10.0404 0.0703577 0)
(10.0438 0.0755211 0)
(10.0469 0.0804015 0)
(10.0491 0.0853988 0)
(10.0501 0.0910302 0)
(10.0498 0.0976325 0)
(10.0485 0.105574 0)
(10.0462 0.11517 0)
(10.0437 0.126955 0)
(10.0412 0.141226 0)
(10.0402 0.158219 0)
(10.041 0.177071 0)
(10.0453 0.196754 0)
(10.0113 0.0138111 0)
(10.0212 0.0364373 0)
(10.0336 0.048356 0)
(10.0443 0.0539524 0)
(10.0513 0.0584885 0)
(10.0554 0.0637858 0)
(10.0583 0.0694419 0)
(10.0605 0.0750441 0)
(10.0619 0.0807544 0)
(10.0622 0.0870254 0)
(10.0615 0.0942238 0)
(10.0599 0.102707 0)
(10.0577 0.112727 0)
(10.0555 0.124682 0)
(10.0538 0.138623 0)
(10.0534 0.154679 0)
(10.0547 0.171965 0)
(10.0588 0.190052 0)
(10.0091 0.0153234 0)
(10.0167 0.0368171 0)
(10.0274 0.0491211 0)
(10.0377 0.0558203 0)
(10.0451 0.0608213 0)
(10.0495 0.0661693 0)
(10.0521 0.0720044 0)
(10.0541 0.0780024 0)
(10.0555 0.0841386 0)
(10.0563 0.0907618 0)
(10.0565 0.0982321 0)
(10.056 0.106907 0)
(10.0551 0.116978 0)
(10.0542 0.128704 0)
(10.0536 0.142008 0)
(10.054 0.156924 0)
(10.0556 0.172743 0)
(10.0595 0.189202 0)
(10.0052 0.00939052 0)
(10.0099 0.0291934 0)
(10.0186 0.0421759 0)
(10.0286 0.0499834 0)
(10.0367 0.0555322 0)
(10.0422 0.0610934 0)
(10.0459 0.0671911 0)
(10.0488 0.073571 0)
(10.0513 0.0801345 0)
(10.0533 0.0871494 0)
(10.0547 0.0949699 0)
(10.0556 0.103952 0)
(10.0563 0.11424 0)
(10.057 0.125999 0)
(10.058 0.139052 0)
(10.0599 0.153377 0)
(10.0626 0.168327 0)
(10.0669 0.183761 0)
(9.99593 0.0132797 0)
(10.0004 0.0283298 0)
(10.0073 0.0413361 0)
(10.0151 0.050029 0)
(10.022 0.0562751 0)
(10.0271 0.0621702 0)
(10.0307 0.0684242 0)
(10.0336 0.0749656 0)
(10.036 0.0817283 0)
(10.038 0.0889262 0)
(10.0396 0.0968404 0)
(10.0408 0.105789 0)
(10.0418 0.115886 0)
(10.0432 0.127265 0)
(10.045 0.139722 0)
(10.0481 0.153237 0)
(10.0518 0.167211 0)
(10.0573 0.181658 0)
(9.99479 0.00796899 0)
(10.0001 0.0240909 0)
(10.0062 0.0362903 0)
(10.0126 0.0450335 0)
(10.0188 0.0517651 0)
(10.0239 0.0578742 0)
(10.028 0.0641489 0)
(10.0314 0.070864 0)
(10.0342 0.0780272 0)
(10.0366 0.0857253 0)
(10.0385 0.0940758 0)
(10.0401 0.103286 0)
(10.0415 0.113384 0)
(10.0433 0.124491 0)
(10.0455 0.136381 0)
(10.0487 0.149117 0)
(10.0527 0.162147 0)
(10.0579 0.175649 0)
(10.0035 0.00696948 0)
(10.0041 0.0240668 0)
(10.0077 0.0353927 0)
(10.0138 0.0440606 0)
(10.0204 0.0512154 0)
(10.0261 0.0576906 0)
(10.0306 0.0642006 0)
(10.0343 0.0710855 0)
(10.0376 0.0784062 0)
(10.0406 0.0862111 0)
(10.0436 0.0945668 0)
(10.0464 0.10364 0)
(10.0493 0.113448 0)
(10.0525 0.124096 0)
(10.0561 0.135385 0)
(10.0603 0.147391 0)
(10.0651 0.15963 0)
(10.0706 0.172345 0)
(9.99696 0.00869954 0)
(9.99731 0.0201395 0)
(10.0008 0.0310557 0)
(10.0066 0.0399358 0)
(10.0129 0.0471066 0)
(10.0186 0.0535874 0)
(10.0235 0.0601563 0)
(10.0277 0.0671305 0)
(10.0316 0.0745497 0)
(10.0355 0.0824604 0)
(10.0394 0.0908923 0)
(10.0434 0.099973 0)
(10.0476 0.109698 0)
(10.0519 0.12015 0)
(10.0565 0.131127 0)
(10.0617 0.1427 0)
(10.0672 0.154409 0)
(10.0736 0.166544 0)
(9.99747 0.0100112 0)
(10.0008 0.0199281 0)
(10.0047 0.0307155 0)
(10.0093 0.0394309 0)
(10.0145 0.0463971 0)
(10.0197 0.0528266 0)
(10.0245 0.0594356 0)
(10.0288 0.0664304 0)
(10.033 0.0737555 0)
(10.0372 0.0814306 0)
(10.0415 0.0895115 0)
(10.0459 0.0981681 0)
(10.0504 0.107394 0)
(10.0552 0.117294 0)
(10.0603 0.127612 0)
(10.0659 0.138478 0)
(10.0719 0.149371 0)
(10.0786 0.160705 0)
(9.9946 0.00292115 0)
(9.99816 0.0154351 0)
(10.0017 0.0252147 0)
(10.006 0.0332785 0)
(10.011 0.0403936 0)
(10.0163 0.0470953 0)
(10.0215 0.0537414 0)
(10.0265 0.060607 0)
(10.0313 0.0678285 0)
(10.0362 0.075495 0)
(10.0411 0.0836059 0)
(10.0462 0.0922355 0)
(10.0514 0.101302 0)
(10.057 0.110876 0)
(10.0628 0.120714 0)
(10.0692 0.130957 0)
(10.0759 0.141133 0)
(10.0831 0.151658 0)
(10.0143 0.00505191 0)
(10.0134 0.0167944 0)
(10.0144 0.0248365 0)
(10.0179 0.0314255 0)
(10.0232 0.0378365 0)
(10.0289 0.0443435 0)
(10.0345 0.0509651 0)
(10.0398 0.0577533 0)
(10.0449 0.0647419 0)
(10.0501 0.071996 0)
(10.0554 0.079519 0)
(10.0611 0.0874017 0)
(10.0671 0.0955877 0)
(10.0734 0.104193 0)
(10.0801 0.112998 0)
(10.0873 0.12219 0)
(10.0948 0.131279 0)
(10.1028 0.140747 0)
(9.9922 0.00575988 0)
(9.9911 0.0126902 0)
(9.99213 0.0191454 0)
(9.99593 0.0251847 0)
(10.0013 0.0310538 0)
(10.007 0.0369625 0)
(10.0128 0.0430935 0)
(10.0188 0.0495235 0)
(10.0248 0.056197 0)
(10.0311 0.0630992 0)
(10.0375 0.0701938 0)
(10.0442 0.0775582 0)
(10.0511 0.0851248 0)
(10.0583 0.0929931 0)
(10.0657 0.100938 0)
(10.0736 0.109151 0)
(10.0816 0.117178 0)
(10.0904 0.125515 0)
(9.98645 0.0105248 0)
(9.98702 0.0125922 0)
(9.98885 0.0165568 0)
(9.99234 0.0213812 0)
(9.99707 0.0263306 0)
(10.0025 0.0313107 0)
(10.0084 0.0364811 0)
(10.0145 0.041975 0)
(10.0209 0.0477744 0)
(10.0275 0.0538342 0)
(10.0345 0.0600403 0)
(10.0418 0.0664104 0)
(10.0494 0.07285 0)
(10.0574 0.0794765 0)
(10.0656 0.0860991 0)
(10.0741 0.0929373 0)
(10.0828 0.0995727 0)
(10.0918 0.106489 0)
(9.98958 0.00362163 0)
(9.9943 0.00631989 0)
(9.99952 0.00927245 0)
(10.0049 0.0124792 0)
(10.0106 0.0161146 0)
(10.0166 0.0202217 0)
(10.0232 0.0246877 0)
(10.0302 0.0293551 0)
(10.0377 0.0340891 0)
(10.0456 0.0388875 0)
(10.0537 0.0437637 0)
(10.0621 0.0488098 0)
(10.0708 0.053988 0)
(10.0795 0.0593771 0)
(10.0885 0.0647957 0)
(10.0977 0.0703912 0)
(10.1071 0.0758038 0)
(10.1166 0.0814335 0)
(10.0024 -0.00164693 0)
(10.0041 0.00238719 0)
(10.0073 0.00433924 0)
(10.012 0.006077 0)
(10.0179 0.00848273 0)
(10.0244 0.0114192 0)
(10.0316 0.014523 0)
(10.0393 0.0176762 0)
(10.0475 0.0209691 0)
(10.056 0.024546 0)
(10.0648 0.0284191 0)
(10.0738 0.0325499 0)
(10.083 0.0367575 0)
(10.0923 0.0410113 0)
(10.1018 0.045122 0)
(10.1115 0.0492559 0)
(10.1213 0.0531549 0)
(10.1313 0.0572406 0)
(10.0019 0.000107267 0)
(10.0021 -0.000966025 0)
(10.0053 -0.00163508 0)
(10.0114 -0.00119539 0)
(10.0189 7.66983e-05 0)
(10.0268 0.00174205 0)
(10.0349 0.0035455 0)
(10.0432 0.00551737 0)
(10.0518 0.00778383 0)
(10.0605 0.010436 0)
(10.0693 0.0134155 0)
(10.0783 0.0166367 0)
(10.0874 0.0199272 0)
(10.0965 0.0232463 0)
(10.1058 0.0264545 0)
(10.1151 0.0296719 0)
(10.1245 0.0327189 0)
(10.134 0.035884 0)
(9.99761 0.00146493 0)
(9.99866 -0.00515002 0)
(10.0026 -0.00723752 0)
(10.0094 -0.00703252 0)
(10.0178 -0.00616961 0)
(10.0264 -0.00519705 0)
(10.0347 -0.00409918 0)
(10.043 -0.00269422 0)
(10.0512 -0.000860186 0)
(10.0597 0.00141553 0)
(10.0684 0.00400665 0)
(10.0773 0.0067864 0)
(10.0865 0.00957098 0)
(10.0959 0.0123181 0)
(10.1055 0.0148975 0)
(10.1154 0.0174282 0)
(10.1253 0.0197477 0)
(10.1354 0.0221344 0)
(9.98497 0.00140778 0)
(9.99185 -0.00849942 0)
(9.99955 -0.0135718 0)
(10.0078 -0.0150609 0)
(10.0165 -0.0149684 0)
(10.0253 -0.0144517 0)
(10.034 -0.0138166 0)
(10.0427 -0.0129786 0)
(10.0515 -0.0118197 0)
(10.0605 -0.0103287 0)
(10.0698 -0.00863225 0)
(10.0794 -0.00685598 0)
(10.0893 -0.00512259 0)
(10.0993 -0.00343048 0)
(10.1095 -0.00183745 0)
(10.1196 -0.000232732 0)
(10.1298 0.0012826 0)
(10.1398 0.00292057 0)
(10.0152 -0.00772478 0)
(10.0227 -0.0125426 0)
(10.0324 -0.0175463 0)
(10.0427 -0.0197327 0)
(10.0526 -0.0198549 0)
(10.0618 -0.0193485 0)
(10.0707 -0.0188344 0)
(10.0796 -0.0182427 0)
(10.0886 -0.0174035 0)
(10.0979 -0.0162947 0)
(10.1074 -0.0150313 0)
(10.1171 -0.0136966 0)
(10.1269 -0.0123504 0)
(10.1367 -0.0109727 0)
(10.1466 -0.0096098 0)
(10.1564 -0.00820536 0)
(10.1661 -0.00687143 0)
(10.1757 -0.00548095 0)
(9.98813 -0.00876508 0)
(9.99194 -0.0208319 0)
(10.001 -0.026974 0)
(10.0121 -0.0290221 0)
(10.0226 -0.0293365 0)
(10.032 -0.0293184 0)
(10.0413 -0.0292939 0)
(10.051 -0.0291238 0)
(10.0611 -0.0287119 0)
(10.0713 -0.0281053 0)
(10.0815 -0.0273996 0)
(10.0917 -0.0266383 0)
(10.1019 -0.0258528 0)
(10.1121 -0.0250186 0)
(10.1223 -0.0241686 0)
(10.1325 -0.0232606 0)
(10.1427 -0.0223746 0)
(10.1528 -0.0214096 0)
(10.0199 -0.00641209 0)
(10.0315 -0.0233128 0)
(10.0453 -0.0280827 0)
(10.0579 -0.0285568 0)
(10.0682 -0.0289332 0)
(10.0773 -0.0298775 0)
(10.0862 -0.0307556 0)
(10.0957 -0.0311297 0)
(10.1057 -0.0310122 0)
(10.1158 -0.0306123 0)
(10.1258 -0.0301063 0)
(10.1358 -0.029568 0)
(10.1457 -0.0290276 0)
(10.1556 -0.028462 0)
(10.1655 -0.0278978 0)
(10.1753 -0.0273036 0)
(10.1851 -0.0267428 0)
(10.1947 -0.0261449 0)
(9.99733 -0.0206079 0)
(10.0134 -0.0348508 0)
(10.0303 -0.0402299 0)
(10.0441 -0.0407394 0)
(10.0549 -0.0409445 0)
(10.0643 -0.0417886 0)
(10.0735 -0.042563 0)
(10.083 -0.0428602 0)
(10.0928 -0.0427894 0)
(10.1026 -0.0425671 0)
(10.1125 -0.0423087 0)
(10.1224 -0.0420315 0)
(10.1324 -0.041726 0)
(10.1425 -0.0413793 0)
(10.1527 -0.0410129 0)
(10.163 -0.0406223 0)
(10.1732 -0.0402597 0)
(10.1834 -0.0398889 0)
(10.0052 -0.0198652 0)
(10.0232 -0.0314107 0)
(10.0442 -0.0350824 0)
(10.0605 -0.0359468 0)
(10.0723 -0.0372113 0)
(10.0825 -0.0387022 0)
(10.093 -0.0397819 0)
(10.1041 -0.0403985 0)
(10.1153 -0.040766 0)
(10.1265 -0.0410485 0)
(10.1378 -0.0412837 0)
(10.149 -0.0414984 0)
(10.1603 -0.0416746 0)
(10.1714 -0.0418464 0)
(10.1824 -0.0419766 0)
(10.1931 -0.0421035 0)
(10.2038 -0.0421889 0)
(10.214 -0.0422815 0)
(10.0136 -0.0353715 0)
(10.0506 -0.0540894 0)
(10.0826 -0.0520764 0)
(10.1041 -0.0510515 0)
(10.1184 -0.0521806 0)
(10.1288 -0.0532742 0)
(10.1371 -0.0538332 0)
(10.1435 -0.0541459 0)
(10.1482 -0.0544058 0)
(10.1512 -0.0546688 0)
(10.1526 -0.0548876 0)
(10.1528 -0.0550575 0)
(10.1518 -0.0551186 0)
(10.1501 -0.0551228 0)
(10.1473 -0.055017 0)
(10.1444 -0.0549207 0)
(10.1403 -0.054784 0)
(10.1367 -0.0547848 0)
(9.91321 -0.0324583 0)
(9.75142 -0.0483323 0)
(9.58659 -0.0466847 0)
(9.41883 -0.0456203 0)
(9.25408 -0.0457696 0)
(9.09593 -0.0456313 0)
(8.94535 -0.0450423 0)
(8.80211 -0.0442893 0)
(8.66552 -0.0435209 0)
(8.5352 -0.0427657 0)
(8.41068 -0.0420104 0)
(8.29206 -0.0412786 0)
(8.17874 -0.0405682 0)
(8.07116 -0.0399176 0)
(7.96814 -0.0392814 0)
(7.87091 -0.0386984 0)
(7.77698 -0.0381017 0)
(7.68955 -0.0375967 0)
(-0.186947 0.404787 -7.7487e-22)
(-0.478163 0.235002 7.92759e-22)
(-0.635784 0.0749288 0)
(-0.655642 -0.0905361 0)
(-0.517149 -0.242711 0)
(-0.269032 -0.353963 -7.72506e-22)
(0.0541788 -0.419149 0)
(0.414099 -0.437322 0)
(0.775288 -0.41826 0)
(1.11192 -0.365211 0)
(1.40844 -0.300543 8.17786e-22)
(1.67315 -0.249346 0)
(1.89631 -0.17102 0)
(2.04779 -0.105259 0)
(2.15143 -0.0649713 0)
(2.2211 -0.0317608 1.07463e-21)
(2.25691 -0.0210592 0)
(2.27684 -0.0310833 0)
(2.27831 -0.0264517 0)
(2.2605 -0.00530644 0)
(2.2141 0.0323365 0)
(2.13082 0.0697167 0)
(2.00763 0.0955438 0)
(1.85978 0.129376 1.11301e-21)
(1.67224 0.176867 -1.10047e-21)
(1.45926 0.18487 1.09207e-21)
(1.23547 0.17037 1.08967e-21)
(0.994032 0.132761 0)
(0.767251 0.093319 0)
(0.536899 0.125052 -1.10866e-21)
(0.291222 0.165548 -1.12037e-21)
(0.0327447 0.19013 0)
(-0.232119 0.191761 0)
(-0.486756 0.168125 -1.17308e-21)
(-0.717701 0.129407 0)
(-0.91919 0.101813 0)
(-1.09866 0.0949128 1.21962e-21)
(-1.25835 0.0819572 0)
(-1.4005 0.0631073 1.26716e-21)
(-1.57226 0.0681883 2.61116e-21)
(-1.79683 0.11771 0)
(-2.07783 0.19591 0)
(-2.41555 0.23698 0)
(-2.74356 0.218975 0)
(-3.038 0.18563 0)
(-3.28433 0.121555 3.14167e-21)
(-3.47459 0.0232119 3.27091e-21)
(-3.64848 -0.00616891 3.40015e-21)
(-3.79715 0.0739965 0)
(-3.98057 0.113448 -3.57733e-21)
(-4.11665 0.0950628 0)
(-4.22019 0.0811101 3.70479e-21)
(-4.29484 0.0654492 3.74002e-21)
(-4.34384 0.0446359 0)
(-4.36413 0.0178116 0)
(-4.36644 -0.0282462 0)
(-4.34961 -0.025433 3.65549e-21)
(-4.35456 -0.00794001 0)
(-4.3329 -0.0233157 0)
(-4.28711 -0.0410696 0)
(-4.1965 -0.063865 0)
(-4.09289 -0.119077 0)
(-3.9718 -0.113756 0)
(-3.90483 -0.0616106 0)
(-3.84837 -0.0585464 0)
(-3.78206 -0.0560157 -2.96004e-21)
(-3.71976 -0.0584179 0)
(-3.65 -0.0589286 0)
(-3.58369 -0.0576541 2.8032e-21)
(-3.51794 -0.054324 2.75879e-21)
(-3.45746 -0.050756 0)
(-3.40455 -0.0445367 -2.68404e-21)
(-3.3637 -0.0313795 2.66546e-21)
(-3.34297 -0.0147932 0)
(-3.34863 0.000453667 -2.68737e-21)
(-3.38169 0.0202533 0)
(-3.45671 0.039495 0)
(-3.56794 0.062344 2.73778e-21)
(-3.73408 0.0852629 0)
(-3.94793 0.105638 -2.63617e-21)
(-4.21102 0.102884 0)
(-4.45685 0.0556179 2.4763e-21)
(-4.59025 0.0351885 2.40703e-21)
(-4.6944 0.010181 2.33164e-21)
(-4.70694 -0.0448059 4.48838e-21)
(-4.70898 -0.0614544 -4.31584e-21)
(-4.71481 -0.0488684 0)
(-4.80519 0.014031 0)
(-4.97785 0.110347 0)
(-5.19248 0.118255 -3.75804e-21)
(-5.33043 0.0777825 -3.75673e-21)
(-5.40819 0.0413009 3.77278e-21)
(-5.42799 0.0089069 0)
(-5.39509 -0.0169762 -3.7329e-21)
(-5.31307 -0.0398512 -3.65295e-21)
(-5.188 -0.0593714 -3.53184e-21)
(-5.02474 -0.075725 0)
(-4.83653 -0.0862173 0)
(-4.63142 -0.0894498 0)
(-4.42773 -0.0880201 -2.66812e-21)
(-4.22457 -0.081465 0)
(-4.03846 -0.0712166 0)
(-3.88681 -0.0504285 1.44425e-21)
(-3.77359 -0.0435439 0)
(-3.65907 -0.0453554 0)
(-3.52275 -0.116152 3.40703e-24)
(-3.3631 -0.0712539 0)
(-3.44924 0.0327572 0)
(-3.54793 0.0415433 9.06646e-22)
(-3.64042 0.04555 9.33365e-22)
(-3.7392 0.045105 0)
(-3.81809 0.0434883 -6.95384e-22)
(-3.87306 0.0337426 0)
(-3.87327 0.0108609 3.24359e-22)
(-3.80933 -0.0182459 0)
(-3.68544 -0.0434977 1.47709e-22)
(-3.51229 -0.064057 1.96352e-22)
(-3.29501 -0.0809604 0)
(-3.04059 -0.0949393 0)
(-2.75284 -0.106777 0)
(-2.43558 -0.116743 0)
(-2.09226 -0.124834 0)
(-1.72784 -0.130875 0)
(-1.34794 -0.134706 0)
(-0.958397 -0.136228 3.41913e-21)
(-0.565013 -0.13545 -3.90397e-21)
(-0.172479 -0.132983 0)
(0.215695 -0.129329 0)
(0.596879 -0.124936 0)
(0.969039 -0.119962 0)
(1.33044 -0.114402 -1.1005e-20)
(1.67922 -0.108047 0)
(2.01298 -0.10072 1.14441e-20)
(2.32877 -0.0922406 -1.14991e-20)
(2.62302 -0.082774 0)
(2.89271 -0.0750014 0)
(3.13705 -0.0654952 0)
(3.35678 -0.0563929 1.09325e-20)
(3.55194 -0.0479274 1.0681e-20)
(3.72394 -0.0402035 0)
(3.87462 -0.0333052 1.01401e-20)
(4.00592 -0.0272131 9.86675e-21)
(4.11982 -0.0218403 -9.59843e-21)
(4.21815 -0.0170565 0)
(4.30234 -0.0127051 0)
(4.37341 -0.00863144 -8.8535e-21)
(4.43183 -0.00468572 0)
(4.47764 -0.000760202 0)
(4.51074 0.00317176 0)
(4.53085 0.00710306 0)
(4.53755 0.0110619 7.89767e-21)
(4.53024 0.0150524 7.75378e-21)
(4.50818 0.0190731 0)
(4.47041 0.0232237 7.5114e-21)
(4.41577 0.0274724 0)
(4.34307 0.0314954 0)
(4.25153 0.0348634 7.2399e-21)
(4.14097 0.0371279 0)
(4.01283 0.0373939 7.09304e-21)
(3.87193 0.0356122 0)
(3.725 0.0331828 0)
(3.57851 0.0330686 6.9171e-21)
(3.43536 0.0360041 0)
(3.28882 0.0434663 6.84971e-21)
(3.12859 0.0494173 0)
(2.9529 0.0491214 0)
(2.76923 0.0443297 0)
(2.58185 0.0361 -6.70213e-21)
(2.39999 0.018971 0)
(2.26458 -0.00301339 6.56558e-21)
(2.18737 -0.0108757 0)
(2.14402 -0.00502792 0)
(2.11142 0.00321536 0)
(2.0735 0.00819989 0)
(2.02768 0.010905 0)
(1.96569 0.00991009 0)
(1.91083 0.0165775 0)
(1.80149 0.0153465 -1.32655e-20)
(1.76423 0.0388047 0)
(1.50897 0.0169683 0)
(-0.0110443 0.88264 2.40107e-21)
(-0.0204507 0.646815 -2.44236e-21)
(0.0273012 0.261734 0)
(0.190728 -0.154488 1.73065e-21)
(0.431341 -0.566295 0)
(0.734376 -0.872561 7.69959e-22)
(1.05649 -1.03917 -1.74299e-21)
(1.36337 -1.0827 -1.7632e-21)
(1.64107 -1.035 0)
(1.87264 -0.934684 -1.88935e-21)
(2.06582 -0.838064 -8.1556e-22)
(2.20883 -0.729461 0)
(2.30748 -0.56427 0)
(2.39356 -0.392505 0)
(2.45658 -0.277302 0)
(2.4854 -0.181775 -1.07275e-21)
(2.4825 -0.0920435 0)
(2.45248 -0.0134639 2.45666e-21)
(2.39549 0.0495521 0)
(2.32195 0.104073 0)
(2.22483 0.188668 -2.4725e-21)
(2.10721 0.288393 0)
(1.96614 0.371662 2.44196e-21)
(1.81207 0.446533 -1.10987e-21)
(1.64861 0.503642 1.09695e-21)
(1.463 0.545537 -1.08826e-21)
(1.24702 0.60373 -1.08563e-21)
(0.990672 0.652807 0)
(0.698061 0.670731 0)
(0.372333 0.664402 1.10522e-21)
(0.0500298 0.651061 -1.30681e-21)
(-0.250762 0.638463 0)
(-0.542103 0.627797 0)
(-0.811292 0.596152 1.17004e-21)
(-1.06675 0.538463 0)
(-1.30166 0.472897 0)
(-1.51168 0.39577 -1.21608e-21)
(-1.71947 0.338887 0)
(-1.95957 0.385389 1.53912e-21)
(-2.23845 0.517398 -2.60553e-21)
(-2.52158 0.63565 0)
(-2.78766 0.704801 0)
(-3.03665 0.711721 -6.23153e-21)
(-3.27724 0.645385 -6.38303e-21)
(-3.5232 0.576483 -6.58727e-21)
(-3.73459 0.494917 3.68546e-21)
(-3.96219 0.473866 -3.26462e-21)
(-4.19928 0.442036 -1.07188e-20)
(-4.35729 0.376155 7.54595e-21)
(-4.4942 0.29892 3.56946e-21)
(-4.58233 0.212348 0)
(-4.64879 0.143155 -3.69697e-21)
(-4.67668 0.0770589 4.30274e-21)
(-4.68966 0.0216076 0)
(-4.68489 -0.010759 0)
(-4.69655 -0.0117715 0)
(-4.68915 -0.0175362 -3.64989e-21)
(-4.6696 -0.0462387 0)
(-4.61654 -0.0959281 7.49844e-21)
(-4.55198 -0.160266 0)
(-4.4631 -0.213386 7.15562e-21)
(-4.43187 -0.179597 0)
(-4.40219 -0.141501 -6.83024e-21)
(-4.36434 -0.125597 0)
(-4.31794 -0.129621 6.53508e-21)
(-4.26277 -0.12806 -3.46201e-21)
(-4.20576 -0.129629 0)
(-4.14172 -0.127771 -6.22775e-21)
(-4.07795 -0.124967 -2.80108e-21)
(-4.01342 -0.119248 -2.75683e-21)
(-3.95312 -0.111375 0)
(-3.90046 -0.098467 -3.1996e-21)
(-3.84751 -0.0788484 -2.66364e-21)
(-3.80443 -0.0443035 0)
(-3.77682 0.00755085 2.68587e-21)
(-3.76806 0.0689494 -5.88093e-21)
(-3.7972 0.138722 0)
(-3.86918 0.227237 -2.73623e-21)
(-3.99125 0.31352 0)
(-4.15723 0.381402 8.26849e-21)
(-4.36209 0.408812 0)
(-4.62437 0.330941 -7.70729e-21)
(-4.83717 0.205926 -2.40569e-21)
(-4.98848 0.105784 2.5539e-21)
(-5.09145 0.041155 4.90968e-21)
(-5.22428 0.0538519 -4.73205e-21)
(-5.35644 0.135139 0)
(-5.54597 0.24186 0)
(-5.66259 0.251399 0)
(-5.73889 0.196758 1.19876e-20)
(-5.7587 0.119584 3.7543e-21)
(-5.74439 0.0428282 -3.76998e-21)
(-5.68464 -0.0337337 0)
(-5.5878 -0.105438 -4.2015e-21)
(-5.45295 -0.171349 3.6514e-21)
(-5.28821 -0.227667 3.53103e-21)
(-5.09361 -0.271046 0)
(-4.88735 -0.294954 0)
(-4.6663 -0.302172 0)
(-4.45533 -0.293407 2.66954e-21)
(-4.24315 -0.277047 0)
(-4.06222 -0.236891 -4.20288e-21)
(-3.8908 -0.196924 -4.69579e-21)
(-3.76264 -0.172252 2.21304e-21)
(-3.63949 -0.189383 0)
(-3.621 -0.132788 3.35755e-22)
(-3.67807 0.0147264 0)
(-3.74106 0.0866458 -8.48204e-22)
(-3.76667 0.0917185 1.87302e-22)
(-3.80601 0.0952124 1.90156e-22)
(-3.83187 0.0784594 0)
(-3.83008 0.047919 1.39887e-21)
(-3.77559 -0.00689753 -3.88301e-22)
(-3.66585 -0.0764271 -3.23791e-22)
(-3.51057 -0.144273 0)
(-3.32168 -0.20165 -1.46035e-22)
(-3.10292 -0.250523 -2.12923e-22)
(-2.85609 -0.292739 0)
(-2.58056 -0.33017 -8.80777e-22)
(-2.27593 -0.363318 -1.58905e-21)
(-1.94363 -0.392118 -2.45571e-21)
(-1.58631 -0.415847 0)
(-1.20841 -0.433949 0)
(-0.815745 -0.445142 0)
(-0.414095 -0.449365 3.24218e-21)
(-0.00953444 -0.447186 3.89991e-21)
(0.393265 -0.440016 0)
(0.791026 -0.429469 9.30997e-21)
(1.18155 -0.416883 9.96161e-21)
(1.56319 -0.402783 0)
(1.93458 -0.387042 1.09964e-20)
(2.2941 -0.368961 2.23615e-20)
(2.63967 -0.347899 -1.14358e-20)
(2.96854 -0.32354 -1.13357e-20)
(3.27666 -0.298197 0)
(3.56071 -0.271381 0)
(3.82163 -0.243541 0)
(4.05914 -0.216563 -1.09217e-20)
(4.27384 -0.191259 1.05702e-20)
(4.46714 -0.168056 2.07159e-20)
(4.64079 -0.147176 -1.01308e-20)
(4.79665 -0.128586 9.77831e-21)
(4.93652 -0.112071 9.58967e-21)
(5.06204 -0.0973145 0)
(5.17458 -0.0839289 0)
(5.27521 -0.0715057 -8.77571e-21)
(5.36472 -0.0596414 0)
(5.44378 -0.0480213 0)
(5.5126 -0.0364204 1.63777e-20)
(5.57121 -0.0246984 0)
(5.6194 -0.012744 7.81328e-21)
(5.65678 -0.00038087 -7.74479e-21)
(5.68284 0.0125224 0)
(5.69689 0.0261132 7.41363e-21)
(5.69802 0.0405057 0)
(5.68511 0.0556634 0)
(5.65683 0.0712214 -7.23026e-21)
(5.61157 0.0865621 1.41937e-20)
(5.54769 0.100266 -7.08319e-21)
(5.46376 0.110596 0)
(5.35843 0.115424 0)
(5.23081 0.114825 6.79803e-21)
(5.08406 0.111536 0)
(4.93235 0.110389 6.73142e-21)
(4.79244 0.116142 0)
(4.66504 0.12553 0)
(4.54167 0.133416 0)
(4.4129 0.137021 6.68987e-21)
(4.26876 0.128475 0)
(4.11713 0.1012 -6.55465e-21)
(3.97153 0.0660472 0)
(3.84299 0.0380736 0)
(3.75327 0.027445 1.29944e-20)
(3.69212 0.0270256 -1.30404e-20)
(3.65065 0.0356492 0)
(3.59828 0.0396275 0)
(3.55696 0.0549383 0)
(3.46437 0.051394 3.9655e-20)
(3.42611 0.0842391 0)
(3.24917 0.0715919 -2.64227e-20)
(0.0772422 0.580373 -3.68448e-23)
(0.289156 0.271809 3.24757e-21)
(0.589215 -0.272267 0)
(0.946861 -0.829977 -3.47145e-21)
(1.30729 -1.28252 0)
(1.62416 -1.56546 0)
(1.8775 -1.66484 -2.85394e-22)
(2.06995 -1.61257 1.76032e-21)
(2.20783 -1.44953 2.21003e-21)
(2.30118 -1.2174 1.8883e-21)
(2.34953 -0.967688 0)
(2.35125 -0.726569 0)
(2.29993 -0.52706 -2.54473e-21)
(2.245 -0.39151 -5.20367e-21)
(2.18724 -0.243685 5.28756e-21)
(2.12274 -0.0802947 0)
(2.04792 0.0443066 5.39221e-21)
(1.95993 0.142384 -2.45833e-21)
(1.86222 0.217104 0)
(1.74131 0.321939 5.42511e-21)
(1.60924 0.436415 2.47182e-21)
(1.47694 0.535718 -5.39982e-21)
(1.33903 0.626677 -2.43966e-21)
(1.19739 0.708258 0)
(1.04406 0.789185 5.32864e-21)
(0.862552 0.891288 5.30835e-21)
(0.662117 0.991539 0)
(0.435622 1.08875 5.27923e-21)
(0.182574 1.16763 0)
(-0.0978783 1.21451 5.28118e-21)
(-0.404129 1.22141 2.41518e-21)
(-0.709917 1.19396 0)
(-1.00656 1.13403 0)
(-1.27816 1.04531 0)
(-1.53756 0.952394 0)
(-1.78228 0.853211 0)
(-2.03762 0.790884 0)
(-2.31662 0.802864 5.98645e-21)
(-2.60998 0.876794 -8.98491e-21)
(-2.88984 0.956005 0)
(-3.13131 1.00618 0)
(-3.35621 1.01237 0)
(-3.53819 1.00977 -6.81915e-22)
(-3.72835 0.961602 6.3723e-21)
(-3.90217 0.88366 1.38422e-20)
(-4.06916 0.800173 -1.43124e-20)
(-4.22584 0.716913 -7.74957e-21)
(-4.36181 0.62555 7.31655e-21)
(-4.45889 0.533215 6.9596e-22)
(-4.54185 0.436487 8.42887e-21)
(-4.60045 0.335825 0)
(-4.65122 0.236722 8.67947e-21)
(-4.68512 0.147891 6.92325e-22)
(-4.72392 0.0858844 0)
(-4.74978 0.0420325 0)
(-4.75901 0.00455388 -8.58152e-21)
(-4.73802 -0.0423967 0)
(-4.70595 -0.0969137 0)
(-4.65913 -0.163211 8.71566e-21)
(-4.61959 -0.215852 1.5814e-20)
(-4.61758 -0.208998 -7.1546e-21)
(-4.63497 -0.181477 0)
(-4.62803 -0.168473 6.82818e-21)
(-4.6071 -0.171553 0)
(-4.57436 -0.184084 7.80623e-21)
(-4.52724 -0.194433 6.41528e-21)
(-4.46835 -0.207115 -1.39916e-20)
(-4.39923 -0.213395 -7.60833e-21)
(-4.32561 -0.210286 0)
(-4.25254 -0.199718 1.34784e-20)
(-4.18438 -0.186934 0)
(-4.12208 -0.171986 1.89917e-20)
(-4.0621 -0.146913 1.2981e-20)
(-4.00896 -0.101435 1.29144e-20)
(-3.96137 -0.0398324 -1.28914e-20)
(-3.93042 0.0474538 1.8773e-20)
(-3.92862 0.167445 0)
(-3.95739 0.307314 0)
(-4.01627 0.436547 -1.24714e-20)
(-4.12303 0.539305 -1.77464e-20)
(-4.24151 0.618464 0)
(-4.43921 0.575933 5.23875e-21)
(-4.64912 0.439214 0)
(-4.84928 0.298644 -1.52428e-20)
(-5.03754 0.218514 5.84836e-22)
(-5.21089 0.221209 -6.23546e-22)
(-5.37013 0.306904 9.46246e-21)
(-5.46444 0.347649 0)
(-5.47947 0.295558 -9.2046e-21)
(-5.46509 0.203424 8.72437e-22)
(-5.41905 0.0931407 0)
(-5.35705 -0.0211347 0)
(-5.2699 -0.131812 0)
(-5.16399 -0.23221 7.9418e-21)
(-5.0338 -0.322082 0)
(-4.88422 -0.39917 0)
(-4.71193 -0.457248 0)
(-4.52662 -0.489105 0)
(-4.32696 -0.494044 0)
(-4.13411 -0.47393 6.17244e-21)
(-3.9468 -0.435401 0)
(-3.80568 -0.375306 4.21286e-21)
(-3.66677 -0.322677 3.25847e-21)
(-3.57559 -0.267131 -2.2203e-21)
(-3.51627 -0.207244 0)
(-3.56597 -0.084802 -3.45985e-22)
(-3.59364 0.0354472 0)
(-3.56566 0.0756733 8.4081e-22)
(-3.5374 0.0927614 -1.08288e-21)
(-3.52754 0.096566 -1.40051e-21)
(-3.49839 0.0645365 0)
(-3.44186 0.000807326 -3.05758e-22)
(-3.33531 -0.0934821 1.25895e-21)
(-3.19469 -0.194004 0)
(-3.02857 -0.284545 1.49649e-21)
(-2.84081 -0.361617 1.44599e-21)
(-2.62679 -0.42998 -1.05561e-21)
(-2.38565 -0.492139 0)
(-2.11511 -0.549995 8.75426e-22)
(-1.81543 -0.603042 1.58452e-21)
(-1.48714 -0.650113 6.49877e-21)
(-1.13311 -0.689492 0)
(-0.757446 -0.719087 0)
(-0.366243 -0.73704 0)
(0.0335375 -0.74302 6.07922e-21)
(0.434768 -0.73815 0)
(0.832043 -0.724948 0)
(1.22183 -0.706401 -9.30417e-21)
(1.60231 -0.684968 -9.95595e-21)
(1.97242 -0.661667 0)
(2.33137 -0.636142 0)
(2.67792 -0.607049 -2.23508e-20)
(3.01041 -0.573106 0)
(3.32581 -0.534176 2.28123e-20)
(3.62071 -0.492973 2.2494e-20)
(3.89268 -0.448544 0)
(4.14187 -0.403377 0)
(4.36837 -0.359662 -2.15308e-20)
(4.57326 -0.318796 -1.71083e-22)
(4.75821 -0.281503 -1.56697e-22)
(4.92516 -0.248026 0)
(5.07597 -0.21825 -3.91169e-20)
(5.21234 -0.19181 0)
(5.33581 -0.168205 0)
(5.44757 -0.146883 0)
(5.54863 -0.127289 1.76133e-20)
(5.6397 -0.108905 0)
(5.7213 -0.0913115 -3.3282e-20)
(5.79379 -0.0741369 -1.63709e-20)
(5.85743 -0.0570054 0)
(5.9123 -0.0396878 -1.56954e-20)
(5.95834 -0.0219559 0)
(5.99527 -0.00357094 0)
(6.0227 0.0157193 -4.44679e-20)
(6.04022 0.0361381 2.91342e-20)
(6.04735 0.0577078 0)
(6.04347 0.0801021 2.84056e-20)
(6.02782 0.102856 -1.41868e-20)
(5.99929 0.125036 0)
(5.95644 0.145568 0)
(5.89705 0.163401 0)
(5.81907 0.177941 -4.08136e-20)
(5.71974 0.189402 0)
(5.59761 0.194184 -1.35617e-20)
(5.45766 0.190042 0)
(5.3107 0.183751 0)
(5.17251 0.179886 0)
(5.05374 0.17998 0)
(4.94495 0.175653 0)
(4.82782 0.155327 0)
(4.69841 0.126593 -2.58064e-20)
(4.56289 0.0982434 0)
(4.44075 0.0756303 -1.29856e-20)
(4.33551 0.0582875 3.89734e-20)
(4.25969 0.0550204 0)
(4.19303 0.0550885 0)
(4.15331 0.0733579 -2.62284e-20)
(4.08681 0.080858 -2.63913e-20)
(4.05505 0.118169 2.62825e-20)
(3.9385 0.118497 2.64071e-20)
(0.0688552 0.0627764 -4.80439e-21)
(0.437805 -0.501808 -4.8702e-21)
(0.891845 -1.16966 -3.46464e-21)
(1.30771 -1.67195 -2.00203e-21)
(1.63787 -1.98254 0)
(1.85894 -2.06721 4.38065e-21)
(1.98293 -1.96683 -2.65436e-21)
(2.04201 -1.75815 0)
(2.05488 -1.48862 -2.21205e-21)
(2.04758 -1.18827 0)
(2.02106 -0.889929 5.59355e-21)
(1.98032 -0.603526 0)
(1.91161 -0.343532 2.54907e-21)
(1.81939 -0.14044 5.21209e-21)
(1.6873 -0.00509179 -5.2951e-21)
(1.55755 0.111571 0)
(1.44031 0.245007 -5.3975e-21)
(1.31507 0.353404 0)
(1.17861 0.460006 0)
(1.02674 0.579242 -5.42602e-21)
(0.879661 0.687182 0)
(0.729501 0.791344 -5.55028e-22)
(0.577252 0.888743 0)
(0.41631 0.989014 0)
(0.238115 1.10641 6.17238e-22)
(0.0479892 1.23046 -5.30189e-21)
(-0.154631 1.35964 -5.93704e-21)
(-0.367753 1.48372 -5.27077e-21)
(-0.590412 1.58873 0)
(-0.82201 1.66319 -1.11757e-20)
(-1.06861 1.69016 0)
(-1.32217 1.65978 -5.89042e-21)
(-1.57981 1.58254 0)
(-1.834 1.48075 0)
(-2.08858 1.37851 6.0367e-21)
(-2.34979 1.29638 0)
(-2.63588 1.26911 -6.31081e-21)
(-2.92009 1.27872 5.43713e-22)
(-3.18585 1.3124 1.29448e-20)
(-3.43085 1.35177 -1.40272e-20)
(-3.64957 1.37071 0)
(-3.84041 1.338 0)
(-3.99835 1.27803 -8.37631e-21)
(-4.13668 1.18548 0)
(-4.25537 1.0874 -7.25544e-21)
(-4.36215 0.993925 7.49251e-21)
(-4.44732 0.885813 7.74125e-21)
(-4.51425 0.765469 0)
(-4.56511 0.641145 -8.22847e-21)
(-4.60907 0.513786 -8.42439e-21)
(-4.64496 0.389849 1.87982e-20)
(-4.68428 0.279751 -8.67672e-21)
(-4.72519 0.191921 -8.72166e-21)
(-4.76965 0.118206 0)
(-4.79687 0.0463971 0)
(-4.80702 -0.0210012 8.58113e-21)
(-4.80039 -0.0852951 0)
(-4.79355 -0.144917 0)
(-4.78325 -0.202512 -1.62113e-20)
(-4.79878 -0.215869 -1.5811e-20)
(-4.84264 -0.191692 0)
(-4.8782 -0.178262 0)
(-4.88109 -0.181137 0)
(-4.87418 -0.194488 0)
(-4.85232 -0.223565 -1.4328e-20)
(-4.80844 -0.254984 1.56076e-20)
(-4.74599 -0.283528 1.39849e-20)
(-4.67116 -0.297771 2.91287e-20)
(-4.59117 -0.294689 0)
(-4.50721 -0.281028 1.45526e-21)
(-4.42403 -0.267745 0)
(-4.34371 -0.253517 -1.31095e-20)
(-4.26912 -0.224583 1.33932e-21)
(-4.20272 -0.172458 -1.29265e-20)
(-4.14465 -0.087268 1.2906e-20)
(-4.0964 0.0270903 1.07509e-21)
(-4.0518 0.161144 0)
(-4.01951 0.320985 1.36476e-20)
(-4.01262 0.485153 1.24876e-20)
(-4.05649 0.625732 2.50312e-20)
(-4.11155 0.748985 0)
(-4.23327 0.755925 -1.18547e-20)
(-4.38838 0.649095 0)
(-4.572 0.515888 2.13877e-20)
(-4.74448 0.411578 -9.9993e-21)
(-4.90593 0.378709 9.68891e-21)
(-5.00966 0.386365 -9.47272e-21)
(-5.02041 0.351774 -2.04103e-20)