/*--------------------------------*- C++ -*----------------------------------*\
  =========                 |
  \\      /  F ield         | OpenFOAM: The Open Source CFD Toolbox
   \\    /   O peration     | Website:  https://openfoam.org
    \\  /    A nd           | Version:  9
     \\/     M anipulation  |
\*---------------------------------------------------------------------------*/
FoamFile
{
    format      ascii;
    class       volScalarField;
    location    "0.21";
    object      p;
}
// * * * * * * * * * * * * * * * * * * * * * * * * * * * * * * * * * * * * * //

dimensions      [0 2 -2 0 0 0 0];

internalField   nonuniform List<scalar> 
12225
(
-1.12059
-3.40359
-4.5661
-4.87433
-5.04268
-5.2025
-5.3272
-5.41576
-5.48553
-5.54674
-5.60117
-5.64865
-5.68951
-5.72305
-5.74817
-5.75454
-5.75185
-5.64418
-4.58809
-5.29021
-5.38047
-5.24548
-5.2055
-5.27289
-5.35377
-5.41977
-5.47696
-5.53056
-5.58037
-5.62522
-5.66483
-5.69833
-5.72528
-5.73868
-5.75135
-5.73621
-4.79283
-4.68989
-4.8467
-4.96889
-5.07635
-5.19878
-5.30721
-5.39004
-5.45744
-5.51751
-5.57193
-5.62046
-5.66327
-5.70009
-5.73134
-5.75395
-5.78215
-5.81483
-4.65554
-4.57742
-4.85353
-5.03232
-5.12687
-5.22412
-5.31938
-5.39711
-5.46191
-5.52036
-5.57393
-5.62226
-5.6655
-5.7038
-5.73817
-5.76869
-5.80705
-5.85951
-4.6625
-4.67977
-4.9199
-5.06986
-5.146
-5.23083
-5.32059
-5.39685
-5.46103
-5.51901
-5.57246
-5.6212
-5.66547
-5.70585
-5.74381
-5.78106
-5.8262
-5.88601
-4.72419
-4.76666
-4.94449
-5.07529
-5.15338
-5.23604
-5.32251
-5.39754
-5.46139
-5.51914
-5.57262
-5.62186
-5.66725
-5.70964
-5.75074
-5.79282
-5.84202
-5.90372
-4.78393
-4.82346
-4.9599
-5.08218
-5.16467
-5.24452
-5.32635
-5.39941
-5.4627
-5.52016
-5.57361
-5.6233
-5.66973
-5.71389
-5.75749
-5.80281
-5.85406
-5.91477
-4.83707
-4.87198
-4.98231
-5.09501
-5.17767
-5.2537
-5.33081
-5.40168
-5.46431
-5.52143
-5.57481
-5.6249
-5.67224
-5.71786
-5.76332
-5.81057
-5.86237
-5.92062
-4.88685
-4.9186
-5.00942
-5.11029
-5.19046
-5.26305
-5.33596
-5.4045
-5.46625
-5.52292
-5.57615
-5.62651
-5.67455
-5.72124
-5.76789
-5.816
-5.8673
-5.92257
-4.93421
-4.96284
-5.03805
-5.12702
-5.20349
-5.273
-5.34207
-5.40806
-5.46864
-5.52471
-5.57765
-5.6281
-5.67657
-5.72389
-5.7711
-5.81926
-5.8694
-5.92161
-4.97897
-5.00426
-5.06709
-5.14521
-5.21718
-5.28357
-5.34906
-5.41238
-5.47154
-5.52685
-5.57935
-5.62966
-5.67825
-5.72578
-5.77301
-5.82064
-5.86923
-5.91852
-5.01747
-5.03981
-5.09368
-5.163
-5.23034
-5.29372
-5.35611
-5.41696
-5.47465
-5.5291
-5.58104
-5.63102
-5.67945
-5.72681
-5.77367
-5.82047
-5.86747
-5.91431
-5.05315
-5.07296
-5.11951
-5.18109
-5.24372
-5.30404
-5.36353
-5.42197
-5.47808
-5.53154
-5.58279
-5.63227
-5.68032
-5.72728
-5.77351
-5.81927
-5.86466
-5.90927
-5.09067
-5.10797
-5.14779
-5.20181
-5.25922
-5.31598
-5.37234
-5.42812
-5.48234
-5.53452
-5.58482
-5.63354
-5.6809
-5.72711
-5.77238
-5.81679
-5.86035
-5.9027
-5.12876
-5.14367
-5.17753
-5.22458
-5.27653
-5.32936
-5.38241
-5.43534
-5.48738
-5.53796
-5.58701
-5.63465
-5.68098
-5.72609
-5.77005
-5.81286
-5.85445
-5.89455
-5.16551
-5.17826
-5.20713
-5.24807
-5.29476
-5.34353
-5.39321
-5.44324
-5.4929
-5.5416
-5.5891
-5.63534
-5.68031
-5.72399
-5.76637
-5.80739
-5.84697
-5.88491
-5.19801
-5.20901
-5.234
-5.27003
-5.31215
-5.35715
-5.40365
-5.45089
-5.49816
-5.54485
-5.59059
-5.63519
-5.67855
-5.72059
-5.76122
-5.80038
-5.83799
-5.87393
-5.22191
-5.23171
-5.2541
-5.28678
-5.32563
-5.36776
-5.41174
-5.4567
-5.5019
-5.54672
-5.59074
-5.63368
-5.67539
-5.71574
-5.75464
-5.79201
-5.82781
-5.86196
-5.23026
-5.23961
-5.26107
-5.2926
-5.33028
-5.37126
-5.41407
-5.45783
-5.50183
-5.54544
-5.58819
-5.62982
-5.67016
-5.70908
-5.7465
-5.78237
-5.81667
-5.84937
-5.21524
-5.22529
-5.24827
-5.28189
-5.32167
-5.36425
-5.4081
-5.45253
-5.49693
-5.54065
-5.58325
-5.62452
-5.66432
-5.70258
-5.73924
-5.77429
-5.80772
-5.83956
-5.189
-5.20019
-5.22597
-5.26368
-5.30741
-5.35295
-5.39897
-5.44515
-5.49085
-5.53539
-5.57843
-5.61986
-5.65963
-5.69772
-5.73409
-5.76876
-5.80177
-5.83318
-5.15403
-5.1664
-5.19643
-5.24088
-5.29035
-5.33946
-5.38816
-5.43682
-5.4845
-5.5303
-5.57407
-5.61592
-5.6559
-5.69401
-5.73028
-5.76476
-5.79753
-5.82867
-5.11339
-5.12599
-5.16134
-5.21591
-5.27301
-5.32598
-5.37751
-5.42887
-5.4786
-5.52573
-5.57037
-5.61281
-5.65313
-5.69138
-5.72765
-5.76205
-5.79469
-5.82568
-5.06954
-5.0811
-5.12346
-5.19006
-5.25472
-5.31233
-5.36819
-5.42283
-5.4743
-5.52232
-5.56761
-5.61054
-5.65114
-5.68949
-5.72573
-5.76006
-5.79259
-5.82344
-5.02267
-5.03042
-5.09144
-5.17121
-5.2363
-5.29593
-5.35778
-5.41731
-5.47101
-5.52001
-5.56598
-5.6094
-5.65022
-5.6886
-5.72478
-5.759
-5.79142
-5.8222
-4.97471
-4.95105
-5.06183
-5.17073
-5.23126
-5.28531
-5.34869
-5.41099
-5.4662
-5.51614
-5.56293
-5.60694
-5.64809
-5.68661
-5.72285
-5.75706
-5.78945
-5.82017
-4.96539
-4.82105
-4.98006
-5.14622
-5.23067
-5.29163
-5.35636
-5.41745
-5.47111
-5.52016
-5.56647
-5.61004
-5.65073
-5.68882
-5.72463
-5.75845
-5.79053
-5.82106
-5.11079
-4.82698
-4.86169
-4.9921
-5.11163
-5.21857
-5.31255
-5.38822
-5.45037
-5.5055
-5.55612
-5.60258
-5.64524
-5.68469
-5.72147
-5.75596
-5.78868
-5.82025
-5.04759
-5.54727
-5.55736
-5.39806
-5.31702
-5.34115
-5.39521
-5.44452
-5.48952
-5.53396
-5.57747
-5.61876
-5.65748
-5.69381
-5.72797
-5.76004
-5.7903
-5.82059
-1.70891
-3.57946
-4.6507
-4.9437
-5.07848
-5.21515
-5.32698
-5.40687
-5.46972
-5.52561
-5.57678
-5.62331
-5.66576
-5.70488
-5.74108
-5.77437
-5.80442
-5.82946
-6.72382
-6.72382
-6.72418
-6.72487
-6.72579
-6.72691
-6.72825
-6.7298
-6.7316
-6.73366
-6.736
-6.73866
-6.74166
-6.74506
-6.74887
-6.75315
-6.75793
-6.76324
-6.76913
-6.77562
-6.78277
-6.79062
-6.7992
-6.80856
-6.81876
-6.82985
-6.84189
-6.85498
-6.86924
-6.88487
-6.90237
-6.92229
-6.94103
-6.95018
-6.96721
-6.99836
-7.0261
-7.04122
-7.06353
-7.08821
-7.11512
-7.14282
-7.17227
-7.20204
-7.2197
-7.24509
-7.27258
-7.30151
-7.33136
-7.36188
-7.3929
-7.42426
-7.45584
-7.48752
-7.5192
-7.55075
-7.58208
-7.61306
-7.64358
-7.67352
-7.70275
-7.73114
-7.75856
-7.78485
-7.80988
-7.83349
-7.85552
-7.87581
-7.89419
-7.91049
-7.92453
-7.93613
-7.94511
-7.95128
-7.95445
-7.95445
-7.95106
-7.94412
-7.93342
-7.91879
-7.90002
-7.87695
-7.84938
-7.81713
-7.78004
-7.73794
-7.69064
-7.63801
-7.57987
-7.51608
-7.4465
-7.37099
-7.28943
-7.2017
-7.10769
-7.0073
-6.90051
-6.78733
-6.66773
-6.54148
-6.40836
-6.26814
-6.121
-5.96698
-5.80611
-5.63842
-5.46394
-5.2827
-5.09476
-4.90021
-4.69912
-4.49161
-4.2778
-4.05782
-3.83183
-3.59999
-3.36249
-3.11952
-2.87129
-2.61804
-2.35998
-2.09738
-1.83049
-1.55959
-1.28494
-1.00683
-0.725572
-0.441453
-0.154784
0.134122
0.42495
0.717381
1.0111
1.30577
1.6011
1.89675
2.19241
2.48777
2.78252
3.07637
3.36902
3.66018
3.94957
4.23694
4.52201
4.80454
5.0843
5.36106
5.6346
5.90474
6.17127
6.43402
6.69284
6.94757
7.19807
7.44423
7.68592
7.92305
8.15552
8.38326
8.6062
8.82428
9.03747
9.24574
9.44906
9.64739
9.84056
10.0284
10.211
10.3884
10.5604
10.7273
10.8889
11.0453
11.1966
11.3431
11.4857
11.6258
11.7725
11.9264
-6.72251
-6.7228
-6.72325
-6.72383
-6.72439
-6.72496
-6.72563
-6.72653
-6.72771
-6.7292
-6.73103
-6.73323
-6.7358
-6.73877
-6.74217
-6.74602
-6.75036
-6.75521
-6.76062
-6.7666
-6.77321
-6.78046
-6.78841
-6.79707
-6.80649
-6.81668
-6.82766
-6.83943
-6.85198
-6.86522
-6.87891
-6.8918
-6.90338
-6.9261
-6.94951
-6.96297
-6.97537
-7.00092
-7.0244
-7.04786
-7.07034
-7.09517
-7.12109
-7.14759
-7.18587
-7.21811
-7.24883
-7.27933
-7.30998
-7.34087
-7.37202
-7.40339
-7.4349
-7.46649
-7.49804
-7.52947
-7.56068
-7.59156
-7.62199
-7.65187
-7.68106
-7.70943
-7.73686
-7.7632
-7.78831
-7.81204
-7.83422
-7.8547
-7.87331
-7.88988
-7.90423
-7.91618
-7.92555
-7.93216
-7.93582
-7.93634
-7.93352
-7.92719
-7.91716
-7.90322
-7.88521
-7.86292
-7.8362
-7.80484
-7.76869
-7.72756
-7.68131
-7.62976
-7.57276
-7.51016
-7.44184
-7.36764
-7.28744
-7.20113
-7.10859
-7.00972
-6.9044
-6.79252
-6.67393
-6.54842
-6.41606
-6.27715
-6.13152
-5.97909
-5.81985
-5.65381
-5.48099
-5.30142
-5.11515
-4.92227
-4.72286
-4.51701
-4.30484
-4.0865
-3.86213
-3.63189
-3.39596
-3.15454
-2.90783
-2.65605
-2.39944
-2.13824
-1.87271
-1.60312
-1.32973
-1.05285
-0.772748
-0.489736
-0.204117
0.0837977
0.373695
0.665258
0.958167
1.2521
1.54675
1.84179
2.1369
2.43178
2.72612
3.01961
3.31197
3.60291
3.89214
4.1794
4.46443
4.74698
5.02681
5.3037
5.57742
5.84778
6.11458
6.37765
6.63682
6.89195
7.14288
7.38949
7.63168
7.86932
8.10233
8.33064
8.55416
8.77285
8.98666
9.19555
9.39952
9.59847
9.79227
9.98081
10.1641
10.3421
10.5149
10.6825
10.8448
11.0021
11.1544
11.3022
11.4467
11.5889
11.7391
11.8869
-6.71897
-6.72003
-6.72115
-6.72215
-6.72286
-6.7234
-6.72397
-6.72469
-6.72567
-6.72696
-6.72858
-6.73056
-6.73294
-6.73573
-6.73895
-6.74264
-6.74683
-6.75153
-6.75679
-6.76264
-6.76911
-6.77622
-6.78402
-6.79253
-6.80177
-6.81178
-6.82257
-6.83415
-6.84654
-6.85972
-6.87362
-6.88808
-6.90331
-6.92146
-6.9414
-6.96004
-6.97896
-7.00073
-7.02433
-7.04811
-7.07265
-7.09684
-7.12175
-7.1472
-7.17619
-7.20549
-7.23515
-7.2651
-7.29532
-7.3258
-7.35651
-7.38741
-7.41843
-7.44951
-7.48056
-7.5115
-7.54223
-7.57265
-7.60265
-7.63212
-7.66093
-7.68897
-7.71611
-7.74219
-7.76708
-7.79063
-7.81269
-7.83309
-7.85167
-7.86826
-7.88268
-7.89476
-7.90432
-7.91116
-7.91512
-7.91599
-7.91359
-7.90773
-7.89823
-7.88489
-7.86753
-7.84597
-7.82002
-7.78951
-7.75426
-7.7141
-7.66887
-7.61841
-7.56255
-7.50117
-7.4341
-7.36121
-7.28238
-7.19749
-7.10641
-7.00904
-6.90526
-6.79494
-6.67794
-6.55432
-6.42391
-6.28683
-6.14302
-5.99245
-5.83509
-5.67095
-5.50005
-5.32242
-5.1381
-4.94717
-4.74971
-4.54581
-4.33559
-4.11918
-3.89672
-3.66839
-3.43434
-3.19477
-2.94988
-2.69989
-2.44503
-2.18554
-1.92167
-1.65369
-1.38187
-1.10649
-0.827842
-0.546219
-0.261927
0.0247288
0.313434
0.603875
0.895734
1.18869
1.48244
1.77665
2.07101
2.36521
2.65895
2.95193
3.24384
3.53441
3.82335
4.11039
4.39527
4.67775
4.95757
5.23451
5.50835
5.77889
6.04594
6.30931
6.56883
6.82435
7.07573
7.32283
7.56554
7.80375
8.03736
8.26628
8.49045
8.70979
8.92425
9.13379
9.33836
9.53791
9.73239
9.92171
10.1058
10.2847
10.4584
10.6268
10.7902
10.9485
11.1021
11.2513
11.3977
11.5416
11.6944
11.8321
-6.71363
-6.71545
-6.71761
-6.71944
-6.72071
-6.72164
-6.72246
-6.72334
-6.7244
-6.7257
-6.72732
-6.72928
-6.73162
-6.73436
-6.73755
-6.74119
-6.74533
-6.74999
-6.7552
-6.76098
-6.76738
-6.77442
-6.78213
-6.79054
-6.79967
-6.80955
-6.82021
-6.83165
-6.84391
-6.85698
-6.87089
-6.88565
-6.90145
-6.91854
-6.93689
-6.95594
-6.97592
-6.99712
-7.01967
-7.04312
-7.06751
-7.09248
-7.11811
-7.14444
-7.17182
-7.20002
-7.22883
-7.25811
-7.28776
-7.31773
-7.34797
-7.37842
-7.409
-7.43966
-7.4703
-7.50085
-7.53121
-7.56128
-7.59097
-7.62015
-7.64871
-7.67653
-7.70347
-7.72941
-7.75418
-7.77766
-7.79968
-7.82008
-7.8387
-7.85537
-7.86992
-7.88217
-7.89193
-7.89903
-7.90328
-7.9045
-7.90248
-7.89705
-7.88802
-7.8752
-7.85841
-7.83745
-7.81216
-7.78234
-7.74784
-7.70846
-7.66406
-7.61447
-7.55953
-7.4991
-7.43302
-7.36117
-7.28341
-7.1996
-7.10964
-7.0134
-6.91078
-6.80166
-6.68594
-6.56362
-6.43464
-6.29898
-6.15661
-6.00748
-5.85159
-5.68894
-5.51953
-5.34339
-5.16059
-4.97117
-4.77522
-4.57283
-4.36412
-4.14921
-3.92824
-3.70137
-3.46878
-3.23065
-2.98718
-2.73858
-2.48508
-2.22692
-1.96435
-1.69762
-1.42702
-1.15282
-0.875308
-0.594775
-0.311523
-0.0258592
0.261907
0.551461
0.842488
1.13467
1.42769
1.72124
2.015
2.30866
2.60192
2.89447
3.18602
3.47628
3.76497
4.05182
4.33657
4.61897
4.89876
5.17573
5.44966
5.72033
5.98755
6.25114
6.51092
6.76675
7.01847
7.26595
7.50906
7.7477
7.98176
8.21116
8.43583
8.6557
8.8707
9.08079
9.28588
9.48591
9.68086
9.8707
10.0554
10.2349
10.4092
10.5783
10.7423
10.9014
11.0558
11.2059
11.3532
11.4972
11.6489
11.7744
-6.70779
-6.71044
-6.71373
-6.71653
-6.71852
-6.72
-6.72126
-6.72247
-6.72379
-6.72529
-6.72707
-6.72916
-6.73161
-6.73446
-6.73774
-6.74148
-6.7457
-6.75044
-6.75572
-6.76159
-6.76806
-6.77517
-6.78295
-6.79142
-6.80063
-6.81059
-6.82133
-6.83288
-6.84526
-6.8585
-6.87262
-6.88767
-6.90371
-6.92083
-6.939
-6.95812
-6.97822
-6.99937
-7.02155
-7.04465
-7.06861
-7.09338
-7.11896
-7.14531
-7.17241
-7.20016
-7.22847
-7.25726
-7.28646
-7.31601
-7.34586
-7.37594
-7.40617
-7.4365
-7.46683
-7.49709
-7.52718
-7.55702
-7.58648
-7.61547
-7.64387
-7.67155
-7.69838
-7.72423
-7.74896
-7.77241
-7.79443
-7.81487
-7.83355
-7.85032
-7.86499
-7.87739
-7.88734
-7.89465
-7.89914
-7.90063
-7.89892
-7.89382
-7.88515
-7.87272
-7.85635
-7.83584
-7.81102
-7.78171
-7.74774
-7.70894
-7.66513
-7.61616
-7.56187
-7.50212
-7.43675
-7.36562
-7.28862
-7.20559
-7.11643
-7.02102
-6.91925
-6.81102
-6.69626
-6.57491
-6.44693
-6.31226
-6.17089
-6.02277
-5.86789
-5.70625
-5.53786
-5.36276
-5.18098
-4.99259
-4.79767
-4.59631
-4.38861
-4.17472
-3.95476
-3.72889
-3.49729
-3.26013
-3.01761
-2.76995
-2.51738
-2.26012
-1.99843
-1.73256
-1.46279
-1.18939
-0.912653
-0.632864
-0.350324
-0.0653389
0.221782
0.510727
0.801181
1.09283
1.38535
1.67844
1.97178
2.26506
2.55798
2.85023
3.14152
3.43156
3.72007
4.00678
4.29143
4.57376
4.85353
5.13051
5.40448
5.67523
5.94256
6.20629
6.46625
6.72228
6.97423
7.22196
7.46535
7.70429
7.93868
8.16843
8.39346
8.61369
8.82907
9.03952
9.24495
9.4453
9.64054
9.83068
10.0157
10.1955
10.3702
10.5397
10.7041
10.8636
11.0184
11.1689
11.3162
11.459
11.6079
11.7216
-6.70261
-6.70598
-6.7103
-6.71403
-6.71678
-6.71888
-6.72065
-6.7223
-6.72398
-6.72581
-6.72787
-6.73021
-6.7329
-6.73597
-6.73946
-6.74339
-6.74782
-6.75275
-6.75823
-6.76429
-6.77096
-6.77827
-6.78626
-6.79495
-6.80437
-6.81456
-6.82554
-6.83734
-6.84999
-6.86351
-6.87793
-6.89328
-6.90959
-6.92688
-6.94516
-6.96438
-6.98456
-7.00569
-7.02774
-7.05066
-7.0744
-7.09891
-7.12419
-7.15021
-7.17693
-7.20427
-7.23218
-7.26058
-7.28942
-7.31864
-7.34818
-7.37797
-7.40794
-7.43802
-7.46813
-7.49819
-7.52811
-7.55779
-7.58712
-7.616
-7.64431
-7.67193
-7.69872
-7.72455
-7.74928
-7.77276
-7.79483
-7.81534
-7.83411
-7.85099
-7.86579
-7.87834
-7.88846
-7.89596
-7.90066
-7.90237
-7.9009
-7.89606
-7.88767
-7.87554
-7.85947
-7.8393
-7.81483
-7.78589
-7.7523
-7.71389
-7.6705
-7.62197
-7.56814
-7.50886
-7.44398
-7.37336
-7.29688
-7.21441
-7.12581
-7.03099
-6.92982
-6.82224
-6.70815
-6.58748
-6.46017
-6.32619
-6.18549
-6.03805
-5.88385
-5.72288
-5.55517
-5.38074
-5.19964
-5.01193
-4.81769
-4.617
-4.40999
-4.19676
-3.97747
-3.75226
-3.52131
-3.28479
-3.04291
-2.79588
-2.54392
-2.28726
-2.02616
-1.76087
-1.49166
-1.21881
-0.942593
-0.66331
-0.381258
-0.0967392
0.189937
0.478458
0.768511
1.05978
1.35195
1.64472
1.93775
2.23076
2.52342
2.81545
3.10654
3.39641
3.68478
3.97137
4.25592
4.53819
4.81792
5.09489
5.36887
5.63965
5.90704
6.17086
6.43092
6.68707
6.93915
7.18705
7.43062
7.66976
7.90437
8.13434
8.35961
8.58008
8.79569
9.00636
9.21201
9.41257
9.60801
9.79836
9.98357
10.1636
10.3385
10.5083
10.6729
10.8326
10.9876
11.1379
11.2846
11.4258
11.5716
11.6749
-6.69892
-6.70287
-6.70801
-6.71253
-6.71597
-6.71866
-6.72095
-6.72306
-6.72516
-6.72736
-6.72975
-6.73241
-6.7354
-6.73876
-6.74253
-6.74674
-6.75144
-6.75665
-6.7624
-6.76873
-6.77568
-6.78326
-6.79153
-6.8005
-6.8102
-6.82068
-6.83194
-6.84403
-6.85696
-6.87076
-6.88545
-6.90104
-6.91756
-6.935
-6.95338
-6.97267
-6.99286
-7.01395
-7.0359
-7.05869
-7.08227
-7.10661
-7.13168
-7.15746
-7.1839
-7.21096
-7.23858
-7.26672
-7.29531
-7.32429
-7.35362
-7.38321
-7.41302
-7.44295
-7.47293
-7.50289
-7.53272
-7.56233
-7.59162
-7.62047
-7.64878
-7.6764
-7.70322
-7.7291
-7.75389
-7.77744
-7.7996
-7.82021
-7.83911
-7.85611
-7.87105
-7.88375
-7.89403
-7.9017
-7.90657
-7.90846
-7.90719
-7.90255
-7.89437
-7.88245
-7.8666
-7.84666
-7.82243
-7.79373
-7.7604
-7.72225
-7.67914
-7.63089
-7.57735
-7.51838
-7.45382
-7.38354
-7.3074
-7.22528
-7.13706
-7.04262
-6.94186
-6.8347
-6.72103
-6.6008
-6.47393
-6.34037
-6.2001
-6.05308
-5.89929
-5.73875
-5.57146
-5.39745
-5.21676
-5.02947
-4.83565
-4.63538
-4.42878
-4.21597
-3.9971
-3.7723
-3.54176
-3.30566
-3.06419
-2.81756
-2.566
-2.30974
-2.04902
-1.78411
-1.51528
-1.24279
-0.966931
-0.687996
-0.406281
-0.122088
0.164273
0.452492
0.742256
1.03325
1.32516
1.61768
1.91048
2.20327
2.49574
2.78758
3.0785
3.36822
3.65646
3.94294
4.22739
4.50958
4.78925
5.06617
5.34012
5.6109
5.87829
6.14213
6.40223
6.65843
6.9106
7.15858
7.40226
7.64151
7.87624
8.10635
8.33175
8.55237
8.76812
8.97893
9.18472
9.38542
9.58102
9.7715
9.95685
10.1371
10.3121
10.482
10.6467
10.8065
10.9613
11.1113
11.2572
11.3964
11.5393
11.6335
-6.6972
-6.70154
-6.70727
-6.71241
-6.71641
-6.71962
-6.72239
-6.72494
-6.72743
-6.73001
-6.73275
-6.73575
-6.73906
-6.74273
-6.74681
-6.75133
-6.75632
-6.76183
-6.76788
-6.77451
-6.78176
-6.78964
-6.7982
-6.80746
-6.81746
-6.82822
-6.83977
-6.85213
-6.86532
-6.87936
-6.89426
-6.91005
-6.92672
-6.94429
-6.96274
-6.98207
-7.00226
-7.02331
-7.04519
-7.06788
-7.09134
-7.11555
-7.14049
-7.16611
-7.19238
-7.21927
-7.24672
-7.2747
-7.30314
-7.332
-7.36121
-7.39071
-7.42044
-7.45032
-7.48027
-7.51021
-7.54005
-7.56968
-7.599
-7.6279
-7.65627
-7.68397
-7.71088
-7.73685
-7.76175
-7.78542
-7.8077
-7.82844
-7.84747
-7.86461
-7.87969
-7.89253
-7.90295
-7.91076
-7.91578
-7.91781
-7.91667
-7.91218
-7.90413
-7.89235
-7.87665
-7.85684
-7.83274
-7.80419
-7.77099
-7.733
-7.69003
-7.64193
-7.58855
-7.52974
-7.46536
-7.39526
-7.31931
-7.23739
-7.14938
-7.05516
-6.95463
-6.8477
-6.73427
-6.61427
-6.48763
-6.3543
-6.21424
-6.06744
-5.91387
-5.75354
-5.58646
-5.41267
-5.2322
-5.04512
-4.85152
-4.65147
-4.4451
-4.23252
-4.01387
-3.78931
-3.55901
-3.32314
-3.08191
-2.83552
-2.5842
-2.32818
-2.06771
-1.80304
-1.53444
-1.2622
-0.986578
-0.707879
-0.426396
-0.142432
0.143705
0.431704
0.721252
1.01204
1.30375
1.59607
1.88869
2.18129
2.47359
2.76527
3.05604
3.34562
3.63373
3.92008
4.20443
4.48652
4.7661
5.04294
5.31683
5.58755
5.85491
6.11872
6.37881
6.63502
6.8872
7.1352
7.37891
7.61822
7.853
8.08317
8.30865
8.52934
8.74517
8.95605
9.16193
9.36272
9.55841
9.74899
9.93444
10.1147
10.2898
10.4598
10.6246
10.7842
10.9388
11.0882
11.233
11.3702
11.5105
11.5968
-6.69764
-6.70222
-6.70831
-6.71386
-6.71829
-6.72191
-6.72507
-6.728
-6.73086
-6.73377
-6.73684
-6.74015
-6.74376
-6.74773
-6.7521
-6.75691
-6.76219
-6.76798
-6.77431
-6.78123
-6.78875
-6.79691
-6.80574
-6.81527
-6.82552
-6.83653
-6.84832
-6.8609
-6.8743
-6.88853
-6.9036
-6.91953
-6.93632
-6.95397
-6.97247
-6.99183
-7.01203
-7.03306
-7.0549
-7.07752
-7.10092
-7.12505
-7.14991
-7.17544
-7.20164
-7.22844
-7.25582
-7.28374
-7.31213
-7.34096
-7.37015
-7.39966
-7.42941
-7.45932
-7.48932
-7.51933
-7.54924
-7.57896
-7.60838
-7.6374
-7.66589
-7.69372
-7.72076
-7.74687
-7.77191
-7.79572
-7.81815
-7.83903
-7.85819
-7.87546
-7.89067
-7.90363
-7.91416
-7.92208
-7.92719
-7.92932
-7.92826
-7.92384
-7.91586
-7.90414
-7.88849
-7.86873
-7.84468
-7.81616
-7.78301
-7.74505
-7.70212
-7.65406
-7.60072
-7.54195
-7.47761
-7.40757
-7.33168
-7.24983
-7.16189
-7.06775
-6.9673
-6.86045
-6.74709
-6.62716
-6.50058
-6.36732
-6.22732
-6.08057
-5.92706
-5.76678
-5.59976
-5.42602
-5.24562
-5.05861
-4.86507
-4.6651
-4.45881
-4.24632
-4.02776
-3.8033
-3.57311
-3.33735
-3.09624
-2.84997
-2.59878
-2.3429
-2.08257
-1.81805
-1.54961
-1.27751
-1.00206
-0.723519
-0.442201
-0.158404
0.127563
0.415393
0.704771
0.995385
1.28692
1.57908
1.87153
2.16398
2.45611
2.74764
3.03825
3.32768
3.61564
3.90186
4.18608
4.46804
4.74751
5.02425
5.29804
5.56867
5.83595
6.09969
6.35973
6.61588
6.86802
7.116
7.35969
7.59899
7.83377
8.06395
8.28944
8.51015
8.72601
8.93693
9.14284
9.34369
9.53944
9.73007
9.91556
10.0959
10.271
10.4409
10.6056
10.7651
10.9193
11.0681
11.2117
11.3468
11.4848
11.5643
-6.70027
-6.70492
-6.71116
-6.71693
-6.72162
-6.72554
-6.729
-6.73222
-6.73536
-6.73855
-6.74189
-6.74546
-6.74933
-6.75354
-6.75815
-6.7632
-6.76872
-6.77474
-6.78131
-6.78845
-6.79619
-6.80457
-6.81361
-6.82335
-6.83381
-6.845
-6.85696
-6.86971
-6.88326
-6.89762
-6.91282
-6.92884
-6.94571
-6.96342
-6.98197
-7.00135
-7.02156
-7.04259
-7.06441
-7.08702
-7.1104
-7.13452
-7.15935
-7.18488
-7.21106
-7.23787
-7.26527
-7.29321
-7.32164
-7.35052
-7.37978
-7.40937
-7.43921
-7.46924
-7.49936
-7.52949
-7.55955
-7.58942
-7.619
-7.64817
-7.67682
-7.70481
-7.73201
-7.75828
-7.78347
-7.80742
-7.82999
-7.85099
-7.87027
-7.88765
-7.90295
-7.91599
-7.92659
-7.93456
-7.93972
-7.94187
-7.94083
-7.93641
-7.92842
-7.91667
-7.90099
-7.88119
-7.85709
-7.82852
-7.7953
-7.75728
-7.71428
-7.66616
-7.61275
-7.55392
-7.48953
-7.41943
-7.34349
-7.2616
-7.17362
-7.07945
-6.97896
-6.87205
-6.75864
-6.63864
-6.512
-6.37867
-6.2386
-6.09178
-5.9382
-5.77786
-5.61077
-5.43698
-5.25652
-5.06947
-4.8759
-4.6759
-4.46959
-4.25709
-4.03854
-3.81409
-3.58392
-3.3482
-3.10713
-2.86092
-2.60979
-2.35398
-2.09373
-1.8293
-1.56096
-1.28898
-1.01364
-0.735225
-0.45404
-0.170382
0.11544
0.403119
0.692343
0.9828
1.27418
1.56616
1.85844
2.15071
2.44268
2.73403
3.02448
3.31374
3.60154
3.88759
4.17165
4.45346
4.73278
5.00937
5.28303
5.55353
5.82069
6.08432
6.34425
6.60031
6.85236
7.10026
7.34389
7.58312
7.81786
8.048
8.27346
8.49415
8.70999
8.9209
9.12682
9.32768
9.52345
9.7141
9.89961
10.0799
10.255
10.4249
10.5895
10.7486
10.9024
11.0504
11.1928
11.3259
11.4617
11.5353
-6.70492
-6.7095
-6.7157
-6.72151
-6.72632
-6.73041
-6.73405
-6.73747
-6.74081
-6.7442
-6.74773
-6.75148
-6.75552
-6.7599
-6.76468
-6.76989
-6.77557
-6.78175
-6.78847
-6.79576
-6.80365
-6.81218
-6.82136
-6.83123
-6.84181
-6.85313
-6.8652
-6.87805
-6.8917
-6.90614
-6.92141
-6.93749
-6.95441
-6.97216
-6.99075
-7.01016
-7.03039
-7.05144
-7.07328
-7.09592
-7.11932
-7.14347
-7.16835
-7.19393
-7.22017
-7.24706
-7.27454
-7.30257
-7.33112
-7.36012
-7.38952
-7.41925
-7.44925
-7.47943
-7.50973
-7.54004
-7.57027
-7.60031
-7.63007
-7.65942
-7.68824
-7.71639
-7.74375
-7.77016
-7.79548
-7.81956
-7.84223
-7.86332
-7.88267
-7.90011
-7.91544
-7.9285
-7.9391
-7.94706
-7.95217
-7.95427
-7.95316
-7.94865
-7.94056
-7.92871
-7.9129
-7.89297
-7.86873
-7.84001
-7.80664
-7.76846
-7.72531
-7.67703
-7.62347
-7.5645
-7.49995
-7.42971
-7.35365
-7.27162
-7.18352
-7.0892
-6.98856
-6.8815
-6.76792
-6.64776
-6.52095
-6.38746
-6.24723
-6.10025
-5.94651
-5.78602
-5.6188
-5.44487
-5.26429
-5.07713
-4.88346
-4.68337
-4.47699
-4.26442
-4.04582
-3.82134
-3.59115
-3.35542
-3.11435
-2.86816
-2.61707
-2.36131
-2.10112
-1.83677
-1.56851
-1.29662
-1.02139
-0.743103
-0.462054
-0.178543
0.107124
0.394641
0.683696
0.973977
1.26517
1.55697
1.84906
2.14113
2.4329
2.72405
3.0143
3.30336
3.59095
3.8768
4.16066
4.44227
4.7214
4.9978
5.27128
5.5416
5.80859
6.07206
6.33183
6.58775
6.83967
7.08745
7.33096
7.5701
7.80474
8.0348
8.26019
8.48082
8.69661
8.90748
9.11337
9.31422
9.50998
9.70062
9.88611
10.0664
10.2414
10.4112
10.5755
10.7344
10.8876
11.0348
11.1759
11.3071
11.4409
11.5097
-6.71133
-6.71573
-6.72173
-6.72743
-6.73223
-6.73636
-6.74008
-6.74358
-6.74701
-6.75048
-6.7541
-6.75794
-6.76206
-6.76652
-6.77137
-6.77664
-6.78239
-6.78864
-6.79542
-6.80278
-6.81073
-6.81932
-6.82856
-6.83849
-6.84912
-6.86049
-6.87262
-6.88551
-6.89919
-6.91368
-6.92898
-6.9451
-6.96205
-6.97983
-6.99844
-7.01789
-7.03816
-7.05925
-7.08114
-7.10383
-7.12731
-7.15154
-7.17651
-7.20219
-7.22855
-7.25556
-7.28318
-7.31136
-7.34007
-7.36924
-7.39881
-7.42872
-7.4589
-7.48928
-7.51976
-7.55025
-7.58066
-7.61088
-7.6408
-7.67031
-7.69927
-7.72755
-7.75502
-7.78153
-7.80692
-7.83106
-7.85376
-7.87487
-7.89421
-7.91162
-7.92691
-7.93989
-7.9504
-7.95824
-7.96322
-7.96517
-7.96389
-7.9592
-7.95092
-7.93886
-7.92284
-7.90268
-7.87821
-7.84926
-7.81566
-7.77725
-7.73387
-7.68536
-7.63158
-7.57239
-7.50764
-7.4372
-7.36094
-7.27872
-7.1904
-7.09585
-6.99498
-6.88767
-6.77386
-6.65346
-6.52642
-6.3927
-6.25225
-6.10506
-5.95112
-5.79043
-5.62302
-5.44893
-5.26819
-5.08089
-4.88709
-4.6869
-4.48042
-4.26777
-4.04911
-3.82458
-3.59436
-3.35862
-3.11757
-2.87141
-2.62036
-2.36466
-2.10455
-1.84029
-1.57214
-1.30038
-1.02528
-0.747143
-0.466258
-0.182923
0.102558
0.389878
0.678726
0.968792
1.25976
1.55133
1.84318
2.13501
2.42653
2.71743
3.00743
3.29623
3.58356
3.86916
4.15277
4.43413
4.71301
4.98917
5.26241
5.53251
5.79928
6.06253
6.3221
6.57783
6.82956
7.07717
7.32053
7.55952
7.79403
8.02397
8.24925
8.46978
8.68549
8.89629
9.10213
9.30293
9.49866
9.68927
9.87472
10.055
10.2299
10.3995
10.5636
10.7221
10.8747
11.021
11.1609
11.2903
11.4222
11.4869
-6.71921
-6.72336
-6.72904
-6.7345
-6.73916
-6.7432
-6.74686
-6.75033
-6.75373
-6.75717
-6.76076
-6.76456
-6.76865
-6.77307
-6.77789
-6.78313
-6.78884
-6.79505
-6.80181
-6.80914
-6.81707
-6.82563
-6.83485
-6.84476
-6.85539
-6.86675
-6.87886
-6.89175
-6.90543
-6.91992
-6.93522
-6.95135
-6.96832
-6.98612
-7.00477
-7.02425
-7.04457
-7.06572
-7.08769
-7.11047
-7.13404
-7.15838
-7.18347
-7.20928
-7.23579
-7.26295
-7.29074
-7.31909
-7.34797
-7.37731
-7.40706
-7.43715
-7.4675
-7.49804
-7.52867
-7.55931
-7.58985
-7.62019
-7.65022
-7.6798
-7.70883
-7.73715
-7.76464
-7.79114
-7.81652
-7.8406
-7.86323
-7.88424
-7.90347
-7.92073
-7.93585
-7.94865
-7.95894
-7.96656
-7.9713
-7.97298
-7.97143
-7.96646
-7.95789
-7.94553
-7.92921
-7.90875
-7.88398
-7.85472
-7.82083
-7.78213
-7.73846
-7.68968
-7.63564
-7.57619
-7.51119
-7.44052
-7.36402
-7.28154
-7.19293
-7.0981
-6.99693
-6.88934
-6.77525
-6.65458
-6.52728
-6.3933
-6.25261
-6.10519
-5.95104
-5.79016
-5.62257
-5.44831
-5.26743
-5.07999
-4.88608
-4.6858
-4.47924
-4.26655
-4.04785
-3.82331
-3.5931
-3.35739
-3.11638
-2.87029
-2.61933
-2.36373
-2.10375
-1.83963
-1.57163
-1.30004
-1.02514
-0.747206
-0.466542
-0.183442
0.101791
0.388851
0.677428
0.967213
1.25789
1.54916
1.84071
2.13223
2.42343
2.71402
3.00369
3.29217
3.57918
3.86446
4.14775
4.4288
4.70737
4.98323
5.25617
5.52598
5.79247
6.05545
6.31477
6.57025
6.82175
7.06914
7.3123
7.5511
7.78544
8.01522
8.24036
8.46076
8.67635
8.88706
9.09282
9.29357
9.48924
9.67981
9.8652
10.0453
10.2202
10.3896
10.5534
10.7115
10.8635
11.0089
11.1475
11.2752
11.4053
11.4667
-6.72826
-6.73212
-6.73741
-6.74253
-6.74692
-6.75075
-6.75422
-6.75751
-6.76073
-6.76401
-6.76743
-6.77107
-6.775
-6.77927
-6.78393
-6.78902
-6.7946
-6.80068
-6.80731
-6.81452
-6.82235
-6.83081
-6.83994
-6.84977
-6.86032
-6.87161
-6.88367
-6.89651
-6.91015
-6.92461
-6.9399
-6.95602
-6.97299
-6.99081
-7.00948
-7.029
-7.04937
-7.07059
-7.09263
-7.1155
-7.13917
-7.16362
-7.18884
-7.21478
-7.24142
-7.26872
-7.29664
-7.32513
-7.35414
-7.38361
-7.41348
-7.44367
-7.47411
-7.50473
-7.53542
-7.5661
-7.59666
-7.62699
-7.65699
-7.68653
-7.71547
-7.7437
-7.77106
-7.79741
-7.82261
-7.84649
-7.8689
-7.88967
-7.90863
-7.92561
-7.94042
-7.9529
-7.96287
-7.97013
-7.97451
-7.97584
-7.97391
-7.96857
-7.95962
-7.94689
-7.9302
-7.90938
-7.88426
-7.85467
-7.82045
-7.78143
-7.73747
-7.68841
-7.63409
-7.57439
-7.50916
-7.43823
-7.36144
-7.27865
-7.18973
-7.09459
-6.99313
-6.88525
-6.77088
-6.64994
-6.52239
-6.38818
-6.24727
-6.09965
-5.94531
-5.78427
-5.61654
-5.44215
-5.26117
-5.07365
-4.87968
-4.67936
-4.47279
-4.2601
-4.04144
-3.81695
-3.58681
-3.35119
-3.11031
-2.86436
-2.61356
-2.35815
-2.09837
-1.83447
-1.56672
-1.29539
-1.02076
-0.743125
-0.462768
-0.17999
0.104907
0.391619
0.679838
0.969254
1.25956
1.55044
1.8416
2.13273
2.42353
2.71371
3.00298
3.29106
3.57767
3.86255
4.14544
4.4261
4.70429
4.97978
5.25235
5.52181
5.78796
6.05061
6.30961
6.56479
6.81601
7.06314
7.30604
7.54461
7.77874
8.00833
8.23329
8.45354
8.669
8.87959
9.08526
9.28592
9.48153
9.67203
9.85734
10.0374
10.2121
10.3813
10.5449
10.7025
10.8538
10.9983
11.1357
11.2618
11.3901
11.449
-6.73829
-6.74184
-6.7467
-6.75139
-6.7554
-6.75887
-6.76199
-6.76493
-6.76782
-6.77077
-6.77387
-6.77719
-6.78082
-6.7848
-6.78919
-6.79403
-6.79936
-6.80521
-6.81163
-6.81865
-6.82629
-6.83459
-6.84356
-6.85325
-6.86367
-6.87485
-6.88681
-6.89956
-6.91312
-6.92752
-6.94275
-6.95884
-6.97578
-6.99359
-7.01226
-7.0318
-7.05219
-7.07344
-7.09553
-7.11845
-7.14218
-7.16669
-7.19196
-7.21797
-7.24466
-7.272
-7.29996
-7.32847
-7.35748
-7.38694
-7.41678
-7.44692
-7.47728
-7.5078
-7.53837
-7.5689
-7.59929
-7.62943
-7.6592
-7.68849
-7.71717
-7.74511
-7.77216
-7.79818
-7.82303
-7.84654
-7.86857
-7.88894
-7.90749
-7.92404
-7.93843
-7.95047
-7.95999
-7.96681
-7.97075
-7.97163
-7.96927
-7.96349
-7.95412
-7.94098
-7.9239
-7.90271
-7.87723
-7.84731
-7.81277
-7.77346
-7.72923
-7.67992
-7.62538
-7.56546
-7.49998
-7.42876
-7.35166
-7.26855
-7.17934
-7.08392
-6.98219
-6.87406
-6.75946
-6.63831
-6.51056
-6.37617
-6.23511
-6.08736
-5.93292
-5.77179
-5.60399
-5.42957
-5.24857
-5.06106
-4.86713
-4.66686
-4.46038
-4.2478
-4.02927
-3.80493
-3.57497
-3.33957
-3.09891
-2.85321
-2.60269
-2.34758
-2.08811
-1.82455
-1.55716
-1.2862
-1.01197
-0.734733
-0.454797
-0.172454
0.111996
0.398249
0.685999
0.974937
1.26476
1.55515
1.84581
2.13644
2.42674
2.71642
3.00519
3.29277
3.57889
3.86329
4.1457
4.42588
4.70361
4.97865
5.25078
5.51982
5.78555
6.04782
6.30644
6.56127
6.81215
7.05896
7.30157
7.53987
7.77375
8.00311
8.22787
8.44794
8.66325
8.87371
9.07926
9.27983
9.47537
9.66579
9.85103
10.031
10.2055
10.3745
10.5378
10.6949
10.8457
10.9892
11.1254
11.25
11.3766
11.4335
-6.74959
-6.75285
-6.75726
-6.76144
-6.76491
-6.76782
-6.77038
-6.77275
-6.77507
-6.77747
-6.78004
-6.78288
-6.78604
-6.78958
-6.79356
-6.79802
-6.803
-6.80853
-6.81465
-6.82138
-6.82876
-6.83681
-6.84556
-6.85504
-6.86526
-6.87626
-6.88804
-6.90064
-6.91405
-6.92831
-6.94343
-6.9594
-6.97624
-6.99395
-7.01253
-7.03198
-7.05229
-7.07346
-7.09547
-7.1183
-7.14193
-7.16634
-7.19149
-7.21737
-7.24391
-7.27109
-7.29886
-7.32717
-7.35595
-7.38516
-7.41471
-7.44455
-7.47459
-7.50475
-7.53494
-7.56507
-7.59504
-7.62474
-7.65406
-7.68287
-7.71106
-7.73849
-7.76503
-7.79053
-7.81484
-7.83782
-7.8593
-7.87913
-7.89713
-7.91314
-7.92699
-7.9385
-7.9475
-7.95381
-7.95725
-7.95765
-7.95483
-7.9486
-7.93881
-7.92528
-7.90782
-7.88629
-7.8605
-7.83029
-7.79551
-7.75598
-7.71157
-7.6621
-7.6074
-7.54726
-7.48151
-7.41001
-7.33264
-7.24929
-7.15986
-7.06424
-6.96233
-6.85404
-6.7393
-6.61804
-6.49021
-6.35575
-6.21466
-6.06689
-5.91246
-5.75137
-5.58364
-5.40931
-5.22843
-5.04107
-4.84731
-4.64725
-4.44099
-4.22867
-4.01042
-3.78639
-3.55677
-3.32172
-3.08144
-2.83615
-2.58606
-2.33139
-2.0724
-1.80933
-1.54244
-1.27202
-0.998321
-0.721646