/*--------------------------------*- C++ -*----------------------------------*\
  =========                 |
  \\      /  F ield         | OpenFOAM: The Open Source CFD Toolbox
   \\    /   O peration     | Website:  https://openfoam.org
    \\  /    A nd           | Version:  9
     \\/     M anipulation  |
\*---------------------------------------------------------------------------*/
FoamFile
{
    format      ascii;
    class       surfaceScalarField;
    location    "0.21";
    object      phi;
}
// * * * * * * * * * * * * * * * * * * * * * * * * * * * * * * * * * * * * * //

dimensions      [0 3 -1 0 0 0 0];

internalField   nonuniform List<scalar> 
24170
(
3.1336e-06
5.48066e-08
3.04827e-06
8.53273e-08
2.97315e-06
7.51251e-08
2.90431e-06
6.8838e-08
2.83948e-06
6.48318e-08
2.78225e-06
5.72248e-08
2.73335e-06
4.89036e-08
2.69182e-06
4.1529e-08
2.65637e-06
3.54448e-08
2.62585e-06
3.05286e-08
2.59927e-06
2.65809e-08
2.57583e-06
2.34378e-08
2.55485e-06
2.09807e-08
2.53565e-06
1.91962e-08
2.5176e-06
1.80534e-08
2.49891e-06
1.8686e-08
2.47833e-06
2.05802e-08
3.77922e-08
2.44054e-06
3.45361e-06
1.84447e-08
3.45616e-06
8.27742e-08
3.44962e-06
8.16702e-08
3.438e-06
8.04601e-08
3.42351e-06
7.93211e-08
3.40597e-06
7.4767e-08
3.38633e-06
6.85349e-08
3.36543e-06
6.24351e-08
3.34402e-06
5.68548e-08
3.32271e-06
5.18364e-08
3.3019e-06
4.73879e-08
3.28182e-06
4.35191e-08
3.26258e-06
4.02231e-08
3.24417e-06
3.76102e-08
3.22663e-06
3.55937e-08
3.2098e-06
3.55116e-08
3.19459e-06
3.57926e-08
4.6e-08
3.18638e-06
3.66535e-06
1.56081e-08
3.67825e-06
6.98753e-08
3.68531e-06
7.46096e-08
3.68959e-06
7.61788e-08
3.69127e-06
7.76486e-08
3.69013e-06
7.59004e-08
3.68668e-06
7.19885e-08
3.68148e-06
6.7633e-08
3.67497e-06
6.33708e-08
3.66748e-06
5.9321e-08
3.65931e-06
5.55599e-08
3.65066e-06
5.21663e-08
3.64169e-06
4.91953e-08
3.6325e-06
4.67967e-08
3.6231e-06
4.49952e-08
3.61392e-06
4.46962e-08
3.60461e-06
4.50966e-08
4.97272e-08
3.60089e-06
3.92465e-06
1.63476e-08
3.9358e-06
5.87238e-08
3.94254e-06
6.78662e-08
3.94802e-06
7.07034e-08
3.95243e-06
7.32378e-08
3.95535e-06
7.29816e-08
3.9569e-06
7.04374e-08
3.95738e-06
6.71528e-08
3.95698e-06
6.37731e-08
3.95584e-06
6.04577e-08
3.9541e-06
5.73004e-08
3.95186e-06
5.44022e-08
3.94921e-06
5.18463e-08
3.94623e-06
4.97764e-08
3.94296e-06
4.82705e-08
3.93982e-06
4.78321e-08
3.93683e-06
4.80891e-08
4.99948e-08
3.93656e-06
4.20777e-06
1.57074e-08
4.216e-06
5.04921e-08
4.22166e-06
6.22025e-08
4.22659e-06
6.57717e-08
4.23129e-06
6.85395e-08
4.23525e-06
6.90257e-08
4.23834e-06
6.73432e-08
4.24071e-06
6.47847e-08
4.24246e-06
6.2021e-08
4.24368e-06
5.92363e-08
4.24445e-06
5.65317e-08
4.24484e-06
5.40166e-08
4.2449e-06
5.17854e-08
4.24471e-06
4.99605e-08
4.24436e-06
4.86206e-08
4.24419e-06
4.80111e-08
4.24436e-06
4.79114e-08
4.83617e-08
4.246e-06
4.51044e-06
1.43547e-08
4.51686e-06
4.40697e-08
4.52217e-06
5.68915e-08
4.52683e-06
6.11126e-08
4.53144e-06
6.39269e-08
4.53564e-06
6.48355e-08
4.53922e-06
6.37602e-08
4.54226e-06
6.17421e-08
4.54484e-06
5.94379e-08
4.54702e-06
5.70553e-08
4.54886e-06
5.47012e-08
4.55039e-06
5.24853e-08
4.55167e-06
5.05017e-08
4.55278e-06
4.88463e-08
4.55383e-06
4.7576e-08
4.55506e-06
4.6784e-08
4.55668e-06
4.6292e-08
4.58646e-08
4.55917e-06
4.83412e-06
1.29538e-08
4.83958e-06
3.86106e-08
4.84483e-06
5.16398e-08
4.84942e-06
5.65226e-08
4.85393e-06
5.94176e-08
4.85816e-06
6.06075e-08
4.86192e-06
5.99961e-08
4.86526e-06
5.84089e-08
4.86822e-06
5.64697e-08
4.87087e-06
5.44081e-08
4.87324e-06
5.23362e-08
4.87536e-06
5.03595e-08
4.8773e-06
4.85646e-08
4.87912e-06
4.70227e-08
4.88093e-06
4.57638e-08
4.88292e-06
4.47972e-08
4.88525e-06
4.39628e-08
4.29961e-08
4.88812e-06
5.1809e-06
1.1634e-08
5.18571e-06
3.38059e-08
5.19084e-06
4.65057e-08
5.19542e-06
5.1944e-08
5.19988e-06
5.49546e-08
5.20414e-06
5.63483e-08
5.20802e-06
5.61137e-08
5.21154e-06
5.48955e-08
5.21474e-06
5.32678e-08
5.21767e-06
5.14777e-08
5.22036e-06
4.9643e-08
5.22286e-06
4.78626e-08
5.22521e-06
4.62135e-08
5.22749e-06
4.47463e-08
5.22978e-06
4.34697e-08
5.23223e-06
4.23521e-08
5.23493e-06
4.12545e-08
3.99632e-08
5.23797e-06
5.5526e-06
1.03708e-08
5.55685e-06
2.95562e-08
5.56177e-06
4.15884e-08
5.56633e-06
4.73772e-08
5.57079e-06
5.04985e-08
5.5751e-06
5.20413e-08
5.57909e-06
5.21183e-08
5.58276e-06
5.12276e-08
5.58615e-06
4.98792e-08
5.5893e-06
4.83297e-08
5.59224e-06
4.67024e-08
5.59501e-06
4.50891e-08
5.59767e-06
4.35573e-08
5.60027e-06
4.21428e-08
5.6029e-06
4.08412e-08
5.60564e-06
3.96071e-08
5.60857e-06
3.83277e-08
3.68548e-08
5.61168e-06
5.95099e-06
9.161e-09
5.95476e-06
2.57843e-08
5.95941e-06
3.69331e-08
5.96395e-06
4.28432e-08
5.9684e-06
4.60419e-08
5.97276e-06
4.7688e-08
5.97686e-06
4.80148e-08
5.98068e-06
4.74118e-08
5.98424e-06
4.63169e-08
5.98758e-06
4.49854e-08
5.99074e-06
4.35444e-08
5.99375e-06
4.2079e-08
5.99666e-06
4.06482e-08
5.99952e-06
3.92786e-08
6.0024e-06
3.79606e-08
6.00536e-06
3.66506e-08
6.00842e-06
3.52639e-08
3.37091e-08
6.01157e-06
6.37796e-06
8.01802e-09
6.38133e-06
2.24128e-08
6.38571e-06
3.25486e-08
6.39019e-06
3.83669e-08
6.39464e-06
4.15905e-08
6.39903e-06
4.32984e-08
6.40323e-06
4.38131e-08
6.40719e-06
4.34537e-08
6.41092e-06
4.2586e-08
6.41445e-06
4.14524e-08
6.41782e-06
4.0181e-08
6.42104e-06
3.8851e-08
6.42418e-06
3.7514e-08
6.42726e-06
3.61921e-08
6.43035e-06
3.48766e-08
6.43347e-06
3.35333e-08
6.43663e-06
3.21032e-08
3.05387e-08
6.4398e-06
5.74175e-06
7.10351e-09
5.74433e-06
1.98285e-08
5.74783e-06
2.90495e-08
5.75156e-06
3.46422e-08
5.75531e-06
3.78362e-08
5.75904e-06
3.95677e-08
5.76266e-06
4.01954e-08
5.76611e-06
4.00043e-08
5.76939e-06
3.93066e-08
5.77252e-06
3.83256e-08
5.77551e-06
3.71864e-08
5.7784e-06
3.59641e-08
5.78121e-06
3.47057e-08
5.78397e-06
3.34316e-08
5.78671e-06
3.21368e-08
5.78944e-06
3.07968e-08
5.79217e-06
2.93713e-08
2.78408e-08
5.79487e-06
6.99913e-06
6.12622e-09
7.00187e-06
1.70952e-08
7.00565e-06
2.52634e-08
7.00982e-06
3.04775e-08
7.01409e-06
3.35588e-08
7.01839e-06
3.52718e-08
7.0226e-06
3.59824e-08
7.02666e-06
3.59434e-08
7.03056e-06
3.54127e-08
7.0343e-06
3.45884e-08
7.03789e-06
3.3589e-08
7.04137e-06
3.24848e-08
7.04476e-06
3.13188e-08
7.04808e-06
3.01113e-08
7.05135e-06
2.88625e-08
7.05459e-06
2.75595e-08
7.05778e-06
2.61793e-08
2.47237e-08
7.0609e-06
8.53188e-06
5.09535e-09
8.53473e-06
1.42393e-08
8.53878e-06
2.1217e-08
8.54338e-06
2.58789e-08
8.5482e-06
2.87356e-08
8.55311e-06
3.03671e-08
8.55798e-06
3.11129e-08
8.56272e-06
3.11944e-08
8.56732e-06
3.08172e-08
8.57176e-06
3.01479e-08
8.57606e-06
2.92939e-08
8.58022e-06
2.83198e-08
8.58427e-06
2.72649e-08
8.58824e-06
2.61504e-08
8.59212e-06
2.49827e-08
8.59592e-06
2.37595e-08
8.59962e-06
2.24719e-08
2.11361e-08
8.60321e-06
1.04003e-05
4.02144e-09
1.04033e-05
1.12784e-08
1.04075e-05
1.69289e-08
1.04126e-05
2.08525e-08
1.0418e-05
2.33445e-08
1.04235e-05
2.48076e-08
1.04291e-05
2.55235e-08
1.04346e-05
2.56778e-08
1.044e-05
2.54281e-08
1.04453e-05
2.49055e-08
1.04503e-05
2.42007e-08
1.04553e-05
2.33709e-08
1.04601e-05
2.24516e-08
1.04648e-05
2.14646e-08
1.04694e-05
2.04212e-08
1.04738e-05
1.93273e-08
1.04781e-05
1.81838e-08
1.70146e-08
1.04822e-05
1.26779e-05
2.91007e-09
1.2681e-05
8.20399e-09
1.26855e-05
1.23905e-08
1.2691e-05
1.53867e-08
1.2697e-05
1.73507e-08
1.27032e-05
1.85333e-08
1.27096e-05
1.91373e-08
1.2716e-05
1.93034e-08
1.27223e-05
1.91444e-08
1.27284e-05
1.87541e-08
1.27344e-05
1.82019e-08
1.27403e-05
1.75339e-08
1.2746e-05
1.67805e-08
1.27515e-05
1.5962e-08
1.27568e-05
1.5092e-08
1.27619e-05
1.41808e-08
1.27669e-05
1.32344e-08
1.22788e-08
1.27716e-05
1.54543e-05
1.75012e-09
1.54576e-05
4.96518e-09
1.54624e-05
7.5344e-09
1.54684e-05
9.41124e-09
1.54751e-05
1.06702e-08
1.54822e-05
1.1441e-08
1.54895e-05
1.18392e-08
1.54968e-05
1.19497e-08
1.55041e-05
1.18401e-08
1.55113e-05
1.15665e-08
1.55184e-05
1.11725e-08
1.55252e-05
1.0689e-08
1.55318e-05
1.01374e-08
1.55383e-05
9.53369e-09
1.55445e-05
8.88995e-09
1.55504e-05
8.21664e-09
1.55562e-05
7.52056e-09
6.82581e-09
1.55616e-05
1.88389e-05
5.00097e-10
1.88424e-05
1.43076e-09
1.88478e-05
2.17445e-09
1.88545e-05
2.72061e-09
1.88621e-05
3.09106e-09
1.88702e-05
3.31525e-09
1.88786e-05
3.41572e-09
1.88871e-05
3.41119e-09
1.88957e-05
3.3199e-09
1.89041e-05
3.15817e-09
1.89123e-05
2.93907e-09
1.89203e-05
2.6729e-09
1.89281e-05
2.36825e-09
1.89356e-05
2.03257e-09
1.89428e-05
1.67259e-09
1.89497e-05
1.2951e-09
1.89563e-05
9.04604e-10
5.20141e-10
1.89626e-05
2.29648e-05
-9.47014e-10
2.29689e-05
-2.70085e-09
2.29752e-05
-4.12661e-09
2.29831e-05
-5.18154e-09
2.29921e-05
-5.88236e-09
2.30017e-05
-6.31573e-09
2.30117e-05
-6.57494e-09
2.30218e-05
-6.71865e-09
2.30319e-05
-6.78361e-09
2.30419e-05
-6.80103e-09
2.30516e-05
-6.79607e-09
2.30611e-05
-6.78478e-09
2.30702e-05
-6.77589e-09
2.30791e-05
-6.77391e-09
2.30875e-05
-6.78081e-09
2.30956e-05
-6.79625e-09
2.31033e-05
-6.82005e-09
-6.84005e-09
2.31107e-05
1.68119e-05
-2.09218e-09
1.68151e-05
-5.93486e-09
1.682e-05
-9.05356e-09
1.68261e-05
-1.13041e-08
1.6833e-05
-1.27352e-08
1.68403e-05
-1.35811e-08
1.68477e-05
-1.40456e-08
1.68552e-05
-1.4237e-08
1.68627e-05
-1.42301e-08
1.687e-05
-1.40956e-08
1.68771e-05
-1.38883e-08
1.68839e-05
-1.36423e-08
1.68905e-05
-1.33783e-08
1.68969e-05
-1.31094e-08
1.69029e-05
-1.28439e-08
1.69087e-05
-1.25855e-08
1.69142e-05
-1.23367e-08
-1.20896e-08
1.69195e-05
1.46357e-05
-3.20079e-09
1.46388e-05
-9.09346e-09
1.46437e-05
-1.38765e-08
1.46495e-05
-1.71843e-08
1.4656e-05
-1.91633e-08
1.46627e-05
-2.02879e-08
1.46695e-05
-2.08605e-08
1.46763e-05
-2.10153e-08
1.46829e-05
-2.08721e-08
1.46894e-05
-2.05471e-08
1.46956e-05
-2.01195e-08
1.47016e-05
-1.96346e-08
1.47073e-05
-1.91213e-08
1.47128e-05
-1.85996e-08
1.47181e-05
-1.80822e-08
1.4723e-05
-1.75759e-08
1.47278e-05
-1.70846e-08
-1.6603e-08
1.47323e-05
1.27412e-05
-4.24882e-09
1.27444e-05
-1.23032e-08
1.27493e-05
-1.88328e-08
1.27551e-05
-2.29765e-08
1.27612e-05
-2.52745e-08
1.27675e-05
-2.65715e-08
1.27738e-05
-2.71717e-08
1.278e-05
-2.72019e-08
1.2786e-05
-2.68538e-08
1.27918e-05
-2.62986e-08
1.27973e-05
-2.56314e-08
1.28025e-05
-2.49016e-08
1.28076e-05
-2.41436e-08
1.28123e-05
-2.33819e-08
1.28169e-05
-2.26316e-08
1.28212e-05
-2.19002e-08
1.28253e-05
-2.11917e-08
-2.0502e-08
1.28292e-05
1.10918e-05
-5.12578e-09
1.10951e-05
-1.56243e-08
1.11004e-05
-2.41266e-08
1.11062e-05
-2.87557e-08
1.1112e-05
-3.11123e-08
1.1118e-05
-3.24861e-08
1.11238e-05
-3.30252e-08
1.11295e-05
-3.28486e-08
1.11348e-05
-3.22481e-08
1.114e-05
-3.14399e-08
1.11449e-05
-3.05214e-08
1.11495e-05
-2.95436e-08
1.11539e-05
-2.85464e-08
1.11581e-05
-2.75571e-08
1.11621e-05
-2.65907e-08
1.11658e-05
-2.5654e-08
1.11694e-05
-2.47503e-08
-2.3876e-08
1.11727e-05
9.65583e-06
-5.73951e-09
9.65935e-06
-1.91473e-08
9.66495e-06
-2.97257e-08
9.67063e-06
-3.4436e-08
9.67627e-06
-3.67474e-08
9.6819e-06
-3.81169e-08
9.68732e-06
-3.84535e-08
9.69245e-06
-3.79767e-08
9.6973e-06
-3.70939e-08
9.70189e-06
-3.60276e-08
9.70622e-06
-3.48575e-08
9.71031e-06
-3.3635e-08
9.71417e-06
-3.2405e-08
9.71781e-06
-3.11968e-08
9.72125e-06
-3.00245e-08
9.72449e-06
-2.88942e-08
9.72754e-06
-2.7807e-08
-2.67581e-08
9.73043e-06
8.40543e-06
-5.81915e-09
8.40981e-06
-2.35206e-08
8.41531e-06
-3.52264e-08
8.42049e-06
-3.96228e-08
8.42592e-06
-4.2173e-08
8.43138e-06
-4.35827e-08
8.43653e-06
-4.35975e-08
8.44128e-06
-4.27289e-08
8.4457e-06
-4.15132e-08
8.44982e-06
-4.01502e-08
8.45366e-06
-3.86973e-08
8.45723e-06
-3.72065e-08
8.46055e-06
-3.57257e-08
8.46364e-06
-3.42837e-08
8.46651e-06
-3.28944e-08
8.46918e-06
-3.15635e-08
8.47167e-06
-3.02917e-08
-2.90753e-08
8.47398e-06
7.31506e-06
-3.59158e-09
7.32194e-06
-3.04041e-08
7.32739e-06
-4.06738e-08
7.33215e-06
-4.4387e-08
7.33746e-06
-4.74801e-08
7.34283e-06
-4.8951e-08
7.34778e-06
-4.85524e-08
7.35226e-06
-4.72022e-08
7.35629e-06
-4.55477e-08
7.35991e-06
-4.37674e-08
7.36313e-06
-4.19201e-08
7.36599e-06
-4.00693e-08
7.36853e-06
-3.82644e-08
7.37078e-06
-3.65316e-08
7.37277e-06
-3.48823e-08
7.37453e-06
-3.33212e-08
7.37608e-06
-3.18455e-08
-3.04489e-08
7.37745e-06
6.36222e-06
4.25436e-09
6.37294e-06
-4.11271e-08
6.38007e-06
-4.77976e-08
6.38624e-06
-5.05631e-08
6.39221e-06
-5.34438e-08
6.39749e-06
-5.42318e-08
6.40184e-06
-5.29032e-08
6.40541e-06
-5.07699e-08
6.4083e-06
-4.84458e-08
6.41058e-06
-4.60433e-08
6.41229e-06
-4.36298e-08
6.4135e-06
-4.12833e-08
6.41429e-06
-3.9052e-08
6.41472e-06
-3.69558e-08
6.41483e-06
-3.50011e-08
6.4147e-06
-3.31892e-08
6.41437e-06
-3.15117e-08
-2.99482e-08
6.41387e-06
5.53608e-06
1.36394e-08
5.54775e-06
-5.27994e-08
5.55744e-06
-5.74813e-08
5.566e-06
-5.91283e-08
5.57276e-06
-6.02058e-08
5.57718e-06
-5.86465e-08
5.57932e-06
-5.50425e-08
5.57974e-06
-5.11958e-08
5.57888e-06
-4.75811e-08
5.577e-06
-4.41699e-08
5.57434e-06
-4.09697e-08
5.57108e-06
-3.80181e-08
5.56736e-06
-3.53288e-08
5.56329e-06
-3.28932e-08
5.55899e-06
-3.06971e-08
5.55454e-06
-2.87374e-08
5.55003e-06
-2.70051e-08
-2.54392e-08
5.54552e-06
4.85751e-06
-1.6261e-08
4.86091e-06
-5.62e-08
4.8615e-06
-5.80724e-08
4.85883e-06
-5.64579e-08
4.85482e-06
-5.61955e-08
4.84812e-06
-5.19468e-08
4.83886e-06
-4.57838e-08
4.8276e-06
-3.99385e-08
4.81499e-06
-3.49647e-08
4.8016e-06
-3.07853e-08
4.7879e-06
-2.72642e-08
4.77418e-06
-2.42985e-08
4.76065e-06
-2.17971e-08
4.74743e-06
-1.96811e-08
4.73462e-06
-1.78874e-08
4.72229e-06
-1.64062e-08
4.71055e-06
-1.52639e-08
-1.49536e-08
4.70007e-06
4.18642e-06
4.13022e-06
4.07214e-06
4.01568e-06
3.95949e-06
3.90754e-06
3.86176e-06
3.82182e-06
3.78686e-06
3.75607e-06
3.72881e-06
3.70451e-06
3.68271e-06
3.66303e-06
3.64514e-06
3.62874e-06
3.61347e-06
3.59852e-06
1.02062e-08
-1.02062e-08
2.10496e-08
-1.08434e-08
2.80709e-08
-7.02127e-09
3.02949e-08
-2.22399e-09
2.78232e-08
2.47169e-09
2.14163e-08
6.40688e-09
1.19493e-08
9.46694e-09
2.14466e-10
1.17349e-08
-1.32051e-08
1.34196e-08
-2.79297e-08
1.47246e-08
-4.3724e-08
1.57943e-08
-6.04508e-08
1.67268e-08
-7.80315e-08
1.75807e-08
-9.64203e-08
1.83889e-08
-1.15588e-07
1.9168e-08
-1.35514e-07
1.99257e-08
-1.56179e-07
2.06647e-08
-1.77564e-07
2.13851e-08
-1.9965e-07
2.20858e-08
-2.22415e-07
2.27652e-08
-2.45835e-07
2.34206e-08
-2.69884e-07
2.4049e-08
-2.94532e-07
2.46474e-08
-3.19745e-07
2.52136e-08
-3.45494e-07
2.57485e-08
-3.7175e-07
2.62566e-08
-3.98494e-07
2.67435e-08
-4.25702e-07
2.7208e-08
-4.53336e-07
2.76346e-08
-4.81344e-07
2.80078e-08
-5.09711e-07
2.83668e-08
-5.38744e-07
2.90331e-08
-5.70996e-07
3.22521e-08
-6.0173e-07
3.07338e-08
-6.31571e-07
2.98414e-08
-6.63618e-07
3.20466e-08
-6.98298e-07
3.46796e-08
-7.33198e-07
3.49003e-08
-7.68984e-07
3.57857e-08
-8.07746e-07
3.87624e-08
-8.49626e-07
4.18799e-08
-8.92723e-07
4.30976e-08
-9.35809e-07
4.30851e-08
-9.76854e-07
4.10454e-08
-1.01468e-06
3.78303e-08
-1.05571e-06
4.10283e-08
-1.09817e-06
4.24527e-08
-1.14153e-06
4.33603e-08
-1.18542e-06
4.38923e-08
-1.22961e-06
4.41927e-08
-1.27395e-06
4.43409e-08
-1.31834e-06
4.43844e-08
-1.36269e-06
4.43519e-08
-1.40695e-06
4.42614e-08
-1.45107e-06
4.41241e-08
-1.49502e-06
4.39468e-08
-1.53875e-06
4.37338e-08
-1.58224e-06
4.34873e-08
-1.62545e-06
4.32086e-08
-1.66835e-06
4.28979e-08
-1.7109e-06
4.2555e-08
-1.75308e-06
4.21793e-08
-1.79485e-06
4.17699e-08
-1.83618e-06
4.13258e-08
-1.87702e-06
4.08461e-08
-1.91735e-06
4.03298e-08
-1.95713e-06
3.9776e-08
-1.99631e-06
3.91839e-08
-2.03487e-06
3.85527e-08
-2.07275e-06
3.78819e-08
-2.10992e-06
3.7171e-08
-2.14634e-06
3.64199e-08
-2.18197e-06
3.56283e-08
-2.21676e-06
3.47963e-08
-2.25069e-06
3.39241e-08
-2.2837e-06
3.30121e-08
-2.31576e-06
3.20605e-08
-2.34683e-06
3.10701e-08
-2.37687e-06
3.00414e-08
-2.40585e-06
2.89752e-08
-2.43372e-06
2.78722e-08
-2.46045e-06
2.67332e-08
-2.48601e-06
2.55591e-08
-2.51036e-06
2.43505e-08
-2.53347e-06
2.31081e-08
-2.5553e-06
2.18324e-08
-2.57583e-06
2.05237e-08
-2.59501e-06
1.91819e-08
-2.61281e-06
1.78067e-08
-2.62921e-06
1.6397e-08
-2.64416e-06
1.4951e-08
-2.65763e-06
1.34662e-08
-2.66957e-06
1.19387e-08
-2.67993e-06
1.03618e-08
-2.68866e-06
8.72679e-09
-2.69568e-06
7.02165e-09
-2.70091e-06
5.22957e-09
-2.70425e-06
3.33967e-09
-2.7056e-06
1.35059e-09
-2.70498e-06
-6.22568e-10
-2.70269e-06
-2.28286e-09
-2.69882e-06
-3.87068e-09
-2.69339e-06
-5.43064e-09
-2.68641e-06
-6.98469e-09
-2.67786e-06
-8.54359e-09
-2.66775e-06
-1.01091e-08
-2.65607e-06
-1.16807e-08
-2.64282e-06
-1.32567e-08
-2.62798e-06
-1.48351e-08
-2.61157e-06
-1.64138e-08
-2.59358e-06
-1.79907e-08
-2.57401e-06
-1.95637e-08
-2.55288e-06
-2.11306e-08
-2.53019e-06
-2.26894e-08
-2.50596e-06
-2.42379e-08
-2.48018e-06
-2.5774e-08
-2.45289e-06
-2.72955e-08
-2.42408e-06
-2.88006e-08
-2.3938e-06
-3.02869e-08
-2.36205e-06
-3.17526e-08
-2.32885e-06
-3.31955e-08
-2.29424e-06
-3.46137e-08
-2.25823e-06
-3.60054e-08
-2.22086e-06
-3.73686e-08
-2.18216e-06
-3.87017e-08
-2.14216e-06
-4.00028e-08
-2.10089e-06
-4.12703e-08
-2.05839e-06
-4.25025e-08
-2.01469e-06
-4.36979e-08
-1.96983e-06
-4.48547e-08
-1.92386e-06
-4.59716e-08
-1.87681e-06
-4.70473e-08
-1.82873e-06
-4.80806e-08
-1.77966e-06
-4.90703e-08
-1.72965e-06
-5.00154e-08
-1.67873e-06
-5.09151e-08
-1.62696e-06
-5.17682e-08
-1.57439e-06
-5.25742e-08
-1.52106e-06
-5.33324e-08
-1.46701e-06
-5.40426e-08
-1.41231e-06
-5.47045e-08
-1.35699e-06
-5.53179e-08
-1.30111e-06
-5.58826e-08
-1.24471e-06
-5.63989e-08
-1.18784e-06
-5.68671e-08
-1.13056e-06
-5.72879e-08
-1.07289e-06
-5.76616e-08
-1.0149e-06
-5.79892e-08
-9.56633e-07
-5.82717e-08
-8.98123e-07
-5.85102e-08
-8.39417e-07
-5.8706e-08
-7.80556e-07
-5.88607e-08
-7.21581e-07
-5.89758e-08
-6.62527e-07
-5.90532e-08
-6.03433e-07
-5.90947e-08
-5.4433e-07
-5.91023e-08
-4.85252e-07
-5.90779e-08
-4.26229e-07
-5.90234e-08
-3.67289e-07
-5.89399e-08
-3.08461e-07
-5.88284e-08
-2.49771e-07
-5.86895e-08
-1.91253e-07
-5.85185e-08
-1.32936e-07
-5.83172e-08
-7.48513e-08
-5.80843e-08
-1.7043e-08
-5.78083e-08
4.04538e-08
-5.74968e-08
9.76031e-08
-5.71493e-08
1.54408e-07
-5.68044e-08
2.1089e-07
-5.64826e-08
2.67066e-07
-5.61759e-08
3.22931e-07
-5.58645e-08
3.78453e-07
-5.55226e-08
4.33564e-07
-5.5111e-08
4.88127e-07
-5.45626e-08
5.41874e-07
-5.37467e-08
5.94271e-07
-5.23969e-08
6.44102e-07
-4.98311e-08
6.88509e-07
-4.44078e-08
7.19904e-07
-3.13949e-08
8.71216e-09
7.11192e-07
6.42053e-09
-1.66268e-08
7.68226e-09
-1.21051e-08
5.03964e-09
-4.37865e-09
-2.76166e-10
3.09182e-09
-7.73401e-09
9.92953e-09
-1.72472e-08
1.59201e-08
-2.87539e-08
2.09736e-08
-4.21439e-08
2.51249e-08
-5.72322e-08
2.85078e-08
-7.38071e-08
3.12995e-08
-9.16782e-08
3.36654e-08
-1.1069e-07
3.57388e-08
-1.30727e-07
3.76179e-08
-1.51708e-07
3.93693e-08
-1.73576e-07
4.10365e-08
-1.96297e-07
4.26464e-08
-2.19848e-07
4.42152e-08
-2.44215e-07
4.57527e-08
-2.69394e-07
4.7265e-08
-2.95385e-07
4.87562e-08
-3.22194e-07
5.02293e-08
-3.49833e-07
5.16877e-08
-3.78322e-07
5.31363e-08
-4.07691e-07
5.45826e-08
-4.3798e-07
5.60383e-08
-4.69242e-07
5.75185e-08
-5.01538e-07
5.90391e-08
-5.34941e-07
6.0611e-08
-5.69545e-07
6.22385e-08
-6.05469e-07
6.39312e-08
-6.42834e-07
6.57327e-08
-6.8161e-07
6.78087e-08
-7.19652e-07
7.02939e-08
-7.60991e-07
7.20726e-08
-8.04578e-07
7.34291e-08
-8.4824e-07
7.57084e-08
-8.91576e-07
7.80151e-08
-9.36631e-07
7.99552e-08
-9.82232e-07
8.13873e-08
-1.02678e-06
8.33117e-08
-1.06968e-06
8.47825e-08
-1.11237e-06
8.57833e-08
-1.15509e-06
8.58096e-08
-1.19936e-06
8.531e-08
-1.24589e-06
8.43573e-08
-1.28949e-06
8.46309e-08
-1.33192e-06
8.48837e-08
-1.37357e-06
8.50131e-08
-1.41469e-06
8.50089e-08
-1.45538e-06
8.48807e-08
-1.49568e-06
8.46477e-08
-1.53563e-06
8.43268e-08
-1.57521e-06
8.39313e-08
-1.61442e-06
8.34711e-08
-1.65324e-06
8.29527e-08
-1.69168e-06
8.238e-08
-1.7297e-06
8.1755e-08
-1.76729e-06
8.10783e-08
-1.80443e-06
8.03496e-08
-1.8411e-06
7.95675e-08
-1.87728e-06
7.87306e-08
-1.91293e-06
7.7837e-08
-1.94805e-06
7.68847e-08
-1.98259e-06
7.58716e-08
-2.01654e-06
7.47958e-08
-2.04987e-06
7.36555e-08
-2.08254e-06
7.24491e-08
-2.11453e-06
7.11751e-08
-2.14581e-06
6.98324e-08
-2.17635e-06
6.84201e-08
-2.20612e-06
6.69375e-08
-2.23508e-06
6.53843e-08
-2.26321e-06
6.37602e-08
-2.29048e-06
6.20654e-08
-2.31686e-06
6.03003e-08
-2.34231e-06
5.84654e-08
-2.36681e-06
5.65615e-08
-2.39033e-06
5.45896e-08
-2.41284e-06
5.25508e-08
-2.43431e-06
5.04462e-08
-2.45472e-06
4.82772e-08
-2.47403e-06
4.60451e-08
-2.49222e-06
4.37512e-08
-2.50927e-06
4.13968e-08
-2.52514e-06
3.89832e-08
-2.53982e-06
3.65112e-08
-2.55328e-06
3.39818e-08
-2.56549e-06
3.13954e-08
-2.57644e-06
2.87523e-08
-2.5861e-06
2.60524e-08
-2.59444e-06
2.32953e-08
-2.60145e-06
2.04801e-08
-2.60712e-06
1.76062e-08
-2.61143e-06
1.46731e-08
-2.61439e-06
1.16813e-08
-2.616e-06
8.63418e-09
-2.61631e-06
5.54071e-09
-2.6154e-06
2.42514e-09
-2.61338e-06
-6.63239e-10
-2.61026e-06
-3.7476e-09
-2.60578e-06
-6.75632e-09
-2.59987e-06
-9.78695e-09
-2.59246e-06
-1.28394e-08
-2.58353e-06
-1.5911e-08
-2.57307e-06
-1.90014e-08
-2.56108e-06
-2.2108e-08
-2.54753e-06
-2.52274e-08
-2.53243e-06
-2.83558e-08
-2.51578e-06
-3.14889e-08
-2.49757e-06
-3.46226e-08
-2.47781e-06
-3.77525e-08
-2.45649e-06
-4.08745e-08
-2.43364e-06
-4.39842e-08
-2.40925e-06
-4.70775e-08
-2.38334e-06
-5.01502e-08
-2.35592e-06
-5.31981e-08
-2.32699e-06
-5.62171e-08
-2.29659e-06
-5.9203e-08
-2.26473e-06
-6.21518e-08
-2.23142e-06
-6.50592e-08
-2.1967e-06
-6.79213e-08
-2.16057e-06
-7.07342e-08
-2.12309e-06
-7.34941e-08
-2.08426e-06
-7.61974e-08
-2.04412e-06
-7.88404e-08
-2.0027e-06
-8.14198e-08
-1.96004e-06
-8.39322e-08
-1.91617e-06
-8.63744e-08
-1.87112e-06
-8.8743e-08
-1.82494e-06
-9.1035e-08
-1.77767e-06
-9.32474e-08
-1.72934e-06
-9.53776e-08
-1.67999e-06
-9.74232e-08
-1.62968e-06
-9.9382e-08
-1.57845e-06
-1.01252e-07
-1.52633e-06
-1.03031e-07
-1.47338e-06
-1.04718e-07
-1.41964e-06
-1.06311e-07
-1.36517e-06
-1.07809e-07
-1.31e-06
-1.09211e-07
-1.25418e-06
-1.10517e-07
-1.19778e-06
-1.11726e-07
-1.14082e-06
-1.12838e-07
-1.08337e-06
-1.13854e-07
-1.02546e-06
-1.14774e-07
-9.67149e-07
-1.15599e-07
-9.08479e-07
-1.16331e-07
-8.49498e-07
-1.16971e-07
-7.90248e-07
-1.17521e-07
-7.30775e-07
-1.17984e-07
-6.7112e-07
-1.18361e-07
-6.11323e-07
-1.18657e-07
-5.51425e-07
-1.18874e-07
-4.91462e-07
-1.19016e-07
-4.3147e-07
-1.19087e-07
-3.71482e-07
-1.1909e-07
-3.11529e-07
-1.1903e-07
-2.51642e-07
-1.18911e-07
-1.91847e-07
-1.18735e-07
-1.32172e-07
-1.18503e-07
-7.26421e-08
-1.1822e-07
-1.32806e-08
-1.1788e-07
4.58851e-08
-1.17483e-07
1.04829e-07
-1.17028e-07
1.63535e-07
-1.16514e-07
2.21992e-07
-1.15954e-07
2.80202e-07
-1.1536e-07
3.38164e-07
-1.14766e-07
3.9587e-07
-1.14189e-07
4.5331e-07
-1.13616e-07
5.10466e-07
-1.1302e-07
5.67296e-07
-1.12352e-07
6.23721e-07
-1.11537e-07
6.79597e-07
-1.10439e-07
7.34656e-07
-1.08805e-07
7.88401e-07
-1.06142e-07
8.39864e-07
-1.01294e-07
8.87433e-07
-9.19759e-08
9.27807e-07
-7.17695e-08
-2.45912e-08
9.6111e-07
-1.27934e-09
-1.53474e-08
-7.47693e-09
-5.90751e-09
-1.58683e-08
4.01267e-09
-2.56557e-08
1.28793e-08
-3.66079e-08
2.08817e-08
-4.87199e-08
2.8032e-08
-6.20657e-08
3.43194e-08
-7.67117e-08
3.97709e-08
-9.26723e-08
4.44684e-08
-1.09906e-07
4.85331e-08
-1.28339e-07
5.20986e-08
-1.4789e-07
5.52893e-08
-1.68481e-07
5.82093e-08
-1.90051e-07
6.09392e-08
-2.12553e-07
6.35381e-08
-2.35954e-07
6.60481e-08
-2.60237e-07
6.84983e-08
-2.85394e-07
7.09092e-08
-3.11424e-07
7.32955e-08
-3.38337e-07
7.56686e-08
-3.66146e-07
7.80383e-08
-3.94872e-07
8.04138e-08
-4.24541e-07
8.28054e-08
-4.55183e-07
8.52247e-08
-4.8683e-07
8.76846e-08
-5.19509e-07
9.01976e-08
-5.53242e-07
9.27725e-08
-5.88041e-07
9.54104e-08
-6.23907e-07
9.81044e-08
-6.60821e-07
1.00845e-07
-6.98716e-07
1.03628e-07
-7.37365e-07
1.06458e-07
-7.76313e-07
1.09242e-07
-8.16051e-07
1.1181e-07
-8.56695e-07
1.14073e-07
-8.97263e-07
1.16277e-07
-9.37503e-07
1.18255e-07
-9.77509e-07
1.19961e-07
-1.01742e-06
1.21296e-07
-1.05651e-06
1.22406e-07
-1.09486e-06
1.23135e-07
-1.13254e-06
1.2346e-07
-1.17007e-06
1.23341e-07
-1.20772e-06
1.22953e-07
-1.24583e-06
1.22469e-07
-1.2833e-06
1.22106e-07
-1.3202e-06
1.2178e-07
-1.35662e-06
1.21433e-07
-1.39264e-06
1.21033e-07
-1.42833e-06
1.20568e-07
-1.46372e-06
1.20034e-07
-1.49882e-06
1.19431e-07
-1.53365e-06
1.1876e-07
-1.5682e-06
1.18024e-07
-1.60247e-06
1.17223e-07
-1.63645e-06
1.16357e-07
-1.67012e-06
1.15424e-07
-1.70346e-06
1.14423e-07
-1.73647e-06
1.13351e-07
-1.7691e-06
1.12204e-07
-1.80135e-06
1.10981e-07
-1.83319e-06
1.09677e-07
-1.8646e-06
1.08289e-07
-1.89554e-06
1.06815e-07
-1.92599e-06
1.0525e-07
-1.95593e-06
1.03593e-07
-1.98532e-06
1.01841e-07
-2.01414e-06
9.99921e-08
-2.04235e-06
9.80441e-08
-2.06993e-06
9.59958e-08
-2.09684e-06
9.38463e-08
-2.12305e-06
9.15949e-08
-2.14853e-06
8.92414e-08
-2.17325e-06
8.67858e-08
-2.19718e-06
8.42286e-08
-2.22028e-06
8.15706e-08
-2.24253e-06
7.88126e-08
-2.2639e-06
7.59561e-08
-2.28435e-06
7.30026e-08
-2.30386e-06
6.99537e-08
-2.32239e-06
6.68113e-08
-2.33993e-06
6.35773e-08
-2.35643e-06
6.02537e-08
-2.37188e-06
5.68426e-08
-2.38624e-06
5.3346e-08
-2.39949e-06
4.97656e-08
-2.41161e-06
4.61034e-08
-2.42258e-06
4.23609e-08
-2.43237e-06
3.85398e-08
-2.44096e-06
3.46414e-08
-2.44833e-06
3.06671e-08
-2.45447e-06
2.6619e-08
-2.45936e-06
2.24992e-08
-2.463e-06
1.83116e-08
-2.46538e-06
1.40616e-08
-2.4665e-06
9.75743e-09
-2.46637e-06
5.41181e-09
-2.46499e-06
1.04124e-09
-2.46232e-06
-3.33453e-09
-2.45834e-06
-7.72885e-09
-2.45295e-06
-1.21459e-08
-2.44613e-06
-1.66069e-08
-2.43786e-06
-2.11102e-08
-2.42812e-06
-2.56511e-08
-2.41689e-06
-3.0224e-08
-2.40418e-06
-3.48229e-08
-2.38996e-06
-3.94418e-08
-2.37425e-06
-4.40744e-08
-2.35702e-06
-4.87143e-08
-2.33829e-06
-5.33551e-08
-2.31805e-06
-5.79906e-08
-2.29631e-06
-6.26143e-08
-2.27307e-06
-6.722e-08
-2.24835e-06
-7.18014e-08
-2.22215e-06
-7.63522e-08
-2.19448e-06
-8.08665e-08
-2.16536e-06
-8.53379e-08
-2.1348e-06
-8.97604e-08
-2.10283e-06
-9.41278e-08
-2.06945e-06
-9.8434e-08
-2.0347e-06
-1.02673e-07
-1.99859e-06
-1.06839e-07
-1.96116e-06
-1.10927e-07
-1.92243e-06
-1.1493e-07
-1.88242e-06
-1.18845e-07
-1.84118e-06
-1.22664e-07
-1.79873e-06
-1.26385e-07
-1.7551e-06
-1.30001e-07
-1.71034e-06
-1.33508e-07
-1.66447e-06
-1.36901e-07
-1.61754e-06
-1.40176e-07
-1.56959e-06
-1.43329e-07
-1.52065e-06
-1.46357e-07
-1.47078e-06
-1.49255e-07
-1.42001e-06
-1.52022e-07
-1.36839e-06
-1.54654e-07
-1.31596e-06
-1.57149e-07
-1.26276e-06
-1.59504e-07
-1.20886e-06
-1.61718e-07
-1.15428e-06
-1.6379e-07
-1.09908e-06
-1.65718e-07
-1.0433e-06
-1.67503e-07
-9.86992e-07
-1.69144e-07
-9.30203e-07
-1.70642e-07
-8.72979e-07
-1.71998e-07
-8.15365e-07
-1.73213e-07
-7.57406e-07
-1.7429e-07
-6.99147e-07
-1.7523e-07
-6.40632e-07
-1.76036e-07
-5.81903e-07
-1.76713e-07
-5.23001e-07
-1.77263e-07
-4.63966e-07
-1.77692e-07
-4.04836e-07
-1.78005e-07
-3.45646e-07
-1.78206e-07
-2.86432e-07
-1.78301e-07
-2.27226e-07
-1.78297e-07
-1.68058e-07
-1.78199e-07
-1.08956e-07
-1.78012e-07
-4.99472e-08
-1.77743e-07
8.9452e-09
-1.77396e-07
6.76965e-08
-1.76971e-07
1.26286e-07
-1.76469e-07
1.84694e-07
-1.75891e-07
2.42906e-07
-1.7524e-07
3.00918e-07
-1.74527e-07
3.58738e-07
-1.73774e-07
4.16374e-07
-1.72996e-07
4.73811e-07
-1.72203e-07
5.3103e-07
-1.71408e-07
5.88012e-07
-1.70598e-07
6.44729e-07
-1.69737e-07
7.01137e-07
-1.6876e-07
7.57155e-07
-1.67555e-07
8.12648e-07
-1.65931e-07
8.67378e-07
-1.63535e-07
9.20942e-07
-1.59706e-07
9.72709e-07
-1.53062e-07
1.02178e-06
-1.41045e-07
1.06764e-06
-1.17635e-07
-7.1419e-08
1.11447e-06
-7.71526e-09
-7.63217e-09
-1.89878e-08
5.36504e-09
-3.13434e-08
1.63683e-08
-4.43599e-08
2.58958e-08
-5.79716e-08
3.44934e-08
-7.2241e-08
4.23014e-08
-8.72784e-08
4.93568e-08
-1.03195e-07
5.56877e-08
-1.20073e-07
6.13463e-08
-1.37953e-07
6.6413e-08
-1.5684e-07
7.09854e-08
-1.76714e-07
7.5164e-08
-1.97547e-07
7.90417e-08
-2.19305e-07
8.2697e-08
-2.4196e-07
8.61933e-08
-2.65491e-07
8.95789e-08
-2.89883e-07
9.28903e-08
-3.15128e-07
9.61545e-08
-3.41224e-07
9.93915e-08
-3.68172e-07
1.02617e-07
-3.95976e-07
1.05842e-07
-4.2464e-07
1.09078e-07
-4.54166e-07
1.12332e-07
-4.84551e-07
1.1561e-07
-5.15784e-07
1.18917e-07
-5.47839e-07
1.22253e-07
-5.80675e-07
1.25609e-07
-6.14233e-07
1.28968e-07
-6.48433e-07
1.32305e-07
-6.83175e-07
1.35587e-07
-7.18325e-07
1.38777e-07
-7.53701e-07
1.41835e-07
-7.89155e-07
1.44696e-07
-8.24623e-07
1.47278e-07
-8.6009e-07
1.4954e-07
-8.95318e-07
1.51505e-07
-9.30221e-07
1.53158e-07
-9.64741e-07
1.54481e-07
-9.98923e-07
1.55478e-07
-1.03269e-06
1.56169e-07
-1.06609e-06
1.56543e-07
-1.09923e-06
1.56595e-07
-1.13224e-06
1.56354e-07
-1.16521e-06
1.55922e-07
-1.19815e-06
1.55405e-07
-1.23092e-06
1.54879e-07
-1.26348e-06
1.5434e-07
-1.29582e-06
1.53774e-07
-1.32796e-06
1.53166e-07
-1.35989e-06
1.52506e-07
-1.39165e-06
1.51786e-07
-1.42322e-06
1.51002e-07
-1.45461e-06
1.50149e-07
-1.48581e-06
1.49225e-07
-1.51681e-06
1.48226e-07
-1.5476e-06
1.47149e-07
-1.57817e-06
1.45989e-07
-1.60849e-06
1.44742e-07
-1.63854e-06
1.43404e-07
-1.6683e-06
1.41969e-07
-1.69776e-06
1.40434e-07
-1.72687e-06
1.38793e-07
-1.75563e-06
1.37042e-07
-1.78399e-06
1.35176e-07
-1.81193e-06
1.33192e-07
-1.83942e-06
1.31087e-07
-1.86644e-06
1.28856e-07
-1.89294e-06
1.26497e-07
-1.91891e-06
1.24009e-07
-1.9443e-06
1.21389e-07
-1.96909e-06
1.18635e-07
-1.99324e-06
1.15748e-07
-2.01673e-06
1.12727e-07
-2.03951e-06
1.09571e-07
-2.06157e-06
1.06282e-07
-2.08286e-06
1.0286e-07
-2.10335e-06
9.9307e-08
-2.12302e-06
9.56242e-08
-2.14183e-06
9.18138e-08
-2.15975e-06
8.7878e-08
-2.17676e-06
8.38194e-08
-2.19283e-06
7.96404e-08
-2.20792e-06
7.53439e-08
-2.22201e-06
7.09328e-08
-2.23507e-06
6.64099e-08
-2.24708e-06
6.17782e-08
-2.25802e-06
5.70404e-08
-2.26786e-06
5.21995e-08
-2.27658e-06
4.7258e-08
-2.28415e-06
4.2219e-08
-2.29057e-06
3.70855e-08
-2.29581e-06
3.18608e-08
-2.29986e-06
2.65492e-08
-2.30271e-06
2.11557e-08
-2.30433e-06
1.5687e-08
-2.30473e-06
1.01508e-08
-2.30387e-06
4.55668e-09
-2.30174e-06
-1.08602e-09
-2.29831e-06
-6.7711e-09
-2.29353e-06
-1.25039e-08
-2.28739e-06
-1.8293e-08
-2.27985e-06
-2.41445e-08
-2.2709e-06
-3.00539e-08
-2.26054e-06
-3.60147e-08
-2.24875e-06
-4.2019e-08
-2.23551e-06
-4.80584e-08
-2.22083e-06
-5.41246e-08
-2.20469e-06
-6.02091e-08
-2.1871e-06
-6.63035e-08
-2.16806e-06
-7.23993e-08
-2.14756e-06
-7.84881e-08
-2.12561e-06
-8.45617e-08
-2.10222e-06
-9.06116e-08
-2.07739e-06
-9.66297e-08
-2.05114e-06
-1.02608e-07
-2.02347e-06
-1.08538e-07
-1.99439e-06