/*--------------------------------*- C++ -*----------------------------------*\
  =========                 |
  \\      /  F ield         | OpenFOAM: The Open Source CFD Toolbox
   \\    /   O peration     | Website:  https://openfoam.org
    \\  /    A nd           | Version:  9
     \\/     M anipulation  |
\*---------------------------------------------------------------------------*/
FoamFile
{
    format      ascii;
    class       volScalarField;
    location    "0.09";
    object      k;
}
// * * * * * * * * * * * * * * * * * * * * * * * * * * * * * * * * * * * * * //

dimensions      [0 2 -2 0 0 0 0];

internalField   nonuniform List<scalar> 
12225
(
0.283099
0.213594
0.165522
0.133012
0.112175
0.100359
0.0956838
0.0967503
0.102498
0.112132
0.125091
0.141008
0.159673
0.180927
0.204455
0.229363
0.253911
0.284749
0.34921
0.324774
0.310959
0.310117
0.322815
0.348924
0.38773
0.438004
0.498236
0.566921
0.642751
0.724621
0.811402
0.901446
0.991876
1.07769
1.1523
1.20688
0.361942
0.348095
0.336008
0.326387
0.319827
0.316697
0.317215
0.32154
0.329856
0.342484
0.35999
0.38324
0.41334
0.451447
0.498451
0.554641
0.619559
0.692709
0.365598
0.355016
0.344748
0.335277
0.326942
0.319946
0.314344
0.310086
0.307079
0.30524
0.304574
0.305265
0.30775
0.312771
0.321345
0.334624
0.353753
0.379834
0.366986
0.358236
0.349522
0.341091
0.333126
0.325749
0.319018
0.31293
0.307442
0.302484
0.297989
0.293917
0.290284
0.287192
0.284856
0.283612
0.283968
0.28653
0.367523
0.359725
0.352043
0.344553
0.337335
0.33045
0.323938
0.31781
0.312054
0.306637
0.301513
0.296626
0.291915
0.28733
0.282839
0.278458
0.274269
0.270444
0.36772
0.360372
0.353283
0.34644
0.339848
0.33352
0.327469
0.321702
0.316215
0.310995
0.306022
0.301263
0.296677
0.292213
0.287808
0.283397
0.278925
0.274374
0.367786
0.360629
0.353841
0.347375
0.341202
0.335303
0.329667
0.324288
0.319159
0.314269
0.309608
0.305156
0.300891
0.296782
0.29279
0.288868
0.284968
0.281064
0.367807
0.360722
0.354067
0.347793
0.341859
0.336233
0.330891
0.325815
0.32099
0.316405
0.312049
0.307906
0.303963
0.3002
0.296594
0.293116
0.28974
0.286468
0.367812
0.360753
0.354151
0.347962
0.342147
0.336669
0.331501
0.32662
0.322007
0.317647
0.313526
0.309633
0.305954
0.302476
0.299182
0.296055
0.29308
0.29027
0.367813
0.360762
0.35418
0.348025
0.342261
0.336854
0.331776
0.327002
0.322514
0.318293
0.314327
0.310602
0.307108
0.303832
0.300762
0.297886
0.295196
0.292705
0.367814
0.360765
0.354189
0.348046
0.342301
0.336922
0.331882
0.327156
0.322726
0.318574
0.314686
0.311051
0.307656
0.304492
0.301548
0.298815
0.296287
0.293977
0.367813
0.360766
0.354193
0.348055
0.342319
0.336953
0.33193
0.327228
0.322827
0.318711
0.314866
0.311279
0.30794
0.304839
0.301968
0.299317
0.296883
0.294677
0.367813
0.360766
0.354195
0.348061
0.342329
0.336969
0.331955
0.327265
0.322879
0.318779
0.314954
0.311389
0.308075
0.305001
0.30216
0.299544
0.297147
0.294983
0.367813
0.360766
0.354196
0.348064
0.342336
0.336981
0.331973
0.327289
0.322909
0.318817
0.314998
0.31144
0.30813
0.30506
0.30222
0.299601
0.2972
0.295027
0.367812
0.360765
0.354196
0.348067
0.342342
0.336991
0.331988
0.327309
0.322935
0.318848
0.315031
0.311473
0.308159
0.305081
0.302227
0.299588
0.297159
0.29495
0.367811
0.360764
0.354195
0.348068
0.342346
0.337001
0.332003
0.327331
0.322963
0.31888
0.315066
0.311507
0.308188
0.305099
0.302227
0.299563
0.2971
0.294847
0.367809
0.360761
0.354193
0.348068
0.34235
0.33701
0.33202
0.327355
0.322994
0.318917
0.315108
0.311549
0.308227
0.305129
0.302241
0.299553
0.297056
0.294762
0.367806
0.360756
0.354188
0.348065
0.342352
0.337019
0.332036
0.32738
0.323028
0.318959
0.315155
0.3116
0.308276
0.305171
0.302271
0.299563
0.297039
0.294709
0.367803
0.360751
0.354184
0.348063
0.342355
0.337028
0.332052
0.327404
0.323059
0.318997
0.315198
0.311645
0.308321
0.305212
0.302304
0.299583
0.297039
0.294687
0.367801
0.360748
0.354182
0.348065
0.342361
0.337038
0.332069
0.327427
0.323088
0.31903
0.315235
0.311684
0.308359
0.305246
0.302331
0.299599
0.297042
0.294672
0.3678
0.360747
0.354182
0.348068
0.342368
0.337049
0.332082
0.327442
0.323103
0.319045
0.315247
0.31169
0.308359
0.305236
0.302308
0.299562
0.296987
0.294597
0.367799
0.360746
0.354181
0.348065
0.34236
0.337032
0.332051
0.327392
0.323029
0.318942
0.31511
0.311515
0.308142
0.304975
0.301999
0.299203
0.296577
0.294135
0.367796
0.360735
0.354152
0.348002
0.342245
0.33685
0.331789
0.327037
0.322573
0.318378
0.314433
0.310723
0.307234
0.303951
0.300861
0.297953
0.295216
0.292668
0.367778
0.360658
0.353964
0.34765
0.341681
0.33604
0.330711
0.325679
0.320933
0.316461
0.312252
0.308292
0.304569
0.30107
0.297781
0.294691
0.291788
0.289087
0.367671
0.360272
0.353159
0.34633
0.339799
0.333585
0.327703
0.322161
0.31696
0.31209
0.307538
0.303291
0.299332
0.295642
0.292203
0.288995
0.286003
0.283233
0.367183
0.358837
0.350573
0.342556
0.334921
0.327762
0.321125
0.315023
0.309446
0.304373
0.299774
0.29561
0.291839
0.288418
0.285309
0.282473
0.279879
0.277514
0.365312
0.354461
0.343836
0.333889
0.324937
0.317121
0.310445
0.304856
0.300275
0.296607
0.293747
0.291583
0.290005
0.288912
0.288207
0.287805
0.287632
0.287634
0.357583
0.338126
0.321557
0.309163
0.301081
0.297048
0.296658
0.299436
0.304874
0.312468
0.321739
0.332238
0.343555
0.355338
0.367288
0.37916
0.390789
0.401953
0.314731
0.264081
0.224569
0.193567
0.16924
0.150234
0.135523
0.124306
0.115937
0.109891
0.105732
0.103094
0.101671
0.101205
0.101479
0.102314
0.103561
0.105093
0.0780425
0.138566
0.174896
0.211916
0.222473
0.225824
0.230077
0.23704
0.247373
0.261424
0.279646
0.299329
0.315704
0.326043
0.326662
0.312581
0.277645
0.214631
0.149988
0.106586
0.0841252
0.0878271
0.0966264
0.103592
0.10569
0.107271
0.110185
0.111829
0.115589
0.121707
0.130429
0.177754
0.342771
0.533353
0.712775
0.877597
1.02241
1.14451
1.24314
1.31879
1.37277
1.40685
1.42308
1.42359
1.41051
1.38592
1.35182
1.31001
1.26214
1.20958
1.15576
1.1023
1.04938
0.997186
0.945931
0.895794
0.846928
0.799461
0.753491
0.709094
0.666317
0.625183
0.585684
0.547786
0.511423
0.476509
0.442941
0.410617
0.379452
0.349394
0.320436
0.292627
0.266064
0.240897
0.217326
0.195645
0.176339
0.160551
0.151876
0.154887
0.152606
0.151441
0.150697
0.153922
0.154911
0.154122
0.152074
0.151781
0.156619
0.161559
0.166906
0.172608
0.178548
0.184591
0.190589
0.196413
0.201777
0.205409
0.205354
0.199672
0.184272
0.152643
0.126321
0.105487
0.0908942
0.0826186
0.079769
0.0808515
0.0844972
0.0891443
0.0931211
0.0958964
0.0976621
0.0989503
0.100437
0.102902
0.107493
0.116192
0.132682
0.163361
0.184944
0.199227
0.204413
0.200422
0.19308
0.200349
0.263468
0.390276
0.499018
0.578184
0.626159
0.64572
0.641484
0.618708
0.582624
0.537881
0.48941
0.441564
0.39564
0.35262
0.313182
0.277761
0.246628
0.219934
0.197885
0.183308
0.185311
0.170368
0.199385
0.236227
0.280936
0.333583
0.393636
0.460826
0.533442
0.591641
0.594691
0.533772
0.421217
0.295274
0.196605
0.136907
0.0998697
0.0708365
0.0495661
0.03791
0.0349921
0.0382685
0.0444107
0.0507225
0.0564937
0.0623664
0.0637859
0.0570951
0.0477931
0.0414873
0.0407731
0.0435842
0.0485495
0.0544363
0.056437
0.214888
0.31812
0.304663
0.275075
0.249032
0.226512
0.206811
0.190189
0.176902
0.167016
0.162054
0.163351
0.170065
0.180186
0.190378
0.195897
0.190964
0.177202
0.156784
0.132686
0.110973
0.111847
0.12646
0.130818
0.13412
0.17615
0.251299
0.313527
0.343959
0.370378
0.400759
0.437752
0.468187
0.487895
0.496993
0.496554
0.488351
0.474452
0.456924
0.437656
0.418244
0.399958
0.383736
0.370241
0.359919
0.353077
0.349927
0.350614
0.355376
0.361864
0.368683
0.375811
0.383243
0.390976
0.399005
0.407322
0.415907
0.424726
0.433716
0.442779
0.451767
0.460469
0.468604
0.475815
0.481679
0.485725
0.48748
0.486518
0.48252
0.475332
0.464991
0.45173
0.435946
0.418144
0.398882
0.37873
0.3582
0.337538
0.317088
0.300421
0.285171
0.271068
0.258844
0.246934
0.23593
0.225383
0.215419
0.205309
0.195861
0.187161
0.179127
0.171649
0.164624
0.157947
0.151523
0.145229
0.138921
0.132662
0.126763
0.122441
0.120824
0.120844
0.123328
0.128984
0.137975
0.149745
0.163098
0.176239
0.187589
0.196233
0.201227
0.201645
0.196776
0.186453
0.171407
0.153882
0.136468
0.120866
0.107792
0.0986171
0.0961778
0.10706
0.134205
0.166127
0.191836
0.214443
0.234685
0.244143
0.245905
0.243747
0.240524
0.238026
0.237337
0.239182
0.24417
0.251628
0.259459
0.26759
0.275849
0.28394
0.291422
0.297699
0.302055
0.303693
0.301063
0.29374
0.28226
0.269691
0.255529
0.240587
0.225506
0.210592
0.196313
0.183782
0.177057
0.186527
0.199449
0.210198
0.227101
0.261519
0.300331
0.304698
0.255162
0.183675
0.128089
0.0985456
0.0885797
0.0871745
0.0893446
0.0951132
0.104597
0.112816
0.109369
0.0953337
0.0855488
0.0878566
0.0940893
0.0965966
0.0988328
0.0668992
0.340649
0.314504
0.257149
0.216284
0.187996
0.166348
0.149104
0.135596
0.125386
0.118072
0.113888
0.113376
0.116507
0.123114
0.132232
0.141737
0.148626
0.152116
0.1518
0.146858
0.149597
0.172741
0.218954
0.279308
0.303258
0.303569
0.308898
0.312605
0.314191
0.316826
0.320516
0.323492
0.323257
0.319809
0.314151
0.307531
0.301115
0.29575
0.291885
0.28962
0.288823
0.289269
0.290738
0.293064
0.296133
0.299851
0.304116
0.308812
0.31401
0.319599
0.325559
0.331901
0.338661
0.345894
0.353672
0.362077
0.371193
0.381092
0.39182
0.403383
0.41572
0.428681
0.44201
0.455317
0.468083
0.479667
0.48935
0.496401
0.500171
0.500185
0.496218
0.488334
0.476866
0.462347
0.445421
0.42677
0.407008
0.386477
0.366399
0.348733
0.332153
0.316582
0.302058
0.288482
0.275786
0.263912
0.252799
0.242308
0.232458
0.223243
0.214625
0.206559
0.198995
0.191882
0.185167
0.178799
0.172692
0.166723
0.16061
0.154269
0.148363
0.143305
0.139329
0.136556
0.134955
0.134371
0.134613
0.13554
0.136995
0.138779
0.140572
0.141804
0.14172
0.139612
0.135189
0.128357
0.119927
0.111383
0.104401
0.101723
0.108424
0.126143
0.146819
0.15988
0.167966
0.177433
0.186858
0.194909
0.202169
0.208503
0.213766
0.21834
0.222915
0.227967
0.233521
0.239689
0.24652
0.253886
0.261645
0.269595
0.277426
0.284673
0.290698
0.294723
0.295603
0.292221
0.285392
0.27582
0.264077
0.251035
0.237538
0.224299
0.211837
0.200423
0.189685
0.179033
0.169228
0.162598
0.161843
0.171565
0.196325
0.235761
0.273215
0.278617
0.24166
0.189824
0.153522
0.13617
0.128457
0.125143
0.128069
0.133088
0.130016
0.116289
0.106497
0.110377
0.113473
0.113132
0.116411
0.0848506
0.248926
0.217533
0.192688
0.173338
0.153872
0.135579
0.120255
0.108179
0.0989705
0.0922339
0.0882067
0.087468
0.0898418
0.09525
0.1035
0.114119
0.126404
0.140879
0.162743
0.205117
0.260794
0.327829
0.33108
0.300778
0.281888
0.269613
0.262451
0.257905
0.255273
0.254217
0.253909
0.253533
0.252745
0.251873
0.251328
0.251334
0.251878
0.252779
0.253816
0.254839
0.255819
0.256822
0.257953
0.259298
0.260896
0.262742
0.264807
0.267068
0.269525
0.27205
0.274633
0.277304
0.280137
0.283254
0.286819
0.291036
0.296134
0.302356
0.309938
0.319085
0.329944
0.342569
0.356884
0.372642
0.389396
0.406482
0.423036
0.438051
0.450482
0.459391
0.46409
0.464255
0.45996
0.451624
0.439897
0.42554
0.409242
0.391474
0.374492
0.358594
0.343373
0.328893
0.315203
0.302301
0.29016
0.278748
0.268038
0.257994
0.248573
0.239737
0.231448
0.223672
0.216376
0.209536
0.203132
0.197137
0.191519
0.186216
0.181126
0.176142
0.171143
0.166277
0.161785
0.157801
0.154368
0.151474
0.149049
0.146929
0.144985
0.143087
0.141056
0.138662
0.135693
0.132063
0.127788
0.122967
0.117915
0.113457
0.111514
0.115348
0.125177
0.136226
0.142669
0.147036
0.154624
0.165871
0.178097
0.188807
0.196408
0.200666
0.202713
0.203979
0.205378
0.207235
0.20961
0.212702
0.216469
0.220863
0.225861
0.231428
0.237447
0.243657
0.249588
0.254536
0.257434
0.257226
0.254037
0.248163
0.240176
0.230852
0.220995
0.211335
0.202452
0.194733
0.188294
0.182448
0.175729
0.167463
0.159212
0.154043
0.157196
0.175207
0.210885
0.255778
0.285334
0.276807
0.241803
0.207813
0.185997
0.174305
0.167809
0.166484
0.159226
0.141768
0.125778
0.124498
0.124929
0.124994
0.128615
0.0979177
0.181512
0.189648
0.183337
0.162722
0.139563
0.119908
0.104796
0.0934006
0.0848163
0.078231
0.074376
0.0744767
0.077856
0.0838547
0.092348
0.104289
0.123316
0.159479
0.215989
0.277946
0.326951
0.316195
0.28038
0.251973
0.234941
0.225135
0.220063
0.217945
0.217769
0.218796
0.220435
0.222322
0.224305
0.226315
0.228209
0.229793
0.230907
0.231504
0.231666
0.231576
0.231454
0.231497
0.231846
0.232579
0.233719
0.235239
0.237075
0.239084
0.240666
0.241697
0.242133
0.241995
0.241374
0.240434
0.239414
0.238619
0.23841
0.239191
0.241387
0.245421
0.25168
0.260481
0.272023
0.286343
0.303251
0.32228
0.342648
0.363257
0.382773
0.399778
0.412994
0.421512
0.424952
0.423451
0.417581
0.408133
0.395901
0.381898
0.368288
0.354755
0.341487
0.328648
0.316337
0.304601
0.293459
0.282912
0.272953
0.263566
0.254725
0.246403
0.238573
0.231212
0.224297
0.21781
0.211731
0.206042
0.200724
0.195748
0.191066
0.186608
0.18229
0.178066
0.173928
0.169958
0.166239
0.162799
0.159601
0.156592
0.153703
0.150843
0.147889
0.14469
0.141123
0.137223
0.133169
0.129064
0.125154
0.122649
0.123735
0.128372
0.132959
0.133618
0.133719
0.139163
0.150493
0.164865
0.178026
0.186759
0.19039
0.190483
0.189101
0.187606
0.186584
0.186183
0.1865
0.187419
0.188809
0.190705
0.19321
0.19645
0.200501
0.205292
0.210532
0.215621
0.219498
0.221103
0.220341
0.217212
0.212106
0.205681
0.198691
0.191829
0.185644
0.180522
0.176663
0.173868
0.171249
0.167414
0.161627
0.155146
0.150761
0.153286
0.169345
0.203705
0.251098
0.290052
0.299163
0.282061
0.257669
0.237582
0.222393
0.212007
0.201509
0.179883
0.1549
0.143439
0.138934
0.137163
0.138629
0.11025
0.179771
0.206416
0.189057
0.159158
0.132121
0.111952
0.0978556
0.0878608
0.0810564
0.0775979
0.07785
0.0800568
0.0839338
0.0895482
0.0994854
0.118242
0.151327
0.200334
0.254535
0.29091
0.284465
0.253944
0.226443
0.209105
0.199988
0.196152
0.195671
0.197258
0.200103
0.203649
0.2075
0.211369
0.215028
0.218283
0.220995
0.223129
0.224767
0.226093
0.227335
0.228715
0.230403
0.2325
0.235036
0.237975
0.241229
0.244668
0.248137
0.250785
0.25214
0.252062
0.250481
0.247411
0.242968
0.237372
0.230952
0.224135
0.217437
0.21143
0.206723
0.203919
0.203587
0.206224
0.212229
0.221874
0.235262
0.252258
0.272403
0.294817
0.318173
0.340775
0.360792
0.376619
0.387241
0.392315
0.392191
0.387581
0.379377
0.36953
0.358857
0.347705
0.336419
0.325231
0.314292
0.303695
0.2935
0.283741
0.274435
0.26559
0.2572
0.249257
0.241749
0.234662
0.227982
0.221694
0.215784
0.210235
0.205026
0.200131
0.195506
0.1911
0.186857
0.182734
0.178713
0.174806
0.171039
0.167436
0.164005
0.16073
0.157569
0.154454
0.151296
0.148
0.144497
0.140811
0.137094
0.133609
0.130915
0.130416
0.132759
0.134877
0.13228
0.126674
0.126842
0.135926
0.150804
0.166476
0.177903
0.182959
0.182961
0.180515
0.177545
0.174942
0.17296
0.171569
0.170756
0.170203
0.169789
0.169622
0.16993
0.170993
0.173071
0.176282
0.180489
0.185202
0.18919
0.191867
0.192722
0.191535
0.188514
0.1842
0.179282
0.174429
0.170174
0.166858
0.164617
0.163334
0.162564
0.161516
0.159331
0.155605
0.15124
0.148642
0.152343
0.168551
0.201539
0.246081
0.284967
0.302401
0.298488
0.284124
0.268803
0.255097
0.245806
0.22593
0.193996
0.169872
0.157111
0.151153
0.148727
0.121337
0.203794
0.222204
0.193188
0.158123
0.130408
0.111645
0.0995052
0.0918873
0.0884666
0.0883283
0.088533
0.0905821
0.0950411
0.103857
0.120104
0.146666
0.183615
0.223784
0.249437
0.247486
0.226986
0.205172
0.190497
0.183203
0.181165
0.18248
0.185905
0.190651
0.196216
0.202243
0.208451
0.214618
0.220582
0.226264
0.23167
0.236884
0.242044
0.247306
0.252802
0.258619
0.264778
0.271229
0.277847
0.28444
0.290761
0.296523
0.30143
0.304476
0.305615
0.304612
0.301287
0.295548
0.287413
0.277035
0.264712
0.250907
0.23626
0.221587
0.207842
0.196028
0.18707
0.181701
0.180417
0.183511
0.191131
0.203327
0.219976
0.240619
0.264265
0.289302
0.313603
0.334898
0.351472
0.362357
0.367507
0.367431
0.363536
0.357309
0.349527
0.340777
0.331481
0.321932
0.312336
0.302832
0.293517
0.284457
0.275698
0.26727
0.259193
0.251476
0.244124
0.237137
0.230511
0.224239
0.21831
0.212709
0.207417
0.202408
0.197648
0.193099
0.188716
0.184465
0.180324
0.176296
0.172398
0.168651
0.165071
0.161656
0.158384
0.155212
0.152082
0.148929
0.145697
0.142371
0.139103
0.136341
0.134957
0.135995
0.138137
0.136247
0.127921
0.120112
0.122403
0.135213
0.152427
0.167667
0.176354
0.178327
0.176306
0.173005
0.169843
0.167239
0.165168
0.163465
0.162012
0.160363
0.158439
0.156434
0.154733
0.153734
0.153876
0.155455
0.158481
0.162237
0.166121
0.169383
0.171316
0.17153
0.170061
0.167328
0.163963
0.160614
0.157801
0.155845
0.154857
0.154725
0.15511
0.155495
0.155341
0.154193
0.15194
0.149097
0.147883
0.152664
0.168439
0.197235
0.233235
0.263859
0.279167
0.279091
0.271806
0.268698
0.27204
0.265831
0.235865
0.20058
0.178368
0.166883
0.159825
0.131757
0.226127
0.230861
0.196256
0.160886
0.13574
0.119671
0.108984
0.101896
0.0984384
0.0977615
0.0990752
0.10333
0.111645
0.125547
0.146108
0.172141
0.197897
0.213786
0.213925
0.202257
0.187793
0.177158
0.172207
0.171961
0.17495
0.180089
0.186716
0.194415
0.202883
0.211854
0.221086
0.230379
0.239583
0.248618
0.257473
0.266207
0.27493
0.28377
0.292837
0.302186
0.311801
0.32158
0.33134
0.340819
0.349695
0.357599
0.363762
0.367925
0.369852
0.369206
0.365721
0.359233
0.349695
0.337171
0.321815
0.303856
0.28364
0.261756
0.239184
0.217359
0.197988
0.182656
0.172436
0.167748
0.168537
0.174654
0.186031
0.202544
0.223686
0.248249
0.274192
0.298778
0.319593
0.335118
0.344719
0.348767
0.348796
0.345925
0.340982
0.33461
0.327291
0.319376
0.311119
0.3027
0.294251
0.285868
0.277624
0.26957
0.261749
0.25419
0.246913
0.239932
0.233257
0.226888
0.220822
0.21505
0.209557
0.204322
0.199318
0.194513
0.189873
0.185373
0.180996
0.176744
0.17263
0.168675
0.164902
0.16132
0.157931
0.154719
0.151659
0.148716
0.145839
0.142993
0.140352
0.138497
0.138363
0.140244
0.141017
0.13509
0.123226
0.115349
0.119759
0.134773
0.153302
0.167743
0.174014
0.174088
0.17133
0.168196
0.165604
0.163583
0.161848
0.160186
0.158366
0.15582
0.15255
0.148829
0.145277
0.142395
0.140716
0.140696
0.142274
0.145163
0.148774
0.152314
0.154989
0.156254
0.155981
0.154472
0.152303
0.150118
0.148445
0.147604
0.147687
0.148573
0.149946
0.151368
0.152406
0.152779
0.152262
0.150721
0.148483
0.147849
0.152694
0.165993
0.187216
0.210748
0.228731
0.237019
0.238607
0.243106
0.260672
0.278236
0.264951
0.229033
0.200146
0.183251
0.171616
0.142471
0.239654
0.237355
0.200774
0.167234
0.14418
0.129607
0.120199
0.114315
0.11191
0.111725
0.114896
0.12178
0.132684
0.147251
0.163633
0.178176
0.186765
0.187447
0.181829
0.173934
0.167717
0.165258
0.166623
0.170974
0.177524
0.185778
0.19542
0.206175
0.217739
0.229773
0.241941
0.253951
0.265607
0.276839
0.287713
0.298395
0.309099
0.320019
0.331286
0.342939
0.35492
0.367073
0.379156
0.390848
0.401763
0.411469
0.419083
0.424697
0.427827
0.427971
0.424723
0.41785
0.407362
0.39351
0.376695
0.35728
0.335415
0.311053
0.284291
0.255915
0.227748
0.202384
0.182319
0.169
0.162491
0.162244
0.167871
0.179307
0.196417
0.218481
0.243871
0.269762
0.29292
0.311791
0.324471
0.332168
0.33567
0.335858
0.333541
0.329393
0.323942
0.317583
0.310609
0.303237
0.295627
0.287904
0.280162
0.272474
0.264901
0.257487
0.25027
0.243275
0.236523
0.230025
0.223786
0.217806
0.212074
0.206577
0.201294
0.196202
0.191276
0.186496
0.181849
0.177335
0.172967
0.168767
0.164764
0.160983
0.157447
0.154171
0.151162
0.148412
0.145886
0.143553
0.141612
0.140696
0.141576
0.14365
0.142579
0.133404
0.119635
0.112301
0.118085
0.134098
0.152647
0.166032
0.171265
0.170709
0.167972
0.165477
0.163801
0.162714
0.161673
0.160292
0.158086
0.154649
0.15013
0.144788
0.13948
0.134951
0.131682
0.130125
0.130468
0.132536
0.135811
0.139505
0.14275
0.144858
0.145549
0.145013
0.143786
0.14252
0.141769
0.141865
0.142891
0.144703
0.146985
0.149315
0.151287
0.152615
0.153141
0.152659
0.150924
0.148373
0.147405
0.150907
0.159724
0.171888
0.183515
0.191687
0.197496
0.207159
0.229277
0.260106
0.270112
0.247611
0.2189
0.198529
0.18313
0.150563
0.251506
0.243552
0.205919
0.173857
0.152604
0.139681
0.132186
0.128579
0.126897
0.128105
0.132268
0.138982
0.147368
0.155986
0.163109
0.167351
0.168252
0.166451
0.163466
0.161194
0.161149
0.163904
0.169258
0.176803
0.186247
0.197371
0.209908
0.223477
0.237603
0.251789
0.265604
0.278768
0.291202
0.303018
0.31446
0.325819
0.337357
0.349264
0.36164
0.374494
0.387748
0.401238
0.41471
0.427819
0.440123
0.451095
0.460407
0.468046
0.473356
0.475558
0.473865
0.467638
0.456595
0.441011
0.42175
0.399981
0.3766
0.351712
0.324667
0.294843
0.262777
0.230745
0.202348
0.180844
0.167308
0.161064
0.161311
0.167798
0.180575
0.199226
0.222581
0.248393
0.272064
0.292199
0.307679
0.318377
0.324756
0.327548
0.327515
0.325334
0.32155
0.316588
0.310772
0.304347
0.297501
0.290381
0.283101
0.275754
0.268414
0.261141
0.253984
0.24698
0.240159
0.233542
0.227141
0.220963
0.215006
0.209263
0.20372
0.198362
0.19317
0.188127
0.183225
0.178463
0.173852
0.169414
0.165185
0.161203
0.157512
0.154158
0.151178
0.148596
0.146397
0.144558
0.143289
0.143186
0.144745
0.146604
0.1438
0.132347
0.117581
0.110554
0.116651
0.1325
0.150377
0.163037
0.168097
0.167924
0.165977
0.16442
0.163769
0.163616
0.163249
0.161948
0.159072
0.154684
0.149037
0.142561
0.135933
0.129932
0.125248
0.122434
0.121772
0.123186
0.126221
0.130095
0.133869
0.13672
0.138227
0.138483
0.138003
0.137466
0.13747
0.138366
0.140222
0.142863
0.145942
0.149037
0.151749
0.153781
0.154951
0.15508
0.153889
0.151154
0.147612
0.145537
0.146623
0.150402
0.155156
0.159684
0.165017
0.175508
0.197997
0.232748
0.258304
0.253418
0.231498
0.210839
0.193227
0.156639
0.262333
0.250822
0.212375
0.181234
0.161299
0.149728
0.143558
0.140186
0.138945
0.139763
0.142128
0.145367
0.148763
0.151715
0.153881
0.1552
0.15584
0.156208
0.157003
0.159067
0.163026
0.169103
0.177272
0.187457
0.199542
0.213265
0.228177
0.243681
0.259138
0.273997
0.287908
0.300768
0.312702
0.323979
0.334916
0.345805
0.356877
0.368295
0.380158
0.392494
0.405248
0.418279
0.431359
0.44418
0.456375
0.467518
0.47797
0.487575
0.495738
0.501575
0.503933
0.501504
0.493113
0.478218
0.457448
0.432691
0.406264
0.379602
0.352457
0.323395
0.29142
0.257214
0.224053
0.196555
0.177431
0.166243
0.162033
0.164351
0.173363
0.188699
0.209276
0.232796
0.256387
0.277594
0.294883
0.307719
0.316289
0.321163
0.323017
0.322494
0.320137
0.316379
0.311563
0.305955
0.299766
0.293161
0.286275
0.279217
0.272074
0.26492
0.257813
0.2508
0.24392
0.237199
0.230659
0.224311
0.218162
0.212209
0.206447
0.200865
0.19545
0.19019
0.185077
0.18011
0.175297
0.170662
0.16624
0.162083
0.158254
0.154824
0.151862
0.149426
0.147517
0.146125
0.14544
0.145969
0.147934
0.149454
0.145364
0.132509
0.117127
0.109815
0.115157
0.12985
0.146637
0.158911
0.164499
0.165379
0.16459
0.164084
0.164309
0.164713
0.164521
0.163022
0.159682
0.154622
0.148126
0.140698
0.13304
0.125966
0.120259
0.116556
0.115223
0.116264
0.119276
0.123471
0.127827
0.131395
0.133621
0.134526
0.134628
0.134663
0.135283
0.136861
0.139436
0.142777
0.146491
0.150144
0.153356
0.155854
0.157421
0.1579
0.157009
0.154477
0.150284
0.145479
0.14196
0.140522
0.140517
0.141435
0.144323
0.152575
0.171781
0.204341
0.236853
0.247267
0.236048
0.218586
0.200855
0.16024
0.272202
0.259342
0.220755
0.190007
0.170308
0.158453
0.151218
0.14657
0.143967
0.142745
0.142458
0.142826
0.143717
0.1451
0.146947
0.149179
0.151729
0.154702
0.158455
0.163469
0.170145
0.178736
0.189368
0.202029
0.216487
0.232259
0.248664
0.264958
0.280488
0.294816
0.307778
0.319459
0.330109
0.340043
0.349579
0.359007
0.368594
0.378564
0.389057
0.400074
0.411448
0.422873
0.434007
0.444575
0.454452
0.463827
0.473324
0.482959
0.492423
0.50105
0.507748
0.510928
0.508558
0.498639
0.480309
0.45501
0.426074
0.396789
0.368355
0.339558
0.308886
0.275373
0.241073
0.210544
0.188237
0.173778
0.166439
0.16559
0.171254
0.183499
0.20153
0.223356
0.246269
0.267709
0.285911
0.300076
0.310166
0.316587
0.319916
0.320733
0.319554
0.316804
0.312831
0.307911
0.30227
0.296092
0.289527
0.282698
0.275707
0.268638
0.261561
0.25453
0.24759
0.240777
0.234116
0.227625
0.221315
0.215191
0.209252
0.203492
0.197903
0.192476
0.187204
0.182084
0.177124
0.172344
0.167781
0.163492
0.159556
0.156066
0.153126
0.150813
0.149157
0.14816
0.147969
0.148975
0.151187
0.152468
0.147686
0.13416
0.118271
0.11002
0.113659
0.126369
0.1417
0.153725
0.160216
0.16249
0.162988
0.163394
0.164127
0.164702
0.164442
0.162717
0.15902
0.153461
0.146366
0.138288
0.129965
0.122241
0.115947
0.111782
0.110181
0.111211
0.1145
0.119228
0.124281
0.128576
0.131443
0.132862
0.13339
0.133849
0.134961
0.137106
0.140273
0.144145
0.148267
0.152192
0.155583
0.158234
0.159964
0.160607
0.15989
0.157547
0.153432
0.147837
0.141982
0.137295
0.134174
0.132433
0.132768
0.137778
0.152123
0.17928
0.212145
0.232445
0.232377
0.220784
0.20513
0.160192
0.27915
0.267754
0.22981
0.198763
0.177953
0.164241
0.154657
0.148156
0.143717
0.140822
0.13926
0.138987
0.139994
0.142192
0.145369
0.149256
0.153685
0.158725
0.164682
0.171974
0.18099
0.192005
0.205105
0.220113
0.23655
0.253702
0.270753
0.286953
0.301761
0.314915
0.326419
0.336462
0.345336
0.353377
0.360953
0.368467
0.376329
0.384864
0.394174
0.404032
0.413903
0.423126
0.431186
0.437918
0.44371
0.449669
0.456464
0.464241
0.472853
0.481876
0.490562
0.497669
0.501136
0.498028
0.485571
0.463565
0.435045
0.404498
0.374782
0.345338
0.315532
0.283563
0.250807
0.220863
0.197022
0.180572
0.171175
0.168273
0.171874
0.182102
0.198311
0.218706
0.240736
0.261886
0.280332
0.295145
0.306144
0.313603
0.317995
0.319831
0.319579
0.317643
0.314357
0.310003
0.304813
0.298981
0.292671
0.286019
0.279139
0.272126
0.265058
0.257997
0.250997
0.244097
0.237329
0.230716
0.224273
0.21801
0.211931
0.206034
0.200315
0.194767
0.189384
0.184164
0.17911
0.174241
0.169591
0.165218
0.161211
0.157686
0.154765
0.152551
0.15111
0.15046
0.150697
0.152087
0.154506
0.155783
0.150952
0.1374
0.12105
0.111309
0.112476
0.122499
0.135942
0.147555
0.154944
0.158655
0.160422
0.161609
0.162642
0.163221
0.162791
0.160769
0.156692
0.150739
0.14327
0.134862
0.126261
0.118317
0.111887
0.107713
0.106285
0.107714
0.111627
0.117141
0.123025
0.128058
0.131476
0.133258
0.134047
0.134783
0.136263
0.138854
0.14245
0.146623
0.150845
0.154675
0.157848
0.160271
0.161889
0.162506
0.161894
0.15977
0.155964
0.150546
0.144095
0.137783
0.132612
0.128917
0.127136
0.129078
0.138517
0.159262
0.188471
0.213008
0.221884
0.217275
0.205447
0.154822
0.280372
0.273485
0.237261
0.205701
0.183272
0.167152
0.155775
0.147678
0.142078
0.138608
0.137117
0.137503
0.139593
0.143095
0.147648
0.152959
0.158935
0.165735
0.173713
0.183287
0.19481
0.208453
0.224105
0.241328
0.259408
0.277478
0.294698
0.310405
0.324209
0.335995
0.345863
0.354038
0.360817
0.36658
0.371812
0.377097
0.383012
0.389939
0.397867
0.406292
0.414306
0.420964
0.425595
0.428123
0.429617
0.432111
0.43616
0.441659
0.448429
0.456171
0.46442
0.472437
0.478736
0.480474
0.473743
0.456886
0.431713
0.40255
0.373115
0.344461
0.315446
0.284859
0.253585
0.224632
0.201117
0.184459
0.174504
0.170864
0.173641
0.182971
0.198219
0.217659
0.23887
0.259467
0.277696
0.292627
0.304016
0.312051
0.317116
0.31965
0.320067
0.318735
0.315974
0.312054
0.307212
0.301646
0.29553
0.289008
0.282204
0.275222
0.268148
0.261052
0.253991
0.247011
0.24015
0.233433
0.226882
0.220508
0.214321
0.208322
0.20251
0.196881
0.19143
0.186154
0.181056
0.176147
0.171459
0.16705
0.163009
0.159465
0.156553
0.154411
0.153141
0.152789
0.153407
0.155151
0.157824
0.159396
0.155159
0.142217
0.125552
0.113975
0.112108
0.11885
0.129872
0.14062
0.148551
0.153468
0.156375
0.158253
0.159502
0.159978
0.159271
0.156898
0.152508
0.146323
0.138733
0.130316
0.121808
0.114053
0.107926
0.104202
0.103408
0.105671
0.110573
0.11713
0.12396
0.129706
0.133542
0.135497
0.13636
0.137222
0.138945
0.141837
0.145652
0.149822
0.153758
0.15706
0.159577
0.16136
0.16251
0.162918
0.16235
0.160523
0.15721
0.152398
0.146376
0.139841
0.133719
0.12868
0.12522
0.124604
0.12977
0.144358
0.168083
0.192497
0.206905
0.20876
0.201652
0.142441
0.273515
0.274647
0.241708
0.209996
0.185955
0.168569
0.155922
0.146882
0.140845
0.137486
0.136575
0.137852
0.140971
0.145528
0.151164
0.157683
0.165131
0.173772
0.183996
0.196187
0.210582
0.227152
0.24553
0.265025
0.284725
0.30368
0.321085
0.336387
0.349329
0.359903
0.368249
0.374583
0.379185
0.382465
0.385016
0.387586
0.390904
0.395445
0.401221
0.407719
0.414049
0.418837
0.420339
0.418769
0.417355
0.417859
0.419872
0.423055
0.427413
0.432889
0.439219
0.445929
0.451988
0.45514
0.452001
0.439873
0.419051
0.39282
0.364859
0.336891
0.308544
0.279115
0.24952
0.22245
0.200612
0.185151
0.175927
0.172752
0.175856
0.185337
0.200451
0.219446
0.240006
0.259934
0.277645
0.292298
0.30366
0.311873
0.317254
0.320172
0.320991
0.320041
0.317618
0.313984
0.309369
0.303976
0.29798
0.291535
0.28477
0.277795
0.270701
0.263564
0.256445
0.249396
0.242456
0.235656
0.229019
0.222562
0.216295
0.210225
0.204353
0.198677
0.193194
0.187901
0.182797
0.177892
0.17321
0.168804
0.164764
0.161209
0.158297
0.156192
0.155038
0.154919
0.155876
0.15797
0.160985
0.163146
0.160105
0.148469
0.131855
0.118377
0.113146
0.116135
0.12415
0.133366
0.1412
0.146839
0.150602
0.153051
0.154479
0.154836
0.153854
0.151163
0.146585
0.140368
0.132913
0.124788
0.116712
0.10953
0.10413
0.101315
0.101628
0.105163
0.111409
0.119225
0.127057
0.133415
0.137461
0.139348
0.140077
0.140911
0.142746
0.145766
0.149528
0.153319
0.15653
0.158849
0.160283
0.161046
0.161402
0.161402
0.160788
0.159309
0.15667
0.152746
0.147675
0.141845
0.135834
0.130238
0.12561
0.122981
0.124667
0.133905
0.15176
0.173349
0.18993
0.196604
0.194146
0.121625
0.257296
0.270687
0.243913
0.212777
0.187846
0.169286
0.15566
0.146006
0.13978
0.136616
0.136175
0.138064
0.141853
0.147138
0.153649
0.161332
0.170365
0.181093
0.193922
0.209159
0.2269
0.246909
0.2686
0.291157
0.313271
0.333489
0.351455
0.366757
0.379254
0.389008
0.396174
0.400936
0.403537
0.404373
0.404072
0.403444
0.403297
0.404187
0.406244
0.409153
0.412369
0.414979
0.41585
0.414896
0.413186
0.411821
0.411177
0.411449
0.412894
0.415643