/*--------------------------------*- C++ -*----------------------------------*\
  =========                 |
  \\      /  F ield         | OpenFOAM: The Open Source CFD Toolbox
   \\    /   O peration     | Website:  https://openfoam.org
    \\  /    A nd           | Version:  9
     \\/     M anipulation  |
\*---------------------------------------------------------------------------*/
FoamFile
{
    format      ascii;
    class       volScalarField;
    location    "0.09";
    object      p;
}
// * * * * * * * * * * * * * * * * * * * * * * * * * * * * * * * * * * * * * //

dimensions      [0 2 -2 0 0 0 0];

internalField   nonuniform List<scalar> 
12225
(
1.76164
0.853534
0.528113
0.588758
0.721259
0.881443
1.10949
1.4239
1.82207
2.29681
2.83809
3.4269
4.03099
4.60588
5.10553
5.49422
5.77467
5.97883
1.15896
0.604731
0.411114
0.504116
0.65637
0.830034
1.06326
1.37685
1.77035
2.23785
2.7709
3.35302
3.95527
4.53601
5.05004
5.45843
5.76181
5.99247
0.990584
0.693951
0.506792
0.540501
0.661998
0.817763
1.03024
1.31791
1.67961
2.10756
2.59235
3.11919
3.66459
4.19678
4.68298
5.09483
5.4365
5.69543
0.861375
0.657108
0.46316
0.468097
0.586126
0.74514
0.952905
1.22693
1.5666
1.96255
2.40344
2.87367
3.35129
3.80953
4.22381
4.57645
4.87378
5.10412
0.731765
0.580921
0.419295
0.422637
0.538147
0.694398
0.891645
1.14694
1.46089
1.82369
2.223
2.6433
3.06415
3.46179
3.81477
4.10862
4.34434
4.53028
0.604221
0.497508
0.375061
0.375654
0.477912
0.623713
0.807319
1.04219
1.32898
1.65769
2.01548
2.38736
2.75501
3.09805
3.39827
3.64375
3.83224
3.97412
0.479237
0.406332
0.316115
0.313887
0.401968
0.536958
0.707464
0.921699
1.18004
1.47296
1.78771
2.11006
2.42371
2.71134
2.95774
3.15296
3.29352
3.38283
0.354813
0.305991
0.241465
0.239599
0.315396
0.438241
0.593626
0.785091
1.01269
1.26783
1.53819
1.81037
2.06986
2.30184
2.49338
2.63564
2.72432
2.75867
0.228771
0.1967
0.152401
0.152595
0.216712
0.324887
0.462442
0.629239
0.824579
1.04069
1.26595
1.48782
1.69339
1.86987
2.00611
2.09407
2.12887
2.10829
0.0992314
0.0785964
0.0493348
0.0513554
0.10392
0.195555
0.313188
0.453909
0.615885
0.79202
0.971624
1.14316
1.29511
1.41642
1.49737
1.53056
1.51078
1.43475
-0.0354573
-0.0485907
-0.0676058
-0.0650663
-0.0240756
0.0497264
0.145557
0.258726
0.386257
0.52163
0.655229
0.776601
0.875515
0.942335
0.968544
0.947333
0.873349
0.74263
-0.165036
-0.174066
-0.187518
-0.186156
-0.156055
-0.0995777
-0.0253036
0.061326
0.156508
0.254144
0.345617
0.421501
0.472642
0.490536
0.467627
0.397679
0.275468
0.096963
-0.299414
-0.306164
-0.316903
-0.318369
-0.299587
-0.260992
-0.20918
-0.14975
-0.0870627
-0.0268641
0.0231824
0.0546818
0.0594988
0.0301488
-0.0400302
-0.156649
-0.324596
-0.547662
-0.461195
-0.467095
-0.477877
-0.484927
-0.48007
-0.462685
-0.437586
-0.41007
-0.384751
-0.366968
-0.363366
-0.381176
-0.427408
-0.50846
-0.630018
-0.796901
-1.01339
-1.28266
-0.655785
-0.66249
-0.676614
-0.692825
-0.705179
-0.712651
-0.718654
-0.727822
-0.744605
-0.773797
-0.820967
-0.892079
-0.992902
-1.12866
-1.30394
-1.52257
-1.78793
-2.10221
-0.888648
-0.89795
-0.919026
-0.948571
-0.982013
-1.0182
-1.0595
-1.10968
-1.1726
-1.2523
-1.35319
-1.4799
-1.63685
-1.82798
-2.05664
-2.3255
-2.63681
-2.99161
-1.16375
-1.17743
-1.2091
-1.25637
-1.31504
-1.38367
-1.46382
-1.55825
-1.66993
-1.80188
-1.95724
-2.13926
-2.35091
-2.59477
-2.87287
-3.18663
-3.5371
-3.92414
-1.48018
-1.49998
-1.54558
-1.61459
-1.70211
-1.80602
-1.92705
-2.06696
-2.22757
-2.41066
-2.61807
-2.85159
-3.1128
-3.40289
-3.72262
-4.0722
-4.45162
-4.85975
-1.82547
-1.85348
-1.91651
-2.01098
-2.13027
-2.27105
-2.43312
-2.61724
-2.82399
-3.05376
-3.30702
-3.58421
-3.88563
-4.21124
-4.56071
-4.93329
-5.32812
-5.74346
-2.08901
-2.12451
-2.20359
-2.32067
-2.46631
-2.63565
-2.82801
-3.04364
-3.28222
-3.54305
-3.82556
-4.12931
-4.45374
-4.79807
-5.16128
-5.54209
-5.93917
-6.35046
-2.24978
-2.29137
-2.38401
-2.5194
-2.68474
-2.87394
-3.08654
-3.32268
-3.58137
-3.86122
-4.16115
-4.48025
-4.81754
-5.17183
-5.54176
-5.92581
-6.32253
-6.72996
-2.34701
-2.39569
-2.50315
-2.65648
-2.83847
-3.04298
-3.27101
-3.52276
-3.79625
-4.08933
-4.40063
-4.72904
-5.07336
-5.43217
-5.80395
-6.18703
-6.57974
-6.97981
-2.3937
-2.45132
-2.57653
-2.74853
-2.94444
-3.16021
-3.39956
-3.66316
-3.94823
-4.25185
-4.57234
-4.90846
-5.25881
-5.62176
-5.99562
-6.37872
-6.76958
-7.16647
-2.40063
-2.47019
-2.61737
-2.80852
-3.01613
-3.24153
-3.48998
-3.76123
-4.05293
-4.36214
-4.68699
-5.02616
-5.37841
-5.74216
-6.11556
-6.49676
-6.88395
-7.2748
-2.37457
-2.46305
-2.63877
-2.8447
-3.05889
-3.29348
-3.55475
-3.83681
-4.13705
-4.45382
-4.78518
-5.12868
-5.48355
-5.8486
-6.22218
-6.60257
-6.9881
-7.37725
-2.32082
-2.4368
-2.65442
-2.87422
-3.08256
-3.31249
-3.57631
-3.86506
-4.16793
-4.48709
-4.82247
-5.16949
-5.52681
-5.89278
-6.266
-6.64576
-7.02989
-7.4155
-2.24562
-2.39148
-2.65803
-2.90443
-3.12549
-3.36661
-3.63865
-3.93103
-4.23692
-4.55505
-4.88692
-5.23398
-5.59243
-5.95865
-6.33013
-6.70756
-7.08935
-7.47395
-2.1612
-2.35061
-2.61386
-2.84108
-3.06598
-3.32349
-3.6085
-3.90888
-4.22118
-4.546
-4.88449
-5.23611
-5.59731
-5.96622
-6.34192
-6.72068
-7.10183
-7.48615
-2.05711
-2.47592
-2.76839
-2.93983
-3.13413
-3.38312
-3.6625
-3.95695
-4.26514
-4.58808
-4.9254
-5.27537
-5.63522
-6.00281
-6.37615
-6.75216
-7.1299
-7.50875
-1.4763
-2.21999
-2.65964
-2.86958
-3.08616
-3.35516
-3.64832
-3.95147
-4.26598
-4.59405
-4.93523
-5.28782
-5.64951
-6.0181
-6.39144
-6.76691
-7.14281
-7.51564
-26.1884
-26.5352
-26.1716
-24.7661
-23.0554
-22.416
-23.4699
-25.8128
-28.4887
-30.7246
-32.1022
-32.5618
-32.3168
-31.6624
-30.8801
-30.2323
-29.923
-30.0163
-30.3446
-30.6214
-30.7076
-30.5251
-29.9692
-29.2993
-28.9026
-28.932
-29.1322
-29.2984
-29.3859
-29.4204
-29.3428
-29.151
-28.948
-29.1539
-29.9514
-31.4555
-33.6644
-36.4762
-39.7231
-43.2076
-46.732
-50.1193
-53.2234
-55.9324
-58.1695
-59.8922
-61.0865
-61.7552
-61.8874
-61.4442
-60.4079
-58.8571
-56.8585
-54.4701
-51.7417
-48.7185
-45.4416
-41.9485
-38.2732
-34.4469
-30.4988
-26.4575
-22.3532
-18.2194
-14.094
-10.0207
-6.04796
-2.22749
1.3894
4.7556
7.83202
10.5906
13.0162
15.1069
16.8722
18.3308
19.5083
20.4356
21.1477
21.675
22.0468
22.2815
22.4046
22.4361
22.3994
22.3105
22.1793
22.0134
21.8215
21.6162
21.4034
21.1873
20.9724
20.763
20.5632
20.3772
20.2146
20.079
19.9372
19.7718
19.5651
19.321
19.054
18.7729
18.5067
18.2896
18.1426
18.0703
18.061
18.0846
18.1248
18.158
18.1799
18.1978
18.2287
18.2962
18.4201
18.6027
18.8136
18.9799
19.0441
19.0141
18.8318
18.1944
16.6536
13.8996
9.75266
4.30219
-2.06396
-8.5907
-14.6391
-19.7846
-23.782
-26.5048
-27.9065
-27.9651
-26.6789
-24.1369
-20.4653
-15.8128
-10.3629
-4.3422
1.97253
8.26271
14.1974
19.4801
23.8969
27.3021
29.619
30.8738
31.2031
30.8046
29.9028
28.7166
27.5094
26.4992
25.3949
23.8861
21.787
19.3605
17.4187
16.5995
16.528
16.402
15.7377
14.4085
12.3362
9.49118
6.12705
3.04906
1.44114
1.79685
3.99169
6.54826
8.41676
9.38692
9.67891
9.17596
7.62634
5.26993
-27.3958
-27.8425
-27.9077
-27.4976
-27.479
-28.5999
-30.7831
-33.4527
-35.9961
-37.9998
-39.2726
-39.6782
-39.1117
-37.6414
-35.6046
-33.5278
-31.9378
-31.1441
-31.0316
-31.0867
-30.9481
-30.6863
-30.2252
-29.8031
-29.8359
-30.1306
-30.0509
-29.6394
-29.312
-29.3918
-29.6734
-29.7714
-29.8472
-30.405
-31.7157
-33.8558
-36.7369
-40.1643
-43.8973
-47.6971
-51.357
-54.7146
-57.6519
-60.0885
-61.9725
-63.2749
-63.9865
-64.1166
-63.7057
-62.8249
-61.5351
-59.83
-57.7296
-55.2669
-52.4823
-49.4167
-46.1093
-42.596
-38.9093
-35.0785
-31.1302
-27.0902
-22.9855
-18.8463
-14.7082
-10.6134
-6.61009
-2.75111
0.909991
4.32321
7.44663
10.2499
12.7164
14.8433
16.6402
18.1266
19.3291
20.2787
21.0094
21.546
21.9298
22.1746
22.3065
22.3506
22.3231
22.2374
22.1063
21.9443
21.7629
21.5658
21.3584
21.1466
20.9352
20.7278
20.5274
20.3366
20.1516
19.9662
19.7971
19.6414
19.4801
19.282
19.0342
18.7608
18.4968
18.2775
18.1273
18.0555
18.0498
18.0856
18.1338
18.1739
18.2004
18.2168
18.2362
18.2854
18.39
18.5569
18.7594
18.9302
18.9932
18.9345
18.7831
18.2564
16.7564
13.7417
9.06104
3.02628
-3.68308
-10.2995
-16.2689
-21.2514
-25.0513
-27.5619
-28.7437
-28.6355
-27.2739
-24.7075
-21.0274
-16.3717
-10.9192
-4.8933
1.43411
7.74959
13.7222
19.0493
23.5098
26.9557
29.304
30.5882
30.9457
30.5709
29.6848
28.5149
27.2264
25.9122
24.7135
23.361
21.4586
19.1394
17.2834
16.6405
16.7879
16.638
15.8413
14.4914
12.391
9.43935
5.93819
2.6385
0.881165
1.30108
3.65457
6.41006
8.42059
9.44833
9.77537
9.27869
7.63703
5.1295
-27.5599
-27.7279
-28.747
-31.0295
-33.8719
-36.7454
-39.4898
-41.9762
-44.0576
-45.6184
-46.5865
-46.8979
-46.4642
-45.2135
-43.146
-40.3788
-37.215
-34.1387
-31.6159
-29.8098
-28.6563
-28.0242
-28.0442
-28.4545
-28.8827
-29.3505
-29.8454
-30.0687
-30.2743
-30.8784
-31.9535
-33.3866
-35.1413
-37.2517
-39.7103
-42.4588
-45.4004
-48.4275
-51.4392
-54.348
-57.0793
-59.5674
-61.7528
-63.5818
-65.0074
-65.9883
-66.4865
-66.4736
-65.9617
-64.9589
-63.5066
-61.6398
-59.3943
-56.8081
-53.9218
-50.776
-47.4091
-43.8559
-40.1467
-36.3073
-32.3597
-28.3237
-24.2197
-20.0713
-15.9087
-11.7706
-7.7047
-3.76605
-0.0130986
3.49784
6.71844
9.61311
12.1617
14.3597
16.2169
17.7538
18.9985
19.983
20.7425
21.3094
21.7129
21.9771
22.1275
22.1864
22.1728
22.1009
21.9841
21.8342
21.6612
21.4715
21.2712
21.066
20.86
20.6567
20.4587
20.268
20.0867
19.916
19.753
19.5841
19.4019
19.1999
18.9823
18.7665
18.5705
18.4092
18.2923
18.2247
18.1866
18.1742
18.1777
18.1954
18.2147
18.2354
18.2685
18.3299
18.44
18.5882
18.7544
18.8812
18.9215
18.8938
18.7313
17.8711
15.6709
11.5516
5.92274
-0.403532
-6.82925
-12.9223
-18.3769
-22.9608
-26.4936
-28.8414
-29.9234
-29.7649
-28.3613
-25.7684
-22.0764
-17.4162
-11.9593
-5.92277
0.427858
6.78479
12.8181
18.2198
22.7609
26.2772
28.6859
30.024
30.4278
30.0941
29.2395
28.0739
26.7831
25.4855
24.1649
22.6336
20.7928
18.8297
17.3257
16.7203
16.6731
16.4995
15.8651
14.5498
12.3145
9.13249
5.38453
1.92807
-0.0203192
0.422332
3.05352
6.17112
8.51757
9.64379
9.98697
9.34599
7.45698
4.71771
-28.2643
-29.1347
-32.5047
-36.7099
-40.2257
-43.0467
-45.4265
-47.4309
-49.0342
-50.1991
-50.9032
-51.1182
-50.7582
-49.6975
-47.8159
-44.9885
-41.2065
-36.7964
-32.4801
-29.0899
-27.0446
-26.1855
-26.036
-26.7406
-27.9339
-29.0405
-30.3386
-31.8224
-33.5117
-35.4658
-37.6796
-40.0757
-42.57
-45.1124
-47.679
-50.2605
-52.8493
-55.4293
-57.9697
-60.424
-62.7331
-64.8308
-66.6503
-68.13
-69.2176
-69.8719
-70.0646
-69.7841
-69.0188
-67.7927
-66.1313
-64.0679
-61.6421
-58.8969
-55.8766
-52.6244
-49.1802
-45.5788
-41.8486
-38.0112
-34.0819
-30.0716
-25.99
-21.8496
-17.6707
-13.4851
-9.33823
-5.28816
-1.40088
2.25686
5.62576
8.66096
11.336
13.6436
15.5931
17.2063
18.5133
19.5492
20.3529
20.9587
21.394
21.687
21.8636
21.946
21.9532
21.9007
21.8018
21.6679
21.509
21.3323
21.1439
20.949
20.7519
20.556
20.364
20.1778
19.9977
19.8219
19.6484
19.4755
19.3021
19.124
18.9384
18.7519
18.5753
18.4203
18.2957
18.2083
18.1638
18.1497
18.1552
18.1757
18.2076
18.2507
18.3126
18.4009
18.5111
18.6485
18.788
18.8872
18.9192
18.8427
18.2872
16.4489
12.8704
7.78496
1.97985
-4.03423
-9.97589
-15.6108
-20.6996
-25.0081
-28.3366
-30.5342
-31.5098
-31.2889
-29.8416
-27.2234
-23.5222
-18.8618
-13.4051
-7.35989
-0.982078
5.42615
11.5349
17.0348
21.6796
25.2925
27.787
29.1997
29.6681
29.3901
28.5843
27.4571
26.1708
24.8201
23.4238
21.9086
20.1962
18.4051
16.9352
16.1413
15.934
15.841
15.3664
14.1345
11.8737
8.55275
4.61707
1.02285
-0.961431
-0.480372
2.33393
5.99633
8.84778
10.1829
10.3763
9.38374
7.19537
4.22955
-31.6962
-33.8649
-37.9475
-41.6271
-44.5161
-46.8988
-48.9567
-50.7257
-52.1455
-53.1313
-53.6469
-53.7059
-53.2608
-52.2095
-50.3752
-47.534
-43.6102
-38.959
-34.4179
-30.8123
-28.3616
-27.2235
-27.2977
-28.0916
-29.6038
-31.5403
-33.8103
-36.2875
-38.8777
-41.5069
-44.1194
-46.6855
-49.2031
-51.6873
-54.156
-56.6206
-59.0792
-61.5131
-63.8866
-66.1505
-68.2468
-70.1132
-71.6883
-72.9142
-73.74
-74.1252
-74.0441
-73.4898
-72.4672
-70.993
-69.093
-66.8034
-64.1679
-61.2354
-58.0559
-54.6779
-51.1453
-47.4951
-43.7552
-39.9434
-36.0679
-32.128
-28.1186
-24.0354
-19.882
-15.6774
-11.4605
-7.2907
-3.2437
0.598789
4.16079
7.38274
10.2279
12.6835
14.7578
16.4739
17.8653
18.9717
19.8361
20.4926
20.9713
21.303
21.5142
21.6278
21.6631
21.6363
21.561
21.4486
21.3088
21.1492
20.9761
20.7947
20.6094
20.4235
20.2396
20.0594
19.8836
19.7123
19.5451
19.3802
19.2142
19.0444
18.8716
18.7023
18.5454
18.4103
18.3056
18.2308
18.1879
18.1698
18.1712
18.1887
18.2197
18.2651
18.3325
18.4291
18.5531
18.6951
18.8272
18.9173
18.9161
18.5956
17.2113
14.1778
9.55402
4.15928
-1.52516
-7.29068
-12.9766
-18.37
-23.2277
-27.3213
-30.4609
-32.5059
-33.3839
-33.0804
-31.5876
-28.9493
-25.2471
-20.5972
-15.1526
-9.10851
-2.71006
3.74706
9.93739
15.5429
20.306
24.0298
26.6247
28.1257
28.6714
28.4623
27.7161
26.6323
25.3663
24.014
22.6024
21.0903
19.4451
17.7543
16.2776
15.2958
14.8378
14.5987
14.1397
13.0331
10.9023
7.6514
3.71341
0.112574
-1.8034
-1.1644
1.89181
6.04497
9.41127
10.971
10.9281
9.49014
6.96871
3.74643
-36.4451
-38.9667
-41.8597
-44.3835
-46.6156
-48.6407
-50.4952
-52.1384
-53.4647
-54.3792
-54.8468
-54.8489
-54.3326
-53.237
-51.4301
-48.7598
-45.247
-41.2541
-37.3829
-34.2739
-32.4666
-31.7928
-32.0146
-33.018
-34.7501
-36.9633
-39.4593
-42.0806
-44.7294
-47.35
-49.918
-52.4344
-54.9156
-57.3808
-59.8419
-62.2982
-64.735
-67.1243
-69.4266
-71.593
-73.5682
-75.2933
-76.7091
-77.7588
-78.3913
-78.5649
-78.255
-77.4596
-76.185
-74.4468
-72.2765
-69.7179
-66.8241
-63.6533
-60.2651
-56.7165
-53.059
-49.335
-45.5753
-41.7973
-38.0031
-34.1807
-30.3071
-26.3552
-22.3038
-18.1491
-13.9146
-9.65585
-5.45667
-1.41698
2.3645
5.80673
8.85686
11.493
13.7201
15.5632
17.0611
18.2535
19.1953
19.9142
20.4473
20.827
21.0812
21.2335
21.3038
21.3088
21.2624
21.1762
21.06
20.9216
20.7675
20.6031
20.4327
20.2597
20.0869
19.9161
19.7484
19.584
19.4224
19.2624
19.103
18.9443
18.7879
18.6378
18.4997
18.3792
18.2817
18.2093
18.1633
18.1417
18.1413
18.1598
18.1957
18.2495
18.3303
18.4391
18.5754
18.7255
18.8626
18.9442
18.835
18.0438
15.7484
11.7167
6.56453
1.04159
-4.62286
-10.3193
-15.8945
-21.1315
-25.8029
-29.7074
-32.6769
-34.5814
-35.3591
-34.9894
-33.4594
-30.8103
-27.1187
-22.4936
-17.0768
-11.0497
-4.64649
1.84601
8.11156
13.8189
18.6977
22.5348
25.2337
26.8278
27.457
27.3243
26.6473
25.6211
24.3939
23.0568
21.6426
20.1379
18.5377
16.9227
15.4756
14.3849
13.6645
13.1312
12.5072
11.4278
9.47212
6.46237
2.77265
-0.590565
-2.27024
-1.3479
1.9415
6.40457
10.1182
11.8461
11.5512
9.65646
6.7507
3.27145
-39.4226
-41.2576
-42.9605
-44.684
-46.3912
-48.0422
-49.6524
-51.1331
-52.3812
-53.2796
-53.8131
-53.9391
-53.5403
-52.5592
-50.9676
-48.7934
-46.1612
-43.3267
-40.7155
-38.8037
-37.7019
-37.3321
-37.7764
-38.9505
-40.6807
-42.7677
-45.0652
-47.4665
-49.9107
-52.3709
-54.8404
-57.3225
-59.8229
-62.3443
-64.8826
-67.4247
-69.9472
-72.4161
-74.7871
-77.0067
-79.0141
-80.7446
-82.1332
-83.1176
-83.6429
-83.666
-83.1623
-82.1276
-80.5659
-78.5051
-75.9892
-73.0755
-69.8301
-66.3247
-62.6313
-58.8187
-54.9482
-51.0709
-47.2249
-43.4316
-39.6933
-35.9908
-32.285
-28.5239
-24.6543
-20.6386
-16.4718
-12.1935
-7.88872
-3.67439
0.324067
3.99749
7.2702
10.1063
12.5048
14.4922
16.1134
17.4146
18.4402
19.2319
19.8288
20.265
20.5697
20.7674
20.8789
20.9212
20.9087
20.8533
20.7648
20.6513
20.5197
20.3753
20.2227
20.0654
19.9064
19.7475
19.5901
19.4348
19.2819
19.1312
18.9826
18.8365
18.6941
18.5585
18.434
18.3256
18.2374
18.1719
18.1303
18.1115
18.1137
18.1353
18.176
18.2381
18.3226
18.4375
18.5802
18.7369
18.8789
18.9345
18.6208
17.2506
14.1556
9.43497
3.95269
-1.70724
-7.42859
-13.1245
-18.6336
-23.7458
-28.2592
-32.0012
-34.8252
-36.6102
-37.2997
-36.8816
-35.3267
-32.6782
-29.0098
-24.4233
-19.0508
-13.0609
-6.67514
-0.166018
6.14849
11.9446
16.9242
20.8629
23.6579
25.3406
26.0527
25.9993
25.3976
24.4378
23.2615
21.9558
20.5582
19.0733
17.5123
15.9444
14.5052
13.329
12.4212
11.647
10.8132
9.665
7.86684
5.21845
2.00232
-0.873813
-2.15018
-0.952019
2.51638
7.05079
10.8476
12.618
12.1039
9.80537
6.53293
2.76228
-39.3791
-40.4287
-41.5437
-42.8058
-44.1155
-45.4222
-46.7111
-47.9415
-49.0304
-49.8793
-50.4344
-50.6387
-50.4545
-49.8777
-48.9195
-47.6127
-46.05
-44.4316
-43.0176
-42.0008
-41.5017
-41.6413
-42.4237
-43.724
-45.407
-47.3501
-49.4663
-51.6998
-54.0225
-56.4241
-58.903
-61.4595
-64.0916
-66.7925
-69.548
-72.335
-75.1195
-77.8554
-80.4851
-82.9404
-85.146
-87.0236
-88.4963
-89.4931
-89.9534
-89.8337
-89.1158
-87.7982
-85.8944
-83.4444
-80.5052
-77.1484
-73.4557
-69.5136
-65.4086
-61.2221
-57.0271
-52.8851
-48.8444
-44.9357
-41.1677
-37.5222
-33.9519
-30.3846
-26.735
-22.9252
-18.9092
-14.6954
-10.3566
-6.01988
-1.83699
2.05123
5.54124
8.57899
11.1561
13.2998
15.0557
16.4677
17.5864
18.4588
19.1266
19.6258
19.9871
20.2359
20.3937
20.478
20.5037
20.4829
20.4257
20.3406
20.2345
20.1131
19.981
19.842
19.6991
19.5546
19.41
19.2665
19.1246
18.9847
18.8472
18.713
18.5835
18.4615
18.3504
18.2539
18.1751
18.1163
18.0786
18.062
18.0659
18.0899
18.1341
18.2004
18.292
18.4135
18.563
18.7267
18.8689
18.8598
18.2702
16.3331
12.5803
7.40435
1.68545
-4.10011
-9.89362
-15.6071
-21.0691
-26.0805
-30.4636
-34.071
-36.7761
-38.4677
-39.0939
-38.6411
-37.0729
-34.436
-30.8024
-26.2682
-20.9573
-15.0281
-8.68756
-2.19045
4.15262
10.0065
15.0589
19.0756
21.9477
23.7056
24.4932
24.5173
23.9936
23.1068
21.9913
20.729
19.359
17.8961
16.3606
14.8132
13.3615
12.1093
11.0688
10.1326
9.1449
7.9333
6.29059
4.07832
1.4979
-0.713971
-1.48248
-0.046066
3.42807
7.8175
11.4746
13.1459
12.4549
9.86178
6.28822
2.24428
-36.6481
-37.2283
-38.1023
-39.1386
-40.2275
-41.3129
-42.3734
-43.3883
-44.3209
-45.1272
-45.7558
-46.1794
-46.3777
-46.3307
-46.0285
-45.4939
-44.8062
-44.101
-43.5467
-43.3136
-43.5301
-44.2244
-45.3396
-46.7947
-48.5142
-50.4363
-52.5219
-54.7511
-57.1174
-59.6211
-62.2642
-65.0465
-67.9631
-71.0009
-74.1369
-77.3351
-80.5453
-83.7028
-86.7294
-89.5373
-92.0339
-94.1266
-95.7283
-96.761
-97.1601
-96.885
-95.9309
-94.301
-92.0188
-89.1351
-85.7222
-81.8685
-77.6729
-73.2378
-68.6628
-64.0391
-59.4468
-54.9549
-50.6212
-46.4898
-42.5833
-38.894
-35.3764
-31.9471
-28.4951
-24.9039
-21.0823
-16.9965
-12.693
-8.29793
-3.9837
0.0789865
3.75892
6.98295
9.73468
12.0325
13.9172
15.4404
16.6554
17.6122
18.3549
18.9214
19.3433
19.6472
19.855
19.985
20.0522
20.0692
20.0465
19.9926
19.9146
19.8187
19.7095
19.5911
19.4666
19.3387
19.2091
19.0792
18.9501
18.8226
18.6975
18.576
18.4597
18.3508
18.252
18.1663
18.0963
18.0442
18.0114
17.9984
18.0056
18.0329
18.0809
18.1513
18.2474
18.3725
18.5248
18.6899
18.8162
18.7061
17.823
15.4057
11.1702
5.68675
-0.192157
-6.08857
-11.9551
-17.687
-23.1069
-28.0363
-32.3154
-35.8169
-38.4304
-40.0551
-40.6396
-40.1643
-38.5946
-35.9807
-32.3954
-27.9332
-22.7061
-16.8588
-10.5827
-4.12275
2.21404
8.08729
13.1751
17.2358
20.1567
21.9688
22.8184
22.9135
22.4668
21.6559
20.6064
19.3935
18.0553
16.6117
15.0889
13.5434
12.0644
10.7394
9.59108
8.54251
7.46851
6.24872
4.77334
2.99638
1.09167
-0.389573
-0.616936
1.01872
4.37226
8.47273
11.8542
13.3249
12.5084
9.76994
5.99608
1.73626
-31.8034
-32.3065
-33.1063
-34.1003
-35.1698
-36.2445
-37.2908
-38.291
-39.2346
-40.1093
-40.8912
-41.5468
-42.0456
-42.3683
-42.5181
-42.5329
-42.4942
-42.5225
-42.7488
-43.2696
-44.1184
-45.2743
-46.6984
-48.3513
-50.2011
-52.2288
-54.4285
-56.8035
-59.3617
-62.1117
-65.0598
-68.2064
-71.5432
-75.0501
-78.6924
-82.4186
-86.1599
-89.8312
-93.3341
-96.5618
-99.406
-101.763
-103.537
-104.644
-105.011
-104.598
-103.411
-101.448
-98.7451
-95.3732
-91.4255
-87.0141
-82.2614
-77.2911
-72.2188
-67.1434
-62.1442
-57.285
-52.6218
-48.2064
-44.0792
-40.2522
-36.6921
-33.3151
-29.9934
-26.5794
-22.9419
-19.0051
-14.7822
-10.3867
-6.00038
-1.81591
2.01429
5.39686
8.29804
10.7305
12.7343
14.3626
15.671
16.7115
17.5297
18.1648
18.6493
19.0104
19.2707
19.4487
19.5599
19.6172
19.6311
19.6107
19.5632
19.4947
19.4105
19.3147
19.2107
19.1012
18.9884
18.8739
18.7593
18.6455
18.5338
18.4254
18.322
18.2256
18.1385
18.0632
18.002
17.9569
17.9293
17.9202
17.9304
17.9603
18.0107
18.0836
18.1816
18.3072
18.4578
18.616
18.7097
18.4821
17.3406
14.5732
10.0309
4.36248
-1.63009
-7.62631
-13.5621
-19.3136
-24.7006
-29.5618
-33.7594
-37.1817
-39.7284
-41.3063
-41.8626
-41.3785
-39.8226
-37.2479
-33.7246
-29.3435
-24.2109
-18.4608
-12.2713
-5.87859
0.414037
6.26335
11.342
15.4048
18.339
20.1781
21.0714
21.227
20.8524
20.1161
19.1328
17.9692
16.66
15.2275
13.702
12.1388
10.6186
9.22015
7.9782
6.84952
5.74203
4.5686
3.2778
1.89172
0.587724
-0.222057
0.0534448
1.85125
5.0344
8.78845
11.8509
13.1153
12.2375
9.4929
5.64042
1.25267
-25.5226
-26.0185
-26.8323
-27.8696
-29.019
-30.1963
-31.3546
-32.4769
-33.5567
-34.5761
-35.5159
-36.3567
-37.0884
-37.7183
-38.277
-38.8211
-39.4258
-40.166
-41.0949
-42.233
-43.5762
-45.1104
-46.8215
-48.7008
-50.7481
-52.9721
-55.3879
-58.0138
-60.8682
-63.9666
-67.3183
-70.9237
-74.7704
-78.8304
-83.0576
-87.3865
-91.7319
-95.9903
-100.043
-103.765
-107.028
-109.715
-111.718
-112.939
-113.302
-112.772
-111.348
-109.035
-105.885
-101.986
-97.4528
-92.4231
-87.0492
-81.4855
-75.8742
-70.3303
-64.9323
-59.7286
-54.7562
-50.0589
-45.6865
-41.6716
-37.9992
-34.5934
-31.321
-28.014
-24.512
-20.7061
-16.5774
-12.2213
-7.81182
-3.55303
0.381422
3.8802
6.89689
9.43806
11.5423
13.263
14.6566
15.7756
16.6666
17.369
17.916
18.3349
18.6487
18.876
19.0327
19.1318
19.1841
19.1988
19.1834
19.1443
19.0868
19.0152
18.9332
18.8438
18.7494
18.6519
18.5529
18.4539
18.3564
18.2616
18.1713
18.0873
18.0116
17.9464
17.8938
17.8555
17.833
17.8277
17.8406
17.8725
17.9244
17.9978
18.0948
18.2166
18.3592
18.5005
18.5492
18.2107
16.8801
13.9048
9.20891
3.45116
-2.61904
-8.69078
-14.6712
-20.4268
-25.7854
-30.5972
-34.7393
-38.1103
-40.6147
-42.1625
-42.7023
-42.2185
-40.6875
-38.1637
-34.7136
-30.4247
-25.3993
-19.7624
-13.6813
-7.38608
-1.17708
4.60173
9.62194
13.6396
16.5465
18.3812
19.2963
19.4983
19.1872
18.5195
17.5967
16.4754
15.1852
13.7492
12.2016
10.5997
9.02254
7.54799
6.22336
5.03686
3.93174
2.8478
1.76341
0.732098
-0.0739807
-0.338274
0.344538
2.25389
5.24949
8.65991
11.4234
12.5402
11.6668
9.02228
5.21803
0.809521
-18.3971
-18.8696
-19.6634
-20.6988
-21.884
-23.1402
-24.4174
-25.6857
-26.9227
-28.113
-29.2559
-30.3576
-31.4329
-32.5062
-33.6099
-34.7783
-36.0397
-37.4111
-38.8984
-40.5015
-42.2205
-44.0586
-46.0246
-48.1334
-50.4067
-52.8706
-55.5537
-58.4843
-61.6884
-65.1859
-68.9885
-73.0953
-77.4906
-82.1404
-86.9902
-91.9626
-96.9566
-101.848
-106.493
-110.74
-114.438
-117.453
-119.672
-120.994
-121.346
-120.71
-119.082
-116.465
-112.915
-108.529
-103.438
-97.8019
-91.7997
-85.62
-79.4419
-73.4117
-67.6186
-62.0976
-56.8586
-51.9221
-47.3307
-43.1279
-39.316
-35.8306
-32.5436
-29.2787
-25.8578
-22.1437
-18.0921
-13.7769
-9.36786
-5.07511
-1.08414
2.48303
5.57374
8.1907
10.3706
12.1658
13.6319
14.821
15.7793
16.5458
17.1534
17.6294
17.9965
18.2736
18.4765
18.6183
18.7101
18.7611
18.7791
18.7705
18.741
18.695
18.6364
18.5684
18.4936
18.4142
18.332
18.2488
18.166
18.0853
18.0081
17.9364
17.8719
17.8165
17.7721
17.7405
17.723
17.7212
17.7362
17.7691
17.8208
17.8924
17.9851
18.0986
18.2268
18.3425
18.3413
17.9152
16.477
13.4251
8.70549
2.94123
-3.16079
-9.27205
-15.2681
-21.0106
-26.3378
-31.1067
-35.204
-38.5341
-41.0076
-42.5412
-43.0838
-42.6174
-41.1272
-38.6683
-35.3046
-31.1203
-26.2144
-20.7056
-14.7543
-8.58659
-2.50135
3.15861
8.06839
11.9911
14.8274
16.6238
17.5364
17.7678
17.5076
16.8972
16.0231
14.9298
13.6413
12.1807
10.5869
8.92236
7.27028
5.7146
4.31558
3.08913
2.01122
1.04773
0.19199
-0.499561
-0.879997
-0.711615
0.276874
2.24478
5.04673
8.13662
10.6377
11.6638
10.8557
8.38554
4.74251
0.424003
-11.2426
-11.6381
-12.3271
-13.2549
-14.3683
-15.612
-16.9353
-18.3093
-19.7141
-21.1525
-22.6329
-24.1654
-25.7583
-27.4149
-29.1319
-30.9009
-32.712
-34.5582
-36.4398
-38.365
-40.3494
-42.4147
-44.5883
-46.9024
-49.3925
-52.0957
-55.0494
-58.2886
-61.8437
-65.7376
-69.9825
-74.5774
-79.5043
-84.7252
-90.1783
-95.7739
-101.391
-106.88
-112.065
-116.765
-120.811
-124.068
-126.431
-127.816
-128.157
-127.46
-125.69
-122.848
-118.994
-114.229
-108.695
-102.566
-96.0406
-89.3299
-82.6455
-76.1694
-70.0155
-64.2182
-58.7662
-53.6512
-48.8948
-44.5375
-40.5968
-37.0222
-33.6888
-30.4187
-27.0202
-23.3417
-19.326
-15.038
-10.6444
-6.35437
-2.35407
1.23352
4.35505
7.01211
9.23988
11.0888
12.6125
13.8614
14.8797
15.7056
16.3707
16.9018
17.3213
17.6478
17.8969
18.0817
18.2135
18.3015
18.3537
18.3766
18.376
18.3566
18.3224
18.2768
18.2227
18.1623
18.0978
18.031
17.9635
17.8971
17.8332
17.7736
17.7201
17.6743
17.638
17.6127
17.5999
17.601
17.6173
17.6499
17.6996
17.767
17.8522
17.953
18.061
18.1448
18.0951
17.6121
16.1453
13.1331
8.5059
2.81983
-3.25755
-9.36829
-15.3526
-21.0653
-26.3521
-31.0771
-35.1325
-38.4273
-40.8794
-42.411
-42.9698
-42.5342
-41.0985
-38.7179
-35.4532
-31.3859
-26.6121
-21.2464
-15.4459
-9.43589
-3.51513
1.97681
6.72348
10.5008
13.2233
14.9474
15.8321
16.0738
15.8481
15.2786
14.4345
13.3477
12.036
10.5234
8.85436
7.10012
5.35266
3.70753
2.23924
0.988878
-0.040844
-0.861726
-1.47164
-1.82616
-1.81831
-1.28497
-0.0575694
1.93643
4.55005
7.34462
9.6112
10.5828
9.88657
7.63934
4.24262
0.114274
-4.96713
-5.24562
-5.76897
-6.51925
-7.48372
-8.62539
-9.92897
-11.3854
-12.9946
-14.7568
-16.6657
-18.7046
-20.8443
-23.0464
-25.2706
-27.4834
-29.6647
-31.8107
-33.933
-36.0543
-38.2058
-40.424
-42.7492
-45.2244
-47.8937
-50.8013
-53.9896
-57.4976
-61.3579
-65.5946
-70.2204
-75.2338
-80.6155
-86.3241
-92.2898
-98.4079
-104.536
-110.495
-116.083
-121.098
-125.363
-128.748
-131.167
-132.559
-132.878
-132.14
-130.284
-127.314
-123.285
-118.297
-112.496
-106.068
-99.2179
-92.1705
-85.1537
-78.3707
-71.9583
-65.9654
-60.3713
-55.1437
-50.2838
-45.8253
-41.7907
-38.1392
-34.7481
-31.4362
-28.008
-24.3117
-20.2919
-16.0153
-11.6473
-7.39097
-3.42366
0.139694
3.25103
5.91376
8.16214
10.0441
11.6101
12.9074
13.9779
14.8573
15.576
16.1596
16.6297
17.0043
17.299
17.5267
17.6986
17.8239
17.9106
17.9655
17.9945
18.0024
17.9934
17.9711
17.9383
17.8977
17.8515
17.8016
17.7498
17.6978
17.6473
17.5998
17.5571
17.5206
17.492
17.4727
17.464
17.4674
17.4841
17.5151
17.561
17.6218
17.6963
17.7807
17.8642
17.9128
17.8205
17.3113
15.8847
13.0128
8.58491
3.06574
-2.92179
-8.9868
-14.9293
-20.5934
-25.8294
-30.5072
-34.5221
-37.7862
-40.2213
-41.7542
-42.3352
-41.9411
-40.5722
-38.2822
-35.1289
-31.1909
-26.5616
-21.3541
-15.726
-9.9051
-4.19058
1.08389
5.61568
9.19937
11.7672
13.3872
14.2194
14.451
14.2401
13.6897
12.8505
11.7416
10.375
8.77668
6.99908
5.12488
3.25931
1.51342
-0.0218886
-1.2821
-2.24368
-2.90304
-3.25453
-3.27112
-2.89118
-2.02332
-0.583738
1.43434
3.88397
6.41605
8.472
9.40733
8.84992
6.85447
3.75849
-0.0993159
-0.221628
-0.373613
-0.712237
-1.26245
-2.03691
-3.04527
-4.31263
-5.85091
-7.66151
-9.72882
-12.0168
-14.4693
-17.0174
-19.5905
-22.1296
-24.596
-26.975
-29.2737
-31.5155
-33.7353
-35.9749
-38.2802
-40.6993
-43.2812
-46.0749
-49.1285
-52.487
-56.1906
-60.2725
-64.7565
-69.6548
-74.9653
-80.6668
-86.7138
-93.0281
-99.492
-105.945
-112.189
-118.005
-123.18
-127.533
-130.96
-133.376
-134.759
-135.094
-134.376
-132.532
-129.562
-125.508
-120.466
-114.587
-108.058
-101.093
-93.9172
-86.7616
-79.8411
-73.3113
-67.2316
-61.5784
-56.3078
-51.4102
-46.9135
-42.8366
-39.1354
-35.6851
-32.3042
-28.8037
-25.0453
-20.9899
-16.7151
-12.3859
-8.19377
-4.29866
-0.799885
2.26458
4.90212
7.14637
9.04206
10.6356
11.9702
13.0842
14.0108
14.7782
15.4106
15.9286
16.3495
16.6885
16.9582
17.1695
17.3318
17.4532
17.5404
17.5993
17.6349
17.6515
17.6529
17.642
17.6217
17.5941
17.5615
17.5257
17.4883
17.4511
17.4157
17.3835
17.3561
17.3348
17.3211
17.3161
17.3211
17.3371
17.3652
17.4055
17.4574
17.5187
17.5841
17.6404
17.6534
17.5257
17.0162
15.684
13.0345
8.90249
3.6425
-2.17948
-8.1448
-14.0106
-19.6044
-24.7769
-29.4011
-33.3732
-36.606
-39.0243
-40.5606
-41.1693
-40.8255
-39.5335
-37.3447
-34.3136
-30.5157
-26.0429
-21.0091
-15.5763
-9.97756
-4.5123
0.495539
4.76283
8.10805
10.4843
11.9713
12.7279
12.9281
12.7093
12.1517
11.2867
10.1209
8.662
6.93967
5.01652
2.98983
0.981624
-0.878526
-2.48057
-3.73935
-4.61382
-5.0929
-5.17404
-4.85048
-4.10484
-2.9116
-1.25943
0.805658
3.13577
5.45291
7.32828
8.2381
7.83011
6.10115
3.33516
-0.195212
2.95079
2.90378
2.7392
2.3758
1.78407
0.894541
-0.333515
-1.92142
-3.86432
-6.12688
-8.64427
-11.3302
-14.0913
-16.8427
-19.5218
-22.0937
-24.5506
-26.9073
-29.1942
-31.452
-33.7286
-36.0738
-38.5392
-41.1768
-44.0371
-47.1699
-50.6221
-54.4342
-58.6384
-63.2576
-68.3025
-73.7696
-79.6358
-85.8522
-92.3361
-98.9634
-105.567
-111.942
-117.869
-123.13
-127.545
-130.991
-133.412
-134.798
-135.147
-134.442
-132.606
-129.655
-125.63
-120.626
-114.792
-108.319
-101.417
-94.3094
-87.2234
-80.3736
-73.9129
-67.896
-62.2973
-57.0735
-52.2174
-47.7544
-43.6932
-39.9764
-36.4705
-32.9971
-29.3851
-25.5255
-21.4104
-17.1366
-12.8675
-8.77508
-4.99344
-1.59931
1.38318
3.96663
6.18379
8.07528
9.68237
11.0434
12.1927
13.1599
13.9711
14.6486
15.2117
15.677
16.0589
16.3698
16.6202
16.8196
16.9757
17.0955
17.1848
17.2488
17.2918
17.3176
17.3293
17.3299
17.3217
17.307
17.2875
17.2651
17.2414
17.2181
17.1965
17.178
17.1639
17.1554
17.1536
17.1595
17.1741
17.198
17.231
17.2721
17.318
17.3621
17.39
17.3685
17.2128
16.7219
15.5206
13.1536
9.40195
4.49918
-1.06499
-6.86042
-12.6034
-18.0979
-23.1882
-27.7465
-31.6682
-34.8662
-37.268
-38.8105
-39.4516
-39.1653
-37.9589
-35.881
-32.9826
-29.3359
-25.0324
-20.1902
-14.9793
-9.64018
-4.47097
0.21901
4.17218
7.2356
9.38525
10.7113
11.3686
11.5142
11.2613
10.6658
9.73934
8.47719
6.8846
4.99678
2.88895
0.675873
-1.50039
-3.48925
-5.15927
-6.40741
-7.17662
-7.45511
-7.25034
-6.57959
-5.46726
-3.94565
-2.06505
0.0846394
2.35267
4.51506
6.25048
7.14844
6.89361
5.43782
3.0147
-0.15357
4.63706
4.63957
4.566
4.35918
3.90239
3.12434
1.97075
0.415052
-1.5345
-3.83211
-6.39901
-9.13596
-11.9409
-14.7258
-17.4287
-20.0169
-22.4853
-24.85
-27.1427
-29.4012
-31.6785
-34.0236
-36.4892
-39.1284
-41.9927
-45.1303
-48.5853
-52.3966
-56.5947