/*--------------------------------*- C++ -*----------------------------------*\
  =========                 |
  \\      /  F ield         | OpenFOAM: The Open Source CFD Toolbox
   \\    /   O peration     | Website:  https://openfoam.org
    \\  /    A nd           | Version:  9
     \\/     M anipulation  |
\*---------------------------------------------------------------------------*/
FoamFile
{
    format      ascii;
    class       surfaceScalarField;
    location    "0.006";
    object      phi;
}
// * * * * * * * * * * * * * * * * * * * * * * * * * * * * * * * * * * * * * //

dimensions      [0 3 -1 0 0 0 0];

internalField   nonuniform List<scalar> 
24170
(
3.14381e-06
6.63473e-08
3.02859e-06
1.15226e-07
2.9177e-06
1.10886e-07
2.82138e-06
9.63248e-08
2.7304e-06
9.09742e-08
2.63545e-06
9.49499e-08
2.54177e-06
9.36832e-08
2.45968e-06
8.2085e-08
2.39409e-06
6.55952e-08
2.33827e-06
5.58212e-08
2.28527e-06
5.29982e-08
2.22917e-06
5.60985e-08
2.17442e-06
5.475e-08
2.12587e-06
4.85466e-08
2.08537e-06
4.05009e-08
2.05464e-06
3.07324e-08
2.03325e-06
2.13955e-08
1.965e-08
2.0136e-06
3.43498e-06
1.27684e-07
3.40865e-06
1.41557e-07
3.39944e-06
1.20101e-07
3.40702e-06
8.87438e-08
3.42852e-06
6.94764e-08
3.45266e-06
7.08098e-08
3.47094e-06
7.54008e-08
3.4804e-06
7.26246e-08
3.48036e-06
6.56338e-08
3.4714e-06
6.47865e-08
3.45517e-06
6.92262e-08
3.43584e-06
7.54294e-08
3.41638e-06
7.42069e-08
3.40236e-06
6.25668e-08
3.39396e-06
4.8896e-08
3.39272e-06
3.19812e-08
3.39705e-06
1.70651e-08
2.76904e-09
3.41393e-06
3.70662e-06
8.98888e-08
3.71769e-06
1.30481e-07
3.71383e-06
1.23961e-07
3.71746e-06
8.51224e-08
3.73518e-06
5.175e-08
3.76096e-06
4.50361e-08
3.78439e-06
5.19711e-08
3.79803e-06
5.89781e-08
3.79944e-06
6.4224e-08
3.79179e-06
7.24406e-08
3.77951e-06
8.15001e-08
3.76882e-06
8.61183e-08
3.76188e-06
8.11543e-08
3.76053e-06
6.39182e-08
3.76564e-06
4.378e-08
3.77581e-06
2.18173e-08
3.79031e-06
2.5588e-09
-1.48923e-08
3.80797e-06
4.01654e-06
3.09931e-08
4.03683e-06
1.10185e-07
4.02348e-06
1.37315e-07
4.00375e-06
1.04849e-07
3.98087e-06
7.4637e-08
3.95906e-06
6.68453e-08
3.9444e-06
6.66231e-08
3.94178e-06
6.16028e-08
3.95225e-06
5.37539e-08
3.97367e-06
5.10198e-08
4.00113e-06
5.40386e-08
4.02995e-06
5.72966e-08
4.05565e-06
5.54628e-08
4.07485e-06
4.47137e-08
4.08777e-06
3.08614e-08
4.09454e-06
1.50427e-08
4.09798e-06
-8.78122e-10
-1.44708e-08
4.09756e-06
4.3372e-06
1.04531e-07
4.2913e-06
1.56086e-07
4.25655e-06
1.72067e-07
4.23478e-06
1.26619e-07
4.21155e-06
9.78613e-08
4.19279e-06
8.56088e-08
4.189e-06
7.04153e-08
4.20155e-06
4.9047e-08
4.22371e-06
3.16013e-08
4.24813e-06
2.65915e-08
4.27052e-06
3.16481e-08
4.28969e-06
3.81271e-08
4.3057e-06
3.94554e-08
4.31787e-06
3.25458e-08
4.32788e-06
2.08535e-08
4.33503e-06
7.88724e-09
4.33996e-06
-5.80128e-09
-1.69033e-08
4.34239e-06
4.50033e-06
2.85038e-08
4.51611e-06
1.40313e-07
4.50724e-06
1.80936e-07
4.5045e-06
1.29352e-07
4.52028e-06
8.20885e-08
4.54657e-06
5.93148e-08
4.56837e-06
4.86163e-08
4.5786e-06
3.88142e-08
4.57923e-06
3.09703e-08
4.5765e-06
2.93287e-08
4.57524e-06
3.29077e-08
4.57662e-06
3.67477e-08
4.57918e-06
3.6887e-08
4.58041e-06
3.13249e-08
4.58e-06
2.12626e-08
4.57866e-06
9.22521e-09
4.57778e-06
-4.92523e-09
-1.64716e-08
4.57735e-06
4.90838e-06
-8.38274e-09
4.87635e-06
1.72343e-07
4.86772e-06
1.89571e-07
4.87588e-06
1.21187e-07
4.89442e-06
6.35472e-08
4.91176e-06
4.19814e-08
4.91661e-06
4.37661e-08
4.90681e-06
4.86082e-08
4.88927e-06
4.85112e-08
4.87357e-06
4.50331e-08
4.86599e-06
4.04875e-08
4.8676e-06
3.51347e-08
4.87637e-06
2.81191e-08
4.88903e-06
1.86578e-08
4.90333e-06
6.97192e-09
4.91781e-06
-5.25547e-09
4.932e-06
-1.91183e-08
-3.04765e-08
4.946e-06
5.09637e-06
-4.98279e-08
5.16373e-06
1.04987e-07
5.20421e-06
1.49085e-07
5.22999e-06
9.54117e-08
5.2515e-06
4.20305e-08
5.26488e-06
2.86059e-08
5.26903e-06
3.96138e-08
5.26929e-06
4.83496e-08
5.27268e-06
4.51229e-08
5.28253e-06
3.51788e-08
5.29655e-06
2.64712e-08
5.30933e-06
2.23529e-08
5.31674e-06
2.07093e-08
5.31795e-06
1.74527e-08
5.31564e-06
9.27591e-09
5.31348e-06
-3.08927e-09
5.31197e-06
-1.7607e-08
-3.21258e-08
5.31361e-06
5.5886e-06
-1.24899e-08
5.61408e-06
7.9507e-08
5.63168e-06
1.31493e-07
5.64887e-06
7.82131e-08
5.68169e-06
9.21291e-09
5.7146e-06
-4.3019e-09
5.7269e-06
2.73099e-08
5.71303e-06
6.22213e-08
5.68453e-06
7.36243e-08
5.65809e-06
6.16181e-08
5.6446e-06
3.99664e-08
5.64663e-06
2.03191e-08
5.66097e-06
6.36486e-09
5.68198e-06
-3.5585e-09
5.70478e-06
-1.35148e-08
5.72532e-06
-2.36357e-08
5.74316e-06
-3.54493e-08
-4.67627e-08
5.7578e-06
6.05745e-06
3.85486e-08
6.05743e-06
7.95303e-08
6.09252e-06
9.64072e-08
6.08651e-06
8.42149e-08
6.04926e-06
4.64638e-08
6.02462e-06
2.03396e-08
6.03353e-06
1.83974e-08
6.06615e-06
2.96041e-08
6.10363e-06
3.61455e-08
6.13257e-06
3.26776e-08
6.1471e-06
2.54347e-08
6.14709e-06
2.03316e-08
6.13677e-06
1.66892e-08
6.12189e-06
1.13164e-08
6.10793e-06
4.4243e-10
6.09775e-06
-1.34528e-08
6.0942e-06
-3.18951e-08
-5.00848e-08
6.09752e-06
6.43816e-06
1.52122e-09
6.43436e-06
8.33246e-08
6.39853e-06
1.32239e-07
6.37465e-06
1.08094e-07
6.35768e-06
6.34367e-08
6.34635e-06
3.16682e-08
6.34895e-06
1.58014e-08
6.37143e-06
7.12131e-09
6.41014e-06
-2.56246e-09
6.45457e-06
-1.17553e-08
6.49283e-06
-1.2824e-08
6.51634e-06
-3.18079e-09
6.52236e-06
1.06698e-08
6.51319e-06
2.04895e-08
6.4951e-06
1.85313e-08
6.4774e-06
4.24376e-09
6.46567e-06
-2.01567e-08
-4.81698e-08
6.46375e-06
5.82668e-06
1.80327e-07
5.73195e-06
1.78053e-07
5.75704e-06
1.07147e-07
5.8165e-06
4.86357e-08
5.85172e-06
2.82131e-08
5.85514e-06
2.82496e-08
5.84563e-06
2.53107e-08
5.84304e-06
9.71255e-09
5.85235e-06
-1.18669e-08
5.86781e-06
-2.72167e-08
5.88246e-06
-2.74819e-08
5.89437e-06
-1.50813e-08
5.90458e-06
4.54058e-10
5.91616e-06
8.90674e-09
5.92988e-06
4.81657e-09
5.9434e-06
-9.28226e-09
5.95279e-06
-2.95447e-08
-5.08289e-08
5.95545e-06
7.00804e-06
1.4531e-07
7.05189e-06
1.34208e-07
7.08043e-06
7.86069e-08
7.09302e-06
3.60424e-08
7.09115e-06
3.00813e-08
7.08277e-06
3.66345e-08
7.07355e-06
3.45336e-08
7.06613e-06
1.7125e-08
7.06008e-06
-5.80947e-09
7.05638e-06
-2.35168e-08
7.05725e-06
-2.83568e-08
7.0638e-06
-2.16251e-08
7.07476e-06
-1.05117e-08
7.08641e-06
-2.7376e-09
7.09527e-06
-4.05309e-09
7.09966e-06
-1.36658e-08
7.10299e-06
-3.28769e-08
-5.50627e-08
7.10722e-06
8.54776e-06
1.03669e-07
8.55259e-06
1.29384e-07
8.56089e-06
7.03003e-08
8.59254e-06
4.39284e-09
8.65922e-06
-3.65948e-08
8.72821e-06
-3.23584e-08
8.76462e-06
-1.87303e-09
8.75732e-06
2.44251e-08
8.71405e-06
3.74545e-08
8.65474e-06
3.57991e-08
8.59747e-06
2.89118e-08
8.55273e-06
2.31149e-08
8.52408e-06
1.81357e-08
8.51051e-06
1.08381e-08
8.51019e-06
-3.736e-09
8.52161e-06
-2.5087e-08
8.54359e-06
-5.48611e-08
-8.7121e-08
8.57565e-06
1.02982e-05
-1.00981e-07
1.05105e-05
-8.29211e-08
1.06424e-05
-6.16303e-08
1.07181e-05
-7.13263e-08
1.07204e-05
-3.88158e-08
1.06614e-05
2.66343e-08
1.05795e-05
7.99552e-08
1.05084e-05
9.55706e-08
1.04675e-05
7.83227e-08
1.04558e-05
4.75527e-08
1.04637e-05
2.09922e-08
1.04817e-05
5.05744e-09
1.05044e-05
-4.5521e-09
1.05312e-05
-1.59387e-08
1.05603e-05
-3.28694e-08
1.05924e-05
-5.70937e-08
1.06233e-05
-8.58121e-08
-1.15941e-07
1.06521e-05
1.25723e-05
-8.58623e-08
1.2567e-05
-7.76615e-08
1.26371e-05
-1.31715e-07
1.27337e-05
-1.67966e-07
1.28107e-05
-1.15762e-07
1.2842e-05
-4.65175e-09
1.28461e-05
7.58704e-08
1.28312e-05
1.10386e-07
1.28169e-05
9.26927e-08
1.28151e-05
4.93137e-08
1.28317e-05
4.36698e-09
1.28671e-05
-3.02724e-08
1.2917e-05
-5.4471e-08
1.29726e-05
-7.16e-08
1.30244e-05
-8.45834e-08
1.30637e-05
-9.64696e-08
1.30859e-05
-1.08005e-07
-1.20887e-07
1.30909e-05
1.56731e-05
-1.45664e-09
1.56825e-05
-8.71002e-08
1.56259e-05
-7.5161e-08
1.54735e-05
-1.55483e-08
1.5319e-05
3.87424e-08
1.52609e-05
5.34433e-08
1.53016e-05
3.5236e-08
1.5408e-05
3.95619e-09
1.55186e-05
-1.79344e-08
1.56008e-05
-3.28705e-08
1.56475e-05
-4.23231e-08
1.56669e-05
-4.96664e-08
1.56711e-05
-5.86498e-08
1.56705e-05
-7.1078e-08
1.56726e-05
-8.65941e-08
1.568e-05
-1.03905e-07
1.56934e-05
-1.21414e-07
-1.37516e-07
1.571e-05
1.878e-05
4.93e-08
1.88054e-05
-1.12525e-07
1.88994e-05
-1.69143e-07
1.89357e-05
-5.18373e-08
1.89229e-05
5.15025e-08
1.88957e-05
8.06755e-08
1.888e-05
5.09195e-08
1.88799e-05
3.99528e-09
1.89053e-05
-4.33033e-08
1.89411e-05
-6.86537e-08
1.89773e-05
-7.85032e-08
1.90083e-05
-8.06764e-08
1.90314e-05
-8.17554e-08
1.90464e-05
-8.60726e-08
1.90544e-05
-9.46119e-08
1.9057e-05
-1.06505e-07
1.9055e-05
-1.19372e-07
-1.32299e-07
1.90497e-05
2.31082e-05
-7.19705e-08
2.30162e-05
-2.05128e-08
2.29223e-05
-7.52415e-08
2.2997e-05
-1.26521e-07
2.31561e-05
-1.07648e-07
2.32905e-05
-5.36891e-08
2.33508e-05
-9.39687e-09
2.33504e-05
4.37572e-09
2.33214e-05
-1.43131e-08
2.33066e-05
-5.38265e-08
2.33215e-05
-9.33691e-08
2.33595e-05
-1.18658e-07
2.34038e-05
-1.26147e-07
2.34376e-05
-1.19838e-07
2.34493e-05
-1.06313e-07
2.34362e-05
-9.3406e-08
2.34014e-05
-8.45821e-08
-8.45197e-08
2.33536e-05
1.67683e-05
-2.08855e-07
1.68768e-05
-1.28998e-07
1.68499e-05
-4.83258e-08
1.67645e-05
-4.11396e-08
1.66983e-05
-4.14682e-08
1.66773e-05
-3.26494e-08
1.66898e-05
-2.19005e-08
1.67119e-05
-1.77339e-08
1.67247e-05
-2.7138e-08
1.6724e-05
-5.30831e-08
1.67204e-05
-8.97999e-08
1.67264e-05
-1.24639e-07
1.67466e-05
-1.46389e-07
1.67775e-05
-1.50687e-07
1.6811e-05
-1.39837e-07
1.68394e-05
-1.2177e-07
1.68578e-05
-1.03045e-07
-9.07364e-08
1.6864e-05
1.42652e-05
-2.32313e-07
1.43278e-05
-1.91611e-07
1.43769e-05
-9.73542e-08
1.4413e-05
-7.72204e-08
1.44621e-05
-9.0602e-08
1.45269e-05
-9.74516e-08
1.45883e-05
-8.3335e-08
1.4621e-05
-5.04529e-08
1.46108e-05
-1.6865e-08
1.45618e-05
-4.15602e-09
1.44897e-05
-1.76658e-08
1.44134e-05
-4.83086e-08
1.43506e-05
-8.35937e-08
1.43135e-05
-1.13559e-07
1.4306e-05
-1.32377e-07
1.43242e-05
-1.40009e-07
1.436e-05
-1.38791e-07
-1.32282e-07
1.44015e-05
1.27729e-05
-6.50552e-08
1.26646e-05
-8.32424e-08
1.26634e-05
-9.61542e-08
1.26952e-05
-1.09085e-07
1.27236e-05
-1.18944e-07
1.27397e-05
-1.13594e-07
1.27368e-05
-8.03922e-08
1.27183e-05
-3.19642e-08
1.26946e-05
6.75776e-09
1.26762e-05
1.42609e-08
1.26667e-05
-8.16752e-09
1.26646e-05
-4.61821e-08
1.26648e-05
-8.38101e-08
1.26635e-05
-1.12272e-07
1.26608e-05
-1.2969e-07
1.26592e-05
-1.384e-07
1.26626e-05
-1.4214e-07
-1.43224e-07
1.26735e-05
1.13905e-05
-2.75631e-08
1.12748e-05
3.25167e-08
1.11912e-05
-1.25966e-08
1.11213e-05
-3.91159e-08
1.10558e-05
-5.34869e-08
1.10174e-05
-7.5206e-08
1.10212e-05
-8.41602e-08
1.10562e-05
-6.69781e-08
1.10992e-05
-3.62044e-08
1.11291e-05
-1.56672e-08
1.11383e-05
-1.73429e-08
1.11301e-05
-3.80446e-08
1.11143e-05
-6.80148e-08
1.10995e-05
-9.74121e-08
1.1091e-05
-1.21224e-07
1.10905e-05
-1.37875e-07
1.10976e-05
-1.49281e-07
-1.57088e-07
1.11115e-05
9.31845e-06
-3.62704e-07
9.45626e-06
-1.05294e-07
9.47043e-06
-2.67723e-08
9.48344e-06
-5.21271e-08
9.51186e-06
-8.19017e-08
9.53869e-06
-1.02038e-07
9.56305e-06
-1.0852e-07
9.5948e-06
-9.87264e-08
9.63613e-06
-7.75356e-08
9.67605e-06
-5.55904e-08
9.70026e-06
-4.15493e-08
9.70079e-06
-3.85714e-08
9.67878e-06
-4.60086e-08
9.64167e-06
-6.03028e-08
9.59891e-06
-7.84672e-08
9.55846e-06
-9.74237e-08
9.52544e-06
-1.1626e-07
-1.33692e-07
9.50204e-06
8.28372e-06
-1.74756e-07
8.32289e-06
-1.44468e-07
8.38101e-06
-8.48873e-08
8.42394e-06
-9.50584e-08
8.44676e-06
-1.04721e-07
8.44076e-06
-9.6037e-08
8.41475e-06
-8.2516e-08
8.38781e-06
-7.17827e-08
8.37573e-06
-6.54592e-08
8.38403e-06
-6.38846e-08
8.40871e-06
-6.62315e-08
8.44031e-06
-7.01687e-08
8.46817e-06
-7.38694e-08
8.48373e-06
-7.5869e-08
8.48288e-06
-7.76165e-08
8.46652e-06
-8.10648e-08
8.43866e-06
-8.83938e-08
-1.01418e-07
8.40638e-06
7.48339e-06
-1.21939e-07
7.42853e-06
-8.96063e-08
7.44673e-06
-1.03082e-07
7.4501e-06
-9.84291e-08
7.4162e-06
-7.08194e-08
7.38147e-06
-6.13147e-08
7.374e-06
-7.50377e-08
7.39345e-06
-9.12332e-08
7.42349e-06
-9.54991e-08
7.44854e-06
-8.894e-08
7.46108e-06
-7.87666e-08
7.46092e-06
-7.00101e-08
7.45123e-06
-6.41866e-08
7.43547e-06
-6.01005e-08
7.4151e-06
-5.72473e-08
7.39022e-06
-5.61842e-08
7.36031e-06
-5.84831e-08
-6.60965e-08
7.32498e-06
6.37738e-06
-9.47662e-08
6.41081e-06
-1.23042e-07
6.4272e-06
-1.19469e-07
6.42199e-06
-9.32222e-08
6.42805e-06
-7.68751e-08
6.44692e-06
-8.01817e-08
6.45622e-06
-8.43444e-08
6.44036e-06
-7.53674e-08
6.40316e-06
-5.83012e-08
6.35958e-06
-4.53557e-08
6.32326e-06
-4.24561e-08
6.30088e-06
-4.76247e-08
6.29236e-06
-5.56656e-08
6.29439e-06
-6.21291e-08
6.30243e-06
-6.52879e-08
6.31239e-06
-6.61457e-08
6.32031e-06
-6.64007e-08
-6.8732e-08
6.32294e-06
5.63504e-06
8.35235e-08
5.5647e-06
-5.27082e-08
5.55491e-06
-1.09676e-07
5.55213e-06
-9.04445e-08
5.55551e-06
-8.02518e-08
5.55927e-06
-8.39419e-08
5.55822e-06
-8.32974e-08
5.55499e-06
-7.21405e-08
5.55367e-06
-5.69724e-08
5.55581e-06
-4.75015e-08
5.56118e-06
-4.78211e-08
5.56933e-06
-5.57804e-08
5.5806e-06
-6.69336e-08
5.59573e-06
-7.72571e-08
5.61372e-06
-8.32788e-08
5.63204e-06
-8.44689e-08
5.64632e-06
-8.06828e-08
-7.40599e-08
5.65165e-06
4.9229e-06
-2.11488e-08
4.92876e-06
-5.85698e-08
4.88373e-06
-6.46421e-08
4.86506e-06
-7.1779e-08
4.86517e-06
-8.03572e-08
4.85939e-06
-7.81625e-08
4.84476e-06
-6.86713e-08
4.83267e-06
-6.00477e-08
4.8312e-06
-5.55031e-08
4.83851e-06
-5.48094e-08
4.84714e-06
-5.64533e-08
4.8501e-06
-5.87438e-08
4.84423e-06
-6.1064e-08
4.83034e-06
-6.3365e-08
4.81181e-06
-6.47449e-08
4.79207e-06
-6.47279e-08
4.77357e-06
-6.21882e-08
-5.773e-08
4.75724e-06
4.08996e-06
4.03139e-06
3.96674e-06
3.89496e-06
3.81461e-06
3.73645e-06
3.66777e-06
3.60773e-06
3.55222e-06
3.49741e-06
3.44096e-06
3.38222e-06
3.32115e-06
3.25779e-06
3.19304e-06
3.12831e-06
3.06613e-06
3.0084e-06
-1.33341e-07
1.33341e-07
-2.75134e-07
1.41793e-07
-4.18506e-07
1.43372e-07
-5.6381e-07
1.45304e-07
-7.10902e-07
1.47092e-07
-8.59782e-07
1.4888e-07
-1.01024e-06
1.50454e-07
-1.1619e-06
1.51662e-07
-1.31423e-06
1.52333e-07
-1.46657e-06
1.52339e-07
-1.61811e-06
1.51539e-07
-1.76795e-06
1.49847e-07
-1.91498e-06
1.47022e-07
-2.05782e-06
1.42846e-07
-2.1951e-06
1.37277e-07
-2.32536e-06
1.30261e-07
-2.44708e-06
1.21716e-07
-2.55863e-06
1.11551e-07
-2.65838e-06
9.97511e-08
-2.74468e-06
8.63047e-08
-2.81594e-06
7.12528e-08
-2.8706e-06
5.46673e-08
-2.9073e-06
3.67018e-08
-2.92491e-06
1.76059e-08
-2.92251e-06
-2.39761e-09
-2.89939e-06
-2.31263e-08
-2.85539e-06
-4.39942e-08
-2.79059e-06
-6.48007e-08
-2.70531e-06
-8.52786e-08
-2.60015e-06
-1.05159e-07
-2.47603e-06
-1.24121e-07
-2.33413e-06
-1.41903e-07
-2.17583e-06
-1.58303e-07
-2.00274e-06
-1.73088e-07
-1.81658e-06
-1.86156e-07
-1.61921e-06
-1.97372e-07
-1.4125e-06
-2.0671e-07
-1.19834e-06
-2.14166e-07
-9.78559e-07
-2.19777e-07
-7.54938e-07
-2.2362e-07
-5.29123e-07
-2.25816e-07
-3.02643e-07
-2.26479e-07
-7.69741e-08
-2.25669e-07
1.46857e-07
-2.23831e-07
3.67556e-07
-2.20699e-07
5.842e-07
-2.16644e-07
7.95996e-07
-2.11796e-07
1.00228e-06
-2.06284e-07
1.20251e-06
-2.00234e-07
1.39627e-06
-1.9376e-07
1.58324e-06
-1.86967e-07
1.76319e-06
-1.79947e-07
1.93597e-06
-1.72783e-07
2.10152e-06
-1.65547e-07
2.25982e-06
-1.58299e-07
2.41091e-06
-1.51092e-07
2.55488e-06
-1.43971e-07
2.69185e-06
-1.36971e-07
2.82197e-06
-1.30123e-07
2.94543e-06
-1.2345e-07
3.0624e-06
-1.16971e-07
3.1731e-06
-1.107e-07
3.27774e-06
-1.04648e-07
3.37656e-06
-9.88199e-08
3.46979e-06
-9.32216e-08
3.55764e-06
-8.78541e-08
3.64036e-06
-8.27173e-08
3.71817e-06
-7.78093e-08
3.79129e-06
-7.31267e-08
3.85996e-06
-6.8665e-08
3.92438e-06
-6.4419e-08
3.98476e-06
-6.03826e-08
4.04131e-06
-5.65493e-08
4.09422e-06
-5.29123e-08
4.14369e-06
-4.94643e-08
4.18988e-06
-4.61981e-08
4.23299e-06
-4.31061e-08
4.27317e-06
-4.0181e-08
4.31059e-06
-3.74151e-08
4.34539e-06
-3.48014e-08
4.37772e-06
-3.23326e-08
4.40772e-06
-3.00015e-08
4.43552e-06
-2.78014e-08
4.46125e-06
-2.57257e-08
4.48502e-06
-2.37678e-08
4.50694e-06
-2.19216e-08
4.52712e-06
-2.01812e-08
4.54566e-06
-1.85408e-08
4.56266e-06
-1.69949e-08
4.57819e-06
-1.55386e-08
4.59236e-06
-1.41663e-08
4.60523e-06
-1.28737e-08
4.61689e-06
-1.16565e-08
4.6274e-06
-1.05099e-08
4.63683e-06
-9.42944e-09
4.64524e-06
-8.413e-09
4.6527e-06
-7.45631e-09
4.65925e-06
-6.55259e-09
4.66495e-06
-5.70213e-09
4.66986e-06
-4.90633e-09
4.67401e-06
-4.15246e-09
4.67745e-06
-3.43411e-09
4.68022e-06
-2.76926e-09
4.68236e-06
-2.14884e-09
4.6839e-06
-1.53892e-09
4.68487e-06
-9.64064e-10
4.68531e-06
-4.39498e-10
4.68522e-06
9.07791e-11
4.68455e-06
6.67887e-10
4.68331e-06
1.23848e-09
4.68151e-06
1.80155e-09
4.67917e-06
2.34127e-09
4.67634e-06
2.82841e-09
4.67309e-06
3.24842e-09
4.66949e-06
3.60132e-09
4.66559e-06
3.8978e-09
4.66144e-06
4.15305e-09
4.65706e-06
4.38122e-09
4.65247e-06
4.59166e-09
4.64768e-06
4.79014e-09
4.6427e-06
4.97897e-09
4.63754e-06
5.15931e-09
4.63221e-06
5.33146e-09
4.62671e-06
5.49589e-09
4.62106e-06
5.65289e-09
4.61525e-06
5.80286e-09
4.60931e-06
5.94643e-09
4.60322e-06
6.08385e-09
4.59701e-06
6.21564e-09
4.59067e-06
6.34227e-09
4.5842e-06
6.464e-09
4.57762e-06
6.58142e-09
4.57093e-06
6.69466e-09
4.56412e-06
6.8042e-09
4.55721e-06
6.91029e-09
4.5502e-06
7.01326e-09
4.54308e-06
7.11327e-09
4.53587e-06
7.21081e-09
4.52857e-06
7.30596e-09
4.52117e-06
7.39903e-09
4.51368e-06
7.49029e-09
4.5061e-06
7.57994e-09
4.49843e-06
7.6683e-09
4.49067e-06
7.7555e-09
4.48283e-06
7.84184e-09
4.47491e-06
7.92754e-09
4.46689e-06
8.01292e-09
4.45879e-06
8.09829e-09
4.45061e-06
8.18405e-09
4.44234e-06
8.27055e-09
4.43398e-06
8.35821e-09
4.42553e-06
8.4477e-09
4.41699e-06
8.53968e-09
4.40836e-06
8.63485e-09
4.39962e-06
8.73432e-09
4.39079e-06
8.83932e-09
4.38183e-06
8.95149e-09
4.37276e-06
9.07283e-09
4.36356e-06
9.20578e-09
4.3542e-06
9.35393e-09
4.34468e-06
9.52072e-09
4.33497e-06
9.71349e-09
4.32503e-06
9.93521e-09
4.31483e-06
1.02033e-08
4.30431e-06
1.0516e-08
4.2934e-06
1.09098e-08
4.28201e-06
1.13885e-08
4.27005e-06
1.19685e-08
4.25723e-06
1.28136e-08
4.24365e-06
1.35847e-08
4.22829e-06
1.53575e-08
4.21219e-06
1.61039e-08
4.19187e-06
2.03119e-08
4.17172e-06
2.01557e-08
4.14059e-06
3.11281e-08
4.11335e-06
2.72375e-08
4.05398e-06
5.9369e-08
4.00686e-06
4.71252e-08
3.83877e-06
1.68093e-07
1.8118e-07
3.65759e-06
-1.55946e-07
2.89287e-07
-3.21187e-07
3.07034e-07
-4.86641e-07
3.08826e-07
-6.52137e-07
3.108e-07
-8.16986e-07
3.11941e-07
-9.80839e-07
3.12734e-07
-1.14324e-06
3.12851e-07
-1.30371e-06
3.12134e-07
-1.46179e-06
3.10411e-07
-1.61697e-06
3.07524e-07
-1.76867e-06
3.03238e-07
-1.91617e-06
2.97346e-07
-2.05876e-06
2.89613e-07
-2.19568e-06
2.79765e-07
-2.32598e-06
2.67572e-07
-2.44854e-06
2.52823e-07
-2.56215e-06
2.35333e-07
-2.66555e-06
2.14941e-07
-2.75735e-06
1.91551e-07
-2.83614e-06
1.651e-07
-2.90051e-06
1.35621e-07
-2.94911e-06
1.03272e-07
-2.98073e-06
6.83137e-08
-2.99427e-06
3.11522e-08
-2.98816e-06
-8.50566e-09
-2.96094e-06
-5.03498e-08
-2.91223e-06
-9.27044e-08
-2.84188e-06
-1.35153e-07
-2.75012e-06
-1.77032e-07
-2.63764e-06
-2.17644e-07
-2.50542e-06
-2.56344e-07
-2.35471e-06
-2.92608e-07
-2.18708e-06
-3.25937e-07
-2.0043e-06
-3.55866e-07
-1.80822e-06
-3.82234e-07
-1.60082e-06
-4.04775e-07
-1.38405e-06
-4.23482e-07
-1.15989e-06
-4.38326e-07
-9.30248e-07
-4.49415e-07
-6.96948e-07
-4.5692e-07
-4.61705e-07
-4.61059e-07
-2.25992e-07
-4.62192e-07
8.73968e-09
-4.60401e-07
2.41158e-07
-4.56249e-07
4.70344e-07
-4.49886e-07
6.95346e-07
-4.41646e-07
9.15378e-07
-4.31827e-07
1.1298e-06
-4.20703e-07
1.33809e-06
-4.08528e-07
1.53986e-06
-3.95531e-07
1.73481e-06
-3.8192e-07
1.92274e-06
-3.67876e-07
2.10352e-06
-3.53561e-07
2.27709e-06
-3.39114e-07
2.44345e-06
-3.24654e-07
2.60264e-06
-3.10283e-07
2.75475e-06
-2.96083e-07
2.8999e-06
-2.82127e-07
3.03825e-06
-2.68469e-07
3.16995e-06
-2.55156e-07
3.29521e-06
-2.42222e-07
3.4142e-06
-2.29694e-07
3.52714e-06
-2.17591e-07
3.63425e-06
-2.05926e-07
3.73573e-06
-1.94706e-07
3.83182e-06
-1.83934e-07
3.92271e-06
-1.7361e-07
4.00863e-06
-1.63728e-07
4.08978e-06
-1.54283e-07
4.16638e-06
-1.45267e-07
4.23863e-06
-1.36668e-07
4.30673e-06
-1.28477e-07
4.37086e-06
-1.2068e-07
4.43121e-06
-1.13265e-07
4.48797e-06
-1.06218e-07
4.54129e-06
-9.95254e-08
4.59136e-06
-9.31735e-08
4.63833e-06
-8.71481e-08
4.68235e-06
-8.14358e-08
4.72357e-06
-7.60226e-08
4.76213e-06
-7.08952e-08
4.79817e-06
-6.60406e-08
4.83182e-06
-6.14459e-08
4.86319e-06
-5.70987e-08
4.89241e-06
-5.2987e-08
4.91959e-06
-4.90991e-08
4.94483e-06
-4.5424e-08
4.96824e-06
-4.19507e-08
4.98991e-06
-3.86691e-08
5.00994e-06
-3.55691e-08
5.02842e-06
-3.26413e-08
5.04542e-06
-2.98767e-08
5.06103e-06
-2.72666e-08
5.07532e-06
-2.48026e-08
5.08837e-06
-2.2477e-08
5.10024e-06
-2.02827e-08
5.111e-06
-1.82116e-08
5.1207e-06
-1.62571e-08
5.12941e-06
-1.44143e-08
5.13718e-06
-1.26762e-08
5.14406e-06
-1.10338e-08
5.15012e-06
-9.48505e-09
5.15537e-06
-8.02751e-09
5.15987e-06
-6.65e-09
5.16368e-06
-5.3447e-09
5.16683e-06
-4.11337e-09
5.16935e-06
-2.95687e-09
5.1713e-06
-1.86511e-09
5.17278e-06
-8.14174e-10
5.17383e-06
1.95938e-10
5.17449e-06
1.13949e-09
5.1748e-06
2.02782e-09
5.17479e-06
2.84635e-09
5.17443e-06
3.60074e-09
5.17374e-06
4.29688e-09
5.17269e-06
4.94532e-09
5.17129e-06
5.55655e-09
5.16953e-06
6.13785e-09
5.16743e-06
6.69319e-09
5.16499e-06
7.22408e-09
5.16224e-06
7.73083e-09
5.15919e-06
8.21361e-09
5.15585e-06
8.67274e-09
5.15223e-06
9.10898e-09
5.14836e-06
9.52341e-09
5.14425e-06
9.91715e-09
5.1399e-06
1.02914e-08
5.13534e-06
1.06473e-08
5.13057e-06
1.09862e-08
5.1256e-06
1.13092e-08
5.12045e-06
1.16173e-08
5.11512e-06
1.19117e-08
5.10962e-06
1.21932e-08
5.10396e-06
1.2463e-08
5.09815e-06
1.27218e-08
5.09219e-06
1.29703e-08
5.0861e-06
1.32097e-08
5.07987e-06
1.34405e-08
5.07351e-06
1.36634e-08
5.06703e-06
1.38792e-08
5.06043e-06
1.40885e-08
5.05372e-06
1.4292e-08
5.0469e-06
1.44903e-08
5.03997e-06
1.4684e-08
5.03294e-06
1.48738e-08
5.0258e-06
1.50604e-08
5.01857e-06
1.52443e-08
5.01124e-06
1.54263e-08
5.00382e-06
1.56071e-08
4.9963e-06
1.57877e-08
4.98869e-06
1.59689e-08
4.98099e-06
1.61519e-08
4.97319e-06
1.63379e-08
4.9653e-06
1.65285e-08
4.95731e-06
1.67255e-08
4.94921e-06
1.69314e-08
4.94102e-06
1.71489e-08
4.93271e-06
1.73816e-08
4.92428e-06
1.76342e-08
4.91572e-06
1.7912e-08
4.90702e-06
1.82237e-08
4.89816e-06
1.85761e-08
4.8891e-06
1.89876e-08
4.87985e-06
1.94617e-08
4.87031e-06
2.00476e-08
4.86051e-06
2.07138e-08
4.85027e-06
2.16265e-08
4.83967e-06
2.25708e-08
4.82833e-06
2.41551e-08
4.81647e-06
2.54427e-08
4.80333e-06
2.8496e-08
4.78933e-06
3.01069e-08
4.77311e-06
3.65301e-08
4.75512e-06
3.81483e-08
4.7331e-06
5.31504e-08
4.70638e-06
5.39532e-08
4.67135e-06
9.44021e-08
4.61967e-06
9.88016e-08
4.56169e-06
2.26073e-07
2.68515e-07
4.47436e-06
-1.5209e-07
4.41377e-07
-3.13674e-07
4.68619e-07
-4.758e-07
4.70952e-07
-6.38384e-07
4.73384e-07
-8.01001e-07
4.74558e-07
-9.63499e-07
4.75232e-07
-1.12561e-06
4.74965e-07
-1.2871e-06
4.73618e-07
-1.44765e-06
4.70965e-07
-1.60685e-06
4.66726e-07
-1.76419e-06
4.60576e-07
-1.91899e-06
4.52152e-07
-2.07044e-06
4.41058e-07
-2.21756e-06
4.26883e-07
-2.35921e-06
4.09229e-07
-2.49407e-06
3.87682e-07
-2.6206e-06
3.61864e-07
-2.73713e-06
3.31466e-07
-2.84183e-06
2.9625e-07
-2.93283e-06
2.56102e-07
-3.00827e-06
2.11058e-07
-3.06632e-06
1.61322e-07
-3.10528e-06
1.07279e-07
-3.12368e-06
4.95542e-08
-3.12023e-06
-1.19591e-08
-3.09337e-06
-7.72061e-08
-3.04282e-06
-1.43254e-07
-2.96865e-06
-2.0933e-07
-2.87131e-06
-2.74368e-07
-2.75167e-06
-3.37287e-07
-2.61096e-06
-3.97058e-07
-2.45079e-06
-4.52777e-07
-2.27306e-06
-5.03667e-07
-2.07976e-06
-5.49166e-07
-1.8731e-06
-5.88889e-07
-1.6553e-06
-6.22581e-07
-1.4286e-06
-6.50179e-07
-1.19515e-06
-6.71777e-07
-9.56998e-07
-6.87565e-07
-7.16014e-07
-6.97905e-07
-4.74072e-07
-7.03e-07
-2.32691e-07
-7.03574e-07
6.88039e-09
-6.99972e-07
2.43328e-07
-6.92696e-07
4.75662e-07
-6.8222e-07
7.03043e-07
-6.69027e-07
9.24776e-07
-6.5356e-07
1.14031e-06
-6.36234e-07
1.3492e-06
-6.17425e-07
1.55115e-06
-5.97475e-07
1.74592e-06
-5.7669e-07
1.93338e-06
-5.55335e-07
2.11346e-06
-5.33645e-07
2.28617e-06
-5.1182e-07
2.45154e-06
-4.9003e-07
2.60968e-06
-4.68418e-07
2.7607e-06
-4.47103e-07
2.90475e-06
-4.26183e-07
3.04202e-06
-4.05736e-07
3.17269e-06
-3.85824e-07
3.29696e-06
-3.66493e-07
3.41504e-06
-3.4778e-07
3.52716e-06
-3.29709e-07
3.63353e-06
-3.12295e-07
3.73437e-06
-2.95547e-07
3.8299e-06
-2.79466e-07
3.92034e-06
-2.6405e-07
4.00591e-06
-2.49291e-07
4.0868e-06
-2.35177e-07
4.16323e-06
-2.21697e-07
4.23539e-06
-2.08833e-07
4.30348e-06
-1.96568e-07
4.36769e-06
-1.84884e-07
4.42819e-06
-1.73762e-07
4.48515e-06
-1.63182e-07
4.53875e-06
-1.53122e-07
4.58914e-06
-1.43564e-07
4.63648e-06
-1.34487e-07
4.68091e-06
-1.2587e-07
4.72258e-06
-1.17694e-07
4.76162e-06
-1.09939e-07
4.79817e-06
-1.02587e-07
4.83234e-06
-9.56186e-08
4.86426e-06
-8.90167e-08
4.89404e-06
-8.27637e-08
4.92178e-06
-7.68428e-08
4.94759e-06
-7.1238e-08
4.97158e-06
-6.59338e-08
4.99382e-06
-6.09152e-08
5.01442e-06
-5.61682e-08
5.03346e-06
-5.16788e-08
5.05102e-06
-4.74342e-08
5.06717e-06
-4.34217e-08
5.082e-06
-3.96291e-08
5.09557e-06
-3.60455e-08
5.10795e-06
-3.266e-08
5.11919e-06
-2.94611e-08
5.12938e-06
-2.64397e-08
5.13855e-06
-2.35878e-08
5.14677e-06
-2.0894e-08
5.15408e-06
-1.83485e-08
5.16055e-06
-1.59474e-08
5.1662e-06
-1.36821e-08
5.17109e-06
-1.15398e-08
5.17526e-06
-9.51729e-09
5.17876e-06
-7.60905e-09
5.1816e-06
-5.80008e-09
5.18382e-06
-4.08717e-09
5.18548e-06
-2.47288e-09
5.18663e-06
-9.55613e-10
5.18729e-06
4.82784e-10
5.18749e-06
1.83212e-09
5.18724e-06
3.09269e-09
5.18657e-06
4.26767e-09
5.1855e-06
5.36631e-09
5.18405e-06
6.40017e-09
5.18223e-06
7.37821e-09
5.18006e-06
8.30675e-09
5.17756e-06
9.18935e-09
5.17476e-06
1.00283e-08
5.17166e-06
1.08253e-08
5.1683e-06
1.15818e-08
5.16467e-06
1.22994e-08
5.1608e-06
1.29803e-08
5.15669e-06
1.36262e-08
5.15237e-06
1.42393e-08
5.14784e-06
1.48216e-08
5.14311e-06
1.53749e-08
5.1382e-06
1.59012e-08
5.13311e-06
1.64023e-08
5.12784e-06
1.68798e-08
5.12242e-06
1.73354e-08
5.11684e-06
1.77707e-08
5.11112e-06
1.81871e-08
5.10525e-06
1.85858e-08
5.09926e-06
1.89684e-08
5.09313e-06
1.93361e-08
5.08688e-06
1.96901e-08
5.08051e-06
2.00314e-08
5.07403e-06
2.03612e-08
5.06744e-06
2.06805e-08
5.06074e-06
2.09904e-08
5.05394e-06
2.12917e-08
5.04704e-06
2.15854e-08
5.04004e-06
2.18727e-08
5.03294e-06
2.21544e-08
5.02576e-06
2.24315e-08
5.01848e-06
2.27053e-08
5.01111e-06
2.29767e-08
5.00365e-06
2.32471e-08
4.9961e-06
2.35179e-08
4.98846e-06
2.37906e-08
4.98073e-06
2.40672e-08
4.97291e-06
2.43499e-08
4.96499e-06
2.46415e-08
4.95698e-06
2.49453e-08
4.94886e-06
2.52654e-08
4.94064e-06
2.5607e-08
4.9323e-06
2.59769e-08
4.92383e-06
2.63823e-08
4.91521e-06
2.68366e-08
4.90644e-06
2.73477e-08
4.89748e-06
2.79454e-08
4.88832e-06
2.86282e-08
4.87889e-06
2.94768e-08
4.86917e-06
3.0432e-08
4.85905e-06
3.17423e-08
4.84851e-06
3.31111e-08
4.83734e-06
3.53236e-08
4.82549e-06
3.72954e-08
4.81265e-06
4.13423e-08
4.79852e-06
4.423e-08
4.78291e-06
5.21435e-08
4.76443e-06
5.66321e-08
4.74398e-06
7.35958e-08
4.71598e-06
8.19539e-08
4.68726e-06
1.23121e-07
4.63954e-06
1.46522e-07
4.6073e-06
2.58315e-07
3.45073e-07
4.53074e-06
-1.50821e-07
5.92198e-07
-3.1173e-07
6.29528e-07
-4.73715e-07
6.32937e-07
-6.36912e-07
6.3658e-07
-8.01121e-07
6.38768e-07
-9.66322e-07
6.40432e-07
-1.13243e-06
6.41069e-07
-1.29926e-06
6.40448e-07
-1.4665e-06
6.38212e-07
-1.63374e-06
6.33962e-07
-1.8004e-06
6.27233e-07
-1.96574e-06
6.17495e-07
-2.12885e-06
6.04164e-07
-2.28859e-06
5.86629e-07
-2.44363e-06
5.64264e-07
-2.59238e-06
5.36431e-07
-2.73306e-06
5.02545e-07
-2.86369e-06
4.62094e-07
-2.9821e-06
4.14666e-07
-3.08603e-06
3.60028e-07
-3.17315e-06
2.98177e-07
-3.24119e-06
2.29368e-07
-3.28806e-06
1.54143e-07
-3.312e-06
7.34969e-08
-3.31138e-06
-1.25784e-08
-3.28407e-06
-1.04519e-07
-3.22987e-06
-1.97448e-07
-3.14889e-06
-2.90309e-07
-3.0418e-06
-3.8146e-07
-2.90983e-06
-4.69259e-07
-2.75468e-06
-5.52203e-07
-2.57848e-06
-6.28984e-07
-2.38359e-06
-6.98558e-07
-2.17261e-06
-7.60138e-07
-1.94826e-06
-8.13241e-07
-1.71322e-06
-8.57624e-07
-1.47005e-06
-8.93347e-07
-1.22119e-06
-9.20636e-07
-9.69016e-07
-9.39742e-07
-7.15531e-07
-9.51389e-07
-4.62296e-07
-9.56236e-07
-2.11241e-07
-9.54628e-07
3.64208e-08
-9.47634e-07
2.79582e-07
-9.35857e-07
5.17331e-07
-9.1997e-07
7.48936e-07
-9.00631e-07
9.73821e-07
-8.78446e-07
1.19156e-06
-8.53968e-07
1.40183e-06
-8.277e-07
1.60445e-06
-8.0009e-07
1.79929e-06
-7.71532e-07
1.98632e-06
-7.42367e-07
2.16557e-06
-7.12892e-07
2.3371e-06
-6.83357e-07
2.50105e-06
-6.53975e-07
2.65755e-06
-6.24921e-07
2.80679e-06
-5.96341e-07
2.94896e-06
-5.68351e-07
3.08427e-06
-5.41045e-07
3.21294e-06
-5.14495e-07
3.3352e-06
-4.88756e-07
3.45129e-06
-4.63867e-07
3.56143e-06
-4.39853e-07
3.66587e-06
-4.1673e-07
3.76482e-06
-3.94505e-07
3.85853e-06
-3.73175e-07
3.94722e-06
-3.52733e-07
4.03109e-06
-3.33166e-07
4.11037e-06
-3.14457e-07
4.18526e-06
-2.96587e-07
4.25596e-06
-2.79533e-07
4.32267e-06
-2.63271e-07
4.38556e-06
-2.47776e-07
4.44482e-06
-2.33021e-07
4.50061e-06
-2.18979e-07
4.55311e-06
-2.05623e-07
4.60248e-06
-1.92926e-07
4.64885e-06
-1.80862e-07
4.69238e-06
-1.69403e-07
4.73321e-06
-1.58523e-07
4.77147e-06
-1.48198e-07
4.80729e-06
-1.38403e-07
4.84078e-06
-1.29112e-07
4.87207e-06
-1.20304e-07
4.90126e-06
-1.11955e-07
4.92846e-06
-1.04044e-07
4.95378e-06
-9.655e-08
4.97729e-06
-8.94526e-08
4.99911e-06
-8.27324e-08
5.01931e-06
-7.63711e-08
5.03799e-06
-7.03508e-08
5.05521e-06
-6.46546e-08
5.07105e-06
-5.92661e-08
5.08559e-06
-5.41698e-08
5.0989e-06
-4.93508e-08
5.11103e-06
-4.4795e-08
5.12206e-06
-4.04885e-08
5.13204e-06
-3.64185e-08
5.14102e-06
-3.25729e-08
5.14907e-06
-2.89396e-08
5.15623e-06
-2.55069e-08
5.16254e-06
-2.22647e-08
5.16807e-06
-1.92035e-08
5.17284e-06
-1.63114e-08
5.1769e-06
-1.35774e-08
5.18028e-06
-1.09949e-08
5.18304e-06
-8.5596e-09
5.18522e-06
-6.26442e-09
5.18684e-06
-4.09048e-09
5.18791e-06
-2.02762e-09
5.18847e-06
-7.77777e-11
5.18857e-06
1.73285e-09
5.18822e-06
3.44438e-09
5.18744e-06
5.04921e-09
5.18625e-06
6.55798e-09
5.18467e-06
7.97859e-09
5.18273e-06
9.31929e-09
5.18044e-06
1.05875e-08
5.17785e-06
1.1789e-08
5.17495e-06
1.2928e-08
5.17176e-06
1.40078e-08
5.16831e-06
1.50317e-08
5.16461e-06
1.60024e-08
5.16067e-06
1.69228e-08
5.1565e-06
1.77957e-08
5.15211e-06
1.86238e-08
5.14753e-06
1.941e-08
5.14274e-06
2.01567e-08
5.13778e-06
2.08667e-08