/*--------------------------------*- C++ -*----------------------------------*\
  =========                 |
  \\      /  F ield         | OpenFOAM: The Open Source CFD Toolbox
   \\    /   O peration     | Website:  https://openfoam.org
    \\  /    A nd           | Version:  9
     \\/     M anipulation  |
\*---------------------------------------------------------------------------*/
FoamFile
{
    format      ascii;
    class       volScalarField;
    location    "0.006";
    object      s;
}
// * * * * * * * * * * * * * * * * * * * * * * * * * * * * * * * * * * * * * //

dimensions      [0 0 0 0 0 0 0];

internalField   nonuniform List<scalar> 
12225
(
1
1
1
1
1
1
1
1
1
1
1
1
1
1
1
1
1
0.999972
1
1
1
1
1
1
1
1
1
1
1
1
1
1
1
1
1
1
1
1
1
1
1
1
1
1
1
1
1
1
1
1
1
1
1
1
1
1
1
1
1
1
1
1
1
1
1
1
1
1
1
1
1
1
1
1
1
1
1
1
1
1
1
1
1
1
1
1
1
1
1
1
1
1
1
1
1
1
1
1
1
1
1
1
1
1
1
1
1
1
1
1
1
1
1
1
1
1
1
1
1
1
1
1
1
1
1
1
1
1
1
1
1
1
1
1
1
1
1
1
1
1
1
1
1
1
1
1
1
1
1
1
1
1
1
1
1
1
1
1
1
1
1
1
1
1
1
1
1
1
1
1
1
1
1
1
1
1
1
1
1
1
1
1
1
1
1
1
1
1
1
1
1
1
1
1
1
1
1
1
1
1
1
1
1
1
1
1
1
1
1
1
1
1
1
1
1
1
1
1
1
1
1
1
1
1
1
1
1
1
1
1
1
1
1
1
1
1
1
1
1
1
1
1
1
1
1
1
1
1
1
1
1
1
1
1
1
1
1
1
1
1
1
1
1
1
1
1
1
1
1
1
1
1
1
1
1
1
1
1
1
1
1
1
1
1
1
1
1
1
1
1
1
1
1
1
1
1
1
1
1
1
1
1
1
1
1
1
1
1
1
1
1
1
1
1
1
1
1
1
1
1
1
1
1
1
1
1
1
1
1
1
1
1
1
1
1
1
1
1
1
1
1
1
1
1
1
1
1
1
1
1
1
1
1
1
1
1
1
1
1
1
1
1
1
1
1
1
1
1
1
1
1
1
1
1
1
1
1
1
1
1
1
1
1
1
1
1
1
1
1
1
1
1
1
1
1
1
1
1
1
1
1
1
1
1
1
1
1
1
1
1
1
1
1
1
1
1
1
1
1
1
1
1
1
1
1
1
1
1
1
1
1
1
1
1
1
1
1
1
1
1
1
1
1
1
1
1
1
1
1
1
1
1
1
1
1
1
1
1
1
1
1
1
1
1
1
1
1
1
1
1
1
1
1
1
1
1
1
1
1
1
1
1
1
1
1
1
1
1
1
1
1
1
1
1
1
1
1
1
1
1
1
1
1
1
1
1
1
1
1
1
1
1
1
1
1
1
1
1
1
1
1
1
1
1
1
1
1
1
1
1
1
1
1
1
1
1
1
1
1
1
5.3505e-29
2.48759e-27
6.62801e-26
1.23299e-24
1.75205e-23
2.00188e-22
1.90174e-21
1.53811e-20
1.07851e-19
6.6524e-19
3.65338e-18
1.80491e-17
8.09364e-17
3.32036e-16
1.255e-15
4.39891e-15
1.43863e-14
4.41579e-14
1.27911e-13
3.51344e-13
9.18744e-13
2.29383e-12
5.47697e-12
1.25545e-11
2.78572e-11
5.61061e-11
9.59708e-11
1.41951e-10
1.84626e-10
2.07638e-10
2.13356e-10
1.94861e-10
1.55904e-10
1.16465e-10
7.77569e-11
4.81057e-11
2.73102e-11
1.43781e-11
7.06565e-12
3.24871e-12
1.39215e-12
5.5905e-13
2.11368e-13
7.5825e-14
2.59771e-14
8.48925e-15
2.65202e-15
7.93862e-16
2.28202e-16
6.31224e-17
1.68327e-17
4.33485e-18
1.07976e-18
2.60511e-19
6.09587e-20
1.38507e-20
3.05916e-21
6.57449e-22
1.37607e-22
2.80738e-23
5.58687e-24
1.08529e-24
2.05922e-25
3.81851e-26
6.92392e-27
1.22825e-27
2.13254e-28
3.62544e-29
6.03735e-30
9.85163e-31
1.57576e-31
2.4713e-32
3.80138e-33
5.7366e-34
8.49523e-35
1.23483e-35
1.76218e-36
2.46944e-37
3.3989e-38
4.59576e-39
6.10568e-40
7.97164e-41
1.02299e-41
1.29057e-42
1.60082e-43
1.95265e-44
2.34256e-45
2.76443e-46
3.20946e-47
3.66629e-48
4.12145e-49
4.55992e-50
4.966e-51
5.32415e-52
5.62006e-53
5.84162e-54
5.97967e-55
6.02862e-56
5.98697e-57
5.85733e-58
5.64589e-59
5.36214e-60
5.01863e-61
4.62939e-62
4.20867e-63
3.77136e-64
3.33162e-65
2.90272e-66
2.49844e-67
2.12399e-68
1.78319e-69
1.47827e-70
1.20999e-71
9.77782e-73
7.8004e-74
6.14317e-75
4.776e-76
3.66548e-77
2.77715e-78
2.07717e-79
1.53377e-80
1.11808e-81
8.04661e-83
5.71734e-84
4.01073e-85
2.77783e-86
1.89955e-87
1.28251e-88
8.54951e-90
5.62727e-91
3.65708e-92
2.34669e-93
1.48685e-94
9.30186e-96
5.74609e-97
3.50492e-98
2.11102e-99
1.25552e-100
7.37353e-102
4.27617e-103
2.44889e-104
1.38493e-105
7.7345e-107
4.26575e-108
2.32339e-109
1.24975e-110
6.63903e-112
3.48318e-113
1.80486e-114
9.23673e-116
4.66883e-117
2.33088e-118
1.14939e-119
5.59823e-121
2.6933e-122
1.2799e-123
6.00797e-125
2.78581e-126
1.27601e-127
5.77345e-129
2.58049e-130
1.13935e-131
4.96935e-133
2.14104e-134
9.11232e-136
3.83087e-137
1.59079e-138
6.52455e-140
2.64285e-141
1.05711e-142
4.17478e-144
1.62733e-145
6.2601e-147
2.37461e-148
8.88175e-150
3.26844e-151
1.18401e-152
4.19404e-154
1.45474e-155
4.68588e-157
5.0078e-27
2.39586e-25
6.40906e-24
1.18031e-22
1.64841e-21
1.84482e-20
1.7151e-19
1.35875e-18
9.35261e-18
5.67998e-17
3.08222e-16
1.51036e-15
6.74405e-15
2.76527e-14
1.04812e-13
3.69399e-13
1.21715e-12
3.76808e-12
1.1009e-11
3.04649e-11
8.007e-11
2.00231e-10
4.765e-10
1.08145e-09
2.36541e-09
4.59791e-09
7.6109e-09
1.09394e-08
1.38545e-08
1.53289e-08
1.54969e-08
1.40196e-08
1.11612e-08
8.33887e-09
5.5773e-09
3.46926e-09
1.98472e-09
1.05538e-09
5.23288e-10
2.43651e-10
1.05934e-10
4.319e-11
1.65864e-11
6.05356e-12
2.10917e-12
7.00787e-13
2.22612e-13
6.77685e-14
1.98138e-14
5.57496e-15
1.51236e-15
3.96233e-16
1.00418e-16
2.46522e-17
5.87005e-18
1.35735e-18
3.05129e-19
6.67502e-20
1.42233e-20
2.95456e-21
5.98778e-22
1.18475e-22
2.29011e-23
4.32727e-24
7.99721e-25
1.44626e-25
2.56059e-26
4.44021e-27
7.54411e-28
1.25635e-28
2.05144e-29
3.28538e-30
5.16203e-31
7.95936e-32
1.20467e-32
1.79017e-33
2.61247e-34
3.7448e-35
5.27365e-36
7.29759e-37
9.92448e-38
1.32669e-38
1.74353e-39
2.25296e-40
2.86288e-41
3.57797e-42
4.39856e-43
5.31959e-44
6.32984e-45
7.41143e-46
8.53996e-47
9.68499e-48
1.08113e-48
1.18805e-49
1.28533e-50
1.36917e-51
1.43616e-52
1.4835e-53
1.50923e-54
1.51231e-55
1.49273e-56
1.45147e-57
1.39047e-58
1.31243e-59
1.22062e-60
1.11868e-61
1.0104e-62
8.99427e-64
7.89132e-65
6.82619e-66
5.82585e-67
4.90573e-68
4.0759e-69
3.34144e-70
2.70301e-71
2.15761e-72
1.6995e-73
1.32097e-74
1.01322e-75
7.66931e-77
5.7288e-78
4.22315e-79
3.07249e-80
2.20616e-81
1.56348e-82
1.09363e-83
7.55065e-85
5.14572e-86
3.46154e-87
2.2986e-88
1.50674e-89
9.75008e-91
6.22843e-92
3.92791e-93
2.44549e-94
1.50314e-95
9.12172e-97
5.46517e-98
3.2329e-99
1.88821e-100
1.08891e-101
6.20046e-103
3.48624e-104
1.93555e-105
1.06114e-106
5.74479e-108
3.07128e-109
1.62151e-110
8.45443e-112
4.35335e-113
2.21385e-114
1.11191e-115
5.51564e-117
2.70233e-118
1.3077e-119
6.25043e-121
2.95092e-122
1.37612e-123
6.33895e-125
2.88432e-126
1.29641e-127
5.756e-129
2.52451e-130
1.09374e-131
4.68087e-133
1.97884e-134
8.26328e-136
3.40826e-137
1.38844e-138
5.58589e-140
2.2191e-141
8.70361e-143
3.36934e-144
1.28702e-145
4.84758e-147
1.79961e-148
6.57182e-150
2.35903e-151
8.2674e-153
2.83293e-154
3.11575e-25
1.49036e-23
3.99109e-22
7.34599e-21
1.02458e-19
1.14459e-18
1.06189e-17
8.39334e-17
5.76189e-16
3.48778e-15
1.88477e-14
9.18688e-14
4.07432e-13
1.65626e-12
6.21057e-12
2.16006e-11
7.00317e-11
2.12612e-10
6.06847e-10
1.63366e-09
4.15786e-09
1.00192e-08
2.28583e-08
4.94723e-08
1.02536e-07
1.89107e-07
2.98973e-07
4.13639e-07
5.05003e-07
5.50728e-07
5.43907e-07
4.86387e-07
3.85375e-07
2.87747e-07
1.92913e-07
1.20671e-07
6.95951e-08
3.73814e-08
1.87381e-08
8.8341e-09
3.89973e-09
1.61502e-09
6.30552e-10
2.33924e-10
8.28184e-11
2.79631e-11
9.02647e-12
2.79205e-12
8.2933e-13
2.37022e-13
6.52971e-14
1.7369e-14
4.46787e-15
1.11298e-15
2.6884e-16
6.30434e-17
1.43682e-17
3.18577e-18
6.87829e-19
1.44733e-19
2.97037e-20
5.95004e-21
1.16407e-21
2.22563e-22
4.16077e-23
7.60969e-24
1.36218e-24
2.38759e-25
4.09939e-26
6.89716e-27
1.13753e-27
1.83963e-28
2.91812e-29
4.54148e-30
6.93626e-31
1.0399e-31
1.5307e-32
2.21265e-33
3.14158e-34
4.38201e-35
6.00576e-36
8.08915e-37
1.0709e-37
1.39369e-38
1.7833e-39
2.24379e-40
2.77647e-41
3.3792e-42
4.04575e-43
4.76538e-44
5.52282e-45
6.29849e-46
7.06919e-47
7.80919e-48
8.4916e-49
9.08997e-50
9.58003e-51
9.94129e-52
1.01585e-52
1.02228e-53
1.0132e-54
9.89112e-56
9.51172e-57
9.01094e-58
8.41032e-59
7.73433e-60
7.0086e-61
6.25848e-62
5.50769e-63
4.77711e-64
4.08547e-65
3.44701e-66
2.86928e-67
2.35634e-68
1.90917e-69
1.52616e-70
1.20368e-71
9.36666e-73
7.19166e-74
5.44826e-75
4.07271e-76
3.00416e-77
2.18674e-78
1.5708e-79
1.11356e-80
7.79111e-82
5.38012e-83
3.66698e-84
2.46699e-85
1.63825e-86
1.0739e-87
6.94908e-89
4.43902e-90
2.79932e-91
1.74275e-92
1.07114e-93
6.49982e-95
3.8941e-96
2.30343e-97
1.3453e-98
7.75794e-100
4.41745e-101
2.48372e-102
1.37897e-103
7.56022e-105
4.09313e-106
2.1884e-107
1.15548e-108
6.02517e-110
3.10284e-111
1.57814e-112
7.92747e-114
3.93314e-115
1.92739e-116
9.32896e-118
4.46007e-119
2.10622e-120
9.82485e-122
4.52707e-123
2.06056e-124
9.26474e-126
4.11497e-127
1.80546e-128
7.8252e-130
3.35033e-131
1.41695e-132
5.91951e-134
2.44265e-135
9.95522e-137
4.00699e-138
1.59255e-139
6.24915e-141
2.42015e-142
9.24881e-144
3.48465e-145
1.29424e-146
4.72705e-148
1.69859e-149
5.96605e-151
2.05832e-152
1.93778e-23
9.09702e-22
2.39175e-20
4.31403e-19
5.89011e-18
6.43586e-17
5.83602e-16
4.50556e-15
3.0188e-14
1.78212e-13
9.38418e-13
4.45296e-12
1.92046e-11
7.58193e-11
2.75675e-10
9.27939e-10
2.90498e-09
8.49293e-09
2.32708e-08
5.99271e-08
1.45332e-07
3.3226e-07
7.15955e-07
1.45684e-06
2.82011e-06
4.8926e-06
7.35017e-06
9.75929e-06
1.14656e-05
1.23097e-05
1.19058e-05
1.05319e-05
8.33458e-06
6.22942e-06
4.20167e-06
2.6496e-06
1.54506e-06
8.40502e-07
4.27265e-07
2.04319e-07
9.18097e-08
3.87184e-08
1.53986e-08
5.82207e-09
2.09878e-09
7.21526e-10
2.37118e-10
7.46588e-11
2.25687e-11
6.56264e-12
1.83898e-12
4.97412e-13
1.30065e-13
3.29248e-14
8.07911e-15
1.92398e-15
4.45158e-16
1.0017e-16
2.19422e-17
4.68281e-18
9.74451e-19
1.97857e-19
3.92257e-20
7.59763e-21
1.43853e-21
2.66387e-22
4.82691e-23
8.562e-24
1.48732e-24
2.53118e-25
4.22158e-26
6.90243e-27
1.10671e-27
1.74055e-28
2.68581e-29
4.06728e-30
6.04604e-31
8.82407e-32
1.26469e-32
1.78032e-33
2.46202e-34
3.34529e-35
4.4668e-36
5.86202e-37
7.56222e-38
9.591e-39
1.19605e-39
1.46677e-40
1.76911e-41
2.09885e-42
2.44959e-43
2.81279e-44
3.17807e-45
3.53359e-46
3.8667e-47
4.16468e-48
4.41552e-49
4.60875e-50
4.73615e-51
4.79237e-52
4.77524e-53
4.68598e-54
4.52901e-55
4.31163e-56
4.04342e-57
3.73562e-58
3.4003e-59
3.04965e-60
2.69522e-61
2.34737e-62
2.01495e-63
1.70617e-64
1.42516e-65
1.17435e-66
9.54617e-68
7.65533e-69
6.05635e-70
4.72694e-71
3.63986e-72
2.76526e-73
2.07278e-74
1.53304e-75
1.11881e-76
8.05713e-78
5.72597e-79
4.01588e-80
2.77968e-81
1.89894e-82
1.28041e-83
8.52156e-85
5.5981e-86
3.63017e-87
2.32376e-88
1.46841e-89
9.16029e-91
5.64138e-92
3.42997e-93
2.0589e-94
1.2202e-95
7.13992e-97
4.12505e-98
2.35316e-99
1.32548e-100
7.37229e-102
4.04906e-103
2.19603e-104
1.17616e-105
6.22081e-107
3.24933e-108
1.67617e-109
8.53944e-111
4.29673e-112
2.13529e-113
1.04807e-114
5.08108e-116
2.43309e-117
1.15082e-118
5.37663e-120
2.48129e-121
1.13113e-122
5.09361e-124
2.26577e-125
9.9561e-127
4.32159e-128
1.853e-129
7.84834e-131
3.28351e-132
1.35687e-133
5.5379e-135
2.23218e-136
8.88407e-138
3.49101e-139
1.35387e-140
5.18119e-142
1.95491e-143
7.27146e-145
2.66077e-146
9.5805e-148
3.37864e-149
1.1707e-150
1.09393e-21
4.97697e-20
1.26746e-18
2.20959e-17
2.91286e-16
3.07103e-15
2.68556e-14
1.9985e-13
1.29024e-12
7.33678e-12
3.71994e-11
1.69882e-10
7.04641e-10
2.67294e-09
9.32571e-09
3.00693e-08
8.99723e-08
2.50743e-07
6.52879e-07
1.59208e-06
3.64188e-06
7.82009e-06
1.57589e-05
2.98644e-05
5.34797e-05
8.68749e-05
0.000123678
0.000157308
0.000178069
0.000188099
0.00017883
0.000156806
0.000124497
9.3412e-05
6.3698e-05
4.06476e-05
2.40568e-05
1.32998e-05
6.88172e-06
3.34691e-06
1.53438e-06
6.60876e-07
2.6844e-07
1.03675e-07
3.8137e-08
1.33759e-08
4.4835e-09
1.4394e-09
4.4351e-10
1.31406e-10
3.75047e-11
1.03282e-11
2.74851e-12
7.07799e-13
1.76615e-13
4.27536e-14
1.00514e-14
2.29736e-15
5.10966e-16
1.10685e-16
2.33705e-17
4.81333e-18
9.67639e-19
1.89995e-19
3.64568e-20
6.83992e-21
1.25536e-21
2.2549e-22
3.96553e-23
6.83061e-24
1.1528e-24
1.90688e-25
3.09244e-26
4.91826e-27
7.67301e-28
1.17455e-28
1.76454e-29
2.60216e-30
3.76767e-31
5.35709e-32
7.48138e-33
1.02637e-33
1.38348e-34
1.83254e-35
2.38565e-36
3.05281e-37
3.84053e-38
4.75048e-39
5.77823e-40
6.9122e-41
8.13305e-42
9.41361e-43
1.07195e-43
1.20103e-44
1.32416e-45
1.43675e-46
1.53433e-47
1.61285e-48
1.66899e-49
1.70033e-50
1.7056e-51
1.68471e-52
1.63875e-53
1.56993e-54
1.48137e-55
1.37689e-56
1.26075e-57
1.13731e-58
1.01086e-59
8.85308e-61
7.64066e-62
6.50318e-63
5.45965e-64
4.52119e-65
3.69315e-66
2.97579e-67
2.36526e-68
1.85455e-69
1.43448e-70
1.09461e-71
8.2405e-73
6.12063e-74
4.48547e-75
3.24347e-76
2.31432e-77
1.62957e-78
1.13234e-79
7.76519e-81
5.25559e-82
3.51076e-83
2.31476e-84
1.50644e-85
9.67732e-87
6.13659e-88
3.84133e-89
2.37374e-90
1.44808e-91
8.72115e-93
5.18548e-94
3.04404e-95
1.76429e-96
1.00962e-97
5.70468e-99
3.18271e-100
1.75335e-101
9.53805e-103
5.12365e-104
2.71794e-105
1.42381e-106
7.36592e-108
3.76337e-109
1.89894e-110
9.46331e-112
4.65779e-113
2.2643e-114
1.08721e-115
5.1562e-117
2.4154e-118
1.11764e-119
5.10825e-121
2.30625e-122
1.02852e-123
4.53094e-125
1.97168e-126
8.47529e-128
3.59861e-129
1.50926e-130
6.25215e-132
2.55796e-133
1.03355e-134
4.12355e-136
1.62431e-137
6.31485e-139
2.42271e-140
9.16508e-142
3.41837e-143
1.25489e-144
4.53505e-146
1.60835e-147
5.61454e-149
5.12315e-20
2.24106e-18
5.48881e-17
9.18691e-16
1.16122e-14
1.17264e-13
9.81944e-13
6.99727e-12
4.32561e-11
2.3549e-10
1.1428e-09
4.99284e-09
1.97985e-08
7.17257e-08
2.38661e-07
7.32582e-07
2.08217e-06
5.49754e-06
1.35202e-05
3.10325e-05
6.65583e-05
0.000133443
0.000250077
0.000439063
0.000723794
0.00109839
0.00148022
0.00180088
0.00197289
0.00204941
0.00192448
0.00167918
0.00134496
0.0010174
0.000705714
0.000458186
0.00027664
0.000156161
8.25811e-05
4.10358e-05
1.92429e-05
8.49311e-06
3.53519e-06
1.39854e-06
5.26364e-07
1.88806e-07
6.46934e-08
2.12208e-08
6.67736e-09
2.01934e-09
5.87957e-10
1.65091e-10
4.47721e-11
1.17439e-11
2.98337e-12
7.34888e-13
1.75728e-13
4.08337e-14
9.22933e-15
2.03086e-15
4.35413e-16
9.10251e-17
1.85678e-17
3.69806e-18
7.19546e-19
1.36851e-19
2.5454e-20
4.63219e-21
8.25126e-22
1.43922e-22
2.45905e-23
4.11703e-24
6.75635e-25
1.08712e-25
1.71554e-26
2.65576e-27
4.03408e-28
6.01401e-29
8.80111e-30
1.2646e-30
1.78438e-31
2.47297e-32
3.36684e-33
4.50367e-34
5.91994e-35
7.64782e-36
9.71157e-37
1.21236e-37
1.48806e-38
1.79601e-39
2.13182e-40
2.48885e-41
2.85826e-42
3.2293e-43
3.58975e-44
3.92659e-45
4.22677e-46
4.47802e-47
4.66973e-48
4.79365e-49
4.84453e-50
4.82045e-51
4.72296e-52
4.55691e-53
4.33007e-54
4.05252e-55
3.73591e-56
3.39271e-57
3.03538e-58
2.67564e-59
2.32397e-60
1.99026e-61
1.68105e-62
1.40039e-63
1.1506e-64
9.32426e-66
7.45302e-67
5.87611e-68
4.56985e-69
3.50578e-70
2.65312e-71
1.9808e-72
1.45901e-73
1.06031e-74
7.60297e-76
5.37944e-77
3.7559e-78
2.58782e-79
1.75961e-80
1.18081e-81
7.82067e-83
5.11235e-84
3.29858e-85
2.10077e-86
1.32065e-87
8.19538e-89
5.02038e-90
3.03601e-91
1.81252e-92
1.06829e-93
6.21628e-95
3.57129e-96
2.02573e-97
1.13453e-98
6.27387e-100
3.42575e-101
1.8471e-102
9.83438e-104
5.17059e-105
2.68461e-106
1.37651e-107
6.97028e-109
3.48579e-110
1.72165e-111
8.39826e-113
4.04619e-114
1.92542e-115
9.04975e-117
4.20132e-118
1.92656e-119
8.7263e-121
3.90424e-122
1.72545e-123
7.53235e-125
3.24801e-126
1.38343e-127
5.82024e-129
2.41853e-130
9.92564e-132
4.02288e-133
1.60998e-134
6.36157e-136
2.48104e-137
9.54904e-139
3.6247e-140
1.35668e-141
5.0011e-143
1.81558e-144
6.48038e-146
2.27903e-147
1.87031e-18
7.81435e-17
1.83092e-15
2.92683e-14
3.53358e-13
3.40934e-12
2.72609e-11
1.85352e-10
1.09295e-09
5.67606e-09
2.62808e-08
1.09537e-07
4.14115e-07
1.42874e-06
4.52039e-06
1.31682e-05
3.54385e-05
8.83659e-05
0.000204626
0.000440761
0.000883862
0.00165029
0.0028695
0.00465735
0.00706479
0.00999533
0.0127472
0.0148487
0.0158431
0.0161684
0.0150759
0.013163
0.0107066
0.00821926
0.00584085
0.00388696
0.00241119
0.00139831
0.000759794
0.000387875
0.000186715
8.47716e-05
3.63057e-05
1.47592e-05
5.70146e-06
2.09758e-06
7.36637e-07
2.47475e-07
7.9696e-08
2.46488e-08
7.33473e-09
2.10339e-09
5.82205e-10
1.55767e-10
4.03369e-11
1.01226e-11
2.46461e-12
5.82814e-13
1.33988e-13
2.99748e-14
6.53074e-15
1.38682e-15
2.8724e-16
5.80656e-17
1.14632e-17
2.21133e-18
4.17046e-19
7.69312e-20
1.38868e-20
2.4539e-21
4.24652e-22
7.19913e-23
1.19602e-23
1.94777e-24
3.11029e-25
4.87126e-26
7.4845e-27
1.12841e-27
1.66972e-28
2.42542e-29
3.45919e-30
4.84493e-31
6.66501e-32
9.00711e-33
1.19594e-33
1.56041e-34
2.00094e-35
2.52208e-36
3.12512e-37
3.80729e-38
4.56101e-39
5.37345e-40
6.2265e-41
7.09712e-42
7.95822e-43
8.77997e-44
9.53143e-45
1.01825e-45
1.07061e-46
1.10797e-47
1.12871e-48
1.13199e-49
1.11775e-50
1.08676e-51
1.0405e-52
9.8109e-54
9.11121e-55
8.33449e-56
7.51024e-57
6.66705e-58
5.83123e-59
5.02819e-60
4.2756e-61
3.58531e-62
2.96492e-63
2.41805e-64
1.94491e-65
1.54286e-66
1.20717e-67
9.31613e-69
7.09178e-70
5.32534e-71
3.9449e-72
2.88299e-73
2.07872e-74
1.47882e-75
1.03806e-76
7.19026e-78
4.9147e-79
3.31512e-80
2.20683e-81
1.44986e-82
9.4012e-84
6.0167e-85
3.80071e-86
2.36984e-87
1.45859e-88
8.86182e-90
5.31498e-91
3.1469e-92
1.83942e-93
1.06147e-94
6.04754e-96
3.40176e-97
1.88929e-98
1.03603e-99
5.60973e-101
2.99928e-102
1.58347e-103
8.25529e-105
4.25009e-106
2.16081e-107
1.08493e-108
5.37974e-110
2.63456e-111
1.27424e-112
6.08702e-114
2.87193e-115
1.33834e-116
6.16018e-118
2.80066e-119
1.25768e-120
5.57868e-122
2.44423e-123
1.0578e-124
4.52174e-126
1.90917e-127
7.9617e-129
3.27915e-130
1.33379e-131
5.35706e-133
2.12439e-134
8.31572e-136
3.21254e-137
1.22427e-138
4.60123e-140
1.70417e-141
6.21913e-143
2.23466e-144
7.91817e-146
4.95884e-17
1.97157e-15
4.41224e-14
6.72681e-13
7.73624e-12
7.10806e-11
5.41837e-10
3.51759e-09
1.98218e-08
9.83517e-08
4.34625e-07
1.72675e-06
6.21543e-06
2.03924e-05
6.12714e-05
0.000169216
0.000430863
0.001014
0.00220995
0.0044658
0.0083715
0.0145556
0.0234813
0.035246
0.0494054
0.0651834
0.0786346
0.0880938
0.0923261
0.0923579
0.0859974
0.0755389
0.0627487
0.0494494
0.0363341
0.0250015
0.0160977
0.0096733
0.00543829
0.00286993
0.00142646
0.000669111
0.000296193
0.000124215
4.94386e-05
1.87194e-05
6.75866e-06
2.33199e-06
7.70536e-07
2.44288e-07
7.44465e-08
2.18453e-08
6.18203e-09
1.68969e-09
4.46665e-10
1.14344e-10
2.83806e-11
6.83726e-12
1.60044e-12
3.64341e-13
8.07355e-14
1.74285e-14
3.66793e-15
7.53086e-16
1.50941e-16
2.95502e-17
5.65382e-18
1.05771e-18
1.93569e-19
3.46683e-20
6.07894e-21
1.04395e-21
1.75645e-22
2.8962e-23
4.68153e-24
7.42047e-25
1.15363e-25
1.75955e-26
2.63347e-27
3.86848e-28
5.57857e-29
7.89874e-30
1.0983e-30
1.49999e-31
2.01247e-32
2.65284e-33
3.43633e-34
4.37468e-35
5.47422e-36
6.73412e-37
8.14474e-38
9.68647e-39
1.13292e-39
1.30324e-40
1.47466e-41
1.64155e-42
1.79785e-43
1.93747e-44
2.05469e-45
2.14451e-46
2.20306e-47
2.22783e-48
2.21786e-49
2.17383e-50
2.09795e-51
1.9938e-52
1.86606e-53
1.72014e-54
1.56182e-55
1.39689e-56
1.23084e-57
1.06913e-58
9.15665e-60
7.7327e-61
6.43914e-62
5.28738e-63
4.28139e-64
3.41882e-65
2.69238e-66
2.09114e-67
1.60192e-68
1.2104e-69
9.02149e-71
6.63298e-72
4.81114e-73
3.44285e-74
2.43077e-75
1.69336e-76
1.16399e-77
7.89535e-79
5.28481e-80
3.49094e-81
2.27576e-82
1.4642e-83
9.29776e-85
5.82742e-86
3.60503e-87
2.20136e-88
1.3269e-89
7.89522e-91
4.63749e-92
2.68911e-93
1.53942e-94
8.70036e-96
4.85474e-97
2.67459e-98
1.45486e-99
7.81398e-101
4.14403e-102
2.17013e-103
1.12221e-104
5.73058e-106
2.88982e-107
1.43914e-108
7.07794e-110
3.43789e-111
1.64918e-112
7.81355e-114
3.65627e-115
1.68985e-116
7.71406e-118
3.47817e-119
1.54902e-120
6.81397e-122
2.96062e-123
1.27058e-124
5.3858e-126
2.25484e-127
9.3234e-129
3.8072e-130
1.53519e-131
6.11221e-133
2.40231e-134
9.31927e-136
3.56703e-137
1.34679e-138
5.01377e-140
1.84011e-141
6.65672e-143
2.37678e-144
8.88194e-16
3.35946e-14
7.20675e-13
1.05364e-11
1.16056e-10
1.01942e-09
7.42056e-09
4.59486e-08
2.46779e-07
1.16747e-06
4.92428e-06
1.86869e-05
6.42229e-05
0.000200875
0.000574037
0.00150388
0.00362327
0.00804949
0.0165203
0.0313408
0.0549212
0.0888193
0.132883
0.185657
0.244319
0.302263
0.343292
0.369644
0.381271
0.377204
0.354618
0.315833
0.266487
0.21764
0.168616
0.121427
0.0819523
0.0518147
0.030414
0.0167297
0.00864675
0.00421368
0.00193783
0.000842551
0.000347107
0.000135823
5.06022e-05
1.79909e-05
6.11729e-06
1.99329e-06
6.23598e-07
1.87643e-07
5.43966e-08
1.52156e-08
4.11256e-09
1.07553e-09
2.72494e-10
6.69609e-11
1.59765e-11
3.70482e-12
8.3575e-13
1.83561e-13
3.9284e-14
8.19785e-15
1.66925e-15
3.31855e-16
6.44508e-17
1.22345e-17
2.27111e-18
4.12451e-19
7.33113e-20
1.27585e-20
2.17479e-21
3.63212e-22
5.94516e-23
9.54008e-24
1.50121e-24
2.31705e-25
3.50866e-26
5.21374e-27
7.60415e-28
1.08876e-28
1.53062e-29
2.11319e-30
2.8656e-31
3.8174e-32
4.99646e-33
6.4263e-34
8.12317e-35
1.00929e-35
1.23278e-36
1.48045e-37
1.7482e-38
2.03016e-39
2.31879e-40
2.60516e-41
2.87935e-42
3.13106e-43
3.35018e-44
3.52754e-45
3.65547e-46
3.72845e-47
3.7434e-48
3.69999e-49
3.60056e-50
3.44996e-51
3.25517e-52
3.02474e-53
2.76816e-54
2.49529e-55
2.21576e-56
1.93948e-57
1.67365e-58
1.42389e-59
1.19435e-60
9.87765e-62
8.05482e-63
6.47679e-64
5.13553e-65
4.01565e-66
3.09666e-67
2.35519e-68
1.76675e-69
1.30729e-70
9.54194e-72
6.87065e-73
4.88067e-74
3.42061e-75
2.36533e-76
1.61386e-77
1.08654e-78
7.21854e-80
4.73254e-81
3.06195e-82
1.95513e-83
1.2321e-84
7.66348e-86
4.70466e-87
2.85082e-88
1.70516e-89
1.00677e-90
5.86784e-92
3.37618e-93
1.91772e-94
1.0754e-95
5.95383e-97
3.25445e-98
1.75641e-99
9.35951e-101
4.92465e-102
2.55861e-103
1.31266e-104
6.65013e-106
3.32699e-107
1.64372e-108
8.01991e-110
3.86445e-111
1.83905e-112
8.64361e-114
4.01238e-115
1.8396e-116
8.33033e-118
3.72586e-119
1.64596e-120
7.18197e-122
3.09524e-123
1.31755e-124
5.53931e-126
2.30006e-127
9.43188e-129
3.8194e-130
1.52719e-131
6.02867e-133
2.34919e-134
9.03404e-136
3.42788e-137
1.28304e-138
4.737e-140
1.72532e-141
6.20717e-143
1.032e-14
3.68704e-13
7.54614e-12
1.05321e-10
1.11149e-09
9.3853e-09
6.57055e-08
3.91246e-07
2.02118e-06
9.19489e-06
3.7243e-05
0.000135391
0.00044453
0.00132507
0.00360245
0.00897084
0.0205444
0.0434305
0.0850684
0.155218
0.266406
0.4032
0.490645
0.568099
0.623425
0.650998
0.680062
0.702187
0.725806
0.742852
0.753553
0.749871
0.721376
0.656454
0.560707
0.440431
0.312299
0.212585
0.132355
0.076808
0.0416029
0.0212177
0.0101992
0.00462644
0.001984
0.00080632
0.000311352
0.000114511
4.0207e-05
1.35068e-05
4.34989e-06
1.34553e-06
4.00461e-07
1.14865e-07
3.1801e-08
8.51007e-09
2.20415e-09
5.53214e-10
1.34706e-10
3.18547e-11
7.32285e-12
1.63793e-12
3.56761e-13
7.5729e-14
1.56767e-14
3.16695e-15
6.24712e-16
1.20397e-16
2.26813e-17
4.17874e-18
7.5325e-19
1.329e-19
2.29596e-20
3.88517e-21
6.44173e-22
1.04682e-22
1.6678e-23
2.6057e-24
3.99325e-25
6.00408e-26
8.85889e-27
1.28296e-27
1.82402e-28
2.5463e-29
3.49082e-30
4.70062e-31
6.21816e-32
8.08186e-33
1.03221e-33
1.29566e-34
1.5986e-35
1.93897e-36
2.31227e-37
2.71141e-38
3.12675e-39
3.54636e-40
3.9565e-41
4.34239e-42
4.689e-43
4.9821e-44
5.20916e-45
5.36034e-46
5.42909e-47
5.41271e-48
5.31247e-49
5.1335e-50
4.88432e-51
4.57624e-52
4.22246e-53
3.83715e-54
3.43479e-55
3.03055e-56
2.6357e-57
2.25964e-58
1.90974e-59
1.59118e-60
1.30706e-61
1.05859e-62
8.45348e-64
6.65647e-65
5.16866e-66
3.95789e-67
2.98901e-68
2.22637e-69
1.63569e-70
1.18539e-71
8.47434e-73
5.97665e-74
4.15853e-75
2.85479e-76
1.93366e-77
1.29234e-78
8.52282e-80
5.54649e-81
3.56204e-82
2.25758e-83
1.41211e-84
8.71742e-86
5.31155e-87
3.19436e-88
1.89623e-89
1.11111e-90
6.42689e-92
3.66972e-93
2.06857e-94
1.15114e-95
6.32437e-97
3.43048e-98
1.83719e-99
9.71465e-101
5.07211e-102
2.61488e-103
1.33115e-104
6.69159e-106
3.32177e-107
1.62839e-108
7.88332e-110
3.76905e-111
1.77965e-112
8.29909e-114
3.82231e-115
1.73871e-116
7.81165e-118
3.46638e-119
1.51926e-120
6.57668e-122
2.8119e-123
1.18742e-124
4.9523e-126
2.03982e-127
8.29716e-129
3.33264e-130
1.32167e-131
5.1746e-133
1.9998e-134
7.62765e-136
2.8711e-137
1.06652e-138
3.911e-140
1.41761e-141
7.54821e-14
2.57219e-12
5.09282e-11
6.86121e-10
6.98195e-09
5.68792e-08
3.84724e-07
2.21722e-06
1.10922e-05
4.88041e-05
0.000190827
0.000669363
0.00212501
0.00615342
0.0163573
0.0401207
0.0912735
0.194402
0.380293
0.500905
0.584254
0.623496
0.658039
0.673793
0.682371
0.685484
0.696841
0.716378
0.748404
0.784306
0.825087
0.858851
0.883085
0.897186
0.895158
0.864996
0.787542
0.63608
0.44517
0.274336
0.15834
0.0851838
0.0431131
0.0205559
0.00923985
0.0039242
0.00157898
0.000603568
0.000219743
7.63802e-05
2.54029e-05
8.10054e-06
2.48142e-06
7.315e-07
2.0786e-07
5.70209e-08
1.51225e-08
3.88246e-09
9.66086e-10
2.33259e-10
5.47046e-11
1.24736e-11
2.76774e-12
5.98107e-13
1.25974e-13
2.58781e-14
5.18817e-15
1.01574e-15
1.94301e-16
3.6334e-17
6.64506e-18
1.18911e-18
2.08283e-19
3.57237e-20
6.00181e-21
9.88025e-22
1.5942e-22
2.52191e-23
3.91235e-24
5.95353e-25
8.88871e-26
1.30233e-26
1.87289e-27
2.6442e-28
3.66558e-29
4.9904e-30
6.67331e-31
8.76656e-32
1.13152e-32
1.43518e-33
1.78904e-34
2.1921e-35
2.6405e-36
3.12714e-37
3.64167e-38
4.17057e-39
4.69767e-40
5.20488e-41
5.67318e-42
6.08384e-43
6.41961e-44
6.66599e-45
6.81223e-46
6.85212e-47
6.78443e-48
6.61296e-49
6.3462e-50
5.99661e-51
5.57969e-52
5.11287e-53
4.61493e-54
4.1052e-55
3.5991e-56
3.11004e-57
2.64896e-58
2.22404e-59
1.84073e-60
1.50191e-61
1.20817e-62
9.58225e-64
7.49356e-65
5.77854e-66
4.39426e-67
3.29549e-68
2.43752e-69
1.77827e-70
1.27966e-71
9.08364e-73
6.36094e-74
4.39439e-75
2.99512e-76
2.01413e-77
1.33641e-78
8.74956e-80
5.65262e-81
3.60369e-82
2.26723e-83
1.40771e-84
8.62616e-86
5.21704e-87
3.11423e-88
1.8349e-89
1.06715e-90
6.12645e-92
3.47194e-93
1.94238e-94
1.07278e-95
5.84939e-97
3.14886e-98
1.6736e-99
8.78253e-101
4.55061e-102
2.32818e-103
1.17617e-104
5.86743e-106
2.8904e-107
1.40609e-108
6.75497e-110
3.20481e-111
1.50161e-112
6.94863e-114
3.17567e-115
1.43342e-116
6.39031e-118
2.81372e-119
1.22364e-120
5.25584e-122
2.22966e-123
9.34198e-125
3.8657e-126
1.57975e-127
6.37522e-129
2.54049e-130
9.99576e-132
3.8829e-133
1.48904e-134
5.63729e-136
2.10715e-137
7.77956e-139
2.84062e-140
3.46204e-13
1.12279e-11
2.17261e-10
2.87055e-09
2.85719e-08
2.26932e-07
1.49604e-06
8.40768e-06
4.10328e-05
0.000176438
0.000677098
0.00234588
0.00740778
0.0215002
0.0577847
0.144919
0.341581
0.471339
0.533501
0.56193
0.572585
0.572083
0.524952
0.452171
0.395892
0.364009
0.351802
0.37374
0.424384
0.510077
0.628054
0.758591
0.852907
0.909258
0.938801
0.95231
0.957567
0.939595
0.878229
0.721009
0.476388
0.271375
0.145678
0.0736165
0.0349717
0.0156369
0.00659897
0.0026365
0.00100018
0.000361251
0.000124538
4.10734e-05
1.2987e-05
3.94459e-06
1.15301e-06
3.24888e-07
8.83851e-08
2.32484e-08
5.92038e-09
1.46143e-09
3.50078e-10
8.1463e-11
1.84322e-11
4.05878e-12
8.70496e-13
1.81977e-13
3.71057e-14
7.38443e-15
1.43516e-15
2.72538e-16
5.05956e-17
9.18673e-18
1.63214e-18
2.83841e-19
4.83366e-20
8.0632e-21
1.31798e-21
2.11158e-22
3.31684e-23
5.10944e-24
7.72071e-25
1.14466e-25
1.6654e-26
2.37836e-27
3.33451e-28
4.59051e-29
6.20637e-30
8.24202e-31
1.07527e-31
1.37832e-32
1.73619e-33
2.1494e-34
2.61558e-35
3.129e-36
3.68031e-37
4.25654e-38
4.84143e-39
5.41608e-40
5.9599e-41
6.45185e-42
6.87173e-43
7.20161e-44
7.42711e-45
7.53842e-46
7.53101e-47
7.40595e-48
7.16976e-49
6.83383e-50
6.41354e-51
5.92714e-52
5.39554e-53
4.83983e-54
4.27814e-55
3.7268e-56
3.19962e-57
2.70749e-58
2.25821e-59
1.8566e-60
1.50471e-61
1.20226e-62
9.47062e-64
7.35576e-65
5.63344e-66
4.25447e-67
3.16864e-68
2.32746e-69
1.68616e-70
1.2049e-71
8.49297e-73
5.90541e-74
4.05082e-75
2.74132e-76
1.83029e-77
1.20572e-78
7.83716e-80
5.02659e-81
3.18135e-82
1.98696e-83
1.22469e-84
7.44973e-86
4.47248e-87
2.65013e-88
1.54994e-89
8.94758e-91
5.09867e-92
2.86803e-93
1.59258e-94
8.73027e-96
4.7247e-97
2.52439e-98
1.33165e-99
6.93564e-101
3.56666e-102
1.81104e-103
9.08029e-105
4.4956e-106
2.19789e-107
1.06112e-108
5.05913e-110
2.38205e-111
1.10764e-112
5.08661e-114
2.30701e-115
1.0334e-116
4.57188e-118
1.99769e-119
8.62126e-121
3.67472e-122
1.54698e-123
6.43195e-125
2.64114e-126
1.07106e-127
4.28935e-129
1.69631e-130
6.62434e-132
2.55446e-133
9.72778e-135
3.65901e-136
1.36003e-137
5.00195e-139
1.0796e-12
3.27721e-11
6.21528e-10
8.11264e-09
8.00761e-08
6.30475e-07
4.11535e-06
2.29044e-05
0.000110874
0.000476577
0.00188782
0.00695682
0.0214056
0.0617771
0.175659
0.369101
0.465824
0.503945
0.516009
0.492366
0.392116
0.253695
0.15914
0.116523
0.100431
0.0963604
0.0966235
0.102697
0.115005
0.139176
0.192323
0.310845
0.536748
0.769557
0.887131
0.945533
0.970507
0.980242
0.980252
0.960161
0.888623
0.671844
0.390692
0.211347
0.107118
0.0508665
0.0226865
0.00953619
0.00379095
0.00142978
0.000513091
0.000175663
5.75149e-05
1.80497e-05
5.44058e-06
1.57806e-06
4.41229e-07
1.19112e-07
3.10906e-08
7.8572e-09
1.92488e-09
4.57639e-10
1.057e-10
2.37394e-11
5.18905e-12
1.10478e-12
2.29276e-13
4.64119e-14
9.16988e-15
1.76935e-15
3.33591e-16
6.14869e-17
1.10846e-17
1.95528e-18
3.37617e-19
5.70858e-20
9.45514e-21
1.53455e-21
2.44118e-22
3.80752e-23
5.82398e-24
8.73857e-25
1.28647e-25
1.85864e-26
2.63578e-27
3.66966e-28
5.01676e-29
6.73559e-30
8.88289e-31
1.15087e-31
1.46505e-32
1.83274e-33
2.25335e-34
2.72328e-35
3.23554e-36
3.77962e-37
4.34159e-38
4.90453e-39
5.44935e-40
5.9558e-41
6.40367e-42
6.77421e-43
7.05138e-44
7.22303e-45
7.28179e-46
7.22558e-47
7.05774e-48
6.78666e-49
6.42516e-50
5.98949e-51
5.49961e-52
4.97527e-53
4.43478e-54
3.89517e-55
3.37136e-56
2.87564e-57
2.41736e-58
2.00287e-59
1.63568e-60
1.31676e-61
1.04498e-62
8.17594e-64
6.30697e-65
4.79722e-66
3.59809e-67
2.66133e-68
1.94131e-69
1.39664e-70
9.91055e-72
6.93672e-73
4.78936e-74
3.26205e-75
2.19188e-76
1.45303e-77
9.5035e-79
6.13292e-80
3.90521e-81
2.45377e-82
1.52144e-83
9.30948e-85
5.62166e-86
3.35034e-87
1.97069e-88
1.14411e-89
6.55621e-91
3.70846e-92
2.07063e-93
1.1413e-94
6.21007e-96
3.33588e-97
1.76911e-98
9.2629e-100
4.78848e-101
2.44412e-102
1.23179e-103
6.12985e-105
3.01216e-106
1.46161e-107
7.00362e-109
3.31409e-110
1.54869e-111
7.14724e-113
3.25755e-114
1.46634e-115
6.51886e-117
2.86229e-118
1.24126e-119
5.31647e-121
2.24903e-122
9.39676e-124
3.87765e-125
1.58038e-126
6.36137e-128
2.52891e-129
9.92931e-131
3.85058e-132
1.4751e-133
5.58347e-135
2.08928e-136
7.73859e-138
2.47427e-12
8.45557e-11
1.67189e-09
2.29299e-08
2.55252e-07
2.3091e-06
1.48301e-05
7.9923e-05
0.000361278
0.00134767
0.00397885
0.0131099
0.0436124
0.14073
0.321014
0.428739
0.468105
0.481896
0.429398
0.256503
0.144505
0.0916156
0.0688118
0.0616109
0.0603203
0.0656943
0.0709183
0.0768017
0.07995
0.0827854
0.0880637
0.107506
0.171308
0.373438
0.688295
0.856528
0.941832
0.977253
0.988591
0.991192
0.984097
0.948296
0.797448
0.484606
0.264615
0.134788
0.0640771