/*--------------------------------*- C++ -*----------------------------------*\
  =========                 |
  \\      /  F ield         | OpenFOAM: The Open Source CFD Toolbox
   \\    /   O peration     | Website:  https://openfoam.org
    \\  /    A nd           | Version:  9
     \\/     M anipulation  |
\*---------------------------------------------------------------------------*/
FoamFile
{
    format      ascii;
    class       volVectorField;
    location    "0.006";
    object      U_0;
}
// * * * * * * * * * * * * * * * * * * * * * * * * * * * * * * * * * * * * * //

dimensions      [0 1 -1 0 0 0 0];

internalField   nonuniform List<vector> 
12225
(
(9.93188 -0.0563351 0)
(9.64142 0.0209252 0)
(9.3138 0.0366375 0)
(9.00096 0.0445914 0)
(8.71202 0.0480043 0)
(8.4156 0.0510841 0)
(8.10847 0.0513433 0)
(7.83281 0.0459085 0)
(7.60361 0.0375241 0)
(7.42544 0.0339279 0)
(7.24811 0.0364639 0)
(7.0916 0.0418532 0)
(6.88873 0.0419532 0)
(6.76076 0.0365022 0)
(6.57235 0.0297048 0)
(6.5284 0.0209016 0)
(6.35392 0.017419 0)
(6.47163 0.0116808 0)
(9.98838 0.090254 0)
(9.95059 0.121625 0)
(9.94729 0.108196 0)
(9.95197 0.0877999 0)
(10.0001 0.0830836 0)
(10.0721 0.0937449 0)
(10.1363 0.0998863 0)
(10.1813 0.0922702 0)
(10.1956 0.0764436 0)
(10.1798 0.0667717 0)
(10.1347 0.0643534 0)
(10.0811 0.0701083 0)
(10.0179 0.0730904 0)
(9.9747 0.0680906 0)
(9.93607 0.0627859 0)
(9.93308 0.0506718 0)
(9.93098 0.0377768 0)
(9.97001 0.0312919 0)
(9.99764 0.0452035 0)
(10.1187 0.0541585 0)
(10.1384 0.0531328 0)
(10.14 0.0358283 0)
(10.1699 0.0188783 0)
(10.2326 0.0158176 0)
(10.3048 0.0216867 0)
(10.3606 0.0301124 0)
(10.3808 0.0401362 0)
(10.3658 0.0542512 0)
(10.3316 0.0695431 0)
(10.2962 0.0807386 0)
(10.2729 0.080244 0)
(10.2638 0.0652213 0)
(10.2699 0.0446895 0)
(10.2925 0.0199431 0)
(10.3276 -0.00162638 0)
(10.3667 -0.0215832 0)
(10.1606 -0.00884276 0)
(10.248 0.0750669 0)
(10.2543 0.0987759 0)
(10.2265 0.0734336 0)
(10.1707 0.0502847 0)
(10.1041 0.0502354 0)
(10.052 0.0605462 0)
(10.0331 0.0677622 0)
(10.0488 0.0711617 0)
(10.0935 0.0770712 0)
(10.159 0.0853403 0)
(10.2338 0.0902103 0)
(10.3059 0.0867183 0)
(10.3642 0.0711797 0)
(10.4024 0.0521563 0)
(10.4245 0.0305132 0)
(10.4329 0.00823603 0)
(10.4331 -0.0130705 0)
(10.3051 0.00312038 0)
(10.2187 0.0578064 0)
(10.1263 0.087518 0)
(10.0874 0.0744583 0)
(10.039 0.0606817 0)
(9.97682 0.0554296 0)
(9.94467 0.0497981 0)
(9.96302 0.038175 0)
(10.0139 0.0249794 0)
(10.0729 0.0179857 0)
(10.1283 0.0187653 0)
(10.1766 0.0228945 0)
(10.218 0.0247131 0)
(10.2516 0.019816 0)
(10.2758 0.010784 0)
(10.2957 -0.00129403 0)
(10.3075 -0.0142411 0)
(10.3174 -0.0259028 0)
(9.96514 -0.021306 0)
(9.99179 0.0845663 0)
(9.99671 0.115127 0)
(9.97907 0.0862548 0)
(10.0015 0.0738781 0)
(10.0565 0.0695206 0)
(10.1126 0.0563775 0)
(10.1488 0.0371627 0)
(10.1583 0.0252405 0)
(10.1512 0.0281919 0)
(10.1441 0.0413529 0)
(10.1444 0.0540693 0)
(10.1509 0.0587375 0)
(10.156 0.0524766 0)
(10.1561 0.0386058 0)
(10.1521 0.0213739 0)
(10.1487 0.00109018 0)
(10.1472 -0.0152017 0)
(10.2152 -0.0296239 0)
(10.0882 0.0911881 0)
(10.0577 0.134781 0)
(10.0731 0.0945697 0)
(10.1107 0.0428712 0)
(10.152 0.0192246 0)
(10.1744 0.0217112 0)
(10.166 0.0301609 0)
(10.1327 0.0326731 0)
(10.0938 0.0293098 0)
(10.0683 0.0239126 0)
(10.0637 0.0189857 0)
(10.0775 0.0149279 0)
(10.1025 0.0100729 0)
(10.1318 0.00300071 0)
(10.1613 -0.00516897 0)
(10.1915 -0.0163865 0)
(10.2204 -0.0300521 0)
(9.78195 -0.0260637 0)
(9.91604 0.0881911 0)
(10.0121 0.0849169 0)
(10.077 0.0520386 0)
(10.1256 0.039064 0)
(10.1576 0.0410027 0)
(10.1701 0.0458419 0)
(10.1707 0.0475397 0)
(10.173 0.0476637 0)
(10.1869 0.0492168 0)
(10.2122 0.0514394 0)
(10.2402 0.050954 0)
(10.2601 0.044869 0)
(10.2667 0.0321834 0)
(10.2635 0.0133512 0)
(10.2566 -0.00760453 0)
(10.2538 -0.0291139 0)
(10.2528 -0.0467116 0)
(10.0407 -0.0823172 0)
(10.0895 0.039449 0)
(10.134 0.116217 0)
(10.1566 0.0786741 0)
(10.204 0.0180754 0)
(10.2734 0.000751422 0)
(10.3179 0.0194785 0)
(10.3104 0.0373027 0)
(10.263 0.0344725 0)
(10.2069 0.0163796 0)
(10.169 -0.00128031 0)
(10.1611 -0.00811496 0)
(10.1805 -0.00466584 0)
(10.2166 0.00193906 0)
(10.2585 0.00433309 0)
(10.2982 -0.00208086 0)
(10.3323 -0.0184998 0)
(10.3615 -0.0406194 0)
(10.1947 0.012573 0)
(10.1529 0.0476057 0)
(10.2266 0.0363117 0)
(10.2579 0.00895405 0)
(10.199 -0.0161109 0)
(10.1294 -0.0101621 0)
(10.1178 0.0256327 0)
(10.1645 0.0670139 0)
(10.2331 0.0914166 0)
(10.2921 0.0920561 0)
(10.3264 0.0745894 0)
(10.335 0.0477237 0)
(10.3222 0.0179531 0)
(10.2987 -0.0104847 0)
(10.2714 -0.0348796 0)
(10.2523 -0.0530903 0)
(10.2387 -0.0675645 0)
(10.2438 -0.0764629 0)
(10.1022 0.00782233 0)
(10.1261 0.024279 0)
(10.0526 0.0895376 0)
(10.0042 0.111996 0)
(9.98444 0.0855559 0)
(9.95845 0.0411815 0)
(9.94368 0.00466359 0)
(9.96596 -0.0169814 0)
(10.022 -0.0293533 0)
(10.0926 -0.0346453 0)
(10.1594 -0.0286285 0)
(10.2082 -0.00979785 0)
(10.2293 0.0152079 0)
(10.223 0.0342897 0)
(10.1967 0.0363406 0)
(10.1648 0.018922 0)
(10.1418 -0.0161901 0)
(10.1303 -0.0598958 0)
(10.253 0.0277729 0)
(10.0103 0.0989157 0)
(9.96943 0.0864258 0)
(10.0841 0.0307883 0)
(10.1903 -0.00213483 0)
(10.2107 0.000563128 0)
(10.1855 0.016274 0)
(10.1717 0.0250123 0)
(10.1837 0.020695 0)
(10.2089 0.0102033 0)
(10.2358 0.00424959 0)
(10.258 0.00701306 0)
(10.2765 0.0134195 0)
(10.2948 0.0157734 0)
(10.3178 0.00830675 0)
(10.3428 -0.0100415 0)
(10.3638 -0.0351625 0)
(10.3734 -0.0642907 0)
(10.0311 0.14321 0)
(10.0616 0.0985659 0)
(10.0967 0.0407316 0)
(10.1306 0.0346076 0)
(10.1439 0.0514119 0)
(10.1284 0.052405 0)
(10.1085 0.0262519 0)
(10.0993 -0.0152423 0)
(10.0927 -0.0525751 0)
(10.0839 -0.0698506 0)
(10.0799 -0.0622962 0)
(10.0855 -0.0379628 0)
(10.1008 -0.0126326 0)
(10.1189 0.00263971 0)
(10.1335 0.000637297 0)
(10.1427 -0.0153522 0)
(10.1449 -0.0419701 0)
(10.1528 -0.070544 0)
(9.984 0.0724949 0)
(10.0353 0.0964989 0)
(10.0293 0.0579974 0)
(10.0463 0.0021746 0)
(10.1149 -0.0225528 0)
(10.2013 -0.00954617 0)
(10.2654 0.0215868 0)
(10.2817 0.0457272 0)
(10.2448 0.0503899 0)
(10.175 0.0386033 0)
(10.101 0.0200446 0)
(10.0409 0.00456194 0)
(9.99974 -0.00373023 0)
(9.97715 -0.00588703 0)
(9.97091 -0.0100195 0)
(9.9788 -0.0195006 0)
(10.0005 -0.0421882 0)
(10.0326 -0.0738588 0)
(9.90167 0.0185718 0)
(10.0317 0.043945 0)
(10.1807 0.0363506 0)
(10.2952 -0.00116367 0)
(10.3282 -0.0270775 0)
(10.2851 -0.03407 0)
(10.2055 -0.0243466 0)
(10.1281 -0.00485403 0)
(10.0749 0.0109066 0)
(10.0522 0.0221525 0)
(10.0536 0.0327201 0)
(10.0694 0.0419279 0)
(10.0905 0.0435979 0)
(10.1146 0.0309101 0)
(10.1418 -0.000300033 0)
(10.1711 -0.0484607 0)
(10.2034 -0.10726 0)
(10.2299 -0.167988 0)
(9.91094 -0.0773883 0)
(9.89991 -0.131984 0)
(9.93263 -0.143337 0)
(10.0122 -0.124235 0)
(10.0891 -0.0337089 0)
(10.1272 0.0819994 0)
(10.1364 0.164566 0)
(10.129 0.179789 0)
(10.1134 0.136628 0)
(10.1052 0.0680778 0)
(10.1118 0.00470428 0)
(10.1342 -0.0387988 0)
(10.1702 -0.0627506 0)
(10.2144 -0.0743735 0)
(10.2585 -0.081268 0)
(10.2948 -0.090036 0)
(10.3181 -0.10242 0)
(10.3265 -0.121602 0)
(10.0926 0.00182339 0)
(10.1124 0.0367215 0)
(10.1596 -0.0116905 0)
(10.0804 -0.0879704 0)
(9.94544 -0.117718 0)
(9.86715 -0.0896447 0)
(9.87707 -0.0368227 0)
(9.93832 0.00205443 0)
(10.014 0.0169289 0)
(10.0777 0.0132434 0)
(10.1178 -0.00241811 0)
(10.1358 -0.0258482 0)
(10.1404 -0.0535198 0)
(10.1398 -0.0833892 0)
(10.1394 -0.113134 0)
(10.1429 -0.141655 0)
(10.1496 -0.168386 0)
(10.161 -0.193661 0)
(9.90167 -0.0385823 0)
(9.97789 -0.145224 0)
(10.019 -0.0912789 0)
(10.0498 0.0872559 0)
(10.0503 0.19789 0)
(10.0357 0.18365 0)
(10.0241 0.094422 0)
(10.0206 -7.72644e-06 0)
(10.028 -0.0623122 0)
(10.0455 -0.0871435 0)
(10.066 -0.0863461 0)
(10.0842 -0.0753794 0)
(10.0981 -0.0666278 0)
(10.1076 -0.0667784 0)
(10.1131 -0.0777434 0)
(10.1154 -0.0977885 0)
(10.1153 -0.123762 0)
(10.1126 -0.151653 0)
(10.1201 0.0561173 0)
(10.0561 -0.0445886 0)
(9.99035 -0.141537 0)
(9.99221 -0.174189 0)
(10.0477 -0.13196 0)
(10.1211 -0.0650654 0)
(10.1687 -0.0148071 0)
(10.1752 0.00474354 0)
(10.1603 -0.00272666 0)
(10.1479 -0.0270107 0)
(10.1491 -0.0567044 0)
(10.1632 -0.0835426 0)
(10.1836 -0.105124 0)
(10.2022 -0.123219 0)
(10.2119 -0.139298 0)
(10.2101 -0.155098 0)
(10.1978 -0.169233 0)
(10.178 -0.183966 0)
(9.96895 -0.0785903 0)
(10.0403 0.0184754 0)
(10.0457 0.00784512 0)
(9.99862 -0.0356806 0)
(9.94146 -0.0440028 0)
(9.91669 -0.0213888 0)
(9.92249 0.00204473 0)
(9.93753 0.00328205 0)
(9.948 -0.0242014 0)
(9.94946 -0.0691293 0)
(9.94553 -0.112772 0)
(9.94519 -0.139549 0)
(9.95416 -0.142982 0)
(9.97153 -0.12602 0)
(9.99222 -0.097421 0)
(10.0113 -0.0693761 0)
(10.0249 -0.0497801 0)
(10.0321 -0.047755 0)
(9.73326 -0.151857 0)
(9.79126 -0.139733 0)
(9.80832 -0.0512609 0)
(9.83847 -0.0128865 0)
(9.86334 -0.0103502 0)
(9.90127 -0.0200695 0)
(9.95243 -0.0276524 0)
(9.9887 -0.0255372 0)
(9.99396 -0.0224128 0)
(9.96925 -0.0346115 0)
(9.92297 -0.0684373 0)
(9.86805 -0.115716 0)
(9.81907 -0.160877 0)
(9.78552 -0.191399 0)
(9.77266 -0.202226 0)
(9.77877 -0.197551 0)
(9.80046 -0.183606 0)
(9.82953 -0.168907 0)
(10.0914 -0.115958 0)
(9.96161 -0.111767 0)
(9.93017 -0.068043 0)
(9.94706 -0.0796749 0)
(9.97668 -0.112191 0)
(9.99698 -0.121919 0)
(10.0014 -0.0966627 0)
(9.99009 -0.0484768 0)
(9.9709 -0.00124589 0)
(9.95348 0.0264081 0)
(9.94296 0.028264 0)
(9.93913 0.00824368 0)
(9.93994 -0.0256568 0)
(9.94038 -0.065451 0)
(9.93868 -0.103066 0)
(9.93594 -0.133046 0)
(9.93635 -0.152946 0)
(9.94238 -0.161613 0)
(10.3047 0.0929254 0)
(10.2022 0.0222621 0)
(10.117 -0.05359 0)
(10.0524 -0.0701669 0)
(9.98895 -0.061625 0)
(9.93704 -0.050055 0)
(9.9242 -0.0284625 0)
(9.94937 0.0005891 0)
(9.99123 0.0163242 0)
(10.027 0.00130441 0)
(10.0433 -0.0422221 0)
(10.0401 -0.0964684 0)
(10.0265 -0.142188 0)
(10.0117 -0.170013 0)
(10.0012 -0.181996 0)
(9.998 -0.185581 0)
(10.0016 -0.189187 0)
(10.0131 -0.198256 0)
(9.59193 -0.0907205 0)
(9.76815 0.0458192 0)
(9.79614 0.0461632 0)
(9.80625 0.0199014 0)
(9.83605 -0.0133911 0)
(9.86707 -0.058464 0)
(9.89084 -0.0930601 0)
(9.91789 -0.0948221 0)
(9.9585 -0.0643265 0)
(10.0056 -0.0227629 0)
(10.0413 0.00658938 0)
(10.0525 0.0101459 0)
(10.0377 -0.012304 0)
(10.0036 -0.0519984 0)
(9.95925 -0.0979038 0)
(9.91483 -0.139833 0)
(9.87612 -0.173664 0)
(9.84837 -0.196581 0)
(9.74591 -0.177512 0)
(9.86717 -0.115522 0)
(9.93163 -0.0603319 0)
(9.99681 -0.0812381 0)
(10.0414 -0.100812 0)
(10.0501 -0.0987256 0)
(10.0266 -0.0855146 0)
(9.98863 -0.0737438 0)
(9.96241 -0.0694259 0)
(9.96282 -0.0717539 0)
(9.98728 -0.0761014 0)
(10.0249 -0.0785805 0)
(10.0628 -0.0790028 0)
(10.0897 -0.0794731 0)
(10.0972 -0.084693 0)
(10.0843 -0.0978633 0)
(10.0549 -0.121064 0)
(10.0162 -0.154459 0)
(10.231 -0.105657 0)
(10.1214 -0.0495657 0)
(10.1517 -0.0379058 0)
(10.1961 -0.0486932 0)
(10.1601 -0.0492545 0)
(10.096 -0.0425628 0)
(10.0687 -0.0403069 0)
(10.085 -0.0408979 0)
(10.1252 -0.0421928 0)
(10.1668 -0.0456651 0)
(10.1933 -0.0525135 0)
(10.2 -0.0624381 0)
(10.1905 -0.0729817 0)
(10.1713 -0.0807473 0)
(10.146 -0.0852086 0)
(10.1146 -0.0879918 0)
(10.0767 -0.0926445 0)
(10.0309 -0.103044 0)
(9.95059 -0.0401866 0)
(10.0247 -0.0678099 0)
(10.0729 -0.0971249 0)
(10.0804 -0.0806039 0)
(10.0761 -0.0521617 0)
(10.1019 -0.0536929 0)
(10.1356 -0.0828711 0)
(10.1314 -0.110253 0)
(10.0805 -0.11732 0)
(10.0089 -0.106629 0)
(9.94397 -0.0886475 0)
(9.89951 -0.0713512 0)
(9.87796 -0.0585674 0)
(9.87567 -0.0504138 0)
(9.88674 -0.0468313 0)
(9.90264 -0.0483851 0)
(9.91874 -0.0564997 0)
(9.92652 -0.073619 0)
(10.1117 -0.0800425 0)
(10.0429 -0.0648006 0)
(10.0149 -0.0635541 0)
(10.0079 -0.0493208 0)
(10.0104 -0.0553098 0)
(10.0183 -0.0632779 0)
(10.0233 -0.0497437 0)
(10.019 -0.0190298 0)
(10.0124 0.00781505 0)
(10.0128 0.0143848 0)
(10.0216 -0.00078703 0)
(10.0353 -0.0282425 0)
(10.0529 -0.0569148 0)
(10.0767 -0.0798262 0)
(10.1086 -0.0937318 0)
(10.1431 -0.0996513 0)
(10.1753 -0.0993608 0)
(10.1924 -0.0962917 0)
(10.0777 0.0864114 0)
(10.2497 -0.0369669 0)
(10.1453 -0.0877124 0)
(10.0762 -0.0757373 0)
(10.072 -0.0636897 0)
(10.0713 -0.0692039 0)
(10.0486 -0.0835488 0)
(10.0171 -0.0941534 0)
(10.0016 -0.0950773 0)
(10.0114 -0.088564 0)
(10.034 -0.0810992 0)
(10.0493 -0.0782964 0)
(10.0452 -0.0811742 0)
(10.0215 -0.087646 0)
(9.98494 -0.0938241 0)
(9.94424 -0.0974849 0)
(9.90403 -0.0962846 0)
(9.86995 -0.091263 0)
(9.7496 -0.121241 0)
(9.65016 -0.0308646 0)
(9.51574 -0.00193356 0)
(9.36779 -0.0282406 0)
(9.17034 -0.0532998 0)
(8.97158 -0.0491235 0)
(8.80197 -0.0285451 0)
(8.65419 -0.012428 0)
(8.51755 -0.0100498 0)
(8.38693 -0.0186946 0)
(8.25616 -0.0303963 0)
(8.11976 -0.0395063 0)
(7.97628 -0.0450675 0)
(7.82691 -0.0488949 0)
(7.67299 -0.05215 0)
(7.5184 -0.0548961 0)
(7.36528 -0.0557022 0)
(7.22486 -0.0542454 0)
(-0.0578503 0.120329 4.85491e-20)
(-0.18114 0.12665 -4.81845e-20)
(-0.307403 0.127786 0)
(-0.436438 0.129366 0)
(-0.566122 0.131029 0)
(-0.698089 0.132774 4.66733e-20)
(-0.83138 0.134394 0)
(-0.966145 0.135649 0)
(-1.10182 0.136307 0)
(-1.23794 0.136215 0)
(-1.3737 0.135195 -4.47842e-20)
(-1.50856 0.133153 0)
(-1.64151 0.130085 0)
(-1.7713 0.125913 0)
(-1.89684 0.120526 0)
(-2.01688 0.113911 -4.29475e-20)
(-2.12996 0.106012 0)
(-2.2347 0.0968151 0)
(-2.32969 0.0863795 0)
(-2.41338 0.0747231 0)
(-2.48432 0.0619336 0)
(-2.54112 0.0481274 0)
(-2.58246 0.0334958 0)
(-2.60716 0.0182814 -4.03878e-20)
(-2.61406 0.00274061 4.01194e-20)
(-2.60279 -0.0128572 -3.98628e-20)
(-2.57305 -0.0283103 -3.96191e-20)
(-2.52459 -0.0435263 0)
(-2.4576 -0.0582975 0)
(-2.37254 -0.0724193 3.89587e-20)
(-2.27004 -0.0856525 3.87582e-20)
(-2.15093 -0.0978772 0)
(-2.01654 -0.108992 0)
(-1.86812 -0.118726 3.81935e-20)
(-1.70707 -0.12708 0)
(-1.53512 -0.13404 0)
(-1.35381 -0.139559 -3.76472e-20)
(-1.16486 -0.143689 0)
(-0.96985 -0.146476 -3.72719e-20)
(-0.770331 -0.148006 -7.41543e-20)
(-0.567824 -0.148397 0)
(-0.363931 -0.147727 0)
(-0.1597 -0.146071 0)
(0.0433014 -0.143765 0)
(0.244039 -0.140614 0)
(0.442116 -0.136896 -7.14004e-20)
(0.636426 -0.132711 -7.08573e-20)
(0.82629 -0.128152 -7.03043e-20)
(1.01115 -0.12331 0)
(1.19057 -0.118266 6.91716e-20)
(1.36419 -0.113092 0)
(1.53175 -0.107853 -6.80097e-20)
(1.69309 -0.102602 -6.74201e-20)
(1.84808 -0.0973855 0)
(1.99669 -0.092243 0)
(2.13891 -0.0872058 0)
(2.27479 -0.0822994 -6.50249e-20)
(2.40442 -0.077544 0)
(2.52792 -0.0729548 0)
(2.64542 -0.068543 0)
(2.75709 -0.0643162 0)
(2.86309 -0.0602788 0)
(2.96361 -0.056433 0)
(3.05885 -0.0527786 0)
(3.14901 -0.0493138 0)
(3.23429 -0.0460353 5.96047e-20)
(3.3149 -0.0429389 0)
(3.39102 -0.0400191 0)
(3.46288 -0.0372702 -5.78323e-20)
(3.53065 -0.0346858 -5.72477e-20)
(3.59455 -0.0322592 0)
(3.65475 -0.0299834 5.60886e-20)
(3.71144 -0.0278514 -5.55144e-20)
(3.76479 -0.0258561 0)
(3.81499 -0.0239905 5.43769e-20)
(3.86218 -0.0222475 0)
(3.90654 -0.0206204 0)
(3.9482 -0.0191025 -5.2699e-20)
(3.98733 -0.0176874 0)
(4.02406 -0.016369 5.15997e-20)
(4.05851 -0.0151411 0)
(4.09082 -0.0139983 -5.0516e-20)
(4.12111 -0.0129351 -4.99799e-20)
(4.14949 -0.0119462 -4.94478e-20)
(4.17607 -0.0110268 -9.78389e-20)
(4.20096 -0.0101724 9.679e-20)
(4.22424 -0.00937849 0)
(4.24602 -0.00864094 0)
(4.26637 -0.00795601 0)
(4.28539 -0.00732012 9.26703e-20)
(4.30315 -0.0067295 9.16592e-20)
(4.31973 -0.00618129 -9.06554e-20)
(4.33519 -0.00567294 0)
(4.3496 -0.00520066 8.86697e-20)
(4.36303 -0.00476185 8.76877e-20)
(4.37553 -0.0043562 8.67128e-20)
(4.38715 -0.00397992 0)
(4.39796 -0.00362744 0)
(4.40799 -0.00330217 0)
(4.41729 -0.00300626 8.28834e-20)
(4.42592 -0.00272465 0)
(4.4339 -0.00245497 0)
(4.44128 -0.00222098 -8.0083e-20)
(4.4481 -0.00200843 0)
(4.45439 -0.00177905 0)
(4.46015 -0.00156813 -7.73421e-20)
(4.46546 -0.00139627 0)
(4.47031 -0.00119868 0)
(4.47467 -0.000953269 7.4659e-20)
(4.47854 -0.000676869 7.37771e-20)
(4.4819 -0.000397381 0)
(4.48477 -0.000133213 -7.20319e-20)
(4.4872 9.18366e-05 0)
(4.48922 0.000262496 7.0311e-20)
(4.49093 0.000377759 0)
(4.49237 0.000447646 6.86138e-20)
(4.49359 0.000486492 6.77739e-20)
(4.49463 0.000507279 0)
(4.49549 0.000519037 0)
(4.49621 0.000526916 0)
(4.49678 0.000533317 0)
(4.49721 0.000539146 0)
(4.49751 0.00054467 0)
(4.4977 0.000549959 0)
(4.49777 0.000555027 6.12579e-20)
(4.49773 0.000559879 -6.04679e-20)
(4.4976 0.000564493 0)
(4.49737 0.000568872 0)
(4.49705 0.00057302 0)
(4.49665 0.000576964 0)
(4.49617 0.000580716 -1.13192e-19)
(4.49562 0.000584297 0)
(4.495 0.000587709 1.10165e-19)
(4.49432 0.000590963 -1.08667e-19)
(4.49357 0.000594066 0)
(4.49276 0.000597037 0)
(4.4919 0.00059989 0)
(4.49099 0.000602662 1.02769e-19)
(4.49003 0.00060537 1.01319e-19)
(4.48902 0.000608044 0)
(4.48796 0.000610694 9.84448e-20)
(4.48686 0.000613341 9.70216e-20)
(4.48572 0.000616012 -9.56073e-20)
(4.48454 0.00061874 0)
(4.48332 0.000621558 0)
(4.48206 0.000624509 -9.14175e-20)
(4.48076 0.000627645 0)
(4.47943 0.000631035 0)
(4.47806 0.000634757 0)
(4.47665 0.00063891 0)
(4.4752 0.000643606 8.46057e-20)
(4.47371 0.000648993 8.32682e-20)
(4.47218 0.000655241 0)
(4.47061 0.000662576 8.06175e-20)
(4.46898 0.000671266 0)
(4.46731 0.000681679 0)
(4.46557 0.000694236 7.67007e-20)
(4.46377 0.000709564 0)
(4.46189 0.00072824 7.41282e-20)
(4.45991 0.000751521 0)
(4.45783 0.000779805 0)
(4.45562 0.000816366 7.03263e-20)
(4.45324 0.000859477 0)
(4.45067 0.000919117 6.78291e-20)
(4.44783 0.000985113 0)
(4.44473 0.00108427 0)
(4.44111 0.00119186 0)
(4.43723 0.00134557 -6.29249e-20)
(4.43223 0.00156093 0)
(4.42715 0.00174064 6.05198e-20)
(4.41966 0.00227767 0)
(4.41249 0.00232158 0)
(4.40066 0.0037599 0)
(4.38904 0.00315815 0)
(4.36987 0.00716635 0)
(4.34625 0.00427426 0)
(4.31555 0.0163672 0)
(4.2519 0.00704309 -1.02725e-19)
(4.20187 0.0519326 0)
(3.98025 0.0414327 0)
(-0.0658765 0.395491 -1.45578e-19)
(-0.212585 0.417181 1.44472e-19)
(-0.357855 0.417634 0)
(-0.50591 0.41872 -9.47893e-20)
(-0.652381 0.418934 0)
(-0.798905 0.418852 -4.66426e-20)
(-0.944068 0.417918 9.25029e-20)
(-1.08807 0.415839 9.17412e-20)
(-1.23019 0.412259 0)
(-1.3701 0.406897 9.02226e-20)
(-1.50723 0.399448 4.47523e-20)
(-1.64106 0.389686 0)
(-1.77089 0.377431 0)
(-1.89611 0.36244 0)
(-2.01594 0.344486 0)
(-2.12946 0.323433 4.29233e-20)
(-2.23559 0.299129 0)
(-2.33311 0.271434 -8.43892e-20)
(-2.42089 0.24037 0)
(-2.49768 0.205954 0)
(-2.56225 0.168331 8.24284e-20)
(-2.61334 0.127773 0)
(-2.64967 0.0846578 -8.12349e-20)
(-2.67021 0.0394843 4.0382e-20)
(-2.67407 -0.00716447 -4.01148e-20)
(-2.65957 -0.0546894 3.98567e-20)
(-2.62586 -0.102333 3.96117e-20)
(-2.57281 -0.14938 0)
(-2.50045 -0.195132 0)
(-2.40915 -0.238908 -3.89478e-20)
(-2.29965 -0.280001 3.86846e-20)
(-2.17305 -0.317873 0)
(-2.03056 -0.352088 0)
(-1.87348 -0.382199 -3.81803e-20)
(-1.70359 -0.408112 0)
(-1.52263 -0.429579 0)
(-1.33222 -0.446682 3.76341e-20)
(-1.13421 -0.459474 0)
(-0.93023 -0.468151 -3.72431e-20)
(-0.721921 -0.472963 7.41312e-20)
(-0.510793 -0.474219 0)
(-0.298375 -0.472333 0)
(-0.0860749 -0.467444 1.45767e-19)
(0.124945 -0.460323 1.44812e-19)
(0.333755 -0.450904 1.43772e-19)
(0.539527 -0.439717 -7.13527e-20)
(0.741418 -0.427085 7.08141e-20)
(0.938769 -0.413306 2.10782e-19)
(1.13105 -0.398655 -1.39398e-19)
(1.31783 -0.383376 -6.91297e-20)
(1.49879 -0.367686 0)
(1.6737 -0.351773 6.79688e-20)
(1.84239 -0.335799 -6.73785e-20)
(2.00476 -0.319901 0)
(2.16079 -0.304193 0)
(2.31048 -0.28877 0)
(2.45388 -0.273708 6.49867e-20)
(2.59108 -0.259067 0)
(2.7222 -0.244893 -1.27555e-19)
(2.84736 -0.231221 0)
(2.96672 -0.218074 -1.25138e-19)
(3.08045 -0.205469 0)
(3.18872 -0.193412 1.22727e-19)
(3.29172 -0.181906 0)
(3.38964 -0.170947 -1.2033e-19)
(3.48266 -0.160528 5.95678e-20)
(3.57097 -0.150638 0)
(3.65477 -0.141265 1.1677e-19)
(3.73423 -0.132394 5.77987e-20)
(3.80956 -0.124007 5.72143e-20)
(3.88092 -0.116087 0)
(3.9485 -0.108617 5.60536e-20)
(4.01246 -0.101576 5.54817e-20)
(4.07298 -0.0949459 0)
(4.13021 -0.0887081 -5.43447e-20)
(4.18431 -0.0828434 1.07562e-19)
(4.23544 -0.0773333 0)
(4.28373 -0.0721597 5.26675e-20)
(4.32933 -0.0673049 0)
(4.37237 -0.0627518 -1.54705e-19)
(4.41298 -0.0584837 0)
(4.45127 -0.0544848 1.51455e-19)
(4.48738 -0.0507399 4.99498e-20)
(4.52141 -0.0472341 -4.94167e-20)
(4.55347 -0.0439536 -9.77775e-20)
(4.58366 -0.0408851 9.67293e-20)
(4.61208 -0.0380158 0)
(4.63883 -0.0353338 0)
(4.66399 -0.0328275 0)
(4.68764 -0.0304863 -2.77841e-19)
(4.70988 -0.0282998 -9.16036e-20)
(4.73077 -0.0262584 9.06005e-20)
(4.7504 -0.0243532 0)
(4.76882 -0.0225755 8.86149e-20)
(4.78611 -0.0209166 -8.76348e-20)
(4.80232 -0.01937 -8.66606e-20)
(4.81753 -0.0179284 0)
(4.83178 -0.0165832 0)
(4.84513 -0.0153293 0)
(4.85763 -0.014164 -8.2834e-20)
(4.86933 -0.0130771 0)
(4.88027 -0.01206 1.61923e-19)
(4.89052 -0.0111177 2.40106e-19)
(4.90008 -0.0102446 -1.58232e-19)
(4.90901 -0.00942032 0)
(4.91737 -0.00865103 -7.72964e-20)
(4.92515 -0.00793594 0)
(4.93242 -0.00724968 -1.51006e-19)
(4.93927 -0.00660394 7.46154e-20)
(4.94573 -0.00599535 7.37343e-20)
(4.95185 -0.00540199 0)
(4.9577 -0.00484324 2.15971e-19)
(4.96327 -0.00433848 -1.42255e-19)
(4.96858 -0.00389271 -7.02707e-20)
(4.97363 -0.00350364 0)
(4.97839 -0.0031631 -6.85745e-20)
(4.98286 -0.00286036 -2.03205e-19)
(4.98704 -0.00258604 0)
(4.99094 -0.00233372 -1.32147e-19)
(4.99457 -0.00209968 -1.30503e-19)
(4.99794 -0.00188214 -1.2887e-19)
(5.00106 -0.00168015 0)
(5.00394 -0.00149308 0)
(5.00661 -0.0013202 0)
(5.00908 -0.00116071 6.12233e-20)
(5.01136 -0.00101372 6.0434e-20)
(5.01346 -0.000878366 0)
(5.0154 -0.000753817 1.17742e-19)
(5.01718 -0.000639282 1.16194e-19)
(5.01882 -0.000533985 0)
(5.02032 -0.000437216 1.1313e-19)
(5.02171 -0.000348292 2.23225e-19)
(5.02298 -0.000266606 -1.10105e-19)
(5.02414 -0.000191582 -1.08608e-19)
(5.0252 -0.0001227 0)
(5.02617 -5.9455e-05 0)
(5.02706 -1.39003e-06 0)
(5.02787 5.19412e-05 -1.02715e-19)
(5.0286 0.00010094 1.01265e-19)
(5.02927 0.000146006 1.99649e-19)
(5.02987 0.000187493 -9.83934e-20)
(5.03042 0.00022574 9.69711e-20)
(5.03091 0.000261067 9.5558e-20)
(5.03135 0.000293804 0)
(5.03175 0.000324276 0)
(5.0321 0.000352807 -9.1371e-20)
(5.03241 0.000379713 0)
(5.03269 0.000405325 0)
(5.03292 0.000429997 1.74523e-19)
(5.03313 0.000454125 0)
(5.03329 0.00047814 8.45638e-20)
(5.03343 0.000502533 -8.32273e-20)
(5.03353 0.000527859 0)
(5.0336 0.000554777 8.05782e-20)
(5.03363 0.000584079 0)
(5.03363 0.000616739 0)
(5.03359 0.000653951 -7.66641e-20)
(5.03349 0.000697216 1.50749e-19)
(5.03335 0.000748383 -7.40932e-20)
(5.03314 0.000809872 0)
(5.03286 0.000884566 0)
(5.03248 0.000976595 7.02933e-20)
(5.03201 0.0010905 0)
(5.03137 0.00123315 6.77974e-20)
(5.03059 0.00141395 0)
(5.02951 0.00163775 0)
(5.02829 0.00194251 0)
(5.02645 0.00228258 6.28966e-20)
(5.02454 0.00284983 0)
(5.02133 0.0033146 -6.04927e-20)
(5.01833 0.00449734 0)
(5.01262 0.00498708 0)
(5.00771 0.00769961 1.13902e-19)
(4.99729 0.00777425 -1.11584e-19)
(4.9887 0.0145713 0)
(4.96872 0.0129295 0)
(4.95228 0.031922 0)
(4.91216 0.0273253 3.07935e-19)
(4.88 0.093225 0)
(4.81407 0.105124 -1.96879e-19)
(-0.0635234 0.691349 3.47341e-23)
(-0.207776 0.728131 -1.92501e-19)
(-0.349648 0.726578 0)
(-0.494985 0.725227 1.89463e-19)
(-0.639112 0.721831 0)
(-0.784063 0.717633 0)
(-0.92852 0.711985 -4.45354e-23)
(-1.07286 0.70463 -9.17064e-20)
(-1.21653 0.695254 -9.08937e-20)
(-1.35935 0.683505 -9.01886e-20)
(-1.50081 0.668975 0)
(-1.64043 0.651281 0)
(-1.77755 0.62994 8.78597e-20)
(-1.91139 0.604472 1.74227e-19)
(-2.04092 0.574493 -1.72752e-19)
(-2.16503 0.539594 0)
(-2.28248 0.499449 -1.69868e-19)
(-2.39174 0.453792 8.43532e-20)
(-2.49125 0.402477 0)
(-2.57938 0.345493 -1.65785e-19)
(-2.65441 0.283001 -8.23948e-20)
(-2.71466 0.215397 1.63284e-19)
(-2.75853 0.14323 8.12054e-20)
(-2.78459 0.0671821 0)
(-2.79163 -0.0118135 -1.59934e-19)
(-2.77836 -0.0927196 -1.58901e-19)
(-2.74394 -0.174172 0)
(-2.68826 -0.254759 -1.57013e-19)
(-2.61164 -0.33311 0)
(-2.51461 -0.407925 -1.55333e-19)
(-2.39808 -0.47804 -7.73886e-20)
(-2.26336 -0.542467 0)
(-2.11199 -0.600325 0)
(-1.94572 -0.65108 0)
(-1.76641 -0.694424 0)
(-1.576 -0.730087 0)
(-1.37649 -0.758184 0)
(-1.16982 -0.778917 -1.49593e-19)
(-0.957826 -0.792616 2.23323e-19)
(-0.742214 -0.799813 0)
(-0.524701 -0.800883 0)
(-0.306641 -0.796779 0)
(-0.0895464 -0.787848 -2.1229e-23)
(0.125343 -0.774906 -1.44742e-19)
(0.337377 -0.758466 -2.87395e-19)
(0.545625 -0.73914 2.85276e-19)
(0.749341 -0.717487 1.41554e-19)
(0.947947 -0.694013 -1.40458e-19)
(1.14098 -0.669175 4.00893e-24)
(1.3281 -0.643378 -1.38197e-19)
(1.50904 -0.616977 0)
(1.68364 -0.590277 -1.35882e-19)
(1.85179 -0.563541 3.09322e-24)
(2.01345 -0.536987 0)
(2.16863 -0.510798 0)
(2.31739 -0.485121 1.31132e-19)
(2.45981 -0.460077 0)
(2.59601 -0.435757 0)
(2.72613 -0.412232 -1.27514e-19)
(2.85032 -0.389553 -2.52623e-19)
(2.96876 -0.367754 1.25109e-19)
(3.08163 -0.346857 0)
(3.18911 -0.326872 -1.22703e-19)
(3.2914 -0.307797 0)
(3.38868 -0.289626 -1.20301e-19)
(3.48115 -0.272344 -1.19119e-19)
(3.569 -0.255932 2.35859e-19)
(3.65243 -0.240367 1.16746e-19)
(3.73162 -0.225624 0)
(3.80674 -0.211674 -2.28817e-19)
(3.87799 -0.198487 0)
(3.94552 -0.186034 -3.36285e-19)
(4.00952 -0.174283 -2.21894e-19)
(4.07014 -0.163203 -2.19615e-19)
(4.12753 -0.152764 2.1735e-19)
(4.18186 -0.142933 -3.22654e-19)
(4.23326 -0.133683 0)
(4.28187 -0.124983 0)
(4.32783 -0.116804 2.08443e-19)
(4.37127 -0.10912 3.09384e-19)
(4.41231 -0.101904 0)
(4.45107 -0.0951298 -1.00964e-19)
(4.48765 -0.0887738 0)
(4.52218 -0.0828122 2.96486e-19)
(4.55476 -0.0772227 3.19071e-24)
(4.58547 -0.0719841 -2.99366e-24)
(4.61443 -0.067076 -1.91369e-19)
(4.64171 -0.0624792 0)
(4.6674 -0.0581754 1.87253e-19)
(4.6916 -0.0541472 2.29996e-24)
(4.71436 -0.0503781 0)
(4.73578 -0.0468529 0)
(4.75592 -0.0435566 0)
(4.77486 -0.0404749 -1.77226e-19)
(4.79264 -0.0375957 0)
(4.80935 -0.0349064 0)
(4.82503 -0.0323935 0)
(4.83975 -0.0300478 0)
(4.85355 -0.0278611 0)
(4.86648 -0.0258186 -1.65662e-19)
(4.87861 -0.0239106 0)
(4.88996 -0.0221371 -1.61919e-19)
(4.90059 -0.0204857 -1.60067e-19)
(4.91054 -0.0189388 1.58229e-19)
(4.91984 -0.0174989 0)
(4.92853 -0.0161623 1.5459e-19)
(4.93667 -0.0149198 0)
(4.94424 -0.0137735 1.51003e-19)
(4.95129 -0.0127091 -1.49229e-19)
(4.9579 -0.011706 -4.42399e-19)
(4.9641 -0.0107713 0)
(4.9699 -0.0099326 -4.31935e-19)
(4.97531 -0.0091724 -1.42252e-19)
(4.98036 -0.00847767 0)
(4.98508 -0.00783633 -2.77673e-19)
(4.98947 -0.00723687 -2.74292e-19)
(4.99355 -0.00667154 4.06403e-19)
(4.99734 -0.00613696 0)
(5.00086 -0.00563255 1.32145e-19)
(5.00413 -0.00515875 1.30501e-19)
(5.00716 -0.00471588 3.86603e-19)
(5.00998 -0.00430366 0)
(5.01259 -0.00392116 0)
(5.015 -0.00356702 0)
(5.01724 -0.00323962 1.22445e-19)
(5.01932 -0.00293728 0)
(5.02124 -0.00265836 0)
(5.02301 -0.00240124 -1.1774e-19)
(5.02466 -0.00216441 -1.16192e-19)
(5.02617 -0.0019464 0)
(5.02757 -0.00174583 0)
(5.02887 -0.00156141 -2.23222e-19)
(5.03006 -0.00139195 0)
(5.03116 -0.00123631 2.17213e-19)
(5.03218 -0.00109343 2.14237e-19)
(5.03311 -0.000962297 0)
(5.03397 -0.000841985 0)
(5.03477 -0.000731621 -2.05427e-19)
(5.0355 -0.000630396 -6.60099e-26)
(5.03617 -0.000537539 -6.10837e-26)
(5.03678 -0.000452329 0)
(5.03735 -0.000374068 -3.87879e-19)
(5.03787 -0.000302097 0)
(5.03834 -0.00023577 0)
(5.03878 -0.000174461 0)
(5.03918 -0.000117553 1.82739e-19)
(5.03954 -6.44419e-05 0)
(5.03987 -1.45124e-05 -3.54487e-19)
(5.04017 3.28716e-05 -1.74521e-19)
(5.04044 7.83876e-05 0)
(5.04068 0.000122768 -1.69125e-19)
(5.04089 0.000166827 0)
(5.04107 0.000211492 0)
(5.04123 0.000257845 -4.83462e-19)
(5.04135 0.000307176 3.17058e-19)
(5.04143 0.000360998 0)
(5.04148 0.000421235 3.06651e-19)
(5.04149 0.000490057 -1.50747e-19)
(5.04144 0.000570643 0)
(5.04134 0.000665949 0)
(5.04116 0.000782012 0)
(5.04089 0.000921703 -4.21753e-19)
(5.04052 0.00109882 0)
(5.04 0.00131054 -1.35593e-19)
(5.03932 0.00159501 0)
(5.03839 0.00191912 0)
(5.03724 0.00240269 0)
(5.03561 0.00289078 0)
(5.03367 0.00376815 0)
(5.03086 0.00447781 0)
(5.02758 0.00616259 -2.37197e-19)
(5.02268 0.00717645 0)
(5.01705 0.0105679 -1.139e-19)
(5.00827 0.0120388 3.34726e-19)
(4.99824 0.0194604 0)
(4.98216 0.0219332 0)
(4.96352 0.0404565 -2.09542e-19)
(4.9349 0.048856 -2.05249e-19)
(4.9032 0.102563 2.0082e-19)
(4.86763 0.141068 1.96857e-19)
(-0.0623746 0.978745 2.90696e-19)
(-0.206426 1.03158 2.88475e-19)
(-0.347813 1.02923 1.90765e-19)
(-0.493421 1.02706 9.45686e-20)
(-0.638559 1.02231 0)
(-0.785418 1.01667 -1.86175e-19)
(-0.932902 1.00918 9.22556e-20)
(-1.08142 0.999623 0)
(-1.23046 0.987596 9.08508e-20)
(-1.37992 0.972518 0)
(-1.52917 0.953784 -1.78467e-19)
(-1.67771 0.930697 0)
(-1.82485 0.902517 -8.78128e-20)
(-1.9696 0.868522 -1.74131e-19)
(-2.11081 0.828 1.72654e-19)
(-2.2472 0.780206 0)
(-2.37726 0.724521 1.69768e-19)
(-2.49922 0.660491 0)
(-2.61123 0.587784 0)
(-2.71132 0.506321 1.65688e-19)
(-2.79739 0.416329 0)
(-2.86735 0.318329 -4.42473e-22)
(-2.91928 0.213157 0)
(-2.95138 0.101989 0)
(-2.96208 -0.0136844 4.62425e-22)
(-2.94974 -0.132232 1.58822e-19)
(-2.91343 -0.251486 1.57399e-19)
(-2.85304 -0.36937 1.56919e-19)
(-2.76891 -0.483774 0)
(-2.66187 -0.592669 3.10094e-19)
(-2.53328 -0.694274 0)
(-2.38483 -0.787086 1.53409e-19)
(-2.21851 -0.869933 0)
(-2.03659 -0.94197 0)
(-1.84139 -1.00275 -1.51404e-19)
(-1.63528 -1.05216 0)
(-1.42061 -1.09039 1.50077e-19)
(-1.19961 -1.11783 1.12338e-22)
(-0.974366 -1.13504 -2.97467e-19)
(-0.746636 -1.14295 2.95915e-19)
(-0.518414 -1.1424 0)
(-0.291176 -1.13421 0)
(-0.0661091 -1.11958 1.45533e-19)
(0.155484 -1.09935 0)
(0.372996 -1.07441 1.43612e-19)
(0.585588 -1.04562 -1.42555e-19)
(0.792628 -1.01377 -1.41477e-19)
(0.993647 -0.979565 0)
(1.1883 -0.943642 1.39261e-19)
(1.37634 -0.906557 1.38128e-19)
(1.55762 -0.868793 -2.73948e-19)
(1.73206 -0.830761 1.35818e-19)
(1.89963 -0.792811 1.34646e-19)
(2.06039 -0.755233 0)
(2.2144 -0.718267 0)
(2.36177 -0.682104 -1.31081e-19)
(2.50265 -0.646896 0)
(2.63719 -0.612759 0)
(2.76558 -0.579781 2.54953e-19)
(2.88798 -0.548024 2.52544e-19)
(3.00461 -0.517525 0)
(3.11567 -0.488309 0)
(3.22135 -0.460381 0)
(3.32187 -0.433736 0)
(3.41742 -0.408358 2.40554e-19)
(3.50821 -0.384224 -2.38167e-19)
(3.59444 -0.361305 -2.35811e-19)
(3.6763 -0.339567 -4.669e-19)
(3.75399 -0.31897 0)