/*--------------------------------*- C++ -*----------------------------------*\
  =========                 |
  \\      /  F ield         | OpenFOAM: The Open Source CFD Toolbox
   \\    /   O peration     | Website:  https://openfoam.org
    \\  /    A nd           | Version:  9
     \\/     M anipulation  |
\*---------------------------------------------------------------------------*/
FoamFile
{
    format      ascii;
    class       volScalarField;
    location    "0.07";
    object      nut;
}
// * * * * * * * * * * * * * * * * * * * * * * * * * * * * * * * * * * * * * //

dimensions      [0 2 -1 0 0 0 0];

internalField   nonuniform List<scalar> 
12225
(
4.04768e-05
3.83178e-05
3.62505e-05
3.44201e-05
3.29524e-05
3.18987e-05
3.12582e-05
3.09973e-05
3.1064e-05
3.13993e-05
3.19447e-05
3.2647e-05
3.34602e-05
3.43465e-05
3.5279e-05
3.62346e-05
3.72344e-05
3.87323e-05
0.000281045
0.000209261
0.000176259
0.000157431
0.000146261
0.000139676
0.000135782
0.000133419
0.000131904
0.000130848
0.000130034
0.000129348
0.000128733
0.000128158
0.000127627
0.000127078
0.000126762
0.000125484
0.000556042
0.000419894
0.000349794
0.000304707
0.000272408
0.000247932
0.000228701
0.00021322
0.000200574
0.000190151
0.000181512
0.000174316
0.000168291
0.00016321
0.000158897
0.00015513
0.000151846
0.000148344
0.000740305
0.000625809
0.000544093
0.000484962
0.000439718
0.000403577
0.000373742
0.000348475
0.000326687
0.00030768
0.000290976
0.000276227
0.000263155
0.00025152
0.000241112
0.000231665
0.000222998
0.000214646
0.000817068
0.000759134
0.000700527
0.000648543
0.000603843
0.000565505
0.000532364
0.000503366
0.000477684
0.000454706
0.000433983
0.000415174
0.000398013
0.000382271
0.000367748
0.00035421
0.00034147
0.000329332
0.0008421
0.000819684
0.000789912
0.000757581
0.000725511
0.000695098
0.00066687
0.000640884
0.000616994
0.000594997
0.000574685
0.000555865
0.000538363
0.000522018
0.000506679
0.00049218
0.000478386
0.000465312
0.000849261
0.000841806
0.000829735
0.000814173
0.000796453
0.000777716
0.00075878
0.000740155
0.000722128
0.000704841
0.000688352
0.000672664
0.000657748
0.000643556
0.000630026
0.000617084
0.00060467
0.000592911
0.00085112
0.000848747
0.000844477
0.000838229
0.000830231
0.000820868
0.000810555
0.000799656
0.000788459
0.000777179
0.00076597
0.000754933
0.000744135
0.000733611
0.000723376
0.00071343
0.000703777
0.00069458
0.00085156
0.000850665
0.000849168
0.000846883
0.000843733
0.000839744
0.000835009
0.000829655
0.000823818
0.000817623
0.000811183
0.000804591
0.000797919
0.000791226
0.000784553
0.000777934
0.000771404
0.000765104
0.000851652
0.000851133
0.000850467
0.000849562
0.000848343
0.000846764
0.000844813
0.000842499
0.000839852
0.000836912
0.000833724
0.000830333
0.00082678
0.000823105
0.000819341
0.000815518
0.00081167
0.000807897
0.000851668
0.000851231
0.000850778
0.000850277
0.000849695
0.000849002
0.000848175
0.0008472
0.00084607
0.000844789
0.000843364
0.000841805
0.000840128
0.000838347
0.000836478
0.000834537
0.000832545
0.000830559
0.000851669
0.000851245
0.000850835
0.000850428
0.000850012
0.000849572
0.000849096
0.000848573
0.000847992
0.000847351
0.000846645
0.000845875
0.000845043
0.000844153
0.00084321
0.00084222
0.000841194
0.000840166
0.000851668
0.000851245
0.000850843
0.000850459
0.000850087
0.000849724
0.000849362
0.000848997
0.000848622
0.000848234
0.000847829
0.000847406
0.000846961
0.000846496
0.00084601
0.000845505
0.000844986
0.00084447
0.000851667
0.000851242
0.00085084
0.000850458
0.000850096
0.00084975
0.000849419
0.000849099
0.000848789
0.000848486
0.000848188
0.000847894
0.000847602
0.000847311
0.000847021
0.00084673
0.000846442
0.000846168
0.000851666
0.000851239
0.000850835
0.000850452
0.00085009
0.000849746
0.000849418
0.000849107
0.00084881
0.000848526
0.000848254
0.000847993
0.000847742
0.000847501
0.000847269
0.000847046
0.000846832
0.000846639
0.000851665
0.000851237
0.000850831
0.000850447
0.000850083
0.000849737
0.000849409
0.000849097
0.000848801
0.000848519
0.00084825
0.000847994
0.00084775
0.000847518
0.000847296
0.000847085
0.000846886
0.00084671
0.000851664
0.000851235
0.000850828
0.000850443
0.000850077
0.00084973
0.000849401
0.000849088
0.000848791
0.000848508
0.000848239
0.000847982
0.000847738
0.000847505
0.000847284
0.000847073
0.000846874
0.000846698
0.000851664
0.000851234
0.000850826
0.00085044
0.000850073
0.000849726
0.000849396
0.000849082
0.000848784
0.0008485
0.00084823
0.000847972
0.000847727
0.000847493
0.00084727
0.000847058
0.000846858
0.00084668
0.000851663
0.000851233
0.000850826
0.000850439
0.000850072
0.000849724
0.000849394
0.00084908
0.000848781
0.000848497
0.000848226
0.000847968
0.000847722
0.000847487
0.000847263
0.00084705
0.000846848
0.000846669
0.000851664
0.000851234
0.000850827
0.00085044
0.000850074
0.000849727
0.000849397
0.000849083
0.000848785
0.0008485
0.000848229
0.00084797
0.000847723
0.000847487
0.000847262
0.000847046
0.000846842
0.00084666
0.000851664
0.000851235
0.000850829
0.000850444
0.000850078
0.000849731
0.0008494
0.000849084
0.000848782
0.000848493
0.000848214
0.000847946
0.000847686
0.000847435
0.000847191
0.000846955
0.000846727
0.000846518
0.000851665
0.000851237
0.00085083
0.000850442
0.000850069
0.000849707
0.000849353
0.000849002
0.000848651
0.000848298
0.00084794
0.000847577
0.000847207
0.00084683
0.000846445
0.000846053
0.000845657
0.00084527
0.000851664
0.000851228
0.000850795
0.000850348
0.000849871
0.000849347
0.000848765
0.000848115
0.000847394
0.000846601
0.000845738
0.00084481
0.000843822
0.000842781
0.000841695
0.000840571
0.000839419
0.000838263
0.000851634
0.000851073
0.000850344
0.000849364
0.000848082
0.000846472
0.000844538
0.000842302
0.000839799
0.000837071
0.000834159
0.000831105
0.000827947
0.000824717
0.000821446
0.000818158
0.000814879
0.000811653
0.000851287
0.000849596
0.000846722
0.000842581
0.000837269
0.00083099
0.000823988
0.000816494
0.000808705
0.000800778
0.000792834
0.000784963
0.00077723
0.00076968
0.000762343
0.000755238
0.000748379
0.000741821
0.000848318
0.000839427
0.000826165
0.000810025
0.000792372
0.000774247
0.00075635
0.000739082
0.000722643
0.000707111
0.000692498
0.000678776
0.0006659
0.000653814
0.000642461
0.000631788
0.000621746
0.000612346
0.000828549
0.000788846
0.000746042
0.000705716
0.000669483
0.000637528
0.000609481
0.000584784
0.000562899
0.000543371
0.00052583
0.000509977
0.00049557
0.000482416
0.000470355
0.000459256
0.000449013
0.000439578
0.000730728
0.000627352
0.000554519
0.000501076
0.00046034
0.000428374
0.000402666
0.000381507
0.000363754
0.000348631
0.000335592
0.00032424
0.000314276
0.00030547
0.000297643
0.000290651
0.000284373
0.000278728
0.000439251
0.000338475
0.000287941
0.000256876
0.00023637
0.000222519
0.000213003
0.000206321
0.000201515
0.000197968
0.000195279
0.000193184
0.000191505
0.000190122
0.000188951
0.000187936
0.000187038
0.000186211
7.16431e-05
6.90587e-05
6.65521e-05
6.41645e-05
6.19882e-05
6.00781e-05
5.84559e-05
5.71203e-05
5.60556e-05
5.52379e-05
5.46403e-05
5.42349e-05
5.39949e-05
5.38956e-05
5.39142e-05
5.40308e-05
5.4228e-05
5.44895e-05
1.26536e-05
0.000106538
0.000132688
0.000152656
0.000167778
0.000178831
0.000186356
0.000190894
0.000193164
0.000193981
0.000194149
0.000194418
0.000195247
0.000196307
0.000197296
0.000197936
0.000198192
0.000199012
0.00020055
0.000201182
0.000199129
0.000200816
0.000203879
0.000205695
4.59593e-05
4.72813e-05
4.94145e-05
5.19052e-05
5.45027e-05
5.71132e-05
5.96777e-05
6.21566e-05
6.45258e-05
6.67723e-05
6.88912e-05
7.08826e-05
7.27503e-05
7.45003e-05
7.61398e-05
7.76769e-05
7.91204e-05
8.04788e-05
8.17606e-05
8.29739e-05
8.41262e-05
8.52246e-05
8.62756e-05
8.72849e-05
8.82577e-05
8.91988e-05
9.01122e-05
9.10015e-05
9.187e-05
9.27204e-05
9.35552e-05
9.43764e-05
9.51859e-05
9.59853e-05
9.67757e-05
9.75584e-05
9.83343e-05
9.9104e-05
9.98682e-05
0.000100627
0.000101382
0.000102131
0.000102877
0.000103618
0.000104354
0.000105086
0.000105814
0.000106536
0.000107253
0.000107964
0.00010867
0.000109368
0.000110061
0.000110745
0.000111423
0.000112092
0.000112752
0.000113404
0.000114049
0.000114688
0.000115324
0.000115958
0.000116578
0.000117184
0.000117777
0.000118354
0.000118916
0.000119461
0.00011999
0.000120499
0.00012099
0.00012146
0.000121909
0.000122336
0.00012274
0.00012312
0.000123475
0.000123804
0.000124107
0.000124382
0.000124629
0.000124846
0.000125034
0.00012519
0.000125316
0.00012541
0.000125472
0.000125502
0.000125499
0.000125463
0.000125394
0.000125293
0.00012516
0.000124995
0.000124799
0.000124572
0.000124317
0.000124034
0.000123724
0.000123389
0.00012303
0.000122649
0.000122249
0.00012183
0.000121394
0.000120945
0.000120483
0.000120011
0.000119531
0.000119044
0.000118552
0.000118058
0.000117561
0.000117065
0.00011657
0.000116076
0.000115586
0.000115098
0.000114615
0.000114136
0.00011366
0.000113188
0.000112719
0.000112251
0.000111785
0.000111317
0.000110847
0.000110372
0.00010989
0.0001094
0.0001089
0.000108409
0.000108205
0.000108155
0.000108126
0.000108106
0.000108088
0.000108065
0.000108031
0.000107979
0.000107901
0.000107788
0.000107632
0.000107421
0.000107147
0.000106797
0.000106361
0.000105826
0.000105182
0.000104415
0.000103509
0.000102445
0.000101189
9.96851e-05
9.7742e-05
9.51462e-05
1.54542e-05
7.14784e-05
0.000123958
0.000167757
0.000203777
0.000232553
0.000254354
0.000269732
0.000280173
0.000287516
0.000293546
0.000299576
0.000304616
0.000307641
0.000307646
0.000303451
0.000294681
0.000286293
0.000278386
0.000266126
0.000257401
0.000256838
0.000259931
0.000262421
0.000259917
0.00026477
0.000271143
0.000279104
0.000288993
0.00030087
0.000314612
0.000329985
0.000346697
0.000364424
0.000382834
0.000401604
0.000420434
0.000439061
0.00045727
0.000474894
0.00049182
0.000507977
0.000523335
0.000537895
0.000551682
0.000564738
0.000577116
0.000588874
0.000600073
0.000610773
0.000621032
0.000630905
0.000640444
0.000649696
0.000658705
0.000667509
0.000676145
0.000684643
0.000693034
0.000701342
0.000709591
0.0007178
0.000725989
0.000734172
0.000742364
0.000750577
0.000758821
0.000767105
0.000775437
0.000783823
0.000792268
0.000800778
0.000809353
0.000817998
0.000826712
0.000835496
0.000844345
0.000853257
0.000862223
0.000871231
0.000880261
0.000889286
0.000898266
0.000907158
0.000915607
0.00092389
0.000932162
0.000940434
0.000948704
0.000956963
0.000965204
0.000973416
0.000981591
0.000989718
0.000997785
0.00100578
0.00101369
0.00102151
0.00102921
0.00103679
0.00104423
0.00105152
0.00105863
0.00106556
0.00107229
0.00107879
0.00108505
0.00109106
0.00109679
0.00110224
0.00110738
0.0011122
0.00111668
0.0011208
0.00112457
0.00112796
0.00113096
0.00113357
0.00113578
0.00113759
0.001139
0.00114001
0.00114061
0.00114083
0.00114067
0.00114013
0.00113924
0.00113802
0.00113647
0.00113462
0.0011325
0.00113013
0.00112754
0.00112474
0.00112177
0.00111866
0.00111543
0.00111212
0.00110875
0.00110534
0.00110193
0.00109853
0.00109519
0.00109191
0.00108871
0.00108562
0.00108265
0.00107982
0.00107712
0.00107457
0.00107218
0.00106993
0.0010678
0.00106571
0.0010634
0.00105998
0.00105371
0.00104614
0.00103799
0.00102939
0.00102034
0.00101079
0.00100068
0.000989926
0.000978452
0.000966166
0.000952977
0.000938787
0.000923503
0.000907034
0.000889292
0.0008702
0.000849688
0.000827692
0.000804149
0.000778998
0.000752087
0.000723388
0.000691528
0.000640656
2.2289e-05
8.71513e-05
0.000151868
0.000208711
0.000257297
0.000297924
0.00033096
0.000356937
0.00037673
0.000391483
0.000402449
0.00041011
0.000414294
0.000415141
0.000412747
0.000407411
0.00040016
0.000393382
0.00038922
0.000388515
0.000392116
0.000399556
0.000409585
0.000421046
0.000433949
0.000449728
0.000468918
0.000491684
0.000518089
0.000547973
0.000580934
0.000616392
0.000653679
0.000692102
0.000731003
0.000769798
0.000807999
0.000845223
0.000881193
0.000915729
0.000948732
0.00098017
0.00101006
0.00103847
0.00106547
0.00109116
0.00111565
0.00113904
0.00116146
0.00118299
0.00120375
0.00122382
0.00124329
0.00126225
0.00128076
0.00129889
0.00131671
0.00133426
0.0013516
0.00136878
0.00138583
0.00140279
0.00141969
0.00143656
0.00145342
0.00147029
0.0014872
0.00150415
0.00152116
0.00153824
0.00155539
0.00157262
0.00158994
0.00160734
0.00162482
0.00164238
0.00166001
0.00167769
0.00169541
0.00171315
0.00173088
0.00174856
0.00176616
0.0017836
0.00180071
0.00181774
0.00183474
0.00185174
0.00186873
0.00188569
0.0019026
0.00191945
0.00193622
0.00195289
0.00196943
0.00198583
0.00200205
0.00201808
0.00203389
0.00204945
0.00206472
0.00207968
0.0020943
0.00210855
0.00212238
0.00213578
0.00214869
0.00216109
0.00217294
0.0021842
0.00219484
0.00220483
0.00221414
0.00222272
0.00223056
0.00223763
0.00224391
0.00224937
0.00225401
0.00225781
0.00226076
0.00226287
0.00226414
0.00226458
0.00226421
0.00226305
0.00226111
0.00225845
0.00225508
0.00225105
0.0022464
0.00224118
0.00223544
0.00222923
0.00222259
0.00221558
0.00220826
0.00220068
0.00219289
0.00218492
0.00217683
0.00216866
0.00216046
0.00215226
0.00214408
0.00213594
0.0021279
0.00211994
0.00211207
0.00210428
0.00209658
0.00208891
0.00208122
0.00207331
0.00206479
0.00205478
0.00204225
0.00202807
0.00201287
0.00199684
0.00197999
0.00196224
0.00194348
0.00192358
0.00190238
0.00187972
0.00185543
0.00182934
0.00180127
0.00177107
0.00173856
0.00170361
0.00166608
0.00162587
0.00158285
0.00153692
0.00148788
0.00143545
0.00137818
0.00130679
2.96122e-05
0.000108653
0.000189706
0.000260808
0.000321154
0.000371427
0.000412472
0.000445133
0.000470284
0.000488829
0.000501646
0.000508641
0.000510656
0.000508524
0.000503139
0.0004962
0.000489955
0.000486749
0.000488292
0.00049515
0.000506982
0.000522945
0.000542293
0.000564698
0.000590444
0.000620149
0.000654292
0.000692951
0.00073589
0.0007826
0.000832361
0.00088434
0.00093768
0.00099157
0.0010453
0.00109828
0.00115004
0.00120025
0.00124867
0.00129519
0.00133974
0.00138233
0.001423
0.00146185
0.00149898
0.0015345
0.00156854
0.00160122
0.00163268
0.00166302
0.00169238
0.00172085
0.00174854
0.00177555
0.00180196
0.00182787
0.00185333
0.00187843
0.00190322
0.00192776
0.0019521
0.00197628
0.00200035
0.00202434
0.00204828
0.00207221
0.00209613
0.00212007
0.00214404
0.00216806
0.00219214
0.00221628
0.00224048
0.00226474
0.00228907
0.00231344
0.00233786
0.00236231
0.00238677
0.00241123
0.00243566
0.00246005
0.00248438
0.00250846
0.00253239
0.00255626
0.00258011
0.00260395
0.00262775
0.00265151
0.00267521
0.00269882
0.00272232
0.00274568
0.00276888
0.00279189
0.00281467
0.0028372
0.00285944
0.00288135
0.00290291
0.00292406
0.00294476
0.00296498
0.00298467
0.00300378
0.00302227
0.00304009
0.00305719
0.00307352
0.00308903
0.00310367
0.00311741
0.00313018
0.00314196
0.00315269
0.00316235
0.0031709
0.00317831
0.00318457
0.00318965
0.00319354
0.00319626
0.00319779
0.00319815
0.00319736
0.00319545
0.00319244
0.00318839
0.00318332
0.00317731
0.00317039
0.00316262
0.00315408
0.00314481
0.00313489
0.00312438
0.00311335
0.00310186
0.00308995
0.00307769
0.00306514
0.00305234
0.00303934
0.00302613
0.00301278
0.00299931
0.00298573
0.00297203
0.00295819
0.00294418
0.00292994
0.00291538
0.00290028
0.00288427
0.00286678
0.00284725
0.00282606
0.00280356
0.0027799
0.00275508
0.00272902
0.00270158
0.0026726
0.00264193
0.00260937
0.00257472
0.0025378
0.00249841
0.00245637
0.00241152
0.00236372
0.00231284
0.0022588
0.00220151
0.00214091
0.00207692
0.00200942
0.00193751
0.00185808
3.7086e-05
0.000132992
0.000231313
0.000316209
0.000387145
0.000445387
0.000492318
0.00052917
0.000557034
0.000576906
0.00058899
0.00059419
0.000593836
0.000589502
0.000583109
0.000576971
0.000573533
0.000574846
0.000582104
0.00059553
0.000614684
0.000638926
0.000667793
0.000701145
0.00073912
0.000781925
0.000829605
0.000881903
0.000938286
0.000998011
0.00106022
0.00112401
0.00118854
0.00125306
0.0013169
0.00137957
0.00144068
0.00149994
0.00155718
0.0016123
0.00166527
0.00171611
0.00176488
0.00181166
0.00185656
0.0018997
0.0019412
0.00198118
0.00201978
0.00205712
0.00209332
0.00212848
0.00216274
0.00219617
0.00222889
0.00226098
0.00229252
0.00232359
0.00235426
0.00238459
0.00241464
0.00244446
0.00247409
0.00250358
0.00253297
0.00256227
0.00259152
0.00262075
0.00264996
0.00267917
0.0027084
0.00273765
0.00276692
0.00279621
0.00282554
0.00285487
0.00288422
0.00291358
0.00294292
0.00297224
0.00300152
0.00303074
0.00305989
0.00308884
0.00311769
0.00314649
0.00317528
0.00320404
0.00323277
0.00326145
0.00329006
0.00331857
0.00334697
0.00337523
0.00340332
0.00343121
0.00345887
0.00348626
0.00351334
0.00354009
0.00356646
0.0035924
0.00361788
0.00364283
0.00366722
0.003691
0.0037141
0.00373648
0.00375808
0.00377883
0.00379868
0.00381757
0.00383544
0.00385224
0.0038679
0.00388238
0.00389562
0.00390757
0.0039182
0.00392746
0.00393533
0.00394178
0.00394679
0.00395036
0.00395249
0.00395318
0.00395244
0.00395031
0.0039468
0.00394197
0.00393586
0.00392852
0.00392
0.00391037
0.00389969
0.00388802
0.00387544
0.00386201
0.0038478
0.00383284
0.00381722
0.00380099
0.00378422
0.00376692
0.00374913
0.00373088
0.00371219
0.00369308
0.00367352
0.0036535
0.00363298
0.00361188
0.00359011
0.00356748
0.0035437
0.0035184
0.00349129
0.00346248
0.00343213
0.00340032
0.00336703
0.00333218
0.00329564
0.00325728
0.00321692
0.00317439
0.00312952
0.00308214
0.00303208
0.0029792
0.00292337
0.0028645
0.00280252
0.00273741
0.00266918
0.00259788
0.00252361
0.00244647
0.00236616
0.00228206
4.45161e-05
0.000157658
0.000272199
0.000369706
0.000450145
0.000515149
0.000566697
0.000606411
0.000635664
0.000655452
0.000666684
0.000670841
0.000669647
0.000665156
0.000659746
0.000655946
0.000656098
0.00066196
0.000674469
0.000693804
0.000719662
0.000751601
0.000789253
0.000832394
0.000880876
0.000934508
0.000992947
0.00105565
0.00112189
0.00119085
0.00126165
0.00133347
0.00140553
0.00147718
0.00154785
0.00161713
0.00168469
0.00175029
0.00181379
0.00187512
0.00193424
0.00199119
0.00204601
0.00209878
0.0021496
0.00219857
0.00224582
0.00229146
0.00233562
0.0023784
0.00241994
0.00246033
0.0024997
0.00253815
0.00257577
0.00261266
0.0026489
0.00268457
0.00271975
0.0027545
0.00278888
0.00282295
0.00285676
0.00289036
0.00292377
0.00295704
0.00299019
0.00302325
0.00305624
0.00308917
0.00312207
0.00315493
0.00318777
0.00322059
0.0032534
0.00328618
0.00331894
0.00335168
0.00338438
0.00341703
0.00344963
0.00348217
0.0035146
0.00354688
0.00357908
0.00361125
0.00364341
0.00367555
0.00370767
0.00373974
0.00377176
0.0038037
0.00383555
0.00386728
0.00389886
0.00393026
0.00396146
0.00399243
0.00402313
0.00405352
0.00408357
0.00411323
0.00414246
0.00417121
0.00419942
0.00422705
0.00425405
0.00428034
0.00430587
0.00433057
0.00435438
0.00437723
0.00439905
0.00441978
0.00443933
0.00445765
0.00447467
0.00449033
0.00450456
0.00451732
0.00452855
0.00453821
0.00454626
0.00455267
0.00455744
0.00456054
0.00456197
0.00456173
0.00455985
0.00455634
0.00455125
0.0045446
0.00453644
0.00452683
0.00451581
0.00450345
0.00448982
0.00447497
0.00445896
0.00444185
0.0044237
0.00440457
0.00438449
0.00436352
0.00434168
0.00431899
0.00429549
0.00427116
0.00424601
0.00422002
0.00419313
0.00416529
0.0041364
0.00410631
0.00407482
0.00404169
0.00400673
0.00396996
0.00393141
0.00389113
0.00384907
0.00380517
0.00375932
0.00371141
0.0036613
0.00360885
0.00355394
0.00349644
0.00343625
0.00337329
0.0033075
0.00323887
0.00316742
0.00309322
0.00301638
0.00293711
0.00285564
0.00277228
0.00268708
0.00260024
5.18573e-05
0.000180482
0.000309155
0.000417671
0.000506304
0.000577412
0.000633268
0.000675813
0.000706731
0.000727114
0.000738665
0.000743198
0.000742759
0.000739677
0.000736487
0.000735712
0.000739557
0.000749627
0.000766809
0.000791355
0.000823098
0.000861676
0.000906683
0.000957709
0.00101433
0.00107603
0.00114221
0.00121216
0.00128507
0.00136013
0.00143653
0.0015135
0.0015904
0.00166664
0.00174176
0.00181539
0.00188726
0.00195717
0.00202499
0.00209066
0.00215415
0.00221547
0.00227468
0.00233184
0.00238703
0.00244035
0.00249189
0.00254178
0.00259012
0.00263701
0.00268258
0.00272694
0.00277017
0.0028124
0.00285371
0.0028942
0.00293395
0.00297305
0.00301156
0.00304956
0.00308711
0.00312427
0.00316109
0.00319761
0.00323388
0.00326994
0.00330581
0.00334152
0.0033771
0.00341256
0.00344793
0.00348321
0.00351842
0.00355357
0.00358865
0.00362367
0.00365864
0.00369355
0.0037284
0.00376319
0.00379791
0.00383256
0.00386705
0.00390144
0.00393579
0.00397013
0.00400446
0.0040388
0.00407313
0.00410745
0.00414175
0.004176
0.0042102
0.00424432
0.00427834
0.00431225
0.00434601
0.0043796
0.00441299
0.00444615
0.00447904
0.00451162
0.00454385
0.00457568
0.00460708
0.00463798
0.00466832
0.00469806
0.00472712
0.00475544
0.00478294
0.00480954
0.00483518
0.00485978
0.00488326
0.00490552
0.00492649
0.0049461
0.00496426
0.00498091
0.00499597
0.00500937
0.00502105
0.00503097
0.00503909
0.00504536
0.00504976
0.00505227
0.00505289
0.00505162
0.00504847
0.00504346
0.00503661
0.00502797
0.00501757
0.00500546
0.00499169
0.00497631
0.00495937
0.00494092
0.00492101
0.0048997
0.00487702
0.00485302
0.00482772
0.00480114
0.00477332
0.00474424
0.00471391
0.00468231
0.0046494
0.00461512
0.0045794
0.00454212
0.00450314
0.0044623
0.00441948
0.00437465
0.0043278
0.00427893
0.00422802
0.004175
0.0041198
0.00406234
0.00400255
0.00394033
0.00387562
0.00380836
0.00373854
0.00366614
0.00359122
0.00351385
0.00343417
0.00335234
0.00326862
0.00318331
0.00309677
0.00300944
0.00292148
0.00283324
5.8694e-05
0.00019949
0.000340575
0.000459301
0.000555826
0.000632879
0.000693136
0.000738923
0.000771892
0.00079397
0.000807114
0.000813375
0.000814991
0.000814401
0.000814148
0.00081668
0.000824103
0.000837965
0.000859182
0.000888093
0.000924607
0.000968376
0.0010189
0.00107561
0.00113786
0.00120494
0.00127612
0.00135058
0.00142753
0.00150619
0.00158582
0.00166575
0.0017454
0.00182428
0.00190197
0.00197818
0.00205265
0.00212522
0.00219576
0.00226421
0.00233056
0.0023948
0.00245696
0.00251711
0.00257531
0.00263165
0.00268621
0.00273908
0.00279038
0.0028402
0.00288865
0.00293582
0.00298181
0.00302673
0.00307067
0.00311371
0.00315594
0.00319743
0.00323828
0.00327853
0.00331826
0.00335752
0.00339637
0.00343485
0.00347301
0.00351089
0.00354852
0.00358592
0.00362314
0.00366018
0.00369707
0.00373382
0.00377045
0.00380698
0.0038434
0.00387972
0.00391596
0.00395211
0.00398818
0.00402416
0.00406006
0.00409587
0.00413154
0.00416715
0.00420274
0.00423835
0.00427399
0.00430965
0.00434535
0.00438107
0.00441681
0.00445256
0.00448831
0.00452405
0.00455976
0.00459542
0.00463102
0.00466654
0.00470195
0.00473723
0.00477234
0.00480726
0.00484195
0.00487636
0.00491045
0.00494418
0.00497749
0.00501031
0.0050426
0.00507427
0.00510526
0.00513547
0.00516483
0.00519325
0.00522066
0.00524694
0.005272
0.00529574
0.00531808
0.00533893
0.00535818
0.00537574
0.00539153
0.00540547
0.00541752
0.0054276
0.00543562
0.00544157
0.00544542
0.00544714
0.00544671
0.00544414
0.00543943
0.00543259
0.00542363
0.00541259
0.0053995
0.00538439
0.0053673
0.00534828
0.00532736
0.00530458
0.00527998
0.0052536
0.00522545
0.00519558
0.00516398
0.00513067
0.00509565
0.0050589
0.00502039
0.00498008
0.00493791
0.00489379
0.00484763
0.00479932
0.00474877
0.00469596
0.00464085
0.00458344
0.00452371
0.00446162
0.00439715
0.00433026
0.00426091
0.00418911
0.00411486
0.00403818
0.00395914
0.00387785
0.00379445
0.00370914
0.00362216
0.00353381
0.00344445
0.0033545
0.00326441
0.00317466
0.00308541
0.00299683
6.47295e-05
0.000215805
0.000367533
0.000495302
0.00059908
0.000681856
0.000746643
0.000795871
0.000831763
0.000856553
0.000872396
0.000881492
0.000886161
0.000888846
0.000892022
0.000898036
0.000908907
0.000926156
0.000950734
0.000983045
0.00102305
0.00107039
0.00112451
0.00118472
0.00125027
0.00132035
0.00139414
0.00147084
0.00154967
0.00162989
0.00171084
0.00179192
0.00187262
0.00195251
0.00203122
0.00210849
0.00218409
0.00225787
0.00232972
0.00239958
0.00246742
0.00253324
0.00259706
0.00265893
0.0027189
0.00277704
0.00283342
0.00288814
0.00294127
0.00299292
0.00304318
0.00309213
0.00313988
0.00318651
0.00323211
0.00327676
0.00332056
0.00336356
0.00340586
0.00344751
0.00348857
0.00352911
0.00356917
0.00360881
0.00364807
0.00368699
0.00372561
0.00376394
0.00380204
0.00383991
0.00387758
0.00391506
0.00395239
0.00398957
0.00402661
0.00406352
0.00410032
0.00413701
0.00417359
0.00421008
0.00424648
0.00428276
0.00431896
0.00435514
0.00439134
0.00442759
0.0044639
0.00450029
0.00453674
0.00457328
0.00460989
0.00464657
0.00468331
0.00472011
0.00475697
0.00479387
0.0048308
0.00486774
0.00490469
0.00494163
0.00497852
0.00501535
0.00505208
0.00508868
0.0051251
0.00516132
0.00519727
0.00523291
0.00526818
0.00530299
0.00533728
0.00537095
0.00540393
0.00543613
0.00546746
0.0054978
0.00552702
0.00555502
0.0055817
0.00560696
0.00563071
0.00565273
0.00567298
0.00569135
0.00570775
0.0057221
0.00573429
0.00574426
0.00575195
0.00575731
0.00576028
0.00576085
0.00575897
0.00575465
0.00574787
0.00573864
0.00572696
0.00571286
0.00569636
0.00567747
0.00565623
0.00563268
0.00560682
0.00557871
0.00554835
0.00551576
0.00548097
0.00544398
0.0054048
0.0053634
0.00531977
0.00527388
0.00522568
0.00517513
0.00512214
0.00506665
0.00500861
0.00494799
0.00488477
0.00481895
0.00475053
0.00467951
0.00460589
0.00452971
0.00445099
0.00436981
0.00428624
0.00420042
0.00411251
0.00402273
0.00393135
0.00383869
0.00374512
0.00365106
0.00355699
0.00346341
0.00337085
0.0032798
0.00319033
0.00310236
6.98815e-05
0.000229385
0.000390045
0.000525674
0.000636022
0.000724257
0.000793519
0.000846568
0.000886049
0.000914352
0.000933755
0.000946531
0.000955006
0.000961561
0.000968555
0.000978206
0.00099243
0.0010127
0.00103999
0.00107474
0.00111697
0.00116632
0.00122223
0.00128398
0.00135078
0.00142178
0.00149619
0.0015732
0.00165207
0.00173213
0.00181276
0.00189343
0.00197368
0.00205312
0.00213144
0.00220838
0.00228375
0.0023574
0.00242925
0.00249921
0.00256727
0.00263341
0.00269765
0.00276002
0.00282057
0.00287935
0.00293644
0.0029919
0.00304582
0.00309827
0.00314934
0.00319911
0.00324768
0.00329512
0.00334152
0.00338695
0.0034315
0.00347523
0.00351822
0.00356052
0.00360221
0.00364333
0.00368394
0.00372409
0.00376381
0.00380316
0.00384215
0.00388083
0.00391923
0.00395736
0.00399526
0.00403294
0.00407042
0.00410773
0.00414487
0.00418186
0.00421872
0.00425544
0.00429206
0.00432856
0.00436496
0.00440129
0.00443759
0.00447392
0.00451032
0.0045468
0.0045834
0.00462011
0.00465694
0.00469391
0.00473101
0.00476824
0.00480561
0.00484312
0.00488076
0.00491854
0.00495644
0.00499447
0.00503261
0.00507086
0.00510921
0.00514762
0.00518608
0.00522456
0.00526303
0.00530145
0.00533979
0.00537799
0.00541602
0.00545378
0.0054912
0.00552818
0.00556465
0.00560052
0.00563572
0.00567011
0.00570351
0.00573582
0.00576693
0.00579671
0.00582504
0.00585176
0.00587673
0.00589984
0.00592097
0.00593999
0.00595679
0.00597126
0.0059833
0.00599283
0.00599978
0.00600407
0.00600566
0.00600449
0.00600054
0.00599378
0.00598419
0.00597177
0.00595652
0.00593845
0.00591756
0.00589388
0.00586743
0.00583821
0.00580625
0.00577156
0.00573416
0.00569406
0.00565124
0.00560572
0.00555747
0.00550648
0.00545271
0.00539614
0.00533671
0.00527438
0.00520914
0.00514096
0.00506984
0.0049958
0.00491886
0.00483907
0.00475648
0.00467118
0.00458326
0.00449287
0.0044002
0.00430546
0.00420895
0.00411101
0.00401201
0.00391243
0.00381277
0.00371358
0.00361545
0.00351899
0.00342475
0.00333322
0.00324437
0.00315785
7.4085e-05
0.000240178
0.000408063
0.000550334
0.000666496
0.000759704
0.000833316
0.000890493
0.000934005
0.000966358
0.000989905
0.00100694
0.00101974
0.00103059
0.00104169
0.00105509
0.0010726
0.00109559
0.00112502
0.00116136
0.00120467
0.00125466
0.0013108
0.0013724
0.00143869
0.00150886
0.00158214
0.00165777
0.00173507
0.00181341
0.00189222
0.00197102
0.0020494
0.00212702
0.00220357
0.00227884
0.00235265
0.00242487
0.00249541
0.0025642
0.00263121
0.00269643
0.00275987
0.00282156
0.00288153
0.00293984
0.00299654
0.00305169
0.00310537
0.00315764
0.00320859
0.00325829
0.00330682
0.00335425
0.00340066
0.00344613
0.00349071
0.0035345
0.00357753
0.00361989
0.00366162
0.00370277
0.0037434
0.00378355
0.00382326
0.00386257
0.00390151
0.00394012
0.00397841
0.00401643
0.00405418
0.00409169
0.00412899
0.00416608
0.00420299
0.00423974
0.00427634
0.00431279
0.00434913
0.00438535
0.0044215
0.00445765
0.00449384
0.00453011
0.00456649
0.004603
0.00463966
0.0046765
0.00471351
0.0047507
0.00478809
0.00482567
0.00486345
0.00490145
0.00493966
0.00497808
0.00501673
0.00505561
0.00509471
0.00513403
0.00517358
0.00521334
0.00525329
0.00529339
0.00533365
0.00537403
0.00541451
0.00545504
0.0054956
0.00553612
0.00557646
0.00561657
0.00565637
0.00569577
0.00573468
0.00577295
0.00581045
0.00584705
0.00588261
0.00591698
0.00595002
0.00598156
0.00601145
0.00603952
0.00606564
0.00608964
0.00611138
0.00613073
0.00614754
0.0061617
0.0061731
0.00618164
0.00618722
0.00618977
0.00618922
0.00618553
0.00617864
0.00616852
0.00615516
0.00613853
0.00611863
0.00609546
0.00606902
0.00603933
0.00600637
0.00597018
0.00593075
0.00588809
0.0058422
0.00579309
0.00574073
0.00568512
0.00562625
0.00556409
0.00549862
0.00542983
0.0053577
0.00528224
0.00520348
0.00512146
0.00503622
0.00494787
0.00485649
0.00476224
0.00466529
0.00456588
0.00446428
0.00436082
0.00425591
0.00415002
0.00404368
0.00393749
0.0038321
0.00372819
0.00362647
0.00352763
0.00343229
0.00334091
0.00325336
0.00316905
7.73185e-05
0.00024824
0.00042166
0.00056929
0.000690273
0.000787879
0.00086572
0.000927046
0.00097473
0.00101136
0.00103932
0.0010609
0.00107829
0.00109363
0.00110896
0.00112615
0.00114681
0.00117225
0.00120333
0.00124056
0.00128402
0.00133351
0.00138857
0.00144859
0.00151286
0.00158066
0.00165126
0.00172399
0.0017982
0.00187332
0.00194885
0.00202436
0.00209946
0.00217384
0.00224725
0.00231948
0.00239037
0.00245982
0.00252772
0.00259404
0.00265873
0.00272179
0.00278322
0.00284305
0.00290131
0.00295805
0.00301331
0.00306714
0.00311962
0.00317081
0.00322077
0.00326958
0.00331729
0.00336399
0.00340974
0.00345461
0.00349865
0.00354194
0.00358452
0.00362646
0.0036678
0.00370859
0.00374888
0.0037887
0.00382809
0.00386709
0.00390572
0.00394401
0.00398199
0.00401968
0.0040571
0.00409427
0.00413122
0.00416795