/*--------------------------------*- C++ -*----------------------------------*\
  =========                 |
  \\      /  F ield         | OpenFOAM: The Open Source CFD Toolbox
   \\    /   O peration     | Website:  https://openfoam.org
    \\  /    A nd           | Version:  9
     \\/     M anipulation  |
\*---------------------------------------------------------------------------*/
FoamFile
{
    format      ascii;
    class       volScalarField;
    location    "0.027";
    object      k;
}
// * * * * * * * * * * * * * * * * * * * * * * * * * * * * * * * * * * * * * //

dimensions      [0 2 -2 0 0 0 0];

internalField   nonuniform List<scalar> 
12225
(
1.9969e-05
2.56853e-05
3.59921e-05
4.03962e-05
4.74757e-05
6.30709e-05
7.00851e-05
6.97996e-05
6.1234e-05
4.49934e-05
3.72291e-05
3.51725e-05
3.54604e-05
3.92564e-05
5.37572e-05
6.80535e-05
7.17607e-05
7.6713e-05
2.00085e-05
2.04795e-05
2.17545e-05
2.27081e-05
2.44446e-05
2.96815e-05
3.5862e-05
3.78745e-05
3.76605e-05
3.54432e-05
3.10038e-05
2.85458e-05
2.78551e-05
2.79829e-05
2.89847e-05
3.15161e-05
3.77568e-05
4.49587e-05
2.00107e-05
1.60636e-05
1.59922e-05
1.67593e-05
1.74117e-05
1.80166e-05
1.86936e-05
1.90885e-05
1.91467e-05
1.90556e-05
1.87344e-05
1.86052e-05
1.86222e-05
1.87442e-05
1.90909e-05
1.96446e-05
2.07166e-05
2.26417e-05
2.03182e-05
2.0754e-05
2.07491e-05
2.03654e-05
1.96943e-05
1.93121e-05
1.87337e-05
1.82485e-05
1.85229e-05
1.87947e-05
1.86228e-05
1.70699e-05
1.29819e-05
1.07431e-05
1.01975e-05
1.02461e-05
1.07758e-05
1.26865e-05
2.0195e-05
2.75604e-05
4.12695e-05
3.99801e-05
2.93428e-05
2.31721e-05
2.1279e-05
2.10227e-05
2.11123e-05
2.14034e-05
2.22027e-05
2.39557e-05
2.41485e-05
2.33139e-05
2.03938e-05
1.83162e-05
1.76405e-05
1.7541e-05
2.00611e-05
2.25061e-05
3.46236e-05
4.17703e-05
4.09041e-05
3.39003e-05
3.20587e-05
3.40307e-05
3.43492e-05
3.05651e-05
2.6454e-05
2.61195e-05
2.85463e-05
3.94208e-05
4.3444e-05
4.26093e-05
3.8788e-05
3.37922e-05
2.0652e-05
2.3482e-05
2.60118e-05
2.6798e-05
2.84143e-05
4.04915e-05
5.64944e-05
5.79777e-05
5.2075e-05
3.59119e-05
2.75307e-05
2.5367e-05
2.55492e-05
2.792e-05
3.65004e-05
5.95935e-05
7.53175e-05
7.95433e-05
2.72734e-05
2.6674e-05
2.2411e-05
2.27134e-05
3.30383e-05
5.61509e-05
5.89711e-05
5.65555e-05
4.78649e-05
3.64316e-05
3.00594e-05
2.86665e-05
2.99511e-05
3.70515e-05
5.49481e-05
7.26533e-05
8.2916e-05
8.59621e-05
2.88882e-05
3.46149e-05
2.76217e-05
2.25821e-05
2.32948e-05
3.05879e-05
3.99812e-05
4.12562e-05
3.86302e-05
3.06487e-05
2.63703e-05
2.52926e-05
2.54783e-05
2.74445e-05
3.56373e-05
5.45156e-05
6.82357e-05
7.51867e-05
2.69964e-05
2.45024e-05
2.26955e-05
2.38909e-05
3.76681e-05
5.14937e-05
5.01414e-05
3.57981e-05
2.62981e-05
2.31877e-05
2.23183e-05
2.22165e-05
2.23999e-05
2.3306e-05
2.63767e-05
3.28912e-05
3.76514e-05
4.11995e-05
2.84535e-05
2.63665e-05
2.44263e-05
2.79649e-05
3.24514e-05
3.22941e-05
2.75629e-05
2.29982e-05
2.15734e-05
2.13655e-05
2.16059e-05
2.28915e-05
2.43329e-05
2.50678e-05
2.55392e-05
2.59539e-05
2.62177e-05
2.67191e-05
2.03948e-05
2.18562e-05
2.76722e-05
2.88689e-05
2.70399e-05
2.41038e-05
2.20156e-05
2.09417e-05
2.05931e-05
2.05456e-05
2.06388e-05
2.11616e-05
2.30218e-05
2.51825e-05
2.64884e-05
2.69609e-05
2.69658e-05
2.6887e-05
2.06559e-05
2.10633e-05
2.67816e-05
3.80352e-05
3.91974e-05
3.46558e-05
2.5626e-05
2.19983e-05
2.08111e-05
2.04778e-05
2.04234e-05
2.04486e-05
2.06149e-05
2.12335e-05
2.22311e-05
2.2982e-05
2.33165e-05
2.35941e-05
2.07061e-05
2.19016e-05
2.28641e-05
2.32571e-05
2.31097e-05
2.21455e-05
2.13587e-05
2.11408e-05
2.10818e-05
2.08736e-05
2.06352e-05
2.05584e-05
2.05587e-05
2.06245e-05
2.08541e-05
2.10142e-05
2.10588e-05
2.11101e-05
2.08401e-05
2.12467e-05
2.13168e-05
2.1097e-05
2.08884e-05
2.09525e-05
2.16709e-05
2.46262e-05
2.67112e-05
2.67423e-05
2.49338e-05
2.26932e-05
2.17783e-05
2.12557e-05
2.10131e-05
2.09544e-05
2.09506e-05
2.09708e-05
2.02344e-05
2.04175e-05
2.05684e-05
2.07315e-05
2.10363e-05
2.18271e-05
2.47357e-05
2.73663e-05
2.76287e-05
2.63827e-05
2.40505e-05
2.33214e-05
2.34572e-05
2.44153e-05
2.49436e-05
2.49508e-05
2.45059e-05
2.32553e-05
2.06062e-05
2.03599e-05
2.05718e-05
2.16183e-05
2.23577e-05
2.25646e-05
2.25525e-05
2.21262e-05
2.17312e-05
2.16789e-05
2.19531e-05
2.35812e-05
2.52749e-05
2.59316e-05
2.60055e-05
2.57075e-05
2.43877e-05
2.32272e-05
2.32986e-05
2.19282e-05
2.10719e-05
2.12212e-05
2.21225e-05
2.44508e-05
2.54615e-05
2.5055e-05
2.32659e-05
2.26638e-05
2.2737e-05
2.37623e-05
2.5347e-05
2.6088e-05
2.63135e-05
2.62723e-05
2.56467e-05
2.38124e-05
2.08544e-05
2.09662e-05
2.17207e-05
2.16139e-05
2.16301e-05
2.26698e-05
2.40613e-05
2.41418e-05
2.3314e-05
2.19592e-05
2.14308e-05
2.13384e-05
2.14068e-05
2.16643e-05
2.17608e-05
2.17572e-05
2.17708e-05
2.18149e-05
2.07065e-05
2.08944e-05
2.1715e-05
2.49363e-05
2.54369e-05
2.50748e-05
2.40927e-05
2.27697e-05
2.17632e-05
2.11718e-05
2.0894e-05
2.07892e-05
2.07602e-05
2.07568e-05
2.07604e-05
2.07701e-05
2.07804e-05
2.08e-05
2.16684e-05
2.14492e-05
2.26811e-05
2.6532e-05
2.63754e-05
2.38672e-05
2.21459e-05
2.16357e-05
2.15618e-05
2.16023e-05
2.1735e-05
2.17901e-05
2.1795e-05
2.1778e-05
2.16775e-05
2.15777e-05
2.15507e-05
2.15562e-05
2.11211e-05
2.09318e-05
2.08538e-05
2.08655e-05
2.08099e-05
2.08058e-05
2.10407e-05
2.13879e-05
2.15402e-05
2.1583e-05
2.15871e-05
2.15769e-05
2.15183e-05
2.14506e-05
2.14207e-05
2.14166e-05
2.14291e-05
2.15003e-05
2.0438e-05
2.02551e-05
2.01799e-05
2.02739e-05
2.07046e-05
2.20072e-05
2.30613e-05
2.34067e-05
2.33828e-05
2.28957e-05
2.1851e-05
2.12282e-05
2.09308e-05
2.08219e-05
2.08029e-05
2.08171e-05
2.0911e-05
2.1267e-05
2.14753e-05
2.09153e-05
2.03315e-05
2.02627e-05
2.039e-05
2.12219e-05
2.43665e-05
2.68538e-05
2.74373e-05
2.72776e-05
2.58769e-05
2.37365e-05
2.25491e-05
2.2014e-05
2.18302e-05
2.18023e-05
2.182e-05
2.19288e-05
2.03715e-05
2.06939e-05
2.06662e-05
2.03685e-05
2.02688e-05
2.03938e-05
2.11737e-05
2.20338e-05
2.23349e-05
2.23615e-05
2.22548e-05
2.19045e-05
2.16516e-05
2.15188e-05
2.14648e-05
2.14455e-05
2.14336e-05
2.14285e-05
2.12237e-05
2.15313e-05
2.0901e-05
2.03442e-05
2.02506e-05
2.03192e-05
2.08103e-05
2.16981e-05
2.2169e-05
2.23046e-05
2.22962e-05
2.21185e-05
2.17572e-05
2.15774e-05
2.15273e-05
2.15317e-05
2.15955e-05
2.17058e-05
2.00125e-05
2.00321e-05
2.01177e-05
2.02575e-05
2.02798e-05
2.03074e-05
2.03738e-05
2.04028e-05
2.03592e-05
2.00708e-05
1.96017e-05
1.93606e-05
1.92406e-05
1.91537e-05
1.90398e-05
1.883e-05
1.83961e-05
1.72922e-05
2.00146e-05
1.84011e-05
1.75454e-05
1.69459e-05
1.58383e-05
1.42896e-05
1.29541e-05
1.22528e-05
1.20743e-05
1.20828e-05
1.22376e-05
1.29676e-05
1.46954e-05
1.58349e-05
1.62762e-05
1.63312e-05
1.62679e-05
1.5916e-05
2.15986e-05
2.26707e-05
2.17005e-05
2.09151e-05
2.09581e-05
2.135e-05
2.16092e-05
2.18583e-05
2.23474e-05
2.35662e-05
2.715e-05
3.83566e-05
5.02932e-05
5.71046e-05
5.95586e-05
5.97654e-05
5.92253e-05
5.68535e-05
0.000122843
0.00013141
7.13243e-05
3.85733e-05
3.32799e-05
3.3676e-05
3.50123e-05
3.63208e-05
3.90929e-05
4.77689e-05
8.0741e-05
0.000122962
0.00014506
0.000151869
0.000151794
0.000145254
0.000118665
9.11885e-05
0.00137256
0.00748297
0.011011
0.0128928
0.0152904
0.0206797
0.0233253
0.0229446
0.0208434
0.018299
0.0163958
0.0143013
0.0127783
0.01104
0.00982952
0.00912841
0.0087625
0.00860564
0.00838867
0.00796548
0.00722476
0.00574404
0.00514219
0.00632186
0.01151
0.0120576
0.011617
0.0114078
0.0119981
0.0177887
0.0191804
0.0245326
0.106004
0.0869526
0.0237785
0.0140754
0.0130093
0.0132877
0.0132562
0.0120787
0.0106642
0.00903202
0.00737661
0.00612045
0.0047096
0.00381153
0.00285928
0.00238558
0.00184147
0.00159694
0.00139631
0.0013148
0.00128972
0.00128737
0.00126679
0.00124416
0.00121863
0.00118114
0.00114518
0.00110896
0.00106943
0.0010342
0.000998852
0.000963626
0.000931371
0.000898264
0.000871159
0.00084389
0.000814427
0.000784681
0.000761459
0.000739229
0.000711743
0.000688414
0.000670512
0.000653678
0.000639672
0.000630193
0.00062216
0.000615705
0.000611366
0.000609683
0.000609664
0.000609838
0.000607884
0.000604138
0.000601337
0.000596563
0.000581996
0.000570347
0.000552988
0.00053069
0.000506532
0.000478917
0.000449379
0.000418877
0.000388471
0.000358447
0.000329547
0.000302143
0.000276519
0.000252919
0.000231627
0.000212786
0.000196332
0.000182102
0.000169938
0.00015952
0.000150384
0.000141945
0.000133114
0.000122543
0.000110724
9.86116e-05
8.6649e-05
7.50809e-05
6.40553e-05
5.3802e-05
4.44616e-05
3.61905e-05
2.92962e-05
2.37561e-05
1.9367e-05
1.58665e-05
1.29962e-05
1.05874e-05
8.55525e-06
6.8378e-06
5.39785e-06
4.2078e-06
3.24073e-06
2.46797e-06
1.86e-06
1.38845e-06
1.0275e-06
7.54552e-07
5.50419e-07
3.99211e-07
2.88086e-07
2.06915e-07
1.47898e-07
1.05151e-07
7.43104e-08
5.21634e-08
3.63513e-08
2.51349e-08
1.72305e-08
1.16984e-08
7.85742e-09
5.21596e-09
3.41925e-09
2.21204e-09
1.41163e-09
8.8835e-10
5.51209e-10
3.3722e-10
2.03437e-10
1.21055e-10
7.10819e-11
4.12086e-11
2.36008e-11
1.33608e-11
7.48047e-12
4.14388e-12
2.27192e-12
1.23314e-12
6.62644e-13
3.52629e-13
1.85771e-13
9.69491e-14
5.00708e-14
2.56485e-14
1.30034e-14
6.56095e-15
3.35338e-15
1.50334e-15
1.58272e-15
5.3029e-13
4.63046e-10
3.93542e-07
0.00722669
0.0121401
0.0236863
0.0223107
0.0179767
0.0181961
0.0199606
0.0204135
0.0201207
0.0194418
0.0183679
0.0180778
0.0175414
0.0165766
0.0154374
0.013963
0.0128574
0.0115602
0.0100151
0.00875102
0.00791376
0.00661297
0.00600791
0.00605998
0.00734405
0.00699801
0.00759914
0.0093663
0.0100137
0.0255288
0.0431961
0.0468899
0.0496115
0.0239176
0.0117818
0.00858496
0.00742122
0.00640751
0.00551934
0.00459116
0.00409536
0.00359454
0.00335526
0.00317853
0.00309478
0.0030609
0.0030519
0.00308325
0.00309745
0.00312687
0.00314007
0.00315204
0.00315634
0.00315735
0.0031536
0.00313818
0.00311609
0.00308874
0.0030469
0.00299878
0.00294261
0.00287707
0.00280017
0.00271978
0.00264253
0.00257334
0.00250493
0.00243648
0.00237394
0.00231923
0.00227098
0.00221859
0.00216592
0.00211922
0.0020798
0.00204665
0.00201916
0.00199916
0.00199278
0.00199134
0.00199238
0.00199699
0.00200079
0.00200177
0.0019941
0.00198108
0.00196514
0.00193426
0.00189978
0.00186068
0.00180929
0.00175205
0.00168175
0.00159956
0.00150601
0.00140253
0.00129389
0.00118513
0.00107894
0.000972641
0.000866192
0.000760041
0.00065516
0.000556422
0.000472471
0.000403128
0.00034622
0.000301899
0.000268613
0.000243523
0.000224344
0.000209844
0.000198148
0.000187665
0.00017721
0.000166095
0.000154238
0.000141853
0.000129398
0.000117224
0.000105231
9.34502e-05
8.20513e-05
7.12767e-05
6.13968e-05
5.26017e-05
4.49507e-05
3.84124e-05
3.28757e-05
2.81882e-05
2.41904e-05
2.07396e-05
1.77218e-05
1.50541e-05
1.26818e-05
1.05725e-05
8.70857e-06
7.07956e-06
5.67662e-06
4.48843e-06
3.49945e-06
2.69027e-06
2.03916e-06
1.52401e-06
1.12365e-06
8.18288e-07
5.8927e-07
4.1942e-07
2.94741e-07
2.04304e-07
1.39578e-07
9.39263e-08
6.22287e-08
4.05783e-08
2.60391e-08
1.64427e-08
1.02185e-08
6.25144e-09
3.76649e-09
2.23619e-09
1.30916e-09
7.56337e-10
4.31497e-10
2.43256e-10
1.35572e-10
7.47314e-11
4.07505e-11
2.19899e-11
1.17396e-11
6.20369e-12
3.24129e-12
1.67676e-12
8.55632e-13
4.33628e-13
2.13532e-13
1.09768e-13
4.29006e-14
6.51696e-14
3.56994e-11
3.10045e-08
0.0222998
0.0454025
0.0428585
0.0305153
0.0199739
0.0151369
0.014323
0.0145545
0.0153585
0.0166638
0.0175013
0.0195439
0.0204479
0.0203798
0.0199461
0.0189047
0.0166933
0.014375
0.0132433
0.0111632
0.00973416
0.00811353
0.00663834
0.00582075
0.00568459
0.00568628
0.00880856
0.025791
0.0314421
0.0337968
0.0347764
0.0214003
0.0120425
0.00727544
0.00526162
0.00445908
0.00407121
0.00373103
0.00356408
0.00341979
0.00335273
0.00329045
0.0032632
0.00325058
0.00325088
0.00328002
0.00330334
0.00331935
0.00335176
0.00337274
0.00340535
0.00342649
0.00346228
0.00349068
0.00352168
0.00355309
0.00358073
0.00360623
0.00362069
0.00362912
0.00363123
0.00362301
0.00358716
0.00353532
0.00347593
0.00339213
0.00328163
0.00317923
0.00310493
0.00304671
0.00299214
0.00294226
0.00290195
0.00286408
0.00282645
0.00280077
0.00278293
0.00276364
0.00275632
0.00274976
0.00273845
0.00272507
0.00270127
0.00268562
0.00265646
0.00262668
0.00260031
0.00256195
0.00252627
0.00248029
0.00242861
0.00237468
0.00232096
0.00226032
0.00219498
0.00211945
0.002026
0.00191433
0.00179814
0.00168144
0.00156318
0.00144384
0.00132178
0.00118548
0.00102619
0.000851512
0.000677728
0.000521141
0.000397539
0.000311767
0.00025277
0.000212893
0.000185921
0.000167138
0.000153968
0.00014388
0.000134231
0.000124595
0.000114953
0.000105714
9.76502e-05
9.08994e-05
8.45286e-05
7.75218e-05
6.96991e-05
6.13557e-05
5.3061e-05
4.53338e-05
3.84622e-05
3.25996e-05
2.7787e-05
2.38803e-05
2.07233e-05
1.81413e-05
1.59701e-05
1.40796e-05
1.23788e-05
1.08125e-05
9.35389e-06
7.99625e-06
6.74438e-06
5.60752e-06
4.59393e-06
3.70754e-06
2.94687e-06
2.30578e-06
1.77528e-06
1.34493e-06
1.00241e-06
7.34711e-07
5.29348e-07
3.74926e-07
2.61063e-07
1.78708e-07
1.20267e-07
7.95756e-08
5.17762e-08
3.31393e-08
2.08763e-08
1.29537e-08
7.92481e-09
4.78583e-09
2.85642e-09
1.68615e-09
9.84186e-10
5.67957e-10
3.2394e-10
1.82618e-10
1.01691e-10
5.59549e-11
3.03836e-11
1.63005e-11
8.61483e-12
4.49757e-12
2.30966e-12
1.16002e-12
5.96303e-13
2.3771e-13
1.67262e-12
1.24226e-09
0.0107855
0.0585296
0.0403651
0.0181388
0.0115454
0.0115803
0.0123593
0.0135687
0.0164075
0.0206634
0.0253543
0.0335735
0.0363845
0.0358416
0.0338933
0.0295984
0.0243051
0.0208483
0.016982
0.0143426
0.0114277
0.00918411
0.00753142
0.00590173
0.00571939
0.0125237
0.0264764
0.0278557
0.0283311
0.0227537
0.0127904
0.00756206
0.00524861
0.0042388
0.00383155
0.00366795
0.0035935
0.00354436
0.00352117
0.00350989
0.0035313
0.00355851
0.0036026
0.00362563
0.00363605
0.00363802
0.00362811
0.00361691
0.00361237
0.00360897
0.00360867
0.00361838
0.00363968
0.00365581
0.0036851
0.00370852
0.00374443
0.00377521
0.00380847
0.00384176
0.00387283
0.00389177
0.00390084
0.0039045
0.00390479
0.00388921
0.0038486
0.00379315
0.00371741
0.00360965
0.00349248
0.00341574
0.00336149
0.00329341
0.00324157
0.00321597
0.00317804
0.00313122
0.00309455
0.00304749
0.00299769
0.00295104
0.00289644
0.00286597
0.00282917
0.00280554
0.002783
0.00275791
0.00273195
0.00269226
0.00263579
0.00256757
0.00250234
0.002436
0.0023725
0.00231229
0.0022525
0.00217853
0.00206598
0.00193062
0.00179676
0.00166309
0.00153504
0.00142001
0.00131656
0.00121466
0.00109953
0.000960473
0.000795741
0.000620149
0.000466753
0.000354168
0.000282042
0.000237256
0.000209859
0.000193859
0.000185426
0.000180146
0.000174647
0.000167536
0.000158754
0.000149159
0.000140428
0.000133137
0.000125773
0.000116139
0.000102841
8.58777e-05
6.65531e-05
4.71617e-05
3.03969e-05
1.85563e-05
1.20332e-05
9.15897e-06
7.95164e-06
7.27869e-06
6.69847e-06
6.08681e-06
5.43689e-06
4.77757e-06
4.14044e-06
3.5474e-06
3.00925e-06
2.52909e-06
2.10592e-06
1.73682e-06
1.41794e-06
1.14489e-06
9.13109e-07
7.18204e-07
5.56501e-07
4.24926e-07
3.20032e-07
2.37594e-07
1.73656e-07
1.24838e-07
8.82161e-08
6.12597e-08
4.18026e-08
2.80334e-08
1.84784e-08
1.19746e-08
7.63061e-09
4.7834e-09
2.95148e-09
1.7934e-09
1.07338e-09
6.32967e-10
3.67772e-10
2.10558e-10
1.18829e-10
6.60071e-11
3.62768e-11
1.94243e-11
1.06106e-11
5.24476e-12
3.26166e-12
1.33486e-12
1.5218e-12
5.43313e-11
0.0202291
0.015472
0.00828222
0.00824921
0.00929908
0.0120972
0.0167819
0.0210767
0.0308178
0.0444639
0.059849
0.0770192
0.0808176
0.0786655
0.0718116
0.0553726
0.0379218
0.0267117
0.0197959
0.0159784
0.0135591
0.0106112
0.00737107
0.00601982
0.0134606
0.0238448
0.025636
0.023657
0.0156948
0.00903534
0.0058955
0.00450171
0.00395854
0.00375252
0.00366765
0.00362671
0.00359599
0.00358241
0.0035819
0.00360858
0.00363257
0.00365157
0.00367507
0.00368595
0.00368937
0.00368766
0.00367285
0.00365736
0.00363924
0.0036309
0.00362761
0.00362791
0.00364316
0.00365927
0.00367239
0.00368901
0.00370948
0.00373907
0.00377324
0.0038115
0.00385527
0.00389973
0.00393653
0.00396322
0.0039886
0.00400561
0.00401444
0.00401743
0.00401036
0.00396872
0.00389689
0.00379346
0.00366986
0.00357526
0.00352025
0.00345357
0.00337342
0.00331125
0.00324645
0.00316641
0.00309877
0.00303104
0.00297194
0.00293734
0.00291538
0.00291406
0.00292268
0.00293667
0.00295383
0.00296264
0.00293204
0.00285042
0.00272967
0.00259154
0.00247102
0.00238072
0.00231554
0.00226807
0.00222781
0.00215593
0.00201235
0.00181355
0.00162108
0.00145711
0.00132577
0.00122754
0.0011458
0.00105421
0.000950018
0.000832746
0.000700092
0.000558303
0.000424323
0.000318634
0.00024749
0.000205624
0.000183152
0.000172385
0.000168217
0.000166412
0.000163219
0.000155501
0.000145646
0.000136928
0.000131017
0.000127741
0.000125212
0.000120832
0.000112587
0.000100108
8.4934e-05
6.92176e-05
5.46691e-05
4.22895e-05
3.23651e-05
2.47153e-05
1.90027e-05
1.48477e-05
1.18613e-05
9.68967e-06
8.04947e-06
6.74132e-06
5.64247e-06
4.68706e-06
3.84553e-06
3.1066e-06
2.46544e-06
1.91961e-06
1.46584e-06
1.09826e-06
8.08006e-07
5.84009e-07
4.15058e-07
2.90773e-07
2.01663e-07
1.38984e-07
9.54251e-08
6.53172e-08
4.45162e-08
3.01377e-08
2.02114e-08
1.33946e-08
8.75514e-09
5.63683e-09
3.5699e-09
2.2218e-09
1.35796e-09
8.14835e-10
4.79939e-10
2.77424e-10
1.57486e-10
8.75976e-11
4.81503e-11
2.53921e-11
1.40846e-11
6.42883e-12
4.80474e-12
2.51604e-12
4.55858e-12
7.16701e-12
0.00481027
0.00502226
0.00557554
0.0081945
0.0144376
0.0191084
0.0245862
0.032671
0.0516406
0.0790255
0.100578
0.120182
0.12552
0.123378
0.115319
0.0951781
0.0651566
0.0410871
0.0269937
0.0190072
0.0139722
0.00996095
0.0073005
0.0110994
0.021164
0.0230727
0.0212946
0.012151
0.00746041
0.00520068
0.00425767
0.00389912
0.00377044
0.0037184
0.00367934
0.00365913
0.00364545
0.00364205
0.00364504
0.00368565
0.00372697
0.00376867
0.00381399
0.00385524
0.00390003
0.00395136
0.00400925
0.00406822
0.00409561
0.00410703
0.00410737
0.00409335
0.0040986
0.00410453
0.00407943
0.00401387
0.00395335
0.00392396
0.0039112
0.00390922
0.00391908
0.00395686
0.00399742
0.00403161
0.00407969
0.0041115
0.00412855
0.00415852
0.00417756
0.00418303
0.004183
0.00416374
0.00409916
0.00400032
0.00388111
0.00374406
0.00361315
0.00351057
0.00340543
0.00331071
0.00323859
0.00315969
0.00312094
0.00311262
0.00313586
0.00319551
0.00326942
0.00332279
0.00334819
0.00335042
0.00332543
0.00327172
0.00318622
0.00304591
0.0028286
0.00256996
0.00237704
0.00227362
0.0022362
0.0022317
0.00221932
0.00215641
0.00193389
0.00160534
0.00133451
0.00114193
0.00102333
0.000970908
0.000919782
0.000842188
0.000745454
0.000638781
0.000531384
0.000428229
0.000335276
0.000260044
0.000207969
0.000177282
0.000161722
0.000155129
0.000153086
0.000151775
0.000149003
0.00014081
0.000128767
0.000119495
0.000113937
0.000111267
0.000109932
0.000108583
0.000105877
9.90538e-05
8.46795e-05
6.88483e-05
5.37407e-05
4.05845e-05
2.98808e-05
2.16468e-05
1.56366e-05
1.14436e-05
8.60838e-06
6.70496e-06
5.39338e-06
4.43377e-06
3.67495e-06
3.03586e-06
2.48218e-06
2.00078e-06
1.58667e-06
1.23704e-06
9.48183e-07
7.14771e-07
5.30127e-07
3.87068e-07
2.78214e-07
1.96921e-07
1.37306e-07
9.43358e-08
6.38706e-08
4.26137e-08
2.80119e-08
1.81349e-08
1.15561e-08
7.24273e-09
4.46136e-09
2.70293e-09
1.61436e-09
9.49807e-10
5.5036e-10
3.1309e-10
1.75509e-10
9.70448e-11
5.61565e-11
3.10439e-11
2.48841e-11
2.36392e-11
3.6053e-11
3.1188e-11
3.76978e-11
3.51547e-11
0.00406558
0.00524224
0.0064396
0.0131354
0.0175305
0.021879
0.0290463
0.044158
0.0781879
0.105746
0.127402
0.14715
0.151767
0.150598
0.142588
0.114471
0.0695325
0.0406943
0.0264025
0.0183676
0.0127428
0.00936097
0.00964209
0.0186082
0.0207115
0.0194721
0.0108842
0.00672045
0.00493084
0.00418895
0.00391654
0.00381678
0.00377398
0.00374492
0.00372605
0.00370884
0.00370249
0.00372333
0.00377713
0.00386757
0.00397797
0.00411827
0.00428771
0.00448787
0.00471673
0.00498324
0.00528649
0.00559666
0.00587658
0.00606873
0.00615243
0.00617239
0.00604904
0.00580192
0.00568976
0.00547371
0.0051829
0.00485952
0.00459731
0.00448353
0.00433482
0.00427112
0.00423923
0.00422866
0.00425221
0.0043065
0.0043375
0.00437913
0.00439528
0.00440412
0.00440939
0.00440887
0.00438319
0.0043281
0.00424295
0.00413844
0.00400007
0.00384319
0.00369331
0.00357271
0.00348987
0.00344402
0.00343451
0.00343764
0.00344908
0.00346684
0.00349031
0.00350701
0.00350818
0.0034829
0.0034328
0.00336072
0.00329783
0.00326078
0.00319633
0.00307747
0.00278692
0.00241317
0.00220952
0.00216024
0.00218666
0.00222903
0.00221928
0.0020938
0.00165927
0.00122538
0.000944395
0.000772344
0.000701791
0.000688437
0.000668521
0.000612497
0.000533906
0.000449603
0.000369215
0.000299079
0.000241302
0.000197352
0.000168155
0.000151919
0.000144552
0.000141973
0.000140953
0.000139452
0.000135579
0.000124312
0.000111562
0.000102614
9.77186e-05
9.55896e-05
9.46725e-05
9.39148e-05
9.27192e-05
9.0151e-05
8.30277e-05
6.69914e-05
5.09658e-05
3.71819e-05
2.6195e-05
1.79986e-05
1.22408e-05
8.40173e-06
5.9399e-06
4.38422e-06
3.38279e-06
2.70039e-06
2.19294e-06
1.78364e-06
1.4377e-06
1.14151e-06
8.90242e-07
6.81299e-07
5.11728e-07
3.77467e-07
2.73624e-07
1.95046e-07
1.36787e-07
9.44138e-08
6.41551e-08
4.29208e-08
2.82713e-08
1.83328e-08
1.17021e-08
7.35119e-09
4.54373e-09
2.76275e-09
1.65202e-09
9.7105e-10
5.6222e-10
3.20515e-10
1.81e-10
1.02033e-10
6.03963e-11
3.5248e-11
2.60074e-11
2.24173e-11
2.5821e-11
2.30205e-11
2.17852e-11
2.28983e-11
0.00549578
0.00576942
0.00693426
0.0152803
0.0189416
0.0243665
0.0349031
0.0567845
0.0918652
0.118127
0.139791
0.161541
0.162219
0.151862
0.137302
0.103491
0.0615795
0.0363435
0.0237294
0.0154669
0.0111843
0.0104446
0.0161839
0.0185897
0.0183651
0.0107229
0.00649051
0.00485105
0.00420503
0.00396864
0.00388243
0.00384442
0.00383095
0.00380131
0.0037844
0.00378116
0.00383684
0.0039407
0.0041106
0.00434651
0.00466576
0.005104
0.00565985
0.00633565
0.00711601
0.00799847
0.00894668
0.00988583
0.0106995
0.0113007
0.0115963
0.0116965
0.0115041
0.0108999
0.00985056
0.00928722
0.00861338
0.00764857
0.00674508
0.0062938
0.00550241
0.0051608
0.00488646
0.00464271
0.00454568
0.00448536
0.00446288
0.0044516
0.00444407
0.00445514
0.00447533
0.0044918
0.00449667
0.00447597
0.00443101
0.00435883
0.00426193
0.00414416
0.00401345
0.00389088
0.00377657
0.00368185
0.00362639
0.00359011
0.00356283
0.00355142
0.00356165
0.00359275
0.00361312
0.0036002
0.00352907
0.00337799
0.00319807
0.00307219
0.00307875
0.00314735
0.00311837
0.00295958
0.00253643
0.00219964
0.00212419
0.00215913
0.00223031
0.00222958
0.00213435
0.00167896
0.00111326
0.000768386
0.000567831
0.000463071
0.000434623
0.000434991
0.000433993
0.000411036
0.000354678
0.000299401
0.000248984
0.000207157
0.000175413
0.000153616
0.000140672
0.000134357
0.000131912
0.000131011
0.000130065
0.000127903
0.000120897
0.00010669
9.53332e-05
8.82934e-05
8.49176e-05
8.36835e-05
8.32352e-05
8.28474e-05
8.2091e-05
8.03523e-05
7.52598e-05
6.09056e-05
4.46871e-05
3.12646e-05
2.10059e-05
1.37021e-05
8.8173e-06
5.72339e-06
3.84037e-06
2.71056e-06
2.01826e-06
1.56718e-06
1.24466e-06
9.92762e-07
7.85333e-07
6.11778e-07
4.67715e-07
3.50513e-07
2.57502e-07
1.85552e-07
1.31245e-07
9.11883e-08
6.22711e-08
4.18148e-08
2.76192e-08
1.79475e-08
1.14748e-08
7.21806e-09
4.46657e-09
2.71865e-09
1.62742e-09
9.57239e-10
5.54275e-10
3.15888e-10
1.78201e-10
9.95832e-11
5.79454e-11
3.32907e-11
2.24794e-11
1.60415e-11
1.37895e-11
1.08555e-11
9.28571e-12
9.81274e-12
0.00599948
0.0059662
0.00791729
0.0166742
0.0196333
0.0253165
0.0368052
0.0598148
0.0938599
0.119599
0.137326
0.145974
0.14753
0.135425
0.112416
0.0735622
0.0425048
0.0265931
0.0172458
0.0126754
0.0116278
0.0144345
0.0170653
0.0173199
0.0119185
0.00660179
0.00487803
0.00424464
0.00401759
0.00393952
0.00390844
0.00390247
0.00389292
0.00387487
0.00388239
0.00396454
0.00415513
0.00444343
0.00488415
0.0055144
0.00641588
0.00769622
0.00941352
0.011373
0.0135675
0.015513
0.0177138
0.0194852
0.0208165
0.0215128
0.0218156
0.0218933
0.0213811
0.0206164
0.0182141
0.0164746
0.0150303
0.0132152
0.0111175
0.0101455
0.00841257
0.00716772
0.00644665
0.00557909
0.00519894
0.0048197
0.00459757
0.00446284
0.00439278
0.00433874
0.00431741
0.00433742
0.00439119
0.00443185
0.00444182
0.00441829
0.00436038
0.0042748
0.00416899
0.00404842
0.00392641
0.0038007
0.00372257
0.00367508
0.00365261
0.00367355
0.00377905
0.00397862
0.00418601
0.00430574
0.00428952
0.00404074
0.00349701
0.00303068
0.00275546
0.00270129
0.00288833
0.00304518
0.00299571
0.00266645
0.00226676
0.0021696
0.00219626
0.00222959
0.00221347
0.00207482
0.00151153
0.000931735
0.000596158
0.000410054
0.000309252
0.000265738
0.000255068
0.000256977
0.000260063
0.000255919
0.000232484
0.000201579
0.000175398
0.000154326
0.000139147
0.000129643
0.000124673
0.000122546
0.000121686
0.000120964
0.000119521
0.000115398
0.00010312
9.02163e-05
8.16813e-05
7.72343e-05
7.55001e-05
7.50062e-05
7.48902e-05
7.47274e-05
7.4262e-05
7.25864e-05
6.6445e-05
5.06146e-05
3.53626e-05
2.35073e-05
1.49919e-05
9.28148e-06
5.67748e-06
3.51666e-06
2.26551e-06
1.5468e-06
1.12263e-06
8.54305e-07
6.66363e-07
5.22026e-07
4.05196e-07
3.09306e-07
2.31412e-07
1.69511e-07
1.21587e-07
8.54538e-08
5.88964e-08
3.9838e-08
2.64634e-08
1.72726e-08
1.10813e-08
6.98951e-09
4.33477e-09
2.64316e-09
1.58486e-09
9.33739e-10
5.40925e-10
3.08197e-10
1.73639e-10
9.63746e-11
5.46743e-11
3.07475e-11
1.88509e-11
1.12927e-11
7.13412e-12
4.85793e-12
3.48495e-12
3.52152e-12
0.00679366
0.00614341
0.00957191
0.0170567
0.0198095
0.0241099
0.031112
0.0425472
0.0585932
0.0791907
0.0946423
0.100977
0.101315
0.0866923
0.0623558
0.0396406
0.0252125
0.0174459
0.0137691
0.0128041
0.0136623
0.0159976
0.0164081
0.0134151
0.0071306
0.00499391
0.00430224
0.00407021
0.00399476
0.00396728
0.00398576
0.00402922
0.00403381
0.00406337
0.00422559
0.00457716
0.00516611
0.0060676
0.00738847
0.00908323
0.0110236
0.0133049
0.0163933
0.0195184
0.0224527
0.0265894
0.030421
0.0343365
0.037341
0.0389289
0.0395767
0.0396289
0.0374212
0.0359763
0.0314915
0.0273881
0.0240061
0.0212868
0.017122
0.0151604
0.0126539
0.0106117
0.00906524
0.00751254
0.00631379
0.00542917
0.00494863
0.00459759
0.00439534
0.00424658
0.00411062
0.00399626
0.00391088
0.00387884
0.00394996
0.00407276
0.00419963
0.00425934
0.0042292
0.00416722
0.00408771
0.00399086
0.00394039
0.00394154
0.0039896
0.00412914
0.00446565
0.00487917
0.00520699
0.0053778
0.00540386
0.00531401
0.00493262
0.0040496
0.0030546
0.00258197
0.00249906
0.00265428
0.00296471
0.00297822
0.00274075
0.00236416
0.00224491
0.00222179
0.00220865
0.00214332
0.00183737
0.00115736
0.00069238
0.000429247
0.00028871
0.000214593
0.000179463
0.000166361
0.000163991
0.000165301
0.000169633
0.000170303
0.000165201
0.00015031
0.000137217
0.000126855
0.000119729
0.000116007
0.000114527
0.000113908
0.000113268
0.000111978
0.000108649
9.83064e-05
8.5425e-05
7.64066e-05
7.1398e-05
6.93754e-05
6.89394e-05
6.90422e-05
6.92709e-05
6.92114e-05
6.8557e-05
6.54564e-05
5.40515e-05
3.76408e-05
2.47931e-05
1.55757e-05
9.41285e-06
5.54248e-06
3.24294e-06
1.93686e-06
1.21415e-06
8.13329e-07
5.82522e-07
4.37986e-07
3.36886e-07
2.59538e-07
1.97622e-07
1.47693e-07
1.08016e-07
7.72484e-08
5.40383e-08
3.70051e-08
2.4829e-08
1.63365e-08
1.05481e-08
6.68716e-09
4.16433e-09
2.54783e-09
1.53179e-09
9.04959e-10
5.25232e-10
2.994e-10
1.68192e-10
9.3124e-11
5.13099e-11
2.82818e-11
1.53228e-11
8.35252e-12
4.6423e-12
2.76241e-12
1.58875e-12
1.34165e-12
0.00730984
0.00629302
0.0103789
0.0169887
0.0191937
0.0226156
0.027675
0.0347503
0.0421035
0.0476941
0.0535502
0.056171
0.053549
0.045797
0.032031
0.0223074
0.0170182
0.0145133
0.0137969
0.0140685
0.0155203
0.0157527
0.0141973
0.00793823
0.00525675
0.00439093
0.0041246
0.00404677
0.00402336
0.00406739
0.0041258
0.00414827
0.00418365
0.0043397
0.00470532
0.00534177
0.00635907
0.00788492
0.0100296
0.0128144
0.0165848
0.0213763
0.0250808
0.0297105
0.0371787
0.045632
0.055084
0.0644539
0.0728033
0.0782619
0.0807106
0.081126
0.0740705
0.0684934
0.0606971
0.0497077
0.0405511
0.0341195
0.0267195
0.0216621
0.0171716
0.0146903
0.0121789
0.01051
0.00901399
0.00759677
0.00637011
0.005478
0.00491768
0.00461114
0.00437906
0.00413215
0.0038822
0.00365309
0.00347891
0.00338445
0.0033607
0.00345719
0.0036334
0.00381109
0.00396598
0.00402563
0.00407284
0.004153
0.00425237
0.00441037
0.00471183
0.00504229
0.00529654
0.00542506
0.00545723
0.00544965
0.00535428
0.00508656
0.00444182
0.00320206
0.00257352
0.00250288
0.00270535
0.00296232
0.00296062
0.00269807
0.00232953
0.00220478
0.00216693
0.00210949
0.00191241
0.00133698
0.000800581
0.000473795
0.000296846
0.000206042
0.000160017
0.000138299
0.000129903
0.00012802
0.000128305
0.000130708
0.0001334
0.000133715
0.000131389
0.00012363
0.000115563
0.000110118
0.00010819
0.000107685
0.000107409
0.000106877
0.000105644
0.000102247
9.21756e-05
8.01966e-05
7.15989e-05
6.66641e-05
6.46395e-05
6.42488e-05
6.44873e-05
6.52544e-05
6.53967e-05
6.50739e-05
6.29684e-05
5.41323e-05
3.77373e-05
2.46116e-05
1.52519e-05
9.05082e-06
5.19135e-06
2.91949e-06
1.64606e-06
9.58127e-07
5.9193e-07
3.9428e-07
2.81746e-07
2.10682e-07
1.60311e-07
1.21592e-07
9.08277e-08
6.64273e-08
4.7459e-08
3.31124e-08
2.25743e-08
1.50517e-08
9.82509e-09
6.2843e-09
3.94164e-09
2.42576e-09
1.46544e-09
8.69199e-10
5.06293e-10
2.8962e-10
1.62645e-10
8.96729e-11
4.85818e-11
2.59075e-11
1.36166e-11
7.08655e-12
3.65251e-12
1.94303e-12
9.83981e-13
6.12167e-13
0.00835994
0.00637729
0.0107719
0.0166921
0.0184638
0.0206171
0.0228225
0.0254601
0.0288703
0.0310738
0.0321001
0.0320626
0.0310495
0.0268049
0.0200603
0.0168311
0.0152354
0.0146817
0.0149792
0.0156972
0.0154594
0.0143034
0.00897346
0.0056625
0.00451733
0.00417289
0.0040809
0.00406131
0.00408333
0.00417317
0.00424896
0.0043273
0.00451909
0.00505573
0.00602158
0.0074137
0.00954509
0.0125323
0.0163314
0.0207454
0.0251845
0.0293807
0.0360261
0.0478509
0.0647737
0.0865006
0.109253
0.128233
0.143011
0.152282
0.156972
0.158453
0.150506
0.134462
0.119251
0.0985277
0.0767027
0.0597928
0.0453627
0.0328861
0.0242819
0.0173553
0.0137639
0.011422
0.0100016
0.00901184
0.00808946
0.00726045
0.00653823
0.0060647
0.00579394
0.00553228
0.00514143
0.00462351
0.00405563
0.0035792
0.00329044
0.00312275
0.00301959
0.00297032
0.00296818
0.00306947