/*--------------------------------*- C++ -*----------------------------------*\
  =========                 |
  \\      /  F ield         | OpenFOAM: The Open Source CFD Toolbox
   \\    /   O peration     | Website:  https://openfoam.org
    \\  /    A nd           | Version:  9
     \\/     M anipulation  |
\*---------------------------------------------------------------------------*/
FoamFile
{
    format      ascii;
    class       volSymmTensorField;
    location    "0.027";
    object      UPrime2Mean;
}
// * * * * * * * * * * * * * * * * * * * * * * * * * * * * * * * * * * * * * //

dimensions      [0 2 -2 0 0 0 0];

internalField   nonuniform List<symmTensor> 
12225
(
(-48.5209 -0.23474 0 0.00111759 0 0)
(-45.6346 -0.307017 0 -0.0010008 0 0)
(-42.7421 -0.288516 0 -0.00121538 0 0)
(-39.8918 -0.273307 0 -0.00129462 0 0)
(-37.1571 -0.264126 0 -0.00138765 0 0)
(-34.5777 -0.254652 0 -0.00144018 0 0)
(-32.1316 -0.245284 0 -0.00146128 0 0)
(-29.8337 -0.233889 0 -0.00145238 0 0)
(-27.6192 -0.226293 0 -0.00144898 0 0)
(-25.5321 -0.217132 0 -0.00147414 0 0)
(-23.4359 -0.218349 0 -0.00151604 0 0)
(-21.4675 -0.212037 0 -0.00163581 0 0)
(-19.3482 -0.228977 0 -0.00166421 0 0)
(-17.4219 -0.219015 0 -0.00195771 0 0)
(-15.1016 -0.270188 0 -0.00162158 0 0)
(-13.1299 -0.239469 0 -0.00233674 0 0)
(-10.3134 -0.39442 0 0.00088562 0 0)
(-8.03899 -0.329706 0 -0.00367985 0 0)
(-50.1185 -0.243877 0 0.00152933 0 0)
(-50.6828 -0.366877 0 -0.00141635 0 0)
(-51.0194 -0.372874 0 -0.00196097 0 0)
(-51.0853 -0.387742 0 -0.00234995 0 0)
(-50.951 -0.409638 0 -0.00278243 0 0)
(-50.6849 -0.430671 0 -0.00317873 0 0)
(-50.3024 -0.44757 0 -0.00351356 0 0)
(-49.8287 -0.468746 0 -0.00386956 0 0)
(-49.2464 -0.488916 0 -0.00424795 0 0)
(-48.5873 -0.52218 0 -0.00472506 0 0)
(-47.7925 -0.552984 0 -0.00531762 0 0)
(-46.9199 -0.606533 0 -0.00599189 0 0)
(-45.8417 -0.651808 0 -0.00693743 0 0)
(-44.6951 -0.736378 0 -0.00773249 0 0)
(-43.2175 -0.812741 0 -0.00943754 0 0)
(-41.6924 -0.958737 0 -0.0100269 0 0)
(-39.6292 -1.14601 0 -0.01335 0 0)
(-37.5486 -1.47492 0 -0.0083744 0 0)
(-49.8225 -0.179705 0 0.00275109 0 0)
(-50.1087 -0.284254 0 0.000190441 0 0)
(-50.3334 -0.308575 0 -0.000680238 0 0)
(-50.4523 -0.332586 0 -0.00118068 0 0)
(-50.4973 -0.36707 0 -0.00171298 0 0)
(-50.5035 -0.40201 0 -0.0022354 0 0)
(-50.4754 -0.434605 0 -0.00269865 0 0)
(-50.4135 -0.465101 0 -0.00315762 0 0)
(-50.3051 -0.499686 0 -0.00360705 0 0)
(-50.1507 -0.539716 0 -0.00419857 0 0)
(-49.9343 -0.594291 0 -0.00478038 0 0)
(-49.6579 -0.658708 0 -0.00571958 0 0)
(-49.3025 -0.748782 0 -0.00648718 0 0)
(-48.8677 -0.852516 0 -0.00804741 0 0)
(-48.3363 -1.00602 0 -0.00893282 0 0)
(-47.6994 -1.19341 0 -0.0111536 0 0)
(-46.9878 -1.4936 0 -0.0109391 0 0)
(-46.2127 -1.90181 0 -0.00528507 0 0)
(-50.247 -0.138907 0 0.00287923 0 0)
(-50.4346 -0.291344 0 0.000148031 0 0)
(-50.5927 -0.332193 0 -0.000893382 0 0)
(-50.675 -0.353274 0 -0.00138387 0 0)
(-50.6826 -0.384054 0 -0.00189997 0 0)
(-50.6459 -0.420417 0 -0.0024545 0 0)
(-50.5795 -0.455438 0 -0.00297089 0 0)
(-50.4791 -0.492475 0 -0.00346068 0 0)
(-50.3377 -0.533778 0 -0.00399408 0 0)
(-50.1525 -0.587231 0 -0.00461653 0 0)
(-49.926 -0.651918 0 -0.00541206 0 0)
(-49.658 -0.734606 0 -0.00630611 0 0)
(-49.3483 -0.834219 0 -0.00738778 0 0)
(-48.991 -0.961416 0 -0.00845596 0 0)
(-48.5844 -1.12462 0 -0.00960097 0 0)
(-48.1379 -1.34193 0 -0.0102162 0 0)
(-47.6741 -1.63851 0 -0.00862367 0 0)
(-47.2641 -2.02172 0 -0.00153898 0 0)
(-49.9987 -0.135802 0 0.00360297 0 0)
(-50.1019 -0.267916 0 0.00109694 0 0)
(-50.2155 -0.311712 0 -0.000217318 0 0)
(-50.2741 -0.337866 0 -0.000813942 0 0)
(-50.2714 -0.375349 0 -0.00137306 0 0)
(-50.2312 -0.419414 0 -0.00195338 0 0)
(-50.1623 -0.463377 0 -0.00249907 0 0)
(-50.06 -0.507711 0 -0.00303276 0 0)
(-49.9193 -0.557056 0 -0.00356593 0 0)
(-49.7417 -0.615185 0 -0.00416236 0 0)
(-49.5279 -0.68596 0 -0.00478203 0 0)
(-49.2795 -0.772943 0 -0.00547937 0 0)
(-48.9913 -0.882 0 -0.00615328 0 0)
(-48.6658 -1.02058 0 -0.00677372 0 0)
(-48.2983 -1.19814 0 -0.00709009 0 0)
(-47.9148 -1.42893 0 -0.00616078 0 0)
(-47.5232 -1.71874 0 -0.00273833 0 0)
(-47.1934 -2.07546 0 0.00815666 0 0)
(-50.0778 -0.112628 0 0.00497798 0 0)
(-50.1536 -0.255769 0 0.00196071 0 0)
(-50.2086 -0.317981 0 0.000229203 0 0)
(-50.2404 -0.350879 0 -0.000598946 0 0)
(-50.2425 -0.386274 0 -0.00125413 0 0)
(-50.2141 -0.430684 0 -0.00188083 0 0)
(-50.1528 -0.47996 0 -0.00247875 0 0)
(-50.0546 -0.532979 0 -0.00305852 0 0)
(-49.9155 -0.591858 0 -0.00363796 0 0)
(-49.7349 -0.660663 0 -0.00423766 0 0)
(-49.5122 -0.742993 0 -0.00484402 0 0)
(-49.2517 -0.843265 0 -0.00543277 0 0)
(-48.9546 -0.966047 0 -0.0058989 0 0)
(-48.6312 -1.11791 0 -0.00608361 0 0)
(-48.2847 -1.30535 0 -0.00554505 0 0)
(-47.9388 -1.53774 0 -0.00339864 0 0)
(-47.6014 -1.81649 0 0.00201083 0 0)
(-47.3187 -2.14543 0 0.0139774 0 0)
(-49.4366 -0.100262 0 0.00426871 0 0)
(-49.5253 -0.230885 0 0.00235169 0 0)
(-49.6248 -0.298739 0 0.000642846 0 0)
(-49.6971 -0.33682 0 -0.000211945 0 0)
(-49.7013 -0.377744 0 -0.000829153 0 0)
(-49.6479 -0.428456 0 -0.00141486 0 0)
(-49.5678 -0.485066 0 -0.00199056 0 0)
(-49.4814 -0.546603 0 -0.0025448 0 0)
(-49.3887 -0.615149 0 -0.00307598 0 0)
(-49.2795 -0.693974 0 -0.00356913 0 0)
(-49.1401 -0.785811 0 -0.00398476 0 0)
(-48.9652 -0.894888 0 -0.00423721 0 0)
(-48.7512 -1.02528 0 -0.00419991 0 0)
(-48.507 -1.18381 0 -0.00358547 0 0)
(-48.2374 -1.37523 0 -0.00195807 0 0)
(-47.9641 -1.6069 0 0.00167895 0 0)
(-47.6964 -1.87802 0 0.00871383 0 0)
(-47.469 -2.19039 0 0.0213653 0 0)
(-49.8418 -0.090488 0 0.00586565 0 0)
(-49.8619 -0.216434 0 0.00316782 0 0)
(-49.9432 -0.298527 0 0.00131117 0 0)
(-50.0217 -0.353367 0 0.000448082 0 0)
(-50.043 -0.403888 0 -0.000200586 0 0)
(-50.0018 -0.456915 0 -0.000766893 0 0)
(-49.918 -0.512159 0 -0.00129866 0 0)
(-49.8109 -0.571074 0 -0.00182719 0 0)
(-49.6888 -0.638241 0 -0.00232476 0 0)
(-49.5514 -0.719455 0 -0.00274592 0 0)
(-49.3925 -0.818946 0 -0.00305531 0 0)
(-49.2081 -0.940211 0 -0.00316577 0 0)
(-48.995 -1.08526 0 -0.00289247 0 0)
(-48.7588 -1.2575 0 -0.00185846 0 0)
(-48.5053 -1.45885 0 0.000466443 0 0)
(-48.2531 -1.69349 0 0.00501237 0 0)
(-48.0119 -1.95998 0 0.0128994 0 0)
(-47.81 -2.25914 0 0.0256969 0 0)
(-49.5083 -0.0763355 0 0.0056793 0 0)
(-49.4641 -0.191717 0 0.00319259 0 0)
(-49.4937 -0.270205 0 0.00155485 0 0)
(-49.5606 -0.331659 0 0.000600322 0 0)
(-49.609 -0.390331 0 -9.51709e-05 0 0)
(-49.6229 -0.453052 0 -0.00072585 0 0)
(-49.606 -0.520364 0 -0.00128633 0 0)
(-49.5634 -0.592366 0 -0.00175314 0 0)
(-49.4954 -0.671589 0 -0.00210017 0 0)
(-49.3985 -0.762553 0 -0.00228635 0 0)
(-49.2697 -0.869262 0 -0.00224454 0 0)
(-49.1105 -0.995662 0 -0.00184663 0 0)
(-48.9264 -1.14416 0 -0.000879793 0 0)
(-48.7268 -1.31809 0 0.0010328 0 0)
(-48.5211 -1.51832 0 0.00440597 0 0)
(-48.3234 -1.74804 0 0.0100314 0 0)
(-48.1433 -2.00462 0 0.0187959 0 0)
(-47.9977 -2.28941 0 0.0317764 0 0)
(-49.7732 -0.129109 0 0.00542345 0 0)
(-49.8073 -0.192117 0 0.00341401 0 0)
(-49.8406 -0.272415 0 0.00205634 0 0)
(-49.8663 -0.338095 0 0.00126332 0 0)
(-49.8717 -0.394557 0 0.000634955 0 0)
(-49.8518 -0.453317 0 7.54955e-05 0 0)
(-49.8108 -0.518046 0 -0.00040248 0 0)
(-49.7555 -0.590725 0 -0.000776652 0 0)
(-49.6869 -0.674632 0 -0.00101178 0 0)
(-49.6018 -0.774253 0 -0.0010717 0 0)
(-49.4956 -0.892698 0 -0.000898359 0 0)
(-49.3689 -1.032 0 -0.000326036 0 0)
(-49.2239 -1.19224 0 0.000941646 0 0)
(-49.0693 -1.37458 0 0.00332418 0 0)
(-48.9113 -1.57877 0 0.00732715 0 0)
(-48.7629 -1.80674 0 0.0135847 0 0)
(-48.6299 -2.05632 0 0.022774 0 0)
(-48.5264 -2.32834 0 0.0355303 0 0)
(-49.7212 -0.0791729 0 0.00546311 0 0)
(-49.7753 -0.168409 0 0.00410414 0 0)
(-49.7979 -0.258346 0 0.00245414 0 0)
(-49.8058 -0.338703 0 0.00132002 0 0)
(-49.8035 -0.410595 0 0.000623342 0 0)
(-49.7822 -0.479448 0 0.000206739 0 0)
(-49.737 -0.5507 0 -9.31968e-05 0 0)
(-49.6698 -0.628839 0 -0.000306751 0 0)
(-49.5839 -0.717549 0 -0.000346063 0 0)
(-49.4825 -0.820557 0 -9.34289e-05 0 0)
(-49.3701 -0.940557 0 0.000571032 0 0)
(-49.2511 -1.07984 0 0.00180053 0 0)
(-49.1305 -1.23887 0 0.00383872 0 0)
(-49.0114 -1.4187 0 0.00703567 0 0)
(-48.8997 -1.6184 0 0.0118176 0 0)
(-48.7991 -1.83955 0 0.018718 0 0)
(-48.7189 -2.0793 0 0.0282436 0 0)
(-48.662 -2.33972 0 0.0408699 0 0)
(-50.2334 -0.0832991 0 0.00595632 0 0)
(-50.2273 -0.188094 0 0.00461016 0 0)
(-50.2306 -0.260161 0 0.00292243 0 0)
(-50.262 -0.328872 0 0.00171073 0 0)
(-50.3024 -0.396324 0 0.000968827 0 0)
(-50.3313 -0.464822 0 0.000550424 0 0)
(-50.3375 -0.539263 0 0.000269168 0 0)
(-50.3181 -0.623651 0 0.00010389 0 0)
(-50.2736 -0.720301 0 0.000151921 0 0)
(-50.2059 -0.831046 0 0.000544427 0 0)
(-50.1196 -0.95752 0 0.00141808 0 0)
(-50.0218 -1.10169 0 0.00293497 0 0)
(-49.9209 -1.26408 0 0.00533181 0 0)
(-49.8237 -1.44567 0 0.00892948 0 0)
(-49.7362 -1.64503 0 0.0140892 0 0)
(-49.6631 -1.86287 0 0.0212585 0 0)
(-49.6097 -2.09575 0 0.0308045 0 0)
(-49.5808 -2.34526 0 0.0429988 0 0)
(-49.8158 -0.0982354 0 0.00695602 0 0)
(-49.7909 -0.166781 0 0.00485023 0 0)
(-49.7712 -0.250575 0 0.00290886 0 0)
(-49.7566 -0.334555 0 0.00200911 0 0)
(-49.7449 -0.410437 0 0.00157748 0 0)
(-49.739 -0.483046 0 0.00135807 0 0)
(-49.7339 -0.560979 0 0.00122907 0 0)
(-49.7227 -0.649955 0 0.00123812 0 0)
(-49.6984 -0.75206 0 0.0015051 0 0)
(-49.6591 -0.868265 0 0.00216499 0 0)
(-49.6035 -0.998653 0 0.00337275 0 0)
(-49.5381 -1.14409 0 0.00532023 0 0)
(-49.4662 -1.30426 0 0.00823897 0 0)
(-49.4006 -1.48073 0 0.012396 0 0)
(-49.3432 -1.67229 0 0.0180814 0 0)
(-49.31 -1.88087 0 0.0256341 0 0)
(-49.294 -2.10244 0 0.0353098 0 0)
(-49.3183 -2.33979 0 0.0473254 0 0)
(-50.3567 -0.102337 0 0.00957716 0 0)
(-50.3976 -0.174683 0 0.00690482 0 0)
(-50.408 -0.263751 0 0.00514509 0 0)
(-50.4023 -0.338917 0 0.00415931 0 0)
(-50.3904 -0.400508 0 0.0032429 0 0)
(-50.3769 -0.462546 0 0.00255345 0 0)
(-50.3627 -0.536423 0 0.00226326 0 0)
(-50.347 -0.626807 0 0.00236969 0 0)
(-50.3284 -0.73364 0 0.00284179 0 0)
(-50.3053 -0.856334 0 0.00373127 0 0)
(-50.2761 -0.993742 0 0.00517963 0 0)
(-50.2413 -1.14559 0 0.00739627 0 0)
(-50.2048 -1.31026 0 0.0106213 0 0)
(-50.1708 -1.48801 0 0.0151054 0 0)
(-50.1484 -1.67646 0 0.0210625 0 0)
(-50.1402 -1.87736 0 0.0287301 0 0)
(-50.157 -2.08655 0 0.0382612 0 0)
(-50.1943 -2.30816 0 0.0497648 0 0)
(-49.9388 -0.0496731 0 0.0087546 0 0)
(-50.0551 -0.160033 0 0.00708153 0 0)
(-50.1322 -0.250297 0 0.00489282 0 0)
(-50.1847 -0.33352 0 0.00401679 0 0)
(-50.2145 -0.414402 0 0.00364005 0 0)
(-50.2181 -0.493862 0 0.00345758 0 0)
(-50.1996 -0.575206 0 0.00345041 0 0)
(-50.1701 -0.664698 0 0.00375986 0 0)
(-50.1408 -0.767836 0 0.00454154 0 0)
(-50.1192 -0.887414 0 0.00586185 0 0)
(-50.1083 -1.02236 0 0.00779075 0 0)
(-50.1094 -1.17082 0 0.0104972 0 0)
(-50.1234 -1.32981 0 0.0141895 0 0)
(-50.152 -1.49907 0 0.0190811 0 0)
(-50.197 -1.67633 0 0.0253234 0 0)
(-50.2607 -1.86395 0 0.0331103 0 0)
(-50.3444 -2.05771 0 0.0425291 0 0)
(-50.4514 -2.26274 0 0.0536863 0 0)
(-50.2295 -0.00585324 0 0.0109983 0 0)
(-50.3003 -0.137967 0 0.00984036 0 0)
(-50.3362 -0.232572 0 0.00788697 0 0)
(-50.3755 -0.313391 0 0.00667188 0 0)
(-50.4168 -0.394246 0 0.00596106 0 0)
(-50.4539 -0.47775 0 0.00559529 0 0)
(-50.4817 -0.565114 0 0.00555211 0 0)
(-50.5023 -0.659291 0 0.00593984 0 0)
(-50.5244 -0.762939 0 0.00688119 0 0)
(-50.5567 -0.877853 0 0.00846811 0 0)
(-50.6028 -1.00404 0 0.0107674 0 0)
(-50.6628 -1.14167 0 0.0138513 0 0)
(-50.7352 -1.28898 0 0.0178271 0 0)
(-50.8196 -1.44599 0 0.0228396 0 0)
(-50.9164 -1.60969 0 0.0289827 0 0)
(-51.0281 -1.78205 0 0.0364675 0 0)
(-51.1553 -1.95789 0 0.0453132 0 0)
(-51.3012 -2.14296 0 0.0555846 0 0)
(-50.1036 0.0130046 0 0.0122977 0 0)
(-50.0796 -0.0993529 0 0.0116446 0 0)
(-50.0727 -0.197881 0 0.00790501 0 0)
(-50.1153 -0.282609 0 0.00611704 0 0)
(-50.1746 -0.365156 0 0.0057689 0 0)
(-50.2296 -0.44959 0 0.00612252 0 0)
(-50.2831 -0.535241 0 0.00674999 0 0)
(-50.3439 -0.623455 0 0.00756384 0 0)
(-50.415 -0.717753 0 0.00872554 0 0)
(-50.4964 -0.822413 0 0.0104728 0 0)
(-50.5856 -0.939331 0 0.012947 0 0)
(-50.683 -1.06896 0 0.0162044 0 0)
(-50.7869 -1.20845 0 0.0202825 0 0)
(-50.9023 -1.35644 0 0.0252982 0 0)
(-51.027 -1.50862 0 0.0313051 0 0)
(-51.1718 -1.66666 0 0.0384777 0 0)
(-51.3278 -1.82495 0 0.0467709 0 0)
(-51.514 -1.99002 0 0.0562806 0 0)
(-49.7727 -0.056327 0 0.0121607 0 0)
(-49.7485 -0.123637 0 0.0118822 0 0)
(-49.7339 -0.202926 0 0.00949477 0 0)
(-49.7753 -0.286677 0 0.00844763 0 0)
(-49.8601 -0.365296 0 0.00834919 0 0)
(-49.9579 -0.437401 0 0.00861014 0 0)
(-50.0525 -0.508484 0 0.00891656 0 0)
(-50.1416 -0.585009 0 0.00943238 0 0)
(-50.2278 -0.671249 0 0.0104713 0 0)
(-50.3167 -0.769572 0 0.0122038 0 0)
(-50.4132 -0.879102 0 0.0146238 0 0)
(-50.5233 -0.998155 0 0.0176988 0 0)
(-50.6486 -1.12248 0 0.0214375 0 0)
(-50.7926 -1.25053 0 0.0259451 0 0)
(-50.9526 -1.37778 0 0.0311988 0 0)
(-51.1342 -1.50665 0 0.0373416 0 0)
(-51.3302 -1.63191 0 0.0442968 0 0)
(-51.5513 -1.76117 0 0.0521193 0 0)
(-49.6414 -0.0228106 0 0.0117035 0 0)
(-49.6849 -0.0694892 0 0.0109049 0 0)
(-49.7405 -0.12019 0 0.00762306 0 0)
(-49.8386 -0.170721 0 0.0060671 0 0)
(-49.9645 -0.226607 0 0.00573811 0 0)
(-50.0956 -0.294956 0 0.00615716 0 0)
(-50.2218 -0.37544 0 0.00699875 0 0)
(-50.3456 -0.462938 0 0.00816455 0 0)
(-50.4729 -0.552359 0 0.00968722 0 0)
(-50.6084 -0.642196 0 0.0115909 0 0)
(-50.7546 -0.732961 0 0.0139013 0 0)
(-50.9138 -0.826728 0 0.0166917 0 0)
(-51.0861 -0.923155 0 0.0200171 0 0)
(-51.2713 -1.02287 0 0.0239496 0 0)
(-51.4669 -1.12263 0 0.0284542 0 0)
(-51.6734 -1.22403 0 0.0336291 0 0)
(-51.8879 -1.32207 0 0.0393489 0 0)
(-52.1135 -1.42237 0 0.0457343 0 0)
(-49.9311 -0.0188693 0 0.0126798 0 0)
(-49.9259 -0.0478325 0 0.0113796 0 0)
(-49.9479 -0.0827721 0 0.00745438 0 0)
(-50.0042 -0.127734 0 0.00591446 0 0)
(-50.0828 -0.179997 0 0.00568793 0 0)
(-50.1763 -0.238165 0 0.00602088 0 0)
(-50.287 -0.301291 0 0.00663874 0 0)
(-50.4161 -0.36821 0 0.00744959 0 0)
(-50.5588 -0.437678 0 0.00848113 0 0)
(-50.7108 -0.509586 0 0.00981702 0 0)
(-50.8716 -0.584094 0 0.011516 0 0)
(-51.0435 -0.662189 0 0.0136089 0 0)
(-51.2289 -0.74292 0 0.0160906 0 0)
(-51.429 -0.826121 0 0.0189816 0 0)
(-51.6432 -0.908806 0 0.0222406 0 0)
(-51.8705 -0.991474 0 0.0259616 0 0)
(-52.108 -1.06995 0 0.0300515 0 0)
(-52.3552 -1.14767 0 0.0345637 0 0)
(-50.3479 -0.0386909 0 0.0100062 0 0)
(-50.3835 -0.0454221 0 0.00966055 0 0)
(-50.4135 -0.0660246 0 0.00726843 0 0)
(-50.4679 -0.0950085 0 0.00583798 0 0)
(-50.5567 -0.128233 0 0.00521531 0 0)
(-50.6682 -0.165323 0 0.00525227 0 0)
(-50.7931 -0.210235 0 0.00582313 0 0)
(-50.93 -0.264358 0 0.00674177 0 0)
(-51.077 -0.324723 0 0.00785829 0 0)
(-51.2308 -0.387154 0 0.00916746 0 0)
(-51.3918 -0.448345 0 0.0106959 0 0)
(-51.5626 -0.507737 0 0.0124525 0 0)
(-51.7472 -0.565417 0 0.0144342 0 0)
(-51.9465 -0.623124 0 0.0166795 0 0)
(-52.1626 -0.68044 0 0.0191803 0 0)
(-52.3916 -0.739214 0 0.0220195 0 0)
(-52.6346 -0.796372 0 0.0251161 0 0)
(-52.8832 -0.855231 0 0.0285208 0 0)
(-50.6743 -0.000586567 0 0.0110722 0 0)
(-50.7627 -0.0186621 0 0.00919405 0 0)
(-50.8532 -0.0396141 0 0.00665568 0 0)
(-50.9639 -0.0582768 0 0.00562785 0 0)
(-51.0898 -0.0778953 0 0.00517516 0 0)
(-51.2284 -0.104162 0 0.00514269 0 0)
(-51.384 -0.140788 0 0.00547568 0 0)
(-51.5596 -0.187933 0 0.00603814 0 0)
(-51.7527 -0.241573 0 0.0067433 0 0)
(-51.9575 -0.296778 0 0.00761552 0 0)
(-52.1685 -0.350015 0 0.00869254 0 0)
(-52.3827 -0.399922 0 0.00996182 0 0)
(-52.5983 -0.446188 0 0.0113767 0 0)
(-52.8161 -0.490238 0 0.0129349 0 0)
(-53.035 -0.532649 0 0.0146265 0 0)
(-53.2573 -0.575583 0 0.0165531 0 0)
(-53.4806 -0.617731 0 0.018676 0 0)
(-53.7084 -0.661769 0 0.0210247 0 0)
(-49.8383 0.0259625 0 0.00945631 0 0)
(-49.9535 0.0206951 0 0.00704697 0 0)
(-50.0816 0.0157259 0 0.00455875 0 0)
(-50.2179 0.00611707 0 0.00380812 0 0)
(-50.3488 -0.00877668 0 0.00372696 0 0)
(-50.473 -0.0247647 0 0.00374298 0 0)
(-50.5997 -0.0432088 0 0.00380539 0 0)
(-50.7395 -0.0695137 0 0.00409623 0 0)
(-50.8983 -0.105616 0 0.00462252 0 0)
(-51.0798 -0.148913 0 0.00530662 0 0)
(-51.2829 -0.194946 0 0.0061401 0 0)
(-51.503 -0.2407 0 0.00714714 0 0)
(-51.7324 -0.284542 0 0.00831483 0 0)
(-51.9673 -0.327209 0 0.00963548 0 0)
(-52.2022 -0.368733 0 0.011079 0 0)
(-52.4379 -0.4103 0 0.0126781 0 0)
(-52.6693 -0.45012 0 0.0143808 0 0)
(-52.9023 -0.489263 0 0.0162137 0 0)
(-50.4025 0.0614824 0 0.00834873 0 0)
(-50.4601 0.0519857 0 0.00604333 0 0)
(-50.5472 0.0507311 0 0.00402959 0 0)
(-50.6811 0.0444616 0 0.00343453 0 0)
(-50.8263 0.0284459 0 0.00354099 0 0)
(-50.9551 0.00624594 0 0.00382094 0 0)
(-51.075 -0.0184348 0 0.00411119 0 0)
(-51.2016 -0.0439996 0 0.0044208 0 0)
(-51.3443 -0.0703575 0 0.00478325 0 0)
(-51.5063 -0.0975111 0 0.00522546 0 0)
(-51.6875 -0.124794 0 0.00574984 0 0)
(-51.8842 -0.152306 0 0.00636362 0 0)
(-52.0927 -0.18038 0 0.00708368 0 0)
(-52.3105 -0.210047 0 0.00793032 0 0)
(-52.5368 -0.241075 0 0.00888479 0 0)
(-52.7705 -0.273779 0 0.00996402 0 0)
(-53.0104 -0.306237 0 0.0111181 0 0)
(-53.2553 -0.338692 0 0.0123344 0 0)
(-50.1984 0.0671697 0 0.00732205 0 0)
(-50.2443 0.0933714 0 0.00479574 0 0)
(-50.3517 0.0939235 0 0.0030413 0 0)
(-50.5044 0.0850264 0 0.00249541 0 0)
(-50.66 0.075023 0 0.00237188 0 0)
(-50.8076 0.0643438 0 0.00239338 0 0)
(-50.9595 0.0528548 0 0.00249405 0 0)
(-51.1252 0.0396904 0 0.002655 0 0)
(-51.3042 0.0233191 0 0.00290101 0 0)
(-51.4928 0.00304811 0 0.00325242 0 0)
(-51.6878 -0.019937 0 0.00369618 0 0)
(-51.8877 -0.0441384 0 0.00421487 0 0)
(-52.0917 -0.0682995 0 0.00479473 0 0)
(-52.3004 -0.0924187 0 0.00543684 0 0)
(-52.5141 -0.116114 0 0.00612709 0 0)
(-52.734 -0.139829 0 0.00689519 0 0)
(-52.9581 -0.162535 0 0.00771119 0 0)
(-53.1873 -0.185092 0 0.00858062 0 0)
(-50.1874 0.0640822 0 0.00660182 0 0)
(-50.3282 0.117937 0 0.00457952 0 0)
(-50.5058 0.129243 0 0.00272343 0 0)
(-50.7039 0.121331 0 0.00202158 0 0)
(-50.8868 0.110819 0 0.00184836 0 0)
(-51.0412 0.100086 0 0.00190384 0 0)
(-51.1789 0.0885212 0 0.0020498 0 0)
(-51.3168 0.0759999 0 0.00222026 0 0)
(-51.4655 0.0618951 0 0.0024038 0 0)
(-51.6299 0.0459964 0 0.00261099 0 0)
(-51.811 0.029166 0 0.00285019 0 0)
(-52.0058 0.0121513 0 0.00312314 0 0)
(-52.21 -0.00474081 0 0.00343238 0 0)
(-52.4204 -0.0220132 0 0.00378973 0 0)
(-52.6347 -0.0398227 0 0.00419108 0 0)
(-52.8531 -0.0585304 0 0.00465921 0 0)
(-53.0751 -0.0772735 0 0.00517144 0 0)
(-53.3027 -0.0962276 0 0.00571379 0 0)
(-50.0427 0.127041 0 0.00533306 0 0)
(-50.2074 0.156711 0 0.003474 0 0)
(-50.3702 0.180335 0 0.00199843 0 0)
(-50.5224 0.180382 0 0.00146025 0 0)
(-50.6621 0.169193 0 0.00136216 0 0)
(-50.8013 0.156126 0 0.00136281 0 0)
(-50.9518 0.14498 0 0.001391 0 0)
(-51.1181 0.136917 0 0.00141981 0 0)
(-51.2995 0.130592 0 0.00144061 0 0)
(-51.4941 0.123785 0 0.00149067 0 0)
(-51.7013 0.115131 0 0.00160423 0 0)
(-51.9198 0.104282 0 0.00178565 0 0)
(-52.147 0.0917011 0 0.00202094 0 0)
(-52.3795 0.0780285 0 0.00229908 0 0)
(-52.6152 0.0644188 0 0.00260336 0 0)
(-52.8527 0.0514203 0 0.00293865 0 0)
(-53.0913 0.0399876 0 0.00328687 0 0)
(-53.3305 0.0296526 0 0.00363984 0 0)
(-50.1812 0.153418 0 0.00379409 0 0)
(-50.3043 0.174328 0 0.00172555 0 0)
(-50.4749 0.18038 0 0.00091941 0 0)
(-50.6483 0.178529 0 0.000647413 0 0)
(-50.816 0.174152 0 0.00056844 0 0)
(-50.9965 0.169447 0 0.000561843 0 0)
(-51.1992 0.165416 0 0.0005753 0 0)
(-51.4185 0.16218 0 0.000586123 0 0)
(-51.6442 0.15941 0 0.000588971 0 0)
(-51.8684 0.156629 0 0.000590198 0 0)
(-52.0886 0.153179 0 0.000603273 0 0)
(-52.3049 0.148693 0 0.00064105 0 0)
(-52.5194 0.142707 0 0.000715052 0 0)
(-52.7331 0.135103 0 0.000831438 0 0)
(-52.9489 0.125999 0 0.000984565 0 0)
(-53.167 0.116179 0 0.00117009 0 0)
(-53.391 0.10633 0 0.0013788 0 0)
(-53.6191 0.0971357 0 0.00160338 0 0)
(-50.2236 0.162079 0 0.00370858 0 0)
(-50.5177 0.246873 0 0.000658463 0 0)
(-50.7846 0.234552 0 0.000194675 0 0)
(-50.9962 0.233355 0 3.32508e-05 0 0)
(-51.1723 0.241511 0 -0.000135066 0 0)
(-51.3339 0.246297 0 -0.00024002 0 0)
(-51.4905 0.247188 0 -0.000280182 0 0)
(-51.6424 0.246742 0 -0.000283902 0 0)
(-51.7843 0.24524 0 -0.00026075 0 0)
(-51.9134 0.241851 0 -0.000206878 0 0)
(-52.0301 0.236075 0 -0.000122198 0 0)
(-52.1411 0.228546 0 -1.65179e-05 0 0)
(-52.2497 0.220127 0 0.00010578 0 0)
(-52.3628 0.212147 0 0.000237454 0 0)
(-52.4764 0.205282 0 0.000364519 0 0)
(-52.5969 0.200389 0 0.000483547 0 0)
(-52.7124 0.19729 0 0.000580776 0 0)
(-52.8364 0.196488 0 0.000629166 0 0)
(-48.9614 0.183891 0 0.00171466 0 0)
(-47.3636 0.247894 0 8.77886e-05 0 0)
(-45.7874 0.231951 0 -6.35722e-05 0 0)
(-44.2551 0.220114 0 -0.000106809 0 0)
(-42.7946 0.214746 0 -0.000170065 0 0)
(-41.4166 0.208763 0 -0.000201745 0 0)
(-40.1256 0.201398 0 -0.000210299 0 0)
(-38.9231 0.193701 0 -0.000214564 0 0)
(-37.8053 0.186195 0 -0.000220551 0 0)
(-36.7682 0.179176 0 -0.000229798 0 0)
(-35.8066 0.17281 0 -0.0002432 0 0)
(-34.9197 0.167095 0 -0.000258719 0 0)
(-34.0997 0.161523 0 -0.000268532 0 0)
(-33.3475 0.155735 0 -0.000267324 0 0)
(-32.6496 0.149373 0 -0.00025151 0 0)
(-32.0126 0.142876 0 -0.0002242 0 0)
(-31.412 0.136398 0 -0.000194222 0 0)
(-30.8694 0.131027 0 -0.000171994 0 0)
(0.0115528 -0.0237129 -1.5365e-23 0.0485768 -1.23458e-23 4.31881e-39)
(0.0855838 -0.0548126 -5.83808e-23 0.0285504 1.41539e-22 4.25406e-39)
(0.154831 -0.0253027 0 -0.0119132 0 0)
(0.140736 0.0289836 0 -0.0305636 0 0)
(0.0522614 0.0740189 0 -0.0329216 0 0)
(-0.0858534 0.100613 8.7686e-22 -0.0286274 -2.94189e-22 3.98926e-39)
(-0.237192 0.109045 0 -0.0226084 0 0)
(-0.378833 0.103212 0 -0.0164786 0 0)
(-0.491132 0.0865264 0 -0.0103317 0 0)
(-0.556139 0.0608771 0 -0.00411367 0 0)
(-0.559346 0.0270605 -2.0739e-21 0.00188528 1.65527e-22 3.67502e-39)
(-0.485208 -0.0138996 0 0.00699633 0 0)
(-0.324524 -0.060073 0 0.010426 0 0)
(-0.0683377 -0.107898 0 0.0113195 0 0)
(0.282719 -0.152628 0 0.00911662 0 0)
(0.711942 -0.187387 -2.25969e-21 0.00363682 -1.187e-22 3.39475e-39)
(1.19704 -0.207379 0 -0.00466212 0 0)
(1.69671 -0.20781 0 -0.0143251 0 0)
(2.17865 -0.190414 0 -0.0242019 0 0)
(2.59301 -0.158242 0 -0.0310881 0 0)
(2.92434 -0.119914 0 -0.0345567 0 0)
(3.15494 -0.0909135 0 -0.0276421 0 0)
(3.28965 -0.0817204 0 -0.0162793 0 0)
(3.43997 -0.160423 -6.16798e-22 0.0351827 -8.99906e-23 2.99967e-39)
(3.56785 -0.224909 5.01347e-22 0.0585184 6.81551e-23 2.95134e-39)
(4.03767 -0.485153 -5.71319e-22 0.132982 1.24379e-22 2.90103e-39)
(4.77583 -0.862784 -6.9474e-22 0.303153 3.65156e-22 2.85013e-39)
(5.72171 -1.28097 0 0.504984 0 0)
(6.69784 -1.56349 0 0.677351 0 0)
(7.32251 -1.79701 7.57996e-22 0.902648 -3.43081e-22 2.69921e-39)
(7.02296 -1.5996 3.85349e-22 1.03035 -1.02711e-22 2.64896e-39)
(5.55322 -0.343602 0 0.583566 0 0)
(2.23892 1.51224 0 -0.118369 0 0)
(-2.80491 2.45065 -2.0804e-21 -0.251454 1.07035e-21 2.49493e-39)
(-7.8567 2.46806 0 -0.20185 0 0)
(-12.8345 2.37717 0 -0.155772 0 0)
(-17.5767 2.21518 7.16612e-21 -0.115662 -9.26861e-22 2.346e-39)
(-22.0053 2.01985 0 -0.0823407 0 0)
(-26.0458 1.79945 1.10455e-20 -0.0552283 -7.52679e-22 2.2536e-39)
(-29.6524 1.56972 2.57135e-20 -0.0336886 -1.30609e-21 8.8376e-39)
(-32.7895 1.33512 0 -0.0168934 0 0)
(-35.4335 1.10175 0 -0.00410637 0 0)
(-37.5674 0.871651 0 0.00532021 0 0)
(-39.1833 0.647788 0 0.0119257 0 0)
(-40.2797 0.432197 0 0.0161466 0 0)
(-40.8618 0.227809 3.69641e-20 0.0183435 -2.07778e-23 7.88032e-39)
(-40.9432 0.0373758 3.66133e-20 0.0188538 1.68938e-22 7.73648e-39)
(-40.5499 -0.136458 3.56286e-20 0.01802 3.39242e-22 7.59653e-39)
(-39.7148 -0.291764 0 0.0161596 0 0)
(-38.4856 -0.427455 -3.19897e-20 0.0135725 -6.0834e-22 7.32707e-39)
(-36.9066 -0.542658 0 0.0105206 0 0)
(-35.0312 -0.636796 2.6663e-20 0.00723829 7.71994e-22 7.06991e-39)
(-32.9106 -0.710575 2.35976e-20 0.0039405 8.14777e-22 6.94526e-39)
(-30.5975 -0.764646 0 0.000781398 0 0)
(-28.1443 -0.800891 0 -0.00211617 0 0)
(-25.5943 -0.821185 0 -0.00468437 0 0)
(-22.9909 -0.827544 1.07103e-20 -0.00687209 7.79574e-22 6.46689e-39)
(-20.3699 -0.822079 0 -0.0086681 0 0)
(-17.7644 -0.806908 0 -0.0100828 0 0)
(-15.2004 -0.783717 0 -0.0111578 0 0)
(-12.7002 -0.754435 0 -0.0119452 0 0)
(-10.2821 -0.720399 0 -0.0125096 0 0)
(-7.95928 -0.683092 0 -0.0129115 0 0)
(-5.74218 -0.643557 0 -0.0132066 0 0)
(-3.63801 -0.602793 0 -0.0134378 0 0)
(-1.65114 -0.561161 8.83391e-21 -0.013633 -2.69288e-22 5.47199e-39)
(0.214634 -0.519426 0 -0.0138083 0 0)
(1.95558 -0.477215 0 -0.0139622 0 0)
(3.56864 -0.434863 -1.13505e-20 -0.0140865 1.17489e-22 5.1623e-39)
(5.04946 -0.391979 -1.18068e-20 -0.0141619 7.1881e-23 5.06165e-39)
(6.39292 -0.348635 0 -0.0141643 0 0)
(7.59448 -0.304705 1.2199e-20 -0.0140588 1.14291e-23 4.86415e-39)
(8.6504 -0.260764 -1.21561e-20 -0.0138151 -4.84703e-23 4.76734e-39)
(9.55873 -0.217247 0 -0.0134038 0 0)
(10.3199 -0.175011 1.16596e-20 -0.0128173 1.10682e-22 4.5778e-39)
(10.9367 -0.134705 0 -0.0120692 0 0)
(11.4149 -0.0970186 0 -0.0112023 0 0)
(11.7617 -0.0622763 -1.01358e-20 -0.0102763 -1.69954e-22 4.30313e-39)
(11.9853 -0.0304508 0 -0.00935471 0 0)
(12.0935 -0.00130456 8.78851e-21 -0.00849485 1.91135e-22 4.1265e-39)
(12.0923 0.0257431 0 -0.00773011 0 0)
(11.986 0.0513135 -7.28086e-21 -0.0070719 -2.04796e-22 3.955e-39)
(11.7771 0.0759326 -6.48269e-21 -0.00651078 -2.1042e-22 3.87112e-39)
(11.4665 0.0999671 -5.66099e-21 -0.00601999 -2.15548e-22 3.78848e-39)
(11.0546 0.123464 -9.64207e-21 -0.0055638 -4.40151e-22 1.48284e-38)
(10.5422 0.146338 7.93721e-21 -0.00510996 4.47523e-22 1.45077e-38)
(9.9318 0.167959 0 -0.00462798 0 0)
(9.22826 0.187661 0 -0.00410369 0 0)
(8.43931 0.204735 0 -0.00353882 0 0)
(7.57567 0.218165 1.23476e-21 -0.00294446 4.41113e-22 1.32758e-38)
(6.65136 0.22767 -2.98632e-22 -0.00234744 4.27866e-22 1.29807e-38)
(5.68324 0.232777 1.72988e-21 -0.00177489 -4.0994e-22 1.26908e-38)
(4.68774 0.23324 0 -0.0012526 0 0)
(3.68138 0.22973 -4.22789e-21 -0.000795938 3.62772e-22 1.21258e-38)
(2.68088 0.222555 -5.27878e-21 -0.000414794 3.35658e-22 1.18504e-38)
(1.70073 0.212491 -6.19556e-21 -0.000107237 3.0764e-22 1.15794e-38)
(0.753424 0.200244 0 0.000132899 0 0)
(-0.152851 0.186141 0 0.000306591 0 0)
(-1.01164 0.170889 0 0.000425093 0 0)
(-1.81695 0.154944 -8.68017e-21 0.000496302 1.98148e-22 1.05445e-38)
(-2.56505 0.138686 0 0.000527984 0 0)
(-3.2536 0.122437 0 0.000527718 0 0)
(-3.88153 0.106476 9.60041e-21 0.000502983 -1.28196e-22 9.82152e-39)
(-4.44894 0.0910564 0 0.000461067 0 0)
(-4.95697 0.0763935 0 0.000408739 0 0)
(-5.40773 0.0626593 9.99502e-21 0.000351798 -7.2011e-23 9.14075e-39)
(-5.8041 0.0499726 0 0.000294773 0 0)
(-6.14949 0.0383971 0 0.000240759 0 0)
(-6.44764 0.0279446 -1.00543e-20 0.000191575 3.03394e-23 8.49926e-39)
(-6.70239 0.0185822 -1.00241e-20 0.000147943 1.95039e-23 8.2937e-39)
(-6.91752 0.0102456 0 0.000109923 0 0)
(-7.09655 0.00284634 9.91167e-21 7.70741e-05 -1.70635e-24 7.89444e-39)
(-7.24274 -0.00369998 0 4.88748e-05 0 0)
(-7.35908 -0.00947672 -9.74757e-21 2.47969e-05 -1.18369e-23 7.5105e-39)
(-7.44828 -0.0145467 0 4.48044e-06 0 0)
(-7.5129 -0.0189607 -9.54721e-21 -1.22632e-05 -2.20174e-23 7.14128e-39)
(-7.55528 -0.0227794 -9.43704e-21 -2.58206e-05 -2.60394e-23 6.96202e-39)
(-7.5777 -0.0260586 0 -3.64644e-05 0 0)
(-7.58206 -0.0288633 0 -4.46293e-05 0 0)
(-7.57026 -0.0312721 0 -5.08883e-05 0 0)
(-7.54434 -0.0332488 0 -5.52762e-05 0 0)
(-7.50654 -0.0347262 0 -5.78183e-05 0 0)
(-7.45873 -0.0357551 0 -5.88957e-05 0 0)
(-7.40256 -0.0364343 0 -5.88477e-05 0 0)
(-7.33938 -0.036845 -8.4506e-21 -5.78657e-05 -3.91996e-23 5.64821e-39)
(-7.27025 -0.0370467 8.32623e-21 -5.60704e-05 3.91763e-23 5.49818e-39)
(-7.19603 -0.0370798 0 -5.35595e-05 0 0)
(-7.11741 -0.0369683 0 -5.04201e-05 0 0)
(-7.035 -0.036722 0 -4.67333e-05 0 0)
(-6.94935 -0.0363379 0 -4.25797e-05 0 0)
(-6.86101 -0.0358027 1.54515e-20 -3.80468e-05 7.36884e-23 1.9167e-38)
(-6.77059 -0.0350944 0 -3.32484e-05 0 0)
(-6.67872 -0.0341864 -1.4995e-20 -2.83498e-05 -6.96713e-23 1.81149e-38)
(-6.58612 -0.0330566 1.47731e-20 -2.35802e-05 6.70446e-23 1.76048e-38)
(-6.49357 -0.0316964 0 -1.92107e-05 0 0)
(-6.40187 -0.0301166 0 -1.5496e-05 0 0)
(-6.31183 -0.0283485 0 -1.26041e-05 0 0)
(-6.22417 -0.0264414 -1.394e-20 -1.05673e-05 -5.25638e-23 1.56673e-38)
(-6.13954 -0.0244554 -1.3748e-20 -9.28135e-06 -4.8357e-23 1.52079e-38)
(-6.05843 -0.022454 0 -8.54939e-06 0 0)
(-5.9812 -0.0204951 -1.33857e-20 -8.15114e-06 -4.01006e-23 1.43176e-38)
(-5.90804 -0.0186256 -1.32156e-20 -7.8995e-06 -3.62592e-23 1.38865e-38)
(-5.83902 -0.0168795 1.30526e-20 -7.66591e-06 3.27007e-23 1.34646e-38)
(-5.77411 -0.0152777 0 -7.3821e-06 0 0)
(-5.71316 -0.0138297 0 -7.02728e-06 0 0)
(-5.65598 -0.0125358 1.26034e-20 -6.61033e-06 2.39692e-23 1.22526e-38)
(-5.60234 -0.0113898 0 -6.15353e-06 0 0)
(-5.55198 -0.0103814 0 -5.68185e-06 0 0)
(-5.50463 -0.0094983 0 -5.2167e-06 0 0)
(-5.46004 -0.00872732 0 -4.77441e-06 0 0)
(-5.41795 -0.00805501 -1.19637e-20 -4.36544e-06 -1.5143e-23 1.0403e-38)
(-5.37813 -0.00746886 -1.18486e-20 -3.99596e-06 -1.40034e-23 1.00574e-38)
(-5.34035 -0.00695737 0 -3.66762e-06 0 0)
(-5.30441 -0.00651141 -1.16284e-20 -3.38078e-06 -1.21482e-23 9.38965e-39)
(-5.27011 -0.0061224 0 -3.133e-06 0 0)
(-5.23729 -0.00578357 0 -2.92316e-06 0 0)
(-5.20574 -0.00548718 -1.13196e-20 -2.74695e-06 -1.01675e-23 8.44456e-39)
(-5.17538 -0.00522949 0 -2.60431e-06 0 0)
(-5.14592 -0.0050074 -1.11257e-20 -2.49136e-06 -9.24644e-24 7.85085e-39)
(-5.11737 -0.00482541 0 -2.41314e-06 0 0)
(-5.08928 -0.00468769 0 -2.36887e-06 0 0)
(-5.06181 -0.0046034 -1.08493e-20 -2.37008e-06 -8.46853e-24 7.01255e-39)
(-5.03405 -0.00458021 0 -2.4213e-06 0 0)
(-5.00661 -0.00462039 -1.06723e-20 -2.53636e-06 -8.47675e-24 6.4873e-39)
(-4.97769 -0.0047442 0 -2.73925e-06 0 0)
(-4.94887 -0.00492965 0 -3.02758e-06 0 0)
(-4.91657 -0.00525724 0 -3.51607e-06 0 0)
(-4.88444 -0.00561759 1.03261e-20 -4.09123e-06 1.02417e-23 5.51388e-39)
(-4.84544 -0.00628818 0 -5.25116e-06 0 0)
(-4.80698 -0.00685823 -1.01507e-20 -6.30951e-06 -1.24731e-23 5.06426e-39)
(-4.75606 -0.0082127 0 -9.40818e-06 0 0)
(-4.70534 -0.00898421 0 -1.11098e-05 0 0)
(-4.63459 -0.011891 0 -2.10129e-05 0 0)
(-4.5575 -0.0126283 0 -2.21876e-05 0 0)
(-4.45705 -0.0194647 0 -6.13861e-05 0 0)
(-4.31465 -0.0190675 0 -5.02033e-05 0 0)