# vtk DataFile Version 2.0
sampleSurface
ASCII
DATASET POLYDATA
POINTS 502 float
-0.0206 0 -0.0005 -0.0190172 0 -0.0005 -0.0190172 0 0.0005 -0.0206 0
0.0005 -0.0174976 0 -0.0005 -0.0174976 0 0.0005 -0.0160387 0 -0.0005
-0.0160387 0 0.0005 -0.0146381 0 -0.0005 -0.0146381 0 0.0005 -0.0132934
0 -0.0005 -0.0132934 0 0.0005 -0.0120025 0 -0.0005 -0.0120025 0
0.0005 -0.0107632 0 -0.0005 -0.0107632 0 0.0005 -0.00957337 0 -0.0005
-0.00957337 0 0.0005 -0.00843108 0 -0.0005 -0.00843108 0 0.0005 -0.00733443
0 -0.0005 -0.00733443 0 0.0005 -0.0062816 0 -0.0005 -0.0062816 0
0.0005 -0.00527083 0 -0.0005 -0.00527083 0 0.0005 -0.00430044 0 -0.0005
-0.00430044 0 0.0005 -0.00336883 0 -0.0005 -0.00336883 0 0.0005 -0.00247443
0 -0.0005 -0.00247443 0 0.0005 -0.00161577 0 -0.0005 -0.00161577 0
0.0005 -0.000791418 0 -0.0005 -0.000791418 0 0.0005 0 0 -0.0005
0 0 0.0005 0 -0.0254 -0.0005 0 -0.0254 0.0005 0
-0.0242711 0.0005 0 -0.0242711 -0.0005 0 -0.0231422 0.0005 0 -0.0231422
-0.0005 0 -0.0220133 0.0005 0 -0.0220133 -0.0005 0 -0.0208844 0.0005
0 -0.0208844 -0.0005 0 -0.0197556 0.0005 0 -0.0197556 -0.0005 0
-0.0186267 0.0005 0 -0.0186267 -0.0005 0 -0.0174978 0.0005 0 -0.0174978
-0.0005 0 -0.0163689 0.0005 0 -0.0163689 -0.0005 0 -0.01524 0.0005
0 -0.01524 -0.0005 0 -0.0141111 0.0005 0 -0.0141111 -0.0005 0
-0.0129822 0.0005 0 -0.0129822 -0.0005 0 -0.0118533 0.0005 0 -0.0118533
-0.0005 0 -0.0107244 0.0005 0 -0.0107244 -0.0005 0 -0.00959556 0.0005
0 -0.00959556 -0.0005 0 -0.00846667 0.0005 0 -0.00846667 -0.0005 0
-0.00726604 0.0005 0 -0.00726604 -0.0005 0 -0.00618989 0.0005 0 -0.00618989
-0.0005 0 -0.00522531 0.0005 0 -0.00522531 -0.0005 0 -0.00436073 0.0005
0 -0.00436073 -0.0005 0 -0.00358579 0.0005 0 -0.00358579 -0.0005 0
-0.00289118 0.0005 0 -0.00289118 -0.0005 0 -0.0022686 0.0005 0 -0.0022686
-0.0005 0 -0.00171055 0.0005 0 -0.00171055 -0.0005 0 -0.00121037 0.0005
0 -0.00121037 -0.0005 0 -0.000762037 0.0005 0 -0.000762037 -0.0005 0
-0.000360188 0.0005 0 -0.000360188 -0.0005 0.000528387 -0.0254 -0.0005 0.000528387 -0.0254
0.0005 0.00106088 -0.0254 -0.0005 0.00106088 -0.0254 0.0005 0.00159752 -0.0254 -0.0005
0.00159752 -0.0254 0.0005 0.00213833 -0.0254 -0.0005 0.00213833 -0.0254 0.0005 0.00268334
-0.0254 -0.0005 0.00268334 -0.0254 0.0005 0.00323259 -0.0254 -0.0005 0.00323259 -0.0254
0.0005 0.00378611 -0.0254 -0.0005 0.00378611 -0.0254 0.0005 0.00434393 -0.0254 -0.0005
0.00434393 -0.0254 0.0005 0.00490609 -0.0254 -0.0005 0.00490609 -0.0254 0.0005 0.00547262
-0.0254 -0.0005 0.00547262 -0.0254 0.0005 0.00604356 -0.0254 -0.0005 0.00604356 -0.0254
0.0005 0.00661893 -0.0254 -0.0005 0.00661893 -0.0254 0.0005 0.00719878 -0.0254 -0.0005
0.00719878 -0.0254 0.0005 0.00778313 -0.0254 -0.0005 0.00778313 -0.0254 0.0005 0.00837203
-0.0254 -0.0005 0.00837203 -0.0254 0.0005 0.00896551 -0.0254 -0.0005 0.00896551 -0.0254
0.0005 0.0095636 -0.0254 -0.0005 0.0095636 -0.0254 0.0005 0.0101663 -0.0254 -0.0005
0.0101663 -0.0254 0.0005 0.0107738 -0.0254 -0.0005 0.0107738 -0.0254 0.0005 0.0113859
-0.0254 -0.0005 0.0113859 -0.0254 0.0005 0.0120028 -0.0254 -0.0005 0.0120028 -0.0254
0.0005 0.0126245 -0.0254 -0.0005 0.0126245 -0.0254 0.0005 0.0132511 -0.0254 -0.0005
0.0132511 -0.0254 0.0005 0.0138825 -0.0254 -0.0005 0.0138825 -0.0254 0.0005 0.0145188
-0.0254 -0.0005 0.0145188 -0.0254 0.0005 0.0151601 -0.0254 -0.0005 0.0151601 -0.0254
0.0005 0.0158063 -0.0254 -0.0005 0.0158063 -0.0254 0.0005 0.0164576 -0.0254 -0.0005
0.0164576 -0.0254 0.0005 0.0171139 -0.0254 -0.0005 0.0171139 -0.0254 0.0005 0.0177754
-0.0254 -0.0005 0.0177754 -0.0254 0.0005 0.018442 -0.0254 -0.0005 0.018442 -0.0254
0.0005 0.0191137 -0.0254 -0.0005 0.0191137 -0.0254 0.0005 0.0197907 -0.0254 -0.0005
0.0197907 -0.0254 0.0005 0.020473 -0.0254 -0.0005 0.020473 -0.0254 0.0005 0.0211606
-0.0254 -0.0005 0.0211606 -0.0254 0.0005 0.0218535 -0.0254 -0.0005 0.0218535 -0.0254
0.0005 0.0225517 -0.0254 -0.0005 0.0225517 -0.0254 0.0005 0.0232555 -0.0254 -0.0005
0.0232555 -0.0254 0.0005 0.0239647 -0.0254 -0.0005 0.0239647 -0.0254 0.0005 0.0246794
-0.0254 -0.0005 0.0246794 -0.0254 0.0005 0.0253996 -0.0254 -0.0005 0.0253996 -0.0254
0.0005 0.0261255 -0.0254 -0.0005 0.0261255 -0.0254 0.0005 0.026857 -0.0254 -0.0005
0.026857 -0.0254 0.0005 0.0275942 -0.0254 -0.0005 0.0275942 -0.0254 0.0005 0.0283371
-0.0254 -0.0005 0.0283371 -0.0254 0.0005 0.0290858 -0.0254 -0.0005 0.0290858 -0.0254
0.0005 0.0298403 -0.0254 -0.0005 0.0298403 -0.0254 0.0005 0.0306007 -0.0254 -0.0005
0.0306007 -0.0254 0.0005 0.031367 -0.0254 -0.0005 0.031367 -0.0254 0.0005 0.0321393
-0.0254 -0.0005 0.0321393 -0.0254 0.0005 0.0329175 -0.0254 -0.0005 0.0329175 -0.0254
0.0005 0.0337019 -0.0254 -0.0005 0.0337019 -0.0254 0.0005 0.0344923 -0.0254 -0.0005
0.0344923 -0.0254 0.0005 0.0352888 -0.0254 -0.0005 0.0352888 -0.0254 0.0005 0.0360916
-0.0254 -0.0005 0.0360916 -0.0254 0.0005 0.0369006 -0.0254 -0.0005 0.0369006 -0.0254
0.0005 0.0377158 -0.0254 -0.0005 0.0377158 -0.0254 0.0005 0.0385375 -0.0254 -0.0005
0.0385375 -0.0254 0.0005 0.0393655 -0.0254 -0.0005 0.0393655 -0.0254 0.0005 0.0401999
-0.0254 -0.0005 0.0401999 -0.0254 0.0005 0.0410408 -0.0254 -0.0005 0.0410408 -0.0254
0.0005 0.0418883 -0.0254 -0.0005 0.0418883 -0.0254 0.0005 0.0427424 -0.0254 -0.0005
0.0427424 -0.0254 0.0005 0.0436031 -0.0254 -0.0005 0.0436031 -0.0254 0.0005 0.0444704
-0.0254 -0.0005 0.0444704 -0.0254 0.0005 0.0453446 -0.0254 -0.0005 0.0453446 -0.0254
0.0005 0.0462255 -0.0254 -0.0005 0.0462255 -0.0254 0.0005 0.0471133 -0.0254 -0.0005
0.0471133 -0.0254 0.0005 0.048008 -0.0254 -0.0005 0.048008 -0.0254 0.0005 0.0489096
-0.0254 -0.0005 0.0489096 -0.0254 0.0005 0.0498183 -0.0254 -0.0005 0.0498183 -0.0254
0.0005 0.050734 -0.0254 -0.0005 0.050734 -0.0254 0.0005 0.0516568 -0.0254 -0.0005
0.0516568 -0.0254 0.0005 0.0525868 -0.0254 -0.0005 0.0525868 -0.0254 0.0005 0.053524
-0.0254 -0.0005 0.053524 -0.0254 0.0005 0.0544686 -0.0254 -0.0005 0.0544686 -0.0254
0.0005 0.0554204 -0.0254 -0.0005 0.0554204 -0.0254 0.0005 0.0563797 -0.0254 -0.0005
0.0563797 -0.0254 0.0005 0.0573464 -0.0254 -0.0005 0.0573464 -0.0254 0.0005 0.0583206
-0.0254 -0.0005 0.0583206 -0.0254 0.0005 0.0593025 -0.0254 -0.0005 0.0593025 -0.0254
0.0005 0.0602919 -0.0254 -0.0005 0.0602919 -0.0254 0.0005 0.0612891 -0.0254 -0.0005
0.0612891 -0.0254 0.0005 0.0622939 -0.0254 -0.0005 0.0622939 -0.0254 0.0005 0.0633067
-0.0254 -0.0005 0.0633067 -0.0254 0.0005 0.0643272 -0.0254 -0.0005 0.0643272 -0.0254
0.0005 0.0653557 -0.0254 -0.0005 0.0653557 -0.0254 0.0005 0.0663923 -0.0254 -0.0005
0.0663923 -0.0254 0.0005 0.0674368 -0.0254 -0.0005 0.0674368 -0.0254 0.0005 0.0684895
-0.0254 -0.0005 0.0684895 -0.0254 0.0005 0.0695504 -0.0254 -0.0005 0.0695504 -0.0254
0.0005 0.0706195 -0.0254 -0.0005 0.0706195 -0.0254 0.0005 0.0716969 -0.0254 -0.0005
0.0716969 -0.0254 0.0005 0.0727828 -0.0254 -0.0005 0.0727828 -0.0254 0.0005 0.073877
-0.0254 -0.0005 0.073877 -0.0254 0.0005 0.0749798 -0.0254 -0.0005 0.0749798 -0.0254
0.0005 0.0760911 -0.0254 -0.0005 0.0760911 -0.0254 0.0005 0.0772111 -0.0254 -0.0005
0.0772111 -0.0254 0.0005 0.0783398 -0.0254 -0.0005 0.0783398 -0.0254 0.0005 0.0794772
-0.0254 -0.0005 0.0794772 -0.0254 0.0005 0.0806235 -0.0254 -0.0005 0.0806235 -0.0254
0.0005 0.0817787 -0.0254 -0.0005 0.0817787 -0.0254 0.0005 0.0829429 -0.0254 -0.0005
0.0829429 -0.0254 0.0005 0.0841162 -0.0254 -0.0005 0.0841162 -0.0254 0.0005 0.0852985
-0.0254 -0.0005 0.0852985 -0.0254 0.0005 0.0864901 -0.0254 -0.0005 0.0864901 -0.0254
0.0005 0.0876909 -0.0254 -0.0005 0.0876909 -0.0254 0.0005 0.0889011 -0.0254 -0.0005
0.0889011 -0.0254 0.0005 0.0901207 -0.0254 -0.0005 0.0901207 -0.0254 0.0005 0.0913497
-0.0254 -0.0005 0.0913497 -0.0254 0.0005 0.0925883 -0.0254 -0.0005 0.0925883 -0.0254
0.0005 0.0938366 -0.0254 -0.0005 0.0938366 -0.0254 0.0005 0.0950945 -0.0254 -0.0005
0.0950945 -0.0254 0.0005 0.0963622 -0.0254 -0.0005 0.0963622 -0.0254 0.0005 0.0976398
-0.0254 -0.0005 0.0976398 -0.0254 0.0005 0.0989273 -0.0254 -0.0005 0.0989273 -0.0254
0.0005 0.100225 -0.0254 -0.0005 0.100225 -0.0254 0.0005 0.101532 -0.0254 -0.0005
0.101532 -0.0254 0.0005 0.10285 -0.0254 -0.0005 0.10285 -0.0254 0.0005 0.104178
-0.0254 -0.0005 0.104178 -0.0254 0.0005 0.105517 -0.0254 -0.0005 0.105517 -0.0254
0.0005 0.106865 -0.0254 -0.0005 0.106865 -0.0254 0.0005 0.108225 -0.0254 -0.0005
0.108225 -0.0254 0.0005 0.109594 -0.0254 -0.0005 0.109594 -0.0254 0.0005 0.110975
-0.0254 -0.0005 0.110975 -0.0254 0.0005 0.112366 -0.0254 -0.0005 0.112366 -0.0254
0.0005 0.113768 -0.0254 -0.0005 0.113768 -0.0254 0.0005 0.115181 -0.0254 -0.0005
0.115181 -0.0254 0.0005 0.116605 -0.0254 -0.0005 0.116605 -0.0254 0.0005 0.11804
-0.0254 -0.0005 0.11804 -0.0254 0.0005 0.119486 -0.0254 -0.0005 0.119486 -0.0254
0.0005 0.120943 -0.0254 -0.0005 0.120943 -0.0254 0.0005 0.122412 -0.0254 -0.0005
0.122412 -0.0254 0.0005 0.123892 -0.0254 -0.0005 0.123892 -0.0254 0.0005 0.125384
-0.0254 -0.0005 0.125384 -0.0254 0.0005 0.126887 -0.0254 -0.0005 0.126887 -0.0254
0.0005 0.128402 -0.0254 -0.0005 0.128402 -0.0254 0.0005 0.129928 -0.0254 -0.0005
0.129928 -0.0254 0.0005 0.131467 -0.0254 -0.0005 0.131467 -0.0254 0.0005 0.133017
-0.0254 -0.0005 0.133017 -0.0254 0.0005 0.13458 -0.0254 -0.0005 0.13458 -0.0254
0.0005 0.136155 -0.0254 -0.0005 0.136155 -0.0254 0.0005 0.137742 -0.0254 -0.0005
0.137742 -0.0254 0.0005 0.139341 -0.0254 -0.0005 0.139341 -0.0254 0.0005 0.140953
-0.0254 -0.0005 0.140953 -0.0254 0.0005 0.142577 -0.0254 -0.0005 0.142577 -0.0254
0.0005 0.144214 -0.0254 -0.0005 0.144214 -0.0254 0.0005 0.145863 -0.0254 -0.0005
0.145863 -0.0254 0.0005 0.147526 -0.0254 -0.0005 0.147526 -0.0254 0.0005 0.149201
-0.0254 -0.0005 0.149201 -0.0254 0.0005 0.15089 -0.0254 -0.0005 0.15089 -0.0254
0.0005 0.152591 -0.0254 -0.0005 0.152591 -0.0254 0.0005 0.154306 -0.0254 -0.0005
0.154306 -0.0254 0.0005 0.156034 -0.0254 -0.0005 0.156034 -0.0254 0.0005 0.157775
-0.0254 -0.0005 0.157775 -0.0254 0.0005 0.159531 -0.0254 -0.0005 0.159531 -0.0254
0.0005 0.161299 -0.0254 -0.0005 0.161299 -0.0254 0.0005 0.163082 -0.0254 -0.0005
0.163082 -0.0254 0.0005 0.164878 -0.0254 -0.0005 0.164878 -0.0254 0.0005 0.166688
-0.0254 -0.0005 0.166688 -0.0254 0.0005 0.168513 -0.0254 -0.0005 0.168513 -0.0254
0.0005 0.170351 -0.0254 -0.0005 0.170351 -0.0254 0.0005 0.172204 -0.0254 -0.0005
0.172204 -0.0254 0.0005 0.174071 -0.0254 -0.0005 0.174071 -0.0254 0.0005 0.175953
-0.0254 -0.0005 0.175953 -0.0254 0.0005 0.177849 -0.0254 -0.0005 0.177849 -0.0254
0.0005 0.17976 -0.0254 -0.0005 0.17976 -0.0254 0.0005 0.181686 -0.0254 -0.0005
0.181686 -0.0254 0.0005 0.183627 -0.0254 -0.0005 0.183627 -0.0254 0.0005 0.185583
-0.0254 -0.0005 0.185583 -0.0254 0.0005 0.187555 -0.0254 -0.0005 0.187555 -0.0254
0.0005 0.189541 -0.0254 -0.0005 0.189541 -0.0254 0.0005 0.191543 -0.0254 -0.0005
0.191543 -0.0254 0.0005 0.193561 -0.0254 -0.0005 0.193561 -0.0254 0.0005 0.195594
-0.0254 -0.0005 0.195594 -0.0254 0.0005 0.197643 -0.0254 -0.0005 0.197643 -0.0254
0.0005 0.199708 -0.0254 -0.0005 0.199708 -0.0254 0.0005 0.201789 -0.0254 -0.0005
0.201789 -0.0254 0.0005 0.203886 -0.0254 -0.0005 0.203886 -0.0254 0.0005 0.206
-0.0254 -0.0005 0.206 -0.0254 0.0005 0.208047 -0.0251856 -0.0005 0.208047 -0.0251856
0.0005 0.210173 -0.0249628 -0.0005 0.210173 -0.0249628 0.0005 0.212382 -0.0247314 -0.0005
0.212382 -0.0247314 0.0005 0.214677 -0.024491 -0.0005 0.214677 -0.024491 0.0005 0.217061
-0.0242412 -0.0005 0.217061 -0.0242412 0.0005 0.219538 -0.0239817 -0.0005 0.219538 -0.0239817
0.0005 0.222112 -0.0237121 -0.0005 0.222112 -0.0237121 0.0005 0.224785 -0.023432 -0.0005
0.224785 -0.023432 0.0005 0.227563 -0.023141 -0.0005 0.227563 -0.023141 0.0005 0.230449
-0.0228387 -0.0005 0.230449 -0.0228387 0.0005 0.233447 -0.0225246 -0.0005 0.233447 -0.0225246
0.0005 0.236562 -0.0221983 -0.0005 0.236562 -0.0221983 0.0005 0.239797 -0.0218593 -0.0005
0.239797 -0.0218593 0.0005 0.243159 -0.0215071 -0.0005 0.243159 -0.0215071 0.0005 0.246652
-0.0211412 -0.0005 0.246652 -0.0211412 0.0005 0.250281 -0.0207611 -0.0005 0.250281 -0.0207611
0.0005 0.254051 -0.0203661 -0.0005 0.254051 -0.0203661 0.0005 0.257967 -0.0199558 -0.0005
0.257967 -0.0199558 0.0005 0.262036 -0.0195295 -0.0005 0.262036 -0.0195295 0.0005 0.266264
-0.0190867 -0.0005 0.266264 -0.0190867 0.0005 0.270655 -0.0186266 -0.0005 0.270655 -0.0186266
0.0005 0.275218 -0.0181486 -0.0005 0.275218 -0.0181486 0.0005 0.279959 -0.017652 -0.0005
0.279959 -0.017652 0.0005 0.284883 -0.017136 -0.0005 0.284883 -0.017136 0.0005 0.29
-0.0166 -0.0005 0.29 -0.0166 0.0005 
POLYGONS 250 1250
4 0 1 2 3 4 1 4 5 2 4
4 6 7 5 4 6 8 9 7 4
8 10 11 9 4 10 12 13 11 4
12 14 15 13 4 14 16 17 15 4
16 18 19 17 4 18 20 21 19 4
20 22 23 21 4 22 24 25 23 4
24 26 27 25 4 26 28 29 27 4
28 30 31 29 4 30 32 33 31 4
32 34 35 33 4 34 36 37 35 4
38 39 40 41 4 41 40 42 43 4
43 42 44 45 4 45 44 46 47 4
47 46 48 49 4 49 48 50 51 4
51 50 52 53 4 53 52 54 55 4
55 54 56 57 4 57 56 58 59 4
59 58 60 61 4 61 60 62 63 4
63 62 64 65 4 65 64 66 67 4
67 66 68 69 4 69 68 70 71 4
71 70 72 73 4 73 72 74 75 4
75 74 76 77 4 77 76 78 79 4
79 78 80 81 4 81 80 82 83 4
83 82 84 85 4 85 84 86 87 4
87 86 88 89 4 89 88 90 91 4
91 90 37 36 4 38 92 93 39 4
92 94 95 93 4 94 96 97 95 4
96 98 99 97 4 98 100 101 99 4
100 102 103 101 4 102 104 105 103 4
104 106 107 105 4 106 108 109 107 4
108 110 111 109 4 110 112 113 111 4
112 114 115 113 4 114 116 117 115 4
116 118 119 117 4 118 120 121 119 4
120 122 123 121 4 122 124 125 123 4
124 126 127 125 4 126 128 129 127 4
128 130 131 129 4 130 132 133 131 4
132 134 135 133 4 134 136 137 135 4
136 138 139 137 4 138 140 141 139 4
140 142 143 141 4 142 144 145 143 4
144 146 147 145 4 146 148 149 147 4
148 150 151 149 4 150 152 153 151 4
152 154 155 153 4 154 156 157 155 4
156 158 159 157 4 158 160 161 159 4
160 162 163 161 4 162 164 165 163 4
164 166 167 165 4 166 168 169 167 4
168 170 171 169 4 170 172 173 171 4
172 174 175 173 4 174 176 177 175 4
176 178 179 177 4 178 180 181 179 4
180 182 183 181 4 182 184 185 183 4
184 186 187 185 4 186 188 189 187 4
188 190 191 189 4 190 192 193 191 4
192 194 195 193 4 194 196 197 195 4
196 198 199 197 4 198 200 201 199 4
200 202 203 201 4 202 204 205 203 4
204 206 207 205 4 206 208 209 207 4
208 210 211 209 4 210 212 213 211 4
212 214 215 213 4 214 216 217 215 4
216 218 219 217 4 218 220 221 219 4
220 222 223 221 4 222 224 225 223 4
224 226 227 225 4 226 228 229 227 4
228 230 231 229 4 230 232 233 231 4
232 234 235 233 4 234 236 237 235 4
236 238 239 237 4 238 240 241 239 4
240 242 243 241 4 242 244 245 243 4
244 246 247 245 4 246 248 249 247 4
248 250 251 249 4 250 252 253 251 4
252 254 255 253 4 254 256 257 255 4
256 258 259 257 4 258 260 261 259 4
260 262 263 261 4 262 264 265 263 4
264 266 267 265 4 266 268 269 267 4
268 270 271 269 4 270 272 273 271 4
272 274 275 273 4 274 276 277 275 4
276 278 279 277 4 278 280 281 279 4
280 282 283 281 4 282 284 285 283 4
284 286 287 285 4 286 288 289 287 4
288 290 291 289 4 290 292 293 291 4
292 294 295 293 4 294 296 297 295 4
296 298 299 297 4 298 300 301 299 4
300 302 303 301 4 302 304 305 303 4
304 306 307 305 4 306 308 309 307 4
308 310 311 309 4 310 312 313 311 4
312 314 315 313 4 314 316 317 315 4
316 318 319 317 4 318 320 321 319 4
320 322 323 321 4 322 324 325 323 4
324 326 327 325 4 326 328 329 327 4
328 330 331 329 4 330 332 333 331 4
332 334 335 333 4 334 336 337 335 4
336 338 339 337 4 338 340 341 339 4
340 342 343 341 4 342 344 345 343 4
344 346 347 345 4 346 348 349 347 4
348 350 351 349 4 350 352 353 351 4
352 354 355 353 4 354 356 357 355 4
356 358 359 357 4 358 360 361 359 4
360 362 363 361 4 362 364 365 363 4
364 366 367 365 4 366 368 369 367 4
368 370 371 369 4 370 372 373 371 4
372 374 375 373 4 374 376 377 375 4
376 378 379 377 4 378 380 381 379 4
380 382 383 381 4 382 384 385 383 4
384 386 387 385 4 386 388 389 387 4
388 390 391 389 4 390 392 393 391 4
392 394 395 393 4 394 396 397 395 4
396 398 399 397 4 398 400 401 399 4
400 402 403 401 4 402 404 405 403 4
404 406 407 405 4 406 408 409 407 4
408 410 411 409 4 410 412 413 411 4
412 414 415 413 4 414 416 417 415 4
416 418 419 417 4 418 420 421 419 4
420 422 423 421 4 422 424 425 423 4
424 426 427 425 4 426 428 429 427 4
428 430 431 429 4 430 432 433 431 4
432 434 435 433 4 434 436 437 435 4
436 438 439 437 4 438 440 441 439 4
440 442 443 441 4 442 444 445 443 4
444 446 447 445 4 446 448 449 447 4
448 450 451 449 4 450 452 453 451 4
452 454 455 453 4 454 456 457 455 4
456 458 459 457 4 458 460 461 459 4
460 462 463 461 4 462 464 465 463 4
464 466 467 465 4 466 468 469 467 4
468 470 471 469 4 470 472 473 471 4
472 474 475 473 4 474 476 477 475 4
476 478 479 477 4 478 480 481 479 4
480 482 483 481 4 482 484 485 483 4
484 486 487 485 4 486 488 489 487 4
488 490 491 489 4 490 492 493 491 4
492 494 495 493 4 494 496 497 495 4
496 498 499 497 4 498 500 501 499 
POINT_DATA 502
FIELD attributes 1
U 3 502 float
3.21307 0.0316662 -0.0199372 1.61396 0.0158535 -0.00982506 1.61396 0.0158535 -0.00982506 3.21307 0.0316662
-0.0199372 0.0593238 0.000435296 0 0.0593238 0.000435296 0 0.0575849 0.000344855 0
0.0575849 0.000344855 0 0.0557437 0.000296866 0 0.0557437 0.000296866 0 0.05371
0.000284452 0 0.05371 0.000284452 0 0.0517035 0.000289152 0 0.0517035 0.000289152
0 0.0497959 0.000299985 0 0.0497959 0.000299985 0 0.0479391 0.000298479 0
0.0479391 0.000298479 0 0.0461513 0.000276216 0 0.0461513 0.000276216 0 0.0444682
0.000241798 0 0.0444682 0.000241798 0 0.042986 0.000209122 0 0.042986 0.000209122
0 0.0416579 0.000202349 0 0.0416579 0.000202349 0 0.0405034 0.000225904 0
0.0405034 0.000225904 0 0.039256 0.000280909 0 0.039256 0.000280909 0 0.0380857
0.000328743 0 0.0380857 0.000328743 0 0.0365793 0.000419472 0 0.0365793 0.000419472
0 0.0351329 0.000423049 0 0.0351329 0.000423049 0 0.015159 0.000923506 0
0.015159 0.000923506 0 3.30972e-05 -0.000174412 1.53881e-22 3.30972e-05 -0.000174412 1.53881e-22 -4.30486e-05
-0.000133436 -4.16235e-22 -4.30486e-05 -0.000133436 -4.16235e-22 -0.000162877 0.000435817 -4.93371e-22 -0.000162877 0.000435817
-4.93371e-22 -0.000206992 0.00150988 9.86561e-22 -0.000206992 0.00150988 9.86561e-22 -0.000191132 0.00257677 3.29031e-22
-0.000191132 0.00257677 3.29031e-22 -0.000153886 0.00354143 -6.57725e-22 -0.000153886 0.00354143 -6.57725e-22 -0.000112116
0.00433752 0 -0.000112116 0.00433752 0 -7.21114e-05 0.00495487 -1.31928e-21 -7.21114e-05 0.00495487
-1.31928e-21 -3.42009e-05 0.00540354 -1.47612e-25 -3.42009e-05 0.00540354 -1.47612e-25 3.83436e-06 0.00568945 1.31913e-21
3.83436e-06 0.00568945 1.31913e-21 4.60555e-05 0.00580993 -1.32648e-21 4.60555e-05 0.00580993 -1.32648e-21 9.78822e-05
0.00573963 3.6568e-26 9.78822e-05 0.00573963 3.6568e-26 0.000161658 0.00544385 1.32652e-21 0.000161658 0.00544385
1.32652e-21 0.000239975 0.00488196 1.33917e-21 0.000239975 0.00488196 1.33917e-21 0.000336813 0.00398872 -4.08406e-25
0.000336813 0.00398872 -4.08406e-25 0.000447827 0.00267253 -1.36332e-21 0.000447827 0.00267253 -1.36332e-21 0.00041688
0.000766912 0 0.00041688 0.000766912 0 6.75396e-05 -0.000945751 0 6.75396e-05 -0.000945751
0 -7.7022e-05 -0.00166722 0 -7.7022e-05 -0.00166722 0 0.000379366 -0.00229793 0
0.000379366 -0.00229793 0 0.000637875 -0.00387306 0 0.000637875 -0.00387306 0 0.000251596
-0.00515214 0 0.000251596 -0.00515214 0 -0.000323557 -0.00500029 0 -0.000323557 -0.00500029
0 -0.000922508 -0.00384757 0 -0.000922508 -0.00384757 0 -0.00155015 -0.00228241 0
-0.00155015 -0.00228241 0 -0.00134992 7.72111e-05 0 -0.00134992 7.72111e-05 0 -0.00102025
0.00149702 0 -0.00102025 0.00149702 0 5.43792e-05 -0.000176563 6.50973e-25 5.43792e-05 -0.000176563
6.50973e-25 9.50143e-05 -0.000172687 -7.64857e-23 9.50143e-05 -0.000172687 -7.64857e-23 0.000124085 -0.000157302 0
0.000124085 -0.000157302 0 0.000132953 -0.000135084 0 0.000132953 -0.000135084 0 0.000119494
-0.000106527 7.42013e-23 0.000119494 -0.000106527 7.42013e-23 8.15558e-05 -7.33493e-05 7.43346e-23 8.15558e-05 -7.33493e-05
7.43346e-23 1.73439e-05 -3.73615e-05 0 1.73439e-05 -3.73615e-05 0 -7.44222e-05 1.37492e-08 0
-7.44222e-05 1.37492e-08 0 -0.000195012 3.80217e-05 0 -0.000195012 3.80217e-05 0 -0.000345609
7.66161e-05 -7.14394e-23 -0.000345609 7.66161e-05 -7.14394e-23 -0.000527265 0.000116079 -7.15756e-23 -0.000527265 0.000116079
-7.15756e-23 -0.000741225 0.000156814 0 -0.000741225 0.000156814 0 -0.000988675 0.000198978 0
-0.000988675 0.000198978 0 -0.00127054 0.00024216 0 -0.00127054 0.00024216 0 -0.00158726
0.000285428 -6.85353e-23 -0.00158726 0.000285428 -6.85353e-23 -0.00193866 0.000327617 -6.86737e-23 -0.00193866 0.000327617
-6.86737e-23 -0.00232396 0.00036762 0 -0.00232396 0.00036762 0 -0.002742 0.000404628 0
-0.002742 0.000404628 0 -0.00319132 0.000438266 0 -0.00319132 0.000438266 0 -0.00367008
0.000468503 0 -0.00367008 0.000468503 0 -0.00417591 0.000495295 0 -0.00417591 0.000495295
0 -0.00470612 0.000518445 0 -0.00470612 0.000518445 0 -0.00525777 0.00053767 -6.35472e-23
-0.00525777 0.00053767 -6.35472e-23 -0.00582753 0.000552531 -7.96507e-25 -0.00582753 0.000552531 -7.96507e-25 -0.00641146
0.000562444 8.02256e-25 -0.00641146 0.000562444 8.02256e-25 -0.00700495 0.000566778 -1.23933e-22 -0.00700495 0.000566778
-1.23933e-22 -0.00760271 0.000564932 -6.1704e-23 -0.00760271 0.000564932 -6.1704e-23 -0.00819874 0.000556404 0
-0.00819874 0.000556404 0 -0.00878642 0.000540828 5.956e-23 -0.00878642 0.000540828 5.956e-23 -0.00935851
0.000517999 1.18601e-22 -0.00935851 0.000517999 1.18601e-22 -0.00990723 0.000487919 5.90406e-23 -0.00990723 0.000487919
5.90406e-23 -0.0104245 0.000450834 0 -0.0104245 0.000450834 0 -0.010902 0.000407225 5.69987e-23
-0.010902 0.000407225 5.69987e-23 -0.0113318 0.00035772 5.71391e-23 -0.0113318 0.00035772 5.71391e-23 -0.0117061
0.00030304 0 -0.0117061 0.00030304 0 -0.0120181 0.000244402 -5.53111e-23 -0.0120181 0.000244402
-5.53111e-23 -0.0122621 0.000183643 -5.54517e-23 -0.0122621 0.000183643 -5.54517e-23 -0.0124332 0.00012228 -5.4358e-23
-0.0124332 0.00012228 -5.4358e-23 -0.0125283 6.11989e-05 -1.62379e-22 -0.0125283 6.11989e-05 -1.62379e-22 -0.012545
1.5981e-06 -1.08163e-22 -0.012545 1.5981e-06 -1.08163e-22 -0.0124857 -5.52101e-05 0 -0.0124857 -5.52101e-05
0 -0.0123538 -0.000109268 0 -0.0123538 -0.000109268 0 -0.0121503 -0.000160721 0
-0.0121503 -0.000160721 0 -0.0118781 -0.000209029 0 -0.0118781 -0.000209029 0 -0.0115408
-0.000253976 -1.04374e-22 -0.0115408 -0.000253976 -1.04374e-22 -0.0111418 -0.000295268 -2.08658e-22 -0.0111418 -0.000295268
-2.08658e-22 -0.0106855 -0.000332606 -2.0793e-22 -0.0106855 -0.000332606 -2.0793e-22 -0.0101763 -0.000365757 -1.03939e-22
-0.0101763 -0.000365757 -1.03939e-22 -0.0096194 -0.000394422 1.03009e-22 -0.0096194 -0.000394422 1.03009e-22 -0.00902057
-0.000418263 1.03307e-22 -0.00902057 -0.000418263 1.03307e-22 -0.00838633 -0.000436931 -1.02385e-22 -0.00838633 -0.000436931
-1.02385e-22 -0.00772388 -0.000450146 -2.04741e-22 -0.00772388 -0.000450146 -2.04741e-22 -0.00704081 -0.000457779 -1.02358e-22
-0.00704081 -0.000457779 -1.02358e-22 -0.00634482 -0.000459921 0 -0.00634482 -0.000459921 0 -0.00564331
-0.000456927 0 -0.00564331 -0.000456927 0 -0.00494313 -0.000449378 -1.00436e-22 -0.00494313 -0.000449378
-1.00436e-22 -0.00425062 -0.000438017 -1.00747e-22 -0.00425062 -0.000438017 -1.00747e-22 -0.00357129 -0.000423563 0
-0.00357129 -0.000423563 0 -0.0029092 -0.000406609 0 -0.0029092 -0.000406609 0 -0.00226752
-0.000388056 0 -0.00226752 -0.000388056 0 -0.00164899 -0.000368479 0 -0.00164899 -0.000368479
0 -0.00105484 -0.000348347 0 -0.00105484 -0.000348347 0 -0.000487732 -0.000328199 0
-0.000487732 -0.000328199 0 5.01902e-05 -0.000308471 0 5.01902e-05 -0.000308471 0 0.000561799
-0.000289258 9.46459e-23 0.000561799 -0.000289258 9.46459e-23 0.00104898 -0.000270438 9.49639e-23 0.00104898 -0.000270438
9.49639e-23 0.0015112 -0.00025227 0 0.0015112 -0.00025227 0 0.00194877 -0.000234828 -9.21126e-23
0.00194877 -0.000234828 -9.21126e-23 0.00236232 -0.000218154 -1.83689e-22 0.00236232 -0.000218154 -1.83689e-22 0.0027526
-0.000202263 -9.15765e-23 0.0027526 -0.000202263 -9.15765e-23 0.00312042 -0.00018716 8.9547e-23 0.00312042 -0.00018716
8.9547e-23 0.00346666 -0.000172839 1.17278e-24 0.00346666 -0.000172839 1.17278e-24 0.00379218 -0.000159287 -8.90076e-23
0.00379218 -0.000159287 -8.90076e-23 0.00409786 -0.00014649 8.69843e-23 0.00409786 -0.00014649 8.69843e-23 0.00438458
-0.00013443 8.72999e-23 0.00438458 -0.00013443 8.72999e-23 0.00465319 -0.000123084 0 0.00465319 -0.000123084
0 0.00490456 -0.000112432 -8.44475e-23 0.00490456 -0.000112432 -8.44475e-23 0.00513951 -0.000102451 -8.47615e-23
0.00513951 -0.000102451 -8.47615e-23 0.00535887 -9.31172e-05 8.27782e-23 0.00535887 -9.31172e-05 8.27782e-23 0.00556342
-8.4406e-05 8.30909e-23 0.00556342 -8.4406e-05 8.30909e-23 0.00575394 -7.62932e-05 -8.11294e-23 0.00575394 -7.62932e-05
-8.11294e-23 0.0059312 -6.87543e-05 -1.61754e-22 0.0059312 -6.87543e-05 -1.61754e-22 0.00609591 -6.17645e-05 -1.60127e-22
0.00609591 -6.17645e-05 -1.60127e-22 0.00624878 -5.52994e-05 -2.37209e-22 0.00624878 -5.52994e-05 -2.37209e-22 0.00639051
-4.93345e-05 -2.21582e-24 0.00639051 -4.93345e-05 -2.21582e-24 0.00652175 -4.38456e-05 1.56416e-22 0.00652175 -4.38456e-05
1.56416e-22 0.00664315 -3.88083e-05 0 0.00664315 -3.88083e-05 0 0.00675532 -3.41988e-05 0
0.00675532 -3.41988e-05 0 0.00685885 -2.99933e-05 1.49528e-22 0.00685885 -2.99933e-05 1.49528e-22 0.00695431
-2.61682e-05 2.98127e-22 0.00695431 -2.61682e-05 2.98127e-22 0.00704225 -2.27002e-05 2.13486e-24 0.00704225 -2.27002e-05
2.13486e-24 0.00712319 -1.95663e-05 -1.47069e-22 0.00712319 -1.95663e-05 -1.47069e-22 0.00719763 -1.6744e-05 1.43444e-22
0.00719763 -1.6744e-05 1.43444e-22 0.00726604 -1.42107e-05 2.85997e-22 0.00726604 -1.42107e-05 2.85997e-22 0.00732888
-1.19444e-05 2.83021e-22 0.00732888 -1.19444e-05 2.83021e-22 0.00738657 -9.92372e-06 1.41068e-22 0.00738657 -9.92372e-06
1.41068e-22 0.00743952 -8.12818e-06 0 0.00743952 -8.12818e-06 0 0.00748811 -6.5382e-06 0
0.00748811 -6.5382e-06 0 0.0075327 -5.13638e-06 1.34653e-22 0.0075327 -5.13638e-06 1.34653e-22 0.00757362
-3.90554e-06 1.35242e-22 0.00757362 -3.90554e-06 1.35242e-22 0.00761119 -2.82911e-06 0 0.00761119 -2.82911e-06
0 0.0076457 -1.89186e-06 -1.30399e-22 0.0076457 -1.89186e-06 -1.30399e-22 0.00767743 -1.08033e-06 -1.30982e-22
0.00767743 -1.08033e-06 -1.30982e-22 0.00770662 -3.80983e-07 0 0.00770662 -3.80983e-07 0 0.00773351
2.19601e-07 -1.26235e-22 0.00773351 2.19601e-07 -1.26235e-22 0.00775832 7.32772e-07 -1.26809e-22 0.00775832 7.32772e-07
-1.26809e-22 0.00778124 1.16828e-06 0 0.00778124 1.16828e-06 0 0.00780245 1.53793e-06 1.22155e-22
0.00780245 1.53793e-06 1.22155e-22 0.00782211 1.85403e-06 2.43535e-22 0.00782211 1.85403e-06 2.43535e-22 0.0078404
2.13285e-06 1.21378e-22 0.0078404 2.13285e-06 1.21378e-22 0.00785741 2.37928e-06 -1.18157e-22 0.00785741 2.37928e-06
-1.18157e-22 0.00787318 2.59646e-06 -1.18715e-22 0.00787318 2.59646e-06 -1.18715e-22 0.00788784 2.80045e-06 1.15534e-22
0.00788784 2.80045e-06 1.15534e-22 0.00790148 2.98875e-06 1.16087e-22 0.00790148 2.98875e-06 1.16087e-22 0.0079142
3.15545e-06 1.12945e-22 0.0079142 3.15545e-06 1.12945e-22 0.00792611 3.29848e-06 2.25155e-22 0.00792611 3.29848e-06
2.25155e-22 0.00793728 3.41519e-06 1.12207e-22 0.00793728 3.41519e-06 1.12207e-22 0.00794779 3.51856e-06 0
0.00794779 3.51856e-06 0 0.00795769 3.61763e-06 0 0.00795769 3.61763e-06 0 0.00796702
3.70427e-06 0 0.00796702 3.70427e-06 0 0.00797585 3.77633e-06 0 0.00797585 3.77633e-06
0 0.00798422 3.84985e-06 0 0.00798422 3.84985e-06 0 0.00799214 3.94736e-06 0
0.00799214 3.94736e-06 0 0.00799963 4.07924e-06 1.01686e-22 0.00799963 4.07924e-06 1.01686e-22 0.00800668
4.2313e-06 1.73167e-24 0.00800668 4.2313e-06 1.73167e-24 0.00801332 4.36905e-06 -1.00986e-22 0.00801332 4.36905e-06
-1.00986e-22 0.00801961 4.45566e-06 0 0.00801961 4.45566e-06 0 0.00802567 4.46967e-06 0
0.00802567 4.46967e-06 0 0.0080316 4.41144e-06 0 0.0080316 4.41144e-06 0 0.00803751
4.29814e-06 -1.89013e-22 0.00803751 4.29814e-06 -1.89013e-22 0.00804346 4.15312e-06 -1.90006e-22 0.00804346 4.15312e-06
-1.90006e-22 0.0080495 3.99669e-06 1.84333e-22 0.0080495 3.99669e-06 1.84333e-22 0.00805563 3.84195e-06 3.2985e-24
0.00805563 3.84195e-06 3.2985e-24 0.00806187 3.69503e-06 -1.82983e-22 0.00806187 3.69503e-06 -1.82983e-22 0.0080682
3.55763e-06 0 0.0080682 3.55763e-06 0 0.00807462 3.42952e-06 0 0.00807462 3.42952e-06
0 0.00808113 3.31015e-06 1.72854e-22 0.00808113 3.31015e-06 1.72854e-22 0.00808771 3.19913e-06 3.44388e-22
0.00808771 3.19913e-06 3.44388e-22 0.00809437 3.09634e-06 1.71526e-22 0.00809437 3.09634e-06 1.71526e-22 0.00810111
3.00171e-06 1.6611e-22 0.00810111 3.00171e-06 1.6611e-22 0.00810793 2.91513e-06 3.3091e-22 0.00810793 2.91513e-06
3.3091e-22 0.00811482 2.83638e-06 3.12121e-24 0.00811482 2.83638e-06 3.12121e-24 0.00812179 2.76514e-06 -1.62569e-22
0.00812179 2.76514e-06 -1.62569e-22 0.00812884 2.70104e-06 0 0.00812884 2.70104e-06 0 0.00813596
2.64368e-06 -1.55092e-22 0.00813596 2.64368e-06 -1.55092e-22 0.00814315 2.59271e-06 -1.55966e-22 0.00814315 2.59271e-06
-1.55966e-22 0.00815042 2.54779e-06 0 0.00815042 2.54779e-06 0 0.00815775 2.50866e-06 0
0.00815775 2.50866e-06 0 0.00816515 2.47514e-06 0 0.00816515 2.47514e-06 0 0.0081726
2.44712e-06 1.44334e-22 0.0081726 2.44712e-06 1.44334e-22 0.00818011 2.4246e-06 2.87375e-22 0.00818011 2.4246e-06
2.87375e-22 0.00818768 2.40762e-06 1.43032e-22 0.00818768 2.40762e-06 1.43032e-22 0.00819528 2.39652e-06 1.37994e-22
0.00819528 2.39652e-06 1.37994e-22 0.00820292 2.39146e-06 1.38797e-22 0.00820292 2.39146e-06 1.38797e-22 0.00821057
2.39327e-06 0 0.00821057 2.39327e-06 0 0.00821824 2.40231e-06 1.31734e-22 0.00821824 2.40231e-06
1.31734e-22 0.00822589 2.42016e-06 1.32509e-22 0.00822589 2.42016e-06 1.32509e-22 0.0082335 2.44763e-06 1.27603e-22
0.0082335 2.44763e-06 1.27603e-22 0.00824105 2.48731e-06 1.2836e-22 0.00824105 2.48731e-06 1.2836e-22 0.00824849
2.54109e-06 0 0.00824849 2.54109e-06 0 0.00825578 2.61266e-06 1.21468e-22 0.00825578 2.61266e-06
1.21468e-22 0.00826284 2.70658e-06 1.22196e-22 0.00826284 2.70658e-06 1.22196e-22 0.00826963 2.8269e-06 1.17417e-22