/*--------------------------------*- C++ -*----------------------------------*\
  =========                 |
  \\      /  F ield         | OpenFOAM: The Open Source CFD Toolbox
   \\    /   O peration     | Website:  https://openfoam.org
    \\  /    A nd           | Version:  9
     \\/     M anipulation  |
\*---------------------------------------------------------------------------*/
FoamFile
{
    format      ascii;
    class       volScalarField;
    location    "0.077";
    object      p;
}
// * * * * * * * * * * * * * * * * * * * * * * * * * * * * * * * * * * * * * //

dimensions      [0 2 -2 0 0 0 0];

internalField   nonuniform List<scalar> 
12225
(
482.407
470.88
463.106
457.02
451.864
447.329
443.207
439.35
435.684
432.169
428.776
425.502
422.326
419.254
416.237
413.308
410.24
406.878
481.458
470.734
463.039
456.971
451.837
447.313
443.189
439.327
435.661
432.149
428.762
425.49
422.319
419.244
416.236
413.28
410.252
406.928
480.761
470.428
462.89
456.881
451.797
447.307
443.19
439.32
435.645
432.129
428.741
425.473
422.309
419.239
416.236
413.274
410.275
407.133
480.049
469.905
462.662
456.751
451.709
447.247
443.141
439.277
435.608
432.098
428.719
425.46
422.306
419.241
416.244
413.291
410.348
407.395
477.822
469.143
462.294
456.544
451.607
447.206
443.123
439.261
435.589
432.079
428.702
425.448
422.302
419.248
416.265
413.339
410.463
407.659
476.007
468.26
461.873
456.296
451.457
447.099
443.036
439.197
435.545
432.048
428.684
425.442
422.308
419.267
416.303
413.414
410.605
407.907
473.439
467.148
461.197
455.951
451.279
447.021
443.004
439.169
435.518
432.022
428.662
425.43
422.312
419.29
416.353
413.503
410.752
408.128
473.903
466.05
460.549
455.57
451.063
446.866
442.88
439.089
435.471
431.997
428.653
425.435
422.333
419.331
416.422
413.611
410.909
408.336
471.79
464.492
459.552
455.107
450.834
446.755
442.82
439.046
435.442
431.981
428.647
425.44
422.354
419.377
416.499
413.726
411.065
408.529
467.702
462.634
458.794
454.659
450.561
446.562
442.679
438.953
435.386
431.949
428.636
425.451
422.389
419.438
416.591
413.851
411.225
408.722
460.339
460.388
457.797
454.212
450.313
446.431
442.604
438.901
435.347
431.927
428.63
425.463
422.424
419.498
416.68
413.974
411.384
408.911
456.521
458.87
457.121
453.817
450.049
446.257
442.472
438.808
435.288
431.894
428.622
425.48
422.467
419.57
416.782
414.105
411.545
409.096
452.729
457.402
456.433
453.533
450.057
446.196
442.412
438.763
435.252
431.87
428.609
425.485
422.498
419.632
416.879
414.239
411.709
409.286
454.075
458.199
456.402
453.413
449.829
446.031
442.26
438.644
435.167
431.825
428.6
425.514
422.561
419.727
417.006
414.398
411.903
409.513
458.074
457.98
456.57
453.492
449.879
446.037
442.233
438.62
435.139
431.823
428.606
425.547
422.625
419.825
417.141
414.573
412.119
409.771
464.306
461.995
458.301
454.138
450.014
445.962
442.069
438.43
434.984
431.667
428.522
425.524
422.662
419.932
417.32
414.818
412.419
410.121
472.079
466.293
460.436
454.917
450.202
445.939
442.001
438.333
434.833
431.568
428.487
425.533
422.724
420.049
417.496
415.055
412.722
410.491
488.49
472.471
462.559
455.735
450.278
445.63
441.504
437.808
434.449
431.276
428.274
425.42
422.706
420.126
417.67
415.325
413.085
410.945
486.86
470.517
460.581
454.055
448.79
444.413
440.649
437.155
433.904
430.844
427.98
425.263
422.676
420.193
417.827
415.574
413.426
411.383
460.216
456.956
453.035
449.285
445.653
442.184
438.916
435.818
432.885
430.126
427.465
424.901
422.437
420.102
417.866
415.725
413.676
411.716
444.566
447.647
447.233
445.482
443.092
440.441
437.716
434.979
432.28
429.652
427.116
424.664
422.302
420.039
417.869
415.79
413.798
411.9
439.83
442.657
443.64
443.048
441.354
439.05
436.631
434.144
431.633
429.173
426.765
424.42
422.15
419.963
417.86
415.841
413.912
412.065
429.568
439.117
441.626
441.603
440.286
438.376
436.095
433.72
431.295
428.898
426.551
424.259
422.038
419.9
417.844
415.871
413.977
412.165
430.961
439.819
441.563
441.169
439.73
437.727
435.517
433.264
430.981
428.664
426.376
424.139
421.962
419.858
417.836
415.893
414.029
412.242
441.166
442.58
442.373
441.297
439.59
437.536
435.383
433.129
430.822
428.523
426.261
424.052
421.903
419.825
417.826
415.905
414.061
412.292
449.67
445.88
443.515
441.552
439.524
437.36
435.172
432.949
430.689
428.424
426.188
423.998
421.866
419.808
417.828
415.924
414.094
412.338
454.106
447.584
444.366
441.826
439.588
437.364
435.137
432.889
430.628
428.366
426.135
423.953
421.835
419.79
417.823
415.933
414.115
412.369
457.224
449.704
445.069
442.039
439.606
437.307
435.062
432.832
430.586
428.339
426.116
423.939
421.826
419.789
417.83
415.946
414.133
412.391
460.434
450.351
445.258
442.156
439.657
437.333
435.069
432.828
430.579
428.325
426.092
423.911
421.802
419.775
417.83
415.961
414.16
412.424
461.79
450.982
445.445
442.212
439.665
437.316
435.052
432.819
430.579
428.33
426.098
423.916
421.807
419.78
417.834
415.963
414.161
412.428
361.722
361.414
360.913
360.46
360.248
360.318
360.643
361.039
361.292
361.339
361.192
360.955
360.703
360.489
360.327
360.221
360.163
360.146
360.163
360.207
360.276
360.37
360.487
360.628
360.793
360.984
361.198
361.443
361.712
362.006
362.324
362.664
363.02
363.391
363.773
364.159
364.547
364.931
365.307
365.678
366.002
366.389
366.535
366.69
366.423
365.958
365.561
365.187
364.681
364.022
363.174
362.191
361.357
360.772
360.341
359.997
359.691
359.326
358.904
358.513
358.018
356.942
355.186
353.114
350.958
348.71
346.571
344.813
343.45
342.497
341.772
340.786
339.667
338.858
336.994
333.183
328.112
322.211
315.837
309.214
302.511
295.844
289.3
282.945
276.825
270.967
265.383
260.072
255.027
250.243
245.72
241.475
237.535
233.942
230.743
227.989
225.734
224.027
222.904
222.39
222.494
223.209
224.512
226.364
228.713
231.494
234.634
238.051
241.662
245.38
249.123
252.81
256.365
259.723
262.822
265.612
268.055
270.123
271.799
273.074
273.945
274.419
274.531
274.296
273.741
272.9
271.808
270.501
269.014
267.38
265.63
263.789
261.881
259.923
257.925
255.892
253.822
251.706
249.54
247.335
245.104
242.857
240.601
238.334
236.055
233.766
231.47
229.177
226.895
224.629
222.381
220.15
217.928
215.713
213.501
211.287
209.067
206.836
204.606
202.39
200.182
197.952
195.672
193.327
190.929
188.521
186.169
183.919
181.762
179.691
177.757
175.922
174.049
172.155
170.296
168.148
165.742
163.934
161.658
157.532
360.744
360.351
359.767
359.251
359.009
359.083
359.511
360.138
360.62
360.808
360.741
360.548
360.334
360.157
360.039
359.977
359.965
359.989
360.038
360.109
360.198
360.304
360.428
360.572
360.739
360.931
361.15
361.394
361.662
361.955
362.275
362.619
362.985
363.366
363.758
364.156
364.552
364.944
365.32
365.681
366.009
366.308
366.492
366.544
366.215
365.436
365.285
365.403
365.107
364.451
363.45
362.282
361.224
360.51
359.971
359.495
359.058
358.607
358.044
357.459
356.903
355.995
354.573
352.785
350.749
348.357
345.759
343.564
342.132
341.348
341.386
341.174
339.165
337.663
335.179
331.16
326.069
320.271
314.065
307.633
301.119
294.627
288.242
282.026
276.029
270.282
264.798
259.573
254.597
249.858
245.357
241.112
237.155
233.533
230.312
227.515
225.225
223.49
222.348
221.824
221.926
222.647
223.962
225.833
228.206
231.016
234.188
237.641
241.288
245.045
248.826
252.55
256.143
259.536
262.669
265.491
267.963
270.056
271.753
273.049
273.928
274.424
274.546
274.318
273.768
272.928
271.835
270.524
269.032
267.393
265.637
263.792
261.88
259.919
257.92
255.882
253.802
251.677
249.512
247.318
245.1
242.865
240.611
238.34
236.056
233.764
231.467
229.173
226.891
224.626
222.377
220.146
217.923
215.708
213.495
211.282
209.062
206.83
204.597
202.381
200.176
197.948
195.668
193.325
190.926
188.51
186.152
183.906
181.741
179.65
177.7
175.864
173.984
172.068
170.217
168.1
165.577
163.565
161.166
156.764
360.351
359.983
359.436
358.979
358.646
358.632
358.97
359.57
359.985
360.095
359.979
359.808
359.673
359.593
359.572
359.588
359.631
359.694
359.772
359.865
359.971
360.09
360.224
360.374
360.546
360.741
360.963
361.216
361.502
361.802
362.14
362.508
362.9
363.309
363.73
364.159
364.583
364.999
365.397
365.752
366.101
366.382
366.609
366.742
366.8
366.718
366.512
366.145
365.568
364.757
363.801
362.853
361.975
361.237
360.667
360.168
359.643
359.094
358.463
357.687
356.944
356.005
354.519
352.462
349.935
347.317
344.916
342.536
340.736
339.765
339.249
338.492
336.925
334.605
331.424
327.379
322.613
317.277
311.525
305.492
299.302
293.067
286.884
280.838
274.989
269.374
264.004
258.872
253.96
249.251
244.746
240.465
236.446
232.741
229.405
226.542
224.195
222.414
221.239
220.696
220.795
221.528
222.868
224.776
227.197
230.063
233.299
236.82
240.539
244.369
248.224
252.022
255.686
259.148
262.345
265.228
267.755
269.897
271.638
272.967
273.885
274.409
274.555
274.344
273.804
272.97
271.877
270.563
269.063
267.412
265.644
263.787
261.866
259.897
257.89
255.848
253.768
251.65
249.492
247.299
245.081
242.844
240.592
238.328
236.05
233.759
231.46
229.164
226.88
224.614
222.366
220.133
217.915
215.701
213.488
211.275
209.053
206.816
204.578
202.361
200.162
197.945
195.672
193.323
190.912
188.488
186.12
183.854
181.693
179.601
177.605
175.723
173.837
171.896
170.008
167.898
165.391
163.025
160.469
156.563
361.564
361.326
360.925
360.528
360.146
359.836
359.766
359.884
359.899
359.727
359.468
359.229
359.087
359.049
359.085
359.137
359.205
359.283
359.373
359.474
359.583
359.702
359.83
359.976
360.144
360.341
360.569
360.833
361.135
361.482
361.862
362.274
362.715
363.18
363.663
364.153
364.64
365.116
365.564
365.979
366.361
366.682
366.949
367.146
367.233
367.182
367.036
366.809
366.469
365.984
365.328
364.518
363.641
362.757
361.898
361.091
360.341
359.632
358.958
358.252
357.444
356.334
354.644
352.632
350.417
347.782
345.061
342.801
340.944
339.48
338.172
336.569
334.4
331.617
328.198
324.183
319.608
314.538
309.057
303.274
297.3
291.254
285.246
279.368
273.683
268.225
262.997
257.98
253.142
248.455
243.923
239.571
235.45
231.628
228.173
225.192
222.751
220.896
219.669
219.098
219.192
219.94
221.316
223.276
225.764
228.71
232.034
235.65
239.469
243.401
247.358
251.258
255.021
258.578
261.865
264.831
267.434
269.644
271.445
272.823
273.794
274.363
274.544
274.361
273.84
273.016
271.928
270.612
269.105
267.444
265.661
263.789
261.854
259.874
257.858
255.807
253.722
251.6
249.445
247.259
245.048
242.818
240.572
238.31
236.033
233.745
231.45
229.157
226.876
224.613
222.367
220.134
217.911
215.693
213.477
211.264
209.042
206.804
204.56
202.338
200.144
197.937
195.668
193.317
190.891
188.448
186.071
183.806
181.643
179.536
177.494
175.555
173.635
171.651
169.707
167.606
165.077
162.533
159.907
156.146
362.648
362.59
362.35
362.008
361.607
361.226
360.821
360.435
360.112
359.762
359.382
359.051
358.857
358.768
358.725
358.693
358.667
358.655
358.657
358.678
358.72
358.783
358.864
358.963
359.092
359.262
359.487
359.777
360.137
360.566
361.04
361.559
362.116
362.704
363.311
363.923
364.527
365.106
365.648
366.147
366.588
366.963
367.273
367.504
367.639
367.674
367.589
367.406
367.097
366.645
366.043
365.296
364.432
363.494
362.531
361.618
360.798
360.056
359.415
358.8
358.05
357.06
355.655
353.825
351.964
349.77
347.263
344.736
342.361
340.113
337.84
335.365
332.582
329.426
325.827
321.751
317.192
312.179
306.776
301.079
295.206
289.282
283.418
277.707
272.204
266.929
261.87
256.985
252.219
247.532
242.928
238.449
234.171
230.187
226.599
223.47
220.893
218.926
217.624
217.012
217.097
217.864
219.285
221.314
223.891
226.943
230.388
234.135
238.09
242.162
246.258
250.293
254.184
257.861
261.26
264.329
267.023
269.314
271.181
272.622
273.649
274.27
274.496
274.347
273.851
273.043
271.962
270.647
269.135
267.463
265.667
263.781
261.834
259.844
257.82
255.762
253.67
251.544
249.389
247.207
245.002
242.776
240.533
238.277
236.008
233.729
231.444
229.159
226.883
224.618
222.368
220.133
217.909
215.691
213.474
211.258
209.033
206.791
204.542
202.315
200.119
197.92
195.661
193.306
190.866
188.41
186.03
183.763
181.599
179.482
177.401
175.387
173.401
171.369
169.358
167.222
164.7
162.046
159.28
155.598
363.532
363.469
363.271
362.972
362.588
362.319
362.103
361.525
360.88
360.28
359.706
359.18
358.782
358.505
358.29
358.089
357.889
357.692
357.498
357.309
357.134
356.988
356.888
356.857
356.91
357.06
357.316
357.683
358.16
358.722
359.366
360.079
360.847
361.649
362.466
363.276
364.061
364.803
365.489
366.105
366.643
367.097
367.461
367.727
367.892
367.955
367.912
367.76
367.492
367.097
366.57
365.903
365.097
364.179
363.198
362.234
361.362
360.611
359.991
359.472
358.873
357.986
356.848
355.493
353.711
351.572
349.132
346.46
343.634
340.718
337.744
334.685
331.468
328
324.185
319.946
315.253
310.128
304.639
298.898
293.039
287.189
281.456
275.92
270.623
265.561
260.695
255.952
251.244
246.519
241.782
237.097
232.574
228.336
224.501
221.165
218.402
216.283
214.888
214.23
214.307
215.105
216.591
218.718
221.423
224.627
228.242
232.172
236.32
240.585
244.873
249.092
253.158
256.997
260.546
263.748
266.559
268.947
270.887
272.392
273.471
274.141
274.416
274.307
273.838
273.047
271.976
270.667
269.155
267.476
265.668
263.769
261.808
259.805
257.77
255.703
253.608
251.484
249.329
247.148
244.946
242.725
240.487
238.237
235.977
233.708
231.434
229.158
226.887
224.628
222.381
220.145
217.916
215.691
213.468
211.246
209.02
206.776
204.522
202.289
200.091
197.895
195.642
193.288
190.844
188.382
185.993
183.734
181.571
179.44
177.317
175.233
173.175
171.079
168.984
166.803
164.288
161.549
158.654
155.067
364.159
363.976
363.699
363.565
363.389
363.009
362.574
362.118
361.638
361.088
360.436
359.714
359.004
358.336
357.699
357.073
356.45
355.833
355.241
354.699
354.235
353.868
353.618
353.502
353.533
353.72
354.062
354.565
355.22
356.03
356.959
357.972
359.04
360.134
361.224
362.285
363.295
364.235
365.092
365.852
366.508
367.055
367.488
367.805
368.007
368.097
368.076
367.946
367.707
367.355
366.884
366.284
365.544
364.681
363.719
362.727
361.84
361.131
360.601
360.177
359.652
358.913
358.007
356.834
355.158
353.061
350.568
347.676
344.465
341.104
337.723
334.319
330.81
327.091
323.049
318.576
313.638
308.272
302.581
296.712
290.825
285.05
279.474
274.155
269.108
264.296
259.639
255.02
250.319
245.468
240.487
235.482
230.606
226.014
221.843
218.209
215.204
212.904
211.403
210.689
210.757
211.593
213.161
215.411
218.273
221.665
225.493
229.656
234.048
238.564
243.102
247.563
251.861
255.918
259.666
263.047
266.015
268.537
270.584
272.165
273.296
274.005
274.318
274.248
273.811
273.036
271.972
270.665
269.154
267.475
265.663
263.755
261.782
259.766
257.719
255.645
253.542
251.409
249.253
247.077
244.881
242.667
240.436
238.192
235.938
233.678
231.414
229.15
226.89
224.635
222.387
220.147
217.914
215.687
213.462
211.238
209.007
206.758
204.494
202.254
200.054
197.864
195.616
193.269
190.831
188.373
185.988
183.728
181.557
179.405
177.245
175.098
172.963
170.791
168.605
166.354
163.826
161.029
158.067
154.53
364.95
364.764
364.59
364.29
364.013
363.814
363.456
362.911
362.264
361.53
360.677
359.7
358.637
357.516
356.361
355.198
354.059
352.97
351.965
351.084
350.363
349.828
349.497
349.377
349.471
349.776
350.287
351.038
351.987
353.101
354.344
355.679
357.071
358.479
359.869
361.207
362.463
363.617
364.655
365.566
366.344
366.986
367.493
367.864
368.103
368.218
368.216
368.103
367.887
367.575
367.167
366.656
366.033
365.291
364.438
363.52
362.692
362.025
361.527
361.11
360.596
359.949
359.203
358.005
356.28
354.143
351.557
348.485
345.033
341.422
337.807
334.185
330.469
326.549
322.282
317.528
312.266
306.576
300.63
294.629
288.759
283.138
277.806
272.766
267.991
263.402
258.882
254.288
249.472
244.359
238.999
233.543
228.193
223.139
218.547
214.558
211.284
208.822
207.174
206.381
206.438
207.322
208.991
211.388
214.44
218.059
222.143
226.583
231.268
236.084
240.922
245.678
250.258
254.58
258.571
262.174
265.342
268.041
270.241
271.938
273.144
273.895
274.233
274.191
273.782
273.028
271.969
270.66
269.145
267.461
265.643
263.729
261.75
259.727
257.672
255.589
253.478
251.341
249.182
247.003
244.809
242.601
240.377
238.141
235.896
233.644
231.389
229.133
226.879
224.629
222.386
220.149
217.915
215.683
213.452
211.221
208.987
206.737
204.468
202.216
200.013
197.828
195.589
193.249
190.829
188.388
186.012
183.745
181.553
179.372
177.177
174.974
172.768
170.519
168.234
165.887
163.319
160.479
157.449
153.937
366.422
366.234
366.081
365.871
365.513
365.049
364.47
363.729
362.815
361.721
360.448
359.023
357.479
355.851
354.186
352.532
350.939
349.452
348.111
346.951
346.004
345.3
344.861
344.707
344.851
345.296
346.023
347.001
348.215
349.636
351.225
352.937
354.719
356.517
358.282
359.966
361.533
362.956
364.219
365.313
366.238
366.995
367.591
368.028
368.307
368.457
368.481
368.39
368.196
367.915
367.559
367.131
366.628
366.032
365.346
364.593
363.88
363.261
362.739
362.24
361.689
361.096
360.386
359.087
357.217
354.977
352.303
349.136
345.569
341.819
338.048
334.263
330.387
326.302
321.821
316.769
311.155
305.121
298.948
292.896
287.143
281.754
276.691
271.896
267.316
262.856
258.368
253.671
248.591
243.042
237.109
231.019
225.048
219.433
214.354
209.962
206.387
203.717
201.942
201.107
201.193
202.162
203.969
206.552
209.837
213.729
218.122
222.898
227.935
233.111
238.311
243.422
248.345
252.987
257.272
261.14
264.542
267.445
269.826
271.676
272.998
273.818
274.188
274.162
273.773
273.036
271.984
270.67
269.147
267.455
265.628
263.704
261.715
259.684
257.621
255.533
253.419
251.278
249.113
246.932
244.738
242.532
240.315
238.086
235.849
233.604
231.356
229.108
226.86
224.615
222.375
220.138
217.903
215.67
213.438
211.205
208.966
206.715
204.45
202.196
199.981
197.786
195.548
193.224
190.832
188.418
186.054
183.774
181.55
179.335
177.106
174.856
172.582
170.255
167.87
165.415
162.78
159.89
156.794
153.285
368.104
367.964
367.682
367.318
366.823
366.171
365.328
364.267
362.98
361.46
359.722
357.813
355.789
353.697
351.58
349.478
347.437
345.497
343.696
342.069
340.655
339.506
338.689
338.264
338.277
338.746
339.627
340.872
342.459
344.349
346.483
348.79
351.193
353.61
355.962
358.18
360.216
362.035
363.623
364.974
366.098
367.006
367.719
368.26
368.549
368.777
368.862
368.823
368.677
368.441
368.133
367.769
367.358
366.896
366.382
365.828
365.25
364.68
364.117
363.536
362.922
362.34
361.582
360.152
358.093
355.731
352.98
349.784
346.184
342.361
338.469
334.541
330.527
326.302
321.638
316.318
310.379
304.042
297.707
291.681
286.089
280.927
276.074
271.418
266.9
262.434
257.86
252.945
247.45
241.279
234.582
227.714
221.044
214.812
209.19
204.341
200.411
197.496
195.646
194.812
194.96
196.044
198.016
200.818
204.374
208.587
213.34
218.508
223.958
229.56
235.192
240.731
246.067
251.102
255.75
259.944
263.632
266.771
269.358
271.381
272.843
273.763
274.186
274.18
273.802
273.079
272.034
270.713
269.175
267.469
265.631
263.694
261.692
259.648
257.573
255.475
253.356
251.213
249.047
246.863
244.668
242.463
240.249
238.026
235.796
233.559
231.319
229.076
226.834
224.592
222.354
220.118
217.884
215.65
213.417
211.181
208.941
206.695
204.443
202.197
199.962
197.741
195.494
193.191
190.835
188.454
186.1
183.801
181.541
179.294
177.036
174.738
172.394
169.987
167.506
164.943
162.226
159.272
156.105
152.591
369.855
369.652
369.287
368.762
368.055
367.129
365.952
364.508
362.807
360.87
358.721
356.396
353.93
351.353
348.682
345.934
343.14
340.357
337.665
335.16
332.949
331.135
329.813
329.069
328.947
329.45
330.514
332.115
334.21
336.732
339.597
342.713
345.981
349.285
352.499
355.506
358.225
360.614
362.662
364.377
365.779
366.894
367.754
368.383
368.81
369.085
369.226
369.252
369.183
369.036
368.825
368.551
368.214
367.831
367.421
366.982
366.509
366
365.431
364.781
364.111
363.514
362.72
361.194
359.001
356.496
353.67
350.48
346.915
343.068
339.079
335.017
330.861
326.513
321.715
316.199
310.002
303.426
296.975
290.986
285.52
280.491
275.703
271.037
266.472
261.938
257.228
252
245.937
238.977
231.385
223.663
216.24
209.329
203.09
197.715
193.391
190.248
188.327
187.517
187.757
188.98
191.137
194.177
198.031
202.601
207.762
213.373
219.292
225.38
231.504
237.537
243.358
248.858
253.943
258.534
262.578
266.001
268.84
271.063
272.683
273.724
274.225
274.252
273.881
273.163
272.126
270.801
269.246
267.518
265.661
263.707
261.687
259.625
257.535
255.422
253.292
251.144
248.977
246.793
244.597
242.394
240.182
237.963
235.738
233.508
231.274
229.038
226.8
224.563
222.327
220.092
217.858
215.624
213.389
211.152
208.912
206.668
204.422
202.19
199.938
197.692
195.433
193.152
190.838
188.492
186.143
183.82
181.527
179.253
176.965
174.62
172.207
169.716
167.14
164.471
161.666
158.644
155.395
151.837
371.414
371.177
370.714
370.031
369.105
367.902
366.408
364.625
362.571
360.263
357.709
354.907
351.845
348.515
344.931
341.144
337.236
333.322
329.539
326.035
322.965
320.471
318.654
317.575
317.273
317.747
319.086
321.196
323.952
327.23
330.918
334.914
339.125
343.447
347.733
351.793
355.457
358.63
361.297
363.488
365.248
366.623
367.676
368.449
368.992
369.349
369.555
369.638
369.617
369.515
369.352
369.159
368.964
368.751
368.433
368.015
367.575
367.075
366.552
365.899
365.13
364.452
363.694
362.181
359.92
357.293
354.406
351.238
347.737
343.931
339.897
335.708
331.393
326.903
322.018
316.394
310.055
303.306
296.739
290.714
285.278
280.252
275.392
270.615
265.938
261.302
256.417
250.786
244.026
236.16
227.588
218.94
210.676
202.987
196.034
190.061
185.313
181.943
179.994
179.273
179.667
181.064
183.414
186.689
190.843
195.784
201.38
207.474
213.909
220.536
227.211
233.799
240.172
246.211
251.805
256.864
261.321
265.115
268.25
270.713
272.517
273.695
274.293
274.373
274.017
273.296
272.257
270.928
269.359
267.608
265.726
263.747
261.704
259.62
257.508
255.378
253.234
251.076
248.904
246.719
244.524
242.322
240.113
237.897
235.676
233.451
231.223
228.993
226.76
224.527
222.294
220.06
217.827
215.593
213.357
211.12
208.88
206.635
204.386
202.128
199.895
197.644
195.384
193.121
190.84
188.521
186.171
183.825
181.508
179.211
176.894
174.503
172.023
169.448
166.775
163.999
161.099
158.004
154.669
151.04
372.524
372.294
371.802
371.038
369.97
368.578
366.862
364.827
362.469
359.768
356.687
353.185
349.233
344.84
340.077
335.072
329.995
325.031
320.353
316.109
312.441
309.486
307.373
306.194
306.016
306.748
308.575
311.28
314.67
318.561
322.769
327.171
331.805
336.757
341.955
347.13
351.934
356.114
359.578
362.363
364.554
366.197
367.474
368.417
369.089
369.546
369.831
369.983
370.022
369.969
369.845
369.674
369.463
369.23
369.036
368.841
368.449
367.896
367.333
366.711
365.959
365.148
364.363
362.966
360.808
358.121
355.177
352.032
348.629
344.914
340.899
336.626
332.151
327.492
322.514
316.885
310.502
303.664
296.968
290.819
285.25
280.108
275.09
270.132
265.276
260.476
255.364
249.275
241.749
232.909
223.287
213.629
204.424
195.863
188.117
181.513
176.382
172.882
170.964
170.454
171.102
172.712
175.236
178.693
183.089
188.355
194.353
200.909
207.855
215.031
222.287
229.479
236.466
243.114
249.298
254.908
259.856
264.082
267.572
270.32
272.343
273.679
274.384
274.531
274.203
273.481
272.43
271.089
269.502
267.727
265.817
263.811
261.74
259.628
257.492
255.341
253.179
251.009
248.829
246.641
244.445
242.244
240.039
237.827
235.61
233.39
231.167
228.942
226.714
224.485
222.255
220.024
217.791
215.558
213.323
211.085
208.844
206.598
204.346
202.091
199.851
197.604
195.346
193.091
190.822
188.515
186.164
183.809
181.481
179.169
176.824
174.387
171.838
169.18
166.408
163.525
160.521
157.341
153.916
150.192
373.552
373.322
372.807
372.001
370.859
369.359
367.491
365.236
362.548
359.36
355.605
351.244
346.302
340.882
335.151
329.298
323.493
317.869
312.528
307.581
303.172
299.51
296.832
295.366
295.263
296.378
298.558
301.805
305.977
310.811
315.959
321.086
326.032
331.027
336.427
342.248
348.045
353.277
357.624
361.06
363.69
365.692
367.202
368.312
369.103
369.641
369.985
370.187
370.287
370.3
370.231
370.086
369.89
369.66
369.402
369.09
368.812
368.501
367.886
367.18
366.428
365.563
364.679
363.429
361.494
358.921
355.985
352.847
349.524
345.94
342.025
337.758
333.17
328.324
323.207
317.619
311.311
304.448
297.572
291.205
285.424
280.049
274.799
269.596
264.477
259.405
253.967
247.41
239.154
229.36
218.671
207.942
197.7
188.201
179.662
172.511
167.197
163.857
162.157
162.02
163.009
164.841
167.471
170.994
175.494
180.947
187.211
194.1
201.436
209.063
216.835
224.603
232.217
239.522
246.368
252.616
258.149
262.888
266.798
269.881
272.161
273.684
274.513
274.729
274.43
273.709
272.641
271.279
269.667
267.862
265.92
263.884
261.784
259.643
257.48
255.305
253.125
250.94
248.751
246.558
244.361
242.161
239.958
237.751
235.539
233.323
231.105
228.885
226.662
224.437
222.211
219.981
217.75
215.518
213.284
211.045
208.802
206.557
204.308
202.056
199.809
197.56
195.304
193.045
190.78
188.479
186.133
183.779
181.449
179.127
176.753
174.265
171.646
168.904
166.034
163.043
159.927
156.641
153.114
149.27
374.946
374.709
374.166
373.326
372.122
370.531
368.52
366.037
362.995
359.308
354.911
349.81
344.109
337.983
331.622
325.176
318.731
312.32
305.968
299.763
293.897
288.703
284.607
281.995
281.152
282.215
285.067
289.512
295.211
301.786
308.83
315.762
321.837
327.046
332.333
338.2
344.534
350.644
355.711
359.723
362.798
365.118
366.855
368.136
369.053
369.683
370.086
370.317
370.427
370.451
370.405
370.296
370.122
369.886
369.599
369.29
368.937
368.478
368.025
367.462
366.63
365.657
364.622
363.465
361.805
359.527
356.754
353.689
350.429
346.956
343.18
339.017
334.429
329.45
324.157
318.522
312.336
305.551
298.527
291.845
285.728
280.048
274.512
269.005
263.531
258.075
252.213
245.213
236.322
225.69
213.985
202.164
190.832
180.359
171.109
163.611
158.462
155.889
154.793
155.234
156.635
158.678
161.342
164.798
169.222
174.643
180.935
187.906
195.376
203.204
211.263
219.426
227.549
235.463
242.992
249.944
256.15
261.494
265.909
269.387
271.966
273.704
274.676
274.973
274.703
273.976
272.884
271.489
269.844
268.001
266.02
263.95
261.819
259.651
257.461
255.264
253.065
250.866
248.668
246.469
244.27
242.072
239.872
237.669
235.462
233.251
231.038
228.823
226.605
224.384
222.16
219.933
217.704
215.473
213.239
210.999
208.756
206.512
204.267
202.017
199.763
197.507
195.251
192.997
190.737
188.44
186.096
183.743
181.412
179.078
176.67
174.128
171.442
168.619
165.652
162.552
159.321
155.911
152.248
148.243
377.106
376.834
376.248
375.366
374.094
372.406
370.261
367.575
364.23
360.137
355.245
349.599
343.354
336.712
329.83
322.778
315.549
308.102
300.443
292.717
285.243
278.513
273.174
269.794
268.649
270.014
273.535
278.895
285.575
293.196
301.673
311.164
318.799
324.679
329.893
335.541
341.991
348.425
354.053
358.548
361.973
364.54
366.45
367.863
368.891
369.61
370.085
370.366
370.501
370.529
370.473
370.347
370.16
369.916
369.609
369.245
368.847
368.431
367.906
367.205
366.464
365.526
364.331
363.07
361.619
359.734
357.337
354.508
351.378
348.008
344.359
340.333
335.842
330.853
325.422
319.642
313.489
306.82
299.759
292.747
286.188
280.074
274.175
268.301
262.422
256.474
250.071
242.758
233.374
222.06
209.422
196.476
183.966
172.408
162.429
154.758
150.038
148.119
148.605
150.065
152.054
154.397
157.198
160.673
165.013
170.271
176.378
183.164
190.475
198.189
206.207
214.44
222.784
231.102
239.209
246.857
253.797
259.836
264.852
268.81
271.743
273.729
274.864
275.255
275.019
274.282
273.155
271.717
270.026
268.136
266.109
263.996
261.833
259.637
257.425
255.207
252.992
250.781
248.574
246.371
244.171
241.974
239.777
237.579
235.377
233.172
230.965
228.754
226.541
224.325
222.104
219.879
217.651
215.422
213.188
210.949
208.705
206.461
204.216
201.965
199.708
197.45
195.198
192.948
190.689
188.389
186.047
183.699
181.367
179.014
176.567
173.975
171.227
168.327
165.265
162.059
158.71
155.162
151.335
147.125
380.067
379.732
379.08
378.124
376.802
375.067
372.848
370.047
366.545
362.243
357.093
351.155
344.594
337.61
330.347
322.861
315.134
307.129
298.889
290.613
282.663
275.538
269.872
266.27
265.123
266.524
270.134
275.69
282.656
290.384
298.981
308.634
317.451
324.047
329.199
334.538
340.796
347.287
353.102
357.797
361.383
364.07
366.069
367.552
368.639
369.414
369.937
370.257
370.417
370.463
370.419
370.289
370.078
369.795
369.443
369.026
368.572
368.086
367.535
366.88
366.026
364.973
363.799
362.452
361.002
359.391
357.457
355.091
352.278
349.076
345.527
341.608
337.237
332.333
326.882
320.96
314.69
308.059
301.042
293.824
286.796
280.158
273.798
267.498
261.162
254.718
247.867
240.112
230.548
218.9
205.629
191.687
178.081
165.521
154.873
147.233
143.166
142.481
144.138
146.46
148.861
151.414
154.392
158.029
162.454
167.683
173.647
180.214
187.263
194.71
202.472
210.478
218.676
227.022
235.401
243.563
251.174
257.935
263.623
268.137
271.486
273.754
275.066
275.554
275.353
274.603
273.433
271.941
270.196
268.255
266.176
264.016
261.815
259.592
257.36
255.128
252.901
250.682
248.469
246.264
244.064
241.869
239.676
237.483
235.287
233.088
230.886
228.681
226.473
224.26
222.043
219.82
217.594
215.366
213.133
210.894
208.65
206.405
204.158
201.905
199.647
197.388
195.138
192.882
190.621
188.321
185.987
183.649
181.314
178.939
176.451
173.807
171.001
168.028
164.873
161.558
158.08
154.373
150.347
145.894
383.309
382.909
382.163
381.139
379.801
378.082
375.893
373.123
369.644
365.346
360.177
354.191
347.544
340.441
333.057
325.476
317.702
309.725
301.602
293.523
285.827
278.965
273.462
269.833
268.53
269.749
273.065
278.249
284.999
292.432
300.331
309.272
318.025
324.779
329.795
334.867
340.896
347.241
352.954
357.578
361.122
363.784
365.772
367.257
368.36
369.156
369.7
370.044
370.225
370.273
370.222
370.086
369.87
369.573
369.188
368.712
368.173
367.62
367.046
366.364
365.482
364.377
363.072
361.665
360.187
358.667
357.067
355.21
352.899
350.029
346.631
342.774
338.464
333.641
328.244
322.281
315.867
309.144
302.13
294.843
287.487
280.341
273.465
266.708
259.918
252.991
245.709
237.657
228.125
216.567
203.219
188.932
174.799
161.826
150.979
143.459
139.858
139.864
141.938
144.366
146.648
148.986
151.887
155.662
160.343
165.793
171.848
178.376
185.297
192.568
200.117
207.85
215.728
223.797
232.081