/*--------------------------------*- C++ -*----------------------------------*\
  =========                 |
  \\      /  F ield         | OpenFOAM: The Open Source CFD Toolbox
   \\    /   O peration     | Website:  https://openfoam.org
    \\  /    A nd           | Version:  9
     \\/     M anipulation  |
\*---------------------------------------------------------------------------*/
FoamFile
{
    format      ascii;
    class       surfaceScalarField;
    location    "0.077";
    object      phi_0;
}
// * * * * * * * * * * * * * * * * * * * * * * * * * * * * * * * * * * * * * //

dimensions      [0 3 -1 0 0 0 0];

internalField   nonuniform List<scalar> 
24170
(
3.15109e-06
-1.99694e-08
3.05905e-06
9.20373e-08
2.93886e-06
1.2019e-07
2.80886e-06
1.29998e-07
2.70082e-06
1.08048e-07
2.6229e-06
7.7918e-08
2.56219e-06
6.07035e-08
2.50063e-06
6.15606e-08
2.42914e-06
7.14975e-08
2.34579e-06
8.33506e-08
2.25635e-06
8.94308e-08
2.16386e-06
9.24968e-08
2.07451e-06
8.93498e-08
1.98765e-06
8.68595e-08
1.90622e-06
8.14333e-08
1.82404e-06
8.21798e-08
1.72543e-06
9.86024e-08
1.04354e-07
1.62108e-06
3.43104e-06
-2.08793e-08
3.45682e-06
6.62527e-08
3.48279e-06
9.42207e-08
3.49245e-06
1.20342e-07
3.47947e-06
1.21027e-07
3.4563e-06
1.01085e-07
3.43259e-06
8.44193e-08
3.4112e-06
8.29445e-08
3.39234e-06
9.03592e-08
3.37577e-06
9.99156e-08
3.36106e-06
1.04147e-07
3.34662e-06
1.06935e-07
3.32937e-06
1.06603e-07
3.30573e-06
1.10494e-07
3.27424e-06
1.12924e-07
3.23272e-06
1.23702e-07
3.18596e-06
1.45362e-07
1.5714e-07
3.13317e-06
3.671e-06
5.1639e-10
3.65023e-06
8.70182e-08
3.68389e-06
6.05598e-08
3.72966e-06
7.45789e-08
3.74408e-06
1.06604e-07
3.72973e-06
1.15438e-07
3.70953e-06
1.04617e-07
3.69962e-06
9.28567e-08
3.70078e-06
8.91965e-08
3.70631e-06
9.43844e-08
3.70797e-06
1.02489e-07
3.70342e-06
1.11486e-07
3.69114e-06
1.18881e-07
3.67459e-06
1.27041e-07
3.65289e-06
1.34631e-07
3.631e-06
1.45591e-07
3.61292e-06
1.63438e-07
1.79902e-07
3.59016e-06
3.919e-06
3.33989e-08
3.91247e-06
9.35449e-08
3.91404e-06
5.89894e-08
3.93242e-06
5.61978e-08
3.96352e-06
7.55087e-08
3.99563e-06
8.33272e-08
4.02199e-06
7.82579e-08
4.04026e-06
7.45894e-08
4.04797e-06
8.1484e-08
4.04323e-06
9.91268e-08
4.02518e-06
1.20536e-07
3.99737e-06
1.39293e-07
3.96468e-06
1.5157e-07
3.93385e-06
1.57872e-07
3.90853e-06
1.59955e-07
3.89162e-06
1.62494e-07
3.88399e-06
1.71069e-07
1.86522e-07
3.87737e-06
4.17308e-06
-1.25502e-08
4.25031e-06
1.63175e-08
4.26663e-06
4.26669e-08
4.23009e-06
9.27321e-08
4.20461e-06
1.00997e-07
4.20804e-06
7.98917e-08
4.22674e-06
5.95565e-08
4.2467e-06
5.46318e-08
4.261e-06
6.71832e-08
4.26701e-06
9.31207e-08
4.26364e-06
1.23903e-07
4.25263e-06
1.50301e-07
4.23786e-06
1.66341e-07
4.22486e-06
1.70875e-07
4.21764e-06
1.6717e-07
4.21765e-06
1.6249e-07
4.22415e-06
1.64571e-07
1.7934e-07
4.23133e-06
4.51997e-06
1.75619e-08
4.53903e-06
-2.74129e-09
4.53875e-06
4.29389e-08
4.54717e-06
8.43154e-08
4.56731e-06
8.08537e-08
4.5942e-06
5.30069e-08
4.6199e-06
3.38591e-08
4.63692e-06
3.7611e-08
4.63863e-06
6.54696e-08
4.62358e-06
1.08173e-07
4.5953e-06
1.5218e-07
4.56058e-06
1.85027e-07
4.5266e-06
2.00314e-07
4.49885e-06
1.98629e-07
4.48042e-06
1.856e-07
4.47117e-06
1.7174e-07
4.47075e-06
1.64986e-07
1.74815e-07
4.47528e-06
4.82294e-06
3.34407e-08
4.84208e-06
-2.18791e-08
4.89612e-06
-1.11039e-08
4.93626e-06
4.4171e-08
4.94335e-06
7.37649e-08
4.92475e-06
7.16064e-08
4.90247e-06
5.61444e-08
4.89122e-06
4.88573e-08
4.89053e-06
6.61602e-08
4.8905e-06
1.08203e-07
4.88328e-06
1.59404e-07
4.86817e-06
2.0014e-07
4.85005e-06
2.18433e-07
4.83504e-06
2.13636e-07
4.82681e-06
1.93827e-07
4.82595e-06
1.72598e-07
4.83121e-06
1.59727e-07
1.66048e-07
4.83998e-06
5.15486e-06
-6.25962e-08
5.18179e-06
-4.88139e-08
5.11971e-06
5.09836e-08
5.09298e-06
7.08932e-08
5.11247e-06
5.42829e-08
5.14464e-06
3.94333e-08
5.1625e-06
3.82846e-08
5.16176e-06
4.95949e-08
5.15375e-06
7.41695e-08
5.15075e-06
1.11208e-07
5.1574e-06
1.52755e-07
5.17146e-06
1.86074e-07
5.18827e-06
2.01622e-07
5.20335e-06
1.98559e-07
5.21421e-06
1.82966e-07
5.2205e-06
1.66303e-07
5.22422e-06
1.56014e-07
1.61421e-07
5.22884e-06
5.49008e-06
-7.66375e-08
5.5554e-06
-1.14136e-07
5.58792e-06
1.84671e-08
5.58908e-06
6.97294e-08
5.57915e-06
6.42167e-08
5.56794e-06
5.0642e-08
5.55963e-06
4.65992e-08
5.55397e-06
5.52508e-08
5.55221e-06
7.59337e-08
5.55654e-06
1.06875e-07
5.56717e-06
1.42123e-07
5.58052e-06
1.7273e-07
5.59105e-06
1.91086e-07
5.59426e-06
1.9535e-07
5.58995e-06
1.87275e-07
5.58072e-06
1.75534e-07
5.57205e-06
1.64684e-07
1.65537e-07
5.56794e-06
5.97038e-06
-7.34835e-08
5.94021e-06
-8.39599e-08
5.99447e-06
-3.57909e-08
6.03434e-06
2.98562e-08
6.0186e-06
7.99594e-08
5.98395e-06
8.52884e-08
5.96677e-06
6.3774e-08
5.9728e-06
4.92245e-08
5.98732e-06
6.14148e-08
5.99472e-06
9.94727e-08
5.988e-06
1.48842e-07
5.96854e-06
1.92194e-07
5.94204e-06
2.17588e-07
5.91509e-06
2.22296e-07
5.89356e-06
2.08807e-07
5.88102e-06
1.8807e-07
5.87985e-06
1.65853e-07
1.55831e-07
5.88956e-06
6.30196e-06
-8.02307e-08
6.34653e-06
-1.28522e-07
6.39484e-06
-8.41033e-08
6.43023e-06
-5.53613e-09
6.4539e-06
5.62944e-08
6.45675e-06
8.2437e-08
6.43902e-06
8.14994e-08
6.41426e-06
7.3992e-08
6.39634e-06
7.93313e-08
6.38912e-06
1.06694e-07
6.38818e-06
1.49778e-07
6.38712e-06
1.93254e-07
6.38203e-06
2.22676e-07
6.37293e-06
2.31403e-07
6.36208e-06
2.19654e-07
6.35379e-06
1.96362e-07
6.35088e-06
1.68757e-07
1.48329e-07
6.35839e-06
5.74661e-06
-8.431e-08
5.67462e-06
-5.65382e-08
5.65296e-06
-6.24387e-08
5.68703e-06
-3.96044e-08
5.74532e-06
-2.00011e-09
5.7898e-06
3.79556e-08
5.80675e-06
6.45511e-08
5.8086e-06
7.21409e-08
5.81087e-06
7.70634e-08
5.81984e-06
9.77252e-08
5.83322e-06
1.36396e-07
5.84605e-06
1.80427e-07
5.85553e-06
2.13197e-07
5.86179e-06
2.25139e-07
5.86555e-06
2.15895e-07
5.86733e-06
1.94587e-07
5.86528e-06
1.70801e-07
1.54057e-07
5.85955e-06
7.10618e-06
-1.93624e-07
7.09877e-06
-4.91295e-08
7.06408e-06
-2.7754e-08
7.03779e-06
-1.33114e-08
7.02961e-06
6.18068e-09
7.02834e-06
3.92206e-08
7.02636e-06
6.65343e-08
7.02488e-06
7.36222e-08
7.02759e-06
7.43522e-08
7.03579e-06
8.95272e-08
7.04744e-06
1.24742e-07
7.05929e-06
1.68583e-07
7.06896e-06
2.03525e-07
7.07668e-06
2.1742e-07
7.08461e-06
2.07966e-07
7.09447e-06
1.84721e-07
7.10828e-06
1.5699e-07
1.38475e-07
7.12386e-06
8.46729e-06
-8.54298e-09
8.41757e-06
5.8975e-10
8.43783e-06
-4.80164e-08
8.44576e-06
-2.12407e-08
8.4101e-06
4.18465e-08
8.36778e-06
8.15324e-08
8.35606e-06
7.82566e-08
8.37673e-06
5.29528e-08
8.41002e-06
4.10672e-08
8.43851e-06
6.10333e-08
8.45786e-06
1.0539e-07
8.47249e-06
1.53951e-07
8.48866e-06
1.87361e-07
8.51028e-06
1.95795e-07
8.53762e-06
1.80629e-07
8.56941e-06
1.52925e-07
8.60336e-06
1.23046e-07
1.0213e-07
8.6397e-06
1.02694e-05
-7.18687e-08
1.04092e-05
-1.39208e-07
1.04478e-05
-8.66111e-08
1.03963e-05
3.02588e-08
1.03229e-05
1.15214e-07
1.02821e-05
1.22317e-07
1.02926e-05
6.78112e-08
1.03387e-05
6.84502e-09
1.03964e-05
-1.66658e-08
1.04507e-05
6.77e-09
1.05019e-05
5.42174e-08
1.05541e-05
1.01745e-07
1.06092e-05
1.32252e-07
1.06643e-05
1.40699e-07
1.07122e-05
1.32689e-07
1.07467e-05
1.184e-07
1.07639e-05
1.05873e-07
9.91114e-08
1.07669e-05
1.26077e-05
-1.36445e-07
1.26508e-05
-1.82294e-07
1.26404e-05
-7.62682e-08
1.26194e-05
5.13222e-08
1.26393e-05
9.52296e-08
1.26968e-05
6.48781e-08
1.27521e-05
1.25123e-08
1.27819e-05
-2.29217e-08
1.27969e-05
-3.16971e-08
1.28195e-05
-1.58182e-08
1.28585e-05
1.51692e-08
1.29035e-05
5.67216e-08
1.29382e-05
9.76302e-08
1.29503e-05
1.28573e-07
1.29385e-05
1.4453e-07
1.291e-05
1.46813e-07
1.28788e-05
1.37072e-07
1.20659e-07
1.28573e-05
1.55015e-05
-4.25489e-07
1.55108e-05
-1.91623e-07
1.54498e-05
-1.53227e-08
1.54329e-05
6.82903e-08
1.54254e-05
1.02664e-07
1.54068e-05
8.34752e-08
1.53782e-05
4.11108e-08
1.53548e-05
5.08722e-10
1.53528e-05
-2.973e-08
1.53841e-05
-4.70355e-08
1.54471e-05
-4.78525e-08
1.55327e-05
-2.89226e-08
1.56225e-05
7.87589e-09
1.57019e-05
4.91493e-08
1.57627e-05
8.36912e-08
1.5806e-05
1.03581e-07
1.58366e-05
1.06404e-07
9.37774e-08
1.58635e-05
1.88964e-05
-4.45677e-07
1.89446e-05
-2.39726e-07
1.88957e-05
3.34942e-08
1.88294e-05
1.34608e-07
1.8809e-05
1.23065e-07
1.88311e-05
6.13721e-08
1.88583e-05
1.39228e-08
1.88659e-05
-7.03679e-09
1.88568e-05
-2.06885e-08
1.88448e-05
-3.50235e-08
1.88475e-05
-5.05993e-08
1.88788e-05
-6.01461e-08
1.8943e-05
-5.63488e-08
1.90292e-05
-3.70162e-08
1.91199e-05
-7.04998e-09
1.91992e-05
2.42748e-08
1.92565e-05
4.91171e-08
6.03175e-08
1.929e-05
2.28182e-05
1.53369e-08
2.26865e-05
-1.08082e-07
2.28789e-05
-1.58878e-07
2.31096e-05
-9.60533e-08
2.32438e-05
-1.11546e-08
2.3266e-05
3.91625e-08
2.32337e-05
4.61975e-08
2.31985e-05
2.81335e-08
2.31716e-05
6.27819e-09
2.31453e-05
-8.71883e-09
2.31089e-05
-1.41929e-08
2.30604e-05
-1.1666e-08
2.3005e-05
-1.00215e-09
2.29552e-05
1.28636e-08
2.2922e-05
2.60858e-08
2.29126e-05
3.36604e-08
2.29297e-05
3.20744e-08
1.88261e-08
2.29712e-05
1.65743e-05
-2.27883e-08
1.66434e-05
-1.77235e-07
1.67358e-05
-2.51307e-07
1.68134e-05
-1.73624e-07
1.68344e-05
-3.21416e-08
1.67985e-05
7.51109e-08
1.67424e-05
1.02267e-07
1.67087e-05
6.18132e-08
1.67196e-05
-4.62888e-09
1.67792e-05
-6.82654e-08
1.68667e-05
-1.01743e-07
1.69582e-05
-1.03127e-07
1.70348e-05
-7.76644e-08
1.70838e-05
-3.61308e-08
1.71005e-05
9.44509e-09
1.7089e-05
4.51264e-08
1.70557e-05
6.53399e-08
6.3871e-08
1.70107e-05
1.46534e-05
-1.88401e-07
1.47311e-05
-2.54868e-07
1.46474e-05
-1.67624e-07
1.45345e-05
-6.07543e-08
1.44826e-05
1.97654e-08
1.44881e-05
6.96312e-08
1.45188e-05
7.15746e-08
1.45497e-05
3.08769e-08
1.45739e-05
-2.87825e-08
1.45941e-05
-8.84856e-08
1.46243e-05
-1.31916e-07
1.46698e-05
-1.48707e-07
1.47303e-05
-1.38174e-07
1.48016e-05
-1.07415e-07
1.48773e-05
-6.62401e-08
1.49481e-05
-2.56607e-08
1.50074e-05
6.05146e-09
2.36312e-08
1.50476e-05
1.28742e-05
1.70007e-08
1.26702e-05
-5.08943e-08
1.25835e-05
-8.09825e-08
1.25837e-05
-6.09231e-08
1.26213e-05
-1.77866e-08
1.26724e-05
1.84633e-08
1.27097e-05
3.42958e-08
1.27269e-05
1.36846e-08
1.27367e-05
-3.85591e-08
1.27392e-05
-9.09858e-08
1.27316e-05
-1.24344e-07
1.27161e-05
-1.33203e-07
1.26995e-05
-1.21572e-07
1.26901e-05
-9.79778e-08
1.26952e-05
-7.13917e-08
1.27181e-05
-4.85417e-08
1.27576e-05
-3.34727e-08
-2.73146e-08
1.28086e-05
1.11052e-05
1.88403e-07
1.10276e-05
2.67037e-08
1.10545e-05
-1.07922e-07
1.11196e-05
-1.26012e-07
1.11766e-05
-7.47837e-08
1.12001e-05
-5.01231e-09
1.12043e-05
3.00936e-08
1.12165e-05
1.47142e-09
1.12308e-05
-5.28892e-08
1.12428e-05
-1.02934e-07
1.12427e-05
-1.24294e-07
1.12284e-05
-1.1886e-07
1.12051e-05
-9.82552e-08
1.11813e-05
-7.41871e-08
1.11645e-05
-5.46138e-08
1.11586e-05
-4.26353e-08
1.11635e-05
-3.83373e-08
-4.04802e-08
1.11766e-05
9.77454e-06
1.09306e-07
9.77363e-06
2.76105e-08
9.74499e-06
-7.92787e-08
9.74087e-06
-1.21895e-07
9.75155e-06
-8.5462e-08
9.76748e-06
-2.09457e-08
9.78465e-06
1.29267e-08
9.77889e-06
7.23034e-09
9.74775e-06
-2.17476e-08
9.69304e-06
-4.82236e-08
9.63194e-06
-6.31982e-08
9.58098e-06
-6.78985e-08
9.55074e-06
-6.80164e-08
9.54357e-06
-6.70108e-08
9.55467e-06
-6.57169e-08
9.57615e-06
-6.4112e-08
9.59955e-06
-6.17456e-08
-5.97999e-08
9.61887e-06
8.52497e-06
1.30922e-07
8.495e-06
5.75792e-08
8.47853e-06
-6.2811e-08
8.43079e-06
-7.41508e-08
8.39336e-06
-4.80369e-08
8.39786e-06
-2.54406e-08
8.43134e-06
-2.05626e-08
8.46809e-06
-2.95197e-08
8.48728e-06
-4.09369e-08
8.48492e-06
-4.58546e-08
8.46754e-06
-4.58186e-08
8.44615e-06
-4.65124e-08
8.42899e-06
-5.0855e-08
8.41889e-06
-5.69106e-08
8.41432e-06
-6.11506e-08
8.41236e-06
-6.21553e-08
8.41058e-06
-5.99628e-08
-5.74537e-08
8.40824e-06
7.28317e-06
1.33612e-07
7.2683e-06
7.24518e-08
7.23469e-06
-2.92058e-08
7.20632e-06
-4.57801e-08
7.19192e-06
-3.36351e-08
7.19496e-06
-2.84864e-08
7.21771e-06
-4.33139e-08
7.25903e-06
-7.08391e-08
7.31362e-06
-9.5524e-08
7.37155e-06
-1.03783e-07
7.4202e-06
-9.44653e-08
7.45058e-06
-7.68942e-08
7.46043e-06
-6.07029e-08
7.45389e-06
-5.03749e-08
7.43816e-06
-4.54161e-08
7.41982e-06
-4.38198e-08
7.40326e-06
-4.34018e-08
-4.3556e-08
7.38936e-06
6.45966e-06
1.46019e-09
6.52018e-06
1.19323e-08
6.48474e-06
6.2347e-09
6.45916e-06
-2.02068e-08
6.45798e-06
-3.24573e-08
6.46099e-06
-3.14883e-08
6.45462e-06
-3.69513e-08
6.44171e-06
-5.79217e-08
6.42925e-06
-8.30672e-08
6.421e-06
-9.55347e-08
6.41618e-06
-8.96464e-08
6.41233e-06
-7.30372e-08
6.40818e-06
-5.6555e-08
6.40448e-06
-4.66809e-08
6.4032e-06
-4.41277e-08
6.40569e-06
-4.63125e-08
6.41253e-06
-5.02448e-08
-5.3557e-08
6.42253e-06
5.58016e-06
6.43305e-08
5.55059e-06
4.15066e-08
5.55897e-06
-2.1516e-09
5.59687e-06
-5.81052e-08
5.65638e-06
-9.19643e-08
5.71372e-06
-8.883e-08
5.74411e-06
-6.73455e-08
5.73812e-06
-5.19304e-08
5.70485e-06
-4.97908e-08
5.66215e-06
-5.28365e-08
5.62519e-06
-5.26917e-08
5.60154e-06
-4.93867e-08
5.59223e-06
-4.72412e-08
5.59439e-06
-4.88444e-08
5.60352e-06
-5.32565e-08
5.61552e-06
-5.8306e-08
5.62743e-06
-6.21633e-08
-6.4387e-08
5.63826e-06
4.73025e-06
-3.12313e-08
4.82873e-06
-5.69772e-08
4.88633e-06
-5.97482e-08
4.8909e-06
-6.26796e-08
4.85411e-06
-5.51747e-08
4.8134e-06
-4.81208e-08
4.79533e-06
-4.9273e-08
4.8034e-06
-5.99961e-08
4.8278e-06
-7.41992e-08
4.85728e-06
-8.23158e-08
4.88392e-06
-7.93303e-08
4.90308e-06
-6.85476e-08
4.91256e-06
-5.67202e-08
4.91237e-06
-4.86531e-08
4.90459e-06
-4.54728e-08
4.89205e-06
-4.57648e-08
4.87748e-06
-4.75973e-08
-4.95773e-08
4.86267e-06
4.13638e-06
4.07941e-06
4.01966e-06
3.95698e-06
3.90181e-06
3.85368e-06
3.80441e-06
3.74442e-06
3.67022e-06
3.5879e-06
3.50857e-06
3.44002e-06
3.3833e-06
3.33465e-06
3.28918e-06
3.24341e-06
3.19581e-06
3.14624e-06
-5.51478e-07
5.51478e-07
-1.06777e-06
5.16294e-07
-1.47302e-06
4.05243e-07
-1.69089e-06
2.17873e-07
-1.69491e-06
4.01713e-09
-1.51992e-06
-1.74991e-07
-1.17538e-06
-3.44535e-07
-7.29273e-07
-4.46107e-07
-2.74057e-07
-4.55217e-07
1.2064e-07
-3.94697e-07
4.19899e-07
-2.99259e-07
6.16807e-07
-1.96907e-07
7.23669e-07
-1.06862e-07
7.59722e-07
-3.60526e-08
7.45073e-07
1.46486e-08
6.9618e-07
4.88925e-08
6.28911e-07
6.7269e-08
5.54887e-07
7.40247e-08
4.82125e-07
7.27615e-08
4.15858e-07
6.62675e-08
3.5826e-07
5.75983e-08
3.10676e-07
4.75834e-08
2.73693e-07
3.69827e-08
2.47333e-07
2.636e-08
2.31021e-07
1.63121e-08
2.24045e-07
6.9768e-09
2.25839e-07
-1.79436e-09
2.35403e-07
-9.56408e-09
2.52132e-07
-1.67286e-08
2.7438e-07
-2.22488e-08
3.00509e-07
-2.61287e-08
3.30097e-07
-2.95881e-08
3.59268e-07
-2.91704e-08
3.89122e-07
-2.98545e-08
4.15923e-07
-2.68005e-08
4.35476e-07
-1.95529e-08
4.52766e-07
-1.72907e-08
4.4924e-07
3.5262e-09
4.37881e-07
1.13587e-08
3.90483e-07
4.73986e-08
3.07003e-07
8.34794e-08
1.74791e-07
1.32212e-07
-6.98791e-08
2.4467e-07
-4.1419e-07
3.44311e-07
-1.00107e-06
5.86878e-07
-1.33704e-06
3.35973e-07
-1.48611e-06
1.49071e-07
-1.59561e-06
1.09503e-07
-1.71733e-06
1.21715e-07
-1.87574e-06
1.5841e-07
-2.04756e-06
1.71819e-07
-2.17392e-06
1.26365e-07
-2.16019e-06
-1.37363e-08
-2.01472e-06
-1.45463e-07
-1.7824e-06
-2.32326e-07
-1.47527e-06
-3.0713e-07
-1.10275e-06
-3.72513e-07
-6.83101e-07
-4.19653e-07
-1.75718e-07
-5.07383e-07
4.89578e-07
-6.65295e-07
1.32766e-06
-8.38085e-07
2.16071e-06
-8.33044e-07
2.78991e-06
-6.29208e-07
3.17226e-06
-3.82349e-07
3.36348e-06
-1.91212e-07
3.4491e-06
-8.56197e-08
3.53974e-06
-9.06432e-08
3.61912e-06
-7.93868e-08
3.59097e-06
2.81517e-08
3.43972e-06
1.51257e-07
3.1965e-06
2.43218e-07
2.77162e-06
4.24883e-07
1.93538e-06
8.36232e-07
5.70013e-07
1.36537e-06
-8.57153e-07
1.42717e-06
-2.14932e-06
1.29217e-06
-3.30263e-06
1.1533e-06
-4.32473e-06
1.02211e-06
-5.22853e-06
9.03796e-07
-6.02475e-06
7.96222e-07
-6.72377e-06
6.99017e-07
-7.33189e-06
6.08122e-07
-7.85456e-06
5.22667e-07
-8.29602e-06
4.41466e-07
-8.66102e-06
3.64996e-07
-8.95507e-06
2.9405e-07
-9.18533e-06
2.30261e-07
-9.36088e-06
1.75553e-07
-9.49225e-06
1.31369e-07
-9.58988e-06
9.76283e-08
-9.66219e-06
7.23078e-08
-9.7145e-06
5.23138e-08
-9.74932e-06
3.48194e-08
-9.76658e-06
1.72562e-08
-9.7642e-06
-2.38233e-09
-9.73884e-06
-2.53584e-08
-9.68609e-06
-5.27488e-08
-9.60147e-06
-8.46152e-08
-9.48117e-06
-1.20305e-07
-9.3221e-06
-1.59073e-07
-9.12226e-06
-1.99835e-07
-8.88076e-06
-2.41503e-07
-8.59769e-06
-2.8307e-07
-8.27402e-06
-3.23669e-07
-7.9115e-06
-3.62522e-07
-7.51259e-06
-3.98906e-07
-7.08037e-06
-4.32218e-07
-6.61842e-06
-4.61949e-07
-6.1307e-06
-4.87729e-07
-5.62129e-06
-5.0941e-07
-5.09442e-06
-5.26865e-07
-4.55455e-06
-5.39872e-07
-4.0063e-06
-5.48249e-07
-3.45447e-06
-5.51831e-07
-2.90373e-06
-5.50742e-07
-2.35866e-06
-5.45065e-07
-1.82396e-06
-5.34697e-07
-1.3035e-06
-5.20467e-07
-8.01334e-07
-5.02163e-07
-3.21545e-07
-4.79789e-07
1.34402e-07
-4.55947e-07
5.62173e-07
-4.2777e-07
9.58473e-07
-3.963e-07
1.3211e-06
-3.62632e-07
1.64882e-06
-3.27716e-07
1.94144e-06
-2.92615e-07
2.19993e-06
-2.58497e-07
2.42667e-06
-2.26738e-07
2.62531e-06
-1.98639e-07
2.79994e-06
-1.74629e-07
2.95413e-06
-1.54188e-07
3.09125e-06
-1.37124e-07
3.21479e-06
-1.23534e-07
3.32496e-06
-1.10176e-07
3.41244e-06
-8.74797e-08
3.45836e-06
-4.59223e-08
3.44831e-06
1.00528e-08
3.38471e-06
6.35978e-08
3.2845e-06
1.00215e-07
3.16881e-06
1.15685e-07
3.05389e-06
1.14921e-07
2.94862e-06
1.05275e-07
2.85523e-06
9.3382e-08
2.7727e-06
8.25349e-08
2.69946e-06
7.32421e-08
2.635e-06
6.44558e-08
2.58026e-06
5.47431e-08
2.53721e-06
4.30451e-08
2.50772e-06
2.94918e-08
2.49265e-06
1.50731e-08
2.49205e-06
6.01202e-10
2.50531e-06
-1.32678e-08
2.52979e-06
-2.44755e-08
2.56293e-06
-3.31414e-08
2.60287e-06
-3.99378e-08
2.64639e-06
-4.3516e-08
2.68936e-06
-4.29779e-08
2.73248e-06
-4.3116e-08
2.78139e-06
-4.89087e-08
2.83588e-06
-5.44956e-08
2.88455e-06
-4.86714e-08
2.91612e-06
-3.15647e-08
2.92582e-06
-9.70297e-09
2.91161e-06
1.42107e-08
2.88005e-06
3.15618e-08
2.86063e-06
1.94207e-08
2.88887e-06
-2.82391e-08
2.95651e-06
-6.76382e-08
3.04592e-06
-8.94112e-08
3.22757e-06
-1.81649e-07
3.54602e-06
-3.18448e-07
3.88172e-06
-3.35707e-07
4.24188e-06
-3.60157e-07
4.74554e-06
-5.03658e-07
5.12974e-06
-3.84199e-07
5.25628e-06
-1.26544e-07
5.33978e-06
-8.34961e-08
4.93881e-06
4.00967e-07
3.66146e-06
1.27735e-06
1.12188e-06
2.53958e-06
-3.20237e-07
8.71715e-07
-6.32739e-07
8.28796e-07
-8.24754e-07
5.97258e-07
-9.09592e-07
3.02712e-07
-9.05308e-07
-2.67329e-10
-7.6035e-07
-3.19948e-07
-4.54436e-07
-6.50449e-07
-4.94635e-08
-8.51079e-07
3.55459e-07
-8.60139e-07
6.90495e-07
-7.29733e-07
9.28071e-07
-5.36835e-07
1.07067e-06
-3.39506e-07
1.13336e-06
-1.69557e-07
1.13435e-06
-3.70398e-08
1.08904e-06
5.99593e-08
1.01453e-06
1.23406e-07
9.23299e-07
1.58498e-07
8.24384e-07
1.72939e-07
7.24018e-07
1.73128e-07
6.2702e-07
1.63266e-07
5.3786e-07
1.46758e-07
4.58547e-07
1.26897e-07
3.90225e-07
1.05304e-07
3.33201e-07
8.33844e-08
2.87697e-07
6.1816e-08
2.53754e-07
4.09205e-08
2.30818e-07
2.11413e-08
2.1831e-07
2.94411e-09
2.17288e-07
-1.57071e-08
2.27152e-07
-3.2113e-08
2.47488e-07
-4.64643e-08
2.76586e-07
-5.86863e-08
3.14305e-07
-6.68893e-08
3.57367e-07
-7.29162e-08
4.05191e-07
-7.46246e-08
4.5611e-07
-7.04721e-08
5.06581e-07
-6.77619e-08
5.61331e-07
-5.12234e-08
6.09587e-07
-3.6897e-08
6.69058e-07
-1.20729e-08
7.13656e-07
3.88821e-08
7.76698e-07
6.91702e-08
8.41472e-07
1.79895e-07
9.71732e-07
2.14051e-07
1.18408e-06
3.74528e-07
1.13501e-06
3.85042e-07
9.25038e-07
3.59045e-07
6.80141e-07
3.544e-07
4.33586e-07
3.6827e-07
2.66501e-07
3.25495e-07
2.00562e-07
2.37757e-07
2.21521e-07
1.05406e-07
2.78928e-07
-7.11431e-08
3.74424e-07
-2.40959e-07
5.20022e-07
-3.77924e-07
6.98449e-07
-4.85558e-07
9.03569e-07
-5.77632e-07
1.13372e-06
-6.498e-07
1.365e-06
-7.38664e-07
1.57865e-06
-8.7895e-07
1.76699e-06
-1.02642e-06
2.01014e-06
-1.0762e-06
2.38759e-06
-1.00665e-06
2.91059e-06
-9.05349e-07
3.54363e-06
-8.24252e-07
4.09373e-06
-6.35723e-07
4.35606e-06
-3.52972e-07
4.30448e-06
-2.78046e-08
3.87302e-06
4.59604e-07
3.03489e-06
9.89386e-07
1.7129e-06
1.56521e-06
-2.59711e-08
2.16375e-06
-1.71499e-06
2.52525e-06
-2.94527e-06
2.59565e-06
-3.93146e-06
2.41335e-06
-4.8057e-06
2.16641e-06
-5.56572e-06
1.91332e-06
-6.2297e-06
1.68608e-06
-6.81085e-06
1.48495e-06
-7.32188e-06
1.30725e-06
-7.76916e-06
1.1463e-06
-8.15681e-06
9.95772e-07
-8.48762e-06
8.53474e-07
-8.76423e-06
7.18082e-07
-8.98918e-06
5.89939e-07
-9.16638e-06
4.71255e-07
-9.30167e-06
3.65554e-07
-9.40244e-06
2.7632e-07
-9.47705e-06
2.05983e-07
-9.53219e-06
1.52767e-07
-9.57292e-06
1.13029e-07
-9.60267e-06
8.20674e-08
-9.62176e-06
5.39152e-08
-9.62748e-06
2.29724e-08
-9.61737e-06
-1.24959e-08
-9.5854e-06
-5.73267e-08
-9.52623e-06
-1.11918e-07
-9.43528e-06
-1.75566e-07
-9.30849e-06
-2.47096e-07
-9.14284e-06
-3.24721e-07
-8.93639e-06
-4.06287e-07
-8.68832e-06
-4.89571e-07
-8.39881e-06
-5.72582e-07
-8.06881e-06
-6.53669e-07
-7.69998e-06
-7.31346e-07
-7.29468e-06
-8.04212e-07
-6.85582e-06
-8.71071e-07
-6.38682e-06
-9.30957e-07
-5.89138e-06
-9.83168e-07
-5.37342e-06
-1.02737e-06
-4.83707e-06
-1.06322e-06
-4.2867e-06
-1.09024e-06
-3.72684e-06
-1.10811e-06
-3.162e-06
-1.11667e-06
-2.59675e-06
-1.11599e-06
-2.03623e-06
-1.10558e-06
-1.4849e-06
-1.08603e-06
-9.47502e-07
-1.05787e-06
-4.26771e-07
-1.0229e-06
7.35842e-08
-9.80144e-07
5.48814e-07
-9.31177e-07
9.95507e-07
-8.74463e-07
1.41047e-06
-8.11263e-07
1.79077e-06
-7.42934e-07
2.13445e-06
-6.71394e-07
2.44083e-06
-5.98998e-07
2.7107e-06
-5.28366e-07
2.94622e-06
-4.62259e-07
3.15081e-06
-4.03223e-07
3.32932e-06
-3.53146e-07
3.48847e-06
-3.13332e-07
3.6355e-06
-2.84152e-07
3.775e-06
-2.63038e-07
3.90785e-06
-2.43026e-07
4.03571e-06
-2.15337e-07
4.16405e-06
-1.74264e-07
4.29169e-06
-1.17584e-07
4.40173e-06
-4.64485e-08
4.46998e-06
3.19708e-08
4.47491e-06
1.10755e-07
4.41148e-06
1.78352e-07
4.29335e-06
2.23406e-07
4.14632e-06
2.40409e-07
3.99485e-06
2.34002e-07
3.85318e-06
2.14913e-07
3.72685e-06
1.90793e-07
3.61831e-06
1.63277e-07
3.52995e-06
1.31402e-07
3.46374e-06
9.57116e-08
3.4199e-06
5.89107e-08
3.39641e-06
2.40901e-08
3.38933e-06
-6.19259e-09
3.39573e-06
-3.08679e-08
3.41381e-06
-5.12234e-08
3.44173e-06
-6.78557e-08
3.47694e-06
-7.87269e-08
3.51757e-06
-8.36133e-08
3.56626e-06
-9.18009e-08
3.63165e-06
-1.14299e-07
3.71934e-06
-1.42184e-07
3.81546e-06
-1.44791e-07
3.88213e-06
-9.82371e-08
3.88186e-06
-9.43136e-09
3.8141e-06
8.19678e-08
3.72022e-06
1.25445e-07
3.63874e-06
1.00894e-07
3.58271e-06
2.77965e-08
3.59376e-06
-7.86929e-08
3.70312e-06
-1.98768e-07
3.86284e-06
-3.41365e-07
4.08795e-06
-5.43566e-07
4.45138e-06
-6.99131e-07
4.8706e-06
-7.79375e-07
5.31569e-06
-9.48751e-07
5.83202e-06
-9.00534e-07
6.25753e-06
-5.52046e-07
6.45582e-06
-2.81791e-07
6.63805e-06
2.18738e-07
6.61529e-06
1.30011e-06
1.58249e-06
6.15468e-06
1.68851e-07
7.02864e-07
2.61734e-07
7.35914e-07
3.71987e-07
4.87005e-07
4.31882e-07
2.42816e-07
4.34035e-07
-2.41986e-09
5.33593e-07
-4.19507e-07
7.23598e-07
-8.40454e-07
9.31556e-07
-1.05904e-06
1.08522e-06
-1.0138e-06
1.14686e-06
-7.91376e-07
1.12492e-06
-5.14891e-07
1.03972e-06
-2.54312e-07
9.17825e-07
-4.76599e-08
7.77786e-07
1.02999e-07
6.36929e-07
2.00817e-07
4.99865e-07
2.6047e-07
3.65872e-07
2.92491e-07
2.3572e-07
3.03091e-07
1.07557e-07
3.01291e-07
-1.7767e-08
2.8859e-07
-1.39309e-07
2.683e-07
-2.54927e-07
2.42515e-07
-3.62814e-07
2.13191e-07
-4.61028e-07
1.81599e-07
-5.47414e-07
1.48202e-07
-6.197e-07
1.13206e-07
-6.7583e-07
7.72715e-08
-7.1396e-07
4.10737e-08
-7.36104e-07
6.43729e-09
-7.35762e-07
-3.24553e-08
-7.15115e-07
-6.71111e-08
-6.75586e-07
-9.82159e-08
-6.18027e-07
-1.24448e-07
-5.44474e-07
-1.46469e-07
-4.56809e-07
-1.6229e-07
-3.56071e-07
-1.7121e-07
-2.4667e-07
-1.77163e-07
-1.25605e-07
-1.72289e-07
2.80909e-09
-1.65311e-07
1.39939e-07
-1.49203e-07
2.93815e-07
-1.14994e-07
4.60265e-07
-9.72804e-08
6.6954e-07
-2.93798e-08
8.79683e-07
3.90842e-09
1.18187e-06
7.23414e-08
1.46706e-06
9.98554e-08
1.73848e-06
8.76256e-08
2.00862e-06
8.42545e-08
2.30392e-06
7.29739e-08
2.57965e-06
4.97625e-08
2.81573e-06
1.67848e-09
3.03097e-06
-1.09836e-07
3.20513e-06
-2.45301e-07
3.34205e-06
-3.77879e-07
3.45435e-06
-4.90225e-07
3.53544e-06
-5.66651e-07
3.60257e-06
-6.44757e-07
3.64296e-06
-6.90189e-07
3.63386e-06
-7.29568e-07
3.57972e-06
-8.24813e-07
3.35459e-06
-8.01295e-07
3.07025e-06
-7.91857e-07
3.04773e-06
-9.84132e-07
3.21098e-06
-1.0686e-06
3.22686e-06
-8.4013e-07
2.99026e-06
-3.99122e-07
2.46071e-06
1.76575e-07
1.64552e-06
7.87383e-07
6.19357e-07
1.48577e-06
-6.483e-07
2.25704e-06
-1.98243e-06
2.89934e-06
-3.08317e-06
3.2645e-06
-3.86282e-06
3.30489e-06
-4.39486e-06
3.1277e-06
-4.84336e-06
2.86185e-06
-5.26652e-06
2.58957e-06
-5.6885e-06
2.3353e-06
-6.11308e-06
2.11067e-06
-6.53564e-06
1.90751e-06
-6.94692e-06
1.71853e-06
-7.3355e-06
1.53488e-06
-7.69163e-06
1.35191e-06
-8.00614e-06
1.16798e-06
-8.27228e-06
9.84225e-07
-8.48709e-06
8.04753e-07
-8.65161e-06
6.35777e-07
-8.77082e-06
4.84762e-07
-8.85305e-06
3.58552e-07
-8.90831e-06
2.61236e-07
-8.94716e-06
1.91621e-07
-8.97765e-06
1.43519e-07
-9.00398e-06
1.08401e-07
-9.02578e-06
7.5707e-08
-9.0396e-06
3.68002e-08
-9.03895e-06
-1.31483e-08
-9.01796e-06
-7.83148e-08
-8.9712e-06
-1.58687e-07
-8.89317e-06
-2.53589e-07
-8.77942e-06
-3.60844e-07
-8.62678e-06
-4.77362e-07
-8.43344e-06
-5.99634e-07
-8.19882e-06
-7.24186e-07
-7.92339e-06
-8.48012e-07
-7.60834e-06
-9.68719e-07
-7.25549e-06
-1.0842e-06
-6.86724e-06
-1.19246e-06
-6.44651e-06
-1.2918e-06
-5.99644e-06
-1.38103e-06
-5.52031e-06
-1.45929e-06
-5.0216e-06
-1.52608e-06
-4.50376e-06
-1.58106e-06
-3.97042e-06
-1.62359e-06
-3.42539e-06
-1.65313e-06
-2.87259e-06
-1.66948e-06
-2.31672e-06
-1.67186e-06
-1.76236e-06
-1.65994e-06
-1.21412e-06
-1.63426e-06
-6.76403e-07
-1.59559e-06
-1.55195e-07
-1.5441e-06
3.49016e-07
-1.48436e-06
8.28151e-07
-1.41031e-06
1.27941e-06
-1.32572e-06
1.69909e-06
-1.23094e-06
2.08363e-06
-1.12747e-06
2.43015e-06
-1.01791e-06
2.73684e-06
-9.05691e-07
3.00312e-06
-7.94642e-07
3.22992e-06
-6.89059e-07
3.42041e-06
-5.93719e-07
3.58041e-06
-5.13141e-07
3.71758e-06
-4.50502e-07
3.84004e-06
-4.06616e-07
3.95543e-06
-3.78423e-07
4.07007e-06
-3.57676e-07
4.18791e-06
-3.33175e-07
4.31007e-06
-2.9642e-07
4.43688e-06
-2.44398e-07
4.56815e-06
-1.77715e-07
4.69727e-06
-9.71547e-08
4.8105e-06
-2.47305e-09
4.88632e-06
1.02535e-07
4.90328e-06
2.06446e-07
4.85145e-06
2.92233e-07
4.73955e-06
3.45903e-07
4.59215e-06
3.62316e-07
4.43707e-06
3.45875e-07
4.29464e-06
3.0571e-07
4.17486e-06
2.51179e-07
4.08013e-06
1.9044e-07
4.00914e-06
1.29896e-07
3.95945e-06
7.37827e-08
3.92823e-06
2.50249e-08
3.91139e-06
-1.40266e-08
3.90425e-06
-4.40785e-08
3.90319e-06
-6.67927e-08
3.90434e-06
-7.98771e-08
3.9044e-06
-8.36789e-08
3.90693e-06
-9.43306e-08
3.92748e-06
-1.34848e-07
3.98043e-06
-1.95135e-07
4.0527e-06
-2.17062e-07
4.10002e-06
-1.45559e-07
4.08186e-06
8.72745e-09
3.99685e-06
1.6698e-07
3.88424e-06
2.38062e-07
3.79954e-06
1.85586e-07
3.78135e-06
4.59939e-08
3.8364e-06
-1.33751e-07
3.96291e-06
-3.25278e-07
4.15191e-06
-5.30362e-07
4.38769e-06
-7.79343e-07
4.69579e-06
-1.00723e-06
5.07646e-06
-1.16005e-06
5.50771e-06
-1.38e-06
5.99127e-06
-1.38409e-06
6.48113e-06
-1.04191e-06
6.78533e-06
-5.85989e-07
6.95749e-06
4.65803e-08
7.19028e-06
1.06731e-06
1.54026e-06
7.23251e-06
4.39433e-07
2.63431e-07
7.94679e-07
3.80667e-07
1.01587e-06
2.65818e-07
1.1554e-06
1.03286e-07
1.32613e-06
-1.73152e-07
1.51377e-06
-6.07144e-07
1.60658e-06
-9.33267e-07
1.52673e-06
-9.79188e-07
1.30597e-06
-7.93037e-07
1.01667e-06
-5.02078e-07
7.3712e-07
-2.35342e-07
4.80476e-07
2.33184e-09
2.39852e-07
1.92963e-07
1.8087e-08
3.24765e-07
-1.81902e-07
4.00805e-07
-3.63496e-07
4.42065e-07
-5.38324e-07
4.67318e-07
-7.17627e-07
4.82394e-07
-9.04053e-07
4.87717e-07
-1.09831e-06
4.82847e-07
-1.29708e-06
4.67073e-07
-1.49514e-06
4.4057e-07
-1.6865e-06
4.04556e-07
-1.86492e-06
3.60014e-07
-2.0239e-06
3.07183e-07
-2.15711e-06
2.46422e-07
-2.25923e-06
1.79383e-07
-2.32707e-06
1.08921e-07
-2.359e-06
3.83614e-08
-2.35695e-06
-3.44979e-08
-2.31909e-06
-1.04975e-07
-2.24777e-06
-1.69537e-07
-2.14523e-06
-2.26984e-07
-2.0155e-06
-2.762e-07
-1.86153e-06
-3.16266e-07
-1.68518e-06
-3.47561e-07
-1.49233e-06
-3.70013e-07
-1.28165e-06
-3.82966e-07
-1.05777e-06
-3.89189e-07
-8.22245e-07
-3.84729e-07
-5.67516e-07
-3.69722e-07
-3.08656e-07
-3.56141e-07
-1.72241e-08
-3.20812e-07
2.83137e-07
-2.96453e-07
6.25653e-07
-2.70175e-07
9.74227e-07
-2.48719e-07
1.30454e-06
-2.42689e-07
1.63582e-06
-2.47027e-07
1.97372e-06
-2.64923e-07
2.31321e-06
-2.89732e-07
2.65228e-06
-3.37385e-07
2.95552e-06
-4.13076e-07
3.20505e-06
-4.94833e-07
3.39979e-06
-5.72619e-07
3.53253e-06
-6.22961e-07
3.59955e-06
-6.33678e-07
3.60039e-06
-6.45592e-07
3.52562e-06
-6.15423e-07
3.37353e-06
-5.77474e-07
3.12779e-06
-5.79073e-07
2.89972e-06
-5.73222e-07
2.83541e-06
-7.27548e-07
2.72475e-06
-8.73478e-07
2.22828e-06
-5.72124e-07
1.36833e-06
1.98281e-08
4.86728e-07
4.82474e-07
-3.22658e-07
9.85961e-07
-1.23642e-06
1.70114e-06
-2.24883e-06
2.49818e-06
-3.15772e-06
3.16593e-06
-3.81023e-06
3.55186e-06
-4.17996e-06
3.63423e-06
-4.38669e-06
3.51162e-06
-4.56052e-06
3.30153e-06
-4.7704e-06
3.07173e-06
-5.03538e-06
2.85455e-06
-5.36231e-06
2.66223e-06
-5.73505e-06
2.48341e-06
-6.13204e-06
2.3045e-06
-6.52995e-06
2.11644e-06
-6.90834e-06
1.91328e-06
-7.25071e-06
1.69428e-06
-7.54479e-06
1.46205e-06
-7.78361e-06
1.22304e-06
-7.96512e-06
9.86266e-07
-8.09241e-06
7.63064e-07
-8.17314e-06
5.6549e-07
-8.21892e-06
4.04339e-07
-8.24391e-06
2.86219e-07
-8.26194e-06
2.09655e-07
-8.28274e-06
1.64323e-07
-8.3095e-06
1.35162e-07
-8.34089e-06
1.07096e-07
-8.37085e-06
6.67581e-08
-8.39139e-06
7.39192e-09
-8.39229e-06
-7.74211e-08
-8.36745e-06
-1.83518e-07
-8.30996e-06
-3.1108e-07
-8.21446e-06
-4.56346e-07
-8.0773e-06
-6.14526e-07
-7.89654e-06
-7.80396e-07
-7.67171e-06
-9.49008e-07
-7.40366e-06
-1.11607e-06
-7.09426e-06
-1.27811e-06
-6.74627e-06
-1.43219e-06
-6.36322e-06
-1.57551e-06
-5.94919e-06
-1.70583e-06
-5.50845e-06
-1.82177e-06
-5.04522e-06
-1.92252e-06
-4.5634e-06
-2.0079e-06
-4.06621e-06
-2.07825e-06
-3.5564e-06
-2.13339e-06
-3.03667e-06
-2.17287e-06
-2.50977e-06
-2.19638e-06
-1.9786e-06
-2.20303e-06
-1.44606e-06
-2.19248e-06
-9.15486e-07
-2.16484e-06
-3.89275e-07
-2.1218e-06
1.29542e-07
-2.06292e-06
6.34624e-07
-1.98944e-06
1.12201e-06
-1.8977e-06
1.58475e-06
-1.78846e-06
2.01672e-06
-1.66292e-06
2.41319e-06
-1.52393e-06
2.77083e-06
-1.37556e-06