/*--------------------------------*- C++ -*----------------------------------*\
  =========                 |
  \\      /  F ield         | OpenFOAM: The Open Source CFD Toolbox
   \\    /   O peration     | Website:  https://openfoam.org
    \\  /    A nd           | Version:  9
     \\/     M anipulation  |
\*---------------------------------------------------------------------------*/
FoamFile
{
    format      ascii;
    class       volVectorField;
    location    "0.077";
    object      U_0;
}
// * * * * * * * * * * * * * * * * * * * * * * * * * * * * * * * * * * * * * //

dimensions      [0 1 -1 0 0 0 0];

internalField   nonuniform List<vector> 
12225
(
(9.94446 -0.0236842 0)
(9.77103 0.0416986 0)
(9.44313 0.0733573 0)
(9.01351 0.082904 0)
(8.62255 0.0684345 0)
(8.33232 0.0445163 0)
(8.12647 0.0254213 0)
(7.9474 0.0195067 0)
(7.73976 0.0263343 0)
(7.49996 0.0398343 0)
(7.21529 0.051987 0)
(6.94196 0.0592728 0)
(6.62656 0.0618263 0)
(6.39261 0.0565452 0)
(6.05946 0.0586082 0)
(5.92542 0.0481578 0)
(5.48237 0.0802616 0)
(5.45551 0.0601602 0)
(10.0413 -0.0196785 0)
(10.0486 0.0749531 0)
(10.1566 0.0890602 0)
(10.2303 0.0979425 0)
(10.2192 0.0879499 0)
(10.1536 0.0720432 0)
(10.0778 0.0685219 0)
(10.0119 0.0805481 0)
(9.9516 0.0964706 0)
(9.90165 0.111018 0)
(9.85269 0.117689 0)
(9.81703 0.123212 0)
(9.76389 0.122263 0)
(9.72011 0.128017 0)
(9.62152 0.123511 0)
(9.54817 0.137179 0)
(9.38785 0.156915 0)
(9.28338 0.182724 0)
(10.128 -0.0280389 0)
(9.93456 0.0121351 0)
(9.97608 0.0390097 0)
(10.1386 0.0779354 0)
(10.2362 0.100076 0)
(10.2177 0.0938852 0)
(10.1511 0.0760399 0)
(10.1046 0.064454 0)
(10.0959 0.0630158 0)
(10.1109 0.0691604 0)
(10.1245 0.0768724 0)
(10.1218 0.0860241 0)
(10.0971 0.0963763 0)
(10.0578 0.110546 0)
(10.0059 0.12738 0)
(9.94783 0.149673 0)
(9.89008 0.184421 0)
(9.83605 0.221499 0)
(10.0143 0.0484206 0)
(9.9668 0.110725 0)
(9.94766 0.0499781 0)
(9.98396 0.0239024 0)
(10.0604 0.0481502 0)
(10.1415 0.073957 0)
(10.2152 0.0834465 0)
(10.2738 0.0850109 0)
(10.3088 0.0896099 0)
(10.3138 0.102421 0)
(10.2844 0.119793 0)
(10.2233 0.137032 0)
(10.1419 0.150559 0)
(10.0579 0.162123 0)
(9.98614 0.171958 0)
(9.9319 0.186108 0)
(9.90168 0.211025 0)
(9.88641 0.24264 0)
(9.85107 -0.0363676 0)
(10.0182 0.0024589 0)
(10.1605 0.0234829 0)
(10.1081 0.0588403 0)
(10.0128 0.0719503 0)
(9.98466 0.064106 0)
(10.0188 0.0508863 0)
(10.0713 0.0461347 0)
(10.1144 0.0559509 0)
(10.1395 0.0784504 0)
(10.1429 0.107721 0)
(10.1246 0.136935 0)
(10.0906 0.16032 0)
(10.0548 0.175574 0)
(10.0302 0.183778 0)
(10.0219 0.191067 0)
(10.0319 0.204697 0)
(10.0515 0.228903 0)
(10.0473 0.0355456 0)
(10.0508 0.0222039 0)
(10.0518 0.0438173 0)
(10.0698 0.073179 0)
(10.1064 0.0711939 0)
(10.1578 0.0499503 0)
(10.2186 0.0359987 0)
(10.2709 0.0392791 0)
(10.2943 0.0596236 0)
(10.2788 0.0931813 0)
(10.2282 0.131043 0)
(10.1545 0.163692 0)
(10.0746 0.184675 0)
(10.0038 0.192614 0)
(9.95239 0.191117 0)
(9.92324 0.189272 0)
(9.91289 0.196326 0)
(9.92143 0.223589 0)
(10.0185 0.000332667 0)
(9.97046 -0.030091 0)
(10.0579 0.000720191 0)
(10.1892 0.0452282 0)
(10.2451 0.0541257 0)
(10.2177 0.0396563 0)
(10.1632 0.0255727 0)
(10.1255 0.0284031 0)
(10.1164 0.0547486 0)
(10.121 0.100887 0)
(10.1168 0.154115 0)
(10.0924 0.199287 0)
(10.0548 0.225921 0)
(10.0175 0.231953 0)
(9.99352 0.222115 0)
(9.98464 0.208803 0)
(9.99137 0.20203 0)
(10.0064 0.216481 0)
(9.94243 0.0236883 0)
(10.0412 0.00529741 0)
(9.92985 -0.0120503 0)
(9.83352 0.0178194 0)
(9.83759 0.0496145 0)
(9.9035 0.0629247 0)
(9.96064 0.0574948 0)
(9.97417 0.0497444 0)
(9.95708 0.0613598 0)
(9.94156 0.099309 0)
(9.94555 0.152394 0)
(9.96821 0.200078 0)
(10.0002 0.226689 0)
(10.0332 0.228159 0)
(10.0592 0.211985 0)
(10.0769 0.193306 0)
(10.085 0.184707 0)
(10.0926 0.200367 0)
(9.8967 -0.106913 0)
(9.95056 -0.0822629 0)
(10.0458 0.068105 0)
(10.0779 0.0856358 0)
(10.0614 0.0361274 0)
(10.0375 0.00328083 0)
(10.0221 0.00990622 0)
(10.0099 0.0384991 0)
(10.0003 0.0710316 0)
(10.001 0.103117 0)
(10.016 0.135022 0)
(10.0409 0.163982 0)
(10.0648 0.184707 0)
(10.0791 0.194755 0)
(10.0771 0.194547 0)
(10.0652 0.191721 0)
(10.0449 0.191212 0)
(10.0352 0.204685 0)
(10.1472 -0.000379883 0)
(9.93552 -0.0545977 0)
(10.022 -0.0360804 0)
(10.1378 0.00868535 0)
(10.1465 0.0537134 0)
(10.0832 0.0697898 0)
(10.0328 0.059729 0)
(10.0274 0.0495004 0)
(10.0504 0.0589958 0)
(10.0735 0.0913568 0)
(10.0763 0.136702 0)
(10.0534 0.18099 0)
(10.0119 0.212771 0)
(9.96431 0.227924 0)
(9.92153 0.227013 0)
(9.89288 0.21957 0)
(9.87999 0.210946 0)
(9.88956 0.217167 0)
(9.88405 -0.0664287 0)
(9.92466 -0.0652664 0)
(9.98165 -0.0176316 0)
(10.0534 0.039935 0)
(10.1089 0.0737861 0)
(10.132 0.0713889 0)
(10.119 0.0503908 0)
(10.0796 0.0375549 0)
(10.0399 0.0498565 0)
(10.0201 0.0891064 0)
(10.0174 0.143604 0)
(10.0192 0.195885 0)
(10.0147 0.231677 0)
(10.0033 0.245133 0)
(9.98648 0.236008 0)
(9.97039 0.215075 0)
(9.96122 0.188239 0)
(9.96147 0.172861 0)
(10.1381 -0.0482945 0)
(9.92774 -0.0747846 0)
(9.83032 -0.0823118 0)
(9.85125 -0.046589 0)
(9.95528 0.00438484 0)
(10.0581 0.0481284 0)
(10.1119 0.0720672 0)
(10.1206 0.0795714 0)
(10.1168 0.0856516 0)
(10.1255 0.106075 0)
(10.1484 0.144173 0)
(10.1741 0.190788 0)
(10.1937 0.231226 0)
(10.2068 0.25463 0)
(10.2159 0.25681 0)
(10.2209 0.242868 0)
(10.2233 0.221418 0)
(10.2138 0.202609 0)
(10.156 -0.0599029 0)
(10.1762 -0.0133281 0)
(10.116 -0.00663219 0)
(10.0637 -0.00509352 0)
(10.044 -0.00341403 0)
(10.0434 0.0154064 0)
(10.0444 0.0366399 0)
(10.0399 0.0440339 0)
(10.0373 0.0469908 0)
(10.0449 0.0657906 0)
(10.0618 0.106575 0)
(10.0803 0.157927 0)
(10.0961 0.201102 0)
(10.1074 0.222887 0)
(10.1183 0.220978 0)
(10.1306 0.205766 0)
(10.1472 0.188549 0)
(10.1698 0.184173 0)
(9.88194 -0.110521 0)
(9.86634 -0.0224617 0)
(9.90158 -0.0218721 0)
(9.91117 -0.0152652 0)
(9.88048 0.00864388 0)
(9.82733 0.0396819 0)
(9.79433 0.0643376 0)
(9.80156 0.0751571 0)
(9.83702 0.0825826 0)
(9.87693 0.101534 0)
(9.90592 0.136653 0)
(9.92431 0.182368 0)
(9.94011 0.224524 0)
(9.96156 0.249337 0)
(9.9908 0.248834 0)
(10.0263 0.228652 0)
(10.0659 0.195316 0)
(10.1056 0.166474 0)
(9.80084 0.034073 0)
(9.93542 -0.0105876 0)
(10.0774 -0.057658 0)
(10.0446 -0.0143352 0)
(9.95086 0.0666367 0)
(9.89174 0.10336 0)
(9.88417 0.0723119 0)
(9.91542 0.0157299 0)
(9.96776 -0.0133938 0)
(10.0238 0.00496226 0)
(10.0744 0.0566983 0)
(10.1235 0.113962 0)
(10.1745 0.151142 0)
(10.2292 0.157684 0)
(10.2804 0.139797 0)
(10.3223 0.111871 0)
(10.3473 0.0893957 0)
(10.3558 0.0813331 0)
(9.94411 -0.0404303 0)
(9.96215 -0.143103 0)
(9.99258 -0.0468867 0)
(9.96432 0.0627756 0)
(9.94575 0.0987218 0)
(9.98553 0.0730184 0)
(10.0428 0.0248854 0)
(10.0781 -0.010316 0)
(10.09 -0.0170213 0)
(10.0997 0.00264749 0)
(10.1246 0.0399647 0)
(10.1617 0.0826862 0)
(10.1968 0.120193 0)
(10.2165 0.147642 0)
(10.2158 0.164951 0)
(10.1982 0.176044 0)
(10.1712 0.181935 0)
(10.1494 0.184407 0)
(10.1161 -0.174098 0)
(10.0612 -0.114905 0)
(9.99866 -0.0678864 0)
(9.98733 -0.00496956 0)
(9.98328 0.0384563 0)
(9.97478 0.0291071 0)
(9.95998 -0.00277125 0)
(9.9434 -0.027242 0)
(9.93288 -0.0377077 0)
(9.93914 -0.0333425 0)
(9.96959 -0.0115165 0)
(10.021 0.0273855 0)
(10.0814 0.0764304 0)
(10.1381 0.123465 0)
(10.1836 0.15354 0)
(10.2166 0.160817 0)
(10.2399 0.144233 0)
(10.2566 0.112089 0)
(10.005 -0.339123 0)
(10.0585 -0.132842 0)
(10.0579 0.0672715 0)
(10.0082 0.133505 0)
(9.97764 0.133054 0)
(9.98559 0.106417 0)
(10.0061 0.0715178 0)
(10.0177 0.0311792 0)
(10.0158 -0.0146589 0)
(10.0066 -0.0593577 0)
(10.0005 -0.0909226 0)
(10.0086 -0.0977383 0)
(10.035 -0.0764161 0)
(10.0772 -0.0318358 0)
(10.1259 0.0240986 0)
(10.173 0.0764629 0)
(10.21 0.115749 0)
(10.2344 0.131789 0)
(9.88581 -0.150827 0)
(9.88996 -0.16704 0)
(9.90915 -0.0217918 0)
(10.0035 0.060746 0)
(10.1112 0.0417895 0)
(10.1427 -0.0175924 0)
(10.125 -0.0549011 0)
(10.1062 -0.0492003 0)
(10.0966 -0.018636 0)
(10.0873 0.00691606 0)
(10.0732 0.0106551 0)
(10.0538 -0.00628562 0)
(10.0304 -0.0306896 0)
(10.0065 -0.0466744 0)
(9.98702 -0.0461554 0)
(9.97742 -0.0306801 0)
(9.97834 -0.00865309 0)
(9.9924 0.00973117 0)
(9.8422 0.0987074 0)
(9.87826 -0.0120194 0)
(9.92674 -0.184029 0)
(9.97895 -0.167082 0)
(10.0152 -0.0464819 0)
(10.0103 0.060827 0)
(9.9767 0.097661 0)
(9.94483 0.0706056 0)
(9.93524 0.0194186 0)
(9.9567 -0.0201851 0)
(10.0039 -0.0323872 0)
(10.0612 -0.0156179 0)
(10.1139 0.0194994 0)
(10.1524 0.0586003 0)
(10.172 0.0861141 0)
(10.1725 0.0927508 0)
(10.1588 0.0759463 0)
(10.1328 0.0354549 0)
(9.92538 -0.0903799 0)
(10.0809 -0.192333 0)
(10.0548 -0.173817 0)
(9.96171 -0.0962778 0)
(9.89967 -0.00511046 0)
(9.89139 0.0638999 0)
(9.90894 0.0800088 0)
(9.93232 0.0439155 0)
(9.95177 -0.0222299 0)
(9.96473 -0.0919079 0)
(9.97968 -0.14643 0)
(10.0054 -0.172861 0)
(10.0425 -0.164388 0)
(10.0879 -0.122612 0)
(10.1395 -0.05681 0)
(10.1905 0.0148109 0)
(10.237 0.0793226 0)
(10.2715 0.117854 0)
(10.1186 -0.14089 0)
(10.0004 -0.123625 0)
(9.90904 -0.0492266 0)
(9.85785 0.0068029 0)
(9.88333 0.0316146 0)
(9.93191 0.0359244 0)
(9.96597 0.0288301 0)
(9.98514 0.00469626 0)
(9.99519 -0.0339642 0)
(9.99982 -0.0775732 0)
(9.9979 -0.110507 0)
(9.98826 -0.125462 0)
(9.97454 -0.122825 0)
(9.96221 -0.108234 0)
(9.95907 -0.0880489 0)
(9.96998 -0.0682091 0)
(9.99477 -0.0530346 0)
(10.0323 -0.0435106 0)
(9.96972 0.155167 0)
(9.95249 0.0378513 0)
(9.95136 -0.0728699 0)
(9.99511 -0.0933561 0)
(10.0567 -0.0527314 0)
(10.094 0.00368351 0)
(10.1016 0.0349028 0)
(10.1058 0.021729 0)
(10.1194 -0.0273633 0)
(10.1335 -0.083301 0)
(10.1399 -0.12366 0)
(10.1335 -0.1381 0)
(10.115 -0.128681 0)
(10.0918 -0.103596 0)
(10.0716 -0.0735887 0)
(10.0611 -0.0474666 0)
(10.0606 -0.0310179 0)
(10.07 -0.0281302 0)
(10.0367 0.0762581 0)
(10.1272 0.00947184 0)
(10.1211 -0.071124 0)
(10.0839 -0.0931394 0)
(10.0849 -0.064638 0)
(10.1092 -0.0146329 0)
(10.1315 0.00647682 0)
(10.138 -0.0183487 0)
(10.1187 -0.067091 0)
(10.072 -0.103748 0)
(10.0074 -0.112089 0)
(9.94534 -0.0979383 0)
(9.90163 -0.0756778 0)
(9.88265 -0.0574263 0)
(9.88621 -0.0490652 0)
(9.90503 -0.0506167 0)
(9.93044 -0.0592173 0)
(9.9537 -0.0709944 0)
(10.1118 0.0601035 0)
(10.1244 0.014759 0)
(10.11 -0.0442098 0)
(10.0553 -0.0725003 0)
(9.99487 -0.0544383 0)
(9.97946 -0.0135444 0)
(10.0075 0.0199815 0)
(10.0543 0.0307846 0)
(10.0919 0.0249436 0)
(10.1025 0.0073409 0)
(10.0875 -0.0161537 0)
(10.0609 -0.041889 0)
(10.0364 -0.0666946 0)
(10.0203 -0.0860158 0)
(10.0123 -0.0960717 0)
(10.0091 -0.0966265 0)
(10.0074 -0.0891538 0)
(10.0047 -0.0794018 0)
(9.91206 0.118021 0)
(9.94201 0.0734746 0)
(9.92383 -0.0393411 0)
(9.85835 -0.0433837 0)
(9.82985 -0.0261808 0)
(9.82899 -0.0308187 0)
(9.84342 -0.0534798 0)
(9.88413 -0.078185 0)
(9.95262 -0.0899745 0)
(10.0349 -0.0833063 0)
(10.1119 -0.0654342 0)
(10.168 -0.0477477 0)
(10.1956 -0.0381268 0)
(10.1959 -0.0375619 0)
(10.1782 -0.0426931 0)
(10.1526 -0.0503394 0)
(10.1279 -0.0581784 0)
(10.1073 -0.0671013 0)
(10.1216 -0.00366112 0)
(10.2309 -0.00571238 0)
(10.2041 -0.00811471 0)
(10.1459 -0.0194964 0)
(10.132 -0.0186743 0)
(10.1457 -0.00818083 0)
(10.1433 -0.0118098 0)
(10.1227 -0.0399558 0)
(10.1005 -0.0792578 0)
(10.0847 -0.107466 0)
(10.0755 -0.113985 0)
(10.0694 -0.103373 0)
(10.0634 -0.0859672 0)
(10.0566 -0.0701727 0)
(10.0519 -0.0589206 0)
(10.0521 -0.0518584 0)
(10.0594 -0.0473664 0)
(10.0732 -0.0435301 0)
(10.0928 0.0396087 0)
(10.0061 0.0334899 0)
(10.0035 0.0168247 0)
(10.0425 -0.0122192 0)
(10.1406 -0.0342027 0)
(10.261 -0.0446677 0)
(10.3476 -0.0510741 0)
(10.368 -0.0581591 0)
(10.3255 -0.0651845 0)
(10.2495 -0.0656246 0)
(10.1727 -0.0558161 0)
(10.1161 -0.0413687 0)
(10.0869 -0.0313914 0)
(10.0822 -0.0313356 0)
(10.0943 -0.0414226 0)
(10.1146 -0.0574364 0)
(10.1372 -0.0751661 0)
(10.1576 -0.0912846 0)
(9.70647 -0.00122123 0)
(9.8983 0.0014934 0)
(10.0834 -0.0214346 0)
(10.1584 -0.0630955 0)
(10.1059 -0.090092 0)
(10.0071 -0.0812263 0)
(9.93805 -0.0517435 0)
(9.9287 -0.0294788 0)
(9.96801 -0.0262687 0)
(10.0296 -0.0362753 0)
(10.0915 -0.0492662 0)
(10.1411 -0.0596894 0)
(10.1715 -0.0667984 0)
(10.1809 -0.0712487 0)
(10.171 -0.0733239 0)
(10.1485 -0.0732981 0)
(10.1187 -0.071137 0)
(10.0882 -0.0684655 0)
(9.89277 -0.00990473 0)
(9.76277 -0.052357 0)
(9.65469 -0.0577967 0)
(9.49248 -0.0317922 0)
(9.34298 -0.00253809 0)
(9.22675 -0.00356216 0)
(9.11754 -0.0312143 0)
(8.99049 -0.0671397 0)
(8.82957 -0.0952258 0)
(8.63805 -0.104588 0)
(8.43968 -0.0937827 0)
(8.26116 -0.0712961 0)
(8.11304 -0.0490107 0)
(7.99083 -0.0353004 0)
(7.88093 -0.0325376 0)
(7.77402 -0.038136 0)
(7.66258 -0.0483004 0)
(7.54768 -0.0584239 0)
(-0.253594 0.525839 -9.19211e-20)
(-0.752033 0.511465 9.11776e-20)
(-1.1931 0.436257 0)
(-1.47071 0.27062 0)
(-1.54326 0.0655297 0)
(-1.44515 -0.124304 -8.85123e-20)
(-1.20313 -0.283803 0)
(-0.837283 -0.374563 0)
(-0.439065 -0.375042 0)
(-0.0537342 -0.315444 0)
(0.258423 -0.225176 8.52163e-20)
(0.473309 -0.132545 0)
(0.608585 -0.05349 0)
(0.671147 0.00934289 0)
(0.679484 0.0548711 0)
(0.649992 0.0820653 8.18612e-20)
(0.596749 0.0927681 0)
(0.531888 0.0911623 0)
(0.464778 0.0818563 0)
(0.40165 0.0683395 0)
(0.345737 0.0528982 0)
(0.29843 0.0376839 0)
(0.260445 0.0238049 0)
(0.232092 0.0117269 7.63797e-20)
(0.213155 0.00215007 -7.569e-20)
(0.202834 -0.00542125 7.4998e-20)
(0.200848 -0.0110047 7.42997e-20)
(0.206316 -0.0142199 0)
(0.218231 -0.0176129 0)
(0.236597 -0.0188781 -7.21589e-20)
(0.258387 -0.0189335 -7.14383e-20)
(0.284112 -0.0201259 0)
(0.311664 -0.0149175 0)
(0.337036 -0.0146916 -6.92718e-20)
(0.366631 -0.00729074 0)
(0.382952 0.00348813 0)
(0.406226 0.00438322 6.71175e-20)
(0.411155 0.0380011 0)
(0.399339 0.0354192 6.57011e-20)
(0.402749 0.0932097 1.29997e-19)
(0.285957 0.114509 0)
(0.298186 0.189093 0)
(-0.00966885 0.315582 0)
(-0.107262 0.482956 0)
(-0.674853 0.767142 0)
(-1.18574 0.0156819 1.21451e-19)
(-1.25477 -0.415893 1.20121e-19)
(-1.40571 -0.429891 1.18811e-19)
(-1.49403 -0.28717 0)
(-1.62525 -0.0398321 -1.16612e-19)
(-1.79965 0.166425 0)
(-1.98115 0.219109 1.14691e-19)
(-2.01256 0.135916 1.13656e-19)
(-1.90293 0.0192242 0)
(-1.74583 -0.0661863 0)
(-1.48463 -0.151357 0)
(-1.17632 -0.233552 1.09155e-19)
(-0.841287 -0.318592 0)
(-0.423903 -0.434259 0)
(0.120414 -0.575481 0)
(0.81464 -0.679752 0)
(1.58863 -0.595886 0)
(2.313 -0.351185 0)
(2.7905 -0.0770175 0)
(3.01879 0.11233 0)
(3.12526 0.204225 -9.97923e-20)
(3.20535 0.245201 0)
(3.29534 0.211517 0)
(3.35546 0.116497 9.7163e-20)
(3.2774 0.0668575 9.60476e-20)
(3.07222 -0.0470501 0)
(2.78707 -0.348277 -9.37128e-20)
(2.39579 -0.14806 9.28721e-20)
(1.29296 0.681798 0)
(-0.210254 0.906855 -9.16292e-20)
(-1.4577 0.805755 0)
(-2.60253 0.713544 0)
(-3.59235 0.624177 9.03127e-20)
(-4.48244 0.547792 0)
(-5.26567 0.477778 -8.98922e-20)
(-5.96095 0.416207 0)
(-6.57033 0.359172 8.95624e-20)
(-7.10007 0.306975 8.93853e-20)
(-7.55304 0.258371 8.91849e-20)
(-7.9332 0.213492 1.77907e-19)
(-8.24494 0.172493 -1.77372e-19)
(-8.4941 0.136105 0)
(-8.68843 0.105305 0)
(-8.8372 0.0809149 0)
(-8.95035 0.062785 -1.74478e-19)
(-9.03683 0.0493501 -1.73567e-19)
(-9.10302 0.0389369 1.72578e-19)
(-9.15223 0.0306639 0)
(-9.18572 0.0226961 -1.70326e-19)
(-9.2018 0.0138298 -1.69036e-19)
(-9.19758 0.00358077 -1.67621e-19)
(-9.16971 -0.00854256 0)
(-9.11341 -0.0224904 0)
(-9.02496 -0.0378846 0)
(-8.90086 -0.0544167 -1.60505e-19)
(-8.7387 -0.0715607 0)
(-8.53708 -0.0888428 0)
(-8.29557 -0.105826 1.53567e-19)
(-8.01466 -0.122137 0)
(-7.69561 -0.137454 0)
(-7.34029 -0.151484 1.45507e-19)
(-6.95125 -0.163995 0)
(-6.53166 -0.174807 0)
(-6.08506 -0.183822 -1.36826e-19)
(-5.61508 -0.191038 -1.33899e-19)
(-5.12555 -0.196452 0)
(-4.62057 -0.200027 1.28122e-19)
(-4.10421 -0.201746 0)
(-3.58058 -0.201554 -1.22575e-19)
(-3.05438 -0.199378 0)
(-2.53053 -0.195229 -1.17374e-19)
(-2.01275 -0.189637 -1.14928e-19)
(-1.50515 -0.18282 0)
(-1.01168 -0.174442 0)
(-0.537687 -0.164927 0)
(-0.0862348 -0.155093 0)
(0.340708 -0.143709 0)
(0.74049 -0.131362 0)
(1.11008 -0.118473 0)
(1.44738 -0.105385 -9.88786e-20)
(1.75145 -0.0924318 9.72634e-20)
(2.02244 -0.0799914 0)
(2.26177 -0.0686277 0)
(2.47229 -0.0588317 0)
(2.65796 -0.0502631 0)
(2.82251 -0.041922 1.80183e-19)
(2.96899 -0.0337853 0)
(3.10082 -0.0269329 -1.74957e-19)
(3.22111 -0.0200271 1.72402e-19)
(3.32678 -0.0070572 0)
(3.40227 0.0161035 0)
(3.42519 0.0419322 0)
(3.3895 0.0562816 -1.62511e-19)
(3.30778 0.0538975 -1.60124e-19)
(3.20078 0.0418024 0)
(3.08823 0.0290494 -1.55429e-19)
(2.98225 0.0213503 -1.53104e-19)
(2.88759 0.0184705 1.50791e-19)
(2.80428 0.017018 0)
(2.7308 0.0148488 0)
(2.66602 0.0119463 1.43911e-19)
(2.61022 0.0088277 0)
(2.56504 0.00573559 0)
(2.53255 0.00298782 0)
(2.51414 0.000820032 0)
(2.51027 -0.00109352 -1.32531e-19)
(2.52092 -0.0026667 -1.30248e-19)
(2.54454 -0.00368546 0)
(2.57816 -0.00442065 -1.25687e-19)
(2.61981 -0.00546209 0)
(2.66724 -0.00562066 0)
(2.71605 -0.00401946 -1.18889e-19)
(2.76389 -0.00316337 0)
(2.81524 -0.00485952 -1.14401e-19)
(2.87448 -0.00554466 0)
(2.93416 -0.00289569 0)
(2.98029 -0.00349275 -1.07698e-19)
(3.00654 -0.0100135 0)
(3.00907 -0.0101721 -1.03341e-19)
(2.98775 -0.00169409 0)
(2.95912 -0.0104167 0)
(2.9658 -0.0365096 0)
(3.03206 -0.0318443 9.47477e-20)
(3.11401 -0.0156247 0)
(3.23409 -0.0634279 -9.02911e-20)
(3.51724 -0.110428 0)
(3.89567 -0.063407 0)
(4.2181 -0.0637288 0)
(4.69217 -0.141284 0)
(5.28898 -0.0448936 0)
(5.44982 0.0507418 0)
(5.63336 -0.0291374 0)
(5.78471 0.22941 1.44804e-19)
(4.67846 0.541006 0)
(2.92552 0.181649 0)
(-0.131003 1.46442 2.75815e-19)
(-0.464783 1.33023 -2.73799e-19)
(-0.697445 0.98458 0)
(-0.807064 0.467008 1.8017e-19)
(-0.82815 -0.0578787 0)
(-0.771547 -0.571685 8.86609e-20)
(-0.541911 -1.03695 -1.76155e-19)
(-0.225413 -1.29749 -1.74714e-19)
(0.14675 -1.29999 0)
(0.473346 -1.11456 -1.71679e-19)
(0.727909 -0.844564 -8.50187e-20)
(0.897162 -0.566124 0)
(0.988959 -0.326376 0)
(1.01834 -0.140828 0)
(0.999984 -0.0100409 0)
(0.946804 0.0748746 -8.17479e-20)
(0.871207 0.124783 0)
(0.78428 0.149266 1.60965e-19)
(0.693711 0.15628 0)
(0.60435 0.151477 0)
(0.520255 0.138365 -1.56955e-19)
(0.444385 0.120175 0)
(0.378173 0.098663 1.54237e-19)
(0.322043 0.07543 -7.63931e-20)
(0.276172 0.0517927 7.57028e-20)
(0.240751 0.0286106 -7.50073e-20)
(0.215319 0.00661342 -7.4306e-20)
(0.199775 -0.0129879 0)
(0.193914 -0.0305292 0)
(0.198025 -0.045819 7.21668e-20)
(0.212625 -0.0578131 -7.15018e-20)
(0.234445 -0.0676244 0)
(0.266044 -0.0721619 0)
(0.302862 -0.0743888 6.92757e-20)
(0.343025 -0.0728349 0)
(0.391908 -0.0622716 0)
(0.432424 -0.0565699 -6.71106e-20)
(0.487457 -0.0298219 0)
(0.525463 -0.00656348 6.56958e-20)
(0.58681 0.0332401 -1.29942e-19)
(0.619023 0.109062 0)
(0.692381 0.159882 0)
(0.730769 0.335835 -2.51449e-19)
(0.833319 0.409769 -2.48701e-19)
(0.970105 0.744845 -2.45942e-19)
(1.0714 0.801918 1.21698e-19)
(1.00825 0.764383 -1.20645e-19)
(0.745002 0.700597 -3.5815e-19)
(0.501165 0.624199 2.36438e-19)
(0.276136 0.477267 1.17205e-19)
(0.187058 0.294664 0)
(0.157384 0.0870431 -1.1514e-19)
(0.225799 -0.178779 1.13967e-19)
(0.300505 -0.419686 0)
(0.400652 -0.56133 0)
(0.54367 -0.669294 0)
(0.751801 -0.751729 -1.09195e-19)
(0.917358 -0.780701 0)
(1.12595 -0.882381 2.13627e-19)
(1.39673 -1.12876 0)
(1.55383 -1.4318 2.08925e-19)
(1.67617 -1.47282 0)
(1.97251 -1.18769 -2.04789e-19)
(2.40459 -0.823877 0)
(2.93099 -0.538427 2.0124e-19)
(3.50967 -0.407186 -9.99227e-20)
(3.9519 -0.482612 0)
(4.07002 -0.42682 -1.96387e-19)
(3.8374 -0.0745293 -9.70203e-20)
(3.32174 0.236625 -9.60136e-20)
(2.39392 0.622139 0)
(0.778612 1.36103 -9.45502e-20)
(-0.859382 2.02327 -9.31718e-20)
(-2.20829 2.25766 0)
(-3.26364 2.10366 9.10879e-20)
(-4.11232 1.88152 -1.8201e-19)
(-4.86522 1.65166 0)
(-5.51186 1.44638 -8.99005e-20)
(-6.08723 1.26449 0)
(-6.59317 1.10504 2.69422e-19)
(-7.04176 0.963203 0)
(-7.43352 0.833312 -2.6856e-19)
(-7.77281 0.712363 -8.92331e-20)
(-8.06056 0.598305 8.94032e-20)
(-8.29932 0.491705 1.78314e-19)
(-8.49154 0.393876 -1.77752e-19)
(-8.64214 0.307067 0)
(-8.75761 0.2336 0)
(-8.84546 0.174931 0)
(-8.91273 0.130518 5.2374e-19)
(-8.9653 0.0975235 1.73582e-19)
(-9.00695 0.0717927 -1.72603e-19)
(-9.03912 0.0493387 0)
(-9.05998 0.0262621 -1.70726e-19)
(-9.06708 -0.000720774 1.69078e-19)
(-9.05636 -0.0326327 1.67658e-19)
(-9.02193 -0.0699281 0)
(-8.95957 -0.112499 0)
(-8.86481 -0.159529 0)
(-8.73435 -0.209855 1.60516e-19)
(-8.56574 -0.261996 0)
(-8.35768 -0.314475 -3.12511e-19)
(-8.10985 -0.365987 -4.61128e-19)
(-7.82272 -0.415447 3.02374e-19)
(-7.49749 -0.461898 0)
(-7.13597 -0.504493 1.45869e-19)
(-6.74056 -0.542551 0)
(-6.31424 -0.575529 2.79764e-19)
(-5.86037 -0.603099 -1.37088e-19)
(-5.3824 -0.625207 -1.34128e-19)
(-4.88392 -0.641779 0)
(-4.36893 -0.652621 -3.84458e-19)
(-3.8415 -0.657712 2.50726e-19)
(-3.3058 -0.657178 1.2254e-19)
(-2.7661 -0.651374 0)
(-2.2269 -0.64054 1.17346e-19)
(-1.69329 -0.624298 3.44789e-19)
(-1.16909 -0.603771 0)
(-0.657793 -0.579526 2.20751e-19)
(-0.166074 -0.551304 2.16498e-19)
(0.303989 -0.520726 2.1235e-19)
(0.750767 -0.486127 0)
(1.16995 -0.4486 0)
(1.5581 -0.40916 0)
(1.91257 -0.368862 -9.87749e-20)
(2.2318 -0.328885 -9.71795e-20)
(2.51565 -0.290472 0)
(2.76546 -0.254912 -1.88322e-19)
(2.98385 -0.22339 -1.85483e-19)
(3.17455 -0.196688 0)
(3.34297 -0.175051 -1.80054e-19)
(3.49659 -0.158262 -3.54846e-19)
(3.64213 -0.145273 1.74834e-19)
(3.78163 -0.132873 1.72292e-19)
(3.91406 -0.114567 0)
(4.0433 -0.08291 0)
(4.17703 -0.0365105 0)
(4.30626 0.0170374 1.62353e-19)
(4.4068 0.0665595 -1.59962e-19)
(4.45343 0.100822 -3.15126e-19)
(4.42966 0.113973 1.55203e-19)
(4.33961 0.109448 -1.52883e-19)
(4.20657 0.0960715 -1.50573e-19)
(4.05886 0.0820364 0)
(3.91629 0.0708618 0)
(3.7874 0.0619337 1.43743e-19)
(3.67512 0.0527614 0)
(3.58176 0.041397 0)
(3.5096 0.0275841 -2.73913e-19)
(3.45995 0.0122055 0)
(3.43242 -0.00355703 -1.32423e-19)
(3.42335 -0.0183816 1.3014e-19)
(3.42867 -0.030838 0)
(3.4468 -0.0401904 -1.25592e-19)
(3.4764 -0.046808 0)
(3.51441 -0.0500044 0)
(3.55826 -0.0500862 1.18797e-19)
(3.60879 -0.0507622 -2.33112e-19)
(3.67201 -0.0553096 1.1431e-19)
(3.75664 -0.0604083 0)
(3.86192 -0.0568198 0)
(3.96238 -0.0379189 -1.07608e-19)
(4.00982 -0.00761179 0)
(3.97405 0.0192387 -1.03257e-19)
(3.88221 0.0297177 0)
(3.79864 0.0245785 0)
(3.73791 0.00133839 0)
(3.69879 -0.0419393 -9.4694e-20)
(3.76772 -0.0837368 0)
(3.94533 -0.133237 9.02316e-20)
(4.13149 -0.218467 0)
(4.41825 -0.276434 0)
(4.88521 -0.300021 -1.6667e-19)
(5.34071 -0.364127 1.62095e-19)
(5.8529 -0.335837 0)
(6.37176 -0.179697 0)
(6.79724 -0.0691516 0)
(6.98884 0.129632 -4.34488e-19)
(7.04995 0.628571 0)
(6.78125 0.803844 2.76355e-19)
(0.117764 1.74677 1.60569e-23)
(0.162754 1.69811 3.65394e-19)
(0.275525 1.16931 0)
(0.371377 0.603499 -3.60853e-19)
(0.36645 0.0547867 0)
(0.402236 -0.644371 0)
(0.572972 -1.37748 -8.9479e-23)
(0.768751 -1.81541 1.74287e-19)
(0.911472 -1.8221 1.72891e-19)
(0.99164 -1.52195 1.71274e-19)
(1.01041 -1.09143 0)
(0.965566 -0.65688 0)
(0.875619 -0.286533 -1.67962e-19)
(0.760056 0.000556261 -3.33431e-19)
(0.633946 0.202457 3.30811e-19)
(0.509154 0.330559 0)
(0.387873 0.398375 3.2547e-19)
(0.26943 0.421678 -1.61212e-19)
(0.153842 0.412611 0)
(0.0396929 0.382129 3.17411e-19)
(-0.0717462 0.339461 1.57146e-19)
(-0.178267 0.291387 -3.11733e-19)
(-0.278764 0.241989 -1.54276e-19)
(-0.371387 0.193945 0)
(-0.454768 0.147913 3.03108e-19)
(-0.526644 0.103832 3.00236e-19)
(-0.584723 0.0623649 0)
(-0.627394 0.0231717 2.94494e-19)
(-0.65514 -0.0134199 0)
(-0.665201 -0.0461247 2.8871e-19)
(-0.655736 -0.0756701 1.42802e-19)
(-0.629501 -0.101111 0)
(-0.584428 -0.119893 0)
(-0.525596 -0.135102 0)
(-0.453898 -0.142652 0)
(-0.365571 -0.141058 0)
(-0.27581 -0.140204 0)
(-0.167424 -0.119713 2.65841e-19)
(-0.0562655 -0.100992 -3.94556e-19)
(0.0607253 -0.0706688 0)
(0.202521 -0.0084064 0)
(0.332679 0.0210514 0)
(0.515369 0.139841 3.23665e-23)
(0.690869 0.184782 2.48878e-19)
(0.927266 0.310832 4.92125e-19)
(1.19607 0.312849 -4.86833e-19)
(1.46596 0.263693 -2.40623e-19)
(1.71703 0.271199 2.38288e-19)
(1.95704 0.301929 -2.36425e-22)
(2.19927 0.308766 2.3313e-19)
(2.43867 0.263593 0)
(2.6501 0.151873 2.28555e-19)
(2.85118 -0.0125024 -4.45272e-22)
(3.00295 -0.1826 0)
(3.13332 -0.350037 0)
(3.19568 -0.481838 -2.19307e-19)
(3.27096 -0.606114 0)
(3.34037 -0.736939 0)
(3.30409 -0.832257 2.12338e-19)
(3.35028 -0.911996 4.20567e-19)
(3.27856 -0.947198 -2.08245e-19)
(2.89163 -1.01054 0)
(2.70622 -1.16627 2.04411e-19)
(2.84408 -1.34735 0)
(3.0008 -1.47161 2.01276e-19)
(2.94027 -1.14322 1.99797e-19)
(2.53853 -0.364731 -3.97287e-19)
(1.90651 0.342033 -1.97384e-19)
(1.10971 1.01971 0)
(0.0515626 1.85069 3.8722e-19)
(-1.19774 2.66103 0)
(-2.40232 3.17923 5.65322e-19)
(-3.26323 3.30868 3.73323e-19)
(-3.86238 3.16904 3.70089e-19)
(-4.30109 2.88594 -3.67584e-19)
(-4.70589 2.56669 5.47247e-19)
(-5.09357 2.26131 0)
(-5.49029 1.99542 0)
(-5.88777 1.76393 -3.61818e-19)
(-6.28186 1.56051 -5.40751e-19)
(-6.65975 1.37495 0)
(-7.01268 1.19961 1.79206e-19)
(-7.3311 1.03024 0)
(-7.60701 0.866112 -5.36426e-19)
(-7.83615 0.709963 7.48227e-22)
(-8.01754 0.565718 -6.53598e-22)
(-8.154 0.438229 3.54569e-19)
(-8.252 0.331858 0)
(-8.32094 0.24883 -3.51626e-19)
(-8.37084 0.187621 4.36155e-22)
(-8.41062 0.143688 0)
(-8.44577 0.110616 0)
(-8.47715 0.0804381 0)
(-8.50277 0.0468562 3.41371e-19)
(-8.51785 0.00559806 0)
(-8.51624 -0.0457578 0)
(-8.4925 -0.107006 0)
(-8.44145 -0.177637 0)
(-8.3584 -0.256131 0)
(-8.23968 -0.340188 3.22446e-19)
(-8.08286 -0.427244 0)
(-7.88685 -0.514776 3.12616e-19)
(-7.65158 -0.600627 3.07651e-19)
(-7.37777 -0.68308 -3.0243e-19)
(-7.06677 -0.760651 0)
(-6.72058 -0.831991 -2.9136e-19)
(-6.3416 -0.895986 0)
(-5.93262 -0.951761 -2.7974e-19)
(-5.49673 -0.998716 2.73838e-19)
(-5.03693 -1.03663 8.04678e-19)
(-4.55625 -1.06533 0)
(-4.05799 -1.08456 7.69583e-19)
(-3.54547 -1.0943 2.51232e-19)
(-3.02236 -1.09464 0)
(-2.49267 -1.08559 4.80067e-19)
(-1.96047 -1.06732 4.69753e-19)
(-1.43087 -1.04086 -6.89685e-19)
(-0.908544 -1.00682 0)
(-0.39659 -0.966395 -2.20683e-19)
(0.0978412 -0.920967 -2.16365e-19)
(0.57184 -0.868776 -6.36537e-19)
(1.02357 -0.810727 0)
(1.44782 -0.74741 0)
(1.84087 -0.680022 0)
(2.19936 -0.610422 -1.97382e-19)
(2.52076 -0.540864 0)
(2.80367 -0.473767 0)
(3.048 -0.411608 1.8821e-19)
(3.25541 -0.356597 1.85383e-19)
(3.43015 -0.310347 0)
(3.57899 -0.274082 0)
(3.70986 -0.248173 3.54706e-19)
(3.83047 -0.229983 0)
(3.94778 -0.213229 -3.44459e-19)
(4.06708 -0.192068 -3.39451e-19)
(4.19065 -0.16507 0)
(4.31872 -0.132642 0)
(4.45227 -0.0922229 3.24691e-19)
(4.58991 -0.0392676 -3.06924e-23)
(4.72143 0.0257401 -2.94037e-23)
(4.82802 0.0948376 0)
(4.88582 0.153438 6.11156e-19)
(4.87578 0.187436 0)
(4.79613 0.193877 0)
(4.6659 0.180445 0)
(4.51502 0.157389 -2.87226e-19)
(4.36936 0.13064 0)
(4.24366 0.101655 5.56454e-19)
(4.14283 0.0714501 2.73716e-19)
(4.06657 0.0424741 0)
(4.01286 0.0172505 2.64677e-19)
(3.97913 -0.00322665 0)
(3.96199 -0.0191805 0)
(3.95713 -0.0322926 7.53171e-19)
(3.96031 -0.044344 -4.93052e-19)
(3.96738 -0.0537512 0)
(3.97433 -0.0593623 -4.75019e-19)
(3.98046 -0.067759 2.33025e-19)
(3.99539 -0.0875877 0)
(4.03844 -0.111833 0)
(4.11591 -0.116111 0)
(4.19594 -0.0825989 6.45474e-19)
(4.22336 -0.017234 0)
(4.17054 0.0535178 2.06461e-19)
(4.06339 0.0890599 0)
(3.9576 0.0690074 0)
(3.90908 0.0140911 0)
(3.93862 -0.0576478 0)
(4.03713 -0.138615 0)
(4.21444 -0.232445 0)
(4.45882 -0.356193 3.51825e-19)
(4.72171 -0.453421 0)
(5.09788 -0.499264 1.66579e-19)
(5.55333 -0.598748 -4.86307e-19)
(6.04517 -0.579376 0)
(6.5331 -0.385773 0)
(7.13074 -0.21958 2.98552e-19)
(7.28804 0.0389391 2.89824e-19)
(7.44618 0.567504 -2.82438e-19)
(7.67963 0.731736 -2.76119e-19)
(0.208123 1.02378 -5.5171e-19)
(0.551687 1.17723 -5.472e-19)
(0.827027 0.738107 -3.62064e-19)
(0.964905 0.359583 -1.79613e-19)
(1.0532 -0.0600082 0)
(1.26742 -0.810244 3.54106e-19)
(1.45535 -1.57782 -1.75444e-19)
(1.45833 -1.92004 0)
(1.2708 -1.75709 -1.7276e-19)
(1.02143 -1.28341 0)
(0.760657 -0.739788 3.41563e-19)
(0.527853 -0.256126 0)
(0.319945 0.106211 1.68262e-19)
(0.113041 0.334699 3.3399e-19)
(-0.0779832 0.461678 -3.31239e-19)
(-0.244694 0.533518 0)
(-0.401163 0.576791 -3.25374e-19)
(-0.558988 0.599182 0)
(-0.72252 0.60194 0)
(-0.892927 0.587864 -3.16586e-19)
(-1.07075 0.559683 0)
(-1.25041 0.51928 -5.51284e-22)
(-1.42708 0.469019 0)
(-1.59499 0.411005 0)
(-1.74812 0.34643 5.53741e-22)
(-1.88073 0.275904 -2.99129e-19)
(-1.98803 0.200526 -2.96794e-19)
(-2.06561 0.122224 -2.93397e-19)
(-2.11138 0.0435004 0)
(-2.12574 -0.0317935 -5.75784e-19)
(-2.10818 -0.10217 0)
(-2.05907 -0.166452 -2.8227e-19)
(-1.98145 -0.222886 0)
(-1.87798 -0.270164 0)
(-1.74911 -0.306469 2.73618e-19)
(-1.60058 -0.332083 0)
(-1.43557 -0.347396 -2.67954e-19)
(-1.25013 -0.351119 8.83408e-23)
(-1.05854 -0.348618 5.24759e-19)
(-0.854246 -0.330449 -5.19362e-19)
(-0.624619 -0.297052 0)
(-0.405612 -0.276254 0)
(-0.147194 -0.214876 -2.51704e-19)
(0.11921 -0.172555 0)
(0.407106 -0.122779 -2.46302e-19)
(0.721815 -0.0787953 2.43555e-19)
(1.03036 -0.0628146 2.40877e-19)
(1.33682 -0.0668617 0)
(1.64094 -0.100037 -2.35725e-19)
(1.95017 -0.165131 -2.33277e-19)
(2.2561 -0.26437 4.60986e-19)
(2.54886 -0.407489 -2.28541e-19)
(2.80652 -0.568716 -2.26198e-19)
(3.01484 -0.71917 0)
(3.17665 -0.828165 0)
(3.27268 -0.888449 2.19246e-19)
(3.31242 -0.955339 0)
(3.2875 -0.9328 0)
(3.18855 -0.918852 -4.25151e-19)
(3.02061 -1.03832 -4.20877e-19)
(2.7549 -0.948794 0)
(2.56156 -0.903637 0)
(2.58727 -1.21078 0)
(2.42332 -1.151 0)
(1.66663 -0.438483 -4.03709e-19)
(0.788651 0.205451 4.00557e-19)
(0.0832458 0.723498 3.98653e-19)
(-0.693691 1.46635 7.88813e-19)
(-1.59661 2.38583 0)
(-2.5122 3.23249 -9.2709e-23)
(-3.26378 3.76503 0)
(-3.73499 3.91458 -3.76107e-19)
(-3.97179 3.78375 1.5231e-21)
(-4.1399 3.52387 -3.6971e-19)
(-4.30973 3.221 3.67384e-19)
(-4.53522 2.92041 1.90891e-21)
(-4.81526 2.65206 0)
(-5.15281 2.41448 3.64498e-19)
(-5.52025 2.19656 3.61811e-19)
(-5.89979 1.98755 7.2342e-19)
(-6.26877 1.77745 0)
(-6.61165 1.56232 -3.60782e-19)
(-6.91346 1.34265 0)
(-7.16593 1.12289 7.17042e-19)
(-7.36536 0.909655 -3.57094e-19)
(-7.51247 0.711218 3.5603e-19)
(-7.61221 0.536648 -3.54814e-19)
(-7.67366 0.393847 -7.08087e-19)