/*--------------------------------*- C++ -*----------------------------------*\
  =========                 |
  \\      /  F ield         | OpenFOAM: The Open Source CFD Toolbox
   \\    /   O peration     | Website:  https://openfoam.org
    \\  /    A nd           | Version:  9
     \\/     M anipulation  |
\*---------------------------------------------------------------------------*/
FoamFile
{
    format      ascii;
    class       volScalarField;
    location    "0.088";
    object      pPrime2Mean;
}
// * * * * * * * * * * * * * * * * * * * * * * * * * * * * * * * * * * * * * //

dimensions      [0 4 -4 0 0 0 0];

internalField   nonuniform List<scalar> 
12225
(
289634
286906
283739
280310
276730
273081
269418
265774
262171
258616
255114
251658
248237
244831
241408
237910
234221
230072
289667
286935
283761
280327
276744
273093
269429
265784
262180
258626
255125
251671
248254
244853
241439
237960
234322
230365
289759
286997
283810
280366
276776
273120
269453
265807
262202
258649
255150
251700
248290
244901
241507
238066
234520
230814
289887
287102
283891
280431
276829
273166
269493
265844
262238
258687
255191
251749
248349
244979
241616
238233
234803
231340
290094
287256
284011
280527
276908
273232
269551
265898
262292
258742
255252
251819
248436
245091
241769
238457
235153
231904
290397
287470
284176
280659
277016
273324
269632
265973
262365
258818
255335
251915
248553
245240
241968
238736
235558
232488
290791
287749
284394
280833
277159
273445
269739
266072
262461
258918
255444
252040
248702
245427
242212
239064
236004
233083
291213
288102
284674
281057
277342
273600
269875
266198
262584
259044
255581
252196
248887
245655
242500
239435
236482
233686
291773
288547
285025
281337
277572
273794
270046
266355
262737
259201
255750
252386
249109
245922
242829
239844
236988
234294
292452
289093
285456
281682
277853
274031
270254
266547
262923
259390
255952
252611
249369
246228
243197
240286
237515
234907
293303
289758
285980
282099
278193
274317
270505
266777
263145
259616
256191
252874
249666
246573
243600
240758
238061
235524
294196
290491
286554
282554
278562
274627
270776
267026
263385
259857
256444
253149
249974
246922
243998
241213
238575
236095
295356
291343
287209
283069
278979
274977
271082
267306
263653
260126
256725
253451
250307
247293
244416
241682
239096
236663
296894
292474
288072
283744
279524
275433
271480
267669
264000
260471
257082
253832
250720
247748
244919
242235
239700
237314
298868
293956
289193
284618
280226
276019
271991
268134
264443
260911
257533
254306
251227
248297
245514
242880
240393
238051
301492
295881
290622
285717
281105
276752
272630
268717
264997
261457
258088
254883
251838
248947
246209
243620
241176
238875
304913
298224
292322
287018
282149
277628
273398
269421
265667
262116
258753
255568
252552
249698
246998
244449
242045
239778
308506
300683
294115
288402
283271
278585
274252
270213
266428
262867
259512
256345
253356
250533
247868
245353
242981
240744
311136
302440
295444
289496
284227
279455
275072
271006
267212
263656
260315
257170
254207
251413
248778
246293
243948
241735
309550
301961
295431
289707
284560
279864
275532
271505
267743
264216
260903
257785
254847
252077
249465
247001
244674
242478
307591
300868
294880
289481
284537
279971
275725
271758
268042
264550
261265
258171
255254
252503
249907
247457
245143
242957
305676
299696
294196
289114
284376
279946
275792
271891
268221
264765
261507
258435
255537
252801
250218
247778
245474
243296
303975
298621
293537
288729
284175
279867
275798
271956
268328
264903
261669
258615
255731
253007
250434
248003
245706
243534
302579
297720
292976
288392
283986
279780
275779
271985
268391
264991
261776
258737
255864
253150
250584
248159
245867
243699
301490
297029
292540
288126
283833
279703
275754
271996
268428
265047
261846
258818
255954
253246
250686
248266
245977
243811
300680
296514
292220
287929
283718
279642
275732
272000
268451
265083
261892
258871
256013
253310
250754
248336
246050
243887
300091
296154
292000
287793
283638
279600
275715
272000
268463
265105
261920
258905
256051
253351
250797
248382
246097
243935
299645
295919
291860
287708
283588
279573
275703
272000
268471
265118
261938
258925
256074
253376
250824
248409
246125
243964
299396
295787
291783
287662
283560
279558
275697
271999
268475
265125
261947
258936
256086
253389
250838
248424
246141
243980
299300
295733
291751
287642
283549
279552
275694
271999
268476
265127
261950
258941
256091
253395
250843
248430
246147
243986
194811
194794
194761
194713
194650
194573
194480
194371
194244
194098
193933
193747
193543
193319
193077
192816
192535
192235
191916
191578
191222
190847
190456
190047
189620
189177
188717
188240
187746
187236
186710
186169
185613
185040
184453
183851
183236
182613
181980
181338
180685
180020
179338
178640
177925
177193
176450
175695
174928
174152
173368
172576
171778
170972
170159
169337
168507
167664
166802
165925
165038
164141
163239
162327
161397
160442
159466
158477
157480
156473
155451
154412
153354
152275
151178
150072
148962
147849
146741
145638
144535
143429
142322
141213
140103
138982
137858
136731
135595
134435
133255
132075
130909
129757
128615
127476
126333
125182
124020
122848
121665
120472
119265
118044
116805
115551
114297
113032
111761
110514
109301
108117
106946
105773
104583
103365
102111
100817
99481.2
98107.5
96703.7
95281.4
93853.4
92432.3
91028.3
89648
88294
86965.6
85659.8
84372.9
83100.4
81838
80582
79329.4
78078
76826.8
75575.2
74323
73070.7
71818.4
70566.6
69315.6
68065.6
66816.8
65569.4
64323.5
63079.1
61836.5
60595.5
59356.3
58119
56884
55651.3
54421.5
53195.3
51974
50758.5
49549.5
48347.5
47152.8
45964.9
44781.9
43603.1
42431.4
41268.1
40112
38964.6
37827.6
36699.5
35580.4
34471.5
33371.2
32280.1
31201.1
30133.6
29079.5
28038.6
27013.7
26009.4
25034.8
194875
194858
194826
194778
194715
194638
194545
194435
194306
194159
193992
193806
193602
193379
193138
192877
192596
192296
191976
191636
191278
190901
190507
190094
189664
189218
188755
188276
187780
187269
186743
186203
185648
185078
184491
183890
183275
182649
182014
181368
180709
180038
179354
178654
177938
177205
176464
175714
174949
174172
173385
172589
171789
170984
170173
169350
168519
167676
166818
165948
165068
164173
163265
162345
161406
160450
159476
158487
157490
156484
155461
154423
153365
152281
151180
150070
148953
147838
146730
145627
144531
143432
142328
141221
140114
138997
137867
136728
135580
134417
133243
132074
130917
129771
128632
127494
126351
125199
124035
122860
121675
120480
119272
118051
116815
115560
114297
113030
111769
110535
109332
108152
106982
105808
104616
103396
102140
100843
99504.9
98129
96723
95298.1
93867.3
92443.4
91036.9
89654.6
88299.1
86969.5
85662.9
84375.3
83102.3
81839.5
80583.3
79330.6
78079.2
76828
75576.4
74324.3
73072.1
71819.8
70568.1
69317.1
68067.2
66818.5
65571.1
64325.2
63081
61838.3
60597.5
59358.4
58121.4
56886.6
55654.3
54424.9
53199.4
51978.6
50763.7
49555.1
48353
47157.8
45968.5
44784
43604.7
42433.8
41271.2
40114.9
38967.4
37830.4
36702.2
35583.3
34474.8
33374.7
32284.2
31205
30137.5
29082.8
28040.5
27014
26007.6
25027.9
195018
195002
194971
194923
194858
194778
194682
194568
194437
194288
194121
193938
193736
193513
193271
193009
192726
192423
192100
191757
191394
191012
190612
190194
189759
189307
188839
188356
187857
187343
186815
186273
185717
185146
184560
183960
183346
182721
182085
181438
180777
180104
179416
178715
178003
177275
176532
175777
175007
174226
173436
172640
171839
171034
170220
169396
168563
167720
166867
166003
165123
164226
163311
162379
161432
160471
159496
158509
157510
156500
155475
154432
153367
152281
151179
150067
148950
147836
146729
145630
144538
143447
142349
141246
140138
139016
137877
136724
135564
134399
133236
132080
130932
129793
128659
127523
126381
125229
124063
122886
121698
120499
119288
118063
116824
115567
114301
113038
111793
110572
109377
108201
107032
105858
104665
103444
102186
100888
99548
98169.5
96759.9
95330.4
93894.5
92465.3
91054.2
89667.9
88309.4
86977.6
85669.3
84380.4
83106.4
81843
80586.4
79333.4
78081.9
76830.6
75579
74327
73074.7
71822.6
70571
69320.1
68070.3
66821.6
65574.4
64328.6
63084.4
61841.9
60601.1
59362.2
58125.4
56890.8
55658.9
54430
53204.9
51984.4
50769.4
49560.5
48357.9
47162
45972.2
44788.3
43610.1
42438.7
41275
40119
38972.2
37835.3
36707.6
35589.3
34481.1
33381.6
32291
31211.1
30142.7
29086.6
28043.1
27014.9
26005.1
25018.2
195229
195213
195182
195133
195067
194984
194885
194769
194636
194486
194318
194134
193930
193707
193464
193199
192913
192606
192278
191929
191561
191173
190767
190343
189902
189444
188971
188482
187978
187460
186928
186382
185823
185250
184663
184062
183449
182825
182190
181543
180883
180209
179523
178823
178110
177380
176635
175876
175105
174324
173533
172735
171929
171117
170297
169470
168635
167793
166943
166078
165196
164292
163370
162432
161482
160517
159539
158547
157541
156523
155489
154436
153364
152277
151176
150065
148951
147840
146738
145645
144560
143478
142386
141280
140165
139034
137886
136726
135563
134402
133246
132098
130958
129825
128695
127563
126423
125272
124106
122926
121735
120531
119315
118084
116838
115578
114315
113062
111829
110620
109434
108263
107097
105924
104730
103508
102249
100950
99608
98226.5
96812.6
95377.2
93934.2
92497.9
91080
89688.1
88325.2
86990
85679.2
84388.4
83113
81848.6
80591.3
79338
78086.2
76834.8
75583.2
74331.2
73079
71827
70575.5
69324.8
68075
66826.5
65579.4
64333.7
63089.6
61847.2
60606.6
59367.8
58131.1
56896.8
55665.1
54436.5
53211.7
51991.4
50776.4
49567.2
48364.1
47167.4
45976.9
44792.6
43614.4
42443.1
41279.9
40124.8
38978.3
37841.8
36715.3
35598.2
34491.2
33392.6
32302.2
31221.7
30152.5
29094.8
28048.5
27017
26002.6
25008.6
195512
195496
195462
195410
195341
195255
195153
195034
194897
194744
194573
194385
194179
193954
193707
193439
193148
192835
192501
192147
191772
191378
190965
190535
190087
189623
189143
188648
188139
187616
187080
186530
185968
185393
184805
184203
183590
182965
182329
181682
181024
180354
179670
178972
178258
177525
176775
176009
175229
174439
173641
172835
172023
171207
170385
169557
168722
167880
167028
166160
165273
164364
163440
162503
161552
160587
159604
158606
157590
156559
155511
154445
153365
152274
151177
150073
148966
147863
146765
145676
144595
143517
142427
141319
140195
139055
137900
136739
135577
134420
133269
132126
130992
129865
128740
127613
126476
125326
124160
122978
121783
120574
119351
118112
116859
115597
114339
113096
111874
110677
109500
108336
107174
106001
104808
103585
102325
101024
99680.7
98296.5
96877.9
95436
93985.1
92540.1
91113.9
89715
88346.4
87006.9
85692.7
84399.3
83122.1
81856.5
80598.3
79344.3
78092.3
76840.7
75589.1
74337.2
73085.1
71833.2
70581.8
69331.3
68081.8
66833.4
65586.3
64340.7
63096.7
61854.4
60613.8
59375.2
58138.7
56904.5
55673.1
54444.7
53220
51999.8
50784.8
49575.3
48371.8
47174.5
45983.4
44798.6
43620
42448.3
41284.7
40129.5
38983.3
37847.4
36722
35607.1
34502.1
33405
32314.9
31234.4
30164.7
29105.5
28056.6
27021.3
26001.7
25000.5
195869
195850
195813
195759
195688
195599
195494
195370
195230
195072
194896
194703
194491
194261
194009
193735
193438
193119
192778
192415
192032
191629
191208
190770
190314
189842
189355
188853
188338
187809
187269
186716
186151
185574
184984
184382
183767
183141
182503
181855
181197
180528
179845
179147
178431
177693
176936
176159
175369
174567
173758
172943
172125
171305
170481
169651
168815
167971
167116
166245
165353
164445
163524
162592
161646
160683
159700
158697
157672
156626
155561
154482
153393
152300
151205
150108
149008
147911
146819
145732
144651
143571
142479
141366
140234
139087
137929
136767
135606
134450
133302
132163
131034
129912
128792
127669
126537
125389
124224
123040
121842
120627
119395
118147
116887
115624
114371
113137
111926
110740
109572
108415
107256
106084
104890
103665
102404
101103
99758.6
98372.4
96950
95502.2
94043.3
92589.3
91154.2
89747.4
88372.5
87027.9
85709.8
84413.3
83133.7
81866.5
80607.3
79352.7
78100.2
76848.5
75596.9
74345.1
73093.2
71841.5
70590.4
69340
68090.6
66842.4
65595.4
64349.8
63105.8
61863.5
60623.1
59384.5
58148
56914
55682.7
54454.5
53230
52009.8
50794.7
49585
48381.3
47183.5
45991.9
44806.6
43627.6
42455.4
41291.1
40135.2
38988.4
37852.1
36726.8
35613
34509.9
33414.7
32326.2
31246.7
30177.3
29117.4
28066.5
27027.8
26003.1
24995.1
196297
196278
196239
196183
196110
196019
195909
195781
195635
195471
195289
195089
194870
194630
194371
194089
193783
193454
193104
192732
192339
191927
191496
191047
190583
190102
189607
189099
188577
188043
187496
186937
186368
185787
185194
184589
183971
183342
182702
182053
181393
180723
180038
179338
178617
177874
177109
176322
175520
174706
173884
173058
172231
171406
170579
169748
168912
168067
167211
166338
165447
164544
163632
162709
161771
160813
159834
158830
157800
156745
155669
154577
153480
152382
151287
150191
149094
147999
146908
145821
144738
143651
142551
141430
140289
139135
137973
136808
135645
134489
133342
132206
131081
129962
128846
127727
126600
125457
124294
123111
121909
120687
119445
118187
116921
115658
114410
113184
111983
110806
109647
108495
107338
106166
104969
103742
102480
101178
99833.8
98446.8
97022.1
95569.8
94104.1
92641.9
91198.4
89783.7
88402.2
87052.4
85730
84430.2
83148
81878.9
80618.4
79363
78110.1
76858.2
75606.7
74355.1
73103.6
71852.2
70601.3
69351.1
68102.1
66854.1
65607.2
64361.4
63117.2
61874.9
60634.4
59395.8
58159.4
56925.5
55694.3
54466.1
53241.6
52021.5
50806.3
49596.5
48392.5
47194.4
46002.4
44816.7
43637.3
42464.7
41299.5
40142.7
38995
37857.4
36730.9
35616.3
34513.8
33420.2
32334.1
31256.5
30188.5
29129
28077
27035.7
26006.5
24992.8
196807
196786
196747
196688
196611
196514
196398
196263
196110
195939
195748
195538
195308
195058
194787
194494
194177
193839
193478
193095
192692
192270
191829
191371
190896
190408
189905
189389
188860
188318
187763
187196
186618
186029
185430
184818
184196
183564
182922
182272
181611
180939
180252
179548
178823
178074
177300
176503
175688
174860
174024
173185
172349
171518
170688
169857
169020
168177
167321
166450
165564
164671
163770
162857
161928
160979
160006
159004
157974
156916
155835
154737
153633
152530
151429
150330
149231
148134
147041
145951
144860
143763
142649
141516
140365
139202
138032
136860
135693
134534
133386
132251
131127
130011
128898
127783
126659
125521
124363
123182
121978
120749
119496
118228
116958
115697
114454
113234
112040
110872
109720
108572
107416
106241
105041
103811
102547
101244
99899.9
98513.3
97088
95633.1
94162.8
92694.2
91243.5
89821.8
88434
87079.3
85753
84449.7
83164.7
81893.6
80631.8
79375.5
78122.1
76870
75618.6
74367.4
73116.2
71865.3
70614.8
69365
68116.2
66868.4
65621.6
64375.9
63131.4
61888.7
60648.1
59409.4
58173
56939.1
55708
54479.8
53255.3
52035.2
50819.9
49610
48405.7
47207.3
46014.9
44828.8
43649.1
42476
41310.3
40152.6
39003.9
37864.6
36736.1
35619.2
34514.8
33421.2
32336.8
31262
30196.4
29138.6
28086.9
27044
26011.6
24993.4
197405
197383
197341
197278
197195
197091
196966
196822
196659
196475
196273
196050
195806
195543
195258
194953
194625
194274
193902
193509
193096
192663
192212
191744
191261
190763
190252
189727
189188
188635
188070
187491
186902
186303
185694
185075
184449
183814
183171
182521
181861
181189
180501
179794
179063
178307
177523
176713
175884
175040
174188
173336
172490
171652
170819
169986
169150
168307
167454
166587
165710
164828
163938
163034
162113
161172
160205
159208
158182
157126
156045
154946
153838
152729
151622
150516
149412
148310
147213
146116
145015
143904
142775
141626
140461
139285
138105
136924
135748
134583
133432
132295
131171
130055
128944
127830
126710
125576
124424
123247
122042
120806
119544
118269
116998
115739
114500
113285
112098
110935
109789
108644
107486
106307
105103
103868
102600
101296
99952.7
98567.2
97142.5
95687.1
94214.6
92742.1
91286.5
89859.5
88466.7
87107.8
85777.8
84471.4
83183.8
81910.7
80647.4
79390.2
78136.3
76884.1
75632.8
74382
73131.5
71881.2
70631.3
69382.1
68133.7
66886.1
65639.4
64393.6
63149
61906.1
60665
59425.9
58189.2
56955.4
55724.3
54496.1
53271.5
52051.2
50835.8
49625.6
48421
47222.1
46029.4
44842.9
43662.7
42489.2
41322.9
40164.6
39014.9
37874.3
36743.6
35623.8
34516.1
33420.3
32335.8
31262.5
30199.3
29143.7
28093.5
27051
26017.3
24996.2
198093
198069
198023
197955
197864
197752
197617
197462
197285
197088
196870
196632
196374
196095
195796
195476
195134
194771
194387
193981
193557
193113
192652
192174
191682
191175
190654
190119
189569
189004
188425
187834
187233
186622
186003
185377
184746
184108
183465
182815
182156
181484
180793
180081
179343
178577
177780
176956
176111
175251
174383
173518
172662
171818
170980
170145
169309
168467
167616
166752
165883
165010
164128
163231
162317
161382
160420
159429
158407
157356
156280
155183
154074
152959
151844
150730
149620
148514
147411
146306
145194
144068
142922
141757
140577
139387
138194
136999
135812
134638
133481
132341
131214
130097
128984
127870
126750
125620
124472
123300
122095
120855
119587
118309
117038
115781
114545
113334
112152
110995
109852
108707
107546
106362
105152
103912
102639
101333
99989.9
98605.5
97182.3
95727.9
94255.6
92782.1
91324.3
89894.4
88498.7
87136.7
85803.9
84494.9
83205.1
81930.1
80665.5
79407.4
78153.2
76901.1
75650.2
74400
73150.1
71900.6
70651.5
69403.1
68155.2
66908
65661.3
64415.3
63170.5
61927.3
60685.7
59446.1
58208.9
56975
55743.7
54515.4
53290.5
52070
50854.2
49643.5
48438.4
47239.1
46045.8
44858.8
43678.2
42504.1
41337.2
40178.4
39027.9
37886.2
36753.8
35631.4
34520.3
33421.2
32334.2
31260.2
30197.9
29144
28095.7
27054.8
26021.7
24999.7
198875
198848
198798
198724
198626
198504
198359
198191
198001
197789
197556
197302
197028
196733
196418
196082
195725
195347
194948
194529
194092
193636
193164
192676
192173
191657
191126
190580
190018
189440
188848
188243
187627
187003
186372
185736
185096
184452
183803
183148
182484
181808
181112
180393
179645
178866
178055
177217
176358
175483
174602
173726
172863
172013
171172
170335
169497
168655
167805
166944
166079
165210
164332
163439
162529
161597
160639
159650
158632
157585
156513
155421
154313
153195
152075
150955
149840
148730
147623
146512
145390
144251
143092
141911
140714
139509
138299
137090
135888
134703
133538
132391
131260
130139
129021
127904
126782
125652
124507
123339
122136
120895
119624
118344
117075
115821
114587
113380
112202
111049
109908
108762
107596
106405
105188
103942
102664
101355
100010
98626.6
97205.3
95753.2
94283
92811.5
91354.9
89925.3
88528.7
87165.4
85830.8
84519.8
83228.3
81952
80686.3
79427.7
78173.4
76921.7
75671.6
74422.3
73173.4
71924.7
70676.4
69428.9
68181.8
66934.9
65688.3
64442
63196.8
61953.3
60711.3
59470.9
58233.1
56998.6
55767.1
54538.4
53313
52091.9
50875.5
49664.1
48458.2
47258.2
46064.3
44876.7
43695.4
42520.7
41353.3
40193.9
39042.8
37900.2
36766.5
35642.2
34528.4
33425.9
32335.4
31258.4
30194.5
29140.6
28093.8
27054.7
26023.3
25001.9
199755
199726
199672
199593
199488
199358
199203
199025
198823
198599
198352
198084
197794
197483
197150
196796
196421
196024
195608
195173
194721
194251
193766
193266
192752
192224
191682
191122
190546
189953
189344
188721
188087
187444
186796
186143
185487
184827
184164
183496
182821
182134
181429
180699
179940
179150
178329
177483
176615
175731
174842
173959
173091
172237
171394
170555
169715
168870
168019
167157
166291
165421
164543
163651
162740
161807
160848
159860
158841
157794
156724
155635
154530
153415
152295
151175
150059
148950
147841
146727
145599
144452
143281
142086
140872
139650
138424
137197
135979
134781
133606
132452
131314
130185
129061
127938
126812
125680
124534
123367
122165
120924
119653
118374
117105
115854
114624
113421
112247
111096
109954
108803
107632
106434
105210
103957
102674
101359
100012
98628.9
97209.7
95761
94295.5
92829.1
91377.1
89950.6
88555.8
87192.9
85857.8
84546.1
83253.7
81976.8
80710.8
79452.2
78198.2
76947.5
75698.6
74450.5
73202.9
71955.2
70707.9
69461.3
68215
66968.7
65721.9
64475.2
63229.3
61985.2
60742.5
59501.3
58262.6
57027.2
55794.9
54565.4
53339.3
52117.4
50900.1
49687.7
48480.7
47279.8
46085
44896.6
43714.6
42539.2
41371.3
40211.3
39059.7
37916.5
36781.9
35656.3
34540.5
33435.2
32341.3
31260.3
30192.7
29136.5
28089.3
27051.3
26021.7
25001.7
200747
200716
200658
200575
200466
200332
200172
199988
199778
199544
199286
199003
198697
198367
198014
197639
197242
196823
196386
195931
195459
194972
194471
193955
193425
192881
192321
191744
191149
190536
189906
189261
188603
187936
187263
186584
185903
185219
184533
183843
183148
182443
181721
180977
180206
179407
178582
177735
176868
175986
175097
174214
173342
172485
171639
170797
169953
169105
168249
167383
166511
165635
164750
163853
162938
161999
161035
160043
159021
157972
156902
155815
154714
153604
152489
151375
150265
149160
148055
146942
145813
144661
143483
142276
141048
139808
138564
137319
136086
134874
133687
132523
131377
130241
129110
127981
126848
125710
124560
123388
122184
120943
119673
118395
117128
115879
114653
113455
112284
111132
109986
108830
107651
106446
105213
103953
102663
101344
99994.2
98610.9
97194.4
95750.9
94292.6
92834.3
91390.1
89969.9
88579.5
87219
85885.1
84573.8
83281.9
82005.5
80740.1
79482.3
78229.5
76980.1
75732.7
74486.2
73240
71993.4
70747.2
69501.7
68256.5
67010.7
65763.9
64516.6
63269.9
62024.5
60780.7
59538.5
58298.5
57061.6
55827.8
54597
53369.5
52146.6
50928.3
49714.7
48506.5
47304.3
46108.5
44919
43736.1
42560
41391.5
40231.1
39079
37935.4
36800.3
35673.9
34556.8
33449.4
32352.5
31267.6
30195.4
29135.3
28085.7
27046.9
26017.8
24999
201870
201837
201779
201695
201586
201451
201289
201101
200885
200640
200368
200068
199742
199389
199012
198611
198189
197745
197281
196801
196304
195792
195266
194727
194175
193608
193025
192426
191808
191170
190513
189839
189151
188451
187745
187034
186321
185605
184887
184167
183444
182714
181971
181210
180428
179623
178799
177958
177100
176227
175346
174467
173596
172737
171886
171041
170192
169338
168477
167606
166725
165838
164944
164037
163111
162163
161191
160191
159164
158111
157040
155954
154858
153755
152650
151546
150446
149350
148253
147145
146019
144870
143689
142473
141231
139975
138713
137452
136203
134977
133778
132605
131451
130311
129175
128039
126899
125749
124588
123406
122195
120952
119684
118408
117144
115898
114677
113482
112312
111155
110001
108834
107646
106432
105191
103924
102629
101306
99954.8
98572.4
97160
95723.5
94274.7
92827.4
91393.9
89983
88599.6
87243.9
85913
84603.9
83313.9
82039.3
80775.8
79519.8
78268.9
77021
75775.3
74530.8
73285.7
72040.3
70795.2
69550.8
68306.5
67061.4
65814.8
64566.9
63319.2
62072.7
60827.6
59583.7
58341.8
57102.8
55866.8
54633.8
53404.5
52180.1
50960.5
49745.5
48535.8
47332.3
46135.1
44944.5
43760.7
42583.9
41414.9
40254.1
39101.7
37957.8
36822.3
35695.4
34577.4
33468.5
32369.4
31281.1
30204.5
29139.7
28086.1
27044.5
26014.1
24995.1
203146
203112
203053
202969
202860
202723
202558
202362
202135
201876
201586
201265
200916
200537
200130
199698
199244
198767
198272
197758
197229
196687
196131
195563
194982
194386
193774
193143
192491
191820
191128
190419
189695
188960
188216
187468
186719
185967
185214
184460
183704
182946
182179
181400
180607
179797
178975
178141
177295
176435
175565
174694
173827
172968
172114
171263
170409
169548
168679
167801
166913
166016
165109
164189
163252
162292
161309
160301
159269
158214
157144
156062
154972
153877
152782
151689
150600
149514
148425
147326
146208
145064
143885
142664
141410
140139
138860
137585
136323
135084
133875
132693
131536
130394
129258
128116
126964
125798
124618
123421
122200
120954
119688
118417
117155
115913
114695
113501
112327
111161
109993
108814
107614
106390
105141
103869
102570
101246
99894.5
98514.6
97107.8
95680.4
94243.6
92809.9
91389.9
89990.9
88617
87268.3
85942.6
84637.8
83351.4
82079.9
80819.3
79566.2
78317.5
77071.6
75827.6
74584.1
73340.3
72095.8
70851.2
69607.4
68364.4
67120
65873.7
64625.6
63377.4
62130.3
60883.6
59637.8
58393.6
57151.8
55912.8
54677
53445.2
52218.7
50997.2
49780.6
48569.2
47364.1
46165.6
44973.8
43789
42611.6
41442.2
40281.1
39128.7
37984.6
36849
35721.7
34603
33492.9
32392.1
31301.1
30220.6
29151.1
28092.9
27047
26013.3
24992.1
204630
204593
204530
204442
204326
204182
204007
203798
203556
203280
202970
202626
202247
201834
201388
200913
200413
199894
199357
198803
198235
197654
197060
196453
195832
195196
194542
193869
193177
192466
191736
190989
190229
189457
188676
187891
187105
186318
185529
184741
183953
183166
182374
181576
180770
179953
179129
178298
177460
176611
175751
174886
174022
173163
172308
171453
170594
169726
168848
167962
167067
166160
165241
164309
163359
162388
161395
160380
159345
158291
157224
156146
155062
153974
152888
151806
150727
149651
148570
147477
146366
145228
144052
142831
141573
140291
138999
137711
136438
135189
133971
132785
131627
130489
129356
128210
127043
125855
124651
123434
122202
120954
119691
118424
117166
115926
114708
113511
112327
111147
109963
108767
107553
106320
105065
103788
102489
101165
99814.6
98438.8
97039.7
95624.1
94202.2
92785
91380.9
89996
88633.8
87294.4
85976.3
84677.8
83396.5
82129.4
80872.6
79622.6
78376.6
77132.4
75889.2
74646.1
73402.3
72158
70913.7
69670.7
68428
67184.3
65938.8
64691.8
63444.6
62197.2
60949.7
59702.1
58455.5
57210.6
55968
54728.4
53493.2
52263.7
51039.7
49820.9
48607.6
47400.9
46200.9
45008.1
43822.6
42644.8
41475
40313.7
39161.1
38017
36881.3
35753.8
34634.5
33523.5
32421.1
31327.8
30244.1
29170.3
28107.3
27056.3
26017.8
24992.8
206246
206205
206133
206032
205903
205743
205551
205326
205064
204763
204421
204037
203612
203148
202648
202118
201564
200993
200407
199808
199194
198569
197932
197281
196616
195937
195242
194530
193800
193051
192286
191506
190712
189908
189095
188278
187461
186645
185828
185012
184197
183383
182569
181751
180930
180104
179274
178439
177600
176753
175898
175035
174170
173308
172448
171589
170724
169850
168966
168073
167171
166257
165331
164388
163427
162448
161448
160430
159393
158342
157278
156205
155126
154045
152967
151893
150820
149747
148670
147579
146469
145333
144162
142946
141691
140409
139112
137818
136539
135282
134059
132870
131713
130579
129450
128301
127120
125910
124682
123446
122204
120953
119694
118431
117177
115937
114715
113508
112311
111115
109913
108701
107475
106233
104973
103693
102392
101068
99720.7
98350.6
96961.5
95560.3
94155.9
92756.9
91370.1
90000.6
88651.7
87323.8
86015.4
84724.8
83449.7
82187.1
80933.8
79686.5
78442.5
77198.8
75955.2
74711.7
73467.6
72221.9
70976.7
69733.8
68492.1
67249.7
66005.9
64761
63515.9
62270.8
61023.9
59775.5
58526.7
57279.2
56032.7
54788.6
53549.1
52315.8
51088.4
49866.7
48651.4
47443.1
46242.2
45048.6
43862.6
42684.5
41514.4
40352.9
39200
38055.7
36919.9
35792.2
34672.4
33560.5
32456.7
31361.4
30274.7
29197.2
28129.4
27073.2
26029.3
24999.1
207845
207795
207708
207585
207429
207243
207023
206767
206471
206130
205742
205304
204821
204295
203735
203148
202543
201925
201295
200655
200001
199336
198660
197971
197269
196553
195823
195078
194318
193541
192748
191942
191124
190295
189459
188618
187779
186941
186103
185265
184430
183596
182762
181926
181090
180252
179412
178569
177722
176870
176011
175147
174278
173409
172542
171673
170801
169920
169030
168132
167225
166308
165375
164427
163460
162476
161474
160456
159422
158374
157315
156246
155171
154095
153020
151947
150874
149799
148719
147626
146514
145379
144210
143003
141759
140483
139190
137898
136618
135358
134130
132938
131779
130644
129513
128360
127170
125944
124701
123453
122205
120953
119696
118437
117184
115942
114713
113496
112285
111075
109859
108634
107397
106146
104881
103597
102294
100969
99624.5
98261.3
96884
95498.4
94111.6
92730.6
91360.9
90007.4
88672.8
87357.6
86060
84777.7
83508.6
82249.7
80998.7
79752.8
78508.8
77264.4
76019.1
74773.6
73527.3
72280.1
71034.1
69791.3
68551
67311.2
66070
64828.9
63587.6
62346.1
61102.3
59854.8
58605.6
57355.8
56105.6
54856.9
53612.6
52374.6
51143.2
49918.4
48701.1
47491.8
46290.5
45096.8
43910.8
42732.4
41562.2
40400.3
39246.7
38101.8
36965.6
35837.5
34717.2
33604.6
32499.5
31402.3
30312.9
29232
28159.9
27098.6
26049.2
25013.1
209432
209368
209255
209095
208897
208663
208394
208088
207741
207347
206904
206409
205865
205279
204661
204026
203381
202725
202057
201380
200692
199992
199280
198557
197823
197076
196317
195545
194761
193962
193149
192324
191487
190641
189786
188929
188071
187215
186359
185504
184652
183801
182950
182099
181248
180397
179545
178691
177833
176971
176106
175235
174360
173483
172605
171725
170842
169953
169058
168156
167245
166323
165387
164435
163466
162482
161482
160467
159437
158394
157338
156273
155200
154124
153049
151974
150896
149815
148729
147630
146515
145379
144214
143015
141782
140517
139235
137950
136674
135414
134182
132986
131821
130679
129542
128383
127186
125953
124703
123451
122201
120951
119696
118441
117188
115942
114706
113479
112256
111034
109806
108570
107323
106065
104792
103504
102198
100873
99532.1
98177.4
96812.4
95442
94071.9
92708
91355.5
90018.5
88699.2
87397.2
86110.2
84835.4
83570.6
82313.9
81063.4
79816.9
78571.4
77324.4
76075.7
74827.1
73578.4
72329.5
71082.9
69840.9
68603.4
67367.4
66130.9
64894.6
63658.5
62422.2
61182.7
59938.3
58690.5
57439.3
56186
54932.9
53683.7
52440.6
51204.9
49977.2
48758.5
47548.9
46348
45154.9
43969.1
42790.8
41620.2
40457.5
39302.9
38156.8
37019.6
35890.7
34769.6
33656
32549.6
31450.5
30358.7
29274.7
28198.8
27132.9
26078.2
25036
211025
210940
210789
210579
210318
210015
209674
209297
208882
208427
207926
207376
206779
206141
205478
204805
204127
203439
202739
202028
201306
200573
199830
199077
198313
197539
196756
195963
195158
194341
193511
192669
191817
190956
190088
189216
188343
187471
186600
185731
184863
183998
183133
182267
181402
180538
179673
178806
177937
177065
176189
175309
174426
173540
172650
171758
170863
169965
169064
168158
167242
166316
165377
164423
163454
162472
161475
160464
159439
158400
157348
156285
155213
154137
153059
151979
150896
149809
148714
147609
146489
145350
144187
142995
141771
140519
139250
137975
136706
135450
134218
133017
131845
130693
129545