/*--------------------------------*- C++ -*----------------------------------*\
  =========                 |
  \\      /  F ield         | OpenFOAM: The Open Source CFD Toolbox
   \\    /   O peration     | Website:  https://openfoam.org
    \\  /    A nd           | Version:  9
     \\/     M anipulation  |
\*---------------------------------------------------------------------------*/
FoamFile
{
    format      ascii;
    class       volSymmTensorField;
    location    "0.088";
    object      UPrime2Mean;
}
// * * * * * * * * * * * * * * * * * * * * * * * * * * * * * * * * * * * * * //

dimensions      [0 2 -2 0 0 0 0];

internalField   nonuniform List<symmTensor> 
12225
(
(-48.285 -0.212321 0 0.00127613 0 0)
(-45.4664 -0.281393 0 -0.000689367 0 0)
(-42.6771 -0.26225 0 -0.000878939 0 0)
(-39.9265 -0.248277 0 -0.000952417 0 0)
(-37.2995 -0.23833 0 -0.00101815 0 0)
(-34.8486 -0.227238 0 -0.00103687 0 0)
(-32.5683 -0.215298 0 -0.00101816 0 0)
(-30.4523 -0.20472 0 -0.000998828 0 0)
(-28.4575 -0.194943 0 -0.000960742 0 0)
(-26.5986 -0.187761 0 -0.000950273 0 0)
(-24.8016 -0.180633 0 -0.000871447 0 0)
(-23.1398 -0.178054 0 -0.00088661 0 0)
(-21.4375 -0.175687 0 -0.000623075 0 0)
(-19.9102 -0.181287 0 -0.000738287 0 0)
(-18.1163 -0.192785 0 0.000481716 0 0)
(-16.6195 -0.212697 0 -0.000203729 0 0)
(-14.3441 -0.284517 0 0.00730362 0 0)
(-12.5255 -0.339646 0 0.00339765 0 0)
(-50.2819 -0.263518 0 0.00148383 0 0)
(-50.8922 -0.385759 0 -0.00165644 0 0)
(-51.2827 -0.38109 0 -0.00198442 0 0)
(-51.4239 -0.388788 0 -0.00225907 0 0)
(-51.3919 -0.406022 0 -0.00261511 0 0)
(-51.2528 -0.419838 0 -0.00289166 0 0)
(-51.024 -0.429294 0 -0.00308823 0 0)
(-50.7277 -0.438309 0 -0.00323127 0 0)
(-50.3507 -0.447718 0 -0.00336876 0 0)
(-49.9245 -0.459669 0 -0.00342327 0 0)
(-49.4096 -0.472884 0 -0.00350253 0 0)
(-48.8641 -0.490923 0 -0.00328213 0 0)
(-48.1949 -0.513934 0 -0.00315582 0 0)
(-47.5169 -0.546504 0 -0.00197998 0 0)
(-46.6336 -0.597146 0 -0.000916735 0 0)
(-45.7624 -0.666214 0 0.00396595 0 0)
(-44.5358 -0.800098 0 0.011269 0 0)
(-43.299 -0.980649 0 0.0375305 0 0)
(-50.0462 -0.139527 0 0.003076 0 0)
(-50.3758 -0.261288 0 0.000363923 0 0)
(-50.6767 -0.27212 0 -0.000250437 0 0)
(-50.8645 -0.283793 0 -0.000541253 0 0)
(-50.9765 -0.308489 0 -0.000907994 0 0)
(-51.0628 -0.333405 0 -0.00125693 0 0)
(-51.1388 -0.353618 0 -0.00151399 0 0)
(-51.2055 -0.373056 0 -0.00171032 0 0)
(-51.2542 -0.392318 0 -0.00180534 0 0)
(-51.2838 -0.415772 0 -0.00185625 0 0)
(-51.286 -0.440331 0 -0.0016451 0 0)
(-51.2624 -0.473402 0 -0.0013225 0 0)
(-51.2064 -0.510258 0 -0.00015915 0 0)
(-51.1182 -0.56451 0 0.00143717 0 0)
(-50.9985 -0.63278 0 0.0058971 0 0)
(-50.8389 -0.734891 0 0.013146 0 0)
(-50.6787 -0.88291 0 0.0315327 0 0)
(-50.5024 -1.08397 0 0.0683856 0 0)
(-49.8189 -0.156097 0 0.00320634 0 0)
(-50.0574 -0.293057 0 0.000182055 0 0)
(-50.3001 -0.323159 0 -0.000830525 0 0)
(-50.4574 -0.334652 0 -0.00118491 0 0)
(-50.5415 -0.355325 0 -0.0015326 0 0)
(-50.5963 -0.377832 0 -0.00184602 0 0)
(-50.6436 -0.396211 0 -0.00205009 0 0)
(-50.6848 -0.412629 0 -0.00212458 0 0)
(-50.7164 -0.430153 0 -0.00209335 0 0)
(-50.7365 -0.451374 0 -0.00189593 0 0)
(-50.7449 -0.477178 0 -0.00149623 0 0)
(-50.7409 -0.509456 0 -0.000641552 0 0)
(-50.7253 -0.550802 0 0.000925654 0 0)
(-50.6969 -0.604889 0 0.00393768 0 0)
(-50.6597 -0.678455 0 0.00964455 0 0)
(-50.6243 -0.77832 0 0.0206495 0 0)
(-50.6069 -0.913005 0 0.0420851 0 0)
(-50.6496 -1.07589 0 0.0822518 0 0)
(-50.026 -0.093707 0 0.00382927 0 0)
(-50.2283 -0.219836 0 0.00141186 0 0)
(-50.4405 -0.261363 0 0.000289971 0 0)
(-50.5916 -0.276096 0 -8.13745e-05 0 0)
(-50.6774 -0.297058 0 -0.00034102 0 0)
(-50.7318 -0.323248 0 -0.000579339 0 0)
(-50.7785 -0.347619 0 -0.000724419 0 0)
(-50.8209 -0.370083 0 -0.000733971 0 0)
(-50.8532 -0.392508 0 -0.000553551 0 0)
(-50.8711 -0.417831 0 -0.000129055 0 0)
(-50.8727 -0.44705 0 0.000703522 0 0)
(-50.8601 -0.483027 0 0.00215628 0 0)
(-50.834 -0.528057 0 0.00470931 0 0)
(-50.7999 -0.586094 0 0.00916764 0 0)
(-50.7599 -0.661508 0 0.0169921 0 0)
(-50.7296 -0.75858 0 0.031079 0 0)
(-50.715 -0.877693 0 0.0553496 0 0)
(-50.7452 -1.01146 0 0.0974403 0 0)
(-49.8454 -0.091312 0 0.00440807 0 0)
(-49.9917 -0.218646 0 0.00173391 0 0)
(-50.1752 -0.274294 0 0.000279027 0 0)
(-50.3258 -0.297108 0 -0.000299977 0 0)
(-50.4203 -0.318207 0 -0.000622463 0 0)
(-50.479 -0.342564 0 -0.000824573 0 0)
(-50.5252 -0.365966 0 -0.000878247 0 0)
(-50.567 -0.388041 0 -0.000732119 0 0)
(-50.6025 -0.411251 0 -0.000348224 0 0)
(-50.628 -0.438142 0 0.000361485 0 0)
(-50.6414 -0.469864 0 0.00158734 0 0)
(-50.6434 -0.508004 0 0.00366153 0 0)
(-50.6356 -0.554297 0 0.00714909 0 0)
(-50.6222 -0.612123 0 0.0130172 0 0)
(-50.6081 -0.684207 0 0.0227867 0 0)
(-50.6025 -0.773248 0 0.0392264 0 0)
(-50.6131 -0.876621 0 0.0657498 0 0)
(-50.6522 -0.990127 0 0.1083 0 0)
(-50.2344 -0.0633598 0 0.00497886 0 0)
(-50.3364 -0.170693 0 0.0027326 0 0)
(-50.4758 -0.231959 0 0.00134808 0 0)
(-50.604 -0.261662 0 0.000772626 0 0)
(-50.6948 -0.284536 0 0.000556132 0 0)
(-50.7539 -0.310434 0 0.000491065 0 0)
(-50.7965 -0.337527 0 0.000571369 0 0)
(-50.8316 -0.36353 0 0.000891195 0 0)
(-50.861 -0.389349 0 0.00155561 0 0)
(-50.8835 -0.417699 0 0.00270567 0 0)
(-50.8987 -0.450942 0 0.00455616 0 0)
(-50.9073 -0.491196 0 0.00750358 0 0)
(-50.911 -0.540053 0 0.0121631 0 0)
(-50.9125 -0.599795 0 0.0196152 0 0)
(-50.9151 -0.671375 0 0.0313495 0 0)
(-50.925 -0.756144 0 0.0499481 0 0)
(-50.9478 -0.850575 0 0.0782448 0 0)
(-50.9919 -0.952432 0 0.120679 0 0)
(-49.9458 -0.0685977 0 0.00452681 0 0)
(-50.0386 -0.168519 0 0.00239621 0 0)
(-50.1629 -0.231392 0 0.00102571 0 0)
(-50.2854 -0.265971 0 0.000384899 0 0)
(-50.3821 -0.29002 0 0.000165029 0 0)
(-50.4545 -0.315092 0 0.00018401 0 0)
(-50.5151 -0.342418 0 0.000412194 0 0)
(-50.571 -0.370302 0 0.000918273 0 0)
(-50.6208 -0.398544 0 0.00182439 0 0)
(-50.6612 -0.428961 0 0.00331688 0 0)
(-50.6898 -0.46339 0 0.00567715 0 0)
(-50.7098 -0.503795 0 0.0093745 0 0)
(-50.723 -0.551562 0 0.0150813 0 0)
(-50.737 -0.608624 0 0.0239075 0 0)
(-50.7518 -0.67538 0 0.0372696 0 0)
(-50.7786 -0.752729 0 0.0574348 0 0)
(-50.8118 -0.837187 0 0.0866634 0 0)
(-50.87 -0.927156 0 0.128284 0 0)
(-50.1432 -0.0375774 0 0.00524638 0 0)
(-50.2215 -0.130584 0 0.00332601 0 0)
(-50.3278 -0.193819 0 0.00196527 0 0)
(-50.4336 -0.232707 0 0.00135379 0 0)
(-50.5138 -0.258995 0 0.00122615 0 0)
(-50.568 -0.283908 0 0.0013907 0 0)
(-50.6076 -0.310954 0 0.001814 0 0)
(-50.6426 -0.339576 0 0.0025926 0 0)
(-50.6756 -0.369682 0 0.00387817 0 0)
(-50.7047 -0.402534 0 0.00588826 0 0)
(-50.7269 -0.439447 0 0.00893403 0 0)
(-50.7425 -0.48193 0 0.0135178 0 0)
(-50.7524 -0.530767 0 0.0203259 0 0)
(-50.7612 -0.587339 0 0.0304333 0 0)
(-50.7712 -0.651214 0 0.0451389 0 0)
(-50.7901 -0.723011 0 0.0663818 0 0)
(-50.8179 -0.799124 0 0.0959188 0 0)
(-50.8641 -0.878712 0 0.136281 0 0)
(-50.0423 -0.0473155 0 0.00573586 0 0)
(-50.112 -0.125768 0 0.0036956 0 0)
(-50.2 -0.191664 0 0.0021337 0 0)
(-50.2947 -0.237482 0 0.00146079 0 0)
(-50.3823 -0.269352 0 0.00131078 0 0)
(-50.4557 -0.296144 0 0.00151372 0 0)
(-50.5138 -0.323102 0 0.00204925 0 0)
(-50.5606 -0.351513 0 0.00302719 0 0)
(-50.5997 -0.381756 0 0.00461481 0 0)
(-50.6329 -0.414761 0 0.00705434 0 0)
(-50.6598 -0.451555 0 0.0106783 0 0)
(-50.682 -0.493372 0 0.0160048 0 0)
(-50.701 -0.540716 0 0.0237002 0 0)
(-50.7213 -0.594279 0 0.0347708 0 0)
(-50.7444 -0.653283 0 0.0503298 0 0)
(-50.7765 -0.717735 0 0.0720288 0 0)
(-50.8162 -0.784484 0 0.101133 0 0)
(-50.8707 -0.853079 0 0.139616 0 0)
(-50.1034 -0.0176916 0 0.00652081 0 0)
(-50.1739 -0.103133 0 0.00500095 0 0)
(-50.2524 -0.158226 0 0.00372512 0 0)
(-50.3407 -0.19666 0 0.00312627 0 0)
(-50.4246 -0.22703 0 0.00303417 0 0)
(-50.493 -0.255118 0 0.00339266 0 0)
(-50.5444 -0.284205 0 0.00418022 0 0)
(-50.585 -0.315679 0 0.0054617 0 0)
(-50.6215 -0.349328 0 0.00741002 0 0)
(-50.6565 -0.385185 0 0.0103165 0 0)
(-50.6894 -0.423759 0 0.0145473 0 0)
(-50.7203 -0.466215 0 0.0206166 0 0)
(-50.7489 -0.513024 0 0.0291419 0 0)
(-50.7787 -0.564832 0 0.0410205 0 0)
(-50.8091 -0.620652 0 0.0571585 0 0)
(-50.8465 -0.680446 0 0.0789148 0 0)
(-50.887 -0.741306 0 0.107135 0 0)
(-50.9404 -0.803154 0 0.143338 0 0)
(-49.8878 -0.012475 0 0.00644397 0 0)
(-49.9217 -0.100609 0 0.00429632 0 0)
(-49.9789 -0.155953 0 0.00283656 0 0)
(-50.0504 -0.19843 0 0.00229792 0 0)
(-50.1207 -0.233882 0 0.00235423 0 0)
(-50.1837 -0.265072 0 0.00288346 0 0)
(-50.2405 -0.294502 0 0.00388789 0 0)
(-50.2954 -0.324263 0 0.00547461 0 0)
(-50.3496 -0.355549 0 0.00783078 0 0)
(-50.4022 -0.389195 0 0.0112368 0 0)
(-50.4508 -0.425877 0 0.0160396 0 0)
(-50.496 -0.466532 0 0.0227337 0 0)
(-50.5386 -0.511105 0 0.0318829 0 0)
(-50.5837 -0.559898 0 0.0442955 0 0)
(-50.6313 -0.611496 0 0.0607014 0 0)
(-50.6876 -0.665997 0 0.0821952 0 0)
(-50.7461 -0.720281 0 0.109309 0 0)
(-50.8171 -0.775257 0 0.143258 0 0)
(-49.912 -0.0137909 0 0.00727026 0 0)
(-49.9086 -0.0745199 0 0.00608046 0 0)
(-49.939 -0.126723 0 0.00447103 0 0)
(-49.9873 -0.168794 0 0.00393512 0 0)
(-50.042 -0.201892 0 0.00412454 0 0)
(-50.1003 -0.229807 0 0.00482786 0 0)
(-50.1575 -0.25711 0 0.00602423 0 0)
(-50.2099 -0.286749 0 0.00784932 0 0)
(-50.2563 -0.319653 0 0.0104962 0 0)
(-50.2981 -0.355795 0 0.0142367 0 0)
(-50.3374 -0.394521 0 0.0194186 0 0)
(-50.3784 -0.435755 0 0.0265333 0 0)
(-50.4222 -0.478919 0 0.0360897 0 0)
(-50.4729 -0.524463 0 0.0487831 0 0)
(-50.5273 -0.571361 0 0.0651513 0 0)
(-50.5905 -0.620301 0 0.0861061 0 0)
(-50.6544 -0.668608 0 0.111854 0 0)
(-50.7296 -0.717748 0 0.143418 0 0)
(-49.8432 -0.0355272 0 0.00779854 0 0)
(-49.8753 -0.0861273 0 0.0068168 0 0)
(-49.9137 -0.139812 0 0.00518535 0 0)
(-49.9662 -0.182884 0 0.00443164 0 0)
(-50.0281 -0.214718 0 0.0045339 0 0)
(-50.0919 -0.241266 0 0.00533087 0 0)
(-50.1505 -0.268307 0 0.00672702 0 0)
(-50.2016 -0.29869 0 0.00878599 0 0)
(-50.2467 -0.331715 0 0.0116986 0 0)
(-50.2894 -0.366039 0 0.0157659 0 0)
(-50.3323 -0.400809 0 0.0213109 0 0)
(-50.377 -0.436752 0 0.0287372 0 0)
(-50.4246 -0.474212 0 0.038442 0 0)
(-50.4753 -0.514288 0 0.051001 0 0)
(-50.5296 -0.555875 0 0.0667823 0 0)
(-50.5877 -0.599531 0 0.0865016 0 0)
(-50.6496 -0.642106 0 0.110161 0 0)
(-50.7153 -0.684902 0 0.138599 0 0)
(-49.9456 0.00847745 0 0.0092245 0 0)
(-49.987 -0.0459032 0 0.00877291 0 0)
(-50.0213 -0.0933269 0 0.00711035 0 0)
(-50.0611 -0.131096 0 0.0064704 0 0)
(-50.1106 -0.160941 0 0.00677576 0 0)
(-50.166 -0.187441 0 0.00779218 0 0)
(-50.2211 -0.214906 0 0.00942704 0 0)
(-50.2739 -0.245574 0 0.0117356 0 0)
(-50.3256 -0.27924 0 0.0148942 0 0)
(-50.378 -0.314725 0 0.0192095 0 0)
(-50.4323 -0.350782 0 0.0250001 0 0)
(-50.4885 -0.387233 0 0.0326287 0 0)
(-50.5468 -0.423871 0 0.0423666 0 0)
(-50.6072 -0.461354 0 0.0546511 0 0)
(-50.6706 -0.498943 0 0.0696264 0 0)
(-50.7372 -0.537389 0 0.0878665 0 0)
(-50.8078 -0.574314 0 0.109118 0 0)
(-50.8809 -0.611424 0 0.134109 0 0)
(-50.0714 -0.0107691 0 0.0105367 0 0)
(-50.0941 -0.0672478 0 0.00896902 0 0)
(-50.1234 -0.109846 0 0.00672141 0 0)
(-50.1628 -0.143547 0 0.00600967 0 0)
(-50.209 -0.172036 0 0.00647479 0 0)
(-50.2583 -0.198894 0 0.00768209 0 0)
(-50.3074 -0.226533 0 0.00944592 0 0)
(-50.3555 -0.255466 0 0.0118376 0 0)
(-50.4039 -0.28499 0 0.0150765 0 0)
(-50.4553 -0.314603 0 0.019437 0 0)
(-50.511 -0.344069 0 0.0251429 0 0)
(-50.5713 -0.373897 0 0.0324507 0 0)
(-50.6348 -0.404121 0 0.0415373 0 0)
(-50.7014 -0.435422 0 0.0527214 0 0)
(-50.7695 -0.466795 0 0.0660333 0 0)
(-50.8398 -0.498841 0 0.0818882 0 0)
(-50.9104 -0.529138 0 0.0999587 0 0)
(-50.9839 -0.559491 0 0.120812 0 0)
(-49.9411 0.0203289 0 0.0114637 0 0)
(-49.9313 -0.0261132 0 0.0101153 0 0)
(-49.9411 -0.0642661 0 0.00707309 0 0)
(-49.9724 -0.0940521 0 0.00625132 0 0)
(-50.0169 -0.118474 0 0.00688427 0 0)
(-50.0691 -0.141231 0 0.00830977 0 0)
(-50.1247 -0.164848 0 0.0103239 0 0)
(-50.1821 -0.190547 0 0.0129603 0 0)
(-50.2409 -0.217862 0 0.0163795 0 0)
(-50.3022 -0.245689 0 0.0208194 0 0)
(-50.3654 -0.27302 0 0.0264512 0 0)
(-50.4309 -0.300107 0 0.0334471 0 0)
(-50.4975 -0.327149 0 0.04187 0 0)
(-50.5668 -0.355069 0 0.0519162 0 0)
(-50.6364 -0.383047 0 0.0634935 0 0)
(-50.7102 -0.411638 0 0.0769084 0 0)
(-50.7821 -0.438415 0 0.0917694 0 0)
(-50.8609 -0.464941 0 0.1086 0 0)
(-49.7943 -0.0390875 0 0.0117832 0 0)
(-49.7743 -0.0506524 0 0.0113896 0 0)
(-49.7732 -0.0718338 0 0.00915951 0 0)
(-49.8083 -0.0967779 0 0.00833381 0 0)
(-49.8661 -0.120354 0 0.00853273 0 0)
(-49.9279 -0.141273 0 0.00950889 0 0)
(-49.9865 -0.161041 0 0.0111047 0 0)
(-50.0436 -0.181454 0 0.0133028 0 0)
(-50.1019 -0.202916 0 0.0161955 0 0)
(-50.1623 -0.224924 0 0.0199326 0 0)
(-50.2246 -0.246554 0 0.0246175 0 0)
(-50.2888 -0.267791 0 0.0303449 0 0)
(-50.3546 -0.288316 0 0.0371108 0 0)
(-50.4222 -0.308765 0 0.0450214 0 0)
(-50.4916 -0.328282 0 0.0539356 0 0)
(-50.5636 -0.347809 0 0.0640712 0 0)
(-50.637 -0.365429 0 0.0750712 0 0)
(-50.7127 -0.383229 0 0.0872659 0 0)
(-49.8987 -0.00946235 0 0.0107921 0 0)
(-49.9256 -0.00557084 0 0.0101809 0 0)
(-49.9613 -0.0130302 0 0.00779867 0 0)
(-50.0111 -0.0249775 0 0.00702277 0 0)
(-50.0715 -0.0377083 0 0.00740844 0 0)
(-50.1378 -0.0516992 0 0.00852632 0 0)
(-50.2062 -0.0681422 0 0.0101436 0 0)
(-50.2756 -0.0866004 0 0.0122087 0 0)
(-50.3461 -0.105525 0 0.0147897 0 0)
(-50.418 -0.123942 0 0.0179798 0 0)
(-50.4918 -0.141464 0 0.0218175 0 0)
(-50.567 -0.158433 0 0.0263414 0 0)
(-50.6435 -0.174748 0 0.0315256 0 0)
(-50.7202 -0.190822 0 0.0374242 0 0)
(-50.7978 -0.205953 0 0.0439199 0 0)
(-50.8745 -0.22083 0 0.0511521 0 0)
(-50.9526 -0.234045 0 0.0588568 0 0)
(-51.0282 -0.247349 0 0.0672764 0 0)
(-50.1227 -0.0018584 0 0.0129857 0 0)
(-50.1595 -0.0129295 0 0.01156 0 0)
(-50.1981 -0.0175807 0 0.00865767 0 0)
(-50.2426 -0.0201609 0 0.00758973 0 0)
(-50.2966 -0.0252955 0 0.00763446 0 0)
(-50.3601 -0.0343892 0 0.00832614 0 0)
(-50.4308 -0.0465759 0 0.00943541 0 0)
(-50.5054 -0.060332 0 0.0108735 0 0)
(-50.5813 -0.0741829 0 0.0126553 0 0)
(-50.6578 -0.0873961 0 0.0148407 0 0)
(-50.7349 -0.0997678 0 0.0174573 0 0)
(-50.8122 -0.111631 0 0.0205235 0 0)
(-50.8897 -0.122988 0 0.0240139 0 0)
(-50.9673 -0.134195 0 0.0279514 0 0)
(-51.0451 -0.144735 0 0.0322394 0 0)
(-51.1226 -0.155064 0 0.0369745 0 0)
(-51.2002 -0.164053 0 0.0419815 0 0)
(-51.2766 -0.172989 0 0.0473673 0 0)
(-50.0528 0.0194785 0 0.0111935 0 0)
(-50.0672 0.0249035 0 0.010764 0 0)
(-50.1043 0.0311689 0 0.00842249 0 0)
(-50.1655 0.0359513 0 0.00739386 0 0)
(-50.2374 0.0376466 0 0.00729618 0 0)
(-50.3112 0.0357973 0 0.00774712 0 0)
(-50.3861 0.030392 0 0.00854566 0 0)
(-50.4634 0.0218555 0 0.0095911 0 0)
(-50.5435 0.011419 0 0.0108687 0 0)
(-50.626 0.000291927 0 0.0124383 0 0)
(-50.7101 -0.0105579 0 0.0143414 0 0)
(-50.7951 -0.0208384 0 0.016584 0 0)
(-50.8803 -0.0302638 0 0.019127 0 0)
(-50.9662 -0.0391501 0 0.0219668 0 0)
(-51.0518 -0.0472163 0 0.0250171 0 0)
(-51.1379 -0.0550243 0 0.0283597 0 0)
(-51.2221 -0.0617108 0 0.0318678 0 0)
(-51.3065 -0.0683955 0 0.0355923 0 0)
(-49.8571 0.00161752 0 0.0116586 0 0)
(-49.8568 0.0302021 0 0.010011 0 0)
(-49.8843 0.042497 0 0.00741759 0 0)
(-49.9463 0.0467596 0 0.00637909 0 0)
(-50.0216 0.0473036 0 0.00607757 0 0)
(-50.0959 0.0459 0 0.00619837 0 0)
(-50.1677 0.0429522 0 0.00663815 0 0)
(-50.2407 0.0384551 0 0.00733248 0 0)
(-50.3177 0.0326162 0 0.00823802 0 0)
(-50.3995 0.026059 0 0.00934527 0 0)
(-50.4845 0.0196966 0 0.010661 0 0)
(-50.5705 0.0139226 0 0.0121932 0 0)
(-50.6558 0.00894068 0 0.0139264 0 0)
(-50.7401 0.004247 0 0.0158648 0 0)
(-50.8232 -0.000161436 0 0.017952 0 0)
(-50.9055 -0.00489781 0 0.0202438 0 0)
(-50.9864 -0.00927096 0 0.022651 0 0)
(-51.0666 -0.0140875 0 0.0251811 0 0)
(-49.8278 0.00106285 0 0.00940802 0 0)
(-49.8784 0.0457982 0 0.00837352 0 0)
(-49.9487 0.0760248 0 0.00623719 0 0)
(-50.0376 0.0909596 0 0.00535975 0 0)
(-50.133 0.0974499 0 0.0052508 0 0)
(-50.2231 0.100805 0 0.00546456 0 0)
(-50.3062 0.102931 0 0.00580067 0 0)
(-50.387 0.103762 0 0.00623064 0 0)
(-50.4702 0.10271 0 0.00680077 0 0)
(-50.5567 0.0996606 0 0.0075448 0 0)
(-50.6453 0.095262 0 0.00846012 0 0)
(-50.7329 0.0902365 0 0.00953342 0 0)
(-50.818 0.085252 0 0.0107405 0 0)
(-50.8997 0.0805105 0 0.0120801 0 0)
(-50.9793 0.0763464 0 0.0135063 0 0)
(-51.0566 0.0724229 0 0.0150668 0 0)
(-51.1341 0.0691772 0 0.0166994 0 0)
(-51.2098 0.0658498 0 0.0184117 0 0)
(-50.0778 0.0313512 0 0.00939876 0 0)
(-50.1482 0.0611222 0 0.00661033 0 0)
(-50.2445 0.0975312 0 0.00407992 0 0)
(-50.3425 0.115261 0 0.00322687 0 0)
(-50.4269 0.117863 0 0.00308646 0 0)
(-50.4995 0.115526 0 0.00317082 0 0)
(-50.5675 0.113915 0 0.0033548 0 0)
(-50.6372 0.113727 0 0.00362536 0 0)
(-50.711 0.113738 0 0.00399095 0 0)
(-50.789 0.11267 0 0.00447552 0 0)
(-50.8704 0.110171 0 0.00508344 0 0)
(-50.9541 0.106523 0 0.00580098 0 0)
(-51.0391 0.102535 0 0.00661133 0 0)
(-51.1246 0.0987785 0 0.00751208 0 0)
(-51.2098 0.095867 0 0.008474 0 0)
(-51.2941 0.0936032 0 0.00952358 0 0)
(-51.3766 0.0923282 0 0.0106169 0 0)
(-51.4577 0.0912034 0 0.0117587 0 0)
(-49.9381 0.0342102 0 0.00730306 0 0)
(-49.9789 0.1094 0 0.00517817 0 0)
(-50.0585 0.143665 0 0.00338835 0 0)
(-50.1567 0.154175 0 0.00269784 0 0)
(-50.2455 0.157233 0 0.00248481 0 0)
(-50.3232 0.160994 0 0.00248736 0 0)
(-50.3992 0.166357 0 0.00258206 0 0)
(-50.4783 0.17136 0 0.00272648 0 0)
(-50.559 0.174641 0 0.00293 0 0)
(-50.6382 0.176146 0 0.00321119 0 0)
(-50.7148 0.176446 0 0.00357703 0 0)
(-50.7896 0.176005 0 0.00402345 0 0)
(-50.8639 0.175198 0 0.00453888 0 0)
(-50.9384 0.174062 0 0.00511988 0 0)
(-51.0141 0.172804 0 0.0057405 0 0)
(-51.0899 0.171375 0 0.00642539 0 0)
(-51.1663 0.17018 0 0.00714545 0 0)
(-51.2414 0.168973 0 0.00788736 0 0)
(-50.2011 0.0242007 0 0.00705147 0 0)
(-50.3149 0.122172 0 0.0050396 0 0)
(-50.444 0.144731 0 0.00338392 0 0)
(-50.5631 0.14574 0 0.00269097 0 0)
(-50.6635 0.148011 0 0.00243009 0 0)
(-50.7505 0.153836 0 0.00233684 0 0)
(-50.8333 0.159865 0 0.00230126 0 0)
(-50.917 0.163969 0 0.00230856 0 0)
(-51.0015 0.165748 0 0.00237938 0 0)
(-51.0851 0.165809 0 0.00251889 0 0)
(-51.1671 0.165008 0 0.00271602 0 0)
(-51.2473 0.164074 0 0.00296005 0 0)
(-51.3266 0.16352 0 0.00324633 0 0)
(-51.4052 0.163514 0 0.00357321 0 0)
(-51.4843 0.164161 0 0.00392108 0 0)
(-51.5631 0.165171 0 0.00431147 0 0)
(-51.6429 0.166577 0 0.00472841 0 0)
(-51.7214 0.167869 0 0.00515429 0 0)
(-50.1651 0.0917402 0 0.00575735 0 0)
(-50.352 0.177474 0 0.00311243 0 0)
(-50.5147 0.208527 0 0.00171439 0 0)
(-50.6337 0.212463 0 0.00124094 0 0)
(-50.7226 0.21534 0 0.00102182 0 0)
(-50.8007 0.221858 0 0.00088244 0 0)
(-50.88 0.228305 0 0.000791021 0 0)
(-50.9632 0.232531 0 0.000748775 0 0)
(-51.0486 0.234784 0 0.000758895 0 0)
(-51.1345 0.235859 0 0.00081653 0 0)
(-51.2205 0.236374 0 0.000912257 0 0)
(-51.3067 0.236723 0 0.00104041 0 0)
(-51.3927 0.23715 0 0.00119813 0 0)
(-51.4776 0.237815 0 0.0013831 0 0)
(-51.5614 0.23882 0 0.0015856 0 0)
(-51.6434 0.240047 0 0.00182108 0 0)
(-51.7247 0.24153 0 0.00207586 0 0)
(-51.8044 0.242905 0 0.00234406 0 0)
(-50.2642 0.101566 0 0.00496682 0 0)
(-50.4468 0.148271 0 0.00250605 0 0)
(-50.6511 0.169284 0 0.00135131 0 0)
(-50.8074 0.17447 0 0.000932489 0 0)
(-50.9178 0.180478 0 0.000754374 0 0)
(-51.0136 0.188888 0 0.000647449 0 0)
(-51.1122 0.196617 0 0.000562126 0 0)
(-51.2141 0.20252 0 0.000497337 0 0)
(-51.3151 0.206942 0 0.0004592 0 0)
(-51.4133 0.210438 0 0.000448879 0 0)
(-51.5094 0.213209 0 0.000463183 0 0)
(-51.6042 0.215562 0 0.000497118 0 0)
(-51.6982 0.217606 0 0.000550141 0 0)
(-51.7902 0.219797 0 0.000620115 0 0)
(-51.8806 0.222201 0 0.000702908 0 0)
(-51.9673 0.225208 0 0.000804815 0 0)
(-52.0527 0.228617 0 0.000917912 0 0)
(-52.1333 0.23261 0 0.00103033 0 0)
(-50.1884 0.181724 0 0.00309595 0 0)
(-50.54 0.273399 0 0.000409468 0 0)
(-50.8563 0.266035 0 -0.000176386 0 0)
(-51.0724 0.263993 0 -0.000377775 0 0)
(-51.2108 0.271313 0 -0.000568671 0 0)
(-51.3069 0.278107 0 -0.000714697 0 0)
(-51.3771 0.282375 0 -0.000816023 0 0)
(-51.4254 0.28516 0 -0.000883657 0 0)
(-51.4531 0.287109 0 -0.000924579 0 0)
(-51.4643 0.288684 0 -0.000946778 0 0)
(-51.4617 0.290038 0 -0.000954222 0 0)
(-51.4493 0.291418 0 -0.000950239 0 0)
(-51.4256 0.292585 0 -0.000931909 0 0)
(-51.3938 0.29379 0 -0.000902499 0 0)
(-51.3494 0.294718 0 -0.000861064 0 0)
(-51.2994 0.295936 0 -0.000808926 0 0)
(-51.2349 0.297111 0 -0.00074672 0 0)
(-51.1709 0.299069 0 -0.000691479 0 0)
(-49.1508 0.132652 0 0.00240612 0 0)
(-47.6027 0.224376 0 0.00025372 0 0)
(-46.0341 0.213938 0 -2.693e-05 0 0)
(-44.4525 0.205232 0 -0.000122755 0 0)
(-42.9214 0.202416 0 -0.000217402 0 0)
(-41.4744 0.198599 0 -0.000269038 0 0)
(-40.116 0.193445 0 -0.000286843 0 0)
(-38.8394 0.188303 0 -0.000294958 0 0)
(-37.6354 0.183686 0 -0.000306063 0 0)
(-36.4981 0.179479 0 -0.00031942 0 0)
(-35.4221 0.175299 0 -0.000327195 0 0)
(-34.4068 0.170949 0 -0.000325187 0 0)
(-33.4464 0.1663 0 -0.000313879 0 0)
(-32.5434 0.16165 0 -0.000300162 0 0)
(-31.6869 0.15709 0 -0.000285735 0 0)
(-30.8849 0.15309 0 -0.000268505 0 0)
(-30.1155 0.149502 0 -0.000254102 0 0)
(-29.4011 0.146843 0 -0.000253757 0 0)
(-0.00774949 0.0220977 -1.0459e-22 -0.0504561 2.09696e-22 4.06426e-39)
(-0.0589557 0.0261928 2.86884e-22 0.00172975 -1.43538e-22 3.99904e-39)
(-0.0190444 -0.0483854 0 0.0445087 0 0)
(0.188411 -0.14026 0 0.0580435 0 0)
(0.514272 -0.179963 0 0.033656 0 0)
(0.841726 -0.157181 -5.57801e-22 0.00485419 -1.16422e-22 3.76143e-39)
(1.09569 -0.0927788 0 -0.0128967 0 0)
(1.25227 -0.026169 0 -0.0128016 0 0)
(1.35584 0.00707176 0 0.00697198 0 0)
(1.47375 -0.021482 0 0.0407021 0 0)
(1.61174 -0.0809366 3.41816e-22 0.0643689 1.87569e-22 3.46799e-39)
(1.72376 -0.128751 0 0.0716563 0 0)
(1.89913 -0.277279 0 0.0893919 0 0)
(2.3615 -0.340991 0 0.0822725 0 0)
(2.89738 -0.299276 0 0.0697173 0 0)
(3.41834 -0.262972 1.35545e-22 0.0663404 1.6875e-22 3.19447e-39)
(3.93442 -0.160933 0 0.0540206 0 0)
(4.3087 0.0328516 0 0.0471311 0 0)
(4.54935 0.161783 0 0.0588191 0 0)
(4.68436 0.196396 0 0.071691 0 0)
(4.81471 0.134323 0 0.0837838 0 0)
(5.05754 0.0574481 0 0.100308 0 0)
(5.41048 0.0436277 0 0.108881 0 0)
(5.7755 -0.000364511 -7.27821e-22 0.106901 3.81293e-23 2.8068e-39)
(6.2505 -0.0976726 8.29945e-22 0.124039 -7.16005e-24 2.76158e-39)
(6.77981 -0.127286 -9.1161e-22 0.137066 -3.99556e-23 2.71694e-39)
(7.33579 -0.129637 -9.79727e-22 0.165261 -9.54e-23 2.67283e-39)
(7.9365 -0.13557 0 0.19264 0 0)
(8.54218 -0.12947 0 0.171075 0 0)
(9.13038 -0.172271 1.18173e-21 0.186369 8.36821e-23 2.54035e-39)
(9.72228 -0.222834 1.31139e-21 0.184643 7.92798e-23 2.49576e-39)
(10.3361 -0.25309 0 0.174848 0 0)
(10.9891 -0.269575 0 0.168235 0 0)
(11.6355 -0.267234 1.92008e-21 0.17431 4.55835e-23 2.36531e-39)
(12.2375 -0.26346 0 0.192676 0 0)
(12.8191 -0.267605 0 0.225892 0 0)
(13.4436 -0.312977 -2.55333e-21 0.279988 -5.47812e-23 2.24038e-39)
(14.1779 -0.392493 0 0.308718 0 0)
(15.0103 -0.465847 -2.9914e-21 0.294338 -7.8825e-23 2.16084e-39)
(15.7535 -0.427389 -6.37564e-21 0.24298 -1.2102e-22 8.48726e-39)
(16.1264 -0.248199 0 0.205318 0 0)
(16.0536 -0.0327717 0 0.204007 0 0)
(15.4676 0.0881286 0 0.234409 0 0)
(14.8373 -0.0231645 0 0.256913 0 0)
(14.4413 -0.181579 0 0.317398 0 0)
(14.4348 -0.54376 -7.85651e-21 0.299902 6.45709e-22 7.60137e-39)
(14.9391 -1.00544 -8.2461e-21 0.295233 8.74716e-22 7.45903e-39)
(15.4613 -1.08189 -8.57786e-21 0.351671 8.96423e-22 7.31901e-39)
(16.0976 -0.616267 0 0.219525 0 0)
(16.3982 -0.443968 9.69657e-21 0.279636 -6.14829e-22 7.0451e-39)
(17.0932 -0.44768 0 0.222416 0 0)
(17.9427 -0.427282 -1.12363e-20 0.213401 5.369e-22 6.78309e-39)
(18.9176 -0.394004 -1.23212e-20 0.198564 5.21305e-22 6.65675e-39)
(19.9116 -0.41087 0 0.177063 0 0)
(21.0299 -0.442375 0 0.156273 0 0)
(22.0462 -0.607504 0 0.16264 0 0)
(23.1275 -0.536137 -1.78899e-20 0.163375 7.49815e-22 6.17663e-39)
(23.9971 -0.534602 0 0.236305 0 0)
(25.3298 -0.639056 0 0.191493 0 0)
(26.8354 -0.751262 0 0.166131 0 0)
(28.8991 -0.826538 0 0.139363 0 0)
(30.7468 -1.13268 0 0.154198 0 0)
(32.5787 -0.938781 0 0.11841 0 0)
(33.4983 -0.600772 0 0.232917 0 0)
(34.5154 -0.621467 0 0.227506 0 0)
(35.7079 -0.63004 2.78182e-20 0.228053 -2.92843e-22 5.18227e-39)
(36.9983 -0.647576 0 0.220507 0 0)
(38.3219 -0.625919 0 0.215091 0 0)
(39.5926 -0.575423 -2.93902e-20 0.210271 4.99137e-22 4.87448e-39)
(40.7154 -0.501058 -3.00791e-20 0.208265 4.45267e-22 4.7755e-39)
(41.655 -0.4342 0 0.210734 0 0)
(42.3863 -0.377454 3.14082e-20 0.218365 -4.20589e-22 4.58249e-39)
(42.949 -0.300037 -3.17602e-20 0.232649 3.21628e-22 4.48766e-39)
(43.286 -0.220035 0 0.239772 0 0)
(43.3537 -0.126379 3.09171e-20 0.220961 -2.72239e-23 4.29938e-39)
(42.9797 0.0129663 0 0.197737 0 0)
(42.0127 0.179026 0 0.179499 0 0)
(40.2904 0.385647 -2.66007e-20 0.167599 -3.0858e-22 4.03152e-39)
(37.5933 0.573939 0 0.168756 0 0)
(33.9734 0.743669 2.34862e-20 0.176635 2.24581e-22 3.86402e-39)
(29.5763 0.594889 0 0.161719 0 0)
(25.8539 0.317037 -2.05548e-20 0.132439 8.07515e-23 3.70394e-39)
(23.1809 0.303218 -1.96035e-20 0.128704 4.71591e-23 3.6256e-39)
(20.8566 0.151564 -1.88365e-20 0.133305 1.16693e-22 3.54862e-39)
(19.5483 -0.202308 -3.68836e-20 0.134345 6.71103e-22 1.38918e-38)
(18.2144 -0.341078 3.59352e-20 0.172235 -7.8003e-22 1.35932e-38)
(16.656 -0.272498 0 0.178021 0 0)
(13.8135 0.211488 0 0.229538 0 0)
(9.88488 0.958125 0 0.206596 0 0)
(5.9622 0.761551 2.54836e-20 0.240411 8.64702e-22 1.24273e-38)
(4.09391 0.281058 2.27325e-20 0.172096 2.26675e-22 1.21474e-38)
(3.57178 -0.0466682 -2.13527e-20 0.12923 2.93505e-22 1.18756e-38)
(4.00015 -0.255322 0 0.0944216 0 0)
(5.12297 -0.387539 2.21767e-20 0.0714494 -9.33016e-22 1.13548e-38)
(6.7847 -0.484142 2.37572e-20 0.0550756 -1.10648e-21 1.11048e-38)
(8.83844 -0.55531 2.56584e-20 0.0436186 -1.21187e-21 1.08605e-38)
(11.1242 -0.589328 0 0.0351008 0 0)
(13.4399 -0.573664 0 0.0288662 0 0)
(15.5924 -0.495302 0 0.0244858 0 0)
(17.2683 -0.34684 3.09255e-20 0.022462 -8.91881e-22 9.92971e-39)
(18.2863 -0.143 0 0.0243938 0 0)
(18.3186 0.106221 0 0.033902 0 0)
(17.447 0.302252 -3.12031e-20 0.0503494 3.08549e-22 9.27352e-39)
(15.6755 0.359673 0 0.0644337 0 0)
(13.9945 0.30185 0 0.0688471 0 0)
(12.8776 -0.145745 -2.97415e-20 0.0522512 4.14368e-22 8.64807e-39)
(11.9648 0.269363 0 0.0840876 0 0)
(9.586 0.305432 0 0.259915 0 0)
(9.70212 -0.158977 2.6821e-20 0.177859 -4.13727e-22 8.04207e-39)
(11.2594 -0.408026 2.76861e-20 0.125711 -7.64844e-22 7.84998e-39)
(13.6638 -0.549633 0 0.0875786 0 0)
(16.457 -0.600259 -3.28975e-20 0.061305 1.03975e-21 7.48501e-39)
(19.4413 -0.601303 0 0.0427409 0 0)
(22.339 -0.560113 3.94483e-20 0.0288658 -9.17045e-22 7.13828e-39)
(25.0474 -0.495943 0 0.0186766 0 0)
(27.3905 -0.40743 4.41476e-20 0.0109931 -5.98704e-22 6.79893e-39)
(29.3064 -0.306088 4.51239e-20 0.00553081 -4.07425e-22 6.6307e-39)
(30.7056 -0.196191 0 0.00179699 0 0)
(31.5647 -0.0848387 0 -0.000456926 0 0)
(31.8482 0.0263174 0 -0.00159955 0 0)
(31.567 0.133122 0 -0.00184483 0 0)
(30.7297 0.232082 0 -0.00137581 0 0)
(29.3888 0.318089 0 -0.000299715 0 0)
(27.6086 0.387558 0 0.00107752 0 0)
(25.4804 0.438402 1.66212e-20 0.00256344 5.13081e-22 5.33763e-39)
(23.0969 0.47079 -1.12481e-20 0.00399508 -4.86193e-22 5.18879e-39)
(20.549 0.486419 0 0.00524447 0 0)
(17.9135 0.488347 0 0.00628087 0 0)
(15.2561 0.479417 0 0.00710022 0 0)
(12.632 0.461371 0 0.0076933 0 0)
(10.0892 0.435461 1.50717e-20 0.00803256 -4.11346e-22 1.80411e-38)
(7.66971 0.402586 0 0.00809602 0 0)
(5.40981 0.364154 -2.16935e-20 0.00787925 2.25833e-22 1.7054e-38)
(3.33744 0.321951 2.35793e-20 0.00741343 -1.58162e-22 1.65766e-38)
(1.47378 0.278998 0 0.00681117 0 0)
(-0.17216 0.244835 0 0.00650911 0 0)
(-1.6173 0.208243 0 0.00599652 0 0)
(-2.88171 0.175156 -2.54315e-20 0.00556246 2.45127e-23 1.47449e-38)
(-3.97455 0.145338 -2.51473e-20 0.00521175 9.88979e-24 1.43099e-38)
(-4.90889 0.118359 0 0.00493861 0 0)
(-5.69644 0.0938188 -2.42489e-20 0.00473477 -7.86156e-24 1.34687e-38)
(-6.34693 0.0714094 -2.37166e-20 0.00459076 -1.6466e-23 1.30621e-38)
(-6.86903 0.0509032 2.31636e-20 0.00450036 2.563e-23 1.26647e-38)
(-7.27066 0.0321533 0 0.00446333 0 0)
(-7.55974 0.015054 0 0.00448592 0 0)
(-7.74356 -0.00049439 2.15443e-20 0.00457683 5.59399e-23 1.15253e-38)
(-7.82999 -0.0145478 0 0.00475498 0 0)
(-7.82455 -0.0270976 0 0.00504502 0 0)
(-7.7347 -0.0379816 0 0.00546384 0 0)
(-7.56742 -0.0470264 0 0.00602296 0 0)
(-7.32978 -0.0542455 -1.91716e-20 0.0067266 -1.37199e-22 9.78987e-39)
(-7.02733 -0.0595852 -1.86573e-20 0.00760114 -1.61472e-22 9.46575e-39)
(-6.66475 -0.0630613 0 0.00870487 0 0)
(-6.24507 -0.0651604 -1.74243e-20 0.010157 -2.45959e-22 8.83931e-39)
(-5.76634 -0.0658555 0 0.012218 0 0)
(-5.22472 -0.0630851 0 0.0151537 0 0)
(-4.62056 -0.0544198 -1.45926e-20 0.019007 -3.10729e-22 7.95369e-39)
(-3.95837 -0.0387257 0 0.0233445 0 0)
(-3.25178 -0.0138435 -1.20883e-20 0.0272956 -2.27853e-22 7.3985e-39)
(-2.55143 0.0189477 0 0.0291645 0 0)
(-1.93453 0.0480311 0 0.0271156 0 0)
(-1.47508 0.0550029 -8.89387e-21 0.0227267 2.00851e-23 6.61426e-39)
(-1.19668 0.0322175 0 0.019871 0 0)
(-0.986406 -0.0172697 -7.82435e-21 0.0195355 -1.53538e-22 6.12096e-39)
(-0.723941 -0.0454824 0 0.0186439 0 0)
(-0.418184 -0.0460761 0 0.0155746 0 0)
(-0.0825166 -0.0358244 0 0.0134562 0 0)
(0.266821 -0.0122399 5.32597e-21 0.0128497 6.16474e-23 5.20641e-39)
(0.558567 0.0107898 0 0.0135817 0 0)
(0.759067 0.0234574 -4.26557e-21 0.0142451 -5.06326e-24 4.78414e-39)
(0.880453 0.0249352 0 0.0138962 0 0)
(0.955009 0.0147911 0 0.0129949 0 0)
(1.02645 -0.000200523 0 0.0127987 0 0)
(1.1502 -0.0121154 0 0.0133139 0 0)
(1.31353 -0.00924126 0 0.0128166 0 0)
(1.4832 0.0046577 0 0.0120482 0 0)
(1.60731 0.0165858 0 0.0108515 0 0)
(1.71299 0.017587 1.9714e-21 0.00896604 4.64405e-23 1.32522e-38)
(1.69381 0.0240739 0 0.00711337 0 0)
(1.70863 0.0694316 0 0.0085301 0 0)
(0.0058229 -0.00523851 8.52929e-24 -0.17617 -1.6556e-21 3.65703e-38)
(0.0461873 -0.0762489 -1.06131e-22 0.10485 1.58883e-21 3.60457e-38)
(0.177169 -0.257025 0 0.438732 0 0)
(0.366062 -0.38073 8.9701e-23 0.522654 -5.77462e-22 1.55266e-38)
(0.539331 -0.335924 0 0.333094 0 0)
(0.65846 -0.195831 -9.15399e-23 0.155759 8.30417e-23 3.74891e-39)
(0.725962 -0.0801291 2.40083e-22 0.132846 -3.55024e-22 1.47485e-38)