/*--------------------------------*- C++ -*----------------------------------*\
  =========                 |
  \\      /  F ield         | OpenFOAM: The Open Source CFD Toolbox
   \\    /   O peration     | Website:  https://openfoam.org
    \\  /    A nd           | Version:  9
     \\/     M anipulation  |
\*---------------------------------------------------------------------------*/
FoamFile
{
    format      ascii;
    class       volScalarField;
    location    "0.11";
    object      p;
}
// * * * * * * * * * * * * * * * * * * * * * * * * * * * * * * * * * * * * * //

dimensions      [0 2 -2 0 0 0 0];

internalField   nonuniform List<scalar> 
12225
(
-1.22398
-3.50687
-4.66909
-4.97688
-5.14465
-5.30371
-5.42748
-5.5149
-5.58327
-5.64277
-5.6951
-5.73997
-5.77749
-5.80663
-5.82581
-5.82325
-5.80866
-5.67738
-4.6915
-5.3935
-5.48348
-5.34803
-5.30746
-5.37411
-5.45406
-5.51893
-5.57473
-5.62664
-5.67437
-5.71664
-5.75301
-5.78228
-5.80375
-5.80921
-5.81304
-5.78273
-4.89626
-4.7932
-4.94973
-5.07148
-5.17835
-5.30003
-5.40755
-5.48925
-5.55528
-5.61369
-5.66609
-5.71212
-5.75183
-5.78469
-5.811
-5.82704
-5.84881
-5.87434
-4.75899
-4.68075
-4.95657
-5.13493
-5.22889
-5.32542
-5.41978
-5.4964
-5.55987
-5.61671
-5.66833
-5.7143
-5.75464
-5.78938
-5.8195
-5.84497
-5.87908
-5.92911
-4.76599
-4.78314
-5.02298
-5.17252
-5.24808
-5.3322
-5.42108
-5.49626
-5.55915
-5.61558
-5.66719
-5.71371
-5.75535
-5.79262
-5.82708
-5.86062
-5.90319
-5.96276
-4.82772
-4.87008
-5.04763
-5.17801
-5.25554
-5.3375
-5.42311
-5.49712
-5.55972
-5.61601
-5.66776
-5.71498
-5.75803
-5.79779
-5.83611
-5.87562
-5.92343
-5.98596
-4.88752
-4.92695
-5.06312
-5.18499
-5.26694
-5.34611
-5.42713
-5.4992
-5.56133
-5.61742
-5.66929
-5.71717
-5.76158
-5.80358
-5.84508
-5.88871
-5.93941
-6.00141
-4.94075
-4.97556
-5.08564
-5.19794
-5.28008
-5.35547
-5.4318
-5.50175
-5.5633
-5.61917
-5.67113
-5.71965
-5.7653
-5.80921
-5.85316
-5.89939
-5.95119
-6.0109
-4.99065
-5.02229
-5.11287
-5.21337
-5.29305
-5.36505
-5.43723
-5.50492
-5.56568
-5.62124
-5.67323
-5.72226
-5.76894
-5.81434
-5.85996
-5.90756
-5.95921
-6.01592
-5.03813
-5.06667
-5.14166
-5.23028
-5.3063
-5.37525
-5.44367
-5.50889
-5.56859
-5.6237
-5.67559
-5.72495
-5.77237
-5.81877
-5.86535
-5.91337
-5.96406
-6.01764
-5.08306
-5.10826
-5.17088
-5.24869
-5.32025
-5.38614
-5.45104
-5.51368
-5.57209
-5.62658
-5.67822
-5.72769
-5.77551
-5.82244
-5.86936
-5.91713
-5.96639
-6.01696
-5.12173
-5.144
-5.19768
-5.26671
-5.33368
-5.39662
-5.4585
-5.51877
-5.57581
-5.62958
-5.68084
-5.73019
-5.77808
-5.8251
-5.87189
-5.91899
-5.96674
-6.01477
-5.15762
-5.17736
-5.22374
-5.28507
-5.34738
-5.40731
-5.46636
-5.52431
-5.5799
-5.63283
-5.68357
-5.73261
-5.78033
-5.82715
-5.8735
-5.9197
-5.96588
-6.01163
-5.1954
-5.21265
-5.25232
-5.30614
-5.36328
-5.41973
-5.47574
-5.53114
-5.58497
-5.63678
-5.68676
-5.73523
-5.78248
-5.82876
-5.87431
-5.91928
-5.96366
-6.00708
-5.23385
-5.24871
-5.28247
-5.32936
-5.38111
-5.43371
-5.48652
-5.53921
-5.59101
-5.64139
-5.6903
-5.7379
-5.78432
-5.82968
-5.87408
-5.91752
-5.95996
-6.00109
-5.27106
-5.28378
-5.31259
-5.35343
-5.4
-5.44865
-5.4982
-5.54812
-5.59771
-5.6464
-5.69395
-5.74033
-5.78557
-5.82967
-5.87261
-5.91434
-5.95479
-5.99373
-5.30415
-5.31514
-5.34011
-5.37611
-5.4182
-5.46319
-5.5097
-5.55699
-5.60435
-5.65119
-5.69716
-5.74209
-5.78588
-5.82845
-5.86975
-5.90968
-5.94818
-5.9851
-5.32878
-5.3386
-5.36101
-5.39374
-5.43266
-5.4749
-5.51902
-5.56417
-5.60961
-5.65475
-5.69916
-5.74257
-5.78484
-5.82584
-5.86548
-5.90368
-5.94038
-5.9755
-5.338
-5.34739
-5.36893
-5.40059
-5.43843
-5.47964
-5.52271
-5.5668
-5.61118
-5.65524
-5.69851
-5.74073
-5.78173
-5.82138
-5.8596
-5.89633
-5.93154
-5.9652
-5.32373
-5.33383
-5.35693
-5.39073
-5.43075
-5.47362
-5.51782
-5.56266
-5.60753
-5.65179
-5.695
-5.73692
-5.77744
-5.81648
-5.85397
-5.88989
-5.92423
-5.95702
-5.29801
-5.30926
-5.33518
-5.3731
-5.41712
-5.463
-5.50942
-5.55606
-5.60229
-5.64742
-5.69109
-5.73322
-5.77375
-5.81264
-5.84985
-5.8854
-5.91932
-5.95166
-5.26342
-5.27586
-5.30604
-5.35074
-5.40052
-5.45
-5.49914
-5.5483
-5.59653
-5.64296
-5.6874
-5.72997
-5.77072
-5.80965
-5.84676
-5.88213
-5.9158
-5.94786
-5.22307
-5.23573
-5.27126
-5.32608
-5.3835
-5.43687
-5.48887
-5.54075
-5.59107
-5.63884
-5.68416
-5.72734
-5.76845
-5.80752
-5.84464
-5.87993
-5.91347
-5.94537
-5.17941
-5.19105
-5.23359
-5.30045
-5.36546
-5.42347
-5.47982
-5.53499
-5.58706
-5.63573
-5.68173
-5.72541
-5.76681
-5.80598
-5.84308
-5.87829
-5.91171
-5.94348
-5.13268
-5.14051
-5.20172
-5.28175
-5.3472
-5.40725
-5.46959
-5.52967
-5.58399
-5.63364
-5.68033
-5.7245
-5.76612
-5.80532
-5.84237
-5.87746
-5.91078
-5.94247
-5.08482
-5.06124
-5.1722
-5.28138
-5.34227
-5.39675
-5.46062
-5.52347
-5.5793
-5.62991
-5.67742
-5.72218
-5.76413
-5.80349
-5.84058
-5.87567
-5.90895
-5.94058
-5.07556
-4.93131
-5.09051
-5.25695
-5.34176
-5.40315
-5.46837
-5.53001
-5.58429
-5.63402
-5.68104
-5.72537
-5.76686
-5.80577
-5.84244
-5.87714
-5.91011
-5.94153
-5.22099
-4.93725
-4.97215
-5.10285
-5.22274
-5.33011
-5.42459
-5.50083
-5.56359
-5.61939
-5.67074
-5.71796
-5.76141
-5.80169
-5.83933
-5.87469
-5.90829
-5.94076
-5.1578
-5.65756
-5.66784
-5.50883
-5.42817
-5.45272
-5.50727
-5.55714
-5.60276
-5.64787
-5.6921
-5.73416
-5.77367
-5.81084
-5.84585
-5.8788
-5.90994
-5.94113
-1.81914
-3.68977
-4.7612
-5.05449
-5.18962
-5.32672
-5.43904
-5.5195
-5.58296
-5.63953
-5.69141
-5.7387
-5.78194
-5.82188
-5.85893
-5.89309
-5.92403
-5.94996
-6.8859
-6.88512
-6.88492
-6.88544
-6.88642
-6.88764
-6.88896
-6.89043
-6.89209
-6.89401
-6.89628
-6.89903
-6.90233
-6.90628
-6.91098
-6.91653
-6.92303
-6.93057
-6.93924
-6.94915
-6.9604
-6.97304
-6.98712
-7.00304
-7.02183
-7.0447
-7.06799
-7.08089
-7.0915
-7.10953
-7.13256
-7.16889
-7.1969
-7.21255
-7.23568
-7.26211
-7.28968
-7.31768
-7.34633
-7.37546
-7.40497
-7.43477
-7.46477
-7.4949
-7.52511
-7.55533
-7.58552
-7.61562
-7.64558
-7.67534
-7.70485
-7.73403
-7.76283
-7.79116
-7.81895
-7.84611
-7.87255
-7.89816
-7.92283
-7.94646
-7.96892
-7.99008
-8.00982
-8.02798
-8.04443
-8.05901
-8.07157
-8.08194
-8.08997
-8.09548
-8.0983
-8.09826
-8.09518
-8.08889
-8.07919
-8.06592
-8.04889
-8.02793
-8.00284
-7.97347
-7.93962
-7.90113
-7.85782
-7.80953
-7.7561
-7.69736
-7.63316
-7.56335
-7.48778
-7.40633
-7.31886
-7.22526
-7.12541
-7.01925
-6.90678
-6.78797
-6.66264
-6.53065
-6.39154
-6.24551
-6.09259
-5.93282
-5.7662
-5.59275
-5.41248
-5.22545
-5.03169
-4.8313
-4.62435
-4.41095
-4.19121
-3.96529
-3.73332
-3.49548
-3.25195
-3.00293
-2.74863
-2.48928
-2.22512
-1.95641
-1.68341
-1.40638
-1.12563
-0.841449
-0.554134
-0.264
0.0286343
0.323447
0.620111
0.918296
1.21767
1.5179
1.81866
2.11962
2.42045
2.72082
3.02043
3.31896
3.61612
3.9116
4.20513
4.49643
4.78525
5.07134
5.35446
5.6344
5.91095
6.18393
6.45315
6.71847
6.97974
7.23684
7.48965
7.7381
7.9821
8.22159
8.45654
8.6869
8.91268
9.13389
9.35056
9.56272
9.7704
9.97352
10.172
10.3659
10.5554
10.7404
10.9212
11.0977
11.27
11.4381
11.6021
11.7621
11.9184
12.0712
12.2219
12.3721
12.5331
12.7068
-6.8858
-6.88522
-6.88502
-6.88547
-6.88611
-6.88657
-6.88679
-6.88678
-6.88677
-6.88702
-6.88775
-6.88908
-6.8911
-6.89384
-6.89734
-6.90163
-6.90676
-6.91279
-6.9198
-6.92783
-6.93687
-6.94693
-6.95817
-6.97081
-6.98458
-6.99775
-7.0081
-7.02582
-7.05202
-7.07724
-7.10417
-7.12048
-7.13964
-7.17322
-7.2062
-7.23717
-7.26637
-7.29552
-7.32484
-7.35431
-7.38392
-7.41367
-7.44353
-7.47346
-7.50342
-7.53339
-7.56332
-7.59316
-7.62288
-7.65241
-7.68171
-7.71072
-7.73936
-7.76756
-7.79525
-7.82234
-7.84874
-7.87434
-7.89905
-7.92274
-7.9453
-7.9666
-7.9865
-8.00488
-8.02157
-8.03644
-8.04932
-8.06006
-8.06849
-8.07444
-8.07775
-8.07824
-8.07573
-8.07005
-8.06101
-8.04843
-8.03215
-8.01197
-7.98772
-7.95922
-7.9263
-7.88878
-7.84649
-7.79928
-7.74696
-7.6894
-7.62643
-7.5579
-7.48368
-7.40363
-7.31762
-7.22553
-7.12723
-7.0226
-6.91154
-6.79395
-6.66954
-6.53813
-6.40028
-6.25577
-6.10449
-5.94639
-5.78148
-5.60975
-5.43121
-5.24591
-5.0539
-4.85525
-4.65003
-4.43836
-4.22034
-3.99612
-3.76583
-3.52965
-3.28775
-3.04033
-2.7876
-2.52979
-2.26712
-1.99985
-1.72824
-1.45257
-1.17312
-0.890175
-0.604043
-0.315032
-0.0234563
0.270362
0.566097
0.863422
1.16201
1.46152
1.76163
2.062
2.36232
2.66226
2.96151
3.25975
3.55668
3.852
4.14544
4.43672
4.72558
5.01177
5.29505
5.5752
5.85202
6.1253
6.39488
6.6606
6.92231
7.17988
7.43319
7.68217
7.92672
8.16678
8.40231
8.63327
8.85967
9.08149
9.29878
9.51155
9.71982
9.9235
10.1225
10.317
10.507
10.6926
10.8739
11.0509
11.2236
11.3923
11.5569
11.7175
11.8746
12.0286
12.1809
12.3329
12.4959
12.661
-6.88323
-6.88354
-6.88407
-6.88495
-6.88573
-6.8861
-6.88608
-6.88583
-6.88556
-6.8855
-6.88584
-6.88674
-6.88829
-6.89056
-6.89363
-6.89752
-6.90231
-6.90806
-6.91485
-6.92275
-6.9318
-6.94206
-6.95363
-6.96664
-6.981
-6.99622
-7.012
-7.03019
-7.05215
-7.07573
-7.09995
-7.12281
-7.14561
-7.17164
-7.19896
-7.22679
-7.25472
-7.28297
-7.31151
-7.34026
-7.36919
-7.39826
-7.42746
-7.45674
-7.48608
-7.51544
-7.54478
-7.57407
-7.60326
-7.6323
-7.66114
-7.6897
-7.71794
-7.74578
-7.77313
-7.79991
-7.82604
-7.85141
-7.87591
-7.89944
-7.92187
-7.94308
-7.96294
-7.98131
-7.99804
-8.01298
-8.02599
-8.0369
-8.04555
-8.05178
-8.05541
-8.05626
-8.05418
-8.04897
-8.04047
-8.02849
-8.01285
-7.99337
-7.96989
-7.94221
-7.91017
-7.87359
-7.8323
-7.78614
-7.73495
-7.67856
-7.61682
-7.54959
-7.47671
-7.39806
-7.3135
-7.22289
-7.12614
-7.02311
-6.91365
-6.7976
-6.67507
-6.54574
-6.40979
-6.26716
-6.11778
-5.96163
-5.79868
-5.62893
-5.4524
-5.26912
-5.07913
-4.88251
-4.67933
-4.46968
-4.25368
-4.03147
-3.80317
-3.56896
-3.32901
-3.08351
-2.83267
-2.5767
-2.31584
-2.05033
-1.78043
-1.50642
-1.22857
-0.947162
-0.662507
-0.374904
-0.0846684
0.207883
0.502427
0.798637
1.09618
1.39474
1.69398
1.99357
2.29318
2.5925
2.89121
3.18899
3.48555
3.78059
4.07382
4.36497
4.65378
4.93999
5.22337
5.50368
5.78073
6.05431
6.32424
6.59036
6.85252
7.11059
7.36445
7.614
7.85916
8.09986
8.33604
8.56767
8.79473
9.01721
9.23512
9.44847
9.65727
9.86152
10.0612
10.2564
10.4471
10.6334
10.8153
10.993
11.1664
11.3357
11.501
11.6624
11.8205
11.9756
12.1295
12.2828
12.4473
12.6
-6.87739
-6.8792
-6.88106
-6.88278
-6.884
-6.88465
-6.88485
-6.88477
-6.88462
-6.88459
-6.88489
-6.88567
-6.88706
-6.88917
-6.89207
-6.89585
-6.90056
-6.90628
-6.9131
-6.92107
-6.93028
-6.94077
-6.95261
-6.96585
-6.98049
-6.99641
-7.01362
-7.0324
-7.05301
-7.07511
-7.09815
-7.12177
-7.14596
-7.17116
-7.19718
-7.22377
-7.25078
-7.27817
-7.30586
-7.33381
-7.36198
-7.39034
-7.41885
-7.44749
-7.47622
-7.505
-7.53381
-7.5626
-7.59132
-7.61993
-7.64838
-7.67659
-7.70451
-7.73206
-7.75917
-7.78574
-7.81169
-7.83692
-7.86131
-7.88477
-7.90716
-7.92836
-7.94825
-7.96668
-7.98351
-7.9986
-8.01178
-8.0229
-8.0318
-8.03831
-8.04226
-8.04349
-8.04181
-8.03705
-8.02903
-8.01757
-8.0025
-7.98364
-7.96081
-7.93382
-7.90252
-7.86672
-7.82626
-7.78097
-7.73069
-7.67525
-7.6145
-7.5483
-7.47649
-7.39894
-7.3155
-7.22606
-7.13048
-7.02865
-6.92043
-6.80571
-6.68446
-6.55661
-6.42214
-6.28099
-6.13311
-5.97848
-5.81706
-5.64886
-5.47389
-5.29217
-5.10376
-4.90872
-4.70711
-4.49904
-4.28461
-4.06395
-3.8372
-3.60452
-3.36608
-3.12206
-2.87268
-2.61815
-2.35868
-2.09454
-1.82598
-1.55325
-1.27664
-0.996438
-0.712932
-0.426428
-0.137238
0.154323
0.447935
0.743271
1.04001
1.33781
1.63636
1.93533
2.23438
2.53321
2.83148
3.1289
3.42516
3.71997
4.01302
4.30407
4.59282
4.87904
5.16248
5.44291
5.72013
5.99392
6.26412
6.53055
6.79306
7.05151
7.30578
7.55578
7.8014
8.04258
8.27925
8.5114
8.73899
8.962
9.18043
9.39426
9.60348
9.80812
10.0082
10.2039
10.395
10.5818
10.7641
10.9422
11.1161
11.2858
11.4516
11.6136
11.7722
11.9279
12.0824
12.2352
12.3976
12.5365
-6.86882
-6.87224
-6.87599
-6.87911
-6.88123
-6.88255
-6.88329
-6.88367
-6.88392
-6.88424
-6.88484
-6.88588
-6.88753
-6.8899
-6.89309
-6.8972
-6.9023
-6.90847
-6.91578
-6.92431
-6.93411
-6.94521
-6.95766
-6.97146
-6.9866
-7.00304
-7.02074
-7.03975
-7.06005
-7.08148
-7.10385
-7.12699
-7.1509
-7.17557
-7.2009
-7.22675
-7.25301
-7.27964
-7.30658
-7.33382
-7.3613
-7.38901
-7.41691
-7.44498
-7.47317
-7.50146
-7.52982
-7.55819
-7.58653
-7.6148
-7.64294
-7.67088
-7.69856
-7.72591
-7.75285
-7.77928
-7.80513
-7.83028
-7.85462
-7.87806
-7.90046
-7.92171
-7.94166
-7.96018
-7.97713
-7.99236
-8.00572
-8.01704
-8.02616
-8.03293
-8.03716
-8.03869
-8.03734
-8.03294
-8.02531
-8.01427
-7.99964
-7.98124
-7.95891
-7.93245
-7.9017
-7.86649
-7.82664
-7.78198
-7.73236
-7.67762
-7.61759
-7.55213
-7.4811
-7.40434
-7.32173
-7.23313
-7.13841
-7.03747
-6.93018
-6.81646
-6.69622
-6.56941
-6.43598
-6.29587
-6.14905
-5.99547
-5.83511
-5.66798
-5.49408
-5.31345
-5.12611
-4.93214
-4.73161
-4.52461
-4.31125
-4.09165
-3.86595
-3.6343
-3.39689
-3.15388
-2.90549
-2.65192
-2.39341
-2.13019
-1.86252
-1.59066
-1.3149
-1.0355
-0.752773
-0.467013
-0.178529
0.112362
0.405342
0.700086
0.99627
1.29357
1.59165
1.89019
2.18886
2.48735
2.78533
3.0825
3.37855
3.67319
3.96613
4.25709
4.5458
4.83202
5.1155
5.396
5.67333
5.94727
6.21764
6.48427
6.74701
7.00571
7.26026
7.51054
7.75647
7.99798
8.23501
8.4675
8.69544
8.91879
9.13754
9.35166
9.56113
9.76599
9.96633
10.1622
10.3536
10.5405
10.7231
10.9014
11.0755
11.2455
11.4114
11.5737
11.7325
11.8883
12.0424
12.1936
12.3521
12.4781
-6.85913
-6.86419
-6.86992
-6.87461
-6.8779
-6.88013
-6.88167
-6.88278
-6.8837
-6.88466
-6.88587
-6.88753
-6.88979
-6.89279
-6.89664
-6.90144
-6.90728
-6.91422
-6.92232
-6.93165
-6.94223
-6.95408
-6.9672
-6.9816
-6.99722
-7.01404
-7.032
-7.05108
-7.0712
-7.09228
-7.11418
-7.13683
-7.16017
-7.18416
-7.20874
-7.23382
-7.25935
-7.28527
-7.31154
-7.33813
-7.36501
-7.39216
-7.41953
-7.4471
-7.47485
-7.50273
-7.5307
-7.55874
-7.58679
-7.6148
-7.64271
-7.67046
-7.69799
-7.72521
-7.75205
-7.77842
-7.80422
-7.82936
-7.85372
-7.87719
-7.89965
-7.92098
-7.94103
-7.95968
-7.97677
-7.99216
-8.00569
-8.01721
-8.02655
-8.03354
-8.03802
-8.03982
-8.03875
-8.03465
-8.02733
-8.01662
-8.00234
-7.98431
-7.96235
-7.9363
-7.90596
-7.87118
-7.83178
-7.78759
-7.73845
-7.68421
-7.6247
-7.55978
-7.4893
-7.41312
-7.3311
-7.2431
-7.14902
-7.04872
-6.94211
-6.82908
-6.70957
-6.58348
-6.45078
-6.31139
-6.16528
-6.01242
-5.85278
-5.68637
-5.51319
-5.33327
-5.14666
-4.9534
-4.75359
-4.5473
-4.33464
-4.11574
-3.89073
-3.65978
-3.42303
-3.1807
-2.93296
-2.68003
-2.42215
-2.15955
-1.89248
-1.6212
-1.346
-1.06714
-0.784938
-0.499677
-0.211671
0.078767
0.371317
0.665657
0.961462
1.25841
1.55616
1.85441
2.15281
2.45106
2.74883
3.04581
3.34171
3.63622
3.92906
4.21994
4.50861
4.79481
5.07829
5.35883
5.6362
5.91022
6.18068
6.44742
6.71029
6.96914
7.22385
7.47431
7.72044
7.96214
8.19937
8.43207
8.6602
8.88373
9.10265
9.31691
9.52652
9.7315
9.93194
10.1279
10.3194
10.5064
10.6891
10.8676
11.0417
11.2118
11.3779
11.5401
11.6988
11.8543
12.0075
12.1565
12.3112
12.4259
-6.85025
-6.85671
-6.86418
-6.87037
-6.87485
-6.8781
-6.88055
-6.88252
-6.88426
-6.88604
-6.88806
-6.89053
-6.8936
-6.89743
-6.90213
-6.90779
-6.9145
-6.9223
-6.93126
-6.94139
-6.95273
-6.96526
-6.97897
-6.99383
-7.00982
-7.02687
-7.04495
-7.06399
-7.08394
-7.10472
-7.12625
-7.14847
-7.17132
-7.19477
-7.21875
-7.24324
-7.26817
-7.29351
-7.31923
-7.34529
-7.37168
-7.39836
-7.42531
-7.4525
-7.4799
-7.50747
-7.53517
-7.56297
-7.59081
-7.61865
-7.64643
-7.67408
-7.70153
-7.72871
-7.75553
-7.7819
-7.80773
-7.83292
-7.85735
-7.88091
-7.90348
-7.92492
-7.94511
-7.96391
-7.98116
-7.99672
-8.01044
-8.02215
-8.0317
-8.0389
-8.0436
-8.04563
-8.0448
-8.04094
-8.03387
-8.02342
-8.0094
-7.99165
-7.96997
-7.94421
-7.91417
-7.87969
-7.84061
-7.79674
-7.74794
-7.69404
-7.63489
-7.57034
-7.50023
-7.42444
-7.34282
-7.25524
-7.16158
-7.06172
-6.95557
-6.84302
-6.72397
-6.59836
-6.46612
-6.3272
-6.18155
-6.02914
-5.86996
-5.704
-5.53127
-5.3518
-5.16563
-4.97282
-4.77345
-4.5676
-4.35539
-4.13693
-3.91236
-3.68183
-3.44552
-3.2036
-2.95628
-2.70377
-2.44629
-2.18409
-1.9174
-1.64651
-1.37168
-1.09318
-0.811327
-0.526403
-0.23872
0.0514068
0.34366
0.637717
0.933254
1.22995
1.52747
1.82549
2.12369
2.42175
2.71935
3.01618
3.31195
3.60634
3.89907
4.18988
4.47848
4.76462
5.04807
5.32859
5.60595
5.87997
6.15046
6.41724
6.68015
6.93906
7.19384
7.44438
7.69059
7.93238
8.1697
8.40248
8.6307
8.8543
9.07328
9.2876
9.49725
9.70229
9.90277
10.0988
10.2903
10.4774
10.6601
10.8385
11.0127
11.1828
11.3488
11.511
11.6694
11.8243
11.9763
12.1229
12.2741
12.3789
-6.8437
-6.85117
-6.85997
-6.86738
-6.87292
-6.87712
-6.88049
-6.88334
-6.88596
-6.88861
-6.89151
-6.89485
-6.8988
-6.90352
-6.9091
-6.91563
-6.92319
-6.93183
-6.94156
-6.95242
-6.96441
-6.9775
-6.99168
-7.00691
-7.02315
-7.04035
-7.05846
-7.07744
-7.09721
-7.11774
-7.13896
-7.16082
-7.18328
-7.20629
-7.22983
-7.25385
-7.27832
-7.30322
-7.32852
-7.35419
-7.38022
-7.40656
-7.43321
-7.46013
-7.48729
-7.51466
-7.5422
-7.56987
-7.59761
-7.62538
-7.65311
-7.68074
-7.70821
-7.73542
-7.76229
-7.78874
-7.81466
-7.83995
-7.86451
-7.8882
-7.91091
-7.93252
-7.95287
-7.97183
-7.98926
-8.005
-8.0189
-8.0308
-8.04053
-8.04792
-8.05281
-8.05503
-8.05438
-8.05071
-8.04384
-8.03357
-8.01975
-8.00218
-7.9807
-7.95512
-7.92527
-7.89099
-7.8521
-7.80844
-7.75984
-7.70615
-7.64722
-7.58288
-7.513
-7.43744
-7.35607
-7.26874
-7.17533
-7.07574
-6.96986
-6.85758
-6.7388
-6.61346
-6.48148
-6.34281
-6.1974
-6.04524
-5.8863
-5.72057
-5.54808
-5.36885
-5.18292
-4.99035
-4.79121
-4.5856
-4.37363
-4.15541
-3.93108
-3.7008
-3.46473
-3.22305
-2.97597
-2.7237
-2.46646
-2.2045
-1.93805
-1.6674
-1.39279
-1.11453
-0.8329
-0.548197
-0.260731
0.0291842
0.321231
0.615088
0.91043
1.20694
1.50428
1.80213
2.10017
2.39807
2.69552
2.99222
3.28785
3.58212
3.87475
4.16544
4.45395
4.74001
5.02338
5.30382
5.58114
5.85511
6.12555
6.3923
6.65519
6.91408
7.16885
7.41938
7.66559
7.90738
8.14469
8.37747
8.60568
8.82927
9.04823
9.26253
9.47218
9.6772
9.87767
10.0736
10.2651
10.4522
10.6349
10.8133
10.9875
11.1574
11.3233
11.4852
11.6432
11.7973
11.948
12.0922
12.2402
12.3364
-6.8403
-6.8484
-6.85804
-6.86629
-6.87265
-6.87767
-6.88184
-6.88551
-6.88896
-6.89244
-6.89617
-6.90035
-6.90514
-6.91067
-6.91705
-6.92437
-6.93268
-6.94201
-6.9524
-6.96384
-6.97634
-6.98986
-7.00438
-7.01986
-7.03627
-7.05355
-7.07166
-7.09056
-7.11019
-7.13051
-7.15148
-7.17305
-7.1952
-7.21789
-7.2411
-7.26479
-7.28894
-7.31353
-7.33855
-7.36396
-7.38974
-7.41588
-7.44236
-7.46913
-7.49618
-7.52346
-7.55094
-7.57858
-7.60632
-7.63412
-7.6619
-7.6896
-7.71715
-7.74446
-7.77146
-7.79804
-7.82411
-7.84956
-7.87428
-7.89814
-7.92103
-7.9428
-7.96333
-7.98247
-8.00008
-8.01599
-8.03006
-8.04212
-8.05201
-8.05956
-8.06459
-8.06695
-8.06644
-8.0629
-8.05614
-8.04599
-8.03227
-8.01481
-7.99343
-7.96794
-7.93819
-7.904
-7.8652
-7.82162
-7.77311
-7.71951
-7.66066
-7.59642
-7.52664
-7.45118
-7.36991
-7.28269
-7.1894
-7.08993
-6.98416
-6.87198
-6.75331
-6.62805
-6.49616
-6.35757
-6.21225
-6.06016
-5.90129
-5.73564
-5.56322
-5.38406
-5.1982
-5.00571
-4.80666
-4.60113
-4.38925
-4.17112
-3.94689
-3.71671
-3.48075
-3.23918
-2.99222
-2.74007
-2.48295
-2.22112
-1.9548
-1.68428
-1.40982
-1.1317
-0.850211
-0.565653
-0.278334
0.0114323
0.30333
0.597036
0.892229
1.18858
1.48578
1.78348
2.08137
2.37913
2.67644
2.97299
3.26848
3.56261
3.8551
4.14567
4.43406
4.71999
5.00325
5.28358
5.56079
5.83466
6.105
6.37165
6.63445
6.89326
7.14794
7.3984
7.64452
7.88623
8.12347
8.35618
8.5843
8.80782
9.02669
9.24092
9.45049
9.65545
9.85585
10.0517
10.2432
10.4302
10.6128
10.7911
10.9651
11.135
11.3006
11.4622
11.6196
11.7728
11.922
12.0639
12.2089
12.2979
-6.84038
-6.8487
-6.8587
-6.86741
-6.87431
-6.87992
-6.88474
-6.88908
-6.89323
-6.89742
-6.90187
-6.90676
-6.91225
-6.91847
-6.92551
-6.93345
-6.94233
-6.9522
-6.96307
-6.97493
-6.98778
-7.00159
-7.01633
-7.03197
-7.04846
-7.06577
-7.08385
-7.10266
-7.12216
-7.14232
-7.16311
-7.18448
-7.20641
-7.22888
-7.25187
-7.27536
-7.29931
-7.32373
-7.34859
-7.37387
-7.39955
-7.42562
-7.45204
-7.47879
-7.50584
-7.53315
-7.56068
-7.58839
-7.61623
-7.64413
-7.67204
-7.69989
-7.72759
-7.75507
-7.78224
-7.80901
-7.83526
-7.8609
-7.8858
-7.90985
-7.93292
-7.95487
-7.97558
-7.99488
-8.01264
-8.0287
-8.04291
-8.05509
-8.06509
-8.07274
-8.07787
-8.0803
-8.07986
-8.07637
-8.06966
-8.05954
-8.04585
-8.02841
-8.00703
-7.98155
-7.95179
-7.91758
-7.87877
-7.83518
-7.78665
-7.73303
-7.67416
-7.6099
-7.54011
-7.46464
-7.38335
-7.29613
-7.20283
-7.10334
-6.99755
-6.88534
-6.76662
-6.64132
-6.50938
-6.37074
-6.22536
-6.07321
-5.91428
-5.74858
-5.5761
-5.39689
-5.211
-5.01847
-4.81938
-4.61383
-4.40193
-4.1838
-3.95957
-3.72939
-3.49345
-3.25191
-3.00498
-2.75287
-2.49581
-2.23403
-1.96779
-1.69734
-1.42296
-1.14494
-0.86355
-0.579099
-0.291894
-0.00224738
0.289525
0.583101
0.878158
1.17437
1.47141
1.76896
2.0667
2.3643
2.66145
2.95784
3.25317
3.54714
3.83947
4.12987
4.41809
4.70387
4.98696
5.26713
5.54417
5.81788
6.08807
6.35457
6.61722
6.87587
7.13041
7.38071
7.62669
7.86826
8.10536
8.33792
8.56591
8.78928
9.00802
9.22212
9.43157
9.63642
9.83671
10.0325
10.2238
10.4107
10.5932
10.7714
10.9452
11.1148
11.2802
11.4413
11.5981
11.7503
11.898
12.0375
12.1799
12.2627
-6.84378
-6.85198
-6.8619
-6.8707
-6.87785
-6.88382
-6.88906
-6.89389
-6.89855
-6.90329
-6.90828
-6.91372
-6.91974
-6.92646
-6.93397
-6.94234
-6.95162
-6.96184
-6.97301
-6.98512
-6.99817
-7.01213
-7.02698
-7.04267
-7.05918
-7.07646
-7.09449
-7.11322
-7.13262
-7.15267
-7.17333
-7.19457
-7.21638
-7.23874
-7.26162
-7.28501
-7.3089
-7.33327
-7.3581
-7.38338
-7.40908
-7.43519
-7.46167
-7.48851
-7.51567
-7.54311
-7.57079
-7.59866
-7.62668
-7.65476
-7.68287
-7.71091
-7.73882
-7.76651
-7.79389
-7.82085
-7.84731
-7.87314
-7.89822
-7.92245
-7.94568
-7.96779
-7.98863
-8.00807
-8.02594
-8.04209
-8.05638
-8.06862
-8.07867
-8.08635
-8.09149
-8.09392
-8.09346
-8.08995
-8.08319
-8.07302
-8.05926
-8.04174
-8.02027
-7.9947
-7.96484
-7.93053
-7.89161
-7.8479
-7.79926
-7.74552
-7.68654
-7.62217
-7.55226
-7.47668
-7.3953
-7.30796
-7.21455
-7.11493
-7.009
-6.89664
-6.77777
-6.65232
-6.52022
-6.38142
-6.23588
-6.08358
-5.9245
-5.75865
-5.58603
-5.4067
-5.22067
-5.02803
-4.82884
-4.6232
-4.41122
-4.19301
-3.96873
-3.73851
-3.50253
-3.26097
-3.01404
-2.76194
-2.50489
-2.24315
-1.97695
-1.70655
-1.43224
-1.15429
-0.872999
-0.588656
-0.301568
-0.0120473
0.279589
0.573022
0.867928
1.16398
1.46086
1.75823
2.05578
2.3532
2.65016
2.94635
3.24148
3.53524
3.82736
4.11755
4.40556
4.69111
4.97399
5.25394
5.53077
5.80426
6.07423
6.34051
6.60294
6.86138
7.11571
7.36581
7.61158
7.85295
8.08984
8.32221
8.54999
8.77318
8.99173
9.20565
9.41494
9.61963
9.81977
10.0154
10.2066
10.3933
10.5756
10.7536
10.9273
11.0966
11.2617
11.4223
11.5783
11.7295
11.8756
12.0129
12.1528
12.2304
-6.85006
-6.85785
-6.86735
-6.87592
-6.88303
-6.8891
-6.89455
-6.89965
-6.90462
-6.90969
-6.91504
-6.92081
-6.92716
-6.93417
-6.94196
-6.95057
-6.96005
-6.97043
-6.98173
-6.99393
-7.00704
-7.02103
-7.03588
-7.05155
-7.06801
-7.08524
-7.1032
-7.12186
-7.14118
-7.16116
-7.18175
-7.20294
-7.22471
-7.24705
-7.26993
-7.29334
-7.31728
-7.34171
-7.36663
-7.39202
-7.41785
-7.44411
-7.47077
-7.4978
-7.52516
-7.55281
-7.58071
-7.60881
-7.63705
-7.66537
-7.6937
-7.72197
-7.7501
-7.77801
-7.80559
-7.83275
-7.85938
-7.88537
-7.91061
-7.93497
-7.95832
-7.98052
-8.00144
-8.02093
-8.03883
-8.055
-8.06928
-8.0815
-8.09151
-8.09912
-8.10418
-8.10651
-8.10594
-8.10229
-8.09539
-8.08507
-8.07115
-8.05345
-8.0318
-8.00604
-7.97599
-7.94148
-7.90236
-7.85846
-7.80962
-7.75569
-7.69652
-7.63196
-7.56186
-7.4861
-7.40453
-7.317
-7.22338
-7.12353
-7.01736
-6.90476
-6.78566
-6.65997
-6.52764
-6.38861
-6.24285
-6.09033
-5.93104
-5.76499
-5.59219
-5.41267
-5.22649
-5.03369
-4.83437
-4.62861
-4.41652
-4.19822
-3.97386
-3.74358
-3.50756
-3.26598
-3.01904
-2.76695
-2.50994
-2.24823
-1.98209
-1.71177
-1.43755
-1.1597
-0.878518
-0.594306
-0.307363
-0.0179993
0.273469
0.566721
0.861436
1.15729
1.45395
1.7511
2.04842
2.3456
2.64231
2.93825
3.23312
3.52661
3.81846
4.10838
4.39611
4.68139
4.96398
5.24365
5.5202
5.79341
6.0631
6.3291
6.59125
6.84942
7.10347
7.3533
7.59881
7.83991
8.07655
8.30866
8.5362
8.75915
8.97747
9.19117
9.40026
9.60476
9.80471
10.0002
10.1911
10.3777
10.5599
10.7376
10.911
11.0801
11.2447
11.4047
11.56
11.71
11.8547
11.9898
12.1274
12.2007
-6.85858
-6.86578
-6.87459
-6.88266
-6.8895
-6.89545
-6.90087
-6.906
-6.91106
-6.91625
-6.92171
-6.92761
-6.93407
-6.94118
-6.94903
-6.95769
-6.96718
-6.97756
-6.98882
-7.00098
-7.01402
-7.02793
-7.04269
-7.05826
-7.07464
-7.09178
-7.10966
-7.12826
-7.14754
-7.16748
-7.18807
-7.20928
-7.23109
-7.2535
-7.27648
-7.30001
-7.32409
-7.34869
-7.3738
-7.39939
-7.42545
-7.45195
-7.47886
-7.50614
-7.53376
-7.56167
-7.58983
-7.61818
-7.64667
-7.67523
-7.70379
-7.73227
-7.7606
-7.78868
-7.81641
-7.84371
-7.87046
-7.89654
-7.92185
-7.94625
-7.96962
-7.99182
-8.01271
-8.03215
-8.04998
-8.06605
-8.08021
-8.09229
-8.10213
-8.10956
-8.11442
-8.11654
-8.11574
-8.11186
-8.10471
-8.09413
-8.07994
-8.06198
-8.04006
-8.01402
-7.9837
-7.94892
-7.90953
-7.86537
-7.81627
-7.76208
-7.70266
-7.63786
-7.56753
-7.49153
-7.4097
-7.32189
-7.22797
-7.12783
-7.02136
-6.90847
-6.78908
-6.66311
-6.5305
-6.39121
-6.2452
-6.09244
-5.93293
-5.76666
-5.59367
-5.41397
-5.22762
-5.03468
-4.83523
-4.62936
-4.41718
-4.19881
-3.9744
-3.74409
-3.50806
-3.26649
-3.01957
-2.76753
-2.51058
-2.24896
-1.98292
-1.71272
-1.43863
-1.16094
-0.879932
-0.595908
-0.309169
-0.0200247
0.27121
0.564216
0.85867
1.15425
1.45063
1.74749
2.04451
2.34137
2.63776
2.93337
3.22791
3.52107
3.81257
4.10215
4.38952
4.67445
4.95669
5.23601
5.5122
5.78506
6.0544
6.32006
6.58187
6.83969
7.09341
7.34291
7.58809
7.82888
8.06521
8.29702
8.52427
8.74693
8.96499
9.17844
9.38728
9.59156
9.7913
9.98654
10.1773
10.3637
10.5456
10.7231
10.8963
11.0649
11.2291
11.3885
11.543
11.6918
11.835
11.9681
12.1035
12.1733
-6.8687
-6.87519
-6.88316
-6.89055
-6.8969
-6.90251
-6.90767
-6.9126
-6.91751
-6.92257
-6.92793
-6.93373
-6.94007
-6.94707
-6.95479
-6.9633
-6.97265
-6.98285
-6.99394
-7.00592
-7.01878
-7.03251
-7.04711
-7.06254
-7.07878
-7.09582
-7.11362
-7.13217
-7.15143
-7.17139
-7.19203
-7.21332
-7.23525
-7.2578
-7.28096
-7.30469
-7.32899
-7.35384
-7.37921
-7.40508
-7.43142
-7.4582
-7.48539
-7.51295
-7.54084
-7.56901
-7.59742
-7.62599
-7.65469
-7.68343
-7.71215
-7.74077
-7.7692
-7.79735
-7.82514
-7.85246
-7.8792
-7.90525
-7.93049
-7.9548
-7.97805
-8.0001
-8.02082
-8.04005
-8.05767
-8.0735
-8.08739
-8.09919
-8.10874
-8.11586
-8.1204
-8.12218
-8.12104
-8.11681
-8.10931
-8.09838
-8.08384
-8.06553
-8.04327
-8.0169
-7.98625
-7.95115
-7.91145
-7.86698
-7.81759
-7.76312
-7.70343
-7.63837
-7.56778
-7.49149
-7.40933
-7.32118
-7.22693
-7.12646
-7.01967
-6.90647
-6.78678
-6.66052
-6.52765
-6.3881
-6.24185
-6.08886
-5.92915
-5.7627
-5.58954
-5.40969
-5.22322
-5.03017
-4.83064
-4.62471
-4.41249
-4.19411
-3.9697
-3.73942
-3.50344
-3.26195
-3.01514
-2.76322
-2.50641
-2.24495
-1.97909
-1.7091
-1.43523
-1.15778
-0.877035
-0.593288
-0.306842
-0.0180075
0.272903
0.565569
0.859672
1.15489
1.45089
1.74737
2.04399
2.34045
2.63643
2.93163
3.22574
3.51847
3.80955
4.09869
4.38563
4.67013
4.95193
5.23082
5.50658
5.77902
6.04794
6.31317
6.57457
6.832
7.08532
7.33443
7.57923
7.81965
8.05562
8.28708
8.514
8.73634
8.9541
9.16726
9.37584
9.57986
9.77936
9.97437
10.1649
10.351
10.5327
10.71
10.8828
11.0511
11.2148
11.3736
11.5272
11.6749
11.8165
11.9477
12.081
12.148
-6.87987
-6.88563
-6.89269
-6.89928
-6.90497
-6.91001
-6.91466
-6.91915
-6.92365
-6.92832
-6.93332
-6.93877
-6.94479
-6.95145
-6.95885
-6.96704
-6.97606
-6.98595
-6.99673
-7.00841
-7.02099
-7.03447
-7.04883
-7.06406
-7.08015
-7.09706
-7.11478
-7.13329
-7.15256
-7.17258
-7.19331
-7.21473
-7.23683
-7.25958
-7.28296
-7.30695
-7.33152
-7.35664
-7.38229
-7.40844
-7.43506
-7.4621
-7.48954
-7.51733
-7.54542
-7.57377
-7.60233
-7.63102
-7.6598
-7.68859
-7.71732
-7.74592
-7.77429
-7.80236
-7.83003
-7.85719
-7.88374
-7.90957
-7.93457
-7.95861
-7.98156
-8.00329
-8.02366
-8.04254
-8.05977
-8.07521
-8.0887
-8.10008
-8.1092
-8.11589
-8.12
-8.12135
-8.11977
-8.11511
-8.10719
-8.09584
-8.08089
-8.06218
-8.03954
-8.0128
-7.9818
-7.94637
-7.90635
-7.86158
-7.8119
-7.75717
-7.69723
-7.63189
-7.56098
-7.48434
-7.40183
-7.31334
-7.21876
-7.11798
-7.01089
-6.8974
-6.77745
-6.65094
-6.51783
-6.37808
-6.23164
-6.0785
-5.91864
-5.75208
-5.57882
-5.39891
-5.21239
-5.01933
-4.81981
-4.61391
-4.40174
-4.18344
-3.95915
-3.729
-3.49318
-3.25187
-3.00527
-2.75358
-2.49702
-2.23584
-1.97028
-1.70061
-1.42708
-1.14999
-0.869622
-0.586269
-0.300235
-0.0118272
0.278641
0.570852
0.864487
1.15922
1.45474
1.75072
2.04683
2.34278
2.63824
2.93292
3.2265
3.51871
3.80925
4.09787
4.38428
4.66825
4.94954
5.22791
5.50316
5.77509
6.04352
6.30827
6.56919
6.82614
7.07901
7.32767
7.57204
7.81205
8.04761
8.27868
8.50523
8.72722
8.94464
9.15749
9.36578
9.56954
9.76878
9.96355
10.1539
10.3397
10.5212
10.6982
10.8707
11.0386
11.2017
11.3598
11.5125
11.6591
11.7993
11.9286
12.0598
12.1247
-6.89215
-6.89725
-6.9034
-6.90909
-6.91392
-6.91814
-6.922
-6.92571
-6.92948
-6.93345
-6.93779
-6.94261
-6.94802
-6.95411
-6.96096
-6.96861
-6.97712
-6.98652
-6.99683
-7.00807
-7.02025
-7.03336
-7.04741
-7.06237
-7.07824
-7.09499
-7.11261
-7.13107
-7.15034
-7.17041
-7.19124
-7.2128
-7.23508
-7.25803
-7.28163
-7.30585
-7.33066
-7.35601
-7.38188
-7.40823
-7.43503
-7.46222
-7.48977
-7.51764
-7.54577
-7.57412
-7.60262
-7.63123
-7.65987
-7.68849
-7.71701
-7.74535
-7.77344
-7.80118
-7.82849
-7.85527
-7.88141
-7.9068
-7.93134
-7.9549
-7.97735
-7.99857
-8.01842
-8.03677
-8.05346
-8.06836
-8.08131
-8.09215
-8.10073
-8.10689
-8.11047
-8.11131
-8.10924
-8.10409
-8.0957
-8.0839
-8.06854
-8.04943
-8.02641
-7.99932
-7.96798
-7.93225
-7.89196
-7.84695
-7.79706
-7.7421
-7.68189
-7.61623
-7.54498
-7.46801
-7.38519
-7.29641
-7.20155
-7.10052
-6.9932
-6.87951
-6.75937
-6.6327
-6.49946
-6.3596
-6.21308
-6.05989
-5.90001
-5.73344
-5.56022
-5.38036
-5.19393
-5.00098
-4.8016
-4.59587
-4.38391
-4.16584
-3.94179
-3.71193
-3.47642
-3.23545
-2.9892
-2.7379
-2.48175
-2.22101
-1.9559
-1.68671
-1.41368
-1.13711
-0.85727
-0.574468
-0.289001
-0.00117497
0.288698
0.580302
0.873318
1.16743
1.46231
1.75764
2.05311
2.34841
2.64322
2.93724
3.23017
3.52173