/*--------------------------------*- C++ -*----------------------------------*\
  =========                 |
  \\      /  F ield         | OpenFOAM: The Open Source CFD Toolbox
   \\    /   O peration     | Website:  https://openfoam.org
    \\  /    A nd           | Version:  9
     \\/     M anipulation  |
\*---------------------------------------------------------------------------*/
FoamFile
{
    format      ascii;
    class       volScalarField;
    location    "0.1";
    object      nut;
}
// * * * * * * * * * * * * * * * * * * * * * * * * * * * * * * * * * * * * * //

dimensions      [0 2 -1 0 0 0 0];

internalField   nonuniform List<scalar> 
12225
(
2.9141e-06
2.19949e-06
1.70589e-06
1.37223e-06
1.15758e-06
1.03366e-06
9.79985e-07
9.80933e-07
1.02424e-06
1.1003e-06
1.20174e-06
1.32308e-06
1.46032e-06
1.61047e-06
1.7707e-06
1.93784e-06
2.1065e-06
2.30958e-06
2.47132e-05
1.74957e-05
1.47773e-05
1.34824e-05
1.28327e-05
1.25003e-05
1.23056e-05
1.21522e-05
1.19994e-05
1.18378e-05
1.16719e-05
1.15102e-05
1.13612e-05
1.12321e-05
1.11272e-05
1.10491e-05
1.0993e-05
1.09829e-05
5.32945e-05
4.10263e-05
3.42192e-05
2.97134e-05
2.63133e-05
2.34988e-05
2.10224e-05
1.87822e-05
1.67578e-05
1.49619e-05
1.34084e-05
1.21003e-05
1.10284e-05
1.0175e-05
9.51729e-06
9.03015e-06
8.68748e-06
8.46849e-06
6.814e-05
5.93217e-05
5.24254e-05
4.70339e-05
4.26327e-05
3.88631e-05
3.54831e-05
3.23404e-05
2.93552e-05
2.65018e-05
2.37887e-05
2.12433e-05
1.89e-05
1.67931e-05
1.49497e-05
1.33859e-05
1.21002e-05
1.10849e-05
7.36152e-05
6.90732e-05
6.44331e-05
6.01333e-05
5.62415e-05
5.27071e-05
4.94447e-05
4.63683e-05
4.34094e-05
4.05228e-05
3.76864e-05
3.48992e-05
3.21789e-05
2.95597e-05
2.70868e-05
2.48123e-05
2.27805e-05
2.10367e-05
7.53702e-05
7.32253e-05
7.06462e-05
6.79063e-05
6.51627e-05
6.24896e-05
5.99086e-05
5.74107e-05
5.49742e-05
5.25754e-05
5.0195e-05
4.78221e-05
4.54565e-05
4.31107e-05
4.08108e-05
3.85948e-05
3.65078e-05
3.46115e-05
7.58868e-05
7.47508e-05
7.33508e-05
7.17581e-05
7.00469e-05
6.82759e-05
6.64835e-05
6.46895e-05
6.29005e-05
6.11151e-05
5.93286e-05
5.75366e-05
5.57378e-05
5.39366e-05
5.21447e-05
5.0382e-05
4.86758e-05
4.70768e-05
7.60285e-05
7.52512e-05
7.43777e-05
7.34053e-05
7.23474e-05
7.12237e-05
7.00533e-05
6.88512e-05
6.76275e-05
6.63878e-05
6.51348e-05
6.38699e-05
6.25947e-05
6.13123e-05
6.00292e-05
5.87555e-05
5.75064e-05
5.63171e-05
7.60647e-05
7.53999e-05
7.47242e-05
7.40246e-05
7.32951e-05
7.25355e-05
7.17488e-05
7.09392e-05
7.01108e-05
6.92671e-05
6.84105e-05
6.75431e-05
6.66671e-05
6.57851e-05
6.49009e-05
6.40201e-05
6.31513e-05
6.23174e-05
7.60733e-05
7.54401e-05
7.48291e-05
7.42314e-05
7.36398e-05
7.30496e-05
7.24578e-05
7.18628e-05
7.1264e-05
7.06613e-05
7.0055e-05
6.94456e-05
6.88338e-05
6.82207e-05
6.76084e-05
6.69997e-05
6.63991e-05
6.58214e-05
7.60751e-05
7.54498e-05
7.48575e-05
7.42929e-05
7.37512e-05
7.32281e-05
7.27201e-05
7.22242e-05
7.17382e-05
7.12605e-05
7.07895e-05
7.03246e-05
6.9865e-05
6.94107e-05
6.89619e-05
6.85197e-05
6.80862e-05
6.76708e-05
7.60754e-05
7.54517e-05
7.48638e-05
7.43081e-05
7.3781e-05
7.32793e-05
7.28001e-05
7.23407e-05
7.18987e-05
7.14721e-05
7.10593e-05
7.06588e-05
7.02694e-05
6.98903e-05
6.9521e-05
6.91614e-05
6.88125e-05
6.84809e-05
7.60754e-05
7.5452e-05
7.48652e-05
7.4312e-05
7.37896e-05
7.32953e-05
7.28268e-05
7.23816e-05
7.19579e-05
7.15537e-05
7.11672e-05
7.0797e-05
7.04418e-05
7.01004e-05
6.97719e-05
6.94558e-05
6.91522e-05
6.88664e-05
7.60753e-05
7.54519e-05
7.48652e-05
7.43125e-05
7.37913e-05
7.32992e-05
7.28341e-05
7.23939e-05
7.19769e-05
7.15812e-05
7.12054e-05
7.0848e-05
7.05077e-05
7.01834e-05
6.98739e-05
6.95786e-05
6.92974e-05
6.90347e-05
7.60752e-05
7.54517e-05
7.48649e-05
7.43122e-05
7.37911e-05
7.32993e-05
7.28349e-05
7.23959e-05
7.19806e-05
7.15874e-05
7.12147e-05
7.08613e-05
7.05258e-05
7.02072e-05
6.99044e-05
6.96166e-05
6.93436e-05
6.90897e-05
7.60752e-05
7.54515e-05
7.48646e-05
7.43117e-05
7.37904e-05
7.32986e-05
7.28342e-05
7.23953e-05
7.19802e-05
7.15874e-05
7.12154e-05
7.08628e-05
7.05285e-05
7.02112e-05
6.99101e-05
6.96244e-05
6.93537e-05
6.91024e-05
7.60751e-05
7.54514e-05
7.48643e-05
7.43112e-05
7.37898e-05
7.32978e-05
7.28333e-05
7.23943e-05
7.19792e-05
7.15864e-05
7.12145e-05
7.08622e-05
7.05282e-05
7.02114e-05
6.9911e-05
6.9626e-05
6.93563e-05
6.9106e-05
7.60751e-05
7.54513e-05
7.48641e-05
7.43108e-05
7.37893e-05
7.32972e-05
7.28325e-05
7.23935e-05
7.19785e-05
7.15858e-05
7.12141e-05
7.08621e-05
7.05286e-05
7.02125e-05
6.99129e-05
6.96289e-05
6.93603e-05
6.91113e-05
7.60751e-05
7.54513e-05
7.48639e-05
7.43106e-05
7.3789e-05
7.32968e-05
7.28322e-05
7.23933e-05
7.19785e-05
7.15862e-05
7.1215e-05
7.08636e-05
7.05309e-05
7.02158e-05
6.99174e-05
6.96347e-05
6.93678e-05
6.91203e-05
7.60751e-05
7.54513e-05
7.4864e-05
7.43107e-05
7.37891e-05
7.32971e-05
7.28326e-05
7.2394e-05
7.19794e-05
7.15876e-05
7.12169e-05
7.08662e-05
7.05343e-05
7.02201e-05
6.99227e-05
6.96413e-05
6.93755e-05
6.91294e-05
7.60752e-05
7.54513e-05
7.48641e-05
7.43108e-05
7.37893e-05
7.32973e-05
7.28328e-05
7.23941e-05
7.19795e-05
7.15874e-05
7.12165e-05
7.08655e-05
7.05333e-05
7.02187e-05
6.99208e-05
6.96388e-05
6.93725e-05
6.91257e-05
7.60752e-05
7.54513e-05
7.48638e-05
7.431e-05
7.37874e-05
7.32937e-05
7.28268e-05
7.23848e-05
7.19659e-05
7.15689e-05
7.11921e-05
7.08346e-05
7.04952e-05
7.01728e-05
6.98666e-05
6.95759e-05
6.93004e-05
6.90443e-05
7.60749e-05
7.54496e-05
7.48585e-05
7.4298e-05
7.37646e-05
7.32557e-05
7.27689e-05
7.23026e-05
7.18555e-05
7.14266e-05
7.10152e-05
7.06208e-05
7.02429e-05
6.98812e-05
6.9535e-05
6.92039e-05
6.88881e-05
6.8592e-05
7.6071e-05
7.54312e-05
7.481e-05
7.42006e-05
7.3599e-05
7.30039e-05
7.24155e-05
7.18356e-05
7.12662e-05
7.07094e-05
7.01676e-05
6.96424e-05
6.91356e-05
6.86483e-05
6.81813e-05
6.7735e-05
6.73083e-05
6.69068e-05
7.60349e-05
7.5289e-05
7.44855e-05
7.36268e-05
7.27251e-05
7.17972e-05
7.08597e-05
6.99275e-05
6.90121e-05
6.81221e-05
6.72638e-05
6.64412e-05
6.56569e-05
6.49123e-05
6.4208e-05
6.35437e-05
6.29198e-05
6.23391e-05
7.57655e-05
7.44276e-05
7.28339e-05
7.11037e-05
6.93303e-05
6.75793e-05
6.58919e-05
6.42899e-05
6.27829e-05
6.13728e-05
6.00575e-05
5.88324e-05
5.76922e-05
5.66313e-05
5.56444e-05
5.47265e-05
5.38739e-05
5.30885e-05
7.41077e-05
7.03933e-05
6.65807e-05
6.30339e-05
5.98502e-05
5.70315e-05
5.45428e-05
5.23373e-05
5.03701e-05
4.86027e-05
4.70035e-05
4.5547e-05
4.42132e-05
4.29864e-05
4.18543e-05
4.08071e-05
3.98377e-05
3.89445e-05
6.58889e-05
5.66796e-05
5.0156e-05
4.54041e-05
4.17873e-05
3.89325e-05
3.6606e-05
3.46548e-05
3.29784e-05
3.15098e-05
3.02038e-05
2.90293e-05
2.79648e-05
2.69952e-05
2.61095e-05
2.52989e-05
2.45563e-05
2.38772e-05
3.80831e-05
2.83928e-05
2.40209e-05
2.15447e-05
2.0001e-05
1.90065e-05
1.83646e-05
1.79565e-05
1.77042e-05
1.75541e-05
1.74684e-05
1.74203e-05
1.73913e-05
1.73686e-05
1.7344e-05
1.73123e-05
1.7271e-05
1.72165e-05
5.62831e-06
4.72189e-06
4.01403e-06
3.45805e-06
3.0215e-06
2.68053e-06
2.41711e-06
2.21711e-06
2.06915e-06
1.96382e-06
1.89326e-06
1.85078e-06
1.83066e-06
1.82801e-06
1.83864e-06
1.85901e-06
1.88618e-06
1.91757e-06
2.45981e-06
1.72331e-05
4.40336e-06
4.58623e-06
4.64618e-06
4.6229e-06
4.56553e-06
4.48811e-06
4.39745e-06
4.36004e-06
4.39631e-06
4.47692e-06
4.59579e-06
4.75069e-06
4.94175e-06
5.17013e-06
5.43819e-06
5.74755e-06
6.10819e-06
6.52669e-06
6.92619e-06
7.29239e-06
7.60692e-06
7.84495e-06
7.97369e-06
7.95109e-06
7.71382e-06
7.03302e-06
5.57368e-06
1.47994e-05
8.74793e-06
8.33896e-06
8.7971e-06
9.3366e-06
9.90508e-06
1.04823e-05
1.13289e-05
1.23454e-05
1.24121e-05
1.16686e-05
1.05707e-05
9.5226e-06
8.72052e-06
8.39699e-06
8.96687e-06
1.01606e-05
1.20923e-05
3.48162e-06
3.70933e-06
4.68647e-06
6.93205e-06
8.58796e-06
9.95859e-06
1.10736e-05
1.19659e-05
1.26665e-05
1.32025e-05
1.3598e-05
1.38733e-05
1.40459e-05
1.41307e-05
1.41405e-05
1.40862e-05
1.39775e-05
1.38225e-05
1.36283e-05
1.33935e-05
1.31319e-05
1.286e-05
1.25783e-05
1.22878e-05
1.19892e-05
1.16838e-05
1.13725e-05
1.10566e-05
1.07372e-05
1.04155e-05
1.00927e-05
9.76993e-06
9.44804e-06
9.12761e-06
8.80877e-06
8.49107e-06
8.17354e-06
7.85466e-06
7.53261e-06
7.20559e-06
6.87216e-06
6.53163e-06
6.18424e-06
5.83103e-06
5.47365e-06
5.11259e-06
4.72104e-06
4.45657e-06
4.42239e-06
4.41915e-06
4.4333e-06
4.4639e-06
4.51211e-06
4.56458e-06
4.62148e-06
4.68711e-06
4.76348e-06
4.84984e-06
4.94399e-06
5.04316e-06
5.1445e-06
5.24497e-06
5.3416e-06
5.43706e-06
5.52908e-06
5.59042e-06
5.61409e-06
5.60116e-06
5.56373e-06
2.1183e-05
1.62815e-05
1.22684e-05
9.23002e-06
7.14847e-06
5.90875e-06
5.31485e-06
5.14387e-06
5.20149e-06
5.34509e-06
5.48134e-06
5.56244e-06
5.57573e-06
5.52638e-06
5.42644e-06
5.29064e-06
5.13493e-06
4.97626e-06
4.83315e-06
4.7256e-06
4.67455e-06
4.7008e-06
4.83192e-06
5.06965e-06
5.41835e-06
5.94293e-06
6.86179e-06
8.58513e-06
1.17681e-05
3.44554e-06
4.65309e-06
6.3628e-06
7.35943e-06
7.86577e-06
8.00793e-06
7.8874e-06
7.58909e-06
7.15365e-06
6.68944e-06
6.21352e-06
5.74307e-06
5.29185e-06
4.87042e-06
4.48703e-06
3.98687e-06
1.74835e-05
1.76468e-05
4.0849e-06
4.35963e-06
4.72959e-06
5.14041e-06
5.56834e-06
5.99072e-06
6.39321e-06
6.8173e-06
7.21043e-06
7.36482e-06
7.21265e-06
6.71511e-06
5.92405e-06
1.644e-05
9.68784e-06
6.22291e-06
4.30473e-06
1.76462e-06
7.51171e-06
3.81626e-06
3.81733e-06
4.28471e-06
4.72071e-06
4.7569e-06
4.62321e-06
4.44206e-06
4.25393e-06
4.06825e-06
3.89061e-06
3.72647e-06
3.57925e-06
3.45011e-06
3.3389e-06
3.24512e-06
3.16825e-06
3.11006e-06
3.05074e-06
2.99262e-06
3.03803e-06
3.23821e-06
3.58121e-06
4.03016e-06
4.53929e-06
5.04029e-06
5.40854e-06
5.61091e-06
5.50994e-06
4.84073e-06
4.00351e-06
3.6244e-06
3.73197e-06
3.72438e-06
3.91437e-06
4.36812e-06
4.7623e-06
4.87577e-06
4.67093e-06
4.35097e-06
4.30158e-06
4.60718e-06
5.05737e-06
5.8132e-06
6.38965e-06
6.32153e-06
6.24011e-06
6.34902e-06
6.55654e-06
6.75988e-06
6.81803e-06
6.7947e-06
6.73179e-06
6.67042e-06
6.65013e-06
6.70961e-06
6.88828e-06
7.22794e-06
7.77381e-06
8.57277e-06
9.66489e-06
1.10628e-05
1.27169e-05
1.44802e-05
1.61215e-05
1.7382e-05
1.85456e-05
1.97689e-05
2.10595e-05
2.24232e-05
2.38655e-05
2.53908e-05
2.70025e-05
2.87018e-05
3.04872e-05
3.23537e-05
3.42914e-05
3.62847e-05
3.83106e-05
4.0338e-05
4.23271e-05
4.42292e-05
4.59887e-05
4.75463e-05
4.88437e-05
4.98292e-05
5.04625e-05
5.07185e-05
5.05865e-05
5.00661e-05
4.91535e-05
4.78071e-05
4.58503e-05
4.34123e-05
4.10275e-05
3.86547e-05
3.63388e-05
3.41463e-05
3.21398e-05
3.02124e-05
2.82554e-05
2.62344e-05
2.41716e-05
2.21115e-05
2.0099e-05
1.81701e-05
1.63491e-05
1.46489e-05
1.30708e-05
1.1587e-05
9.92245e-06
8.12577e-06
6.66764e-06
5.70846e-06
5.34894e-06
6.30957e-06
7.13082e-06
7.86515e-06
8.59023e-06
9.36112e-06
1.01847e-05
1.10235e-05
1.18154e-05
1.2498e-05
1.30294e-05
1.33982e-05
1.3615e-05
1.37005e-05
1.36781e-05
1.35681e-05
1.33841e-05
1.31322e-05
1.28113e-05
1.24142e-05
1.19289e-05
1.13377e-05
1.06172e-05
9.74036e-06
8.7077e-06
7.53089e-06
6.26865e-06
5.20258e-06
4.73923e-06
4.7403e-06
4.3696e-06
4.63451e-06
5.01686e-06
5.58533e-06
6.74159e-06
8.90976e-06
1.21663e-05
1.51854e-05
1.69129e-05
1.85781e-05
2.01514e-05
2.15736e-05
2.27667e-05
2.36366e-05
2.41048e-05
2.42801e-05
2.38745e-05
2.27951e-05
1.98278e-05
1.76368e-05
1.55918e-05
1.36362e-05
1.1803e-05
1.01229e-05
8.60201e-06
7.20114e-06
5.42923e-06
4.39286e-06
4.16034e-06
4.376e-06
5.10713e-06
6.34563e-06
7.27914e-06
7.75186e-06
7.36167e-06
1.18095e-06
4.63067e-06
3.80659e-06
4.08769e-06
5.01941e-06
5.14248e-06
4.75559e-06
4.29507e-06
3.91065e-06
3.61828e-06
3.40036e-06
3.23748e-06
3.1141e-06
3.01848e-06
2.94193e-06
2.87812e-06
2.82259e-06
2.77221e-06
2.72507e-06
2.68065e-06
2.62044e-06
2.51739e-06
2.40795e-06
2.39039e-06
2.52683e-06
2.81445e-06
3.2129e-06
3.6589e-06
4.10763e-06
4.4662e-06
4.56464e-06
4.31786e-06
3.81757e-06
3.31387e-06
3.10379e-06
3.45796e-06
4.17745e-06
4.85853e-06
5.26498e-06
5.30694e-06
5.45354e-06
5.81271e-06
6.21456e-06
6.50305e-06
6.48485e-06
6.3168e-06
6.09986e-06
5.97812e-06
5.96066e-06
6.00941e-06
6.11968e-06
6.32114e-06
6.69233e-06
7.32206e-06
8.31345e-06
9.77975e-06
1.18279e-05
1.45215e-05
1.78252e-05
2.15544e-05
2.53807e-05
2.89242e-05
3.18932e-05
3.41751e-05
3.58212e-05
3.69638e-05
3.78683e-05
3.87564e-05
3.96533e-05
4.0569e-05
4.15138e-05
4.24986e-05
4.35347e-05
4.46334e-05
4.5806e-05
4.70627e-05
4.84118e-05
4.98585e-05
5.14032e-05
5.30385e-05
5.47471e-05
5.64992e-05
5.82508e-05
5.99439e-05
6.15088e-05
6.28699e-05
6.39527e-05
6.46927e-05
6.50424e-05
6.49758e-05
6.4488e-05
6.35883e-05
6.22795e-05
6.05292e-05
5.85836e-05
5.66217e-05
5.46433e-05
5.26876e-05
5.07928e-05
4.89872e-05
4.72513e-05
4.55444e-05
4.38331e-05
4.21012e-05
4.03469e-05
3.85774e-05
3.68038e-05
3.50379e-05
3.3289e-05
3.15607e-05
2.98396e-05
2.80509e-05
2.61098e-05
2.38141e-05
2.12043e-05
1.87729e-05
1.70334e-05
1.58001e-05
1.49287e-05
1.43235e-05
1.39187e-05
1.36653e-05
1.35229e-05
1.34557e-05
1.34321e-05
1.34251e-05
1.34152e-05
1.33901e-05
1.33435e-05
1.32732e-05
1.31786e-05
1.30595e-05
1.29143e-05
1.27382e-05
1.25204e-05
1.22393e-05
1.18555e-05
1.13032e-05
1.04814e-05
9.23571e-06
7.46294e-06
5.63412e-06
4.68936e-06
4.75329e-06
4.81387e-06
4.75456e-06
5.40035e-06
6.99411e-06
1.01524e-05
1.49622e-05
1.99091e-05
2.30088e-05
2.40487e-05
2.44196e-05
2.47855e-05
2.51974e-05
2.56659e-05
2.61582e-05
2.65915e-05
2.68397e-05
2.67876e-05
2.62192e-05
2.53875e-05
2.43131e-05
2.32115e-05
2.21196e-05
2.10525e-05
2.00143e-05
1.90036e-05
1.80104e-05
1.69517e-05
1.54174e-05
1.24417e-05
9.11722e-06
7.06077e-06
6.15276e-06
5.90571e-06
5.93951e-06
6.1433e-06
6.44592e-06
7.23531e-07
3.47596e-06
4.56504e-06
5.71575e-06
5.47999e-06
4.80991e-06
4.19206e-06
3.74552e-06
3.45376e-06
3.27373e-06
3.16752e-06
3.10661e-06
3.07065e-06
3.04612e-06
3.02488e-06
3.00262e-06
2.97746e-06
2.94881e-06
2.91658e-06
2.87994e-06
2.8228e-06
2.72767e-06
2.56971e-06
2.36845e-06
2.22101e-06
2.21845e-06
2.3779e-06
2.66266e-06
3.02712e-06
3.41279e-06
3.72558e-06
3.86179e-06
3.78028e-06
3.59852e-06
3.58427e-06
4.01009e-06
4.88229e-06
5.80264e-06
6.51065e-06
7.02494e-06
6.89075e-06
6.6312e-06
6.53306e-06
6.32886e-06
6.09848e-06
5.94298e-06
5.90629e-06
6.02752e-06
6.31896e-06
6.81663e-06
7.60431e-06
8.80568e-06
1.05718e-05
1.30405e-05
1.62722e-05
2.01617e-05
2.43861e-05
2.84723e-05
3.19844e-05
3.46966e-05
3.66207e-05
3.79113e-05
3.87547e-05
3.93057e-05
3.96705e-05
3.99195e-05
4.01501e-05
4.03826e-05
4.06242e-05
4.08831e-05
4.11701e-05
4.14987e-05
4.1885e-05
4.23479e-05
4.29085e-05
4.35896e-05
4.44148e-05
4.54063e-05
4.65831e-05
4.79573e-05
4.95303e-05
5.1288e-05
5.31972e-05
5.52032e-05
5.72297e-05
5.91833e-05
6.0962e-05
6.24672e-05
6.36151e-05
6.43461e-05
6.46301e-05
6.4461e-05
6.38384e-05
6.27579e-05
6.14751e-05
6.00798e-05
5.8612e-05
5.71131e-05
5.56148e-05
5.41384e-05
5.26909e-05
5.12698e-05
4.98701e-05
4.84871e-05
4.71177e-05
4.57601e-05
4.44135e-05
4.3078e-05
4.17535e-05
4.0439e-05
3.91301e-05
3.78141e-05
3.64678e-05
3.50466e-05
3.34575e-05
3.17029e-05
2.99206e-05
2.82145e-05
2.666e-05
2.52988e-05
2.41411e-05
2.31721e-05
2.23613e-05
2.16717e-05
2.10665e-05
2.05148e-05
1.99938e-05
1.94891e-05
1.89934e-05
1.85039e-05
1.80191e-05
1.75367e-05
1.70519e-05
1.65556e-05
1.6031e-05
1.54446e-05
1.4728e-05
1.37481e-05
1.22771e-05
1.00623e-05
7.37264e-06
5.42682e-06
4.87695e-06
5.01924e-06
5.02127e-06
5.4754e-06
7.26815e-06
1.10322e-05
1.65824e-05
2.16004e-05
2.41002e-05
2.45562e-05
2.41607e-05
2.36796e-05
2.33373e-05
2.31884e-05
2.32596e-05
2.35335e-05
2.39298e-05
2.42868e-05
2.43831e-05
2.41567e-05
2.36935e-05
2.3084e-05
2.24272e-05
2.17861e-05
2.11901e-05
2.06456e-05
2.01482e-05
1.96885e-05
1.92426e-05
1.873e-05
1.78818e-05
1.6054e-05
1.35714e-05
1.1316e-05
9.63008e-06
8.41745e-06
7.53335e-06
6.9715e-06
9.97757e-07
4.58607e-06
5.89466e-06
5.39282e-06
4.63606e-06
4.07065e-06
3.73315e-06
3.56063e-06
3.48658e-06
3.46079e-06
3.45002e-06
3.43572e-06
3.4106e-06
3.37444e-06
3.3304e-06
3.28258e-06
3.23493e-06
3.19067e-06
3.15207e-06
3.11966e-06
3.07294e-06
2.99615e-06
2.86958e-06
2.66706e-06
2.40855e-06
2.19423e-06
2.12212e-06
2.21196e-06
2.43137e-06
2.73277e-06
3.0585e-06
3.33897e-06
3.52393e-06
3.68108e-06
4.05765e-06
4.87258e-06
6.07063e-06
7.33485e-06
7.91806e-06
7.27252e-06
6.76947e-06
6.41024e-06
6.1613e-06
5.99888e-06
5.97749e-06
6.13401e-06
6.50354e-06
7.138e-06
8.10773e-06
9.52358e-06
1.15256e-05
1.42306e-05
1.76479e-05
2.15828e-05
2.56154e-05
2.92351e-05
3.20697e-05
3.40222e-05
3.52226e-05
3.58896e-05
3.62236e-05
3.63664e-05
3.64037e-05
3.63815e-05
3.63219e-05
3.62574e-05
3.61822e-05
3.60954e-05
3.59994e-05
3.58998e-05
3.58061e-05
3.57319e-05
3.56955e-05
3.57196e-05
3.58322e-05
3.60659e-05
3.64569e-05
3.70442e-05
3.7866e-05
3.89568e-05
4.03419e-05
4.20314e-05
4.40139e-05
4.62503e-05
4.86709e-05
5.1175e-05
5.36386e-05
5.59282e-05
5.79191e-05
5.95075e-05
6.06285e-05
6.12506e-05
6.13542e-05
6.09759e-05
6.03298e-05
5.94976e-05
5.85353e-05
5.74871e-05
5.63865e-05
5.52577e-05
5.41169e-05
5.29748e-05
5.18384e-05
5.0712e-05
4.95982e-05
4.84983e-05
4.74128e-05
4.63418e-05
4.5285e-05
4.42415e-05
4.32092e-05
4.21846e-05
4.11612e-05
4.01279e-05
3.90644e-05
3.79272e-05
3.67245e-05
3.5489e-05
3.42569e-05
3.30663e-05
3.19478e-05
3.09189e-05
2.99823e-05
2.91292e-05
2.8345e-05
2.76127e-05
2.69165e-05
2.62428e-05
2.55802e-05
2.49189e-05
2.42499e-05
2.3563e-05
2.28441e-05
2.20704e-05
2.12017e-05
2.01644e-05
1.88229e-05
1.69535e-05
1.42791e-05
1.07998e-05
7.47233e-06
5.59144e-06
5.15491e-06
5.18057e-06
5.31453e-06
6.53773e-06
9.83261e-06
1.54074e-05
2.10421e-05
2.39704e-05
2.43457e-05
2.36182e-05
2.26445e-05
2.17357e-05
2.0997e-05
2.05054e-05
2.0321e-05
2.04572e-05
2.08524e-05
2.13258e-05
2.16102e-05
2.1641e-05
2.14382e-05
2.10827e-05
2.06687e-05
2.0265e-05
1.99058e-05
1.95987e-05
1.93371e-05
1.91097e-05
1.89059e-05
1.87103e-05
1.84704e-05
1.80274e-05
1.70898e-05
1.57231e-05
1.4171e-05
1.25951e-05
1.10039e-05
9.5039e-06
1.05286e-06
5.22456e-06
5.17833e-06
4.57144e-06
4.19692e-06
4.05985e-06
4.03502e-06
4.02546e-06
3.98697e-06
3.91275e-06
3.81181e-06
3.696e-06
3.57546e-06
3.45779e-06
3.34839e-06
3.25105e-06
3.16851e-06
3.10247e-06
3.05377e-06
3.02228e-06
2.99868e-06
2.96983e-06
2.91733e-06
2.80806e-06
2.61058e-06
2.35338e-06
2.14274e-06
2.07e-06
2.15108e-06
2.35572e-06
2.64448e-06
2.97875e-06
3.34042e-06
3.83418e-06
4.75008e-06
6.23997e-06
7.79599e-06
8.38519e-06
7.54966e-06
6.80893e-06
6.34697e-06
6.09138e-06
6.0226e-06
6.14715e-06
6.50191e-06
7.12707e-06
8.08474e-06
9.4622e-06
1.13617e-05
1.38759e-05
1.70172e-05
2.06263e-05
2.43347e-05
2.76631e-05
3.02324e-05
3.19219e-05
3.28515e-05
3.32486e-05
3.33306e-05
3.32538e-05
3.31127e-05
3.29569e-05
3.28078e-05
3.26716e-05
3.25462e-05
3.24039e-05
3.22173e-05
3.19866e-05
3.1717e-05
3.14171e-05
3.10984e-05
3.07756e-05
3.04664e-05
3.01931e-05
2.9983e-05
2.98699e-05
2.98943e-05
3.01031e-05
3.05473e-05
3.12793e-05
3.23471e-05
3.37882e-05
3.56212e-05
3.7837e-05
4.03908e-05
4.31949e-05
4.61185e-05
4.9001e-05
5.16825e-05
5.40036e-05
5.58589e-05
5.71862e-05
5.79263e-05
5.81733e-05
5.81042e-05
5.77923e-05
5.7297e-05
5.66658e-05
5.59361e-05
5.51364e-05
5.42882e-05
5.34077e-05
5.25075e-05
5.15969e-05
5.06828e-05
4.97703e-05
4.88631e-05
4.79637e-05
4.70739e-05
4.61945e-05
4.53258e-05
4.44672e-05
4.36167e-05
4.27709e-05
4.19238e-05
4.10644e-05
4.01715e-05
3.92577e-05
3.8333e-05
3.74118e-05
3.65098e-05
3.56404e-05
3.48118e-05
3.40262e-05
3.32811e-05
3.25706e-05
3.18869e-05
3.12211e-05
3.05635e-05
2.99027e-05
2.92244e-05
2.85093e-05
2.77284e-05
2.68354e-05
2.57519e-05
2.43445e-05
2.23974e-05
1.96178e-05
1.57991e-05
1.13546e-05
7.68255e-06
5.82658e-06
5.35251e-06
5.26278e-06
5.66909e-06
7.79229e-06
1.25568e-05
1.89105e-05
2.33763e-05
2.46093e-05
2.40111e-05
2.28415e-05
2.1595e-05
2.03954e-05
1.93302e-05
1.85231e-05
1.80825e-05
1.80586e-05
1.84157e-05
1.89331e-05
1.938e-05
1.96313e-05
1.96579e-05
1.95184e-05
1.93015e-05
1.90788e-05
1.88881e-05
1.87388e-05
1.8624e-05
1.85313e-05
1.84486e-05
1.83659e-05
1.82703e-05
1.813e-05
1.78596e-05
1.73352e-05
1.65298e-05
1.54573e-05
1.40986e-05
1.24786e-05
9.62526e-07
4.90418e-06
4.83064e-06
4.69905e-06
4.73781e-06
4.73805e-06
4.62334e-06
4.42932e-06
4.2081e-06
3.98923e-06
3.784e-06
3.59571e-06
3.42483e-06
3.27153e-06
3.13699e-06
3.02322e-06
2.93208e-06
2.8639e-06
2.81713e-06
2.78986e-06
2.78211e-06
2.78855e-06
2.7933e-06
2.76672e-06
2.6657e-06
2.46825e-06
2.23157e-06
2.06724e-06
2.0459e-06
2.17225e-06
2.42732e-06
2.80389e-06
3.34497e-06
4.23742e-06
5.69568e-06
7.44225e-06
8.43773e-06
7.77323e-06
6.90059e-06
6.35838e-06
6.11332e-06
6.11918e-06
6.37229e-06
6.89599e-06
7.73836e-06
8.96258e-06
1.06503e-05
1.28805e-05
1.56848e-05
1.89816e-05
2.2514e-05
2.58717e-05
2.86432e-05
3.06019e-05
3.17732e-05
3.23484e-05
3.25533e-05
3.25676e-05
3.2504e-05
3.2421e-05
3.23418e-05
3.22696e-05
3.21978e-05
3.21169e-05
3.19781e-05
3.17249e-05
3.1358e-05
3.08886e-05
3.03343e-05
2.97169e-05
2.90609e-05
2.8392e-05
2.77358e-05
2.7118e-05
2.65657e-05
2.61089e-05
2.57829e-05
2.563e-05
2.57001e-05
2.60484e-05
2.67329e-05
2.78088e-05
2.93206e-05
3.12929e-05
3.372e-05
3.65499e-05
3.96681e-05
4.28971e-05
4.60652e-05
4.89406e-05
5.13851e-05
5.32885e-05
5.45414e-05
5.53534e-05
5.5806e-05
5.59673e-05
5.58971e-05
5.56453e-05
5.52528e-05
5.47521e-05
5.41688e-05
5.35234e-05
5.28318e-05
5.21071e-05
5.13594e-05
5.05969e-05
4.98259e-05
4.90513e-05
4.8277e-05
4.75058e-05
4.67397e-05
4.59798e-05
4.52264e-05
4.44789e-05
4.3736e-05
4.29947e-05
4.2248e-05
4.14917e-05
4.07334e-05
3.99782e-05
3.92327e-05
3.85036e-05
3.77961e-05
3.7113e-05
3.64547e-05
3.58191e-05
3.52021e-05
3.45982e-05
3.39991e-05
3.33935e-05
3.27644e-05
3.20859e-05
3.13166e-05
3.03882e-05
2.91857e-05
2.75199e-05
2.51048e-05
2.16078e-05
1.69363e-05
1.18583e-05
7.97443e-06
6.07119e-06
5.48192e-06
5.31944e-06
5.98837e-06
9.00182e-06
1.49737e-05
2.13371e-05
2.46411e-05
2.49904e-05
2.40691e-05
2.27529e-05
2.13177e-05
1.98326e-05
1.84219e-05
1.72712e-05
1.65534e-05
1.63425e-05
1.66028e-05
1.71352e-05
1.77205e-05
1.81743e-05
1.84203e-05
1.84873e-05
1.84532e-05
1.83897e-05
1.83385e-05
1.83126e-05
1.83086e-05
1.83162e-05
1.8324e-05
1.83221e-05
1.83006e-05
1.82451e-05
1.81275e-05
1.78917e-05
1.74724e-05
1.68295e-05
1.59127e-05
1.46681e-05
1.05718e-06
4.86842e-06
5.22271e-06
5.41524e-06
5.33203e-06
5.03624e-06
4.68062e-06
4.35094e-06
4.06562e-06
3.8182e-06
3.60011e-06
3.40437e-06
3.22619e-06
3.06511e-06
2.92473e-06
2.80987e-06
2.72421e-06
2.66769e-06
2.63459e-06
2.61785e-06
2.62155e-06
2.64455e-06
2.67487e-06
2.68849e-06
2.64441e-06
2.50383e-06
2.28753e-06
2.09404e-06
2.02147e-06
2.10827e-06
2.36361e-06
2.82684e-06
3.6297e-06
4.97425e-06
6.69437e-06
8.06107e-06
7.86783e-06
6.99255e-06
6.40188e-06
6.16286e-06
6.2279e-06
6.5807e-06
7.24146e-06
8.25716e-06
9.69475e-06
1.16268e-05
1.41093e-05
1.71317e-05
2.05552e-05
2.4081e-05
2.73113e-05
2.99101e-05
3.17513e-05
3.29281e-05
3.36448e-05
3.41021e-05
3.44416e-05
3.47402e-05
3.50264e-05
3.52987e-05
3.55391e-05
3.57221e-05
3.58204e-05
3.58085e-05
3.55755e-05
3.51373e-05
3.45013e-05
3.36847e-05
3.2714e-05
3.16242e-05
3.04549e-05
2.92481e-05
2.80456e-05
2.68874e-05
2.58125e-05
2.4859e-05
2.40655e-05
2.34727e-05
2.31241e-05
2.30653e-05
2.33451e-05
2.40164e-05
2.51315e-05
2.67354e-05
2.88598e-05
3.15033e-05
3.45955e-05
3.79394e-05
4.13933e-05
4.46326e-05
4.75159e-05
4.97694e-05
5.15268e-05
5.28366e-05
5.37552e-05
5.43431e-05
5.46581e-05
5.47512e-05
5.46652e-05
5.44356e-05
5.40913e-05
5.36558e-05
5.31484e-05
5.25852e-05
5.19791e-05
5.13409e-05
5.06794e-05
5.00018e-05
4.93138e-05
4.86198e-05
4.79234e-05
4.72272e-05
4.65328e-05
4.58415e-05
4.51537e-05
4.44693e-05
4.37874e-05
4.31039e-05
4.24246e-05
4.17526e-05
4.10912e-05
4.04441e-05
3.98144e-05
3.92039e-05
3.86131e-05
3.8041e-05
3.74849e-05
3.69402e-05
3.63998e-05
3.58518e-05
3.52777e-05
3.46468e-05
3.39083e-05
3.29769e-05
3.17086e-05
2.98704e-05
2.71253e-05
2.31228e-05
1.78754e-05
1.23897e-05
8.3356e-06
6.32062e-06
5.58736e-06
5.39913e-06
6.33854e-06
9.9102e-06
1.63638e-05
2.2608e-05
2.54547e-05
2.55491e-05
2.46313e-05
2.3284e-05
2.16509e-05
1.98465e-05
1.80685e-05
1.65476e-05
1.55476e-05
1.51352e-05
1.52721e-05
1.58111e-05
1.65163e-05
1.71593e-05
1.76148e-05
1.78773e-05
1.80107e-05
1.80855e-05
1.81477e-05
1.82167e-05
1.82952e-05
1.83793e-05
1.84619e-05
1.85345e-05
1.85858e-05
1.85999e-05
1.85521e-05
1.84078e-05
1.81195e-05
1.76568e-05
1.699e-05
1.60663e-05
1.21163e-06
5.00543e-06
5.76287e-06
5.77887e-06
5.38357e-06
4.91112e-06
4.50384e-06
4.17623e-06
3.90503e-06
3.6701e-06
3.45993e-06
3.26611e-06
3.0841e-06
2.917e-06
2.77282e-06
2.66006e-06
2.58689e-06
2.55714e-06
2.559e-06
2.57052e-06
2.59032e-06
2.61537e-06
2.64145e-06
2.65302e-06
2.61436e-06
2.48729e-06
2.28566e-06
2.10021e-06
2.0329e-06
2.13858e-06
2.46076e-06
3.10941e-06
4.27206e-06
5.88694e-06
7.372e-06
7.71104e-06
7.03292e-06
6.41495e-06
6.18376e-06
6.29289e-06
6.72094e-06
7.48526e-06
8.635e-06
1.02392e-05
1.23692e-05
1.50664e-05
1.82949e-05
2.18848e-05
2.55199e-05
2.88216e-05
3.15074e-05
3.3506e-05
3.49354e-05
3.59915e-05
3.68505e-05
3.76283e-05
3.83814e-05
3.91224e-05
3.98367e-05
4.04938e-05
4.10554e-05
4.14819e-05
4.17374e-05
4.17174e-05
4.14107e-05
4.08266e-05
3.99675e-05
3.88483e-05
3.7499e-05
3.59624e-05
3.42905e-05
3.25386e-05
3.07606e-05
2.90069e-05
2.73271e-05
2.57715e-05
2.43922e-05
2.32458e-05
2.23907e-05
2.1873e-05
2.17264e-05
2.19865e-05
2.26932e-05
2.38899e-05
2.56289e-05
2.79572e-05
3.08803e-05
3.41606e-05
3.77296e-05
4.11284e-05
4.418e-05
4.68152e-05
4.89961e-05
5.073e-05
5.20543e-05
5.302e-05
5.36802e-05
5.40845e-05
5.42761e-05
5.42918e-05
5.41628e-05
5.39152e-05
5.3571e-05
5.31488e-05
5.26645e-05
5.21312e-05
5.156e-05
5.09601e-05
5.03391e-05
4.97031e-05
4.90569e-05
4.84044e-05
4.77486e-05
4.70915e-05
4.64349e-05
4.578e-05
4.51279e-05
4.44774e-05
4.38333e-05
4.31982e-05
4.25748e-05
4.19659e-05
4.13737e-05
4.07999e-05
4.02449e-05
3.97082e-05
3.91879e-05
3.86801e-05
3.81779e-05
3.76697e-05
3.71357e-05
3.65421e-05
3.58315e-05
3.49059e-05
3.36006e-05
3.16517e-05
2.86897e-05
2.43583e-05
1.87455e-05
1.29889e-05
8.76692e-06
6.59203e-06
5.70683e-06
5.51217e-06
6.63864e-06
1.04102e-05
1.67694e-05
2.2717e-05
2.56071e-05
2.60458e-05
2.53798e-05
2.40742e-05
2.22403e-05
2.01217e-05
1.80119e-05
1.61941e-05
1.49012e-05
1.42652e-05
1.42907e-05
1.48401e-05
1.56602e-05
1.6482e-05
1.71326e-05
1.75728e-05
1.78522e-05
1.80406e-05
1.81896e-05
1.83264e-05
1.84628e-05
1.86029e-05
1.87453e-05
1.88838e-05
1.90064e-05
1.90939e-05
1.91183e-05
1.90435e-05
1.88307e-05
1.8439e-05
1.78726e-05
1.71011e-05
1.37528e-06
5.47435e-06
6.17458e-06
5.84105e-06
5.26702e-06
4.76153e-06
4.37194e-06
4.06848e-06
3.81566e-06
3.59288e-06
3.38942e-06
3.19606e-06
3.00887e-06
2.83413e-06
2.68338e-06
2.56951e-06
2.50994e-06
2.52235e-06
2.59479e-06
2.66699e-06
2.68193e-06
2.66988e-06
2.65631e-06
2.63076e-06
2.56072e-06
2.42113e-06
2.24088e-06
2.11061e-06
2.1236e-06
2.34369e-06
2.83742e-06
3.74112e-06
5.09531e-06
6.51784e-06
7.26652e-06
6.97519e-06
6.39222e-06
6.14497e-06
6.28469e-06
6.76427e-06
7.59822e-06
8.83816e-06
1.0558e-05
1.28318e-05
1.56978e-05
1.91071e-05
2.28746e-05
2.66777e-05
3.0151e-05
3.30395e-05
3.52913e-05
3.70232e-05
3.84166e-05
3.96326e-05
4.07771e-05
4.19016e-05
4.30167e-05
4.41062e-05
4.51377e-05
4.60694e-05
4.68548e-05
4.74468e-05
4.77997e-05
4.77965e-05
4.74799e-05
4.68335e-05
4.58469e-05
4.45259e-05
4.28967e-05
4.10065e-05
3.89196e-05
3.67093e-05
3.44461e-05
3.21894e-05
2.99919e-05
2.79075e-05
2.59879e-05
2.42955e-05
2.29186e-05
2.19323e-05
2.1364e-05
2.12336e-05
2.15613e-05
2.23734e-05
2.37222e-05
2.5685e-05
2.83706e-05
3.1489e-05
3.48773e-05
3.83062e-05
4.15586e-05
4.44815e-05
4.69936e-05
4.90736e-05
5.07402e-05
5.20322e-05
5.29957e-05
5.36764e-05
5.41159e-05
5.43512e-05
5.44145e-05
5.43338e-05
5.41333e-05
5.3834e-05
5.34541e-05
5.30092e-05
5.25125e-05
5.19752e-05
5.14067e-05
5.08145e-05
5.02051e-05
4.95833e-05
4.89531e-05
4.83176e-05
4.76794e-05
4.70405e-05
4.6403e-05
4.57679e-05
4.51377e-05
4.45163e-05
4.39062e-05
4.331e-05
4.27296e-05
4.21669e-05
4.16226e-05
4.10968e-05
4.05882e-05
4.00937e-05
3.9607e-05
3.91169e-05
3.86031e-05
3.80302e-05
3.73365e-05
3.64162e-05
3.50906e-05
3.3077e-05
2.99873e-05
2.54648e-05
1.96369e-05
1.36883e-05
9.28253e-06
6.91059e-06
5.86801e-06
5.65385e-06
6.83872e-06
1.04783e-05
1.63534e-05
2.19464e-05
2.51144e-05
2.60922e-05
2.57962e-05
2.46455e-05
2.27534e-05
2.04156e-05
1.80216e-05
1.59189e-05
1.43841e-05
1.35839e-05
1.35442e-05
1.41306e-05
1.50726e-05
1.60647e-05
1.68922e-05
1.74866e-05
1.78861e-05
1.81619e-05
1.83724e-05
1.85547e-05
1.87305e-05
1.89125e-05
1.91052e-05
1.93038e-05
1.94945e-05
1.96538e-05
1.97497e-05
1.97426e-05
1.9593e-05
1.9265e-05
1.87439e-05
1.8036e-05
1.54437e-06
6.05072e-06
6.40082e-06
5.8216e-06
5.18961e-06
4.69041e-06
4.31867e-06
4.03171e-06
3.79251e-06
3.58041e-06
3.38353e-06
3.19148e-06
3.0005e-06
2.81812e-06
2.65773e-06
2.53527e-06
2.47234e-06
2.49318e-06
2.58521e-06
2.65674e-06
2.64898e-06
2.62163e-06
2.58191e-06
2.52195e-06
2.42844e-06
2.30957e-06
2.21808e-06
2.22722e-06
2.39182e-06
2.77051e-06
3.45227e-06
4.4913e-06
5.71505e-06
6.6321e-06
6.7585e-06
6.34895e-06
6.0697e-06
6.20036e-06
6.70783e-06
7.577e-06
8.85848e-06
1.06314e-05
1.29767e-05
1.59379e-05
1.94679e-05
2.33809e-05
2.73567e-05
3.10356e-05
3.41644e-05
3.66819e-05
3.86872e-05
4.03473e-05
4.18183e-05
4.32088e-05
4.45768e-05
4.59395e-05
4.72862e-05
4.85886e-05
4.98079e-05
5.08989e-05
5.18131e-05
5.25004e-05
5.28918e-05
5.29382e-05
5.26559e-05
5.20164e-05
5.09955e-05
4.95832e-05
4.77917e-05
4.56605e-05
4.32588e-05
4.06788e-05
3.80192e-05
3.53547e-05
3.2744e-05
3.0253e-05
2.79332e-05
2.58212e-05
2.40143e-05
2.26428e-05
2.17241e-05
2.12703e-05
2.1285e-05
2.17801e-05
2.27985e-05
2.44284e-05
2.67119e-05
2.95754e-05
3.28456e-05
3.62829e-05
3.96515e-05
4.27694e-05
4.55268e-05
4.78783e-05
4.98242e-05
5.13903e-05
5.26137e-05
5.35343e-05
5.41908e-05
5.46188e-05
5.48509e-05
5.49159e-05
5.48399e-05
5.46459e-05
5.43542e-05
5.39825e-05
5.35462e-05
5.30583e-05
5.253e-05
5.19702e-05
5.13867e-05
5.07856e-05
5.01718e-05
4.95493e-05
4.89212e-05
4.82904e-05
4.76591e-05
4.70296e-05
4.64041e-05
4.57859e-05
4.51775e-05
4.45812e-05
4.39992e-05
4.34332e-05
4.28846e-05