/*--------------------------------*- C++ -*----------------------------------*\
  =========                 |
  \\      /  F ield         | OpenFOAM: The Open Source CFD Toolbox
   \\    /   O peration     | Website:  https://openfoam.org
    \\  /    A nd           | Version:  9
     \\/     M anipulation  |
\*---------------------------------------------------------------------------*/
FoamFile
{
    format      ascii;
    class       volVectorField;
    location    "0.1";
    object      U;
}
// * * * * * * * * * * * * * * * * * * * * * * * * * * * * * * * * * * * * * //

dimensions      [0 1 -1 0 0 0 0];

internalField   nonuniform List<vector> 
12225
(
(9.76904 -0.0583883 0)
(9.31065 -0.0332238 0)
(8.8438 -0.00474929 0)
(8.37722 0.0165054 0)
(7.92775 0.0310843 0)
(7.50024 0.040384 0)
(7.09129 0.0464553 0)
(6.69622 0.0509108 0)
(6.31099 0.0546731 0)
(5.93197 0.0581794 0)
(5.55617 0.0614751 0)
(5.18222 0.0641864 0)
(4.81161 0.0654816 0)
(4.44916 0.0641773 0)
(4.10428 0.0589671 0)
(3.78596 0.0485617 0)
(3.52045 0.0322089 0)
(3.26613 0.00790747 0)
(10.0983 0.0953595 0)
(10.2967 0.157912 0)
(10.4273 0.16193 0)
(10.4962 0.158601 0)
(10.5225 0.156135 0)
(10.5154 0.154092 0)
(10.4785 0.153119 0)
(10.4147 0.153955 0)
(10.3263 0.156851 0)
(10.2147 0.161781 0)
(10.0801 0.168487 0)
(9.92223 0.176295 0)
(9.74098 0.183963 0)
(9.53764 0.189633 0)
(9.31629 0.191056 0)
(9.08254 0.185294 0)
(8.85068 0.170432 0)
(8.61662 0.139433 0)
(10.0089 0.0395665 0)
(10.0571 0.0529119 0)
(10.1119 0.0487234 0)
(10.1638 0.0546108 0)
(10.2168 0.0663905 0)
(10.2718 0.0786203 0)
(10.3266 0.0907454 0)
(10.3792 0.103517 0)
(10.4293 0.117406 0)
(10.4771 0.132655 0)
(10.5227 0.149296 0)
(10.5656 0.166922 0)
(10.6048 0.184478 0)
(10.6386 0.200098 0)
(10.665 0.211301 0)
(10.6811 0.214464 0)
(10.6876 0.207011 0)
(10.6738 0.181657 0)
(10.0047 0.0267643 0)
(10.0298 0.0527843 0)
(10.0573 0.0646704 0)
(10.0776 0.0764417 0)
(10.0951 0.087515 0)
(10.1143 0.0961743 0)
(10.1358 0.103523 0)
(10.1593 0.111058 0)
(10.1855 0.119536 0)
(10.2156 0.129219 0)
(10.2511 0.140083 0)
(10.2935 0.151727 0)
(10.3441 0.163244 0)
(10.4038 0.173065 0)
(10.4724 0.179148 0)
(10.5481 0.178466 0)
(10.6278 0.168951 0)
(10.7064 0.146583 0)
(10.0036 0.0221059 0)
(10.0241 0.0509838 0)
(10.0478 0.0631801 0)
(10.0648 0.0707861 0)
(10.0774 0.0781582 0)
(10.0898 0.0849776 0)
(10.1026 0.0915538 0)
(10.1156 0.0986731 0)
(10.1291 0.106697 0)
(10.1442 0.11557 0)
(10.162 0.124981 0)
(10.1839 0.134322 0)
(10.211 0.142579 0)
(10.2444 0.148254 0)
(10.2849 0.149518 0)
(10.3323 0.144154 0)
(10.3849 0.130423 0)
(10.4423 0.107458 0)
(10.0027 0.0185028 0)
(10.0191 0.0449088 0)
(10.04 0.0568347 0)
(10.0565 0.0642456 0)
(10.0694 0.072268 0)
(10.0818 0.0803641 0)
(10.0945 0.0880121 0)
(10.1071 0.0956398 0)
(10.1198 0.103607 0)
(10.1335 0.111878 0)
(10.1489 0.120123 0)
(10.167 0.127723 0)
(10.1884 0.133699 0)
(10.2137 0.136684 0)
(10.243 0.135029 0)
(10.276 0.126981 0)
(10.3119 0.11098 0)
(10.3493 0.0865822 0)
(10.002 0.0153521 0)
(10.0151 0.0389278 0)
(10.0333 0.0516402 0)
(10.0492 0.0599904 0)
(10.0622 0.0683573 0)
(10.0745 0.0765147 0)
(10.0871 0.0839456 0)
(10.0999 0.0910472 0)
(10.1128 0.0982264 0)
(10.1267 0.105457 0)
(10.1422 0.112366 0)
(10.16 0.118305 0)
(10.1805 0.122326 0)
(10.2039 0.123179 0)
(10.2301 0.11941 0)
(10.2587 0.109524 0)
(10.2888 0.0921859 0)
(10.3189 0.0665594 0)
(10.0015 0.0127362 0)
(10.0121 0.0336643 0)
(10.0278 0.0467471 0)
(10.0429 0.0555272 0)
(10.0556 0.0636311 0)
(10.0677 0.0714371 0)
(10.08 0.0786118 0)
(10.0927 0.0853931 0)
(10.1056 0.0920637 0)
(10.1194 0.0985312 0)
(10.1346 0.104373 0)
(10.1517 0.108927 0)
(10.1708 0.111301 0)
(10.1922 0.110382 0)
(10.2156 0.104918 0)
(10.2403 0.0936349 0)
(10.2657 0.075403 0)
(10.2901 0.0492188 0)
(10.0012 0.0105798 0)
(10.0098 0.0289374 0)
(10.0234 0.0417926 0)
(10.0373 0.0507282 0)
(10.0498 0.0586151 0)
(10.0615 0.066188 0)
(10.0736 0.0732208 0)
(10.086 0.0797552 0)
(10.0987 0.0859337 0)
(10.1122 0.0916332 0)
(10.1267 0.0964372 0)
(10.1427 0.0997164 0)
(10.1601 0.100662 0)
(10.1791 0.0983048 0)
(10.1991 0.0915901 0)
(10.2196 0.0794501 0)
(10.2397 0.0609487 0)
(10.2581 0.0351317 0)
(10.001 0.00876923 0)
(10.008 0.0246509 0)
(10.0197 0.0368802 0)
(10.0326 0.0458135 0)
(10.0445 0.0535276 0)
(10.056 0.0608432 0)
(10.0677 0.0676348 0)
(10.0797 0.0738332 0)
(10.0921 0.0794824 0)
(10.105 0.0844481 0)
(10.1186 0.088341 0)
(10.1333 0.090581 0)
(10.1489 0.0904495 0)
(10.1653 0.0871227 0)
(10.1819 0.0797302 0)
(10.1981 0.0674097 0)
(10.213 0.0494374 0)
(10.2252 0.0249967 0)
(10.0008 0.00721578 0)
(10.0066 0.0207633 0)
(10.0168 0.0321149 0)
(10.0284 0.0408558 0)
(10.0398 0.0483404 0)
(10.0509 0.0553304 0)
(10.0621 0.0618014 0)
(10.0737 0.0676398 0)
(10.0855 0.0728102 0)
(10.0977 0.0771614 0)
(10.1104 0.0803365 0)
(10.1236 0.0818189 0)
(10.1372 0.0809921 0)
(10.1509 0.07718 0)
(10.1642 0.0696973 0)
(10.1762 0.057889 0)
(10.1862 0.0412571 0)
(10.1929 0.0191728 0)
(10.0007 0.00593962 0)
(10.0057 0.0174776 0)
(10.0146 0.0278837 0)
(10.0252 0.0362915 0)
(10.0359 0.0435083 0)
(10.0465 0.0501732 0)
(10.0573 0.0563282 0)
(10.0683 0.0618469 0)
(10.0795 0.0666369 0)
(10.091 0.0705348 0)
(10.1026 0.073223 0)
(10.1144 0.074258 0)
(10.1261 0.0731275 0)
(10.1374 0.0692942 0)
(10.1477 0.0622413 0)
(10.1563 0.0515019 0)
(10.1622 0.0367871 0)
(10.1644 0.0176448 0)
(10.0006 0.00483964 0)
(10.0049 0.0144957 0)
(10.0127 0.0238448 0)
(10.0223 0.0317665 0)
(10.0324 0.0386553 0)
(10.0425 0.0449853 0)
(10.0527 0.0508193 0)
(10.0631 0.0560356 0)
(10.0737 0.0605105 0)
(10.0843 0.0640776 0)
(10.0949 0.0664635 0)
(10.1052 0.0673037 0)
(10.1152 0.0661918 0)
(10.1242 0.0627238 0)
(10.1318 0.0565404 0)
(10.1372 0.047351 0)
(10.1396 0.0350514 0)
(10.138 0.0193966 0)
(10.0005 0.00371602 0)
(10.0041 0.0113659 0)
(10.0109 0.0194482 0)
(10.0195 0.0266813 0)
(10.0288 0.0331208 0)
(10.0382 0.0390507 0)
(10.0478 0.0445223 0)
(10.0575 0.0494276 0)
(10.0672 0.0536335 0)
(10.0767 0.0569825 0)
(10.086 0.0592562 0)
(10.0948 0.0601819 0)
(10.1028 0.0594735 0)
(10.1094 0.0568712 0)
(10.1143 0.0521803 0)
(10.1167 0.0452895 0)
(10.1159 0.0362746 0)
(10.111 0.0250874 0)
(10.0004 0.00257827 0)
(10.0034 0.00812705 0)
(10.0092 0.0147585 0)
(10.0167 0.0210883 0)
(10.0251 0.0269237 0)
(10.0337 0.0323712 0)
(10.0424 0.0374467 0)
(10.0512 0.042057 0)
(10.0599 0.0460799 0)
(10.0683 0.0493837 0)
(10.0762 0.0518144 0)
(10.0833 0.0532002 0)
(10.0893 0.0533814 0)
(10.0937 0.0522434 0)
(10.0962 0.0497474 0)
(10.096 0.0459434 0)
(10.0927 0.0410509 0)
(10.0856 0.0351863 0)
(10.0003 0.00144301 0)
(10.0028 0.00482924 0)
(10.0076 0.00985335 0)
(10.0141 0.015075 0)
(10.0214 0.0201438 0)
(10.0291 0.0250264 0)
(10.0369 0.029693 0)
(10.0447 0.0340629 0)
(10.0523 0.0380399 0)
(10.0595 0.0415338 0)
(10.0659 0.0444601 0)
(10.0714 0.0467463 0)
(10.0757 0.0483507 0)
(10.0783 0.0492853 0)
(10.079 0.0496367 0)
(10.0772 0.0495728 0)
(10.0727 0.0493914 0)
(10.0648 0.049319 0)
(10.0002 0.000327742 0)
(10.0023 0.00152882 0)
(10.0062 0.00482259 0)
(10.0117 0.00875952 0)
(10.018 0.0129095 0)
(10.0247 0.0171464 0)
(10.0315 0.0213997 0)
(10.0383 0.0255987 0)
(10.0448 0.0296798 0)
(10.0508 0.0335997 0)
(10.0561 0.0373384 0)
(10.0604 0.0409051 0)
(10.0635 0.0443475 0)
(10.0652 0.0477643 0)
(10.0651 0.051313 0)
(10.063 0.0552126 0)
(10.0589 0.0597574 0)
(10.0522 0.0652109 0)
(10.0002 -0.000757303 0)
(10.0018 -0.00173325 0)
(10.005 -0.000268303 0)
(10.0096 0.00223499 0)
(10.015 0.00532552 0)
(10.0208 0.00882799 0)
(10.0267 0.0126451 0)
(10.0327 0.0167136 0)
(10.0384 0.0209979 0)
(10.0436 0.0254919 0)
(10.0483 0.0302199 0)
(10.0521 0.0352389 0)
(10.055 0.0406422 0)
(10.0568 0.0465607 0)
(10.0573 0.0531621 0)
(10.0565 0.0606504 0)
(10.0544 0.0692496 0)
(10.0507 0.079209 0)
(10.0001 -0.00183162 0)
(10.0015 -0.00498223 0)
(10.0042 -0.00546772 0)
(10.0082 -0.00455422 0)
(10.013 -0.00267778 0)
(10.0183 -4.86876e-05 0)
(10.0237 0.0032099 0)
(10.0293 0.00703325 0)
(10.0347 0.0113965 0)
(10.0399 0.0163049 0)
(10.0447 0.0217899 0)
(10.049 0.0279103 0)
(10.0528 0.0347494 0)
(10.056 0.042413 0)
(10.0586 0.0510217 0)
(10.0606 0.0607132 0)
(10.062 0.0716059 0)
(10.0628 0.0838981 0)
(10.0002 -0.00278678 0)
(10.0015 -0.00782832 0)
(10.0043 -0.0100917 0)
(10.0084 -0.0106468 0)
(10.0132 -0.00991938 0)
(10.0185 -0.00817288 0)
(10.0241 -0.00556581 0)
(10.0298 -0.00217637 0)
(10.0356 0.00195925 0)
(10.0413 0.00682768 0)
(10.0469 0.0124407 0)
(10.0523 0.0188341 0)
(10.0575 0.0260618 0)
(10.0626 0.0341885 0)
(10.0674 0.0432825 0)
(10.072 0.0534177 0)
(10.0766 0.0646358 0)
(10.0811 0.0770813 0)
(10.0002 -0.00363105 0)
(10.0018 -0.0102803 0)
(10.005 -0.0140251 0)
(10.0095 -0.0157412 0)
(10.0147 -0.0159224 0)
(10.0204 -0.0149315 0)
(10.0263 -0.0129566 0)
(10.0324 -0.0100741 0)
(10.0387 -0.00633556 0)
(10.0451 -0.00178903 0)
(10.0515 0.00353887 0)
(10.0579 0.00964855 0)
(10.0643 0.016563 0)
(10.0708 0.0243157 0)
(10.0774 0.0329408 0)
(10.0841 0.0424759 0)
(10.091 0.0529224 0)
(10.0981 0.0643868 0)
(10.0003 -0.00456141 0)
(10.0023 -0.012885 0)
(10.0063 -0.0180138 0)
(10.0116 -0.0206758 0)
(10.0175 -0.0215736 0)
(10.0236 -0.0212391 0)
(10.03 -0.0198841 0)
(10.0367 -0.0175669 0)
(10.0436 -0.0143411 0)
(10.0506 -0.0102649 0)
(10.0577 -0.00536534 0)
(10.065 0.000332254 0)
(10.0724 0.00682174 0)
(10.08 0.0140992 0)
(10.0879 0.0221706 0)
(10.096 0.0310319 0)
(10.1045 0.0406564 0)
(10.1133 0.0511304 0)
(10.0004 -0.00567457 0)
(10.0032 -0.015845 0)
(10.0084 -0.0222313 0)
(10.0148 -0.025616 0)
(10.0214 -0.0270676 0)
(10.028 -0.0272444 0)
(10.0349 -0.0263459 0)
(10.0421 -0.0244744 0)
(10.0496 -0.0217644 0)
(10.0573 -0.0183226 0)
(10.0652 -0.0142023 0)
(10.0734 -0.00939922 0)
(10.0817 -0.00391944 0)
(10.0904 0.0022564 0)
(10.0994 0.00912821 0)
(10.1087 0.0166879 0)
(10.1185 0.0248731 0)
(10.1288 0.033757 0)
(10.0005 -0.00709297 0)
(10.0046 -0.0193437 0)
(10.0114 -0.0266283 0)
(10.0191 -0.0304268 0)
(10.0265 -0.0324942 0)
(10.0336 -0.0333531 0)
(10.0411 -0.0329074 0)
(10.0488 -0.0312311 0)
(10.0567 -0.0285752 0)
(10.0648 -0.0251364 0)
(10.0731 -0.0210129 0)
(10.0817 -0.0162286 0)
(10.0906 -0.0108108 0)
(10.0999 -0.00482297 0)
(10.1096 0.00166341 0)
(10.1197 0.00862078 0)
(10.1303 0.0160276 0)
(10.1414 0.0239297 0)
(10.0008 -0.00895678 0)
(10.0068 -0.0237428 0)
(10.0157 -0.0312548 0)
(10.0246 -0.0345396 0)
(10.0324 -0.0367728 0)
(10.0402 -0.0385078 0)
(10.0485 -0.0392885 0)
(10.057 -0.038991 0)
(10.0656 -0.0377691 0)
(10.0743 -0.0357465 0)
(10.0833 -0.0329691 0)
(10.0925 -0.0295018 0)
(10.1021 -0.0254083 0)
(10.1119 -0.0207869 0)
(10.1221 -0.0157009 0)
(10.1328 -0.0101379 0)
(10.144 -0.0040733 0)
(10.1558 0.00249446 0)
(10.0013 -0.0112025 0)
(10.01 -0.0292457 0)
(10.022 -0.0374731 0)
(10.0319 -0.039915 0)
(10.0396 -0.0404942 0)
(10.0472 -0.040174 0)
(10.0556 -0.039016 0)
(10.0643 -0.0372348 0)
(10.0732 -0.0350203 0)
(10.0823 -0.032413 0)
(10.0916 -0.0293975 0)
(10.1013 -0.0259856 0)
(10.1113 -0.0222027 0)
(10.1216 -0.0180497 0)
(10.1324 -0.0135291 0)
(10.1438 -0.00864474 0)
(10.1557 -0.00344221 0)
(10.168 0.00212084 0)
(10.0017 -0.013729 0)
(10.0135 -0.0327052 0)
(10.0291 -0.0434886 0)
(10.0412 -0.0516619 0)
(10.0503 -0.0578862 0)
(10.0593 -0.0613178 0)
(10.069 -0.0623491 0)
(10.079 -0.061874 0)
(10.0893 -0.0604311 0)
(10.0998 -0.0582291 0)
(10.1107 -0.0553843 0)
(10.1219 -0.0520088 0)
(10.1335 -0.0481971 0)
(10.1453 -0.0440215 0)
(10.1575 -0.0395475 0)
(10.17 -0.0348668 0)
(10.183 -0.0300809 0)
(10.1963 -0.0250704 0)
(10.0032 -0.0202375 0)
(10.023 -0.026353 0)
(10.0474 -0.0194317 0)
(10.0698 -0.0182716 0)
(10.092 -0.0217885 0)
(10.1155 -0.0255409 0)
(10.1394 -0.0283053 0)
(10.1626 -0.030287 0)
(10.1849 -0.0315801 0)
(10.206 -0.0321207 0)
(10.226 -0.0318996 0)
(10.2448 -0.0309848 0)
(10.2625 -0.0294703 0)
(10.279 -0.027448 0)
(10.2945 -0.0250049 0)
(10.3093 -0.0222662 0)
(10.3236 -0.0193365 0)
(10.337 -0.0163857 0)
(10.0507 -0.0661686 0)
(10.1708 -0.117077 0)
(10.2638 -0.121923 0)
(10.3287 -0.11846 0)
(10.3763 -0.114873 0)
(10.4117 -0.110507 0)
(10.4358 -0.105426 0)
(10.4499 -0.100165 0)
(10.4562 -0.0948958 0)
(10.4565 -0.0895748 0)
(10.4524 -0.0841684 0)
(10.4451 -0.0786889 0)
(10.4358 -0.0731692 0)
(10.4252 -0.0676454 0)
(10.4142 -0.0621542 0)
(10.4034 -0.0568 0)
(10.393 -0.0516177 0)
(10.3839 -0.0471573 0)
(9.8759 0.0448501 0)
(9.62984 0.0261998 0)
(9.37286 0.00561509 0)
(9.11272 -0.00919456 0)
(8.86417 -0.0192991 0)
(8.63342 -0.0253543 0)
(8.4207 -0.0284647 0)
(8.22543 -0.0296742 0)
(8.0475 -0.029618 0)
(7.88675 -0.0286553 0)
(7.74267 -0.0270337 0)
(7.61449 -0.0249469 0)
(7.50132 -0.0225496 0)
(7.40223 -0.0199605 0)
(7.3162 -0.0172731 0)
(7.24224 -0.0146005 0)
(7.17881 -0.0120099 0)
(7.12598 -0.00994086 0)
(-0.391821 0.6655 -4.72894e-20)
(-1.05365 0.558455 4.11579e-20)
(-1.70192 0.291764 0)
(-2.31696 -0.031367 0)
(-2.73516 -0.382124 0)
(-2.68755 -0.738922 -3.70278e-20)
(-2.14247 -1.12902 0)
(-1.27804 -1.49581 0)
(-0.190608 -1.72765 0)
(1.02008 -1.79044 0)
(2.29545 -1.71508 1.18789e-20)
(3.55971 -1.56221 0)
(4.72758 -1.37325 0)
(5.75059 -1.1693 0)
(6.61316 -0.960854 0)
(7.31355 -0.752476 2.31383e-20)
(7.85102 -0.543638 0)
(8.21588 -0.331105 0)
(8.42508 -0.100329 0)
(8.41684 0.15978 0)
(8.17652 0.443335 0)
(7.71539 0.727593 0)
(7.03637 0.982938 0)
(6.15089 1.17517 3.16676e-20)
(5.0923 1.26466 -3.35174e-20)
(3.91392 1.213 3.73092e-20)
(2.69506 0.967214 4.4075e-20)
(1.61449 0.482909 0)
(0.871371 0.0309062 0)
(0.36001 -0.000793824 -7.62536e-20)
(-0.069766 0.163677 -7.91901e-20)
(-0.490769 0.187758 0)
(-0.918002 0.0742759 0)
(-1.25266 -0.130755 -7.10229e-20)
(-1.33448 -0.385786 0)
(-1.11689 -0.68543 0)
(-0.606869 -0.983239 7.08415e-20)
(0.179364 -1.14927 0)
(1.1169 -1.02071 5.05736e-20)
(1.95894 -0.683103 9.34667e-20)
(2.47287 -0.279302 0)
(2.5137 0.0632993 0)
(2.29368 0.283822 0)
(2.11045 0.298049 0)
(2.0763 0.0345906 0)
(2.11339 -0.370821 9.7231e-20)
(2.08247 -0.597124 9.89698e-20)
(1.8271 -0.414563 1.05419e-19)
(1.19979 0.0644347 0)
(0.20946 0.524906 -1.20792e-19)
(-0.994009 0.821106 0)
(-2.28115 0.992314 9.33177e-20)
(-3.59046 1.06479 8.81379e-20)
(-4.86456 1.06153 0)
(-6.06071 1.00474 0)
(-7.15102 0.913909 0)
(-8.12021 0.80473 9.26626e-20)
(-8.96261 0.688802 0)
(-9.67929 0.574066 0)
(-10.2756 0.465514 0)
(-10.7592 0.366044 0)
(-11.1389 0.277195 0)
(-11.424 0.199638 0)
(-11.6237 0.133804 0)
(-11.7461 0.079951 0)
(-11.8009 0.0373641 -1.0417e-19)
(-11.7975 0.00457262 0)
(-11.7538 -0.0211675 0)
(-11.6728 -0.043179 9.92667e-20)
(-11.5583 -0.0629089 9.67844e-20)
(-11.4129 -0.0811469 0)
(-11.238 -0.0984528 -9.06471e-20)
(-11.0344 -0.115295 8.701e-20)
(-10.8019 -0.132098 0)
(-10.5398 -0.14924 -7.85764e-20)
(-10.2468 -0.16704 0)
(-9.92095 -0.18573 0)
(-9.55993 -0.205409 6.26719e-20)
(-9.16139 -0.226013 0)
(-8.72319 -0.247275 -4.94518e-20)
(-8.24388 -0.268701 0)
(-7.72313 -0.289582 3.37747e-20)
(-7.16219 -0.309027 2.49728e-20)
(-6.56421 -0.326044 1.55498e-20)
(-5.9344 -0.339657 1.11086e-20)
(-5.27987 -0.349031 9.88208e-21)
(-4.60925 -0.353602 0)
(-3.93215 -0.353153 0)
(-3.25853 -0.347808 0)
(-2.59817 -0.337902 9.99633e-20)
(-1.95987 -0.323871 1.22996e-19)
(-1.35036 -0.306353 -1.45886e-19)
(-0.774179 -0.286047 0)
(-0.235162 -0.262618 1.86069e-19)
(0.265479 -0.238927 1.86769e-19)
(0.729676 -0.215401 1.76786e-19)
(1.1548 -0.192946 0)
(1.54008 -0.171475 0)
(1.88765 -0.149389 0)
(2.19883 -0.128361 1.42586e-19)
(2.47499 -0.111894 0)
(2.71956 -0.0994994 0)
(2.93628 -0.0883949 -1.23395e-19)
(3.12736 -0.0771709 0)
(3.29429 -0.0658681 0)
(3.43863 -0.0548698 -1.08889e-19)
(3.56195 -0.0443142 0)
(3.66539 -0.0339406 0)
(3.74912 -0.0241435 9.8311e-20)
(3.81397 -0.0152104 9.55739e-20)
(3.86154 -0.000754392 0)
(3.87223 0.0258254 -9.13191e-20)
(3.8332 0.0615302 0)
(3.74385 0.0993977 8.86524e-20)
(3.60396 0.137803 0)
(3.41867 0.170648 8.76586e-20)
(3.20158 0.176392 8.74625e-20)
(2.96765 0.153546 0)
(2.73999 0.118318 0)
(2.53663 0.0758534 0)
(2.37021 0.0329604 0)
(2.24744 -0.00377309 0)
(2.16743 -0.0303032 0)
(2.12318 -0.0454339 0)
(2.10428 -0.0504467 8.63129e-20)
(2.09975 -0.0483141 -8.59143e-20)
(2.10062 -0.0424859 0)
(2.10096 -0.0359165 0)
(2.09769 -0.0307414 0)
(2.0902 -0.0280427 0)
(2.07934 -0.0278534 -1.68796e-19)
(2.06658 -0.0294079 0)
(2.05338 -0.0315082 1.68604e-19)
(2.04079 -0.0328911 -1.68725e-19)
(2.02945 -0.0325046 0)
(2.01984 -0.0298641 0)
(2.01275 -0.0256484 0)
(2.01002 -0.0223129 1.70242e-19)
(2.01709 -0.0241292 1.70439e-19)
(2.0502 -0.0350268 0)
(2.14081 -0.0548145 1.69341e-19)
(2.32037 -0.0738108 1.68108e-19)
(2.56934 -0.0817663 -1.67424e-19)
(2.72995 -0.0721253 0)
(2.48884 0.044304 0)
(1.34969 0.379163 -1.44282e-19)
(-0.702798 0.668103 0)
(-2.78659 0.660621 0)
(-4.49093 0.509136 0)
(-5.72704 0.336024 0)
(-6.51565 0.187098 -1.15254e-19)
(-6.9152 0.0711109 -1.29512e-19)
(-6.98543 -0.0140322 0)
(-6.82238 -0.0777915 -1.20699e-19)
(-6.45569 -0.133965 0)
(-5.89609 -0.185946 0)
(-5.15564 -0.233138 -2.85783e-20)
(-4.25615 -0.273018 0)
(-3.23372 -0.302143 7.22524e-20)
(-2.13574 -0.316908 0)
(-1.01251 -0.315055 0)
(0.0873939 -0.295104 2.1532e-19)
(1.12811 -0.261479 0)
(2.07816 -0.224487 2.05229e-19)
(2.91302 -0.188961 0)
(3.62951 -0.156591 0)
(4.23706 -0.126589 0)
(4.74393 -0.0976906 -1.51094e-19)
(5.155 -0.0755685 0)
(5.49091 -0.0620356 1.3113e-19)
(5.75717 -0.0148329 0)
(5.7807 0.0936708 0)
(5.46294 0.227955 0)
(4.81531 0.31315 0)
(3.9554 0.29238 0)
(3.08738 0.175393 0)
(2.37715 0.0218681 0)
(1.89945 -0.10327 -1.98065e-19)
(1.72 -0.177724 0)
(1.5567 -0.13961 0)
(-0.133332 1.83283 1.45165e-19)
(-0.318532 1.66227 -1.44509e-19)
(-0.520352 1.42246 0)
(-0.683337 1.15061 1.17337e-19)
(-0.369727 0.7138 0)
(0.398137 -0.517893 5.22053e-20)
(1.28074 -1.95616 -7.6437e-20)
(2.27537 -3.06579 -5.34465e-20)
(3.31763 -3.69098 0)
(4.35531 -3.88366 -3.44588e-20)
(5.32999 -3.76444 -7.17127e-21)
(6.21007 -3.45882 0)
(6.98762 -3.05904 0)
(7.66198 -2.61974 0)
(8.23501 -2.16955 0)
(8.7096 -1.72142 -1.97443e-20)
(9.08932 -1.27804 0)
(9.38327 -0.835887 6.26211e-20)
(9.57787 -0.384803 0)
(9.72477 0.0889645 0)
(9.82085 0.590415 -6.60607e-20)
(9.83237 1.11426 0)
(9.72574 1.64703 6.10515e-20)
(9.46124 2.16164 -2.22186e-20)
(8.99856 2.60993 2.15371e-20)
(8.30687 2.9255 -2.18234e-20)
(7.37016 3.02339 -2.35209e-20)
(6.22973 2.82341 0)
(4.93869 2.35687 0)
(3.55028 1.76418 3.91371e-20)
(2.30321 1.22425 -5.16744e-20)
(1.40977 0.939914 0)
(0.828795 0.857838 0)
(0.55422 0.642741 7.89313e-20)
(0.430762 0.0428123 0)
(0.531188 -0.821176 0)
(0.904315 -1.74017 -5.51438e-20)
(1.43201 -2.28203 0)
(1.97123 -2.1119 4.70235e-20)
(2.37769 -1.41203 -8.48335e-20)
(2.56058 -0.536316 0)
(2.59375 0.14441 0)
(2.51098 0.314818 -1.86841e-19)
(2.32439 0.0298313 -1.92471e-19)
(1.80102 -0.0483868 -2.09658e-19)
(0.670161 0.528302 1.10199e-19)
(-0.864115 1.29877 -9.03313e-20)
(-2.4823 1.93794 -2.19841e-19)
(-4.09406 2.41689 1.28779e-19)
(-5.6152 2.69819 5.2379e-20)
(-6.98342 2.79136 0)
(-8.17297 2.73398 -4.90857e-20)
(-9.17309 2.56769 6.98122e-20)
(-9.98582 2.33229 0)
(-10.6256 2.0615 0)
(-11.1145 1.78107 0)
(-11.4778 1.50852 -7.26326e-20)
(-11.7406 1.25429 0)
(-11.9253 1.02334 1.79903e-19)
(-12.0506 0.816982 0)
(-12.1313 0.634314 1.95517e-19)
(-12.1785 0.473384 0)
(-12.2 0.331977 -2.05399e-19)
(-12.2011 0.20826 0)
(-12.1855 0.101035 2.09118e-19)
(-12.1527 0.00901822 -1.06076e-19)
(-12.1005 -0.0696107 0)
(-12.0167 -0.137477 -2.01433e-19)
(-11.9035 -0.197753 -9.70897e-20)
(-11.7614 -0.252511 -9.46078e-20)
(-11.5917 -0.303326 0)
(-11.3952 -0.351564 -9.08789e-20)
(-11.1723 -0.398491 -8.48189e-20)
(-10.9228 -0.445307 0)
(-10.6458 -0.493117 7.63647e-20)
(-10.3396 -0.542864 -1.45803e-19)
(-10.0022 -0.595237 0)
(-9.63091 -0.65055 -6.04689e-20)
(-9.22299 -0.708619 0)
(-8.77585 -0.768646 1.45789e-19)
(-8.28755 -0.829153 0)
(-7.75735 -0.887983 -1.00193e-19)
(-7.18614 -0.942426 -2.36243e-20)
(-6.57695 -0.989462 1.85299e-20)
(-5.93503 -1.02611 1.7936e-20)
(-5.26778 -1.04984 2.07277e-21)
(-4.58432 -1.05895 0)
(-3.89481 -1.05282 0)
(-3.20966 -1.032 0)
(-2.53879 -0.997981 -2.70939e-19)
(-1.89094 -0.952884 -1.13109e-19)
(-1.27271 -0.899113 1.34012e-19)
(-0.688256 -0.839315 0)
(-0.142353 -0.775443 1.64999e-19)
(0.363281 -0.709344 -1.69032e-19)
(0.832152 -0.644099 -1.61924e-19)
(1.26131 -0.582019 0)
(1.65078 -0.52347 0)
(2.0031 -0.468691 0)
(2.32133 -0.417329 -1.3477e-19)
(2.60828 -0.368982 0)
(2.86568 -0.323952 2.45061e-19)
(3.09504 -0.282934 3.52846e-19)
(3.2986 -0.246058 -2.25446e-19)
(3.47898 -0.212837 0)
(3.63844 -0.182717 -1.04049e-19)
(3.77875 -0.155195 0)
(3.90141 -0.129615 -1.95093e-19)
(4.00835 -0.105392 9.42754e-20)
(4.1003 -0.0816245 9.16088e-20)
(4.17679 -0.0543389 0)
(4.25673 -0.020477 2.61477e-19)
(4.34993 0.0182221 -1.69123e-19)
(4.4503 0.0614335 -8.23939e-20)
(4.5494 0.106853 0)
(4.63473 0.148964 -7.74124e-20)
(4.69378 0.183901 -2.25147e-19)
(4.7225 0.208331 0)
(4.71949 0.216513 -1.43626e-19)
(4.68957 0.206523 -1.41512e-19)
(4.64029 0.181974 -1.40058e-19)
(4.57876 0.149247 0)
(4.51047 0.11512 0)
(4.43918 0.0851094 0)
(4.36738 0.062317 6.9575e-20)
(4.29678 0.0472712 6.95451e-20)
(4.22821 0.0389594 0)
(4.16131 0.0358049 1.39664e-19)
(4.09497 0.0361072 1.39967e-19)
(4.02773 0.0383757 0)
(3.95782 0.0414954 1.41021e-19)
(3.8833 0.0446552 2.83233e-19)
(3.80241 0.0471604 -1.42654e-19)
(3.71397 0.0481959 -1.43622e-19)
(3.61814 0.0467471 0)
(3.51713 0.0418726 0)
(3.41531 0.0331222 0)
(3.3182 0.019968 -1.50427e-19)
(3.23231 -0.00151659 1.52436e-19)
(3.17295 -0.042226 3.07176e-19)
(3.17561 -0.114624 -1.53054e-19)
(3.27292 -0.19339 1.53576e-19)
(3.40518 -0.167726 1.57274e-19)
(3.18271 0.165616 0)
(1.67583 0.962933 0)
(-1.05368 1.73477 -9.09112e-20)
(-3.40984 1.86059 0)
(-4.93763 1.5514 0)
(-5.78812 1.1144 -1.14831e-19)
(-6.21909 0.716683 0)
(-6.41961 0.396144 -1.34367e-19)
(-6.48965 0.141522 1.3269e-19)
(-6.46041 -0.0644393 0)
(-6.26701 -0.240287 -1.34091e-19)
(-5.88924 -0.401515 0)
(-5.32735 -0.552069 0)
(-4.58872 -0.688815 2.79876e-20)
(-3.69237 -0.80402 2.59367e-20)
(-2.67269 -0.887608 -6.92755e-20)
(-1.57653 -0.929771 0)
(-0.453596 -0.922027 0)
(0.651578 -0.873662 1.80981e-19)
(1.69618 -0.789517 0)
(2.65067 -0.697061 1.77769e-19)
(3.49545 -0.603203 0)
(4.23013 -0.513692 0)
(4.86206 -0.432098 0)
(5.40287 -0.358598 1.40548e-19)
(5.86694 -0.291968 0)
(6.24449 -0.227413 -1.23117e-19)
(6.52983 -0.14098 0)
(6.8627 -0.011395 0)
(7.23904 0.166143 2.02706e-19)
(7.50645 0.357065 -1.86942e-19)
(7.54017 0.494114 0)
(7.33073 0.531052 0)
(6.97459 0.477471 0)
(6.54294 0.375751 4.3233e-19)
(6.04138 0.263407 0)
(5.20523 0.19009 -3.31766e-19)
(0.154593 1.79824 -1.40404e-22)
(0.403443 2.02684 1.88463e-19)
(0.540831 1.59639 0)
(0.784907 0.901943 -1.98607e-19)
(1.58444 -0.679684 0)
(2.73853 -2.66558 0)
(3.8558 -4.28885 -3.76621e-21)
(4.79464 -5.24458 3.56098e-20)
(5.55242 -5.57624 4.25881e-20)
(6.16855 -5.46559 2.7132e-20)
(6.68334 -5.09229 0)
(7.12833 -4.5839 0)
(7.52383 -4.01759 -5.46033e-20)
(7.87892 -3.43486 -1.19682e-19)
(8.19536 -2.85512 1.30444e-19)
(8.47198 -2.28541 0)
(8.70637 -1.72633 1.50908e-19)
(8.89686 -1.1744 -6.42784e-20)
(9.04034 -0.627693 0)
(9.13553 -0.081863 1.732e-19)
(9.19316 0.477199 6.94977e-20)
(9.2272 1.06794 -1.64184e-19)
(9.2514 1.7042 -6.23478e-20)
(9.26385 2.38494 0)
(9.23706 3.08299 1.38957e-19)
(9.11667 3.73695 1.30116e-19)
(8.82565 4.25091 0)
(8.28733 4.5137 1.18543e-19)
(7.45592 4.441 0)
(6.36168 4.02121 1.2406e-19)
(5.15958 3.34845 6.33257e-20)
(4.0368 2.59469 0)
(3.14013 1.86839 0)
(2.56783 1.08718 0)
(2.26841 0.180437 0)
(2.19015 -0.890851 0)
(2.31185 -2.1315 0)
(2.48078 -2.86082 1.59242e-19)
(2.52487 -2.56177 -2.50547e-19)
(2.3927 -1.56399 0)
(2.15091 -0.537084 0)
(1.73838 0.220163 0)
(0.954877 0.799536 -6.46396e-21)
(-0.38133 1.54548 1.86224e-19)
(-2.04414 2.43082 2.86229e-19)
(-3.77456 3.24934 -2.33946e-19)
(-5.39607 3.85277 -1.10543e-19)
(-6.79892 4.21236 9.09695e-20)
(-7.94779 4.35462 1.81941e-20)
(-8.83463 4.30027 1.1048e-19)
(-9.48686 4.0807 0)
(-9.95109 3.74311 1.25432e-19)
(-10.2787 3.3375 2.46369e-20)
(-10.5182 2.90733 0)
(-10.7086 2.48519 0)
(-10.8766 2.09178 -1.68863e-19)
(-11.0364 1.7373 0)
(-11.1924 1.42434 0)
(-11.3423 1.15074 2.09913e-19)
(-11.4803 0.912047 4.0818e-19)
(-11.6 0.703104 -2.00022e-19)
(-11.6954 0.518881 0)
(-11.7622 0.355016 2.09642e-19)
(-11.7972 0.2078 0)
(-11.7993 0.0742397 2.25969e-19)
(-11.7689 -0.0477567 2.11122e-19)
(-11.7076 -0.159536 -4.26386e-19)
(-11.618 -0.261827 -2.13498e-19)
(-11.5018 -0.355197 0)
(-11.3607 -0.441123 3.95438e-19)
(-11.1955 -0.521383 0)
(-11.0072 -0.597881 5.48682e-19)
(-10.7958 -0.672583 3.52877e-19)
(-10.5609 -0.747455 3.36219e-19)
(-10.3014 -0.824374 -3.18252e-19)
(-10.0153 -0.904994 4.44017e-19)
(-9.69993 -0.990572 0)
(-9.35201 -1.08175 0)
(-8.96789 -1.17832 -2.30763e-19)
(-8.54392 -1.27901 -3.00553e-19)
(-8.07702 -1.38129 0)
(-7.56536 -1.48142 6.60464e-20)
(-7.00897 -1.57458 0)
(-6.41038 -1.65535 -1.07729e-19)
(-5.77489 -1.71833 1.17002e-20)
(-5.11047 -1.75893 -1.10514e-20)
(-4.42724 -1.77407 -3.9263e-20)
(-3.73659 -1.76266 0)
(-3.05014 -1.72566 1.19974e-19)
(-2.37881 -1.66583 8.01166e-21)
(-1.73207 -1.58713 0)
(-1.11703 -1.49416 0)
(-0.537556 -1.39197 0)
(0.00254883 -1.28573 -3.08569e-19)
(0.501291 -1.17572 0)
(0.96156 -1.06803 0)
(1.38142 -0.965036 0)
(1.76199 -0.867454 0)
(2.10576 -0.775787 0)
(2.41541 -0.690446 -2.52684e-19)
(2.69358 -0.612121 0)
(2.94272 -0.541167 -2.35898e-19)
(3.16517 -0.47706 -2.26986e-19)
(3.36329 -0.41888 2.18648e-19)
(3.53927 -0.365863 0)
(3.69504 -0.317415 2.03724e-19)
(3.83236 -0.272962 0)
(3.95291 -0.23195 1.91094e-19)
(4.05829 -0.193533 -1.85599e-19)
(4.15009 -0.15657 -5.4012e-19)
(4.22904 -0.121761 0)
(4.29541 -0.0900448 -5.14842e-19)
(4.35246 -0.0597607 -1.67108e-19)
(4.40711 -0.0265346 0)
(4.46656 0.0115721 -3.19054e-19)
(4.5372 0.053688 -3.09713e-19)
(4.61963 0.094731 4.51508e-19)
(4.70683 0.127469 0)
(4.78883 0.146807 1.42407e-19)
(4.85652 0.150548 1.38995e-19)
(4.90333 0.140142 4.09508e-19)
(4.92672 0.120459 0)
(4.92819 0.0979799 0)
(4.91181 0.0784124 0)
(4.88234 0.0650415 1.32453e-19)
(4.84386 0.0584882 0)
(4.79901 0.0575271 0)
(4.74911 0.0602402 -1.3222e-19)
(4.69453 0.0648795 -1.32373e-19)
(4.63516 0.0702321 0)
(4.5706 0.0757231 0)
(4.50046 0.0813116 -2.67179e-19)
(4.42442 0.0871822 0)
(4.34228 0.0933066 2.705e-19)
(4.25384 0.0989595 2.72345e-19)
(4.15888 0.102506 0)
(4.05676 0.102008 0)
(3.94527 0.0955158 -2.8303e-19)
(3.82418 0.0757814 2.32037e-22)
(3.71109 0.0189845 6.39444e-22)
(3.64574 -0.0954021 0)
(3.61735 -0.180956 -6.10074e-19)
(3.39502 0.0621028 0)
(2.32015 1.01401 0)
(-0.142603 2.4026 0)
(-2.48025 3.02787 1.66031e-19)
(-3.76979 2.74943 0)
(-4.40677 2.07836 1.36357e-19)
(-4.82143 1.41651 1.18289e-19)
(-5.18494 0.894825 0)
(-5.47742 0.494217 2.61366e-19)
(-5.64107 0.166487 0)
(-5.64307 -0.123974 0)
(-5.4734 -0.39794 8.26858e-19)
(-5.12875 -0.658863 -4.63856e-19)
(-4.60698 -0.906161 0)
(-3.91174 -1.13258 -1.6773e-19)
(-3.05876 -1.32421 -2.53145e-20)
(-2.08023 -1.46293 0)
(-1.0221 -1.53312 0)
(0.0662819 -1.52304 0)
(1.13492 -1.43996 -9.61536e-19)
(2.14261 -1.30881 0)
(3.05965 -1.15744 -3.30739e-19)
(3.87183 -1.00333 0)
(4.58018 -0.857333 0)
(5.19385 -0.724862 0)
(5.72367 -0.606871 0)
(6.17952 -0.499228 0)
(6.57204 -0.393242 0)
(6.90399 -0.28558 -4.38121e-19)
(7.17203 -0.167966 0)
(7.42583 -0.0176004 -2.02774e-19)
(7.74499 0.169181 5.46851e-19)
(8.11567 0.35266 0)
(8.43275 0.471146 0)
(8.60677 0.494488 -2.67161e-19)
(8.58546 0.457663 -2.53622e-19)
(8.38729 0.444441 2.59698e-19)
(7.83798 0.476663 2.76886e-19)
(0.102902 0.991923 -3.18771e-19)
(0.300508 1.5267 -2.89347e-19)
(0.608999 0.784842 -1.72269e-19)
(1.65204 -1.31744 -6.03307e-20)
(3.05963 -3.6539 0)
(4.31781 -5.40947 9.29095e-20)
(5.2153 -6.3632 -5.21264e-20)
(5.78363 -6.64761 0)
(6.14454 -6.49732 -3.90349e-20)
(6.40565 -6.10857 0)
(6.63007 -5.60166 1.22497e-19)
(6.84532 -5.0378 0)
(7.05912 -4.44648 5.56411e-20)
(7.27011 -3.84293 1.23561e-19)
(7.47336 -3.23523 -1.36143e-19)
(7.66276 -2.62697 0)
(7.83196 -2.01884 -1.60265e-19)
(7.97535 -1.40999 0)
(8.08869 -0.799102 0)
(8.16941 -0.184471 -1.88781e-19)
(8.21999 0.43409 0)
(8.2419 1.05764 -3.13597e-20)
(8.24711 1.69322 0)
(8.25447 2.35436 0)
(8.28071 3.0561 2.9466e-20)
(8.32455 3.7973 -1.35633e-19)
(8.34943 4.53551 -1.50542e-19)
(8.2764 5.17279 -1.13473e-19)
(8.00861 5.56896 0)
(7.47882 5.58778 -2.26211e-19)
(6.69755 5.16582 0)
(5.766 4.3623 -1.2193e-19)
(4.85106 3.31272 0)
(4.10431 2.13219 0)
(3.54782 0.883319 1.6145e-19)
(3.19821 -0.564815 0)
(3.06206 -2.08234 -1.37586e-19)
(2.80912 -2.70385 -1.61051e-20)
(2.23449 -2.00269 3.80422e-19)
(1.46426 -0.594184 -4.68719e-19)
(0.397755 0.867082 0)
(-0.979291 2.11294 0)
(-2.55633 3.24922 -1.45307e-19)
(-4.19465 4.24054 0)
(-5.69886 4.97753 -9.38014e-20)
(-6.9543 5.4251 8.81783e-20)
(-7.92539 5.60015 8.7548e-20)
(-8.62162 5.54151 0)
(-9.08606 5.30474 -9.70333e-20)
(-9.37595 4.94104 -1.05213e-19)
(-9.55517 4.50006 2.76362e-19)
(-9.68167 4.02761 -1.26166e-19)
(-9.7979 3.55829 -1.38006e-19)
(-9.92732 3.11303 0)
(-10.0765 2.7009 0)
(-10.2407 2.32313 1.73322e-19)
(-10.4097 1.97708 0)
(-10.5723 1.65912 0)
(-10.7192 1.36607 -4.05171e-19)
(-10.8433 1.09562 -4.20716e-19)
(-10.9404 0.846239 0)
(-11.0082 0.616951 0)
(-11.0461 0.406899 0)
(-11.0543 0.21525 0)
(-11.0342 0.0408346 -4.59087e-19)
(-10.9874 -0.117848 4.67402e-19)
(-10.9156 -0.262295 4.44449e-19)
(-10.8209 -0.39406 8.81355e-19)
(-10.7049 -0.514672 0)
(-10.5693 -0.625975 1.03028e-20)
(-10.4152 -0.730155 0)
(-10.2434 -0.829682 -3.80834e-19)
(-10.0541 -0.927239 9.4405e-21)
(-9.84682 -1.02563 -3.45855e-19)
(-9.62016 -1.12762 3.26303e-19)
(-9.3718 -1.23577 1.0907e-20)
(-9.09842 -1.35214 0)
(-8.79573 -1.47795 2.71262e-19)
(-8.45873 -1.61323 2.32317e-19)
(-8.08205 -1.75635 4.23674e-19)
(-7.66067 -1.90382 0)
(-7.1907 -2.05008 -1.59055e-19)
(-6.67044 -2.18781 0)
(-6.1012 -2.30857 1.64534e-19)
(-5.48793 -2.40383 -3.77284e-20)
(-4.83915 -2.46626 2.85605e-22)
(-4.16633 -2.49094 3.78686e-20)
(-3.48265 -2.47612 1.27646e-19)
(-2.8016 -2.42342 -1.15161e-19)
(-2.13567 -2.33728 1.53825e-19)
(-1.49541 -2.22407 0)
(-0.888689 -2.09103 -4.42278e-19)
(-0.319673 -1.94517 0)
(0.208699 -1.79293 -5.45417e-19)
(0.695619 -1.63769 5.41071e-19)
(1.142 -1.4863 5.32229e-19)
(1.54775 -1.34166 -5.20399e-19)
(1.91478 -1.20523 -5.06704e-19)
(2.2457 -1.07798 0)