/*--------------------------------*- C++ -*----------------------------------*\
  =========                 |
  \\      /  F ield         | OpenFOAM: The Open Source CFD Toolbox
   \\    /   O peration     | Website:  https://openfoam.org
    \\  /    A nd           | Version:  9
     \\/     M anipulation  |
\*---------------------------------------------------------------------------*/
FoamFile
{
    format      ascii;
    class       volScalarField;
    location    "0.094";
    object      k;
}
// * * * * * * * * * * * * * * * * * * * * * * * * * * * * * * * * * * * * * //

dimensions      [0 2 -2 0 0 0 0];

internalField   nonuniform List<scalar> 
12225
(
9.20193e-05
7.42954e-05
6.58206e-05
6.14727e-05
4.73955e-05
3.00967e-05
2.45987e-05
2.41705e-05
2.47854e-05
2.48577e-05
2.42014e-05
2.39923e-05
2.49182e-05
3.10781e-05
5.72257e-05
9.24547e-05
0.000108202
0.000138392
2.09535e-05
2.35953e-05
2.6054e-05
2.64486e-05
2.54414e-05
2.25158e-05
2.13767e-05
2.13415e-05
2.19838e-05
2.26722e-05
2.27891e-05
2.28151e-05
2.2932e-05
2.34441e-05
2.52116e-05
2.89888e-05
3.65379e-05
5.01345e-05
2.00255e-05
1.68748e-05
1.65446e-05
1.72956e-05
1.82715e-05
1.84641e-05
1.83572e-05
1.7546e-05
1.58058e-05
1.48272e-05
1.44936e-05
1.44462e-05
1.44595e-05
1.45842e-05
1.49682e-05
1.55542e-05
1.66995e-05
1.93316e-05
2.00361e-05
1.99787e-05
1.98409e-05
1.98042e-05
1.97851e-05
1.96538e-05
1.89501e-05
1.70051e-05
1.60468e-05
1.54963e-05
1.52784e-05
1.50385e-05
1.48853e-05
1.49038e-05
1.50058e-05
1.52134e-05
1.5581e-05
1.64397e-05
2.78343e-05
2.1318e-05
2.08163e-05
2.10483e-05
2.1183e-05
2.12757e-05
2.14836e-05
2.17485e-05
2.17479e-05
2.16222e-05
2.16697e-05
2.17135e-05
2.16398e-05
2.13087e-05
2.06146e-05
2.00316e-05
1.98688e-05
1.96453e-05
2.13262e-05
2.12356e-05
2.24166e-05
2.31182e-05
2.44172e-05
2.74681e-05
3.33594e-05
3.76988e-05
3.78453e-05
3.39511e-05
2.76279e-05
2.5889e-05
2.58675e-05
2.61194e-05
2.69217e-05
2.92914e-05
3.78535e-05
4.39318e-05
2.00698e-05
2.27412e-05
2.9905e-05
3.02922e-05
3.04225e-05
3.21457e-05
3.43166e-05
3.50352e-05
3.35092e-05
2.82385e-05
2.45747e-05
2.29553e-05
2.2508e-05
2.25321e-05
2.31445e-05
2.68194e-05
3.30844e-05
3.58444e-05
2.02693e-05
4.235e-05
8.49889e-05
6.74801e-05
3.66417e-05
2.71651e-05
2.64664e-05
3.03545e-05
3.60262e-05
3.59561e-05
3.18715e-05
2.63117e-05
2.34212e-05
2.23354e-05
2.22198e-05
2.27013e-05
2.58968e-05
3.06196e-05
2.49302e-05
2.74017e-05
2.72222e-05
2.57084e-05
2.27567e-05
2.1801e-05
2.18387e-05
2.28844e-05
2.40341e-05
2.41669e-05
2.37366e-05
2.27201e-05
2.23118e-05
2.22617e-05
2.2313e-05
2.25171e-05
2.30747e-05
2.44388e-05
3.18904e-05
2.45429e-05
2.36358e-05
2.83611e-05
3.37021e-05
3.34662e-05
2.82843e-05
2.36286e-05
2.18314e-05
2.13244e-05
2.1307e-05
2.16956e-05
2.38397e-05
3.37796e-05
4.36395e-05
4.52146e-05
4.36592e-05
3.80829e-05
2.15026e-05
2.3392e-05
2.3006e-05
2.80147e-05
3.74349e-05
3.7735e-05
3.21685e-05
2.50099e-05
2.2406e-05
2.19741e-05
2.24602e-05
2.59421e-05
4.41769e-05
8.55552e-05
0.000103257
0.000103254
8.94057e-05
6.67378e-05
2.28488e-05
2.28153e-05
2.13153e-05
2.16042e-05
2.24693e-05
2.25207e-05
2.20763e-05
2.14712e-05
2.14195e-05
2.20816e-05
2.56807e-05
4.18044e-05
7.348e-05
8.68853e-05
8.62368e-05
7.37274e-05
5.42845e-05
4.45293e-05
2.209e-05
2.10839e-05
2.09375e-05
2.12362e-05
2.12897e-05
2.11152e-05
2.07101e-05
2.0584e-05
2.06066e-05
2.08624e-05
2.18357e-05
2.48802e-05
3.56199e-05
5.43437e-05
6.28458e-05
6.31907e-05
5.89505e-05
4.74956e-05
2.02039e-05
2.02619e-05
2.05418e-05
2.17749e-05
2.20032e-05
2.13336e-05
2.09341e-05
2.09594e-05
2.12467e-05
2.13444e-05
2.13079e-05
2.14032e-05
2.20301e-05
2.47873e-05
2.9053e-05
3.11101e-05
3.12827e-05
3.06537e-05
2.02612e-05
2.05633e-05
2.11258e-05
2.29052e-05
2.29472e-05
2.27168e-05
2.27922e-05
2.29729e-05
2.31437e-05
2.30062e-05
2.17595e-05
2.09407e-05
2.0749e-05
2.07638e-05
2.08909e-05
2.13215e-05
2.19333e-05
2.2434e-05
2.10481e-05
2.24639e-05
2.24898e-05
2.24419e-05
2.25053e-05
2.27112e-05
2.26561e-05
2.21768e-05
2.17712e-05
2.15071e-05
2.11913e-05
2.09837e-05
2.09475e-05
2.1014e-05
2.13822e-05
2.1875e-05
2.21567e-05
2.24186e-05
2.04446e-05
2.07393e-05
2.0746e-05
2.07974e-05
2.11763e-05
2.29683e-05
2.60368e-05
2.67258e-05
2.63086e-05
2.43217e-05
2.26285e-05
2.20137e-05
2.19676e-05
2.20581e-05
2.20383e-05
2.17228e-05
2.14728e-05
2.14632e-05
2.00197e-05
2.02954e-05
2.06291e-05
2.07142e-05
2.07352e-05
2.07696e-05
2.10584e-05
2.1493e-05
2.1524e-05
2.12367e-05
2.08264e-05
2.07339e-05
2.07482e-05
2.08292e-05
2.08782e-05
2.08956e-05
2.09096e-05
2.09371e-05
2.0782e-05
2.0228e-05
2.02345e-05
2.09491e-05
2.21219e-05
2.24812e-05
2.25073e-05
2.2367e-05
2.17529e-05
2.12794e-05
2.11025e-05
2.10568e-05
2.10545e-05
2.1061e-05
2.10609e-05
2.10446e-05
2.09925e-05
2.09525e-05
2.09303e-05
2.04694e-05
2.04936e-05
2.16884e-05
2.8207e-05
4.02341e-05
4.31941e-05
4.048e-05
3.04679e-05
2.47159e-05
2.24813e-05
2.14378e-05
2.09166e-05
2.07343e-05
2.07296e-05
2.09004e-05
2.21132e-05
2.37998e-05
2.10785e-05
2.13675e-05
2.16934e-05
2.30147e-05
2.51957e-05
2.64871e-05
2.71816e-05
2.93219e-05
3.72929e-05
4.12403e-05
4.08256e-05
3.69269e-05
3.04739e-05
2.62269e-05
2.38354e-05
2.27857e-05
2.25277e-05
2.25307e-05
2.0718e-05
2.08123e-05
2.09789e-05
2.28602e-05
3.04419e-05
3.39556e-05
3.21568e-05
2.67656e-05
2.46576e-05
2.35307e-05
2.26663e-05
2.19537e-05
2.14332e-05
2.1135e-05
2.10163e-05
2.09967e-05
2.10166e-05
2.11647e-05
2.01723e-05
2.04235e-05
2.11629e-05
2.34752e-05
2.4056e-05
2.37912e-05
2.27153e-05
2.24965e-05
2.27162e-05
2.31387e-05
2.32873e-05
2.32937e-05
2.31941e-05
2.29874e-05
2.28621e-05
2.27947e-05
2.27738e-05
2.27725e-05
2.05966e-05
2.09538e-05
2.10627e-05
2.11677e-05
2.14668e-05
2.14071e-05
2.18768e-05
2.3699e-05
2.55701e-05
2.69064e-05
2.74861e-05
2.7531e-05
2.72104e-05
2.62852e-05
2.57995e-05
2.5634e-05
2.54212e-05
2.47029e-05
2.03454e-05
2.05271e-05
2.04842e-05
2.03349e-05
2.02566e-05
2.03033e-05
2.06224e-05
2.19332e-05
2.70702e-05
4.55257e-05
6.0034e-05
6.23868e-05
5.95109e-05
4.66151e-05
3.50098e-05
2.85195e-05
2.49458e-05
2.31689e-05
2.75813e-05
2.60798e-05
2.40451e-05
2.1518e-05
2.07527e-05
2.0803e-05
2.17312e-05
2.62785e-05
4.14301e-05
5.12429e-05
5.21794e-05
4.81794e-05
3.63115e-05
2.86062e-05
2.45471e-05
2.25061e-05
2.15242e-05
2.11247e-05
2.07254e-05
2.16708e-05
2.15578e-05
2.07081e-05
2.03723e-05
2.04364e-05
2.06313e-05
2.06522e-05
2.06074e-05
2.03795e-05
1.95227e-05
1.83979e-05
1.77535e-05
1.75101e-05
1.74608e-05
1.75611e-05
1.81472e-05
1.88223e-05
2.00155e-05
1.73814e-05
1.13546e-05
9.30738e-06
9.26526e-06
1.00434e-05
1.14378e-05
1.19927e-05
1.20994e-05
1.20922e-05
1.20932e-05
1.21252e-05
1.22789e-05
1.28843e-05
1.39492e-05
1.47645e-05
1.54803e-05
1.59009e-05
2.01387e-05
2.08691e-05
2.49668e-05
2.84466e-05
2.90239e-05
2.83991e-05
2.56633e-05
2.36266e-05
2.28399e-05
2.26934e-05
2.27598e-05
2.32006e-05
2.47702e-05
2.97943e-05
3.64018e-05
4.21469e-05
4.78453e-05
5.22908e-05
3.0424e-05
3.95278e-05
9.11621e-05
0.00014249
0.000147049
0.000126116
7.52811e-05
4.8279e-05
3.75253e-05
3.47207e-05
3.48392e-05
3.79472e-05
5.26536e-05
8.82001e-05
0.000115678
0.000132031
0.000139439
0.000141305
0.0730674
0.0902812
0.0892264
0.0874605
0.0874644
0.0878808
0.0877202
0.0873761
0.0871047
0.0879528
0.0882734
0.0877565
0.0860559
0.0843011
0.0825828
0.0809681
0.0796507
0.0789959
0.0789702
0.0790372
0.0791152
0.0786281
0.0751042
0.0700224
0.067227
0.0664794
0.0665684
0.0672764
0.0700068
0.0732972
0.0756732
0.0791081
0.0871558
0.106177
0.120455
0.154384
0.175477
0.185684
0.195985
0.198396
0.224963
0.356355
0.28995
0.158872
0.132024
0.127532
0.130546
0.13209
0.134982
0.138916
0.145556
0.154387
0.16497
0.177006
0.189919
0.20348
0.218693
0.227575
0.22985
0.230164
0.228317
0.219869
0.201144
0.173462
0.14424
0.116634
0.0990825
0.0964255
0.0982231
0.101208
0.101361
0.099478
0.094941
0.0887448
0.0820118
0.0759416
0.0730987
0.0719761
0.0716922
0.0725812
0.0775257
0.0885648
0.106089
0.129645
0.160104
0.19262
0.204675
0.207371
0.206368
0.195502
0.169092
0.131653
0.0946385
0.0695979
0.0574255
0.0510369
0.0458117
0.0435183
0.0384229
0.0335177
0.0324952
0.034004
0.0372083
0.0386577
0.0376141
0.0351355
0.0363312
0.0498904
0.115618
0.326868
0.499155
0.466505
0.149474
0.0661395
0.0498757
0.0429797
0.0385796
0.0335742
0.0311689
0.0291361
0.027994
0.0274561
0.0273471
0.0272213
0.0271604
0.0270741
0.0269953
0.0269264
0.026909
0.0268789
0.026852
0.0268497
0.0268962
0.026996
0.0272203
0.0275154
0.0279012
0.0283855
0.0289476
0.0296053
0.0302802
0.0308998
0.0313766
0.0316647
0.0317781
0.0317604
0.0316155
0.0314668
0.0313533
0.0311499
0.0309395
0.0307477
0.0305704
0.0304414
0.0303778
0.0303166
0.0302458
0.0302201
0.0301851
0.0300849
0.0299771
0.029952
0.0299563
0.0298351
0.0293464
0.0290173
0.0282759
0.0226598
0.0046512
0.00390813
0.00720956
0.00780104
0.00792588
0.00812119
0.00826322
0.0084117
0.00882991
0.00923269
0.00968472
0.00842555
0.0661677
0.0557252
0.0774014
0.083866
0.0867311
0.0907203
0.0906013
0.0894971
0.0878067
0.0860671
0.0832804
0.0809515
0.0782714
0.0756114
0.0728105
0.0697101
0.0660808
0.0629417
0.0613146
0.0611306
0.0618115
0.0643996
0.065991
0.0662191
0.0657813
0.0644706
0.0640638
0.0642232
0.0653368
0.0686234
0.0728625
0.0756543
0.0800072
0.0911153
0.0987013
0.116851
0.130593
0.151501
0.207275
0.238246
0.235947
0.223582
0.160195
0.129164
0.119367
0.11753
0.118425
0.121188
0.128803
0.140393
0.156362
0.176365
0.196132
0.209767
0.21415
0.215306
0.215564
0.215554
0.213854
0.208292
0.196358
0.175321
0.146502
0.132219
0.127922
0.126648
0.127333
0.132634
0.134303
0.132981
0.127953
0.120155
0.111666
0.103318
0.0946491
0.0852233
0.0751732
0.0652588
0.0568367
0.0502326
0.0459157
0.0409664
0.0368749
0.0333288
0.0310824
0.0284618
0.0256395
0.0234571
0.0197205
0.0166199
0.015267
0.014173
0.0126372
0.0117284
0.011351
0.0112014
0.0111835
0.0115494
0.0126524
0.0147685
0.0197367
0.0311887
0.0453243
0.0611217
0.0601402
0.0420284
0.0333862
0.0378175
0.0549697
0.157347
0.491005
0.326577
0.0854564
0.0434075
0.0329919
0.0285435
0.0259619
0.0238662
0.0228667
0.0220623
0.021434
0.0211154
0.0208845
0.0207819
0.0207376
0.0207207
0.0207633
0.0207652
0.0207217
0.0205638
0.0203283
0.020044
0.0196839
0.019292
0.0189514
0.0188578
0.0189061
0.0191011
0.0194485
0.0201246
0.0211912
0.022432
0.0239476
0.0256008
0.0270689
0.0280945
0.0285294
0.0285692
0.0285007
0.0282331
0.0277103
0.0271796
0.0267976
0.0266604
0.0266558
0.0266818
0.0267683
0.0270219
0.0273824
0.0277482
0.0281349
0.0284083
0.0289143
0.0296121
0.0300526
0.0301784
0.0301146
0.029343
0.0255335
0.0190732
0.0125494
0.0103448
0.0103633
0.0116804
0.0120623
0.0114539
0.0108325
0.0104395
0.0101264
0.00898256
0.0523715
0.0411688
0.0462148
0.0618958
0.0775065
0.081432
0.0793881
0.0728838
0.0635653
0.0557357
0.0521123
0.0521988
0.0529439
0.0546926
0.056269
0.0570734
0.0572123
0.0568206
0.0546799
0.0513763
0.049078
0.0479977
0.0477746
0.0478325
0.0480582
0.0483491
0.0490084
0.05182
0.0559495
0.0637142
0.0745189
0.0809967
0.0847941
0.0913738
0.0975097
0.112113
0.160853
0.202125
0.205623
0.195711
0.14445
0.107437
0.0911524
0.0810408
0.0770482
0.0750965
0.074799
0.0793933
0.0920028
0.107974
0.127531
0.153942
0.182645
0.195944
0.199549
0.20033
0.200138
0.197607
0.190247
0.175624
0.154444
0.141112
0.137251
0.136283
0.136887
0.141265
0.142739
0.140636
0.131938
0.116269
0.0959508
0.0786689
0.0724471
0.0704818
0.0697462
0.0692391
0.0673689
0.063492
0.05868
0.0535234
0.0496848
0.0470381
0.0448328
0.0412116
0.033612
0.0255213
0.0207883
0.0163527
0.0143066
0.0134068
0.0123879
0.011944
0.0115328
0.0110775
0.0106754
0.0103297
0.0101459
0.0100588
0.0102814
0.0112304
0.0141335
0.0223894
0.0382752
0.066562
0.0784929
0.0728278
0.0658908
0.0684962
0.0972437
0.308109
0.411191
0.125407
0.0427722
0.0282856
0.0235181
0.0202538
0.0179118
0.0157741
0.0144308
0.0134328
0.0129066
0.0126926
0.012989
0.0132809
0.0134568
0.0135347
0.013601
0.0138408
0.013909
0.0140172
0.0140927
0.0141056
0.0140932
0.0139468
0.0137229
0.0136295
0.0137613
0.0140154
0.01449
0.0151725
0.0160298
0.0167764
0.0172922
0.0176115
0.017803
0.0178495
0.0178273
0.0178357
0.0179292
0.0181756
0.0187374
0.0193564
0.0199337
0.0205318
0.0210069
0.021278
0.0213738
0.021507
0.0215036
0.021451
0.0213253
0.0210824
0.0206626
0.0206357
0.0208767
0.0214751
0.0226461
0.0253773
0.0252826
0.0243188
0.0218573
0.0191282
0.018348
0.0181926
0.0176975
0.0152539
0.0123963
0.0109828
0.0106146
0.0103274
0.0403984
0.0426626
0.0602988
0.0823958
0.0800028
0.0690616
0.0522167
0.0418465
0.0392534
0.0400594
0.0421965
0.0454845
0.0489826
0.0520825
0.0543054
0.0555647
0.0564757
0.0569147
0.0571273
0.0569856
0.0560797
0.054746
0.0541999
0.0541564
0.0548328
0.0580142
0.0669787
0.0726417
0.0754624
0.0817438
0.0957686
0.102719
0.101238
0.100716
0.111698
0.161623
0.181859
0.182057
0.138442
0.0958862
0.0745602
0.057857
0.0501797
0.0438025
0.0408209
0.0397139
0.0395819
0.0416872
0.0478766
0.0564024
0.068174
0.086783
0.11268
0.144644
0.168045
0.173724
0.174774
0.174361
0.171771
0.165817
0.156679
0.153151
0.152702
0.152729
0.151977
0.146436
0.133372
0.111125
0.0806775
0.0483334
0.0266249
0.019805
0.0179773
0.0176949
0.0178643
0.0186947
0.0200988
0.0217115
0.0235423
0.0266087
0.0305935
0.0366963
0.0434833
0.0466843
0.0477889
0.045601
0.0382095
0.0336808
0.0281212
0.0247786
0.0212895
0.0197112
0.0185179
0.0175774
0.016529
0.0149656
0.0136139
0.0123362
0.0113022
0.0108763
0.0118325
0.0147825
0.0207849
0.0400276
0.0759857
0.0832684
0.089379
0.106951
0.21589
0.343042
0.212795
0.0591735
0.0302411
0.025236
0.0233752
0.0213889
0.0204495
0.0198718
0.0195288
0.0186121
0.0173704
0.0158818
0.0149275
0.013563
0.0130096
0.012427
0.0119488
0.0116963
0.0114385
0.0112711
0.0111579
0.0110666
0.0109715
0.0108436
0.0107144
0.0106181
0.0105853
0.0106418
0.0108494
0.0113749
0.0125186
0.0140078
0.0153132
0.01631
0.0170643
0.017464
0.0176839
0.0178806
0.0181179
0.0185996
0.0192934
0.0199571
0.0205663
0.0210215
0.0214064
0.0216324
0.0217145
0.0218019
0.0219381
0.0220503
0.0221432
0.0223244
0.0226645
0.0230055
0.0237713
0.0246676
0.0254819
0.0260767
0.0259545
0.0255528
0.0240695
0.0224534
0.0222015
0.0223832
0.022524
0.0215125
0.0165511
0.0121947
0.0105129
0.0100877
0.0474338
0.0694748
0.0785633
0.0657385
0.0409225
0.031082
0.0314788
0.032958
0.0364693
0.0434152
0.052717
0.0607843
0.0668552
0.0700797
0.0713575
0.0720019
0.0735426
0.0751018
0.0748731
0.073778
0.0727737
0.0729343
0.0743825
0.0776374
0.0845828
0.0939257
0.111157
0.134295
0.150307
0.160024
0.163789
0.156711
0.13912
0.139986
0.158038
0.165253
0.158595
0.104294
0.0683692
0.0517856
0.0414809
0.0326002
0.0282536
0.0248475
0.0230623
0.0223935
0.0222198
0.0227642
0.0250897
0.0281074
0.0316804
0.03719
0.0450755
0.0564886
0.0734507
0.095828
0.122835
0.143874
0.149267
0.150148
0.149631
0.146794
0.139497
0.125263
0.106011
0.0823624
0.057112
0.0352424
0.0211041
0.014252
0.0110945
0.00947473
0.00862476
0.00816118
0.00780941
0.00748661
0.00730965
0.00723058
0.00724083
0.00751224
0.00810201
0.00936626
0.0117931
0.0160423
0.0229267
0.0305203
0.0339347
0.0354024
0.0355924
0.0318509
0.0297795
0.0277139
0.0262505
0.0249892
0.0239831
0.0229923
0.0220582
0.0205537
0.0179012
0.0152125
0.013809
0.0145054
0.0184008
0.0255014
0.0567403
0.0777384
0.100051
0.169249
0.290767
0.31286
0.106518
0.0382122
0.0278809
0.0262765
0.0260771
0.0275792
0.0300823
0.0315633
0.0319689
0.0304946
0.0273609
0.0235123
0.0209021
0.0175663
0.0160881
0.0144427
0.013667
0.0127373
0.0123167
0.011854
0.0116457
0.0114897
0.0113686
0.0111698
0.0109444
0.0107291
0.0105314
0.010374
0.0103202
0.0104376
0.0108908
0.0117036
0.0128001
0.0138369
0.0147292
0.0154651
0.0162124
0.0169537
0.0177097
0.0187312
0.0196507
0.0204125
0.0207836
0.0210834
0.0211495
0.0211068
0.0210202
0.0208813
0.0206473
0.0205256
0.0204316
0.0201317
0.0190884
0.0187969
0.0189972
0.0197545
0.0219161
0.0248978
0.0264223
0.0265594
0.0262471
0.0248857
0.0236717
0.023547
0.0239534
0.0238812
0.0214421
0.0148568
0.0108917
0.00944504
0.0426606
0.0562784
0.0372011
0.0241734
0.0233917
0.0254589
0.0316864
0.0440065
0.061804
0.0768774
0.0888831
0.0951764
0.0982054
0.0987662
0.0982616
0.096482
0.0930419
0.0876262
0.0818264
0.0804201
0.0819698
0.0875889
0.105086
0.132163
0.155898
0.180682
0.194533
0.19807
0.195528
0.186276
0.171946
0.157363
0.151531
0.151209
0.153047
0.137864
0.0837897
0.0519578
0.0378171
0.0306097
0.0250183
0.0203878
0.0183401
0.0171509
0.0167024
0.0166329
0.0172401
0.018312
0.0195581
0.0206028
0.0211031
0.0216861
0.0225319
0.0237125
0.0253869
0.0274764
0.0302592
0.0348278
0.0381849
0.0384521
0.0373818
0.0344781
0.0307501
0.0279996
0.0242499
0.0208045
0.0179314
0.0158491
0.0139884
0.0123386
0.0112933
0.0104335
0.00974542
0.00914609
0.00843954
0.0076559
0.00712854
0.00666903
0.0064349
0.00631799
0.0062746
0.00630736
0.00649011
0.00677892
0.00740737
0.00850352
0.010262
0.0129686
0.0168102
0.0197859
0.021767
0.0229492
0.0235464
0.0238231
0.0235227
0.0232874
0.0235829
0.023431
0.0222224
0.0202121
0.0185816
0.0184427
0.0191824
0.0220155
0.0380657
0.0670544
0.113744
0.230475
0.297656
0.219321
0.0633878
0.0320208
0.0288214
0.0304983
0.0374525
0.0459596
0.0506989
0.0527806
0.0535155
0.0533028
0.0498594
0.0452675
0.039022
0.0316982
0.0255696
0.0223545
0.0197173
0.0179632
0.0165542
0.0154994
0.0148793
0.0145521
0.0143778
0.0141002
0.013781
0.0134018
0.0129034
0.0123054
0.011709
0.0113161
0.011297
0.0116793
0.0124619
0.0133574
0.0142857
0.0152824
0.0162
0.0175291
0.0189201
0.0198556
0.0202791
0.0206592
0.0206667
0.0205183
0.0200943
0.0193614
0.0187199
0.0180677
0.0172738
0.0167331
0.0166093
0.0164623
0.0156006
0.0145757
0.014562
0.0149038
0.0160086
0.0197483
0.0241646
0.0263301
0.0272085
0.0270553
0.0261376
0.0260311
0.0269489
0.0275921
0.0263452
0.0196434
0.0125792
0.00963099
0.0403891
0.0328509
0.0187402
0.0189991
0.0232261
0.0373346
0.0640691
0.0870867
0.0988533
0.104296
0.108439
0.111908
0.113127
0.111367
0.107309
0.099778
0.0880279
0.0795826
0.0794953
0.0902103
0.113598
0.134365
0.16065
0.18358
0.197909
0.203464
0.204702
0.201134
0.193279
0.180853
0.165758
0.153149
0.146301
0.13591
0.107473
0.0652416
0.0420862
0.0298382
0.0236266
0.0203703
0.0174331
0.0158006
0.0152314
0.0150715
0.0153745
0.0162157
0.0172962
0.018846
0.0203443
0.0213035
0.0217167
0.0219288
0.0219861
0.0216694
0.0207681
0.020078
0.0197916
0.0196071
0.0193227
0.0188444
0.018368
0.0180991
0.0177734
0.0172693
0.0168565
0.0165303
0.0164061
0.0164068
0.0167213
0.0170315
0.01737
0.0174777
0.0173586
0.0166968
0.015618
0.0140097
0.0122101
0.0104758
0.00902361
0.00813613
0.00743258
0.00693853
0.00660817
0.00644275
0.00637053
0.00635261
0.00641889
0.00654684
0.00673232
0.00704465
0.00752905
0.0081862
0.00898548
0.0101215
0.0111694
0.012098
0.0143556
0.0169467
0.0184043
0.0188932
0.0187339
0.0191238
0.0196953
0.0206763
0.0289027
0.0567385
0.119332
0.26359
0.293547
0.142251
0.0460733
0.0318883
0.03178
0.0420846
0.0545845
0.0597921
0.062342
0.0635685
0.0639972
0.0638408
0.062231
0.0606582
0.0574308
0.0535152
0.0465565
0.0370275
0.0299409
0.026045
0.0229927
0.0206185
0.018421
0.0168198
0.0156735
0.0151529
0.0149813
0.0149286
0.0149084
0.0148952
0.0147201
0.014366
0.0139808
0.0138284
0.0139864
0.0148129
0.0157326
0.0169842
0.0182371
0.0192102
0.0196521
0.0200982
0.0201086
0.0199239
0.019363
0.0181178
0.0162775
0.0144305
0.0124249
0.0108122
0.00941443
0.00809133
0.00744667
0.00733924
0.00699378
0.00688006
0.00701735
0.00743037
0.00830334
0.0102245
0.0160166
0.0230341
0.0264203
0.0282155
0.0285325
0.0288792
0.0302137
0.0314377
0.0307714
0.0253379
0.015353
0.0104291
0.0252593
0.0235152
0.0158396
0.0208854
0.0413399
0.0806484
0.101957
0.110418
0.11515
0.117177
0.121635
0.121722
0.118222
0.110799
0.0893906
0.0786355
0.0772701
0.0827529
0.100308
0.116429
0.13371
0.156574
0.174661
0.189826
0.196946
0.199367
0.198351
0.190465
0.178609
0.163859
0.148263
0.133601
0.11254
0.0801957
0.0486735
0.0330994
0.025047
0.0202137
0.0174113
0.0159928
0.0149765
0.0146488
0.0146341
0.0150801
0.0159355
0.0178729
0.0208874
0.0236167
0.0247333
0.0251637
0.0252617
0.0252488
0.0250645
0.0250343
0.0250957
0.0253513
0.0254938
0.0255621
0.0254524
0.0250969
0.0244981
0.0240056
0.0233736
0.0222955
0.0214185
0.0204044
0.0194946
0.0188344
0.0184219
0.0183251
0.0186114
0.0191242
0.0195602
0.0197838
0.0198722
0.0198045
0.0194935
0.0187493
0.0175267
0.0157318
0.0138861
0.0120849
0.010608
0.00946595
0.00862206
0.007976
0.00743284
0.0069861
0.00664928
0.00639368
0.00620171
0.00606742
0.00598158
0.0059537
0.00594864
0.00597791
0.00622842
0.00682083
0.0074265
0.00824908
0.0101269
0.014036
0.016898
0.0174419
0.0227334
0.0468928
0.114318
0.270982
0.274586
0.101447
0.0394308
0.0324062
0.0386587
0.0561598
0.0639009
0.0664655
0.0675207
0.067779
0.0676077
0.0667962
0.0661714
0.0649689
0.0637776
0.062252
0.0599579
0.0556764
0.0482181
0.0371991
0.0308481
0.0256071
0.021018
0.0179907
0.01607
0.0150771
0.0147988
0.0148215
0.0149367
0.0151829
0.0153738
0.0155086
0.0157729
0.0160753
0.0165011
0.0171967
0.0178062
0.0185081
0.0189426
0.0194131
0.0194735
0.0193053
0.0188107
0.0176702
0.0152594
0.012087
0.00869869
0.00582686
0.00410799
0.00305152
0.00248566
0.00217032
0.00207916
0.00211475
0.00221264
0.00236613
0.00268494
0.00320902
0.00380039
0.00479695
0.00704173
0.013671
0.0227591
0.027282
0.0294785
0.0305415
0.0328311
0.0344648
0.0342458
0.0309058
0.0198289
0.0119139
0.0226537
0.0219732
0.0154784
0.0373128
0.0855477
0.108087
0.119442
0.126383
0.12891
0.128624
0.127681
0.120875
0.100546
0.0799087
0.0751775
0.0756096
0.0818098
0.0935311
0.103115
0.113827
0.127981
0.14454
0.161206
0.17282
0.17681
0.176904
0.166885
0.151347
0.135626
0.117166
0.0991573
0.0784104
0.055253
0.0381261
0.0267596
0.0210059
0.0181006
0.0161702
0.0151365
0.0146785
0.0145031
0.0145157
0.0148743
0.0159912
0.0185411
0.0233272
0.0263798
0.0274898
0.0279329
0.0282363
0.028809
0.0293668
0.0302139
0.0312407
0.0322411
0.0332541
0.0341084
0.0346961
0.0349228
0.0347842
0.0341548
0.0328353
0.0311939
0.0293489
0.0273062
0.0248131
0.0225283
0.0203814
0.0185419
0.0173787
0.0165787
0.0161236
0.016262
0.0169755
0.0179299
0.019058
0.0199439
0.0203911
0.0205773
0.0205324
0.0202302
0.0196941
0.0188122
0.0176989
0.0164604
0.0151711
0.0138984
0.0125933
0.0112171
0.00985695
0.00861493
0.0076696
0.00685507
0.00624165
0.00583432
0.00557625
0.00545767
0.00541613
0.00535982
0.00521774
0.00508836
0.00560578
0.00833191
0.00948364
0.0137393
0.0342878
0.095436
0.264827
0.248601
0.0859
0.0366036
0.0338953
0.0466566
0.0646547
0.0693853
0.070615
0.0704866
0.0691185
0.0685166
0.0676502
0.0670099
0.0660467
0.0651884
0.0645414
0.063915
0.0626859
0.0602427
0.0555713
0.0450059
0.0342182
0.0266729
0.0206457
0.0166184
0.014046
0.0131309
0.0130663
0.0133011
0.0138885
0.01455
0.0150823
0.0156823
0.016178
0.0167526
0.0173591
0.0178029
0.0181988
0.0183069
0.0181763
0.0177874
0.0168899
0.0152022
0.0115782
0.00730477
0.00417693
0.00250326
0.0015973
0.00118646
0.000981672
0.00100048
0.00106317
0.00118767
0.00133879
0.00143918
0.00147083
0.0015415
0.00172888
0.00207904
0.00253472
0.00346394
0.00589949
0.0137914
0.0240171
0.0286391
0.0309158
0.0342023
0.0365122
0.0366893
0.0349252
0.0260564
0.0149244
0.0214697
0.0218284
0.0178839
0.0725402
0.107819
0.123206
0.130978
0.133684
0.133194
0.129727
0.11902
0.0931401
0.0753588
0.0718174
0.0719813
0.0758474
0.0814514
0.0849277
0.0894773
0.0981373
0.109806
0.119319
0.125638
0.128226
0.128288
0.118092
0.104426
0.0919813
0.080235
0.0664426
0.0531166
0.0401584
0.0292892
0.0227558
0.0186639
0.0165001
0.0153962
0.0147806
0.014518
0.014452
0.0145156
0.0148275
0.0159707
0.0187908
0.0245811
0.028844
0.0305771
0.0314219
0.0327471
0.0345693
0.0370706
0.040126
0.0433299
0.0460891
0.048092
0.0496798
0.05081
0.0513478
0.0515329
0.051225
0.0506143
0.049534
0.0480101
0.0459083
0.0430733
0.0397153
0.0354482
0.0306811
0.02576
0.0210211
0.0178855
0.0157166
0.014294
0.0135016
0.0130975
0.0128879
0.0133052
0.0145771
0.0163264
0.018297
0.0197999
0.0204069
0.0205623
0.0203835
0.0200003
0.019518
0.0190233
0.0185682
0.0181138
0.0174439
0.0163417
0.0146595
0.0125187
0.0102942
0.00836275
0.00695705
0.0060202
0.00554715
0.00533984
0.00515322
0.00479794
0.00440778
0.00428676
0.00459416
0.00709759
0.0212992
0.0701139
0.246573
0.242515
0.0908907
0.0374988
0.0354993
0.055475
0.0702035
0.0737512
0.0743065
0.0721118
0.0695394
0.0685169
0.067502
0.0667577
0.065921
0.0652378
0.0648913
0.0645594
0.0643161
0.0637542
0.0625035
0.0592499
0.0505172
0.0367484
0.0258561
0.0181977
0.013364
0.0102395
0.00944333
0.00958458
0.0101098
0.011172
0.01233
0.013518
0.0143651
0.0151018
0.0154906
0.0156914
0.0156201
0.0153618
0.0147869
0.0136338
0.0113381
0.00706607
0.00389319
0.00214258
0.00118734
0.000783723
0.000615943
0.000632187
0.000694342
0.000904189
0.00112074
0.00160435
0.00210483
0.0021016
0.00195513
0.00171495
0.00168682
0.00172938
0.00187993
0.00222423
0.00314871
0.00618073
0.0165935
0.026054
0.0302737
0.034166
0.0374955
0.0382842
0.0374774
0.0324222
0.0198179
0.0205026
0.0231546
0.0281927
0.0981221
0.119736
0.129336
0.133494
0.134251
0.12993
0.114345
0.085557
0.0700058
0.0668773
0.0669551
0.0694313
0.0702817
0.0705467
0.0710373
0.0757654
0.0841905
0.0909498
0.0934465
0.0941528
0.0915859
0.0828869
0.0717415
0.0616467
0.0531118
0.0458127
0.0382188
0.0304145
0.023847
0.0201512
0.0174561
0.0158975
0.0150943
0.0146711
0.0145024
0.0144564
0.0144968
0.0148114
0.0158374
0.0185365
0.024505
0.0307556
0.0341198
0.0358974
0.0381199
0.0410833
0.0445672
0.0479726
0.0510264
0.0528265
0.0539866
0.0547738
0.0552625
0.0555935
0.0557221
0.0557494
0.0556397
0.0553663
0.0549376
0.0540737
0.0527684
0.0510949
0.0493537
0.0473119
0.0449038
0.042103
0.0381788
0.0323185
0.0260716
0.0204286
0.016544
0.0141346
0.0125065
0.0114064
0.0106509
0.0101818
0.00996074
0.010668
0.0124592
0.0144658
0.0160519
0.0170363
0.0175741
0.0179292
0.0182697
0.0186035
0.0189686
0.019185
0.0191443
0.0188054
0.0177858
0.0157937
0.012692
0.00942679
0.00715808
0.00595894
0.00556654
0.00542311
0.0049897
0.00408226
0.00397571
0.00514803
0.0129478
0.045372
0.209285
0.235206
0.106762
0.0409146
0.037045
0.0563508
0.0747125
0.0790099
0.0788044
0.0741473
0.0701866
0.0686132
0.0675757
0.0667647
0.0655814
0.0648017
0.0644806
0.064348
0.0644144
0.0643664
0.0642346
0.0633875
0.0605376
0.050429
0.0338162
0.0213927
0.0136159
0.00872261
0.005885
0.00502453
0.0051223
0.00569813
0.00700828
0.00851314
0.00964949
0.0103877
0.0106005
0.0105655
0.0103419
0.00972549
0.00853593
0.00609006
0.00364087
0.00203968
0.00111373
0.000642747
0.000430001
0.000422365
0.000468692
0.000601747
0.000918654
0.00198842
0.00295755
0.0050175
0.00671326
0.00664396
0.00603721
0.00448024
0.00303612
0.00225505
0.00210882
0.00218825
0.00245361
0.003578
0.00832216
0.0209019
0.0284738
0.0335428
0.0376111
0.0392538
0.039029
0.0364066
0.0264336
0.020055
0.0271596
0.0493457
0.107589
0.12287
0.129953
0.131428
0.12745
0.112969
0.0869631
0.0661377
0.0603356
0.0595366
0.0612247
0.0619765
0.0604129
0.0592029
0.0597216
0.062639
0.0693496
0.0749678
0.0758747
0.0742776
0.0660509
0.0527426
0.0439903
0.0394964
0.0342365
0.0290197
0.0253972
0.02184
0.0187861
0.0174534
0.0162818
0.0153653
0.014922
0.014638
0.0145482
0.0145484
0.0148142
0.0158871
0.0185866
0.0236866
0.030468
0.0370925
0.0400921
0.041978
0.0449513
0.0486507
0.0518158
0.0540507
0.055134
0.0555688
0.0557281
0.0558022
0.0559529
0.0560064
0.0560484
0.0561394
0.0563222
0.0564014
0.056349
0.0558361
0.0545861
0.0526978
0.0504984
0.0487616
0.0469018
0.0453875
0.0440321
0.0424554
0.0403148
0.0370258
0.0320982
0.0263108
0.0210268
0.0166575
0.0135567
0.0110865
0.00924857
0.00802326
0.00730339
0.00690401
0.00688982
0.00714898
0.00751101
0.00798444
0.00883924
0.0104631
0.0129548
0.0159781
0.0182818
0.0192873
0.0194504
0.0191388
0.0183424
0.0165264
0.0128321
0.00867723
0.00641954
0.00570548
0.00553286
0.00501789
0.00432122
0.00481338
0.00903548
0.0280072
0.151749
0.22492
0.137323
0.049238
0.0385776
0.0547777
0.0775647
0.0825203
0.0842632
0.0784828
0.0715932
0.0691041
0.0680768
0.0675841
0.066984
0.0655469
0.0647092
0.0642308
0.0640939
0.0641522
0.0643994
0.0643269
0.0635504
0.060042
0.0446245
0.0268105
0.015114
0.00860225
0.00479656
0.00287322
0.00216772
0.00208509
0.00229598
0.00287383
0.00347938
0.00379126
0.00387772
0.00383607
0.00361094
0.0030779
0.00232027
0.00156499
0.000962186
0.000562703
0.000355855
0.000275316
0.000297363
0.000372606
0.000603638
0.00121328
0.0025567
0.00664101
0.010098
0.0165977
0.0214273
0.0212717
0.0196083
0.0152217
0.00958855
0.00558436
0.00349343
0.00267794
0.00265304
0.00296697
0.00493268
0.0134999
0.024868
0.0320416
0.0371164
0.0398048
0.0400621
0.0388185
0.032187
0.0196843
0.0311083
0.0643166
0.110092
0.12245
0.125436
0.123469
0.111617
0.0882864
0.0596093
0.0482765
0.0464204
0.0514453
0.0556718
0.0554749
0.0508853
0.0490693
0.0496631
0.0518499
0.0552017
0.0608085
0.0633058
0.0626251
0.0557688
0.0413414
0.0317045
0.0283209
0.026059
0.0234107
0.02139
0.0199284
0.0180085
0.0170437
0.0162891
0.0155129
0.0151592
0.0149641
0.0149233
0.0149767
0.0155184
0.017144
0.021028
0.0276059
0.0352727
0.0414413
0.0446233
0.0468874
0.0499591
0.0530625
0.0547711
0.0555419
0.0557471
0.0557552
0.0556892
0.0554662
0.0550035
0.0547001
0.0546776
0.0556692
0.0563762
0.0568513
0.057031
0.056958
0.0560771
0.0539168
0.0506759
0.0481067
0.0455342
0.0437592
0.0431448
0.0426396
0.0420142
0.041111
0.0399362
0.0383649
0.0357896
0.0320571
0.027096
0.0217914
0.016292
0.0116703
0.00865513
0.00682399
0.00584794
0.00532653
0.00504993
0.00486536
0.0046775
0.00451082
0.00461466
0.00578537
0.00959592
0.0146204
0.0174241
0.018526
0.0187327
0.018427
0.0174232
0.0151451
0.0102331
0.0068695
0.00585188
0.00558192
0.00506481
0.00516368
0.00722757
0.0178331
0.0905306
0.205313
0.174602
0.068648
0.04194
0.0501883
0.0760205
0.0877303
0.0888263
0.0864881
0.075432
0.0705425
0.0692891
0.0701589
0.0708844
0.0701968
0.0682003
0.06594
0.0643916
0.0638814
0.0637881
0.0643377
0.0643089
0.0631358
0.0558806
0.0350077
0.0183951
0.00929772
0.00472346
0.00243968
0.00136957
0.000973641
0.000891965
0.000923909
0.00100877
0.00104561
0.0010379
0.000997013
0.000897048
0.000754242
0.000586091
0.000419362
0.000283829
0.00020792
0.000188306
0.000211343
0.000297056