/*--------------------------------*- C++ -*----------------------------------*\
  =========                 |
  \\      /  F ield         | OpenFOAM: The Open Source CFD Toolbox
   \\    /   O peration     | Website:  https://openfoam.org
    \\  /    A nd           | Version:  9
     \\/     M anipulation  |
\*---------------------------------------------------------------------------*/
FoamFile
{
    format      ascii;
    class       volScalarField;
    location    "0.094";
    object      p;
}
// * * * * * * * * * * * * * * * * * * * * * * * * * * * * * * * * * * * * * //

dimensions      [0 2 -2 0 0 0 0];

internalField   nonuniform List<scalar> 
12225
(
-268.011
-274.843
-278.191
-279.897
-280.748
-280.879
-280.477
-279.754
-278.818
-277.707
-276.452
-275.078
-273.614
-272.05
-270.348
-268.511
-266.535
-264.391
-269.1
-275.017
-278.247
-279.951
-280.795
-280.918
-280.51
-279.786
-278.85
-277.738
-276.483
-275.111
-273.647
-272.088
-270.402
-268.586
-266.62
-264.44
-269.286
-275.387
-278.425
-280.065
-280.862
-280.968
-280.563
-279.846
-278.914
-277.803
-276.548
-275.18
-273.718
-272.163
-270.49
-268.694
-266.771
-264.664
-271.229
-275.666
-278.65
-280.241
-281.012
-281.09
-280.668
-279.944
-279.008
-277.893
-276.636
-275.268
-273.808
-272.262
-270.616
-268.868
-267.008
-265.002
-274.489
-276.614
-279.054
-280.514
-281.193
-281.228
-280.797
-280.07
-279.129
-278.011
-276.754
-275.39
-273.939
-272.409
-270.794
-269.09
-267.293
-265.407
-273.728
-276.668
-279.436
-280.857
-281.481
-281.472
-281.004
-280.253
-279.295
-278.169
-276.908
-275.547
-274.105
-272.592
-271.009
-269.355
-267.639
-265.888
-274.084
-278.066
-280.308
-281.336
-281.819
-281.734
-281.235
-280.465
-279.492
-278.358
-277.098
-275.744
-274.317
-272.825
-271.276
-269.674
-268.038
-266.408
-271.977
-278.418
-280.726
-281.909
-282.287
-282.127
-281.572
-280.757
-279.751
-278.599
-277.335
-275.986
-274.571
-273.103
-271.592
-270.051
-268.497
-266.969
-276.091
-280.193
-281.875
-282.679
-282.859
-282.573
-281.957
-281.103
-280.071
-278.9
-277.627
-276.279
-274.878
-273.435
-271.965
-270.48
-269.003
-267.569
-278.966
-281.112
-282.803
-283.493
-283.497
-283.126
-282.44
-281.532
-280.462
-279.264
-277.978
-276.631
-275.243
-273.824
-272.388
-270.954
-269.546
-268.194
-280.905
-283.557
-284.561
-284.701
-284.379
-283.828
-283.02
-282.032
-280.912
-279.685
-278.385
-277.04
-275.664
-274.271
-272.876
-271.496
-270.149
-268.858
-286.206
-285.785
-285.985
-285.522
-285.143
-284.504
-283.611
-282.561
-281.402
-280.15
-278.835
-277.484
-276.112
-274.735
-273.368
-272.026
-270.726
-269.485
-289.762
-288.054
-287.793
-286.989
-286.245
-285.409
-284.351
-283.191
-281.968
-280.668
-279.327
-277.969
-276.604
-275.244
-273.903
-272.594
-271.331
-270.132
-293.638
-290.802
-289.095
-288.231
-287.259
-286.28
-285.112
-283.955
-282.684
-281.351
-279.988
-278.617
-277.25
-275.895
-274.567
-273.282
-272.052
-270.888
-298.234
-293.432
-291.843
-290.47
-289.082
-287.754
-286.424
-285.052
-283.651
-282.23
-280.806
-279.405
-278.032
-276.688
-275.383
-274.127
-272.927
-271.791
-291.5
-294.665
-293.797
-292.237
-290.835
-289.322
-287.822
-286.325
-284.84
-283.352
-281.886
-280.451
-279.054
-277.698
-276.391
-275.142
-273.955
-272.835
-304.048
-300.144
-297.625
-295.497
-293.647
-291.798
-289.97
-288.157
-286.437
-284.797
-283.227
-281.724
-280.281
-278.9
-277.587
-276.342
-275.162
-274.047
-307.558
-304.74
-301.832
-298.933
-296.35
-294.05
-291.993
-290.088
-288.258
-286.508
-284.854
-283.286
-281.79
-280.369
-279.03
-277.769
-276.582
-275.465
-314.877
-309.379
-305.899
-302.625
-299.809
-297.25
-294.869
-292.667
-290.596
-288.642
-286.825
-285.142
-283.561
-282.069
-280.669
-279.359
-278.131
-276.978
-310.814
-311.818
-309.038
-305.78
-302.748
-299.834
-297.154
-294.766
-292.552
-290.451
-288.507
-286.716
-285.053
-283.495
-282.046
-280.699
-279.447
-278.282
-328.767
-317.726
-312.252
-308.28
-304.837
-301.736
-298.92
-296.361
-293.981
-291.764
-289.718
-287.837
-286.095
-284.468
-282.975
-281.59
-280.301
-279.101
-322.14
-316.798
-313.557
-309.938
-306.402
-303.175
-300.221
-297.5
-295
-292.709
-290.607
-288.672
-286.886
-285.246
-283.707
-282.292
-280.984
-279.777
-316.686
-317.884
-314.941
-311.33
-307.672
-304.315
-301.235
-298.407
-295.823
-293.472
-291.304
-289.311
-287.475
-285.785
-284.223
-282.777
-281.445
-280.211
-317.122
-319.248
-316.53
-312.672
-308.809
-305.25
-301.998
-299.055
-296.388
-293.969
-291.768
-289.746
-287.886
-286.176
-284.598
-283.144
-281.798
-280.56
-322.838
-322.455
-318.384
-313.825
-309.634
-305.897
-302.518
-299.523
-296.806
-294.348
-292.111
-290.062
-288.183
-286.457
-284.867
-283.395
-282.035
-280.777
-336.189
-326.382
-320.134
-314.875
-310.373
-306.449
-302.999
-299.871
-297.093
-294.594
-292.332
-290.271
-288.383
-286.647
-285.046
-283.567
-282.199
-280.937
-342.177
-329.018
-321.419
-315.579
-310.8
-306.755
-303.222
-300.075
-297.273
-294.757
-292.485
-290.414
-288.516
-286.768
-285.156
-283.668
-282.293
-281.028
-343.294
-330.425
-322.275
-316.092
-311.128
-306.971
-303.385
-300.214
-297.389
-294.857
-292.576
-290.501
-288.599
-286.848
-285.23
-283.736
-282.357
-281.087
-344.189
-331.206
-322.723
-316.345
-311.284
-307.08
-303.461
-300.273
-297.435
-294.898
-292.62
-290.555
-288.658
-286.902
-285.275
-283.769
-282.38
-281.104
-343.62
-331.393
-322.918
-316.472
-311.353
-307.116
-303.489
-300.307
-297.468
-294.924
-292.64
-290.571
-288.673
-286.917
-285.288
-283.78
-282.387
-281.108
-253.603
-253.639
-253.692
-253.747
-253.779
-253.776
-253.742
-253.688
-253.687
-253.763
-253.948
-254.255
-254.68
-255.195
-255.766
-256.358
-256.94
-257.483
-257.968
-258.389
-258.738
-259.002
-259.167
-259.222
-259.155
-258.95
-258.588
-258.052
-257.338
-256.455
-255.427
-254.282
-253.064
-251.879
-250.777
-249.848
-249.406
-248.851
-248.092
-247.883
-247.886
-247.469
-246.479
-245.706
-246.334
-248.034
-250.52
-253.488
-256.695
-259.954
-263.144
-266.182
-268.984
-271.451
-273.526
-275.124
-276.165
-276.616
-276.49
-275.841
-274.745
-273.25
-271.345
-268.984
-266.185
-263.216
-260.385
-257.68
-254.836
-251.502
-248.031
-244.662
-241.381
-238.155
-234.981
-231.859
-228.79
-225.778
-222.824
-219.925
-217.085
-214.309
-211.587
-208.897
-206.231
-203.594
-200.979
-198.38
-195.809
-193.27
-190.768
-188.306
-185.888
-183.523
-181.221
-178.998
-176.878
-174.877
-172.99
-171.189
-169.36
-167.486
-165.571
-163.595
-162.297
-161.504
-160.831
-160.239
-159.649
-158.582
-157.693
-156.975
-156.94
-160.15
-166.007
-172.559
-179.003
-184.879
-189.927
-193.969
-196.872
-198.548
-198.942
-198.071
-195.964
-192.726
-188.505
-183.485
-177.88
-171.92
-165.826
-159.797
-154.005
-148.585
-143.632
-139.197
-135.287
-131.884
-128.943
-126.399
-124.176
-122.192
-120.379
-118.686
-117.077
-115.53
-114.036
-112.589
-111.191
-109.848
-108.573
-107.386
-106.314
-105.392
-104.655
-104.125
-103.802
-103.664
-103.651
-103.669
-103.621
-103.371
-102.763
-101.705
-100.068
-97.719
-94.3476
-91.8519
-93.2825
-97.1572
-98.3586
-96.9147
-94.0279
-90.1019
-85.7006
-81.7471
-78.4862
-75.8711
-73.5591
-71.4384
-253.651
-253.687
-253.759
-253.83
-253.884
-253.912
-253.915
-253.915
-253.959
-254.086
-254.318
-254.661
-255.103
-255.62
-256.182
-256.758
-257.326
-257.866
-258.355
-258.78
-259.138
-259.423
-259.62
-259.702
-259.653
-259.458
-259.091
-258.538
-257.797
-256.877
-255.801
-254.621
-253.382
-252.133
-250.932
-249.88
-249.083
-248.775
-248.001
-246.917
-247.614
-248.227
-247.786
-247.568
-248.305
-249.956
-252.292
-255.055
-258.041
-261.107
-264.149
-267.083
-269.828
-272.301
-274.38
-275.965
-276.978
-277.379
-277.179
-276.436
-275.256
-273.766
-272.055
-270.068
-267.678
-264.922
-262.086
-259.178
-255.837
-252.249
-248.634
-245.129
-241.746
-238.464
-235.262
-232.121
-229.029
-225.99
-223.01
-220.088
-217.224
-214.419
-211.668
-208.955
-206.266
-203.607
-200.976
-198.369
-195.795
-193.256
-190.754
-188.297
-185.883
-183.523
-181.226
-178.997
-176.856
-174.832
-172.954
-171.22
-169.485
-167.695
-165.824
-163.847
-162.542
-161.668
-160.892
-160.207
-159.722
-158.797
-157.719
-157.341
-158.369
-162.323
-168.107
-174.333
-180.425
-186.054
-190.943
-194.891
-197.732
-199.359
-199.731
-198.793
-196.629
-193.336
-189.055
-183.971
-178.299
-172.274
-166.123
-160.047
-154.218
-148.771
-143.798
-139.344
-135.416
-131.997
-129.044
-126.476
-124.231
-122.23
-120.405
-118.703
-117.089
-115.541
-114.047
-112.602
-111.207
-109.869
-108.599
-107.417
-106.351
-105.435
-104.704
-104.182
-103.868
-103.739
-103.736
-103.764
-103.736
-103.509
-102.937
-101.977
-100.453
-98.4272
-95.6576
-93.4481
-94.9407
-97.9797
-98.4298
-96.9721
-94.2414
-90.2404
-85.7534
-81.6999
-78.4057
-75.7862
-73.4967
-71.4309
-253.484
-253.502
-253.529
-253.59
-253.693
-253.822
-253.971
-254.15
-254.381
-254.68
-255.056
-255.507
-256.02
-256.568
-257.125
-257.67
-258.19
-258.676
-259.124
-259.534
-259.899
-260.215
-260.469
-260.646
-260.694
-260.575
-260.264
-259.725
-258.919
-257.849
-256.58
-255.197
-253.758
-252.315
-250.885
-249.582
-248.003
-246.722
-247.157
-247.396
-247.85
-248.715
-249.54
-250.458
-251.714
-253.403
-255.5
-257.931
-260.598
-263.407
-266.26
-269.057
-271.697
-274.077
-276.088
-277.618
-278.584
-278.95
-278.725
-277.962
-276.74
-275.146
-273.26
-271.156
-268.849
-266.288
-263.442
-260.299
-256.838
-253.175
-249.484
-245.888
-242.417
-239.054
-235.778
-232.574
-229.434
-226.354
-223.336
-220.377
-217.471
-214.616
-211.816
-209.061
-206.335
-203.645
-200.995
-198.376
-195.796
-193.257
-190.757
-188.305
-185.899
-183.543
-181.248
-179.017
-176.864
-174.813
-172.922
-171.227
-169.625
-168.032
-166.288
-164.337
-162.861
-161.812
-160.942
-160.398
-159.958
-159.059
-158.382
-159.054
-161.51
-165.72
-170.806
-176.434
-182.153
-187.594
-192.406
-196.329
-199.164
-200.778
-201.104
-200.121
-197.888
-194.504
-190.113
-184.905
-179.102
-172.948
-166.68
-160.512
-154.615
-149.12
-144.111
-139.626
-135.67
-132.235
-129.248
-126.648
-124.367
-122.334
-120.483
-118.76
-117.13
-115.572
-114.073
-112.628
-111.237
-109.906
-108.646
-107.476
-106.423
-105.523
-104.81
-104.308
-104.015
-103.906
-103.929
-103.987
-103.986
-103.802
-103.291
-102.4
-101.019
-99.175
-97.0213
-95.3846
-95.9685
-97.7179
-98.115
-96.7695
-94.0165
-90.0658
-85.6304
-81.6028
-78.3531
-75.7831
-73.5187
-71.4211
-253.315
-253.275
-253.265
-253.356
-253.552
-253.848
-254.222
-254.648
-255.113
-255.613
-256.139
-256.677
-257.212
-257.734
-258.233
-258.707
-259.165
-259.604
-260.025
-260.453
-260.891
-261.294
-261.644
-261.954
-262.189
-262.253
-262.086
-261.661
-260.912
-259.772
-258.286
-256.594
-254.838
-253.094
-251.24
-249.533
-248.721
-248.372
-248.549
-249.247
-250.204
-251.36
-252.642
-254.09
-255.716
-257.566
-259.645
-261.939
-264.4
-266.969
-269.576
-272.147
-274.59
-276.793
-278.641
-280.023
-280.852
-281.09
-280.748
-279.879
-278.566
-276.899
-274.941
-272.733
-270.273
-267.567
-264.565
-261.289
-257.766
-254.1
-250.41
-246.772
-243.217
-239.754
-236.384
-233.103
-229.906
-226.787
-223.741
-220.761
-217.833
-214.946
-212.101
-209.298
-206.53
-203.796
-201.103
-198.451
-195.844
-193.283
-190.77
-188.31
-185.904
-183.552
-181.261
-179.038
-176.895
-174.837
-172.906
-171.18
-169.65
-168.249
-166.709
-164.818
-163.139
-161.966
-161.203
-160.833
-160.436
-159.59
-159.662
-161.445
-164.55
-168.606
-173.327
-178.668
-184.252
-189.674
-194.519
-198.482
-201.336
-202.927
-203.177
-202.124
-199.793
-196.276
-191.72
-186.32
-180.311
-173.952
-167.499
-161.178
-155.166
-149.589
-144.521
-139.99
-135.992
-132.545
-129.515
-126.876
-124.556
-122.485
-120.6
-118.849
-117.197
-115.622
-114.114
-112.667
-111.281
-109.961
-108.716
-107.566
-106.538
-105.667
-104.986
-104.517
-104.261
-104.189
-104.251
-104.353
-104.4
-104.279
-103.844
-103.041
-101.819
-100.188
-98.3729
-96.9021
-96.805
-97.6864
-97.6638
-96.1233
-93.3083
-89.5057
-85.321
-81.4769
-78.3141
-75.749
-73.4903
-71.4168
-253.402
-253.334
-253.334
-253.488
-253.831
-254.321
-254.889
-255.483
-256.073
-256.644
-257.188
-257.698
-258.172
-258.608
-259.011
-259.402
-259.798
-260.214
-260.665
-261.139
-261.648
-262.213
-262.827
-263.461
-264.04
-264.482
-264.657
-264.463
-263.808
-262.643
-261.056
-259.159
-257.052
-254.966
-253.22
-252.048
-251.464
-251.473
-251.96
-252.822
-253.948
-255.252
-256.706
-258.327
-260.114
-262.067
-264.181
-266.444
-268.826
-271.284
-273.761
-276.19
-278.488
-280.547
-282.245
-283.471
-284.146
-284.227
-283.707
-282.628
-281.067
-279.127
-276.889
-274.397
-271.687
-268.74
-265.587
-262.227
-258.686
-255.026
-251.32
-247.629
-243.994
-240.442
-236.99
-233.641
-230.394
-227.241
-224.173
-221.176
-218.238
-215.345
-212.485
-209.653
-206.849
-204.07
-201.321
-198.614
-195.955
-193.35
-190.807
-188.324
-185.906
-183.551
-181.261
-179.039
-176.915
-174.884
-172.928
-171.141
-169.573
-168.245
-166.884
-165.148
-163.343
-162.102
-161.338
-160.899
-160.277
-159.892
-161.068
-163.679
-167.043
-171.026
-175.792
-181.221
-186.952
-192.514
-197.478
-201.518
-204.403
-205.971
-206.153
-204.983
-202.495
-198.781
-193.986
-188.311
-182.004
-175.348
-168.62
-162.071
-155.885
-150.181
-145.023
-140.425
-136.368
-132.89
-129.809
-127.127
-124.766
-122.658
-120.74
-118.961
-117.288
-115.698
-114.182
-112.736
-111.359
-110.056
-108.835
-107.716
-106.724
-105.894
-105.257
-104.836
-104.628
-104.607
-104.72
-104.884
-104.995
-104.951
-104.616
-103.931
-102.855
-101.404
-99.7748
-98.34
-97.7625
-97.9071
-97.3867
-95.5683
-92.6282
-88.9206
-84.9297
-81.2532
-78.2193
-75.7303
-73.5112
-71.4346
-253.52
-253.511
-253.636
-253.977
-254.494
-255.111
-255.767
-256.414
-257.019
-257.569
-258.057
-258.483
-258.852
-259.171
-259.458
-259.756
-260.088
-260.444
-260.895
-261.512
-262.284
-263.18
-264.171
-265.216
-266.225
-267.048
-267.602
-267.734
-267.275
-266.136
-264.425
-262.336
-260.271
-258.419
-256.897
-255.863
-255.398
-255.484
-256.019
-256.898
-258.044
-259.392
-260.911
-262.593
-264.445
-266.467
-268.653
-270.982
-273.425
-275.935
-278.45
-280.897
-283.183
-285.205
-286.849
-288
-288.561
-288.477
-287.741
-286.394
-284.502
-282.227
-279.623
-276.768
-273.705
-270.464
-267.065
-263.516
-259.837
-256.071
-252.271
-248.49
-244.771
-241.142
-237.622
-234.216
-230.922
-227.734
-224.641
-221.63
-218.688
-215.802
-212.953
-210.126
-207.313
-204.509
-201.716
-198.951
-196.23
-193.564
-190.96
-188.426
-185.967
-183.583
-181.276
-179.039
-176.912
-174.901
-172.958
-171.122
-169.466
-168.079
-166.801
-165.205
-163.371
-161.978
-161.018
-160.274
-159.474
-159.837
-162.269
-165.473
-169.073
-173.315
-178.469
-184.284
-190.365
-196.187
-201.327
-205.464
-208.381
-209.92
-210.003
-208.676
-205.977
-202.002
-196.897
-190.865
-184.171
-177.123
-170.032
-163.176
-156.751
-150.872
-145.591
-140.908
-136.793
-133.236
-130.107
-127.375
-124.973
-122.831
-120.887
-119.088
-117.399
-115.801
-114.285
-112.849
-111.49
-110.213
-109.025
-107.943
-106.995
-106.215
-105.631
-105.263
-105.111
-105.149
-105.326
-105.563
-105.756
-105.804
-105.582
-105.003
-104.054
-102.756
-101.259
-99.8204
-98.8549
-98.3341
-97.3109
-95.221
-92.1756
-88.4903
-84.5937
-81.0496
-78.1239
-75.6919
-73.5
-71.4348
-253.57
-253.725
-254.102
-254.642
-255.284
-255.974
-256.659
-257.294
-257.852
-258.322
-258.704
-259.008
-259.242
-259.41
-259.549
-259.7
-259.93
-260.306
-260.835
-261.527
-262.41
-263.483
-264.728
-266.065
-267.362
-268.411
-269.052
-269.213
-268.821
-267.852
-266.402
-264.667
-262.9
-261.312
-260.065
-259.281
-258.996
-259.175
-259.752
-260.659
-261.829
-263.217
-264.798
-266.573
-268.548
-270.725
-273.09
-275.609
-278.239
-280.924
-283.601
-286.191
-288.594
-290.694
-292.367
-293.495
-293.979
-293.757
-292.824
-291.227
-289.024
-286.295
-283.208
-279.863
-276.335
-272.669
-268.894
-265.032
-261.111
-257.166
-253.237
-249.361
-245.567
-241.875
-238.296
-234.835
-231.492
-228.264
-225.144
-222.123
-219.187
-216.315
-213.484
-210.676
-207.874
-205.067
-202.257
-199.456
-196.682
-193.956
-191.292
-188.699
-186.181
-183.742
-181.389
-179.117
-176.938
-174.904
-172.973
-171.116
-169.376
-167.839
-166.514
-164.976
-163.145
-161.501
-160.189
-158.987
-158.219
-159.539
-163.12
-166.847
-170.832
-175.663
-181.474
-187.915
-194.483
-200.634
-205.979
-210.231
-213.193
-214.712
-214.7
-213.19
-210.227
-205.924
-200.433
-193.96
-186.785
-179.246
-171.704
-164.465
-157.739
-151.641
-146.21
-141.426
-137.245
-133.61
-130.427
-127.642
-125.196
-123.023
-121.059
-119.25
-117.558
-115.963
-114.458
-113.039
-111.706
-110.457
-109.301
-108.257
-107.353
-106.619
-106.084
-105.769
-105.675
-105.778
-106.032
-106.359
-106.657
-106.816
-106.715
-106.253
-105.416
-104.226
-102.8
-101.325
-100.04
-98.9442
-97.437
-95.0864
-91.9358
-88.2461
-84.4123
-80.9229
-78.0272
-75.6249
-73.4713
-71.4338
-253.926
-254.209
-254.747
-255.379
-256.057
-256.734
-257.357
-257.888
-258.308
-258.622
-258.846
-258.996
-259.078
-259.095
-259.117
-259.232
-259.425
-259.737
-260.244
-260.966
-261.893
-262.97
-264.153
-265.351
-266.478
-267.426
-268.048
-268.229
-267.931
-267.189
-266.114
-264.868
-263.637
-262.593
-261.863
-261.514
-261.555
-261.965
-262.706
-263.735
-265.015
-266.53
-268.281
-270.277
-272.518
-274.987
-277.649
-280.456
-283.357
-286.293
-289.198
-291.999
-294.599
-296.876
-298.688
-299.886
-300.342
-299.977
-298.784
-296.81
-294.17
-290.961
-287.323
-283.388
-279.27
-275.057
-270.808
-266.564
-262.354
-258.203
-254.134
-250.165
-246.309
-242.571
-238.952
-235.453
-232.073
-228.813
-225.673
-222.647
-219.721
-216.873
-214.074
-211.295
-208.512
-205.711
-202.889
-200.061
-197.249
-194.476
-191.761
-189.115
-186.543
-184.049
-181.637
-179.318
-177.077
-174.964
-172.997
-171.122
-169.321
-167.626
-166.148
-164.574
-162.728
-160.807
-159.108
-157.486
-156.84
-159.104
-163.66
-167.872
-172.446
-178.114
-184.774
-191.972
-199.077
-205.576
-211.144
-215.544
-218.599
-220.155
-220.114
-218.453
-215.224
-210.558
-204.624
-197.638
-189.889
-181.76
-173.669
-165.966
-158.879
-152.522
-146.918
-142.021
-137.76
-134.054
-130.815
-127.979
-125.489
-123.288
-121.31
-119.498
-117.81
-116.223
-114.731
-113.33
-112.016
-110.79
-109.658
-108.642
-107.769
-107.073
-106.583
-106.319
-106.287
-106.469
-106.818
-107.261
-107.689
-107.985
-108.023
-107.695
-106.961
-105.829
-104.403
-102.846
-101.29
-99.7168
-97.7718
-95.1544
-91.8766
-88.1712
-84.3748
-80.8885
-77.9712
-75.5692
-73.4419
-71.4249
-254.664
-254.973
-255.466
-256.049
-256.657
-257.223
-257.696
-258.05
-258.285
-258.418
-258.473
-258.467
-258.415
-258.353
-258.32
-258.361
-258.515
-258.8
-259.225
-259.796
-260.521
-261.343
-262.227
-263.138
-263.978
-264.653
-265.087
-265.225
-265.058
-264.635
-264.051
-263.428
-262.888
-262.53
-262.42
-262.59
-263.047
-263.783
-264.782
-266.031
-267.531
-269.296
-271.344
-273.68
-276.284
-279.113
-282.118
-285.253
-288.48
-291.761
-295.043
-298.242
-301.242
-303.889
-305.994
-307.362
-307.844
-307.348
-305.85
-303.484
-300.336
-296.521
-292.197
-287.538
-282.7
-277.813
-272.975
-268.25
-263.673
-259.259
-255.013
-250.933
-247.01
-243.231
-239.584
-236.059
-232.653
-229.371
-226.22
-223.2
-220.299
-217.491
-214.74
-212.006
-209.253
-206.461
-203.622
-200.753
-197.89
-195.065
-192.303
-189.613
-186.998
-184.458
-181.983
-179.607
-177.306
-175.106
-173.073
-171.159
-169.301
-167.48
-165.815
-164.176
-162.29
-160.122
-158.071
-156.091
-155.599
-158.596
-163.876
-168.653
-173.971
-180.574
-188.17
-196.146
-203.766
-210.599
-216.405
-221.008
-224.241
-225.935
-225.965
-224.246
-220.828
-215.843
-209.473
-201.946
-193.569
-184.764
-176.02
-167.76
-160.244
-153.582
-147.78
-142.748
-138.394
-134.62
-131.329
-128.448
-125.92
-123.689
-121.692
-119.868
-118.173
-116.587
-115.1
-113.706
-112.399
-111.179
-110.055
-109.053
-108.204
-107.541
-107.095
-106.891
-106.936
-107.216
-107.687
-108.276
-108.868
-109.334
-109.535
-109.354
-108.723
-107.623
-106.143
-104.438
-102.607
-100.631
-98.3034
-95.4136
-91.9838
-88.2394
-84.4543
-80.9508
-77.9824
-75.5421
-73.4126
-71.4059
-255.264
-255.531
-255.935
-256.428
-256.923
-257.341
-257.646
-257.828
-257.894
-257.868
-257.779
-257.658
-257.527
-257.4
-257.332
-257.346
-257.392
-257.526
-257.763
-258.102
-258.521
-259.03
-259.582
-260.143
-260.675
-261.131
-261.468
-261.66
-261.713
-261.667
-261.588
-261.549
-261.617
-261.842
-262.258
-262.883
-263.726
-264.789
-266.075
-267.601
-269.395
-271.493
-273.915
-276.648
-279.649
-282.865
-286.253
-289.793
-293.477
-297.286
-301.167
-305.011
-308.653
-311.88
-314.443
-316.099
-316.67
-316.082
-314.35
-311.502
-307.691
-303.093
-297.914
-292.368
-286.66
-280.969
-275.435
-270.147
-265.145
-260.431
-255.988
-251.785
-247.787
-243.963
-240.286
-236.738
-233.311
-230.005
-226.833
-223.802
-220.91
-218.135
-215.435
-212.759
-210.051
-207.275
-204.417
-201.497
-198.566
-195.679
-192.871
-190.15
-187.51
-184.945
-182.427
-179.981
-177.616
-175.329
-173.191
-171.221
-169.317
-167.403
-165.554
-163.869
-161.97
-159.662
-157.332
-155.074
-154.595
-158.036
-163.848
-169.3
-175.391
-182.883
-191.396
-200.089
-208.166
-215.315
-221.397
-226.286
-229.79
-231.718
-231.905
-230.229
-226.739
-221.543
-214.824
-206.81
-197.813
-188.291
-178.812
-169.902
-161.876
-154.857
-148.813
-143.622
-139.164
-135.319
-131.977
-129.056
-126.491
-124.224
-122.195
-120.344
-118.629
-117.028
-115.531
-114.128
-112.812
-111.583
-110.457
-109.463
-108.636
-108.009
-107.615
-107.483
-107.627
-108.033
-108.66
-109.429
-110.22
-110.886
-111.276
-111.248
-110.715
-109.641
-108.08
-106.174
-104.036
-101.685
-99.0056
-95.8459
-92.2456
-88.4319
-84.6357
-81.105
-78.0632
-75.5486
-73.3904
-71.3863
-255.426
-255.633
-255.934
-256.311
-256.679
-256.947
-257.11
-257.166
-257.129
-257.023
-256.87
-256.677
-256.482
-256.32
-256.178
-256.05
-256.004
-256.01
-256.074
-256.196
-256.368
-256.586
-256.845
-257.144
-257.477
-257.823
-258.156
-258.461
-258.741
-259.023
-259.347
-259.753
-260.273
-260.928
-261.735
-262.704
-263.847
-265.177
-266.724
-268.529
-270.643
-273.105
-275.925
-279.071
-282.488
-286.128
-289.976
-294.044
-298.348
-302.87
-307.53
-312.171
-316.557
-320.4
-323.396
-325.274
-325.847
-325.056
-322.936
-319.546
-315.048
-309.653
-303.607
-297.167
-290.582
-284.077
-277.836
-271.982
-266.56
-261.567
-256.956
-252.666
-248.632
-244.797
-241.113
-237.55
-234.094
-230.751
-227.54
-224.48
-221.569
-218.783
-216.087
-213.437
-210.752
-207.99
-205.123
-202.163
-199.173
-196.228
-193.378
-190.641
-188.002
-185.439
-182.927
-180.444
-178.023
-175.663
-173.403
-171.325
-169.371
-167.404
-165.415
-163.676
-161.835
-159.531
-157.042
-154.608
-153.955
-157.499
-163.702
-169.803
-176.651
-184.876
-194.22
-203.54
-212.039
-219.518
-225.931
-231.199
-235.055
-237.276
-237.675
-236.096
-232.621
-227.315
-220.362
-211.979
-202.452
-192.24
-181.983
-172.344
-163.726
-156.301
-149.967
-144.591
-140.016
-136.096
-132.707
-129.749
-127.151
-124.847
-122.777
-120.886
-119.136
-117.509
-115.992
-114.568
-113.229
-111.982
-110.849
-109.865
-109.063
-108.478
-108.148
-108.109
-108.377
-108.943
-109.763
-110.754
-111.78
-112.679
-113.278
-113.41
-112.967
-111.898
-110.236
-108.102
-105.628
-102.892
-99.8576
-96.428
-92.6451
-88.7352
-84.9065
-81.3363
-78.2056
-75.5937
-73.3846
-71.3707
-255.144
-255.271
-255.477
-255.731
-255.956
-256.106
-256.169
-256.152
-256.07
-255.94
-255.769
-255.59
-255.403
-255.214
-255.021
-254.833
-254.668
-254.531
-254.427
-254.358
-254.323
-254.327
-254.388
-254.532
-254.769
-255.089
-255.466
-255.884
-256.344
-256.864
-257.469
-258.175
-258.995
-259.936
-261.004
-262.208
-263.565
-265.102
-266.865
-268.916
-271.319
-274.12
-277.317
-280.863
-284.697
-288.784
-293.133
-297.784
-302.756
-308.013
-313.434
-318.8
-323.812
-328.127
-331.406
-333.378
-333.869
-332.822
-330.336
-326.467
-321.378
-315.301
-308.512
-301.305
-293.964
-286.751
-279.889
-273.535
-267.752
-262.526
-257.789
-253.446
-249.408
-245.595
-241.946
-238.416
-234.976
-231.618
-228.359
-225.229
-222.255
-219.434
-216.73
-214.097
-211.427
-208.671
-205.79
-202.799
-199.766
-196.771
-193.874
-191.097
-188.435
-185.863
-183.362
-180.893
-178.464
-176.081
-173.744
-171.535
-169.507
-167.522
-165.474
-163.637
-161.911
-159.742
-157.253
-154.773
-153.778
-157.069
-163.518
-170.182
-177.646
-186.533
-196.439
-206.33
-215.273
-223.122
-229.926
-235.647
-239.905
-242.439
-243.055
-241.627
-238.208
-232.847
-225.742
-217.11
-207.192
-196.395
-185.376
-174.965
-165.707
-157.804
-151.152
-145.571
-140.869
-136.873
-133.437
-130.451
-127.825
-125.489
-123.381
-121.448
-119.659
-118.001
-116.456
-115.004
-113.636
-112.371
-111.235
-110.264
-109.491
-108.954
-108.703
-108.779
-109.202
-109.962
-111.015
-112.267
-113.572
-114.742
-115.579
-115.886
-115.526
-114.433
-112.638
-110.245
-107.409
-104.262
-100.853
-97.1418
-93.1642
-89.134
-85.2494
-81.6268
-78.4014
-75.6792
-73.3978
-71.3591
-254.54
-254.615
-254.742
-254.893
-255.011
-255.076
-255.092
-255.065
-254.998
-254.889
-254.75
-254.579
-254.38
-254.157
-253.917
-253.668
-253.419
-253.176
-252.945
-252.732
-252.55
-252.415
-252.354
-252.409
-252.605
-252.939
-253.377
-253.892
-254.477
-255.146
-255.924
-256.821
-257.836
-258.958
-260.185
-261.526
-263.007
-264.673
-266.586
-268.825
-271.464
-274.546
-278.06
-281.958
-286.176
-290.685
-295.511
-300.697
-306.256
-312.128
-318.148
-324.051
-329.499
-334.12
-337.57
-339.587
-340.03
-338.864
-336.1
-331.862
-326.323
-319.733
-312.387
-304.606
-296.702
-288.95
-281.601
-274.853
-268.79
-263.399
-258.581
-254.21
-250.165
-246.353
-242.704
-239.182
-235.764
-232.43
-229.172
-226.009
-222.987
-220.142
-217.469
-214.913
-212.363
-209.696
-206.839
-203.783
-200.617
-197.474
-194.461
-191.606
-188.891
-186.286
-183.764
-181.286
-178.84
-176.473
-174.155
-171.88
-169.764
-167.793
-165.773
-163.849
-162.222
-160.283
-157.944
-155.579
-154.173
-156.901
-163.309
-170.387
-178.311
-187.673
-198.047
-208.409
-217.809
-226.077
-233.282
-239.469
-244.124
-246.983
-247.842
-246.612
-243.279
-237.896
-230.677
-221.88
-211.706
-200.472
-188.769
-177.604
-167.691
-159.283
-152.291
-146.495
-141.662
-137.589
-134.11
-131.097
-128.453
-126.096
-123.961
-121.995
-120.173
-118.483
-116.907
-115.424
-114.032
-112.755
-111.621
-110.662
-109.921
-109.443
-109.287
-109.5
-110.102
-111.086
-112.409
-113.969
-115.602
-117.09
-118.203
-118.707
-118.428
-117.287
-115.322
-112.632
-109.398
-105.808
-101.994
-97.9767
-93.7848
-89.6105
-85.6456
-81.9608
-78.6412
-75.8006
-73.4281
-71.351
-253.801
-253.836
-253.9
-253.985
-254.05
-254.089
-254.109
-254.115
-254.066
-253.989
-253.867
-253.696
-253.482
-253.232
-252.953
-252.65
-252.335
-252.016
-251.698
-251.387
-251.107
-250.883
-250.75
-250.75
-250.916
-251.256
-251.744
-252.347
-253.038
-253.817
-254.697
-255.693
-256.804
-258.021
-259.333
-260.749
-262.295
-264.024
-266.013
-268.354
-271.132
-274.398
-278.143
-282.319
-286.855
-291.715
-296.919
-302.506
-308.475
-314.744
-321.119
-327.311
-332.965
-337.714
-341.226
-343.256
-343.675
-342.442
-339.542
-335.096
-329.298
-322.411
-314.752
-306.662
-298.474
-290.443
-282.827
-275.864
-269.658
-264.206
-259.379
-255.017
-250.975
-247.143
-243.453
-239.881
-236.422
-233.075
-229.834
-226.695
-223.681
-220.843
-218.225
-215.806
-213.469
-211.039
-208.358
-205.325
-201.988
-198.536
-195.196
-192.111
-189.284
-186.644
-184.12
-181.665
-179.24
-176.867
-174.578
-172.331
-170.176
-168.218
-166.295
-164.374
-162.79
-161.114
-159.039
-156.944
-155.213
-157.142
-163.104
-170.379
-178.625
-188.268
-198.968
-209.727
-219.577
-228.271
-235.881
-242.384
-247.384
-250.549
-251.684
-250.712
-247.562
-242.236
-234.951
-226.036
-215.706
-204.194
-191.913
-180.105
-169.566
-160.663
-153.34
-147.337
-142.383
-138.24
-134.72
-131.682
-129.021
-126.651
-124.499
-122.513
-120.666
-118.948
-117.342
-115.832
-114.424
-113.139
-112.003
-111.057
-110.353
-109.947
-109.9
-110.262
-111.06
-112.299
-113.942
-115.876
-117.91
-119.784
-121.219
-121.942
-121.736
-120.514
-118.324
-115.286
-111.613
-107.543
-103.285
-98.9252
-94.4917
-90.1478
-86.0787
-82.3234
-78.912
-75.9496
-73.4726
-71.3444
-253.164
-253.163
-253.174
-253.206
-253.238
-253.271
-253.302
-253.318
-253.336
-253.297
-253.188
-253.011
-252.779
-252.504
-252.188
-251.836
-251.464
-251.084
-250.7
-250.326
-249.985
-249.704
-249.519
-249.478
-249.614
-249.945
-250.456
-251.117
-251.895
-252.771
-253.738
-254.798
-255.951
-257.192
-258.519
-259.942
-261.491
-263.222
-265.222
-267.586
-270.405
-273.741
-277.601
-281.942
-286.692
-291.792
-297.241
-303.053
-309.21
-315.616
-322.07
-328.282
-333.911
-338.607
-342.063
-344.045
-344.426
-343.161
-340.227
-335.725
-329.863
-322.92
-315.227
-307.138
-298.964
-290.951
-283.35
-276.386
-270.195
-264.802
-260.078
-255.822
-251.847
-248.023
-244.285
-240.626
-237.072
-233.646
-230.355
-227.203
-224.216
-221.438
-218.911
-216.635
-214.509
-212.337
-209.903
-207.027
-203.654
-199.931
-196.165
-192.669
-189.603
-186.931
-184.477
-182.066
-179.644
-177.281
-175.056
-172.894
-170.773
-168.825
-167.008
-165.183
-163.626
-162.185
-160.434
-158.695
-156.897
-157.916
-162.979
-170.176
-178.583
-188.33
-199.179
-210.231
-220.479
-229.55
-237.475
-244.225
-249.46
-252.86
-254.263
-253.603
-250.74
-245.613
-238.37
-229.396
-218.979
-207.269
-194.664
-182.327
-171.233
-161.884
-154.266
-148.087
-143.035
-138.84
-135.289
-132.23
-129.553
-127.17
-125.007
-123.007
-121.141
-119.4
-117.766
-116.234
-114.812
-113.516
-112.373
-111.443
-110.788
-110.463
-110.527
-111.042
-112.061
-113.614
-115.67
-118.091
-120.644
-123.008
-124.826
-125.78
-125.617
-124.249
-121.728
-118.248
-114.073
-109.476
-104.728
-99.9816
-95.2734
-90.7325
-86.5351
-82.6994
-79.1991
-76.1171
-73.5272
-71.3353
-252.801
-252.774
-252.745
-252.744
-252.764
-252.802
-252.853
-252.903
-252.926
-252.887
-252.767
-252.57
-252.314
-252.007
-251.647
-251.24
-250.806
-250.364
-249.921
-249.491
-249.102
-248.784
-248.569
-248.497
-248.605
-248.917
-249.43
-250.123
-250.96
-251.908
-252.946
-254.058
-255.237
-256.478
-257.782
-259.168
-260.674
-262.34
-264.281
-266.582
-269.342
-272.634
-276.48
-280.848
-285.672
-290.884
-296.439
-302.305
-308.435
-314.723
-320.98
-326.943
-332.306
-336.756
-340.016
-341.873
-342.196
-340.932