/*--------------------------------*- C++ -*----------------------------------*\
  =========                 |
  \\      /  F ield         | OpenFOAM: The Open Source CFD Toolbox
   \\    /   O peration     | Website:  https://openfoam.org
    \\  /    A nd           | Version:  9
     \\/     M anipulation  |
\*---------------------------------------------------------------------------*/
FoamFile
{
    format      ascii;
    class       volVectorField;
    location    "0.094";
    object      U;
}
// * * * * * * * * * * * * * * * * * * * * * * * * * * * * * * * * * * * * * //

dimensions      [0 1 -1 0 0 0 0];

internalField   nonuniform List<vector> 
12225
(
(9.8721 -0.00101255 0)
(9.60331 0.0477894 0)
(9.24971 0.0553876 0)
(8.8964 0.066267 0)
(8.57746 0.0565604 0)
(8.31356 0.0322101 0)
(8.10011 0.0182386 0)
(7.89829 0.0238587 0)
(7.66626 0.0404385 0)
(7.40213 0.0567446 0)
(7.109 0.0682856 0)
(6.81437 0.076284 0)
(6.49773 0.0780697 0)
(6.21073 0.0710597 0)
(5.92736 0.0654127 0)
(5.66661 0.0596032 0)
(5.39072 0.0739779 0)
(5.09819 0.118076 0)
(9.90433 0.071266 0)
(10.0468 0.108455 0)
(10.108 0.0961719 0)
(10.212 0.0831475 0)
(10.3252 0.0787507 0)
(10.3499 0.0812627 0)
(10.2695 0.086334 0)
(10.144 0.0928258 0)
(10.0301 0.0988233 0)
(9.9545 0.104595 0)
(9.9033 0.109316 0)
(9.86074 0.114052 0)
(9.79715 0.120755 0)
(9.71487 0.121808 0)
(9.60035 0.126465 0)
(9.47714 0.137797 0)
(9.32347 0.150766 0)
(9.1605 0.173803 0)
(9.76297 -0.023248 0)
(9.93731 -0.0238743 0)
(9.99084 0.00338765 0)
(9.99796 0.0217596 0)
(10.0014 0.0359832 0)
(10.0249 0.0538444 0)
(10.0742 0.074734 0)
(10.1263 0.0901123 0)
(10.1528 0.0940959 0)
(10.1476 0.0923152 0)
(10.124 0.0946135 0)
(10.0976 0.10803 0)
(10.077 0.131056 0)
(10.0594 0.151734 0)
(10.0343 0.168803 0)
(9.99942 0.18413 0)
(9.95388 0.200923 0)
(9.89053 0.226758 0)
(10.3095 0.049656 0)
(10.1935 0.0975731 0)
(10.0417 0.0957392 0)
(9.9684 0.0802216 0)
(9.97499 0.0618386 0)
(10.0212 0.0469781 0)
(10.0946 0.0487798 0)
(10.1704 0.0685807 0)
(10.2113 0.0963785 0)
(10.1999 0.120545 0)
(10.1502 0.13474 0)
(10.0915 0.138799 0)
(10.0498 0.138639 0)
(10.036 0.137231 0)
(10.0423 0.142013 0)
(10.0555 0.162728 0)
(10.0656 0.196476 0)
(10.0494 0.241851 0)
(9.63019 -0.00762599 0)
(9.83116 0.00371075 0)
(10.0179 0.0353604 0)
(10.1386 0.0448714 0)
(10.187 0.0358322 0)
(10.1821 0.0275841 0)
(10.171 0.0342707 0)
(10.1774 0.0561814 0)
(10.1929 0.0847593 0)
(10.202 0.110865 0)
(10.1986 0.129612 0)
(10.1859 0.140977 0)
(10.1709 0.149693 0)
(10.1601 0.157093 0)
(10.1539 0.167303 0)
(10.1496 0.186895 0)
(10.1469 0.216564 0)
(10.1353 0.25893 0)
(9.91275 0.0384255 0)
(9.88762 0.0416555 0)
(9.93847 0.0300743 0)
(9.98876 0.0302657 0)
(10.0064 0.0391191 0)
(9.99516 0.0389604 0)
(9.99035 0.0398638 0)
(10.0041 0.0553964 0)
(10.021 0.0856624 0)
(10.0241 0.1193 0)
(10.0097 0.143928 0)
(9.98675 0.153971 0)
(9.96679 0.153092 0)
(9.95925 0.147273 0)
(9.96315 0.145792 0)
(9.97834 0.158418 0)
(9.99632 0.189234 0)
(10.0195 0.241565 0)
(9.94327 -0.00557117 0)
(10.2426 -0.032654 0)
(10.3052 -0.0195158 0)
(10.2624 0.0286971 0)
(10.2116 0.0502771 0)
(10.1488 0.0448591 0)
(10.0624 0.0398743 0)
(9.96622 0.0523474 0)
(9.89096 0.0812159 0)
(9.8587 0.115536 0)
(9.87143 0.143155 0)
(9.914 0.157793 0)
(9.96191 0.161525 0)
(9.99406 0.160976 0)
(9.99348 0.162829 0)
(9.96512 0.176282 0)
(9.91465 0.203682 0)
(9.86902 0.251853 0)
(10.2175 -0.00423571 0)
(10.231 -0.00169702 0)
(10.0929 0.035306 0)
(10.0102 0.0622086 0)
(10.0544 0.0697971 0)
(10.1507 0.0804586 0)
(10.2117 0.10085 0)
(10.1987 0.120998 0)
(10.1291 0.131045 0)
(10.0458 0.128874 0)
(9.98163 0.119461 0)
(9.94832 0.111631 0)
(9.94378 0.113713 0)
(9.95887 0.130425 0)
(9.98189 0.159734 0)
(9.99794 0.199327 0)
(10.0008 0.244083 0)
(9.97958 0.292352 0)
(10.0007 -0.0616183 0)
(9.92021 -0.0372859 0)
(9.86401 0.0252495 0)
(9.85026 0.0377041 0)
(9.88446 0.00389869 0)
(9.96721 -0.0102153 0)
(10.0772 0.0243094 0)
(10.177 0.0881562 0)
(10.237 0.148587 0)
(10.2461 0.184704 0)
(10.2086 0.192719 0)
(10.1396 0.179617 0)
(10.0615 0.157583 0)
(9.99518 0.13996 0)
(9.95568 0.138736 0)
(9.94423 0.161253 0)
(9.9563 0.208443 0)
(9.97964 0.276919 0)
(10.2401 0.0962386 0)
(10.0931 0.0823405 0)
(10.1492 0.101178 0)
(10.2133 0.0750384 0)
(10.1945 0.0273979 0)
(10.1107 -0.00319597 0)
(10.033 0.00327778 0)
(10.0033 0.0425069 0)
(10.0154 0.0941503 0)
(10.0491 0.140324 0)
(10.0874 0.173304 0)
(10.1199 0.192107 0)
(10.1351 0.198902 0)
(10.127 0.198845 0)
(10.0937 0.197953 0)
(10.0472 0.20514 0)
(9.99826 0.223899 0)
(9.96484 0.259335 0)
(9.78449 0.0325658 0)
(9.92301 -0.0467726 0)
(10.0642 -0.061993 0)
(10.1507 -0.0112822 0)
(10.1577 0.036868 0)
(10.0818 0.0632154 0)
(9.97988 0.0818356 0)
(9.91428 0.10592 0)
(9.90701 0.132544 0)
(9.94629 0.150348 0)
(10.0055 0.154114 0)
(10.0579 0.149591 0)
(10.0876 0.148353 0)
(10.0921 0.158759 0)
(10.0823 0.184115 0)
(10.0689 0.221222 0)
(10.0623 0.267112 0)
(10.0624 0.318376 0)
(10.1092 0.00842398 0)
(10.1014 0.0130109 0)
(10.0227 0.022568 0)
(9.95888 0.0509665 0)
(9.94078 0.0833569 0)
(9.94225 0.0980257 0)
(9.96434 0.0912442 0)
(10.0162 0.0779829 0)
(10.086 0.0718672 0)
(10.1456 0.080498 0)
(10.1678 0.106241 0)
(10.1376 0.143274 0)
(10.0651 0.180411 0)
(9.97562 0.206559 0)
(9.89974 0.218561 0)
(9.8577 0.224164 0)
(9.85417 0.230265 0)
(9.89049 0.254232 0)
(9.91552 -0.0331185 0)
(9.99474 0.00755922 0)
(9.96993 -0.0313905 0)
(9.90131 -0.0159262 0)
(9.92226 0.012114 0)
(10.0072 0.0231884 0)
(10.1038 0.0265695 0)
(10.1699 0.0389959 0)
(10.1861 0.0677004 0)
(10.1679 0.113241 0)
(10.1446 0.167121 0)
(10.1343 0.216734 0)
(10.1366 0.251042 0)
(10.1436 0.264903 0)
(10.1407 0.260794 0)
(10.1262 0.250214 0)
(10.0973 0.241465 0)
(10.0676 0.247258 0)
(9.97529 0.042039 0)
(10.0292 0.0197471 0)
(9.99484 0.0857727 0)
(9.95527 0.123398 0)
(9.97104 0.0803984 0)
(10.0138 0.0297381 0)
(10.0506 0.0204811 0)
(10.0696 0.0422012 0)
(10.0713 0.0714842 0)
(10.0652 0.0925686 0)
(10.0623 0.108318 0)
(10.0689 0.128714 0)
(10.0822 0.15804 0)
(10.0963 0.194248 0)
(10.1032 0.230302 0)
(10.1003 0.26271 0)
(10.0867 0.286985 0)
(10.067 0.303946 0)
(9.90561 -0.0257859 0)
(9.94795 -0.0303871 0)
(9.98061 -0.0485244 0)
(10.0316 -0.0602667 0)
(10.0824 -0.0640068 0)
(10.097 -0.0548478 0)
(10.0959 -0.0283428 0)
(10.1045 0.0157585 0)
(10.1076 0.0734176 0)
(10.0823 0.135008 0)
(10.0325 0.189425 0)
(9.97831 0.228146 0)
(9.93941 0.248855 0)
(9.92762 0.256417 0)
(9.94235 0.257445 0)
(9.97538 0.258946 0)
(10.0162 0.26387 0)
(10.0536 0.275046 0)
(10.1752 -0.115115 0)
(10.24 0.026386 0)
(10.1908 0.0734953 0)
(10.1161 0.0913424 0)
(10.0464 0.0850624 0)
(10.0003 0.0543799 0)
(9.97029 0.0322964 0)
(9.9474 0.0473952 0)
(9.93237 0.0947246 0)
(9.93174 0.150737 0)
(9.94813 0.189957 0)
(9.97886 0.201761 0)
(10.0153 0.191899 0)
(10.0482 0.175279 0)
(10.0703 0.165236 0)
(10.0807 0.169067 0)
(10.0809 0.186983 0)
(10.0761 0.215417 0)
(9.87295 0.0531077 0)
(9.96799 -0.0519628 0)
(10.0249 0.0021952 0)
(10.0813 0.0205699 0)
(10.1214 0.00509553 0)
(10.1263 -0.0104361 0)
(10.1102 0.00144694 0)
(10.0918 0.0391915 0)
(10.0752 0.0838222 0)
(10.0618 0.117888 0)
(10.0552 0.138408 0)
(10.0563 0.153042 0)
(10.0642 0.170623 0)
(10.0784 0.196696 0)
(10.0973 0.2291 0)
(10.118 0.262223 0)
(10.1381 0.288995 0)
(10.1549 0.304653 0)
(9.9884 -0.0848157 0)
(10.077 -0.109647 0)
(10.0716 -0.0429072 0)
(10.0511 0.0259148 0)
(10.0247 0.0838855 0)
(10.0068 0.10823 0)
(10.0076 0.109394 0)
(10.0185 0.120047 0)
(10.035 0.151669 0)
(10.0586 0.187937 0)
(10.086 0.204163 0)
(10.11 0.1885 0)
(10.1259 0.147604 0)
(10.1348 0.100689 0)
(10.1391 0.068078 0)
(10.1412 0.0607002 0)
(10.1414 0.0797683 0)
(10.1404 0.117828 0)
(9.99364 -0.0343071 0)
(10.0117 -0.0056164 0)
(9.95982 0.0717518 0)
(9.94158 0.0745343 0)
(9.98323 0.0167861 0)
(10.0102 -0.0349986 0)
(10.0078 -0.0536904 0)
(9.99759 -0.0448239 0)
(10.0003 -0.0245901 0)
(10.0315 -0.00196416 0)
(10.0922 0.0262622 0)
(10.1651 0.0681523 0)
(10.2282 0.125799 0)
(10.2693 0.193025 0)
(10.288 0.258421 0)
(10.29 0.311764 0)
(10.2836 0.348 0)
(10.2762 0.363979 0)
(9.84181 0.277742 0)
(9.83376 0.145872 0)
(9.84271 0.042621 0)
(9.91696 -0.0209672 0)
(9.98159 -0.0121959 0)
(9.97322 0.0647441 0)
(9.93161 0.135246 0)
(9.89746 0.142051 0)
(9.87579 0.086899 0)
(9.86805 0.00863753 0)
(9.87818 -0.0539169 0)
(9.90464 -0.0805898 0)
(9.94125 -0.0691291 0)
(9.98407 -0.029009 0)
(10.0322 0.0241417 0)
(10.0844 0.0759485 0)
(10.1365 0.115734 0)
(10.1855 0.14131 0)
(9.90466 0.238127 0)
(9.96347 0.0518596 0)
(10.0994 -0.0714026 0)
(10.2 -0.0791335 0)
(10.2453 -0.0412318 0)
(10.2614 0.019156 0)
(10.2808 0.0672543 0)
(10.2965 0.0708957 0)
(10.2899 0.0337574 0)
(10.2634 -0.0154707 0)
(10.2313 -0.0499266 0)
(10.2018 -0.0583564 0)
(10.1778 -0.0407821 0)
(10.162 -0.00476963 0)
(10.1545 0.0390254 0)
(10.1535 0.0817459 0)
(10.1561 0.118982 0)
(10.1588 0.149873 0)
(10.2032 0.187481 0)
(10.2684 -0.0102653 0)
(10.295 -0.165276 0)
(10.2456 -0.157776 0)
(10.1723 -0.0745026 0)
(10.0929 0.0260281 0)
(10.0204 0.107994 0)
(9.96905 0.142043 0)
(9.94639 0.125657 0)
(9.95232 0.0796608 0)
(9.97857 0.030584 0)
(10.0149 -0.00131573 0)
(10.0552 -0.00887847 0)
(10.094 0.00509477 0)
(10.1291 0.0322337 0)
(10.1601 0.0649875 0)
(10.1886 0.0965491 0)
(10.2146 0.123991 0)
(10.0776 -0.0629171 0)
(10.1998 -0.00658137 0)
(10.1884 -0.03758 0)
(10.0755 -0.00610075 0)
(9.97293 0.0808895 0)
(9.94742 0.160957 0)
(9.99398 0.185094 0)
(10.0758 0.140818 0)
(10.1527 0.051373 0)
(10.199 -0.0444183 0)
(10.2114 -0.115272 0)
(10.202 -0.144842 0)
(10.1882 -0.13443 0)
(10.1839 -0.0962499 0)
(10.1928 -0.0456522 0)
(10.2111 0.00450036 0)
(10.233 0.0468468 0)
(10.2545 0.0789974 0)
(9.96472 -0.0295428 0)
(10.1203 -0.0707352 0)
(10.1243 -0.0389494 0)
(10.064 0.00299712 0)
(10.0616 0.0308976 0)
(10.1355 0.0306626 0)
(10.2427 0.0180784 0)
(10.3477 0.00993299 0)
(10.4311 0.0104045 0)
(10.4835 0.0152622 0)
(10.5051 0.0158384 0)
(10.5043 0.00741056 0)
(10.4902 -0.0056893 0)
(10.4706 -0.0143284 0)
(10.4498 -0.0113039 0)
(10.4307 0.00379118 0)
(10.4152 0.0277327 0)
(10.4039 0.0521626 0)
(9.85906 -0.133032 0)
(9.95159 -0.104786 0)
(10.0082 0.000159435 0)
(10.0512 0.0386567 0)
(10.0852 0.041747 0)
(10.1072 0.0306681 0)
(10.1197 0.00874231 0)
(10.1286 -0.0248545 0)
(10.1447 -0.0657008 0)
(10.174 -0.102209 0)
(10.2113 -0.120476 0)
(10.2473 -0.114519 0)
(10.2766 -0.0871947 0)
(10.2982 -0.0461901 0)
(10.3163 3.73951e-05 0)
(10.3347 0.0434777 0)
(10.3577 0.0792685 0)
(10.388 0.102738 0)
(10.024 -0.0481503 0)
(9.98731 -0.119191 0)
(10.053 -0.100309 0)
(10.1398 -0.0451582 0)
(10.2122 -0.00753366 0)
(10.2673 0.00381702 0)
(10.3207 -0.000969897 0)
(10.3606 -0.0126372 0)
(10.3623 -0.0267619 0)
(10.3191 -0.0412512 0)
(10.2492 -0.052513 0)
(10.1803 -0.0581743 0)
(10.1353 -0.0576137 0)
(10.1249 -0.051818 0)
(10.1486 -0.0425439 0)
(10.1986 -0.0317708 0)
(10.2648 -0.0214695 0)
(10.3372 -0.01229 0)
(10.343 -0.0155387 0)
(10.3519 -0.0894497 0)
(10.2708 -0.0713645 0)
(10.1971 -0.0368919 0)
(10.17 -0.0154973 0)
(10.1404 -0.0217747 0)
(10.0993 -0.0400082 0)
(10.0678 -0.0461841 0)
(10.0638 -0.037454 0)
(10.0893 -0.0259553 0)
(10.1309 -0.0227645 0)
(10.1701 -0.0299684 0)
(10.194 -0.0428385 0)
(10.2001 -0.0545449 0)
(10.1926 -0.0595213 0)
(10.181 -0.0560182 0)
(10.1721 -0.0452596 0)
(10.1734 -0.0301671 0)
(10.2005 -0.0409911 0)
(10.1392 -0.0620492 0)
(10.1161 -0.0383301 0)
(10.0776 -0.0176018 0)
(10.0677 0.0104193 0)
(10.1107 0.0282102 0)
(10.1862 0.0216286 0)
(10.2518 -0.00541486 0)
(10.2839 -0.0417575 0)
(10.287 -0.0747832 0)
(10.2753 -0.0931016 0)
(10.2577 -0.0920597 0)
(10.2381 -0.0760752 0)
(10.2189 -0.054306 0)
(10.2023 -0.0359442 0)
(10.1919 -0.0253469 0)
(10.1907 -0.0232035 0)
(10.2019 -0.0274304 0)
(9.94762 -0.0640632 0)
(10.0767 -0.0336244 0)
(10.0991 -0.0285271 0)
(10.1199 -0.0102602 0)
(10.1851 -0.0218564 0)
(10.2462 -0.0618044 0)
(10.2723 -0.0866791 0)
(10.2732 -0.076734 0)
(10.2749 -0.048737 0)
(10.292 -0.0262029 0)
(10.3179 -0.0184217 0)
(10.3386 -0.0215934 0)
(10.346 -0.028514 0)
(10.3426 -0.0343645 0)
(10.3345 -0.0383542 0)
(10.3277 -0.0414224 0)
(10.3241 -0.0448474 0)
(10.3239 -0.0496177 0)
(9.98548 -0.137752 0)
(9.79454 -0.0685803 0)
(9.66967 -0.0503656 0)
(9.55308 -0.0518843 0)
(9.45991 -0.0379437 0)
(9.34807 -0.0157411 0)
(9.22128 -0.00682413 0)
(9.09365 -0.0225431 0)
(8.96065 -0.0559293 0)
(8.81309 -0.087357 0)
(8.6536 -0.100021 0)
(8.49936 -0.0904399 0)
(8.36778 -0.0676606 0)
(8.26664 -0.0442445 0)
(8.18884 -0.0287951 0)
(8.12306 -0.0232064 0)
(8.05708 -0.0250415 0)
(7.98615 -0.0304086 0)
(-0.0520697 0.135629 -3.65967e-20)
(-0.185785 0.171048 3.63222e-20)
(-0.295815 0.154999 0)
(-0.364186 0.0866383 0)
(-0.348523 -0.006679 0)
(-0.271156 -0.0902995 -3.53058e-20)
(-0.127052 -0.171227 0)
(0.0861047 -0.238543 0)
(0.356679 -0.288495 0)
(0.662424 -0.3177 0)
(0.981223 -0.325774 3.39958e-20)
(1.30042 -0.31532 0)
(1.60872 -0.29115 0)
(1.89275 -0.25782 0)
(2.1444 -0.220934 0)
(2.36039 -0.184599 3.29818e-20)
(2.54216 -0.149906 0)
(2.69532 -0.118321 0)
(2.82414 -0.0967155 0)
(2.92619 -0.0888568 0)
(2.99302 -0.0834173 0)
(3.02032 -0.0624523 0)
(3.00676 -0.0209167 0)
(2.95929 0.0252526 3.1446e-20)
(2.88657 0.0564852 -3.12196e-20)
(2.7986 0.0663129 3.09793e-20)
(2.70932 0.0563178 3.0722e-20)
(2.62847 0.0457404 0)
(2.5535 0.0385857 0)
(2.49196 0.0303005 -2.98342e-20)
(2.43029 0.0718845 -2.95049e-20)
(2.34658 0.117495 0)
(2.22226 0.184686 0)
(1.95931 0.334262 -2.84952e-20)
(1.66872 0.239287 0)
(1.3599 0.0744689 0)
(0.780691 0.327224 2.7655e-20)
(0.662092 0.21984 0)
(1.02796 -0.329476 2.71223e-20)
(1.30558 -1.07141 5.36526e-20)
(1.35539 -1.33419 0)
(1.27647 -0.463898 0)
(0.445038 0.649886 0)
(-0.680088 0.954559 0)
(-1.73209 0.930947 0)
(-2.65232 0.822001 5.16086e-20)
(-3.43817 0.687696 5.16623e-20)
(-4.06951 0.54222 5.18209e-20)
(-4.55785 0.405126 0)
(-4.90739 0.279466 -5.22741e-20)
(-5.13855 0.173056 0)
(-5.2723 0.0888262 5.27221e-20)
(-5.33363 0.0321849 5.28944e-20)
(-5.35028 0.00113132 0)
(-5.3602 -0.0115295 0)
(-5.38579 -0.00842824 0)
(-5.44522 0.00673822 5.27898e-20)
(-5.55459 0.0259539 0)
(-5.71491 0.0454922 0)
(-5.92522 0.0592553 0)
(-6.18248 0.0638902 0)
(-6.48915 0.0695899 0)
(-6.86255 0.105512 0)
(-7.33196 0.218637 0)
(-7.91951 0.434497 0)
(-8.60476 0.673379 -4.70508e-20)
(-9.27213 0.727282 0)
(-9.69507 0.445406 0)
(-9.67737 -0.0304094 4.45029e-20)
(-9.26689 -0.366147 4.36142e-20)
(-8.73957 -0.417313 0)
(-8.26028 -0.325456 -4.18994e-20)
(-7.84517 -0.245276 4.10802e-20)
(-7.46095 -0.217109 0)
(-7.08414 -0.216946 -3.94949e-20)
(-6.71082 -0.218438 0)
(-6.34569 -0.213346 0)
(-5.99242 -0.20526 3.72424e-20)
(-5.65022 -0.199287 0)
(-5.31628 -0.196909 -3.58217e-20)
(-4.9925 -0.194843 0)
(-4.68819 -0.187007 3.44655e-20)
(-4.41174 -0.170025 3.38099e-20)
(-4.16288 -0.147093 3.31654e-20)
(-3.93963 -0.124723 6.50599e-20)
(-3.74458 -0.106006 -6.38094e-20)
(-3.57502 -0.0899027 0)
(-3.42414 -0.0755835 0)
(-3.29052 -0.0655716 0)
(-3.1604 -0.0625939 -5.89985e-20)
(-3.01967 -0.0602517 -5.7852e-20)
(-2.87568 -0.0577815 5.67319e-20)
(-2.71023 -0.0644578 0)
(-2.52165 -0.0753857 -5.45743e-20)
(-2.30659 -0.0893699 -5.35426e-20)
(-2.065 -0.10249 -5.25456e-20)
(-1.81985 -0.101052 0)
(-1.6105 -0.073679 0)
(-1.45634 -0.0397121 0)
(-1.36259 -0.0387535 -4.89747e-20)
(-1.17453 -0.097115 0)
(-0.870956 -0.159215 0)
(-0.521155 -0.18197 4.64973e-20)
(0.0251125 -0.243485 0)
(0.686253 -0.281664 0)
(1.31096 -0.261819 4.4388e-20)
(1.69361 -0.117243 0)
(1.50695 0.224743 0)
(1.30847 0.265849 -4.29898e-20)
(1.42613 -0.199545 -4.23851e-20)
(1.8472 -0.568634 0)
(1.71241 0.00232953 4.13972e-20)
(-0.264311 0.860879 0)
(-2.26988 0.847703 -4.19131e-20)
(-3.74739 0.639425 0)
(-4.87928 0.473689 -4.4368e-20)
(-5.74147 0.347576 -4.56272e-20)
(-6.38983 0.254718 0)
(-6.87767 0.183835 0)
(-7.22395 0.125946 0)
(-7.44928 0.0760464 0)
(-7.56194 0.0332349 0)
(-7.57382 -0.0063388 0)
(-7.49478 -0.0418369 0)
(-7.32837 -0.0732346 -4.72352e-20)
(-7.08033 -0.101991 4.61624e-20)
(-6.75393 -0.128336 0)
(-6.3558 -0.151589 0)
(-5.89246 -0.171753 0)
(-5.37248 -0.188243 0)
(-4.80467 -0.201047 7.70645e-20)
(-4.19676 -0.210549 0)
(-3.55784 -0.21645 -7.07432e-20)
(-2.89845 -0.21855 6.78635e-20)
(-2.23019 -0.216827 0)
(-1.5657 -0.2094 0)
(-0.915021 -0.195606 0)
(-0.292252 -0.177821 -5.88769e-20)
(0.282927 -0.159752 -5.71991e-20)
(0.800805 -0.136059 0)
(1.25611 -0.111816 -5.43286e-20)
(1.64142 -0.0892809 -5.31011e-20)
(1.95963 -0.0711451 5.19669e-20)
(2.22224 -0.0589863 0)
(2.44782 -0.0530107 0)
(2.65555 -0.0523904 4.89089e-20)
(2.86075 -0.0555446 0)
(3.0747 -0.0610743 0)
(3.30568 -0.0682219 0)
(3.56021 -0.0765277 0)
(3.84389 -0.0854687 -4.4508e-20)
(4.16095 -0.0948393 -4.37379e-20)
(4.51389 -0.103993 0)
(4.90164 -0.1104 -4.23735e-20)
(5.31575 -0.11435 0)
(5.7479 -0.116663 0)
(6.18704 -0.111093 -4.09338e-20)
(6.60658 -0.103105 0)
(7.00244 -0.0941849 -4.0358e-20)
(7.35625 -0.0697874 0)
(7.63158 -0.0539751 0)
(7.86203 -0.0409617 -3.95154e-20)
(7.98508 0.00140967 0)
(7.99356 0.0576496 -3.8442e-20)
(7.81273 0.0883733 0)
(7.4981 0.127358 0)
(7.07446 0.498854 0)
(5.06976 0.87109 3.42171e-20)
(2.22774 0.479988 0)
(0.551343 -0.0689295 -3.57524e-20)
(-0.246418 -0.160403 0)
(-0.490065 -0.0994472 0)
(-0.440096 -0.0744584 0)
(-0.177476 -0.0910414 0)
(0.205395 -0.101265 0)
(0.572378 -0.0954134 0)
(0.847454 -0.0657019 0)
(0.951832 -0.0304861 5.30705e-20)
(1.05429 0.0166809 0)
(0.940057 0.026884 0)
(0.0242293 0.340072 1.09783e-19)
(0.00223197 0.321574 -1.09015e-19)
(0.0255789 0.193695 0)
(0.0690805 0.016982 7.16563e-20)
(0.166176 -0.175341 0)
(0.32859 -0.379374 3.52816e-20)
(0.565551 -0.584322 -7.00092e-20)
(0.849843 -0.755945 -6.94485e-20)
(1.16567 -0.877528 0)
(1.4891 -0.942556 -6.83863e-20)
(1.805 -0.953047 -3.3881e-20)
(2.10191 -0.916494 0)
(2.37283 -0.846726 0)
(2.61303 -0.755961 0)
(2.82106 -0.652742 0)
(2.99643 -0.550751 -3.29086e-20)
(3.13742 -0.46865 0)
(3.24474 -0.406358 6.52832e-20)
(3.3247 -0.334276 0)
(3.38348 -0.225552 0)
(3.42174 -0.0906739 -6.4193e-20)
(3.43839 0.0342358 0)
(3.44902 0.123732 6.34075e-20)
(3.46989 0.183906 -3.14032e-20)
(3.49387 0.227866 3.11688e-20)
(3.4908 0.250564 -3.09214e-20)
(3.44062 0.251237 -3.06606e-20)
(3.33944 0.237816 0)
(3.20081 0.214201 0)
(3.02061 0.196342 2.9787e-20)
(2.82158 0.188201 -2.95995e-20)
(2.62798 0.228946 0)
(2.41585 0.408306 0)
(2.1749 0.558844 2.84625e-20)
(1.87328 0.681128 0)
(1.46327 1.13275 0)
(1.47142 0.916762 -2.76066e-20)
(1.61315 -0.592022 0)
(1.25831 -0.876869 2.70139e-20)
(0.142195 0.615237 -5.37222e-20)
(-1.44448 1.50901 0)
(-2.50524 1.90478 0)
(-3.40362 2.17277 -1.04862e-19)
(-4.13762 2.10714 -1.04111e-19)
(-4.78234 1.91719 -1.0369e-19)
(-5.31014 1.64256 5.23395e-20)
(-5.77214 1.35311 -5.13391e-20)
(-6.14404 1.06317 -1.5552e-19)
(-6.45603 0.794163 1.04362e-19)
(-6.70142 0.553244 5.2049e-20)
(-6.90064 0.34957 0)
(-7.05725 0.192032 -5.25167e-20)
(-7.18926 0.0902016 5.32179e-20)
(-7.30894 0.0485721 0)
(-7.43228 0.0635013 0)
(-7.5786 0.126935 0)
(-7.76459 0.224274 -5.25372e-20)
(-8.00176 0.337134 0)
(-8.30086 0.451932 1.04005e-19)
(-8.66264 0.564755 0)
(-9.08466 0.683766 1.01676e-19)
(-9.54931 0.822632 0)
(-10.0161 0.978769 -9.88792e-20)
(-10.4085 1.10724 0)
(-10.6183 1.12024 9.58447e-20)
(-10.5614 0.930522 -4.74062e-20)
(-10.2482 0.517647 0)
(-9.78182 -0.0254919 -9.11056e-20)
(-9.29985 -0.509229 -4.4498e-20)
(-8.90683 -0.770649 -4.36085e-20)
(-8.55388 -0.814 0)
(-8.1831 -0.764394 -4.20871e-20)
(-7.7955 -0.713911 -4.10572e-20)
(-7.42116 -0.682695 0)
(-7.0769 -0.659928 3.94723e-20)
(-6.75814 -0.63646 -7.75268e-20)
(-6.45086 -0.61148 0)
(-6.14338 -0.586882 -3.72139e-20)
(-5.83209 -0.562221 0)
(-5.52186 -0.534016 1.07449e-19)
(-5.22428 -0.498176 0)
(-4.9529 -0.453221 -1.03358e-19)
(-4.71202 -0.404025 -3.37811e-20)
(-4.49173 -0.359472 3.31631e-20)
(-4.2812 -0.320647 6.50386e-20)
(-4.08106 -0.280091 -6.37748e-20)
(-3.89038 -0.239076 0)
(-3.70079 -0.210285 0)
(-3.5129 -0.199855 0)
(-3.32271 -0.206268 1.7691e-19)
(-3.12125 -0.222929 5.78302e-20)
(-2.91536 -0.245231 -5.67152e-20)
(-2.69241 -0.279337 0)
(-2.45963 -0.314391 -5.45697e-20)
(-2.21628 -0.345001 5.35335e-20)
(-1.95759 -0.358371 5.25374e-20)
(-1.69607 -0.335875 0)
(-1.45438 -0.270788 0)
(-1.24449 -0.202461 0)
(-1.11603 -0.21278 4.89843e-20)
(-0.930686 -0.348647 0)
(-0.750995 -0.449031 -9.47884e-20)
(-0.418681 -0.611598 -1.39636e-19)
(0.260107 -0.892512 9.13977e-20)
(0.923247 -0.902195 0)
(1.31335 -0.610601 4.44541e-20)
(1.42023 -0.0949903 0)
(1.57245 0.148641 8.68399e-20)
(2.28235 -0.127972 -4.30119e-20)
(2.70624 -0.35094 -4.24949e-20)
(1.42823 0.453804 0)
(-0.689245 1.829 -1.24644e-19)
(-2.70294 2.27681 8.34565e-20)
(-3.85957 1.86439 4.17534e-20)
(-4.74861 1.43221 0)
(-5.39425 1.08742 4.42924e-20)
(-5.94689 0.824409 1.37539e-19)
(-6.37848 0.621043 0)
(-6.7283 0.454071 9.5926e-20)
(-6.98258 0.309978 9.72514e-20)
(-7.15039 0.180598 9.80229e-20)
(-7.23461 0.0623419 0)
(-7.23293 -0.0464805 0)
(-7.1439 -0.147957 0)
(-6.97115 -0.241786 -4.77086e-20)
(-6.71773 -0.329185 -4.61685e-20)
(-6.38844 -0.40974 0)
(-5.98857 -0.482344 -8.71512e-20)
(-5.52495 -0.545884 -8.3936e-20)
(-5.00708 -0.598673 0)
(-4.444 -0.640581 -7.70485e-20)
(-3.84394 -0.672233 -1.47952e-19)
(-3.21636 -0.693269 7.0723e-20)
(-2.57209 -0.703053 6.80866e-20)
(-1.92204 -0.700758 0)
(-1.27707 -0.683232 0)
(-0.642679 -0.653207 0)
(-0.0337645 -0.610081 5.88423e-20)
(0.539639 -0.559581 -5.7287e-20)
(1.07302 -0.494208 -1.11387e-19)
(1.55795 -0.422143 5.42892e-20)
(1.98582 -0.350352 -5.3126e-20)
(2.35263 -0.287843 -5.1932e-20)
(2.66158 -0.241313 0)
(2.9248 -0.21278 0)
(3.1594 -0.200376 4.88936e-20)
(3.3817 -0.20032 0)
(3.60503 -0.209017 0)
(3.84018 -0.224172 -9.22972e-20)
(4.09622 -0.24458 0)
(4.38122 -0.269315 -4.45042e-20)
(4.70249 -0.296795 4.37033e-20)
(5.06382 -0.324536 0)
(5.46375 -0.348768 -4.23895e-20)
(5.89858 -0.364939 0)
(6.35475 -0.371338 0)
(6.81391 -0.364858 4.08956e-20)
(7.26656 -0.342971 -8.12577e-20)
(7.69004 -0.31125 4.0321e-20)
(8.06971 -0.267318 0)
(8.39331 -0.211005 0)
(8.64661 -0.142614 -3.96485e-20)
(8.79383 -0.0663549 0)
(8.86635 0.033023 -3.8674e-20)
(8.88494 0.170974 0)
(8.64574 0.284614 0)
(8.56681 0.628657 0)
(8.29297 1.30957 -3.40813e-20)
(7.37648 1.63631 0)
(6.09334 1.26898 3.55511e-20)
(4.44512 0.652287 0)
(3.10251 0.175329 0)
(2.43468 -0.0976152 -6.7715e-20)
(2.28873 -0.244147 6.44845e-20)
(2.40331 -0.27118 0)
(2.57235 -0.209032 0)
(2.67481 -0.106647 0)
(2.62835 -0.0479984 -1.58945e-19)
(2.58146 -0.017869 0)
(2.3776 -0.0209184 9.87384e-20)
(0.0740511 0.114549 -4.83437e-23)
(0.189013 0.199673 1.45189e-19)
(0.298234 0.0480937 0)
(0.441485 -0.183824 -1.43005e-19)
(0.682064 -0.494976 0)
(0.998134 -0.842108 0)
(1.3441 -1.15757 -4.21041e-23)
(1.68696 -1.3944 6.92046e-20)
(2.00567 -1.53571 6.88203e-20)
(2.29147 -1.58552 6.81645e-20)
(2.54278 -1.55548 0)
(2.7601 -1.46178 0)
(2.9456 -1.32318 -6.71931e-20)
(3.10125 -1.16122 -1.33682e-19)
(3.22858 -0.993498 1.32991e-19)
(3.33246 -0.819364 0)
(3.41738 -0.639041 1.316e-19)
(3.48125 -0.479306 -6.52278e-20)
(3.5242 -0.365268 0)
(3.55444 -0.279609 1.29467e-19)
(3.58617 -0.192392 6.41575e-20)
(3.63075 -0.117538 -1.28006e-19)
(3.68366 -0.085617 -6.33692e-20)
(3.72267 -0.067672 0)
(3.72893 0.00686383 1.25576e-19)
(3.69883 0.150932 1.24656e-19)
(3.64576 0.313036 0)
(3.57135 0.464051 1.22555e-19)
(3.43109 0.604333 0)
(3.19821 0.706472 1.20028e-19)
(2.9063 0.774577 5.90218e-20)
(2.55068 0.85486 0)
(2.09515 1.00012 0)
(1.67473 1.31557 0)
(1.36075 1.46641 0)
(1.16987 0.760158 0)
(1.19588 0.0341495 0)
(-0.0241239 0.979531 1.09007e-19)
(-1.69373 2.09772 -1.62018e-19)
(-2.8959 2.68495 0)
(-3.94953 2.94169 0)
(-4.69809 3.08099 0)
(-5.32407 3.07076 -1.01836e-21)
(-5.79484 2.88491 1.03618e-19)
(-6.23095 2.60242 2.08034e-19)
(-6.61694 2.2601 -2.07915e-19)
(-7.00812 1.90684 -1.04823e-19)
(-7.37629 1.55963 1.03626e-19)
(-7.73818 1.23477 1.27511e-21)
(-8.07179 0.942329 1.05596e-19)
(-8.38121 0.693725 0)
(-8.65681 0.501826 1.06203e-19)
(-8.90493 0.377785 9.27653e-22)
(-9.12954 0.329607 0)
(-9.34028 0.356987 0)
(-9.54165 0.448043 -1.06268e-19)
(-9.73694 0.585307 0)
(-9.92712 0.749187 0)
(-10.1087 0.91876 1.04921e-19)
(-10.276 1.07171 2.06371e-19)
(-10.4179 1.18109 -1.01362e-19)
(-10.5097 1.21886 0)
(-10.5129 1.16279 9.87459e-20)
(-10.3876 1.0007 0)
(-10.1141 0.724054 9.68718e-20)
(-9.70467 0.327035 9.44596e-20)
(-9.21606 -0.162866 -1.86666e-19)
(-8.74326 -0.659037 -9.19747e-20)
(-8.35354 -1.03387 0)
(-8.03035 -1.22207 1.75823e-19)
(-7.72155 -1.26235 0)
(-7.40517 -1.22148 2.52644e-19)
(-7.09197 -1.14736 1.65183e-19)
(-6.79769 -1.06663 1.61849e-19)
(-6.52707 -0.995283 -1.58602e-19)
(-6.27471 -0.944151 2.32988e-19)
(-6.03043 -0.91716 0)
(-5.78421 -0.907596 0)
(-5.52924 -0.898661 -1.46388e-19)
(-5.26296 -0.871545 -2.15181e-19)
(-4.98802 -0.816756 0)
(-4.71318 -0.740202 6.89189e-20)
(-4.44895 -0.659446 0)
(-4.19668 -0.591979 -1.99027e-19)
(-3.95267 -0.542771 8.34284e-23)
(-3.72393 -0.504407 -5.93685e-23)
(-3.51249 -0.473444 1.25143e-19)
(-3.29979 -0.456457 0)
(-3.08407 -0.452278 -1.20325e-19)
(-2.87232 -0.457113 8.33341e-24)
(-2.65278 -0.473247 0)
(-2.43829 -0.490145 0)
(-2.20987 -0.520908 0)
(-1.98385 -0.553666 1.09172e-19)
(-1.75852 -0.584057 0)
(-1.53216 -0.604167 0)
(-1.28424 -0.593513 0)
(-1.01267 -0.514463 0)
(-0.735892 -0.38996 0)
(-0.532706 -0.322676 9.80232e-20)
(-0.370925 -0.424146 0)
(-0.357147 -0.634969 9.4819e-20)
(-0.0957356 -1.11826 9.31149e-20)
(0.407319 -1.52125 -9.13012e-20)
(0.929804 -1.22194 0)
(1.16074 -0.620607 -8.87983e-20)
(1.46366 -0.363449 0)
(2.08647 -0.581222 -8.67558e-20)
(2.53224 -0.56875 8.5945e-20)
(1.71334 0.521451 2.55188e-19)
(-0.371419 2.2307 0)
(-2.28461 3.33339 2.51182e-19)
(-3.28697 3.157 8.64996e-20)
(-3.76072 2.49192 0)
(-4.33194 1.95166 1.76903e-19)
(-4.86654 1.53907 1.81338e-19)
(-5.41728 1.22501 -2.77815e-19)
(-5.90037 0.960969 0)
(-6.29666 0.726024 -9.59368e-20)
(-6.59489 0.5078 -9.72695e-20)
(-6.78744 0.305422 -2.95929e-19)
(-6.88372 0.115966 0)
(-6.88297 -0.0578004 0)
(-6.79361 -0.221397 0)
(-6.61742 -0.375229 -9.64913e-20)
(-6.35906 -0.519056 0)
(-6.02248 -0.651534 0)
(-5.61327 -0.770534 8.71436e-20)
(-5.14013 -0.873828 8.3924e-20)
(-4.61413 -0.959013 0)
(-4.04741 -1.02546 0)
(-3.45026 -1.07439 1.47914e-19)
(-2.83399 -1.10575 0)
(-2.20893 -1.11971 -1.35886e-19)
(-1.58612 -1.11481 -1.30915e-19)
(-0.974342 -1.08886 0)
(-0.382476 -1.04389 0)
(0.176591 -0.983421 1.18015e-19)
(0.698932 -0.908541 -2.0865e-22)
(1.18742 -0.816751 -1.75704e-22)
(1.6394 -0.712736 0)
(2.05246 -0.604622 2.12388e-19)
(2.42394 -0.503962 0)
(2.75303 -0.421701 0)
(3.04372 -0.364839 0)
(3.30444 -0.334551 -9.77318e-20)
(3.54623 -0.327254 0)
(3.78164 -0.337716 1.88095e-19)
(4.02409 -0.361761 9.22575e-20)
(4.28756 -0.396961 0)
(4.5853 -0.44158 8.89335e-20)
(4.92722 -0.492643 0)
(5.31785 -0.544334 0)
(5.75375 -0.589272 2.54189e-19)
(6.22296 -0.620372 -1.67296e-19)
(6.71133 -0.631907 0)
(7.20086 -0.62001 -1.63929e-19)
(7.67354 -0.585769 8.11939e-20)
(8.11575 -0.532993 0)
(8.5117 -0.452082 0)
(8.84475 -0.356567 0)
(9.10211 -0.251903 2.37845e-19)
(9.28114 -0.110586 0)
(9.34544 0.0385057 7.70534e-20)
(9.33191 0.223133 0)
(9.17577 0.40821 0)
(8.89221 0.700258 0)
(8.84107 1.31099 0)
(8.94857 1.76346 0)
(8.76246 1.68527 0)
(8.0101 1.33098 1.41572e-19)
(6.90355 0.850184 0)
(5.83772 0.330366 6.74977e-20)
(5.04764 -0.0766894 -1.92488e-19)
(4.60006 -0.253142 0)
(4.39291 -0.237383 0)
(4.29534 -0.110418 1.09977e-19)
(4.15251 0.0135126 1.0581e-19)
(4.05564 0.107834 -1.02045e-19)
(3.76169 0.10217 -9.86227e-20)
(0.0115431 -0.234795 -2.19359e-19)
(0.0845699 -0.150478 -2.17724e-19)
(0.281397 -0.331568 -1.43903e-19)
(0.659761 -0.794938 -7.13191e-20)
(1.09617 -1.29668 0)
(1.52483 -1.70623 1.40455e-19)
(1.90199 -1.98238 -6.98751e-20)
(2.20849 -2.1228 0)
(2.44415 -2.14511 -6.86771e-20)
(2.61834 -2.07465 0)
(2.74347 -1.93244 1.36319e-19)
(2.82783 -1.74317 0)
(2.87988 -1.53116 6.71859e-20)
(2.91196 -1.30974 1.33733e-19)
(2.9293 -1.09697 -1.33086e-19)
(2.94076 -0.911414 0)
(2.96575 -0.753759 -1.31745e-19)
(3.00705 -0.614243 0)
(3.05392 -0.479116 0)
(3.11544 -0.351772 -1.29604e-19)
(3.19059 -0.24876 0)
(3.24881 -0.161681 -4.90994e-22)
(3.28291 -0.0529015 0)
(3.31086 0.100675 0)
(3.33315 0.270681 8.04391e-22)
(3.35278 0.400102 -1.24761e-19)
(3.36969 0.490485 -1.24749e-19)
(3.37159 0.620712 -1.22556e-19)
(3.31083 0.833829 0)
(3.11631 1.04888 -2.4103e-19)
(2.77237 1.25377 0)
(2.34026 1.56259 -1.17992e-19)
(1.84727 1.81222 0)
(1.4146 1.72436 0)
(1.05186 1.44841 1.13304e-19)
(0.170551 1.70947 0)
(-1.24881 2.63737 -1.10552e-19)
(-2.66099 3.42764 1.03819e-21)
(-3.73807 3.81438 2.15497e-19)
(-4.53016 3.97571 -2.15206e-19)
(-5.1808 3.99632 0)
(-5.68681 3.9228 0)
(-6.1193 3.74041 -1.08017e-19)
(-6.49678 3.4812 0)
(-6.86535 3.16644 -1.04552e-19)
(-7.22567 2.82094 1.04516e-19)
(-7.60073 2.4633 1.04606e-19)
(-7.97786 2.10439 0)
(-8.36206 1.75578 -1.05067e-19)
(-8.73823 1.43003 -1.05372e-19)
(-9.10225 1.14243 2.14324e-19)
(-9.44146 0.909627 -1.05965e-19)
(-9.74812 0.745091 -1.06181e-19)
(-10.0125 0.656436 0)
(-10.231 0.641855 0)
(-10.4012 0.68858 1.06046e-19)
(-10.5209 0.774221 0)
(-10.5874 0.873831 0)
(-10.5947 0.965891 -2.08286e-19)
(-10.5319 1.03369 -2.06257e-19)
(-10.39 1.05809 0)
(-10.1652 1.01229 0)
(-9.85825 0.866633 0)
(-9.47876 0.601322 0)
(-9.04953 0.223568 -1.93304e-19)
(-8.60031 -0.226266 1.91133e-19)
(-8.18084 -0.688333 1.8692e-19)
(-7.84055 -1.09094 3.6745e-19)
(-7.58648 -1.3764 0)
(-7.38972 -1.52321 6.42123e-22)
(-7.21205 -1.5527 0)
(-7.02854 -1.50779 -1.68657e-19)
(-6.82792 -1.42903 5.36367e-22)
(-6.60657 -1.34365 -1.61833e-19)
(-6.36544 -1.26674 1.58577e-19)
(-6.11011 -1.20648 3.55988e-22)
(-5.85008 -1.16771 0)
(-5.5965 -1.15037 1.49601e-19)
(-5.35726 -1.14522 1.46367e-19)
(-5.13002 -1.13486 2.87254e-19)
(-4.90017 -1.10397 0)
(-4.65046 -1.0508 -1.38196e-19)
(-4.37528 -0.984934 0)
(-4.08099 -0.914037 2.6556e-19)
(-3.77575 -0.839803 -1.30128e-19)
(-3.46953 -0.764081 1.27618e-19)
(-3.17554 -0.696646 -1.25157e-19)
(-2.89915 -0.657414 -2.45623e-19)
(-2.63953 -0.649849 1.20363e-19)
(-2.39451 -0.649367 -1.18036e-19)
(-2.15309 -0.665801 0)
(-1.92157 -0.691121 2.27066e-19)
(-1.69078 -0.724676 0)
(-1.46538 -0.757642 2.18462e-19)
(-1.24984 -0.785915 -2.14337e-19)
(-1.04682 -0.806766 -2.10338e-19)