/*--------------------------------*- C++ -*----------------------------------*\
  =========                 |
  \\      /  F ield         | OpenFOAM: The Open Source CFD Toolbox
   \\    /   O peration     | Website:  https://openfoam.org
    \\  /    A nd           | Version:  9
     \\/     M anipulation  |
\*---------------------------------------------------------------------------*/
FoamFile
{
    format      ascii;
    class       volVectorField;
    location    "0.094";
    object      UMean;
}
// * * * * * * * * * * * * * * * * * * * * * * * * * * * * * * * * * * * * * //

dimensions      [0 1 -1 0 0 0 0];

internalField   nonuniform List<vector> 
12225
(
(9.84299 0.0445039 0)
(9.54739 0.0599481 0)
(9.24717 0.0580013 0)
(8.94306 0.0566357 0)
(8.64359 0.0560321 0)
(8.35402 0.0553201 0)
(8.07442 0.0543574 0)
(7.80492 0.053572 0)
(7.54224 0.0526496 0)
(7.28869 0.0523374 0)
(7.03731 0.0516524 0)
(6.79628 0.0525138 0)
(6.54697 0.0523587 0)
(6.31382 0.0559481 0)
(6.04706 0.0571175 0)
(5.81502 0.0668475 0)
(5.49269 0.0720561 0)
(5.24935 0.0957995 0)
(10.0293 0.0533446 0)
(10.0886 0.0759379 0)
(10.1267 0.0751787 0)
(10.1398 0.0763695 0)
(10.1352 0.0796891 0)
(10.1199 0.0827917 0)
(10.0959 0.0853263 0)
(10.0651 0.0877201 0)
(10.0262 0.0902248 0)
(9.98163 0.0930422 0)
(9.9282 0.0963505 0)
(9.87058 0.100308 0)
(9.80148 0.10577 0)
(9.72984 0.112314 0)
(9.64044 0.123289 0)
(9.55008 0.135395 0)
(9.43136 0.159505 0)
(9.31182 0.183083 0)
(10.0032 0.0299662 0)
(10.0354 0.0525298 0)
(10.0642 0.0554062 0)
(10.0819 0.0578908 0)
(10.0923 0.0626838 0)
(10.1001 0.0676504 0)
(10.1069 0.0717984 0)
(10.1123 0.0758089 0)
(10.1157 0.0797259 0)
(10.1168 0.0844789 0)
(10.1154 0.0894165 0)
(10.1112 0.0960884 0)
(10.1046 0.103401 0)
(10.0943 0.114165 0)
(10.0823 0.12735 0)
(10.0661 0.146674 0)
(10.0521 0.172779 0)
(10.0363 0.204994 0)
(9.99856 0.0309328 0)
(10.0202 0.0588371 0)
(10.0426 0.0645794 0)
(10.0571 0.0665117 0)
(10.0646 0.0704769 0)
(10.0693 0.0752129 0)
(10.0731 0.0794907 0)
(10.0762 0.0833911 0)
(10.0781 0.0874006 0)
(10.0785 0.091905 0)
(10.0776 0.0972778 0)
(10.0754 0.103804 0)
(10.072 0.112197 0)
(10.0675 0.122959 0)
(10.0626 0.137446 0)
(10.0587 0.15638 0)
(10.0576 0.180558 0)
(10.0633 0.207949 0)
(10.0085 0.0208169 0)
(10.0264 0.0458044 0)
(10.0458 0.0537865 0)
(10.0591 0.0566421 0)
(10.0659 0.0607982 0)
(10.0694 0.0661631 0)
(10.0721 0.0713355 0)
(10.0742 0.0761619 0)
(10.0753 0.0809525 0)
(10.0751 0.0862861 0)
(10.0734 0.0923972 0)
(10.0705 0.0997916 0)
(10.0665 0.108882 0)
(10.0619 0.120332 0)
(10.057 0.13489 0)
(10.0539 0.153002 0)
(10.0528 0.174293 0)
(10.0571 0.196864 0)
(9.98428 0.020107 0)
(9.99835 0.0453512 0)
(10.0155 0.0560098 0)
(10.0291 0.0602614 0)
(10.0373 0.0645035 0)
(10.0421 0.0698447 0)
(10.0458 0.0752914 0)
(10.0489 0.0804421 0)
(10.0511 0.0855918 0)
(10.0521 0.0912339 0)
(10.0518 0.0977244 0)
(10.0505 0.105486 0)
(10.0484 0.114891 0)
(10.046 0.126509 0)
(10.0436 0.140668 0)
(10.0426 0.157588 0)
(10.0436 0.176387 0)
(10.0479 0.196005 0)
(10.0104 0.0138877 0)
(10.0196 0.0366394 0)
(10.0317 0.0485864 0)
(10.0425 0.0541117 0)
(10.0495 0.0585925 0)
(10.0536 0.0639738 0)
(10.0564 0.0697811 0)
(10.0589 0.075469 0)
(10.061 0.0811454 0)
(10.0623 0.0872789 0)
(10.0626 0.0942761 0)
(10.0619 0.102534 0)
(10.0605 0.112345 0)
(10.0589 0.124118 0)
(10.0576 0.13792 0)
(10.0575 0.153861 0)
(10.0592 0.171036 0)
(10.0636 0.188991 0)
(10.0068 0.0148709 0)
(10.014 0.0362084 0)
(10.0246 0.0485186 0)
(10.0352 0.055118 0)
(10.043 0.060126 0)
(10.0477 0.0656081 0)
(10.0506 0.071547 0)
(10.0527 0.0775255 0)
(10.0545 0.0835491 0)
(10.0557 0.0900412 0)
(10.0563 0.0974098 0)
(10.0563 0.106021 0)
(10.0558 0.116061 0)
(10.0555 0.127767 0)
(10.0554 0.141055 0)
(10.0564 0.155936 0)
(10.0585 0.171683 0)
(10.063 0.18802 0)
(10.008 0.00950872 0)
(10.013 0.0293397 0)
(10.022 0.0422472 0)
(10.032 0.0498496 0)
(10.04 0.0554183 0)
(10.0455 0.0612001 0)
(10.0492 0.0674927 0)
(10.0518 0.0739075 0)
(10.0537 0.0803466 0)
(10.055 0.0871347 0)
(10.0558 0.0946777 0)
(10.0562 0.103364 0)
(10.0564 0.113368 0)
(10.057 0.124878 0)
(10.0581 0.137736 0)
(10.0603 0.151917 0)
(10.0635 0.166733 0)
(10.0684 0.182024 0)
(9.99492 0.0127011 0)
(9.99881 0.0279829 0)
(10.0057 0.0407014 0)
(10.0134 0.0491908 0)
(10.0201 0.0554773 0)
(10.0252 0.0615196 0)
(10.0291 0.0679549 0)
(10.0323 0.0746651 0)
(10.0352 0.0815345 0)
(10.0376 0.0887514 0)
(10.0394 0.0965939 0)
(10.0409 0.105381 0)
(10.0421 0.115239 0)
(10.0436 0.126331 0)
(10.0456 0.138485 0)
(10.0487 0.151714 0)
(10.0526 0.16541 0)
(10.0584 0.179595 0)
(9.99519 0.00858137 0)
(10.0009 0.024542 0)
(10.0071 0.036449 0)
(10.0137 0.0450641 0)
(10.0197 0.0518516 0)
(10.0245 0.0580368 0)
(10.0283 0.0643474 0)
(10.0317 0.0710183 0)
(10.0347 0.0780175 0)
(10.0374 0.0854541 0)
(10.0397 0.0935108 0)
(10.0416 0.102456 0)
(10.0433 0.11233 0)
(10.0453 0.123244 0)
(10.0477 0.134942 0)
(10.0509 0.14746 0)
(10.0549 0.160234 0)
(10.06 0.173416 0)
(10.003 0.00651674 0)
(10.0044 0.0233055 0)
(10.0087 0.0346598 0)
(10.0152 0.0434717 0)
(10.0219 0.0507182 0)
(10.0276 0.0571936 0)
(10.0322 0.0636621 0)
(10.036 0.0705011 0)
(10.0393 0.0777688 0)
(10.0423 0.0855056 0)
(10.045 0.0937762 0)
(10.0477 0.102735 0)
(10.0505 0.112401 0)
(10.0537 0.122879 0)
(10.0575 0.133995 0)
(10.062 0.145819 0)
(10.0672 0.157868 0)
(10.0731 0.170353 0)
(9.99863 0.008591 0)
(9.99877 0.0196231 0)
(10.0022 0.0305579 0)
(10.0083 0.0397982 0)
(10.0148 0.0472215 0)
(10.0205 0.053822 0)
(10.0252 0.0604675 0)
(10.0292 0.0674831 0)
(10.0328 0.0748665 0)
(10.0364 0.0826283 0)
(10.04 0.090794 0)
(10.0436 0.0995124 0)
(10.0474 0.108816 0)
(10.0515 0.118831 0)
(10.056 0.129385 0)
(10.0611 0.140576 0)
(10.0667 0.151926 0)
(10.0734 0.163739 0)
(9.99858 0.00985874 0)
(10.0014 0.0194457 0)
(10.0053 0.0299176 0)
(10.0103 0.0385326 0)
(10.0158 0.045563 0)
(10.0212 0.0520969 0)
(10.026 0.0587537 0)
(10.0303 0.0657393 0)
(10.0344 0.0730532 0)
(10.0385 0.0807528 0)
(10.0426 0.0888798 0)
(10.0468 0.0975496 0)
(10.0512 0.106698 0)
(10.0559 0.116407 0)
(10.0609 0.126427 0)
(10.0665 0.136924 0)
(10.0725 0.147405 0)
(10.0793 0.158319 0)
(9.9968 0.00284245 0)
(10.0001 0.0149503 0)
(10.0035 0.0247229 0)
(10.0076 0.0329675 0)
(10.0123 0.0403847 0)
(10.0172 0.0474555 0)
(10.0221 0.0544447 0)
(10.0269 0.061532 0)
(10.0315 0.0687913 0)
(10.0361 0.0762921 0)
(10.041 0.0840574 0)
(10.0462 0.0922076 0)
(10.0518 0.100724 0)
(10.0577 0.109724 0)
(10.064 0.119003 0)
(10.0707 0.128719 0)
(10.0777 0.138404 0)
(10.0851 0.148486 0)
(10.0143 0.00565389 0)
(10.0138 0.0163536 0)
(10.0148 0.0241264 0)
(10.0182 0.0308444 0)
(10.0231 0.0372943 0)
(10.0287 0.0437581 0)
(10.0343 0.0503354 0)
(10.0399 0.0570612 0)
(10.0455 0.0639369 0)
(10.0512 0.0710208 0)
(10.0571 0.0783364 0)
(10.0632 0.0860006 0)
(10.0695 0.0939767 0)
(10.076 0.102377 0)
(10.0827 0.110972 0)
(10.0899 0.119933 0)
(10.0973 0.128773 0)
(10.1052 0.137973 0)
(9.99378 0.00451011 0)
(9.9927 0.0121791 0)
(9.99355 0.0191648 0)
(9.99686 0.0255984 0)
(10.0016 0.0317529 0)
(10.0069 0.0378374 0)
(10.0124 0.0439608 0)
(10.0181 0.0501829 0)
(10.024 0.056533 0)
(10.0303 0.0630973 0)
(10.0368 0.069885 0)
(10.0436 0.076959 0)
(10.0507 0.0842188 0)
(10.0582 0.0917347 0)
(10.0657 0.0992754 0)
(10.0738 0.107042 0)
(10.0819 0.114608 0)
(10.0907 0.122496 0)
(9.98533 0.0102226 0)
(9.98519 0.0124542 0)
(9.98649 0.0166399 0)
(9.98994 0.0215048 0)
(9.995 0.0263518 0)
(10.001 0.0311387 0)
(10.0074 0.0360634 0)
(10.0139 0.0412449 0)
(10.0206 0.0466381 0)
(10.0274 0.0522201 0)
(10.0346 0.0579542 0)
(10.0419 0.063944 0)
(10.0495 0.0701475 0)
(10.0573 0.0766821 0)
(10.0654 0.083317 0)
(10.0738 0.0902171 0)
(10.0824 0.0969175 0)
(10.0913 0.103869 0)
(9.98897 0.00403604 0)
(9.99386 0.00665697 0)
(9.99927 0.00953375 0)
(10.005 0.0127123 0)
(10.011 0.0163151 0)
(10.0175 0.0203223 0)
(10.0243 0.0246557 0)
(10.0316 0.0292336 0)
(10.0392 0.0339652 0)
(10.0471 0.0388398 0)
(10.0551 0.0438137 0)
(10.0632 0.048897 0)
(10.0714 0.0539691 0)
(10.0798 0.0590722 0)
(10.0884 0.0640312 0)
(10.0971 0.0690434 0)
(10.106 0.0738072 0)
(10.1151 0.0787712 0)
(10 -0.00195443 0)
(10.0025 0.00127788 0)
(10.0064 0.00304039 0)
(10.0119 0.00480258 0)
(10.0183 0.00721955 0)
(10.0255 0.0100648 0)
(10.0333 0.013025 0)
(10.0415 0.016085 0)
(10.0499 0.0193866 0)
(10.0586 0.0230577 0)
(10.0676 0.0270657 0)
(10.0768 0.0313407 0)
(10.0862 0.0356974 0)
(10.0957 0.0400958 0)
(10.1052 0.0443512 0)
(10.1148 0.0485938 0)
(10.1244 0.0525735 0)
(10.1341 0.0566592 0)
(10.0032 -0.00061139 0)
(10.0036 -0.00209244 0)
(10.0064 -0.0027531 0)
(10.0119 -0.00253246 0)
(10.0187 -0.0014134 0)
(10.026 0.000330948 0)
(10.0334 0.00233442 0)
(10.0409 0.00450131 0)
(10.0487 0.00691615 0)
(10.0569 0.0096698 0)
(10.0655 0.0127078 0)
(10.0744 0.0159578 0)
(10.0835 0.0192673 0)
(10.0929 0.0226065 0)
(10.1024 0.0258316 0)
(10.112 0.0290468 0)
(10.1217 0.0320556 0)
(10.1316 0.0351317 0)
(9.99727 -0.000197802 0)
(9.99763 -0.00635402 0)
(10.0007 -0.00795065 0)
(10.0066 -0.00749675 0)
(10.0144 -0.00646519 0)
(10.0227 -0.00529635 0)
(10.0312 -0.00407071 0)
(10.0399 -0.00270814 0)
(10.0489 -0.00109444 0)
(10.0582 0.000840383 0)
(10.0678 0.00305553 0)
(10.0774 0.00550172 0)
(10.0872 0.00804719 0)
(10.0969 0.0106577 0)
(10.1067 0.0131924 0)
(10.1165 0.0157273 0)
(10.1263 0.0180792 0)
(10.1361 0.0204799 0)
(9.98484 0.00174299 0)
(9.99071 -0.00826625 0)
(9.99766 -0.0132326 0)
(10.0056 -0.0148974 0)
(10.0145 -0.0152474 0)
(10.0237 -0.0153435 0)
(10.0329 -0.0153483 0)
(10.0419 -0.0150251 0)
(10.051 -0.0141742 0)
(10.0602 -0.0127727 0)
(10.0696 -0.0109669 0)
(10.0791 -0.00891895 0)
(10.0887 -0.00680557 0)
(10.0984 -0.0046896 0)
(10.1083 -0.00268068 0)
(10.1181 -0.000721954 0)
(10.128 0.0010659 0)
(10.1378 0.00285791 0)
(10.0171 -0.00778552 0)
(10.0243 -0.012668 0)
(10.0335 -0.0176629 0)
(10.0433 -0.0200736 0)
(10.0529 -0.0204581 0)
(10.0618 -0.020151 0)
(10.0703 -0.0197511 0)
(10.0787 -0.019218 0)
(10.0871 -0.0184289 0)
(10.0957 -0.0173793 0)
(10.1045 -0.0161632 0)
(10.1133 -0.0148338 0)
(10.1223 -0.0134409 0)
(10.1314 -0.0119778 0)
(10.1406 -0.0105257 0)
(10.15 -0.00905763 0)
(10.1594 -0.00770974 0)
(10.1689 -0.00636109 0)
(9.98715 -0.00881344 0)
(9.99178 -0.0200105 0)
(10.0013 -0.0260469 0)
(10.0128 -0.0284776 0)
(10.0236 -0.0293091 0)
(10.033 -0.029809 0)
(10.0421 -0.0302091 0)
(10.0514 -0.0302911 0)
(10.061 -0.0299249 0)
(10.0709 -0.0291703 0)
(10.0807 -0.0281823 0)
(10.0905 -0.0270866 0)
(10.1003 -0.0259925 0)
(10.1101 -0.0249266 0)
(10.12 -0.0239483 0)
(10.1299 -0.0230223 0)
(10.1398 -0.0222157 0)
(10.1495 -0.0214222 0)
(10.0182 -0.00718816 0)
(10.0303 -0.0240419 0)
(10.0448 -0.0286551 0)
(10.0578 -0.0291083 0)
(10.0682 -0.0294673 0)
(10.0771 -0.0303434 0)
(10.0857 -0.0311468 0)
(10.0946 -0.0314971 0)
(10.1038 -0.0314117 0)
(10.1132 -0.0310558 0)
(10.1228 -0.0305609 0)
(10.1326 -0.0299854 0)
(10.1426 -0.0293691 0)
(10.1527 -0.0287144 0)
(10.1628 -0.0280677 0)
(10.1728 -0.0274164 0)
(10.1828 -0.0268279 0)
(10.1926 -0.0262365 0)
(9.99727 -0.0204665 0)
(10.0128 -0.0347964 0)
(10.0291 -0.0400774 0)
(10.0424 -0.0406624 0)
(10.0527 -0.0410898 0)
(10.0618 -0.04211 0)
(10.071 -0.0429326 0)
(10.081 -0.0432157 0)
(10.0913 -0.043146 0)
(10.1016 -0.0429527 0)
(10.1118 -0.0427202 0)
(10.1219 -0.04244 0)
(10.132 -0.042099 0)
(10.1422 -0.0416989 0)
(10.1523 -0.041282 0)
(10.1625 -0.0408628 0)
(10.1727 -0.0405 0)
(10.1829 -0.0401582 0)
(10.0064 -0.020287 0)
(10.0238 -0.0313859 0)
(10.0442 -0.0350011 0)
(10.0602 -0.0358925 0)
(10.072 -0.0372703 0)
(10.0824 -0.0389856 0)
(10.093 -0.0403175 0)
(10.1039 -0.0411332 0)
(10.1149 -0.041598 0)
(10.1259 -0.0418602 0)
(10.1368 -0.041975 0)
(10.1477 -0.042014 0)
(10.1586 -0.0420065 0)
(10.1694 -0.0420203 0)
(10.1803 -0.0420339 0)
(10.191 -0.0420899 0)
(10.2017 -0.0421475 0)
(10.2121 -0.0422485 0)
(10.0138 -0.0347641 0)
(10.051 -0.0535731 0)
(10.0834 -0.0517312 0)
(10.1054 -0.0510157 0)
(10.1197 -0.0524789 0)
(10.1299 -0.0537543 0)
(10.1377 -0.0543073 0)
(10.1437 -0.0545317 0)
(10.1479 -0.05471 0)
(10.1503 -0.0549134 0)
(10.1512 -0.0550797 0)
(10.1508 -0.0552045 0)
(10.1493 -0.0552435 0)
(10.1472 -0.0552647 0)
(10.1441 -0.0552181 0)
(10.1409 -0.0552068 0)
(10.1367 -0.055165 0)
(10.1328 -0.0552413 0)
(9.91096 -0.0324256 0)
(9.75041 -0.0483756 0)
(9.58618 -0.0467633 0)
(9.41857 -0.0456014 0)
(9.25353 -0.0456842 0)
(9.09476 -0.0456079 0)
(8.94335 -0.0451661 0)
(8.79917 -0.0445394 0)
(8.66166 -0.0437987 0)
(8.53059 -0.042964 0)
(8.4056 -0.0420682 0)
(8.28678 -0.0411936 0)
(8.17347 -0.040374 0)
(8.06601 -0.0396565 0)
(7.9631 -0.038992 0)
(7.86593 -0.0384103 0)
(7.77196 -0.0378422 0)
(7.68437 -0.0373861 0)
(-0.190075 0.410833 -7.22583e-22)
(-0.485148 0.236667 7.41249e-22)
(-0.644162 0.0735446 0)
(-0.663466 -0.093877 0)
(-0.522737 -0.247363 0)
(-0.271227 -0.359322 -7.21556e-22)
(0.055597 -0.424261 0)
(0.418457 -0.441455 0)
(0.781431 -0.42094 0)
(1.11861 -0.366109 0)
(1.41444 -0.299804 7.67607e-22)
(1.6777 -0.247637 0)
(1.89867 -0.168066 0)
(2.04686 -0.101552 0)
(2.14683 -0.0611889 0)
(2.21288 -0.0281138 1.02345e-21)
(2.24517 -0.0180323 0)
(2.26209 -0.029094 0)
(2.26095 -0.0251346 0)
(2.24085 -0.00420934 0)
(2.19229 0.0336849 0)
(2.10675 0.0713721 0)
(1.98127 0.0972141 0)
(1.83149 0.131109 1.05639e-21)
(1.6421 0.178871 -1.04411e-21)
(1.42759 0.186311 1.03636e-21)
(1.20278 0.170992 1.03504e-21)
(0.960338 0.13253 0)
(0.732954 0.092462 0)
(0.501619 0.125491 -1.05941e-21)
(0.253929 0.167315 -1.07344e-21)
(-0.00723597 0.192168 0)
(-0.275774 0.193817 0)
(-0.533224 0.167623 -1.13354e-21)
(-0.764394 0.126147 0)
(-0.967854 0.101891 0)
(-1.14403 0.0953089 1.1847e-21)
(-1.29962 0.0795832 0)
(-1.45 0.0674288 1.23293e-21)
(-1.63406 0.0831441 2.54525e-21)
(-1.86775 0.144732 0)
(-2.15607 0.221561 0)
(-2.49472 0.245005 0)
(-2.81267 0.209591 0)
(-3.09303 0.170783 0)
(-3.32724 0.107964 3.07062e-21)
(-3.50791 0.0111988 3.19316e-21)
(-3.67491 -0.0155962 3.31418e-21)
(-3.81842 0.0687523 0)
(-3.99896 0.110859 -3.47231e-21)
(-4.13199 0.0933264 0)
(-4.23207 0.0799152 3.58176e-21)
(-4.30244 0.0644397 3.60875e-21)
(-4.34584 0.0433798 0)
(-4.35858 0.0155822 0)
(-4.35106 -0.0329228 0)
(-4.32167 -0.0327534 3.50078e-21)
(-4.3122 -0.0179277 0)
(-4.27428 -0.0352738 0)
(-4.21235 -0.0528808 0)
(-4.10684 -0.0743988 0)
(-3.99065 -0.129025 0)
(-3.85902 -0.122239 0)
(-3.78498 -0.0677207 0)
(-3.72423 -0.0629685 0)
(-3.6562 -0.0581874 -2.81426e-21)
(-3.59516 -0.0581124 0)
(-3.52901 -0.0564716 0)
(-3.46799 -0.0540441 2.68081e-21)
(-3.40806 -0.0505759 2.64529e-21)
(-3.35339 -0.0473176 0)
(-3.30626 -0.041268 -2.58866e-21)
(-3.27136 -0.0279273 2.57939e-21)
(-3.25701 -0.0109843 0)
(-3.26959 0.00458685 -2.62059e-21)
(-3.3101 0.0247701 0)
(-3.39332 0.0443516 0)
(-3.51332 0.0675906 2.69832e-21)
(-3.68917 0.0908657 0)
(-3.91343 0.11149 -2.61056e-21)
(-4.1876 0.108421 0)
(-4.4437 0.0598199 2.46226e-21)
(-4.58451 0.0385967 2.39867e-21)
(-4.69506 0.0127168 2.32867e-21)
(-4.71164 -0.0437399 4.49236e-21)
(-4.71714 -0.0609924 -4.32949e-21)
(-4.72632 -0.048326 0)
(-4.82178 0.0158049 0)
(-5.00133 0.114143 0)
(-5.22395 0.12224 -3.81026e-21)
(-5.36854 0.0809561 -3.82066e-21)
(-5.45198 0.0438485 3.84835e-21)
(-5.47679 0.011028 0)
(-5.44823 -0.0151502 -3.82867e-21)
(-5.36997 -0.038292 -3.7566e-21)
(-5.24796 -0.0581992 -3.64174e-21)
(-5.08658 -0.0752348 0)
(-4.89875 -0.0865917 0)
(-4.69257 -0.0903344 0)
(-4.4874 -0.0885718 -2.7857e-21)
(-4.28464 -0.0808572 0)
(-4.10042 -0.0697288 0)
(-3.95236 -0.0478338 1.55068e-21)
(-3.84927 -0.0386655 0)
(-3.74809 -0.0397116 0)
(-3.62276 -0.112437 8.5782e-23)
(-3.47073 -0.0680543 0)
(-3.56089 0.0324872 0)
(-3.65631 0.0362718 8.53433e-22)
(-3.74849 0.0446672 8.83167e-22)
(-3.85406 0.0533607 0)
(-3.94036 0.051281 -6.41684e-22)
(-3.97826 0.0267406 0)
(-3.93995 -0.00511296 2.81231e-22)
(-3.84218 -0.0325915 0)
(-3.69053 -0.0550389 1.59673e-22)
(-3.49432 -0.0734799 2.4267e-22)
(-3.25689 -0.0889585 0)
(-2.98444 -0.101943 0)
(-2.68029 -0.113033 0)
(-2.34797 -0.122361 0)
(-1.99092 -0.129845 0)
(-1.61418 -0.135247 0)
(-1.22356 -0.138389 0)
(-0.825057 -0.139166 3.69021e-21)
(-0.424679 -0.137594 -4.18183e-21)
(-0.0272239 -0.134315 0)
(0.363746 -0.129866 0)
(0.745608 -0.124719 0)
(1.11643 -0.119056 0)
(1.47466 -0.112888 -1.14513e-20)
(1.81861 -0.106018 0)
(2.14618 -0.0982744 1.18008e-20)
(2.45466 -0.0894759 -1.18107e-20)
(2.74077 -0.0797939 0)
(3.00174 -0.0719824 0)
(3.23701 -0.0625218 0)
(3.44762 -0.0535524 1.10938e-20)
(3.63395 -0.045289 1.08156e-20)
(3.79772 -0.0378458 0)
(3.94096 -0.0312841 1.0234e-20)
(4.06575 -0.0255461 9.94532e-21)
(4.17416 -0.0204882 -9.6642e-21)
(4.26797 -0.0159334 0)
(4.34837 -0.0117017 0)
(4.41601 -0.00763797 -8.89132e-21)
(4.47107 -0.00360983 0)
(4.51328 0.0004638 0)
(4.54235 0.0045869 0)
(4.55782 0.00874035 0)
(4.55912 0.0129443 7.91075e-21)
(4.54555 0.0171948 7.76485e-21)
(4.51624 0.0214923 0)
(4.47015 0.0259153 7.52215e-21)
(4.40611 0.0303889 0)
(4.32304 0.0346071 0)
(4.22026 0.0380914 7.26255e-21)
(4.09791 0.0403097 0)
(3.95786 0.0404631 7.13285e-21)
(3.80517 0.0383845 0)
(3.64746 0.0355026 0)
(3.4914 0.0349667 6.98969e-21)
(3.34044 0.0374189 0)
(3.1884 0.0444864 6.93894e-21)
(3.02419 0.0489637 0)
(2.85107 0.0477847 0)
(2.67008 0.0413238 0)
(2.49441 0.0233052 -6.77406e-21)
(2.36225 0.00193833 0)
(2.28082 -0.00832778 6.67314e-21)
(2.23167 -0.00789714 0)
(2.2002 -0.00318036 0)
(2.17093 0.00351365 0)
(2.13102 0.00886965 0)
(2.07845 0.0127839 0)
(2.0068 0.0123401 0)
(1.94244 0.0188435 0)
(1.82583 0.0170043 -1.3427e-20)
(1.78361 0.0398684 0)
(1.5243 0.0170034 0)
(-0.0120243 0.895942 2.24674e-21)
(-0.0217389 0.655237 -2.29011e-21)
(0.0260669 0.264585 0)
(0.191559 -0.156878 1.63285e-21)
(0.434682 -0.573611 0)
(0.740162 -0.882336 7.19055e-22)
(1.06367 -1.04837 -1.6459e-21)
(1.37066 -1.08926 -1.66625e-21)
(1.64726 -1.03794 0)
(1.8766 -0.933966 -1.79326e-21)
(2.06689 -0.834808 -7.65578e-22)
(2.20631 -0.724365 0)
(2.30093 -0.556895 0)
(2.38332 -0.383273 0)
(2.44283 -0.267795 0)
(2.46812 -0.172617 -1.02171e-21)
(2.46173 -0.0833759 0)
(2.42835 -0.00537718 2.35132e-21)
(2.36812 0.0569185 0)
(2.29167 0.110625 0)
(2.19178 0.194984 -2.36167e-21)
(2.0716 0.294631 0)
(1.92806 0.377288 2.32908e-21)
(1.77176 0.451281 -1.05331e-21)
(1.60627 0.507211 1.04064e-21)
(1.41854 0.54789 -1.03261e-21)
(1.20023 0.60577 -1.03108e-21)
(0.941263 0.655087 0)
(0.645973 0.673482 0)
(0.317635 0.66811 1.05606e-21)
(-0.00649778 0.656179 -1.26256e-21)
(-0.308403 0.645642 0)
(-0.601065 0.635948 0)
(-0.871813 0.601888 1.13051e-21)
(-1.1295 0.543799 0)
(-1.36352 0.472818 0)
(-1.57347 0.38447 -1.18117e-21)
(-1.79094 0.343111 0)
(-2.03589 0.415518 1.51478e-21)
(-2.30889 0.537942 -2.5393e-21)
(-2.5725 0.63144 0)
(-2.81846 0.688942 0)
(-3.05428 0.689538 -6.10292e-21)
(-3.28625 0.620743 -6.25206e-21)
(-3.52713 0.554418 -6.45233e-21)
(-3.73455 0.477054 3.61221e-21)
(-3.95931 0.461064 -3.18757e-21)
(-4.194 0.432927 -1.04613e-20)
(-4.34766 0.368589 7.35621e-21)
(-4.47919 0.291351 3.4652e-21)
(-4.55989 0.203373 0)
(-4.61728 0.132024 -3.57495e-21)
(-4.63392 0.0626579 4.17271e-21)
(-4.6341 0.00302481 0)
(-4.61529 -0.0337692 0)
(-4.61335 -0.0384575 0)
(-4.59321 -0.0469399 -3.49677e-21)
(-4.56288 -0.0769225 0)
(-4.50096 -0.125978 7.17104e-21)
(-4.42983 -0.188043 0)
(-4.336 -0.237701 6.82427e-21)
(-4.30297 -0.198377 0)
(-4.27354 -0.154606 -6.50673e-21)
(-4.23781 -0.133363 0)
(-4.1951 -0.132421 6.23095e-21)
(-4.1446 -0.126099 -3.31747e-21)
(-4.09271 -0.123827 0)
(-4.03368 -0.119334 -5.97091e-21)
(-3.97477 -0.115227 -2.67872e-21)
(-3.91501 -0.109127 -2.64337e-21)
(-3.85964 -0.101248 0)
(-3.81212 -0.0882748 -3.11229e-21)
(-3.76424 -0.0684127 -2.57762e-21)
(-3.72637 -0.0333153 0)
(-3.70424 0.0193991 2.61915e-21)
(-3.70134 0.0817712 -5.77475e-21)
(-3.73711 0.152591 0)
(-3.81651 0.242441 -2.69682e-21)
(-3.94686 0.32991 0)
(-4.12177 0.398522 8.19865e-21)
(-4.33605 0.425773 0)
(-4.60863 0.345501 -7.67069e-21)
(-4.83041 0.217119 -2.39735e-21)
(-4.98922 0.114205 2.55536e-21)
(-5.09855 0.0476301 4.92218e-21)
(-5.23832 0.0601423 -4.7542e-21)
(-5.37743 0.142934 0)
(-5.57526 0.251977 0)
(-5.69872 0.261974 0)
(-5.78121 0.206586 1.21592e-20)
(-5.80624 0.128297 3.81818e-21)
(-5.79663 0.0505304 -3.84549e-21)
(-5.74092 -0.026968 0)
(-5.64749 -0.0996548 -4.3068e-21)
(-5.51548 -0.166672 3.75501e-21)
(-5.35317 -0.224399 3.64091e-21)
(-5.16033 -0.269598 0)
(-4.95518 -0.295405 0)
(-4.73406 -0.303711 0)
(-4.52197 -0.294125 2.78716e-21)
(-4.30938 -0.275464 0)
(-4.12814 -0.233142 -4.43035e-21)
(-3.96009 -0.18787 -5.01786e-21)
(-3.84263 -0.155107 2.41698e-21)
(-3.73185 -0.172302 0)
(-3.72396 -0.119662 4.22393e-22)
(-3.78763 0.0220132 0)
(-3.85504 0.0872504 -7.14481e-22)
(-3.88967 0.091664 1.20681e-22)
(-3.94321 0.101177 1.26681e-22)
(-3.96393 0.0814155 0)
(-3.93048 0.0296309 1.22808e-21)
(-3.83342 -0.0460429 -2.82168e-22)
(-3.68995 -0.117522 -2.80813e-22)
(-3.51174 -0.178763 0)
(-3.30349 -0.230318 -1.57948e-22)
(-3.06764 -0.274987 -3.58021e-22)
(-2.80491 -0.314369 0)
(-2.51415 -0.349718 -1.11913e-21)
(-2.19507 -0.381192 -1.89618e-21)
(-1.84898 -0.408432 -2.82785e-21)
(-1.47876 -0.43057 0)
(-1.08901 -0.446947 0)
(-0.685794 -0.456219 0)
(-0.275164 -0.458322 3.51936e-21)
(0.136556 -0.453851 4.17773e-21)
(0.544473 -0.444296 0)
(0.945206 -0.431365 9.85849e-21)
(1.33659 -0.416493 1.04855e-20)
(1.7171 -0.400293 0)
(2.08555 -0.382699 1.14425e-20)
(2.44055 -0.363045 2.31717e-20)
(2.78029 -0.340705 -1.17924e-20)
(3.1023 -0.315356 -1.16506e-20)
(3.40281 -0.28936 0)
(3.67869 -0.262217 0)
(3.93112 -0.234311 0)
(4.16009 -0.207559 -1.10829e-20)
(4.36643 -0.182712 1.07056e-20)
(4.55179 -0.160214 2.09409e-20)
(4.71801 -0.140268 -1.02246e-20)
(4.86715 -0.122741 9.85647e-21)
(5.00113 -0.107266 9.65535e-21)
(5.12165 -0.0933714 0)
(5.23001 -0.0805634 0)
(5.32703 -0.0684041 -8.81238e-21)
(5.41324 -0.0565199 0)
(5.48902 -0.0446567 0)
(5.55434 -0.0326473 1.64167e-20)
(5.60902 -0.0203887 0)
(5.65265 -0.00778774 7.82521e-21)
(5.68467 0.00532124 -7.75578e-21)
(5.70442 0.0190466 0)
(5.71109 0.0334965 7.42335e-21)
(5.70374 0.048709 0)
(5.68129 0.0645694 0)
(5.64267 0.0806551 -7.25283e-21)
(5.58648 0.0962385 1.42536e-20)
(5.51139 0.109869 -7.1229e-21)
(5.41635 0.119767 0)
(5.30031 0.123738 0)
(5.16287 0.121921 6.87117e-21)
(5.00715 0.116925 0)
(4.84915 0.114048 6.82277e-21)
(4.7044 0.11737 0)
(4.5747 0.123581 0)
(4.45387 0.128474 0)
(4.32431 0.122275 6.76173e-21)
(4.18825 0.0988947 0)
(4.05655 0.0680731 -6.66215e-21)
(3.94116 0.043627 0)
(3.84919 0.0289945 0)
(3.78362 0.0267638 1.33169e-20)
(3.73052 0.0307968 -1.33451e-20)
(3.68837 0.0419883 0)
(3.63092 0.0464226 0)
(3.58396 0.060445 0)
(3.48737 0.0550624 4.01351e-20)
(3.44713 0.0870872 0)
(3.27016 0.0739868 -2.66923e-20)
(0.0774868 0.592867 -3.61336e-23)
(0.291495 0.276037 3.04686e-21)
(0.595343 -0.276702 0)
(0.956724 -0.841253 -3.27843e-21)
(1.31883 -1.29682 0)
(1.63489 -1.5787 0)
(1.8855 -1.67393 -2.90749e-22)
(2.07408 -1.61586 1.6638e-21)
(2.20756 -1.44654 2.11896e-21)
(2.29636 -1.20843 1.79265e-21)
(2.34004 -0.953888 0)
(2.33689 -0.709348 0)
(2.2803 -0.508208 -2.44982e-21)
(2.22069 -0.372998 -5.01008e-21)
(2.15879 -0.22558 5.08966e-21)
(2.09054 -0.0623931 0)
(2.0122 0.0611449 5.18527e-21)
(1.92078 0.157637 -2.35315e-21)
(1.81977 0.230437 0)
(1.69541 0.334246 5.20543e-21)
(1.55997 0.448113 2.36105e-21)
(1.4246 0.54663 -5.17379e-21)
(1.28381 0.636873 -2.32682e-21)
(1.13951 0.717884 0)
(0.983668 0.798435 5.10098e-21)
(0.7996 0.900597 5.08328e-21)
(0.596914 1.00077 0)
(0.368409 1.09781 5.06567e-21)
(0.113694 1.17607 0)
(-0.167713 1.22195 5.08788e-21)
(-0.473923 1.22792 2.32404e-21)
(-0.778882 1.19979 0)
(-1.07351 1.1404 0)
(-1.34179 1.05037 0)
(-1.59881 0.950129 0)
(-1.84147 0.851197 0)
(-2.10369 0.808493 0)
(-2.38268 0.823075 5.88696e-21)
(-2.65247 0.871014 -8.8278e-21)
(-2.90987 0.933518 0)
(-3.13479 0.976424 0)
(-3.34823 0.980298 0)
(-3.52215 0.977855 -6.8892e-22)
(-3.70734 0.931926 6.24241e-21)
(-3.87715 0.857508 1.35696e-20)
(-4.04006 0.777888 -1.402e-20)
(-4.19178 0.697623 -7.58622e-21)
(-4.32163 0.607585 7.14566e-21)
(-4.41094 0.514836 6.88861e-22)
(-4.48521 0.41606 8.21593e-21)
(-4.53402 0.312042 0)
(-4.57454 0.20883 8.43038e-21)
(-4.59788 0.115778 6.8338e-22)
(-4.62693 0.0502825 0)
(-4.64412 0.00399941 0)
(-4.64629 -0.0345972 -8.26909e-21)
(-4.62 -0.0812402 0)
(-4.5849 -0.133672 0)
(-4.53692 -0.196246 8.36783e-21)
(-4.49791 -0.243575 1.51342e-20)
(-4.49828 -0.229699 -6.82314e-21)
(-4.51937 -0.19483 0)
(-4.51648 -0.175054 6.50398e-21)
(-4.50004 -0.17209 0)
(-4.472 -0.179401 7.50406e-21)
(-4.42941 -0.185391 6.1245e-21)
(-4.3747 -0.194934 -1.34526e-20)
(-4.30938 -0.19924 -7.36468e-21)
(-4.23943 -0.19513 0)
(-4.17011 -0.184199 1.3056e-20)
(-4.10592 -0.171402 0)
(-4.04773 -0.156523 1.84636e-20)
(-3.99187 -0.131286 1.2674e-20)
(-3.94292 -0.0851418 1.26459e-20)
(-3.89958 -0.0224764 -1.26609e-20)
(-3.87325 0.0664106 1.84738e-20)
(-3.87676 0.188589 0)
(-3.91157 0.330854 0)
(-3.97722 0.461987 -1.23735e-20)
(-4.09182 0.565859 -1.76288e-20)
(-4.21834 0.645538 0)
(-4.42563 0.600985 5.2163e-21)
(-4.64521 0.4604 0)
(-4.85462 0.316099 -1.52491e-20)
(-5.05173 0.23375 5.95813e-22)
(-5.23344 0.236193 -6.3557e-22)
(-5.40072 0.323632 9.53219e-21)
(-5.5018 0.365385 0)
(-5.52192 0.312464 -9.3196e-21)
(-5.51206 0.218765 8.90255e-22)
(-5.47003 0.106658 0)
(-5.41172 -0.00948678 0)
(-5.3279 -0.121827 0)
(-5.22485 -0.223765 8.14304e-21)
(-5.09705 -0.315086 0)
(-4.94962 -0.393724 0)
(-4.77948 -0.453707 0)
(-4.59658 -0.488098 0)
(-4.3991 -0.495481 0)
(-4.20727 -0.476026 6.42589e-21)
(-4.02009 -0.435273 0)
(-3.87706 -0.370505 4.44061e-21)
(-3.74013 -0.307291 3.47428e-21)
(-3.65403 -0.240187 -2.4243e-21)
(-3.60391 -0.18123 0)
(-3.66367 -0.0675778 -5.15042e-22)
(-3.69995 0.047448 0)
(-3.68295 0.0871166 7.07088e-22)
(-3.6667 0.106087 -9.6297e-22)
(-3.65622 0.101345 -1.02965e-21)
(-3.59921 0.0426815 0)
(-3.50037 -0.0514835 5.56796e-23)
(-3.36075 -0.158426 1.35421e-21)
(-3.204 -0.252296 0)
(-3.02409 -0.333216 1.52984e-21)
(-2.82223 -0.403335 1.36633e-21)
(-2.59267 -0.467078 -7.49687e-22)
(-2.33581 -0.526132 0)
(-2.04949 -0.581545 1.11368e-21)
(-1.73458 -0.6324 1.89158e-21)
(-1.3917 -0.677245 7.62721e-21)
(-1.02398 -0.714204 0)
(-0.635766 -0.741088 0)
(-0.233389 -0.755967 0)
(0.17585 -0.758505 6.64691e-21)
(0.584551 -0.749875 0)
(0.987079 -0.732723 0)
(1.37982 -0.710185 -9.85254e-21)
(1.76099 -0.684921 -1.04797e-20)
(2.12971 -0.658117 0)
(2.48541 -0.62953 0)
(2.82717 -0.597863 -2.31605e-20)
(3.15365 -0.561842 0)
(3.46211 -0.521318 2.34382e-20)
(3.74939 -0.479063 2.30367e-20)
(4.01332 -0.434071 0)
(4.25427 -0.38878 0)
(4.47262 -0.345346 -2.18556e-20)
(4.66967 -0.305096 -1.7009e-22)
(4.84722 -0.268767 -1.5621e-22)
(5.00721 -0.236586 0)
(5.15157 -0.208328 -3.94295e-20)
(5.28208 -0.183452 0)
(5.4003 -0.161256 0)
(5.50743 -0.141007 0)
(5.60434 -0.122045 1.76876e-20)
(5.69161 -0.103838 0)
(5.76957 -0.0860249 -3.33761e-20)
(5.83834 -0.0683103 -1.64099e-20)
(5.89793 -0.050375 0)
(5.94815 -0.0320218 -1.57204e-20)
(5.98868 -0.0130438 0)
(6.019 0.00674883 0)
(6.03865 0.0275081 -4.45269e-20)
(6.04724 0.0493202 2.91818e-20)
(6.04448 0.0720626 0)
(6.03004 0.0952853 2.84938e-20)
(6.00348 0.11839 -1.42467e-20)
(5.96401 0.140437 0)
(5.91056 0.16033 0)
(5.84113 0.17685 0)
(5.75408 0.189696 -4.12552e-20)
(5.64683 0.19878 0)
(5.51816 0.200602 -1.37419e-20)
(5.37387 0.192963 0)
(5.224 0.181603 0)
(5.08669 0.173301 0)
(4.9706 0.165089 0)
(4.85988 0.1462 0)
(4.73946 0.118482 0)
(4.61579 0.0931171 -2.63788e-20)
(4.49851 0.0728346 0)
(4.39898 0.0609384 -1.33077e-20)
(4.31354 0.054883 3.98701e-20)
(4.25195 0.059634 0)
(4.19279 0.0629437 0)
(4.15535 0.0806321 -2.65914e-20)
(4.08914 0.0855855 -2.67101e-20)
(4.05692 0.120345 2.65671e-20)
(3.94264 0.119651 2.66768e-20)
(0.0705814 0.0698674 -4.50201e-21)
(0.446105 -0.507588 -4.57295e-21)
(0.904607 -1.1837 -3.2739e-21)
(1.32025 -1.68577 -1.91302e-21)
(1.64724 -1.99236 0)
(1.86309 -2.07071 4.20465e-21)
(1.98093 -1.96302 -2.57056e-21)
(2.03404 -1.7475 0)
(2.04153 -1.47222 -2.12133e-21)
(2.0298 -1.16727 0)
(1.99962 -0.865665 5.41321e-21)
(1.95586 -0.57712 0)
(1.88428 -0.31602 2.45427e-21)
(1.7892 -0.113232 5.0186e-21)
(1.65376 0.0203799 -5.09717e-21)
(1.52093 0.135139 0)
(1.40093 0.267398 -5.19033e-21)
(1.2726 0.374491 0)
(1.1326 0.480055 0)
(0.976649 0.598649 -5.20593e-21)
(0.825329 0.705722 0)
(0.67067 0.80889 -5.53771e-22)
(0.514098 0.905012 0)
(0.34911 1.00377 0)
(0.167051 1.11958 6.12251e-22)
(-0.0264792 1.24187 -5.07654e-21)
(-0.231814 1.36945 -5.70975e-21)
(-0.446825 1.49222 -5.05698e-21)
(-0.670749 1.59594 0)
(-0.902962 1.66883 -1.07844e-20)
(-1.14867 1.69464 0)
(-1.39973 1.66301 -5.72438e-21)
(-1.65317 1.5828 0)
(-1.90166 1.47756 0)
(-2.15415 1.37812 5.91867e-21)
(-2.41442 1.30331 0)
(-2.68614 1.26513 -6.21368e-21)
(-2.94544 1.253 5.48133e-22)
(-3.19123 1.2742 1.27535e-20)
(-3.42243 1.30906 -1.38305e-20)
(-3.63117 1.3273 0)
(-3.81497 1.29583 0)
(-3.96688 1.23837 -8.24794e-21)
(-4.09985 1.14881 0)
(-4.21268 1.05385 -7.11756e-21)
(-4.31317 0.963195 7.3435e-21)
(-4.39106 0.856579 7.57891e-21)
(-4.44996 0.736162 0)
(-4.49217 0.610287 -8.0344e-21)
(-4.52744 0.480127 -8.21272e-21)
(-4.5548 0.352684 1.83145e-20)
(-4.58645 0.239148 -8.42885e-21)
(-4.62086 0.148685 -8.45585e-21)
(-4.66051 0.0734721 0)
(-4.68447 0.00144556 0)
(-4.69306 -0.0645849 8.26907e-21)
(-4.68645 -0.125922 0)
(-4.68115 -0.181156 0)
(-4.6733 -0.233346 -1.55359e-20)
(-4.6923 -0.239824 -1.51299e-20)
(-4.74047 -0.207823 0)
(-4.78041 -0.18691 0)
(-4.78718 -0.182945 0)
(-4.78403 -0.190229 0)
(-4.76561 -0.214383 -1.37202e-20)
(-4.72467 -0.241965 1.50388e-20)
(-4.66472 -0.267783 1.34455e-20)
(-4.59222 -0.280169 2.81393e-20)
(-4.51468 -0.27588 0)
(-4.43343 -0.261544 1.47223e-21)
(-4.35332 -0.248065 0)
(-4.27641 -0.233859 -1.27643e-20)
(-4.20555 -0.20472 1.35933e-21)
(-4.14311 -0.1519 -1.26583e-20)
(-4.08915 -0.0652761 1.26761e-20)
(-4.0451 0.0511724 1.09247e-21)
(-4.00467 0.187739 0)
(-3.97672 0.350578 1.35369e-20)
(-3.97473 0.517681 1.23901e-20)
(-4.02475 0.660477 2.48977e-20)
(-4.08646 0.785382 0)
(-4.21656 0.791362 -1.18332e-20)
(-4.38097 0.681083 0)
(-4.57463 0.54387 2.14144e-20)
(-4.75693 0.436289 -1.00271e-20)
(-4.9279 0.401942 9.73711e-21)
(-5.03972 0.409369 -9.54265e-21)
(-5.0564 0.374076 -2.06289e-20)
(-5.0276 0.283235 9.32914e-21)