/*--------------------------------*- C++ -*----------------------------------*\
  =========                 |
  \\      /  F ield         | OpenFOAM: The Open Source CFD Toolbox
   \\    /   O peration     | Website:  https://openfoam.org
    \\  /    A nd           | Version:  9
     \\/     M anipulation  |
\*---------------------------------------------------------------------------*/
FoamFile
{
    format      ascii;
    class       volScalarField;
    location    "0.2";
    object      k;
}
// * * * * * * * * * * * * * * * * * * * * * * * * * * * * * * * * * * * * * //

dimensions      [0 2 -2 0 0 0 0];

internalField   nonuniform List<scalar> 
12225
(
0.353921
0.335043
0.316966
0.300961
0.288125
0.278907
0.273298
0.271002
0.271565
0.274468
0.279198
0.285286
0.292325
0.299979
0.307993
0.316152
0.3245
0.336589
0.436864
0.448979
0.438085
0.433061
0.438787
0.453585
0.474799
0.499978
0.527135
0.554784
0.581896
0.607808
0.63214
0.654715
0.675641
0.694813
0.714305
0.729609
0.395187
0.410874
0.410631
0.405747
0.402011
0.400924
0.402614
0.406807
0.413081
0.420977
0.430063
0.439957
0.45035
0.460999
0.471761
0.482526
0.493578
0.504285
0.379641
0.38484
0.386546
0.38573
0.383905
0.382026
0.380567
0.379739
0.379606
0.380147
0.3813
0.382984
0.385116
0.38762
0.390444
0.393552
0.396963
0.400574
0.374976
0.3759
0.376239
0.375721
0.37457
0.373084
0.371496
0.369967
0.368593
0.367426
0.366484
0.365768
0.365267
0.364967
0.364855
0.364921
0.36516
0.365542
0.373488
0.372555
0.371759
0.370807
0.369631
0.368275
0.366809
0.3653
0.363803
0.362358
0.36099
0.359714
0.358537
0.357461
0.356488
0.355616
0.354845
0.354168
0.373012
0.371296
0.369813
0.368416
0.367025
0.36561
0.364168
0.362711
0.361257
0.359824
0.358425
0.357073
0.355773
0.354533
0.353354
0.352239
0.351191
0.350215
0.372865
0.370838
0.369004
0.367311
0.365711
0.364174
0.362679
0.361216
0.359783
0.358381
0.357015
0.355687
0.354402
0.353161
0.351967
0.350822
0.349728
0.348696
0.37282
0.37068
0.368691
0.366836
0.365095
0.363449
0.36188
0.360376
0.358928
0.357531
0.356182
0.354879
0.353622
0.352409
0.351241
0.350118
0.349041
0.348022
0.372806
0.370628
0.368578
0.366648
0.364829
0.36311
0.361482
0.359934
0.358457
0.357045
0.355693
0.354397
0.353152
0.351958
0.350811
0.349712
0.348659
0.347663
0.372801
0.370609
0.368537
0.366576
0.36472
0.362964
0.361299
0.359718
0.358216
0.356785
0.35542
0.354118
0.352874
0.351684
0.350547
0.349459
0.34842
0.347439
0.372799
0.370602
0.368522
0.36655
0.36468
0.362907
0.361225
0.359627
0.358108
0.356664
0.355288
0.353978
0.352729
0.351537
0.350399
0.349314
0.348279
0.347303
0.372797
0.370599
0.368514
0.366537
0.36466
0.36288
0.361188
0.359581
0.358053
0.3566
0.355216
0.353899
0.352644
0.351448
0.350308
0.34922
0.348185
0.347209
0.372796
0.370596
0.368509
0.366528
0.364649
0.362864
0.361168
0.359555
0.358022
0.356563
0.355174
0.353851
0.352591
0.351391
0.350247
0.349157
0.348118
0.347141
0.372795
0.370593
0.368505
0.366523
0.364641
0.362853
0.361154
0.359539
0.358003
0.35654
0.355148
0.353823
0.35256
0.351356
0.350209
0.349116
0.348074
0.347094
0.372794
0.370592
0.368502
0.366518
0.364634
0.362845
0.361145
0.359527
0.357989
0.356525
0.355131
0.353803
0.352538
0.351333
0.350184
0.349088
0.348044
0.347061
0.372794
0.37059
0.368499
0.366515
0.36463
0.362839
0.361137
0.359519
0.357979
0.356513
0.355118
0.353789
0.352523
0.351316
0.350165
0.349067
0.348021
0.347037
0.372794
0.370589
0.368498
0.366512
0.364627
0.362835
0.361132
0.359513
0.357972
0.356506
0.355109
0.353779
0.352511
0.351303
0.350151
0.349052
0.348005
0.347019
0.372793
0.370589
0.368497
0.366512
0.364626
0.362834
0.361131
0.359511
0.357969
0.356502
0.355105
0.353775
0.352506
0.351297
0.350144
0.349045
0.347997
0.34701
0.372794
0.37059
0.368498
0.366513
0.364628
0.362836
0.361133
0.359514
0.357973
0.356506
0.355109
0.353779
0.352511
0.351302
0.350149
0.34905
0.348002
0.347015
0.372794
0.370591
0.3685
0.366516
0.364632
0.362841
0.36114
0.359522
0.357982
0.356517
0.355122
0.353793
0.352526
0.351319
0.350168
0.349069
0.348023
0.347038
0.372795
0.370593
0.368504
0.366522
0.364641
0.362855
0.361158
0.359546
0.358012
0.356552
0.355163
0.353839
0.352578
0.351376
0.350229
0.349134
0.348091
0.347108
0.372796
0.370598
0.368518
0.366547
0.364681
0.362912
0.361235
0.359642
0.358127
0.356685
0.355311
0.354001
0.352751
0.351556
0.350415
0.349324
0.348282
0.347298
0.372804
0.370631
0.368592
0.366676
0.364872
0.363166
0.361548
0.360006
0.358532
0.357121
0.355767
0.354467
0.353219
0.35202
0.350868
0.349762
0.348701
0.347697
0.372856
0.370818
0.368973
0.367264
0.365645
0.364085
0.362567
0.361083
0.359631
0.358213
0.356833
0.355493
0.354196
0.352946
0.351744
0.35059
0.349487
0.348445
0.373166
0.37177
0.370579
0.369371
0.368049
0.366605
0.365072
0.363492
0.361905
0.360342
0.358826
0.357372
0.355991
0.354689
0.353468
0.352329
0.351272
0.350303
0.374797
0.375829
0.376175
0.375401
0.373834
0.371876
0.369792
0.36774
0.365814
0.364067
0.362524
0.361195
0.360075
0.359156
0.358424
0.357863
0.357456
0.357189
0.382729
0.39167
0.392375
0.388805
0.384384
0.380403
0.377247
0.374997
0.373621
0.373038
0.373152
0.373866
0.375083
0.376715
0.378684
0.38092
0.383362
0.385943
0.407499
0.414514
0.405423
0.395992
0.390555
0.389292
0.391455
0.396215
0.402835
0.410725
0.419432
0.428617
0.438026
0.447469
0.456812
0.465961
0.474868
0.48345
0.360554
0.347547
0.334933
0.322917
0.311965
0.302353
0.29419
0.287471
0.282115
0.278004
0.275001
0.272967
0.271767
0.271274
0.271377
0.271973
0.272976
0.274302
0.000924948
0.00491504
0.00804186
0.0108982
0.0140109
0.0175584
0.0215873
0.0261838
0.0313356
0.0366643
0.0421899
0.0478831
0.0537038
0.0596121
0.0655714
0.0715479
0.0775096
0.0834257
0.089266
0.0950006
0.100599
0.10603
0.11126
0.116253
0.120967
0.125359
0.129379
0.132977
0.136095
0.138656
0.14055
0.141669
0.142088
0.142354
0.14325
0.143749
0.141468
0.143116
0.145563
0.144239
0.144205
0.145676
0.146506
0.147331
0.153781
0.160691
0.167872
0.175275
0.182883
0.190682
0.198662
0.206818
0.215146
0.223642
0.232302
0.241124
0.250106
0.259244
0.268536
0.277978
0.287568
0.2973
0.307171
0.317177
0.327313
0.337573
0.347952
0.358444
0.369043
0.379742
0.390533
0.401411
0.412367
0.423394
0.434483
0.445627
0.456816
0.468042
0.479296
0.490569
0.501853
0.513138
0.524414
0.535673
0.546904
0.558099
0.569247
0.58034
0.591367
0.602318
0.613183
0.623951
0.634614
0.64516
0.65558
0.665866
0.676015
0.686027
0.695917
0.705723
0.715402
0.724857
0.734092
0.743103
0.751882
0.760418
0.768701
0.776719
0.784461
0.791917
0.799077
0.805931
0.81247
0.818685
0.824567
0.830109
0.835303
0.840142
0.844619
0.84873
0.852469
0.855831
0.858812
0.86141
0.863622
0.865445
0.866878
0.867921
0.868573
0.868835
0.868709
0.868197
0.8673
0.866024
0.864371
0.862347
0.859957
0.857206
0.854102
0.850652
0.846864
0.842746
0.838306
0.833556
0.828503
0.82316
0.817536
0.811643
0.805493
0.799098
0.792469
0.78562
0.778562
0.77131
0.763877
0.756273
0.748517
0.740617
0.732591
0.724451
0.716202
0.707885
0.699469
0.691043
0.682686
0.675643
0.671883
0.668451
0.66502
0.661571
0.658106
0.654623
0.651116
0.647563
0.64392
0.640085
0.635827
0.630543
0.622754
0.605994
0.00335756
0.0132526
0.0197532
0.0249951
0.0298447
0.0346107
0.0395701
0.044833
0.0504053
0.0562293
0.0622547
0.068436
0.0747337
0.081114
0.087548
0.0940103
0.100478
0.10693
0.113346
0.119708
0.125997
0.132195
0.138286
0.144249
0.150065
0.155718
0.161189
0.166469
0.171549
0.176416
0.181067
0.18558
0.190217
0.195316
0.200911
0.206766
0.21285
0.220279
0.227473
0.236004
0.244452
0.255239
0.266636
0.27847
0.290143
0.301718
0.313701
0.326087
0.338847
0.35196
0.365411
0.379193
0.393301
0.407731
0.422482
0.43755
0.452936
0.468636
0.484649
0.500972
0.517603
0.534538
0.551774
0.569306
0.587128
0.605236
0.623623
0.642282
0.661205
0.680384
0.69981
0.719473
0.739362
0.759467
0.779776
0.800277
0.820957
0.841804
0.862803
0.883941
0.905202
0.926574
0.948039
0.969585
0.991194
1.01285
1.03454
1.05625
1.07795
1.09964
1.12129
1.1429
1.16444
1.18589
1.20724
1.22847
1.24955
1.27048
1.29121
1.31165
1.33167
1.35139
1.37082
1.38995
1.40875
1.42721
1.44531
1.46301
1.48031
1.49717
1.51358
1.52952
1.54497
1.5599
1.5743
1.58815
1.60143
1.61413
1.62623
1.63772
1.64857
1.65879
1.66835
1.67725
1.68547
1.69302
1.69987
1.70603
1.71148
1.71623
1.72027
1.7236
1.72622
1.72813
1.72933
1.72983
1.72963
1.72874
1.72716
1.7249
1.72198
1.7184
1.71418
1.70932
1.70385
1.69777
1.69112
1.68389
1.67611
1.6678
1.65898
1.64967
1.63989
1.62966
1.61901
1.60795
1.59652
1.58473
1.57262
1.56021
1.54749
1.53457
1.52132
1.50799
1.4946
1.48138
1.46869
1.45603
1.44333
1.43058
1.41779
1.40499
1.39218
1.37936
1.36651
1.35358
1.34044
1.32696
1.3119
1.29241
0.00658879
0.0215014
0.0301163
0.0366222
0.0423828
0.047956
0.0536057
0.0594554
0.0655429
0.0718561
0.0783623
0.0850243
0.0918075
0.0986829
0.105627
0.11262
0.119648
0.126699
0.133762
0.140831
0.147899
0.154964
0.162024
0.16908
0.176136
0.1832
0.19029
0.197433
0.204669
0.212047
0.21963
0.227515
0.235831
0.24467
0.254022
0.263879
0.274289
0.285393
0.297092
0.309517
0.322569
0.336402
0.350838
0.365709
0.38084
0.396258
0.41208
0.428341
0.445037
0.46216
0.479703
0.497657
0.516019
0.534783
0.553947
0.573506
0.593458
0.613799
0.634526
0.655635
0.677122
0.698981
0.721208
0.743796
0.766739
0.790028
0.813656
0.837613
0.861889
0.886473
0.911355
0.936521
0.961958
0.987653
1.01359
1.03976
1.06613
1.09271
1.11946
1.14637
1.17342
1.2006
1.22788
1.25525
1.28268
1.31016
1.33767
1.36519
1.39269
1.42016
1.44757
1.47491
1.50216
1.52929
1.55628
1.58312
1.60979
1.63626
1.66251
1.68839
1.71391
1.73909
1.76391
1.78834
1.81236
1.83594
1.85905
1.88166
1.90374
1.92527
1.94621
1.96655
1.98625
2.0053
2.02366
2.04131
2.05824
2.07441
2.08981
2.10442
2.11822
2.1312
2.14334
2.15463
2.16505
2.17459
2.18324
2.19101
2.19786
2.20382
2.20886
2.21299
2.21621
2.21852
2.21991
2.22041
2.22001
2.21872
2.21655
2.21352
2.20962
2.20489
2.19932
2.19295
2.18579
2.17785
2.16917
2.15976
2.14964
2.13883
2.12738
2.11529
2.1026
2.08935
2.07554
2.06121
2.04641
2.03114
2.01546
1.99939
1.9829
1.96621
1.94923
1.93207
1.91477
1.8975
1.88041
1.86333
1.8462
1.82903
1.81183
1.79463
1.77745
1.76032
1.74326
1.72629
1.70939
1.69264
1.67549
1.65756
0.0102277
0.0290847
0.0393639
0.0468635
0.0533949
0.0595941
0.0657622
0.0720515
0.0785292
0.0852108
0.0920839
0.0991239
0.106304
0.113601
0.120995
0.128473
0.136024
0.143645
0.151333
0.15909
0.16692
0.174831
0.182835
0.190944
0.199179
0.207563
0.216129
0.224917
0.233976
0.243361
0.253134
0.263362
0.274115
0.285441
0.297353
0.309859
0.322979
0.336744
0.351158
0.366223
0.381917
0.398226
0.4151
0.432465
0.450251
0.468449
0.487086
0.506181
0.525741
0.545768
0.56626
0.587216
0.608633
0.630508
0.652839
0.675624
0.698861
0.722546
0.746676
0.771248
0.796258
0.821701
0.847572
0.873863
0.900569
0.92768
0.955189
0.983084
1.01136
1.03999
1.06898
1.0983
1.12795
1.1579
1.18815
1.21866
1.24943
1.28043
1.31165
1.34306
1.37465
1.40638
1.43824
1.47021
1.50225
1.53436
1.5665
1.59865
1.63079
1.6629
1.69494
1.7269
1.75875
1.79047
1.82204
1.85343
1.88463
1.9156
1.94626
1.97653
2.00642
2.0359
2.06496
2.09357
2.12168
2.14926
2.17629
2.20272
2.22853
2.25368
2.27814
2.30187
2.32486
2.34705
2.36844
2.38899
2.40867
2.42746
2.44533
2.46227
2.47825
2.49325
2.50726
2.52026
2.53223
2.54316
2.55305
2.56188
2.56964
2.57633
2.58195
2.58649
2.58996
2.59235
2.59367
2.59393
2.59314
2.5913
2.58842
2.58453
2.57963
2.57374
2.56688
2.55908
2.55034
2.5407
2.53019
2.51882
2.50662
2.49363
2.47987
2.46538
2.45018
2.43432
2.41782
2.4007
2.38305
2.36482
2.34613
2.32705
2.30756
2.28775
2.26763
2.24727
2.22673
2.20613
2.18557
2.16498
2.14435
2.12367
2.10299
2.08234
2.06175
2.04129
2.02101
2.00099
1.98133
1.96225
1.94358
1.9255
0.013733
0.0358236
0.0475058
0.055939
0.0631651
0.069905
0.0765032
0.0831435
0.0899207
0.0968757
0.104017
0.111335
0.118815
0.126439
0.134194
0.142071
0.150065
0.158177
0.166411
0.174774
0.183279
0.19194
0.200778
0.209813
0.219074
0.228592
0.238405
0.248556
0.259091
0.27006
0.281514
0.293501
0.306065
0.319238
0.333035
0.347465
0.362531
0.378241
0.394592
0.411576
0.429177
0.447375
0.466144
0.485447
0.505255
0.525553
0.546346
0.567642
0.589445
0.611761
0.63459
0.657935
0.681794
0.706169
0.73106
0.756465
0.782383
0.808814
0.835755
0.863204
0.891158
0.919612
0.948561
0.978
1.00792
1.03832
1.06918
1.1005
1.13226
1.16445
1.19706
1.23007
1.26347
1.29723
1.33134
1.36578
1.40053
1.43556
1.47085
1.50638
1.54212
1.57805
1.61413
1.65035
1.68668
1.72308
1.75953
1.79601
1.83248
1.86892
1.9053
1.94159
1.97777
2.01379
2.04965
2.08531
2.12074
2.15591
2.19068
2.22504
2.25896
2.29243
2.3254
2.35784
2.38972
2.42099
2.45162
2.48156
2.51078
2.53924
2.5669
2.59373
2.61969
2.64475
2.66887
2.69203
2.71419
2.73533
2.75541
2.77441
2.79232
2.8091
2.82474
2.83922
2.85252
2.86464
2.87555
2.88526
2.89375
2.90101
2.90704
2.91185
2.91543
2.91779
2.91893
2.91885
2.91758
2.91512
2.91148
2.90668
2.90075
2.89369
2.88553
2.8763
2.86602
2.85471
2.84241
2.82915
2.81496
2.79986
2.78392
2.76714
2.74954
2.73122
2.71219
2.69242
2.6721
2.6512
2.62978
2.60789
2.58556
2.56285
2.5398
2.51647
2.49292
2.46924
2.44551
2.42173
2.3979
2.37403
2.35018
2.32639
2.30273
2.27926
2.25608
2.23335
2.21122
2.19
2.16966
2.15039
0.0168895
0.0415881
0.0545505
0.0638354
0.0716916
0.0789142
0.0858869
0.0928214
0.0998369
0.106997
0.11433
0.121844
0.129535
0.137395
0.145419
0.153602
0.161944
0.17045
0.179128
0.187991
0.197056
0.206343
0.215876
0.225683
0.235794
0.246243
0.25707
0.268313
0.280016
0.292221
0.304968
0.318292
0.332224
0.346787
0.361994
0.377851
0.394358
0.411515
0.429318
0.447758
0.466823
0.486501
0.506776
0.527629
0.549045
0.571016
0.59354
0.616621
0.640263
0.664471
0.689248
0.714598
0.740524
0.767028
0.794113
0.821781
0.850032
0.878866
0.908284
0.938284
0.968865
1.00002
1.03176
1.06406
1.09692
1.13034
1.1643
1.1988
1.23382
1.26935
1.30538
1.34188
1.37884
1.41624
1.45406
1.49227
1.53085
1.56977
1.60901
1.64855
1.68834
1.72836
1.76858
1.80897
1.84949
1.89012
1.93082
1.97155
2.0123
2.05302
2.09367
2.13424
2.17468
2.21496
2.25506
2.29492
2.33452
2.3738
2.41262
2.45098
2.48885
2.5262
2.56299
2.59918
2.63473
2.66958
2.70371
2.73705
2.76958
2.80124
2.832
2.86181
2.89063
2.91844
2.94518
2.97083
2.99535
3.01871
3.04088
3.06184
3.08154
3.09999
3.11714
3.13299
3.14751
3.1607
3.17253
3.18301
3.19211
3.19984
3.2062
3.21118
3.21478
3.21702
3.21789
3.21741
3.21558
3.21244
3.20798
3.20223
3.1952
3.18694
3.17745
3.16677
3.15491
3.14192
3.12784
3.1127
3.09651
3.07932
3.0612
3.04217
3.02219
3.00147
2.97997
2.95773
2.93484
2.91132
2.88722
2.8626
2.83751
2.81198
2.78609
2.75987
2.7334
2.70675
2.67999
2.65315
2.62626
2.59935
2.57247
2.54568
2.51908
2.49275
2.46682
2.44148
2.41695
2.39355
2.37126
2.35021
0.0195602
0.046464
0.0605172
0.0705418
0.0789504
0.0865963
0.0938937
0.101076
0.108283
0.115596
0.123062
0.130705
0.138534
0.146552
0.154759
0.163158
0.171755
0.180557
0.189577
0.198831
0.208339
0.218124
0.228214
0.238636
0.249424
0.260611
0.272233
0.284328
0.296931
0.310079
0.323803
0.338132
0.353088
0.368689
0.384946
0.401864
0.419446
0.437691
0.456594
0.476152
0.496358
0.517204
0.538683
0.560785
0.583505
0.606837
0.630783
0.655345
0.680528
0.706338
0.73278
0.759861
0.787586
0.81596
0.844988
0.874673
0.90502
0.936031
0.967708
1.00005
1.03306
1.06674
1.10107
1.13607
1.17171
1.20801
1.24494
1.28249
1.32066
1.35942
1.39877
1.43868
1.47913
1.52011
1.56158
1.60352
1.6459
1.68869
1.73186
1.77539
1.81922
1.86334
1.9077
1.95227
1.997
2.04187
2.08683
2.13185
2.17689
2.22191
2.26686
2.31173
2.35646
2.40101
2.44535
2.48944
2.53325
2.5766
2.61946
2.66181
2.70361
2.74483
2.78541
2.82532
2.8645
2.90291
2.94048
2.97719
3.01297
3.04777
3.08156
3.11429
3.14592
3.1764
3.20569
3.23376
3.26056
3.28607
3.31024
3.33306
3.35449
3.3745
3.39308
3.4102
3.42586
3.44002
3.45269
3.46384
3.47348
3.48159
3.48818
3.49325
3.4968
3.49883
3.49936
3.4984
3.49596
3.49206
3.48672
3.47996
3.4718
3.46227
3.45141
3.43924
3.42579
3.41108
3.3952
3.37815
3.35996
3.34065
3.32037
3.2991
3.27687
3.25378
3.22986
3.20515
3.17971
3.1536
3.12686
3.09955
3.07172
3.04343
3.01473
2.98567
2.95633
2.92677
2.89706
2.86725
2.83738
2.8075
2.77767
2.74798
2.71851
2.6894
2.66078
2.63288
2.60593
2.58022
2.55575
2.53256
0.0217925
0.0504862
0.0654304
0.0760685
0.0849397
0.0929415
0.10051
0.107895
0.11525
0.122673
0.130225
0.137944
0.14585
0.153958
0.162277
0.170815
0.179581
0.18859
0.197855
0.207396
0.217235
0.227396
0.237908
0.248798
0.260099
0.271844
0.284064
0.296794
0.310064
0.323904
0.338343
0.353403
0.369103
0.385458
0.40248
0.420176
0.438548
0.4576
0.477331
0.497741
0.518828
0.54059
0.563025
0.586132
0.609909
0.634358
0.659482
0.685286
0.711777
0.738963
0.766852
0.795452
0.824772
0.854819
0.885601
0.917126
0.949398
0.982424
1.01621
1.05075
1.08605
1.12212
1.15895
1.19653
1.23487
1.27396
1.31378
1.35432
1.39558
1.43754
1.48017
1.52347
1.5674
1.61193
1.65705
1.70273
1.74892
1.7956
1.84273
1.89027
1.93819
1.98643
2.03497
2.08375
2.13274
2.18189
2.23116
2.2805
2.32987
2.37922
2.42852
2.47771
2.52675
2.57561
2.62422
2.67255
2.72052
2.76797
2.81487
2.86121
2.90693
2.952
2.99635
3.03995
3.08273
3.12464
3.16563
3.20563
3.2446
3.28249
3.31925
3.35483
3.38917
3.42225
3.454
3.4844
3.5134
3.54096
3.56705
3.59163
3.61468
3.63617
3.65608
3.67438
3.69106
3.70611
3.71951
3.73125
3.74132
3.74973
3.75646
3.76153
3.76494
3.76669
3.7668
3.76529
3.76216
3.75745
3.75116
3.74334
3.73398
3.72315
3.71088
3.69719
3.6821
3.66564
3.64793
3.62897
3.6088
3.58747
3.56504
3.54156
3.51707
3.49163
3.46531
3.43814
3.41019
3.38152
3.35217
3.32221
3.29169
3.26067
3.22921
3.19736
3.1652
3.13279
3.1002
3.06749
3.03471
3.00193
2.96923
2.93669
2.90443
2.87258
2.84132
2.81085
2.78143
2.75334
2.72649
2.70093
0.0235823
0.0536886
0.0693291
0.080451
0.0896888
0.0979726
0.105754
0.113293
0.120755
0.128247
0.135844
0.143593
0.151528
0.159671
0.16804
0.176648
0.185511
0.194645
0.204068
0.213801
0.223866
0.234288
0.245095
0.256315
0.267979
0.280115
0.292754
0.305925
0.319657
0.333976
0.348906
0.364468
0.380679
0.397556
0.41511
0.433349
0.452282
0.471914
0.49225
0.513292
0.535046
0.557515
0.580701
0.604609
0.629243
0.654611
0.680717
0.707573
0.735186
0.763569
0.792732
0.822686
0.853444
0.885016
0.917413
0.950645
0.98472
1.01965
1.05543
1.09208
1.12959
1.16798
1.20723
1.24735
1.28833
1.33016
1.37285
1.41636
1.4607
1.50584
1.55176
1.59844
1.64586
1.69398
1.74278
1.79221
1.84225
1.89285
1.94397
1.99557
2.0476
2.10002
2.15277
2.20581
2.25908
2.31254
2.36614
2.41982
2.47355
2.52725
2.5809
2.63443
2.6878
2.74095
2.79384
2.84642
2.89847
2.94997
3.00088
3.05115
3.10074
3.1496
3.19766
3.24488
3.29118
3.33651
3.38081
3.42402
3.46608
3.50695
3.54656
3.58486
3.62181
3.65736
3.69145
3.72405
3.75512
3.78461
3.81248
3.8387
3.86324
3.88608
3.90718
3.92653
3.94412
3.95993
3.97394
3.98616
3.99656
4.00515
4.01192
4.01689
4.02006
4.02145
4.02106
4.01891
4.01502
4.00943
4.00215
3.9932
3.9826
3.97042
3.9567
3.94147
3.92475
3.9066
3.88707
3.86623
3.84409
3.82072
3.79618
3.77052
3.74379
3.71605
3.68736
3.65778
3.62736
3.59618
3.56427
3.53172
3.49856
3.46488
3.43072
3.39615
3.36124
3.32605
3.29066
3.25513
3.21953
3.18394
3.14844
3.11314
3.07815
3.04362
3.00974
2.97673
2.94482
2.91426
2.88493
2.85688
0.0249394
0.0561191
0.0722725
0.0837512
0.0932582
0.101747
0.109679
0.117322
0.124846
0.132369
0.139972
0.147713
0.155634
0.163765
0.172131
0.180752
0.189646
0.198834
0.208335
0.218171
0.228365
0.238942
0.249927
0.26135
0.273236
0.285614
0.298511
0.311955
0.325971
0.340583
0.355815
0.371686
0.388215
0.405418
0.423309
0.441901
0.461205
0.48123
0.501987
0.523483
0.545728
0.568731
0.5925
0.617046
0.642377
0.668505
0.695442
0.723201
0.751796
0.781241
0.81155
0.84274
0.874825
0.907819
0.941737
0.976591
1.01239
1.04916
1.08689
1.12559
1.16528
1.20595
1.2476
1.29023
1.33385
1.37844
1.42399
1.47048
1.51792
1.56626
1.6155
1.6656
1.71654
1.76828
1.82078
1.87401
1.92793
1.98248
2.03763
2.09332
2.14949
2.2061
2.26308
2.32039
2.37795
2.43572
2.49364
2.55166
2.60971
2.66774
2.72569
2.78352
2.84116
2.89856
2.95566
3.01233
3.0684
3.12386
3.17866
3.23276
3.28609
3.33861
3.39025
3.44093
3.49061
3.5392
3.58665
3.63289
3.67788
3.72154
3.76382
3.80467
3.84404
3.88186
3.91811
3.95273
3.98568
4.01691
4.04639
4.07407
4.09992
4.12393
4.14606
4.1663
4.18463
4.20104
4.21552
4.22807
4.23866
4.2473
4.254
4.25875
4.26158
4.2625
4.26151
4.25865
4.25393
4.24739
4.23905
4.22894
4.2171
4.20357
4.1884
4.17163
4.15329
4.13344
4.11213
4.08942
4.06535
4.03999
4.01338
3.98559
3.95667
3.92669
3.89571
3.86378
3.83098
3.79736
3.76299
3.72792
3.69223
3.65597
3.61921
3.58202
3.54445
3.50659
3.4685
3.43027
3.39196
3.35366
3.31547
3.27749
3.23986
3.20274
3.1663
3.13078
3.09638
3.06332
3.03146
3.00087
0.0258874
0.0578399
0.0743377
0.0860536
0.0957357
0.104353
0.112372
0.120064
0.127606
0.13512
0.142692
0.150389
0.158257
0.166336
0.174653
0.183235
0.192104
0.20128
0.210787
0.220646
0.23088
0.241514
0.252572
0.26408
0.276065
0.288552
0.301567
0.315136
0.329283
0.344033
0.359407
0.375427
0.392112
0.409482
0.427554
0.446343
0.465865
0.486135
0.507167
0.528976
0.551576
0.574982
0.599207
0.624268
0.650179
0.676958
0.70462
0.733184
0.762669
0.793092
0.824473
0.856832
0.890186
0.924555
0.959955
0.996403
1.03391
1.0725
1.11217
1.15294
1.19481
1.23779
1.28187
1.32706
1.37335
1.42073
1.46919
1.51872
1.5693
1.6209
1.6735
1.72707
1.78157
1.83697
1.89322
1.95028
2.00811
2.06664
2.12582
2.1856
2.24592
2.3067
2.3679
2.42943
2.49124
2.55326
2.61543
2.67769
2.73998
2.80224
2.86439
2.92639
2.98818
3.04968
3.11083
3.17137
3.23127
3.29049
3.34899
3.40669
3.46355
3.5195
3.57447
3.6284
3.68119
3.73279
3.78313
3.83215
3.87978
3.92597
3.97066
4.01379
4.0553
4.09514
4.13328
4.16965
4.20422
4.23696
4.26779
4.29669
4.32362
4.34857
4.37151
4.39242
4.41129
4.42811
4.44287
4.45558
4.4662
4.47473
4.4812
4.48561
4.48797
4.48831
4.48665
4.48299
4.47738
4.46985
4.46042
4.44913
4.43603
4.42114
4.40453
4.38623
4.3663
4.34478
4.32173
4.29721
4.27127
4.24397
4.21537
4.18554
4.15452
4.1224
4.08922
4.05506
4.01998
3.98405
3.94733
3.90988
3.87178
3.83308
3.79385
3.75417
3.71409
3.6737
3.63306
3.59227
3.55139
3.51053
3.46978
3.42926
3.3891
3.34948
3.31058
3.27261
3.23577
3.20024
3.16587
3.13276
0.0264628
0.0589256
0.0756168
0.0874603
0.0972289
0.1059
0.113943
0.121632
0.129146
0.136609
0.144115
0.151731
0.159513
0.167501
0.175729
0.184225
0.193016
0.202124
0.211571
0.22138
0.231575
0.242178
0.253213
0.264706
0.27668
0.289162
0.302176
0.315747
0.3299
0.344659
0.360048
0.376089
0.392806
0.41022
0.428351
0.447221
0.46685
0.487258
0.508465
0.530492
0.553358
0.577084
0.601691
0.627199
0.653631
0.681008
0.709352
0.738687
0.769036
0.800422
0.832869
0.866401
0.90104
0.936807
0.973725
1.01181
1.05108
1.09156
1.13325
1.17616
1.2203
1.26567
1.31227
1.36011
1.40916
1.45943
1.5109
1.56354
1.61735
1.67228
1.72832
1.78542
1.84354
1.90263
1.96266
2.02357
2.0853
2.1478
2.21099
2.27482
2.33923
2.40412
2.46943
2.53509
2.60102
2.66715
2.73342
2.79975
2.86609
2.93236
2.9985
3.06445
3.13015
3.19553
3.2603
3.32443
3.38785
3.45052
3.51238
3.57335
3.63339
3.69242
3.75037
3.80717
3.86272
3.91696
3.96981
4.02122
4.07113
4.11947
4.16618
4.21121
4.25451
4.29601
4.33567
4.37345
4.4093
4.44322
4.4751
4.5049
4.53261
4.5582
4.58167
4.60299
4.62215
4.63914
4.65396
4.6666
4.67705
4.68531
4.6914
4.69533
4.69712
4.69679
4.69435
4.68983
4.68328
4.6747
4.66416
4.65167
4.63729
4.62106
4.60303
4.58325
4.56176
4.53863
4.51391
4.48766
4.45994
4.43081
4.40034
4.36857
4.33559
4.30146
4.26624
4.22999
4.19279
4.15471
4.11581
4.07615
4.03581
3.99485
3.95334
3.91134
3.86894
3.8262
3.7832
3.74003
3.69677
3.65352
3.61039
3.56749
3.52497
3.483
3.44176
3.40145
3.36226
3.32434
3.28753
3.25198
0.026712
0.0594596
0.0762114
0.0880846
0.0978587
0.106513
0.11452
0.122154
0.129594
0.136967
0.144369
0.151872
0.159532
0.167394
0.175495
0.183866
0.192532
0.201519
0.21085
0.220546
0.230632
0.241129
0.252061
0.263453
0.275328
0.287712
0.30063
0.314108
0.328171
0.342845
0.358157
0.374132
0.390795
0.408173
0.426292
0.445177
0.464853
0.485348
0.506687
0.528898
0.552006
0.576039
0.601025
0.626991
0.653964
0.681971
0.711041
0.741203
0.772484
0.804914
0.83852
0.873329
0.909368
0.946662
0.985234
1.02511
1.0663
1.10882
1.1527
1.19793
1.24451
1.29246
1.34175
1.3924
1.44438
1.49769
1.5523
1.6082
1.66535
1.72372
1.78327
1.84396
1.90574
1.96856
2.03237
2.09709
2.16268
2.22907
2.29617
2.36394
2.43228
2.50113
2.57037
2.63993
2.70973
2.7797
2.84978
2.91988
2.98994
3.05989
3.12967
3.1992
3.26844
3.33709
3.40507
3.47233
3.53881
3.60444
3.66917
3.73291
3.79562
3.85721
3.91765
3.97684
4.03463
4.09097
4.14583
4.19912
4.25079
4.30078
4.34903
4.39548
4.44008
4.48277
4.5235
4.56224
4.59894
4.63357
4.66607
4.69639
4.72452
4.75043
4.77411
4.79554
4.81472
4.83162
4.84625
4.8586
4.86868
4.87649
4.88204
4.88535
4.88643
4.88531
4.88201
4.87656
4.869
4.85936
4.84767
4.83399
4.81835
4.8008
4.78139
4.76019
4.73723
4.71258
4.68629
4.65843
4.62906
4.59824
4.56604
4.53251
4.49774
4.46177
4.4247
4.38657
4.34746
4.30743
4.26656
4.22492
4.18256
4.13957
4.09601
4.05194
4.00745
3.96259
3.91747
3.87216
3.82675
3.78133
3.73603
3.69097
3.64629
3.60215
3.55873
3.51624
3.47484
3.43467
3.39555
3.35769
0.0266903
0.0595313
0.0762291
0.0880459
0.0977525
0.106327
0.114241
0.121768
0.129089
0.136334
0.143597
0.150953
0.158461
0.166166
0.174107
0.182315
0.190817
0.199639
0.208805
0.218336
0.228257
0.238589
0.249356
0.260583
0.272295
0.284518
0.297278
0.310603
0.324521
0.339061
0.354252
0.370123
0.386706
0.404032
0.42213
0.441034
0.460774
0.481385
0.502899
0.525351
0.548776
0.573208
0.598682
0.625231
0.65289
0.681689
0.711662
0.742844
0.775268
0.808967
0.843972
0.880313
0.918019
0.957117
0.99763
1.03958
1.08299
1.12787
1.17424
1.2221
1.27143
1.32223
1.37449
1.4282
1.48335
1.53991
1.59786
1.65716
1.71779
1.77969
1.84283
1.90714
1.97258
2.03909
2.10659
2.17503
2.24432
2.3144
2.3852
2.45663
2.52864
2.60115
2.67396
2.74702
2.82028
2.89364
2.96705
3.04042
3.11369
3.1868
3.25967
3.33223
3.40418
3.47546
3.546
3.61574
3.68461
3.75253
3.81944
3.88527
3.94994
4.01339
4.07556
4.13635
4.19568
4.25346
4.30965
4.36418
4.41698
4.468
4.51718
4.56445
4.60978
4.6531
4.69437
4.73355
4.7706
4.80547
4.83813
4.86854
4.89667
4.92251
4.94604
4.96724
4.9861
5.00261
5.01679
5.02861
5.0381
5.04525
5.05008
5.0526
5.05285
5.05083
5.04658
5.04014
5.03153
5.02079
5.00797
4.9931
4.97624
4.95744
4.93674
4.9142
4.88988
4.86384
4.83613
4.80682
4.77598
4.74366
4.70993
4.67485
4.63851
4.60095
4.56226
4.5225
4.48174
4.44004
4.39748
4.35412
4.31004
4.2653
4.21997
4.17412
4.12782
4.08115
4.03418
3.98702
3.93973
3.89244
3.84524
3.79827
3.75167
3.7056
3.66024
3.61577
3.57235
3.53012
3.48889
3.44889
0.0264597
0.0592325
0.0757778
0.0874633
0.097038
0.105474
0.113243
0.120617
0.127779
0.134858
0.141951
0.149131
0.156458
0.163978
0.17173
0.179745
0.188053
0.196677
0.205643
0.214973
0.224692
0.234824
0.245392
0.256424
0.267945
0.279986
0.292574
0.305741
0.319518
0.333939
0.349038
0.364851
0.381415
0.398766
0.416943
0.435983
0.455926
0.476813
0.498686
0.521589
0.545565
0.570658
0.596912
0.62437
0.653064
0.683026
0.714298
0.746916
0.78092
0.816343
0.85322
0.891578
0.931447
0.97285
1.01581
1.06034
1.10646
1.15418
1.20352
1.25451
1.30704
1.3611
1.41669
1.4738
1.53239
1.59245
1.65393
1.71679
1.78099
1.84646
1.91317
1.98104
2.05001
2.12001
2.19098
2.26283
2.33548
2.40886
2.48289
2.55747
2.63254
2.70799
2.78372
2.85963
2.93565
3.0117
3.0877
3.1636
3.23931
3.3148
3.3899
3.46438
3.53817
3.61121
3.68342
3.75474
3.82508
3.89438
3.96257
4.02957
4.09532
4.15975
4.22278
4.28434
4.34435
4.40274
4.45945
4.51441
4.56756
4.61885
4.66822
4.71561
4.76098
4.80427
4.84544
4.88445
4.92126
4.95583
4.98813
5.01813
5.0458
5.07112
5.09408
5.11466
5.13286
5.14867
5.16209
5.17312
5.18178
5.18806
5.19199
5.19359
5.19287
5.18986
5.1846
5.17711
5.16743
5.15561
5.14168
5.12569
5.10769
5.08772
5.06585
5.04212
5.0166
4.98935
4.96041
4.92987
4.89777
4.8642
4.8292
4.79285
4.75522
4.71637
4.67636
4.63528
4.59319
4.55015
4.50623
4.4615
4.41603
4.36989
4.32314
4.27585
4.2281
4.17996
4.1315
4.08282
4.03401
3.98516
3.93639
3.88782
3.8396
3.79189
3.74486
3.69868
3.6535
3.60944
3.56634
3.52444
0.02607
0.0586338
0.0749369
0.086421
0.0958015
0.104043
0.111614
0.118788
0.125749
0.132625
0.139513
0.146487
0.153605
0.160914
0.168451
0.17625
0.184339
0.192744
0.201492
0.210608
0.220117
0.230046
0.240423
0.251277
0.26264
0.274545
0.287027
0.300121
0.313865
0.3283
0.343468
0.359414
0.376185
0.393829
0.412388
0.431905
0.452432
0.474019
0.49672
0.520587
0.545674
0.572037
0.599734
0.628836
0.659339
0.691262
0.724657
0.759568
0.796032
0.834081
0.873743
0.915039
0.957988
1.0026
1.0489
1.09687
1.14652
1.19786
1.25086
1.30552
1.36179
1.41962
1.47901
1.53989
1.60225
1.66603
1.73119
1.79767
1.86541
1.93435
2.00443
2.07558
2.14773
2.2208
2.29472
2.3694
2.44477
2.52074
2.59722
2.67414
2.75141
2.82893
2.90662
2.98439
3.06215
3.13984
3.21739
3.29474
3.3718
3.44833
3.52423
3.59944
3.67387
3.74745
3.82011
3.89178
3.9624
4.03188
4.10015
4.16716
4.23283
4.2971
4.35989
4.42114
4.48077
4.53872
4.59494
4.64935
4.7019
4.75254
4.80121
4.84786
4.89244
4.9349
4.97522
5.01334
5.04922
5.08284
5.11417
5.14318
5.16983
5.19413
5.21604
5.23557
5.2527
5.26743
5.27976
5.2897
5.29726
5.30245
5.30528
5.30578
5.30396
5.29986
5.29351
5.28493
5.27418
5.26128
5.24629
5.22924
5.21018
5.18918
5.16627
5.14153
5.11499
5.08673
5.05679
5.02526
4.99218
4.95762
4.92165
4.88433
4.84573
4.80591
4.76495
4.7229
4.67983
4.63581
4.59091
4.54519
4.49871
4.45155
4.40377
4.35544
4.30661
4.25738
4.20782
4.158
4.10802
4.05798
4.00799
3.95818
3.90868
3.85964
3.81124
3.76363
3.71697
3.67137
3.62667
3.58314
0.0256665
0.0579135
0.0739079
0.0851359
0.0942736
0.102277
0.109614
0.116559
0.123295
0.129951
0.136622
0.143382
0.150287
0.157386
0.164716
0.172313
0.180205
0.188425
0.196999
0.205959
0.215335
0.22516
0.235468
0.246296
0.257683
0.26967
0.282304
0.295633
0.3097
0.324555
0.340254
0.356857
0.374432
0.39306
0.412764
0.433581
0.455586
0.478843
0.503416
0.529365
0.556747
0.585619
0.616034
0.648036
0.681654
0.716911
0.753835
0.792452
0.832782
0.874837
0.918626
0.96415
1.01141
1.06038
1.11107
1.16344
1.21747
1.27315
1.33042
1.38927
1.44963
1.51145
1.5747
1.63931
1.70523
1.77242