/*--------------------------------*- C++ -*----------------------------------*\
  =========                 |
  \\      /  F ield         | OpenFOAM: The Open Source CFD Toolbox
   \\    /   O peration     | Website:  https://openfoam.org
    \\  /    A nd           | Version:  9
     \\/     M anipulation  |
\*---------------------------------------------------------------------------*/
FoamFile
{
    format      ascii;
    class       volScalarField;
    location    "0.2";
    object      p;
}
// * * * * * * * * * * * * * * * * * * * * * * * * * * * * * * * * * * * * * //

dimensions      [0 2 -2 0 0 0 0];

internalField   nonuniform List<scalar> 
12225
(
-1.12178
-3.40479
-4.56728
-4.87551
-5.04383
-5.20363
-5.32831
-5.41683
-5.48657
-5.54772
-5.6021
-5.64952
-5.69029
-5.72373
-5.7487
-5.75488
-5.75194
-5.64382
-4.58928
-5.2914
-5.38166
-5.24665
-5.20665
-5.27402
-5.35487
-5.42085
-5.478
-5.53155
-5.5813
-5.62609
-5.66562
-5.69901
-5.72583
-5.73905
-5.75152
-5.73606
-4.79403
-4.69108
-4.84789
-4.97007
-5.07751
-5.19991
-5.30832
-5.39112
-5.45848
-5.5185
-5.57286
-5.62133
-5.66406
-5.70078
-5.73192
-5.75436
-5.78241
-5.81489
-4.65674
-4.57862
-4.85471
-5.03349
-5.12802
-5.22526
-5.32049
-5.39819
-5.46295
-5.52136
-5.57487
-5.62314
-5.66631
-5.70451
-5.73878
-5.76917
-5.8074
-5.85975
-4.6637
-4.68097
-4.92108
-5.07104
-5.14716
-5.23197
-5.3217
-5.39793
-5.46207
-5.52001
-5.57341
-5.62209
-5.66629
-5.70659
-5.74445
-5.7816
-5.82664
-5.88639
-4.72539
-4.76786
-4.94568
-5.07647
-5.15454
-5.23718
-5.32362
-5.39863
-5.46244
-5.52015
-5.57358
-5.62276
-5.66809
-5.71041
-5.75142
-5.79343
-5.84255
-5.90422
-4.78513
-4.82466
-4.96109
-5.08336
-5.16583
-5.24566
-5.32747
-5.4005
-5.46376
-5.52118
-5.57459
-5.62423
-5.67059
-5.71469
-5.75823
-5.80349
-5.85469
-5.91537
-4.83828
-4.87318
-4.98351
-5.0962
-5.17883
-5.25485
-5.33193
-5.40278
-5.46538
-5.52246
-5.5758
-5.62585
-5.67313
-5.7187
-5.76411
-5.81131
-5.86308
-5.92132
-4.88806
-4.9198
-5.01062
-5.11148
-5.19163
-5.26421
-5.3371
-5.40561
-5.46733
-5.52397
-5.57716
-5.62748
-5.67548
-5.72212
-5.76873
-5.81681
-5.86809
-5.92336
-4.93542
-4.96405
-5.03925
-5.12821
-5.20467
-5.27416
-5.34321
-5.40919
-5.46974
-5.52578
-5.57869
-5.6291
-5.67754
-5.72482
-5.772
-5.82015
-5.87027
-5.92248
-4.98019
-5.00548
-5.0683
-5.14641
-5.21837
-5.28475
-5.35021
-5.41351
-5.47265
-5.52794
-5.58041
-5.63069
-5.67926
-5.72676
-5.77397
-5.82159
-5.87017
-5.91948
-5.01869
-5.04103
-5.09489
-5.1642
-5.23153
-5.2949
-5.35728
-5.41811
-5.47578
-5.53021
-5.58212
-5.63208
-5.68049
-5.72784
-5.77469
-5.82148
-5.86849
-5.91534
-5.05438
-5.07419
-5.12073
-5.1823
-5.24493
-5.30523
-5.36471
-5.42313
-5.47923
-5.53267
-5.58391
-5.63337
-5.68141
-5.72835
-5.77458
-5.82034
-5.86574
-5.91037
-5.0919
-5.10921
-5.14902
-5.20304
-5.26044
-5.31719
-5.37354
-5.42931
-5.48351
-5.53568
-5.58597
-5.63468
-5.68203
-5.72824
-5.77351
-5.81793
-5.86151
-5.90387
-5.13001
-5.14492
-5.17878
-5.22582
-5.27776
-5.33058
-5.38363
-5.43655
-5.48858
-5.53916
-5.5882
-5.63583
-5.68217
-5.72728
-5.77125
-5.81407
-5.85569
-5.89581
-5.16677
-5.17952
-5.2084
-5.24933
-5.29602
-5.34478
-5.39446
-5.44448
-5.49414
-5.54284
-5.59034
-5.63658
-5.68156
-5.72525
-5.76764
-5.80868
-5.84829
-5.88626
-5.19929
-5.2103
-5.23528
-5.27131
-5.31343
-5.35843
-5.40493
-5.45218
-5.49945
-5.54614
-5.59188
-5.6365
-5.67987
-5.72192
-5.76257
-5.80175
-5.83939
-5.87536
-5.22322
-5.23302
-5.25541
-5.28809
-5.32694
-5.36908
-5.41306
-5.45802
-5.50323
-5.54806
-5.59209
-5.63505
-5.67677
-5.71715
-5.75607
-5.79347
-5.8293
-5.86348
-5.23159
-5.24094
-5.26241
-5.29394
-5.33163
-5.37262
-5.41543
-5.45921
-5.50322
-5.54684
-5.58961
-5.63126
-5.67161
-5.71056
-5.74801
-5.78391
-5.81824
-5.85098
-5.21659
-5.22665
-5.24963
-5.28326
-5.32305
-5.36564
-5.40949
-5.45394
-5.49835
-5.54209
-5.58472
-5.62601
-5.66583
-5.70412
-5.74081
-5.77589
-5.80935
-5.84122
-5.19038
-5.20156
-5.22734
-5.26506
-5.30881
-5.35436
-5.40039
-5.44658
-5.4923
-5.53686
-5.57992
-5.62137
-5.66118
-5.69929
-5.73569
-5.77039
-5.80344
-5.83487
-5.15541
-5.16779
-5.19782
-5.24228
-5.29176
-5.34088
-5.3896
-5.43828
-5.48597
-5.5318
-5.57559
-5.61746
-5.65747
-5.69561
-5.7319
-5.76642
-5.79922
-5.83039
-5.11478
-5.12738
-5.16274
-5.21732
-5.27443
-5.32741
-5.37896
-5.43033
-5.48009
-5.52724
-5.5719
-5.61436
-5.65472
-5.693
-5.72929
-5.76373
-5.7964
-5.82742
-5.07094
-5.0825
-5.12487
-5.19147
-5.25615
-5.31377
-5.36965
-5.42431
-5.47579
-5.52383
-5.56915
-5.61211
-5.65274
-5.69111
-5.72739
-5.76175
-5.79431
-5.82519
-5.02407
-5.03183
-5.09286
-5.17263
-5.23774
-5.29738
-5.35925
-5.41879
-5.47252
-5.52153
-5.56753
-5.61097
-5.65183
-5.69023
-5.72645
-5.7607
-5.79315
-5.82396
-4.97611
-4.95246
-5.06324
-5.17216
-5.2327
-5.28676
-5.35015
-5.41247
-5.46771
-5.51767
-5.56448
-5.60852
-5.6497
-5.68825
-5.72451
-5.75876
-5.79118
-5.82194
-4.9668
-4.82246
-4.98148
-5.14765
-5.23211
-5.29309
-5.35783
-5.41894
-5.47262
-5.52169
-5.56803
-5.61162
-5.65235
-5.69046
-5.7263
-5.76015
-5.79227
-5.82282
-5.1122
-4.8284
-4.86311
-4.99353
-5.11307
-5.22002
-5.31402
-5.38971
-5.45188
-5.50703
-5.55768
-5.60417
-5.64685
-5.68633
-5.72314
-5.75767
-5.79041
-5.82202
-5.049
-5.54868
-5.55878
-5.39949
-5.31846
-5.34261
-5.39668
-5.44601
-5.49103
-5.53549
-5.57903
-5.62035
-5.65909
-5.69546
-5.72964
-5.76175
-5.79204
-5.82236
-1.71032
-3.58087
-4.65212
-4.94513
-5.07992
-5.21661
-5.32845
-5.40836
-5.47123
-5.52715
-5.57834
-5.6249
-5.66737
-5.70652
-5.74275
-5.77607
-5.80616
-5.83122
-6.7248
-6.7248
-6.72517
-6.72587
-6.72682
-6.72797
-6.72936
-6.73097
-6.73284
-6.73498
-6.73741
-6.74016
-6.74327
-6.74678
-6.75072
-6.75512
-6.76003
-6.76549
-6.77151
-6.77816
-6.78545
-6.79344
-6.80216
-6.81165
-6.82197
-6.83317
-6.84529
-6.8584
-6.87254
-6.88782
-6.90434
-6.92179
-6.93969
-6.95889
-6.98097
-7.00709
-7.03346
-7.04873
-7.07184
-7.09822
-7.12945
-7.15868
-7.17178
-7.19359
-7.22056
-7.24858
-7.27708
-7.30647
-7.33651
-7.3671
-7.3981
-7.42942
-7.46093
-7.49252
-7.5241
-7.55556
-7.58677
-7.61765
-7.64805
-7.67788
-7.70699
-7.73527
-7.76256
-7.78874
-7.81364
-7.83713
-7.85904
-7.8792
-7.89746
-7.91363
-7.92754
-7.939
-7.94785
-7.95388
-7.95692
-7.95677
-7.95324
-7.94615
-7.9353
-7.92051
-7.90158
-7.87833
-7.85059
-7.81817
-7.78089
-7.73859
-7.6911
-7.63825
-7.5799
-7.51589
-7.44608
-7.37034
-7.28853
-7.20055
-7.10627
-7.00562
-6.89857
-6.78512
-6.66525
-6.53872
-6.4053
-6.26479
-6.11735
-5.96304
-5.80189
-5.63391
-5.45915
-5.27763
-5.08942
-4.8946
-4.69325
-4.48548
-4.27142
-4.0512
-3.82498
-3.59292
-3.35521
-3.11204
-2.86363
-2.61019
-2.35197
-2.08922
-1.82219
-1.55115
-1.27639
-0.998181
-0.71683
-0.432634
-0.145901
0.143057
0.433923
0.726381
1.02011
1.31479
1.6101
1.90573
2.20135
2.49667
2.79137
3.08515
3.37772
3.66879
3.9581
4.24536
4.53033
4.81275
5.0924
5.36904
5.64246
5.91247
6.17888
6.44152
6.70022
6.95483
7.20522
7.45127
7.69286
7.92989
8.16228
8.38994
8.61281
8.83083
9.04397
9.2522
9.45549
9.6538
9.84696
10.0348
10.2174
10.3948
10.5669
10.7337
10.8954
11.0518
11.2032
11.3498
11.4925
11.6327
11.7795
11.9335
-6.7234
-6.72371
-6.72418
-6.72477
-6.72534
-6.72592
-6.72662
-6.72755
-6.72878
-6.73035
-6.73226
-6.73454
-6.73721
-6.74029
-6.7438
-6.74777
-6.75224
-6.75723
-6.76277
-6.7689
-6.77565
-6.78306
-6.79116
-6.79999
-6.80956
-6.81992
-6.83106
-6.843
-6.85575
-6.86926
-6.88333
-6.89799
-6.91397
-6.93156
-6.94982
-6.9664
-6.98031
-7.00619
-7.02928
-7.0524
-7.07184
-7.09019
-7.12668
-7.16301
-7.19508
-7.22478
-7.25471
-7.2849
-7.31539
-7.34619
-7.37726
-7.40855
-7.43997
-7.47146
-7.50291
-7.53424
-7.56534
-7.59611
-7.62643
-7.65619
-7.68526
-7.71352
-7.74084
-7.76706
-7.79205
-7.81566
-7.83772
-7.85808
-7.87657
-7.89301
-7.90723
-7.91905
-7.9283
-7.93477
-7.93829
-7.93867
-7.93571
-7.92924
-7.91905
-7.90496
-7.88678
-7.86434
-7.83744
-7.8059
-7.76957
-7.72825
-7.6818
-7.63004
-7.57283
-7.51002
-7.44147
-7.36703
-7.2866
-7.20004
-7.10725
-7.00811
-6.90252
-6.79036
-6.67148
-6.54567
-6.41304
-6.27386
-6.12794
-5.97522
-5.8157
-5.64937
-5.47627
-5.29642
-5.10988
-4.91673
-4.71705
-4.51095
-4.29853
-4.07995
-3.85535
-3.62488
-3.38874
-3.14712
-2.90022
-2.64827
-2.39149
-2.13014
-1.86447
-1.59474
-1.32124
-1.04425
-0.764057
-0.480966
-0.19528
0.0926886
0.382627
0.674218
0.967143
1.26108
1.55572
1.85074
2.14582
2.44065
2.73494
3.02837
3.32066
3.61151
3.90066
4.18782
4.47275
4.75519
5.03491
5.31167
5.58528
5.85551
6.1222
6.38515
6.6442
6.89921
7.15003
7.39654
7.63862
7.87617
8.10909
8.33732
8.56077
8.7794
8.99315
9.20201
9.40594
9.60487
9.79866
9.98719
10.1705
10.3485
10.5213
10.6889
10.8513
11.0086
11.161
11.3089
11.4534
11.5957
11.746
11.8939
-6.71974
-6.72086
-6.72203
-6.72306
-6.72378
-6.72434
-6.72494
-6.72571
-6.72674
-6.72809
-6.72979
-6.73186
-6.73434
-6.73723
-6.74057
-6.74439
-6.7487
-6.75355
-6.75895
-6.76495
-6.77157
-6.77885
-6.78682
-6.7955
-6.80494
-6.81515
-6.82616
-6.838
-6.85068
-6.86425
-6.87863
-6.8938
-6.91
-6.92746
-6.94592
-6.96479
-6.98393
-7.00587
-7.02924
-7.05259
-7.07607
-7.0989
-7.12576
-7.15427
-7.18299
-7.21176
-7.24103
-7.27072
-7.30075
-7.3311
-7.36169
-7.39249
-7.42341
-7.45439
-7.48534
-7.51618
-7.54681
-7.57712
-7.60702
-7.63638
-7.66509
-7.69302
-7.72004
-7.74601
-7.77079
-7.79423
-7.81617
-7.83645
-7.85491
-7.87138
-7.88567
-7.89763
-7.90706
-7.91377
-7.91759
-7.91833
-7.91579
-7.90979
-7.90014
-7.88665
-7.86913
-7.84741
-7.82129
-7.79061
-7.75518
-7.71483
-7.66941
-7.61874
-7.56268
-7.50108
-7.43378
-7.36067
-7.2816
-7.19646
-7.10513
-7.0075
-6.90345
-6.79285
-6.67559
-6.55167
-6.42098
-6.28362
-6.13952
-5.98866
-5.83102
-5.6666
-5.49541
-5.3175
-5.13291
-4.94171
-4.74398
-4.53983
-4.32936
-4.11271
-3.89002
-3.66146
-3.4272
-3.18743
-2.94235
-2.69218
-2.43715
-2.17751
-1.9135
-1.64538
-1.37344
-1.09796
-0.819212
-0.537508
-0.253146
0.0335656
0.322315
0.612787
0.904664
1.19763
1.49137
1.78556
2.07989
2.37406
2.66775
2.96066
3.2525
3.54299
3.83185
4.11879
4.40358
4.68594
4.96565
5.24248
5.5162
5.78663
6.05355
6.3168
6.57621
6.83161
7.08288
7.32988
7.57248
7.81059
8.04412
8.27296
8.49705
8.71632
8.93073
9.14023
9.34477
9.5443
9.73876
9.92807
10.1122
10.2911
10.4648
10.6333
10.7966
10.955
11.1086
11.2579
11.4044
11.5484
11.7013
11.839
-6.71429
-6.71619
-6.71843
-6.72032
-6.72163
-6.72259
-6.72345
-6.72438
-6.72549
-6.72686
-6.72855
-6.7306
-6.73304
-6.73589
-6.73919
-6.74296
-6.74723
-6.75202
-6.75738
-6.76332
-6.76988
-6.77709
-6.78497
-6.79357
-6.8029
-6.81299
-6.82386
-6.83554
-6.84806
-6.86143
-6.87566
-6.89078
-6.90685
-6.92397
-6.94208
-6.96108
-6.98107
-7.00226
-7.0247
-7.0479
-7.07192
-7.09672
-7.12277
-7.14981
-7.17747
-7.20565
-7.23436
-7.26351
-7.29305
-7.32291
-7.35305
-7.3834
-7.41389
-7.44445
-7.475
-7.50545
-7.53571
-7.56569
-7.59527
-7.62436
-7.65282
-7.68053
-7.70737
-7.73319
-7.75786
-7.78123
-7.80313
-7.82342
-7.84193
-7.85848
-7.87291
-7.88504
-7.89468
-7.90165
-7.90577
-7.90685
-7.9047
-7.89913
-7.88996
-7.87699
-7.86004
-7.83893
-7.81347
-7.78348
-7.7488
-7.70924
-7.66465
-7.61486
-7.55971
-7.49907
-7.43277
-7.36069
-7.28268
-7.19863
-7.10842
-7.01192
-6.90903
-6.79964
-6.68365
-6.56104
-6.43178
-6.29584
-6.15318
-6.00377
-5.84759
-5.68465
-5.51495
-5.33854
-5.15546
-4.96577
-4.76956
-4.56691
-4.35795
-4.1428
-3.9216
-3.69451
-3.4617
-3.22337
-2.9797
-2.73092
-2.47726
-2.21894
-1.95622
-1.68937
-1.41865
-1.14434
-0.866726
-0.586109
-0.302786
-0.0170639
0.270748
0.560335
0.851383
1.14357
1.43659
1.73013
2.02386
2.31748
2.61069
2.90318
3.19466
3.48485
3.77345
4.06021
4.34486
4.62715
4.90684
5.18369
5.4575
5.72805
5.99515
6.25862
6.51829
6.774
7.02561
7.27298
7.51599
7.75454
7.98851
8.21783
8.44242
8.66223
8.87718
9.08721
9.29227
9.49227
9.6872
9.87704
10.0617
10.2412
10.4155
10.5847
10.7487
10.9078
11.0623
11.2125
11.3599
11.504
11.6558
11.7813
-6.70838
-6.71112
-6.71453
-6.7174
-6.71946
-6.72099
-6.7223
-6.72357
-6.72494
-6.72652
-6.72837
-6.73055
-6.7331
-6.73606
-6.73945
-6.74331
-6.74766
-6.75254
-6.75797
-6.76399
-6.77062
-6.7779
-6.78586
-6.79452
-6.80392
-6.81408
-6.82504
-6.83681
-6.84942
-6.86289
-6.87724
-6.89251
-6.90873
-6.92594
-6.94412
-6.96324
-6.98333
-7.00444
-7.02653
-7.04951
-7.07334
-7.09809
-7.12383
-7.15042
-7.17765
-7.20543
-7.23371
-7.26244
-7.29157
-7.32105
-7.35081
-7.3808
-7.41095
-7.44119
-7.47144
-7.50161
-7.53162
-7.56136
-7.59073
-7.61963
-7.64793
-7.67551
-7.70224
-7.72799
-7.75261
-7.77595
-7.79787
-7.8182
-7.83677
-7.85342
-7.86798
-7.88026
-7.89009
-7.89728
-7.90164
-7.90299
-7.90115
-7.89592
-7.88711
-7.87453
-7.85801
-7.83734
-7.81237
-7.78289
-7.74875
-7.70976
-7.66576
-7.6166
-7.56211
-7.50214
-7.43655
-7.3652
-7.28795
-7.20468
-7.11527
-7.0196
-6.91756
-6.80906
-6.69402
-6.57239
-6.44412
-6.30918
-6.16751
-6.01911
-5.86394
-5.70201
-5.53334
-5.35795
-5.1759
-4.98724
-4.79205
-4.59043
-4.38249
-4.16835
-3.94816
-3.72207
-3.49025
-3.25289
-3.01018
-2.76234
-2.50959
-2.25218
-1.99034
-1.72434
-1.45445
-1.18094
-0.904102
-0.624228
-0.341616
-0.0565709
0.230597
0.519576
0.810052
1.10171
1.39423
1.68731
1.98062
2.27387
2.56673
2.85893
3.15015
3.44011
3.72854
4.01516
4.29971
4.58193
4.86159
5.13846
5.41231
5.68294
5.95016
6.21377
6.47361
6.72953
6.98136
7.22899
7.47227
7.71111
7.94541
8.17508
8.40003
8.6202
8.83552
9.04592
9.25132
9.45163
9.64686
9.83699
10.022
10.2018
10.3765
10.5461
10.7105
10.8701
11.0249
11.1754
11.3228
11.4657
11.6147
11.7285
-6.7032
-6.70668
-6.71112
-6.71495
-6.71778
-6.71994
-6.72177
-6.72349
-6.72524
-6.72714
-6.72927
-6.73171
-6.7345
-6.73767
-6.74127
-6.74534
-6.74989
-6.75496
-6.76059
-6.7668
-6.77363
-6.78111
-6.78927
-6.79814
-6.80775
-6.81813
-6.8293
-6.8413
-6.85415
-6.86787
-6.88247
-6.89799
-6.91443
-6.93181
-6.95014
-6.96939
-6.98957
-7.01067
-7.03268
-7.05554
-7.07922
-7.10374
-7.12908
-7.15519
-7.18196
-7.20932
-7.23721
-7.26558
-7.29437
-7.32354
-7.35301
-7.38272
-7.41262
-7.44263
-7.47266
-7.50264
-7.53248
-7.56207
-7.59132
-7.62011
-7.64833
-7.67585
-7.70255
-7.72828
-7.75291
-7.77629
-7.79826
-7.81866
-7.83732
-7.85409
-7.86878
-7.88121
-7.89121
-7.89859
-7.90317
-7.90475
-7.90315
-7.89818
-7.88965
-7.87738
-7.86117
-7.84084
-7.81621
-7.7871
-7.75334
-7.71476
-7.67119
-7.62246
-7.56842
-7.50893
-7.44383
-7.37299
-7.29627
-7.21355
-7.12471
-7.02962
-6.92819
-6.82033
-6.70596
-6.58501
-6.45742
-6.32315
-6.18216
-6.03443
-5.87993
-5.71868
-5.55068
-5.37597
-5.1946
-5.00661
-4.8121
-4.61116
-4.40389
-4.19042
-3.97089
-3.74546
-3.5143
-3.27758
-3.03551
-2.78829
-2.53616
-2.27935
-2.0181
-1.75267
-1.48334
-1.21037
-0.934061
-0.654693
-0.372567
-0.0879884
0.198735
0.487292
0.777368
1.06865
1.36082
1.65357
1.94658
2.23955
2.53217
2.82413
3.11516
3.40495
3.69324
3.97974
4.26419
4.54635
4.82597
5.10283
5.37669
5.64736
5.91463
6.17832
6.43827
6.6943
6.94627
7.19406
7.43753
7.67657
7.91109
8.14098
8.36616
8.58657
8.80212
9.01274
9.21835
9.41888
9.61431
9.80464
9.98986
10.1699
10.3448
10.5146
10.6793
10.839
10.994
11.1444
11.2912
11.4324
11.5783
11.6817
-6.69958
-6.70364
-6.7089
-6.71353
-6.71705
-6.71982
-6.72218
-6.72437
-6.72653
-6.72881
-6.73129
-6.73405
-6.73713
-6.7406
-6.74448
-6.74882
-6.75364
-6.75899
-6.76488
-6.77136
-6.77846
-6.78621
-6.79464
-6.80378
-6.81366
-6.82431
-6.83576
-6.84802
-6.86113
-6.87509
-6.88993
-6.90566
-6.92228
-6.93981
-6.95823
-6.97755
-6.99776
-7.01884
-7.04078
-7.06354
-7.0871
-7.11144
-7.13654
-7.16235
-7.18881
-7.21587
-7.24348
-7.27158
-7.30013
-7.32907
-7.35834
-7.38788
-7.41762
-7.44748
-7.4774
-7.50728
-7.53703
-7.56657
-7.59577
-7.62454
-7.65276
-7.6803
-7.70703
-7.73281
-7.7575
-7.78096
-7.80302
-7.82353
-7.84231
-7.85921
-7.87404
-7.88663
-7.89679
-7.90434
-7.90909
-7.91086
-7.90946
-7.90469
-7.89637
-7.88432
-7.86833
-7.84824
-7.82385
-7.79499
-7.76149
-7.72317
-7.67987
-7.63143
-7.57769
-7.51851
-7.45373
-7.38322
-7.30685
-7.22448
-7.13601
-7.04131
-6.94028
-6.83284
-6.71889
-6.59837
-6.47121
-6.33737
-6.1968
-6.04949
-5.89541
-5.73457
-5.56699
-5.3927
-5.21174
-5.02417
-4.83008
-4.62955
-4.4227
-4.20965
-3.99054
-3.76552
-3.53477
-3.29846
-3.0568
-2.80999
-2.55825
-2.30183
-2.04097
-1.77592
-1.50696
-1.23437
-0.95841
-0.679389
-0.3976
-0.113347
0.173063
0.461317
0.751104
1.04211
1.33402
1.62652
1.9193
2.21205
2.50447
2.79626
3.08711
3.37676
3.66491
3.9513
4.23565
4.51773
4.79729
5.0741
5.34794
5.61859
5.88586
6.14958
6.40956
6.66565
6.9177
7.16557
7.40915
7.6483
7.88294
8.11296
8.33829
8.55884
8.77453
8.98529
9.19104
9.39171
9.58728
9.77775
9.96311
10.1433
10.3184
10.4883
10.6531
10.8129
10.9678
11.1178
11.2637
11.403
11.546
11.6403
-6.69798
-6.70244
-6.70829
-6.71353
-6.71762
-6.72091
-6.72375
-6.72638
-6.72896
-6.73161
-6.73444
-6.73753
-6.74094
-6.74472
-6.74891
-6.75355
-6.75867
-6.76431
-6.7705
-6.77728
-6.78467
-6.7927
-6.80142
-6.81084
-6.821
-6.83192
-6.84363
-6.85614
-6.86948
-6.88366
-6.8987
-6.91459
-6.93136
-6.949
-6.9675
-6.98686
-7.00708
-7.02813
-7.05001
-7.07269
-7.09615
-7.12036
-7.1453
-7.17092
-7.1972
-7.22408
-7.25152
-7.27947
-7.30788
-7.33669
-7.36586
-7.39531
-7.42498
-7.4548
-7.48469
-7.51456
-7.54432
-7.57387
-7.60312
-7.63194
-7.66023
-7.68784
-7.71466
-7.74055
-7.76535
-7.78893
-7.81111
-7.83175
-7.85068
-7.86771
-7.88268
-7.89541
-7.90572
-7.91342
-7.91831
-7.92023
-7.91897
-7.91434
-7.90617
-7.89425
-7.87841
-7.85846
-7.83421
-7.8055
-7.77214
-7.73397
-7.69082
-7.64253
-7.58895
-7.52993
-7.46533
-7.395
-7.31882
-7.23665
-7.14838
-7.05389
-6.9531
-6.84589
-6.73218
-6.61188
-6.48495
-6.35133
-6.21098
-6.06388
-5.91001
-5.74939
-5.58202
-5.40794
-5.22719
-5.03984
-4.84596
-4.64566
-4.43903
-4.22621
-4.00732
-3.78254
-3.55202
-3.31595
-3.07452
-2.82795
-2.57646
-2.32028
-2.05966
-1.79486
-1.52614
-1.25378
-0.978061
-0.699276
-0.417719
-0.133694
0.152491
0.440525
0.730097
1.02089
1.3126
1.60491
1.8975
2.19007
2.48232
2.77394
3.06465
3.35415
3.64217
3.92843
4.21268
4.49466
4.77413
5.05086
5.32463
5.59523
5.86247
6.12616
6.38613
6.64222
6.89428
7.14218
7.38578
7.62499
7.85968
8.08976
8.31516
8.53578
8.75155
8.96239
9.16822
9.36898
9.56465
9.75522
9.94066
10.121
10.2961
10.4661
10.6309
10.7906
10.9452
11.0947
11.2396
11.3768
11.5172
11.6035
-6.69861
-6.70328
-6.70949
-6.71514
-6.71965
-6.72335
-6.72659
-6.7296
-6.73253
-6.73553
-6.73869
-6.74209
-6.7458
-6.74987
-6.75435
-6.75927
-6.76468
-6.7706
-6.77707
-6.78411
-6.79177
-6.80008
-6.80905
-6.81873
-6.82913
-6.84029
-6.85221
-6.86493
-6.87846
-6.89281
-6.908
-6.92402
-6.94089
-6.95861
-6.97717
-6.99656
-7.01679
-7.03783
-7.05967
-7.0823
-7.10569
-7.12983
-7.15468
-7.18022
-7.2064
-7.2332
-7.26056
-7.28845
-7.31681
-7.3456
-7.37475
-7.40421
-7.4339
-7.46376
-7.4937
-7.52364
-7.55348
-7.58314
-7.61249
-7.64143
-7.66983
-7.69758
-7.72454
-7.75056
-7.77551
-7.79923
-7.82156
-7.84234
-7.8614
-7.87857
-7.89367
-7.90652
-7.91694
-7.92475
-7.92975
-7.93176
-7.93058
-7.92604
-7.91793
-7.90608
-7.89029
-7.87039
-7.8462
-7.81752
-7.78421
-7.74607
-7.70296
-7.65472
-7.60118
-7.5422
-7.47765
-7.40737
-7.33125
-7.24914
-7.16095
-7.06654
-6.96582
-6.85868
-6.74504
-6.62481
-6.49794
-6.36438
-6.22408
-6.07703
-5.92322
-5.76264
-5.59533
-5.4213
-5.24061
-5.05333
-4.85952
-4.65929
-4.45274
-4.24
-4.02122
-3.79653
-3.56612
-3.33016
-3.08885
-2.84241
-2.59104
-2.335
-2.07452
-1.80987
-1.5413
-1.26909
-0.993538
-0.714916
-0.433524
-0.149666
0.13635
0.424215
0.713616
1.00424
1.29578
1.58792
1.88034
2.17275
2.46484
2.75631
3.04686
3.33621
3.62408
3.91021
4.19432
4.47618
4.75553
5.03215
5.30583
5.57634
5.8435
6.10712
6.36703
6.62307
6.87509
7.12296
7.36654
7.60573
7.84042
8.07052
8.29593
8.51657
8.73236
8.94323
9.1491
9.34992
9.54564
9.73626
9.92176
10.1021
10.2772
10.4472
10.6119
10.7714
10.9257
11.0745
11.2182
11.3534
11.4914
11.5709
-6.70144
-6.70618
-6.71252
-6.71837
-6.72315
-6.72714
-6.73067
-6.73397
-6.73719
-6.74046
-6.74389
-6.74755
-6.75151
-6.75583
-6.76055
-6.7657
-6.77134
-6.77748
-6.78418
-6.79145
-6.79932
-6.80784
-6.81701
-6.82688
-6.83747
-6.8488
-6.86089
-6.87376
-6.88743
-6.9019
-6.91719
-6.9333
-6.95024
-6.96802
-6.98661
-7.00604
-7.02628
-7.04732
-7.06916
-7.09178
-7.11516
-7.13927
-7.16411
-7.18963
-7.2158
-7.2426
-7.26997
-7.29789
-7.32629
-7.35513
-7.38435
-7.4139
-7.44369
-7.47366
-7.50372
-7.53379
-7.56378
-7.59358
-7.62309
-7.65219
-7.68076
-7.70867
-7.73579
-7.76197
-7.78707
-7.81093
-7.8334
-7.85431
-7.87349
-7.89077
-7.90596
-7.9189
-7.92939
-7.93725
-7.94229
-7.94433
-7.94317
-7.93863
-7.93052
-7.91865
-7.90284
-7.8829
-7.85866
-7.82993
-7.79656
-7.75837
-7.71519
-7.66688
-7.61328
-7.55424
-7.48963
-7.4193
-7.34312
-7.26098
-7.17274
-7.07829
-6.97752
-6.87033
-6.75662
-6.63633
-6.50939
-6.37575
-6.23538
-6.08826
-5.93437
-5.77373
-5.60635
-5.43226
-5.25152
-5.06419
-4.87035
-4.67009
-4.46352
-4.25078
-4.03199
-3.80732
-3.57693
-3.341
-3.09974
-2.85334
-2.60204
-2.34607
-2.08568
-1.82111
-1.55265
-1.28055
-1.00511
-0.726617
-0.445358
-0.16164
0.124231
0.411945
0.701192
0.991659
1.28303
1.575
1.86726
2.15949
2.45141
2.7427
3.03308
3.32226
3.60997
3.89593
4.17989
4.46159
4.74079
5.01727
5.29081
5.56119
5.82822
6.09173
6.35153
6.60747
6.85941
7.10719
7.35071
7.58985
7.82449
8.05454
8.27992
8.50054
8.71632
8.92718
9.13305
9.33388
9.52963
9.72027
9.90577
10.0861
10.2612
10.4311
10.5957
10.7549
10.9088
11.0568
11.1992
11.3324
11.4683
11.542
-6.70631
-6.71096
-6.71724
-6.72312
-6.72801
-6.73216
-6.73588
-6.73937
-6.74279
-6.74625
-6.74986
-6.7537
-6.75783
-6.76232
-6.76719
-6.77251
-6.7783
-6.7846
-6.79144
-6.79885
-6.80687
-6.81552
-6.82482
-6.83482
-6.84553
-6.85696
-6.86915
-6.88212
-6.89586
-6.91041
-6.92576
-6.94193
-6.95892
-6.97673
-6.99537
-7.01482
-7.03509
-7.05616
-7.07802
-7.10067
-7.12408
-7.14823
-7.17311
-7.19868
-7.22491
-7.25178
-7.27924
-7.30725
-7.33576
-7.36473
-7.39409
-7.42377
-7.45372
-7.48385
-7.51409
-7.54434
-7.5745
-7.60448
-7.63417
-7.66344
-7.69218
-7.72026
-7.74753
-7.77386
-7.79909
-7.82307
-7.84565
-7.86665
-7.8859
-7.90323
-7.91847
-7.93142
-7.94191
-7.94976
-7.95477
-7.95676
-7.95553
-7.95091
-7.9427
-7.93072
-7.91479
-7.89473
-7.87035
-7.84148
-7.80796
-7.76962
-7.72629
-7.67783
-7.62407
-7.56489
-7.50013
-7.42966
-7.35334
-7.27107
-7.1827
-7.08811
-6.98718
-6.87982
-6.76595
-6.64548
-6.51837
-6.38456
-6.24403
-6.09674
-5.9427
-5.7819
-5.61437
-5.44015
-5.25929
-5.07184
-4.8779
-4.67755
-4.47091
-4.2581
-4.03926
-3.81456
-3.58415
-3.34821
-3.10696
-2.86058
-2.60932
-2.35339
-2.09306
-1.82857
-1.56019
-1.28819
-1.01286
-0.734489
-0.453366
-0.169794
0.115921
0.403473
0.692549
0.98284
1.27403
1.56581
1.85787
2.14991
2.44163
2.73272
3.0229
3.31187
3.59937
3.88513
4.16889
4.45039
4.7294
5.00569
5.27904
5.54924
5.81611
6.07945
6.3391
6.5949
6.84669
7.09436
7.33776
7.57679
7.81134
8.04132
8.26662
8.48718
8.7029
8.91372
9.11957
9.32038
9.51612
9.70675
9.89224
10.0725
10.2476
10.4174
10.5818
10.7407
10.8939
11.0411
11.1823
11.3136
11.4475
11.5163
-6.71294
-6.7174
-6.72346
-6.72921
-6.73407
-6.73825
-6.74203
-6.7456
-6.7491
-6.75265
-6.75635
-6.76027
-6.76447
-6.76903
-6.77397
-6.77935
-6.7852
-6.79156
-6.79846
-6.80593
-6.814
-6.82271
-6.83207
-6.84211
-6.85286
-6.86435
-6.87658
-6.88958
-6.90336
-6.91794
-6.93333
-6.94953
-6.96655
-6.98439
-7.00306
-7.02255
-7.04286
-7.06398
-7.0859
-7.1086
-7.13209
-7.15632
-7.18129
-7.20696
-7.23331
-7.26031
-7.28791
-7.31606
-7.34474
-7.37387
-7.4034
-7.43326
-7.4634
-7.49371
-7.52413
-7.55456
-7.58491
-7.61506
-7.64491
-7.67434
-7.70322
-7.73142
-7.75881
-7.78523
-7.81054
-7.83458
-7.85719
-7.8782
-7.89745
-7.91475
-7.92994
-7.94282
-7.95323
-7.96096
-7.96584
-7.96768
-7.96629
-7.96149
-7.9531
-7.94092
-7.92478
-7.90449
-7.87989
-7.8508
-7.81705
-7.77848
-7.73492
-7.68624
-7.63226
-7.57286
-7.50789
-7.43721
-7.36071
-7.27823
-7.18964
-7.09481
-6.99364
-6.88604
-6.77192
-6.65121
-6.52386
-6.38982
-6.24906
-6.10156
-5.94731
-5.78631
-5.6186
-5.44421
-5.26319
-5.0756
-4.88153
-4.68107
-4.47433
-4.26144
-4.04254
-3.81779
-3.58735
-3.35141
-3.11016
-2.86382
-2.6126
-2.35674
-2.09648
-1.83209
-1.56381
-1.29194
-1.01674
-0.73852
-0.457562
-0.174166
0.111362
0.398716
0.687586
0.977661
1.26863
1.56018
1.852
2.14379
2.43526
2.7261
3.01602
3.30474
3.59199
3.87749
4.16099
4.44224
4.721
4.99705
5.27016
5.54013
5.80677
6.0699
6.32935
6.58495
6.83656
7.08406
7.3273
7.56619
7.8006
8.03045
8.25565
8.47611
8.69175
8.9025
9.10829
9.30906
9.50477
9.69537
9.88082
10.0611
10.236
10.4056
10.5698
10.7283
10.881
11.0273
11.1672
11.2967
11.4287
11.4934
-6.72101
-6.7252
-6.73092
-6.73642
-6.74112
-6.74521
-6.74893
-6.75245
-6.75591
-6.75943
-6.76309
-6.76697
-6.77114
-6.77565
-6.78055
-6.78589
-6.7917
-6.79802
-6.80489
-6.81233
-6.82037
-6.82905
-6.83838
-6.84841
-6.85914
-6.87061
-6.88283
-6.89583
-6.9096
-6.92418
-6.93957
-6.95579
-6.97283
-6.9907
-7.0094
-7.02894
-7.0493
-7.07049
-7.09248
-7.11528
-7.13886
-7.16321
-7.18831
-7.21411
-7.24061
-7.26776
-7.29551
-7.32384
-7.35268
-7.38198
-7.41169
-7.44173
-7.47202
-7.5025
-7.53308
-7.56365
-7.59412
-7.62439
-7.65434
-7.68385
-7.7128
-7.74104
-7.76844
-7.79486
-7.82015
-7.84414
-7.86667
-7.88759
-7.90671
-7.92387
-7.93889
-7.95159
-7.96179
-7.9693
-7.97394
-7.97552
-7.97387
-7.96879
-7.96011
-7.94764
-7.93121
-7.91062
-7.88572
-7.85634
-7.8223
-7.78344
-7.7396
-7.69064
-7.6364
-7.57674
-7.51153
-7.44061
-7.36387
-7.28112
-7.19224
-7.09712
-6.99565
-6.88776
-6.77335
-6.65237
-6.52474
-6.39045
-6.24944
-6.1017
-5.94723
-5.78604
-5.61814
-5.44358
-5.26241
-5.07469
-4.88051
-4.67996
-4.47315
-4.2602
-4.04127
-3.81651
-3.58607
-3.35016
-3.10896
-2.86269
-2.61156
-2.3558
-2.09567
-1.83141
-1.5633
-1.2916
-1.01659
-0.738575
-0.457837
-0.174678
0.110602
0.397696
0.686294
0.976087
1.26676
1.55801
1.84953
2.14101
2.43216
2.72268
3.01228
3.30068
3.5876
3.87278
4.15596
4.4369
4.71535
4.99109
5.2639
5.53358
5.79995
6.0628
6.32199
6.57735
6.82873
7.076
7.31904
7.55773
7.79198
8.02167
8.24672
8.46705
8.68258
8.89324
9.09895
9.29966
9.49532
9.68587
9.87126
10.0514
10.2263
10.3957
10.5596
10.7177
10.8698
11.0152
11.1538
11.2816
11.4117
11.4732
-6.73023
-6.73411
-6.73942
-6.74456
-6.74898
-6.75284
-6.75636
-6.7597
-6.76298
-6.76632
-6.76981
-6.77352
-6.77752
-6.78187
-6.78662
-6.79181
-6.79748
-6.80366
-6.8104
-6.81772
-6.82565
-6.83423
-6.84348
-6.85342
-6.86408
-6.87548
-6.88765
-6.90059
-6.91433
-6.92888
-6.94426
-6.96047
-6.97751
-6.9954
-7.01414
-7.03372
-7.05415
-7.0754
-7.09749
-7.12038
-7.14407
-7.16853
-7.19375
-7.21969
-7.24632
-7.2736
-7.30149
-7.32995
-7.35892
-7.38834
-7.41815
-7.44829
-7.47868
-7.50923
-7.53986
-7.57047
-7.60096
-7.63122
-7.66114
-7.6906
-7.71947
-7.74761
-7.77488
-7.80115
-7.82626
-7.85005
-7.87236
-7.89303
-7.91189
-7.92877
-7.94349
-7.95587
-7.96573
-7.9729
-7.97718
-7.97841
-7.97639
-7.97094
-7.96189
-7.94906
-7.93226
-7.91133
-7.88608
-7.85636
-7.822
-7.78283
-7.73871
-7.68946
-7.63495
-7.57504
-7.50958
-7.43842
-7.36137
-7.2783
-7.1891
-7.09367
-6.9919
-6.88371
-6.76902
-6.64776
-6.51988
-6.38534
-6.24411
-6.09617
-5.94151
-5.78015
-5.61211
-5.43742
-5.25615
-5.06834
-4.8741
-4.67351
-4.46668
-4.25375
-4.03484
-3.81013
-3.57977
-3.34396
-3.10288
-2.85675
-2.60578
-2.35021
-2.09028
-1.82625
-1.55838
-1.28694
-1.01221
-0.734486
-0.454057
-0.171219
0.113724
0.40047
0.688708
0.978131
1.26843
1.55929
1.85042
2.14151
2.43225
2.72237
3.01157
3.29956
3.58608
3.87086
4.15364
4.43419
4.71225
4.98762
5.26007
5.52939
5.79541
6.05794
6.31681
6.57186
6.82296
7.06997
7.31276
7.55122
7.78525
8.01474
8.23962
8.4598
8.67519
8.88573
9.09135
9.29198
9.48757
9.67805
9.86337
10.0434
10.2182
10.3874
10.551
10.7086
10.8601
11.0045
11.142
11.2682
11.3965
11.4554
-6.74039
-6.74394
-6.74879
-6.75349
-6.75751
-6.761
-6.76416
-6.76714
-6.77008
-6.77308
-6.77624
-6.77963
-6.78333
-6.78739
-6.79187
-6.7968
-6.80222
-6.80818
-6.8147
-6.82183
-6.82958
-6.83799
-6.84708
-6.85688
-6.86742
-6.87871
-6.89078
-6.90364
-6.91731
-6.9318
-6.94713
-6.96331
-6.98034
-6.99823
-7.01698
-7.03658
-7.05704
-7.07834
-7.10047
-7.12342
-7.14717
-7.1717
-7.19698
-7.22297
-7.24965
-7.27697
-7.30489
-7.33336
-7.36233
-7.39174
-7.42151
-7.45159
-7.4819
-7.51234
-7.54285
-7.5733
-7.60362
-7.63368
-7.66338
-7.69259
-7.72119
-7.74904
-7.77601
-7.80194
-7.8267
-7.85012
-7.87205
-7.89232
-7.91077
-7.92723
-7.94152
-7.95346
-7.96288
-7.96961
-7.97345
-7.97424
-7.97179
-7.96592
-7.95646
-7.94322
-7.92604
-7.90474
-7.87915
-7.8491
-7.81442
-7.77497
-7.73057
-7.68108
-7.62635
-7.56621
-7.5005
-7.42903
-7.35167
-7.26828
-7.17878
-7.08306
-6.98102
-6.87257
-6.75764
-6.63616
-6.50808
-6.37335
-6.23196
-6.08388
-5.92912
-5.76767
-5.59956
-5.42483
-5.24354
-5.05575
-4.86153
-4.661
-4.45426
-4.24143
-4.02266
-3.79811
-3.56793
-3.33232
-3.09148
-2.8456
-2.5949
-2.33963
-2.08002
-1.81633
-1.54881
-1.27774
-1.00341
-0.726089
-0.446081
-0.163678
0.120817
0.407103
0.694872
0.983816
1.27363
1.564
1.85463
2.14522
2.43546
2.72508
3.01377
3.30127
3.58729
3.87158
4.15389
4.43396
4.71156
4.98647
5.25848
5.52738
5.79299
6.05512
6.31361
6.56831
6.81907
7.06576
7.30826
7.54644
7.78022
8.00949
8.23417
8.45416
8.6694
8.87981
9.08532
9.28586
9.48137
9.67178
9.85702
10.037
10.2116
10.3806
10.5439
10.7011
10.8518
10.9954
11.1317
11.2564
11.3829
11.44
-6.75177
-6.75501
-6.7594
-6.76356
-6.76703
-6.76995
-6.77253
-6.77493
-6.7773
-6.77974
-6.78237
-6.78527
-6.7885
-6.79212
-6.79618
-6.80073
-6.80581
-6.81144
-6.81766
-6.82451
-6.832
-6.84017
-6.84904
-6.85863
-6.86898
-6.88009
-6.892
-6.90471
-6.91824
-6.93261
-6.94783
-6.96391
-6.98084
-6.99865
-7.01732
-7.03685
-7.05723
-7.07846
-7.10052
-7.12339
-7.14705
-7.17147
-7.19663
-7.22249
-7.24902
-7.27618
-7.30391
-7.33216
-7.36089
-7.39004
-7.41953
-7.44929
-7.47926
-7.50935
-7.53947
-7.56952
-7.59942
-7.62904
-7.65828
-7.68701
-7.71512
-7.74246
-7.76891
-7.79432
-7.81855
-7.84143
-7.86282
-7.88255
-7.90045
-7.91637
-7.93012
-7.94153
-7.95044
-7.95665
-7.96001
-7.96031
-7.9574
-7.9511
-7.94122
-7.92759
-7.91005
-7.88841
-7.86252
-7.83219
-7.79727
-7.7576
-7.71303
-7.66338
-7.60848
-7.54812
-7.48213
-7.41038
-7.33274
-7.24911
-7.15938
-7.06345
-6.96121
-6.8526
-6.73752
-6.61592
-6.48775
-6.35296
-6.21152
-6.06342
-5.90867
-5.74725
-5.57921
-5.40457
-5.2234
-5.03575
-4.84171
-4.64138
-4.43487
-4.2223
-4.00381
-3.77956
-3.54972
-3.31447
-3.074
-2.82853
-2.57826
-2.32344
-2.0643
-1.8011
-1.53409
-1.26355
-0.989759
-0.712999
-0.433562
-0.151744