# vtk DataFile Version 2.0
sampleSurface
ASCII
DATASET POLYDATA
POINTS 502 float
-0.0206 0 -0.0005 -0.0190172 0 -0.0005 -0.0190172 0 0.0005 -0.0206 0
0.0005 -0.0174976 0 -0.0005 -0.0174976 0 0.0005 -0.0160387 0 -0.0005
-0.0160387 0 0.0005 -0.0146381 0 -0.0005 -0.0146381 0 0.0005 -0.0132934
0 -0.0005 -0.0132934 0 0.0005 -0.0120025 0 -0.0005 -0.0120025 0
0.0005 -0.0107632 0 -0.0005 -0.0107632 0 0.0005 -0.00957337 0 -0.0005
-0.00957337 0 0.0005 -0.00843108 0 -0.0005 -0.00843108 0 0.0005 -0.00733443
0 -0.0005 -0.00733443 0 0.0005 -0.0062816 0 -0.0005 -0.0062816 0
0.0005 -0.00527083 0 -0.0005 -0.00527083 0 0.0005 -0.00430044 0 -0.0005
-0.00430044 0 0.0005 -0.00336883 0 -0.0005 -0.00336883 0 0.0005 -0.00247443
0 -0.0005 -0.00247443 0 0.0005 -0.00161577 0 -0.0005 -0.00161577 0
0.0005 -0.000791418 0 -0.0005 -0.000791418 0 0.0005 0 0 -0.0005
0 0 0.0005 0 -0.0254 -0.0005 0 -0.0254 0.0005 0
-0.0242711 0.0005 0 -0.0242711 -0.0005 0 -0.0231422 0.0005 0 -0.0231422
-0.0005 0 -0.0220133 0.0005 0 -0.0220133 -0.0005 0 -0.0208844 0.0005
0 -0.0208844 -0.0005 0 -0.0197556 0.0005 0 -0.0197556 -0.0005 0
-0.0186267 0.0005 0 -0.0186267 -0.0005 0 -0.0174978 0.0005 0 -0.0174978
-0.0005 0 -0.0163689 0.0005 0 -0.0163689 -0.0005 0 -0.01524 0.0005
0 -0.01524 -0.0005 0 -0.0141111 0.0005 0 -0.0141111 -0.0005 0
-0.0129822 0.0005 0 -0.0129822 -0.0005 0 -0.0118533 0.0005 0 -0.0118533
-0.0005 0 -0.0107244 0.0005 0 -0.0107244 -0.0005 0 -0.00959556 0.0005
0 -0.00959556 -0.0005 0 -0.00846667 0.0005 0 -0.00846667 -0.0005 0
-0.00726604 0.0005 0 -0.00726604 -0.0005 0 -0.00618989 0.0005 0 -0.00618989
-0.0005 0 -0.00522531 0.0005 0 -0.00522531 -0.0005 0 -0.00436073 0.0005
0 -0.00436073 -0.0005 0 -0.00358579 0.0005 0 -0.00358579 -0.0005 0
-0.00289118 0.0005 0 -0.00289118 -0.0005 0 -0.0022686 0.0005 0 -0.0022686
-0.0005 0 -0.00171055 0.0005 0 -0.00171055 -0.0005 0 -0.00121037 0.0005
0 -0.00121037 -0.0005 0 -0.000762037 0.0005 0 -0.000762037 -0.0005 0
-0.000360188 0.0005 0 -0.000360188 -0.0005 0.000528387 -0.0254 -0.0005 0.000528387 -0.0254
0.0005 0.00106088 -0.0254 -0.0005 0.00106088 -0.0254 0.0005 0.00159752 -0.0254 -0.0005
0.00159752 -0.0254 0.0005 0.00213833 -0.0254 -0.0005 0.00213833 -0.0254 0.0005 0.00268334
-0.0254 -0.0005 0.00268334 -0.0254 0.0005 0.00323259 -0.0254 -0.0005 0.00323259 -0.0254
0.0005 0.00378611 -0.0254 -0.0005 0.00378611 -0.0254 0.0005 0.00434393 -0.0254 -0.0005
0.00434393 -0.0254 0.0005 0.00490609 -0.0254 -0.0005 0.00490609 -0.0254 0.0005 0.00547262
-0.0254 -0.0005 0.00547262 -0.0254 0.0005 0.00604356 -0.0254 -0.0005 0.00604356 -0.0254
0.0005 0.00661893 -0.0254 -0.0005 0.00661893 -0.0254 0.0005 0.00719878 -0.0254 -0.0005
0.00719878 -0.0254 0.0005 0.00778313 -0.0254 -0.0005 0.00778313 -0.0254 0.0005 0.00837203
-0.0254 -0.0005 0.00837203 -0.0254 0.0005 0.00896551 -0.0254 -0.0005 0.00896551 -0.0254
0.0005 0.0095636 -0.0254 -0.0005 0.0095636 -0.0254 0.0005 0.0101663 -0.0254 -0.0005
0.0101663 -0.0254 0.0005 0.0107738 -0.0254 -0.0005 0.0107738 -0.0254 0.0005 0.0113859
-0.0254 -0.0005 0.0113859 -0.0254 0.0005 0.0120028 -0.0254 -0.0005 0.0120028 -0.0254
0.0005 0.0126245 -0.0254 -0.0005 0.0126245 -0.0254 0.0005 0.0132511 -0.0254 -0.0005
0.0132511 -0.0254 0.0005 0.0138825 -0.0254 -0.0005 0.0138825 -0.0254 0.0005 0.0145188
-0.0254 -0.0005 0.0145188 -0.0254 0.0005 0.0151601 -0.0254 -0.0005 0.0151601 -0.0254
0.0005 0.0158063 -0.0254 -0.0005 0.0158063 -0.0254 0.0005 0.0164576 -0.0254 -0.0005
0.0164576 -0.0254 0.0005 0.0171139 -0.0254 -0.0005 0.0171139 -0.0254 0.0005 0.0177754
-0.0254 -0.0005 0.0177754 -0.0254 0.0005 0.018442 -0.0254 -0.0005 0.018442 -0.0254
0.0005 0.0191137 -0.0254 -0.0005 0.0191137 -0.0254 0.0005 0.0197907 -0.0254 -0.0005
0.0197907 -0.0254 0.0005 0.020473 -0.0254 -0.0005 0.020473 -0.0254 0.0005 0.0211606
-0.0254 -0.0005 0.0211606 -0.0254 0.0005 0.0218535 -0.0254 -0.0005 0.0218535 -0.0254
0.0005 0.0225517 -0.0254 -0.0005 0.0225517 -0.0254 0.0005 0.0232555 -0.0254 -0.0005
0.0232555 -0.0254 0.0005 0.0239647 -0.0254 -0.0005 0.0239647 -0.0254 0.0005 0.0246794
-0.0254 -0.0005 0.0246794 -0.0254 0.0005 0.0253996 -0.0254 -0.0005 0.0253996 -0.0254
0.0005 0.0261255 -0.0254 -0.0005 0.0261255 -0.0254 0.0005 0.026857 -0.0254 -0.0005
0.026857 -0.0254 0.0005 0.0275942 -0.0254 -0.0005 0.0275942 -0.0254 0.0005 0.0283371
-0.0254 -0.0005 0.0283371 -0.0254 0.0005 0.0290858 -0.0254 -0.0005 0.0290858 -0.0254
0.0005 0.0298403 -0.0254 -0.0005 0.0298403 -0.0254 0.0005 0.0306007 -0.0254 -0.0005
0.0306007 -0.0254 0.0005 0.031367 -0.0254 -0.0005 0.031367 -0.0254 0.0005 0.0321393
-0.0254 -0.0005 0.0321393 -0.0254 0.0005 0.0329175 -0.0254 -0.0005 0.0329175 -0.0254
0.0005 0.0337019 -0.0254 -0.0005 0.0337019 -0.0254 0.0005 0.0344923 -0.0254 -0.0005
0.0344923 -0.0254 0.0005 0.0352888 -0.0254 -0.0005 0.0352888 -0.0254 0.0005 0.0360916
-0.0254 -0.0005 0.0360916 -0.0254 0.0005 0.0369006 -0.0254 -0.0005 0.0369006 -0.0254
0.0005 0.0377158 -0.0254 -0.0005 0.0377158 -0.0254 0.0005 0.0385375 -0.0254 -0.0005
0.0385375 -0.0254 0.0005 0.0393655 -0.0254 -0.0005 0.0393655 -0.0254 0.0005 0.0401999
-0.0254 -0.0005 0.0401999 -0.0254 0.0005 0.0410408 -0.0254 -0.0005 0.0410408 -0.0254
0.0005 0.0418883 -0.0254 -0.0005 0.0418883 -0.0254 0.0005 0.0427424 -0.0254 -0.0005
0.0427424 -0.0254 0.0005 0.0436031 -0.0254 -0.0005 0.0436031 -0.0254 0.0005 0.0444704
-0.0254 -0.0005 0.0444704 -0.0254 0.0005 0.0453446 -0.0254 -0.0005 0.0453446 -0.0254
0.0005 0.0462255 -0.0254 -0.0005 0.0462255 -0.0254 0.0005 0.0471133 -0.0254 -0.0005
0.0471133 -0.0254 0.0005 0.048008 -0.0254 -0.0005 0.048008 -0.0254 0.0005 0.0489096
-0.0254 -0.0005 0.0489096 -0.0254 0.0005 0.0498183 -0.0254 -0.0005 0.0498183 -0.0254
0.0005 0.050734 -0.0254 -0.0005 0.050734 -0.0254 0.0005 0.0516568 -0.0254 -0.0005
0.0516568 -0.0254 0.0005 0.0525868 -0.0254 -0.0005 0.0525868 -0.0254 0.0005 0.053524
-0.0254 -0.0005 0.053524 -0.0254 0.0005 0.0544686 -0.0254 -0.0005 0.0544686 -0.0254
0.0005 0.0554204 -0.0254 -0.0005 0.0554204 -0.0254 0.0005 0.0563797 -0.0254 -0.0005
0.0563797 -0.0254 0.0005 0.0573464 -0.0254 -0.0005 0.0573464 -0.0254 0.0005 0.0583206
-0.0254 -0.0005 0.0583206 -0.0254 0.0005 0.0593025 -0.0254 -0.0005 0.0593025 -0.0254
0.0005 0.0602919 -0.0254 -0.0005 0.0602919 -0.0254 0.0005 0.0612891 -0.0254 -0.0005
0.0612891 -0.0254 0.0005 0.0622939 -0.0254 -0.0005 0.0622939 -0.0254 0.0005 0.0633067
-0.0254 -0.0005 0.0633067 -0.0254 0.0005 0.0643272 -0.0254 -0.0005 0.0643272 -0.0254
0.0005 0.0653557 -0.0254 -0.0005 0.0653557 -0.0254 0.0005 0.0663923 -0.0254 -0.0005
0.0663923 -0.0254 0.0005 0.0674368 -0.0254 -0.0005 0.0674368 -0.0254 0.0005 0.0684895
-0.0254 -0.0005 0.0684895 -0.0254 0.0005 0.0695504 -0.0254 -0.0005 0.0695504 -0.0254
0.0005 0.0706195 -0.0254 -0.0005 0.0706195 -0.0254 0.0005 0.0716969 -0.0254 -0.0005
0.0716969 -0.0254 0.0005 0.0727828 -0.0254 -0.0005 0.0727828 -0.0254 0.0005 0.073877
-0.0254 -0.0005 0.073877 -0.0254 0.0005 0.0749798 -0.0254 -0.0005 0.0749798 -0.0254
0.0005 0.0760911 -0.0254 -0.0005 0.0760911 -0.0254 0.0005 0.0772111 -0.0254 -0.0005
0.0772111 -0.0254 0.0005 0.0783398 -0.0254 -0.0005 0.0783398 -0.0254 0.0005 0.0794772
-0.0254 -0.0005 0.0794772 -0.0254 0.0005 0.0806235 -0.0254 -0.0005 0.0806235 -0.0254
0.0005 0.0817787 -0.0254 -0.0005 0.0817787 -0.0254 0.0005 0.0829429 -0.0254 -0.0005
0.0829429 -0.0254 0.0005 0.0841162 -0.0254 -0.0005 0.0841162 -0.0254 0.0005 0.0852985
-0.0254 -0.0005 0.0852985 -0.0254 0.0005 0.0864901 -0.0254 -0.0005 0.0864901 -0.0254
0.0005 0.0876909 -0.0254 -0.0005 0.0876909 -0.0254 0.0005 0.0889011 -0.0254 -0.0005
0.0889011 -0.0254 0.0005 0.0901207 -0.0254 -0.0005 0.0901207 -0.0254 0.0005 0.0913497
-0.0254 -0.0005 0.0913497 -0.0254 0.0005 0.0925883 -0.0254 -0.0005 0.0925883 -0.0254
0.0005 0.0938366 -0.0254 -0.0005 0.0938366 -0.0254 0.0005 0.0950945 -0.0254 -0.0005
0.0950945 -0.0254 0.0005 0.0963622 -0.0254 -0.0005 0.0963622 -0.0254 0.0005 0.0976398
-0.0254 -0.0005 0.0976398 -0.0254 0.0005 0.0989273 -0.0254 -0.0005 0.0989273 -0.0254
0.0005 0.100225 -0.0254 -0.0005 0.100225 -0.0254 0.0005 0.101532 -0.0254 -0.0005
0.101532 -0.0254 0.0005 0.10285 -0.0254 -0.0005 0.10285 -0.0254 0.0005 0.104178
-0.0254 -0.0005 0.104178 -0.0254 0.0005 0.105517 -0.0254 -0.0005 0.105517 -0.0254
0.0005 0.106865 -0.0254 -0.0005 0.106865 -0.0254 0.0005 0.108225 -0.0254 -0.0005
0.108225 -0.0254 0.0005 0.109594 -0.0254 -0.0005 0.109594 -0.0254 0.0005 0.110975
-0.0254 -0.0005 0.110975 -0.0254 0.0005 0.112366 -0.0254 -0.0005 0.112366 -0.0254
0.0005 0.113768 -0.0254 -0.0005 0.113768 -0.0254 0.0005 0.115181 -0.0254 -0.0005
0.115181 -0.0254 0.0005 0.116605 -0.0254 -0.0005 0.116605 -0.0254 0.0005 0.11804
-0.0254 -0.0005 0.11804 -0.0254 0.0005 0.119486 -0.0254 -0.0005 0.119486 -0.0254
0.0005 0.120943 -0.0254 -0.0005 0.120943 -0.0254 0.0005 0.122412 -0.0254 -0.0005
0.122412 -0.0254 0.0005 0.123892 -0.0254 -0.0005 0.123892 -0.0254 0.0005 0.125384
-0.0254 -0.0005 0.125384 -0.0254 0.0005 0.126887 -0.0254 -0.0005 0.126887 -0.0254
0.0005 0.128402 -0.0254 -0.0005 0.128402 -0.0254 0.0005 0.129928 -0.0254 -0.0005
0.129928 -0.0254 0.0005 0.131467 -0.0254 -0.0005 0.131467 -0.0254 0.0005 0.133017
-0.0254 -0.0005 0.133017 -0.0254 0.0005 0.13458 -0.0254 -0.0005 0.13458 -0.0254
0.0005 0.136155 -0.0254 -0.0005 0.136155 -0.0254 0.0005 0.137742 -0.0254 -0.0005
0.137742 -0.0254 0.0005 0.139341 -0.0254 -0.0005 0.139341 -0.0254 0.0005 0.140953
-0.0254 -0.0005 0.140953 -0.0254 0.0005 0.142577 -0.0254 -0.0005 0.142577 -0.0254
0.0005 0.144214 -0.0254 -0.0005 0.144214 -0.0254 0.0005 0.145863 -0.0254 -0.0005
0.145863 -0.0254 0.0005 0.147526 -0.0254 -0.0005 0.147526 -0.0254 0.0005 0.149201
-0.0254 -0.0005 0.149201 -0.0254 0.0005 0.15089 -0.0254 -0.0005 0.15089 -0.0254
0.0005 0.152591 -0.0254 -0.0005 0.152591 -0.0254 0.0005 0.154306 -0.0254 -0.0005
0.154306 -0.0254 0.0005 0.156034 -0.0254 -0.0005 0.156034 -0.0254 0.0005 0.157775
-0.0254 -0.0005 0.157775 -0.0254 0.0005 0.159531 -0.0254 -0.0005 0.159531 -0.0254
0.0005 0.161299 -0.0254 -0.0005 0.161299 -0.0254 0.0005 0.163082 -0.0254 -0.0005
0.163082 -0.0254 0.0005 0.164878 -0.0254 -0.0005 0.164878 -0.0254 0.0005 0.166688
-0.0254 -0.0005 0.166688 -0.0254 0.0005 0.168513 -0.0254 -0.0005 0.168513 -0.0254
0.0005 0.170351 -0.0254 -0.0005 0.170351 -0.0254 0.0005 0.172204 -0.0254 -0.0005
0.172204 -0.0254 0.0005 0.174071 -0.0254 -0.0005 0.174071 -0.0254 0.0005 0.175953
-0.0254 -0.0005 0.175953 -0.0254 0.0005 0.177849 -0.0254 -0.0005 0.177849 -0.0254
0.0005 0.17976 -0.0254 -0.0005 0.17976 -0.0254 0.0005 0.181686 -0.0254 -0.0005
0.181686 -0.0254 0.0005 0.183627 -0.0254 -0.0005 0.183627 -0.0254 0.0005 0.185583
-0.0254 -0.0005 0.185583 -0.0254 0.0005 0.187555 -0.0254 -0.0005 0.187555 -0.0254
0.0005 0.189541 -0.0254 -0.0005 0.189541 -0.0254 0.0005 0.191543 -0.0254 -0.0005
0.191543 -0.0254 0.0005 0.193561 -0.0254 -0.0005 0.193561 -0.0254 0.0005 0.195594
-0.0254 -0.0005 0.195594 -0.0254 0.0005 0.197643 -0.0254 -0.0005 0.197643 -0.0254
0.0005 0.199708 -0.0254 -0.0005 0.199708 -0.0254 0.0005 0.201789 -0.0254 -0.0005
0.201789 -0.0254 0.0005 0.203886 -0.0254 -0.0005 0.203886 -0.0254 0.0005 0.206
-0.0254 -0.0005 0.206 -0.0254 0.0005 0.208047 -0.0251856 -0.0005 0.208047 -0.0251856
0.0005 0.210173 -0.0249628 -0.0005 0.210173 -0.0249628 0.0005 0.212382 -0.0247314 -0.0005
0.212382 -0.0247314 0.0005 0.214677 -0.024491 -0.0005 0.214677 -0.024491 0.0005 0.217061
-0.0242412 -0.0005 0.217061 -0.0242412 0.0005 0.219538 -0.0239817 -0.0005 0.219538 -0.0239817
0.0005 0.222112 -0.0237121 -0.0005 0.222112 -0.0237121 0.0005 0.224785 -0.023432 -0.0005
0.224785 -0.023432 0.0005 0.227563 -0.023141 -0.0005 0.227563 -0.023141 0.0005 0.230449
-0.0228387 -0.0005 0.230449 -0.0228387 0.0005 0.233447 -0.0225246 -0.0005 0.233447 -0.0225246
0.0005 0.236562 -0.0221983 -0.0005 0.236562 -0.0221983 0.0005 0.239797 -0.0218593 -0.0005
0.239797 -0.0218593 0.0005 0.243159 -0.0215071 -0.0005 0.243159 -0.0215071 0.0005 0.246652
-0.0211412 -0.0005 0.246652 -0.0211412 0.0005 0.250281 -0.0207611 -0.0005 0.250281 -0.0207611
0.0005 0.254051 -0.0203661 -0.0005 0.254051 -0.0203661 0.0005 0.257967 -0.0199558 -0.0005
0.257967 -0.0199558 0.0005 0.262036 -0.0195295 -0.0005 0.262036 -0.0195295 0.0005 0.266264
-0.0190867 -0.0005 0.266264 -0.0190867 0.0005 0.270655 -0.0186266 -0.0005 0.270655 -0.0186266
0.0005 0.275218 -0.0181486 -0.0005 0.275218 -0.0181486 0.0005 0.279959 -0.017652 -0.0005
0.279959 -0.017652 0.0005 0.284883 -0.017136 -0.0005 0.284883 -0.017136 0.0005 0.29
-0.0166 -0.0005 0.29 -0.0166 0.0005 
POLYGONS 250 1250
4 0 1 2 3 4 1 4 5 2 4
4 6 7 5 4 6 8 9 7 4
8 10 11 9 4 10 12 13 11 4
12 14 15 13 4 14 16 17 15 4
16 18 19 17 4 18 20 21 19 4
20 22 23 21 4 22 24 25 23 4
24 26 27 25 4 26 28 29 27 4
28 30 31 29 4 30 32 33 31 4
32 34 35 33 4 34 36 37 35 4
38 39 40 41 4 41 40 42 43 4
43 42 44 45 4 45 44 46 47 4
47 46 48 49 4 49 48 50 51 4
51 50 52 53 4 53 52 54 55 4
55 54 56 57 4 57 56 58 59 4
59 58 60 61 4 61 60 62 63 4
63 62 64 65 4 65 64 66 67 4
67 66 68 69 4 69 68 70 71 4
71 70 72 73 4 73 72 74 75 4
75 74 76 77 4 77 76 78 79 4
79 78 80 81 4 81 80 82 83 4
83 82 84 85 4 85 84 86 87 4
87 86 88 89 4 89 88 90 91 4
91 90 37 36 4 38 92 93 39 4
92 94 95 93 4 94 96 97 95 4
96 98 99 97 4 98 100 101 99 4
100 102 103 101 4 102 104 105 103 4
104 106 107 105 4 106 108 109 107 4
108 110 111 109 4 110 112 113 111 4
112 114 115 113 4 114 116 117 115 4
116 118 119 117 4 118 120 121 119 4
120 122 123 121 4 122 124 125 123 4
124 126 127 125 4 126 128 129 127 4
128 130 131 129 4 130 132 133 131 4
132 134 135 133 4 134 136 137 135 4
136 138 139 137 4 138 140 141 139 4
140 142 143 141 4 142 144 145 143 4
144 146 147 145 4 146 148 149 147 4
148 150 151 149 4 150 152 153 151 4
152 154 155 153 4 154 156 157 155 4
156 158 159 157 4 158 160 161 159 4
160 162 163 161 4 162 164 165 163 4
164 166 167 165 4 166 168 169 167 4
168 170 171 169 4 170 172 173 171 4
172 174 175 173 4 174 176 177 175 4
176 178 179 177 4 178 180 181 179 4
180 182 183 181 4 182 184 185 183 4
184 186 187 185 4 186 188 189 187 4
188 190 191 189 4 190 192 193 191 4
192 194 195 193 4 194 196 197 195 4
196 198 199 197 4 198 200 201 199 4
200 202 203 201 4 202 204 205 203 4
204 206 207 205 4 206 208 209 207 4
208 210 211 209 4 210 212 213 211 4
212 214 215 213 4 214 216 217 215 4
216 218 219 217 4 218 220 221 219 4
220 222 223 221 4 222 224 225 223 4
224 226 227 225 4 226 228 229 227 4
228 230 231 229 4 230 232 233 231 4
232 234 235 233 4 234 236 237 235 4
236 238 239 237 4 238 240 241 239 4
240 242 243 241 4 242 244 245 243 4
244 246 247 245 4 246 248 249 247 4
248 250 251 249 4 250 252 253 251 4
252 254 255 253 4 254 256 257 255 4
256 258 259 257 4 258 260 261 259 4
260 262 263 261 4 262 264 265 263 4
264 266 267 265 4 266 268 269 267 4
268 270 271 269 4 270 272 273 271 4
272 274 275 273 4 274 276 277 275 4
276 278 279 277 4 278 280 281 279 4
280 282 283 281 4 282 284 285 283 4
284 286 287 285 4 286 288 289 287 4
288 290 291 289 4 290 292 293 291 4
292 294 295 293 4 294 296 297 295 4
296 298 299 297 4 298 300 301 299 4
300 302 303 301 4 302 304 305 303 4
304 306 307 305 4 306 308 309 307 4
308 310 311 309 4 310 312 313 311 4
312 314 315 313 4 314 316 317 315 4
316 318 319 317 4 318 320 321 319 4
320 322 323 321 4 322 324 325 323 4
324 326 327 325 4 326 328 329 327 4
328 330 331 329 4 330 332 333 331 4
332 334 335 333 4 334 336 337 335 4
336 338 339 337 4 338 340 341 339 4
340 342 343 341 4 342 344 345 343 4
344 346 347 345 4 346 348 349 347 4
348 350 351 349 4 350 352 353 351 4
352 354 355 353 4 354 356 357 355 4
356 358 359 357 4 358 360 361 359 4
360 362 363 361 4 362 364 365 363 4
364 366 367 365 4 366 368 369 367 4
368 370 371 369 4 370 372 373 371 4
372 374 375 373 4 374 376 377 375 4
376 378 379 377 4 378 380 381 379 4
380 382 383 381 4 382 384 385 383 4
384 386 387 385 4 386 388 389 387 4
388 390 391 389 4 390 392 393 391 4
392 394 395 393 4 394 396 397 395 4
396 398 399 397 4 398 400 401 399 4
400 402 403 401 4 402 404 405 403 4
404 406 407 405 4 406 408 409 407 4
408 410 411 409 4 410 412 413 411 4
412 414 415 413 4 414 416 417 415 4
416 418 419 417 4 418 420 421 419 4
420 422 423 421 4 422 424 425 423 4
424 426 427 425 4 426 428 429 427 4
428 430 431 429 4 430 432 433 431 4
432 434 435 433 4 434 436 437 435 4
436 438 439 437 4 438 440 441 439 4
440 442 443 441 4 442 444 445 443 4
444 446 447 445 4 446 448 449 447 4
448 450 451 449 4 450 452 453 451 4
452 454 455 453 4 454 456 457 455 4
456 458 459 457 4 458 460 461 459 4
460 462 463 461 4 462 464 465 463 4
464 466 467 465 4 466 468 469 467 4
468 470 471 469 4 470 472 473 471 4
472 474 475 473 4 474 476 477 475 4
476 478 479 477 4 478 480 481 479 4
480 482 483 481 4 482 484 485 483 4
484 486 487 485 4 486 488 489 487 4
488 490 491 489 4 490 492 493 491 4
492 494 495 493 4 494 496 497 495 4
496 498 499 497 4 498 500 501 499 
POINT_DATA 502
FIELD attributes 1
U 3 502 float
3.35852 -0.043716 0.00589855 1.68593 -0.0214292 0.00290681 1.68593 -0.0214292 0.00290681 3.35852 -0.043716
0.00589855 0.059666 0.000204638 0 0.059666 0.000204638 0 0.0575185 0.000191982 0
0.0575185 0.000191982 0 0.0555143 0.000256601 0 0.0555143 0.000256601 0 0.0534709
0.000379476 0 0.0534709 0.000379476 0 0.051383 0.000480412 0 0.051383 0.000480412
0 0.0493389 0.000502999 0 0.0493389 0.000502999 0 0.0473489 0.000436967 0
0.0473489 0.000436967 0 0.0454214 0.000320823 0 0.0454214 0.000320823 0 0.0436108
0.000217903 0 0.0436108 0.000217903 0 0.0419728 0.000179553 0 0.0419728 0.000179553
0 0.0404021 0.000208789 0 0.0404021 0.000208789 0 0.0388531 0.000282768 0
0.0388531 0.000282768 0 0.037138 0.000393091 0 0.037138 0.000393091 0 0.0352723
0.000502952 0 0.0352723 0.000502952 0 0.0330489 0.00061591 0 0.0330489 0.00061591
0 0.0307048 0.000746149 0 0.0307048 0.000746149 0 0.0133598 0.000815658 0
0.0133598 0.000815658 0 -0.000568169 0.00117681 -7.34521e-23 -0.000568169 0.00117681 -7.34521e-23 -0.000212329
0.00346965 1.98771e-22 -0.000212329 0.00346965 1.98771e-22 0.000405863 0.00415682 2.351e-22 0.000405863 0.00415682
2.351e-22 9.77479e-05 0.00193488 -4.70449e-22 9.77479e-05 0.00193488 -4.70449e-22 0.000209795 0.000495129 -1.57199e-22
0.000209795 0.000495129 -1.57199e-22 0.0015154 -0.00527306 3.12852e-22 0.0015154 -0.00527306 3.12852e-22 0.00178997
-0.0134439 0 0.00178997 -0.0134439 0 0.00112425 -0.0183809 6.43861e-22 0.00112425 -0.0183809
6.43861e-22 0.000617078 -0.0211322 3.73332e-25 0.000617078 -0.0211322 3.73332e-25 0.000285793 -0.0225494 -6.43488e-22
0.000285793 -0.0225494 -6.43488e-22 6.95045e-05 -0.0229737 6.46672e-22 6.95045e-05 -0.0229737 6.46672e-22 -5.42377e-05
-0.0228249 -4.7087e-26 -5.42377e-05 -0.0228249 -4.7087e-26 -0.000137192 -0.0222973 -6.46719e-22 -0.000137192 -0.0222973
-6.46719e-22 -0.000215658 -0.021482 -6.38553e-22 -0.000215658 -0.021482 -6.38553e-22 -0.000318005 -0.0203227 4.97968e-25
-0.000318005 -0.0203227 4.97968e-25 -0.000446824 -0.0187338 6.50377e-22 -0.000446824 -0.0187338 6.50377e-22 -0.000586631
-0.0165876 0 -0.000586631 -0.0165876 0 -0.00068278 -0.0142127 0 -0.00068278 -0.0142127
0 -0.000724161 -0.0118407 0 -0.000724161 -0.0118407 0 -0.000740861 -0.00960093 0
-0.000740861 -0.00960093 0 -0.000762599 -0.00752429 0 -0.000762599 -0.00752429 0 -0.00078655
-0.00561209 0 -0.00078655 -0.00561209 0 -0.000804127 -0.00383734 0 -0.000804127 -0.00383734
0 -0.00082789 -0.00207896 0 -0.00082789 -0.00207896 0 -0.000913079 -0.000670112 0
-0.000913079 -0.000670112 0 -0.000419312 0.000830371 0 -0.000419312 0.000830371 0 -5.79384e-05
0.00130899 0 -5.79384e-05 0.00130899 0 -0.00101772 0.00103598 -3.1022e-25 -0.00101772 0.00103598
-3.1022e-25 -0.0017834 0.000638754 3.65095e-23 -0.0017834 0.000638754 3.65095e-23 -0.00216651 0.000125372 0
-0.00216651 0.000125372 0 -0.002047 -0.000402986 0 -0.002047 -0.000402986 0 -0.00149544
-0.000875803 -3.53961e-23 -0.00149544 -0.000875803 -3.53961e-23 -0.000600427 -0.00118671 -3.54597e-23 -0.000600427 -0.00118671
-3.54597e-23 0.00054872 -0.00134042 0 0.00054872 -0.00134042 0 0.00179526 -0.00136608 0
0.00179526 -0.00136608 0 0.00303129 -0.00128213 0 0.00303129 -0.00128213 0 0.00419795
-0.00112111 3.39106e-23 0.00419795 -0.00112111 3.39106e-23 0.00523185 -0.000912681 3.39752e-23 0.00523185 -0.000912681
3.39752e-23 0.00608352 -0.00068023 0 0.00608352 -0.00068023 0 0.00672455 -0.000441181 0
0.00672455 -0.000441181 0 0.00714072 -0.000202152 0 0.00714072 -0.000202152 0 0.00732889
3.23982e-05 3.30417e-23 0.00732889 3.23982e-05 3.30417e-23 0.0072772 0.000265324 3.31084e-23 0.0072772 0.000265324
3.31084e-23 0.00698815 0.000496295 0 0.00698815 0.000496295 0 0.00647881 0.000707567 0
0.00647881 0.000707567 0 0.00577717 0.000889411 0 0.00577717 0.000889411 0 0.00490877
0.00099793 0 0.00490877 0.00099793 0 0.00392397 0.00100482 0 0.00392397 0.00100482
0 0.00293528 0.000870593 0 0.00293528 0.000870593 0 0.00201101 0.00066382 3.10203e-23
0.00201101 0.00066382 3.10203e-23 0.00127075 0.000438288 2.62865e-25 0.00127075 0.000438288 2.62865e-25 0.000779471
0.00011253 -2.80341e-25 0.000779471 0.00011253 -2.80341e-25 0.000432531 -0.000102615 6.10797e-23 0.000432531 -0.000102615
6.10797e-23 0.000271411 -5.12038e-05 3.04654e-23 0.000271411 -5.12038e-05 3.04654e-23 0.000377208 3.17007e-06 0
0.000377208 3.17007e-06 0 0.00074115 -0.000224334 -2.96344e-23 0.00074115 -0.000224334 -2.96344e-23 0.00132053
-0.00041446 -5.9061e-23 0.00132053 -0.00041446 -5.9061e-23 0.00207811 -0.000247555 -2.94267e-23 0.00207811 -0.000247555
-2.94267e-23 0.00256391 -0.000965226 0 0.00256391 -0.000965226 0 0.00252997 -0.00244377 -2.86232e-23
0.00252997 -0.00244377 -2.86232e-23 0.00240976 -0.00214773 -2.86937e-23 0.00240976 -0.00214773 -2.86937e-23 0.00151935
0.000189497 0 0.00151935 0.000189497 0 -0.000576913 0.00188104 2.78815e-23 -0.000576913 0.00188104
2.78815e-23 -0.00283565 0.00200404 2.79524e-23 -0.00283565 0.00200404 2.79524e-23 -0.0047762 0.00175426 2.76283e-23
-0.0047762 0.00175426 2.76283e-23 -0.00650741 0.00154048 8.29563e-23 -0.00650741 0.00154048 8.29563e-23 -0.00805286
0.0013511 5.54012e-23 -0.00805286 0.0013511 5.54012e-23 -0.00943446 0.00118614 0 -0.00943446 0.00118614
0 -0.0106737 0.00104445 0 -0.0106737 0.00104445 0 -0.0117888 0.000922784 0
-0.0117888 0.000922784 0 -0.0127954 0.000818489 0 -0.0127954 0.000818489 0 -0.013706
0.000728135 5.60831e-23 -0.013706 0.000728135 5.60831e-23 -0.014531 0.000649089 1.12422e-22 -0.014531 0.000649089
1.12422e-22 -0.015278 0.000578606 1.12589e-22 -0.015278 0.000578606 1.12589e-22 -0.0159529 0.000514472 5.64079e-23
-0.0159529 0.000514472 5.64079e-23 -0.0165595 0.000454934 -5.62573e-23 -0.0165595 0.000454934 -5.62573e-23 -0.0171005
0.000398859 -5.64203e-23 -0.0171005 0.000398859 -5.64203e-23 -0.0175774 0.000345325 5.60765e-23 -0.0175774 0.000345325
5.60765e-23 -0.0179912 0.000293659 1.12148e-22 -0.0179912 0.000293659 1.12148e-22 -0.0183423 0.000243709 5.60724e-23
-0.0183423 0.000243709 5.60724e-23 -0.0186312 0.000195793 0 -0.0186312 0.000195793 0 -0.0188588
0.000150116 0 -0.0188588 0.000150116 0 -0.0190262 0.000106536 5.46384e-23 -0.0190262 0.000106536
5.46384e-23 -0.019135 6.54956e-05 5.48076e-23 -0.019135 6.54956e-05 5.48076e-23 -0.0191869 2.83256e-05 0
-0.0191869 2.83256e-05 0 -0.0191878 -4.84068e-06 0 -0.0191878 -4.84068e-06 0 -0.0191425
-3.46703e-05 0 -0.0191425 -3.46703e-05 0 -0.0190541 -6.0994e-05 0 -0.0190541 -6.0994e-05
0 -0.0189272 -8.39435e-05 0 -0.0189272 -8.39435e-05 0 -0.0187657 -0.000103787 0
-0.0187657 -0.000103787 0 -0.0185738 -0.000120548 0 -0.0185738 -0.000120548 0 -0.0183555
-0.000134462 -4.88519e-23 -0.0183555 -0.000134462 -4.88519e-23 -0.0181146 -0.000145809 -4.90161e-23 -0.0181146 -0.000145809
-4.90161e-23 -0.0178546 -0.000154893 0 -0.0178546 -0.000154893 0 -0.0175783 -0.000162072 4.64753e-23
-0.0175783 -0.000162072 4.64753e-23 -0.0172882 -0.000167701 9.23105e-23 -0.0172882 -0.000167701 9.23105e-23 -0.0169865
-0.000172118 4.58338e-23 -0.0169865 -0.000172118 4.58338e-23 -0.0166747 -0.000175628 -4.40803e-23 -0.0166747 -0.000175628
-4.40803e-23 -0.016354 -0.000178498 -9.45997e-25 -0.016354 -0.000178498 -9.45997e-25 -0.0160253 -0.00018096 4.34447e-23
-0.0160253 -0.00018096 4.34447e-23 -0.0156891 -0.000183225 -4.17322e-23 -0.0156891 -0.000183225 -4.17322e-23 -0.0153456
-0.000185511 -4.18836e-23 -0.0153456 -0.000185511 -4.18836e-23 -0.0149945 -0.000188081 0 -0.0149945 -0.000188081
0 -0.0146352 -0.000191266 3.94598e-23 -0.0146352 -0.000191266 3.94598e-23 -0.0142661 -0.000195469 3.96065e-23
-0.0142661 -0.000195469 3.96065e-23 -0.0138851 -0.000201138 -3.79859e-23 -0.0138851 -0.000201138 -3.79859e-23 -0.013489
-0.000208714 -3.81295e-23 -0.013489 -0.000208714 -3.81295e-23 -0.0130735 -0.000218567 3.65358e-23 -0.0130735 -0.000218567
3.65358e-23 -0.0126338 -0.000230914 7.24924e-23 -0.0126338 -0.000230914 7.24924e-23 -0.0121647 -0.000245737 7.10544e-23
-0.0121647 -0.000245737 7.10544e-23 -0.0116613 -0.00026274 1.04007e-22 -0.0116613 -0.00026274 1.04007e-22 -0.0111197
-0.000281404 1.69202e-24 -0.0111197 -0.000281404 1.69202e-24 -0.0105367 -0.000301104 -6.7615e-23 -0.0105367 -0.000301104
-6.7615e-23 -0.00991073 -0.000321254 0 -0.00991073 -0.000321254 0 -0.00924073 -0.000341423 0
-0.00924073 -0.000341423 0 -0.00852614 -0.000361381 -6.18189e-23 -0.00852614 -0.000361381 -6.18189e-23 -0.00776644
-0.00038102 -1.22577e-22 -0.00776644 -0.00038102 -1.22577e-22 -0.00696131 -0.000400115 -1.52035e-24 -0.00696131 -0.000400115
-1.52035e-24 -0.00611133 -0.000418035 5.94795e-23 -0.00611133 -0.000418035 5.94795e-23 -0.00521918 -0.000433608 -5.68481e-23
-0.00521918 -0.000433608 -5.68481e-23 -0.00429082 -0.000445027 -1.12841e-22 -0.00429082 -0.000445027 -1.12841e-22 -0.00333635
-0.000449895 -1.1073e-22 -0.00333635 -0.000449895 -1.1073e-22 -0.00236959 -0.000446034 -5.49736e-23 -0.00236959 -0.000446034
-5.49736e-23 -0.00140695 -0.000432539 0 -0.00140695 -0.000432539 0 -0.000471413 -0.000410618 0
-0.000471413 -0.000410618 0 0.000413245 -0.000381618 -5.15353e-23 0.000413245 -0.000381618 -5.15353e-23 0.00123532
-0.000346979 -5.17609e-23 0.00123532 -0.000346979 -5.17609e-23 0.00198859 -0.000309528 0 0.00198859 -0.000309528
0 0.00266833 -0.000271995 4.97972e-23 0.00266833 -0.000271995 4.97972e-23 0.00327558 -0.000236586 5.00196e-23
0.00327558 -0.000236586 5.00196e-23 0.00381541 -0.000204867 0 0.00381541 -0.000204867 0 0.00429578
-0.000177698 4.83729e-23 0.00429578 -0.000177698 4.83729e-23 0.00472624 -0.000155235 4.85932e-23 0.00472624 -0.000155235
4.85932e-23 0.00511638 -0.000136981 0 0.00511638 -0.000136981 0 0.00547435 -0.000121943 -4.70056e-23
0.00547435 -0.000121943 -4.70056e-23 0.00580584 -0.000108922 -9.37695e-23 0.00580584 -0.000108922 -9.37695e-23 0.00611385
-9.68481e-05 -4.67631e-23 0.00611385 -9.68481e-05 -4.67631e-23 0.00639915 -8.49993e-05 4.56177e-23 0.00639915 -8.49993e-05
4.56177e-23 0.00666122 -7.30903e-05 4.58334e-23 0.00666122 -7.30903e-05 4.58334e-23 0.00689918 -6.11601e-05 -4.46815e-23
0.00689918 -6.11601e-05 -4.46815e-23 0.0071124 -4.943e-05 -4.48953e-23 0.0071124 -4.943e-05 -4.48953e-23 0.00730089
-3.8267e-05 -4.37385e-23 0.00730089 -3.8267e-05 -4.37385e-23 0.00746551 -2.79309e-05 -8.72149e-23 0.00746551 -2.79309e-05
-8.72149e-23 0.00760762 -1.84989e-05 -4.34753e-23 0.00760762 -1.84989e-05 -4.34753e-23 0.00772902 -1.01278e-05 0
0.00772902 -1.01278e-05 0 0.0078318 -2.57121e-06 0 0.0078318 -2.57121e-06 0 0.00791716
4.8238e-06 0 0.00791716 4.8238e-06 0 0.00798562 1.18966e-05 0 0.00798562 1.18966e-05
0 0.00803805 1.86181e-05 0 0.00803805 1.86181e-05 0 0.00807339 2.63656e-05 0
0.00807339 2.63656e-05 0 0.00808879 3.55692e-05 -3.94329e-23 0.00808879 3.55692e-05 -3.94329e-23 0.00808364
4.44815e-05 -6.80683e-25 0.00808364 4.44815e-05 -6.80683e-25 0.0080597 5.12269e-05 3.91525e-23 0.0080597 5.12269e-05
3.91525e-23 0.00802022 5.51882e-05 0 0.00802022 5.51882e-05 0 0.00796927 5.6664e-05 0
0.00796927 5.6664e-05 0 0.00791076 5.62696e-05 0 0.00791076 5.62696e-05 0 0.00784798
5.47345e-05 7.3127e-23 0.00784798 5.47345e-05 7.3127e-23 0.00778341 5.27138e-05 7.35112e-23 0.00778341 5.27138e-05
7.35112e-23 0.00771856 5.06809e-05 -7.12233e-23 0.00771856 5.06809e-05 -7.12233e-23 0.0076542 4.89465e-05 -1.32759e-24
0.0076542 4.89465e-05 -1.32759e-24 0.00759043 4.77123e-05 7.06483e-23 0.00759043 4.77123e-05 7.06483e-23 0.00752692
4.7097e-05 0 0.00752692 4.7097e-05 0 0.00746309 4.71221e-05 0 0.00746309 4.71221e-05
0 0.00739825 4.76756e-05 -6.64955e-23 0.00739825 4.76756e-05 -6.64955e-23 0.00733184 4.85004e-05 -1.32414e-22
0.00733184 4.85004e-05 -1.32414e-22 0.00726366 4.92358e-05 -6.59155e-23 0.00726366 4.92358e-05 -6.59155e-23 0.0071939
4.95014e-05 -6.36909e-23 0.0071939 4.95014e-05 -6.36909e-23 0.00712325 4.89922e-05 -1.26804e-22 0.00712325 4.89922e-05
-1.26804e-22 0.0070527 4.75469e-05 -1.27307e-24 0.0070527 4.75469e-05 -1.27307e-24 0.00698349 4.51726e-05 6.21802e-23
0.00698349 4.51726e-05 6.21802e-23 0.00691683 4.20243e-05 0 0.00691683 4.20243e-05 0 0.00685376
3.83483e-05 5.90761e-23 0.00685376 3.83483e-05 5.90761e-23 0.00679501 3.44153e-05 5.94088e-23 0.00679501 3.44153e-05
5.94088e-23 0.00674104 3.04692e-05 0 0.00674104 3.04692e-05 0 0.00669196 2.67005e-05 0
0.00669196 2.67005e-05 0 0.00664771 2.3238e-05 0 0.00664771 2.3238e-05 0 0.00660805
2.01521e-05 -5.45294e-23 0.00660805 2.01521e-05 -5.45294e-23 0.00657263 1.74661e-05 -1.08471e-22 0.00657263 1.74661e-05
-1.08471e-22 0.00654107 1.51717e-05 -5.39379e-23 0.00654107 1.51717e-05 -5.39379e-23 0.00651297 1.32429e-05 -5.18348e-23
0.00651297 1.32429e-05 -5.18348e-23 0.00648792 1.16426e-05 -5.21365e-23 0.00648792 1.16426e-05 -5.21365e-23 0.00646555
1.0327e-05 0 0.00646555 1.0327e-05 0 0.0064455 9.25224e-06 -4.91661e-23 0.0064455 9.25224e-06
-4.91661e-23 0.00642747 8.3824e-06 -4.94555e-23 0.00642747 8.3824e-06 -4.94555e-23 0.00641114 7.69321e-06 -4.74011e-23
0.00641114 7.69321e-06 -4.74011e-23 0.00639625 7.16661e-06 -4.76821e-23 0.00639625 7.16661e-06 -4.76821e-23 0.00638251
6.78025e-06 0 0.00638251 6.78025e-06 0 0.00636968 6.5027e-06 -4.47736e-23 0.00636968 6.5027e-06
-4.47736e-23 0.00635751 6.30232e-06 -4.5042e-23 0.00635751 6.30232e-06 -4.5042e-23 0.00634586 6.15785e-06 -4.30345e-23
0.00634586 6.15785e-06 -4.30345e-23 0.00633444 6.0795e-06 -4.32943e-23 0.00633444 6.0795e-06 -4.32943e-23 0.00632318