/*--------------------------------*- C++ -*----------------------------------*\
  =========                 |
  \\      /  F ield         | OpenFOAM: The Open Source CFD Toolbox
   \\    /   O peration     | Website:  https://openfoam.org
    \\  /    A nd           | Version:  9
     \\/     M anipulation  |
\*---------------------------------------------------------------------------*/
FoamFile
{
    format      ascii;
    class       volScalarField;
    location    "0.076";
    object      p;
}
// * * * * * * * * * * * * * * * * * * * * * * * * * * * * * * * * * * * * * //

dimensions      [0 2 -2 0 0 0 0];

internalField   nonuniform List<scalar> 
12225
(
-725.176
-721.301
-715.983
-710.118
-704.053
-698.056
-692.239
-686.601
-681.118
-675.76
-670.493
-665.287
-660.131
-654.982
-649.811
-644.412
-638.686
-631.987
-725.436
-721.437
-716.03
-710.152
-704.078
-698.075
-692.254
-686.612
-681.126
-675.769
-670.51
-665.318
-660.174
-655.043
-649.885
-644.556
-638.932
-632.823
-724.777
-721.5
-716.102
-710.197
-704.115
-698.099
-692.269
-686.625
-681.137
-675.78
-670.526
-665.35
-660.236
-655.148
-650.046
-644.831
-639.427
-633.802
-725.323
-721.939
-716.243
-710.268
-704.167
-698.138
-692.298
-686.649
-681.16
-675.807
-670.568
-665.421
-660.346
-655.311
-650.283
-645.205
-640.042
-634.849
-726.806
-722.448
-716.436
-710.369
-704.237
-698.187
-692.332
-686.678
-681.195
-675.853
-670.63
-665.509
-660.476
-655.507
-650.575
-645.655
-640.743
-635.933
-729.484
-723.073
-716.694
-710.489
-704.312
-698.247
-692.381
-686.718
-681.236
-675.906
-670.71
-665.632
-660.656
-655.766
-650.947
-646.194
-641.528
-637.053
-732.06
-724.012
-717.033
-710.657
-704.422
-698.329
-692.443
-686.777
-681.301
-675.985
-670.817
-665.783
-660.87
-656.068
-651.37
-646.789
-642.36
-638.174
-734.099
-724.309
-717.263
-710.797
-704.528
-698.412
-692.509
-686.835
-681.371
-676.079
-670.95
-665.971
-661.131
-656.426
-651.859
-647.448
-643.236
-639.297
-734.594
-725.173
-717.624
-711.008
-704.673
-698.512
-692.587
-686.924
-681.461
-676.195
-671.104
-666.182
-661.421
-656.819
-652.383
-648.138
-644.123
-640.395
-734.368
-725.263
-717.821
-711.197
-704.817
-698.619
-692.676
-686.996
-681.555
-676.312
-671.27
-666.417
-661.746
-657.254
-652.951
-648.861
-645.019
-641.468
-735.086
-725.464
-718.096
-711.424
-704.979
-698.737
-692.781
-687.11
-681.669
-676.455
-671.463
-666.681
-662.098
-657.709
-653.53
-649.582
-645.893
-642.49
-731.06
-725.296
-718.317
-711.651
-705.138
-698.834
-692.85
-687.179
-681.765
-676.585
-671.642
-666.932
-662.437
-658.15
-654.083
-650.254
-646.683
-643.39
-731.089
-725.359
-718.741
-711.93
-705.31
-698.932
-692.917
-687.252
-681.864
-676.724
-671.826
-667.184
-662.769
-658.577
-654.616
-650.895
-647.432
-644.235
-727.113
-725.624
-718.887
-712.174
-705.468
-699.016
-692.97
-687.31
-681.958
-676.871
-672.052
-667.485
-663.161
-659.069
-655.215
-651.605
-648.242
-645.131
-733.155
-727.851
-719.991
-712.866
-705.661
-699.08
-693.004
-687.367
-682.044
-677.018
-672.269
-667.796
-663.576
-659.593
-655.845
-652.341
-649.08
-646.052
-748.693
-732.204
-721.235
-712.554
-705.382
-698.847
-692.799
-687.2
-681.995
-677.087
-672.454
-668.093
-663.991
-660.127
-656.496
-653.097
-649.924
-646.968
-751.368
-733.388
-721.495
-712.436
-705.081
-698.553
-692.539
-686.999
-681.869
-677.073
-672.565
-668.333
-664.357
-660.616
-657.096
-653.792
-650.694
-647.794
-745.007
-728.277
-718.884
-710.686
-703.654
-697.368
-691.61
-686.278
-681.348
-676.754
-672.437
-668.369
-664.54
-660.934
-657.536
-654.334
-651.321
-648.486
-725.971
-723.44
-714.788
-707.466
-701.023
-695.239
-689.981
-685.064
-680.447
-676.11
-672.025
-668.165
-664.515
-661.06
-657.79
-654.695
-651.768
-648.998
-721.988
-713.865
-708.122
-702.653
-697.544
-692.65
-687.912
-683.457
-679.244
-675.223
-671.379
-667.715
-664.232
-660.918
-657.763
-654.761
-651.907
-649.195
-718.811
-709.368
-703.57
-698.973
-694.602
-690.347
-686.183
-682.135
-678.233
-674.452
-670.789
-667.269
-663.909
-660.701
-657.634
-654.704
-651.91
-649.245
-698.037
-700.109
-698.615
-695.619
-692.182
-688.539
-684.77
-681.006
-677.328
-673.741
-670.25
-666.877
-663.628
-660.503
-657.499
-654.621
-651.869
-649.239
-689.223
-695.417
-695.377
-693.249
-690.382
-687.119
-683.66
-680.143
-676.651
-673.208
-669.83
-666.545
-663.37
-660.309
-657.362
-654.529
-651.81
-649.204
-692.461
-693.898
-693.522
-691.702
-689.117
-686.103
-682.855
-679.5
-676.133
-672.799
-669.518
-666.312
-663.198
-660.181
-657.265
-654.454
-651.749
-649.154
-696.977
-694.212
-692.673
-690.77
-688.275
-685.402
-682.296
-679.054
-675.771
-672.502
-669.275
-666.113
-663.037
-660.056
-657.173
-654.388
-651.702
-649.115
-694.682
-693.245
-692.009
-690.147
-687.715
-684.921
-681.9
-678.736
-675.516
-672.302
-669.123
-665.999
-662.951
-659.991
-657.124
-654.347
-651.664
-649.075
-692.939
-692.885
-691.675
-689.775
-687.361
-684.616
-681.651
-678.534
-675.349
-672.162
-669.007
-665.906
-662.877
-659.934
-657.078
-654.31
-651.631
-649.043
-693.227
-692.523
-691.415
-689.53
-687.144
-684.43
-681.494
-678.406
-675.246
-672.078
-668.937
-665.849
-662.834
-659.904
-657.059
-654.296
-651.614
-649.017
-693.629
-692.692
-691.329
-689.401
-687.033
-684.34
-681.415
-678.331
-675.179
-672.02
-668.89
-665.814
-662.809
-659.886
-657.044
-654.281
-651.597
-648.994
-693.076
-692.601
-691.294
-689.332
-686.976
-684.3
-681.386
-678.31
-675.16
-671.999
-668.866
-665.789
-662.788
-659.872
-657.039
-654.283
-651.599
-648.988
-588.578
-588.88
-589.314
-589.64
-589.629
-589.256
-588.591
-587.847
-587.199
-586.698
-586.331
-586.012
-585.681
-585.285
-584.795
-584.202
-583.506
-582.709
-581.817
-580.836
-579.77
-578.623
-577.401
-576.108
-574.746
-573.321
-571.835
-570.291
-568.691
-567.038
-565.335
-563.582
-561.781
-559.934
-558.04
-556.103
-554.118
-552.088
-550.018
-547.898
-545.75
-543.528
-541.344
-539.111
-537.222
-536.351
-535.399
-534.242
-533.048
-531.804
-530.491
-529.099
-527.526
-525.619
-523.411
-520.939
-518.254
-515.551
-512.845
-510.713
-509.439
-508.412
-507.457
-506.667
-505.775
-504.988
-504.626
-504.482
-504.321
-503.939
-502.884
-501.283
-500.289
-501.244
-504.27
-508.527
-513.296
-518.241
-523.165
-527.954
-532.522
-536.799
-540.717
-544.211
-547.22
-549.689
-551.569
-552.823
-553.42
-553.337
-552.545
-551.036
-548.806
-545.866
-542.243
-537.971
-533.099
-527.681
-521.777
-515.451
-508.769
-501.8
-494.617
-487.292
-479.899
-472.513
-465.201
-458.027
-451.044
-444.296
-437.818
-431.634
-425.76
-420.203
-414.963
-410.034
-405.405
-401.063
-396.985
-393.147
-389.526
-386.096
-382.831
-379.703
-376.685
-373.751
-370.878
-368.042
-365.224
-362.41
-359.589
-356.756
-353.907
-351.043
-348.17
-345.3
-342.436
-339.567
-336.683
-333.777
-330.845
-327.885
-324.897
-321.877
-318.819
-315.714
-312.558
-309.346
-306.079
-302.758
-299.387
-295.971
-292.514
-289.018
-285.485
-281.915
-278.301
-274.633
-270.924
-267.21
-263.521
-259.85
-256.167
-252.419
-248.559
-244.552
-240.394
-236.104
-231.675
-227.097
-222.551
-218.29
-214.2
-210.137
-206.496
-202.822
-198.283
-194.817
-193.245
-191.401
-590.101
-590.441
-590.842
-591.198
-591.19
-590.694
-589.824
-588.855
-588.056
-587.466
-587.043
-586.683
-586.304
-585.857
-585.315
-584.669
-583.921
-583.076
-582.139
-581.119
-580.021
-578.849
-577.607
-576.297
-574.924
-573.489
-571.994
-570.442
-568.834
-567.173
-565.462
-563.702
-561.896
-560.043
-558.147
-556.207
-554.227
-552.205
-550.168
-548.089
-545.995
-543.882
-541.813
-539.883
-538.126
-537.592
-536.733
-534.728
-532.706
-531.148
-529.999
-528.981
-527.767
-526.205
-524.302
-522.069
-519.504
-517.016
-514.32
-511.636
-509.714
-508.349
-507.281
-506.629
-506.204
-505.412
-504.648
-504.41
-504.402
-504.163
-503.679
-503.092
-502.964
-504.336
-507.332
-511.271
-515.659
-520.244
-524.867
-529.424
-533.823
-537.983
-541.819
-545.253
-548.215
-550.64
-552.479
-553.693
-554.247
-554.114
-553.285
-551.755
-549.513
-546.564
-542.929
-538.643
-533.753
-528.313
-522.384
-516.029
-509.314
-502.308
-495.085
-487.718
-480.283
-472.854
-465.502
-458.29
-451.272
-444.491
-437.983
-431.772
-425.872
-420.293
-415.033
-410.087
-405.445
-401.091
-397
-393.153
-389.525
-386.09
-382.823
-379.695
-376.68
-373.749
-370.88
-368.048
-365.234
-362.421
-359.601
-356.767
-353.918
-351.058
-348.196
-345.33
-342.458
-339.578
-336.683
-333.771
-330.839
-327.883
-324.898
-321.879
-318.821
-315.717
-312.56
-309.348
-306.082
-302.762
-299.392
-295.976
-292.519
-289.024
-285.491
-281.921
-278.309
-274.641
-270.928
-267.21
-263.522
-259.852
-256.173
-252.436
-248.582
-244.577
-240.418
-236.143
-231.739
-227.171
-222.597
-218.322
-214.258
-210.218
-206.592
-203.137
-198.671
-195.39
-193.824
-191.255
-590.815
-591.106
-591.422
-591.736
-591.813
-591.405
-590.608
-589.757
-589.079
-588.593
-588.211
-587.825
-587.363
-586.796
-586.131
-585.373
-584.554
-583.645
-582.66
-581.609
-580.504
-579.297
-578.028
-576.694
-575.297
-573.84
-572.322
-570.745
-569.112
-567.426
-565.691
-563.91
-562.082
-560.21
-558.297
-556.342
-554.355
-552.343
-550.296
-548.246
-546.177
-544.133
-542.119
-540.189
-538.321
-536.642
-535.059
-533.521
-532.154
-531.096
-530.254
-529.234
-527.826
-525.91
-523.646
-521.28
-518.81
-516.332
-513.81
-511.231
-509.279
-507.983
-506.969
-506.047
-505.223
-504.703
-504.34
-504.242
-504.462
-504.769
-505.124
-505.722
-506.877
-508.861
-511.627
-514.984
-518.767
-522.838
-527.08
-531.378
-535.618
-539.678
-543.446
-546.831
-549.752
-552.145
-553.954
-555.138
-555.668
-555.523
-554.694
-553.154
-550.902
-547.941
-544.288
-539.978
-535.057
-529.578
-523.6
-517.187
-510.406
-503.327
-496.024
-488.575
-481.056
-473.543
-466.112
-458.825
-451.738
-444.896
-438.332
-432.068
-426.121
-420.497
-415.197
-410.218
-405.55
-401.165
-397.05
-393.182
-389.539
-386.094
-382.821
-379.691
-376.677
-373.752
-370.89
-368.067
-365.26
-362.454
-359.638
-356.806
-353.96
-351.1
-348.232
-345.361
-342.485
-339.602
-336.706
-333.791
-330.853
-327.89
-324.902
-321.883
-318.827
-315.724
-312.569
-309.357
-306.089
-302.77
-299.397
-295.981
-292.525
-289.03
-285.5
-281.936
-278.327
-274.657
-270.936
-267.207
-263.508
-259.851
-256.191
-252.468
-248.615
-244.619
-240.487
-236.225
-231.844
-227.324
-222.762
-218.445
-214.386
-210.394
-206.74
-203.271
-199.335
-196.035
-193.749
-191.393
-590.525
-590.693
-590.901
-591.137
-591.294
-591.171
-590.754
-590.287
-589.893
-589.569
-589.239
-588.872
-588.436
-587.878
-587.195
-586.398
-585.471
-584.489
-583.44
-582.322
-581.131
-579.919
-578.659
-577.29
-575.869
-574.387
-572.841
-571.229
-569.555
-567.823
-566.039
-564.208
-562.332
-560.414
-558.456
-556.461
-554.436
-552.379
-550.302
-548.215
-546.142
-544.088
-542.061
-540.088
-538.182
-536.387
-534.724
-533.114
-531.521
-529.945
-528.398
-526.884
-525.387
-523.788
-522.001
-520.001
-517.767
-515.374
-512.943
-510.647
-508.79
-507.351
-506.119
-505.135
-504.244
-503.707
-503.636
-503.946
-504.599
-505.546
-506.77
-508.303
-510.21
-512.535
-515.245
-518.323
-521.764
-525.536
-529.564
-533.733
-537.906
-541.933
-545.68
-549.045
-551.939
-554.293
-556.055
-557.192
-557.681
-557.508
-556.663
-555.122
-552.87
-549.905
-546.24
-541.906
-536.947
-531.415
-525.369
-518.871
-511.991
-504.802
-497.38
-489.807
-482.163
-474.531
-466.986
-459.596
-452.415
-445.489
-438.848
-432.515
-426.504
-420.82
-415.463
-410.443
-405.723
-401.295
-397.143
-393.244
-389.575
-386.112
-382.827
-379.691
-376.675
-373.753
-370.899
-368.086
-365.29
-362.493
-359.684
-356.857
-354.013
-351.155
-348.288
-345.415
-342.534
-339.643
-336.738
-333.815
-330.871
-327.905
-324.913
-321.89
-318.83
-315.724
-312.566
-309.351
-306.083
-302.763
-299.399
-295.987
-292.532
-289.04
-285.51
-281.949
-278.345
-274.676
-270.947
-267.205
-263.504
-259.858
-256.22
-252.513
-248.67
-244.674
-240.552
-236.325
-231.99
-227.529
-222.999
-218.652
-214.603
-210.656
-206.958
-203.589
-199.843
-196.478
-194.073
-191.851
-590.301
-590.3
-590.41
-590.594
-590.76
-590.797
-590.741
-590.654
-590.556
-590.421
-590.134
-589.74
-589.278
-588.734
-588.085
-587.34
-586.503
-585.583
-584.585
-583.506
-582.343
-581.099
-579.762
-578.393
-576.956
-575.419
-573.793
-572.085
-570.306
-568.47
-566.585
-564.658
-562.691
-560.684
-558.642
-556.572
-554.477
-552.363
-550.24
-548.12
-546.013
-543.937
-541.895
-539.898
-537.96
-536.088
-534.286
-532.555
-530.898
-529.321
-527.844
-526.421
-524.919
-523.304
-521.499
-519.471
-517.245
-514.818
-512.367
-510.11
-508.168
-506.527
-504.989
-503.859
-503.27
-503.124
-503.381
-504.022
-505.078
-506.558
-508.402
-510.521
-512.867
-515.43
-518.198
-521.202
-524.525
-528.221
-532.241
-536.455
-540.692
-544.778
-548.56
-551.918
-554.769
-557.057
-558.744
-559.808
-560.235
-560.02
-559.159
-557.625
-555.392
-552.443
-548.784
-544.436
-539.441
-533.848
-527.713
-521.101
-514.083
-506.737
-499.147
-491.398
-483.58
-475.779
-468.078
-460.548
-453.247
-446.217
-439.486
-433.074
-426.992
-421.244
-415.833
-410.749
-405.976
-401.499
-397.3
-393.36
-389.659
-386.171
-382.869
-379.722
-376.702
-373.781
-370.93
-368.123
-365.334
-362.544
-359.738
-356.914
-354.073
-351.22
-348.356
-345.48
-342.594
-339.696
-336.785
-333.856
-330.905
-327.93
-324.927
-321.894
-318.825
-315.713
-312.554
-309.342
-306.078
-302.761
-299.395
-295.984
-292.533
-289.045
-285.518
-281.961
-278.362
-274.695
-270.962
-267.212
-263.505
-259.867
-256.249
-252.555
-248.71
-244.714
-240.609
-236.417
-232.133
-227.743
-223.283
-218.945
-214.879
-210.963
-207.263
-203.868
-200.284
-196.977
-194.496
-192.185
-590.349
-590.348
-590.439
-590.62
-590.774
-590.786
-590.716
-590.724
-590.773
-590.793
-590.726
-590.574
-590.331
-589.969
-589.475
-588.857
-588.128
-587.302
-586.382
-585.368
-584.261
-583.056
-581.748
-580.333
-578.79
-577.153
-575.411
-573.57
-571.642
-569.641
-567.582
-565.476
-563.332
-561.159
-558.965
-556.757
-554.543
-552.334
-550.137
-547.962
-545.821
-543.72
-541.663
-539.657
-537.706
-535.811
-533.972
-532.197
-530.489
-528.848
-527.27
-525.728
-524.185
-522.596
-520.875
-518.968
-516.804
-514.427
-511.981
-509.674
-507.591
-505.67
-504.093
-503.21
-502.979
-503.148
-503.639
-504.505
-505.841
-507.672
-509.906
-512.411
-515.085
-517.868
-520.728
-523.746
-527.098
-530.915
-535.142
-539.593
-544.039
-548.261
-552.082
-555.395
-558.157
-560.339
-561.915
-562.879
-563.24
-562.997
-562.146
-560.649
-558.465
-555.569
-551.949
-547.619
-542.607
-536.96
-530.729
-523.979
-516.783
-509.23
-501.41
-493.421
-485.361
-477.328
-469.411
-461.685
-454.213
-447.037
-440.187
-433.678
-427.519
-421.708
-416.239
-411.103
-406.284
-401.761
-397.514
-393.528
-389.788
-386.272
-382.949
-379.787
-376.756
-373.83
-370.981
-368.178
-365.394
-362.607
-359.805
-356.985
-354.148
-351.293
-348.426
-345.549
-342.661
-339.758
-336.84
-333.903
-330.945
-327.96
-324.947
-321.902
-318.823
-315.704
-312.539
-309.324
-306.058
-302.744
-299.385
-295.981
-292.536
-289.054
-285.528
-281.975
-278.379
-274.717
-270.982
-267.225
-263.513
-259.88
-256.271
-252.582
-248.737
-244.739
-240.645
-236.486
-232.257
-227.945
-223.566
-219.26
-215.188
-211.289
-207.577
-204.162
-200.731
-197.498
-194.884
-192.509
-590.917
-591.03
-591.219
-591.232
-591.228
-591.354
-591.427
-591.481
-591.561
-591.619
-591.614
-591.562
-591.472
-591.33
-591.119
-590.815
-590.399
-589.855
-589.175
-588.35
-587.374
-586.239
-584.937
-583.462
-581.814
-580.018
-578.074
-575.996
-573.805
-571.525
-569.182
-566.797
-564.39
-561.978
-559.572
-557.183
-554.82
-552.494
-550.21
-547.974
-545.789
-543.66
-541.586
-539.57
-537.608
-535.697
-533.838
-532.034
-530.288
-528.609
-526.997
-525.449
-523.94
-522.387
-520.704
-518.823
-516.699
-514.306
-511.843
-509.494
-507.33
-505.282
-503.754
-503.185
-503.204
-503.545
-504.17
-505.171
-506.674
-508.717
-511.217
-514.026
-516.998
-520.002
-522.977
-526.075
-529.585
-533.718
-538.367
-543.215
-547.929
-552.269
-556.069
-559.262
-561.864
-563.885
-565.307
-566.15
-566.449
-566.212
-565.388
-563.958
-561.877
-559.099
-555.59
-551.341
-546.363
-540.693
-534.38
-527.488
-520.101
-512.314
-504.23
-495.956
-487.602
-479.275
-471.071
-463.079
-455.366
-447.982
-440.958
-434.312
-428.053
-422.16
-416.628
-411.443
-406.588
-402.037
-397.76
-393.736
-389.955
-386.408
-383.065
-379.89
-376.846
-373.907
-371.049
-368.244
-365.462
-362.679
-359.88
-357.062
-354.226
-351.376
-348.514
-345.634
-342.738
-339.827
-336.901
-333.956
-330.989
-327.996
-324.973
-321.918
-318.827
-315.697
-312.525
-309.308
-306.046
-302.736
-299.379
-295.977
-292.534
-289.048
-285.537
-281.992
-278.404
-274.746
-271.009
-267.245
-263.527
-259.887
-256.274
-252.585
-248.736
-244.739
-240.658
-236.531
-232.354
-228.121
-223.833
-219.586
-215.523
-211.628
-207.913
-204.499
-201.174
-197.987
-195.289
-192.896
-591.926
-592.021
-592.153
-592.289
-592.314
-592.296
-592.332
-592.423
-592.615
-592.879
-593.169
-593.46
-593.719
-593.923
-594.059
-594.106
-594.03
-593.797
-593.373
-592.735
-591.866
-590.759
-589.411
-587.809
-585.965
-583.875
-581.586
-579.137
-576.567
-573.908
-571.195
-568.46
-565.735
-563.047
-560.409
-557.828
-555.314
-552.871
-550.501
-548.2
-545.964
-543.793
-541.685
-539.639
-537.652
-535.722
-533.843
-532.013
-530.233
-528.502
-526.823
-525.201
-523.619
-522.017
-520.332
-518.477
-516.36
-514.01
-511.608
-509.294
-507.101
-505.044
-503.7
-503.375
-503.579
-504.038
-504.746
-505.83
-507.434
-509.615
-512.315
-515.391
-518.652
-521.896
-525.04
-528.303
-532.099
-536.705
-541.9
-547.185
-552.104
-556.445
-560.1
-563.064
-565.431
-567.259
-568.525
-569.243
-569.465
-569.228
-568.468
-567.18
-565.301
-562.755
-559.472
-555.403
-550.537
-544.896
-538.532
-531.513
-523.934
-515.901
-507.532
-498.947
-490.265
-481.604
-473.072
-464.764
-456.756
-449.105
-441.85
-435.013
-428.607
-422.6
-416.982
-411.737
-406.845
-402.276
-397.989
-393.951
-390.142
-386.562
-383.198
-380.012
-376.961
-374.013
-371.147
-368.333
-365.544
-362.757
-359.957
-357.14
-354.306
-351.457
-348.595
-345.717
-342.82
-339.903
-336.967
-334.013
-331.036
-328.034
-325.002
-321.938
-318.839
-315.702
-312.523
-309.302
-306.035
-302.725
-299.371
-295.976
-292.539
-289.06
-285.548
-282.009
-278.432
-274.782
-271.042
-267.269
-263.541
-259.888
-256.255
-252.552
-248.702
-244.716
-240.655
-236.558
-232.429
-228.269
-224.078
-219.907
-215.872
-211.995
-208.289
-204.873
-201.609
-198.485
-195.763
-193.34
-592.682
-592.82
-592.891
-592.932
-593.06
-593.281
-593.571
-593.916
-594.361
-594.91
-595.551
-596.27
-597.014
-597.727
-598.353
-598.839
-599.134
-599.189
-598.963
-598.429
-597.574
-596.399
-594.923
-593.017
-590.79
-588.29
-585.567
-582.672
-579.654
-576.562
-573.44
-570.329
-567.268
-564.288
-561.404
-558.621
-555.943
-553.371
-550.903
-548.53
-546.241
-544.028
-541.883
-539.802
-537.783
-535.821
-533.911
-532.045
-530.219
-528.424
-526.662
-524.932
-523.222
-521.503
-519.734
-517.838
-515.747
-513.479
-511.181
-508.947
-506.773
-504.761
-503.599
-503.483
-503.86
-504.435
-505.226
-506.385
-508.065
-510.353
-513.217
-516.531
-520.082
-523.606
-526.993
-530.506
-534.666
-539.8
-545.546
-551.181
-556.151
-560.346
-563.767
-566.48
-568.646
-570.344
-571.519
-572.164
-572.35
-572.114
-571.493
-570.462
-568.926
-566.765
-563.847
-560.067
-555.378
-549.796
-543.379
-536.21
-528.397
-520.065
-511.351
-502.391
-493.323
-484.277
-475.369
-466.7
-458.355
-450.399
-442.876
-435.812
-429.219
-423.065
-417.334
-412.004
-407.052
-402.45
-398.159
-394.126
-390.317
-386.72
-383.335
-380.135
-377.079
-374.126
-371.253
-368.434
-365.64
-362.846
-360.041
-357.22
-354.383
-351.532
-348.67
-345.793
-342.897
-339.978
-337.037
-334.074
-331.087
-328.075
-325.035
-321.964
-318.857
-315.713
-312.529
-309.304
-306.036
-302.726
-299.373
-295.978
-292.542
-289.068
-285.559
-282.021
-278.448
-274.804
-271.072
-267.3
-263.558
-259.886
-256.224
-252.494
-248.645
-244.679
-240.646
-236.579
-232.49
-228.396
-224.294
-220.211
-216.234
-212.399
-208.714
-205.296
-202.081
-199.028
-196.303
-193.844
-593.237
-593.35
-593.599
-593.887
-594.22
-594.664
-595.253
-595.98
-596.865
-597.896
-599.039
-600.268
-601.524
-602.739
-603.843
-604.758
-605.413
-605.746
-605.706
-605.249
-604.345
-602.971
-601.114
-598.919
-596.359
-593.478
-590.323
-586.95
-583.423
-579.815
-576.192
-572.617
-569.139
-565.794
-562.601
-559.565
-556.683
-553.949
-551.353
-548.884
-546.522
-544.254
-542.067
-539.952
-537.903
-535.912
-533.969
-532.068
-530.198
-528.345
-526.5
-524.655
-522.797
-520.914
-518.983
-516.981
-514.892
-512.723
-510.554
-508.427
-506.301
-504.331
-503.304
-503.371
-503.91
-504.64
-505.543
-506.797
-508.558
-510.943
-513.949
-517.474
-521.321
-525.173
-528.882
-532.704
-537.216
-542.813
-549.015
-554.892
-559.81
-563.82
-567.049
-569.611
-571.687
-573.37
-574.56
-575.212
-575.421
-575.3
-574.936
-574.33
-573.34
-571.777
-569.383
-565.959
-561.431
-555.84
-549.287
-541.884
-533.753
-525.033
-515.879
-506.45
-496.901
-487.377
-478.008
-468.903
-460.157
-451.842
-444.01
-436.69
-429.88
-423.556
-417.695
-412.265
-407.237
-402.583
-398.266
-394.236
-390.439
-386.846
-383.451
-380.244
-377.184
-374.229
-371.351
-368.527
-365.729
-362.932
-360.124
-357.301
-354.463
-351.61
-348.744
-345.865
-342.968
-340.048
-337.104
-334.135
-331.141
-328.121
-325.073
-321.993
-318.88
-315.73
-312.543
-309.315
-306.046
-302.734
-299.382
-295.988
-292.554
-289.08
-285.57
-282.025
-278.443
-274.802
-271.094
-267.342
-263.58
-259.887
-256.189
-252.43
-248.584
-244.644
-240.641
-236.6
-232.549
-228.513
-224.493
-220.501
-216.6
-212.827
-209.185
-205.78
-202.599
-199.619
-196.912
-194.453
-593.913
-594.13
-594.506
-595.047
-595.719
-596.539
-597.542
-598.734
-600.126
-601.701
-603.417
-605.228
-607.071
-608.876
-610.57
-612.079
-613.324
-614.208
-614.636
-614.521
-613.782
-612.388
-610.359
-607.875
-604.909
-601.486
-597.661
-593.509
-589.132
-584.648
-580.184
-575.847
-571.709
-567.808
-564.16
-560.763
-557.604
-554.663
-551.908
-549.34
-546.889
-544.55
-542.301
-540.126
-538.015
-535.967
-533.978
-532.035
-530.123
-528.224
-526.323
-524.405
-522.456
-520.469
-518.411
-516.272
-514.101
-511.979
-509.88
-507.83
-505.754
-503.776
-502.786
-502.982
-503.711
-504.623
-505.679
-507.055
-508.923
-511.412
-514.546
-518.255
-522.387
-526.601
-530.708
-534.872
-539.659
-545.57
-552.108
-558.185
-563.077
-566.974
-570.127
-572.689
-574.811
-576.565
-577.812
-578.481
-578.747
-578.862
-578.965
-579.007
-578.87
-578.194
-576.484
-573.417
-568.931
-563.179
-556.358
-548.616
-540.084
-530.899
-521.225
-511.236
-501.108
-491.005
-481.075
-471.442
-462.209
-453.457
-445.248
-437.63
-430.565
-424.043
-418.033
-412.496
-407.389
-402.675
-398.321
-394.282
-390.497
-386.918
-383.525
-380.312
-377.254
-374.304
-371.428
-368.603
-365.804
-363.007
-360.199
-357.378
-354.542
-351.689
-348.821
-345.938
-343.038
-340.116
-337.168
-334.195
-331.196
-328.17
-325.114
-322.028
-318.908
-315.753
-312.562
-309.331
-306.06
-302.749
-299.397
-296.004
-292.571
-289.099
-285.588
-282.038
-278.445
-274.802
-271.116
-267.397
-263.67
-259.894
-256.136
-252.361
-248.524
-244.614
-240.638
-236.621
-232.607
-228.631
-224.689
-220.786
-216.966
-213.266
-209.684
-206.312
-203.177
-200.268
-197.614
-195.209
-595.365
-595.621
-596.132
-596.858
-597.803
-598.973
-600.389
-602.052
-603.966
-606.128
-608.521
-611.118
-613.865
-616.678
-619.444
-622.017
-624.24
-625.967
-627.049
-627.368
-626.859
-625.48
-623.435
-620.567
-616.956
-612.702
-607.928
-602.75
-597.266
-591.596
-585.913
-580.423
-575.285
-570.569
-566.275
-562.378
-558.844
-555.649
-552.705
-549.983
-547.432
-545.016
-542.709
-540.491
-538.342
-536.242
-534.173
-532.129
-530.113
-528.12
-526.14
-524.172
-522.195
-520.174
-518.088
-515.922
-513.71
-511.477
-509.338
-507.349
-505.328
-503.265
-502.172
-502.363
-503.269
-504.397
-505.645
-507.174
-509.173
-511.78
-515.047
-518.935
-523.289
-527.868
-532.425
-536.968
-541.948
-547.995
-554.752
-561.05
-566.029
-569.939
-573.133
-575.795
-578.012
-579.842
-581.147
-581.866
-582.272
-582.762
-583.542
-584.598
-585.685
-586.177
-585.285
-582.502
-577.86
-571.73
-564.486
-556.325
-547.35
-537.66
-527.41
-516.786
-505.987
-495.205
-484.614
-474.357
-464.549
-455.279
-446.608
-438.655
-431.273
-424.515
-418.33
-412.668
-407.476
-402.707
-398.315
-394.259
-390.483
-386.926
-383.549
-380.338
-377.279
-374.335
-371.467
-368.648
-365.854
-363.062
-360.259
-357.443
-354.612
-351.764
-348.897
-346.013
-343.11
-340.184
-337.233
-334.255
-331.252
-328.221
-325.16
-322.067
-318.942
-315.782
-312.586
-309.352
-306.08
-302.768
-299.416
-296.024
-292.592
-289.12
-285.61
-282.06
-278.466
-274.827
-271.149
-267.438
-263.689
-259.894
-256.09
-252.298
-248.475
-244.591
-240.635
-236.64
-232.664
-228.746
-224.881
-221.067
-217.329
-213.706
-210.194
-206.874
-203.798
-200.983
-198.429
-196.13
-597.797
-598.045
-598.59
-599.403
-600.507
-601.927
-603.694
-605.837
-608.386
-611.365
-614.766
-618.539
-622.575
-626.713
-630.759
-634.488
-637.658
-640.066
-641.6
-642.189
-641.788
-640.385
-637.717
-634.042
-629.575
-624.543
-619.123
-613.336
-607.085
-600.371
-593.381
-586.466
-579.993
-574.168
-569.019
-564.47
-560.428
-557.016
-553.783
-550.861
-548.177
-545.671
-543.296
-541.016
-538.809
-536.662
-534.563
-532.493
-530.435
-528.376
-526.309
-524.225
-522.137
-520.072
-518.02
-515.894
-513.693
-511.448
-509.184
-507.085
-505.107
-503.015
-501.666
-501.635
-502.627
-503.986
-505.474
-507.194
-509.35
-512.088
-515.482
-519.518
-524.079
-528.977
-533.955
-538.919
-544.104
-550.107
-556.954
-563.478
-568.696
-572.764
-576.087
-578.896
-581.218
-583.109
-584.505
-585.38
-586.072
-587.128
-588.85
-591.205
-593.829
-595.767
-595.735
-593.109
-588.055
-581.284
-573.459
-564.847
-555.461
-545.296
-534.46
-523.147
-511.593
-500.028
-488.665
-477.676
-467.197
-457.335
-448.161
-439.739
-432.016
-424.988
-418.602
-412.794
-407.503
-402.672
-398.246
-394.173
-390.4
-386.864
-383.513
-380.318
-377.265
-374.328
-371.469
-368.659
-365.875
-363.094
-360.303
-357.497
-354.674
-351.832
-348.97
-346.087
-343.182
-340.254
-337.299
-334.318
-331.31
-328.274
-325.208
-322.111
-318.98
-315.815
-312.615
-309.378
-306.103
-302.791
-299.438
-296.046
-292.615
-289.145
-285.635
-282.086
-278.496
-274.861
-271.182
-267.465
-263.705
-259.893
-256.074
-252.271
-248.455
-244.579
-240.63
-236.653
-232.712
-228.85
-225.062
-221.337
-217.685
-214.138
-210.704
-207.456
-204.462
-201.767
-199.356
-197.222
-600.723
-600.957
-601.507
-602.365
-603.591
-605.246
-607.397
-610.117
-613.462
-617.447
-622.008
-626.985
-632.142
-637.228
-642.022
-646.335
-649.99
-652.808
-654.589
-655.157
-654.388
-652.239
-648.901
-644.558
-639.435
-633.775
-627.818
-621.785
-615.618
-608.921
-601.406
-593.364
-585.499
-578.382
-572.234
-566.983
-562.489
-558.572
-555.093
-551.977
-549.145
-546.529
-544.071
-541.724
-539.453
-537.248
-535.103
-532.999
-530.911
-528.827
-526.74
-524.639
-522.536
-520.427
-518.319
-516.223
-514.094
-511.894
-509.558
-507.283
-505.192
-503.134
-501.485
-501.04
-501.9
-503.435
-505.208
-507.173
-509.513
-512.396
-515.911
-520.067
-524.792
-529.938
-535.275
-540.63
-546.089
-552.046
-558.717
-565.424
-571.036
-575.427
-578.969
-581.98
-584.458
-586.449
-588.007
-589.15
-590.235
-591.986
-594.822
-598.633
-602.96
-606.553
-607.48
-604.839
-599.101
-591.402
-582.822
-573.764
-564.092
-553.589
-542.252
-530.278
-517.934
-505.506
-493.263
-481.425
-470.165
-459.615
-449.864
-440.927
-432.803
-425.466
-418.854
-412.888
-407.49
-402.59
-398.127
-394.039
-390.267
-386.747
-383.421
-380.25
-377.214
-374.292
-371.447
-368.648
-365.875
-363.108
-360.333
-357.541
-354.729
-351.896
-349.039
-346.16
-343.256
-340.327
-337.369
-334.384
-331.371
-328.33
-325.26
-322.158
-319.022
-315.853
-312.649
-309.409
-306.132
-302.818
-299.465
-296.073
-292.642
-289.173
-285.665
-282.115
-278.524
-274.891
-271.213
-267.493
-263.729
-259.92
-256.094
-252.28
-248.457
-244.576
-240.625
-236.657
-232.751
-228.946
-225.233
-221.593
-218.028
-214.563
-211.213
-208.053
-205.167
-202.623
-200.403
-198.493
-603.475
-603.707
-604.288
-605.209
-606.588
-608.514
-611.079
-614.369
-618.427
-623.208
-628.568
-634.272
-640.07
-645.753
-651.172
-656.213
-660.742
-664.541
-667.301
-668.665
-668.33
-665.98
-662.186
-656.962
-650.551
-643.295
-635.677
-628.317
-621.673
-615.196
-607.976
-599.644
-590.841
-582.627
-575.557
-569.631
-564.631
-560.341
-556.598
-553.291
-550.322
-547.603
-545.066
-542.659
-540.337
-538.074
-535.87
-533.72
-531.607
-529.507
-527.414
-525.315
-523.205
-521.105
-519.043
-517.017
-514.933
-512.761
-510.506
-508.075
-505.765
-503.656
-501.79
-500.868
-501.339
-502.872
-504.896
-507.16
-509.732
-512.779
-516.412
-520.661
-525.484
-530.775
-536.368
-542.071
-547.803
-553.737
-560.194
-566.893
-572.932
-577.82
-581.727
-585.023
-587.735
-589.911
-591.701
-593.203
-594.729
-597.135
-601.032
-606.199
-612.097
-617.335
-619.325
-616.77
-610.306
-601.523
-592.001
-582.461
-572.686
-562.112
-550.507
-538.017
-524.936
-511.618
-498.414
-485.62
-473.469
-462.112
-451.719
-442.199
-433.619
-425.935
-419.071
-412.933
-407.425
-402.46
-397.964
-393.866
-390.098
-386.593
-383.291
-380.146
-377.135
-374.234
-371.41
-368.63
-365.87
-363.117
-360.357
-357.58
-354.782
-351.959
-349.109
-346.234
-343.332
-340.402
-337.442
-334.453
-331.436
-328.39
-325.315
-322.208
-319.068
-315.895
-312.687
-309.445
-306.166
-302.851
-299.498
-296.105
-292.675
-289.207
-285.699
-282.147
-278.553
-274.922
-271.25
-267.533
-263.766
-259.951
-256.117
-252.294
-248.466
-244.577
-240.62
-236.663
-232.794
-229.046
-225.4
-221.842
-218.366
-214.994
-211.747
-208.695
-205.934
-203.555
-201.569
-199.945
-605.622
-605.887
-606.526
-607.525
-609.057
-611.209
-614.096
-617.792
-622.318
-627.592
-633.442
-639.643
-646.005
-652.419
-658.834
-665.185
-671.303
-676.864
-681.379
-684.196
-684.707
-682.869
-678.37
-671.696
-663.524
-654.2
-643.99
-634.139
-626.099
-619.482
-612.581
-604.459
-595.282
-586.402
-578.606
-572.122
-566.728
-562.154
-558.195
-554.72
-551.627
-548.821
-546.218
-543.764
-541.414
-539.127
-536.893
-534.718
-532.586
-530.471
-528.37
-526.279
-524.181
-522.091
-520.039
-518.066
-516.155
-514.196
-512.009
-509.537