/*--------------------------------*- C++ -*----------------------------------*\
  =========                 |
  \\      /  F ield         | OpenFOAM: The Open Source CFD Toolbox
   \\    /   O peration     | Website:  https://openfoam.org
    \\  /    A nd           | Version:  9
     \\/     M anipulation  |
\*---------------------------------------------------------------------------*/
FoamFile
{
    format      ascii;
    class       volSymmTensorField;
    location    "0.076";
    object      UPrime2Mean;
}
// * * * * * * * * * * * * * * * * * * * * * * * * * * * * * * * * * * * * * //

dimensions      [0 2 -2 0 0 0 0];

internalField   nonuniform List<symmTensor> 
12225
(
(-48.2862 -0.215884 0 0.00126323 0 0)
(-45.4656 -0.290405 0 -0.000848322 0 0)
(-42.6638 -0.274118 0 -0.00107879 0 0)
(-39.9016 -0.259815 0 -0.00115208 0 0)
(-37.2755 -0.248191 0 -0.00119239 0 0)
(-34.8301 -0.235577 0 -0.00118461 0 0)
(-32.5635 -0.222179 0 -0.00113522 0 0)
(-30.4565 -0.210334 0 -0.00108628 0 0)
(-28.4895 -0.198833 0 -0.001003 0 0)
(-26.6443 -0.190947 0 -0.000963623 0 0)
(-24.8962 -0.182451 0 -0.000823208 0 0)
(-23.2347 -0.181424 0 -0.000839899 0 0)
(-21.601 -0.17706 0 -0.000423018 0 0)
(-20.0281 -0.18887 0 -0.000619469 0 0)
(-18.3224 -0.19482 0 0.0012312 0 0)
(-16.6753 -0.234123 0 5.20787e-05 0 0)
(-14.4802 -0.291527 0 0.0109871 0 0)
(-12.2585 -0.396179 0 0.0048748 0 0)
(-50.2891 -0.258951 0 0.00157793 0 0)
(-50.9155 -0.377088 0 -0.00146704 0 0)
(-51.3257 -0.37257 0 -0.00178991 0 0)
(-51.4833 -0.378005 0 -0.00202032 0 0)
(-51.4697 -0.394199 0 -0.00234964 0 0)
(-51.3492 -0.407718 0 -0.0026084 0 0)
(-51.1458 -0.417881 0 -0.00280152 0 0)
(-50.8736 -0.425599 0 -0.00289911 0 0)
(-50.5325 -0.434842 0 -0.00300634 0 0)
(-50.1347 -0.443351 0 -0.00292832 0 0)
(-49.6686 -0.457385 0 -0.00293619 0 0)
(-49.1519 -0.47043 0 -0.00239883 0 0)
(-48.551 -0.497073 0 -0.00208175 0 0)
(-47.8947 -0.522903 0 -6.90922e-05 0 0)
(-47.1068 -0.58217 0 0.0016873 0 0)
(-46.2313 -0.644728 0 0.00906114 0 0)
(-45.1167 -0.78674 0 0.0201652 0 0)
(-43.7937 -0.954443 0 0.0577818 0 0)
(-50.0057 -0.142633 0 0.0031209 0 0)
(-50.3624 -0.265407 0 0.000316913 0 0)
(-50.6768 -0.277108 0 -0.000328983 0 0)
(-50.8701 -0.288941 0 -0.000617138 0 0)
(-50.9945 -0.3128 0 -0.000958189 0 0)
(-51.1042 -0.33594 0 -0.00125336 0 0)
(-51.2139 -0.353886 0 -0.00143051 0 0)
(-51.3168 -0.370288 0 -0.00151868 0 0)
(-51.4044 -0.386056 0 -0.00146588 0 0)
(-51.4715 -0.405986 0 -0.00133142 0 0)
(-51.5177 -0.426928 0 -0.000834527 0 0)
(-51.5394 -0.457362 0 -0.000146375 0 0)
(-51.5409 -0.48979 0 0.00174 0 0)
(-51.5128 -0.542669 0 0.0043204 0 0)
(-51.4727 -0.604525 0 0.0110068 0 0)
(-51.3951 -0.705845 0 0.0216958 0 0)
(-51.3427 -0.837078 0 0.0483366 0 0)
(-51.2606 -1.01845 0 0.10073 0 0)
(-49.9008 -0.139768 0 0.00329876 0 0)
(-50.1092 -0.289981 0 0.000251118 0 0)
(-50.3365 -0.317502 0 -0.000716353 0 0)
(-50.4907 -0.325103 0 -0.00100267 0 0)
(-50.5844 -0.341897 0 -0.00127107 0 0)
(-50.6625 -0.360848 0 -0.00149341 0 0)
(-50.7439 -0.377008 0 -0.00160209 0 0)
(-50.824 -0.391013 0 -0.0015449 0 0)
(-50.895 -0.406324 0 -0.00134812 0 0)
(-50.9529 -0.424061 0 -0.000886816 0 0)
(-50.9999 -0.446847 0 -0.000120713 0 0)
(-51.0375 -0.474646 0 0.00134388 0 0)
(-51.0721 -0.511672 0 0.00386659 0 0)
(-51.1047 -0.559808 0 0.00851736 0 0)
(-51.1457 -0.625561 0 0.0170756 0 0)
(-51.2052 -0.715091 0 0.0331605 0 0)
(-51.3042 -0.829865 0 0.0640131 0 0)
(-51.4786 -0.963849 0 0.120723 0 0)
(-50.1235 -0.107528 0 0.00406028 0 0)
(-50.2971 -0.22563 0 0.00158221 0 0)
(-50.4986 -0.265371 0 0.000448579 0 0)
(-50.6481 -0.277005 0 0.000126358 0 0)
(-50.7378 -0.293619 0 -5.86107e-05 0 0)
(-50.8019 -0.31488 0 -0.000190185 0 0)
(-50.8616 -0.334707 0 -0.00019133 0 0)
(-50.9174 -0.353121 0 -1.42452e-05 0 0)
(-50.9636 -0.371806 0 0.000415054 0 0)
(-50.9993 -0.393102 0 0.00119296 0 0)
(-51.0271 -0.417625 0 0.00256434 0 0)
(-51.0533 -0.447497 0 0.00486281 0 0)
(-51.0801 -0.484552 0 0.00877504 0 0)
(-51.1143 -0.532298 0 0.0154506 0 0)
(-51.1558 -0.594313 0 0.0269394 0 0)
(-51.2223 -0.673876 0 0.047233 0 0)
(-51.3152 -0.768015 0 0.0817053 0 0)
(-51.4664 -0.865682 0 0.140539 0 0)
(-49.6897 -0.0920759 0 0.00440652 0 0)
(-49.8344 -0.218575 0 0.00177075 0 0)
(-50.0066 -0.271587 0 0.000360529 0 0)
(-50.1527 -0.288263 0 -0.000123434 0 0)
(-50.2588 -0.303059 0 -0.000312987 0 0)
(-50.343 -0.322506 0 -0.000356292 0 0)
(-50.4228 -0.342606 0 -0.000223727 0 0)
(-50.5008 -0.361723 0 0.000152214 0 0)
(-50.572 -0.381087 0 0.000856556 0 0)
(-50.6338 -0.402129 0 0.00206955 0 0)
(-50.687 -0.425872 0 0.00407879 0 0)
(-50.736 -0.453999 0 0.0073499 0 0)
(-50.7836 -0.488235 0 0.0126646 0 0)
(-50.8357 -0.531957 0 0.0213757 0 0)
(-50.8953 -0.586699 0 0.0356026 0 0)
(-50.9745 -0.653737 0 0.0591337 0 0)
(-51.0764 -0.727358 0 0.0965663 0 0)
(-51.2165 -0.79993 0 0.155796 0 0)
(-50.148 -0.0583896 0 0.00527932 0 0)
(-50.2528 -0.182685 0 0.00298972 0 0)
(-50.3928 -0.238785 0 0.00160047 0 0)
(-50.5228 -0.259992 0 0.00109436 0 0)
(-50.6174 -0.274101 0 0.000990293 0 0)
(-50.6867 -0.29178 0 0.0010969 0 0)
(-50.7472 -0.31223 0 0.00142337 0 0)
(-50.8054 -0.33321 0 0.00206329 0 0)
(-50.8592 -0.354633 0 0.00315148 0 0)
(-50.9062 -0.377611 0 0.00492596 0 0)
(-50.946 -0.403284 0 0.00773409 0 0)
(-50.9825 -0.433067 0 0.0121548 0 0)
(-51.0188 -0.4682 0 0.0190468 0 0)
(-51.0608 -0.51083 0 0.0299035 0 0)
(-51.1118 -0.561226 0 0.0467729 0 0)
(-51.1796 -0.61939 0 0.0731656 0 0)
(-51.2667 -0.679794 0 0.112858 0 0)
(-51.3805 -0.737292 0 0.171755 0 0)
(-50.1618 -0.0752713 0 0.00443395 0 0)
(-50.2438 -0.170976 0 0.00251735 0 0)
(-50.3731 -0.23052 0 0.00123624 0 0)
(-50.5074 -0.258208 0 0.000728174 0 0)
(-50.6118 -0.274188 0 0.000689451 0 0)
(-50.6854 -0.291834 0 0.000937655 0 0)
(-50.7431 -0.313087 0 0.00145735 0 0)
(-50.7967 -0.336108 0 0.00233134 0 0)
(-50.8487 -0.359367 0 0.00374775 0 0)
(-50.8981 -0.38316 0 0.00601913 0 0)
(-50.9434 -0.408252 0 0.00957228 0 0)
(-50.9867 -0.436142 0 0.0150606 0 0)
(-51.0296 -0.468046 0 0.0234022 0 0)
(-51.0777 -0.505581 0 0.0361233 0 0)
(-51.1324 -0.548532 0 0.0551531 0 0)
(-51.2006 -0.596368 0 0.0835641 0 0)
(-51.28 -0.644113 0 0.124349 0 0)
(-51.3795 -0.687905 0 0.181931 0 0)
(-50.023 -0.0446391 0 0.00543926 0 0)
(-50.1051 -0.133686 0 0.00356225 0 0)
(-50.2128 -0.192567 0 0.0022862 0 0)
(-50.3265 -0.225466 0 0.00176911 0 0)
(-50.4218 -0.245499 0 0.00179517 0 0)
(-50.4958 -0.264223 0 0.00220607 0 0)
(-50.5585 -0.285292 0 0.00298998 0 0)
(-50.6192 -0.307838 0 0.0042652 0 0)
(-50.6803 -0.331158 0 0.00623257 0 0)
(-50.7405 -0.355441 0 0.00922342 0 0)
(-50.7977 -0.38107 0 0.0137077 0 0)
(-50.8526 -0.408875 0 0.0203987 0 0)
(-50.9062 -0.439481 0 0.0302336 0 0)
(-50.963 -0.473846 0 0.0446819 0 0)
(-51.0243 -0.511259 0 0.0654899 0 0)
(-51.0961 -0.551059 0 0.095273 0 0)
(-51.1759 -0.588816 0 0.136323 0 0)
(-51.2708 -0.62154 0 0.192011 0 0)
(-50.0334 -0.0411992 0 0.00585818 0 0)
(-50.0857 -0.129773 0 0.00393027 0 0)
(-50.1647 -0.189262 0 0.00244502 0 0)
(-50.2563 -0.224735 0 0.00193879 0 0)
(-50.3444 -0.246126 0 0.00202169 0 0)
(-50.4244 -0.263999 0 0.00255192 0 0)
(-50.4976 -0.283698 0 0.00355363 0 0)
(-50.5669 -0.3056 0 0.00515075 0 0)
(-50.6339 -0.328673 0 0.00756211 0 0)
(-50.698 -0.35237 0 0.0111607 0 0)
(-50.7575 -0.376703 0 0.0164484 0 0)
(-50.8132 -0.402357 0 0.0241559 0 0)
(-50.8664 -0.429872 0 0.035189 0 0)
(-50.9214 -0.459715 0 0.0509143 0 0)
(-50.98 -0.491042 0 0.072819 0 0)
(-51.0465 -0.522633 0 0.103118 0 0)
(-51.1186 -0.550778 0 0.143451 0 0)
(-51.1994 -0.573094 0 0.196446 0 0)
(-50.1063 -0.0333605 0 0.00652411 0 0)
(-50.1401 -0.104008 0 0.00505486 0 0)
(-50.2103 -0.158048 0 0.00395177 0 0)
(-50.2983 -0.192222 0 0.00351224 0 0)
(-50.3813 -0.213308 0 0.00364433 0 0)
(-50.4536 -0.230369 0 0.00436308 0 0)
(-50.5189 -0.248778 0 0.00569331 0 0)
(-50.5823 -0.270332 0 0.00770825 0 0)
(-50.6458 -0.294312 0 0.0106081 0 0)
(-50.7087 -0.319611 0 0.0148046 0 0)
(-50.7684 -0.345367 0 0.0208568 0 0)
(-50.8255 -0.371496 0 0.0295175 0 0)
(-50.8805 -0.397889 0 0.0416379 0 0)
(-50.9381 -0.424872 0 0.0584287 0 0)
(-50.998 -0.451592 0 0.0810832 0 0)
(-51.0656 -0.477459 0 0.111399 0 0)
(-51.1342 -0.499414 0 0.150441 0 0)
(-51.2116 -0.516103 0 0.200247 0 0)
(-49.8358 -0.0386035 0 0.00621537 0 0)
(-49.8665 -0.104068 0 0.00457059 0 0)
(-49.9232 -0.153348 0 0.00330808 0 0)
(-49.9943 -0.188227 0 0.00292443 0 0)
(-50.065 -0.211764 0 0.00325415 0 0)
(-50.1301 -0.229464 0 0.00421579 0 0)
(-50.1895 -0.246646 0 0.00585082 0 0)
(-50.2464 -0.265864 0 0.00829344 0 0)
(-50.3046 -0.287286 0 0.0117614 0 0)
(-50.3671 -0.310046 0 0.0166475 0 0)
(-50.4347 -0.333238 0 0.0234816 0 0)
(-50.5066 -0.356403 0 0.0329909 0 0)
(-50.5807 -0.379082 0 0.0459489 0 0)
(-50.6563 -0.401436 0 0.0634388 0 0)
(-50.7314 -0.422606 0 0.086399 0 0)
(-50.8071 -0.442354 0 0.116287 0 0)
(-50.8799 -0.457947 0 0.153735 0 0)
(-50.9522 -0.468842 0 0.200386 0 0)
(-50.119 -0.0178323 0 0.00760852 0 0)
(-50.125 -0.082226 0 0.0065446 0 0)
(-50.1656 -0.127113 0 0.00487751 0 0)
(-50.2308 -0.161816 0 0.00448389 0 0)
(-50.3014 -0.186127 0 0.00502066 0 0)
(-50.369 -0.203924 0 0.00622252 0 0)
(-50.4315 -0.221223 0 0.00808248 0 0)
(-50.4897 -0.240825 0 0.0107749 0 0)
(-50.5454 -0.261981 0 0.0145956 0 0)
(-50.6008 -0.283211 0 0.01999 0 0)
(-50.6566 -0.303742 0 0.0274507 0 0)
(-50.7132 -0.323883 0 0.037613 0 0)
(-50.7702 -0.343954 0 0.051121 0 0)
(-50.8278 -0.364167 0 0.0689016 0 0)
(-50.8854 -0.383568 0 0.0916505 0 0)
(-50.9434 -0.401217 0 0.120597 0 0)
(-51.0002 -0.414502 0 0.155982 0 0)
(-51.0557 -0.422726 0 0.199238 0 0)
(-49.9613 -0.0579122 0 0.00809554 0 0)
(-49.9842 -0.0913324 0 0.00708072 0 0)
(-50.0321 -0.129795 0 0.00579447 0 0)
(-50.0998 -0.162293 0 0.00536835 0 0)
(-50.1747 -0.184073 0 0.00579857 0 0)
(-50.2505 -0.199351 0 0.00706871 0 0)
(-50.322 -0.214 0 0.00918297 0 0)
(-50.3878 -0.2314 0 0.0122591 0 0)
(-50.4498 -0.251402 0 0.016513 0 0)
(-50.5106 -0.272432 0 0.0223175 0 0)
(-50.5709 -0.292914 0 0.0301336 0 0)
(-50.6302 -0.312218 0 0.0405589 0 0)
(-50.6879 -0.329865 0 0.0541422 0 0)
(-50.7442 -0.345962 0 0.0716586 0 0)
(-50.7991 -0.359717 0 0.0935842 0 0)
(-50.8531 -0.371047 0 0.120875 0 0)
(-50.9047 -0.378125 0 0.153486 0 0)
(-50.9541 -0.381048 0 0.192559 0 0)
(-50.0564 -0.00438412 0 0.00953647 0 0)
(-50.1123 -0.0439767 0 0.00928946 0 0)
(-50.1601 -0.087382 0 0.00762253 0 0)
(-50.2039 -0.118983 0 0.00720867 0 0)
(-50.2497 -0.140239 0 0.0080122 0 0)
(-50.2977 -0.157533 0 0.00970625 0 0)
(-50.345 -0.175304 0 0.0121591 0 0)
(-50.3911 -0.19468 0 0.0154888 0 0)
(-50.4387 -0.214482 0 0.0200123 0 0)
(-50.4908 -0.233339 0 0.0261676 0 0)
(-50.5481 -0.250705 0 0.0343509 0 0)
(-50.6082 -0.266962 0 0.0450283 0 0)
(-50.6695 -0.282436 0 0.0585648 0 0)
(-50.7285 -0.297285 0 0.0755525 0 0)
(-50.7861 -0.310735 0 0.0961679 0 0)
(-50.8381 -0.322045 0 0.121209 0 0)
(-50.8881 -0.329542 0 0.150295 0 0)
(-50.9285 -0.332835 0 0.184495 0 0)
(-50.3562 -0.00682399 0 0.0104667 0 0)
(-50.3589 -0.0678977 0 0.00871 0 0)
(-50.3743 -0.101589 0 0.00655537 0 0)
(-50.4095 -0.122884 0 0.00627013 0 0)
(-50.4572 -0.140691 0 0.0072043 0 0)
(-50.51 -0.156856 0 0.00894876 0 0)
(-50.5661 -0.171433 0 0.0114432 0 0)
(-50.6253 -0.184867 0 0.0148868 0 0)
(-50.6875 -0.197973 0 0.019563 0 0)
(-50.7519 -0.21118 0 0.025796 0 0)
(-50.8169 -0.224484 0 0.0338614 0 0)
(-50.8807 -0.23772 0 0.0441066 0 0)
(-50.9425 -0.250465 0 0.0567594 0 0)
(-51.0024 -0.262342 0 0.0722419 0 0)
(-51.0609 -0.272484 0 0.0905892 0 0)
(-51.1175 -0.280658 0 0.112365 0 0)
(-51.1714 -0.285639 0 0.137093 0 0)
(-51.2207 -0.288063 0 0.16562 0 0)
(-50.0433 -0.0139774 0 0.0107304 0 0)
(-50.0134 -0.0430335 0 0.00915565 0 0)
(-50.0122 -0.0627244 0 0.00657987 0 0)
(-50.0533 -0.0817509 0 0.00643456 0 0)
(-50.1101 -0.0994353 0 0.00768904 0 0)
(-50.1653 -0.113391 0 0.0097868 0 0)
(-50.2164 -0.123979 0 0.0126515 0 0)
(-50.2669 -0.133874 0 0.0164375 0 0)
(-50.3184 -0.145274 0 0.0213416 0 0)
(-50.3718 -0.158451 0 0.0275819 0 0)
(-50.4253 -0.172122 0 0.0353541 0 0)
(-50.4787 -0.185048 0 0.0449356 0 0)
(-50.5291 -0.196281 0 0.0564479 0 0)
(-50.5785 -0.205771 0 0.0701788 0 0)
(-50.623 -0.213232 0 0.0860121 0 0)
(-50.6683 -0.219311 0 0.104343 0 0)
(-50.7056 -0.223339 0 0.124607 0 0)
(-50.7469 -0.226366 0 0.14752 0 0)
(-49.7628 -0.0520765 0 0.0111416 0 0)
(-49.762 -0.0423058 0 0.0104836 0 0)
(-49.7789 -0.0505635 0 0.0085682 0 0)
(-49.8218 -0.0664989 0 0.00820665 0 0)
(-49.8763 -0.0827069 0 0.00878227 0 0)
(-49.9305 -0.0960649 0 0.0102184 0 0)
(-49.9817 -0.105705 0 0.0125342 0 0)
(-50.0319 -0.112561 0 0.0157391 0 0)
(-50.083 -0.118409 0 0.0199176 0 0)
(-50.1357 -0.124968 0 0.0252236 0 0)
(-50.1902 -0.132813 0 0.0317484 0 0)
(-50.2454 -0.141886 0 0.0396015 0 0)
(-50.3001 -0.151146 0 0.0487963 0 0)
(-50.3527 -0.159971 0 0.0595158 0 0)
(-50.4027 -0.167047 0 0.0716203 0 0)
(-50.449 -0.172581 0 0.085417 0 0)
(-50.4925 -0.175582 0 0.1004 0 0)
(-50.5313 -0.177541 0 0.117075 0 0)
(-49.9871 -0.0105415 0 0.0109351 0 0)
(-50.0216 -0.0103876 0 0.0104227 0 0)
(-50.0638 -0.0140648 0 0.00837484 0 0)
(-50.1145 -0.0191134 0 0.00789307 0 0)
(-50.1729 -0.0248185 0 0.00860668 0 0)
(-50.237 -0.0317089 0 0.0101752 0 0)
(-50.304 -0.0393932 0 0.0124143 0 0)
(-50.372 -0.0464746 0 0.0153045 0 0)
(-50.4397 -0.0521577 0 0.0188991 0 0)
(-50.5053 -0.0570548 0 0.0232855 0 0)
(-50.5682 -0.0620426 0 0.0285163 0 0)
(-50.6279 -0.0676696 0 0.034652 0 0)
(-50.6853 -0.0735432 0 0.0416603 0 0)
(-50.7398 -0.0794134 0 0.0496263 0 0)
(-50.7931 -0.0845139 0 0.0583991 0 0)
(-50.8428 -0.089284 0 0.0681615 0 0)
(-50.8919 -0.0931016 0 0.0785391 0 0)
(-50.9352 -0.0973943 0 0.0898733 0 0)
(-50.0299 -0.0126763 0 0.0132766 0 0)
(-50.0715 0.00146799 0 0.0122569 0 0)
(-50.119 0.00570426 0 0.00948546 0 0)
(-50.17 0.00620661 0 0.00840392 0 0)
(-50.2199 0.00586131 0 0.00858314 0 0)
(-50.2718 0.00609334 0 0.00953985 0 0)
(-50.3279 0.00668934 0 0.0110402 0 0)
(-50.3874 0.00630748 0 0.0130264 0 0)
(-50.4498 0.00384423 0 0.0155048 0 0)
(-50.5153 -0.00114394 0 0.0184896 0 0)
(-50.5833 -0.00820134 0 0.0219762 0 0)
(-50.6517 -0.0164427 0 0.0260052 0 0)
(-50.7187 -0.0244351 0 0.0305918 0 0)
(-50.7821 -0.0314653 0 0.0358093 0 0)
(-50.8423 -0.0368038 0 0.0415424 0 0)
(-50.8982 -0.0411863 0 0.0478939 0 0)
(-50.9517 -0.0443927 0 0.0546076 0 0)
(-51.0007 -0.0481537 0 0.0618379 0 0)
(-50.3111 0.0271838 0 0.0111706 0 0)
(-50.3693 0.0361487 0 0.0108578 0 0)
(-50.4352 0.0432427 0 0.00859454 0 0)
(-50.5034 0.0468489 0 0.00761029 0 0)
(-50.5705 0.0461625 0 0.00760069 0 0)
(-50.6329 0.0438883 0 0.00827532 0 0)
(-50.6908 0.0437675 0 0.00940821 0 0)
(-50.7451 0.0468543 0 0.0108453 0 0)
(-50.7968 0.0515961 0 0.0125757 0 0)
(-50.848 0.0553689 0 0.01471 0 0)
(-50.9012 0.0563283 0 0.0173004 0 0)
(-50.9576 0.0538665 0 0.0203077 0 0)
(-51.0167 0.0488414 0 0.0236389 0 0)
(-51.0773 0.0423804 0 0.0273047 0 0)
(-51.1376 0.0359739 0 0.0312549 0 0)
(-51.1966 0.0299418 0 0.0356086 0 0)
(-51.2528 0.0250675 0 0.0402012 0 0)
(-51.3064 0.0203383 0 0.0451388 0 0)
(-49.9001 0.0438373 0 0.0117789 0 0)
(-49.9127 0.0575916 0 0.0101828 0 0)
(-49.9464 0.0686777 0 0.00738215 0 0)
(-50.0085 0.0736257 0 0.00618916 0 0)
(-50.0834 0.0742319 0 0.00591326 0 0)
(-50.1598 0.0731392 0 0.00622362 0 0)
(-50.2339 0.072264 0 0.00692739 0 0)
(-50.3046 0.0723436 0 0.00791637 0 0)
(-50.3705 0.0729799 0 0.00915942 0 0)
(-50.4322 0.0734223 0 0.0106663 0 0)
(-50.4904 0.0734713 0 0.0124481 0 0)
(-50.5468 0.0729863 0 0.0145156 0 0)
(-50.6022 0.0720717 0 0.0168487 0 0)
(-50.6585 0.0703818 0 0.0194436 0 0)
(-50.7155 0.0681171 0 0.0222224 0 0)
(-50.7749 0.0648571 0 0.0252431 0 0)
(-50.8339 0.0613581 0 0.0283848 0 0)
(-50.8953 0.0568742 0 0.0316956 0 0)
(-49.9099 0.0149016 0 0.00926255 0 0)
(-49.9611 0.0633015 0 0.00797411 0 0)
(-50.0154 0.0914601 0 0.00580953 0 0)
(-50.0797 0.103132 0 0.00488014 0 0)
(-50.149 0.107623 0 0.00478502 0 0)
(-50.2186 0.110908 0 0.00512379 0 0)
(-50.2868 0.115068 0 0.00566055 0 0)
(-50.3537 0.119856 0 0.00632024 0 0)
(-50.4194 0.124029 0 0.0071321 0 0)
(-50.4834 0.126522 0 0.00814051 0 0)
(-50.5454 0.127312 0 0.00935358 0 0)
(-50.6051 0.126909 0 0.0107657 0 0)
(-50.6623 0.126168 0 0.0123555 0 0)
(-50.7173 0.12543 0 0.0141269 0 0)
(-50.7711 0.125146 0 0.0160292 0 0)
(-50.8235 0.124875 0 0.0181068 0 0)
(-50.8758 0.124836 0 0.0202721 0 0)
(-50.9268 0.124021 0 0.0225601 0 0)
(-49.8903 0.0752878 0 0.00829113 0 0)
(-49.9378 0.0911092 0 0.00570819 0 0)
(-50.0099 0.112076 0 0.00360752 0 0)
(-50.1002 0.122827 0 0.00286616 0 0)
(-50.195 0.126209 0 0.00280488 0 0)
(-50.285 0.12841 0 0.00302231 0 0)
(-50.3676 0.131523 0 0.00335002 0 0)
(-50.4448 0.13451 0 0.00376228 0 0)
(-50.5195 0.136223 0 0.0042814 0 0)
(-50.5931 0.1365 0 0.00493156 0 0)
(-50.6661 0.135988 0 0.00571857 0 0)
(-50.7381 0.135143 0 0.00664116 0 0)
(-50.8086 0.134255 0 0.00768626 0 0)
(-50.877 0.133203 0 0.00884786 0 0)
(-50.9426 0.132154 0 0.0100915 0 0)
(-51.0056 0.130833 0 0.011445 0 0)
(-51.0656 0.129598 0 0.012854 0 0)
(-51.1237 0.127927 0 0.0143355 0 0)
(-49.7668 0.044713 0 0.00761914 0 0)
(-49.7647 0.113543 0 0.00537763 0 0)
(-49.8189 0.152188 0 0.00344788 0 0)
(-49.9128 0.169053 0 0.00260681 0 0)
(-50.0087 0.176064 0 0.00233847 0 0)
(-50.0919 0.180762 0 0.00238855 0 0)
(-50.1658 0.185374 0 0.00259024 0 0)
(-50.238 0.189725 0 0.00286121 0 0)
(-50.3116 0.193468 0 0.00318832 0 0)
(-50.3858 0.196521 0 0.00358907 0 0)
(-50.4589 0.198841 0 0.00408074 0 0)
(-50.53 0.200273 0 0.00466776 0 0)
(-50.5988 0.200908 0 0.00533907 0 0)
(-50.665 0.200851 0 0.00608964 0 0)
(-50.7292 0.200547 0 0.00689132 0 0)
(-50.7908 0.200082 0 0.00777585 0 0)
(-50.8514 0.199866 0 0.00870322 0 0)
(-50.9097 0.199504 0 0.00966817 0 0)
(-50.0256 0.0443205 0 0.00741942 0 0)
(-50.1281 0.129934 0 0.00554515 0 0)
(-50.2525 0.15119 0 0.00369148 0 0)
(-50.3659 0.153919 0 0.00291765 0 0)
(-50.4533 0.15887 0 0.00265511 0 0)
(-50.5229 0.167099 0 0.00258509 0 0)
(-50.589 0.174626 0 0.00257721 0 0)
(-50.6596 0.179758 0 0.00261435 0 0)
(-50.7345 0.182939 0 0.00271767 0 0)
(-50.8109 0.184979 0 0.00289747 0 0)
(-50.8872 0.186204 0 0.00314678 0 0)
(-50.9634 0.186658 0 0.00345069 0 0)
(-51.0409 0.186542 0 0.0038007 0 0)
(-51.1196 0.186012 0 0.00420028 0 0)
(-51.1997 0.185464 0 0.00463433 0 0)
(-51.2792 0.184978 0 0.00513073 0 0)
(-51.3584 0.184837 0 0.00566478 0 0)
(-51.4346 0.184781 0 0.00621576 0 0)
(-49.9275 0.0918256 0 0.00566014 0 0)
(-50.0653 0.194354 0 0.00318243 0 0)
(-50.2107 0.221364 0 0.00174683 0 0)
(-50.3307 0.220741 0 0.00128058 0 0)
(-50.4227 0.223156 0 0.00108382 0 0)
(-50.5008 0.231227 0 0.000964286 0 0)
(-50.5772 0.239109 0 0.000891435 0 0)
(-50.6557 0.244505 0 0.000867288 0 0)
(-50.7341 0.248438 0 0.000888895 0 0)
(-50.8092 0.25212 0 0.000950452 0 0)
(-50.8804 0.255889 0 0.00105133 0 0)
(-50.9489 0.259482 0 0.00119693 0 0)
(-51.0164 0.262591 0 0.00139103 0 0)
(-51.084 0.265021 0 0.00163344 0 0)
(-51.1524 0.266829 0 0.0019095 0 0)
(-51.2213 0.267991 0 0.00223138 0 0)
(-51.2908 0.268713 0 0.0025751 0 0)
(-51.3594 0.268812 0 0.00293072 0 0)
(-50.1698 0.0836224 0 0.00496091 0 0)
(-50.3499 0.152356 0 0.00238438 0 0)
(-50.5408 0.174533 0 0.00123695 0 0)
(-50.6835 0.17851 0 0.000853734 0 0)
(-50.7869 0.186861 0 0.000676168 0 0)
(-50.8768 0.198577 0 0.000557727 0 0)
(-50.9653 0.207994 0 0.00047471 0 0)
(-51.0529 0.213929 0 0.000424436 0 0)
(-51.1376 0.21785 0 0.000400767 0 0)
(-51.2181 0.221021 0 0.000400764 0 0)
(-51.2946 0.223798 0 0.000424178 0 0)
(-51.3671 0.226436 0 0.000469747 0 0)
(-51.4362 0.228968 0 0.000538765 0 0)
(-51.5011 0.231677 0 0.000630539 0 0)
(-51.5637 0.234365 0 0.000742861 0 0)
(-51.6232 0.237191 0 0.000884238 0 0)
(-51.6836 0.239809 0 0.00104834 0 0)
(-51.7423 0.242398 0 0.00122175 0 0)
(-50.189 0.195429 0 0.00281336 0 0)
(-50.5794 0.287573 0 0.000207466 0 0)
(-50.9038 0.280864 0 -0.000374738 0 0)
(-51.112 0.277356 0 -0.000542869 0 0)
(-51.2351 0.283177 0 -0.0006948 0 0)
(-51.313 0.288996 0 -0.000812352 0 0)
(-51.3654 0.292453 0 -0.000888043 0 0)
(-51.3981 0.294815 0 -0.000934475 0 0)
(-51.411 0.297167 0 -0.000964022 0 0)
(-51.4057 0.299808 0 -0.000982608 0 0)
(-51.383 0.302273 0 -0.000986266 0 0)
(-51.3468 0.304351 0 -0.000972584 0 0)
(-51.2973 0.305729 0 -0.000938176 0 0)
(-51.2397 0.306801 0 -0.000888701 0 0)
(-51.1709 0.30753 0 -0.000826114 0 0)
(-51.0991 0.308636 0 -0.000751835 0 0)
(-51.0156 0.309922 0 -0.000668236 0 0)
(-50.9363 0.312165 0 -0.000593336 0 0)
(-49.1713 0.125361 0 0.0022499 0 0)
(-47.5951 0.220521 0 0.000197513 0 0)
(-45.9772 0.212527 0 -6.37487e-05 0 0)
(-44.346 0.204096 0 -0.000159307 0 0)
(-42.7771 0.201069 0 -0.000259564 0 0)
(-41.3017 0.198028 0 -0.000321917 0 0)
(-39.9175 0.194087 0 -0.00035478 0 0)
(-38.6143 0.189499 0 -0.000371421 0 0)
(-37.3839 0.184361 0 -0.000376098 0 0)
(-36.2225 0.178921 0 -0.000373253 0 0)
(-35.1256 0.17346 0 -0.000365446 0 0)
(-34.0921 0.168325 0 -0.000354638 0 0)
(-33.1149 0.163558 0 -0.000340884 0 0)
(-32.1957 0.15931 0 -0.00032748 0 0)
(-31.3224 0.155415 0 -0.000313532 0 0)
(-30.5028 0.152064 0 -0.000295944 0 0)
(-29.7152 0.149019 0 -0.000279592 0 0)
(-28.9819 0.146695 0 -0.00027408 0 0)
(-0.0187487 0.0447106 -2.40322e-22 -0.0943917 4.75228e-22 4.11401e-39)
(-0.0876279 0.0208524 5.86005e-22 0.0106617 -2.55188e-22 4.04811e-39)
(-0.000766883 -0.095158 0 0.0455726 0 0)
(0.311298 -0.199085 0 0.0227985 0 0)
(0.719927 -0.182242 0 -0.049276 0 0)
(0.99691 -0.048969 -6.26196e-22 -0.108632 -3.74018e-22 3.80717e-39)
(0.986589 0.139284 0 -0.124884 0 0)
(0.654199 0.295098 0 -0.0988543 0 0)
(0.097635 0.371967 0 -0.0501469 0 0)
(-0.53561 0.361785 0 0.00175756 0 0)
(-1.09407 0.285846 -1.13859e-21 0.0402053 4.72515e-22 3.50084e-39)
(-1.49312 0.197068 0 0.0560657 0 0)
(-1.71642 0.122624 0 0.059756 0 0)
(-1.76767 0.0324868 0 0.065009 0 0)
(-1.67773 -0.0848388 0 0.0699657 0 0)
(-1.43899 -0.234694 -2.72053e-21 0.0745537 2.36611e-22 3.22114e-39)
(-0.994045 -0.211469 0 0.0604358 0 0)
(-0.680462 0.0111839 0 0.0526139 0 0)
(-0.507473 0.119622 0 0.0680907 0 0)
(-0.453996 0.139326 0 0.0879663 0 0)
(-0.348222 0.123611 0 0.109039 0 0)
(-0.0433752 0.101122 0 0.132235 0 0)
(0.533248 0.024558 0 0.144296 0 0)
(1.28153 -0.167535 -3.74338e-21 0.132171 2.10471e-23 2.83499e-39)
(2.3673 -0.409973 3.71128e-21 0.143812 6.86594e-23 2.79053e-39)
(3.59456 -0.429746 -3.64398e-21 0.162414 -1.30591e-22 2.74666e-39)
(4.84239 -0.3506 -3.57521e-21 0.209496 -1.75082e-22 2.70326e-39)
(6.16279 -0.227881 0 0.255689 0 0)
(7.34782 -0.107379 0 0.227627 0 0)
(8.4817 -0.230516 3.49869e-21 0.250602 7.97088e-23 2.57152e-39)
(9.65667 -0.378985 3.58905e-21 0.249272 1.00153e-22 2.52669e-39)
(10.8942 -0.462554 0 0.23585 0 0)
(12.2002 -0.491086 0 0.22689 0 0)
(13.451 -0.462947 4.2015e-21 0.234838 5.85419e-23 2.39563e-39)
(14.5569 -0.417328 0 0.258617 0 0)
(15.5506 -0.385292 0 0.300875 0 0)
(16.5073 -0.416272 -4.98253e-21 0.369541 -1.37301e-23 2.27e-39)
(17.5559 -0.513304 0 0.403955 0 0)
(18.7467 -0.615989 -5.6244e-21 0.382085 -3.23116e-23 2.19004e-39)
(19.9225 -0.619426 -1.18117e-20 0.314867 -5.2066e-23 8.60272e-39)
(20.818 -0.465831 0 0.265703 0 0)
(21.2486 -0.266967 0 0.260453 0 0)
(21.2254 -0.150315 0 0.295282 0 0)
(21.0204 -0.253684 0 0.322742 0 0)
(21.1458 -0.451609 0 0.3859 0 0)
(21.647 -0.717865 -1.27122e-20 0.380893 6.86563e-22 7.70727e-39)
(22.5215 -1.13168 -1.29215e-20 0.378135 9.23074e-22 7.56154e-39)
(23.3849 -1.21065 -1.29727e-20 0.454672 9.48476e-22 7.41736e-39)
(24.3034 -0.711153 0 0.273368 0 0)
(24.7858 -0.538613 1.32244e-20 0.344287 -2.91436e-22 7.13327e-39)
(25.6198 -0.530172 0 0.270237 0 0)
(26.4874 -0.463188 -1.36915e-20 0.255789 2.0681e-22 6.86099e-39)
(27.3082 -0.354813 -1.4149e-20 0.234049 1.16838e-22 6.72995e-39)
(27.951 -0.30518 0 0.206038 0 0)
(28.5925 -0.290332 0 0.183119 0 0)
(28.9201 -0.483373 0 0.204544 0 0)
(29.1996 -0.332936 -1.66564e-20 0.20102 3.30591e-22 6.2334e-39)
(28.982 -0.236855 0 0.285757 0 0)
(29.2378 -0.316 0 0.224656 0 0)
(29.5986 -0.415431 0 0.190724 0 0)
(30.6653 -0.519839 0 0.161609 0 0)
(31.3794 -1.10146 0 0.202379 0 0)
(32.2368 -0.892252 0 0.153544 0 0)
(31.5647 -0.287935 0 0.290085 0 0)
(30.8034 -0.30413 0 0.282388 0 0)
(30.1985 -0.288599 1.72739e-20 0.281376 3.53794e-22 5.22194e-39)
(29.5501 -0.298389 0 0.268883 0 0)
(28.9554 -0.271881 0 0.257366 0 0)
(28.2971 -0.250427 -1.39795e-20 0.245926 -1.30363e-22 4.90669e-39)
(27.6106 -0.227506 -1.29711e-20 0.235614 -1.65498e-22 4.80528e-39)
(26.9067 -0.207284 0 0.226041 0 0)
(26.2267 -0.16182 1.12396e-20 0.2202 3.99619e-23 4.60765e-39)
(25.7121 -0.158818 -1.0562e-20 0.223573 6.14884e-23 4.51061e-39)
(25.48 -0.205248 0 0.224603 0 0)
(25.3642 -0.221278 9.2161e-21 0.211889 -2.75659e-22 4.31809e-39)
(25.2011 -0.169773 0 0.188975 0 0)
(24.8386 -0.0757288 0 0.16408 0 0)
(24.0738 0.0648825 -6.29257e-21 0.144249 1.17485e-23 4.04532e-39)
(22.6831 0.255476 0 0.13515 0 0)
(20.4653 0.469147 4.77407e-21 0.137441 5.03226e-23 3.87627e-39)
(17.4623 0.626535 0 0.144248 0 0)
(13.8526 0.614801 -3.33412e-21 0.143501 -2.10409e-22 3.71677e-39)
(10.4742 0.505993 -2.68976e-21 0.147487 -1.342e-22 3.63978e-39)
(6.94166 0.295547 -2.06392e-21 0.158867 9.65117e-25 3.56416e-39)
(4.47805 -0.1721 -3.77109e-21 0.162929 6.64925e-22 1.39579e-38)
(1.65643 -0.476045 3.12106e-21 0.216651 -1.06132e-21 1.36625e-38)
(-1.14861 -0.503131 0 0.230063 0 0)
(-5.92838 0.330306 0 0.305874 0 0)
(-12.7159 1.83522 0 0.263709 0 0)
(-19.9339 1.68026 -7.94449e-21 0.304821 2.05308e-21 1.24967e-38)
(-23.6709 0.905425 -1.12588e-20 0.219796 9.94369e-22 1.22131e-38)
(-25.2039 0.350585 1.24493e-20 0.166069 -1.47746e-22 1.19387e-38)
(-25.0466 -0.0723389 0 0.122143 0 0)
(-23.6299 -0.371597 -8.50129e-21 0.0920803 -9.89914e-22 1.14202e-38)
(-21.2783 -0.586042 -4.13827e-21 0.0692431 -1.29191e-21 1.11746e-38)
(-18.2395 -0.732452 1.21285e-21 0.0519201 -1.46266e-21 1.09364e-38)
(-14.7193 -0.82603 0 0.0378111 0 0)
(-10.8936 -0.875348 0 0.0261426 0 0)
(-6.91728 -0.887406 0 0.016205 0 0)
(-2.92949 -0.867675 2.4595e-20 0.0077581 -1.27668e-21 1.00328e-38)
(0.946369 -0.822858 0 0.000643447 0 0)
(4.60136 -0.755063 0 -0.00519867 0 0)
(7.94927 -0.670639 -3.59879e-20 -0.00977458 6.498e-22 9.38132e-39)
(10.918 -0.574142 0 -0.0131257 0 0)
(13.4612 -0.470755 0 -0.0153482 0 0)
(15.5478 -0.364611 -3.78542e-20 -0.0165674 -1.22616e-23 8.7449e-39)
(17.1633 -0.259781 0 -0.0169247 0 0)
(18.3107 -0.159674 0 -0.0165733 0 0)
(19.0067 -0.0671612 3.14495e-20 -0.0156791 4.62569e-22 8.13118e-39)
(19.2831 0.0157862 2.81523e-20 -0.014382 5.49067e-22 7.93331e-39)
(19.1825 0.0875722 0 -0.0128116 0 0)
(18.7545 0.147333 -2.08772e-20 -0.0110781 -6.31014e-22 7.54955e-39)
(18.0495 0.195302 0 -0.0092451 0 0)
(17.1184 0.232155 1.37081e-20 -0.00742826 6.16266e-22 7.18213e-39)
(16.0054 0.258741 0 -0.00580516 0 0)
(14.7498 0.277765 7.43108e-21 -0.0041438 5.48491e-22 6.82762e-39)
(13.3888 0.289927 4.74547e-21 -0.0025681 5.0362e-22 6.6555e-39)
(11.9548 0.295884 0 -0.00110503 0 0)
(10.4785 0.296082 0 0.000215309 0 0)
(8.98824 0.290844 0 0.00136411 0 0)
(7.5104 0.280724 0 0.00230549 0 0)
(6.06839 0.26645 0 0.00301694 0 0)
(4.68318 0.249635 0 0.00360815 0 0)
(3.37289 0.231273 0 0.00399855 0 0)
(2.14499 0.211912 -6.00209e-21 0.00425149 1.73549e-22 5.39809e-39)
(1.00808 0.191112 6.3744e-21 0.00436609 -1.51689e-22 5.25213e-39)
(-0.0359261 0.170452 0 0.00438113 0 0)
(-0.986004 0.150427 0 0.00432452 0 0)
(-1.84343 0.131258 0 0.00421628 0 0)
(-2.61125 0.113256 0 0.00407543 0 0)
(-3.29397 0.09668 1.43837e-20 0.00391889 -1.79121e-22 1.82777e-38)
(-3.89693 0.0816269 0 0.00376218 0 0)
(-4.4259 0.0681903 -1.46679e-20 0.00361446 1.49681e-22 1.72678e-38)
(-4.88773 0.0567269 1.4785e-20 0.003474 -1.35145e-22 1.67794e-38)
(-5.29131 0.0476673 0 0.00333522 0 0)
(-5.64761 0.0409661 0 0.00320771 0 0)
(-5.96735 0.0360346 0 0.00311872 0 0)
(-6.25969 0.0321565 -1.51174e-20 0.00309084 8.38538e-23 1.49298e-38)
(-6.53112 0.0287946 -1.51583e-20 0.00313258 6.75201e-23 1.44921e-38)
(-6.78532 0.0256681 0 0.00324109 0 0)
(-7.02378 0.022584 -1.51727e-20 0.0034109 3.62504e-23 1.36447e-38)
(-7.24589 0.0193474 -1.5141e-20 0.00363756 1.75333e-23 1.32346e-38)
(-7.44993 0.0157427 1.50781e-20 0.00391772 2.4472e-24 1.28334e-38)
(-7.633 0.0115554 0 0.00424804 0 0)
(-7.7911 0.00661911 0 0.00462602 0 0)
(-7.91911 0.000838294 1.4718e-20 0.0050522 5.84724e-23 1.16809e-38)
(-8.0114 -0.00580161 0 0.00553474 0 0)
(-8.06125 -0.0132466 0 0.00608981 0 0)
(-8.06158 -0.0213178 0 0.00673775 0 0)
(-8.00515 -0.0297764 0 0.0074988 0 0)
(-7.88504 -0.0383671 -1.36014e-20 0.00839469 -1.69112e-22 9.92193e-39)
(-7.6943 -0.0466282 -1.32403e-20 0.00946633 -1.88261e-22 9.59327e-39)
(-7.42675 -0.054092 0 0.0107926 0 0)
(-7.07488 -0.0608685 -1.23038e-20 0.0125449 -2.43828e-22 8.95813e-39)
(-6.62639 -0.0663364 0 0.0150779 0 0)
(-6.06847 -0.0672927 0 0.0187429 0 0)
(-5.39506 -0.0602426 -9.89565e-21 0.0236159 -2.77509e-22 8.0607e-39)
(-4.60746 -0.0429557 0 0.0291179 0 0)
(-3.72658 -0.0113166 -7.62001e-21 0.0341008 -1.6354e-22 7.49864e-39)
(-2.83098 0.0313656 0 0.0366794 0 0)
(-2.02855 0.065157 0 0.0348459 0 0)
(-1.41139 0.0634486 -4.7718e-21 0.0298456 6.0829e-23 6.7048e-39)
(-1.00754 0.0215113 0 0.0260905 0 0)
(-0.662247 -0.0543313 -3.79192e-21 0.0251138 -1.93202e-22 6.20564e-39)
(-0.215027 -0.0939204 0 0.0235312 0 0)
(0.300956 -0.0897633 0 0.0195118 0 0)
(0.856138 -0.0686048 0 0.0170038 0 0)
(1.42007 -0.0280123 1.12676e-21 0.0166899 6.02982e-23 5.28064e-39)
(1.88797 0.00872014 0 0.017872 0 0)
(2.21462 0.0275152 -1.14218e-23 0.0185339 -3.62613e-24 4.85363e-39)
(2.4249 0.0306716 0 0.0180063 0 0)
(2.5522 0.0178411 0 0.0168517 0 0)
(2.65941 0.000869017 0 0.0161446 0 0)
(2.79329 -0.0124421 0 0.0164524 0 0)
(2.96427 -0.00791199 0 0.0157876 0 0)
(3.10149 0.0126608 0 0.0149842 0 0)
(3.13799 0.030179 0 0.0131867 0 0)
(3.12873 0.0129482 -7.05676e-21 0.00624732 -4.59047e-23 1.3464e-38)
(3.08327 0.0341203 0 0.00345952 0 0)
(2.85358 0.0776009 0 0.00428235 0 0)
(0.00673993 -0.00737815 4.02807e-23 -0.251959 -3.3225e-21 3.70207e-38)
(0.0402567 -0.11616 -1.0504e-23 0.200832 2.65736e-21 3.64928e-38)
(0.158286 -0.296007 0 0.578347 0 0)
(0.270472 -0.328789 -1.97972e-22 0.530213 -2.78093e-22 1.57101e-38)
(0.243363 -0.0198916 0 -0.0136631 0 0)
(-0.0414996 0.509198 -5.28396e-22 -0.564121 7.93559e-22 3.7879e-39)
(-0.537092 0.98914 1.78512e-21 -0.788439 -2.36096e-21 1.48918e-38)