/*--------------------------------*- C++ -*----------------------------------*\
  =========                 |
  \\      /  F ield         | OpenFOAM: The Open Source CFD Toolbox
   \\    /   O peration     | Website:  https://openfoam.org
    \\  /    A nd           | Version:  9
     \\/     M anipulation  |
\*---------------------------------------------------------------------------*/
FoamFile
{
    format      ascii;
    class       volScalarField;
    location    "0.057";
    object      k;
}
// * * * * * * * * * * * * * * * * * * * * * * * * * * * * * * * * * * * * * //

dimensions      [0 2 -2 0 0 0 0];

internalField   nonuniform List<scalar> 
12225
(
6.42818e-05
0.000166869
0.000187038
0.000166327
9.6299e-05
5.42141e-05
3.61366e-05
2.94754e-05
2.80452e-05
2.86576e-05
3.44616e-05
6.42345e-05
0.000128689
0.000163463
0.000171705
0.00016769
0.000112499
0.000217102
2.13884e-05
3.30994e-05
3.77265e-05
3.76962e-05
3.44765e-05
2.88306e-05
2.54498e-05
2.38585e-05
2.34257e-05
2.34769e-05
2.41434e-05
2.70883e-05
3.48555e-05
5.25482e-05
8.93036e-05
0.000117928
0.000119802
0.000131739
2.00633e-05
1.90381e-05
1.7041e-05
1.64018e-05
1.64235e-05
1.66993e-05
1.68063e-05
1.67246e-05
1.61105e-05
1.54991e-05
1.5459e-05
1.56428e-05
1.64288e-05
1.94723e-05
2.70333e-05
3.29355e-05
4.87909e-05
5.79995e-05
2.00497e-05
2.00326e-05
1.99331e-05
1.97601e-05
1.94602e-05
1.92308e-05
1.90156e-05
1.85829e-05
1.76108e-05
1.46948e-05
1.03734e-05
8.34298e-06
8.00737e-06
8.22776e-06
9.70458e-06
1.20583e-05
1.74781e-05
2.13234e-05
2.14242e-05
2.14201e-05
2.22421e-05
2.39235e-05
2.47071e-05
2.54081e-05
3.02636e-05
3.18646e-05
3.00427e-05
2.63383e-05
2.2975e-05
2.03527e-05
1.84261e-05
1.71746e-05
1.67715e-05
1.68613e-05
1.74573e-05
1.8952e-05
2.21388e-05
2.15746e-05
2.11464e-05
2.13965e-05
2.18181e-05
2.23734e-05
2.41232e-05
2.62411e-05
2.66153e-05
2.65209e-05
2.67025e-05
2.73265e-05
2.75112e-05
2.71736e-05
2.65127e-05
2.57079e-05
2.4255e-05
2.33227e-05
2.16525e-05
2.29767e-05
2.459e-05
3.6575e-05
5.29846e-05
5.80885e-05
5.69466e-05
4.97927e-05
3.80706e-05
3.1881e-05
3.03425e-05
3.08098e-05
3.4201e-05
5.12274e-05
8.84117e-05
0.00010463
0.000104872
9.11131e-05
2.97736e-05
2.83101e-05
2.71535e-05
4.30605e-05
6.24259e-05
5.92398e-05
4.13877e-05
3.1714e-05
2.977e-05
2.96981e-05
3.04193e-05
3.66534e-05
7.08964e-05
0.000126951
0.000146233
0.000145237
0.000129869
9.25784e-05
2.54361e-05
2.3564e-05
2.24716e-05
2.34094e-05
2.7357e-05
3.85929e-05
4.21678e-05
3.90844e-05
3.13905e-05
2.85685e-05
2.85106e-05
3.08718e-05
4.2918e-05
9.52933e-05
0.000172672
0.000201101
0.000199594
0.000172977
2.10494e-05
2.1042e-05
2.10582e-05
2.16626e-05
2.44959e-05
2.76058e-05
2.79054e-05
2.71259e-05
2.49968e-05
2.43573e-05
2.47283e-05
2.79887e-05
4.38087e-05
9.15078e-05
0.000124962
0.000137106
0.000138083
0.000131352
2.60979e-05
2.25378e-05
2.16739e-05
2.24206e-05
2.24709e-05
2.17094e-05
2.10151e-05
2.08858e-05
2.09548e-05
2.15973e-05
2.44778e-05
3.67042e-05
5.28917e-05
6.01944e-05
6.17409e-05
6.13766e-05
5.70777e-05
4.91244e-05
2.08915e-05
2.06687e-05
2.13953e-05
2.51839e-05
2.78851e-05
2.70999e-05
2.40568e-05
2.22714e-05
2.17479e-05
2.17843e-05
2.25734e-05
2.69149e-05
3.15418e-05
3.26193e-05
3.24181e-05
3.06628e-05
2.7959e-05
2.66638e-05
2.00349e-05
2.0916e-05
2.4323e-05
2.66444e-05
2.58807e-05
2.32433e-05
2.21183e-05
2.1947e-05
2.22958e-05
2.4887e-05
3.17035e-05
3.62213e-05
3.78462e-05
3.79313e-05
3.72649e-05
3.39996e-05
3.07478e-05
2.91831e-05
2.03747e-05
2.21851e-05
2.4238e-05
2.46577e-05
2.35488e-05
2.16619e-05
2.09826e-05
2.08502e-05
2.08895e-05
2.12234e-05
2.24007e-05
2.59036e-05
3.84283e-05
5.3403e-05
6.05572e-05
6.1939e-05
6.1552e-05
5.88212e-05
2.13352e-05
2.17134e-05
2.24202e-05
2.2095e-05
2.11127e-05
2.08406e-05
2.08382e-05
2.10221e-05
2.16167e-05
2.24016e-05
2.3793e-05
2.69525e-05
3.53555e-05
4.28745e-05
4.63754e-05
4.68937e-05
4.54814e-05
4.22978e-05
2.33114e-05
2.36674e-05
2.18189e-05
2.15608e-05
2.15837e-05
2.17396e-05
2.18216e-05
2.19555e-05
2.26397e-05
2.32405e-05
2.29288e-05
2.25566e-05
2.28061e-05
2.42865e-05
2.60414e-05
2.69065e-05
2.70679e-05
2.72042e-05
2.04739e-05
2.05362e-05
2.07553e-05
2.10237e-05
2.12564e-05
2.15524e-05
2.18863e-05
2.21274e-05
2.25836e-05
2.3283e-05
2.37322e-05
2.36137e-05
2.24915e-05
2.17917e-05
2.16927e-05
2.16776e-05
2.16149e-05
2.16027e-05
2.00348e-05
2.03811e-05
2.12024e-05
2.19638e-05
2.30451e-05
2.34016e-05
2.32831e-05
2.29174e-05
2.22164e-05
2.16028e-05
2.12253e-05
2.10305e-05
2.09618e-05
2.09694e-05
2.10582e-05
2.1168e-05
2.11839e-05
2.11781e-05
2.04395e-05
2.06272e-05
2.12046e-05
2.26157e-05
2.44147e-05
2.74346e-05
2.86169e-05
2.83698e-05
2.63347e-05
2.31321e-05
2.15714e-05
2.09139e-05
2.07292e-05
2.07698e-05
2.12588e-05
2.15231e-05
2.14473e-05
2.10304e-05
2.18941e-05
2.29126e-05
2.20258e-05
2.10485e-05
2.11021e-05
2.24209e-05
2.74773e-05
3.00896e-05
3.01285e-05
2.86872e-05
2.49549e-05
2.26183e-05
2.1427e-05
2.08691e-05
2.06472e-05
2.06006e-05
2.06421e-05
2.10458e-05
2.14604e-05
2.22182e-05
2.18804e-05
2.10122e-05
2.09538e-05
2.14103e-05
2.21681e-05
2.24659e-05
2.25785e-05
2.27947e-05
2.35671e-05
2.37119e-05
2.32293e-05
2.25211e-05
2.22425e-05
2.2145e-05
2.21274e-05
2.21374e-05
2.02132e-05
2.02941e-05
2.03102e-05
2.03949e-05
2.0592e-05
2.06816e-05
2.0719e-05
2.0771e-05
2.09292e-05
2.17742e-05
2.45622e-05
2.56976e-05
2.56201e-05
2.49445e-05
2.45585e-05
2.44958e-05
2.45532e-05
2.49619e-05
2.0902e-05
2.10908e-05
2.15769e-05
2.30694e-05
2.39313e-05
2.39302e-05
2.32053e-05
2.23157e-05
2.21452e-05
2.22896e-05
2.30798e-05
2.39503e-05
2.49271e-05
2.62304e-05
2.75324e-05
2.84613e-05
2.90071e-05
2.90529e-05
2.26812e-05
2.16824e-05
2.21911e-05
2.2517e-05
2.25773e-05
2.24939e-05
2.22699e-05
2.21933e-05
2.21916e-05
2.22381e-05
2.24225e-05
2.29621e-05
2.45448e-05
2.96635e-05
4.99257e-05
7.51091e-05
8.7202e-05
8.99744e-05
2.07733e-05
2.08769e-05
2.10511e-05
2.1195e-05
2.12312e-05
2.11956e-05
2.105e-05
2.10204e-05
2.10769e-05
2.14453e-05
2.30142e-05
2.90284e-05
5.1659e-05
0.000149025
0.000276219
0.000323326
0.000322329
0.000286805
2.01829e-05
2.02915e-05
2.0374e-05
2.04898e-05
2.07686e-05
2.12133e-05
2.15332e-05
2.17714e-05
2.21096e-05
2.27751e-05
2.43357e-05
2.87854e-05
4.49263e-05
6.54891e-05
7.31891e-05
7.33886e-05
7.07811e-05
6.02841e-05
2.00056e-05
2.0085e-05
2.00934e-05
2.00215e-05
1.97174e-05
1.95149e-05
1.95028e-05
1.95259e-05
1.95916e-05
1.96966e-05
1.98745e-05
2.03267e-05
2.1061e-05
2.14857e-05
2.15659e-05
2.1501e-05
2.10872e-05
2.05789e-05
2.00023e-05
1.81786e-05
1.57025e-05
1.31238e-05
1.1255e-05
1.05568e-05
1.04951e-05
1.0643e-05
1.13468e-05
1.32288e-05
1.4928e-05
1.61432e-05
1.69118e-05
1.73183e-05
1.74774e-05
1.75002e-05
1.7452e-05
1.7409e-05
2.02255e-05
2.06951e-05
2.14854e-05
2.16909e-05
2.15902e-05
2.15022e-05
2.15801e-05
2.21148e-05
2.45393e-05
2.76417e-05
2.89221e-05
2.91183e-05
2.898e-05
2.81949e-05
2.75617e-05
2.74933e-05
2.77142e-05
2.87797e-05
3.67105e-05
4.80379e-05
4.93776e-05
4.73574e-05
3.91717e-05
3.4321e-05
3.37208e-05
3.54691e-05
4.43283e-05
5.19634e-05
5.41775e-05
5.40793e-05
5.22409e-05
5.11469e-05
5.13411e-05
5.37347e-05
6.43494e-05
0.000103936
0.0568498
0.0789602
0.0832317
0.0825853
0.0800484
0.0783283
0.0778348
0.0775937
0.0769904
0.0761956
0.0755843
0.0744693
0.0731856
0.0702237
0.0672671
0.0645545
0.0609556
0.0568892
0.0498899
0.0463042
0.0405335
0.0347286
0.034128
0.0446825
0.079737
0.180863
0.242515
0.24555
0.227104
0.2076
0.200099
0.186565
0.167784
0.159711
0.153615
0.14463
0.139137
0.137046
0.136048
0.13569
0.135688
0.136274
0.138016
0.140741
0.144088
0.14787
0.151888
0.156018
0.160365
0.165633
0.173014
0.18312
0.190987
0.1943
0.19514
0.196402
0.197183
0.19048
0.18702
0.191391
0.211835
0.225561
0.229335
0.230489
0.228567
0.224888
0.21965
0.212192
0.200613
0.184574
0.170565
0.166603
0.171132
0.203352
0.338281
0.472282
0.5175
0.524171
0.514549
0.46481
0.33275
0.213202
0.13218
0.0913371
0.0885707
0.103891
0.0987165
0.062448
0.0459874
0.0425615
0.0455816
0.0470734
0.0474249
0.0443708
0.0398778
0.0345226
0.0292522
0.0242542
0.020298
0.0175449
0.0161896
0.015669
0.0157917
0.0164422
0.0166878
0.0169393
0.0170477
0.0170929
0.0171002
0.0170277
0.0168412
0.0166778
0.0165565
0.0163934
0.0161848
0.0160245
0.0159421
0.0158663
0.015896
0.0160526
0.0161758
0.0162345
0.0162528
0.016178
0.0160328
0.0158336
0.0155781
0.0152626
0.0148804
0.0144083
0.0138377
0.0131379
0.0122812
0.0112287
0.00992663
0.00847122
0.00689316
0.00544524
0.00450302
0.00414701
0.00404992
0.00395114
0.0037646
0.0035098
0.0031915
0.00278861
0.00234469
0.00192368
0.00162492
0.00153248
0.00153924
0.00160388
0.00172334
0.00175989
0.00174493
0.00164865
0.00155718
0.00150432
0.00147048
0.00145891
0.00146834
0.0015761
0.00179946
0.00183807
0.00152525
0.000871781
0.000626702
0.000604196
0.000612461
0.000611041
0.000592766
0.000534055
0.00036993
0.000228247
0.000143241
0.000103454
8.95795e-05
9.11593e-05
0.000178794
0.00018826
0.0701494
0.0834043
0.0901665
0.0903747
0.0888414
0.083612
0.0803937
0.0797881
0.0796505
0.0795086
0.0787109
0.0741813
0.0673144
0.0627269
0.0609296
0.0609463
0.0605649
0.058267
0.0530055
0.0552217
0.0742869
0.0804689
0.0912385
0.143414
0.201368
0.215988
0.219131
0.197473
0.152635
0.123219
0.0925124
0.0641564
0.054239
0.0491943
0.0468255
0.046094
0.0465311
0.0492344
0.0537307
0.0583383
0.0627886
0.0677085
0.073249
0.079189
0.0852837
0.0911669
0.0962451
0.100563
0.104206
0.10736
0.111242
0.117253
0.123981
0.12999
0.13984
0.164138
0.196228
0.217292
0.229287
0.237694
0.249046
0.266143
0.267824
0.266028
0.259469
0.251796
0.246319
0.242703
0.236208
0.223113
0.197668
0.169774
0.158925
0.167724
0.231788
0.338445
0.377468
0.364971
0.256903
0.177594
0.153619
0.139976
0.127026
0.117932
0.105223
0.0918164
0.0651117
0.0463702
0.0373351
0.0333447
0.0314644
0.0283879
0.0263983
0.0241246
0.0230676
0.0225669
0.0224481
0.0230058
0.024437
0.0263482
0.0288995
0.0312602
0.0337663
0.0353431
0.0363698
0.0367871
0.036861
0.0362364
0.0349907
0.0337715
0.0319942
0.0305473
0.02953
0.0286225
0.0274433
0.0260639
0.0255014
0.0243433
0.0237981
0.0230346
0.0224821
0.0219562
0.0215289
0.0212049
0.0209847
0.0208297
0.0207227
0.0206395
0.0205718
0.0205064
0.0204478
0.0203998
0.0202892
0.0201506
0.0199649
0.0195832
0.0186996
0.0171757
0.0152094
0.013046
0.011017
0.00928323
0.00776954
0.00637956
0.0051548
0.0042768
0.0038468
0.0037022
0.00356243
0.00322862
0.0028087
0.00251405
0.00234887
0.00227188
0.00224411
0.0022093
0.00212896
0.00205051
0.00201379
0.00200539
0.00199651
0.00195944
0.00186597
0.00183395
0.00172736
0.0015747
0.0015053
0.00146484
0.0014348
0.00140351
0.0013774
0.00136845
0.00137265
0.0013926
0.00139648
0.00139628
0.00139152
0.00138817
0.00136848
0.00126569
0.0522805
0.0571318
0.0591048
0.0620073
0.0665141
0.0691117
0.0694907
0.0700563
0.071248
0.071452
0.0704671
0.0680332
0.0680283
0.0690705
0.0682671
0.0634009
0.0583019
0.0561442
0.0562441
0.075362
0.0905543
0.098034
0.128933
0.174244
0.185316
0.175233
0.114032
0.0709308
0.0507747
0.0361466
0.0252286
0.0216865
0.0206647
0.020499
0.0213041
0.0238337
0.0266391
0.0294816
0.0336268
0.0381296
0.0422185
0.046597
0.0516156
0.0571252
0.0628592
0.0686543
0.0740164
0.0784562
0.0836198
0.0888549
0.0950861
0.102632
0.108973
0.113671
0.116021
0.119005
0.125767
0.141391
0.151403
0.164464
0.178111
0.18161
0.186335
0.195335
0.196996
0.196223
0.193411
0.193523
0.197511
0.21034
0.217532
0.210144
0.177438
0.184519
0.273302
0.274302
0.128687
0.0759383
0.0624904
0.0592709
0.0602658
0.0634506
0.0660199
0.0607969
0.0511929
0.03898
0.0317813
0.0277787
0.0257173
0.0242761
0.0234075
0.023021
0.0229321
0.0231711
0.0240541
0.0256246
0.0288167
0.0336772
0.040636
0.0488197
0.0581925
0.0681343
0.0762054
0.0796547
0.0809332
0.0810879
0.0790701
0.0745762
0.0701216
0.0640429
0.0566371
0.0497658
0.0445346
0.0417154
0.0382183
0.033917
0.03169
0.0289588
0.0269726
0.0251766
0.0236977
0.0225663
0.0217408
0.0211178
0.0206256
0.0202928
0.0201435
0.0200896
0.0200939
0.0201193
0.0201869
0.0203026
0.0204131
0.0204803
0.0204951
0.0204765
0.0203981
0.0202018
0.019746
0.0187122
0.0164987
0.0136228
0.0112531
0.0095277
0.00812321
0.00683151
0.00570976
0.00483294
0.00415417
0.00370964
0.00352744
0.00324632
0.00287769
0.0026118
0.00246453
0.00237703
0.00230751
0.00226962
0.00226452
0.00226572
0.00224083
0.00213786
0.00204009
0.00192768
0.00176969
0.00162234
0.00150584
0.00143639
0.00139964
0.00135121
0.00124353
0.00109429
0.000978682
0.000932953
0.000931842
0.000945662
0.00101073
0.00117038
0.00134022
0.00140066
0.0443435
0.0522586
0.0531708
0.0569233
0.0651426
0.0696872
0.0694715
0.0677948
0.0642669
0.0642952
0.065174
0.0680758
0.0732956
0.0727246
0.067463
0.0584039
0.0553104
0.0577229
0.0720521
0.091834
0.0991067
0.111683
0.14352
0.156338
0.141857
0.0712363
0.0387049
0.0255337
0.0190501
0.0147395
0.0129809
0.0123875
0.0122038
0.0121745
0.0123746
0.0128232
0.0130851
0.0134612
0.0140627
0.0146938
0.0155651
0.0168791
0.0186009
0.0210236
0.0243823
0.0293287
0.036824
0.047246
0.0581611
0.0697662
0.0798925
0.0897353
0.0978691
0.103166
0.106339
0.109223
0.111608
0.114944
0.118491
0.122461
0.125787
0.127459
0.130844
0.129813
0.129893
0.131629
0.136235
0.144258
0.149649
0.159864
0.184272
0.191427
0.204674
0.238113
0.197134
0.0796802
0.0419609
0.032705
0.0309486
0.0311001
0.0329305
0.0338254
0.0341084
0.032093
0.0293603
0.0268941
0.0256835
0.0245575
0.023668
0.0229058
0.0226232
0.0225823
0.0233858
0.0251854
0.0292075
0.0363471
0.0481381
0.0665752
0.0940671
0.115944
0.123694
0.126472
0.126864
0.124132
0.118288
0.11253
0.106954
0.101727
0.0959125
0.0890631
0.0815996
0.0715028
0.0584663
0.0476831
0.0411222
0.0363603
0.0329824
0.0299835
0.0274383
0.0252327
0.0233372
0.0217003
0.0202544
0.0190176
0.0179958
0.017269
0.016945
0.01684
0.0168541
0.0169551
0.0172027
0.0176868
0.0184891
0.0193964
0.0201076
0.020513
0.0206438
0.020683
0.0208836
0.0210664
0.0209902
0.0206433
0.0197559
0.0189719
0.0182718
0.0174608
0.0159994
0.0121324
0.00810511
0.00578615
0.00451698
0.00392557
0.00374006
0.00342545
0.00306284
0.00285982
0.00279314
0.00280384
0.0029353
0.00326134
0.00355775
0.00375186
0.00379842
0.00368978
0.00323377
0.00271658
0.00235417
0.00214488
0.00203973
0.00193344
0.00169359
0.0012942
0.000951965
0.000760404
0.000698647
0.000696404
0.000710485
0.000775684
0.000902192
0.00115323
0.0443419
0.057429
0.0576483
0.0717112
0.0837085
0.088206
0.0884227
0.0866066
0.0832455
0.0824274
0.0823493
0.0802184
0.0749527
0.068112
0.0596518
0.0564744
0.0588392
0.0739478
0.0912781
0.0980077
0.103121
0.117781
0.129138
0.11934
0.0567847
0.0269832
0.016744
0.0127417
0.0109301
0.010117
0.00982248
0.00972932
0.00970612
0.0097239
0.00984883
0.00999902
0.0101297
0.010309
0.010475
0.0105852
0.0107626
0.0109655
0.0111617
0.0115958
0.0121806
0.0131715
0.0148264
0.0176954
0.0225031
0.0298646
0.0412264
0.0528738
0.0635128
0.071558
0.0777335
0.0819807
0.0857577
0.0886593
0.0921166
0.0986593
0.106194
0.10894
0.10775
0.110474
0.117516
0.128603
0.152047
0.153153
0.160282
0.189996
0.203211
0.205273
0.202679
0.16379
0.06088
0.0295966
0.0215514
0.0201404
0.0203692
0.0224903
0.0247396
0.0257896
0.0261082
0.0258191
0.0248729
0.0239027
0.023011
0.0220372
0.0215
0.0213321
0.0215341
0.0228535
0.0251423
0.0305882
0.0412151
0.0610202
0.0950806
0.130684
0.143291
0.147862
0.148728
0.146285
0.136275
0.125507
0.119928
0.113918
0.108018
0.103615
0.098949
0.0930764
0.0872594
0.0801889
0.0696123
0.0532268
0.0412779
0.0344151
0.0294526
0.0260827
0.0233593
0.021019
0.0188983
0.016982
0.015422
0.0143349
0.0134993
0.0130571
0.0127514
0.0124378
0.0123045
0.0123101
0.012424
0.0127634
0.0133123
0.014434
0.0164465
0.0187256
0.0200472
0.0204325
0.0207246
0.0213843
0.0217343
0.0217333
0.0215855
0.0212907
0.0211971
0.0212566
0.021187
0.0206562
0.0187681
0.0131121
0.00804773
0.00555987
0.00457141
0.00433215
0.00424659
0.00406805
0.00387885
0.0038001
0.00382227
0.00403395
0.00432435
0.00448342
0.00453759
0.00452783
0.00442089
0.00406147
0.0034411
0.00286012
0.00250859
0.0023076
0.00212674
0.0019242
0.0017189
0.00155604
0.00144682
0.0013904
0.00136589
0.00134225
0.00127372
0.00114088
0.0447608
0.0590577
0.0596181
0.0807396
0.0890215
0.0926558
0.0941361
0.0934235
0.0919429
0.0890256
0.0836485
0.07596
0.0684788
0.0632334
0.0604013
0.0638275
0.0798887
0.0921241
0.0966623
0.0986628
0.103096
0.108371
0.100858
0.0512188
0.0231378
0.014005
0.0112045
0.0102935
0.010002
0.00993139
0.00994231
0.0101741
0.0104596
0.0107638
0.0110952
0.0112823
0.0113688
0.0113945
0.0113524
0.0111971
0.0111028
0.0109381
0.0107782
0.0106929
0.0105957
0.0105569
0.0105706
0.0107051
0.0115069
0.0131014
0.0164609
0.0227756
0.0328015
0.0433363
0.050095
0.0553843
0.0578781
0.0586546
0.05893
0.0608009
0.0693924
0.0838776
0.101163
0.117586
0.143685
0.167449
0.191887
0.198586
0.198336
0.198015
0.194766
0.177149
0.121725
0.0494635
0.0228066
0.015233
0.0135082
0.0133943
0.0143208
0.0162459
0.0183058
0.019845
0.0208465
0.0214592
0.0215576
0.0213659
0.0210035
0.0206286
0.0205236
0.0207233
0.0217859
0.0244763
0.0306205
0.0426413
0.0647192
0.103223
0.143799
0.158137
0.162352
0.162857
0.158643
0.143799
0.123748
0.106882
0.0946219
0.0882636
0.0867992
0.0885492
0.0911235
0.0895209
0.0867176
0.0817164
0.0741031
0.0613867
0.042863
0.0323184
0.0244302
0.0194293
0.0162801
0.0142578
0.0129432
0.0121523
0.0117416
0.0115294
0.0113619
0.0112544
0.0110202
0.0108118
0.0107507
0.0108303
0.0110955
0.0117085
0.0120389
0.0122183
0.0125238
0.0134375
0.016713
0.0191093
0.0200397
0.0212139
0.0221932
0.022358
0.0222309
0.021657
0.0211742
0.0210796
0.0211122
0.0212582
0.0211173
0.0202116
0.0167799
0.0101479
0.006631
0.00520265
0.00483014
0.00472978
0.00455403
0.00440094
0.0043752
0.00444296
0.00460045
0.00467029
0.00469055
0.0046808
0.00461034
0.0045001
0.00430365
0.00391194
0.0032974
0.00269981
0.00234081
0.00215899
0.0020381
0.00191831
0.00178985
0.00167275
0.00159019
0.00155253
0.00153499
0.00147185
0.0452222
0.0595612
0.063097
0.0839684
0.0904841
0.0940582
0.0958458
0.0947585
0.0903154
0.0841991
0.0772802
0.071606
0.0686429
0.0681339
0.0757432
0.0875718
0.0936849
0.0960508
0.0966415
0.0970185
0.096342
0.0860082
0.0476989
0.0221494
0.013583
0.0112209
0.0106423
0.0105015
0.0106213
0.0113159
0.0122455
0.013519
0.0147195
0.0157658
0.0167631
0.0172961
0.0175611
0.0176299
0.0172587
0.0167922
0.0161257
0.0152889
0.0143443
0.0134966
0.0125868
0.0116135
0.0108511
0.010158
0.00976636
0.0095503
0.00951387
0.0104228
0.0128356
0.0181181
0.0291613
0.0411427
0.047347
0.0494114
0.0500839
0.0515584
0.0584966
0.0801431
0.111087
0.137118
0.159075
0.168512
0.172897
0.174811
0.16996
0.156944
0.122362
0.0769193
0.0364587
0.0180974
0.0114068
0.00942453
0.00900495
0.00905977
0.00980934
0.0114624
0.013581
0.0154981
0.0169687
0.0182458
0.0194498
0.019943
0.0200242
0.0200142
0.0200942
0.0205736
0.0220762
0.0258847
0.0347048
0.0532272
0.0895596
0.139651
0.165262
0.172544
0.173897
0.171441
0.156984
0.126409
0.0837024
0.0569348
0.0485922
0.0458627
0.0455404
0.0503195
0.0639531
0.0733327
0.0761029
0.0766938
0.0744732
0.0636215
0.0456326
0.0325133
0.0231579
0.0172468
0.0137839
0.0118799
0.0109193
0.0105732
0.0105326
0.0105495
0.0105422
0.0104551
0.0102457
0.0102711
0.0104042
0.0106927
0.0114211
0.0135361
0.0144413
0.0143491
0.0137043
0.0126868
0.0126358
0.0144014
0.0178728
0.0201503
0.0218132
0.0226955
0.0227348
0.0222958
0.0212276
0.0202183
0.0199688
0.0200724
0.020656
0.0206942
0.0202334
0.0180615
0.0115897
0.00731883
0.00563901
0.00502601
0.00473522
0.00458939
0.00456843
0.00460132
0.00466544
0.00467539
0.00465021
0.00454848
0.00441025
0.00431465
0.00427264
0.00420369
0.00402232
0.00353249
0.00287561
0.00239604
0.00215473
0.00202556
0.00190698
0.00178308
0.00167769
0.00161244
0.00160182
0.00159365
0.0453726
0.0594412
0.0646151
0.0838124
0.0896673
0.0916308
0.0920368
0.0897555
0.0863624
0.082258
0.0785024
0.0768227
0.0802807
0.0873047
0.0929672
0.095363
0.0958863
0.0957087
0.0942997
0.0895364
0.0767247
0.0419781
0.0221772
0.0141357
0.01188
0.0113766
0.0113281
0.0123214
0.0141289
0.0171267
0.0196203
0.021701
0.0231261
0.0241582
0.0252268
0.0257498
0.0260421
0.0261275
0.0259056
0.02539
0.024591
0.0234435
0.0222971
0.0208382
0.0194203
0.0176476
0.0159483
0.0141145
0.0122918
0.0103198
0.00911741
0.0083815
0.00808608
0.00816909
0.00997924
0.0153038
0.0292787
0.0397828
0.0451845
0.0477055
0.0520494
0.0643117
0.0782653
0.0848742
0.0900476
0.0966178
0.0987253
0.0937805
0.0850734
0.0642503
0.0433957
0.0247248
0.0142818
0.00934255
0.00725626
0.00645014
0.00623605
0.00628555
0.00677585
0.00802178
0.00999755
0.0122025
0.0141294
0.0158967
0.0177376
0.0191205
0.0195706
0.0197668
0.0199657
0.0206216
0.022988
0.0293519
0.0437686
0.0715478
0.113946
0.160906
0.178611
0.183061
0.183267
0.176563
0.153252
0.106437
0.0566722
0.0418141
0.0372231
0.0356198
0.0351662
0.0372341
0.0438575
0.0593837
0.0680125
0.0695947
0.0681133
0.0636085
0.0460328
0.0314028
0.0212015
0.0151562
0.011926
0.010417
0.00977689
0.00974491
0.00989037
0.00998924
0.0099626
0.00983781
0.00990047
0.0101181
0.0106597
0.0119541
0.0152061
0.0238196
0.0281035
0.0279855
0.0260708
0.0197281
0.0140951
0.0128535
0.0135132
0.0171206
0.0204433
0.0221976
0.0227492
0.0226673
0.0218477
0.0204637
0.0197076
0.0194661
0.0195254
0.0200488
0.0202937
0.0200036
0.0181951
0.0120821
0.0075703
0.00568526
0.00491434
0.00464367
0.0045936
0.00461064
0.00465502
0.0046563
0.00461933
0.00440912
0.00402368
0.00381272
0.00376081
0.00377979
0.00383699
0.00382263
0.00362149
0.00297188
0.00242235
0.0021215
0.00194446
0.00180958
0.00170261
0.0016341
0.00160876
0.00160903
0.0443822
0.056789
0.0643067
0.0769229
0.0842378
0.0876082
0.0887202
0.0888393
0.0874915
0.0868298
0.0870825
0.0887817
0.0917534
0.0944507
0.0954612
0.0955958
0.0948187
0.0920019
0.0845097
0.0662474
0.0384659
0.0219906
0.0150751
0.012873
0.0123676
0.0127506
0.0150347
0.019772
0.0230509
0.0255538
0.0267861
0.0282505
0.0290471
0.0300379
0.0305063
0.0307439
0.0308297
0.0308076
0.0306026
0.0302486
0.0295257
0.028579
0.0274919
0.0261795
0.0248254
0.023402
0.0220073
0.0205487
0.0191528
0.0172564
0.0144116
0.0114617
0.00878779
0.00746722
0.00689136
0.006782
0.0086588
0.0145424
0.0300502
0.039203
0.0420462
0.0433373
0.0456939
0.0495294
0.0511026
0.0499154
0.0458774
0.0442356
0.0344112
0.0262336
0.0167578
0.0114033
0.00805373
0.00639251
0.00553944
0.00505969
0.00480988
0.00475582
0.00493918
0.00561665
0.00707995
0.00926639
0.0115339
0.0136322
0.0160636
0.0184303
0.0193304
0.0196471
0.0198883
0.0205188
0.0226926
0.0287678
0.042912
0.0714153
0.12077
0.170645
0.186953
0.190072
0.189689
0.182024
0.15678
0.102605
0.0563412
0.0437938
0.0391711
0.0358964
0.0342997
0.0350217
0.0385883
0.0512112
0.0639113
0.0667119
0.0645561
0.0577687
0.0420092
0.0258704
0.0160612
0.0110481
0.00906239
0.00858701
0.00872587
0.00929481
0.00957339
0.00957418
0.00954382
0.00959215
0.00982511
0.0106127
0.0127788
0.0179603
0.029999
0.05432
0.0691691
0.0704151
0.0667258
0.0531051
0.0294211
0.0169477
0.0137677
0.0139265
0.0169811
0.0206833
0.0222226
0.0224519
0.0222083
0.0213644
0.0203352
0.0197532
0.019626
0.0196781
0.0200016
0.0201339
0.0198332
0.0179424
0.0117665
0.00734976
0.00545933
0.00477147
0.004587
0.00457371
0.00457957
0.00456785
0.00450909
0.0042564
0.00350765
0.00298347
0.00285701
0.00289724
0.00318053
0.00347905
0.00352924
0.00343541
0.00294409
0.00235166
0.00200153
0.00179556
0.00167074
0.00160183
0.00157667
0.00157682
0.0427417
0.0533714
0.0627141
0.0737108
0.0796692
0.0840799
0.0862262
0.0873302
0.0876476
0.0880498
0.0892655
0.0907626
0.0927117
0.0939075
0.0941565
0.0927929
0.0885316
0.0784507
0.0588786
0.0364089
0.0222901
0.0162514
0.0141561
0.0135973
0.0145889
0.0184196
0.0234754
0.0258379
0.0274701
0.0285798
0.0297729
0.0308969
0.0317857
0.0325012
0.0328131
0.0329525
0.0329945
0.0329806
0.0328069
0.032426
0.0316185
0.0307457
0.029811
0.0287781
0.0276062
0.0263158
0.0250274
0.0235541
0.0221235
0.0206596
0.0193402
0.0180842
0.01602
0.0116754
0.00797339
0.00624254
0.00542439
0.00508529
0.00782131
0.0197893
0.0331678
0.0384046
0.0390355
0.037555
0.0358691
0.0310947
0.0250146
0.0228687
0.0174086
0.0130342
0.00941284
0.00756291
0.00621258
0.00549926
0.00485747
0.00432867
0.00408348
0.00393863
0.00393968
0.00418712
0.00493177
0.00651713
0.00888728
0.0112419
0.0136963
0.0170231
0.0189879
0.0196197
0.0198475
0.0202824
0.0217008
0.026623
0.0388897
0.0651504
0.11179
0.165844
0.186851
0.192466
0.193011
0.186488
0.161477
0.107901
0.0712406
0.0637235
0.0584606
0.0463676
0.0375065
0.0357876
0.0376993
0.0485927
0.0601572
0.0623792
0.0616444
0.0547827
0.0356604
0.0205447
0.0130631
0.00934058
0.00798899
0.00791225
0.00838434
0.00925181
0.0094569
0.0094114
0.00939816
0.00954164
0.0103156
0.0130147
0.0203229
0.0375083
0.0736946
0.115731
0.143968
0.152786
0.14809
0.131064
0.0830675
0.0398368
0.020385
0.0150703
0.0148566
0.0173309
0.0207711
0.0218669
0.0219149
0.0215908
0.0212891
0.0210073
0.0205248
0.0201916
0.0202362
0.0203934
0.0203542
0.0198728
0.0174532
0.0109014
0.00690985
0.00519757
0.00457287
0.00442562
0.00436717
0.00428127
0.00409063
0.00353407
0.00253933
0.00186205
0.00161704
0.00161612
0.00180404
0.00255493
0.00308785
0.00319601
0.00313797
0.002751
0.0021864
0.00183511
0.00163617
0.00155348
0.00153706
0.00154163
0.0419225
0.0513046
0.0574941
0.0664112
0.0763883
0.0814939
0.0837142
0.0852151
0.0863079
0.0869814
0.0880026
0.0889518
0.0895943
0.0890208
0.0868002
0.0807018
0.0692802
0.0530737
0.0359733
0.0231927
0.0175922
0.0155459
0.014972
0.0164831
0.020478
0.0247343
0.0267393
0.0283443
0.0302614
0.0320635
0.0344222
0.0367874
0.0392926
0.0413367
0.043018
0.0442802
0.0449877
0.0452138
0.044187
0.0427735
0.0407105
0.0379467
0.0348902
0.0316861
0.0289542
0.0273554
0.026244
0.0253278
0.0245262
0.0229694
0.021183
0.0201932
0.0192868
0.0180484
0.0152574
0.00986066
0.00605507
0.00426689
0.00352027
0.00387264
0.00894721
0.0249713
0.035981
0.036305
0.0328676
0.0277597
0.0200244
0.0150134
0.0118832
0.00915427
0.0073593
0.00634915
0.00553497
0.00498276
0.00459925
0.00415507
0.00380182
0.00358508
0.00346664
0.0035184
0.00377482
0.00451622
0.00611449
0.00856701
0.0112249
0.0143488
0.0181032
0.0194727
0.0200268
0.0202156
0.0206855
0.0227422
0.0298521
0.0485577
0.0874357
0.146429
0.180029
0.19087
0.193279
0.191317
0.178665
0.141418
0.117369
0.107072
0.0828581
0.0558648
0.0413082
0.038654
0.0400272
0.0485801
0.0586269
0.0600996
0.0575599
0.0464877
0.0281096
0.0173003
0.0112873
0.0082193
0.00735362
0.00746154
0.00835591
0.00929334
0.00941301
0.00928233
0.00927575
0.0097476
0.0121146
0.0201042
0.0415547
0.0911333
0.145049
0.170926
0.180971
0.192141
0.202088
0.200544
0.182714
0.107796
0.0464517
0.0224253
0.0160148
0.0156252
0.017795
0.0206025
0.0213965
0.0214205
0.0213804
0.0214826
0.0218801
0.0218292
0.0215714
0.0212526
0.0211044
0.0208081
0.0199028
0.0164385
0.0100047
0.0064385
0.00487701
0.00412864
0.00386138
0.00355309
0.00291799
0.00218576
0.00158757
0.00118003
0.000987053
0.000960036
0.00101923
0.00141485
0.00234817
0.00280584
0.00288706
0.00282053
0.00243687
0.00193439
0.00165294
0.00155162
0.00154604
0.00160866
0.0403901
0.0485798
0.053997
0.0601252
0.068917
0.0769256
0.0805066
0.082126
0.0829119
0.0831939
0.0824515
0.0804596
0.0766104
0.0717877
0.0660734
0.0585063
0.0486091
0.0365515
0.0246655
0.019007
0.0167583
0.0160413
0.0165044
0.0195241
0.0243814
0.0270752
0.0296123
0.0328291
0.0364207
0.0406544
0.0447858
0.0475817
0.050022
0.0512267
0.0523179
0.0529024
0.0533243
0.0534625
0.0530768
0.0523074
0.0510642
0.0490942
0.0464258
0.0430671
0.0388144
0.0331383
0.0279134
0.0254319
0.0247862
0.0246878
0.0241174
0.0216174
0.0203937
0.0198645
0.0188021
0.0161147
0.0106294
0.00635806
0.00354452
0.00230741
0.00186694
0.00363183
0.0154882
0.0322006
0.0358377
0.0314048
0.0235377
0.0168399
0.0124727
0.00954205
0.00766464
0.00655836
0.0056982
0.00505577
0.00464635
0.00422056
0.0038234
0.00340185
0.00311136
0.00312766
0.00321933
0.00351725
0.00425682
0.00580925
0.008252
0.011
0.016048
0.0187978
0.0199705
0.0204267
0.0205819
0.021087
0.0234248
0.0308733
0.049001
0.0887006
0.148752
0.176228
0.187183
0.188096
0.184497
0.175587
0.156005
0.124236
0.0882655
0.0566023
0.0414316
0.0389013
0.0422802
0.0520486
0.0577417
0.0573047
0.0527991
0.0373415
0.0220356
0.0128891
0.00828608
0.00682896
0.00673583
0.00726319
0.00886036
0.0095294
0.00942092
0.0090217
0.00914324
0.0104844
0.0166935
0.0377919
0.095057
0.148493
0.17414
0.185236
0.190225
0.197273
0.22015
0.228909
0.226073
0.203675
0.112074
0.0457411
0.0221942
0.0162952
0.0160051
0.0181213
0.0203697
0.0210515
0.0212185
0.0214339
0.021853
0.0229497
0.023562
0.0234684
0.0227912
0.0221275
0.0214111
0.0197615
0.0147351
0.00900343
0.0058631
0.00438833
0.00345117
0.00271029
0.00207029
0.00156878
0.00117502
0.00086151
0.000659477
0.000595797
0.000610883
0.000769069
0.00147486
0.00223409
0.00252027
0.00254952
0.00244419
0.00203052
0.00168731
0.00156016
0.00155523
0.00164622
0.0376716
0.0457478
0.0495416
0.0527102
0.0596996
0.0683642
0.0723076
0.0738652
0.0741025
0.0716262
0.0667722
0.0609465
0.0557619
0.0517191
0.047789
0.0427685
0.0357841
0.0276299
0.0208374
0.0181244
0.0171892
0.0173781
0.0199905
0.0248109
0.0288746
0.0317692
0.0360586
0.0410206
0.0453322
0.0493015
0.0518815
0.0531958
0.0542832
0.0548519
0.0556722
0.056184
0.056533
0.056663
0.0564532
0.0558916
0.0550001
0.0534295
0.0509507
0.0479391
0.0445574
0.041615
0.0373741
0.029539
0.0249961
0.024015
0.0248097
0.0241314
0.0215788
0.0206392
0.0201786
0.0185265
0.0142209
0.0090477
0.00534341
0.0027698
0.00158401
0.001085
0.00135327
0.00561304
0.0228572
0.0367751
0.0369516
0.0274033
0.0174146
0.0120884
0.00907726
0.00747816
0.00646181
0.00560221
0.00496071
0.00442678
0.00395941
0.00349625
0.0030763
0.00283357
0.00285197
0.00296729
0.00329971
0.00409927
0.00545006
0.00782255
0.0112589
0.0167192
0.0193478
0.0203505
0.020829
0.0209969
0.02149
0.0234082
0.0289647
0.0418993
0.0685208
0.109801
0.141254
0.158122
0.156955
0.148863
0.128129
0.0904678
0.0560559
0.0398992
0.036702
0.0380484
0.0448976
0.0528516
0.0545289
0.0523721
0.0432626
0.0245471
0.0145937
0.00933417
0.00688984
0.00633697
0.00654656
0.00778108
0.00955938
0.00976959
0.00923676
0.00869341
0.00908952
0.0123981
0.0269004
0.0782657
0.139567
0.168911
0.181591