/*--------------------------------*- C++ -*----------------------------------*\
  =========                 |
  \\      /  F ield         | OpenFOAM: The Open Source CFD Toolbox
   \\    /   O peration     | Website:  https://openfoam.org
    \\  /    A nd           | Version:  9
     \\/     M anipulation  |
\*---------------------------------------------------------------------------*/
FoamFile
{
    format      ascii;
    class       volScalarField;
    location    "0.057";
    object      s_0;
}
// * * * * * * * * * * * * * * * * * * * * * * * * * * * * * * * * * * * * * //

dimensions      [0 0 0 0 0 0 0];

internalField   nonuniform List<scalar> 
12225
(
1
1
1
1
1
1
1
1
1
1
1
1
1
1
1
1
1
0.999964
1
1
1
1
1
1
1
1
1
1
1
1
1
1
1
1
1
0.999998
1
1
1
1
1
1
1
1
1
1
1
1
1
1
1
1
1
1
1
1
1
1
1
1
1
1
1
1
1
1
1
1
1
1
1
1
1
1
1
1
1
1
1
1
1
1
1
1
1
1
1
1
1
1
1
1
1
1
1
1
1
1
1
1
1
1
1
1
1
1
1
1
1
1
1
1
1
1
1
1
1
1
1
1
1
1
1
1
1
1
1
1
1
1
1
1
1
1
1
1
1
1
1
1
1
1
1
1
1
1
1
1
1
1
1
1
1
1
1
1
1
1
1
1
1
1
1
1
1
1
1
1
1
1
1
1
1
1
1
1
1
1
1
1
1
1
1
1
1
1
1
1
1
1
1
1
1
1
1
1
1
1
1
1
1
1
1
1
1
1
1
1
1
1
1
1
1
1
1
1
1
1
1
1
1
1
1
1
1
1
1
1
1
1
1
1
1
1
1
1
1
1
1
1
1
1
1
1
1
1
1
1
1
1
1
1
1
1
1
1
1
1
1
1
1
1
1
1
1
1
1
1
1
1
1
1
1
1
1
1
1
1
1
1
1
1
1
1
1
1
1
1
1
1
1
1
1
1
1
1
1
1
1
1
1
1
1
1
1
1
1
1
1
1
1
1
1
1
1
1
1
1
1
1
1
1
1
1
1
1
1
1
1
1
1
1
1
1
1
1
1
1
1
1
1
1
1
1
1
1
1
1
1
1
1
1
1
1
1
1
1
1
1
1
1
1
1
1
1
1
1
1
1
1
1
1
1
1
1
1
1
1
1
1
1
1
1
1
1
1
1
1
1
1
1
1
1
1
1
1
1
1
1
1
1
1
1
1
1
1
1
1
1
1
1
1
1
1
1
1
1
1
1
1
1
1
1
1
1
1
1
1
1
1
1
1
1
1
1
1
1
1
1
1
1
1
1
1
1
1
1
1
1
1
1
1
1
1
1
1
1
1
1
1
1
1
1
1
1
1
1
1
1
1
1
1
1
1
1
1
1
1
1
1
1
1
1
1
1
1
1
1
1
1
1
1
1
1
1
1
1
1
1
1
1
1
1
1
1
1
1
1
1
1
1
1
1
1
1
1
1
1
1
1
1
1
1
1
1
1
1
1
1
1
1
1
1
1
1
1
1
1
1
1
0.650417
0.649915
0.649589
0.649307
0.649514
0.649972
0.650458
0.650554
0.650296
0.649313
0.646938
0.640347
0.629864
0.624371
0.623045
0.623917
0.634933
0.657877
0.65884
0.645881
0.622799
0.589515
0.537515
0.482968
0.483251
0.582739
0.671545
0.686838
0.691948
0.697777
0.707882
0.717537
0.725074
0.733665
0.743667
0.750945
0.753207
0.753555
0.752796
0.749742
0.74444
0.737611
0.729797
0.721627
0.713825
0.707148
0.701269
0.696459
0.692346
0.688032
0.682015
0.674004
0.661835
0.649316
0.642747
0.638913
0.634076
0.63014
0.626487
0.623414
0.620652
0.618331
0.61739
0.61737
0.618797
0.620016
0.621177
0.622923
0.626263
0.634201
0.652641
0.682059
0.706599
0.718901
0.730326
0.755893
0.792278
0.821345
0.839766
0.850093
0.855056
0.857123
0.858407
0.860508
0.864974
0.872606
0.875328
0.868987
0.856319
0.844502
0.835717
0.830282
0.827489
0.825041
0.823152
0.822191
0.821613
0.82115
0.820937
0.82072
0.820295
0.819777
0.81929
0.818817
0.818572
0.818477
0.818488
0.818845
0.819295
0.819818
0.820605
0.821215
0.821816
0.822614
0.823141
0.823864
0.824197
0.824786
0.82531
0.825728
0.826001
0.826322
0.826496
0.826701
0.826806
0.8268
0.82677
0.826771
0.826877
0.827359
0.828759
0.831341
0.835656
0.842006
0.850187
0.85951
0.867467
0.872406
0.87533
0.877235
0.878623
0.879512
0.880083
0.880915
0.882798
0.888333
0.897252
0.90525
0.911441
0.915876
0.919061
0.921353
0.922991
0.924367
0.925913
0.927745
0.929529
0.930826
0.931485
0.931662
0.931619
0.931108
0.928275
0.915668
0.891985
0.874576
0.865125
0.863397
0.862758
0.861143
0.857418
0.848853
0.824942
0.742826
0.537674
0.355363
0.242882
0.168313
0.14167
0.0851525
0.647313
0.642294
0.634609
0.628443
0.628498
0.630158
0.63384
0.63902
0.643547
0.646421
0.647319
0.647199
0.644467
0.625799
0.606142
0.605418
0.612563
0.64295
0.657182
0.63178
0.535681
0.48137
0.477912
0.508576
0.587363
0.6661
0.698341
0.713874
0.733994
0.771752
0.822296
0.848639
0.857958
0.861286
0.861644
0.85558
0.838607
0.819834
0.802007
0.785266
0.769142
0.754134
0.740803
0.728824
0.718542
0.709634
0.702095
0.695508
0.691487
0.690246
0.691206
0.69778
0.705348
0.708802
0.708824
0.697714
0.667613
0.644462
0.631659
0.623583
0.616381
0.608331
0.608695
0.611645
0.619073
0.62486
0.62617
0.625416
0.622021
0.617566
0.619477
0.639754
0.695318
0.722069
0.733003
0.746521
0.784475
0.832161
0.852836
0.858725
0.862233
0.868581
0.871898
0.872398
0.872343
0.871375
0.866479
0.854283
0.837438
0.821788
0.814983
0.811639
0.810205
0.80965
0.809434
0.809337
0.809178
0.808681
0.80728
0.804067
0.799386
0.794322
0.789157
0.784386
0.781482
0.780115
0.779709
0.780817
0.784443
0.787934
0.79362
0.798726
0.803015
0.808665
0.8122
0.817462
0.819967
0.823849
0.825983
0.828339
0.830481
0.832617
0.834318
0.835509
0.836045
0.835411
0.833396
0.830486
0.826388
0.821177
0.814947
0.807701
0.80076
0.795738
0.793325
0.793375
0.798229
0.817916
0.8392
0.85373
0.863444
0.869972
0.874178
0.876296
0.876578
0.875168
0.872516
0.872363
0.873739
0.881953
0.898649
0.909018
0.915194
0.918869
0.921142
0.923014
0.925058
0.926688
0.927332
0.927323
0.927229
0.928106
0.931468
0.931723
0.930749
0.928028
0.925127
0.922767
0.922377
0.922553
0.922606
0.922141
0.920059
0.91379
0.892113
0.864631
0.837317
0.790186
0.751012
0.659784
0.623178
0.61531
0.594943
0.575406
0.568093
0.569892
0.575696
0.588313
0.606359
0.620924
0.63084
0.636029
0.636097
0.628877
0.599381
0.588073
0.606423
0.644226
0.644226
0.535979
0.45946
0.457779
0.491712
0.555987
0.660594
0.73753
0.776106
0.8331
0.88839
0.911082
0.919289
0.920656
0.915756
0.898855
0.878214
0.862196
0.845967
0.82856
0.813442
0.799433
0.784482
0.770147
0.756649
0.741999
0.727281
0.711895
0.696926
0.681809
0.668376
0.660439
0.657169
0.656353
0.662439
0.674929
0.694728
0.706983
0.713569
0.713557
0.710143
0.70208
0.693159
0.68622
0.679297
0.678785
0.678735
0.680014
0.679872
0.677948
0.671348
0.651531
0.638277
0.643479
0.691339
0.726768
0.748134
0.812224
0.852267
0.861198
0.869605
0.873434
0.874116
0.873937
0.872014
0.870188
0.866304
0.856758
0.83693
0.817213
0.808655
0.805124
0.804319
0.806767
0.808732
0.808998
0.80873
0.806868
0.801815
0.792291
0.777317
0.756487
0.729982
0.699776
0.671754
0.657341
0.650805
0.648418
0.648228
0.65343
0.663698
0.674735
0.691044
0.709529
0.72631
0.74429
0.756301
0.774315
0.786374
0.800592
0.81149
0.820954
0.828722
0.835419
0.841341
0.846341
0.850611
0.854679
0.857827
0.860214
0.862096
0.862838
0.862445
0.859929
0.852249
0.836543
0.814828
0.792293
0.77875
0.775569
0.776567
0.784633
0.804569
0.821507
0.837913
0.852354
0.86431
0.873053
0.876988
0.877225
0.873554
0.864323
0.862879
0.866072
0.882662
0.90143
0.910557
0.914911
0.917113
0.91803
0.918171
0.918352
0.919658
0.922255
0.924322
0.925891
0.926932
0.928428
0.930968
0.934035
0.937006
0.94058
0.945345
0.95038
0.954049
0.955395
0.955178
0.953501
0.948569
0.933582
0.918974
0.880875
0.612785
0.593199
0.551168
0.529504
0.518317
0.515756
0.517394
0.522608
0.536301
0.56163
0.582357
0.591203
0.59035
0.582805
0.578106
0.592134
0.620203
0.633548
0.555866
0.456714
0.445599
0.468182
0.525926
0.63651
0.790248
0.871008
0.907275
0.936216
0.94794
0.951333
0.951753
0.949164
0.944413
0.942882
0.942106
0.941812
0.941904
0.940086
0.934684
0.92769
0.919339
0.907619
0.891076
0.870789
0.845157
0.814357
0.779112
0.742336
0.708974
0.681156
0.662549
0.653437
0.649724
0.649177
0.656029
0.665068
0.681311
0.699706
0.71317
0.719161
0.722949
0.725261
0.726082
0.726065
0.725001
0.725241
0.72026
0.709346
0.689143
0.664854
0.655897
0.665947
0.713739
0.760449
0.82602
0.856632
0.867531
0.8746
0.876536
0.87674
0.874887
0.871499
0.86748
0.859706
0.844732
0.818851
0.805565
0.800023
0.798525
0.798973
0.805598
0.808595
0.809402
0.808326
0.80307
0.791124
0.766906
0.722257
0.649014
0.581393
0.55785
0.549174
0.54745
0.550682
0.559791
0.569631
0.57872
0.586498
0.595248
0.606109
0.617911
0.63322
0.652451
0.676275
0.698263
0.717504
0.737224
0.756768
0.775592
0.793378
0.809176
0.823209
0.834452
0.84338
0.849939
0.856454
0.861834
0.865878
0.870112
0.874051
0.876052
0.876505
0.876342
0.875023
0.87154
0.86257
0.831474
0.796699
0.779353
0.774433
0.774905
0.780246
0.79116
0.800429
0.810317
0.831947
0.856961
0.872532
0.877232
0.876884
0.871837
0.860672
0.858646
0.862259
0.880226
0.895711
0.898952
0.897561
0.891747
0.888158
0.887734
0.890509
0.900031
0.910282
0.919381
0.926383
0.930513
0.932705
0.934047
0.935367
0.937991
0.944666
0.95334
0.960027
0.963901
0.965373
0.965466
0.964457
0.960394
0.944227
0.612207
0.568061
0.528347
0.51068
0.502313
0.498671
0.499099
0.50167
0.509598
0.522461
0.530611
0.543265
0.559345
0.572755
0.585259
0.600004
0.607121
0.542536
0.460566
0.442867
0.45332
0.50089
0.607433
0.799644
0.904627
0.943659
0.96072
0.968809
0.972059
0.97339
0.974046
0.974454
0.974984
0.976182
0.976998
0.977352
0.977452
0.976937
0.976362
0.975343
0.974165
0.972513
0.969988
0.966095
0.960086
0.95048
0.935343
0.911539
0.874571
0.825187
0.769002
0.721398
0.689353
0.673253
0.666395
0.665354
0.677098
0.695342
0.710552
0.715253
0.717334
0.72097
0.723442
0.727409
0.744483
0.760952
0.761556
0.763333
0.780578
0.754479
0.726851
0.744057
0.785914
0.836544
0.86002
0.870816
0.878184
0.880161
0.880117
0.877305
0.871765
0.86426
0.85356
0.834772
0.809984
0.796427
0.792013
0.791097
0.792729
0.801137
0.808766
0.810487
0.809213
0.802394
0.783697
0.742152
0.662251
0.559773
0.521267
0.507847
0.505055
0.508563
0.52763
0.550751
0.562892
0.573237
0.582185
0.58686
0.59216
0.600369
0.609089
0.620564
0.634549
0.656589
0.684716
0.708448
0.730628
0.751208
0.77134
0.790886
0.808555
0.82467
0.837639
0.849238
0.85741
0.865701
0.873762
0.87897
0.883601
0.888616
0.891128
0.891184
0.890531
0.888498
0.884846
0.88135
0.875664
0.861534
0.819858
0.789471
0.77806
0.775912
0.776719
0.782284
0.788658
0.793871
0.803541
0.826422
0.856495
0.873412
0.877631
0.875639
0.864479
0.852539
0.851743
0.855025
0.86485
0.871795
0.872049
0.870198
0.867665
0.867834
0.873077
0.888401
0.901053
0.91087
0.920253
0.928267
0.933592
0.936225
0.937382
0.93876
0.941978
0.949981
0.958139
0.963618
0.966295
0.966924
0.966648
0.962958
0.612966
0.556178
0.519646
0.504205
0.497306
0.494237
0.493873
0.495026
0.498074
0.508283
0.527755
0.546297
0.563085
0.574265
0.581481
0.573721
0.513856
0.459493
0.445822
0.448908
0.485425
0.586243
0.789546
0.91481
0.956984
0.971647
0.977131
0.979173
0.979869
0.980108
0.980207
0.980283
0.980351
0.980427
0.980446
0.980354
0.980272
0.980036
0.979842
0.979759
0.979722
0.97971
0.979719
0.979695
0.979513
0.9791
0.978295
0.975346
0.970094
0.95996
0.941141
0.90894
0.853999
0.800709
0.760724
0.741445
0.73747
0.75602
0.779739
0.786149
0.788921
0.796697
0.803064
0.81671
0.834634
0.837289
0.834027
0.820036
0.803459
0.796452
0.795508
0.818815
0.842957
0.862066
0.871452
0.881247
0.885659
0.886243
0.884363
0.878338
0.868666
0.854709
0.837273
0.814447
0.791776
0.784911
0.783612
0.784496
0.791101
0.804597
0.810576
0.810877
0.805955
0.787237
0.74084
0.64643
0.532649
0.49223
0.480308
0.478776
0.488217
0.52216
0.570986
0.617234
0.645093
0.655752
0.657435
0.640952
0.621992
0.615464
0.614456
0.620264
0.630556
0.648443
0.678337
0.706972
0.732721
0.75782
0.781816
0.805543
0.827118
0.847165
0.86066
0.873905
0.881968
0.888285
0.897932
0.905453
0.911991
0.919176
0.923884
0.925076
0.924223
0.92103
0.91259
0.899355
0.889549
0.882516
0.870268
0.835313
0.797906
0.78176
0.778093
0.778471
0.781677
0.789084
0.793863
0.799411
0.810159
0.839107
0.866199
0.87542
0.874696
0.865375
0.848953
0.840068
0.839694
0.840906
0.84348
0.849006
0.85701
0.870073
0.883945
0.894226
0.901418
0.906899
0.912999
0.921278
0.929406
0.935501
0.938896
0.940257
0.941209
0.943156
0.948631
0.956745
0.962749
0.965702
0.966364
0.965694
0.615858
0.552332
0.517218
0.502565
0.496374
0.493841
0.493269
0.496148
0.503607
0.518375
0.537038
0.550345
0.558393
0.55573
0.530957
0.487381
0.460002
0.451596
0.452165
0.482507
0.576905
0.784069
0.914745
0.961018
0.975433
0.979731
0.98085
0.981011
0.980635
0.980088
0.979605
0.978887
0.978038
0.977273
0.976611
0.976031
0.975471
0.975095
0.974836
0.974664
0.974616
0.974925
0.975512
0.97645
0.977761
0.979492
0.981308
0.982187
0.983011
0.983275
0.982465
0.978601
0.969738
0.951776
0.920931
0.869353
0.841328
0.831037
0.833777
0.838909
0.84274
0.843668
0.843596
0.842294
0.839934
0.83665
0.834086
0.830977
0.829615
0.830155
0.838333
0.850352
0.86087
0.868809
0.877904
0.888988
0.893251
0.893718
0.891332
0.883012
0.870237
0.854599
0.831594
0.800204
0.781802
0.777421
0.777029
0.780431
0.79153
0.80762
0.811513
0.810428
0.80006
0.766074
0.683409
0.550754
0.480895
0.461935
0.458853
0.466305
0.503661
0.580479
0.691602
0.758172
0.779475
0.785899
0.785348
0.762026
0.706788
0.659533
0.640916
0.635228
0.634562
0.646508
0.676093
0.709943
0.746329
0.779782
0.810181
0.838675
0.862227
0.878682
0.887453
0.893392
0.901362
0.90892
0.919283
0.930424
0.939321
0.950359
0.961004
0.964984
0.965121
0.963804
0.959457
0.947219
0.921237
0.899574
0.887265
0.87451
0.843021
0.804076
0.786187
0.781369
0.782005
0.78565
0.793158
0.798465
0.802454
0.809753
0.829632
0.861094
0.873821
0.874217
0.864169
0.845643
0.834348
0.828746
0.82801
0.828844
0.833763
0.846917
0.859693
0.875814
0.895909
0.913442
0.923589
0.928202
0.932574
0.937601
0.94166
0.943799
0.944654
0.945577
0.947748
0.954179
0.961424
0.965472
0.966774
0.966608
0.621543
0.553652
0.519116
0.504398
0.499143
0.498075
0.499673
0.506267
0.514943
0.524155
0.531366
0.53374
0.523905
0.504244
0.483303
0.465806
0.460426
0.462287
0.491384
0.582464
0.787148
0.9121
0.960495
0.975956
0.980122
0.980944
0.980964
0.98034
0.978957
0.977863
0.97689
0.976122
0.975566
0.975148
0.974676
0.974365
0.973854
0.973481
0.972997
0.972434
0.971805
0.97104
0.970225
0.969271
0.968429
0.968082
0.969387
0.973404
0.977991
0.983091
0.985506
0.987036
0.987437
0.985877
0.978536
0.957985
0.910112
0.866216
0.849858
0.844662
0.844097
0.8431
0.840925
0.839743
0.840039
0.840285
0.840749
0.841742
0.843606
0.846902
0.852217
0.857822
0.863789
0.869703
0.88
0.894947
0.901932
0.902588
0.900579
0.893124
0.877869
0.858572
0.83485
0.801362
0.77574
0.770465
0.77042
0.774524
0.789239
0.807181
0.811633
0.808613
0.786652
0.726901
0.62028
0.497725
0.452879
0.442547
0.442856
0.462304
0.523497
0.644367
0.764717
0.800111
0.811608
0.815448
0.816007
0.805207
0.777008
0.711454
0.660529
0.646001
0.64612
0.651893
0.678623
0.718652
0.758382
0.79737
0.83229
0.860391
0.879937
0.891498
0.897791
0.901319
0.908902
0.920877
0.935777
0.952144
0.966348
0.974692
0.97852
0.979316
0.979053
0.978737
0.978122
0.976186
0.96912
0.941202
0.909969
0.892611
0.877163
0.847093
0.810218
0.792197
0.786785
0.787655
0.792053
0.798545
0.803432
0.80704
0.813026
0.829206
0.860933
0.874821
0.875196
0.86589
0.842542
0.830654
0.825327
0.823988
0.824342
0.82626
0.831587
0.847977
0.878782
0.907132
0.927121
0.937241
0.941511
0.94452
0.94748
0.949534
0.950402
0.951017
0.95234
0.956417
0.963208
0.967338
0.968629
0.968376
0.633461
0.574325
0.535479
0.515783
0.507243
0.505124
0.506374
0.513093
0.517539
0.519403
0.519299
0.515845
0.507465
0.495852
0.482552
0.475919
0.483386
0.51924
0.623318
0.792088
0.909809
0.958074
0.974967
0.979741
0.980685
0.980729
0.979789
0.977869
0.976994
0.976543
0.975976
0.975596
0.975117
0.974852
0.974467
0.974227
0.973845
0.973611
0.973274
0.972935
0.972567
0.972112
0.971331
0.969923
0.967879
0.96545
0.963598
0.96255
0.962153
0.965221
0.973053
0.981734
0.987483
0.989753
0.990334
0.988692
0.97893
0.951584
0.900277
0.862087
0.847176
0.841615
0.839246
0.838187
0.83939
0.840379
0.841466
0.843442
0.846237
0.849555
0.85329
0.857679
0.863477
0.870893
0.882147
0.895383
0.907812
0.91183
0.911419
0.906292
0.893518
0.871413
0.844201
0.810253
0.776398
0.763996
0.76431
0.767813
0.782825
0.804714
0.811878
0.809745
0.789315
0.72966
0.609466
0.47864
0.437414
0.429902
0.431854
0.454128
0.520414
0.657715
0.763674
0.79303
0.804401
0.813825
0.817755
0.812067
0.793832
0.737198
0.671088
0.650165
0.649695
0.659651
0.68765
0.727396
0.769029
0.810478
0.845843
0.871865
0.889453
0.89914
0.904476
0.90992
0.920747
0.940287
0.961273
0.974958
0.980827
0.982959
0.982684
0.981527
0.979867
0.979572
0.979754
0.980408
0.980306
0.976646
0.956514
0.917253
0.895399
0.872978
0.8511
0.822466
0.802424
0.79535
0.795837
0.799281
0.804707
0.80875
0.8121
0.817688
0.833478
0.864355
0.878349
0.87845
0.869083
0.843823
0.830337
0.825823
0.825413
0.826367
0.830509
0.845283
0.885983
0.924425
0.947692
0.957845
0.960438
0.960501
0.959938
0.958862
0.958184
0.958006
0.958331
0.960689
0.967224
0.971429
0.972598
0.972139
0.642506
0.597818
0.55721
0.531253
0.51756
0.513701
0.513314
0.517387
0.519761
0.520795
0.520953
0.519224
0.515994
0.513437
0.515487
0.533272
0.583946
0.673798
0.797341
0.907388
0.954922
0.973143
0.978877
0.98019
0.980345
0.979309
0.977489
0.976753
0.976355
0.975727
0.975125
0.974517
0.973822
0.973083
0.972158
0.971391
0.97099
0.970836
0.970953
0.971421
0.971885
0.972408
0.972654
0.97273
0.972355
0.970993
0.96711
0.962462
0.959595
0.958085
0.95741
0.960575
0.971256
0.983234
0.990057
0.993069
0.993916
0.991878
0.980619
0.942912
0.886344
0.853669
0.840739
0.836271
0.835129
0.837518
0.839949
0.841661
0.844291
0.847611
0.851046
0.85491
0.860688
0.868919
0.882026
0.897847
0.910674
0.919924
0.922264
0.919627
0.911137
0.893162
0.865502
0.83018
0.785664
0.763731
0.75532
0.760318
0.768689
0.796561
0.811468
0.813552
0.79914
0.74632
0.63365
0.491988
0.438486
0.426002
0.425633
0.445426
0.511667
0.634757
0.715807
0.728894
0.74316
0.781487
0.804433
0.807952
0.795539
0.743774
0.674789
0.652487
0.652913
0.663542
0.699212
0.745188
0.790629
0.833786
0.868235
0.890821
0.903445
0.909633
0.913806
0.922449
0.942178
0.965114
0.978011
0.983485
0.98476
0.984313
0.982702
0.977786
0.972051
0.970983
0.971617
0.974923
0.980367
0.981148
0.97811
0.961864
0.920514
0.893185
0.871889
0.852732
0.836896
0.821699
0.809343
0.806921
0.808304
0.811377
0.814108
0.817176
0.822897
0.840092
0.870214
0.884681
0.884673
0.877109
0.852057
0.838027
0.835911
0.837513
0.845378
0.87368
0.919211
0.952333
0.971014
0.978238
0.979408
0.978944
0.976155
0.971432
0.968248
0.966637
0.966337
0.966845
0.97014
0.974661
0.976
0.975467
0.648125
0.61566
0.590181
0.562781
0.536429
0.5275
0.525386
0.526481
0.529204
0.53363
0.541163
0.552922
0.573086
0.605053
0.640637
0.680175
0.735374
0.812451
0.896467
0.950827
0.97058
0.977559
0.979457
0.979769
0.978928
0.977307
0.976546
0.976042
0.975201
0.974083
0.972728
0.970751
0.968179
0.964961
0.961609
0.959109
0.957944
0.957601
0.959037
0.960852
0.963486
0.966589
0.969694
0.971923
0.973044
0.9734
0.973392
0.971562
0.965482
0.958738
0.955524
0.95427
0.954747
0.959965
0.974819
0.988012
0.993978
0.996065
0.996633
0.992867
0.976061
0.92152
0.86656
0.843508
0.834347
0.83289
0.834848
0.836779
0.838421
0.84098
0.844279
0.848167
0.85453
0.86574
0.880285
0.895433
0.908645
0.920569
0.928529
0.929468
0.926171
0.915794
0.893106
0.862118
0.813152
0.770371
0.755259
0.749617
0.755788
0.774754
0.805315
0.813718
0.813006
0.786328
0.702787
0.545057
0.456842
0.430093
0.425111
0.432254
0.465345
0.547195
0.586382
0.610085
0.680619
0.757648
0.788916
0.790617
0.778548
0.726268
0.668414
0.652974
0.655513
0.67518
0.720987
0.765163
0.811747
0.854169
0.88631
0.904387
0.911769
0.91535
0.920784
0.93384
0.959497
0.976391
0.984115
0.985995
0.985474
0.983016
0.975773
0.965377
0.961062
0.960253
0.960459
0.961512
0.968029
0.978497
0.980636
0.977768
0.960862
0.921532
0.890728
0.870116
0.85601
0.848162
0.839464
0.827341
0.818971
0.817726
0.818375
0.819683
0.822344
0.828207
0.847984
0.877713
0.895095
0.896242
0.890562
0.875978
0.874819
0.878678
0.893048
0.927056
0.95622
0.975396
0.985794
0.989762
0.99033
0.989965
0.987978
0.982496
0.97758
0.974426
0.973198
0.973198
0.974475
0.977859
0.978933
0.978273
0.657092
0.642152
0.630901
0.613947
0.581755
0.558578
0.551722
0.551279
0.562853
0.582419
0.619448
0.665179
0.712537
0.74305
0.767935
0.797051
0.8358
0.891257
0.942518
0.967175
0.975887
0.97867
0.979274
0.979236
0.978011
0.976444
0.975689
0.974582
0.972631
0.969644
0.964754
0.957036
0.950161
0.944541
0.941192
0.939431
0.938589
0.93836
0.939684
0.94196
0.945636
0.950458
0.956455
0.963464
0.969624
0.972746
0.974095
0.974453
0.973679
0.969583
0.960111
0.954156
0.952243
0.951714
0.955545
0.96928
0.985675
0.993959
0.997338
0.998308
0.997873
0.991442
0.960881
0.896628
0.852622
0.835512
0.828962
0.828309
0.829514
0.832469
0.83492
0.837992
0.843869
0.857541
0.874682
0.891321
0.905962
0.919111
0.930465
0.935824
0.935059
0.93104
0.919516
0.893941
0.861941
0.794245
0.761537
0.749234
0.745165
0.752664
0.778316
0.806941
0.814163
0.810252
0.783447
0.701986
0.547536
0.469729
0.441006
0.439451
0.447504
0.467561
0.499465
0.569174
0.67187
0.756243
0.786311
0.783587
0.756074
0.684473
0.657118
0.652976
0.660869
0.694886
0.740044
0.786395
0.835984
0.877268
0.901738
0.912914
0.917169
0.920383
0.927536
0.947868
0.970025
0.982993
0.986977
0.986712
0.98415
0.975081
0.96524
0.960664
0.959028
0.959028
0.959415
0.959553
0.960119
0.966513
0.977783
0.979808
0.976295
0.958537
0.919019
0.889798
0.870842
0.861504
0.856347
0.851342
0.839499
0.829897
0.825309
0.824886
0.825345
0.82743
0.833764
0.857616
0.887372
0.907756
0.913782
0.914442
0.916856
0.923587
0.941304
0.962846
0.978843
0.988684
0.993738
0.995607
0.995858
0.995636
0.994518
0.990628
0.985282
0.981203
0.979047
0.978612
0.979049
0.980981
0.981692
0.980899
0.664905
0.658588
0.65676
0.661574
0.647195
0.621293
0.613475
0.615593
0.641976
0.686066
0.733405
0.778503
0.811815
0.835139
0.849817
0.871702
0.89678
0.93121
0.961103
0.973144
0.977362
0.978562
0.978725
0.977953
0.976178
0.974751
0.973691
0.971017
0.96551
0.957495
0.948188
0.941719
0.936704
0.933436
0.931508
0.930478
0.930097
0.930226
0.931134
0.93278
0.93541
0.939203
0.943845
0.94966
0.957941
0.966888
0.972279
0.974586
0.975096
0.974561
0.971371
0.960343
0.952697
0.950264
0.949996
0.954349
0.970922
0.98621
0.994341
0.997967
0.999116
0.999364
0.9978
0.986124
0.938684
0.874047
0.840189
0.830891
0.827858
0.825178
0.824778
0.825544
0.828247
0.83609
0.856867
0.880589
0.899801
0.915116
0.927998
0.938014
0.941178
0.940119
0.935614
0.922729
0.900726
0.856579
0.78662
0.755793
0.745164
0.741233
0.748145
0.773408
0.804528
0.811517
0.808741
0.791845
0.746067
0.647454
0.567349
0.517663
0.518767
0.535068
0.579048
0.676669
0.760599
0.788118
0.788159
0.772363
0.713862
0.665775
0.65499
0.657051
0.676103
0.727479
0.770485
0.819697
0.870302
0.902931
0.916635
0.920689
0.922674
0.926755
0.937922
0.963205
0.980734
0.987598
0.988369
0.986682
0.977955
0.967845
0.962839
0.960372
0.96045
0.961876
0.964959
0.964522
0.96197
0.961816
0.968967
0.978518
0.979451
0.974787
0.953228
0.917786
0.892764
0.879648
0.87514
0.873228
0.869338
0.857396
0.84131
0.833239
0.830374
0.830444
0.832462
0.8401
0.868092
0.900132
0.920266
0.933209
0.942188
0.953431
0.967642
0.980593
0.989601
0.994778
0.997274
0.998176
0.998306
0.998197
0.997638
0.995654
0.991041
0.986726
0.983948
0.983015
0.983085
0.983966
0.98432
0.983454
0.668623
0.675947
0.675558
0.696707
0.696222
0.686768
0.682802
0.689792
0.720255
0.760412
0.808282
0.847807
0.875871
0.891532
0.902621
0.915997
0.932226
0.950202
0.968657
0.975337
0.977672
0.978267
0.978207
0.977134
0.975346
0.97358
0.971376
0.965443
0.956647
0.947168
0.939249
0.934039
0.930475
0.928211
0.926812
0.926028
0.925712
0.925801
0.926545
0.927965
0.930111
0.933774
0.938425
0.943698
0.950855
0.95969
0.967774
0.97306
0.975141
0.975421
0.974484
0.969724
0.957323
0.950476
0.948152
0.949
0.959591
0.978578
0.990073
0.995805
0.998443
0.999428
0.999691
0.999499
0.996792
0.979961
0.918782
0.857298
0.83198
0.8259
0.824562
0.822222
0.820645
0.821334
0.825774
0.841405
0.876588
0.902042
0.920525
0.934787
0.942827
0.945556
0.944445
0.939764
0.927857
0.90532
0.853994
0.78382
0.753438
0.741999
0.737134
0.742037
0.760527
0.795002
0.806086
0.806143
0.801085
0.78203
0.761596
0.724247
0.724561
0.735668
0.762243
0.78667
0.794814
0.792646
0.776269
0.721703
0.672085
0.657493
0.656382
0.665627
0.708789
0.760227
0.800714
0.851667
0.893686
0.914544
0.922262
0.923571
0.925003
0.929561
0.945674
0.971331
0.985593
0.989465
0.988925
0.984118
0.972949
0.966565
0.963636
0.964255
0.965924
0.969969
0.976853
0.977264
0.973432
0.965854
0.965987
0.97365
0.979875
0.979559
0.972809
0.948343
0.92053
0.905447
0.901913
0.902199
0.901957
0.898306
0.88059
0.853504
0.840604
0.835947
0.835721
0.837966
0.847889
0.881477
0.913957
0.93562
0.952697
0.967011
0.979291
0.988499
0.994263
0.997313
0.998699
0.999198
0.999287
0.999243
0.998988
0.998098
0.995242
0.99103
0.987948
0.986571
0.986399
0.986674
0.986796
0.986004
0.670829
0.688093
0.688635
0.714786
0.741297
0.737786
0.733903
0.738792
0.769449
0.813722
0.856841
0.889887
0.912234
0.924069
0.93341
0.941763
0.951885
0.960709
0.971477
0.975966
0.977583
0.977986
0.977805
0.976237
0.974015
0.971231
0.966396
0.957489
0.947571
0.939162
0.932951
0.929082
0.926551
0.924975
0.924098
0.923636
0.92337
0.923474
0.924018
0.925361
0.927444
0.930616
0.935408
0.940785
0.947705
0.956863
0.965809
0.972035
0.974944
0.975617
0.975193
0.972246
0.961676
0.951222
0.947219
0.94671
0.95163
0.97088
0.986532
0.994392
0.997777
0.999129
0.999669
0.999855
0.999854
0.999334
0.99515
0.971412
0.898304
0.8457
0.828424
0.822787
0.821132
0.818747
0.818099
0.819703
0.827351
0.852158
0.894067
0.9217
0.938206
0.945408
0.948539
0.947858
0.943987
0.933959
0.911559
0.859849
0.787719
0.754119
0.739774
0.73345
0.734869
0.74476
0.765224
0.789641
0.798515
0.798941
0.798112
0.795275
0.796232
0.800347
0.801573
0.799739
0.791571
0.766353
0.708054
0.672409
0.660002
0.657279
0.664078
0.692421
0.760128
0.795734
0.838242
0.886239
0.915971
0.9249
0.925494
0.925659
0.927367
0.935444
0.960331
0.982157
0.990445
0.991014
0.988546
0.979363
0.971762
0.968691
0.969766
0.972344
0.975545
0.977189
0.981114
0.984174
0.983666
0.975845
0.969111
0.970528
0.978381
0.98118
0.979733
0.970581
0.947687
0.933601
0.930774
0.932136
0.934605
0.93372
0.925246
0.893286
0.862445
0.846791
0.840995
0.840653
0.843699
0.858155
0.898549
0.930586
0.952792
0.970214
0.982899
0.991145
0.995844
0.998184
0.999203
0.999576
0.999661
0.99965
0.999542
0.999136
0.997793
0.994304
0.991151
0.989468
0.989014
0.989013
0.988993
0.988286
0.682564
0.684535
0.709226
0.708856
0.754404
0.780339
0.788301
0.790538
0.7986
0.834412
0.875725
0.910831
0.935068
0.946002
0.952501
0.957658
0.963025
0.967543
0.972726
0.975927
0.977268
0.977559
0.9773
0.975952
0.973043
0.96902
0.96329
0.955112
0.946117
0.938545
0.932713
0.928839
0.92632
0.92472
0.923702
0.923104
0.922873
0.922929
0.923269
0.924316
0.926492
0.92963
0.934407
0.939854
0.946737
0.956026
0.965308
0.97186
0.975096
0.975953
0.97556
0.972848
0.962918
0.950722
0.944783
0.944081
0.947867
0.965985
0.983284
0.992659
0.997078
0.998912
0.999597
0.999851
0.999942
0.999955
0.999876
0.999043
0.993206
0.96009
0.882383
0.841578
0.826406
0.820305
0.81826
0.815678
0.815796
0.818953
0.830939
0.868431
0.913106
0.936646
0.946269
0.949977
0.949937
0.947574
0.939844
0.920624
0.87882
0.801111
0.760611
0.739685
0.734069
0.729991
0.731387
0.737962
0.753176
0.767304
0.77563
0.781097
0.781519
0.779253
0.77178
0.755775
0.720553
0.690277
0.67307
0.662203
0.661997
0.66875
0.694248
0.760772
0.803758
0.830186
0.876027
0.916908
0.92904
0.92896
0.926517
0.92639
0.929881
0.946919
0.977286
0.989906
0.992567
0.991677
0.985343
0.977419
0.974202
0.975924
0.979837
0.98204
0.980616
0.980449
0.982164
0.986551
0.98705
0.984504
0.974064
0.97213
0.975973
0.981991
0.982488
0.980179
0.969455
0.957975
0.955273
0.956256
0.959894
0.960258
0.955894
0.932375
0.888
0.860358
0.847579
0.844055
0.844675
0.850396
0.874611
0.917754
0.948476
0.969127
0.982902
0.991408
0.996075
0.998351
0.999335
0.999705
0.999809
0.999816
0.999775
0.999586
0.998925
0.996663
0.993641
0.991821
0.991124
0.990986
0.990884
0.990251
0.758194
0.695518
0.702962
0.716394
0.746337
0.782351
0.806005
0.826743
0.834198
0.852445
0.88104
0.913019
0.937941
0.952928
0.961265
0.966358
0.969757
0.972304
0.974463
0.976097
0.977092
0.977325
0.977183
0.976172
0.973483
0.969399
0.963866
0.956261
0.947668
0.940184
0.934214
0.930057
0.927287
0.925543
0.92439
0.923663
0.923566
0.923702
0.924156
0.925183
0.927366
0.93141
0.936615
0.942428
0.950025
0.959953
0.969013
0.974549
0.976483
0.976581
0.975796
0.972219
0.960331
0.947106
0.941257
0.941118
0.946049
0.964422
0.982174
0.992018
0.996752
0.998772
0.999556
0.999844
0.999945
0.99998
0.999987
0.999977
0.99984
0.998638
0.99032
0.944673
0.873399
0.838372
0.823754
0.818315
0.814746
0.812449
0.81344
0.819741
0.840734
0.895501
0.929677
0.944816
0.949774
0.95076
0.949576
0.94441
0.930431
0.899608
0.831677
0.77447
0.748441
0.734555
0.728959
0.725025
0.723597
0.724061
0.724176
0.723916
0.721513
0.715157
0.70605
0.693272
0.683318
0.674519
0.668704
0.670987
0.681048
0.70752
0.770888
0.812296
0.829924
0.867246
0.915279
0.931922
0.933478
0.930155
0.9257
0.926521
0.935122
0.963388
0.985278
0.993018
0.993385
0.990722
0.98334
0.979071
0.981023
0.987058
0.989346
0.986946
0.982149
0.981484
0.983131
0.987525
0.988681
0.987723
0.979847
0.974188
0.975217
0.981391
0.984772
0.984541
0.981675
0.975017
0.972755
0.973181
0.97592
0.97699
0.974728
0.960392
0.914334
0.87515
0.855114
0.847867
0.846896
0.849196
0.861306
0.899145
0.938111
0.964893
0.981448
0.99092
0.995908
0.998297
0.999336
0.99974
0.99987
0.999892
0.999878
0.999787
0.999428
0.998053
0.995425
0.993643
0.992846
0.992625
0.992481
0.991922
0.842695
0.776885
0.711013
0.715503
0.732249
0.773877
0.80378
0.83118
0.850276
0.867331
0.886963
0.911126
0.935722
0.952241
0.961788
0.968003
0.971858
0.97433
0.975863
0.97684
0.977173
0.977323
0.97722
0.97659
0.974682
0.970683
0.965582
0.959208
0.951394
0.944056
0.937893
0.933265
0.929943
0.927921
0.926472
0.925616
0.925627
0.925938
0.926781
0.928695
0.931808
0.936586
0.942369
0.948301
0.956758
0.966074
0.973022
0.976218
0.977041
0.976825
0.975365
0.969127
0.952315
0.941354
0.939042
0.940058
0.946819
0.967012
0.983648
0.992645
0.996925
0.998787
0.999549
0.999842
0.999947
0.999982
0.999993
0.999996
0.999994
0.999961
0.999618
0.996536
0.978892
0.914439
0.856733
0.831135
0.819604
0.814638
0.809423
0.809044
0.812075
0.825504
0.87003
0.918348
0.940734
0.948653
0.950664
0.950249
0.94724
0.938074
0.916244
0.86823
0.802447
0.763602
0.742741
0.730936
0.724943
0.719298
0.715635
0.709317
0.704861
0.698699
0.692743
0.687361
0.681721
0.682963
0.688962
0.703765
0.732316
0.789638
0.821686
0.834894
0.862946
0.91437
0.933907
0.937266