/*--------------------------------*- C++ -*----------------------------------*\
  =========                 |
  \\      /  F ield         | OpenFOAM: The Open Source CFD Toolbox
   \\    /   O peration     | Website:  https://openfoam.org
    \\  /    A nd           | Version:  9
     \\/     M anipulation  |
\*---------------------------------------------------------------------------*/
FoamFile
{
    format      ascii;
    class       volVectorField;
    location    "0.057";
    object      U;
}
// * * * * * * * * * * * * * * * * * * * * * * * * * * * * * * * * * * * * * //

dimensions      [0 1 -1 0 0 0 0];

internalField   nonuniform List<vector> 
12225
(
(10.0984 -0.0202961 0)
(9.70228 0.0251252 0)
(9.43026 0.0277236 0)
(9.15004 0.0345295 0)
(8.792 0.0452407 0)
(8.41209 0.0487429 0)
(8.08016 0.0459525 0)
(7.81684 0.0475996 0)
(7.5665 0.0600703 0)
(7.28588 0.0778336 0)
(6.93335 0.089108 0)
(6.57072 0.085053 0)
(6.1806 0.0738276 0)
(5.8834 0.0635507 0)
(5.47139 0.0745932 0)
(5.25091 0.0982366 0)
(4.55664 0.15596 0)
(4.30037 0.223569 0)
(10.0874 0.156747 0)
(10.2817 0.126034 0)
(10.3305 0.0856304 0)
(10.3252 0.100443 0)
(10.3148 0.127119 0)
(10.2774 0.13042 0)
(10.1934 0.111514 0)
(10.0846 0.090764 0)
(9.97552 0.0849376 0)
(9.89426 0.0994318 0)
(9.8212 0.122643 0)
(9.76522 0.14626 0)
(9.6624 0.154216 0)
(9.57262 0.168489 0)
(9.36236 0.176874 0)
(9.22411 0.216174 0)
(8.88122 0.294052 0)
(8.66903 0.371515 0)
(9.9628 -0.0991895 0)
(10.0063 -0.0113858 0)
(9.99692 0.0388676 0)
(10.048 0.0544882 0)
(10.1396 0.0607658 0)
(10.2144 0.0739154 0)
(10.2389 0.0916719 0)
(10.2159 0.107475 0)
(10.1631 0.118823 0)
(10.1065 0.12944 0)
(10.0599 0.138121 0)
(10.0325 0.146396 0)
(10.0047 0.150945 0)
(9.98054 0.169644 0)
(9.9368 0.202008 0)
(9.89779 0.266296 0)
(9.8437 0.368377 0)
(9.81262 0.497048 0)
(9.97395 0.113516 0)
(9.86273 0.103017 0)
(9.88191 0.0579592 0)
(9.96863 0.0467113 0)
(10.0241 0.0757237 0)
(10.0329 0.104833 0)
(10.0219 0.115363 0)
(10.0145 0.11515 0)
(10.0116 0.11785 0)
(10.0039 0.130195 0)
(9.9859 0.146316 0)
(9.96276 0.162279 0)
(9.93949 0.174019 0)
(9.92249 0.193892 0)
(9.9141 0.225906 0)
(9.91337 0.281443 0)
(9.92454 0.369294 0)
(9.95896 0.478794 0)
(9.89599 -0.0434861 0)
(9.99831 0.00434189 0)
(10.005 0.0367311 0)
(9.97809 0.0369769 0)
(9.98503 0.0464724 0)
(10.0254 0.0710126 0)
(10.0635 0.0954651 0)
(10.0813 0.113155 0)
(10.0769 0.128208 0)
(10.0532 0.144621 0)
(10.0163 0.158724 0)
(9.97777 0.167645 0)
(9.94668 0.171664 0)
(9.92995 0.183285 0)
(9.92628 0.212557 0)
(9.9344 0.267886 0)
(9.94746 0.351932 0)
(9.97432 0.448847 0)
(10.0903 -0.0334828 0)
(9.94098 0.0670765 0)
(10.0132 0.0534028 0)
(10.1486 0.0417825 0)
(10.2444 0.058073 0)
(10.2922 0.082432 0)
(10.2891 0.0984325 0)
(10.2321 0.107169 0)
(10.1388 0.119978 0)
(10.0432 0.142821 0)
(9.97232 0.168257 0)
(9.93443 0.187068 0)
(9.91992 0.19605 0)
(9.91605 0.205373 0)
(9.91367 0.228774 0)
(9.91267 0.275801 0)
(9.91177 0.349114 0)
(9.92025 0.437552 0)
(9.8162 0.00224466 0)
(9.90051 0.00178327 0)
(9.95873 -0.0144316 0)
(9.91846 -0.0292094 0)
(9.88236 -0.00753435 0)
(9.90088 0.0469221 0)
(9.93919 0.115389 0)
(9.96134 0.176399 0)
(9.96788 0.214504 0)
(9.97715 0.226476 0)
(9.99816 0.217694 0)
(10.0213 0.199415 0)
(10.0297 0.184791 0)
(10.0102 0.186731 0)
(9.96745 0.213873 0)
(9.91874 0.266591 0)
(9.87847 0.340955 0)
(9.86738 0.427171 0)
(10.3269 -0.0428823 0)
(10.16 0.0162422 0)
(10.0787 0.0566153 0)
(10.0287 0.0746844 0)
(9.93705 0.0766422 0)
(9.82842 0.0735991 0)
(9.75471 0.0764172 0)
(9.74785 0.0847916 0)
(9.80605 0.0955045 0)
(9.89909 0.110023 0)
(9.98494 0.132149 0)
(10.0232 0.162991 0)
(9.99682 0.200599 0)
(9.91454 0.242006 0)
(9.80704 0.28488 0)
(9.71143 0.331513 0)
(9.64781 0.381495 0)
(9.63643 0.440799 0)
(10.0238 0.0228488 0)
(10.0791 0.0636639 0)
(10.0384 0.0396643 0)
(10.0574 0.0189333 0)
(10.1378 0.0531173 0)
(10.1792 0.109156 0)
(10.1314 0.151023 0)
(10.0343 0.165944 0)
(9.9538 0.162912 0)
(9.92261 0.160841 0)
(9.93599 0.174503 0)
(9.97114 0.206895 0)
(10.0034 0.250541 0)
(10.0166 0.29507 0)
(10.0031 0.331439 0)
(9.96686 0.360647 0)
(9.91957 0.38508 0)
(9.87089 0.413306 0)
(9.99091 -0.0654741 0)
(10.0132 0.00663818 0)
(9.99658 0.0634155 0)
(9.94602 0.039664 0)
(9.9225 0.0376968 0)
(9.93588 0.0846984 0)
(9.95429 0.137883 0)
(9.95537 0.155461 0)
(9.94358 0.134465 0)
(9.93251 0.102258 0)
(9.93258 0.089203 0)
(9.94915 0.110076 0)
(9.97918 0.162143 0)
(10.0126 0.232746 0)
(10.0388 0.308013 0)
(10.05 0.378349 0)
(10.0478 0.440234 0)
(10.0348 0.490211 0)
(10.1539 -0.000588049 0)
(9.98418 0.0756171 0)
(10.0259 0.079765 0)
(10.064 0.0508197 0)
(10.046 0.0490714 0)
(10.0147 0.0904299 0)
(10.0083 0.144694 0)
(10.0327 0.17851 0)
(10.0716 0.186535 0)
(10.0945 0.183705 0)
(10.0777 0.185595 0)
(10.0224 0.199918 0)
(9.95043 0.227672 0)
(9.88606 0.266086 0)
(9.84322 0.308619 0)
(9.8272 0.351509 0)
(9.83384 0.389363 0)
(9.86359 0.425117 0)
(9.95596 0.0825526 0)
(10.0065 0.0731053 0)
(10.143 0.0185159 0)
(10.1915 0.0319562 0)
(10.1292 0.0703906 0)
(10.0434 0.110895 0)
(9.99918 0.130448 0)
(10.0047 0.118867 0)
(10.0416 0.0957204 0)
(10.0841 0.0913819 0)
(10.1078 0.120178 0)
(10.1001 0.175344 0)
(10.0634 0.240476 0)
(10.0118 0.301798 0)
(9.96274 0.35168 0)
(9.92881 0.390656 0)
(9.91637 0.420399 0)
(9.92167 0.447217 0)
(10.002 0.0527002 0)
(10.2281 0.0309263 0)
(10.2352 0.00748755 0)
(10.2198 0.0447123 0)
(10.2306 0.0997364 0)
(10.2501 0.142081 0)
(10.256 0.160251 0)
(10.2371 0.157528 0)
(10.1946 0.151601 0)
(10.1349 0.161381 0)
(10.0668 0.194024 0)
(10.0039 0.242817 0)
(9.95838 0.293691 0)
(9.93752 0.334844 0)
(9.94082 0.36063 0)
(9.96291 0.374477 0)
(9.99846 0.381045 0)
(10.036 0.390514 0)
(9.94795 -0.0636976 0)
(10.0733 -0.00110128 0)
(10.0088 0.0383834 0)
(9.9337 0.0441548 0)
(9.92196 0.066113 0)
(9.94572 0.1102 0)
(9.97018 0.143607 0)
(9.99659 0.151938 0)
(10.0426 0.150804 0)
(10.1095 0.161677 0)
(10.1822 0.191767 0)
(10.246 0.233485 0)
(10.2907 0.274273 0)
(10.3127 0.306015 0)
(10.3099 0.328883 0)
(10.2882 0.347168 0)
(10.2526 0.368027 0)
(10.2119 0.393424 0)
(9.92926 -0.0461783 0)
(9.92669 -0.0267676 0)
(9.96241 0.0533568 0)
(9.98581 0.0769182 0)
(9.99617 0.0826546 0)
(10.0241 0.102116 0)
(10.0712 0.10968 0)
(10.1242 0.087189 0)
(10.1729 0.0525761 0)
(10.2109 0.0401355 0)
(10.2381 0.0714635 0)
(10.2564 0.143517 0)
(10.2667 0.235054 0)
(10.2661 0.323434 0)
(10.2548 0.392408 0)
(10.2358 0.438704 0)
(10.215 0.464895 0)
(10.1981 0.478928 0)
(10.3102 -0.0427846 0)
(10.2261 0.0292877 0)
(10.19 0.021319 0)
(10.1594 0.0342599 0)
(10.1372 0.0631496 0)
(10.1318 0.0729878 0)
(10.1322 0.0699769 0)
(10.1251 0.0747512 0)
(10.1004 0.09588 0)
(10.0584 0.130593 0)
(10.0126 0.173798 0)
(9.98358 0.222304 0)
(9.98203 0.271938 0)
(10.0071 0.317697 0)
(10.0476 0.354708 0)
(10.0937 0.382338 0)
(10.1356 0.401879 0)
(10.1693 0.418605 0)
(9.96086 -0.0237516 0)
(10.0414 0.109783 0)
(10.037 0.116934 0)
(10.0584 0.0959469 0)
(10.0794 0.0867049 0)
(10.1066 0.0926242 0)
(10.1363 0.104826 0)
(10.1534 0.113596 0)
(10.1541 0.119143 0)
(10.142 0.128099 0)
(10.1235 0.144152 0)
(10.1074 0.16695 0)
(10.0994 0.194574 0)
(10.1004 0.226922 0)
(10.1059 0.263956 0)
(10.1146 0.305249 0)
(10.1224 0.349061 0)
(10.1321 0.391686 0)
(10.0398 0.130563 0)
(10.1682 -0.02301 0)
(10.1887 -0.0216467 0)
(10.204 0.0226728 0)
(10.1856 0.0299596 0)
(10.1477 0.0115428 0)
(10.12 0.0115326 0)
(10.107 0.0529356 0)
(10.0991 0.120991 0)
(10.089 0.18832 0)
(10.078 0.239991 0)
(10.0717 0.277232 0)
(10.0722 0.305825 0)
(10.0775 0.330973 0)
(10.0849 0.352897 0)
(10.0928 0.371556 0)
(10.1014 0.384895 0)
(10.1104 0.392919 0)
(10.0099 0.0367449 0)
(10.0867 0.018847 0)
(10.0831 0.0188285 0)
(10.0597 0.100454 0)
(10.0439 0.165784 0)
(10.0242 0.183211 0)
(9.99373 0.170879 0)
(9.9656 0.155406 0)
(9.94592 0.148329 0)
(9.93426 0.146534 0)
(9.93375 0.144863 0)
(9.94883 0.144213 0)
(9.98015 0.149678 0)
(10.0243 0.166533 0)
(10.0788 0.197251 0)
(10.1388 0.237852 0)
(10.2024 0.283256 0)
(10.2625 0.324994 0)
(10.1794 -0.0154116 0)
(10.1955 -0.0837211 0)
(10.1735 0.0279947 0)
(10.1984 0.10494 0)
(10.2471 0.11016 0)
(10.2868 0.0963664 0)
(10.2984 0.107564 0)
(10.2938 0.144904 0)
(10.2832 0.186183 0)
(10.2651 0.210573 0)
(10.2371 0.209732 0)
(10.2022 0.187201 0)
(10.1685 0.153944 0)
(10.1448 0.120947 0)
(10.1386 0.0971912 0)
(10.1529 0.0881384 0)
(10.186 0.0931876 0)
(10.2342 0.114779 0)
(10.2385 -0.0281544 0)
(10.1289 -0.0455354 0)
(10.0484 0.0111511 0)
(10.0093 0.0323577 0)
(10.0375 0.0653939 0)
(10.0784 0.112469 0)
(10.0862 0.151136 0)
(10.08 0.177803 0)
(10.0915 0.201074 0)
(10.1279 0.225476 0)
(10.1795 0.245565 0)
(10.234 0.251159 0)
(10.2821 0.235519 0)
(10.3192 0.19957 0)
(10.3449 0.15258 0)
(10.3627 0.107817 0)
(10.3763 0.0747376 0)
(10.389 0.0626419 0)
(9.79131 0.11719 0)
(9.86732 0.132217 0)
(9.89134 0.130757 0)
(9.87726 0.0744719 0)
(9.89774 0.0340082 0)
(9.95001 0.0517055 0)
(10.0033 0.0986556 0)
(10.0512 0.130208 0)
(10.0978 0.128381 0)
(10.1469 0.104901 0)
(10.1997 0.0795472 0)
(10.2525 0.0625865 0)
(10.2989 0.0536832 0)
(10.3323 0.0487394 0)
(10.3494 0.0464705 0)
(10.3534 0.0487029 0)
(10.3492 0.0566057 0)
(10.3467 0.0732316 0)
(9.96839 -0.065738 0)
(9.91027 -0.00667636 0)
(9.92208 0.0413137 0)
(9.96014 0.0255947 0)
(10.0155 0.00269623 0)
(10.0698 0.0124767 0)
(10.129 0.0492934 0)
(10.1945 0.0841173 0)
(10.2471 0.100134 0)
(10.2693 0.101985 0)
(10.2619 0.100971 0)
(10.2425 0.102686 0)
(10.231 0.105985 0)
(10.2391 0.107456 0)
(10.2668 0.102903 0)
(10.3063 0.0920533 0)
(10.3492 0.0739008 0)
(10.387 0.0519271 0)
(9.97498 0.1103 0)
(9.93451 0.135178 0)
(10.0137 0.0499649 0)
(10.0474 -0.0150497 0)
(10.0374 -0.0399592 0)
(10.0317 -0.037244 0)
(10.0565 -0.0191812 0)
(10.1105 0.010906 0)
(10.1792 0.0505594 0)
(10.2465 0.0891181 0)
(10.3019 0.110777 0)
(10.3441 0.104076 0)
(10.3771 0.0707771 0)
(10.4054 0.0240017 0)
(10.4323 -0.0171602 0)
(10.4577 -0.0398404 0)
(10.4801 -0.0379434 0)
(10.4948 -0.0143646 0)
(10.1723 0.144616 0)
(10.1245 0.0457533 0)
(10.0875 -0.00596522 0)
(10.056 0.00237467 0)
(10.0525 0.0012953 0)
(10.0389 -0.00952037 0)
(10.0152 -0.0158552 0)
(10.0175 -0.0148038 0)
(10.0682 -0.0078778 0)
(10.161 0.00358225 0)
(10.2688 0.0179889 0)
(10.3552 0.0315234 0)
(10.3928 0.0394059 0)
(10.3748 0.0385572 0)
(10.3159 0.030857 0)
(10.2434 0.0216068 0)
(10.1793 0.0161693 0)
(10.1441 0.0206367 0)
(9.80511 0.0278771 0)
(9.97523 0.146794 0)
(10.0034 0.0696739 0)
(10.0079 -0.00404756 0)
(10.05 -0.017821 0)
(10.1123 -0.00761963 0)
(10.1728 -0.00989952 0)
(10.2182 -0.0330743 0)
(10.2416 -0.0614301 0)
(10.2493 -0.0702358 0)
(10.2573 -0.0467786 0)
(10.2778 0.00231187 0)
(10.3134 0.0566462 0)
(10.3604 0.0964274 0)
(10.4134 0.109698 0)
(10.4654 0.0977115 0)
(10.5119 0.0678165 0)
(10.5467 0.0340003 0)
(9.89765 -0.00235047 0)
(9.91227 0.0155114 0)
(9.97186 0.00566095 0)
(10.0014 -0.0197406 0)
(10.0174 -0.0515487 0)
(10.029 -0.0732079 0)
(10.0384 -0.069415 0)
(10.0417 -0.0483046 0)
(10.0337 -0.0263776 0)
(10.0166 -0.0126736 0)
(9.99976 -0.00851164 0)
(9.99327 -0.0123168 0)
(10.0038 -0.0215067 0)
(10.031 -0.0340331 0)
(10.0687 -0.0456101 0)
(10.1113 -0.0514559 0)
(10.1534 -0.0477805 0)
(10.1952 -0.0316244 0)
(9.82723 0.0649819 0)
(10.0086 0.0732521 0)
(10.1499 0.016014 0)
(10.2081 -0.0196459 0)
(10.1834 -0.0325809 0)
(10.1242 -0.0331488 0)
(10.0844 -0.0323151 0)
(10.0883 -0.0389834 0)
(10.1295 -0.0470285 0)
(10.1896 -0.0447383 0)
(10.2524 -0.0274016 0)
(10.3062 -0.000435984 0)
(10.3448 0.0258563 0)
(10.3666 0.0408759 0)
(10.3724 0.0388205 0)
(10.3674 0.0216133 0)
(10.3576 -0.00609665 0)
(10.3513 -0.0350283 0)
(9.97604 -0.0543703 0)
(10.0572 -0.0686743 0)
(10.0759 -0.0565867 0)
(10.1123 -0.0340405 0)
(10.1388 -0.0197087 0)
(10.1624 -0.0259391 0)
(10.1896 -0.0435403 0)
(10.2107 -0.0621865 0)
(10.2171 -0.0750151 0)
(10.2134 -0.078129 0)
(10.2125 -0.0719778 0)
(10.2262 -0.0607045 0)
(10.2576 -0.0490871 0)
(10.3016 -0.0405731 0)
(10.3477 -0.036006 0)
(10.3864 -0.0340649 0)
(10.4105 -0.0332964 0)
(10.4196 -0.0322971 0)
(9.74872 -0.0595444 0)
(9.59569 0.00692255 0)
(9.51656 0.000117062 0)
(9.421 -0.0337147 0)
(9.30395 -0.0499183 0)
(9.17881 -0.0522015 0)
(9.04573 -0.0506217 0)
(8.89464 -0.0500141 0)
(8.72645 -0.0493352 0)
(8.55803 -0.0452736 0)
(8.40957 -0.0369909 0)
(8.29269 -0.0269416 0)
(8.20644 -0.0183459 0)
(8.14307 -0.0136837 0)
(8.09013 -0.0140588 0)
(8.03977 -0.0190507 0)
(7.98321 -0.0278215 0)
(7.9207 -0.0374976 0)
(-0.0334584 0.0803794 1.9666e-20)
(0.0905337 -0.0581562 -1.95251e-20)
(0.360915 -0.144462 0)
(0.630895 -0.152085 0)
(0.85594 -0.110316 0)
(1.00564 -0.0647741 1.87816e-20)
(1.07208 -0.0406573 0)
(1.06215 -0.0510511 0)
(0.989924 -0.086346 0)
(0.882773 -0.123565 0)
(0.780131 -0.146761 -1.79855e-20)
(0.706133 -0.154124 0)
(0.681538 -0.124322 0)
(0.67163 -0.0268635 0)
(0.617114 0.139078 0)
(0.465551 0.434407 -1.75933e-20)
(0.116953 0.515509 0)
(-0.222767 0.138988 0)
(-0.434192 -0.0820851 0)
(-0.506655 -0.135197 0)
(-0.479153 -0.22155 0)
(-0.47248 -0.287248 0)
(-0.533787 -0.263533 0)
(-0.728432 -0.117228 -1.65902e-20)
(-1.12622 0.20807 1.63882e-20)
(-1.74992 0.716391 -1.61815e-20)
(-2.55879 0.994694 -1.59357e-20)
(-3.33072 0.774847 0)
(-3.92389 0.57077 0)
(-4.47742 0.572428 1.49638e-20)
(-4.97185 0.44829 1.46205e-20)
(-5.3006 0.261518 0)
(-5.52628 0.18267 0)
(-5.69791 0.133183 1.36969e-20)
(-5.80052 0.0646235 0)
(-5.83289 0.00380137 0)
(-5.80432 -0.0439783 -1.30651e-20)
(-5.72891 -0.0839393 0)
(-5.60173 -0.117522 -1.28355e-20)
(-5.431 -0.147855 -2.5555e-20)
(-5.21603 -0.173677 0)
(-4.96037 -0.193601 0)
(-4.66641 -0.209686 0)
(-4.33524 -0.221502 0)
(-3.96972 -0.228484 0)
(-3.57382 -0.230514 -2.59935e-20)
(-3.15433 -0.226137 -2.61455e-20)
(-2.72138 -0.212305 -2.62857e-20)
(-2.2874 -0.184097 0)
(-1.86894 -0.135146 2.65076e-20)
(-1.49045 -0.0586004 0)
(-1.18282 0.0405986 -2.66506e-20)
(-0.966551 0.12222 -2.66913e-20)
(-0.852339 0.126343 0)
(-0.804823 0.0659436 0)
(-0.829132 -0.0678707 0)
(-0.89633 -0.17086 -2.6519e-20)
(-0.943276 -0.144701 0)
(-1.03263 -0.0477887 0)
(-1.13871 0.0800163 0)
(-1.28109 0.167248 0)
(-1.35514 0.128604 0)
(-1.23261 0.0109985 0)
(-1.0693 -0.0733427 0)
(-0.797403 -0.161889 0)
(-0.465527 -0.228897 2.50385e-20)
(-0.0906597 -0.268347 0)
(0.293156 -0.284304 0)
(0.65167 -0.29618 -2.46688e-20)
(0.96305 -0.334213 -2.45333e-20)
(1.24973 -0.352852 0)
(1.61125 -0.249477 2.42928e-20)
(2.04543 -0.0841054 -2.41617e-20)
(2.0996 -0.0120109 0)
(1.67197 0.141462 2.38608e-20)
(1.44909 0.177072 0)
(1.60381 -0.043579 0)
(1.89435 -0.277932 -2.30653e-20)
(2.18551 -0.425842 0)
(2.43561 -0.441482 2.22572e-20)
(2.62341 -0.336269 0)
(2.7053 -0.18811 -2.13276e-20)
(2.65892 -0.101563 -2.08709e-20)
(2.49288 -0.0914481 -2.04607e-20)
(2.20075 -0.0927707 -4.02123e-20)
(1.68736 0.00124974 3.96653e-20)
(0.795682 0.281508 0)
(-0.481824 0.670919 0)
(-2.06605 0.895027 0)
(-3.74822 0.94388 3.68074e-20)
(-5.33441 0.898751 3.49917e-20)
(-6.79435 0.822696 -3.28221e-20)
(-8.11867 0.739358 0)
(-9.31315 0.658987 2.7981e-20)
(-10.3877 0.584578 2.55118e-20)
(-11.3507 0.514851 2.31032e-20)
(-12.2063 0.447598 0)
(-12.9537 0.380254 0)
(-13.586 0.310472 0)
(-14.0912 0.23699 1.52737e-20)
(-14.455 0.160426 0)
(-14.6653 0.0831323 0)
(-14.7159 0.00868394 -1.32849e-20)
(-14.6131 -0.0591013 0)
(-14.3842 -0.121417 0)
(-14.0193 -0.178376 -1.56554e-20)
(-13.5383 -0.228136 0)
(-12.9458 -0.272084 0)
(-12.2564 -0.30871 2.11087e-20)
(-11.4836 -0.337949 2.323e-20)
(-10.6454 -0.358282 0)
(-9.76297 -0.369312 -2.73736e-20)
(-8.857 -0.371507 0)
(-7.94685 -0.366622 3.08693e-20)
(-7.04645 -0.356969 0)
(-6.16553 -0.344497 3.34272e-20)
(-5.30975 -0.330854 3.43547e-20)
(-4.4803 -0.318028 0)
(-3.67308 -0.307866 0)
(-2.87993 -0.301442 0)
(-2.09041 -0.298886 0)
(-1.2947 -0.300231 0)
(-0.483763 -0.30701 0)
(0.345588 -0.309175 0)
(1.19448 -0.312067 3.62111e-20)
(2.05382 -0.31141 -3.58703e-20)
(2.91555 -0.306597 0)
(3.76772 -0.2975 0)
(4.59771 -0.284208 0)
(5.39302 -0.266968 0)
(6.1417 -0.245439 -6.46439e-20)
(6.83039 -0.219421 0)
(7.44653 -0.187591 6.0443e-20)
(7.97166 -0.147742 -5.81788e-20)
(8.38593 -0.104006 0)
(8.67938 -0.0576661 0)
(8.8305 6.62711e-05 0)
(8.81187 0.0586417 4.92725e-20)
(8.64193 0.105376 4.73242e-20)
(8.35129 0.134361 0)
(7.97783 0.147827 4.38862e-20)
(7.55619 0.153055 4.23722e-20)
(7.10938 0.153367 -4.09732e-20)
(6.65345 0.147831 0)
(6.20108 0.139979 0)
(5.75623 0.140374 -3.74467e-20)
(5.31061 0.156478 0)
(4.84945 0.180091 0)
(4.36742 0.190626 0)
(3.88435 0.174645 0)
(3.43941 0.136831 3.39887e-20)
(3.06796 0.0910219 3.36055e-20)
(2.78521 0.0497462 0)
(2.58196 0.0229573 3.30622e-20)
(2.43154 0.012719 0)
(2.30589 0.0116324 0)
(2.18505 0.0138124 3.23267e-20)
(2.05353 0.0213995 0)
(1.9029 0.0310514 3.16388e-20)
(1.7495 0.0310093 0)
(1.62795 0.0264434 0)
(1.5478 0.0450066 3.05953e-20)
(1.46133 0.0915781 0)
(1.31642 0.122104 3.01379e-20)
(1.14133 0.101664 0)
(1.01547 0.0459549 0)
(0.985178 -0.0101138 0)
(1.04686 -0.0462852 -2.93268e-20)
(1.16619 -0.0540052 0)
(1.30585 -0.0440216 2.88439e-20)
(1.431 -0.0268242 0)
(1.52131 -0.0096403 0)
(1.55767 0.00523036 0)
(1.54162 0.0157287 0)
(1.48631 0.0215683 0)
(1.40396 0.01523 0)
(1.34841 0.0114909 0)
(1.22329 -0.00467921 -5.12107e-20)
(1.26526 0.0166507 0)
(0.935164 -0.00302249 0)
(0.02426 -0.172149 -5.88984e-20)
(0.396443 -0.755297 5.83633e-20)
(0.862689 -0.948018 0)
(1.29318 -0.864117 -3.80224e-20)
(1.65619 -0.632622 0)
(1.93393 -0.348364 -1.87189e-20)
(2.11579 -0.0664259 3.6764e-20)
(2.20463 0.221556 3.64074e-20)
(2.19346 0.469425 0)
(2.08536 0.579411 3.58222e-20)
(1.90087 0.526337 1.79204e-20)
(1.65415 0.366565 0)
(1.3802 0.205675 0)
(1.16036 0.172753 0)
(0.993196 0.284052 0)
(0.850302 0.521132 1.75631e-20)
(0.633005 0.767989 0)
(0.23343 0.884596 -3.47733e-20)
(-0.179186 0.697172 0)
(-0.434606 0.240583 0)
(-0.759444 0.146246 3.41923e-20)
(-1.24059 0.370792 0)
(-1.90031 0.759446 -3.34398e-20)
(-2.69914 1.30892 1.64856e-20)
(-3.50116 1.71239 -1.62702e-20)
(-4.03889 1.73878 1.60686e-20)
(-4.37368 1.55857 1.58408e-20)
(-4.74369 1.41677 0)
(-5.12025 1.33719 0)
(-5.41013 1.15209 -1.49157e-20)
(-5.63779 0.858574 1.41915e-20)
(-5.86104 0.623148 0)
(-6.06904 0.460823 0)
(-6.23123 0.303456 -1.36758e-20)
(-6.35718 0.153914 0)
(-6.45183 0.0241157 0)
(-6.50783 -0.0945418 1.30444e-20)
(-6.51351 -0.206898 0)
(-6.47485 -0.313175 -1.24657e-20)
(-6.38644 -0.415063 2.54925e-20)
(-6.24896 -0.51278 0)
(-6.05835 -0.606774 0)
(-5.81368 -0.697724 5.03797e-20)
(-5.51535 -0.784686 5.06173e-20)
(-5.16359 -0.8655 5.09192e-20)
(-4.76156 -0.936154 -2.53537e-20)
(-4.31404 -0.990234 2.60552e-20)
(-3.82792 -1.01901 7.81389e-20)
(-3.31162 -1.01302 -5.22532e-20)
(-2.77218 -0.96481 -2.64306e-20)
(-2.21348 -0.869643 0)
(-1.63683 -0.726012 2.66042e-20)
(-1.05125 -0.540392 -2.65455e-20)
(-0.487403 -0.335042 0)
(0.0308001 -0.103401 0)
(0.450156 0.136421 0)
(0.736321 0.328182 2.65555e-20)
(0.843292 0.391464 0)
(0.872473 0.33292 -5.28412e-20)
(0.890129 0.208436 0)
(0.927633 0.0585339 -5.20859e-20)
(1.03904 -0.154208 0)
(1.14114 -0.358433 5.11056e-20)
(1.27751 -0.523581 0)
(1.45577 -0.651474 -5.02181e-20)
(1.66195 -0.722446 2.48604e-20)
(1.87041 -0.722862 0)
(2.03977 -0.678453 4.91855e-20)
(2.14941 -0.559837 2.45899e-20)
(2.15972 -0.393092 2.44724e-20)
(2.05465 -0.461812 0)
(1.93635 -0.729801 2.42773e-20)
(1.92519 -0.482386 2.4161e-20)
(1.80341 0.342491 0)
(1.71501 0.589916 -2.38572e-20)
(1.92187 -0.0710698 4.7528e-20)
(1.96419 -0.553887 0)
(1.7165 -0.42896 2.30849e-20)
(1.35089 -0.161919 0)
(0.972792 -0.0396819 -6.70987e-20)
(0.624284 0.0245862 0)
(0.259512 0.125473 6.43916e-20)
(-0.198507 0.295743 2.09686e-20)
(-0.858288 0.5736 -2.05948e-20)
(-1.77969 0.978929 -4.02897e-20)
(-2.92706 1.46128 3.93396e-20)
(-4.18651 1.91143 0)
(-5.44183 2.22324 0)
(-6.64769 2.29651 0)
(-7.74544 2.21692 -1.07192e-19)
(-8.7196 2.05012 -3.47465e-20)
(-9.58151 1.85303 3.26292e-20)
(-10.3432 1.65547 0)
(-11.0204 1.47186 2.60691e-20)
(-11.6257 1.30481 -2.54358e-20)
(-12.1683 1.15063 -2.30521e-20)
(-12.6528 1.00261 0)
(-13.0789 0.852899 0)
(-13.4404 0.694454 0)
(-13.7252 0.522734 -1.52749e-20)
(-13.9189 0.337153 0)
(-14.0097 0.14231 2.574e-20)
(-13.9914 -0.0534393 3.87398e-20)
(-13.8558 -0.241615 -2.61587e-20)
(-13.5783 -0.418545 0)
(-13.1851 -0.580849 -1.46985e-20)
(-12.6729 -0.725401 0)
(-12.0566 -0.852214 -3.73309e-20)
(-11.3445 -0.959613 2.03321e-20)
(-10.5504 -1.04554 2.252e-20)
(-9.69267 -1.10626 0)
(-8.79243 -1.13932 8.15746e-20)
(-7.87373 -1.14587 -5.7982e-20)
(-6.95611 -1.13107 -3.08732e-20)
(-6.05427 -1.10155 0)
(-5.17624 -1.06351 -3.34335e-20)
(-4.32778 -1.0214 -1.02748e-19)
(-3.50906 -0.981613 0)
(-2.71497 -0.950133 -7.09014e-20)
(-1.93588 -0.930947 -7.16684e-20)
(-1.15964 -0.92616 -7.21892e-20)
(-0.377072 -0.932009 0)
(0.424356 -0.945221 0)
(1.24522 -0.955292 0)
(2.08364 -0.961718 3.57513e-20)
(2.93496 -0.958433 3.57979e-20)
(3.78956 -0.943052 0)
(4.6352 -0.914765 6.91364e-20)
(5.45883 -0.873864 6.77309e-20)
(6.24742 -0.821192 0)
(6.9872 -0.757228 6.45334e-20)
(7.66485 -0.68171 1.24609e-19)
(8.26135 -0.593143 -6.03545e-20)
(8.75871 -0.488734 -5.78318e-20)
(9.14376 -0.368358 0)
(9.40032 -0.233472 0)
(9.5296 -0.0867272 0)
(9.55949 0.0573821 -4.92308e-20)
(9.49096 0.185761 4.69534e-20)
(9.32091 0.286063 9.06159e-20)
(9.05475 0.355269 -4.38223e-20)
(8.70814 0.396791 4.19816e-20)
(8.30565 0.41756 4.09059e-20)
(7.874 0.424406 0)
(7.43157 0.421425 0)
(6.98744 0.41006 -3.70733e-20)
(6.55351 0.393764 0)
(6.15087 0.380912 0)
(5.7966 0.374935 6.96994e-20)
(5.48913 0.365114 0)
(5.21106 0.337483 3.37791e-20)
(4.94372 0.290135 -3.35366e-20)
(4.67706 0.232467 0)
(4.40805 0.17938 3.29961e-20)
(4.13798 0.14349 0)
(3.86808 0.128037 0)
(3.59307 0.128323 -3.22796e-20)
(3.31279 0.136536 6.39285e-20)
(3.04827 0.140788 -3.16009e-20)
(2.82103 0.126746 0)
(2.63147 0.0895508 0)
(2.49307 0.0460927 3.05275e-20)
(2.44428 0.0247129 0)
(2.50127 0.0332191 3.00846e-20)
(2.63609 0.0445763 0)
(2.8087 0.033628 0)
(2.98926 -0.00351658 0)
(3.15067 -0.047627 2.92726e-20)
(3.29086 -0.0790475 0)
(3.41451 -0.0909722 -2.87907e-20)
(3.52725 -0.0815283 0)
(3.63388 -0.055276 0)
(3.73517 -0.0173378 5.54853e-20)
(3.82096 0.0166688 -5.46407e-20)
(3.88595 0.0437912 0)
(3.90317 0.0503499 0)
(3.91872 0.0641441 0)
(3.83781 0.0535358 1.53295e-19)
(3.84294 0.089242 0)
(3.56392 0.0602166 -9.87546e-20)
(0.20045 -0.748791 2.56156e-22)
(0.73978 -1.90729 -7.72459e-20)
(1.18723 -2.09108 0)
(1.53726 -1.85974 7.54269e-20)
(1.8172 -1.46318 0)
(2.04679 -1.00874 0)
(2.2143 -0.582595 -5.24554e-22)
(2.33442 -0.196943 -3.63885e-20)
(2.42131 0.165987 -3.55602e-20)
(2.44104 0.452339 -3.57688e-20)
(2.40318 0.658496 0)
(2.32669 0.809167 0)
(2.13622 0.804471 3.48529e-20)
(1.81199 0.692934 6.96014e-20)
(1.40418 0.749958 -6.94889e-20)
(0.94694 1.11299 0)
(0.478367 1.60894 -6.91837e-20)
(0.059369 1.69678 3.47453e-20)
(-0.181995 1.19095 0)
(-0.580068 0.968827 -6.8429e-20)
(-1.2476 1.29186 -3.40989e-20)
(-2.0419 1.77252 6.70472e-20)
(-2.90007 2.2692 3.32923e-20)
(-3.645 2.59499 0)
(-4.18684 2.57547 -6.37262e-20)
(-4.54297 2.34072 -6.25401e-20)
(-4.86676 2.15014 0)
(-5.2427 2.03253 -6.00792e-20)
(-5.58574 1.84328 0)
(-5.87952 1.56638 -5.75122e-20)
(-6.2032 1.30669 -2.87181e-20)
(-6.55296 1.09165 0)
(-6.87259 0.878416 0)
(-7.15125 0.666152 0)
(-7.38934 0.464202 0)
(-7.57668 0.261175 0)
(-7.7097 0.0571886 0)
(-7.78666 -0.141823 -4.94958e-20)
(-7.8062 -0.337314 7.42874e-20)
(-7.76796 -0.529208 0)
(-7.67285 -0.716606 0)
(-7.52174 -0.89929 0)
(-7.31651 -1.0763 -1.18376e-21)
(-7.05958 -1.24592 -5.04096e-20)
(-6.75424 -1.40386 -1.00317e-19)
(-6.40394 -1.54423 1.01036e-19)
(-6.01252 -1.65951 5.04207e-20)
(-5.58343 -1.74093 -5.16938e-20)
(-5.11908 -1.78038 7.56624e-22)
(-4.61901 -1.77303 -5.16248e-20)
(-4.07952 -1.71993 0)
(-3.49837 -1.62796 -5.23219e-20)
(-2.88163 -1.50652 3.3127e-22)
(-2.23969 -1.35832 0)
(-1.56555 -1.17017 0)
(-0.856838 -0.92676 5.3187e-20)
(-0.145569 -0.658313 0)
(0.559384 -0.382661 0)
(1.20671 -0.170446 -5.30205e-20)
(1.79466 -0.0402753 -1.05174e-19)
(2.30024 -0.0140931 5.19305e-20)
(2.73913 -0.0903944 0)
(3.10056 -0.217405 -5.08907e-20)
(3.38097 -0.361232 0)
(3.61307 -0.513101 -5.02508e-20)
(3.78324 -0.64828 -4.961e-20)
(3.8865 -0.68749 9.80882e-20)
(3.8997 -0.57757 4.82089e-20)
(3.73489 -0.376278 0)
(3.43169 -0.104073 -9.64183e-20)
(3.06249 0.0139763 0)
(2.42031 -0.0154917 -1.45377e-19)
(1.67411 0.188669 -9.6911e-20)
(1.36015 0.312025 -9.66553e-20)
(1.3232 -0.0110835 9.62422e-20)
(0.89046 -0.00473818 -1.43216e-19)
(0.0786034 0.310212 0)
(-0.597885 0.401547 0)
(-1.07279 0.383899 9.15985e-20)
(-1.4915 0.393501 1.34641e-19)
(-1.93924 0.514519 0)
(-2.48194 0.775896 -4.27779e-20)
(-3.14515 1.16487 0)
(-3.92114 1.63721 1.23095e-19)
(-4.77356 2.14013 -1.80769e-22)
(-5.63632 2.60755 -2.22113e-22)
(-6.4304 2.96421 -7.61323e-20)
(-7.10568 3.14472 0)
(-7.66943 3.11993 7.11365e-20)
(-8.15737 2.95217 2.54745e-21)
(-8.606 2.7084 0)
(-9.04025 2.44377 0)
(-9.47315 2.1898 0)
(-9.91159 1.96029 -5.3984e-20)
(-10.3574 1.75558 0)
(-10.8086 1.56844 0)
(-11.2585 1.38725 0)
(-11.6944 1.19838 0)
(-12.0956 0.989169 0)
(-12.4346 0.751037 -2.78353e-20)
(-12.6802 0.482173 0)
(-12.806 0.190106 -2.57819e-20)
(-12.7986 -0.111961 -2.54816e-20)
(-12.6559 -0.413506 2.61942e-20)
(-12.3819 -0.702204 0)
(-11.9856 -0.968045 3.03931e-20)
(-11.4755 -1.20706 0)
(-10.8608 -1.41625 3.73568e-20)
(-10.1487 -1.59525 -4.14699e-20)
(-9.34981 -1.73976 -1.3501e-19)
(-8.47969 -1.84287 0)
(-7.56187 -1.8981 -1.60781e-19)
(-6.62314 -1.90614 -5.6343e-20)
(-5.68746 -1.87652 0)
(-4.77136 -1.8208 -1.2703e-19)
(-3.88483 -1.75127 -1.31848e-19)
(-3.03708 -1.676 2.04112e-19)
(-2.23094 -1.60568 0)
(-1.46028 -1.54955 7.09432e-20)
(-0.71448 -1.51666 7.1709e-20)
(0.0243825 -1.51142 2.154e-19)
(0.770869 -1.52533 0)
(1.53261 -1.54725 0)
(2.31485 -1.57048 0)
(3.11669 -1.58424 7.04845e-20)
(3.93378 -1.58144 0)
(4.75797 -1.55813 0)
(5.57899 -1.51264 -6.89929e-20)
(6.38607 -1.44499 -6.75948e-20)
(7.16864 -1.35567 0)
(7.91596 -1.24422 0)
(8.61417 -1.10686 -1.24384e-19)
(9.2418 -0.93814 0)
(9.7634 -0.741044 1.15751e-19)
(10.1311 -0.526942 1.10694e-19)
(10.3089 -0.309844 0)
(10.3063 -0.100253 0)
(10.1726 0.106231 -9.75704e-20)
(9.94881 0.29082 -5.28183e-22)
(9.65538 0.441561 -5.27275e-22)
(9.3071 0.556421 0)
(8.91665 0.635286 -1.67938e-19)
(8.49714 0.677372 0)
(8.06493 0.687323 0)
(7.64492 0.679601 0)
(7.26324 0.669757 7.44048e-20)
(6.92266 0.660295 0)
(6.59453 0.638895 -1.41027e-19)
(6.25494 0.59418 -6.96445e-20)
(5.91859 0.531025 0)
(5.6159 0.464222 -6.7653e-20)
(5.35553 0.403365 0)
(5.12135 0.35281 0)
(4.88705 0.317614 -1.97781e-19)
(4.63039 0.301964 1.31038e-19)
(4.3423 0.304178 0)
(4.0248 0.313797 1.29054e-19)
(3.68848 0.313888 -6.38876e-20)
(3.35861 0.293259 0)
(3.07393 0.253684 0)
(2.86862 0.201823 0)
(2.75533 0.14138 -1.83085e-19)
(2.7327 0.0770087 0)
(2.79995 0.0144659 -6.01774e-20)
(2.95128 -0.0512659 0)
(3.1545 -0.116981 0)
(3.36363 -0.169784 0)
(3.54582 -0.19347 0)
(3.69774 -0.189176 0)
(3.82931 -0.167495 0)
(3.94327 -0.13954 -1.13919e-19)
(4.02861 -0.115758 0)
(4.09616 -0.0898177 -5.54651e-20)
(4.15958 -0.0610213 1.6384e-19)
(4.26119 -0.0227189 0)
(4.37033 0.000813706 0)
(4.51983 0.0354181 -1.03867e-19)
(4.59605 0.0408597 -1.02129e-19)
(4.7118 0.095528 1.0035e-19)
(4.66737 0.110265 9.86684e-20)
(0.352008 -2.21315 1.15735e-19)
(0.824483 -3.05625 1.14253e-19)
(1.12923 -2.79247 7.48577e-20)
(1.33457 -2.30437 3.64353e-20)
(1.4975 -1.77868 0)
(1.65533 -1.23463 -7.21954e-20)
(1.76833 -0.729675 3.51979e-20)
(1.85946 -0.229114 0)
(1.91826 0.238471 3.56059e-20)
(1.88242 0.540674 0)
(1.78856 0.712498 -6.93321e-20)
(1.685 0.921147 0)
(1.4891 1.18382 -3.4897e-20)
(1.14486 1.46776 -6.96695e-20)
(0.705428 1.82142 6.95427e-20)
(0.280817 2.18888 0)
(-0.0169238 2.32102 6.91919e-20)
(-0.182797 2.02115 0)
(-0.503021 1.82759 0)
(-1.17651 2.16166 6.82084e-20)
(-1.97421 2.71906 0)
(-2.79383 3.23772 -1.09674e-21)
(-3.5321 3.55308 0)
(-4.07217 3.52666 0)
(-4.46833 3.24716 1.29995e-21)
(-4.86017 2.9877 6.24243e-20)
(-5.31122 2.84338 5.97465e-20)
(-5.74667 2.67432 5.99484e-20)
(-6.13027 2.42251 0)
(-6.50846 2.16487 1.13018e-19)
(-6.89003 1.91952 0)
(-7.23661 1.65407 5.29805e-20)
(-7.53915 1.37454 0)
(-7.80139 1.09286 0)
(-8.01527 0.803875 -4.96342e-20)
(-8.17926 0.510305 0)
(-8.29487 0.219037 4.81007e-20)
(-8.36105 -0.068339 1.85934e-21)
(-8.37826 -0.349012 -9.62272e-20)
(-8.34744 -0.62244 9.39834e-20)
(-8.27072 -0.887943 0)
(-8.14964 -1.14468 0)
(-7.98642 -1.39037 4.56225e-20)
(-7.78386 -1.62228 0)
(-7.54492 -1.83653 4.94991e-20)
(-7.27204 -2.0279 -4.98777e-20)
(-6.96667 -2.19002 -5.02776e-20)
(-6.62904 -2.3161 0)
(-6.25862 -2.3999 5.10685e-20)
(-5.85417 -2.43768 5.14382e-20)
(-5.41351 -2.43044 -1.02012e-19)
(-4.93403 -2.38407 5.21052e-20)
(-4.41378 -2.305 5.23855e-20)
(-3.85087 -2.19354 0)
(-3.24601 -2.04464 0)
(-2.60958 -1.86197 -5.29249e-20)
(-1.94983 -1.65952 0)
(-1.25646 -1.45329 0)
(-0.582455 -1.28781 1.05844e-19)
(0.0632961 -1.18344 1.05383e-19)
(0.665818 -1.13082 0)
(1.19854 -1.11746 0)
(1.65552 -1.12672 0)
(2.02888 -1.1567 0)
(2.33102 -1.17406 1.00442e-19)
(2.54997 -1.12222 -9.90951e-20)
(2.70656 -0.93757 -9.82835e-20)
(2.80362 -0.577904 -1.93912e-19)
(2.8077 -0.0904539 0)
(2.70052 0.365658 1.01239e-21)
(2.37983 0.631223 0)
(1.7551 0.71256 9.69635e-20)
(1.10487 0.743251 1.57203e-22)
(0.516726 0.841494 9.67502e-20)
(-0.317271 1.07281 -9.62918e-20)
(-1.10711 1.16346 3.15059e-23)
(-1.65028 1.03088 0)
(-2.05103 0.888128 -9.30602e-20)
(-2.42831 0.832601 -9.13235e-20)
(-2.84222 0.904755 -1.7974e-19)
(-3.31804 1.11633 0)
(-3.86155 1.45921 8.6593e-20)
(-4.45843 1.90198 0)
(-5.073 2.38994 -1.64484e-19)
(-5.65489 2.85552 8.00412e-20)
(-6.15512 3.23361 -7.80917e-20)
(-6.54763 3.47311 7.6054e-20)
(-6.84404 3.54758 1.44964e-19)
(-7.08839 3.46978 -7.11543e-20)
(-7.32875 3.29058 6.80499e-20)
(-7.59389 3.06006 0)
(-7.89623 2.81683 -1.1727e-19)
(-8.23898 2.5845 0)
(-8.62244 2.37395 -1.00853e-19)
(-9.04492 2.18437 9.22226e-20)
(-9.50085 2.00572 8.34368e-20)
(-9.97821 1.82086 -7.46756e-20)
(-10.4563 1.60885 -6.62182e-20)
(-10.9046 1.35027 0)
(-11.2844 1.03379 -2.39837e-20)
(-11.5552 0.661848 0)
(-11.6888 0.250519 0)
(-11.6804 -0.17825 -4.34672e-20)
(-11.5359 -0.604853 0)
(-11.2614 -1.01115 0)
(-10.8712 -1.38444 -5.41073e-20)
(-10.3767 -1.71778 0)