/*--------------------------------*- C++ -*----------------------------------*\
  =========                 |
  \\      /  F ield         | OpenFOAM: The Open Source CFD Toolbox
   \\    /   O peration     | Website:  https://openfoam.org
    \\  /    A nd           | Version:  9
     \\/     M anipulation  |
\*---------------------------------------------------------------------------*/
FoamFile
{
    format      ascii;
    class       volVectorField;
    location    "0.057";
    object      U_0;
}
// * * * * * * * * * * * * * * * * * * * * * * * * * * * * * * * * * * * * * //

dimensions      [0 1 -1 0 0 0 0];

internalField   nonuniform List<vector> 
12225
(
(10.1024 -0.0151173 0)
(9.71082 0.0281271 0)
(9.43342 0.028361 0)
(9.1458 0.035094 0)
(8.78121 0.0458425 0)
(8.39954 0.0490502 0)
(8.06923 0.0462467 0)
(7.80723 0.0483177 0)
(7.55552 0.0611605 0)
(7.27144 0.0787249 0)
(6.91581 0.0891943 0)
(6.55242 0.0843358 0)
(6.16389 0.0728933 0)
(5.86825 0.063063 0)
(5.45756 0.0751112 0)
(5.23507 0.0993024 0)
(4.53546 0.158113 0)
(4.27793 0.223897 0)
(10.1032 0.182378 0)
(10.2956 0.127046 0)
(10.3307 0.0870128 0)
(10.3202 0.103066 0)
(10.307 0.128869 0)
(10.2657 0.130304 0)
(10.1781 0.110276 0)
(10.0679 0.0897451 0)
(9.95996 0.0849558 0)
(9.88074 0.10036 0)
(9.80932 0.123809 0)
(9.7534 0.14689 0)
(9.64959 0.154268 0)
(9.55729 0.168283 0)
(9.34471 0.176699 0)
(9.20483 0.217339 0)
(8.85857 0.295588 0)
(8.64689 0.375449 0)
(9.96669 -0.0728126 0)
(10.0103 -0.00261328 0)
(9.99637 0.0442179 0)
(10.0479 0.0565849 0)
(10.1381 0.0622659 0)
(10.2088 0.0757928 0)
(10.2284 0.0935113 0)
(10.2017 0.108717 0)
(10.147 0.119359 0)
(10.0902 0.129446 0)
(10.0445 0.137801 0)
(10.0179 0.1459 0)
(9.99063 0.150756 0)
(9.96646 0.17019 0)
(9.92239 0.203416 0)
(9.88282 0.268905 0)
(9.82774 0.372207 0)
(9.79592 0.50238 0)
(9.97624 0.123895 0)
(9.86263 0.106856 0)
(9.88446 0.0599194 0)
(9.96892 0.0499492 0)
(10.0189 0.0797552 0)
(10.0232 0.107584 0)
(10.0104 0.116424 0)
(10.0028 0.115413 0)
(9.99958 0.11821 0)
(9.99076 0.130807 0)
(9.97167 0.146878 0)
(9.94811 0.162506 0)
(9.92531 0.174063 0)
(9.90934 0.194131 0)
(9.90171 0.226619 0)
(9.90101 0.283339 0)
(9.91161 0.372721 0)
(9.94502 0.483814 0)
(9.91393 -0.041086 0)
(10.0032 0.0144602 0)
(10.0024 0.0431863 0)
(9.97175 0.0407483 0)
(9.9792 0.0500961 0)
(10.0194 0.0744827 0)
(10.0557 0.0980647 0)
(10.0711 0.114879 0)
(10.0644 0.129442 0)
(10.0387 0.145417 0)
(10.0006 0.158831 0)
(9.96212 0.166958 0)
(9.93215 0.170657 0)
(9.91693 0.182826 0)
(9.9142 0.21337 0)
(9.92215 0.270586 0)
(9.93405 0.356546 0)
(9.95936 0.454994 0)
(10.0919 -0.0280079 0)
(9.9422 0.0784257 0)
(10.0188 0.0583079 0)
(10.1517 0.0462703 0)
(10.2422 0.0626995 0)
(10.2846 0.0859912 0)
(10.2761 0.100588 0)
(10.2144 0.108632 0)
(10.1186 0.121616 0)
(10.0234 0.144624 0)
(9.95493 0.169494 0)
(9.91962 0.187149 0)
(9.90676 0.195201 0)
(9.90335 0.204615 0)
(9.90052 0.22925 0)
(9.89844 0.278414 0)
(9.89628 0.354152 0)
(9.9034 0.444405 0)
(9.82263 0.016341 0)
(9.90941 0.014038 0)
(9.95634 -0.0081028 0)
(9.90863 -0.023642 0)
(9.87282 -0.000848447 0)
(9.89275 0.0542696 0)
(9.93008 0.122195 0)
(9.95028 0.181378 0)
(9.9561 0.216832 0)
(9.96614 0.226151 0)
(9.98797 0.215434 0)
(10.0105 0.196407 0)
(10.0166 0.182369 0)
(9.9939 0.186008 0)
(9.9487 0.215426 0)
(9.89891 0.270536 0)
(9.85928 0.347095 0)
(9.84948 0.434754 0)
(10.3226 -0.0167993 0)
(10.1504 0.0334097 0)
(10.0702 0.0672603 0)
(10.0167 0.0817287 0)
(9.92067 0.0810214 0)
(9.81106 0.0765491 0)
(9.7403 0.0786881 0)
(9.73823 0.0864791 0)
(9.80045 0.0966743 0)
(9.89473 0.111126 0)
(9.97803 0.133693 0)
(10.0107 0.16512 0)
(9.97784 0.203102 0)
(9.89084 0.244536 0)
(9.78198 0.287409 0)
(9.688 0.334375 0)
(9.62817 0.385281 0)
(9.62125 0.445824 0)
(10.0297 0.0446089 0)
(10.0771 0.0779203 0)
(10.0316 0.047366 0)
(10.0531 0.026474 0)
(10.1331 0.0616504 0)
(10.1684 0.116408 0)
(10.1141 0.155492 0)
(10.015 0.167661 0)
(9.93685 0.163156 0)
(9.90937 0.161221 0)
(9.92547 0.176043 0)
(9.96136 0.209558 0)
(9.99248 0.253493 0)
(10.0034 0.297331 0)
(9.98734 0.33263 0)
(9.94905 0.3612 0)
(9.90076 0.38585 0)
(9.85291 0.415122 0)
(9.98777 -0.0593988 0)
(10.0093 0.027932 0)
(9.98729 0.0752861 0)
(9.93413 0.0464306 0)
(9.91141 0.0449932 0)
(9.92526 0.0924598 0)
(9.94256 0.143091 0)
(9.94221 0.156462 0)
(9.92981 0.132433 0)
(9.91911 0.0999172 0)
(9.92033 0.0888947 0)
(9.93822 0.112631 0)
(9.96892 0.166969 0)
(10.0019 0.238611 0)
(10.0265 0.313832 0)
(10.0358 0.383583 0)
(10.0321 0.444694 0)
(10.0184 0.494048 0)
(10.1436 0.0270668 0)
(9.97563 0.0964549 0)
(10.0212 0.090634 0)
(10.0546 0.05843 0)
(10.0324 0.0568335 0)
(10.0009 0.0984062 0)
(9.9964 0.150848 0)
(10.0226 0.181643 0)
(10.0615 0.187317 0)
(10.0817 0.183642 0)
(10.0609 0.185917 0)
(10.0026 0.201201 0)
(9.92971 0.229921 0)
(9.86631 0.268883 0)
(9.82548 0.31144 0)
(9.81177 0.353984 0)
(9.82076 0.391408 0)
(9.85237 0.426955 0)
(9.92982 0.112983 0)
(10.0038 0.0875789 0)
(10.1396 0.0301112 0)
(10.1794 0.0434368 0)
(10.1106 0.0798344 0)
(10.025 0.117411 0)
(9.98443 0.133255 0)
(9.99327 0.118676 0)
(10.0317 0.0949793 0)
(10.0735 0.0924353 0)
(10.0947 0.123699 0)
(10.084 0.180458 0)
(10.0449 0.245804 0)
(9.99263 0.306277 0)
(9.94443 0.354913 0)
(9.91246 0.392774 0)
(9.90222 0.421834 0)
(9.90944 0.448506 0)
(10.0163 0.063302 0)
(10.228 0.0516637 0)
(10.2221 0.0231831 0)
(10.2062 0.0584608 0)
(10.2178 0.110062 0)
(10.237 0.14863 0)
(10.2415 0.163478 0)
(10.2206 0.158694 0)
(10.176 0.152523 0)
(10.115 0.163506 0)
(10.0466 0.197635 0)
(9.98461 0.247044 0)
(9.94111 0.297253 0)
(9.92283 0.336829 0)
(9.92857 0.360905 0)
(9.95258 0.373555 0)
(9.98914 0.379796 0)
(10.027 0.389765 0)
(9.94636 -0.0411309 0)
(10.065 0.0236919 0)
(9.98666 0.0545086 0)
(9.91434 0.0548562 0)
(9.90648 0.0750415 0)
(9.93188 0.117361 0)
(9.95689 0.147777 0)
(9.98468 0.153518 0)
(10.0329 0.15164 0)
(10.1015 0.163351 0)
(10.1747 0.194517 0)
(10.2376 0.236482 0)
(10.2806 0.276564 0)
(10.3001 0.307262 0)
(10.2948 0.329418 0)
(10.2709 0.347681 0)
(10.2338 0.369135 0)
(10.1925 0.395458 0)
(9.92721 0.000347494 0)
(9.91465 0.00166146 0)
(9.94663 0.0725805 0)
(9.96882 0.0875277 0)
(9.97985 0.0897808 0)
(10.0103 0.107146 0)
(10.0595 0.111342 0)
(10.1133 0.0857361 0)
(10.1616 0.0506367 0)
(10.1989 0.0407096 0)
(10.2254 0.0758422 0)
(10.243 0.150814 0)
(10.2522 0.243222 0)
(10.2503 0.330525 0)
(10.238 0.397293 0)
(10.2183 0.441247 0)
(10.1976 0.465545 0)
(10.1813 0.478715 0)
(10.2813 0.0228505 0)
(10.1834 0.0584024 0)
(10.1603 0.0358119 0)
(10.1346 0.0440923 0)
(10.1157 0.0693187 0)
(10.113 0.0758764 0)
(10.1147 0.0714098 0)
(10.1072 0.0763756 0)
(10.0814 0.0982875 0)
(10.0387 0.133695 0)
(9.99375 0.177388 0)
(9.96695 0.226126 0)
(9.96819 0.275544 0)
(9.9956 0.320569 0)
(10.0375 0.35653 0)
(10.0839 0.383167 0)
(10.1251 0.402093 0)
(10.1578 0.41868 0)
(9.92673 0.00704577 0)
(9.99528 0.130575 0)
(10.003 0.124117 0)
(10.0328 0.0989559 0)
(10.0582 0.088425 0)
(10.0889 0.0940814 0)
(10.12 0.105725 0)
(10.137 0.113668 0)
(10.1372 0.118877 0)
(10.1248 0.128173 0)
(10.1065 0.14484 0)
(10.0912 0.168202 0)
(10.0842 0.19633 0)
(10.086 0.229244 0)
(10.0919 0.266885 0)
(10.1007 0.308726 0)
(10.1084 0.352811 0)
(10.1181 0.395286 0)
(9.99409 0.0915464 0)
(10.1165 -0.0422955 0)
(10.1498 -0.0259003 0)
(10.1743 0.0209272 0)
(10.159 0.0266658 0)
(10.1242 0.00836423 0)
(10.0995 0.0111817 0)
(10.0885 0.0557752 0)
(10.0815 0.125181 0)
(10.072 0.191966 0)
(10.0617 0.242425 0)
(10.0561 0.278751 0)
(10.0574 0.306921 0)
(10.0633 0.331913 0)
(10.0709 0.353628 0)
(10.0789 0.371922 0)
(10.0876 0.384689 0)
(10.0968 0.392103 0)
(10.018 0.0199703 0)
(10.0797 -0.00457565 0)
(10.0623 0.00798041 0)
(10.0369 0.0962911 0)
(10.0223 0.161643 0)
(10.0036 0.177574 0)
(9.97393 0.165039 0)
(9.94695 0.150682 0)
(9.92858 0.14482 0)
(9.91833 0.143658 0)
(9.91943 0.142305 0)
(9.93629 0.142238 0)
(9.96934 0.148832 0)
(10.015 0.16728 0)
(10.0707 0.199611 0)
(10.1315 0.241372 0)
(10.1954 0.287204 0)
(10.2552 0.328326 0)
(10.1614 -0.0217512 0)
(10.1618 -0.0915545 0)
(10.1497 0.0233333 0)
(10.1811 0.097085 0)
(10.2325 0.100685 0)
(10.2721 0.0888654 0)
(10.2829 0.103732 0)
(10.278 0.143671 0)
(10.2672 0.185326 0)
(10.2485 0.208414 0)
(10.2199 0.20578 0)
(10.1847 0.181969 0)
(10.1514 0.148406 0)
(10.1291 0.11606 0)
(10.1251 0.0937506 0)
(10.1417 0.0865204 0)
(10.177 0.0935667 0)
(10.2266 0.116934 0)
(10.216 -0.0582579 0)
(10.0949 -0.0663447 0)
(10.0228 -0.00409772 0)
(9.99149 0.0202999 0)
(10.0245 0.0578871 0)
(10.0655 0.107665 0)
(10.072 0.14728 0)
(10.0662 0.174678 0)
(10.0798 0.198942 0)
(10.1183 0.224046 0)
(10.171 0.243865 0)
(10.2255 0.248119 0)
(10.2729 0.230604 0)
(10.3089 0.193115 0)
(10.3336 0.145712 0)
(10.3508 0.101847 0)
(10.364 0.0708183 0)
(10.3767 0.0612959 0)
(9.77245 0.0865895 0)
(9.84419 0.103381 0)
(9.87657 0.108061 0)
(9.86501 0.0554125 0)
(9.88834 0.0216345 0)
(9.94197 0.0456993 0)
(9.99524 0.0952783 0)
(10.0429 0.126163 0)
(10.0895 0.122914 0)
(10.1389 0.0991118 0)
(10.1919 0.0746254 0)
(10.2445 0.0588933 0)
(10.2898 0.0509481 0)
(10.3216 0.0466506 0)
(10.337 0.0450499 0)
(10.3397 0.0481478 0)
(10.335 0.0571764 0)
(10.3331 0.0750169 0)
(9.95849 -0.139463 0)
(9.89514 -0.0389514 0)
(9.91395 0.0197948 0)
(9.95477 0.00831708 0)
(10.0103 -0.00908215 0)
(10.0643 0.00616605 0)
(10.1238 0.0460603 0)
(10.1886 0.0813787 0)
(10.2389 0.0969778 0)
(10.2578 0.0988856 0)
(10.2481 0.0984961 0)
(10.2282 0.100884 0)
(10.2179 0.104508 0)
(10.2281 0.105828 0)
(10.2575 0.100762 0)
(10.2979 0.0892408 0)
(10.3408 0.0704169 0)
(10.378 0.0482757 0)
(9.97352 0.0512112 0)
(9.94881 0.0957329 0)
(10.0181 0.0225334 0)
(10.0447 -0.0330027 0)
(10.0305 -0.0509577 0)
(10.0245 -0.0437613 0)
(10.0507 -0.0227451 0)
(10.1058 0.00956332 0)
(10.1745 0.0506643 0)
(10.2408 0.0892065 0)
(10.2947 0.10922 0)
(10.3358 0.100037 0)
(10.3679 0.0648258 0)
(10.3958 0.0177804 0)
(10.4224 -0.021838 0)
(10.4475 -0.0418353 0)
(10.4691 -0.0368978 0)
(10.4824 -0.011016 0)
(10.1847 0.120899 0)
(10.14 0.00967477 0)
(10.0898 -0.0253303 0)
(10.054 -0.00950051 0)
(10.0479 -0.00809386 0)
(10.031 -0.0166261 0)
(10.0063 -0.0207413 0)
(10.0105 -0.0180578 0)
(10.0644 -0.00988878 0)
(10.1594 0.00251513 0)
(10.2668 0.0174747 0)
(10.3494 0.0310362 0)
(10.3813 0.0384709 0)
(10.3576 0.0370347 0)
(10.2953 0.0290618 0)
(10.2222 0.0201024 0)
(10.16 0.0156365 0)
(10.1284 0.0213704 0)
(9.83703 0.0380258 0)
(10.0014 0.129982 0)
(10.0135 0.0494371 0)
(10.0116 -0.017288 0)
(10.0517 -0.0248655 0)
(10.1121 -0.0121048 0)
(10.17 -0.0145311 0)
(10.2125 -0.0381469 0)
(10.2332 -0.0653879 0)
(10.2395 -0.0713242 0)
(10.2475 -0.0446361 0)
(10.269 0.00643524 0)
(10.3058 0.0606233 0)
(10.3537 0.0984522 0)
(10.407 0.108961 0)
(10.4587 0.094588 0)
(10.5042 0.0633926 0)
(10.5375 0.0297086 0)
(9.89351 -0.0235203 0)
(9.93059 0.00620844 0)
(9.9838 -0.00543234 0)
(10.006 -0.0292731 0)
(10.017 -0.0588547 0)
(10.0254 -0.0775304 0)
(10.0322 -0.0710064 0)
(10.033 -0.048465 0)
(10.0228 -0.0264014 0)
(10.0044 -0.0131869 0)
(9.98736 -0.00963306 0)
(9.98172 -0.0139615 0)
(9.99364 -0.023519 0)
(10.0221 -0.036125 0)
(10.0606 -0.0471945 0)
(10.1033 -0.0519703 0)
(10.1454 -0.0467386 0)
(10.1872 -0.0290575 0)
(9.85063 0.0374183 0)
(10.0399 0.0582752 0)
(10.1678 0.00559354 0)
(10.2132 -0.0264211 0)
(10.1794 -0.0365715 0)
(10.1162 -0.0354754 0)
(10.0765 -0.0343132 0)
(10.0821 -0.0410142 0)
(10.1245 -0.0483714 0)
(10.1849 -0.0446958 0)
(10.247 -0.0259934 0)
(10.2994 0.0015916 0)
(10.3362 0.0274566 0)
(10.356 0.041101 0)
(10.36 0.0373568 0)
(10.3538 0.0187009 0)
(10.3436 -0.00974166 0)
(10.3379 -0.0384723 0)
(10.0054 -0.0793582 0)
(10.0832 -0.0750086 0)
(10.0891 -0.0592698 0)
(10.119 -0.0355327 0)
(10.1404 -0.0214285 0)
(10.1609 -0.0281995 0)
(10.1855 -0.0458814 0)
(10.2041 -0.0641352 0)
(10.2083 -0.0762307 0)
(10.2035 -0.0785094 0)
(10.203 -0.0717168 0)
(10.2181 -0.0601558 0)
(10.251 -0.0485683 0)
(10.2958 -0.04026 0)
(10.3416 -0.0358986 0)
(10.3789 -0.0340156 0)
(10.4011 -0.0331906 0)
(10.4084 -0.0320541 0)
(9.76081 -0.0676797 0)
(9.62676 0.00756831 0)
(9.53485 -0.00282151 0)
(9.43014 -0.0364777 0)
(9.30703 -0.0512391 0)
(9.17764 -0.0526577 0)
(9.04079 -0.0508418 0)
(8.88629 -0.050212 0)
(8.71575 -0.0493906 0)
(8.54655 -0.0450368 0)
(8.39871 -0.0365145 0)
(8.28311 -0.0264248 0)
(8.19806 -0.0179983 0)
(8.13535 -0.0136606 0)
(8.08235 -0.0144306 0)
(8.03136 -0.0197917 0)
(7.97381 -0.028809 0)
(7.91032 -0.038487 0)
(-0.0328369 0.0805974 3.39225e-20)
(0.0908638 -0.0572026 -3.36707e-20)
(0.359816 -0.143117 0)
(0.628191 -0.151153 0)
(0.851686 -0.11039 0)
(1.00042 -0.0661951 3.24861e-20)
(1.06656 -0.043295 0)
(1.05689 -0.0543978 0)
(0.985598 -0.0895055 0)
(0.880288 -0.125977 0)
(0.780251 -0.148466 -3.11887e-20)
(0.709064 -0.155287 0)
(0.686878 -0.124747 0)
(0.678338 -0.0262748 0)
(0.623977 0.140717 0)
(0.471592 0.436019 -3.0304e-20)
(0.121851 0.516595 0)
(-0.219692 0.14124 0)
(-0.433198 -0.0797489 0)
(-0.507421 -0.132904 0)
(-0.481845 -0.21859 0)
(-0.476927 -0.283933 0)
(-0.538952 -0.260571 0)
(-0.732983 -0.116112 -2.85011e-20)
(-1.12898 0.203035 2.81854e-20)
(-1.74958 0.70643 -2.78605e-20)
(-2.55633 0.994474 -2.74964e-20)
(-3.33146 0.783222 0)
(-3.92678 0.571769 0)
(-4.47979 0.572613 2.61884e-20)
(-4.97891 0.45545 2.57398e-20)
(-5.31332 0.266434 0)
(-5.54033 0.18281 0)
(-5.71224 0.133521 2.45202e-20)
(-5.81553 0.0656739 0)
(-5.84791 0.00428128 0)
(-5.81846 -0.0441722 -2.36112e-20)
(-5.7418 -0.084643 0)
(-5.61297 -0.118577 -2.32034e-20)
(-5.4403 -0.149201 -4.61167e-20)
(-5.22324 -0.17536 0)
(-4.9654 -0.195468 0)
(-4.66937 -0.211554 0)
(-4.33633 -0.223273 0)
(-3.96917 -0.23005 0)
(-3.57188 -0.23181 -4.55545e-20)
(-3.15118 -0.227176 -4.55452e-20)
(-2.7171 -0.213171 -4.5525e-20)
(-2.28196 -0.184926 0)
(-1.86227 -0.136062 4.54258e-20)
(-1.48253 -0.0595733 0)
(-1.17394 0.0398808 -4.52426e-20)
(-0.957222 0.122124 -4.51162e-20)
(-0.843401 0.126657 0)
(-0.796808 0.0666629 0)
(-0.822682 -0.0667661 0)
(-0.892193 -0.169722 -4.4227e-20)
(-0.941243 -0.143776 0)
(-1.03271 -0.0469962 0)
(-1.14019 0.080792 0)
(-1.28308 0.168243 0)
(-1.35939 0.130587 0)
(-1.2379 0.0125351 0)
(-1.07493 -0.0727935 0)
(-0.802839 -0.162261 0)
(-0.469823 -0.230036 4.12683e-20)
(-0.093202 -0.269876 0)
(0.292695 -0.286029 0)
(0.653107 -0.298282 -4.0412e-20)
(0.966404 -0.336665 -4.01087e-20)
(1.25551 -0.353896 0)
(1.61987 -0.246968 3.95321e-20)
(2.05207 -0.0814719 -3.92381e-20)
(2.0958 -0.00999899 0)
(1.66256 0.144928 3.86309e-20)
(1.44284 0.176769 0)
(1.59923 -0.0465733 0)
(1.88876 -0.281124 -3.73601e-20)
(2.17797 -0.427444 0)
(2.42618 -0.440382 3.62452e-20)
(2.61125 -0.333404 0)
(2.68964 -0.185759 -3.50139e-20)
(2.64064 -0.101145 -3.44123e-20)
(2.47302 -0.0910667 -3.38547e-20)
(2.17903 -0.0903596 -6.67246e-20)
(1.66188 0.00636424 6.5922e-20)
(0.767036 0.286465 0)
(-0.509438 0.671542 0)
(-2.08714 0.892109 0)
(-3.76258 0.940392 6.18372e-20)
(-5.34336 0.89562 5.96887e-20)
(-6.79864 0.819978 -5.71974e-20)
(-8.11913 0.737087 0)
(-9.31054 0.657166 5.17412e-20)
(-10.3828 0.583239 4.89761e-20)
(-11.3442 0.514014 4.62778e-20)
(-12.199 0.447256 0)
(-12.9464 0.38039 0)
(-13.5795 0.311053 0)
(-14.0862 0.237949 3.73407e-20)
(-14.4523 0.16167 0)
(-14.6652 0.0845359 0)
(-14.7186 0.0100077 -3.45714e-20)
(-14.6179 -0.058006 0)
(-14.3911 -0.120406 0)
(-14.028 -0.177532 -3.62038e-20)
(-13.5485 -0.227448 0)
(-12.9573 -0.27155 0)
(-12.2687 -0.308345 4.09729e-20)
(-11.4965 -0.337744 4.28761e-20)
(-10.6586 -0.358239 0)
(-9.776 -0.369416 -4.6594e-20)
(-8.86962 -0.371739 0)
(-7.95883 -0.366938 4.96717e-20)
(-7.05764 -0.357334 0)
(-6.17582 -0.344891 5.18129e-20)
(-5.31908 -0.331275 5.25315e-20)
(-4.48856 -0.318486 0)
(-3.68013 -0.308383 0)
(-2.88559 -0.302029 0)
(-2.09451 -0.299535 0)
(-1.29704 -0.30091 0)
(-0.484219 -0.307709 0)
(0.347093 -0.309878 0)
(1.19787 -0.312716 5.26735e-20)
(2.0589 -0.311953 -5.20929e-20)
(2.92196 -0.30699 0)
(3.77499 -0.297701 0)
(4.60525 -0.284181 0)
(5.40014 -0.266664 0)
(6.14758 -0.244799 -9.47354e-20)
(6.83407 -0.218378 0)
(7.44692 -0.186056 8.9624e-20)
(7.96749 -0.145811 -8.69139e-20)
(8.37628 -0.101946 0)
(8.66364 -0.0553498 0)
(8.80767 0.00254178 0)
(8.78266 0.0603468 7.63156e-20)
(8.60841 0.10607 7.39789e-20)
(8.31568 0.134181 0)
(7.94219 0.147158 6.977e-20)
(7.52189 0.152224 6.78746e-20)
(7.07717 0.152419 -6.60973e-20)
(6.62388 0.146778 0)
(6.1745 0.139063 0)
(5.73265 0.139883 -6.14577e-20)
(5.28974 0.156343 0)
(4.83103 0.179832 0)
(4.35155 0.189847 0)
(3.87146 0.17344 0)
(3.42977 0.135598 5.62028e-20)
(3.06133 0.0900642 5.54626e-20)
(2.78091 0.0491913 0)
(2.57903 0.0228082 5.42008e-20)
(2.42908 0.0128511 0)
(2.30321 0.0118682 0)
(2.18175 0.0140681 5.23826e-20)
(2.0495 0.0216507 0)
(1.89842 0.0312054 5.09806e-20)
(1.74518 0.0310033 0)
(1.62438 0.0264213 0)
(1.54513 0.0451457 4.88851e-20)
(1.45915 0.0917705 0)
(1.31441 0.122089 4.77351e-20)
(1.13947 0.1014 0)
(1.01378 0.0456652 0)
(0.983547 -0.0102532 0)
(1.04509 -0.0462306 -4.55515e-20)
(1.1641 -0.0538375 0)
(1.30329 -0.0438254 4.43871e-20)
(1.42787 -0.0266653 0)
(1.51752 -0.0095485 0)
(1.55324 0.00526888 0)
(1.53667 0.0157379 0)
(1.48109 0.0215474 0)
(1.3987 0.0151574 0)
(1.34324 0.0114061 0)
(1.21822 -0.00474105 -7.70468e-20)
(1.26027 0.0166765 0)
(0.930274 -0.00286816 0)
(0.0249786 -0.174113 -1.01658e-19)
(0.396698 -0.752931 1.00732e-19)
(0.862646 -0.942961 0)
(1.29277 -0.858247 -6.57783e-20)
(1.65523 -0.627302 0)
(1.93216 -0.344714 -3.23775e-20)
(2.11324 -0.0641792 6.38831e-20)
(2.20146 0.222775 6.33225e-20)
(2.18993 0.467723 0)
(2.08218 0.573006 6.233e-20)
(1.89866 0.516547 3.10762e-20)
(1.65343 0.356519 0)
(1.38209 0.198362 0)
(1.16522 0.169372 0)
(0.999515 0.283792 0)
(0.856119 0.522759 3.02518e-20)
(0.636919 0.771436 0)
(0.236653 0.889484 -5.97877e-20)
(-0.174704 0.701649 0)
(-0.43048 0.245341 0)
(-0.755187 0.15022 5.85981e-20)
(-1.23563 0.372805 0)
(-1.89412 0.75613 -5.7369e-20)
(-2.69148 1.30203 2.8322e-20)
(-3.49818 1.71137 -2.79825e-20)
(-4.04588 1.74427 2.76656e-20)
(-4.38293 1.56168 2.7332e-20)
(-4.74997 1.415 0)
(-5.1277 1.33772 0)
(-5.42082 1.16076 -2.61035e-20)
(-5.64877 0.868775 2.52842e-20)
(-5.87048 0.62808 0)
(-6.07826 0.462736 0)
(-6.24045 0.304614 -2.44827e-20)
(-6.36526 0.153536 0)
(-6.45852 0.0221208 0)
(-6.51322 -0.0976004 2.35742e-20)
(-6.51731 -0.210799 0)
(-6.47702 -0.317703 -2.28139e-20)
(-6.387 -0.41994 4.60046e-20)
(-6.24805 -0.517732 0)
(-6.0562 -0.611493 0)
(-5.81043 -0.701976 9.03638e-20)
(-5.51116 -0.788352 9.0265e-20)
(-5.15853 -0.868584 9.02357e-20)
(-4.75559 -0.938793 -4.48502e-20)
(-4.30703 -0.99266 4.53882e-20)
(-3.81967 -1.02144 1.35665e-19)
(-3.30194 -1.01557 -9.02916e-20)
(-2.76106 -0.967348 -4.52942e-20)
(-2.20114 -0.87184 0)
(-1.62369 -0.72739 4.51642e-20)
(-1.03759 -0.540452 -4.49565e-20)
(-0.47354 -0.33363 0)
(0.0442038 -0.100516 0)
(0.462547 0.140592 0)
(0.746866 0.333114 4.42904e-20)
(0.851265 0.396371 0)
(0.877432 0.336969 -8.75984e-20)
(0.891187 0.211399 0)
(0.925472 0.0608215 -8.61741e-20)
(1.03426 -0.152527 0)
(1.1343 -0.357731 8.45083e-20)
(1.26965 -0.52419 0)
(1.44775 -0.653503 -8.29317e-20)
(1.65469 -0.725521 4.10477e-20)
(1.86431 -0.726717 0)
(2.03492 -0.682461 8.08959e-20)
(2.14581 -0.562448 4.02831e-20)
(2.15721 -0.396439 4.00095e-20)
(2.05252 -0.468465 0)
(1.93623 -0.731639 3.95032e-20)
(1.92625 -0.470192 3.92377e-20)
(1.8002 0.357249 0)
(1.71267 0.590868 -3.86249e-20)
(1.91898 -0.0770848 7.67684e-20)
(1.95481 -0.552157 0)
(1.70069 -0.420998 3.73932e-20)
(1.33058 -0.155264 0)
(0.949489 -0.0350311 -1.09195e-19)
(0.599059 0.028995 0)
(0.232342 0.130025 1.05646e-19)
(-0.227869 0.300447 3.45713e-20)
(-0.888534 0.578345 -3.40317e-20)
(-1.80841 0.982332 -6.68192e-20)
(-2.9512 1.46152 6.55184e-20)
(-4.20473 1.90723 0)
(-5.45507 2.21631 0)
(-6.65538 2.28854 0)
(-7.74914 2.20923 -1.8169e-19)
(-8.72054 2.04353 -5.92716e-20)
(-9.58052 1.84766 5.68619e-20)
(-10.341 1.65129 0)
(-11.0176 1.4688 4.97471e-20)
(-11.6227 1.3028 -4.88301e-20)
(-12.1655 1.14959 -4.61753e-20)
(-12.6504 1.00247 0)
(-13.077 0.853656 0)
(-13.4393 0.696082 0)
(-13.7255 0.525151 -3.73433e-20)
(-13.9207 0.340173 0)
(-14.0132 0.145635 6.88587e-20)
(-13.9966 -0.0502047 1.0266e-19)
(-13.863 -0.238723 -6.82612e-20)
(-13.5873 -0.415985 0)
(-13.1955 -0.578705 -3.52575e-20)
(-12.6847 -0.723672 0)
(-12.0694 -0.850911 -7.75174e-20)
(-11.3581 -0.958757 4.02001e-20)
(-10.5644 -1.04513 4.21686e-20)
(-9.70686 -1.10628 0)
(-8.80646 -1.13975 1.39241e-19)
(-7.88733 -1.14665 -9.60074e-20)
(-6.96906 -1.1321 -4.9678e-20)
(-6.06645 -1.10271 0)
(-5.18758 -1.06474 -5.18225e-20)
(-4.33823 -1.02269 -1.57289e-19)
(-3.51853 -0.982983 0)
(-2.72329 -0.951661 -1.06425e-19)
(-1.94287 -0.93268 -1.06774e-19)
(-1.1651 -0.928079 -1.06876e-19)
(-0.380801 -0.934063 0)
(0.422529 -0.94736 0)
(1.24537 -0.957374 0)
(2.08571 -0.963624 5.21792e-20)
(2.93877 -0.960013 5.19876e-20)
(3.79475 -0.944167 0)
(4.64125 -0.915296 1.00569e-19)
(5.4651 -0.873717 9.86958e-20)
(6.2531 -0.820281 0)
(6.99134 -0.75545 9.45737e-20)
(7.66625 -0.678964 1.83787e-19)
(8.25866 -0.589324 -8.94934e-20)
(8.75091 -0.4838 -8.65368e-20)
(9.13024 -0.362482 0)
(9.38093 -0.227014 0)
(9.50548 -0.0805566 0)
(9.53124 0.0625968 -7.62505e-20)
(9.45866 0.189341 7.35849e-20)
(9.28504 0.287802 1.43088e-19)
(9.01637 0.35538 -6.96685e-20)
(8.66875 0.395696 6.74456e-20)
(8.26693 0.415667 6.59893e-20)
(7.83736 0.421969 0)
(7.39791 0.418551 0)
(6.95736 0.406852 -6.1046e-20)
(6.52769 0.390516 0)
(6.12983 0.377973 0)
(5.78016 0.372361 1.15475e-19)
(5.47645 0.362689 0)
(5.20105 0.335134 5.59512e-20)
(4.9354 0.288046 -5.53491e-20)
(4.66976 0.230878 0)
(4.40128 0.178468 5.40955e-20)
(4.13134 0.143265 0)
(3.86124 0.128329 0)
(3.5858 0.128859 -5.23064e-20)
(3.3053 0.137002 1.03272e-19)
(3.04113 0.140864 -5.09197e-20)
(2.81468 0.126264 0)
(2.62629 0.0886352 0)
(2.48961 0.0451148 4.8801e-20)
(2.44285 0.0240573 0)
(2.50161 0.0330199 4.76636e-20)
(2.63743 0.044655 0)
(2.81025 0.0338377 0)
(2.99035 -0.00332812 0)
(3.1509 -0.0474523 4.54672e-20)
(3.29018 -0.078845 0)
(3.41303 -0.0906832 -4.43052e-20)
(3.5252 -0.0811177 0)
(3.63144 -0.0547563 0)
(3.73242 -0.0168127 8.45122e-20)
(3.81781 0.0170608 -8.30086e-20)
(3.88226 0.0439731 0)
(3.89896 0.0503891 0)
(3.91403 0.0641322 0)
(3.8327 0.0535416 2.30641e-19)
(3.83737 0.0891813 0)
(3.558 0.0600792 -1.47809e-19)
(0.199816 -0.750575 2.43553e-22)
(0.738101 -1.90535 -1.3363e-19)
(1.18551 -2.08726 0)
(1.53591 -1.85555 1.30848e-19)
(1.81649 -1.45913 0)
(2.04641 -1.00606 0)
(2.21397 -0.582214 -5.11997e-22)
(2.33452 -0.198141 -6.32889e-20)
(2.42185 0.163192 -6.2258e-20)
(2.44161 0.44717 -6.22363e-20)
(2.40422 0.651994 0)
(2.3277 0.800894 0)
(2.13552 0.793406 6.07391e-20)
(1.8097 0.684674 1.21028e-19)
(1.40126 0.750339 -1.20566e-19)
(0.944165 1.11934 0)
(0.477175 1.61414 -1.19539e-19)
(0.0621815 1.69718 5.97407e-20)
(-0.176732 1.19139 0)
(-0.574155 0.97091 -1.17611e-19)
(-1.24037 1.29309 -5.84384e-20)
(-2.03296 1.77161 1.15219e-19)
(-2.89152 2.2681 5.71162e-20)
(-3.64077 2.59978 0)
(-4.18855 2.58723 -1.10437e-19)
(-4.5482 2.35093 -1.08834e-19)
(-4.87112 2.1529 0)
(-5.24741 2.03397 -1.05555e-19)
(-5.59362 1.84941 0)
(-5.88708 1.57404 -1.02189e-19)
(-6.20687 1.31126 -5.08587e-20)
(-6.55442 1.09372 0)
(-6.87354 0.879284 0)
(-7.15129 0.665174 0)
(-7.38853 0.46165 0)
(-7.5754 0.257709 0)
(-7.70809 0.052702 0)
(-7.7849 -0.147183 -9.11414e-20)
(-7.80433 -0.343079 1.36187e-19)
(-7.76591 -0.535088 0)
(-7.67057 -0.722349 0)
(-7.51913 -0.904674 0)
(-7.31343 -1.08119 -1.178e-21)
(-7.05583 -1.25034 -8.98943e-20)
(-6.74959 -1.408 -1.78618e-19)
(-6.39815 -1.54835 1.78673e-19)
(-6.00537 -1.66389 8.89148e-20)
(-5.57478 -1.74572 -8.98618e-20)
(-5.10892 -1.78548 7.52739e-22)
(-4.60745 -1.77805 -8.91688e-20)
(-4.06674 -1.72422 0)
(-3.48448 -1.63084 -8.92584e-20)
(-2.8667 -1.50754 3.2758e-22)
(-2.22388 -1.35743 0)
(-1.54917 -1.16755 0)
(-0.839772 -0.922258 8.89623e-20)
(-0.127759 -0.652123 0)
(0.577294 -0.375013 0)
(1.22423 -0.161687 -8.77548e-20)
(1.81117 -0.0310281 -1.73886e-19)
(2.3147 -0.00530904 8.59155e-20)
(2.75132 -0.0828711 0)
(3.11011 -0.211588 -8.41506e-20)
(3.38787 -0.357835 0)
(3.61756 -0.51303 -8.28253e-20)
(3.78506 -0.651138 -8.18394e-20)
(3.88597 -0.691194 1.61908e-19)
(3.89587 -0.581429 7.98068e-20)
(3.72777 -0.379806 0)
(3.42449 -0.107087 -1.58383e-19)
(3.05359 0.00988833 0)
(2.40709 -0.0157994 -2.36647e-19)
(1.66466 0.195204 -1.57223e-19)
(1.35682 0.316814 -1.5638e-19)
(1.31812 -0.00725575 1.55383e-19)
(0.876846 0.00473732 -2.31083e-19)
(0.0615094 0.319048 0)
(-0.61472 0.408849 0)
(-1.09015 0.39103 1.48324e-19)
(-1.51014 0.400537 2.1875e-19)
(-1.95867 0.521138 0)
(-2.50115 0.781129 -7.01595e-20)
(-3.16287 1.16806 0)
(-3.93613 1.6374 2.0324e-19)
(-4.78482 2.13707 -1.78244e-22)
(-5.6432 2.6013 -2.2406e-22)
(-6.43334 2.95515 -1.27538e-19)
(-7.10613 3.13402 0)
(-7.66847 3.10939 1.21308e-19)
(-8.1561 2.94278 2.5322e-21)
(-8.60502 2.70077 0)
(-9.03977 2.43793 0)
(-9.47318 2.18555 0)
(-9.91197 1.95739 -1.01367e-19)
(-10.3578 1.7538 0)
(-10.8088 1.56761 0)
(-11.2583 1.38731 0)
(-11.6937 1.19941 0)
(-12.0948 0.991307 0)
(-12.4343 0.754312 -7.20423e-20)
(-12.6813 0.486378 0)
(-12.809 0.194775 -6.89708e-20)
(-12.8035 -0.107277 -6.81617e-20)
(-12.6625 -0.409063 6.83539e-20)
(-12.3899 -0.698289 0)
(-11.9948 -0.964691 7.15533e-20)
(-11.4858 -1.2043 0)
(-10.8718 -1.41412 7.75714e-20)
(-10.1603 -1.59379 -8.12301e-20)
(-9.36156 -1.73899 -2.52958e-19)
(-8.49139 -1.84277 0)
(-7.57325 -1.89864 -2.76156e-19)
(-6.63394 -1.90724 -9.43819e-20)
(-5.69755 -1.87803 0)
(-4.78075 -1.82255 -2.01452e-19)
(-3.89361 -1.75313 -2.05441e-19)
(-3.04534 -1.67796 3.13254e-19)
(-2.23869 -1.60781 0)
(-1.46736 -1.552 1.06488e-19)
(-0.720633 -1.51948 1.06834e-19)
(0.0194426 -1.51461 3.19461e-19)
(0.767414 -1.52882 0)
(1.53088 -1.55088 0)
(2.31501 -1.57404 0)
(3.1188 -1.58749 1.03264e-19)
(3.93779 -1.58413 0)
(4.7637 -1.56 0)
(5.5861 -1.51345 -1.0036e-19)
(6.39406 -1.44453 -9.84973e-20)
(7.17688 -1.35367 0)
(7.9235 -1.24034 0)
(8.61955 -1.10073 -1.83455e-19)
(9.24276 -0.929812 0)
(9.75682 -0.731436 1.73064e-19)
(10.1142 -0.517207 1.6717e-19)
(10.2818 -0.300645 0)
(10.2724 -0.0916303 0)
(10.1353 0.113677 -1.51603e-19)
(9.90957 0.296246 -5.16642e-22)
(9.61513 0.444771 -5.22041e-22)
(9.26651 0.557493 0)
(8.87646 0.634306 -2.69727e-19)
(8.45829 0.67453 0)
(8.02865 0.683129 0)
(7.6126 0.674759 0)
(7.23568 0.664725 1.22315e-19)
(6.89942 0.655079 0)
(6.57446 0.633363 -2.33952e-19)
(6.23756 0.588573 -1.15385e-19)
(5.90419 0.525974 0)
(5.60454 0.460236 -1.11965e-19)
(5.34656 0.40057 0)
(5.11371 0.351143 0)
(4.87969 0.316966 -3.24288e-19)
(4.62255 0.302149 2.13944e-19)
(4.33368 0.304868 0)
(4.01548 0.314489 2.09106e-19)
(3.67891 0.314106 -1.03206e-19)
(3.34958 0.292823 0)
(3.06633 0.252654 0)
(2.86306 0.200311 0)
(2.75197 0.139538 -2.92691e-19)
(2.73138 0.0751689 0)
(2.80034 0.0130069 -9.5327e-20)
(2.95282 -0.0521259 0)
(3.15637 -0.11713 0)
(3.36508 -0.169317 0)
(3.5465 -0.192598 0)
(3.69763 -0.188159 0)
(3.82843 -0.166554 0)
(3.94146 -0.138843 -1.74605e-19)
(4.02585 -0.115305 0)
(4.09279 -0.0894306 -8.44815e-20)
(4.15626 -0.0605668 2.48915e-19)
(4.25831 -0.0222606 0)
(4.36791 0.00121969 0)
(4.5174 0.0357333 -1.56679e-19)
(4.59312 0.0411372 -1.53661e-19)
(4.70818 0.0958402 1.50604e-19)
(4.66295 0.110472 1.4768e-19)
(0.351632 -2.21041 2.01073e-19)
(0.823652 -3.05228 1.98755e-19)
(1.12854 -2.78891 1.30746e-19)
(1.33401 -2.30163 6.41914e-20)
(1.49748 -1.77616 0)
(1.65554 -1.23291 -1.26892e-19)
(1.76837 -0.729144 6.23681e-20)
(1.85959 -0.229395 0)
(1.91758 0.235355 6.23382e-20)
(1.88024 0.533204 0)
(1.78576 0.703791 -1.2196e-19)
(1.68125 0.915177 0)
(1.48256 1.1811 -6.08169e-20)
(1.13644 1.46813 -1.21148e-19)
(0.69817 1.82333 1.20661e-19)
(0.277406 2.1884 0)
(-0.0157917 2.31538 1.19555e-19)
(-0.179442 2.01487 0)
(-0.500735 1.8268 0)
(-1.17411 2.16262 1.17231e-19)
(-1.97064 2.71878 0)
(-2.7898 3.23808 -1.08188e-21)
(-3.53043 3.5588 0)
(-4.07482 3.54016 0)
(-4.47267 3.26232 1.28902e-21)
(-4.86255 2.99618 1.08633e-19)
(-5.3128 2.84702 1.05551e-19)
(-5.75042 2.67944 1.05325e-19)
(-6.13481 2.42818 0)
(-6.51103 2.1679 2.02178e-19)
(-6.89117 1.92086 0)
(-7.23754 1.65475 9.67837e-20)
(-7.53964 1.37396 0)
(-7.80154 1.09118 0)
(-8.0154 0.801524 -9.23136e-20)
(-8.17926 0.507053 0)
(-8.29462 0.214857 9.00691e-20)
(-8.36053 -0.0732532 1.83849e-21)
(-8.37743 -0.354558 -1.78667e-19)
(-8.34619 -0.628397 1.75683e-19)
(-8.26893 -0.894063 0)
(-8.14716 -1.15081 0)
(-7.98312 -1.39644 8.53949e-20)
(-7.77961 -1.62831 0)
(-7.53966 -1.84262 8.85594e-20)
(-7.26579 -2.0342 -8.85978e-20)
(-6.95952 -2.19664 -8.86623e-20)
(-6.6211 -2.32303 0)
(-6.25001 -2.40693 8.87967e-20)
(-5.845 -2.44435 8.88458e-20)
(-5.40386 -2.43613 -1.76209e-19)
(-4.9239 -2.38819 8.88879e-20)
(-4.4031 -2.30724 8.88639e-20)
(-3.83942 -2.19397 0)
(-3.23338 -2.04345 0)
(-2.59544 -1.85923 -8.85232e-20)
(-1.93444 -1.65548 0)
(-1.23961 -1.44772 0)
(-0.564413 -1.28065 1.75335e-19)
(0.0821557 -1.17525 1.74238e-19)
(0.684858 -1.12229 0)
(1.21713 -1.10902 0)
(1.67296 -1.11922 0)
(2.04466 -1.15084 0)
(2.34453 -1.16997 1.65709e-19)
(2.56032 -1.11944 -1.63696e-19)
(2.71391 -0.93528 -1.62228e-19)
(2.80829 -0.575656 -3.20553e-19)
(2.80963 -0.0896797 0)
(2.69996 0.364246 1.01445e-21)
(2.37417 0.629304 0)
(1.74511 0.712847 1.57863e-19)
(1.09515 0.747843 1.4986e-22)
(0.505067 0.849893 1.56535e-19)
(-0.330804 1.08184 -1.55459e-19)
(-1.11961 1.17106 3.26392e-23)
(-1.66221 1.03819 0)
(-2.06279 0.896108 -1.50251e-19)
(-2.43953 0.840124 -1.4788e-19)
(-2.85227 0.911039 -2.91558e-19)
(-3.32642 1.1209 0)
(-3.86781 1.46156 1.41191e-19)
(-4.46216 1.9016 0)
(-5.07401 2.38639 -2.71028e-19)
(-5.65337 2.84888 1.32658e-19)
(-6.15167 3.2245 -1.30066e-19)
(-6.54336 3.46249 1.27408e-19)
(-6.84021 3.53664 2.4649e-19)
(-7.08579 3.45978 -1.21338e-19)
(-7.32769 3.28212 1.17677e-19)
(-7.59437 3.05337 0)
(-7.89793 2.81172 -2.14359e-19)
(-8.24137 2.58063 0)
(-8.62487 2.37098 -1.95769e-19)
(-9.04672 2.18206 1.86056e-19)
(-9.5015 2.00403 1.76192e-19)
(-9.97746 1.82002 -1.66359e-19)
(-10.4544 1.60931 -1.5684e-19)
(-10.9023 1.35251 0)
(-11.283 1.03801 -6.82554e-20)
(-11.5558 0.667672 0)
(-11.692 0.257155 0)
(-11.6858 -0.171599 -1.28951e-19)
(-11.5432 -0.598731 0)
(-11.27 -1.00582 0)
(-10.8808 -1.37993 -1.36492e-19)
(-10.387 -1.71411 0)