/*--------------------------------*- C++ -*----------------------------------*\
  =========                 |
  \\      /  F ield         | OpenFOAM: The Open Source CFD Toolbox
   \\    /   O peration     | Website:  https://openfoam.org
    \\  /    A nd           | Version:  9
     \\/     M anipulation  |
\*---------------------------------------------------------------------------*/
FoamFile
{
    format      ascii;
    class       volScalarField;
    location    "0.07";
    object      epsilon;
}
// * * * * * * * * * * * * * * * * * * * * * * * * * * * * * * * * * * * * * //

dimensions      [0 2 -3 0 0 0 0];

internalField   nonuniform List<scalar> 
12225
(
278.515
263.66
249.434
236.84
226.741
219.491
215.084
213.288
213.747
216.054
219.807
224.64
230.235
236.334
242.75
249.326
256.207
266.521
61.117
86.6991
97.9998
107.224
118.495
132.611
149.501
168.755
189.798
212.008
234.806
257.694
280.293
302.348
323.881
344.826
367.825
388.365
25.2777
36.1838
43.384
48.6263
53.396
58.3531
63.7987
69.8704
76.5954
83.9284
91.7833
100.058
108.65
117.482
126.524
135.835
145.772
156.536
17.5218
21.299
24.7155
27.6122
30.166
32.547
34.8777
37.2451
39.7032
42.2794
44.9831
47.8126
50.7613
53.825
57.0096
60.3538
63.9249
67.8359
15.4879
16.7521
18.1863
19.5899
20.9114
22.1522
23.3314
24.4729
25.5978
26.7219
27.8556
29.0056
30.1767
31.3732
32.602
33.8777
35.2182
36.6383
14.9085
15.2397
15.7465
16.3345
16.9485
17.5604
18.1582
18.7393
19.3057
19.8606
20.4077
20.9501
21.4905
22.0319
22.578
23.1341
23.7057
24.2905
14.7451
14.7391
14.8342
15.0038
15.2219
15.4686
15.7297
15.9966
16.2647
16.5314
16.7959
17.0581
17.3182
17.577
17.8359
18.0965
18.3606
18.6245
14.7013
14.5825
14.5116
14.4859
14.4982
14.5405
14.6047
14.6845
14.7749
14.8726
14.9752
15.0811
15.1894
15.2995
15.4112
15.5249
15.6407
15.7559
14.6901
14.5373
14.407
14.3008
14.2182
14.1571
14.1146
14.0878
14.0737
14.07
14.0746
14.0861
14.1032
14.1249
14.1507
14.1801
14.2127
14.2469
14.6874
14.5252
14.3761
14.2411
14.1203
14.0136
13.9202
13.839
13.7688
13.7084
13.6566
13.6124
13.5749
13.5433
13.5169
13.4953
13.478
13.4641
14.6868
14.5221
14.3677
14.2236
14.0895
13.9655
13.851
13.7458
13.6493
13.5609
13.4799
13.406
13.3383
13.2766
13.2203
13.169
13.1223
13.08
14.6866
14.5213
14.3656
14.219
14.0812
13.9517
13.8304
13.7167
13.6103
13.5108
13.4179
13.3311
13.2501
13.1745
13.104
13.0383
12.9771
12.9205
14.6865
14.521
14.3648
14.2175
14.0784
13.9472
13.8233
13.7064
13.5961
13.492
13.3938
13.3012
13.2139
13.1316
13.0541
12.981
12.9122
12.848
14.6864
14.5208
14.3645
14.2169
14.0774
13.9456
13.8209
13.7028
13.5911
13.4853
13.3851
13.2902
13.2002
13.115
13.0343
12.9578
12.8853
12.8174
14.6864
14.5207
14.3643
14.2165
14.0769
13.9449
13.8199
13.7016
13.5894
13.4831
13.3823
13.2867
13.1959
13.1097
13.0279
12.9502
12.8764
12.807
14.6863
14.5206
14.3641
14.2163
14.0766
13.9444
13.8193
13.7009
13.5886
13.4822
13.3812
13.2854
13.1944
13.1079
13.0258
12.9477
12.8735
12.8037
14.6863
14.5205
14.364
14.2161
14.0763
13.9441
13.819
13.7004
13.5881
13.4816
13.3805
13.2846
13.1935
13.107
13.0247
12.9465
12.8722
12.8022
14.6863
14.5204
14.3639
14.216
14.0762
13.9439
13.8187
13.7001
13.5877
13.4812
13.3801
13.2841
13.1929
13.1063
13.024
12.9457
12.8713
12.8013
14.6863
14.5204
14.3639
14.2159
14.0761
13.9438
13.8186
13.7
13.5876
13.481
13.3799
13.2839
13.1927
13.1061
13.0237
12.9454
12.8709
12.8008
14.6863
14.5205
14.3639
14.216
14.0762
13.944
13.8188
13.7002
13.5878
13.4813
13.3802
13.2842
13.1931
13.1064
13.0241
12.9458
12.8714
12.8013
14.6863
14.5205
14.364
14.2162
14.0765
13.9443
13.8192
13.7008
13.5886
13.4823
13.3814
13.2857
13.1948
13.1085
13.0266
12.9487
12.8747
12.8051
14.6863
14.5206
14.3643
14.2167
14.0774
13.9458
13.8214
13.704
13.593
13.488
13.3888
13.295
13.2062
13.1222
13.0426
12.9673
12.896
12.8293
14.6865
14.5212
14.3659
14.2202
14.0837
13.9561
13.8369
13.7256
13.6219
13.5251
13.4349
13.3507
13.2721
13.1988
13.1302
13.0661
13.0061
12.9506
14.6876
14.5264
14.3794
14.2467
14.1282
14.0231
13.9302
13.8484
13.7762
13.7126
13.6563
13.6066
13.5625
13.5234
13.4886
13.4576
13.43
13.4059
14.6976
14.5664
14.4707
14.4075
14.3714
14.3567
14.3583
14.3717
14.3937
14.4219
14.4543
14.4899
14.5276
14.5667
14.6069
14.6478
14.6892
14.7309
14.7737
14.8186
14.9602
15.159
15.386
15.6229
15.8591
16.0896
16.3123
16.5269
16.7339
16.9341
17.1284
17.3177
17.5026
17.6837
17.8616
18.0359
15.2587
16.1151
17.071
17.9723
18.7871
19.5227
20.1928
20.8126
21.3959
21.9535
22.4939
23.0232
23.5457
24.0642
24.5805
25.0955
25.6093
26.1195
18.0414
22.0077
24.9881
27.1523
28.8867
30.4023
31.8086
33.173
34.5364
35.9212
37.3387
38.7926
40.282
41.8031
43.3501
44.9168
46.4968
48.0771
34.0237
45.6868
51.3748
54.939
58.0753
61.2894
64.7381
68.4651
72.4544
76.6631
81.0409
85.5383
90.1087
94.7107
99.3087
103.874
108.391
112.833
163.308
157.417
151.704
146.261
141.3
136.946
133.248
130.204
127.777
125.913
124.551
123.627
123.08
122.853
122.896
123.162
123.611
124.208
11.7326
4.73223
5.897
6.79048
7.47
7.96812
8.30622
8.50649
8.60761
8.64982
8.67024
8.70264
8.75997
8.82286
8.8787
8.91426
8.91216
8.94708
9.02815
9.00948
8.97565
9.03279
38.6756
38.9871
9.1307
39.1997
44.858
52.1751
60.6511
70.0976
80.3337
91.174
102.445
113.992
125.684
137.413
149.091
160.651
172.046
183.243
194.227
204.992
215.545
225.898
236.068
246.079
255.953
265.716
275.393
285.008
294.586
304.149
313.717
323.311
332.949
342.646
352.42
362.282
372.247
382.323
392.521
402.85
413.315
423.922
434.677
445.581
456.638
467.847
479.208
490.721
502.382
514.188
526.135
538.216
550.427
562.759
575.205
587.756
600.404
613.144
625.97
638.887
651.907
665.066
678.431
691.846
705.24
718.602
731.913
745.152
758.292
771.31
784.177
796.865
809.345
821.587
833.56
845.233
856.574
867.55
878.131
888.283
897.976
907.178
915.859
923.992
931.548
938.503
944.834
950.521
955.547
959.899
963.566
966.542
968.827
970.422
971.336
971.579
971.17
970.129
968.481
966.256
963.487
960.212
956.47
952.303
947.755
942.87
937.692
932.269
926.643
920.858
914.955
908.973
902.946
896.907
890.885
884.905
878.988
873.148
867.394
861.732
856.165
850.689
845.291
839.95
834.647
829.36
824.049
818.661
813.17
807.52
801.623
795.47
789.102
783.688
785.342
789.607
794.237
798.946
803.572
807.952
811.913
815.264
817.796
819.288
819.506
818.21
815.16
810.121
802.87
793.199
780.913
765.829
747.753
726.444
701.382
671.781
634.074
587.136
14.3435
10.7044
10.21
10.057
9.93303
9.80647
9.69205
9.60272
9.52697
9.44879
9.36259
9.2901
9.27886
9.38624
9.67415
10.2341
11.1833
12.5226
14.4354
17.4572
21.4951
25.6664
29.9014
34.4138
39.6919
44.6586
49.6818
54.7281
59.7723
64.7802
69.7174
74.5597
79.2971
83.9301
88.4657
92.913
97.282
101.582
105.821
110.008
114.149
118.251
122.322
126.366
130.392
134.405
138.411
142.417
146.428
150.45
154.487
158.546
162.63
166.744
170.893
175.078
179.305
183.576
187.894
192.26
196.677
201.146
205.669
210.246
214.877
219.563
224.304
229.099
233.946
238.846
243.796
248.794
253.839
258.929
264.06
269.232
274.44
279.684
284.962
290.273
295.619
301.003
306.433
311.919
317.51
323.133
328.752
334.358
339.942
345.496
351.011
356.477
361.885
367.224
372.483
377.651
382.718
387.672
392.501
397.194
401.738
406.123
410.336
414.367
418.205
421.839
425.259
428.456
431.422
434.15
436.633
438.865
440.844
442.566
444.032
445.24
446.193
446.896
447.352
447.569
447.554
447.316
446.867
446.218
445.381
444.369
443.197
441.876
440.423
438.851
437.173
435.403
433.554
431.638
429.666
427.649
425.597
423.516
421.416
419.302
417.178
415.046
412.911
410.771
408.626
406.47
404.3
402.11
399.891
397.624
395.311
392.935
390.45
387.92
385.426
383.367
382.595
382.288
382.004
381.6
380.997
380.124
378.909
377.279
375.157
372.468
369.134
365.082
360.245
354.562
347.987
340.487
332.042
322.653
312.338
301.149
289.142
276.66
263.903
258.03
20.6815
14.6791
13.137
12.3867
11.8765
11.4835
11.1738
10.9359
10.7614
10.6476
10.6058
10.6566
10.8319
11.1948
11.8333
12.867
14.4499
16.7503
19.8449
23.6978
28.0803
32.6309
37.0538
41.2519
45.2478
49.0659
52.7413
56.3113
59.8132
63.274
66.7066
70.1177
73.5115
76.8908
80.2567
83.6094
86.9478
90.2708
93.5774
96.8671
100.14
103.398
106.642
109.876
113.101
116.322
119.542
122.764
125.992
129.229
132.48
135.746
139.032
142.339
145.671
149.03
152.419
155.838
159.291
162.778
166.302
169.862
173.46
177.096
180.771
184.485
188.238
192.03
195.859
199.727
203.632
207.573
211.55
215.562
219.607
223.685
227.796
231.939
236.114
240.322
244.564
248.842
253.158
257.514
261.907
266.31
270.712
275.107
279.486
283.845
288.177
292.475
296.732
300.94
305.091
309.178
313.193
317.126
320.97
324.716
328.355
331.878
335.277
338.543
341.669
344.644
347.463
350.118
352.602
354.909
357.033
358.971
360.717
362.271
363.63
364.793
365.762
366.537
367.121
367.519
367.735
367.775
367.646
367.355
366.911
366.321
365.597
364.746
363.778
362.703
361.53
360.27
358.93
357.519
356.046
354.518
352.942
351.326
349.674
347.992
346.284
344.555
342.808
341.045
339.267
337.473
335.665
333.844
332
330.124
328.233
326.316
324.364
322.404
320.494
318.791
317.486
316.347
315.187
313.913
312.462
310.779
308.811
306.506
303.807
300.659
297.007
292.798
287.986
282.531
276.402
269.582
262.069
253.878
245.046
235.648
225.804
215.824
206.249
199.195
27.4441
18.0215
15.4467
14.2561
13.5267
13.0155
12.6398
12.3698
12.1985
12.1344
12.2031
12.4129
12.8135
13.4826
14.5368
16.0874
18.245
21.0836
24.5721
28.5443
32.7324
36.8534
40.7098
44.2439
47.5035
50.5791
53.5509
56.4792
59.4059
62.3544
65.3335
68.3433
71.3802
74.439
77.5143
80.6005
83.6929
86.7873
89.8802
92.9695
96.0536
99.132
102.205
105.273
108.338
111.402
114.467
117.535
120.608
123.69
126.783
129.889
133.011
136.151
139.312
142.496
145.705
148.941
152.205
155.5
158.826
162.185
165.577
169.004
172.466
175.964
179.498
183.067
186.673
190.315
193.992
197.705
201.453
205.236
209.053
212.904
216.788
220.706
224.657
228.642
232.659
236.709
240.791
244.902
249.031
253.168
257.305
261.437
265.558
269.663
273.744
277.797
281.815
285.791
289.718
293.588
297.394
301.129
304.785
308.353
311.825
315.194
318.451
321.588
324.598
327.472
330.202
332.783
335.206
337.467
339.559
341.478
343.219
344.779
346.156
347.349
348.357
349.181
349.822
350.285
350.571
350.687
350.637
350.428
350.068
349.563
348.921
348.152
347.263
346.264
345.162
343.968
342.688
341.331
339.904
338.415
336.871
335.28
333.645
331.973
330.268
328.537
326.783
325.011
323.218
321.409
319.591
317.763
315.923
314.068
312.203
310.326
308.438
306.555
304.709
302.965
301.371
299.836
298.262
296.58
294.739
292.69
290.389
287.789
284.84
281.493
277.702
273.418
268.601
263.216
257.237
250.651
243.458
235.68
227.359
218.577
209.469
200.311
191.545
184.153
34.3339
21.2374
17.7328
16.18
15.2866
14.7014
14.3014
14.0425
13.9181
13.9464
14.1333
14.5133
15.1415
16.0931
17.4573
19.3184
21.7299
24.6822
28.0752
31.725
35.412
38.9486
42.2316
45.2545
48.079
50.7901
53.4615
56.1439
58.8668
61.6428
64.4735
67.3552
70.2817
73.2463
76.2428
79.2651
82.3082
85.3675
88.4389
91.5194
94.6062
97.6976
100.792
103.89
106.99
110.094
113.202
116.316
119.436
122.566
125.706
128.86
132.029
135.215
138.421
141.649
144.901
148.179
151.485
154.82
158.186
161.585
165.017
168.484
171.987
175.527
179.103
182.717
186.368
190.057
193.784
197.549
201.352
205.191
209.068
212.982
216.931
220.916
224.936
228.991
233.078
237.196
241.344
245.514
249.699
253.89
258.083
262.272
266.452
270.616
274.76
278.876
282.958
287
290.994
294.933
298.81
302.617
306.345
309.987
313.535
316.98
320.315
323.53
326.618
329.57
332.38
335.039
337.54
339.877
342.043
344.034
345.844
347.47
348.908
350.158
351.217
352.086
352.766
353.26
353.57
353.7
353.657
353.445
353.072
352.545
351.872
351.062
350.122
349.063
347.892
346.619
345.252
343.8
342.269
340.669
339.008
337.292
335.528
333.719
331.871
329.996
328.096
326.175
324.235
322.279
320.313
318.338
316.355
314.363
312.365
310.361
308.352
306.346
304.361
302.421
300.533
298.652
296.717
294.677
292.486
290.105
287.49
284.599
281.387
277.809
273.822
269.383
264.454
259.004
253.01
246.461
239.363
231.737
223.633
215.136
206.379
197.606
189.148
181.562
41.1777
24.4816
20.1401
18.2772
17.2524
16.6198
16.2195
15.9949
15.9366
16.0487
16.3363
16.8415
17.6181
18.7278
20.2312
22.1719
24.5553
27.3305
30.3874
33.5756
36.744
39.7823
42.6436
45.3427
47.9322
50.4744
53.0217
55.6086
58.2537
60.9639
63.7388
66.5749
69.467
72.4099
75.3984
78.4277
81.4928
84.5894
87.7132
90.8603
94.0273
97.211
100.409
103.62
106.842
110.074
113.316
116.569
119.833
123.109
126.398
129.703
133.025
136.366
139.728
143.114
146.525
149.963
153.43
156.929
160.461
164.028
167.63
171.27
174.948
178.666
182.424
186.223
190.063
193.945
197.868
201.833
205.84
209.887
213.975
218.104
222.271
226.477
230.72
234.999
239.312
243.657
248.03
252.421
256.825
261.237
265.649
270.058
274.457
278.84
283.201
287.533
291.83
296.084
300.288
304.434
308.514
312.52
316.444
320.278
324.012
327.639
331.149
334.533
337.785
340.894
343.852
346.653
349.287
351.748
354.029
356.124
358.029
359.737
361.247
362.555
363.66
364.562
365.26
365.758
366.057
366.163
366.08
365.814
365.371
364.761
363.991
363.069
362.006
360.808
359.488
358.055
356.518
354.886
353.164
351.365
349.5
347.573
345.593
343.564
341.494
339.389
337.256
335.099
332.923
330.729
328.524
326.308
324.085
321.853
319.615
317.37
315.118
312.863
310.61
308.367
306.127
303.862
301.529
299.09
296.504
293.736
290.746
287.496
283.946
280.054
275.781
271.089
265.944
260.319
254.197
247.57
240.448
232.858
224.851
216.513
207.971
199.435
191.141
183.427
47.9338
27.8304
22.6966
20.5462
19.4077
18.7389
18.3463
18.1578
18.1544
18.31
18.6513
19.2148
20.0435
21.1815
22.6642
24.5066
26.6905
29.1586
31.8194
34.5661
37.3026
39.9664
42.5368
45.0294
47.4806
49.9306
52.4126
54.949
57.5518
60.2259
62.9717
65.7874
68.6702
71.6167
74.6234
77.6866
80.802
83.9656
87.173
90.4198
93.702
97.0155
100.357
103.723
107.112
110.521
113.949
117.395
120.859
124.342
127.844
131.366
134.909
138.476
142.068
145.686
149.334
153.013
156.725
160.472
164.256
168.079
171.942
175.847
179.794
183.786
187.822
191.904
196.033
200.207
204.429
208.696
213.01
217.37
221.775
226.223
230.715
235.249
239.822
244.433
249.08
253.761
258.466
263.188
267.921
272.661
277.4
282.133
286.854
291.556
296.232
300.875
305.477
310.031
314.528
318.961
323.32
327.597
331.784
335.871
339.85
343.71
347.443
351.04
354.492
357.789
360.924
363.888
366.673
369.27
371.672
373.874
375.87
377.654
379.223
380.574
381.703
382.612
383.3
383.769
384.022
384.063
383.896
383.529
382.968
382.221
381.298
380.209
378.962
377.564
376.032
374.375
372.603
370.726
368.751
366.691
364.554
362.348
360.083
357.764
355.398
352.994
350.557
348.092
345.604
343.097
340.575
338.04
335.493
332.936
330.367
327.787
325.193
322.584
319.961
317.321
314.654
311.938
309.142
306.233
303.178
299.943
296.494
292.796
288.813
284.511
279.853
274.808
269.348
263.453
257.111
250.321
243.098
235.473
227.502
219.269
210.891
202.543
194.385
186.618
54.2323
31.1761
25.2801
22.8547
21.6114
20.9138
20.5313
20.3736
20.3813
20.5518
20.9037
21.4647
22.2658
23.3362
24.6951
26.344
28.2606
30.3974
32.6885
35.0632
37.4613
39.8456
42.2044
44.5474
46.8958
49.2735
51.7007
54.1918
56.7557
59.3968
62.1173
64.9173
67.7964
70.753
73.7854
76.8908
80.066
83.3074
86.6106
89.9713
93.3848
96.8466
100.352
103.898
107.48
111.096
114.743
118.42
122.124
125.857
129.617
133.406
137.223
141.071
144.95
148.863
152.811
156.796
160.82
164.885
168.992
173.145
177.343
181.589
185.884
190.228
194.624
199.071
203.571
208.122
212.726
217.382
222.09
226.848
231.657
236.513
241.417
246.366
251.358
256.39
261.46
266.563
271.687
276.825
281.973
287.123
292.27
297.407
302.526
307.619
312.68
317.699
322.669
327.58
332.425
337.194
341.877
346.467
350.952
355.325
359.574
363.69
367.664
371.486
375.146
378.636
381.946
385.069
387.994
390.714
393.222
395.51
397.573
399.405
401.003
402.363
403.482
404.359
404.996
405.394
405.554
405.483
405.185
404.666
403.933
402.996
401.866
400.553
399.067
397.418
395.618
393.68
391.615
389.432
387.143
384.758
382.288
379.741
377.127
374.453
371.728
368.958
366.15
363.31
360.442
357.551
354.639
351.709
348.762
345.799
342.816
339.814
336.787
333.733
330.647
327.523
324.348
321.104
317.765
314.305
310.693
306.902
302.9
298.658
294.145
289.33
284.187
278.691
272.82
266.564
259.918
252.89
245.502
237.793
229.82
221.664
213.431
205.264
197.261
189.533
59.7949
34.2511
27.6943
25.0318
23.7003
22.9796
22.6038
22.4457
22.4515
22.6158
22.9484
23.4676
24.1948
25.1487
26.3407
27.7692
29.4168
31.2504
33.2266
35.2995
37.4309
39.5959
41.7847
44.0004
46.2535
48.5569
50.923
53.3614
55.8794
58.482
61.1728
63.9539
66.8269
69.7921
72.8492
75.9969
79.2329
82.5542
85.9568
89.4366
92.9888
96.6085
100.291
104.032
107.826
111.671
115.562
119.497
123.475
127.493
131.551
135.649
139.786
143.964
148.184
152.445
156.751
161.103
165.502
169.95
174.448
178.999
183.603
188.263
192.978
197.751
202.582
207.472
212.42
217.427
222.493
227.617
232.799
238.037
243.33
248.676
254.073
259.518
265.01
270.544
276.118
281.719
287.337
292.966
298.6
304.231
309.852
315.456
321.032
326.574
332.071
337.514
342.895
348.203
353.429
358.564
363.596
368.517
373.316
377.982
382.506
386.878
391.086
395.122
398.975
402.637
406.099
409.352
412.387
415.196
417.77
420.103
422.189
424.024
425.603
426.923
427.979
428.772
429.303
429.574
429.587
429.346
428.858
428.131
427.172
425.991
424.598
423.005
421.223
419.263
417.138
414.86
412.442
409.895
407.231
404.462
401.597
398.648
395.624
392.534
389.386
386.187
382.944
379.662
376.348
373.003
369.632
366.236
362.814
359.368
355.893
352.386
348.843
345.258
341.622
337.928
334.162
330.308
326.344
322.247
317.991
313.551
308.901
304.017
298.874
293.448
287.72
281.675
275.3
268.595
261.565
254.23
246.619
238.779
230.771
222.675
214.581
206.606
198.798
191.206
64.5457
36.9373
29.8144
26.947
25.5383
24.795
24.4076
24.2373
24.235
24.3842
24.686
25.1502
25.7907
26.6203
27.6474
28.8719
30.2837
31.8627
33.5818
35.412
37.3276
39.3104
41.3507
43.4469
45.6026
47.8245
50.1199
52.4962
54.9599
57.5167
60.1715
62.9284
65.7906
68.7603
71.8387
75.0258
78.3205
81.7208
85.2234
88.8246
92.5198
96.3043
100.173
104.121
108.143
112.236
116.395
120.616
124.897
129.235
133.63
138.079
142.582
147.14
151.752
156.419
161.141
165.921
170.759
175.657
180.615
185.635
190.718
195.865
201.077
206.355
211.698
217.108
222.585
228.127
233.735
239.408
245.144
250.942
256.8
262.715
268.686
274.708
280.778
286.892
293.045
299.215
305.396
311.582
317.765
323.937
330.089
336.211
342.294
348.327
354.299
360.2
366.019
371.747
377.371
382.882
388.269
393.52
398.626
403.575
408.358
412.962
417.377
421.593
425.602
429.394
432.96
436.293
439.385
442.226
444.807
447.122
449.168
450.939
452.432
453.644
454.569
455.209
455.566
455.641
455.439
454.965
454.224
453.225
451.975
450.486
448.769
446.834
444.694
442.362
439.85
437.172
434.342
431.371
428.272
425.058
421.74
418.329
414.835
411.267
407.634
403.944
400.203
396.416
392.59
388.726
384.828
380.896
376.929
372.926
368.883
364.796
360.657
356.459
352.193
347.848
343.411
338.867
334.195
329.376
324.388
319.21
313.821
308.201
302.332
296.199
289.792
283.104
276.137
268.899
261.41
253.7
245.81
237.795
229.721
221.666
213.71
205.944
198.379
191.02
68.4244
39.1591
31.5595
28.5133
27.0326
26.2525
25.8411
25.6626
25.655
25.7923
26.0677
26.4845
27.051
27.7764
28.668
29.7282
30.9531
32.3319
33.849
35.4859
37.2252
39.0527
40.9594
42.941
44.9977
47.1327
49.351
51.6588
54.0624
56.5684
59.183
61.912
64.7602
67.7316
70.829
74.054
77.4068
80.8865
84.491
88.2173
92.0616
96.0193
100.086
104.256
108.524
112.886
117.338
121.875
126.493
131.19
135.963
140.81
145.73
150.721
155.784
160.917
166.122
171.398
176.746
182.166
187.659
193.226
198.866
204.581
210.371
216.236
222.175
228.189
234.278
240.439
246.673
252.978
259.352
265.793
272.299
278.866
285.49
292.168
298.896
305.668
312.465
319.27
326.077
332.879
339.666
346.43
353.158
359.84
366.464
373.017
379.487
385.863
392.132
398.283
404.304
410.183
415.908
421.469
426.853
432.051
437.053
441.845
446.415
450.755
454.856
458.711
462.311
465.649
468.72
471.516
474.02
476.233
478.152
479.772
481.092
482.107
482.817
483.222
483.323
483.125
482.63
481.844
480.775
479.43
477.819
475.951
473.84
471.496
468.932
466.163
463.201
460.061
456.757
453.302
449.709
445.991
442.16
438.227
434.204
430.1
425.924
421.682
417.383
413.031
408.63
404.184
399.694
395.16
390.581
385.953
381.272
376.532
371.724
366.839
361.867
356.796
351.612
346.3
340.844
335.224
329.423
323.423
317.209
310.766
304.084
297.158
289.984
282.57
274.928
267.081
259.062
250.915
242.694
234.462
226.292
218.26
210.439
202.9
195.624
188.584
71.4106
40.8801
32.8913
29.6896
28.1273
27.3029
26.8765
26.6968
26.6919
26.8282
27.0925
27.4829
28.0032
28.6601
29.4598
30.4061
31.4989
32.7336
34.1014
35.591
37.1904
38.889
40.6788
42.5553
44.5176
46.5674
48.709
50.9483
53.2922
55.7483
58.324
61.0267
63.8629
66.8385
69.9579
73.2245
76.6403
80.2057
83.92
87.7814
91.787
95.9331
100.215
104.629
109.169
113.83
118.609
123.499
128.497
133.6
138.803
144.104
149.5
154.99
160.572
166.245
172.007
177.859
183.798
189.825
195.939
202.14
208.427
214.8
221.258
227.801
234.428
241.138
247.929
254.8
261.75
268.775
275.875
283.045
290.283
297.584
304.944
312.358
319.819
327.318
334.818
342.315
349.801
357.266
364.699
372.088
379.423
386.689
393.872
400.957
407.928
414.774
421.481
428.037
434.428
440.641
446.664
452.486
458.095
463.48
468.634
473.545
478.19
482.569
486.673
490.496
494.032
497.273
500.216
502.852
505.175
507.182
508.869
510.235
511.277
511.996
512.389
512.46
512.21
511.642
510.763
509.577
508.093
506.319
504.264
501.941
499.36
496.535
493.479
490.205
486.728
483.063
479.224
475.224
471.078
466.799
462.398
457.889
453.281
448.584
443.808
438.96
434.046
429.07
424.038
418.951
413.81
408.614
403.36
398.045
392.661
387.203
381.659
376.02
370.274
364.409
358.409
352.261
345.949
339.457
332.771
325.875
318.761
311.42
303.85
296.053
288.04
279.827
271.441
262.921
254.312
245.675
237.077
228.592
220.298
212.274
204.584
197.286
190.338
183.693
73.5329
42.1069
33.8119
30.4621
28.827
27.9728
27.5406
27.3687
27.3779
27.529
27.8039
28.1961
28.706
29.3372
30.0945
30.9815
31.9996
33.1473
34.4198
35.8101
37.3101
38.9123
40.6107
42.4019
44.2852
46.2628
48.3392
50.521
52.816
55.2331
57.7812
60.4692
63.3056
66.298
69.453
72.7759
76.2706
79.9394
83.7833
87.802
91.9939
96.3564
100.886
105.579
110.43
115.435
120.588
125.886
131.322
136.893
142.594
148.422
154.373
160.443
166.63
172.93
179.343
185.864
192.493
199.227
206.063
213.001
220.037
227.171
234.401
241.724
249.14
256.644
264.236
271.914
279.673
287.511
295.426
303.412
311.467
319.584
327.758
335.982
344.251
352.514
360.765
368.994
377.192
385.346
393.444
401.472
409.416
417.262
425
432.597
440.042
447.323
454.425
461.334
468.036
474.517
480.764
486.766
492.51
497.986
503.184
508.094
512.703
517.005
520.994
524.665
528.013
531.032
533.72
536.071
538.084
539.754
541.082
542.067
542.709
543.008
542.967
542.587
541.872
540.828
539.459
537.773
535.778
533.484
530.899
528.037
524.908
521.526
517.906
514.06
510.004
505.751
501.317
496.716
491.961
487.066
482.044
476.906
471.662
466.323
460.897
455.392
449.812
444.163
438.448
432.667
426.822
420.91
414.927
408.869
402.726
396.492
390.155
383.704
377.125
370.405
363.531
356.488
349.26
341.836
334.203
326.351
318.275
309.975
301.456
292.73
283.818
274.751
265.57
256.328
247.087
237.922
228.914
220.15
211.714
203.686
196.125
189.077
182.49
176.296
74.8615
42.8507
34.3283
30.8792
29.1994
28.3313
27.9053
27.7537
27.7927
27.9792
28.2911
28.7183
29.2577
29.9101
30.6777
31.5628
32.5666
33.6881
34.9243
36.2707
37.722
39.2731
40.9203
42.6619
44.4988
46.4342
48.4741
50.6261
52.9
55.3064
57.856
60.5584
63.4245
66.4643
69.6867
73.0995
76.7086
80.5187
84.5328
88.7525
93.1777
97.8075
102.64
107.671
112.897
118.314
123.917
129.7
135.659
141.787
148.08
154.533
161.14
167.897
174.798
181.84
189.018
196.328
203.767
211.328
219.007
226.801
234.705
242.717
250.833
259.049
267.362
275.769
284.264
292.846
301.51
310.251
319.066
327.95
336.898
345.902
354.957
364.056
373.141
382.196
391.215
400.186
409.095
417.929
426.673
435.31
443.825
452.201
460.419
468.46
476.307
483.942
491.351
498.519
505.429
512.069
518.424
524.483
530.234
535.667
540.773
545.542
549.968
554.043
557.765
561.128
564.131
566.771
569.047
570.958
572.504
573.685
574.502
574.958
575.055
574.795
574.183
573.222
571.917
570.276
568.304
566.01
563.402
560.49
557.285
553.798
550.042
546.03
541.775
537.291
532.594
527.696
522.613
517.359
511.946
506.389
500.699
494.888
488.966
482.942
476.823
470.618
464.331
457.966
451.525
445.008
438.415
431.742
424.984
418.136
411.189
404.131
396.953
389.641
382.181
374.56
366.763
358.776
350.586
342.183
333.556
324.702
315.621
306.318
296.808
287.113
277.267
267.313
257.307
247.317
237.423
227.714
218.285
209.233
200.651
192.617
185.188
178.401
172.194
166.492
75.4133
43.1552
34.5312
31.0373
29.3431
28.4825
28.0822
27.9716
28.0645
28.3149
28.6979
29.2004
29.816
30.5425
31.3794
32.3267
33.384
34.5495
35.8206
37.1935
38.6645
40.2305
41.8897
43.6426
45.4918
47.4429
49.5024
51.68
53.9881
56.4416
59.054
61.8299
64.7852
67.9335
71.2869
74.8556
78.6485
82.6725
86.9331
91.4339
96.1772
101.163
106.392
111.86
117.566
123.504
129.671
136.06
142.665
149.48
156.498
163.712
171.116
178.701
186.461
194.389
202.477
210.718
219.106
227.633
236.292
245.076
253.979
262.995
272.118
281.342
290.661
300.071
309.566
319.14
328.789
338.508
348.29
358.13
368.022
377.958
387.929
397.863
407.746
417.568
427.318
436.981
446.543
455.987
465.296
474.452
483.437
492.233
500.82
509.178
517.29
525.137
532.703
539.972
546.928
553.558
559.848
565.786
571.362
576.567
581.393
585.834
589.884
593.54
596.8
599.663
602.13
604.2
605.877
607.163
608.062
608.576
608.711
608.471
607.862
606.889
605.557
603.875
601.848
599.483
596.79
593.777
590.453
586.828
582.913
578.72
574.262
569.549
564.597
559.418
554.026
548.435
542.658
536.709
530.6
524.344
517.952
511.435
504.802
498.061
491.22
484.285
477.26
470.147
462.948
455.663
448.289
440.822
433.256
425.584
417.795
409.88
401.824
393.616
385.239
376.681
367.927
358.963
349.779
340.365
330.716
320.832
310.719
300.392
289.872
279.193
268.401
257.554
246.721
235.988
225.45
215.21
205.376
196.054
187.341
179.317
172.034
165.519
159.707
154.518
75.4316
43.1671
34.5381
31.0536
29.3857
28.5694
28.2321
28.2025
28.3932
28.7565
29.265
29.9032
30.6621
31.5366
32.5233
33.6197
34.823
36.1298
37.5365
39.0393
40.635
42.3216
44.0991
45.9697
47.938
50.0158
52.2035
54.5113
56.9568
59.557
62.3283
65.2856
68.4452
71.8227
75.4329
79.289
83.4027
87.7838
92.4402
97.378
102.602
108.113
113.913
120
126.372
133.025
139.953
147.15
154.609
162.32
170.275
178.464
186.877
195.504
204.333
213.354
222.556
231.928
241.458
251.136
260.952
270.894
280.953
291.121
301.387
311.744
322.183
332.698
343.28
353.924
364.623
375.369
386.159
396.981
407.841
418.684
429.451
440.133
450.719
461.195
471.549
481.763
491.822
501.708
511.402
520.886
530.139
539.144
547.88
556.327
564.468
572.284
579.758
586.875
593.619
599.978
605.938
611.491
616.626
621.337
625.619
629.467
632.88
635.857
638.399
640.509
642.192
643.451
644.293
644.725
644.753
644.387
643.632
642.499
640.995
639.128
636.909
634.344
631.444
628.216
624.671
620.818
616.666
612.227
607.509
602.526
597.288
591.806
586.094
580.163
574.025
567.694
561.182
554.5
547.659
540.672
533.547
526.295
518.923
511.438
503.848
496.155
488.364
480.477
472.493
464.41
456.226
447.936
439.532
431.005
422.346
413.541
404.579
395.445
386.123
376.601
366.864
356.9
346.7
336.258
325.573
314.649
303.499
292.146
280.622
268.972
257.253
245.538
233.914
222.478
211.343
200.623
190.439
180.902
172.109
164.138
157.033
150.813
145.409
140.741
75.0367
42.988
34.4651
31.0687
29.4968
28.794
28.5907
28.7167
29.0839
29.6433
30.3666
31.2365
32.2425
33.3774
34.6359
36.0131
37.5039
39.1034
40.8062
42.608
44.5055
46.4976
48.5847
50.7712
53.0462
55.426
57.9237
60.5549
63.3379
66.2923
69.4377
72.7939
76.3801
80.2151
84.3167
88.7009
93.3821
98.3728
103.683
109.321
115.293
121.601
128.246
135.229
142.545
150.189
158.154
166.431
175.01
183.879
193.025
202.434
212.092
221.983
232.092
242.402
252.898
263.564
274.384
285.342
296.424
307.617
318.905
330.277
341.721
353.226
364.782
376.38
388.011
399.667
411.344
423.028
434.729
446.402
457.969
469.416
480.731
491.901
502.914
513.756
524.411
534.864
545.097
555.092
564.832
574.297
583.469
592.328
600.855
609.033
616.843
624.269
631.293
637.902
644.083
649.823
655.112
659.943
664.308
668.204
671.627
674.578
677.057
679.068
680.616
681.708
682.35
682.554
682.328
681.684
680.633
679.187
677.357
675.157
672.596
669.688
666.443
662.872
658.985
654.794
650.308
645.536
640.49
635.178
629.611
623.798
617.749
611.476
604.988
598.295
591.409
584.339
577.095
569.688
562.127
554.421
546.577
538.605
530.509
522.296
513.971
505.536
496.993
488.342
479.583
470.713
461.727
452.619
443.382
434.005
424.478
414.787
404.92
394.861
384.597
374.114
363.398
352.441
341.234
329.775
318.068
306.124
293.963
281.616
269.126
256.55
243.96
231.442
219.098
207.042
195.398
184.294
173.855
164.194
155.405
147.556
140.682
134.787
129.802
125.648
74.3691
42.7415
34.4493
31.2449
29.8717
29.3893
29.4331
29.8341
30.5043
31.3946
32.4766
33.733
35.1529
36.7283
38.4527
40.3195
42.3218
44.4525
46.7049
49.0729
51.5528
54.1466
56.8243
59.5942
62.4648
65.4499
68.566
71.8319
75.2684
78.8978
82.7431
86.8269
91.1717
95.799
100.729
105.979
111.567
117.505
123.805
130.475
137.52
144.944
152.745
160.92
169.464
178.369
187.622
197.211
207.122
217.336
227.836
238.604
249.617
260.857
272.301
283.929
295.719
307.652
319.706
331.864
344.107
356.417
368.778
381.177
393.599
406.033
418.466
430.893
443.301
455.677
468.046
480.34
492.487
504.469
516.276
527.898
539.322
550.535
561.526
572.28
582.782
593.018
602.971
612.626
621.964
630.969
639.623
647.909
655.809
663.306
670.385
677.031
683.228
688.966
694.232
699.017
703.313
707.115
710.419
713.223
715.528
717.338
718.656
719.489
719.847
719.739
719.178
718.175
716.747
714.906
712.669
710.05
707.066
703.731
700.059
696.066
691.764
687.165
682.283
677.127
671.708
666.036