/*--------------------------------*- C++ -*----------------------------------*\
  =========                 |
  \\      /  F ield         | OpenFOAM: The Open Source CFD Toolbox
   \\    /   O peration     | Website:  https://openfoam.org
    \\  /    A nd           | Version:  9
     \\/     M anipulation  |
\*---------------------------------------------------------------------------*/
FoamFile
{
    format      ascii;
    class       volScalarField;
    location    "0.07";
    object      kU;
}
// * * * * * * * * * * * * * * * * * * * * * * * * * * * * * * * * * * * * * //

dimensions      [0 2 -2 0 0 0 0];

internalField   nonuniform List<scalar> 
12225
(
0.353921
0.335043
0.316967
0.300962
0.28813
0.278916
0.273316
0.271034
0.271617
0.274549
0.279318
0.285459
0.292569
0.300319
0.308473
0.316829
0.325573
0.338679
0.436865
0.448983
0.438094
0.433081
0.438828
0.453659
0.474921
0.500169
0.527417
0.555185
0.582453
0.608571
0.633183
0.656152
0.67771
0.697773
0.71977
0.735856
0.395186
0.410872
0.410629
0.405747
0.402016
0.400938
0.402642
0.406855
0.413159
0.421098
0.430243
0.440222
0.450738
0.461569
0.472632
0.483874
0.495926
0.507951
0.379641
0.384839
0.386545
0.38573
0.383906
0.38203
0.380574
0.379751
0.379627
0.380183
0.381358
0.383074
0.385257
0.387844
0.390807
0.39415
0.397983
0.402226
0.374976
0.3759
0.376239
0.37572
0.374569
0.373083
0.371495
0.369967
0.368596
0.367433
0.366498
0.365793
0.365311
0.365043
0.364986
0.365146
0.365543
0.366154
0.373488
0.372554
0.371758
0.370806
0.369629
0.368273
0.366806
0.365296
0.363799
0.362354
0.360987
0.359713
0.358541
0.357477
0.356523
0.355686
0.354973
0.35438
0.373012
0.371296
0.369812
0.368415
0.367023
0.365607
0.364164
0.362706
0.36125
0.359815
0.358415
0.357061
0.355762
0.354523
0.35335
0.352248
0.351222
0.35028
0.372865
0.370838
0.369004
0.367309
0.365709
0.364171
0.362675
0.36121
0.359775
0.358371
0.357002
0.355672
0.354385
0.353142
0.351949
0.350808
0.349723
0.348707
0.37282
0.37068
0.368691
0.366835
0.365093
0.363446
0.361876
0.36037
0.35892
0.357521
0.35617
0.354864
0.353604
0.352389
0.35122
0.350098
0.349026
0.348016
0.372806
0.370628
0.368577
0.366647
0.364827
0.363108
0.361478
0.359929
0.35845
0.357036
0.355682
0.354383
0.353136
0.35194
0.350792
0.349693
0.348643
0.347653
0.372801
0.37061
0.368536
0.366575
0.364719
0.362962
0.361296
0.359714
0.35821
0.356777
0.35541
0.354106
0.35286
0.351669
0.350531
0.349444
0.348407
0.347431
0.372799
0.370603
0.368522
0.366549
0.364679
0.362905
0.361222
0.359623
0.358103
0.356657
0.355281
0.353969
0.352718
0.351525
0.350388
0.349303
0.34827
0.347298
0.372797
0.370599
0.368514
0.366536
0.36466
0.362878
0.361186
0.359578
0.358049
0.356595
0.35521
0.353892
0.352636
0.351439
0.350299
0.349213
0.348179
0.347207
0.372796
0.370596
0.368509
0.366528
0.364648
0.362863
0.361166
0.359553
0.358019
0.356559
0.35517
0.353847
0.352587
0.351386
0.350243
0.349153
0.348117
0.347141
0.372795
0.370594
0.368505
0.366523
0.364641
0.362853
0.361154
0.359538
0.358001
0.356539
0.355146
0.35382
0.352558
0.351355
0.350208
0.349116
0.348076
0.347097
0.372795
0.370592
0.368502
0.366518
0.364635
0.362845
0.361144
0.359527
0.357989
0.356525
0.355131
0.353803
0.352539
0.351334
0.350186
0.349091
0.348048
0.347067
0.372794
0.37059
0.368499
0.366515
0.36463
0.362839
0.361138
0.359519
0.35798
0.356514
0.355119
0.353791
0.352525
0.351319
0.350169
0.349072
0.348028
0.347045
0.372794
0.37059
0.368498
0.366513
0.364627
0.362836
0.361133
0.359514
0.357973
0.356507
0.355111
0.353782
0.352515
0.351308
0.350157
0.349059
0.348013
0.347028
0.372793
0.370589
0.368497
0.366512
0.364626
0.362835
0.361132
0.359512
0.357971
0.356505
0.355108
0.353778
0.352511
0.351303
0.350151
0.349052
0.348005
0.34702
0.372794
0.37059
0.368498
0.366513
0.364628
0.362837
0.361134
0.359515
0.357975
0.356509
0.355113
0.353783
0.352516
0.351308
0.350156
0.349057
0.34801
0.347025
0.372794
0.370591
0.3685
0.366516
0.364632
0.362842
0.361141
0.359523
0.357985
0.35652
0.355126
0.353797
0.352532
0.351325
0.350175
0.349077
0.348032
0.347047
0.372795
0.370593
0.368504
0.366523
0.364642
0.362856
0.36116
0.359548
0.358014
0.356555
0.355167
0.353844
0.352584
0.351382
0.350236
0.349142
0.3481
0.347118
0.372796
0.370598
0.368518
0.366548
0.364682
0.362914
0.361236
0.359644
0.35813
0.356688
0.355315
0.354006
0.352756
0.351563
0.350422
0.349332
0.348291
0.347308
0.372804
0.370631
0.368592
0.366677
0.364873
0.363167
0.361549
0.360008
0.358535
0.357124
0.355771
0.354472
0.353224
0.352026
0.350875
0.349769
0.34871
0.347706
0.372855
0.370818
0.368973
0.367264
0.365646
0.364086
0.362568
0.361085
0.359634
0.358216
0.356836
0.355497
0.354201
0.352952
0.35175
0.350596
0.349493
0.348452
0.373166
0.37177
0.370579
0.369371
0.36805
0.366606
0.365073
0.363494
0.361907
0.360345
0.358828
0.357375
0.355993
0.354691
0.35347
0.352332
0.351274
0.350304
0.374797
0.375829
0.376175
0.375401
0.373834
0.371876
0.369792
0.367739
0.365813
0.364065
0.362522
0.361191
0.36007
0.359149
0.358415
0.357852
0.357443
0.357174
0.382729
0.391672
0.392377
0.388807
0.384386
0.380403
0.377245
0.374992
0.373612
0.373025
0.373134
0.373841
0.375051
0.376675
0.378636
0.380863
0.383296
0.385867
0.407498
0.414512
0.40542
0.395987
0.390545
0.389274
0.391427
0.396173
0.402777
0.410647
0.419333
0.428494
0.437877
0.447295
0.456611
0.465733
0.474614
0.48317
0.360554
0.347547
0.334933
0.322917
0.311964
0.302351
0.294187
0.287466
0.282107
0.277992
0.274985
0.272945
0.271737
0.271237
0.271331
0.271918
0.27291
0.274227
0.0409398
0.075287
0.0937365
0.107845
0.118532
0.126324
0.131567
0.134617
0.136094
0.136636
0.136832
0.137215
0.13799
0.138849
0.139594
0.140018
0.139849
0.14026
0.141391
0.140958
0.140288
0.141038
0.14269
0.143406
0.142128
0.143827
0.157299
0.173908
0.192198
0.211593
0.231637
0.25194
0.272196
0.292175
0.311711
0.330688
0.349034
0.36671
0.383702
0.400018
0.415683
0.430734
0.445213
0.459171
0.472659
0.485728
0.498429
0.510811
0.522918
0.534792
0.546473
0.557994
0.569388
0.580682
0.591902
0.603071
0.614207
0.625329
0.636451
0.647585
0.658743
0.669933
0.681162
0.692435
0.703757
0.71513
0.726554
0.73803
0.749556
0.76113
0.772747
0.784405
0.796096
0.807816
0.819557
0.831312
0.843073
0.854831
0.86658
0.878312
0.890027
0.901725
0.91342
0.925145
0.936961
0.948724
0.96037
0.971891
0.983272
0.994498
1.00555
1.01641
1.02705
1.03745
1.0476
1.05747
1.06704
1.07629
1.0852
1.09373
1.10188
1.10962
1.11693
1.12379
1.13018
1.13608
1.14147
1.14634
1.15068
1.15447
1.1577
1.16037
1.16247
1.16401
1.16497
1.16538
1.16522
1.16453
1.1633
1.16157
1.15934
1.15665
1.15352
1.14997
1.14605
1.14178
1.1372
1.13234
1.12724
1.12193
1.11646
1.11084
1.10512
1.09933
1.09349
1.08763
1.08178
1.07594
1.07015
1.06441
1.05874
1.05312
1.04758
1.0421
1.03667
1.03129
1.02592
1.02056
1.01517
1.00971
1.00415
0.998453
0.992542
0.98641
0.980088
0.974546
0.974852
0.977302
0.980028
0.982795
0.985467
0.987914
0.989997
0.991562
0.992446
0.992473
0.991459
0.989215
0.985549
0.980273
0.973201
0.964156
0.952963
0.939446
0.923407
0.904596
0.882503
0.856352
0.822891
0.7807
0.0500504
0.0922036
0.118585
0.136916
0.149967
0.159183
0.165503
0.169645
0.172214
0.173739
0.174749
0.17585
0.177216
0.179121
0.181849
0.185758
0.191355
0.199586
0.211309
0.227201
0.247944
0.27064
0.293869
0.316771
0.338569
0.362465
0.386881
0.411971
0.438099
0.465361
0.493671
0.522851
0.552691
0.582963
0.613439
0.643896
0.67413
0.703962
0.733249
0.761885
0.789801
0.816966
0.843374
0.869047
0.894024
0.918354
0.942099
0.96532
0.988082
1.01045
1.03248
1.05424
1.07577
1.09713
1.11837
1.13952
1.16063
1.18173
1.20285
1.22402
1.24526
1.26659
1.28804
1.30961
1.33132
1.35318
1.3752
1.39739
1.41974
1.44227
1.46497
1.48783
1.51087
1.53407
1.55743
1.58093
1.60459
1.62837
1.65227
1.67629
1.7004
1.72459
1.74884
1.77313
1.79726
1.82129
1.84527
1.86917
1.89298
1.91667
1.94021
1.96356
1.98669
2.00955
2.03212
2.05436
2.07621
2.09764
2.11861
2.13908
2.15898
2.17829
2.19696
2.21493
2.23218
2.24864
2.26428
2.27906
2.29294
2.30588
2.31785
2.32881
2.33876
2.34765
2.35548
2.36223
2.3679
2.3725
2.37603
2.37849
2.37992
2.38034
2.37978
2.37828
2.37588
2.37262
2.36856
2.36376
2.35827
2.35214
2.34544
2.33824
2.33059
2.32255
2.31418
2.30553
2.29668
2.28765
2.27851
2.26929
2.26004
2.25079
2.24156
2.2324
2.2233
2.21427
2.20533
2.19647
2.18767
2.17888
2.17011
2.16131
2.15232
2.14323
2.13402
2.12488
2.11646
2.10799
2.09898
2.08917
2.07832
2.0662
2.05255
2.03709
2.01955
1.99963
1.97702
1.95145
1.92263
1.89033
1.85431
1.81442
1.77054
1.72259
1.67055
1.6145
1.55442
1.49121
1.42399
1.35527
0.0721664
0.119224
0.148888
0.169484
0.184264
0.19497
0.202707
0.208258
0.21224
0.215209
0.217774
0.220362
0.223298
0.22724
0.232956
0.241342
0.253471
0.270581
0.292955
0.319842
0.349774
0.380612
0.410646
0.439305
0.467086
0.495158
0.524207
0.554651
0.586786
0.620685
0.656185
0.692981
0.730699
0.768955
0.807382
0.845658
0.883514
0.920742
0.957193
0.992774
1.02744
1.06117
1.094
1.12597
1.15713
1.18755
1.21731
1.24648
1.27512
1.30332
1.33113
1.35863
1.38587
1.41291
1.43979
1.46657
1.49328
1.51998
1.54668
1.57342
1.60023
1.62713
1.65415
1.6813
1.70859
1.73605
1.76367
1.79146
1.81944
1.8476
1.87595
1.90448
1.9332
1.96209
1.99115
2.02039
2.04978
2.07932
2.109
2.13882
2.16874
2.19878
2.22889
2.25906
2.28915
2.3192
2.3492
2.37914
2.40898
2.43868
2.46821
2.49754
2.52661
2.55539
2.58383
2.61189
2.63951
2.66664
2.69324
2.71925
2.74461
2.76928
2.79319
2.81629
2.83853
2.85984
2.88018
2.89949
2.91773
2.93483
2.95077
2.96549
2.97896
2.99115
3.00204
3.0116
3.01982
3.02669
3.03222
3.03642
3.0393
3.04088
3.0412
3.0403
3.03821
3.03499
3.03069
3.02537
3.0191
3.01194
3.00396
2.99524
2.98583
2.97581
2.96525
2.95421
2.94277
2.93098
2.91889
2.90657
2.89406
2.8814
2.86865
2.85583
2.84296
2.83004
2.81713
2.80422
2.79127
2.77823
2.76519
2.75206
2.73876
2.72528
2.7116
2.69783
2.68408
2.66994
2.65504
2.6391
2.62185
2.60304
2.58235
2.55949
2.53412
2.50589
2.47448
2.43955
2.40079
2.35792
2.3107
2.25896
2.20259
2.14158
2.07598
2.00603
1.9321
1.85534
1.77717
1.70067
0.0957639
0.147501
0.180442
0.203254
0.2197
0.231764
0.240684
0.247346
0.252471
0.256724
0.260803
0.264863
0.269636
0.276007
0.285073
0.297817
0.315159
0.337679
0.365123
0.396284
0.429402
0.462749
0.495274
0.526882
0.558253
0.590354
0.623947
0.659439
0.696947
0.736346
0.777325
0.819476
0.862372
0.905609
0.948833
0.991753
1.03414
1.07583
1.1167
1.15669
1.19576
1.23393
1.27121
1.30764
1.34328
1.37819
1.41243
1.44607
1.47917
1.5118
1.54404
1.57593
1.60753
1.63891
1.67011
1.70119
1.73218
1.76312
1.79406
1.82503
1.85605
1.88716
1.91837
1.94971
1.98119
2.01283
2.04464
2.07663
2.1088
2.14117
2.17373
2.20648
2.23942
2.27256
2.30587
2.33937
2.37304
2.40688
2.44087
2.475
2.50927
2.54365
2.57815
2.61263
2.6471
2.68155
2.71595
2.75029
2.78452
2.81862
2.85253
2.88622
2.91965
2.95276
2.98551
3.01784
3.04971
3.08106
3.11183
3.14196
3.1714
3.20008
3.22794
3.25492
3.28095
3.30598
3.32993
3.35276
3.3744
3.39479
3.41387
3.43161
3.44795
3.46285
3.47628
3.48821
3.49861
3.50748
3.5148
3.52058
3.52483
3.52757
3.52881
3.52861
3.52699
3.52401
3.51972
3.51419
3.50747
3.49963
3.49076
3.48092
3.47018
3.45862
3.44631
3.43332
3.41974
3.40562
3.39104
3.37603
3.36066
3.345
3.32909
3.31297
3.29664
3.28013
3.26352
3.2468
3.22995
3.21294
3.1958
3.17847
3.1609
3.14306
3.12492
3.1065
3.08775
3.0684
3.04813
3.02667
3.00376
2.97911
2.95242
2.92336
2.89161
2.8568
2.8186
2.77665
2.73064
2.68029
2.62537
2.56573
2.50129
2.43209
2.35828
2.28024
2.19861
2.11478
2.03066
1.94984
0.119805
0.17715
0.213485
0.238427
0.256431
0.269729
0.279699
0.287342
0.293501
0.298994
0.304127
0.309545
0.31608
0.32467
0.336312
0.351918
0.372124
0.397051
0.426128
0.458175
0.49179
0.525836
0.559781
0.593763
0.628368
0.66428
0.701996
0.741721
0.783397
0.826775
0.871499
0.91717
0.963402
1.00985
1.05622
1.10228
1.14785
1.19278
1.237
1.28044
1.32306
1.36488
1.40589
1.44612
1.48561
1.52442
1.56257
1.60015
1.63719
1.67376
1.70991
1.74571
1.78121
1.81645
1.8515
1.8864
1.92119
1.95592
1.99063
2.02534
2.0601
2.09493
2.12986
2.16491
2.2001
2.23544
2.27095
2.30664
2.34252
2.3786
2.41487
2.45135
2.48802
2.5249
2.56197
2.59922
2.63666
2.67427
2.71205
2.74998
2.78804
2.82622
2.86451
2.90279
2.94106
2.97931
3.01751
3.05565
3.09368
3.13156
3.16925
3.20671
3.24389
3.28074
3.31721
3.35324
3.38878
3.42377
3.45816
3.49187
3.52485
3.55703
3.58834
3.61873
3.64811
3.67642
3.70359
3.72956
3.75426
3.77762
3.79958
3.82008
3.83907
3.8565
3.87233
3.88651
3.89901
3.90982
3.91891
3.92629
3.93194
3.93589
3.93815
3.93875
3.93773
3.93513
3.93101
3.92542
3.91842
3.91009
3.9005
3.88973
3.87784
3.86492
3.85104
3.83627
3.82071
3.80442
3.78747
3.7699
3.75178
3.7332
3.71422
3.69485
3.67514
3.65511
3.63481
3.61424
3.59341
3.57231
3.55092
3.52922
3.50716
3.4847
3.4618
3.43841
3.41443
3.38965
3.36381
3.33666
3.30792
3.27733
3.24459
3.20939
3.1714
3.13027
3.08569
3.03732
2.98486
2.92807
2.86675
2.80077
2.73012
2.65489
2.57535
2.49198
2.40559
2.31766
2.22999
2.14563
0.143686
0.207089
0.246804
0.274007
0.293751
0.308431
0.319575
0.328286
0.335499
0.341877
0.347869
0.354307
0.362061
0.372035
0.385104
0.401989
0.423093
0.448352
0.477207
0.508755
0.542047
0.576391
0.611525
0.647585
0.684935
0.723946
0.764836
0.807623
0.852149
0.898137
0.945259
0.993174
1.04157
1.09017
1.13874
1.1871
1.23509
1.2826
1.32955
1.37588
1.42155
1.46654
1.51084
1.55447
1.59745
1.6398
1.68156
1.72277
1.76347
1.80371
1.84353
1.883
1.92216
1.96106
1.99975
2.03827
2.07667
2.11499
2.15327
2.19155
2.22987
2.26824
2.3067
2.34528
2.384
2.42286
2.46189
2.50111
2.54051
2.58011
2.61992
2.65993
2.70014
2.74056
2.78118
2.82199
2.86299
2.90417
2.94551
2.98701
3.02864
3.07039
3.11221
3.15402
3.19583
3.23761
3.27935
3.321
3.36253
3.4039
3.44507
3.48599
3.52661
3.56688
3.60675
3.64616
3.68505
3.72337
3.76105
3.79803
3.83424
3.86962
3.90409
3.93758
3.97003
4.00135
4.03149
4.06036
4.0879
4.11403
4.13868
4.16178
4.18328
4.20312
4.22124
4.23759
4.25214
4.26485
4.27569
4.28466
4.29174
4.29693
4.30025
4.30172
4.30137
4.29923
4.29536
4.28981
4.28264
4.27391
4.26369
4.25208
4.23914
4.22494
4.20954
4.19306
4.17558
4.15716
4.13788
4.1178
4.09697
4.07548
4.05339
4.03073
4.00755
3.98388
3.95975
3.93519
3.9102
3.88477
3.85888
3.83252
3.80563
3.77817
3.75008
3.72129
3.69169
3.66108
3.62926
3.59598
3.561
3.52407
3.4849
3.44322
3.39871
3.35107
3.30001
3.24525
3.18652
3.12363
3.05643
2.98487
2.90899
2.82898
2.74517
2.65816
2.56881
2.47855
2.38889
2.30206
0.167261
0.236241
0.279221
0.308789
0.330424
0.346732
0.359292
0.369252
0.377569
0.384613
0.391253
0.398335
0.406715
0.417232
0.430657
0.447583
0.46832
0.492816
0.520677
0.551302
0.584083
0.618584
0.654619
0.69222
0.731519
0.772635
0.815587
0.860277
0.906509
0.954027
1.00255
1.05182
1.10158
1.15161
1.20174
1.25181
1.30168
1.35127
1.40049
1.44928
1.49758
1.54537
1.59262
1.63933
1.68549
1.73112
1.77623
1.82084
1.865
1.90873
1.95207
1.99507
2.03776
2.0802
2.12242
2.16448
2.2064
2.24825
2.29005
2.33183
2.37365
2.41552
2.45747
2.49953
2.54173
2.58407
2.62658
2.66927
2.71216
2.75524
2.79852
2.84201
2.88571
2.92962
2.97372
3.01802
3.06251
3.10717
3.15199
3.19696
3.24206
3.28727
3.3325
3.37772
3.42293
3.4681
3.51321
3.55821
3.60308
3.64776
3.69221
3.73639
3.78024
3.82371
3.86675
3.9093
3.9513
3.9927
4.03342
4.0734
4.11258
4.15089
4.18825
4.22459
4.25985
4.29395
4.32681
4.35835
4.3885
4.41719
4.44433
4.46986
4.4937
4.5158
4.53608
4.5545
4.571
4.58553
4.59807
4.60859
4.61707
4.6235
4.62789
4.63024
4.63058
4.62895
4.62537
4.61991
4.61261
4.60352
4.59273
4.58033
4.56637
4.55095
4.53411
4.51597
4.49659
4.47606
4.45444
4.43181
4.40823
4.38377
4.35848
4.33243
4.30566
4.27819
4.25006
4.2213
4.1919
4.16187
4.13119
4.09983
4.06774
4.03487
4.00115
3.9665
3.9308
3.8939
3.8556
3.81569
3.77395
3.73015
3.68404
3.63538
3.5839
3.52934
3.47147
3.41006
3.34493
3.27594
3.20302
3.12622
3.04565
2.96158
2.87444
2.78488
2.69378
2.60243
2.51195
2.4238
0.189239
0.262876
0.309296
0.341519
0.365333
0.383491
0.397646
0.40899
0.418094
0.4258
0.43297
0.440439
0.449029
0.459529
0.472645
0.488929
0.508698
0.531998
0.558623
0.588211
0.620367
0.654773
0.691232
0.729654
0.769998
0.812211
0.856193
0.901791
0.948804
0.997013
1.04619
1.09613
1.14665
1.19756
1.24872
1.30002
1.35133
1.40256
1.45364
1.50449
1.55506
1.6053
1.65517
1.70464
1.75371
1.80236
1.8506
1.89842
1.94586
1.99293
2.03966
2.08608
2.13222
2.17813
2.22384
2.2694
2.31483
2.36019
2.4055
2.4508
2.49613
2.54151
2.58698
2.63255
2.67826
2.72411
2.77013
2.81633
2.86272
2.90931
2.95609
3.00308
3.05028
3.09768
3.14527
3.19306
3.24102
3.28915
3.33743
3.38585
3.43437
3.48299
3.53158
3.58015
3.62868
3.67715
3.72553
3.77377
3.82184
3.86968
3.91726
3.96453
4.01142
4.0579
4.10389
4.14936
4.19423
4.23845
4.28195
4.32468
4.36655
4.40751
4.44748
4.4864
4.52418
4.56075
4.59605
4.62999
4.6625
4.69348
4.72287
4.75059
4.77656
4.80071
4.82298
4.8433
4.86159
4.87782
4.89195
4.90393
4.91374
4.92135
4.92676
4.92997
4.93099
4.92984
4.92657
4.9212
4.9138
4.90441
4.8931
4.87995
4.86502
4.8484
4.83014
4.81033
4.78906
4.7664
4.74243
4.7172
4.69081
4.66329
4.63473
4.60517
4.57466
4.54323
4.51091
4.47773
4.44369
4.40878
4.37299
4.33628
4.29861
4.25992
4.22013
4.17916
4.1369
4.0932
4.04791
4.00083
3.95177
3.90054
3.84693
3.79073
3.73173
3.66975
3.60461
3.53617
3.46432
3.38903
3.31033
3.22835
3.14333
3.05563
2.96574
2.87436
2.78234
2.69081
2.60049
2.51219
0.208649
0.28658
0.336296
0.371159
0.39719
0.41725
0.433038
0.44552
0.455514
0.46394
0.471641
0.479427
0.488085
0.498368
0.510952
0.52639
0.54505
0.567086
0.592449
0.620941
0.652292
0.686238
0.722552
0.761054
0.80159
0.844011
0.888155
0.933845
0.980898
1.02913
1.07836
1.12842
1.17918
1.23049
1.28224
1.33433
1.38665
1.43912
1.49166
1.5442
1.59667
1.64902
1.70118
1.75313
1.80483
1.85626
1.9074
1.95824
2.0088
2.05906
2.10906
2.15882
2.20835
2.25769
2.30686
2.35591
2.40486
2.45375
2.50261
2.55147
2.60037
2.64933
2.69838
2.74753
2.79682
2.84626
2.89586
2.94564
2.9956
3.04576
3.09612
3.14667
3.19742
3.24836
3.29948
3.35079
3.40225
3.45387
3.50562
3.55749
3.60944
3.66141
3.71334
3.7652
3.817
3.86869
3.92025
3.97162
4.02277
4.07364
4.12419
4.17437
4.22411
4.27338
4.3221
4.37024
4.41772
4.46448
4.51048
4.55564
4.5999
4.64319
4.68544
4.72658
4.76654
4.80525
4.84264
4.87864
4.91317
4.94613
4.97746
5.00705
5.03486
5.0608
5.0848
5.10679
5.12667
5.1444
5.15993
5.17323
5.18425
5.19292
5.19926
5.20325
5.20491
5.20423
5.20125
5.19599
5.18851
5.17883
5.16702
5.15315
5.13727
5.11946
5.0998
5.07834
5.05518
5.03038
5.00402
4.97617
4.94689
4.91626
4.88433
4.85114
4.81676
4.78121
4.74452
4.70671
4.66778
4.62773
4.58654
4.54416
4.50055
4.45565
4.40938
4.36165
4.31237
4.26141
4.20861
4.15384
4.09692
4.03769
3.97599
3.91168
3.8446
3.77464
3.70171
3.62576
3.54679
3.46488
3.38018
3.29294
3.2035
3.11234
3.02003
2.92729
2.83494
2.74394
2.65462
2.5673
0.225227
0.306827
0.359459
0.396727
0.424826
0.446691
0.463896
0.477476
0.48846
0.497726
0.506081
0.5143
0.523134
0.533303
0.545466
0.560185
0.577874
0.598771
0.622939
0.650289
0.680634
0.713742
0.749371
0.787296
0.827304
0.869202
0.912802
0.957931
1.00442
1.05212
1.10089
1.15061
1.20115
1.25243
1.30435
1.35682
1.40975
1.46306
1.51668
1.57053
1.62455
1.67865
1.73279
1.78692
1.84097
1.89493
1.94875
2.00242
2.05592
2.10925
2.16242
2.21543
2.26829
2.32102
2.37365
2.4262
2.4787
2.53117
2.58364
2.63614
2.68869
2.74131
2.79403
2.84687
2.89984
2.95296
3.00625
3.0597
3.11334
3.16716
3.22117
3.27536
3.32973
3.38428
3.43899
3.49387
3.54888
3.60401
3.65925
3.71458
3.76995
3.82525
3.88047
3.93558
3.99058
4.04541
4.10004
4.15442
4.20851
4.26225
4.31559
4.36847
4.42084
4.47265
4.52384
4.57435
4.62413
4.67312
4.72126
4.7685
4.81478
4.86001
4.90414
4.9471
4.98883
5.02926
5.06833
5.10597
5.14211
5.17666
5.20952
5.24062
5.26989
5.29727
5.32268
5.34604
5.36722
5.38619
5.40289
5.41728
5.4293
5.43889
5.44605
5.45074
5.45296
5.45271
5.45
5.44483
5.43726
5.4273
5.415
5.40043
5.38363
5.36466
5.3436
5.32051
5.29546
5.26853
5.23977
5.20927
5.17709
5.14328
5.1079
5.07101
5.03264
4.99284
4.95162
4.90899
4.86497
4.81954
4.77268
4.72434
4.67447
4.62301
4.56989
4.51502
4.4583
4.39962
4.33886
4.2759
4.2106
4.14284
4.07251
3.99953
3.92381
3.84532
3.76407
3.68012
3.59359
3.50467
3.41367
3.32095
3.227
3.1324
3.03781
2.944
2.85171
2.76176
2.67419
2.58889
0.238761
0.323268
0.378275
0.417557
0.447426
0.470745
0.489147
0.5039
0.515987
0.526251
0.53546
0.544348
0.553625
0.563975
0.576031
0.590349
0.607363
0.627362
0.650476
0.676691
0.705881
0.73785
0.772368
0.809199
0.84812
0.888924
0.931428
0.975469
1.0209
1.06761
1.11548
1.16443
1.21436
1.2652
1.31689
1.36934
1.42248
1.47625
1.53058
1.58537
1.64057
1.6961
1.7519
1.80789
1.86403
1.92027
1.97655
2.03285
2.08915
2.14541
2.20164
2.25783
2.31397
2.37008
2.42617
2.48225
2.53834
2.59445
2.65061
2.70683
2.76312
2.81952
2.87603
2.93266
2.98943
3.04636
3.10344
3.16068
3.2181
3.27568
3.33343
3.39134
3.44942
3.50764
3.566
3.62448
3.68307
3.74175
3.80049
3.85927
3.918
3.97659
4.03504
4.09332
4.15141
4.20927
4.26684
4.32408
4.38093
4.43733
4.49323
4.54856
4.60328
4.65733
4.71065
4.7632
4.81491
4.86573
4.91561
4.9645
5.01235
5.05908
5.10462
5.14892
5.19192
5.23357
5.27382
5.3126
5.34987
5.38555
5.41947
5.4516
5.48189
5.51027
5.53665
5.56096
5.5831
5.603
5.6206
5.63584
5.64866
5.659
5.66682
5.67209
5.67477
5.67487
5.67237
5.66727
5.65958
5.64934
5.63658
5.62132
5.60363
5.58354
5.56112
5.53643
5.50953
5.48049
5.44936
5.41621
5.38111
5.3441
5.30524
5.26458
5.22216
5.178
5.13213
5.08455
5.03527
4.98426
4.93151
4.87696
4.82057
4.76227
4.70197
4.63961
4.57509
4.50832
4.43919
4.3676
4.29347
4.2167
4.13726
4.0551
3.97023
3.88271
3.79264
3.70021
3.60566
3.50934
3.41169
3.31323
3.21459
3.11648
3.01964
2.92488
2.83292
2.74443
2.65923
2.57689
0.249181
0.335792
0.392555
0.433359
0.464465
0.488892
0.508456
0.524395
0.537663
0.549069
0.559343
0.569176
0.579228
0.590136
0.602491
0.616817
0.633538
0.652957
0.67524
0.700419
0.728418
0.759085
0.792222
0.827614
0.865055
0.904354
0.945347
0.987894
1.03188
1.07721
1.12381
1.17161
1.22055
1.27059
1.32167
1.37373
1.42672
1.48058
1.53524
1.59063
1.64667
1.7033
1.76043
1.81801
1.87597
1.93424
1.99278
2.05153
2.11046
2.16953
2.22873
2.28803
2.34743
2.4069
2.46647
2.52611
2.58585
2.64568
2.70561
2.76565
2.82581
2.88609
2.9465
3.00705
3.06775
3.12859
3.18958
3.25073
3.31202
3.37345
3.43502
3.49673
3.55856
3.6205
3.68253
3.74464
3.80682
3.86902
3.93123
3.99341
4.05539
4.11718
4.17876
4.24008
4.30111
4.3618
4.42211
4.48198
4.54136
4.60015
4.6583
4.71576
4.77248
4.82839
4.88345
4.9376
4.9908
5.04298
5.09411
5.14414
5.19304
5.24077
5.28716
5.33223
5.37592
5.41822
5.45905
5.49839
5.53616
5.57231
5.60674
5.63939
5.6702
5.69909
5.72601
5.75086
5.77356
5.79403
5.81221
5.82801
5.84138
5.85224
5.86054
5.86622
5.86926
5.86961
5.86725
5.86217
5.85437
5.84386
5.83064
5.81474
5.7962
5.77505
5.75134
5.72512
5.69643
5.66534
5.63189
5.59614
5.55815
5.51797
5.47564
5.4312
5.38469
5.33612
5.28553
5.23291
5.17825
5.12153
5.06273
5.0018
4.93867
4.87329
4.80558
4.73546
4.66285
4.58766
4.50982
4.42926
4.34592
4.25975
4.17077
4.07901
3.98456
3.88757
3.78825
3.68692
3.58397
3.47989
3.37527
3.27081
3.16729
3.06554
2.96641
2.87076
2.77929
2.69256
2.61024
2.53166
0.256587
0.34455
0.402405
0.444047
0.476002
0.501377
0.521985
0.539052
0.553517
0.566161
0.577679
0.58871
0.599862
0.611707
0.624777
0.639541
0.656388
0.675602
0.697355
0.721706
0.748619
0.777985
0.809649
0.843439
0.879184
0.916729
0.95594
0.99671
1.03896
1.08261
1.12764
1.17398
1.22162
1.27053
1.32067
1.37201
1.42451
1.47812
1.53277
1.58842
1.64499
1.70241
1.7606
1.8195
1.87903
1.93912
1.99971
2.06075
2.12219
2.18397
2.24606
2.30843
2.37104
2.43389
2.49695
2.56021
2.62366
2.68729
2.75109
2.81506
2.87919
2.94347
3.00791
3.07249
3.13722
3.20208
3.26707
3.33219
3.39743
3.46277
3.52821
3.59374
3.65933
3.72498
3.79066
3.85637
3.92206
3.98772
4.05332
4.11867
4.18377
4.24858
4.31308
4.37721
4.44092
4.50418
4.56692
4.6291
4.69067
4.75148
4.81149
4.87065
4.92891
4.98622
5.04251
5.09775
5.15189
5.20487
5.25666
5.30721
5.3565
5.40448
5.45107
5.49626
5.54001
5.5823
5.62308
5.66233
5.69999
5.73602
5.77034
5.80292
5.83368
5.86257
5.88951
5.91443
5.93725
5.95789
5.97627
5.99231
6.00594
6.01706
6.02563
6.03156
6.03481
6.03531
6.03304
6.02795
6.02003
6.00926
5.99563
5.97916
5.95985
5.93774
5.91283
5.88518
5.85481
5.82177
5.78611
5.74786
5.70708
5.66379
5.61805
5.56988
5.51931
5.46635
5.41103
5.35333
5.29325
5.23075
5.16581
5.09838
5.02839
4.95578
4.88047
4.8024
4.72149
4.63767
4.55088
4.46107
4.36824
4.27238
4.17355
4.07187
3.96751
3.86072
3.75183
3.64129
3.52964
3.41752
3.3057
3.19504
3.08648
2.98099
2.87954
2.78302
2.69214
2.60741
2.52836
2.45416
0.261223
0.349711
0.407997
0.450144
0.482691
0.508781
0.530247
0.548325
0.563947
0.577872
0.590755
0.603187
0.615709
0.628825
0.64299
0.658604
0.675996
0.695411
0.717004
0.74084
0.766909
0.79514
0.825425
0.857641
0.891662
0.927379
0.964698
1.00355
1.04389
1.0857
1.12896
1.17363
1.21973
1.26725
1.31619
1.36654
1.41826
1.47134
1.52572
1.58136
1.63819
1.69614
1.75516
1.81515
1.87605
1.93778
2.00028
2.06348
2.12731
2.19172
2.25666
2.32207
2.38791
2.45414
2.52074
2.58767
2.6549
2.7224
2.79017
2.85817
2.92637
2.99474
3.06328
3.13197
3.20079
3.26973
3.33877
3.40789
3.47708
3.54631
3.61558
3.68487
3.75415
3.82341
3.89263
3.96177
4.03082
4.09975
4.16839
4.23669
4.30462
4.37214
4.43921
4.50578
4.57179
4.63718
4.70189
4.76586
4.82903
4.89131
4.95262
5.01292
5.07214
5.13024
5.18715
5.24285
5.29727
5.35038
5.40215
5.45255
5.50154
5.54909
5.59517
5.63977
5.68285
5.72442
5.76444
5.80289
5.83976
5.87499
5.90856
5.94042
5.97053
5.99882
6.02524
6.04972
6.07219
6.09256
6.11074
6.12667
6.14024
6.15138
6.15999
6.166
6.16932
6.1699
6.16766
6.16255
6.15453
6.14356
6.12961
6.11267
6.09272
6.06977
6.04383
6.01491
5.98303
5.94822
5.9105
5.86991
5.82648
5.78024
5.73122
5.67943
5.6249
5.56764
5.50765
5.44492
5.37944
5.31117
5.24008
5.16611
5.08921
5.0093
4.92632
4.8402
4.75087
4.65828
4.56239
4.46319
4.36069
4.25496
4.14611
4.03432
3.91986
3.80308
3.68444
3.56452
3.444
3.32372
3.20459
3.08766
2.97403
2.8648
2.76105
2.66372
2.57354
2.49096
2.41547
2.34612
0.263148
0.351788
0.410186
0.452496
0.485322
0.511858
0.533971
0.552916
0.569622
0.584826
0.599146
0.61312
0.627223
0.641881
0.657467
0.674302
0.692642
0.712678
0.73453
0.758253
0.783846
0.811268
0.840451
0.871317
0.903793
0.937817
0.97333
1.0103
1.04875
1.0887
1.13019
1.17312
1.21756
1.26357
1.31116
1.36034
1.41113
1.4635
1.51743
1.57288
1.62979
1.68812
1.7478
1.80874
1.87089
1.93416
1.99848
2.06376
2.12994
2.19695
2.26471
2.33316
2.40224
2.4719
2.54207
2.61271
2.68376
2.75519
2.82695
2.89899
2.97127
3.04375
3.1164
3.18918
3.26207
3.33503
3.40804
3.48106
3.55407
3.62705
3.69997
3.77281
3.84554
3.91815
3.99061
4.06288
4.13495
4.20663
4.27788
4.34867
4.41894
4.48865
4.55775
4.62617
4.69387
4.76077
4.82681
4.89193
4.95604
5.01908
5.08099
5.14169
5.20114
5.25927
5.31605
5.37143
5.42537
5.47783
5.5288
5.57824
5.62614
5.67249
5.71727
5.76048
5.80212
5.84219
5.88068
5.9176
5.95293
5.98667
6.01879
6.04928
6.07809
6.10519
6.13052
6.15403
6.17566
6.19531
6.21292
6.22838
6.24161
6.25251
6.26097
6.26691
6.27022
6.27081
6.2686
6.26351
6.25546
6.24439
6.23025
6.213
6.1926
6.16903
6.14227
6.11232
6.07917
6.04282
6.0033
5.96061
5.91477
5.86579
5.81369
5.75849
5.70018
5.63878
5.57427
5.50664
5.43587
5.36192
5.28476
5.20432
5.12054
5.03336
4.94272
4.84855
4.75079
4.64942
4.54441
4.43577
4.32358
4.20793
4.089
3.96707
3.84248
3.7157
3.5873
3.45802
3.32869
3.20031
3.07399
2.95091
2.83235
2.71955
2.61365
2.51568
2.42634
2.34607
2.27434
2.21014
0.263201
0.351617
0.40973
0.451847
0.484646
0.511382
0.533964
0.553667
0.571416
0.587928
0.603782
0.619457
0.635362
0.651842
0.669186
0.687629
0.707349
0.72847
0.751068
0.775173
0.800783
0.827873
0.856405
0.886344
0.917659
0.950384
0.984403
1.01971
1.05639
1.09452
1.13416
1.17536
1.21819
1.26272
1.30898
1.35704
1.4069
1.45858
1.51206
1.56733
1.62435
1.68307
1.74344
1.80537
1.86881
1.93367
1.99987
2.06732
2.13593
2.20563
2.27632
2.34792
2.42035
2.49352
2.56737
2.64181
2.71677
2.79219
2.86799
2.9441
3.02047
3.09704
3.17375
3.25055
3.32739
3.40422
3.481
3.5577
3.63427
3.71069
3.78692
3.86293
3.9387
4.0142
4.08942
4.16425
4.23857
4.31235
4.38553
4.45807
4.52992
4.60102
4.67132
4.74076
4.80927
4.87678
4.94324
5.00856
5.07269
5.13556
5.19709
5.25723
5.31593
5.37314
5.4288
5.48289
5.53538
5.58623
5.63543
5.68298
5.72886
5.77308
5.81565
5.85657
5.89588
5.93358
5.9697
6.00426
6.03726
6.06874
6.09867
6.12708
6.15393
6.17921
6.20288
6.22489
6.24519
6.2637
6.28035
6.29503
6.30765
6.31809
6.32626
6.33202
6.33527
6.33589
6.33376
6.32877
6.32083
6.30985
6.29574
6.27842
6.25783
6.23391
6.20663
6.17594
6.14182
6.10426
6.06323
6.01874
5.97077
5.91934
5.86443
5.80605
5.7442
5.67886
5.61002
5.53766
5.46176
5.38226
5.29914
5.21232
5.12176
5.02739
4.92915
4.82698
4.72085
4.61074
4.49666
4.37865
4.25682
4.13134
4.00245
3.87049
3.73592
3.59932
3.4614
3.32302
3.18519
3.04907
2.91594
2.78715
2.66411
2.54818
2.44057
2.34232
2.25414
2.17641
2.10861
2.04975
0.261843
0.349627
0.407081
0.448679
0.481186
0.507919
0.530826
0.551195
0.569941
0.587757
0.60518
0.622639
0.640477
0.658969
0.678325
0.698703
0.720208
0.742903
0.766815
0.791948
0.818289
0.845822
0.874532
0.90441
0.935272
0.967212
1.00028
1.03454
1.0701
1.10705
1.14551
1.18558
1.22734
1.27091
1.31634
1.36372
1.41308
1.46445
1.51785
1.57326
1.63068
1.69005
1.75132
1.81444
1.87933
1.94591
2.01407
2.08375
2.15482
2.22719
2.30075
2.37541
2.45105
2.52757
2.60487
2.68285
2.76142
2.84047
2.91992
2.99967
3.07965
3.15977
3.23996
3.32015
3.40027
3.48026
3.56007
3.63965
3.71896
3.79794
3.87658
3.95483
4.03268
4.11006
4.18683
4.26296
4.3384
4.41311
4.48702
4.56011
4.6323
4.70355
4.77379
4.84298
4.91103
4.9779
5.04352
5.10781
5.17072
5.23219
5.29215
5.35055
5.40734
5.46247
5.51591
5.56763
5.6176
5.6658
5.71225
5.75692
5.79984
5.84103
5.8805
5.9183
5.95445
5.98901
6.022
6.05348
6.08348
6.11204
6.13918
6.16494
6.1893
6.21228
6.23384
6.25397
6.2726
6.28969
6.30514
6.31886
6.33074
6.34068
6.34854
6.35418
6.35747
6.35826
6.35641
6.3518
6.34427
6.33371
6.31999
6.30301
6.28266
6.25886
6.23153
6.2006
6.16602
6.12774
6.08572
6.03993
5.99034
5.93694
5.8797
5.81862
5.75367
5.68483
5.61208
5.5354
5.45474