/*--------------------------------*- C++ -*----------------------------------*\
  =========                 |
  \\      /  F ield         | OpenFOAM: The Open Source CFD Toolbox
   \\    /   O peration     | Website:  https://openfoam.org
    \\  /    A nd           | Version:  9
     \\/     M anipulation  |
\*---------------------------------------------------------------------------*/
FoamFile
{
    format      ascii;
    class       volScalarField;
    location    "0.07";
    object      p;
}
// * * * * * * * * * * * * * * * * * * * * * * * * * * * * * * * * * * * * * //

dimensions      [0 2 -2 0 0 0 0];

internalField   nonuniform List<scalar> 
12225
(
-1.69362
-3.97623
-5.13778
-5.44452
-5.61092
-5.76815
-5.88961
-5.97411
-6.03882
-6.09367
-6.14002
-6.17706
-6.20413
-6.21865
-6.21706
-6.18102
-6.12094
-5.89269
-5.16116
-5.86289
-5.95219
-5.81568
-5.77373
-5.83858
-5.91624
-5.97822
-6.03039
-6.0777
-6.11956
-6.15421
-6.18051
-6.19592
-6.19862
-6.17497
-6.14674
-6.05498
-5.36596
-5.26262
-5.41849
-5.53923
-5.64469
-5.76459
-5.86984
-5.9487
-6.01117
-6.06511
-6.11183
-6.15057
-6.18082
-6.20101
-6.21089
-6.20398
-6.20436
-6.20631
-5.22873
-5.15021
-5.42537
-5.60272
-5.6953
-5.79009
-5.88224
-5.9561
-6.01612
-6.06867
-6.11492
-6.1541
-6.18586
-6.20959
-6.22632
-6.23553
-6.25809
-6.30621
-5.23581
-5.25269
-5.49188
-5.64042
-5.71464
-5.79705
-5.88379
-5.9563
-6.0159
-6.06829
-6.1149
-6.15526
-6.18938
-6.21753
-6.24182
-6.26504
-6.30341
-6.37058
-5.29766
-5.33976
-5.51668
-5.64608
-5.72231
-5.80263
-5.88618
-5.95764
-6.01716
-6.06968
-6.11691
-6.15871
-6.19542
-6.22805
-6.25927
-6.29325
-6.34185
-6.41614
-5.35761
-5.39679
-5.53235
-5.65329
-5.73399
-5.8116
-5.89067
-5.96036
-6.01964
-6.07233
-6.12021
-6.16351
-6.20284
-6.23964
-6.27677
-6.31849
-6.37318
-6.44835
-5.41104
-5.44561
-5.55512
-5.66653
-5.7475
-5.82142
-5.89594
-5.96372
-6.0227
-6.07558
-6.12416
-6.16896
-6.2108
-6.25128
-6.29312
-6.34004
-6.39768
-6.47036
-5.46118
-5.49261
-5.58265
-5.68232
-5.76092
-5.83156
-5.90211
-5.96785
-6.02637
-6.07939
-6.12863
-6.17483
-6.21889
-6.26239
-6.30769
-6.35771
-6.41604
-6.48474
-5.50898
-5.53732
-5.61181
-5.69967
-5.7747
-5.84244
-5.90941
-5.97295
-6.03076
-6.08381
-6.13359
-6.18097
-6.22685
-6.27262
-6.3202
-6.3717
-6.42923
-6.49349
-5.55427
-5.5793
-5.64147
-5.7186
-5.78929
-5.85412
-5.91778
-5.97902
-6.03591
-6.08883
-6.13899
-6.18726
-6.23446
-6.28177
-6.3306
-6.38238
-6.43824
-6.4981
-5.59335
-5.61546
-5.66874
-5.73718
-5.8034
-5.86543
-5.92627
-5.98541
-6.04128
-6.09392
-6.14424
-6.19301
-6.24099
-6.28907
-6.33831
-6.38959
-6.44352
-6.49965
-5.6297
-5.64929
-5.69534
-5.75616
-5.81784
-5.87703
-5.93526
-5.99234
-6.0471
-6.09931
-6.1496
-6.19862
-6.24698
-6.29537
-6.34449
-6.39486
-6.4467
-6.49944
-5.66808
-5.68521
-5.72462
-5.77804
-5.83469
-5.89059
-5.94603
-6.00087
-6.05424
-6.10577
-6.15578
-6.20474
-6.25312
-6.30135
-6.34982
-6.39877
-6.44819
-6.4975
-5.70731
-5.72209
-5.75566
-5.80228
-5.85371
-5.90599
-5.9585
-6.01096
-6.06268
-6.11321
-6.16261
-6.21114
-6.25906
-6.30659
-6.35389
-6.40099
-6.44777
-6.49375
-5.74552
-5.75819
-5.78691
-5.82763
-5.87408
-5.92264
-5.97219
-6.02222
-6.0721
-6.12132
-6.16974
-6.21738
-6.26434
-6.31067
-6.35635
-6.40132
-6.44542
-6.48829
-5.77988
-5.79087
-5.81585
-5.85188
-5.89406
-5.93921
-5.98599
-6.03369
-6.08167
-6.12936
-6.17647
-6.22285
-6.26844
-6.31318
-6.35697
-6.39968
-6.4412
-6.48126
-5.80605
-5.81591
-5.83844
-5.87136
-5.91056
-5.95318
-5.99782
-6.04364
-6.08995
-6.13615
-6.18185
-6.2268
-6.27083
-6.31383
-6.35566
-6.39622
-6.43538
-6.47302
-5.81705
-5.82653
-5.84828
-5.88026
-5.91856
-5.96033
-6.00411
-6.04905
-6.09444
-6.13967
-6.18429
-6.228
-6.27065
-6.31208
-6.35219
-6.39089
-6.42811
-6.4638
-5.80425
-5.81447
-5.83784
-5.87205
-5.91261
-5.95615
-6.00114
-6.04692
-6.09286
-6.13831
-6.18284
-6.2262
-6.26826
-6.30891
-6.34808
-6.38572
-6.42179
-6.45631
-5.77954
-5.79092
-5.81713
-5.85551
-5.90012
-5.94672
-5.99399
-6.04159
-6.08891
-6.13523
-6.1802
-6.22371
-6.2657
-6.30609
-6.34485
-6.38197
-6.41745
-6.45134
-5.74569
-5.75827
-5.78876
-5.83394
-5.88435
-5.93457
-5.98458
-6.03473
-6.08405
-6.13166
-6.17736
-6.22128
-6.26342
-6.30378
-6.34234
-6.37917
-6.4143
-6.44779
-5.70587
-5.71868
-5.75453
-5.80985
-5.86792
-5.92205
-5.97493
-6.0278
-6.07921
-6.12815
-6.17472
-6.2192
-6.26166
-6.3021
-6.34061
-6.37729
-6.41221
-6.44547
-5.66259
-5.67437
-5.71725
-5.78462
-5.85028
-5.90907
-5.96631
-6.02248
-6.07563
-6.12547
-6.17269
-6.21765
-6.26036
-6.30086
-6.33931
-6.37586
-6.41061
-6.44367
-5.61612
-5.6241
-5.68564
-5.7662
-5.83231
-5.89315
-5.95638
-6.01745
-6.07285
-6.12366
-6.17156
-6.21699
-6.2599
-6.30041
-6.33877
-6.37517
-6.40977
-6.44272
-5.56843
-5.54501
-5.65632
-5.76601
-5.82756
-5.88283
-5.9476
-6.01144
-6.06835
-6.1201
-6.16882
-6.21483
-6.25805
-6.29869
-6.33707
-6.37344
-6.40798
-6.44084
-5.55928
-5.41519
-5.57476
-5.74172
-5.82718
-5.88935
-5.95547
-6.0181
-6.07345
-6.12431
-6.17253
-6.21809
-6.26084
-6.30103
-6.33897
-6.37493
-6.40914
-6.44178
-5.70477
-5.42117
-5.45642
-5.58765
-5.7082
-5.81636
-5.91173
-5.98896
-6.0528
-6.10973
-6.16226
-6.21072
-6.25542
-6.29697
-6.33586
-6.37248
-6.40732
-6.44099
-5.64161
-6.14152
-6.15215
-5.99368
-5.9137
-5.93901
-5.99444
-6.0453
-6.09198
-6.13823
-6.18365
-6.22693
-6.26769
-6.30612
-6.34239
-6.37659
-6.40896
-6.44136
-2.30297
-4.17375
-5.24553
-5.53935
-5.67514
-5.81302
-5.92622
-6.00765
-6.07218
-6.12987
-6.18293
-6.23143
-6.27592
-6.31711
-6.35542
-6.39082
-6.42298
-6.4501
-7.72372
-7.71233
-7.70368
-7.69979
-7.69933
-7.70167
-7.70633
-7.71255
-7.71929
-7.72532
-7.72945
-7.73097
-7.7301
-7.72703
-7.722
-7.71542
-7.70804
-7.701
-7.69561
-7.68847
-7.67921
-7.67636
-7.68029
-7.6865
-7.69496
-7.70626
-7.72231
-7.74411
-7.77225
-7.80731
-7.84949
-7.89849
-7.95354
-8.01351
-8.07701
-8.14259
-8.20881
-8.27439
-8.33826
-8.39958
-8.45772
-8.51227
-8.563
-8.60979
-8.65264
-8.69161
-8.7268
-8.75833
-8.78634
-8.81093
-8.83224
-8.85036
-8.86535
-8.87729
-8.88621
-8.89212
-8.89502
-8.8949
-8.8917
-8.88538
-8.87586
-8.86306
-8.84686
-8.82716
-8.80381
-8.77669
-8.74564
-8.71048
-8.67105
-8.62716
-8.57861
-8.52521
-8.46674
-8.40299
-8.33374
-8.25877
-8.17786
-8.09079
-7.99733
-7.89728
-7.79047
-7.67675
-7.55592
-7.4277
-7.29197
-7.14809
-6.99608
-6.83589
-6.66744
-6.49068
-6.30554
-6.112
-5.91005
-5.69971
-5.48107
-5.25421
-5.01927
-4.77643
-4.52591
-4.26797
-4.0029
-3.73104
-3.45278
-3.16854
-2.87878
-2.584
-2.28473
-1.98155
-1.67505
-1.36585
-1.05461
-0.741986
-0.428654
-0.115298
0.197401
0.508767
0.818138
1.12487
1.42836
1.72801
2.0233
2.31374
2.59889
2.87837
3.15189
3.4192
3.68015
3.93465
4.18271
4.42441
4.65992
4.88952
5.11355
5.33246
5.54676
5.75707
5.9641
6.16862
6.37148
6.57361
6.77601
6.97972
7.18584
7.39551
7.6099
7.83018
8.05753
8.2931
8.538
8.79327
9.05989
9.33869
9.63037
9.93546
10.2542
10.5866
10.9321
11.2898
11.659
12.0382
12.4255
12.8186
13.2146
13.6102
14.0016
14.3847
14.755
15.1081
15.4395
15.745
16.0209
16.2646
16.4745
16.6509
16.7966
16.9176
17.0281
17.1491
17.3565
17.6808
-7.73048
-7.72136
-7.71543
-7.71531
-7.71939
-7.72572
-7.73298
-7.73996
-7.74541
-7.74838
-7.74839
-7.74534
-7.73894
-7.72959
-7.71779
-7.70413
-7.68946
-7.67495
-7.66145
-7.64872
-7.639
-7.63359
-7.63194
-7.63273
-7.63586
-7.6444
-7.65974
-7.68168
-7.7111
-7.74905
-7.79552
-7.84978
-7.91049
-7.97599
-8.04447
-8.11418
-8.18358
-8.25141
-8.31667
-8.37869
-8.43701
-8.49137
-8.54168
-8.58793
-8.6302
-8.66861
-8.70329
-8.73438
-8.76203
-8.78637
-8.8075
-8.82553
-8.84051
-8.85252
-8.86158
-8.8677
-8.87088
-8.87111
-8.86832
-8.86248
-8.85351
-8.84131
-8.8258
-8.80684
-8.78431
-8.75808
-8.72799
-8.69387
-8.65555
-8.61285
-8.56558
-8.51353
-8.4565
-8.39429
-8.32666
-8.2534
-8.17428
-8.08907
-7.99756
-7.8995
-7.79466
-7.6828
-7.56369
-7.43712
-7.30255
-7.16044
-7.01054
-6.85263
-6.68656
-6.51222
-6.32955
-6.13849
-5.93903
-5.73121
-5.51506
-5.29068
-5.0582
-4.81778
-4.56963
-4.31399
-4.05115
-3.78144
-3.50522
-3.22291
-2.93495
-2.64183
-2.34408
-2.04224
-1.73692
-1.42872
-1.11828
-0.806267
-0.493346
-0.180198
0.132494
0.444054
0.753813
1.06112
1.36536
1.66594
1.96229
2.25393
2.54039
2.82127
3.09626
3.36508
3.62755
3.88356
4.13309
4.37618
4.613
4.84377
5.06882
5.28855
5.50349
5.7142
5.92137
6.12576
6.32821
6.52961
6.73096
6.93328
7.13767
7.34526
7.5572
7.77468
7.99885
8.23089
8.47191
8.72296
8.98502
9.25896
9.54549
9.84514
10.1583
10.4849
10.8243
11.176
11.5391
11.9122
12.2935
12.6809
13.0714
13.462
13.8489
14.2281
14.5954
14.9465
15.2769
15.5826
15.8601
16.1068
16.3212
16.5036
16.6568
16.7868
16.9067
17.0333
17.2161
17.4605
-7.74477
-7.73679
-7.73219
-7.73323
-7.73793
-7.74416
-7.75055
-7.75609
-7.75986
-7.76115
-7.75951
-7.75475
-7.74672
-7.73548
-7.72131
-7.70475
-7.68667
-7.66824
-7.65058
-7.6348
-7.6221
-7.61419
-7.61061
-7.61127
-7.61643
-7.62792
-7.64737
-7.67497
-7.71081
-7.75458
-7.80543
-7.86215
-7.92333
-7.98747
-8.05317
-8.11914
-8.1843
-8.24775
-8.30882
-8.367
-8.42195
-8.47344
-8.52137
-8.5657
-8.60645
-8.64368
-8.67747
-8.70793
-8.73513
-8.75919
-8.78017
-8.79815
-8.81319
-8.82533
-8.83459
-8.84098
-8.8445
-8.8451
-8.84276
-8.83742
-8.82901
-8.81743
-8.80259
-8.78438
-8.76266
-8.73731
-8.70817
-8.67508
-8.63786
-8.59634
-8.55033
-8.49964
-8.44404
-8.38334
-8.31731
-8.24574
-8.16841
-8.08507
-7.9955
-7.89948
-7.79677
-7.68711
-7.57025
-7.44605
-7.31423
-7.17477
-7.0275
-6.87226
-6.70892
-6.53736
-6.35751
-6.1693
-5.97273
-5.76779
-5.55453
-5.33304
-5.10343
-4.86584
-4.62047
-4.36756
-4.10738
-3.84023
-3.56647
-3.2865
-3.00074
-2.70968
-2.41382
-2.1137
-1.8099
-1.50302
-1.19368
-0.882553
-0.570286
-0.257561
0.0549445
0.36655
0.676585
0.984394
1.28934
1.59082
1.88827
2.18116
2.46902
2.75141
3.028
3.29847
3.56262
3.8203
4.07146
4.31611
4.55438
4.78645
5.01262
5.23327
5.44888
5.65999
5.86727
6.07144
6.27331
6.47379
6.67381
6.87441
7.07667
7.28169
7.49065
7.70469
7.92501
8.15275
8.38905
8.63495
8.89143
9.15939
9.43953
9.73238
10.0383
10.3573
10.6892
11.0335
11.3893
11.7553
12.1297
12.5105
12.8948
13.2798
13.6618
14.037
14.4012
14.7503
15.0801
15.3866
15.6665
15.917
16.137
16.3265
16.4882
16.6275
16.7557
16.8843
17.0485
17.2137
-7.76217
-7.75852
-7.75659
-7.75865
-7.76312
-7.76821
-7.77282
-7.77614
-7.77748
-7.77633
-7.77233
-7.76526
-7.75509
-7.74192
-7.72607
-7.7081
-7.68893
-7.66982
-7.65209
-7.63696
-7.62565
-7.61913
-7.6179
-7.62234
-7.63303
-7.6506
-7.67565
-7.70818
-7.74779
-7.79371
-7.84498
-7.90047
-7.95902
-8.01949
-8.08082
-8.14208
-8.20244
-8.26123
-8.31792
-8.37208
-8.42342
-8.47173
-8.51691
-8.55889
-8.59765
-8.63323
-8.66567
-8.69503
-8.72136
-8.74475
-8.76523
-8.78286
-8.79769
-8.80972
-8.81898
-8.82547
-8.82916
-8.83002
-8.82802
-8.82308
-8.81514
-8.8041
-8.78987
-8.77233
-8.75135
-8.72681
-8.69854
-8.66638
-8.63018
-8.58974
-8.54487
-8.49539
-8.44108
-8.38172
-8.31711
-8.24702
-8.17121
-8.08946
-8.00154
-7.90721
-7.80624
-7.69838
-7.58342
-7.46115
-7.33144
-7.1941
-7.04897
-6.8959
-6.73475
-6.5654
-6.38777
-6.2018
-6.00746
-5.80475
-5.59371
-5.37441
-5.14696
-4.9115
-4.6682
-4.4173
-4.15905
-3.89376
-3.62177
-3.34345
-3.05925
-2.76961
-2.47503
-2.17605
-1.87324
-1.56719
-1.25852
-0.947876
-0.635927
-0.323342
-0.0108036
0.301008
0.611416
0.919756
1.22539
1.52769
1.82608
2.12002
2.409
2.6926
2.97043
3.24217
3.50758
3.76649
4.01881
4.26454
4.50377
4.73667
4.96349
5.18461
5.40045
5.61157
5.81858
6.02221
6.22324
6.42255
6.62109
6.81986
7.01993
7.22243
7.42849
7.63929
7.85599
8.07976
8.31174
8.55301
8.80453
9.06723
9.34183
9.62888
9.92873
10.2414
10.5669
10.9049
11.2545
11.6144
11.983
12.3582
12.7374
13.1177
13.4956
13.8675
14.2292
14.5768
14.906
15.213
15.4945
15.7479
15.9717
16.1661
16.3332
16.4775
16.608
16.7315
16.871
16.9723
-7.77069
-7.77165
-7.77239
-7.77522
-7.77924
-7.78318
-7.78619
-7.7877
-7.78722
-7.78435
-7.77884
-7.77052
-7.7594
-7.74568
-7.72979
-7.71242
-7.69455
-7.67742
-7.66232
-7.65042
-7.64273
-7.64009
-7.64311
-7.65225
-7.66792
-7.69035
-7.71953
-7.75512
-7.79649
-7.84286
-7.8933
-7.94685
-8.00254
-8.05946
-8.11677
-8.17375
-8.22975
-8.28426
-8.33686
-8.38721
-8.43506
-8.48025
-8.52266
-8.56223
-8.59892
-8.63274
-8.66369
-8.69183
-8.71717
-8.73976
-8.75962
-8.7768
-8.7913
-8.80315
-8.81232
-8.81882
-8.82262
-8.82367
-8.82193
-8.81732
-8.80978
-8.79921
-8.7855
-8.76855
-8.74823
-8.72439
-8.69688
-8.66555
-8.63023
-8.59073
-8.54686
-8.49842
-8.44521
-8.38701
-8.3236
-8.25476
-8.18025
-8.09984
-8.0133
-7.92038
-7.82086
-7.71451
-7.6011
-7.48044
-7.35234
-7.21663
-7.07312
-6.92166
-6.76212
-6.59436
-6.41832
-6.23391
-6.04111
-5.83991
-5.63035
-5.41249
-5.18643
-4.9523
-4.71029
-4.46061
-4.20351
-3.93929
-3.66828
-3.39086
-3.10745
-2.81851
-2.52453
-2.22604
-1.92359
-1.61779
-1.30926
-0.998639
-0.686592
-0.373797
-0.0609387
0.251296
0.562225
0.871173
1.17749
1.48054
1.77973
2.07451
2.36437
2.64883
2.92752
3.20009
3.46628
3.7259
3.97884
4.2251
4.46472
4.69786
4.92478
5.1458
5.36136
5.57198
5.77828
5.98095
6.18078
6.37864
6.57546
6.77224
6.97006
7.17002
7.37328
7.58101
7.79439
8.01458
8.24274
8.47995
8.72721
8.98543
9.25537
9.5376
9.83248
10.1401
10.4605
10.7934
11.138
11.4931
11.8571
12.228
12.6033
12.98
13.3549
13.7243
14.0842
14.4306
14.7594
15.0668
15.3494
15.6046
15.8308
16.0279
16.1974
16.3428
16.4709
16.5842
16.6982
16.7492
-7.76436
-7.77027
-7.77413
-7.77849
-7.78289
-7.78651
-7.7888
-7.7894
-7.78799
-7.78431
-7.7782
-7.76963
-7.7587
-7.74572
-7.73123
-7.71601
-7.70107
-7.68756
-7.67665
-7.66938
-7.66661
-7.66903
-7.67711
-7.69116
-7.71135
-7.73763
-7.76974
-7.8072
-7.84934
-7.89537
-7.94448
-7.99584
-8.04865
-8.10219
-8.1558
-8.2089
-8.261
-8.3117
-8.36065
-8.40758
-8.4523
-8.49465
-8.53452
-8.57185
-8.6066
-8.63874
-8.66828
-8.69522
-8.71959
-8.74139
-8.76064
-8.77735
-8.79153
-8.80316
-8.81224
-8.81874
-8.82262
-8.82384
-8.82234
-8.81804
-8.81087
-8.80073
-8.78752
-8.77112
-8.75139
-8.72821
-8.70141
-8.67084
-8.63631
-8.59766
-8.55469
-8.5072
-8.45497
-8.39779
-8.33545
-8.2677
-8.19432
-8.11506
-8.0297
-7.93798
-7.83969
-7.73458
-7.62244
-7.50305
-7.37621
-7.24173
-7.09944
-6.94917
-6.79077
-6.62415
-6.44918
-6.26582
-6.07402
-5.87378
-5.66513
-5.44812
-5.22285
-4.98946
-4.74812
-4.49904
-4.24247
-3.9787
-3.70808
-3.43096
-3.14777
-2.85896
-2.56503
-2.26649
-1.96393
-1.65792
-1.34911
-1.03812
-0.725638
-0.412341
-0.0989207
0.213928
0.525512
0.835148
1.14217
1.44594
1.74585
2.04132
2.33184
2.61693
2.89617
3.16923
3.43582
3.69573
3.94886
4.19516
4.4347
4.6676
4.89411
5.11455
5.32934
5.53901
5.74415
5.94545
6.1437
6.33976
6.53457
6.72912
6.92449
7.12178
7.32216
7.5268
7.73688
7.9536
8.17809
8.41147
8.65474
8.90884
9.17455
9.45244
9.74294
10.0462
10.3623
10.6908
11.0313
11.3823
11.7426
12.11
12.4821
12.8561
13.2287
13.5963
13.9549
14.3005
14.6291
14.9368
15.2202
15.4765
15.7041
15.9023
16.0723
16.2163
16.3391
16.4401
16.5305
16.5411
-7.74272
-7.75349
-7.76126
-7.76804
-7.77375
-7.77799
-7.7805
-7.78112
-7.77969
-7.7761
-7.77034
-7.76248
-7.75275
-7.74157
-7.72954
-7.71751
-7.70645
-7.69742
-7.69143
-7.68937
-7.69193
-7.6996
-7.71269
-7.73132
-7.75545
-7.78486
-7.81916
-7.85781
-7.90018
-7.94556
-7.99324
-8.04254
-8.0928
-8.14343
-8.19391
-8.24377
-8.29264
-8.34016
-8.38607
-8.43015
-8.47223
-8.51217
-8.54988
-8.58529
-8.61835
-8.64904
-8.67734
-8.70325
-8.72676
-8.74788
-8.7666
-8.78292
-8.79683
-8.8083
-8.81732
-8.82385
-8.82784
-8.82925
-8.828
-8.82402
-8.81722
-8.80751
-8.79478
-8.7789
-8.75975
-8.73719
-8.71105
-8.68119
-8.64742
-8.60955
-8.56741
-8.52077
-8.46944
-8.41318
-8.35178
-8.285
-8.21261
-8.13436
-8.05
-7.95931
-7.86203
-7.75794
-7.64681
-7.5284
-7.40252
-7.26896
-7.12755
-6.97811
-6.8205
-6.6546
-6.48031
-6.29756
-6.10632
-5.90658
-5.69836
-5.48172
-5.25675
-5.0236
-4.78242
-4.53344
-4.2769
-4.01308
-3.74234
-3.46503
-3.18158
-2.89244
-2.5981
-2.29911
-1.99602
-1.68943
-1.37997
-1.06831
-0.755111
-0.441069
-0.126884
0.18674
0.499096
0.809489
1.11724
1.4217
1.72226
2.01831
2.30933
2.59483
2.87438
3.14764
3.41431
3.67417
3.92709
4.17305
4.41207
4.6443
4.86996
5.08938
5.30297
5.51125
5.71482
5.91436
6.11066
6.30458
6.49706
6.6891
6.88177
7.07619
7.27352
7.47494
7.68166
7.89486
8.1157
8.34531
8.58471
8.83485
9.09652
9.37036
9.65679
9.95606
10.2682
10.5929
10.9296
11.2772
11.6342
11.9987
12.3681
12.7399
13.1106
13.4767
13.8343
14.1793
14.5077
14.8156
15.0994
15.3563
15.5844
15.7826
15.9516
16.0925
16.2084
16.2964
16.3653
16.343
-7.70996
-7.7248
-7.73709
-7.74697
-7.75463
-7.76018
-7.76362
-7.76497
-7.76424
-7.76149
-7.75682
-7.75042
-7.74264
-7.73397
-7.72507
-7.71678
-7.71002
-7.70572
-7.70476
-7.70783
-7.71545
-7.72796
-7.74549
-7.76802
-7.79537
-7.82723
-7.86315
-7.90261
-7.94501
-7.98974
-8.0362
-8.08381
-8.13202
-8.18036
-8.22839
-8.27573
-8.32206
-8.36711
-8.41064
-8.45249
-8.49249
-8.53054
-8.56655
-8.60044
-8.63219
-8.66174
-8.68909
-8.71421
-8.73708
-8.7577
-8.77605
-8.79212
-8.80587
-8.81729
-8.82634
-8.83297
-8.83714
-8.83877
-8.83781
-8.83418
-8.82777
-8.8185
-8.80625
-8.79089
-8.7723
-8.75034
-8.72484
-8.69565
-8.66258
-8.62546
-8.58408
-8.53823
-8.48771
-8.43229
-8.37174
-8.30583
-8.2343
-8.15691
-8.07343
-7.98358
-7.88714
-7.78387
-7.67352
-7.55586
-7.43068
-7.29776
-7.15692
-7.008
-6.85084
-6.68533
-6.51135
-6.32885
-6.13778
-5.93814
-5.72994
-5.51326
-5.28817
-5.05483
-4.81339
-4.56407
-4.30711
-4.04282
-3.77153
-3.49361
-3.20949
-2.91962
-2.6245
-2.32467
-2.02071
-1.71321
-1.40282
-1.0902
-0.77604
-0.46104
-0.145912
0.168628
0.481862
0.793078
1.10159
1.40672
1.70786
2.00439
2.29577
2.5815
2.86114
3.13434
3.4008
3.66028
3.91267
4.15791
4.39605
4.62722
4.85164
5.06964
5.28163
5.48813
5.68974
5.88716
6.08116
6.27261
6.46245
6.6517
6.84143
7.03277
7.22687
7.42495
7.62819
7.83781
8.05499
8.28084
8.51642
8.76269
9.02047
9.29042
9.57301
9.86852
10.177
10.4982
10.8316
11.176
11.53
11.8918
12.2589
12.6286
12.9977
13.3625
13.7192
14.0636
14.3917
14.6994
14.9832
15.2401
15.4678
15.665
15.8316
15.9681
16.076
16.1507
16.2002
16.1507
-7.67147
-7.69003
-7.70647
-7.71947
-7.72932
-7.73652
-7.74131
-7.74387
-7.74437
-7.74298
-7.73992
-7.7355
-7.73013
-7.72435
-7.71885
-7.71442
-7.7119
-7.7121
-7.71574
-7.72339
-7.7354
-7.75198
-7.77315
-7.79879
-7.82863
-7.86233
-7.89943
-7.93943
-7.98181
-8.02602
-8.07154
-8.11788
-8.16458
-8.21122
-8.25745
-8.30295
-8.34744
-8.39069
-8.43251
-8.47275
-8.51127
-8.54798
-8.58279
-8.61565
-8.64649
-8.6753
-8.70203
-8.72666
-8.74917
-8.76953
-8.78772
-8.80372
-8.81749
-8.82899
-8.83818
-8.84502
-8.84944
-8.85138
-8.85076
-8.84751
-8.84152
-8.8327
-8.82093
-8.8061
-8.78806
-8.76668
-8.74179
-8.71324
-8.68084
-8.6444
-8.60373
-8.55862
-8.50884
-8.45418
-8.39439
-8.32924
-8.25847
-8.18183
-8.09907
-8.00994
-7.91418
-7.81154
-7.70178
-7.58465
-7.45992
-7.3274
-7.18688
-7.03821
-6.88121
-6.71578
-6.5418
-6.35922
-6.16799
-5.9681
-5.75957
-5.54248
-5.31691
-5.083
-4.84092
-4.59089
-4.33316
-4.06802
-3.79582
-3.51693
-3.23178
-2.94084
-2.64461
-2.34364
-2.03851
-1.72982
-1.41823
-1.10442
-0.789093
-0.472955
-0.156732
0.158845
0.473041
0.785132
1.09441
1.4002
1.70185
1.99876
2.29037
2.57616
2.8557
3.12862
3.39461
3.65344
3.90498
4.14919
4.3861
4.61585
4.83867
5.05488
5.26491
5.46927
5.66857
5.86352
6.0549
6.24358
6.43052
6.61673
6.80329
6.99135
7.18207
7.37666
7.57634
7.78232
7.99578
8.21788
8.44967
8.69214
8.94612
9.21231
9.49122
9.78314
10.0882
10.406
10.7362
11.0776
11.4289
11.7882
12.1531
12.5209
12.8884
13.2519
13.6075
13.9512
14.2787
14.5859
14.8692
15.1253
15.3517
15.5468
15.71
15.8408
15.9399
16.0014
16.0331
15.9609
-7.63247
-7.65393
-7.67383
-7.68959
-7.70156
-7.71049
-7.71681
-7.72084
-7.72286
-7.72314
-7.72199
-7.71979
-7.717
-7.71418
-7.71199
-7.71117
-7.71246
-7.71656
-7.72407
-7.73544
-7.75093
-7.77065
-7.79455
-7.82245
-7.85407
-7.88904
-7.92693
-7.96728
-8.0096
-8.05342
-8.09827
-8.14372
-8.18937
-8.23487
-8.2799
-8.32418
-8.36748
-8.40958
-8.45033
-8.48958
-8.52722
-8.56315
-8.59729
-8.6296
-8.66
-8.68847
-8.71496
-8.73945
-8.7619
-8.78227
-8.80055
-8.81669
-8.83065
-8.84239
-8.85186
-8.859
-8.86377
-8.86607
-8.86585
-8.86302
-8.85747
-8.84912
-8.83784
-8.82352
-8.80602
-8.78519
-8.76088
-8.73293
-8.70115
-8.66535
-8.62534
-8.58089
-8.5318
-8.47781
-8.4187
-8.35422
-8.28411
-8.20811
-8.12596
-8.0374
-7.94217
-7.84001
-7.73065
-7.61385
-7.48937
-7.35702
-7.21659
-7.0679
-6.91081
-6.7452
-6.57095
-6.388
-6.1963
-5.99587
-5.78671
-5.5689
-5.34253
-5.10775
-4.86471
-4.61366
-4.35483
-4.08853
-3.81511
-3.53496
-3.2485
-2.9562
-2.65859
-2.35621
-2.04966
-1.73956
-1.42656
-1.11138
-0.794707
-0.477284
-0.159851
0.156844
0.472057
0.785048
1.0951
1.40151
1.70362
2.00082
2.29253
2.57824
2.8575
3.12991
3.39519
3.65311
3.90352
4.14639
4.38176
4.60977
4.83065
5.04474
5.25248
5.45437
5.65106
5.84324
6.03171
6.21736
6.40115
6.5841
6.76731
6.95192
7.13911
7.33011
7.52613
7.72841
7.93813
8.15647
8.3845
8.62321
8.87347
9.136
9.41132
9.69977
10.0014
10.3161
10.6432
10.9818
11.3304
11.6873
12.05
12.4159
12.7817
13.1438
13.4982
13.8408
14.1672
14.4734
14.7555
15.01
15.2343
15.4263
15.5849
15.709
15.7985
15.8469
15.862
15.7707
-7.59676
-7.6202
-7.64271
-7.66072
-7.67452
-7.68506
-7.6929
-7.69845
-7.70207
-7.7041
-7.70492
-7.70494
-7.70462
-7.70454
-7.7053
-7.70756
-7.71199
-7.71919
-7.72966
-7.74376
-7.76172
-7.78358
-7.80928
-7.83863
-7.87133
-7.90703
-7.94533
-7.98581
-8.02802
-8.07153
-8.11592
-8.16081
-8.20583
-8.25066
-8.29502
-8.33866
-8.38135
-8.42291
-8.46318
-8.50203
-8.53936
-8.57506
-8.60907
-8.64131
-8.67173
-8.70028
-8.72693
-8.75162
-8.77432
-8.79499
-8.81359
-8.83008
-8.84441
-8.85654
-8.86641
-8.87397
-8.87915
-8.88189
-8.8821
-8.8797
-8.87461
-8.86672
-8.85592
-8.84208
-8.82508
-8.80478
-8.78101
-8.75361
-8.7224
-8.68718
-8.64776
-8.60392
-8.55543
-8.50205
-8.44353
-8.37963
-8.31008
-8.23461
-8.15296
-8.06485
-7.97001
-7.86816
-7.75903
-7.64237
-7.51796
-7.38557
-7.24501
-7.0961
-6.93869
-6.77265
-6.59788
-6.41431
-6.22191
-6.02067
-5.81062
-5.59183
-5.3644
-5.12847
-4.88422
-4.63188
-4.3717
-4.104
-3.82911
-3.54745
-3.25944
-2.96556
-2.66635
-2.36237
-2.05421
-1.74252
-1.42798
-1.11128
-0.793148
-0.474341
-0.155617
0.162258
0.478525
0.792429
1.10323
1.41023
1.71273
2.01012
2.3018
2.58727
2.86605
3.13776
3.4021
3.65885
3.90787
4.14913
4.38267
4.60864
4.82729
5.03897
5.24412
5.44327
5.63706
5.82622
6.01154
6.19393
6.37436
6.55387
6.73356
6.91459
7.09815
7.28546
7.47777
7.67631
7.88229
8.09687
8.32117
8.55618
8.80278
9.06172
9.33354
9.6186
9.91699
10.2285
10.5526
10.8884
11.2344
11.5888
11.9493
12.3132
12.6771
13.0376
13.3904
13.7315
14.0564
14.361
14.6411
14.8931
15.1142
15.3019
15.4548
15.5712
15.6505
15.6858
15.6853
15.5776
-7.56675
-7.59137
-7.61566
-7.63531
-7.65055
-7.66244
-7.67163
-7.67857
-7.68367
-7.68732
-7.68993
-7.69193
-7.69377
-7.69598
-7.69912
-7.70379
-7.71055
-7.71995
-7.73241
-7.74826
-7.76769
-7.79074
-7.81735
-7.84734
-7.88046
-7.91637
-7.95471
-7.99509
-8.03709
-8.08033
-8.12442
-8.169
-8.21372
-8.2583
-8.30245
-8.34593
-8.38855
-8.43011
-8.47046
-8.50947
-8.54702
-8.58302
-8.61738
-8.65004
-8.68091
-8.70996
-8.73712
-8.76235
-8.78559
-8.80681
-8.82596
-8.84299
-8.85785
-8.8705
-8.88087
-8.88891
-8.89456
-8.89775
-8.89841
-8.89645
-8.89179
-8.88433
-8.87396
-8.86057
-8.84403
-8.82418
-8.80089
-8.77398
-8.74328
-8.70858
-8.66968
-8.62637
-8.57841
-8.52555
-8.46755
-8.40414
-8.33506
-8.26003
-8.17877
-8.09098
-7.99638
-7.89468
-7.78562
-7.66894
-7.5444
-7.4118
-7.27092
-7.12159
-6.96365
-6.79698
-6.62149
-6.4371
-6.24377
-6.04152
-5.83036
-5.61038
-5.38167
-5.14439
-4.89872
-4.64489
-4.38316
-4.11386
-3.83733
-3.55399
-3.26427
-2.96866
-2.6677
-2.36197
-2.05208
-1.73868
-1.42247
-1.10417
-0.784502
-0.46425
-0.144191
0.17489
0.492212
0.807007
1.11852
1.42602
1.72882
2.02628
2.3178
2.60285
2.88097
3.15178
3.41497
3.67032
3.9177
4.15709
4.38854
4.61222
4.82838
5.03738
5.23969
5.43585
5.62651
5.81242
5.9944
6.17335
6.35026
6.52619
6.70224
6.87959
7.05945
7.24303
7.4316
7.6264
7.82865
8.03952
8.26013
8.49149
8.73451
8.98994
9.25834
9.54008
9.83527
10.1437
10.4649
10.7978
11.1411
11.493
11.8512
12.2128
12.5747
12.9331
13.2839
13.623
13.9457
14.2478
14.5251
14.7737
14.9904
15.1728
15.3188
15.4264
15.4948
15.5167
15.5011
15.3792
-7.54374
-7.56893
-7.59429
-7.61499
-7.63123
-7.64411
-7.65431
-7.66234
-7.66863
-7.67358
-7.67762
-7.68116
-7.68465
-7.68856
-7.6934
-7.69969
-7.70794
-7.71863
-7.73215
-7.7488
-7.76877
-7.79213
-7.81884
-7.84877
-7.88168
-7.91731
-7.95532
-7.99535
-8.03704
-8.08
-8.12388
-8.16833
-8.21303
-8.25768
-8.30202
-8.3458
-8.38881
-8.43087
-8.4718
-8.51146
-8.54974
-8.58651
-8.62168
-8.65517
-8.6869
-8.7168
-8.74481
-8.77086
-8.7949
-8.81689
-8.83676
-8.85447
-8.86997
-8.8832
-8.89412
-8.90267
-8.90879
-8.91242
-8.91349
-8.91192
-8.90764
-8.90055
-8.89055
-8.87753
-8.86136
-8.84191
-8.81902
-8.79252
-8.76224
-8.72799
-8.68954
-8.64668
-8.59917
-8.54676
-8.48919
-8.4262
-8.3575
-8.28281
-8.20182
-8.11423
-8.01973
-7.91804
-7.80889
-7.69203
-7.56722
-7.43423
-7.29287
-7.14295
-6.98432
-6.81686
-6.64047
-6.45509
-6.26068
-6.05725
-5.84483
-5.6235
-5.39337
-5.1546
-4.90736
-4.6519
-4.3885
-4.11748
-3.83919
-3.55405
-3.26251
-2.96507
-2.66228
-2.35472
-2.04302
-1.72786
-1.40993
-1.08998
-0.768759
-0.447057
-0.125673
0.194589
0.512928
0.828554
1.1407
1.44861
1.75159
2.04899
2.34019
2.62466
2.90195
3.17165
3.43348
3.68721
3.93272
4.17001
4.39913
4.62028
4.83371
5.03982
5.23907
5.43204
5.61939
5.80188
5.98036
6.15574
6.32902
6.50127
6.67363
6.84725
7.02337
7.20323
7.38808
7.57917
7.77773
7.98496
8.20196
8.42977
8.6693
8.9213
9.18636
9.46485
9.75688
10.0623
10.3805
10.7105
11.0511
11.4004
11.756
12.1151
12.4746
12.8305
13.1788
13.5152
13.835
14.1337
14.4071
14.651
14.8623
15.0379
15.1758
15.2736
15.3301
15.3385
15.3079
15.1732
-7.52818
-7.55366
-7.57953
-7.60077
-7.61753
-7.63094
-7.64172
-7.65038
-7.65739
-7.66315
-7.66809
-7.6726
-7.67709
-7.68199
-7.68775
-7.69484
-7.70371
-7.71481
-7.72849
-7.74507
-7.76474
-7.78762
-7.81371
-7.84292
-7.87509
-7.90998
-7.94731
-7.98676
-8.02798
-8.07064
-8.11437
-8.15884
-8.20374
-8.24876
-8.29362
-8.33808
-8.3819
-8.42488
-8.46683
-8.5076
-8.54702
-8.58498
-8.62136
-8.65606
-8.68897
-8.72002
-8.74912
-8.77622
-8.80124
-8.82413
-8.84483
-8.86329
-8.87947
-8.8933
-8.90475
-8.91377
-8.92031
-8.9243
-8.9257
-8.92444
-8.92044
-8.91362
-8.90389
-8.89114
-8.87525
-8.85609
-8.83351
-8.80734
-8.77741
-8.74352
-8.70545
-8.66298
-8.61585
-8.56382
-8.50662
-8.44397
-8.37558
-8.30114
-8.22031
-8.13277
-8.03825
-7.93644
-7.82709
-7.70993
-7.58471
-7.45122
-7.30925
-7.15862
-6.99918
-6.8308
-6.6534
-6.46691
-6.2713
-6.06658
-5.8528
-5.63002
-5.39838
-5.15802
-4.90914
-4.65199
-4.38685
-4.11405
-3.83395
-3.54698
-3.25359
-2.9543
-2.64965
-2.34026
-2.02676
-1.70984
-1.39022
-1.06864
-0.745904
-0.422799
-0.100149
0.221223
0.540494
0.856855
1.16952
1.47772
1.78075
2.07792
2.36865
2.65237
2.92863
3.19703
3.45729
3.70919
3.95264
4.18761
4.41421
4.63262
4.84313
5.04616
5.24219
5.43181
5.61571
5.79466
5.96953
6.14125
6.31085
6.47939
6.64803
6.81794
6.99036
7.16653
7.34772
7.53518
7.73016
7.93384
8.14735
8.37172
8.60787
8.85655
9.11837
9.39368
9.68261
9.98496
10.3002
10.6273
10.9651
11.3115
11.6643
12.0207
12.3772
12.7301
13.0753
13.4082
13.7241
14.0185
14.2868
14.5249
14.7292
14.8967
15.0251
15.1118
15.1555
15.1498
15.1041
14.9577
-7.52018
-7.54593
-7.57199
-7.59332
-7.6101
-7.62349
-7.63426
-7.64296
-7.65006
-7.65599
-7.66114
-7.66589
-7.67061
-7.67569
-7.68152
-7.68853
-7.69713
-7.70774
-7.72073
-7.7364
-7.75499
-7.77666
-7.80146
-7.82937
-7.86028
-7.89402
-7.93035
-7.96899
-8.00962
-8.05193
-8.09557
-8.1402
-8.1855
-8.23114
-8.27684
-8.32232
-8.36732
-8.4116
-8.45496
-8.4972
-8.53815
-8.57764
-8.61554
-8.65172
-8.68606
-8.71846
-8.74884
-8.77711
-8.8032
-8.82704
-8.84859
-8.86778
-8.88459
-8.89896
-8.91085
-8.92024
-8.92707
-8.93131
-8.93291
-8.93182
-8.92797
-8.9213
-8.91172
-8.89913
-8.88342
-8.86446
-8.8421
-8.81619
-8.78654
-8.75295
-8.71519
-8.67305
-8.62627
-8.57458
-8.51771
-8.45536
-8.3872
-8.31289
-8.23209
-8.14452
-8.04987
-7.94786
-7.83821
-7.72066
-7.59495
-7.46087
-7.3182
-7.16678
-7.00645
-6.8371
-6.65862
-6.47096
-6.2741
-6.06805
-5.85286
-5.62862
-5.39544
-5.15349
-4.90298
-4.64415
-4.37729
-4.10274
-3.82087
-3.5321
-3.23692
-2.93583
-2.6294
-2.31825
-2.00302
-1.68443
-1.3632
-1.0401
-0.715946
-0.391547
-0.0677463
0.254611
0.574684
0.891641
1.20468
1.51301
1.81592
2.11271
2.40278
2.68557
2.96061
3.22753
3.48603
3.73592
3.9771
4.20958
4.43347
4.64898
4.85643
5.05623
5.24891
5.43508
5.61544
5.79079
5.96201
6.13006
6.29596
6.46082
6.62578
6.79204
6.96084
7.13342
7.31107
7.49505
7.68658
7.88687
8.09703
8.31811
8.55102
8.79653
9.05521
9.32744
9.61332
9.91265
10.2249
10.549
10.8838
11.2272
11.5769
11.93
12.2832
12.6325
12.9737
13.3023
13.6133
13.9021
14.164
14.3948
14.5907
14.7486
14.8659
14.9401
14.9699
14.9494
14.8881
14.7304
-7.52001
-7.54622
-7.57234
-7.59336
-7.60959
-7.62228
-7.6323
-7.64025
-7.64664
-7.65191
-7.65643
-7.66054
-7.66457
-7.66885
-7.67375
-7.67966
-7.68696
-7.69607
-7.70736
-7.72118
-7.7378
-7.75744
-7.78021
-7.80618
-7.83528
-7.86743
-7.90242
-7.94002
-7.97994
-8.02186
-8.06546
-8.11037
-8.15627
-8.2028
-8.24964
-8.29647
-8.34301
-8.38897
-8.43411
-8.47818
-8.52098
-8.56231
-8.602
-8.63989
-8.67584
-8.70975
-8.74149
-8.77098
-8.79815
-8.82293
-8.84527
-8.86512
-8.88245
-8.89723
-8.90943
-8.91903
-8.92602
-8.93035
-8.93201
-8.93095
-8.92713
-8.92049
-8.91095
-8.89843
-8.88282
-8.864
-8.84183
-8.81613
-8.78674
-8.75343
-8.716
-8.6742
-8.62777
-8.57645
-8.51991
-8.45781
-8.38978
-8.31551
-8.2347
-8.14704
-8.05222
-7.94996
-7.83997
-7.72198
-7.59574
-7.46103
-7.31764
-7.16539
-7.00414
-6.83377
-6.65419
-6.46536
-6.26724
-6.05987
-5.84329
-5.61759
-5.38291
-5.13942
-4.88732
-4.62688
-4.35838
-4.08216
-3.79861
-3.50817
-3.2113
-2.90853
-2.60045
-2.28767
-1.97086
-1.65073
-1.32805
-1.00359
-0.678169
-0.352641
-0.0278601
0.295308
0.616
0.933367
1.24658
1.55485
1.85743
2.15363
2.44282
2.72446
2.99807
3.26328
3.51981
3.76747
4.00618
4.23597
4.45697
4.66941
4.87363
5.07007
5.25928
5.44189
5.61864
5.79033
5.95787
6.12224
6.28448
6.4457
6.60705
6.76975
6.93504
7.10417
7.27843
7.45907
7.64732
7.84439
8.05139
8.26935
8.49918
8.74165
8.99732
9.26656
9.54945
9.84578
10.155
10.476
10.8076
11.1477
11.494
11.8434