/*--------------------------------*- C++ -*----------------------------------*\
  =========                 |
  \\      /  F ield         | OpenFOAM: The Open Source CFD Toolbox
   \\    /   O peration     | Website:  https://openfoam.org
    \\  /    A nd           | Version:  9
     \\/     M anipulation  |
\*---------------------------------------------------------------------------*/
FoamFile
{
    format      ascii;
    class       volScalarField;
    location    "0.033";
    object      p;
}
// * * * * * * * * * * * * * * * * * * * * * * * * * * * * * * * * * * * * * //

dimensions      [0 2 -2 0 0 0 0];

internalField   nonuniform List<scalar> 
12225
(
-230.771
-231.147
-231.884
-232.186
-232.094
-231.697
-231.093
-230.322
-229.397
-228.334
-227.156
-225.864
-224.434
-222.874
-221.193
-219.364
-217.356
-215.039
-230.576
-231.151
-231.876
-232.185
-232.122
-231.746
-231.15
-230.374
-229.436
-228.36
-227.171
-225.879
-224.461
-222.918
-221.26
-219.472
-217.548
-215.467
-230.627
-231.16
-231.86
-232.208
-232.161
-231.793
-231.199
-230.42
-229.48
-228.404
-227.214
-225.921
-224.518
-223.006
-221.401
-219.705
-217.925
-216.135
-230.623
-231.156
-231.851
-232.265
-232.263
-231.907
-231.302
-230.51
-229.561
-228.475
-227.276
-225.986
-224.604
-223.131
-221.585
-219.982
-218.358
-216.816
-230.834
-231.092
-231.842
-232.327
-232.354
-232.001
-231.405
-230.609
-229.655
-228.566
-227.369
-226.088
-224.727
-223.291
-221.802
-220.296
-218.822
-217.477
-230.531
-230.983
-231.855
-232.461
-232.548
-232.214
-231.582
-230.759
-229.79
-228.689
-227.486
-226.21
-224.872
-223.479
-222.058
-220.648
-219.299
-218.098
-230.452
-230.884
-231.92
-232.607
-232.706
-232.371
-231.745
-230.921
-229.945
-228.842
-227.645
-226.38
-225.067
-223.717
-222.355
-221.024
-219.774
-218.678
-229.277
-230.686
-232.03
-232.879
-233.051
-232.719
-232.045
-231.174
-230.167
-229.041
-227.831
-226.572
-225.282
-223.974
-222.671
-221.414
-220.248
-219.226
-230.51
-230.788
-232.235
-233.191
-233.359
-232.998
-232.319
-231.439
-230.413
-229.278
-228.068
-226.82
-225.552
-224.278
-223.022
-221.819
-220.71
-219.73
-223.819
-229.721
-232.573
-233.716
-233.922
-233.521
-232.752
-231.797
-230.726
-229.561
-228.339
-227.094
-225.843
-224.599
-223.384
-222.226
-221.155
-220.196
-225.049
-230.125
-233.184
-234.369
-234.488
-234.004
-233.188
-232.196
-231.089
-229.901
-228.668
-227.423
-226.183
-224.96
-223.773
-222.645
-221.598
-220.647
-218.663
-230.256
-234.115
-235.309
-235.305
-234.687
-233.744
-232.658
-231.486
-230.257
-229.006
-227.758
-226.525
-225.315
-224.144
-223.032
-221.994
-221.039
-220.667
-231.945
-235.531
-236.438
-236.174
-235.351
-234.323
-233.157
-231.923
-230.655
-229.383
-228.124
-226.889
-225.686
-224.53
-223.434
-222.403
-221.44
-225.647
-235.117
-237.994
-238.232
-237.489
-236.404
-235.156
-233.848
-232.51
-231.175
-229.863
-228.584
-227.342
-226.142
-224.994
-223.903
-222.872
-221.899
-240.095
-242.15
-241.882
-240.674
-239.173
-237.64
-236.141
-234.662
-233.212
-231.811
-230.464
-229.161
-227.903
-226.695
-225.543
-224.449
-223.411
-222.427
-259.779
-251.589
-247.008
-243.886
-241.415
-239.317
-237.466
-235.755
-234.146
-232.634
-231.211
-229.859
-228.573
-227.353
-226.198
-225.103
-224.063
-223.076
-276.196
-260.474
-252.187
-247.309
-243.877
-241.165
-238.906
-236.948
-235.187
-233.575
-232.085
-230.691
-229.38
-228.145
-226.978
-225.87
-224.818
-223.817
-278.721
-263.87
-255.237
-249.758
-245.877
-242.863
-240.357
-238.208
-236.318
-234.616
-233.055
-231.61
-230.272
-229.028
-227.863
-226.763
-225.728
-224.754
-259.177
-257.068
-253.449
-249.891
-246.698
-243.915
-241.475
-239.316
-237.392
-235.657
-234.061
-232.588
-231.227
-229.965
-228.787
-227.685
-226.654
-225.688
-251.354
-254.186
-252.338
-249.633
-246.866
-244.288
-241.958
-239.873
-237.998
-236.28
-234.696
-233.241
-231.904
-230.667
-229.516
-228.446
-227.452
-226.528
-264.957
-257.083
-252.83
-249.545
-246.684
-244.257
-242.074
-240.094
-238.3
-236.64
-235.099
-233.676
-232.365
-231.145
-230.005
-228.945
-227.959
-227.038
-267.715
-257.161
-252.263
-248.895
-246.339
-244.1
-242.032
-240.136
-238.419
-236.823
-235.326
-233.938
-232.655
-231.461
-230.345
-229.305
-228.343
-227.447
-254.228
-253.484
-250.841
-248.25
-245.908
-243.847
-241.919
-240.129
-238.488
-236.951
-235.498
-234.132
-232.864
-231.684
-230.578
-229.547
-228.585
-227.692
-253.771
-251.487
-249.331
-247.293
-245.388
-243.549
-241.745
-240.041
-238.467
-236.985
-235.566
-234.227
-232.987
-231.826
-230.738
-229.72
-228.772
-227.888
-251.409
-249.396
-248.061
-246.565
-244.993
-243.319
-241.626
-239.994
-238.468
-237.025
-235.652
-234.324
-233.087
-231.931
-230.846
-229.832
-228.89
-228.011
-247.59
-247.604
-246.997
-245.952
-244.59
-243.095
-241.502
-239.925
-238.434
-237.018
-235.641
-234.354
-233.133
-231.986
-230.914
-229.914
-228.982
-228.112
-244.679
-246.131
-246.365
-245.573
-244.345
-242.938
-241.419
-239.885
-238.415
-237.016
-235.667
-234.385
-233.17
-232.027
-230.956
-229.957
-229.028
-228.165
-241.578
-245.143
-245.835
-245.3
-244.198
-242.852
-241.365
-239.852
-238.396
-237.011
-235.677
-234.4
-233.186
-232.045
-230.98
-229.991
-229.073
-228.22
-241.217
-244.531
-245.579
-245.15
-244.106
-242.789
-241.323
-239.824
-238.379
-237.008
-235.69
-234.421
-233.206
-232.059
-230.989
-229.997
-229.086
-228.245
-239.664
-244.281
-245.498
-245.088
-244.072
-242.773
-241.31
-239.812
-238.369
-237.001
-235.686
-234.415
-233.2
-232.053
-230.986
-230.002
-229.1
-228.267
-209.866
-210.1
-210.335
-210.377
-210.02
-209.284
-208.414
-207.756
-207.587
-207.947
-208.811
-210.033
-211.422
-212.8
-214.019
-214.961
-215.542
-215.706
-215.445
-214.796
-213.843
-212.708
-211.589
-210.704
-210.315
-210.636
-211.246
-211.811
-212.221
-212.161
-211.623
-210.753
-209.486
-207.821
-206.974
-206.835
-206.818
-206.716
-206.281
-205.726
-205.166
-204.052
-202.262
-201.477
-202.21
-204.208
-207.105
-210.576
-214.357
-218.252
-222.125
-225.887
-229.485
-232.884
-236.067
-239.017
-241.723
-244.168
-246.333
-248.197
-249.736
-250.924
-251.735
-252.148
-252.147
-251.718
-250.858
-249.57
-247.863
-245.759
-243.286
-240.478
-237.37
-234
-230.401
-226.604
-222.634
-218.511
-214.249
-209.855
-205.335
-200.695
-195.94
-191.082
-186.141
-181.143
-176.128
-171.142
-166.239
-161.474
-156.901
-152.568
-148.513
-144.766
-141.35
-138.282
-135.573
-133.233
-131.267
-129.67
-128.423
-127.487
-126.806
-126.316
-125.96
-125.684
-125.445
-125.209
-124.955
-124.677
-124.378
-124.057
-123.712
-123.335
-122.922
-122.47
-121.978
-121.448
-120.88
-120.275
-119.634
-118.959
-118.251
-117.515
-116.753
-115.968
-115.162
-114.338
-113.497
-112.637
-111.759
-110.866
-109.956
-109.032
-108.095
-107.145
-106.185
-105.214
-104.231
-103.236
-102.228
-101.205
-100.169
-99.1196
-98.0581
-96.9854
-95.9021
-94.8089
-93.7057
-92.5923
-91.468
-90.3321
-89.1843
-88.0241
-86.8517
-85.6672
-84.471
-83.2635
-82.0449
-80.8155
-79.5755
-78.3249
-77.0637
-75.7917
-74.5088
-73.2147
-71.9091
-70.5915
-69.2616
-67.9184
-66.5614
-65.1889
-63.8002
-62.3925
-60.9647
-59.5117
-58.031
-56.5175
-54.9636
-53.3903
-211.076
-211.296
-211.43
-211.522
-211.09
-210.432
-209.787
-209.466
-209.604
-210.216
-211.218
-212.459
-213.779
-215.04
-216.133
-216.978
-217.523
-217.743
-217.627
-217.115
-216.246
-215.155
-214.008
-213.045
-212.437
-212.406
-212.616
-212.522
-212.584
-212.859
-212.648
-211.963
-210.772
-209.324
-208.52
-208.718
-208.711
-207.894
-205.909
-204.506
-205.289
-205.558
-204.79
-204.642
-205.682
-207.757
-210.571
-213.838
-217.337
-220.914
-224.465
-227.927
-231.259
-234.435
-237.437
-240.247
-242.847
-245.214
-247.325
-249.151
-250.661
-251.825
-252.612
-252.996
-252.958
-252.484
-251.568
-250.22
-248.455
-246.297
-243.772
-240.916
-237.766
-234.359
-230.732
-226.915
-222.934
-218.81
-214.554
-210.175
-205.675
-201.057
-196.325
-191.488
-186.562
-181.574
-176.561
-171.57
-166.657
-161.878
-157.29
-152.941
-148.872
-145.112
-141.683
-138.599
-135.869
-133.5
-131.502
-129.875
-128.605
-127.648
-126.952
-126.454
-126.092
-125.812
-125.567
-125.321
-125.053
-124.758
-124.443
-124.111
-123.756
-123.373
-122.955
-122.499
-122.004
-121.472
-120.901
-120.294
-119.651
-118.974
-118.265
-117.527
-116.763
-115.978
-115.171
-114.347
-113.504
-112.645
-111.769
-110.876
-109.967
-109.043
-108.106
-107.156
-106.194
-105.222
-104.238
-103.241
-102.231
-101.207
-100.171
-99.1209
-98.0592
-96.9863
-95.9029
-94.8094
-93.7059
-92.592
-91.4674
-90.3313
-89.1833
-88.0232
-86.8508
-85.6665
-84.4704
-83.263
-82.0445
-80.8152
-79.5753
-78.3248
-77.0637
-75.7918
-74.5091
-73.2151
-71.9098
-70.5925
-69.2629
-67.9202
-66.5638
-65.1922
-63.8045
-62.3988
-60.9727
-59.5244
-58.0474
-56.5464
-55.0035
-53.4771
-210.667
-210.681
-210.779
-211.005
-211.245
-211.498
-211.877
-212.507
-213.448
-214.638
-215.956
-217.289
-218.559
-219.711
-220.699
-221.473
-221.976
-222.153
-221.954
-221.436
-220.632
-219.587
-218.367
-217.085
-215.837
-214.709
-213.729
-212.876
-212.243
-211.754
-211.026
-210.28
-209.435
-209.235
-209.44
-209.129
-209.11
-209.475
-208.955
-207.921
-207.697
-208.161
-208.866
-209.942
-211.481
-213.493
-215.897
-218.594
-221.48
-224.473
-227.508
-230.534
-233.512
-236.411
-239.201
-241.854
-244.343
-246.635
-248.697
-250.494
-251.987
-253.139
-253.916
-254.287
-254.227
-253.72
-252.761
-251.355
-249.518
-247.278
-244.669
-241.728
-238.499
-235.023
-231.339
-227.482
-223.479
-219.35
-215.107
-210.755
-206.293
-201.72
-197.035
-192.241
-187.35
-182.384
-177.379
-172.382
-167.452
-162.648
-158.032
-153.656
-149.563
-145.784
-142.336
-139.228
-136.466
-134.053
-132
-130.317
-128.993
-127.992
-127.26
-126.735
-126.358
-126.072
-125.822
-125.562
-125.268
-124.941
-124.595
-124.237
-123.864
-123.466
-123.034
-122.566
-122.061
-121.52
-120.945
-120.334
-119.688
-119.007
-118.296
-117.555
-116.79
-116.002
-115.194
-114.367
-113.524
-112.663
-111.785
-110.891
-109.982
-109.057
-108.119
-107.168
-106.205
-105.231
-104.245
-103.246
-102.235
-101.21
-100.173
-99.1231
-98.0614
-96.9885
-95.9049
-94.811
-93.7067
-92.5918
-91.466
-90.3289
-89.18
-88.0194
-86.8469
-85.6626
-84.4668
-83.2598
-82.0418
-80.813
-79.5736
-78.3236
-77.0629
-75.7915
-74.5092
-73.2157
-71.9109
-70.5942
-69.2653
-67.9237
-66.5684
-65.1988
-63.8132
-62.4113
-60.9896
-59.5496
-58.0837
-56.6034
-55.0942
-53.621
-210.996
-210.879
-211.041
-211.602
-212.567
-213.78
-215.109
-216.479
-217.833
-219.13
-220.344
-221.478
-222.54
-223.524
-224.403
-225.127
-225.639
-225.882
-225.81
-225.406
-224.69
-223.676
-222.384
-220.848
-219.118
-217.22
-215.194
-213.032
-210.899
-208.873
-207.162
-205.839
-205.426
-205.622
-206.979
-208.013
-208.454
-209.008
-209.666
-210.337
-211.117
-212.097
-213.315
-214.78
-216.475
-218.399
-220.531
-222.85
-225.32
-227.904
-230.562
-233.259
-235.963
-238.64
-241.26
-243.79
-246.195
-248.437
-250.474
-252.263
-253.759
-254.917
-255.696
-256.057
-255.973
-255.423
-254.402
-252.915
-250.979
-248.626
-245.895
-242.833
-239.489
-235.911
-232.145
-228.228
-224.192
-220.056
-215.83
-211.516
-207.109
-202.6
-197.982
-193.25
-188.41
-183.478
-178.488
-173.486
-168.534
-163.698
-159.044
-154.63
-150.504
-146.698
-143.23
-140.105
-137.32
-134.864
-132.756
-131
-129.599
-128.534
-127.751
-127.174
-126.746
-126.427
-126.17
-125.905
-125.589
-125.221
-124.829
-124.432
-124.03
-123.608
-123.157
-122.67
-122.149
-121.595
-121.008
-120.388
-119.735
-119.051
-118.335
-117.591
-116.823
-116.032
-115.222
-114.393
-113.547
-112.684
-111.805
-110.91
-110
-109.074
-108.135
-107.183
-106.218
-105.242
-104.254
-103.254
-102.242
-101.216
-100.178
-99.1272
-98.065
-96.9916
-95.9074
-94.8127
-93.7075
-92.5918
-91.4653
-90.3277
-89.1786
-88.0178
-86.8454
-85.6613
-84.4658
-83.259
-82.0412
-80.8127
-79.5735
-78.3237
-77.0633
-75.7922
-74.5102
-73.2171
-71.9128
-70.5968
-69.2687
-67.9281
-66.5742
-65.2065
-63.8236
-62.4254
-61.009
-59.5769
-58.1234
-56.661
-55.1828
-53.7426
-211.112
-211.262
-211.943
-213.237
-214.9
-216.661
-218.366
-219.917
-221.26
-222.416
-223.469
-224.488
-225.5
-226.485
-227.395
-228.169
-228.741
-229.054
-229.071
-228.738
-227.998
-226.89
-225.483
-223.796
-221.818
-219.522
-216.922
-214.027
-210.963
-208.067
-205.723
-203.836
-203.474
-204.137
-205.235
-206.786
-208.372
-209.892
-211.402
-212.912
-214.371
-215.798
-217.264
-218.834
-220.527
-222.359
-224.327
-226.429
-228.655
-230.988
-233.408
-235.894
-238.419
-240.955
-243.472
-245.935
-248.306
-250.541
-252.595
-254.414
-255.947
-257.139
-257.94
-258.305
-258.199
-257.599
-256.497
-254.898
-252.827
-250.32
-247.426
-244.199
-240.699
-236.984
-233.106
-229.108
-225.023
-220.871
-216.662
-212.392
-208.05
-203.621
-199.089
-194.441
-189.673
-184.795
-179.832
-174.829
-169.849
-164.967
-160.258
-155.788
-151.61
-147.76
-144.261
-141.119
-138.333
-135.848
-133.719
-131.906
-130.421
-129.269
-128.417
-127.783
-127.289
-126.901
-126.589
-126.302
-125.975
-125.578
-125.14
-124.697
-124.256
-123.802
-123.321
-122.811
-122.269
-121.696
-121.093
-120.46
-119.797
-119.105
-118.385
-117.637
-116.866
-116.072
-115.259
-114.428
-113.58
-112.715
-111.834
-110.937
-110.024
-109.097
-108.156
-107.202
-106.235
-105.257
-104.267
-103.265
-102.25
-101.224
-100.184
-99.1329
-98.0699
-96.9957
-95.9109
-94.8155
-93.7096
-92.5932
-91.466
-90.3278
-89.1782
-88.017
-86.8442
-85.66
-84.4644
-83.2576
-82.04
-80.8117
-79.5728
-78.3233
-77.0633
-75.7926
-74.511
-73.2185
-71.9148
-70.5995
-69.2724
-67.933
-66.5807
-65.2151
-63.8351
-62.4408
-61.0303
-59.6059
-58.165
-56.7182
-55.266
-53.8466
-211.207
-212.058
-213.741
-215.682
-217.672
-219.591
-221.33
-222.81
-224.032
-225.128
-226.239
-227.43
-228.714
-230.035
-231.289
-232.361
-233.136
-233.523
-233.454
-232.893
-231.844
-230.379
-228.604
-226.591
-224.369
-221.897
-219.083
-215.962
-212.611
-209.537
-206.847
-205.258
-204.706
-205.309
-206.632
-208.369
-210.286
-212.2
-214.035
-215.779
-217.432
-219.019
-220.58
-222.174
-223.836
-225.595
-227.462
-229.442
-231.535
-233.733
-236.026
-238.4
-240.834
-243.305
-245.786
-248.242
-250.633
-252.912
-255.026
-256.917
-258.523
-259.778
-260.623
-261.005
-260.882
-260.226
-259.024
-257.288
-255.044
-252.34
-249.234
-245.795
-242.095
-238.203
-234.178
-230.072
-225.921
-221.744
-217.55
-213.331
-209.07
-204.743
-200.325
-195.792
-191.126
-186.323
-181.397
-176.39
-171.367
-166.416
-161.627
-157.079
-152.831
-148.919
-145.366
-142.188
-139.385
-136.927
-134.798
-132.964
-131.42
-130.176
-129.229
-128.526
-127.97
-127.503
-127.114
-126.762
-126.388
-125.961
-125.491
-125.006
-124.524
-124.034
-123.52
-122.979
-122.411
-121.817
-121.195
-120.547
-119.872
-119.17
-118.443
-117.691
-116.916
-116.12
-115.304
-114.469
-113.618
-112.75
-111.865
-110.966
-110.051
-109.122
-108.178
-107.222
-106.253
-105.273
-104.281
-103.277
-102.261
-101.233
-100.192
-99.1398
-98.0758
-97.0008
-95.9151
-94.8189
-93.7122
-92.595
-91.4671
-90.3282
-89.1781
-88.0166
-86.8437
-85.6594
-84.4638
-83.2572
-82.0397
-80.8116
-79.5729
-78.3237
-77.0639
-75.7935
-74.5124
-73.2204
-71.9173
-70.6028
-69.2767
-67.9386
-66.5879
-65.2246
-63.8476
-62.4574
-61.0527
-59.6359
-58.2066
-56.7736
-55.3415
-53.9363
-214.008
-215.087
-216.899
-218.795
-220.652
-222.399
-223.946
-225.254
-226.394
-227.568
-228.893
-230.395
-232.033
-233.694
-235.239
-236.528
-237.427
-237.85
-237.751
-237.072
-235.789
-233.995
-231.86
-229.519
-227.045
-224.443
-221.645
-218.62
-215.456
-212.619
-210.321
-209.044
-208.586
-209.078
-210.232
-211.784
-213.526
-215.304
-217.037
-218.696
-220.29
-221.844
-223.389
-224.963
-226.596
-228.313
-230.128
-232.05
-234.08
-236.217
-238.456
-240.787
-243.197
-245.666
-248.166
-250.666
-253.125
-255.493
-257.715
-259.722
-261.443
-262.801
-263.725
-264.15
-264.025
-263.315
-262.004
-260.1
-257.642
-254.688
-251.315
-247.609
-243.656
-239.539
-235.329
-231.086
-226.847
-222.635
-218.454
-214.292
-210.123
-205.913
-201.625
-197.221
-192.666
-187.943
-183.053
-178.034
-172.961
-167.934
-163.063
-158.437
-154.121
-150.149
-146.54
-143.312
-140.476
-138.017
-135.896
-134.069
-132.502
-131.186
-130.136
-129.338
-128.713
-128.183
-127.715
-127.284
-126.841
-126.353
-125.839
-125.325
-124.81
-124.284
-123.738
-123.167
-122.572
-121.954
-121.313
-120.649
-119.96
-119.248
-118.512
-117.755
-116.975
-116.175
-115.355
-114.517
-113.662
-112.79
-111.903
-111
-110.082
-109.15
-108.205
-107.246
-106.276
-105.293
-104.298
-103.292
-102.274
-101.244
-100.202
-99.1482
-98.0831
-97.007
-95.9203
-94.8232
-93.7156
-92.5976
-91.469
-90.3296
-89.1791
-88.0173
-86.8442
-85.6596
-84.4639
-83.2572
-82.0398
-80.8117
-79.5731
-78.3241
-77.0646
-75.7946
-74.5139
-73.2224
-71.92
-70.6064
-69.2813
-67.9445
-66.5957
-65.2346
-63.8608
-62.4747
-61.0758
-59.6662
-58.2473
-56.8261
-55.4092
-54.0144
-218.03
-218.901
-220.208
-221.718
-223.276
-224.752
-226.063
-227.203
-228.301
-229.55
-231.01
-232.672
-234.468
-236.262
-237.909
-239.278
-240.249
-240.723
-240.643
-239.945
-238.595
-236.682
-234.408
-231.977
-229.49
-226.939
-224.257
-221.424
-218.684
-216.244
-214.528
-213.436
-213.098
-213.466
-214.35
-215.58
-216.988
-218.465
-219.947
-221.41
-222.859
-224.314
-225.798
-227.336
-228.946
-230.643
-232.439
-234.337
-236.345
-238.463
-240.692
-243.027
-245.458
-247.968
-250.533
-253.122
-255.697
-258.207
-260.59
-262.774
-264.672
-266.195
-267.251
-267.763
-267.661
-266.903
-265.456
-263.345
-260.621
-257.361
-253.659
-249.623
-245.358
-240.966
-236.53
-232.115
-227.764
-223.498
-219.317
-215.2
-211.112
-207.011
-202.847
-198.572
-194.143
-189.526
-184.708
-179.714
-174.618
-169.53
-164.576
-159.867
-155.473
-151.438
-147.779
-144.497
-141.603
-139.104
-136.968
-135.134
-133.557
-132.207
-131.073
-130.162
-129.445
-128.839
-128.299
-127.797
-127.288
-126.744
-126.189
-125.642
-125.096
-124.537
-123.959
-123.36
-122.741
-122.102
-121.441
-120.76
-120.059
-119.337
-118.594
-117.829
-117.043
-116.237
-115.413
-114.57
-113.711
-112.835
-111.944
-111.037
-110.116
-109.181
-108.233
-107.272
-106.299
-105.314
-104.317
-103.309
-102.289
-101.257
-100.213
-99.1576
-98.0912
-97.014
-95.9261
-94.8279
-93.7194
-92.6006
-91.4714
-90.3314
-89.1805
-88.0184
-86.845
-85.6603
-84.4644
-83.2576
-82.0401
-80.812
-79.5736
-78.3248
-77.0656
-75.7959
-74.5157
-73.2248
-71.923
-70.6102
-69.2862
-67.9509
-66.6039
-65.2452
-63.8745
-62.4924
-61.099
-59.6962
-58.2864
-56.8753
-55.4699
-54.083
-221.314
-221.936
-222.889
-224.059
-225.292
-226.465
-227.535
-228.514
-229.547
-230.774
-232.227
-233.882
-235.658
-237.415
-239.006
-240.307
-241.217
-241.663
-241.574
-240.911
-239.645
-237.864
-235.748
-233.488
-231.17
-228.782
-226.323
-223.857
-221.579
-219.672
-218.302
-217.403
-217.123
-217.359
-218.008
-218.942
-220.043
-221.237
-222.478
-223.752
-225.063
-226.424
-227.852
-229.358
-230.952
-232.64
-234.426
-236.317
-238.32
-240.442
-242.688
-245.058
-247.544
-250.131
-252.797
-255.517
-258.253
-260.96
-263.575
-266.016
-268.181
-269.955
-271.222
-271.871
-271.815
-271.001
-269.416
-267.081
-264.056
-260.433
-256.334
-251.895
-247.249
-242.518
-237.802
-233.174
-228.678
-224.332
-220.13
-216.043
-212.029
-208.037
-204.017
-199.915
-195.678
-191.25
-186.589
-181.69
-176.605
-171.446
-166.364
-161.504
-156.963
-152.815
-149.076
-145.733
-142.772
-140.202
-138.017
-136.165
-134.574
-133.192
-131.997
-130.995
-130.174
-129.479
-128.85
-128.265
-127.697
-127.119
-126.535
-125.963
-125.389
-124.794
-124.182
-123.554
-122.912
-122.253
-121.577
-120.882
-120.168
-119.436
-118.686
-117.914
-117.12
-116.307
-115.476
-114.628
-113.764
-112.884
-111.989
-111.078
-110.154
-109.216
-108.264
-107.301
-106.325
-105.337
-104.338
-103.328
-102.306
-101.271
-100.226
-99.1685
-98.1005
-97.0219
-95.9328
-94.8335
-93.724
-92.6043
-91.4743
-90.3337
-89.1823
-88.0199
-86.8463
-85.6614
-84.4654
-83.2585
-82.0408
-80.8128
-79.5744
-78.3257
-77.0668
-75.7975
-74.5177
-73.2273
-71.9262
-70.6143
-69.2915
-67.9575
-66.6124
-65.256
-63.8885
-62.5102
-61.1219
-59.7255
-58.3234
-56.9209
-55.5244
-54.1435
-223.586
-224.04
-224.72
-225.59
-226.53
-227.449
-228.311
-229.134
-230.032
-231.109
-232.39
-233.867
-235.465
-237.092
-238.527
-239.682
-240.451
-240.776
-240.643
-240.027
-238.947
-237.473
-235.715
-233.789
-231.763
-229.664
-227.544
-225.513
-223.717
-222.264
-221.14
-220.426
-220.184
-220.34
-220.833
-221.56
-222.446
-223.438
-224.508
-225.649
-226.865
-228.164
-229.554
-231.039
-232.619
-234.295
-236.07
-237.953
-239.956
-242.094
-244.375
-246.801
-249.362
-252.047
-254.839
-257.724
-260.679
-263.667
-266.624
-269.455
-272.033
-274.209
-275.82
-276.706
-276.757
-275.915
-274.19
-271.588
-268.181
-264.089
-259.475
-254.513
-249.379
-244.22
-239.153
-234.259
-229.58
-225.133
-220.901
-216.845
-212.912
-209.041
-205.176
-201.26
-197.226
-192.994
-188.507
-183.727
-178.686
-173.497
-168.319
-163.32
-158.615
-154.305
-150.44
-147.006
-143.957
-141.288
-139.021
-137.128
-135.523
-134.131
-132.905
-131.828
-130.906
-130.117
-129.407
-128.739
-128.101
-127.484
-126.883
-126.289
-125.688
-125.061
-124.413
-123.753
-123.086
-122.409
-121.717
-121.009
-120.284
-119.542
-118.783
-118.004
-117.204
-116.383
-115.545
-114.691
-113.822
-112.937
-112.037
-111.123
-110.194
-109.252
-108.298
-107.331
-106.352
-105.362
-104.361
-103.348
-102.323
-101.287
-100.239
-99.1803
-98.1106
-97.0305
-95.9401
-94.8396
-93.7291
-92.6085
-91.4776
-90.3363
-89.1845
-88.0217
-86.8479
-85.6628
-84.4666
-83.2595
-82.0418
-80.8137
-79.5754
-78.3268
-77.0681
-75.7991
-74.5198
-73.23
-71.9296
-70.6186
-69.2969
-67.9644
-66.621
-65.267
-63.9024
-62.5279
-61.1444
-59.7536
-58.3583
-56.963
-55.5733
-54.1969
-224.797
-225.128
-225.64
-226.312
-227.041
-227.754
-228.423
-229.06
-229.754
-230.589
-231.592
-232.773
-234.094
-235.434
-236.659
-237.651
-238.318
-238.606
-238.481
-237.951
-237.057
-235.862
-234.441
-232.862
-231.179
-229.452
-227.772
-226.226
-224.875
-223.744
-222.861
-222.334
-222.172
-222.333
-222.762
-223.386
-224.157
-225.038
-226.013
-227.081
-228.246
-229.513
-230.882
-232.35
-233.913
-235.569
-237.323
-239.191
-241.194
-243.353
-245.676
-248.166
-250.815
-253.616
-256.571
-259.686
-262.963
-266.381
-269.87
-273.305
-276.503
-279.247
-281.318
-282.521
-282.721
-281.852
-279.917
-276.948
-273.04
-268.353
-263.093
-257.484
-251.748
-246.067
-240.578
-235.366
-230.475
-225.912
-221.652
-217.632
-213.771
-209.983
-206.188
-202.322
-198.333
-194.14
-189.706
-185.004
-180.063
-174.993
-169.931
-164.988
-160.262
-155.85
-151.855
-148.308
-145.165
-142.392
-140.017
-138.057
-136.425
-135.013
-133.765
-132.648
-131.648
-130.762
-129.97
-129.237
-128.543
-127.88
-127.245
-126.625
-125.995
-125.34
-124.661
-123.97
-123.276
-122.576
-121.868
-121.146
-120.409
-119.656
-118.887
-118.1
-117.293
-116.465
-115.62
-114.759
-113.884
-112.994
-112.09
-111.171
-110.238
-109.292
-108.334
-107.364
-106.382
-105.389
-104.386
-103.37
-102.343
-101.304
-100.254
-99.193
-98.1215
-97.0398
-95.9481
-94.8464
-93.7348
-92.6132
-91.4815
-90.3395
-89.187
-88.0238
-86.8497
-85.6645
-84.4681
-83.2609
-82.043
-80.8149
-79.5765
-78.3281
-77.0696
-75.801
-74.522
-73.2328
-71.9331
-70.623
-69.3024
-67.9713
-66.6298
-65.278
-63.9163
-62.5453
-61.166
-59.7804
-58.391
-57.0016
-55.6174
-54.2444
-225.1
-225.358
-225.762
-226.326
-226.909
-227.477
-227.997
-228.465
-228.94
-229.486
-230.136
-230.914
-231.814
-232.766
-233.668
-234.421
-234.947
-235.163
-235.075
-234.676
-233.991
-233.07
-231.976
-230.773
-229.521
-228.276
-227.085
-225.979
-224.975
-224.119
-223.505
-223.198
-223.181
-223.425
-223.876
-224.487
-225.226
-226.068
-227.011
-228.053
-229.2
-230.453
-231.808
-233.258
-234.796
-236.422
-238.147
-239.994
-241.993
-244.172
-246.543
-249.108
-251.865
-254.822
-258.008
-261.461
-265.208
-269.232
-273.436
-277.636
-281.572
-284.956
-287.522
-289.051
-289.395
-288.479
-286.306
-282.928
-278.471
-273.128
-267.15
-260.812
-254.389
-248.111
-242.139
-236.568
-231.441
-226.753
-222.466
-218.481
-214.679
-210.909
-207.066
-203.077
-198.914
-194.569
-190.045
-185.362
-180.557
-175.714
-170.925
-166.237
-161.675
-157.303
-153.25
-149.621
-146.408
-143.557
-141.081
-139.03
-137.351
-135.91
-134.621
-133.456
-132.399
-131.436
-130.558
-129.755
-129.007
-128.304
-127.633
-126.978
-126.317
-125.633
-124.927
-124.208
-123.487
-122.764
-122.036
-121.299
-120.55
-119.785
-119.004
-118.206
-117.389
-116.555
-115.702
-114.834
-113.952
-113.056
-112.146
-111.222
-110.285
-109.335
-108.372
-107.399
-106.414
-105.418
-104.411
-103.393
-102.364
-101.322
-100.27
-99.2067
-98.1334
-97.0499
-95.9566
-94.8537
-93.7411
-92.6185
-91.4858
-90.343
-89.1898
-88.0261
-86.8516
-85.6661
-84.4696
-83.2623
-82.0444
-80.8161
-79.5778
-78.3296
-77.0713
-75.8029
-74.5244
-73.2357
-71.9367
-70.6275
-69.308
-67.9783
-66.6385
-65.2888
-63.9298
-62.5621
-61.1868
-59.8057
-58.4213
-57.037
-55.657
-54.2865
-224.607
-224.829
-225.209
-225.717
-226.254
-226.759
-227.197
-227.558
-227.874
-228.184
-228.517
-228.899
-229.338
-229.811
-230.258
-230.615
-230.827
-230.903
-230.808
-230.534
-230.089
-229.501
-228.804
-228.037
-227.233
-226.417
-225.607
-224.826
-224.121
-223.581
-223.28
-223.231
-223.412
-223.789
-224.322
-224.98
-225.74
-226.593
-227.54
-228.584
-229.73
-230.977
-232.318
-233.744
-235.251
-236.84
-238.528
-240.348
-242.339
-244.539
-246.966
-249.624
-252.522
-255.687
-259.177
-263.06
-267.381
-272.11
-277.098
-282.083
-286.732
-290.706
-293.717
-295.545
-296.038
-295.11
-292.776
-289.072
-284.133
-278.179
-271.491
-264.4
-257.243
-250.317
-243.818
-237.853
-232.468
-227.651
-223.358
-219.439
-215.719
-211.993
-208.099
-203.95
-199.549
-194.961
-190.263
-185.518
-180.781
-176.117
-171.58
-167.161
-162.812
-158.546
-154.493
-150.814
-147.569
-144.712
-142.201
-140.069
-138.316
-136.834
-135.507
-134.289
-133.166
-132.135
-131.186
-130.311
-129.502
-128.749
-128.039
-127.35
-126.656
-125.944
-125.212
-124.467
-123.72
-122.974
-122.225
-121.47
-120.706
-119.928
-119.134
-118.323
-117.495
-116.652
-115.791
-114.915
-114.025
-113.122
-112.206
-111.277
-110.334
-109.38
-108.413
-107.435
-106.447
-105.448
-104.438
-103.418
-102.385
-101.342
-100.287
-99.2214
-98.1463
-97.0611
-95.9661
-94.8617
-93.7479
-92.6243
-91.4907
-90.3469
-89.1928
-88.0284
-86.8535
-85.6678
-84.4711
-83.2637
-82.0458
-80.8175
-79.5793
-78.3311
-77.073
-75.8049
-74.5268
-73.2386
-71.9404
-70.632
-69.3135
-67.9851
-66.647
-65.2994
-63.9429
-62.5782
-61.2064
-59.8294
-58.4493
-57.0692
-55.6927
-54.3241
-223.31
-223.544
-223.961
-224.507
-225.09
-225.634
-226.089
-226.438
-226.69
-226.872
-227.005
-227.112
-227.209
-227.294
-227.349
-227.352
-227.31
-227.196
-227.004
-226.736
-226.398
-226
-225.55
-225.057
-224.529
-223.98
-223.435
-222.944
-222.583
-222.411
-222.45
-222.683
-223.084
-223.623
-224.267
-224.999
-225.807
-226.692
-227.657
-228.711
-229.859
-231.097
-232.419
-233.816
-235.286
-236.832
-238.482
-240.272
-242.252
-244.47
-246.955
-249.719
-252.782
-256.183
-260
-264.321
-269.197
-274.577
-280.261
-285.923
-291.177
-295.656
-299.064
-301.186
-301.863
-301.005
-298.598
-294.665
-289.349
-282.887
-275.588
-267.821
-259.985
-252.447
-245.447
-239.097
-233.443
-228.495
-224.195
-220.398
-216.865
-213.307
-209.473
-205.232
-200.607
-195.734
-190.769
-185.839
-181.039
-176.456
-172.12
-167.944
-163.782
-159.595
-155.54
-151.828
-148.56
-145.709
-143.22
-141.077
-139.269
-137.735
-136.375
-135.121
-133.948
-132.854
-131.841
-130.904
-130.035
-129.227
-128.471
-127.743
-127.016
-126.274
-125.516
-124.747
-123.975
-123.204
-122.433
-121.658
-120.875
-120.082
-119.274
-118.45
-117.61
-116.755
-115.886
-115.001
-114.103
-113.192
-112.269
-111.334
-110.386
-109.426
-108.455
-107.473
-106.481
-105.479
-104.466
-103.442
-102.408
-101.362
-100.304
-99.2372
-98.1602
-97.0733
-95.9766
-94.8705
-93.7553
-92.6306
-91.496
-90.3512
-89.1962
-88.031
-86.8554
-85.6694
-84.4726
-83.2651
-82.0472
-80.819
-79.5807
-78.3327
-77.0748
-75.807
-74.5293
-73.2416
-71.944
-70.6364
-69.319
-67.9918
-66.6553
-65.3096
-63.9554
-62.5935
-61.2249
-59.8514
-58.475
-57.0984
-55.7248
-54.3575
-221.149
-221.428
-221.936
-222.605
-223.333
-224.02
-224.599
-225.042
-225.341
-225.51
-225.566
-225.529
-225.424
-225.262
-225.049
-224.794
-224.493
-224.158
-223.792
-223.4
-222.989
-222.567
-222.143
-221.73
-221.34
-220.995
-220.735
-220.611
-220.658
-220.884
-221.271
-221.792
-222.417
-223.119
-223.88
-224.69
-225.546
-226.458
-227.435
-228.49
-229.627
-230.846
-232.14
-233.503
-234.934
-236.434
-238.045
-239.803
-241.766
-243.99
-246.521
-249.382
-252.598
-256.214
-260.31
-264.984
-270.289
-276.152
-282.341
-288.489
-294.182
-299.04
-302.762
-305.122
-305.956
-305.194
-302.768
-298.699
-293.134
-286.315
-278.643
-270.44
-262.141
-254.178
-246.824
-240.185
-234.298
-229.202
-224.9
-221.264
-218.009
-214.733
-211.05
-206.744
-201.864
-196.648
-191.357
-186.188
-181.273
-176.719
-172.538
-168.573
-164.577
-160.458
-156.407
-152.695
-149.442
-146.604
-144.123
-141.98
-140.153
-138.583
-137.192
-135.912
-134.708
-133.571
-132.508
-131.518
-130.596
-129.736
-128.931
-128.161
-127.398
-126.626
-125.84
-125.045
-124.249
-123.452
-122.656
-121.859
-121.056
-120.245
-119.421
-118.583
-117.73
-116.865
-115.985
-115.091
-114.184
-113.265
-112.335
-111.393
-110.44
-109.475
-108.499
-107.513
-106.516
-105.51
-104.493
-103.467
-102.43
-101.382
-100.323
-99.2537
-98.1748
-97.0862
-95.9878
-94.88
-93.7632
-92.6373
-91.5017
-90.3558
-89.1999
-88.0338
-86.8576
-85.6711
-84.4741
-83.2665
-82.0486
-80.8204
-79.5823
-78.3343
-77.0766
-75.8091
-74.5318
-73.2446
-71.9475
-70.6407
-69.3243
-67.9983
-66.6632
-65.3194
-63.9673
-62.6078
-61.2422
-59.8717
-58.4985
-57.1249
-55.7535
-54.3873
-218.103
-218.435
-219.049
-219.867
-220.784
-221.68
-222.468
-223.094
-223.532
-223.773
-223.825
-223.705
-223.439
-223.05
-222.563
-222.007
-221.389
-220.74
-220.09
-219.466
-218.895
-218.397
-217.991
-217.693
-217.526
-217.515
-217.682
-218.029
-218.543
-219.19
-219.935
-220.744
-221.589
-222.449
-223.315
-224.185
-225.069
-225.984
-226.947
-227.975
-229.079
-230.257
-231.509
-232.829
-234.217
-235.682
-237.253
-238.975
-240.908
-243.118
-245.663
-248.584
-251.911
-255.688
-259.982
-264.875
-270.407
-276.505
-282.932
-289.317
-295.234