/*--------------------------------*- C++ -*----------------------------------*\
  =========                 |
  \\      /  F ield         | OpenFOAM: The Open Source CFD Toolbox
   \\    /   O peration     | Website:  https://openfoam.org
    \\  /    A nd           | Version:  9
     \\/     M anipulation  |
\*---------------------------------------------------------------------------*/
FoamFile
{
    format      ascii;
    class       surfaceScalarField;
    location    "0.033";
    object      phi;
}
// * * * * * * * * * * * * * * * * * * * * * * * * * * * * * * * * * * * * * //

dimensions      [0 3 -1 0 0 0 0];

internalField   nonuniform List<scalar> 
24170
(
3.16267e-06
1.14434e-07
2.99674e-06
1.65935e-07
2.87945e-06
1.17287e-07
2.81546e-06
6.3991e-08
2.76719e-06
4.82732e-08
2.69626e-06
7.09284e-08
2.59773e-06
9.8531e-08
2.48623e-06
1.115e-07
2.3726e-06
1.13629e-07
2.26201e-06
1.10584e-07
2.15839e-06
1.03624e-07
2.06605e-06
9.2343e-08
1.98145e-06
8.4601e-08
1.89783e-06
8.36205e-08
1.8092e-06
8.86286e-08
1.70628e-06
1.02913e-07
1.58218e-06
1.24107e-07
1.57518e-07
1.42466e-06
3.49953e-06
1.13614e-07
3.48678e-06
1.78691e-07
3.46077e-06
1.43291e-07
3.44925e-06
7.55118e-08
3.46147e-06
3.60559e-08
3.4848e-06
4.75951e-08
3.49661e-06
8.67224e-08
3.48625e-06
1.21858e-07
3.45969e-06
1.40196e-07
3.42893e-06
1.41343e-07
3.40035e-06
1.322e-07
3.37231e-06
1.20387e-07
3.33988e-06
1.17026e-07
3.29701e-06
1.26499e-07
3.24171e-06
1.43927e-07
3.17405e-06
1.70571e-07
3.09303e-06
2.05124e-07
2.4925e-07
3.0013e-06
3.62408e-06
2.18669e-07
3.62224e-06
1.80524e-07
3.66072e-06
1.04813e-07
3.68495e-06
5.12858e-08
3.6929e-06
2.81061e-08
3.69979e-06
4.06994e-08
3.71196e-06
7.45523e-08
3.72295e-06
1.10869e-07
3.72557e-06
1.37582e-07
3.71771e-06
1.49196e-07
3.7017e-06
1.48211e-07
3.68126e-06
1.40828e-07
3.66184e-06
1.36442e-07
3.64626e-06
1.42083e-07
3.63372e-06
1.5647e-07
3.62221e-06
1.82078e-07
3.60968e-06
2.17654e-07
2.63701e-07
3.59523e-06
4.01325e-06
3.18593e-07
3.98278e-06
2.10996e-07
3.9665e-06
1.21094e-07
3.95891e-06
5.88691e-08
3.96759e-06
1.94347e-08
3.98621e-06
2.20764e-08
3.99955e-06
6.12093e-08
3.99497e-06
1.15453e-07
3.97059e-06
1.61961e-07
3.93448e-06
1.85305e-07
3.89779e-06
1.84902e-07
3.86825e-06
1.70365e-07
3.85049e-06
1.54202e-07
3.84574e-06
1.46834e-07
3.85183e-06
1.50377e-07
3.86676e-06
1.67154e-07
3.88891e-06
1.95505e-07
2.36887e-07
3.91572e-06
4.21989e-06
2.69492e-07
4.26944e-06
1.61453e-07
4.28465e-06
1.05881e-07
4.27654e-06
6.69837e-08
4.26345e-06
3.25195e-08
4.25005e-06
3.54774e-08
4.23845e-06
7.28105e-08
4.23092e-06
1.22983e-07
4.22852e-06
1.64362e-07
4.22909e-06
1.84729e-07
4.22847e-06
1.85526e-07
4.2224e-06
1.76431e-07
4.2098e-06
1.66802e-07
4.19316e-06
1.63479e-07
4.17707e-06
1.66466e-07
4.16646e-06
1.77759e-07
4.16575e-06
1.9622e-07
2.25768e-07
4.17687e-06
4.45936e-06
1.96034e-07
4.4957e-06
1.25112e-07
4.49305e-06
1.0853e-07
4.47653e-06
8.35064e-08
4.46043e-06
4.86151e-08
4.458e-06
3.79147e-08
4.47033e-06
6.04819e-08
4.48894e-06
1.04373e-07
4.50589e-06
1.47409e-07
4.51682e-06
1.73798e-07
4.52041e-06
1.81937e-07
4.51733e-06
1.79507e-07
4.50945e-06
1.74681e-07
4.49883e-06
1.741e-07
4.48689e-06
1.78406e-07
4.47592e-06
1.88731e-07
4.46907e-06
2.03067e-07
2.23126e-07
4.47172e-06
4.82833e-06
8.73972e-08
4.91563e-06
3.78067e-08
4.93524e-06
8.89243e-08
4.9201e-06
9.86442e-08
4.89684e-06
7.18736e-08
4.87599e-06
5.87635e-08
4.85922e-06
7.72563e-08
4.84895e-06
1.14639e-07
4.84647e-06
1.4989e-07
4.85004e-06
1.70229e-07
4.85751e-06
1.74463e-07
4.867e-06
1.70025e-07
4.87653e-06
1.65142e-07
4.884e-06
1.66633e-07
4.88643e-06
1.75978e-07
4.88323e-06
1.91935e-07
4.87517e-06
2.11127e-07
2.30206e-07
4.86809e-06
5.1241e-06
1.15764e-07
5.17814e-06
-1.62344e-08
5.23211e-06
3.49601e-08
5.2678e-06
6.29512e-08
5.28412e-06
5.55493e-08
5.29353e-06
4.93601e-08
5.3021e-06
6.86863e-08
5.30471e-06
1.12026e-07
5.29665e-06
1.57952e-07
5.27813e-06
1.88749e-07
5.25327e-06
1.99318e-07
5.22867e-06
1.94633e-07
5.2102e-06
1.8361e-07
5.20168e-06
1.75152e-07
5.20276e-06
1.74898e-07
5.21057e-06
1.84122e-07
5.22152e-06
2.00173e-07
2.18841e-07
5.23289e-06
5.63952e-06
-1.39999e-08
5.64505e-06
-2.17705e-08
5.64091e-06
3.90975e-08
5.60555e-06
9.83146e-08
5.54864e-06
1.12461e-07
5.50415e-06
9.38516e-08
5.49002e-06
8.28177e-08
5.50302e-06
9.90237e-08
5.52889e-06
1.32085e-07
5.5557e-06
1.61932e-07
5.57708e-06
1.77939e-07
5.59076e-06
1.80951e-07
5.59587e-06
1.78504e-07
5.59276e-06
1.78266e-07
5.58431e-06
1.83343e-07
5.57445e-06
1.93982e-07
5.56863e-06
2.05995e-07
2.16985e-07
5.57049e-06
5.95731e-06
8.92022e-08
5.89939e-06
3.61423e-08
5.89422e-06
4.42697e-08
5.91676e-06
7.57742e-08
5.95271e-06
7.65104e-08
5.989e-06
5.7569e-08
6.01344e-06
5.83722e-08
6.01674e-06
9.57286e-08
5.99943e-06
1.49394e-07
5.97052e-06
1.90834e-07
5.94242e-06
2.06043e-07
5.92444e-06
1.98931e-07
5.91981e-06
1.83133e-07
5.92552e-06
1.7256e-07
5.93563e-06
1.73233e-07
5.94579e-06
1.8382e-07
5.95362e-06
1.98161e-07
2.08941e-07
5.96167e-06
6.45312e-06
-8.92319e-08
6.43848e-06
5.07896e-08
6.42611e-06
5.6633e-08
6.43114e-06
7.07483e-08
6.43802e-06
6.96259e-08
6.43712e-06
5.84719e-08
6.42298e-06
7.25095e-08
6.40141e-06
1.17304e-07
6.37728e-06
1.73518e-07
6.35267e-06
2.15444e-07
6.32984e-06
2.28873e-07
6.31197e-06
2.16805e-07
6.30278e-06
1.92319e-07
6.30494e-06
1.70401e-07
6.31791e-06
1.60267e-07
6.33929e-06
1.62433e-07
6.36352e-06
1.73938e-07
1.86825e-07
6.38563e-06
5.74037e-06
1.86236e-08
5.68272e-06
1.08443e-07
5.67373e-06
6.56201e-08
5.70446e-06
4.002e-08
5.74181e-06
3.2279e-08
5.75846e-06
4.18206e-08
5.7511e-06
7.98692e-08
5.73393e-06
1.34468e-07
5.72281e-06
1.84644e-07
5.72482e-06
2.13432e-07
5.73825e-06
2.1544e-07
5.75674e-06
1.98319e-07
5.77347e-06
1.75589e-07
5.78433e-06
1.59543e-07
5.78812e-06
1.56473e-07
5.78625e-06
1.64309e-07
5.78055e-06
1.79636e-07
1.94828e-07
5.77254e-06
6.89015e-06
2.76733e-08
6.93518e-06
6.34106e-08
6.95144e-06
4.93582e-08
6.98555e-06
5.90865e-09
7.02926e-06
-1.14246e-08
7.0636e-06
7.47822e-09
7.07665e-06
6.68189e-08
7.07619e-06
1.34923e-07
7.07037e-06
1.90463e-07
7.06387e-06
2.19937e-07
7.05853e-06
2.20781e-07
7.056e-06
2.00843e-07
7.05751e-06
1.74088e-07
7.06382e-06
1.53223e-07
7.07378e-06
1.46518e-07
7.085e-06
1.5309e-07
7.09515e-06
1.69482e-07
1.88534e-07
7.10145e-06
8.84463e-06
1.83096e-07
8.76096e-06
1.47075e-07
8.70921e-06
1.01106e-07
8.6436e-06
7.15247e-08
8.5704e-06
6.17738e-08
8.50908e-06
6.87985e-08
8.48089e-06
9.50107e-08
8.48482e-06
1.30993e-07
8.51032e-06
1.6496e-07
8.54267e-06
1.87581e-07
8.56879e-06
1.94666e-07
8.58166e-06
1.87975e-07
8.58177e-06
1.73973e-07
8.57492e-06
1.60075e-07
8.56825e-06
1.53191e-07
8.56609e-06
1.55243e-07
8.57009e-06
1.65485e-07
1.79885e-07
8.57874e-06
1.06567e-05
1.33109e-07
1.06408e-05
1.62956e-07
1.05645e-05
1.77422e-07
1.05102e-05
1.25818e-07
1.04835e-05
8.85094e-08
1.04646e-05
8.76634e-08
1.04438e-05
1.15804e-07
1.04224e-05
1.52407e-07
1.04074e-05
1.79934e-07
1.04033e-05
1.91671e-07
1.04091e-05
1.88946e-07
1.04199e-05
1.77096e-07
1.04309e-05
1.62997e-07
1.04386e-05
1.52353e-07
1.04422e-05
1.4962e-07
1.04425e-05
1.54933e-07
1.04404e-05
1.67607e-07
1.85138e-07
1.04351e-05
1.26097e-05
-2.2212e-09
1.26896e-05
8.30699e-08
1.27164e-05
1.50683e-07
1.27084e-05
1.33793e-07
1.27201e-05
7.67663e-08
1.27593e-05
4.84772e-08
1.28017e-05
7.34566e-08
1.28273e-05
1.26799e-07
1.28353e-05
1.71929e-07
1.28359e-05
1.91057e-07
1.28377e-05
1.87164e-07
1.28424e-05
1.7236e-07
1.28472e-05
1.58162e-07
1.28486e-05
1.51021e-07
1.28448e-05
1.53414e-07
1.28361e-05
1.63641e-07
1.28237e-05
1.79936e-07
1.97774e-07
1.28111e-05
1.54612e-05
6.13883e-08
1.55756e-05
-3.12839e-08
1.56974e-05
2.88466e-08
1.57245e-05
1.06718e-07
1.56605e-05
1.40785e-07
1.55587e-05
1.50256e-07
1.54813e-05
1.50895e-07
1.54649e-05
1.43156e-07
1.55119e-05
1.24943e-07
1.55997e-05
1.03204e-07
1.56973e-05
8.96469e-08
1.57766e-05
9.29823e-08
1.5821e-05
1.13756e-07
1.58249e-05
1.47171e-07
1.57931e-05
1.85169e-07
1.57359e-05
2.20897e-07
1.56653e-05
2.50509e-07
2.71353e-07
1.55917e-05
1.84309e-05
5.25928e-08
1.85019e-05
-1.02343e-07
1.86304e-05
-9.96659e-08
1.87335e-05
3.65879e-09
1.87823e-05
9.19403e-08
1.87967e-05
1.3588e-07
1.8808e-05
1.39567e-07
1.88329e-05
1.18248e-07
1.8864e-05
9.39014e-08
1.88854e-05
8.18293e-08
1.88875e-05
8.74663e-08
1.887e-05
1.10523e-07
1.88383e-05
1.45471e-07
1.88002e-05
1.85258e-07
1.87641e-05
2.21266e-07
1.87365e-05
2.48508e-07
1.87233e-05
2.63662e-07
2.66418e-07
1.87283e-05
2.25152e-05
-2.06354e-08
2.25793e-05
-1.66445e-07
2.26023e-05
-1.22612e-07
2.26024e-05
3.57104e-09
2.2621e-05
7.33216e-08
2.26941e-05
6.27451e-08
2.28167e-05
1.69946e-08
2.29544e-05
-1.95211e-08
2.30716e-05
-2.32909e-08
2.31483e-05
5.14619e-09
2.31834e-05
5.24292e-08
2.31873e-05
1.06558e-07
2.3179e-05
1.5375e-07
2.31785e-05
1.85788e-07
2.31996e-05
2.00163e-07
2.3248e-05
2.0009e-07
2.33218e-05
1.89864e-07
1.76513e-07
2.34117e-05
1.70508e-05
-3.09616e-08
1.71351e-05
-2.50679e-07
1.71049e-05
-9.24227e-08
1.70384e-05
7.00454e-08
1.69785e-05
1.33195e-07
1.69221e-05
1.19163e-07
1.68686e-05
7.04778e-08
1.68273e-05
2.18498e-08
1.6808e-05
-4.0708e-09
1.68192e-05
-5.96786e-09
1.68627e-05
8.90388e-09
1.69368e-05
3.24458e-08
1.70329e-05
5.76774e-08
1.71368e-05
8.18173e-08
1.72329e-05
1.04053e-07
1.731e-05
1.23021e-07
1.73615e-05
1.3841e-07
1.48343e-07
1.73896e-05
1.48473e-05
-6.64575e-08
1.46608e-05
-6.41739e-08
1.46425e-05
-7.42175e-08
1.47224e-05
-9.77613e-09
1.47978e-05
5.7747e-08
1.48395e-05
7.75096e-08
1.48521e-05
5.78038e-08
1.48393e-05
3.4658e-08
1.48108e-05
2.44908e-08
1.47819e-05
2.29239e-08
1.47716e-05
1.91451e-08
1.47938e-05
1.02998e-08
1.48489e-05
2.55763e-09
1.49276e-05
3.09755e-09
1.50141e-05
1.75474e-08
1.50938e-05
4.33906e-08
1.5156e-05
7.61387e-08
1.08739e-07
1.51956e-05
1.28308e-05
-1.243e-07
1.28344e-05
-6.78154e-08
1.28152e-05
-5.50672e-08
1.28188e-05
-1.32958e-08
1.282e-05
5.65378e-08
1.2811e-05
8.65112e-08
1.27956e-05
7.31704e-08
1.27861e-05
4.41448e-08
1.27872e-05
2.34297e-08
1.27946e-05
1.54948e-08
1.28023e-05
1.14226e-08
1.28101e-05
2.54304e-09
1.28222e-05
-9.59122e-09
1.28465e-05
-2.12166e-08
1.28872e-05
-2.30639e-08
1.29422e-05
-1.16413e-08
1.30072e-05
1.11659e-08
4.40014e-08
1.30719e-05
1.12474e-05
-5.64383e-08
1.12447e-05
-6.51151e-08
1.12241e-05
-3.43873e-08
1.12105e-05
2.99367e-10
1.12111e-05
5.58999e-08
1.12091e-05
8.85074e-08
1.1206e-05
7.63225e-08
1.12066e-05
4.34892e-08
1.12134e-05
1.66321e-08
1.12239e-05
5.05016e-09
1.12343e-05
9.49448e-10
1.12444e-05
-7.55698e-09
1.12545e-05
-1.96621e-08
1.12649e-05
-3.16675e-08
1.12771e-05
-3.5239e-08
1.12916e-05
-2.61188e-08
1.13074e-05
-4.60274e-09
2.74584e-08
1.13239e-05
9.67534e-06
2.22124e-08
9.65048e-06
-4.02626e-08
9.69326e-06
-7.71673e-08
9.72653e-06
-3.29669e-08
9.72177e-06
6.06605e-08
9.70999e-06
1.00289e-07
9.70795e-06
7.83563e-08
9.71177e-06
3.96776e-08
9.71088e-06
1.75136e-08
9.7041e-06
1.18366e-08
9.7e-06
5.04536e-09
9.70563e-06
-1.31834e-08
9.72668e-06
-4.07086e-08
9.75915e-06
-6.41426e-08
9.7954e-06
-7.14909e-08
9.82903e-06
-5.97423e-08
9.85653e-06
-3.21081e-08
3.72072e-09
9.88027e-06
8.12071e-06
1.62669e-09
8.21618e-06
-1.35726e-07
8.27719e-06
-1.38176e-07
8.31585e-06
-7.16319e-08
8.37868e-06
-2.16376e-09
8.44266e-06
3.63067e-08
8.48032e-06
4.06927e-08
8.48851e-06
3.14848e-08
8.48252e-06
2.35027e-08
8.47834e-06
1.60166e-08
8.48258e-06
8.07721e-10
8.4947e-06
-2.53003e-08
8.50889e-06
-5.49037e-08
8.52338e-06
-7.86315e-08
8.53908e-06
-8.7184e-08
8.55734e-06
-7.80082e-08
8.5792e-06
-5.39667e-08
-2.08616e-08
8.60378e-06
7.47658e-06
-9.8867e-08
7.4406e-06
-9.97401e-08
7.36517e-06
-6.27454e-08
7.34989e-06
-5.63505e-08
7.3909e-06
-4.31788e-08
7.4556e-06
-2.83948e-08
7.51696e-06
-2.06647e-08
7.56555e-06
-1.7105e-08
7.6004e-06
-1.13442e-08
7.61965e-06
-3.23304e-09
7.61857e-06
1.88324e-09
7.59578e-06
-2.51419e-09
7.55782e-06
-1.69354e-08
7.51553e-06
-3.6349e-08
7.4804e-06
-5.20512e-08
7.46011e-06
-5.7719e-08
7.45723e-06
-5.10836e-08
-3.25495e-08
7.46892e-06
6.44542e-06
-2.12096e-07
6.42021e-06
-7.45244e-08
6.42255e-06
-6.509e-08
6.41156e-06
-4.53613e-08
6.38773e-06
-1.93411e-08
6.37206e-06
-1.27242e-08
6.37507e-06
-2.36785e-08
6.39375e-06
-3.5782e-08
6.42319e-06
-4.07835e-08
6.45827e-06
-3.83176e-08
6.49273e-06
-3.25729e-08
6.51894e-06
-2.87299e-08
6.53088e-06
-2.88691e-08
6.52696e-06
-3.24323e-08
6.51125e-06
-3.6341e-08
6.4911e-06
-3.75718e-08
6.47434e-06
-3.43244e-08
-2.48786e-08
6.46667e-06
5.61176e-06
-2.35993e-07
5.62503e-06
-8.77875e-08
5.60932e-06
-4.93895e-08
5.6237e-06
-5.97391e-08
5.65408e-06
-4.97172e-08
5.67512e-06
-3.3766e-08
5.67644e-06
-2.50015e-08
5.66518e-06
-2.45177e-08
5.65439e-06
-2.99959e-08
5.65342e-06
-3.73488e-08
5.66463e-06
-4.37764e-08
5.68508e-06
-4.91803e-08
5.70987e-06
-5.36639e-08
5.73442e-06
-5.69798e-08
5.75577e-06
-5.76934e-08
5.77332e-06
-5.51212e-08
5.78783e-06
-4.88316e-08
-3.84206e-08
5.80137e-06
4.89572e-06
-1.29775e-07
4.90133e-06
-9.33996e-08
4.92275e-06
-7.08012e-08
4.92788e-06
-6.48694e-08
4.92497e-06
-4.6812e-08
4.92303e-06
-3.18295e-08
4.93149e-06
-3.34543e-08
4.9538e-06
-4.68321e-08
4.98422e-06
-6.04164e-08
5.01196e-06
-6.50889e-08
5.02783e-06
-5.96413e-08
5.02844e-06
-4.9792e-08
5.01683e-06
-4.20594e-08
4.99965e-06
-3.97984e-08
4.98349e-06
-4.15327e-08
4.97243e-06
-4.40591e-08
4.96781e-06
-4.42097e-08
-3.98981e-08
4.96929e-06
4.14365e-06
4.05025e-06
3.97945e-06
3.91458e-06
3.86777e-06
3.83594e-06
3.80248e-06
3.75565e-06
3.69523e-06
3.63014e-06
3.5705e-06
3.52071e-06
3.47865e-06
3.43885e-06
3.39732e-06
3.35326e-06
3.30905e-06
3.26915e-06
-5.36658e-07
5.36658e-07
-8.99694e-07
3.63036e-07
-1.11933e-06
2.19633e-07
-1.12641e-06
7.08588e-09
-8.58698e-07
-2.67714e-07
-3.4629e-07
-5.12408e-07
3.42665e-07
-6.88956e-07
1.12158e-06
-7.78919e-07
1.92636e-06
-8.04775e-07
2.70298e-06
-7.76621e-07
3.41433e-06
-7.11347e-07
4.03832e-06
-6.23995e-07
4.56269e-06
-5.24363e-07
4.98105e-06
-4.18365e-07
5.28938e-06
-3.08329e-07
5.48343e-06
-1.94053e-07
5.55737e-06
-7.39369e-08
5.50757e-06
4.98039e-08
5.32476e-06
1.82803e-07
5.00154e-06
3.23218e-07
4.53503e-06
4.66517e-07
3.92975e-06
6.05282e-07
3.18127e-06
7.4848e-07
2.32116e-06
8.6011e-07
1.3496e-06
9.71558e-07
4.46105e-07
9.03493e-07
-1.66799e-07
6.12904e-07
-6.44353e-07
4.77554e-07
-9.95173e-07
3.5082e-07
-1.11922e-06
1.24048e-07
-1.02743e-06
-9.17866e-08
-7.56622e-07
-2.70812e-07
-1.75814e-07
-5.80809e-07
6.82888e-07
-8.58702e-07
1.42054e-06
-7.37655e-07
1.90957e-06
-4.89032e-07
2.16964e-06
-2.60067e-07
2.1267e-06
4.29399e-08
2.02661e-06
1.00092e-07
1.92873e-06
9.78828e-08
1.62056e-06
3.08172e-07
7.43239e-07
8.77317e-07
-6.00866e-07
1.3441e-06
-1.99774e-06
1.39687e-06
-3.31742e-06
1.31968e-06
-4.53085e-06
1.21343e-06
-5.62816e-06
1.09731e-06
-6.60967e-06
9.81515e-07
-7.48235e-06
8.72673e-07
-8.25664e-06
7.74292e-07
-8.94441e-06
6.87768e-07
-9.55732e-06
6.12917e-07
-1.01058e-05
5.48507e-07
-1.05988e-05
4.93006e-07
-1.10436e-05
4.44792e-07
-1.14459e-05
4.02227e-07
-1.18096e-05
3.63722e-07
-1.21374e-05
3.2781e-07
-1.24306e-05
2.93252e-07
-1.26897e-05
2.59102e-07
-1.29145e-05
2.2476e-07
-1.31044e-05
1.89878e-07
-1.32586e-05
1.54199e-07
-1.33762e-05
1.17634e-07
-1.34566e-05
8.03852e-08
-1.34994e-05
4.28312e-08
-1.35044e-05
4.95341e-09
-1.34763e-05
-2.80554e-08
-1.3416e-05
-6.03145e-08
-1.33249e-05
-9.11601e-08
-1.32049e-05
-1.19913e-07
-1.30582e-05
-1.46709e-07
-1.28869e-05
-1.71374e-07
-1.26926e-05
-1.94217e-07
-1.24771e-05
-2.15536e-07
-1.22413e-05
-2.35823e-07
-1.19856e-05
-2.55701e-07
-1.17098e-05
-2.75829e-07
-1.14129e-05
-2.9688e-07
-1.10934e-05
-3.19433e-07
-1.07495e-05
-3.43906e-07
-1.0379e-05
-3.70491e-07
-9.97994e-06
-3.99102e-07
-9.55059e-06
-4.29351e-07
-9.09004e-06
-4.60552e-07
-8.59826e-06
-4.91779e-07
-8.07632e-06
-5.21937e-07
-7.52647e-06
-5.49856e-07
-6.952e-06
-5.74461e-07
-6.35699e-06
-5.95018e-07
-5.74578e-06
-6.11205e-07
-5.12278e-06
-6.22997e-07
-4.49199e-06
-6.30794e-07
-3.8565e-06
-6.3549e-07
-3.21887e-06
-6.37628e-07
-2.58233e-06
-6.36538e-07
-1.95176e-06
-6.30576e-07
-1.33369e-06
-6.18073e-07
-7.36129e-07
-5.97556e-07
-1.69911e-07
-5.66218e-07
3.61177e-07
-5.31089e-07
8.48739e-07
-4.87562e-07
1.2909e-06
-4.42162e-07
1.68828e-06
-3.97378e-07
2.04365e-06
-3.55368e-07
2.36141e-06
-3.1776e-07
2.64721e-06
-2.85802e-07
2.9063e-06
-2.59093e-07
3.14102e-06
-2.34715e-07
3.34963e-06
-2.08615e-07
3.52819e-06
-1.78562e-07
3.67397e-06
-1.4577e-07
3.78758e-06
-1.13616e-07
3.87277e-06
-8.51922e-08
3.93479e-06
-6.20142e-08
3.97906e-06
-4.42755e-08
4.01071e-06
-3.16491e-08
4.03452e-06
-2.38123e-08
4.05494e-06
-2.04118e-08
4.07565e-06
-2.07148e-08
4.09918e-06
-2.35276e-08
4.12662e-06
-2.74453e-08
4.15753e-06
-3.09052e-08
4.19002e-06
-3.24879e-08
4.22173e-06
-3.17099e-08
4.25045e-06
-2.87253e-08
4.27396e-06
-2.35067e-08
4.29068e-06
-1.67252e-08
4.30038e-06
-9.6981e-09
4.30289e-06
-2.50822e-09
4.29762e-06
5.26808e-09
4.28403e-06
1.3591e-08
4.26131e-06
2.27225e-08
4.22849e-06
3.28167e-08
4.18511e-06
4.33821e-08
4.13182e-06
5.32852e-08
4.07052e-06
6.13025e-08
4.00398e-06
6.65438e-08
3.93522e-06
6.87606e-08
3.86682e-06
6.83989e-08
3.8005e-06
6.63161e-08
3.73704e-06
6.34621e-08
3.6764e-06
6.06388e-08
3.61803e-06
5.83705e-08
3.56116e-06
5.68696e-08
3.50511e-06
5.60532e-08
3.44949e-06
5.56172e-08
3.39435e-06
5.51448e-08
3.34013e-06
5.4221e-08
3.28759e-06
5.25389e-08
3.23759e-06
4.99952e-08
3.19089e-06
4.67053e-08
3.14795e-06
4.29385e-08
3.10893e-06
3.90143e-08
3.07372e-06
3.5215e-08
3.04198e-06
3.17423e-08
3.01327e-06
2.87085e-08
2.98712e-06
2.61499e-08
2.96307e-06
2.40516e-08
2.9407e-06
2.2369e-08
2.91965e-06
2.10519e-08
2.8996e-06
2.00422e-08
2.88029e-06
1.93123e-08
2.86148e-06
1.88136e-08
2.84289e-06
1.85868e-08
2.82433e-06
1.85565e-08
2.80544e-06
1.88913e-08
2.78609e-06
1.93541e-08
2.76563e-06
2.04557e-08
2.74417e-06
2.14612e-08
2.72021e-06
2.39593e-08
2.69451e-06
2.5702e-08
2.66326e-06
3.12518e-08
2.62938e-06
3.38779e-08
2.5828e-06
4.65842e-08
2.53327e-06
4.95244e-08
2.45241e-06
8.08626e-08
2.37045e-06
8.19561e-08
2.20206e-06
1.68391e-07
1.68198e-07
2.03386e-06
2.24511e-08
5.14207e-07
-3.07858e-08
4.16273e-07
4.17932e-08
1.47054e-07
3.96036e-07
-3.47157e-07
1.00442e-06
-8.76098e-07
1.75896e-06
-1.26695e-06
2.55967e-06
-1.48966e-06
3.33494e-06
-1.55419e-06
4.05055e-06
-1.52039e-06
4.68816e-06
-1.41423e-06
5.24023e-06
-1.26342e-06
5.7064e-06
-1.09017e-06
6.09044e-06
-9.08399e-07
6.39672e-06
-7.24646e-07
6.62885e-06
-5.40461e-07
6.78999e-06
-3.55186e-07
6.88359e-06
-1.67541e-07
6.91123e-06
2.21636e-08
6.84693e-06
2.47105e-07
6.70163e-06
4.68523e-07
6.47039e-06
6.97753e-07
6.14892e-06
9.26753e-07
5.74313e-06
1.15427e-06
5.2475e-06
1.35574e-06
4.70293e-06
1.51613e-06
4.02569e-06
1.58074e-06
3.13615e-06
1.50244e-06
2.2712e-06
1.34251e-06
1.59773e-06
1.02429e-06
1.13473e-06
5.87043e-07
9.19177e-07
1.23767e-07
1.00084e-06
-3.52477e-07
1.38416e-06
-9.64131e-07
1.91255e-06
-1.38709e-06
2.40565e-06
-1.23075e-06
2.41281e-06
-4.96187e-07
2.10765e-06
4.50936e-08
1.58707e-06
5.63512e-07
4.36701e-07
1.25046e-06
-1.27195e-06
1.80653e-06
-3.02127e-06
2.0575e-06
-4.39285e-06
2.24889e-06
-5.40607e-06
2.35733e-06
-6.29489e-06
2.28569e-06
-7.11226e-06
2.13705e-06
-7.84418e-06
1.94535e-06
-8.49257e-06
1.74571e-06
-9.06506e-06
1.554e-06
-9.57195e-06
1.37957e-06
-1.00238e-05
1.2261e-06
-1.04296e-05
1.0936e-06
-1.0797e-05
9.80284e-07
-1.11317e-05
8.8327e-07
-1.14382e-05
7.99518e-07
-1.17195e-05
7.26011e-07
-1.19771e-05
6.5991e-07
-1.22121e-05
5.98692e-07
-1.24245e-05
5.40213e-07
-1.2614e-05
4.82691e-07
-1.27797e-05
4.24812e-07
-1.29206e-05
3.65684e-07
-1.30355e-05
3.0479e-07
-1.31233e-05
2.41998e-07
-1.31832e-05
1.77565e-07
-1.32149e-05
1.12057e-07
-1.3218e-05
4.59019e-08
-1.3193e-05
-1.99931e-08
-1.3137e-05
-8.40644e-08
-1.30512e-05
-1.46163e-07
-1.2937e-05
-2.05347e-07
-1.27959e-05
-2.60946e-07
-1.26302e-05
-3.12475e-07
-1.24416e-05
-3.59954e-07
-1.22321e-05
-4.03728e-07
-1.20031e-05
-4.44516e-07
-1.17556e-05
-4.83346e-07
-1.14898e-05
-5.21465e-07
-1.12054e-05
-5.60244e-07
-1.09013e-05
-6.01026e-07
-1.05757e-05
-6.44964e-07
-1.02268e-05
-6.92868e-07
-9.85219e-06
-7.45073e-07
-9.44993e-06
-8.01359e-07
-9.01837e-06
-8.60914e-07
-8.55657e-06
-9.22345e-07
-8.06457e-06
-9.83776e-07
-7.54351e-06
-1.043e-06
-6.99571e-06
-1.09766e-06
-6.42459e-06
-1.14558e-06
-5.83432e-06
-1.18528e-06
-5.22934e-06
-1.21619e-06
-4.61393e-06
-1.2384e-06
-3.99194e-06
-1.25279e-06
-3.36615e-06
-1.26128e-06
-2.7383e-06
-1.26549e-06
-2.11041e-06
-1.26442e-06
-1.48623e-06
-1.25476e-06
-8.72429e-07
-1.23187e-06
-2.79145e-07
-1.19084e-06
2.84889e-07
-1.13025e-06
8.06911e-07
-1.05311e-06
1.27982e-06
-9.60475e-07
1.7018e-06
-8.64138e-07
2.07665e-06
-7.72224e-07
2.41161e-06
-6.90327e-07
2.71505e-06
-6.21208e-07
2.99485e-06
-5.65598e-07
3.25663e-06
-5.20874e-07
3.50137e-06
-4.79455e-07
3.72458e-06
-4.31822e-07
3.91912e-06
-3.73104e-07
4.07955e-06
-3.062e-07
4.20451e-06
-2.38572e-07
4.29656e-06
-1.77249e-07
4.36096e-06
-1.26406e-07
4.40422e-06
-8.75411e-08
4.43311e-06
-6.05356e-08
4.45385e-06
-4.45557e-08
4.4718e-06
-3.83652e-08
4.49132e-06
-4.02273e-08
4.51558e-06
-4.77896e-08
4.54626e-06
-5.81258e-08
4.58342e-06
-6.80631e-08
4.62594e-06
-7.50074e-08
4.6718e-06
-7.75737e-08
4.71845e-06
-7.53787e-08
4.76377e-06
-6.88198e-08
4.80614e-06
-5.91025e-08
4.84419e-06
-4.77455e-08
4.87765e-06
-3.59703e-08
4.90748e-06
-2.4553e-08
4.93479e-06
-1.37227e-08
4.96054e-06
-3.02829e-09
4.98525e-06
8.10678e-09
5.00833e-06
2.03051e-08
5.02816e-06
3.34547e-08
5.04245e-06
4.70083e-08
5.04913e-06
5.98628e-08
5.04709e-06
7.08053e-08
5.03647e-06
7.90125e-08
5.01857e-06
8.42183e-08
4.99531e-06
8.67189e-08
4.96877e-06
8.71846e-08
4.94074e-06
8.63949e-08
4.9126e-06
8.50103e-08
4.88522e-06
8.34346e-08
4.85908e-06
8.1763e-08
4.83439e-06
7.98304e-08
4.81126e-06
7.73472e-08
4.78976e-06
7.40409e-08
4.76998e-06
6.97759e-08
4.75205e-06
6.46422e-08
4.73604e-06
5.89429e-08
4.72196e-06
5.30974e-08
4.70964e-06
4.75281e-08
4.69881e-06
4.25768e-08
4.68906e-06
3.84611e-08
4.67994e-06
3.5263e-08
4.67104e-06
3.29546e-08
4.66199e-06
3.1423e-08
4.65251e-06
3.05339e-08
4.64242e-06
3.01243e-08
4.63163e-06
3.01059e-08
4.6201e-06
3.0346e-08
4.60778e-06
3.09078e-08
4.5947e-06
3.16345e-08
4.58074e-06
3.28455e-08
4.56595e-06
3.41465e-08
4.54998e-06
3.64323e-08
4.53294e-06
3.85007e-08
4.51397e-06
4.2921e-08
4.49351e-06
4.61661e-08
4.46951e-06
5.52551e-08
4.44322e-06
6.0165e-08
4.40991e-06
7.98894e-08
4.37249e-06
8.69479e-08
4.3207e-06
1.3265e-07
4.25859e-06
1.44069e-07
4.16808e-06
2.58901e-07
2.91073e-07
4.04521e-06
1.46052e-07
3.68155e-07
3.66828e-07
1.95496e-07
1.0038e-06
-4.89914e-07
1.88369e-06
-1.22705e-06
2.77023e-06
-1.76264e-06
3.55834e-06
-2.05506e-06
4.21878e-06
-2.1501e-06
4.76236e-06
-2.09777e-06
5.18881e-06
-1.94683e-06
5.5154e-06
-1.74082e-06
5.76674e-06
-1.51477e-06
5.96789e-06
-1.29132e-06
6.1384e-06
-1.07891e-06
6.28931e-06
-8.75559e-07
6.42283e-06
-6.73979e-07
6.53293e-06
-4.65282e-07
6.6091e-06
-2.43715e-07
6.64022e-06
-8.95679e-09
6.64366e-06
2.4366e-07
6.60669e-06
5.05494e-07
6.52823e-06
7.76212e-07
6.40857e-06
1.04641e-06
6.24729e-06
1.31555e-06
6.03948e-06
1.56354e-06
5.77022e-06
1.78539e-06
5.41351e-06
1.93745e-06
4.94143e-06
1.97452e-06
4.41533e-06
1.86861e-06
3.82616e-06
1.61347e-06
3.26239e-06
1.15081e-06
2.75443e-06
6.3173e-07
2.48119e-06
-7.92337e-08
2.64971e-06
-1.13265e-06
2.32823e-06
-1.06561e-06
1.43961e-06
-3.42139e-07
2.6438e-07
6.79046e-07
-1.19466e-06
1.50414e-06
-2.68166e-06
2.05051e-06
-3.9278e-06
2.49661e-06
-4.92642e-06
2.80515e-06
-5.822e-06
2.95308e-06
-6.53472e-06
2.96161e-06
-7.0415e-06
2.8641e-06
-7.44468e-06
2.68888e-06
-7.79264e-06
2.48501e-06
-8.11592e-06
2.26862e-06
-8.42777e-06
2.05756e-06
-8.73468e-06
1.86091e-06
-9.03853e-06
1.68342e-06
-9.33912e-06
1.52669e-06
-9.63499e-06
1.38948e-06
-9.9243e-06
1.26959e-06
-1.02052e-05
1.16416e-06
-1.04759e-05
1.07019e-06
-1.07345e-05
9.84686e-07
-1.09794e-05
9.04766e-07
-1.12085e-05
8.27833e-07
-1.142e-05
7.51665e-07
-1.16117e-05
6.74435e-07
-1.17816e-05
5.94732e-07
-1.19276e-05
5.11621e-07
-1.20475e-05
4.24678e-07
-1.21394e-05
3.33954e-07
-1.22018e-05
2.39934e-07
-1.22333e-05
1.4358e-07
-1.22338e-05
4.63379e-08
-1.22027e-05
-5.09984e-08
-1.21407e-05
-1.4615e-07
-1.2049e-05
-2.37795e-07
-1.19296e-05
-3.24811e-07
-1.17843e-05
-4.06224e-07
-1.16153e-05
-4.81431e-07
-1.14248e-05
-5.50463e-07
-1.12147e-05
-6.1387e-07
-1.09864e-05
-6.72776e-07
-1.0741e-05
-7.28766e-07
-1.04787e-05
-7.8375e-07
-1.01992e-05
-8.39792e-07
-9.90131e-06
-8.98885e-07
-9.58356e-06
-9.6271e-07
-9.24401e-06
-1.03242e-06
-8.88062e-06
-1.10846e-06
-8.4915e-06
-1.19048e-06
-8.07515e-06
-1.27727e-06
-7.63068e-06
-1.36681e-06
-7.1581e-06
-1.45636e-06
-6.65855e-06
-1.54255e-06
-6.13445e-06
-1.62176e-06
-5.58949e-06
-1.69054e-06
-5.02823e-06
-1.74655e-06
-4.45533e-06
-1.78908e-06
-3.87514e-06
-1.8186e-06
-3.29133e-06
-1.83659e-06
-2.70626e-06
-1.84634e-06
-2.11999e-06
-1.85176e-06
-1.53036e-06
-1.85405e-06
-9.35959e-07
-1.84916e-06
-3.39828e-07
-1.828e-06
2.50391e-07
-1.78106e-06
8.18327e-07
-1.69819e-06
1.34452e-06
-1.5793e-06
1.81671e-06
-1.43266e-06
2.22481e-06
-1.27225e-06
2.56284e-06
-1.11025e-06
2.8349e-06
-9.62384e-07
3.06142e-06
-8.47729e-07
3.27141e-06
-7.75585e-07
3.48729e-06
-7.36761e-07
3.71435e-06
-7.06518e-07
3.93998e-06
-6.57447e-07
4.14473e-06
-5.77855e-07
4.31616e-06
-4.77627e-07
4.45255e-06
-3.74968e-07
4.557e-06
-2.817e-07
4.63171e-06
-2.01116e-07
4.67796e-06
-1.33783e-07
4.69904e-06
-8.162e-08
4.70179e-06
-4.73102e-08
4.69519e-06
-3.17602e-08
4.68768e-06
-3.27171e-08
4.68522e-06
-4.53302e-08
4.69071e-06
-6.36112e-08
4.70447e-06
-8.18237e-08
4.7252e-06
-9.5743e-08
4.75085e-06
-1.0322e-07
4.77928e-06
-1.03811e-07
4.80873e-06
-9.8268e-08
4.83777e-06
-8.81404e-08
4.8653e-06
-7.52772e-08
4.89082e-06
-6.14964e-08
4.91452e-06
-4.8248e-08
4.93713e-06
-3.63332e-08
4.95991e-06
-2.58133e-08
4.98402e-06
-1.59994e-08
5.00988e-06
-5.55803e-09
5.03668e-06
6.66102e-09
5.06215e-06
2.15395e-08
5.08317e-06
3.88423e-08
5.09674e-06
5.72287e-08
5.10102e-06
7.47399e-08
5.09586e-06
8.93726e-08
5.08278e-06
9.97995e-08
5.06427e-06
1.057e-07
5.043e-06
1.07661e-07
5.02124e-06
1.06767e-07
5.00055e-06
1.0413e-07
4.98175e-06
1.00564e-07
4.96511e-06
9.64651e-08
4.95058e-06
9.18776e-08
4.93796e-06
8.66571e-08
4.92709e-06
8.06506e-08
4.91789e-06
7.3846e-08
4.91036e-06
6.64713e-08
4.90452e-06
5.89359e-08
4.90032e-06
5.17306e-08
4.89758e-06
4.53178e-08
4.89599e-06
4.00513e-08
4.89513e-06
3.61142e-08
4.89456e-06
3.35268e-08
4.89384e-06
3.21495e-08
4.89259e-06
3.17826e-08
4.89056e-06
3.21509e-08
4.88759e-06
3.30799e-08
4.88361e-06
3.43236e-08
4.8786e-06
3.59216e-08
4.87259e-06
3.76355e-08
4.86558e-06
3.98585e-08
4.85762e-06
4.21122e-08
4.84858e-06
4.54676e-08
4.83844e-06
4.86389e-08
4.827e-06
5.43628e-08
4.81398e-06
5.91874e-08
4.79928e-06
6.99576e-08
4.78179e-06
7.76556e-08
4.76235e-06
9.93213e-08
4.7369e-06
1.12399e-07
4.7108e-06
1.58757e-07
4.67001e-06
1.84853e-07
4.63878e-06
2.90128e-07
3.54263e-07
4.57559e-06
3.56919e-08
3.32463e-07
8.34918e-07
-6.0373e-07
1.9649e-06
-1.61989e-06
2.96062e-06
-2.22278e-06
3.69316e-06
-2.49518e-06
4.18331e-06
-2.5452e-06
4.48346e-06
-2.45025e-06
4.64157e-06
-2.25587e-06
4.70227e-06
-2.00754e-06
4.71335e-06
-1.7519e-06
4.72376e-06
-1.52518e-06
4.76836e-06
-1.33592e-06
4.85873e-06
-1.16927e-06
4.98639e-06
-1.00322e-06
5.13107e-06
-8.18656e-07
5.27072e-06
-6.04934e-07
5.38538e-06
-3.58371e-07
5.45535e-06
-7.89326e-08
5.4971e-06
2.01911e-07
5.50658e-06
4.96015e-07
5.48958e-06
7.93218e-07
5.45298e-06
1.08301e-06
5.40283e-06
1.3657e-06
5.33593e-06
1.63044e-06
5.24202e-06
1.8793e-06
5.08724e-06
2.09222e-06
4.82274e-06
2.23902e-06
4.46108e-06
2.23027e-06
3.95882e-06
2.11572e-06
3.43582e-06
1.67381e-06
2.81647e-06
1.25109e-06
2.37901e-06
3.58223e-07
1.5396e-06
-2.93249e-07
8.8561e-08
3.85433e-07
-1.56841e-06
1.31483e-06
-2.89383e-06
2.00447e-06
-3.98836e-06
2.59867e-06
-4.95949e-06
3.02163e-06
-5.71482e-06
3.25194e-06
-6.2411e-06
3.33143e-06
-6.60521e-06
3.31719e-06
-6.86055e-06
3.21695e-06
-7.05044e-06
3.05399e-06
-7.21787e-06
2.85631e-06
-7.3835e-06
2.65064e-06
-7.56408e-06
2.4492e-06
-7.76557e-06
2.25906e-06
-7.98852e-06
2.08385e-06
-8.22948e-06
1.92439e-06
-8.48351e-06
1.78071e-06
-8.74553e-06
1.6515e-06
-9.01097e-06
1.53503e-06
-9.27595e-06
1.42913e-06
-9.53706e-06
1.3313e-06
-9.79125e-06
1.23887e-06
-1.00356e-05
1.14915e-06
-1.02674e-05
1.0596e-06
-1.04837e-05
9.67972e-07
-1.06817e-05
8.72393e-07
-1.08584e-05
7.7144e-07
-1.1011e-05
6.64205e-07
-1.11367e-05
5.50378e-07
-1.1233e-05
4.30282e-07
-1.12979e-05
3.04842e-07
-1.13299e-05
1.7561e-07
-1.13277e-05
4.414e-08
-1.12915e-05
-8.72037e-08
-1.12216e-05
-2.16026e-07
-1.11194e-05
-3.40005e-07
-1.0987e-05
-4.57266e-07
-1.08268e-05
-5.66398e-07
-1.06416e-05
-6.66601e-07
-1.04343e-05
-7.57825e-07
-1.02073e-05
-8.40793e-07
-9.96315e-06
-9.1697e-07
-9.70348e-06
-9.88439e-07
-9.42951e-06
-1.05772e-06
-9.14175e-06
-1.12755e-06
-8.84002e-06
-1.20061e-06
-8.5235e-06
-1.27923e-06
-8.19077e-06
-1.36515e-06
-7.83996e-06
-1.45927e-06
-7.46893e-06
-1.5615e-06
-7.07554e-06
-1.67066e-06
-6.65791e-06
-1.78444e-06
-6.21485e-06
-1.89942e-06
-5.74631e-06
-2.01109e-06
-5.25387e-06
-2.1142e-06
-4.741e-06
-2.20341e-06
-4.21275e-06
-2.2748e-06
-3.67468e-06
-2.32715e-06
-3.13215e-06
-2.36114e-06
-2.59018e-06
-2.37856e-06
-2.05323e-06
-2.38329e-06
-1.52376e-06
-2.38123e-06
-9.9853e-07
-2.37929e-06
-4.68868e-07
-2.37882e-06
7.44214e-08
-2.37129e-06
6.29178e-07
-2.33582e-06
1.18216e-06
-2.25117e-06
1.70996e-06
-2.1071e-06
2.19664e-06
-1.91934e-06
2.64072e-06
-1.71632e-06
3.03211e-06
-1.50165e-06
3.33299e-06
-1.26326e-06
3.51626e-06
-1.031e-06
3.61637e-06
-8.7569e-07
3.71024e-06
-8.30638e-07
3.85548e-06
-8.51755e-07
4.0556e-06
-8.57566e-07
4.2707e-06
-7.92952e-07
4.45725e-06
-6.64182e-07
4.59909e-06
-5.16806e-07
4.70599e-06
-3.88605e-07
4.79322e-06
-2.88346e-07
4.86625e-06
-2.06808e-07
4.92046e-06
-1.35832e-07
4.95015e-06
-7.70011e-08
4.95626e-06
-3.78658e-08
4.94701e-06
-2.34685e-08
4.93314e-06
-3.14612e-08
4.92278e-06
-5.32497e-08
4.91934e-06
-7.83841e-08
4.92227e-06
-9.86774e-08
4.9291e-06
-1.10047e-07
4.93737e-06
-1.1208e-07
4.94563e-06
-1.06525e-07
4.95336e-06
-9.58785e-08
4.96067e-06
-8.25815e-08
4.96795e-06
-6.87797e-08
4.97587e-06
-5.61618e-08
4.98517e-06
-4.56357e-08