/*--------------------------------*- C++ -*----------------------------------*\
  =========                 |
  \\      /  F ield         | OpenFOAM: The Open Source CFD Toolbox
   \\    /   O peration     | Website:  https://openfoam.org
    \\  /    A nd           | Version:  9
     \\/     M anipulation  |
\*---------------------------------------------------------------------------*/
FoamFile
{
    format      ascii;
    class       volVectorField;
    location    "0.033";
    object      U;
}
// * * * * * * * * * * * * * * * * * * * * * * * * * * * * * * * * * * * * * //

dimensions      [0 1 -1 0 0 0 0];

internalField   nonuniform List<vector> 
12225
(
(10.1004 0.09659 0)
(9.62507 0.0567421 0)
(9.18828 0.0154418 0)
(8.91304 0.00352038 0)
(8.7691 0.0239715 0)
(8.59637 0.0509094 0)
(8.31881 0.0598083 0)
(7.97827 0.0536461 0)
(7.62107 0.0505506 0)
(7.26686 0.0559264 0)
(6.92615 0.0608628 0)
(6.61716 0.0600816 0)
(6.34903 0.0599065 0)
(6.08139 0.0630921 0)
(5.82567 0.0699731 0)
(5.52343 0.0863315 0)
(5.18033 0.101539 0)
(4.77564 0.129669 0)
(10.1444 0.0617883 0)
(10.2248 0.159199 0)
(10.1735 0.153253 0)
(10.1069 0.090467 0)
(10.0993 0.0435857 0)
(10.1629 0.0508795 0)
(10.2285 0.0905245 0)
(10.2322 0.127805 0)
(10.1704 0.147645 0)
(10.0784 0.149384 0)
(9.98962 0.139955 0)
(9.91101 0.124311 0)
(9.82863 0.113803 0)
(9.71917 0.115345 0)
(9.57831 0.127038 0)
(9.39824 0.150975 0)
(9.18854 0.193585 0)
(8.95805 0.249777 0)
(9.87816 0.0862289 0)
(9.81791 0.0786555 0)
(9.94468 0.0428144 0)
(10.0564 0.017794 0)
(10.0837 0.0138351 0)
(10.0875 0.0288405 0)
(10.1136 0.0562105 0)
(10.1519 0.0818208 0)
(10.1751 0.0978049 0)
(10.168 0.104994 0)
(10.133 0.108153 0)
(10.0805 0.112238 0)
(10.0238 0.12561 0)
(9.97336 0.152832 0)
(9.93889 0.188464 0)
(9.90929 0.235587 0)
(9.88617 0.289403 0)
(9.85492 0.355764 0)
(10.2259 0.187688 0)
(10.152 0.157286 0)
(10.1212 0.0997291 0)
(10.096 0.0521777 0)
(10.0925 0.0230714 0)
(10.1288 0.0271209 0)
(10.1782 0.0571877 0)
(10.1954 0.0995417 0)
(10.1574 0.142033 0)
(10.0739 0.17015 0)
(9.97384 0.177242 0)
(9.88599 0.168292 0)
(9.82465 0.154843 0)
(9.79582 0.149268 0)
(9.80084 0.157036 0)
(9.83185 0.182653 0)
(9.88353 0.228497 0)
(9.95259 0.301476 0)
(9.94502 0.185792 0)
(10.0863 0.117322 0)
(10.1805 0.0688404 0)
(10.187 0.0368779 0)
(10.1548 0.00941441 0)
(10.1198 0.01234 0)
(10.0855 0.0476289 0)
(10.0605 0.0982738 0)
(10.0504 0.141795 0)
(10.0509 0.164972 0)
(10.0532 0.169515 0)
(10.0477 0.165144 0)
(10.0262 0.161726 0)
(9.99016 0.166678 0)
(9.94847 0.180197 0)
(9.91763 0.205629 0)
(9.90239 0.243879 0)
(9.91969 0.300493 0)
(9.84391 0.116835 0)
(9.93902 0.0917955 0)
(9.96689 0.0727704 0)
(9.95459 0.0523119 0)
(9.91121 0.0331388 0)
(9.88161 0.0349893 0)
(9.89196 0.0626804 0)
(9.93125 0.105263 0)
(9.97602 0.146743 0)
(10.0092 0.175754 0)
(10.0249 0.188581 0)
(10.0249 0.189594 0)
(10.0128 0.185889 0)
(9.99263 0.185186 0)
(9.96703 0.190688 0)
(9.94271 0.207071 0)
(9.92154 0.233566 0)
(9.91621 0.275768 0)
(9.88415 0.135226 0)
(10.1017 0.0680328 0)
(10.2143 0.0782254 0)
(10.2056 0.0762671 0)
(10.1593 0.0490547 0)
(10.1128 0.0327768 0)
(10.0689 0.043267 0)
(10.0384 0.0747089 0)
(10.0271 0.110174 0)
(10.0301 0.135885 0)
(10.0418 0.149771 0)
(10.0605 0.158417 0)
(10.0821 0.168562 0)
(10.1023 0.185363 0)
(10.1143 0.207847 0)
(10.1146 0.234794 0)
(10.1032 0.26333 0)
(10.0833 0.293674 0)
(9.87168 0.0178105 0)
(9.92611 -0.0165352 0)
(10.0454 0.0371335 0)
(10.1467 0.0531416 0)
(10.1957 0.0453487 0)
(10.2131 0.0467959 0)
(10.2278 0.0716931 0)
(10.2418 0.1126 0)
(10.2399 0.153086 0)
(10.2136 0.179845 0)
(10.1683 0.188616 0)
(10.1173 0.184414 0)
(10.0743 0.176063 0)
(10.0477 0.173784 0)
(10.042 0.184953 0)
(10.0524 0.210677 0)
(10.0729 0.248545 0)
(10.0954 0.291194 0)
(10.2406 0.0413302 0)
(10.1409 -0.0223252 0)
(10.1616 0.0125781 0)
(10.1457 0.0447017 0)
(10.0516 0.047907 0)
(9.94524 0.0401924 0)
(9.8865 0.0478839 0)
(9.89074 0.0790047 0)
(9.93383 0.121444 0)
(9.9853 0.159243 0)
(10.03 0.183883 0)
(10.0622 0.195098 0)
(10.0807 0.198255 0)
(10.0826 0.199881 0)
(10.0704 0.20529 0)
(10.0525 0.218628 0)
(10.0347 0.238378 0)
(10.0314 0.265363 0)
(10.0265 0.0300926 0)
(9.95094 0.0172935 0)
(9.89735 0.0376063 0)
(9.91175 0.0852536 0)
(9.97393 0.105416 0)
(10.0396 0.0927416 0)
(10.0923 0.0779254 0)
(10.1185 0.0849482 0)
(10.1065 0.111262 0)
(10.0626 0.139561 0)
(10.0086 0.158112 0)
(9.96746 0.166501 0)
(9.9488 0.172426 0)
(9.95285 0.185183 0)
(9.9679 0.207249 0)
(9.98673 0.236836 0)
(10.0014 0.266348 0)
(10.0131 0.288729 0)
(10.1457 -0.0337012 0)
(10.1098 0.0118032 0)
(10.077 0.0257865 0)
(10.0712 0.0308371 0)
(10.0923 0.0173077 0)
(10.1033 0.00342333 0)
(10.0872 0.021453 0)
(10.0566 0.0772962 0)
(10.0213 0.148884 0)
(9.98247 0.206441 0)
(9.94312 0.231655 0)
(9.91023 0.225702 0)
(9.88776 0.20335 0)
(9.88212 0.183065 0)
(9.89399 0.177478 0)
(9.92207 0.188647 0)
(9.95999 0.212525 0)
(9.99748 0.239422 0)
(10.0714 0.00430286 0)
(9.93615 0.073726 0)
(9.85691 0.0470442 0)
(9.89148 0.0599173 0)
(9.97781 0.0729722 0)
(10.0307 0.0737484 0)
(10.0314 0.0856482 0)
(10.0027 0.116425 0)
(9.97398 0.156123 0)
(9.96452 0.189456 0)
(9.97955 0.205903 0)
(10.0107 0.205318 0)
(10.0448 0.19477 0)
(10.0699 0.184908 0)
(10.0827 0.184038 0)
(10.0825 0.193815 0)
(10.0757 0.214187 0)
(10.0615 0.237785 0)
(9.85332 -0.0233598 0)
(9.89165 0.0565104 0)
(9.90115 0.0487529 0)
(9.94597 -0.00423165 0)
(10.0155 -0.0299871 0)
(10.0767 -0.00916964 0)
(10.1087 0.0458216 0)
(10.115 0.112215 0)
(10.1088 0.168796 0)
(10.0986 0.20029 0)
(10.0894 0.202679 0)
(10.0833 0.18509 0)
(10.0827 0.163789 0)
(10.0877 0.153383 0)
(10.1003 0.161837 0)
(10.1153 0.186253 0)
(10.1322 0.221326 0)
(10.1434 0.256658 0)
(10.3745 0.0971102 0)
(10.2983 0.0388245 0)
(10.2493 0.0125813 0)
(10.1837 0.00931142 0)
(10.0885 0.0117177 0)
(10.001 0.0226044 0)
(9.94803 0.055424 0)
(9.9362 0.107609 0)
(9.95676 0.161018 0)
(9.99453 0.200311 0)
(10.032 0.218219 0)
(10.0565 0.214876 0)
(10.063 0.197684 0)
(10.057 0.177318 0)
(10.0465 0.165616 0)
(10.041 0.168132 0)
(10.0409 0.185651 0)
(10.0505 0.214038 0)
(10.189 0.115563 0)
(10.2549 0.143686 0)
(10.2053 0.142161 0)
(10.1356 0.108508 0)
(10.0883 0.0943375 0)
(10.0688 0.0997402 0)
(10.0547 0.111879 0)
(10.0334 0.121772 0)
(10.0127 0.129142 0)
(10.0026 0.136306 0)
(10.0047 0.143615 0)
(10.0145 0.150614 0)
(10.0258 0.158048 0)
(10.0351 0.167629 0)
(10.0403 0.181848 0)
(10.0419 0.200719 0)
(10.0405 0.224242 0)
(10.0371 0.250064 0)
(9.89157 0.0211291 0)
(9.98174 0.0650211 0)
(10.0371 0.0903818 0)
(10.0314 0.0607617 0)
(10.0205 0.0239726 0)
(10.0432 0.0204062 0)
(10.0845 0.0610874 0)
(10.1139 0.126553 0)
(10.1242 0.186044 0)
(10.125 0.219482 0)
(10.1256 0.223318 0)
(10.1287 0.205787 0)
(10.1329 0.179956 0)
(10.1356 0.157265 0)
(10.1349 0.147068 0)
(10.1301 0.152197 0)
(10.1216 0.173147 0)
(10.1106 0.206387 0)
(10.0106 0.0147735 0)
(10.0329 0.0407359 0)
(10.1205 0.109513 0)
(10.1832 0.133807 0)
(10.1698 0.0960157 0)
(10.1023 0.0606788 0)
(10.0348 0.0627932 0)
(10.0015 0.0881871 0)
(10.0129 0.110492 0)
(10.0614 0.119575 0)
(10.1271 0.121426 0)
(10.1882 0.126737 0)
(10.2297 0.142449 0)
(10.2456 0.169547 0)
(10.2353 0.204351 0)
(10.2053 0.241809 0)
(10.161 0.279219 0)
(10.1142 0.312376 0)
(9.84064 0.0404725 0)
(9.78538 -0.111669 0)
(9.85055 -0.0987675 0)
(9.91756 0.00898804 0)
(9.9652 0.116302 0)
(9.97861 0.181894 0)
(9.97922 0.193119 0)
(9.98751 0.16035 0)
(10.0053 0.10878 0)
(10.0223 0.0638247 0)
(10.0294 0.0417197 0)
(10.0241 0.0494735 0)
(10.0099 0.084527 0)
(9.99053 0.139878 0)
(9.97036 0.204453 0)
(9.95252 0.268464 0)
(9.94075 0.324347 0)
(9.93808 0.366206 0)
(9.82738 0.0830606 0)
(9.82303 0.0236976 0)
(9.84078 -0.0164794 0)
(9.84139 -0.0010123 0)
(9.83943 0.0100784 0)
(9.85946 0.0100676 0)
(9.90553 0.00996856 0)
(9.96566 0.0203234 0)
(10.0247 0.0455172 0)
(10.069 0.0837174 0)
(10.0926 0.130679 0)
(10.0988 0.181897 0)
(10.0958 0.231733 0)
(10.0921 0.275126 0)
(10.0958 0.305764 0)
(10.1099 0.321993 0)
(10.1375 0.322215 0)
(10.1735 0.310648 0)
(10.1401 -0.0554035 0)
(10.1886 -0.191367 0)
(10.1839 -0.132448 0)
(10.1564 0.0037321 0)
(10.1192 0.0817027 0)
(10.0836 0.0744599 0)
(10.0476 0.0167774 0)
(10.0185 -0.0417964 0)
(10.0013 -0.0672935 0)
(9.99815 -0.051509 0)
(10.0126 -0.00550234 0)
(10.0477 0.0523701 0)
(10.1005 0.105375 0)
(10.1629 0.142576 0)
(10.2244 0.16078 0)
(10.277 0.16366 0)
(10.3163 0.157719 0)
(10.3387 0.151695 0)
(10.1715 -0.0611929 0)
(10.0407 -0.126635 0)
(10.005 -0.00378834 0)
(10.0301 0.0951935 0)
(10.087 0.123937 0)
(10.1328 0.113421 0)
(10.1491 0.0919859 0)
(10.1469 0.0701483 0)
(10.1329 0.0510128 0)
(10.1105 0.0337981 0)
(10.0922 0.0188785 0)
(10.0941 0.011313 0)
(10.1221 0.0171484 0)
(10.1705 0.0399097 0)
(10.2295 0.0790673 0)
(10.288 0.128188 0)
(10.3383 0.180524 0)
(10.3734 0.224302 0)
(10.0473 -0.0121244 0)
(10.0608 0.0145437 0)
(10.0745 -0.0881749 0)
(10.0579 -0.0949498 0)
(10.0632 -0.0293161 0)
(10.0654 0.0120812 0)
(10.0492 0.00927274 0)
(10.0355 -0.00414007 0)
(10.0352 -0.00195609 0)
(10.041 0.0119349 0)
(10.046 0.0193106 0)
(10.0509 0.0103329 0)
(10.0579 -0.00968421 0)
(10.0712 -0.0283691 0)
(10.0961 -0.033581 0)
(10.1339 -0.0200245 0)
(10.1824 0.0116391 0)
(10.2359 0.0564541 0)
(10.0959 -0.066769 0)
(10.1491 -0.0873681 0)
(10.135 -4.80708e-07 0)
(10.1085 0.0638408 0)
(10.1072 0.101776 0)
(10.1122 0.112714 0)
(10.1048 0.0989965 0)
(10.0993 0.069786 0)
(10.1062 0.0376577 0)
(10.1169 0.0140193 0)
(10.1251 0.00164851 0)
(10.1331 -0.00459892 0)
(10.1426 -0.0110178 0)
(10.1523 -0.0175759 0)
(10.1621 -0.0182276 0)
(10.1739 -0.00761208 0)
(10.1875 0.017665 0)
(10.2025 0.0582173 0)
(10.0507 -0.0311716 0)
(9.96485 -0.00626983 0)
(10.0133 -0.0391409 0)
(10.0638 -0.0514713 0)
(10.0792 -0.00545385 0)
(10.0668 0.0345067 0)
(10.0529 0.0336696 0)
(10.0537 0.0112519 0)
(10.06 -0.00332634 0)
(10.0568 -0.00254921 0)
(10.0473 0.000571739 0)
(10.0449 -0.00769821 0)
(10.0588 -0.0273944 0)
(10.0888 -0.048752 0)
(10.1264 -0.0590443 0)
(10.1636 -0.0515574 0)
(10.1954 -0.026476 0)
(10.2212 0.0127894 0)
(9.598 0.0522464 0)
(9.7457 -0.0348496 0)
(9.80566 -0.0718586 0)
(9.84871 -0.00296618 0)
(9.92704 0.0828243 0)
(10.0176 0.10996 0)
(10.0779 0.0844217 0)
(10.098 0.04933 0)
(10.0957 0.0293739 0)
(10.0886 0.0205173 0)
(10.0874 0.00699469 0)
(10.0973 -0.0203754 0)
(10.1143 -0.0558719 0)
(10.1318 -0.085843 0)
(10.1492 -0.0966034 0)
(10.1687 -0.0834916 0)
(10.1924 -0.048383 0)
(10.2208 -0.000537957 0)
(10.236 -0.0415045 0)
(10.2177 -0.13908 0)
(10.1014 -0.10116 0)
(10.0256 -0.0879221 0)
(10.0572 -0.0729271 0)
(10.1472 -0.040135 0)
(10.2358 -0.00917007 0)
(10.3077 0.00920484 0)
(10.3661 0.0150903 0)
(10.407 0.0105898 0)
(10.4212 -0.00350935 0)
(10.4034 -0.0268192 0)
(10.3587 -0.0563282 0)
(10.2998 -0.0839718 0)
(10.2433 -0.100344 0)
(10.2034 -0.100083 0)
(10.1869 -0.0825853 0)
(10.1954 -0.0499888 0)
(10.1082 -0.055611 0)
(10.0703 -0.000964119 0)
(10.0946 -0.00251686 0)
(10.0854 -0.00153898 0)
(10.0456 0.00471575 0)
(10.0117 -0.00516666 0)
(10.0002 -0.0242831 0)
(10.0153 -0.0362273 0)
(10.0551 -0.0325196 0)
(10.1099 -0.014919 0)
(10.1677 0.00580676 0)
(10.2176 0.0179426 0)
(10.2492 0.0160188 0)
(10.2555 0.000901741 0)
(10.2376 -0.0193198 0)
(10.2064 -0.0353893 0)
(10.174 -0.0406731 0)
(10.1537 -0.0309377 0)
(10.0988 -0.206939 0)
(10.1385 -0.0931958 0)
(10.1158 -0.0727731 0)
(10.1155 -0.0592286 0)
(10.1687 -0.0327363 0)
(10.2265 -0.015703 0)
(10.2452 -0.0149542 0)
(10.2273 -0.0242689 0)
(10.2017 -0.037805 0)
(10.1904 -0.051163 0)
(10.2006 -0.0613029 0)
(10.2302 -0.0673044 0)
(10.2728 -0.0688226 0)
(10.3191 -0.066507 0)
(10.3613 -0.0611964 0)
(10.3962 -0.0539547 0)
(10.4246 -0.0453783 0)
(10.4486 -0.034054 0)
(10.1015 -0.0726706 0)
(10.108 -0.0160747 0)
(10.1884 -0.000917456 0)
(10.2118 -0.0260455 0)
(10.209 -0.0376989 0)
(10.1993 -0.0326419 0)
(10.2001 -0.0231619 0)
(10.2295 -0.0171143 0)
(10.2889 -0.0169381 0)
(10.3572 -0.0211096 0)
(10.4071 -0.0274792 0)
(10.424 -0.0356734 0)
(10.4093 -0.0454175 0)
(10.3756 -0.0561298 0)
(10.3377 -0.0652603 0)
(10.3083 -0.0703332 0)
(10.2909 -0.0694654 0)
(10.2894 -0.0613008 0)
(9.87251 -0.0933692 0)
(9.72631 -0.105559 0)
(9.57653 -0.0943443 0)
(9.38808 -0.065869 0)
(9.24746 -0.0343984 0)
(9.16466 -0.0190953 0)
(9.09564 -0.0297797 0)
(9.00131 -0.0570993 0)
(8.87053 -0.0820374 0)
(8.71645 -0.0899387 0)
(8.56391 -0.0788235 0)
(8.43255 -0.057827 0)
(8.32524 -0.0388816 0)
(8.23125 -0.0299433 0)
(8.13522 -0.0308762 0)
(8.03359 -0.0369208 0)
(7.92468 -0.042584 0)
(7.82448 -0.043094 0)
(-0.304545 0.630426 -3.03365e-20)
(-0.684287 0.355786 3.01206e-20)
(-0.952773 0.160363 0)
(-1.07579 -0.0371861 0)
(-0.910445 -0.31631 0)
(-0.567579 -0.529892 -2.91489e-20)
(-0.011052 -0.684289 0)
(0.653058 -0.744886 0)
(1.35857 -0.750906 0)
(2.05204 -0.709228 0)
(2.71229 -0.634545 2.79398e-20)
(3.31165 -0.540164 0)
(3.83019 -0.435918 0)
(4.25729 -0.32822 0)
(4.58883 -0.220495 0)
(4.82154 -0.112502 2.75741e-20)
(4.95131 -0.00335885 0)
(4.97736 0.109834 0)
(4.88008 0.232142 0)
(4.66723 0.361618 0)
(4.31576 0.499173 0)
(3.85328 0.626037 0)
(3.2354 0.76525 0)
(2.52302 0.837424 2.56886e-20)
(1.67348 0.949602 -2.54962e-20)
(0.673803 0.630658 2.53885e-20)
(0.0903559 -0.099326 2.52989e-20)
(-0.405076 -0.128586 0)
(-0.793087 0.0305134 0)
(-0.976291 0.0221286 -2.47833e-20)
(-1.00708 -0.118243 -2.45722e-20)
(-0.863268 -0.301364 0)
(-0.483936 -0.545294 0)
(0.209187 -0.638441 -2.36629e-20)
(0.978308 -0.505094 0)
(1.51428 -0.29354 0)
(1.87633 0.378842 2.3006e-20)
(2.00569 0.867187 0)
(1.88534 0.0538607 2.24908e-20)
(1.74017 -1.01804 4.44433e-20)
(1.6757 -1.1006 0)
(1.29232 -0.0994846 0)
(0.142396 0.921552 0)
(-1.21777 1.126 0)
(-2.47299 1.06729 0)
(-3.62522 0.98009 4.25929e-20)
(-4.67036 0.879161 4.27881e-20)
(-5.60742 0.778322 4.30913e-20)
(-6.44336 0.683828 0)
(-7.1873 0.598998 -4.38297e-20)
(-7.84989 0.525246 0)
(-8.44169 0.462299 4.45546e-20)
(-8.97242 0.408897 4.48754e-20)
(-9.45039 0.363591 0)
(-9.88262 0.324987 0)
(-10.2747 0.291672 0)
(-10.6308 0.262253 4.5763e-20)
(-10.9537 0.235428 0)
(-11.2451 0.210166 0)
(-11.5057 0.18577 0)
(-11.7352 0.161858 0)
(-11.9333 0.138244 0)
(-12.0994 0.114741 0)
(-12.2325 0.0912691 0)
(-12.3319 0.0679647 0)
(-12.3968 0.04515 -4.4627e-20)
(-12.4273 0.0232723 0)
(-12.4238 0.00292031 0)
(-12.3922 -0.0158752 4.30386e-20)
(-12.3304 -0.0332496 4.23827e-20)
(-12.2421 -0.0490021 0)
(-12.1278 -0.0634817 -4.09164e-20)
(-11.99 -0.076508 4.01196e-20)
(-11.8302 -0.0884027 0)
(-11.65 -0.0993294 -3.84327e-20)
(-11.4505 -0.109591 0)
(-11.2324 -0.119552 0)
(-10.9955 -0.129546 3.57514e-20)
(-10.7392 -0.139922 0)
(-10.4622 -0.150944 -3.39042e-20)
(-10.1629 -0.162786 0)
(-9.83898 -0.1755 3.20239e-20)
(-9.48854 -0.188998 3.10737e-20)
(-9.10974 -0.203052 3.01189e-20)
(-8.70131 -0.217304 5.83249e-20)
(-8.26278 -0.2313 -5.64174e-20)
(-7.79468 -0.24452 0)
(-7.29868 -0.256424 0)
(-6.77745 -0.266545 0)
(-6.23446 -0.274576 -4.91036e-20)
(-5.67363 -0.280383 -4.74312e-20)
(-5.099 -0.283978 4.58496e-20)
(-4.51432 -0.285571 0)
(-3.92279 -0.285509 -4.29956e-20)
(-3.32753 -0.283887 -4.17347e-20)
(-2.7317 -0.280392 -4.05887e-20)
(-2.13824 -0.274712 0)
(-1.55133 -0.266375 0)
(-0.977379 -0.254175 0)
(-0.423372 -0.237565 -3.71602e-20)
(0.0976642 -0.223051 0)
(0.57718 -0.202137 0)
(1.0181 -0.180769 3.5576e-20)
(1.41748 -0.159895 0)
(1.77685 -0.140627 0)
(2.09937 -0.123775 3.45067e-20)
(2.38952 -0.109624 0)
(2.65239 -0.0977432 0)
(2.89177 -0.0869116 -3.35881e-20)
(3.10797 -0.0756947 -3.32802e-20)
(3.29786 -0.0633979 0)
(3.45758 -0.050428 3.26612e-20)
(3.58569 -0.0377631 0)
(3.68432 -0.0262899 -3.20346e-20)
(3.75806 -0.0166034 0)
(3.81224 -0.00906602 -3.1388e-20)
(3.85198 -0.00381626 -3.10556e-20)
(3.88203 -0.000780474 0)
(3.90689 0.000336231 0)
(3.93058 0.000109723 0)
(3.95618 -0.000779596 0)
(3.98546 -0.00179987 0)
(4.01878 -0.00239033 0)
(4.05492 -0.00199466 0)
(4.09154 -0.000670378 -2.82037e-20)
(4.12646 0.00124911 2.78321e-20)
(4.15753 0.00390155 0)
(4.18253 0.00699717 0)
(4.20076 0.00969593 0)
(4.21232 0.0121472 0)
(4.21635 0.0150275 5.19396e-20)
(4.21275 0.018714 0)
(4.2007 0.0234389 -5.04525e-20)
(4.17908 0.0289145 4.97112e-20)
(4.14703 0.0343528 0)
(4.10454 0.0386812 0)
(4.05287 0.0410041 0)
(3.99444 0.0409813 -4.67745e-20)
(3.93229 0.0389444 -4.60482e-20)
(3.86928 0.0356893 0)
(3.80759 0.0321031 -4.46023e-20)
(3.74842 0.0288871 -4.3882e-20)
(3.69209 0.0264484 4.31635e-20)
(3.63824 0.0249142 0)
(3.58615 0.0241864 0)
(3.53505 0.0240073 4.1022e-20)
(3.48437 0.0240271 0)
(3.43394 0.0238896 0)
(3.38403 0.0233311 0)
(3.33529 0.0222395 0)
(3.2886 0.0206454 -3.75168e-20)
(3.2448 0.0186855 -3.68251e-20)
(3.20454 0.0165441 0)
(3.16815 0.0143929 -3.54493e-20)
(3.13566 0.0123591 0)
(3.10682 0.0105199 0)
(3.08125 0.008911 -3.34045e-20)
(3.05849 0.00754082 0)
(3.03805 0.0064017 -3.20555e-20)
(3.01952 0.00547867 0)
(3.00246 0.00475144 0)
(2.98662 0.004197 -3.00556e-20)
(2.97155 0.00379529 0)
(2.95725 0.00352748 -2.87384e-20)
(2.94309 0.00339064 0)
(2.92936 0.00336147 0)
(2.91503 0.00346231 0)
(2.90089 0.00363003 2.61402e-20)
(2.88509 0.00399074 0)
(2.86928 0.00435364 -2.4857e-20)
(2.85031 0.00517286 0)
(2.83059 0.00579176 0)
(2.80586 0.00764841 0)
(2.77691 0.00851103 0)
(2.74313 0.0128448 0)
(2.69084 0.0134888 0)
(2.64713 0.024574 0)
(2.52943 0.0230031 3.95145e-20)
(2.49268 0.0556366 0)
(2.16492 0.0455448 0)
(-0.00731211 1.27337 9.11313e-20)
(0.0383929 0.900193 -9.05865e-20)
(-0.0898294 0.577679 0)
(0.149841 0.0501987 5.96245e-20)
(0.590694 -0.739809 0)
(1.2421 -1.41384 2.90376e-20)
(1.94822 -1.86787 -5.77694e-20)
(2.64003 -2.09415 -5.72592e-20)
(3.29061 -2.13976 0)
(3.88629 -2.04845 -5.66229e-20)
(4.41548 -1.86568 -2.77564e-20)
(4.87251 -1.62942 0)
(5.25578 -1.36579 0)
(5.56979 -1.09035 0)
(5.81497 -0.809787 0)
(5.99769 -0.525954 -2.74726e-20)
(6.11413 -0.237229 0)
(6.1715 0.0570195 5.51718e-20)
(6.16619 0.357291 0)
(6.09005 0.661137 0)
(5.92897 0.971859 -5.36061e-20)
(5.69065 1.27507 0)
(5.36782 1.57426 5.23389e-20)
(4.95761 1.82457 -2.54833e-20)
(4.48678 2.02722 2.52656e-20)
(3.85956 2.09398 -2.51399e-20)
(3.2653 1.90467 -2.50661e-20)
(2.44624 1.52955 0)
(1.61279 0.982163 0)
(1.16554 0.30175 2.47572e-20)
(0.895599 -0.21252 -2.4501e-20)
(0.765701 -0.604084 0)
(1.08661 -1.31049 0)
(1.50439 -2.02695 2.35636e-20)
(1.938 -1.75506 0)
(2.25088 -1.23784 0)
(2.0166 -1.21062 -2.29955e-20)
(1.79101 -0.763503 0)
(1.22751 0.281517 2.28151e-20)
(-0.387298 1.35987 -4.45015e-20)
(-2.08721 2.02502 0)
(-3.33923 2.45768 0)
(-4.42263 2.66457 -8.69679e-20)
(-5.33053 2.57698 -8.63962e-20)
(-6.12815 2.40072 -8.62038e-20)
(-6.83166 2.17477 4.412e-20)
(-7.45465 1.94177 -4.24605e-20)
(-8.00418 1.71801 -1.3004e-19)
(-8.49165 1.51444 8.78391e-20)
(-8.92663 1.33519 4.36204e-20)
(-9.31802 1.18055 0)
(-9.67296 1.0486 -4.44026e-20)
(-9.99711 0.936082 4.5529e-20)
(-10.2948 0.839604 0)
(-10.5691 0.755809 0)
(-10.8219 0.681582 0)
(-11.0543 0.614121 -4.57021e-20)
(-11.2665 0.551025 0)
(-11.4581 0.490355 9.22291e-20)
(-11.6287 0.430672 0)
(-11.7773 0.371064 9.2145e-20)
(-11.9028 0.311046 0)
(-12.004 0.250401 -9.15684e-20)
(-12.0798 0.189199 0)
(-12.1299 0.127872 9.04354e-20)
(-12.154 0.0671628 -4.5002e-20)
(-12.152 0.00796045 0)
(-12.1244 -0.0487694 -8.76273e-20)
(-12.0666 -0.102319 -4.30608e-20)
(-11.9832 -0.152296 -4.2404e-20)
(-11.8737 -0.198251 0)
(-11.7408 -0.240249 -4.11486e-20)
(-11.5858 -0.278305 -4.01383e-20)
(-11.4107 -0.312866 0)
(-11.217 -0.344545 3.84496e-20)
(-11.0056 -0.374177 -7.52866e-20)
(-10.7771 -0.402764 0)
(-10.5313 -0.431349 -3.57655e-20)
(-10.2674 -0.460945 0)
(-9.98392 -0.492396 1.01893e-19)
(-9.67899 -0.526282 0)
(-9.35047 -0.562828 -9.62624e-20)
(-8.99622 -0.601844 -3.10812e-20)
(-8.61442 -0.642693 3.03074e-20)
(-8.20386 -0.684327 5.87126e-20)
(-7.76412 -0.725361 -5.68098e-20)
(-7.29581 -0.764202 0)
(-6.80065 -0.799185 0)
(-6.28151 -0.828841 0)
(-5.74194 -0.852215 1.4766e-19)
(-5.18588 -0.86896 4.74274e-20)
(-4.61742 -0.879192 -4.58448e-20)
(-4.04032 -0.883599 0)
(-3.45737 -0.883402 -4.32914e-20)
(-2.87081 -0.879167 4.17281e-20)
(-2.28306 -0.869804 4.05818e-20)
(-1.69582 -0.853679 0)
(-1.11247 -0.829324 0)
(-0.540577 -0.795356 0)
(0.00884239 -0.750693 3.71415e-20)
(0.522997 -0.699232 0)
(0.993052 -0.639442 -7.21209e-20)
(1.41783 -0.578004 -1.06738e-19)
(1.79694 -0.517866 7.04086e-20)
(2.13551 -0.461033 0)
(2.44132 -0.409959 3.45843e-20)
(2.72204 -0.366793 0)
(2.98392 -0.331187 6.78323e-20)
(3.23014 -0.299334 -3.36482e-20)
(3.45897 -0.265847 -3.33274e-20)
(3.66436 -0.227718 0)
(3.83963 -0.186602 -9.79676e-20)
(3.98101 -0.147064 6.46994e-20)
(4.08899 -0.113096 3.20159e-20)
(4.16748 -0.0862748 0)
(4.22242 -0.066215 3.13715e-20)
(4.26041 -0.0519311 9.3141e-20)
(4.28785 -0.0427775 0)
(4.31035 -0.0384524 6.07327e-20)
(4.33259 -0.038392 6.00314e-20)
(4.35828 -0.0414173 5.93192e-20)
(4.38987 -0.0459088 0)
(4.42814 -0.0500994 0)
(4.47246 -0.0525059 0)
(4.52142 -0.0524374 -2.81984e-20)
(4.57262 -0.0498441 -2.78177e-20)
(4.62346 -0.0449002 0)
(4.67243 -0.0383189 -5.41514e-20)
(4.71796 -0.0311474 -5.34051e-20)
(4.75874 -0.0237722 0)
(4.79568 -0.0162737 -5.19072e-20)
(4.82969 -0.00892982 -1.02336e-19)
(4.86188 -0.00161346 5.04175e-20)
(4.89305 0.00614772 4.96851e-20)
(4.92334 0.014419 0)
(4.95161 0.0227685 0)
(4.97575 0.0305141 0)
(4.99339 0.0368951 4.67247e-20)
(5.00276 0.0413342 -4.60018e-20)
(5.00331 0.0436889 -9.05443e-20)
(4.99581 0.044217 4.45465e-20)
(4.98195 0.0434315 -4.38277e-20)
(4.9638 0.0419239 -4.31065e-20)
(4.94336 0.0402179 0)
(4.92223 0.0386674 0)
(4.90153 0.0374136 4.09664e-20)
(4.88191 0.0364099 0)
(4.8637 0.0354796 0)
(4.84704 0.0343782 -7.77056e-20)
(4.83201 0.0328921 0)
(4.81868 0.0309245 -3.74603e-20)
(4.80717 0.0285134 3.67698e-20)
(4.7976 0.0258148 0)
(4.79004 0.0230396 -3.53931e-20)
(4.78442 0.0203848 0)
(4.78051 0.0179943 0)
(4.77796 0.0159449 3.33525e-20)
(4.77635 0.0142529 -6.53533e-20)
(4.77521 0.0128927 3.20053e-20)
(4.77414 0.0118151 0)
(4.7728 0.0109713 0)
(4.77099 0.0103096 -3.00079e-20)
(4.76851 0.00981057 0)
(4.76538 0.00943453 -2.86933e-20)
(4.76145 0.00922061 0)
(4.75684 0.00910385 0)
(4.75135 0.00923011 0)
(4.74513 0.00939929 -2.60997e-20)
(4.73782 0.0100349 0)
(4.72942 0.0105493 2.48187e-20)
(4.71967 0.0121475 0)
(4.7076 0.0131007 0)
(4.69442 0.016755 -4.58263e-20)
(4.67498 0.0181549 4.45599e-20)
(4.65744 0.0264992 0)
(4.62126 0.0279972 0)
(4.60051 0.0479644 0)
(4.52218 0.0488357 -1.18415e-19)
(4.50917 0.100623 0)
(4.31952 0.103414 7.39058e-20)
(0.109342 0.786746 -1.15216e-23)
(0.160315 0.771452 1.20701e-19)
(0.499467 0.0339621 0)
(1.25404 -1.23586 -1.18645e-19)
(2.09679 -2.35053 0)
(2.8589 -3.09618 0)
(3.49731 -3.47012 -7.24322e-22)
(4.01551 -3.5397 5.6925e-20)
(4.43366 -3.38941 5.77055e-20)
(4.76462 -3.09749 5.64092e-20)
(5.02193 -2.72939 0)
(5.22388 -2.33218 0)
(5.39011 -1.93367 -5.73154e-20)
(5.53457 -1.54461 -1.14377e-19)
(5.66401 -1.16524 1.14056e-19)
(5.77765 -0.790599 0)
(5.8686 -0.413352 1.13127e-19)
(5.92849 -0.0315748 -5.52113e-20)
(5.94872 0.360977 0)
(5.93763 0.756414 1.10447e-19)
(5.89143 1.16227 5.35831e-20)
(5.80855 1.56575 -1.07924e-19)
(5.6903 1.96185 -5.2252e-20)
(5.52013 2.32615 0)
(5.32044 2.61741 1.03648e-19)
(5.02729 2.80454 1.02251e-19)
(4.67485 2.79829 0)
(4.21834 2.61667 9.96432e-20)
(3.66554 2.12528 0)
(3.15589 1.49368 9.74157e-20)
(2.74881 0.597359 4.88273e-20)
(2.23309 -0.41966 0)
(2.33374 -1.54903 0)
(2.34811 -2.18687 0)
(1.76943 -1.96772 0)
(0.925033 -0.161342 0)
(-0.461087 1.3395 0)
(-1.79508 2.2534 9.18202e-20)
(-2.93754 3.00757 -1.35843e-19)
(-4.03913 3.44663 0)
(-4.93836 3.65351 0)
(-5.62921 3.73808 0)
(-6.16935 3.6807 -1.78303e-21)
(-6.57637 3.47223 8.60505e-20)
(-6.92272 3.1923 1.74125e-19)
(-7.22853 2.87762 -1.7451e-19)
(-7.5192 2.56803 -8.86314e-20)
(-7.80208 2.28099 8.719e-20)
(-8.08244 2.02533 1.59807e-21)
(-8.361 1.80343 8.99026e-20)
(-8.63685 1.61309 0)
(-8.90845 1.45051 9.08415e-20)
(-9.17389 1.31089 9.14618e-22)
(-9.43149 1.18957 0)
(-9.67952 1.0821 0)
(-9.91627 0.984451 -9.23969e-20)
(-10.1399 0.893154 0)
(-10.3486 0.805372 0)
(-10.5406 0.71893 9.3534e-20)
(-10.7137 0.632227 1.85908e-19)
(-10.866 0.544169 -9.22818e-20)
(-10.9955 0.454151 0)
(-11.1002 0.362074 9.17098e-20)
(-11.1785 0.268364 0)
(-11.2291 0.173921 9.16586e-20)
(-11.2511 0.0798981 8.97985e-20)
(-11.2443 -0.0125768 -1.78715e-19)
(-11.2089 -0.102346 -8.8707e-20)
(-11.1455 -0.187859 0)
(-11.0558 -0.267833 1.71193e-19)
(-10.9415 -0.341569 0)
(-10.8043 -0.40851 2.47245e-19)
(-10.6464 -0.468915 1.61732e-19)
(-10.4694 -0.523359 1.58298e-19)
(-10.2751 -0.572958 -1.54777e-19)
(-10.0644 -0.619222 2.2657e-19)
(-9.83788 -0.663904 0)
(-9.59533 -0.708884 0)
(-9.33595 -0.755939 -1.40228e-19)
(-9.05833 -0.80653 -2.04577e-19)
(-8.76066 -0.861616 0)
(-8.44093 -0.921492 6.42886e-20)
(-8.09715 -0.985717 0)
(-7.72764 -1.0531 -1.81995e-19)
(-7.33129 -1.12176 5.78876e-22)
(-6.90775 -1.18929 -5.92901e-22)
(-6.45763 -1.253 1.10105e-19)
(-5.98271 -1.3101 0)
(-5.48609 -1.35814 -1.02693e-19)
(-4.97174 -1.39558 5.52745e-22)
(-4.44378 -1.42206 0)
(-3.90641 -1.438 0)
(-3.36365 -1.44466 0)
(-2.81797 -1.44449 8.62892e-20)
(-2.26995 -1.43949 0)
(-1.7194 -1.42843 0)
(-1.16335 -1.40743 0)
(-0.601547 -1.37095 0)
(-0.0396955 -1.31656 0)
(0.50887 -1.23922 7.47042e-20)
(1.02846 -1.14169 0)
(1.50369 -1.02959 7.20211e-20)
(1.92469 -0.915737 7.11095e-20)
(2.28253 -0.811767 -7.03268e-20)
(2.5733 -0.723448 0)
(2.80866 -0.650412 -6.90025e-20)
(3.01514 -0.591347 0)
(3.21972 -0.543867 -6.77884e-20)
(3.43644 -0.500328 6.7172e-20)
(3.66077 -0.450586 1.99886e-19)
(3.8747 -0.389372 0)
(4.06092 -0.319379 1.96052e-19)
(4.21299 -0.247888 6.48117e-20)
(4.33296 -0.182142 0)
(4.42388 -0.127186 1.26895e-19)
(4.48673 -0.085564 1.25573e-19)
(4.52301 -0.0576167 -1.86309e-19)
(4.53764 -0.0420851 0)
(4.53884 -0.0368747 -6.07148e-20)
(4.53556 -0.0395836 -6.00157e-20)
(4.53505 -0.0476189 -1.77958e-19)
(4.54156 -0.0580761 0)
(4.55646 -0.0679741 0)
(4.57908 -0.075029 0)
(4.60768 -0.0780388 -5.64081e-20)
(4.64011 -0.0766763 0)
(4.67442 -0.0714755 0)
(4.70911 -0.0635821 5.41468e-20)
(4.74295 -0.0542063 5.34015e-20)
(4.77504 -0.0445492 0)
(4.80522 -0.0355305 0)
(4.83391 -0.0274973 1.02334e-19)
(4.86216 -0.0202193 0)
(4.89142 -0.0129619 -9.936e-20)
(4.92257 -0.00507979 -9.78902e-20)
(4.95551 0.00382289 0)
(4.98875 0.0136088 0)
(5.01943 0.023608 9.34648e-20)
(5.04419 0.0328233 -7.40005e-24)
(5.06039 0.0403552 -5.84419e-24)
(5.06691 0.0456702 0)
(5.06452 0.0487195 1.75291e-19)
(5.05536 0.0498483 0)
(5.04219 0.049599 0)
(5.02757 0.0485118 0)
(5.01344 0.0469827 -8.19201e-20)
(5.00099 0.0452105 0)
(4.99071 0.0432092 1.58194e-19)
(4.98268 0.0408473 7.76935e-20)
(4.97672 0.0379461 0)
(4.97264 0.0344208 7.49088e-20)
(4.9703 0.0303458 0)
(4.96969 0.0259295 0)
(4.97085 0.0214629 2.12321e-19)
(4.97378 0.0172482 -1.38811e-19)
(4.97839 0.0135364 0)
(4.98443 0.0104935 -1.33376e-19)
(4.99153 0.00818338 6.53397e-20)
(4.99924 0.00658386 0)
(5.00709 0.00560127 0)
(5.01467 0.00512093 0)
(5.02164 0.00500221 1.80006e-19)
(5.0278 0.0051591 0)
(5.033 0.00547524 5.73725e-20)
(5.03726 0.00597512 0)
(5.04048 0.00653819 0)
(5.04288 0.00736256 0)
(5.04413 0.00817903 0)
(5.04474 0.00954717 0)
(5.0438 0.0107509 0)
(5.04246 0.0132573 9.67103e-20)
(5.03846 0.0151105 0)
(5.03475 0.0200641 4.58125e-20)
(5.02578 0.0229195 -1.33657e-19)
(5.01916 0.0332493 0)
(5.00125 0.0377065 0)
(4.99152 0.0605103 8.15298e-20)
(4.95712 0.0688988 7.8933e-20)
(4.94696 0.122645 -7.64869e-20)
(4.88816 0.146778 -7.38699e-20)
(-0.177673 0.544993 -1.82479e-19)
(0.255206 -0.0745462 -1.80988e-19)
(1.2594 -1.90229 -1.19548e-19)
(2.22162 -3.33991 -5.96352e-20)
(2.99006 -4.16876 0)
(3.5323 -4.48108 1.17845e-19)
(3.87686 -4.42793 -5.97325e-20)
(4.07466 -4.12991 0)
(4.16671 -3.68445 -5.77178e-20)
(4.19238 -3.17996 0)
(4.19519 -2.68497 1.1724e-19)
(4.21441 -2.23837 0)
(4.27329 -1.84506 5.74779e-20)
(4.37314 -1.48888 1.1471e-19)
(4.50084 -1.14532 -1.14388e-19)
(4.63386 -0.793783 0)
(4.75556 -0.422756 -1.13449e-19)
(4.84792 -0.0257578 0)
(4.90514 0.395031 0)
(4.92883 0.83507 -1.10706e-19)
(4.92503 1.28166 0)
(4.90543 1.71793 -1.78101e-21)
(4.86706 2.14957 0)
(4.82194 2.53962 0)
(4.74531 2.91214 1.42607e-21)
(4.666 3.16319 -1.02269e-19)
(4.469 3.29648 -1.01628e-19)
(4.22823 3.1985 -9.95506e-20)
(3.80225 2.92782 0)
(3.3644 2.14679 -1.93723e-19)
(2.83526 1.43457 0)
(2.29172 0.237834 -9.38982e-20)
(1.97414 -1.60032 0)
(0.87704 -0.724664 0)
(-0.748456 1.06542 9.27193e-20)
(-2.00996 2.20508 0)
(-3.13943 3.12711 -9.16714e-20)
(-4.09101 3.81083 9.06572e-23)
(-4.86863 4.26556 1.81059e-19)
(-5.43476 4.45292 -1.8094e-19)
(-5.83586 4.46086 0)
(-6.10944 4.33454 0)
(-6.30679 4.11616 -9.17199e-20)
(-6.46511 3.83072 0)
(-6.61709 3.51889 -8.81831e-20)
(-6.77674 3.20443 8.83797e-20)
(-6.95479 2.90547 8.8688e-20)
(-7.15283 2.63165 0)
(-7.36909 2.3861 -8.95241e-20)
(-7.59979 2.16926 -8.99967e-20)
(-7.84017 1.97864 1.83284e-19)
(-8.08605 1.81096 -9.0948e-20)
(-8.33357 1.66233 -9.13979e-20)
(-8.57953 1.52877 0)
(-8.82096 1.40631 0)
(-9.05513 1.2912 9.25147e-20)
(-9.27941 1.18004 0)
(-9.49117 1.06998 0)
(-9.68772 0.958731 -1.8614e-19)
(-9.8663 0.844603 -1.86155e-19)
(-10.0242 0.726514 0)
(-10.1588 0.604099 0)
(-10.2676 0.477688 0)
(-10.3484 0.348203 0)
(-10.3995 0.217096 -1.82512e-19)
(-10.4198 0.0861127 1.82297e-19)
(-10.4087 -0.0428411 1.78978e-19)
(-10.3664 -0.167468 3.54686e-19)
(-10.2938 -0.285913 0)
(-10.1924 -0.39649 1.05155e-21)
(-10.0644 -0.498017 0)
(-9.91214 -0.589983 -1.65259e-19)
(-9.73817 -0.672584 7.45491e-22)
(-9.54496 -0.746779 -1.58496e-19)
(-9.33474 -0.814194 1.54969e-19)
(-9.10932 -0.876987 5.39971e-22)
(-8.86999 -0.937646 0)
(-8.61744 -0.998734 1.44578e-19)
(-8.35166 -1.06261 1.40393e-19)
(-8.07203 -1.13115 2.73901e-19)
(-7.77731 -1.20549 0)
(-7.46581 -1.28588 -1.29813e-19)
(-7.1355 -1.37166 0)
(-6.78429 -1.46128 2.43946e-19)
(-6.41031 -1.55239 -1.17806e-19)
(-6.01226 -1.64199 1.13983e-19)
(-5.58965 -1.72652 -1.10177e-19)
(-5.14323 -1.80212 -2.14343e-19)
(-4.67563 -1.86512 1.02743e-19)
(-4.19109 -1.9131 -9.91868e-20)
(-3.69434 -1.94562 0)
(-3.19029 -1.96352 1.86419e-19)
(-2.68425 -1.96877 0)
(-2.18044 -1.96542 1.7472e-19)
(-1.6811 -1.95854 -1.69563e-19)
(-1.18698 -1.95045 -1.64871e-19)
(-0.692003 -1.93719 1.60635e-19)
(-0.187945 -1.90818 1.56794e-19)
(0.329531 -1.85044 0)