/*--------------------------------*- C++ -*----------------------------------*\
  =========                 |
  \\      /  F ield         | OpenFOAM: The Open Source CFD Toolbox
   \\    /   O peration     | Website:  https://openfoam.org
    \\  /    A nd           | Version:  9
     \\/     M anipulation  |
\*---------------------------------------------------------------------------*/
FoamFile
{
    format      ascii;
    class       volSymmTensorField;
    location    "0.033";
    object      UPrime2Mean;
}
// * * * * * * * * * * * * * * * * * * * * * * * * * * * * * * * * * * * * * //

dimensions      [0 2 -2 0 0 0 0];

internalField   nonuniform List<symmTensor> 
12225
(
(-48.4463 -0.211129 0 0.00146526 0 0)
(-45.5465 -0.28444 0 -0.000666857 0 0)
(-42.6809 -0.270346 0 -0.000941411 0 0)
(-39.8549 -0.262622 0 -0.00115451 0 0)
(-37.1134 -0.258599 0 -0.00134533 0 0)
(-34.4956 -0.250692 0 -0.00142978 0 0)
(-32.002 -0.241324 0 -0.00146163 0 0)
(-29.6519 -0.231361 0 -0.00147964 0 0)
(-27.397 -0.225008 0 -0.00151053 0 0)
(-25.2728 -0.217084 0 -0.00155096 0 0)
(-23.1792 -0.216278 0 -0.00160187 0 0)
(-21.2104 -0.210207 0 -0.00170534 0 0)
(-19.1574 -0.222547 0 -0.0017919 0 0)
(-17.2361 -0.216604 0 -0.00207116 0 0)
(-15.057 -0.257392 0 -0.00205749 0 0)
(-13.0394 -0.242461 0 -0.00278961 0 0)
(-10.5023 -0.361558 0 -0.00131654 0 0)
(-8.08907 -0.33652 0 -0.0052055 0 0)
(-50.2099 -0.272747 0 0.00162064 0 0)
(-50.7736 -0.396165 0 -0.00153136 0 0)
(-51.0969 -0.385774 0 -0.00196644 0 0)
(-51.1676 -0.39203 0 -0.00227526 0 0)
(-51.0591 -0.417313 0 -0.00278226 0 0)
(-50.8164 -0.445486 0 -0.00332992 0 0)
(-50.4398 -0.467449 0 -0.00377074 0 0)
(-49.9505 -0.488802 0 -0.00417149 0 0)
(-49.3397 -0.507022 0 -0.00456745 0 0)
(-48.6403 -0.533306 0 -0.0050375 0 0)
(-47.8106 -0.558768 0 -0.00560156 0 0)
(-46.8975 -0.602078 0 -0.00628758 0 0)
(-45.8048 -0.646131 0 -0.00730685 0 0)
(-44.6272 -0.721209 0 -0.00840132 0 0)
(-43.1788 -0.803297 0 -0.01053 0 0)
(-41.6295 -0.939637 0 -0.0123022 0 0)
(-39.6629 -1.12911 0 -0.0171928 0 0)
(-37.5503 -1.43524 0 -0.0181711 0 0)
(-49.704 -0.159496 0 0.00300103 0 0)
(-50.0588 -0.27921 0 0.00028593 0 0)
(-50.3365 -0.299713 0 -0.000561075 0 0)
(-50.4651 -0.323076 0 -0.00105902 0 0)
(-50.5011 -0.361888 0 -0.00167182 0 0)
(-50.4992 -0.402147 0 -0.00231663 0 0)
(-50.4645 -0.439277 0 -0.0029058 0 0)
(-50.3896 -0.474554 0 -0.00348301 0 0)
(-50.2624 -0.513309 0 -0.00406763 0 0)
(-50.0846 -0.556081 0 -0.0047819 0 0)
(-49.85 -0.610004 0 -0.00554513 0 0)
(-49.5595 -0.672196 0 -0.00663358 0 0)
(-49.2019 -0.757363 0 -0.00777407 0 0)
(-48.7701 -0.857198 0 -0.00969086 0 0)
(-48.2563 -1.00318 0 -0.0116433 0 0)
(-47.6429 -1.18715 0 -0.015251 0 0)
(-46.9744 -1.47345 0 -0.0188119 0 0)
(-46.2528 -1.87211 0 -0.0214517 0 0)
(-50.0604 -0.151655 0 0.00303435 0 0)
(-50.2313 -0.297195 0 0.000342129 0 0)
(-50.3863 -0.326323 0 -0.000627391 0 0)
(-50.4544 -0.345138 0 -0.00109037 0 0)
(-50.447 -0.382276 0 -0.0017179 0 0)
(-50.3949 -0.427012 0 -0.00245155 0 0)
(-50.3093 -0.46905 0 -0.00313892 0 0)
(-50.1904 -0.509978 0 -0.00377373 0 0)
(-50.0392 -0.5514 0 -0.00442976 0 0)
(-49.8579 -0.599253 0 -0.00516803 0 0)
(-49.6477 -0.6556 0 -0.00607517 0 0)
(-49.4038 -0.728116 0 -0.00715846 0 0)
(-49.1199 -0.820165 0 -0.00859915 0 0)
(-48.7908 -0.941382 0 -0.0104021 0 0)
(-48.4126 -1.10078 0 -0.0128556 0 0)
(-48.0004 -1.31521 0 -0.0159066 0 0)
(-47.5763 -1.60482 0 -0.018944 0 0)
(-47.2229 -1.9828 0 -0.0205638 0 0)
(-49.9338 -0.126737 0 0.00389411 0 0)
(-50.0643 -0.269371 0 0.00102908 0 0)
(-50.1828 -0.317119 0 -0.000381969 0 0)
(-50.238 -0.342925 0 -0.000975326 0 0)
(-50.2252 -0.382279 0 -0.00158716 0 0)
(-50.1703 -0.431511 0 -0.00232336 0 0)
(-50.0911 -0.481046 0 -0.00305447 0 0)
(-49.9887 -0.528722 0 -0.00374588 0 0)
(-49.8545 -0.578145 0 -0.0044358 0 0)
(-49.6827 -0.633795 0 -0.00522351 0 0)
(-49.4691 -0.700961 0 -0.00613295 0 0)
(-49.2149 -0.783937 0 -0.007257 0 0)
(-48.9179 -0.888628 0 -0.00861901 0 0)
(-48.5866 -1.02195 0 -0.0103304 0 0)
(-48.2219 -1.1926 0 -0.0124161 0 0)
(-47.8513 -1.41486 0 -0.014594 0 0)
(-47.4875 -1.69323 0 -0.0163318 0 0)
(-47.1987 -2.03616 0 -0.014666 0 0)
(-49.7946 -0.111526 0 0.00453212 0 0)
(-49.8966 -0.24007 0 0.00168743 0 0)
(-50.0154 -0.305694 0 0.00014469 0 0)
(-50.0974 -0.341927 0 -0.000616418 0 0)
(-50.1236 -0.383727 0 -0.00133635 0 0)
(-50.1083 -0.435861 0 -0.00213271 0 0)
(-50.0624 -0.490868 0 -0.00292916 0 0)
(-49.9852 -0.545879 0 -0.00369412 0 0)
(-49.8699 -0.603163 0 -0.00447171 0 0)
(-49.7146 -0.667387 0 -0.00533008 0 0)
(-49.518 -0.743187 0 -0.00630737 0 0)
(-49.2842 -0.835702 0 -0.00744485 0 0)
(-49.0123 -0.950232 0 -0.00876113 0 0)
(-48.713 -1.0938 0 -0.0102972 0 0)
(-48.3883 -1.27278 0 -0.0119361 0 0)
(-48.0664 -1.4964 0 -0.0133544 0 0)
(-47.7552 -1.76437 0 -0.0135819 0 0)
(-47.5109 -2.07888 0 -0.0105749 0 0)
(-49.5178 -0.11113 0 0.00454934 0 0)
(-49.5977 -0.226698 0 0.00232166 0 0)
(-49.6546 -0.295797 0 0.000583215 0 0)
(-49.6871 -0.337523 0 -0.000313826 0 0)
(-49.6782 -0.38201 0 -0.000977123 0 0)
(-49.6292 -0.437146 0 -0.00171164 0 0)
(-49.5537 -0.49816 0 -0.00252821 0 0)
(-49.459 -0.561842 0 -0.00335659 0 0)
(-49.3405 -0.629311 0 -0.00418238 0 0)
(-49.1935 -0.7048 0 -0.00504525 0 0)
(-49.0125 -0.792672 0 -0.00599018 0 0)
(-48.7993 -0.897905 0 -0.00704384 0 0)
(-48.5516 -1.02442 0 -0.0082083 0 0)
(-48.2806 -1.17837 0 -0.00941964 0 0)
(-47.9888 -1.36324 0 -0.0105121 0 0)
(-47.7038 -1.58564 0 -0.0110164 0 0)
(-47.4308 -1.84283 0 -0.0100558 0 0)
(-47.2179 -2.1352 0 -0.00621628 0 0)
(-50.1382 -0.0628313 0 0.00580064 0 0)
(-50.1989 -0.2097 0 0.00309372 0 0)
(-50.2564 -0.292198 0 0.00120221 0 0)
(-50.2877 -0.34886 0 0.000171759 0 0)
(-50.2702 -0.401956 0 -0.000627504 0 0)
(-50.205 -0.460556 0 -0.00138852 0 0)
(-50.1044 -0.524619 0 -0.00218517 0 0)
(-49.9771 -0.592068 0 -0.00302455 0 0)
(-49.825 -0.663789 0 -0.00390499 0 0)
(-49.6496 -0.743933 0 -0.00483542 0 0)
(-49.4518 -0.837301 0 -0.00582235 0 0)
(-49.234 -0.949135 0 -0.00686223 0 0)
(-48.9975 -1.08327 0 -0.00792576 0 0)
(-48.7476 -1.2445 0 -0.00891134 0 0)
(-48.4894 -1.43456 0 -0.00958824 0 0)
(-48.2347 -1.6564 0 -0.00944661 0 0)
(-47.996 -1.90633 0 -0.00773755 0 0)
(-47.791 -2.18201 0 -0.00336536 0 0)
(-49.5905 -0.0845997 0 0.00504037 0 0)
(-49.5506 -0.19366 0 0.00266568 0 0)
(-49.5599 -0.279849 0 0.000943692 0 0)
(-49.5867 -0.344884 0 -4.03407e-05 0 0)
(-49.5981 -0.40308 0 -0.000790122 0 0)
(-49.5879 -0.466306 0 -0.00156649 0 0)
(-49.5581 -0.537537 0 -0.00241374 0 0)
(-49.5062 -0.614903 0 -0.00328226 0 0)
(-49.4261 -0.697759 0 -0.00412798 0 0)
(-49.3147 -0.788896 0 -0.00495729 0 0)
(-49.1716 -0.892285 0 -0.0057872 0 0)
(-49.0005 -1.01264 0 -0.00660475 0 0)
(-48.8068 -1.15361 0 -0.00735183 0 0)
(-48.6005 -1.31909 0 -0.0078827 0 0)
(-48.391 -1.51063 0 -0.00795861 0 0)
(-48.1923 -1.72968 0 -0.00712827 0 0)
(-48.0125 -1.97291 0 -0.00480443 0 0)
(-47.867 -2.23746 0 -0.000200945 0 0)
(-49.7889 -0.107235 0 0.00554724 0 0)
(-49.8129 -0.182358 0 0.00324792 0 0)
(-49.8605 -0.275709 0 0.00150198 0 0)
(-49.916 -0.348297 0 0.000541215 0 0)
(-49.9418 -0.408072 0 -0.000184377 0 0)
(-49.9233 -0.470648 0 -0.000906074 0 0)
(-49.8657 -0.542504 0 -0.00169575 0 0)
(-49.7795 -0.623525 0 -0.00254483 0 0)
(-49.6741 -0.71255 0 -0.00340028 0 0)
(-49.5553 -0.81118 0 -0.00423322 0 0)
(-49.4253 -0.922694 0 -0.00503261 0 0)
(-49.2839 -1.05107 0 -0.00576509 0 0)
(-49.1321 -1.19908 0 -0.00635393 0 0)
(-48.9722 -1.36903 0 -0.00664607 0 0)
(-48.8108 -1.56112 0 -0.00639119 0 0)
(-48.6557 -1.77576 0 -0.00518529 0 0)
(-48.5167 -2.00968 0 -0.00253997 0 0)
(-48.4011 -2.26134 0 0.00203351 0 0)
(-49.6308 -0.0757425 0 0.00576774 0 0)
(-49.6527 -0.173367 0 0.00394636 0 0)
(-49.6654 -0.262167 0 0.00204355 0 0)
(-49.6816 -0.33988 0 0.00077637 0 0)
(-49.6854 -0.412121 0 -9.7986e-05 0 0)
(-49.6621 -0.487699 0 -0.000837211 0 0)
(-49.6135 -0.570308 0 -0.00162139 0 0)
(-49.547 -0.659057 0 -0.00243447 0 0)
(-49.4677 -0.753067 0 -0.00319735 0 0)
(-49.3784 -0.854485 0 -0.00386899 0 0)
(-49.2803 -0.967487 0 -0.00441043 0 0)
(-49.1745 -1.09705 0 -0.00477215 0 0)
(-49.0629 -1.24639 0 -0.00488549 0 0)
(-48.9499 -1.41772 0 -0.00464971 0 0)
(-48.8389 -1.61017 0 -0.00387279 0 0)
(-48.7367 -1.82311 0 -0.00223565 0 0)
(-48.6464 -2.05258 0 0.000646883 0 0)
(-48.5764 -2.29694 0 0.0051441 0 0)
(-49.93 -0.0918929 0 0.00600717 0 0)
(-49.9549 -0.186638 0 0.00383956 0 0)
(-50.0011 -0.26361 0 0.00201262 0 0)
(-50.0538 -0.340656 0 0.000803166 0 0)
(-50.0804 -0.415778 0 -4.12158e-05 0 0)
(-50.0721 -0.492451 0 -0.000720737 0 0)
(-50.0369 -0.574779 0 -0.00142441 0 0)
(-49.9851 -0.664337 0 -0.00217302 0 0)
(-49.9228 -0.761807 0 -0.00289287 0 0)
(-49.8507 -0.868906 0 -0.00350762 0 0)
(-49.7677 -0.988218 0 -0.00395375 0 0)
(-49.6724 -1.12314 0 -0.00418092 0 0)
(-49.5683 -1.27571 0 -0.00411242 0 0)
(-49.4593 -1.44769 0 -0.00364316 0 0)
(-49.3556 -1.63799 0 -0.002605 0 0)
(-49.2596 -1.84643 0 -0.000745079 0 0)
(-49.1849 -2.06916 0 0.00222437 0 0)
(-49.1247 -2.30568 0 0.00651345 0 0)
(-50.1363 -0.061964 0 0.00743276 0 0)
(-50.1377 -0.154279 0 0.00517671 0 0)
(-50.1721 -0.240999 0 0.0026937 0 0)
(-50.2175 -0.327001 0 0.00151198 0 0)
(-50.2429 -0.413433 0 0.000715012 0 0)
(-50.2389 -0.501719 0 -2.6629e-05 0 0)
(-50.2097 -0.592746 0 -0.000755022 0 0)
(-50.1627 -0.687705 0 -0.00143777 0 0)
(-50.1042 -0.788485 0 -0.00203122 0 0)
(-50.0382 -0.898209 0 -0.00247787 0 0)
(-49.967 -1.02038 0 -0.00271302 0 0)
(-49.8923 -1.15845 0 -0.00268262 0 0)
(-49.8169 -1.31393 0 -0.00233228 0 0)
(-49.7438 -1.48749 0 -0.00157416 0 0)
(-49.6774 -1.67721 0 -0.000254417 0 0)
(-49.621 -1.88218 0 0.00185897 0 0)
(-49.5797 -2.09874 0 0.00496391 0 0)
(-49.5546 -2.3268 0 0.00922876 0 0)
(-50.1719 -0.115114 0 0.00865539 0 0)
(-50.1541 -0.160071 0 0.00654525 0 0)
(-50.1355 -0.245004 0 0.00469501 0 0)
(-50.1285 -0.332842 0 0.00347671 0 0)
(-50.1346 -0.416944 0 0.00251416 0 0)
(-50.1476 -0.50355 0 0.00172704 0 0)
(-50.1587 -0.59587 0 0.00100946 0 0)
(-50.1618 -0.694181 0 0.000351844 0 0)
(-50.1538 -0.798972 0 -0.000189592 0 0)
(-50.1342 -0.912364 0 -0.000544965 0 0)
(-50.1047 -1.03669 0 -0.00063321 0 0)
(-50.0694 -1.17478 0 -0.000391931 0 0)
(-50.0333 -1.328 0 0.00023202 0 0)
(-50.0028 -1.49772 0 0.0012933 0 0)
(-49.9817 -1.6823 0 0.00284414 0 0)
(-49.9748 -1.88164 0 0.00504076 0 0)
(-49.9823 -2.09134 0 0.00802202 0 0)
(-50.0087 -2.31259 0 0.0118427 0 0)
(-49.9128 -0.0652941 0 0.00805577 0 0)
(-49.9725 -0.161272 0 0.00610524 0 0)
(-49.9978 -0.244173 0 0.00396409 0 0)
(-50.0056 -0.324353 0 0.00295272 0 0)
(-50.0154 -0.407172 0 0.00228948 0 0)
(-50.0268 -0.494642 0 0.00174641 0 0)
(-50.0331 -0.587675 0 0.00129788 0 0)
(-50.0345 -0.687628 0 0.000946994 0 0)
(-50.0342 -0.796211 0 0.000723194 0 0)
(-50.0347 -0.915272 0 0.000677986 0 0)
(-50.0358 -1.04551 0 0.000877971 0 0)
(-50.039 -1.18806 0 0.00138509 0 0)
(-50.0452 -1.34254 0 0.00227096 0 0)
(-50.0592 -1.50992 0 0.00360177 0 0)
(-50.0815 -1.68801 0 0.00546923 0 0)
(-50.1193 -1.87799 0 0.00796803 0 0)
(-50.1691 -2.07523 0 0.0112035 0 0)
(-50.2428 -2.28314 0 0.0151692 0 0)
(-50.099 -0.0327704 0 0.0105717 0 0)
(-50.1119 -0.160811 0 0.0091268 0 0)
(-50.1078 -0.24381 0 0.00683156 0 0)
(-50.1243 -0.319136 0 0.00536133 0 0)
(-50.1594 -0.403152 0 0.00443454 0 0)
(-50.195 -0.496125 0 0.00375089 0 0)
(-50.219 -0.59413 0 0.00319268 0 0)
(-50.2334 -0.695346 0 0.00279451 0 0)
(-50.2452 -0.800585 0 0.00261796 0 0)
(-50.2599 -0.912802 0 0.00272336 0 0)
(-50.2789 -1.03445 0 0.0031726 0 0)
(-50.3045 -1.1682 0 0.00399269 0 0)
(-50.3372 -1.31408 0 0.00519884 0 0)
(-50.381 -1.47305 0 0.00679913 0 0)
(-50.4357 -1.64217 0 0.00881169 0 0)
(-50.507 -1.82236 0 0.011334 0 0)
(-50.5919 -2.00802 0 0.0144463 0 0)
(-50.6985 -2.20277 0 0.018101 0 0)
(-50.1198 -0.0724453 0 0.010787 0 0)
(-50.0902 -0.14255 0 0.00944445 0 0)
(-50.0789 -0.219616 0 0.00625205 0 0)
(-50.0921 -0.29897 0 0.00468465 0 0)
(-50.1177 -0.382035 0 0.00421368 0 0)
(-50.1532 -0.470978 0 0.00416562 0 0)
(-50.1981 -0.566202 0 0.00414894 0 0)
(-50.2516 -0.66778 0 0.0041274 0 0)
(-50.3103 -0.775957 0 0.00422079 0 0)
(-50.3707 -0.892033 0 0.00454585 0 0)
(-50.43 -1.01639 0 0.00516594 0 0)
(-50.4903 -1.14987 0 0.00609954 0 0)
(-50.5541 -1.29091 0 0.0073698 0 0)
(-50.6277 -1.43995 0 0.00903286 0 0)
(-50.7133 -1.59388 0 0.0111351 0 0)
(-50.8185 -1.75499 0 0.0137583 0 0)
(-50.9404 -1.91792 0 0.0169613 0 0)
(-51.089 -2.08868 0 0.0206613 0 0)
(-49.5783 -0.0743925 0 0.0119146 0 0)
(-49.6556 -0.13219 0 0.0109029 0 0)
(-49.7284 -0.216434 0 0.00821768 0 0)
(-49.7938 -0.301094 0 0.00709456 0 0)
(-49.8534 -0.378561 0 0.00672344 0 0)
(-49.9189 -0.45208 0 0.0064874 0 0)
(-49.9953 -0.528255 0 0.00623549 0 0)
(-50.0803 -0.613012 0 0.00612765 0 0)
(-50.1706 -0.709109 0 0.00630674 0 0)
(-50.2669 -0.816967 0 0.00678872 0 0)
(-50.3714 -0.934623 0 0.00753901 0 0)
(-50.4876 -1.06047 0 0.00854651 0 0)
(-50.6166 -1.19124 0 0.0098528 0 0)
(-50.7606 -1.32643 0 0.0115214 0 0)
(-50.9193 -1.46254 0 0.0135684 0 0)
(-51.0949 -1.60202 0 0.0160727 0 0)
(-51.2854 -1.73985 0 0.0190501 0 0)
(-51.4932 -1.88269 0 0.022412 0 0)
(-49.819 0.0183974 0 0.0110847 0 0)
(-49.9222 -0.0753778 0 0.0100177 0 0)
(-50.0309 -0.152935 0 0.00783031 0 0)
(-50.1462 -0.222195 0 0.00674407 0 0)
(-50.269 -0.292841 0 0.00636889 0 0)
(-50.3963 -0.369829 0 0.00631862 0 0)
(-50.5245 -0.45332 0 0.0064525 0 0)
(-50.6529 -0.542127 0 0.00676026 0 0)
(-50.7823 -0.634857 0 0.00726337 0 0)
(-50.9156 -0.730849 0 0.0079885 0 0)
(-51.056 -0.829166 0 0.00895198 0 0)
(-51.2075 -0.929881 0 0.010169 0 0)
(-51.3713 -1.03188 0 0.011653 0 0)
(-51.5494 -1.13626 0 0.013437 0 0)
(-51.7399 -1.24136 0 0.0155262 0 0)
(-51.944 -1.35019 0 0.018001 0 0)
(-52.1576 -1.45875 0 0.0208448 0 0)
(-52.3831 -1.57312 0 0.0240529 0 0)
(-50.0297 0.0678578 0 0.0113313 0 0)
(-49.9072 0.00904801 0 0.0112333 0 0)
(-49.8405 -0.060327 0 0.00764178 0 0)
(-49.8556 -0.12137 0 0.0058852 0 0)
(-49.9252 -0.177035 0 0.00537963 0 0)
(-50.0228 -0.235264 0 0.00540786 0 0)
(-50.1373 -0.301424 0 0.00569787 0 0)
(-50.2674 -0.377097 0 0.00607257 0 0)
(-50.4133 -0.460145 0 0.00646953 0 0)
(-50.5747 -0.547562 0 0.00697131 0 0)
(-50.7494 -0.636379 0 0.00768382 0 0)
(-50.9348 -0.725653 0 0.00865335 0 0)
(-51.1269 -0.814308 0 0.00987336 0 0)
(-51.3254 -0.903706 0 0.0113358 0 0)
(-51.5284 -0.992964 0 0.0130093 0 0)
(-51.7396 -1.08468 0 0.0149426 0 0)
(-51.9565 -1.17565 0 0.0171042 0 0)
(-52.1858 -1.27012 0 0.0194815 0 0)
(-50.2253 -0.122162 0 0.010186 0 0)
(-50.3021 -0.110412 0 0.00902631 0 0)
(-50.3944 -0.13507 0 0.00652102 0 0)
(-50.5029 -0.168273 0 0.00550492 0 0)
(-50.619 -0.203943 0 0.00511139 0 0)
(-50.7358 -0.243666 0 0.00506626 0 0)
(-50.858 -0.289446 0 0.00528538 0 0)
(-50.9919 -0.341985 0 0.00570549 0 0)
(-51.1406 -0.400565 0 0.00627967 0 0)
(-51.3059 -0.464657 0 0.00699531 0 0)
(-51.4887 -0.53332 0 0.00784878 0 0)
(-51.6859 -0.606167 0 0.00883821 0 0)
(-51.8938 -0.681363 0 0.00996859 0 0)
(-52.108 -0.758264 0 0.0112603 0 0)
(-52.3279 -0.834122 0 0.0127143 0 0)
(-52.5511 -0.909586 0 0.0143842 0 0)
(-52.7806 -0.981335 0 0.0162344 0 0)
(-53.0126 -1.05284 0 0.0182579 0 0)
(-50.034 0.0916398 0 0.0118616 0 0)
(-50.1279 0.0653611 0 0.0100815 0 0)
(-50.2176 0.0311371 0 0.00669049 0 0)
(-50.3219 -0.012802 0 0.00533502 0 0)
(-50.4449 -0.0573042 0 0.0051043 0 0)
(-50.5838 -0.10076 0 0.00526063 0 0)
(-50.7386 -0.146423 0 0.00552031 0 0)
(-50.9087 -0.196589 0 0.00583922 0 0)
(-51.0919 -0.25049 0 0.00623014 0 0)
(-51.2878 -0.306628 0 0.00672371 0 0)
(-51.4967 -0.364351 0 0.0073414 0 0)
(-51.7184 -0.424562 0 0.00808741 0 0)
(-51.9508 -0.487366 0 0.00894862 0 0)
(-52.1934 -0.553231 0 0.00991539 0 0)
(-52.4432 -0.620243 0 0.0109528 0 0)
(-52.7003 -0.688285 0 0.0121376 0 0)
(-52.9598 -0.753971 0 0.0134579 0 0)
(-53.2248 -0.819106 0 0.0149051 0 0)
(-49.8617 -0.0280515 0 0.00989306 0 0)
(-49.9134 -0.0387417 0 0.00812532 0 0)
(-49.9838 -0.0435375 0 0.00599577 0 0)
(-50.0893 -0.0539564 0 0.00509248 0 0)
(-50.2173 -0.0723573 0 0.00487023 0 0)
(-50.3556 -0.0955326 0 0.00499043 0 0)
(-50.5058 -0.121928 0 0.00520944 0 0)
(-50.6713 -0.152569 0 0.00545799 0 0)
(-50.8505 -0.188569 0 0.0057643 0 0)
(-51.0425 -0.229811 0 0.00616195 0 0)
(-51.2476 -0.274877 0 0.00666886 0 0)
(-51.465 -0.32286 0 0.00729838 0 0)
(-51.6929 -0.372693 0 0.00804528 0 0)
(-51.9304 -0.424508 0 0.00890394 0 0)
(-52.1765 -0.476919 0 0.00983459 0 0)
(-52.4311 -0.530128 0 0.0108765 0 0)
(-52.6923 -0.581418 0 0.012004 0 0)
(-52.9604 -0.632028 0 0.0132027 0 0)
(-50.193 0.0881268 0 0.00880547 0 0)
(-50.2809 0.0774194 0 0.00629688 0 0)
(-50.4049 0.075928 0 0.00401837 0 0)
(-50.5503 0.0589802 0 0.0032555 0 0)
(-50.7017 0.033984 0 0.00323266 0 0)
(-50.8573 0.00940909 0 0.0034018 0 0)
(-51.0242 -0.0153005 0 0.00359107 0 0)
(-51.2054 -0.0430824 0 0.00380619 0 0)
(-51.3999 -0.0748146 0 0.00406125 0 0)
(-51.6074 -0.109578 0 0.00437865 0 0)
(-51.829 -0.146055 0 0.00477298 0 0)
(-52.0634 -0.184348 0 0.0052514 0 0)
(-52.3076 -0.224682 0 0.00580705 0 0)
(-52.5587 -0.267555 0 0.00642543 0 0)
(-52.815 -0.311631 0 0.00707929 0 0)
(-53.0753 -0.356504 0 0.00779941 0 0)
(-53.3397 -0.399571 0 0.00857821 0 0)
(-53.607 -0.44159 0 0.00941369 0 0)
(-49.8276 0.0430288 0 0.00776395 0 0)
(-49.9183 0.0744106 0 0.00570185 0 0)
(-50.0644 0.0674549 0 0.00401722 0 0)
(-50.2583 0.0521701 0 0.00337257 0 0)
(-50.4509 0.0421689 0 0.00313829 0 0)
(-50.6276 0.0351671 0 0.00303511 0 0)
(-50.8001 0.0255192 0 0.00305405 0 0)
(-50.9824 0.0105654 0 0.00318159 0 0)
(-51.1794 -0.0091882 0 0.00337711 0 0)
(-51.3911 -0.0323134 0 0.00363394 0 0)
(-51.616 -0.057947 0 0.00396519 0 0)
(-51.8525 -0.0864789 0 0.00437496 0 0)
(-52.0982 -0.118091 0 0.00484406 0 0)
(-52.3521 -0.152842 0 0.00534877 0 0)
(-52.6129 -0.189103 0 0.00586072 0 0)
(-52.8808 -0.225759 0 0.00642177 0 0)
(-53.1526 -0.260437 0 0.00703278 0 0)
(-53.4295 -0.293253 0 0.00769434 0 0)
(-50.2437 0.0872354 0 0.00668575 0 0)
(-50.3394 0.1551 0 0.00478055 0 0)
(-50.472 0.157195 0 0.00318377 0 0)
(-50.6339 0.141498 0 0.002561 0 0)
(-50.8016 0.124729 0 0.00236344 0 0)
(-50.9607 0.110277 0 0.00236285 0 0)
(-51.1164 0.0970083 0 0.0024459 0 0)
(-51.2773 0.0831178 0 0.00255516 0 0)
(-51.4461 0.0676683 0 0.00267759 0 0)
(-51.6229 0.050239 0 0.00282323 0 0)
(-51.8098 0.0308592 0 0.00300742 0 0)
(-52.01 0.00918924 0 0.00323647 0 0)
(-52.2258 -0.0148881 0 0.00350751 0 0)
(-52.4589 -0.0416191 0 0.0038144 0 0)
(-52.7077 -0.0700571 0 0.00413235 0 0)
(-52.9705 -0.099498 0 0.00448946 0 0)
(-53.2423 -0.128056 0 0.00488106 0 0)
(-53.5212 -0.155624 0 0.00529719 0 0)
(-49.6852 0.104782 0 0.00561852 0 0)
(-49.8596 0.131224 0 0.00356896 0 0)
(-50.037 0.151107 0 0.00226689 0 0)
(-50.2021 0.150044 0 0.00173062 0 0)
(-50.3652 0.144605 0 0.00154234 0 0)
(-50.5381 0.140065 0 0.0014745 0 0)
(-50.7285 0.133419 0 0.00146956 0 0)
(-50.9361 0.123233 0 0.00150922 0 0)
(-51.1546 0.110647 0 0.00158712 0 0)
(-51.3782 0.0973062 0 0.00169831 0 0)
(-51.6049 0.084254 0 0.00183371 0 0)
(-51.8352 0.0713396 0 0.0019907 0 0)
(-52.0706 0.0579082 0 0.00217848 0 0)
(-52.3136 0.0430403 0 0.00241016 0 0)
(-52.5659 0.026638 0 0.00268035 0 0)
(-52.8291 0.00870276 0 0.00299561 0 0)
(-53.1018 -0.00958546 0 0.00333484 0 0)
(-53.3834 -0.0279911 0 0.00368287 0 0)
(-50.284 0.165314 0 0.00385679 0 0)
(-50.3779 0.198094 0 0.0012489 0 0)
(-50.5526 0.202172 0 0.000521492 0 0)
(-50.7366 0.19568 0 0.000330079 0 0)
(-50.8989 0.193216 0 0.000246057 0 0)
(-51.0515 0.193615 0 0.000185929 0 0)
(-51.214 0.19234 0 0.000150234 0 0)
(-51.3964 0.188102 0 0.000150721 0 0)
(-51.5987 0.181175 0 0.000187759 0 0)
(-51.8162 0.172063 0 0.000254309 0 0)
(-52.0445 0.16122 0 0.000343148 0 0)
(-52.2803 0.14922 0 0.000450366 0 0)
(-52.5217 0.136404 0 0.000576227 0 0)
(-52.7664 0.123154 0 0.000723009 0 0)
(-53.0152 0.109571 0 0.000889761 0 0)
(-53.2662 0.0959826 0 0.00108003 0 0)
(-53.5219 0.0826563 0 0.00128971 0 0)
(-53.7785 0.0698478 0 0.00151148 0 0)
(-50.2269 0.121437 0 0.00370191 0 0)
(-50.5914 0.223703 0 0.000666975 0 0)
(-50.8991 0.219592 0 0.000139931 0 0)
(-51.1298 0.216221 0 1.0509e-05 0 0)
(-51.313 0.220857 0 -9.56128e-05 0 0)
(-51.4763 0.224665 0 -0.000169488 0 0)
(-51.6318 0.225803 0 -0.000203123 0 0)
(-51.7804 0.225546 0 -0.000209838 0 0)
(-51.917 0.224286 0 -0.000195061 0 0)
(-52.0406 0.221758 0 -0.000156673 0 0)
(-52.154 0.217723 0 -9.38173e-05 0 0)
(-52.2653 0.212434 0 -1.0515e-05 0 0)
(-52.3788 0.205829 0 9.36366e-05 0 0)
(-52.5017 0.198219 0 0.00021557 0 0)
(-52.6307 0.18937 0 0.000349356 0 0)
(-52.7724 0.180083 0 0.000496387 0 0)
(-52.915 0.170377 0 0.000652791 0 0)
(-53.0717 0.161569 0 0.000794751 0 0)
(-49.0166 0.232529 0 0.00122321 0 0)
(-47.4203 0.273717 0 -0.000197997 0 0)
(-45.8306 0.25035 0 -0.000289921 0 0)
(-44.284 0.234703 0 -0.0002864 0 0)
(-42.8207 0.228037 0 -0.000334022 0 0)
(-41.4468 0.222939 0 -0.000384442 0 0)
(-40.1598 0.216362 0 -0.000410467 0 0)
(-38.9607 0.207564 0 -0.00040331 0 0)
(-37.8501 0.196843 0 -0.000377624 0 0)
(-36.8289 0.185377 0 -0.000350763 0 0)
(-35.8925 0.174557 0 -0.000325865 0 0)
(-35.0367 0.165345 0 -0.000303113 0 0)
(-34.2501 0.157685 0 -0.000284484 0 0)
(-33.5316 0.151092 0 -0.000270555 0 0)
(-32.8683 0.144673 0 -0.000252358 0 0)
(-32.2699 0.138346 0 -0.000224381 0 0)
(-31.7137 0.131803 0 -0.000191017 0 0)
(-31.2251 0.125881 0 -0.000162317 0 0)
(0.00939476 -0.0246324 -1.34255e-22 0.064334 2.62387e-22 4.10285e-39)
(0.128114 -0.10996 2.65976e-22 0.0845303 -7.78862e-23 4.03948e-39)
(0.380343 -0.155819 0 0.0459062 0 0)
(0.639321 -0.124903 0 -0.00352351 0 0)
(0.765621 -0.0183062 0 -0.0489656 0 0)
(0.712281 0.108466 2.53059e-22 -0.0709186 -4.03128e-22 3.7949e-39)
(0.425633 0.226683 0 -0.0742909 0 0)
(-0.0410076 0.305692 0 -0.0642762 0 0)
(-0.610647 0.341984 0 -0.0481839 0 0)
(-1.20582 0.334289 0 -0.0301052 0 0)
(-1.76297 0.288218 -2.34361e-21 -0.0127862 3.89642e-22 3.48838e-39)
(-2.2112 0.211273 0 0.00185975 0 0)
(-2.49368 0.112056 0 0.0125661 0 0)
(-2.56684 -0.000402562 0 0.0182307 0 0)
(-2.40559 -0.116783 0 0.0181928 0 0)
(-2.01339 -0.225115 -3.57747e-21 0.0119368 -7.10488e-23 3.21639e-39)
(-1.41025 -0.314503 0 -0.00034215 0 0)
(-0.655194 -0.371115 0 -0.0177299 0 0)
(0.19474 -0.388144 0 -0.0381 0 0)
(1.02811 -0.358302 0 -0.0566024 0 0)
(1.79807 -0.289065 0 -0.0695659 0 0)
(2.36784 -0.189216 0 -0.0656999 0 0)
(2.75963 -0.0916167 0 -0.0492542 0 0)
(2.91348 -0.0357746 -1.13408e-21 0.0181621 -2.88855e-22 2.84976e-39)
(2.95854 -0.0761452 8.33964e-22 0.0533203 2.19205e-22 2.80598e-39)
(3.09598 -0.281723 -6.68895e-22 0.102879 1.89053e-23 2.76067e-39)
(3.52838 -0.536109 -6.42285e-22 0.206861 2.63428e-22 2.71412e-39)
(4.18309 -0.757841 0 0.366781 0 0)
(5.03121 -0.980919 0 0.470229 0 0)
(6.07823 -1.24357 8.13526e-22 0.602826 -2.90264e-22 2.57148e-39)
(7.27781 -1.45021 8.9506e-22 0.743485 -2.21788e-22 2.52429e-39)
(8.57431 -1.54223 0 0.801848 0 0)
(9.8995 -1.48655 0 0.746278 0 0)
(11.0584 -1.26283 1.19097e-21 0.609146 1.32834e-23 2.38111e-39)
(11.707 -0.906478 0 0.452067 0 0)
(11.5642 -0.40598 0 0.297498 0 0)
(10.4226 0.11144 -5.27361e-22 0.199953 -5.14313e-22 2.24308e-39)
(8.23493 0.27649 0 0.164283 0 0)
(5.27165 0.326959 1.03455e-21 0.14868 -3.88636e-22 2.15647e-39)
(1.6096 0.730699 4.28852e-21 0.10532 -9.15304e-22 8.45823e-39)
(-2.83503 1.47254 0 0.0112982 0 0)
(-8.12551 2.1647 0 -0.0356813 0 0)
(-13.7679 2.39449 0 -0.0110038 0 0)
(-19.0898 2.25272 0 0.0140511 0 0)
(-23.8807 2.00452 0 0.0294385 0 0)
(-28.0752 1.72923 2.58651e-20 0.0392224 -1.55311e-21 7.51199e-39)
(-31.6441 1.44947 2.91964e-20 0.0451345 -1.26937e-21 7.36597e-39)
(-34.5841 1.17799 3.19827e-20 0.0483738 -9.81677e-22 7.22392e-39)
(-36.9076 0.921316 0 0.0497253 0 0)
(-38.6399 0.682626 -3.56347e-20 0.0497001 4.36029e-22 6.95144e-39)
(-39.81 0.463205 0 0.0486108 0 0)
(-40.4529 0.263747 3.66041e-20 0.0466542 3.39422e-23 6.69383e-39)
(-40.6056 0.0840268 3.61328e-20 0.0440156 2.33454e-22 6.57018e-39)
(-40.308 -0.0759559 0 0.040825 0 0)
(-39.6037 -0.21679 0 0.0372354 0 0)
(-38.5332 -0.339047 0 0.0333787 0 0)
(-37.1402 -0.443352 2.91547e-20 0.0293818 7.72015e-22 6.10475e-39)
(-35.4671 -0.530495 0 0.0253582 0 0)
(-33.5569 -0.601413 0 0.0214087 0 0)
(-31.45 -0.656963 0 0.0176086 0 0)
(-29.1863 -0.698461 0 0.0140289 0 0)
(-26.8033 -0.727104 0 0.010714 0 0)
(-24.3346 -0.744558 0 0.00770224 0 0)
(-21.8106 -0.752427 0 0.00501156 0 0)
(-19.2568 -0.752498 0 0.00265079 0 0)
(-16.6939 -0.746134 -2.36649e-21 0.000609058 -7.77244e-22 5.17176e-39)
(-14.1393 -0.735048 0 -0.00112558 0 0)
(-11.6078 -0.719788 0 -0.00258576 0 0)
(-9.11125 -0.701374 -5.01282e-21 -0.00379209 6.27607e-22 4.88392e-39)
(-6.66145 -0.679843 -7.09383e-21 -0.00478201 5.76077e-22 4.79022e-39)
(-4.27037 -0.655444 0 -0.0055775 0 0)
(-1.94958 -0.627951 1.06368e-20 -0.00620222 -4.72111e-22 4.60602e-39)
(0.289223 -0.59767 -1.20888e-20 -0.00666964 4.19838e-22 4.51554e-39)
(2.43458 -0.56455 0 -0.00699739 0 0)
(4.47522 -0.528938 1.43451e-20 -0.00720589 -3.15558e-22 4.33795e-39)
(6.40019 -0.490918 0 -0.007326 0 0)
(8.19921 -0.450862 0 -0.00739332 0 0)
(9.86266 -0.40898 -1.61398e-20 -0.00744658 1.63486e-22 4.07965e-39)
(11.3825 -0.365439 0 -0.0075181 0 0)
(12.7514 -0.320614 1.634e-20 -0.00762793 -6.6898e-23 3.91302e-39)
(13.9615 -0.274456 0 -0.00778446 0 0)
(15.0058 -0.227031 -1.58161e-20 -0.00798064 -2.45824e-23 3.75097e-39)
(15.8765 -0.178496 -1.5304e-20 -0.00819853 -6.80699e-23 3.67168e-39)
(16.5654 -0.12893 -1.46373e-20 -0.00841269 -1.09754e-22 3.59355e-39)
(17.0655 -0.0783444 -2.76538e-20 -0.00859199 -2.98894e-22 1.40665e-38)
(17.3701 -0.0272633 2.57698e-20 -0.00870909 3.73191e-22 1.37636e-38)
(17.4734 0.0240604 0 -0.00873248 0 0)
(17.372 0.0750115 0 -0.0086385 0 0)
(17.0649 0.124745 0 -0.00841239 0 0)
(16.5547 0.17238 1.62301e-20 -0.00803399 6.0048e-22 1.26018e-38)
(15.8486 0.216712 1.35497e-20 -0.00750819 6.3396e-22 1.23242e-38)
(14.9585 0.256451 -1.08513e-20 -0.0068404 -6.55823e-22 1.20517e-38)
(13.902 0.290283 0 -0.00604621 0 0)
(12.7023 0.317066 5.62144e-21 -0.00516908 6.62595e-22 1.1522e-38)
(11.3873 0.335883 3.1953e-21 -0.00425119 6.4799e-22 1.12643e-38)
(9.98816 0.34624 9.54497e-22 -0.00334647 6.22853e-22 1.10113e-38)
(8.53704 0.34799 0 -0.00250604 0 0)
(7.06619 0.341632 0 -0.00176957 0 0)
(5.60846 0.32819 0 -0.00116028 0 0)
(4.19333 0.309181 -5.71151e-21 -0.000677218 4.54485e-22 1.00401e-38)
(2.84922 0.28855 0 -0.000273867 0 0)
(1.58937 0.263155 0 -1.45858e-05 0 0)
(0.418061 0.236814 8.35787e-21 0.000164784 -3.17057e-22 9.3455e-39)
(-0.655387 0.210384 0 0.000279763 0 0)
(-1.62938 0.184632 0 0.000346582 0 0)
(-2.50543 0.160108 9.65171e-21 0.000378462 -1.99289e-22 8.69298e-39)
(-3.28711 0.137126 0 0.000384967 0 0)
(-3.97934 0.115832 0 0.000372816 0 0)
(-4.58774 0.0962892 -1.01432e-20 0.00034733 1.11482e-22 8.0803e-39)
(-5.11844 0.0785611 -1.01959e-20 0.000313693 8.8855e-23 7.88429e-39)
(-5.57816 0.0627203 0 0.000277309 0 0)
(-5.97435 0.0487968 1.01935e-20 0.000242394 -5.25511e-23 7.50391e-39)
(-6.31476 0.0367348 0 0.000210914 0 0)
(-6.6069 0.0263928 -1.00961e-20 0.000183001 2.6602e-23 7.13838e-39)
(-6.85751 0.017575 0 0.000157956 0 0)
(-7.07231 0.010049 -9.94554e-21 0.000135054 8.38754e-24 6.78703e-39)
(-7.25595 0.00356641 -9.85846e-21 0.000113787 1.28402e-24 6.61648e-39)
(-7.41209 -0.00213562 0 9.39345e-05 0 0)
(-7.54324 -0.00730332 0 7.52057e-05 0 0)
(-7.65116 -0.0121284 0 5.70854e-05 0 0)
(-7.73686 -0.0167313 0 3.89534e-05 0 0)
(-7.80081 -0.0211727 0 2.02322e-05 0 0)
(-7.84315 -0.0254721 0 6.21384e-07 0 0)
(-7.86397 -0.0295859 0 -1.94619e-05 0 0)
(-7.86361 -0.0334394 -8.99737e-21 -3.90303e-05 -3.69999e-23 5.36721e-39)
(-7.84269 -0.036996 8.86997e-21 -5.73679e-05 4.03217e-23 5.22464e-39)
(-7.80208 -0.0402167 0 -7.36913e-05 0 0)
(-7.74299 -0.0430423 0 -8.69725e-05 0 0)
(-7.66686 -0.0454918 0 -9.71946e-05 0 0)
(-7.57503 -0.0476195 0 -0.0001048 0 0)
(-7.46896 -0.0493894 1.63524e-20 -0.000109307 1.04395e-22 1.82142e-38)
(-7.35032 -0.0507101 0 -0.000109871 0 0)
(-7.22088 -0.0514768 -1.5759e-20 -0.000106035 -1.07717e-22 1.72149e-38)
(-7.08262 -0.0515945 1.54595e-20 -9.82319e-05 1.07225e-22 1.67306e-38)
(-6.93776 -0.0510154 0 -8.80242e-05 0 0)
(-6.78866 -0.0497711 0 -7.75554e-05 0 0)
(-6.63767 -0.047985 0 -6.84293e-05 0 0)
(-6.48685 -0.0458467 -1.42921e-20 -6.09623e-05 -9.29015e-23 1.48907e-38)
(-6.33784 -0.0435622 -1.40169e-20 -5.44603e-05 -8.78785e-23 1.44544e-38)
(-6.19176 -0.041301 0 -4.80988e-05 0 0)
(-6.04926 -0.0391641 -1.34936e-20 -4.15089e-05 -7.83755e-23 1.36089e-38)
(-5.91066 -0.0371796 -1.32454e-20 -3.4774e-05 -7.41021e-23 1.31994e-38)
(-5.77607 -0.0353175 1.3006e-20 -2.81596e-05 7.00793e-23 1.27987e-38)
(-5.64559 -0.033511 0 -2.19197e-05 0 0)
(-5.51943 -0.0316804 0 -1.62686e-05 0 0)
(-5.39793 -0.0297551 1.23386e-20 -1.14309e-05 5.80498e-23 1.16473e-38)
(-5.28159 -0.0276924 0 -7.64936e-06 0 0)
(-5.17102 -0.0254898 0 -5.10357e-06 0 0)
(-5.06682 -0.0231852 0 -3.7909e-06 0 0)
(-4.9695 -0.0208464 0 -3.48527e-06 0 0)
(-4.87935 -0.0185534 -1.1409e-20 -3.80883e-06 -3.51166e-23 9.88983e-39)
(-4.79639 -0.0163819 -1.12524e-20 -4.37016e-06 -3.08962e-23 9.56142e-39)
(-4.72039 -0.0143901 0 -4.87708e-06 0 0)
(-4.65091 -0.0126134 -1.09659e-20 -5.18243e-06 -2.37084e-23 8.92673e-39)
(-4.58733 -0.0110653 0 -5.25463e-06 0 0)
(-4.52901 -0.00974322 0 -5.13578e-06 0 0)
(-4.47522 -0.00863302 -1.05913e-20 -4.88908e-06 -1.62831e-23 8.02834e-39)
(-4.42537 -0.00771619 0 -4.58324e-06 0 0)
(-4.37874 -0.0069709 -1.0369e-20 -4.26665e-06 -1.32317e-23 7.46391e-39)
(-4.33493 -0.00637758 0 -3.98185e-06 0 0)
(-4.29318 -0.00591756 0 -3.74816e-06 0 0)
(-4.25339 -0.00557612 -1.00639e-20 -3.58698e-06 -1.06943e-23 6.66692e-39)
(-4.21452 -0.00534543 0 -3.50659e-06 0 0)
(-4.17697 -0.0052136 -9.87372e-21 -3.51871e-06 -1.00581e-23 6.16752e-39)
(-4.13893 -0.00519479 0 -3.65274e-06 0 0)
(-4.10178 -0.0052635 0 -3.89972e-06 0 0)
(-4.06206 -0.00549361 0 -4.39561e-06 0 0)
(-4.02299 -0.00579536 9.50997e-21 -5.02103e-06 1.12567e-23 5.24201e-39)
(-3.978 -0.00641501 0 -6.33463e-06 0 0)
(-3.93347 -0.00701632 -9.32772e-21 -7.64164e-06 -1.36281e-23 4.81451e-39)
(-3.87781 -0.00834885 0 -1.1244e-05 0 0)
(-3.82107 -0.00930093 0 -1.36668e-05 0 0)
(-3.74687 -0.0121227 0 -2.50676e-05 0 0)
(-3.66262 -0.0133353 0 -2.81271e-05 0 0)
(-3.56097 -0.019684 0 -7.20469e-05 0 0)
(-3.40939 -0.0204768 0 -6.58215e-05 0 0)