# vtk DataFile Version 2.0
sampleSurface
ASCII
DATASET POLYDATA
POINTS 502 float
-0.0206 0 -0.0005 -0.0190172 0 -0.0005 -0.0190172 0 0.0005 -0.0206 0
0.0005 -0.0174976 0 -0.0005 -0.0174976 0 0.0005 -0.0160387 0 -0.0005
-0.0160387 0 0.0005 -0.0146381 0 -0.0005 -0.0146381 0 0.0005 -0.0132934
0 -0.0005 -0.0132934 0 0.0005 -0.0120025 0 -0.0005 -0.0120025 0
0.0005 -0.0107632 0 -0.0005 -0.0107632 0 0.0005 -0.00957337 0 -0.0005
-0.00957337 0 0.0005 -0.00843108 0 -0.0005 -0.00843108 0 0.0005 -0.00733443
0 -0.0005 -0.00733443 0 0.0005 -0.0062816 0 -0.0005 -0.0062816 0
0.0005 -0.00527083 0 -0.0005 -0.00527083 0 0.0005 -0.00430044 0 -0.0005
-0.00430044 0 0.0005 -0.00336883 0 -0.0005 -0.00336883 0 0.0005 -0.00247443
0 -0.0005 -0.00247443 0 0.0005 -0.00161577 0 -0.0005 -0.00161577 0
0.0005 -0.000791418 0 -0.0005 -0.000791418 0 0.0005 0 0 -0.0005
0 0 0.0005 0 -0.0254 -0.0005 0 -0.0254 0.0005 0
-0.0242711 0.0005 0 -0.0242711 -0.0005 0 -0.0231422 0.0005 0 -0.0231422
-0.0005 0 -0.0220133 0.0005 0 -0.0220133 -0.0005 0 -0.0208844 0.0005
0 -0.0208844 -0.0005 0 -0.0197556 0.0005 0 -0.0197556 -0.0005 0
-0.0186267 0.0005 0 -0.0186267 -0.0005 0 -0.0174978 0.0005 0 -0.0174978
-0.0005 0 -0.0163689 0.0005 0 -0.0163689 -0.0005 0 -0.01524 0.0005
0 -0.01524 -0.0005 0 -0.0141111 0.0005 0 -0.0141111 -0.0005 0
-0.0129822 0.0005 0 -0.0129822 -0.0005 0 -0.0118533 0.0005 0 -0.0118533
-0.0005 0 -0.0107244 0.0005 0 -0.0107244 -0.0005 0 -0.00959556 0.0005
0 -0.00959556 -0.0005 0 -0.00846667 0.0005 0 -0.00846667 -0.0005 0
-0.00726604 0.0005 0 -0.00726604 -0.0005 0 -0.00618989 0.0005 0 -0.00618989
-0.0005 0 -0.00522531 0.0005 0 -0.00522531 -0.0005 0 -0.00436073 0.0005
0 -0.00436073 -0.0005 0 -0.00358579 0.0005 0 -0.00358579 -0.0005 0
-0.00289118 0.0005 0 -0.00289118 -0.0005 0 -0.0022686 0.0005 0 -0.0022686
-0.0005 0 -0.00171055 0.0005 0 -0.00171055 -0.0005 0 -0.00121037 0.0005
0 -0.00121037 -0.0005 0 -0.000762037 0.0005 0 -0.000762037 -0.0005 0
-0.000360188 0.0005 0 -0.000360188 -0.0005 0.000528387 -0.0254 -0.0005 0.000528387 -0.0254
0.0005 0.00106088 -0.0254 -0.0005 0.00106088 -0.0254 0.0005 0.00159752 -0.0254 -0.0005
0.00159752 -0.0254 0.0005 0.00213833 -0.0254 -0.0005 0.00213833 -0.0254 0.0005 0.00268334
-0.0254 -0.0005 0.00268334 -0.0254 0.0005 0.00323259 -0.0254 -0.0005 0.00323259 -0.0254
0.0005 0.00378611 -0.0254 -0.0005 0.00378611 -0.0254 0.0005 0.00434393 -0.0254 -0.0005
0.00434393 -0.0254 0.0005 0.00490609 -0.0254 -0.0005 0.00490609 -0.0254 0.0005 0.00547262
-0.0254 -0.0005 0.00547262 -0.0254 0.0005 0.00604356 -0.0254 -0.0005 0.00604356 -0.0254
0.0005 0.00661893 -0.0254 -0.0005 0.00661893 -0.0254 0.0005 0.00719878 -0.0254 -0.0005
0.00719878 -0.0254 0.0005 0.00778313 -0.0254 -0.0005 0.00778313 -0.0254 0.0005 0.00837203
-0.0254 -0.0005 0.00837203 -0.0254 0.0005 0.00896551 -0.0254 -0.0005 0.00896551 -0.0254
0.0005 0.0095636 -0.0254 -0.0005 0.0095636 -0.0254 0.0005 0.0101663 -0.0254 -0.0005
0.0101663 -0.0254 0.0005 0.0107738 -0.0254 -0.0005 0.0107738 -0.0254 0.0005 0.0113859
-0.0254 -0.0005 0.0113859 -0.0254 0.0005 0.0120028 -0.0254 -0.0005 0.0120028 -0.0254
0.0005 0.0126245 -0.0254 -0.0005 0.0126245 -0.0254 0.0005 0.0132511 -0.0254 -0.0005
0.0132511 -0.0254 0.0005 0.0138825 -0.0254 -0.0005 0.0138825 -0.0254 0.0005 0.0145188
-0.0254 -0.0005 0.0145188 -0.0254 0.0005 0.0151601 -0.0254 -0.0005 0.0151601 -0.0254
0.0005 0.0158063 -0.0254 -0.0005 0.0158063 -0.0254 0.0005 0.0164576 -0.0254 -0.0005
0.0164576 -0.0254 0.0005 0.0171139 -0.0254 -0.0005 0.0171139 -0.0254 0.0005 0.0177754
-0.0254 -0.0005 0.0177754 -0.0254 0.0005 0.018442 -0.0254 -0.0005 0.018442 -0.0254
0.0005 0.0191137 -0.0254 -0.0005 0.0191137 -0.0254 0.0005 0.0197907 -0.0254 -0.0005
0.0197907 -0.0254 0.0005 0.020473 -0.0254 -0.0005 0.020473 -0.0254 0.0005 0.0211606
-0.0254 -0.0005 0.0211606 -0.0254 0.0005 0.0218535 -0.0254 -0.0005 0.0218535 -0.0254
0.0005 0.0225517 -0.0254 -0.0005 0.0225517 -0.0254 0.0005 0.0232555 -0.0254 -0.0005
0.0232555 -0.0254 0.0005 0.0239647 -0.0254 -0.0005 0.0239647 -0.0254 0.0005 0.0246794
-0.0254 -0.0005 0.0246794 -0.0254 0.0005 0.0253996 -0.0254 -0.0005 0.0253996 -0.0254
0.0005 0.0261255 -0.0254 -0.0005 0.0261255 -0.0254 0.0005 0.026857 -0.0254 -0.0005
0.026857 -0.0254 0.0005 0.0275942 -0.0254 -0.0005 0.0275942 -0.0254 0.0005 0.0283371
-0.0254 -0.0005 0.0283371 -0.0254 0.0005 0.0290858 -0.0254 -0.0005 0.0290858 -0.0254
0.0005 0.0298403 -0.0254 -0.0005 0.0298403 -0.0254 0.0005 0.0306007 -0.0254 -0.0005
0.0306007 -0.0254 0.0005 0.031367 -0.0254 -0.0005 0.031367 -0.0254 0.0005 0.0321393
-0.0254 -0.0005 0.0321393 -0.0254 0.0005 0.0329175 -0.0254 -0.0005 0.0329175 -0.0254
0.0005 0.0337019 -0.0254 -0.0005 0.0337019 -0.0254 0.0005 0.0344923 -0.0254 -0.0005
0.0344923 -0.0254 0.0005 0.0352888 -0.0254 -0.0005 0.0352888 -0.0254 0.0005 0.0360916
-0.0254 -0.0005 0.0360916 -0.0254 0.0005 0.0369006 -0.0254 -0.0005 0.0369006 -0.0254
0.0005 0.0377158 -0.0254 -0.0005 0.0377158 -0.0254 0.0005 0.0385375 -0.0254 -0.0005
0.0385375 -0.0254 0.0005 0.0393655 -0.0254 -0.0005 0.0393655 -0.0254 0.0005 0.0401999
-0.0254 -0.0005 0.0401999 -0.0254 0.0005 0.0410408 -0.0254 -0.0005 0.0410408 -0.0254
0.0005 0.0418883 -0.0254 -0.0005 0.0418883 -0.0254 0.0005 0.0427424 -0.0254 -0.0005
0.0427424 -0.0254 0.0005 0.0436031 -0.0254 -0.0005 0.0436031 -0.0254 0.0005 0.0444704
-0.0254 -0.0005 0.0444704 -0.0254 0.0005 0.0453446 -0.0254 -0.0005 0.0453446 -0.0254
0.0005 0.0462255 -0.0254 -0.0005 0.0462255 -0.0254 0.0005 0.0471133 -0.0254 -0.0005
0.0471133 -0.0254 0.0005 0.048008 -0.0254 -0.0005 0.048008 -0.0254 0.0005 0.0489096
-0.0254 -0.0005 0.0489096 -0.0254 0.0005 0.0498183 -0.0254 -0.0005 0.0498183 -0.0254
0.0005 0.050734 -0.0254 -0.0005 0.050734 -0.0254 0.0005 0.0516568 -0.0254 -0.0005
0.0516568 -0.0254 0.0005 0.0525868 -0.0254 -0.0005 0.0525868 -0.0254 0.0005 0.053524
-0.0254 -0.0005 0.053524 -0.0254 0.0005 0.0544686 -0.0254 -0.0005 0.0544686 -0.0254
0.0005 0.0554204 -0.0254 -0.0005 0.0554204 -0.0254 0.0005 0.0563797 -0.0254 -0.0005
0.0563797 -0.0254 0.0005 0.0573464 -0.0254 -0.0005 0.0573464 -0.0254 0.0005 0.0583206
-0.0254 -0.0005 0.0583206 -0.0254 0.0005 0.0593025 -0.0254 -0.0005 0.0593025 -0.0254
0.0005 0.0602919 -0.0254 -0.0005 0.0602919 -0.0254 0.0005 0.0612891 -0.0254 -0.0005
0.0612891 -0.0254 0.0005 0.0622939 -0.0254 -0.0005 0.0622939 -0.0254 0.0005 0.0633067
-0.0254 -0.0005 0.0633067 -0.0254 0.0005 0.0643272 -0.0254 -0.0005 0.0643272 -0.0254
0.0005 0.0653557 -0.0254 -0.0005 0.0653557 -0.0254 0.0005 0.0663923 -0.0254 -0.0005
0.0663923 -0.0254 0.0005 0.0674368 -0.0254 -0.0005 0.0674368 -0.0254 0.0005 0.0684895
-0.0254 -0.0005 0.0684895 -0.0254 0.0005 0.0695504 -0.0254 -0.0005 0.0695504 -0.0254
0.0005 0.0706195 -0.0254 -0.0005 0.0706195 -0.0254 0.0005 0.0716969 -0.0254 -0.0005
0.0716969 -0.0254 0.0005 0.0727828 -0.0254 -0.0005 0.0727828 -0.0254 0.0005 0.073877
-0.0254 -0.0005 0.073877 -0.0254 0.0005 0.0749798 -0.0254 -0.0005 0.0749798 -0.0254
0.0005 0.0760911 -0.0254 -0.0005 0.0760911 -0.0254 0.0005 0.0772111 -0.0254 -0.0005
0.0772111 -0.0254 0.0005 0.0783398 -0.0254 -0.0005 0.0783398 -0.0254 0.0005 0.0794772
-0.0254 -0.0005 0.0794772 -0.0254 0.0005 0.0806235 -0.0254 -0.0005 0.0806235 -0.0254
0.0005 0.0817787 -0.0254 -0.0005 0.0817787 -0.0254 0.0005 0.0829429 -0.0254 -0.0005
0.0829429 -0.0254 0.0005 0.0841162 -0.0254 -0.0005 0.0841162 -0.0254 0.0005 0.0852985
-0.0254 -0.0005 0.0852985 -0.0254 0.0005 0.0864901 -0.0254 -0.0005 0.0864901 -0.0254
0.0005 0.0876909 -0.0254 -0.0005 0.0876909 -0.0254 0.0005 0.0889011 -0.0254 -0.0005
0.0889011 -0.0254 0.0005 0.0901207 -0.0254 -0.0005 0.0901207 -0.0254 0.0005 0.0913497
-0.0254 -0.0005 0.0913497 -0.0254 0.0005 0.0925883 -0.0254 -0.0005 0.0925883 -0.0254
0.0005 0.0938366 -0.0254 -0.0005 0.0938366 -0.0254 0.0005 0.0950945 -0.0254 -0.0005
0.0950945 -0.0254 0.0005 0.0963622 -0.0254 -0.0005 0.0963622 -0.0254 0.0005 0.0976398
-0.0254 -0.0005 0.0976398 -0.0254 0.0005 0.0989273 -0.0254 -0.0005 0.0989273 -0.0254
0.0005 0.100225 -0.0254 -0.0005 0.100225 -0.0254 0.0005 0.101532 -0.0254 -0.0005
0.101532 -0.0254 0.0005 0.10285 -0.0254 -0.0005 0.10285 -0.0254 0.0005 0.104178
-0.0254 -0.0005 0.104178 -0.0254 0.0005 0.105517 -0.0254 -0.0005 0.105517 -0.0254
0.0005 0.106865 -0.0254 -0.0005 0.106865 -0.0254 0.0005 0.108225 -0.0254 -0.0005
0.108225 -0.0254 0.0005 0.109594 -0.0254 -0.0005 0.109594 -0.0254 0.0005 0.110975
-0.0254 -0.0005 0.110975 -0.0254 0.0005 0.112366 -0.0254 -0.0005 0.112366 -0.0254
0.0005 0.113768 -0.0254 -0.0005 0.113768 -0.0254 0.0005 0.115181 -0.0254 -0.0005
0.115181 -0.0254 0.0005 0.116605 -0.0254 -0.0005 0.116605 -0.0254 0.0005 0.11804
-0.0254 -0.0005 0.11804 -0.0254 0.0005 0.119486 -0.0254 -0.0005 0.119486 -0.0254
0.0005 0.120943 -0.0254 -0.0005 0.120943 -0.0254 0.0005 0.122412 -0.0254 -0.0005
0.122412 -0.0254 0.0005 0.123892 -0.0254 -0.0005 0.123892 -0.0254 0.0005 0.125384
-0.0254 -0.0005 0.125384 -0.0254 0.0005 0.126887 -0.0254 -0.0005 0.126887 -0.0254
0.0005 0.128402 -0.0254 -0.0005 0.128402 -0.0254 0.0005 0.129928 -0.0254 -0.0005
0.129928 -0.0254 0.0005 0.131467 -0.0254 -0.0005 0.131467 -0.0254 0.0005 0.133017
-0.0254 -0.0005 0.133017 -0.0254 0.0005 0.13458 -0.0254 -0.0005 0.13458 -0.0254
0.0005 0.136155 -0.0254 -0.0005 0.136155 -0.0254 0.0005 0.137742 -0.0254 -0.0005
0.137742 -0.0254 0.0005 0.139341 -0.0254 -0.0005 0.139341 -0.0254 0.0005 0.140953
-0.0254 -0.0005 0.140953 -0.0254 0.0005 0.142577 -0.0254 -0.0005 0.142577 -0.0254
0.0005 0.144214 -0.0254 -0.0005 0.144214 -0.0254 0.0005 0.145863 -0.0254 -0.0005
0.145863 -0.0254 0.0005 0.147526 -0.0254 -0.0005 0.147526 -0.0254 0.0005 0.149201
-0.0254 -0.0005 0.149201 -0.0254 0.0005 0.15089 -0.0254 -0.0005 0.15089 -0.0254
0.0005 0.152591 -0.0254 -0.0005 0.152591 -0.0254 0.0005 0.154306 -0.0254 -0.0005
0.154306 -0.0254 0.0005 0.156034 -0.0254 -0.0005 0.156034 -0.0254 0.0005 0.157775
-0.0254 -0.0005 0.157775 -0.0254 0.0005 0.159531 -0.0254 -0.0005 0.159531 -0.0254
0.0005 0.161299 -0.0254 -0.0005 0.161299 -0.0254 0.0005 0.163082 -0.0254 -0.0005
0.163082 -0.0254 0.0005 0.164878 -0.0254 -0.0005 0.164878 -0.0254 0.0005 0.166688
-0.0254 -0.0005 0.166688 -0.0254 0.0005 0.168513 -0.0254 -0.0005 0.168513 -0.0254
0.0005 0.170351 -0.0254 -0.0005 0.170351 -0.0254 0.0005 0.172204 -0.0254 -0.0005
0.172204 -0.0254 0.0005 0.174071 -0.0254 -0.0005 0.174071 -0.0254 0.0005 0.175953
-0.0254 -0.0005 0.175953 -0.0254 0.0005 0.177849 -0.0254 -0.0005 0.177849 -0.0254
0.0005 0.17976 -0.0254 -0.0005 0.17976 -0.0254 0.0005 0.181686 -0.0254 -0.0005
0.181686 -0.0254 0.0005 0.183627 -0.0254 -0.0005 0.183627 -0.0254 0.0005 0.185583
-0.0254 -0.0005 0.185583 -0.0254 0.0005 0.187555 -0.0254 -0.0005 0.187555 -0.0254
0.0005 0.189541 -0.0254 -0.0005 0.189541 -0.0254 0.0005 0.191543 -0.0254 -0.0005
0.191543 -0.0254 0.0005 0.193561 -0.0254 -0.0005 0.193561 -0.0254 0.0005 0.195594
-0.0254 -0.0005 0.195594 -0.0254 0.0005 0.197643 -0.0254 -0.0005 0.197643 -0.0254
0.0005 0.199708 -0.0254 -0.0005 0.199708 -0.0254 0.0005 0.201789 -0.0254 -0.0005
0.201789 -0.0254 0.0005 0.203886 -0.0254 -0.0005 0.203886 -0.0254 0.0005 0.206
-0.0254 -0.0005 0.206 -0.0254 0.0005 0.208047 -0.0251856 -0.0005 0.208047 -0.0251856
0.0005 0.210173 -0.0249628 -0.0005 0.210173 -0.0249628 0.0005 0.212382 -0.0247314 -0.0005
0.212382 -0.0247314 0.0005 0.214677 -0.024491 -0.0005 0.214677 -0.024491 0.0005 0.217061
-0.0242412 -0.0005 0.217061 -0.0242412 0.0005 0.219538 -0.0239817 -0.0005 0.219538 -0.0239817
0.0005 0.222112 -0.0237121 -0.0005 0.222112 -0.0237121 0.0005 0.224785 -0.023432 -0.0005
0.224785 -0.023432 0.0005 0.227563 -0.023141 -0.0005 0.227563 -0.023141 0.0005 0.230449
-0.0228387 -0.0005 0.230449 -0.0228387 0.0005 0.233447 -0.0225246 -0.0005 0.233447 -0.0225246
0.0005 0.236562 -0.0221983 -0.0005 0.236562 -0.0221983 0.0005 0.239797 -0.0218593 -0.0005
0.239797 -0.0218593 0.0005 0.243159 -0.0215071 -0.0005 0.243159 -0.0215071 0.0005 0.246652
-0.0211412 -0.0005 0.246652 -0.0211412 0.0005 0.250281 -0.0207611 -0.0005 0.250281 -0.0207611
0.0005 0.254051 -0.0203661 -0.0005 0.254051 -0.0203661 0.0005 0.257967 -0.0199558 -0.0005
0.257967 -0.0199558 0.0005 0.262036 -0.0195295 -0.0005 0.262036 -0.0195295 0.0005 0.266264
-0.0190867 -0.0005 0.266264 -0.0190867 0.0005 0.270655 -0.0186266 -0.0005 0.270655 -0.0186266
0.0005 0.275218 -0.0181486 -0.0005 0.275218 -0.0181486 0.0005 0.279959 -0.017652 -0.0005
0.279959 -0.017652 0.0005 0.284883 -0.017136 -0.0005 0.284883 -0.017136 0.0005 0.29
-0.0166 -0.0005 0.29 -0.0166 0.0005 
POLYGONS 250 1250
4 0 1 2 3 4 1 4 5 2 4
4 6 7 5 4 6 8 9 7 4
8 10 11 9 4 10 12 13 11 4
12 14 15 13 4 14 16 17 15 4
16 18 19 17 4 18 20 21 19 4
20 22 23 21 4 22 24 25 23 4
24 26 27 25 4 26 28 29 27 4
28 30 31 29 4 30 32 33 31 4
32 34 35 33 4 34 36 37 35 4
38 39 40 41 4 41 40 42 43 4
43 42 44 45 4 45 44 46 47 4
47 46 48 49 4 49 48 50 51 4
51 50 52 53 4 53 52 54 55 4
55 54 56 57 4 57 56 58 59 4
59 58 60 61 4 61 60 62 63 4
63 62 64 65 4 65 64 66 67 4
67 66 68 69 4 69 68 70 71 4
71 70 72 73 4 73 72 74 75 4
75 74 76 77 4 77 76 78 79 4
79 78 80 81 4 81 80 82 83 4
83 82 84 85 4 85 84 86 87 4
87 86 88 89 4 89 88 90 91 4
91 90 37 36 4 38 92 93 39 4
92 94 95 93 4 94 96 97 95 4
96 98 99 97 4 98 100 101 99 4
100 102 103 101 4 102 104 105 103 4
104 106 107 105 4 106 108 109 107 4
108 110 111 109 4 110 112 113 111 4
112 114 115 113 4 114 116 117 115 4
116 118 119 117 4 118 120 121 119 4
120 122 123 121 4 122 124 125 123 4
124 126 127 125 4 126 128 129 127 4
128 130 131 129 4 130 132 133 131 4
132 134 135 133 4 134 136 137 135 4
136 138 139 137 4 138 140 141 139 4
140 142 143 141 4 142 144 145 143 4
144 146 147 145 4 146 148 149 147 4
148 150 151 149 4 150 152 153 151 4
152 154 155 153 4 154 156 157 155 4
156 158 159 157 4 158 160 161 159 4
160 162 163 161 4 162 164 165 163 4
164 166 167 165 4 166 168 169 167 4
168 170 171 169 4 170 172 173 171 4
172 174 175 173 4 174 176 177 175 4
176 178 179 177 4 178 180 181 179 4
180 182 183 181 4 182 184 185 183 4
184 186 187 185 4 186 188 189 187 4
188 190 191 189 4 190 192 193 191 4
192 194 195 193 4 194 196 197 195 4
196 198 199 197 4 198 200 201 199 4
200 202 203 201 4 202 204 205 203 4
204 206 207 205 4 206 208 209 207 4
208 210 211 209 4 210 212 213 211 4
212 214 215 213 4 214 216 217 215 4
216 218 219 217 4 218 220 221 219 4
220 222 223 221 4 222 224 225 223 4
224 226 227 225 4 226 228 229 227 4
228 230 231 229 4 230 232 233 231 4
232 234 235 233 4 234 236 237 235 4
236 238 239 237 4 238 240 241 239 4
240 242 243 241 4 242 244 245 243 4
244 246 247 245 4 246 248 249 247 4
248 250 251 249 4 250 252 253 251 4
252 254 255 253 4 254 256 257 255 4
256 258 259 257 4 258 260 261 259 4
260 262 263 261 4 262 264 265 263 4
264 266 267 265 4 266 268 269 267 4
268 270 271 269 4 270 272 273 271 4
272 274 275 273 4 274 276 277 275 4
276 278 279 277 4 278 280 281 279 4
280 282 283 281 4 282 284 285 283 4
284 286 287 285 4 286 288 289 287 4
288 290 291 289 4 290 292 293 291 4
292 294 295 293 4 294 296 297 295 4
296 298 299 297 4 298 300 301 299 4
300 302 303 301 4 302 304 305 303 4
304 306 307 305 4 306 308 309 307 4
308 310 311 309 4 310 312 313 311 4
312 314 315 313 4 314 316 317 315 4
316 318 319 317 4 318 320 321 319 4
320 322 323 321 4 322 324 325 323 4
324 326 327 325 4 326 328 329 327 4
328 330 331 329 4 330 332 333 331 4
332 334 335 333 4 334 336 337 335 4
336 338 339 337 4 338 340 341 339 4
340 342 343 341 4 342 344 345 343 4
344 346 347 345 4 346 348 349 347 4
348 350 351 349 4 350 352 353 351 4
352 354 355 353 4 354 356 357 355 4
356 358 359 357 4 358 360 361 359 4
360 362 363 361 4 362 364 365 363 4
364 366 367 365 4 366 368 369 367 4
368 370 371 369 4 370 372 373 371 4
372 374 375 373 4 374 376 377 375 4
376 378 379 377 4 378 380 381 379 4
380 382 383 381 4 382 384 385 383 4
384 386 387 385 4 386 388 389 387 4
388 390 391 389 4 390 392 393 391 4
392 394 395 393 4 394 396 397 395 4
396 398 399 397 4 398 400 401 399 4
400 402 403 401 4 402 404 405 403 4
404 406 407 405 4 406 408 409 407 4
408 410 411 409 4 410 412 413 411 4
412 414 415 413 4 414 416 417 415 4
416 418 419 417 4 418 420 421 419 4
420 422 423 421 4 422 424 425 423 4
424 426 427 425 4 426 428 429 427 4
428 430 431 429 4 430 432 433 431 4
432 434 435 433 4 434 436 437 435 4
436 438 439 437 4 438 440 441 439 4
440 442 443 441 4 442 444 445 443 4
444 446 447 445 4 446 448 449 447 4
448 450 451 449 4 450 452 453 451 4
452 454 455 453 4 454 456 457 455 4
456 458 459 457 4 458 460 461 459 4
460 462 463 461 4 462 464 465 463 4
464 466 467 465 4 466 468 469 467 4
468 470 471 469 4 470 472 473 471 4
472 474 475 473 4 474 476 477 475 4
476 478 479 477 4 478 480 481 479 4
480 482 483 481 4 482 484 485 483 4
484 486 487 485 4 486 488 489 487 4
488 490 491 489 4 490 492 493 491 4
492 494 495 493 4 494 496 497 495 4
496 498 499 497 4 498 500 501 499 
POINT_DATA 502
FIELD attributes 1
U 3 502 float
3.25648 0.0122687 0.0491912 1.63521 0.0063649 0.0242414 1.63521 0.0063649 0.0242414 3.25648 0.0122687
0.0491912 0.0589997 0.000530678 0 0.0589997 0.000530678 0 0.0571467 0.000388057 0
0.0571467 0.000388057 0 0.0553866 0.000350036 0 0.0553866 0.000350036 0 0.0535758
0.000362307 0 0.0535758 0.000362307 0 0.0516067 0.00035361 0 0.0516067 0.00035361
0 0.0496494 0.000323858 0 0.0496494 0.000323858 0 0.0478817 0.000303552 0
0.0478817 0.000303552 0 0.04628 0.000314233 0 0.04628 0.000314233 0 0.0446797
0.000351916 0 0.0446797 0.000351916 0 0.0429677 0.000388259 0 0.0429677 0.000388259
0 0.0411392 0.000411755 0 0.0411392 0.000411755 0 0.0392725 0.000434945 0
0.0392725 0.000434945 0 0.0372564 0.000483674 0 0.0372564 0.000483674 0 0.0352502
0.000541296 0 0.0352502 0.000541296 0 0.0328036 0.000673812 0 0.0328036 0.000673812
0 0.0302944 0.000781303 0 0.0302944 0.000781303 0 0.0129743 0.000963693 0
0.0129743 0.000963693 0 4.8132e-05 -0.000131801 -8.19563e-23 4.8132e-05 -0.000131801 -8.19563e-23 0.000250109
-0.00105834 2.21696e-22 0.000250109 -0.00105834 2.21696e-22 0.000535912 -0.00327672 2.63076e-22 0.000535912 -0.00327672
2.63076e-22 0.000581564 -0.00575652 -5.2628e-22 0.000581564 -0.00575652 -5.2628e-22 0.000463123 -0.00782628 -1.75493e-22
0.000463123 -0.00782628 -1.75493e-22 0.000278094 -0.00916977 3.5119e-22 0.000278094 -0.00916977 3.5119e-22 6.24155e-05
-0.00962604 0 6.24155e-05 -0.00962604 0 -0.000144953 -0.0091791 6.95566e-22 -0.000144953 -0.0091791
6.95566e-22 -0.00031026 -0.00794537 -3.34258e-25 -0.00031026 -0.00794537 -3.34258e-25 -0.000409428 -0.00614242 -6.959e-22
-0.000409428 -0.00614242 -6.959e-22 -0.00043288 -0.00406779 6.8684e-22 -0.00043288 -0.00406779 6.8684e-22 -0.000382096
-0.00200147 -5.59504e-25 -0.000382096 -0.00200147 -5.59504e-25 -0.000280585 -0.000223593 -6.874e-22 -0.000280585 -0.000223593
-6.874e-22 -9.00375e-05 0.00109442 -6.87358e-22 -9.00375e-05 0.00109442 -6.87358e-22 0.000207741 0.00165441 -1.32489e-26
0.000207741 0.00165441 -1.32489e-26 0.000242015 0.000995722 6.99527e-22 0.000242015 0.000995722 6.99527e-22 -0.000139115
9.25445e-05 0 -0.000139115 9.25445e-05 0 -0.000353131 -2.64317e-05 0 -0.000353131 -2.64317e-05
0 -0.000260897 0.000375145 0 -0.000260897 0.000375145 0 -6.67573e-06 0.0006671 0
-6.67573e-06 0.0006671 0 0.000395063 -5.60948e-05 0 0.000395063 -5.60948e-05 0 0.000615787
-0.00158617 0 0.000615787 -0.00158617 0 0.000391167 -0.00270466 0 0.000391167 -0.00270466
0 -0.000121874 -0.00267996 0 -0.000121874 -0.00267996 0 -0.000649275 -0.00197885 0
-0.000649275 -0.00197885 0 -0.000754324 -0.000412865 0 -0.000754324 -0.000412865 0 -0.000634091
0.000929111 0 -0.000634091 0.000929111 0 0.000262567 -0.000335039 -3.82517e-25 0.000262567 -0.000335039
-3.82517e-25 0.000789946 -0.000615323 4.07001e-23 0.000789946 -0.000615323 4.07001e-23 0.0014243 -0.00070777 0
0.0014243 -0.00070777 0 0.00206477 -0.00071615 0 0.00206477 -0.00071615 0 0.00269543
-0.000693584 -3.95117e-23 0.00269543 -0.000693584 -3.95117e-23 0.00330824 -0.000658993 -3.95827e-23 0.00330824 -0.000658993
-3.95827e-23 0.00389643 -0.000616457 0 0.00389643 -0.000616457 0 0.0044522 -0.000564625 0
0.0044522 -0.000564625 0 0.00496441 -0.000500672 0 0.00496441 -0.000500672 0 0.00541826
-0.00042168 3.84204e-23 0.00541826 -0.00042168 3.84204e-23 0.00579578 -0.000325231 3.84937e-23 0.00579578 -0.000325231
3.84937e-23 0.00607589 -0.00021061 0 0.00607589 -0.00021061 0 0.0062417 -7.85559e-05 0
0.0062417 -7.85559e-05 0 0.00627349 6.94019e-05 0 0.00627349 6.94019e-05 0 0.00615066
0.00022747 3.70603e-23 0.00615066 0.00022747 3.70603e-23 0.00586531 0.000386988 3.71351e-23 0.00586531 0.000386988
3.71351e-23 0.00541659 0.000539379 0 0.00541659 0.000539379 0 0.00481697 0.000669341 0
0.00481697 0.000669341 0 0.00408768 0.000773392 0 0.00408768 0.000773392 0 0.00327047
0.000807503 0 0.00327047 0.000807503 0 0.00241735 0.000821802 0 0.00241735 0.000821802
0 0.00169375 0.000673608 0 0.00169375 0.000673608 0 0.00113485 0.000182868 3.43313e-23
0.00113485 0.000182868 3.43313e-23 0.000517397 0.000162739 3.13201e-25 0.000517397 0.000162739 3.13201e-25 0.000419386
7.64184e-05 -3.54678e-25 0.000419386 7.64184e-05 -3.54678e-25 0.0010011 -0.000982832 6.74084e-23 0.0010011 -0.000982832
6.74084e-23 0.00131297 -0.00237255 3.35931e-23 0.00131297 -0.00237255 3.35931e-23 0.00129996 -0.00263932 0
0.00129996 -0.00263932 0 0.00087558 -0.000747376 -3.28276e-23 0.00087558 -0.000747376 -3.28276e-23 -0.000733159
0.00138268 -6.53291e-23 -0.000733159 0.00138268 -6.53291e-23 -0.00297323 0.0020445 -3.25014e-23 -0.00297323 0.0020445
-3.25014e-23 -0.00504525 0.00196633 0 -0.00504525 0.00196633 0 -0.00699176 0.00182546 -3.1839e-23
-0.00699176 0.00182546 -3.1839e-23 -0.00877717 0.00165392 -3.19174e-23 -0.00877717 0.00165392 -3.19174e-23 -0.0104018
0.00148056 0 -0.0104018 0.00148056 0 -0.0118694 0.00131241 3.19186e-23 -0.0118694 0.00131241
3.19186e-23 -0.0131874 0.00115523 3.19997e-23 -0.0131874 0.00115523 3.19997e-23 -0.0143641 0.00100986 3.20531e-23
-0.0143641 0.00100986 3.20531e-23 -0.0154073 0.000876174 9.63465e-23 -0.0154073 0.000876174 9.63465e-23 -0.0163233
0.000752584 6.43786e-23 -0.0163233 0.000752584 6.43786e-23 -0.0171173 0.000637476 0 -0.0171173 0.000637476
0 -0.0177931 0.000529291 0 -0.0177931 0.000529291 0 -0.0183534 0.000426996 0
-0.0183534 0.000426996 0 -0.0188009 0.000330122 0 -0.0188009 0.000330122 0 -0.019138
0.000238837 6.35347e-23 -0.019138 0.000238837 6.35347e-23 -0.0193675 0.000153879 1.26846e-22 -0.0193675 0.000153879
1.26846e-22 -0.0194927 7.63843e-05 1.25957e-22 -0.0194927 7.63843e-05 1.25957e-22 -0.0195183 7.22828e-06 6.28234e-23
-0.0195183 7.22828e-06 6.28234e-23 -0.0194581 -5.36855e-05 -6.14137e-23 -0.0194581 -5.36855e-05 -6.14137e-23 -0.0193217
-0.000107015 -6.15916e-23 -0.0193217 -0.000107015 -6.15916e-23 -0.0191156 -0.000153 5.99145e-23 -0.0191156 -0.000153
5.99145e-23 -0.01885 -0.000191679 1.19182e-22 -0.01885 -0.000191679 1.19182e-22 -0.0185334 -0.000223182 5.92671e-23
-0.0185334 -0.000223182 5.92671e-23 -0.0181754 -0.000247837 0 -0.0181754 -0.000247837 0 -0.0177843
-0.000266261 0 -0.0177843 -0.000266261 0 -0.017368 -0.000279245 5.55544e-23 -0.017368 -0.000279245
5.55544e-23 -0.016933 -0.000287759 5.57264e-23 -0.016933 -0.000287759 5.57264e-23 -0.0164848 -0.000292803 0
-0.0164848 -0.000292803 0 -0.0160273 -0.000295367 0 -0.0160273 -0.000295367 0 -0.0155633
-0.000296337 0 -0.0155633 -0.000296337 0 -0.0150943 -0.000296465 0 -0.0150943 -0.000296465
0 -0.0146208 -0.00029635 0 -0.0146208 -0.00029635 0 -0.0141425 -0.000296465 0
-0.0141425 -0.000296465 0 -0.0136586 -0.00029718 0 -0.0136586 -0.00029718 0 -0.0131678
-0.000298814 -4.78615e-23 -0.0131678 -0.000298814 -4.78615e-23 -0.0126681 -0.00030167 -4.80224e-23 -0.0126681 -0.00030167
-4.80224e-23 -0.0121572 -0.000306064 0 -0.0121572 -0.000306064 0 -0.011632 -0.000312305 4.55275e-23
-0.011632 -0.000312305 4.55275e-23 -0.0110887 -0.000320611 9.04498e-23 -0.0110887 -0.000320611 9.04498e-23 -0.0105235
-0.000330988 4.4921e-23 -0.0105235 -0.000330988 4.4921e-23 -0.00993258 -0.000343156 -4.32586e-23 -0.00993258 -0.000343156
-4.32586e-23 -0.00931308 -0.000356538 -8.96294e-25 -0.00931308 -0.000356538 -8.96294e-25 -0.00866328 -0.000370284 4.2667e-23
-0.00866328 -0.000370284 4.2667e-23 -0.00798326 -0.000383331 -4.10608e-23 -0.00798326 -0.000383331 -4.10608e-23 -0.00727519
-0.000394533 -4.12098e-23 -0.00727519 -0.000394533 -4.12098e-23 -0.00654314 -0.000402849 0 -0.00654314 -0.000402849
0 -0.00579277 -0.000407492 3.90168e-23 -0.00579277 -0.000407492 3.90168e-23 -0.00503076 -0.000408007 3.91619e-23
-0.00503076 -0.000408007 3.91619e-23 -0.00426426 -0.0004043 -3.77864e-23 -0.00426426 -0.0004043 -3.77864e-23 -0.0035001
-0.000396646 -3.79292e-23 -0.0035001 -0.000396646 -3.79292e-23 -0.00274436 -0.000385655 3.66743e-23 -0.00274436 -0.000385655
3.66743e-23 -0.00200243 -0.000371994 7.29759e-23 -0.00200243 -0.000371994 7.29759e-23 -0.00127951 -0.000356388 7.19747e-23
-0.00127951 -0.000356388 7.19747e-23 -0.000581598 -0.000339048 1.06229e-22 -0.000581598 -0.000339048 1.06229e-22 8.691e-05
-0.000320669 1.19885e-24 8.691e-05 -0.000320669 1.19885e-24 0.000725647 -0.000301695 -6.97691e-23 0.000725647 -0.000301695
-6.97691e-23 0.0013344 -0.000281961 0 0.0013344 -0.000281961 0 0.00191137 -0.000261922 0
0.00191137 -0.000261922 0 0.00245513 -0.000241815 -6.6103e-23 0.00245513 -0.000241815 -6.6103e-23 0.00296496
-0.000221858 -1.31718e-22 0.00296496 -0.000221858 -1.31718e-22 0.00344063 -0.000202239 -9.97979e-25 0.00344063 -0.000202239
-9.97979e-25 0.00388233 -0.00018311 6.48834e-23 0.00388233 -0.00018311 6.48834e-23 0.00429058 -0.000164585 -6.32267e-23
0.00429058 -0.000164585 -6.32267e-23 0.00466615 -0.000146746 -1.26052e-22 0.00466615 -0.000146746 -1.26052e-22 0.00501001
-0.000129662 -1.24733e-22 0.00501001 -0.000129662 -1.24733e-22 0.00532323 -0.000113402 -6.21721e-23 0.00532323 -0.000113402
-6.21721e-23 0.00560703 -9.80502e-05 0 0.00560703 -9.80502e-05 0 0.00586278 -8.36982e-05 0
0.00586278 -8.36982e-05 0 0.00609204 -7.04363e-05 -5.94038e-23 0.00609204 -7.04363e-05 -5.94038e-23 0.00629653
-5.8335e-05 -5.96639e-23 0.00629653 -5.8335e-05 -5.96639e-23 0.00647814 -4.74323e-05 0 0.00647814 -4.74323e-05
0 0.00663888 -3.77255e-05 5.75866e-23 0.00663888 -3.77255e-05 5.75866e-23 0.0067808 -2.91719e-05 5.78438e-23
0.0067808 -2.91719e-05 5.78438e-23 0.00690591 -2.16987e-05 0 0.00690591 -2.16987e-05 0 0.00701613
-1.52036e-05 5.5793e-23 0.00701613 -1.52036e-05 5.5793e-23 0.00711319 -9.57313e-06 5.60471e-23 0.00711319 -9.57313e-06
5.60471e-23 0.00719866 -4.69685e-06 0 0.00719866 -4.69685e-06 0 0.0072739 -4.48771e-07 -5.40131e-23
0.0072739 -4.48771e-07 -5.40131e-23 0.00734007 3.26575e-06 -1.07686e-22 0.00734007 3.26575e-06 -1.07686e-22 0.00739817
6.53321e-06 -5.36719e-23 0.00739817 6.53321e-06 -5.36719e-23 0.00744902 9.47637e-06 5.22446e-23 0.00744902 9.47637e-06
5.22446e-23 0.00749326 1.2128e-05 5.24917e-23 0.00749326 1.2128e-05 5.24917e-23 0.00753146 1.45625e-05 -5.10724e-23
0.00753146 1.45625e-05 -5.10724e-23 0.00756386 1.69174e-05 -5.13168e-23 0.00756386 1.69174e-05 -5.13168e-23 0.00759076
1.9129e-05 -4.99064e-23 0.00759076 1.9129e-05 -4.99064e-23 0.00761229 2.12879e-05 -9.94739e-23 0.00761229 2.12879e-05
-9.94739e-23 0.00762797 2.36994e-05 -4.95661e-23 0.00762797 2.36994e-05 -4.95661e-23 0.00763757 2.63192e-05 0
0.00763757 2.63192e-05 0 0.00764112 2.8847e-05 0 0.00764112 2.8847e-05 0 0.00763866
3.11028e-05 0 0.00763866 3.11028e-05 0 0.00763046 3.3002e-05 0 0.00763046 3.3002e-05
0 0.00761705 3.4409e-05 0 0.00761705 3.4409e-05 0 0.00759914 3.51974e-05 0
0.00759914 3.51974e-05 0 0.00757749 3.53608e-05 -4.47562e-23 0.00757749 3.53608e-05 -4.47562e-23 0.0075529
3.49653e-05 -7.89105e-25 0.0075529 3.49653e-05 -7.89105e-25 0.00752615 3.41e-05 4.44213e-23 0.00752615 3.41e-05
4.44213e-23 0.00749801 3.2863e-05 0 0.00749801 3.2863e-05 0 0.00746915 3.13485e-05 0
0.00746915 3.13485e-05 0 0.00744015 2.96457e-05 0 0.00744015 2.96457e-05 0 0.0074115
2.78337e-05 8.28436e-23 0.0074115 2.78337e-05 8.28436e-23 0.00738357 2.59773e-05 8.32788e-23 0.00738357 2.59773e-05
8.32788e-23 0.00735668 2.41295e-05 -8.06554e-23 0.00735668 2.41295e-05 -8.06554e-23 0.00733103 2.23301e-05 -1.51557e-24
0.00733103 2.23301e-05 -1.51557e-24 0.00730679 2.06081e-05 7.99919e-23 0.00730679 2.06081e-05 7.99919e-23 0.00728403
1.89849e-05 0 0.00728403 1.89849e-05 0 0.0072628 1.7473e-05 0 0.0072628 1.7473e-05
0 0.0072431 1.60768e-05 -7.52604e-23 0.0072431 1.60768e-05 -7.52604e-23 0.00722492 1.47972e-05 -1.49864e-22
0.00722492 1.47972e-05 -1.49864e-22 0.0072082 1.36362e-05 -7.45996e-23 0.0072082 1.36362e-05 -7.45996e-23 0.00719288
1.25929e-05 -7.20757e-23 0.00719288 1.25929e-05 -7.20757e-23 0.00717888 1.16604e-05 -1.43496e-22 0.00717888 1.16604e-05
-1.43496e-22 0.00716612 1.08259e-05 -1.44158e-24 0.00716612 1.08259e-05 -1.44158e-24 0.00715451 1.00794e-05 7.03634e-23
0.00715451 1.00794e-05 7.03634e-23 0.00714398 9.42036e-06 0 0.00714398 9.42036e-06 0 0.00713444
8.85389e-06 6.68545e-23 0.00713444 8.85389e-06 6.68545e-23 0.00712579 8.37848e-06 6.7231e-23 0.00712579 8.37848e-06
6.7231e-23 0.00711793 7.97527e-06 0 0.00711793 7.97527e-06 0 0.00711078 7.60987e-06 0
0.00711078 7.60987e-06 0 0.00710431 7.24639e-06 0 0.00710431 7.24639e-06 0 0.00709856
6.86398e-06 -6.17378e-23 0.00709856 6.86398e-06 -6.17378e-23 0.00709355 6.46491e-06 -1.22819e-22 0.00709355 6.46491e-06
-1.22819e-22 0.00708933 6.07039e-06 -6.1077e-23 0.00708933 6.07039e-06 -6.1077e-23 0.00708588 5.70841e-06 -5.8715e-23
0.00708588 5.70841e-06 -5.8715e-23 0.00708315 5.40106e-06 -5.90567e-23 0.00708315 5.40106e-06 -5.90567e-23 0.00708107
5.15793e-06 0 0.00708107 5.15793e-06 0 0.00707953 4.9759e-06 -5.57253e-23 0.00707953 4.9759e-06
-5.57253e-23 0.00707843 4.84466e-06 -5.60532e-23 0.00707843 4.84466e-06 -5.60532e-23 0.00707766 4.75205e-06 -5.37495e-23
0.00707766 4.75205e-06 -5.37495e-23 0.00707714 4.6895e-06 -5.40682e-23 0.00707714 4.6895e-06 -5.40682e-23 0.00707674
4.65322e-06 0 0.00707674 4.65322e-06 0 0.00707639 4.64496e-06 -5.08101e-23 0.00707639 4.64496e-06
-5.08101e-23 0.00707592 4.67124e-06 -5.11147e-23 0.00707592 4.67124e-06 -5.11147e-23 0.00707526 4.73982e-06 -4.88656e-23
0.00707526 4.73982e-06 -4.88656e-23 0.00707414 4.86677e-06 -4.91605e-23 0.00707414 4.86677e-06 -4.91605e-23 0.00707251