/*--------------------------------*- C++ -*----------------------------------*\
  =========                 |
  \\      /  F ield         | OpenFOAM: The Open Source CFD Toolbox
   \\    /   O peration     | Website:  https://openfoam.org
    \\  /    A nd           | Version:  9
     \\/     M anipulation  |
\*---------------------------------------------------------------------------*/
FoamFile
{
    format      ascii;
    class       volScalarField;
    location    "0.09";
    object      p;
}
// * * * * * * * * * * * * * * * * * * * * * * * * * * * * * * * * * * * * * //

dimensions      [0 2 -2 0 0 0 0];

internalField   nonuniform List<scalar> 
12225
(
660.728
653.24
645.017
637.282
629.86
622.876
616.353
610.244
604.49
599.03
593.837
588.921
584.273
579.834
575.494
571.154
566.637
561.657
662.104
653.327
645.027
637.274
629.848
622.86
616.328
610.214
604.462
599.01
593.827
588.916
584.266
579.821
575.483
571.142
566.652
561.744
662.65
653.379
645.059
637.25
629.82
622.84
616.304
610.179
604.421
598.974
593.808
588.913
584.267
579.812
575.461
571.118
566.674
561.989
662.546
653.445
645.125
637.244
629.791
622.797
616.248
610.12
604.368
598.936
593.786
588.901
584.254
579.795
575.452
571.144
566.795
562.364
661.135
653.395
645.162
637.198
629.728
622.734
616.182
610.05
604.3
598.879
593.748
588.882
584.251
579.807
575.488
571.233
566.997
562.802
660.088
653.441
645.241
637.197
629.667
622.649
616.083
609.951
604.213
598.812
593.701
588.853
584.238
579.813
575.531
571.346
567.24
563.254
660.148
653.62
645.303
637.144
629.564
622.523
615.953
609.825
604.099
598.719
593.638
588.821
584.235
579.846
575.614
571.509
567.53
563.718
661.422
654.068
645.426
637.105
629.448
622.37
615.789
609.666
603.958
598.605
593.552
588.764
584.213
579.867
575.695
571.679
567.821
564.158
664.873
654.74
645.521
636.985
629.247
622.145
615.564
609.458
603.779
598.461
593.45
588.704
584.199
579.907
575.804
571.877
568.131
564.593
666.601
655.164
645.574
636.83
629
621.873
615.294
609.206
603.557
598.278
593.308
588.608
584.155
579.926
575.899
572.065
568.426
564.998
665.208
655.584
645.537
636.569
628.649
621.5
614.935
608.883
603.284
598.06
593.146
588.503
584.112
579.95
576.001
572.254
568.709
565.376
669.17
656.056
645.296
636.167
628.195
621.052
614.524
608.519
602.968
597.796
592.937
588.354
584.028
579.939
576.069
572.404
568.945
565.694
670.111
656.173
644.979
635.651
627.635
620.509
614.025
608.076
602.592
597.49
592.702
588.19
583.935
579.917
576.119
572.53
569.146
565.965
673.883
655.888
644.036
634.707
626.735
619.691
613.309
607.462
602.073
597.06
592.359
587.937
583.771
579.843
576.135
572.636
569.337
566.234
667.392
653.574
642.368
633.28
625.459
618.548
612.303
606.594
601.337
596.451
591.875
587.574
583.526
579.708
576.102
572.697
569.485
566.46
662.523
649.595
639.352
630.792
623.334
616.742
610.793
605.342
600.301
595.599
591.186
587.032
583.119
579.43
575.949
572.663
569.559
566.631
652.845
643.291
634.627
627.048
620.343
614.275
608.731
603.621
598.855
594.389
590.197
586.249
582.52
578.993
575.654
572.493
569.5
566.668
643.073
634.939
628.027
621.817
616.084
610.715
605.785
601.17
596.81
592.701
588.815
585.123
581.615
578.287
575.125
572.12
569.266
566.556
626.31
622.784
618.615
614.249
610.061
605.975
601.925
597.968
594.145
590.481
586.972
583.605
580.381
577.296
574.345
571.52
568.819
566.238
609.116
612.802
612.031
608.992
605.327
601.792
598.352
594.962
591.631
588.374
585.204
582.128
579.148
576.269
573.495
570.829
568.269
565.815
618.747
608.824
605.586
603.532
601.215
598.53
595.667
592.733
589.769
586.81
583.887
581.019
578.217
575.493
572.857
570.308
567.845
565.469
602.785
603.544
602.238
600.319
598.343
596.102
593.629
591.03
588.354
585.623
582.879
580.163
577.487
574.854
572.328
569.868
567.484
565.179
596.629
598.234
598.424
597.569
596.101
594.204
592.023
589.695
587.236
584.687
582.096
579.51
576.96
574.463
571.976
569.562
567.22
564.951
589.318
594.253
595.693
595.502
594.449
592.892
590.985
588.815
586.481
584.038
581.547
579.038
576.535
574.071
571.649
569.293
567.004
564.783
586.355
592.162
594.097
594.098
593.237
591.86
590.11
588.089
585.883
583.552
581.146
578.711
576.269
573.845
571.457
569.126
566.858
564.657
589.015
591.487
592.992
593.184
592.519
591.285
589.633
587.684
585.529
583.242
580.873
578.468
576.058
573.667
571.31
569.011
566.764
564.577
591.034
591.058
592.264
592.516
591.949
590.806
589.237
587.363
585.271
583.032
580.704
578.331
575.944
573.569
571.231
568.933
566.695
564.518
588.486
590.469
591.85
592.186
591.685
590.577
589.04
587.191
585.127
582.911
580.598
578.237
575.859
573.494
571.163
568.876
566.644
564.472
586.95
590.05
591.533
591.959
591.509
590.425
588.915
587.096
585.053
582.853
580.549
578.189
575.811
573.451
571.129
568.852
566.626
564.455
584.908
589.769
591.416
591.894
591.452
590.365
588.856
587.049
585.028
582.847
580.552
578.187
575.8
573.428
571.097
568.818
566.595
564.431
510.471
510.39
510.256
510.122
510.026
509.975
509.957
509.924
509.83
509.672
509.41
509.027
508.637
508.255
507.836
507.379
506.892
506.3
505.553
504.659
503.677
502.66
501.615
500.53
499.425
498.339
497.315
496.407
495.627
494.963
494.34
493.674
492.968
492.393
491.997
491.703
491.401
490.559
488.967
486.781
484.091
481.003
477.596
473.934
470.069
466.048
461.916
457.723
453.528
449.403
445.432
441.717
438.363
435.469
433.115
431.364
430.279
429.895
430.176
431.061
432.469
434.303
436.462
438.844
441.355
443.912
446.443
448.89
451.19
453.27
455.019
456.28
456.841
456.462
455.026
452.575
449.866
447.653
446.916
447.686
449.242
449.616
448.869
448.092
447.438
446.725
445.731
444.618
443.422
442.19
440.966
439.744
438.524
437.298
436.064
434.808
433.523
432.186
430.82
429.411
428.037
426.846
425.93
425.039
423.544
421.931
419.015
417.547
416.303
408.23
393.948
377.806
362.188
348.483
337.287
328.859
323.246
320.401
320.195
322.383
326.548
332.132
338.485
344.961
351.021
356.3
360.628
363.987
366.444
368.083
368.968
369.115
368.499
367.093
364.936
362.198
359.085
355.79
352.447
349.125
345.846
342.598
339.343
336.033
332.622
329.069
325.339
321.407
317.266
312.934
308.459
303.918
299.403
295.012
290.844
286.976
283.4
280.105
277.094
274.349
271.768
269.336
266.773
263.391
258.976
254.813
251.723
249.514
247.484
245.297
242.808
240.061
237.163
234.194
231.181
228.108
224.978
221.801
218.615
215.452
510.352
510.252
510.081
509.901
509.785
509.747
509.77
509.813
509.788
509.691
509.473
509.088
508.709
508.371
507.903
507.353
506.816
506.204
505.455
504.572
503.589
502.546
501.458
500.316
499.145
497.984
496.865
495.856
495.03
494.39
493.898
493.486
493.134
492.58
491.647
490.806
490.23
489.186
487.517
485.307
482.623
479.565
476.195
472.566
468.716
464.686
460.516
456.262
451.988
447.781
443.74
439.975
436.596
433.709
431.412
429.78
428.822
428.521
428.862
429.798
431.249
433.123
435.316
437.724
440.25
442.806
445.32
447.728
449.972
451.985
453.675
454.903
455.457
455.077
453.629
451.172
448.298
445.853
445.074
445.99
448.171
449.021
448.458
447.727
447.06
446.411
445.527
444.507
443.375
442.177
440.963
439.726
438.472
437.21
435.947
434.663
433.355
432.006
430.634
429.219
427.833
426.597
425.691
424.915
423.763
422.235
419.458
415.78
411.598
401.734
387.424
372.061
357.432
344.644
334.183
326.313
321.128
318.611
318.633
320.98
325.303
331.061
337.599
344.248
350.448
355.82
360.193
363.556
365.992
367.61
368.496
368.683
368.141
366.82
364.717
362.016
358.922
355.64
352.31
349.001
345.736
342.5
339.251
335.942
332.528
328.969
325.234
321.297
317.152
312.818
308.342
303.796
299.276
294.883
290.688
286.751
283.159
279.888
276.91
274.163
271.515
268.956
266.329
262.939
258.618
254.651
251.764
249.578
247.52
245.326
242.867
240.127
237.196
234.195
231.166
228.1
224.976
221.793
218.593
215.374
510.437
510.355
510.195
509.994
509.84
509.771
509.783
509.817
509.811
509.732
509.546
509.204
508.747
508.341
507.984
507.596
507.137
506.542
505.773
504.875
503.894
502.854
501.759
500.607
499.411
498.203
496.933
495.859
494.977
494.228
493.477
492.726
492.081
491.428
490.563
489.488
488.241
486.707
484.833
482.598
480.005
477.072
473.821
470.277
466.465
462.423
458.196
453.849
449.466
445.149
441.009
437.164
433.729
430.818
428.534
426.934
426.032
425.82
426.264
427.305
428.863
430.84
433.13
435.622
438.214
440.812
443.335
445.715
447.892
449.807
451.392
452.545
453.112
452.881
451.673
449.516
446.848
444.595
443.973
444.806
446.783
447.937
447.533
446.802
446.259
445.933
445.406
444.566
443.472
442.231
440.936
439.618
438.301
436.981
435.654
434.303
432.933
431.549
430.163
428.757
427.403
426.301
425.586
424.934
424.309
422.342
418.44
412.103
403.45
391.82
378.437
364.508
351.247
339.514
329.866
322.589
317.815
315.565
315.805
318.38
322.966
329.037
335.914
342.887
349.348
354.895
359.352
362.72
365.109
366.675
367.549
367.788
367.359
366.181
364.207
361.594
358.557
355.317
352.023
348.748
345.514
342.301
339.065
335.758
332.336
328.763
325.011
321.059
316.904
312.563
308.082
303.535
299.007
294.588
290.374
286.428
282.813
279.484
276.455
273.723
271.15
268.537
265.736
262.465
258.693
255.143
252.229
249.862
247.668
245.363
242.826
240.058
237.166
234.206
231.2
228.115
224.969
221.765
218.538
215.266
510.997
510.998
510.923
510.73
510.471
510.239
510.059
509.91
509.748
509.548
509.314
509.044
508.751
508.473
508.219
507.968
507.647
507.143
506.457
505.626
504.663
503.608
502.485
501.324
500.15
498.964
497.767
496.602
495.524
494.547
493.611
492.655
491.653
490.573
489.367
487.993
486.408
484.582
482.5
480.137
477.474
474.498
471.204
467.595
463.685
459.507
455.11
450.57
445.988
441.484
437.19
433.234
429.741
426.825
424.576
423.042
422.189
422.059
422.616
423.795
425.506
427.643
430.093
432.741
435.475
438.197
440.817
443.26
445.461
447.364
448.913
450.044
450.672
450.671
449.896
448.326
446.252
444.551
444.136
444.901
446.704
447.535
446.964
446.106
445.657
445.578
445.351
444.68
443.596
442.276
440.863
439.421
438.005
436.595
435.171
433.711
432.225
430.739
429.286
427.801
426.421
425.464
425.042
424.603
423.629
420.879
414.785
405.601
394.524
382.186
369.264
356.228
343.991
333.206
324.382
317.76
313.474
311.568
312.06
314.881
319.778
326.249
333.582
340.998
347.826
353.624
358.216
361.615
363.955
365.432
366.243
366.497
366.188
365.183
363.389
360.914
357.981
354.824
351.602
348.391
345.209
342.032
338.813
335.504
332.064
328.462
324.678
320.696
316.517
312.161
307.669
303.114
298.584
294.168
289.943
285.988
282.324
278.965
275.893
273.106
270.502
267.922
265.217
262.156
258.716
255.383
252.516
250.068
247.747
245.366
242.818
240.081
237.193
234.219
231.192
228.107
224.961
221.744
218.484
215.159
511.558
511.612
511.577
511.379
511.023
510.633
510.273
509.954
509.655
509.361
509.077
508.809
508.589
508.439
508.311
508.227
508.061
507.675
507.073
506.325
505.47
504.515
503.482
502.384
501.235
500.048
498.841
497.634
496.434
495.236
494.021
492.76
491.424
489.994
488.456
486.78
484.927
482.862
480.555
477.982
475.118
471.943
468.442
464.609
460.453
456.005
451.328
446.513
441.679
436.962
432.505
428.446
424.907
421.978
419.709
418.136
417.396
417.404
418.12
419.476
421.377
423.714
426.371
429.226
432.163
435.077
437.875
440.478
442.818
444.84
446.5
447.761
448.585
448.927
448.727
447.967
446.815
445.861
445.815
446.726
448.257
448.53
447.665
446.557
445.867
445.668
445.464
444.822
443.7
442.258
440.716
439.158
437.628
436.108
434.551
432.924
431.23
429.507
427.772
425.932
424.384
423.57
423.554
423.177
421.714
417.362
408.722
397.647
385.622
373.06
360.273
347.746
336.241
326.279
318.242
312.286
308.496
306.922
307.653
310.705
315.914
322.826
330.689
338.636
345.91
352.024
356.807
360.291
362.63
364.038
364.756
364.975
364.742
363.885
362.287
359.983
357.192
354.159
351.048
347.933
344.828
341.7
338.503
335.187
331.716
328.068
324.231
320.201
315.981
311.592
307.081
302.513
297.967
293.539
289.311
285.336
281.664
278.306
275.221
272.385
269.747
267.202
264.612
261.766
258.605
255.493
252.728
250.257
247.866
245.416
242.825
240.069
237.185
234.223
231.201
228.111
224.947
221.705
218.418
215.056
511.744
511.781
511.71
511.447
511.054
510.647
510.261
509.892
509.543
509.224
508.949
508.722
508.556
508.456
508.405
508.399
508.285
507.96
507.45
506.794
506.02
505.15
504.199
503.18
502.09
500.93
499.707
498.434
497.117
495.75
494.325
492.831
491.253
489.575
487.776
485.831
483.709
481.377
478.801
475.951
472.801
469.327
465.51
461.343
456.843
452.054
447.057
441.96
436.895
432.002
427.421
423.275
419.67
416.686
414.388
412.849
412.153
412.268
413.142
414.701
416.843
419.443
422.367
425.478
428.65
431.776
434.768
437.555
440.079
442.296
444.173
445.69
446.839
447.624
448.061
448.189
448.122
448.171
448.781
449.919
451.061
450.793
449.511
448.126
446.891
446.261
445.802
445.03
443.814
442.268
440.598
438.904
437.237
435.577
433.848
431.988
429.978
427.839
425.517
422.903
420.997
420.217
420.589
420.163
417.965
411.858
401.369
389.403
377.021
364.322
351.572
339.41
328.495
319.268
311.971
306.667
303.366
302.114
303.032
306.241
311.695
319.015
327.416
335.925
343.679
350.141
355.146
358.754
361.138
362.529
363.179
363.367
363.16
362.412
360.982
358.855
356.231
353.351
350.376
347.379
344.366
341.299
338.123
334.792
331.276
327.565
323.657
319.559
315.281
310.848
306.305
301.718
297.163
292.721
288.474
284.484
280.812
277.453
274.384
271.563
268.921
266.388
263.893
261.263
258.397
255.53
252.878
250.402
247.951
245.439
242.82
240.07
237.204
234.247
231.217
228.113
224.936
221.68
218.365
214.97
512.348
512.173
511.892
511.513
511.109
510.703
510.298
509.891
509.505
509.165
508.892
508.695
508.583
508.539
508.539
508.553
508.428
508.118
507.658
507.066
506.361
505.558
504.67
503.702
502.647
501.496
500.253
498.93
497.533
496.062
494.509
492.865
491.116
489.244
487.223
485.03
482.636
480.013
477.134
473.966
470.484
466.663
462.488
457.964
453.12
448.016
442.747
437.43
432.181
427.114
422.337
417.962
414.106
410.902
408.487
406.954
406.257
406.461
407.533
409.385
411.889
414.89
418.218
421.712
425.227
428.646
431.885
434.88
437.587
439.983
442.068
443.851
445.346
446.578
447.586
448.439
449.246
450.178
451.393
452.735
453.608
453.126
451.548
449.808
448.268
447.119
446.254
445.258
443.943
442.321
440.549
438.731
436.923
435.1
433.163
431.018
428.589
425.838
422.555
418.688
415.958
415.38
416.033
415.402
412.458
404.961
393.623
381.398
368.872
356.043
343.363
331.537
321.166
312.624
306.041
301.389
298.582
297.616
298.644
301.905
307.491
315.126
324.011
333.056
341.286
348.095
353.317
357.047
359.492
360.895
361.539
361.71
361.513
360.842
359.55
357.595
355.153
352.443
349.614
346.732
343.806
340.792
337.631
334.275
330.704
326.919
322.933
318.759
314.412
309.924
305.34
300.724
296.152
291.702
287.453
283.456
279.786
276.425
273.374
270.586
267.983
265.498
263.088
260.65
258.086
255.48
252.955
250.497
248.02
245.479
242.847
240.101
237.238
234.277
231.239
228.125
224.935
221.662
218.323
214.904
513.005
512.63
512.134
511.703
511.3
510.88
510.44
509.998
509.591
509.239
508.961
508.768
508.674
508.65
508.68
508.687
508.537
508.233
507.797
507.24
506.576
505.816
504.968
504.031
502.994
501.849
500.599
499.256
497.824
496.296
494.662
492.911
491.025
488.981
486.754
484.32
481.658
478.746
475.559
472.074
468.269
464.126
459.635
454.808
449.684
444.326
438.814
433.235
427.677
422.224
416.977
412.073
407.698
404.064
401.36
399.686
399.042
399.441
400.842
403.138
406.174
409.757
413.681
417.745
421.773
425.631
429.233
432.526
435.483
438.095
440.38
442.376
444.134
445.702
447.128
448.464
449.796
451.214
452.699
454.034
454.744
454.286
452.747
451.047
449.367
447.932
446.718
445.506
444.101
442.445
440.611
438.691
436.746
434.751
432.595
430.146
427.255
423.776
419.29
413.986
410.545
409.883
410.538
409.664
405.941
397.624
386.143
373.978
361.392
348.479
335.927
324.43
314.565
306.647
300.724
296.697
294.373
293.672
294.784
298.02
303.622
311.452
320.723
330.227
338.89
346.014
351.421
355.235
357.744
359.18
359.854
360.034
359.847
359.231
358.05
356.258
354.004
351.475
348.789
346.005
343.138
340.148
336.978
333.582
329.949
326.095
322.038
317.794
313.382
308.836
304.203
299.546
294.945
290.477
286.219
282.256
278.577
275.235
272.21
269.47
266.941
264.532
262.215
259.946
257.651
255.312
252.952
250.556
248.088
245.538
242.898
240.147
237.284
234.321
231.276
228.149
224.943
221.653
218.292
214.851
513.129
512.765
512.368
512.029
511.649
511.224
510.776
510.345
509.963
509.637
509.374
509.191
509.092
509.037
509.023
508.957
508.757
508.432
507.993
507.447
506.803
506.067
505.241
504.321
503.297
502.16
500.914
499.566
498.114
496.548
494.851
493.007
490.995
488.788
486.364
483.704
480.795
477.622
474.171
470.424
466.361
461.962
457.223
452.153
446.78
441.144
435.285
429.247
423.093
416.93
410.927
405.303
400.311
396.198
393.16
391.317
390.721
391.352
393.148
395.98
399.659
403.957
408.622
413.406
418.092
422.518
426.598
430.295
433.591
436.486
439.008
441.214
443.176
444.964
446.643
448.258
449.846
451.406
452.869
454.058
454.64
454.301
453.094
451.595
450
448.497
447.12
445.785
444.329
442.667
440.801
438.808
436.75
434.609
432.266
429.558
426.266
422.116
416.463
409.849
405.678
404.813
405.162
403.908
399.593
390.808
379.481
367.479
354.851
341.918
329.511
318.295
308.854
301.469
296.14
292.706
290.856
290.484
291.692
294.853
300.372
308.271
317.816
327.671
336.653
343.998
349.514
353.383
355.937
357.429
358.149
358.359
358.196
357.62
356.527
354.886
352.824
350.476
347.922
345.212
342.369
339.369
336.161
332.71
329.017
325.106
320.996
316.699
312.233
307.63
302.943
298.234
293.579
289.07
284.783
280.79
277.134
273.839
270.882
268.224
265.791
263.49
261.284
259.167
257.094
255.012
252.862
250.581
248.152
245.605
242.961
240.21
237.347
234.382
231.326
228.185
224.962
221.655
218.273
214.81
513.334
513.095
512.878
512.593
512.223
511.798
511.363
510.957
510.594
510.284
510.029
509.843
509.728
509.644
509.574
509.427
509.166
508.804
508.344
507.791
507.149
506.42
505.603
504.692
503.676
502.547
501.304
499.95
498.48
496.878
495.12
493.186
491.053
488.696
486.094
483.237
480.123
476.745
473.093
469.149
464.895
460.308
455.368
450.067
444.401
438.372
431.986
425.271
418.311
411.276
404.42
398.041
392.427
387.834
384.475
382.483
381.907
382.743
384.931
388.323
392.7
397.784
403.273
408.866
414.297
419.36
423.957
428.079
431.745
434.965
437.763
440.191
442.33
444.267
446.086
447.841
449.536
451.118
452.484
453.491
453.958
453.74
452.886
451.622
450.25
448.856
447.493
446.134
444.665
443.008
441.133
439.101
436.976
434.747
432.297
429.434
425.897
421.316
414.876
407.456
402.723
401.388
401.009
399.195
394.343
385.221
374.085
362.245
349.534
336.61
324.308
313.28
304.154
297.209
292.405
289.507
288.141
288.083
289.398
292.482
297.892
305.791
315.509
325.584
334.717
342.129
347.679
351.556
354.133
355.68
356.456
356.712
356.581
356.044
355.027
353.525
351.644
349.466
347.027
344.364
341.513
338.471
335.206
331.699
327.961
324.013
319.868
315.532
311.017
306.356
301.602
296.823
292.098
287.517
283.171
279.135
275.477
272.214
269.336
266.798
264.512
262.37
260.308
258.333
256.44
254.591
252.68
250.561
248.202
245.677
243.042
240.295
237.431
234.458
231.39
228.233
224.993
221.668
218.264
214.779
514.019
513.894
513.704
513.418
513.05
512.642
512.227
511.836
511.477
511.166
510.914
510.723
510.586
510.47
510.339
510.12
509.801
509.396
508.904
508.33
507.677
506.942
506.122
505.21
504.196
503.069
501.824
500.46
498.968
497.327
495.511
493.494
491.252
488.764
486.014
483
479.728
476.2
472.406
468.327
463.931
459.18
454.04
448.475
442.448
435.928
428.905
421.422
413.618
405.738
398.098
391.023
384.812
379.736
376.032
373.857
373.292
374.338
376.917
380.861
385.923
391.788
398.106
404.522
410.72
416.441
421.545
426.042
430.011
433.508
436.561
439.207
441.511
443.562
445.453
447.25
448.964
450.538
451.842
452.748
453.158
453.045
452.451
451.479
450.341
449.112
447.835
446.511
445.068
443.438
441.586
439.564
437.434
435.197
432.744
429.872
426.301
421.616
414.967
407.389
402.316
400.39
398.809
396.439
390.845
381.313
370.258
358.518
345.659
332.748
320.494
309.573
300.653
294.036
289.622
287.122
286.176
286.432
287.895
290.954
296.284
304.184
313.953
324.087
333.162
340.5
345.984
349.822
352.395
353.985
354.821
355.129
355.035
354.536
353.59
352.216
350.493
348.457
346.105
343.463
340.583
337.487
334.166
330.616
326.848
322.874
318.698
314.317
309.745
305.014
300.177
295.307
290.492
285.82
281.392
277.311
273.622
270.374
267.564
265.159
263.061
261.136
259.273
257.457
255.725
254.076
252.399
250.481
248.238
245.761
243.143
240.402
237.533
234.549
231.466
228.294
225.035
221.693
218.267
214.76
515.125
515.021
514.839
514.556
514.195
513.801
513.391
512.996
512.625
512.303
512.041
511.839
511.679
511.526
511.337
511.054
510.681
510.229
509.698
509.093
508.416
507.661
506.826
505.904
504.882
503.751
502.501
501.124
499.609
497.932
496.063
493.974
491.644
489.054
486.192
483.064
479.681
476.047
472.148
467.96
463.443
458.545
453.204
447.359
440.948
433.926
426.288
418.105
409.57
400.983
392.695
385.043
378.332
372.851
368.874
366.583
366.056
367.294
370.211
374.621
380.258
386.783
393.812
400.938
407.806
414.12
419.677
424.451
428.585
432.218
435.426
438.237
440.677
442.806
444.736
446.556
448.279
449.846
451.129
452.014
452.415
452.365
451.935
451.205
450.289
449.238
448.083
446.831
445.451
443.889
442.115
440.167
438.102
435.939
433.596
430.873
427.499
423.081
416.866
409.748
404.68
402.053
399.397
395.757
389.374
379.284
368.124
356.383
343.37
330.478
318.246
307.404
298.587
292.181
287.965
285.678
285.039
285.572
287.224
290.338
295.676
303.53
313.234
323.213
332.076
339.199
344.512
348.253
350.793
352.405
353.292
353.65
353.593
353.131
352.249
350.981
349.38
347.444
345.145
342.505
339.594
336.453
333.092
329.513
325.719
321.712
317.486
313.039
308.386
303.562
298.622
293.641
288.713
283.935
279.411
275.258
271.537
268.312
265.578
263.307
261.412
259.745
258.148
256.542
254.976
253.498
252.032
250.34
248.261
245.86
243.267
240.53
237.655
234.658
231.558
228.367
225.089
221.727
218.281
214.753
516.646
516.539
516.357
516.072
515.71
515.307
514.883
514.467
514.073
513.734
513.458
513.235
513.043
512.848
512.599
512.253
511.823
511.319
510.738
510.089
509.375
508.587
507.72
506.775
505.736
504.593
503.333
501.944
500.41
498.708
496.804
494.666
492.276
489.618
486.683
483.476
480.015
476.306
472.335
468.065
463.444
458.407
452.882
446.788
440.052
432.629
424.52
415.827
406.78
397.711
388.991
380.965
373.947
368.236
364.119
361.79
361.317
362.71
365.888
370.645
376.689
383.655
391.157
398.757
406.05
412.755
418.622
423.534
427.651
431.223
434.416
437.281
439.808
441.98
443.91
445.72
447.464
449.117
450.452
451.367
451.815
451.823
451.485
450.905
450.16
449.276
448.257
447.103
445.806
444.34
442.684
440.865
438.931
436.916
434.772
432.333
429.345
425.491
420.167
413.93
409.058
406.017
402.206
397.291
389.803
379.154
367.749
355.821
342.805
329.94
317.767
306.957
298.22
291.788
287.585
285.345
284.833
285.604
287.464
290.703
296.067
303.87
313.394
323.049
331.529
338.296
343.342
346.93
349.401
351.006
351.923
352.318
352.288
351.856
351.022
349.822
348.292
346.41
344.134
341.493
338.563
335.398
332.013
328.41
324.583
320.524
316.222
311.677
306.912
301.965
296.891
291.77
286.7
281.788
277.15
272.906
269.158
265.975
263.349
261.241
259.566
258.182
256.902
255.572
254.202
252.883
251.602
250.143
248.267
245.973
243.415
240.684
237.801
234.786
231.666
228.453
225.154
221.773
218.306
214.756
518.564
518.457
518.262
517.969
517.594
517.171
516.726
516.285
515.867
515.509
515.214
514.963
514.727
514.47
514.147
513.73
513.235
512.669
512.027
511.315
510.545
509.709
508.795
507.805
506.734
505.569
504.297
502.902
501.363
499.655
497.739
495.582
493.165
490.478
487.512
484.267
480.758
476.991
472.958
468.623
463.926
458.793
453.137
446.874
439.928
432.265
423.898
414.953
405.678
396.411
387.527
379.369
372.279
366.531
362.409
360.106
359.729
361.268
364.613
369.538
375.746
382.851
390.482
398.235
405.654
412.463
418.433
423.358
427.321
430.618
433.605
436.352
438.886
441.033
442.969
444.77
446.54
448.256
449.707
450.74
451.3
451.414
451.17
450.682
450.042
449.283
448.394
447.355
446.157
444.796
443.273
441.608
439.847
438.028
436.135
434.055
431.565
428.449
424.282
418.823
414.489
410.947
406.317
400.306
391.73
380.505
368.846
356.785
343.874
331.043
318.972
308.202
299.47
292.969
288.631
286.277
285.772
286.68
288.7
292.075
297.495
305.235
314.459
323.618
331.549
337.835
342.532
345.912
348.273
349.834
350.75
351.16
351.143
350.72
349.9
348.723
347.217
345.35
343.084
340.447
337.517
334.346
330.948
327.318
323.445
319.313
314.906
310.234
305.327
300.224
294.976
289.668
284.407
279.309
274.514
270.16
266.378
263.262
260.797
258.912
257.507
256.441
255.517
254.526
253.402
252.253
251.138
249.901
248.251
246.098
243.591
240.866
237.97
234.934
231.789
228.552
225.231
221.827
218.339
214.768
520.855
520.744
520.539
520.235
519.846
519.402
518.934
518.468
518.026
517.644
517.317
517.022
516.72
516.374
515.957
515.461
514.894
514.257
513.547
512.76
511.91
511.002
510.022
508.967
507.842
506.639
505.347
503.949
502.419
500.749
498.863
496.731
494.327
491.643
488.677
485.43
481.905
478.108
474.027
469.632
464.87
459.668
453.943
447.613
440.609
432.902
424.528
415.625
406.435
397.286
388.534
380.53
373.596
368.019
364.049
361.849
361.54
363.124
366.464
371.314
377.383
384.306
391.702
399.235
406.484
413.112
418.945
423.779
427.536
430.545
433.145
435.542
437.843
439.979
441.914
443.722
445.497
447.258
448.838
450.026
450.739
451.012
450.924
450.562
450.004
449.316
448.515
447.583
446.502
445.262
443.873
442.364
440.776
439.158
437.531
435.813
433.836
431.436
428.28
423.832
420.107
415.907
410.768
403.901
394.57
382.891
371.033
359.026
346.296
333.593
321.675
311.023
302.309
295.709
291.147
288.573
287.98
288.908
291.005
294.494
299.986
307.607
316.386
324.872
332.105
337.809
342.093
345.215
347.424
348.902
349.783
350.178
350.148
349.704
348.863
347.67
346.154
344.284
342.024
339.403
336.487
333.321
329.914
326.249
322.314
318.087
313.553
308.728
303.651
298.352
292.876
287.315
281.789
276.433
271.414
266.906
263.073
260.039
257.796
256.224
255.179
254.499
253.979
253.385
252.57
251.622
250.664
249.627
248.212
246.232
243.794
241.076
238.164
235.102
231.928
228.664
225.318
221.891
218.382
214.79
523.572
523.454
523.238
522.922
522.518
522.055
521.567
521.08
520.621
520.203
519.823
519.448
519.047
518.592
518.071
517.488
516.84
516.119
515.326
514.451
513.499
512.485
511.407
510.259
509.047
507.781
506.452
505.054
503.564
501.949
500.155
498.124
495.808
493.185
490.251
487.012
483.479
479.656
475.535
471.092
466.279
461.036
455.295
448.993
442.082
434.549
426.441
417.893
409.128
400.44
392.157
384.608
378.094
372.878
369.174
367.12
366.785
368.216
371.303
375.788
381.388
387.786
394.607
401.561
408.327
414.534
420
424.599
428.174
430.907
433.104
435.026
436.902
438.798
440.659
442.481
444.304
446.122
447.804
449.16
450.066
450.527
450.631
450.458
450.051
449.446
448.693
447.824
446.836
445.72
444.477
443.126
441.711
440.272
438.855
437.464
435.949
434.151
431.863
428.56
425.297
420.634
415.148
407.729
397.96
385.985
374.024
362.288
349.862
337.418
325.732
315.266
306.586
299.864
295.08
292.314
291.54
292.374
294.46
298.031
303.573
310.953
319.091
326.719
333.124
338.164
341.982
344.801
346.819
348.178
348.989
349.338
349.264
348.769
347.88
346.652
345.116
343.238
340.987
338.388
335.493
332.336
328.914
325.204
321.19
316.85
312.165
307.16
301.874
296.321
290.54
284.635
278.743
273.026
267.7
262.985
259.08
256.14
254.183
253.031
252.467
252.285
252.255
252.124
251.691
250.99
250.195
249.338
248.155
246.37
244.021
241.315
238.383
235.29
232.084
228.789
225.415
221.964
218.432
214.821
526.543
526.418
526.188
525.854
525.425
524.933
524.412
523.895
523.406
522.956
522.519
522.056
521.547
520.989
520.379
519.716
518.986
518.175
517.287
516.314
515.244
514.089
512.866
511.578
510.238
508.866
507.477
506.073
504.635
503.127
501.488
499.64
497.509
495.035
492.194
488.99
485.444
481.578
477.4
472.896
468.038
462.779
457.073
450.88
444.178
436.978
429.338
421.385
413.311
405.363
397.819
390.956
385.032
380.269
376.85
374.9
374.475
375.612
378.233
382.111
386.979
392.591
398.616
404.767
410.813
416.431
421.391
425.605
428.953
431.468
433.34
434.797
436.155
437.648
439.309
441.094
442.978
444.936
446.817
448.381
449.461
450.079
450.342
450.349
450.116
449.629
448.935
448.099
447.16
446.128
445.002
443.795
442.54
441.272
440.018
438.816
437.615
436.265
434.607
432.243
429.339
424.952
419.173
411.51
401.54
389.379
377.376
366.044
354.063
341.979
330.586
320.362
311.779
305.03
300.154
297.259
296.313
296.957
298.963
302.582
308.08
315.021
322.309
328.94
334.45
338.802
342.136
344.632
346.434
347.65
348.364
348.637
348.488
347.924
346.982
345.722
344.167
342.281
340.038
337.46
334.583
331.43
327.983
324.213
320.107
315.639
310.779
305.561
300.02
294.142
287.964
281.609
275.229
269.026
263.279
258.285
254.287
251.464
249.861
249.241
249.296
249.746
250.316
250.733
250.759
250.361
249.747
249.052
248.085
246.505
244.264
241.575
238.621
235.495
232.253
228.925
225.522
222.044
218.49
214.859
529.438
529.303
529.053
528.69
528.224
527.683
527.107
526.535
525.995
525.497
525.012
524.483
523.89
523.25
522.587
521.884
521.107
520.227
519.252
518.18
516.985
515.672
514.263
512.781
511.26
509.737
508.252
506.827
505.455
504.089
502.653
501.049
499.171
496.925
494.25
491.131
487.591
483.672
479.411
474.823
469.902
464.624
458.964
452.9
446.433
439.593
432.449
425.12
417.771
410.606
403.848
397.718
392.424
388.142
385.015
383.151
382.599
383.386
385.466
388.666
392.753
397.534
402.75
408.106
413.401
418.393
422.829
426.599
429.654
431.99
433.642
434.728
435.585
436.597
437.956
439.676
441.666
443.82
445.989
447.874
449.184
449.877
450.171
450.27
450.204
449.848
449.188
448.348
447.425
446.446
445.408
444.308
443.167
442.022
440.895
439.806
438.771
437.661
436.335
434.564
432.03
428.247
422.478
414.867
404.898
392.629
380.634
369.693
358.273
346.665
335.669
325.783
317.418
310.777
305.929
302.947