/*--------------------------------*- C++ -*----------------------------------*\
  =========                 |
  \\      /  F ield         | OpenFOAM: The Open Source CFD Toolbox
   \\    /   O peration     | Website:  https://openfoam.org
    \\  /    A nd           | Version:  9
     \\/     M anipulation  |
\*---------------------------------------------------------------------------*/
FoamFile
{
    format      ascii;
    class       surfaceScalarField;
    location    "0.09";
    object      phi;
}
// * * * * * * * * * * * * * * * * * * * * * * * * * * * * * * * * * * * * * //

dimensions      [0 3 -1 0 0 0 0];

internalField   nonuniform List<scalar> 
24170
(
3.04297e-06
4.08744e-08
2.94995e-06
9.3018e-08
2.85799e-06
9.1966e-08
2.75802e-06
9.99695e-08
2.6616e-06
9.64159e-08
2.57929e-06
8.23081e-08
2.50551e-06
7.37873e-08
2.42756e-06
7.79457e-08
2.33852e-06
8.9043e-08
2.24274e-06
9.57827e-08
2.1513e-06
9.14391e-08
2.07126e-06
8.00323e-08
2.00071e-06
7.05523e-08
1.92991e-06
7.08059e-08
1.84957e-06
8.03331e-08
1.75663e-06
9.29448e-08
1.64263e-06
1.13993e-07
1.29489e-07
1.51315e-06
3.45215e-06
1.10868e-07
3.44679e-06
9.83723e-08
3.45777e-06
8.09936e-08
3.45943e-06
9.83096e-08
3.45246e-06
1.03386e-07
3.44182e-06
9.29452e-08
3.42933e-06
8.62719e-08
3.41369e-06
9.359e-08
3.39311e-06
1.09617e-07
3.36818e-06
1.20714e-07
3.34193e-06
1.17687e-07
3.31666e-06
1.05311e-07
3.29254e-06
9.46707e-08
3.26741e-06
9.59329e-08
3.23823e-06
1.09514e-07
3.20104e-06
1.30133e-07
3.15571e-06
1.5933e-07
1.86176e-07
3.09902e-06
3.74687e-06
9.89261e-08
3.68103e-06
1.6421e-07
3.675e-06
8.70273e-08
3.70354e-06
6.97645e-08
3.72621e-06
8.0721e-08
3.72801e-06
9.11416e-08
3.71733e-06
9.69488e-08
3.70786e-06
1.03063e-07
3.7047e-06
1.12776e-07
3.70429e-06
1.2113e-07
3.70034e-06
1.21631e-07
3.68981e-06
1.1584e-07
3.6734e-06
1.1108e-07
3.65531e-06
1.14026e-07
3.63827e-06
1.26554e-07
3.62296e-06
1.4544e-07
3.61197e-06
1.70325e-07
1.94908e-07
3.60324e-06
3.99295e-06
1.62473e-07
3.99154e-06
1.6562e-07
3.99303e-06
8.55419e-08
3.99463e-06
6.81586e-08
3.99445e-06
8.09027e-08
3.98381e-06
1.01785e-07
3.96006e-06
1.20696e-07
3.9324e-06
1.30723e-07
3.91233e-06
1.32845e-07
3.90282e-06
1.30639e-07
3.89838e-06
1.26078e-07
3.8924e-06
1.21814e-07
3.88236e-06
1.21127e-07
3.87013e-06
1.26252e-07
3.85918e-06
1.37506e-07
3.85168e-06
1.52937e-07
3.85097e-06
1.71038e-07
1.89912e-07
3.85597e-06
4.19323e-06
2.54498e-07
4.22818e-06
1.30667e-07
4.27533e-06
3.83962e-08
4.2924e-06
5.10835e-08
4.27136e-06
1.01943e-07
4.23366e-06
1.39483e-07
4.2011e-06
1.53255e-07
4.1836e-06
1.48222e-07
4.18041e-06
1.36033e-07
4.18472e-06
1.26335e-07
4.1879e-06
1.22893e-07
4.18381e-06
1.25908e-07
4.171e-06
1.33933e-07
4.15239e-06
1.4487e-07
4.13342e-06
1.56475e-07
4.11848e-06
1.67878e-07
4.11134e-06
1.78174e-07
1.88571e-07
4.11268e-06
4.58366e-06
2.58062e-07
4.50526e-06
2.0907e-07
4.46712e-06
7.65332e-08
4.46575e-06
5.24562e-08
4.48111e-06
8.65804e-08
4.4916e-06
1.28991e-07
4.49222e-06
1.52635e-07
4.48593e-06
1.54515e-07
4.47767e-06
1.44293e-07
4.4708e-06
1.33207e-07
4.46544e-06
1.28251e-07
4.45984e-06
1.31505e-07
4.45243e-06
1.4135e-07
4.44284e-06
1.54457e-07
4.43236e-06
1.66956e-07
4.42291e-06
1.77326e-07
4.41675e-06
1.84337e-07
1.89697e-07
4.41562e-06
4.80708e-06
1.67115e-07
4.85113e-06
1.65015e-07
4.84391e-06
8.37546e-08
4.83389e-06
6.24771e-08
4.8368e-06
8.36663e-08
4.85229e-06
1.13503e-07
4.87188e-06
1.33041e-07
4.88388e-06
1.42516e-07
4.87991e-06
1.48262e-07
4.86e-06
1.53116e-07
4.83143e-06
1.56824e-07
4.80345e-06
1.59482e-07
4.78256e-06
1.62239e-07
4.77104e-06
1.65984e-07
4.7672e-06
1.70798e-07
4.76869e-06
1.75832e-07
4.77201e-06
1.81014e-07
1.85464e-07
4.77625e-06
5.31611e-06
1.32315e-07
5.30761e-06
1.73516e-07
5.24351e-06
1.47853e-07
5.17718e-06
1.28806e-07
5.1511e-06
1.09747e-07
5.17048e-06
9.41174e-08
5.20593e-06
9.75899e-08
5.22571e-06
1.22744e-07
5.21935e-06
1.54621e-07
5.1972e-06
1.7527e-07
5.17602e-06
1.77995e-07
5.16686e-06
1.68644e-07
5.17115e-06
1.57955e-07
5.184e-06
1.53134e-07
5.19861e-06
1.56179e-07
5.20968e-06
1.64766e-07
5.21493e-06
1.75761e-07
1.86284e-07
5.21411e-06
5.54483e-06
1.60663e-07
5.55567e-06
1.62676e-07
5.56348e-06
1.40044e-07
5.5619e-06
1.30382e-07
5.55555e-06
1.16099e-07
5.54998e-06
9.96877e-08
5.54879e-06
9.87845e-08
5.55055e-06
1.2098e-07
5.55103e-06
1.54145e-07
5.54732e-06
1.78979e-07
5.539e-06
1.86316e-07
5.52715e-06
1.80487e-07
5.51354e-06
1.71565e-07
5.49965e-06
1.67026e-07
5.4874e-06
1.68426e-07
5.47793e-06
1.74236e-07
5.473e-06
1.80698e-07
1.86313e-07
5.47297e-06
5.76022e-06
1.31116e-07
5.85216e-06
7.07292e-08
5.92018e-06
7.20289e-08
5.94701e-06
1.03551e-07
5.92427e-06
1.38834e-07
5.88279e-06
1.41166e-07
5.85678e-06
1.24794e-07
5.85508e-06
1.22682e-07
5.86781e-06
1.41419e-07
5.88187e-06
1.64917e-07
5.89013e-06
1.7806e-07
5.89226e-06
1.78359e-07
5.89204e-06
1.71783e-07
5.89298e-06
1.66087e-07
5.89634e-06
1.65061e-07
5.90177e-06
1.68806e-07
5.90691e-06
1.7556e-07
1.82495e-07
5.91073e-06
6.53292e-06
2.6823e-08
6.50217e-06
1.01478e-07
6.47235e-06
1.01845e-07
6.41911e-06
1.56795e-07
6.35374e-06
2.04201e-07
6.30873e-06
1.86179e-07
6.2976e-06
1.35923e-07
6.3106e-06
1.09683e-07
6.32891e-06
1.23106e-07
6.33882e-06
1.55006e-07
6.33728e-06
1.796e-07
6.32946e-06
1.86185e-07
6.32254e-06
1.78696e-07
6.32071e-06
1.67924e-07
6.32368e-06
1.62088e-07
6.32788e-06
1.646e-07
6.32923e-06
1.74218e-07
1.86786e-07
6.32493e-06
5.82446e-06
6.1947e-08
5.83872e-06
8.72167e-08
5.84186e-06
9.87123e-08
5.82678e-06
1.71865e-07
5.79889e-06
2.32095e-07
5.76282e-06
2.2225e-07
5.73195e-06
1.66794e-07
5.71959e-06
1.2204e-07
5.72873e-06
1.13971e-07
5.7512e-06
1.32533e-07
5.77408e-06
1.5672e-07
5.78747e-06
1.72796e-07
5.78711e-06
1.79059e-07
5.7753e-06
1.79729e-07
5.75741e-06
1.79979e-07
5.73914e-06
1.82868e-07
5.72498e-06
1.88386e-07
1.96304e-07
5.71546e-06
7.02062e-06
-2.52482e-08
7.03888e-06
6.89525e-08
7.01353e-06
1.24069e-07
6.99764e-06
1.8775e-07
6.98571e-06
2.44023e-07
6.96593e-06
2.42036e-07
6.93736e-06
1.9536e-07
6.91326e-06
1.46142e-07
6.90792e-06
1.19311e-07
6.92508e-06
1.15371e-07
6.95761e-06
1.24192e-07
6.99398e-06
1.36422e-07
7.02453e-06
1.48511e-07
7.04559e-06
1.58672e-07
7.0588e-06
1.66769e-07
7.06885e-06
1.72818e-07
7.08053e-06
1.76708e-07
1.80754e-07
7.09608e-06
8.45713e-06
1.15797e-07
8.40294e-06
1.23147e-07
8.39943e-06
1.2758e-07
8.43351e-06
1.5367e-07
8.4855e-06
1.9203e-07
8.52552e-06
2.02022e-07
8.54158e-06
1.79294e-07
8.53908e-06
1.48642e-07
8.52755e-06
1.30845e-07
8.51406e-06
1.28859e-07
8.50272e-06
1.35536e-07
8.49529e-06
1.43853e-07
8.49292e-06
1.50881e-07
8.4964e-06
1.55189e-07
8.5065e-06
1.56662e-07
8.52267e-06
1.56649e-07
8.54334e-06
1.56045e-07
1.58835e-07
8.56526e-06
1.04672e-05
1.90256e-07
1.03128e-05
2.77543e-07
1.02776e-05
1.62762e-07
1.02969e-05
1.34364e-07
1.03292e-05
1.5976e-07
1.03385e-05
1.92707e-07
1.03115e-05
2.06219e-07
1.02636e-05
1.96628e-07
1.02226e-05
1.71769e-07
1.02087e-05
1.42752e-07
1.02245e-05
1.1978e-07
1.026e-05
1.08339e-07
1.03031e-05
1.078e-07
1.03452e-05
1.13069e-07
1.03826e-05
1.19273e-07
1.04141e-05
1.25138e-07
1.04394e-05
1.30757e-07
1.39724e-07
1.04585e-05
1.26753e-05
2.80762e-07
1.28202e-05
1.32649e-07
1.28665e-05
1.16439e-07
1.27964e-05
2.04543e-07
1.27055e-05
2.50584e-07
1.2658e-05
2.40227e-07
1.2661e-05
2.03284e-07
1.2697e-05
1.60557e-07
1.27451e-05
1.23662e-07
1.27921e-05
9.58255e-08
1.28296e-05
8.22317e-08
1.28519e-05
8.60339e-08
1.28565e-05
1.03173e-07
1.28455e-05
1.24122e-07
1.28255e-05
1.39234e-07
1.28039e-05
1.4675e-07
1.27878e-05
1.46921e-07
1.48143e-07
1.27793e-05
1.51524e-05
1.2152e-07
1.52504e-05
3.45978e-08
1.52458e-05
1.21088e-07
1.52249e-05
2.25404e-07
1.52467e-05
2.2882e-07
1.53259e-05
1.61018e-07
1.54327e-05
9.6531e-08
1.55256e-05
6.7603e-08
1.55823e-05
6.69402e-08
1.55973e-05
8.08614e-08
1.55754e-05
1.04142e-07
1.55286e-05
1.328e-07
1.54715e-05
1.60347e-07
1.54162e-05
1.7934e-07
1.53719e-05
1.83523e-07
1.53439e-05
1.74827e-07
1.53348e-05
1.55989e-07
1.37143e-07
1.53458e-05
1.88287e-05
1.37233e-07
1.86357e-05
2.27549e-07
1.85938e-05
1.63054e-07
1.87292e-05
8.99624e-08
1.88813e-05
7.67572e-08
1.89516e-05
9.06484e-08
1.89314e-05
1.16759e-07
1.88681e-05
1.3087e-07
1.88097e-05
1.25351e-07
1.87804e-05
1.10189e-07
1.87848e-05
9.97399e-08
1.88156e-05
1.01983e-07
1.88608e-05
1.15164e-07
1.89082e-05
1.31894e-07
1.89474e-05
1.44366e-07
1.89729e-05
1.4934e-07
1.89817e-05
1.47192e-07
1.4187e-07
1.8977e-05
2.26619e-05
1.00025e-07
2.27509e-05
1.38587e-07
2.28555e-05
5.83781e-08
2.29447e-05
8.27786e-10
2.2969e-05
5.24255e-08
2.2912e-05
1.47641e-07
2.28242e-05
2.04579e-07
2.27521e-05
2.02931e-07
2.2717e-05
1.60455e-07
2.27199e-05
1.07346e-07
2.27548e-05
6.48266e-08
2.28161e-05
4.06376e-08
2.28975e-05
3.38173e-08
2.29904e-05
3.89743e-08
2.30833e-05
5.15096e-08
2.31648e-05
6.77961e-08
2.32255e-05
8.64449e-08
1.06712e-07
2.32607e-05
1.64842e-05
3.59856e-08
1.66177e-05
5.12007e-09
1.66875e-05
-1.14544e-08
1.66944e-05
-6.04492e-09
1.67141e-05
3.27395e-08
1.67661e-05
9.56733e-08
1.68337e-05
1.36912e-07
1.69054e-05
1.31299e-07
1.69682e-05
9.75941e-08
1.70122e-05
6.33992e-08
1.70331e-05
4.38594e-08
1.7035e-05
3.87268e-08
1.70269e-05
4.19512e-08
1.70188e-05
4.71233e-08
1.70185e-05
5.17378e-08
1.70293e-05
5.70007e-08
1.70521e-05
6.36938e-08
7.54141e-08
1.70834e-05
1.45268e-05
1.54485e-07
1.44685e-05
6.34811e-08
1.44237e-05
3.33297e-08
1.44359e-05
-1.83125e-08
1.44962e-05
-2.75e-08
1.45742e-05
1.76102e-08
1.46309e-05
8.02088e-08
1.46453e-05
1.16897e-07
1.46272e-05
1.15759e-07
1.45965e-05
9.41262e-08
1.45694e-05
7.08647e-08
1.45538e-05
5.43779e-08
1.45495e-05
4.62232e-08
1.45523e-05
4.43434e-08
1.45588e-05
4.52039e-08
1.45682e-05
4.75943e-08
1.4582e-05
4.99802e-08
5.42851e-08
1.46031e-05
1.27454e-05
-1.54974e-09
1.27895e-05
1.93446e-08
1.27369e-05
8.59755e-08
1.26809e-05
3.76451e-08
1.26708e-05
-1.74026e-08
1.27068e-05
-1.83923e-08
1.2766e-05
2.10234e-08
1.28111e-05
7.18292e-08
1.28228e-05
1.03999e-07
1.28086e-05
1.0832e-07
1.27904e-05
8.90882e-08
1.27871e-05
5.76525e-08
1.2807e-05
2.63322e-08
1.28465e-05
4.8375e-09
1.28961e-05
-4.40166e-09
1.29437e-05
9.0855e-12
1.2981e-05
1.27391e-08
2.98992e-08
1.30054e-05
1.07306e-05
6.50053e-08
1.07599e-05
-9.92858e-09
1.08369e-05
8.93735e-09
1.08768e-05
-2.29463e-09
1.08794e-05
-1.99684e-08
1.08906e-05
-2.96289e-08
1.09391e-05
-2.74133e-08
1.10156e-05
-4.66966e-09
1.10953e-05
2.42438e-08
1.11608e-05
4.28323e-08
1.12117e-05
3.82502e-08
1.12545e-05
1.47912e-08
1.12927e-05
-1.18746e-08
1.13252e-05
-2.76006e-08
1.1345e-05
-2.4201e-08
1.13482e-05
-3.18013e-09
1.13317e-05
2.92088e-08
6.06624e-08
1.13009e-05
9.69118e-06
-1.73306e-08
9.69393e-06
-1.26696e-08
9.68433e-06
1.85367e-08
9.67193e-06
1.00998e-08
9.6637e-06
-1.17361e-08
9.65492e-06
-2.08515e-08
9.64126e-06
-1.37553e-08
9.64123e-06
-4.63178e-09
9.67157e-06
-6.09615e-09
9.73604e-06
-2.16436e-08
9.81674e-06
-4.24511e-08
9.88775e-06
-5.62112e-08
9.92913e-06
-5.32576e-08
9.93252e-06
-3.09915e-08
9.9042e-06
4.12212e-09
9.858e-06
4.30178e-08
9.81059e-06
7.66166e-08
9.72094e-08
9.77404e-06
7.98066e-06
-1.78786e-07
8.11952e-06
-1.51527e-07
8.20623e-06
-6.81761e-08
8.23619e-06
-1.98597e-08
8.24909e-06
-2.46379e-08
8.2721e-06
-4.38591e-08
8.31258e-06
-5.42396e-08
8.36633e-06
-5.83822e-08
8.42293e-06
-6.26933e-08
8.46763e-06
-6.63391e-08
8.48859e-06
-6.34209e-08
8.48147e-06
-4.90819e-08
8.45229e-06
-2.40795e-08
8.41423e-06
7.07072e-09
8.3829e-06
3.54467e-08
8.36968e-06
5.62355e-08
8.38002e-06
6.62751e-08
6.49172e-08
8.41232e-06
7.34928e-06
-9.01304e-08
7.32005e-06
-1.22293e-07
7.34177e-06
-8.98959e-08
7.36293e-06
-4.10242e-08
7.35684e-06
-1.85488e-08
7.33287e-06
-1.9883e-08
7.30888e-06
-3.02533e-08
7.29257e-06
-4.20703e-08
7.28342e-06
-5.35452e-08
7.27914e-06
-6.20579e-08
7.2797e-06
-6.39807e-08
7.28725e-06
-5.66322e-08
7.30392e-06
-4.07471e-08
7.33114e-06
-2.01504e-08
7.36731e-06
-7.25142e-10
7.41018e-06
1.33669e-08
7.45553e-06
2.09177e-08
2.19833e-08
7.49847e-06
6.33338e-06
1.42572e-08
6.27737e-06
-6.62791e-08
6.29717e-06
-1.09696e-07
6.34552e-06
-8.93795e-08
6.37307e-06
-4.6094e-08
6.36751e-06
-1.43285e-08
6.3486e-06
-1.13354e-08
6.33427e-06
-2.77442e-08
6.3287e-06
-4.79731e-08
6.32835e-06
-6.17135e-08
6.32897e-06
-6.45961e-08
6.32952e-06
-5.71783e-08
6.33235e-06
-4.35844e-08
6.3414e-06
-2.91961e-08
6.35924e-06
-1.85625e-08
6.3858e-06
-1.31937e-08
6.41916e-06
-1.24491e-08
-1.42501e-08
6.4554e-06
5.41394e-06
-6.29247e-08
5.44145e-06
-9.37892e-08
5.44811e-06
-1.16364e-07
5.47746e-06
-1.18725e-07
5.51681e-06
-8.54435e-08
5.54835e-06
-4.58728e-08
5.56235e-06
-2.53346e-08
5.55946e-06
-2.48495e-08
5.54801e-06
-3.65271e-08
5.5391e-06
-5.28014e-08
5.54055e-06
-6.60444e-08
5.55443e-06
-7.10632e-08
5.57826e-06
-6.74134e-08
5.60764e-06
-5.85709e-08
5.63785e-06
-4.87797e-08
5.66528e-06
-4.06185e-08
5.68757e-06
-3.47367e-08
-3.0678e-08
5.70399e-06
4.94307e-06
-1.13674e-08
4.9234e-06
-7.41247e-08
4.89655e-06
-8.95133e-08
4.86524e-06
-8.74107e-08
4.8582e-06
-7.84044e-08
4.87795e-06
-6.56246e-08
4.90332e-06
-5.07059e-08
4.91956e-06
-4.10833e-08
4.92542e-06
-4.23941e-08
4.92479e-06
-5.21712e-08
4.92021e-06
-6.14654e-08
4.91278e-06
-6.36252e-08
4.90402e-06
-5.86566e-08
4.89602e-06
-5.05749e-08
4.89016e-06
-4.29193e-08
4.88674e-06
-3.71956e-08
4.88516e-06
-3.31583e-08
-3.00256e-08
4.88451e-06
4.09777e-06
4.02364e-06
3.93413e-06
3.84672e-06
3.76832e-06
3.70269e-06
3.65199e-06
3.6109e-06
3.56851e-06
3.51634e-06
3.45487e-06
3.39125e-06
3.33259e-06
3.28202e-06
3.2391e-06
3.2019e-06
3.16874e-06
3.13872e-06
-2.44805e-07
2.44805e-07
-4.68839e-07
2.24034e-07
-6.38695e-07
1.69856e-07
-7.24638e-07
8.59435e-08
-7.05712e-07
-1.89259e-08
-5.97597e-07
-1.08116e-07
-4.20196e-07
-1.774e-07
-2.05784e-07
-2.14412e-07
2.16858e-08
-2.2747e-07
2.05212e-07
-1.83526e-07
2.93606e-07
-8.83948e-08
3.50098e-07
-5.64921e-08
4.73489e-07
-1.2339e-07
6.19706e-07
-1.46218e-07
7.36174e-07
-1.16468e-07
8.93892e-07
-1.57718e-07
1.14744e-06
-2.53548e-07
1.46142e-06
-3.13976e-07
1.77801e-06
-3.16594e-07
2.05212e-06
-2.74105e-07
2.2655e-06
-2.13384e-07
2.43094e-06
-1.65442e-07
2.57208e-06
-1.41139e-07
2.70259e-06
-1.30509e-07
2.82088e-06
-1.18293e-07
2.90476e-06
-8.38823e-08
2.91817e-06
-1.34092e-08
2.8261e-06
9.20772e-08
2.65322e-06
1.72879e-07
2.46495e-06
1.88265e-07
2.31095e-06
1.54006e-07
2.15795e-06
1.52992e-07
1.9234e-06
2.34556e-07
1.57638e-06
3.47014e-07
1.11107e-06
4.65314e-07
4.2386e-07
6.87211e-07
-4.98601e-07
9.22461e-07
-1.40752e-06
9.08916e-07
-2.2734e-06
8.65885e-07
-3.09569e-06
8.22283e-07
-3.87205e-06
7.76361e-07
-4.60975e-06
7.377e-07
-5.31617e-06
7.06428e-07
-5.99743e-06
6.81251e-07
-6.65896e-06
6.61539e-07
-7.3045e-06
6.45535e-07
-7.93406e-06
6.29563e-07
-8.54468e-06
6.10615e-07
-9.12917e-06
5.84488e-07
-9.6772e-06
5.48038e-07
-1.01758e-05
4.98592e-07
-1.06112e-05
4.35374e-07
-1.097e-05
3.58855e-07
-1.12406e-05
2.70539e-07
-1.14136e-05
1.73011e-07
-1.14837e-05
7.01657e-08
-1.14525e-05
-3.12874e-08
-1.13258e-05
-1.26629e-07
-1.11073e-05
-2.1851e-07
-1.08035e-05
-3.03811e-07
-1.04223e-05
-3.81226e-07
-9.97176e-06
-4.50513e-07
-9.46103e-06
-5.10736e-07
-8.89873e-06
-5.62295e-07
-8.29252e-06
-6.06212e-07
-7.6478e-06
-6.44718e-07
-6.96683e-06
-6.80978e-07
-6.24789e-06
-7.18932e-07
-5.4849e-06
-7.62997e-07
-4.66778e-06
-8.17117e-07
-3.7847e-06
-8.83078e-07
-2.82705e-06
-9.57647e-07
-1.79863e-06
-1.02842e-06
-7.25921e-07
-1.07271e-06
3.36289e-07
-1.06221e-06
1.27841e-06
-9.42121e-07
1.94849e-06
-6.70075e-07
2.19797e-06
-2.49481e-07
1.90814e-06
2.8983e-07
1.10207e-06
8.06071e-07
-3.81695e-08
1.14024e-06
-9.0918e-07
8.7101e-07
-1.4207e-06
5.11519e-07
-1.59278e-06
1.72078e-07
-1.2375e-06
-3.55272e-07
-6.79449e-07
-5.58054e-07
-2.17644e-07
-4.61805e-07
1.12266e-07
-3.2991e-07
3.48558e-07
-2.36292e-07
4.95187e-07
-1.46628e-07
5.93107e-07
-9.79201e-08
6.8699e-07
-9.38835e-08
8.13347e-07
-1.26357e-07
9.87801e-07
-1.74454e-07
1.21943e-06
-2.31631e-07
1.5047e-06
-2.85264e-07
1.84256e-06
-3.3786e-07
2.19973e-06
-3.57174e-07
2.55921e-06
-3.59481e-07
2.88098e-06
-3.21765e-07
3.04008e-06
-1.59098e-07
2.9579e-06
8.21794e-08
2.64457e-06
3.13329e-07
2.05674e-06
5.87829e-07
1.48873e-06
5.68008e-07
1.70381e-06
-2.15083e-07
1.69429e-06
9.52334e-09
6.73498e-08
1.62694e-06
-3.06961e-06
3.13696e-06
-5.96741e-06
2.8978e-06
-8.3328e-06
2.36539e-06
-1.01794e-05
1.84661e-06
-1.15719e-05
1.39254e-06
-1.25807e-05
1.00877e-06
-1.32646e-05
6.83873e-07
-1.36676e-05
4.03029e-07
-1.38193e-05
1.51666e-07
-1.37482e-05
-7.11128e-08
-1.34792e-05
-2.68971e-07
-1.30241e-05
-4.55103e-07
-1.23993e-05
-6.24783e-07
-1.1631e-05
-7.68263e-07
-1.07522e-05
-8.78848e-07
-9.80087e-06
-9.51331e-07
-8.81316e-06
-9.87708e-07
-7.81858e-06
-9.94575e-07
-6.83606e-06
-9.82522e-07
-5.87339e-06
-9.62666e-07
-4.9272e-06
-9.46197e-07
-3.98881e-06
-9.38386e-07
-3.05492e-06
-9.33895e-07
-2.13276e-06
-9.22157e-07
-1.24761e-06
-8.85152e-07
-4.39589e-07
-8.08017e-07
2.62614e-07
-7.02204e-07
8.57409e-07
-5.94795e-07
1.34378e-06
-4.86366e-07
1.74664e-06
-4.02861e-07
2.09531e-06
-3.48669e-07
2.41781e-06
-3.22507e-07
2.73833e-06
-3.20518e-07
3.07373e-06
-3.35395e-07
3.4341e-06
-3.60372e-07
3.82431e-06
-3.90211e-07
4.24524e-06
-4.20933e-07
4.69358e-06
-4.48338e-07
5.16085e-06
-4.67275e-07
5.63419e-06
-4.7334e-07
6.09652e-06
-4.62322e-07
6.52757e-06
-4.31049e-07
6.90769e-06
-3.80126e-07
7.21846e-06
-3.10765e-07
7.44558e-06
-2.27122e-07
7.57698e-06
-1.31399e-07
7.59807e-06
-2.10917e-08
7.49337e-06
1.04696e-07
7.2579e-06
2.35477e-07
6.92106e-06
3.36836e-07
6.51501e-06
4.06051e-07
6.04438e-06
4.70624e-07
5.53285e-06
5.11532e-07
4.89145e-06
6.41406e-07
3.93007e-06
9.61375e-07
2.77388e-06
1.15619e-06
1.8276e-06
9.46272e-07
1.30768e-06
5.19929e-07
1.17169e-06
1.35989e-07
1.25776e-06
-8.60739e-08
1.42096e-06
-1.63195e-07
1.56802e-06
-1.47068e-07
1.65898e-06
-9.09558e-08
1.69965e-06
-4.06654e-08
1.71288e-06
-1.32393e-08
1.71898e-06
-6.09464e-09
1.71669e-06
2.29024e-09
1.70793e-06
8.75786e-09
1.67236e-06
3.55755e-08
1.63475e-06
3.76043e-08
1.53994e-06
9.48087e-08
1.00874e-07
1.43907e-06
-1.312e-07
3.76005e-07
-2.70914e-07
3.63748e-07
-3.68299e-07
2.67241e-07
-3.95089e-07
1.12734e-07
-3.43552e-07
-7.04627e-08
-2.14447e-07
-2.37221e-07
-2.27282e-08
-3.69119e-07
1.99817e-07
-4.36958e-07
4.24372e-07
-4.52025e-07
6.48673e-07
-4.07827e-07
8.38704e-07
-2.78426e-07
9.33612e-07
-1.514e-07
9.80655e-07
-1.70433e-07
1.01483e-06
-1.80397e-07
1.01355e-06
-1.15188e-07
1.03427e-06
-1.78431e-07
1.11777e-06
-3.37051e-07
1.22344e-06
-4.19641e-07
1.34626e-06
-4.39418e-07
1.48432e-06
-4.12166e-07
1.61696e-06
-3.46029e-07
1.73521e-06
-2.83686e-07
1.82861e-06
-2.34542e-07
1.87694e-06
-1.78841e-07
1.86991e-06
-1.11262e-07
1.82258e-06
-3.65489e-08
1.7572e-06
5.19684e-08
1.68078e-06
1.68499e-07
1.54073e-06
3.12926e-07
1.26817e-06
4.60832e-07
8.19661e-07
6.02511e-07
1.79844e-07
7.92809e-07
-6.40649e-07
1.05505e-06
-1.57533e-06
1.28169e-06
-2.53188e-06
1.42186e-06
-3.3644e-06
1.51974e-06
-4.01487e-06
1.57293e-06
-4.64543e-06
1.53948e-06
-5.26876e-06
1.48922e-06
-5.86812e-06
1.42164e-06
-6.45195e-06
1.36019e-06
-7.02048e-06
1.30623e-06
-7.57728e-06
1.26323e-06
-8.12533e-06
1.2293e-06
-8.66576e-06
1.20197e-06
-9.19641e-06
1.17619e-06
-9.71296e-06
1.14611e-06
-1.0208e-05
1.10565e-06
-1.06723e-05
1.04879e-06
-1.10951e-05
9.7087e-07
-1.14658e-05
8.69244e-07
-1.17745e-05
7.44099e-07
-1.20133e-05
5.97694e-07
-1.21768e-05
4.34034e-07
-1.22627e-05
2.58826e-07
-1.22694e-05
7.6961e-08
-1.21932e-05
-1.0749e-07
-1.20332e-05
-2.86629e-07
-1.17923e-05
-4.59458e-07
-1.14748e-05
-6.21283e-07
-1.10875e-05
-7.68533e-07
-1.06393e-05
-8.9877e-07
-1.01392e-05
-1.01081e-06
-9.59673e-06
-1.10476e-06
-9.02033e-06
-1.18261e-06
-8.41665e-06
-1.2484e-06
-7.78928e-06
-1.30835e-06
-7.13782e-06
-1.37039e-06
-6.45748e-06
-1.44333e-06
-5.73939e-06
-1.53521e-06
-4.9715e-06
-1.65096e-06
-4.14012e-06
-1.78903e-06
-3.2333e-06
-1.93525e-06
-2.25474e-06
-2.05127e-06
-1.25578e-06
-2.06117e-06
-3.24334e-07
-1.87357e-06
4.11778e-07
-1.40619e-06
8.1161e-07
-6.49314e-07
8.07735e-07
2.93705e-07
4.08161e-07
1.20565e-06
-4.21706e-07
1.9701e-06
-1.25448e-06
1.70379e-06
-1.74206e-06
9.99098e-07
-1.84894e-06
2.78953e-07
-1.66617e-06
-5.38041e-07
-1.29036e-06
-9.33867e-07
-9.05335e-07
-8.46828e-07
-6.15148e-07
-6.20097e-07
-4.04255e-07
-4.47185e-07
-2.4115e-07
-3.09734e-07
-1.07943e-07
-2.31127e-07
3.80816e-08
-2.39908e-07
2.27316e-07
-3.15592e-07
4.77973e-07
-4.25111e-07
7.9121e-07
-5.44868e-07
1.16651e-06
-6.60561e-07
1.57104e-06
-7.42393e-07
1.98945e-06
-7.75581e-07
2.42844e-06
-7.98474e-07
2.8014e-06
-6.9473e-07
2.96313e-06
-3.20828e-07
2.89193e-06
1.53389e-07
2.70286e-06
5.02393e-07
2.25696e-06
1.03372e-06
2.05655e-06
7.6842e-07
1.04095e-06
8.00523e-07
-1.67061e-06
2.72108e-06
-4.75318e-06
4.7095e-06
-7.0039e-06
5.38768e-06
-8.763e-06
4.65691e-06
-1.01795e-05
3.78187e-06
-1.12756e-05
2.94272e-06
-1.21073e-05
2.22428e-06
-1.27152e-05
1.61666e-06
-1.31249e-05
1.09354e-06
-1.33544e-05
6.32566e-07
-1.34105e-05
2.07694e-07
-1.32914e-05
-1.90152e-07
-1.29919e-05
-5.68459e-07
-1.25157e-05
-9.31301e-07
-1.18749e-05
-1.26562e-06
-1.1093e-05
-1.55016e-06
-1.02052e-05
-1.76667e-06
-9.2508e-06
-1.90572e-06
-8.26766e-06
-1.97085e-06
-7.28507e-06
-1.97717e-06
-6.32044e-06
-1.94714e-06
-5.37975e-06
-1.90336e-06
-4.45744e-06
-1.8685e-06
-3.54117e-06
-1.85466e-06
-2.61989e-06
-1.85518e-06
-1.69393e-06
-1.84812e-06
-7.91462e-07
-1.78762e-06
3.78535e-08
-1.63733e-06
7.69435e-07
-1.43378e-06
1.36925e-06
-1.19461e-06
1.85615e-06
-9.73261e-07
2.25722e-06
-8.03932e-07
2.60502e-06
-6.96474e-07
2.92935e-06
-6.46836e-07
3.25354e-06
-6.44702e-07
3.59349e-06
-6.75344e-07
3.9589e-06
-7.25781e-07
4.35514e-06
-7.86459e-07
4.78394e-06
-8.49734e-07
5.24295e-06
-9.07344e-07
5.7255e-06
-9.49829e-07
6.2195e-06
-9.67339e-07
6.70845e-06
-9.51272e-07
7.17408e-06
-8.96675e-07
7.59721e-06
-8.03258e-07
7.96186e-06
-6.75411e-07
8.25534e-06
-5.20605e-07
8.46478e-06
-3.40834e-07
8.58598e-06
-1.42299e-07
8.62988e-06
6.07965e-08
8.58055e-06
2.84816e-07
8.37301e-06
5.4437e-07
7.997e-06
7.82064e-07
7.53485e-06
9.32775e-07
7.07997e-06
9.66414e-07
6.71768e-06
1.00369e-06
6.42163e-06
1.25742e-06
6.03421e-06
1.54361e-06
5.50448e-06
1.47601e-06
4.95958e-06
1.06482e-06
4.50739e-06
5.88179e-07
4.19212e-06
2.29201e-07
3.99538e-06
3.35459e-08
3.84251e-06
5.79637e-09
3.66113e-06
9.04286e-08
3.44936e-06
1.71107e-07
3.25468e-06
1.81431e-07
3.11563e-06
1.32957e-07
3.02338e-06
9.4548e-08
2.95859e-06
7.35389e-08
2.90059e-06
9.35756e-08
2.84053e-06
9.76723e-08
2.77957e-06
1.55768e-07
1.62746e-07
2.7177e-06
1.22789e-07
2.53216e-07
1.74626e-07
3.11911e-07
2.19933e-07
2.21933e-07
3.09546e-07
2.31212e-08
4.57849e-07
-2.18766e-07
6.4414e-07
-4.23513e-07
8.36429e-07
-5.61408e-07
1.01922e-06
-6.19747e-07
1.18033e-06
-6.13135e-07
1.33582e-06
-5.63321e-07
1.52221e-06
-4.64816e-07
1.70813e-06
-3.37318e-07
1.79283e-06
-2.55132e-07
1.77089e-06
-1.58458e-07
1.63091e-06
2.47974e-08
1.38228e-06
7.01973e-08
1.1228e-06
-7.75779e-08
9.38667e-07
-2.35504e-07
8.19043e-07
-3.19793e-07
7.34478e-07
-3.27601e-07
6.74488e-07
-2.86039e-07
6.09995e-07
-2.19193e-07
5.15074e-07
-1.39621e-07
3.85334e-07
-4.91009e-08
2.21395e-07
5.26762e-08
1.5936e-08
1.6891e-07
-2.40817e-07
3.08722e-07
-5.68454e-07
4.96136e-07
-9.88986e-07
7.33458e-07
-1.5246e-06
9.96447e-07
-2.17265e-06
1.25056e-06
-2.86179e-06
1.48194e-06
-3.48413e-06
1.67739e-06
-4.02249e-06
1.82005e-06
-4.50731e-06
1.90669e-06
-4.9318e-06
1.94423e-06
-5.29354e-06
1.93467e-06
-5.65327e-06
1.89921e-06
-6.02418e-06
1.86013e-06
-6.42009e-06
1.81755e-06
-6.84311e-06
1.78321e-06
-7.29237e-06
1.7555e-06
-7.76553e-06
1.73638e-06
-8.25873e-06
1.72249e-06
-8.76638e-06
1.70963e-06
-9.2808e-06
1.6906e-06
-9.7921e-06
1.65741e-06
-1.02879e-05
1.60143e-06
-1.07542e-05
1.51509e-06
-1.11766e-05
1.39327e-06
-1.15419e-05
1.23455e-06
-1.18392e-05
1.04144e-06
-1.2061e-05
8.19436e-07
-1.22027e-05
5.75804e-07
-1.22618e-05
3.17904e-07
-1.2237e-05
5.21779e-08
-1.21342e-05
-2.10296e-07
-1.19557e-05
-4.65141e-07
-1.17065e-05
-7.08683e-07
-1.13914e-05
-9.3635e-07
-1.1016e-05
-1.14397e-06
-1.05868e-05
-1.32801e-06
-1.01116e-05
-1.48595e-06
-9.59952e-06
-1.61685e-06
-9.06013e-06
-1.722e-06
-8.50295e-06
-1.80558e-06
-7.93631e-06
-1.87499e-06
-7.36607e-06
-1.94063e-06
-6.79457e-06
-2.01484e-06
-6.21976e-06
-2.11002e-06
-5.63433e-06
-2.23639e-06
-5.02453e-06
-2.39883e-06
-4.3705e-06
-2.58928e-06
-3.65225e-06
-2.76952e-06
-2.86525e-06
-2.84817e-06
-2.05631e-06
-2.68251e-06
-1.33165e-06
-2.13085e-06
-8.05752e-07
-1.17521e-06
-5.80496e-07
6.84489e-08
-6.6457e-07
1.28972e-06
-1.04916e-06
2.35469e-06
-1.54083e-06
2.19545e-06
-1.85026e-06
1.30853e-06
-1.92433e-06
3.53022e-07
-1.79974e-06
-6.62636e-07
-1.53429e-06
-1.19932e-06
-1.19818e-06
-1.18293e-06
-9.34004e-07
-8.84277e-07
-7.45479e-07
-6.3571e-07
-5.597e-07
-4.95513e-07
-3.39627e-07
-4.512e-07
-7.40685e-08
-5.05466e-07
2.34815e-07
-6.24475e-07
5.83747e-07
-7.74044e-07
9.67668e-07
-9.28789e-07
1.37986e-06
-1.07276e-06
1.79746e-06
-1.15999e-06
2.25078e-06
-1.2289e-06
2.73363e-06
-1.28132e-06
3.11466e-06
-1.07576e-06
3.19687e-06
-4.03045e-07
2.9353e-06
4.14959e-07
2.39445e-06
1.04324e-06
1.81143e-06
1.61674e-06
8.9631e-07
1.68354e-06
-1.41886e-06
3.1157e-06
-4.29379e-06
5.59601e-06
-6.49225e-06
6.90797e-06
-7.74969e-06
6.64512e-06
-8.75756e-06
5.66477e-06
-9.68891e-06
4.71322e-06
-1.05334e-05
3.78717e-06
-1.1255e-05
2.94589e-06
-1.18192e-05
2.18092e-06
-1.22116e-05
1.48587e-06
-1.24275e-05
8.48456e-07
-1.24659e-05
2.46152e-07
-1.23336e-05
-3.22472e-07
-1.20272e-05
-8.74822e-07
-1.15479e-05
-1.41061e-06
-1.09048e-05
-1.90875e-06
-1.01203e-05
-2.33467e-06
-9.23214e-06
-2.65481e-06
-8.28554e-06
-2.85231e-06
-7.32377e-06
-2.93263e-06
-6.38026e-06
-2.92067e-06
-5.47363e-06
-2.85378e-06
-4.60966e-06
-2.76733e-06
-3.77855e-06
-2.69961e-06
-2.95892e-06
-2.6743e-06
-2.1242e-06
-2.6899e-06
-1.26193e-06
-2.71039e-06
-3.89677e-07
-2.65987e-06
4.47533e-07
-2.47454e-06
1.18714e-06
-2.1734e-06
1.79011e-06
-1.79758e-06
2.25977e-06
-1.44293e-06
2.62816e-06
-1.17232e-06
2.93789e-06
-1.00619e-06
3.22775e-06
-9.36705e-07
3.52528e-06
-9.42229e-07
3.84732e-06
-9.97378e-07
4.20278e-06
-1.08125e-06
4.59515e-06
-1.17883e-06
5.02392e-06
-1.2785e-06
5.48475e-06
-1.36817e-06
5.96878e-06
-1.43386e-06
6.46256e-06
-1.46111e-06
6.94919e-06
-1.43791e-06
7.41059e-06
-1.35807e-06
7.82923e-06
-1.22191e-06
8.18747e-06
-1.03365e-06
8.47382e-06
-8.06953e-07
8.69318e-06
-5.60196e-07
8.842e-06
-2.91122e-07
8.9022e-06
5.94514e-10
8.90897e-06
2.7805e-07
8.9076e-06
5.45736e-07
8.80663e-06
8.8304e-07
8.43391e-06
1.30549e-06
7.79464e-06
1.60568e-06
7.17056e-06
1.62777e-06
6.82817e-06
1.59981e-06
6.70148e-06
1.6703e-06
6.56455e-06
1.61295e-06
6.33143e-06
1.29793e-06
6.02258e-06
8.97034e-07
5.67143e-06
5.80346e-07
5.32076e-06
3.84217e-07
5.02745e-06
2.99115e-07
4.81663e-06
3.01243e-07
4.64693e-06
3.40803e-07
4.45583e-06
3.72532e-07
4.21453e-06
3.74266e-07
3.95692e-06
3.52155e-07
3.72784e-06
3.02621e-07
3.55518e-06
2.66227e-07
3.42203e-06
2.30826e-07
3.32843e-06
2.49367e-07
2.47165e-07
3.24401e-06
1.18903e-07
1.34313e-07
2.75668e-07
1.55145e-07
5.59077e-07
-6.14754e-08
9.1528e-07
-3.33082e-07
1.24705e-06
-5.50533e-07
1.50955e-06
-6.86017e-07
1.69501e-06
-7.46867e-07
1.82151e-06
-7.46242e-07
1.90794e-06
-6.99566e-07
1.94813e-06
-6.03511e-07
1.95845e-06
-4.75135e-07
1.9383e-06
-3.17176e-07
1.82855e-06
-1.45374e-07
1.68127e-06
-1.11827e-08
1.53437e-06
1.71699e-07
1.30873e-06
2.95834e-07
1.02471e-06
2.06441e-07
7.52345e-07
3.6866e-08
4.73279e-07
-4.07276e-08
1.73119e-07
-2.74415e-08
-1.20883e-07
7.96338e-09
-4.04047e-07
6.39711e-08
-6.80147e-07
1.36479e-07
-9.55906e-07
2.26658e-07
-1.25226e-06
3.49026e-07
-1.59619e-06
5.12843e-07
-2.00857e-06
7.21101e-07
-2.47482e-06
9.62393e-07
-2.95667e-06
1.2153e-06
-3.41879e-06
1.45857e-06
-3.84394e-06
1.67571e-06
-4.21504e-06
1.85304e-06
-4.51898e-06
1.98133e-06
-4.76466e-06
2.06573e-06
-4.97933e-06
2.12136e-06
-5.18708e-06
2.15198e-06
-5.41397e-06
2.16155e-06
-5.67626e-06
2.1615e-06
-5.97826e-06
2.16212e-06
-6.32635e-06
2.16564e-06
-6.71825e-06
2.17511e-06
-7.15191e-06
2.18915e-06
-7.62249e-06
2.20696e-06
-8.12316e-06
2.22317e-06
-8.64417e-06
2.23064e-06
-9.17247e-06
2.2189e-06
-9.69166e-06
2.17661e-06
-1.01833e-05
2.09303e-06
-1.06292e-05
1.96103e-06
-1.10147e-05
1.77875e-06
-1.133e-05
1.54987e-06
-1.15708e-05
1.28225e-06
-1.17372e-05
9.85815e-07
-1.18322e-05
6.708e-07
-1.18599e-05
3.45654e-07
-1.18187e-05
1.09431e-08
-1.17194e-05
-3.09645e-07
-1.15599e-05
-6.24611e-07
-1.13411e-05
-9.27454e-07
-1.1066e-05
-1.2115e-06
-1.07377e-05
-1.47221e-06
-1.03604e-05
-1.70535e-06
-9.93824e-06
-1.90809e-06
-9.47627e-06
-2.07882e-06
-8.98079e-06
-2.21748e-06
-8.45995e-06
-2.32642e-06
-7.924e-06
-2.41094e-06
-7.38495e-06
-2.47969e-06
-6.8555e-06
-2.54428e-06
-6.34769e-06
-2.61782e-06
-5.87119e-06
-2.71289e-06
-5.42994e-06
-2.84009e-06
-5.01532e-06
-3.0039e-06
-4.59628e-06
-3.18856e-06
-4.11866e-06
-3.32579e-06
-3.53735e-06
-3.26382e-06
-2.86787e-06
-2.80032e-06
-2.24561e-06
-1.79747e-06
-1.7987e-06
-3.78465e-07
-1.56158e-06
1.0526e-06
-1.46256e-06
2.25567e-06
-1.48345e-06
2.21634e-06
-1.44526e-06
1.27035e-06
-1.38624e-06
2.93999e-07
-1.26951e-06
-7.79365e-07
-1.08352e-06
-1.38531e-06
-8.14632e-07
-1.45181e-06
-5.64146e-07
-1.13476e-06
-3.72453e-07
-8.27402e-07
-1.91463e-07
-6.76503e-07
1.662e-08
-6.59283e-07
2.62958e-07
-7.51804e-07
5.55471e-07
-9.16989e-07
8.93915e-07
-1.11249e-06
1.26798e-06
-1.30286e-06
1.6642e-06
-1.46897e-06
2.09035e-06
-1.58615e-06
2.58335e-06
-1.7219e-06
3.13488e-06
-1.83285e-06
3.53743e-06
-1.47831e-06
3.53502e-06
-4.00633e-07
3.03362e-06
9.16358e-07
2.16711e-06
1.90975e-06
1.19316e-06
2.59069e-06
-4.82229e-07
3.35893e-06
-3.00773e-06
5.6412e-06
-5.21941e-06
7.80769e-06
-6.56431e-06
8.25287e-06
-7.3952e-06
7.47601e-06
-8.21418e-06
6.48375e-06
-9.01241e-06
5.51145e-06
-9.74482e-06
4.51958e-06
-1.03589e-05
3.55995e-06
-1.08274e-05
2.64943e-06
-1.11436e-05
1.80209e-06
-1.13069e-05
1.01173e-06
-1.13182e-05
2.57449e-07
-1.11798e-05
-4.60807e-07
-1.08834e-05
-1.17128e-06
-1.04189e-05
-1.87507e-06
-9.78646e-06
-2.54121e-06
-9.00329e-06
-3.11785e-06
-8.1085e-06
-3.5496e-06
-7.1537e-06
-3.80711e-06
-6.18941e-06
-3.89691e-06
-5.25624e-06
-3.85384e-06
-4.37888e-06
-3.73114e-06
-3.5717e-06