/*--------------------------------*- C++ -*----------------------------------*\
  =========                 |
  \\      /  F ield         | OpenFOAM: The Open Source CFD Toolbox
   \\    /   O peration     | Website:  https://openfoam.org
    \\  /    A nd           | Version:  9
     \\/     M anipulation  |
\*---------------------------------------------------------------------------*/
FoamFile
{
    format      ascii;
    class       volScalarField;
    location    "0.09";
    object      pMean;
}
// * * * * * * * * * * * * * * * * * * * * * * * * * * * * * * * * * * * * * //

dimensions      [0 2 -2 0 0 0 0];

internalField   nonuniform List<scalar> 
12225
(
-1.20676
-1.7817
-2.09347
-2.21784
-2.27493
-2.31705
-2.35413
-2.38218
-2.39673
-2.39504
-2.37673
-2.34006
-2.28656
-2.21339
-2.12936
-2.03893
-1.98413
-2.03051
-1.43735
-1.81177
-2.0961
-2.22804
-2.28657
-2.32714
-2.36343
-2.39162
-2.40695
-2.40641
-2.38998
-2.35593
-2.30673
-2.23924
-2.16519
-2.08568
-2.05187
-2.12783
-1.49495
-1.81666
-2.08859
-2.23109
-2.29484
-2.33524
-2.37105
-2.40003
-2.41687
-2.41875
-2.40536
-2.37707
-2.33493
-2.28161
-2.22321
-2.17666
-2.1735
-2.2752
-1.63808
-1.8667
-2.10045
-2.24367
-2.31155
-2.3511
-2.3852
-2.41408
-2.43254
-2.43709
-2.42788
-2.40539
-2.37245
-2.33227
-2.29353
-2.27201
-2.29262
-2.38689
-1.724
-1.90154
-2.10492
-2.24719
-2.32177
-2.36362
-2.39716
-2.42626
-2.44655
-2.45466
-2.4503
-2.43499
-2.41174
-2.38519
-2.36394
-2.36137
-2.39417
-2.47682
-1.82534
-1.956
-2.12663
-2.26184
-2.34034
-2.38434
-2.41736
-2.44626
-2.46813
-2.47956
-2.48019
-2.47193
-2.45828
-2.44441
-2.43794
-2.4491
-2.48873
-2.56493
-1.918
-2.00959
-2.1479
-2.27247
-2.3537
-2.40145
-2.43531
-2.46458
-2.4886
-2.50431
-2.51103
-2.51066
-2.50695
-2.50496
-2.51116
-2.5331
-2.57823
-2.6517
-1.98385
-2.06456
-2.18177
-2.29332
-2.37381
-2.42474
-2.46029
-2.49004
-2.51554
-2.53494
-2.5475
-2.55482
-2.56043
-2.56896
-2.58584
-2.61666
-2.66669
-2.7389
-2.06983
-2.12251
-2.21484
-2.31414
-2.39294
-2.44688
-2.48504
-2.51652
-2.5444
-2.56796
-2.58659
-2.60164
-2.61624
-2.63447
-2.66077
-2.69935
-2.75383
-2.82602
-2.13957
-2.18332
-2.25934
-2.3438
-2.41765
-2.47347
-2.51452
-2.54792
-2.57813
-2.6057
-2.63033
-2.65288
-2.67595
-2.70299
-2.7377
-2.78322
-2.84197
-2.91492
-2.18718
-2.23728
-2.30355
-2.37742
-2.44656
-2.50242
-2.5458
-2.58217
-2.61572
-2.64768
-2.67803
-2.70763
-2.73861
-2.77374
-2.81589
-2.86733
-2.92992
-3.0043
-2.28327
-2.29564
-2.34163
-2.4083
-2.47494
-2.53112
-2.57669
-2.61601
-2.65285
-2.68885
-2.72449
-2.76037
-2.79813
-2.84004
-2.88843
-2.94517
-3.01137
-3.08743
-2.35884
-2.35111
-2.38788
-2.44817
-2.51021
-2.5648
-2.61158
-2.65363
-2.69389
-2.7339
-2.77431
-2.81587
-2.85989
-2.90807
-2.96212
-3.02335
-3.09275
-3.17067
-2.37335
-2.39968
-2.43938
-2.49062
-2.54658
-2.60113
-2.65132
-2.69752
-2.742
-2.78674
-2.83275
-2.88065
-2.93138
-2.98612
-3.04614
-3.11246
-3.18572
-3.26614
-2.43795
-2.4718
-2.50766
-2.54895
-2.59771
-2.65034
-2.70241
-2.75254
-2.80173
-2.85165
-2.9034
-2.95768
-3.01515
-3.07655
-3.14265
-3.21406
-3.29118
-3.3741
-2.54642
-2.54752
-2.5668
-2.60481
-2.65448
-2.70869
-2.76317
-2.81686
-2.87078
-2.92629
-2.98434
-3.04533
-3.10959
-3.1775
-3.24956
-3.32614
-3.4075
-3.49367
-2.66551
-2.63858
-2.64085
-2.67257
-2.72137
-2.77626
-2.83254
-2.88985
-2.94905
-3.01086
-3.07561
-3.14339
-3.21437
-3.28872
-3.36668
-3.4483
-3.53383
-3.62303
-2.72303
-2.70622
-2.71193
-2.74376
-2.79259
-2.84919
-2.90934
-2.97175
-3.03647
-3.10397
-3.17465
-3.24851
-3.32551
-3.4056
-3.4888
-3.57505
-3.66429
-3.75638
-2.67823
-2.7127
-2.75742
-2.80603
-2.85951
-2.91928
-2.9842
-3.05293
-3.12473
-3.19942
-3.27698
-3.35741
-3.44057
-3.52629
-3.61444
-3.7049
-3.79755
-3.89229
-2.77032
-2.77921
-2.80628
-2.85035
-2.9068
-2.97176
-3.04213
-3.11555
-3.19133
-3.26974
-3.35113
-3.4354
-3.5222
-3.61114
-3.70199
-3.79458
-3.88879
-3.98438
-2.78865
-2.78171
-2.80631
-2.85957
-2.92827
-3.00137
-3.07563
-3.15187
-3.23105
-3.3134
-3.39861
-3.48611
-3.57551
-3.66655
-3.75907
-3.85289
-3.94791
-4.04394
-2.77904
-2.76983
-2.79893
-2.85941
-2.935
-3.0143
-3.09291
-3.1719
-3.25349
-3.33843
-3.42613
-3.51583
-3.60701
-3.69943
-3.793
-3.88764
-3.98317
-4.0793
-2.68582
-2.7321
-2.79364
-2.86648
-2.94557
-3.02617
-3.10667
-3.18846
-3.27301
-3.36043
-3.45007
-3.54123
-3.63349
-3.72674
-3.82089
-3.91582
-4.01136
-4.10741
-2.60814
-2.66477
-2.75048
-2.8447
-2.93522
-3.02016
-3.10306
-3.18748
-3.27495
-3.36509
-3.45683
-3.54945
-3.64278
-3.73684
-3.83159
-3.92693
-4.02263
-4.11836
-2.65931
-2.66894
-2.74408
-2.8487
-2.94673
-3.03213
-3.11354
-3.19809
-3.28695
-3.37841
-3.47083
-3.56376
-3.65724
-3.75138
-3.84613
-3.94131
-4.03669
-4.13216
-2.45793
-2.57261
-2.70847
-2.83147
-2.93183
-3.01779
-3.10169
-3.18969
-3.28157
-3.37507
-3.46882
-3.56262
-3.65677
-3.7515
-3.84673
-3.94223
-4.0378
-4.13322
-2.40541
-2.56033
-2.71859
-2.84395
-2.93849
-3.02087
-3.10511
-3.1948
-3.28778
-3.3815
-3.4751
-3.56882
-3.66301
-3.75774
-3.85282
-3.94803
-4.04317
-4.13794
-2.32648
-2.49228
-2.68738
-2.83083
-2.92675
-3.00893
-3.09559
-3.18803
-3.28262
-3.37714
-3.47129
-3.56548
-3.66004
-3.75498
-3.85014
-3.94532
-4.04042
-4.13549
-2.31272
-2.49887
-2.70005
-2.83589
-2.92686
-3.0089
-3.09655
-3.18947
-3.28414
-3.37865
-3.47285
-3.56712
-3.66177
-3.75673
-3.85189
-3.94683
-4.04156
-4.13566
-2.0437
-2.45863
-2.70448
-2.82992
-2.91743
-3.00194
-3.09164
-3.18535
-3.28035
-3.37515
-3.46965
-3.56415
-3.65898
-3.75399
-3.84914
-3.94388
-4.03825
-4.13126
-6.55416
-6.73919
-6.93017
-6.99732
-6.89835
-6.68306
-6.4679
-6.37372
-6.46784
-6.74939
-7.17955
-7.69442
-8.24813
-8.77243
-9.23906
-9.63568
-9.95639
-10.1919
-10.3361
-10.395
-10.388
-10.3243
-10.2203
-10.0985
-9.98927
-9.92795
-9.95269
-10.0657
-10.2332
-10.423
-10.6311
-10.8737
-11.157
-11.4513
-11.7228
-11.9625
-12.1771
-12.4521
-12.8556
-13.344
-13.8096
-14.2111
-14.5818
-14.9742
-15.4578
-15.9733
-16.4403
-16.8431
-17.1192
-17.2794
-17.4444
-17.5764
-17.6436
-17.6536
-17.598
-17.4499
-17.1902
-16.9292
-16.7287
-16.5806
-16.4445
-16.3142
-16.0823
-15.814
-15.6324
-15.5782
-15.6079
-15.6968
-15.8126
-15.9421
-16.0829
-16.258
-16.5044
-16.8699
-17.3603
-17.9109
-18.4303
-18.8297
-19.0217
-19.0168
-18.9034
-18.8026
-18.7034
-18.5255
-18.2452
-17.9457
-17.572
-17.1391
-16.749
-16.6723
-16.9158
-17.2559
-17.5325
-17.6696
-17.6352
-17.4259
-17.0469
-16.5044
-15.7891
-14.8696
-13.6882
-12.2139
-10.4623
-8.55979
-6.65626
-4.90321
-3.07443
-1.48473
-0.663402
-0.437444
-0.443124
-0.481705
-0.421847
-0.193097
0.251382
0.935722
1.87186
3.06025
4.49337
6.14958
7.99257
9.97051
12.0189
14.0646
16.0337
17.8613
19.4982
20.9131
22.0888
23.0168
23.6954
24.1296
24.3319
24.3253
24.1426
23.8233
23.4055
22.9192
22.391
21.8408
21.2836
20.7309
20.1918
19.6738
19.1839
18.7281
18.3117
17.9394
17.6149
17.3413
17.1207
16.9537
16.8394
16.7744
16.7527
16.7642
16.7963
16.8349
16.8658
16.8803
16.8808
16.8812
16.8881
16.89
16.898
16.9328
16.9785
17.0174
17.0485
17.078
17.107
17.138
17.1766
17.227
17.2861
17.3478
17.416
17.4944
17.6006
17.7143
-7.3719
-7.54686
-7.72497
-7.83099
-7.75986
-7.6019
-7.46264
-7.44581
-7.59838
-7.91023
-8.33394
-8.80601
-9.28128
-9.71879
-10.1006
-10.4232
-10.6791
-10.8649
-10.9801
-11.0396
-11.0334
-10.9763
-10.901
-10.814
-10.7229
-10.6768
-10.6834
-10.7615
-10.8879
-11.0643
-11.346
-11.7027
-12.0902
-12.4758
-12.8288
-13.1445
-13.4349
-13.7469
-14.1266
-14.5836
-15.041
-15.4367
-15.78
-16.1135
-16.5305
-16.978
-17.4327
-17.9279
-18.2564
-18.4671
-18.6696
-18.8159
-18.8748
-18.8415
-18.7116
-18.5336
-18.2751
-17.988
-17.74
-17.5217
-17.2971
-17.1249
-16.9608
-16.7795
-16.696
-16.7095
-16.795
-16.9238
-17.0674
-17.2092
-17.3472
-17.5174
-17.7624
-18.1148
-18.5747
-19.0885
-19.5909
-19.9795
-20.1498
-20.0899
-19.8612
-19.6149
-19.4156
-19.1831
-18.8503
-18.5073
-18.2139
-17.9565
-17.7534
-17.758
-17.9649
-18.2035
-18.3709
-18.4022
-18.2782
-17.9991
-17.5721
-17.0013
-16.2779
-15.3692
-14.2083
-12.7489
-10.9776
-9.02406
-6.98694
-5.2655
-3.71004
-2.41385
-1.73129
-1.45171
-1.3454
-1.25438
-1.08008
-0.758813
-0.243352
0.496845
1.4793
2.7067
4.16908
5.84693
7.70878
9.7064
11.7762
13.8448
15.8362
17.6831
19.335
20.7611
21.946
22.8833
23.572
24.0167
24.229
24.231
24.0532
23.7392
23.3256
22.8436
22.3195
21.7728
21.2186
20.6683
20.131
19.6143
19.1252
18.6695
18.2525
17.8789
17.5526
17.2766
17.0526
16.8812
16.761
16.6881
16.656
16.6549
16.6731
16.6985
16.721
16.7376
16.7549
16.7838
16.8149
16.8203
16.8236
16.86
16.9076
16.9473
16.9817
17.0157
17.0487
17.0818
17.1206
17.1683
17.2247
17.2856
17.3616
17.4403
17.5432
17.6101
-7.15289
-7.2408
-7.46908
-7.77147
-8.05934
-8.31121
-8.56184
-8.85475
-9.21458
-9.62957
-10.0571
-10.4508
-10.8126
-11.1536
-11.4371
-11.6593
-11.827
-11.9376
-12.0008
-12.0322
-12.0311
-11.9973
-11.9416
-11.8773
-11.811
-11.7698
-11.758
-11.7874
-11.8823
-12.0555
-12.3186
-12.6558
-13.042
-13.4506
-13.8591
-14.2455
-14.6414
-15.0826
-15.5575
-16.0471
-16.4877
-16.8488
-17.1239
-17.4261
-17.833
-18.2958
-18.7544
-19.2402
-19.6848
-20.0356
-20.2953
-20.4403
-20.4592
-20.3704
-20.2092
-19.9857
-19.7152
-19.4166
-19.1022
-18.7948
-18.533
-18.3459
-18.2577
-18.2454
-18.3128
-18.4451
-18.6212
-18.8135
-18.9933
-19.1433
-19.271
-19.4268
-19.6558
-19.9738
-20.3657
-20.788
-21.1842
-21.4632
-21.5321
-21.3965
-21.0762
-20.6725
-20.346
-20.0358
-19.7009
-19.416
-19.2741
-19.2299
-19.2522
-19.3347
-19.4485
-19.5327
-19.5442
-19.4453
-19.2206
-18.8658
-18.3863
-17.7858
-17.0572
-16.1654
-15.0311
-13.5991
-11.8539
-9.89339
-7.92455
-6.26532
-4.96009
-3.9903
-3.34738
-2.92332
-2.63325
-2.37402
-2.06685
-1.64166
-1.04655
-0.243467
0.788006
2.05169
3.54465
5.25288
7.14688
9.18012
11.29
13.4015
15.435
17.3192
19.0008
20.4493
21.6524
22.6075
23.3155
23.7802
24.0116
24.0286
23.8638
23.5613
23.1584
22.687
22.1727
21.6349
21.0881
20.5436
20.0105
19.4969
19.0098
18.5552
18.1387
17.765
17.4381
17.1609
16.935
16.7602
16.6354
16.5572
16.5192
16.5122
16.5257
16.5488
16.5732
16.5954
16.6169
16.6417
16.6683
16.6944
16.7282
16.771
16.8097
16.8409
16.8727
16.9093
16.9486
16.9903
17.0377
17.0907
17.1508
17.2106
17.2824
17.3482
17.4387
17.4826
-7.13084
-7.23323
-7.56691
-8.05982
-8.63491
-9.22504
-9.78892
-10.3244
-10.8313
-11.2986
-11.7105
-12.0559
-12.3386
-12.5572
-12.7104
-12.833
-12.9381
-13.0127
-13.0696
-13.1086
-13.1291
-13.1298
-13.113
-13.0869
-13.0646
-13.0517
-13.0598
-13.0927
-13.1602
-13.273
-13.4433
-13.6783
-13.978
-14.3286
-14.7125
-15.1313
-15.6125
-16.1735
-16.7838
-17.3732
-17.8859
-18.3137
-18.6549
-18.9948
-19.4077
-19.8948
-20.4155
-20.9226
-21.3721
-21.7333
-21.9851
-22.1226
-22.1482
-22.0801
-21.9434
-21.7354
-21.4581
-21.1227
-20.7557
-20.4028
-20.1316
-19.9984
-19.9957
-20.0889
-20.2607
-20.4905
-20.7528
-21.0158
-21.2446
-21.4174
-21.5464
-21.6821
-21.8713
-22.1215
-22.4183
-22.741
-23.0196
-23.1573
-23.0891
-22.8399
-22.3966
-21.8597
-21.4313
-21.1184
-20.8544
-20.6956
-20.6831
-20.7775
-20.8904
-20.9874
-21.0465
-21.0411
-20.9514
-20.7558
-20.4453
-20.0187
-19.4842
-18.8502
-18.1152
-17.2416
-16.1305
-14.7112
-12.9886
-11.086
-9.269
-7.77765
-6.66487
-5.80634
-5.14124
-4.62348
-4.20538
-3.81416
-3.38499
-2.85223
-2.16551
-1.28607
-0.193152
1.12112
2.6567
4.40416
6.33899
8.41901
10.5827
12.7526
14.8448
16.7819
18.5062
19.987
21.216
22.1954
22.9295
23.4216
23.6788
23.7177
23.573
23.2883
22.902
22.4468
21.9475
21.4227
20.8867
20.3509
19.8245
19.3161
18.8328
18.3812
17.967
17.5952
17.269
16.9913
16.764
16.5876
16.4606
16.3793
16.3376
16.3274
16.3395
16.3646
16.395
16.4266
16.4583
16.4904
16.5233
16.5544
16.5852
16.6202
16.6595
16.6908
16.7169
16.7493
16.7894
16.8347
16.8872
16.9443
17.01
17.0768
17.1566
17.2238
17.3043
17.3293
-7.34678
-7.59513
-8.14213
-8.85751
-9.62697
-10.3813
-11.0869
-11.7307
-12.3028
-12.7997
-13.2203
-13.5559
-13.8035
-13.9717
-14.0826
-14.1683
-14.2436
-14.3084
-14.3664
-14.421
-14.4653
-14.4976
-14.5229
-14.547
-14.5767
-14.6181
-14.6731
-14.7394
-14.8136
-14.8945
-14.989
-15.1135
-15.2894
-15.5314
-15.8488
-16.2528
-16.7608
-17.3701
-18.0305
-18.6776
-19.2617
-19.7826
-20.2552
-20.7189
-21.21
-21.7437
-22.3023
-22.8448
-23.3359
-23.7455
-24.0447
-24.2183
-24.264
-24.2014
-24.0554
-23.8278
-23.5216
-23.1525
-22.7575
-22.394
-22.1467
-22.0496
-22.0694
-22.1785
-22.3652
-22.6119
-22.8925
-23.1736
-23.4215
-23.6109
-23.7456
-23.8613
-23.9851
-24.1237
-24.2811
-24.4525
-24.5887
-24.6059
-24.4467
-24.1162
-23.6043
-23.0218
-22.5651
-22.2939
-22.1585
-22.1507
-22.2515
-22.4084
-22.5553
-22.6621
-22.7041
-22.66
-22.5143
-22.2541
-21.8763
-21.3865
-20.8002
-20.1368
-19.4039
-18.553
-17.4519
-16.0203
-14.3172
-12.5304
-10.9018
-9.60295
-8.59947
-7.76438
-7.07803
-6.51215
-6.01293
-5.5199
-4.97753
-4.33321
-3.54379
-2.57573
-1.40948
-0.0350921
1.55005
3.34174
5.32168
7.45366
9.67838
11.9162
14.0779
16.0796
17.8578
19.3806
20.6428
21.652
22.4167
22.9409
23.2281
23.2949
23.1756
22.9141
22.5505
22.1169
21.6375
21.1299
20.608
20.0833
19.5657
19.0641
18.5866
18.14
17.7302
17.3617
17.0387
16.764
16.539
16.3637
16.2367
16.1545
16.1117
16.1012
16.1145
16.1433
16.1805
16.2213
16.2636
16.3064
16.3498
16.3915
16.4292
16.4664
16.5036
16.5314
16.5496
16.5684
16.5979
16.641
16.6962
16.7583
16.8301
16.9031
16.9867
17.0577
17.1345
17.1567
-7.96617
-8.38406
-9.1092
-9.9083
-10.7327
-11.5261
-12.2531
-12.9301
-13.5509
-14.1062
-14.5883
-14.9835
-15.2842
-15.4929
-15.6298
-15.7356
-15.8308
-15.9173
-15.9979
-16.0808
-16.1598
-16.235
-16.3089
-16.3844
-16.4661
-16.5567
-16.6548
-16.7545
-16.8475
-16.9277
-16.9968
-17.0695
-17.1744
-17.3461
-17.6104
-17.9915
-18.4945
-19.1055
-19.7776
-20.4624
-21.1214
-21.7415
-22.3315
-22.9074
-23.4859
-24.0792
-24.6784
-25.2565
-25.7807
-26.2181
-26.5415
-26.7365
-26.7916
-26.7134
-26.5267
-26.2486
-25.8936
-25.4828
-25.057
-24.6922
-24.4636
-24.3602
-24.3434
-24.3932
-24.5049
-24.667
-24.8651
-25.0787
-25.2824
-25.4506
-25.5686
-25.6422
-25.6695
-25.6548
-25.6328
-25.6243
-25.596
-25.493
-25.2715
-24.9134
-24.4272
-23.9202
-23.5524
-23.3975
-23.4179
-23.556
-23.7561
-23.9698
-24.1612
-24.3018
-24.3608
-24.3163
-24.1515
-23.8569
-23.4339
-22.8955
-22.2668
-21.5807
-20.8546
-20.0221
-18.9131
-17.4639
-15.8085
-14.1739
-12.7365
-11.5903
-10.6434
-9.81816
-9.12627
-8.53185
-7.97483
-7.39737
-6.74911
-5.99081
-5.08958
-4.02203
-2.77419
-1.33569
0.301419
2.13698
4.16027
6.34221
8.62722
10.9338
13.1673
15.2381
17.0771
18.6495
19.951
20.9942
21.7926
22.3503
22.6691
22.766
22.6757
22.442
22.1057
21.698
21.2418
20.7541
20.2483
19.7365
19.2292
18.7363
18.2666
17.8272
17.4242
17.0628
16.7467
16.4783
16.2588
16.0879
15.964
15.8837
15.8421
15.8327
15.8483
15.8815
15.9257
15.9761
16.0295
16.0848
16.1409
16.196
16.2475
16.296
16.339
16.3697
16.3873
16.399
16.415
16.4442
16.4922
16.5515
16.6215
16.695
16.7796
16.8543
16.93
16.953
-9.12594
-9.57145
-10.2471
-10.9678
-11.7122
-12.4623
-13.1915
-13.8902
-14.5451
-15.1566
-15.7108
-16.1917
-16.5875
-16.8953
-17.1248
-17.3136
-17.4883
-17.6523
-17.81
-17.9673
-18.1198
-18.2667
-18.4088
-18.5476
-18.6854
-18.8222
-18.9565
-19.084
-19.2
-19.3
-19.3835
-19.4608
-19.5574
-19.7147
-19.9689
-20.3535
-20.8663
-21.4852
-22.1785
-22.9102
-23.6439
-24.3594
-25.0507
-25.7193
-26.3713
-27.0095
-27.6278
-28.2081
-28.7221
-29.1447
-29.4567
-29.6424
-29.6723
-29.5371
-29.267
-28.8991
-28.4634
-27.9879
-27.5236
-27.1508
-26.9106
-26.7568
-26.653
-26.5922
-26.5747
-26.5937
-26.6424
-26.7121
-26.7881
-26.8516
-26.8843
-26.8642
-26.7689
-26.5962
-26.3871
-26.1852
-25.9953
-25.7898
-25.536
-25.212
-24.8336
-24.4943
-24.3111
-24.3329
-24.5217
-24.7988
-25.0954
-25.3803
-25.6356
-25.8319
-25.9357
-25.9226
-25.7713
-25.4712
-25.0258
-24.4543
-23.7923
-23.0861
-22.3604
-21.5297
-20.4059
-18.9694
-17.4148
-15.9504
-14.683
-13.6387
-12.7208
-11.9062
-11.2161
-10.6031
-10.0055
-9.35776
-8.6102
-7.73646
-6.71919
-5.5474
-4.21309
-2.70526
-1.01576
0.86061
2.92142
5.14597
7.48392
9.8526
12.1528
14.2896
16.1895
17.8142
19.1575
20.2368
21.0697
21.6592
22.0086
22.1357
22.0759
21.8731
21.5674
21.1883
20.7572
20.2904
19.8016
19.3036
18.808
18.3258
17.8662
17.437
17.0446
16.6937
16.3879
16.1292
15.9187
15.7556
15.6379
15.5624
15.5244
15.5184
15.538
15.5772
15.6301
15.6916
15.758
15.8275
15.8984
15.969
16.0373
16.1017
16.1591
16.2037
16.2314
16.2448
16.2519
16.2646
16.2937
16.3403
16.4012
16.4692
16.5487
16.6215
16.6946
16.7185
-10.1854
-10.5522
-11.0641
-11.6848
-12.3737
-13.083
-13.7987
-14.5123
-15.2164
-15.9013
-16.5501
-17.1448
-17.671
-18.1224
-18.5001
-18.831
-19.141
-19.4315
-19.7046
-19.9635
-20.2079
-20.4382
-20.6561
-20.8625
-21.057
-21.2392
-21.409
-21.568
-21.717
-21.855
-21.9818
-22.105
-22.2479
-22.4515
-22.756
-23.1867
-23.7405
-24.399
-25.1396
-25.9311
-26.7374
-27.5344
-28.3054
-29.0391
-29.7305
-30.3781
-30.9809
-31.5282
-31.997
-32.373
-32.6412
-32.7762
-32.7369
-32.5114
-32.1368
-31.6686
-31.1462
-30.6021
-30.0894
-29.6846
-29.3892
-29.1364
-28.9052
-28.7044
-28.5322
-28.3855
-28.2638
-28.1629
-28.0711
-27.971
-27.8437
-27.6636
-27.4055
-27.0658
-26.6861
-26.3201
-25.9982
-25.7152
-25.453
-25.2003
-24.9785
-24.8495
-24.8874
-25.1052
-25.4545
-25.8502
-26.2327
-26.5898
-26.9133
-27.1738
-27.3401
-27.3829
-27.2716
-26.9904
-26.5419
-25.9512
-25.263
-24.5342
-23.795
-22.9499
-21.8262
-20.4514
-19.0438
-17.7574
-16.6308
-15.6519
-14.7514
-13.9514
-13.2689
-12.6519
-12.03
-11.3208
-10.4773
-9.48999
-8.35798
-7.08026
-5.65429
-4.07634
-2.33722
-0.424942
1.66615
3.9242
6.30475
8.72543
11.0822
13.2765
15.2307
16.9029
18.2849
19.3996
20.2636
20.8817
21.2587
21.4142
21.3851
21.2147
20.9411
20.5914
20.1855
19.7394
19.2675
18.7837
18.301
17.8312
17.3841
16.9681
16.5891
16.2519
15.9594
15.7135
15.5148
15.3624
15.2539
15.1862
15.1552
15.156
15.1833
15.2318
15.2964
15.3719
15.4539
15.5397
15.6272
15.7147
15.8
15.8811
15.9555
16.0187
16.0656
16.0933
16.1045
16.1078
16.1176
16.1418
16.1839
16.237
16.3036
16.3686
16.4359
16.4585
-10.6943
-10.9791
-11.4038
-11.9528
-12.5969
-13.2973
-14.0297
-14.782
-15.5504
-16.3245
-17.0854
-17.8143
-18.4945
-19.1147
-19.6678
-20.1709
-20.6444
-21.0885
-21.5021
-21.8861
-22.2427
-22.5745
-22.8842
-23.1716
-23.4355
-23.6768
-23.8997
-24.1112
-24.3168
-24.5189
-24.7193
-24.9269
-25.1607
-25.4569
-25.8534
-26.3648
-26.987
-27.7052
-28.5011
-29.3444
-30.2019
-31.0478
-31.8583
-32.6155
-33.3084
-33.9346
-34.5011
-35.0038
-35.4225
-35.7465
-35.9573
-36.0204
-35.8958
-35.5776
-35.108
-34.546
-33.9349
-33.31
-32.724
-32.2444
-31.8393
-31.4403
-31.0534
-30.7001
-30.3713
-30.0622
-29.7708
-29.4886
-29.2026
-28.8982
-28.5631
-28.1818
-27.7402
-27.2422
-26.7242
-26.2417
-25.837
-25.522
-25.288
-25.1288
-25.0641
-25.134
-25.3746
-25.7702
-26.2518
-26.736
-27.1805
-27.5942
-27.9769
-28.3001
-28.5372
-28.6506
-28.595
-28.3473
-27.9083
-27.3093
-26.6024
-25.8491
-25.0846
-24.2224
-23.1246
-21.854
-20.6139
-19.4946
-18.4788
-17.5422
-16.6573
-15.8817
-15.221
-14.6155
-13.9799
-13.213
-12.2782
-11.1838
-9.94209
-8.55998
-7.04276
-5.39754
-3.61378
-1.67105
0.444132
2.72815
5.1419
7.60366
10.0039
12.2408
14.2353
15.943
17.3571
18.5001
19.3892
20.0297
20.4292
20.6099
20.6102
20.4719
20.2297
19.9081
19.5257
19.0988
18.643
18.1736
17.7046
17.2487
16.8162
16.4151
16.0519
15.7305
15.4539
15.2234
15.039
14.8998
14.8037
14.748
14.7291
14.7426
14.784
14.8483
14.9298
15.0233
15.1239
15.2284
15.3343
15.4396
15.5423
15.6398
15.7305
15.8115
15.8787
15.9273
15.9549
15.963
15.9629
15.9675
15.9852
16.0159
16.0615
16.109
16.1625
16.1796
-10.708
-10.9379
-11.316
-11.8354
-12.468
-13.1797
-13.9448
-14.7528
-15.6009
-16.479
-17.3664
-18.2419
-19.0854
-19.8819
-20.6201
-21.3089
-21.9603
-22.5724
-23.1414
-23.6684
-24.1578
-24.6136
-25.0385
-25.4322
-25.7939
-26.1268
-26.4391
-26.7413
-27.041
-27.3418
-27.6468
-27.9664
-28.3219
-28.7406
-29.2462
-29.8465
-30.5404
-31.3146
-32.1552
-33.0331
-33.9205
-34.7901
-35.6172
-36.3819
-37.0722
-37.6861
-38.2344
-38.7044
-39.0744
-39.3357
-39.4709
-39.4401
-39.2063
-38.7734
-38.1924
-37.522
-36.8021
-36.0703
-35.3795
-34.7836
-34.2312
-33.6644
-33.1092
-32.5934
-32.1037
-31.6313
-31.1712
-30.7091
-30.2277
-29.712
-29.1581
-28.5676
-27.9467
-27.3106
-26.6937
-26.1448
-25.7081
-25.4052
-25.2325
-25.1797
-25.2551
-25.4809
-25.8726
-26.3989
-26.9745
-27.5121
-27.9895
-28.4387
-28.8645
-29.2385
-29.5414
-29.7251
-29.7276
-29.5181
-29.096
-28.4961
-27.7759
-26.9988
-26.2061
-25.3323
-24.2839
-23.139
-22.0633
-21.0836
-20.1467
-19.2367
-18.3733
-17.6352
-17.0115
-16.4281
-15.7838
-14.9668
-13.9511
-12.7605
-11.4203
-9.94365
-8.34317
-6.63541
-4.81042
-2.83997
-0.703524
1.60245
4.04309
6.53366
8.95901
11.2176
13.2321
14.959
16.3928
17.5539
18.4587
19.1132
19.5277
19.7289
19.7554
19.6468
19.4332
19.1365
18.7746
18.365
17.9247
17.4699
17.0158
16.5751
16.1584
15.7741
15.428
15.1239
14.8641
14.6498
14.4814
14.3582
14.2788
14.2411
14.2415
14.2766
14.3412
14.4292
14.5343
14.6508
14.7738
14.8996
15.0256
15.15
15.2701
15.3835
15.4882
15.5831
15.6663
15.7344
15.7828
15.8077
15.8131
15.8091
15.808
15.8138
15.8335
15.8569
15.8888
15.8922
-10.3794
-10.5841
-10.9481
-11.4672
-12.1186
-12.8734
-13.7069
-14.6047
-15.5589
-16.5574
-17.5802
-18.6048
-19.61
-20.5781
-21.4976
-22.3717
-23.2029
-23.9861
-24.7157
-25.3938
-26.0274
-26.6214
-27.1792
-27.7005
-28.1842
-28.6342
-29.0604
-29.4757
-29.8875
-30.3003
-30.7194
-31.1557
-31.6268
-32.153
-32.7517
-33.4298
-34.1877
-35.0179
-35.9088
-36.8346
-37.7678
-38.679
-39.5432
-40.3404
-41.0567
-41.6865
-42.2349
-42.677
-42.9925
-43.1763
-43.2079
-43.0482
-42.6714
-42.0925
-41.3693
-40.5615
-39.7057
-38.8376
-38.0097
-37.2665
-36.5487
-35.8096
-35.081
-34.3941
-33.736
-33.0936
-32.4635
-31.8278
-31.1653
-30.4607
-29.7132
-28.9364
-28.1583
-27.4114
-26.7339
-26.1655
-25.7416
-25.4812
-25.3807
-25.4245
-25.6127
-25.9546
-26.4536
-27.0656
-27.6943
-28.2464
-28.7212
-29.178
-29.6254
-30.0309
-30.3823
-30.621
-30.67
-30.4943
-30.0901
-29.4965
-28.7715
-27.9781
-27.1625
-26.2858
-25.2969
-24.2718
-23.3321
-22.4529
-21.5687
-20.6814
-19.8489
-19.1606
-18.584
-18.0284
-17.3816
-16.5259
-15.4472
-14.1801
-12.7616
-11.2076
-9.5349
-7.76844
-5.90246
-3.90316
-1.74327
0.584943
3.04514
5.5469
7.97525
10.2314
12.2428
13.9696
15.4071
16.5727
17.4804
18.1373
18.5581
18.7732
18.8213
18.7373
18.5473
18.2706
17.9257
17.5312
17.1061
16.667
16.2292
15.8059
15.4073
15.0413
14.713
14.4259
14.1827
13.9851
13.8341
13.7301
13.6727
13.6605
13.69
13.7565
13.8535
13.9734
14.1094
14.2553
14.4058
14.5569
14.7059
14.8506
14.9882
15.1161
15.2326
15.3374
15.4311
15.5125
15.5785
15.6238
15.6459
15.6483
15.6407
15.6301
15.6248
15.6215
15.6267
15.6097
-9.96587
-10.162
-10.5345
-11.0806
-11.7841
-12.6178
-13.5546
-14.5731
-15.6585
-16.7945
-17.9599
-19.1326
-20.292
-21.4205
-22.5062
-23.5464
-24.5359
-25.4682
-26.341
-27.1597
-27.9317
-28.6601
-29.3461
-29.9877
-30.5832
-31.1364
-31.6578
-32.1608
-32.6551
-33.1501
-33.6574
-34.1914
-34.7671
-35.3948
-36.0851
-36.8452
-37.6739
-38.571
-39.5237
-40.5075
-41.4921
-42.447
-43.3483
-44.1782
-44.9215
-45.5616
-46.0886
-46.4797
-46.7257
-46.832
-46.7774
-46.5209
-46.0401
-45.3509
-44.5035
-43.5577
-42.5571
-41.5382
-40.5531
-39.6448
-38.7546
-37.8425
-36.9396
-36.0738
-35.2412
-34.4277
-33.6249
-32.8222
-31.9997
-31.1398
-30.2436
-29.3316
-28.4425
-27.6228
-26.9168
-26.3582
-25.9708
-25.7636
-25.7318
-25.8574
-26.1324
-26.5577
-27.1273
-27.7837
-28.4285
-28.9692
-29.4198
-29.8587
-30.3004
-30.7152
-31.0843
-31.3478
-31.424
-31.2726
-30.8892
-30.3131
-29.5987
-28.8002
-27.9648
-27.082
-26.1368
-25.1988
-24.3529
-23.5406
-22.696
-21.8371
-21.0454
-20.4153
-19.8892
-19.3636
-18.7204
-17.8442
-16.7298
-15.4146
-13.9396
-12.3241
-10.5907
-8.76984
-6.86073
-4.82902
-2.64266
-0.294168
2.17244
4.66508
7.07178
9.29966
11.2832
12.988
14.4104
15.5636
16.4586
17.1046
17.5217
17.7434
17.8064
17.7402
17.5666
17.3043
16.9728
16.5926
16.1827
15.7605
15.3414
14.9376
14.5588
14.2113
13.9005
13.6304
13.4042
13.2248
13.0948
13.0156
12.9877
13.009
13.0759
13.1816
13.3182
13.4774
13.6513
13.8333
14.0176
14.1994
14.375
14.5415
14.6965
14.8377
14.9639
15.0755
15.1747
15.2632
15.3402
15.4018
15.4437
15.4631
15.4635
15.4488
15.4287
15.4021
15.38
15.3394
-9.63735
-9.83785
-10.2376
-10.8381
-11.6267
-12.5751
-13.6502
-14.8218
-16.0651
-17.3583
-18.6771
-19.9973
-21.2962
-22.5556
-23.7649
-24.9198
-26.0133
-27.0404
-28.0022
-28.9062
-29.7603
-30.5667
-31.3252
-32.0334
-32.6903
-33.3009
-33.879
-34.4416
-35.0034
-35.5797
-36.1846
-36.8284
-37.5152
-38.2469
-39.0284
-39.8639
-40.7551
-41.7042
-42.6994
-43.7158
-44.7227
-45.6934
-46.6091
-47.4546
-48.215
-48.8609
-49.3634
-49.7078
-49.8966
-49.9374
-49.8202
-49.5088
-48.9793
-48.2362
-47.3168
-46.2742
-45.1615
-44.0197
-42.8945
-41.8251
-40.7654
-39.6878
-38.6194
-37.5785
-36.5706
-35.5905
-34.6271
-33.6739
-32.7138
-31.7329
-30.7366
-29.7453
-28.8011
-27.9573
-27.2594
-26.7341
-26.3931
-26.2441
-26.2758
-26.4672
-26.8112
-27.297
-27.9061
-28.5693
-29.1944
-29.698
-30.1017
-30.4891
-30.8923
-31.2866
-31.644
-31.9072
-31.9984
-31.8711
-31.5174
-30.9712
-30.2766
-29.4754
-28.6118
-27.7035
-26.7689
-25.8756
-25.08
-24.3105
-23.5053
-22.687
-21.9432
-21.3669
-20.8876
-20.3895
-19.7541
-18.8781
-17.7544
-16.4155
-14.9006
-13.2397
-11.4625
-9.59839
-7.64955
-5.58447
-3.37302
-1.01367
1.44212
3.90138
6.25925
8.43169
10.3621
12.0221
13.4086
14.5301
15.395
16.0164
16.4201
16.6407
16.7102
16.6529
16.4881
16.235
15.9144
15.5472
15.1534
14.75
14.3511
13.9675
13.6073
13.277
12.9826
12.7294
12.5221
12.3655
12.2634
12.2177
12.2275
12.2902
12.4002
12.5503
12.732
12.9365
13.1553
13.3802
13.6044
13.8218
14.0271
14.2169
14.3893
14.5432
14.678
14.7947
14.8966
14.9874
15.0691
15.1406
15.1986
15.2377
15.2555
15.2504
15.2285
15.19
15.1467
15.0829
-9.43015
-9.64882
-10.0976
-10.7787
-11.6807
-12.7696
-14.0029
-15.3414
-16.7499
-18.1973
-19.6527
-21.0886
-22.4808
-23.8117
-25.0733
-26.2636
-27.3786
-28.4158
-29.379
-30.2805
-31.1339
-31.9468
-32.7229
-33.4605
-34.1582
-34.82
-35.4585
-36.0908
-36.7319
-37.3955
-38.0908
-38.8214
-39.5854
-40.3818
-41.2142
-42.0867
-43.006
-43.9766
-44.9895
-46.0205
-47.0409
-48.0269
-48.9627
-49.8301
-50.6121
-51.2756
-51.7783
-52.1002
-52.2564
-52.2533
-52.0943
-51.7546
-51.2126
-50.4681
-49.5414
-48.4698
-47.3075
-46.0975
-44.8802
-43.6838
-42.4777
-41.253
-40.0362
-38.8394
-37.6742
-36.5469
-35.4476
-34.3688
-33.2975
-32.2244
-31.1642
-30.1435
-29.2005
-28.381
-27.7248
-27.2541
-26.9727
-26.8807
-26.9678
-27.2202
-27.6208
-28.1432
-28.7535
-29.3834
-29.9595
-30.4115
-30.7509
-31.0597
-31.3926
-31.7365
-32.0564
-32.3006
-32.4008
-32.3066
-31.9972
-31.4896
-30.8129
-29.9998
-29.092
-28.1336
-27.1712
-26.2823
-25.504
-24.7657
-24.0063
-23.2362
-22.5413
-22.0037
-21.5547
-21.0702
-20.4402
-19.5747
-18.4587
-17.1158
-15.5847
-13.9026
-12.1016
-10.2102
-8.23175
-6.14041
-3.9135
-1.55987
0.861955
3.26007
5.54032
7.63042
9.48325
11.0758
12.4042
13.4731
14.2905
14.8748
15.2561
15.4667
15.5332
15.4756
15.3125
15.0643
14.7531
14.3999
14.0234
13.6394
13.2599
12.894
12.5492
12.2333
11.9532
11.7162
11.5304
11.4027
11.337
11.3333
11.3892
11.4998
11.6585
11.8583
12.091
12.3472
12.6173
12.8917
13.1614
13.4181
13.6552
13.8691
14.0591
14.2254
14.3683
14.4896
14.593
14.6838
14.7666
14.8426
14.9106
14.966
15.0037
15.0169
15.0064
14.9693
14.9164
14.8368
-9.22854
-9.47312
-9.98145
-10.751
-11.7721
-13.0033
-14.3934
-15.8902
-17.4485
-19.0272
-20.5918
-22.1133
-23.5645
-24.922
-26.1753
-27.328
-28.3903
-29.3707
-30.2769
-31.1232
-31.9282
-32.706
-33.4651
-34.2039
-34.917
-35.6023
-36.2665
-36.9245
-37.5927
-38.2837
-39.0073
-39.7673
-40.5619
-41.3899
-42.2527
-43.1532
-44.0957
-45.0842
-46.1106
-47.153
-48.1843
-49.1817
-50.1314
-51.0147
-51.8089
-52.4889
-53.0088
-53.3406
-53.4959
-53.4914
-53.3368
-53.0161
-52.5096
-51.8124
-50.9344
-49.9014
-48.7564
-47.5469
-46.3086
-45.0516
-43.7534
-42.428
-41.109
-39.8026
-38.5216
-37.2827
-36.0832
-34.9162
-33.7702
-32.6412
-31.5563
-30.5436
-29.6363
-28.874
-28.2881
-27.8898
-27.6748
-27.6457
-27.7917
-28.0881
-28.5162
-29.0422
-29.6092
-30.1599
-30.6562
-31.0398
-31.3046
-31.5253
-31.7695
-32.0399
-32.3051
-32.5194
-32.6265
-32.5757
-32.3258
-31.8632
-31.1952
-30.3508
-29.3832
-28.3594
-27.3485
-26.4375
-25.6525
-24.9366
-24.2248
-23.5073
-22.8517
-22.3294
-21.8811
-21.3856
-20.7488
-19.8936
-18.7933
-17.4649
-15.9423
-14.2638
-12.464
-10.5689
-8.57942
-6.47713
-4.25246
-1.92865
0.429807
2.73633
4.91058
6.89314
8.64535
10.1479
11.3957
12.3913
13.1454
13.6821
14.0328
14.2248
14.2791
14.2139
14.0484
13.8039
13.503
13.1653
12.8067
12.4403
12.0765
11.7237
11.3891
11.0815
10.8117
10.5906
10.4293
10.3357
10.3119
10.3557
10.4633
10.6279
10.8424
11.0996
11.3912
11.7071
12.036
12.3659
12.685
12.983
13.2527
13.4908
13.6982
13.8766
14.0277
14.1537
14.2588
14.3494
14.4317
14.5093
14.5827
14.649
14.7036
14.7379
14.7472
14.7242
14.6752
14.5907
-8.79222
-9.07264
-9.64299
-10.4976
-11.6339
-13.0033
-14.5501
-16.2124
-17.9345
-19.6645
-21.3556
-22.9665
-24.4602
-25.807
-26.9989
-28.0509
-28.9908
-29.8427
-30.6199
-31.3372
-32.0147
-32.6737
-33.3283
-33.9806
-34.6236
-35.2533
-35.8782
-36.5108
-37.1681
-37.8631
-38.6035
-39.3897
-40.2177
-41.0813
-41.979
-42.9085
-43.87
-44.8672
-45.8951
-46.9361
-47.9675
-48.9682
-49.924
-50.8181
-51.6273
-52.3309
-52.8877
-53.2683
-53.4694
-53.5139
-53.4129
-53.1653
-52.7452
-52.1403
-51.3561
-50.4152
-49.3538
-48.2142
-47.0276
-45.7919
-44.4859
-43.1353
-41.7809
-40.4311
-39.098
-37.8021
-36.5486
-35.337
-34.1589
-33.0148
-31.934
-30.9511
-30.0967
-29.404
-28.9016
-28.5917
-28.4554
-28.4884
-28.6824
-29.0181
-29.4566
-29.9539
-30.4468
-30.8806
-31.2496
-31.5297
-31.7044
-31.8358
-31.9855
-32.1691
-32.3698
-32.5511
-32.666
-32.6634
-32.4805
-32.0649
-31.4001
-30.5115
-29.4746
-28.3829
-27.3223
-26.3765
-25.5696
-24.8632
-24.1921
-23.5246
-22.8937
-22.3576
-21.8753
-21.3428
-20.6827
-19.8283
-18.7472
-17.4469
-15.9563
-14.3103
-12.5405
-10.6648
-8.6839
-6.59143
-4.39539
-2.13384
0.126266
2.30885
4.34928
6.19997
7.82861
9.21807
10.3629
11.2665
11.9454
12.4275
12.7411
12.9075
12.9438
12.8675
12.6996
12.4618
12.1747
11.8533
11.5107
11.1581
10.8046
10.4563
10.1224
9.81568
9.5516
9.34596
9.21079
9.15285
9.1722
9.26612
9.42942
9.65442
9.93344
10.2587
10.6204
11.0064
11.4027
11.7937
12.1649
12.505
12.8073