/*--------------------------------*- C++ -*----------------------------------*\
  =========                 |
  \\      /  F ield         | OpenFOAM: The Open Source CFD Toolbox
   \\    /   O peration     | Website:  https://openfoam.org
    \\  /    A nd           | Version:  9
     \\/     M anipulation  |
\*---------------------------------------------------------------------------*/
FoamFile
{
    format      ascii;
    class       volScalarField;
    location    "0.09";
    object      pPrime2Mean;
}
// * * * * * * * * * * * * * * * * * * * * * * * * * * * * * * * * * * * * * //

dimensions      [0 4 -4 0 0 0 0];

internalField   nonuniform List<scalar> 
12225
(
291736
289027
285855
282412
278813
275142
271455
267786
264157
260577
257048
253567
250120
246689
243239
239714
235997
231816
291772
289056
285878
282430
278828
275155
271466
267797
264167
260587
257060
253580
250137
246711
243271
239765
236099
232111
291871
289121
285927
282470
278860
275182
271490
267819
264189
260610
257085
253610
250173
246759
243339
239872
236299
232564
292013
289229
286010
282536
278914
275228
271531
267856
264225
260648
257127
253658
250234
246838
243449
240040
236583
233094
292231
289387
286132
282633
278994
275295
271590
267911
264279
260704
257188
253730
250321
246951
243604
240266
236937
233663
292543
289605
286301
282767
279104
275388
271672
267987
264353
260781
257272
253827
250439
247101
243804
240547
237344
234252
292942
289890
286523
282944
279249
275511
271780
268087
264451
260881
257382
253952
250590
247290
244050
240878
237794
234851
293366
290249
286808
283172
279435
275669
271919
268215
264575
261009
257520
254110
250776
247519
244340
241252
238277
235459
293939
290701
287164
283457
279668
275865
272092
268374
264730
261167
257690
254301
251000
247788
244672
241664
238786
236071
294619
291256
287603
283807
279954
276106
272303
268569
264918
261359
257895
254529
251262
248097
245043
242110
239318
236689
295477
291931
288135
284231
280299
276396
272557
268802
265143
261586
258136
254794
251562
248445
245449
242585
239868
237312
296395
292678
288719
284694
280674
276711
272832
269053
265385
261830
258392
255072
251872
248796
245851
243044
240386
237887
297578
293544
289386
285218
281098
277066
273142
269337
265656
262102
258675
255376
252207
249171
246272
243517
240911
238460
299140
294696
290264
285903
281651
277528
273544
269704
266006
262451
259035
255760
252624
249630
246779
244074
241519
239115
301137
296205
291404
286791
282363
278122
274061
270174
266454
262894
259490
256238
253136
250183
247379
244724
242218
239858
303840
298171
292860
287908
283254
278864
274708
270764
267014
263446
260050
256821
253751
250838
248079
245470
243008
240688
307356
300562
294589
289228
284312
279750
275485
271474
267689
264110
260721
257511
254472
251595
248875
246306
243883
241599
310992
303048
296398
290624
285444
280716
276346
272273
268457
264868
261486
258294
255281
252436
249751
247216
244826
242572
313554
304779
297719
291717
286402
281590
277170
273071
269246
265662
262294
259125
256139
253323
250668
248163
245800
243570
311903
304267
297687
291918
286729
281996
277629
273570
269778
266224
262885
259743
256782
253992
251359
248876
246532
244319
309908
303147
297118
291679
286698
282097
277819
273822
270077
266559
263248
260131
257192
254420
251804
249335
247003
244801
307974
301952
296417
291301
286529
282067
277883
273953
270256
266774
263491
260396
257475
254719
252116
249658
247336
245142
306233
300856
295744
290906
286322
281984
277886
274016
270362
266911
263653
260576
257671
254927
252334
249885
247570
245381
304814
299942
295173
290562
286128
281893
277865
274043
270424
266999
263760
260698
257805
255070
252485
250042
247732
245547
303716
299238
294729
290290
285971
281813
277838
274054
270460
267055
263830
260780
257895
255167
252587
250149
247842
245661
302894
298717
294404
290089
285853
281751
277814
274056
270482
267090
263876
260833
257954
255231
252655
250220
247916
245737
302307
298354
294180
289952
285772
281708
277796
274056
270495
267112
263904
260867
257992
255272
252699
250266
247963
245785
301853
298115
294038
289865
285720
281680
277785
274056
270502
267125
263922
260887
258015
255297
252725
250293
247992
245815
301601
297982
293960
289817
285692
281664
277778
274055
270506
267132
263931
260898
258027
255310
252740
250308
248007
245830
301500
297927
293928
289798
285680
281658
277775
274055
270507
267134
263934
260903
258032
255315
252745
250314
248013
245837
196285
196268
196235
196186
196123
196045
195951
195841
195713
195566
195399
195212
195006
194781
194537
194274
193991
193689
193367
193027
192668
192291
191896
191483
191054
190607
190144
189663
189165
188650
188120
187574
187013
186436
185844
185237
184618
183989
183349
182700
182039
181365
180675
179969
179246
178507
177756
176993
176220
175438
174647
173848
173043
172230
171408
170578
169740
168886
168014
167126
166227
165319
164406
163484
162545
161585
160605
159614
158616
157610
156590
155553
154495
153415
152315
151202
150083
148962
147847
146742
145640
144534
143419
142302
141184
140055
138922
137784
136639
135471
134286
133102
131930
130770
129618
128467
127311
126145
124969
123782
122587
121382
120165
118931
117679
116409
115138
113863
112580
111318
110099
108922
107770
106622
105459
104263
103023
101734
100394
99007
97583
96135.2
94678.6
93227.9
91794.8
90386.8
89006.9
87654.6
86327
85020.3
83730
82452.1
81182.3
79917.6
78655.4
77394.2
76133
74871.6
73610.2
72348.9
71088.2
69828.3
68569.7
67312.5
66056.8
64802.9
63550.8
62300.6
61052.2
59805.8
58561.3
57318.9
56078.8
54841.1
53606.8
52376.7
51152
49933.3
48721.2
47516.3
46318.1
45125.6
43938.1
42758.2
41586.1
40420.4
39262.8
38115.3
36977.3
35848.5
34730.4
33621
32521.1
31433.4
30357.4
29294.9
28245.9
27212.9
26200.7
25218.4
196350
196333
196300
196252
196188
196110
196016
195905
195776
195627
195459
195272
195066
194842
194599
194336
194053
193750
193428
193086
192725
192345
191947
191531
191098
190648
190182
189699
189199
188683
188153
187608
187049
186474
185882
185275
184655
184024
183381
182728
182061
181382
180689
179981
179257
178517
177768
177009
176237
175454
174660
173858
173050
172238
171418
170588
169748
168894
168026
167145
166253
165347
164429
163499
162553
161591
160613
159623
158626
157620
156600
155563
154506
153422
152317
151201
150075
148950
147834
146729
145634
144537
143427
142312
141195
140071
138933
137786
136630
135460
134281
133107
131942
130787
129638
128487
127330
126163
124984
123794
122596
121390
120172
118940
117693
116421
115140
113859
112584
111338
110132
108963
107813
106665
105499
104300
103057
101764
100421
99031.5
97604.9
96154.1
94694.4
93240.5
91804.7
90394.5
89013.1
87659.6
86331
85023.5
83732.7
82454.2
81184.2
79919.3
78657
77395.7
76134.5
74873.2
73611.8
72350.5
71089.8
69830
68571.4
67314.2
66058.6
64804.7
63552.7
62302.6
61054.3
59808
58563.7
57321.6
56081.8
54844.6
53610.8
52381.3
51157.1
49938.8
48726.7
47521.2
46321.9
45128
43940
42760.6
41589.1
40423.1
39265.3
38117.8
36979.6
35851.2
34733.4
33624.3
32525
31437.1
30361
29298
28247.6
27213.1
26198.8
25211.3
196493
196478
196446
196397
196332
196251
196154
196040
195908
195758
195590
195406
195202
194977
194733
194469
194184
193879
193554
193208
192842
192457
192053
191632
191193
190738
190266
189779
189276
188758
188225
187678
187117
186541
185950
185344
184724
184093
183449
182795
182126
181444
180748
180039
179318
178582
177832
177068
176291
175502
174705
173902
173094
172281
171460
170628
169786
168934
168070
167195
166304
165396
164470
163529
162575
161609
160631
159643
158644
157636
156613
155571
154508
153422
152317
151200
150074
148949
147835
146732
145639
144550
143447
142336
141219
140092
138948
137789
136623
135453
134283
133119
131963
130814
129667
128518
127361
126192
125011
123819
122618
121409
120189
118955
117705
116430
115144
113863
112602
111374
110181
109019
107872
106724
105557
104356
103111
101816
100470
99077.4
97646.5
96190.5
94724.9
93265.3
91824.3
90410
89025.5
87669.8
86339.5
85030.5
83738.4
82458.9
81188.2
79922.9
78660.4
77398.9
76137.7
74876.3
73614.9
72353.7
71093
69833.3
68574.7
67317.6
66062.1
64808.3
63556.3
62306.3
61058.2
59812
58567.9
57326
56086.6
54849.8
53616.4
52387.1
51162.8
49944.2
48731.7
47525.6
46325.9
45132.4
43945.2
42764.9
41592.1
40426.4
39269.4
38122.3
36984.7
35856.9
34739.3
33630.8
32531.4
31442.8
30366
29301.5
28249.9
27213.8
26196.1
25201.4
196706
196691
196658
196609
196543
196459
196360
196243
196109
195958
195789
195603
195398
195173
194929
194662
194374
194064
193734
193382
193011
192620
192211
191783
191339
190877
190400
189907
189398
188876
188339
187788
187224
186645
186052
185445
184825
184194
183551
182896
182228
181546
180850
180142
179420
178682
177928
177161
176382
175593
174795
173990
173177
172358
171531
170695
169852
169001
168140
167264
166371
165456
164523
163577
162619
161650
160669
159677
158673
157657
156626
155576
154506
153419
152316
151201
150079
148960
147850
146751
145665
144583
143487
142373
141250
140116
138965
137801
136633
135466
134302
133145
131995
130850
129707
128559
127403
126234
125050
123854
122650
121438
120215
118975
117717
116438
115152
113880
112635
111422
110243
109090
107949
106802
105635
104432
103184
101886
100538
99141.2
97705.1
96242.3
94769
93301.4
91853.1
90432.9
89043.9
87684.9
86352.2
85041.2
83747.3
82466.4
81194.6
79928.7
78665.7
77404.1
76142.7
74881.2
73619.8
72358.6
71097.9
69838.3
68579.9
67322.8
66067.4
64813.7
63561.8
62311.9
61063.9
59817.9
58574
57332.3
56093.1
54856.7
53623.6
52394.5
51170.1
49951.2
48738.1
47531.2
46330.8
45136.8
43949.3
42768.8
41596.2
40431.4
39274.8
38128.3
36991.9
35865.2
34748.8
33641.2
32541.9
31452.8
30375.2
29309.2
28254.9
27215.5
26193.3
25191.6
196992
196975
196941
196889
196820
196734
196631
196511
196374
196219
196047
195858
195650
195423
195175
194905
194612
194298
193961
193604
193226
192829
192413
191979
191527
191060
190575
190076
189562
189034
188492
187938
187370
186788
186193
185585
184965
184332
183688
183032
182365
181685
180992
180285
179561
178820
178060
177286
176498
175701
174895
174082
173264
172441
171612
170775
169932
169080
168218
167339
166441
165521
164586
163640
162683
161712
160728
159730
158717
157689
156645
155584
154507
153418
152320
151214
150102
148991
147886
146791
145710
144631
143537
142421
141290
140147
138991
137827
136659
135495
134335
133183
132038
130897
129756
128611
127455
126284
125097
123897
122690
121475
120246
118999
117732
116449
115168
113908
112678
111481
110316
109173
108038
106893
105725
104520
103270
101970
100618
99217.9
97776.5
96306.5
94824.3
93347.2
91890.1
90462.5
89067.9
87704.8
86369
85055.4
83759.4
82476.7
81203.6
79936.7
78673.2
77411.2
76149.7
74888.2
73626.7
72365.4
71104.9
69845.3
68587
67330.1
66074.8
64821.1
63569.4
62319.5
61071.6
59825.7
58582
57340.5
56101.6
54865.4
53632.5
52403.4
51179
49959.7
48746.1
47538.6
46337.4
45142.8
43954.7
42773.5
41600.4
40435.5
39279.3
38133.4
36998.1
35873.5
34759.1
33652.8
32553.9
31464.8
30386.7
29319.3
28262.4
27219.3
26191.9
25183.1
197351
197332
197295
197241
197170
197081
196974
196851
196709
196550
196374
196179
195966
195734
195482
195206
194908
194586
194243
193877
193491
193086
192661
192219
191759
191283
190792
190285
189765
189231
188684
188125
187553
186969
186373
185763
185140
184505
183859
183201
182533
181854
181161
180452
179725
178978
178211
177427
176628
175818
175002
174181
173357
172530
171699
170862
170017
169164
168298
167416
166512
165593
164661
163721
162768
161800
160816
159813
158791
157750
156692
155618
154533
153444
152350
151252
150150
149049
147952
146862
145780
144699
143602
142481
141342
140192
139032
137867
136700
135536
134379
133230
132088
130951
129813
128670
127515
126342
125151
123946
122736
121516
120281
119025
117750
116466
115192
113944
112728
111547
110395
109261
108132
106989
105819
104611
103358
102056
100703
99299.7
97854
96377.4
94886.5
93399.8
91933.3
90497.5
89096.5
87728.6
86389.2
85072.7
83774.3
82489.6
81215
79947
78682.9
77420.5
76158.7
74897.1
73635.6
72374.4
71114
69854.6
68596.4
67339.6
66084.4
64830.7
63579
62329.2
61081.4
59835.6
58592
57350.7
56112
54875.9
53643.1
52414.1
51189.6
49970
48756.1
47548
46346.1
45150.7
43962
42780.2
41606.1
40440.5
39283.8
38137.6
37002.5
35879
34766.4
33662
32564.5
31476.3
30398.5
29330.4
28271.5
27225.1
26192.7
25177.1
197784
197764
197725
197669
197596
197504
197393
197264
197118
196953
196770
196569
196349
196109
195848
195565
195258
194927
194575
194200
193805
193390
192956
192504
192035
191550
191051
190537
190010
189469
188916
188350
187773
187184
186583
185969
185343
184704
184054
183394
182724
182042
181346
180633
179902
179148
178373
177577
176767
175945
175116
174284
173452
172621
171788
170950
170105
169251
168384
167499
166597
165682
164760
163828
162882
161921
160940
159936
158910
157861
156792
155707
154616
153523
152430
151335
150239
149144
148052
146965
145881
144793
143687
142559
141411
140253
139088
137919
136751
135587
134431
133284
132145
131010
129875
128734
127579
126405
125211
124003
122788
121563
120319
119053
117772
116489
115223
113986
112783
111615
110475
109349
108223
107080
105907
104696
103440
102136
100782
99377.8
97929.6
96448.2
94950.1
93454.7
91979.5
90535.9
89128.4
87755.5
86412.2
85092.8
83791.7
82504.9
81228.8
79959.6
78694.7
77431.8
76169.8
74908.2
73646.8
72385.8
71125.6
69866.4
68608.4
67351.9
66096.7
64843
63591.1
62341.3
61093.5
59847.7
58604.2
57363.1
56124.4
54888.5
53655.7
52426.8
51202.1
49982.4
48768
47559.3
46356.8
45160.7
43971.4
42788.9
41613.9
40447.3
39289.8
38142.4
37006.2
35882
34769.9
33667
32571.9
31485.5
30409
29341.2
28281.2
27232.2
26195.4
25174.2
198298
198277
198237
198178
198100
198003
197887
197751
197597
197424
197233
197022
196792
196541
196269
195976
195659
195318
194956
194571
194166
193741
193297
192835
192357
191864
191356
190835
190299
189750
189188
188614
188027
187430
186821
186200
185568
184925
184272
183609
182936
182250
181551
180834
180096
179335
178550
177744
176921
176085
175243
174399
173558
172722
171887
171049
170205
169352
168486
167601
166703
165798
164887
163965
163029
162076
161101
160100
159074
158021
156947
155857
154760
153662
152566
151470
150374
149279
148188
147101
146012
144914
143796
142656
141499
140331
139158
137983
136810
135644
134487
133341
132203
131071
129937
128797
127643
126469
125273
124063
122844
121611
120357
119082
117798
116518
115259
114031
112839
111682
110551
109431
108306
107161
105984
104768
103508
102202
100848
99444.6
97996.1
96512.2
95009.4
93507.6
92025.5
90575.1
89161.8
87784.4
86437.6
85115
83811.4
82522.5
81244.7
79974.4
78708.7
77445.3
76183.1
74921.5
73660.3
72399.8
71139.8
69880.9
68623.2
67366.9
66111.8
64858.1
63606
62355.8
61108
59862.2
58618.7
57377.7
56139.2
54903.3
53670.6
52441.6
51216.8
49996.7
48782
47572.7
46369.6
45172.9
43982.8
42799.6
41623.9
40456.5
39297.9
38149.1
37010.9
35884.5
34770.7
33667.8
32574.2
31490.5
30416.2
29350
28290.3
27239.7
26199.7
25174
198900
198878
198835
198772
198688
198584
198459
198314
198150
197966
197763
197539
197296
197032
196748
196442
196113
195762
195388
194994
194578
194143
193689
193218
192730
192228
191712
191181
190636
190076
189503
188916
188318
187709
187089
186460
185821
185174
184518
183854
183180
182493
181790
181068
180323
179553
178757
177938
177100
176249
175391
174535
173686
172845
172009
171171
170327
169475
168610
167728
166838
165943
165041
164128
163202
162257
161288
160293
159270
158220
157146
156055
154954
153852
152749
151648
150548
149450
148357
147265
146167
145057
143925
142772
141603
140424
139241
138057
136876
135704
134545
133398
132261
131129
129996
128857
127705
126532
125336
124125
122902
121661
120396
119113
117827
116551
115298
114077
112893
111744
110619
109503
108377
107227
106044
104822
103557
102250
100897
99495.2
98048.1
96564.1
95059.2
93554
92067.6
90612.7
89195.1
87814.2
86464.3
85138.9
83832.9
82542.1
81262.8
79991.4
78724.9
77461
76198.7
74937.2
73676.5
72416.3
71157
69898.7
68641.4
67385.2
66130.3
64876.5
63624.3
62373.9
61125.7
59879.6
58635.9
57395
56156.6
54920.7
53687.9
52458.8
51233.8
50013.4
48798.1
47588.3
46384.4
45186.9
43996.1
42812.2
41635.8
40467.6
39308.2
38158
37017.8
35888.7
34771.7
33666.7
32573
31490.7
30418.7
29354.6
28296.3
27245.9
26204.6
25176
199593
199569
199522
199454
199363
199250
199115
198959
198781
198584
198366
198128
197870
197591
197292
196972
196631
196267
195881
195475
195049
194603
194139
193658
193162
192651
192125
191584
191027
190455
189868
189268
188656
188035
187404
186766
186120
185469
184811
184145
183469
182780
182073
181344
180589
179807
178997
178162
177308
176441
175569
174701
173845
173000
172161
171323
170479
169627
168763
167884
166999
166112
165218
164312
163392
162454
161492
160503
159485
158439
157369
156280
155178
154070
152960
151852
150748
149647
148548
147449
146341
145217
144072
142906
141724
140533
139337
138141
136950
135771
134606
133456
132318
131185
130053
128914
127763
126593
125400
124189
122963
121713
120438
119148
117861
116586
115337
114120
112942
111798
110678
109562
108432
107276
106085
104856
103587
102278
100926
99526.6
98081.9
96599.7
95095.3
93590.1
92102.8
90646.3
89226.9
87843.7
86491.5
85163.9
83855.9
82563.5
81282.9
80010.6
78743.5
77479.5
76217.2
74956.1
73695.9
72436.4
71177.8
69920.2
68663.5
67407.7
66152.8
64898.9
63646.4
62395.9
61147.2
59900.7
58656.7
57415.8
56177.4
54941.4
53708.4
52479
51253.5
50032.5
48816.5
47606
46401.3
45203
44011.4
42826.6
41649.4
40480.5
39320.3
38169.1
37027.3
35895.7
34775.5
33667.3
32571.4
31488.3
30417.1
29354.6
28298
27249.1
26208.3
25178.6
200380
200353
200303
200228
200130
200008
199862
199693
199503
199291
199058
198804
198530
198236
197922
197587
197229
196851
196452
196032
195594
195136
194662
194171
193665
193144
192608
192056
191487
190902
190301
189687
189060
188424
187780
187130
186474
185814
185149
184476
183794
183098
182383
181644
180877
180080
179253
178401
177531
176650
175766
174890
174029
173182
172343
171504
170660
169808
168943
168066
167184
166300
165410
164507
163591
162658
161699
160714
159700
158658
157593
156507
155406
154295
153181
152067
150958
149854
148753
147647
146531
145396
144239
143060
141865
140660
139450
138239
137035
135846
134674
133520
132379
131243
130108
128968
127819
126652
125464
124255
123025
121768
120482
119185
117895
116620
115373
114160
112985
111844
110725
109606
108470
107306
106108
104872
103598
102286
100934
99537.4
98095.5
96616.3
95115.4
93613.4
92129
90674.5
89255.6
87872
86518.6
85189.6
83880.3
82586.8
81305.3
80032.4
78765.2
77501.3
76239.6
74979.2
73719.9
72461.2
71203.4
69946.6
68690.6
67435.2
66180.2
64926.1
63673.3
62422.4
61173.4
59926.3
58681.9
57440.6
56202.1
54965.9
53732.5
52502.5
51276.4
50054.5
48837.5
47625.9
46420.3
45221
44028.3
42842.6
41664.6
40495.1
39334.2
38182.2
37039.2
35905.8
34783
33671.6
32572.2
31486.4
30413.6
29351
28295.8
27248.6
26209.3
25180.2
201267
201238
201183
201103
200998
200868
200712
200533
200331
200107
199860
199592
199303
198992
198661
198308
197933
197537
197121
196686
196233
195762
195275
194772
194255
193723
193175
192610
192027
191426
190809
190176
189530
188875
188213
187544
186871
186194
185513
184825
184129
183421
182694
181941
181160
180348
179509
178646
177766
176875
175983
175102
174238
173390
172550
171711
170866
170012
169146
168267
167383
166498
165607
164706
163790
162856
161898
160913
159899
158859
157795
156713
155615
154506
153392
152278
151169
150066
148964
147856
146734
145592
144426
143235
142026
140806
139580
138353
137135
135934
134753
133593
132446
131306
130167
129025
127875
126712
125527
124320
123087
121821
120525
119221
117926
116651
115405
114195
113022
111881
110759
109634
108490
107318
106112
104870
103591
102276
100922
99526.4
98087.4
96612.6
95118
93623.2
92145.4
90696
89280.4
87898.3
86545.1
85215.8
83906
82612.3
81330.8
80058
78791
77527.9
76267.3
75008
73749.8
72492.1
71235.2
69979.3
68724.1
67469.1
66214
64959.4
63706
62454.6
61205
59957.4
58712.3
57470.5
56231.5
54994.7
53760.6
52529.8
51302.7
50079.6
48861.3
47648.5
46441.6
45241.1
44047.3
42860.6
41681.8
40511.5
39350.1
38197.4
37053.6
35919
34794.4
33680.3
32577.6
31488
30411.6
29346.8
28291.2
27245
26207.3
25179.4
202266
202235
202177
202093
201983
201848
201688
201502
201292
201057
200799
200517
200212
199883
199532
199158
198762
198344
197908
197452
196980
196492
195989
195471
194938
194390
193824
193242
192640
192020
191381
190726
190057
189377
188688
187994
187295
186593
185887
185176
184459
183731
182985
182215
181419
180595
179748
178881
178000
177108
176216
175335
174469
173618
172776
171936
171088
170230
169361
168478
167589
166697
165802
164897
163977
163039
162077
161089
160072
159030
157966
156886
155792
154688
153579
152472
151368
150270
149171
148065
146942
145797
144625
143425
142202
140967
139724
138481
137248
136034
134844
133675
132522
131377
130233
129088
127936
126773
125591
124382
123143
121868
120564
119253
117954
116678
115433
114224
113052
111908
110778
109645
108491
107309
106094
104846
103562
102243
100888
99492.5
98056.8
96588.5
95103.2
93619.1
92151.6
90710.5
89300.9
87922.2
86570.9
85242.5
83933.7
82641
81360.4
80088.7
78822.8
77560.9
76301.6
75043.8
73787
72530.3
71274.4
70019.6
68765.3
67510.8
66255.7
65000.4
63746.3
62493.8
61243.4
59995
58749
57506.1
56266.1
55028.4
53793.2
52561.4
51333.1
50108.5
48888.5
47674.1
46465.8
45263.7
44068.6
42880.8
41701.2
40530.3
39368.3
38215.2
37070.9
35935.6
34809.6
33693.6
32588.2
31494.7
30414
29345.4
28287.4
27240.4
26203.1
25176.3
203397
203364
203305
203220
203110
202973
202810
202621
202404
202159
201887
201588
201262
200911
200536
200137
199715
199272
198809
198329
197831
197319
196791
196250
195694
195124
194537
193932
193307
192662
191998
191314
190614
189902
189180
188453
187721
186987
186249
185507
184762
184007
183238
182450
181639
180807
179957
179094
178218
177334
176448
175569
174702
173848
173002
172157
171305
170443
169569
168683
167788
166888
165983
165071
164143
163197
162227
161232
160211
159165
158100
157021
155931
154834
153735
152637
151544
150455
149364
148263
147145
146002
144829
143621
142386
141135
139877
138618
137370
136144
134943
133765
132606
131458
130313
129164
128008
126839
125651
124436
123189
121905
120594
119278
117976
116700
115456
114247
113073
111921
110780
109634
108469
107276
106053
104797
103509
102187
100830
99435.4
98004.6
96545.1
95072.2
93602
92147.9
90718.1
89317
87944.1
86596.4
85270.8
83964.4
82674
81395.7
80125.9
78861.9
77601.5
76343.9
75088.1
73832.3
72576.8
71321.9
70068
68814.6
67560.7
66305.7
65049.9
63794.9
62541.5
61290
60040.3
58793.1
57548.7
56307.1
55067.8
53831.1
52597.9
51368
50141.7
48919.6
47703.3
46493.1
45289.5
44092.9
42904.1
41723.6
40552.1
39389.7
38236.3
37091.7
35955.9
34829.1
33711.7
32604.1
31507.5
30422.5
29349.3
28287.6
27237.8
26199.1
25172
204682
204648
204587
204502
204390
204252
204085
203887
203659
203399
203109
202790
202441
202064
201659
201229
200775
200299
199804
199290
198760
198217
197660
197090
196506
195906
195289
194653
193996
193318
192618
191901
191166
190418
189659
188896
188128
187357
186583
185808
185030
184246
183453
182646
181824
180985
180135
179277
178410
177536
176657
175783
174917
174061
173209
172358
171501
170632
169752
168861
167962
167055
166141
165217
164280
163323
162344
161341
160314
159265
158201
157126
156042
154953
153863
152777
151695
150615
149534
148441
147331
146195
145023
143810
142565
141300
140026
138753
137493
136255
135044
133860
132698
131550
130405
129253
128088
126906
125704
124479
123222
121932
120617
119298
117995
116719
115476
114265
113083
111919
110762
109599
108419
107215
105984
104722
103430
102106
100749
99357.3
97933.3
96485.5
95027.7
93574.3
92136.1
90720.1
89329.6
87964.6
86622.8
85301.9
83999.7
82713
81438
80171.2
78909.5
77651.1
76395.3
75140.6
73886
72631.3
71376.9
70123.5
68871.2
67618
66363.3
65107.4
63851.9
62598.1
61345.6
60094.5
58845.7
57599.5
56355.8
55114.4
53875.8
52640.5
51408.5
50179.7
48955.3
47736.6
46524.4
45318.9
44120.9
42931
41749.9
40577.9
39415.3
38261.7
37116.9
35980.8
34853.4
33734.9
32625.6
31526.4
30437.7
29360.1
28293.8
27239.8
26198
25168.7
206175
206137
206073
205983
205865
205718
205540
205329
205086
204809
204499
204155
203777
203366
202921
202447
201948
201429
200891
200336
199767
199184
198589
197979
197355
196715
196057
195380
194682
193965
193228
192474
191703
190920
190125
189324
188521
187715
186907
186097
185287
184475
183658
182832
181997
181152
180300
179443
178583
177716
176845
175973
175106
174246
173389
172532
171668
170793
169907
169010
168106
167192
166269
165336
164387
163420
162431
161421
160390
159342
158280
157208
156130
155048
153968
152892
151820
150750
149677
148592
147488
146358
145189
143977
142726
141451
140164
138880
137609
136360
135142
133954
132792
131649
130509
129354
128175
126973
125749
124507
123242
121948
120634
119317
118014
116738
115493
114275
113081
111900
110723
109541
108345
107129
105889
104623
103328
102003
100647
99260.4
97846.1
96412.9
94973.4
93539.3
92119.2
90718.7
89341
87986.1
86652.4
85338.4
84041.9
82760.1
81489.2
80225.7
78966.8
77710.3
76455.4
75201.1
73946.7
72692.2
71437.9
70185.3
68933.2
67680.7
66426.7
65171.8
63917.4
62663.7
61410.9
60158.9
58908.8
57660.8
56414.8
55170.8
53929.3
52691.3
51456.2
50224.3
48996.8
47775.3
46560.6
45353.3
44154
42963.2
41781.3
40608.9
39446.1
38292.4
37147.6
36011.3
34883.4
33764
32653.3
31551.8
30460
29378.3
28307.3
27248.4
26202
25169
207803
207760
207687
207583
207450
207287
207092
206864
206600
206298
205956
205572
205148
204685
204185
203655
203100
202528
201941
201339
200723
200095
199455
198802
198134
197451
196752
196035
195300
194547
193775
192988
192186
191371
190546
189714
188881
188047
187211
186374
185537
184701
183862
183019
182171
181318
180461
179601
178740
177874
177004
176131
175259
174391
173527
172663
171792
170911
170018
169117
168208
167290
166361
165418
164459
163483
162487
161473
160441
159394
158335
157267
156193
155118
154046
152978
151912
150847
149776
148693
147591
146463
145299
144091
142844
141568
140276
138985
137708
136452
135228
134037
132877
131738
130602
129445
128253
127029
125783
124523
123251
121958
120648
119334
118032
116754
115504
114276
113065
111866
110669
109467
108255
107027
105779
104508
103211
101886
100533
99152.5
97750.4
96334.6
94915.3
93501.7
92100.5
90716.6
89353
88010.2
86686.8
85381.3
84091.5
82814.7
81547.7
80287.1
79030.3
77774.5
76519.3
75264.8
74010.2
72754.4
71499.3
70246.7
68995.6
67744.3
66491.9
65239.1
63987
62735.7
61484.1
60232.5
58981.8
57732.8
56484.8
55237.8
53993.1
52751.3
51512.2
50276.1
49044.8
47820
46602.9
45393.9
44193.3
43001.6
41819.2
40646.4
39483.2
38329.3
37184.4
36047.9
34919.6
33799.3
32687.3
31583.9
30489.2
29403.9
28328.3
27264.3
26212.8
25174.7
209414
209363
209273
209147
208988
208797
208573
208314
208015
207672
207283
206845
206362
205837
205275
204687
204080
203460
202827
202183
201527
200858
200178
199485
198780
198060
197326
196577
195813
195031
194232
193420
192594
191756
190908
190055
189201
188345
187489
186632
185776
184920
184063
183204
182343
181481
180616
179750
178882
178011
177137
176260
175380
174503
173629
172753
171872
170984
170086
169181
168268
167347
166413
165464
164499
163517
162519
161504
160473
159429
158373
157308
156238
155167
154098
153032
151966
150898
149825
148740
147636
146508
145348
144148
142910
141640
140351
139062
137784
136524
135295
134101
132938
131798
130661
129499
128298
127058
125797
124526
123248
121958
120655
119346
118046
116765
115507
114268
113043
111826
110611
109393
108166
106927
105672
104395
103095
101769
100419
99046.8
97658.4
96260.5
94861
93467
92084.1
90716.9
89368.2
88038.6
86726.5
85429.7
84146.4
82873.7
81609.4
80350.5
79094
77837.8
76581.2
75324.9
74068.2
72811
71555.2
70302.7
69053
67803.9
66554.2
65305
64056.7
62809.5
61561.8
60312.4
59063.1
57814.2
56564.8
55315.3
54067
52820.7
51576.7
50335.8
49100.2
47872.1
46652.6
45442
44240.3
43047.9
41865
40691.6
39527.7
38373.3
37228
36091.3
34962.5
33841.5
32728.3
31623
30525.8
29437.1
28357.4
27288.6
26231.6
25187.9
211014
210949
210833
210671
210468
210229
209955
209645
209293
208898
208453
207957
207413
206826
206206
205569
204920
204260
203588
202907
202214
201510
200794
200067
199328
198577
197814
197039
196250
195446
194628
193796
192952
192097
191233
190364
189492
188620
187748
186875
186003
185132
184260
183387
182513
181640
180766
179890
179013
178133
177252
176367
175480
174593
173705
172817
171924
171027
170124
169214
168298
167372
166434
165481
164513
163530
162532
161519
160492
159451
158398
157336
156267
155196
154127
153059
151989
150915
149836
148745
147638
146508
145351
144159
142932
141672
140393
139110
137835
136575
135342
134143
132974
131826
130682
129513
128305
127058
125790
124515
123237
121952
120656
119354
118055
116770
115504
114255
113017
111786
110557
109325
108085
106835
105571
104287
102983
101657
100312
98949.5
97575.2
96194.3
94812.9
93437.1
92072
90721.9
89388.9
88072.8
86771.6
85482.8
84204.3
82934.2
81670.7
80411.5
79154
77895.5
76635.9
75376.7
74117.9
72859.1
71602.8
70351.1
69104
67858.5
66613.2
65368.7
64125.7
62884.1
61641.7
60397.1
59151.6
57904.2
56654.7
55403.3
54151.7
52900.6
51651.1
50404.9
49164.8
47933.3
46711.6
45499.7
44297.2
43104.1
41920.6
40746.3
39581.4
38425.9
37279.7
36142.2
35012.8
33890.8
32776.3
31669.2
30569.7
29478
28394.7
27321.3
26259.2
25209.7
212621
212534
212381
212167
211902
211594
211247
210865
210446
209987
209484
208932
208334
207694
207028
206352
205669
204975
204270
203554
202827
202089
201341
200583
199815
199037
198250
197452
196643
195820
194985
194137
193278
192409
191532
190649
189764
188877
187991
187104
186219
185334
184449
183564
182679
181793
180908
180023
179135
178246
177354
176461
175565
174667
173767
172865
171960
171053
170143
169229
168307
167376
166434
165479
164510
163528
162532
161521
160497
159460
158410
157349
156281
155210
154138
153065
151989
150909
149822
148725
147612
146480
145324
144138
142920
141672
140405
139132
137863
136605
135371
134167
132990
131832
130675
129497
128283