/*--------------------------------*- C++ -*----------------------------------*\
  =========                 |
  \\      /  F ield         | OpenFOAM: The Open Source CFD Toolbox
   \\    /   O peration     | Website:  https://openfoam.org
    \\  /    A nd           | Version:  9
     \\/     M anipulation  |
\*---------------------------------------------------------------------------*/
FoamFile
{
    format      ascii;
    class       volScalarField;
    location    "0.09";
    object      s_0;
}
// * * * * * * * * * * * * * * * * * * * * * * * * * * * * * * * * * * * * * //

dimensions      [0 0 0 0 0 0 0];

internalField   nonuniform List<scalar> 
12225
(
1
1
1
1
1
1
1
1
1
1
1
1
1
1
1
1
1
0.99999
1
1
1
1
1
1
1
1
1
1
1
1
1
1
1
1
1
1
1
1
1
1
1
1
1
1
1
1
1
1
1
1
1
1
1
1
1
1
1
1
1
1
1
1
1
1
1
1
1
1
1
1
1
1
1
1
1
1
1
1
1
1
1
1
1
1
1
1
1
1
1
1
1
1
1
1
1
1
1
1
1
1
1
1
1
1
1
1
1
1
1
1
1
1
1
1
1
1
1
1
1
1
1
1
1
1
1
1
1
1
1
1
1
1
1
1
1
1
1
1
1
1
1
1
1
1
1
1
1
1
1
1
1
1
1
1
1
1
1
1
1
1
1
1
1
1
1
1
1
1
1
1
1
1
1
1
1
1
1
1
1
1
1
1
1
1
1
1
1
1
1
1
1
1
1
1
1
1
1
1
1
1
1
1
1
1
1
1
1
1
1
1
1
1
1
1
1
1
1
1
1
1
1
1
1
1
1
1
1
1
1
1
1
1
1
1
1
1
1
1
1
1
1
1
1
1
1
1
1
1
1
1
1
1
1
1
1
1
1
1
1
1
1
1
1
1
1
1
1
1
1
1
1
1
1
1
1
1
1
1
1
1
1
1
1
1
1
1
1
1
1
1
1
1
1
1
1
1
1
1
1
1
1
1
1
1
1
1
1
1
1
1
1
1
1
1
1
1
1
1
1
1
1
1
1
1
1
1
1
1
1
1
1
1
1
1
1
1
1
1
1
1
1
1
1
1
1
1
1
1
1
1
1
1
1
1
1
1
1
1
1
1
1
1
1
1
1
1
1
1
1
1
1
1
1
1
1
1
1
1
1
1
1
1
1
1
1
1
1
1
1
1
1
1
1
1
1
1
1
1
1
1
1
1
1
1
1
1
1
1
1
1
1
1
1
1
1
1
1
1
1
1
1
1
1
1
1
1
1
1
1
1
1
1
1
1
1
1
1
1
1
1
1
1
1
1
1
1
1
1
1
1
1
1
1
1
1
1
1
1
1
1
1
1
1
1
1
1
1
1
1
1
1
1
1
1
1
1
1
1
1
1
1
1
1
1
1
1
1
1
1
1
1
1
1
1
1
1
1
1
1
1
1
1
1
1
1
1
1
1
1
1
1
1
1
1
1
1
1
1
1
1
1
1
1
1
1
1
1
1
1
1
1
1
1
1
1
1
1
1
1
1
0.724822
0.710752
0.708634
0.708481
0.709086
0.711066
0.712477
0.713132
0.712896
0.710937
0.71155
0.713782
0.718745
0.730182
0.752057
0.770487
0.781307
0.785711
0.785633
0.78577
0.786081
0.78677
0.787122
0.787263
0.787631
0.787946
0.787528
0.783362
0.772585
0.76736
0.766886
0.769277
0.773446
0.775236
0.778965
0.802445
0.88789
0.919984
0.92598
0.926656
0.925845
0.922727
0.917145
0.909935
0.902002
0.893951
0.886071
0.878724
0.872512
0.867704
0.863856
0.861178
0.860396
0.860256
0.860297
0.860685
0.861696
0.863203
0.864233
0.864915
0.865141
0.865118
0.86421
0.862883
0.861273
0.859243
0.857027
0.8547
0.852216
0.849734
0.847379
0.845127
0.842605
0.840845
0.838512
0.837299
0.836276
0.835645
0.835529
0.835793
0.839427
0.835105
0.798411
0.821432
0.853177
0.886392
0.897385
0.890255
0.878671
0.873643
0.87435
0.883168
0.90143
0.914717
0.925837
0.932322
0.939543
0.943299
0.946989
0.949637
0.949486
0.948531
0.947661
0.946861
0.944533
0.941378
0.936487
0.920474
0.916858
0.919674
0.920959
0.922239
0.923031
0.92405
0.925179
0.926502
0.927573
0.928465
0.929504
0.930169
0.930562
0.93081
0.930888
0.930893
0.930678
0.930331
0.929957
0.929529
0.928978
0.928376
0.927661
0.927116
0.926487
0.925831
0.925403
0.925348
0.925656
0.926358
0.927308
0.928358
0.929434
0.930497
0.931505
0.932425
0.933238
0.934127
0.934958
0.935856
0.936775
0.93765
0.93837
0.938755
0.938818
0.938751
0.938757
0.939168
0.940991
0.946189
0.951617
0.955207
0.956591
0.956489
0.952417
0.922066
0.880334
0.870448
0.871446
0.874763
0.876893
0.878619
0.880206
0.881544
0.882432
0.883038
0.883933
0.885843
0.889461
0.893802
0.898373
0.901446
0.727897
0.711585
0.707812
0.707486
0.709849
0.715519
0.722135
0.731023
0.738132
0.73845
0.734717
0.728148
0.727688
0.730317
0.741201
0.746248
0.751651
0.758321
0.766119
0.768127
0.768244
0.768063
0.767384
0.767498
0.770089
0.774998
0.776321
0.775793
0.773468
0.772388
0.773242
0.777314
0.786181
0.807764
0.854832
0.894608
0.919884
0.928218
0.930242
0.930292
0.928734
0.924626
0.918467
0.911679
0.905227
0.899264
0.895394
0.893986
0.8937
0.895146
0.900475
0.908638
0.916424
0.923892
0.931641
0.938147
0.943192
0.946742
0.949152
0.950374
0.950904
0.950992
0.949846
0.947212
0.943801
0.938042
0.931448
0.922973
0.912881
0.901112
0.888434
0.87766
0.865811
0.85615
0.846901
0.842534
0.838883
0.836724
0.834196
0.834392
0.838665
0.832135
0.798338
0.81972
0.863393
0.910342
0.932777
0.939574
0.934762
0.932519
0.935487
0.94351
0.951558
0.958729
0.964744
0.968292
0.970605
0.971808
0.971721
0.970346
0.969296
0.967568
0.964389
0.956324
0.951704
0.940804
0.919273
0.916977
0.918106
0.921913
0.925212
0.930433
0.935165
0.937876
0.940639
0.942568
0.943447
0.944206
0.944968
0.945663
0.946267
0.946994
0.947557
0.948146
0.948541
0.948764
0.94895
0.949133
0.949393
0.949453
0.949128
0.947721
0.944538
0.939411
0.934045
0.929008
0.925614
0.923507
0.922514
0.922308
0.922536
0.923282
0.924186
0.925273
0.926526
0.927895
0.929426
0.93123
0.933505
0.936339
0.9396
0.942826
0.945495
0.946926
0.946986
0.945556
0.939346
0.934144
0.9329
0.933317
0.937622
0.950367
0.953849
0.950219
0.935182
0.906828
0.891193
0.883245
0.879714
0.878034
0.874679
0.870351
0.868554
0.868645
0.871089
0.876995
0.88192
0.886209
0.889215
0.895223
0.740933
0.723568
0.711535
0.70695
0.708017
0.71058
0.715979
0.73026
0.748967
0.760071
0.762851
0.762651
0.76159
0.758116
0.74237
0.726767
0.727954
0.744762
0.765219
0.778735
0.786528
0.787812
0.786897
0.783798
0.782702
0.782142
0.7813
0.78099
0.783342
0.789286
0.801387
0.825568
0.862251
0.895974
0.923252
0.935794
0.944608
0.947462
0.948096
0.948193
0.947368
0.944324
0.939668
0.937818
0.937404
0.937793
0.940776
0.947023
0.954304
0.96082
0.96669
0.97155
0.975874
0.979003
0.980389
0.980999
0.981164
0.981173
0.981171
0.981207
0.981367
0.981694
0.982311
0.983085
0.98356
0.983758
0.982873
0.980476
0.97647
0.969129
0.956359
0.935458
0.908797
0.882888
0.860584
0.849526
0.842801
0.838872
0.835948
0.834725
0.838625
0.827203
0.793617
0.797417
0.822669
0.871417
0.928245
0.948398
0.952729
0.954424
0.958117
0.962429
0.966806
0.970562
0.973735
0.975246
0.975541
0.975281
0.974009
0.969423
0.966809
0.966367
0.965403
0.962512
0.952956
0.924667
0.916309
0.917601
0.921702
0.930046
0.938054
0.94152
0.943043
0.943831
0.944155
0.944238
0.944196
0.94405
0.944032
0.944635
0.945749
0.946899
0.948423
0.949568
0.950614
0.951329
0.952056
0.952628
0.953912
0.955196
0.957093
0.959415
0.96142
0.962213
0.960344
0.956183
0.948901
0.940273
0.932835
0.92806
0.925294
0.923749
0.922949
0.922566
0.922459
0.922542
0.922817
0.923132
0.923585
0.924453
0.926391
0.930619
0.93689
0.945827
0.955658
0.960935
0.961431
0.960364
0.955666
0.942688
0.936563
0.93658
0.941989
0.951782
0.95306
0.951628
0.947175
0.933793
0.921669
0.916314
0.908285
0.896748
0.886525
0.877365
0.869265
0.864212
0.862796
0.862996
0.864511
0.871746
0.748775
0.740904
0.724547
0.714029
0.709686
0.710718
0.716062
0.730777
0.752639
0.766891
0.771557
0.77166
0.770836
0.768417
0.761059
0.739794
0.734177
0.744989
0.787487
0.800408
0.794743
0.793962
0.796
0.796997
0.796035
0.795485
0.798162
0.80781
0.82653
0.852334
0.879273
0.904129
0.924045
0.945153
0.955022
0.961537
0.967805
0.970265
0.971082
0.971286
0.971145
0.969656
0.967876
0.967643
0.967913
0.968963
0.970985
0.973909
0.976996
0.979423
0.981111
0.982105
0.98243
0.982479
0.982145
0.981046
0.979304
0.977828
0.97668
0.976057
0.975846
0.976173
0.978315
0.981251
0.983789
0.986275
0.987773
0.98839
0.9885
0.987753
0.984713
0.977949
0.962642
0.930362
0.885552
0.858544
0.845951
0.839718
0.837005
0.836396
0.838937
0.827986
0.790563
0.78613
0.796703
0.817641
0.858403
0.939498
0.955305
0.959727
0.963901
0.967626
0.970716
0.973448
0.976159
0.977202
0.977201
0.976229
0.971909
0.958896
0.956331
0.958523
0.96311
0.962111
0.946815
0.917587
0.916439
0.920055
0.93034
0.937984
0.940512
0.941098
0.941015
0.938548
0.934983
0.931256
0.928211
0.926879
0.926494
0.927793
0.931132
0.934642
0.940106
0.944258
0.947312
0.948983
0.950401
0.951082
0.952122
0.953079
0.955054
0.958296
0.962267
0.965447
0.966728
0.966459
0.965396
0.96292
0.958628
0.952814
0.946641
0.941134
0.936463
0.932481
0.929311
0.926976
0.925491
0.92449
0.923811
0.923423
0.923301
0.92343
0.924219
0.926574
0.933458
0.948347
0.961389
0.968061
0.968767
0.966086
0.952258
0.940481
0.938752
0.941347
0.95048
0.958917
0.961567
0.961416
0.959056
0.951036
0.94496
0.940961
0.934316
0.917097
0.893982
0.878281
0.867619
0.859952
0.855935
0.855648
0.738673
0.718524
0.700204
0.6981
0.700034
0.706943
0.72671
0.758482
0.772085
0.774752
0.774369
0.772476
0.769426
0.766553
0.759746
0.739948
0.736405
0.762835
0.810242
0.810414
0.80956
0.818997
0.824291
0.824117
0.82372
0.829109
0.846401
0.87194
0.896536
0.914441
0.929079
0.944851
0.959407
0.96957
0.974142
0.978235
0.981302
0.982212
0.982424
0.982311
0.981212
0.979939
0.978391
0.97747
0.977344
0.97749
0.977908
0.978625
0.979316
0.979585
0.979656
0.978856
0.976457
0.973019
0.968427
0.963228
0.958395
0.954471
0.952449
0.951756
0.95165
0.952384
0.95493
0.958979
0.964405
0.971242
0.97875
0.9846
0.987541
0.988832
0.989131
0.987719
0.984389
0.973539
0.94747
0.889471
0.860818
0.847458
0.842289
0.840788
0.840914
0.834934
0.799005
0.790814
0.805192
0.807141
0.815424
0.885466
0.945302
0.958954
0.964838
0.969168
0.972893
0.976021
0.978583
0.979671
0.979523
0.976652
0.963239
0.943004
0.941544
0.945153
0.957805
0.960826
0.933235
0.915841
0.917353
0.925535
0.935902
0.93888
0.939412
0.937024
0.929843
0.917499
0.908272
0.902649
0.898557
0.896983
0.896624
0.899508
0.906082
0.913733
0.923677
0.934164
0.941897
0.945779
0.94909
0.950675
0.951665
0.952351
0.953549
0.955823
0.960692
0.965509
0.968514
0.96917
0.969036
0.968437
0.967566
0.966589
0.964649
0.960172
0.954442
0.948829
0.943653
0.939294
0.935788
0.933046
0.930823
0.928935
0.927353
0.926233
0.925755
0.925826
0.926989
0.931815
0.945626
0.960749
0.97014
0.972145
0.970342
0.958329
0.943863
0.940985
0.942876
0.952333
0.9625
0.967868
0.968768
0.967893
0.963992
0.961088
0.959046
0.955233
0.946554
0.921825
0.892261
0.872891
0.862025
0.856989
0.703498
0.692441
0.693152
0.696046
0.705219
0.733458
0.766703
0.777073
0.777138
0.774172
0.763064
0.748339
0.748146
0.752814
0.752191
0.737833
0.739919
0.797453
0.827054
0.830009
0.840833
0.851765
0.85218
0.85016
0.851888
0.865986
0.894578
0.923922
0.939059
0.947508
0.956914
0.96833
0.977993
0.982332
0.984543
0.986244
0.986946
0.987061
0.986422
0.985125
0.983735
0.982094
0.980535
0.979068
0.978219
0.977725
0.977561
0.977227
0.976331
0.974233
0.970301
0.965528
0.959337
0.952585
0.946719
0.943726
0.942735
0.94245
0.942466
0.942891
0.94373
0.944945
0.946482
0.948235
0.95049
0.953509
0.957755
0.963776
0.972983
0.980755
0.985831
0.987741
0.988089
0.985541
0.978939
0.956462
0.901381
0.865204
0.850362
0.845905
0.844952
0.843841
0.826321
0.815417
0.821028
0.810489
0.808166
0.824441
0.901938
0.947682
0.962147
0.968633
0.97392
0.979563
0.98358
0.98429
0.983669
0.975766
0.947314
0.93108
0.929677
0.933159
0.948938
0.958647
0.924116
0.915172
0.919443
0.931633
0.936999
0.937881
0.934572
0.92165
0.903531
0.89519
0.888073
0.882742
0.879313
0.876631
0.87575
0.876039
0.882527
0.894776
0.907589
0.923962
0.936383
0.944031
0.94836
0.950606
0.951724
0.95244
0.95345
0.955446
0.960193
0.965522
0.969339
0.970743
0.970804
0.970697
0.970378
0.96959
0.967836
0.963737
0.957923
0.952699
0.948196
0.944558
0.941392
0.938731
0.936561
0.934691
0.932934
0.931332
0.930183
0.929736
0.929873
0.93161
0.938675
0.952326
0.965883
0.974057
0.975552
0.97351
0.960479
0.945591
0.94249
0.944031
0.954256
0.965582
0.971408
0.972902
0.972704
0.97144
0.970415
0.969466
0.967416
0.962154
0.947389
0.912031
0.886595
0.86942
0.689991
0.693965
0.700537
0.712491
0.743313
0.776009
0.782644
0.7805
0.771395
0.745076
0.71028
0.705508
0.710687
0.730969
0.740412
0.732893
0.755689
0.823541
0.845459
0.853055
0.870823
0.878521
0.877164
0.874223
0.87659
0.893458
0.927218
0.952871
0.962634
0.967708
0.973398
0.981334
0.986147
0.9879
0.988639
0.988909
0.988904
0.988049
0.986838
0.985247
0.983661
0.981793
0.979964
0.978072
0.976495
0.974699
0.972329
0.969803
0.967001
0.96316
0.957319
0.949624
0.943057
0.940458
0.939402
0.939077
0.939047
0.939446
0.940441
0.941586
0.942888
0.944362
0.945907
0.947397
0.948982
0.950697
0.952923
0.955377
0.958577
0.963206
0.969418
0.977771
0.983836
0.986688
0.98699
0.983301
0.969537
0.928098
0.876586
0.854017
0.847647
0.846029
0.840594
0.837801
0.828837
0.812399
0.807325
0.812591
0.853232
0.923889
0.953185
0.964906
0.972738
0.979896
0.985993
0.987983
0.986167
0.967964
0.934092
0.9269
0.925739
0.928381
0.945894
0.953938
0.919365
0.915235
0.922443
0.933903
0.936456
0.934558
0.922848
0.904038
0.895126
0.888815
0.88094
0.875404
0.870906
0.865917
0.86332
0.862338
0.864885
0.878208
0.894859
0.916654
0.932314
0.942583
0.948083
0.950881
0.952523
0.95341
0.954227
0.955908
0.960502
0.967069
0.971
0.972516
0.972595
0.972395
0.971816
0.970338
0.967835
0.962937
0.957514
0.952767
0.949511
0.946887
0.944948
0.943452
0.941954
0.94028
0.938303
0.936116
0.934202
0.933174
0.933083
0.934235
0.94016
0.950858
0.962562
0.972974
0.978175
0.978508
0.975297
0.958975
0.945749
0.94328
0.945243
0.956712
0.96836
0.974028
0.975982
0.976187
0.976036
0.975722
0.975225
0.974051
0.970808
0.96149
0.93975
0.906593
0.699849
0.714523
0.729107
0.758887
0.790609
0.790543
0.785579
0.769243
0.727348
0.679112
0.664189
0.667511
0.684852
0.722396
0.732863
0.734451
0.781267
0.844619
0.864969
0.875356
0.895457
0.902169
0.900458
0.89667
0.897901
0.911977
0.944191
0.967914
0.975665
0.979326
0.982532
0.987131
0.989169
0.989702
0.989802
0.989575
0.988925
0.987834
0.986205
0.984054
0.981671
0.978825
0.975675
0.972419
0.969704
0.967206
0.96543
0.963462
0.958981
0.95186
0.943859
0.939506
0.937616
0.93689
0.936685
0.936691
0.937212
0.93836
0.939535
0.940857
0.942644
0.944731
0.947271
0.950434
0.952469
0.953432
0.95417
0.955254
0.956964
0.959356
0.962034
0.96514
0.969589
0.97733
0.983844
0.987059
0.987384
0.982986
0.963199
0.90905
0.875125
0.856668
0.850987
0.846163
0.834777
0.819852
0.811623
0.812652
0.835757
0.899003
0.939406
0.957657
0.9692
0.978456
0.986029
0.989056
0.986629
0.957608
0.92757
0.926296
0.926287
0.928708
0.946294
0.948942
0.916799
0.91549
0.925507
0.934162
0.935144
0.92986
0.913608
0.901196
0.895931
0.890643
0.883097
0.872925
0.859534
0.84986
0.842762
0.839219
0.838572
0.853191
0.877796
0.907336
0.928988
0.941447
0.94816
0.952037
0.95386
0.954738
0.955785
0.957894
0.963118
0.970157
0.973875
0.974485
0.974313
0.973903
0.97253
0.969528
0.96416
0.958089
0.953847
0.951664
0.949941
0.949774
0.950428
0.952011
0.952689
0.952475
0.951105
0.947827
0.943774
0.940407
0.939039
0.939416
0.944138
0.954722
0.964307
0.973645
0.980076
0.981994
0.981276
0.975015
0.954869
0.94507
0.943732
0.946718
0.960125
0.971237
0.976324
0.978229
0.978632
0.978653
0.97858
0.978332
0.977677
0.975763
0.970694
0.952278
0.724767
0.760328
0.785111
0.810907
0.805446
0.791572
0.76775
0.718595
0.672815
0.649018
0.645351
0.650745
0.679194
0.721264
0.730025
0.740758
0.80706
0.864049
0.883548
0.8945
0.915063
0.922618
0.921756
0.917342
0.917205
0.925949
0.951799
0.975121
0.982062
0.984987
0.986854
0.989077
0.989893
0.99001
0.989877
0.989353
0.988196
0.986138
0.982999
0.978681
0.974285
0.970474
0.967268
0.965496
0.963936
0.962656
0.960607
0.956376
0.949256
0.941903
0.937441
0.935668
0.934933
0.934653
0.934574
0.934648
0.935124
0.935577
0.936348
0.938031
0.94024
0.943122
0.946891
0.951313
0.956649
0.961585
0.963876
0.963167
0.962066
0.961591
0.962187
0.963666
0.96556
0.96779
0.971127
0.977949
0.985445
0.989366
0.990213
0.987159
0.973532
0.946357
0.922239
0.906906
0.892526
0.871159
0.845152
0.832967
0.84072
0.885386
0.925947
0.948653
0.963698
0.975285
0.984634
0.989166
0.986326
0.949888
0.924052
0.930495
0.93109
0.931206
0.947562
0.94484
0.915347
0.915686
0.927115
0.933904
0.933793
0.925413
0.909542
0.902756
0.900519
0.899702
0.893471
0.875835
0.852603
0.832123
0.819746
0.812541
0.810529
0.823709
0.859072
0.897408
0.924969
0.940171
0.948572
0.953067
0.955129
0.956165
0.957554
0.960538
0.967281
0.973521
0.976963
0.977369
0.977093
0.975526
0.972276
0.964955
0.957689
0.953881
0.952347
0.951813
0.952558
0.954894
0.959931
0.965059
0.969071
0.970189
0.969835
0.968345
0.964011
0.957108
0.951674
0.949568
0.950204
0.955998
0.966908
0.97642
0.983264
0.98597
0.986001
0.983663
0.970638
0.950908
0.944328
0.944114
0.949287
0.964695
0.974166
0.978275
0.979753
0.980107
0.980195
0.980399
0.980409
0.98022
0.979378
0.974743
0.737503
0.806086
0.827167
0.823607
0.805798
0.761107
0.722997
0.679417
0.650533
0.638084
0.638599
0.650828
0.684898
0.721507
0.730651
0.754491
0.828031
0.88169
0.900605
0.910777
0.929041
0.939755
0.940203
0.93614
0.93463
0.938423
0.955269
0.977611
0.984724
0.987067
0.98826
0.989412
0.989878
0.989908
0.989445
0.987986
0.984763
0.979645
0.974609
0.969983
0.967027
0.964853
0.963134
0.961999
0.960807
0.95897
0.954916
0.948614
0.94169
0.936551
0.934341
0.933298
0.932749
0.932318
0.931936
0.931743
0.931674
0.931726
0.932047
0.932666
0.933816
0.936118
0.940103
0.946245
0.954248
0.962734
0.96986
0.973981
0.97567
0.973773
0.970715
0.968249
0.967293
0.9675
0.968586
0.970218
0.97273
0.978952
0.987348
0.992686
0.994538
0.994648
0.99241
0.988769
0.983459
0.971222
0.940025
0.897627
0.880037
0.888654
0.916771
0.93773
0.955374
0.969344
0.980844
0.98845
0.986203
0.946894
0.921379
0.936676
0.940472
0.937585
0.950923
0.939127
0.914479
0.915753
0.928249
0.933502
0.932209
0.922092
0.910486
0.907848
0.910009
0.910502
0.902937
0.877057
0.839344
0.814331
0.800909
0.796872
0.797377
0.80728
0.839941
0.888953
0.921806
0.939589
0.949007
0.954414
0.957335
0.959044
0.961199
0.965889
0.973637
0.978749
0.98023
0.980111
0.97876
0.975736
0.968161
0.958676
0.953963
0.952475
0.95255
0.953666
0.957396
0.966037
0.975915
0.983373
0.988363
0.990533
0.990653
0.990127
0.988526
0.984572
0.976241
0.968156
0.964106
0.964151
0.968072
0.976994
0.984509
0.988604
0.989455
0.988706
0.983246
0.962727
0.947475
0.94378
0.944918
0.954567
0.969384
0.9768
0.979745
0.980731
0.980988
0.981182
0.981781
0.98275
0.982888
0.981946
0.740299
0.820226
0.839251
0.826452
0.787346
0.734249
0.696839
0.658771
0.642237
0.634865
0.640395
0.65579
0.695194
0.72185
0.732838
0.769756
0.843312
0.896183
0.915446
0.92485
0.938356
0.952456
0.95466
0.952582
0.949728
0.950325
0.958599
0.976929
0.985051
0.987387
0.988406
0.989251
0.989549
0.989234
0.987757
0.984528
0.979512
0.973761
0.96912
0.965661
0.963596
0.961355
0.960379
0.959402
0.957851
0.954442
0.949418
0.942845
0.936913
0.933852
0.932462
0.931756
0.931312
0.93102
0.930888
0.930845
0.930848
0.930887
0.930949
0.931094
0.931418
0.932054
0.933349
0.936099
0.942642
0.955021
0.968132
0.975791
0.980365
0.98269
0.982944
0.97996
0.976854
0.974176
0.971991
0.970858
0.970957
0.972121
0.974324
0.980029
0.988633
0.994536
0.996839
0.99767
0.997743
0.996634
0.992065
0.977268
0.943608
0.920812
0.919389
0.930212
0.944524
0.959624
0.974049
0.986055
0.98698
0.946571
0.916954
0.943208
0.947969
0.945537
0.952305
0.930467
0.913211
0.915661
0.928497
0.933099
0.931816
0.922278
0.913382
0.913104
0.916803
0.917734
0.908309
0.873582
0.826044
0.803698
0.794482
0.792575
0.794024
0.801998
0.831587
0.885612
0.920998
0.941403
0.952469
0.958731
0.962227
0.964422
0.967899
0.975103
0.980564
0.982593
0.982493
0.981391
0.979004
0.972975
0.961623
0.954479
0.952189
0.952149
0.953025
0.95675
0.967144
0.981276
0.989321
0.993702
0.996051
0.997317
0.99771
0.997677
0.997434
0.996793
0.995374
0.991781
0.984661
0.97876
0.977409
0.979034
0.984472
0.989657
0.991676
0.991647
0.989415
0.977181
0.954326
0.945024
0.94389
0.947494
0.962128
0.973774
0.978892
0.980743
0.981309
0.981557
0.982044
0.983625
0.985519
0.985723
0.740472
0.825211
0.844771
0.826856
0.77433
0.721901
0.679423
0.651338
0.641089
0.640909
0.649024
0.667341
0.702554
0.722789
0.737118
0.781353
0.853244
0.906167
0.92788
0.936691
0.945312
0.959492
0.965594
0.96537
0.962334
0.961059
0.963655
0.974692
0.984706
0.987248
0.988187
0.988629
0.988572
0.987476
0.983851
0.977566
0.973268
0.969624
0.965979
0.963013
0.961604
0.960276
0.959129
0.957513
0.955022
0.950807
0.944852
0.938976
0.934494
0.932412
0.931481
0.93105
0.930861
0.930797
0.930789
0.93084
0.930888
0.930887
0.930873
0.930906
0.931047
0.931325
0.931899
0.933033
0.935076
0.940196
0.95579
0.971875
0.980022
0.98434
0.986488
0.986923
0.985557
0.984424
0.982646
0.979797
0.976146
0.973735
0.973043
0.973893
0.976101
0.982053
0.990389
0.995546
0.997832
0.998609
0.9986
0.997235
0.990733
0.969831
0.946206
0.938358
0.941535
0.952819
0.96476
0.98076
0.987244
0.952392
0.910535
0.94701
0.951661
0.949913
0.951744
0.924078
0.911866
0.915312
0.928266
0.932927
0.932
0.923511
0.915513
0.915206
0.920437
0.922871
0.917346
0.879371
0.830941
0.804997
0.794338
0.792452
0.793722
0.800906
0.829259
0.885453
0.925872
0.948035
0.959054
0.965196
0.968994
0.972163
0.978048
0.982588
0.984053
0.984001
0.983215
0.981328
0.976719
0.965656
0.955735
0.952073
0.951571
0.95203
0.954732
0.964099
0.980188
0.989478
0.994462
0.997057
0.998379
0.99902
0.999271
0.999306
0.999281
0.999184
0.99893
0.998309
0.9968
0.993401
0.988867
0.986376
0.986976
0.990044
0.992881
0.993417
0.992606
0.98686
0.965506
0.948387
0.943993
0.944915
0.954321
0.969407
0.977198
0.980323
0.981328
0.981691
0.9822
0.983616
0.98698
0.988226
0.74171
0.830742
0.850276
0.827596
0.768778
0.712724
0.669208
0.650066
0.646845
0.651285
0.664697
0.680666
0.707799
0.724326
0.741529
0.790413
0.854277
0.910151
0.938994
0.947928
0.953223
0.961535
0.971584
0.974312
0.973233
0.970524
0.969879
0.973866
0.982998
0.986613
0.987131
0.986665
0.985033
0.982433
0.979113
0.975271
0.970294
0.965986
0.962961
0.961487
0.959988
0.958084
0.956818
0.954846
0.951564
0.947373
0.942156
0.936738
0.933206
0.931731
0.931147
0.930924
0.930866
0.9309
0.931242
0.931652
0.931787
0.931583
0.931246
0.931069
0.931034
0.931224
0.931646
0.932512
0.933583
0.935367
0.94013
0.957416
0.974123
0.982749
0.987017
0.989079
0.98969
0.989075
0.989431
0.989822
0.988669
0.985121
0.98013
0.97608
0.974748
0.975525
0.978306
0.985421
0.992791
0.996792
0.998579
0.999038
0.998816
0.996723
0.988313
0.969172
0.955859
0.954705
0.960751
0.972216
0.985811
0.967394
0.908169
0.945674
0.952347
0.950901
0.946998
0.919235
0.911137
0.914597
0.927556
0.932679
0.932442
0.926756
0.918322
0.918592
0.922862
0.925736
0.922902
0.90188
0.851651
0.816554
0.799287
0.795256
0.796366
0.803805
0.836668
0.897104
0.935715
0.956092
0.966763
0.973146
0.977788
0.98189
0.984214
0.985093
0.98499
0.984427
0.982917
0.978937
0.96865
0.956806
0.952289
0.951308
0.951447
0.953145
0.959777
0.976202
0.987194
0.993462
0.996821
0.998475
0.999204
0.999483
0.999561
0.999562
0.999553
0.999525
0.999473
0.999362
0.999068
0.998312
0.996372
0.993687
0.99203
0.992197
0.993609
0.994558
0.994337
0.991597
0.977401
0.95447
0.945127
0.944348
0.948816
0.964183
0.974825
0.979505
0.981167
0.981722
0.982305
0.983687
0.987574
0.990067
0.746854
0.839969
0.858604
0.832118
0.767016
0.707627
0.665814
0.652714
0.652356
0.662455
0.677978
0.689619
0.71174
0.727829
0.750685
0.801497
0.852279
0.908631
0.945276
0.957835
0.96295
0.96626
0.972778
0.978709
0.98025
0.97929
0.977154
0.976169
0.980584
0.984835
0.985874
0.985468
0.98303
0.978174
0.972918
0.970619
0.968663
0.965037
0.961443
0.95968
0.958716
0.956865
0.95487
0.952384
0.94909
0.944667
0.940215
0.935942
0.933067
0.931759
0.93117
0.930944
0.930922
0.931206
0.93197
0.932374
0.93224
0.931968
0.931699
0.931469
0.931372
0.931393
0.931651
0.932515
0.93348
0.934628
0.93632
0.941375
0.95921
0.975089
0.984186
0.988968
0.991395
0.992879
0.993506
0.994054
0.995087
0.995152
0.99385
0.98917
0.981525
0.976695
0.975914
0.977037
0.981484
0.989586
0.99525
0.998122
0.999176
0.999332
0.99887
0.996055
0.985301
0.970165
0.965349
0.968002
0.980586
0.980751
0.910176
0.936943
0.951754
0.950892
0.942089
0.915114
0.90969
0.913001
0.925777
0.932148
0.932717
0.930408
0.924324
0.924448
0.926845
0.92904
0.927953
0.918372
0.881588
0.83617
0.8097
0.802466
0.803591
0.812731
0.851775
0.91055
0.946279
0.965657
0.976806
0.982141
0.984407
0.985413
0.985741
0.985586
0.985107
0.983729
0.980203
0.971172
0.958008
0.952794
0.951367
0.951335
0.952432
0.957134
0.971027
0.983866
0.991554
0.995892
0.99819
0.999218
0.999526
0.999591
0.999582
0.999514
0.999442
0.999296
0.999282
0.999303
0.99927
0.999118
0.998712
0.997664
0.995783
0.99504
0.995181
0.995669
0.995617
0.994253
0.986383
0.962607
0.947677
0.944528
0.946452
0.958496
0.971992
0.978397
0.980881
0.981734
0.982467
0.984055
0.988162
0.991282
0.750186
0.848244
0.866075
0.837913
0.772969
0.705351
0.665483
0.656331
0.657866
0.672459
0.686273
0.694691
0.713589
0.73189
0.757753
0.802604
0.845853
0.900162
0.944845
0.961421
0.970102
0.973954
0.975859
0.979878
0.982784
0.983606
0.983232
0.982034
0.981033
0.983675
0.985101
0.985271
0.983214
0.978233
0.971764
0.96711
0.964441
0.962881
0.959544
0.956421
0.955133
0.954393
0.952918
0.950723
0.947983
0.944207
0.939992
0.936236
0.933412
0.93202
0.931351
0.931054
0.931045
0.931166
0.931546
0.931877
0.931873
0.931829
0.931728
0.931605
0.931643
0.931807
0.932233
0.933408
0.934519
0.935025
0.935971
0.937745
0.943584
0.960936
0.974899
0.984098
0.989819
0.993121
0.995203
0.996655
0.997551
0.998124
0.998151
0.997641
0.995342
0.987282
0.979316
0.976633
0.976685
0.978941
0.986529
0.993652
0.997488
0.999121
0.999546
0.999477
0.998314
0.992145
0.977248
0.971103
0.973562
0.982967
0.926726
0.912258
0.948398
0.950146
0.937864
0.913562
0.908736
0.911418
0.923132
0.931027
0.93265
0.932245
0.929984
0.929911
0.930917
0.931942
0.931442
0.926813
0.906531
0.856822
0.822279
0.811679
0.812552
0.82354
0.868893
0.925632
0.959893
0.977338
0.983143
0.985138
0.985821
0.985981
0.985841
0.98528
0.983693
0.980004
0.971765
0.958696
0.953329
0.951684
0.951538
0.952491
0.956401
0.967849
0.98188
0.991057
0.996043
0.998402
0.999323
0.999608
0.99962
0.999572
0.999386
0.998857
0.998385
0.997468
0.997489
0.997756
0.998408
0.998754
0.998741
0.998585
0.997994
0.996951
0.99662
0.996638
0.996585
0.995829
0.991251
0.972019
0.951801
0.945256
0.945683
0.953768
0.969063
0.977225
0.980606
0.981794
0.982806
0.985079
0.989163
0.992272
0.751164
0.852487
0.873412
0.84916
0.782617
0.710749
0.668927
0.659359
0.66136
0.677739
0.691821
0.699006
0.716081
0.736552
0.761393
0.798158
0.824935
0.871902
0.936291
0.959922
0.971018
0.977536
0.981088
0.982934
0.984908
0.985878
0.985791
0.985419
0.984652
0.98429
0.985056
0.985291
0.984107
0.980252
0.973143
0.967391
0.963517
0.960698
0.957834
0.954798
0.952152
0.950397
0.949097
0.947598
0.945663
0.943172
0.9401
0.937011
0.934424
0.932773
0.931891
0.931427
0.931307
0.931322
0.931414
0.931507
0.931561
0.931594
0.931618
0.931678
0.931846
0.932252
0.933085
0.934768
0.936553
0.937183
0.937098
0.937426
0.939241
0.946901
0.961935
0.973614
0.982788
0.989675
0.99411
0.996641
0.998047
0.998818
0.999219
0.999297
0.999038
0.99764
0.991466
0.981938
0.977318
0.976436
0.977485
0.983859
0.99226
0.996927
0.998994
0.999645
0.99969
0.999057
0.994486
0.979785
0.973555
0.978419
0.969324
0.896741
0.935266
0.9467
0.927849
0.91054
0.907528
0.909277
0.917961
0.928537
0.932027
0.932573
0.93241
0.932564
0.933058
0.933225
0.932789
0.929817
0.915622
0.86689
0.829629
0.819454
0.821302
0.838857
0.898043
0.950397
0.974438
0.98236
0.984848
0.98563
0.985812
0.985504
0.984535
0.982407
0.978101
0.969359
0.958261
0.953572
0.952048
0.951863
0.952868
0.956791
0.967221
0.982867
0.992502
0.996911
0.99879
0.999506
0.999712
0.999698
0.999591
0.999226
0.998305
0.996169
0.993851
0.990463
0.990437
0.991261
0.99345
0.996051
0.997735
0.998281
0.998216
0.997817
0.997333
0.997195
0.997096
0.996643
0.993931
0.980385
0.956908
0.946676
0.945793
0.950563
0.965961
0.976093
0.980413
0.98189
0.983407
0.986397
0.990154
0.993078
0.75076
0.854368
0.880966
0.862227
0.800787
0.724763
0.674883
0.662268
0.662865
0.677892
0.694079
0.701427
0.716313
0.738393
0.761842
0.787489
0.802094
0.832989
0.898651
0.94887
0.968218
0.977101
0.981958
0.984935
0.986861
0.988018
0.988028
0.987659
0.986903
0.986179
0.985912
0.985825
0.985529
0.984149
0.979554
0.970971
0.964979
0.961097
0.957987
0.954953
0.952077
0.949577
0.947486
0.94567
0.943902
0.941981
0.940127
0.937857
0.935822
0.93423
0.933155
0.932432
0.932077
0.931869
0.93177
0.931774
0.931796
0.931848
0.931962
0.932225
0.93278
0.93386
0.935593
0.93756
0.938741
0.939215
0.939025
0.938517
0.938745
0.941128
0.951036
0.961922
0.97152
0.980956
0.988757
0.993907
0.996871
0.998477
0.999258
0.999562
0.999625
0.99947
0.998535
0.994158
0.984074
0.977869
0.976159
0.976702
0.982149
0.991547
0.996712
0.998954
0.999698
0.999781
0.999301
0.994718
0.979651
0.976479
0.977342
0.91711
0.90474
0.936277
0.922507
0.907795
0.9048
0.90547
0.909492
0.92203
0.929514
0.931902
0.932493
0.932989
0.933242
0.933218
0.93263
0.929384
0.913788
0.863807
0.831277
0.825561
0.831315
0.865511
0.934941
0.968833
0.980144
0.983753
0.985016
0.984885
0.98407
0.982305
0.979038
0.973598
0.964643
0.95707
0.95358
0.952337
0.952194
0.953294
0.957493
0.968367
0.985231
0.993663
0.99743
0.999024
0.999627
0.999794
0.999777
0.99964
0.999106
0.997669
0.994415
0.986997
0.979624
0.971093
0.970567
0.972372
0.97739
0.985996
0.992779
0.996341
0.997649
0.997669
0.99744
0.9973
0.997247
0.997013
0.995397
0.986697
0.962662
0.948797
0.946193
0.949025
0.962871
0.975046
0.980195
0.982206
0.984472
0.987571
0.990999
0.993733
0.746255
0.854289
0.88715
0.876055
0.822971
0.746277
0.685017
0.665352
0.663582
0.674546
0.693763
0.701853
0.715548
0.737858
0.761063
0.780429
0.789742
0.807223
0.846667
0.907794
0.953407
0.971666
0.980142
0.984489
0.986936
0.988522
0.989237
0.989356
0.988958
0.988332
0.987458
0.986817
0.986729
0.986333
0.98488
0.980897
0.972542
0.964523
0.95964
0.956036
0.952782
0.949963
0.947592
0.945596
0.943764
0.941938
0.940245
0.93848
0.936833
0.935466
0.934374
0.933616
0.933007
0.932714
0.932491
0.932439
0.932487
0.932662
0.93307
0.934011
0.935388
0.937534
0.939581
0.941381
0.941818
0.941534
0.940306
0.939259
0.939084
0.939874
0.945114
0.95352
0.96031
0.969101
0.978873
0.987145
0.992864
0.99644
0.998466
0.999384
0.999665
0.999714
0.9996
0.998915
0.995532
0.985294
0.978124
0.976089
0.976643
0.982376
0.992034
0.997038
0.999099
0.999754
0.999804
0.999163
0.99251
0.979313
0.977518
0.960126
0.906795
0.910838
0.912495
0.905972
0.902968
0.902802
0.904147
0.909842
0.922982
0.928812
0.931182
0.932203
0.932277
0.931907
0.9302