/*--------------------------------*- C++ -*----------------------------------*\
  =========                 |
  \\      /  F ield         | OpenFOAM: The Open Source CFD Toolbox
   \\    /   O peration     | Website:  https://openfoam.org
    \\  /    A nd           | Version:  9
     \\/     M anipulation  |
\*---------------------------------------------------------------------------*/
FoamFile
{
    format      ascii;
    class       volVectorField;
    location    "0.09";
    object      U;
}
// * * * * * * * * * * * * * * * * * * * * * * * * * * * * * * * * * * * * * //

dimensions      [0 1 -1 0 0 0 0];

internalField   nonuniform List<vector> 
12225
(
(9.54153 0.0516307 0)
(9.39769 0.0889785 0)
(9.13244 0.0796679 0)
(8.8178 0.074126 0)
(8.4962 0.0644316 0)
(8.21188 0.0488192 0)
(7.97428 0.0361929 0)
(7.74607 0.0340439 0)
(7.48392 0.0411974 0)
(7.18645 0.0477982 0)
(6.88417 0.0465562 0)
(6.61687 0.0390301 0)
(6.38234 0.0356134 0)
(6.17464 0.0411674 0)
(5.92842 0.0592044 0)
(5.6765 0.0719093 0)
(5.33327 0.0957953 0)
(5.01742 0.0897104 0)
(9.99629 0.0216525 0)
(10.0675 0.0286877 0)
(10.1174 0.0461916 0)
(10.1325 0.0680192 0)
(10.1217 0.0766406 0)
(10.0909 0.0753484 0)
(10.0554 0.0793899 0)
(10.0159 0.0940963 0)
(9.96241 0.113694 0)
(9.89387 0.127452 0)
(9.81727 0.127556 0)
(9.7438 0.118598 0)
(9.67141 0.10882 0)
(9.60227 0.10987 0)
(9.52039 0.122146 0)
(9.42954 0.143107 0)
(9.31157 0.176962 0)
(9.17773 0.214065 0)
(10.2593 0.0767831 0)
(10.0977 0.101056 0)
(10.0076 0.0604186 0)
(10.0701 0.0682371 0)
(10.1609 0.0789071 0)
(10.1914 0.0733013 0)
(10.1675 0.0632939 0)
(10.1321 0.0625976 0)
(10.1141 0.0749641 0)
(10.1133 0.0906803 0)
(10.1126 0.0972933 0)
(10.0949 0.0934978 0)
(10.0567 0.0884931 0)
(10.0053 0.0935428 0)
(9.95537 0.115296 0)
(9.91171 0.149575 0)
(9.87919 0.194897 0)
(9.85452 0.245543 0)
(10.1453 0.0814711 0)
(10.1431 0.120193 0)
(10.1717 0.0666334 0)
(10.1801 0.0357273 0)
(10.1833 0.0396967 0)
(10.1727 0.0635689 0)
(10.1263 0.090445 0)
(10.0517 0.11175 0)
(9.98421 0.125795 0)
(9.94772 0.132623 0)
(9.93576 0.133353 0)
(9.9269 0.132517 0)
(9.90673 0.135894 0)
(9.87597 0.147208 0)
(9.84364 0.166551 0)
(9.82007 0.190378 0)
(9.80924 0.219112 0)
(9.81806 0.252418 0)
(9.96899 0.106994 0)
(9.95322 0.0831227 0)
(10.1086 0.0419522 0)
(10.2161 0.0548373 0)
(10.1996 0.0802481 0)
(10.1104 0.0983819 0)
(10.017 0.107835 0)
(9.95532 0.1084 0)
(9.9325 0.105231 0)
(9.93872 0.104284 0)
(9.95318 0.106706 0)
(9.95557 0.111596 0)
(9.93518 0.118916 0)
(9.89522 0.129887 0)
(9.84664 0.145916 0)
(9.80488 0.167833 0)
(9.77731 0.195912 0)
(9.77286 0.229185 0)
(10.2526 0.19229 0)
(10.0454 0.0975796 0)
(9.91679 0.0130262 0)
(9.89656 0.0238948 0)
(9.92364 0.0731262 0)
(9.95427 0.116432 0)
(9.96699 0.138816 0)
(9.95843 0.141944 0)
(9.93896 0.13448 0)
(9.92082 0.126155 0)
(9.90848 0.12463 0)
(9.89817 0.13356 0)
(9.88471 0.152059 0)
(9.86572 0.175842 0)
(9.84226 0.199142 0)
(9.81924 0.219764 0)
(9.80126 0.235421 0)
(9.79306 0.248908 0)
(9.87674 0.138833 0)
(10.0164 0.163558 0)
(10.0325 0.0886433 0)
(10.0123 0.0459242 0)
(9.99953 0.0510535 0)
(10.0181 0.0814044 0)
(10.0607 0.106856 0)
(10.1005 0.117098 0)
(10.1112 0.118023 0)
(10.0841 0.118311 0)
(10.0292 0.122568 0)
(9.96675 0.131835 0)
(9.91404 0.145221 0)
(9.8804 0.161649 0)
(9.86597 0.179456 0)
(9.86425 0.197584 0)
(9.87264 0.215498 0)
(9.87898 0.232936 0)
(10.2382 0.0736038 0)
(10.2754 0.0617615 0)
(10.2023 0.0303375 0)
(10.0548 0.0493859 0)
(9.94521 0.0800353 0)
(9.94487 0.0980409 0)
(10.0172 0.108493 0)
(10.0833 0.121949 0)
(10.0952 0.140517 0)
(10.0589 0.158991 0)
(10.0094 0.172026 0)
(9.9774 0.17909 0)
(9.97436 0.183697 0)
(9.99401 0.188949 0)
(10.0238 0.197005 0)
(10.0505 0.207211 0)
(10.0668 0.220061 0)
(10.0711 0.234196 0)
(9.97519 0.112332 0)
(9.98589 0.171791 0)
(10.0165 0.167449 0)
(10.028 0.1292 0)
(10.0157 0.0770691 0)
(9.99961 0.0415931 0)
(9.99374 0.0451286 0)
(9.99725 0.0838463 0)
(10.0011 0.132485 0)
(9.99809 0.16486 0)
(9.98699 0.17123 0)
(9.96866 0.159751 0)
(9.94545 0.146515 0)
(9.9202 0.143844 0)
(9.89527 0.155518 0)
(9.87591 0.179109 0)
(9.86078 0.208032 0)
(9.85901 0.237746 0)
(9.67593 0.0593563 0)
(9.74204 0.0126941 0)
(9.88681 0.02553 0)
(10.0021 0.0600486 0)
(9.99552 0.10071 0)
(9.91909 0.119213 0)
(9.85414 0.117856 0)
(9.83421 0.118986 0)
(9.84907 0.133651 0)
(9.87532 0.156013 0)
(9.89522 0.176772 0)
(9.90378 0.192104 0)
(9.90369 0.203011 0)
(9.90359 0.212104 0)
(9.90652 0.219995 0)
(9.91465 0.226917 0)
(9.92452 0.231493 0)
(9.93226 0.234375 0)
(10.2674 0.0732477 0)
(10.2012 0.0931718 0)
(10.1825 0.0766671 0)
(10.1273 0.0868042 0)
(10.0143 0.104058 0)
(9.91282 0.0969122 0)
(9.87095 0.0820089 0)
(9.88152 0.0883055 0)
(9.91276 0.117742 0)
(9.93702 0.150214 0)
(9.94271 0.167181 0)
(9.93308 0.165488 0)
(9.91952 0.153817 0)
(9.91169 0.144973 0)
(9.91331 0.147627 0)
(9.92045 0.163582 0)
(9.92657 0.191468 0)
(9.92496 0.224092 0)
(10.1164 0.00839354 0)
(10.1595 0.0340726 0)
(10.1795 0.0534394 0)
(10.1721 0.130959 0)
(10.1322 0.193331 0)
(10.0689 0.186848 0)
(10.0053 0.13468 0)
(9.96543 0.0941172 0)
(9.96328 0.0951688 0)
(9.99447 0.128305 0)
(10.0397 0.168262 0)
(10.075 0.196484 0)
(10.0882 0.208706 0)
(10.0745 0.211332 0)
(10.0472 0.212721 0)
(10.0114 0.21958 0)
(9.98404 0.233065 0)
(9.96077 0.252053 0)
(10.0431 0.0129411 0)
(10.0529 0.0855745 0)
(10.0341 0.100085 0)
(10.0099 0.12304 0)
(9.99241 0.152367 0)
(9.97062 0.155282 0)
(9.93492 0.134201 0)
(9.89335 0.113539 0)
(9.86758 0.107876 0)
(9.87506 0.115674 0)
(9.91423 0.129373 0)
(9.9684 0.143025 0)
(10.0195 0.156316 0)
(10.0562 0.169783 0)
(10.0796 0.184736 0)
(10.0937 0.20123 0)
(10.1085 0.218298 0)
(10.127 0.237139 0)
(9.9005 0.000272089 0)
(9.87954 0.00578429 0)
(9.83652 0.0517084 0)
(9.85703 0.13345 0)
(9.91657 0.207234 0)
(9.97408 0.22299 0)
(10.009 0.185741 0)
(10.0168 0.133872 0)
(10.0055 0.0987857 0)
(9.98779 0.0898462 0)
(9.97222 0.101076 0)
(9.96179 0.122647 0)
(9.95576 0.147692 0)
(9.95634 0.171118 0)
(9.96328 0.190147 0)
(9.97981 0.204126 0)
(10.0007 0.212975 0)
(10.0287 0.221608 0)
(10.0827 0.0804714 0)
(9.96492 0.181543 0)
(9.88954 0.145221 0)
(9.88747 0.0957604 0)
(9.91924 0.0774101 0)
(9.94332 0.0825113 0)
(9.93695 0.0955284 0)
(9.89681 0.113019 0)
(9.84622 0.133467 0)
(9.8154 0.152023 0)
(9.81756 0.164171 0)
(9.84576 0.168458 0)
(9.8864 0.166747 0)
(9.92856 0.161511 0)
(9.96718 0.155866 0)
(10.0004 0.153544 0)
(10.0279 0.157293 0)
(10.0495 0.171569 0)
(9.94905 0.195272 0)
(10.0777 0.1548 0)
(10.1557 0.0598822 0)
(10.1302 0.084616 0)
(10.0522 0.155085 0)
(9.99237 0.219189 0)
(9.97808 0.247938 0)
(9.99832 0.228343 0)
(10.034 0.171276 0)
(10.0729 0.102944 0)
(10.1078 0.0504771 0)
(10.1327 0.029655 0)
(10.1438 0.0403808 0)
(10.1405 0.0708915 0)
(10.1265 0.106353 0)
(10.109 0.138462 0)
(10.092 0.163678 0)
(10.0838 0.187327 0)
(9.77319 0.133397 0)
(9.86493 0.0052445 0)
(9.87572 0.0968129 0)
(9.85189 0.22816 0)
(9.84363 0.238762 0)
(9.88458 0.158023 0)
(9.95265 0.0687496 0)
(10.0206 0.0248386 0)
(10.0715 0.0315572 0)
(10.0956 0.0674269 0)
(10.0918 0.112068 0)
(10.0672 0.154242 0)
(10.0313 0.188149 0)
(9.99346 0.209406 0)
(9.95962 0.214422 0)
(9.93601 0.207716 0)
(9.92282 0.192182 0)
(9.92475 0.181698 0)
(10.0322 -0.0054554 0)
(9.92565 0.0425351 0)
(9.86825 0.0776002 0)
(9.88755 0.090346 0)
(9.98827 0.0808232 0)
(10.0605 0.0759665 0)
(10.064 0.083743 0)
(10.0337 0.091386 0)
(9.99864 0.0881724 0)
(9.97327 0.0796268 0)
(9.96609 0.0806192 0)
(9.97723 0.100194 0)
(9.99928 0.134116 0)
(10.0254 0.16997 0)
(10.0493 0.193529 0)
(10.067 0.199473 0)
(10.0767 0.187665 0)
(10.0765 0.166611 0)
(9.91519 0.191878 0)
(9.88781 0.258824 0)
(9.91417 0.125068 0)
(9.98501 0.0147799 0)
(10.0106 0.0146696 0)
(9.99517 0.0633752 0)
(9.95671 0.110436 0)
(9.91969 0.134565 0)
(9.89718 0.136199 0)
(9.89024 0.125617 0)
(9.89814 0.112467 0)
(9.91966 0.103398 0)
(9.95172 0.102204 0)
(9.99051 0.109249 0)
(10.0323 0.123768 0)
(10.0713 0.143066 0)
(10.1038 0.166429 0)
(10.1243 0.191799 0)
(9.81875 -0.0804988 0)
(9.86039 -0.0414241 0)
(9.90999 -0.0167681 0)
(9.92653 0.00535108 0)
(9.93413 0.065264 0)
(9.95394 0.148736 0)
(9.9905 0.201637 0)
(10.0342 0.195481 0)
(10.077 0.143072 0)
(10.1104 0.0771327 0)
(10.1296 0.0238823 0)
(10.135 -0.00661942 0)
(10.1317 -0.0155697 0)
(10.1255 -0.00930735 0)
(10.1222 0.00713358 0)
(10.1252 0.030783 0)
(10.1347 0.0598779 0)
(10.1523 0.0952123 0)
(10.0123 0.194879 0)
(9.92054 0.0538954 0)
(9.86091 -0.0188974 0)
(9.84517 -0.0301947 0)
(9.87223 -0.0172832 0)
(9.93287 0.00865574 0)
(9.98589 0.0283953 0)
(10.0092 0.0336735 0)
(10.0049 0.0330182 0)
(9.98536 0.0393295 0)
(9.9634 0.0561564 0)
(9.94798 0.0774016 0)
(9.94166 0.0952386 0)
(9.94215 0.104316 0)
(9.94554 0.103724 0)
(9.95109 0.098351 0)
(9.95824 0.0919562 0)
(9.96994 0.0928803 0)
(10.0433 -0.047486 0)
(10.0545 0.0293869 0)
(10.0194 0.066422 0)
(9.9729 0.0112304 0)
(9.93358 -0.0231346 0)
(9.94673 0.0195462 0)
(9.99851 0.101847 0)
(10.0456 0.160041 0)
(10.0663 0.165672 0)
(10.062 0.12954 0)
(10.0455 0.0779747 0)
(10.0341 0.0325239 0)
(10.0397 0.00439464 0)
(10.0645 -0.00443519 0)
(10.1021 0.00181239 0)
(10.1422 0.0167073 0)
(10.1769 0.0338456 0)
(10.2003 0.0498675 0)
(9.68057 0.058896 0)
(9.67918 -0.00283032 0)
(9.74542 0.0488316 0)
(9.79942 0.0409075 0)
(9.80703 -0.0051651 0)
(9.80613 -0.0473941 0)
(9.83426 -0.0607835 0)
(9.89412 -0.0335093 0)
(9.96821 0.0203541 0)
(10.0362 0.0687269 0)
(10.0886 0.0894668 0)
(10.1292 0.079122 0)
(10.1649 0.0482611 0)
(10.1982 0.0141295 0)
(10.2233 -0.00866409 0)
(10.2351 -0.0139155 0)
(10.2291 -0.00066152 0)
(10.2059 0.0249252 0)
(10.1008 0.00799852 0)
(10.0495 -0.0148757 0)
(10.0278 -0.0327041 0)
(10.0169 -0.0386018 0)
(10.0142 -0.0194259 0)
(10.0087 0.00460541 0)
(9.99201 0.0184813 0)
(9.9783 0.0247434 0)
(9.99104 0.025453 0)
(10.0423 0.0157078 0)
(10.1237 -0.00900502 0)
(10.2089 -0.0418766 0)
(10.2714 -0.0682859 0)
(10.2954 -0.0722284 0)
(10.2798 -0.0461181 0)
(10.2372 0.0042785 0)
(10.1838 0.0677411 0)
(10.1389 0.125239 0)
(9.47666 -0.0456029 0)
(9.59457 0.00059719 0)
(9.72116 0.0553466 0)
(9.78564 0.0469692 0)
(9.80651 -0.00427078 0)
(9.82354 -0.0406151 0)
(9.8603 -0.0424356 0)
(9.91799 -0.0323714 0)
(9.98738 -0.0351489 0)
(10.0525 -0.0508185 0)
(10.0949 -0.0651418 0)
(10.103 -0.0631841 0)
(10.0783 -0.0386652 0)
(10.0337 0.0032733 0)
(9.98832 0.0499604 0)
(9.95921 0.0893005 0)
(9.95625 0.11312 0)
(9.98341 0.117672 0)
(10.0758 -0.117813 0)
(10.005 -0.176735 0)
(10.0117 -0.129281 0)
(10.0583 -0.0625494 0)
(10.0704 -0.023443 0)
(10.0413 -0.0190511 0)
(10.0032 -0.0358995 0)
(9.97448 -0.0562367 0)
(9.95758 -0.0688634 0)
(9.9493 -0.0699079 0)
(9.94658 -0.0591368 0)
(9.95092 -0.0394243 0)
(9.96655 -0.0149759 0)
(9.99636 0.00991025 0)
(10.0406 0.0312082 0)
(10.0953 0.0463451 0)
(10.1575 0.0534415 0)
(10.2189 0.0520989 0)
(10.0393 0.0044782 0)
(9.8715 -0.003903 0)
(9.83455 -0.0108009 0)
(9.92305 -0.0071306 0)
(10.0025 -0.0110886 0)
(10.0125 -0.0180409 0)
(9.98218 -0.0203815 0)
(9.95104 -0.021758 0)
(9.9357 -0.028965 0)
(9.93371 -0.043424 0)
(9.93547 -0.0589369 0)
(9.93567 -0.0667632 0)
(9.93669 -0.0624104 0)
(9.94452 -0.0474841 0)
(9.96518 -0.0284795 0)
(10.0002 -0.011151 0)
(10.0482 0.000979476 0)
(10.1046 0.00724477 0)
(9.77857 -0.0121781 0)
(9.80059 -0.0793818 0)
(9.79709 -0.119808 0)
(9.84048 -0.103558 0)
(9.91594 -0.0480076 0)
(9.98541 -0.00148223 0)
(10.027 0.00360638 0)
(10.034 -0.0234614 0)
(10.0158 -0.0541382 0)
(9.99308 -0.0694208 0)
(9.98416 -0.0659466 0)
(9.99788 -0.0500691 0)
(10.0335 -0.0317058 0)
(10.0836 -0.0190259 0)
(10.1396 -0.0157185 0)
(10.1927 -0.0205163 0)
(10.2386 -0.0302646 0)
(10.273 -0.0406805 0)
(10.2243 -0.0236835 0)
(10.2141 -0.0415485 0)
(10.1957 -0.0558941 0)
(10.1062 -0.0773678 0)
(10.0531 -0.0823735 0)
(10.0766 -0.0676088 0)
(10.134 -0.0412343 0)
(10.1794 -0.0183117 0)
(10.2002 -0.0135182 0)
(10.2041 -0.0310399 0)
(10.1982 -0.0610943 0)
(10.1854 -0.0882158 0)
(10.1676 -0.101216 0)
(10.1496 -0.0983996 0)
(10.1345 -0.0847582 0)
(10.1251 -0.0669348 0)
(10.1198 -0.049629 0)
(10.1186 -0.0359028 0)
(9.7278 -0.03386 0)
(9.68838 -0.0528758 0)
(9.49522 -0.0613458 0)
(9.25627 -0.0441662 0)
(9.05506 -0.0354055 0)
(8.88325 -0.0378366 0)
(8.74398 -0.0424923 0)
(8.63895 -0.0481829 0)
(8.54646 -0.0547889 0)
(8.43691 -0.0574123 0)
(8.29868 -0.0516268 0)
(8.1449 -0.0391983 0)
(7.9961 -0.0263138 0)
(7.86611 -0.0192442 0)
(7.75525 -0.0203163 0)
(7.66159 -0.0272211 0)
(7.57739 -0.035819 0)
(7.50389 -0.0420332 0)
(-0.109676 0.223226 7.36306e-20)
(-0.333872 0.199749 -7.30444e-20)
(-0.514205 0.161058 0)
(-0.63353 0.0826465 0)
(-0.653223 -0.0230613 0)
(-0.58934 -0.114955 7.08473e-20)
(-0.454838 -0.188793 0)
(-0.278091 -0.232296 0)
(-0.0884504 -0.248323 0)
(0.130764 -0.203666 0)
(0.234705 -0.165246 -6.83262e-20)
(0.269681 -0.271703 0)
(0.360853 -0.343727 0)
(0.495293 -0.213653 0)
(0.604109 -0.0260242 0)
(0.718802 -0.0139216 -6.55299e-20)
(0.899268 -0.14018 0)
(1.15293 -0.253624 0)
(1.43975 -0.300611 0)
(1.71887 -0.294284 0)
(1.94864 -0.256161 0)
(2.11155 -0.204781 0)
(2.23506 -0.168256 0)
(2.35486 -0.162335 -6.07426e-20)
(2.47419 -0.166078 6.01544e-20)
(2.57512 -0.125239 -5.95778e-20)
(2.63116 -0.0038815 -5.90208e-20)
(2.60225 0.146304 0)
(2.48217 0.229732 0)
(2.30462 0.216173 5.74707e-20)
(2.13571 0.150321 5.69798e-20)
(1.99579 0.060409 0)
(1.84653 -0.0628342 0)
(1.61918 -0.160247 5.55954e-20)
(1.25012 -0.212533 0)
(0.782626 0.158215 0)
(0.0183337 0.743892 -5.44497e-20)
(-0.903428 0.766285 0)
(-1.68482 0.710283 -5.32862e-20)
(-2.45918 0.674178 -1.05169e-19)
(-3.17541 0.619555 0)
(-3.85886 0.575996 0)
(-4.50933 0.540567 0)
(-5.13771 0.511328 0)
(-5.74691 0.488123 0)
(-6.34219 0.470939 -9.57011e-20)
(-6.92516 0.455771 -9.40691e-20)
(-7.49399 0.440893 -9.24483e-20)
(-8.0444 0.42195 0)
(-8.56755 0.39652 8.92976e-20)
(-9.05275 0.361969 0)
(-9.48664 0.317999 -8.63915e-20)
(-9.85635 0.265362 -8.5082e-20)
(-10.1503 0.20526 0)
(-10.3597 0.139874 0)
(-10.4778 0.0729688 0)
(-10.499 0.00910298 -8.11815e-20)
(-10.426 -0.0505917 0)
(-10.2734 -0.107564 0)
(-10.0365 -0.160572 0)
(-9.727 -0.208677 0)
(-9.34929 -0.251644 0)
(-8.9124 -0.288777 0)
(-8.42429 -0.320461 0)
(-7.89245 -0.347173 0)
(-7.32306 -0.370248 7.91782e-20)
(-6.71924 -0.39145 0)
(-6.0806 -0.41301 0)
(-5.40253 -0.437502 -7.90903e-20)
(-4.677 -0.467015 -7.90027e-20)
(-3.89407 -0.501966 0)
(-3.04471 -0.539623 7.8648e-20)
(-2.12757 -0.5731 -7.83224e-20)
(-1.16267 -0.594912 0)
(-0.190057 -0.600459 7.71585e-20)
(0.775626 -0.529226 0)
(1.52155 -0.363378 0)
(1.98574 -0.129623 -7.41709e-20)
(2.05486 0.179845 0)
(1.57519 0.458674 7.3149e-20)
(0.586066 0.627389 0)
(-0.660684 0.412776 -7.26904e-20)
(-1.11219 0.279109 -7.20475e-20)
(-1.57433 0.130544 -7.14259e-20)
(-1.36545 -0.232193 -1.41667e-19)
(-0.903569 -0.317551 1.40556e-19)
(-0.386353 -0.257834 0)
(-0.0248859 -0.173806 0)
(0.232064 -0.108599 0)
(0.416765 -0.0498796 1.35566e-19)
(0.521067 -0.0314787 1.34252e-19)
(0.599929 -0.0537348 -1.32949e-19)
(0.700147 -0.0843092 0)
(0.837505 -0.103452 1.30352e-19)
(1.03378 -0.116181 1.29056e-19)
(1.27094 -0.120322 1.27758e-19)
(1.5661 -0.132343 0)
(1.89272 -0.143452 0)
(2.24298 -0.127827 0)
(2.55558 -0.117833 1.22561e-19)
(2.86243 -0.0586625 0)
(2.90077 0.0414149 0)
(2.78506 0.205769 -1.1912e-19)
(2.31274 0.256976 0)
(1.58142 0.404659 0)
(1.33609 -0.183143 -1.15829e-19)
(1.75475 -1.06464 0)
(1.56585 -0.153392 0)
(-1.41018 1.38003 1.11203e-19)
(-4.64158 1.40086 1.07703e-19)
(-7.09828 1.1032 0)
(-9.09238 0.845549 -9.78921e-20)
(-10.5769 0.623949 0)
(-11.7011 0.446271 8.90448e-20)
(-12.4924 0.302101 0)
(-13.014 0.18168 8.29704e-20)
(-13.2856 0.07925 8.106e-20)
(-13.329 -0.00965633 0)
(-13.1677 -0.0876498 0)
(-12.8235 -0.157764 0)
(-12.3029 -0.220054 0)
(-11.6318 -0.271457 0)
(-10.8389 -0.309901 0)
(-9.96043 -0.333747 0)
(-9.03236 -0.344191 8.41877e-20)
(-8.08475 -0.343753 -8.50132e-20)
(-7.13817 -0.336461 0)
(-6.2014 -0.326397 0)
(-5.27559 -0.317113 0)
(-4.35838 -0.309941 0)
(-3.44722 -0.303762 -1.71435e-19)
(-2.54236 -0.295309 0)
(-1.65572 -0.279161 1.69408e-19)
(-0.815859 -0.249748 -1.67866e-19)
(-0.0664981 -0.207412 0)
(0.571021 -0.17821 0)
(1.09808 -0.142182 0)
(1.53567 -0.115028 1.58535e-19)
(1.90831 -0.0983585 1.55996e-19)
(2.24367 -0.0911463 0)
(2.56513 -0.091796 1.51051e-19)
(2.89239 -0.0976357 1.48642e-19)
(3.24024 -0.106181 -1.46252e-19)
(3.61679 -0.115549 0)
(4.02514 -0.124516 0)
(4.46485 -0.131732 -1.39003e-19)
(4.93045 -0.135482 0)
(5.41122 -0.134857 0)
(5.89287 -0.128927 0)
(6.35568 -0.11619 0)
(6.77938 -0.0977798 1.26039e-19)
(7.14442 -0.0755357 1.23384e-19)
(7.43204 -0.0495787 0)
(7.63292 -0.0192114 1.18268e-19)
(7.73068 0.0148271 0)
(7.705 0.0469311 0)
(7.54378 0.071352 1.11547e-19)
(7.25332 0.0831334 0)
(6.88997 0.112914 1.07824e-19)
(6.44797 0.167348 0)
(5.95324 0.186537 0)
(5.45361 0.246814 1.03029e-19)
(4.64526 0.402479 0)
(3.39304 0.410162 9.96915e-20)
(2.22306 0.190806 0)
(1.51352 -0.0213184 0)
(1.23277 -0.115843 0)
(1.24687 -0.134688 -9.2537e-20)
(1.39393 -0.127991 0)
(1.56214 -0.112878 8.98755e-20)
(1.68861 -0.0865038 0)
(1.75933 -0.0460911 0)
(1.78774 -0.00969873 0)
(1.80155 0.00605898 0)
(1.80681 0.00823698 0)
(1.80293 0.00536088 0)
(1.79423 0.0139984 0)
(1.73214 0.0141109 -1.55135e-19)
(1.73171 0.041906 0)
(1.52684 0.0414589 0)
(-0.0534028 0.674225 -2.2082e-19)
(-0.185874 0.612261 2.19152e-19)
(-0.30864 0.444027 0)
(-0.361698 0.214115 -1.43888e-19)
(-0.342321 -0.0560218 0)
(-0.259072 -0.301254 -7.08985e-20)
(-0.111055 -0.477912 1.40767e-19)
(0.0759432 -0.557581 1.39733e-19)
(0.27721 -0.575437 0)
(0.493002 -0.440541 1.37495e-19)
(0.661918 -0.13926 6.81907e-20)
(0.793294 0.0770191 0)
(0.88628 -0.0701982 0)
(0.894928 -0.269273 0)
(0.888128 -0.375857 0)
(0.91465 -0.541433 6.54847e-20)
(0.958828 -0.743134 0)
(1.03891 -0.828582 -1.28727e-19)
(1.13713 -0.78085 0)
(1.25629 -0.636321 0)
(1.38989 -0.467524 1.25227e-19)
(1.50566 -0.358021 0)
(1.59447 -0.313212 -1.22873e-19)
(1.66114 -0.283493 6.08465e-20)
(1.68641 -0.238813 -6.02741e-20)
(1.65958 -0.166145 5.97112e-20)
(1.60341 -0.0515378 5.91545e-20)
(1.55291 0.102626 0)
(1.47088 0.253365 0)
(1.30206 0.311911 -5.76097e-20)
(0.977854 0.285591 5.70804e-20)
(0.483475 0.412255 0)
(-0.147309 0.805653 0)
(-1.00032 1.24021 -5.57259e-20)
(-1.9116 1.56242 0)
(-2.64893 1.77203 0)
(-3.3033 1.8481 5.40244e-20)
(-3.93016 1.77586 0)
(-4.49301 1.69742 -5.2416e-20)
(-5.05289 1.59481 1.04397e-19)
(-5.58332 1.50364 0)
(-6.10757 1.42416 0)
(-6.61557 1.35967 1.99152e-19)
(-7.11959 1.30799 1.96062e-19)
(-7.61622 1.2667 1.92914e-19)
(-8.10779 1.23024 -9.44916e-20)
(-8.58984 1.19209 9.36367e-20)
(-9.05732 1.14579 2.75371e-19)
(-9.5021 1.08481 -1.80167e-19)
(-9.91456 1.00432 -8.89707e-20)
(-10.2845 0.901419 0)
(-10.602 0.775911 8.61384e-20)
(-10.8591 0.629312 -8.39663e-20)
(-11.0497 0.465052 0)
(-11.169 0.288892 0)
(-11.2144 0.108254 0)
(-11.1881 -0.0698987 8.10661e-20)
(-11.0889 -0.240894 0)
(-10.9077 -0.402137 -1.59182e-19)
(-10.657 -0.550674 0)
(-10.3375 -0.683947 -1.58026e-19)
(-9.95895 -0.800704 0)
(-9.52841 -0.900181 1.57567e-19)
(-9.05466 -0.983351 0)
(-8.54605 -1.05256 -1.57459e-19)
(-8.00941 -1.11192 7.84439e-20)
(-7.44958 -1.16706 0)
(-6.86759 -1.22469 1.5732e-19)
(-6.26036 -1.2919 7.88747e-20)
(-5.62031 -1.37456 7.87706e-20)
(-4.93651 -1.47501 0)
(-4.19774 -1.58841 7.77298e-20)
(-3.39868 -1.69746 7.80229e-20)
(-2.54503 -1.7661 0)
(-1.64447 -1.7357 -7.6879e-20)
(-0.736167 -1.54538 1.51636e-19)
(0.0987051 -1.12976 0)
(0.608228 -0.454785 7.43136e-20)
(0.871954 0.350586 0)
(0.672705 1.092 -2.19137e-19)
(0.170549 1.61769 0)
(-0.939711 1.32514 2.17453e-19)
(-1.49243 0.765584 7.19664e-20)
(-1.80409 0.229799 -7.11781e-20)
(-1.65438 -0.456931 -1.41171e-19)
(-1.40887 -0.794353 1.40106e-19)
(-1.02478 -0.667076 0)
(-0.680945 -0.485718 0)
(-0.477157 -0.360047 0)
(-0.287646 -0.237294 -4.06707e-19)
(-0.161987 -0.150011 -1.34312e-19)
(-0.0402851 -0.115861 1.33045e-19)
(0.113015 -0.143811 0)
(0.317747 -0.211437 1.3033e-19)
(0.592274 -0.299699 -1.29101e-19)
(0.904442 -0.388311 -1.27776e-19)
(1.3 -0.465406 0)
(1.6499 -0.483843 0)
(2.09188 -0.499615 0)
(2.4601 -0.442514 -1.22528e-19)
(2.8061 -0.223724 0)
(2.7805 0.0852265 2.40192e-19)
(2.77421 0.302138 3.57159e-19)
(2.42231 0.714109 -2.36053e-19)
(1.91186 0.560615 0)
(2.09853 -0.1551 -1.15964e-19)
(-0.184511 1.09164 0)
(-2.95088 2.85505 -2.22942e-19)
(-5.81635 3.62591 1.068e-19)
(-7.77783 3.13043 1.02601e-19)
(-9.25944 2.53303 0)
(-10.4195 1.95977 2.89154e-19)
(-11.3111 1.47446 -1.83077e-19)
(-11.9829 1.06646 -8.89243e-20)
(-12.4691 0.720215 0)
(-12.7758 0.42119 -8.2966e-20)
(-12.9222 0.15439 -2.41903e-19)
(-12.9036 -0.0879376 0)
(-12.7153 -0.313222 -1.57622e-19)
(-12.3415 -0.520459 -1.57841e-19)
(-11.804 -0.70631 -1.59066e-19)
(-11.1156 -0.860543 0)
(-10.311 -0.975778 0)
(-9.42565 -1.04766 0)
(-8.49772 -1.07925 8.37484e-20)
(-7.55849 -1.07893 8.49739e-20)
(-6.6271 -1.05885 0)
(-5.71142 -1.03103 1.71495e-19)
(-4.80833 -1.00638 1.71713e-19)
(-3.91233 -0.989384 0)
(-3.01604 -0.975666 1.71352e-19)
(-2.11389 -0.954923 3.40406e-19)
(-1.21528 -0.908936 -1.69334e-19)
(-0.351199 -0.824644 -1.67388e-19)
(0.422746 -0.72062 0)
(1.07026 -0.604113 0)
(1.60345 -0.495124 0)
(2.04124 -0.410723 -1.58388e-19)
(2.41365 -0.355167 1.55674e-19)
(2.75018 -0.326901 3.06579e-19)
(3.07479 -0.321646 -1.50926e-19)
(3.40683 -0.332295 1.48388e-19)
(3.76026 -0.352394 1.46126e-19)
(4.14305 -0.377088 0)
(4.55925 -0.402647 0)
(5.00892 -0.425304 -1.3874e-19)
(5.4879 -0.440724 0)
(5.98784 -0.444817 0)
(6.49362 -0.433813 2.6229e-19)
(6.98779 -0.405833 0)
(7.45145 -0.361229 1.25759e-19)
(7.86519 -0.300207 -1.23263e-19)
(8.21599 -0.226282 0)
(8.48832 -0.144518 1.17989e-19)
(8.67046 -0.0541254 0)
(8.76982 0.0500941 0)
(8.79451 0.174086 -1.11407e-19)
(8.69965 0.28529 2.18653e-19)
(8.40577 0.331591 -1.07642e-19)
(7.96086 0.334773 0)
(7.48481 0.344851 0)
(7.08464 0.412403 1.02521e-19)
(6.76806 0.595685 0)
(6.39381 0.77933 9.90137e-20)
(5.93354 0.758577 0)
(5.42159 0.526828 0)
(4.90834 0.239969 0)
(4.49516 0.0331796 9.22726e-20)
(4.23743 -0.0508854 0)
(4.07763 -0.0383957 -8.96873e-20)
(3.91625 -0.00396038 0)
(3.70926 0.00532768 0)
(3.49521 -0.00636568 1.70501e-19)
(3.32697 -0.0172634 -1.67413e-19)
(3.21863 -0.0113209 0)
(3.14132 -0.00228841 0)
(3.09717 0.0169043 0)
(3.02173 0.0189686 4.64913e-19)
(3.00387 0.0457196 0)
(2.87856 0.0468437 -2.97531e-19)
(0.0769114 0.716603 -9.30705e-23)
(0.140085 0.720353 -2.92298e-19)
(0.161475 0.522199 0)
(0.214338 0.183331 2.88e-19)
(0.326287 -0.217119 0)
(0.49503 -0.583749 0)
(0.668875 -0.858691 3.97758e-23)
(0.839101 -0.996024 -1.39355e-19)
(0.988101 -1.00846 -1.38254e-19)
(1.12862 -0.971803 -1.37172e-19)
(1.26391 -0.812026 0)
(1.4145 -0.586678 0)
(1.58948 -0.531548 1.3386e-19)
(1.63251 -0.374271 2.65684e-19)
(1.5463 -0.0207393 -2.63811e-19)
(1.37665 -0.0460417 0)
(1.11061 -0.361988 -2.59892e-19)
(0.889764 -0.544039 1.28785e-19)
(0.76756 -0.662207 0)
(0.683566 -0.719998 -2.53449e-19)
(0.629599 -0.6574 -1.25475e-19)
(0.580175 -0.551194 2.48963e-19)
(0.508203 -0.428254 1.23226e-19)
(0.40798 -0.274398 0)
(0.27914 -0.105034 -2.42228e-19)
(0.117312 0.0516562 -2.39998e-19)
(-0.0908427 0.200006 0)
(-0.342456 0.398518 -2.35141e-19)
(-0.657729 0.694382 0)
(-1.09841 1.07168 -2.30293e-19)
(-1.66633 1.47638 -1.13974e-19)
(-2.26733 1.86751 0)
(-2.84367 2.19945 0)
(-3.39197 2.41343 0)
(-3.86496 2.53377 0)
(-4.25681 2.5902 0)
(-4.60797 2.58075 0)
(-4.93762 2.50427 -2.11355e-19)
(-5.27028 2.40751 3.13871e-19)
(-5.62098 2.29898 0)
(-5.9942 2.20511 0)
(-6.39361 2.12454 0)
(-6.81479 2.06122 -1.04478e-21)
(-7.25848 2.01049 -1.958e-19)
(-7.718 1.96722 -3.84309e-19)
(-8.18911 1.92272 3.7794e-19)
(-8.66291 1.86794 1.85208e-19)
(-9.12964 1.79337 -1.83119e-19)
(-9.57665 1.69063 1.198e-21)
(-9.99038 1.55361 -1.7568e-19)
(-10.3577 1.37968 0)
(-10.6678 1.17027 -1.69949e-19)
(-10.9123 0.930396 1.32911e-21)
(-11.0846 0.66822 0)
(-11.1806 0.393186 0)
(-11.1999 0.11367 1.61515e-19)
(-11.1457 -0.16376 0)
(-11.0213 -0.433089 0)
(-10.8302 -0.686265 -1.5681e-19)
(-10.5766 -0.91859 -3.14642e-19)
(-10.2649 -1.12559 1.57941e-19)
(-9.9007 -1.30434 0)
(-9.49059 -1.4537 -1.57443e-19)
(-9.04222 -1.5742 0)
(-8.56403 -1.66934 -1.55591e-19)
(-8.06494 -1.74546 -1.57265e-19)
(-7.55331 -1.81196 3.12826e-19)
(-7.03584 -1.88047 1.55535e-19)
(-6.51595 -1.96328 0)
(-5.9927 -2.07135 -3.11717e-19)
(-5.46085 -2.21169 0)
(-4.91136 -2.38343 -4.65482e-19)
(-4.33251 -2.56936 -3.08274e-19)
(-3.71321 -2.7199 -3.06344e-19)
(-3.04366 -2.73792 3.0393e-19)
(-2.31875 -2.49873 -4.5209e-19)
(-1.58201 -1.89613 0)
(-0.981964 -0.951978 0)
(-0.4901 0.231768 2.93527e-19)
(-0.577704 1.31311 4.37467e-19)
(-0.576941 2.26559 0)
(-1.31146 2.01319 -1.44648e-19)
(-1.65753 1.17126 0)
(-1.86413 0.29359 4.27051e-19)
(-1.75307 -0.642485 4.4387e-22)
(-1.54698 -1.07101 -2.61456e-22)
(-1.28946 -0.987121 -2.77991e-19)
(-0.971398 -0.690999 0)
(-0.797821 -0.477838 2.73487e-19)
(-0.615548 -0.338934 -3.02327e-23)
(-0.43493 -0.28629 0)
(-0.204492 -0.338279 0)
(0.0675005 -0.445401 0)
(0.378644 -0.570262 -2.60621e-19)
(0.730056 -0.694631 0)
(1.09785 -0.808453 0)
(1.50471 -0.86691 0)
(1.87649 -0.890078 0)
(2.35728 -0.900615 0)
(2.7686 -0.760849 -2.44231e-19)
(3.07874 -0.324789 0)
(2.99271 0.191551 -2.40091e-19)
(2.64365 0.590953 -2.37999e-19)
(1.93873 1.09378 2.36017e-19)
(1.61419 0.811918 0)
(0.126879 1.57234 2.31513e-19)
(-2.85382 3.58289 0)
(-5.33211 4.96145 2.216e-19)
(-7.01099 5.01548 -2.16209e-19)
(-7.94586 4.23938 -6.16903e-19)
(-8.93423 3.44803 0)
(-9.75737 2.70658 -5.66338e-19)
(-10.5333 2.06926 -1.76131e-19)
(-11.1339 1.51616 0)
(-11.6008 1.03023 -3.33734e-19)
(-11.89 0.597801 -3.24627e-19)
(-12.0255 0.200778 4.79098e-19)
(-11.9892 -0.172192 0)
(-11.7862 -0.529578 1.57744e-19)
(-11.409 -0.866036 1.57931e-19)
(-10.8655 -1.17036 4.74664e-19)
(-10.1732 -1.4241 0)
(-9.36376 -1.61081 0)
(-8.48008 -1.72342 0)
(-7.56442 -1.7671 1.66634e-19)
(-6.65441 -1.7582 0)
(-5.77122 -1.71903 0)
(-4.92321 -1.66995 -1.71475e-19)
(-4.10379 -1.63018 -1.71682e-19)
(-3.2988 -1.60913 0)
(-2.49051 -1.60041 0)
(-1.65992 -1.58434 -3.4024e-19)
(-0.80799 -1.52092 0)
(0.0403578 -1.38465 3.34881e-19)
(0.824331 -1.20134 3.3024e-19)
(1.48628 -0.99035 0)
(2.01442 -0.799647 0)
(2.42698 -0.656388 -3.15939e-19)
(2.76307 -0.566866 -3.12833e-22)
(3.06235 -0.525897 -2.68162e-22)
(3.35579 -0.523094 0)
(3.66573 -0.545768 -5.93234e-19)
(4.00593 -0.583114 0)
(4.38293 -0.627357 0)
(4.79825 -0.672509 0)
(5.2499 -0.712511 2.7741e-19)
(5.7318 -0.740536 0)
(6.23284 -0.749414 -5.34103e-19)
(6.73796 -0.733278 -2.62098e-19)
(7.22895 -0.689096 0)
(7.68795 -0.616895 -2.51509e-19)
(8.09766 -0.522845 0)
(8.43848 -0.414597 0)
(8.70696 -0.286841 -7.07569e-19)
(8.9168 -0.142511 4.61966e-19)
(9.04361 -0.0110127 0)
(9.07178 0.1119 4.4437e-19)
(9.08907 0.281172 -2.18539e-19)
(9.10869 0.500201 0)
(8.9196 0.675658 0)
(8.36949 0.707565 0)
(7.64258 0.652947 -6.14644e-19)
(7.10704 0.705486 0)
(6.90648 0.847256 -1.98231e-19)
(6.84303 0.834514 0)
(6.70226 0.627867 0)
(6.4387 0.387101 0)
(6.09402 0.199796 0)
(5.71128 0.0717104 0)
(5.35964 0.0277806 0)
(5.10635 0.0723265 -3.52685e-19)
(4.93889 0.139615 0)
(4.77944 0.165355 -1.70295e-19)
(4.56024 0.137771 5.01674e-19)
(4.2915 0.0958139 0)
(4.02907 0.0637422 0)
(3.83365 0.0593084 -3.15954e-19)
(3.66924 0.0597709 -3.09745e-19)
(3.58926 0.0871193 3.03463e-19)
(3.45862 0.0924902 2.97382e-19)
(0.064545 0.277009 4.42207e-19)
(0.156568 0.493277 4.3889e-19)
(0.339511 0.34352 2.90447e-19)
(0.634437 -0.0865656 1.44181e-19)
(0.964913 -0.551376 0)
(1.24936 -0.918961 -2.82763e-19)
(1.45024 -1.13908 1.40236e-19)
(1.58251 -1.22233 0)
(1.66316 -1.19956 1.37938e-19)
(1.72613 -1.05596 0)
(1.73824 -0.856354 -2.71601e-19)
(1.73193 -0.604839 0)
(1.71161 -0.338142 -1.33846e-19)
(1.55967 -0.155647 -2.65803e-19)
(1.44927 0.106726 2.63864e-19)
(1.31935 0.287501 0)
(1.03971 0.112232 2.5999e-19)
(0.775468 -0.214709 0)
(0.55538 -0.358742 0)
(0.284103 -0.315165 2.5385e-19)
(0.0188446 -0.239886 0)
(-0.241999 -0.132308 4.11262e-22)
(-0.492725 -0.0045178 0)
(-0.734339 0.124658 0)
(-0.980965 0.282176 -4.41082e-22)
(-1.26357 0.499115 2.39133e-19)
(-1.60709 0.797891 2.36989e-19)
(-2.00715 1.17453 2.3397e-19)
(-2.43501 1.58571 0)
(-2.86548 1.98417 4.58351e-19)
(-3.27492 2.33633 0)
(-3.63626 2.6202 2.24448e-19)
(-3.93969 2.82147 0)
(-4.1853 2.93639 0)
(-4.38802 2.99131 -2.17483e-19)
(-4.57648 3.00312 0)
(-4.77299 2.97915 2.12803e-19)
(-4.99407 2.92911 8.3608e-22)
(-5.25169 2.87379 -4.16585e-19)
(-5.54887 2.81977 4.10375e-19)
(-5.88878 2.77569 0)
(-6.26733 2.74035 0)
(-6.6825 2.71497 1.95433e-19)
(-7.12929 2.69406 0)
(-7.60008 2.67054 1.91492e-19)
(-8.08523 2.63309 -1.88293e-19)
(-8.57091 2.56893 -1.85061e-19)
(-9.04086 2.46485 0)
(-9.47734 2.3105 1.78665e-19)
(-9.86452 2.10074 1.75592e-19)
(-10.1909 1.83701 -3.41985e-19)
(-10.4506 1.52715 1.69928e-19)
(-10.6417 1.18327 1.6742e-19)
(-10.7649 0.818747 0)
(-10.8229 0.444819 0)
(-10.8202 0.0695863 -1.61638e-19)
(-10.7617 -0.29963 0)
(-10.648 -0.65293 0)
(-10.4789 -0.984854 3.16028e-19)
(-10.2577 -1.28926 3.1467e-19)
(-9.98627 -1.56177 0)
(-9.66844 -1.79849 0)
(-9.30744 -1.99655 0)
(-8.90728 -2.15488 0)
(-8.47284 -2.27471 3.12662e-19)
(-8.01048 -2.361 -3.10588e-19)
(-7.52863 -2.42286 -3.12541e-19)
(-7.03771 -2.47356 -6.2284e-19)
(-6.5493 -2.5293 0)
(-6.07453 -2.60685 1.72397e-21)
(-5.62297 -2.72071 0)
(-5.20129 -2.87971 3.09339e-19)
(-4.81003 -3.07926 1.54153e-21)
(-4.43788 -3.28191 3.05679e-19)
(-4.05515 -3.38755 -3.03087e-19)
(-3.60862 -3.22756 5.17803e-22)
(-3.04717 -2.62629 0)
(-2.38145 -1.52377 -2.94829e-19)
(-1.79283 -0.0877873 -2.92891e-19)
(-1.57416 1.28369 -5.82859e-19)
(-1.20028 2.47259 0)
(-1.4584 2.3415 2.88781e-19)
(-1.39339 1.37822 0)
(-1.37526 0.370632 -5.69378e-19)
(-1.22668 -0.703614 2.8234e-19)
(-1.0865 -1.314 -2.80101e-19)
(-0.897415 -1.32731 2.78038e-19)
(-0.638859 -1.00068 5.51974e-19)
(-0.439675 -0.723714 -2.73559e-19)
(-0.273876 -0.589025 2.71043e-19)
(-0.0922105 -0.555774 0)
(0.121964 -0.612846 -5.31231e-19)
(0.379004 -0.72844 0)
(0.675254 -0.874612 -5.19858e-19)
(1.01862 -1.02459 5.14183e-19)
(1.37632 -1.15815 5.08503e-19)
(1.76525 -1.23432 -5.02851e-19)
(2.17017 -1.2971 -4.97207e-19)
(2.69425 -1.34658 0)
(3.17811 -1.10182 -2.42335e-19)
(3.45533 -0.367373 0)
(3.27722 0.544975 0)