/*--------------------------------*- C++ -*----------------------------------*\
  =========                 |
  \\      /  F ield         | OpenFOAM: The Open Source CFD Toolbox
   \\    /   O peration     | Website:  https://openfoam.org
    \\  /    A nd           | Version:  9
     \\/     M anipulation  |
\*---------------------------------------------------------------------------*/
FoamFile
{
    format      ascii;
    class       volScalarField;
    location    "0.19";
    object      epsilon;
}
// * * * * * * * * * * * * * * * * * * * * * * * * * * * * * * * * * * * * * //

dimensions      [0 2 -3 0 0 0 0];

internalField   nonuniform List<scalar> 
12225
(
222.793
168.149
130.399
104.878
88.4475
78.9124
74.6541
74.3999
77.1036
81.8876
88.0176
94.8923
102.041
109.123
115.925
122.356
128.468
135.833
39.9865
48.8554
52.9168
57.2944
64.2866
75.2325
91.0572
112.301
139.045
170.898
207.09
246.645
288.602
332.231
377.259
424.016
474.026
529.301
19.9171
23.9423
26.7438
29.0241
31.359
34.1663
37.7611
42.3655
48.0987
54.981
62.9585
71.9475
81.8931
92.842
105.04
119.078
136.143
158.363
15.8912
17.2194
18.3804
19.3772
20.3112
21.2863
22.3899
23.6868
25.216
26.9927
29.0158
31.2807
33.7942
36.5944
39.7794
43.5536
48.3081
54.6993
14.8197
15.0544
15.3694
15.6898
16.0041
16.3239
16.6678
17.0544
17.4973
18.0049
18.5811
19.2287
19.9538
20.7707
21.7102
22.8311
24.2384
26.0977
14.5163
14.3168
14.2171
14.1738
14.1636
14.1761
14.2087
14.2625
14.3398
14.4431
14.5741
14.7349
14.9284
15.1605
15.4416
15.7896
16.2338
16.8102
14.4326
14.0736
13.7866
13.5559
13.3683
13.2137
13.0857
12.9802
12.8953
12.8299
12.7837
12.7568
12.7503
12.7663
12.8085
12.8832
12.999
13.1626
14.4107
13.999
13.637
13.32
13.042
12.7974
12.5812
12.3895
12.2193
12.0686
11.9358
11.8202
11.7213
11.6398
11.5765
11.5335
11.5133
11.5166
14.4053
13.978
13.5897
13.2379
12.9194
12.6309
12.3693
12.1316
11.9154
11.7186
11.5395
11.377
11.2302
11.0986
10.9823
10.8815
10.7968
10.7279
14.404
13.9725
13.5762
13.2122
12.8779
12.5708
12.2885
12.0287
11.7894
11.5688
11.3655
11.1781
11.0058
10.8477
10.7034
10.5725
10.4549
10.3504
14.4037
13.9711
13.5725
13.2048
12.8653
12.5514
12.2609
11.9918
11.7423
11.5107
11.2958
11.0963
10.9112
10.7397
10.581
10.4347
10.3003
10.178
14.4036
13.9708
13.5716
13.203
12.8619
12.546
12.2529
11.9807
11.7276
11.492
11.2727
11.0683
10.878
10.7008
10.5359
10.3828
10.241
10.1106
14.4035
13.9706
13.5713
13.2023
12.8608
12.5442
12.2502
11.9769
11.7225
11.4854
11.2643
11.0579
10.8653
10.6855
10.5178
10.3615
10.2159
10.0816
14.4035
13.9705
13.5711
13.2021
12.8604
12.5436
12.2494
11.9758
11.7209
11.4834
11.2617
11.0547
10.8613
10.6805
10.5116
10.3539
10.2066
10.0705
14.4034
13.9704
13.571
13.2019
12.8602
12.5434
12.2491
11.9755
11.7206
11.483
11.2613
11.0542
10.8606
10.6797
10.5104
10.3522
10.2043
10.0673
14.4034
13.9704
13.5709
13.2018
12.8601
12.5433
12.2491
11.9755
11.7207
11.4832
11.2616
11.0546
10.8611
10.6801
10.5108
10.3524
10.2042
10.0668
14.4034
13.9703
13.5708
13.2017
12.86
12.5432
12.2491
11.9756
11.7209
11.4836
11.2621
11.0552
10.8618
10.6808
10.5115
10.3529
10.2045
10.0667
14.4033
13.9702
13.5708
13.2016
12.86
12.5433
12.2492
11.9758
11.7213
11.484
11.2626
11.0558
10.8625
10.6815
10.5121
10.3533
10.2045
10.0663
14.4033
13.9702
13.5707
13.2016
12.8601
12.5434
12.2495
11.9762
11.7218
11.4846
11.2633
11.0565
10.8631
10.682
10.5124
10.3533
10.2041
10.0654
14.4033
13.9702
13.5707
13.2017
12.8603
12.5437
12.2499
11.9767
11.7223
11.4852
11.2639
11.0571
10.8636
10.6824
10.5125
10.3532
10.2036
10.0645
14.4032
13.9702
13.5708
13.2019
12.8605
12.5441
12.2504
11.9773
11.7231
11.4861
11.2648
11.058
10.8645
10.6832
10.5133
10.3538
10.204
10.0646
14.4033
13.9702
13.571
13.2023
12.8612
12.545
12.2516
11.9789
11.7251
11.4885
11.2677
11.0613
10.8683
10.6875
10.5181
10.359
10.2097
10.0708
14.4033
13.9706
13.5719
13.204
12.8641
12.5495
12.2579
11.9874
11.736
11.502
11.2839
11.0804
10.8904
10.7126
10.5462
10.3902
10.244
10.1081
14.4039
13.9731
13.5781
13.2159
12.8833
12.5775
12.296
12.0363
11.7962
11.5738
11.3675
11.1758
10.9973
10.831
10.6759
10.531
10.3959
10.2708
14.4093
13.9932
13.622
13.2904
12.993
12.7247
12.4814
12.2593
12.0558
11.8686
11.6961
11.5369
11.3899
11.2542
11.1291
11.014
10.9083
10.8127
14.452
14.1242
13.8659
13.655
13.4758
13.3183
13.1765
13.0473
12.9293
12.8222
12.7261
12.6414
12.5683
12.5072
12.4583
12.4217
12.3973
12.3856
14.7356
14.8132
14.9446
15.068
15.1674
15.2437
15.3046
15.36
15.4196
15.4915
15.5825
15.6977
15.841
16.0148
16.2209
16.4603
16.7336
17.0396
16.4036
17.9469
19.0793
19.8767
20.468
20.9539
21.4091
21.8896
22.4374
23.0835
23.8501
24.7529
25.8022
27.0041
28.3617
29.8759
31.5466
33.3683
27.19
32.6029
34.8651
35.9886
36.8916
38.0145
39.5986
41.7869
44.6659
48.2896
52.6909
57.8868
63.88
70.661
78.2106
86.5009
95.5069
105.151
142.551
119.596
101.672
87.5946
76.541
67.9104
61.2523
56.2184
52.5326
49.9713
48.3508
47.5181
47.3439
47.7187
48.549
49.755
51.27
53.0322
16.334
68.0467
84.5242
89.1589
90.2008
90.565
91.1869
91.0508
88.4105
81.986
71.0264
56.0704
41.0757
8.7392
8.70597
39.2251
38.1576
8.92774
38.4005
54.324
150.575
272.026
405.168
536.634
656.54
758.544
839.335
897.961
935.159
952.789
953.367
939.718
914.715
881.067
841.181
797.13
752.001
708.191
665.822
624.991
585.795
548.299
512.535
478.509
446.198
415.558
386.524
359.016
332.937
308.181
284.64
262.208
240.798
220.346
200.82
182.223
164.595
147.996
132.505
118.21
105.213
93.6616
83.9158
76.8813
74.3943
75.8632
78.5157
81.9129
86.0222
90.877
96.5205
102.979
110.236
118.169
126.445
134.37
140.701
143.68
141.695
134.069
120.674
103.079
83.9294
66.0788
50.531
9.83879
8.71096
8.21389
8.33116
8.9966
10.0786
49.1533
57.6829
67.2269
77.5123
87.048
93.5809
97.6363
106.111
140.694
256.991
423.863
577.482
700.109
783.168
826.302
833.837
812.391
769.295
711.584
645.228
576.965
511.594
450.239
393.661
342.261
296.139
255.169
219.064
187.452
159.94
136.208
116.182
100.673
94.53
107.282
126.75
151.318
181.891
219.669
265.857
321.515
387.423
463.931
550.576
646.487
751.884
856.154
916.844
910.059
821.821
656.807
446.734
246.129
107.94
11.24
7.38962
7.63661
8.4397
8.95777
9.23979
9.40346
9.27808
8.74811
7.95854
7.05076
6.11723
5.22342
4.41981
3.72227
3.16945
2.79287
2.60588
2.60772
2.7882
3.11114
3.49725
3.82696
4.02906
4.23102
4.62325
4.93583
5.15235
5.50165
5.85357
6.21068
6.57023
6.9415
7.34484
7.67196
52.3405
87.1621
77.3081
66.4079
56.219
47.7945
41.68
38.9327
39.0144
39.8638
39.3794
36.2791
33.8191
39.2568
59.0107
103.294
156.587
180.396
196.645
218.785
245.057
268.282
284.56
291.933
290.064
279.71
262.324
239.761
214.058
187.277
161.358
137.979
118.442
103.606
93.8668
89.2817
87.7403
86.4936
85.4177
84.4682
83.6155
82.8393
82.1261
81.4651
80.8449
80.2501
79.6591
79.0419
78.3592
77.563
76.5987
75.4099
73.945
72.165
70.0514
67.6121
64.8833
61.9276
58.8271
55.6755
52.5721
49.6233
46.9395
44.6337
42.8589
41.5295
40.4393
39.5594
38.8785
38.3857
38.0682
37.9101
37.8947
38.0097
38.2581
38.6731
39.3295
40.3619
42.186
44.7644
46.5322
47.1273
46.9264
46.3942
44.5674
43.3152
41.1447
37.2413
31.8739
26.1622
21.6933
19.1185
18.0104
18.3231
20.7996
29.2546
52.0417
91.4366
136.79
172.122
203.058
219.275
219.417
206.153
183.733
156.588
128.803
103.832
84.1977
71.2397
65.2251
63.4015
62.0443
61.0849
60.4812
60.1856
60.1409
60.2752
60.4959
60.6868
60.7162
60.4587
59.8295
58.8385
57.8086
56.7892
55.5739
54.3316
53.2227
52.3692
51.8581
51.7422
52.0489
52.7908
53.9567
55.551
57.7906
63.2722
87.6963
119.739
146.904
160.512
159.053
148.975
139.499
132.587
129.038
124.407
119.588
115.142
108.4
96.7254
82.8847
70.4585
59.9329
51.0359
43.4106
36.6995
30.6499
25.1756
20.305
16.1196
12.6765
9.97164
7.96788
6.65241
6.06424
6.20676
6.96577
8.7156
12.5278
15.2251
11.3321
7.97937
6.65526
6.32363
6.47846
6.89663
7.46362
8.09732
70.865
76.9896
68.885
57.7513
45.9201
36.4858
30.1763
27.4706
27.6724
30.2016
36.0559
50.2622
84.4243
134.391
167.099
172.019
170.672
168.788
168.114
168.781
168.58
165.159
157.609
146.118
131.685
115.774
99.9575
85.5841
73.5589
64.2737
57.6775
53.4242
51.0275
49.9808
49.8363
50.1866
50.5847
50.9489
51.2621
51.527
51.7616
51.9964
52.2683
52.6144
53.0649
53.6375
54.3329
55.1319
55.9937
56.8572
57.6429
58.2584
58.6073
58.6004
58.1691
57.2781
55.9319
54.1756
52.0864
49.7608
47.3007
44.8041
42.3509
39.9935
37.9648
36.1901
34.5989
33.1825
31.9378
30.8622
29.9535
29.2101
28.6317
28.2206
27.9845
27.9398
28.1128
28.5298
29.1964
30.042
30.8945
31.619
32.069
32.091
31.7429
31.3583
30.8637
29.8348
27.8845
25.091
22.116
19.999
19.7973
22.6098
31.8709
51.9453
78.4986
100.82
112.287
118.81
119.659
112.314
98.5956
82.0885
66.3198
53.5572
44.5726
39.0797
36.2967
35.352
35.5216
36.1272
36.9122
37.8377
38.8777
40.0112
41.2167
42.4629
43.6973
44.8375
45.7695
46.3614
46.4745
45.9632
44.947
43.5347
41.7979
39.8818
37.9095
35.9732
34.1358
32.4352
30.8912
29.5133
28.3085
27.2923
26.5097
26.0723
26.6318
30.9189
39.7578
50.9761
60.8595
67.6276
72.5679
77.8559
84.8966
92.5167
98.0193
99.0911
94.9926
86.5618
76.0554
64.9018
54.6613
46.2285
39.5816
34.3237
29.9737
26.1104
22.4414
18.8513
15.4019
12.2104
9.42192
7.29147
6.14646
6.2877
7.90489
11.795
17.2532
16.0043
9.75387
7.10283
6.28031
6.12234
6.28139
6.65479
7.15827
7.72854
84.8442
83.507
76.7249
58.414
41.7393
29.3403
26.3633
28.8279
35.2084
48.2832
71.3691
104.562
137.921
153.092
150.259
140.991
132.863
126.565
121.29
115.941
109.388
101.128
91.493
81.3287
71.6193
63.1667
56.422
51.4811
48.1832
46.2327
45.2986
45.0753
45.3104
45.8103
46.4205
46.8688
47.0676
46.9817
46.6042
45.9607
45.1107
44.1445
43.1739
42.3181
41.6878
41.3702
41.4181
41.8437
42.6183
43.6756
44.9171
46.218
47.4356
48.4209
49.0367
49.1775
48.7879
47.8712
46.485
44.7245
42.7027
40.5297
38.296
36.1253
34.2097
32.445
30.8245
29.3505
28.0256
26.8523
25.8347
24.9787
24.2928
23.7874
23.4737
23.3591
23.4411
23.6998
24.091
24.5439
24.9814
25.3519
25.6223
25.7581
25.7249
25.3945
24.901
24.3062
23.5501
22.6307
21.9112
22.3303
25.6682
34.7674
50.6367
67.7259
79.2024
83.8211
84.9328
82.8652
76.4751
66.1247
54.4936
44.1776
36.4725
31.4453
28.5412
27.0796
26.4976
26.4174
26.629
27.0111
27.5019
28.0749
28.7172
29.4277
30.2125
31.0737
31.994
32.9221
33.7653
34.3946
34.6531
34.4042
33.7326
32.6941
31.39
29.9383
28.4428
26.9822
25.6082
24.3488
23.2144
22.2047
21.3185
20.5609
19.9468
19.5091
19.3222
19.6926
21.1543
24.2061
28.6579
33.5475
38.0918
42.3287
46.6828
50.9506
54.034
54.6813
52.3639
47.5582
41.377
35.22
29.6902
24.8834
20.8822
17.6898
15.2274
13.3555
11.8937
10.6439
9.42697
8.18367
6.96774
5.94663
5.52446
6.41595
9.25159
14.2949
18.1495
13.7581
8.36001
6.58149
6.00005
5.83001
5.93154
6.23792
6.66772
7.19021
97.5092
101.765
85.6762
64.1654
49.3331
43.8061
44.8207
51.4561
63.9797
82.1296
102.923
119.636
126.068
122.306
114.064
105.892
99.2062
93.469
87.9282
82.0778
75.7965
69.3864
63.3763
58.2501
54.2957
51.5796
50.0014
49.369
49.4612
50.0677
51.0079
52.1346
53.3282
54.4881
55.3801
55.9164
55.9965
55.5256
54.4349
52.7025
50.3719
47.5628
44.4679
41.3326
38.4209
35.9742
34.1727
33.1111
32.7943
33.1521
34.0623
35.3707
36.8999
38.4541
39.8298
40.8387
41.3378
41.2553
40.5999
39.4478
37.9162
36.1301
34.2037
32.375
30.6513
29.0234
27.5034
26.0993
24.8166
23.6599
22.6352
21.7504
21.0158
20.4437
20.0467
19.8353
19.8135
19.9706
20.2719
20.6517
21.0263
21.3302
21.5427
21.6736
21.7227
21.6733
21.4697
21.2852
21.358
21.9571
23.6313
27.6178
35.7918
48.451
60.83
66.9925
68.1096
67.5343
65.3522
60.5304
52.9503
44.1503
36.1795
30.1345
26.0916
23.6117
22.1743
21.379
20.978
20.8366
20.8843
21.0485
21.275
21.5372
21.8271
22.1567
22.5531
23.0473
23.6537
24.3508
25.0661
25.6763
26.0157
25.9739
25.5791
24.8785
23.9584
22.9186
21.8501
20.8218
19.8765
19.0331
18.292
17.6436
17.076
16.5821
16.1641
15.8401
15.6453
15.6524
16.0263
16.8791
18.3494
20.4227
22.8873
25.4628
27.9262
30.0144
31.3104
31.3981
30.1425
27.7797
24.756
21.5245
18.4001
15.5636
13.1074
11.0639
9.42284
8.14258
7.15746
6.38577
5.74463
5.17416
4.66839
4.36822
4.75115
6.58581
10.5621
15.6693
17.2555
11.8176
7.50312
6.24264
5.72653
5.52842
5.58784
5.82245
6.15641
6.57483
110.474
119.655
100.33
77.953
66.7244
64.739
67.2616
74.12
83.5179
93.026
99.7781
101.712
98.8898
93.2671
87.1458
81.675
76.9149
72.5222
68.3037
64.2949
60.6873
57.717
55.5564
54.2646
53.7971
54.0417
54.856
56.0972
57.6387
59.3737
61.2091
63.0561
64.8202
66.3968
67.7897
68.9759
69.7885
70.0277
69.4838
67.9645
65.3329
61.5543
56.7409
51.1784
45.3122
39.6804
34.8004
31.0471
28.5777
27.3378
27.1379
27.7457
28.9325
30.471
32.1212
33.6333
34.7767
35.3823
35.3773
34.7916
33.7262
32.3113
30.7641
29.2151
27.6857
26.21
24.8103
23.4997
22.2861
21.1747
20.1715
19.2837
18.5215
17.8971
17.4235
17.1125
16.9713
16.9981
17.1764
17.4692
17.8196
18.164
18.456
18.6829
18.8538
18.9964
19.1077
19.3529
20.0858
21.8364
25.4428
32.2879
43.3319
55.2202
60.8372
59.6879
57.4683
55.403
52.0255
46.5568
39.6775
32.9144
27.4379
23.5484
20.9848
19.3393
18.2853
17.6237
17.244
17.0767
17.069
17.1394
17.2308
17.3128
17.3775
17.4442
17.5561
17.7684
18.1242
18.6288
19.2293
19.8102
20.1955
20.3091
20.1395
19.7149
19.1047
18.3956
17.6689
16.9867
16.3852
15.8753
15.4489
15.0859
14.7631
14.4622
14.1747
13.9055
13.6754
13.5265
13.5597
13.8232
14.3597
15.1901
16.29
17.5866
18.9462
20.1522
20.9372
21.0905
20.5547
19.4287
17.8919
16.1268
14.2795
12.4567
10.7365
9.17585
7.81136
6.65946
5.71693
4.96405
4.37223
3.9191
3.61861
3.61259
4.37946
6.81402
11.3949
16.0851
16.0197
10.6263
7.04008
5.98952
5.48487
5.2808
5.30461
5.46322
5.70358
6.00913
121.396
139.821
117.147
94.6493
83.0953
78.0922
77.8608
79.9466
82.5069
84.141
83.994
81.9035
78.3695
74.2387
70.2407
66.6791
63.5675
60.8733
58.6211
56.8556
55.6045
54.8651
54.6015
54.7502
55.2349
55.9832
56.9405
58.0748
59.3724
60.8281
62.4341
64.1695
65.9898
67.8892
70.0373
72.3226
74.5715
76.5656
78.0433
78.7055
78.2282
76.2897
72.6267
67.1336
59.9934
51.7824
43.4371
36.0072
30.2805
26.5245
24.5279
23.8812
24.2088
25.2162
26.6442
28.221
29.6608
30.7063
31.1832
31.0539
30.3795
29.3366
28.1104
26.7838
25.4262
24.0857
22.793
21.5669
20.4187
19.355
18.3812
17.5034
16.7297
16.0712
15.5405
15.1508
14.913
14.8323
14.9053
15.1153
15.4302
15.804
16.1876
16.5476
16.8798
17.2101
17.6059
18.2089
19.4258
22.0078
27.0598
35.8082
47.483
56.1362
56.3663
52.1356
49.1591
46.674
42.936
37.6728
31.8369
26.6108
22.6035
19.7905
17.872
16.5579
15.662
15.0805
14.7455
14.5963
14.5763
14.6055
14.6274
14.6068
14.5321
14.4234
14.333
14.3339
14.4939
14.8406
15.3384
15.8618
16.2763
16.5116
16.5251
16.3279
15.9735
15.5371
15.0932
14.6993
14.3873
14.1623
14.008
13.8946
13.7882
13.6598
13.4906
13.2749
13.0222
12.7591
12.546
12.4634
12.5461
12.8169
13.2728
13.8782
14.5705
15.2569
15.8083
16.0912
16.0229
15.5938
14.8464
13.8455
12.6611
11.3644
10.0268
8.71625
7.49033
6.39034
5.43929
4.64405
4.00225
3.51657
3.22574
3.29129
4.19606
6.84557
11.6207
15.8512
14.944
9.98639
6.88314
5.78927
5.28796
5.09028
5.07492
5.14577
5.30156
5.51606
129.434
156.433
131.814
105.754
89.5539
81.3244
77.3019
75.2291
73.8356
72.3949
70.5337
68.1568
65.422
62.6489
60.1429
58.0682
56.4632
55.2894
54.4626
53.8812
53.456
53.1245
52.8496
52.6158
52.4284
52.3118
52.3055
52.4585
52.8228
53.4496
54.3844
55.6609
57.2904
59.4345
62.0502
65.044
68.2782
71.5714
74.7033
77.4236
79.4553
80.4822
80.1153
77.8718
73.2526
66.0147
56.5877
46.2909
36.935
29.905
25.4931
23.1822
22.3362
22.4921
23.344
24.6203
26.0192
27.2324
27.9859
28.1681
27.8205
27.0918
26.1062
24.9683
23.7578
22.5317
21.3283
20.1723
19.0792
18.0581
17.115
16.2551
15.4847
14.8125
14.2501
13.8104
13.5061
13.3476
13.3402
13.4832
13.7661
14.1651
14.6415
15.1518
15.6719
16.218
16.8609
17.7414
19.2993
22.4422
28.4002
37.9232
48.5933
53.8184
51.0183
45.9489
42.8912
40.3678
36.6624
31.8638
26.9409
22.7646
19.6286
17.391
15.7987
14.6614
13.8689
13.3523
13.0525
12.911
12.872
12.8684
12.8487
12.7742
12.6258
12.4175
12.2025
12.0632
12.0858
12.3162
12.7107
13.1757
13.6178
13.9469
14.1091
14.0992
13.9559
13.7444
13.5348
13.3827
13.3178
13.3404
13.4263
13.5361
13.6261
13.6587
13.6082
13.4627
13.2234
12.9046
12.5393
12.1996
11.948
11.8296
11.8719
12.0714
12.3913
12.7727
13.1472
13.4403
13.5798
13.5097
13.1981
12.6392
11.8522
10.8796
9.78304
8.63335
7.49884
6.4352
5.48015
4.65392
3.96596
3.43055
3.10018
3.14717
4.04142
6.65844
11.3315
15.2135
14.0931
9.70768
6.86622
5.68773
5.13857
4.93457
4.87788
4.86386
4.93948
5.10391
132.203
162.147
135.505
107.321
89.197
78.6088
72.261
68.2385
65.4841
63.3525
61.4332
59.5295
57.6663
56.0101
54.7191
53.8328
53.2609
52.8358
52.3842
51.7822
50.9767
49.9769
48.8344
47.6225
46.4202
45.3035
44.3421
43.6026
43.1519
43.0608
43.4021
44.2424
45.629
47.7391
50.4534
53.71
57.4014
61.3614
65.3698
69.1744
72.533
75.251
77.1626
77.9999
77.1932
73.8367
67.1302
57.2597
45.9965
36.0023
28.9525
24.7437
22.5765
21.745
21.8392
22.5871
23.6871
24.824
25.6514
26.0018
25.8885
25.3817
24.5853
23.6008
22.512
21.3813
20.2524
19.1549
18.1082
17.1246
16.2117
15.3748
14.6187
13.9502
13.3787
12.9159
12.5751
12.369
12.309
12.4057
12.6676
13.0954
13.6702
14.3499
15.087
15.8641
16.7257
17.8104
19.5879
23.0419
29.3603
38.7074
47.6782
50.289
46.1203
41.0893
38.2234
35.8062
32.2728
27.9526
23.7438
20.276
17.6733
15.7663
14.3621
13.3358
12.611
12.1271
11.826
11.6587
11.5832
11.5432
11.4958
11.4008
11.2316
10.9898
10.723
10.515
10.4595
10.5997
10.9154
11.3481
11.8113
12.2171
12.5028
12.6482
12.6782
12.6502
12.6322
12.6804
12.8234
13.0562
13.3456
13.6418
13.8927
14.0561
14.1054
14.0294
13.8276
13.5075
13.0846
12.5969
12.1134
11.698
11.4086
11.2803
11.3147
11.4808
11.7272
11.9923
12.208
12.3046
12.2199
11.9108
11.3634
10.597
9.66025
8.62103
7.55172
6.51621
5.56187
4.71774
4.00002
3.42773
3.05714
3.05794
3.86918
6.30314
10.6825
14.3227
13.3937
9.62657
6.94416
5.65745
5.05678
4.81135
4.69773
4.63115
4.63683
4.76443
125.397
152.966
129.793
103.081
84.6617
73.3035
66.2756
61.8555
59.0157
57.0794
55.6105
54.405
53.4529
52.8167
52.4933
52.353
52.1776
51.7474
50.9174
49.6474
47.9924
46.0668
44.0047
41.9281
39.932
38.085
36.4401
35.048
33.9674
33.2744
33.0646
33.448
34.5376
36.4022
38.9406
42.1276
45.9018
50.139
54.6344
59.1012
63.2119
66.7033
69.4979
71.6752
73.1446
73.1922
70.4587
63.7639
53.5227
42.3913
33.4694
27.5701
24.1411
22.3454
21.6512
21.7825
22.4387
23.2911
24.028
24.4393
24.4482
24.0802
23.4146
22.5437
21.5493
20.4955
19.4289
18.3818
17.3766
16.4279
15.5452
14.7348
14.0011
13.3493
12.7864
12.3224
11.9695
11.7412
11.6523
11.7212
11.9726
12.4325
13.1104
13.9764
14.9603
15.9889
17.0515
18.2772
20.1575
23.6834
29.8967
38.4739
45.6877
46.5937
42.0229
37.3212
34.6323
32.3547
29.186
25.3748
21.6824
18.6122
16.3378
14.6289
13.3379
12.3772
11.6822
11.1935
10.8593
10.6438
10.5219
10.4472
10.3818
10.2865
10.1301
9.90089
9.63386
9.41794
9.32776
9.41721
9.69061
10.1073
10.5954
11.0713
11.4643
11.7399
11.911
12.0299
12.1653
12.3755
12.6872
13.0875
13.5313
13.9572
14.3076
14.5417
14.6403
14.6018
14.4333
14.1428
13.7362
13.218
12.6296
12.0348
11.5068
11.1111
10.8885
10.845
10.9541
11.1629
11.3991
11.5799
11.6234
11.4646
11.0683
10.4369
9.60851
8.64609
7.62259
6.60613
5.65027
4.79065
4.04894
3.44729
3.04121
2.98918
3.68666
5.85946
9.83347
13.2806
12.7589
9.62889
7.09316
5.70431
5.02575
4.71444
4.54188
4.43966
4.40553
4.48412
114.404
138.067
119.367
95.5568
78.2088
67.2771
60.5717
56.5219
54.1326
52.7472
51.9653
51.6012
51.5921
51.8668
52.2547
52.4921
52.3036
51.496
50.0114
47.9275
45.4155
42.6802
39.9041
37.2172
34.6954
32.3763
30.2807
28.4328
26.8803
25.7098
25.049
25.0593
25.9647
27.5839
29.8517
32.7546
36.2744
40.3578
44.8782
49.5983
54.1539
58.1293
61.2857
63.7781
65.9565
67.6595
67.7226
64.396
56.8396
46.5827
37.3815
30.6093
26.2638
23.6759
22.2854
21.7898
21.9493
22.4658
23.0222
23.3744
23.4006
23.0893
22.4949
21.696
20.7684
19.7741
18.7594
17.7575
16.7915
15.8777
15.0269
14.2465
13.5414
12.9155
12.3744
11.9257
11.58
11.3502
11.2523
11.3094
11.5582
12.0494
12.8268
13.8854
15.1399
16.4471
17.7107
19.0321
20.9086
24.2964
30.0669
37.5922
43.2698
43.187
38.71
34.3879
31.8263
29.6926
26.8931
23.5627
20.3181
17.5946
15.4977
13.8801
12.6332
11.6857
10.9908
10.4713
10.0885
9.82254
9.65931
9.55342
9.46787
9.37051
9.23313
9.041
8.81452
8.61603
8.52378
8.59839
8.85815
9.2789
9.80256
10.349
10.8392
11.2252
11.5098
11.7431
11.9975
12.3335
12.7731
13.2907
13.8253
14.3049
14.6709
14.8921
14.9653
14.9062
14.7368
14.4737
14.1202
13.6619
13.0944
12.4614
11.827
11.2662
10.8468
10.6109
10.5649
10.678
10.8853
11.0977
11.2184
11.1628
10.8769
10.3482
9.60444
8.70371
7.71799
6.71758
5.76005
4.88593
4.12156
3.49193
3.05092
2.94315
3.516
5.39823
8.91403
12.1676
12.1257
9.63681
7.28772
5.82611
5.05065
4.65732
4.42857
4.29145
4.23758
4.27975
102.317
121.158
107.382
87.31
71.6345
61.5883
55.5424
52.0868
50.293
49.5646
49.5528
50.0743
50.9916
52.1008
53.0942
53.6164
53.3674
52.1921
50.117
47.3277
44.1005
40.7163
37.3929
34.2592
31.3656
28.7176
26.2994
24.1097
22.1898
20.6493
19.6898
19.5798
20.5695
22.1618
24.2788
26.8912
30.0173
33.6699
37.8054
42.2815
46.805
50.9241
54.2265
56.7169
58.8815
60.961
62.1885
60.9218
55.9614
48.0992
39.734
32.8869
28.1222
25.0415
23.1575
22.1931
21.9401
22.1306
22.4608
22.6795
22.6447
22.3216
21.7454
20.9809
20.0953
19.1454
18.1747
17.2149
16.2884
15.4115
14.5957
13.8493
13.1776
12.5846
12.0746
11.6532
11.3292
11.1141
11.0235
11.0821
11.3344
11.8517
12.7141
13.9551
15.4906
17.1067
18.5949
19.9963
21.7899
24.8799
29.9956
36.3847
40.8128
40.2219
36.0584
32.0832
29.6029
27.5977
25.1432
22.2542
19.3948
16.9284
14.9537
13.3972
12.1844
11.2501
10.5269
9.95266
9.50513
9.18672
8.98932
8.85802
8.75549
8.65574
8.53542
8.37736
8.19116
8.02565
7.95363
8.03805
8.30743
8.75205
9.32516
9.94717
10.5285
11.0079
11.3811
11.6999
12.0424
12.47
12.9948
13.5726
14.1245
14.5715
14.8619
14.9826
14.9528
14.8093
14.5916
14.328
14.027
13.669
13.2104
12.6642
12.0656
11.4736
10.961
10.5936
10.4103
10.4101
10.5493
10.7471
10.9021
10.9157
10.7166
10.2758
9.60919
8.76788
7.82151
6.84115
5.88718
5.00384
4.2212
3.56635
3.09106
2.92618
3.37299
4.96457
8.01229
11.0477
11.4612
9.59716
7.49407
6.00992
5.14106
4.66186
4.37933
4.21129
4.13577
4.14453
88.9273
106.264
97.115
80.3727
66.2001
56.8565
51.3146
48.3242
47.0174
46.8554
47.5335
48.8665
50.6573
52.6039
54.2968
55.3017
55.2737
54.0506
51.6911
48.4483
44.6861
40.7678
36.9667
33.4373
30.228
27.3312
24.7103
22.3516
20.2921
18.6443
17.5784
17.5544
18.6625
20.2931
22.2725
24.5787
27.2681
30.3948
33.958
37.8716
41.9212
45.7275
48.877
51.2652
53.2385
55.1409
56.5983
56.3264
53.0499
46.9647
39.8879
33.7077
29.1445
25.9905
23.8955
22.6637
22.1316
22.0608
22.1704
22.2226
22.0775
21.6934
21.0948
20.3352
19.4725
18.5563
17.6248
16.7063
15.8213
14.9849
14.2083
13.5001
12.8663
12.3112
11.8387
11.453
11.1609
10.9723
10.9014
10.9722
11.2323
11.7665
12.6891
14.0822
15.8875
17.8415
19.603
21.1081
22.7845
25.4786
29.8278
35.0997
38.5314
37.7163
33.9371
30.2571
27.8238
25.9192
23.7656
21.2711
18.7502
16.4968
14.6222
13.1105
11.9149
10.9736
10.2182
9.59886
9.10446
8.74602
8.51635
8.36152
8.24501
8.14118
8.02907
7.89347
7.73979
7.60804
7.56471
7.67318
7.96993
8.45706
9.09496
9.79949
10.4674
11.0246
11.4633
11.8416
12.2449
12.7319
13.2978
13.8751
14.3687
14.6999
14.8342
14.7834
14.5914
14.3154
14.009
13.7113
13.4381
13.1735
12.8574
12.473
12.0198
11.5233
11.0376
10.6322
10.3675
10.2725
10.3319
10.4848
10.6379
10.6887
10.5532
10.1871
9.59251
8.81135
7.90868
6.9549
6.01216
5.12773
4.33463
3.66125
3.15621
2.93654
3.26177
4.57874
7.17766
9.96728
10.7572
9.47772
7.6747
6.23108
5.29621
4.73907
4.40355
4.20311
4.09908
4.07016
75.3255
95.3067
89.5001
76.0454
62.7628
53.5394
48.0389
45.1528
44.0494
44.2078
45.3461
47.2864
49.8068
52.5555
55.0611
56.823
57.4308
56.6637
54.5424
51.3155
47.3803
43.1618
39.0056
35.1287
31.6292
28.5296
25.8206
23.5073
21.632
20.2815
19.5526
19.6708
20.4511
21.6628
23.1974
25.0437
27.2401
29.8233
32.7863
36.054
39.453
42.6825
45.405
47.5113
49.2513
50.8984
52.1702
52.032
49.4166
44.4416
38.5763
33.3581
29.3558
26.4212
24.3435
23.0248
22.3441
22.0883
22.0038
21.881
21.5992
21.1242
20.4775
19.7048
18.854
17.9662
17.0729
16.1976
15.3576
14.566
13.8332
13.1676
12.5756
12.0622
11.6311
11.2861
11.0325
10.878
10.8352
10.9258
11.1957
11.7355
12.6851
14.1792
16.2134
18.5167
20.6181
22.296
23.88
26.1498
29.7005
33.9208
36.543
35.6454
32.2434
28.8083
26.3967
24.5573
22.648
20.4953
18.2787
16.2235
14.4487
12.9783
11.7896
10.8328
10.0515
9.4074
8.89009
8.50441
8.24256
8.06109
7.92609
7.81237
7.69992
7.57522
7.44269
7.33808
7.32394
7.46437
7.80288
8.35057
9.06923
9.86351
10.6128
11.2316
11.7142
12.1294
12.5697
13.0858
13.6486
14.1651
14.5305
14.6775
14.5975
14.331
13.9457
13.5141
13.0986
12.7438
12.4706
12.2682
12.0846
11.8799
11.6248
11.3081
10.9504
10.6038
10.3334
10.1897
10.1855
10.2861
10.4156
10.4775
10.3827
10.0752
9.54417
8.82086
7.96391
7.04146
6.1164
5.23837
4.44297
3.75943
3.23245
2.96456
3.1773
4.24371
6.43021
8.95587
10.0234
9.26606
7.79679
6.45603
5.49801
4.88254
4.49806
4.26086
4.1181
4.04508
64.0318
90.5768
83.6788
73.6087
61.9802
52.5937
46.4943
43.116
41.7097
41.7467
42.9303
45.0761
47.9686
51.2683
54.5072
57.1628
58.767
59.0077
57.796
55.2799
51.7932
47.7546
43.5592
39.5064
35.7835
32.4881
29.6641
27.3387
25.5379
24.2849
23.5991
23.5833
24.036
24.8401
25.9511
27.3753
29.1376
31.2463
33.6679
36.314
39.0223
41.5463
43.6484
45.2977
46.709
48.0284
48.9007
48.4185
45.826
41.4553
36.6041
32.3714
29.0265
26.4288
24.4986
23.2164
22.4826
22.0993
21.8444
21.5471
21.1182
20.5396
19.835
19.0433
18.2026
17.3444
16.4925
15.6645
14.8742
14.1323
13.448
12.8291
12.2823
11.8131
11.4258
11.1238
10.9115
10.7951
10.7848
10.8992
11.1792
11.7125
12.6521
14.1796
16.3666
18.9871
21.4938
23.4537
25.0357
26.9256
29.7111
32.9659
34.9042
33.9744
30.9048
27.6698
25.2603
23.4481
21.7199
19.8515
17.9095
16.0499
14.3859
12.9647
11.786
10.8186
10.0217
9.36431
8.83213
8.42429
8.13435
7.9276
7.77309
7.64585
7.52622
7.40227
7.27971
7.19398
7.20705
7.38555
7.77999
8.40702
9.22252
10.1121
10.9349
11.5977
12.1034
12.5362
12.9935
13.5097
14.0258
14.4256
14.6046
14.5186
14.1909
13.6914
13.1071
12.52
11.9951
11.5765
11.2861
11.1188
11.0351
10.9876
10.9305
10.8242
10.6536
10.4403
10.2366
10.1008
10.0672
10.1275
10.228
10.2852
10.2124
9.94728
9.46846
8.79686
7.98386
7.0941
6.19022
5.32355
4.53188
3.84529
3.30455
2.99742
3.11011
3.95309
5.77057
8.02727
9.27733
8.96613
7.83901
6.65005
5.71488
5.06817
4.64297
4.36492
4.17504
4.05599
54.6622
101.312
86.9168
74.3039
63.3685
54.0809
47.1733
42.7425
40.4101
39.7387
40.4147
42.2316
44.9902
48.4049
52.072
55.5064
58.2238
59.8323
60.1079
59.0325
56.7839
53.6755
50.0721
46.312
42.6622
39.3088
36.3682
33.9072
31.9557
30.5145
29.5627
29.1354
29.1147
29.4592
30.1468
31.1688
32.5137
34.1483
36.0074
37.9884
39.9403
41.6776
43.0831
44.2246
45.2723
46.1908
46.4769
45.3416
42.4582
38.495
34.5497
31.1974
28.4258
26.1551
24.4226
23.2399
22.4991
22.0122
21.5953
21.1252
20.5507
19.8723
19.1158
18.3125
17.4896
16.6684
15.8645
15.0901
14.3551
13.6679
13.0365
12.468
11.9692
11.5459
11.203
10.9444
10.7737
10.6959
10.7191
10.8584
11.1473
11.6635
12.5584
14.0448
16.2784
19.1337
22.0765
24.4527
26.1929
27.8266
29.9335
32.3057
33.6237
32.6513
29.8538
26.7785
24.3504
22.5253
20.9159
19.2767
17.5844
15.9256
14.3917
13.039
11.8851
10.9183
10.1133
9.44672
8.90364
8.47916
8.16589
7.93562
7.76049
7.61597
7.48266
7.35048
7.22831
7.15466
7.19442
7.41918
7.88638
8.61342
9.54105
10.5279
11.4117
12.0985
12.608
13.0426
13.4994
13.9879
14.4153
14.6494
14.5982
14.2499
13.6629
12.9333
12.1621
11.435
10.8138
10.3378
10.0251
9.87318
9.85408
9.92397
10.0327
10.1256
10.1591
10.1213
10.039
9.96363
9.94085
9.9839
10.0621
10.1092
10.0465
9.81042
9.37255
8.74504
7.97204
7.11403
6.23252
5.37983
4.59549
3.91044
3.36211
3.02429
3.05009
3.69565
5.18541
7.17735
8.53179
8.59118
7.79528
6.78842
5.91426
5.26309
4.80733
4.48707
4.24929
4.09283
51.0243
127.736
107.416
85.067
69.4653
58.3477
50.2339
44.5554
40.9743
39.1683
38.86
39.8406
41.9267
44.8916
48.4183
52.1024
55.5
58.198
59.8849
60.4002
59.7522
58.0965
55.6868
52.8144
49.756
46.7431
43.9497
41.4935
39.444
37.8337
36.6711
35.9357
35.5566
35.5162
35.7933
36.361
37.1794
38.1901
39.3183
40.4714
41.538
42.4292
43.1608
43.8483
44.5225
44.8913
44.3278
42.3383
39.1844
35.7477
32.6682
29.9967
27.6376
25.6519
24.1368
23.0726
22.3236
21.7203
21.1315
20.4906
19.7841
19.027
18.2417
17.4486
16.6623
15.8937
15.1509
14.4409
13.7703
13.1457
12.5737
12.0609
11.6139
11.239
10.9415
10.726
10.5961
10.5561
10.6119
10.7749
11.0706
11.5621
12.3848
13.7607
15.9163
18.8617
22.1585
25.038
27.1154
28.7012
30.3383
32.0205
32.8303
31.7934
29.1809
26.2101
23.7414
21.8648
20.3029
18.8138
17.3148
15.8332
14.4311
13.1602
12.0475
11.0957
10.2932
9.62467
9.07724
8.64284
8.31153
8.05992
7.86277
7.6964
7.54243
7.3939
7.26515
7.20092
7.27241
7.55862
8.12297
8.9763
10.0325
11.1149
12.0426
12.7312
13.2268
13.6504
14.0907
14.5221
14.8178
14.8399
14.522
13.8917
13.0431
12.0943
11.155
10.3089
9.61077
9.09103
8.76209
8.62293
8.65889
8.8251
9.06954
9.33176
9.55254
9.69379
9.75567
9.77375
9.79458
9.84529
9.91462
9.95375
9.89472
9.67682
9.26832
8.67509
7.93521
7.1051
6.24464
5.4064
4.63102
3.95007
3.3983
3.03753
2.99152
3.469
4.67466
6.41486
7.81174
8.16799
7.67568
6.86047
6.07089
5.43571
4.9596
4.60153
4.32817
4.15667
51.072
137.573
134.526
107.584
84.3523
67.9919
56.7376
48.9814
43.7656
40.5327
38.9329
38.7304
39.7444
41.7902
44.631
47.9566
51.3995
54.5795
57.1606
58.9007
59.6823
59.5166
58.5226
56.8907
54.8413
52.5903
50.3261
48.1978
46.3133
44.745
43.5439
42.5979
41.906
41.4657
41.2588
41.2545
41.4115
41.6826
42.019
42.3697
42.6948
43.0087
43.3839
43.8353
44.1374
43.7686
42.2271
39.5984
36.5961
33.8209
31.3157
28.9547
26.8101
25.0431
23.7058
22.7097
21.9057
21.1665
20.4222
19.6541
18.8702
18.0855
17.312
16.5572
15.8253
15.1192
14.4424
13.7985
13.1922
12.6287
12.1139
11.6539
11.2551
10.9241
10.6666
10.4879
10.392
10.3827
10.4647
10.6462
10.9456
11.4108
12.1542
13.3849
15.3687
18.2421
21.7354
25.0967
27.6482
29.4105
30.8201
32.0198
32.4309
31.3147
28.8192
25.9095
23.3822
21.4239
19.8525
18.4455
17.0844
15.7498
14.4719
13.29
12.2321
11.3095
10.5209
9.85804
9.31128
8.87137