/*--------------------------------*- C++ -*----------------------------------*\
  =========                 |
  \\      /  F ield         | OpenFOAM: The Open Source CFD Toolbox
   \\    /   O peration     | Website:  https://openfoam.org
    \\  /    A nd           | Version:  9
     \\/     M anipulation  |
\*---------------------------------------------------------------------------*/
FoamFile
{
    format      ascii;
    class       volScalarField;
    location    "0.19";
    object      k;
}
// * * * * * * * * * * * * * * * * * * * * * * * * * * * * * * * * * * * * * //

dimensions      [0 2 -2 0 0 0 0];

internalField   nonuniform List<scalar> 
12225
(
0.283113
0.213673
0.165703
0.133273
0.112394
0.100277
0.0948661
0.0945431
0.0979787
0.104058
0.111848
0.120584
0.129668
0.138667
0.147311
0.155483
0.163249
0.172608
0.349224
0.324751
0.310635
0.308836
0.319353
0.341319
0.373155
0.412689
0.457445
0.50497
0.553106
0.600173
0.645052
0.687211
0.726722
0.764166
0.800999
0.838402
0.361959
0.348124
0.336003
0.326266
0.319418
0.315651
0.314885
0.316837
0.321067
0.327063
0.334319
0.342428
0.35114
0.360426
0.370549
0.382191
0.396655
0.416127
0.365606
0.355048
0.344806
0.335355
0.327011
0.319932
0.314108
0.309414
0.305658
0.302615
0.300071
0.297852
0.295841
0.293996
0.292369
0.291145
0.290728
0.291829
0.366987
0.35826
0.349585
0.341211
0.333316
0.326015
0.319348
0.313299
0.30781
0.302795
0.298165
0.293829
0.289715
0.285766
0.281949
0.278261
0.274746
0.271551
0.367521
0.35974
0.352093
0.344656
0.337507
0.33071
0.3243
0.318287
0.312657
0.307381
0.302421
0.297736
0.293285
0.289031
0.284942
0.280994
0.27717
0.273489
0.367715
0.360377
0.353314
0.34651
0.339973
0.333717
0.327756
0.322094
0.316726
0.311641
0.306822
0.30225
0.297903
0.29376
0.289804
0.286015
0.28238
0.278907
0.36778
0.360627
0.353855
0.347416
0.34128
0.335432
0.329859
0.324553
0.319506
0.314706
0.310142
0.305802
0.301672
0.297741
0.293998
0.29043
0.28703
0.283814
0.367799
0.360714
0.354069
0.347811
0.341899
0.336302
0.330995
0.325958
0.321174
0.316628
0.312307
0.308199
0.304294
0.300581
0.297053
0.293701
0.290521
0.287532
0.367804
0.360741
0.354142
0.347962
0.342157
0.336693
0.331538
0.326668
0.32206
0.317695
0.313557
0.309633
0.30591
0.30238
0.299034
0.295865
0.292868
0.290063
0.367804
0.360747
0.354163
0.348011
0.34225
0.336845
0.331765
0.326983
0.322474
0.318218
0.314196
0.310394
0.306797
0.303397
0.300182
0.297146
0.294284
0.291614
0.367803
0.360747
0.354167
0.348023
0.342276
0.336892
0.331841
0.327096
0.322631
0.318426
0.314462
0.310723
0.307195
0.303866
0.300727
0.297768
0.294984
0.292393
0.367802
0.360746
0.354166
0.348024
0.342282
0.336906
0.331868
0.327138
0.322695
0.318516
0.314582
0.310878
0.307388
0.304101
0.301006
0.298092
0.295355
0.292813
0.367802
0.360744
0.354165
0.348023
0.342281
0.336909
0.331874
0.327152
0.322718
0.318551
0.314632
0.310945
0.307476
0.304211
0.301139
0.298249
0.295537
0.293018
0.367801
0.360743
0.354163
0.34802
0.342279
0.336907
0.331874
0.327155
0.322725
0.318563
0.314651
0.310972
0.307512
0.304256
0.301193
0.298312
0.295607
0.293096
0.3678
0.360742
0.354161
0.348018
0.342277
0.336906
0.331874
0.327156
0.322728
0.31857
0.314662
0.310986
0.307529
0.304277
0.301216
0.298337
0.295631
0.293117
0.3678
0.36074
0.354159
0.348017
0.342276
0.336905
0.331875
0.327159
0.322733
0.318577
0.314671
0.310998
0.307543
0.304292
0.301231
0.298349
0.295639
0.293118
0.367799
0.360739
0.354158
0.348016
0.342276
0.336906
0.331877
0.327163
0.322739
0.318585
0.314681
0.31101
0.307556
0.304303
0.30124
0.298355
0.295638
0.293109
0.367798
0.360738
0.354157
0.348016
0.342277
0.336909
0.331882
0.327169
0.322748
0.318595
0.314692
0.311021
0.307566
0.304312
0.301245
0.298353
0.295629
0.293089
0.367798
0.360738
0.354158
0.348017
0.34228
0.336914
0.331889
0.327178
0.322758
0.318606
0.314703
0.311031
0.307574
0.304316
0.301245
0.298347
0.295614
0.293064
0.367798
0.360738
0.354159
0.34802
0.342285
0.33692
0.331896
0.327187
0.322767
0.318615
0.314711
0.311037
0.307576
0.304314
0.301236
0.298331
0.295589
0.293029
0.367798
0.360739
0.354161
0.348024
0.342289
0.336924
0.331899
0.327186
0.322762
0.318603
0.31469
0.311005
0.307532
0.304254
0.301159
0.298235
0.295471
0.292888
0.367798
0.360739
0.35416
0.348018
0.342275
0.336896
0.331851
0.327113
0.322656
0.31846
0.314505
0.310772
0.307246
0.303914
0.30076
0.297775
0.294949
0.292301
0.367796
0.360728
0.354128
0.347948
0.342147
0.336693
0.331555
0.32671
0.322134
0.31781
0.31372
0.309849
0.306183
0.30271
0.299417
0.296293
0.293332
0.290554
0.367778
0.360649
0.353933
0.347582
0.341561
0.335849
0.330429
0.325288
0.320415
0.315798
0.311427
0.30729
0.303375
0.299672
0.296169
0.292855
0.28972
0.286785
0.367671
0.360259
0.353118
0.346242
0.339645
0.333347
0.327362
0.3217
0.316363
0.311347
0.306643
0.30224
0.298122
0.294273
0.290676
0.287313
0.284168
0.281251
0.36718
0.358819
0.35053
0.342478
0.334798
0.327588
0.320901
0.314758
0.309158
0.304084
0.299513
0.295409
0.291738
0.288459
0.285534
0.282926
0.280602
0.278544
0.365303
0.35443
0.343792
0.333856
0.324953
0.317237
0.310735
0.305417
0.30123
0.298106
0.295963
0.294713
0.294265
0.294527
0.29541
0.296836
0.298732
0.301034
0.357578
0.338119
0.321604
0.309408
0.301767
0.298527
0.299398
0.304022
0.312008
0.322946
0.336431
0.352065
0.369467
0.388283
0.408193
0.428914
0.450231
0.471831
0.314726
0.264046
0.224473
0.193392
0.168988
0.149933
0.135233
0.12412
0.115982
0.110327
0.106749
0.104911
0.104526
0.105354
0.107187
0.10985
0.113195
0.117085
0.056996
0.209331
0.241819
0.250507
0.252381
0.252985
0.254066
0.253737
0.248733
0.23646
0.214821
0.183436
0.149022
0.137532
0.136878
0.144373
0.141696
0.139957
0.142203
0.179144
0.353372
0.523991
0.683165
0.823642
0.941841
1.03667
1.10864
1.15927
1.19064
1.20512
1.20517
1.1932
1.17151
1.14218
1.10702
1.06763
1.02655
0.985902
0.945809
0.90638
0.867735
0.829969
0.793156
0.757344
0.722561
0.688808
0.656067
0.624297
0.593435
0.563401
0.534102
0.50544
0.477329
0.449705
0.422541
0.395859
0.369731
0.344278
0.319667
0.296105
0.273855
0.253305
0.235302
0.221855
0.216939
0.219678
0.224659
0.230979
0.238522
0.247289
0.257293
0.268509
0.280835
0.293997
0.307407
0.319951
0.329747
0.334205
0.33094
0.318782
0.297013
0.267242
0.232893
0.198461
0.165866
0.140964
0.124587
0.117271
0.118734
0.127987
0.14312
0.162162
0.180307
0.19956
0.219291
0.236777
0.248322
0.255282
0.269673
0.325261
0.485707
0.677576
0.832164
0.945512
1.01819
1.05452
1.06018
1.0412
1.00333
0.951827
0.891054
0.826443
0.762218
0.699472
0.639097
0.581742
0.52783
0.477584
0.431066
0.388226
0.34897
0.313286
0.281547
0.255692
0.244983
0.266328
0.297397
0.334402
0.377732
0.428008
0.48566
0.550796
0.623162
0.702095
0.786295
0.874359
0.966103
1.05251
1.10066
1.09421
1.02132
0.878732
0.678965
0.455866
0.262881
0.140334
0.0919864
0.0947753
0.104424
0.110495
0.113622
0.115274
0.113378
0.106563
0.0966337
0.0853341
0.0737938
0.0628037
0.0529645
0.0444557
0.0377248
0.0331287
0.0308037
0.0307178
0.0327281
0.0363888
0.040758
0.0444388
0.0466143
0.0487699
0.0530923
0.0564683
0.0587211
0.0624612
0.0661989
0.0699624
0.0737201
0.0775748
0.0817514
0.0850447
0.182638
0.33653
0.338366
0.318685
0.290782
0.262918
0.239625
0.220346
0.205437
0.193635
0.18193
0.168399
0.165971
0.202658
0.262513
0.345462
0.419238
0.443923
0.459265
0.485026
0.522967
0.554993
0.577847
0.591335
0.596702
0.595758
0.590434
0.582536
0.573611
0.564909
0.557387
0.551747
0.548501
0.548023
0.550581
0.556368
0.564072
0.571963
0.579913
0.587875
0.595845
0.603848
0.611925
0.620109
0.628408
0.636788
0.64515
0.653322
0.661045
0.667979
0.673709
0.677773
0.679702
0.679072
0.675557
0.668983
0.659353
0.646854
0.631831
0.614739
0.5961
0.576478
0.556394
0.53633
0.517693
0.501593
0.486844
0.473356
0.461131
0.450157
0.440391
0.431758
0.42416
0.417519
0.411814
0.407081
0.403156
0.398954
0.391647
0.379256
0.363608
0.34851
0.337261
0.33036
0.326143
0.320256
0.306179
0.281015
0.24738
0.21197
0.183201
0.163089
0.149394
0.140024
0.137428
0.152334
0.196488
0.258226
0.309532
0.344841
0.382016
0.407949
0.418245
0.418242
0.413029
0.406385
0.400665
0.397208
0.396808
0.400024
0.407386
0.4174
0.42766
0.438145
0.44879
0.459468
0.469981
0.480021
0.489136
0.496701
0.501943
0.504016
0.502092
0.495355
0.484143
0.471381
0.45634
0.439817
0.422633
0.405406
0.388562
0.372343
0.356853
0.342113
0.328018
0.314405
0.301483
0.291542
0.298328
0.3167
0.33825
0.354302
0.359888
0.356562
0.351829
0.350375
0.351944
0.355851
0.363905
0.372908
0.372919
0.355977
0.328169
0.300503
0.275455
0.252643
0.231166
0.210034
0.188576
0.166811
0.145386
0.125383
0.107919
0.0938262
0.0836544
0.0779546
0.0775027
0.0824053
0.0911573
0.106035
0.133673
0.153213
0.130633
0.108
0.100414
0.101748
0.107448
0.114872
0.122401
0.129889
0.247278
0.334597
0.34043
0.314847
0.275327
0.239474
0.212949
0.195122
0.183452
0.179171
0.190584
0.231984
0.320156
0.426367
0.480009
0.477152
0.464853
0.456883
0.455706
0.461063
0.469766
0.477524
0.483509
0.487956
0.491458
0.494588
0.497741
0.501113
0.504775
0.508764
0.513135
0.517955
0.523244
0.52893
0.534831
0.540819
0.54668
0.552273
0.557566
0.562634
0.567653
0.57288
0.578619
0.585176
0.592815
0.601716
0.611934
0.623381
0.635798
0.648761
0.661687
0.673866
0.684515
0.692845
0.698156
0.699922
0.697858
0.691951
0.682444
0.669772
0.654499
0.637247
0.61858
0.598921
0.580419
0.563154
0.546807
0.531471
0.517258
0.504269
0.49259
0.48229
0.473418
0.465998
0.460038
0.455533
0.452422
0.450436
0.448864
0.44648
0.44136
0.430665
0.413144
0.39133
0.369372
0.349599
0.331412
0.311968
0.288676
0.261483
0.232859
0.208078
0.190342
0.181377
0.189745
0.218984
0.25218
0.273461
0.284415
0.296413
0.310304
0.322281
0.332691
0.342569
0.351623
0.359247
0.365437
0.370852
0.376268
0.382081
0.388217
0.394943
0.402207
0.40985
0.417762
0.425868
0.434089
0.442276
0.450135
0.457162
0.462641
0.465729
0.46551
0.460939
0.452824
0.44195
0.428687
0.413956
0.398565
0.383144
0.368138
0.353828
0.340368
0.327834
0.316268
0.305736
0.296356
0.287763
0.279079
0.269912
0.2615
0.255252
0.251255
0.249473
0.251659
0.260337
0.276305
0.296528
0.314312
0.322623
0.317622
0.300534
0.278055
0.253594
0.230822
0.212111
0.197484
0.185803
0.175451
0.164813
0.152655
0.138507
0.122902
0.106936
0.0922349
0.0814769
0.0780318
0.0848374
0.102859
0.135936
0.17596
0.170712
0.129641
0.111411
0.107786
0.109375
0.113187
0.118511
0.124602
0.131252
0.296057
0.381486
0.389
0.329981
0.264907
0.213857
0.193308
0.192721
0.204302
0.236021
0.295058
0.37567
0.448383
0.474776
0.463048
0.441974
0.427966
0.42289
0.424887
0.431658
0.440813
0.450549
0.460126
0.469149
0.477302
0.484288
0.489915
0.494226
0.497548
0.500389
0.503257
0.506491
0.510195
0.514252
0.518336
0.521313
0.52273
0.522379
0.520236
0.5165
0.511602
0.506183
0.501036
0.497027
0.494991
0.495634
0.499448
0.506653
0.517172
0.530625
0.546362
0.563497
0.580965
0.597596
0.612226
0.623821
0.631611
0.635171
0.634448
0.629705
0.621427
0.610209
0.596622
0.581524
0.566743
0.552059
0.537644
0.523694
0.51039
0.497906
0.486423
0.476132
0.467229
0.459907
0.454324
0.450543
0.448443
0.447633
0.447385
0.44665
0.444278
0.439289
0.430806
0.417646
0.398932
0.376354
0.352932
0.33061
0.309522
0.288972
0.268859
0.250284
0.238092
0.238217
0.247139
0.252006
0.250598
0.252041
0.258934
0.271968
0.288692
0.305873
0.32113
0.332353
0.338724
0.341209
0.341652
0.341638
0.342008
0.342995
0.344554
0.346811
0.349511
0.352465
0.355612
0.359011
0.362791
0.367058
0.371761
0.376589
0.380923
0.383887
0.384412
0.381543
0.375849
0.367527
0.357232
0.345775
0.3339
0.322198
0.311074
0.300766
0.291379
0.282935
0.275453
0.269009
0.263744
0.259839
0.257267
0.255177
0.251105
0.244333
0.235568
0.226202
0.218098
0.21343
0.213537
0.217394
0.22137
0.221159
0.214221
0.200934
0.183743
0.166155
0.14986
0.135305
0.122985
0.113156
0.105735
0.100285
0.0960423
0.0920328
0.0873217
0.081696
0.0758581
0.0717011
0.0732625
0.0866476
0.115523
0.157949
0.187667
0.160653
0.123901
0.11182
0.108516
0.107861
0.109457
0.113091
0.117983
0.12397
0.34025
0.459937
0.425911
0.347179
0.284047
0.253044
0.246671
0.259215
0.289169
0.3342
0.384782
0.423302
0.436471
0.427866
0.413205
0.403698
0.402494
0.408275
0.418854
0.432245
0.446844
0.461515
0.475455
0.487988
0.498641
0.507299
0.514282
0.520221
0.525807
0.531567
0.537747
0.544309
0.550992
0.557396
0.562126
0.564413
0.563574
0.558996
0.550253
0.537243
0.520297
0.500251
0.478427
0.456515
0.436371
0.41976
0.408114
0.40235
0.4028
0.409235
0.420979
0.437027
0.456132
0.476853
0.49762
0.516863
0.53319
0.545578
0.553482
0.556846
0.555984
0.551418
0.543727
0.534386
0.524134
0.513263
0.502059
0.490751
0.479539
0.46862
0.458207
0.448534
0.439857
0.432441
0.426535
0.422329
0.419891
0.419066
0.419361
0.419873
0.419463
0.417174
0.412496
0.405073
0.394228
0.379093
0.360493
0.341488
0.324905
0.31159
0.300967
0.293174
0.289183
0.284187
0.268382
0.244164
0.232549
0.23506
0.247217
0.265884
0.286627
0.304721
0.316651
0.321363
0.320439
0.316581
0.312065
0.308191
0.30545
0.303858
0.303223
0.303121
0.303089
0.302898
0.30253
0.302186
0.302228
0.303052
0.3049
0.307689
0.310913
0.31366
0.314719
0.313303
0.309399
0.303247
0.295431
0.286679
0.277684
0.268995
0.26097
0.253776
0.247431
0.241868
0.237006
0.232819
0.22938
0.226909
0.225717
0.226037
0.227331
0.227446
0.224795
0.219028
0.211079
0.202436
0.194502
0.187882
0.181929
0.175275
0.166906
0.156746
0.145393
0.133621
0.121998
0.110898
0.100635
0.0914969
0.0837082
0.0773599
0.0723539
0.0684022
0.0651282
0.0622939
0.0601758
0.0604869
0.0678787
0.0889221
0.127086
0.170311
0.184648
0.149517
0.119733
0.110627
0.106073
0.103714
0.104012
0.106409
0.11008
0.114834
0.385489
0.51901
0.470033
0.386162
0.334515
0.316142
0.315108
0.328682
0.350589
0.373691
0.390528
0.396667
0.393812
0.388348
0.386629
0.391351
0.402148
0.417424
0.435549
0.45511
0.474854
0.493662
0.510651
0.525362
0.537887
0.54878
0.558822
0.56874
0.579024
0.589848
0.601084
0.612351
0.623076
0.632552
0.640589
0.64693
0.650458
0.649867
0.643806
0.631055
0.610756
0.582702
0.547619
0.507374
0.464925
0.42395
0.388139
0.360405
0.342333
0.334098
0.334833
0.343166
0.357582
0.37648
0.398109
0.420549
0.441857
0.460322
0.474729
0.484555
0.489774
0.490776
0.4884
0.483838
0.47773
0.470507
0.462481
0.453891
0.444937
0.435805
0.426696
0.417836
0.409488
0.401937
0.395471
0.390341
0.386714
0.384612
0.383845
0.383947
0.384195
0.383776
0.38203
0.378565
0.373002
0.364802
0.353472
0.340933
0.330213
0.323201
0.319588
0.31838
0.315706
0.29831
0.260642
0.226054
0.218077
0.22652
0.244767
0.267499
0.288618
0.30292
0.308358
0.306407
0.30028
0.29294
0.286256
0.281073
0.277531
0.275359
0.274109
0.273009
0.271486
0.26925
0.266298
0.262951
0.2598
0.257547
0.25676
0.257603
0.259708
0.262156
0.263638
0.263381
0.261124
0.256995
0.251472
0.245203
0.238836
0.232881
0.227644
0.223217
0.219518
0.216359
0.21353
0.210877
0.208357
0.206078
0.204317
0.203519
0.204359
0.20613
0.20745
0.206848
0.203546
0.197808
0.190531
0.182598
0.174481
0.166259
0.157869
0.149291
0.14055
0.131647
0.122555
0.113281
0.103934
0.094741
0.0860009
0.0780093
0.0709926
0.0650716
0.0602917
0.0567579
0.0549703
0.0567104
0.0666746
0.092165
0.134674
0.174974
0.177851
0.142322
0.11733
0.108653
0.102899
0.099755
0.0992947
0.100651
0.103186
0.106579
0.4236
0.580404
0.519887
0.436064
0.38569
0.359969
0.352208
0.35391
0.359214
0.364234
0.367136
0.368336
0.370045
0.374948
0.384744
0.399541
0.418406
0.440021
0.462924
0.485538
0.506366
0.524311
0.538934
0.55048
0.559698
0.567559
0.575001
0.582762
0.591321
0.600897
0.611486
0.62289
0.634716
0.646815
0.660249
0.674215
0.687472
0.698509
0.705576
0.706738
0.699952
0.683219
0.654906
0.61431
0.562485
0.502986
0.441866
0.386317
0.342297
0.312614
0.296784
0.292579
0.297626
0.309931
0.327685
0.348903
0.371354
0.39276
0.411113
0.425368
0.434967
0.440127
0.441826
0.441022
0.438297
0.434086
0.428716
0.422441
0.415465
0.407963
0.400109
0.392096
0.384153
0.376548
0.369573
0.363515
0.358612
0.355015
0.352746
0.351666
0.351459
0.351648
0.351688
0.351099
0.349487
0.346404
0.341418
0.334991
0.32941
0.327237
0.328867
0.331639
0.325269
0.293688
0.243996
0.210675
0.208958
0.223533
0.24642
0.270591
0.28916
0.298147
0.297914
0.291648
0.282932
0.274359
0.267301
0.262204
0.258903
0.25687
0.255467
0.253836
0.25136
0.247685
0.242776
0.237014
0.231163
0.226197
0.223018
0.222027
0.223014
0.224986
0.226739
0.227487
0.226771
0.224574
0.221249
0.217365
0.213523
0.210203
0.207666
0.205932
0.20482
0.204023
0.203204
0.202084
0.2005
0.198439
0.196061
0.19372
0.192107
0.191801
0.192432
0.193141
0.192865
0.190808
0.186823
0.181395
0.175202
0.168734
0.162202
0.155613
0.148828
0.141635
0.133828
0.125307
0.116138
0.10655
0.0968851
0.0875134
0.0787726
0.0709379
0.0642524
0.0590543
0.0561027
0.0573812
0.0675876
0.0940308
0.137489
0.174425
0.171374
0.138418
0.116539
0.106541
0.100072
0.0967227
0.0957195
0.0959897
0.0974632
0.0996772
0.451651
0.630807
0.565919
0.474428
0.411811
0.377837
0.360594
0.352452
0.349398
0.34953
0.352252
0.357785
0.36678
0.37985
0.397111
0.417982
0.441268
0.46528
0.488038
0.50769
0.522974
0.533493
0.53967
0.542512
0.543279
0.543206
0.543329
0.544426
0.547044
0.551562
0.558227
0.567168
0.578341
0.59287
0.610547
0.630563
0.651787
0.6728
0.691969
0.707518
0.71758
0.720125
0.712764
0.692599
0.656626
0.603275
0.534922
0.459566
0.389067
0.333722
0.297267
0.277527
0.270688
0.273722
0.284589
0.301401
0.321909
0.343603
0.363638
0.380537
0.392806
0.401023
0.405924
0.4081
0.408062
0.406239
0.402976
0.398549
0.393176
0.387037
0.380292
0.373104
0.365657
0.358178
0.350932
0.344203
0.338261
0.333328
0.329568
0.327086
0.325918
0.32598
0.326998
0.328519
0.330037
0.33102
0.330845
0.329073
0.327251
0.328371
0.333205
0.33671
0.323801
0.281475
0.228241
0.199661
0.203389
0.223071
0.248856
0.272495
0.28751
0.291917
0.287937
0.279437
0.26981
0.261184
0.254494
0.249851
0.246852
0.244849
0.243137
0.240963
0.237736
0.23305
0.226787
0.219287
0.211416
0.204327
0.199199
0.196674
0.196591
0.198016
0.19998
0.201609
0.202321
0.201939
0.200681
0.19903
0.197553
0.196709
0.196726
0.197558
0.198923
0.2004
0.201544
0.201982
0.201475
0.199933
0.197413
0.19413
0.190527
0.187432
0.185313
0.184168
0.183588
0.182884
0.181404
0.178877
0.175505
0.171673
0.167618
0.163311
0.158517
0.152914
0.146225
0.138322
0.129283
0.119383
0.109023
0.0986427
0.0886453
0.0793677
0.0711163
0.0643158
0.0598604
0.059856
0.0689099
0.0941643
0.136245
0.170536
0.165938
0.136647
0.116309
0.105196
0.0979799
0.09453
0.0930999
0.0923403
0.0927188
0.0941552
0.461313
0.652812
0.584797
0.487734
0.420307
0.380399
0.357757
0.345996
0.341822
0.343485
0.349988
0.360781
0.375619
0.394276
0.416161
0.440024
0.463932
0.485574
0.502821
0.514292
0.519629
0.519448
0.515032
0.507937
0.49965
0.491392
0.484082
0.478407
0.474931
0.474179
0.476659
0.482803
0.492874
0.508344
0.528305
0.552054
0.578546
0.606337
0.633656
0.658584
0.679338
0.69451
0.702949
0.702967
0.691172
0.662243
0.611378
0.539317
0.456398
0.379829
0.322605
0.286383
0.266947
0.259876
0.262579
0.273285
0.289805
0.309786
0.329731
0.347075
0.361189
0.371829
0.379202
0.383711
0.385797
0.385866
0.38427
0.381301
0.377202
0.372171
0.366373
0.359956
0.353071
0.345898
0.338656
0.331598
0.324986
0.31907
0.314089
0.310308
0.308055
0.307642
0.309176
0.312369
0.316557
0.320844
0.324161
0.325521
0.326076
0.328975
0.334815
0.336373
0.31683
0.268488
0.216215
0.192272
0.199451
0.22248
0.250249
0.272652
0.284513
0.28573
0.279598
0.270137
0.260422
0.25217
0.245945
0.24157
0.238476
0.236039
0.233673
0.230788
0.226884
0.221537
0.21453
0.20604
0.196956
0.188553
0.182049
0.178466
0.17744
0.178425
0.180585
0.183039
0.185087
0.18639
0.187024
0.187396
0.188048
0.189434
0.191755
0.194889
0.198445
0.201889
0.20469
0.206433
0.206876
0.205933
0.203633
0.200096
0.195556
0.190528
0.185777
0.181858
0.17906
0.177299
0.176178
0.175225
0.174135
0.17281
0.171196
0.169114
0.166234
0.162165
0.156581
0.149341
0.14054
0.130496
0.119672
0.108577
0.09768
0.0873669
0.0779681
0.0699137
0.0641092
0.0626468
0.0699367
0.0927872
0.132044
0.164426
0.161134
0.135906
0.11644
0.104427
0.0968984
0.0931434
0.09115
0.0897154
0.089023
0.0897769
0.437564
0.632659
0.576057
0.48413
0.416344
0.374927
0.351611
0.340684
0.338888
0.344166
0.355102
0.37074
0.390386
0.413203
0.437778
0.461966
0.483179
0.499007
0.507854
0.509294
0.504043
0.493623
0.479879
0.464545
0.448984
0.434153
0.42071
0.409188
0.400139
0.394231
0.392277
0.395163
0.40372
0.418699
0.4391
0.464385
0.493725
0.525848
0.558964
0.590803
0.618937
0.641462
0.657723
0.668074
0.671868
0.664845
0.639048
0.587427
0.511861
0.428129
0.357341
0.307503
0.276809
0.260402
0.25514
0.25944
0.271108
0.28748
0.305623
0.32308
0.33829
0.350529
0.359677
0.365945
0.369674
0.371226
0.370942
0.369123
0.366031
0.36189
0.356884
0.351166
0.34487
0.338137
0.331134
0.324064
0.317156
0.310642
0.30478
0.299925
0.296622
0.295568
0.29733
0.301906
0.308486
0.315592
0.321461
0.324732
0.326439
0.329705
0.334707
0.332959
0.308246
0.25767
0.208146
0.187598
0.196587
0.221047
0.248878
0.2703
0.28061
0.280196
0.272986
0.263221
0.253704
0.245825
0.239834
0.235338
0.231726
0.228463
0.225182
0.221489
0.216951
0.211191
0.203928
0.195115
0.185465
0.17665
0.169608
0.165155
0.163467
0.164199
0.166648
0.169943
0.173272
0.176131
0.178461
0.180605
0.183103
0.186413
0.190695
0.195729
0.200988
0.205822
0.209653
0.212095
0.212991
0.212361
0.210307
0.206938
0.202357
0.196696
0.190493
0.184455
0.17928
0.175447
0.173087
0.172008
0.171844
0.172183
0.172584
0.172551
0.171537
0.16902
0.164609
0.15814
0.149722
0.139712
0.128627
0.117039
0.105478
0.0943803
0.0841046
0.0750744
0.0681478
0.0653023
0.0706431
0.0904859
0.126059
0.156856
0.156415
0.135453
0.116865
0.104288
0.0964522
0.0922405
0.0896728
0.0877704
0.0863669
0.086259
0.399204
0.592221
0.55139
0.46893
0.404575
0.365003
0.343858
0.33585
0.337661
0.347066
0.362499
0.382809
0.406871
0.433106
0.459199
0.482275
0.499495
0.50878
0.509315
0.50166
0.487456
0.468887
0.448078
0.426697
0.405835
0.386118
0.36792
0.351596
0.337693
0.327105
0.321064
0.321037
0.328913
0.343247
0.363139
0.388072
0.417495
0.450591
0.486026
0.52174
0.554932
0.582632
0.603176
0.617437
0.62744
0.63212
0.624521
0.594318
0.536199
0.458629
0.386258
0.329966
0.291709
0.268178
0.256282
0.254415
0.261067
0.273908
0.290063
0.306855
0.322344
0.335441
0.345737
0.353244
0.358184
0.360857
0.361577
0.360644
0.358334
0.354894
0.350535
0.345428
0.339707
0.333491
0.3269
0.320081
0.313204
0.306458
0.300072
0.294419
0.290179
0.28838
0.290088
0.295724
0.304437
0.31407
0.321953
0.326332
0.328224
0.330697
0.33363
0.328291
0.300248
0.249918
0.203438
0.184734
0.193826
0.218054
0.245146
0.265726
0.275441
0.274912
0.267869
0.258324
0.249044
0.241299
0.235282
0.230338
0.225937
0.22169
0.217441
0.212937
0.207707
0.201516
0.194178
0.185621
0.176348
0.16742
0.160054
0.155189
0.153201
0.153942
0.156847
0.161055
0.16564
0.169932
0.173751
0.177401
0.18144
0.186332
0.192165
0.198572
0.204863
0.210286
0.214269
0.216542
0.217125
0.216225
0.2141
0.210937
0.206793
0.201559
0.195287
0.188518
0.181978
0.176422
0.172429
0.170249
0.169784
0.170646
0.172225
0.173755
0.174416
0.17346
0.170348
0.164839
0.157027
0.147288
0.136184
0.124341
0.112342
0.100669
0.0897143
0.0798982
0.0720208
0.0679059
0.0712909
0.087892
0.119312
0.148459
0.151405
0.134813
0.117471
0.104687
0.0964821
0.0917242
0.0886323
0.0862644
0.0844214
0.0836251
0.357026
0.542086
0.519157
0.449184
0.389906
0.353168
0.334771
0.329838
0.335081
0.348297
0.367939
0.392706
0.421017
0.450568
0.478288
0.5008
0.515176
0.519654
0.514028
0.499609
0.478756
0.454155
0.428141
0.40232
0.377543
0.354151
0.332219
0.311916
0.293809
0.279116
0.269917
0.268856
0.278229
0.293375
0.313167
0.336974
0.3646
0.39579
0.429829
0.465259
0.499627
0.529574
0.55226
0.56769
0.578847
0.587129
0.587855
0.571124
0.529682
0.468136
0.401823
0.345143
0.303603
0.275902
0.259668
0.253625
0.256598
0.266563
0.2808
0.296603
0.311863
0.325266
0.336188
0.344474
0.350229
0.353685
0.355122
0.354832
0.353098
0.350187
0.346335
0.341738
0.336548
0.330873
0.324803
0.318427
0.311852
0.305199
0.298635
0.292487
0.287473
0.284857
0.286188
0.292438
0.302914
0.314871
0.324591
0.329734
0.331222
0.332113
0.332316
0.323668
0.293896
0.245213
0.201412
0.183129
0.190797
0.213418
0.239185
0.259135
0.269039
0.269293
0.263163
0.254388
0.245672
0.23818
0.231851
0.226112
0.220631
0.215357
0.210322
0.205183
0.199549
0.193175
0.185868
0.177558
0.16859
0.159855
0.152533
0.14763
0.145674
0.1467
0.150267
0.155498
0.161331
0.166935
0.172031
0.176921
0.182201
0.188319
0.195244
0.202407
0.208941
0.214036
0.21721
0.21839
0.217842
0.216001
0.213314
0.210097
0.206445
0.20216
0.196844
0.190718
0.184247
0.178119
0.173098
0.169797
0.168491
0.169048
0.170945
0.173343
0.175239
0.175662
0.173868
0.169471
0.162487
0.153274
0.142415
0.130576
0.118387
0.106375
0.0949582
0.0845512
0.0758882
0.0706285
0.0721299
0.0854793
0.112564
0.139779
0.14594
0.133677
0.118064
0.105454
0.0969129
0.0916176
0.0880595
0.0852958
0.0830463
0.0816736
0.310304
0.494214
0.489908
0.432078
0.37715
0.341906
0.324866
0.321666
0.329056
0.344918
0.367802
0.396356
0.42869
0.461995
0.492666
0.516911
0.531574
0.534854
0.526694
0.508736
0.483798
0.455037
0.42514
0.395905
0.368199
0.342296
0.318136
0.295816
0.275909
0.25974
0.249307
0.248915
0.259475
0.275172
0.294001
0.315462
0.339792
0.367175
0.397293
0.429112
0.460666
0.488946
0.510951
0.525968
0.536312
0.544185
0.54716
0.537275
0.50676
0.456843
0.399295
0.347393
0.307402
0.279267
0.261606
0.253739
0.254823
0.26307
0.275944
0.290842
0.305656
0.319
0.330138
0.338804
0.345012
0.348931
0.350808
0.350921
0.349559
0.347005
0.343519
0.339324
0.334594
0.329444
0.323946
0.318144
0.312077
0.305791
0.299366
0.293035
0.287456
0.283996
0.284604
0.290878
0.302566
0.316629
0.328294
0.334308
0.335257
0.334207
0.331441
0.31995
0.289602
0.243215
0.201537
0.182553
0.187571
0.207468
0.231369
0.250755
0.261326
0.262979
0.258329
0.250719
0.242689
0.235335
0.228619
0.222168
0.215885
0.209929
0.204343
0.198739
0.192774
0.186211
0.178888
0.170754
0.162087
0.15366
0.146587
0.1419
0.140253
0.141835
0.146285
0.152663
0.15974
0.166531
0.172695
0.178572
0.184807
0.191799
0.19933
0.206587
0.212548
0.216423
0.217915
0.217221
0.214876
0.211545
0.207843
0.204214
0.200828
0.197501
0.193602
0.189018
0.183842
0.178452
0.1735
0.169734
0.167738
0.167716
0.169394
0.172049
0.174655
0.176108
0.175477
0.172201
0.166167
0.157668
0.147271
0.135664
0.123517
0.111396
0.0997487
0.0889786
0.0797396
0.073508
0.0732676
0.0835069
0.106305
0.131256
0.140036
0.131878
0.118411
0.106376
0.0976558
0.0918912
0.0878929
0.0847588
0.0821138
0.0802314
0.262842
0.449905
0.465698
0.422806
0.370734
0.334249
0.315828
0.31195
0.319397
0.336004
0.360415
0.391341
0.42682
0.463841
0.498525
0.526781
0.545128
0.551424
0.545304
0.528218
0.502983
0.472964
0.441214
0.409938
0.380414
0.35324
0.328683
0.307102
0.28919
0.276054
0.268887
0.269774
0.276945
0.28819
0.302371
0.319207
0.338831
0.361323
0.386349
0.412985
0.439547
0.463497
0.482227
0.494918
0.503303
0.50925
0.510973
0.501981
0.4757
0.433
0.383666
0.338695
0.303184
0.27737
0.260746
0.253221
0.254181
0.261969
0.274213
0.288489
0.30282
0.315874
0.326906
0.335603
0.341925
0.345997
0.348035
0.348308
0.34711
0.344738
0.341474
0.337565
0.333208
0.328537
0.323617
0.31846
0.313046
0.307342
0.301331
0.29512
0.289225
0.284964
0.284529
0.290141
0.302272
0.318064
0.331913
0.339296
0.340073
0.337198
0.331567
0.317705
0.287479
0.24356
0.203473
0.183009
0.18449
0.200769
0.222228
0.240874
0.25226
0.25565
0.252895
0.246781
0.239594
0.232452
0.225541
0.218755
0.212122
0.205775
0.199736
0.193717
0.187431
0.180664
0.17327
0.165223
0.156782
0.148659
0.141919
0.13762
0.13652
0.138924
0.144485
0.152132
0.160438
0.168278
0.175305
0.18194
0.188873
0.196398
0.204039
0.210729
0.215353
0.217249
0.21639
0.213283
0.20873
0.203583
0.198584
0.194259
0.190846
0.188203
0.185718
0.183001
0.179813
0.176146
0.172337
0.169023
0.166918
0.166508
0.167828
0.170393
0.173288
0.175394
0.175666
0.173387
0.168296
0.160586
0.150778
0.139556
0.127617
0.115569
0.103888
0.0929743
0.0833969
0.0764242
0.0746594
0.0820435
0.100778
0.123213
0.133846
0.129385
0.118319
0.107223
0.0985566
0.092444
0.0880398
0.0845305
0.0814816
0.0791544
0.223434
0.416338
0.43833
0.415734
0.373134
0.335751
0.31322
0.305341
0.309622
0.323958
0.346973
0.377452
0.413606
0.452631
0.490802
0.52402
0.548569
0.561811
0.562681
0.551857
0.531515
0.504691
0.474522
0.443627
0.41388
0.386477
0.362174
0.341573
0.32525
0.313725
0.307403
0.307065
0.310875
0.31783
0.327501
0.339855
0.354966
0.372719
0.392599
0.413603
0.434139
0.452048
0.465379
0.473814
0.47887
0.481651
0.479986
0.468222
0.44174
0.402886
0.360569
0.322999
0.293192
0.271275
0.257449
0.251983
0.254278
0.262674
0.274939
0.288872
0.302719
0.315302
0.325947
0.334353
0.340463
0.344377
0.346295
0.346482
0.345237
0.342871
0.339682
0.335941
0.331867
0.327609
0.323239
0.318751
0.314077
0.309112
0.30374
0.29793
0.291997
0.287067
0.285368
0.289632
0.301241
0.318071
0.334248
0.343744
0.345173
0.341065
0.332993
0.31722
0.287476
0.245942
0.207032
0.184631
0.182018
0.193993
0.212392
0.229881
0.241903
0.247073
0.246421
0.242075
0.236004
0.22937
0.222605
0.215817
0.209084
0.202523
0.196179
0.189862
0.183328
0.176374
0.168874
0.160831
0.152523
0.144658
0.138293
0.134524
0.134203
0.137702
0.144602
0.153619
0.163109
0.171846
0.179539
0.186729
0.194131
0.201857
0.20912
0.214623
0.217259
0.216599
0.212952
0.207144
0.200209
0.193144
0.186756
0.181603
0.177954
0.175725
0.174392
0.173433
0.17239
0.170923
0.168991
0.166948
0.165437
0.165091
0.166217
0.16861
0.171558
0.174024
0.174933
0.17346
0.169212
0.16227
0.153084
0.142318
0.130681
0.118816
0.107233
0.0963391
0.0866353
0.0791742
0.0761604
0.0810231
0.0960393
0.115842
0.127577
0.126284
0.117682
0.107792
0.09942
0.0931134
0.0883563
0.084461
0.0810164
0.0783563
0.190731
0.423294
0.430818
0.411183
0.379192
0.345475
0.319568
0.305437
0.303165
0.31157
0.329481
0.355812
0.389101
0.427068
0.46654
0.503787
0.535115
0.557487
0.569035
0.569346
0.559441
0.541427
0.517953
0.491653
0.464778
0.43906
0.415748
0.395711
0.379512
0.367428
0.359475
0.355793
0.355432
0.358103
0.363634
0.371918
0.382775
0.395787
0.410216
0.424967
0.43855
0.449266