/*--------------------------------*- C++ -*----------------------------------*\
  =========                 |
  \\      /  F ield         | OpenFOAM: The Open Source CFD Toolbox
   \\    /   O peration     | Website:  https://openfoam.org
    \\  /    A nd           | Version:  9
     \\/     M anipulation  |
\*---------------------------------------------------------------------------*/
FoamFile
{
    format      ascii;
    class       volScalarField;
    location    "0.004";
    object      k_0;
}
// * * * * * * * * * * * * * * * * * * * * * * * * * * * * * * * * * * * * * //

dimensions      [0 2 -2 0 0 0 0];

internalField   nonuniform List<scalar> 
12225
(
2.15132e-05
2.69453e-05
6.66386e-05
0.000105513
0.000107591
8.62503e-05
5.39412e-05
4.3624e-05
4.26782e-05
4.34933e-05
4.33528e-05
4.02298e-05
3.22115e-05
2.84639e-05
2.77824e-05
3.38833e-05
4.86781e-05
0.000463602
2.0016e-05
2.11125e-05
2.87197e-05
3.46858e-05
3.48979e-05
3.19848e-05
2.76943e-05
2.66942e-05
2.71367e-05
2.95747e-05
3.10287e-05
3.11624e-05
3.08144e-05
2.91725e-05
2.61336e-05
2.54343e-05
2.47046e-05
2.99665e-05
2.00221e-05
1.67004e-05
1.75682e-05
1.75428e-05
1.58013e-05
1.39387e-05
1.33259e-05
1.32936e-05
1.35944e-05
1.49872e-05
1.641e-05
1.71524e-05
1.73942e-05
1.73877e-05
1.72164e-05
1.6532e-05
1.54461e-05
1.48101e-05
2.01236e-05
2.01975e-05
2.01404e-05
1.97666e-05
1.81658e-05
1.69635e-05
1.65935e-05
1.66304e-05
1.65939e-05
1.63999e-05
1.60485e-05
1.53816e-05
1.36732e-05
1.20988e-05
1.14996e-05
1.15068e-05
1.17835e-05
1.24009e-05
2.19478e-05
2.35422e-05
2.31986e-05
2.17354e-05
2.13184e-05
2.13853e-05
2.13128e-05
2.12856e-05
2.13109e-05
2.14122e-05
2.14265e-05
2.14111e-05
2.13701e-05
2.12593e-05
2.11918e-05
2.10562e-05
2.09812e-05
2.08359e-05
2.1166e-05
2.3982e-05
2.42434e-05
2.32971e-05
2.25962e-05
2.2808e-05
2.43379e-05
2.74341e-05
2.84531e-05
2.83644e-05
2.6989e-05
2.45939e-05
2.32115e-05
2.25355e-05
2.22392e-05
2.2038e-05
2.19013e-05
2.17343e-05
2.01554e-05
2.15485e-05
2.20361e-05
2.19537e-05
2.19576e-05
2.28589e-05
2.54554e-05
2.58344e-05
2.50028e-05
2.32518e-05
2.23897e-05
2.20862e-05
2.20527e-05
2.2137e-05
2.23966e-05
2.24954e-05
2.24962e-05
2.24446e-05
2.01842e-05
2.03893e-05
2.10285e-05
2.12774e-05
2.12292e-05
2.10298e-05
2.10115e-05
2.11361e-05
2.1906e-05
2.47818e-05
2.77654e-05
2.9518e-05
3.02947e-05
3.04619e-05
3.02986e-05
2.90591e-05
2.65658e-05
2.45753e-05
2.11272e-05
2.18687e-05
2.27949e-05
2.30512e-05
2.29083e-05
2.19834e-05
2.11788e-05
2.10231e-05
2.11536e-05
2.20445e-05
2.60647e-05
3.38357e-05
3.85126e-05
4.0158e-05
4.02447e-05
3.93079e-05
3.46569e-05
2.93607e-05
2.40584e-05
2.40044e-05
2.3626e-05
2.36645e-05
2.30813e-05
2.21176e-05
2.13846e-05
2.1038e-05
2.09693e-05
2.10298e-05
2.15024e-05
2.25578e-05
2.31428e-05
2.33107e-05
2.32972e-05
2.30546e-05
2.2611e-05
2.24652e-05
2.27921e-05
2.31417e-05
2.34867e-05
2.3552e-05
2.32118e-05
2.20924e-05
2.11348e-05
2.0751e-05
2.06512e-05
2.06408e-05
2.06627e-05
2.08046e-05
2.10239e-05
2.11619e-05
2.12439e-05
2.13091e-05
2.14071e-05
2.1593e-05
2.338e-05
2.37671e-05
2.21028e-05
2.07683e-05
2.05474e-05
2.06525e-05
2.14223e-05
2.30953e-05
2.39568e-05
2.40922e-05
2.38934e-05
2.29022e-05
2.19545e-05
2.15164e-05
2.13967e-05
2.14151e-05
2.15971e-05
2.20041e-05
2.14427e-05
2.11371e-05
2.09123e-05
2.05888e-05
2.05009e-05
2.06004e-05
2.12192e-05
2.39732e-05
2.78681e-05
2.87986e-05
2.79703e-05
2.51588e-05
2.35304e-05
2.31042e-05
2.31806e-05
2.39236e-05
2.76484e-05
3.12033e-05
2.09411e-05
2.20792e-05
2.20804e-05
2.15011e-05
2.14975e-05
2.23288e-05
2.46567e-05
2.60181e-05
2.64198e-05
2.60253e-05
2.42592e-05
2.29818e-05
2.26116e-05
2.27475e-05
2.39158e-05
2.91309e-05
3.71763e-05
4.29575e-05
2.12197e-05
2.16223e-05
2.14924e-05
2.17193e-05
2.19452e-05
2.19844e-05
2.19567e-05
2.17913e-05
2.15059e-05
2.13946e-05
2.14618e-05
2.19246e-05
2.22941e-05
2.22959e-05
2.2107e-05
2.21764e-05
2.28614e-05
2.61573e-05
2.30093e-05
2.59594e-05
2.34916e-05
2.12717e-05
2.08003e-05
2.06594e-05
2.05686e-05
2.05402e-05
2.05561e-05
2.06998e-05
2.12815e-05
2.18356e-05
2.20401e-05
2.20955e-05
2.21228e-05
2.21732e-05
2.22531e-05
2.25005e-05
2.4155e-05
2.25187e-05
2.08205e-05
2.07518e-05
2.09106e-05
2.08044e-05
2.05914e-05
2.05295e-05
2.05339e-05
2.06111e-05
2.08109e-05
2.09334e-05
2.09938e-05
2.10219e-05
2.10346e-05
2.10449e-05
2.1064e-05
2.11161e-05
2.13445e-05
2.10207e-05
2.04458e-05
2.03437e-05
2.0409e-05
2.08143e-05
2.18758e-05
2.26806e-05
2.30542e-05
2.3128e-05
2.30781e-05
2.27222e-05
2.21944e-05
2.18754e-05
2.16557e-05
2.14518e-05
2.12935e-05
2.11444e-05
2.16923e-05
2.27333e-05
2.23382e-05
2.16687e-05
2.16483e-05
2.19635e-05
2.23967e-05
2.25599e-05
2.25604e-05
2.23868e-05
2.18022e-05
2.13891e-05
2.12044e-05
2.11467e-05
2.11399e-05
2.11457e-05
2.11793e-05
2.13585e-05
2.07291e-05
2.15354e-05
2.16392e-05
2.14975e-05
2.12962e-05
2.13137e-05
2.15653e-05
2.28048e-05
2.54623e-05
2.65127e-05
2.62033e-05
2.4492e-05
2.35703e-05
2.32752e-05
2.3169e-05
2.30401e-05
2.27499e-05
2.24196e-05
2.06576e-05
2.13079e-05
2.1656e-05
2.22217e-05
2.24803e-05
2.25982e-05
2.35823e-05
2.48997e-05
2.48798e-05
2.39875e-05
2.29247e-05
2.23905e-05
2.21896e-05
2.21938e-05
2.23811e-05
2.26608e-05
2.29143e-05
2.30396e-05
2.21105e-05
2.24259e-05
2.12182e-05
2.0674e-05
2.11e-05
2.25709e-05
2.29009e-05
2.28742e-05
2.28277e-05
2.24275e-05
2.22061e-05
2.22684e-05
2.28523e-05
2.53269e-05
2.87569e-05
3.11927e-05
3.27451e-05
3.34168e-05
2.09485e-05
2.10551e-05
2.06421e-05
2.06409e-05
2.14147e-05
2.29608e-05
2.29969e-05
2.24802e-05
2.22985e-05
2.21076e-05
2.2051e-05
2.26718e-05
2.63547e-05
3.9412e-05
5.20063e-05
6.00691e-05
6.32743e-05
6.31906e-05
2.06141e-05
2.05645e-05
2.03192e-05
2.03109e-05
2.04613e-05
2.10884e-05
2.35102e-05
2.72227e-05
2.89143e-05
2.85825e-05
2.50447e-05
2.30038e-05
2.30059e-05
2.39338e-05
2.62618e-05
3.11755e-05
3.79124e-05
4.51246e-05
2.04776e-05
2.02356e-05
2.02213e-05
2.07213e-05
2.22554e-05
2.31678e-05
2.35474e-05
2.36889e-05
2.3183e-05
2.2855e-05
2.30695e-05
2.34513e-05
2.33022e-05
2.28917e-05
2.28758e-05
2.31844e-05
2.49677e-05
3.07588e-05
2.03237e-05
2.06076e-05
2.05651e-05
2.03766e-05
2.03325e-05
2.03503e-05
2.04116e-05
2.05144e-05
2.08977e-05
2.15178e-05
2.19209e-05
2.20181e-05
2.17734e-05
2.16764e-05
2.17218e-05
2.20702e-05
2.3711e-05
2.84124e-05
2.03859e-05
2.09502e-05
2.0858e-05
2.02427e-05
1.99532e-05
1.9881e-05
1.97915e-05
1.95694e-05
1.89192e-05
1.69131e-05
1.53003e-05
1.51152e-05
1.55546e-05
1.64442e-05
1.68446e-05
1.69111e-05
1.68169e-05
1.62267e-05
2.00244e-05
1.88026e-05
1.67575e-05
1.66455e-05
1.68257e-05
1.6819e-05
1.62221e-05
1.38736e-05
1.19678e-05
1.13364e-05
1.13123e-05
1.14951e-05
1.23534e-05
1.42604e-05
1.55746e-05
1.61909e-05
1.63573e-05
1.63436e-05
2.23329e-05
2.39478e-05
2.35331e-05
2.21664e-05
2.09622e-05
2.03918e-05
2.02732e-05
2.03603e-05
2.09544e-05
2.31481e-05
2.96562e-05
3.5753e-05
3.90203e-05
4.00898e-05
4.01163e-05
3.96302e-05
3.75832e-05
3.33715e-05
0.000106358
0.000141632
0.000106246
5.49463e-05
3.21577e-05
2.37279e-05
2.1969e-05
2.25706e-05
2.76971e-05
4.71772e-05
6.64455e-05
7.58588e-05
7.8405e-05
7.80465e-05
7.34963e-05
5.86055e-05
4.57401e-05
3.79845e-05
1.13544e-06
1.12704e-06
9.02595e-07
9.67203e-07
1.10233e-06
1.26185e-06
1.36748e-06
1.37455e-06
1.24492e-06
1.01924e-06
7.54004e-07
5.1276e-07
3.23089e-07
1.95777e-07
1.31602e-07
1.16049e-07
1.29338e-07
1.44783e-07
1.63573e-07
1.85349e-07
2.09006e-07
2.35713e-07
2.59333e-07
2.82543e-07
3.06186e-07
3.19896e-07
3.21589e-07
3.24093e-07
2.86979e-07
2.29413e-07
2.00232e-07
1.82659e-07
1.66814e-07
1.50837e-07
1.34961e-07
1.1968e-07
1.05408e-07
9.23263e-08
8.0443e-08
6.9665e-08
5.98552e-08
5.09458e-08
4.29449e-08
3.58576e-08
2.9663e-08
2.43168e-08
1.97579e-08
1.59148e-08
1.27112e-08
1.00695e-08
7.91316e-09
6.16916e-09
4.77089e-09
3.65966e-09
2.7846e-09
2.10194e-09
1.57427e-09
1.17004e-09
8.63006e-10
6.31745e-10
4.58975e-10
3.3094e-10
2.36813e-10
1.68164e-10
1.18492e-10
8.28362e-11
5.74465e-11
3.95124e-11
2.6949e-11
1.82203e-11
1.2209e-11
8.10471e-12
5.32824e-12
3.46834e-12
2.23398e-12
1.42337e-12
8.97086e-13
5.59419e-13
3.45323e-13
2.11138e-13
1.2797e-13
7.6963e-14
4.59872e-14
2.73443e-14
1.62122e-14
9.60875e-15
5.7133e-15
3.42447e-15
2.08352e-15
1.30036e-15
8.43669e-16
5.77757e-16
4.23425e-16
3.34539e-16
2.83854e-16
2.55124e-16
2.38904e-16
2.29866e-16
2.25044e-16
2.2278e-16
2.22073e-16
2.22045e-16
2.22045e-16
2.22045e-16
2.22045e-16
2.22045e-16
2.22045e-16
2.22045e-16
2.22045e-16
2.22045e-16
2.22045e-16
2.22045e-16
2.22045e-16
2.22045e-16
2.22045e-16
2.22045e-16
2.22045e-16
2.22045e-16
2.22045e-16
2.22045e-16
2.22045e-16
2.22045e-16
2.22045e-16
2.22045e-16
2.22045e-16
2.22045e-16
2.22045e-16
2.22045e-16
2.22045e-16
2.22045e-16
2.22045e-16
2.22045e-16
2.22045e-16
2.22045e-16
2.22045e-16
2.22045e-16
2.22045e-16
2.22045e-16
2.22045e-16
2.22045e-16
2.22045e-16
2.22045e-16
2.22045e-16
2.22045e-16
2.22045e-16
2.22045e-16
2.22045e-16
2.22045e-16
2.22045e-16
2.22045e-16
2.22045e-16
2.22045e-16
2.22045e-16
2.22045e-16
2.22045e-16
2.22045e-16
2.22045e-16
2.22045e-16
2.22045e-16
2.22192e-16
2.40616e-16
4.93596e-16
2.90934e-15
2.10832e-14
1.3422e-13
7.38861e-13
3.60327e-12
1.6028e-11
6.70012e-11
2.71649e-10
1.09166e-09
5.28322e-09
1.3341e-08
5.97675e-08
8.58579e-08
4.50224e-07
4.73045e-07
5.08147e-07
6.07604e-07
1.04534e-06
4.69228e-06
4.30435e-06
4.9306e-06
4.04648e-06
2.65389e-06
2.33221e-06
2.3107e-06
2.22191e-06
2.0503e-06
1.84795e-06
1.69204e-06
1.6417e-06
1.6472e-06
1.74131e-06
1.87075e-06
2.05615e-06
2.29534e-06
2.57311e-06
2.89392e-06
3.26271e-06
3.67323e-06
4.12749e-06
4.61893e-06
5.10215e-06
5.61281e-06
6.11149e-06
6.39307e-06
6.24725e-06
5.7079e-06
4.93281e-06
4.11351e-06
3.43657e-06
3.01558e-06
2.70674e-06
2.4004e-06
2.10615e-06
1.83533e-06
1.59428e-06
1.38503e-06
1.20588e-06
1.05033e-06
9.09889e-07
7.81867e-07
6.66299e-07
5.63206e-07
4.72288e-07
3.92966e-07
3.24468e-07
2.65907e-07
2.16343e-07
1.74799e-07
1.40268e-07
1.11767e-07
8.84074e-08
6.94078e-08
5.4087e-08
4.18417e-08
3.21372e-08
2.4508e-08
1.85568e-08
1.39497e-08
1.041e-08
7.71101e-09
5.66856e-09
4.13479e-09
2.99197e-09
2.14718e-09
1.52776e-09
1.07742e-09
7.52774e-10
5.20941e-10
3.56867e-10
2.41922e-10
1.62283e-10
1.07585e-10
7.05353e-11
4.57778e-11
2.9434e-11
1.87644e-11
1.18695e-11
7.4552e-12
4.65292e-12
2.88763e-12
1.78328e-12
1.09662e-12
6.71843e-13
4.10312e-13
2.49856e-13
1.51694e-13
9.1925e-14
5.55388e-14
3.34784e-14
2.01947e-14
1.22579e-14
7.54211e-15
4.71368e-15
2.9884e-15
1.92428e-15
1.26495e-15
8.56787e-16
6.05465e-16
4.52038e-16
3.59027e-16
3.02908e-16
2.6975e-16
2.50662e-16
2.39616e-16
2.33102e-16
2.29156e-16
2.26699e-16
2.25134e-16
2.24118e-16
2.23452e-16
2.2301e-16
2.22715e-16
2.22515e-16
2.22379e-16
2.22285e-16
2.22219e-16
2.22172e-16
2.22139e-16
2.22115e-16
2.22097e-16
2.22084e-16
2.22074e-16
2.22067e-16
2.22061e-16
2.22057e-16
2.22054e-16
2.22051e-16
2.22049e-16
2.22048e-16
2.22047e-16
2.22046e-16
2.22046e-16
2.22045e-16
2.22045e-16
2.22045e-16
2.22045e-16
2.22045e-16
2.22045e-16
2.22045e-16
2.22045e-16
2.22045e-16
2.22045e-16
2.22045e-16
2.22045e-16
2.22045e-16
2.22045e-16
2.22045e-16
2.22045e-16
2.22045e-16
2.22045e-16
2.22045e-16
2.22045e-16
2.22045e-16
2.22045e-16
2.22045e-16
2.22045e-16
2.2207e-16
2.22606e-16
2.2964e-16
2.97615e-16
8.16898e-16
4.09281e-15
2.17492e-14
1.05372e-13
4.63635e-13
1.89114e-12
7.16907e-12
2.55116e-11
8.86545e-11
2.40688e-10
7.52994e-10
1.53653e-09
4.29951e-09
1.25186e-08
1.78303e-08
3.6709e-08
1.36199e-07
5.30931e-06
3.61469e-06
6.45154e-06
8.9029e-06
9.20702e-06
9.21565e-06
9.25964e-06
9.3119e-06
9.44243e-06
9.6641e-06
9.95239e-06
1.03112e-05
1.07696e-05
1.13876e-05
1.22179e-05
1.32735e-05
1.4594e-05
1.61813e-05
1.80096e-05
2.00634e-05
2.22649e-05
2.45142e-05
2.66636e-05
2.85857e-05
3.0197e-05
3.13732e-05
3.20205e-05
3.21351e-05
3.16705e-05
3.06731e-05
2.91804e-05
2.72755e-05
2.50128e-05
2.25018e-05
1.98735e-05
1.72486e-05
1.47565e-05
1.24987e-05
1.05511e-05
8.96837e-06
7.77426e-06
6.82871e-06
5.96759e-06
5.17836e-06
4.4621e-06
3.81868e-06
3.24622e-06
2.74143e-06
2.30008e-06
1.91763e-06
1.58937e-06
1.31006e-06
1.07371e-06
8.74488e-07
7.07407e-07
5.68266e-07
4.53411e-07
3.59394e-07
2.83008e-07
2.21378e-07
1.71993e-07
1.3269e-07
1.01627e-07
7.72492e-08
5.82565e-08
4.35705e-08
3.23036e-08
2.37306e-08
1.72649e-08
1.24325e-08
8.85834e-09
6.24091e-09
4.34659e-09
2.99413e-09
2.03324e-09
1.37165e-09
9.21837e-10
6.17058e-10
4.11419e-10
2.73273e-10
1.80854e-10
1.19271e-10
7.83895e-11
5.13484e-11
3.35237e-11
2.18112e-11
1.4143e-11
9.13737e-12
5.87828e-12
3.77343e-12
2.40481e-12
1.53171e-12
9.85383e-13
6.40754e-13
4.22136e-13
2.78661e-13
1.8121e-13
1.16198e-13
7.36321e-14
4.62047e-14
2.87596e-14
1.77983e-14
1.09843e-14
6.76984e-15
4.19521e-15
2.67495e-15
1.77175e-15
1.21905e-15
8.71628e-16
6.48888e-16
5.04354e-16
4.09955e-16
3.48059e-16
3.07319e-16
2.80364e-16
2.62399e-16
2.50315e-16
2.42096e-16
2.36437e-16
2.3249e-16
2.297e-16
2.27704e-16
2.26258e-16
2.25199e-16
2.24417e-16
2.23834e-16
2.23397e-16
2.23067e-16
2.22818e-16
2.22629e-16
2.22486e-16
2.22377e-16
2.22293e-16
2.2223e-16
2.22182e-16
2.22145e-16
2.22117e-16
2.22096e-16
2.22079e-16
2.22067e-16
2.22058e-16
2.22052e-16
2.22048e-16
2.22046e-16
2.22045e-16
2.22045e-16
2.22045e-16
2.22045e-16
2.22045e-16
2.22045e-16
2.22045e-16
2.22045e-16
2.22045e-16
2.22045e-16
2.22045e-16
2.22045e-16
2.22045e-16
2.22045e-16
2.22045e-16
2.22045e-16
2.22055e-16
2.22184e-16
2.23432e-16
2.32979e-16
2.93189e-16
6.1676e-16
2.13719e-15
8.56602e-15
3.39843e-14
1.24388e-13
4.27954e-13
1.30668e-12
3.48526e-12
9.14756e-12
2.0487e-11
4.88746e-11
1.60425e-10
3.40996e-10
1.04745e-09
7.13378e-09
5.85438e-06
2.88805e-06
5.05581e-06
9.18016e-06
1.06261e-05
1.11745e-05
1.15009e-05
1.19103e-05
1.24494e-05
1.31759e-05
1.41098e-05
1.52938e-05
1.67796e-05
1.86189e-05
2.0844e-05
2.3521e-05
2.67388e-05
3.03124e-05
3.4067e-05
3.79251e-05
4.18013e-05
4.55046e-05
4.8866e-05
5.17618e-05
5.40808e-05
5.57093e-05
5.65642e-05
5.66997e-05
5.6083e-05
5.47761e-05
5.28277e-05
5.03226e-05
4.74293e-05
4.42742e-05
4.096e-05
3.75774e-05
3.42044e-05
3.09055e-05
2.77315e-05
2.47208e-05
2.19001e-05
1.92864e-05
1.68885e-05
1.47083e-05
1.27423e-05
1.09829e-05
9.41959e-06
8.03968e-06
6.82913e-06
5.77324e-06
4.85762e-06
4.06903e-06
3.39417e-06
2.81865e-06
2.32955e-06
1.9156e-06
1.56729e-06
1.27596e-06
1.03357e-06
8.32892e-07
6.67589e-07
5.32122e-07
4.2169e-07
3.32154e-07
2.59971e-07
2.02125e-07
1.56059e-07
1.19622e-07
9.10078e-08
6.87138e-08
5.14856e-08
3.82914e-08
2.82777e-08
2.07449e-08
1.51365e-08
1.09821e-08
7.92789e-09
5.69955e-09
4.08346e-09
2.91675e-09
2.07745e-09
1.47537e-09
1.04454e-09
7.37005e-10
5.18061e-10
3.62668e-10
2.52762e-10
1.75339e-10
1.21046e-10
8.31434e-11
5.6835e-11
3.86553e-11
2.61562e-11
1.76132e-11
1.18076e-11
7.88891e-12
5.25818e-12
3.49735e-12
2.32375e-12
1.54379e-12
1.02471e-12
6.79359e-13
4.51214e-13
3.0113e-13
2.01775e-13
1.3525e-13
9.04105e-14
6.01552e-14
3.98296e-14
2.62839e-14
1.73362e-14
1.14706e-14
7.64462e-15
5.15335e-15
3.52848e-15
2.4636e-15
1.76046e-15
1.29163e-15
9.75414e-16
7.594e-16
6.09839e-16
5.04867e-16
4.30209e-16
3.76439e-16
3.37274e-16
3.08453e-16
2.87065e-16
2.71076e-16
2.5905e-16
2.49965e-16
2.43068e-16
2.37808e-16
2.33785e-16
2.30689e-16
2.28294e-16
2.2643e-16
2.24958e-16
2.23828e-16
2.22881e-16
2.22045e-16
2.22045e-16
2.22045e-16
2.22045e-16
2.22045e-16
2.22045e-16
2.22045e-16
2.22045e-16
2.22045e-16
2.22045e-16
2.22045e-16
2.22045e-16
2.22045e-16
2.22045e-16
2.22045e-16
2.22045e-16
2.22045e-16
2.22045e-16
2.22045e-16
2.22045e-16
2.22045e-16
2.22045e-16
2.22045e-16
2.22045e-16
2.22045e-16
2.22832e-16
2.28218e-16
2.5342e-16
3.57884e-16
7.72756e-16
2.23674e-15
7.18216e-15
2.06207e-14
5.61717e-14
1.34781e-13
3.1984e-13
7.72247e-13
2.46271e-12
6.95402e-12
2.7769e-11
3.46755e-10
6.90055e-06
2.80907e-06
3.92672e-06
9.10128e-06
1.07997e-05
1.1456e-05
1.18925e-05
1.24829e-05
1.32621e-05
1.43178e-05
1.56898e-05
1.74496e-05
1.96781e-05
2.24673e-05
2.59121e-05
3.0129e-05
3.52184e-05
4.08868e-05
4.67451e-05
5.26621e-05
5.84126e-05
6.36285e-05
6.8043e-05
7.14928e-05
7.38212e-05
7.49376e-05
7.50014e-05
7.38925e-05
7.18403e-05
6.89806e-05
6.54676e-05
6.14529e-05
5.71077e-05
5.25841e-05
4.80111e-05
4.34948e-05
3.91193e-05
3.4948e-05
3.1026e-05
2.73827e-05
2.40336e-05
2.09837e-05
1.82296e-05
1.57615e-05
1.3565e-05
1.16228e-05
9.91577e-06
8.42397e-06
7.12731e-06
6.00575e-06
5.03942e-06
4.20949e-06
3.50013e-06
2.89854e-06
2.3913e-06
1.96605e-06
1.61089e-06
1.3148e-06
1.06883e-06
8.65318e-07
6.97656e-07
5.6013e-07
4.47815e-07
3.56492e-07
2.82566e-07
2.22989e-07
1.75191e-07
1.37016e-07
1.06667e-07
8.26502e-08
6.37341e-08
4.89063e-08
3.73395e-08
2.8361e-08
2.14267e-08
1.60988e-08
1.20267e-08
8.93123e-09
6.59137e-09
4.83288e-09
3.51924e-09
2.54405e-09
1.82486e-09
1.29813e-09
9.15173e-10
6.38911e-10
4.41302e-10
3.01204e-10
2.0289e-10
1.34602e-10
8.78107e-11
5.61027e-11
3.53506e-11
2.19375e-11
1.33869e-11
8.01906e-12
4.70655e-12
2.70108e-12
1.5125e-12
8.2454e-13
4.36706e-13
2.24371e-13
1.11785e-13
5.40758e-14
2.55303e-14
1.19496e-14
5.70241e-15
2.88233e-15
1.60602e-15
1.00806e-15
7.07389e-16
5.41287e-16
4.40754e-16
3.7561e-16
3.31569e-16
3.01066e-16
2.79625e-16
2.64392e-16
2.53462e-16
2.45543e-16
2.39748e-16
2.35465e-16
2.3227e-16
2.29866e-16
2.28044e-16
2.26655e-16
2.2559e-16
2.24772e-16
2.24141e-16
2.23654e-16
2.23278e-16
2.22986e-16
2.22762e-16
2.22588e-16
2.22453e-16
2.22349e-16
2.22269e-16
2.22208e-16
2.22158e-16
2.22121e-16
2.22096e-16
2.22077e-16
2.22063e-16
2.22053e-16
2.22047e-16
2.22045e-16
2.22045e-16
2.22045e-16
2.22045e-16
2.22045e-16
2.22045e-16
2.22045e-16
2.22045e-16
2.22045e-16
2.22045e-16
2.22049e-16
2.2208e-16
2.22193e-16
2.22549e-16
2.23556e-16
2.26141e-16
2.32319e-16
2.46454e-16
2.78551e-16
3.53502e-16
5.43075e-16
1.07404e-15
2.76347e-15
8.40033e-15
2.80219e-14
9.22219e-14
3.07596e-13
9.44046e-13
2.97572e-12
8.27554e-12
2.2418e-11
8.12561e-11
1.0334e-10
2.01864e-10
2.19218e-10
8.43864e-06
2.9783e-06
3.92894e-06
9.27631e-06
1.10506e-05
1.1808e-05
1.24714e-05
1.34161e-05
1.46818e-05
1.64202e-05
1.87582e-05
2.18745e-05
2.59781e-05
3.13037e-05
3.80583e-05
4.63489e-05
5.63031e-05
6.76624e-05
7.92971e-05
9.06137e-05
0.000100931
0.000109511
0.000115937
0.000119788
0.000121409
0.000120831
0.000118041
0.00011348
0.000107559
0.000100645
9.30823e-05
8.51934e-05
7.72393e-05
6.94376e-05
6.19515e-05
5.48947e-05
4.83401e-05
4.23277e-05
3.68713e-05
3.19656e-05
2.75897e-05
2.37138e-05
2.03023e-05
1.73166e-05
1.47163e-05
1.24628e-05
1.05184e-05
8.8472e-06
7.41666e-06
6.19721e-06
5.16146e-06
4.28516e-06
3.54579e-06
2.92217e-06
2.39991e-06
1.96473e-06
1.60268e-06
1.30264e-06
1.05492e-06
8.51173e-07
6.84209e-07
5.47906e-07
4.37058e-07
3.47261e-07
2.74806e-07
2.16576e-07
1.69971e-07
1.32825e-07
1.03343e-07
8.00447e-08
6.17141e-08
4.73566e-08
3.61628e-08
2.74765e-08
2.07685e-08
1.56138e-08
1.1673e-08
8.67591e-09
6.40904e-09
4.70413e-09
3.4294e-09
2.48216e-09
1.78282e-09
1.27001e-09
8.96704e-10
6.27022e-10
4.33853e-10
2.96659e-10
2.00258e-10
1.33122e-10
8.71051e-11
5.57442e-11
3.51832e-11
2.18696e-11
1.33666e-11
8.01862e-12
4.71221e-12
2.70679e-12
1.51614e-12
8.25926e-13
4.36375e-13
2.23009e-13
1.09972e-13
5.22376e-14
2.38927e-14
1.055e-14
4.53949e-15
1.95152e-15
8.87013e-16
4.68577e-16
3.11138e-16
2.54199e-16
2.34212e-16
2.27251e-16
2.24733e-16
2.23712e-16
2.23211e-16
2.22911e-16
2.22706e-16
2.22556e-16
2.22443e-16
2.22356e-16
2.22288e-16
2.22235e-16
2.22194e-16
2.22162e-16
2.22136e-16
2.22116e-16
2.22101e-16
2.22088e-16
2.22078e-16
2.22071e-16
2.22065e-16
2.2206e-16
2.22056e-16
2.22054e-16
2.22051e-16
2.2205e-16
2.22048e-16
2.22047e-16
2.22047e-16
2.22046e-16
2.22045e-16
2.22045e-16
2.22045e-16
2.22045e-16
2.22045e-16
2.22045e-16
2.22045e-16
2.22045e-16
2.22045e-16
2.22045e-16
2.22045e-16
2.22045e-16
2.22045e-16
2.22045e-16
2.22312e-16
2.24143e-16
2.28701e-16
2.38382e-16
2.55272e-16
2.89463e-16
3.50741e-16
4.71818e-16
7.25193e-16
1.28921e-15
2.62982e-15
6.01487e-15
1.49304e-14
3.93995e-14
1.07121e-13
2.99967e-13
8.36702e-13
2.3117e-12
6.21514e-12
1.47211e-11
5.83027e-11
6.51172e-11
1.01587e-10
1.20128e-10
1.03877e-05
3.42559e-06
4.20201e-06
9.75743e-06
1.15487e-05
1.24177e-05
1.34394e-05
1.49753e-05
1.72155e-05
2.04434e-05
2.49915e-05
3.13029e-05
3.99425e-05
5.15071e-05
6.64343e-05
8.50469e-05
0.000107572
0.000133127
0.000158398
0.000181256
0.000200119
0.000213272
0.000219903
0.000222284
0.000218597
0.000210656
0.00019926
0.000185436
0.000170191
0.00015428
0.000138336
0.000122906
0.000108281
9.47071e-05
8.2303e-05
7.11163e-05
6.11384e-05
5.23279e-05
4.46133e-05
3.79066e-05
3.21078e-05
2.7118e-05
2.28429e-05
1.91946e-05
1.60878e-05
1.34523e-05
1.1223e-05
9.33984e-06
7.75263e-06
6.42176e-06
5.30536e-06
4.36901e-06
3.5849e-06
2.93572e-06
2.3987e-06
1.95398e-06
1.58682e-06
1.2846e-06
1.03658e-06
8.33681e-07
6.68216e-07
5.33721e-07
4.24768e-07
3.36814e-07
2.66064e-07
2.09361e-07
1.64088e-07
1.2808e-07
9.9555e-08
7.70492e-08
5.93667e-08
4.55331e-08
3.47583e-08
2.64038e-08
1.9956e-08
1.50036e-08
1.12186e-08
8.34058e-09
6.16381e-09
4.5265e-09
3.30205e-09
2.39184e-09
1.71953e-09
1.22623e-09
8.66872e-10
6.07022e-10
4.2071e-10
2.88211e-10
1.94996e-10
1.2994e-10
8.53141e-11
5.47501e-11
3.46385e-11
2.15893e-11
1.32352e-11
7.96632e-12
4.69857e-12
2.70969e-12
1.52441e-12
8.34489e-13
4.43318e-13
2.27945e-13
1.13166e-13
5.41472e-14
2.49548e-14
1.11003e-14
4.80454e-15
2.06932e-15
9.34326e-16
4.84739e-16
3.14746e-16
2.53364e-16
2.32188e-16
2.25204e-16
2.22998e-16
2.22329e-16
2.22134e-16
2.22077e-16
2.2206e-16
2.22055e-16
2.22052e-16
2.2205e-16
2.22049e-16
2.22048e-16
2.22048e-16
2.22047e-16
2.22047e-16
2.22046e-16
2.22046e-16
2.22046e-16
2.22045e-16
2.22045e-16
2.22045e-16
2.22045e-16
2.22045e-16
2.22045e-16
2.22045e-16
2.22045e-16
2.22045e-16
2.22045e-16
2.22045e-16
2.22045e-16
2.22045e-16
2.22045e-16
2.22045e-16
2.22045e-16
2.22045e-16
2.22045e-16
2.22045e-16
2.22045e-16
2.22045e-16
2.22045e-16
2.22045e-16
2.22045e-16
2.22045e-16
2.22045e-16
2.22072e-16
2.23052e-16
2.26161e-16
2.33274e-16
2.48225e-16
2.76486e-16
3.30952e-16
4.35865e-16
6.53247e-16
1.13029e-15
2.24317e-15
5.00686e-15
1.21352e-14
3.13281e-14
8.30081e-14
2.25097e-13
6.03874e-13
1.57306e-12
4.16804e-12
8.68485e-12
3.19602e-11
3.2714e-11
3.38938e-11
4.0336e-11
1.26449e-05
3.98586e-06
4.88521e-06
1.05198e-05
1.23272e-05
1.33705e-05
1.52389e-05
1.81348e-05
2.26082e-05
2.94848e-05
3.98448e-05
5.51294e-05
7.6962e-05
0.000106896
0.000145973
0.000194407
0.000251115
0.00031207
0.000368404
0.000412888
0.000443054
0.00045612
0.00045568
0.000443623
0.000418411
0.000387885
0.000352708
0.000315824
0.000279346
0.00024444
0.000211862
0.000182376
0.000155884
0.000132604
0.000112196
9.44568e-05
7.91424e-05
6.60858e-05
5.50554e-05
4.57585e-05
3.79541e-05
3.14279e-05
2.5987e-05
2.14626e-05
1.77049e-05
1.45886e-05
1.20072e-05
9.86703e-06
8.0948e-06
6.62789e-06
5.41344e-06
4.41546e-06
3.60129e-06
2.93208e-06
2.38125e-06
1.92914e-06
1.55891e-06
1.25642e-06
1.00984e-06
8.09323e-07
6.46673e-07
5.15096e-07
4.0896e-07
3.23599e-07
2.55162e-07
2.00472e-07
1.56916e-07
1.22349e-07
9.50166e-08
7.34861e-08
5.65922e-08
4.339e-08
3.31158e-08
2.51548e-08
1.90137e-08
1.42983e-08
1.0695e-08
7.95511e-09
5.8825e-09
4.32309e-09
3.1564e-09
2.28865e-09
1.64726e-09
1.17625e-09
8.32795e-10
5.84171e-10
4.05662e-10
2.78543e-10
1.88928e-10
1.26306e-10
8.31868e-11
5.36674e-11
3.40514e-11
2.12912e-11
1.30988e-11
7.91562e-12
4.68957e-12
2.71821e-12
1.53807e-12
8.47563e-13
4.53694e-13
2.35299e-13
1.17947e-13
5.70319e-14
2.65796e-14
1.19576e-14
5.22927e-15
2.26727e-15
1.02125e-15
5.20725e-16
3.2879e-16
2.58537e-16
2.33984e-16
2.25785e-16
2.23168e-16
2.22368e-16
2.22134e-16
2.22069e-16
2.22051e-16
2.22046e-16
2.22045e-16
2.22045e-16
2.22045e-16
2.22045e-16
2.22045e-16
2.22045e-16
2.22045e-16
2.22045e-16
2.22045e-16
2.22045e-16
2.22045e-16
2.22045e-16
2.22045e-16
2.22045e-16
2.22045e-16
2.22045e-16
2.22045e-16
2.22045e-16
2.22045e-16
2.22045e-16
2.22045e-16
2.22045e-16
2.22045e-16
2.22045e-16
2.22045e-16
2.22045e-16
2.22045e-16
2.22045e-16
2.22045e-16
2.22045e-16
2.22045e-16
2.22045e-16
2.22045e-16
2.22045e-16
2.22045e-16
2.22045e-16
2.22046e-16
2.22628e-16
2.24979e-16
2.30837e-16
2.43805e-16
2.67358e-16
3.14803e-16
4.02558e-16
5.81564e-16
9.65828e-16
1.83957e-15
3.95587e-15
9.27989e-15
2.32058e-14
5.97167e-14
1.55443e-13
4.02161e-13
9.81509e-13
2.79929e-12
4.86729e-12
1.32781e-11
1.39971e-11
1.44218e-11
1.66727e-11
1.50469e-05
4.67393e-06
5.87426e-06
1.15209e-05
1.33769e-05
1.53163e-05
1.9085e-05
2.54212e-05
3.61949e-05
5.41537e-05
8.31136e-05
0.000127713
0.000192462
0.000280525
0.000392142
0.000523429
0.000666306
0.000807228
0.000919922
0.000982276
0.00101071
0.00101729
0.00094326
0.00089226
0.000796368
0.000708162
0.000615812
0.000528515
0.000448989
0.000378529
0.00031667
0.000263974
0.00021918
0.000182181
0.000150764
0.000124139
0.000101528
8.27762e-05
6.73468e-05
5.47298e-05
4.44454e-05
3.60769e-05
2.9272e-05
2.37388e-05
1.92499e-05
1.5604e-05
1.26429e-05
1.02445e-05
8.30101e-06
6.72454e-06
5.45577e-06
4.42667e-06
3.58502e-06
2.8981e-06
2.33881e-06
1.88409e-06
1.51487e-06
1.21546e-06
9.73031e-07
7.77072e-07
6.18975e-07
4.91693e-07
3.89454e-07
3.07535e-07
2.42072e-07
1.89908e-07
1.48466e-07
1.15646e-07
8.9742e-08
6.9367e-08
5.33995e-08
4.09334e-08
3.12395e-08
2.37321e-08
1.79429e-08
1.34984e-08
1.01021e-08
7.51914e-09
5.56464e-09
4.0934e-09
2.99199e-09
2.17218e-09
1.56565e-09
1.11979e-09
7.94259e-10
5.58295e-10
3.8859e-10
2.67547e-10
1.82005e-10
1.22139e-10
8.07341e-11
5.24021e-11
3.33592e-11
2.09351e-11
1.29324e-11
7.85081e-12
4.67518e-12
2.72575e-12
1.55259e-12
8.62021e-13
4.65391e-13
2.43718e-13
1.23514e-13
6.04614e-14
2.85606e-14
1.30338e-14
5.77985e-15
2.53283e-15
1.14211e-15
5.72691e-16
3.49929e-16
2.6668e-16
2.36957e-16
2.26815e-16
2.23507e-16
2.22474e-16
2.22166e-16
2.22077e-16
2.22053e-16
2.22047e-16
2.22045e-16
2.22045e-16
2.22045e-16
2.22045e-16
2.22045e-16
2.22045e-16
2.22045e-16
2.22045e-16
2.22045e-16
2.22045e-16
2.22045e-16
2.22045e-16
2.22045e-16
2.22045e-16
2.22045e-16
2.22045e-16
2.22045e-16
2.22045e-16
2.22045e-16
2.22045e-16
2.22045e-16
2.22045e-16
2.22045e-16
2.22045e-16
2.22045e-16
2.22045e-16
2.22045e-16
2.22045e-16
2.22045e-16
2.22045e-16
2.22045e-16
2.22045e-16
2.22045e-16
2.22045e-16
2.22045e-16
2.22045e-16
2.22045e-16
2.22172e-16
2.23653e-16
2.28042e-16
2.38061e-16
2.57224e-16
2.95866e-16
3.66712e-16
5.0604e-16
7.98011e-16
1.44288e-15
2.95812e-15
6.65099e-15
1.59821e-14
3.95302e-14
9.81242e-14
2.40513e-13
5.44749e-13
1.50164e-12
2.14199e-12
3.81252e-12
4.57185e-12
4.83612e-12
5.7758e-12
1.7811e-05
5.38365e-06
6.98432e-06
1.29088e-05
1.5402e-05
1.9769e-05
2.88271e-05
4.59288e-05
7.77948e-05
0.000134123
0.000227437
0.00037058
0.000572711
0.000834813
0.00114464
0.00147524
0.00179812
0.0020893
0.00224091
0.00229659
0.00224062
0.00215486
0.00184712
0.00170678
0.0014212
0.00121486
0.00100636
0.000825821
0.000671971
0.000544418
0.000437812
0.000351169
0.000282861
0.000224969
0.000178466
0.000141877
0.000113139
9.05321e-05
7.26211e-05
5.83524e-05
4.69398e-05
3.77854e-05
3.043e-05
2.45129e-05
1.97504e-05
1.59168e-05
1.28294e-05
1.03471e-05
8.35167e-06
6.74091e-06
5.43134e-06
4.36949e-06
3.51184e-06
2.82006e-06
2.26232e-06
1.81278e-06
1.45059e-06
1.15895e-06
9.24303e-07
7.35713e-07
5.84334e-07
4.63009e-07
3.65944e-07
2.88441e-07
2.26696e-07
1.77622e-07
1.38723e-07
1.07975e-07
8.37431e-08
6.47079e-08
4.98051e-08
3.81789e-08
2.91426e-08
2.21467e-08
1.67525e-08
1.2611e-08
9.44532e-09
7.03683e-09
5.21329e-09
3.83964e-09
2.81038e-09
2.0435e-09
1.47546e-09
1.05733e-09
7.51574e-10
5.29583e-10
3.69603e-10
2.55278e-10
1.74251e-10
1.17443e-10
7.79528e-11
5.09459e-11
3.25555e-11
2.05159e-11
1.2732e-11
7.76906e-12
4.6534e-12
2.73089e-12
1.56719e-12
8.7759e-13
4.78438e-13
2.53349e-13
1.30026e-13
6.45616e-14
3.0983e-14
1.43814e-14
6.4869e-15
2.883e-15
1.30593e-15
6.45138e-16
3.80248e-16
2.78699e-16
2.41475e-16
2.28428e-16
2.24054e-16
2.22651e-16
2.2222e-16
2.22093e-16
2.22058e-16
2.22048e-16
2.22045e-16
2.22045e-16
2.22045e-16
2.22045e-16
2.22045e-16
2.22045e-16
2.22045e-16
2.22045e-16
2.22045e-16
2.22045e-16
2.22045e-16
2.22045e-16
2.22045e-16
2.22045e-16
2.22045e-16
2.22045e-16
2.22045e-16
2.22045e-16
2.22045e-16
2.22045e-16
2.22045e-16
2.22045e-16
2.22045e-16
2.22045e-16
2.22045e-16
2.22045e-16
2.22045e-16
2.22045e-16
2.22045e-16
2.22045e-16
2.22045e-16
2.22045e-16
2.22045e-16
2.22045e-16
2.22045e-16
2.22045e-16
2.22045e-16
2.22046e-16
2.22566e-16
2.25075e-16
2.31627e-16
2.46292e-16
2.7321e-16
3.27533e-16
4.27508e-16
6.32013e-16
1.06778e-15
2.05173e-15
4.34874e-15
9.8953e-15
2.31637e-14
5.39866e-14
1.29925e-13
2.5238e-13
6.43285e-13
7.17038e-13
8.34467e-13
1.03349e-12
1.1222e-12
1.458e-12
1.98279e-05
6.0824e-06
8.00388e-06
1.53966e-05
2.0149e-05
3.19894e-05
5.82443e-05
0.000112362
0.000217339
0.000403854
0.000705129
0.0011462
0.00173342
0.00244555
0.00322036
0.00395793
0.00459136
0.00498572
0.00514158
0.00499667
0.0047519
0.00414341
0.00342663
0.0029963
0.0023391
0.00190891
0.00150413
0.00117861
0.000917378
0.000712823
0.000548103
0.000418974
0.000318799
0.000244706
0.000189072
0.000147223
0.000116143
9.21794e-05
7.34668e-05
5.87403e-05
4.70762e-05
3.77896e-05
3.03661e-05
2.4415e-05
1.96315e-05
1.57868e-05
1.2694e-05
1.01954e-05
8.17474e-06
6.54643e-06
5.23957e-06
4.19214e-06
3.35272e-06
2.67993e-06
2.14066e-06
1.70843e-06
1.36205e-06
1.08455e-06
8.62357e-07
6.84562e-07
5.42428e-07
4.2893e-07
3.38424e-07
2.66367e-07
2.09104e-07
1.63691e-07
1.27758e-07
9.9397e-08
7.70732e-08
5.95524e-08
4.58442e-08
3.51542e-08
2.68471e-08
2.04156e-08
1.54555e-08
1.16457e-08
8.73199e-09
6.51354e-09
4.83238e-09
3.56466e-09
2.61363e-09
1.90406e-09
1.37769e-09
9.89569e-10
7.05227e-10
4.98351e-10
3.48925e-10
2.41861e-10
1.65777e-10
1.12242e-10
7.4914e-11
4.92548e-11
3.17286e-11
2.00969e-11
1.25439e-11
7.70379e-12
4.64778e-12
2.7496e-12
1.59201e-12
9.00427e-13
4.96572e-13
2.66576e-13
1.391e-13
7.04668e-14
3.46313e-14
1.6517e-14
7.66838e-15
3.49951e-15
1.60906e-15
7.85573e-16
4.41583e-16
3.03984e-16
2.51329e-16
2.32065e-16
2.25327e-16
2.23075e-16
2.22354e-16
2.22134e-16
2.22069e-16
2.22051e-16
2.22046e-16
2.22045e-16
2.22045e-16
2.22045e-16
2.22045e-16
2.22045e-16