/*--------------------------------*- C++ -*----------------------------------*\
  =========                 |
  \\      /  F ield         | OpenFOAM: The Open Source CFD Toolbox
   \\    /   O peration     | Website:  https://openfoam.org
    \\  /    A nd           | Version:  9
     \\/     M anipulation  |
\*---------------------------------------------------------------------------*/
FoamFile
{
    format      ascii;
    class       volScalarField;
    location    "0.004";
    object      s;
}
// * * * * * * * * * * * * * * * * * * * * * * * * * * * * * * * * * * * * * //

dimensions      [0 0 0 0 0 0 0];

internalField   nonuniform List<scalar> 
12225
(
1
1
1
1
1
1
1
1
1
1
1
1
1
1
1
1
1
0.999995
1
1
1
1
1
1
1
1
1
1
1
1
1
1
1
1
1
1
1
1
1
1
1
1
1
1
1
1
1
1
1
1
1
1
1
1
1
1
1
1
1
1
1
1
1
1
1
1
1
1
1
1
1
1
1
1
1
1
1
1
1
1
1
1
1
1
1
1
1
1
1
1
1
1
1
1
1
1
1
1
1
1
1
1
1
1
1
1
1
1
1
1
1
1
1
1
1
1
1
1
1
1
1
1
1
1
1
1
1
1
1
1
1
1
1
1
1
1
1
1
1
1
1
1
1
1
1
1
1
1
1
1
1
1
1
1
1
1
1
1
1
1
1
1
1
1
1
1
1
1
1
1
1
1
1
1
1
1
1
1
1
1
1
1
1
1
1
1
1
1
1
1
1
1
1
1
1
1
1
1
1
1
1
1
1
1
1
1
1
1
1
1
1
1
1
1
1
1
1
1
1
1
1
1
1
1
1
1
1
1
1
1
1
1
1
1
1
1
1
1
1
1
1
1
1
1
1
1
1
1
1
1
1
1
1
1
1
1
1
1
1
1
1
1
1
1
1
1
1
1
1
1
1
1
1
1
1
1
1
1
1
1
1
1
1
1
1
1
1
1
1
1
1
1
1
1
1
1
1
1
1
1
1
1
1
1
1
1
1
1
1
1
1
1
1
1
1
1
1
1
1
1
1
1
1
1
1
1
1
1
1
1
1
1
1
1
1
1
1
1
1
1
1
1
1
1
1
1
1
1
1
1
1
1
1
1
1
1
1
1
1
1
1
1
1
1
1
1
1
1
1
1
1
1
1
1
1
1
1
1
1
1
1
1
1
1
1
1
1
1
1
1
1
1
1
1
1
1
1
1
1
1
1
1
1
1
1
1
1
1
1
1
1
1
1
1
1
1
1
1
1
1
1
1
1
1
1
1
1
1
1
1
1
1
1
1
1
1
1
1
1
1
1
1
1
1
1
1
1
1
1
1
1
1
1
1
1
1
1
1
1
1
1
1
1
1
1
1
1
1
1
1
1
1
1
1
1
1
1
1
1
1
1
1
1
1
1
1
1
1
1
1
1
1
1
1
1
1
1
1
1
1
1
1
1
1
1
1
1
1
1
1
1
1
1
1
1
1
1
1
1
1
1
1
1
1
1
1
1
1
1
1
1
1
1
1
1
1
1
1
1
1
4.98857e-33
8.81506e-32
1.01773e-30
1.04079e-29
9.84721e-29
8.25453e-28
5.9416e-27
3.73343e-26
2.17804e-25
1.27176e-24
7.65926e-24
4.64677e-23
2.75071e-22
1.56906e-21
8.604e-21
4.50618e-20
2.21982e-19
8.48712e-19
2.45237e-18
5.40553e-18
9.21546e-18
1.24909e-17
1.39051e-17
1.29613e-17
1.02746e-17
7.06244e-18
4.27511e-18
2.30753e-18
1.12285e-18
4.97398e-19
2.01842e-19
7.55067e-20
2.61968e-20
8.47485e-21
2.5687e-21
7.326e-22
1.97373e-22
5.0409e-23
1.22437e-23
2.83637e-24
6.28355e-25
1.3344e-25
2.72239e-26
5.34648e-27
1.01259e-27
1.85258e-28
3.2792e-29
5.62368e-30
9.35622e-31
1.51192e-31
2.37567e-32
3.63343e-33
5.41414e-34
7.8669e-35
1.11555e-35
1.54495e-36
2.09112e-37
2.76798e-38
3.58529e-39
4.54679e-40
5.64845e-41
6.87709e-42
8.20965e-43
9.6132e-44
1.10459e-44
1.24588e-45
1.37988e-46
1.50116e-47
1.60457e-48
1.68557e-49
1.7406e-50
1.76733e-51
1.76478e-52
1.73343e-53
1.6751e-54
1.59283e-55
1.4906e-56
1.37304e-57
1.24505e-58
1.11157e-59
9.77206e-61
8.46019e-62
7.21386e-63
6.05891e-64
5.01306e-65
4.08632e-66
3.28189e-67
2.59724e-68
2.02551e-69
1.55677e-70
1.17928e-71
8.80526e-73
6.48086e-74
4.70239e-75
3.36383e-76
2.37248e-77
1.64986e-78
1.13138e-79
7.65102e-81
5.10237e-82
3.35574e-83
2.17696e-84
1.39302e-85
8.79463e-87
5.4861e-88
3.38094e-89
2.05823e-90
1.23764e-91
7.35043e-93
4.31154e-94
2.49771e-95
1.42899e-96
8.07407e-98
4.50529e-99
2.48265e-100
1.35104e-101
7.26071e-103
3.85342e-104
2.01962e-105
1.04532e-106
5.34307e-108
2.69707e-109
1.3445e-110
6.6191e-112
3.2182e-113
1.54529e-114
7.32814e-116
3.43222e-117
1.58767e-118
7.25369e-120
3.27326e-121
1.45893e-122
6.42286e-124
2.79304e-125
1.19974e-126
5.09068e-128
2.13378e-129
8.83533e-131
3.61416e-132
1.46055e-133
5.83123e-135
2.30014e-136
8.96417e-138
3.45177e-139
1.31329e-140
4.93724e-142
1.83409e-143
6.73266e-145
2.44227e-146
8.75497e-148
3.10158e-149
1.08591e-150
3.75747e-152
1.285e-153
4.34339e-155
1.45105e-156
4.79156e-158
1.56395e-159
5.04576e-161
1.60916e-162
5.07279e-164
1.58079e-165
4.86953e-167
1.4828e-168
4.46334e-170
1.32803e-171
3.90586e-173
1.13543e-174
3.2622e-176
9.26221e-178
2.59844e-179
7.20109e-181
1.97095e-182
5.32435e-184
1.41943e-185
3.727e-187
9.64373e-189
2.44323e-190
6.07193e-192
1.41334e-193
3.33194e-31
6.45291e-30
8.37411e-29
9.64719e-28
9.97574e-27
8.90673e-26
6.80597e-25
4.60894e-24
2.95427e-23
1.89868e-22
1.23476e-21
7.92472e-21
4.90837e-20
2.91404e-19
1.65806e-18
8.98285e-18
4.52235e-17
1.71143e-16
4.81115e-16
1.02281e-15
1.68227e-15
2.18867e-15
2.36975e-15
2.1374e-15
1.65146e-15
1.11118e-15
6.60169e-16
3.50882e-16
1.68558e-16
7.39087e-17
2.97757e-17
1.10834e-17
3.83367e-18
1.23857e-18
3.75488e-19
1.0726e-19
2.89785e-20
7.42988e-21
1.81338e-21
4.22486e-22
9.42011e-23
2.01479e-23
4.14236e-24
8.20249e-25
1.56709e-25
2.89332e-26
5.17013e-27
8.95378e-28
1.50473e-28
2.45678e-29
3.90116e-30
6.0308e-31
9.08466e-32
1.33464e-32
1.91377e-33
2.68038e-34
3.66932e-35
4.91282e-36
6.43705e-37
8.25833e-38
1.03793e-38
1.27856e-39
1.54433e-40
1.82981e-41
2.12758e-42
2.42846e-43
2.72198e-44
2.99697e-45
3.24225e-46
3.44741e-47
3.60352e-48
3.70381e-49
3.74413e-50
3.72321e-51
3.64275e-52
3.50718e-53
3.32334e-54
3.09985e-55
2.84654e-56
2.57371e-57
2.29149e-58
2.00929e-59
1.73532e-60
1.47628e-61
1.23724e-62
1.02157e-63
8.31104e-65
6.66261e-66
5.26344e-67
4.09791e-68
3.14451e-69
2.37831e-70
1.77313e-71
1.30314e-72
9.44174e-74
6.7444e-75
4.74999e-76
3.29855e-77
2.2587e-78
1.52517e-79
1.01561e-80
6.66979e-82
4.32006e-83
2.75977e-84
1.73899e-85
1.08201e-86
6.64785e-88
4.03313e-89
2.41607e-90
1.42914e-91
8.347e-93
4.81364e-94
2.74093e-95
1.54099e-96
8.55419e-98
4.68846e-99
2.53721e-100
1.35567e-101
7.15207e-103
3.72553e-104
1.91615e-105
9.73106e-107
4.87963e-108
2.41611e-109
1.1813e-110
5.70321e-112
2.719e-113
1.28008e-114
5.95135e-116
2.73246e-117
1.23897e-118
5.54823e-120
2.45381e-121
1.07186e-122
4.62436e-124
1.97061e-125
8.29463e-127
3.44869e-128
1.4164e-129
5.74656e-131
2.3032e-132
9.11955e-134
3.56736e-135
1.37869e-136
5.26436e-138
1.98609e-139
7.40361e-141
2.72704e-142
9.92558e-144
3.56987e-145
1.26881e-146
4.45654e-148
1.54694e-149
5.30684e-151
1.79927e-152
6.02936e-154
1.99696e-155
6.53735e-157
2.11535e-158
6.76576e-160
2.13903e-161
6.68479e-163
2.06508e-164
6.30614e-166
1.90358e-167
5.68007e-169
1.67534e-170
4.8843e-172
1.40744e-173
4.00815e-175
1.12798e-176
3.1363e-178
8.61391e-180
2.33613e-181
6.25275e-183
1.65076e-184
4.29121e-186
1.09744e-187
2.74373e-189
6.7179e-191
1.80162e-29
4.00152e-28
6.12936e-27
8.03567e-26
8.96913e-25
8.41612e-24
6.77847e-23
4.9297e-22
3.43217e-21
2.36046e-20
1.59249e-19
1.033e-18
6.36442e-18
3.71596e-17
2.05788e-16
1.0738e-15
5.18778e-15
1.86871e-14
4.9788e-14
1.0028e-13
1.56647e-13
1.9457e-13
2.02848e-13
1.76564e-13
1.32507e-13
8.70032e-14
5.06517e-14
2.64507e-14
1.25196e-14
5.42587e-15
2.16787e-15
8.02166e-16
2.76376e-16
8.90984e-17
2.69953e-17
7.71743e-18
2.08919e-18
5.37293e-19
1.31657e-19
3.08206e-20
6.90964e-21
1.48681e-21
3.07694e-22
6.13552e-23
1.18084e-23
2.19692e-24
3.9568e-25
6.90808e-26
1.17052e-26
1.92709e-27
3.08583e-28
4.8107e-29
7.30799e-30
1.08267e-30
1.56546e-31
2.21075e-32
3.05125e-33
4.11836e-34
5.43911e-35
7.03269e-36
8.90681e-37
1.10543e-37
1.34504e-38
1.60514e-39
1.87943e-40
2.15987e-41
2.43702e-42
2.70056e-43
2.93991e-44
3.14496e-45
3.30676e-46
3.41819e-47
3.47448e-48
3.4735e-49
3.41593e-50
3.30514e-51
3.14687e-52
2.94876e-53
2.71978e-54
2.46955e-55
2.20772e-56
1.94339e-57
1.68467e-58
1.43831e-59
1.20951e-60
1.00192e-61
8.17627e-63
6.57374e-64
5.20762e-65
4.06506e-66
3.12701e-67
2.37058e-68
1.77122e-69
1.3044e-70
9.46885e-72
6.77578e-73
4.77995e-74
3.32441e-75
2.27959e-76
1.54125e-77
1.02753e-78
6.75514e-80
4.3794e-81
2.80003e-82
1.76566e-83
1.09878e-84
6.75181e-86
4.09654e-87
2.45409e-88
1.45156e-89
8.47693e-91
4.88767e-92
2.7824e-93
1.56383e-94
8.6779e-96
4.75437e-97
2.57174e-98
1.37347e-99
7.24226e-101
3.77049e-102
1.93819e-103
9.83733e-105
4.93001e-106
2.43959e-107
1.19205e-108
5.75159e-110
2.74037e-111
1.28935e-112
5.99074e-114
2.74885e-115
1.24565e-116
5.57472e-118
2.46405e-119
1.07568e-120
4.63814e-122
1.97533e-123
8.3097e-125
3.45299e-126
1.41737e-127
5.74729e-129
2.30223e-130
9.11078e-132
3.56203e-133
1.3759e-134
5.25101e-136
1.98005e-137
7.37736e-139
2.71602e-140
9.88064e-142
3.552e-143
1.26185e-144
4.43003e-146
1.53702e-147
5.27039e-149
1.7861e-150
5.98253e-152
1.98056e-153
6.48081e-155
2.09613e-156
6.70136e-158
2.11774e-159
6.61538e-161
2.04274e-162
6.23519e-164
1.88133e-165
5.61114e-167
1.65425e-168
4.82054e-170
1.38838e-171
3.95187e-173
1.11153e-174
3.0888e-176
8.47782e-178
2.2977e-179
6.14451e-181
1.62086e-182
4.20841e-184
1.07569e-185
2.69054e-187
6.61225e-189
8.47446e-28
2.29006e-26
4.19689e-25
6.10742e-24
7.19343e-23
7.03995e-22
5.9892e-21
4.667e-20
3.4586e-19
2.45902e-18
1.66052e-17
1.05395e-16
6.26318e-16
3.48737e-15
1.82207e-14
8.88026e-14
4.01008e-13
1.35113e-12
3.37106e-12
6.38846e-12
9.41563e-12
1.11951e-11
1.12032e-11
9.40539e-12
6.85429e-12
4.3917e-12
2.50706e-12
1.28853e-12
6.01782e-13
2.57787e-13
1.02199e-13
3.76204e-14
1.29212e-14
4.16003e-15
1.26074e-15
3.61011e-16
9.80082e-17
2.53041e-17
6.23047e-18
1.46677e-18
3.30919e-19
7.17009e-20
1.4949e-20
3.00442e-21
5.83008e-22
1.09398e-22
1.98774e-23
3.50171e-24
5.98798e-25
9.95016e-26
1.60829e-26
2.53096e-27
3.88122e-28
5.80444e-29
8.47194e-30
1.20764e-30
1.6823e-31
2.29161e-32
3.05417e-33
3.98464e-34
5.09143e-35
6.37446e-36
7.82321e-37
9.41538e-38
1.11164e-38
1.28799e-39
1.46497e-40
1.63621e-41
1.79503e-42
1.9348e-43
2.04948e-44
2.13398e-45
2.18459e-46
2.19922e-47
2.17755e-48
2.12101e-49
2.03265e-50
1.91687e-51
1.77908e-52
1.62527e-53
1.46162e-54
1.29413e-55
1.12824e-56
9.68603e-58
8.18948e-59
6.81981e-60
5.59411e-61
4.52032e-62
3.59849e-63
2.8224e-64
2.1812e-65
1.66105e-66
1.24655e-67
9.2194e-69
6.72038e-70
4.82845e-71
3.41959e-72
2.38735e-73
1.64309e-74
1.11489e-75
7.45861e-77
4.91995e-78
3.20012e-79
2.05257e-80
1.2983e-81
8.10201e-83
4.99209e-84
3.03691e-85
1.82403e-86
1.08161e-87
6.33208e-89
3.65978e-90
2.08832e-91
1.17644e-92
6.54302e-94
3.5927e-95
1.94761e-96
1.04238e-97
5.50799e-99
2.87352e-100
1.48011e-101
7.52727e-103
3.7797e-104
1.87396e-105
9.17394e-107
4.43461e-108
2.11674e-109
9.97714e-111
4.64387e-112
2.13453e-113
9.68912e-115
4.34349e-116
1.92299e-117
8.40844e-119
3.63131e-120
1.54895e-121
6.52602e-123
2.71589e-124
1.11646e-125
4.5337e-127
1.81869e-128
7.20731e-130
2.8217e-131
1.09141e-132
4.17077e-134
1.57475e-135
5.87476e-137
2.16552e-138
7.88762e-140
2.83892e-141
1.00971e-142
3.54889e-144
1.23269e-145
4.23149e-147
1.43557e-148
4.81347e-150
1.59517e-151
5.22497e-153
1.6916e-154
5.41325e-156
1.71227e-157
5.35366e-159
1.65461e-160
5.05486e-162
1.52648e-163
4.55657e-165
1.34443e-166
3.92081e-168
1.13012e-169
3.2192e-171
9.06125e-173
2.51989e-174
6.92137e-176
1.87729e-177
5.02413e-179
1.32646e-180
3.44821e-182
8.82679e-184
2.21511e-185
5.46476e-187
4.22537e-26
1.4037e-24
2.93394e-23
4.53744e-22
5.54247e-21
5.65181e-20
5.06598e-19
4.14635e-18
3.1522e-17
2.22728e-16
1.45662e-15
8.80184e-15
4.92043e-14
2.55077e-13
1.22811e-12
5.4674e-12
2.26143e-11
7.04132e-11
1.63166e-10
2.89963e-10
4.0169e-10
4.59098e-10
4.40368e-10
3.5731e-10
2.53012e-10
1.58444e-10
8.88139e-11
4.49893e-11
2.07753e-11
8.80761e-12
3.46759e-12
1.27135e-12
4.35785e-13
1.40267e-13
4.2563e-14
1.22196e-14
3.32989e-15
8.63833e-16
2.13902e-16
5.06809e-17
1.15155e-17
2.51426e-18
5.28492e-19
1.07129e-19
2.09747e-20
3.97221e-21
7.28603e-22
1.296e-22
2.23801e-23
3.75595e-24
6.13191e-25
9.74722e-26
1.50986e-26
2.28087e-27
3.36269e-28
4.84155e-29
6.81189e-30
9.37111e-31
1.26122e-31
1.66147e-32
2.1434e-33
2.70905e-34
3.35595e-35
4.07636e-36
4.85674e-37
5.67787e-38
6.51528e-39
7.34039e-40
8.12207e-41
8.82858e-42
9.4297e-43
9.89895e-44
1.02154e-44
1.03655e-45
1.03435e-46
1.01523e-47
9.80298e-49
9.3134e-50
8.70721e-51
8.01176e-52
7.25621e-53
6.46955e-54
5.67898e-55
4.90842e-56
4.17765e-57
3.50172e-58
2.89087e-59
2.35077e-60
1.88304e-61
1.48597e-62
1.1553e-63
8.85008e-65
6.68027e-66
4.96897e-67
3.64243e-68
2.63147e-69
1.87376e-70
1.31511e-71
9.09859e-73
6.20543e-74
4.17237e-75
2.76586e-76
1.80775e-77
1.16502e-78
7.40345e-80
4.64096e-81
2.87222e-82
1.75489e-83
1.05851e-84
6.30304e-86
3.70516e-87
2.15013e-88
1.23176e-89
6.96607e-91
3.88916e-92
2.14354e-93
1.16633e-94
6.26503e-96
3.32237e-97
1.7394e-98
8.99058e-100
4.58794e-101
2.31153e-102
1.14985e-103
5.64752e-105
2.73876e-106
1.31143e-107
6.20067e-109
2.895e-110
1.33471e-111
6.0767e-113
2.73212e-114
1.21311e-115
5.31959e-117
2.30382e-118
9.85434e-120
4.16319e-121
1.73724e-122
7.16049e-124
2.91534e-125
1.1725e-126
4.65831e-128
1.82832e-129
7.08918e-131
2.71567e-132
1.0278e-133
3.84331e-135
1.41998e-136
5.18384e-138
1.86995e-139
6.66548e-141
2.34784e-142
8.17251e-144
2.81129e-145
9.55723e-147
3.21105e-148
1.06626e-149
3.49939e-151
1.13513e-152
3.63939e-154
1.15334e-155
3.6127e-157
1.11857e-158
3.42333e-160
1.0356e-161
3.09663e-163
9.1523e-165
2.67362e-166
7.71922e-168
2.20251e-169
6.20977e-171
1.72978e-172
4.75916e-174
1.29307e-175
3.46692e-177
9.17151e-179
2.38999e-180
6.13605e-182
1.54739e-183
3.84429e-185
2.54014e-24
9.65808e-23
2.1516e-21
3.43344e-20
4.31699e-19
4.55396e-18
4.20441e-17
3.47659e-16
2.59868e-15
1.76154e-14
1.08575e-13
6.10643e-13
3.1456e-12
1.48898e-11
6.48589e-11
2.59426e-10
9.65e-10
2.75217e-09
5.89172e-09
9.80309e-09
1.27665e-08
1.40539e-08
1.29561e-08
1.01905e-08
7.02548e-09
4.30828e-09
2.37562e-09
1.18911e-09
5.44192e-10
2.28901e-10
8.9596e-11
3.27702e-11
1.12273e-11
3.61792e-12
1.10067e-12
3.17207e-13
8.68655e-14
2.26665e-14
5.65016e-15
1.34861e-15
3.08877e-16
6.80149e-17
1.4425e-17
2.95144e-18
5.83459e-19
1.11596e-19
2.06777e-20
3.71609e-21
6.48443e-22
1.09976e-22
1.81456e-23
2.91523e-24
4.56403e-25
6.96831e-26
1.03828e-26
1.51075e-27
2.14798e-28
2.9859e-29
4.06031e-30
5.40381e-31
7.04212e-32
8.99004e-33
1.12474e-33
1.37959e-34
1.65962e-35
1.95875e-36
2.26882e-37
2.5799e-38
2.8808e-39
3.15968e-40
3.40489e-41
3.60572e-42
3.75323e-43
3.84088e-44
3.86502e-45
3.82512e-46
3.72377e-47
3.56642e-48
3.3609e-49
3.11683e-50
2.84485e-51
2.55591e-52
2.26058e-53
1.96848e-54
1.68779e-55
1.42503e-56
1.18492e-57
9.70395e-59
7.82776e-60
6.22e-61
4.86899e-62
3.75505e-63
2.85331e-64
2.13634e-65
1.57619e-66
1.14602e-67
8.21192e-69
5.79958e-70
4.03713e-71
2.77013e-72
1.87371e-73
1.24941e-74
8.21365e-76
5.32375e-77
3.4023e-78
2.14469e-79
1.33459e-80
8.19804e-82
4.97102e-83
2.97542e-84
1.75799e-85
1.0253e-86
5.9027e-88
3.35444e-89
1.88175e-90
1.04203e-91
5.69608e-93
3.07368e-94
1.63732e-95
8.6101e-97
4.46981e-98
2.29079e-99
1.15907e-100
5.78984e-102
2.85543e-103
1.39038e-104
6.68442e-106
3.17304e-107
1.48724e-108
6.88319e-110
3.14571e-111
1.41964e-112
6.32677e-114
2.78448e-115
1.21026e-116
5.19514e-118
2.20251e-119
9.22257e-121
3.8143e-122
1.5582e-123
6.28763e-125
2.50626e-126
9.86851e-128
3.83866e-129
1.47512e-130
5.60021e-132
2.10053e-133
7.78423e-135
2.85022e-136
1.03117e-137
3.68628e-139
1.30216e-140
4.5454e-142
1.56793e-143
5.34492e-145
1.80064e-146
5.99511e-148
1.97271e-149
6.41562e-151
2.0622e-152
6.55162e-154
2.05732e-155
6.38549e-157
1.95898e-158
5.94035e-160
1.78047e-161
5.27461e-163
1.54442e-164
4.4693e-166
1.27814e-167
3.61189e-169
1.00845e-170
2.7811e-172
7.5744e-174
2.03609e-175
5.40096e-177
1.41213e-178
3.63914e-180
9.22907e-182
2.30785e-183
1.79647e-22
7.24526e-21
1.65606e-19
2.68952e-18
3.43451e-17
3.64957e-16
3.33523e-15
2.66997e-14
1.89304e-13
1.19828e-12
6.81788e-12
3.50707e-11
1.63848e-10
6.97651e-10
2.71159e-09
9.62902e-09
3.1701e-08
8.22076e-08
1.62012e-07
2.51826e-07
3.09975e-07
3.29078e-07
2.92851e-07
2.24389e-07
1.51132e-07
9.10158e-08
4.9496e-08
2.45426e-08
1.11645e-08
4.67387e-09
1.82225e-09
6.66228e-10
2.28571e-10
7.38684e-11
2.25669e-11
6.53813e-12
1.80166e-12
4.73465e-13
1.18947e-13
2.86314e-14
6.6166e-15
1.47077e-15
3.15005e-16
6.51086e-17
1.30058e-17
2.51416e-18
4.70916e-19
8.55623e-20
1.50963e-20
2.58898e-21
4.31972e-22
7.01802e-23
1.11109e-23
1.71544e-24
2.58458e-25
3.80254e-26
5.46616e-27
7.68178e-28
1.05594e-28
1.42046e-29
1.87082e-30
2.41345e-31
3.05089e-32
3.78063e-33
4.59417e-34
5.47652e-35
6.40615e-36
7.35556e-37
8.29245e-38
9.18154e-39
9.9867e-40
1.06735e-40
1.12114e-41
1.15764e-42
1.17527e-43
1.17333e-44
1.15214e-45
1.11289e-46
1.05763e-47
9.89014e-49
9.10163e-50
8.24397e-51
7.35026e-52
6.45157e-53
5.5753e-54
4.7441e-55
3.97521e-56
3.28039e-57
2.66615e-58
2.13439e-59
1.68315e-60
1.30757e-61
1.00077e-62
7.54666e-64
5.60735e-65
4.10555e-66
2.96226e-67
2.10639e-68
1.47621e-69
1.0197e-70
6.9429e-72
4.65992e-73
3.08325e-74
2.01121e-75
1.29344e-76
8.20467e-78
5.1371e-79
3.17475e-80
1.93656e-81
1.16594e-82
6.92861e-84
4.0639e-85
2.35271e-86
1.34439e-87
7.58262e-89
4.22137e-90
2.31971e-91
1.25825e-92
6.73688e-94
3.56057e-95
1.85762e-96
9.56711e-98
4.8641e-99
2.44136e-100
1.20971e-101
5.91779e-103
2.85813e-104
1.36289e-105
6.41661e-107
2.98286e-108
1.36916e-109
6.20556e-111
2.77735e-112
1.22748e-113
5.35733e-115
2.30911e-116
9.82926e-118
4.13227e-119
1.71579e-120
7.03661e-122
2.85036e-123
1.14048e-124
4.50758e-126
1.75987e-127
6.78762e-129
2.58622e-130
9.7351e-132
3.62041e-133
1.33025e-134
4.82922e-136
1.73224e-137
6.13959e-139
2.15023e-140
7.44145e-142
2.54491e-143
8.60084e-145
2.87261e-146
9.48184e-148
3.09313e-149
9.97255e-151
3.17778e-152
1.00083e-153
3.11547e-155
9.58553e-157
2.91501e-158
8.7618e-160
2.60298e-161
7.64293e-163
2.2179e-164
6.36045e-166
1.80241e-167
5.04651e-169
1.39573e-170
3.81251e-172
1.02807e-173
2.73616e-175
7.18195e-177
1.85903e-178
4.74222e-180
1.19379e-181
1.37336e-20
5.66582e-19
1.30289e-17
2.11005e-16
2.65598e-15
2.73787e-14
2.38477e-13
1.79075e-12
1.17591e-11
6.82664e-11
3.53378e-10
1.64165e-09
6.8769e-09
2.60636e-08
8.95461e-08
2.79857e-07
8.0448e-07
1.88689e-06
3.41615e-06
4.95437e-06
5.81224e-06
5.95795e-06
5.14944e-06
3.86847e-06
2.55954e-06
1.52014e-06
8.1796e-07
4.03028e-07
1.82836e-07
7.64505e-08
2.9782e-08
1.0909e-08
3.75635e-09
1.21998e-09
3.74966e-10
1.09399e-10
3.03827e-11
8.05264e-12
2.04157e-12
4.96174e-13
1.15825e-13
2.60165e-14
5.63243e-15
1.17708e-15
2.37785e-16
4.6494e-17
8.80971e-18
1.61941e-18
2.89089e-19
5.01644e-20
8.469e-21
1.39219e-21
2.23013e-22
3.48365e-23
5.31009e-24
7.90323e-25
1.1492e-25
1.63349e-26
2.27085e-27
3.08904e-28
4.11359e-29
5.36496e-30
6.85546e-31
8.58613e-32
1.0544e-32
1.27002e-33
1.50089e-34
1.74083e-35
1.98222e-36
2.21644e-37
2.43432e-38
2.62675e-39
2.78534e-40
2.903e-41
2.97447e-42
2.99673e-43
2.96918e-44
2.89364e-45
2.77421e-46
2.61687e-47
2.42902e-48
2.21891e-49
1.99507e-50
1.76578e-51
1.53858e-52
1.31993e-53
1.11498e-54
9.27484e-56
7.59816e-57
6.13065e-58
4.8723e-59
3.81436e-60
2.94173e-61
2.23514e-62
1.67324e-63
1.23421e-64
8.97076e-66
6.42543e-67
4.5356e-68
3.1554e-69
2.16365e-70
1.46237e-71
9.74291e-73
6.39894e-74
4.14322e-75
2.64604e-76
1.66781e-77
1.03749e-78
6.36942e-80
3.85922e-81
2.30771e-82
1.36191e-83
7.93239e-85
4.55986e-86
2.587e-87
1.44859e-88
8.00578e-90
4.36697e-91
2.35116e-92
1.24945e-93
6.55396e-95
3.39346e-96
1.7344e-97
8.75056e-99
4.35826e-100
2.14286e-101
1.04013e-102
4.98441e-104
2.3582e-105
1.10154e-106
5.08033e-108
2.31347e-109
1.04024e-110
4.61866e-112
2.02499e-113
8.76739e-115
3.74864e-116
1.58288e-117
6.60095e-119
2.71873e-120
1.10597e-121
4.44374e-123
1.76361e-124
6.91381e-126
2.67738e-127
1.02422e-128
3.87065e-130
1.4451e-131
5.33024e-133
1.94244e-134
6.99384e-136
2.48808e-137
8.74598e-139
3.03782e-140
1.04265e-141
3.53631e-143
1.18526e-144
3.92587e-146
1.28509e-147
4.15733e-149
1.3292e-150
4.20021e-152
1.31178e-153
4.04918e-155
1.23536e-156
3.72508e-158
1.11018e-159
3.27006e-161
9.51935e-163
2.73857e-164
7.78516e-166
2.18673e-167
6.06776e-169
1.66303e-170
4.5005e-172
1.20235e-173
3.16963e-175
8.24447e-177
2.11559e-178
5.36214e-180
1.04329e-18
4.29459e-17
9.68973e-16
1.51957e-14
1.82483e-13
1.76936e-12
1.43258e-11
9.9056e-11
5.94409e-10
3.13278e-09
1.46302e-08
6.09305e-08
2.27336e-07
7.62288e-07
2.303e-06
6.29923e-06
1.56649e-05
3.31455e-05
5.50938e-05
7.45203e-05
8.43305e-05
8.347e-05
7.06443e-05
5.24336e-05
3.4356e-05
2.02499e-05
1.083e-05
5.32204e-06
2.41687e-06
1.01329e-06
3.95999e-07
1.45751e-07
5.05049e-08
1.65239e-08
5.12071e-09
1.50747e-09
4.22696e-10
1.13172e-10
2.89977e-11
7.12524e-12
1.68219e-12
3.82255e-13
8.37393e-14
1.77112e-14
3.62159e-15
7.16857e-16
1.37516e-16
2.55933e-17
4.62581e-18
8.12719e-19
1.38918e-19
2.31202e-20
3.74942e-21
5.929e-22
9.14801e-23
1.37806e-23
2.02793e-24
2.91687e-25
4.10283e-26
5.64622e-27
7.60564e-28
1.00324e-28
1.29639e-29
1.64171e-30
2.03819e-31
2.48155e-32
2.96397e-33
3.474e-34
3.99682e-35
4.51487e-36
5.00881e-37
5.45865e-38
5.84518e-39
6.15127e-40
6.36316e-41
6.47149e-42
6.47197e-43
6.36564e-44
6.15869e-45
5.86191e-46
5.48976e-47
5.05927e-48
4.58876e-49
4.0966e-50
3.60014e-51
3.11478e-52
2.65331e-53
2.22557e-54
1.83832e-55
1.49543e-56
1.19815e-57
9.45549e-59
7.35054e-60
5.6292e-61
4.24712e-62
3.15712e-63
2.31242e-64
1.66896e-65
1.18701e-66
8.31996e-68
5.74739e-69
3.91316e-70
2.62615e-71
1.73727e-72
1.13291e-73
7.28733e-75
4.62571e-76
2.89751e-77
1.79105e-78
1.09251e-79
6.57625e-81
3.90637e-82
2.28988e-83
1.32466e-84
7.56224e-86
4.26052e-87
2.3689e-88
1.29991e-89
7.03998e-91
3.76298e-92
1.9852e-93
1.03372e-94
5.31298e-96
2.69539e-97
1.34979e-98
6.67248e-100
3.25608e-101
1.56857e-102
7.45978e-104
3.5025e-105
1.62358e-106
7.43062e-108
3.35776e-109
1.49817e-110
6.60045e-112
2.87146e-113
1.23358e-114
5.2333e-116
2.19255e-117
9.07196e-119
3.70721e-120
1.49624e-121
5.96461e-123
2.34856e-124
9.13438e-126
3.50935e-127
1.33187e-128
4.9934e-130
1.84948e-131
6.76757e-133
2.44661e-134
8.73889e-136
3.08408e-137
1.07543e-138
3.7055e-140
1.26162e-141
4.24464e-143
1.41123e-144
4.63671e-146
1.50553e-147
4.83113e-149
1.53213e-150
4.80218e-152
1.48759e-153
4.55443e-155
1.37814e-156
4.12153e-158
1.21821e-159
3.55854e-161
1.02728e-162
2.93051e-164
8.26037e-166
2.30036e-167
6.32811e-169
1.71923e-170
4.61222e-172
1.2215e-173
3.19362e-175
8.24419e-177
2.1037e-178
6.97367e-17
2.79564e-15
6.02326e-14
8.89951e-13
9.98397e-12
8.98235e-11
6.69835e-10
4.23654e-09
2.31144e-08
1.10142e-07
4.62477e-07
1.72204e-06
5.71132e-06
1.6926e-05
4.49648e-05
0.00010755
0.000231443
0.000440559
0.000672412
0.000851349
0.000936254
0.000900187
0.000752658
0.000556864
0.000364979
0.000215554
0.000115353
5.67953e-05
2.59296e-05
1.09487e-05
4.31238e-06
1.60077e-06
5.59959e-07
1.85076e-07
5.79743e-08
1.72596e-08
4.89622e-09
1.32668e-09
3.44118e-10
8.56175e-11
2.04712e-11
4.71189e-12
1.04568e-12
2.24073e-13
4.64239e-14
9.31091e-15
1.80982e-15
3.41297e-16
6.25037e-17
1.11263e-17
1.9268e-18
3.24867e-19
5.33675e-20
8.54774e-21
1.3357e-21
2.03756e-22
3.03602e-23
4.42101e-24
6.29479e-25
8.76775e-26
1.19519e-26
1.59518e-27
2.08537e-28
2.67127e-29
3.35406e-30
4.12943e-31
4.98672e-32
5.9085e-33
6.87073e-34
7.84352e-35
8.79252e-36
9.68092e-37
1.04718e-37
1.11307e-38
1.16281e-39
1.19416e-40
1.20578e-41
1.19728e-42
1.16927e-43
1.1233e-44
1.06168e-45
9.87352e-47
9.03614e-48
8.1391e-49
7.21608e-50
6.298e-51
5.41156e-52
4.57827e-53
3.81397e-54
3.12885e-55
2.52791e-56
2.01158e-57
1.57669e-58
1.21735e-59
9.25931e-61
6.93845e-62
5.12265e-63
3.72651e-64
2.67124e-65
1.88691e-66
1.31354e-67
9.01194e-69
6.09392e-70
4.06166e-71
2.66849e-72
1.72937e-73
1.10585e-74
6.97738e-76
4.34381e-77
2.6683e-78
1.61729e-79
9.67236e-81
5.70792e-82
3.32377e-83
1.90985e-84
1.08291e-85
6.05931e-87
3.34578e-88
1.82318e-89
9.80457e-91
5.20364e-92
2.7257e-93
1.40914e-94
7.19032e-96
3.62137e-97
1.80029e-98
8.83426e-100
4.27928e-101
2.04625e-102
9.65936e-104
4.50147e-105
2.07106e-106
9.40757e-108
4.21915e-109
1.86831e-110
8.16896e-112
3.5269e-113
1.50364e-114
6.33047e-116
2.63198e-117
1.08069e-118
4.38236e-120
1.75516e-121
6.94299e-123
2.71275e-124
1.04694e-125
3.99119e-127
1.50301e-128
5.59138e-130
2.05489e-131
7.46077e-133
2.67622e-134
9.48452e-136
3.32109e-137
1.14903e-138
3.9281e-140
1.32692e-141
4.42931e-143
1.46105e-144
4.76261e-146
1.53422e-147
4.88428e-149
1.53673e-150
4.77839e-152
1.46845e-153
4.46002e-155
1.33879e-156
3.97173e-158
1.16449e-159
3.37411e-161
9.66127e-163
2.73357e-164
7.6419e-166
2.11061e-167
5.75815e-169
1.55161e-170
4.12925e-172
1.08535e-173
2.81862e-175
7.24027e-177
3.55247e-15
1.35575e-13
2.76276e-12
3.83074e-11
3.9803e-10
3.2853e-09
2.24037e-08
1.29387e-07
6.42968e-07
2.77945e-06
1.05345e-05
3.52101e-05
0.000104227
0.000274201
0.000643568
0.00135304
0.00254949
0.00433765
0.00607064
0.00727514
0.00781231
0.00737981
0.00615622
0.00458992
0.00304249
0.0018237
0.00098704
0.000490013
0.000226025
9.66197e-05
3.85546e-05
1.4498e-05
5.13837e-06
1.72126e-06
5.46585e-07
1.64987e-07
4.74606e-08
1.30417e-08
3.43083e-09
8.65774e-10
2.09969e-10
4.90215e-11
1.10351e-11
2.39855e-12
5.04049e-13
1.02536e-13
2.0214e-14
3.86588e-15
7.17934e-16
1.29584e-16
2.27517e-17
3.88873e-18
6.47518e-19
1.0511e-19
1.6644e-20
2.57249e-21
3.88311e-22
5.72749e-23
8.25892e-24
1.16483e-24
1.60757e-25
2.17188e-26
2.87361e-27
3.72486e-28
4.73195e-29
5.89337e-30
7.19816e-31
8.62475e-32
1.01406e-32
1.1703e-33
1.32604e-34
1.47554e-35
1.6128e-36
1.732e-37
1.82784e-38
1.89601e-39
1.93347e-40
1.93868e-41
1.91168e-42
1.85411e-43
1.76901e-44
1.66058e-45
1.53384e-46
1.39426e-47
1.24739e-48
1.09849e-49
9.5231e-51
8.12801e-52
6.83054e-53
5.65232e-54
4.60613e-55
3.69672e-56
2.92213e-57
2.27518e-58
1.745e-59
1.31847e-60
9.81442e-62
7.19792e-63
5.20146e-64
3.70377e-65
2.59891e-66
1.79717e-67
1.2248e-68
8.22704e-70
5.44699e-71
3.55757e-72
2.29235e-73
1.45725e-74
9.13934e-76
5.65493e-77
3.45206e-78
2.0791e-79
1.23545e-80
7.24342e-82
4.19021e-83
2.39174e-84
1.34706e-85
7.48636e-87
4.10557e-88
2.22182e-89
1.18655e-90
6.25354e-92
3.25263e-93
1.66967e-94
8.45913e-96
4.22995e-97
2.08773e-98
1.01708e-99
4.89101e-101
2.32175e-102
1.08798e-103
5.03307e-105
2.29861e-106
1.03642e-107
4.61381e-109
2.02792e-110
8.80092e-112
3.77143e-113
1.59588e-114
6.66851e-116
2.75173e-117
1.12137e-118
4.51307e-120
1.79388e-121
7.04252e-123
2.73081e-124
1.04592e-125
3.95703e-127
1.47882e-128
5.45949e-130
1.99112e-131
7.17403e-133
2.55368e-134
8.98096e-136
3.12065e-137
1.07139e-138
3.63452e-140
1.2183e-141
4.03537e-143
1.32083e-144
4.27223e-146
1.36559e-147
4.31374e-149
1.34668e-150
4.15485e-152
1.26688e-153
3.81773e-155
1.13701e-156
3.34666e-158
9.73496e-160
2.79846e-161
7.94964e-163
2.23146e-164
6.18898e-166
1.69591e-167
4.59111e-169
1.22794e-170
3.2452e-172
8.47817e-174
2.19205e-175
1.19549e-13
4.26054e-12
8.054e-11
1.03555e-09
1.00251e-08
7.72775e-08
4.89762e-07
2.60768e-06
1.18618e-05
4.669e-05
0.000160488
0.000484679
0.00129168
0.00304962
0.00640533
0.0120098
0.0201333
0.0304269
0.0391251
0.0449984
0.0474669
0.045046
0.0379386
0.0288264
0.0196292
0.0120884
0.00672936
0.00340429
0.00159627
0.000695108
0.000282688
0.000108217
3.90264e-05
1.32997e-05
4.29562e-06
1.31856e-06
3.85636e-07
1.07719e-07
2.88003e-08
7.38549e-09
1.8199e-09
4.31659e-10
9.87053e-11
2.17905e-11
4.65042e-12
9.60594e-13
1.92263e-13
3.73259e-14
7.03558e-15
1.2887e-15
2.29576e-16
3.98075e-17
6.72324e-18
1.10679e-18
1.77705e-19
2.78446e-20
4.26025e-21
6.3681e-22
9.30428e-23
1.3294e-23
1.85834e-24
2.54256e-25
3.40616e-26
4.46965e-27
5.74713e-28
7.24344e-29
8.95152e-30
1.08503e-30
1.29033e-31
1.50593e-32
1.72529e-33
1.94082e-34
2.14425e-35
2.32721e-36
2.48175e-37
2.60094e-38
2.67939e-39
2.71367e-40
2.7025e-41
2.64687e-42
2.54992e-43
2.41662e-44
2.25339e-45
2.0676e-46
1.86702e-47
1.65934e-48
1.45167e-49
1.25024e-50
1.0601e-51
8.85063e-53
7.27623e-54
5.89087e-55
4.69707e-56
3.68876e-57
2.85345e-58
2.17433e-59
1.6322e-60
1.20711e-61
8.79559e-63
6.31479e-64
4.46739e-65
3.11441e-66
2.13967e-67
1.44875e-68
9.6693e-70
6.36591e-71
4.13417e-72
2.6484e-73
1.67361e-74
1.04329e-75
6.41569e-77
3.89209e-78
2.32935e-79
1.37533e-80
8.01145e-82
4.60427e-83
2.61075e-84
1.46063e-85
8.06299e-87
4.39185e-88
2.36052e-89
1.25196e-90
6.5526e-92
3.38446e-93
1.72517e-94
8.67881e-96
4.3091e-97
2.11168e-98
1.02141e-99
4.87663e-101
2.29827e-102
1.06921e-103
4.91041e-105
2.22631e-106
9.96507e-108
4.40372e-109
1.92141e-110
8.27746e-112
3.52102e-113
1.47894e-114
6.13419e-116
2.51251e-117
1.01629e-118
4.0598e-120
1.60171e-121
6.24121e-123
2.40203e-124
9.13122e-126
3.42874e-127
1.27178e-128
4.6599e-130
1.68672e-131
6.03154e-133
2.13082e-134
7.43724e-136
2.56472e-137
8.73867e-139
2.94199e-140
9.78682e-142
3.21706e-143
1.04498e-144
3.35426e-146
1.064e-147
3.33539e-149
1.03329e-150
3.16359e-152
9.57238e-154
2.86251e-155
8.45979e-157
2.47091e-158
7.1323e-160
2.03455e-161
5.73537e-163
1.59769e-164
4.39803e-166
1.19635e-167
3.21621e-169
8.54675e-171
2.24618e-172
5.84483e-174
2.17915e-12
7.38227e-11
1.31794e-09
1.58925e-08
1.44063e-07
1.03695e-06
6.11698e-06
3.03133e-05
0.000128359
0.000469381
0.00149302
0.00415562
0.0101807
0.0220698
0.0424043
0.0723001
0.107119
0.137819
0.163434
0.184678
0.194622
0.19646
0.172053
0.133312
0.0964756
0.0613138
0.0359459
0.0188609
0.00907222
0.00405338
0.0016917
0.00066286
0.000244465
8.51312e-05
2.80763e-05
8.79411e-06
2.62293e-06
7.46774e-07
2.03417e-07
5.31237e-08
1.33268e-08
3.21705e-09
7.4847e-10
1.68076e-10
3.64778e-11
7.66073e-12
1.55854e-12
3.07484e-13
5.88845e-14
1.09558e-14
1.98204e-15
3.48934e-16
5.98211e-17
9.99406e-18
1.62811e-18
2.58785e-19
4.01565e-20
6.08642e-21
9.0152e-22
1.30557e-22
1.84942e-23
2.56364e-24
3.4789e-25
4.62335e-26
6.01943e-27
7.68047e-28
9.60717e-29
1.17846e-29
1.41798e-30
1.67414e-31
1.93994e-32
2.20687e-33
2.46525e-34
2.70484e-35
2.91552e-36
3.08798e-37
3.21444e-38
3.28919e-39
3.30904e-40
3.27356e-41
3.18501e-42
3.04817e-43
2.8699e-44
2.6586e-45
2.42354e-46
2.17424e-47
1.9199e-48
1.66879e-49
1.42799e-50
1.20305e-51
9.97972e-53
8.15201e-54
6.55778e-55
5.19549e-56
4.0542e-57
3.11619e-58
2.35944e-59
1.75991e-60
1.29329e-61
9.36372e-63
6.68002e-64
4.69578e-65
3.25284e-66
2.22058e-67
1.4944e-68
9.91899e-70
6.49342e-71
4.19268e-72
2.67013e-73
1.67727e-74
1.03924e-75
6.35156e-77
3.82921e-78
2.27727e-79
1.33601e-80
7.7322e-82
4.41481e-83
2.48685e-84
1.38207e-85
7.57827e-87
4.09998e-88
2.18868e-89
1.15289e-90
5.99258e-92
3.0738e-93
1.55593e-94
7.77274e-96
3.83215e-97
1.86471e-98
8.95572e-100
4.24545e-101
1.98654e-102
9.17575e-104
4.1838e-105
1.88322e-106
8.3686e-108
3.67147e-109
1.59031e-110
6.8013e-112
2.87204e-113
1.19755e-114
4.93077e-116
2.00482e-117
8.04987e-119
3.19208e-120
1.2501e-121
4.83524e-123
1.84719e-124
6.97013e-126
2.59789e-127
9.56465e-129
3.47856e-130
1.24977e-131
4.43579e-133
1.5554e-134
5.38839e-136
1.84431e-137
6.23709e-139
2.08409e-140
6.88103e-142
2.24494e-143