/*--------------------------------*- C++ -*----------------------------------*\
  =========                 |
  \\      /  F ield         | OpenFOAM: The Open Source CFD Toolbox
   \\    /   O peration     | Website:  https://openfoam.org
    \\  /    A nd           | Version:  9
     \\/     M anipulation  |
\*---------------------------------------------------------------------------*/
FoamFile
{
    format      ascii;
    class       volScalarField;
    location    "0.004";
    object      s_0;
}
// * * * * * * * * * * * * * * * * * * * * * * * * * * * * * * * * * * * * * //

dimensions      [0 0 0 0 0 0 0];

internalField   nonuniform List<scalar> 
12225
(
1
1
1
1
1
1
1
1
1
1
1
1
1
1
1
1
1
0.999996
1
1
1
1
1
1
1
1
1
1
1
1
1
1
1
1
1
1
1
1
1
1
1
1
1
1
1
1
1
1
1
1
1
1
1
1
1
1
1
1
1
1
1
1
1
1
1
1
1
1
1
1
1
1
1
1
1
1
1
1
1
1
1
1
1
1
1
1
1
1
1
1
1
1
1
1
1
1
1
1
1
1
1
1
1
1
1
1
1
1
1
1
1
1
1
1
1
1
1
1
1
1
1
1
1
1
1
1
1
1
1
1
1
1
1
1
1
1
1
1
1
1
1
1
1
1
1
1
1
1
1
1
1
1
1
1
1
1
1
1
1
1
1
1
1
1
1
1
1
1
1
1
1
1
1
1
1
1
1
1
1
1
1
1
1
1
1
1
1
1
1
1
1
1
1
1
1
1
1
1
1
1
1
1
1
1
1
1
1
1
1
1
1
1
1
1
1
1
1
1
1
1
1
1
1
1
1
1
1
1
1
1
1
1
1
1
1
1
1
1
1
1
1
1
1
1
1
1
1
1
1
1
1
1
1
1
1
1
1
1
1
1
1
1
1
1
1
1
1
1
1
1
1
1
1
1
1
1
1
1
1
1
1
1
1
1
1
1
1
1
1
1
1
1
1
1
1
1
1
1
1
1
1
1
1
1
1
1
1
1
1
1
1
1
1
1
1
1
1
1
1
1
1
1
1
1
1
1
1
1
1
1
1
1
1
1
1
1
1
1
1
1
1
1
1
1
1
1
1
1
1
1
1
1
1
1
1
1
1
1
1
1
1
1
1
1
1
1
1
1
1
1
1
1
1
1
1
1
1
1
1
1
1
1
1
1
1
1
1
1
1
1
1
1
1
1
1
1
1
1
1
1
1
1
1
1
1
1
1
1
1
1
1
1
1
1
1
1
1
1
1
1
1
1
1
1
1
1
1
1
1
1
1
1
1
1
1
1
1
1
1
1
1
1
1
1
1
1
1
1
1
1
1
1
1
1
1
1
1
1
1
1
1
1
1
1
1
1
1
1
1
1
1
1
1
1
1
1
1
1
1
1
1
1
1
1
1
1
1
1
1
1
1
1
1
1
1
1
1
1
1
1
1
1
1
1
1
1
1
1
1
1
1
1
1
1
1
1
1
1
1
1
1
1
1
1
1
1
1
1
1
1
1
1
1
1
1
1
1
1
1
1
4.86857e-33
8.5928e-32
9.86923e-31
1.00408e-29
9.47522e-29
7.94034e-28
5.71589e-27
3.58673e-26
2.08483e-25
1.21162e-24
7.27186e-24
4.40511e-23
2.60671e-22
1.48727e-21
8.16301e-21
4.28375e-20
2.1035e-19
7.96537e-19
2.27875e-18
4.97431e-18
8.40259e-18
1.12898e-17
1.24753e-17
1.15386e-17
9.08313e-18
6.20268e-18
3.73166e-18
2.00271e-18
9.69323e-19
4.27207e-19
1.72505e-19
6.42285e-20
2.21835e-20
7.14545e-21
2.15673e-21
6.12633e-22
1.64411e-22
4.18324e-23
1.01235e-23
2.33687e-24
5.15909e-25
1.09191e-25
2.22033e-26
4.34644e-27
8.20592e-28
1.49667e-28
2.64116e-29
4.51596e-30
7.49127e-31
1.20706e-31
1.89126e-32
2.88447e-33
4.28627e-34
6.21114e-35
8.78398e-36
1.21329e-36
1.63792e-37
2.16247e-38
2.79384e-39
3.53415e-40
4.37948e-41
5.31891e-42
6.33399e-43
7.39886e-44
8.48108e-45
9.54311e-46
1.05445e-46
1.14442e-47
1.22039e-48
1.27902e-49
1.31772e-50
1.33488e-51
1.3299e-52
1.30328e-53
1.25656e-54
1.19213e-55
1.11309e-56
1.02298e-57
9.25527e-59
8.24438e-60
7.23144e-61
6.24653e-62
5.31432e-63
4.45343e-64
3.67641e-65
2.99003e-66
2.396e-67
1.89189e-68
1.4721e-69
1.12888e-70
8.5322e-72
6.35635e-73
4.66786e-74
3.37927e-75
2.41189e-76
1.69725e-77
1.17763e-78
8.05734e-80
5.43655e-81
3.61739e-82
2.37374e-83
1.53644e-84
9.80938e-86
6.17936e-87
3.84615e-88
2.36502e-89
1.43655e-90
8.61886e-92
5.10737e-93
2.98914e-94
1.72776e-95
9.86283e-97
5.56023e-98
3.09566e-99
1.70207e-100
9.24193e-102
4.95571e-103
2.62426e-104
1.37235e-105
7.08734e-107
3.6146e-108
1.82054e-109
9.05544e-111
4.44826e-112
2.15798e-113
1.03393e-114
4.8924e-116
2.28641e-117
1.05534e-118
4.81109e-120
2.16631e-121
9.63458e-123
4.23242e-124
1.83654e-125
7.87188e-127
3.33299e-128
1.39405e-129
5.76006e-131
2.35119e-132
9.48147e-134
3.77748e-135
1.4869e-136
5.78263e-138
2.22202e-139
8.4365e-141
3.16505e-142
1.17332e-143
4.29819e-145
1.55596e-146
5.56631e-148
1.96792e-149
6.87593e-151
2.37439e-152
8.10363e-154
2.73355e-155
9.11398e-157
3.00352e-158
9.7838e-160
3.15026e-161
1.00267e-162
3.1546e-164
9.81107e-166
3.0163e-167
9.16682e-169
2.75389e-170
8.17804e-172
2.40057e-173
6.96494e-175
1.99723e-176
5.65973e-178
1.58475e-179
4.38344e-181
1.19747e-182
3.22871e-184
8.59118e-186
2.25154e-187
5.81495e-189
1.47046e-190
3.64758e-192
8.47494e-194
3.26247e-31
6.30195e-30
8.12706e-29
9.31678e-28
9.61607e-27
8.58449e-26
6.55685e-25
4.43029e-24
2.82807e-23
1.80996e-22
1.17413e-21
7.53011e-21
4.66507e-20
2.7718e-19
1.57958e-18
8.58437e-18
4.30197e-17
1.6116e-16
4.48475e-16
9.44177e-16
1.5387e-15
1.98517e-15
2.13306e-15
1.90943e-15
1.46517e-15
9.79444e-16
5.78347e-16
3.05644e-16
1.46046e-16
6.37167e-17
2.5544e-17
9.46364e-18
3.25868e-18
1.04825e-18
3.16465e-19
9.00362e-20
2.42304e-20
6.18904e-21
1.505e-21
3.49387e-22
7.76314e-23
1.65476e-23
3.39085e-24
6.69257e-25
1.27454e-25
2.34584e-26
4.17897e-27
7.21543e-28
1.20899e-28
1.96816e-29
3.11628e-30
4.80379e-31
7.21608e-32
1.0572e-32
1.51181e-33
2.11171e-34
2.88314e-35
3.85007e-36
5.03146e-37
6.43845e-38
8.07144e-39
9.91763e-40
1.19493e-40
1.41232e-41
1.63812e-42
1.86524e-43
2.08564e-44
2.29083e-45
2.47242e-46
2.62264e-47
2.73494e-48
2.80447e-49
2.82837e-50
2.80603e-51
2.73902e-52
2.63098e-53
2.48731e-54
2.3147e-55
2.12066e-56
1.913e-57
1.69932e-58
1.48663e-59
1.28098e-60
1.08726e-61
9.09123e-63
7.48934e-64
6.07901e-65
4.86211e-66
3.83224e-67
2.97679e-68
2.27898e-69
1.71973e-70
1.27918e-71
9.37966e-73
6.7803e-74
4.83217e-75
3.39542e-76
2.35248e-77
1.60717e-78
1.08274e-79
7.19346e-81
4.71331e-82
3.04584e-83
1.94131e-84
1.22049e-85
7.57685e-87
4.6447e-88
2.81149e-89
1.68043e-90
9.91749e-92
5.77931e-93
3.32536e-94
1.88922e-95
1.05975e-96
5.86955e-98
3.20981e-99
1.73312e-100
9.2396e-102
4.86359e-103
2.52779e-104
1.29722e-105
6.57317e-107
3.28878e-108
1.6248e-109
7.92647e-111
3.81839e-112
1.8164e-113
8.53265e-115
3.95829e-116
1.8134e-117
8.20452e-119
3.66605e-120
1.61786e-121
7.0517e-123
3.03578e-124
1.29087e-125
5.42182e-127
2.24942e-128
9.21882e-130
3.73225e-131
1.4927e-132
5.89786e-134
2.30224e-135
8.87884e-137
3.38318e-138
1.27371e-139
4.73817e-141
1.74163e-142
6.3259e-144
2.27051e-145
8.05328e-147
2.82284e-148
9.77855e-150
3.34775e-151
1.13275e-152
3.78816e-154
1.25214e-155
4.09084e-157
1.32106e-158
4.21688e-160
1.33054e-161
4.14991e-163
1.27947e-164
3.89943e-166
1.17478e-167
3.49856e-169
1.02989e-170
2.99672e-172
8.61849e-174
2.44966e-175
6.88061e-177
1.90945e-178
5.23431e-180
1.41686e-181
3.78507e-183
9.97384e-185
2.58783e-186
6.60565e-188
1.6484e-189
4.02848e-191
1.76347e-29
3.89873e-28
5.93323e-27
7.75069e-26
8.64274e-25
8.10737e-24
6.52084e-23
4.72742e-22
3.27809e-21
2.24748e-20
1.51419e-19
9.82173e-19
6.05533e-18
3.53951e-17
1.96381e-16
1.02789e-15
4.94578e-15
1.76362e-14
4.65244e-14
9.28234e-14
1.43662e-13
1.77095e-13
1.83162e-13
1.58271e-13
1.17976e-13
7.69672e-14
4.45368e-14
2.31248e-14
1.08871e-14
4.69512e-15
1.86681e-15
6.87543e-16
2.35821e-16
7.56959e-17
2.2839e-17
6.50294e-18
1.75355e-18
4.49265e-19
1.09682e-19
2.55842e-20
5.71565e-21
1.22569e-21
2.52807e-22
5.02455e-23
9.63916e-24
1.78769e-24
3.20978e-25
5.5868e-26
9.43805e-27
1.54924e-27
2.47356e-28
3.84513e-29
5.82464e-30
8.60505e-31
1.24079e-31
1.74747e-32
2.40533e-33
3.2379e-34
4.26503e-35
5.50025e-36
6.94803e-37
8.60123e-38
1.04392e-38
1.24267e-39
1.4514e-40
1.66387e-41
1.87278e-42
2.07027e-43
2.24833e-44
2.39938e-45
2.51682e-46
2.59547e-47
2.63199e-48
2.62507e-49
2.57553e-50
2.48618e-51
2.36163e-52
2.20782e-53
2.03166e-54
1.84048e-55
1.64154e-56
1.44167e-57
1.24686e-58
1.06207e-59
8.91069e-61
7.36432e-62
5.99588e-63
4.8096e-64
3.80132e-65
2.96048e-66
2.27207e-67
1.71848e-68
1.28103e-69
9.41233e-71
6.81683e-72
4.86679e-73
3.42535e-74
2.37681e-75
1.62605e-76
1.09686e-77
7.29574e-79
4.7853e-80
3.09521e-81
1.97441e-82
1.24218e-83
7.71271e-85
4.72859e-86
2.86249e-87
1.71094e-88
1.0097e-89
5.8832e-91
3.38449e-92
1.92233e-93
1.078e-94
5.96846e-96
3.26258e-97
1.76082e-98
9.38278e-100
4.93641e-101
2.56425e-102
1.31519e-103
6.66035e-105
3.33042e-106
1.64438e-107
8.01704e-109
3.85963e-110
1.83488e-111
8.61411e-113
3.9936e-114
1.82845e-115
8.2675e-117
3.69193e-118
1.6283e-119
7.09292e-121
3.05171e-122
1.29688e-123
5.44389e-125
2.25728e-126
9.24576e-128
3.74106e-129
1.49539e-130
5.90527e-132
2.30389e-133
8.88049e-135
3.38204e-136
1.27263e-137
4.73171e-139
1.73838e-140
6.31097e-142
2.26404e-143
8.02647e-145
2.81209e-146
9.73674e-148
3.33188e-149
1.12686e-150
3.76675e-152
1.24449e-153
4.06404e-155
1.31182e-156
4.18552e-158
1.32006e-159
4.11539e-161
1.26826e-162
3.86355e-164
1.16344e-165
3.46322e-167
1.01901e-168
2.96365e-170
8.51912e-172
2.42017e-173
6.79398e-175
1.88433e-176
5.16197e-178
1.39635e-179
3.72697e-181
9.81264e-183
2.54293e-184
6.48755e-186
1.61962e-187
3.97287e-189
8.25869e-28
2.21851e-26
4.04578e-25
5.87665e-24
6.91755e-23
6.76284e-22
5.7397e-21
4.45745e-20
3.29321e-19
2.33746e-18
1.57791e-17
1.00205e-16
5.96098e-16
3.32378e-15
1.74016e-14
8.50444e-14
3.82929e-13
1.27758e-12
3.15733e-12
5.92944e-12
8.6577e-12
1.02272e-11
1.0148e-11
8.46007e-12
6.12462e-12
3.89948e-12
2.21271e-12
1.13078e-12
5.25241e-13
2.23905e-13
8.83443e-14
3.23691e-14
1.10677e-14
3.54794e-15
1.07076e-15
3.05375e-16
8.25801e-17
2.12398e-17
5.21044e-18
1.22222e-18
2.74776e-19
5.93317e-20
1.23285e-20
2.46959e-21
4.77673e-22
8.93474e-23
1.61835e-23
2.84222e-24
4.84552e-25
8.02771e-26
1.29374e-26
2.03004e-27
3.10415e-28
4.62918e-29
6.7377e-30
9.57779e-31
1.33059e-31
1.80763e-32
2.40271e-33
3.12644e-34
3.98442e-35
4.97559e-36
6.09078e-37
7.31178e-38
8.61105e-39
9.95229e-40
1.12918e-40
1.25808e-41
1.37683e-42
1.48046e-43
1.56443e-44
1.62504e-45
1.65963e-46
1.66679e-47
1.64648e-48
1.59997e-49
1.52972e-50
1.43923e-51
1.33266e-52
1.21461e-53
1.08978e-54
9.62666e-56
8.37319e-57
7.17184e-58
6.04974e-59
5.02629e-60
4.11341e-61
3.31616e-62
2.6338e-63
2.061e-64
1.5891e-65
1.20735e-66
9.0397e-68
6.67028e-69
4.85099e-70
3.47729e-71
2.45698e-72
1.71135e-73
1.17512e-74
7.95517e-76
5.30971e-77
3.49439e-78
2.26764e-79
1.45112e-80
9.15758e-82
5.70182e-83
3.50525e-84
2.12756e-85
1.27495e-86
7.54306e-88
4.40593e-89
2.54074e-90
1.4465e-91
8.13036e-93
4.51165e-94
2.47171e-95
1.3369e-96
7.13909e-98
3.76387e-99
1.9592e-100
1.0069e-101
5.10925e-103
2.5598e-104
1.26631e-105
6.18544e-107
2.98336e-108
1.42088e-109
6.68243e-111
3.10349e-112
1.42337e-113
6.44682e-115
2.88369e-116
1.27391e-117
5.55816e-119
2.39517e-120
1.01945e-121
4.28589e-123
1.77979e-124
7.30072e-126
2.95833e-127
1.1842e-128
4.68289e-130
1.82949e-131
7.06134e-133
2.69277e-134
1.01457e-135
3.77702e-137
1.38936e-138
5.05002e-140
1.81384e-141
6.4379e-143
2.25811e-144
7.82731e-146
2.6814e-147
9.07831e-149
3.03777e-150
1.00467e-151
3.28414e-153
1.06111e-154
3.38881e-156
1.06978e-157
3.33813e-159
1.02964e-160
3.13933e-162
9.46152e-164
2.81872e-165
8.30039e-167
2.41594e-168
6.95002e-170
1.9759e-171
5.55088e-173
1.54069e-174
4.22366e-176
1.14339e-177
3.05415e-179
8.04809e-181
2.08817e-182
5.33519e-184
1.33636e-185
3.29062e-187
4.08476e-26
1.35087e-24
2.81676e-23
4.3521e-22
5.31037e-21
5.40446e-20
4.83115e-19
3.94403e-18
2.99364e-17
2.11434e-16
1.38334e-15
8.36694e-15
4.68338e-14
2.43176e-13
1.17331e-12
5.23503e-12
2.16242e-11
6.66997e-11
1.53173e-10
2.69899e-10
3.70551e-10
4.20776e-10
4.0029e-10
3.22543e-10
2.26912e-10
1.41219e-10
7.86906e-11
3.96361e-11
1.82027e-11
7.67869e-12
3.00922e-12
1.09817e-12
3.74742e-13
1.20099e-13
3.62912e-14
1.03769e-14
2.81667e-15
7.27911e-16
1.79577e-16
4.2394e-17
9.59851e-18
2.08847e-18
4.37505e-19
8.83906e-20
1.72495e-20
3.25626e-21
5.95396e-22
1.05577e-22
1.8176e-23
3.04119e-24
4.95025e-25
7.84578e-26
1.21181e-26
1.82538e-27
2.68355e-28
3.85294e-29
5.40599e-30
7.41671e-31
9.95493e-32
1.30791e-32
1.68282e-33
2.12136e-34
2.62112e-35
3.17561e-36
3.77394e-37
4.40087e-38
5.03733e-39
5.6612e-40
6.24866e-41
6.77562e-42
7.21941e-43
7.56039e-44
7.78341e-45
7.8789e-46
7.84353e-47
7.68039e-48
7.39863e-49
7.01263e-50
6.54085e-51
6.00438e-52
5.42546e-53
4.82602e-54
4.22644e-55
3.6445e-56
3.09471e-57
2.58799e-58
2.13158e-59
1.72932e-60
1.38203e-61
1.08809e-62
8.43999e-64
6.45041e-65
4.85766e-66
3.6049e-67
2.6364e-68
1.90026e-69
1.34996e-70
9.45289e-72
6.52483e-73
4.43978e-74
2.97829e-75
1.96975e-76
1.28444e-77
8.25854e-79
5.23603e-80
3.27484e-81
2.02215e-82
1.2327e-83
7.41848e-85
4.40737e-86
2.58493e-87
1.49665e-88
8.55448e-90
4.82694e-91
2.68879e-92
1.4786e-93
8.02705e-95
4.30209e-96
2.27628e-97
1.18905e-98
6.13213e-100
3.12225e-101
1.56956e-102
7.79022e-104
3.81765e-105
1.84725e-106
8.82576e-108
4.16374e-109
1.9397e-110
8.92309e-112
4.05359e-113
1.81852e-114
8.05688e-116
3.5253e-117
1.52343e-118
6.50214e-120
2.74103e-121
1.14132e-122
4.69414e-124
1.90708e-125
7.65353e-127
3.03424e-128
1.18836e-129
4.59802e-131
1.75765e-132
6.63816e-134
2.47703e-135
9.13264e-137
3.32705e-138
1.19766e-139
4.26022e-141
1.49751e-142
5.20188e-144
1.78574e-145
6.05833e-147
2.03133e-148
6.73151e-150
2.20475e-151
7.13728e-153
2.28372e-154
7.22264e-156
2.25788e-157
6.97692e-159
2.13101e-160
6.43381e-162
1.92002e-163
5.66358e-165
1.65123e-166
4.75806e-168
1.35496e-169
3.81274e-171
1.06001e-172
2.91078e-174
7.89335e-176
2.11227e-177
5.57717e-179
1.45057e-180
3.71711e-182
9.35607e-184
2.32e-185
2.43681e-24
9.24721e-23
2.05768e-21
3.27966e-20
4.11646e-19
4.33319e-18
3.9929e-17
3.29782e-16
2.46434e-15
1.67116e-14
1.03095e-13
5.80515e-13
2.99467e-12
1.41993e-11
6.1979e-11
2.48329e-10
9.24003e-10
2.61185e-09
5.54424e-09
9.14955e-09
1.1821e-08
1.29251e-08
1.18214e-08
9.23357e-09
6.32496e-09
3.85499e-09
2.11331e-09
1.0519e-09
4.78735e-10
2.00332e-10
7.80638e-11
2.84199e-11
9.69327e-12
3.11011e-12
9.42228e-13
2.70444e-13
7.37683e-14
1.91753e-14
4.76206e-15
1.1325e-15
2.58458e-16
5.67144e-17
1.19873e-17
2.44446e-18
4.81647e-19
9.1825e-20
1.69602e-20
3.03845e-21
5.28562e-22
8.93714e-23
1.47017e-23
2.35493e-24
3.67604e-25
5.59631e-26
8.3147e-27
1.20642e-27
1.71049e-28
2.37117e-29
3.21558e-30
4.268e-31
5.54708e-32
7.06271e-33
8.813e-34
1.07818e-34
1.29369e-35
1.52297e-36
1.75961e-37
1.99586e-38
2.2231e-39
2.4323e-40
2.61464e-41
2.76213e-42
2.86818e-43
2.92811e-44
2.93947e-45
2.9022e-46
2.81861e-47
2.69313e-48
2.53197e-49
2.34259e-50
2.13316e-51
1.91203e-52
1.68716e-53
1.46573e-54
1.2538e-55
1.05615e-56
8.76155e-58
7.15864e-59
5.76117e-60
4.56725e-61
3.56693e-62
2.7445e-63
2.0806e-64
1.55418e-65
1.14401e-66
8.29861e-68
5.93267e-69
4.18017e-70
2.90311e-71
1.98739e-72
1.34115e-73
8.92226e-75
5.85192e-76
3.7842e-77
2.41281e-78
1.5175e-79
9.42153e-81
5.77423e-82
3.49332e-83
2.08618e-84
1.22979e-85
7.15607e-87
4.11043e-88
2.33061e-89
1.30444e-90
7.20705e-92
3.93071e-93
2.11628e-94
1.12478e-95
5.90147e-97
3.05678e-98
1.56309e-99
7.891e-101
3.93295e-102
1.93532e-103
9.40254e-105
4.51034e-106
2.13627e-107
9.99077e-109
4.61369e-110
2.10387e-111
9.47377e-113
4.21282e-114
1.85005e-115
8.0236e-117
3.43671e-118
1.45385e-119
6.07452e-121
2.5069e-122
1.0219e-123
4.11471e-125
1.63662e-126
6.43051e-128
2.49603e-129
9.57134e-131
3.62603e-132
1.35719e-133
5.01895e-135
1.83385e-136
6.62077e-138
2.3619e-139
8.32596e-141
2.9003e-142
9.98392e-144
3.39642e-145
1.14187e-146
3.79401e-148
1.24589e-149
4.04364e-151
1.29714e-152
4.1127e-154
1.28886e-155
3.99235e-157
1.22235e-158
3.69924e-160
1.10655e-161
3.27166e-163
9.56066e-165
2.76126e-166
7.88126e-168
2.22281e-169
6.19403e-171
1.70488e-172
4.6343e-174
1.24335e-175
3.2918e-177
8.59022e-179
2.20953e-180
5.59284e-182
1.39591e-183
1.71511e-22
6.91051e-21
1.57762e-19
2.5583e-18
3.2618e-17
3.46161e-16
3.16128e-15
2.53059e-14
1.79505e-13
1.13719e-12
6.47726e-12
3.3361e-11
1.56087e-10
6.65702e-10
2.5922e-09
9.21686e-09
3.0399e-08
7.81697e-08
1.52857e-07
2.35683e-07
2.88239e-07
3.03768e-07
2.68302e-07
2.04149e-07
1.36618e-07
8.17748e-08
4.42159e-08
2.18038e-08
9.86337e-09
4.1072e-09
1.59425e-09
5.80174e-10
1.98153e-10
6.37604e-11
1.9397e-11
5.59686e-12
1.53618e-12
4.02143e-13
1.0065e-13
2.41383e-14
5.55828e-15
1.23119e-15
2.62785e-16
5.41319e-17
1.07773e-17
2.07657e-18
3.87704e-19
7.02206e-20
1.23508e-20
2.11163e-21
3.51258e-22
5.68961e-23
8.98111e-24
1.38256e-24
2.07704e-25
3.04709e-26
4.36784e-27
6.12112e-28
8.39086e-29
1.12566e-29
1.47854e-30
1.90228e-31
2.39834e-32
2.96418e-33
3.59266e-34
4.27163e-35
4.98398e-36
5.70812e-37
6.41902e-38
7.08955e-39
7.6922e-40
8.20098e-41
8.5933e-42
8.85162e-43
8.96472e-44
8.92853e-45
8.74632e-46
8.42833e-47
7.99084e-48
7.45482e-49
6.84434e-50
6.18484e-51
5.50146e-52
4.81753e-53
4.15349e-54
3.52602e-55
2.94767e-56
2.42679e-57
1.9678e-58
1.57166e-59
1.23651e-60
9.58366e-62
7.31793e-63
5.50553e-64
4.08124e-65
2.98124e-66
2.14604e-67
1.52246e-68
1.06449e-69
7.336e-71
4.98332e-72
3.33694e-73
2.20278e-74
1.43354e-75
9.19799e-77
5.82127e-78
3.6365e-79
2.24225e-80
1.36462e-81
8.19717e-83
4.86007e-84
2.84413e-85
1.6428e-86
9.36598e-88
5.27058e-89
2.92756e-90
1.60509e-91
8.68658e-93
4.64043e-94
2.44702e-95
1.27378e-96
6.54547e-98
3.32036e-99
1.6628e-100
8.22084e-102
4.01259e-103
1.93365e-104
9.20004e-106
4.32186e-107
2.00463e-108
9.18112e-110
4.15208e-111
1.85421e-112
8.17691e-114
3.561e-115
1.53151e-116
6.50503e-118
2.72881e-119
1.1306e-120
4.62666e-122
1.87011e-123
7.4666e-125
2.94475e-126
1.14725e-127
4.41538e-129
1.67878e-130
6.30594e-132
2.34018e-133
8.58045e-135
3.10845e-136
1.11267e-137
3.93543e-139
1.37542e-140
4.75015e-142
1.62116e-143
5.46764e-145
1.8224e-146
6.00305e-148
1.9543e-149
6.28806e-151
1.99966e-152
6.28514e-154
1.95256e-155
5.99549e-157
1.81962e-158
5.45842e-160
1.61838e-161
4.74253e-163
1.37352e-164
3.93121e-166
1.11183e-167
3.1069e-169
8.57612e-171
2.33806e-172
6.29254e-174
1.6715e-175
4.37898e-177
1.13132e-178
2.88038e-180
7.23721e-182
1.30765e-20
5.38998e-19
1.23802e-17
2.00289e-16
2.51926e-15
2.59619e-14
2.26173e-13
1.69921e-12
1.11662e-11
6.48839e-11
3.36226e-10
1.56385e-09
6.55979e-09
2.48988e-08
8.56724e-08
2.6803e-07
7.72765e-07
1.79808e-06
3.23257e-06
4.64977e-06
5.43067e-06
5.52189e-06
4.73924e-06
3.53562e-06
2.32408e-06
1.3718e-06
7.33947e-07
3.59675e-07
1.62253e-07
6.74764e-08
2.61656e-08
9.54074e-09
3.27034e-09
1.05748e-09
3.23646e-10
9.40382e-11
2.60124e-11
6.86753e-12
1.73451e-12
4.1999e-13
9.7686e-14
2.18645e-14
4.71712e-15
9.82434e-16
1.978e-16
3.85484e-17
7.2805e-18
1.33404e-18
2.37396e-19
4.10664e-20
6.9118e-21
1.13277e-21
1.80915e-22
2.81769e-23
4.28244e-24
6.35533e-25
9.21485e-26
1.30611e-26
1.81066e-27
2.45623e-28
3.26193e-29
4.2427e-30
5.40686e-31
6.75385e-32
8.2721e-33
9.93772e-34
1.17139e-34
1.35518e-35
1.53918e-36
1.71672e-37
1.88077e-38
2.02441e-39
2.14136e-40
2.22636e-41
2.27564e-42
2.28713e-43
2.26066e-44
2.19788e-45
2.10215e-46
1.97823e-47
1.83188e-48
1.66948e-49
1.49755e-50
1.32233e-51
1.14949e-52
9.83825e-54
8.29123e-55
6.88091e-56
5.62386e-57
4.5271e-58
3.58951e-59
2.80357e-60
2.15715e-61
1.6352e-62
1.22127e-63
8.98739e-65
6.5172e-66
4.65718e-67
3.27978e-68
2.27643e-69
1.55731e-70
1.05011e-71
6.98004e-73
4.57371e-74
2.95454e-75
1.88259e-76
1.18389e-77
7.34774e-79
4.50067e-80
2.72072e-81
1.6232e-82
9.55754e-84
5.55404e-85
3.18542e-86
1.80311e-87
1.00735e-88
5.55458e-90
3.02302e-91
1.6239e-92
8.61018e-94
4.50623e-95
2.32795e-96
1.18714e-97
5.976e-99
2.9697e-100
1.45687e-101
7.05579e-103
3.37366e-104
1.59258e-105
7.42262e-107
3.41574e-108
1.55202e-109
6.9632e-111
3.08485e-112
1.34955e-113
5.8302e-115
2.48736e-116
1.04801e-117
4.36094e-119
1.79225e-120
7.27506e-122
2.9168e-123
1.15512e-124
4.51868e-126
1.74613e-127
6.66552e-129
2.51363e-130
9.36472e-132
3.44689e-133
1.25347e-134
4.50372e-136
1.59886e-137
5.60853e-139
1.94401e-140
6.65848e-142
2.25367e-143
7.53802e-145
2.49166e-146
8.13949e-148
2.6278e-149
8.38466e-151
2.64414e-152
8.24134e-154
2.5388e-155
7.73004e-157
2.32625e-158
6.91907e-160
2.03398e-161
5.90931e-163
1.69666e-164
4.81375e-166
1.34946e-167
3.73716e-169
1.02227e-170
2.7611e-172
7.36226e-174
1.93709e-175
5.02884e-177
1.28797e-178
3.25823e-180
9.93153e-19
4.08599e-17
9.21325e-16
1.44434e-14
1.73447e-13
1.6822e-12
1.36266e-11
9.42781e-11
5.66133e-10
2.98611e-09
1.39577e-08
5.81877e-08
2.17343e-07
7.29646e-07
2.20674e-06
6.04155e-06
1.50779e-05
3.16604e-05
5.23071e-05
7.01696e-05
7.91853e-05
7.77115e-05
6.53456e-05
4.81701e-05
3.1354e-05
1.83621e-05
9.76381e-06
4.77244e-06
2.15506e-06
8.98537e-07
3.4948e-07
1.28043e-07
4.41656e-08
1.43858e-08
4.43898e-09
1.30134e-09
3.63422e-10
9.69197e-11
2.47382e-11
6.05588e-12
1.4245e-12
3.22539e-13
7.04095e-14
1.48406e-14
3.02434e-15
5.96645e-16
1.1408e-16
2.11632e-17
3.81293e-18
6.678e-19
1.13794e-19
1.88808e-20
3.05267e-21
4.81281e-22
7.40391e-23
1.11207e-23
1.63178e-24
2.34037e-25
3.28263e-26
4.50484e-27
6.05138e-28
7.96032e-29
1.02585e-29
1.29561e-30
1.60422e-31
1.94804e-32
2.32067e-33
2.71296e-34
3.11325e-35
3.50783e-36
3.88178e-37
4.21983e-38
4.50742e-39
4.73176e-40
4.88277e-41
4.95382e-42
4.9422e-43
4.84931e-44
4.68042e-45
4.44426e-46
4.15223e-47
3.81757e-48
3.45436e-49
3.07661e-50
2.69742e-51
2.32829e-52
1.9787e-53
1.65583e-54
1.36453e-55
1.10742e-56
8.85201e-58
6.9695e-59
5.40535e-60
4.12989e-61
3.10866e-62
2.30546e-63
1.68469e-64
1.21307e-65
8.60763e-67
6.01919e-68
4.14835e-69
2.81788e-70
1.8867e-71
1.2452e-72
8.10139e-74
5.19919e-75
3.29269e-76
2.05779e-77
1.26908e-78
7.72341e-80
4.6384e-81
2.74896e-82
1.60773e-83
9.27921e-85
5.28525e-86
2.97089e-87
1.64809e-88
9.02316e-90
4.87562e-91
2.60019e-92
1.36866e-93
7.11067e-95
3.6464e-96
1.84574e-97
9.22229e-99
4.54866e-100
2.21471e-101
1.06452e-102
5.05137e-104
2.36643e-105
1.09452e-106
4.99819e-108
2.2536e-109
1.0033e-110
4.41048e-112
1.91453e-113
8.2068e-115
3.47404e-116
1.45232e-117
5.99612e-119
2.44498e-120
9.84671e-122
3.91684e-123
1.53894e-124
5.97266e-126
2.28975e-127
8.67153e-129
3.24421e-130
1.19906e-131
4.37832e-133
1.57952e-134
5.62996e-136
1.98273e-137
6.89949e-139
2.37234e-140
8.06041e-142
2.70627e-143
8.97911e-145
2.94411e-146
9.53992e-148
3.05504e-149
9.66896e-151
3.02442e-152
9.34993e-154
2.85683e-155
8.62721e-157
2.57493e-158
7.5956e-160
2.21436e-161
6.37975e-163
1.81635e-164
5.10974e-166
1.42017e-167
3.89914e-169
1.05726e-170
2.83083e-172
7.48266e-174
1.95256e-175
5.03077e-177
1.28126e-178
6.66123e-17
2.67031e-15
5.75276e-14
8.50049e-13
9.53805e-12
8.58368e-11
6.40358e-10
4.05197e-09
2.21185e-08
1.05454e-07
4.43063e-07
1.65086e-06
5.47922e-06
1.62498e-05
4.31934e-05
0.000103387
0.000222927
0.000421949
0.000640703
0.000805177
0.000883295
0.000842602
0.000700173
0.000514582
0.000335055
0.000196536
0.000104538
5.11932e-05
2.32401e-05
9.75764e-06
3.8243e-06
1.41299e-06
4.9196e-07
1.61867e-07
5.04824e-08
1.49655e-08
4.22798e-09
1.14104e-09
2.94814e-10
7.30722e-11
1.74068e-11
3.99202e-12
8.82776e-13
1.88505e-13
3.8921e-14
7.77981e-15
1.5072e-15
2.833e-16
5.17155e-17
9.17668e-18
1.5842e-18
2.66277e-19
4.36091e-20
6.96368e-21
1.08492e-21
1.65013e-22
2.45156e-23
3.55963e-24
5.05384e-25
7.01938e-26
9.54179e-27
1.26998e-27
1.65568e-28
2.1151e-29
2.64858e-30
3.25217e-31
3.91697e-32
4.62887e-33
5.36876e-34
6.11314e-35
6.83532e-36
7.50695e-37
8.09987e-38
8.58809e-39
8.94971e-40
9.16849e-41
9.23511e-42
9.14778e-43
8.91228e-44
8.54133e-45
8.05354e-46
7.4719e-47
6.82199e-48
6.13024e-49
5.42223e-50
4.72125e-51
4.04721e-52
3.41598e-53
2.83905e-54
2.32362e-55
1.87295e-56
1.48692e-57
1.16273e-58
8.95646e-60
6.7965e-61
5.08107e-62
3.7426e-63
2.71623e-64
1.94251e-65
1.36896e-66
9.5076e-68
6.50776e-69
4.39033e-70
2.9194e-71
1.91357e-72
1.23729e-73
7.89375e-75
4.96914e-76
3.08647e-77
1.89159e-78
1.14388e-79
6.82542e-81
4.01863e-82
2.33472e-83
1.33847e-84
7.57201e-86
4.22716e-87
2.3288e-88
1.26612e-89
6.7934e-91
3.59733e-92
1.88004e-93
9.69752e-95
4.93712e-96
2.48096e-97
1.23059e-98
6.02511e-100
2.91201e-101
1.38934e-102
6.54379e-104
3.04276e-105
1.39682e-106
6.33087e-108
2.83302e-109
1.25175e-110
5.46107e-112
2.35262e-113
1.00081e-114
4.2043e-116
1.74419e-117
7.14611e-119
2.89158e-120
1.1556e-121
4.5614e-123
1.77839e-124
6.84874e-126
2.60532e-127
9.79031e-129
3.63438e-130
1.33284e-131
4.829e-133
1.72854e-134
6.11311e-136
2.13608e-137
7.37501e-139
2.51599e-140
8.48148e-142
2.82529e-143
9.3003e-145
3.02541e-146
9.72604e-148
3.09004e-149
9.70231e-151
3.01077e-152
9.23376e-154
2.79885e-155
8.38456e-157
2.48244e-158
7.26381e-160
2.10051e-161
6.00257e-163
1.69501e-164
4.72921e-166
1.30359e-167
3.54948e-169
9.54591e-171
2.53548e-172
6.65148e-174
1.72403e-175
4.42005e-177
3.4184e-15
1.30475e-13
2.65876e-12
3.68716e-11
3.83206e-10
3.16359e-09
2.15767e-08
1.24624e-07
6.1937e-07
2.67784e-06
1.01513e-05
3.39375e-05
0.000100483
0.000264382
0.000620491
0.00130459
0.00245825
0.00416926
0.00580896
0.00691697
0.00741218
0.00694918
0.00576376
0.00427018
0.00281182
0.00167376
0.000899788
0.000444151
0.000203717
8.65779e-05
3.43717e-05
1.28623e-05
4.53675e-06
1.51268e-06
4.78195e-07
1.43718e-07
4.11684e-08
1.12665e-08
2.95209e-09
7.42085e-10
1.79293e-10
4.17052e-11
9.35426e-12
2.026e-12
4.2428e-13
8.60145e-14
1.68999e-14
3.22138e-15
5.96294e-16
1.07283e-16
1.87764e-17
3.19924e-18
5.31065e-19
8.59431e-20
1.35679e-20
2.09081e-21
3.14671e-22
4.62776e-23
6.65386e-24
9.35769e-25
1.2878e-25
1.73498e-26
2.28918e-27
2.95915e-28
3.74899e-29
4.65657e-30
5.67235e-31
6.77857e-32
7.94908e-33
9.14996e-34
1.03409e-34
1.14774e-35
1.25134e-36
1.34044e-37
1.41109e-38
1.4601e-39
1.48529e-40
1.48565e-41
1.46141e-42
1.41398e-43
1.34584e-44
1.26032e-45
1.16136e-46
1.05317e-47
9.39998e-49
8.25844e-50
7.14258e-51
6.0819e-52
5.09906e-53
4.20963e-54
3.42244e-55
2.7403e-56
2.16105e-57
1.67867e-58
1.28449e-59
9.68257e-61
7.19069e-62
5.26137e-63
3.79317e-64
2.69468e-65
1.88643e-66
1.30144e-67
8.84887e-69
5.92997e-70
3.91703e-71
2.55245e-72
1.64092e-73
1.04073e-74
6.51206e-76
4.02003e-77
2.44838e-78
1.47122e-79
8.72228e-81
5.10211e-82
2.94473e-83
1.67698e-84
9.42345e-86
5.22517e-87
2.85898e-88
1.54368e-89
8.22525e-91
4.32514e-92
2.24453e-93
1.14958e-94
5.81102e-96
2.89923e-97
1.42772e-98
6.93987e-100
3.32981e-101
1.57712e-102
7.37398e-104
3.40367e-105
1.55101e-106
6.97787e-108
3.09946e-109
1.35931e-110
5.88627e-112
2.51689e-113
1.06269e-114
4.43086e-116
1.8244e-117
7.41853e-119
2.97921e-120
1.18164e-121
4.62894e-123
1.79107e-124
6.84526e-126
2.58423e-127
9.6372e-129
3.5503e-130
1.29208e-131
4.64556e-133
1.65016e-134
5.79123e-136
2.00809e-137
6.87987e-139
2.32903e-140
7.79077e-142
2.5752e-143
8.41158e-145
2.71515e-146
8.66102e-148
2.73033e-149
8.50627e-151
2.61908e-152
7.96983e-154
2.39686e-155
7.12409e-157
2.09269e-158
6.07518e-160
1.74292e-161
4.94133e-163
1.38429e-164
3.83176e-166
1.04792e-167
2.83133e-169
7.55794e-171
1.99352e-172
5.19803e-174
1.34137e-175
1.16264e-13
4.1448e-12
7.83303e-11
1.00678e-09
9.74443e-09
7.51057e-08
4.75951e-07
2.53385e-06
1.15244e-05
4.5355e-05
0.000155871
0.000470611
0.00125361
0.00295752
0.00620586
0.011625
0.0194681
0.0293951
0.0376719
0.0431091
0.0454072
0.0427199
0.0357688
0.0270486
0.0182704
0.0111857
0.00617765
0.00310492
0.00144758
0.000626565
0.00025348
9.65344e-05
3.46394e-05
1.17479e-05
3.77683e-06
1.15413e-06
3.36087e-07
9.34851e-08
2.48932e-08
6.35832e-09
1.56075e-09
3.68801e-10
8.40218e-11
1.84821e-11
3.93041e-12
8.09052e-13
1.6138e-13
3.1225e-14
5.86617e-15
1.071e-15
1.90182e-16
3.28721e-17
5.53454e-18
9.08289e-19
1.45389e-19
2.27123e-20
3.46463e-21
5.16356e-22
7.52232e-23
1.07169e-23
1.4938e-24
2.03801e-25
2.72259e-26
3.56273e-27
4.5684e-28
5.74213e-29
7.07703e-30
8.55524e-31
1.01471e-31
1.18114e-32
1.34968e-33
1.51437e-34
1.66883e-35
1.80662e-36
1.92174e-37
2.00901e-38
2.06448e-39
2.08575e-40
2.07208e-41
2.0245e-42
1.94563e-43
1.83949e-44
1.71113e-45
1.56631e-46
1.411e-47
1.25107e-48
1.09192e-49
9.38185e-51
7.93637e-52
6.61039e-53
5.42176e-54
4.3792e-55
3.48358e-56
2.72937e-57
2.10637e-58
1.60131e-59
1.19925e-60
8.84839e-62
6.43233e-63
4.60731e-64
3.25183e-65
2.2617e-66
1.55022e-67
1.04719e-68
6.97308e-70
4.58023e-71
2.96765e-72
1.89672e-73
1.19583e-74
7.43732e-76
4.56304e-77
2.76181e-78
1.64909e-79
9.71444e-81
5.64579e-82
3.23726e-83
1.83142e-84
1.02227e-85
5.63028e-87
3.05978e-88
1.64082e-89
8.68272e-91
4.5341e-92
2.33658e-93
1.18834e-94
5.9647e-96
2.95485e-97
1.44478e-98
6.97264e-100
3.32157e-101
1.5619e-102
7.25013e-104
3.32227e-105
1.50292e-106
6.71227e-108
2.95971e-109
1.28852e-110
5.53876e-112
2.35088e-113
9.85283e-115
4.07775e-116
1.66658e-117
6.72655e-119
2.68125e-120
1.05555e-121
4.10419e-123
1.57617e-124
5.97892e-126
2.24027e-127
8.29187e-129
3.03175e-130
1.09507e-131
3.90758e-133
1.37756e-134
4.79804e-136
1.65114e-137
5.61411e-139
1.88613e-140
6.2614e-142
2.05395e-143
6.65797e-145
2.13274e-146
6.75135e-148
2.11207e-149
6.52981e-151
1.99515e-152
6.02469e-154
1.79798e-155
5.30302e-157
1.54578e-158
4.453e-160
1.26773e-161
3.5666e-163
9.91576e-165
2.72416e-166
7.39568e-168
1.98432e-169
5.26283e-171
1.38044e-172
3.58511e-174
2.14533e-12
7.27167e-11
1.29818e-09
1.56489e-08
1.41761e-07
1.0196e-06
6.01031e-06
2.97661e-05
0.000125972
0.000460381
0.00146326
0.00406828
0.00995187
0.0215371
0.0413128
0.0703165
0.104274
0.134401
0.159251
0.17948
0.189042
0.188803
0.163664
0.126216
0.0905524
0.0572779
0.0332836
0.0173284
0.00828311
0.00367785
0.00152639
0.000594825
0.000218224
7.56106e-05
2.48158e-05
7.7367e-06
2.29721e-06
6.51207e-07
1.76642e-07
4.5944e-08
1.14802e-08
2.76061e-09
6.39863e-10
1.43159e-10
3.09581e-11
6.47855e-12
1.31346e-12
2.58247e-13
4.92895e-14
9.14026e-15
1.6482e-15
2.8923e-16
4.94284e-17
8.23195e-18
1.3369e-18
2.1185e-19
3.27741e-20
4.95267e-21
7.31423e-22
1.05615e-22
1.49176e-23
2.06194e-24
2.79016e-25
3.69762e-26
4.80079e-27
6.10868e-28
7.62025e-29
9.32207e-30
1.11868e-30
1.31726e-31
1.52239e-32
1.72735e-33
1.92461e-34
2.10625e-35
2.26454e-36
2.39245e-37
2.4842e-38
2.53565e-39
2.54467e-40
2.51122e-41
2.43735e-42
2.32699e-43
2.18562e-44
2.01985e-45
1.83686e-46
1.644e-47
1.44824e-48
1.25585e-49
1.0721e-50
9.01096e-52
7.45736e-53
6.07731e-54
4.87736e-55
3.85511e-56
3.00123e-57
2.30144e-58
1.73848e-59
1.29371e-60
9.48471e-62
6.85114e-63
4.87615e-64
3.41972e-65
2.36337e-66
1.60961e-67
1.08073e-68
7.15672e-70
4.67429e-71
3.01113e-72
1.91322e-73
1.19903e-74
7.41209e-76
4.51963e-77
2.71851e-78
1.613e-79
9.44123e-81
5.45161e-82
3.10553e-83
1.74533e-84
9.6775e-86
5.2943e-87
2.85778e-88
1.52209e-89
7.99938e-91
4.14854e-92
2.12311e-93
1.07227e-94
5.34449e-96
2.62903e-97
1.2764e-98
6.11646e-100
2.89301e-101
1.35068e-102
6.22484e-104
2.83198e-105
1.27191e-106
5.63957e-108
2.46873e-109
1.06698e-110
4.55315e-112
1.91848e-113
7.98195e-115
3.27932e-116
1.33045e-117
5.33051e-119
2.10917e-120
8.24224e-122
3.18115e-123
1.21267e-124
4.56607e-126
1.69822e-127
6.23903e-129
2.26425e-130
8.11771e-132
2.87514e-133
1.00604e-134
3.47792e-136
1.18791e-137
4.0089e-139
1.33677e-140
4.40443e-142