/*--------------------------------*- C++ -*----------------------------------*\
  =========                 |
  \\      /  F ield         | OpenFOAM: The Open Source CFD Toolbox
   \\    /   O peration     | Website:  https://openfoam.org
    \\  /    A nd           | Version:  9
     \\/     M anipulation  |
\*---------------------------------------------------------------------------*/
FoamFile
{
    format      ascii;
    class       volSymmTensorField;
    location    "0.004";
    object      UPrime2Mean;
}
// * * * * * * * * * * * * * * * * * * * * * * * * * * * * * * * * * * * * * //

dimensions      [0 2 -2 0 0 0 0];

internalField   nonuniform List<symmTensor> 
12225
(
(-49.1962 -0.375851 0 0.000648011 0 0)
(-45.9103 -0.370811 0 -0.000979637 0 0)
(-42.8684 -0.303674 0 -0.000867622 0 0)
(-40.2388 -0.277413 0 -0.000851698 0 0)
(-37.7909 -0.278261 0 -0.0010339 0 0)
(-35.2803 -0.288603 0 -0.00123189 0 0)
(-32.8823 -0.287257 0 -0.00104486 0 0)
(-30.5417 -0.271272 0 -0.00102267 0 0)
(-28.6387 -0.248194 0 -3.28597e-05 0 0)
(-26.7711 -0.210316 0 -0.000325204 0 0)
(-25.4571 -0.206587 0 0.00130074 0 0)
(-23.8633 -0.14475 0 0.000170894 0 0)
(-22.9662 -0.20417 0 0.00463997 0 0)
(-21.4607 -0.0526514 0 0.0018401 0 0)
(-20.7669 -0.295584 0 0.0197527 0 0)
(-19.1219 0.125332 0 0.0142194 0 0)
(-17.6504 -0.801348 0 0.130037 0 0)
(-14.2909 0.208823 0 0.0369455 0 0)
(-49.841 -0.151407 0 0.00220644 0 0)
(-50.2857 -0.31935 0 -0.00137795 0 0)
(-50.4097 -0.342596 0 -0.00193327 0 0)
(-50.514 -0.343601 0 -0.00182858 0 0)
(-50.62 -0.359461 0 -0.00178784 0 0)
(-50.6736 -0.372441 0 -0.00147458 0 0)
(-50.7594 -0.381647 0 -0.00118557 0 0)
(-50.779 -0.365381 0 -0.00013074 0 0)
(-50.8908 -0.339494 0 9.90703e-05 0 0)
(-50.8364 -0.310157 0 0.00217235 0 0)
(-50.9694 -0.271967 0 0.00175754 0 0)
(-50.7578 -0.268017 0 0.00632455 0 0)
(-50.9905 -0.198671 0 0.00438702 0 0)
(-50.5642 -0.24926 0 0.0162083 0 0)
(-50.9936 -0.108114 0 0.010296 0 0)
(-50.1045 -0.309932 0 0.049688 0 0)
(-50.4595 -0.233809 0 0.0537163 0 0)
(-48.5352 -1.04489 0 0.333977 0 0)
(-50.4113 -0.238119 0 0.00131483 0 0)
(-50.469 -0.311961 0 -0.000916208 0 0)
(-50.5559 -0.321531 0 -0.00142088 0 0)
(-50.7152 -0.315738 0 -0.00133941 0 0)
(-50.9387 -0.313391 0 -0.00105168 0 0)
(-51.2534 -0.312655 0 -0.000670525 0 0)
(-51.6223 -0.310447 0 0.000176191 0 0)
(-51.9861 -0.294465 0 0.000808238 0 0)
(-52.2826 -0.281244 0 0.00269143 0 0)
(-52.5323 -0.248718 0 0.00324782 0 0)
(-52.714 -0.244096 0 0.00729883 0 0)
(-52.9299 -0.190307 0 0.00741991 0 0)
(-53.1051 -0.201442 0 0.0171547 0 0)
(-53.3639 -0.109051 0 0.0162691 0 0)
(-53.5093 -0.170362 0 0.0446414 0 0)
(-53.6437 -0.108828 0 0.0556829 0 0)
(-53.5092 -0.375391 0 0.180738 0 0)
(-53.0891 -0.947127 0 0.500746 0 0)
(-49.7195 -0.1072 0 0.00343898 0 0)
(-49.7381 -0.26352 0 0.00065205 0 0)
(-49.9512 -0.303407 0 -0.000443225 0 0)
(-50.3178 -0.298665 0 -0.000298854 0 0)
(-50.6583 -0.28651 0 0.000190136 0 0)
(-50.9646 -0.281017 0 0.00090683 0 0)
(-51.2525 -0.28465 0 0.00178728 0 0)
(-51.5109 -0.285216 0 0.00344132 0 0)
(-51.7404 -0.27093 0 0.00509005 0 0)
(-51.9463 -0.249856 0 0.00821829 0 0)
(-52.1631 -0.207805 0 0.0109857 0 0)
(-52.4066 -0.175666 0 0.0170395 0 0)
(-52.6943 -0.116591 0 0.0230393 0 0)
(-53.0007 -0.0897532 0 0.0374771 0 0)
(-53.2828 -0.0608261 0 0.0603382 0 0)
(-53.4965 -0.109709 0 0.114851 0 0)
(-53.5614 -0.332309 0 0.260397 0 0)
(-53.5674 -0.755364 0 0.572018 0 0)
(-50.3522 -0.153011 0 0.00323135 0 0)
(-50.2931 -0.247608 0 0.00130869 0 0)
(-50.387 -0.275201 0 0.000398239 0 0)
(-50.7336 -0.258268 0 0.000412086 0 0)
(-51.106 -0.226455 0 0.000860105 0 0)
(-51.438 -0.19956 0 0.00159088 0 0)
(-51.7374 -0.184025 0 0.00285186 0 0)
(-52.0064 -0.172666 0 0.00449002 0 0)
(-52.2366 -0.165756 0 0.00726091 0 0)
(-52.4358 -0.146827 0 0.0106022 0 0)
(-52.6189 -0.123602 0 0.0161802 0 0)
(-52.8162 -0.0809097 0 0.0232691 0 0)
(-53.031 -0.0410412 0 0.035481 0 0)
(-53.2688 -0.00227185 0 0.0551982 0 0)
(-53.4925 0.0106966 0 0.0922198 0 0)
(-53.7019 -0.0582914 0 0.173861 0 0)
(-53.8621 -0.229017 0 0.334083 0 0)
(-54.1196 -0.650023 0 0.714662 0 0)
(-49.3855 -0.101469 0 0.00447319 0 0)
(-49.6603 -0.198508 0 0.00226225 0 0)
(-50.0895 -0.234271 0 0.00117692 0 0)
(-50.6121 -0.217322 0 0.00151848 0 0)
(-50.9723 -0.198156 0 0.00241023 0 0)
(-51.1555 -0.200532 0 0.00380362 0 0)
(-51.2615 -0.217523 0 0.00585147 0 0)
(-51.3847 -0.233245 0 0.00889717 0 0)
(-51.5592 -0.23318 0 0.013226 0 0)
(-51.7792 -0.209228 0 0.0190777 0 0)
(-52.0211 -0.160723 0 0.0268485 0 0)
(-52.2859 -0.0941717 0 0.0375078 0 0)
(-52.5634 -0.0221158 0 0.0538021 0 0)
(-52.8673 0.0393648 0 0.0810109 0 0)
(-53.17 0.0654774 0 0.131354 0 0)
(-53.5078 0.0277922 0 0.22857 0 0)
(-53.8639 -0.109921 0 0.415904 0 0)
(-54.3867 -0.399209 0 0.784293 0 0)
(-50.5043 0.0177723 0 0.00305465 0 0)
(-50.4286 -0.0825217 0 0.00221482 0 0)
(-50.3556 -0.137887 0 0.00177354 0 0)
(-50.4326 -0.143579 0 0.00196074 0 0)
(-50.503 -0.13473 0 0.00270983 0 0)
(-50.5292 -0.117725 0 0.00406091 0 0)
(-50.5689 -0.0939985 0 0.00614229 0 0)
(-50.6973 -0.0674658 0 0.00916254 0 0)
(-50.946 -0.0443856 0 0.0136429 0 0)
(-51.2998 -0.0224574 0 0.020383 0 0)
(-51.7071 0.00914247 0 0.0301038 0 0)
(-52.1285 0.0532241 0 0.0447084 0 0)
(-52.5219 0.11192 0 0.0663343 0 0)
(-52.8901 0.163869 0 0.102598 0 0)
(-53.2147 0.196945 0 0.163654 0 0)
(-53.5551 0.174076 0 0.275997 0 0)
(-53.9267 0.0905473 0 0.47001 0 0)
(-54.4775 -0.0741625 0 0.806856 0 0)
(-50.0908 -0.0809552 0 0.00575184 0 0)
(-50.3325 -0.172878 0 0.00269065 0 0)
(-50.5411 -0.228175 0 0.00130306 0 0)
(-50.853 -0.224603 0 0.00241277 0 0)
(-51.1191 -0.219065 0 0.00447323 0 0)
(-51.2753 -0.220862 0 0.0072524 0 0)
(-51.3479 -0.213312 0 0.0110437 0 0)
(-51.4076 -0.187088 0 0.0161257 0 0)
(-51.5093 -0.13913 0 0.0227341 0 0)
(-51.6745 -0.071957 0 0.0313661 0 0)
(-51.8897 0.00725145 0 0.0430999 0 0)
(-52.1453 0.0893436 0 0.0605287 0 0)
(-52.4192 0.167483 0 0.0873013 0 0)
(-52.7202 0.230537 0 0.131445 0 0)
(-53.0413 0.276481 0 0.20279 0 0)
(-53.4347 0.287835 0 0.32355 0 0)
(-53.9132 0.279826 0 0.513459 0 0)
(-54.5833 0.245698 0 0.814733 0 0)
(-51.5646 0.148677 0 0.00250115 0 0)
(-51.4303 0.0495935 0 0.00187194 0 0)
(-51.3405 -0.020765 0 0.00199218 0 0)
(-51.5094 -0.0487133 0 0.00270453 0 0)
(-51.7733 -0.0533154 0 0.0042346 0 0)
(-52.0158 -0.0391188 0 0.00665934 0 0)
(-52.2371 -0.013305 0 0.0102104 0 0)
(-52.4592 0.0198525 0 0.0153315 0 0)
(-52.6657 0.0628332 0 0.0225194 0 0)
(-52.829 0.115565 0 0.0327165 0 0)
(-52.9276 0.175223 0 0.0473554 0 0)
(-52.9777 0.239715 0 0.0691408 0 0)
(-53.0067 0.311234 0 0.101265 0 0)
(-53.0794 0.383737 0 0.150851 0 0)
(-53.224 0.457055 0 0.226103 0 0)
(-53.5128 0.51813 0 0.344811 0 0)
(-53.9339 0.583624 0 0.519545 0 0)
(-54.5784 0.653091 0 0.777438 0 0)
(-50.551 -0.0120042 0 0.00628323 0 0)
(-50.4633 -0.174101 0 0.0039064 0 0)
(-50.4228 -0.2018 0 0.00423241 0 0)
(-50.5484 -0.183486 0 0.00604567 0 0)
(-50.6755 -0.166474 0 0.00894111 0 0)
(-50.7651 -0.154659 0 0.0131996 0 0)
(-50.8492 -0.138374 0 0.0191073 0 0)
(-50.9496 -0.112024 0 0.0271023 0 0)
(-51.0717 -0.0769952 0 0.0379423 0 0)
(-51.2187 -0.0336566 0 0.0529094 0 0)
(-51.3846 0.0237744 0 0.0732736 0 0)
(-51.5728 0.0996689 0 0.101342 0 0)
(-51.7869 0.198652 0 0.139496 0 0)
(-52.05 0.316894 0 0.193348 0 0)
(-52.376 0.45442 0 0.268547 0 0)
(-52.7932 0.599652 0 0.378262 0 0)
(-53.321 0.767829 0 0.528658 0 0)
(-53.9803 0.956978 0 0.737006 0 0)
(-48.916 0.152951 0 0.00753344 0 0)
(-48.8963 0.115388 0 0.00505754 0 0)
(-49.0515 0.0382693 0 0.00374069 0 0)
(-49.4054 -0.0304954 0 0.0046254 0 0)
(-49.7603 -0.0375466 0 0.00731046 0 0)
(-50.0863 0.00556872 0 0.0108888 0 0)
(-50.4377 0.06326 0 0.0156276 0 0)
(-50.8343 0.114763 0 0.022703 0 0)
(-51.2383 0.162089 0 0.0330899 0 0)
(-51.6093 0.215827 0 0.047836 0 0)
(-51.9275 0.283199 0 0.0682295 0 0)
(-52.2157 0.367455 0 0.0965975 0 0)
(-52.4984 0.471225 0 0.135489 0 0)
(-52.8265 0.59657 0 0.189578 0 0)
(-53.2122 0.74716 0 0.262828 0 0)
(-53.6966 0.922898 0 0.363828 0 0)
(-54.2468 1.13723 0 0.493825 0 0)
(-54.902 1.39042 0 0.66328 0 0)
(-50.1999 0.00381205 0 0.00618024 0 0)
(-49.8172 -0.00127774 0 0.00805603 0 0)
(-49.5614 -0.0505437 0 0.00940553 0 0)
(-49.7579 -0.0792051 0 0.0113853 0 0)
(-50.1605 -0.0669175 0 0.0146387 0 0)
(-50.5109 -0.0211185 0 0.0192532 0 0)
(-50.7081 0.0319215 0 0.0257482 0 0)
(-50.7692 0.075214 0 0.0351343 0 0)
(-50.7596 0.108002 0 0.0485224 0 0)
(-50.7576 0.141513 0 0.0672318 0 0)
(-50.8151 0.192153 0 0.0924619 0 0)
(-50.966 0.278631 0 0.125177 0 0)
(-51.2088 0.413435 0 0.165419 0 0)
(-51.5591 0.596758 0 0.215281 0 0)
(-51.9725 0.82124 0 0.27682 0 0)
(-52.47 1.07412 0 0.357451 0 0)
(-52.9674 1.35454 0 0.457809 0 0)
(-53.5377 1.66066 0 0.586285 0 0)
(-50.9288 0.0521792 0 0.00691735 0 0)
(-50.7859 0.0864753 0 0.00593598 0 0)
(-50.7774 0.0648377 0 0.00558805 0 0)
(-50.9908 0.0693829 0 0.00714395 0 0)
(-51.1691 0.116825 0 0.0100903 0 0)
(-51.1944 0.157451 0 0.0147512 0 0)
(-51.1027 0.170487 0 0.0221659 0 0)
(-50.9726 0.173082 0 0.0330381 0 0)
(-50.8728 0.193814 0 0.0477691 0 0)
(-50.8545 0.252115 0 0.0665375 0 0)
(-50.9369 0.355812 0 0.0891252 0 0)
(-51.1168 0.500147 0 0.116522 0 0)
(-51.3569 0.675831 0 0.150311 0 0)
(-51.6365 0.871177 0 0.194531 0 0)
(-51.9103 1.08332 0 0.251287 0 0)
(-52.1999 1.30944 0 0.3258 0 0)
(-52.4689 1.56286 0 0.414877 0 0)
(-52.7967 1.85217 0 0.521916 0 0)
(-50.6765 -0.00908022 0 0.0062195 0 0)
(-50.7569 0.0483269 0 0.00693715 0 0)
(-50.7697 0.0493156 0 0.00909917 0 0)
(-50.8267 -0.00927609 0 0.0127775 0 0)
(-50.7585 -0.0616962 0 0.0183725 0 0)
(-50.5503 -0.0771083 0 0.0266239 0 0)
(-50.3146 -0.0558863 0 0.0374628 0 0)
(-50.1667 -0.00767369 0 0.0509976 0 0)
(-50.1544 0.0615707 0 0.0678384 0 0)
(-50.2603 0.154451 0 0.0887489 0 0)
(-50.4329 0.276308 0 0.114082 0 0)
(-50.6207 0.430225 0 0.144422 0 0)
(-50.7945 0.61729 0 0.179708 0 0)
(-50.9536 0.834739 0 0.221429 0 0)
(-51.1196 1.08339 0 0.269142 0 0)
(-51.3124 1.36114 0 0.325357 0 0)
(-51.5588 1.67696 0 0.385763 0 0)
(-51.8474 2.03061 0 0.452753 0 0)
(-50.1752 0.221062 0 0.0117411 0 0)
(-50.057 0.249166 0 0.00866727 0 0)
(-49.846 0.118151 0 0.0062867 0 0)
(-49.8335 0.0210719 0 0.00949446 0 0)
(-49.9329 -0.00963296 0 0.015879 0 0)
(-50.0436 0.0144833 0 0.0239794 0 0)
(-50.1429 0.0774952 0 0.0336211 0 0)
(-50.2641 0.169141 0 0.0450352 0 0)
(-50.4445 0.283935 0 0.0586283 0 0)
(-50.6995 0.416517 0 0.0753461 0 0)
(-51.0148 0.561741 0 0.0963793 0 0)
(-51.3576 0.720018 0 0.12301 0 0)
(-51.6976 0.897088 0 0.155371 0 0)
(-52.0146 1.10158 0 0.193637 0 0)
(-52.3035 1.34051 0 0.235765 0 0)
(-52.5561 1.61849 0 0.281409 0 0)
(-52.7838 1.9382 0 0.325502 0 0)
(-52.9709 2.29943 0 0.368617 0 0)
(-50.0761 -0.0688267 0 0.0071842 0 0)
(-49.7765 -0.0225385 0 0.00619395 0 0)
(-49.5738 -0.0171411 0 0.00795859 0 0)
(-49.6847 -0.0131131 0 0.0127056 0 0)
(-49.9105 -0.0196197 0 0.0196662 0 0)
(-50.0962 -0.0194884 0 0.0292281 0 0)
(-50.2321 0.0132461 0 0.0413963 0 0)
(-50.3412 0.093795 0 0.055317 0 0)
(-50.4362 0.219593 0 0.0701638 0 0)
(-50.5316 0.379326 0 0.0860172 0 0)
(-50.6434 0.560996 0 0.103596 0 0)
(-50.7818 0.759333 0 0.123872 0 0)
(-50.9526 0.972964 0 0.147113 0 0)
(-51.1546 1.20687 0 0.173403 0 0)
(-51.3824 1.46507 0 0.201011 0 0)
(-51.6169 1.75438 0 0.22905 0 0)
(-51.8476 2.07779 0 0.252718 0 0)
(-52.0467 2.43736 0 0.271969 0 0)
(-49.5628 0.294899 0 0.00814843 0 0)
(-49.4651 0.139338 0 0.00546193 0 0)
(-49.276 0.0999048 0 0.00624245 0 0)
(-49.3273 0.120895 0 0.0107088 0 0)
(-49.5104 0.152408 0 0.0170681 0 0)
(-49.7353 0.189437 0 0.0253546 0 0)
(-49.9878 0.249012 0 0.0352633 0 0)
(-50.264 0.340203 0 0.0463984 0 0)
(-50.5556 0.459789 0 0.0587506 0 0)
(-50.8542 0.60768 0 0.0721584 0 0)
(-51.1529 0.786518 0 0.0858847 0 0)
(-51.4405 0.99896 0 0.0990495 0 0)
(-51.7081 1.24002 0 0.111015 0 0)
(-51.9451 1.50633 0 0.12171 0 0)
(-52.1446 1.78925 0 0.1308 0 0)
(-52.2917 2.08953 0 0.13824 0 0)
(-52.3869 2.39987 0 0.142263 0 0)
(-52.4125 2.72717 0 0.142711 0 0)
(-50.4177 -0.148352 0 0.0121927 0 0)
(-50.294 -0.0314414 0 0.0133813 0 0)
(-50.1416 0.0164067 0 0.0126572 0 0)
(-50.3279 0.0575478 0 0.0147142 0 0)
(-50.6977 0.136709 0 0.0183225 0 0)
(-51.014 0.241916 0 0.0227404 0 0)
(-51.1999 0.357418 0 0.0281661 0 0)
(-51.3069 0.482955 0 0.0346136 0 0)
(-51.3925 0.62604 0 0.0415332 0 0)
(-51.4788 0.793004 0 0.0481428 0 0)
(-51.5647 0.98038 0 0.0541627 0 0)
(-51.6463 1.1789 0 0.0602726 0 0)
(-51.7115 1.37694 0 0.0675559 0 0)
(-51.7577 1.57174 0 0.0767606 0 0)
(-51.771 1.76371 0 0.087235 0 0)
(-51.7573 1.96602 0 0.0976615 0 0)
(-51.6961 2.18237 0 0.105017 0 0)
(-51.6063 2.42985 0 0.107026 0 0)
(-50.4495 0.256408 0 0.0132626 0 0)
(-50.2989 0.365115 0 0.0108673 0 0)
(-50.235 0.407567 0 0.00650292 0 0)
(-50.2849 0.444717 0 0.00676149 0 0)
(-50.3079 0.478066 0 0.00931152 0 0)
(-50.2422 0.48693 0 0.0136889 0 0)
(-50.1049 0.486739 0 0.0200863 0 0)
(-49.9513 0.518844 0 0.0278054 0 0)
(-49.8193 0.609353 0 0.0347698 0 0)
(-49.7195 0.756594 0 0.0389119 0 0)
(-49.6452 0.943687 0 0.0395067 0 0)
(-49.5852 1.15567 0 0.0368199 0 0)
(-49.5274 1.37925 0 0.0315784 0 0)
(-49.4647 1.60806 0 0.0244993 0 0)
(-49.3893 1.83269 0 0.0164035 0 0)
(-49.2962 2.05503 0 0.00745585 0 0)
(-49.1753 2.26905 0 -0.00242911 0 0)
(-49.024 2.48474 0 -0.0140529 0 0)
(-50.0842 0.0198046 0 0.00894182 0 0)
(-49.8653 -0.0109177 0 0.0126458 0 0)
(-49.6648 0.0497253 0 0.0142978 0 0)
(-49.7186 0.0999631 0 0.0163726 0 0)
(-49.9052 0.119739 0 0.0197699 0 0)
(-50.1086 0.13276 0 0.0247941 0 0)
(-50.2877 0.17866 0 0.0306936 0 0)
(-50.4421 0.283175 0 0.0355049 0 0)
(-50.5709 0.443245 0 0.0373892 0 0)
(-50.6532 0.638487 0 0.0359757 0 0)
(-50.6622 0.845508 0 0.0322255 0 0)
(-50.5856 1.04749 0 0.0275962 0 0)
(-50.4354 1.23228 0 0.0234905 0 0)
(-50.2331 1.39717 0 0.0206924 0 0)
(-50.0024 1.5413 0 0.0193793 0 0)
(-49.7589 1.67439 0 0.0189407 0 0)
(-49.5128 1.80004 0 0.0184593 0 0)
(-49.2666 1.93261 0 0.0167622 0 0)
(-49.734 0.183322 0 0.0115961 0 0)
(-49.4153 0.204534 0 0.00624176 0 0)
(-49.125 0.314399 0 0.00188558 0 0)
(-49.0638 0.428044 0 -0.000309684 0 0)
(-49.1605 0.503639 0 -0.000627631 0 0)
(-49.3083 0.549538 0 0.000541361 0 0)
(-49.4041 0.59098 0 0.00241971 0 0)
(-49.4284 0.642297 0 0.00445721 0 0)
(-49.4103 0.70398 0 0.00652586 0 0)
(-49.3667 0.774339 0 0.00860917 0 0)
(-49.2946 0.855066 0 0.0104513 0 0)
(-49.1918 0.952245 0 0.0114006 0 0)
(-49.0644 1.06976 0 0.0106257 0 0)
(-48.9202 1.20945 0 0.00738582 0 0)
(-48.7653 1.3654 0 0.00144068 0 0)
(-48.6003 1.53269 0 -0.00695329 0 0)
(-48.4261 1.70142 0 -0.0172361 0 0)
(-48.2369 1.86924 0 -0.0287146 0 0)
(-51.0291 -0.0957626 0 0.00989768 0 0)
(-50.6805 0.056447 0 0.00905354 0 0)
(-50.4598 0.103908 0 0.00759696 0 0)
(-50.4051 0.188842 0 0.0065025 0 0)
(-50.3626 0.276175 0 0.00572896 0 0)
(-50.2859 0.333956 0 0.0063432 0 0)
(-50.192 0.369561 0 0.00812353 0 0)
(-50.1127 0.41402 0 0.0102197 0 0)
(-50.0588 0.492016 0 0.0114426 0 0)
(-50.0121 0.6068 0 0.0107462 0 0)
(-49.9467 0.744343 0 0.00806835 0 0)
(-49.8467 0.888561 0 0.00414083 0 0)
(-49.7123 1.02646 0 -9.88512e-05 0 0)
(-49.5451 1.15449 0 -0.00420131 0 0)
(-49.3484 1.27053 0 -0.00800126 0 0)
(-49.1196 1.37892 0 -0.0116776 0 0)
(-48.8627 1.47922 0 -0.0153451 0 0)
(-48.5759 1.5766 0 -0.0192934 0 0)
(-51.2255 -0.0614633 0 0.00939685 0 0)
(-50.9815 0.161216 0 0.00497325 0 0)
(-50.6866 0.250348 0 0.00221131 0 0)
(-50.4893 0.267144 0 0.00181751 0 0)
(-50.3034 0.290239 0 0.00223061 0 0)
(-50.1277 0.358291 0 0.00205294 0 0)
(-49.9959 0.453428 0 0.000901616 0 0)
(-49.9176 0.541976 0 -0.000265702 0 0)
(-49.8719 0.61036 0 -0.000731769 0 0)
(-49.8117 0.66655 0 -0.000661329 0 0)
(-49.6894 0.724154 0 -0.000571526 0 0)
(-49.4876 0.793374 0 -0.00104399 0 0)
(-49.2259 0.876423 0 -0.00250089 0 0)
(-48.9401 0.972144 0 -0.00514602 0 0)
(-48.658 1.0758 0 -0.00893543 0 0)
(-48.3941 1.18353 0 -0.013599 0 0)
(-48.1466 1.29007 0 -0.018857 0 0)
(-47.9118 1.39239 0 -0.0242629 0 0)
(-49.707 -0.0766769 0 0.008205 0 0)
(-49.8209 -0.0549421 0 0.00631859 0 0)
(-49.8467 -0.00282453 0 0.00587688 0 0)
(-49.945 0.0624851 0 0.00577219 0 0)
(-49.9783 0.139799 0 0.00581853 0 0)
(-49.8852 0.233119 0 0.00533901 0 0)
(-49.706 0.332481 0 0.00417417 0 0)
(-49.5167 0.421382 0 0.00292566 0 0)
(-49.3826 0.491166 0 0.00215127 0 0)
(-49.3226 0.545181 0 0.00191332 0 0)
(-49.3071 0.594814 0 0.00187074 0 0)
(-49.2878 0.653788 0 0.00146022 0 0)
(-49.2271 0.730546 0 5.96237e-05 0 0)
(-49.1034 0.826069 0 -0.00276585 0 0)
(-48.9079 0.93257 0 -0.0069633 0 0)
(-48.6392 1.04065 0 -0.0119781 0 0)
(-48.3104 1.13997 0 -0.0170455 0 0)
(-47.9292 1.22659 0 -0.0216428 0 0)
(-50.7234 0.163514 0 0.00599611 0 0)
(-50.7585 0.265638 0 0.00573856 0 0)
(-50.8523 0.287123 0 0.00387812 0 0)
(-51.1181 0.253106 0 0.00345566 0 0)
(-51.2854 0.213324 0 0.00380628 0 0)
(-51.2946 0.220125 0 0.00433826 0 0)
(-51.2303 0.289633 0 0.00378097 0 0)
(-51.1551 0.396601 0 0.00163256 0 0)
(-51.0769 0.506209 0 -0.00117707 0 0)
(-50.9759 0.599125 0 -0.00366101 0 0)
(-50.8309 0.670616 0 -0.005462 0 0)
(-50.6337 0.723215 0 -0.00663207 0 0)
(-50.3904 0.761863 0 -0.00735041 0 0)
(-50.1081 0.792923 0 -0.00782935 0 0)
(-49.793 0.821482 0 -0.00825344 0 0)
(-49.4447 0.85334 0 -0.00883333 0 0)
(-49.0712 0.889442 0 -0.00968422 0 0)
(-48.6744 0.934404 0 -0.0110838 0 0)
(-49.0929 -0.0310463 0 0.00667887 0 0)
(-48.967 0.0484344 0 0.00535238 0 0)
(-48.9331 0.114351 0 0.00273938 0 0)
(-49.1693 0.137587 0 0.002008 0 0)
(-49.4986 0.162598 0 0.00182492 0 0)
(-49.7657 0.221131 0 0.00123571 0 0)
(-49.9288 0.312161 0 -0.000339102 0 0)
(-50.0003 0.401872 0 -0.00219445 0 0)
(-49.9941 0.459936 0 -0.00329193 0 0)
(-49.9188 0.485413 0 -0.00361924 0 0)
(-49.7834 0.496708 0 -0.0036382 0 0)
(-49.5992 0.512784 0 -0.00371443 0 0)
(-49.3839 0.542837 0 -0.00411844 0 0)
(-49.1524 0.586979 0 -0.00500779 0 0)
(-48.914 0.639154 0 -0.00632201 0 0)
(-48.6674 0.693438 0 -0.00787441 0 0)
(-48.4109 0.744517 0 -0.00946352 0 0)
(-48.139 0.791078 0 -0.0109824 0 0)
(-49.7106 0.26037 0 0.00353014 0 0)
(-49.6899 0.348435 0 0.000239516 0 0)
(-49.7325 0.378116 0 -0.000994314 0 0)
(-49.978 0.350795 0 -0.00117511 0 0)
(-50.2197 0.317589 0 -0.00111925 0 0)
(-50.3384 0.316392 0 -0.00113537 0 0)
(-50.3161 0.35215 0 -0.00163003 0 0)
(-50.1943 0.405667 0 -0.00261382 0 0)
(-50.0259 0.455414 0 -0.00362591 0 0)
(-49.8461 0.492388 0 -0.00437721 0 0)
(-49.6674 0.518398 0 -0.00489702 0 0)
(-49.4847 0.538771 0 -0.00531232 0 0)
(-49.2908 0.557789 0 -0.00571778 0 0)
(-49.08 0.577757 0 -0.00616544 0 0)
(-48.8509 0.599306 0 -0.00667746 0 0)
(-48.6014 0.623143 0 -0.00727269 0 0)
(-48.336 0.648748 0 -0.00795665 0 0)
(-48.0557 0.677745 0 -0.00879608 0 0)
(-50.0567 -0.00947561 0 0.00347739 0 0)
(-49.585 0.143691 0 0.000997016 0 0)
(-49.1834 0.185801 0 -9.68426e-05 0 0)
(-49.1355 0.203282 0 -0.000473457 0 0)
(-49.2972 0.231825 0 -0.000760434 0 0)
(-49.4718 0.271226 0 -0.00116217 0 0)
(-49.5665 0.315853 0 -0.00171765 0 0)
(-49.58 0.355444 0 -0.00226194 0 0)
(-49.5366 0.381379 0 -0.00261551 0 0)
(-49.4553 0.39429 0 -0.00279593 0 0)
(-49.3483 0.40154 0 -0.00291099 0 0)
(-49.223 0.411226 0 -0.00306017 0 0)
(-49.087 0.427576 0 -0.00331332 0 0)
(-48.9442 0.450672 0 -0.0037017 0 0)
(-48.7977 0.47764 0 -0.00420288 0 0)
(-48.6407 0.505927 0 -0.00477115 0 0)
(-48.4722 0.533057 0 -0.00535452 0 0)
(-48.2816 0.55931 0 -0.00596951 0 0)
(-50.4531 0.203484 0 0.0013271 0 0)
(-50.8033 0.299014 0 -0.00111674 0 0)
(-50.9515 0.31307 0 -0.00161413 0 0)
(-51.044 0.323081 0 -0.00184091 0 0)
(-51.0438 0.338431 0 -0.00205409 0 0)
(-50.9256 0.352016 0 -0.00223993 0 0)
(-50.7236 0.367727 0 -0.00244921 0 0)
(-50.4986 0.38792 0 -0.00272916 0 0)
(-50.2793 0.408471 0 -0.00303272 0 0)
(-50.0553 0.425621 0 -0.00329969 0 0)
(-49.7972 0.438771 0 -0.00351421 0 0)
(-49.4827 0.45006 0 -0.00370518 0 0)
(-49.1021 0.461212 0 -0.00389938 0 0)
(-48.6677 0.473195 0 -0.00411587 0 0)
(-48.1913 0.48556 0 -0.00434962 0 0)
(-47.6962 0.498183 0 -0.00459847 0 0)
(-47.1818 0.510254 0 -0.0048424 0 0)
(-46.6721 0.522036 0 -0.00509004 0 0)
(-48.3866 0.15247 0 0.000730163 0 0)
(-46.5999 0.21913 0 -0.000502832 0 0)
(-44.7992 0.209939 0 -0.000569554 0 0)
(-43.1277 0.199249 0 -0.000505507 0 0)
(-41.5503 0.198033 0 -0.000491617 0 0)
(-39.9834 0.207259 0 -0.000574925 0 0)
(-38.369 0.225242 0 -0.000794328 0 0)
(-36.7151 0.243493 0 -0.00105185 0 0)
(-35.0651 0.251387 0 -0.00116761 0 0)
(-33.4698 0.244703 0 -0.0011078 0 0)
(-31.9636 0.227131 0 -0.000972603 0 0)
(-30.5601 0.206657 0 -0.000842801 0 0)
(-29.2459 0.190068 0 -0.000734904 0 0)
(-28.009 0.18055 0 -0.000656363 0 0)
(-26.8211 0.177851 0 -0.000619453 0 0)
(-25.6777 0.179593 0 -0.000620721 0 0)
(-24.5527 0.183529 0 -0.000647829 0 0)
(-23.4675 0.187156 0 -0.000684761 0 0)
(0.000695383 -0.00159317 4.86651e-23 0.00358043 -9.39704e-23 1.80809e-38)
(0.00782488 -0.00600958 -1.2715e-22 0.00453749 8.14512e-23 1.78261e-38)
(0.0235116 -0.0102435 0 0.0044458 0 0)
(0.0475403 -0.0144651 0 0.00439115 0 0)
(0.0797003 -0.0186119 0 0.00433554 0 0)
(0.120288 -0.0226876 4.12192e-22 0.00426277 -7.2185e-23 1.67871e-38)
(0.169078 -0.0266091 0 0.00416059 0 0)
(0.225962 -0.0303493 0 0.00403227 0 0)
(0.290451 -0.0338166 0 0.00386799 0 0)
(0.362154 -0.0369346 0 0.00366114 0 0)
(0.44036 -0.0396243 -7.02e-22 0.0034102 4.91465e-23 1.55458e-38)
(0.524068 -0.0417899 0 0.00311234 0 0)
(0.612173 -0.0433476 0 0.00276785 0 0)
(0.703554 -0.0441585 0 0.00236563 0 0)
(0.796478 -0.0442786 0 0.0019357 0 0)
(0.888981 -0.0434751 -8.20558e-22 0.00145464 1.34704e-23 1.43666e-38)
(0.979456 -0.0417812 0 0.000941806 0 0)
(1.06592 -0.0391758 0 0.000406886 0 0)
(1.14582 -0.035594 0 -0.000146098 0 0)
(1.21715 -0.0310472 0 -0.000707402 0 0)
(1.27789 -0.0257201 0 -0.00124914 0 0)
(1.32559 -0.0194804 0 -0.00178268 0 0)
(1.35847 -0.0125821 0 -0.00228015 0 0)
(1.37462 -0.00491116 -3.81983e-22 -0.00275374 -5.47247e-23 1.26054e-38)
(1.37257 0.00318917 2.64772e-22 -0.00317449 6.22281e-23 1.23957e-38)
(1.35082 0.0116242 -1.35417e-22 -0.00354044 -6.92873e-23 1.21883e-38)
(1.3086 0.0203066 5.23297e-24 -0.00385214 -7.56358e-23 1.19832e-38)
(1.2451 0.0290518 0 -0.00410379 0 0)
(1.15981 0.0377477 0 -0.00429659 0 0)
(1.05297 0.0462562 -4.82517e-22 -0.00443133 9.04649e-23 1.13813e-38)
(0.924792 0.0544464 -6.55198e-22 -0.00450982 9.39015e-23 1.11853e-38)
(0.775739 0.0622137 0 -0.00453585 0 0)
(0.606619 0.0694682 0 -0.00451411 0 0)
(0.418473 0.0761367 -1.19376e-21 -0.0044499 9.9741e-23 1.06119e-38)
(0.212541 0.0821632 0 -0.00434888 0 0)
(-0.00977872 0.0875088 0 -0.00421686 0 0)
(-0.246968 0.0921508 1.73329e-21 -0.00405954 -9.95891e-23 1.00603e-38)
(-0.497429 0.0960812 0 -0.00388243 0 0)
(-0.759515 0.0993053 2.07738e-21 -0.00369064 -9.68343e-23 9.70456e-39)
(-1.03156 0.10184 4.48387e-21 -0.00348883 -1.89672e-22 3.81212e-38)
(-1.31192 0.10371 0 -0.00328117 0 0)
(-1.59898 0.10495 0 -0.00307129 0 0)
(-1.89117 0.1056 0 -0.00286228 0 0)
(-2.187 0.105703 0 -0.00265673 0 0)
(-2.48506 0.105305 0 -0.00245673 0 0)
(-2.78404 0.104454 6.17905e-21 -0.00226392 -1.5528e-22 3.41369e-38)
(-3.08272 0.103198 6.40989e-21 -0.00207955 -1.48689e-22 3.35054e-38)
(-3.37999 0.101585 6.6256e-21 -0.00190451 -1.42053e-22 3.2883e-38)
(-3.67484 0.0996607 0 -0.00173938 0 0)
(-3.96636 0.0974691 -7.01249e-21 -0.00158448 1.28863e-22 3.16654e-38)
(-4.25374 0.0950521 0 -0.00143992 0 0)
(-4.53627 0.0924486 7.34227e-21 -0.00130563 -1.16064e-22 3.04835e-38)
(-4.81333 0.0896947 7.48685e-21 -0.0011814 -1.09892e-22 2.99057e-38)
(-5.0844 0.0868236 0 -0.00106692 0 0)
(-5.34903 0.0838654 0 -0.000961766 0 0)
(-5.60684 0.0808471 0 -0.000865496 0 0)
(-5.85754 0.0777931 7.9423e-21 -0.000777611 -8.71739e-23 2.76809e-38)
(-6.1009 0.0747248 0 -0.00069759 0 0)
(-6.33674 0.0716611 0 -0.000624908 0 0)
(-6.56492 0.0686183 0 -0.000559038 0 0)
(-6.78539 0.0656107 0 -0.000499465 0 0)
(-6.99811 0.0626502 0 -0.00044569 0 0)
(-7.20309 0.0597472 0 -0.000397236 0 0)
(-7.40035 0.0569098 0 -0.000353647 0 0)
(-7.58998 0.0541451 0 -0.000314497 0 0)
(-7.77207 0.0514585 -8.40194e-21 -0.000279383 4.90025e-23 2.3157e-38)
(-7.94672 0.0488544 0 -0.000247933 0 0)
(-8.11409 0.0463357 0 -0.000219801 0 0)
(-8.27431 0.0439049 8.43071e-21 -0.000194668 -3.9953e-23 2.17891e-38)
(-8.42754 0.0415631 8.43022e-21 -0.000172239 -3.7283e-23 2.13479e-38)
(-8.57397 0.0393112 0 -0.000152246 0 0)
(-8.71377 0.037149 -8.41623e-21 -0.000134444 3.24151e-23 2.04872e-38)
(-8.84713 0.0350762 8.40336e-21 -0.000118609 -3.02016e-23 2.00675e-38)
(-8.97425 0.0330917 0 -0.000104537 0 0)
(-9.09531 0.0311943 -8.36729e-21 -9.20448e-05 2.61774e-23 1.9249e-38)
(-9.21053 0.0293822 0 -8.09652e-05 0 0)
(-9.32009 0.0276536 0 -7.1148e-05 0 0)
(-9.4242 0.0260063 8.29116e-21 -6.2457e-05 -2.10426e-23 1.80721e-38)
(-9.52305 0.0244381 0 -5.47706e-05 0 0)
(-9.61685 0.0229465 -8.22828e-21 -4.79784e-05 1.81439e-23 1.73204e-38)
(-9.70578 0.0215292 0 -4.19824e-05 0 0)
(-9.79005 0.0201834 8.15747e-21 -3.66938e-05 -1.56096e-23 1.65941e-38)
(-9.86982 0.0189067 8.11949e-21 -3.20337e-05 -1.44657e-23 1.62404e-38)
(-9.94529 0.0176963 8.07999e-21 -2.79311e-05 -1.33974e-23 1.58927e-38)
(-10.0166 0.0165497 1.60782e-20 -2.43231e-05 -2.47997e-23 6.22044e-38)
(-10.0841 0.0154642 -1.59939e-20 -2.11528e-05 2.2938e-23 6.08617e-38)
(-10.1477 0.0144374 0 -1.83701e-05 0 0)
(-10.2077 0.0134666 0 -1.59302e-05 0 0)
(-10.2643 0.0125492 0 -1.37926e-05 0 0)
(-10.3176 0.0116829 -1.5636e-20 -1.19223e-05 1.66622e-23 5.57222e-38)
(-10.3677 0.0108655 -1.55423e-20 -1.02877e-05 1.53497e-23 5.44935e-38)
(-10.4149 0.0100942 1.54473e-20 -8.86e-06 -1.41292e-23 5.32866e-38)
(-10.4592 0.00936744 0 -7.61471e-06 0 0)
(-10.5008 0.00868509 -1.52538e-20 -6.53129e-06 1.19283e-23 5.09371e-38)
(-10.5398 0.00804388 -1.51556e-20 -5.58706e-06 1.09466e-23 4.97938e-38)
(-10.5764 0.00743963 -1.50565e-20 -4.76145e-06 1.00353e-23 4.8671e-38)
(-10.6106 0.00687149 0 -4.04018e-06 0 0)
(-10.6426 0.00632969 0 -3.40434e-06 0 0)
(-10.6725 0.00579354 0 -2.83207e-06 0 0)
(-10.7004 0.00525868 -1.46544e-20 -2.31853e-06 6.75328e-24 4.43797e-38)
(-10.7262 0.00473292 0 -1.86618e-06 0 0)
(-10.75 0.00418544 0 -1.45692e-06 0 0)
(-10.7719 0.00357619 1.43475e-20 -1.07967e-06 -4.15324e-24 4.13625e-38)
(-10.7916 0.00295144 0 -7.6045e-07 0 0)
(-10.8094 0.00239613 0 -5.18648e-07 0 0)
(-10.8253 0.00194617 1.40377e-20 -3.47363e-07 -2.46411e-24 3.85092e-38)
(-10.8396 0.00159808 0 -2.30805e-07 0 0)
(-10.8526 0.00133488 0 -1.54051e-07 0 0)
(-10.8644 0.00113325 -1.37281e-20 -1.0395e-07 1.58555e-24 3.58123e-38)
(-10.8752 0.00097113 -1.36255e-20 -7.02648e-08 1.37902e-24 3.49468e-38)
(-10.8849 0.000832741 0 -4.63464e-08 0 0)
(-10.8938 0.000708597 1.34211e-20 -2.84067e-08 -1.02735e-24 3.32646e-38)
(-10.9018 0.000594011 0 -1.45477e-08 0 0)
(-10.9091 0.000486813 -1.32182e-20 -3.77774e-09 7.30758e-25 3.16456e-38)
(-10.9156 0.000386224 0 4.44241e-09 0 0)
(-10.9214 0.000291796 -1.30171e-20 1.05192e-08 4.77135e-25 3.00879e-38)
(-10.9265 0.000203328 -1.29173e-20 1.47689e-08 3.64488e-25 2.93315e-38)
(-10.931 0.000120543 0 1.74825e-08 0 0)
(-10.935 4.31996e-05 0 1.89168e-08 0 0)
(-10.9383 -2.89732e-05 0 1.92975e-08 0 0)
(-10.9412 -9.62352e-05 0 1.88199e-08 0 0)
(-10.9436 -0.000158837 0 1.76517e-08 0 0)
(-10.9455 -0.000217034 0 1.59294e-08 0 0)
(-10.947 -0.000271147 0 1.37871e-08 0 0)
(-10.9481 -0.00032141 -1.21371e-20 1.13241e-08 -2.60344e-25 2.37861e-38)
(-10.9488 -0.000368108 1.20421e-20 8.64489e-09 3.11026e-25 2.31529e-38)
(-10.9491 -0.000411402 0 5.81395e-09 0 0)
(-10.9491 -0.000451539 0 2.90149e-09 0 0)
(-10.9488 -0.000488702 0 -5.40242e-11 0 0)
(-10.9482 -0.00052315 0 -3.00288e-09 0 0)
(-10.9473 -0.000555047 2.31517e-20 -5.92236e-09 1.00646e-24 8.06888e-38)
(-10.9462 -0.000584617 0 -8.77744e-09 0 0)
(-10.9448 -0.00061199 -2.2787e-20 -1.15589e-08 -1.11398e-24 7.6251e-38)
(-10.9432 -0.000637386 2.26065e-20 -1.42438e-08 1.15973e-24 7.41001e-38)
(-10.9413 -0.000660899 0 -1.68316e-08 0 0)
(-10.9393 -0.000682741 0 -1.93101e-08 0 0)
(-10.937 -0.000702976 0 -2.16827e-08 0 0)
(-10.9346 -0.000721824 -2.18966e-20 -2.39475e-08 -1.30178e-24 6.59324e-38)
(-10.932 -0.00073936 -2.17222e-20 -2.61042e-08 -1.32902e-24 6.3996e-38)
(-10.9292 -0.000755779 0 -2.81589e-08 0 0)
(-10.9263 -0.00077116 -2.1377e-20 -3.01106e-08 -1.37545e-24 6.02451e-38)
(-10.9232 -0.000785624 -2.12062e-20 -3.19761e-08 -1.39521e-24 5.84293e-38)
(-10.9199 -0.000799288 2.10366e-20 -3.37648e-08 1.41299e-24 5.66524e-38)
(-10.9165 -0.000812287 0 -3.54966e-08 0 0)
(-10.913 -0.000824773 0 -3.71815e-08 0 0)
(-10.9093 -0.000836896 2.0535e-20 -3.88389e-08 1.45692e-24 5.15487e-38)
(-10.9055 -0.000848805 0 -4.04835e-08 0 0)
(-10.9016 -0.000860685 0 -4.2143e-08 0 0)
(-10.8975 -0.000872736 0 -4.38443e-08 0 0)
(-10.8933 -0.000885208 0 -4.56262e-08 0 0)
(-10.889 -0.000898363 -1.97226e-20 -4.75291e-08 -1.5193e-24 4.37637e-38)
(-10.8845 -0.000912542 -1.95636e-20 -4.96098e-08 -1.53408e-24 4.23097e-38)
(-10.8799 -0.000928126 0 -5.19352e-08 0 0)
(-10.8751 -0.000945616 -1.9249e-20 -5.45963e-08 -1.57085e-24 3.95003e-38)
(-10.8701 -0.000965591 0 -5.7705e-08 0 0)
(-10.8649 -0.000988817 0 -6.1415e-08 0 0)
(-10.8595 -0.00101622 -1.87857e-20 -6.59251e-08 -1.65915e-24 3.55249e-38)
(-10.8539 -0.001049 0 -7.15109e-08 0 0)
(-10.8479 -0.00108865 -1.84824e-20 -7.85414e-08 -1.75827e-24 3.30279e-38)
(-10.8416 -0.00113712 0 -8.75386e-08 0 0)
(-10.8348 -0.00119684 0 -9.9231e-08 0 0)
(-10.8275 -0.00127106 -1.80357e-20 -1.14682e-07 -2.02299e-24 2.95029e-38)
(-10.8195 -0.00136376 0 -1.35417e-07 0 0)
(-10.8107 -0.00148065 -1.77433e-20 -1.63793e-07 -2.33621e-24 2.72945e-38)
(-10.8009 -0.00162789 0 -2.03177e-07 0 0)
(-10.7898 -0.00181708 0 -2.59434e-07 0 0)
(-10.777 -0.00205545 0 -3.40107e-07 0 0)
(-10.762 -0.00237088 1.71716e-20 -4.6194e-07 3.6827e-24 2.32025e-38)
(-10.7443 -0.00276869 0 -6.43234e-07 0 0)
(-10.7229 -0.003295 -1.68921e-20 -9.27287e-07 -5.08594e-24 2.13127e-38)
(-10.6964 -0.00405134 0 -1.41688e-06 0 0)
(-10.6641 -0.00475498 0 -2.0121e-06 0 0)
(-10.621 -0.00681647 0 -4.02124e-06 0 0)
(-10.5686 -0.00653945 0 -4.00936e-06 0 0)
(-10.4942 -0.0141567 0 -1.69663e-05 0 0)
(-10.3926 -0.00750347 0 -5.15162e-06 0 0)
(-10.2647 -0.0355571 0 -0.000109749 0 0)
(-10.0001 -0.00960063 3.15012e-20 -6.67422e-06 2.80726e-23 5.89697e-38)
(-9.77725 -0.116345 0 -0.00132255 0 0)
(-8.87775 -0.08356 0 -0.000781995 0 0)