/*--------------------------------*- C++ -*----------------------------------*\
  =========                 |
  \\      /  F ield         | OpenFOAM: The Open Source CFD Toolbox
   \\    /   O peration     | Website:  https://openfoam.org
    \\  /    A nd           | Version:  9
     \\/     M anipulation  |
\*---------------------------------------------------------------------------*/
FoamFile
{
    format      ascii;
    class       volScalarField;
    location    "0.052";
    object      nut;
}
// * * * * * * * * * * * * * * * * * * * * * * * * * * * * * * * * * * * * * //

dimensions      [0 2 -1 0 0 0 0];

internalField   nonuniform List<scalar> 
12225
(
0
0
0
0
0
0
0
0
0
0
0
0
0
0
0
0
0
0
0
0
0
0
0
0
0
0
0
0
0
0
0
0
0
0
0
0
0
0
0
0
0
0
2.06298e-10
0
0
0
0
0
0
0
0
0
0
0
0
0
0
0
0
2.77059e-09
6.0577e-09
3.73696e-09
0
0
0
0
0
0
0
0
0
0
3.25754e-08
0
0
0
0
0
1.30129e-07
3.0083e-07
6.13603e-07
8.58426e-07
4.10217e-08
0
8.81879e-08
1.02048e-07
4.92725e-08
2.26229e-08
5.099e-09
0
1.99851e-07
0
0
0
0
0
1.27576e-07
8.44979e-08
9.612e-08
0
0
0
0
0
0
0
0
0
1.91235e-07
0
0
1.45597e-07
2.72846e-07
2.94666e-07
2.38769e-07
6.8736e-08
0
0
0
0
0
0
0
0
0
0
0
0
0
0
1.31469e-07
2.95897e-07
2.10015e-07
9.35451e-08
0
0
0
0
1.43913e-07
1.70554e-07
2.34921e-07
4.83624e-07
1.45711e-07
0
0
0
0
0
0
0
4.42264e-08
8.87462e-08
6.92444e-08
0
0
8.14249e-07
1.39064e-06
1.28993e-06
1.039e-06
6.59555e-07
2.67184e-07
0
0
0
0
0
0
0
0
0
8.70745e-08
2.07506e-07
1.62814e-06
3.25682e-06
2.6072e-06
1.26945e-06
6.39225e-07
3.64331e-07
1.31184e-07
0
0
0
0
0
0
0
0
0
0
0
3.16344e-07
1.31075e-06
6.26305e-07
2.26331e-07
9.29126e-08
0
0
0
0
8.03242e-07
0
0
0
0
0
0
0
0
0
0
0
0
0
1.07111e-07
2.92676e-07
3.5305e-07
3.62487e-07
6.28835e-07
0
0
0
0
0
0
0
0
0
0
0
0
0
0
2.57133e-07
8.80163e-07
5.62787e-07
0
0
0
0
0
0
0
0
0
0
0
0
0
7.59193e-09
0
0
0
1.06575e-06
0
0
0
0
1.54353e-07
0
0
0
0
0
0
0
0
0
0
0
0
0
0
5.5747e-07
4.11923e-07
3.07932e-07
5.98501e-07
3.82692e-07
0
0
0
0
0
0
0
0
0
0
0
0
0
1.34506e-06
1.09876e-06
1.82629e-07
0
0
4.30783e-07
0
0
0
0
0
0
0
7.55042e-08
2.25704e-07
1.73836e-07
8.72802e-08
1.28327e-08
8.90265e-07
1.18657e-07
0
0
0
0
0
0
1.28157e-06
2.05007e-06
2.12387e-06
1.78569e-06
9.39196e-07
0
0
0
1.20288e-06
1.17458e-06
1.42631e-06
0
0
0
1.93948e-07
4.39664e-07
4.57464e-08
0
2.01124e-07
3.8424e-07
0
0
0
0
0
0
1.64932e-06
9.55035e-07
1.35653e-07
1.16812e-06
2.28922e-06
1.44114e-06
1.00001e-06
5.3155e-07
0
0
0
0
0
0
0
0
0
0
0
0
0
0
3.38712e-06
3.60572e-06
2.72503e-06
1.36937e-06
0
0
0
0
0
0
0
0
0
0
0
0
0
0
0
9.81688e-08
1.80515e-06
1.18734e-06
0
0
0
0
0
0
0
0
0
0
4.66753e-07
0
0
0
0
0
5.03381e-07
1.00151e-06
0
0
0
0
0
0
0
0
0
0
7.44755e-07
0
0
0
0
0
1.13052e-06
0
0
0
8.88448e-07
0
0
0
0
0
0
0
0
0
0
0
0
9.0421e-08
1.34015e-07
0
0
9.87394e-07
1.24326e-06
1.60048e-07
0
0
0
0
0
0
0
0
0
0
0
0
0
0
0
8.24705e-08
2.96341e-07
0
0
0
0
0
0
0
8.64431e-08
1.50599e-08
0
0
0
0
0
0
0
0
0
0
0
0
0
0
0
0
1.48217e-09
0
0
0
0
0
0
0
0
0
0
0
0
0
0
0
0
0
1.02926e-09
0
0
0
0
0
0
0
0
0
0
0
0
0
0
0
0
0
1.18004e-09
0
0
0
0
0
0
0
0
0
0
0
0
0
0
0
0
0
0
1.85873e-06
3.36684e-06
0
0
9.27323e-07
4.96685e-06
3.5271e-06
0
0
0
0
1.42922e-06
7.50786e-06
1.38986e-05
1.61438e-05
1.25858e-05
7.23158e-06
2.91857e-06
6.03274e-08
0
0
0
0
0
0
0
0
0
0
0
0
0
0
0
0
0
0
0
0
0
0
0
0
0
0
2.18046e-05
3.62153e-05
3.67176e-05
3.00053e-05
2.09957e-05
1.08177e-05
1.0519e-07
0
0
0
0
0
0
0
0
2.6774e-06
7.71829e-06
6.59253e-06
6.89712e-06
2.22501e-05
5.89514e-05
9.55099e-05
0.000100377
7.87941e-05
3.99243e-05
1.33744e-05
3.81028e-06
9.05853e-07
1.39682e-07
2.28673e-08
7.31041e-08
1.47003e-07
2.08349e-07
2.52682e-07
2.83512e-07
3.0321e-07
3.14625e-07
3.19505e-07
3.16377e-07
3.08219e-07
2.91418e-07
2.7028e-07
2.46983e-07
2.13721e-07
1.8588e-07
1.52103e-07
1.19524e-07
9.22239e-08
6.41547e-08
3.95435e-08
1.64972e-08
0
0
0
0
0
0
0
0
0
0
0
0
0
0
0
0
0
0
0
0
0
0
0
0
0
0
0
0
0
0
0
0
0
0
0
0
0
0
0
0
0
0
1.80314e-09
2.6805e-09
2.54509e-09
1.51507e-09
0
0
0
0
0
0
0
0
0
0
0
0
0
0
0
0
0
0
0
0
0
0
0
0
0
0
0
0
0
0
3.54911e-10
1.3754e-09
1.82885e-09
1.22467e-09
8.72441e-10
2.11621e-09
0
0
0
0
0
0
2.51233e-06
1.03906e-05
1.05015e-05
8.09291e-06
7.72871e-06
7.4253e-06
6.52157e-06
6.10099e-06
5.30241e-06
4.4465e-06
3.6596e-06
2.87554e-06
2.09386e-06
1.33907e-06
6.17684e-07
0
0
0
0
0
0
0
0
0
0
0
0
0
0
0
0
0
0
0
0
0
0
0
0
0
0
4.01892e-06
2.13031e-05
3.10269e-05
3.36945e-05
3.03062e-05
1.99125e-05
2.16959e-06
0
0
0
0
0
0
0
0
0
8.52794e-06
1.47095e-05
2.71795e-05
3.60611e-05
3.42283e-05
2.73722e-05
2.09669e-05
1.52512e-05
9.78394e-06
5.61195e-06
3.05922e-06
1.61886e-06
9.20104e-07
6.38271e-07
5.36374e-07
4.97184e-07
4.77713e-07
4.63144e-07
4.48708e-07
4.31715e-07
4.12892e-07
3.92316e-07
3.6777e-07
3.43233e-07
3.13228e-07
2.84961e-07
2.55485e-07
2.23377e-07
1.9505e-07
1.63863e-07
1.33997e-07
1.05503e-07
7.68777e-08
4.91031e-08
2.19359e-08
0
0
0
0
0
0
0
0
0
0
0
0
0
0
0
0
0
0
0
0
0
0
0
0
0
0
0
0
0
0
0
0
0
0
0
0
0
0
0
0
0
0
0
0
0
0
0
0
0
0
0
0
0
0
0
0
0
0
0
0
0
0
0
0
0
0
0
0
0
0
0
0
0
0
0
0
1.67425e-09
1.06959e-08
1.47211e-08
1.29096e-08
8.75722e-09
1.48966e-08
0
2.30072e-06
5.08468e-06
0
0
0
0
2.3953e-06
6.88499e-06
8.09976e-06
6.44043e-06
3.36034e-06
1.24578e-06
3.94916e-07
1.8594e-08
0
0
0
0
0
0
0
0
0
0
0
0
0
0
0
9.62634e-08
2.95776e-07
4.34771e-07
4.96866e-07
4.52321e-07
2.91532e-07
0
0
0
0
0
0
0
0
0
0
0
0
0
0
0
0
0
0
0
0
0
0
0
0
0
0
0
5.42802e-06
6.86724e-06
3.41226e-06
2.45962e-06
2.89605e-06
3.21658e-06
3.20045e-06
3.46437e-06
3.54043e-06
3.18422e-06
3.0323e-06
3.42181e-06
3.97914e-06
4.16223e-06
3.88674e-06
3.42663e-06
2.97651e-06
2.60275e-06
2.29576e-06
2.0278e-06
1.80138e-06
1.58333e-06
1.36314e-06
1.16947e-06
9.92069e-07
8.2896e-07
7.00649e-07
5.79176e-07
4.78266e-07
3.83364e-07
3.02055e-07
2.29663e-07
1.64803e-07
1.06972e-07
5.43572e-08
2.96714e-09
0
0
0
0
0
0
0
0
0
0
0
0
0
0
0
0
0
0
0
0
0
0
0
0
0
0
0
0
0
0
0
0
0
0
7.28954e-10
4.92691e-09
2.25951e-09
0
0
0
0
0
0
0
0
0
0
7.26196e-09
2.5614e-08
3.73747e-08
4.01162e-08
3.48247e-08
2.71128e-08
2.21474e-08
1.9192e-08
1.21928e-08
1.06441e-10
0
0
0
0
0
0
0
0
0
0
0
0
0
7.12553e-10
0
0
0
0
0
2.06812e-08
3.27825e-08
3.67413e-08
1.97162e-08
4.15882e-08
0
9.82418e-06
1.50022e-05
6.58673e-07
0
0
0
0
1.52179e-06
2.87506e-06
3.56585e-06
2.79746e-06
1.12937e-06
9.40419e-08
0
0
0
0
0
0
0
0
0
0
0
0
0
0
0
2.27912e-07
5.09373e-07
7.76792e-07
1.01217e-06
1.1922e-06
1.32936e-06
1.40874e-06
1.37769e-06
1.22359e-06
9.89517e-07
5.0444e-07
0
0
0
4.49033e-07
1.45043e-06
2.34622e-06
1.81163e-06
0
0
0
0
0
0
0
0
1.9767e-06
1.05094e-05
1.51014e-05
1.07177e-05
1.97464e-06
0
0
0
2.32654e-06
3.18313e-06
2.24583e-06
1.4791e-06
1.26331e-06
1.25432e-06
1.28032e-06
1.78938e-06
2.86403e-06
4.18138e-06
4.38161e-06
3.21797e-06
2.17762e-06
1.53391e-06
1.17342e-06
9.73076e-07
8.68765e-07
8.28265e-07
8.17456e-07
8.2213e-07
8.34408e-07
8.30155e-07
8.25334e-07
8.12338e-07
7.98038e-07
7.80704e-07
7.69778e-07
7.71707e-07
8.04632e-07
8.82723e-07
1.03438e-06
1.30157e-06
1.78533e-06
2.70811e-06
3.73239e-06
0
0
0
0
0
0
0
0
0
0
0
0
0
0
0
0
0
0
0
0
0
0
0
0
0
0
0
0
0
0
0
0
0
0
0
0
0
0
0
0
9.09529e-09
2.59779e-08
2.27642e-08
7.29002e-09
0
0
0
0
0
0
0
0
0
0
0
0
0
0
0
0
0
0
0
0
0
0
0
0
0
0
0
0
0
0
0
0
0
0
1.21848e-08
4.71037e-08
3.95198e-09
8.75166e-08
0
2.04023e-05
1.48715e-05
0
0
0
0
0
0
0
0
0
0
0
0
0
0
0
0
0
0
0
0
0
0
0
0
0
1.07458e-07
3.57366e-07
6.06048e-07
8.45907e-07
1.0655e-06
1.25546e-06
1.41595e-06
1.54729e-06
1.63173e-06
1.63256e-06
1.54877e-06
1.35778e-06
1.19384e-06
1.20913e-06
1.34012e-06
1.69817e-06
2.44745e-06
3.558e-06
4.62273e-06
5.02432e-06
4.13379e-06
1.65478e-06
0
0
0
0
0
2.13462e-05
2.2964e-05
1.32723e-05
5.31825e-06
5.56168e-07
0
0
0
5.76863e-07
1.90917e-06
2.42489e-06
2.53906e-06
2.856e-06
3.75546e-06
4.33955e-06
2.03351e-06
6.45562e-07
4.67549e-07
5.23886e-07
5.50728e-07
5.32677e-07
5.01936e-07
4.68966e-07
4.45362e-07
4.29052e-07
4.05669e-07
3.79863e-07
3.42873e-07
3.05451e-07
2.7405e-07
2.56443e-07
2.61668e-07
2.9625e-07
3.70536e-07
4.87756e-07
6.52936e-07
8.72474e-07
1.16362e-06
1.57595e-06
2.16332e-06
2.9511e-06
3.62133e-06
1.26436e-06
0
0
0
0
0
0
0
0
0
0
0
0
0
0
0
0
0
0
0
0
0
0
0
0
0
0
0
0
0
0
0
0
0
0
0
0
0
0
0
0
0
1.54047e-08
2.2116e-08
9.02384e-09
0
0
0
0
0
0
0
0
0
0
0
0
0
0
0
0
0
0
0
0
0
0
0
0
0
0
0
0
0
0
0
0
0
0
0
0
0
2.39137e-08
0
0
0
0
0
0
0
0
0
0
0
0
0
0
0
0
0
0
0
0
0
0
0
0
0
0
0
0
4.16096e-08
2.81309e-07
5.07628e-07
7.10521e-07
8.85814e-07
1.03649e-06
1.17182e-06
1.31064e-06
1.47253e-06
1.69161e-06
1.92811e-06
2.19676e-06
2.50198e-06
2.86586e-06
3.28837e-06
3.77898e-06
4.33513e-06
5.01979e-06
5.77128e-06
6.26126e-06
5.85032e-06
5.00573e-06
3.70963e-06
1.18496e-06
0
0
1.71009e-06
1.51984e-05
7.79959e-06
2.20696e-06
0
0
0
0
0
0
2.65867e-07
1.43729e-06
2.96751e-06
4.5131e-06
2.5917e-06
4.39354e-08
0
0
3.56612e-08
3.33818e-07
5.04646e-07
5.50974e-07
4.90176e-07
3.96705e-07
2.87748e-07
1.94414e-07
1.20151e-07
6.76802e-08
3.76656e-08
3.38138e-08
6.18663e-08
1.32473e-07
2.58207e-07
4.48376e-07
6.92101e-07
9.57248e-07
1.17853e-06
1.28114e-06
1.35721e-06
1.41753e-06
1.48829e-06
1.48582e-06
8.0196e-07
0
0
0
0
0
0
0
0
0
0
0
0
0
0
0
0
0
0
0
0
0
0
0
0
0
0
0
0
0
0
0
0
0
0
0
0
0
0
0
0
0
0
0
0
0
0
0
0
0
0
0
0
3.21853e-08
8.31645e-08
1.21762e-07
0
0
0
0
0
0
0
0
0
0
0
0
0
0
0
0
0
0
6.74072e-08
0
0
0
0
0
0
4.79678e-09
0
5.89836e-08
0
0
0
0
0
0
0
0
0
0
0
0
0
0
0
0
0
0
0
0
0
0
0
0
0
0
0
0
9.04996e-08
3.6947e-07
6.19464e-07
8.34165e-07
1.01337e-06
1.16112e-06
1.29141e-06
1.41826e-06
1.54928e-06
1.68548e-06
1.89744e-06
2.2439e-06
2.78823e-06
3.5723e-06
4.45873e-06
5.43405e-06
6.33173e-06
6.972e-06
7.26205e-06
7.22525e-06
6.6133e-06
5.95758e-06
5.15865e-06
3.08887e-06
0
0
0
5.50057e-06
1.49365e-06
0
0
0
0
0
0
0
0
6.10771e-07
1.77985e-06
1.63515e-06
0
0
0
0
1.96625e-07
5.08693e-07
6.06029e-07
4.75185e-07
2.61162e-07
1.03834e-07
7.98949e-09
0
0
0
0
1.85951e-08
1.30101e-07
3.10771e-07
5.54822e-07
8.04804e-07
9.01753e-07
8.59945e-07
7.23659e-07
5.78594e-07
4.20133e-07
2.18167e-07
0
0
0
5.13117e-07
1.97036e-06
1.97463e-06
1.71769e-06
1.41339e-06
1.1205e-06
8.55932e-07
6.20471e-07
4.27132e-07
2.6785e-07
1.36679e-07
2.84047e-08
0
0
0
0
0
0
0
0
0
0
0
0
0
0
0
0
0
0
0
0
0
0
0
0
0
0
0
0
0
0
0
0
0
0
0
0
0
0
0
0
2.13362e-08
6.33903e-08
1.38915e-07
2.24252e-07
1.87507e-07
6.75834e-11
0
0
0
0
0
0
0
0
0
0
0
0
0
0
9.6095e-07
1.58382e-06
0
0
3.18546e-07
7.58821e-07
1.00571e-06
9.24654e-07
4.54541e-07
5.43847e-08
1.89934e-07
7.31991e-09
0
0
0
0
0
0
0
0
0
0
0
0
0
0
0
0
0
0
0
0
0
0
0
0
0
0
8.94377e-08
4.04956e-07
7.15282e-07
1.02054e-06
1.31069e-06
1.55465e-06
1.73964e-06
1.85416e-06
1.88945e-06
1.90375e-06
1.93023e-06
1.89386e-06
1.8357e-06
1.81571e-06
1.83016e-06
2.08277e-06
2.57774e-06
3.34466e-06
4.31851e-06
5.1646e-06
5.39175e-06
5.13163e-06
4.87654e-06
4.1285e-06
1.61137e-06
0
0
0
9.14183e-06
2.22284e-06
0
0
0
0
0
0
0
0
5.79282e-07
1.36858e-06
4.30464e-07
0
0
0
0
5.2835e-07
6.53559e-07
4.0147e-07
1.14561e-07
0
0
0
0
0
0
1.28948e-08
1.28358e-07
3.07228e-07
5.22092e-07
6.37073e-07
6.39276e-07
5.57415e-07
4.41488e-07
2.90951e-07
9.00867e-08
0
0
0
0
4.14725e-07
1.51996e-06
1.29954e-06
8.85275e-07
5.43877e-07
3.04684e-07
1.52899e-07
5.21584e-08
0
0
0
0
0
0
0
0
0
0
0
0
0
0
0
0
0
0
0
0
0
0
0
0
0
0
0
0
0
0
0
0
0
0
0
0
0
0
0
0
0
0
0
3.94785e-09
3.60102e-08
1.2547e-07
2.27071e-07
2.89818e-07
4.05682e-07
6.03456e-07
5.65007e-07
3.53912e-07
2.56092e-07
2.01037e-07
1.29659e-07
8.23502e-08
0
0
0
0
0
0
0
0
0
8.819e-07
1.30387e-06
0
0
2.14915e-07
6.46588e-07
9.53848e-07
1.01042e-06
1.3431e-06
1.35267e-06
1.12682e-06
6.43527e-07
0
0
0
0
0
0
0
0
0
0
0
0
0
0
0
0
0
0
0
0
0
0
1.95217e-07
4.1577e-07
4.12121e-07
2.22775e-07
0
0
0
2.63428e-07
7.1832e-07
1.17208e-06
1.50577e-06
1.65555e-06
1.62529e-06
1.50751e-06
1.5173e-06
1.65805e-06
1.72235e-06
1.62317e-06
1.43294e-06
1.24941e-06
1.10395e-06
1.14462e-06
1.48174e-06
2.03932e-06
2.79321e-06
3.35294e-06
3.31664e-06
1.95564e-06
0
0
0
0
1.78253e-05
9.01779e-06
2.387e-06
1.18462e-06
0
0
0
0
0
0
9.52336e-07
1.4798e-06
0
0
0
0
4.59075e-07
7.89034e-07
3.87485e-07
4.19733e-08
0
0
0
0
0
0
1.20905e-08
1.00385e-07
2.26182e-07
3.33326e-07
3.85071e-07
4.07902e-07
4.23447e-07
4.28089e-07
3.78854e-07
2.48623e-07
9.74647e-08
4.79309e-08
3.1543e-07
1.48367e-06
2.08525e-06
1.12888e-06
3.73308e-08
0
0
0
0
0
0
0
0
0
0
0
0
0
0
0
0
0
0
0
0
0
0
0
0
0
0
0
0
0
0
0
0
0
0
0
0
0
0
0
0
0
0
0
0
0
0
0
0
2.95622e-08
1.11081e-07
2.01505e-07
3.5554e-07
5.56017e-07
6.94467e-07
8.27796e-07
1.0991e-06
1.20831e-06
9.44393e-07
7.0263e-07
5.90975e-07
5.15685e-07
4.38577e-07
3.57513e-07
6.85518e-08
0
0
0
0
0
0
0
0
1.16941e-07
1.48005e-07
7.91199e-08
1.91884e-07
5.54392e-07
8.59133e-07
8.89505e-07
7.18465e-07
6.5515e-07
1.41762e-06
2.48903e-06
0
0
0
0
0
0
0
0
0
0
0
0
0
0
0
0
0
0
0
1.96911e-07
1.16861e-06
2.15539e-06
2.91159e-06
3.13559e-06
2.58324e-06
1.31565e-06
0
0
0
0
0
9.47138e-07
1.79107e-06
2.25656e-06
2.25028e-06
1.67062e-06
5.48474e-07
0
0
1.06468e-06
1.58269e-06
1.44002e-06
1.13603e-06
9.04667e-07
7.23981e-07
7.84532e-07
1.1564e-06
1.85498e-06
1.45723e-06
0
0
0
0
0
0
2.24238e-05
1.52571e-05
9.24955e-06
3.68612e-06
0
0
0
0
0
1.47366e-06
7.46771e-08
0
0
0
0
7.11595e-07
4.76509e-07
1.26508e-07
0
0
0
0
0
0
2.42693e-10
6.53513e-08
1.32955e-07
1.60648e-07
1.56886e-07
2.14431e-07
3.57268e-07
5.09807e-07
5.96162e-07
5.82671e-07
5.39024e-07
6.50886e-07
1.32766e-06
2.66706e-06
2.78412e-06
1.75797e-06
6.22282e-07
0
0
0
0
0
0
0
0
0
0
0
0
0
0
0
0
0
0
0
0
0
0
0
0
0
0
0
0
0
0
0
0
0
0
0
0
0
0
0
0
0
0
0
0
0
0
0
0
1.61982e-07
3.58047e-07
5.78976e-07
8.05888e-07
1.05028e-06
1.3043e-06
1.47276e-06
1.57639e-06
1.86271e-06
2.19722e-06
1.96277e-06
1.40712e-06
1.11005e-06
9.91522e-07
9.25829e-07
8.33086e-07
6.58835e-07
1.9579e-07
0
0
0
0
0
4.82125e-07
1.02999e-06
1.05542e-06
1.07784e-06
6.26216e-07
3.30371e-07
5.28136e-07
8.00564e-07
8.66734e-07
6.95226e-07
3.01353e-07
1.20593e-07
2.71221e-07
0
0
0
0
0
0
0
0
0
0
0
0
0
0
0
0
0
0
9.45081e-07
2.55339e-06
4.68765e-06
7.18439e-06
9.62119e-06
1.11185e-05
1.025e-05
5.98357e-06
0
0
0
0
0
0
7.55416e-07
2.44764e-06
3.3985e-06
3.58409e-06
2.88618e-06
1.01155e-06
0
0
0
9.80533e-07
1.21961e-06
9.21702e-07
6.54661e-07
4.07305e-07
5.56837e-08
0
0
0
0
0
0
0
0
1.09696e-05
2.81215e-05
1.95486e-05
1.18008e-05
7.71889e-06
3.34354e-06
7.25287e-07
0
0
0
0
0
0
0
0
9.49378e-08
2.0235e-07
1.03369e-07
0
0
0
0
0
0
3.14225e-08
7.75447e-08
6.9913e-08
1.56826e-08
2.88007e-08
2.23002e-07
5.14514e-07
7.23783e-07
8.15137e-07
8.38688e-07
9.61318e-07
1.31525e-06
1.71767e-06
2.01487e-06
2.21291e-06
1.69575e-06
6.68462e-07
0
0
2.47025e-07
8.07266e-07
8.93793e-07
6.86518e-07
3.91436e-07
1.31892e-07
0
0
0
0
0
0
0
0
0
0
0
0
0
0
0
0
0
0
0
0
0
0
0
0
0
0
0
0
0
0
0
0
0
0
0
0
0
0
0
6.61706e-07
9.56201e-07
1.15041e-06
1.18015e-06
1.1721e-06
1.24712e-06
1.33182e-06
1.36264e-06
1.47986e-06
1.82515e-06
2.19065e-06
2.51078e-06
2.48516e-06
1.96578e-06
1.61485e-06
1.46025e-06
1.40964e-06
1.33112e-06
9.12119e-07
3.4723e-07
1.15356e-07
1.161e-08
6.16865e-08
3.75301e-07
1.08706e-06
1.80138e-06
2.16067e-06
2.71742e-06
2.23466e-06
9.41961e-07
5.1993e-07
7.14501e-07
8.62969e-07
7.87643e-07
3.72444e-07
0
0
0
0
0
0
0
0
0
0
0
0
0
0
0
0
0
0
6.17709e-08
1.20383e-06
3.03565e-06
5.83292e-06
9.93089e-06
1.5432e-05
2.26986e-05
3.11298e-05
3.74159e-05
2.73242e-05
0
0
0
0
0
0
0
0
6.7908e-07
2.61354e-06
3.52376e-06
3.23657e-06
1.21794e-06
0
0
0
0
6.82554e-07
5.06401e-07
2.58352e-07
0
0
0
0
0
0
0
0
0
4.76936e-06
1.60483e-05
8.88176e-06
8.21921e-06
7.54427e-06
4.10151e-06
1.646e-06
0
0
0
0
0
0
0
0
0
0
1.31822e-07
5.99477e-08
0
0
0
0
3.23051e-08
8.12724e-08
9.20024e-08
3.69412e-08
0
5.58551e-08
3.27772e-07
6.17711e-07
8.1345e-07
9.06938e-07
1.01942e-06
1.1428e-06
8.40948e-07
3.60613e-07
1.18194e-06
1.81283e-06
7.50506e-07
0
0
1.68624e-07
1.92433e-06
2.13497e-06
1.62861e-06
1.07518e-06
5.88224e-07
2.21931e-07
0
0
0
0
0
0
0
0
0
4.78063e-09
1.20407e-07
1.52459e-07
6.06807e-08
0
0
0
0
0
0
0
0
0
0
0
0
0
0
0
0
0
0
0
0
0
0
0
0
0
4.05303e-07
7.60322e-07
6.44132e-07
5.40938e-07
4.73624e-07
4.36543e-07
4.59371e-07
5.44223e-07
5.54626e-07
5.36592e-07
5.93611e-07
7.63691e-07
8.71603e-07
1.37305e-06
2.48595e-06
2.38793e-06
2.0436e-06
1.89867e-06
1.86986e-06
1.72989e-06
9.57406e-07
5.20875e-07
3.676e-07
4.20122e-07
7.34451e-07
1.37727e-06
2.01089e-06
2.26924e-06
2.48106e-06
2.44869e-06
1.79477e-06
2.37494e-07
3.16676e-07
6.78957e-07
7.41211e-07
3.56763e-07
0
0
0
0
0
0
0
0
0
0
0
0
0
0
0
0
0
0
6.36424e-07
1.85955e-06
3.90715e-06
7.07451e-06
1.16423e-05
1.78597e-05
2.58655e-05
3.45736e-05
3.59348e-05
7.24027e-07
0
0
0
0
0
0
0
0
0
0
9.0991e-07
2.26704e-06
2.33849e-06
4.58635e-07
0
0
0
1.87992e-07
5.18734e-07
2.50007e-07
3.28536e-08
0
0
0
0
0
0
0
0
2.75692e-06
5.95473e-06
6.82777e-06
9.4586e-06
8.50166e-06
4.82583e-06
1.87882e-06
0
0
0
0
0
0
0
0
0
0
8.20388e-08
1.32214e-07
2.33553e-08
0
0
1.83059e-09
5.75838e-08
9.77543e-08
8.32126e-08
1.96402e-08
0
1.48101e-07
4.07472e-07
6.11622e-07
7.58941e-07
8.61346e-07
9.81559e-07
7.12599e-07
0
0
0
5.49314e-08
0
0
0
0
3.40997e-07
9.94979e-07
1.0494e-06
8.58833e-07
5.34047e-07
1.85096e-07
0
0
0
0
0
0
0
0
0
0
0
5.6499e-08
2.23078e-07
2.13724e-07
7.8783e-08
0
0
0
0
0
0
0
0
0
0
0
0
0
0
0
0
0
1.22655e-07
5.0909e-09
0
0
0
0
1.46057e-07
3.87627e-07
4.14883e-07
3.90647e-07
3.636e-07
3.46994e-07
3.5838e-07
4.36014e-07
4.95646e-07
4.98529e-07
4.80274e-07
4.84687e-07
4.33319e-07
4.24226e-07
9.2474e-07
2.19603e-06
2.40468e-06
2.18983e-06
2.10071e-06
1.97137e-06
1.47533e-06
9.78518e-07
7.53969e-07
7.58396e-07
1.01042e-06
1.52224e-06
2.03207e-06
2.10604e-06
1.1998e-06
0
0
0
0
0
0
0
0
0
0
0
0
0
0
0
0
0
0
0
0
0
0
0
0
0
3.21233e-07
1.06948e-06
2.33347e-06
4.20446e-06
6.5006e-06
8.63712e-06
8.94753e-06
4.43611e-06
0
0
0
0
0
0
0
0
0
0
0
0
0
3.66907e-07
1.4111e-06
1.14842e-06
0
0
0
0
3.40066e-07
2.25548e-07
3.87774e-08
0
0
0
0
0
0
0
0
6.7244e-07
5.67119e-07
0
4.36835e-06
6.64721e-06
5.77828e-06
3.5493e-06
0
0
0
0
0
0
0
0
0
0
0
1.67268e-07
1.02281e-07
0
0
2.19164e-08
9.36348e-08
1.37528e-07
8.1734e-08
0
0
3.03347e-08
2.67139e-07
4.60331e-07
6.10533e-07
7.52172e-07
6.56237e-07
0
0
0
0
0
0
0
0
0
0
0
6.46539e-07
1.04285e-06
8.41674e-07
4.00401e-07
1.76607e-08
0
0
0
0
0
0
0
0
0
0
0
0
1.19045e-07
2.10499e-07
1.7675e-07
0
0
0
0
0
0
0
0
0
0
0
0
0
0
0
0
4.3265e-07
5.33729e-07
4.36358e-07
2.97133e-07
1.81179e-07
1.06916e-07
1.22499e-07
2.86828e-07
3.1994e-07
3.07743e-07
3.03073e-07
3.03643e-07
3.21426e-07
3.74726e-07
4.84104e-07
5.77791e-07
6.71059e-07
7.17113e-07
6.71563e-07
5.36764e-07
4.59401e-07
9.03237e-07
1.86723e-06
2.0824e-06
2.01348e-06
1.85594e-06
1.48459e-06
1.30311e-06
1.10786e-06
1.04129e-06
1.20216e-06
1.60551e-06
2.02717e-06
2.00147e-06
3.15402e-07
0
0
0
0
0
0
0
0
0
0
0
0
0
0
0
0
0
0
0
0
0
0
0
0
0
0
0
0
0
0
0
0
0
0
0
0
0
0
0
0
0
0
0
0
0
0
0
8.08548e-07
9.94851e-07
0
0
0
0
1.69211e-07
1.78762e-07
3.32459e-08
0
0
0
0
0
0
0
0
0
0
0
0
3.39813e-06
7.33699e-06
5.523e-06
1.71212e-06
2.37289e-07
0
0
0
0
0
0
0
0
0
1.3764e-07
1.78897e-07
5.03134e-08
0
2.6875e-08
1.31342e-07
1.81242e-07
5.33608e-08
0
0
0
7.29348e-08
3.99197e-07
6.36658e-07
6.86455e-07
1.83345e-07
0
0
0
0
0
0
0
0
0
0
0
0
1.08605e-06
1.16318e-06
6.16217e-07
1.36779e-07
0
0
0
0
0
0
0
0
0
0
0
0
0
7.6363e-08
2.65458e-07
2.92008e-07
4.61496e-08
0
0
0
0
0
0
0
0
0
0
0
0
0
0
5.72076e-07
8.95349e-07
9.52265e-07
8.35395e-07
6.35714e-07
4.44521e-07
3.30616e-07
3.34548e-07
3.18005e-07
2.85679e-07
2.73846e-07
2.75657e-07
2.85599e-07
3.1134e-07
3.66684e-07
4.87873e-07
6.1721e-07
7.12365e-07
7.83638e-07
8.51264e-07
6.95405e-07
5.0711e-07
9.29954e-07
1.54211e-06
1.67395e-06
1.56382e-06
1.2574e-06
1.30982e-06
1.35383e-06
1.25647e-06
1.34027e-06
1.66255e-06
2.00199e-06
1.94116e-06
0
0
0
0
0
0
0
0
0
0
0
0
6.44445e-08
1.32362e-06
1.19812e-06
9.43056e-07
8.55995e-07
8.05174e-07
7.34349e-07
6.31189e-07
4.68325e-07
2.91567e-07
1.50995e-07
5.97766e-08
0
0
0
0
0
0
0
0
0
0
0
0
0
0
0
0
0
0
0
0
1.28013e-07
2.07343e-07
0
0
5.82209e-07
7.65484e-07
0
0
0
0
5.31373e-08
8.59981e-08
0
0
0
0
0
0
0
0
0
0
0
0
4.78714e-07
4.74533e-06
6.88231e-06
4.97208e-06
2.56099e-06
1.20486e-06
6.9397e-07
4.4283e-07
0
0
0
0
0
0
0
2.89112e-08
2.20807e-07
1.16608e-07
0
0
1.04292e-07
2.00084e-07
3.52653e-08
0
0
0
0
5.24556e-07
8.68067e-07
7.72196e-07
0
0
0
0
0
0
9.51792e-07
5.88432e-07
0
0
0
0
0
3.74607e-07
9.17559e-07
4.41613e-07
7.09312e-09
0
0
0
0
0
0
0
0
0
0
0
0
0
9.73005e-09
3.38078e-07
5.66418e-07
5.01159e-07
1.19761e-07
0
0
0
0
0
0
0
0
0
1.13689e-07
3.85071e-07
4.84717e-07
6.05366e-07
8.65099e-07
1.15807e-06
1.28277e-06
1.20297e-06
9.99955e-07
7.73362e-07
5.89419e-07
4.66937e-07
3.80725e-07
3.18826e-07
2.85531e-07
2.69707e-07
2.68392e-07
2.88808e-07
3.24721e-07
3.99193e-07
5.40533e-07
6.19657e-07
6.58944e-07
7.32187e-07
8.66444e-07
6.57527e-07
5.00498e-07
9.50255e-07
1.2678e-06
1.26497e-06
1.03565e-06
1.06381e-06
1.415e-06
1.39956e-06
1.44615e-06
1.70769e-06
1.93433e-06
1.71642e-06
0
0
0
0
0
0
0
0
0
0
3.57034e-08
1.7021e-07
6.10191e-07
1.83019e-06
1.94298e-06
1.63626e-06
1.48066e-06
1.41898e-06
1.33911e-06
1.21283e-06
1.0437e-06
8.52422e-07
6.57833e-07
5.07037e-07
3.764e-07
1.24073e-07
0
0
0
0
0
0
0
0
0
0
0
0
0
3.70695e-06
6.70583e-06
6.73259e-06
5.50058e-06
3.9127e-06
2.65038e-06
1.49878e-06
3.22506e-07
0
3.04516e-07
4.35669e-07
0
0
0
0
0
0
0
0
0
0
0
0
0
0
0
0
0
0
1.53524e-06
3.12876e-06
3.4663e-06
2.83856e-06
2.01368e-06
1.34966e-06
9.30145e-07
8.41425e-07
6.6124e-07
0
0
0
0
0
0
0
1.93063e-07
1.53779e-07
0
0
0
1.69338e-07
1.2202e-07
0
0
0
0
5.27033e-07
1.00037e-06
9.82629e-07
2.07845e-07
0
0
0
0
0
2.39221e-06
2.57906e-06
1.13572e-06
0
0
0
0
2.60325e-07
5.60069e-07
5.8469e-08
0
0
0
0
0
0
0
0
0
0
0
0
0
0
2.77645e-07
7.08473e-07
1.07132e-06
1.09106e-06
7.21702e-07
1.95879e-07
0
0
2.08642e-07
3.58637e-07
1.9032e-07
0
0
0
1.68516e-07
6.91355e-07
1.09679e-06
1.34099e-06
1.48442e-06
1.54275e-06
1.56148e-06
1.46753e-06
1.28596e-06
1.06123e-06
8.16967e-07
5.95417e-07
4.57172e-07
3.81114e-07
3.36112e-07
3.06718e-07
2.83814e-07
2.73871e-07
2.99899e-07
3.52507e-07
4.48043e-07
5.77629e-07
6.11787e-07
6.3473e-07
7.15315e-07
7.85967e-07
4.78059e-07
5.90526e-07
9.32904e-07
1.01612e-06
8.68073e-07
7.90031e-07
1.22979e-06
1.42385e-06
1.4915e-06
1.68989e-06
1.76246e-06
1.20004e-06
0
0
0
0
0
0
0
0
0
0
9.65757e-07
1.50499e-06
1.95972e-06
2.25204e-06
2.33146e-06
2.04016e-06
1.82813e-06
1.76176e-06
1.72572e-06
1.63535e-06
1.49589e-06
1.33727e-06
1.21953e-06
1.08228e-06
9.4508e-07
7.80584e-07
4.4171e-07
0
0
0
0
0
0
0
0
0
0
0
8.22345e-06
1.55604e-05
1.3443e-05
1.0101e-05
7.08559e-06
4.61242e-06
2.76752e-06
1.32826e-06
2.59276e-07
0
8.62291e-08
1.86052e-07
0
0
0
1.87532e-07
8.90151e-08
0
0
0
0
0
0
0
0
0
0
0
0
0
2.25185e-07
8.01917e-07
8.38297e-07
4.97595e-07
2.3808e-07
2.51647e-07
3.92327e-07
5.699e-07
6.83023e-07
2.93542e-07
0
0
0
0
0
0
9.72707e-08
1.5774e-07
0
0
0
3.90627e-08
1.8937e-07
0
0
0
0
2.98905e-07
8.45544e-07
1.00343e-06
7.80355e-07
0
0
0
0
0
3.35351e-06
5.32078e-06
4.73174e-06
2.07897e-06
0
6.49153e-07
3.12679e-06
2.13917e-06
4.33566e-07
0
0
0
0
0
0
0
0
0
0
0
0
0
0
4.66197e-07
1.07483e-06
1.66462e-06
2.1439e-06
2.19822e-06
1.62542e-06
8.33703e-07
2.28173e-07
3.35834e-08
2.70568e-07
6.19687e-07
6.41115e-07
4.22637e-07
1.60359e-07
4.43232e-08
2.31061e-07
7.49441e-07
1.33373e-06
1.7697e-06
2.0381e-06
2.09584e-06
1.95127e-06
1.76962e-06
1.57546e-06
1.3447e-06
1.0409e-06
7.2803e-07
5.16947e-07
4.12718e-07
3.70308e-07
3.53074e-07
3.38536e-07
3.20533e-07
3.05547e-07
3.21935e-07
3.79379e-07
4.95187e-07
6.0715e-07
6.49013e-07
6.92166e-07
7.62904e-07
6.60076e-07
5.1227e-07
7.48567e-07
8.60715e-07
7.71686e-07
6.29436e-07
9.12792e-07
1.30723e-06
1.48714e-06
1.63502e-06
1.50101e-06
4.86587e-07
0
0
1.36864e-06
0
0
1.09338e-07
4.74806e-08
0
0
0
5.12476e-06
2.91869e-06
1.83428e-06
1.58469e-06
1.84017e-06
1.99743e-06
1.83636e-06
1.72976e-06
1.68985e-06
1.64635e-06
1.56628e-06
1.45409e-06
1.33866e-06
1.25825e-06
1.17588e-06
1.03345e-06
8.20898e-07
4.52095e-07
0
0
0
0
0
0
0
0
0
0
3.07684e-05
2.20443e-05
1.40956e-05
9.10394e-06
5.80837e-06
3.43834e-06
1.76091e-06
6.58344e-07
2.86694e-08
0
7.33109e-08
2.58025e-07
3.99644e-07
6.39083e-07
1.08768e-06
7.32877e-07
2.5599e-07
4.11131e-08
0
0
0
0
0
0
0
0
0
0
0
0
0
0
0
0
0
0
0
0
0
0
0
0
0
0
0
0
0
1.00352e-07
0
0
0
0
1.37425e-07
1.03984e-07
0
0
0
9.0448e-08
6.46632e-07
9.29134e-07
1.14763e-06
1.3068e-06
1.26541e-06
9.22576e-07
1.10241e-06
3.12746e-06
6.25128e-06
8.49272e-06
8.08698e-06
5.76868e-06
7.23857e-06
1.39251e-05
1.53417e-05
5.01216e-06
0
0
0
0
0
0
0
0
0
0
0
0
0
0
0
1.42213e-06
2.66785e-06
3.56397e-06
4.0429e-06
4.05211e-06
3.11257e-06
1.7991e-06
6.9801e-07
8.45301e-08
2.13498e-07
7.08195e-07
8.63098e-07
7.54049e-07
5.62528e-07
4.00402e-07
4.49046e-07
8.36911e-07
1.47784e-06
2.06835e-06
2.4703e-06
2.62213e-06
2.45623e-06
2.15128e-06
1.87619e-06
1.60861e-06
1.26694e-06
8.95251e-07
6.05183e-07
4.52418e-07
3.92095e-07
3.8584e-07
3.99088e-07
3.97809e-07
3.786e-07
3.60012e-07
3.58678e-07
4.11375e-07
5.55743e-07
6.73794e-07
7.30967e-07
7.80526e-07
7.70425e-07
6.16227e-07
6.95691e-07
7.80611e-07
7.21962e-07
5.59508e-07
6.25542e-07
1.02562e-06
1.3963e-06
1.54639e-06
1.15209e-06
0
0
0
7.02148e-06
3.51876e-07
1.81907e-07
2.69351e-07
1.81416e-07
0
0
0
9.29102e-06
1.19022e-06
5.77009e-07
4.47851e-07
5.96677e-07
1.33961e-06
1.70494e-06
1.55945e-06
1.41664e-06
1.36088e-06
1.33123e-06
1.28355e-06
1.20997e-06
1.1262e-06
1.0438e-06
9.59158e-07
8.0325e-07
5.70457e-07
2.17937e-07
0
0
0
0
0
0
0
0
9.14592e-07
1.11133e-05
1.06731e-05
7.47869e-06
4.88216e-06
2.99577e-06
1.60281e-06
7.04566e-07
2.58351e-07
3.97848e-08
6.90429e-08
2.99487e-07
8.72527e-07
2.27097e-06
3.18399e-06
2.26719e-06
9.5624e-07
3.10983e-07
9.2677e-08
2.69423e-08
3.82547e-09
0
0
2.49897e-10
0
0
0
0
0
0
0
0
0
0
0
0
0
0
0
0
0
0
0
0
0
0
0
0
0
0
0
0
0
0
2.21428e-07
0
0
0
0
4.30772e-07
9.43133e-07
1.60502e-06
2.83259e-06
5.11667e-06
8.9077e-06
1.3081e-05
1.51802e-05
1.55536e-05
1.47985e-05
1.15266e-05
8.56992e-06
1.46626e-05
2.21027e-05
2.50263e-05
4.97101e-06
0
0
9.73666e-08
1.65462e-07
0
0
0
0
0
0
0
0
0
0
0
2.71866e-06
5.30069e-06
6.59762e-06
6.87936e-06
6.52682e-06
5.15562e-06
3.11878e-06
1.33006e-06
0
0
7.00131e-07
9.50485e-07
8.79677e-07
7.88118e-07
7.07265e-07
7.49567e-07
1.05694e-06
1.67488e-06
2.38079e-06
2.90723e-06
3.14382e-06
3.02257e-06
2.63493e-06
2.21945e-06
1.85872e-06
1.47767e-06
1.0713e-06
7.34077e-07
5.34721e-07
4.52491e-07
4.38624e-07
4.56738e-07
4.67777e-07
4.65313e-07
4.48287e-07
4.23954e-07
4.07818e-07
4.83852e-07
6.63837e-07
7.61229e-07
8.05902e-07
8.21044e-07
7.44528e-07
7.30566e-07
7.5239e-07
6.9761e-07
5.35893e-07
4.47519e-07
6.72929e-07
1.15537e-06
1.41571e-06
7.20277e-07
0
0
0
0
0
7.12232e-07
6.81806e-07
4.58073e-07
1.05798e-07
0
0
1.26919e-05
3.17908e-06
1.74266e-06
7.62933e-07
4.7128e-07
7.22627e-07
1.16891e-06
1.08381e-06
9.13424e-07
8.36721e-07
8.37397e-07
8.49756e-07
8.38143e-07
7.97547e-07
7.38981e-07
6.67886e-07
5.74468e-07
4.41323e-07
2.50955e-07
0
0
0
0
0
0
0
0
6.44684e-07
2.60796e-06
3.10463e-06
2.57702e-06
1.89008e-06
1.19953e-06
6.63943e-07
4.14211e-07
3.03603e-07
2.98678e-07
4.44623e-07
9.97691e-07
2.70382e-06
4.6161e-06
4.1773e-06
2.40065e-06
8.57927e-07
3.05331e-07
1.25921e-07
6.72549e-08
4.30081e-08
2.71292e-08
1.88419e-08
1.60154e-08
1.23951e-08
7.25507e-09
6.06942e-09
0
0
0
0
0
0
0
0
0
0
0
0
0
0
0
0
0
0
0
0
0
0
0
0
0
0
0
8.22885e-08
2.85149e-07
0
0
0
0
4.16891e-07
1.37679e-06
3.13945e-06
6.38001e-06
1.17088e-05
1.86655e-05
2.46022e-05
2.60763e-05
2.33677e-05
1.54685e-05
1.25045e-05
1.81468e-05
2.13294e-05
2.42605e-05
0
0
4.32218e-07
8.92055e-07
6.55197e-07
3.32445e-07
7.70822e-09
0
0
0
0
0
0
0
0
2.07376e-06
4.9679e-06
6.23612e-06
8.70559e-06
9.48783e-06
8.95202e-06
7.28052e-06
4.57731e-06
2.11641e-06
0
0
5.6359e-07
9.36164e-07
8.43264e-07
8.01205e-07
8.73384e-07
1.04583e-06
1.39904e-06
1.98752e-06
2.73222e-06
3.36541e-06
3.69507e-06
3.63183e-06
3.19536e-06
2.6293e-06
2.13491e-06
1.6868e-06
1.23822e-06
8.70541e-07
6.46988e-07
5.49742e-07
5.34226e-07
5.55525e-07
5.76042e-07
5.71501e-07
5.55498e-07
5.30697e-07
4.85636e-07
4.80294e-07
6.20401e-07
7.64849e-07
8.17419e-07
8.40296e-07
8.25222e-07
7.9504e-07
7.54615e-07
6.85021e-07
5.27569e-07
3.61225e-07
3.97249e-07
7.6399e-07
1.16478e-06
2.57188e-07
0
0
0
0
0
8.99839e-07
1.20557e-06
1.12301e-06
7.05191e-07
0
0
1.34529e-05
8.69249e-06
3.82028e-06
1.6245e-06
9.51079e-07
1.01138e-06
7.68801e-07
5.14692e-07
4.20476e-07
3.82024e-07
3.87516e-07
4.12171e-07
4.24481e-07
4.12499e-07
3.79242e-07
3.27148e-07
2.63894e-07
1.77237e-07
7.22273e-08
0
0
0
0
0
0
0
0
1.62989e-07
6.30227e-07
8.35139e-07
8.55391e-07
7.58771e-07
5.99851e-07
5.18669e-07
5.31259e-07
5.86783e-07
7.11854e-07
1.18326e-06
2.74244e-06
4.90314e-06
4.80737e-06
4.11596e-06
1.7083e-06
5.95045e-07
2.39175e-07
1.19811e-07
7.98956e-08
6.25592e-08
4.87913e-08
3.90392e-08
3.28499e-08
2.62661e-08
1.87637e-08
1.63305e-08
9.59092e-09
0
0
0
0
0
0
0
0
0
0
0
0
0
0
0
0
0
0
0
0
0
0
0
0
0
0
0
2.14578e-07
3.24626e-07
0
0
0
0
2.65424e-07
1.69083e-06
4.4077e-06
8.77922e-06
1.46287e-05
2.08181e-05
2.632e-05
3.02976e-05
2.34814e-05
1.84833e-05
1.72472e-05
1.70061e-05
1.88525e-05
0
7.41042e-07
2.31126e-06
1.98695e-06
1.72081e-06
1.87475e-06
2.95212e-06
1.49542e-06
0
0
0
0
0
5.04062e-07
4.39866e-06
1.09861e-05
1.67786e-05
0
3.10674e-06
8.38678e-06
9.54635e-06
8.46285e-06
5.62685e-06
2.84969e-06
0
0
1.88548e-07
7.4344e-07
6.2644e-07
6.27599e-07
8.95441e-07
1.3334e-06
1.88378e-06
2.48572e-06
3.16926e-06
3.84273e-06
4.25669e-06
4.26009e-06
3.79412e-06
3.07785e-06
2.44979e-06
1.92385e-06
1.41659e-06
1.01798e-06
7.78879e-07
6.62809e-07
6.46368e-07
6.85391e-07
7.22762e-07
7.38408e-07
7.10116e-07
6.67632e-07
6.1576e-07
5.49893e-07
5.97989e-07
7.42428e-07
8.0592e-07
8.36422e-07
8.68793e-07
8.49988e-07
7.71519e-07
6.75011e-07
5.13818e-07
3.21598e-07
2.46019e-07
3.86937e-07
6.32515e-07
0
0
0
0
0
6.5608e-07
6.08431e-07
3.77716e-07
5.52932e-07
6.60915e-07
0
0
4.55516e-06
1.08392e-05
3.13449e-06
9.62065e-07
5.31075e-07
5.50919e-07
2.22761e-07
0
0
0
0
0
0
0
0
0
0
0
0
0
0
0
0
0
0
0
4.0219e-08
1.89479e-07
3.69505e-07
4.89955e-07
5.71711e-07
6.23962e-07
6.51972e-07
7.31405e-07
8.43902e-07
1.00206e-06
1.45161e-06
2.84425e-06
4.8143e-06
4.76709e-06
4.86017e-06
2.64973e-06
9.70524e-07
4.03477e-07
1.97687e-07
1.21771e-07
9.75502e-08
8.18132e-08
6.64006e-08
5.58951e-08
4.90988e-08
4.14273e-08
3.10332e-08