/*--------------------------------*- C++ -*----------------------------------*\
  =========                 |
  \\      /  F ield         | OpenFOAM: The Open Source CFD Toolbox
   \\    /   O peration     | Website:  https://openfoam.org
    \\  /    A nd           | Version:  9
     \\/     M anipulation  |
\*---------------------------------------------------------------------------*/
FoamFile
{
    format      ascii;
    class       volScalarField;
    location    "0.052";
    object      p;
}
// * * * * * * * * * * * * * * * * * * * * * * * * * * * * * * * * * * * * * //

dimensions      [0 2 -2 0 0 0 0];

internalField   nonuniform List<scalar> 
12225
(
36.4107
42.7115
47.6578
51.0345
53.5472
55.4588
56.9021
58.0078
58.868
59.5372
60.0583
60.4943
60.8698
61.2008
61.4848
61.7932
62.0313
62.3074
35.1023
42.7372
47.7324
51.0884
53.5866
55.4857
56.9111
57.9972
58.8491
59.5208
60.0473
60.4821
60.8507
61.1687
61.4426
61.7053
61.9252
62.0161
35.1586
42.8969
47.8615
51.1866
53.6523
55.5282
56.9429
58.0264
58.8722
59.534
60.0515
60.4706
60.8222
61.122
61.3689
61.5827
61.7342
61.7159
36.0613
43.2274
48.1172
51.3588
53.766
55.6078
56.997
58.0567
58.889
59.5443
60.0556
60.466
60.8041
61.0805
61.2959
61.4563
61.5445
61.5183
36.4926
43.6735
48.4722
51.6052
53.9324
55.7273
57.0903
58.1336
58.9494
59.5871
60.0818
60.4716
60.7849
61.0342
61.2188
61.3416
61.4034
61.3851
37.7386
44.3133
48.935
51.9326
54.1586
55.8911
57.2096
58.2198
59.0126
59.6331
60.1124
60.4873
60.7821
61.0049
61.156
61.2427
61.2719
61.2375
38.535
45.2589
49.5995
52.3898
54.4739
56.1167
57.3812
58.3578
59.1251
59.7204
60.174
60.5208
60.7845
60.9755
61.0958
61.1528
61.154
61.1005
42.4536
46.4414
50.2183
52.8849
54.8429
56.3962
57.5982
58.5273
59.2564
59.8198
60.2457
60.5698
60.8117
60.9753
61.0642
61.0873
61.0549
60.9718
41.878
47.6719
51.3467
53.608
55.3361
56.7508
57.8645
58.7403
59.4334
59.9647
60.3578
60.6454
60.8494
60.9777
61.0349
61.0287
60.9665
60.8511
42.8608
49.247
52.3385
54.2959
55.8804
57.171
58.2036
59.0135
59.6531
60.1431
60.5024
60.7584
60.929
61.0219
61.0434
61.0008
60.9007
60.7457
46.4802
51.6343
53.7874
55.2971
56.5609
57.6733
58.5957
59.3362
59.9232
60.3663
60.6812
60.894
61.0236
61.0785
61.0649
60.9888
60.855
60.6656
51.6996
54.1539
55.0923
56.1552
57.2024
58.184
59.0244
59.6983
60.2258
60.6206
60.8966
61.0738
61.1672
61.1849
61.1331
61.0195
60.8472
60.6224
63.5111
57.3606
56.6444
57.2034
57.9459
58.7726
59.5085
60.1059
60.5747
60.9185
61.1456
61.2742
61.3225
61.3007
61.2148
61.0699
60.871
60.6204
67.4864
59.8483
58.1088
58.1837
58.7841
59.4918
60.1347
60.6516
61.0493
61.3281
61.5
61.5814
61.5854
61.5178
61.3848
61.1942
60.9528
60.6653
68.7543
61.0325
59.1607
59.2515
59.8045
60.4089
60.9436
61.3654
61.6863
61.8823
61.9743
61.9803
61.919
61.7983
61.6207
61.3897
61.1108
60.7888
61.1325
59.4672
59.5186
60.2208
60.9672
61.55
62.0148
62.3626
62.562
62.6575
62.66
62.5874
62.454
62.2666
62.027
61.7392
61.4119
61.0511
47.6841
56.124
59.5057
61.3209
62.4146
63.0617
63.4769
63.6957
63.76
63.7292
63.6164
63.4358
63.1983
62.9207
62.6046
62.2554
61.8798
61.4834
50.2845
57.8191
61.6198
63.7476
64.8062
65.3065
65.5463
65.586
65.469
65.2525
64.9752
64.6514
64.292
63.9062
63.5006
63.0781
62.6425
62.1999
65.851
66.1879
66.7934
67.7938
68.4162
68.6357
68.546
68.2666
67.8452
67.3485
66.8173
66.2661
65.7135
65.1709
64.6423
64.1248
63.6169
63.1203
63.5929
69.3355
72.4068
73.5851
73.4658
72.8221
72.1194
71.2779
70.416
69.5813
68.7867
68.0192
67.2819
66.5851
65.9267
65.2991
64.6987
64.1267
70.3332
77.7494
79.2024
78.5963
77.5846
76.2972
74.9244
73.6339
72.4112
71.2808
70.2374
69.2705
68.3853
67.5653
66.8084
66.1068
65.4504
64.8416
95.5456
90.0693
87.0103
84.1905
81.7324
79.5377
77.5597
75.7829
74.2061
72.8027
71.5482
70.408
69.3718
68.4405
67.5915
66.8116
66.0985
65.4387
106.664
99.0614
93.112
88.7532
85.1359
82.1784
79.6413
77.4373
75.523
73.8928
72.4615
71.1909
70.0568
69.0441
68.1304
67.3045
66.5525
65.8656
116.224
106.172
98.4761
92.6747
88.0516
84.3155
81.3069
78.7955
76.6501
74.8406
73.258
71.8723
70.6485
69.562
68.5925
67.719
66.9305
66.2166
125.329
111.582
102.166
95.3007
89.9623
85.7784
82.4482
79.7099
77.3914
75.4095
73.7288
72.2792
71.007
69.8807
68.8761
67.9754
67.1665
66.4379
130.869
115.331
104.862
97.2809
91.4975
86.9286
83.3248
80.4009
77.9573
75.8734
74.133
72.6289
71.3149
70.1495
69.1112
68.1846
67.357
66.6157
132.081
117.553
106.541
98.4366
92.3638
87.6169
83.8707
80.8311
78.2975
76.155
74.3539
72.8185
71.4785
70.2909
69.2331
68.2918
67.4555
66.7118
133.337
118.973
107.673
99.2846
93.011
88.1321
84.2365
81.1093
78.5147
76.3466
74.5202
72.9699
71.6155
70.4096
69.333
68.3767
67.532
66.7857
135.952
119.871
108.19
99.6662
93.313
88.3612
84.4307
81.2605
78.6279
76.429
74.5909
73.0349
71.6743
70.458
69.368
68.4014
67.5542
66.8141
137.598
120.308
108.406
99.8422
93.4642
88.4833
84.5228
81.3239
78.6693
76.4609
74.6279
73.0801
71.7217
70.498
69.3958
68.4171
67.5612
66.8205
48.5115
48.3257
48.0804
47.9818
48.1009
48.2744
48.2328
47.9754
47.5862
47.2112
46.9209
46.7196
46.6021
46.5499
46.5416
46.5649
46.6155
46.6898
46.7841
46.8985
47.0364
47.2031
47.4084
47.6619
47.9728
48.3487
48.7844
49.2979
49.8819
50.5295
51.2291
51.9542
52.6921
53.4266
54.1438
54.8488
55.5279
56.2235
56.9732
57.7989
58.7848
59.9634
61.2476
62.2797
62.7861
62.9001
62.9164
62.4297
61.423
59.9463
58.3176
56.9312
56.1404
56.2461
57.402
59.5598
62.2718
64.7903
65.8582
64.8292
62.8151
61.2873
60.7566
60.4853
60.1426
59.7644
59.3521
58.8232
58.2923
57.9148
57.5182
56.6809
55.1928
53.2374
50.9674
48.5021
45.9138
43.2359
40.4738
37.6152
34.64
31.5276
28.2617
24.8335
21.2445
17.5075
13.649
9.7098
5.74616
1.83016
-1.95083
-5.49667
-8.6986
-11.4455
-13.6322
-15.1674
-15.9806
-16.0298
-15.2955
-13.7913
-11.5616
-8.68188
-5.24742
-1.36284
2.86359
7.32621
11.927
16.5791
21.2093
25.7584
30.1807
34.443
38.5219
42.4007
46.0659
49.505
52.7025
55.639
58.2902
60.6263
62.615
64.2246
65.423
66.1974
66.544
66.48
66.0403
65.2745
64.242
63.0056
61.6253
60.1549
58.6391
57.1134
55.6051
54.135
52.7162
51.3572
50.0693
48.8641
47.7531
46.7498
45.8696
45.1281
44.5381
44.1042
43.8258
43.68
43.643
43.6846
43.7744
43.8837
43.9888
44.0838
44.1615
44.2298
44.264
44.2184
44.0619
43.8233
43.5841
43.4172
43.3387
43.3113
43.2868
43.2415
43.1595
43.0303
42.8343
42.5677
42.246
41.9019
41.5697
41.2731
41.0065
40.7517
40.4944
40.2298
39.9798
39.6724
47.9613
47.7424
47.4507
47.2764
47.4065
47.5696
47.5136
47.2291
46.8341
46.5217
46.3537
46.2816
46.2445
46.2517
46.3066
46.3967
46.501
46.6051
46.7066
46.8076
46.9212
47.0617
47.243
47.477
47.7727
48.1383
48.5831
49.0844
49.6608
50.3024
50.9957
51.7191
52.4539
53.1863
53.9092
54.6198
55.2947
56.0116
56.7206
57.4072
58.3346
59.4084
60.7048
61.9244
62.791
63.4506
63.3155
62.5465
61.1323
59.1572
57.0473
55.2842
54.1795
53.9522
54.7299
56.4853
58.8428
61.3037
63.0516
62.8941
61.5433
60.3023
59.6775
59.6524
59.6103
59.4287
59.2502
58.9382
58.31
57.6437
56.9271
55.851
54.2812
52.3307
50.1303
47.7755
45.3158
42.7659
40.117
37.3485
34.4365
31.3599
28.1041
24.6636
21.0433
17.2599
13.343
9.33665
5.29986
1.30785
-2.54834
-6.16428
-9.42662
-12.22
-14.4357
-15.9788
-16.7787
-16.7903
-16.0089
-14.436
-12.1398
-9.19806
-5.70326
-1.76147
2.51701
7.02457
11.6619
16.3418
20.991
25.551
29.9774
34.2382
38.3117
42.1827
45.8394
49.271
52.4642
55.4012
58.0589
60.4078
62.4155
64.0486
65.2768
66.0814
66.4568
66.4174
65.9962
65.2428
64.2173
62.9837
61.6033
60.131
58.6123
57.0831
55.5708
54.0945
52.6707
51.3093
50.0205
48.8146
47.703
46.6992
45.8185
45.077
44.4882
44.0644
43.7845
43.6454
43.617
43.667
43.7642
43.8777
43.9827
44.0713
44.1447
44.2051
44.231
44.1835
44.0354
43.8099
43.5787
43.412
43.3318
43.3079
43.3
43.261
43.1739
43.0312
42.8314
42.5691
42.2523
41.9084
41.5748
41.2731
41.0029
40.7433
40.4824
40.2088
39.9529
39.6466
48.2417
48.0692
47.8438
47.6602
47.6143
47.5187
47.2698
46.9259
46.496
46.2104
46.0763
45.9443
45.855
45.8114
45.8186
45.8647
45.9382
46.0265
46.116
46.2027
46.2888
46.3838
46.5032
46.6657
46.8908
47.1959
47.5923
48.0799
48.6536
49.3081
50.0301
50.8005
51.6038
52.4268
53.2553
54.0818
54.912
55.75
56.596
57.4925
58.5266
59.6661
60.8784
62.0855
63.0617
63.5129
63.5176
62.8822
61.2431
58.8966
56.3695
54.2125
52.7468
52.1701
52.7244
54.5029
57.0345
59.7522
61.9485
62.6296
61.7837
60.8675
60.3741
60.0465
59.6886
59.2338
58.7335
58.1785
57.4518
56.5131
55.375
54.0061
52.4075
50.6178
48.6785
46.6154
44.434
42.1236
39.6638
37.0306
34.2024
31.1636
27.9068
24.4339
20.7568
16.8977
12.8904
8.78211
4.6347
0.526449
-3.44807
-7.17964
-10.5493
-13.4357
-15.7238
-17.3132
-18.1269
-18.1184
-17.2693
-15.6239
-13.2378
-10.1906
-6.58417
-2.53277
1.84644
6.4411
11.1491
15.8822
20.5673
25.1471
29.5793
33.8345
37.8941
41.7464
45.3834
48.7977
51.9794
54.9137
57.5793
59.9488
61.9901
63.6685
64.951
65.8137
66.246
66.2571
65.8765
65.1521
64.1442
62.9188
61.5405
60.0666
58.5446
57.011
55.493
54.0103
52.5856
51.2212
49.9285
48.7179
47.6012
46.5923
45.708
44.9651
44.3779
43.9542
43.6881
43.5634
43.5526
43.621
43.7333
43.8586
43.9749
44.0728
44.1365
44.1794
44.1865
44.1349
44.0109
43.8372
43.6652
43.5315
43.4402
43.3829
43.3232
43.2518
43.1481
43.0006
42.8001
42.5425
42.2387
41.9116
41.5894
41.2892
41.0111
40.7361
40.4606
40.1677
39.8882
39.5624
49.2028
49.1147
48.9671
48.8177
48.6437
48.3631
47.9771
47.4425
46.9169
46.5469
46.3006
46.0621
45.8443
45.6545
45.4983
45.3592
45.2242
45.0836
44.9366
44.7905
44.6594
44.5611
44.5144
44.5387
44.6535
44.8771
45.2231
45.698
46.2934
47.0043
47.818
48.7173
49.6857
50.7091
51.7738
52.865
53.9739
55.1042
56.2736
57.5161
58.8572
60.2715
61.7227
63.144
64.4147
65.0949
65.0941
64.3203
62.7369
60.5408
58.1367
55.9851
54.5047
54.003
54.6021
56.2994
58.6938
61.1803
63.1877
64.0271
63.4078
62.2023
61.1915
60.4948
59.8516
59.1413
58.3209
57.3811
56.3129
55.1294
53.8417
52.4488
50.9509
49.3496
47.6411
45.8129
43.8441
41.7083
39.3779
36.8275
34.0376
30.9969
27.7025
24.1612
20.3886
16.4103
12.2626
7.9944
3.66998
-0.629178
-4.80251
-8.73074
-12.2825
-15.323
-17.7239
-19.3788
-20.2047
-20.1524
-19.2076
-17.4578
-14.9265
-11.7073
-7.9213
-3.69668
0.839166
5.56735
10.3823
15.1946
19.9321
24.5394
28.9774
33.2207
37.2552
41.0746
44.6762
48.058
51.2148
54.1367
56.806
59.2002
61.2877
63.0306
64.3919
65.3397
65.855
65.9396
65.6188
64.94
63.9653
62.7629
61.3986
59.9316
58.4123
56.8807
55.3666
53.8877
52.4511
51.0806
49.7836
48.5684
47.4465
46.4331
45.546
44.8034
44.2206
43.8025
43.5584
43.4539
43.4675
43.5595
43.6889
43.8263
43.9485
44.0402
44.1251
44.1735
44.178
44.123
44.0111
43.8618
43.7018
43.5602
43.4618
43.3898
43.3338
43.256
43.143
42.9856
42.7821
42.5326
42.2429
41.9277
41.6079
41.3002
41.0092
40.7208
40.4305
40.1221
39.8178
39.4684
49.9316
49.9206
49.8456
49.6896
49.4977
49.1695
48.7838
48.2987
47.7428
47.2106
46.6953
46.195
45.7055
45.2195
44.7364
44.2485
43.7554
43.2561
42.7569
42.2703
41.8163
41.4206
41.1109
40.9141
40.8555
40.9565
41.2315
41.6882
42.3205
43.1259
44.0904
45.1955
46.4209
47.7472
49.1563
50.6309
52.1572
53.729
55.3524
57.0381
58.781
60.5528
62.3152
64.0116
65.5235
66.7638
66.994
66.4234
65.1228
63.2756
61.1915
59.3198
57.8774
57.3103
57.7277
59.1148
61.2357
63.4915
65.1196
65.6315
65.1023
64.1072
62.8759
61.6263
60.377
59.1271
57.8606
56.5708
55.2769
53.9892
52.6976
51.3837
50.0232
48.5902
47.0565
45.3907
43.5583
41.5238
39.2551
36.726
33.9174
30.8186
27.4287
23.7571
19.8224
15.6537
11.2907
6.78479
2.20312
-2.36627
-6.81218
-11.0022
-14.7881
-18.018
-20.5504
-22.2683
-23.0939
-22.9818
-21.9425
-19.981
-17.2025
-13.7243
-9.68124
-5.21593
-0.466852
4.43983
9.39521
14.3097
19.1129
23.7529
28.1948
32.4185
36.4162
40.1882
43.7382
47.0704
50.1855
53.0792
55.7401
58.1511
60.2836
62.0975
63.5541
64.6118
65.239
65.425
65.1866
64.5676
63.6324
62.4549
61.1085
59.6575
58.1523
56.6298
55.1195
53.6448
52.2199
50.8582
49.5681
48.3579
47.2395
46.2293
45.3465
44.6109
44.0386
43.6384
43.4103
43.3241
43.3617
43.482
43.6433
43.7996
43.9249
44.0193
44.0972
44.1472
44.1547
44.1114
44.0131
43.878
43.7396
43.6203
43.5205
43.445
43.3598
43.2696
43.1466
42.9847
42.7776
42.5297
42.2438
41.9325
41.6142
41.3031
41.0042
40.7054
40.4005
40.0771
39.7482
39.379
50.7342
50.6974
50.6319
50.5229
50.3046
49.955
49.4753
48.9143
48.2853
47.5971
46.8477
46.0439
45.1904
44.292
43.3557
42.3863
41.3965
40.3993
39.4144
38.465
37.5802
36.7932
36.1398
35.6554
35.3722
35.3147
35.5018
35.9452
36.6482
37.5973
38.775
40.1596
41.7264
43.4486
45.2992
47.2534
49.2894
51.3889
53.5363
55.7139
57.8954
60.044
62.1097
64.0174
65.6388
66.7644
67.1123
66.638
65.4616
63.7135
61.625
59.6227
58.392
58.0727
58.7174
60.0794
61.8827
63.8086
65.2205
65.7044
65.3386
64.4934
63.3091
61.9172
60.3949
58.8278
57.2942
55.8404
54.4812
53.209
51.9948
50.7948
49.5633
48.2572
46.836
45.2599
43.4887
41.4829
39.2066
36.6298
33.7303
30.4978
26.9365
23.0628
18.9034
14.4922
9.86966
5.08665
0.210784
-4.66535
-9.41911
-13.9001
-17.9379
-21.3592
-24.0119
-25.7766
-26.5705
-26.3564
-25.115
-22.9045
-19.8349
-16.0449
-11.6915
-6.93743
-1.93581
3.17896
8.2951
13.3242
18.1992
22.8725
27.3146
31.5119
35.4635
39.1769
42.6626
45.9308
48.9885
51.8368
54.4721
56.881
59.0387
60.913
62.4624
63.6379
64.3943
64.7042
64.5711
64.0322
63.1516
62.0075
60.6796
59.2398
57.7468
56.2449
54.7588
53.3056
51.897
50.5519
49.2766
48.0813
46.9788
45.9852
45.1192
44.4005
43.8457
43.4653
43.2684
43.1954
43.2568
43.3965
43.5692
43.7411
43.8913
44.0066
44.0817
44.1273
44.1377
44.0996
44.0154
43.9046
43.7843
43.6636
43.5514
43.4532
43.3752
43.2829
43.1574
42.9872
42.7783
42.5304
42.249
41.9425
41.6244
41.3077
40.9986
40.6879
40.3689
40.0314
39.6813
39.2942
51.6249
51.6031
51.4833
51.299
51.0459
50.6475
50.0954
49.3944
48.566
47.613
46.5383
45.3483
44.0511
42.6594
41.1881
39.6534
38.0773
36.4854
34.9107
33.3902
31.9672
30.6883
29.6021
28.7572
28.1976
27.9568
28.059
28.5167
29.3315
30.486
31.9574
33.7135
35.7151
37.9207
40.2897
42.7842
45.3682
48.0072
50.6668
53.3104
55.8962
58.3729
60.6714
62.6952
64.3155
65.3823
65.7488
65.3948
64.3962
62.7937
60.7646
58.8983
57.7826
57.6198
58.2861
59.5329
61.1265
62.8799
64.2226
64.8332
64.7291
64.0471
62.9027
61.4844
59.8988
58.2679
56.6986
55.2536
53.9466
52.7604
51.6498
50.5576
49.4262
48.2013
46.8374
45.2932
43.5241
41.4842
39.1319
36.4353
33.3741
29.9432
26.1541
22.0346
17.6231
12.9605
8.08656
3.04437
-2.10817
-7.28374
-12.353
-17.1463
-21.4676
-25.1225
-27.9352
-29.7646
-30.5187
-30.1606
-28.725
-26.2536
-22.8559
-18.697
-13.9705
-8.87058
-3.57089
1.78501
7.08428
12.2425
17.1981
21.9094
26.353
30.5233
34.4273
38.0801
41.4988
44.6987
47.691
50.481
53.0695
55.4496
57.6079
59.52
61.1464
62.433
63.3215
63.7675
63.7577
63.3188
62.5125
61.4196
60.124
58.703
57.2211
55.7269
54.2552
52.833
51.4557
50.148
48.9099
47.7474
46.6734
45.7059
44.8662
44.1742
43.6446
43.2847
43.0811
43.0522
43.1349
43.2962
43.4924
43.6804
43.834
43.9504
44.0376
44.0972
44.1178
44.0931
44.0277
43.9329
43.8234
43.7108
43.6007
43.497
43.4054
43.3077
43.18
43.0065
42.7919
42.5421
42.2616
41.9552
41.6332
41.3087
40.9895
40.6688
40.3385
39.9887
39.6203
39.2165
52.6972
52.6374
52.4931
52.2126
51.7908
51.209
50.4538
49.5199
48.4081
47.1151
45.6466
44.0101
42.217
40.2825
38.2245
36.0651
33.8328
31.5628
29.3002
27.0975
25.0152
23.1208
21.4867
20.1807
19.2666
18.8038
18.8225
19.3262
20.3024
21.7476
23.6224
25.8705
28.4263
31.222
34.1935
37.2826
40.4383
43.6147
46.7644
49.8336
52.7633
55.4898
57.9449
60.0529
61.717
62.8153
63.2784
63.1237
62.3287
60.848
58.8054
56.9781
56.0454
56.2227
57.2125
58.5161
59.9732
61.5769
62.8986
63.6076
63.6505
63.0992
62.0692
60.7302
59.2212
57.6763
56.1989
54.8505
53.6435
52.5604
51.5509
50.5494
49.4911
48.3132
46.9667
45.407
43.5856
41.4541
38.9693
36.097
32.8202
29.1464
25.1063
20.7471
16.118
11.2575
6.18951
0.931352
-4.48611
-9.99412
-15.4579
-20.6724
-25.3973
-29.3977
-32.4574
-34.4015
-35.1292
-34.6418
-32.9801
-30.1706
-26.3487
-21.7222
-16.533
-11.0161
-5.36851
0.259653
5.75984
11.0565
16.0969
20.8471
25.2909
29.4318
33.287
36.8796
40.2362
43.373
46.3015
49.0273
51.554
53.8842
56.0167
57.9399
59.6228
61.0089
62.0264
62.6118
62.7342
62.4076
61.6886
60.6619
59.4184
58.0387
56.588
55.1173
53.6661
52.2571
50.9209
49.6503
48.4542
47.3392
46.3146
45.3946
44.5979
43.9445
43.4492
43.1176
42.9431
42.9257
43.0157
43.181
43.3789
43.5751
43.7497
43.8882
43.9903
44.0597
44.0927
44.0842
44.0361
43.9603
43.8697
43.7687
43.6582
43.546
43.4441
43.3412
43.2113
43.0352
42.8144
42.5596
42.2771
41.969
41.6429
41.3113
40.9828
40.6525
40.3115
39.9503
39.5658
39.1468
53.5914
53.4784
53.2139
52.7881
52.1898
51.3985
50.4007
49.1874
47.7523
46.0912
44.2084
42.1077
39.7965
37.2849
34.5876
31.7275
28.7377
25.6639
22.5665
19.5192
16.6085
13.9324
11.5958
9.69911
8.3346
7.57968
7.4854
8.07301
9.33225
11.2146
13.6536
16.5627
19.8407
23.3806
27.0799
30.8526
34.6369
38.3917
42.0769
45.6306
48.9674
51.9954
54.6461
56.8759
58.6343
59.8603
60.5279
60.5783
59.9774
58.5775
56.4804
54.6347
53.8913
54.5328
55.9381
57.3859
58.7944
60.2711
61.5452
62.306
62.4665
62.0499
61.1856
60.0051
58.6454
57.2401
55.8858
54.6463
53.5372
52.5456
51.6199
50.6924
49.6877
48.53
47.1676
45.5574
43.6453
41.377
38.7107
35.6205
32.102
28.1811
23.9132
19.3646
14.5875
9.60334
4.39828
-1.06384
-6.80191
-12.7685
-18.8151
-24.6761
-29.9917
-34.411
-37.6918
-39.6986
-40.3357
-39.7215
-37.7289
-34.464
-30.1023
-24.9056
-19.1739
-13.1889
-7.16876
-1.26429
4.4291
9.85094
14.9614
19.7359
24.1637
28.2607
32.0562
35.5825
38.8829
41.9696
44.8469
47.5142
49.9738
52.2348
54.3106
56.2098
57.9193
59.387
60.527
61.2511
61.509
61.3036
60.6851
59.7355
58.5505
57.2201
55.8172
54.3941
52.9865
51.6202
50.3177
49.0867
47.9379
46.877
45.9096
45.0467
44.305
43.7008
43.2456
42.9445
42.7933
42.7812
42.8744
43.0415
43.2436
43.4457
43.6282
43.783
43.9069
43.9994
44.0557
44.0704
44.0454
43.9905
43.9154
43.8248
43.7213
43.6109
43.5011
43.3885
43.2533
43.0732
42.8455
42.5843
42.2979
41.9871
41.6571
41.3192
40.9813
40.6404
40.288
39.9155
39.517
39.0849
53.9501
53.7983
53.4481
52.8959
52.1328
51.142
49.9106
48.4266
46.6789
44.6587
42.3613
39.7815
36.9177
33.7732
30.3603
26.703
22.8421
18.8361
14.7644
10.7258
6.83839
3.23216
0.0444139
-2.58055
-4.49989
-5.59657
-5.80003
-5.08652
-3.49638
-1.0812
2.07689
5.85703
10.1036
14.6398
19.2897
23.9043
28.3873
32.7129
36.9047
40.9672
44.8277
48.3514
51.409
53.924
55.8841
57.3145
58.2027
58.5012
58.1648
57.0755
55.0092
53.3175
52.7821
53.7349
55.4097
56.9234
58.2399
59.506
60.6123
61.359
61.6048
61.3063
60.5771
59.5481
58.3351
57.0564
55.8065
54.6498
53.6106
52.684
51.8234
50.9507
49.9762
48.8219
47.424
45.7303
43.6916
41.2567
38.3899
35.0713
31.3139
27.1719
22.7268
18.058
13.2078
8.1589
2.827
-2.90104
-9.11418
-15.7896
-22.6797
-29.3268
-35.2128
-39.9249
-43.2561
-45.1712
-45.7064
-44.7374
-42.3633
-38.6345
-33.7212
-27.9275
-21.6238
-15.1542
-8.76506
-2.60659
3.24738
8.75998
13.9083
18.6773
23.0545
27.0791
30.7868
34.2355
37.4761
40.5267
43.3768
46.0061
48.4045
50.5818
52.5654
54.3913
56.0795
57.5975
58.8494
59.7146
60.1098
60.0241
59.5079
58.6463
57.5363
56.2687
54.9194
53.5476
52.1946
50.886
49.6389
48.4623
47.3662
46.3594
45.4503
44.6489
43.9672
43.4171
43.0071
42.7401
42.6116
42.6088
42.7067
42.8749
43.0758
43.2827
43.4803
43.6563
43.8034
43.9215
44.0076
44.0529
44.0545
44.02
43.9601
43.8823
43.7894
43.683
43.5682
43.4469
43.3048
43.1192
42.8856
42.617
42.3242
42.0086
41.6746
41.3314
40.9849
40.6329
40.2688
39.8852
39.4744
39.0306
53.7558
53.5829
53.18
52.5419
51.658
50.5131
49.0914
47.3742
45.3425
42.9786
40.2682
37.198
33.7617
29.96
25.8051
21.3221
16.5529
11.5601
6.43149
1.2809
-3.75007
-8.49044
-12.7445
-16.312
-19.0013
-20.6208
-21.0599
-20.2678
-18.3964
-15.4151
-11.4071
-6.53581
-1.02258
4.87235
10.875
16.7295
22.2338
27.2809
31.9122
36.3063
40.5775
44.6523
48.3124
51.368
53.7722
55.5758
56.8108
57.5041
57.5684
56.9383
55.6089
54.202
53.7616
54.5977
56.2501
57.719
58.9357
59.9659
60.8029
61.3748
61.5209
61.1768
60.4568
59.476
58.3334
57.1264
55.9364
54.8254
53.8253
52.9392
52.1268
51.3045
50.3628
49.202
47.7471
45.947
43.7569
41.1298
38.0562
34.5255
30.5645
26.2479
21.682
16.9499
12.0749
6.98049
1.47688
-4.64751
-11.5347
-19.1207
-26.9673
-34.3401
-40.5533
-45.2478
-48.3877
-50.0953
-50.4552
-49.3779
-46.8242
-42.775
-37.3556
-30.9189
-23.9548
-16.9233
-10.1287
-3.71564
2.27765
7.8515
13.0063
17.7325
22.0311
25.9398
29.5216
32.8618
36.0332
39.062
41.919
44.5497
46.915
49.0131
50.8794
52.5782
54.1757
55.6831
57.0136
58.0152
58.5591
58.6038
58.1925
57.4154
56.3783
55.1812
53.9025
52.5976
51.3067
50.0594
48.8758
47.7656
46.7349
45.7912
44.9419
44.1975
43.5709
43.0728
42.7087
42.4794
42.3792
42.3933
42.5013
42.6764
42.8835
43.0989
43.3133
43.5139
43.6869
43.8312
43.9478
44.0276
44.061
44.0506
44.0075
43.941
43.8567
43.7565
43.6425
43.5152
43.365
43.1725
42.9321
42.6553
42.3536
42.0308
41.6928
41.346
40.9928
40.6307
40.2552
39.8604
39.4385
38.9839
53.2782
53.094
52.6578
51.9622
50.9931
49.7343
48.1634
46.2517
43.9706
41.2935
38.2004
34.6758
30.7112
26.3029
21.4524
16.1691
10.4772
4.42613
-1.89591
-8.35194
-14.7558
-20.8743
-26.4316
-31.1414
-34.7503
-37.051
-37.8896
-37.225
-35.0505
-31.4171
-26.4656
-20.3983
-13.4768
-6.01154
1.64565
9.13916
16.1544
22.4291
27.8343
32.5679
37.0213
41.4213
45.6496
49.3899
52.4389
54.7896
56.5268
57.7232
58.357
58.4261
57.8929
57.0641
56.7612
57.349
58.7274
60.0911
61.0829
61.9044
62.5733
62.7571
62.4437
61.7691
60.8632
59.7968
58.6305
57.4284
56.2512
55.1513
54.1634
53.2963
52.5172
51.7392
50.83
49.6555
48.1332
46.2181
43.8802
41.0438
37.7848
34.0667
29.9389
25.4958
20.8579
16.097
11.2168
6.05704
0.304099
-6.3334
-14.0243
-22.5793
-31.2742
-39.1054
-45.3682
-49.8715
-52.8204
-54.4746
-54.898
-54.0087
-51.5628
-47.3659
-41.4335
-34.1836
-26.3459
-18.6008
-11.3219
-4.63428
1.49347
7.11766
12.265
16.9307
21.1148
24.8605
28.261
31.4421
34.5172
37.531
40.4351
43.1255
45.5136
47.5699
49.3262
50.8687
52.3126
53.7307
55.0738
56.1767
56.8623
57.0462
56.7552
56.0766
55.117
53.9845
52.7706
51.5379
50.3241
49.1528
48.041
47.0007
46.0397
45.1635
44.3791
43.6952
43.1225
42.6719
42.35
42.1578
42.089
42.129
42.2585
42.4522
42.6772
42.9098
43.1444
43.3714
43.5725
43.7418
43.8847
43.997
44.0651
44.0826
44.0569
44.0007
43.9239
43.8304
43.7193
43.5886
43.4306
43.23
42.9818
42.6961
42.384
42.053
41.7108
41.3617
41.0038
40.6334
40.2475
39.8417
39.4092
38.9445
52.9082
52.712
52.2478
51.5064
50.4699
49.1215
47.4327
45.3642
42.8778
39.9402
36.5289
32.6261
28.2174
23.2848
17.8064
11.7631
5.15385
-1.98146
-9.53924
-17.3369
-25.1133
-32.5472
-39.2811
-44.9556
-49.2588
-51.9747
-52.9538
-52.3296
-49.9245
-45.8258
-40.1907
-33.229
-25.2128
-16.468
-7.38435
1.62273
10.2129
18.0313
24.6919
30.0651
34.6791
39.1531
43.7064
48.0513
51.7934
54.783
57.103
58.8551
60.1137
60.9263
61.2413
61.1486
61.1034
61.565
62.517
63.6266
64.166
64.5517
64.8789
64.6459
63.8677
62.8355
61.6876
60.4761
59.2344
57.9958
56.7987
55.6822
54.6773
53.7946
53.0082
52.2389
51.3462
50.1528
48.5582
46.5186
44.0194
41.044
37.6136
33.7473
29.5056
24.9863
20.2965
15.5201
10.6175
5.35117
-0.703888
-7.89138
-16.3646
-25.7547
-35.082
-43.15
-49.3625
-53.689
-56.6067
-58.4584
-59.2491
-58.8267
-56.7024
-52.4739
-45.9914
-37.7421
-28.81
-20.222
-12.3953
-5.41686
0.843794
6.52162
11.6737
16.29
20.3529
23.8996
27.0507
29.9901
32.9003
35.8725
38.8477
41.6574
44.1391
46.2164
47.9041
49.2982
50.5576
51.8228
53.1032
54.2476
55.046
55.3627
55.1932
54.6226
53.7581
52.7039
51.5563
50.39
49.2508
48.1623
47.1352
46.1759
45.2902
44.4835
43.7628
43.1375
42.6182
42.2148
41.9351
41.7816
41.7484
41.821
41.98
42.2029
42.4592
42.723
42.9856
43.2403
43.47
43.6646
43.83
43.9682
44.0675
44.1142
44.1084
44.0631
43.9925
43.9039
43.7958
43.6633
43.4982
43.2888
43.0319
42.737
42.4155
42.0768
41.7302
41.3788
41.0173
40.6402
40.245
39.8287
39.3862
38.9121
53.0383
52.8118
52.3068
51.5151
50.4105
48.9812
47.1972
45.01
42.3734
39.2454
35.5997
31.4149
26.6679
21.3253
15.3414
8.67368
1.30573
-6.71711
-15.2561
-24.0753
-32.857
-41.2217
-48.7578
-55.0792
-59.8396
-62.8578
-64.0145
-63.3876
-60.885
-56.5237
-50.4278
-42.8202
-34.013
-24.355
-14.2382
-4.17363
5.46122
14.4867
22.3901
28.6733
33.4718
37.9329
42.6051
47.4124
51.7652
55.3728
58.2401
60.5126
62.3197
63.7644
64.8262
65.4489
65.7421
66.0802
66.5781
67.053
67.0561
66.7849
66.5116
66.025
65.1733
64.0506
62.7785
61.4561
60.1367
58.8471
57.6105
56.4533
55.3996
54.4583
53.607
52.7817
51.8618
50.6462
48.9878
46.8354
44.2011
41.0968
37.5467
33.5873
29.2821
24.7257
20.0224
15.2267
10.2632
4.83158
-1.51862
-9.15572
-18.2431
-28.2251
-37.9714
-46.1951
-52.3937
-56.6624
-59.6954
-61.8682
-63.2232
-63.3624
-61.6342
-57.5013
-50.5694
-41.3434
-31.3291
-21.8328
-13.4368
-6.16665
0.23265
5.98242
11.1713
15.7793
19.7588
23.1223
25.9973
28.6209
31.2658
34.1122
37.127
40.0808
42.713
44.8766
46.5539
47.8358
48.9139
49.9942
51.1504
52.267
53.1285
53.5605
53.5141
53.0538
52.29
51.3281
50.2614
49.1688
48.1049
47.0983
46.1594
45.2892
44.4876
43.756
43.1003
42.5317
42.0628
41.7048
41.4665
41.3519
41.356
41.4648
41.6603
41.921
42.219
42.5266
42.829
43.1181
43.38
43.6032
43.7906
43.9488
44.0725
44.1465
44.1623
44.1286
44.0632
43.9776
43.8713
43.7369
43.5653
43.3471
43.0816
42.7786
42.4497
42.1049
41.7538
41.3989
41.0334
40.6501
40.2464
39.8204
39.3686
38.8859
53.91
53.6079
53.0376
52.1782
51.0011
49.501
47.6492
45.3897
42.6709
39.4404
35.6647
31.319
26.3754
20.7938
14.5148
7.4823
-0.326016
-8.85863
-17.9405
-27.2888
-36.6035
-45.5248
-53.5515
-60.3902
-65.4314
-68.7019
-70.1142
-69.4031
-66.7585
-62.1716
-55.7813
-47.8164
-38.6116
-28.5203
-17.8414
-7.16289
2.96936
12.4799
21.1404
28.155
33.2781
37.7089
42.3614
47.4133
52.2265
56.3466
59.6773
62.3627
64.5777
66.4176
67.9489
69.1425
69.9016
70.2578
70.3257
70.1618
69.6505
68.8967
68.1552
67.4604
66.604
65.4688
64.1143
62.6953
61.2935
59.9363
58.6372
57.4122
56.2776
55.239
54.2744
53.3306
52.3198
51.0687
49.3734
47.1485
44.4159
41.2193
37.5991
33.5993
29.2731
24.7008
19.9776
15.1474
10.1126
4.54829
-2.0236
-9.9677
-19.3801
-29.6678
-39.6246
-47.9999
-54.3049
-58.6645
-61.798
-64.1199
-65.7855
-66.3431
-65.1391
-61.4386
-54.4958
-44.6773
-33.7534
-23.4327
-14.5281
-6.9953
-0.454991
5.38666
10.6436
15.2902
19.2505
22.4989
25.1436
27.4509
29.7736
32.3976
35.361
38.4117
41.1968
43.4839
45.2044
46.4235
47.3467
48.2375
49.2362
50.2689
51.1324
51.6379
51.7023
51.3569
50.7008
49.8417
48.8712
47.8669
46.8885
45.97
45.1228
44.345
43.6313
42.9791
42.3923
41.8812
41.4603
41.1446
40.9459
40.8687
40.9089
41.0552
41.2914
41.5969
41.9448
42.3064
42.6608
42.9948
43.2957
43.5533
43.7671
43.9443
44.0864
44.1825
44.2188
44.1976
44.1371
44.0528
43.9463
43.8088
43.6308
43.4049
43.1319
42.8222
42.4879
42.1389
41.7833
41.4233
41.0524
40.6625
40.2507
39.8157
39.3554
38.8651
55.6192
55.2222
54.543
53.5843
52.3272
50.7659
48.8754
46.601
43.8826
40.659
36.8844
32.5273
27.5585
21.9402
15.6205
8.54491
0.690426
-7.89064
-17.0399
-26.4934
-35.9072
-44.8805
-52.9811
-59.8049
-64.9953
-68.3456
-69.7537
-69.1396
-66.5261
-61.9605
-55.6091
-47.7215
-38.607
-28.6095
-18.0005
-7.23843
3.01992
12.5091
21.198
28.4906
33.8554
38.2294
42.7904
47.9205
53.0185
57.5056
61.1748
64.1521
66.6298
68.7211
70.4794
71.9212
73.0618
73.7686
73.904
73.5352
72.7552
71.8468
70.8992
69.9218
68.7483
67.2962
65.6909
64.0877
62.557
61.1104
59.7395
58.4361
57.2035
56.0468
54.9471
53.8539
52.6998
51.3748
49.6705
47.4382
44.6633
41.4196
37.7727
33.7761
29.4688
24.9035
20.1611
15.2829
10.1856
4.55991
-2.06757
-10.0768
-19.5512
-29.8842
-39.9121
-48.4559
-54.97
-59.4592
-62.5499
-64.7391
-66.2926
-66.9871
-66.3005
-63.3345
-56.8962
-46.999
-35.6021
-24.8091
-15.6198
-7.93058
-1.28273
4.64191
9.9597
14.649
18.6295
21.8446
24.3588
26.4294
28.4588
30.8243
33.6507
36.7066
39.5847
41.9811
43.7718
44.9762
45.7849
46.4963
47.3144
48.2204
49.0375
49.5731
49.7199
49.4809
48.9359
48.1903
47.3362
46.445
45.5733
44.7584
44.0143
43.3366
42.7157
42.1457
41.6283
41.1747
40.8016
40.5272
40.3668
40.3272
40.4057
40.5924
40.8725
41.2269
41.6307
42.0537
42.4696
42.8595
43.2096
43.5099
43.757
43.956
44.1136
44.2261
44.2799
44.2713
44.2157
44.1315
44.0224
43.8802
43.6957
43.4632
43.1841
42.869
42.5307
42.1785
41.8187
41.4526
41.0746
40.6773
40.2573
39.814
39.3459
38.8489
57.9629
57.4261
56.5838
55.5162
54.2022
52.6255
50.7634
48.5651
45.9629
42.885
39.2711
35.081
30.2888
24.8717
18.7985
12.0334
4.56154
-3.57541
-12.2488
-21.2299
-30.1993
-38.7766
-46.5548
-53.1474
-58.2238
-61.5424
-63.0083
-62.5957
-60.2348
-55.968
-49.9926
-42.562
-33.9507
-24.5037
-14.5062
-4.32787
5.43103
14.4564
22.7141
29.7155
34.9509
39.2069
43.6921
48.8466
54.0782
58.7374
62.5585
65.655
68.2278
70.408
72.2551
73.7674
74.9182
75.7581
76.2266
76.1611
75.6692
74.7836
73.6538
72.2914
70.671
68.8639
67.0249
65.2651
63.6177
62.0815
60.6462
59.2898
57.9889
56.7322
55.5091
54.2811
52.9851
51.5537
49.8448
47.6664
44.9282
41.693
38.0606
34.104
29.8559
25.3372
20.5994
15.6912
10.5681
4.97014
-1.54631
-9.36897
-18.5914
-28.677
-38.6093
-47.2906
-54.0526
-58.7067
-61.7161
-63.5986
-64.7219
-65.1333
-64.6218
-62.2676
-56.5612
-47.18
-36.08
-25.5063
-16.4746
-8.84553
-2.18986
3.75083
9.05951
13.7211
17.6804
20.8855
23.3641
25.3274
27.1735
29.3279
31.9918
34.9852
37.8926
40.3653
42.2307
43.4596
44.2099
44.7824
45.4174
46.1569
46.8761
47.3974
47.595
47.4445
47.0052
46.3747
45.6486
44.8968
44.1639
43.4787
42.8551
42.2874
41.7642
41.2772
40.8277
40.4281
40.0983
39.8607
39.7353
39.7334
39.8543
40.0881
40.4186
40.8266
41.2886
41.7749
42.2557
42.7088
43.1177
43.4697
43.7573
43.9826
44.1555
44.2803
44.3475
44.3501
44.2993
44.2141
44.1006
43.9523
43.7609
43.5224
43.2385
42.9191
42.5773
42.2226
41.8589
41.4863
41.1004
40.6948
40.2666
39.8153
39.3398
38.8367
59.9225
59.4261
58.4779
57.3625
56.0649
54.5494
52.7971
50.7672
48.387
45.5717
42.2469
38.3625
33.893
28.8295
23.1666
16.897
10.0235
2.5843
-5.31758
-13.4961
-21.682
-29.5469
-36.7326
-42.8934
-47.7285
-50.999
-52.5705
-52.3804
-50.3553
-46.5593
-41.1873
-34.4692
-26.6479
-18.0337
-8.90215
0.385441
9.27481
17.4701
24.9279
31.2659
36.1279
40.2621
44.7453
49.9368
55.197
59.8575
63.677
66.7487
69.2838
71.4319
73.233
74.7195
75.9042
76.7157
77.1673
77.3066
77.0339
76.2385
75.0809