/*--------------------------------*- C++ -*----------------------------------*\
  =========                 |
  \\      /  F ield         | OpenFOAM: The Open Source CFD Toolbox
   \\    /   O peration     | Website:  https://openfoam.org
    \\  /    A nd           | Version:  9
     \\/     M anipulation  |
\*---------------------------------------------------------------------------*/
FoamFile
{
    format      ascii;
    class       surfaceScalarField;
    location    "0.052";
    object      phi;
}
// * * * * * * * * * * * * * * * * * * * * * * * * * * * * * * * * * * * * * //

dimensions      [0 3 -1 0 0 0 0];

internalField   nonuniform List<scalar> 
24170
(
3.07511e-06
6.50154e-08
2.96201e-06
1.131e-07
2.85385e-06
1.08162e-07
2.76891e-06
8.49425e-08
2.69942e-06
6.94847e-08
2.63509e-06
6.43331e-08
2.56763e-06
6.74619e-08
2.49185e-06
7.57809e-08
2.40903e-06
8.28137e-08
2.32215e-06
8.68818e-08
2.23563e-06
8.65202e-08
2.14869e-06
8.69391e-08
2.05919e-06
8.95007e-08
1.9637e-06
9.54876e-08
1.86434e-06
9.93596e-08
1.75504e-06
1.09309e-07
1.63029e-06
1.2475e-07
1.45055e-07
1.48523e-06
3.44652e-06
7.2192e-08
3.4348e-06
1.2482e-07
3.44198e-06
1.00975e-07
3.42812e-06
9.88046e-08
3.40714e-06
9.04702e-08
3.40013e-06
7.13391e-08
3.4084e-06
5.91896e-08
3.41916e-06
6.50285e-08
3.42148e-06
8.04907e-08
3.41301e-06
9.53501e-08
3.39795e-06
1.01581e-07
3.38159e-06
1.03303e-07
3.36533e-06
1.05751e-07
3.34424e-06
1.16584e-07
3.31469e-06
1.28911e-07
3.26899e-06
1.55005e-07
3.20319e-06
1.90549e-07
2.18652e-07
3.1296e-06
3.6259e-06
8.4084e-08
3.66568e-06
8.50419e-08
3.68983e-06
7.68243e-08
3.69213e-06
9.6503e-08
3.6808e-06
1.01797e-07
3.66964e-06
8.2506e-08
3.66508e-06
6.37469e-08
3.6667e-06
6.34072e-08
3.67041e-06
7.67803e-08
3.67368e-06
9.2079e-08
3.67504e-06
1.00225e-07
3.67608e-06
1.02266e-07
3.67802e-06
1.03809e-07
3.68164e-06
1.12959e-07
3.68255e-06
1.28007e-07
3.68244e-06
1.55111e-07
3.68104e-06
1.91947e-07
2.21938e-07
3.67776e-06
3.87933e-06
-9.36362e-09
3.91091e-06
5.34547e-08
3.91942e-06
6.83142e-08
3.93133e-06
8.45975e-08
3.95147e-06
8.16611e-08
3.96993e-06
6.40431e-08
3.97747e-06
5.62076e-08
3.97295e-06
6.79213e-08
3.95997e-06
8.976e-08
3.94407e-06
1.07985e-07
3.92955e-06
1.14743e-07
3.91964e-06
1.12179e-07
3.91485e-06
1.08596e-07
3.91424e-06
1.13565e-07
3.91492e-06
1.27334e-07
3.91719e-06
1.52835e-07
3.92202e-06
1.87121e-07
2.20624e-07
3.92333e-06
4.12433e-06
-2.5605e-08
4.1633e-06
1.44893e-08
4.19979e-06
3.18205e-08
4.23924e-06
4.51508e-08
4.26438e-06
5.6526e-08
4.2616e-06
6.68218e-08
4.23628e-06
8.15245e-08
4.20544e-06
9.87642e-08
4.18366e-06
1.11541e-07
4.17685e-06
1.14791e-07
4.18256e-06
1.09031e-07
4.19438e-06
1.00356e-07
4.20566e-06
9.73195e-08
4.21268e-06
1.0655e-07
4.21375e-06
1.26255e-07
4.21133e-06
1.55263e-07
4.20917e-06
1.89274e-07
2.21892e-07
4.20791e-06
4.47243e-06
-7.05216e-08
4.48992e-06
-3.00784e-09
4.47363e-06
4.81118e-08
4.47157e-06
4.72156e-08
4.48772e-06
4.0373e-08
4.50577e-06
4.87734e-08
4.51693e-06
7.03627e-08
4.52133e-06
9.43666e-08
4.52181e-06
1.11056e-07
4.52055e-06
1.16058e-07
4.51922e-06
1.1036e-07
4.5196e-06
9.99677e-08
4.5233e-06
9.36224e-08
4.53104e-06
9.88119e-08
4.54149e-06
1.15802e-07
4.55377e-06
1.42987e-07
4.56637e-06
1.76668e-07
2.11048e-07
4.57722e-06
4.80409e-06
-1.68407e-07
4.88696e-06
-8.58837e-08
4.90287e-06
3.22076e-08
4.87554e-06
7.45427e-08
4.83717e-06
7.87416e-08
4.80649e-06
7.94586e-08
4.78733e-06
8.95237e-08
4.77855e-06
1.03147e-07
4.77853e-06
1.11069e-07
4.7853e-06
1.0929e-07
4.79572e-06
9.99391e-08
4.80595e-06
8.97437e-08
4.81358e-06
8.59879e-08
4.81795e-06
9.44471e-08
4.8197e-06
1.14043e-07
4.82011e-06
1.42585e-07
4.8211e-06
1.75679e-07
2.09879e-07
4.82226e-06
5.1392e-06
7.66644e-10
5.1833e-06
-1.29985e-07
5.23024e-06
-1.47272e-08
5.23558e-06
6.92005e-08
5.20544e-06
1.08881e-07
5.17496e-06
1.09941e-07
5.17305e-06
9.14271e-08
5.20275e-06
7.34527e-08
5.24665e-06
6.7163e-08
5.28165e-06
7.42965e-08
5.29174e-06
8.98449e-08
5.27465e-06
1.06832e-07
5.2402e-06
1.20439e-07
5.20375e-06
1.30901e-07
5.17703e-06
1.40766e-07
5.1654e-06
1.5421e-07
5.16844e-06
1.72637e-07
1.97173e-07
5.18115e-06
5.50811e-06
-1.42048e-07
5.51804e-06
-1.39915e-07
5.55379e-06
-5.04841e-08
5.59868e-06
2.43151e-08
5.63806e-06
6.95032e-08
5.66032e-06
8.76766e-08
5.66367e-06
8.80756e-08
5.65429e-06
8.28348e-08
5.64069e-06
8.0762e-08
5.62836e-06
8.66259e-08
5.61864e-06
9.95684e-08
5.61025e-06
1.15222e-07
5.60183e-06
1.2886e-07
5.59336e-06
1.39371e-07
5.5864e-06
1.47727e-07
5.58296e-06
1.57649e-07
5.58532e-06
1.70273e-07
1.88443e-07
5.59405e-06
5.97663e-06
-3.70363e-07
6.0662e-06
-2.29485e-07
6.0866e-06
-7.0884e-08
6.0692e-06
4.17107e-08
6.04161e-06
9.70944e-08
6.03099e-06
9.82974e-08
6.03663e-06
8.24317e-08
6.04076e-06
7.87076e-08
6.03046e-06
9.10602e-08
6.00723e-06
1.09856e-07
5.981e-06
1.25796e-07
5.96001e-06
1.36211e-07
5.94663e-06
1.42243e-07
5.93909e-06
1.46915e-07
5.9345e-06
1.52314e-07
5.93164e-06
1.60504e-07
5.93043e-06
1.71487e-07
1.856e-07
5.93327e-06
6.4041e-06
-2.79927e-07
6.376e-06
-2.01386e-07
6.3434e-06
-3.82865e-08
6.29663e-06
8.84883e-08
6.2807e-06
1.13018e-07
6.30269e-06
7.63154e-08
6.34758e-06
3.75349e-08
6.39703e-06
2.92625e-08
6.4371e-06
5.09911e-08
6.46161e-06
8.53414e-08
6.47202e-06
1.15391e-07
6.47442e-06
1.33804e-07
6.47548e-06
1.41191e-07
6.47982e-06
1.42569e-07
6.48875e-06
1.43388e-07
6.50145e-06
1.478e-07
6.51501e-06
1.57933e-07
1.73402e-07
6.5272e-06
5.67728e-06
-2.63026e-07
5.62063e-06
-1.44741e-07
5.67201e-06
-8.96635e-08
5.75407e-06
6.4263e-09
5.80856e-06
5.8534e-08
5.82939e-06
5.54774e-08
5.82669e-06
4.02419e-08
5.81075e-06
4.5197e-08
5.79073e-06
7.10092e-08
5.77548e-06
1.00593e-07
5.77072e-06
1.20151e-07
5.77616e-06
1.28362e-07
5.78656e-06
1.30798e-07
5.79423e-06
1.34895e-07
5.79483e-06
1.42791e-07
5.78714e-06
1.55483e-07
5.77494e-06
1.70134e-07
1.848e-07
5.76355e-06
7.01561e-06
-9.75343e-08
6.99323e-06
-1.22365e-07
6.98206e-06
-7.84886e-08
6.97304e-06
1.54431e-08
6.96759e-06
6.3981e-08
6.96267e-06
6.04032e-08
6.9607e-06
4.2209e-08
6.96489e-06
4.10072e-08
6.97584e-06
6.00563e-08
6.99298e-06
8.34604e-08
7.01482e-06
9.83047e-08
7.03825e-06
1.04934e-07
7.05839e-06
1.10664e-07
7.07052e-06
1.22763e-07
7.07187e-06
1.4144e-07
7.06398e-06
1.63367e-07
7.05158e-06
1.82537e-07
1.95803e-07
7.04058e-06
8.55175e-06
-1.20813e-07
8.61568e-06
-1.86293e-07
8.6382e-06
-1.0101e-07
8.64163e-06
1.20129e-08
8.62631e-06
7.93046e-08
8.59771e-06
8.8995e-08
8.58309e-06
5.68296e-08
8.60109e-06
2.30114e-08
8.64376e-06
1.7385e-08
8.68558e-06
4.1642e-08
8.70339e-06
8.04887e-08
8.69024e-06
1.18091e-07
8.65568e-06
1.4522e-07
8.61768e-06
1.60766e-07
8.59172e-06
1.67399e-07
8.58547e-06
1.6962e-07
8.59974e-06
1.68268e-07
1.66227e-07
8.62931e-06
1.03045e-05
2.18281e-08
1.03803e-05
-2.6209e-07
1.04401e-05
-1.60732e-07
1.0472e-05
-1.99174e-08
1.05025e-05
4.87894e-08
1.05372e-05
5.42682e-08
1.05694e-05
2.46866e-08
1.05966e-05
-4.20675e-09
1.06242e-05
-1.0188e-08
1.06552e-05
1.05819e-08
1.06831e-05
5.26027e-08
1.06971e-05
1.04062e-07
1.06899e-05
1.52454e-07
1.06618e-05
1.88914e-07
1.06209e-05
2.08219e-07
1.0579e-05
2.11554e-07
1.05462e-05
2.01067e-07
1.8242e-07
1.053e-05
1.29614e-05
-1.39809e-07
1.28816e-05
-1.82263e-07
1.27634e-05
-4.25118e-08
1.26744e-05
6.90827e-08
1.26499e-05
7.33238e-08
1.26835e-05
2.06108e-08
1.27376e-05
-2.94029e-08
1.27791e-05
-4.57132e-08
1.28042e-05
-3.526e-08
1.2825e-05
-1.02361e-08
1.28524e-05
2.5167e-08
1.28894e-05
6.71003e-08
1.29307e-05
1.11151e-07
1.29695e-05
1.50093e-07
1.30012e-05
1.76591e-07
1.30253e-05
1.87421e-07
1.30432e-05
1.83203e-07
1.68151e-07
1.30574e-05
1.54925e-05
-1.41763e-07
1.55009e-05
-1.9058e-07
1.55028e-05
-4.44463e-08
1.55292e-05
4.27009e-08
1.5529e-05
7.34907e-08
1.5489e-05
6.06172e-08
1.54257e-05
3.39164e-08
1.53713e-05
8.63608e-09
1.53474e-05
-1.13671e-08
1.53612e-05
-2.3981e-08
1.54113e-05
-2.49954e-08
1.54884e-05
-9.94903e-09
1.55823e-05
1.72501e-08
1.56808e-05
5.15428e-08
1.57747e-05
8.26964e-08
1.58581e-05
1.04071e-07
1.59277e-05
1.13589e-07
1.13384e-07
1.59825e-05
1.90937e-05
-2.12579e-07
1.90726e-05
-1.6947e-07
1.91335e-05
-1.05359e-07
1.92444e-05
-6.82311e-08
1.93524e-05
-3.45192e-08
1.94162e-05
-3.15492e-09
1.94404e-05
9.70192e-09
1.94508e-05
-1.74222e-09
1.94599e-05
-2.04356e-08
1.94654e-05
-2.95297e-08
1.94611e-05
-2.06914e-08
1.94454e-05
5.75945e-09
1.94204e-05
4.22852e-08
1.9394e-05
7.79563e-08
1.93724e-05
1.04296e-07
1.93584e-05
1.18008e-07
1.93534e-05
1.18605e-07
1.09769e-07
1.9357e-05
2.30983e-05
3.78864e-09
2.29658e-05
-3.69245e-08
2.29423e-05
-8.19245e-08
2.29298e-05
-5.56504e-08
2.29303e-05
-3.50477e-08
2.29717e-05
-4.45292e-08
2.30422e-05
-6.08515e-08
2.31024e-05
-6.19042e-08
2.3127e-05
-4.50337e-08
2.31157e-05
-1.82346e-08
2.30876e-05
7.36153e-09
2.30654e-05
2.8025e-08
2.30649e-05
4.2767e-08
2.30904e-05
5.24391e-08
2.31373e-05
5.73667e-08
2.31974e-05
5.79914e-08
2.32623e-05
5.36909e-08
4.51774e-08
2.33269e-05
1.72755e-05
8.1338e-08
1.71261e-05
1.1247e-07
1.70348e-05
9.40778e-09
1.70017e-05
-2.25818e-08
1.6979e-05
-1.23167e-08
1.694e-05
-5.52547e-09
1.689e-05
-1.08619e-08
1.68505e-05
-2.24633e-08
1.6839e-05
-3.34933e-08
1.68553e-05
-3.4566e-08
1.68869e-05
-2.42462e-08
1.69233e-05
-8.36621e-09
1.69572e-05
8.8485e-09
1.69902e-05
1.94306e-08
1.70258e-05
2.17797e-08
1.70662e-05
1.76585e-08
1.71109e-05
8.96686e-09
-3.20518e-10
1.71564e-05
1.45678e-05
4.96262e-08
1.46117e-05
6.85328e-08
1.46041e-05
1.70128e-08
1.45831e-05
-1.60389e-09
1.45498e-05
2.10241e-08
1.45032e-05
4.11077e-08
1.44724e-05
1.99076e-08
1.44846e-05
-3.47172e-08
1.45359e-05
-8.47819e-08
1.46032e-05
-1.01797e-07
1.46627e-05
-8.37471e-08
1.47016e-05
-4.72742e-08
1.47219e-05
-1.14519e-08
1.47329e-05
8.44092e-09
1.4742e-05
1.26556e-08
1.47541e-05
5.53473e-09
1.47721e-05
-8.99942e-09
-2.21974e-08
1.4794e-05
1.27009e-05
-1.47113e-07
1.28433e-05
-7.39367e-08
1.29202e-05
-5.98673e-08
1.29399e-05
-2.13162e-08
1.29173e-05
4.36176e-08
1.28712e-05
8.72009e-08
1.28104e-05
8.07384e-08
1.27448e-05
3.08955e-08
1.26843e-05
-2.4325e-08
1.26399e-05
-5.73141e-08
1.26167e-05
-6.05885e-08
1.26136e-05
-4.41353e-08
1.26258e-05
-2.36474e-08
1.26447e-05
-1.04685e-08
1.26652e-05
-7.9143e-09
1.26839e-05
-1.31114e-08
1.26971e-05
-2.22084e-08
-3.01016e-08
1.2705e-05
1.10083e-05
-1.40636e-07
1.08825e-05
5.18146e-08
1.08326e-05
-9.89728e-09
1.08555e-05
-4.42614e-08
1.09219e-05
-2.28252e-08
1.10104e-05
-1.2291e-09
1.1093e-05
-1.83408e-09
1.11494e-05
-2.55329e-08
1.11787e-05
-5.36809e-08
1.11908e-05
-6.93909e-08
1.11967e-05
-6.646e-08
1.12015e-05
-4.8931e-08
1.12049e-05
-2.70367e-08
1.12049e-05
-1.0476e-08
1.12015e-05
-4.5269e-09
1.11968e-05
-8.43792e-09
1.11933e-05
-1.87409e-08
-3.01211e-08
1.11934e-05
9.61595e-06
5.63346e-08
9.62412e-06
4.36453e-08
9.6732e-06
-5.89781e-08
9.73669e-06
-1.07754e-07
9.8072e-06
-9.33314e-08
9.84792e-06
-4.1946e-08
9.83623e-06
9.85249e-09
9.78534e-06
2.53586e-08
9.72709e-06
4.57078e-09
9.6834e-06
-2.57068e-08
9.66548e-06
-4.85389e-08
9.67106e-06
-5.45046e-08
9.69081e-06
-4.67891e-08
9.71462e-06
-3.42853e-08
9.73537e-06
-2.52748e-08
9.75001e-06
-2.30798e-08
9.75894e-06
-2.76685e-08
-3.57576e-08
9.76457e-06
8.20978e-06
2.03515e-08
8.28461e-06
-3.11854e-08
8.39217e-06
-1.6654e-07
8.48834e-06
-2.03916e-07
8.54703e-06
-1.52029e-07
8.54895e-06
-4.38598e-08
8.50994e-06
4.88549e-08
8.44991e-06
8.53916e-08
8.39076e-06
6.3723e-08
8.34754e-06
1.75162e-08
8.3262e-06
-2.72061e-08
8.32399e-06
-5.22948e-08
8.33612e-06
-5.89194e-08
8.35617e-06
-5.4329e-08
8.37812e-06
-4.72285e-08
8.39794e-06
-4.29029e-08
8.41376e-06
-4.34823e-08
-4.87281e-08
8.42673e-06
7.43819e-06
-9.95568e-09
7.48051e-06
-7.35078e-08
7.46481e-06
-1.50842e-07
7.42356e-06
-1.62664e-07
7.38292e-06
-1.11389e-07
7.37369e-06
-3.46288e-08
7.39206e-06
3.04854e-08
7.42332e-06
5.41351e-08
7.44688e-06
4.01546e-08
7.45714e-06
7.26554e-09
7.45369e-06
-2.37562e-08
7.44738e-06
-4.59921e-08
7.44396e-06
-5.55004e-08
7.44407e-06
-5.44359e-08
7.44465e-06
-4.78045e-08
7.44264e-06
-4.08977e-08
7.43654e-06
-3.73836e-08
-3.95046e-08
7.42732e-06
6.38601e-06
6.85815e-08
6.42773e-06
-1.15233e-07
6.4575e-06
-1.80607e-07
6.44244e-06
-1.47609e-07
6.40438e-06
-7.33209e-08
6.3679e-06
1.85088e-09
6.35301e-06
4.53676e-08
6.36108e-06
4.6067e-08
6.38454e-06
1.67013e-08
6.41545e-06
-2.36478e-08
6.44762e-06
-5.59301e-08
6.47518e-06
-7.35462e-08
6.49588e-06
-7.62054e-08
6.51001e-06
-6.85627e-08
6.51898e-06
-5.67772e-08
6.52456e-06
-4.64785e-08
6.52808e-06
-4.09057e-08
-4.13538e-08
6.52993e-06
5.62391e-06
-1.10224e-08
5.63234e-06
-1.23656e-07
5.57643e-06
-1.24703e-07
5.50252e-06
-7.36993e-08
5.46297e-06
-3.37669e-08
5.47899e-06
-1.41705e-08
5.53989e-06
-1.55289e-08
5.61445e-06
-2.84983e-08
5.67209e-06
-4.09393e-08
5.6975e-06
-4.90559e-08
5.69574e-06
-5.4172e-08
5.68107e-06
-5.88769e-08
5.66736e-06
-6.24947e-08
5.66174e-06
-6.29442e-08
5.66411e-06
-5.91414e-08
5.67058e-06
-5.295e-08
5.67614e-06
-4.64635e-08
-4.22512e-08
5.67704e-06
4.81248e-06
-1.85828e-07
4.85532e-06
-1.66493e-07
4.81948e-06
-8.88676e-08
4.7915e-06
-4.57189e-08
4.79491e-06
-3.71738e-08
4.83209e-06
-5.13522e-08
4.88757e-06
-7.10105e-08
4.93737e-06
-7.83007e-08
4.96369e-06
-6.72603e-08
4.96307e-06
-4.84323e-08
4.94505e-06
-3.6151e-08
4.92256e-06
-3.63872e-08
4.90433e-06
-4.42695e-08
4.89219e-06
-5.08008e-08
4.88365e-06
-5.0604e-08
4.87511e-06
-4.44072e-08
4.86413e-06
-3.54818e-08
-2.89585e-08
4.85084e-06
4.18218e-06
4.01568e-06
3.92682e-06
3.8811e-06
3.84392e-06
3.79257e-06
3.72156e-06
3.64326e-06
3.576e-06
3.52757e-06
3.49142e-06
3.45503e-06
3.41076e-06
3.35996e-06
3.30935e-06
3.26495e-06
3.22947e-06
3.20051e-06
-4.08894e-07
4.08894e-07
-7.38794e-07
3.299e-07
-9.10182e-07
1.71388e-07
-8.42847e-07
-6.73359e-08
-5.16756e-07
-3.26091e-07
-5.21316e-08
-4.64624e-07
4.03053e-07
-4.55184e-07
7.75791e-07
-3.72738e-07
1.02606e-06
-2.50274e-07
1.14461e-06
-1.18547e-07
1.16392e-06
-1.93123e-08
1.10469e-06
5.92349e-08
9.89583e-07
1.15106e-07
8.41133e-07
1.4845e-07
6.8411e-07
1.57023e-07
5.32513e-07
1.51596e-07
3.9283e-07
1.39683e-07
2.67496e-07
1.25334e-07
1.56488e-07
1.11008e-07
5.89957e-08
9.74923e-08
-2.56028e-08
8.45984e-08
-9.75347e-08
7.19319e-08
-1.5654e-07
5.90057e-08
-2.00444e-07
4.39033e-08
-2.26001e-07
2.55577e-08
-2.30928e-07
4.92667e-09
-2.07666e-07
-2.32616e-08
-1.52486e-07
-5.51801e-08
-6.30778e-08
-8.94085e-08
6.0172e-08
-1.2325e-07
2.19356e-07
-1.59184e-07
4.13719e-07
-1.94363e-07
6.36316e-07
-2.22597e-07
8.83459e-07
-2.47143e-07
1.14338e-06
-2.59918e-07
1.40207e-06
-2.58689e-07
1.65507e-06
-2.53002e-07
1.85835e-06
-2.03286e-07
2.01889e-06
-1.60534e-07
2.10489e-06
-8.60006e-08
1.99715e-06
1.07739e-07
1.79826e-06
1.98887e-07
1.26301e-06
5.35256e-07
5.2519e-07
7.37816e-07
6.16449e-08
4.63545e-07
-2.52492e-07
3.14137e-07
-6.32158e-07
3.79666e-07
-1.16199e-06
5.29829e-07
-1.75499e-06
5.93003e-07
-2.32352e-06
5.68533e-07
-2.79382e-06
4.70297e-07
-3.10904e-06
3.15223e-07
-3.22276e-06
1.13715e-07
-3.09673e-06
-1.26033e-07
-2.69681e-06
-3.99917e-07
-1.98878e-06
-7.08027e-07
-9.59088e-07
-1.02969e-06
3.81872e-07
-1.34096e-06
1.84463e-06
-1.46276e-06
3.03611e-06
-1.19148e-06
3.72182e-06
-6.85717e-07
3.92241e-06
-2.0059e-07
3.72454e-06
1.97877e-07
3.34395e-06
3.80586e-07
3.04413e-06
2.99825e-07
2.86823e-06
1.75893e-07
2.71466e-06
1.53573e-07
2.46996e-06
2.447e-07
2.03317e-06
4.36787e-07
1.34066e-06
6.92519e-07
4.78697e-07
8.61959e-07
-3.92971e-07
8.71668e-07
-1.20281e-06
8.09835e-07
-1.92908e-06
7.26274e-07
-2.57039e-06
6.41308e-07
-3.13574e-06
5.65349e-07
-3.63946e-06
5.03726e-07
-4.09761e-06
4.58147e-07
-4.52548e-06
4.27874e-07
-4.93624e-06
4.10759e-07
-5.34022e-06
4.03974e-07
-5.74477e-06
4.04554e-07
-6.15449e-06
4.0972e-07
-6.57148e-06
4.16987e-07
-6.99568e-06
4.24202e-07
-7.4252e-06
4.29521e-07
-7.85655e-06
4.3135e-07
-8.2849e-06
4.28346e-07
-8.70428e-06
4.19386e-07
-9.10779e-06
4.03503e-07
-9.48774e-06
3.79948e-07
-9.83597e-06
3.48236e-07
-1.01442e-05
3.08259e-07
-1.04046e-05
2.60343e-07
-1.06098e-05
2.05201e-07
-1.0754e-05
1.44221e-07
-1.08335e-05
7.94765e-08
-1.08447e-05
1.12284e-08
-1.07925e-05
-5.21893e-08
-1.06781e-05
-1.14403e-07
-1.05038e-05
-1.74343e-07
-1.02736e-05
-2.30135e-07
-9.99249e-06
-2.81146e-07
-9.6655e-06
-3.2699e-07
-9.29804e-06
-3.67455e-07
-8.89541e-06
-4.02633e-07
-8.46256e-06
-4.32845e-07
-8.00395e-06
-4.58607e-07
-7.52339e-06
-4.80565e-07
-7.02395e-06
-4.99438e-07
-6.50799e-06
-5.15963e-07
-5.97712e-06
-5.30872e-07
-5.43226e-06
-5.44859e-07
-4.8738e-06
-5.58461e-07
-4.30179e-06
-5.72009e-07
-3.71629e-06
-5.85501e-07
-3.11802e-06
-5.98268e-07
-2.50854e-06
-6.09481e-07
-1.89012e-06
-6.18418e-07
-1.26694e-06
-6.23183e-07
-6.44448e-07
-6.22489e-07
-3.05418e-08
-6.13906e-07
5.68385e-07
-5.98926e-07
1.14076e-06
-5.72375e-07
1.67746e-06
-5.367e-07
2.17004e-06
-4.92584e-07
2.61167e-06
-4.41623e-07
2.99764e-06
-3.85972e-07
3.32563e-06
-3.27992e-07
3.59557e-06
-2.69938e-07
3.8093e-06
-2.13727e-07
3.97013e-06
-1.60832e-07
4.08233e-06
-1.12203e-07
4.15082e-06
-6.84928e-08
4.18064e-06
-2.98148e-08
4.17641e-06
4.23117e-09
4.14398e-06
3.24317e-08
4.09026e-06
5.3719e-08
4.02229e-06
6.79646e-08
3.94674e-06
7.55568e-08
3.8698e-06
7.69399e-08
3.79773e-06
7.20664e-08
3.73685e-06
6.08817e-08
3.69291e-06
4.39394e-08
3.67028e-06
2.26275e-08
3.67128e-06
-1.00335e-09
3.69424e-06
-2.29581e-08
3.73299e-06
-3.87495e-08
3.78076e-06
-4.77728e-08
3.83244e-06
-5.16751e-08
3.87973e-06
-4.72888e-08
3.90889e-06
-2.91631e-08
3.9125e-06
-3.60993e-09
3.89511e-06
1.7388e-08
3.85783e-06
3.72805e-08
3.77613e-06
8.17001e-08
3.61388e-06
1.6225e-07
3.36483e-06
2.49051e-07
3.072e-06
2.92831e-07
2.79985e-06
2.72151e-07
2.59677e-06
2.0308e-07
2.47695e-06
1.1982e-07
2.42652e-06
5.04251e-08
2.4184e-06
8.12663e-09
2.4279e-06
-9.50485e-09
2.43726e-06
-9.35737e-09
2.43065e-06
6.60762e-09
2.39415e-06
3.65007e-08
2.32042e-06
7.37349e-08
2.21711e-06
1.03308e-07
2.10272e-06
1.14388e-07
1.99875e-06
1.03972e-07
1.91596e-06
8.279e-08
1.85745e-06
5.85094e-08
1.8057e-06
5.17542e-08
1.75853e-06
4.71687e-08
1.6833e-06
7.52222e-08
1.6097e-06
7.36086e-08
1.45766e-06
1.52033e-07
1.18207e-07
1.33946e-06
-1.1383e-07
5.22725e-07
-2.29894e-07
4.45964e-07
-2.62341e-07
2.03835e-07
-1.60107e-07
-1.69569e-07
1.23447e-07
-6.09646e-07
4.51864e-07
-7.93041e-07
7.18309e-07
-7.2163e-07
9.13533e-07
-5.67963e-07
1.00871e-06
-3.4545e-07
9.96609e-07
-1.06447e-07
9.32391e-07
4.49059e-08
8.59579e-07
1.32047e-07
7.70945e-07
2.0374e-07
6.49341e-07
2.70054e-07
4.87905e-07
3.1846e-07
2.90026e-07
3.49475e-07
6.3841e-08
3.65869e-07
-1.81705e-07
3.7088e-07
-4.34001e-07
3.63304e-07
-6.85235e-07
3.48727e-07
-9.29018e-07
3.28381e-07
-1.15764e-06
3.00558e-07
-1.36352e-06
2.64883e-07
-1.54014e-06
2.20526e-07
-1.68175e-06
1.67168e-07
-1.78253e-06
1.05701e-07
-1.84347e-06
3.7682e-08
-1.85785e-06
-4.08041e-08
-1.82152e-06
-1.25738e-07
-1.73368e-06
-2.1109e-07
-1.59733e-06
-2.95529e-07
-1.41499e-06
-3.76709e-07
-1.18759e-06
-4.49994e-07
-9.2541e-07
-5.09323e-07
-6.34212e-07
-5.51116e-07
-3.15496e-07
-5.77405e-07
1.42305e-08
-5.82728e-07
3.54386e-07
-5.43441e-07
6.79982e-07
-4.8613e-07
9.65021e-07
-3.7104e-07
1.23498e-06
-1.62223e-07
1.38954e-06
4.43303e-08
1.53461e-06
3.90183e-07
1.45155e-06
8.20876e-07
8.59387e-07
1.05571e-06
2.50588e-07
9.22935e-07
-2.52356e-07
8.8261e-07
-7.20015e-07
9.97489e-07
-1.15192e-06
1.02491e-06
-1.52052e-06
9.37131e-07
-1.78802e-06
7.37796e-07
-1.92896e-06
4.56165e-07
-1.93359e-06
1.1834e-07
-1.8126e-06
-2.47021e-07
-1.5465e-06
-6.66012e-07
-1.13143e-06
-1.1231e-06
-5.87071e-07
-1.57406e-06
1.02185e-07
-2.03022e-06
9.47578e-07
-2.30815e-06
1.746e-06
-1.98989e-06
2.23488e-06
-1.1746e-06
2.38901e-06
-3.54722e-07
2.44972e-06
1.37165e-07
2.50909e-06
3.21225e-07
2.38388e-06
4.25036e-07
1.92752e-06
6.32248e-07
1.14379e-06
9.37299e-07
1.36455e-07
1.25204e-06
-9.06487e-07
1.47973e-06
-1.81776e-06
1.6038e-06
-2.56029e-06
1.60448e-06
-3.19244e-06
1.50382e-06
-3.73634e-06
1.35374e-06
-4.20185e-06
1.19178e-06
-4.60231e-06
1.04177e-06
-4.95311e-06
9.16148e-07
-5.26935e-06
8.19968e-07
-5.56431e-06
7.53105e-07
-5.84884e-06
7.12405e-07
-6.13124e-06
6.93159e-07
-6.41737e-06
6.90104e-07
-6.71093e-06
6.98119e-07
-7.01377e-06
7.12556e-07
-7.32613e-06
7.29345e-07
-7.64697e-06
7.45049e-07
-7.97414e-06
7.56687e-07
-8.30451e-06
7.61715e-07
-8.63411e-06
7.57954e-07
-8.95817e-06
7.43437e-07
-9.27105e-06
7.16389e-07
-9.56642e-06
6.75317e-07
-9.83736e-06
6.19176e-07
-1.00768e-05
5.47663e-07
-1.02777e-05
4.6132e-07
-1.04341e-05
3.61533e-07
-1.05406e-05
2.50712e-07
-1.05929e-05
1.31799e-07
-1.0592e-05
1.03134e-08
-1.05257e-05
-1.18481e-07
-1.03975e-05
-2.42618e-07
-1.02104e-05
-3.61424e-07
-9.96774e-06
-4.72781e-07
-9.67404e-06
-5.74845e-07
-9.33456e-06
-6.66464e-07
-8.95482e-06
-7.47197e-07
-8.54024e-06
-8.17214e-07
-8.09588e-06
-8.77207e-07
-7.62624e-06
-9.28249e-07
-7.13513e-06
-9.71668e-07
-6.62564e-06
-1.00893e-06
-6.10005e-06
-1.04156e-06
-5.55987e-06
-1.07105e-06
-5.00589e-06
-1.09884e-06
-4.43834e-06
-1.12601e-06
-3.85728e-06
-1.15307e-06
-3.26272e-06
-1.18006e-06
-2.65485e-06
-1.20614e-06
-2.03512e-06
-1.22921e-06
-1.40598e-06
-1.24756e-06
-7.71344e-07
-1.25782e-06
-1.37918e-07
-1.25591e-06
4.87959e-07
-1.23978e-06
1.09382e-06
-1.20478e-06
1.67132e-06
-1.14988e-06
2.21043e-06
-1.07581e-06
2.70274e-06
-9.84896e-07
3.14224e-06
-8.81125e-07
3.52568e-06
-7.69409e-07
3.85237e-06
-6.54683e-07
4.12361e-06
-5.41183e-07
4.34201e-06
-4.32119e-07
4.51087e-06
-3.29699e-07
4.63398e-06
-2.35306e-07
4.71521e-06
-1.49724e-07
4.75889e-06
-7.34984e-08
4.77005e-06
-6.92854e-09
4.75398e-06
4.85048e-08
4.7138e-06
9.39005e-08
4.654e-06
1.27762e-07
4.58051e-06
1.4905e-07
4.50068e-06
1.56764e-07
4.42275e-06
1.50001e-07
4.35514e-06
1.2849e-07
4.306e-06
9.30758e-08
4.28231e-06
4.632e-08
4.28741e-06
-6.10641e-09
4.32114e-06
-5.66811e-08
4.38133e-06
-9.89417e-08
4.46055e-06
-1.26995e-07
4.54483e-06
-1.35959e-07
4.61971e-06
-1.22164e-07
4.67812e-06
-8.75761e-08
4.71781e-06
-4.33001e-08
4.73931e-06
-4.11238e-09
4.7528e-06
2.37939e-08
4.7743e-06
6.02029e-08
4.80606e-06
1.3049e-07
4.82735e-06
2.27755e-07
4.81938e-06
3.00801e-07
4.78532e-06
3.06212e-07
4.74954e-06
2.38862e-07
4.73495e-06
1.34413e-07
4.74465e-06
4.07184e-08
4.7638e-06
-1.10186e-08
4.7658e-06
-1.15074e-08
4.73364e-06
2.28012e-08
4.67514e-06
6.51142e-08
4.60872e-06
1.02916e-07
4.54018e-06
1.4228e-07
4.46005e-06
1.83432e-07
4.35939e-06
2.15049e-07
4.24696e-06
2.16404e-07
4.13707e-06
1.92683e-07
4.04611e-06
1.4947e-07
3.97433e-06
1.23529e-07
3.92204e-06
9.94591e-08
3.87141e-06
1.2585e-07
3.82348e-06
1.21539e-07
3.75927e-06
2.16248e-07
2.15371e-07
3.6621e-06
1.96102e-07
3.26623e-07
3.11381e-07
3.30684e-07
4.27429e-07
8.77866e-08
5.59798e-07
-3.01938e-07
6.87657e-07
-7.37505e-07
6.73333e-07
-7.78716e-07
5.05057e-07
-5.53353e-07
3.30524e-07
-3.9343e-07
1.35364e-07
-1.5029e-07
-8.87847e-08
1.17702e-07
-3.0577e-07
2.61891e-07
-5.21747e-07
3.48024e-07
-7.42134e-07
4.24127e-07
-9.73737e-07
5.01657e-07
-1.2214e-06
5.66118e-07
-1.48729e-06
6.15374e-07
-1.77135e-06
6.49922e-07
-2.07075e-06
6.70286e-07
-2.38343e-06
6.75976e-07
-2.70002e-06
6.65317e-07
-3.00865e-06
6.37016e-07
-3.29811e-06
5.90017e-07
-3.55727e-06
5.2404e-07
-3.77673e-06
4.39988e-07
-3.94948e-06
3.39924e-07
-4.07036e-06
2.26572e-07
-4.13565e-06
1.02979e-07
-4.14644e-06
-3.00186e-08
-4.10093e-06
-1.71249e-07
-3.99911e-06
-3.12902e-07
-3.8427e-06
-4.51947e-07
-3.63527e-06
-5.8413e-07
-3.38087e-06
-7.04401e-07
-3.08276e-06
-8.07427e-07
-2.74505e-06
-8.88831e-07
-2.37726e-06
-9.45196e-07
-1.98823e-06
-9.71755e-07
-1.56933e-06
-9.62343e-07
-1.14152e-06
-9.13936e-07
-7.01797e-07
-8.10764e-07
-2.19015e-07
-6.45005e-07
2.57874e-07
-4.32559e-07
7.86149e-07
-1.38091e-07
1.35451e-06
2.52515e-07
1.76164e-06
6.48582e-07
1.81903e-06
8.65541e-07
1.73358e-06
9.68067e-07
1.6738e-06
1.05726e-06
1.6127e-06
1.08602e-06
1.53485e-06
1.01498e-06
1.4475e-06
8.25141e-07
1.35435e-06
5.49313e-07
1.26282e-06
2.09878e-07
1.22029e-06
-2.04497e-07
1.23732e-06
-6.83036e-07
1.29854e-06
-1.18432e-06
1.34298e-06
-1.6185e-06
1.30194e-06
-1.98918e-06
1.25697e-06
-2.26318e-06
1.2619e-06
-1.99483e-06
1.28561e-06
-1.19831e-06
1.31113e-06
-3.80244e-07
1.2185e-06
2.29789e-07
8.55991e-07
6.83738e-07
2.07677e-07
1.07335e-06
-6.14911e-07
1.45484e-06
-1.46241e-06
1.7848e-06
-2.21342e-06
2.00304e-06
-2.82056e-06
2.08688e-06
-3.26782e-06
2.05105e-06
-3.58481e-06
1.92147e-06
-3.81912e-06
1.73813e-06
-4.00494e-06
1.53956e-06
-4.1651e-06
1.35194e-06
-4.31508e-06
1.19174e-06
-4.46593e-06
1.067e-06
-4.62581e-06
9.79849e-07
-4.80069e-06
9.27981e-07
-4.99474e-06
9.06452e-07
-5.21105e-06
9.09475e-07
-5.45156e-06
9.30613e-07
-5.71703e-06
9.63591e-07
-6.0072e-06
1.00273e-06
-6.32093e-06
1.04307e-06
-6.6562e-06
1.08033e-06
-7.01016e-06
1.11065e-06
-7.37895e-06
1.1305e-06
-7.7575e-06
1.13651e-06
-8.13938e-06
1.12532e-06
-8.5168e-06
1.0938e-06
-8.88073e-06
1.03925e-06
-9.22123e-06
9.59678e-07
-9.52795e-06
8.5438e-07
-9.79084e-06
7.24212e-07
-1.00009e-05
5.71548e-07
-1.01505e-05
4.00383e-07
-1.02345e-05
2.15736e-07
-1.02495e-05
2.54008e-08
-1.01947e-05
-1.73362e-07
-1.00728e-05
-3.64485e-07
-9.88728e-06
-5.46945e-07
-9.64254e-06
-7.17522e-07
-9.3443e-06
-8.73089e-07
-8.99886e-06
-1.0119e-06
-8.61256e-06
-1.13349e-06
-8.19145e-06
-1.23833e-06
-7.74098e-06
-1.32768e-06
-7.26589e-06
-1.40334e-06
-6.77011e-06
-1.46745e-06
-6.25671e-06
-1.52234e-06
-5.72785e-06
-1.57041e-06
-5.18482e-06
-1.61408e-06
-4.62802e-06
-1.65564e-06
-4.05719e-06
-1.69684e-06
-3.47164e-06
-1.73861e-06
-2.87053e-06
-1.78117e-06
-2.25314e-06
-1.82353e-06
-1.61986e-06
-1.86248e-06
-9.7186e-07
-1.89557e-06
-3.13437e-07
-1.91624e-06
3.49742e-07
-1.91909e-06
1.00746e-06
-1.8975e-06
1.64896e-06
-1.84628e-06
2.26088e-06
-1.7618e-06
2.82877e-06
-1.6437e-06
3.33928e-06
-1.4954e-06
3.78234e-06
-1.32419e-06
4.15294e-06
-1.14001e-06
4.45176e-06
-9.53496e-07
4.68425e-06
-7.73673e-07
4.85859e-06
-6.06465e-07
4.98337e-06
-4.54475e-07
5.06606e-06
-3.17995e-07
5.1126e-06
-1.96272e-07
5.12742e-06
-8.83177e-08
5.11443e-06
6.06737e-09
5.07907e-06
8.38668e-08
5.02382e-06
1.49151e-07
4.95281e-06
1.98765e-07
4.87115e-06
2.30718e-07
4.78507e-06
2.42844e-07
4.70171e-06
2.33353e-07
4.6285e-06
2.01707e-07
4.57229e-06
1.49277e-07
4.53881e-06
7.98069e-08
4.53228e-06
4.20666e-10
4.55438e-06
-7.87807e-08
4.60404e-06
-1.48606e-07
4.67644e-06
-1.99386e-07
4.76531e-06
-2.24833e-07
4.86245e-06
-2.19304e-07
4.95167e-06
-1.76796e-07
5.00619e-06
-9.78243e-08
5.00429e-06
-2.20591e-09
4.95354e-06
7.45396e-08
4.8986e-06
1.15148e-07
4.88726e-06
1.41831e-07
4.93089e-06
1.84121e-07
4.99708e-06
2.34606e-07
5.04355e-06
2.5975e-07
5.05056e-06
2.31848e-07
5.03273e-06
1.52238e-07
5.03037e-06
4.30824e-08
5.06997e-06
-5.06208e-08
5.14641e-06
-8.79441e-08
5.21676e-06
-4.75534e-08
5.23958e-06
4.23019e-08
5.21484e-06
1.27648e-07
5.17377e-06
1.83357e-07
5.14134e-06
2.15857e-07
5.11406e-06
2.42333e-07
5.0701e-06
2.60369e-07
4.99365e-06
2.69128e-07
4.88713e-06
2.55987e-07
4.76944e-06
2.41217e-07
4.65754e-06
2.11359e-07
4.5709e-06
2.12499e-07
4.49904e-06
1.93399e-07
4.46254e-06
2.52746e-07
2.71681e-07
4.40623e-06
2.91227e-07
3.53959e-08
4.79288e-07
1.42624e-07
5.77855e-07
-1.07806e-08
6.16004e-07
-3.40086e-07
4.42278e-07
-5.63779e-07
6.30885e-08
-3.99527e-07
-2.99056e-07
-1.91209e-07
-6.721e-07
-2.03853e-08
-9.88459e-07
1.66069e-07
-1.23744e-06
3.66685e-07
-1.47764e-06
5.02093e-07
-1.76127e-06
6.31648e-07
-2.0831e-06
7.45963e-07
-2.43136e-06
8.49908e-07
-2.80352e-06
9.38281e-07
-3.19504e-06
1.0069e-06
-3.59793e-06
1.05281e-06
-3.99983e-06
1.07219e-06
-4.38761e-06
1.06375e-06
-4.74951e-06
1.02722e-06
-5.07636e-06
9.63863e-07
-5.36174e-06
8.75399e-07
-5.60155e-06
7.63851e-07
-5.79297e-06
6.31408e-07
-5.93367e-06
4.80627e-07
-6.02155e-06
3.14448e-07
-6.05506e-06
1.36493e-07
-6.03296e-06
-5.21192e-08
-5.95801e-06
-2.46202e-07
-5.83094e-06
-4.39969e-07
-5.65329e-06
-6.29597e-07
-5.42726e-06
-8.1016e-07
-5.15534e-06
-9.76321e-07
-4.84019e-06
-1.12258e-06
-4.4855e-06
-1.24352e-06
-4.09644e-06
-1.33426e-06
-3.67748e-06
-1.39072e-06
-3.23044e-06
-1.40938e-06
-2.75856e-06
-1.38581e-06
-2.25332e-06
-1.316e-06
-1.69939e-06
-1.19894e-06
-1.09235e-06
-1.0396e-06
-3.92753e-07
-8.37688e-07
4.23041e-07
-5.63279e-07
1.2996e-06
-2.27981e-07
2.12792e-06
3.72252e-08
2.86002e-06
2.35964e-07
3.50367e-06
4.13617e-07
4.04826e-06
5.41422e-07
4.47406e-06
5.89182e-07
4.7533e-06
5.45905e-07
4.88326e-06
4.19345e-07
4.87856e-06
2.14585e-07
4.73491e-06
-6.08455e-08
4.47484e-06
-4.22968e-07
4.08596e-06
-7.95445e-07
3.58255e-06
-1.11508e-06
2.96203e-06
-1.36866e-06
2.24064e-06
-1.54179e-06
1.51981e-06
-1.27399e-06
8.52778e-07
-5.31278e-07
2.70754e-07
2.0178e-07
-2.64531e-07
7.65073e-07
-8.49326e-07
1.26853e-06
-1.49205e-06
1.71607e-06
-2.1095e-06
2.07229e-06
-2.61221e-06
2.28751e-06
-2.96342e-06
2.35425e-06
-3.17385e-06
2.2973e-06
-3.2744e-06
2.1516e-06
-3.30665e-06
1.95373e-06
-3.30951e-06
1.74098e-06
-3.31019e-06
1.54025e-06
-3.32693e-06
1.36868e-06
-3.37085e-06
1.23566e-06
-3.44857e-06
1.14472e-06
-3.56418e-06
1.09546e-06
-3.72028e-06
1.08408e-06
-3.91871e-06
1.10488e-06
-4.16037e-06
1.15113e-06
-4.44507e-06
1.21531e-06
-4.77148e-06
1.29001e-06
-5.13724e-06
1.36848e-06
-5.5387e-06
1.44453e-06
-5.97084e-06
1.51247e-06
-6.42733e-06
1.56714e-06
-6.9004e-06
1.60357e-06
-7.38103e-06
1.61714e-06
-7.85913e-06
1.60342e-06
-8.32359e-06
1.55826e-06
-8.7626e-06
1.47826e-06
-9.16396e-06
1.36104e-06
-9.51591e-06
1.20633e-06
-9.80821e-06
1.01651e-06
-1.0033e-05
7.96379e-07
-1.01847e-05
5.5203e-07
-1.02594e-05
2.9049e-07
-1.02474e-05
1.33227e-08
-1.01716e-05
-2.49097e-07
-1.00238e-05
-5.12347e-07
-9.80861e-06
-7.62099e-07
-9.53373e-06
-9.92403e-07
-9.20687e-06
-1.19995e-06
-8.83561e-06
-1.38317e-06
-8.4271e-06
-1.542e-06
-7.98784e-06
-1.67759e-06
-7.5235e-06
-1.79201e-06
-7.03882e-06
-1.88802e-06
-6.5376e-06
-1.96867e-06
-6.02272e-06
-2.03723e-06
-5.49604e-06
-2.09709e-06
-4.95844e-06
-2.15168e-06
-4.40983e-06
-2.20425e-06
-3.84932e-06
-2.25735e-06
-3.27543e-06
-2.3125e-06
-2.68616e-06
-2.37045e-06
-2.07966e-06
-2.43003e-06
-1.45427e-06
-2.48788e-06
-8.09579e-07
-2.54026e-06
-1.46156e-07
-2.57966e-06
5.31143e-07
-2.59639e-06
1.21739e-06
-2.58375e-06
1.90347e-06
-2.53237e-06
2.57717e-06
-2.4355e-06
3.22327e-06
-2.2898e-06
3.82435e-06
-2.09648e-06
4.36216e-06
-1.862e-06
4.82011e-06