/*--------------------------------*- C++ -*----------------------------------*\
  =========                 |
  \\      /  F ield         | OpenFOAM: The Open Source CFD Toolbox
   \\    /   O peration     | Website:  https://openfoam.org
    \\  /    A nd           | Version:  9
     \\/     M anipulation  |
\*---------------------------------------------------------------------------*/
FoamFile
{
    format      ascii;
    class       volScalarField;
    location    "0.052";
    object      pPrime2Mean;
}
// * * * * * * * * * * * * * * * * * * * * * * * * * * * * * * * * * * * * * //

dimensions      [0 4 -4 0 0 0 0];

internalField   nonuniform List<scalar> 
12225
(
296809
294014
290783
287278
283616
279881
276129
272396
268703
265061
261472
257931
254426
250937
247431
243850
240075
235831
296831
294042
290806
287296
283631
279894
276140
272406
268713
265072
261483
257944
254443
250959
247463
243900
240177
236124
296912
294105
290856
287337
283664
279921
276165
272429
268736
265095
261509
257974
254479
251008
247531
244008
240376
236580
297033
294210
290939
287404
283719
279968
276206
272467
268773
265133
261551
258023
254540
251087
247642
244176
240662
237114
297216
294366
291063
287503
283800
280036
276266
272523
268827
265190
261613
258095
254628
251201
247797
244404
241018
237689
297506
294583
291234
287640
283912
280131
276349
272600
268903
265268
261699
258194
254748
251352
248000
244688
241430
238284
297886
294873
291460
287820
284059
280256
276459
272701
269002
265370
261810
258321
254900
251544
248249
245022
241885
238891
298384
295247
291752
288052
284249
280415
276600
272831
269128
265499
261950
258481
255090
251776
248543
245401
242374
239506
299032
295717
292117
288343
284486
280615
276775
272992
269285
265660
262123
258675
255317
252049
248879
245819
242891
240128
299753
296288
292565
288699
284776
280860
276989
273190
269475
265854
262331
258906
255582
252363
249255
246271
243430
240755
300623
296984
293109
289131
285126
281154
277247
273426
269704
266086
262575
259175
255887
252716
249668
246754
243989
241388
301552
297747
293706
289601
285507
281473
277526
273682
269949
266333
262835
259457
256202
253073
250076
247220
244516
241972
302741
298630
294381
290132
285936
281832
277840
273969
270224
266609
263123
259767
256543
253454
250504
247700
245049
242554
304329
299803
295272
290826
286496
282301
278248
274342
270580
266963
263489
260157
256967
253920
251019
248268
245668
243222
306460
301328
296421
291721
287216
282902
278772
274819
271035
267414
263951
260643
257487
254483
251630
248929
246379
243978
309129
303293
297882
292846
288116
283654
279429
275418
271604
267975
264521
261236
258113
255150
252342
249688
247183
244823
312383
305623
299596
294171
289183
284551
280216
276139
272291
268651
265204
261939
258846
255920
253153
250540
248074
245751
316062
308102
301413
295579
290330
285533
281093
276953
273073
269423
265982
262736
259671
256777
254045
251467
249035
246742
318809
309981
302823
296727
291324
286431
281937
277768
273878
270232
266807
263583
260545
257681
254980
252432
250028
247760
317409
309559
302836
296955
291673
286855
282411
278282
274424
270808
267411
264214
261202
258363
255685
253159
250774
248523
315431
308444
302273
296723
291649
286964
282609
278542
274731
271151
267783
264610
261620
258800
256139
253627
251255
249015
313361
307218
301567
296346
291483
286938
282679
278678
274915
271371
268031
264882
261910
259106
256458
253957
251595
249362
311473
306061
300866
295939
291270
286854
282683
278744
275024
271512
268197
265066
262110
259318
256680
254188
251833
249606
310105
305148
300287
295590
291075
286763
282663
278772
275088
271602
268307
265191
262246
259464
256834
254348
251998
249776
309057
304435
299834
295312
290914
286682
282635
278783
275126
271660
268379
265274
262338
259563
256939
254457
252111
249892
308154
303893
299501
295108
290794
286619
282611
278786
275148
271696
268425
265329
262399
259629
257008
254530
252186
249969
307504
303515
299270
294966
290711
286574
282593
278786
275161
271719
268455
265364
262438
259671
257053
254577
252235
250019
307036
303266
299123
294878
290659
286546
282581
278786
275169
271732
268472
265384
262462
259696
257080
254605
252264
250049
306797
303128
299041
294828
290630
286531
282575
278785
275173
271739
268481
265395
262474
259710
257094
254620
252280
250065
306673
303070
299008
294808
290618
286524
282572
278785
275174
271741
268485
265400
262479
259715
257100
254626
252286
250071
199723
199703
199666
199613
199548
199471
199382
199278
199154
199009
198841
198649
198434
198198
197941
197665
197369
197055
196723
196373
196006
195621
195220
194803
194370
193921
193457
192977
192480
191967
191438
190892
190329
189748
189150
188538
187916
187290
186658
186015
185359
184689
184001
183293
182560
181804
181024
180220
179401
178573
177727
176865
175994
175107
174202
173288
172379
171443
170459
169439
168407
167372
166340
165312
164288
163267
162250
161232
160213
159188
158154
157109
156056
154996
153931
152862
151790
150717
149642
148567
147492
146417
145341
144264
143185
142103
141016
139923
138819
137705
136575
135430
134266
133083
131881
130659
129419
128162
126889
125603
124304
122997
121683
120364
119043
117721
116400
115080
113763
112448
111137
109829
108524
107223
105924
104628
103334
102041
100751
99461.3
98172.6
96884.3
95596.2
94307.9
93019.4
91730.5
90441
89150.9
87860.3
86569.1
85277.4
83985.3
82692.8
81400
80107
78814
77521
76228.3
74936
73644.3
72353.4
71063.4
69774.5
68487
67201.1
65917.1
64635.3
63356
62079.4
60805.8
59535.7
58269.1
57006.5
55748
54494
53244.7
52000.4
50761.4
49527.9
48300.1
47078.2
45862.5
44653.5
43451.5
42257
41070.3
39891.8
38721.9
37560.8
36409
35266.8
34134.8
33013.6
31903.8
30806.3
29722.2
28652.9
27600.6
26569
25567.3
199779
199759
199724
199671
199605
199529
199439
199333
199207
199059
198888
198694
198480
198244
197988
197713
197419
197106
196774
196423
196054
195668
195264
194844
194407
193955
193486
193003
192502
191987
191458
190913
190352
189773
189180
188569
187945
187316
186679
186030
185366
184687
183994
183287
182556
181796
181005
180177
179341
178503
177649
176784
175912
175035
174146
173230
172300
171351
170366
169360
168343
167325
166307
165289
164272
163256
162240
161222
160202
159175
158141
157097
156045
154987
153924
152856
151786
150714
149640
148565
147491
146415
145340
144263
143185
142103
141017
139924
138822
137708
136580
135435
134272
133090
131888
130666
129426
128168
126895
125608
124310
123002
121687
120368
119047
117725
116403
115083
113766
112451
111139
109831
108526
107225
105926
104629
103335
102043
100752
99462.3
98173.5
96885.1
95596.9
94308.7
93020.1
91731.1
90441.6
89151.6
87860.9
86569.7
85278
83985.9
82693.3
81400.5
80107.5
78814.5
77521.5
76228.8
74936.5
73644.8
72353.8
71063.8
69774.9
68487.4
67201.4
65917.4
64635.6
63356.2
62079.6
60806
59535.8
58269.3
57006.6
55748.1
54494.1
53244.8
52000.5
50761.5
49527.9
48300.1
47078.1
45862.5
44653.4
43451.4
42256.9
41070.2
39891.7
38721.8
37560.7
36408.8
35266.6
34134.6
33013.3
31903.4
30805.8
29721.5
28651.9
27599.1
26565.9
25558.9
199930
199912
199879
199828
199760
199678
199581
199467
199333
199179
199004
198808
198593
198357
198101
197825
197529
197214
196880
196527
196156
195766
195358
194933
194491
194032
193558
193068
192563
192043
191509
190961
190399
189822
189231
188624
188006
187378
186739
186087
185420
184741
184048
183334
182594
181820
181017
180183
179329
178467
177599
176726
175854
174978
174084
173167
172225
171260
170277
169281
168278
167272
166265
165255
164243
163231
162216
161199
160177
159150
158116
157075
156027
154972
153913
152848
151780
150709
149636
148563
147488
146413
145337
144260
143182
142102
141017
139925
138825
137713
136587
135444
134282
133101
131899
130677
129437
128179
126905
125618
124319
123010
121695
120376
119054
117731
116409
115089
113771
112456
111144
109836
108531
107229
105929
104633
103338
102045
100754
99464.5
98175.5
96887
95598.6
94310.2
93021.6
91732.5
90443
89152.9
87862.2
86571
85279.2
83987.1
82694.5
81401.6
80108.6
78815.5
77522.5
76229.8
74937.4
73645.6
72354.6
71064.5
69775.6
68488
67202
65917.9
64636
63356.5
62079.9
60806.3
59536
58269.4
57006.7
55748.2
54494.1
53244.8
52000.4
50761.3
49527.7
48299.7
47077.8
45862.2
44653.2
43451.3
42256.8
41070.2
39891.6
38721.6
37560.4
36408.5
35266.2
34134.1
33012.7
31902.7
30804.9
29720.3
28650.1
27596.3
26561
25548.1
200153
200137
200104
200055
199987
199903
199801
199680
199540
199380
199200
199001
198781
198542
198282
198002
197701
197381
197042
196684
196307
195912
195500
195069
194622
194157
193677
193182
192673
192150
191614
191065
190504
189929
189341
188743
188134
187513
186878
186230
185568
184891
184200
183487
182740
181952
181126
180270
179394
178509
177624
176741
175859
174971
174063
173133
172180
171210
170226
169231
168231
167230
166227
165222
164214
163203
162189
161172
160150
159125
158093
157055
156011
154960
153904
152842
151775
150705
149633
148560
147485
146410
145334
144257
143179
142099
141016
139927
138829
137720
136597
135457
134297
133117
131915
130694
129453
128195
126921
125632
124332
123023
121707
120387
119064
117741
116418
115098
113779
112464
111152
109843
108537
107235
105935
104638
103343
102050
100758
99468
98178.6
96889.8
95601.2
94312.7
93023.9
91734.7
90445
89154.8
87864.1
86572.9
85281.1
83988.8
82696.2
81403.3
80110.2
78817
77524
76231.2
74938.8
73646.9
72355.8
71065.6
69776.6
68488.9
67202.8
65918.6
64636.5
63357
62080.3
60806.6
59536.3
58269.6
57006.9
55748.3
54494.2
53244.8
52000.4
50761.2
49527.6
48299.6
47077.7
45862.1
44653.1
43451.2
42256.7
41070
39891.4
38721.3
37560
36408
35265.6
34133.4
33011.8
31901.6
30803.4
29718.4
28647.4
27592.2
26554
25535.2
200447
200432
200401
200352
200285
200199
200094
199969
199824
199659
199473
199267
199040
198792
198522
198233
197923
197594
197246
196880
196495
196094
195674
195238
194784
194314
193830
193331
192820
192297
191763
191219
190665
190099
189524
188939
188342
187731
187105
186466
185817
185152
184468
183755
183004
182206
181360
180476
179568
178647
177729
176817
175911
174999
174073
173130
172171
171196
170208
169210
168209
167205
166201
165194
164186
163175
162161
161145
160125
159102
158073
157038
155998
154950
153896
152835
151770
150701
149630
148556
147482
146406
145331
144254
143177
142099
141017
139931
138837
137732
136614
135477
134320
133142
131941
130720
129478
128219
126943
125653
124351
123041
121723
120402
119078
117754
116431
115109
113790
112475
111162
109853
108546
107243
105943
104645
103350
102056
100764
99473.1
98183.3
96894
95605.1
94316.3
93027.2
91737.9
90448.1
89157.8
87866.9
86575.6
85283.7
83991.3
82698.6
81405.6
80112.4
78819.1
77526
76233
74940.5
73648.6
72357.4
71067.1
69777.9
68490.1
67203.8
65919.5
64637.3
63357.6
62080.8
60807
59536.6
58269.9
57007.1
55748.5
54494.3
53244.8
52000.3
50761.1
49527.4
48299.4
47077.5
45861.8
44652.9
43451
42256.5
41069.7
39891.1
38720.9
37559.5
36407.3
35264.8
34132.4
33010.6
31900.1
30801.5
29715.8
28643.8
27586.8
26545.7
25521.4
200825
200808
200775
200725
200655
200566
200456
200327
200176
200004
199811
199595
199357
199097
198815
198512
198190
197849
197490
197113
196719
196308
195880
195435
194975
194500
194011
193510
192998
192476
191946
191408
190863
190311
189750
189178
188591
187990
187375
186747
186108
185454
184777
184068
183314
182506
181641
180728
179782
178820
177859
176906
175963
175023
174079
173126
172159
171179
170187
169188
168184
167180
166174
165168
164159
163149
162136
161122
160104
159084
158058
157027
155988
154942
153889
152830
151765
150696
149625
148553
147479
146405
145330
144255
143179
142102
141023
139940
138851
137752
136640
135508
134355
133178
131978
130755
129513
128251
126973
125680
124376
123063
121744
120420
119095
117770
116446
115124
113804
112488
111175
109865
108558
107254
105953
104655
103358
102064
100771
99479.7
98189.3
96899.6
95610.2
94320.9
93031.6
91741.9
90452
89161.5
87870.5
86579
85286.9
83994.5
82701.6
81408.5
80115.1
78821.7
77528.4
76235.3
74942.6
73650.6
72359.2
71068.8
69779.4
68491.4
67205.1
65920.6
64638.2
63358.4
62081.4
60807.5
59537
58270.2
57007.3
55748.6
54494.4
53244.9
52000.3
50761
49527.2
48299.2
47077.3
45861.6
44652.7
43450.8
42256.2
41069.4
39890.7
38720.4
37558.9
36406.6
35263.9
34131.3
33009.2
31898.3
30799.2
29712.6
28639.5
27580.6
26536.5
25507.3
201278
201260
201223
201168
201095
201002
200886
200749
200589
200407
200202
199974
199722
199446
199148
198830
198493
198137
197765
197376
196971
196549
196112
195660
195193
194713
194220
193717
193204
192683
192156
191623
191085
190543
189993
189430
188853
188261
187656
187038
186409
185762
185091
184383
183626
182808
181926
180988
180007
179004
177996
176997
176011
175041
174076
173109
172135
171153
170160
169160
168156
167151
166146
165141
164135
163127
162118
161106
160092
159074
158052
157022
155985
154940
153886
152826
151760
150691
149621
148550
147480
146409
145337
144264
143189
142114
141037
139957
138873
137780
136673
135548
134399
133224
132024
130800
129554
128290
127008
125712
124405
123089
121767
120442
119115
117789
116464
115141
113821
112504
111190
109879
108572
107267
105965
104666
103369
102074
100780
99487.8
98196.7
96906.3
95616.4
94326.7
93036.9
91747
90456.7
89166.1
87874.9
86583.2
85291
83998.3
82705.3
81412
80118.4
78824.8
77531.3
76238.1
74945.2
73652.9
72361.4
71070.8
69781.3
68493.1
67206.5
65921.9
64639.4
63359.4
62082.2
60808.2
59537.6
58270.6
57007.6
55748.8
54494.5
53244.9
52000.3
50760.9
49527.1
48299
47077
45861.3
44652.4
43450.4
42255.8
41069
39890.2
38719.8
37558.2
36405.7
35262.8
34129.9
33007.5
31896.2
30796.5
29709
28634.6
27573.7
26526.8
25493.3
201805
201785
201745
201686
201605
201501
201375
201225
201052
200856
200635
200390
200120
199827
199512
199177
198824
198455
198069
197667
197250
196819
196373
195914
195442
194957
194462
193957
193444
192923
192396
191865
191331
190793
190248
189691
189123
188543
187950
187345
186727
186090
185423
184715
183952
183123
182222
181256
180240
179194
178138
177090
176062
175060
174074
173093
172111
171125
170131
169132
168129
167125
166122
165120
164117
163113
162108
161101
160090
159076
158056
157028
155990
154943
153887
152824
151756
150687
149618
148551
147485
146419
145351
144282
143210
142136
141060
139981
138900
137811
136711
135592
134449
133276
132076
130850
129602
128334
127049
125749
124438
123118
121794
120466
119138
117810
116484
115160
113839
112521
111207
109895
108587
107282
105979
104679
103381
102085
100790
99497.4
98205.5
96914.4
95623.9
94333.6
93043.4
91753
90462.4
89171.5
87880
86588.1
85295.7
84002.8
82709.6
81416
80122.3
78828.5
77534.7
76241.3
74948.2
73655.7
72364
71073.1
69783.4
68495
67208.3
65923.4
64640.7
63360.5
62083.2
60809
59538.2
58271.1
57008
55749
54494.6
53244.9
52000.2
50760.7
49526.8
48298.7
47076.7
45861
44652
43450
42255.4
41068.5
39889.6
38719.1
37557.4
36404.7
35261.6
34128.5
33005.7
31893.8
30793.4
29705
28629.2
27566.4
26516.8
25479.7
202411
202387
202342
202273
202180
202064
201922
201756
201565
201350
201109
200844
200555
200244
199911
199560
199192
198808
198408
197995
197568
197127
196674
196209
195731
195244
194746
194239
193724
193202
192674
192142
191609
191072
190529
189981
189425
188860
188286
187701
187101
186476
185815
185104
184332
183486
182559
181557
180500
179404
178293
177196
176129
175095
174085
173089
172099
171108
170112
169114
168112
167109
166108
165108
164108
163109
162108
161105
160100
159089
158070
157042
156002
154951
153890
152822
151752
150683
149617
148555
147495
146435
145374
144309
143241
142168
141093
140014
138932
137846
136751
135639
134501
133333
132134
130907
129656
128385
127095
125790
124474
123151
121823
120493
119163
117834
116506
115181
113860
112541
111226
109913
108604
107298
105994
104693
103394
102097
100802
99508.2
98215.5
96923.7
95632.5
94341.6
93050.9
91760.1
90469.1
89177.8
87886
86593.8
85301.1
84008
82714.5
81420.7
80126.7
78832.7
77538.7
76245
74951.7
73658.9
72366.9
71075.9
69785.9
68497.3
67210.3
65925.2
64642.3
63361.9
62084.4
60810
59539
58271.8
57008.4
55749.3
54494.7
53244.9
52000.1
50760.6
49526.6
48298.4
47076.3
45860.6
44651.6
43449.6
42254.9
41068
39889
38718.4
37556.5
36403.7
35260.3
34126.8
33003.7
31891.3
30790.1
29700.8
28623.6
27558.9
26506.7
25466.4
203088
203061
203008
202928
202823
202690
202531
202346
202135
201899
201638
201352
201043
200712
200362
199994
199610
199212
198800
198375
197939
197491
197032
196561
196080
195589
195089
194578
194060
193534
193003
192469
191934
191398
190861
190323
189783
189240
188692
188133
187556
186947
186293
185578
184790
183919
182955
181908
180800
179647
178478
177330
176224
175162
174129
173117
172117
171120
170120
169119
168115
167111
166108
165108
164109
163112
162116
161120
160119
159111
158093
157063
156019
154962
153893
152820
151747
150680
149618
148563
147511
146459
145406
144347
143282
142210
141134
140055
138973
137889
136798
135691
134559
133396
132199
130971
129717
128441
127146
125835
124514
123185
121854
120521
119189
117858
116530
115204
113882
112562
111246
109933
108622
107315
106011
104709
103409
102111
100815
99520.3
98226.8
96934.2
95642.2
94350.7
93059.4
91768.1
90476.7
89184.9
87892.8
86600.3
85307.3
84013.9
82720.1
81426
80131.8
78837.4
77543.2
76249.2
74955.7
73662.7
72370.4
71079
69788.8
68500
67212.7
65927.4
64644.2
63363.6
62085.8
60811.2
59540
58272.5
57009
55749.7
54494.9
53244.9
52000
50760.4
49526.3
48298.1
47075.9
45860.2
44651.2
43449.1
42254.4
41067.3
39888.3
38717.6
37555.5
36402.5
35258.9
34125.1
33001.5
31888.5
30786.7
29696.3
28617.7
27551.3
26496.8
25453.6
203843
203811
203750
203660
203541
203393
203216
203012
202782
202525
202243
201937
201608
201258
200890
200506
200107
199696
199273
198839
198395
197941
197477
197002
196516
196020
195513
194996
194469
193936
193399
192861
192324
191791
191262
190737
190215
189695
189172
188638
188083
187490
186842
186121
185313
184409
183401
182304
181139
179926
178700
177503
176358
175267
174215
173188
172176
171171
170164
169155
168145
167135
166126
165121
164121
163125
162133
161142
160145
159140
158122
157089
156039
154974
153897
152818
151743
150677
149623
148576
147534
146493
145447
144394
143332
142262
141185
140106
139024
137942
136855
135754
134627
133466
132270
131039
129781
128499
127197
125880
124553
123220
121885
120550
119216
117884
116555
115228
113905
112584
111267
109953
108642
107334
106028
104725
103424
102126
100829
99533.6
98239.3
96945.8
95653.1
94360.8
93068.9
91777.1
90485.2
89193
87900.5
86607.6
85314.2
84020.5
82726.4
81432
80137.4
78842.8
77548.3
76254
74960.2
73666.9
72374.3
71082.7
69792.1
68503
67215.4
65929.8
64646.4
63365.5
62087.4
60812.5
59541.1
58273.3
57009.6
55750.1
54495.2
53245
51999.9
50760.2
49526
48297.7
47075.5
45859.8
44650.7
43448.6
42253.8
41066.7
39887.6
38716.7
37554.5
36401.3
35257.4
34123.3
32999.2
31885.7
30783.1
29691.7
28611.8
27543.7
26487
25441.4
204688
204652
204583
204483
204351
204188
203996
203776
203530
203256
202957
202633
202287
201922
201538
201139
200728
200305
199872
199431
198980
198519
198048
197566
197071
196564
196045
195515
194976
194431
193883
193337
192795
192261
191735
191218
190707
190201
189692
189173
188629
188045
187398
186669
185841
184909
183872
182743
181542
180283
179006
177760
176572
175446
174368
173319
172287
171266
170248
169227
168205
167183
166165
165152
164147
163150
162160
161171
160176
159171
158151
157114
156058
154985
153900
152814
151738
150677
149631
148597
147567
146536
145499
144450
143390
142320
141244
140166
139088
138009
136926
135828
134702
133540
132340
131107
129844
128556
127248
125925
124592
123254
121915
120577
119242
117909
116579
115252
113928
112607
111289
109974
108662
107353
106046
104742
103441
102142
100844
99547.9
98252.8
96958.6
95665
94372.1
93079.5
91787.1
90494.6
89202
87909
86615.7
85321.9
84027.8
82733.3
81438.5
80143.6
78848.7
77553.9
76259.3
74965.1
73671.5
72378.6
71086.6
69795.8
68506.3
67218.4
65932.4
64648.7
63367.5
62089.2
60814
59542.2
58274.2
57010.2
55750.6
54495.4
53245.1
51999.9
50760
49525.8
48297.4
47075.1
45859.3
44650.2
43448.1
42253.2
41066.1
39886.8
38715.9
37553.5
36400.1
35255.9
34121.4
32996.9
31882.8
30779.4
29687
28605.9
27536.2
26477.6
25429.8
205649
205609
205535
205426
205285
205113
204911
204681
204423
204138
203826
203488
203127
202745
202347
201935
201511
201077
200635
200184
199725
199256
198775
198281
197771
197246
196706
196155
195594
195028
194462
193898
193341
192793
192256
191731
191215
190704
190191
189667
189117
188525
187869
187129
186288
185344
184304
183176
181968
180698
179398
178118
176889
175721
174605
173524
172462
171413
170373
169335
168298
167262
166229
165205
164192
163190
162197
161206
160210
159202
158178
157135
156073
154992
153901
152811
151735
150681
149646
148624
147606
146585
145553
144507
143449
142381
141307
140232
139159
138085
137005
135906
134777
133611
132407
131170
129903
128611
127297
125968
124628
123285
121943
120603
119266
117932
116602
115275
113951
112630
111311
109995
108683
107372
106065
104760
103458
102158
100860
99562.9
98267.2
96972.3
95678
94384.3
93091
91798
90505
89211.8
87918.3
86624.5
85330.2
84035.7
82740.7
81445.6
80150.3
78855
77559.8
76264.9
74970.4
73676.4
72383.1
71090.8
69799.6
68509.8
67221.6
65935.3
64651.2
63369.6
62090.9
60815.4
59543.4
58275.1
57010.9
55751
54495.7
53245.2
51999.8
50759.8
49525.5
48297
47074.7
45858.9
44649.7
43447.5
42252.6
41065.4
39886
38715
37552.4
36398.8
35254.4
34119.5
32994.5
31879.8
30775.7
29682.4
28600.1
27528.9
26468.6
25418.9
206769
206727
206650
206539
206397
206222
206017
205781
205512
205212
204881
204522
204139
203738
203323
202896
202460
202015
201561
201099
200628
200145
199647
199132
198599
198047
197479
196897
196305
195708
195109
194513
193923
193343
192776
192222
191678
191140
190600
190048
189472
188857
188183
187435
186593
185654
184631
183529
182346
181098
179811
178524
177272
176069
174913
173793
172693
171609
170539
169479
168423
167370
166322
165284
164259
163247
162245
161247
160245
159231
158200
157150
156082
154997
153902
152810
151736
150688
149664
148654
147647
146633
145605
144560
143503
142438
141369
140299
139231
138161
137080
135977
134842
133671
132464
131225
129957
128661
127343
126007
124661
123313
121967
120625
119288
117954
116624
115297
113973
112651
111333
110017
108703
107392
106084
104778
103475
102175
100876
99578.5
98282.3
96986.8
95691.8
94397.4
93103.4
91809.7
90516
89222.2
87928.2
86633.8
85339.1
84044.1
82748.7
81453.1
80157.4
78861.7
77566.2
76270.9
74976
73681.7
72388.1
71095.4
69803.8
68513.6
67225
65938.3
64653.9
63371.9
62092.8
60817
59544.6
58276
57011.6
55751.4
54495.9
53245.3
51999.8
50759.7
49525.2
48296.7
47074.3
45858.4
44649.2
43446.9
42252
41064.7
39885.2
38714
37551.4
36397.5
35252.8
34117.6
32992.2
31876.9
30772
29677.8
28594.4
27521.9
26460.1
25408.6
208091
208049
207974
207866
207725
207550
207337
207085
206794
206465
206103
205713
205303
204877
204439
203994
203542
203082
202614
202135
201645
201140
200617
200073
199509
198923
198316
197692
197056
196413
195768
195125
194490
193864
193249
192647
192056
191470
190883
190287
189671
189023
188328
187571
186735
185813
184815
183751
182616
181415
180165
178900
177650
176432
175249
174094
172960
171842
170741
169654
168576
167505
166441
165387
164348
163321
162305
161294
160282
159260
158220
157164
156091
155004
153908
152816
151744
150700
149683
148681
147682
146672
145645
144599
143545
142485
141421
140356
139291
138221
137137
136029
134888
133714
132506
131268
130000
128703
127380
126039
124688
123336
121988
120645
119307
117974
116643
115317
113993
112672
111354
110038
108724
107412
106103
104796
103493
102192
100892
99594.7
98298
97002
95706.3
94411.2
93116.4
91822
90527.6
89233.2
87938.6
86643.7
85348.5
84052.9
82757.1
81461.1
80165
78868.9
77573
76277.3
74982.1
73687.4
72393.4
71100.4
69808.4
68517.8
67228.8
65941.7
64656.8
63374.4
62094.9
60818.6
59545.9
58277
57012.2
55751.9
54496.2
53245.4
51999.7
50759.5
49524.9
48296.3
47073.9
45857.9
44648.7
43446.4
42251.4
41064
39884.5
38713.1
37550.3
36396.2
35251.2
34115.7
32989.8
31874
30768.5
29673.4
28589
27515.2
26452
25398.9
209672
209629
209555
209448
209304
209120
208889
208612
208287
207921
207519
207090
206641
206179
205707
205229
204746
204260
203766
203261
202742
202207
201648
201062
200453
199820
199164
198488
197799
197103
196404
195708
195018
194337
193666
193006
192357
191715
191073
190424
189760
189073
188353
187584
186753
185851
184883
183857
182774
181629
180433
179203
177971
176757
175566
174394
173236
172093
170964
169851
168751
167662
166580
165511
164454
163411
162379
161352
160326
159293
158246
157183
156107
155019
153925
152834
151761
150717
149702
148703
147706
146698
145671
144627
143574
142519
141461
140398
139332
138259
137171
136058
134914
133739
132532
131295
130027
128729
127405
126061
124708
123353
122004
120661
119324
117991
116661
115335
114012
112692
111374
110058
108744
107432
106122
104815
103511
102209
100910
99611.6
98314.5
97017.9
95721.6
94425.8
93130.3
91835.2
90540.1
89245.1
87949.8
86654.3
85358.6
84062.6
82766.3
81469.8
80173.3
78876.8
77580.5
76284.5
74988.9
73693.8
72399.5
71106
69813.6
68522.5
67233.1
65945.4
64660
63377.1
62097.2
60820.4
59547.3
58278
57012.9
55752.3
54496.4
53245.5
51999.7
50759.3
49524.7
48296
47073.6
45857.5
44648.2
43445.9
42250.8
41063.3
39883.7
38712.3
37549.2
36395
35249.7
34113.8
32987.6
31871.2
30765
29669.2
28583.8
27508.9
26444.4
25390.1
211396
211351
211274
211161
211010
210813
210564
210259
209898
209484
209027
208537
208028
207511
206991
206469
205946
205422
204891
204347
203785
203205
202599
201966
201307
200626
199922
199199
198461
197716
196968
196221
195481
194749
194025
193312
192610
191914
191221
190523
189814
189088
188337
187550
186718
185829
184885
183887
182843
181748
180603
179417
178211
177008
175819
174643
173478
172322
171176
170043
168925
167820
166725
165641
164569
163509
162460
161418
160377
159333
158279
157212
156133
155047
153956
152866
151790
150742
149721
148717
147717
146708
145683
144643
143594
142543
141487
140424
139354
138275
137183
136066
134920
133743
132536
131298
130030
128733
127409
126067
124715
123362
122014
120672
119337
118005
116676
115351
114028
112709
111392
110077
108763
107451
106141
104833
103529
102227
100927
99628.3
98330.8
97033.8
95737.1
94440.6
93144.5
91848.7
90553
89257.3
87961.5
86665.5
85369.2
84072.6
82775.9
81478.9
80182
78885.1
77588.4
76292
74996
73700.6
72405.8
71111.9
69819.1
68527.5
67237.5
65949.4
64663.4
63379.9
62099.4
60822.2
59548.6
58278.9
57013.5
55752.6
54496.5
53245.3
51999.4
50759
49524.3
48295.5
47073
45856.9
44647.6
43445.2
42250.1
41062.5
39882.8
38711.2
37548.1
36393.6
35248.1
34111.9
32985.3
31868.4
30761.6
29665
28578.8
27502.9
26437.3
25381.7
213073
213024
212935
212808
212642
212428
212158
211821
211413
210939
210413
209854
209280
208702
208131
207564
206998
206429
205854
205264
204656
204029
203380
202706
202007
201287
200547
199788
199015
198233
197449
196667
195890
195120
194356
193601
192856
192117
191381
190642
189895
189134
188353
187545
186701
185814
184880
183900
182876
181811
180704
179556
178378
177190
176006
174832
173666
172507
171355
170212
169081
167963
166857
165762
164677
163605
162543
161488
160435
159380
158320
157250
156171
155087
153999
152912
151832
150775
149742
148728
147721
146709
145686
144651
143609
142559
141501
140436
139361
138277
137178
136056
134907
133727
132517
131277
130009
128714
127394
126056
124709
123361
122018
120679
119345
118015
116688
115363
114042
112724
111407
110093
108779
107467
106158
104850
103546
102243
100943
99644.3
98346.5
97049.2
95752.1
94455.2
93158.6
91862.3
90566
89269.8
87973.4
86676.9
85380.1
84083
82785.7
81488.3
80190.9
78893.5
77596.4
76299.7
75003.3
73707.6
72412.4
71118.2
69824.9
68532.8
67242.2
65953.5
64666.9
63382.9
62101.8
60824
59549.9
58279.8
57014.1
55752.9
54496.5
53245.2
51999.2
50758.6
49523.9
48295.1
47072.5
45856.4
44647
43444.5
42249.4
41061.7
39882
38710.3
37547
36392.3
35246.6
34110.1
32983.1
31865.8
30758.4
29661.2
28574.1
27497.3
26430.7
25374.1
214712
214650
214539
214382
214179
213928
213618
213238
212778
212245
211655
211032
210395
209761
209137
208524
207913
207297
206676
206042
205392
204725
204037
203327
202596
201847
201080
200294
199496
198689
197880
197073
196270
195471
194678
193890
193111
192337
191564
190790
190009
189217
188408
187577
186717
185823
184890
183916
182903
181854
180769
179650
178500
177330
176154
174981
173816
172658
171506
170360
169222
168095
166979
165874
164781
163700
162627
161561
160499
159435
158369
157297
156219
155137
154052
152967
151885
150817
149771
148744
147727
146711
145687
144655
143613
142561
141501
140432
139353
138262
137155
136028
134874
133691
132478
131238
129972
128680
127365
126034
124695
123354
122016
120681
119350
118022
116696
115373
114053
112736
111421
110107
108794
107483
106173
104866
103562
102259
100959
99659.6
98361.6
97064.1
95766.8
94469.7
93172.8
91876
90579.3
89282.6
87985.7
86688.7
85391.3
84093.7
82795.8
81497.9
80200
78902.2
77604.7
76307.6
75011
73714.8
72419.4
71124.7
69831
68538.4
67247.2
65957.8
64670.6
63385.9
62104.2
60825.8
59551.3
58280.7
57014.6
55753.1
54496.5
53245
51998.9
50758.3
49523.4
48294.6
47071.9
45855.8
44646.3
43443.9
42248.7
41061
39881.1
38709.3
37545.9
36391.1
35245.2
34108.4
32981
31863.3
30755.5
29657.6
28569.9
27492.2
26424.7
25367.2
216344
216261
216113
215906
215644
215328
214954
214512
213994
213402
212755
212075
211387
210707
210043
209393
208741
208082
207416
206739
206047
205339
204615
203873
203113
202339
201548
200743
199927
199103
198275
197448
196624
195804
194987
194174
193367
192562
191760
190955
190145
189325
188491
187638
186761
185855
184916
183942
182934
181893
180822
179720
178591
177440
176276
175109
173944
172787
171636
170490
169349
168216
167094
165983
164883
163793
162711
161636
160565
159497
158427
157353
156275
155193
154110
153026
151944
150869
149811
148770
147743
146719
145691
144655
143609
142552
141486
140412
139328
138231
137117
135984
134826
133640
132426
131187
129923
128636
127328
126005
124674
123342
122010