/*--------------------------------*- C++ -*----------------------------------*\
  =========                 |
  \\      /  F ield         | OpenFOAM: The Open Source CFD Toolbox
   \\    /   O peration     | Website:  https://openfoam.org
    \\  /    A nd           | Version:  9
     \\/     M anipulation  |
\*---------------------------------------------------------------------------*/
FoamFile
{
    format      ascii;
    class       volScalarField;
    location    "0.052";
    object      s;
}
// * * * * * * * * * * * * * * * * * * * * * * * * * * * * * * * * * * * * * //

dimensions      [0 0 0 0 0 0 0];

internalField   nonuniform List<scalar> 
12225
(
1
1
1
1
1
1
1
1
1
1
1
1
1
1
1
1
1
0.99999
1
1
1
1
1
1
1
1
1
1
1
1
1
1
1
1
1
1
1
1
1
1
1
1
1
1
1
1
1
1
1
1
1
1
1
1
1
1
1
1
1
1
1
1
1
1
1
1
1
1
1
1
1
1
1
1
1
1
1
1
1
1
1
1
1
1
1
1
1
1
1
1
1
1
1
1
1
1
1
1
1
1
1
1
1
1
1
1
1
1
1
1
1
1
1
1
1
1
1
1
1
1
1
1
1
1
1
1
1
1
1
1
1
1
1
1
1
1
1
1
1
1
1
1
1
1
1
1
1
1
1
1
1
1
1
1
1
1
1
1
1
1
1
1
1
1
1
1
1
1
1
1
1
1
1
1
1
1
1
1
1
1
1
1
1
1
1
1
1
1
1
1
1
1
1
1
1
1
1
1
1
1
1
1
1
1
1
1
1
1
1
1
1
1
1
1
1
1
1
1
1
1
1
1
1
1
1
1
1
1
1
1
1
1
1
1
1
1
1
1
1
1
1
1
1
1
1
1
1
1
1
1
1
1
1
1
1
1
1
1
1
1
1
1
1
1
1
1
1
1
1
1
1
1
1
1
1
1
1
1
1
1
1
1
1
1
1
1
1
1
1
1
1
1
1
1
1
1
1
1
1
1
1
1
1
1
1
1
1
1
1
1
1
1
1
1
1
1
1
1
1
1
1
1
1
1
1
1
1
1
1
1
1
1
1
1
1
1
1
1
1
1
1
1
1
1
1
1
1
1
1
1
1
1
1
1
1
1
1
1
1
1
1
1
1
1
1
1
1
1
1
1
1
1
1
1
1
1
1
1
1
1
1
1
1
1
1
1
1
1
1
1
1
1
1
1
1
1
1
1
1
1
1
1
1
1
1
1
1
1
1
1
1
1
1
1
1
1
1
1
1
1
1
1
1
1
1
1
1
1
1
1
1
1
1
1
1
1
1
1
1
1
1
1
1
1
1
1
1
1
1
1
1
1
1
1
1
1
1
1
1
1
1
1
1
1
1
1
1
1
1
1
1
1
1
1
1
1
1
1
1
1
1
1
1
1
1
1
1
1
1
1
1
1
1
1
1
1
1
1
1
1
1
1
1
1
1
1
1
1
1
1
1
1
1
1
1
1
1
1
1
1
1
1
1
1
1
1
1
1
1
1
1
1
1
1
1
1
1
1
1
1
0.655444
0.648378
0.648314
0.649538
0.65163
0.651807
0.650698
0.648052
0.648013
0.649155
0.651884
0.655384
0.658517
0.661129
0.663248
0.664426
0.664613
0.664319
0.663169
0.660179
0.652707
0.641127
0.627429
0.612101
0.596124
0.580214
0.563644
0.546803
0.531384
0.517501
0.504254
0.49391
0.485955
0.477359
0.471746
0.469918
0.470032
0.472718
0.478459
0.489726
0.516007
0.533448
0.552877
0.596226
0.646914
0.678778
0.678825
0.677391
0.680997
0.691668
0.699174
0.700463
0.699737
0.694716
0.689909
0.688146
0.69333
0.707896
0.727794
0.741926
0.750628
0.757966
0.762252
0.762816
0.762946
0.765671
0.782627
0.833206
0.870517
0.881914
0.879551
0.873138
0.869051
0.866257
0.864215
0.862437
0.861178
0.860208
0.859365
0.858849
0.858451
0.858029
0.857897
0.857832
0.857761
0.857755
0.857808
0.857964
0.858229
0.858568
0.858924
0.859261
0.859606
0.86006
0.860684
0.861395
0.862076
0.862747
0.863497
0.864184
0.864728
0.865297
0.865872
0.8663
0.866886
0.867504
0.868039
0.86832
0.868665
0.869102
0.869457
0.869983
0.870353
0.87076
0.871228
0.871628
0.872216
0.872672
0.873336
0.874106
0.875142
0.876609
0.878661
0.881409
0.884874
0.889039
0.893843
0.899089
0.904142
0.907996
0.910911
0.913344
0.915328
0.916917
0.918221
0.919314
0.920217
0.921018
0.921774
0.922527
0.923289
0.924048
0.924802
0.925562
0.926343
0.927186
0.92817
0.929318
0.930508
0.931518
0.932175
0.932427
0.932398
0.931852
0.92949
0.923908
0.915709
0.901963
0.88556
0.873673
0.867136
0.86221
0.857585
0.854116
0.85176
0.848579
0.841976
0.824698
0.767801
0.59574
0.403858
0.267851
0.182562
0.13182
0.102216
0.0815926
0.0693906
0.0563306
0.0494102
0.0197926
0.657745
0.642597
0.638009
0.641082
0.65263
0.649201
0.638284
0.619368
0.611138
0.613854
0.620277
0.629011
0.636424
0.640958
0.642172
0.639563
0.628041
0.601551
0.564793
0.532712
0.506703
0.483346
0.462095
0.441711
0.424244
0.409244
0.398206
0.388787
0.381773
0.374805
0.369741
0.364398
0.359869
0.354677
0.350316
0.346273
0.343359
0.34123
0.340019
0.340986
0.358735
0.38896
0.458527
0.548139
0.615573
0.665086
0.673205
0.648902
0.631135
0.621053
0.615742
0.613046
0.611992
0.612928
0.616808
0.61885
0.62301
0.635659
0.684646
0.737355
0.756776
0.761869
0.763141
0.765315
0.775901
0.82204
0.862809
0.876791
0.879007
0.875902
0.867316
0.857949
0.849409
0.843434
0.83901
0.835759
0.834198
0.833307
0.832982
0.832922
0.833241
0.834001
0.834973
0.836041
0.837274
0.83874
0.840371
0.842347
0.844883
0.847772
0.850927
0.854477
0.858187
0.862076
0.866267
0.870633
0.875085
0.8792
0.882598
0.885521
0.887548
0.889121
0.890259
0.890819
0.891147
0.891241
0.89121
0.890736
0.890164
0.889556
0.888611
0.887685
0.886466
0.885126
0.883527
0.881691
0.879478
0.876819
0.873637
0.869753
0.864911
0.859004
0.852361
0.846614
0.842755
0.839866
0.838351
0.838404
0.840895
0.848134
0.857943
0.868917
0.8799
0.889228
0.896094
0.90108
0.904635
0.907168
0.908983
0.910318
0.911388
0.912356
0.913409
0.914697
0.916282
0.918212
0.920486
0.922859
0.924865
0.926144
0.926778
0.927361
0.928748
0.933996
0.944109
0.948651
0.948902
0.94752
0.942024
0.928411
0.919218
0.913258
0.906397
0.899273
0.891948
0.883448
0.876109
0.871714
0.866097
0.854117
0.825808
0.777718
0.728741
0.709555
0.679286
0.657107
0.607169
0.558775
0.526295
0.447637
0.666276
0.650015
0.64312
0.655737
0.65702
0.646344
0.608179
0.563851
0.553884
0.568789
0.56172
0.551007
0.543668
0.537125
0.529665
0.51451
0.495474
0.473484
0.453123
0.436397
0.420891
0.408603
0.399217
0.393907
0.392178
0.391865
0.392893
0.396872
0.400338
0.403286
0.404481
0.403016
0.401255
0.394228
0.388201
0.377541
0.367624
0.356473
0.346472
0.338818
0.335008
0.339795
0.362944
0.42718
0.531798
0.612754
0.652762
0.651758
0.644137
0.624998
0.607158
0.576453
0.562998
0.574078
0.599364
0.60722
0.609257
0.612846
0.630926
0.713632
0.760481
0.769796
0.789299
0.832749
0.861773
0.872574
0.874195
0.872295
0.862395
0.846318
0.835095
0.828838
0.825884
0.824687
0.824455
0.825798
0.827298
0.829543
0.831572
0.834082
0.837081
0.841139
0.8461
0.852343
0.859675
0.868975
0.88003
0.891945
0.902551
0.913659
0.922211
0.931204
0.937342
0.942152
0.944684
0.94593
0.946353
0.946
0.943695
0.942104
0.939943
0.937875
0.935891
0.93396
0.932153
0.930534
0.929262
0.928071
0.927117
0.926411
0.925813
0.925534
0.925329
0.925358
0.925579
0.926048
0.926671
0.927476
0.928323
0.929043
0.929331
0.928855
0.92666
0.919806
0.906804
0.889072
0.867457
0.845488
0.829081
0.819403
0.814276
0.812894
0.813711
0.819122
0.829461
0.83998
0.849032
0.855995
0.860906
0.864136
0.866183
0.867691
0.869495
0.872233
0.876107
0.881371
0.888614
0.898324
0.909838
0.920611
0.927324
0.92969
0.929572
0.927368
0.926419
0.92716
0.932818
0.946475
0.95416
0.956698
0.957411
0.957661
0.957679
0.957038
0.953998
0.943345
0.9271
0.912294
0.900461
0.893914
0.885336
0.87226
0.857039
0.847042
0.840533
0.838848
0.836082
0.834854
0.831364
0.808802
0.683919
0.675762
0.674902
0.667432
0.655606
0.602221
0.541144
0.527196
0.525678
0.525974
0.521826
0.514329
0.50781
0.49817
0.487617
0.475161
0.464908
0.457389
0.452615
0.450255
0.451644
0.463877
0.479932
0.501022
0.525863
0.550354
0.573778
0.592616
0.606767
0.614689
0.617654
0.614252
0.603435
0.585466
0.56493
0.537946
0.511703
0.480225
0.449825
0.419304
0.392741
0.374684
0.365794
0.373191
0.400894
0.467796
0.54916
0.604321
0.627342
0.628389
0.626494
0.619007
0.613397
0.611299
0.609085
0.608156
0.607994
0.608818
0.61822
0.687174
0.792469
0.839071
0.861196
0.869197
0.87121
0.869528
0.861587
0.843792
0.829805
0.823239
0.820046
0.819216
0.820636
0.822496
0.824921
0.828639
0.833144
0.839693
0.847467
0.858306
0.872658
0.888636
0.904341
0.919319
0.932623
0.942648
0.949736
0.953747
0.956636
0.957766
0.958097
0.95763
0.954739
0.950776
0.945878
0.939149
0.931188
0.92165
0.911227
0.900938
0.890472
0.880342
0.871423
0.863675
0.857293
0.851871
0.847922
0.845003
0.843132
0.842258
0.842039
0.843098
0.844858
0.84766
0.851626
0.857089
0.864019
0.872807
0.883514
0.89623
0.910454
0.92452
0.936115
0.946625
0.954754
0.958918
0.959267
0.953364
0.930501
0.894603
0.857439
0.828055
0.811255
0.802864
0.799729
0.799371
0.800355
0.804318
0.809182
0.813651
0.818167
0.823063
0.828163
0.83353
0.840134
0.848094
0.855829
0.86234
0.869562
0.881449
0.899773
0.919645
0.933899
0.939225
0.939364
0.935714
0.93135
0.931245
0.933813
0.944231
0.954962
0.962278
0.966673
0.96853
0.968824
0.968139
0.963693
0.946702
0.92675
0.914607
0.90582
0.896204
0.885103
0.875439
0.869264
0.866787
0.86618
0.866262
0.867001
0.869164
0.668616
0.672305
0.666546
0.646749
0.623469
0.550807
0.532507
0.528656
0.527143
0.525479
0.520378
0.514067
0.508525
0.502254
0.499295
0.498706
0.50881
0.529961
0.564965
0.615998
0.667826
0.718707
0.761029
0.799332
0.829661
0.851659
0.869141
0.881578
0.887813
0.890866
0.891619
0.886143
0.876694
0.861108
0.83816
0.806482
0.766472
0.72094
0.670594
0.618585
0.569148
0.523088
0.48338
0.452398
0.436227
0.434243
0.438639
0.455136
0.491474
0.525789
0.554803
0.575861
0.588642
0.596367
0.599217
0.601758
0.603702
0.606185
0.615334
0.68271
0.813518
0.861186
0.868604
0.868969
0.864023
0.847587
0.830433
0.821244
0.816591
0.815011
0.816665
0.818564
0.822204
0.827295
0.834931
0.847003
0.86309
0.882475
0.901456
0.919785
0.932521
0.943713
0.949725
0.954807
0.956864
0.957483
0.957457
0.955691
0.953939
0.948608
0.940315
0.927514
0.909355
0.886107
0.857895
0.831501
0.808653
0.788614
0.772765
0.759119
0.749857
0.743038
0.738031
0.734578
0.732233
0.730532
0.729663
0.729387
0.729368
0.729726
0.730661
0.73201
0.733926
0.736302
0.739304
0.743112
0.747714
0.753242
0.760133
0.76896
0.781019
0.798788
0.825112
0.858659
0.897514
0.93363
0.957127
0.97117
0.977219
0.977822
0.972192
0.945632
0.898102
0.85518
0.825012
0.808881
0.80201
0.80004
0.799999
0.801087
0.804832
0.810743
0.818373
0.826093
0.833682
0.843087
0.854404
0.864415
0.870362
0.873512
0.877452
0.886567
0.908051
0.929621
0.942151
0.945251
0.944343
0.938788
0.935632
0.935679
0.938468
0.949491
0.960961
0.967748
0.970791
0.971399
0.970812
0.966303
0.949059
0.930663
0.918676
0.909235
0.899858
0.890366
0.881771
0.875327
0.871582
0.870204
0.870119
0.87115
0.612754
0.636881
0.667705
0.616177
0.560612
0.54574
0.540791
0.540156
0.541051
0.540477
0.540331
0.543185
0.552969
0.572607
0.609309
0.665499
0.72546
0.785498
0.834951
0.872646
0.901179
0.925874
0.942475
0.955924
0.964837
0.970156
0.9739
0.975581
0.976319
0.976566
0.976074
0.974834
0.972431
0.968592
0.962772
0.954169
0.941638
0.923959
0.89939
0.866573
0.823783
0.775538
0.727705
0.688224
0.662343
0.648824
0.636646
0.614295
0.586779
0.559068
0.528713
0.500361
0.485465
0.483254
0.490109
0.517421
0.553781
0.575146
0.603864
0.696955
0.822481
0.863667
0.867339
0.861133
0.839609
0.823123
0.815329
0.811849
0.810575
0.814107
0.817743
0.823386
0.834243
0.850735
0.871804
0.895888
0.914265
0.930692
0.943521
0.95236
0.956676
0.95864
0.958982
0.958113
0.95612
0.953267
0.946721
0.935159
0.916193
0.885632
0.851178
0.817805
0.785019
0.762732
0.743575
0.730662
0.717614
0.709739
0.703939
0.698916
0.697071
0.696546
0.696726
0.698077
0.699954
0.702353
0.704443
0.706784
0.708888
0.711059
0.713234
0.715463
0.717998
0.720776
0.723908
0.727139
0.730609
0.734221
0.738034
0.741768
0.745445
0.749348
0.754255
0.762233
0.777381
0.808575
0.860567
0.91649
0.955351
0.976649
0.985821
0.987993
0.986511
0.974756
0.932955
0.883247
0.847522
0.825884
0.815
0.811405
0.811251
0.812344
0.816605
0.826971
0.837647
0.849307
0.864139
0.881019
0.895312
0.902653
0.903937
0.903176
0.902792
0.904789
0.91817
0.939923
0.948999
0.949966
0.947104
0.941578
0.940778
0.941671
0.947114
0.959137
0.967111
0.970667
0.971256
0.970297
0.963774
0.944085
0.92823
0.918405
0.910199
0.901143
0.891564
0.882947
0.876307
0.872015
0.869898
0.869765
0.627387
0.648337
0.625474
0.579027
0.565976
0.562822
0.572739
0.584423
0.597718
0.609351
0.637054
0.67375
0.723175
0.776913
0.829845
0.869646
0.90465
0.932094
0.950339
0.965153
0.973856
0.980773
0.984139
0.986583
0.987643
0.988117
0.988283
0.988298
0.988265
0.988283
0.988409
0.988549
0.98868
0.988792
0.988654
0.988036
0.986304
0.983067
0.977439
0.9682
0.954
0.932496
0.901819
0.863751
0.826747
0.795771
0.771345
0.756424
0.747255
0.740386
0.729414
0.704145
0.629643
0.541296
0.49735
0.486593
0.491964
0.518717
0.581594
0.712787
0.825005
0.862936
0.862783
0.83966
0.819361
0.810464
0.806917
0.805803
0.809247
0.815446
0.825491
0.84596
0.874559
0.89712
0.914331
0.932727
0.944307
0.953846
0.958607
0.960482
0.960723
0.959287
0.957235
0.952118
0.942489
0.925542
0.89586
0.857128
0.818197
0.789082
0.765628
0.744222
0.728393
0.71551
0.703436
0.693531
0.681975
0.676047
0.670593
0.668187
0.667313
0.669158
0.67353
0.678852
0.683997
0.689988
0.694965
0.70001
0.704249
0.707817
0.710842
0.713584
0.716479
0.719912
0.723727
0.728061
0.732941
0.73795
0.742846
0.747054
0.749615
0.750172
0.751111
0.752801
0.755841
0.760869
0.771237
0.798459
0.858868
0.921717
0.961692
0.982583
0.991291
0.993572
0.993128
0.987489
0.962836
0.914238
0.8758
0.851841
0.839023
0.834597
0.834564
0.836059
0.83943
0.845823
0.858588
0.877671
0.900349
0.920707
0.93298
0.936357
0.935556
0.931118
0.930207
0.931787
0.94091
0.951604
0.954359
0.953779
0.949709
0.948027
0.948785
0.95334
0.963414
0.969184
0.970889
0.970714
0.967924
0.954781
0.934548
0.922099
0.915065
0.908949
0.901114
0.891812
0.882764
0.875735
0.871563
0.870068
0.660023
0.640374
0.603001
0.590155
0.593224
0.626531
0.676926
0.699409
0.730672
0.756436
0.797103
0.833267
0.876227
0.906221
0.93625
0.952928
0.96921
0.977034
0.983113
0.985963
0.987317
0.987888
0.98801
0.987781
0.987248
0.986917
0.986153
0.985777
0.98563
0.985708
0.986287
0.987077
0.987997
0.989124
0.990292
0.99165
0.992531
0.993091
0.993418
0.992509
0.989664
0.982955
0.968939
0.938332
0.887656
0.839043
0.797504
0.773421
0.761191
0.756444
0.75481
0.753388
0.747394
0.711555
0.589998
0.519419
0.50965
0.524132
0.579685
0.712123
0.823476
0.86035
0.853301
0.825352
0.808138
0.801889
0.800112
0.801675
0.809706
0.820758
0.848658
0.892654
0.915675
0.928996
0.939766
0.951102
0.957292
0.960407
0.961269
0.961006
0.959415
0.954741
0.945079
0.925649
0.888827
0.850769
0.814279
0.788159
0.765353
0.750264
0.735501
0.721494
0.703359
0.68297
0.66303
0.639704
0.61528
0.603533
0.599947
0.600203
0.608318
0.621654
0.635818
0.651898
0.666441
0.680167
0.690279
0.698001
0.703688
0.707891
0.711041
0.713485
0.715681
0.718284
0.721895
0.726732
0.733023
0.739871
0.747244
0.755293
0.763451
0.770208
0.771211
0.766381
0.76234
0.761185
0.762451
0.767511
0.779283
0.815916
0.887082
0.942283
0.973708
0.988976
0.995182
0.996686
0.996136
0.992741
0.982231
0.951915
0.917958
0.893989
0.880739
0.876474
0.876506
0.878194
0.882513
0.891226
0.905128
0.923458
0.941683
0.953946
0.958312
0.958312
0.954489
0.949797
0.949819
0.952861
0.958925
0.960916
0.960774
0.95895
0.958062
0.958978
0.963909
0.96947
0.971215
0.97109
0.968706
0.957346
0.93718
0.922744
0.915018
0.911215
0.907034
0.900424
0.891912
0.883143
0.876512
0.872603
0.671458
0.631495
0.613413
0.619658
0.673331
0.74534
0.776686
0.803548
0.833445
0.861493
0.894944
0.92058
0.946704
0.960523
0.973956
0.979993
0.984191
0.98577
0.986383
0.986471
0.985966
0.984259
0.981844
0.97858
0.975506
0.973687
0.972597
0.972147
0.972037
0.972596
0.973414
0.97461
0.976048
0.977913
0.980544
0.984159
0.988351
0.991888
0.994177
0.995486
0.995886
0.995683
0.99305
0.98439
0.959818
0.897378
0.82594
0.784063
0.764712
0.757214
0.754465
0.754753
0.75468
0.746505
0.686888
0.580806
0.539538
0.540633
0.583934
0.713033
0.820582
0.854445
0.84225
0.816888
0.801442
0.795692
0.794114
0.798455
0.809267
0.837782
0.882995
0.921513
0.938351
0.946403
0.952416
0.958019
0.960462
0.961139
0.96094
0.958794
0.952132
0.936797
0.90344
0.861438
0.824928
0.795523
0.775351
0.758488
0.745942
0.731322
0.713325
0.685556
0.646268
0.588681
0.553716
0.540675
0.537682
0.543672
0.55837
0.574322
0.591016
0.609176
0.628276
0.64783
0.665858
0.682583
0.696423
0.707295
0.715298
0.720154
0.722225
0.722025
0.719847
0.718248
0.718196
0.719401
0.72195
0.727393
0.736275
0.748669
0.762019
0.774244
0.784993
0.791448
0.788574
0.780768
0.77433
0.771146
0.771862
0.778474
0.799768
0.86291
0.926596
0.965024
0.984953
0.994092
0.997585
0.998222
0.997824
0.995715
0.989907
0.975177
0.96157
0.954951
0.953714
0.954089
0.955794
0.961109
0.967014
0.97137
0.974504
0.976023
0.976212
0.975964
0.97484
0.970541
0.964672
0.963337
0.963944
0.966541
0.967791
0.967746
0.967727
0.968073
0.970106
0.973134
0.973871
0.973387
0.969816
0.955404
0.935791
0.922607
0.915287
0.911827
0.909778
0.906344
0.899081
0.890058
0.883193
0.878028
0.671047
0.637725
0.634732
0.68215
0.769604
0.821231
0.846118
0.874714
0.898656
0.923424
0.944972
0.962002
0.973
0.979968
0.983456
0.984794
0.985224
0.985169
0.983624
0.980261
0.974074
0.969307
0.965262
0.963193
0.962131
0.961632
0.961506
0.962149
0.96304
0.964366
0.966365
0.967832
0.969592
0.970955
0.972065
0.973173
0.975192
0.979204
0.985781
0.992359
0.995532
0.996968
0.997392
0.996598
0.991796
0.974471
0.914289
0.824773
0.779883
0.761129
0.754124
0.752817
0.754743
0.75159
0.718436
0.622948
0.574592
0.566039
0.604278
0.725985
0.818043
0.838957
0.824482
0.804516
0.792279
0.787518
0.787307
0.793074
0.8063
0.837817
0.903618
0.938495
0.949564
0.954247
0.957107
0.959548
0.960543
0.960573
0.958301
0.950685
0.931394
0.88991
0.846711
0.812558
0.790347
0.771712
0.758813
0.746422
0.731632
0.705831
0.664116
0.587922
0.528168
0.504567
0.497909
0.504267
0.534627
0.565047
0.592426
0.61581
0.635457
0.653201
0.669366
0.686333
0.703759
0.722048
0.738999
0.753749
0.764156
0.7689
0.769929
0.766544
0.756455
0.742486
0.730786
0.723728
0.720712
0.720957
0.723866
0.729838
0.742894
0.763512
0.782899
0.797201
0.805443
0.805154
0.799276
0.790434
0.78397
0.781857
0.784567
0.799367
0.852357
0.918528
0.959869
0.98206
0.992664
0.997217
0.998828
0.999074
0.998837
0.997686
0.994176
0.990935
0.989729
0.989692
0.989914
0.990455
0.991496
0.992389
0.992628
0.992555
0.992087
0.991016
0.98974
0.98699
0.980166
0.974977
0.97321
0.973124
0.973573
0.97409
0.974392
0.974984
0.976748
0.978318
0.978495
0.977428
0.971209
0.951806
0.933904
0.923043
0.917507
0.915093
0.913432
0.910253
0.902994
0.894096
0.887789
0.883288
0.672971
0.651255
0.671625
0.747717
0.833131
0.871741
0.893268
0.91875
0.937013
0.955702
0.968016
0.977273
0.981617
0.983663
0.984298
0.98439
0.983121
0.979528
0.972538
0.96707
0.963336
0.960305
0.957824
0.95548
0.953674
0.952665
0.952242
0.952284
0.953994
0.95636
0.959405
0.963379
0.966549
0.969011
0.970506
0.971458
0.971884
0.97234
0.974158
0.978901
0.988276
0.994803
0.997448
0.998154
0.99808
0.99475
0.97877
0.911271
0.817092
0.773609
0.756355
0.75102
0.75293
0.751705
0.723845
0.626915
0.593553
0.61465
0.675722
0.759877
0.81023
0.81416
0.802185
0.78827
0.779677
0.776575
0.777138
0.782506
0.797911
0.830997
0.901284
0.943133
0.955287
0.957225
0.958165
0.959461
0.95986
0.958082
0.950724
0.927144
0.886001
0.846344
0.814114
0.788703
0.773466
0.760596
0.749615
0.732966
0.708233
0.657188
0.554482
0.49467
0.475527
0.474612
0.51014
0.573553
0.655667
0.727169
0.771282
0.794468
0.806178
0.811155
0.812181
0.810299
0.809242
0.812529
0.817016
0.817868
0.814939
0.811924
0.809884
0.808219
0.805016
0.797999
0.783765
0.7632
0.742923
0.731225
0.726685
0.727346
0.732677
0.743752
0.766793
0.792849
0.810243
0.816515
0.815796
0.81107
0.804338
0.798125
0.794857
0.795755
0.807066
0.853883
0.91825
0.958986
0.981189
0.992058
0.996876
0.99881
0.999469
0.999543
0.99942
0.998931
0.998432
0.99819
0.998104
0.998075
0.998067
0.998044
0.997972
0.997795
0.997302
0.996588
0.995926
0.994741
0.991775
0.985693
0.981477
0.979698
0.979291
0.979281
0.979442
0.980102
0.981879
0.983026
0.983057
0.981483
0.972702
0.950522
0.934121
0.925543
0.92199
0.920347
0.91821
0.913178
0.904648
0.896308
0.890889
0.887581
0.677779
0.66711
0.703008
0.794673
0.872361
0.90423
0.922587
0.94454
0.958656
0.970271
0.977865
0.981746
0.983205
0.983625
0.983566
0.981587
0.97578
0.969191
0.963489
0.958213
0.953433
0.948328
0.943483
0.938817
0.935254
0.932644
0.931419
0.931054
0.932245
0.934826
0.940102
0.947088
0.956492
0.964407
0.969287
0.971299
0.97198
0.971864
0.971942
0.972824
0.976204
0.986049
0.994494
0.997772
0.998749
0.998828
0.995761
0.978081
0.894977
0.803499
0.765241
0.751417
0.747536
0.749599
0.726191
0.633211
0.608083
0.644504
0.712419
0.769235
0.796405
0.795331
0.784243
0.775052
0.769645
0.767951
0.768386
0.771738
0.781774
0.809461
0.884591
0.939055
0.955934
0.958315
0.958246
0.958742
0.957681
0.950037
0.931603
0.896499
0.852851
0.815595
0.789637
0.775203
0.764965
0.756076
0.741108
0.717974
0.670563
0.560547
0.483026
0.458365
0.457223
0.507818
0.615991
0.770661
0.834607
0.857869
0.867382
0.871908
0.875422
0.879041
0.881533
0.881095
0.876001
0.867296
0.856287
0.843418
0.832379
0.824059
0.818433
0.815153
0.81324
0.811764
0.809851
0.806039
0.796007
0.774375
0.752449
0.741125
0.738138
0.741229
0.753227
0.777311
0.807349
0.826282
0.829577
0.825066
0.819867
0.816365
0.812412
0.80988
0.810365
0.820454
0.86511
0.92443
0.961755
0.982206
0.992333
0.996936
0.998825
0.999544
0.999784
0.999819
0.999809
0.99976
0.999707
0.999659
0.999588
0.999519
0.999463
0.999369
0.999121
0.99871
0.998373
0.997874
0.996794
0.993694
0.98867
0.985482
0.984065
0.983642
0.983642
0.984064
0.985666
0.986712
0.986688
0.984822
0.974408
0.951447
0.936752
0.930334
0.928225
0.927005
0.924651
0.918185
0.907489
0.898607
0.893365
0.890733
0.686797
0.682481
0.73259
0.827011
0.895963
0.925575
0.942513
0.95848
0.969713
0.976664
0.980829
0.982557
0.983036
0.982551
0.980112
0.974731
0.967785
0.961126
0.954802
0.948331
0.942171
0.936121
0.930618
0.926935
0.92435
0.923074
0.92252
0.922407
0.922667
0.923344
0.924756
0.927541
0.933276
0.946135
0.961754
0.969701
0.972868
0.973941
0.972401
0.971984
0.972855
0.976319
0.987451
0.994862
0.998279
0.999263
0.999302
0.996279
0.976262
0.879063
0.79417
0.759568
0.745845
0.740108
0.727362
0.664778
0.641668
0.654045
0.699479
0.760143
0.779827
0.780574
0.775367
0.769044
0.765754
0.764936
0.76522
0.767038
0.772306
0.786486
0.83559
0.921191
0.952808
0.958104
0.957978
0.957126
0.951255
0.933361
0.901836
0.863006
0.827989
0.79954
0.781035
0.768253
0.758316
0.747629
0.730216
0.697172
0.608924
0.490153
0.442514
0.433961
0.469087
0.595412
0.787085
0.853242
0.87037
0.874755
0.875645
0.875764
0.87788
0.883357
0.889582
0.894783
0.897177
0.892106
0.87953
0.862776
0.846083
0.8322
0.822703
0.816956
0.81381
0.812273
0.811706
0.811595
0.811733
0.810047
0.80027
0.778687
0.762558
0.756549
0.757126
0.768146
0.794192
0.825878
0.844539
0.846088
0.838694
0.83109
0.828637
0.827179
0.826247
0.827338
0.839
0.885005
0.935627
0.96725
0.984688
0.993353
0.997319
0.998987
0.999619
0.999851
0.999932
0.999952
0.999953
0.999947
0.999922
0.999886
0.999861
0.999824
0.999727
0.999529
0.99937
0.999161
0.998723
0.997593
0.994153
0.990261
0.988049
0.987147
0.986996
0.987231
0.988509
0.989515
0.989498
0.987727
0.977397
0.955735
0.943131
0.938425
0.937356
0.93669
0.934851
0.928
0.913821
0.902977
0.896913
0.893945
0.694604
0.69489
0.747542
0.840468
0.911661
0.939217
0.952728
0.965918
0.975077
0.979184
0.9815
0.982457
0.982628
0.981252
0.977137
0.969709
0.963214
0.956106
0.948685
0.941481
0.934588
0.929109
0.92517
0.922782
0.92168
0.92122
0.92107
0.921067
0.921164
0.921426
0.921927
0.922953
0.925124
0.930079
0.941674
0.961093
0.971746
0.97513
0.97518
0.972816
0.972313
0.973447
0.979444
0.99028
0.996238
0.998896
0.999626
0.999617
0.996722
0.973521
0.869739
0.793098
0.757639
0.735281
0.722466
0.693558
0.677079
0.676162
0.690892
0.73648
0.76635
0.772622
0.771537
0.768182
0.765814
0.765411
0.765839
0.76752
0.77158
0.779864
0.800601
0.871626
0.939017
0.955989
0.956743
0.952206
0.944838
0.918475
0.877354
0.842057
0.813785
0.79016
0.774355
0.766478
0.757103
0.745508
0.726136
0.66658
0.548209
0.448529
0.419276
0.417552
0.485242
0.680649
0.82625
0.863874
0.871625
0.870148
0.860482
0.850372
0.848509
0.860344
0.879761
0.893925
0.902173
0.90555
0.904222
0.89617
0.875574
0.850724
0.832699
0.821172
0.814553
0.811231
0.809761
0.810074
0.812255
0.814292
0.815326
0.813238
0.800997
0.786937
0.780527
0.77973
0.788369
0.815339
0.846132
0.860627
0.860494
0.851901
0.844837
0.843304
0.843221
0.843906
0.847501
0.864868
0.911089
0.949737
0.974349
0.98803
0.994829
0.997912
0.999211
0.999716
0.999897
0.999961
0.999982
0.999986
0.999984
0.999976
0.999966
0.999953
0.999919
0.999839
0.999773
0.999686
0.999504
0.999036
0.997503
0.993894
0.991254
0.989974
0.989649
0.989761
0.990698
0.991646
0.991667
0.990281
0.981816
0.962998
0.952445
0.949115
0.948744
0.948695
0.947841
0.942845
0.926932
0.91217
0.904466
0.900092
0.70332
0.707312
0.763565
0.847401
0.911213
0.945445
0.961334
0.970493
0.977064
0.980274
0.981697
0.982126
0.98143
0.978194
0.971782
0.965152
0.958919
0.951651
0.944757
0.937887
0.931973
0.927179
0.924203
0.9225
0.921695
0.921315
0.92112
0.921073
0.921101
0.921265
0.921584
0.922239
0.923574
0.926431
0.933926
0.951661
0.967406
0.974978
0.97638
0.974961
0.972513
0.972575
0.975716
0.986308
0.994192
0.997859
0.999385
0.999829
0.999786
0.997233
0.970413
0.867304
0.806886
0.768909
0.738363
0.712566
0.698074
0.693228
0.698495
0.735719
0.763963
0.770935
0.771179
0.769871
0.770017
0.772589
0.775636
0.7783
0.780859
0.785937
0.798387
0.826889
0.902643
0.947317
0.9542
0.949987
0.928368
0.905874
0.868819
0.829104
0.802532
0.785021
0.771091
0.763139
0.754576
0.742299
0.716201
0.6468
0.515933
0.429099
0.395489
0.396447
0.455829
0.647083
0.798031
0.848353
0.855772
0.846724
0.820079
0.791105
0.780261
0.793871
0.838935
0.877716
0.899479
0.907807
0.909748
0.90902
0.903684
0.884255
0.856868
0.835602
0.821689
0.813806
0.809504
0.807441
0.807631
0.811738
0.81612
0.81921
0.820362
0.817482
0.811517
0.80762
0.805929
0.812002
0.839084
0.867789
0.875915
0.874158
0.865131
0.861083
0.861025
0.862181
0.864784
0.872275
0.899129
0.936491
0.964219
0.981803
0.991549
0.99637
0.998541
0.999447
0.999804
0.999933
0.999977
0.999991
0.999994
0.999994
0.999993
0.999988
0.999977
0.99995
0.999925
0.99989
0.999815
0.999611
0.998923
0.996537
0.993738
0.99223
0.991757
0.991789
0.992435
0.993293
0.993348
0.992346
0.985899
0.97076
0.962511
0.960363
0.960453
0.960963
0.960727
0.958161
0.947212
0.930808
0.921723
0.914729
0.710476
0.71615
0.762255
0.843743
0.90535
0.943521
0.961755
0.972012
0.978144
0.980729
0.981785
0.982034
0.981349
0.978372
0.97164
0.964799
0.959161
0.952143
0.945546
0.938848
0.933129
0.928339
0.925199
0.923357
0.922343
0.922049
0.922162
0.92228
0.922145
0.922164
0.922311
0.922711
0.923648
0.925964
0.931896
0.948506
0.965936
0.974643
0.976805
0.975823
0.972736
0.972237
0.974002
0.983261
0.992726
0.997293
0.999112
0.999742
0.999928
0.999856
0.997619
0.970961
0.871607
0.818618
0.798999
0.769615
0.736375
0.720667
0.720276
0.743984
0.765956
0.772717
0.776346
0.783824
0.799988
0.81822
0.830718
0.835403
0.835335
0.830915
0.823797
0.833629
0.86564
0.9244
0.947222
0.946935
0.930085
0.882093
0.854127
0.823644
0.798098
0.779995
0.766643
0.759712
0.751951
0.738364
0.710001
0.63906
0.508732
0.413362
0.367496
0.363673
0.387288
0.512186
0.679665
0.772965
0.7984
0.793096
0.765669
0.717433
0.698542
0.711609
0.788427
0.853897
0.889366
0.905557
0.909766
0.909746
0.906976
0.894987
0.873288
0.854789
0.839267
0.826182
0.815847
0.808701
0.80491
0.804459
0.808871
0.816949
0.822957
0.826712
0.828617
0.829047
0.828768
0.828628
0.834373
0.865374
0.891728
0.895299
0.890945
0.88307
0.881609
0.883063
0.885373
0.889707
0.902606
0.931353
0.957399
0.976335
0.988102
0.994521
0.997664
0.999071
0.999654
0.999879
0.999961
0.999987
0.999996
0.999998
0.999998
0.999997
0.999994
0.999986
0.999978
0.999964
0.999933
0.999841
0.999504
0.998151
0.995594
0.994024
0.993456
0.993435
0.993855
0.994603
0.994686
0.994016
0.989455
0.978288
0.972363
0.971028
0.97126
0.972173
0.97225
0.971227
0.966022
0.953189
0.945483
0.937628
0.7216
0.724593
0.756778
0.833304
0.891971
0.936076
0.959256
0.971114
0.97775
0.98092
0.981986
0.982105
0.981596
0.979371
0.973219
0.966017
0.960553
0.954043
0.948213
0.94183
0.936346
0.931612
0.928116
0.925885
0.924427
0.923768
0.923742
0.923742
0.923811
0.923988
0.924397
0.925216
0.92663
0.929395
0.935599
0.951381
0.96875
0.976686
0.977757
0.976178
0.972296
0.971457
0.973001
0.982119
0.992104
0.997023
0.999013
0.999701
0.999919
0.999977
0.999935
0.998668
0.981687
0.886521
0.819972
0.819145
0.821248
0.804037
0.78346
0.776688
0.782359
0.791249
0.811459
0.847613
0.883115
0.908455
0.919117
0.920584
0.919295
0.913219
0.894648
0.873373
0.879064
0.905378
0.936942
0.943126
0.933539
0.888297
0.836996
0.812105
0.79354
0.777765
0.764297
0.756668
0.750097
0.73859
0.712895
0.648365
0.520253
0.420903
0.364728
0.340717
0.341474
0.359158
0.419174
0.554424
0.650456
0.672976
0.665648
0.630587
0.616525
0.664116
0.771972
0.846048
0.884872
0.901438
0.906082
0.90566
0.901741
0.890521
0.872734
0.857348
0.845057
0.834408
0.824459
0.814253
0.8056
0.800623
0.799753
0.804127
0.816954
0.826576
0.831736
0.834239
0.835307
0.836568
0.839947
0.855896
0.897482
0.916717
0.917161
0.910605
0.905907
0.906549
0.909851
0.91238
0.917622
0.933138
0.954852
0.972784
0.985254
0.99274
0.996717
0.998627
0.999466
0.999807
0.999935
0.999979
0.999994
0.999998
0.999999
0.999999
0.999999
0.999997
0.999994
0.999989
0.999975
0.999931
0.999753
0.999005
0.996935
0.995413
0.994814
0.994755
0.995023
0.995654
0.995758
0.99534
0.992297
0.984755
0.980965
0.980254
0.980507
0.98138
0.981576
0.981207
0.979089
0.971753
0.966168
0.959013
0.737743
0.733901
0.748811
0.813634
0.869751
0.919941
0.951746
0.967877
0.976275
0.98046
0.982233
0.982443
0.982241
0.981238
0.977682
0.969491
0.963444
0.957498
0.952276
0.947334
0.942477
0.937969
0.934274
0.9314
0.929385
0.927874
0.927459
0.927061
0.927135
0.927403
0.927971
0.929033
0.931074
0.935313
0.945907
0.965882
0.976406
0.978769
0.978235
0.974856
0.9704
0.969858
0.972416
0.982501
0.992252
0.997088
0.999045
0.999716
0.999917
0.999979
0.999993
0.999972
0.999366
0.990494
0.914737
0.821616
0.812691
0.828066
0.841967
0.848837
0.849939
0.862296
0.888226
0.912641
0.933207
0.948483
0.958726
0.962782
0.962268
0.959165
0.950001
0.930172
0.911464
0.91479
0.93307
0.942486
0.938725
0.905501
0.842918
0.800096
0.783542
0.773024
0.761886
0.754866
0.749179
0.739944
0.720186
0.671108
0.549942
0.443104
0.374575
0.342438
0.328816
0.327576
0.330868
0.346209
0.40499
0.479095
0.499495
0.508567
0.54458
0.650838
0.768221
0.845783
0.88508
0.897454
0.897715
0.893414
0.878981
0.860459
0.849112
0.842229
0.837462
0.832393