/*--------------------------------*- C++ -*----------------------------------*\
  =========                 |
  \\      /  F ield         | OpenFOAM: The Open Source CFD Toolbox
   \\    /   O peration     | Website:  https://openfoam.org
    \\  /    A nd           | Version:  9
     \\/     M anipulation  |
\*---------------------------------------------------------------------------*/
FoamFile
{
    format      ascii;
    class       volScalarField;
    location    "0.052";
    object      s_0;
}
// * * * * * * * * * * * * * * * * * * * * * * * * * * * * * * * * * * * * * //

dimensions      [0 0 0 0 0 0 0];

internalField   nonuniform List<scalar> 
12225
(
1
1
1
1
1
1
1
1
1
1
1
1
1
1
1
1
1
0.99999
1
1
1
1
1
1
1
1
1
1
1
1
1
1
1
1
1
1
1
1
1
1
1
1
1
1
1
1
1
1
1
1
1
1
1
1
1
1
1
1
1
1
1
1
1
1
1
1
1
1
1
1
1
1
1
1
1
1
1
1
1
1
1
1
1
1
1
1
1
1
1
1
1
1
1
1
1
1
1
1
1
1
1
1
1
1
1
1
1
1
1
1
1
1
1
1
1
1
1
1
1
1
1
1
1
1
1
1
1
1
1
1
1
1
1
1
1
1
1
1
1
1
1
1
1
1
1
1
1
1
1
1
1
1
1
1
1
1
1
1
1
1
1
1
1
1
1
1
1
1
1
1
1
1
1
1
1
1
1
1
1
1
1
1
1
1
1
1
1
1
1
1
1
1
1
1
1
1
1
1
1
1
1
1
1
1
1
1
1
1
1
1
1
1
1
1
1
1
1
1
1
1
1
1
1
1
1
1
1
1
1
1
1
1
1
1
1
1
1
1
1
1
1
1
1
1
1
1
1
1
1
1
1
1
1
1
1
1
1
1
1
1
1
1
1
1
1
1
1
1
1
1
1
1
1
1
1
1
1
1
1
1
1
1
1
1
1
1
1
1
1
1
1
1
1
1
1
1
1
1
1
1
1
1
1
1
1
1
1
1
1
1
1
1
1
1
1
1
1
1
1
1
1
1
1
1
1
1
1
1
1
1
1
1
1
1
1
1
1
1
1
1
1
1
1
1
1
1
1
1
1
1
1
1
1
1
1
1
1
1
1
1
1
1
1
1
1
1
1
1
1
1
1
1
1
1
1
1
1
1
1
1
1
1
1
1
1
1
1
1
1
1
1
1
1
1
1
1
1
1
1
1
1
1
1
1
1
1
1
1
1
1
1
1
1
1
1
1
1
1
1
1
1
1
1
1
1
1
1
1
1
1
1
1
1
1
1
1
1
1
1
1
1
1
1
1
1
1
1
1
1
1
1
1
1
1
1
1
1
1
1
1
1
1
1
1
1
1
1
1
1
1
1
1
1
1
1
1
1
1
1
1
1
1
1
1
1
1
1
1
1
1
1
1
1
1
1
1
1
1
1
1
1
1
1
1
1
1
1
1
1
1
1
1
1
1
1
1
1
1
1
1
1
1
1
1
1
1
1
1
1
1
1
1
1
1
1
1
1
1
1
1
0.655495
0.648377
0.648305
0.649512
0.651624
0.651818
0.65074
0.64813
0.648089
0.64923
0.651951
0.655445
0.658566
0.661164
0.663271
0.664437
0.664619
0.664324
0.663173
0.660184
0.652718
0.641151
0.627468
0.612153
0.596184
0.580277
0.563762
0.546978
0.531602
0.517753
0.504533
0.494221
0.486281
0.4777
0.472124
0.470332
0.470461
0.473192
0.478971
0.490345
0.516637
0.533897
0.553409
0.596765
0.647098
0.678797
0.678838
0.677372
0.680875
0.691413
0.699122
0.700494
0.69985
0.694985
0.690288
0.688558
0.693856
0.708599
0.728332
0.742245
0.750898
0.758199
0.762352
0.762828
0.762947
0.765811
0.783481
0.834575
0.871131
0.882048
0.879511
0.873131
0.869078
0.866296
0.86426
0.862482
0.861217
0.860244
0.859395
0.858872
0.858477
0.858042
0.857905
0.85784
0.857764
0.857755
0.857803
0.857951
0.858208
0.858541
0.858897
0.859233
0.859572
0.860013
0.860624
0.861331
0.862014
0.86268
0.863426
0.864117
0.864661
0.865224
0.8658
0.866225
0.866802
0.867422
0.867969
0.868257
0.868599
0.869038
0.869395
0.869924
0.870302
0.870711
0.871186
0.871591
0.872187
0.872651
0.873325
0.874117
0.875182
0.876687
0.878782
0.881575
0.885076
0.889275
0.894102
0.899355
0.904355
0.908135
0.911021
0.91343
0.915393
0.916965
0.918258
0.919343
0.920241
0.92104
0.921795
0.922547
0.923309
0.924067
0.924821
0.925581
0.926362
0.927208
0.928195
0.929346
0.930535
0.931539
0.932188
0.932431
0.932397
0.931827
0.929392
0.923745
0.915473
0.901658
0.885295
0.873513
0.867043
0.862137
0.857525
0.854073
0.851718
0.848511
0.84184
0.824329
0.766563
0.593171
0.401933
0.266597
0.181803
0.131361
0.101915
0.081378
0.06922
0.0561903
0.0492816
0.0197045
0.657806
0.642586
0.637968
0.64102
0.652589
0.649203
0.63835
0.619533
0.611306
0.61401
0.620383
0.629052
0.6364
0.640871
0.642035
0.639355
0.627728
0.601131
0.564488
0.532516
0.506604
0.48335
0.462205
0.44191
0.424503
0.409523
0.39845
0.388979
0.381918
0.374895
0.369774
0.364386
0.359814
0.354597
0.350209
0.346165
0.343261
0.341162
0.339985
0.341007
0.358999
0.38934
0.459203
0.548687
0.615864
0.665163
0.673179
0.648825
0.630904
0.620669
0.615311
0.612656
0.611836
0.613044
0.616959
0.619045
0.623323
0.636412
0.686354
0.7381
0.756978
0.761928
0.763185
0.765406
0.776475
0.823598
0.863524
0.877015
0.879071
0.875856
0.867213
0.857856
0.849341
0.843363
0.838945
0.835673
0.834105
0.833203
0.832872
0.832809
0.83311
0.833853
0.834817
0.835876
0.837096
0.838551
0.840164
0.842109
0.844613
0.847481
0.850614
0.854146
0.857846
0.861723
0.865905
0.870262
0.874717
0.878862
0.882248
0.885175
0.887217
0.888791
0.889945
0.890511
0.890846
0.890943
0.890917
0.890451
0.889873
0.889264
0.888315
0.887381
0.886153
0.8848
0.883183
0.881325
0.879085
0.876393
0.873171
0.869234
0.864332
0.858362
0.851777
0.846204
0.84246
0.839654
0.838242
0.838388
0.841106
0.848549
0.858405
0.869392
0.880323
0.889539
0.896301
0.901217
0.904724
0.907225
0.909018
0.910339
0.911403
0.912372
0.913432
0.91473
0.916328
0.918272
0.920556
0.922927
0.924916
0.926173
0.926793
0.927383
0.928809
0.934246
0.944318
0.948733
0.948942
0.947512
0.941862
0.928184
0.919101
0.913139
0.906232
0.899081
0.891735
0.883244
0.875969
0.87161
0.865948
0.853862
0.825202
0.777
0.728336
0.709308
0.678992
0.65665
0.606461
0.558283
0.525915
0.447378
0.666386
0.650033
0.643118
0.655757
0.657039
0.646419
0.608408
0.56411
0.554062
0.568833
0.561647
0.550853
0.543392
0.536721
0.529239
0.514152
0.495301
0.473642
0.453417
0.436741
0.421251
0.408921
0.399495
0.393987
0.392162
0.391811
0.392737
0.396599
0.399871
0.402643
0.403782
0.402157
0.400368
0.393339
0.387334
0.376767
0.366912
0.355888
0.345999
0.338486
0.334764
0.33969
0.36299
0.427631
0.532358
0.613098
0.652817
0.651755
0.644024
0.624685
0.606701
0.575984
0.562852
0.574301
0.599528
0.607276
0.609333
0.61306
0.631978
0.715546
0.760633
0.769781
0.789814
0.833545
0.86231
0.872754
0.87427
0.872269
0.86214
0.846111
0.83493
0.828705
0.825767
0.824578
0.82435
0.825691
0.827186
0.82943
0.831458
0.833963
0.836957
0.841009
0.845965
0.852216
0.859546
0.868847
0.879905
0.891829
0.902431
0.913565
0.922126
0.931133
0.937339
0.942185
0.944742
0.946007
0.946439
0.946122
0.943892
0.942331
0.940234
0.938213
0.936277
0.934392
0.932621
0.931026
0.929774
0.928599
0.927651
0.926948
0.926348
0.926063
0.925844
0.925859
0.926059
0.926499
0.927087
0.927844
0.928629
0.929273
0.929464
0.92888
0.926391
0.919068
0.905719
0.887738
0.865982
0.844255
0.828361
0.818974
0.814081
0.812843
0.813779
0.819482
0.82984
0.840305
0.84927
0.85614
0.860974
0.86415
0.866168
0.867678
0.869511
0.872293
0.876221
0.881548
0.888874
0.898663
0.910209
0.920905
0.927473
0.92973
0.92956
0.927293
0.926399
0.927194
0.933115
0.946794
0.954316
0.956772
0.957454
0.957687
0.957689
0.957002
0.95384
0.942904
0.926676
0.911944
0.900233
0.89374
0.885094
0.871959
0.856803
0.846915
0.840514
0.838874
0.836147
0.834935
0.831454
0.808838
0.68398
0.67582
0.674936
0.667372
0.655634
0.602477
0.54126
0.527211
0.525669
0.52597
0.521863
0.514401
0.507934
0.498368
0.487893
0.475485
0.465202
0.457649
0.452891
0.450534
0.451839
0.463949
0.47993
0.500763
0.525341
0.549491
0.572522
0.591042
0.604875
0.612611
0.615508
0.611946
0.601177
0.583212
0.562927
0.536088
0.509929
0.478636
0.448419
0.41813
0.391743
0.373929
0.365163
0.372847
0.400862
0.468476
0.550029
0.604923
0.627533
0.628444
0.626481
0.618821
0.613306
0.611191
0.60903
0.60816
0.608029
0.608945
0.618831
0.689625
0.79326
0.839256
0.861367
0.869312
0.871279
0.869514
0.861375
0.843495
0.829607
0.823088
0.81992
0.819102
0.82054
0.82241
0.824829
0.828561
0.83307
0.839634
0.847427
0.858281
0.872659
0.888647
0.904362
0.919349
0.932682
0.942717
0.949822
0.953837
0.956781
0.957937
0.958283
0.957877
0.955086
0.951179
0.946384
0.939741
0.931891
0.922508
0.912284
0.902216
0.891976
0.882004
0.873188
0.865515
0.859193
0.853815
0.849884
0.846985
0.84513
0.844264
0.844046
0.845114
0.846883
0.849694
0.853672
0.859148
0.866096
0.8749
0.885608
0.898275
0.912329
0.92597
0.937242
0.947528
0.955332
0.959153
0.959284
0.952598
0.92857
0.892493
0.855579
0.82689
0.810666
0.802607
0.799655
0.799359
0.800415
0.804478
0.809302
0.813753
0.818273
0.823181
0.828296
0.833696
0.840349
0.848334
0.856045
0.862545
0.869849
0.88193
0.900404
0.920214
0.934219
0.939312
0.939373
0.935544
0.931281
0.931225
0.933937
0.944578
0.955212
0.962446
0.966762
0.968561
0.968826
0.968098
0.96346
0.946083
0.926322
0.914336
0.905585
0.895942
0.884849
0.875257
0.869179
0.866772
0.866196
0.866287
0.867064
0.869403
0.668687
0.672322
0.666475
0.646702
0.62379
0.550973
0.532571
0.528703
0.5272
0.525588
0.520587
0.514322
0.508857
0.502688
0.499776
0.499197
0.509253
0.530375
0.565339
0.616149
0.667687
0.718355
0.760439
0.798425
0.828677
0.850586
0.867956
0.880445
0.886629
0.889625
0.890357
0.884811
0.875218
0.859453
0.836179
0.804227
0.764017
0.718271
0.667875
0.616003
0.566939
0.520943
0.481365
0.45064
0.434604
0.432923
0.43765
0.455001
0.492029
0.526709
0.555893
0.576771
0.589287
0.596778
0.599604
0.60208
0.603946
0.606435
0.615906
0.685296
0.814659
0.861355
0.868632
0.869001
0.863939
0.847257
0.83014
0.821061
0.816451
0.814887
0.816584
0.818488
0.822145
0.827271
0.834936
0.847055
0.863207
0.882605
0.901601
0.919942
0.932638
0.943848
0.949841
0.954917
0.956973
0.957592
0.95757
0.95582
0.954099
0.948819
0.940597
0.927933
0.909978
0.887015
0.859128
0.832841
0.810089
0.790131
0.774246
0.760491
0.751051
0.744118
0.739008
0.735452
0.73303
0.731275
0.730337
0.730023
0.729984
0.730302
0.731206
0.732533
0.734436
0.736815
0.739833
0.743679
0.748347
0.753981
0.761038
0.770134
0.782635
0.80113
0.828039
0.861935
0.900763
0.935914
0.958487
0.971886
0.977466
0.977839
0.971506
0.943336
0.895774
0.853407
0.823994
0.808399
0.801826
0.799993
0.799989
0.801163
0.805031
0.810985
0.818647
0.826365
0.833982
0.84345
0.854768
0.864669
0.870487
0.873608
0.877631
0.887042
0.908797
0.93018
0.942403
0.945306
0.944305
0.93862
0.93559
0.935677
0.938613
0.949866
0.961209
0.967885
0.970843
0.971408
0.970778
0.966064
0.948462
0.930255
0.918391
0.908987
0.899613
0.890138
0.881587
0.875207
0.871525
0.87019
0.87012
0.871204
0.612724
0.636884
0.667791
0.616419
0.560814
0.545891
0.540938
0.540347
0.541426
0.540955
0.540975
0.543967
0.553894
0.573688
0.610624
0.666412
0.72619
0.786132
0.835329
0.872817
0.901205
0.925783
0.942366
0.955715
0.964682
0.969965
0.973717
0.975399
0.976142
0.976388
0.975867
0.974601
0.972148
0.968218
0.962272
0.953484
0.940676
0.922606
0.897518
0.864048
0.820504
0.771977
0.724041
0.684527
0.658545
0.645122
0.633074
0.610775
0.583302
0.555635
0.525569
0.498283
0.484741
0.483174
0.491025
0.519626
0.555218
0.576062
0.605054
0.699462
0.823487
0.863757
0.867324
0.860979
0.839262
0.822872
0.815138
0.811708
0.810452
0.814027
0.817699
0.823402
0.83435
0.851002
0.87206
0.896149
0.914466
0.930867
0.943665
0.952485
0.956787
0.958744
0.959081
0.958211
0.956213
0.95335
0.946804
0.935263
0.916357
0.88592
0.851607
0.818432
0.785657
0.76339
0.744181
0.731304
0.718284
0.710307
0.704587
0.69946
0.697538
0.696981
0.69713
0.69842
0.700241
0.702575
0.704612
0.706917
0.708986
0.711123
0.713272
0.715477
0.717985
0.720747
0.723863
0.727076
0.730536
0.734157
0.737969
0.741711
0.74542
0.749396
0.754542
0.762962
0.779
0.811873
0.864721
0.919984
0.95731
0.977588
0.98617
0.988061
0.986321
0.973575
0.930327
0.881321
0.846332
0.825256
0.814756
0.811383
0.811284
0.812447
0.816924
0.827431
0.838101
0.849833
0.864757
0.881618
0.895709
0.90277
0.903919
0.903122
0.902781
0.904931
0.918914
0.940422
0.949166
0.949998
0.946955
0.941506
0.940774
0.941719
0.947404
0.959421
0.967274
0.970726
0.971264
0.970242
0.96343
0.943518
0.927883
0.918163
0.90997
0.900901
0.891335
0.882759
0.876175
0.871937
0.869869
0.86976
0.627331
0.648398
0.62586
0.579294
0.566206
0.563069
0.573216
0.585314
0.599239
0.611153
0.638966
0.675528
0.72481
0.778136
0.830512
0.870315
0.90506
0.93239
0.950515
0.965233
0.973901
0.980789
0.984145
0.986592
0.987656
0.988132
0.988295
0.988308
0.988276
0.988292
0.988413
0.988551
0.988671
0.988781
0.988598
0.987923
0.986115
0.982748
0.976914
0.967405
0.952823
0.93087
0.899727
0.861599
0.824876
0.794289
0.770335
0.755716
0.746564
0.739507
0.727987
0.701309
0.624229
0.537919
0.496002
0.486301
0.492312
0.520159
0.583858
0.714907
0.825796
0.86299
0.862675
0.839328
0.819092
0.810248
0.806744
0.805653
0.809168
0.8154
0.825573
0.846342
0.875019
0.897474
0.914616
0.932945
0.94448
0.953955
0.958687
0.96055
0.960787
0.959357
0.957296
0.952147
0.942458
0.925441
0.895705
0.857154
0.818251
0.789261
0.765933
0.744615
0.728757
0.715888
0.703846
0.694047
0.682512
0.676597
0.671172
0.668848
0.667984
0.669738
0.674018
0.679233
0.68427
0.690121
0.694992
0.69995
0.704158
0.707728
0.710771
0.713538
0.71647
0.719908
0.72372
0.728057
0.732912
0.737849
0.742667
0.74675
0.749137
0.749707
0.750833
0.752665
0.755871
0.761127
0.772242
0.801544
0.863377
0.925107
0.963551
0.98344
0.991599
0.993636
0.993072
0.986971
0.96079
0.912319
0.87458
0.851199
0.838793
0.834644
0.834675
0.836235
0.839656
0.846242
0.859277
0.878556
0.90124
0.921367
0.933279
0.936412
0.935498
0.931004
0.930217
0.931898
0.941334
0.951832
0.954422
0.953768
0.949607
0.948028
0.948835
0.953589
0.963639
0.969286
0.970912
0.970702
0.967772
0.95422
0.934102
0.921834
0.914888
0.908766
0.900897
0.891585
0.882569
0.875601
0.871497
0.870049
0.660088
0.640639
0.603296
0.590402
0.593467
0.627013
0.678225
0.701115
0.732553
0.758168
0.798536
0.834356
0.87709
0.906801
0.936628
0.953194
0.969367
0.97714
0.983184
0.986019
0.987368
0.98794
0.988063
0.987842
0.987298
0.986974
0.986228
0.98585
0.985705
0.985786
0.986356
0.987151
0.988068
0.989189
0.990343
0.99169
0.992554
0.99307
0.993384
0.992381
0.989415
0.982472
0.968077
0.936839
0.886154
0.837787
0.796738
0.77293
0.760952
0.756352
0.754767
0.753263
0.746853
0.708665
0.585759
0.518379
0.509886
0.525141
0.58183
0.714266
0.824213
0.860337
0.853035
0.825124
0.807939
0.801701
0.799933
0.80155
0.80965
0.820815
0.849003
0.893075
0.916057
0.929298
0.939987
0.951236
0.957374
0.960451
0.9613
0.961036
0.959438
0.954727
0.944968
0.92541
0.888359
0.850355
0.814116
0.788072
0.765425
0.750385
0.735736
0.721855
0.703897
0.683576
0.663853
0.640867
0.616582
0.604336
0.600534
0.600594
0.608263
0.621398
0.635402
0.651398
0.665889
0.67967
0.689881
0.697659
0.703381
0.707621
0.710816
0.713321
0.715595
0.718291
0.722038
0.727002
0.733351
0.740134
0.747513
0.755518
0.7636
0.769966
0.770416
0.765372
0.761756
0.760878
0.762412
0.767845
0.780433
0.819969
0.891366
0.944897
0.975054
0.989566
0.995386
0.996725
0.996105
0.992531
0.981481
0.950319
0.916811
0.893349
0.880553
0.876585
0.876681
0.87845
0.882872
0.891751
0.905853
0.924261
0.942337
0.9543
0.95842
0.958347
0.954308
0.949776
0.949864
0.953074
0.959077
0.960972
0.960796
0.958914
0.958079
0.959048
0.964104
0.96957
0.971236
0.971081
0.968575
0.956822
0.936709
0.922444
0.914863
0.91111
0.906897
0.900239
0.891703
0.882958
0.876391
0.872559
0.671634
0.631814
0.613678
0.61984
0.673534
0.746167
0.777876
0.804907
0.834685
0.862588
0.895733
0.921181
0.94706
0.960789
0.9741
0.980084
0.984245
0.985811
0.986421
0.986511
0.986017
0.984316
0.981921
0.978685
0.975601
0.973768
0.972684
0.972237
0.972127
0.97269
0.973512
0.974717
0.976163
0.978058
0.980703
0.984355
0.98856
0.991992
0.99424
0.995515
0.995901
0.995624
0.992868
0.983884
0.958285
0.894828
0.824149
0.78316
0.764313
0.75708
0.754463
0.754783
0.754673
0.745999
0.684065
0.579155
0.539469
0.541193
0.585914
0.71529
0.821297
0.854262
0.841711
0.816541
0.801201
0.795484
0.793937
0.798339
0.809219
0.837953
0.8834
0.921844
0.938598
0.946592
0.952544
0.958073
0.960482
0.961149
0.960944
0.958763
0.952005
0.936498
0.902764
0.860784
0.824573
0.795253
0.775265
0.758502
0.746077
0.731489
0.713627
0.686113
0.647296
0.590156
0.554025
0.540614
0.53744
0.543001
0.55731
0.573117
0.589702
0.607805
0.626933
0.64658
0.66471
0.681483
0.695325
0.706171
0.714161
0.719056
0.721212
0.721114
0.719148
0.717828
0.717982
0.71935
0.722124
0.727953
0.737111
0.749611
0.762679
0.774728
0.785263
0.791078
0.7875
0.779771
0.77361
0.770792
0.771824
0.779068
0.802156
0.867603
0.929647
0.966695
0.985752
0.994426
0.997691
0.998244
0.997806
0.995604
0.989553
0.974574
0.961267
0.954951
0.95385
0.954257
0.95604
0.961481
0.967278
0.971554
0.974626
0.976084
0.976248
0.975986
0.974819
0.970372
0.964593
0.963363
0.964014
0.966653
0.967838
0.967775
0.967755
0.968114
0.970207
0.973185
0.973877
0.973356
0.969628
0.954839
0.935348
0.922335
0.915146
0.911756
0.909712
0.906217
0.898877
0.889864
0.883052
0.877967
0.671259
0.638011
0.634936
0.682248
0.76991
0.822011
0.847074
0.875673
0.899456
0.924065
0.945342
0.96231
0.973128
0.980051
0.983502
0.984824
0.985251
0.985199
0.983652
0.980303
0.974143
0.969345
0.965271
0.963157
0.962084
0.961581
0.961457
0.962115
0.963027
0.964332
0.966351
0.967833
0.969591
0.97095
0.972067
0.973199
0.975288
0.979466
0.986052
0.99253
0.995619
0.996991
0.997398
0.996518
0.991465
0.973412
0.91095
0.822537
0.77886
0.760775
0.754068
0.75289
0.754786
0.751463
0.717211
0.621429
0.574468
0.566775
0.606517
0.728415
0.81845
0.838236
0.823653
0.803964
0.791898
0.787226
0.787079
0.792921
0.80625
0.837964
0.903936
0.938726
0.949717
0.954346
0.957159
0.959557
0.960544
0.960554
0.958219
0.950458
0.93082
0.889108
0.846123
0.812064
0.790063
0.771614
0.758804
0.746482
0.731803
0.706068
0.664533
0.588699
0.528251
0.504256
0.497388
0.503203
0.532941
0.562897
0.589795
0.612676
0.63193
0.649685
0.666068
0.683253
0.700948
0.719473
0.736633
0.751372
0.761963
0.766824
0.767849
0.764369
0.754151
0.740374
0.729429
0.72283
0.720271
0.720789
0.723949
0.730327
0.744169
0.764961
0.783789
0.797665
0.805182
0.804507
0.798203
0.789534
0.78339
0.781621
0.784807
0.800985
0.856841
0.921702
0.961672
0.982958
0.993065
0.997376
0.998878
0.999086
0.99883
0.997624
0.994047
0.990904
0.989772
0.989751
0.989981
0.990528
0.991564
0.992432
0.992651
0.99257
0.992077
0.991001
0.989706
0.986874
0.979979
0.974899
0.973214
0.97315
0.973623
0.974131
0.974433
0.975033
0.976819
0.978345
0.978495
0.977364
0.970887
0.951214
0.933524
0.922832
0.917409
0.915047
0.913376
0.910135
0.902781
0.893908
0.887661
0.883238
0.67319
0.651506
0.671793
0.747746
0.833502
0.872428
0.893987
0.919383
0.937538
0.956035
0.968205
0.977374
0.98165
0.983674
0.984305
0.984399
0.983112
0.979493
0.97252
0.967018
0.963264
0.96022
0.957756
0.955438
0.953637
0.952648
0.952237
0.952322
0.954028
0.956419
0.959448
0.963418
0.966571
0.968995
0.970473
0.971421
0.971852
0.972329
0.974233
0.97922
0.988608
0.994947
0.997491
0.998167
0.99804
0.994507
0.977818
0.907651
0.815016
0.772861
0.756176
0.751012
0.753015
0.751688
0.723255
0.626007
0.593677
0.615895
0.678278
0.761172
0.80997
0.813369
0.801344
0.787691
0.779273
0.776274
0.776895
0.782329
0.797814
0.831096
0.901584
0.943335
0.955379
0.95727
0.958179
0.959455
0.959824
0.957973
0.950445
0.926417
0.885046
0.845519
0.813557
0.788408
0.773301
0.760585
0.749643
0.733029
0.708313
0.657265
0.554803
0.494253
0.474713
0.473565
0.5083
0.571079
0.651985
0.723149
0.767313
0.790485
0.802116
0.80684
0.807661
0.805999
0.805546
0.809608
0.81474
0.816358
0.813888
0.811188
0.809336
0.807674
0.804248
0.796595
0.781307
0.760383
0.740659
0.729932
0.726058
0.727143
0.732922
0.744661
0.768633
0.794088
0.810759
0.81607
0.815191
0.810196
0.803556
0.797524
0.794547
0.795796
0.808327
0.858034
0.92131
0.960753
0.982089
0.992472
0.997049
0.998877
0.999489
0.999549
0.999418
0.998917
0.998432
0.998198
0.998114
0.998085
0.998076
0.998051
0.997975
0.997793
0.997286
0.996576
0.99591
0.9947
0.991635
0.985551
0.981408
0.97969
0.979309
0.979305
0.979477
0.980161
0.981943
0.983049
0.983057
0.981391
0.972248
0.949956
0.933796
0.925395
0.92193
0.920305
0.918135
0.913001
0.904437
0.896139
0.890787
0.887548
0.678028
0.667407
0.703224
0.79466
0.872697
0.904803
0.923146
0.944923
0.95902
0.970437
0.977934
0.981771
0.983205
0.983621
0.983543
0.98154
0.975685
0.969135
0.96345
0.958163
0.953385
0.948301
0.943482
0.938835
0.935297
0.932707
0.931495
0.931135
0.932378
0.93499
0.940314
0.94736
0.956773
0.964514
0.969314
0.97127
0.971924
0.971795
0.971909
0.97285
0.976363
0.986438
0.994654
0.997831
0.998762
0.998799
0.995525
0.97697
0.891048
0.801713
0.764675
0.751335
0.747613
0.749646
0.726062
0.633062
0.608496
0.645025
0.713131
0.769619
0.795954
0.7947
0.783641
0.774656
0.769387
0.767772
0.76824
0.771632
0.781703
0.809485
0.884862
0.939272
0.956027
0.958336
0.958246
0.958706
0.95756
0.949569
0.930708
0.895463
0.851985
0.814933
0.789185
0.774945
0.764793
0.755994
0.741044
0.717962
0.670379
0.560033
0.482314
0.457428
0.456184
0.506474
0.613371
0.767988
0.83326
0.857094
0.866897
0.871598
0.875162
0.878621
0.880853
0.879914
0.874409
0.865689
0.854849
0.842313
0.831569
0.823506
0.818092
0.814994
0.813163
0.811665
0.809583
0.805301
0.793886
0.771282
0.75003
0.73979
0.737472
0.741228
0.754067
0.779264
0.808771
0.826725
0.82892
0.824123
0.819169
0.815796
0.811939
0.809604
0.810356
0.821633
0.868952
0.927204
0.96336
0.983033
0.992721
0.997102
0.99889
0.999569
0.999792
0.999822
0.999811
0.99976
0.999707
0.999659
0.999588
0.999519
0.999463
0.999367
0.999112
0.998702
0.998366
0.997858
0.996752
0.993561
0.988557
0.985429
0.984056
0.983656
0.983664
0.984112
0.985732
0.986735
0.986688
0.984716
0.973868
0.950936
0.936488
0.930237
0.928192
0.926967
0.92457
0.917957
0.907251
0.898437
0.893275
0.890709
0.687059
0.682794
0.73283
0.827031
0.896263
0.926035
0.942954
0.958747
0.969943
0.976756
0.980844
0.982548
0.983023
0.982505
0.980017
0.974605
0.967736
0.96108
0.954741
0.948261
0.942096
0.936091
0.930604
0.926931
0.924358
0.923087
0.922537
0.922424
0.922692
0.92338
0.924822
0.92767
0.933527
0.946626
0.962136
0.96981
0.972822
0.973819
0.972307
0.97195
0.972883
0.976504
0.987788
0.995019
0.998335
0.999273
0.999277
0.996026
0.974858
0.87496
0.79255
0.75906
0.745784
0.740286
0.72738
0.665248
0.642349
0.654514
0.699683
0.760038
0.779442
0.780175
0.775031
0.76886
0.765662
0.764886
0.76519
0.767044
0.772355
0.786596
0.835947
0.921511
0.952941
0.958128
0.95796
0.957034
0.950922
0.932628
0.900645
0.861814
0.827148
0.799016
0.780741
0.768103
0.758196
0.747492
0.730105
0.696697
0.607713
0.489039
0.441512
0.432938
0.468075
0.593546
0.785944
0.852809
0.870218
0.874752
0.875789
0.876116
0.878393
0.883825
0.889811
0.89481
0.896663
0.890797
0.877776
0.861076
0.844683
0.831261
0.822152
0.816683
0.813707
0.812289
0.811751
0.811627
0.811662
0.809416
0.797869
0.775741
0.760695
0.755448
0.756674
0.769052
0.79626
0.827358
0.844826
0.845493
0.837482
0.830397
0.828227
0.826877
0.826055
0.827407
0.840373
0.88847
0.937956
0.968602
0.985389
0.993685
0.997463
0.999044
0.99964
0.999859
0.999935
0.999953
0.999953
0.999948
0.999921
0.999885
0.999861
0.999823
0.999722
0.999525
0.999367
0.999154
0.998707
0.997543
0.994027
0.990179
0.988016
0.987148
0.987011
0.987264
0.98857
0.989538
0.9895
0.987627
0.976866
0.955291
0.942926
0.938371
0.937347
0.936674
0.934785
0.927713
0.913527
0.902782
0.896814
0.893921
0.694864
0.695283
0.747944
0.840538
0.91181
0.939583
0.953118
0.966139
0.975225
0.97925
0.981501
0.982437
0.982597
0.981175
0.976978
0.969547
0.963091
0.955998
0.948591
0.941404
0.934529
0.929068
0.925166
0.92278
0.921682
0.921221
0.92107
0.921065
0.92116
0.921422
0.921929
0.922974
0.925201
0.930303
0.942271
0.961502
0.971882
0.975135
0.975043
0.972708
0.972305
0.973528
0.979817
0.990534
0.996357
0.998936
0.999633
0.999596
0.996468
0.971742
0.865829
0.791692
0.7571
0.735133
0.722461
0.693738
0.677471
0.676538
0.69132
0.736909
0.766416
0.772512
0.771424
0.768098
0.765791
0.765434
0.765895
0.767619
0.771733
0.780098
0.801006
0.872388
0.939351
0.956057
0.956687
0.951933
0.944336
0.917438
0.876239
0.841007
0.812988
0.789674
0.77405
0.766311
0.756969
0.745329
0.725802
0.6654
0.546222
0.447296
0.418293
0.416755
0.484803
0.680372
0.826123
0.863817
0.871661
0.870339
0.861113
0.851701
0.850507
0.862677
0.881306
0.894592
0.902381
0.905325
0.903491
0.894142
0.872662
0.848391
0.83126
0.820346
0.814154
0.811066
0.809783
0.810293
0.812501
0.814427
0.81524
0.812281
0.798455
0.784866
0.779175
0.778883
0.78911
0.817529
0.847499
0.860475
0.859849
0.850704
0.844243
0.843012
0.843037
0.843868
0.847842
0.866839
0.913755
0.951515
0.975397
0.988576
0.995086
0.998023
0.999256
0.999732
0.999903
0.999963
0.999983
0.999986
0.999984
0.999976
0.999966
0.999952
0.999917
0.999837
0.999771
0.999683
0.999498
0.999015
0.997423
0.993798
0.991205
0.989963
0.989659
0.989784
0.990751
0.991669
0.991672
0.990204
0.981375
0.962612
0.952291
0.949094
0.948758
0.948706
0.94781
0.942628
0.92651
0.911921
0.904345
0.900063
0.703563
0.707716
0.764127
0.847779
0.911325
0.945694
0.961625
0.970696
0.977174
0.980331
0.98171
0.98211
0.98137
0.978056
0.971571
0.964962
0.958755
0.951485
0.944618
0.93777
0.931896
0.927129
0.924183
0.922495
0.921695
0.921317
0.92112
0.921066
0.921089
0.921251
0.92157
0.922232
0.923582
0.92652
0.934304
0.952257
0.967723
0.975049
0.976341
0.974835
0.972477
0.972608
0.975951
0.986669
0.994361
0.99793
0.999409
0.999832
0.999772
0.996988
0.968343
0.863845
0.805628
0.768357
0.737959
0.712556
0.698254
0.693513
0.698973
0.736431
0.76423
0.770976
0.771176
0.769944
0.770266
0.773065
0.77619
0.778871
0.78139
0.786432
0.798961
0.827704
0.90361
0.947591
0.954172
0.949704
0.927371
0.904554
0.867583
0.828075
0.801786
0.784523
0.770741
0.762864
0.754303
0.741882
0.715252
0.644848
0.513747
0.427634
0.39424
0.395595
0.455609
0.648167
0.798625
0.84861
0.855992
0.846967
0.820676
0.793006
0.783478
0.798489
0.843356
0.880076
0.900389
0.908076
0.909769
0.908828
0.902676
0.881434
0.854052
0.833475
0.820408
0.813106
0.809173
0.807357
0.80796
0.81233
0.816522
0.819381
0.820111
0.816196
0.809949
0.806168
0.804837
0.812575
0.841459
0.868868
0.875618
0.87332
0.864168
0.860673
0.860837
0.862176
0.864938
0.873025
0.901352
0.938353
0.965482
0.982545
0.991935
0.996551
0.998618
0.999479
0.999815
0.999937
0.999978
0.999992
0.999995
0.999994
0.999993
0.999988
0.999977
0.999949
0.999925
0.999889
0.999812
0.999602
0.998888
0.996444
0.993679
0.992211
0.991763
0.991804
0.992479
0.993315
0.993355
0.992292
0.985562
0.970449
0.962405
0.960364
0.96048
0.960988
0.960727
0.958052
0.94683
0.930533
0.921574
0.914696
0.710716
0.716522
0.762858
0.844219
0.905479
0.943746
0.961999
0.972202
0.978262
0.980788
0.981809
0.982034
0.98131
0.978247
0.971424
0.964589
0.958979
0.951964
0.945395
0.938717
0.933038
0.928281
0.925168
0.923345
0.92234
0.922056
0.922169
0.922267
0.922108
0.922121
0.922264
0.922663
0.923623
0.926006
0.932157
0.949141
0.96631
0.974757
0.97679
0.975707
0.972682
0.972264
0.974185
0.983695
0.992957
0.997389
0.999145
0.999753
0.99993
0.999844
0.997408
0.968825
0.868195
0.817423
0.798656
0.769264
0.736477
0.721042
0.720907
0.744842
0.766315
0.772941
0.776795
0.784888
0.801942
0.820623
0.832949
0.837364
0.83715
0.832282
0.824733
0.834628
0.866968
0.925137
0.947308
0.946795
0.929191
0.880332
0.852647
0.822519
0.797304
0.779414
0.766232
0.75939
0.75159
0.737775
0.70879
0.636216
0.505751
0.411214
0.36623
0.362725
0.387117
0.514488
0.681853
0.774681
0.799501
0.793986
0.765872
0.719043
0.702051
0.717055
0.794313
0.857221
0.891225
0.906275
0.909986
0.909844
0.906734
0.893685
0.871804
0.853177
0.837524
0.824596
0.814705
0.80811
0.804755
0.804752
0.809911
0.817802
0.823428
0.826873
0.828405
0.828616
0.828184
0.827993
0.835124
0.86793
0.892173
0.894833
0.889884
0.882423
0.881335
0.883078
0.885483
0.890063
0.903967
0.932971
0.958676
0.977183
0.988591
0.994771
0.99778
0.99912
0.999674
0.999887
0.999963
0.999988
0.999996
0.999998
0.999998
0.999997
0.999994
0.999986
0.999978
0.999964
0.999932
0.999836
0.999486
0.99808
0.995536
0.994
0.993458
0.993445
0.993889
0.994623
0.994693
0.993982
0.989218
0.978061
0.972298
0.971039
0.971294
0.972206
0.972264
0.971188
0.965803
0.952948
0.945339
0.937584
0.721883
0.724957
0.757397
0.833966
0.892223
0.936296
0.959491
0.971306
0.977874
0.981006
0.982025
0.982118
0.981579
0.979286
0.97302
0.965811
0.960345
0.953846
0.94804
0.941683
0.93623
0.931531
0.928066
0.925853
0.924406
0.923764
0.923737
0.923711
0.923759
0.923921
0.924325
0.925137
0.926565
0.929384
0.935772
0.951942
0.969128
0.976773
0.977717
0.976056
0.972249
0.971511
0.973202
0.982573
0.992359
0.997132
0.999052
0.999713
0.999923
0.999978
0.999929
0.998542
0.980211
0.882595
0.818849
0.819141
0.82134
0.804382
0.784437
0.777845
0.783364
0.792558
0.814106
0.850868
0.885973
0.91052
0.920671
0.921935
0.92054
0.914155
0.895375
0.874434
0.880197
0.906551
0.937452
0.943168
0.932962
0.886522
0.835235
0.810773
0.792623
0.777091
0.763813
0.756313
0.749723
0.738007
0.71175
0.645499
0.517101
0.418562
0.363048
0.339856
0.34089
0.359379
0.422865
0.560868
0.655856
0.676349
0.668362
0.633026
0.621055
0.671692
0.778076
0.849576
0.886622
0.902387
0.90662
0.906108
0.902058
0.890237
0.872029
0.856548
0.844198
0.833471
0.823344
0.813199
0.804941
0.800521
0.800078
0.805565
0.818408
0.827313
0.832059
0.834336
0.835316
0.836601
0.840227
0.858346
0.899626
0.916692
0.916621
0.909613
0.905507
0.906522
0.909981
0.912575
0.918128
0.934393
0.955998
0.973639
0.985799
0.993045
0.99687
0.998696
0.999495
0.999818
0.999939
0.999981
0.999994
0.999998
0.999999
0.999999
0.999999
0.999997
0.999994
0.999988
0.999975
0.999929
0.999743
0.998963
0.996875
0.995388
0.994813
0.994764
0.995048
0.995672
0.995765
0.99532
0.99214
0.984609
0.980933
0.980269
0.980539
0.981412
0.981591
0.9812
0.979006
0.971581
0.966046
0.958962
0.737982
0.734249
0.749308
0.814437
0.870285
0.920192
0.95198
0.968075
0.976414
0.980554
0.982295
0.982484
0.982271
0.981231
0.977568
0.96928
0.963232
0.957283
0.952069
0.947151
0.9423
0.937832
0.934171
0.931319
0.929306
0.927813
0.9274
0.926979
0.927046
0.927303
0.927861
0.928929
0.931013
0.935365
0.946394
0.966309
0.97653
0.978765
0.978189
0.974712
0.970396
0.969943
0.972645
0.982976
0.992531
0.997215
0.999092
0.999731
0.999921
0.99998
0.999993
0.999969
0.999303
0.989696
0.910607
0.820097
0.812585
0.828644
0.842639
0.849854
0.851624
0.864902
0.890507
0.914487
0.934608
0.949505
0.959498
0.963397
0.962842
0.959643
0.950278
0.930529
0.912188
0.91565
0.933864
0.942679
0.938574
0.903824
0.841112
0.798504
0.78239
0.772196
0.761315
0.754462
0.748786
0.739389
0.719206
0.668686
0.546266
0.440376
0.372715
0.341279
0.328258
0.327327
0.33111
0.348248
0.412439
0.486437
0.50482
0.513516
0.551277
0.659806
0.774463
0.849273
0.886647
0.898292
0.898432
0.894033
0.879718
0.861458
0.850066
0.842913
0.837775
0.832162