/*--------------------------------*- C++ -*----------------------------------*\
  =========                 |
  \\      /  F ield         | OpenFOAM: The Open Source CFD Toolbox
   \\    /   O peration     | Website:  https://openfoam.org
    \\  /    A nd           | Version:  9
     \\/     M anipulation  |
\*---------------------------------------------------------------------------*/
FoamFile
{
    format      ascii;
    class       volVectorField;
    location    "0.052";
    object      U;
}
// * * * * * * * * * * * * * * * * * * * * * * * * * * * * * * * * * * * * * //

dimensions      [0 1 -1 0 0 0 0];

internalField   nonuniform List<vector> 
12225
(
(9.84211 -0.0110345 0)
(9.47179 0.0351845 0)
(9.10272 0.0358857 0)
(8.81503 0.026853 0)
(8.57283 0.0369775 0)
(8.36509 0.0569299 0)
(8.16326 0.0687274 0)
(7.94537 0.0654323 0)
(7.68895 0.053656 0)
(7.42582 0.0441833 0)
(7.141 0.0401949 0)
(6.88881 0.0432823 0)
(6.58736 0.0500956 0)
(6.33535 0.055492 0)
(5.97079 0.0642542 0)
(5.74601 0.0617305 0)
(5.23832 0.0810332 0)
(5.10924 0.0910018 0)
(10.169 0.0591462 0)
(10.0162 0.125154 0)
(10.0746 0.119728 0)
(10.0784 0.100421 0)
(9.9994 0.0698296 0)
(9.94342 0.0413451 0)
(9.95124 0.034254 0)
(9.99421 0.0539181 0)
(10.0159 0.0844398 0)
(10.0077 0.110381 0)
(9.96482 0.123099 0)
(9.92284 0.128116 0)
(9.86562 0.132951 0)
(9.8294 0.146804 0)
(9.73746 0.155576 0)
(9.67138 0.186687 0)
(9.48603 0.221548 0)
(9.33631 0.248206 0)
(9.87641 0.0490139 0)
(9.94928 0.0240143 0)
(10.0547 0.00866384 0)
(10.0997 0.0358945 0)
(10.0727 0.0628294 0)
(10.0294 0.0705126 0)
(10.0061 0.066083 0)
(10.0062 0.0622889 0)
(10.0155 0.0624717 0)
(10.0259 0.0654969 0)
(10.0319 0.0674983 0)
(10.0354 0.0713623 0)
(10.0365 0.0797555 0)
(10.0464 0.0984344 0)
(10.0558 0.126079 0)
(10.0634 0.166599 0)
(10.0647 0.222951 0)
(10.0591 0.286539 0)
(9.85627 0.0385987 0)
(9.94432 0.099511 0)
(9.97108 0.103741 0)
(9.99653 0.104897 0)
(10.041 0.0884291 0)
(10.0933 0.0547702 0)
(10.1295 0.0315593 0)
(10.1339 0.0373768 0)
(10.1083 0.0661001 0)
(10.0673 0.100153 0)
(10.0262 0.124597 0)
(9.99467 0.13523 0)
(9.97544 0.13783 0)
(9.9704 0.144975 0)
(9.97383 0.15821 0)
(9.97993 0.18812 0)
(9.98878 0.236418 0)
(9.99854 0.289563 0)
(9.83685 -0.0640551 0)
(9.84391 -0.0372182 0)
(9.91926 -0.0113946 0)
(10.0322 0.014402 0)
(10.1248 0.0325682 0)
(10.1501 0.0465515 0)
(10.1075 0.0645599 0)
(10.031 0.0846028 0)
(9.96156 0.0981621 0)
(9.92603 0.100045 0)
(9.92798 0.0922187 0)
(9.9538 0.0826556 0)
(9.98489 0.0813734 0)
(10.0082 0.0961644 0)
(10.0194 0.125901 0)
(10.0167 0.171591 0)
(10.0093 0.227397 0)
(10.0027 0.282956 0)
(9.92448 0.0451461 0)
(9.97849 0.0538597 0)
(9.92019 0.0529751 0)
(9.90467 0.0477125 0)
(9.93286 0.0491891 0)
(9.9747 0.054015 0)
(10.0082 0.0618658 0)
(10.025 0.0746299 0)
(10.0286 0.0909583 0)
(10.0264 0.106021 0)
(10.0229 0.115359 0)
(10.0216 0.11914 0)
(10.0253 0.122804 0)
(10.0382 0.134093 0)
(10.0599 0.155605 0)
(10.0864 0.188024 0)
(10.1147 0.229411 0)
(10.1409 0.274319 0)
(9.87882 -0.150482 0)
(10.0648 -0.0550834 0)
(10.1454 0.0227367 0)
(10.129 0.025097 0)
(10.0512 0.0132525 0)
(9.97188 0.0231885 0)
(9.91986 0.0553242 0)
(9.89232 0.0898591 0)
(9.88321 0.109471 0)
(9.89084 0.109006 0)
(9.91118 0.0935951 0)
(9.93508 0.0746496 0)
(9.95445 0.0645924 0)
(9.96713 0.0732024 0)
(9.97282 0.100978 0)
(9.97561 0.145317 0)
(9.97468 0.201337 0)
(9.97877 0.261578 0)
(9.97358 0.00489187 0)
(9.94991 -0.0632298 0)
(10.0493 0.0040119 0)
(10.1235 0.0731914 0)
(10.0924 0.102722 0)
(10.0111 0.101221 0)
(9.97079 0.088286 0)
(10.003 0.0795368 0)
(10.0847 0.079717 0)
(10.1713 0.086557 0)
(10.2209 0.0961259 0)
(10.2128 0.106393 0)
(10.1564 0.118179 0)
(10.0801 0.135057 0)
(10.0156 0.158039 0)
(9.97703 0.188876 0)
(9.97055 0.225803 0)
(9.98741 0.26813 0)
(10.002 -0.0442414 0)
(9.92386 -0.10255 0)
(9.94252 -0.019069 0)
(10.0417 0.0372031 0)
(10.1281 0.061314 0)
(10.1844 0.0662455 0)
(10.207 0.0569932 0)
(10.1986 0.0437059 0)
(10.1733 0.038256 0)
(10.148 0.0481484 0)
(10.1289 0.0719763 0)
(10.1143 0.100968 0)
(10.0993 0.125567 0)
(10.0841 0.142229 0)
(10.0689 0.154354 0)
(10.0595 0.169385 0)
(10.0565 0.192307 0)
(10.0679 0.228557 0)
(9.99823 -0.124932 0)
(10.1547 -0.0928615 0)
(10.2266 -0.0626864 0)
(10.226 -0.014846 0)
(10.1741 0.0386563 0)
(10.1339 0.0730094 0)
(10.1371 0.0896171 0)
(10.1553 0.0987841 0)
(10.1517 0.106302 0)
(10.1196 0.113927 0)
(10.0738 0.122259 0)
(10.0325 0.132593 0)
(10.0035 0.145142 0)
(9.98749 0.160855 0)
(9.9781 0.178246 0)
(9.97244 0.198435 0)
(9.96858 0.220109 0)
(9.9684 0.245404 0)
(10.0468 -0.264279 0)
(10.0324 -0.187172 0)
(9.9885 -0.0208817 0)
(9.90282 0.0908479 0)
(9.84521 0.113348 0)
(9.85209 0.0776767 0)
(9.91308 0.0385342 0)
(9.99488 0.0288517 0)
(10.0682 0.0490039 0)
(10.1194 0.0820154 0)
(10.1455 0.111602 0)
(10.1535 0.131314 0)
(10.1538 0.142642 0)
(10.157 0.150194 0)
(10.1673 0.159764 0)
(10.1851 0.174583 0)
(10.2072 0.196649 0)
(10.2279 0.225383 0)
(9.99893 -0.167095 0)
(9.79103 -0.0986057 0)
(9.79849 -0.0333489 0)
(9.95272 0.0247778 0)
(10.0871 0.0508287 0)
(10.1483 0.0416079 0)
(10.1593 0.0245486 0)
(10.1404 0.0224676 0)
(10.1049 0.0424888 0)
(10.0699 0.076981 0)
(10.0512 0.112328 0)
(10.0535 0.138812 0)
(10.0703 0.15318 0)
(10.0899 0.159094 0)
(10.0973 0.161852 0)
(10.0926 0.168846 0)
(10.0704 0.184017 0)
(10.0515 0.209544 0)
(10.0284 -0.0500594 0)
(10.0262 -0.0718229 0)
(9.97129 -0.0809163 0)
(9.96205 -0.0108819 0)
(9.96266 0.041213 0)
(9.95327 0.0456301 0)
(9.94583 0.0405021 0)
(9.94744 0.0550596 0)
(9.95825 0.0839849 0)
(9.97801 0.106232 0)
(10.0066 0.111022 0)
(10.0408 0.105975 0)
(10.0742 0.105882 0)
(10.0988 0.122699 0)
(10.1093 0.155433 0)
(10.1029 0.197223 0)
(10.0873 0.23743 0)
(10.0673 0.267692 0)
(9.96795 -0.116561 0)
(10.0912 -0.0937454 0)
(10.11 -0.022785 0)
(10.1267 0.0295214 0)
(10.1292 0.0512241 0)
(10.0967 0.0488615 0)
(10.0612 0.0281793 0)
(10.0616 0.0113057 0)
(10.1032 0.0165845 0)
(10.161 0.0428429 0)
(10.2013 0.0770444 0)
(10.2039 0.107837 0)
(10.1715 0.130802 0)
(10.1233 0.148002 0)
(10.0823 0.163709 0)
(10.062 0.181506 0)
(10.0674 0.199888 0)
(10.0952 0.219997 0)
(9.85187 0.0288702 0)
(9.94137 -0.166616 0)
(10.0236 -0.128082 0)
(10.0586 -0.012314 0)
(10.0808 0.0706235 0)
(10.1149 0.0925883 0)
(10.1504 0.0656421 0)
(10.178 0.0277376 0)
(10.2021 0.0119123 0)
(10.2302 0.0287429 0)
(10.2614 0.0701001 0)
(10.2849 0.120383 0)
(10.2894 0.165209 0)
(10.2714 0.196831 0)
(10.2353 0.212444 0)
(10.1929 0.215861 0)
(10.1547 0.209376 0)
(10.1299 0.199057 0)
(10.1881 -0.0560008 0)
(10.2009 -0.165745 0)
(10.1357 -0.0909545 0)
(10.0216 -0.0175271 0)
(9.96734 -0.00375513 0)
(9.9842 -0.0189375 0)
(10.029 -0.0354188 0)
(10.0692 -0.0414917 0)
(10.0931 -0.0342058 0)
(10.1077 -0.0113656 0)
(10.1255 0.0297788 0)
(10.152 0.0877663 0)
(10.1844 0.153759 0)
(10.2167 0.215855 0)
(10.2453 0.262243 0)
(10.2665 0.287049 0)
(10.284 0.288957 0)
(10.2943 0.271865 0)
(10.0234 -0.0868238 0)
(10.0387 -0.0911459 0)
(10.026 0.0408789 0)
(10.0315 0.130121 0)
(10.0534 0.126244 0)
(10.0444 0.0586984 0)
(10.0042 -0.00777314 0)
(9.96184 -0.0352846 0)
(9.93463 -0.0280378 0)
(9.92968 -0.00734969 0)
(9.95079 0.0138989 0)
(9.99422 0.0356817 0)
(10.0516 0.0611753 0)
(10.1152 0.0887533 0)
(10.1786 0.113517 0)
(10.2367 0.130687 0)
(10.2869 0.138321 0)
(10.327 0.138469 0)
(10.1028 -0.122997 0)
(10.104 -0.140869 0)
(10.1349 -0.11053 0)
(10.1815 -0.0778615 0)
(10.2518 -0.030435 0)
(10.3018 0.0307692 0)
(10.3175 0.069035 0)
(10.3214 0.0593546 0)
(10.3277 0.0136246 0)
(10.3336 -0.0375034 0)
(10.3343 -0.0676973 0)
(10.3287 -0.0647883 0)
(10.3171 -0.0309444 0)
(10.3026 0.0207583 0)
(10.2888 0.0739077 0)
(10.2794 0.117022 0)
(10.2736 0.144394 0)
(10.2743 0.156752 0)
(9.99402 -0.0265905 0)
(10.0029 -0.0388458 0)
(10.0147 -0.0371877 0)
(9.9922 -0.0272003 0)
(9.97524 -0.0272198 0)
(9.99078 -0.0456556 0)
(10.02 -0.0686089 0)
(10.0499 -0.075971 0)
(10.0702 -0.0573857 0)
(10.0724 -0.0158556 0)
(10.0609 0.0371708 0)
(10.0475 0.0883186 0)
(10.0418 0.127987 0)
(10.0474 0.15267 0)
(10.0636 0.160931 0)
(10.0875 0.155285 0)
(10.1156 0.137344 0)
(10.1443 0.11147 0)
(10.3047 -0.0143916 0)
(10.2049 -0.041942 0)
(10.1654 -0.0664963 0)
(10.1101 -0.038948 0)
(10.1059 -0.0180883 0)
(10.097 -0.0230566 0)
(10.0628 -0.0330602 0)
(10.0312 -0.0325873 0)
(10.0167 -0.0241173 0)
(10.019 -0.0160543 0)
(10.0339 -0.0123777 0)
(10.0556 -0.0119605 0)
(10.0776 -0.0116499 0)
(10.0971 -0.00815 0)
(10.1166 -0.000624009 0)
(10.1388 0.00895631 0)
(10.1644 0.0171266 0)
(10.1919 0.0214521 0)
(9.94184 0.124058 0)
(9.97185 0.178323 0)
(9.9833 0.0679123 0)
(9.97262 0.00157035 0)
(9.96068 -0.00449514 0)
(9.92732 0.0103555 0)
(9.89122 0.011622 0)
(9.88455 -0.0102084 0)
(9.91097 -0.0377987 0)
(9.95519 -0.0490643 0)
(10.0009 -0.035791 0)
(10.0359 -0.00631905 0)
(10.0554 0.0237641 0)
(10.0644 0.0419417 0)
(10.0697 0.0421666 0)
(10.0767 0.0275422 0)
(10.0864 0.00352878 0)
(10.1014 -0.0196513 0)
(9.84806 -0.00220745 0)
(10.0349 -0.0519734 0)
(10.1291 -0.0281384 0)
(10.1601 0.00466803 0)
(10.1569 0.0394716 0)
(10.125 0.053596 0)
(10.0788 0.0223565 0)
(10.0297 -0.0403648 0)
(9.97995 -0.0979846 0)
(9.93561 -0.122545 0)
(9.90722 -0.110245 0)
(9.89795 -0.0767608 0)
(9.90338 -0.0412362 0)
(9.91692 -0.0163546 0)
(9.93313 -0.00722055 0)
(9.94904 -0.0105967 0)
(9.9621 -0.02111 0)
(9.96993 -0.032534 0)
(9.95173 -0.197274 0)
(9.85372 -0.0480472 0)
(9.7793 -0.0560012 0)
(9.76281 -0.0352695 0)
(9.81009 0.0206649 0)
(9.88543 0.0727393 0)
(9.96618 0.095441 0)
(10.0335 0.0805292 0)
(10.0724 0.0401653 0)
(10.0872 0.00141982 0)
(10.0927 -0.0187406 0)
(10.0972 -0.0203213 0)
(10.1018 -0.0133638 0)
(10.1037 -0.00897657 0)
(10.1018 -0.0123088 0)
(10.0974 -0.0220386 0)
(10.0934 -0.0351391 0)
(10.0914 -0.0458557 0)
(9.99952 0.0230197 0)
(9.96106 0.108599 0)
(9.96761 0.0448971 0)
(10.0353 -0.020738 0)
(10.1291 -0.0475841 0)
(10.1941 -0.0629143 0)
(10.205 -0.0844054 0)
(10.167 -0.105213 0)
(10.1042 -0.114708 0)
(10.0464 -0.110642 0)
(10.0128 -0.0939604 0)
(10.0081 -0.0669556 0)
(10.0241 -0.0365665 0)
(10.0491 -0.0111259 0)
(10.0734 0.00262807 0)
(10.0922 0.00310973 0)
(10.1039 -0.00870773 0)
(10.1107 -0.0275757 0)
(9.7349 0.00272159 0)
(9.81733 -0.0415303 0)
(9.9003 -0.122337 0)
(10.0341 -0.137797 0)
(10.1507 -0.0993411 0)
(10.1904 -0.0118313 0)
(10.1576 0.0835852 0)
(10.0899 0.126974 0)
(10.0151 0.10566 0)
(9.95186 0.0462817 0)
(9.91252 -0.0117564 0)
(9.89924 -0.0492656 0)
(9.90668 -0.0638079 0)
(9.92779 -0.0633221 0)
(9.9543 -0.0586398 0)
(9.9802 -0.0563168 0)
(10.0017 -0.0587566 0)
(10.0182 -0.0644591 0)
(10.1059 0.0302233 0)
(10.2168 0.00210639 0)
(10.2309 -0.0934165 0)
(10.1779 -0.134877 0)
(10.1073 -0.109786 0)
(10.0728 -0.0488298 0)
(10.0832 0.00782784 0)
(10.1219 0.0300935 0)
(10.1645 0.0183847 0)
(10.1898 -0.00777086 0)
(10.1921 -0.03245 0)
(10.1818 -0.0473994 0)
(10.1735 -0.0518734 0)
(10.172 -0.04859 0)
(10.174 -0.0429717 0)
(10.174 -0.0400237 0)
(10.1689 -0.0432155 0)
(10.1573 -0.0545587 0)
(10.0266 -0.0540863 0)
(10.0325 -0.0929667 0)
(10.1337 -0.12711 0)
(10.1424 -0.11713 0)
(10.0851 -0.0718577 0)
(10.0204 -0.0121111 0)
(9.97666 0.0349866 0)
(9.97025 0.0551559 0)
(9.99823 0.0463154 0)
(10.0454 0.0183584 0)
(10.0977 -0.018543 0)
(10.1454 -0.0495357 0)
(10.1832 -0.0676042 0)
(10.2102 -0.0721893 0)
(10.2281 -0.0670639 0)
(10.239 -0.0582336 0)
(10.2462 -0.0509455 0)
(10.2503 -0.0497882 0)
(10.1276 0.106681 0)
(10.1627 -0.0521921 0)
(10.1299 -0.103566 0)
(9.99043 -0.0804961 0)
(9.85975 -0.0314804 0)
(9.83887 0.0173932 0)
(9.92126 0.0403215 0)
(10.0569 0.0257931 0)
(10.1875 -0.0124101 0)
(10.2665 -0.0517308 0)
(10.2832 -0.0775761 0)
(10.2601 -0.0868574 0)
(10.2287 -0.082213 0)
(10.2098 -0.0696488 0)
(10.2086 -0.0558029 0)
(10.2189 -0.0464808 0)
(10.2326 -0.0447927 0)
(10.2391 -0.0509593 0)
(9.85969 -0.0926256 0)
(10.062 -0.117462 0)
(10.0351 -0.0813096 0)
(9.94889 -0.0362008 0)
(9.90487 -0.0239743 0)
(9.95351 -0.0385823 0)
(10.0636 -0.059635 0)
(10.1829 -0.0682301 0)
(10.2679 -0.0587951 0)
(10.2947 -0.0423574 0)
(10.2691 -0.0332402 0)
(10.2196 -0.0384559 0)
(10.1736 -0.0540444 0)
(10.1429 -0.0705371 0)
(10.1237 -0.0793641 0)
(10.1087 -0.0782166 0)
(10.0894 -0.0683914 0)
(10.0639 -0.0558491 0)
(10.1359 -0.10011 0)
(9.69806 -0.0905904 0)
(9.43563 -0.0418241 0)
(9.28464 -0.026058 0)
(9.18917 -0.0266199 0)
(9.0983 -0.0364673 0)
(8.95331 -0.0532365 0)
(8.76124 -0.0639332 0)
(8.57816 -0.0588849 0)
(8.44256 -0.0442163 0)
(8.34928 -0.0323883 0)
(8.26874 -0.0297582 0)
(8.17353 -0.0336578 0)
(8.05745 -0.0370551 0)
(7.93298 -0.0355345 0)
(7.81798 -0.0293977 0)
(7.72245 -0.0225244 0)
(7.64943 -0.0210387 0)
(-0.200051 0.438768 6.95523e-21)
(-0.549661 0.339288 -6.87052e-21)
(-0.800823 0.169603 0)
(-0.837533 -0.0660112 0)
(-0.620825 -0.327766 0)
(-0.257106 -0.451307 6.66163e-21)
(0.168339 -0.432775 0)
(0.532279 -0.328745 0)
(0.816663 -0.181348 0)
(0.985469 -0.0178223 0)
(1.04661 0.119845 -6.24132e-21)
(1.02746 0.210223 0)
(0.948571 0.260224 0)
(0.824555 0.269441 0)
(0.681897 0.23769 0)
(0.542044 0.178095 -6.00181e-21)
(0.411649 0.109441 0)
(0.292575 0.0457937 0)
(0.186593 -0.00382107 0)
(0.093424 -0.0342038 0)
(0.0117269 -0.0473047 0)
(-0.0585472 -0.0494574 0)
(-0.11725 -0.046573 0)
(-0.164144 -0.0452157 -5.80864e-21)
(-0.196248 -0.0481622 5.8033e-21)
(-0.210043 -0.0540895 -5.80616e-21)
(-0.202967 -0.0630026 -5.81706e-21)
(-0.169419 -0.0784 0)
(-0.104334 -0.0961445 0)
(-0.00683202 -0.112412 5.89659e-21)
(0.119644 -0.134266 5.93373e-21)
(0.279501 -0.155536 0)
(0.469958 -0.165614 0)
(0.672428 -0.184704 6.04756e-21)
(0.910005 -0.19294 0)
(1.14536 -0.178119 0)
(1.36102 -0.192098 -6.14249e-21)
(1.60688 -0.130432 0)
(1.73328 -0.0889076 -6.20753e-21)
(1.89782 -0.0411178 -1.24887e-20)
(1.90617 0.185153 0)
(1.74892 0.176834 0)
(1.57678 0.616512 0)
(0.755333 0.657367 0)
(0.164305 -0.0808309 0)
(-0.0663648 0.151577 -1.31719e-20)
(-0.365443 0.370845 -1.30496e-20)
(-0.793821 0.35539 -1.2808e-20)
(-1.35027 0.397748 0)
(-1.90916 0.414825 1.2009e-20)
(-2.3952 0.370624 0)
(-2.75075 0.274013 -1.11474e-20)
(-2.94121 0.136742 -1.08839e-20)
(-2.92104 -0.0457229 0)
(-2.67135 -0.271518 0)
(-2.15758 -0.529193 0)
(-1.3734 -0.798219 -1.16449e-20)
(-0.290217 -1.04948 0)
(1.00386 -1.11902 0)
(2.24023 -0.92763 0)
(3.18478 -0.738646 0)
(3.67935 -0.543266 0)
(3.61584 -0.0679692 0)
(3.23067 0.384845 0)
(2.88855 0.41665 0)
(2.69508 0.188217 1.07288e-20)
(2.56398 -0.0580227 0)
(2.41168 -0.212198 0)
(2.14922 -0.130663 -1.02673e-20)
(1.64699 0.203438 -1.01194e-20)
(0.871741 0.49522 0)
(0.0187178 0.558407 9.75544e-21)
(-0.774644 0.52483 -9.42222e-21)
(-1.48608 0.46958 0)
(-2.11337 0.410846 8.56349e-21)
(-2.66501 0.357297 0)
(-3.15467 0.313124 0)
(-3.59742 0.27985 -7.11811e-21)
(-4.00772 0.25703 0)
(-4.39834 0.243198 6.11174e-21)
(-4.77977 0.236437 0)
(-5.15993 0.234683 -5.05107e-21)
(-5.54412 0.235998 -4.49359e-21)
(-5.93533 0.23868 -3.91669e-21)
(-6.33442 0.241301 -6.64275e-21)
(-6.7404 0.242724 5.42092e-21)
(-7.1507 0.24205 0)
(-7.56135 0.238589 0)
(-7.96719 0.231832 0)
(-8.36211 0.221378 4.75028e-22)
(-8.739 0.207008 -6.76132e-22)
(-9.09027 0.188697 1.73977e-21)
(-9.40797 0.16663 0)
(-9.68428 0.141216 -3.48089e-21)
(-9.91199 0.112998 -4.09966e-21)
(-10.0849 0.0829021 -4.51804e-21)
(-10.1981 0.0521899 0)
(-10.2489 0.0210607 0)
(-10.2354 -0.0104652 0)
(-10.1647 -0.0386605 -3.98652e-21)
(-10.0359 -0.0648617 0)
(-9.8525 -0.0886402 0)
(-9.61846 -0.109936 1.51706e-21)
(-9.3383 -0.128712 0)
(-9.01692 -0.144934 0)
(-8.65921 -0.158713 -1.95141e-21)
(-8.2699 -0.170243 0)
(-7.85332 -0.179788 0)
(-7.41323 -0.18765 5.63494e-21)
(-6.95277 -0.194143 6.81028e-21)
(-6.47441 -0.199561 0)
(-5.97991 -0.204177 -9.00799e-21)
(-5.47036 -0.208235 0)
(-4.94634 -0.211924 1.0963e-20)
(-4.40813 -0.215356 0)
(-3.85578 -0.218597 1.26527e-20)
(-3.28962 -0.221555 1.33927e-20)
(-2.71066 -0.223879 0)
(-2.1208 -0.225131 0)
(-1.52304 -0.22476 0)
(-0.921598 -0.222751 0)
(-0.322821 -0.217792 0)
(0.26423 -0.210515 0)
(0.831989 -0.199021 0)
(1.37255 -0.184333 1.61121e-20)
(1.87613 -0.166747 -1.59861e-20)
(2.33498 -0.146925 0)
(2.7431 -0.125748 0)
(3.09667 -0.104165 0)
(3.39415 -0.083049 0)
(3.63609 -0.0630966 -2.86502e-20)
(3.82477 -0.0448171 0)
(3.96378 -0.0284994 2.6905e-20)
(4.05734 -0.0143271 -2.60352e-20)
(4.11072 -0.00226319 0)
(4.12843 0.00822211 0)
(4.11415 0.0167239 0)
(4.07563 0.0226785 2.28187e-20)
(4.0197 0.0260741 2.21069e-20)
(3.95297 0.0272839 0)
(3.88175 0.0267228 2.08221e-20)
(3.81222 0.0245996 2.02581e-20)
(3.75071 0.0208757 -1.97533e-20)
(3.70341 0.0157057 0)
(3.67548 0.00943977 0)
(3.67038 0.00296723 -1.86443e-20)
(3.68906 -0.00183699 0)
(3.72726 -0.00340478 0)
(3.77736 -0.00321451 0)
(3.83395 -0.00380878 0)
(3.89214 -0.00168031 1.7942e-20)
(3.93983 0.00854247 1.78768e-20)
(3.96245 0.0214347 0)
(3.96012 0.0259533 1.77378e-20)
(3.94253 0.0288993 0)
(3.89787 0.0507966 0)
(3.78484 0.0946544 1.74857e-20)
(3.57151 0.134124 0)
(3.28187 0.14067 1.72041e-20)
(2.98528 0.11379 0)
(2.74495 0.0713411 0)
(2.58865 0.0292486 1.66647e-20)
(2.51189 -0.00490939 0)
(2.49158 -0.0287399 1.6429e-20)
(2.5007 -0.037477 0)
(2.51838 -0.0305464 0)
(2.52694 -0.0143663 0)
(2.51056 0.00482908 -1.59398e-20)
(2.45559 0.0218746 0)
(2.36359 0.0320325 1.55855e-20)
(2.24943 0.0325127 0)
(2.13823 0.0251062 0)
(2.04538 0.0170534 0)
(1.97613 0.0116178 0)
(1.92826 0.0119655 0)
(1.87205 0.0134034 0)
(1.83713 0.0235182 0)
(1.71243 0.0227978 -2.8131e-20)
(1.71311 0.0526538 0)
(1.34665 0.0291753 0)
(-0.0529308 1.03081 -2.08214e-20)
(-0.163089 0.827575 2.05876e-20)
(-0.267396 0.414612 0)
(-0.220409 -0.217766 -1.33996e-20)
(-0.0408309 -0.941571 0)
(0.278387 -1.32042 -6.65422e-21)
(0.524161 -1.28615 1.30534e-20)
(0.72652 -1.07499 1.28682e-20)
(0.858731 -0.764425 0)
(0.91423 -0.438121 1.24982e-20)
(0.879243 -0.202379 6.24236e-21)
(0.802341 -0.0234687 0)
(0.727888 0.116769 0)
(0.641263 0.223246 0)
(0.51953 0.298598 0)
(0.357816 0.348058 6.00637e-21)
(0.164161 0.377852 0)
(-0.050511 0.391799 -1.1807e-20)
(-0.276588 0.390697 0)
(-0.504763 0.372677 0)
(-0.727767 0.339822 1.1609e-20)
(-0.940954 0.297645 0)
(-1.13619 0.250506 -1.14977e-20)
(-1.30762 0.198437 5.79024e-21)
(-1.45113 0.140044 -5.78376e-21)
(-1.56046 0.0752612 5.78577e-21)
(-1.63324 0.00470343 5.79605e-21)
(-1.66841 -0.0717554 0)
(-1.65947 -0.153015 0)
(-1.60399 -0.234687 -5.87315e-21)
(-1.50368 -0.31598 5.77376e-21)
(-1.36094 -0.395197 0)
(-1.17807 -0.465513 0)
(-0.960889 -0.517065 -6.0413e-21)
(-0.705505 -0.54764 0)
(-0.427703 -0.566286 0)
(-0.146034 -0.549753 6.15748e-21)
(0.179257 -0.467665 0)
(0.452117 -0.388704 -6.18224e-21)
(0.737717 -0.22605 1.25173e-20)
(1.03313 0.0794069 0)
(1.1899 0.320561 0)
(1.38937 0.770265 2.58145e-20)
(1.42364 1.27224 2.61249e-20)
(1.17631 1.31609 2.63452e-20)
(0.444387 0.739835 -1.32783e-20)
(-0.0124849 0.67896 1.30503e-20)
(-0.452761 1.01296 3.85368e-20)
(-0.884307 1.09492 -2.48878e-20)
(-1.27344 0.985977 -1.20171e-20)
(-1.5628 0.76256 0)
(-1.73384 0.463881 1.11652e-20)
(-1.78641 0.111331 -1.02368e-20)
(-1.72849 -0.319386 0)
(-1.53799 -0.821145 0)
(-1.21807 -1.3656 0)
(-0.785388 -1.92051 1.16412e-20)
(-0.22584 -2.44104 0)
(0.445976 -2.62663 -2.36823e-20)
(1.213 -2.09486 0)
(1.87046 -1.00459 -2.30189e-20)
(2.18975 0.00956626 0)
(2.26193 0.460972 2.21035e-20)
(2.29093 0.424638 0)
(2.29206 0.226654 -2.16431e-20)
(2.06958 0.192593 1.06438e-20)
(1.49403 0.422539 0)
(0.609254 0.801714 2.08547e-20)
(-0.370865 1.15281 1.03088e-20)
(-1.26871 1.37486 1.01295e-20)
(-2.04705 1.42944 0)
(-2.69609 1.35304 9.24569e-21)
(-3.23949 1.22079 9.37169e-21)
(-3.70065 1.07338 0)
(-4.09485 0.934655 -8.52686e-21)
(-4.43771 0.816475 1.58062e-20)
(-4.74437 0.723891 0)
(-5.02776 0.657099 7.0968e-21)
(-5.29866 0.613466 0)
(-5.56549 0.588872 -1.81953e-20)
(-5.83445 0.578572 0)
(-6.10973 0.57791 1.50638e-20)
(-6.39374 0.582686 4.48516e-21)
(-6.68734 0.589313 -3.84685e-21)
(-6.9901 0.594881 -6.47944e-21)
(-7.3005 0.597105 5.22342e-21)
(-7.61607 0.594151 0)
(-7.93347 0.584534 0)
(-8.24856 0.567038 0)
(-8.55635 0.540673 -1.02959e-21)
(-8.85102 0.504715 6.75727e-22)
(-9.12615 0.458754 -1.73901e-21)
(-9.37492 0.402847 0)
(-9.59055 0.337576 -4.06584e-21)
(-9.76684 0.264003 4.09974e-21)
(-9.89851 0.183974 4.51875e-21)
(-9.9813 0.100103 0)
(-10.0126 0.0145196 0)
(-9.98978 -0.0701559 0)
(-9.90508 -0.150811 3.98757e-21)
(-9.76389 -0.226947 0)
(-9.56826 -0.297169 -5.40697e-21)
(-9.322 -0.360524 -4.92199e-21)
(-9.02968 -0.41645 1.18243e-21)
(-8.69624 -0.464764 0)
(-8.32671 -0.505703 -1.71066e-21)
(-7.92591 -0.539823 0)
(-7.49824 -0.567904 -8.6571e-21)
(-7.04751 -0.590868 5.46306e-21)
(-6.57686 -0.609695 6.64745e-21)
(-6.0887 -0.625349 0)
(-5.58475 -0.638754 2.68617e-20)
(-5.06595 -0.650747 -1.98695e-20)
(-4.53276 -0.661936 -1.09618e-20)
(-3.98534 -0.672624 0)
(-3.4237 -0.682847 -1.26512e-20)
(-2.84792 -0.692144 -3.99889e-20)
(-2.25877 -0.699528 0)
(-1.6579 -0.704256 -2.91071e-20)
(-1.04898 -0.704581 -3.01193e-20)
(-0.436519 -0.698602 -3.09527e-20)
(0.172594 -0.685265 0)
(0.769235 -0.663335 0)
(1.34511 -0.630741 0)
(1.89034 -0.588814 1.60208e-20)
(2.39567 -0.538604 1.5968e-20)
(2.85381 -0.481901 0)
(3.25996 -0.42097 3.0906e-20)
(3.61194 -0.358251 3.02192e-20)
(3.90981 -0.296086 0)
(4.15522 -0.236457 2.86279e-20)
(4.35089 -0.180819 5.54833e-20)
(4.5 -0.130049 -2.68868e-20)
(4.60634 -0.0846899 -2.59719e-20)
(4.67336 -0.0448965 0)
(4.7056 -0.0106261 0)
(4.7091 0.0172691 0)
(4.68698 0.038803 -2.28037e-20)
(4.64295 0.0538867 2.20297e-20)
(4.58201 0.0625418 4.27863e-20)
(4.51076 0.0647394 -2.08078e-20)
(4.43721 0.0603484 2.01761e-20)
(4.36979 0.049455 1.97404e-20)
(4.31679 0.0327882 0)
(4.28612 0.0118913 0)
(4.28343 -0.0108558 -1.85702e-20)
(4.30976 -0.0323431 0)
(4.36399 -0.0495463 0)
(4.44292 -0.0603117 3.61566e-20)
(4.5359 -0.0641618 0)
(4.62549 -0.0609968 1.79123e-20)
(4.69953 -0.0504537 -1.78638e-20)
(4.75676 -0.0337694 0)
(4.79594 -0.0153619 1.77202e-20)
(4.81807 0.00395662 0)
(4.83936 0.031572 0)
(4.87487 0.0773262 -1.74673e-20)
(4.91316 0.13327 3.46502e-20)
(4.9284 0.172538 -1.71765e-20)
(4.91256 0.172527 0)
(4.88274 0.13616 0)
(4.86501 0.0870524 1.66742e-20)
(4.87365 0.0480372 0)
(4.90206 0.0292029 1.64217e-20)
(4.92667 0.0210883 0)
(4.92014 0.015109 0)
(4.87663 0.0157071 0)
(4.81512 0.0283811 1.59081e-20)
(4.75297 0.0500929 0)
(4.68679 0.0704431 -1.55543e-20)
(4.60248 0.080189 0)
(4.49798 0.0737718 0)
(4.38939 0.058281 2.98688e-20)
(4.28766 0.0388636 -2.94847e-20)
(4.2153 0.0317592 0)
(4.14847 0.0260117 0)
(4.12549 0.0433839 0)
(4.0464 0.0424527 8.4193e-20)
(4.0678 0.0892424 0)
(3.87162 0.0814471 -5.46811e-20)
(0.107843 0.971575 -1.78926e-22)
(0.224372 0.874244 -2.76103e-20)
(0.311479 0.370171 0)
(0.427413 -0.387075 2.69871e-20)
(0.598591 -1.27486 0)
(0.646461 -1.60856 0)
(0.531706 -1.37801 6.38451e-23)
(0.367338 -1.00539 -1.28839e-20)
(0.192998 -0.49821 -1.27031e-20)
(0.0453536 0.0442389 -1.25283e-20)
(-0.191256 0.34902 0)
(-0.363169 0.461108 0)
(-0.566292 0.558675 1.21027e-20)
(-0.760781 0.670216 2.39519e-20)
(-0.972229 0.750703 -2.37231e-20)
(-1.20148 0.798087 0)
(-1.44771 0.818602 -2.33091e-20)
(-1.71032 0.82258 1.17487e-20)
(-1.98827 0.815954 0)
(-2.27395 0.797561 -2.2719e-20)
(-2.55779 0.764812 -1.15451e-20)
(-2.82952 0.71346 2.23544e-20)
(-3.0785 0.639833 1.14333e-20)
(-3.29562 0.54262 0)
(-3.47322 0.423426 -2.19975e-20)
(-3.6059 0.285858 -2.1964e-20)
(-3.69056 0.133907 0)
(-3.72724 -0.0277408 -2.20533e-20)
(-3.71287 -0.194667 0)
(-3.64707 -0.362526 -2.23216e-20)
(-3.53183 -0.526414 -1.16242e-20)
(-3.37048 -0.680223 0)
(-3.16508 -0.816797 0)
(-2.91772 -0.928561 0)
(-2.63428 -1.00968 0)
(-2.31963 -1.05845 0)
(-1.9758 -1.07378 0)
(-1.60995 -1.03659 -2.4362e-20)
(-1.23686 -0.946425 3.70291e-20)
(-0.844364 -0.774579 0)
(-0.41781 -0.50747 0)
(0.0284192 -0.186185 0)
(0.459108 0.275108 2.16628e-22)
(1.00851 0.895268 -2.61602e-20)
(1.5 1.43633 -5.29753e-20)
(1.67342 1.59939 5.30375e-20)
(1.67681 1.552 2.6501e-20)
(1.52015 1.5241 -2.56605e-20)
(1.45685 1.49021 -3.25978e-22)
(1.39537 1.34174 -2.41001e-20)
(1.31965 1.03241 0)
(1.27324 0.612859 -2.19527e-20)
(1.16712 0.142673 -6.43936e-23)
(1.109 -0.37815 0)
(1.13601 -0.965215 0)
(1.18873 -1.5574 2.14387e-20)
(1.24717 -2.08078 0)
(1.28682 -2.61534 0)
(1.17268 -2.98136 -2.3684e-20)
(1.07889 -2.64486 -4.75858e-20)
(1.1254 -1.75098 2.3039e-20)
(1.22128 -0.814046 0)
(1.23242 -0.103889 -2.21509e-20)
(1.02834 0.36491 0)
(0.539878 0.78019 -2.18005e-20)
(-0.165638 1.22919 -2.14393e-20)
(-0.958831 1.64765 4.19333e-20)
(-1.71893 1.94874 2.02418e-20)
(-2.35418 2.09893 0)
(-2.83894 2.11719 -3.90083e-20)
(-3.18853 2.01863 0)
(-3.43945 1.84033 -5.55739e-20)
(-3.62987 1.62742 -3.53459e-20)
(-3.78596 1.4167 -3.39515e-20)
(-3.92675 1.23078 3.24878e-20)
(-4.06498 1.08066 -4.67688e-20)
(-4.20974 0.969465 0)
(-4.36721 0.894973 0)
(-4.54187 0.852024 2.59232e-20)
(-4.73683 0.834036 3.61604e-20)
(-4.95421 0.834173 0)
(-5.19511 0.846093 -1.00336e-20)
(-5.45971 0.864321 0)
(-5.74736 0.884262 2.31354e-20)
(-6.05671 0.902157 2.05561e-22)
(-6.3856 0.914898 -2.64797e-22)
(-6.731 0.91979 -7.7827e-21)
(-7.08881 0.914451 0)
(-7.45359 0.896678 2.53228e-21)
(-7.81858 0.864412 5.86372e-22)
(-8.17571 0.815838 0)
(-8.51581 0.749641 0)
(-8.82905 0.665508 0)
(-9.10559 0.564242 7.54928e-21)
(-9.33631 0.447809 0)
(-9.51319 0.319407 0)
(-9.63021 0.182333 0)
(-9.68357 0.0411097 0)
(-9.67188 -0.09565 0)
(-9.59552 -0.231676 9.34922e-21)
(-9.4574 -0.361174 0)
(-9.26102 -0.481047 5.40753e-21)
(-9.01121 -0.588998 3.40493e-21)
(-8.71354 -0.683827 -1.18241e-21)
(-8.37382 -0.765342 0)
(-7.99774 -0.834041 3.66167e-21)
(-7.5906 -0.890982 0)
(-7.1571 -0.937586 8.65579e-21)
(-6.70123 -0.975481 -1.10957e-20)
(-6.22616 -1.00638 -3.98269e-20)
(-5.73428 -1.03199 0)
(-5.22712 -1.05396 -5.30184e-20)
(-4.70534 -1.07381 -1.93141e-20)
(-4.16891 -1.09269 0)
(-3.61744 -1.11116 -4.63998e-20)
(-3.0502 -1.12933 -4.96082e-20)
(-2.46637 -1.14646 7.91361e-20)
(-1.866 -1.16057 0)
(-1.24985 -1.17021 2.90994e-20)
(-0.620212 -1.17212 3.01119e-20)
(0.0183467 -1.16281 9.22371e-20)
(0.658507 -1.13951 0)
(1.29035 -1.09905 0)
(1.90212 -1.04044 0)
(2.48009 -0.964666 3.17791e-20)
(3.01022 -0.874651 0)
(3.48046 -0.774946 0)
(3.88287 -0.670737 -3.08701e-20)
(4.21494 -0.566685 -3.01872e-20)
(4.47963 -0.466206 0)
(4.68377 -0.371474 0)
(4.8357 -0.283875 -5.54435e-20)
(4.94323 -0.204314 0)
(5.01277 -0.133179 5.19629e-20)
(5.04929 -0.070702 5.01725e-20)
(5.0563 -0.0165201 0)
(5.03859 0.0302605 0)
(4.99997 0.068079 -4.54275e-20)
(4.94354 0.0956686 -1.04538e-22)
(4.87361 0.112515 -1.07949e-22)
(4.79589 0.118201 0)
(4.71723 0.112233 -8.06949e-20)
(4.64501 0.0945876 0)
(4.58647 0.0661095 0)
(4.54798 0.0287154 0)
(4.53451 -0.0140534 3.71942e-20)
(4.54917 -0.0553864 0)
(4.5926 -0.0893807 -7.2621e-20)
(4.66193 -0.111406 -3.61457e-20)
(4.75128 -0.116376 0)
(4.85428 -0.100989 -3.583e-20)
(4.96087 -0.0690879 0)
(5.04887 -0.0329855 0)
(5.08715 -0.00691897 -1.06282e-19)
(5.06165 0.0053317 7.0532e-20)
(5.00103 0.0166168 0)
(4.96404 0.0474573 6.976e-20)
(4.99018 0.0987036 -3.46482e-20)
(5.06602 0.144897 0)
(5.14365 0.154697 0)
(5.18343 0.118018 0)
(5.18007 0.050622 -9.99977e-20)
(5.16753 -0.0172063 0)
(5.19113 -0.0570535 -3.28066e-20)
(5.26764 -0.0512907 0)
(5.36673 -0.0118869 0)
(5.4307 0.0299683 0)
(5.43164 0.0559075 0)
(5.39611 0.0735667 0)
(5.36369 0.0935224 0)
(5.34856 0.115183 -6.13392e-20)
(5.32883 0.12548 0)
(5.28111 0.11908 -2.98444e-20)
(5.1899 0.0951598 8.84005e-20)
(5.07931 0.0754831 0)
(4.95698 0.0555772 0)
(4.86956 0.0610616 -5.6757e-20)
(4.78093 0.0558622 -5.60785e-20)
(4.7615 0.0963941 5.52935e-20)
(4.68613 0.101143 5.46453e-20)
(0.145739 0.321867 4.26145e-20)
(0.361839 0.425338 4.22251e-20)
(0.473556 -0.0134995 2.80727e-20)
(0.562565 -0.67486 1.4167e-20)
(0.551845 -1.35057 0)
(0.232582 -1.14618 -2.70963e-20)
(-0.117795 -0.55475 1.35625e-20)
(-0.438581 -0.363245 0)
(-0.789625 -0.0123232 1.26892e-20)
(-0.96194 0.393184 0)
(-1.20464 0.60098 -2.48534e-20)
(-1.42483 0.790889 0)
(-1.71244 0.95367 -1.20554e-20)
(-2.00632 1.10241 -2.38513e-20)
(-2.32793 1.23295 2.36159e-20)
(-2.67121 1.34048 0)
(-3.02955 1.42058 2.31896e-20)
(-3.39519 1.46535 0)
(-3.75343 1.4693 0)
(-4.09367 1.43023 2.25914e-20)
(-4.40547 1.34918 0)
(-4.68248 1.2296 -1.21323e-21)
(-4.92012 1.07605 0)
(-5.11565 0.893524 0)
(-5.26666 0.686919 1.44308e-21)
(-5.37111 0.460967 2.18606e-20)
(-5.42742 0.220411 2.03855e-20)
(-5.43501 -0.0298554 2.19588e-20)
(-5.39328 -0.283826 0)
(-5.30422 -0.535465 4.30226e-20)
(-5.16913 -0.778388 0)
(-4.99034 -1.00546 2.13667e-20)
(-4.76964 -1.20919 0)
(-4.50832 -1.38223 0)
(-4.20863 -1.51768 -2.25044e-20)
(-3.87537 -1.60896 0)
(-3.51446 -1.65102 2.3364e-20)
(-3.12904 -1.64053 4.4217e-22)
(-2.71814 -1.57177 -4.8821e-20)
(-2.27624 -1.43625 4.95318e-20)
(-1.79381 -1.22765 0)
(-1.26589 -0.957236 0)
(-0.697234 -0.623248 2.66824e-20)
(0.000250393 -0.163254 0)
(0.810233 0.38467 2.67163e-20)
(1.58496 0.8021 -2.67154e-20)
(2.29932 1.0853 -2.64788e-20)
(2.88675 1.28292 0)
(3.41032 1.37979 2.50936e-20)
(3.85773 1.34233 2.39827e-20)
(4.18648 1.15179 -4.75648e-20)
(4.3929 0.842223 2.18091e-20)
(4.47981 0.420353 2.10864e-20)
(4.41664 -0.0918083 0)
(4.26303 -0.63731 0)
(3.99832 -1.23705 -2.13179e-20)
(3.55914 -1.74198 0)
(3.08365 -2.08379 0)
(2.41671 -2.35307 4.72317e-20)
(1.65947 -2.01578 4.7563e-20)
(1.02813 -1.02131 0)
(0.475114 -0.0859982 0)
(0.0180779 0.60008 0)
(-0.48275 1.17449 0)
(-1.0749 1.69058 4.34178e-20)
(-1.67897 2.1213 -4.25845e-20)
(-2.20888 2.4133 -4.17957e-20)
(-2.60536 2.54148 -8.13045e-20)
(-2.85817 2.52134 0)
(-2.99313 2.39017 8.81283e-22)
(-3.04612 2.18565 0)
(-3.05711 1.94708 3.66756e-20)
(-3.05528 1.70951 8.16027e-22)
(-3.06182 1.49666 3.39892e-20)
(-3.08986 1.3224 -3.25305e-20)
(-3.1473 1.19226 4.10794e-22)
(-3.2391 1.10616 0)
(-3.36811 1.06011 -2.75324e-20)
(-3.53633 1.04746 -2.59599e-20)
(-3.74509 1.06081 -4.80653e-20)
(-3.9946 1.09305 0)
(-4.28408 1.13726 1.98609e-20)
(-4.6119 1.18697 0)
(-4.97547 1.23653 -3.0549e-20)
(-5.37092 1.28092 1.2926e-20)
(-5.7931 1.31561 -1.03854e-20)
(-6.23552 1.33659 7.78393e-21)
(-6.69031 1.34009 9.07896e-21)
(-7.14845 1.32247 -2.53189e-21)
(-7.59989 1.28039 -3.10891e-23)
(-8.03364 1.21125 0)
(-8.43795 1.11366 1.17719e-20)
(-8.80111 0.987821 0)
(-9.11251 0.835746 1.96132e-20)
(-9.36312 0.661314 -2.23624e-20)