/*--------------------------------*- C++ -*----------------------------------*\
  =========                 |
  \\      /  F ield         | OpenFOAM: The Open Source CFD Toolbox
   \\    /   O peration     | Website:  https://openfoam.org
    \\  /    A nd           | Version:  9
     \\/     M anipulation  |
\*---------------------------------------------------------------------------*/
FoamFile
{
    format      ascii;
    class       volScalarField;
    location    "0.18";
    object      nut;
}
// * * * * * * * * * * * * * * * * * * * * * * * * * * * * * * * * * * * * * //

dimensions      [0 2 -1 0 0 0 0];

internalField   nonuniform List<scalar> 
12225
(
4.04768e-05
3.83178e-05
3.62504e-05
3.44199e-05
3.2952e-05
3.18977e-05
3.12562e-05
3.09937e-05
3.10582e-05
3.13902e-05
3.19313e-05
3.26277e-05
3.34329e-05
3.43085e-05
3.52252e-05
3.61587e-05
3.7114e-05
3.84976e-05
0.000281048
0.000209266
0.000176267
0.000157439
0.000146271
0.000139687
0.000135793
0.000133431
0.000131916
0.000130859
0.000130044
0.000129357
0.00012874
0.000128162
0.000127623
0.00012708
0.000126685
0.000125733
0.000556047
0.000419908
0.000349815
0.000304736
0.000272449
0.000247985
0.000228769
0.000213304
0.000200676
0.000190276
0.000181661
0.000174495
0.000168506
0.000163474
0.000159225
0.000155573
0.000152431
0.000149366
0.000740308
0.000625821
0.000544117
0.000485
0.000439772
0.000403653
0.000373844
0.000348609
0.00032686
0.000307899
0.000291252
0.000276573
0.000263592
0.000252079
0.000241838
0.000232652
0.000224364
0.000216694
0.000817069
0.000759142
0.000700546
0.000648578
0.000603898
0.000565586
0.000532477
0.000503517
0.000477884
0.000454967
0.000434322
0.000415612
0.00039858
0.000383015
0.000368738
0.000355564
0.000343348
0.000331993
0.0008421
0.000819688
0.000789925
0.000757606
0.000725555
0.000695165
0.000666968
0.000641021
0.00061718
0.000595245
0.000575012
0.000556295
0.000538929
0.000522767
0.000507678
0.000493534
0.000480232
0.000467819
0.000849261
0.000841808
0.000829742
0.000814188
0.000796481
0.000777762
0.000758851
0.000740258
0.000722272
0.000705039
0.000688619
0.00067302
0.000658221
0.000644183
0.000630861
0.000618198
0.000606156
0.00059486
0.00085112
0.000848748
0.00084448
0.000838236
0.000830246
0.000820896
0.0008106
0.000799724
0.000788556
0.000777316
0.000766158
0.000755188
0.000744477
0.000734067
0.00072398
0.000714226
0.000704818
0.000695909
0.00085156
0.000850665
0.00084917
0.000846887
0.000843741
0.000839759
0.000835034
0.000829695
0.000823876
0.000817707
0.000811301
0.000804752
0.000798138
0.000791517
0.000784939
0.000778438
0.000772051
0.000765916
0.000851652
0.000851133
0.000850468
0.000849564
0.000848347
0.000846772
0.000844826
0.00084252
0.000839884
0.000836959
0.00083379
0.000830425
0.000826905
0.000823272
0.00081956
0.000815801
0.000812029
0.00080834
0.000851668
0.00085123
0.000850778
0.000850278
0.000849698
0.000849006
0.000848182
0.000847211
0.000846088
0.000844814
0.000843399
0.000841853
0.000840193
0.000838433
0.000836589
0.000834679
0.000832722
0.000830774
0.000851669
0.000851245
0.000850835
0.000850429
0.000850014
0.000849575
0.000849101
0.000848579
0.000848002
0.000847365
0.000846664
0.000845901
0.000845077
0.000844197
0.000843266
0.00084229
0.000841279
0.000840267
0.000851668
0.000851244
0.000850843
0.000850459
0.000850088
0.000849726
0.000849365
0.000849001
0.000848628
0.000848243
0.00084784
0.00084742
0.000846979
0.000846517
0.000846036
0.000845536
0.000845021
0.00084451
0.000851667
0.000851242
0.000850839
0.000850458
0.000850096
0.000849751
0.000849421
0.000849102
0.000848793
0.000848491
0.000848194
0.000847901
0.00084761
0.00084732
0.000847031
0.000846741
0.000846453
0.000846179
0.000851666
0.000851239
0.000850835
0.000850452
0.00085009
0.000849746
0.000849419
0.000849108
0.000848811
0.000848528
0.000848256
0.000847996
0.000847745
0.000847504
0.000847272
0.000847047
0.000846832
0.000846637
0.000851665
0.000851236
0.000850831
0.000850447
0.000850083
0.000849737
0.000849409
0.000849098
0.000848801
0.000848519
0.00084825
0.000847994
0.00084775
0.000847517
0.000847294
0.000847082
0.000846881
0.000846703
0.000851664
0.000851235
0.000850828
0.000850442
0.000850077
0.00084973
0.000849401
0.000849088
0.00084879
0.000848507
0.000848237
0.00084798
0.000847735
0.000847502
0.000847279
0.000847066
0.000846866
0.000846689
0.000851663
0.000851234
0.000850826
0.00085044
0.000850073
0.000849725
0.000849395
0.000849081
0.000848782
0.000848498
0.000848227
0.000847969
0.000847723
0.000847488
0.000847264
0.00084705
0.000846849
0.00084667
0.000851663
0.000851233
0.000850825
0.000850439
0.000850072
0.000849724
0.000849393
0.000849078
0.000848779
0.000848494
0.000848223
0.000847964
0.000847717
0.000847481
0.000847256
0.000847041
0.000846839
0.000846659
0.000851664
0.000851234
0.000850826
0.00085044
0.000850074
0.000849726
0.000849396
0.000849081
0.000848782
0.000848497
0.000848225
0.000847966
0.000847718
0.000847481
0.000847254
0.000847037
0.000846832
0.000846649
0.000851664
0.000851235
0.000850829
0.000850443
0.000850078
0.00084973
0.000849399
0.000849082
0.00084878
0.000848489
0.00084821
0.00084794
0.00084768
0.000847427
0.000847183
0.000846945
0.000846716
0.000846506
0.000851665
0.000851237
0.00085083
0.000850442
0.000850069
0.000849706
0.000849351
0.000848999
0.000848647
0.000848293
0.000847935
0.00084757
0.000847198
0.000846819
0.000846433
0.000846039
0.000845641
0.000845252
0.000851664
0.000851228
0.000850794
0.000850348
0.00084987
0.000849345
0.000848762
0.000848111
0.000847388
0.000846593
0.000845728
0.000844796
0.000843805
0.000842761
0.000841671
0.000840543
0.000839387
0.000838226
0.000851634
0.000851073
0.000850343
0.000849363
0.000848079
0.000846468
0.000844531
0.000842292
0.000839785
0.000837052
0.000834134
0.000831074
0.000827909
0.000824672
0.000821393
0.000818096
0.000814808
0.000811573
0.000851287
0.000849596
0.000846721
0.000842577
0.000837262
0.000830979
0.000823971
0.00081647
0.000808673
0.000800736
0.000792782
0.0007849
0.000777155
0.000769592
0.000762242
0.000755124
0.000748252
0.00074168
0.000848318
0.000839426
0.000826161
0.000810016
0.000792357
0.000774223
0.000756317
0.000739038
0.000722586
0.000707041
0.000692414
0.000678678
0.000665786
0.000653685
0.000642317
0.000631628
0.000621571
0.000612155
0.000828548
0.000788842
0.000746032
0.0007057
0.000669458
0.000637494
0.000609435
0.000584726
0.000562828
0.000543287
0.000525732
0.000509865
0.000495445
0.000482277
0.000470202
0.00045909
0.000448834
0.000439387
0.000730726
0.000627344
0.000554504
0.000501055
0.000460312
0.000428339
0.000402623
0.000381457
0.000363696
0.000348564
0.000335517
0.000324157
0.000314185
0.000305373
0.000297539
0.00029054
0.000284257
0.000278607
0.000439249
0.00033847
0.000287934
0.000256867
0.00023636
0.000222508
0.000212991
0.00020631
0.000201504
0.000197957
0.00019527
0.000193176
0.000191498
0.000190116
0.000188946
0.000187932
0.000187036
0.00018621
7.16431e-05
6.90587e-05
6.65522e-05
6.41646e-05
6.19883e-05
6.00784e-05
5.84564e-05
5.71212e-05
5.60571e-05
5.52402e-05
5.46435e-05
5.42392e-05
5.40006e-05
5.39028e-05
5.39231e-05
5.40415e-05
5.42406e-05
5.45041e-05
3.48974e-07
8.15319e-06
1.32394e-05
1.79474e-05
2.31485e-05
2.89912e-05
3.55617e-05
4.29742e-05
5.09271e-05
5.90482e-05
6.73339e-05
7.57331e-05
8.41887e-05
9.26493e-05
0.00010107
0.00010941
0.000117633
0.000125703
0.000133586
0.000141245
0.000148643
0.00015574
0.000162491
0.000168843
0.000174734
0.000180098
0.000184866
0.000188987
0.000192431
0.000195179
0.000197172
0.000198278
0.000198487
0.000198358
0.000198498
0.000199189
0.000200561
0.000202014
0.000202543
0.00019996
4.65804e-05
0.000201556
4.70355e-05
4.80752e-05
4.9098e-05
5.01418e-05
5.11972e-05
5.22593e-05
5.33253e-05
5.43935e-05
5.54627e-05
5.6532e-05
5.76009e-05
5.86687e-05
5.97353e-05
6.08001e-05
6.18629e-05
6.29234e-05
6.39811e-05
6.50358e-05
6.6087e-05
6.71345e-05
6.81779e-05
6.92166e-05
7.02505e-05
7.12789e-05
7.23015e-05
7.33178e-05
7.43273e-05
7.53297e-05
7.63243e-05
7.73108e-05
7.82887e-05
7.92574e-05
8.02166e-05
8.11657e-05
8.21043e-05
8.30318e-05
8.39479e-05
8.48522e-05
8.5744e-05
8.66232e-05
8.74891e-05
8.83414e-05
8.91797e-05
9.00036e-05
9.08127e-05
9.16066e-05
9.23849e-05
9.31473e-05
9.38933e-05
9.46226e-05
9.53347e-05
9.60294e-05
9.67063e-05
9.73653e-05
9.80065e-05
9.86304e-05
9.92385e-05
9.98339e-05
0.000100413
0.000100969
0.000101504
0.000102018
0.00010251
0.00010298
0.000103427
0.000103852
0.000104254
0.000104633
0.000104988
0.000105319
0.000105626
0.000105908
0.000106166
0.000106398
0.000106606
0.000106788
0.000106945
0.000107077
0.000107183
0.000107263
0.000107317
0.000107346
0.00010735
0.000107327
0.00010728
0.000107206
0.000107108
0.000106984
0.000106835
0.000106662
0.000106464
0.000106242
0.000105995
0.000105725
0.000105432
0.000105116
0.000104777
0.000104415
0.000104032
0.000103628
0.000103203
0.000102758
0.000102293
0.000101808
0.000101305
0.000100784
0.000100245
9.96898e-05
9.91182e-05
9.8531e-05
9.7929e-05
9.73129e-05
9.66833e-05
9.6041e-05
9.53868e-05
9.47211e-05
9.40452e-05
9.33595e-05
9.26647e-05
9.19627e-05
9.12514e-05
9.05379e-05
8.98279e-05
8.92312e-05
8.88274e-05
8.84365e-05
8.80443e-05
8.76499e-05
8.72533e-05
8.68546e-05
8.64533e-05
8.60479e-05
8.56355e-05
8.52092e-05
8.47537e-05
8.42285e-05
8.35333e-05
8.2231e-05
1.22193e-06
2.87168e-05
6.11876e-05
8.45887e-05
0.000100777
0.000112938
0.000123433
0.000133466
0.000143557
0.000153852
0.000164325
0.0001749
0.000185495
0.000196036
0.00020646
0.00021671
0.000226735
0.000236486
0.000245912
0.000254956
0.000263555
0.000271629
0.000279081
0.00028579
0.000291609
0.000296369
0.000299901
0.000302054
0.0003027
0.00030167
0.000298645
0.000293218
0.000285551
0.000277367
0.000271279
0.000266786
0.000265552
0.000264923
0.000263653
0.000259651
0.00025518
0.000264717
0.000263185
0.000269474
0.000275798
0.000282112
0.000288795
0.000295765
0.000302958
0.000310331
0.000317856
0.000325516
0.000333298
0.000341196
0.000349204
0.000357318
0.000365536
0.000373855
0.000382274
0.000390791
0.000399404
0.00040811
0.000416909
0.000425797
0.000434773
0.000443833
0.000452974
0.000462193
0.000471486
0.000480849
0.000490278
0.000499767
0.000509313
0.000518909
0.000528551
0.000538233
0.000547949
0.000557693
0.000567459
0.000577243
0.000587037
0.000596836
0.000606634
0.000616425
0.000626205
0.000635967
0.000645707
0.00065542
0.000665102
0.000674748
0.000684353
0.000693913
0.000703422
0.000712875
0.00072226
0.000731565
0.000740765
0.000749821
0.000758678
0.000767066
0.000774967
0.00078271
0.000790332
0.000797832
0.000805205
0.000812447
0.000819551
0.000826512
0.000833324
0.000839982
0.000846481
0.000852815
0.000858979
0.000864969
0.00087078
0.000876408
0.000881847
0.000887094
0.000892146
0.000896998
0.000901647
0.00090609
0.000910324
0.000914346
0.000918155
0.000921747
0.000925122
0.000928276
0.000931208
0.000933919
0.000936405
0.000938667
0.000940705
0.000942519
0.000944108
0.000945474
0.000946616
0.000947536
0.000948236
0.000948717
0.000948981
0.000949031
0.000948868
0.000948496
0.000947918
0.000947137
0.000946158
0.000944984
0.000943619
0.000942068
0.000940337
0.000938429
0.00093635
0.000934108
0.000931707
0.000929152
0.000926454
0.000923614
0.000920646
0.000917554
0.00091434
0.000911029
0.000907619
0.000904052
0.000900182
0.000895083
0.000888219
0.00088087
0.000873349
0.000865737
0.000858065
0.000850348
0.000842592
0.0008348
0.000826963
0.000819061
0.000811016
0.000802719
0.000793171
0.00077452
2.3688e-06
4.49676e-05
9.46403e-05
0.000131396
0.000157867
0.000177649
0.000193479
0.000207203
0.000219933
0.000232259
0.000244439
0.000256551
0.000268585
0.000280497
0.000292228
0.000303723
0.000314924
0.00032578
0.000336236
0.000346236
0.000355722
0.000364627
0.000372875
0.000380385
0.000387078
0.000392886
0.000397783
0.000401808
0.000405071
0.000407725
0.000409912
0.000411775
0.000413666
0.000416331
0.000420353
0.000425598
0.000432133
0.000439707
0.000448119
0.000457205
0.000467199
0.000479132
0.00049138
0.000504986
0.000519081
0.000533478
0.000548212
0.000563268
0.000578621
0.000594246
0.000610123
0.000626239
0.000642581
0.000659142
0.000675913
0.00069289
0.000710068
0.000727443
0.00074501
0.000762766
0.000780704
0.000798822
0.000817114
0.000835572
0.000854193
0.000872967
0.000891888
0.000910947
0.000930136
0.000949444
0.000968862
0.00098838
0.00100799
0.00102767
0.00104741
0.00106721
0.00108705
0.00110692
0.0011268
0.00114668
0.00116656
0.00118641
0.00120622
0.00122598
0.00124568
0.00126532
0.00128486
0.00130431
0.00132365
0.00134287
0.00136196
0.0013809
0.00139967
0.00141826
0.00143664
0.00145478
0.00147264
0.00149017
0.00150731
0.0015238
0.00153988
0.00155567
0.0015712
0.00158648
0.00160149
0.00161621
0.00163065
0.00164478
0.0016586
0.00167209
0.00168525
0.00169805
0.00171051
0.00172259
0.0017343
0.00174562
0.00175655
0.00176708
0.00177719
0.00178689
0.00179616
0.001805
0.00181341
0.00182137
0.00182888
0.00183595
0.00184255
0.0018487
0.00185438
0.00185961
0.00186436
0.00186865
0.00187247
0.00187582
0.0018787
0.00188112
0.00188307
0.00188457
0.0018856
0.00188618
0.0018863
0.00188598
0.00188522
0.00188402
0.0018824
0.00188035
0.00187789
0.00187502
0.00187176
0.00186811
0.00186408
0.00185969
0.00185494
0.00184985
0.00184443
0.00183869
0.00183265
0.00182633
0.00181973
0.00181289
0.0018058
0.00179849
0.00179098
0.00178313
0.00177473
0.00176507
0.00175375
0.00174163
0.00172911
0.00171635
0.00170342
0.00169036
0.0016772
0.00166393
0.00165053
0.00163694
0.00162294
0.00160804
0.00159028
0.00156103
3.63239e-06
5.65573e-05
0.000118474
0.000165898
0.000201045
0.00022758
0.000248497
0.00026597
0.000281461
0.00029587
0.000309703
0.000323211
0.000336495
0.000349572
0.000362426
0.00037502
0.000387316
0.000399276
0.000410868
0.000422059
0.000432825
0.000443141
0.000452992
0.000462368
0.000471278
0.000479757
0.000487879
0.000495774
0.000503619
0.000511625
0.000519994
0.000528912
0.00053858
0.000549225
0.000560986
0.000573839
0.000587773
0.000602753
0.000618726
0.00063564
0.00065348
0.000672265
0.00069181
0.00071205
0.000732773
0.000753873
0.000775322
0.00079711
0.000819226
0.000841661
0.000864405
0.000887449
0.000910785
0.000934407
0.000958309
0.000982484
0.00100693
0.00103163
0.00105659
0.0010818
0.00110726
0.00113295
0.00115886
0.001185
0.00121134
0.00123787
0.0012646
0.00129149
0.00131855
0.00134574
0.00137307
0.00140051
0.00142805
0.00145567
0.00148336
0.00151109
0.00153884
0.00156661
0.00159436
0.00162209
0.00164977
0.00167739
0.00170492
0.00173235
0.00175966
0.00178684
0.00181387
0.00184072
0.00186738
0.00189384
0.00192007
0.00194605
0.00197177
0.00199719
0.00202229
0.00204704
0.00207142
0.00209539
0.00211875
0.00214156
0.00216394
0.00218594
0.00220758
0.00222886
0.00224976
0.00227026
0.00229036
0.00231004
0.00232928
0.00234807
0.0023664
0.00238424
0.00240159
0.00241843
0.00243476
0.00245055
0.00246579
0.00248048
0.00249461
0.00250816
0.00252112
0.00253349
0.00254525
0.00255641
0.00256695
0.00257686
0.00258615
0.00259481
0.00260283
0.00261021
0.00261694
0.00262303
0.00262847
0.00263327
0.00263742
0.00264093
0.00264379
0.00264601
0.0026476
0.00264856
0.00264888
0.00264859
0.00264768
0.00264617
0.00264406
0.00264136
0.00263808
0.00263423
0.00262983
0.00262489
0.00261941
0.00261342
0.00260693
0.00259996
0.00259252
0.00258462
0.00257631
0.00256759
0.00255848
0.00254901
0.00253919
0.00252903
0.00251853
0.00250759
0.00249605
0.00248348
0.00246964
0.00245497
0.00243977
0.00242421
0.0024084
0.00239239
0.00237621
0.00235987
0.00234335
0.00232655
0.0023092
0.00229061
0.00226863
0.00223664
4.83469e-06
6.57166e-05
0.000137288
0.000193531
0.000236002
0.000268389
0.000293858
0.000314801
0.00033291
0.000349314
0.000364716
0.000379525
0.000393956
0.000408112
0.000422026
0.000435705
0.00044914
0.000462322
0.000475245
0.000487911
0.00050033
0.000512522
0.000524518
0.000536363
0.000548117
0.000559866
0.000571718
0.000583813
0.000596311
0.00060938
0.000623177
0.000637832
0.000653445
0.000670092
0.000687804
0.000706568
0.000726355
0.000747128
0.000768841
0.000791439
0.000814865
0.000839055
0.000863914
0.000889348
0.000915261
0.000941587
0.000968296
0.000995374
0.00102281
0.00105061
0.00107875
0.00110723
0.00113605
0.00116519
0.00119466
0.00122445
0.00125454
0.00128494
0.00131563
0.00134661
0.00137786
0.00140938
0.00144115
0.00147317
0.00150541
0.00153787
0.00157053
0.00160337
0.00163638
0.00166954
0.00170282
0.00173621
0.0017697
0.00180325
0.00183685
0.00187047
0.00190409
0.0019377
0.00197126
0.00200475
0.00203816
0.00207145
0.00210461
0.00213762
0.00217045
0.00220309
0.00223551
0.00226769
0.00229962
0.00233126
0.00236261
0.00239363
0.00242431
0.00245462
0.00248453
0.00251403
0.00254309
0.00257167
0.00259961
0.00262702
0.00265397
0.00268048
0.00270657
0.00273221
0.00275741
0.00278215
0.0028064
0.00283016
0.0028534
0.00287611
0.00289827
0.00291986
0.00294087
0.00296129
0.00298109
0.00300027
0.00301881
0.0030367
0.00305392
0.00307046
0.00308632
0.00310147
0.00311592
0.00312965
0.00314265
0.00315492
0.00316645
0.00317723
0.00318726
0.00319654
0.00320505
0.0032128
0.00321979
0.00322602
0.00323147
0.00323617
0.00324009
0.00324326
0.00324567
0.00324733
0.00324824
0.00324841
0.00324785
0.00324656
0.00324455
0.00324184
0.00323843
0.00323433
0.00322957
0.00322415
0.00321808
0.00321139
0.0032041
0.00319621
0.00318775
0.00317875
0.00316922
0.00315918
0.00314867
0.00313769
0.00312627
0.00311442
0.00310214
0.00308936
0.00307598
0.00306176
0.00304657
0.00303062
0.00301409
0.00299715
0.00297989
0.00296237
0.00294464
0.00292673
0.00290863
0.00289023
0.00287129
0.00285111
0.00282781
0.00279696
5.89948e-06
7.31538e-05
0.000152626
0.000216221
0.000264959
0.000302489
0.000332068
0.000356227
0.000376822
0.000395151
0.00041208
0.000428154
0.000443704
0.000458914
0.000473886
0.000488671
0.000503299
0.000517792
0.000532172
0.000546471
0.000560724
0.000574981
0.000589301
0.000603753
0.000618421
0.000633401
0.000648799
0.000664735
0.000681331
0.000698705
0.000716959
0.000736171
0.00075639
0.000777639
0.000799916
0.000823195
0.000847441
0.000872606
0.00089864
0.000925484
0.000953079
0.000981357
0.00101025
0.00103969
0.00106961
0.00109997
0.00113074
0.00116191
0.00119347
0.0012254
0.00125771
0.00129038
0.00132342
0.0013568
0.00139054
0.00142461
0.00145901
0.00149374
0.00152877
0.00156411
0.00159973
0.00163564
0.0016718
0.00170821
0.00174486
0.00178172
0.00181878
0.00185602
0.00189342
0.00193096
0.00196861
0.00200636
0.00204418
0.00208205
0.00211994
0.00215783
0.00219569
0.0022335
0.00227124
0.00230887
0.00234638
0.00238373
0.00242091
0.00245789
0.00249464
0.00253115
0.00256739
0.00260335
0.00263899
0.0026743
0.00270925
0.00274384
0.00277803
0.0028118
0.00284514
0.00287802
0.00291042
0.00294227
0.00297351
0.00300423
0.00303447
0.00306423
0.00309354
0.00312236
0.0031507
0.00317853
0.00320584
0.0032326
0.00325881
0.00328443
0.00330946
0.00333388
0.00335766
0.0033808
0.00340327
0.00342506
0.00344615
0.00346654
0.0034862
0.00350512
0.00352329
0.00354069
0.00355732
0.00357317
0.00358823
0.00360248
0.00361593
0.00362855
0.00364036
0.00365133
0.00366147
0.00367077
0.00367923
0.00368685
0.00369362
0.00369956
0.00370465
0.00370889
0.00371231
0.00371489
0.00371664
0.00371757
0.00371768
0.00371698
0.00371549
0.00371321
0.00371015
0.00370633
0.00370175
0.00369644
0.0036904
0.00368365
0.00367623
0.00366813
0.00365938
0.00365
0.00364002
0.00362946
0.00361834
0.00360669
0.00359453
0.00358186
0.00356869
0.003555
0.00354071
0.0035257
0.00350992
0.00349344
0.0034764
0.00345891
0.00344107
0.00342294
0.00340458
0.00338603
0.00336731
0.00334835
0.00332893
0.00330848
0.00328552
0.00325721
6.79479e-06
7.92182e-05
0.000165091
0.000234833
0.000288974
0.000331063
0.000364386
0.000391554
0.000414535
0.000434753
0.000453202
0.000470548
0.000487221
0.000503493
0.000519528
0.00053543
0.000551266
0.00056709
0.00058295
0.000598894
0.000614979
0.000631268
0.00064783
0.000664743
0.000682091
0.000699962
0.000718448
0.000737641
0.000757629
0.000778487
0.000800279
0.000823045
0.000846807
0.000871563
0.000897298
0.00092398
0.000951567
0.000980012
0.00100926
0.00103927
0.00106997
0.00110131
0.00113323
0.00116569
0.00119864
0.00123204
0.00126588
0.00130012
0.00133477
0.00136982
0.00140524
0.00144105
0.00147723
0.00151377
0.00155066
0.0015879
0.00162548
0.00166338
0.0017016
0.00174012
0.00177893
0.00181801
0.00185735
0.00189694
0.00193675
0.00197678
0.00201698
0.00205736
0.00209789
0.00213854
0.00217929
0.00222013
0.00226101
0.00230193
0.00234285
0.00238375
0.0024246
0.00246537
0.00250604
0.00254658
0.00258697
0.00262718
0.00266718
0.00270694
0.00274645
0.00278568
0.0028246
0.00286321
0.00290146
0.00293935
0.00297686
0.00301396
0.00305064
0.00308687
0.00312265
0.00315795
0.00319276
0.00322696
0.0032606
0.00329373
0.00332638
0.00335855
0.00339024
0.00342144
0.00345213
0.0034823
0.00351192
0.00354098
0.00356946
0.00359734
0.0036246
0.00365122
0.00367719
0.00370248
0.00372707
0.00375096
0.00377412
0.00379654
0.00381821
0.00383909
0.00385919
0.00387849
0.00389698
0.00391465
0.00393148
0.00394747
0.00396261
0.00397688
0.00399029
0.00400282
0.00401447
0.00402523
0.00403511
0.0040441
0.00405219
0.00405939
0.0040657
0.0040711
0.00407562
0.00407926
0.00408202
0.0040839
0.0040849
0.00408503
0.00408432
0.00408277
0.00408037
0.00407715
0.00407313
0.00406832
0.00406271
0.00405633
0.00404921
0.00404136
0.00403281
0.00402357
0.00401367
0.00400313
0.00399197
0.00398023
0.00396791
0.00395503
0.00394161
0.00392763
0.00391306
0.00389785
0.00388196
0.00386545
0.00384838
0.00383087
0.00381297
0.00379478
0.00377635
0.00375775
0.00373901
0.00372011
0.0037009
0.00368093
0.00365911
0.0036336
7.53591e-06
8.40051e-05
0.000174993
0.000249857
0.000308655
0.000354794
0.000391534
0.000421525
0.000446803
0.000468882
0.000488856
0.000507487
0.000525299
0.000542637
0.000559729
0.000576729
0.000593741
0.000610845
0.000628111
0.000645603
0.000663385
0.000681525
0.000700094
0.000719166
0.000738816
0.000759119
0.000780146
0.000801966
0.000824638
0.00084821
0.000872716
0.000898176
0.000924592
0.000951954
0.000980237
0.00100941
0.00103943
0.00107025
0.00110182
0.0011341
0.00116703
0.00120058
0.00123468
0.00126931
0.00130443
0.00134001
0.00137603
0.00141247
0.00144931
0.00148655
0.00152418
0.00156219
0.00160057
0.00163931
0.0016784
0.00171784
0.0017576
0.00179769
0.00183809
0.00187878
0.00191975
0.001961
0.00200249
0.00204422
0.00208617
0.00212831
0.00217064
0.00221313
0.00225575
0.0022985
0.00234133
0.00238424
0.00242719
0.00247016
0.00251313
0.00255607
0.00259894
0.00264173
0.00268441
0.00272695
0.00276931
0.00281149
0.00285344
0.00289514
0.00293657
0.0029777
0.00301851
0.00305898
0.00309908
0.0031388
0.00317812
0.00321703
0.0032555
0.00329351
0.00333106
0.00336813
0.00340467
0.00344064
0.0034761
0.00351107
0.00354557
0.0035796
0.00361316
0.00364622
0.00367877
0.00371079
0.00374227
0.00377319
0.00380351
0.00383323
0.00386233
0.00389077
0.00391855
0.00394565
0.00397204
0.00399771
0.00402264
0.00404681
0.00407021
0.00409281
0.0041146
0.00413558
0.00415572
0.00417501
0.00419345
0.00421102
0.00422771
0.00424352
0.00425843
0.00427243
0.00428552
0.00429769
0.00430895
0.00431928
0.0043287
0.00433718
0.00434473
0.00435135
0.00435705
0.00436183
0.0043657
0.00436864
0.00437067
0.00437179
0.00437204
0.00437141
0.00436988
0.00436748
0.00436423
0.00436015
0.00435524
0.00434952
0.00434302
0.00433575
0.00432772
0.00431897
0.00430951
0.00429937
0.00428856
0.00427712
0.00426506
0.0042524
0.00423915
0.00422532
0.00421089
0.00419586
0.00418021
0.00416397
0.0041472
0.00412998
0.00411238
0.00409446
0.00407633
0.00405803
0.00403964
0.00402118
0.00400255
0.00398345
0.00396305
0.00394013
8.12333e-06
8.76357e-05
0.000182591
0.000261656
0.000324436
0.000374149
0.000413995
0.00044662
0.000474095
0.000497994
0.000519482
0.000539403
0.000558352
0.000576743
0.000594861
0.000612904
0.00063101
0.000649287
0.000667817
0.000686677
0.000705935
0.000725658
0.000745914
0.000766767
0.00078828
0.000810513
0.00083352
0.00085735
0.00088204
0.00090762
0.000934106
0.000961503
0.000989804
0.00101899
0.00104904
0.00107992
0.00111158
0.001144
0.00117712
0.0012109
0.0012453
0.00128028
0.0013158
0.00135183
0.00138834
0.0014253
0.00146269
0.00150051
0.00153872
0.00157732
0.00161631
0.00165567
0.00169538
0.00173546
0.00177587
0.00181662
0.00185769
0.00189907
0.00194076
0.00198273
0.00202498
0.00206749
0.00211025
0.00215323
0.00219644
0.00223984
0.00228342
0.00232716
0.00237104
0.00241504
0.00245914
0.00250331
0.00254754
0.0025918
0.00263605
0.00268028
0.00272447
0.00276857
0.00281257
0.00285643
0.00290013
0.00294364
0.00298693
0.00302997
0.00307274
0.00311521
0.00315736
0.00319917
0.0032406
0.00328166
0.00332231
0.00336254
0.00340234
0.00344169
0.00348057
0.00351898
0.00355686
0.00359425
0.00363117
0.00366764
0.00370366
0.00373923
0.00377434
0.00380896
0.00384309
0.0038767
0.00390977
0.00394228
0.00397421
0.00400554
0.00403624
0.0040663
0.00409569
0.00412439
0.00415239
0.00417966
0.00420619
0.00423196
0.00425694
0.00428111
0.00430447
0.00432699
0.00434867
0.00436949
0.00438943
0.0044085
0.00442668
0.00444395
0.00446031
0.00447574
0.00449023
0.00450379
0.00451641
0.00452809
0.00453883
0.00454862
0.00455745
0.00456532
0.00457224
0.00457822
0.00458329
0.00458739
0.00459054
0.00459275
0.00459405
0.00459445
0.00459393
0.00459251
0.00459022
0.00458706
0.00458304
0.00457819
0.00457252
0.00456604
0.00455879
0.00455077
0.00454201
0.00453253
0.00452234
0.00451149
0.00449997
0.00448782
0.00447505
0.00446168
0.0044477
0.00443311
0.00441794
0.0044022
0.00438595
0.00436924
0.00435214
0.00433474
0.00431711
0.00429935
0.00428153
0.00426372
0.00424588
0.00422779
0.00420884
0.00418816
8.56181e-06
9.023e-05
0.000188121
0.000270544
0.000336671
0.000389504
0.00043214
0.000467192
0.000496738
0.000522386
0.000545352
0.000566535
0.000586593
0.000605995
0.000625074
0.000644067
0.000663146
0.000682436
0.000702037
0.00072203
0.000742487
0.000763471
0.000785044
0.00080726
0.000830171
0.000853823
0.000878255
0.000903499
0.000929581
0.000956514
0.000984305
0.00101295
0.00104244
0.00107275
0.00110385
0.00113572
0.00116831
0.0012016
0.00123554
0.0012701
0.00130524
0.00134092
0.00137712
0.0014138
0.00145094
0.00148852
0.00152652
0.00156491
0.0016037
0.00164286
0.0016824
0.00172229
0.00176253
0.00180311
0.00184402
0.00188526
0.00192682
0.00196868
0.00201084
0.00205328
0.00209601
0.00213899
0.00218223
0.00222571
0.00226941
0.00231332
0.00235743
0.00240172
0.00244617
0.00249076
0.00253547
0.00258028
0.00262517
0.00267012
0.00271509
0.00276007
0.00280503
0.00284994
0.00289478
0.0029395
0.00298409
0.0030285
0.00307272
0.00311672
0.00316045
0.0032039
0.00324704
0.00328985
0.0033323
0.00337437
0.00341604
0.00345731
0.00349815
0.00353856
0.00357851
0.00361801
0.00365706
0.00369568
0.00373389
0.00377168
0.00380906
0.003846
0.00388251
0.00391855
0.00395412
0.00398918
0.00402372
0.0040577
0.00409112
0.00412394
0.00415614
0.0041877
0.0042186
0.00424882
0.00427833
0.00430712
0.00433517
0.00436245
0.00438895
0.00441463
0.00443949
0.0044635
0.00448667
0.00450896
0.00453037
0.0045509
0.00457052
0.00458925
0.00460703
0.00462388
0.00463977
0.00465471
0.0046687
0.00468173
0.00469383
0.00470496
0.00471509
0.00472425
0.00473245
0.00473968
0.00474596
0.00475127
0.00475562
0.00475902
0.00476149
0.00476302
0.00476362
0.00476332
0.00476211
0.00476002
0.00475705
0.00475322
0.00474855
0.00474305
0.00473674
0.00472964
0.00472177
0.00471315
0.0047038
0.00469374
0.00468299
0.00467158
0.00465952
0.00464682
0.00463351
0.00461959
0.00460508
0.00459001
0.00457443
0.00455839
0.00454196
0.00452522
0.00450826
0.00449118
0.00447408
0.00445704
0.00444007
0.00442303
0.00440544
0.00438665
8.86056e-06
9.19086e-05
0.000191814
0.000276815
0.000345685
0.000401185
0.000446283
0.00048353
0.000514988
0.000542275
0.000566637
0.000589016
0.000610113
0.000630442
0.000650377
0.000670188
0.000690072
0.000710174
0.000730604
0.00075145
0.000772785
0.000794668
0.000817153
0.000840287
0.00086411
0.000888658
0.000913958
0.000940031
0.000966891
0.000994544
0.00102299
0.00105222
0.00108221
0.00111295
0.00114442
0.00117658
0.00120939
0.00124284
0.00127689
0.00131149
0.00134663
0.00138227
0.00141839
0.00145496
0.00149196
0.00152937
0.00156717
0.00160536
0.00164392
0.00168284
0.00172211
0.00176172
0.00180168
0.00184197
0.0018826
0.00192354
0.0019648
0.00200638
0.00204827
0.00209045
0.00213293
0.0021757
0.00221874
0.00226205
0.00230562
0.00234943
0.00239348
0.00243775
0.00248222
0.00252688
0.00257172
0.0026167
0.00266181
0.00270703
0.00275234
0.0027977
0.00284309
0.00288848
0.00293384
0.00297913
0.00302434
0.00306941
0.00311432
0.00315904
0.00320353
0.00324776
0.0032917
0.00333533
0.00337861
0.00342154
0.00346408
0.00350622
0.00354795
0.00358926
0.00363016
0.0036707
0.00371087
0.00375067
0.00379011
0.00382917
0.00386785
0.00390613
0.00394399
0.00398141
0.00401837
0.00405485
0.00409081
0.00412623
0.0041611
0.00419537
0.00422904
0.00426208
0.00429445
0.00432615
0.00435715
0.00438743
0.00441697
0.00444575
0.00447373
0.0045009
0.00452724
0.00455273
0.00457736
0.00460112
0.00462399
0.00464597
0.00466704
0.00468723
0.00470645
0.00472471
0.00474201
0.00475835
0.00477373
0.00478814
0.00480159
0.00481406
0.00482554
0.00483604
0.00484556
0.00485411
0.00486168
0.00486828
0.00487392
0.00487859
0.00488231
0.00488509
0.00488693
0.00488784
0.00488784
0.00488693
0.00488514
0.00488247
0.00487893
0.00487455
0.00486935
0.00486332
0.00485651
0.00484892
0.00484057
0.00483149
0.00482169
0.0048112
0.00480003
0.0047882
0.00477573
0.00476265
0.00474897
0.00473472
0.00471995
0.00470472
0.00468909
0.00467314
0.00465696
0.00464067
0.00462438
0.00460818
0.00459212
0.0045761
0.00455975
0.00454253
9.03264e-06
9.2793e-05
0.000193892
0.000280751
0.000351785
0.000409496
0.000456705
0.000495878
0.000529042
0.000557806
0.00058343
0.000606882
0.000628894
0.000650014
0.000670646
0.000691089
0.000711558
0.000732217
0.000753183
0.00077455
0.000796389
0.000818759
0.000841706
0.000865271
0.000889484
0.000914372
0.000939954
0.000966242
0.000993242
0.00102096
0.00104938
0.00107849
0.00110829
0.00113874
0.00116983
0.00120154
0.00123382
0.00126666
0.00130003
0.00133389
0.00136823
0.00140303
0.00143825
0.00147388
0.00150991
0.00154632
0.0015831
0.00162024
0.00165773
0.00169558
0.00173377