/*--------------------------------*- C++ -*----------------------------------*\
  =========                 |
  \\      /  F ield         | OpenFOAM: The Open Source CFD Toolbox
   \\    /   O peration     | Website:  https://openfoam.org
    \\  /    A nd           | Version:  9
     \\/     M anipulation  |
\*---------------------------------------------------------------------------*/
FoamFile
{
    format      ascii;
    class       surfaceScalarField;
    location    "0.18";
    object      phi;
}
// * * * * * * * * * * * * * * * * * * * * * * * * * * * * * * * * * * * * * //

dimensions      [0 3 -1 0 0 0 0];

internalField   nonuniform List<scalar> 
24170
(
3.1336e-06
5.48072e-08
3.04827e-06
8.53288e-08
2.97314e-06
7.51275e-08
2.9043e-06
6.88412e-08
2.83947e-06
6.4836e-08
2.78224e-06
5.72299e-08
2.73333e-06
4.89099e-08
2.69179e-06
4.15366e-08
2.65633e-06
3.54541e-08
2.6258e-06
3.05398e-08
2.5992e-06
2.65947e-08
2.57575e-06
2.34551e-08
2.55474e-06
2.10029e-08
2.53552e-06
1.92261e-08
2.51742e-06
1.80954e-08
2.49867e-06
1.87557e-08
2.47798e-06
2.06866e-08
3.8092e-08
2.43989e-06
3.45361e-06
1.84453e-08
3.45616e-06
8.27762e-08
3.44962e-06
8.16736e-08
3.43799e-06
8.04648e-08
3.4235e-06
7.93277e-08
3.40596e-06
7.47752e-08
3.38632e-06
6.85452e-08
3.36541e-06
6.24476e-08
3.34399e-06
5.687e-08
3.32268e-06
5.1855e-08
3.30186e-06
4.74107e-08
3.28177e-06
4.35473e-08
3.26252e-06
4.02587e-08
3.24408e-06
3.7657e-08
3.22652e-06
3.56562e-08
3.20967e-06
3.56074e-08
3.19443e-06
3.59279e-08
4.62784e-08
3.18624e-06
3.66535e-06
1.5609e-08
3.67825e-06
6.98781e-08
3.68531e-06
7.46144e-08
3.68959e-06
7.61855e-08
3.69126e-06
7.76576e-08
3.69012e-06
7.59118e-08
3.68667e-06
7.20027e-08
3.68146e-06
6.76505e-08
3.67494e-06
6.33921e-08
3.66745e-06
5.93469e-08
3.65927e-06
5.55917e-08
3.65061e-06
5.22057e-08
3.64162e-06
4.92447e-08
3.63242e-06
4.68607e-08
3.623e-06
4.50797e-08
3.61379e-06
4.48169e-08
3.60445e-06
4.52649e-08
4.99947e-08
3.60073e-06
3.92465e-06
1.63488e-08
3.9358e-06
5.87276e-08
3.94254e-06
6.78725e-08
3.94801e-06
7.07123e-08
3.95242e-06
7.32496e-08
3.95534e-06
7.29965e-08
3.95688e-06
7.04559e-08
3.95736e-06
6.71754e-08
3.95695e-06
6.38006e-08
3.95581e-06
6.04911e-08
3.95406e-06
5.73412e-08
3.95181e-06
5.44525e-08
3.94915e-06
5.1909e-08
3.94615e-06
4.98563e-08
3.94286e-06
4.83742e-08
3.9397e-06
4.79726e-08
3.93669e-06
4.82779e-08
5.02573e-08
3.93642e-06
4.20777e-06
1.5709e-08
4.216e-06
5.0497e-08
4.22166e-06
6.22106e-08
4.22659e-06
6.5783e-08
4.23128e-06
6.85543e-08
4.23524e-06
6.90444e-08
4.23833e-06
6.73662e-08
4.24069e-06
6.48128e-08
4.24243e-06
6.20551e-08
4.24365e-06
5.92775e-08
4.24441e-06
5.65817e-08
4.24478e-06
5.40777e-08
4.24483e-06
5.18608e-08
4.24463e-06
5.0055e-08
4.24426e-06
4.87407e-08
4.24407e-06
4.81669e-08
4.24424e-06
4.81122e-08
4.86207e-08
4.24587e-06
4.51044e-06
1.43568e-08
4.51686e-06
4.40757e-08
4.52217e-06
5.69013e-08
4.52683e-06
6.11264e-08
4.53144e-06
6.39449e-08
4.53562e-06
6.48582e-08
4.5392e-06
6.37881e-08
4.54224e-06
6.17759e-08
4.54481e-06
5.94787e-08
4.54699e-06
5.71044e-08
4.54881e-06
5.47603e-08
4.55033e-06
5.2557e-08
4.5516e-06
5.05891e-08
4.5527e-06
4.89542e-08
4.55373e-06
4.77099e-08
4.55495e-06
4.69517e-08
4.55656e-06
4.65005e-08
4.61201e-08
4.55906e-06
4.83412e-06
1.29563e-08
4.83958e-06
3.86178e-08
4.84483e-06
5.16516e-08
4.84942e-06
5.65391e-08
4.85392e-06
5.9439e-08
4.85814e-06
6.06343e-08
4.8619e-06
6.00289e-08
4.86523e-06
5.84486e-08
4.86819e-06
5.65174e-08
4.87083e-06
5.44651e-08
4.87319e-06
5.24045e-08
4.8753e-06
5.04414e-08
4.87723e-06
4.86635e-08
4.87904e-06
4.71424e-08
4.88084e-06
4.59094e-08
4.88282e-06
4.49743e-08
4.88514e-06
4.4176e-08
4.32483e-08
4.88802e-06
5.1809e-06
1.1637e-08
5.1857e-06
3.38144e-08
5.19084e-06
4.65194e-08
5.19541e-06
5.19632e-08
5.19987e-06
5.49794e-08
5.20413e-06
5.63793e-08
5.208e-06
5.61516e-08
5.21151e-06
5.49411e-08
5.21471e-06
5.33223e-08
5.21763e-06
5.15426e-08
5.22031e-06
4.97202e-08
5.2228e-06
4.79543e-08
5.22514e-06
4.63227e-08
5.22741e-06
4.48766e-08
5.22969e-06
4.36249e-08
5.23213e-06
4.25362e-08
5.23483e-06
4.14704e-08
4.02119e-08
5.23787e-06
5.5526e-06
1.03742e-08
5.55685e-06
2.95659e-08
5.56176e-06
4.16042e-08
5.56633e-06
4.73992e-08
5.57078e-06
5.05269e-08
5.57508e-06
5.20767e-08
5.57907e-06
5.21613e-08
5.58274e-06
5.12792e-08
5.58612e-06
4.99406e-08
5.58926e-06
4.84023e-08
5.59219e-06
4.6788e-08
5.59495e-06
4.51898e-08
5.5976e-06
4.36758e-08
5.6002e-06
4.2282e-08
5.60282e-06
4.10041e-08
5.60556e-06
3.97963e-08
5.60848e-06
3.85449e-08
3.70997e-08
5.61159e-06
5.95099e-06
9.16486e-09
5.95476e-06
2.57953e-08
5.95941e-06
3.69509e-08
5.96394e-06
4.2868e-08
5.96839e-06
4.60739e-08
5.97274e-06
4.77277e-08
5.97684e-06
4.80628e-08
5.98065e-06
4.74692e-08
5.98421e-06
4.63848e-08
5.98754e-06
4.50652e-08
5.99069e-06
4.36378e-08
5.9937e-06
4.21879e-08
5.9966e-06
4.07748e-08
5.99945e-06
3.94251e-08
6.00233e-06
3.81293e-08
6.00528e-06
3.68431e-08
6.00835e-06
3.54807e-08
3.39498e-08
6.0115e-06
6.37795e-06
8.02234e-09
6.38132e-06
2.24251e-08
6.38571e-06
3.25685e-08
6.39018e-06
3.83944e-08
6.39463e-06
4.1626e-08
6.39901e-06
4.33423e-08
6.40321e-06
4.38661e-08
6.40716e-06
4.35167e-08
6.41089e-06
4.266e-08
6.41441e-06
4.15389e-08
6.41777e-06
4.02814e-08
6.42099e-06
3.89669e-08
6.42412e-06
3.76472e-08
6.4272e-06
3.63443e-08
6.43028e-06
3.50493e-08
6.4334e-06
3.37272e-08
6.43656e-06
3.23185e-08
3.07744e-08
6.43973e-06
5.74175e-06
7.10821e-09
5.74433e-06
1.98418e-08
5.74783e-06
2.90711e-08
5.75155e-06
3.4672e-08
5.7553e-06
3.78744e-08
5.75903e-06
3.96149e-08
5.76264e-06
4.02523e-08
5.76609e-06
4.00716e-08
5.76936e-06
3.93853e-08
5.77249e-06
3.84171e-08
5.77548e-06
3.72919e-08
5.77836e-06
3.60849e-08
5.78116e-06
3.48433e-08
5.78392e-06
3.35873e-08
5.78666e-06
3.23114e-08
5.78939e-06
3.09907e-08
5.79213e-06
2.95842e-08
2.80715e-08
5.79483e-06
6.99913e-06
6.13133e-09
7.00186e-06
1.71096e-08
7.00565e-06
2.52867e-08
7.00981e-06
3.05097e-08
7.01409e-06
3.36001e-08
7.01838e-06
3.53226e-08
7.02259e-06
3.60432e-08
7.02664e-06
3.60151e-08
7.03053e-06
3.54962e-08
7.03426e-06
3.46848e-08
7.03786e-06
3.36993e-08
7.04133e-06
3.26101e-08
7.04472e-06
3.146e-08
7.04803e-06
3.02693e-08
7.05131e-06
2.90377e-08
7.05455e-06
2.77519e-08
7.05774e-06
2.63882e-08
2.4948e-08
7.06087e-06
8.53188e-06
5.10088e-09
8.53473e-06
1.4255e-08
8.53878e-06
2.12422e-08
8.54337e-06
2.59137e-08
8.54819e-06
2.87799e-08
8.55309e-06
3.04215e-08
8.55796e-06
3.11778e-08
8.5627e-06
3.12705e-08
8.5673e-06
3.09052e-08
8.57173e-06
3.02486e-08
8.57602e-06
2.94082e-08
8.58018e-06
2.84483e-08
8.58424e-06
2.74082e-08
8.5882e-06
2.6309e-08
8.59208e-06
2.51566e-08
8.59588e-06
2.39483e-08
8.59959e-06
2.26748e-08
2.13519e-08
8.60319e-06
1.04003e-05
4.02738e-09
1.04033e-05
1.12952e-08
1.04075e-05
1.69559e-08
1.04126e-05
2.08896e-08
1.0418e-05
2.33916e-08
1.04235e-05
2.48651e-08
1.04291e-05
2.55918e-08
1.04346e-05
2.57574e-08
1.044e-05
2.55195e-08
1.04452e-05
2.50091e-08
1.04503e-05
2.43173e-08
1.04553e-05
2.35007e-08
1.04601e-05
2.25949e-08
1.04648e-05
2.16213e-08
1.04693e-05
2.05911e-08
1.04738e-05
1.95098e-08
1.04781e-05
1.83779e-08
1.72192e-08
1.04822e-05
1.26779e-05
2.91635e-09
1.2681e-05
8.22173e-09
1.26855e-05
1.24189e-08
1.2691e-05
1.54255e-08
1.2697e-05
1.73999e-08
1.27032e-05
1.8593e-08
1.27096e-05
1.92077e-08
1.2716e-05
1.93849e-08
1.27223e-05
1.92372e-08
1.27284e-05
1.88586e-08
1.27344e-05
1.83182e-08
1.27403e-05
1.76621e-08
1.27459e-05
1.69205e-08
1.27514e-05
1.61135e-08
1.27568e-05
1.52544e-08
1.27619e-05
1.43535e-08
1.27669e-05
1.34163e-08
1.24689e-08
1.27717e-05
1.54543e-05
1.75657e-09
1.54576e-05
4.98336e-09
1.54624e-05
7.56343e-09
1.54684e-05
9.45077e-09
1.54751e-05
1.072e-08
1.54822e-05
1.15011e-08
1.54895e-05
1.19096e-08
1.54968e-05
1.20306e-08
1.55041e-05
1.19315e-08
1.55113e-05
1.16684e-08
1.55184e-05
1.12849e-08
1.55252e-05
1.08116e-08
1.55319e-05
1.02699e-08
1.55383e-05
9.67559e-09
1.55445e-05
9.0406e-09
1.55505e-05
8.37523e-09
1.55562e-05
7.68616e-09
6.99743e-09
1.55617e-05
1.88389e-05
5.06425e-10
1.88424e-05
1.44854e-09
1.88478e-05
2.20275e-09
1.88545e-05
2.759e-09
1.88621e-05
3.13923e-09
1.88702e-05
3.37301e-09
1.88786e-05
3.48295e-09
1.88872e-05
3.48776e-09
1.88957e-05
3.40568e-09
1.89041e-05
3.25296e-09
1.89123e-05
3.04259e-09
1.89204e-05
2.78479e-09
1.89281e-05
2.48801e-09
1.89357e-05
2.15962e-09
1.89429e-05
1.80624e-09
1.89498e-05
1.43458e-09
1.89565e-05
1.04906e-09
6.68733e-10
1.89628e-05
2.29648e-05
-9.4131e-10
2.29689e-05
-2.68477e-09
2.29752e-05
-4.10107e-09
2.29831e-05
-5.14703e-09
2.29921e-05
-5.83927e-09
2.30017e-05
-6.26435e-09
2.30117e-05
-6.51552e-09
2.30219e-05
-6.65146e-09
2.3032e-05
-6.70892e-09
2.3042e-05
-6.71915e-09
2.30517e-05
-6.70739e-09
2.30612e-05
-6.68975e-09
2.30704e-05
-6.67502e-09
2.30792e-05
-6.66777e-09
2.30877e-05
-6.67004e-09
2.30958e-05
-6.68151e-09
2.31035e-05
-6.70205e-09
-6.71946e-09
2.31109e-05
1.68119e-05
-2.08716e-09
1.68151e-05
-5.92068e-09
1.682e-05
-9.03105e-09
1.68261e-05
-1.12737e-08
1.6833e-05
-1.26974e-08
1.68403e-05
-1.35362e-08
1.68478e-05
-1.39938e-08
1.68553e-05
-1.41787e-08
1.68627e-05
-1.41655e-08
1.687e-05
-1.40251e-08
1.68771e-05
-1.38123e-08
1.6884e-05
-1.35613e-08
1.68906e-05
-1.32927e-08
1.6897e-05
-1.30197e-08
1.69031e-05
-1.27506e-08
1.69089e-05
-1.24893e-08
1.69144e-05
-1.22382e-08
-1.19893e-08
1.69197e-05
1.46357e-05
-3.1965e-09
1.46388e-05
-9.08128e-09
1.46437e-05
-1.38572e-08
1.46495e-05
-1.71583e-08
1.4656e-05
-1.91309e-08
1.46627e-05
-2.02495e-08
1.46695e-05
-2.08164e-08
1.46763e-05
-2.09657e-08
1.4683e-05
-2.08173e-08
1.46894e-05
-2.04875e-08
1.46957e-05
-2.00555e-08
1.47017e-05
-1.95665e-08
1.47074e-05
-1.90495e-08
1.47129e-05
-1.85246e-08
1.47182e-05
-1.80046e-08
1.47232e-05
-1.7496e-08
1.4728e-05
-1.7003e-08
-1.65201e-08
1.47325e-05
1.27412e-05
-4.24522e-09
1.27444e-05
-1.2293e-08
1.27494e-05
-1.88165e-08
1.27551e-05
-2.29547e-08
1.27613e-05
-2.52474e-08
1.27676e-05
-2.65394e-08
1.27739e-05
-2.71348e-08
1.27801e-05
-2.71605e-08
1.27861e-05
-2.68082e-08
1.27918e-05
-2.62491e-08
1.27973e-05
-2.55783e-08
1.28026e-05
-2.48452e-08
1.28077e-05
-2.40842e-08
1.28125e-05
-2.33201e-08
1.2817e-05
-2.25677e-08
1.28214e-05
-2.18345e-08
1.28255e-05
-2.11247e-08
-2.04341e-08
1.28294e-05
1.10918e-05
-5.12283e-09
1.10951e-05
-1.56159e-08
1.11004e-05
-2.41133e-08
1.11062e-05
-2.87378e-08
1.11121e-05
-3.10901e-08
1.1118e-05
-3.24598e-08
1.11238e-05
-3.2995e-08
1.11295e-05
-3.28147e-08
1.11349e-05
-3.22108e-08
1.114e-05
-3.13994e-08
1.11449e-05
-3.0478e-08
1.11496e-05
-2.94976e-08
1.1154e-05
-2.8498e-08
1.11582e-05
-2.75067e-08
1.11622e-05
-2.65387e-08
1.11659e-05
-2.56007e-08
1.11695e-05
-2.46959e-08
-2.38209e-08
1.11729e-05
9.65583e-06
-5.73714e-09
9.65935e-06
-1.91406e-08
9.66496e-06
-2.9715e-08
9.67064e-06
-3.44217e-08
9.67628e-06
-3.67296e-08
9.68191e-06
-3.80958e-08
9.68735e-06
-3.84293e-08
9.69248e-06
-3.79496e-08
9.69734e-06
-3.70641e-08
9.70193e-06
-3.59951e-08
9.70628e-06
-3.48227e-08
9.71038e-06
-3.35981e-08
9.71425e-06
-3.23663e-08
9.7179e-06
-3.11565e-08
9.72134e-06
-2.99829e-08
9.72459e-06
-2.88515e-08
9.72766e-06
-2.77635e-08
-2.6714e-08
9.73055e-06
8.40543e-06
-5.81733e-09
8.40981e-06
-2.35155e-08
8.41531e-06
-3.52182e-08
8.4205e-06
-3.96117e-08
8.42593e-06
-4.21592e-08
8.4314e-06
-4.35663e-08
8.43655e-06
-4.35786e-08
8.44131e-06
-4.27077e-08
8.44573e-06
-4.14898e-08
8.44986e-06
-4.01248e-08
8.45371e-06
-3.86701e-08
8.45729e-06
-3.71777e-08
8.46062e-06
-3.56954e-08
8.46372e-06
-3.42522e-08
8.46659e-06
-3.28618e-08
8.46927e-06
-3.153e-08
8.47177e-06
-3.02577e-08
-2.90408e-08
8.47409e-06
7.31506e-06
-3.59028e-09
7.32194e-06
-3.04002e-08
7.32739e-06
-4.06676e-08
7.33216e-06
-4.43787e-08
7.33747e-06
-4.74697e-08
7.34284e-06
-4.89386e-08
7.3478e-06
-4.85381e-08
7.35228e-06
-4.71861e-08
7.35632e-06
-4.553e-08
7.35994e-06
-4.37481e-08
7.36317e-06
-4.18995e-08
7.36604e-06
-4.00474e-08
7.36859e-06
-3.82414e-08
7.37084e-06
-3.65076e-08
7.37284e-06
-3.48575e-08
7.37461e-06
-3.32958e-08
7.37617e-06
-3.18196e-08
-3.04226e-08
7.37755e-06
6.36222e-06
4.2552e-09
6.37294e-06
-4.11244e-08
6.38007e-06
-4.77931e-08
6.38625e-06
-5.05571e-08
6.39222e-06
-5.34364e-08
6.3975e-06
-5.42229e-08
6.40185e-06
-5.28929e-08
6.40543e-06
-5.07583e-08
6.40833e-06
-4.8433e-08
6.41061e-06
-4.60293e-08
6.41233e-06
-4.36148e-08
6.41355e-06
-4.12673e-08
6.41434e-06
-3.90353e-08
6.41477e-06
-3.69383e-08
6.4149e-06
-3.49831e-08
6.41477e-06
-3.31707e-08
6.41444e-06
-3.14928e-08
-2.99291e-08
6.41395e-06
5.53608e-06
1.364e-08
5.54775e-06
-5.27976e-08
5.55744e-06
-5.74783e-08
5.56601e-06
-5.91243e-08
5.57277e-06
-6.02008e-08
5.57719e-06
-5.86404e-08
5.57933e-06
-5.50354e-08
5.57976e-06
-5.11879e-08
5.5789e-06
-4.75724e-08
5.57703e-06
-4.41604e-08
5.57437e-06
-4.09596e-08
5.57111e-06
-3.80074e-08
5.5674e-06
-3.53175e-08
5.56334e-06
-3.28815e-08
5.55904e-06
-3.06851e-08
5.5546e-06
-2.87251e-08
5.5501e-06
-2.69926e-08
-2.54266e-08
5.54559e-06
4.85751e-06
-1.62605e-08
4.86091e-06
-5.61987e-08
4.8615e-06
-5.80703e-08
4.85883e-06
-5.64553e-08
4.85482e-06
-5.61922e-08
4.84813e-06
-5.1943e-08
4.83887e-06
-4.57795e-08
4.82762e-06
-3.99337e-08
4.815e-06
-3.49596e-08
4.80162e-06
-3.07798e-08
4.78792e-06
-2.72584e-08
4.77421e-06
-2.42924e-08
4.76068e-06
-2.17908e-08
4.74747e-06
-1.96747e-08
4.73467e-06
-1.78809e-08
4.72234e-06
-1.63996e-08
4.71061e-06
-1.52573e-08
-1.4947e-08
4.70013e-06
4.18642e-06
4.13022e-06
4.07215e-06
4.01569e-06
3.9595e-06
3.90756e-06
3.86178e-06
3.82184e-06
3.78688e-06
3.7561e-06
3.72885e-06
3.70455e-06
3.68276e-06
3.66309e-06
3.64521e-06
3.62881e-06
3.61355e-06
3.5986e-06
1.0945e-08
-1.0945e-08
2.1816e-08
-1.0871e-08
2.82377e-08
-6.42166e-09
2.93599e-08
-1.12221e-09
2.5548e-08
3.81192e-09
1.76935e-08
7.85446e-09
6.77664e-09
1.09169e-08
-6.37024e-09
1.31469e-08
-2.11554e-08
1.47852e-08
-3.71971e-08
1.60417e-08
-5.42607e-08
1.70635e-08
-7.2208e-08
1.79474e-08
-9.09588e-08
1.87508e-08
-1.10464e-07
1.95054e-08
-1.30692e-07
2.02275e-08
-1.51616e-07
2.09246e-08
-1.73216e-07
2.15996e-08
-1.95469e-07
2.22532e-08
-2.18353e-07
2.28841e-08
-2.41844e-07
2.34904e-08
-2.65912e-07
2.40689e-08
-2.90528e-07
2.46155e-08
-3.15655e-07
2.5127e-08
-3.41257e-07
2.56025e-08
-3.67306e-07
2.60484e-08
-3.93788e-07
2.64817e-08
-4.20716e-07
2.69281e-08
-4.4812e-07
2.74045e-08
-4.76005e-07
2.78851e-08
-5.04305e-07
2.82994e-08
-5.33031e-07
2.87266e-08
-5.62675e-07
2.96436e-08
-5.93637e-07
3.09622e-08
-6.25009e-07
3.13719e-08
-6.56878e-07
3.18686e-08
-6.89527e-07
3.26488e-08
-7.22979e-07
3.34526e-08
-7.57666e-07
3.46866e-08
-7.96004e-07
3.83388e-08
-8.34707e-07
3.87024e-08
-8.76688e-07
4.19816e-08
-9.20823e-07
4.41342e-08
-9.59833e-07
3.90106e-08
-9.97938e-07
3.81045e-08
-1.03706e-06
3.91221e-08
-1.07817e-06
4.11101e-08
-1.12029e-06
4.21208e-08
-1.16306e-06
4.2772e-08
-1.20624e-06
4.31731e-08
-1.24964e-06
4.34081e-08
-1.29317e-06
4.35293e-08
-1.33674e-06
4.35691e-08
-1.38029e-06
4.35473e-08
-1.42377e-06
4.34764e-08
-1.46713e-06
4.33641e-08
-1.51035e-06
4.32148e-08
-1.55338e-06
4.30312e-08
-1.59619e-06
4.28145e-08
-1.63876e-06
4.25651e-08
-1.68104e-06
4.22828e-08
-1.72301e-06
4.19671e-08
-1.76462e-06
4.16172e-08
-1.80585e-06
4.1232e-08
-1.84667e-06
4.08107e-08
-1.88702e-06
4.03522e-08
-1.92687e-06
3.98556e-08
-1.96619e-06
3.93202e-08
-2.00494e-06
3.87451e-08
-2.04307e-06
3.81297e-08
-2.08054e-06
3.74736e-08
-2.11732e-06
3.67766e-08
-2.15336e-06
3.60382e-08
-2.18862e-06
3.52586e-08
-2.22305e-06
3.44379e-08
-2.25663e-06
3.35762e-08
-2.2893e-06
3.26741e-08
-2.32104e-06
3.17318e-08
-2.35179e-06
3.07502e-08
-2.38152e-06
2.97297e-08
-2.41019e-06
2.86712e-08
-2.43776e-06
2.75755e-08
-2.46421e-06
2.64433e-08
-2.48948e-06
2.52755e-08
-2.51355e-06
2.40727e-08
-2.53639e-06
2.28358e-08
-2.55795e-06
2.1565e-08
-2.57821e-06
2.02607e-08
-2.59714e-06
1.89228e-08
-2.61469e-06
1.75509e-08
-2.63083e-06
1.61439e-08
-2.64553e-06
1.47e-08
-2.65875e-06
1.32163e-08
-2.67044e-06
1.16889e-08
-2.68055e-06
1.01106e-08
-2.68902e-06
8.47262e-09
-2.69578e-06
6.7622e-09
-2.70075e-06
4.96286e-09
-2.70381e-06
3.06548e-09
-2.70487e-06
1.0577e-09
-2.70402e-06
-8.44903e-10
-2.70153e-06
-2.49467e-09
-2.69746e-06
-4.07297e-09
-2.69183e-06
-5.62743e-09
-2.68465e-06
-7.17853e-09
-2.67592e-06
-8.73502e-09
-2.66562e-06
-1.02983e-08
-2.65375e-06
-1.18674e-08
-2.64031e-06
-1.34407e-08
-2.62529e-06
-1.50163e-08
-2.6087e-06
-1.65921e-08
-2.59053e-06
-1.81658e-08
-2.5708e-06
-1.97355e-08
-2.5495e-06
-2.1299e-08
-2.52665e-06
-2.28541e-08
-2.50225e-06
-2.43989e-08
-2.47632e-06
-2.59312e-08
-2.44887e-06
-2.7449e-08
-2.41992e-06
-2.89501e-08
-2.38948e-06
-3.04326e-08
-2.35759e-06
-3.18943e-08
-2.32426e-06
-3.33333e-08
-2.28951e-06
-3.47478e-08
-2.25337e-06
-3.61356e-08
-2.21588e-06
-3.74952e-08
-2.17705e-06
-3.88247e-08
-2.13693e-06
-4.01223e-08
-2.09554e-06
-4.13865e-08
-2.05293e-06
-4.26156e-08
-2.00912e-06
-4.38079e-08
-1.96416e-06
-4.49619e-08
-1.91808e-06
-4.60762e-08
-1.87093e-06
-4.71495e-08
-1.82275e-06
-4.81805e-08
-1.77358e-06
-4.91683e-08
-1.72347e-06
-5.01117e-08
-1.67246e-06
-5.10099e-08
-1.6206e-06
-5.18618e-08
-1.56793e-06
-5.26668e-08
-1.51451e-06
-5.34243e-08
-1.46038e-06
-5.41341e-08
-1.40558e-06
-5.47958e-08
-1.35017e-06
-5.54092e-08
-1.2942e-06
-5.59742e-08
-1.23771e-06
-5.64909e-08
-1.18075e-06
-5.69597e-08
-1.12337e-06
-5.73812e-08
-1.06561e-06
-5.77559e-08
-1.00753e-06
-5.80844e-08
-9.49157e-07
-5.83679e-08
-8.9055e-07
-5.86075e-08
-8.31745e-07
-5.88044e-08
-7.72785e-07
-5.896e-08
-7.13709e-07
-5.90761e-08
-6.54555e-07
-5.91543e-08
-5.95359e-07
-5.91964e-08
-5.36154e-07
-5.92043e-08
-4.76974e-07
-5.918e-08
-4.17849e-07
-5.9125e-08
-3.58809e-07
-5.90405e-08
-2.99881e-07
-5.89274e-08
-2.41096e-07
-5.87854e-08
-1.82487e-07
-5.86092e-08
-1.24084e-07
-5.84029e-08
-6.59201e-08
-5.81637e-08
-8.04122e-09
-5.78789e-08
4.95161e-08
-5.75573e-08
1.06723e-07
-5.72071e-08
1.63586e-07
-5.68624e-08
2.20128e-07
-5.65421e-08
2.76362e-07
-5.62346e-08
3.32282e-07
-5.59202e-08
3.87856e-07
-5.55733e-08
4.4301e-07
-5.51548e-08
4.97608e-07
-5.45973e-08
5.51378e-07
-5.37698e-08
6.03782e-07
-5.24045e-08
6.53597e-07
-4.98151e-08
6.97949e-07
-4.43515e-08
7.29164e-07
-3.1215e-08
9.17907e-09
7.19985e-07
6.13197e-09
-1.7077e-08
6.60626e-09
-1.13453e-08
3.08928e-09
-2.90468e-09
-3.10364e-09
5.07071e-09
-1.15504e-08
1.22587e-08
-2.21606e-08
1.84646e-08
-3.4863e-08
2.36193e-08
-4.95087e-08
2.77926e-08
-6.58748e-08
3.11512e-08
-8.37243e-08
3.38912e-08
-1.02849e-07
3.61884e-08
-1.23084e-07
3.81818e-08
-1.44305e-07
3.99717e-08
-1.66425e-07
4.16262e-08
-1.89387e-07
4.31893e-08
-2.13152e-07
4.4689e-08
-2.37694e-07
4.61424e-08
-2.63002e-07
4.75604e-08
-2.89068e-07
4.89499e-08
-3.15893e-07
5.03156e-08
-3.43485e-07
5.16616e-08
-3.71862e-07
5.29924e-08
-4.01051e-07
5.43153e-08
-4.3109e-07
5.56425e-08
-4.62035e-07
5.69933e-08
-4.93948e-07
5.83942e-08
-5.26892e-07
5.98723e-08
-5.60928e-07
6.14409e-08
-5.96124e-07
6.30803e-08
-6.32575e-07
6.47505e-08
-6.70337e-07
6.64889e-08
-7.0915e-07
6.84562e-08
-7.48778e-07
7.05905e-08
-7.89887e-07
7.24811e-08
-8.322e-07
7.41813e-08
-8.75425e-07
7.5874e-08
-9.19459e-07
7.74862e-08
-9.63951e-07
7.91786e-08
-1.00669e-06
8.10762e-08
-1.0504e-06
8.24164e-08
-1.09205e-06
8.36258e-08
-1.13239e-06
8.44788e-08
-1.17675e-06
8.33734e-08
-1.22136e-06
8.27147e-08
-1.26496e-06
8.27216e-08
-1.30695e-06
8.30998e-08
-1.34818e-06
8.33464e-08
-1.38886e-06
8.34577e-08
-1.42914e-06
8.34489e-08
-1.46907e-06
8.33355e-08
-1.50867e-06
8.31335e-08
-1.54796e-06
8.28556e-08
-1.58692e-06
8.25111e-08
-1.62555e-06
8.21065e-08
-1.66383e-06
8.16459e-08
-1.70175e-06
8.11313e-08
-1.73928e-06
8.05633e-08
-1.77641e-06
7.99418e-08
-1.81311e-06
7.92656e-08
-1.84936e-06
7.85333e-08
-1.88514e-06
7.77431e-08
-1.92041e-06
7.6893e-08
-1.95516e-06
7.59811e-08
-1.98936e-06
7.50055e-08
-2.02297e-06
7.39644e-08
-2.05597e-06
7.28561e-08
-2.08833e-06
7.16793e-08
-2.12002e-06
7.04327e-08
-2.151e-06
6.91153e-08
-2.18125e-06
6.77265e-08
-2.21074e-06
6.62656e-08
-2.23944e-06
6.47326e-08
-2.26731e-06
6.31274e-08
-2.29432e-06
6.14502e-08
-2.32044e-06
5.97016e-08
-2.34565e-06
5.78822e-08
-2.36991e-06
5.59928e-08
-2.3932e-06
5.40345e-08
-2.41548e-06
5.20084e-08
-2.43672e-06
4.99157e-08
-2.4569e-06
4.77579e-08
-2.476e-06
4.55361e-08
-2.49397e-06
4.32519e-08
-2.51081e-06
4.09064e-08
-2.52647e-06
3.85009e-08
-2.54094e-06
3.60363e-08
-2.5542e-06
3.35136e-08
-2.56621e-06
3.09331e-08
-2.57695e-06
2.82952e-08
-2.58641e-06
2.55997e-08
-2.59455e-06
2.28462e-08
-2.60137e-06
2.0034e-08
-2.60684e-06
1.71625e-08
-2.61096e-06
1.42312e-08
-2.61373e-06
1.12412e-08
-2.61517e-06
8.19622e-09
-2.61531e-06
5.10672e-09
-2.61425e-06
2.00208e-09
-2.6121e-06
-1.08648e-09
-2.60881e-06
-4.13929e-09
-2.60416e-06
-7.14596e-09
-2.59806e-06
-1.01736e-08
-2.59046e-06
-1.32221e-08
-2.58135e-06
-1.629e-08
-2.57071e-06
-1.93764e-08
-2.55853e-06
-2.24787e-08
-2.5448e-06
-2.55934e-08
-2.52953e-06
-2.87167e-08
-2.5127e-06
-3.18444e-08
-2.49432e-06
-3.49722e-08
-2.47439e-06
-3.80959e-08
-2.45291e-06
-4.12114e-08
-2.4299e-06
-4.43143e-08
-2.40535e-06
-4.74006e-08
-2.37928e-06
-5.0466e-08
-2.35171e-06
-5.35065e-08
-2.32264e-06
-5.6518e-08
-2.29209e-06
-5.94963e-08
-2.26009e-06
-6.24373e-08
-2.22665e-06
-6.53371e-08
-2.19179e-06
-6.81916e-08
-2.15554e-06
-7.09969e-08
-2.11792e-06
-7.37494e-08
-2.07897e-06
-7.64454e-08
-2.03872e-06
-7.90814e-08
-1.99719e-06
-8.1654e-08
-1.95441e-06
-8.41599e-08
-1.91043e-06
-8.65959e-08
-1.86528e-06
-8.89586e-08
-1.819e-06
-9.1245e-08
-1.77162e-06
-9.34523e-08
-1.72319e-06
-9.55777e-08
-1.67376e-06
-9.76191e-08
-1.62335e-06
-9.95741e-08
-1.57202e-06
-1.01441e-07
-1.51981e-06
-1.03217e-07
-1.46677e-06
-1.04902e-07
-1.41295e-06
-1.06493e-07
-1.35838e-06
-1.07989e-07
-1.30313e-06
-1.0939e-07
-1.24723e-06
-1.10696e-07
-1.19073e-06
-1.11905e-07
-1.13369e-06
-1.13018e-07
-1.07614e-06
-1.14034e-07
-1.01815e-06
-1.14956e-07
-9.59745e-07
-1.15783e-07
-9.00984e-07
-1.16516e-07
-8.41911e-07
-1.17158e-07
-7.82568e-07
-1.1771e-07
-7.23e-07
-1.18175e-07
-6.6325e-07
-1.18555e-07
-6.03357e-07
-1.18853e-07
-5.43362e-07
-1.19072e-07
-4.83301e-07
-1.19215e-07
-4.2321e-07
-1.19287e-07
-3.63124e-07
-1.19291e-07
-3.03072e-07
-1.19231e-07
-2.43087e-07
-1.19111e-07
-1.83195e-07
-1.18932e-07
-1.23424e-07
-1.18698e-07
-6.38003e-08
-1.18409e-07
-4.34856e-09
-1.18061e-07
5.4903e-08
-1.17654e-07
1.13928e-07
-1.17188e-07
1.72712e-07
-1.16663e-07
2.31246e-07
-1.16092e-07
2.89531e-07
-1.15492e-07
3.47564e-07
-1.14895e-07
4.05338e-07
-1.14316e-07
4.62842e-07
-1.13739e-07
5.20058e-07
-1.13136e-07
5.76942e-07
-1.12457e-07
6.33415e-07
-1.11628e-07
6.89329e-07
-1.10512e-07
7.44415e-07
-1.08856e-07
7.98173e-07
-1.06163e-07
8.4963e-07
-1.01271e-07
8.9716e-07
-9.1882e-08
9.37462e-07
-7.15171e-08
-2.4002e-08
9.70644e-07
-2.21389e-09
-1.48631e-08
-9.41104e-09
-4.14816e-09
-1.87182e-08
6.4025e-09
-2.9396e-08
1.57485e-08
-4.12487e-08
2.41114e-08
-5.43006e-08
3.15165e-08
-6.86426e-08
3.79614e-08
-8.43389e-08
4.34888e-08
-1.01387e-07
4.81997e-08
-1.19728e-07
5.22319e-08
-1.39271e-07
5.57314e-08
-1.59921e-07
5.88314e-08
-1.8159e-07
6.16416e-08
-2.04211e-07
6.42466e-08
-2.2773e-07
6.67085e-08
-2.52113e-07
6.90716e-08
-2.77337e-07
7.13669e-08
-3.03394e-07
7.3617e-08
-3.30282e-07
7.5838e-08
-3.58009e-07
7.8043e-08
-3.86591e-07
8.02431e-08
-4.16048e-07
8.24498e-08
-4.46409e-07
8.46757e-08
-4.77702e-07
8.69363e-08
-5.09958e-07
8.9249e-08
-5.43195e-07
9.16309e-08
-5.77415e-07
9.40923e-08
-6.126e-07
9.66265e-08
-6.48725e-07
9.92049e-08
-6.85762e-07
1.01788e-07
-7.2363e-07
1.04357e-07
-7.62083e-07
1.06909e-07
-8.00873e-07
1.09381e-07
-8.40029e-07
1.11636e-07
-8.79472e-07
1.13625e-07
-9.18996e-07
1.15398e-07
-9.58463e-07
1.16953e-07
-9.9761e-07
1.18325e-07
-1.036e-06
1.19469e-07
-1.07391e-06
1.20328e-07
-1.11113e-06
1.20842e-07
-1.14763e-06
1.20982e-07
-1.18491e-06
1.20647e-07
-1.22242e-06
1.20226e-07
-1.25962e-06
1.19926e-07
-1.29623e-06
1.1971e-07
-1.33237e-06
1.19484e-07
-1.36813e-06
1.19216e-07
-1.40357e-06
1.18891e-07
-1.43874e-06
1.185e-07
-1.47364e-06
1.18042e-07
-1.50831e-06
1.17518e-07
-1.54272e-06
1.16927e-07
-1.57689e-06
1.16271e-07
-1.61079e-06
1.15548e-07
-1.64442e-06
1.14758e-07
-1.67775e-06
1.13898e-07
-1.71077e-06
1.12966e-07
-1.74347e-06
1.11958e-07
-1.77581e-06
1.10873e-07
-1.80777e-06
1.09706e-07
-1.83933e-06
1.08455e-07
-1.87047e-06
1.07116e-07
-1.90115e-06
1.05686e-07
-1.93134e-06
1.04163e-07
-1.96103e-06
1.02544e-07
-1.99018e-06
1.00827e-07
-2.01876e-06
9.90098e-08
-2.04673e-06
9.70916e-08
-2.07408e-06
9.50709e-08
-2.10076e-06
9.2947e-08
-2.12674e-06
9.07195e-08
-2.15201e-06
8.83882e-08
-2.17651e-06
8.59534e-08
-2.20022e-06
8.34157e-08
-2.22312e-06
8.07759e-08
-2.24516e-06
7.80352e-08
-2.26632e-06
7.51948e-08
-2.28657e-06
7.22564e-08
-2.30587e-06
6.92217e-08
-2.32421e-06
6.60925e-08
-2.34154e-06
6.28709e-08
-2.35785e-06
5.95589e-08
-2.3731e-06
5.61585e-08
-2.38727e-06
5.26717e-08
-2.40034e-06
4.91003e-08
-2.41227e-06
4.54463e-08
-2.42305e-06
4.17112e-08
-2.43265e-06
3.78966e-08
-2.44105e-06
3.40041e-08
-2.44824e-06
3.00351e-08
-2.4542e-06
2.59916e-08
-2.45891e-06
2.18764e-08
-2.46238e-06
1.76931e-08
-2.46458e-06
1.34479e-08
-2.46554e-06
9.14951e-09
-2.46524e-06
4.8117e-09
-2.46369e-06
4.48913e-10
-2.46086e-06
-3.91742e-09
-2.45669e-06
-8.30188e-09
-2.45112e-06
-1.2715e-08
-2.44413e-06
-1.71725e-08
-2.43568e-06
-2.16717e-08
-2.42576e-06
-2.62078e-08
-2.41436e-06
-3.07753e-08
-2.40147e-06
-3.53682e-08
-2.38708e-06
-3.99803e-08
-2.37119e-06
-4.46055e-08
-2.3538e-06
-4.92374e-08
-2.3349e-06
-5.38696e-08
-2.3145e-06
-5.8496e-08
-2.2926e-06
-6.31101e-08
-2.26921e-06
-6.77057e-08
-2.24434e-06
-7.22767e-08
-2.21799e-06
-7.68169e-08
-2.19017e-06
-8.13202e-08
-2.16091e-06
-8.57806e-08
-2.13021e-06
-9.01918e-08
-2.0981e-06
-9.45479e-08
-2.0646e-06
-9.88429e-08
-2.02972e-06
-1.03071e-07
-1.99349e-06
-1.07226e-07
-1.95594e-06
-1.11302e-07
-1.91709e-06
-1.15295e-07
-1.87697e-06
-1.19199e-07
-1.83561e-06
-1.23009e-07
-1.79305e-06
-1.2672e-07
-1.74932e-06
-1.30327e-07
-1.70446e-06
-1.33825e-07
-1.65849e-06
-1.3721e-07
-1.61147e-06
-1.40478e-07
-1.56342e-06
-1.43624e-07
-1.5144e-06
-1.46645e-07
-1.46443e-06
-1.49538e-07
-1.41357e-06
-1.523e-07
-1.36186e-06
-1.54928e-07
-1.30934e-06
-1.57419e-07
-1.25607e-06
-1.59772e-07
-1.20207e-06
-1.61984e-07
-1.14741e-06
-1.64054e-07
-1.09212e-06
-1.65982e-07
-1.03626e-06
-1.67768e-07
-9.79868e-07
-1.6941e-07
-9.22993e-07
-1.70909e-07
-8.65682e-07
-1.72267e-07
-8.07981e-07
-1.73484e-07
-7.49934e-07
-1.74563e-07
-6.91586e-07
-1.75506e-07
-6.32981e-07
-1.76316e-07
-5.74161e-07
-1.76995e-07
-5.15167e-07
-1.77549e-07
-4.56038e-07
-1.77981e-07
-3.96814e-07
-1.78296e-07
-3.3753e-07
-1.78499e-07
-2.78221e-07
-1.78596e-07
-2.18919e-07
-1.78593e-07
-1.59655e-07
-1.78495e-07
-1.00458e-07
-1.78308e-07
-4.13549e-08
-1.78036e-07
1.76303e-08
-1.77683e-07
7.64724e-08
-1.77251e-07
1.3515e-07
-1.76739e-07
1.93645e-07
-1.76149e-07
2.5194e-07
-1.75484e-07
3.10037e-07
-1.74759e-07
3.67941e-07
-1.73996e-07
4.25658e-07
-1.73208e-07
4.83171e-07
-1.72408e-07
5.40461e-07
-1.71606e-07
5.97508e-07
-1.70786e-07
6.54285e-07
-1.69913e-07
7.10746e-07
-1.68919e-07
7.66812e-07
-1.67693e-07
8.22343e-07
-1.66043e-07
8.771e-07
-1.63613e-07
9.30679e-07
-1.59741e-07
9.82444e-07
-1.53037e-07
1.03149e-06
-1.40926e-07
1.07731e-06
-1.17342e-07
-7.07865e-08
1.1241e-06
-8.88244e-09
-5.98066e-09
-2.11794e-08
8.14881e-09
-3.45036e-08
1.97266e-08
-4.84311e-08
2.9676e-08
-6.29252e-08
3.86056e-08
-7.8073e-08
4.66642e-08
-9.40035e-08
5.38919e-08
-1.10837e-07
6.0322e-08
-1.28653e-07
6.60163e-08
-1.47487e-07
7.10655e-08
-1.67333e-07
7.55772e-08
-1.88162e-07
7.96605e-08
-2.09935e-07
8.34149e-08
-2.32613e-07
8.69243e-08
-2.5616e-07
9.02562e-08
-2.80551e-07
9.34623e-08
-3.05766e-07
9.65819e-08
-3.31794e-07
9.96443e-08
-3.58627e-07
1.02671e-07
-3.86264e-07
1.0568e-07
-4.14704e-07
1.08684e-07
-4.43948e-07
1.11693e-07
-4.7399e-07
1.14718e-07
-5.04819e-07
1.17766e-07
-5.36412e-07
1.20842e-07
-5.68727e-07
1.23946e-07
-6.01701e-07
1.27066e-07
-6.35254e-07
1.30179e-07
-6.69294e-07
1.33245e-07
-7.03722e-07
1.36216e-07
-7.38418e-07
1.39053e-07
-7.73225e-07
1.41716e-07
-8.08e-07
1.44155e-07
-8.42678e-07
1.46315e-07
-8.77226e-07
1.48173e-07
-9.1157e-07
1.49742e-07
-9.4565e-07
1.51032e-07
-9.79382e-07
1.52058e-07
-1.01274e-06
1.52828e-07
-1.04575e-06
1.53332e-07
-1.07847e-06
1.53563e-07
-1.111e-06
1.53518e-07
-1.14358e-06
1.53228e-07
-1.17619e-06
1.52832e-07
-1.20869e-06
1.52425e-07
-1.241e-06
1.52019e-07
-1.27311e-06
1.51596e-07
-1.30503e-06
1.51141e-07
-1.33678e-06
1.5064e-07
-1.36837e-06
1.50083e-07
-1.39979e-06
1.49465e-07
-1.43105e-06
1.4878e-07
-1.46215e-06
1.48024e-07
-1.49307e-06
1.47193e-07
-1.52381e-06
1.46284e-07
-1.55434e-06
1.45293e-07
-1.58466e-06
1.44214e-07
-1.61473e-06
1.43043e-07
-1.64455e-06
1.41775e-07
-1.67409e-06
1.40407e-07
-1.70331e-06
1.38933e-07
-1.73221e-06
1.37348e-07
-1.76074e-06
1.35649e-07
-1.78888e-06
1.33832e-07
-1.81661e-06
1.31892e-07
-1.8439e-06
1.29827e-07
-1.8707e-06
1.27633e-07
-1.897e-06
1.25309e-07
-1.92276e-06
1.22852e-07
-1.94795e-06
1.20262e-07
-1.97254e-06
1.17536e-07
-1.9965e-06
1.14674e-07
-2.01978e-06
1.11676e-07
-2.04237e-06
1.08543e-07
-2.06423e-06
1.05275e-07
-2.08533e-06
1.01873e-07
-2.10563e-06
9.83381e-08
-2.12511e-06
9.46728e-08
-2.14373e-06
9.0879e-08
-2.16147e-06
8.69588e-08
-2.17829e-06
8.29148e-08
-2.19417e-06
7.87495e-08
-2.20908e-06
7.44658e-08
-2.22299e-06
7.00666e-08
-2.23587e-06
6.55547e-08
-2.2477e-06
6.09331e-08
-2.25846e-06
5.62045e-08
-2.26812e-06
5.1372e-08
-2.27666e-06
4.64383e-08
-2.28406e-06
4.14063e-08
-2.29031e-06
3.62791e-08
-2.29538e-06
3.10604e-08
-2.29926e-06
2.57545e-08
-2.30193e-06
2.03668e-08
-2.30339e-06
1.4904e-08
-2.30361e-06
9.37448e-09
-2.30259e-06
3.78778e-09
-2.30029e-06
-1.84748e-09
-2.29668e-06
-7.52497e-09
-2.29173e-06
-1.32515e-08
-2.28541e-06
-1.90364e-08
-2.2777e-06
-2.48835e-08
-2.26858e-06
-3.07879e-08
-2.25805e-06
-3.67427e-08
-2.24608e-06
-4.27401e-08
-2.23268e-06
-4.87717e-08
-2.21783e-06
-5.48292e-08
-2.20153e-06
-6.09041e-08
-2.18378e-06
-6.6988e-08
-2.16458e-06
-7.30726e-08
-2.14393e-06
-7.91495e-08
-2.12183e-06
-8.52105e-08
-2.09828e-06
-9.12473e-08
-2.07331e-06
-9.72518e-08
-2.04691e-06
-1.03216e-07
-2.0191e-06
-1.09132e-07
-1.98989e-06
-1.14991e-07
-1.95929e-06