/*--------------------------------*- C++ -*----------------------------------*\
  =========                 |
  \\      /  F ield         | OpenFOAM: The Open Source CFD Toolbox
   \\    /   O peration     | Website:  https://openfoam.org
    \\  /    A nd           | Version:  9
     \\/     M anipulation  |
\*---------------------------------------------------------------------------*/
FoamFile
{
    format      ascii;
    class       volScalarField;
    location    "0.27";
    object      epsilon;
}
// * * * * * * * * * * * * * * * * * * * * * * * * * * * * * * * * * * * * * //

dimensions      [0 2 -3 0 0 0 0];

internalField   nonuniform List<scalar> 
12225
(
278.515
263.66
249.434
236.839
226.738
219.483
215.069
213.262
213.704
215.988
219.71
224.499
230.037
236.058
242.362
248.78
255.345
264.85
61.116
86.6952
97.9911
107.207
118.464
132.555
149.408
168.607
189.571
211.673
234.323
257.009
279.328
300.98
321.872
341.839
362.39
380.915
25.2776
36.183
43.3817
48.6211
53.386
58.3357
63.7697
69.8241
76.5239
83.8208
91.6246
99.8258
108.313
116.986
125.776
134.664
143.796
153.164
17.5217
21.2986
24.7145
27.6099
30.1618
32.5398
34.8663
37.2274
39.6763
42.2394
44.9243
47.7264
50.6346
53.6365
56.7231
59.9019
63.1908
66.6155
15.4878
16.7519
18.1858
19.5889
20.9094
22.1489
23.3262
24.465
25.5861
26.7046
27.8305
28.9694
30.1241
31.296
32.4867
33.701
34.9438
36.2115
14.9084
15.2396
15.7463
16.334
16.9476
17.5589
18.1557
18.7355
19.3
19.8524
20.3959
20.9331
21.4662
21.9969
22.527
23.0587
23.5937
24.1263
14.7451
14.7391
14.8342
15.0036
15.2215
15.4679
15.7285
15.9948
16.2619
16.5273
16.79
17.0497
17.3062
17.56
17.8116
18.0616
18.3105
18.5541
14.7012
14.5825
14.5116
14.4858
14.4981
14.5403
14.6043
14.6837
14.7736
14.8707
14.9724
15.0771
15.1836
15.2911
15.3994
15.5081
15.617
15.7235
14.6901
14.5373
14.407
14.3009
14.2182
14.1571
14.1145
14.0875
14.0732
14.0692
14.0735
14.0844
14.1006
14.1211
14.1451
14.1721
14.2015
14.2317
14.6874
14.5252
14.3761
14.2411
14.1204
14.0137
13.9203
13.8391
13.7688
13.7083
13.6564
13.6119
13.574
13.5418
13.5147
13.4919
13.473
13.4572
14.6868
14.5221
14.3677
14.2236
14.0896
13.9656
13.8512
13.746
13.6495
13.5611
13.4801
13.4061
13.3383
13.2764
13.2197
13.1678
13.1203
13.0771
14.6866
14.5213
14.3656
14.219
14.0812
13.9518
13.8305
13.7169
13.6105
13.5111
13.4182
13.3314
13.2504
13.1747
13.104
13.038
12.9764
12.9194
14.6865
14.521
14.3648
14.2175
14.0785
13.9473
13.8234
13.7065
13.5963
13.4922
13.3941
13.3016
13.2143
13.1319
13.0543
12.9811
12.912
12.8476
14.6864
14.5208
14.3645
14.2169
14.0774
13.9456
13.8209
13.7029
13.5913
13.4855
13.3853
13.2904
13.2005
13.1153
13.0345
12.9579
12.8853
12.8172
14.6864
14.5207
14.3643
14.2165
14.0769
13.9449
13.8199
13.7016
13.5895
13.4832
13.3824
13.2868
13.196
13.1098
13.0279
12.9501
12.8762
12.8068
14.6863
14.5206
14.3641
14.2163
14.0766
13.9444
13.8194
13.7009
13.5886
13.4822
13.3812
13.2854
13.1943
13.1079
13.0257
12.9475
12.8732
12.8034
14.6863
14.5205
14.364
14.2161
14.0763
13.9441
13.8189
13.7004
13.5881
13.4815
13.3805
13.2845
13.1934
13.1068
13.0245
12.9462
12.8718
12.8018
14.6863
14.5204
14.3639
14.216
14.0761
13.9439
13.8186
13.7001
13.5877
13.4811
13.3799
13.2839
13.1927
13.1061
13.0237
12.9454
12.8709
12.8008
14.6863
14.5204
14.3639
14.2159
14.0761
13.9438
13.8185
13.6999
13.5875
13.4809
13.3797
13.2837
13.1924
13.1057
13.0233
12.9449
12.8704
12.8002
14.6863
14.5205
14.3639
14.216
14.0762
13.9439
13.8187
13.7001
13.5877
13.4811
13.38
13.284
13.1928
13.1061
13.0237
12.9453
12.8709
12.8007
14.6863
14.5205
14.364
14.2162
14.0764
13.9443
13.8192
13.7007
13.5885
13.4821
13.3812
13.2854
13.1945
13.1082
13.0262
12.9482
12.8742
12.8046
14.6863
14.5206
14.3643
14.2167
14.0773
13.9457
13.8214
13.7039
13.5928
13.4878
13.3886
13.2947
13.2059
13.1218
13.0423
12.9669
12.8956
12.8288
14.6865
14.5212
14.3659
14.2202
14.0837
13.956
13.8368
13.7255
13.6218
13.525
13.4348
13.3506
13.272
13.1986
13.13
13.0659
13.006
12.9505
14.6876
14.5264
14.3793
14.2467
14.1282
14.0231
13.9302
13.8484
13.7762
13.7126
13.6565
13.6068
13.5628
13.5237
13.489
13.4581
13.4306
13.4066
14.6976
14.5664
14.4707
14.4075
14.3715
14.3568
14.3585
14.372
14.3941
14.4224
14.4551
14.4908
14.5287
14.5681
14.6085
14.6497
14.6914
14.7334
14.7737
14.8187
14.9603
15.1591
15.3863
15.6233
15.8598
16.0905
16.3135
16.5284
16.7359
16.9366
17.1313
17.3211
17.5066
17.6884
17.8669
18.0419
15.2587
16.1151
17.0712
17.9727
18.7879
19.5239
20.1945
20.8149
21.3989
21.9574
22.4988
23.0292
23.5529
24.0728
24.5905
25.107
25.6225
26.1345
18.0414
22.0079
24.9885
27.1533
28.8884
30.405
31.8126
33.1787
34.5441
35.9314
37.3518
38.8089
40.302
41.827
43.3783
44.9497
46.5346
48.1199
34.024
45.6879
51.3769
54.9426
58.0812
61.2985
64.7516
68.4843
72.4807
76.6979
81.0855
85.5939
90.1765
94.7917
99.4036
103.983
108.515
112.972
163.308
157.417
151.704
146.261
141.3
136.947
133.25
130.206
127.781
125.919
124.559
123.638
123.094
122.871
122.918
123.188
123.643
124.244
0.190189
0.237257
0.394253
0.532347
0.672639
0.840225
1.03523
1.26382
1.5329
1.84025
2.16563
2.5098
2.87047
3.24462
3.6292
4.02127
4.41802
4.81674
5.21478
5.60947
5.9982
6.3783
6.74707
7.10178
7.43971
7.75822
8.05478
8.32705
8.57265
8.78882
8.97167
9.11511
9.20984
9.24713
9.23631
9.16711
9.37182
9.33761
9.39711
9.32803
9.37751
9.48381
40.6929
41.3008
42.4164
45.3563
48.5393
51.9037
55.442
59.1519
63.0327
67.0851
71.3104
75.7105
80.2874
85.0432
89.98
95.0998
100.404
105.895
111.574
117.441
123.498
129.745
136.181
142.806
149.62
156.621
163.806
171.175
178.723
186.449
194.347
202.415
210.646
219.036
227.58
236.271
245.103
254.069
263.161
272.372
281.694
291.119
300.636
310.238
319.914
329.655
339.45
349.289
359.16
369.051
378.952
388.849
398.732
408.589
418.412
428.2
437.962
447.728
457.473
467.087
476.569
485.912
495.102
504.126
512.966
521.608
530.036
538.234
546.187
553.88
561.299
568.43
575.259
581.773
587.959
593.807
599.304
604.44
609.207
613.595
617.597
621.204
624.412
627.216
629.61
631.591
633.157
634.307
635.04
635.358
635.261
634.753
633.838
632.519
630.802
628.695
626.204
623.338
620.106
616.519
612.586
608.321
603.733
598.838
593.647
588.176
582.438
576.448
570.221
563.773
557.119
550.276
543.259
536.083
528.768
521.325
513.774
506.131
498.397
490.624
482.783
474.945
467.188
460.363
457.153
454.495
451.855
449.203
446.542
443.868
441.176
438.444
435.627
432.622
429.196
424.744
417.789
401.874
0.733291
0.461421
0.476207
0.546816
0.651045
0.784114
0.944366
1.13283
1.34918
1.59096
1.85418
2.13617
2.4347
2.74777
3.07355
3.41038
3.75674
4.11123
4.47262
4.83988
5.21221
5.58916
5.97073
6.35752
6.75093
7.15345
7.56888
8.00266
8.46213
8.95709
9.5019
10.1229
10.8745
11.8455
13.096
14.5638
14.9435
16.5532
17.9376
19.9343
21.4881
22.5851
22.9672
24.9547
27.195
28.8243
30.4703
32.1707
33.9303
35.7513
37.6351
39.5833
41.597
43.6774
45.8254
48.0418
50.3274
52.6826
55.108
57.6037
60.1699
62.8068
65.5141
68.2917
71.1391
74.0558
77.0413
80.0946
83.2148
86.4009
89.6515
92.9652
96.3406
99.7758
103.269
106.819
110.422
114.077
117.782
121.533
125.328
129.165
133.04
136.95
140.892
144.863
148.859
152.877
156.913
160.962
165.021
169.085
173.151
177.215
181.272
185.321
189.36
193.393
197.427
201.481
205.565
209.612
213.611
217.558
221.447
225.272
229.026
232.704
236.3
239.808
243.221
246.535
249.743
252.84
255.82
258.679
261.411
264.012
266.478
268.803
270.984
273.018
274.9
276.629
278.201
279.613
280.864
281.952
282.875
283.633
284.225
284.65
284.91
285.003
284.932
284.697
284.3
283.744
283.029
282.16
281.139
279.97
278.655
277.2
275.608
273.884
272.033
270.06
267.969
265.767
263.459
261.051
258.548
255.957
253.283
250.532
247.713
244.828
241.887
238.895
235.848
232.778
229.649
226.526
223.454
220.613
218.444
216.47
214.536
212.614
210.698
208.789
206.887
204.99
203.096
201.197
199.27
197.301
195.167
193.917
1.47129
0.778724
0.721935
0.771315
0.862217
0.984868
1.13653
1.31593
1.52143
1.75076
2.00122
2.27038
2.55619
2.85699
3.17149
3.4987
3.83791
4.18862
4.55062
4.92395
5.30901
5.70662
6.11809
6.54536
6.99109
7.45873
7.95255
8.47756
9.03932
9.64376
10.2973
11.0083
11.7882
12.6452
13.5582
14.5014
15.4614
16.5184
17.6048
18.7706
19.9675
21.1691
22.3728
23.6861
25.0311
26.3824
27.7735
29.2125
30.702
32.2428
33.8355
35.4805
37.1783
38.9294
40.734
42.5925
44.5051
46.4721
48.4935
50.5695
52.7
54.8851
57.1244
59.4178
61.7649
64.1653
66.6186
69.124
71.6808
74.2883
76.9455
79.6514
82.4049
85.2048
88.0496
90.9379
93.8683
96.8389
99.8481
102.894
105.975
109.088
112.231
115.403
118.601
121.822
125.063
128.323
131.599
134.887
138.185
141.492
144.803
148.118
151.435
154.753
158.072
161.394
164.72
168.051
171.369
174.657
177.909
181.118
184.28
187.391
190.444
193.435
196.36
199.213
201.99
204.685
207.295
209.815
212.239
214.565
216.789
218.905
220.911
222.804
224.579
226.234
227.767
229.174
230.454
231.604
232.623
233.51
234.263
234.881
235.365
235.713
235.926
236.005
235.949
235.761
235.441
234.991
234.414
233.71
232.882
231.934
230.868
229.688
228.396
226.997
225.495
223.893
222.195
220.406
218.531
216.574
214.539
212.432
210.257
208.018
205.724
203.375
200.978
198.541
196.048
193.55
191.026
188.499
186
183.604
181.441
179.387
177.375
175.382
173.405
171.443
169.498
167.574
165.676
163.817
162.012
160.326
158.845
158.365
2.35921
1.14873
1.00459
1.02088
1.09826
1.21442
1.36218
1.53832
1.74049
1.96638
2.21369
2.48024
2.7642
3.06414
3.37903
3.70822
4.0514
4.40853
4.77989
5.16602
5.5678
5.98641
6.42344
6.88082
7.36092
7.86644
8.40034
8.96569
9.56543
10.2023
10.8786
11.5967
12.3589
13.1661
14.0141
14.8983
15.8211
16.79
17.804
18.8668
19.9731
21.1179
22.3008
23.5274
24.7909
26.0909
27.4325
28.8191
30.2527
31.7345
33.2653
34.8456
36.476
38.1569
39.8887
41.6717
43.5064
45.393
47.3318
49.3229
51.3667
53.4631
55.6122
57.8139
60.0683
62.375
64.7337
67.1442
69.6059
72.1183
74.6806
77.2922
79.952
82.6591
85.4123
88.2104
91.052
93.9356
96.8596
99.8222
102.822
105.856
108.923
112.021
115.147
118.3
121.476
124.673
127.889
131.121
134.368
137.626
140.893
144.168
147.448
150.732
154.019
157.308
160.596
163.872
167.126
170.35
173.538
176.684
179.783
182.83
185.82
188.747
191.608
194.397
197.109
199.74
202.284
204.738
207.096
209.355
211.511
213.56
215.498
217.321
219.027
220.613
222.076
223.414
224.624
225.704
226.654
227.471
228.156
228.706
229.122
229.404
229.552
229.566
229.448
229.199
228.82
228.312
227.678
226.921
226.042
225.045
223.933
222.709
221.377
219.94
218.402
216.768
215.041
213.227
211.329
209.353
207.301
205.182
202.998
200.75
198.453
196.102
193.704
191.279
188.818
186.34
183.843
181.342
178.857
176.429
174.107
171.855
169.641
167.452
165.284
163.139
161.02
158.933
156.891
154.91
153.024
151.311
149.882
149.206
3.24985
1.5305
1.28426
1.26711
1.33074
1.44053
1.58484
1.75854
1.95856
2.18246
2.42809
2.69351
2.97708
3.27755
3.59406
3.9261
4.27354
4.63653
5.01549
5.41111
5.82433
6.25632
6.70847
7.18243
7.68001
8.20317
8.75396
9.33439
9.94636
10.5916
11.2715
11.9876
12.7412
13.5334
14.3642
15.2338
16.1434
17.0953
18.091
19.131
20.2147
21.3411
22.5101
23.7219
24.9758
26.2723
27.6131
29.0001
30.4347
31.9181
33.4513
35.0351
36.6703
38.3575
40.0974
41.8907
43.7379
45.6396
47.5964
49.6087
51.6771
53.8018
55.9832
58.2216
60.5172
62.8699
65.2798
67.7468
70.2706
72.8509
75.4871
78.1787
80.9249
83.7248
86.5773
89.4813
92.4353
95.438
98.4876
101.582
104.72
107.9
111.118
114.373
117.662
120.983
124.334
127.71
131.111
134.533
137.973
141.429
144.898
148.377
151.864
155.356
158.851
162.345
165.829
169.295
172.733
176.138
179.504
182.824
186.094
189.307
192.459
195.542
198.553
201.486
204.335
207.094
209.76
212.328
214.791
217.147
219.39
221.516
223.522
225.404
227.159
228.783
230.274
231.629
232.847
233.925
234.862
235.656
236.308
236.816
237.179
237.4
237.477
237.411
237.204
236.858
236.374
235.754
235
234.116
233.104
231.968
230.712
229.338
227.85
226.254
224.553
222.753
220.857
218.869
216.798
214.646
212.415
210.117
207.756
205.323
202.85
200.33
197.768
195.174
192.55
189.906
187.247
184.582
181.927
179.306
176.743
174.229
171.75
169.299
166.876
164.483
162.124
159.81
157.554
155.378
153.322
151.459
149.883
148.856
4.08744
1.88028
1.54316
1.49553
1.54611
1.64943
1.78988
1.96064
2.15792
2.37913
2.62215
2.88522
3.16689
3.46604
3.78192
4.11412
4.46254
4.82738
5.20909
5.60837
6.02608
6.46328
6.92122
7.40127
7.90494
8.43382
8.98959
9.5739
10.1884
10.8347
11.5142
12.2285
12.9791
13.7672
14.5942
15.4609
16.3687
17.3189
18.3125
19.3502
20.4324
21.5592
22.7311
23.9486
25.2121
26.5222
27.8802
29.2873
30.7449
32.2543
33.8166
35.4328
37.1042
38.8317
40.6164
42.4592
44.361
46.323
48.3459
50.4305
52.5778
54.7885
57.0632
59.4026
61.807
64.277
66.8127
69.4144
72.0819
74.8153
77.6141
80.4778
83.4059
86.3975
89.4515
92.5668
95.7418
98.9752
102.265
105.609
109.006
112.453
115.947
119.486
123.067
126.688
130.345
134.035
137.755
141.502
145.273
149.063
152.87
156.69
160.519
164.355
168.191
172.025
175.84
179.631
183.39
187.111
190.787
194.413
197.981
201.485
204.919
208.277
211.552
214.739
217.831
220.822
223.708
226.482
229.139
231.675
234.084
236.361
238.503
240.506
242.366
244.08
245.645
247.059
248.318
249.422
250.369
251.158
251.788
252.259
252.571
252.724
252.719
252.557
252.241
251.771
251.15
250.381
249.467
248.41
247.215
245.885
244.425
242.839
241.131
239.304
237.368
235.326
233.182
230.938
228.61
226.197
223.696
221.131
218.503
215.812
213.072
210.287
207.46
204.601
201.713
198.805
195.883
192.955
190.034
187.134
184.273
181.449
178.659
175.9
173.175
170.488
167.844
165.256
162.739
160.317
158.03
155.944
154.124
152.717
4.80707
2.1902
1.77352
1.69829
1.73641
1.83293
1.96879
2.13563
2.32902
2.54612
2.78485
3.04358
3.32099
3.6161
3.92823
4.25705
4.60249
4.96476
5.34433
5.74183
6.15812
6.59419
7.0512
7.53041
8.03321
8.5611
9.11563
9.69842
10.3111
10.9553
11.6326
12.3446
13.0931
13.8794
14.7051
15.5715
16.48
17.4316
18.4275
19.4687
20.556
21.6902
22.8722
24.1029
25.3833
26.7144
28.0974
29.5338
31.0249
32.5723
34.1774
35.8416
37.5664
39.3533
41.2037
43.1191
45.1008
47.1502
49.2687
51.4576
53.7182
56.0515
58.4588
60.9409
63.4987
66.133
68.8443
71.6332
74.4997
77.4441
80.4661
83.5655
86.7415
89.9935
93.3204
96.7208
100.193
103.736
107.347
111.024
114.764
118.566
122.425
126.339
130.304
134.318
138.376
142.475
146.611
150.78
154.978
159.201
163.443
167.702
171.972
176.248
180.527
184.791
189.033
193.244
197.418
201.547
205.624
209.643
213.594
217.473
221.27
224.979
228.593
232.105
235.508
238.796
241.962
245
247.905
250.67
253.291
255.762
258.078
260.236
262.231
264.06
265.721
267.21
268.525
269.665
270.627
271.412
272.019
272.446
272.696
272.768
272.665
272.386
271.935
271.315
270.527
269.576
268.464
267.196
265.775
264.207
262.497
260.651
258.671
256.561
254.334
251.995
249.544
246.984
244.338
241.605
238.787
235.898
232.941
229.923
226.852
223.735
220.577
217.385
214.166
210.928
207.676
204.419
201.168
197.933
194.727
191.553
188.414
185.311
182.246
179.227
176.262
173.363
170.546
167.838
165.275
162.912
160.791
158.996
5.42184
2.45947
1.97218
1.87135
1.89714
1.98627
2.11657
2.27831
2.46644
2.67788
2.91055
3.16289
3.4337
3.72213
4.0276
4.34983
4.68881
5.04479
5.41823
5.80978
6.22029
6.65073
7.10226
7.57612
8.07368
8.59642
9.14589
9.72371
10.3315
10.9711
11.6441
12.3522
13.0971
13.8806
14.7041
15.5694
16.4777
17.4305
18.4291
19.4748
20.5689
21.7126
22.9072
24.1541
25.4546
26.8104
28.2228
29.6936
31.2246
32.8175
34.4743
36.1969
37.987
39.8469
41.7782
43.7831
45.8634
48.0211
50.2579
52.5758
54.9764
57.4615
60.0325
62.6909
65.438
68.2748
71.2024
74.2215
77.3325
80.5358
83.8314
87.219
90.698
94.2678
97.927
101.674
105.508
109.426
113.426
117.505
121.661
125.889
130.187
134.551
138.977
143.461
147.999
152.586
157.217
161.888
166.593
171.328
176.087
180.864
185.654
190.451
195.246
200.018
204.759
209.464
214.124
218.731
223.277
227.754
232.152
236.464
240.681
244.795
248.799
252.684
256.443
260.069
263.553
266.891
270.074
273.098
275.955
278.641
281.15
283.478
285.62
287.573
289.334
290.9
292.27
293.44
294.412
295.182
295.752
296.12
296.289
296.26
296.034
295.612
294.999
294.196
293.209
292.041
290.697
289.179
287.492
285.644
283.643
281.492
279.196
276.754
274.191
271.507
268.706
265.795
262.786
259.685
256.497
253.233
249.898
246.5
243.047
239.546
236.005
232.431
228.83
225.21
221.579
217.945
214.315
210.702
207.113
203.556
200.035
196.555
193.121
189.74
186.422
183.18
180.032
177.004
174.128
171.448
168.988
166.801
5.92704
2.68544
2.13702
2.01264
2.02614
2.10717
2.23087
2.3863
2.56781
2.77214
2.99713
3.24129
3.50355
3.78314
4.07961
4.39275
4.72262
5.06951
5.43392
5.81652
6.21819
6.63993
7.08288
7.54832
8.03763
8.55229
9.09389
9.66405
10.2645
10.897
11.5633
12.2652
13.0046
13.7831
14.6027
15.4651
16.3718
17.3247
18.3254
19.3755
20.4767
21.6307
22.8392
24.1041
25.4273
26.8106
28.2562
29.7662
31.3428
32.9883
34.705
36.4955
38.3622
40.3077
42.3344
44.4449
46.6417
48.9274
51.3044
53.775
56.3416
59.0064
61.7715
64.6387
67.6097
70.6862
73.8693
77.1602
80.5596
84.068
87.6855
91.4119
95.2466
99.1888
103.237
107.39
111.645
116
120.453
124.999
129.636
134.359
139.164
144.047
149.003
154.027
159.114
164.259
169.456
174.699
179.983
185.3
190.645
196.01
201.39
206.776
212.145
217.483
222.784
228.04
233.241
238.378
243.442
248.423
253.312
258.098
262.773
267.328
271.752
276.039
280.179
284.164
287.987
291.639
295.115
298.406
301.507
304.412
307.115
309.611
311.896
313.965
315.817
317.448
318.857
320.042
321.002
321.737
322.246
322.53
322.591
322.43
322.051
321.454
320.645
319.625
318.402
316.98
315.364
313.558
311.564
309.395
307.061
304.565
301.913
299.111
296.173
293.104
289.912
286.605
283.191
279.68
276.079
272.397
268.642
264.821
260.945
257.02
253.054
249.056
245.033
240.992
236.943
232.892
228.848
224.82
220.818
216.85
212.921
209.037
205.207
201.438
197.742
194.132
190.627
187.25
184.03
181.003
178.179
175.596
6.32253
2.86731
2.2676
2.12189
2.12323
2.19551
2.31161
2.45957
2.63326
2.82919
3.04518
3.27977
3.53199
3.80117
4.08696
4.38924
4.70816
5.04406
5.39746
5.76911
6.15989
6.57083
7.0031
7.458
7.93692
8.44138
8.97297
9.53338
10.1244
10.7477
11.4054
12.0992
12.8312
13.6033
14.4175
15.2759
16.1803
17.1329
18.1356
19.1906
20.3
21.466
22.6908
23.9768
25.3264
26.7421
28.2265
29.7823
31.4124
33.1197
34.9071
36.7778
38.7348
40.7815
42.9209
45.1564
47.4911
49.9282
52.4709
55.1221
57.8847
60.7615
63.755
66.8678
70.102
73.4594
76.9418
80.5504
84.2863
88.1499
92.1416
96.2609
100.507
104.88
109.377
113.996
118.734
123.59
128.559
133.637
138.821
144.104
149.483
154.951
160.504
166.134
171.836
177.604
183.431
189.311
195.235
201.197
207.189
213.203
219.231
225.255
231.246
237.198
243.102
248.949
254.729
260.431
266.045
271.559
276.963
282.245
287.396
292.405
297.263
301.959
306.486
310.833
314.992
318.956
322.716
326.266
329.599
332.709
335.589
338.234
340.639
342.802
344.719
346.387
347.807
348.975
349.892
350.557
350.971
351.134
351.05
350.721
350.15
349.34
348.293
347.016
345.516
343.8
341.872
339.738
337.404
334.88
332.175
329.296
326.251
323.047
319.695
316.204
312.583
308.84
304.985
301.027
296.976
292.84
288.629
284.351
280.017
275.633
271.21
266.756
262.278
257.786
253.287
248.79
244.303
239.835
235.395
230.992
226.633
222.326
218.08
213.903
209.809
205.81
201.926
198.178
194.592
191.195
187.988
185.006
6.6125
3.00621
2.36506
2.20039
2.18985
2.25284
2.3605
2.50002
2.66487
2.85141
3.0574
3.28144
3.52261
3.78037
4.05444
4.3448
4.65167
4.97543
5.31667
5.67617
6.05483
6.45372
6.87403
7.31708
7.7843
8.27724
8.79754
9.34694
9.92729
10.5405
11.1886
11.8736
12.5977
13.3632
14.1722
15.027
15.9302
16.8841
17.8912
18.9541
20.0754
21.2579
22.5045
23.8181
25.2017
26.6585
28.1919
29.8052
31.5019
33.2857
35.1603
37.1296
39.1976
41.368
43.645
46.0326
48.5347
51.1552
53.8979
56.7665
59.7644
62.8951
66.1615
69.5666
73.113
76.8029
80.6382
84.6204
88.7504
93.029
97.4562
102.031
106.754
111.622
116.633
121.786
127.076
132.5
138.054
143.732
149.53
155.442
161.461
167.579
173.792
180.091
186.47
192.921
199.437
206.009
212.63
219.291
225.982
232.694
239.417
246.105
252.75
259.343
265.875
272.334
278.71
284.991
291.164
297.218
303.14
308.916
314.537
319.992
325.27
330.361
335.255
339.942
344.414
348.662
352.678
356.456
359.987
363.267
366.288
369.042
371.528
373.741
375.68
377.342
378.727
379.833
380.661
381.211
381.482
381.478
381.201
380.656
379.846
378.776
377.451
375.875
374.058
372.005
369.724
367.222
364.506
361.587
358.472
355.173
351.696
348.052
344.251
340.303
336.218
332.006
327.677
323.242
318.709
314.09
309.394
304.632
299.812
294.944
290.038
285.102
280.146
275.179
270.208
265.243
260.293
255.365
250.47
245.616
240.813
236.067
231.39
226.792
222.284
217.883
213.604
209.469
205.499
201.718
198.118
194.736
6.80501
3.10492
2.43179
2.25065
2.22868
2.28208
2.38065
2.51099
2.66628
2.84274
3.03812
3.25105
3.48068
3.72656
3.98849
4.26652
4.56093
4.87216
5.20086
5.54782
5.91399
6.30046
6.70848
7.13939
7.59469
8.07598
8.58499
9.12356
9.69366
10.2974
10.9369
11.6145
12.3327
13.0938
13.9007
14.756
15.6625
16.6232
17.6411
18.7194
19.8615
21.0707
22.3505
23.7047
25.1371
26.6516
28.2523
29.9434
31.7294
33.6147
35.6039
37.7018
39.9131
42.2427
44.6954
47.276
49.9895
52.8403
55.8331
58.972
62.2612
65.7043
69.3048
73.066
76.9907
81.0813
85.3397
89.7675
94.3655
99.134
104.073
109.18
114.456
119.897
125.5
131.263
137.18
143.248
149.46
155.811
162.294
168.903
175.628
182.461
189.394
196.42
203.531
210.717
217.971
225.283
232.644
240.045
247.475
254.924
262.338
269.703
277.011
284.25
291.408
298.475
305.436
312.281
318.996
325.568
331.98
338.219
344.276
350.138
355.795
361.235
366.449
371.427
376.16
380.638
384.854
388.801
392.472
395.864
398.965
401.767
404.27
406.472
408.37
409.963
411.251
412.233
412.91
413.284
413.355
413.126
412.603
411.788
410.688
409.307
407.652
405.728
403.545
401.11
398.432
395.519
392.379
389.023
385.461
381.704
377.76
373.642
369.359
364.923
360.345
355.635
350.805
345.866
340.828
335.703
330.501
325.232
319.908
314.537
309.13
303.697
298.247
292.79
287.334
281.888
276.461
271.063
265.703
260.389
255.132
249.941
244.826
239.798
234.869
230.056
225.374
220.842
216.48
212.305
208.308
204.526
6.9114
3.16749
2.47113
2.27603
2.2433
2.28705
2.37622
2.49698
2.64233
2.80843
2.99304
3.19482
3.413
3.64716
3.8972
4.16323
4.44559
4.74477
5.06147
5.39653
5.75096
6.12591
6.52267
6.94268
7.38754
7.85897
8.35883
8.88914
9.45208
10.05
10.6853
11.3607
12.0789
12.8429
13.6558
14.5209
15.4415
16.4213
17.464
18.5735
19.7539
21.0095
22.3448
23.7642
25.2726
26.8747
28.5757
30.3807
32.2951
34.3243
36.4741
38.7501
41.158
43.7036
46.3927
49.2309
52.2239
55.377
58.6955
62.1842
65.847
69.6879
73.7103
77.9177
82.3128
86.898
91.6747
96.6442
101.807
107.162
112.708
118.444
124.367
130.473
136.759
143.219
149.848
156.64
163.589
170.687
177.927
185.3
192.793
200.397
208.103
215.903
223.788
231.748
239.773
247.855
255.982
264.144
272.332
280.483
288.575
296.599
304.543
312.396
320.144
327.774
335.273
342.628
349.829
356.862
363.699
370.331
376.75
382.944
388.901
394.61
400.062
405.246
410.154
414.775
419.104
423.131
426.853
430.262
433.351
436.116
438.553
440.661
442.438
443.883
444.996
445.778
446.23
446.355
446.155
445.635
444.798
443.65
442.198
440.447
438.404
436.079
433.478
430.612
427.489
424.12
420.514
416.682
412.635
408.385
403.942
399.318
394.525
389.575
384.479
379.25
373.899
368.438
362.878
357.231
351.509
345.722
339.882
333.999
328.083
322.145
316.195
310.242
304.296
298.365
292.459
286.588
280.761
274.987
269.276
263.639
258.086
252.628
247.278
242.052
236.965
232.035
227.277
222.709
218.316
214.141
6.94581
3.19891
2.48704
2.2805
2.23792
2.27234
2.35218
2.46343
2.599
2.75505
2.92936
3.12064
3.32818
3.55165
3.79099
4.04638
4.31823
4.60712
4.9138
5.2392
5.58444
5.95076
6.3396
6.75255
7.19139
7.65805
8.15465
8.68349
9.24709
9.84815
10.4896
11.1745
11.9062
12.6883
13.5245
14.4188
15.3755
16.3988
17.4936
18.6646
19.9172
21.2565
22.6883
24.2183
25.8523
27.5962
29.456
31.4382
33.5493
35.7958
38.1845
40.7221
43.4152
46.2705
49.2946
52.4937
55.8742
59.4422
63.2033
67.1628
71.3238
75.6887
80.261
85.0438
90.0392
95.2487
100.673
106.312
112.165
118.231
124.505
130.985
137.668
144.546
151.616
158.869
166.3
173.899
181.659
189.572
197.629
205.828
214.136
222.55
231.06
239.658
248.334
257.078
265.881
274.732
283.619
292.532
301.393
310.183
318.891
327.505
336.01
344.394
352.643
360.743
368.679
376.439
384.009
391.375
398.518
405.427
412.09
418.494
424.631
430.487
436.054
441.322
446.281
450.925
455.245
459.234
462.888
466.2
469.165
471.78
474.042
475.948
477.499
478.695
479.535
480.023
480.159
479.948
479.394
478.5
477.273
475.719
473.844
471.657
469.166
466.379
463.307
459.958
456.343
452.474
448.361
444.015
439.449
434.675
429.705
424.551
419.226
413.742
408.112
402.349
396.465
390.472
384.382
378.209
371.962
365.655
359.298
352.903
346.481
340.041
333.594
327.15
320.719
314.31
307.933
301.596
295.31
289.084
282.929
276.854
270.871
264.992
259.229
253.597
248.111
242.788
237.642
232.687
227.908
223.349
6.92466
3.20473
2.48388
2.26843
2.2173
2.24321
2.31446
2.417
2.54377
2.69098
2.85646
3.03901
3.23798
3.45312
3.68447
3.93232
4.19716
4.4797
4.78084
5.10168
5.44352
5.80783
6.1963
6.61084
7.05353
7.5267
8.03293
8.575
9.15599
9.77921
10.4482
11.167
11.9396
12.7707
13.6649
14.6273
15.6631
16.7779
17.9776
19.2686
20.6575
22.1512
23.7568
25.4818
27.3337
29.3186
31.444
33.7174
36.1466
38.7395
41.5037
44.4465
47.5755
50.8976
54.4197
58.1482
62.0893
66.2491
70.6338
75.2511
80.0989
85.1737
90.4804
96.0209
101.796
107.806
114.048
120.522
127.223
134.148
141.292
148.649
156.213
163.975
171.929
180.064
188.373
196.845
205.469
214.236
223.135
232.155
241.279
250.497
259.797
269.171
278.608
288.098
297.632
307.205
316.775
326.27
335.677
344.984
354.176
363.238
372.158
380.922
389.514
397.921
406.129
414.125
421.895
429.425
436.701
443.71
450.44
456.881
463.022
468.852
474.362
479.544
484.389
488.89
493.04
496.834
500.266
503.331
506.027
508.35
510.299
511.872
513.07
513.893
514.344
514.425
514.139
513.49
512.484
511.126
509.423
507.382
505.011
502.318
499.313
496.005
492.405
488.523
484.371
479.961
475.304
470.413
465.3
459.978
454.46
448.759
442.889
436.861
430.69
424.389
417.97
411.447
404.831
398.136
391.374
384.556
377.694
370.799
363.884
356.957
350.03
343.112
336.214
329.345
322.514
315.731
309.006
302.347
295.767
289.274
282.88
276.596
270.437
264.415
258.546
252.845
247.325
241.998
236.848
231.924
6.86355
3.19034
2.4658
2.24405
2.18613
2.20507
2.26935
2.36504
2.48522
2.62621
2.78597
2.96341
3.158
3.36965
3.59855
3.84519
4.1103
4.39483
4.70001
5.02728
5.37834
5.75514
6.15988
6.59506
7.06345
7.56813
8.11248
8.70025
9.33555
10.0228
10.7667
11.5726
12.446
13.3934
14.4211
15.5358
16.7439
18.053
19.4709
21.006
22.6669
24.4626
26.4026
28.497
30.758
33.1864
35.7911
38.5819
41.5676
44.7565
48.1564
51.7747
55.618
59.6925
64.0039
68.557
73.3561
78.4049
83.7062
89.262
95.0713
101.132
107.443
114.001
120.806
127.852
135.135
142.65
150.391
158.349
166.518
174.889
183.452
192.198
201.116
210.195
219.425
228.793
238.288
247.898
257.612
267.417
277.301
287.252
297.261
307.317
317.411
327.538
337.68
347.755
357.729
367.588
377.32
386.91
396.345
405.611
414.694
423.581
432.258
440.712
448.93
456.9
464.608
472.043
479.191
486.043
492.585
498.81
504.706
510.265
515.479
520.34
524.841
528.975
532.737
536.123
539.128
541.749
543.984
545.83
547.288
548.357
549.038
549.333
549.246
548.779
547.937
546.725
545.148
543.215
540.931
538.306
535.347
532.065
528.469
524.57
520.378
515.906
511.165
506.168
500.927
495.455
489.765
483.87
477.785
471.521
465.094
458.515
451.8
444.96
438.01
430.962
423.829
416.624
409.359
402.045
394.696
387.321
379.933
372.542
365.157
357.79
350.449
343.145
335.887
328.683
321.544
314.479
307.499
300.613
293.833
287.17
280.637
274.249
268.018
261.959
256.085
250.406
244.907
239.64
6.79494
3.16571
2.44128
2.21693
2.15589
2.17183
2.2336
2.32756
2.447
2.58846
2.75012
2.9311
3.13117
3.35054
3.58979
3.84985
4.13196
4.43769
4.76895
5.12797
5.51736
5.94007
6.39947
6.89932
7.44383
8.03767
8.68584
9.39408
10.1688
11.0167
11.944
12.9586
14.0691
15.2851
16.6178
18.0761
19.6649
21.3958
23.2801
25.3286
27.5522
29.9618
32.568
35.3812
38.4113
41.6653
45.1507
48.8751
52.8456
57.0679
61.5472
66.2875
71.2918
76.5621
82.0994
87.904
93.9748
100.31
106.908
113.763
120.872
128.228
135.825
143.655
151.712
159.988
168.473
177.159
186.036
195.095
204.324
213.714
223.252
232.929
242.731
252.649
262.67
272.782
282.975
293.238
303.559
313.929
324.336
334.775
345.233
355.711
366.19
376.59
386.861
397.001
406.997
416.835
426.502
435.986
445.275
454.355
463.215
471.843
480.227
488.354
496.215
503.797
511.09
518.083
524.765
531.127
537.159
542.854
548.201
553.195
557.827
562.092
565.984
569.497
572.628
575.373
577.729
579.694
581.267
582.446
583.233
583.628
583.634
583.253
582.489
581.346
579.829
577.944
575.698
573.099
570.154
566.872
563.262
559.335
555.101
550.57
545.755
540.667
535.319
529.723
523.892
517.839
511.578
505.121
498.484
491.678
484.718
477.616
470.388
463.045
455.602
448.07
440.463
432.794
425.073
417.314
409.527
401.724
393.915
386.112
378.323
370.559
362.829
355.143
347.51
339.938
332.437
325.016
317.685
310.455
303.335
296.338
289.476
282.762
276.21
269.833
263.642
257.649
251.837
246.262
6.74156
3.13952
2.41897
2.19737
2.13928
2.15916
2.22641
2.3278
2.45702
2.611
2.78835
2.98874
3.21256
3.46077
3.73483
4.03672
4.36888
4.73428
5.13643
5.5794
6.06781
6.607
7.20295
7.86213
8.59221
9.40164
10.2979
11.291
12.393
13.6179
14.9687
16.4597
18.1045
19.9167
21.9101
24.0972
26.4893
29.0989
31.9381
35.0184
38.3501
41.9427
45.8043
49.9418
54.3602
59.0626
64.0508
69.3254
74.8856
80.7296
86.854
93.2546
99.9259
106.861
114.054
121.496
129.179
137.094
145.232
153.584
162.138
170.885
179.814
188.915
198.178
207.592
217.147
226.831
236.636
246.551
256.565
266.669
276.852
287.105
297.418
307.782
318.186
328.624
339.087
349.564
360.055
370.547
381.028
391.527
401.986
412.334
422.53
432.577
442.461
452.173
461.702
471.039
480.171
489.088
497.781
506.237
514.448
522.403
530.092
537.506
544.633
551.466
557.995
564.211
570.106
575.671
580.898
585.78
590.311
594.484
598.293
601.733
604.8
607.49
609.799
611.724
613.265
614.42
615.188