/*--------------------------------*- C++ -*----------------------------------*\
  =========                 |
  \\      /  F ield         | OpenFOAM: The Open Source CFD Toolbox
   \\    /   O peration     | Website:  https://openfoam.org
    \\  /    A nd           | Version:  9
     \\/     M anipulation  |
\*---------------------------------------------------------------------------*/
FoamFile
{
    format      ascii;
    class       volScalarField;
    location    "0.27";
    object      kU;
}
// * * * * * * * * * * * * * * * * * * * * * * * * * * * * * * * * * * * * * //

dimensions      [0 2 -2 0 0 0 0];

internalField   nonuniform List<scalar> 
12225
(
0.353921
0.335043
0.316966
0.300961
0.288125
0.278906
0.273297
0.271001
0.271563
0.274465
0.279194
0.285281
0.292318
0.299969
0.30798
0.316135
0.324477
0.336555
0.436864
0.448979
0.438084
0.43306
0.438785
0.453583
0.474794
0.499971
0.527125
0.55477
0.581878
0.607784
0.63211
0.654677
0.675591
0.694749
0.714211
0.729498
0.395187
0.410874
0.410631
0.405747
0.40201
0.400923
0.402613
0.406805
0.413078
0.420973
0.430057
0.43995
0.45034
0.460984
0.471741
0.482498
0.493537
0.504228
0.379641
0.38484
0.386546
0.38573
0.383905
0.382026
0.380567
0.379738
0.379605
0.380146
0.381299
0.382981
0.385112
0.387615
0.390436
0.39354
0.396946
0.400549
0.374976
0.3759
0.376239
0.375721
0.37457
0.373084
0.371496
0.369967
0.368593
0.367426
0.366484
0.365767
0.365266
0.364965
0.364852
0.364916
0.365154
0.365533
0.373488
0.372555
0.371759
0.370807
0.369631
0.368275
0.366809
0.3653
0.363804
0.362358
0.36099
0.359714
0.358537
0.357461
0.356487
0.355615
0.354843
0.354165
0.373012
0.371296
0.369813
0.368416
0.367025
0.36561
0.364169
0.362712
0.361258
0.359824
0.358426
0.357073
0.355774
0.354533
0.353354
0.35224
0.351191
0.350215
0.372865
0.370838
0.369004
0.367311
0.365711
0.364174
0.362679
0.361216
0.359783
0.358382
0.357015
0.355688
0.354402
0.353161
0.351968
0.350822
0.349728
0.348696
0.37282
0.37068
0.368691
0.366836
0.365095
0.363449
0.36188
0.360376
0.358928
0.357532
0.356183
0.35488
0.353622
0.352409
0.351241
0.350119
0.349042
0.348023
0.372806
0.370628
0.368578
0.366648
0.364829
0.36311
0.361482
0.359934
0.358457
0.357046
0.355694
0.354397
0.353153
0.351959
0.350812
0.349713
0.34866
0.347664
0.372801
0.370609
0.368537
0.366576
0.36472
0.362964
0.361299
0.359719
0.358216
0.356785
0.355421
0.354118
0.352874
0.351685
0.350547
0.34946
0.348421
0.34744
0.372799
0.370602
0.368522
0.36655
0.36468
0.362907
0.361225
0.359627
0.358109
0.356664
0.355289
0.353978
0.352729
0.351537
0.3504
0.349315
0.34828
0.347304
0.372797
0.370599
0.368514
0.366537
0.364661
0.36288
0.361188
0.359581
0.358053
0.3566
0.355216
0.353899
0.352644
0.351448
0.350308
0.349221
0.348185
0.34721
0.372796
0.370596
0.368509
0.366528
0.364649
0.362864
0.361168
0.359555
0.358022
0.356563
0.355174
0.353851
0.352592
0.351392
0.350248
0.349157
0.348119
0.347141
0.372795
0.370593
0.368505
0.366523
0.364641
0.362853
0.361154
0.359539
0.358003
0.35654
0.355148
0.353823
0.35256
0.351357
0.35021
0.349116
0.348074
0.347094
0.372794
0.370592
0.368502
0.366518
0.364634
0.362845
0.361145
0.359527
0.357989
0.356525
0.355131
0.353803
0.352538
0.351333
0.350184
0.349088
0.348044
0.347061
0.372794
0.37059
0.368499
0.366515
0.36463
0.362839
0.361137
0.359519
0.357979
0.356514
0.355118
0.353789
0.352523
0.351316
0.350165
0.349067
0.348021
0.347037
0.372794
0.370589
0.368498
0.366512
0.364627
0.362835
0.361132
0.359513
0.357972
0.356506
0.355109
0.353779
0.352511
0.351303
0.350151
0.349052
0.348005
0.347019
0.372793
0.370589
0.368497
0.366512
0.364626
0.362834
0.361131
0.359511
0.357969
0.356502
0.355105
0.353774
0.352506
0.351297
0.350144
0.349044
0.347996
0.34701
0.372794
0.37059
0.368498
0.366513
0.364628
0.362836
0.361133
0.359514
0.357973
0.356506
0.355109
0.353779
0.352511
0.351302
0.350149
0.349049
0.348001
0.347015
0.372794
0.370591
0.3685
0.366516
0.364632
0.362841
0.36114
0.359522
0.357982
0.356517
0.355122
0.353793
0.352526
0.351319
0.350167
0.349069
0.348023
0.347037
0.372795
0.370593
0.368504
0.366522
0.364641
0.362855
0.361158
0.359546
0.358012
0.356552
0.355163
0.353839
0.352578
0.351375
0.350228
0.349134
0.348091
0.347108
0.372796
0.370598
0.368518
0.366547
0.364681
0.362912
0.361235
0.359642
0.358127
0.356685
0.355311
0.354001
0.35275
0.351556
0.350415
0.349324
0.348281
0.347298
0.372804
0.370631
0.368592
0.366676
0.364872
0.363166
0.361548
0.360006
0.358532
0.35712
0.355767
0.354467
0.353219
0.352019
0.350867
0.349761
0.348701
0.347697
0.372856
0.370818
0.368973
0.367264
0.365645
0.364085
0.362567
0.361083
0.359631
0.358213
0.356833
0.355493
0.354196
0.352946
0.351743
0.35059
0.349486
0.348445
0.373166
0.37177
0.370579
0.369371
0.368049
0.366605
0.365072
0.363492
0.361905
0.360342
0.358826
0.357372
0.355991
0.354688
0.353468
0.352329
0.351272
0.350303
0.374797
0.375829
0.376175
0.375401
0.373834
0.371876
0.369792
0.36774
0.365814
0.364067
0.362524
0.361195
0.360076
0.359157
0.358425
0.357864
0.357457
0.35719
0.382729
0.39167
0.392375
0.388805
0.384384
0.380403
0.377247
0.374998
0.373621
0.373039
0.373153
0.373867
0.375084
0.376717
0.378687
0.380923
0.383366
0.385947
0.407499
0.414514
0.405423
0.395992
0.390555
0.389292
0.391457
0.396217
0.402838
0.410729
0.419437
0.428624
0.438034
0.447479
0.456824
0.465973
0.474883
0.483466
0.360554
0.347547
0.334933
0.322917
0.311965
0.302353
0.29419
0.287471
0.282115
0.278005
0.275002
0.272968
0.271768
0.271277
0.27138
0.271976
0.272979
0.274307
0.000663649
0.00377461
0.0062669
0.00845462
0.0106733
0.0133207
0.0163976
0.0200003
0.0242364
0.0290694
0.0341775
0.0395722
0.0452165
0.0510618
0.0570596
0.0631629
0.0693274
0.0755102
0.0816693
0.0877634
0.0937511
0.0995911
0.105242
0.110661
0.115806
0.120638
0.125117
0.129209
0.132877
0.136081
0.138761
0.140824
0.14213
0.142546
0.142219
0.140993
0.143977
0.143285
0.14403
0.142804
0.143391
0.144844
0.146517
0.147913
0.150503
0.157314
0.164523
0.171968
0.179621
0.187467
0.195496
0.203699
0.212073
0.220612
0.229314
0.238176
0.247194
0.256368
0.265693
0.275166
0.284784
0.294544
0.304441
0.314471
0.32463
0.334913
0.345313
0.355826
0.366444
0.377163
0.387974
0.398871
0.409845
0.42089
0.431998
0.443159
0.454367
0.465611
0.476883
0.488175
0.499477
0.510779
0.522074
0.533351
0.544601
0.555815
0.566982
0.578093
0.589139
0.60011
0.610994
0.621783
0.632466
0.643033
0.653474
0.663781
0.67395
0.683981
0.693888
0.703706
0.71341
0.722891
0.732151
0.741188
0.749993
0.758556
0.766866
0.774912
0.782684
0.790171
0.797363
0.80425
0.810822
0.817072
0.822989
0.828568
0.833799
0.838677
0.843194
0.847346
0.851126
0.854531
0.857556
0.860199
0.862455
0.864325
0.865805
0.866895
0.867595
0.867906
0.867829
0.867366
0.86652
0.865294
0.863692
0.861719
0.859379
0.856679
0.853626
0.850227
0.846489
0.842421
0.838031
0.83333
0.828326
0.823031
0.817456
0.81161
0.805507
0.799157
0.792574
0.785769
0.778755
0.771546
0.764154
0.756592
0.748875
0.741015
0.733027
0.724925
0.716709
0.708426
0.700049
0.691645
0.683289
0.675815
0.671863
0.668447
0.665042
0.661621
0.658184
0.65473
0.651251
0.647729
0.644116
0.640313
0.636087
0.630839
0.623094
0.606343
0.00255876
0.0108472
0.0163894
0.0208056
0.0249638
0.0290528
0.0333017
0.0378753
0.0428381
0.0481789
0.0538401
0.0597722
0.0659283
0.0722652
0.0787429
0.0853246
0.0919756
0.0986633
0.105356
0.112024
0.118637
0.125169
0.131592
0.137882
0.144021
0.149991
0.155782
0.161382
0.166779
0.171956
0.176896
0.181656
0.186433
0.191457
0.196678
0.201837
0.207638
0.214539
0.222257
0.229715
0.23822
0.248332
0.260655
0.272653
0.284439
0.296083
0.308078
0.320485
0.333273
0.346419
0.359908
0.373729
0.387876
0.402345
0.417133
0.432238
0.447659
0.463392
0.479437
0.49579
0.51245
0.529412
0.546673
0.56423
0.582076
0.600206
0.618615
0.637295
0.656239
0.675439
0.694885
0.714568
0.734479
0.754604
0.774935
0.795457
0.81616
0.837028
0.85805
0.879211
0.900497
0.921892
0.943383
0.964953
0.986588
1.00827
1.02999
1.05172
1.07345
1.09517
1.11685
1.13849
1.16005
1.18154
1.20292
1.22418
1.24529
1.26625
1.28702
1.30752
1.32758
1.34734
1.36681
1.38598
1.40482
1.42333
1.44147
1.45922
1.47657
1.49348
1.50994
1.52593
1.54144
1.55642
1.57088
1.5848
1.59814
1.6109
1.62307
1.63462
1.64555
1.65584
1.66547
1.67445
1.68275
1.69037
1.6973
1.70354
1.70908
1.71391
1.71804
1.72145
1.72416
1.72616
1.72745
1.72804
1.72793
1.72713
1.72565
1.72349
1.72066
1.71717
1.71304
1.70828
1.7029
1.69691
1.69035
1.68321
1.67552
1.6673
1.65857
1.64935
1.63966
1.62952
1.61895
1.60798
1.59663
1.58493
1.57289
1.56056
1.54791
1.53507
1.52191
1.50863
1.49529
1.48206
1.46937
1.45678
1.44414
1.43145
1.41873
1.40599
1.39325
1.38049
1.3677
1.35484
1.34177
1.32835
1.31334
1.29391
0.00513396
0.0180346
0.0255943
0.0313905
0.0364998
0.0414482
0.0464949
0.0517827
0.0573763
0.0632848
0.0694843
0.0759376
0.0826053
0.08945
0.0964382
0.10354
0.11073
0.117984
0.125281
0.132604
0.139935
0.147263
0.154578
0.161875
0.169154
0.176422
0.183693
0.190986
0.198327
0.205752
0.213315
0.221121
0.229333
0.238087
0.247339
0.256942
0.267194
0.278299
0.290055
0.302279
0.315177
0.328818
0.343179
0.358097
0.3733
0.388778
0.404647
0.420956
0.437704
0.454883
0.472484
0.490498
0.508918
0.527741
0.546961
0.566574
0.586578
0.606969
0.627743
0.648896
0.670425
0.692324
0.714589
0.737213
0.76019
0.783513
0.807173
0.831161
0.855467
0.880082
0.904993
0.930189
0.955656
0.981381
1.00735
1.03355
1.05995
1.08656
1.11334
1.14028
1.16737
1.19458
1.2219
1.2493
1.27678
1.30429
1.33184
1.3594
1.38694
1.41444
1.4419
1.46928
1.49657
1.52374
1.55077
1.57766
1.60437
1.63088
1.65719
1.68312
1.7087
1.73393
1.7588
1.78329
1.80737
1.831
1.85417
1.87684
1.89899
1.92059
1.9416
1.96201
1.98179
2.00091
2.01935
2.03708
2.05409
2.07034
2.08583
2.10053
2.11443
2.1275
2.13973
2.15112
2.16164
2.17128
2.18004
2.18791
2.19487
2.20094
2.20609
2.21033
2.21366
2.21608
2.2176
2.21821
2.21793
2.21676
2.21471
2.21179
2.20801
2.2034
2.19795
2.1917
2.18466
2.17684
2.16827
2.15897
2.14897
2.13828
2.12694
2.11497
2.10239
2.08925
2.07555
2.06132
2.04663
2.03147
2.01588
1.99992
1.98351
1.96692
1.95004
1.93295
1.91572
1.89849
1.88145
1.86445
1.8474
1.83031
1.81318
1.79606
1.77897
1.76192
1.74494
1.72804
1.71122
1.69455
1.67745
1.65956
0.00823227
0.0248744
0.0341403
0.0408961
0.0467944
0.0524195
0.058058
0.063867
0.0699259
0.0762624
0.0828712
0.0897293
0.0968067
0.104073
0.1115
0.119065
0.126747
0.134532
0.142406
0.150361
0.158392
0.166498
0.174683
0.182953
0.191325
0.199817
0.208458
0.21728
0.226326
0.235647
0.245307
0.25539
0.265994
0.277189
0.288979
0.301343
0.314347
0.328059
0.342445
0.357443
0.373059
0.389301
0.406144
0.423531
0.441375
0.45964
0.478345
0.497509
0.51714
0.537239
0.557803
0.57883
0.600316
0.622259
0.644656
0.667503
0.690799
0.714541
0.738725
0.763348
0.788406
0.813894
0.839807
0.86614
0.892885
0.920034
0.947579
0.975511
1.00382
1.03249
1.06151
1.09087
1.12055
1.15054
1.18082
1.21137
1.24218
1.27322
1.30448
1.33593
1.36755
1.39933
1.43123
1.46324
1.49534
1.52749
1.55968
1.59188
1.62407
1.65622
1.68831
1.72032
1.75223
1.784
1.81562
1.84706
1.87831
1.90933
1.94006
1.9704
2.00036
2.02991
2.05904
2.08771
2.11589
2.14355
2.17065
2.19716
2.22305
2.24828
2.27283
2.29665
2.31972
2.34201
2.36349
2.38413
2.40392
2.42281
2.44079
2.45783
2.47392
2.48903
2.50316
2.51627
2.52836
2.53941
2.54942
2.55838
2.56627
2.57309
2.57884
2.58351
2.58711
2.58964
2.5911
2.5915
2.59084
2.58914
2.5864
2.58265
2.57789
2.57214
2.56542
2.55775
2.54915
2.53965
2.52927
2.51804
2.50598
2.49312
2.47949
2.46513
2.45006
2.43433
2.41796
2.40096
2.38342
2.36533
2.34674
2.32777
2.30838
2.28868
2.26866
2.2484
2.22795
2.20742
2.18693
2.16643
2.14588
2.1253
2.10471
2.08415
2.06365
2.04328
2.02309
2.00315
1.98358
1.96459
1.94598
1.92793
0.0113401
0.0312326
0.0418163
0.0494794
0.0560813
0.0622808
0.0683997
0.0746163
0.0810289
0.0876835
0.0945924
0.101747
0.109129
0.116717
0.124488
0.132425
0.140515
0.148748
0.157117
0.165622
0.174265
0.183054
0.192001
0.201122
0.210441
0.219986
0.22979
0.239894
0.250343
0.261191
0.272494
0.284316
0.296718
0.309746
0.323415
0.337726
0.352695
0.368339
0.384648
0.401595
0.419165
0.437348
0.456122
0.475459
0.495322
0.515688
0.536554
0.557925
0.579805
0.602197
0.625103
0.648522
0.672455
0.6969
0.721858
0.747328
0.773308
0.799797
0.826793
0.854295
0.882298
0.910798
0.939793
0.969274
0.999237
1.02967
1.06057
1.09193
1.12373
1.15596
1.18861
1.22166
1.25509
1.28889
1.32305
1.35753
1.39232
1.42739
1.46273
1.4983
1.53409
1.57007
1.6062
1.64247
1.67885
1.71531
1.75182
1.78836
1.82489
1.86139
1.89783
1.93418
1.97041
2.00651
2.04243
2.07815
2.11365
2.14889
2.18374
2.21817
2.25217
2.28571
2.31877
2.35129
2.38325
2.41461
2.44533
2.47536
2.50468
2.53324
2.561
2.58793
2.614
2.63916
2.6634
2.68667
2.70894
2.7302
2.7504
2.76953
2.78756
2.80447
2.82024
2.83486
2.8483
2.86056
2.87161
2.88146
2.8901
2.89751
2.90369
2.90865
2.91238
2.91489
2.91619
2.91627
2.91515
2.91285
2.90937
2.90473
2.89895
2.89205
2.88405
2.87497
2.86485
2.85369
2.84155
2.82844
2.8144
2.79945
2.78365
2.76702
2.74957
2.73139
2.7125
2.69286
2.67267
2.65191
2.63061
2.60884
2.58663
2.56404
2.5411
2.51787
2.49442
2.47084
2.4472
2.42351
2.39978
2.37602
2.35226
2.32857
2.305
2.28163
2.25855
2.23591
2.21388
2.19274
2.17246
2.15325
0.0142628
0.0367261
0.0485649
0.0570701
0.0643103
0.0710164
0.0775445
0.0840952
0.090785
0.0976778
0.104802
0.112165
0.11976
0.127574
0.135594
0.143808
0.152208
0.16079
0.169553
0.178502
0.187645
0.196996
0.206572
0.216396
0.226496
0.236905
0.247658
0.258799
0.270371
0.282421
0.294998
0.308149
0.321917
0.336333
0.351412
0.36716
0.38358
0.400674
0.418434
0.436847
0.455899
0.475579
0.495872
0.516762
0.53823
0.560263
0.582855
0.606008
0.629724
0.654006
0.678856
0.704279
0.730275
0.756847
0.783998
0.811727
0.840037
0.868928
0.898399
0.92845
0.959079
0.990283
1.02206
1.0544
1.08731
1.12076
1.15476
1.1893
1.22436
1.25993
1.29599
1.33253
1.36954
1.40698
1.44484
1.4831
1.52172
1.5607
1.59999
1.63958
1.67942
1.7195
1.75978
1.80023
1.84081
1.88151
1.92227
1.96308
2.00389
2.04468
2.0854
2.12604
2.16656
2.20692
2.24708
2.28702
2.3267
2.36607
2.40498
2.44343
2.48139
2.51883
2.55572
2.592
2.62765
2.66261
2.69683
2.73029
2.76292
2.79469
2.82557
2.85549
2.88444
2.91237
2.93924
2.96502
2.98967
3.01317
3.03548
3.05658
3.07643
3.09502
3.11232
3.12832
3.143
3.15635
3.16834
3.17898
3.18825
3.19615
3.20267
3.20782
3.21159
3.214
3.21505
3.21474
3.21309
3.21012
3.20583
3.20026
3.19341
3.18532
3.176
3.16549
3.15382
3.14099
3.12708
3.1121
3.09608
3.07906
3.0611
3.04222
3.02242
3.00183
2.98049
2.9584
2.93564
2.91227
2.88831
2.86382
2.83885
2.81345
2.78768
2.76158
2.73522
2.70868
2.68202
2.65529
2.6285
2.60169
2.57492
2.54824
2.52174
2.49551
2.46969
2.44445
2.42001
2.39669
2.37448
2.35348
0.0167739
0.0414499
0.0543746
0.0636202
0.0714226
0.0785705
0.0854482
0.0922749
0.0991831
0.106252
0.113526
0.121025
0.128755
0.136714
0.144896
0.153298
0.161915
0.17075
0.179806
0.189092
0.198621
0.208412
0.218485
0.228867
0.239588
0.250681
0.262185
0.274137
0.28658
0.299554
0.313098
0.327251
0.342042
0.357495
0.373625
0.390437
0.407935
0.426116
0.444976
0.464507
0.484701
0.50555
0.527045
0.549178
0.57194
0.595324
0.619327
0.643952
0.669199
0.695074
0.721582
0.748727
0.776515
0.80495
0.834036
0.863778
0.894178
0.925239
0.956964
0.989352
1.02241
1.05612
1.0905
1.12553
1.16122
1.19754
1.23451
1.2721
1.3103
1.34911
1.38849
1.42845
1.46894
1.50996
1.55147
1.59346
1.6359
1.67874
1.72197
1.76555
1.80945
1.85363
1.89806
1.9427
1.9875
2.03244
2.07748
2.12258
2.16769
2.21279
2.25783
2.30278
2.3476
2.39224
2.43667
2.48085
2.52474
2.56819
2.61116
2.65361
2.69552
2.73684
2.77754
2.81756
2.85685
2.89537
2.93307
2.96989
3.0058
3.04073
3.07465
3.10752
3.13928
3.1699
3.19933
3.22755
3.2545
3.28016
3.3045
3.32747
3.34906
3.36924
3.38799
3.40529
3.42111
3.43545
3.4483
3.45963
3.46946
3.47776
3.48453
3.48979
3.49352
3.49575
3.49647
3.4957
3.49346
3.48975
3.4846
3.47803
3.47007
3.46073
3.45006
3.43808
3.42481
3.41029
3.39459
3.37772
3.35972
3.34058
3.32047
3.29937
3.27732
3.25439
3.23063
3.20607
3.18079
3.15482
3.12823
3.10106
3.07337
3.04522
3.01665
2.98772
2.9585
2.92906
2.89946
2.86976
2.84
2.81023
2.78052
2.75093
2.72158
2.69256
2.66406
2.63625
2.60939
2.58378
2.55939
2.53625
0.0189191
0.045422
0.0592468
0.0691137
0.0773899
0.0849088
0.0920759
0.0991245
0.106199
0.113393
0.120761
0.128337
0.136139
0.144174
0.152446
0.160957
0.169709
0.178709
0.187965
0.19749
0.2073
0.217416
0.227862
0.238665
0.249856
0.261468
0.273537
0.286098
0.299188
0.312843
0.327096
0.341976
0.35751
0.373716
0.390608
0.408193
0.426477
0.44546
0.46514
0.485515
0.506582
0.528338
0.55078
0.573904
0.59771
0.622195
0.647362
0.673213
0.699754
0.726992
0.754933
0.783585
0.812956
0.843053
0.873883
0.905453
0.937769
0.970836
1.00466
1.03924
1.07458
1.11068
1.14754
1.18516
1.22353
1.26265
1.3025
1.34308
1.38437
1.42637
1.46904
1.51237
1.55634
1.60093
1.64609
1.69182
1.73807
1.78481
1.832
1.8796
1.92759
1.9759
2.02452
2.07338
2.12245
2.17168
2.22103
2.27046
2.31992
2.36936
2.41875
2.46804
2.51718
2.56614
2.61485
2.66328
2.71137
2.75893
2.80595
2.8524
2.89824
2.94343
2.98791
3.03163
3.07454
3.11658
3.1577
3.19784
3.23696
3.27499
3.3119
3.34763
3.38213
3.41536
3.44727
3.47783
3.507
3.53474
3.561
3.58576
3.60899
3.63067
3.65076
3.66925
3.68612
3.70137
3.71496
3.72691
3.73719
3.74579
3.75273
3.75801
3.76162
3.76359
3.76391
3.76261
3.75969
3.75519
3.74911
3.7415
3.73235
3.72173
3.70966
3.69617
3.6813
3.66503
3.64752
3.62875
3.60878
3.58763
3.56538
3.54209
3.51777
3.49252
3.46636
3.43936
3.41157
3.38306
3.35386
3.32405
3.29368
3.2628
3.23148
3.19977
3.16774
3.13545
3.10298
3.07039
3.03773
3.00507
2.97248
2.94006
2.90791
2.87616
2.845
2.81464
2.78532
2.75732
2.73055
2.70505
0.0206819
0.0486549
0.0631967
0.073561
0.0822167
0.0900308
0.0974243
0.10464
0.111833
0.119103
0.126519
0.134124
0.141945
0.149999
0.158299
0.166852
0.175668
0.184756
0.19413
0.203805
0.2138
0.224136
0.234839
0.245935
0.257456
0.269432
0.281897
0.294883
0.308423
0.322547
0.337286
0.352665
0.368706
0.385428
0.402845
0.420966
0.4398
0.459352
0.479623
0.500618
0.522338
0.544785
0.567961
0.591869
0.616514
0.641898
0.668029
0.694912
0.722558
0.750974
0.780172
0.810163
0.840956
0.872562
0.904993
0.938257
0.972363
1.00732
1.04313
1.07981
1.11735
1.15575
1.19503
1.23517
1.27618
1.31804
1.36075
1.4043
1.44866
1.49384
1.5398
1.58652
1.63398
1.68214
1.73099
1.78048
1.83057
1.88123
1.93242
1.98409
2.0362
2.08869
2.14153
2.19465
2.24802
2.30157
2.35526
2.40905
2.46287
2.51668
2.57043
2.62407
2.67754
2.73081
2.78381
2.8365
2.88869
2.94032
2.99136
3.04176
3.09149
3.14048
3.18868
3.23604
3.28248
3.32796
3.37241
3.41577
3.458
3.49902
3.5388
3.57727
3.61439
3.65011
3.68438
3.71717
3.74842
3.7781
3.80616
3.83258
3.85733
3.88036
3.90167
3.92124
3.93904
3.95506
3.96929
3.98172
3.99235
4.00116
4.00816
4.01336
4.01675
4.01837
4.01821
4.01629
4.01263
4.00726
4.00021
3.99149
3.98112
3.96916
3.95566
3.94065
3.92415
3.90621
3.88689
3.86625
3.84432
3.82115
3.7968
3.77134
3.74479
3.71724
3.68873
3.65933
3.62908
3.59806
3.56632
3.53392
3.50092
3.46739
3.43338
3.39895
3.36417
3.32911
3.29385
3.25844
3.22297
3.1875
3.15212
3.11693
3.08205
3.04763
3.01386
2.98095
2.94914
2.91867
2.88942
2.86144
0.0220619
0.0511784
0.066262
0.0770015
0.0859408
0.0939719
0.101526
0.108854
0.116115
0.123418
0.130839
0.138429
0.146224
0.154251
0.162527
0.171067
0.179885
0.188996
0.198414
0.208159
0.218249
0.228708
0.23956
0.250833
0.262554
0.274753
0.287461
0.300708
0.314523
0.328935
0.343971
0.359654
0.376006
0.393047
0.410792
0.429254
0.448445
0.468374
0.48905
0.51048
0.532672
0.555633
0.579372
0.603896
0.629215
0.655339
0.682277
0.710042
0.738647
0.768104
0.798428
0.829634
0.861735
0.894745
0.928679
0.963548
0.999366
1.03614
1.07389
1.1126
1.1523
1.19299
1.23465
1.27731
1.32094
1.36554
1.41111
1.45764
1.50509
1.55347
1.60274
1.65288
1.70386
1.75564
1.8082
1.86148
1.91546
1.97008
2.0253
2.08107
2.13732
2.19402
2.25109
2.30849
2.36615
2.42403
2.48205
2.54018
2.59834
2.65648
2.71456
2.7725
2.83026
2.88778
2.94501
3.00182
3.05804
3.11364
3.16858
3.22283
3.27631
3.32898
3.38076
3.43161
3.48144
3.53019
3.57781
3.62423
3.66938
3.71322
3.75569
3.79672
3.83628
3.8743
3.91074
3.94556
3.97871
4.01016
4.03985
4.06774
4.09382
4.11805
4.1404
4.16087
4.17943
4.19608
4.2108
4.22358
4.23442
4.2433
4.25024
4.25524
4.25832
4.25948
4.25875
4.25613
4.25166
4.24536
4.23726
4.2274
4.2158
4.20251
4.18757
4.17103
4.15293
4.1333
4.11222
4.08973
4.06587
4.04072
4.01432
3.98673
3.95801
3.92822
3.89743
3.86569
3.83306
3.79962
3.76541
3.73051
3.69498
3.65888
3.62227
3.58522
3.5478
3.51007
3.47212
3.43401
3.39583
3.35765
3.31958
3.28172
3.2442
3.20718
3.17086
3.13543
3.10114
3.06817
3.03638
3.00587
0.0230738
0.0530404
0.0685025
0.0795004
0.0886297
0.0967998
0.104449
0.111832
0.119113
0.126405
0.13379
0.141327
0.149058
0.157015
0.165223
0.173702
0.18247
0.191544
0.200942
0.210683
0.220789
0.231281
0.242185
0.253526
0.265331
0.277627
0.290444
0.303809
0.31775
0.332294
0.347467
0.363293
0.379795
0.396993
0.414906
0.433551
0.452944
0.473099
0.494031
0.515752
0.538277
0.561617
0.585788
0.610804
0.636678
0.663426
0.691065
0.71961
0.74908
0.779492
0.810864
0.843215
0.876564
0.910927
0.946323
0.982767
1.02027
1.05886
1.09853
1.1393
1.18117
1.22414
1.26823
1.31342
1.35972
1.40711
1.45559
1.50513
1.55573
1.60736
1.65999
1.71359
1.76814
1.82358
1.87989
1.93701
1.99489
2.0535
2.11276
2.17262
2.23302
2.2939
2.3552
2.41683
2.47875
2.54089
2.60318
2.66556
2.72797
2.79035
2.85263
2.91476
2.97668
3.03832
3.09961
3.16031
3.22036
3.27974
3.33839
3.39626
3.45328
3.50939
3.56453
3.61863
3.6716
3.72338
3.7739
3.8231
3.87093
3.91731
3.9622
4.00553
4.04724
4.0873
4.12565
4.16224
4.19703
4.22999
4.26106
4.2902
4.31737
4.34256
4.36574
4.3869
4.40602
4.4231
4.43812
4.45108
4.46197
4.47076
4.47749
4.48217
4.4848
4.4854
4.484
4.48061
4.47527
4.46799
4.45883
4.4478
4.43495
4.42032
4.40395
4.3859
4.36621
4.34493
4.32212
4.29783
4.27211
4.24504
4.21665
4.18703
4.15622
4.1243
4.09132
4.05735
4.02246
3.9867
3.95016
3.91288
3.87494
3.8364
3.79733
3.7578
3.71786
3.67761
3.63711
3.59644
3.5557
3.51496
3.47432
3.43392
3.39388
3.35437
3.31557
3.2777
3.24096
3.20552
3.17123
3.1382
0.0237455
0.0543034
0.0699957
0.0811435
0.0903741
0.0986077
0.106287
0.113669
0.12092
0.128159
0.13547
0.142917
0.150548
0.1584
0.166502
0.174877
0.183548
0.192533
0.201852
0.211525
0.221574
0.232021
0.242889
0.254203
0.265989
0.278274
0.291085
0.304448
0.318391
0.332941
0.348124
0.363966
0.38049
0.397721
0.415681
0.434392
0.453874
0.474147
0.495232
0.517147
0.539912
0.563548
0.588073
0.613509
0.639877
0.667196
0.695489
0.724777
0.755084
0.786432
0.818844
0.852343
0.886952
0.922691
0.959581
0.997642
1.03689
1.07734
1.11901
1.16191
1.20603
1.25139
1.29799
1.34581
1.39487
1.44514
1.49661
1.54927
1.6031
1.65805
1.71412
1.77125
1.82941
1.88856
1.94864
2.00961
2.07141
2.13398
2.19726
2.26118
2.32567
2.39067
2.45609
2.52186
2.58791
2.65416
2.72055
2.78702
2.85349
2.9199
2.98618
3.05227
3.11811
3.18364
3.24858
3.31287
3.37646
3.4393
3.50132
3.56247
3.62268
3.68188
3.74002
3.79701
3.85275
3.90718
3.96023
4.01184
4.06196
4.11051
4.15744
4.20269
4.2462
4.28793
4.32782
4.36584
4.40194
4.43609
4.46823
4.49829
4.52625
4.55211
4.57584
4.59743
4.61686
4.63412
4.64922
4.66213
4.67286
4.68141
4.68778
4.692
4.69407
4.69402
4.69186
4.68763
4.68135
4.67306
4.66279
4.65058
4.63647
4.6205
4.60274
4.58321
4.56198
4.53911
4.51463
4.48862
4.46114
4.43224
4.40199
4.37044
4.33768
4.30375
4.26873
4.23268
4.19568
4.15778
4.11905
4.07957
4.0394
3.9986
3.95725
3.91541
3.87315
3.83055
3.78769
3.74465
3.70152
3.65839
3.61538
3.5726
3.53019
3.48832
3.44719
3.40698
3.36788
3.33005
3.29332
3.25785
0.0241168
0.0550415
0.0708318
0.0820314
0.0912813
0.099507
0.107153
0.114479
0.121654
0.128797
0.135996
0.14332
0.150819
0.158533
0.166494
0.174729
0.183261
0.192111
0.201301
0.210849
0.220779
0.231111
0.24187
0.253078
0.264761
0.276946
0.289659
0.302928
0.31678
0.331242
0.346344
0.362113
0.378576
0.395761
0.413695
0.432404
0.451915
0.472253
0.493446
0.51552
0.538501
0.562416
0.587292
0.613156
0.640035
0.667955
0.696945
0.727031
0.758242
0.790605
0.824149
0.858899
0.894882
0.932123
0.970645
1.01047
1.05162
1.0941
1.13794
1.18313
1.22969
1.27761
1.32689
1.37752
1.4295
1.4828
1.53742
1.59333
1.65049
1.70888
1.76846
1.82919
1.89101
1.95388
2.01774
2.08254
2.1482
2.21466
2.28186
2.34971
2.41816
2.48712
2.55648
2.62616
2.69608
2.76619
2.83639
2.90663
2.97684
3.04693
3.11685
3.18654
3.25593
3.32475
3.39291
3.46034
3.527
3.59281
3.65772
3.72165
3.78454
3.84632
3.90695
3.96634
4.02434
4.08089
4.13596
4.18947
4.24136
4.29158
4.34006
4.38674
4.43158
4.47451
4.5155
4.55449
4.59145
4.62634
4.6591
4.6897
4.71811
4.7443
4.76826
4.78998
4.80944
4.82664
4.84156
4.85421
4.86459
4.8727
4.87855
4.88216
4.88354
4.88272
4.87972
4.87457
4.8673
4.85795
4.84656
4.83316
4.81781
4.80054
4.78141
4.76048
4.73779
4.7134
4.68737
4.65976
4.63063
4.60005
4.56808
4.53478
4.50023
4.46448
4.42761
4.38968
4.35076
4.31093
4.27024
4.22877
4.18659
4.14376
4.10036
4.05644
4.0121
3.96739
3.9224
3.87722
3.83194
3.78665
3.74147
3.69651
3.65194
3.60791
3.5646
3.5222
3.48089
3.4408
3.40177
3.36398
0.0242368
0.0553366
0.0711096
0.0822735
0.0914681
0.0996197
0.107175
0.114392
0.121444
0.128452
0.135505
0.142673
0.15001
0.157556
0.165347
0.173409
0.181768
0.190446
0.199463
0.208841
0.218601
0.228765
0.239357
0.250401
0.261922
0.273947
0.286503
0.29962
0.313327
0.327653
0.342631
0.358291
0.374665
0.391786
0.409686
0.428397
0.447953
0.468386
0.48973
0.51202
0.535289
0.559572
0.584905
0.611322
0.638856
0.667539
0.697403
0.728481
0.760805
0.794409
0.829324
0.86558
0.903205
0.942226
0.982667
1.02455
1.06789
1.11271
1.15903
1.20684
1.25614
1.30691
1.35915
1.41284
1.46797
1.52453
1.58248
1.64179
1.70243
1.76436
1.82752
1.89188
1.95737
2.02392
2.09149
2.16
2.22937
2.29953
2.37042
2.44195
2.51405
2.58669
2.65963
2.73282
2.80621
2.87971
2.95326
3.02677
3.10019
3.17345
3.24646
3.31918
3.39131
3.46278
3.5335
3.60342
3.67247
3.74058
3.80768
3.8737
3.93857
4.00223
4.0646
4.1256
4.18514
4.24315
4.29956
4.35432
4.40736
4.45862
4.50804
4.55556
4.60114
4.64472
4.68626
4.72571
4.76303
4.79818
4.83113
4.86183
4.89026
4.91639
4.94022
4.96172
4.98089
4.99772
5.0122
5.02434
5.03414
5.04161
5.04675
5.0496
5.05016
5.04846
5.04453
5.0384
5.0301
5.01967
5.00715
4.99259
4.97602
4.95751
4.9371
4.91485
4.8908
4.86503
4.83759
4.80854
4.77794
4.74587
4.71238
4.67754
4.64142
4.60408
4.5656
4.52604
4.48548
4.44397
4.4016
4.35842
4.31451
4.26993
4.22476
4.17906
4.13291
4.08638
4.03956
3.99252
3.94536
3.89819
3.85111
3.80425
3.75775
3.71178
3.66652
3.62215
3.57882
3.53666
3.49551
3.45558
0.024163
0.0552753
0.0709311
0.0819825
0.0910547
0.099072
0.106481
0.113543
0.12043
0.127266
0.134141
0.141125
0.148274
0.155628
0.163223
0.171088
0.179247
0.187723
0.196539
0.205716
0.215275
0.22524
0.235636
0.246488
0.257822
0.269668
0.282056
0.295017
0.308584
0.322792
0.337675
0.35327
0.369616
0.386752
0.404717
0.42355
0.44329
0.463979
0.485659
0.508372
0.532164
0.557077
0.583156
0.610447
0.638989
0.66881
0.699946
0.732433
0.766311
0.801614
0.838376
0.876627
0.916393
0.9577
1.00057
1.04502
1.09106
1.1387
1.18797
1.23889
1.2914
1.34543
1.401
1.45809
1.51668
1.57673
1.63821
1.70109
1.7653
1.83081
1.89755
1.96546
2.03448
2.10455
2.17558
2.2475
2.32024
2.3937
2.46782
2.54251
2.61769
2.69326
2.76912
2.84516
2.92131
2.9975
3.07365
3.14969
3.22555
3.30119
3.37645
3.4511
3.52508
3.5983
3.67069
3.74219
3.81273
3.88222
3.95061
4.01781
4.08376
4.1484
4.21164
4.27342
4.33366
4.39228
4.44922
4.50442
4.55782
4.60936
4.65899
4.70664
4.75228
4.79584
4.83729
4.87659
4.91369
4.94855
4.98116
5.01146
5.03944
5.06507
5.08835
5.10925
5.12777
5.14391
5.15765
5.16902
5.178
5.18462
5.18888
5.19081
5.19042
5.18775
5.18281
5.17565
5.1663
5.1548
5.14118
5.12551
5.10781
5.08815
5.06657
5.04314
5.01791
4.99093
4.96227
4.93199
4.90015
4.86682
4.83207
4.79596
4.75855
4.71992
4.68014
4.63926
4.59737
4.55452
4.51079
4.46624
4.42094
4.37496
4.32837
4.28124
4.23363
4.18563
4.13731
4.08876
4.04007
3.99133
3.94268
3.89422
3.8461
3.79849
3.75155
3.70545
3.66036
3.61638
3.57335
3.53152
0.0239487
0.0549342
0.0703814
0.0812475
0.090132
0.0979549
0.105163
0.112021
0.1187
0.125327
0.131991
0.138764
0.145698
0.152837
0.160215
0.167861
0.175802
0.18406
0.19266
0.201625
0.210979
0.220747
0.230957
0.241638
0.25282
0.264536
0.276821
0.289712
0.303249
0.317472
0.332422
0.348144
0.364687
0.3821
0.400433
0.419734
0.440045
0.461416
0.483902
0.507556
0.532431
0.558583
0.586067
0.614944
0.645291
0.677064
0.710306
0.745067
0.781386
0.819297
0.858828
0.900002
0.942838
0.987349
1.03354
1.08143
1.13101
1.18227
1.23521
1.28981
1.34604
1.40385
1.46321
1.52409
1.58644
1.65023
1.71539
1.78189
1.84965
1.91863
1.98875
2.05995
2.13215
2.20528
2.27927
2.35403
2.42947
2.50553
2.58211
2.65913
2.73651
2.81414
2.89195
2.96984
3.04774
3.12556
3.20324
3.28073
3.35794
3.43464
3.51071
3.58608
3.66069
3.73445
3.80729
3.87915
3.94995
4.01963
4.0881
4.15532
4.2212
4.28567
4.34868
4.41015
4.47002
4.52821
4.58467
4.63933
4.69213
4.74303
4.79197
4.83889
4.88375
4.92651
4.96711
5.00553
5.04172
5.07565
5.10729
5.13661
5.16359
5.18821
5.21046
5.23032
5.24779
5.26286
5.27553
5.28582
5.29372
5.29926
5.30243
5.30328
5.3018
5.29805
5.29204
5.2838
5.27338
5.26081
5.24615
5.22942
5.21068
5.18999
5.16739
5.14294
5.1167
5.08872
5.05906
5.0278
4.99498
4.96068
4.92495
4.88787
4.8495
4.80991
4.76916
4.72731
4.68445
4.64062
4.5959
4.55036
4.50406
4.45706
4.40943
4.36125
4.31257
4.26348
4.21404
4.16435
4.11449
4.06457
4.01469
3.96497
3.91557
3.86663
3.81831
3.77079
3.7242
3.67868
3.63404
3.59057
0.0237112
0.0544573
0.0696262
0.080249
0.0888944
0.0964778
0.103448
0.110071
0.116521
0.122922
0.129366
0.135922
0.142643
0.149573
0.156745
0.164191
0.171939
0.180016
0.188449
0.197264
0.206492
0.216163
0.226311
0.236972
0.248184
0.259989
0.272431
0.285557
0.299419
0.314071
0.329557
0.345934
0.363267
0.381626
0.401094
0.421722
0.443514
0.46655
0.490899
0.516623
0.543782
0.572434
0.602633
0.634427
0.667861
0.702947
0.739709
0.778173
0.818357
0.860278
0.903941
0.949349
0.996498
1.04538
1.09598
1.14827
1.20224
1.25786
1.31508
1.37389
1.43422
1.49603