/*--------------------------------*- C++ -*----------------------------------*\
  =========                 |
  \\      /  F ield         | OpenFOAM: The Open Source CFD Toolbox
   \\    /   O peration     | Website:  https://openfoam.org
    \\  /    A nd           | Version:  9
     \\/     M anipulation  |
\*---------------------------------------------------------------------------*/
FoamFile
{
    format      ascii;
    class       volScalarField;
    location    "0.27";
    object      p;
}
// * * * * * * * * * * * * * * * * * * * * * * * * * * * * * * * * * * * * * //

dimensions      [0 2 -2 0 0 0 0];

internalField   nonuniform List<scalar> 
12225
(
-1.11302
-3.39604
-4.55857
-4.86685
-5.03525
-5.19514
-5.31993
-5.40859
-5.47848
-5.53983
-5.59444
-5.64214
-5.68326
-5.71712
-5.74264
-5.74955
-5.74756
-5.64103
-4.58052
-5.28265
-5.37294
-5.23799
-5.19806
-5.26552
-5.34649
-5.4126
-5.46991
-5.52366
-5.57364
-5.6187
-5.65857
-5.69238
-5.71972
-5.73363
-5.74689
-5.73262
-4.78526
-4.68233
-4.83917
-4.9614
-5.06892
-5.19141
-5.29993
-5.38286
-5.45038
-5.5106
-5.56519
-5.61393
-5.65698
-5.6941
-5.72572
-5.74878
-5.77749
-5.81076
-4.64797
-4.56986
-4.846
-5.02483
-5.11943
-5.21675
-5.3121
-5.38993
-5.45484
-5.51343
-5.56717
-5.61571
-5.65918
-5.69776
-5.73247
-5.76338
-5.80215
-5.85502
-4.65493
-4.67221
-4.91236
-5.06237
-5.13856
-5.22346
-5.3133
-5.38965
-5.45395
-5.51207
-5.56568
-5.61461
-5.65911
-5.69975
-5.738
-5.77558
-5.82106
-5.88115
-4.71661
-4.7591
-4.93695
-5.06779
-5.14593
-5.22866
-5.3152
-5.39034
-5.45429
-5.51217
-5.56581
-5.61523
-5.66082
-5.70345
-5.74481
-5.78717
-5.83663
-5.89855
-4.77634
-4.81588
-4.95235
-5.07467
-5.15721
-5.23712
-5.31904
-5.39218
-5.45558
-5.51317
-5.56676
-5.61662
-5.66323
-5.7076
-5.75143
-5.79698
-5.84843
-5.90929
-4.82948
-4.86439
-4.97476
-5.08749
-5.1702
-5.24629
-5.32347
-5.39443
-5.45716
-5.5144
-5.56791
-5.61815
-5.66566
-5.71146
-5.75711
-5.80453
-5.8565
-5.91485
-4.87925
-4.911
-5.00185
-5.10276
-5.18297
-5.25562
-5.3286
-5.39723
-5.45906
-5.51584
-5.56919
-5.61969
-5.66788
-5.71472
-5.76152
-5.80977
-5.86118
-5.91652
-4.92659
-4.95523
-5.03046
-5.11946
-5.19598
-5.26554
-5.33468
-5.40075
-5.46141
-5.51758
-5.57063
-5.62119
-5.66979
-5.71723
-5.76456
-5.81283
-5.86304
-5.91528
-4.97134
-4.99664
-5.05949
-5.13764
-5.20965
-5.27609
-5.34163
-5.40502
-5.46426
-5.51966
-5.57225
-5.62266
-5.67135
-5.71897
-5.76629
-5.814
-5.86263
-5.91193
-5.00982
-5.03217
-5.08606
-5.1554
-5.22278
-5.28621
-5.34865
-5.40957
-5.46732
-5.52184
-5.57386
-5.62392
-5.67243
-5.71987
-5.76679
-5.81363
-5.86066
-5.90748
-5.04549
-5.0653
-5.11187
-5.17347
-5.23614
-5.29649
-5.35603
-5.41452
-5.47069
-5.52421
-5.57553
-5.62507
-5.67318
-5.72019
-5.76646
-5.81224
-5.85763
-5.90222
-5.08298
-5.10029
-5.14012
-5.19417
-5.2516
-5.30839
-5.3648
-5.42061
-5.47487
-5.5271
-5.57745
-5.62622
-5.67362
-5.71986
-5.76514
-5.80956
-5.8531
-5.89539
-5.12104
-5.13595
-5.16983
-5.21689
-5.26886
-5.32171
-5.37479
-5.42776
-5.47982
-5.53044
-5.57952
-5.62718
-5.67353
-5.71865
-5.7626
-5.80538
-5.84694
-5.88698
-5.15774
-5.17049
-5.19938
-5.24033
-5.28703
-5.33582
-5.38552
-5.43556
-5.48523
-5.53395
-5.58146
-5.6277
-5.67266
-5.71634
-5.75869
-5.79966
-5.83918
-5.87705
-5.19019
-5.20119
-5.22618
-5.26221
-5.30434
-5.34935
-5.39585
-5.4431
-5.49037
-5.53705
-5.58278
-5.62736
-5.6707
-5.7127
-5.75328
-5.79238
-5.82992
-5.86578
-5.21402
-5.22382
-5.2462
-5.27888
-5.31772
-5.35985
-5.40382
-5.44877
-5.49395
-5.53875
-5.58274
-5.62564
-5.66731
-5.7076
-5.74644
-5.78374
-5.81946
-5.85352
-5.22228
-5.23163
-5.25308
-5.2846
-5.32226
-5.36323
-5.40602
-5.44975
-5.49372
-5.53728
-5.57999
-5.62157
-5.66184
-5.7007
-5.73805
-5.77384
-5.80805
-5.84066
-5.20718
-5.21723
-5.2402
-5.27381
-5.31356
-5.35612
-5.39993
-5.44433
-5.48868
-5.53235
-5.5749
-5.6161
-5.65584
-5.69402
-5.73061
-5.76557
-5.79891
-5.83065
-5.1809
-5.19208
-5.21784
-5.25553
-5.29925
-5.34475
-5.39073
-5.43686
-5.48252
-5.527
-5.56998
-5.61134
-5.65104
-5.68905
-5.72534
-5.75992
-5.79284
-5.82415
-5.14589
-5.15825
-5.18826
-5.23269
-5.28214
-5.33121
-5.37987
-5.42848
-5.4761
-5.52185
-5.56555
-5.60733
-5.64723
-5.68526
-5.72144
-5.75584
-5.78851
-5.81956
-5.10522
-5.11781
-5.15315
-5.20769
-5.26476
-5.31769
-5.36918
-5.42048
-5.47016
-5.51723
-5.5618
-5.60416
-5.64441
-5.68258
-5.71876
-5.75307
-5.78562
-5.81651
-5.06134
-5.0729
-5.11525
-5.18181
-5.24645
-5.30401
-5.35983
-5.41442
-5.46582
-5.51378
-5.559
-5.60186
-5.64238
-5.68064
-5.7168
-5.75104
-5.78348
-5.81423
-5.01446
-5.02221
-5.08321
-5.16295
-5.22801
-5.28759
-5.3494
-5.40887
-5.46252
-5.51145
-5.55735
-5.60069
-5.64143
-5.67973
-5.71582
-5.74996
-5.78228
-5.81297
-4.96649
-4.94283
-5.05359
-5.16246
-5.22296
-5.27697
-5.34029
-5.40254
-5.45769
-5.50756
-5.55428
-5.59821
-5.63929
-5.67773
-5.71387
-5.748
-5.78029
-5.81093
-4.95717
-4.81282
-4.97182
-5.13795
-5.22236
-5.28328
-5.34796
-5.40899
-5.46259
-5.51158
-5.55781
-5.60131
-5.64192
-5.67992
-5.71565
-5.74938
-5.78137
-5.8118
-5.10257
-4.81875
-4.85345
-4.98383
-5.10331
-5.21021
-5.30414
-5.37976
-5.44185
-5.49691
-5.54746
-5.59385
-5.63642
-5.67579
-5.71248
-5.74689
-5.77951
-5.81099
-5.03937
-5.53904
-5.54911
-5.38978
-5.3087
-5.33279
-5.3868
-5.43606
-5.48099
-5.52537
-5.56881
-5.61002
-5.64866
-5.68491
-5.71898
-5.75096
-5.78113
-5.81133
-1.70068
-3.57122
-4.64245
-4.93542
-5.07016
-5.20679
-5.31857
-5.39841
-5.46119
-5.51702
-5.56812
-5.61457
-5.65694
-5.69597
-5.73209
-5.76529
-5.79526
-5.8202
-6.71862
-6.71859
-6.7189
-6.71951
-6.72033
-6.7213
-6.72244
-6.72376
-6.72528
-6.72703
-6.72902
-6.7313
-6.7339
-6.73686
-6.74021
-6.74399
-6.74825
-6.75303
-6.75835
-6.76426
-6.77081
-6.77802
-6.78595
-6.79463
-6.80411
-6.81443
-6.82566
-6.83786
-6.85107
-6.86536
-6.88092
-6.89756
-6.91436
-6.93181
-6.95294
-6.97691
-6.99745
-7.01611
-7.04233
-7.07328
-7.10684
-7.1436
-7.16214
-7.17264
-7.19661
-7.22396
-7.25205
-7.28135
-7.31148
-7.34225
-7.37352
-7.40513
-7.43697
-7.46893
-7.50088
-7.53272
-7.56434
-7.59562
-7.62644
-7.65669
-7.68623
-7.71493
-7.74266
-7.76927
-7.79462
-7.81856
-7.84093
-7.86155
-7.88028
-7.89693
-7.91133
-7.9233
-7.93265
-7.9392
-7.94276
-7.94315
-7.94017
-7.93363
-7.92335
-7.90913
-7.89079
-7.86814
-7.841
-7.80919
-7.77254
-7.73087
-7.68402
-7.63183
-7.57414
-7.5108
-7.44167
-7.36661
-7.28551
-7.19824
-7.10469
-7.00477
-6.89844
-6.78574
-6.66662
-6.54086
-6.40828
-6.26858
-6.12198
-5.9685
-5.8082
-5.64108
-5.46718
-5.28654
-5.09922
-4.90529
-4.70485
-4.498
-4.28486
-4.06557
-3.84027
-3.60914
-3.37236
-3.13013
-2.88264
-2.63013
-2.37282
-2.11097
-1.84483
-1.57467
-1.30077
-1.02341
-0.742876
-0.459479
-0.17352
0.114692
0.404842
0.696615
0.989691
1.28375
1.57849
1.87357
2.16869
2.46354
2.75781
3.05121
3.34343
3.6342
3.92324
4.21027
4.49505
4.77732
5.05684
5.3334
5.60678
5.87677
6.14319
6.40587
6.66463
6.91934
7.16986
7.41605
7.6578
7.89502
8.12762
8.3555
8.5786
8.79688
9.01027
9.21877
9.42234
9.62095
9.81444
10.0026
10.1856
10.3633
10.5357
10.7029
10.8649
11.0217
11.1734
11.3203
11.4633
11.6038
11.7507
11.9047
-6.71764
-6.71783
-6.71818
-6.71871
-6.71924
-6.71977
-6.72033
-6.72103
-6.72196
-6.72316
-6.72466
-6.72648
-6.72866
-6.7312
-6.73414
-6.7375
-6.74133
-6.74564
-6.75048
-6.75589
-6.76189
-6.76853
-6.77584
-6.78386
-6.79264
-6.8022
-6.81259
-6.82381
-6.83586
-6.8487
-6.86217
-6.87619
-6.89156
-6.90915
-6.92712
-6.94307
-6.96103
-6.98504
-7.00851
-7.02885
-7.04776
-7.06155
-7.08871
-7.13178
-7.16773
-7.19852
-7.22889
-7.25944
-7.29025
-7.32136
-7.35275
-7.38438
-7.41616
-7.44802
-7.47985
-7.51157
-7.54307
-7.57424
-7.60497
-7.63514
-7.66463
-7.69331
-7.72104
-7.7477
-7.77312
-7.79717
-7.81968
-7.84049
-7.85944
-7.87636
-7.89106
-7.90337
-7.91311
-7.9201
-7.92414
-7.92504
-7.92263
-7.9167
-7.90707
-7.89355
-7.87596
-7.8541
-7.8278
-7.79687
-7.76115
-7.72047
-7.67465
-7.62354
-7.56698
-7.50483
-7.43695
-7.3632
-7.28345
-7.1976
-7.10552
-7.00711
-6.90226
-6.79086
-6.67278
-6.54778
-6.4159
-6.2775
-6.1324
-5.98051
-5.82182
-5.65635
-5.4841
-5.30513
-5.11947
-4.92722
-4.72844
-4.52324
-4.31175
-4.09408
-3.8704
-3.64087
-3.40566
-3.16496
-2.91898
-2.66795
-2.41208
-2.15163
-1.88685
-1.618
-1.34536
-1.06921
-0.789845
-0.507554
-0.222645
0.0645755
0.353795
0.644697
0.936966
1.23029
1.52434
1.8188
2.11338
2.40774
2.70159
2.99463
3.28657
3.57711
3.86598
4.15291
4.43764
4.71992
4.99951
5.27618
5.54973
5.81994
6.08663
6.34962
6.60873
6.86383
7.11477
7.36141
7.60365
7.84138
8.0745
8.30294
8.52663
8.7455
8.95951
9.16863
9.37283
9.57206
9.76617
9.95503
10.1386
10.317
10.4902
10.6581
10.8209
10.9785
11.1312
11.2794
11.4243
11.5668
11.7172
11.8651
-6.7146
-6.71547
-6.71638
-6.71724
-6.71787
-6.71834
-6.71878
-6.71932
-6.72007
-6.72107
-6.72236
-6.72399
-6.72596
-6.72832
-6.73109
-6.73429
-6.73795
-6.74212
-6.74682
-6.75208
-6.75795
-6.76445
-6.77163
-6.77952
-6.78815
-6.79756
-6.80779
-6.81886
-6.8308
-6.84367
-6.85742
-6.87191
-6.88741
-6.90472
-6.92364
-6.94242
-6.96141
-6.98315
-7.00656
-7.02923
-7.05182
-7.07386
-7.09799
-7.12689
-7.15654
-7.18589
-7.21558
-7.24564
-7.27603
-7.30671
-7.33764
-7.36877
-7.40004
-7.43137
-7.46268
-7.49388
-7.52488
-7.55557
-7.58584
-7.61559
-7.64469
-7.67302
-7.70044
-7.72682
-7.75201
-7.77587
-7.79825
-7.81897
-7.83787
-7.8548
-7.86957
-7.882
-7.89191
-7.89913
-7.90345
-7.90471
-7.9027
-7.89724
-7.88814
-7.87521
-7.85827
-7.83712
-7.8116
-7.78151
-7.74669
-7.70697
-7.66217
-7.61214
-7.55673
-7.49578
-7.42915
-7.35671
-7.27833
-7.19388
-7.10326
-7.00635
-6.90304
-6.79319
-6.67666
-6.55355
-6.42364
-6.28706
-6.14377
-5.99373
-5.83692
-5.67334
-5.50301
-5.32596
-5.14225
-4.95194
-4.75511
-4.55185
-4.3423
-4.12656
-3.90479
-3.67715
-3.44381
-3.20496
-2.9608
-2.71155
-2.45743
-2.19869
-1.93557
-1.66833
-1.39725
-1.12261
-0.844687
-0.563785
-0.280201
0.00575873
0.293785
0.583564
0.874781
1.16712
1.46027
1.7539
2.04772
2.34141
2.63466
2.92717
3.21865
3.50882
3.79739
4.0841
4.36867
4.65087
4.93045
5.20717
5.48084
5.75123
6.01815
6.28143
6.54089
6.79637
7.04775
7.29487
7.53763
7.77591
8.00963
8.23868
8.46299
8.68251
8.89717
9.10692
9.31174
9.51155
9.70631
9.89594
10.0804
10.2596
10.4336
10.6025
10.7662
10.9248
11.0788
11.2284
11.3752
11.5194
11.6725
11.8104
-6.70982
-6.71135
-6.71315
-6.71471
-6.71581
-6.7166
-6.71726
-6.71795
-6.71877
-6.71979
-6.72109
-6.72269
-6.72464
-6.72697
-6.7297
-6.73287
-6.7365
-6.74062
-6.74528
-6.7505
-6.75631
-6.76276
-6.76986
-6.77767
-6.78622
-6.79552
-6.80563
-6.81657
-6.82837
-6.84107
-6.8547
-6.86927
-6.88482
-6.90151
-6.91943
-6.93836
-6.95813
-6.97907
-7.00114
-7.02395
-7.04744
-7.07181
-7.09737
-7.12431
-7.15217
-7.18062
-7.20961
-7.23907
-7.2689
-7.29907
-7.32952
-7.36017
-7.39098
-7.42186
-7.45274
-7.48352
-7.51413
-7.54445
-7.57439
-7.60383
-7.63265
-7.66074
-7.68795
-7.71417
-7.73923
-7.763
-7.78532
-7.80603
-7.82497
-7.84197
-7.85685
-7.86944
-7.87956
-7.88702
-7.89164
-7.89322
-7.8916
-7.88656
-7.87793
-7.86551
-7.84913
-7.82859
-7.80371
-7.77432
-7.74024
-7.7013
-7.65732
-7.60817
-7.55366
-7.49366
-7.42803
-7.35661
-7.27929
-7.19593
-7.10642
-7.01064
-6.90848
-6.79983
-6.68459
-6.56275
-6.43426
-6.2991
-6.15724
-6.00864
-5.85329
-5.69118
-5.52234
-5.34679
-5.16458
-4.97577
-4.78045
-4.5787
-4.37064
-4.1564
-3.93612
-3.70995
-3.47806
-3.24065
-2.9979
-2.75003
-2.49727
-2.23985
-1.97802
-1.71205
-1.44219
-1.16872
-0.891937
-0.612125
-0.329583
-0.0446152
0.24247
0.531361
0.821744
1.1133
1.40573
1.6987
1.99191
2.28505
2.57781
2.8699
3.16101
3.45087
3.73919
4.0257
4.31013
4.59225
4.8718
5.14855
5.42228
5.6928
5.95989
6.22338
6.4831
6.73888
6.99059
7.23808
7.48124
7.71995
7.95411
8.18363
8.40844
8.62848
8.84368
9.05397
9.25931
9.45959
9.65482
9.84496
10.03
10.2098
10.3844
10.5539
10.7183
10.8777
11.0325
11.183
11.3307
11.475
11.627
11.7527
-6.70436
-6.70661
-6.70945
-6.71188
-6.71362
-6.71489
-6.71593
-6.71693
-6.71799
-6.71921
-6.72067
-6.72241
-6.72448
-6.72692
-6.72975
-6.73301
-6.73674
-6.74096
-6.74571
-6.75102
-6.75692
-6.76345
-6.77065
-6.77855
-6.78718
-6.79659
-6.80681
-6.81786
-6.82979
-6.84262
-6.8564
-6.87115
-6.88692
-6.90374
-6.9216
-6.94047
-6.96038
-6.98133
-7.00321
-7.02591
-7.04944
-7.07388
-7.0994
-7.12594
-7.15327
-7.18121
-7.2097
-7.23866
-7.26803
-7.29777
-7.3278
-7.35806
-7.3885
-7.41902
-7.44957
-7.48004
-7.51035
-7.54041
-7.57011
-7.59934
-7.62798
-7.65591
-7.683
-7.70911
-7.73411
-7.75784
-7.78015
-7.80089
-7.81988
-7.83696
-7.85196
-7.8647
-7.87499
-7.88266
-7.88751
-7.88937
-7.88804
-7.88333
-7.87505
-7.86302
-7.84705
-7.82696
-7.80256
-7.77367
-7.74012
-7.70174
-7.65836
-7.60982
-7.55597
-7.49664
-7.43171
-7.36102
-7.28445
-7.20187
-7.11315
-7.01819
-6.91688
-6.80911
-6.69482
-6.57395
-6.44644
-6.31228
-6.17141
-6.02381
-5.86947
-5.70837
-5.54055
-5.36602
-5.18483
-4.99705
-4.80275
-4.60202
-4.39498
-4.18175
-3.96247
-3.7373
-3.5064
-3.26995
-3.02816
-2.78124
-2.5294
-2.27288
-2.01193
-1.74681
-1.47778
-1.20512
-0.929109
-0.650041
-0.368213
-0.0839257
0.202513
0.490792
0.7806
1.07162
1.36355
1.65606
1.94884
2.2416
2.53402
2.8258
3.11665
3.40629
3.69442
3.98078
4.26511
4.54716
4.82668
5.10343
5.37721
5.6478
5.915
6.17863
6.43852
6.69451
6.94644
7.19418
7.43761
7.67661
7.91109
8.14095
8.36612
8.58652
8.80208
9.01274
9.21841
9.41902
9.61453
9.80496
9.99028
10.1704
10.3454
10.5153
10.6801
10.84
10.9951
11.146
11.2936
11.4368
11.586
11.7001
-6.69915
-6.70214
-6.70596
-6.70928
-6.71171
-6.71355
-6.71507
-6.71647
-6.71788
-6.71941
-6.72115
-6.72314
-6.72545
-6.72811
-6.73117
-6.73465
-6.73859
-6.74302
-6.74798
-6.75351
-6.75963
-6.76639
-6.77382
-6.78196
-6.79085
-6.80051
-6.81099
-6.82232
-6.83454
-6.84767
-6.86174
-6.87678
-6.89281
-6.90986
-6.9279
-6.94691
-6.96689
-6.98784
-7.00969
-7.03238
-7.05589
-7.08024
-7.10547
-7.13155
-7.15838
-7.18585
-7.21389
-7.24243
-7.27142
-7.30079
-7.33049
-7.36044
-7.39058
-7.42084
-7.45114
-7.48139
-7.51151
-7.54139
-7.57093
-7.60003
-7.62857
-7.65642
-7.68345
-7.70953
-7.73452
-7.75827
-7.78062
-7.80141
-7.82049
-7.83767
-7.85279
-7.86567
-7.87613
-7.88398
-7.88904
-7.89111
-7.89002
-7.88557
-7.87757
-7.86583
-7.85017
-7.83041
-7.80635
-7.77783
-7.74466
-7.70668
-7.66372
-7.61561
-7.5622
-7.50335
-7.4389
-7.36872
-7.29267
-7.21063
-7.12248
-7.0281
-6.92738
-6.82025
-6.70662
-6.58642
-6.4596
-6.32611
-6.18591
-6.03898
-5.8853
-5.72488
-5.55773
-5.38387
-5.20336
-5.01625
-4.82263
-4.62258
-4.41621
-4.20365
-3.98503
-3.76052
-3.53027
-3.29447
-3.05331
-2.80701
-2.55579
-2.29987
-2.03951
-1.77497
-1.5065
-1.23438
-0.958902
-0.680343
-0.399004
-0.115186
0.170805
0.458659
0.748063
1.03871
1.33027
1.62246
1.91494
2.20742
2.49958
2.79114
3.08179
3.37125
3.65923
3.94548
4.22971
4.51169
4.79117
5.06791
5.34169
5.61231
5.87957
6.14327
6.40326
6.65936
6.91143
7.15933
7.40294
7.64214
7.87683
8.10692
8.33231
8.55295
8.76874
8.97962
9.18551
9.38632
9.58203
9.77266
9.95818
10.1386
10.3138
10.4839
10.6489
10.809
10.9643
11.115
11.2621
11.4036
11.5497
11.6534
-6.69526
-6.69879
-6.70342
-6.7075
-6.71059
-6.71298
-6.71499
-6.71682
-6.71863
-6.72053
-6.7226
-6.72492
-6.72753
-6.73049
-6.73384
-6.73761
-6.74184
-6.74657
-6.75183
-6.75765
-6.76408
-6.77115
-6.77889
-6.78735
-6.79656
-6.80655
-6.81736
-6.82901
-6.84155
-6.85499
-6.86935
-6.88466
-6.90092
-6.91814
-6.93631
-6.95542
-6.97546
-6.99639
-7.0182
-7.04083
-7.06428
-7.08853
-7.11357
-7.13937
-7.16587
-7.19301
-7.22073
-7.24897
-7.27768
-7.30679
-7.33625
-7.36599
-7.39594
-7.42603
-7.45617
-7.4863
-7.51631
-7.5461
-7.57558
-7.60464
-7.63315
-7.661
-7.68804
-7.71416
-7.7392
-7.76301
-7.78544
-7.80633
-7.82551
-7.84282
-7.85807
-7.87109
-7.8817
-7.88972
-7.89495
-7.8972
-7.8963
-7.89205
-7.88425
-7.87273
-7.85729
-7.83776
-7.81394
-7.78566
-7.75274
-7.71502
-7.67233
-7.62451
-7.5714
-7.51284
-7.44871
-7.37886
-7.30315
-7.22146
-7.13367
-7.03967
-6.93935
-6.83264
-6.71943
-6.59966
-6.47326
-6.34019
-6.20041
-6.0539
-5.90064
-5.74063
-5.57389
-5.40045
-5.22035
-5.03366
-4.84045
-4.64081
-4.43486
-4.22272
-4.00452
-3.78042
-3.55058
-3.31519
-3.07444
-2.82855
-2.57772
-2.3222
-2.06224
-1.79807
-1.52998
-1.25823
-0.983111
-0.704903
-0.423903
-0.140413
0.145261
0.432809
0.721922
1.01229
1.30359
1.59552
1.88777
2.18003
2.47199
2.76336
3.05384
3.34315
3.63101
3.91713
4.20127
4.48316
4.76258
5.03927
5.31302
5.58363
5.85089
6.11461
6.37463
6.63079
6.88293
7.13092
7.37462
7.61394
7.84875
8.07896
8.3045
8.52527
8.74121
8.95222
9.15825
9.3592
9.55506
9.74583
9.93148
10.112
10.2874
10.4576
10.6227
10.7828
10.938
11.0884
11.2346
11.3742
11.5175
11.6121
-6.69304
-6.69699
-6.70223
-6.70693
-6.71058
-6.71347
-6.71594
-6.7182
-6.7204
-6.72267
-6.7251
-6.72775
-6.7307
-6.73399
-6.73766
-6.74175
-6.74631
-6.75136
-6.75694
-6.7631
-6.76986
-6.77727
-6.78535
-6.79414
-6.80368
-6.81401
-6.82514
-6.83711
-6.84994
-6.86366
-6.87828
-6.8938
-6.91025
-6.92761
-6.94588
-6.96506
-6.98512
-7.00605
-7.02781
-7.0504
-7.07377
-7.09793
-7.12283
-7.14846
-7.17477
-7.20171
-7.22923
-7.25729
-7.28582
-7.31478
-7.34411
-7.37373
-7.40358
-7.4336
-7.46369
-7.49378
-7.52377
-7.55357
-7.58307
-7.61216
-7.64072
-7.66863
-7.69576
-7.72196
-7.7471
-7.77102
-7.79356
-7.81458
-7.83389
-7.85132
-7.86671
-7.87987
-7.89062
-7.89877
-7.90414
-7.90654
-7.90578
-7.90166
-7.89401
-7.88262
-7.86732
-7.84792
-7.82424
-7.7961
-7.76333
-7.72575
-7.6832
-7.63553
-7.58257
-7.52419
-7.46022
-7.39054
-7.31502
-7.23352
-7.14594
-7.05215
-6.95206
-6.84557
-6.73259
-6.61304
-6.48687
-6.35402
-6.21445
-6.06815
-5.9151
-5.7553
-5.58877
-5.41554
-5.23566
-5.04918
-4.85619
-4.65677
-4.45104
-4.23913
-4.02116
-3.79729
-3.56769
-3.33254
-3.09203
-2.84637
-2.59579
-2.34052
-2.08079
-1.81687
-1.54903
-1.27752
-1.00264
-0.724672
-0.443907
-0.160649
0.124797
0.412123
0.701018
0.99117
1.28227
1.574
1.86606
2.15814
2.44993
2.74114
3.03146
3.32063
3.60835
3.89435
4.17838
4.46017
4.73949
5.01611
5.28979
5.56035
5.82757
6.09127
6.35127
6.60743
6.85958
7.10759
7.35133
7.59068
7.82555
8.05583
8.28143
8.50228
8.71829
8.92938
9.13548
9.33653
9.53248
9.72334
9.90908
10.0897
10.2651
10.4354
10.6005
10.7606
10.9155
11.0653
11.2105
11.348
11.4888
11.5754
-6.6928
-6.69702
-6.70267
-6.70782
-6.71189
-6.7152
-6.71807
-6.7207
-6.72327
-6.72588
-6.72864
-6.73162
-6.73488
-6.73848
-6.74246
-6.74687
-6.75174
-6.7571
-6.76301
-6.76948
-6.77655
-6.78427
-6.79267
-6.80177
-6.81162
-6.82223
-6.83365
-6.84588
-6.85896
-6.8729
-6.88772
-6.90341
-6.92
-6.93747
-6.95582
-6.97504
-6.99512
-7.01605
-7.03779
-7.06034
-7.08367
-7.10776
-7.13259
-7.15813
-7.18434
-7.21118
-7.23861
-7.26658
-7.29505
-7.32395
-7.35324
-7.38285
-7.4127
-7.44273
-7.47286
-7.503
-7.53306
-7.56294
-7.59253
-7.62172
-7.65039
-7.67842
-7.70567
-7.73201
-7.75728
-7.78133
-7.80401
-7.82516
-7.8446
-7.86216
-7.87768
-7.89095
-7.90181
-7.91007
-7.91554
-7.91803
-7.91735
-7.91331
-7.90572
-7.89439
-7.87915
-7.8598
-7.83616
-7.80806
-7.77533
-7.73778
-7.69527
-7.64764
-7.59471
-7.53637
-7.47244
-7.40282
-7.32735
-7.24591
-7.15839
-7.06468
-6.96466
-6.85824
-6.74533
-6.62585
-6.49973
-6.36694
-6.22743
-6.08118
-5.92817
-5.76842
-5.60194
-5.42877
-5.24894
-5.06253
-4.8696
-4.67026
-4.46462
-4.25279
-4.03491
-3.81114
-3.58165
-3.34661
-3.10623
-2.8607
-2.61025
-2.35511
-2.09554
-1.83177
-1.56407
-1.29273
-1.01801
-0.740207
-0.459611
-0.176523
0.108751
0.395904
0.684626
0.974605
1.26553
1.55709
1.84899
2.1409
2.43253
2.72358
3.01375
3.30276
3.59033
3.8762
4.16009
4.44176
4.72097
4.99747
5.27106
5.54153
5.80866
6.07229
6.33224
6.58834
6.84045
7.08843
7.33215
7.57149
7.80636
8.03664
8.26226
8.48313
8.69916
8.91028
9.11642
9.31751
9.51352
9.70444
9.89023
10.0709
10.2463
10.4166
10.5816
10.7415
10.8961
11.0452
11.1892
11.3247
11.4631
11.5429
-6.69461
-6.69895
-6.70481
-6.71023
-6.7146
-6.71822
-6.7214
-6.72435
-6.72721
-6.73011
-6.73314
-6.7364
-6.73993
-6.7438
-6.74805
-6.75272
-6.75786
-6.76349
-6.76965
-6.77639
-6.78373
-6.7917
-6.80035
-6.8097
-6.81979
-6.83063
-6.84226
-6.8547
-6.86796
-6.88206
-6.89702
-6.91284
-6.92952
-6.94707
-6.96547
-6.98473
-7.00484
-7.02577
-7.04751
-7.07005
-7.09337
-7.11745
-7.14226
-7.16778
-7.19397
-7.2208
-7.24823
-7.27621
-7.3047
-7.33364
-7.36298
-7.39266
-7.42259
-7.45272
-7.48296
-7.51322
-7.54341
-7.57342
-7.60316
-7.6325
-7.66133
-7.68951
-7.71692
-7.7434
-7.76882
-7.79301
-7.81583
-7.8371
-7.85666
-7.87433
-7.88993
-7.90329
-7.91421
-7.92253
-7.92803
-7.93055
-7.92988
-7.92584
-7.91824
-7.9069
-7.89162
-7.87223
-7.84855
-7.8204
-7.7876
-7.74999
-7.70742
-7.65971
-7.60672
-7.54831
-7.48433
-7.41464
-7.33912
-7.25763
-7.17007
-7.07631
-6.97625
-6.86977
-6.75679
-6.63724
-6.51105
-6.37818
-6.2386
-6.09227
-5.93919
-5.77937
-5.61283
-5.43959
-5.25971
-5.07325
-4.88029
-4.68093
-4.47526
-4.26342
-4.04555
-3.8218
-3.59233
-3.35733
-3.11699
-2.87151
-2.62113
-2.36607
-2.10658
-1.84291
-1.57532
-1.30408
-1.02949
-0.751814
-0.471354
-0.188408
0.0967172
0.383717
0.672281
0.962099
1.25286
1.54425
1.83597
2.12771
2.41916
2.71004
3.00004
3.28888
3.57629
3.86199
4.14573
4.42724
4.7063
4.98266
5.25611
5.52644
5.79346
6.05697
6.31681
6.57281
6.82484
7.07273
7.31639
7.55567
7.79048
8.02073
8.24631
8.46715
8.68317
8.89428
9.10042
9.30153
9.49756
9.68849
9.87429
10.0549
10.2304
10.4006
10.5655
10.725
10.8792
11.0275
11.1703
11.3039
11.4401
11.5141
-6.69839
-6.70272
-6.70861
-6.71413
-6.71867
-6.72249
-6.72588
-6.72904
-6.73212
-6.73523
-6.73847
-6.74193
-6.74566
-6.74973
-6.75417
-6.75903
-6.76435
-6.77017
-6.77652
-6.78344
-6.79096
-6.79912
-6.80794
-6.81746
-6.82771
-6.8387
-6.85047
-6.86304
-6.87642
-6.89063
-6.90567
-6.92157
-6.93831
-6.95591
-6.97436
-6.99365
-7.01378
-7.03473
-7.0565
-7.07907
-7.10242
-7.12653
-7.15138
-7.17694
-7.20318
-7.23007
-7.25758
-7.28565
-7.31423
-7.34329
-7.37275
-7.40256
-7.43264
-7.46293
-7.49333
-7.52375
-7.55411
-7.5843
-7.61421
-7.64372
-7.67272
-7.70106
-7.72862
-7.75524
-7.78079
-7.8051
-7.82802
-7.84938
-7.86901
-7.88673
-7.90237
-7.91575
-7.92668
-7.93497
-7.94044
-7.9429
-7.94217
-7.93805
-7.93035
-7.9189
-7.9035
-7.88398
-7.86016
-7.83186
-7.79891
-7.76115
-7.71842
-7.67056
-7.61742
-7.55885
-7.49472
-7.42489
-7.34923
-7.26761
-7.17991
-7.08601
-6.98578
-6.87914
-6.76599
-6.64626
-6.5199
-6.38686
-6.24711
-6.10062
-5.94738
-5.78741
-5.62072
-5.44735
-5.26734
-5.08077
-4.88771
-4.68826
-4.48252
-4.27062
-4.0527
-3.82891
-3.59942
-3.36442
-3.12409
-2.87864
-2.62829
-2.37328
-2.11386
-1.85026
-1.58276
-1.31163
-1.03714
-0.759596
-0.479275
-0.19648
0.0884868
0.37532
0.663712
0.953352
1.24393
1.53513
1.82665
2.11819
2.40945
2.70012
2.98992
3.27856
3.56576
3.85126
4.13479
4.41611
4.69497
4.97114
5.24441
5.51456
5.78141
6.04476
6.30444
6.5603
6.81219
7.05996
7.3035
7.54268
7.7774
8.00757
8.23308
8.45385
8.66982
8.88089
9.087
9.28809
9.48411
9.67503
9.86082
10.0414
10.2168
10.3869
10.5516
10.7108
10.8644
11.0119
11.1535
11.2851
11.4194
11.4885
-6.70393
-6.70815
-6.71393
-6.71941
-6.72399
-6.72789
-6.73138
-6.73465
-6.73784
-6.74107
-6.74442
-6.74799
-6.75182
-6.75598
-6.76052
-6.76548
-6.7709
-6.77681
-6.78325
-6.79026
-6.79787
-6.80612
-6.81503
-6.82463
-6.83495
-6.84602
-6.85786
-6.87049
-6.88393
-6.89818
-6.91327
-6.92921
-6.94599
-6.96362
-6.98209
-7.00142
-7.02158
-7.04258
-7.06439
-7.08702
-7.11043
-7.13462
-7.15955
-7.18521
-7.21156
-7.23857
-7.26621
-7.29442
-7.32316
-7.35237
-7.382
-7.41199
-7.44225
-7.47271
-7.5033
-7.5339
-7.56444
-7.5948
-7.62488
-7.65454
-7.68368
-7.71215
-7.73982
-7.76654
-7.79216
-7.81653
-7.83949
-7.86086
-7.88048
-7.89818
-7.91377
-7.92707
-7.9379
-7.94609
-7.95143
-7.95374
-7.95284
-7.94854
-7.94065
-7.929
-7.91339
-7.89365
-7.86961
-7.84108
-7.8079
-7.76991
-7.72695
-7.67886
-7.6255
-7.56671
-7.50236
-7.43233
-7.35647
-7.27465
-7.18673
-7.09259
-6.99212
-6.88523
-6.77183
-6.65186
-6.52526
-6.39199
-6.25201
-6.1053
-5.95185
-5.79168
-5.62481
-5.45127
-5.2711
-5.08439
-4.8912
-4.69164
-4.4858
-4.27383
-4.05585
-3.83202
-3.6025
-3.36749
-3.12717
-2.88176
-2.63146
-2.37652
-2.11717
-1.85368
-1.58629
-1.31528
-1.04094
-0.763542
-0.483389
-0.200774
0.0840032
0.370637
0.658819
0.94824
1.23859
1.52956
1.82084
2.11214
2.40314
2.69356
2.98311
3.27149
3.55843
3.84368
4.12696
4.40802
4.68663
4.96256
5.2356
5.50552
5.77214
6.03528
6.29476
6.55043
6.80213
7.04973
7.29311
7.53214
7.76673
7.99677
8.22217
8.44285
8.65873
8.86973
9.07578
9.27683
9.47282
9.66371
9.84945
10.03
10.2053
10.3752
10.5397
10.6985
10.8516
10.9982
11.1385
11.2683
11.4007
11.4658
-6.71101
-6.71504
-6.72059
-6.7259
-6.73039
-6.73425
-6.73773
-6.741
-6.74419
-6.74741
-6.75076
-6.75432
-6.75814
-6.76229
-6.76682
-6.77176
-6.77716
-6.78306
-6.7895
-6.7965
-6.80411
-6.81235
-6.82125
-6.83085
-6.84118
-6.85225
-6.86409
-6.87672
-6.89015
-6.90442
-6.91951
-6.93545
-6.95225
-6.96989
-6.9884
-7.00775
-7.02796
-7.04901
-7.07089
-7.09359
-7.1171
-7.14139
-7.16644
-7.19223
-7.21872
-7.24588
-7.27367
-7.30204
-7.33095
-7.36034
-7.39015
-7.4203
-7.45073
-7.48136
-7.5121
-7.54286
-7.57353
-7.60401
-7.63419
-7.66394
-7.69314
-7.72165
-7.74934
-7.77606
-7.80166
-7.82599
-7.84887
-7.87014
-7.88965
-7.9072
-7.92262
-7.93574
-7.94637
-7.95432
-7.95942
-7.96148
-7.96031
-7.95573
-7.94756
-7.93561
-7.91971
-7.89967
-7.87532
-7.8465
-7.81303
-7.77475
-7.73151
-7.68314
-7.62951
-7.57047
-7.50587
-7.4356
-7.3595
-7.27741
-7.1892
-7.09476
-6.994
-6.88681
-6.77313
-6.65288
-6.52601
-6.39247
-6.25224
-6.1053
-5.95164
-5.79127
-5.62421
-5.4505
-5.27019
-5.08335
-4.89005
-4.69039
-4.48449
-4.27246
-4.05445
-3.83061
-3.60111
-3.36612
-3.12586
-2.88051
-2.63031
-2.37548
-2.11626
-1.8529
-1.58568
-1.31485
-1.0407
-0.763512
-0.483584
-0.201208
0.0833175
0.369688
0.657596
0.946733
1.23679
1.52746
1.81844
2.10942
2.40011
2.69021
2.97943
3.26749
3.55411
3.83903
4.12199
4.40275
4.68105
4.95667
5.22941
5.49904
5.76538
6.02825
6.28747
6.54289
6.79436
7.04175
7.28492
7.52376
7.75817
7.98805
8.21331
8.43386
8.64963
8.86054
9.06651
9.26749
9.46343
9.65427
9.83995
10.0204
10.1956
10.3653
10.5295
10.688
10.8404
10.9861
11.1252
11.2533
11.3839
11.4457
-6.71938
-6.72318
-6.72842
-6.73346
-6.73776
-6.74145
-6.74478
-6.7479
-6.75095
-6.75403
-6.75725
-6.76066
-6.76435
-6.76836
-6.77275
-6.77757
-6.78284
-6.78863
-6.79495
-6.80185
-6.80935
-6.8175
-6.82632
-6.83584
-6.84609
-6.8571
-6.86888
-6.88145
-6.89485
-6.90907
-6.92414
-6.94006
-6.95684
-6.97449
-6.99301
-7.01239
-7.03264
-7.05375
-7.0757
-7.09848
-7.12208
-7.14648
-7.17164
-7.19756
-7.22418
-7.25147
-7.2794
-7.30791
-7.33695
-7.36647
-7.39639
-7.42665
-7.45718
-7.48789
-7.51869
-7.54949
-7.58018
-7.61067
-7.64082
-7.67053
-7.69966
-7.72808
-7.75564
-7.78222
-7.80764
-7.83177
-7.85443
-7.87546
-7.8947
-7.91197
-7.92709
-7.93989
-7.95018
-7.9578
-7.96254
-7.96424
-7.9627
-7.95775
-7.94921
-7.93689
-7.92063
-7.90024
-7.87555
-7.84639
-7.8126
-7.77401
-7.73047
-7.68182
-7.62792
-7.56862
-7.50379
-7.43326
-7.35686
-7.27445
-7.18593
-7.09117
-6.9901
-6.88262
-6.76865
-6.64813
-6.521
-6.38722
-6.24677
-6.09962
-5.94577
-5.78524
-5.61803
-5.4442
-5.26378
-5.07686
-4.8835
-4.68381
-4.47789
-4.26587
-4.04789
-3.82411
-3.59468
-3.3598
-3.11966
-2.87446
-2.62442
-2.36978
-2.11077
-1.84764
-1.58066
-1.3101
-1.03623
-0.759339
-0.479722
-0.197671
0.0865156
0.372535
0.660081
0.948847
1.23853
1.52881
1.81939
2.10998
2.40026
2.68996
2.97878
3.26643
3.55266
3.83718
4.11974
4.40011
4.67803
4.95328
5.22565
5.49493
5.76092
6.02346
6.28237
6.53749
6.78867
7.03579
7.27871
7.51732
7.75152
7.9812
8.20629
8.42668
8.64231
8.8531
9.05898
9.25988
9.45575
9.64652
9.83213
10.0125
10.1875
10.3571
10.521
10.679
10.8307
10.9756
11.1134
11.24
11.3688
11.428
-6.72887
-6.73242
-6.73731
-6.74201
-6.74598
-6.74937
-6.75239
-6.75521
-6.75795
-6.76072
-6.76364
-6.76676
-6.77016
-6.7739
-6.77803
-6.7826
-6.78764
-6.7932
-6.79931
-6.80601
-6.81333
-6.82131
-6.82996
-6.83934
-6.84945
-6.86032
-6.87199
-6.88446
-6.89776
-6.9119
-6.9269
-6.94276
-6.9595
-6.97712
-6.99563
-7.01501
-7.03527
-7.0564
-7.07838
-7.10121
-7.12486
-7.14931
-7.17453
-7.2005
-7.22717
-7.25451
-7.28248
-7.31101
-7.34006
-7.36957
-7.39947
-7.42968
-7.46014
-7.49076
-7.52144
-7.5521
-7.58263
-7.61292
-7.64286
-7.67233
-7.7012
-7.72933
-7.7566
-7.78284
-7.80792
-7.83168
-7.85396
-7.8746
-7.89342
-7.91027
-7.92496
-7.93732
-7.94718
-7.95435
-7.95865
-7.95991
-7.95794
-7.95257
-7.94361
-7.9309
-7.91425
-7.89349
-7.86845
-7.83896
-7.80485
-7.76598
-7.72217
-7.67328
-7.61915
-7.55963
-7.49455
-7.42373
-7.34701
-7.26429
-7.17546
-7.08042
-6.97907
-6.87133
-6.75712
-6.63637
-6.50904
-6.37509
-6.23447
-6.08719
-5.93323
-5.7726
-5.60534
-5.43146
-5.25103
-5.06412
-4.8708
-4.67116
-4.46533
-4.25343
-4.03558
-3.81196
-3.58272
-3.34805
-3.10814
-2.86319
-2.61344
-2.35909
-2.1004
-1.83761
-1.57099
-1.30081
-1.02733
-0.750854
-0.471661
-0.190048
0.0936878
0.379245
0.666319
0.954605
1.2438
1.53359
1.82367
2.11376
2.40354
2.69274
2.98106
3.26821
3.55394
3.83798
4.12006
4.39995
4.67741
4.95221
5.22414
5.49299
5.75858
6.02073
6.27926
6.53402
6.78487
7.03166
7.27429
7.51263
7.74657
7.97603
8.20091
8.42113
8.6366
8.84726
9.05302
9.25383
9.44962
9.64032
9.82585
10.0061
10.181
10.3503
10.5139
10.6715
10.8226
10.9666
11.1032
11.2283
11.3553
11.4127
-6.73979
-6.74312
-6.74765
-6.75191
-6.75541
-6.75829
-6.76078
-6.76306
-6.76527
-6.76753
-6.76994
-6.77258
-6.77553
-6.77884
-6.78257
-6.78675
-6.79144
-6.79666
-6.80246
-6.80886
-6.8159
-6.82361
-6.83202
-6.84116
-6.85105
-6.86171
-6.87318
-6.88546
-6.89859
-6.91257
-6.92742
-6.94315
-6.95976
-6.97726
-6.99565
-7.01493
-7.03509
-7.05612
-7.07801
-7.10074
-7.12429
-7.14864
-7.17374
-7.19958
-7.22611
-7.25329
-7.28108
-7.30941
-7.33824
-7.3675
-7.39713
-7.42705
-7.45719
-7.48746
-7.51778
-7.54805
-7.57817
-7.60803
-7.63752
-7.66652
-7.6949
-7.72254
-7.74929
-7.77501
-7.79956
-7.82279
-7.84453
-7.86462
-7.88291
-7.89921
-7.91337
-7.9252
-7.93453
-7.94119
-7.945
-7.94578
-7.94336
-7.93755
-7.92818
-7.91507
-7.89806
-7.87696
-7.85162
-7.82185
-7.78751
-7.74842
-7.70444
-7.65539
-7.6011
-7.54137
-7.47602
-7.4049
-7.32792
-7.24495
-7.15589
-7.06064
-6.95911
-6.8512
-6.73685
-6.61598
-6.48856
-6.35453
-6.21387
-6.06657
-5.91262
-5.75204
-5.58483
-5.41105
-5.23075
-5.04398
-4.85083
-4.65141
-4.4458
-4.23415
-4.0166
-3.79328
-3.56438
-3.33007
-3.09054
-2.84601
-2.59668
-2.34279
-2.08457
-1.82228
-1.55617
-1.28652
-1.01359
-0.737671