/*--------------------------------*- C++ -*----------------------------------*\
  =========                 |
  \\      /  F ield         | OpenFOAM: The Open Source CFD Toolbox
   \\    /   O peration     | Website:  https://openfoam.org
    \\  /    A nd           | Version:  9
     \\/     M anipulation  |
\*---------------------------------------------------------------------------*/
FoamFile
{
    format      ascii;
    class       surfaceScalarField;
    location    "0.27";
    object      phi;
}
// * * * * * * * * * * * * * * * * * * * * * * * * * * * * * * * * * * * * * //

dimensions      [0 3 -1 0 0 0 0];

internalField   nonuniform List<scalar> 
24170
(
3.1336e-06
5.48062e-08
3.04827e-06
8.53262e-08
2.97315e-06
7.51233e-08
2.90431e-06
6.88355e-08
2.83949e-06
6.48284e-08
2.78227e-06
5.72207e-08
2.73337e-06
4.88986e-08
2.69184e-06
4.1523e-08
2.65641e-06
3.54377e-08
2.62589e-06
3.052e-08
2.59932e-06
2.65705e-08
2.57589e-06
2.34251e-08
2.55493e-06
2.09646e-08
2.53575e-06
1.91753e-08
2.51773e-06
1.80253e-08
2.49908e-06
1.86423e-08
2.47857e-06
2.05165e-08
3.76297e-08
2.44094e-06
3.45361e-06
1.84442e-08
3.45616e-06
8.27726e-08
3.44962e-06
8.16674e-08
3.438e-06
8.04563e-08
3.42351e-06
7.93159e-08
3.40597e-06
7.47605e-08
3.38634e-06
6.85268e-08
3.36544e-06
6.24252e-08
3.34404e-06
5.68429e-08
3.32273e-06
5.18221e-08
3.30193e-06
4.73706e-08
3.28186e-06
4.3498e-08
3.26263e-06
4.0197e-08
3.24423e-06
3.75769e-08
3.2267e-06
3.55506e-08
3.2099e-06
3.54493e-08
3.1947e-06
3.57074e-08
4.58384e-08
3.1865e-06
3.66535e-06
1.56074e-08
3.67825e-06
6.9873e-08
3.68531e-06
7.46058e-08
3.6896e-06
7.61735e-08
3.69127e-06
7.76414e-08
3.69014e-06
7.58913e-08
3.68669e-06
7.19772e-08
3.6815e-06
6.76193e-08
3.67499e-06
6.33542e-08
3.66751e-06
5.93009e-08
3.65934e-06
5.55357e-08
3.6507e-06
5.21368e-08
3.64174e-06
4.9159e-08
3.63257e-06
4.67508e-08
3.62318e-06
4.49363e-08
3.61401e-06
4.46157e-08
3.60473e-06
4.49878e-08
4.9562e-08
3.60101e-06
3.92465e-06
1.63466e-08
3.9358e-06
5.87208e-08
3.94255e-06
6.78612e-08
3.94802e-06
7.06963e-08
3.95244e-06
7.32283e-08
3.95536e-06
7.29697e-08
3.95691e-06
7.04227e-08
3.9574e-06
6.7135e-08
3.957e-06
6.37516e-08
3.95587e-06
6.04318e-08
3.95413e-06
5.72692e-08
3.95191e-06
5.43644e-08
3.94927e-06
5.18e-08
3.9463e-06
4.97186e-08
3.94304e-06
4.81973e-08
3.93992e-06
4.77362e-08
3.93694e-06
4.79635e-08
4.98242e-08
3.93668e-06
4.20777e-06
1.57061e-08
4.216e-06
5.04883e-08
4.22167e-06
6.21961e-08
4.2266e-06
6.57627e-08
4.2313e-06
6.85276e-08
4.23526e-06
6.90108e-08
4.23836e-06
6.73249e-08
4.24073e-06
6.47626e-08
4.24249e-06
6.19944e-08
4.24371e-06
5.92044e-08
4.24449e-06
5.64934e-08
4.24488e-06
5.39705e-08
4.24495e-06
5.17294e-08
4.24478e-06
4.98915e-08
4.24444e-06
4.85348e-08
4.24428e-06
4.79024e-08
4.24447e-06
4.77736e-08
4.81862e-08
4.2461e-06
4.51044e-06
1.43531e-08
4.51686e-06
4.40649e-08
4.52218e-06
5.68835e-08
4.52684e-06
6.11015e-08
4.53145e-06
6.39124e-08
4.53565e-06
6.48174e-08
4.53923e-06
6.37381e-08
4.54228e-06
6.17154e-08
4.54487e-06
5.9406e-08
4.54706e-06
5.70172e-08
4.54889e-06
5.46557e-08
4.55043e-06
5.24308e-08
4.55173e-06
5.04361e-08
4.55285e-06
4.87668e-08
4.55391e-06
4.74788e-08
4.55514e-06
4.66642e-08
4.55677e-06
4.61449e-08
4.5685e-08
4.55927e-06
4.83412e-06
1.29518e-08
4.83958e-06
3.86049e-08
4.84483e-06
5.16304e-08
4.84943e-06
5.65094e-08
4.85394e-06
5.94005e-08
4.85817e-06
6.05861e-08
4.86194e-06
5.997e-08
4.86528e-06
5.83775e-08
4.86825e-06
5.64323e-08
4.8709e-06
5.43636e-08
4.87328e-06
5.22835e-08
4.87541e-06
5.02968e-08
4.87736e-06
4.849e-08
4.87919e-06
4.69333e-08
4.88101e-06
4.56565e-08
4.88301e-06
4.46681e-08
4.88534e-06
4.38084e-08
4.28133e-08
4.88822e-06
5.1809e-06
1.16317e-08
5.18571e-06
3.37992e-08
5.19084e-06
4.64946e-08
5.19542e-06
5.19286e-08
5.19989e-06
5.49346e-08
5.20415e-06
5.63234e-08
5.20804e-06
5.60835e-08
5.21156e-06
5.48593e-08
5.21476e-06
5.32248e-08
5.2177e-06
5.14269e-08
5.2204e-06
4.95832e-08
5.22291e-06
4.7792e-08
5.22527e-06
4.61303e-08
5.22755e-06
4.4648e-08
5.22985e-06
4.33536e-08
5.23231e-06
4.22152e-08
5.23502e-06
4.10943e-08
3.9778e-08
5.23806e-06
5.5526e-06
1.03681e-08
5.55685e-06
2.95484e-08
5.56177e-06
4.15757e-08
5.56634e-06
4.73595e-08
5.5708e-06
5.04756e-08
5.57511e-06
5.20129e-08
5.57911e-06
5.20839e-08
5.58278e-06
5.11866e-08
5.58618e-06
4.98307e-08
5.58933e-06
4.82727e-08
5.59228e-06
4.66356e-08
5.59506e-06
4.5011e-08
5.59772e-06
4.34661e-08
5.60033e-06
4.20365e-08
5.60297e-06
4.07175e-08
5.60572e-06
3.94639e-08
5.60865e-06
3.81633e-08
3.66683e-08
5.61176e-06
5.95099e-06
9.15796e-09
5.95476e-06
2.57755e-08
5.95942e-06
3.69187e-08
5.96395e-06
4.28233e-08
5.96841e-06
4.60161e-08
5.97277e-06
4.76562e-08
5.97688e-06
4.79763e-08
5.9807e-06
4.73661e-08
5.98426e-06
4.62631e-08
5.98761e-06
4.49224e-08
5.99078e-06
4.34711e-08
5.9938e-06
4.19941e-08
5.99671e-06
4.05499e-08
5.99958e-06
3.91654e-08
6.00247e-06
3.78307e-08
6.00543e-06
3.65026e-08
6.0085e-06
3.50966e-08
3.35223e-08
6.01164e-06
6.37796e-06
8.01463e-09
6.38133e-06
2.24029e-08
6.38571e-06
3.25325e-08
6.39019e-06
3.83447e-08
6.39465e-06
4.1562e-08
6.39904e-06
4.32632e-08
6.40325e-06
4.37706e-08
6.40721e-06
4.34034e-08
6.41094e-06
4.2527e-08
6.41448e-06
4.13839e-08
6.41785e-06
4.01018e-08
6.42109e-06
3.87599e-08
6.42423e-06
3.74097e-08
6.42732e-06
3.60732e-08
6.43041e-06
3.4742e-08
6.43353e-06
3.33818e-08
6.43669e-06
3.19345e-08
3.03528e-08
6.43986e-06
5.74175e-06
7.09982e-09
5.74433e-06
1.98177e-08
5.74783e-06
2.90321e-08
5.75156e-06
3.46181e-08
5.75532e-06
3.78053e-08
5.75905e-06
3.95297e-08
5.76267e-06
4.01498e-08
5.76613e-06
3.99504e-08
5.76941e-06
3.92436e-08
5.77254e-06
3.82528e-08
5.77554e-06
3.71027e-08
5.77843e-06
3.58685e-08
5.78124e-06
3.4597e-08
5.78401e-06
3.3309e-08
5.78675e-06
3.19992e-08
5.78949e-06
3.06437e-08
5.79222e-06
2.92025e-08
2.76565e-08
5.79492e-06
6.99913e-06
6.12221e-09
7.00187e-06
1.70835e-08
7.00565e-06
2.52444e-08
7.00982e-06
3.04514e-08
7.0141e-06
3.35254e-08
7.0184e-06
3.52308e-08
7.02262e-06
3.59333e-08
7.02668e-06
3.58857e-08
7.03058e-06
3.53456e-08
7.03432e-06
3.45113e-08
7.03792e-06
3.3501e-08
7.04141e-06
3.2385e-08
7.0448e-06
3.12064e-08
7.04812e-06
2.99856e-08
7.0514e-06
2.8723e-08
7.05463e-06
2.74059e-08
7.05783e-06
2.60117e-08
2.45426e-08
7.06094e-06
8.53188e-06
5.091e-09
8.53474e-06
1.42267e-08
8.53878e-06
2.11965e-08
8.54338e-06
2.58508e-08
8.54821e-06
2.86996e-08
8.55312e-06
3.03231e-08
8.55799e-06
3.10605e-08
8.56274e-06
3.11331e-08
8.56734e-06
3.07463e-08
8.57179e-06
3.00669e-08
8.57608e-06
2.92022e-08
8.58025e-06
2.82166e-08
8.58431e-06
2.71498e-08
8.58827e-06
2.60229e-08
8.59215e-06
2.48427e-08
8.59595e-06
2.3607e-08
8.59966e-06
2.23073e-08
2.096e-08
8.60324e-06
1.04003e-05
4.01675e-09
1.04033e-05
1.12648e-08
1.04075e-05
1.69069e-08
1.04126e-05
2.08224e-08
1.0418e-05
2.33061e-08
1.04235e-05
2.47609e-08
1.04291e-05
2.54681e-08
1.04346e-05
2.56134e-08
1.044e-05
2.53542e-08
1.04453e-05
2.48215e-08
1.04504e-05
2.41064e-08
1.04553e-05
2.32658e-08
1.04601e-05
2.23356e-08
1.04648e-05
2.13374e-08
1.04694e-05
2.0283e-08
1.04738e-05
1.91784e-08
1.04781e-05
1.80247e-08
1.6846e-08
1.04822e-05
1.26779e-05
2.90509e-09
1.2681e-05
8.18965e-09
1.26855e-05
1.23673e-08
1.2691e-05
1.53551e-08
1.2697e-05
1.73106e-08
1.27033e-05
1.84846e-08
1.27096e-05
1.90799e-08
1.2716e-05
1.9237e-08
1.27223e-05
1.90687e-08
1.27285e-05
1.86689e-08
1.27345e-05
1.81071e-08
1.27403e-05
1.74293e-08
1.2746e-05
1.66661e-08
1.27515e-05
1.58379e-08
1.27568e-05
1.49586e-08
1.27619e-05
1.40385e-08
1.27669e-05
1.30839e-08
1.21209e-08
1.27716e-05
1.54543e-05
1.74496e-09
1.54576e-05
4.95045e-09
1.54624e-05
7.5107e-09
1.54684e-05
9.37892e-09
1.54751e-05
1.06294e-08
1.54822e-05
1.13917e-08
1.54895e-05
1.17814e-08
1.54968e-05
1.18834e-08
1.55041e-05
1.17651e-08
1.55113e-05
1.14829e-08
1.55184e-05
1.10802e-08
1.55252e-05
1.05881e-08
1.55318e-05
1.00282e-08
1.55383e-05
9.41648e-09
1.55444e-05
8.76519e-09
1.55504e-05
8.08489e-09
1.55561e-05
7.38253e-09
6.68223e-09
1.55615e-05
1.88389e-05
4.95007e-10
1.88424e-05
1.4163e-09
1.88478e-05
2.15126e-09
1.88545e-05
2.68911e-09
1.8862e-05
3.05149e-09
1.88702e-05
3.26776e-09
1.88786e-05
3.36039e-09
1.88871e-05
3.3481e-09
1.88956e-05
3.24915e-09
1.8904e-05
3.07988e-09
1.89123e-05
2.85344e-09
1.89203e-05
2.5802e-09
1.8928e-05
2.26883e-09
1.89355e-05
1.92687e-09
1.89427e-05
1.56112e-09
1.89496e-05
1.17846e-09
1.89562e-05
7.83461e-10
3.95157e-10
1.89625e-05
2.29648e-05
-9.51637e-10
2.29689e-05
-2.71396e-09
2.29752e-05
-4.14759e-09
2.29831e-05
-5.20996e-09
2.29921e-05
-5.9179e-09
2.30017e-05
-6.35816e-09
2.30117e-05
-6.62406e-09
2.30218e-05
-6.77428e-09
2.30319e-05
-6.84555e-09
2.30419e-05
-6.86902e-09
2.30516e-05
-6.86983e-09
2.3061e-05
-6.86397e-09
2.30702e-05
-6.86011e-09
2.30789e-05
-6.86271e-09
2.30874e-05
-6.87369e-09
2.30954e-05
-6.89267e-09
2.31032e-05
-6.91945e-09
-6.94188e-09
2.31105e-05
1.68118e-05
-2.09625e-09
1.68151e-05
-5.94645e-09
1.682e-05
-9.07209e-09
1.68261e-05
-1.13292e-08
1.6833e-05
-1.27665e-08
1.68402e-05
-1.36183e-08
1.68477e-05
-1.40886e-08
1.68552e-05
-1.42854e-08
1.68626e-05
-1.42838e-08
1.68699e-05
-1.41543e-08
1.6877e-05
-1.39517e-08
1.68839e-05
-1.37101e-08
1.68905e-05
-1.345e-08
1.68968e-05
-1.31847e-08
1.69028e-05
-1.29222e-08
1.69086e-05
-1.26665e-08
1.69141e-05
-1.24199e-08
-1.21745e-08
1.69193e-05
1.46357e-05
-3.2043e-09
1.46388e-05
-9.10342e-09
1.46437e-05
-1.38924e-08
1.46495e-05
-1.72058e-08
1.4656e-05
-1.919e-08
1.46627e-05
-2.03197e-08
1.46695e-05
-2.08972e-08
1.46762e-05
-2.10565e-08
1.46829e-05
-2.09177e-08
1.46893e-05
-2.05968e-08
1.46955e-05
-2.0173e-08
1.47015e-05
-1.96916e-08
1.47072e-05
-1.91815e-08
1.47127e-05
-1.86625e-08
1.47179e-05
-1.81476e-08
1.47229e-05
-1.76433e-08
1.47277e-05
-1.71536e-08
-1.66732e-08
1.47322e-05
1.27412e-05
-4.25176e-09
1.27444e-05
-1.23116e-08
1.27493e-05
-1.88461e-08
1.27551e-05
-2.29946e-08
1.27612e-05
-2.5297e-08
1.27675e-05
-2.65982e-08
1.27738e-05
-2.72023e-08
1.278e-05
-2.72363e-08
1.2786e-05
-2.68918e-08
1.27917e-05
-2.634e-08
1.27972e-05
-2.56758e-08
1.28025e-05
-2.49489e-08
1.28075e-05
-2.41933e-08
1.28123e-05
-2.34339e-08
1.28168e-05
-2.26855e-08
1.28211e-05
-2.19557e-08
1.28252e-05
-2.12484e-08
-2.05596e-08
1.28291e-05
1.10918e-05
-5.12819e-09
1.10951e-05
-1.56312e-08
1.11004e-05
-2.41375e-08
1.11062e-05
-2.87705e-08
1.1112e-05
-3.11308e-08
1.11179e-05
-3.2508e-08
1.11238e-05
-3.30503e-08
1.11294e-05
-3.28768e-08
1.11348e-05
-3.22792e-08
1.11399e-05
-3.14737e-08
1.11448e-05
-3.05577e-08
1.11495e-05
-2.95822e-08
1.11539e-05
-2.85869e-08
1.1158e-05
-2.75994e-08
1.1162e-05
-2.66345e-08
1.11657e-05
-2.56991e-08
1.11693e-05
-2.47962e-08
-2.39227e-08
1.11726e-05
9.65583e-06
-5.74144e-09
9.65935e-06
-1.91528e-08
9.66495e-06
-2.97345e-08
9.67062e-06
-3.44479e-08
9.67626e-06
-3.67621e-08
9.68188e-06
-3.81344e-08
9.6873e-06
-3.84737e-08
9.69243e-06
-3.79993e-08
9.69727e-06
-3.71189e-08
9.70185e-06
-3.60547e-08
9.70618e-06
-3.48866e-08
9.71026e-06
-3.36659e-08
9.71411e-06
-3.24375e-08
9.71774e-06
-3.12306e-08
9.72117e-06
-3.00596e-08
9.7244e-06
-2.89302e-08
9.72745e-06
-2.78437e-08
-2.67953e-08
9.73032e-06
8.40543e-06
-5.82064e-09
8.4098e-06
-2.35249e-08
8.4153e-06
-3.52333e-08
8.42049e-06
-3.9632e-08
8.42591e-06
-4.21845e-08
8.43137e-06
-4.35964e-08
8.43651e-06
-4.36132e-08
8.44126e-06
-4.27466e-08
8.44567e-06
-4.15327e-08
8.44979e-06
-4.01714e-08
8.45362e-06
-3.87201e-08
8.45719e-06
-3.72307e-08
8.4605e-06
-3.57511e-08
8.46358e-06
-3.43102e-08
8.46644e-06
-3.29218e-08
8.4691e-06
-3.15916e-08
8.47158e-06
-3.03205e-08
-2.91045e-08
8.47389e-06
7.31506e-06
-3.59264e-09
7.32194e-06
-3.04072e-08
7.32738e-06
-4.06789e-08
7.33215e-06
-4.43939e-08
7.33745e-06
-4.74887e-08
7.34282e-06
-4.89613e-08
7.34777e-06
-4.85642e-08
7.35224e-06
-4.72156e-08
7.35627e-06
-4.55625e-08
7.35988e-06
-4.37834e-08
7.36309e-06
-4.19374e-08
7.36595e-06
-4.00877e-08
7.36848e-06
-3.82838e-08
7.37073e-06
-3.65517e-08
7.37271e-06
-3.49032e-08
7.37446e-06
-3.33427e-08
7.37601e-06
-3.18674e-08
-3.0471e-08
7.37737e-06
6.36222e-06
4.25367e-09
6.37294e-06
-4.11293e-08
6.38006e-06
-4.78013e-08
6.38624e-06
-5.0568e-08
6.3922e-06
-5.34499e-08
6.39748e-06
-5.42393e-08
6.40182e-06
-5.29118e-08
6.40539e-06
-5.07796e-08
6.40828e-06
-4.84565e-08
6.41055e-06
-4.60549e-08
6.41226e-06
-4.36424e-08
6.41347e-06
-4.12966e-08
6.41425e-06
-3.90661e-08
6.41467e-06
-3.69704e-08
6.41478e-06
-3.50162e-08
6.41464e-06
-3.32047e-08
6.4143e-06
-3.15275e-08
-2.99643e-08
6.4138e-06
5.53608e-06
1.3639e-08
5.54775e-06
-5.28009e-08
5.55743e-06
-5.74838e-08
5.566e-06
-5.91317e-08
5.57276e-06
-6.02099e-08
5.57717e-06
-5.86516e-08
5.57931e-06
-5.50483e-08
5.57973e-06
-5.12024e-08
5.57886e-06
-4.75884e-08
5.57698e-06
-4.41779e-08
5.57432e-06
-4.09782e-08
5.57105e-06
-3.80272e-08
5.56732e-06
-3.53382e-08
5.56325e-06
-3.2903e-08
5.55895e-06
-3.07072e-08
5.55449e-06
-2.87478e-08
5.54998e-06
-2.70156e-08
-2.54499e-08
5.54546e-06
4.85751e-06
-1.62614e-08
4.86091e-06
-5.62011e-08
4.8615e-06
-5.8074e-08
4.85883e-06
-5.64601e-08
4.85481e-06
-5.61982e-08
4.84811e-06
-5.195e-08
4.83885e-06
-4.57874e-08
4.82759e-06
-3.99425e-08
4.81497e-06
-3.4969e-08
4.80158e-06
-3.07899e-08
4.78788e-06
-2.72691e-08
4.77415e-06
-2.43035e-08
4.76062e-06
-2.18024e-08
4.7474e-06
-1.96865e-08
4.73459e-06
-1.78929e-08
4.72225e-06
-1.64118e-08
4.7105e-06
-1.52695e-08
-1.49592e-08
4.70001e-06
4.18641e-06
4.13021e-06
4.07214e-06
4.01568e-06
3.95948e-06
3.90753e-06
3.86174e-06
3.8218e-06
3.78683e-06
3.75604e-06
3.72877e-06
3.70447e-06
3.68267e-06
3.66298e-06
3.64509e-06
3.62868e-06
3.61341e-06
3.59845e-06
9.25463e-09
-9.25463e-09
2.00973e-08
-1.08427e-08
2.80252e-08
-7.92785e-09
3.18254e-08
-3.80021e-09
3.12248e-08
6.0055e-10
2.67511e-08
4.47368e-09
1.90939e-08
7.65727e-09
8.98265e-09
1.01112e-08
-2.98557e-09
1.19682e-08
-1.63989e-08
1.34133e-08
-3.10016e-08
1.46027e-08
-4.66399e-08
1.56382e-08
-6.32251e-08
1.65852e-08
-8.07054e-08
1.74803e-08
-9.90479e-08
1.83425e-08
-1.18228e-07
1.91802e-08
-1.38225e-07
1.99969e-08
-1.59018e-07
2.07934e-08
-1.80588e-07
2.15694e-08
-2.02911e-07
2.23237e-08
-2.25966e-07
2.30541e-08
-2.49723e-07
2.3757e-08
-2.74148e-07
2.4426e-08
-2.99201e-07
2.50526e-08
-3.24828e-07
2.56266e-08
-3.50964e-07
2.61365e-08
-3.77536e-07
2.65714e-08
-4.0447e-07
2.6934e-08
-4.31757e-07
2.7287e-08
-4.59574e-07
2.78172e-08
-4.88393e-07
2.88194e-08
-5.18716e-07
3.03233e-08
-5.49822e-07
3.11056e-08
-5.79019e-07
2.91972e-08
-6.06376e-07
2.73569e-08
-6.39252e-07
3.28754e-08
-6.79806e-07
4.05545e-08
-7.17135e-07
3.73287e-08
-7.48455e-07
3.13201e-08
-7.86076e-07
3.76216e-08
-8.27557e-07
4.14804e-08
-8.72168e-07
4.46115e-08
-9.20022e-07
4.78539e-08
-9.60373e-07
4.03512e-08
-9.98597e-07
3.82236e-08
-1.0402e-06
4.16037e-08
-1.08335e-06
4.31473e-08
-1.12738e-06
4.40316e-08
-1.17194e-06
4.45642e-08
-1.2168e-06
4.48522e-08
-1.26178e-06
4.498e-08
-1.30677e-06
4.49972e-08
-1.35171e-06
4.49349e-08
-1.39652e-06
4.48128e-08
-1.44116e-06
4.46432e-08
-1.4856e-06
4.44341e-08
-1.52979e-06
4.41904e-08
-1.5737e-06
4.39148e-08
-1.61731e-06
4.36087e-08
-1.66058e-06
4.32726e-08
-1.70349e-06
4.29063e-08
-1.746e-06
4.25091e-08
-1.78808e-06
4.20801e-08
-1.8297e-06
4.16183e-08
-1.87082e-06
4.11226e-08
-1.91141e-06
4.05918e-08
-1.95144e-06
4.00249e-08
-1.99086e-06
3.94209e-08
-2.02964e-06
3.8779e-08
-2.06774e-06
3.80984e-08
-2.10511e-06
3.73788e-08
-2.14173e-06
3.66195e-08
-2.17755e-06
3.58205e-08
-2.21254e-06
3.49816e-08
-2.24664e-06
3.41029e-08
-2.27982e-06
3.31847e-08
-2.31205e-06
3.22274e-08
-2.34328e-06
3.12314e-08
-2.37348e-06
3.01974e-08
-2.40261e-06
2.9126e-08
-2.43062e-06
2.80179e-08
-2.4575e-06
2.68739e-08
-2.48319e-06
2.56949e-08
-2.50767e-06
2.44816e-08
-2.53091e-06
2.32346e-08
-2.55286e-06
2.19544e-08
-2.57351e-06
2.06414e-08
-2.5928e-06
1.92955e-08
-2.61072e-06
1.79164e-08
-2.62722e-06
1.65033e-08
-2.64227e-06
1.50544e-08
-2.65584e-06
1.3567e-08
-2.66788e-06
1.20377e-08
-2.67834e-06
1.04597e-08
-2.68716e-06
8.82459e-09
-2.69428e-06
7.12048e-09
-2.69961e-06
5.33035e-09
-2.70306e-06
3.44314e-09
-2.70452e-06
1.46172e-09
-2.70398e-06
-5.40213e-10
-2.70178e-06
-2.20147e-09
-2.69799e-06
-3.79174e-09
-2.69263e-06
-5.35208e-09
-2.68573e-06
-6.90504e-09
-2.67727e-06
-8.46224e-09
-2.66724e-06
-1.00257e-08
-2.65565e-06
-1.15949e-08
-2.64248e-06
-1.31682e-08
-2.62773e-06
-1.47437e-08
-2.61141e-06
-1.63193e-08
-2.59352e-06
-1.7893e-08
-2.57406e-06
-1.94626e-08
-2.55303e-06
-2.10259e-08
-2.53045e-06
-2.25811e-08
-2.50633e-06
-2.41258e-08
-2.48067e-06
-2.56582e-08
-2.45349e-06
-2.71761e-08
-2.42481e-06
-2.86775e-08
-2.39465e-06
-3.01603e-08
-2.36303e-06
-3.16225e-08
-2.32997e-06
-3.30621e-08
-2.29549e-06
-3.44772e-08
-2.25963e-06
-3.58659e-08
-2.2224e-06
-3.72264e-08
-2.18384e-06
-3.85569e-08
-2.14399e-06
-3.98558e-08
-2.10287e-06
-4.11213e-08
-2.06051e-06
-4.23519e-08
-2.01697e-06
-4.35458e-08
-1.97227e-06
-4.47016e-08
-1.92645e-06
-4.58177e-08
-1.87956e-06
-4.68929e-08
-1.83163e-06
-4.7926e-08
-1.78271e-06
-4.89158e-08
-1.73285e-06
-4.98614e-08
-1.68209e-06
-5.07618e-08
-1.63048e-06
-5.16159e-08
-1.57805e-06
-5.24232e-08
-1.52487e-06
-5.3183e-08
-1.47097e-06
-5.38949e-08
-1.41642e-06
-5.45588e-08
-1.36124e-06
-5.51743e-08
-1.3055e-06
-5.57415e-08
-1.24924e-06
-5.62603e-08
-1.19251e-06
-5.67313e-08
-1.13535e-06
-5.7155e-08
-1.07782e-06
-5.75318e-08
-1.01996e-06
-5.78626e-08
-9.6181e-07
-5.81485e-08
-9.0342e-07
-5.83905e-08
-8.4483e-07
-5.85901e-08
-7.86081e-07
-5.87485e-08
-7.27213e-07
-5.88676e-08
-6.68264e-07
-5.89492e-08
-6.09269e-07
-5.89951e-08
-5.50262e-07
-5.90072e-08
-4.91274e-07
-5.89876e-08
-4.32336e-07
-5.89381e-08
-3.73476e-07
-5.886e-08
-3.14722e-07
-5.87542e-08
-2.56101e-07
-5.86217e-08
-1.97642e-07
-5.84584e-08
-1.39377e-07
-5.82647e-08
-8.13375e-08
-5.804e-08
-2.35635e-08
-5.7774e-08
3.39091e-08
-5.74726e-08
9.10409e-08
-5.71318e-08
1.47832e-07
-5.67911e-08
2.04304e-07
-5.64722e-08
2.60474e-07
-5.61697e-08
3.16338e-07
-5.58639e-08
3.71866e-07
-5.55287e-08
4.26991e-07
-5.51248e-08
4.81577e-07
-5.45853e-08
5.35356e-07
-5.37798e-08
5.87799e-07
-5.24427e-08
6.37694e-07
-4.98951e-08
6.82195e-07
-4.45008e-08
7.13766e-07
-3.15709e-08
8.33749e-09
7.05428e-07
7.00324e-09
-1.62579e-08
9.54487e-09
-1.33843e-08
8.21076e-09
-6.59374e-09
4.12802e-09
2.82533e-10
-2.07085e-09
6.79942e-09
-1.02691e-08
1.26719e-08
-2.03918e-08
1.778e-08
-3.23742e-08
2.20936e-08
-4.60917e-08
2.56858e-08
-6.13717e-08
2.86933e-08
-7.80367e-08
3.12677e-08
-9.59368e-08
3.35384e-08
-1.14955e-07
3.56031e-08
-1.35005e-07
3.75303e-08
-1.56027e-07
3.93649e-08
-1.77982e-07
4.11348e-08
-2.00842e-07
4.28574e-08
-2.24592e-07
4.45432e-08
-2.49222e-07
4.61989e-08
-2.74726e-07
4.78284e-08
-3.01106e-07
4.94343e-08
-3.28367e-07
5.10176e-08
-3.56521e-07
5.25794e-08
-3.8559e-07
5.41216e-08
-4.15612e-07
5.56488e-08
-4.46646e-07
5.71706e-08
-4.78778e-07
5.8703e-08
-5.12119e-07
6.02758e-08
-5.46778e-07
6.19452e-08
-5.82766e-07
6.38059e-08
-6.19911e-07
6.59637e-08
-6.57946e-07
6.83585e-08
-6.97295e-07
7.04549e-08
-7.39784e-07
7.16865e-08
-7.85527e-07
7.31001e-08
-8.29431e-07
7.67791e-08
-8.69968e-07
8.10918e-08
-9.14731e-07
8.20908e-08
-9.65013e-07
8.1603e-08
-1.01117e-06
8.37777e-08
-1.05587e-06
8.61793e-08
-1.09892e-06
8.76585e-08
-1.13961e-06
8.85477e-08
-1.18615e-06
8.68906e-08
-1.23364e-06
8.57119e-08
-1.27801e-06
8.59795e-08
-1.3211e-06
8.62379e-08
-1.3634e-06
8.63249e-08
-1.4051e-06
8.62667e-08
-1.44633e-06
8.60789e-08
-1.48713e-06
8.57822e-08
-1.52753e-06
8.53961e-08
-1.56753e-06
8.49356e-08
-1.60713e-06
8.44119e-08
-1.64632e-06
8.38325e-08
-1.68508e-06
8.32019e-08
-1.72342e-06
8.25226e-08
-1.7613e-06
8.17956e-08
-1.79871e-06
8.10204e-08
-1.83563e-06
8.01958e-08
-1.87205e-06
7.93201e-08
-1.90793e-06
7.83913e-08
-1.94325e-06
7.74071e-08
-1.978e-06
7.63653e-08
-2.01214e-06
7.52636e-08
-2.04565e-06
7.40999e-08
-2.0785e-06
7.28724e-08
-2.11066e-06
7.15795e-08
-2.1421e-06
7.02195e-08
-2.17279e-06
6.87915e-08
-2.20271e-06
6.72946e-08
-2.23182e-06
6.57281e-08
-2.26009e-06
6.40919e-08
-2.28749e-06
6.23857e-08
-2.314e-06
6.061e-08
-2.33958e-06
5.87651e-08
-2.3642e-06
5.68516e-08
-2.38784e-06
5.48705e-08
-2.41047e-06
5.28228e-08
-2.43205e-06
5.07095e-08
-2.45256e-06
4.85321e-08
-2.47198e-06
4.62917e-08
-2.49028e-06
4.39899e-08
-2.50742e-06
4.16276e-08
-2.52339e-06
3.92063e-08
-2.53817e-06
3.6727e-08
-2.55172e-06
3.41905e-08
-2.56402e-06
3.15973e-08
-2.57505e-06
2.8948e-08
-2.58479e-06
2.62423e-08
-2.59321e-06
2.34799e-08
-2.60031e-06
2.06602e-08
-2.60605e-06
1.77823e-08
-2.61044e-06
1.48458e-08
-2.61347e-06
1.18512e-08
-2.61515e-06
8.80162e-09
-2.61552e-06
5.70555e-09
-2.61466e-06
2.5849e-09
-2.6127e-06
-4.99257e-10
-2.60964e-06
-3.59858e-09
-2.60524e-06
-6.605e-09
-2.5994e-06
-9.63355e-09
-2.59207e-06
-1.26836e-08
-2.58322e-06
-1.57522e-08
-2.57284e-06
-1.88388e-08
-2.56093e-06
-2.19411e-08
-2.54747e-06
-2.50557e-08
-2.53246e-06
-2.81787e-08
-2.51589e-06
-3.1306e-08
-2.49778e-06
-3.44336e-08
-2.47812e-06
-3.7557e-08
-2.45691e-06
-4.06722e-08
-2.43416e-06
-4.37749e-08
-2.40988e-06
-4.6861e-08
-2.38408e-06
-4.99264e-08
-2.35677e-06
-5.2967e-08
-2.32797e-06
-5.59787e-08
-2.29769e-06
-5.89574e-08
-2.26595e-06
-6.18991e-08
-2.23277e-06
-6.47998e-08
-2.19818e-06
-6.76554e-08
-2.16219e-06
-7.04621e-08
-2.12484e-06
-7.32161e-08
-2.08615e-06
-7.59139e-08
-2.04616e-06
-7.8552e-08
-2.00489e-06
-8.1127e-08
-1.96237e-06
-8.36355e-08
-1.91865e-06
-8.60743e-08
-1.87376e-06
-8.84402e-08
-1.82773e-06
-9.07301e-08
-1.7806e-06
-9.29409e-08
-1.73243e-06
-9.50702e-08
-1.68324e-06
-9.71155e-08
-1.63308e-06
-9.90746e-08
-1.58199e-06
-1.00946e-07
-1.53003e-06
-1.02726e-07
-1.47723e-06
-1.04415e-07
-1.42364e-06
-1.06011e-07
-1.36931e-06
-1.07511e-07
-1.31429e-06
-1.08917e-07
-1.25862e-06
-1.10227e-07
-1.20236e-06
-1.1144e-07
-1.14554e-06
-1.12557e-07
-1.08823e-06
-1.13578e-07
-1.03045e-06
-1.14503e-07
-9.72274e-07
-1.15335e-07
-9.13733e-07
-1.16073e-07
-8.54876e-07
-1.16719e-07
-7.95748e-07
-1.17276e-07
-7.36393e-07
-1.17746e-07
-6.76852e-07
-1.18131e-07
-6.17166e-07
-1.18434e-07
-5.57375e-07
-1.18659e-07
-4.97514e-07
-1.1881e-07
-4.3762e-07
-1.18889e-07
-3.77725e-07
-1.18902e-07
-3.17861e-07
-1.18851e-07
-2.58057e-07
-1.18742e-07
-1.98341e-07
-1.18576e-07
-1.38739e-07
-1.18356e-07
-7.92755e-08
-1.18085e-07
-1.99743e-08
-1.1776e-07
3.91384e-08
-1.17377e-07
9.80365e-08
-1.16938e-07
1.56703e-07
-1.1644e-07
2.15125e-07
-1.15895e-07
2.73308e-07
-1.15314e-07
3.31248e-07
-1.14731e-07
3.88937e-07
-1.14162e-07
4.46368e-07
-1.136e-07
5.0352e-07
-1.13016e-07
5.60354e-07
-1.12362e-07
6.16791e-07
-1.11562e-07
6.72687e-07
-1.10482e-07
7.27776e-07
-1.08869e-07
7.81564e-07
-1.0623e-07
8.33085e-07
-1.01416e-07
8.80733e-07
-9.21488e-08
9.21213e-07
-7.20516e-08
-2.50991e-08
9.5465e-07
1.96679e-10
-1.64546e-08
-4.47389e-09
-8.71373e-09
-1.15925e-08
5.24892e-10
-2.0227e-08
8.91704e-09
-3.00897e-08
1.66621e-08
-4.11297e-08
2.37118e-08
-5.33842e-08
3.00344e-08
-6.6915e-08
3.56245e-08
-8.17561e-08
4.05269e-08
-9.78943e-08
4.48314e-08
-1.15277e-07
4.86506e-08
-1.33836e-07
5.20969e-08
-1.53501e-07
5.52683e-08
-1.74213e-07
5.82427e-08
-1.95927e-07
6.10784e-08
-2.18609e-07
6.38174e-08
-2.42241e-07
6.64892e-08
-2.66812e-07
6.91144e-08
-2.92321e-07
7.1708e-08
-3.18774e-07
7.42814e-08
-3.46184e-07
7.68435e-08
-3.74568e-07
7.94022e-08
-4.03955e-07
8.19659e-08
-4.34377e-07
8.45444e-08
-4.65878e-07
8.71498e-08
-4.98505e-07
8.97976e-08
-5.32308e-07
9.25053e-08
-5.67324e-07
9.52925e-08
-6.03556e-07
9.81768e-08
-6.40918e-07
1.01168e-07
-6.79204e-07
1.0425e-07
-7.18179e-07
1.07333e-07
-7.57949e-07
1.10225e-07
-7.99081e-07
1.12819e-07
-8.41348e-07
1.15367e-07
-8.82703e-07
1.18134e-07
-9.22312e-07
1.20701e-07
-9.62516e-07
1.22295e-07
-1.00419e-06
1.23276e-07
-1.04477e-06
1.24357e-07
-1.08392e-06
1.25335e-07
-1.1221e-06
1.25834e-07
-1.15934e-06
1.25789e-07
-1.19763e-06
1.2518e-07
-1.23641e-06
1.24498e-07
-1.27447e-06
1.24039e-07
-1.31186e-06
1.23625e-07
-1.34872e-06
1.23185e-07
-1.38515e-06
1.22692e-07
-1.4212e-06
1.22133e-07
-1.45692e-06
1.21505e-07
-1.49234e-06
1.20811e-07
-1.52745e-06
1.20053e-07
-1.56228e-06
1.19233e-07
-1.5968e-06
1.18353e-07
-1.63101e-06
1.17413e-07
-1.6649e-06
1.16412e-07
-1.69845e-06
1.15348e-07
-1.73165e-06
1.14218e-07
-1.76447e-06
1.1302e-07
-1.7969e-06
1.11749e-07
-1.82891e-06
1.10402e-07
-1.86048e-06
1.08975e-07
-1.89158e-06
1.07465e-07
-1.92219e-06
1.05869e-07
-1.95227e-06
1.04184e-07
-1.9818e-06
1.02406e-07
-2.01076e-06
1.00533e-07
-2.0391e-06
9.85642e-08
-2.06681e-06
9.64967e-08
-2.09384e-06
9.43296e-08
-2.12018e-06
9.2062e-08
-2.14578e-06
8.96934e-08
-2.17061e-06
8.72238e-08
-2.19466e-06
8.46533e-08
-2.21788e-06
8.19827e-08
-2.24024e-06
7.92127e-08
-2.26171e-06
7.63446e-08
-2.28227e-06
7.33798e-08
-2.30188e-06
7.03198e-08
-2.32051e-06
6.71666e-08
-2.33814e-06
6.39219e-08
-2.35474e-06
6.05879e-08
-2.37028e-06
5.71665e-08
-2.38473e-06
5.36598e-08
-2.39808e-06
5.00697e-08
-2.41028e-06
4.63981e-08
-2.42133e-06
4.26466e-08
-2.4312e-06
3.88168e-08
-2.43987e-06
3.49104e-08
-2.44732e-06
3.09288e-08
-2.45353e-06
2.68738e-08
-2.4585e-06
2.27481e-08
-2.46221e-06
1.8555e-08
-2.46466e-06
1.43002e-08
-2.46585e-06
9.99168e-09
-2.46578e-06
5.64186e-09
-2.46447e-06
1.26774e-09
-2.46186e-06
-3.10951e-09
-2.45795e-06
-7.5063e-09
-2.45263e-06
-1.19216e-08
-2.44588e-06
-1.63794e-08
-2.43769e-06
-2.08786e-08
-2.42803e-06
-2.54146e-08
-2.41688e-06
-2.99817e-08
-2.40425e-06
-3.45741e-08
-2.39012e-06
-3.91857e-08
-2.37449e-06
-4.38103e-08
-2.35735e-06
-4.84416e-08
-2.33871e-06
-5.30733e-08
-2.31857e-06
-5.76991e-08
-2.29693e-06
-6.23127e-08
-2.2738e-06
-6.6908e-08
-2.24918e-06
-7.14787e-08
-2.22309e-06
-7.60188e-08
-2.19553e-06
-8.05222e-08
-2.16653e-06
-8.49829e-08
-2.13609e-06
-8.93947e-08
-2.10424e-06
-9.37517e-08
-2.07099e-06
-9.8048e-08
-2.03637e-06
-1.02277e-07
-2.0004e-06
-1.06434e-07
-1.9631e-06
-1.10513e-07
-1.9245e-06
-1.14509e-07
-1.88464e-06
-1.18416e-07
-1.84354e-06
-1.22229e-07
-1.80123e-06
-1.25944e-07
-1.75775e-06
-1.29555e-07
-1.71313e-06
-1.33058e-07
-1.66741e-06
-1.36448e-07
-1.62063e-06
-1.39721e-07
-1.57283e-06
-1.42873e-07
-1.52405e-06
-1.459e-07
-1.47432e-06
-1.48799e-07
-1.4237e-06
-1.51567e-07
-1.37223e-06
-1.54201e-07
-1.31995e-06
-1.56699e-07
-1.2669e-06
-1.59058e-07
-1.21313e-06
-1.61276e-07
-1.1587e-06
-1.63353e-07
-1.10364e-06
-1.65287e-07
-1.048e-06
-1.67079e-07
-9.91829e-07
-1.68727e-07
-9.35175e-07
-1.70233e-07
-8.78081e-07
-1.71597e-07
-8.20596e-07
-1.72821e-07
-7.62762e-07
-1.73906e-07
-7.04626e-07
-1.74856e-07
-6.4623e-07
-1.75672e-07
-5.87616e-07
-1.76359e-07
-5.28826e-07
-1.76921e-07
-4.69899e-07
-1.77361e-07
-4.10873e-07
-1.77686e-07
-3.51783e-07
-1.77899e-07
-2.92665e-07
-1.78008e-07
-2.3355e-07
-1.78017e-07
-1.74468e-07
-1.77933e-07
-1.15448e-07
-1.77762e-07
-5.65159e-08
-1.77509e-07
2.30535e-09
-1.77178e-07
6.09913e-08
-1.76771e-07
1.19521e-07
-1.76289e-07
1.77875e-07
-1.75732e-07
2.3604e-07
-1.75102e-07
2.94009e-07
-1.7441e-07
3.5179e-07
-1.73676e-07
4.09393e-07
-1.72917e-07
4.66805e-07
-1.72142e-07
5.24006e-07
-1.71364e-07
5.80977e-07
-1.70571e-07
6.3769e-07
-1.69729e-07
6.941e-07
-1.68773e-07
7.5013e-07
-1.67591e-07
8.05642e-07
-1.65993e-07
8.604e-07
-1.63627e-07
9.14004e-07
-1.59834e-07
9.65824e-07
-1.53236e-07
1.01496e-06
-1.41286e-07
1.06091e-06
-1.17997e-07
-7.20069e-08
1.10781e-06
-6.07102e-09
-1.03835e-08
-1.59377e-08
1.15294e-09
-2.69906e-08
1.15778e-08
-3.88776e-08
2.0804e-08
-5.14564e-08
2.92409e-08
-6.47497e-08
3.70052e-08
-7.88361e-08
4.41208e-08
-9.38104e-08
5.05987e-08
-1.09754e-07
5.64701e-08
-1.26716e-07
6.17938e-08
-1.44715e-07
6.66494e-08
-1.63742e-07
7.11243e-08
-1.83777e-07
7.53028e-08
-2.04792e-07
7.92582e-08
-2.26764e-07
8.30508e-08
-2.49675e-07
8.67278e-08
-2.7351e-07
9.03248e-08
-2.98265e-07
9.38689e-08
-3.23937e-07
9.73804e-08
-3.50531e-07
1.00875e-07
-3.78051e-07
1.04364e-07
-4.06506e-07
1.07858e-07
-4.35905e-07
1.11365e-07
-4.66253e-07
1.14892e-07
-4.97548e-07
1.18445e-07
-5.2978e-07
1.22029e-07
-5.62916e-07
1.25641e-07
-5.96899e-07
1.29275e-07
-6.31633e-07
1.32911e-07
-6.6698e-07
1.36515e-07
-7.02761e-07
1.40031e-07
-7.38806e-07
1.43378e-07
-7.7504e-07
1.46459e-07
-8.1145e-07
1.49229e-07
-8.47831e-07
1.51747e-07
-8.83726e-07
1.54029e-07
-9.18937e-07
1.55912e-07
-9.53884e-07
1.57242e-07
-9.88773e-07
1.58165e-07
-1.02326e-06
1.58846e-07
-1.05718e-06
1.59253e-07
-1.09068e-06
1.59334e-07
-1.12396e-06
1.59064e-07
-1.15728e-06
1.58502e-07
-1.19062e-06
1.57838e-07
-1.22376e-06
1.57182e-07
-1.25666e-06
1.5652e-07
-1.2893e-06
1.55832e-07
-1.32172e-06
1.55106e-07
-1.35392e-06
1.5433e-07
-1.38591e-06
1.53498e-07
-1.41771e-06
1.52607e-07
-1.44931e-06
1.51653e-07
-1.48071e-06
1.50633e-07
-1.5119e-06
1.49545e-07
-1.54287e-06
1.48385e-07
-1.5736e-06
1.47148e-07
-1.60409e-06
1.45831e-07
-1.6343e-06
1.44429e-07
-1.66421e-06
1.42936e-07
-1.69381e-06
1.41347e-07
-1.72307e-06
1.39658e-07
-1.75196e-06
1.37864e-07
-1.78045e-06
1.35959e-07
-1.80852e-06
1.3394e-07
-1.83614e-06
1.31803e-07
-1.86328e-06
1.29544e-07
-1.88991e-06
1.27159e-07
-1.91599e-06
1.24647e-07
-1.9415e-06
1.22006e-07
-1.9664e-06
1.19233e-07
-1.99067e-06
1.16327e-07
-2.01426e-06
1.13289e-07
-2.03716e-06
1.10117e-07
-2.05932e-06
1.06813e-07
-2.08071e-06
1.03377e-07
-2.10131e-06
9.98098e-08
-2.12108e-06
9.61136e-08
-2.13999e-06
9.22901e-08
-2.15801e-06
8.83413e-08
-2.17511e-06
8.42699e-08
-2.19127e-06
8.00782e-08
-2.20645e-06
7.57692e-08
-2.22063e-06
7.13457e-08
-2.23378e-06
6.68106e-08
-2.24588e-06
6.21669e-08
-2.25689e-06
5.74175e-08
-2.26681e-06
5.25653e-08
-2.27561e-06
4.76131e-08
-2.28326e-06
4.2564e-08
-2.28976e-06
3.74211e-08
-2.29507e-06
3.21878e-08
-2.29919e-06
2.68684e-08
-2.3021e-06
2.14679e-08
-2.3038e-06
1.59931e-08
-2.30426e-06
1.04517e-08
-2.30347e-06
4.8534e-09
-2.30141e-06
-7.92257e-10
-2.29804e-06
-6.47858e-09
-2.29333e-06
-1.2211e-08
-2.28726e-06
-1.79973e-08
-2.27979e-06
-2.38445e-08
-2.27092e-06
-2.97483e-08
-2.26064e-06
-3.57024e-08
-2.24892e-06
-4.1699e-08
-2.23576e-06
-4.77296e-08
-2.22116e-06
-5.37862e-08
-2.20511e-06
-5.98601e-08
-2.18761e-06
-6.59431e-08
-2.16866e-06
-7.20268e-08
-2.14825e-06
-7.81029e-08
-2.1264e-06
-8.41632e-08
-2.10311e-06
-9.01994e-08
-2.07839e-06
-9.62035e-08
-2.05224e-06
-1.02167e-07
-2.02468e-06
-1.08083e-07
-1.99572e-06
-1.13943e-07
-1.96537e-06
-1.19739e-07