/*--------------------------------*- C++ -*----------------------------------*\
  =========                 |
  \\      /  F ield         | OpenFOAM: The Open Source CFD Toolbox
   \\    /   O peration     | Website:  https://openfoam.org
    \\  /    A nd           | Version:  9
     \\/     M anipulation  |
\*---------------------------------------------------------------------------*/
FoamFile
{
    format      ascii;
    class       volScalarField;
    location    "0.29";
    object      epsilon;
}
// * * * * * * * * * * * * * * * * * * * * * * * * * * * * * * * * * * * * * //

dimensions      [0 2 -3 0 0 0 0];

internalField   nonuniform List<scalar> 
12225
(
247.466
207.866
178.034
156.421
141.901
133.552
130.544
132.059
137.285
145.432
155.768
167.639
180.494
193.889
207.49
221.071
234.513
251.178
43.709
57.7029
66.9672
77.1622
91.1387
110.558
136.496
169.437
209.23
255.139
305.998
360.42
416.983
474.394
531.561
587.683
641.964
694.805
20.9176
26.6287
31.2255
35.3993
39.8448
45.0593
51.4061
59.1262
68.3231
78.9638
90.9012
103.906
117.701
131.987
146.458
160.807
174.692
187.763
16.2915
18.2636
20.1776
21.9886
23.794
25.6985
27.7889
30.1265
32.7426
35.6376
38.7857
42.1416
45.6465
49.232
52.8225
56.3317
59.6617
62.6043
15.0532
15.6109
16.3051
17.0406
17.795
18.5728
19.3875
20.2526
21.1764
22.1604
23.1988
24.2806
25.3905
26.5102
27.6184
28.6905
29.681
30.6188
14.6983
14.7093
14.8412
15.0451
15.293
15.5705
15.8713
16.1933
16.5359
16.8977
17.2765
17.6682
18.0681
18.47
18.8668
19.2467
19.6133
19.963
14.5988
14.4096
14.2936
14.2359
14.223
14.2439
14.2908
14.3581
14.4423
14.5407
14.6508
14.7704
14.897
15.0277
15.1591
15.2898
15.421
15.5501
14.5722
14.3164
14.1017
13.9256
13.7839
13.6717
13.5842
13.5174
13.4679
13.4331
13.4108
13.399
13.3959
13.4
13.4093
13.4248
13.4458
13.4717
14.5655
14.2896
14.0401
13.8166
13.6177
13.4417
13.2865
13.1497
13.0292
12.9231
12.8298
12.7479
12.6759
12.6126
12.5579
12.5112
12.4727
12.4425
14.5639
14.2824
14.022
13.7818
13.5607
13.3578
13.1718
13.0016
12.8458
12.7033
12.5728
12.4534
12.3442
12.2444
12.1538
12.072
11.9992
11.9359
14.5634
14.2805
14.017
13.7715
13.5428
13.3299
13.1318
12.9476
12.7761
12.6167
12.4683
12.3304
12.2022
12.0833
11.9733
11.8721
11.7798
11.6972
14.5633
14.28
14.0156
13.7686
13.5378
13.3218
13.1198
12.9307
12.7536
12.5877
12.4323
12.2868
12.1505
12.0231
11.9042
11.7937
11.6916
11.5988
14.5632
14.2797
14.015
13.7675
13.5359
13.3189
13.1154
12.9244
12.745
12.5765
12.418
12.2691
12.129
11.9975
11.8741
11.7586
11.6512
11.5526
14.5632
14.2796
14.0147
13.7669
13.535
13.3175
13.1134
12.9217
12.7415
12.5719
12.4121
12.2617
12.1199
11.9864
11.8607
11.7426
11.6321
11.53
14.5631
14.2795
14.0144
13.7665
13.5344
13.3167
13.1123
12.9203
12.7397
12.5696
12.4093
12.2583
12.1157
11.9813
11.8546
11.7352
11.623
11.5189
14.5631
14.2794
14.0142
13.7662
13.5339
13.316
13.1114
12.9192
12.7383
12.568
12.4075
12.2561
12.1132
11.9784
11.8511
11.731
11.6179
11.5127
14.5631
14.2793
14.0141
13.7659
13.5334
13.3154
13.1107
12.9183
12.7373
12.5668
12.4061
12.2546
12.1115
11.9765
11.849
11.7286
11.6151
11.5093
14.5631
14.2793
14.014
13.7658
13.5332
13.315
13.1102
12.9177
12.7366
12.5661
12.4053
12.2538
12.1108
11.9758
11.8483
11.728
11.6145
11.5087
14.5631
14.2793
14.014
13.7657
13.533
13.3148
13.1099
12.9174
12.7363
12.5659
12.4053
12.2539
12.1112
11.9765
11.8493
11.7294
11.6164
11.5109
14.5632
14.2794
14.014
13.7657
13.5331
13.3149
13.1101
12.9176
12.7367
12.5664
12.4061
12.255
12.1126
11.9783
11.8517
11.7323
11.6198
11.5148
14.5632
14.2794
14.0141
13.7658
13.5332
13.3152
13.1105
12.9183
12.7375
12.5676
12.4075
12.2569
12.1149
11.9811
11.855
11.7361
11.6242
11.5198
14.5632
14.2795
14.0143
13.7662
13.5339
13.3162
13.112
12.9204
12.7405
12.5714
12.4124
12.2628
12.1221
11.9897
11.865
11.7475
11.6371
11.5343
14.5633
14.2799
14.0154
13.7684
13.5378
13.3224
13.1212
12.9332
12.7573
12.5928
12.4387
12.2943
12.159
12.032
11.9128
11.8008
11.6958
11.5983
14.5641
14.2831
14.0235
13.7844
13.5645
13.3624
13.1768
13.006
12.8487
12.7035
12.5692
12.4446
12.3289
12.2212
12.1207
12.0268
11.939
11.8577
14.5705
14.3081
14.0799
13.8831
13.7137
13.5675
13.4406
13.3297
13.2319
13.145
13.0674
12.9975
12.9342
12.8765
12.8237
12.775
12.7298
12.6884
14.6202
14.467
14.3863
14.3554
14.3567
14.3779
14.4111
14.4519
14.4977
14.5471
14.5994
14.6539
14.7101
14.7675
14.8254
14.8832
14.9402
14.9959
14.9424
15.2883
15.7225
16.164
16.5873
16.9876
17.3682
17.7354
18.0959
18.4549
18.8158
19.1805
19.549
19.9202
20.292
20.6617
21.0266
21.3828
16.8028
18.9955
20.8295
22.3267
23.6208
24.8102
25.964
27.1338
28.3551
29.6484
31.0218
32.4738
33.9956
35.5727
37.1874
38.821
40.4548
42.0668
28.5918
36.0004
40.2709
43.3704
46.2847
49.4544
53.1126
57.3797
62.2928
67.8315
73.9347
80.5129
87.457
94.6471
101.962
109.286
116.524
123.554
152.475
136.943
124.085
113.46
104.762
97.7475
92.2146
87.9865
84.9009
82.8051
81.5556
81.0176
81.0653
81.5835
82.4677
83.6254
84.9769
86.4488
48.6432
81.486
108.112
131.267
151.559
171.092
188.797
198.441
203.308
207.117
210.426
213.904
217.939
222.883
229.072
236.823
246.466
258.363
273.056
289.221
304.1
316.26
323.76
323.934
313.224
287.067
240.41
172.308
98.0451
48.4846
39.8174
40.2067
51.3961
64.1629
78.4669
96.639
120.677
147.92
157.546
148.89
130.1
109.503
94.0777
84.2777
80.802
82.1816
85.6184
91.9491
111.953
176.702
335.667
510.781
677.801
830.322
962.592
1072.38
1159.69
1225.82
1272.74
1302.74
1318.15
1321.21
1314
1298.37
1275.97
1248.22
1216.32
1181.27
1144.81
1108.18
1071.47
1034.82
998.319
962.065
926.113
890.491
855.186
820.143
785.26
750.382
715.305
679.787
643.56
606.373
568.027
528.435
487.667
445.989
403.858
361.899
320.84
281.435
244.406
210.472
180.809
159.158
149.755
143.3
137.839
133.133
129.116
125.748
122.986
120.789
119.11
117.901
117.113
116.694
116.593
116.753
117.111
117.598
118.14
118.626
118.657
117.684
115.299
111.194
105.248
97.6376
88.8601
79.5297
69.9308
59.1344
12.0792
11.2588
10.9035
10.8588
10.9864
11.174
11.3411
11.4394
11.4512
11.3854
11.2754
11.1706
11.1301
11.2411
11.6072
12.3337
13.5549
64.2422
72.9046
83.4629
96.923
122.483
204.774
335.217
451.192
545.477
615.886
664.61
695.893
715.25
726.324
725.832
715.009
694.256
663.474
622.386
571.043
510.938
449.223
425.872
424.333
422.709
421.652
422.262
425.217
430.684
438.497
448.316
458.643
462.313
446.317
400.576
327.543
246.521
186.168
152.242
37.1709
52.3625
65.7626
83.9959
141.791
223.527
251.045
253.04
244.623
231.1
214.564
196.762
179.211
162.909
148.35
135.702
124.978
116.113
109.13
105.84
107.519
114.005
124.87
139.348
156.284
174.024
190.34
204.23
217.78
222.792
198.12
148.756
98.2255
65.8676
55.2701
69.02
98.6656
132.85
153.321
148.548
126.73
104.227
101.225
132.303
215.811
362.852
514.622
551.822
546.486
542.564
540.768
532.306
517.118
495.75
469.512
439.858
408.219
375.928
344.187
314.024
286.272
261.555
240.304
222.783
209.13
199.373
193.434
191.215
191.199
191.477
191.99
192.722
193.659
194.791
196.103
197.571
199.161
200.817
202.458
203.967
205.183
205.902
205.872
204.813
202.439
198.495
192.801
185.296
176.065
165.336
153.461
140.873
128.035
115.395
103.321
92.3848
84.0224
76.7723
70.2921
64.5146
59.3803
54.829
50.8017
47.2418
44.0961
41.3156
38.856
36.6774
34.7442
33.025
31.4927
30.1239
28.9032
27.8464
27.252
27.3405
27.7911
28.3553
28.8458
29.1291
29.1673
29.0322
28.8523
28.2243
27.1714
27.3633
28.1749
29.2107
30.1881
30.9051
31.2296
31.0854
30.4449
29.3223
27.7696
25.8828
23.8294
21.9027
20.606
20.7859
23.9398
30.7661
46.6659
85.3083
157.666
227.456
255.068
267.636
273.685
275.226
273.846
271.292
269.653
271.505
276.773
281.183
284.526
286.351
285.877
282.062
273.854
260.681
243.888
229.491
214.585
199.348
184.728
171.329
159.438
149.124
140.29
132.79
126.763
124.476
133.649
147.453
166.349
200.23
261.846
355.789
27.9512
34.3615
54.3519
160.795
303.605
329.697
292.595
244.706
203.479
170.949
145.589
125.724
110.052
97.5975
87.6278
79.5958
73.0977
67.8376
63.6099
60.3443
58.8213
59.3665
62.5492
68.8812
78.5603
91.3197
106.547
124.06
144.873
167.03
180.205
173.053
145.049
110.69
86.5297
84.088
111.951
157.774
197.753
208.63
196.913
221.58
318.829
478.305
551.985
534.282
494.089
445.636
402.556
367.62
336.922
307.182
277.845
249.291
222.374
197.991
176.813
159.166
145.043
134.189
126.21
120.665
117.116
115.171
114.489
114.784
115.828
117.436
119.206
121.095
123.116
125.293
127.659
130.248
133.096
136.233
139.679
143.435
147.475
151.731
156.08
160.333
164.231
167.444
169.594
170.299
169.222
166.14
160.988
153.885
145.117
135.093
124.279
113.113
101.902
91.352
82.7175
74.9615
67.9647
61.6826
56.0637
51.0509
46.5855
42.6102
39.0708
35.9174
33.1047
30.5925
28.3449
26.3308
24.523
22.8979
21.4358
20.1247
18.9673
17.9712
17.1671
16.5649
16.1228
15.7875
15.5011
15.2236
14.9401
14.6137
14.2949
14.1017
14.0736
14.2026
14.449
14.7537
15.0516
15.2831
15.4007
15.3719
15.1816
14.8397
14.4055
14.0591
14.2691
16.112
21.7655
35.9841
69.4536
135.077
207.595
227.029
222.775
223.057
224.718
224.747
223.434
222.442
223
225.449
228.781
232.199
235.542
238.398
239.978
239.11
234.423
224.705
210.963
195.957
179.633
163.102
147.355
132.981
120.23
109.129
99.5747
91.4652
84.8159
79.7077
76.9482
78.8881
85.5957
98.502
120.559
155.786
23.9691
59.9905
273.605
451.478
425.867
336.589
254.654
194.402
152.209
122.524
101.285
85.8102
74.3228
65.6309
58.9323
53.6861
49.5275
46.2126
43.5803
41.5382
40.2836
39.8875
40.5946
42.8491
47.2023
54.0807
63.5578
75.5569
90.5004
108.489
126.441
137.581
136.152
125.238
116.954
125.667
171.608
247.69
327.879
377.976
450.741
499.261
512.506
497.456
449.275
390.804
339.449
296.809
262.531
234.12
208.999
186.087
165.56
147.925
133.532
122.378
114.162
108.425
104.675
102.454
101.367
101.086
101.349
101.949
102.732
103.592
104.466
105.277
105.972
106.581
107.147
107.731
108.406
109.255
110.369
111.843
113.765
116.21
119.231
122.842
126.999
131.584
136.383
141.08
145.267
148.469
150.211
150.094
147.872
143.506
137.173
129.221
120.099
110.251
99.9898
90.6802
82.4789
74.9695
68.1267
61.9323
56.3509
51.3372
46.8414
42.8131
39.2038
35.9682
33.0651
30.4574
28.1121
25.9999
24.0951
22.3753
20.8213
19.4165
18.1483
17.0057
15.981
15.0714
14.2731
13.5729
12.9561
12.4074
11.9136
11.4615
11.0482
10.6831
10.3773
10.1375
9.96307
9.84669
9.77556
9.73439
9.70886
9.69009
9.68143
9.7119
9.86898
10.3902
11.8997
15.9233
25.8862
49.0164
96.5946
166.734
211.608
207.494
202.657
205.557
209.041
210.501
210.662
210.658
210.871
211.183
211.422
211.673
212.011
212.235
211.735
209.445
203.973
194.22
181.776
167.371
151.923
136.562
122.163
109.217
97.9017
88.1881
79.9517
73.0546
67.3897
62.9068
59.6602
58.078
58.5927
61.7215
68.143
78.6576
50.2474
340.424
551.491
462.505
335.492
239.658
175.745
133.44
104.812
84.9682
70.8954
60.685
53.1071
47.3586
42.9063
39.3926
36.5806
34.3195
32.5174
31.1239
30.2194
29.8352
30.0304
30.9863
33.0439
36.6717
42.3042
50.1606
60.4003
73.3314
88.6799
104.348
117.06
128.077
149.667
199.017
289.177
434.144
610.555
638.52
536.743
472.024
416.449
362.462
310.599
266.181
230.814
202.518
179.398
159.878
143.187
129.278
118.281
110.132
104.532
101.048
99.2208
98.6235
98.8881
99.7089
100.84
102.087
103.303
104.377
105.228
105.799
106.056
105.949
105.474
104.651
103.527
102.174
100.694
99.2123
97.877
96.8483
96.2916
96.3662
97.2128
98.9384
101.597
105.167
109.526
114.429
119.497
124.229
128.053
130.412
130.861
129.16
125.327
119.606
112.405
104.165
95.4677
87.6242
80.2719
73.4131
67.0874
61.3033
56.0449
51.2822
46.978
43.0921
39.585
36.4187
33.5583
30.9718
28.6307
26.5093
24.585
22.8376
21.2496
19.8049
18.49
17.2926
16.202
15.2089
14.3048
13.4838
12.7377
12.0592
11.4419
10.8799
10.3692
9.90801
9.49568
9.13215
8.817
8.549
8.3261
8.14637
8.0101
7.92454
7.91336
8.0361
8.43366
9.44693
11.915
17.8309
31.6215
61.6878
115.666
176.252
199.303
190.639
190.353
196.485
201.661
204.152
204.817
204.318
202.752
200.117
196.787
193.232
189.757
186.414
182.814
178.079
170.948
161.449
149.841
136.737
123.082
109.824
97.6532
86.9237
77.7237
69.9756
63.5274
58.2157
53.9018
50.492
47.931
46.2257
45.5695
45.8491
47.3461
50.3844
100.79
602.864
488.912
329.853
224.641
160.524
120.257
93.7174
75.4849
62.5833
53.2486
46.3533
41.1468
37.117
33.9115
31.2967
29.1322
27.3451
25.9023
24.7898
24.0536
23.7289
23.8277
24.4159
25.6522
27.8174
31.3052
36.5317
43.8267
53.5604
66.4219
83.2134
105.126
139.877
209.867
336.917
527.836
777.805
736.313
553.759
432.036
355.437
299.555
255.072
218.782
189.841
166.886
148.334
133.212
121.003
111.494
104.54
99.8975
97.2125
96.082
96.1145
96.9649
98.3489
100.044
101.886
103.751
105.548
107.199
108.635
109.786
110.582
110.924
110.714
109.906
108.479
106.443
103.852
100.802
97.4373
93.9421
90.5372
87.4653
84.9745
83.2997
82.6426
83.152
84.9032
87.8745
91.9206
96.7496
101.913
106.826
110.839
113.342
113.886
112.297
108.673
103.336
96.7158
89.936
83.3254
76.9174
70.8326
65.1449
59.8858
55.058
50.6464
46.6264
42.9687
39.6425
36.618
33.8666
31.362
29.0804
27.0001
25.1017
23.3678
21.7827
20.3323
19.0042
17.7867
16.6696
15.6431
14.6983
13.8279
13.0273
12.2913
11.6152
10.9948
10.4268
9.90837
9.43708
9.01114
8.62939
8.29138
7.9977
7.75086
7.55764
7.43451
7.4191
7.59495
8.14953
9.51887
12.7316
20.1512
36.8498
71.1238
125.034
173.246
184.717
178.13
181.89
190.135
196.075
198.797
199.087
197.308
193.548
188.026
181.464
174.527
167.66
161.131
154.804
147.875
140.021
130.728
120.067
108.549
96.933
85.9412
76.0709
67.5508
60.3979
54.503
49.7032
45.8312
42.7425
40.328
38.5103
37.2354
36.5405
36.3654
36.6321
37.4851
167.032
539.677
355.981
229.076
158.203
116.852
90.4943
72.4538
59.6952
50.5159
43.7883
38.7394
34.8259
31.6634
29.0007
26.6999
24.7082
23.0222
21.6558
20.6192
19.9413
19.655
19.7574
20.2726
21.2768
22.9196
25.4383
29.1912
34.6585
42.4635
53.9095
72.0698
104.429
171.129
298.737
488.06
749.181
788.271
580.363
416.339
319.225
259.631
218.611
187.843
163.747
144.697
129.58
117.652
108.494
101.815
97.3433
94.7777
93.7755
93.9816
95.0647
96.7433
98.7988
101.075
103.468
105.911
108.355
110.753
113.049
115.174
117.043
118.563
119.483
119.682
119.072
117.589
115.207
111.947
107.88
103.138
97.9161
92.4682
87.1006
82.1484
77.9463
74.7942
72.9278
72.4971
73.5516
76.0255
79.7242
84.3016
89.2459
93.9146
97.6129
99.7152
99.8621
97.9674
94.2339
89.3908
84.1202
78.6327
73.1563
67.852
62.8175
58.1033
53.7286
49.692
45.9807
42.5756
39.4548
36.5958
33.9767
31.5766
29.3763
27.3581
25.5057
23.8044
22.2408
20.8026
19.4786
18.2585
17.1329
16.0931
15.1312
14.2393
13.4133
12.6487
11.9415
11.2886
10.6869
10.134
9.62739
9.16512
8.7459
8.3696
8.03783
7.75526
7.53261
7.39271
7.38353
7.60681
8.28646
9.93333
13.7178
22.2489
40.8399
76.7231
127.086
165.176
171.838
168.63
174.574
183.623
189.891
192.43
191.968
188.766
183.024
175.195
166.219
156.85
147.573
138.672
130.543
122.592
114.343
105.437
95.8762
86.0045
76.3504
67.416
59.5363
52.8473
47.3284
42.8658
39.3075
36.4995
34.3064
32.6228
31.3715
30.4935
29.9503
29.7789
29.8161
30.0803
878.23
523.848
281.479
175.266
124.395
94.9568
75.2869
61.5025
51.6774
44.5343
39.2156
35.1154
31.7769
28.892
26.3039
23.9596
21.8656
20.0657
18.6145
17.5469
16.892
16.6729
16.8627
17.455
18.4853
20.0382
22.2427
25.3482
29.8872
36.7866
48.1719
70.1099
118.894
223.746
387.873
607.271
752.346
606.783
421.946
304.166
236.771
195.618
167.516
146.587
130.339
117.694
108.049
100.999
96.2258
93.426
92.292
92.5084
93.7642
95.7751
98.3043
101.175
104.27
107.519
110.885
114.337
117.837
121.328
124.728
127.928
130.797
133.185
134.748
135.405
135.043
133.573
130.941
127.137
122.201
116.236
109.415
101.999
94.3405
86.8639
80.0279
74.2613
69.9025
67.1615
66.1101
66.6906
68.7523
72.0464
76.1798
80.6027
84.6427
87.551
88.8241
88.1828
85.8937
82.5264
78.4458
73.9763
69.3716
64.8093
60.4029
56.2178
52.2864
48.6193
45.2142
42.0611
39.1466
36.4552
33.9712
31.6793
29.5647
27.6135
25.8126
24.15
22.6142
21.195
19.8825
18.6676
17.5421
16.4982
15.5288
14.6271
13.7884
13.0085
12.284
11.6118
10.9893
10.4141
9.88432
9.39813
8.95467
8.55425
8.19933
7.89615
7.6582
7.51304
7.51631
7.7833
8.56429
10.4214
14.6124
23.8569
43.3602
78.9135
124.564
155.576
160.877
160.496
167.275
176.126
182.2
184.521
183.42
179.116
171.941
162.564
152.066
141.233
130.619
120.645
111.503
102.959
94.6746
86.3773
77.998
69.6955
61.7737
54.5454
48.2262
42.8993
38.5377
35.0459
32.298
30.1646
28.5292
27.2976
26.3989
25.7765
25.3813
25.1897
25.1989
25.2933
1227.31
462.971
221.863
143.468
107.605
84.6541
68.454
56.8764
48.4994
42.31
37.6184
33.8808
30.6651
27.725
24.9766
22.3998
20.019
17.93
16.2587
15.0883
14.4946
14.4629
14.8697
15.6503
16.8132
18.4269
20.6083
23.6235
28.1269
35.4179
48.9534
79.4995
152.355
285.246
460.95
625.863
594.584
436.253
304.744
226.761
182.169
154.413
135.131
120.753
109.855
101.82
96.2522
92.8252
91.2365
91.1912
92.3993
94.5802
97.4784
100.882
104.638
108.649
112.868
117.273
121.847
126.558
131.347
136.121
140.755
145.096
148.977
152.032
154.154
155.211
155.073
153.642
150.853
146.683
141.146
134.297
126.249
117.197
107.462
97.5166
87.9575
79.41
72.3996
67.2525
64.0604
62.6919
62.9423
64.6037
67.4061
70.9298
74.6124
77.6495
79.4606
79.6765
78.4984
76.2049
73.1174
69.5403
65.7215
61.8421
58.0229
54.3386
50.8306
47.5188
44.4095
41.501
38.787
36.2588
33.9067
31.7204
29.6897
27.8043
26.0544
24.4306
22.9236
21.5248
20.226
19.0193
17.8973
16.8533
15.881
14.9745
14.1288
13.3402
12.6052
11.9209
11.2848
10.6947
10.1489
9.64591
9.18532
8.76798
8.3971
8.08023
7.83301
7.68645
7.70177
8.00365
8.85901
10.8573
15.2883
24.8573
44.4286
78.4153
119.374
145.717
151.163
152.716
159.47
167.609
173.22
175.2
173.599
168.643
160.784
150.807
139.737
128.313
117.112
106.586
96.9735
88.2456
80.2254
72.6965
65.5002
58.6098
52.1327
46.2374
41.0646
36.6801
33.0729
30.1786
27.9039
26.1478
24.8149
23.8245
23.1125
22.6253
22.3124
22.1271
22.0821
22.0982
1374.95
377.701
183.289
131.336
103.048
82.4521
67.364
56.4723
48.5299
42.6093
38.0668
34.3452
31.0083
27.8505
24.8205
21.8949
19.1101
16.6412
14.727
13.534
13.1926
13.4516
14.054
14.9569
16.2267
18.0115
20.558
24.3655
30.4305
41.0635
61.9754
108.672
201.575
335.596
478.409
525.002
435.906
313.666
226.721
176.196
146.65
127.646
114.257
104.488
97.5387
92.9879
90.5051
89.7916
90.5643
92.5484
95.479
99.1142
103.255
107.759
112.547
117.584
122.865
128.382
134.112
139.998
145.947
151.823
157.46
162.662
167.218
170.76
173.246
174.53
174.476
172.989
170.017
165.558
159.643
152.321
143.654
133.726
122.714
110.992
99.1885
88.1056
78.5168
70.978
65.7103
62.4925
60.9778
60.9228
62.1679
64.4276
67.283
69.9494
71.7829
72.4995
72.0349
70.531
68.2334
65.4038
62.2687
59.0003
55.7183
52.4997
49.3908
46.4173
43.5919
40.9192
38.3993
36.0295
33.8053
31.7214
29.7717
27.95
26.2494
24.6631
23.1841
21.8056
20.5208
19.3231
18.2062
17.164
16.191
15.2821
14.4325
13.6385
12.8968
12.2045
11.5591
10.9587
10.4014
9.88632
9.41319
8.98331
8.60056
8.27347
8.0192
7.87107
7.89383
8.21744
9.11579
11.1825
15.689
25.2243
44.1912
75.909
112.64
135.985
142.135
144.872
151.136
158.329
163.328
164.956
163.077
157.916
149.976
140.018
128.959
117.483
106.169
95.5004
85.8089
77.2295
69.7142
63.0595
56.9953
51.3234
45.9971
41.0904
36.7113
32.9349
29.7807
27.22
25.1927
23.6242
22.4385
21.5665
20.949
20.5328
20.265
20.0916
19.9886
19.9514
1365.63
305.205
172.74
133.883
106.817
85.8322
70.4065
59.2935
51.159
45.0497
40.3079
36.3564
32.7629
29.336
26.0289
22.8197
19.7591
17.0608
15.0364
13.9261
13.7976
14.1456
14.8341
15.9426
17.6623
20.3282
24.4441
30.6877
40.2826
56.8147
88.7598
149.027
243.223
354.502
426.668
403.955
317.924
233.021
176.5
143.362
123.271
109.992
100.746
94.4178
90.4873
88.6063
88.4731
89.8073
92.339
95.8083
99.9779
104.654
109.702
115.052
120.681
126.592
132.789
139.254
145.935
152.74
159.535
166.152
172.392
178.034
182.832
186.533
189.081
190.331
190.145
188.427
185.138
180.303
174.004
166.346
157.414
147.239
135.836
123.36
110.319
97.5667
86.0198
76.4705
69.4033
64.5803
61.4926
59.8239
59.5087
60.4041
62.1158
64.0836
65.7152
66.584
66.5111
65.5364
63.8282
61.5966
59.0359
56.3001
53.4996
50.7077
47.9708
45.3168
42.7624
40.3168
37.9849
35.769
33.6696
31.6856
29.8153
28.0556
26.403
24.8533
23.4017
22.0432
20.7725
19.5843
18.4732
17.4341
16.462
15.5524
14.7008
13.9036
13.1576
12.4599
11.8082
11.2005
10.6351
10.1112
9.6288
9.18954
8.79771
8.46249
8.20191
8.0505
8.07447
8.40489
9.3133
11.3768
15.806
25
42.8625
71.9583
105.028
126.485
133.469
136.858
142.407
148.574
152.901
154.218
152.266
147.233
139.59
130.002
119.276
108.058
96.928
86.4184
76.9601
68.8176
62.014
56.3043
51.2908
46.6312
42.1757
37.9547
34.0798
30.6558
27.7397
25.3388
23.4227
21.9392
20.8269
20.0251
19.4761
19.1235
18.9092
18.772
18.6696
18.589
1268.19
276.842
182.782
145.413
116.424
93.8995
77.4152
65.4372
56.5611
49.8187
44.5232
40.1216
36.2098
32.5782
29.1522
25.9101
22.8939
20.2582
18.2407
17.0636
16.8742
17.3662
18.4385
20.2531
23.1
27.3796
33.6095
42.7142
56.9447
81.0398
121.892
184.817
265.048
333.316
348.422
305.449
238.512
181.349
144.14
121.724
107.643
98.3017
92.1313
88.4439
86.8405
87.0063
88.6553
91.515
95.3231
99.8404
104.872
110.284
116.01
122.035
128.369
135.022
141.983
149.199
156.578
163.983
171.243
178.161
184.52
190.11
194.596
197.998
200.213
201.108
200.552
198.444
194.738
189.464
182.737
174.732
165.616
155.477
144.232
131.807
118.492
105.17
92.6953
81.9402
73.6291
67.6046
63.2328
60.1868
58.4274
57.9622
58.5702
59.7724
60.9945
61.7687
61.8446
61.184
59.8883
58.1158
56.0242
53.7429
51.3668
48.9606
46.5667
44.2122
41.9151
39.6874
37.5376
35.4719
33.4948
31.6093
29.8173
28.119
26.514
25.0007
23.5764
22.238
20.9818
19.8037
18.6993
17.6643
16.6945
15.7856
14.9336
14.135
13.3867
12.6858
12.0301
11.4175
10.8467
10.3166
9.82766
9.38154
8.98283
8.64098
8.37435
8.2176
8.23644
8.5591
9.44648
11.4422
15.6635
24.2736
40.6868
67.0154
96.9381
117.219
125.01
128.722
133.463
138.597
142.239
143.278
141.372
136.644
129.487
120.447
110.23
99.4558
88.7248
78.6276
69.6893
62.2537
56.3412
51.6129
47.54
43.6766
39.827
36.0273
32.4232
29.1613
26.3378
23.9917
22.1168
20.6768
19.6202
18.8891
18.4242
18.1638
18.0427
17.9918
17.9542
17.887
1148.45
287.114
202.788
163.296
131.373
106.616
88.4298
75.0868
65.0719
57.343
51.2048
46.1639
41.8675
38.0917
34.7052
31.6255
28.8244
26.3768
24.4731
23.3637
23.3132
24.1924
25.9319
28.7196
32.8578
38.8107
47.3731
60.0191
79.278
108.657
151.386
206.397
260.207
288.176
276.643
235.351
186.858
148.241
123.006
107.28
97.2059
90.7263
86.9061
85.2594
85.4449
87.1671
90.1469
94.1155
98.8252
104.071
109.712
115.675
121.947
128.543
135.484
142.762
150.331
158.092
165.896
173.556
180.855
187.564
193.466
198.365
202.087
204.707
206.166
206.37
205.209
202.586
198.438
192.772
185.692
177.395
168.119
158.112
147.269
135.361
122.351
109.376
97.0225
86.2047
77.4362
70.5793
65.1806
60.9703
58.0066
56.409
56.0545
56.5265
57.2762
57.8265
57.8927
57.3886
56.365
54.9348
53.2192
51.3204
49.3145
47.2538
45.1736
43.098
41.044
39.0248
37.051
35.1319
33.2752
31.4873
29.7731
28.1364
26.5793
25.1026
23.7062
22.3885
21.1475
19.9803
18.8836
17.8538
16.8874
15.9806
15.1297
14.3313
13.5824
12.8802
12.2226
11.6074
11.0334
10.4997
10.0065
9.55576
9.15212
8.805
8.53253
8.36858
8.37664
8.67874
9.51842
11.3931
15.3058
23.1592
37.9087
61.4359
88.6074
108.149
116.709
120.591
124.507
128.62
131.565
132.326
130.505
126.139
119.526
111.1
101.485
91.2886
81.1452
71.7117
63.5792
57.1003
52.2153
48.4524
45.1687
41.869
38.3729
34.7667
31.2514
28.0195
25.2009
22.8587
21.0021
19.6039
18.615
17.9762
17.6237
17.4903
17.5048
17.5919
17.6834
17.7169
1039.01
305.034
228.906
186.932
151.972
124.815
104.692
89.7063
78.2341
69.1576
61.7779
55.6842
50.6403
46.4925
43.102
40.3126
37.9746
36.0187
34.5249
33.7216
33.9339
35.2617
37.6903
41.4496
46.9082
54.6478
65.5757
81.0434
102.84
132.654
170.037
208.729
236.152
240.956
221.815
188.182
153.618
126.917
109.147
97.7645
90.5185
86.1999
84.196
84.1242
85.6769
88.5697
92.5268
97.2878
102.629
108.389
114.477
120.87
127.585
134.65
142.075
149.822
157.796
165.839
173.742
181.264
188.15
194.155
199.078
202.765
205.281
206.729
207.104
206.356
204.406
201.172
196.596
190.648
183.398
175.013
165.658
155.88
145.545
134.482
122.695
110.578
98.8695
88.4161
79.676
72.4964
66.4621
61.4189
57.5704
55.1383
54.0521
53.9262
54.2364
54.5207
54.4913
54.0414
53.189
52.0112
50.5958
49.018
47.3336
45.5811
43.7869
41.9698
40.1447
38.3245
36.5208
34.7448
33.0066
31.3155
29.6793
28.1045
26.5959
25.1568
23.789
22.4929
21.2679
20.1126
19.0245
18.0011
17.0392
16.1359
15.2874
14.4905
13.7426
13.041
12.3833
11.7676
11.1926
10.6573
10.1622
9.70897
9.30227
8.95125
8.67333
8.50084
8.49363
8.76493
9.53623
11.2507
14.7857
21.7774
34.7563
55.5025
80.1722
99.2156
108.565
112.617
115.757
118.856
121.067
121.51
119.741
115.711
109.618
101.814
92.8609
83.3689
74.0179
65.517
58.4684
53.1499
49.3546
46.4649
43.7646
40.7769
37.3976
33.7978
30.2425
26.9631
24.1117
21.7638
19.9346
18.597
17.6985
17.1746
16.9566
16.9734
17.1502
17.4085
17.6724
17.8688
938.739
327.654
259.714
216.202
179.031
150.021
128.272
111.78
98.8378
88.2397
79.2388
71.4659
64.8307
59.3911
55.2086
52.2366
50.2886
49.1086
48.5004
48.436
49.0748
50.8524
53.8224
58.2679
64.5852
73.3352
85.2892
101.386
122.372
147.802
174.615
196.773
207.375
202.374
183.418
157.391
132.462
113.363
100.385
91.9799
86.8285
84.1778
83.5856
84.729
87.3219
91.0864
95.751
101.069
106.845
112.956
119.351
126.038
133.048
140.408
148.104
156.065
164.144
172.122
179.739
186.714
192.774
197.681
201.258
203.451
204.543
204.647
203.794
201.971
199.118
195.187
190.181
184.038
176.804
168.65
159.827
150.554
140.844
130.595
119.786
108.708
98.0089
88.3938
80.1536
73.0346
66.6796
61.1193
56.7223
53.7768
52.2175
51.6632
51.6148
51.6441
51.4853
51.0326
50.2866
49.2974
48.1243
46.8176
45.4134
43.9359
42.402
40.8245
39.2147
37.5842
35.9446
34.3082
32.6869
31.0921
29.5341
28.0219
26.5627
25.162
23.8237
22.5502
21.3422
20.1996
19.1213
18.1052
17.149
16.2501
15.405
14.6111
13.8656
13.166
12.5099
11.8956
11.3214
10.7867
10.2917
9.83804
9.43012
9.07662
8.79394
8.61221
8.5866
8.81981
9.50846
11.0377
14.1564
20.2409
31.4281
49.4417
71.7133
90.3362
100.546
104.924
107.425
109.533
110.947
110.98
109.177
105.404
99.7657
92.5711
84.3472
75.7167
67.3954
60.103
54.3744
50.3306
47.577
45.371
42.9903
40.0528
36.5829
32.8538
29.1862
25.8334
22.9533
20.6208
18.8469
17.5977
16.8129
16.4223
16.3538
16.5343
16.8874
17.3313
17.785
18.1702
847.467
351.06
292.998
250.359
213.165
184.002
161.941
144.977
131.368
119.796
109.362
99.5806
90.3704
81.9902
74.8961
69.5273
66.0908
64.4538
64.2162
64.9198
66.2604
68.5939
71.959
76.6763
83.1638
91.9044
103.373
117.814
134.82
152.857
169.088
179.829
181.737
173.504
157.123
137.331
119.106
105.114
95.4709
89.2932
85.8024
84.5006
85.0474
87.1614
90.5653
94.9858
100.159
105.855
111.902
118.206
124.741
131.528
138.6
145.971
153.604
161.399
169.192
176.687
183.573
189.578
194.432
197.926
199.948
200.68
200.394
199.191
197.139
194.278
190.616
186.15
180.845
174.659
167.615
159.84
151.53
142.844
133.81
124.367
114.527
104.58
95.0944
86.5769
79.0671
72.1917
65.7202
59.9205
55.2995
52.1479
50.3583
49.5383
49.2218
49.0314
48.7412
48.261
47.5847
46.7425
45.7701
44.6958
43.5379
42.3073
41.0113
39.6562
38.2495
36.8003
35.3197
33.82
32.3144
30.8158
29.3366
27.8879
26.4792
25.1181
23.8106
22.5607
21.3709
20.2422
19.1744
18.1667
17.2172
16.3236
15.4832
14.6933
13.9514
13.2551
12.6023
11.9908
11.4194
10.887
10.394
9.94173
9.53433
9.17981
8.89324
8.70209
8.65612
8.84631
9.44307
10.7726
13.4569
18.6249
28.0442
43.363
63.1855
81.2914
92.4523
97.4534
99.5925
100.806
101.365
100.866
98.9013
95.2787
90.0367
83.4839
76.115
68.5541
61.5203
55.677
51.4069
48.6133
46.713
44.8982
42.5299
39.3952
35.6786
31.7474
27.9536
24.5475
21.6752
19.3995
17.7197
16.5906
15.9444
15.7069
15.8051
16.1653
16.7079
17.3458
17.9907
18.5605
769.445
368.751
326.359
289.689
256.893
231.216
211.911
197.188
185.378
175.035
164.95
154.225
142.386
129.512
116.298
103.933
93.7353
86.6281
82.7659
81.5945
82.3125
84.3431
87.7807
92.4317
98.6221
106.639
116.595
128.255
140.845
152.931
162.474
167.174
165.225
156.343
142.373
126.699
112.59
101.734
94.2434
89.5976
87.2919
86.9618
88.3314
91.1869
95.1796
100.032
105.504
111.385
117.523
123.836
130.306
136.949
143.785
150.806
157.952
165.098
172.054
178.561
184.342
189.135
192.705
194.881
195.595
195.119
193.646
191.302
188.202
184.44
180.07
175.114
169.552
163.356
156.536
149.18
141.427
133.384
125.069
116.453
107.617
98.8873
90.7378
83.4033
76.6289
70.0006
63.5331
57.7456
53.2024
50.1138
48.2935
47.3383
46.8309
46.4615
46.0567
45.5495
44.9326
44.2208
43.4296
42.5681
41.6389
40.6406
39.5714
38.4312
37.2229
35.9529
34.6309
33.2688
31.8804
30.48
29.0816
27.6984
26.342
25.0221
23.7467
22.5215
21.3507
20.2366
19.1802
18.1815
17.2393
16.3517
15.5165
14.7315
13.9942
13.3025
12.654
12.0468
11.4795
10.9511
10.4617
10.0125
9.60733
9.25334
8.96419
8.76453
8.69855
8.84573
9.35168
10.4886
12.7653
17.0937
24.9136
37.7479
55.1287
72.4925
84.5699
90.5202
92.7205
93.2982
93.0456
91.9129
89.6225
85.9841
81.0092
75.0543
68.6147
62.293
56.7455
52.4848
49.6563
47.9148
46.5316
44.7316
42.0605
38.5303
34.4838
30.3484
26.4694
23.0684
20.2648
18.1015
16.5622
15.5911
15.1149
15.0592
15.3521
15.9181
16.6704
17.5116
18.3434
19.0782
829.91
355.154
346.143
322.481
300.069
283.131
271.433
263.691
258.501
254.384
249.771
243.077
232.872
218.164
198.851
176.185
152.829
132.114
116.663
107.299
103.093
102.497
104.936
108.693
113.834
120.414
128.301
137.077
145.951
153.733
158.923
160.01
156.02
147.141
134.973
122.013
110.542
101.736
95.7247
92.1793
90.7982
91.2474
93.2413
96.5584
100.891
105.972
111.565
117.467
123.532
129.68
135.882
142.141
148.461
154.82
161.152
167.338
173.207
178.541
183.108
186.681
189.058
190.09
189.74
188.268
185.84
182.61
178.725
174.306
169.437
164.155
158.455
152.316
145.744
138.798
131.57
124.12
116.457
108.598
100.705
93.1328
86.1949
79.8009
73.4834
66.9701
60.5979
55.0484
50.8185
47.9767
46.2547
45.2571
44.6294
44.1336
43.6469
43.1247
42.5601
41.9566
41.3151
40.6305
39.8933
39.0927
38.2193
37.2672
36.235
35.126
33.948
32.7123
31.4324
30.1235
28.801
27.4795
26.1725
24.8918
23.6468
22.4453
21.2927