/*--------------------------------*- C++ -*----------------------------------*\
  =========                 |
  \\      /  F ield         | OpenFOAM: The Open Source CFD Toolbox
   \\    /   O peration     | Website:  https://openfoam.org
    \\  /    A nd           | Version:  9
     \\/     M anipulation  |
\*---------------------------------------------------------------------------*/
FoamFile
{
    format      ascii;
    class       volScalarField;
    location    "0.29";
    object      k;
}
// * * * * * * * * * * * * * * * * * * * * * * * * * * * * * * * * * * * * * //

dimensions      [0 2 -2 0 0 0 0];

internalField   nonuniform List<scalar> 
12225
(
0.314466
0.264144
0.226235
0.198771
0.18032
0.169711
0.165887
0.167813
0.174453
0.184807
0.197941
0.213026
0.229361
0.246382
0.263667
0.280925
0.298006
0.319182
0.362014
0.350169
0.347227
0.356659
0.378752
0.412422
0.455758
0.506306
0.561434
0.618668
0.675922
0.731599
0.784606
0.834307
0.880423
0.923003
0.962084
0.998878
0.368516
0.362719
0.357219
0.353187
0.35177
0.353408
0.358086
0.365526
0.375277
0.386795
0.399528
0.412968
0.426688
0.440343
0.453671
0.466462
0.478518
0.489719
0.36976
0.364188
0.358789
0.353822
0.349633
0.346415
0.344179
0.342831
0.342218
0.342164
0.342492
0.343048
0.343702
0.344355
0.344925
0.345346
0.345557
0.345433
0.370291
0.365275
0.360326
0.35555
0.351068
0.346973
0.343303
0.340047
0.337161
0.334584
0.332247
0.330087
0.328051
0.326094
0.324187
0.322311
0.320456
0.318691
0.370514
0.365877
0.361332
0.3569
0.352629
0.348566
0.344739
0.341157
0.33781
0.33468
0.331744
0.328974
0.326349
0.32385
0.321468
0.319202
0.317068
0.315116
0.370598
0.366154
0.361865
0.357713
0.353706
0.349858
0.346182
0.34268
0.339353
0.336196
0.333201
0.330359
0.327661
0.325102
0.322679
0.320401
0.318284
0.316376
0.370625
0.366264
0.362109
0.358134
0.354322
0.35067
0.347174
0.343831
0.340638
0.337593
0.334691
0.331929
0.329304
0.326814
0.324463
0.322258
0.320218
0.318388
0.370632
0.366299
0.362204
0.358319
0.354621
0.351098
0.347737
0.34453
0.341469
0.338549
0.335765
0.333114
0.330592
0.328202
0.325944
0.323827
0.321868
0.320106
0.370632
0.366307
0.362233
0.358385
0.354742
0.351287
0.348007
0.344888
0.34192
0.339095
0.336405
0.333847
0.331416
0.329111
0.326935
0.324892
0.322998
0.321284
0.370631
0.366306
0.362236
0.358401
0.354779
0.351354
0.348112
0.345039
0.342123
0.339354
0.336724
0.334227
0.331857
0.329612
0.327492
0.325499
0.323646
0.321957
0.370629
0.366303
0.362233
0.358399
0.354782
0.351367
0.348138
0.345082
0.342187
0.339443
0.336841
0.334373
0.332033
0.329817
0.327724
0.325755
0.323916
0.322233
0.370629
0.3663
0.362228
0.358393
0.354776
0.351363
0.348137
0.345088
0.342201
0.339467
0.336877
0.334421
0.332095
0.329892
0.32781
0.325849
0.324013
0.322322
0.370628
0.366298
0.362223
0.358386
0.354767
0.351352
0.348126
0.345076
0.342191
0.339459
0.336871
0.334419
0.332096
0.329896
0.327814
0.32585
0.324006
0.322301
0.370627
0.366296
0.362219
0.358379
0.354757
0.351339
0.348111
0.345058
0.342171
0.339437
0.336847
0.334393
0.332067
0.329863
0.327776
0.325803
0.323946
0.322222
0.370627
0.366295
0.362216
0.358373
0.354749
0.351328
0.348096
0.345041
0.34215
0.339413
0.336819
0.334362
0.332031
0.329822
0.327729
0.325747
0.323877
0.322136
0.370627
0.366294
0.362214
0.358368
0.354741
0.351318
0.348083
0.345025
0.342132
0.339392
0.336797
0.334336
0.332003
0.329791
0.327694
0.325708
0.32383
0.32208
0.370627
0.366294
0.362212
0.358365
0.354736
0.351311
0.348075
0.345015
0.34212
0.339379
0.336783
0.334323
0.331991
0.32978
0.327684
0.325699
0.323822
0.322071
0.370627
0.366294
0.362212
0.358364
0.354734
0.351307
0.34807
0.34501
0.342116
0.339377
0.336783
0.334327
0.331999
0.329794
0.327705
0.325727
0.323858
0.322113
0.370628
0.366294
0.362212
0.358364
0.354735
0.351309
0.348073
0.345014
0.342123
0.339387
0.336797
0.334346
0.332025
0.329828
0.327747
0.325779
0.323918
0.322183
0.370628
0.366295
0.362214
0.358366
0.354738
0.351313
0.348078
0.345022
0.342133
0.3394
0.336815
0.334368
0.332052
0.329859
0.327785
0.325822
0.323968
0.322238
0.370629
0.366296
0.362216
0.358369
0.354741
0.351317
0.348083
0.345027
0.342137
0.339404
0.336817
0.334369
0.332051
0.329857
0.327781
0.325816
0.323959
0.322226
0.37063
0.366298
0.362216
0.358368
0.354736
0.351305
0.348061
0.344991
0.342085
0.339331
0.336722
0.334248
0.331903
0.329681
0.327575
0.32558
0.323693
0.321929
0.370629
0.366294
0.362202
0.358334
0.354671
0.351198
0.347901
0.34477
0.341795
0.338967
0.336279
0.333726
0.331301
0.328999
0.326814
0.324744
0.322785
0.320952
0.370622
0.366258
0.362111
0.358155
0.354375
0.350759
0.347302
0.344002
0.340856
0.33786
0.335012
0.332309
0.329747
0.32732
0.325023
0.322853
0.320804
0.318892
0.370575
0.366085
0.361742
0.357534
0.353459
0.349534
0.345777
0.342202
0.338821
0.335636
0.332647
0.329848
0.327231
0.324786
0.3225
0.320364
0.318367
0.316516
0.370372
0.365515
0.360682
0.355898
0.351266
0.346897
0.342858
0.339177
0.335859
0.332895
0.330263
0.327936
0.32588
0.324062
0.322448
0.321007
0.319712
0.318547
0.369687
0.364177
0.358308
0.352519
0.347378
0.343158
0.339919
0.337646
0.336284
0.335752
0.335948
0.336758
0.338063
0.339749
0.341707
0.343837
0.346058
0.348291
0.365823
0.354735
0.345495
0.340181
0.339215
0.342386
0.349287
0.359396
0.372119
0.386845
0.402984
0.419986
0.437356
0.454666
0.471563
0.487767
0.503098
0.517313
0.336635
0.302343
0.273957
0.250498
0.231295
0.215808
0.203592
0.194258
0.187445
0.182818
0.180059
0.178871
0.178977
0.180121
0.182073
0.184629
0.187613
0.190863
0.169737
0.236057
0.28494
0.324201
0.356701
0.386612
0.41272
0.42653
0.433344
0.438606
0.443128
0.447859
0.453331
0.460017
0.468345
0.478697
0.491445
0.506971
0.52584
0.546213
0.5646
0.579357
0.58828
0.588289
0.575051
0.542385
0.481727
0.38567
0.264732
0.165489
0.145074
0.145965
0.17186
0.199182
0.227696
0.261518
0.303145
0.34707
0.361828
0.348315
0.318231
0.283575
0.256173
0.237963
0.23128
0.233808
0.240183
0.251775
0.28696
0.388844
0.596164
0.788368
0.951593
1.08899
1.20123
1.29034
1.35885
1.40938
1.44446
1.46639
1.47724
1.47883
1.47274
1.46034
1.4428
1.42111
1.39611
1.36848
1.3395
1.31011
1.28037
1.25036
1.22015
1.18981
1.15937
1.12885
1.09822
1.06744
1.03639
1.00491
0.97281
0.939809
0.905607
0.869881
0.832333
0.792734
0.750982
0.707144
0.661485
0.614468
0.566723
0.518999
0.472124
0.427079
0.385704
0.35404
0.339738
0.329693
0.321056
0.313501
0.306961
0.301398
0.296771
0.293027
0.290107
0.287943
0.286459
0.285577
0.28521
0.285268
0.285646
0.286229
0.286898
0.287471
0.287308
0.285521
0.281436
0.274507
0.264428
0.251325
0.235842
0.218857
0.200711
0.179337
0.159614
0.148408
0.143367
0.142422
0.14373
0.145812
0.147612
0.148505
0.148269
0.147026
0.145217
0.14348
0.142572
0.143599
0.147864
0.156682
0.17171
0.186543
0.202761
0.221679
0.244675
0.285711
0.402063
0.557905
0.679429
0.770271
0.834342
0.876873
0.903228
0.918925
0.927392
0.925971
0.915744
0.896949
0.86927
0.832066
0.784762
0.727848
0.667219
0.643142
0.640838
0.638442
0.636614
0.636456
0.638641
0.643309
0.650254
0.659096
0.668329
0.671029
0.654611
0.608289
0.5312
0.438938
0.363512
0.317454
0.129705
0.179886
0.213768
0.257478
0.37403
0.511684
0.562889
0.574922
0.570382
0.556758
0.536702
0.512576
0.486761
0.461089
0.436721
0.414314
0.394268
0.376808
0.362305
0.352986
0.349914
0.353418
0.363634
0.380333
0.402792
0.4296
0.458213
0.486341
0.513136
0.522029
0.479356
0.388276
0.296106
0.248941
0.255131
0.311496
0.403432
0.498605
0.552214
0.540615
0.484203
0.423017
0.408061
0.47086
0.619595
0.816381
0.942936
0.943804
0.920801
0.91023
0.910168
0.905467
0.895846
0.883423
0.870143
0.857551
0.846717
0.838306
0.832665
0.829913
0.830019
0.832866
0.838302
0.846187
0.856416
0.868933
0.883712
0.900739
0.919065
0.937967
0.957499
0.977733
0.99874
1.02057
1.04326
1.06676
1.09099
1.11573
1.14065
1.16521
1.18869
1.2101
1.22823
1.24168
1.24894
1.24855
1.23931
1.22042
1.1917
1.15356
1.10704
1.05361
0.995029
0.932999
0.86868
0.803697
0.748685
0.698597
0.651983
0.608767
0.568849
0.53208
0.498272
0.467213
0.438683
0.412462
0.388338
0.366109
0.345588
0.326602
0.308996
0.292627
0.277373
0.263119
0.249679
0.236985
0.225282
0.214776
0.205578
0.197873
0.191932
0.188184
0.187491
0.191391
0.199965
0.211843
0.225197
0.238337
0.249821
0.258551
0.263813
0.265225
0.262707
0.256428
0.246731
0.234165
0.219707
0.20494
0.192363
0.185853
0.190742
0.213485
0.267511
0.37929
0.550917
0.700651
0.787586
0.881544
0.987344
1.09556
1.19647
1.28492
1.36034
1.42472
1.47998
1.52972
1.57373
1.61004
1.6349
1.64304
1.62847
1.58589
1.51281
1.42835
1.33662
1.24111
1.14705
1.05792
0.975586
0.900729
0.833079
0.771868
0.716697
0.666372
0.622137
0.595521
0.601077
0.658148
0.779988
0.963636
0.0975335
0.132813
0.18719
0.373768
0.594668
0.649147
0.612443
0.555252
0.503267
0.460635
0.425877
0.397074
0.372794
0.352039
0.3341
0.31846
0.304746
0.29268
0.282082
0.272978
0.266829
0.264053
0.265417
0.271767
0.283783
0.301806
0.325946
0.356797
0.395621
0.437499
0.463681
0.45213
0.401027
0.338707
0.301727
0.324269
0.422417
0.552311
0.654536
0.685548
0.666794
0.711095
0.84813
1.0278
1.08124
1.02913
0.952855
0.881829
0.829928
0.796805
0.776759
0.764821
0.759734
0.76082
0.767189
0.777636
0.790778
0.805309
0.820225
0.834935
0.849232
0.863166
0.876907
0.890635
0.904486
0.918526
0.93276
0.94706
0.961512
0.976255
0.991483
1.00744
1.02439
1.04262
1.06239
1.08394
1.10742
1.13288
1.16023
1.18912
1.21893
1.24868
1.27701
1.30221
1.32228
1.33513
1.33882
1.33187
1.31343
1.28348
1.24282
1.19289
1.13555
1.0727
1.00562
0.937891
0.87864
0.823026
0.77074
0.72187
0.676407
0.634257
0.595266
0.559244
0.525981
0.495264
0.466882
0.440633
0.416329
0.393793
0.372868
0.353403
0.33526
0.318309
0.302379
0.287268
0.272644
0.258462
0.244923
0.232135
0.220262
0.20953
0.200262
0.192914
0.187764
0.184834
0.183949
0.184747
0.186707
0.189213
0.191642
0.193442
0.194187
0.19359
0.191504
0.18794
0.183214
0.178364
0.176123
0.182341
0.207358
0.268457
0.393186
0.596216
0.801887
0.909485
1.01077
1.16417
1.32849
1.46715
1.57049
1.64634
1.70505
1.75285
1.79259
1.82752
1.85789
1.88203
1.89595
1.89338
1.86677
1.80876
1.72204
1.62166
1.51066
1.39616
1.28445
1.17964
1.08383
0.997677
0.920902
0.852956
0.793425
0.740069
0.689854
0.642146
0.604457
0.588898
0.606437
0.667987
0.0836381
0.184245
0.513165
0.758601
0.7523
0.659288
0.565179
0.492131
0.438564
0.398672
0.367915
0.343393
0.323276
0.306391
0.291969
0.279502
0.268649
0.259184
0.250957
0.243873
0.238097
0.233652
0.230931
0.230652
0.23381
0.241427
0.254262
0.273128
0.299543
0.333698
0.3694
0.393045
0.39337
0.377888
0.37635
0.425939
0.564877
0.754057
0.927889
1.03242
1.11847
1.12529
1.10192
1.04695
0.958192
0.868127
0.798657
0.7534
0.729855
0.723032
0.728
0.74109
0.759804
0.781915
0.805345
0.82834
0.849703
0.86889
0.88589
0.900985
0.914508
0.926698
0.937659
0.947386
0.955829
0.962954
0.968795
0.973247
0.976521
0.978916
0.980811
0.982673
0.98505
0.988546
0.993806
1.00147
1.01215
1.02636
1.04445
1.06654
1.0924
1.12139
1.15234
1.18354
1.21279
1.23753
1.25515
1.26333
1.26037
1.24548
1.21883
1.18148
1.13506
1.08137
1.02155
0.963161
0.908812
0.856731
0.807163
0.760356
0.716413
0.675325
0.637011
0.601344
0.568169
0.537321
0.508633
0.481942
0.457093
0.43394
0.412348
0.392193
0.37336
0.355738
0.339215
0.323658
0.308897
0.294676
0.280954
0.267799
0.255266
0.243457
0.232494
0.222504
0.213582
0.205774
0.19909
0.193499
0.188912
0.185188
0.18214
0.179554
0.177223
0.174984
0.172763
0.170649
0.169077
0.169371
0.175118
0.194494
0.242808
0.344623
0.523635
0.754308
0.927981
1.03204
1.18898
1.38896
1.56907
1.7023
1.79295
1.85375
1.89378
1.91763
1.9304
1.93692
1.93904
1.93652
1.92645
1.90309
1.85859
1.78632
1.69518
1.58939
1.47491
1.35907
1.24791
1.14523
1.05283
0.97106
0.899463
0.837297
0.783745
0.737733
0.697486
0.660025
0.623554
0.59156
0.568579
0.561331
0.175334
0.583371
0.839024
0.771263
0.648804
0.549575
0.479759
0.429868
0.391808
0.361089
0.335457
0.313703
0.295094
0.279117
0.265374
0.253544
0.24339
0.234756
0.227558
0.221733
0.217153
0.213503
0.210783
0.209174
0.20916
0.211614
0.217629
0.228218
0.24453
0.268015
0.298624
0.332094
0.362227
0.394705
0.462086
0.604422
0.828617
1.1241
1.40766
1.39604
1.20299
1.06889
0.961569
0.868555
0.791801
0.738429
0.709719
0.701856
0.709729
0.728398
0.753811
0.782884
0.81322
0.842915
0.870676
0.895894
0.918519
0.938785
0.956951
0.973151
0.987369
0.999474
1.00928
1.01658
1.02121
1.02304
1.02201
1.01783
1.01067
1.00078
0.988591
0.97468
0.959821
0.944949
0.931128
0.91951
0.911269
0.907529
0.909271
0.917232
0.93178
0.952796
0.97954
1.01057
1.04373
1.07625
1.10498
1.1268
1.13906
1.14
1.12895
1.10634
1.07347
1.03191
0.984081
0.937581
0.891603
0.846555
0.803024
0.761393
0.72187
0.684534
0.649382
0.616359
0.585375
0.556324
0.529092
0.503567
0.479634
0.457189
0.43613
0.416363
0.397799
0.380351
0.363934
0.348457
0.33382
0.319897
0.306497
0.293638
0.28131
0.269537
0.258365
0.247853
0.238057
0.229007
0.220713
0.213168
0.206354
0.200235
0.194759
0.189855
0.18545
0.181503
0.178068
0.175412
0.17429
0.176664
0.187379
0.216927
0.284491
0.41681
0.623498
0.841272
0.986362
1.12016
1.32331
1.54422
1.72324
1.84673
1.92518
1.97016
1.98864
1.98491
1.96613
1.93885
1.90674
1.87155
1.83211
1.78375
1.71927
1.63956
1.54546
1.44044
1.33045
1.22195
1.12007
1.02788
0.94659
0.876141
0.815762
0.764439
0.721169
0.685033
0.654893
0.628936
0.604689
0.579775
0.555335
0.534029
0.3517
0.843056
0.761495
0.627842
0.537516
0.479859
0.437135
0.400382
0.367068
0.337194
0.311062
0.288612
0.269496
0.253244
0.239385
0.227538
0.217465
0.209061
0.202298
0.197165
0.193626
0.191431
0.190339
0.190134
0.190737
0.192366
0.195731
0.202044
0.212742
0.229689
0.255573
0.292916
0.345192
0.43169
0.602793
0.895339
1.27373
1.65196
1.54999
1.24715
1.03285
0.894723
0.801255
0.738613
0.701784
0.687986
0.692984
0.711669
0.739325
0.772093
0.806994
0.841821
0.875084
0.905983
0.93429
0.960119
0.983698
1.00522
1.02477
1.04236
1.0579
1.07124
1.08217
1.09042
1.09564
1.09751
1.09527
1.08831
1.0765
1.05985
1.03858
1.0132
0.984488
0.953547
0.921748
0.8907
0.862171
0.837977
0.819843
0.80925
0.807274
0.814439
0.830574
0.854705
0.885008
0.918827
0.952843
0.983417
1.00706
1.02095
1.02348
1.01427
0.994016
0.964085
0.929672
0.893456
0.856124
0.818662
0.7818
0.746018
0.711605
0.678715
0.647417
0.617716
0.589585
0.562971
0.537813
0.514041
0.491586
0.470376
0.450345
0.431425
0.413553
0.396665
0.380699
0.365588
0.351263
0.33764
0.324618
0.312094
0.300091
0.2886
0.277629
0.267196
0.257325
0.248032
0.239322
0.231194
0.223641
0.216654
0.210221
0.204324
0.198948
0.194116
0.189951
0.186836
0.185793
0.189399
0.203674
0.240988
0.322926
0.474583
0.687601
0.88212
1.01515
1.17742
1.41327
1.64056
1.81334
1.92685
1.9931
2.02154
2.01796
1.98704
1.93776
1.8781
1.81315
1.74655
1.67955
1.60775
1.53106
1.44554
1.35113
1.25072
1.14924
1.05185
0.962544
0.883542
0.81549
0.757947
0.709893
0.670128
0.63751
0.611059
0.589846
0.572698
0.558231
0.543816
0.527769
0.510619
0.582845
0.750287
0.619998
0.542974
0.49966
0.462399
0.422667
0.382299
0.34513
0.313091
0.286293
0.264049
0.245448
0.229632
0.215973
0.204133
0.19401
0.18562
0.179
0.174169
0.171231
0.170188
0.1707
0.172359
0.174778
0.177663
0.181019
0.185636
0.193334
0.206835
0.230842
0.273909
0.3536
0.512778
0.801006
1.19211
1.61843
1.63866
1.30399
1.02875
0.859723
0.760938
0.705672
0.680294
0.677367
0.691464
0.717573
0.751274
0.788995
0.828023
0.866458
0.903163
0.937623
0.969744
0.999646
1.02752
1.05354
1.07786
1.10057
1.1217
1.1412
1.15887
1.1744
1.18735
1.19718
1.2033
1.20368
1.19779
1.1852
1.16566
1.13917
1.10606
1.067
1.02304
0.975662
0.926747
0.87854
0.833524
0.794213
0.76291
0.741453
0.731013
0.731948
0.743739
0.765008
0.793522
0.826211
0.85937
0.889023
0.911416
0.923998
0.925352
0.915474
0.896908
0.873217
0.845989
0.816653
0.786324
0.7558
0.725622
0.696143
0.667579
0.640054
0.613633
0.588338
0.564171
0.541114
0.519141
0.49822
0.478315
0.459387
0.441397
0.424302
0.40806
0.392626
0.377952
0.363989
0.350681
0.337965
0.325757
0.314053
0.302836
0.292104
0.281861
0.272116
0.262875
0.254139
0.245905
0.238168
0.230925
0.224172
0.217912
0.212162
0.206978
0.202527
0.199263
0.198403
0.20302
0.220043
0.263146
0.35478
0.515723
0.723306
0.898668
1.03166
1.21232
1.45395
1.68087
1.85069
1.95633
2.01161
2.02498
2.00185
1.94758
1.87279
1.7866
1.69499
1.60203
1.51404
1.42833
1.34254
1.25408
1.16242
1.0694
0.978464
0.893326
0.816829
0.750464
0.694474
0.64823
0.610639
0.580455
0.5565
0.537776
0.52345
0.512665
0.504378
0.497549
0.489393
0.479276
0.6946
0.633037
0.563905
0.537182
0.505273
0.458904
0.407623
0.360861
0.322024
0.290758
0.265616
0.245029
0.227567
0.212234
0.198587
0.186551
0.176203
0.167661
0.161002
0.156252
0.153658
0.153392
0.155061
0.158183
0.162234
0.166649
0.17091
0.175275
0.181778
0.194334
0.220433
0.276832
0.400479
0.647057
1.00584
1.40976
1.60395
1.35537
1.05186
0.852012
0.741158
0.686384
0.666822
0.670829
0.691199
0.722666
0.761017
0.802942
0.846009
0.888612
0.929862
0.969397
1.00717
1.04327
1.07785
1.11106
1.14306
1.174
1.20394
1.23285
1.2605
1.28649
1.3102
1.33083
1.34747
1.35907
1.36297
1.35894
1.34641
1.32497
1.29443
1.25495
1.207
1.15145
1.08965
1.02353
0.955641
0.889096
0.827326
0.773653
0.730833
0.70069
0.683934
0.680169
0.688244
0.706405
0.732156
0.762191
0.792566
0.818777
0.83753
0.846242
0.844857
0.835593
0.820434
0.801057
0.778885
0.755027
0.730301
0.705281
0.680357
0.655792
0.631755
0.60836
0.585679
0.563756
0.542621
0.522287
0.502759
0.484033
0.466101
0.448946
0.43255
0.416886
0.401928
0.387644
0.373998
0.360955
0.348472
0.336497
0.325007
0.313994
0.303448
0.293368
0.283755
0.274612
0.265937
0.257728
0.249983
0.242701
0.235886
0.22955
0.223726
0.218494
0.214048
0.210889
0.210368
0.215898
0.234997
0.282009
0.378992
0.541722
0.739237
0.901478
1.03671
1.22334
1.45938
1.67821
1.84083
1.94177
1.98999
1.99244
1.95467
1.88297
1.78937
1.68399
1.57414
1.46602
1.36407
1.26847
1.17772
1.08987
1.00387
0.920181
0.840591
0.767373
0.702387
0.64661
0.600111
0.562293
0.532169
0.508606
0.490509
0.476935
0.467117
0.460342
0.455801
0.452633
0.449747
0.445076
0.868222
0.634748
0.590196
0.565162
0.513465
0.449119
0.38993
0.342189
0.305215
0.276447
0.253544
0.234487
0.217666
0.202279
0.188231
0.175638
0.164667
0.155602
0.148683
0.14396
0.141855
0.142441
0.145061
0.149121
0.15405
0.159235
0.164127
0.169098
0.176704
0.19224
0.22756
0.311855
0.498805
0.808125
1.16854
1.43184
1.34884
1.08152
0.862451
0.735576
0.675451
0.656906
0.664444
0.688903
0.724376
0.766642
0.812561
0.859909
0.907283
0.953935
0.999559
1.04408
1.08754
1.12999
1.17156
1.2124
1.25271
1.29258
1.33201
1.37075
1.40834
1.44401
1.47681
1.50561
1.52927
1.54481
1.55173
1.54934
1.53694
1.51406
1.48046
1.43622
1.38163
1.3173
1.24415
1.16368
1.07817
0.990991
0.906453
0.829259
0.763612
0.712429
0.676883
0.656273
0.64913
0.653935
0.668921
0.691481
0.71818
0.744035
0.76537
0.778396
0.783343
0.781113
0.772985
0.760356
0.744498
0.726447
0.706988
0.686692
0.665962
0.645083
0.62426
0.603643
0.583345
0.563455
0.544043
0.525161
0.506851
0.489143
0.472055
0.455598
0.439773
0.424575
0.409992
0.396006
0.382597
0.36974
0.35741
0.345576
0.334213
0.323316
0.312877
0.302892
0.293358
0.284277
0.275649
0.267471
0.259746
0.252477
0.245674
0.239357
0.233573
0.228419
0.224111
0.221185
0.221077
0.22738
0.247865
0.296963
0.395563
0.555102
0.74146
0.894426
1.02949
1.21195
1.4349
1.64159
1.79653
1.8928
1.93562
1.9309
1.88452
1.80356
1.69994
1.58387
1.4635
1.34576
1.23555
1.13479
1.04322
0.959306
0.881205
0.80786
0.739426
0.67692
0.621484
0.573838
0.534099
0.501866
0.47639
0.456752
0.442016
0.431341
0.424018
0.419399
0.416782
0.415371
0.414795
0.413345
0.936528
0.649949
0.630639
0.588952
0.515707
0.440883
0.379663
0.333485
0.298851
0.272141
0.250715
0.232368
0.215487
0.19952
0.184616
0.170973
0.158881
0.149014
0.14203
0.138025
0.137094
0.138463
0.141322
0.145307
0.150153
0.155659
0.161885
0.170096
0.183854
0.211587
0.271606
0.401579
0.635605
0.936299
1.20266
1.25574
1.08667
0.87986
0.739972
0.670449
0.648708
0.656618
0.683029
0.721155
0.766538
0.816062
0.867582
0.91976
0.971869
1.02356
1.07468
1.12516
1.17498
1.22425
1.27314
1.3219
1.37072
1.41961
1.46835
1.51643
1.56305
1.60711
1.64733
1.68227
1.71043
1.72881
1.73747
1.73563
1.72255
1.69777
1.66116
1.61289
1.55339
1.48323
1.40305
1.31364
1.21638
1.11387
1.01054
0.912151
0.824568
0.752471
0.698324
0.661117
0.638536
0.628875
0.631149
0.643635
0.66362
0.686048
0.706207
0.721542
0.730722
0.733683
0.731145
0.724152
0.713753
0.70085
0.686147
0.67017
0.653306
0.635842
0.618
0.599957
0.581858
0.563829
0.545977
0.528393
0.511155
0.494323
0.477947
0.462063
0.446694
0.431854
0.417548
0.403773
0.39052
0.377776
0.365527
0.353756
0.342445
0.33159
0.321184
0.311223
0.301706
0.292634
0.284006
0.275825
0.268096
0.260827
0.254033
0.247745
0.24202
0.236969
0.232826
0.230154
0.230425
0.237263
0.258393
0.307857
0.405024
0.558241
0.733636
0.879191
1.01072
1.18197
1.38706
1.57911
1.72564
1.81752
1.85696
1.84892
1.79934
1.7153
1.60801
1.4875
1.36235
1.24008
1.12652
1.02502
0.936406
0.859147
0.790381
0.727495
0.669229
0.61568
0.567603
0.525721
0.490375
0.461468
0.438553
0.420961
0.407941
0.39876
0.392747
0.389257
0.387596
0.386992
0.386949
0.386968
0.932291
0.680426
0.674861
0.612415
0.524166
0.443607
0.381735
0.336581
0.303097
0.277235
0.256244
0.237852
0.220517
0.203824
0.188022
0.173395
0.160363
0.149808
0.142702
0.139312
0.139194
0.140679
0.143387
0.147482
0.153272
0.161321
0.172663
0.189188
0.215338
0.263174
0.355834
0.519046
0.748619
0.98351
1.10509
1.04401
0.88786
0.749761
0.670708
0.642425
0.647604
0.673595
0.712637
0.759891
0.812129
0.867156
0.923565
0.980532
1.03759
1.09444
1.15089
1.20687
1.26249
1.31796
1.3736
1.42966
1.48622
1.54309
1.59975
1.65535
1.70876
1.75862
1.80339
1.84143
1.87098
1.88992
1.89828
1.89528
1.88016
1.85247
1.81212
1.75946
1.69521
1.62029
1.53553
1.44146
1.33843
1.22768
1.11278
0.99978
0.895275
0.805466
0.734968
0.683006
0.646287
0.622725
0.612058
0.613717
0.624795
0.641423
0.659332
0.675063
0.686541
0.693032
0.694732
0.692301
0.686523
0.678114
0.667658
0.655602
0.642289
0.627988
0.612918
0.597272
0.581218
0.564913
0.548495
0.532091
0.51581
0.499748
0.483981
0.468573
0.453568
0.439002
0.424896
0.411261
0.3981
0.385412
0.373191
0.361429
0.350118
0.33925
0.328823
0.318833
0.309281
0.300168
0.291497
0.283272
0.275503
0.268203
0.261393
0.255111
0.249425
0.244456
0.240452
0.237987
0.238522
0.245585
0.266605
0.314884
0.408203
0.553146
0.718129
0.857164
0.982396
1.13806
1.32226
1.49774
1.63491
1.72254
1.76031
1.75201
1.70312
1.62017
1.51355
1.393
1.26739
1.14489
1.0323
0.934155
0.851839
0.783358
0.724589
0.671516
0.621847
0.575196
0.532287
0.494076
0.461249
0.43407
0.412403
0.395829
0.383762
0.375552
0.370534
0.368009
0.367216
0.367324
0.367708
0.368036
0.887397
0.72656
0.721694
0.642751
0.544571
0.460274
0.397343
0.351612
0.317604
0.291267
0.26974
0.250843
0.233159
0.216222
0.200196
0.185406
0.172263
0.161422
0.153665
0.149529
0.149154
0.151113
0.15494
0.161068
0.170188
0.183186
0.201382
0.227819
0.269923
0.341196
0.456943
0.62129
0.807787
0.943519
0.95872
0.870679
0.756688
0.675039
0.639173
0.638989
0.662091
0.699962
0.747346
0.800851
0.858168
0.917743
0.978571
1.03999
1.10153
1.16286
1.22382
1.28448
1.34513
1.40615
1.46786
1.53043
1.59368
1.65708
1.71976
1.78052
1.83792
1.89039
1.93628
1.97408
2.00093
2.01727
2.02264
2.01632
1.9976
1.96597
1.9213
1.86396
1.79485
1.71528
1.62664
1.5299
1.42483
1.31123
1.1913
1.07148
0.957733
0.856487
0.774144
0.710844
0.662442
0.627004
0.604533
0.595236
0.597595
0.608193
0.62277
0.637523
0.649874
0.658571
0.663356
0.664526
0.662585
0.658043
0.651332
0.642799
0.63272
0.621326
0.608824
0.595407
0.581258
0.566555
0.551466
0.536146
0.520736
0.505361
0.490127
0.475121
0.460414
0.446059
0.432094
0.418547
0.405432
0.392759
0.380528
0.368741
0.357395
0.346482
0.336
0.325949
0.31633
0.307146
0.298401
0.290103
0.282265
0.274905
0.268051
0.261746
0.256067
0.251145
0.247232
0.244898
0.245546
0.252502
0.27271
0.31849
0.4061
0.541503
0.696635
0.829719
0.947039
1.08487
1.24638
1.40361
1.53011
1.61313
1.65005
1.64325
1.59739
1.51819
1.41516
1.29778
1.17523
1.05633
0.948782
0.857818
0.784709
0.726464
0.67762
0.633083
0.590054
0.548146
0.508374
0.472102
0.440423
0.413961
0.392872
0.376943
0.365709
0.35856
0.354794
0.353629
0.354197
0.35556
0.356929
0.357681
0.830622
0.784084
0.777773
0.686239
0.579222
0.490347
0.424687
0.377001
0.341511
0.31399
0.291536
0.272124
0.254458
0.237953
0.222542
0.208365
0.195666
0.184899
0.17678
0.172115
0.171662
0.174575
0.180329
0.189353
0.202419
0.22082
0.246988
0.285458
0.343357
0.428844
0.545896
0.68363
0.803469
0.855137
0.825848
0.751106
0.679688
0.639526
0.632868
0.651033
0.685654
0.731197
0.78415
0.842119
0.903412
0.966828
1.03149
1.09669
1.16192
1.22688
1.29155
1.35622
1.42133
1.48729
1.55437
1.62247
1.6911
1.75933
1.82586
1.8891
1.9473
1.99867
2.04152
2.0744
2.09562
2.10609
2.10562
2.09371
2.06978
2.03333
1.98417
1.92247
1.84907
1.76537
1.67314
1.57463
1.46947
1.35636
1.23518
1.11498
0.999606
0.89585
0.808238
0.736745
0.678919
0.633412
0.600993
0.582689
0.577655
0.582816
0.593971
0.607164
0.619542
0.62952
0.636502
0.640475
0.641684
0.640428
0.636983
0.631577
0.624409
0.615662
0.605517
0.594157
0.581774
0.56856
0.554702
0.540384
0.525772
0.511019
0.496257
0.481599
0.467138
0.452947
0.439083
0.425586
0.412484
0.399796
0.387532
0.375698
0.364297
0.353321
0.342768
0.332641
0.322941
0.313671
0.304839
0.296455
0.288533
0.281097
0.274179
0.26783
0.262131
0.257218
0.253346
0.251062
0.251671
0.258217
0.277021
0.319266
0.399778
0.524729
0.670401
0.798093
0.907192
1.02679
1.16482
1.30227
1.41646
1.49381
1.52973
1.52502
1.48324
1.40926
1.31183
1.20018
1.08383
0.972231
0.873676
0.793391
0.731763
0.684402
0.644638
0.606827
0.568261
0.529014
0.490648
0.455014
0.423603
0.397351
0.376642
0.361403
0.351222
0.345469
0.343377
0.344077
0.346602
0.349917
0.353077
0.355225
0.776978
0.849437
0.844141
0.741701
0.626951
0.533693
0.465015
0.41491
0.377409
0.34818
0.324322
0.303998
0.286142
0.270228
0.256036
0.24345
0.232398
0.222986
0.215683
0.211322
0.210962
0.214697
0.222192
0.234004
0.251148
0.2753
0.309074
0.356135
0.420639
0.504891
0.603664
0.69746
0.757127
0.764826
0.729453
0.679328
0.642287
0.630802
0.643152
0.672965
0.714912
0.765489
0.822323
0.88367
0.948193
1.01482
1.08263
1.15086
1.21898
1.2868
1.3545
1.42251
1.49134
1.56136
1.63265
1.70482
1.77698
1.84777
1.91545
1.97809
2.03367
2.0803
2.11636
2.14055
2.15305
2.15495
2.14639
2.12712
2.0967
2.05477
2.00117
1.93587
1.85946
1.77311
1.67786
1.57852
1.47444
1.36477
1.24998
1.13325
1.02001
0.916676
0.827309
0.751775
0.687989
0.635477
0.596049
0.571446
0.561161
0.56226
0.570612
0.582277
0.594332
0.605039
0.613594
0.619752
0.623535
0.625051
0.624421
0.621759
0.61718
0.610813
0.602806
0.593328
0.582568
0.570727
0.558009
0.544615
0.530737
0.516551
0.502213
0.487861
0.473607
0.459547
0.445752
0.432278
0.419166
0.406444
0.39413
0.38224
0.370772
0.359722
0.349093
0.338886
0.329102
0.319748
0.310829
0.302358
0.294353
0.286839
0.279852
0.273448
0.267712
0.262782
0.258907
0.2566
0.257041
0.262936
0.279895
0.317867
0.390299
0.504056
0.640349
0.763267
0.865042
0.967604
1.08248
1.19896
1.29891
1.36892
1.40281
1.39977
1.36212
1.29411
1.20375
1.10013
0.993099
0.892517
0.806669
0.739917
0.691076
0.654219
0.621886
0.588554
0.552226
0.513806
0.47553
0.439709
0.408149
0.382006
0.361797
0.347498
0.338674
0.334631
0.334528
0.337427
0.342299
0.348046
0.353607
0.357978
0.726149
0.917903
0.916266
0.806578
0.687136
0.591494
0.521055
0.469303
0.430214
0.399398
0.373905
0.351957
0.332716
0.315991
0.301885
0.290463
0.281578
0.274924
0.270285
0.267799
0.268048
0.272467
0.280998
0.294404
0.313784
0.340678
0.377084
0.425099
0.485581
0.555406
0.624732
0.678377
0.703245
0.697088
0.671384
0.644986
0.633064
0.64058
0.665047
0.702291
0.749085
0.803206
0.862993
0.927087
0.9943
1.06354
1.13382
1.2043
1.27452
1.34438
1.41419
1.48446
1.55569
1.62814
1.70166
1.77558
1.84861
1.91898
1.98461
2.04332
2.09302
2.13185
2.15834
2.17164
2.17376
2.16578
2.14807
2.1206
2.08294
2.03491
1.97696
1.90874
1.83071
1.74422
1.65119
1.55357
1.45183
1.34573
1.2356
1.12393
1.01568
0.916452
0.829154
0.752987
0.686295
0.629868
0.586622
0.558717
0.545629
0.544379
0.550918
0.561454
0.573174
0.584348
0.594075
0.601958
0.607845
0.611681
0.613451
0.613162
0.610852
0.606594
0.600501
0.592724
0.583442
0.57286
0.56119
0.54865
0.535448
0.521782
0.50783
0.49375
0.479677
0.465722
0.451975
0.438507
0.425369
0.412599
0.400225
0.388271
0.37673
0.365604
0.354898
0.344614
0.334754
0.325322
0.316327
0.307781
0.299702
0.292119
0.285071
0.278614
0.272836
0.267875
0.263968
0.261586
0.261764
0.266843
0.281676
0.314931
0.378668
0.480572
0.607148
0.725797
0.822054
0.910193
1.00352
1.09857
1.18243
1.24298
1.27313
1.27062
1.23654
1.1748
1.09283
0.999595
0.90508
0.819067
0.748991
0.697492
0.661401
0.633486
0.606175
0.574826
0.538676
0.499665
0.460664
0.424314
0.392595
0.366759
0.347352
0.334308
0.327113
0.324995
0.327059
0.332328
0.339734
0.348125
0.356357
0.363341
0.678273
0.982451
0.987592
0.876514
0.758052
0.664486
0.595816
0.54532
0.507048
0.476571
0.450735
0.427503
0.405881
0.385812
0.367925
0.353141
0.342197
0.335297
0.332029
0.331635
0.333482
0.339
0.348095
0.361677
0.380912
0.407038
0.441064
0.483059
0.531053
0.580169
0.623014
0.651955
0.662722
0.657675
0.64603
0.639338
0.645327
0.665565
0.698085
0.74047
0.79086
0.847828
0.910155
0.976697
1.04619
1.11747
1.18949
1.2614
1.33275
1.40353
1.47409
1.54493
1.61647
1.68881
1.76161
1.83398
1.90454
1.97095
2.03084
2.08215
2.12281
2.15117
2.16612
2.16833
2.16002
2.14217
2.11536
2.07991
2.03592
1.98343
1.92236
1.85258
1.77444
1.68906
1.59807
1.50293
1.40426
1.3021
1.19703
1.0916
0.990379
0.89771
0.814851
0.740211
0.672989
0.615536
0.571633
0.543371
0.529857
0.527946
0.533719
0.543662
0.555211
0.566762
0.577413
0.586678
0.594279
0.600036
0.603822
0.605554
0.605202
0.602789
0.598393
0.592141
0.584202
0.574774
0.564074
0.552328
0.539759
0.526582
0.512993
0.499168
0.485261
0.471401
0.457695
0.444225
0.431056
0.418237
0.405801
0.393779
0.382164
0.370963
0.360182
0.349825
0.339895
0.330396
0.321336
0.312729
0.304593
0.296957
0.289861
0.283363
0.27755
0.272555
0.268602