/*--------------------------------*- C++ -*----------------------------------*\
  =========                 |
  \\      /  F ield         | OpenFOAM: The Open Source CFD Toolbox
   \\    /   O peration     | Website:  https://openfoam.org
    \\  /    A nd           | Version:  9
     \\/     M anipulation  |
\*---------------------------------------------------------------------------*/
FoamFile
{
    format      ascii;
    class       volScalarField;
    location    "0.2";
    object      kU;
}
// * * * * * * * * * * * * * * * * * * * * * * * * * * * * * * * * * * * * * //

dimensions      [0 2 -2 0 0 0 0];

internalField   nonuniform List<scalar> 
12225
(
0.15723
0.132053
0.113076
0.0993435
0.0901822
0.085062
0.0835192
0.0851044
0.0893723
0.095895
0.104286
0.114228
0.125504
0.138028
0.151893
0.167415
0.185355
0.213022
0.181013
0.175153
0.173893
0.179118
0.191143
0.209598
0.233693
0.262347
0.294372
0.328665
0.364358
0.400912
0.438179
0.476427
0.516379
0.559138
0.606611
0.660744
0.184243
0.181322
0.178595
0.176665
0.176144
0.177313
0.180247
0.184914
0.191215
0.199033
0.208296
0.219026
0.231403
0.245823
0.262977
0.283954
0.310435
0.344969
0.184873
0.182073
0.179372
0.1769
0.174837
0.173297
0.172306
0.171843
0.171862
0.172319
0.173188
0.174488
0.176302
0.178806
0.182321
0.187377
0.194833
0.205969
0.185144
0.182623
0.180128
0.177717
0.175454
0.173393
0.171559
0.169953
0.168561
0.167361
0.166334
0.165469
0.164769
0.164267
0.164034
0.164205
0.165029
0.166912
0.185259
0.182927
0.180631
0.17839
0.176228
0.17417
0.172233
0.170422
0.168738
0.167175
0.165725
0.164381
0.163139
0.162
0.160974
0.16008
0.159359
0.158882
0.185302
0.18307
0.180906
0.178808
0.17678
0.174829
0.172963
0.171187
0.169503
0.167913
0.166417
0.165016
0.16371
0.162501
0.161393
0.160387
0.159485
0.158682
0.185317
0.18313
0.181037
0.179031
0.177104
0.175255
0.173483
0.17179
0.170179
0.168651
0.16721
0.16586
0.164605
0.163452
0.162407
0.161474
0.160654
0.15994
0.185321
0.183152
0.181093
0.179135
0.17727
0.17549
0.173793
0.172176
0.170639
0.169184
0.167814
0.166534
0.16535
0.164272
0.163306
0.16246
0.16174
0.161142
0.185322
0.183159
0.181114
0.179179
0.177345
0.175605
0.173954
0.172388
0.170907
0.169509
0.168198
0.166978
0.165856
0.164839
0.163937
0.163157
0.162507
0.16199
0.185322
0.183161
0.181121
0.179195
0.177376
0.175656
0.17403
0.172493
0.171045
0.169684
0.168412
0.167233
0.166152
0.165176
0.164312
0.16357
0.162957
0.162477
0.185321
0.183161
0.181124
0.179202
0.177388
0.175676
0.17406
0.172538
0.171105
0.169762
0.16851
0.167351
0.166289
0.165331
0.164483
0.163751
0.163144
0.162664
0.185321
0.183161
0.181125
0.179205
0.177394
0.175686
0.174076
0.17256
0.171136
0.169802
0.168559
0.167409
0.166356
0.165403
0.164556
0.16382
0.163201
0.162702
0.185321
0.183161
0.181126
0.179207
0.177398
0.175692
0.174086
0.172573
0.171153
0.169823
0.168584
0.167437
0.166382
0.165425
0.164567
0.163813
0.163167
0.162632
0.185321
0.183161
0.181126
0.179209
0.177401
0.175698
0.174093
0.172583
0.171165
0.169837
0.168598
0.167448
0.166388
0.165419
0.164543
0.163762
0.163079
0.162496
0.18532
0.18316
0.181126
0.17921
0.177404
0.175702
0.1741
0.172592
0.171176
0.169849
0.168609
0.167455
0.166387
0.165404
0.164508
0.163698
0.162974
0.16234
0.18532
0.183159
0.181126
0.17921
0.177406
0.175707
0.174107
0.172601
0.171187
0.169861
0.16862
0.167462
0.166387
0.165391
0.164475
0.163637
0.162876
0.162196
0.185319
0.183158
0.181124
0.17921
0.177407
0.17571
0.174113
0.172611
0.171199
0.169874
0.168633
0.167473
0.166391
0.165385
0.164452
0.16359
0.162797
0.162078
0.185317
0.183155
0.181122
0.179208
0.177407
0.175713
0.174119
0.17262
0.171212
0.16989
0.168649
0.167488
0.166401
0.165386
0.16444
0.163559
0.162741
0.161991
0.185316
0.183153
0.181119
0.179207
0.177408
0.175717
0.174126
0.17263
0.171225
0.169905
0.168665
0.167503
0.166414
0.165393
0.164439
0.163546
0.162713
0.161944
0.185315
0.183152
0.181119
0.179208
0.177411
0.175722
0.174134
0.172641
0.171238
0.16992
0.168682
0.167519
0.166428
0.165404
0.164444
0.163543
0.1627
0.161918
0.185314
0.183151
0.181119
0.17921
0.177415
0.175728
0.174142
0.17265
0.171248
0.16993
0.168691
0.167527
0.166432
0.165404
0.164437
0.163528
0.162675
0.161883
0.185314
0.183151
0.18112
0.179212
0.177417
0.175728
0.174139
0.172642
0.171232
0.169904
0.168654
0.167475
0.166365
0.165319
0.164334
0.163405
0.16253
0.161716
0.185314
0.18315
0.181115
0.179198
0.17739
0.175683
0.174071
0.172548
0.171108
0.169747
0.16846
0.167244
0.166095
0.16501
0.163984
0.163015
0.162101
0.161246
0.18531
0.183134
0.181074
0.179116
0.17725
0.175471
0.173779
0.172171
0.170644
0.169198
0.167829
0.166536
0.165315
0.164164
0.163078
0.162054
0.16109
0.160191
0.185287
0.183049
0.180894
0.178815
0.176809
0.174882
0.173041
0.171295
0.169648
0.1681
0.166652
0.165299
0.164037
0.16286
0.161763
0.16074
0.159785
0.158902
0.185188
0.182765
0.180353
0.177967
0.175661
0.173491
0.171485
0.169656
0.168005
0.166527
0.165211
0.164044
0.163011
0.162097
0.161287
0.160566
0.159924
0.159356
0.184851
0.182118
0.179192
0.176287
0.173689
0.171531
0.169843
0.168613
0.167814
0.167408
0.167349
0.167584
0.168062
0.168735
0.169558
0.170491
0.171499
0.172551
0.182902
0.177334
0.172653
0.16987
0.169169
0.170426
0.173433
0.177934
0.183648
0.190296
0.197614
0.205368
0.213349
0.221383
0.229329
0.237077
0.244561
0.25168
0.168318
0.151178
0.136999
0.125285
0.115694
0.107946
0.101813
0.0970938
0.093605
0.0911787
0.0896592
0.0889039
0.0887825
0.0891778
0.0899855
0.0911147
0.0924878
0.0940337
0.107562
0.167811
0.241298
0.259099
0.262718
0.261295
0.257913
0.253858
0.249679
0.245331
0.239717
0.231384
0.218684
0.199574
0.171828
0.134789
0.0947904
0.0715875
0.0842189
0.114339
0.141415
0.157307
0.152473
0.136631
0.123481
0.116935
0.140781
0.227501
0.309449
0.38025
0.440417
0.490091
0.529975
0.561027
0.584288
0.60078
0.611468
0.617231
0.618862
0.617062
0.61245
0.605561
0.596855
0.58672
0.575489
0.56354
0.551608
0.539695
0.527815
0.515991
0.504245
0.492595
0.481053
0.469626
0.458311
0.447098
0.435964
0.424875
0.413778
0.402605
0.391268
0.379661
0.367671
0.355179
0.34208
0.328299
0.313807
0.298635
0.282878
0.266695
0.250291
0.233902
0.217792
0.202262
0.187729
0.175068
0.167002
0.163736
0.161624
0.160018
0.158814
0.157992
0.157547
0.157479
0.15779
0.15848
0.159544
0.160976
0.162758
0.164848
0.167141
0.16937
0.170973
0.171123
0.169276
0.165235
0.158656
0.149979
0.140374
0.131387
0.124311
0.119668
0.117178
0.116236
0.116625
0.118923
0.122746
0.12771
0.133324
0.138779
0.143335
0.147034
0.151138
0.15694
0.166252
0.189462
0.249884
0.32844
0.391214
0.439688
0.475351
0.500297
0.516553
0.525919
0.529967
0.530116
0.527705
0.52308
0.516361
0.507802
0.497518
0.485507
0.471656
0.455769
0.437612
0.417018
0.394125
0.370098
0.350493
0.349908
0.35574
0.36214
0.369261
0.377512
0.387199
0.398491
0.411411
0.425833
0.441508
0.45827
0.475775
0.489788
0.490737
0.47063
0.423541
0.351479
0.271004
0.209285
0.179769
0.166544
0.150601
0.131544
0.118454
0.1107
0.103546
0.099018
0.0971474
0.0975837
0.0938258
0.0926807
0.0819732
0.0745946
0.0705212
0.0690646
0.0691003
0.0696317
0.0700974
0.0712578
0.0762714
0.0850487
0.179576
0.368725
0.381831
0.366689
0.348663
0.32773
0.305211
0.283523
0.264249
0.247351
0.232514
0.220209
0.210127
0.200853
0.189913
0.175435
0.16008
0.153646
0.169266
0.219258
0.26978
0.353111
0.445228
0.472338
0.45818
0.441623
0.431751
0.428925
0.425141
0.419476
0.412457
0.404779
0.397075
0.389834
0.383395
0.377972
0.373685
0.370585
0.368674
0.367929
0.368311
0.369778
0.372297
0.375839
0.38037
0.38563
0.391013
0.396509
0.402148
0.407973
0.414036
0.420396
0.42711
0.434225
0.441775
0.449769
0.458186
0.466957
0.475959
0.485
0.493808
0.502025
0.509215
0.51488
0.518505
0.519609
0.517812
0.51289
0.504819
0.493783
0.480139
0.464371
0.447025
0.428661
0.409761
0.390605
0.372259
0.35648
0.341862
0.328254
0.315627
0.303951
0.293192
0.28331
0.274267
0.266025
0.258548
0.2518
0.245746
0.240349
0.235585
0.231474
0.228076
0.225285
0.222233
0.218408
0.214789
0.213246
0.21522
0.221751
0.233056
0.247907
0.263213
0.274338
0.276594
0.267563
0.250135
0.230994
0.216774
0.209997
0.209749
0.219215
0.253629
0.313393
0.367333
0.392605
0.410381
0.433106
0.457601
0.483564
0.510193
0.536491
0.561755
0.585705
0.608413
0.630195
0.651515
0.672558
0.693637
0.714695
0.735426
0.755243
0.77321
0.788008
0.797972
0.801251
0.796108
0.781132
0.755882
0.726764
0.694368
0.659841
0.624925
0.590894
0.558526
0.528192
0.500003
0.4739
0.449593
0.42686
0.406101
0.387709
0.373888
0.367992
0.375542
0.406791
0.474192
0.581427
0.702745
0.775988
0.757142
0.676627
0.58804
0.5081
0.432818
0.361544
0.303384
0.261554
0.22683
0.195012
0.168062
0.146121
0.129288
0.117357
0.109969
0.106418
0.105068
0.10505
0.112437
0.134114
0.292723
0.375294
0.360783
0.349025
0.333453
0.311307
0.286384
0.262793
0.242638
0.226233
0.212874
0.202067
0.194074
0.189501
0.188826
0.195053
0.227754
0.325218
0.460629
0.585204
0.619792
0.562487
0.509119
0.465311
0.429111
0.402199
0.383562
0.370937
0.361921
0.355751
0.352094
0.350682
0.351194
0.353232
0.356349
0.360115
0.364178
0.368304
0.37238
0.376374
0.380297
0.384157
0.38794
0.391606
0.395032
0.398157
0.400975
0.403535
0.405929
0.408294
0.410797
0.41363
0.416994
0.421086
0.426091
0.43216
0.439404
0.44787
0.457532
0.468264
0.479823
0.491835
0.503782
0.515022
0.524826
0.532443
0.537193
0.538559
0.536265
0.530312
0.520959
0.508664
0.494002
0.47759
0.459939
0.441347
0.423739
0.407602
0.392347
0.377955
0.364437
0.351787
0.339987
0.329014
0.31884
0.309441
0.300799
0.292903
0.285751
0.279357
0.273749
0.268982
0.265138
0.262269
0.260287
0.259023
0.258114
0.256771
0.254762
0.25218
0.249486
0.247548
0.247031
0.247875
0.248776
0.247665
0.243488
0.238144
0.237184
0.247296
0.274153
0.32857
0.400432
0.449698
0.454124
0.456457
0.47801
0.514472
0.556671
0.596688
0.630038
0.656186
0.676921
0.694489
0.710593
0.726145
0.741373
0.757036
0.773485
0.790727
0.80857
0.826517
0.843651
0.858537
0.869222
0.873389
0.868712
0.853083
0.8263
0.794232
0.757314
0.717872
0.678056
0.63942
0.602912
0.568989
0.537768
0.509168
0.483006
0.459173
0.437709
0.41799
0.399085
0.380474
0.365275
0.360505
0.377436
0.428605
0.523146
0.655704
0.791065
0.878808
0.8967
0.856466
0.778981
0.681606
0.577308
0.47837
0.397102
0.329108
0.27292
0.227259
0.190952
0.163143
0.143372
0.131425
0.126427
0.12719
0.141135
0.177568
0.352244
0.347192
0.37517
0.384491
0.36377
0.327361
0.288269
0.253587
0.225826
0.20524
0.191947
0.184194
0.180847
0.184908
0.208969
0.28085
0.418077
0.592031
0.687961
0.646292
0.557899
0.480729
0.426143
0.38887
0.364314
0.349589
0.342169
0.339885
0.341114
0.344844
0.350299
0.3568
0.363728
0.370556
0.376921
0.382657
0.387778
0.392395
0.396627
0.400537
0.404104
0.407234
0.409791
0.411633
0.412391
0.41198
0.410375
0.407618
0.40383
0.399218
0.394073
0.388756
0.383682
0.379297
0.376049
0.374359
0.37459
0.377025
0.38184
0.389082
0.398646
0.410252
0.423422
0.437482
0.451577
0.464735
0.475967
0.484393
0.489367
0.490565
0.48801
0.482014
0.473078
0.461794
0.448686
0.434349
0.420721
0.407512
0.394745
0.382502
0.370828
0.359743
0.349249
0.339342
0.330013
0.321258
0.313079
0.30549
0.298519
0.292213
0.286642
0.281892
0.278045
0.275156
0.273223
0.272131
0.271607
0.271232
0.270548
0.269101
0.266442
0.262237
0.25678
0.251008
0.246163
0.243309
0.243406
0.248835
0.265077
0.30096
0.364201
0.441182
0.492523
0.490708
0.480844
0.499364
0.542452
0.594964
0.643346
0.680553
0.706058
0.722821
0.734209
0.742589
0.749254
0.754836
0.7597
0.765016
0.771275
0.778727
0.78748
0.797384
0.807869
0.817777
0.82528
0.827956
0.823031
0.807839
0.783817
0.753414
0.718179
0.680594
0.642873
0.60662
0.572793
0.54183
0.51381
0.488613
0.466082
0.446107
0.428624
0.413564
0.400475
0.387811
0.374154
0.361438
0.354234
0.360934
0.393945
0.464462
0.571103
0.691792
0.793597
0.851707
0.858003
0.818056
0.744286
0.650189
0.54852
0.454683
0.37467
0.308477
0.254574
0.211863
0.180223
0.160181
0.151774
0.153975
0.172123
0.214124
0.428228
0.3956
0.451973
0.445925
0.400749
0.343147
0.289261
0.246641
0.217399
0.201266
0.192529
0.191189
0.202948
0.240337
0.318259
0.439923
0.573679
0.643029
0.605201
0.520479
0.445146
0.393101
0.361044
0.343281
0.335586
0.334926
0.338981
0.346032
0.354871
0.364639
0.374635
0.384285
0.393193
0.401194
0.408331
0.414776
0.420728
0.426338
0.431666
0.436686
0.441291
0.445317
0.448557
0.450615
0.450762
0.448838
0.444677
0.438199
0.429435
0.418546
0.405836
0.391758
0.376902
0.361977
0.34777
0.335085
0.324682
0.317211
0.31316
0.312824
0.316289
0.323425
0.333875
0.347038
0.362068
0.377896
0.393308
0.407075
0.418127
0.425714
0.429506
0.429597
0.426367
0.420372
0.41214
0.402995
0.393625
0.384163
0.374786
0.365609
0.356693
0.348073
0.339763
0.331769
0.324098
0.316758
0.309764
0.303144
0.29694
0.291212
0.28604
0.28152
0.277751
0.274822
0.272777
0.27156
0.270969
0.270674
0.270271
0.269366
0.267623
0.264786
0.260691
0.255563
0.250742
0.248736
0.252839
0.267763
0.301249
0.361719
0.444213
0.512136
0.521795
0.496956
0.501688
0.542313
0.600851
0.658133
0.70246
0.731214
0.747416
0.75525
0.75782
0.756965
0.753745
0.748877
0.743009
0.737395
0.732667
0.729309
0.727732
0.728174
0.7305
0.733958
0.737032
0.737417
0.732061
0.718723
0.698254
0.671368
0.639972
0.606482
0.573073
0.541318
0.512134
0.485909
0.462673
0.442273
0.424511
0.409229
0.396363
0.385956
0.377903
0.371534
0.365058
0.356709
0.347677
0.341764
0.345375
0.367275
0.414062
0.483024
0.560672
0.628887
0.672554
0.683881
0.663024
0.616426
0.553592
0.483458
0.413358
0.348656
0.292019
0.244863
0.208734
0.185928
0.177961
0.183653
0.204415
0.246674
0.456696
0.457843
0.520138
0.497038
0.43132
0.357547
0.297057
0.256226
0.235314
0.225384
0.225918
0.241027
0.278032
0.343062
0.432415
0.520294
0.561882
0.537067
0.474669
0.41352
0.37064
0.346169
0.335509
0.334331
0.339472
0.348705
0.360467
0.373647
0.38739
0.401012
0.414002
0.426077
0.437179
0.44742
0.456996
0.466103
0.474893
0.483435
0.491716
0.499636
0.507014
0.513606
0.519123
0.522428
0.523346
0.521529
0.516649
0.508447
0.496764
0.481573
0.463009
0.441415
0.417372
0.391725
0.365571
0.34019
0.316919
0.296984
0.281357
0.270656
0.265139
0.264751
0.269186
0.277921
0.290217
0.305093
0.321315
0.337459
0.352096
0.364011
0.372412
0.37709
0.378221
0.376284
0.372197
0.366969
0.361063
0.354804
0.348397
0.341966
0.33558
0.329276
0.323074
0.316984
0.311015
0.305178
0.299492
0.293986
0.288701
0.283695
0.279043
0.274833
0.271163
0.268128
0.2658
0.264192
0.263234
0.262752
0.262473
0.26206
0.261195
0.259654
0.25737
0.254574
0.252288
0.253146
0.261659
0.284705
0.331768
0.408596
0.495883
0.541385
0.52289
0.500406
0.525096
0.582442
0.647647
0.702231
0.738824
0.758876
0.766953
0.76702
0.761634
0.752397
0.740432
0.726653
0.711941
0.697402
0.683691
0.6714
0.661133
0.653436
0.648575
0.646203
0.645186
0.643408
0.637895
0.62691
0.609603
0.586426
0.55909
0.529857
0.500824
0.473517
0.44881
0.427043
0.408204
0.3921
0.378489
0.36717
0.358027
0.351039
0.346184
0.343235
0.341634
0.339084
0.33457
0.328887
0.325034
0.327599
0.341168
0.367551
0.403487
0.44149
0.472957
0.491103
0.492619
0.477817
0.449559
0.411918
0.36909
0.324907
0.282735
0.245358
0.215963
0.198602
0.196958
0.210085
0.234662
0.275943
0.459268
0.516857
0.571597
0.536015
0.460559
0.384415
0.327319
0.294286
0.278923
0.276906
0.289646
0.319084
0.36518
0.420777
0.468463
0.487551
0.470736
0.430693
0.388072
0.356804
0.340177
0.335659
0.339692
0.349455
0.363004
0.378964
0.396259
0.41398
0.431403
0.448032
0.463618
0.478126
0.491674
0.504464
0.516725
0.528659
0.540411
0.552031
0.563455
0.5745
0.584864
0.594147
0.601873
0.607131
0.609881
0.60971
0.606213
0.599031
0.587858
0.572432
0.55254
0.528062
0.49906
0.465933
0.429592
0.391568
0.353951
0.319087
0.289096
0.265444
0.248752
0.238924
0.235421
0.237525
0.244489
0.255501
0.269527
0.285192
0.300888
0.31503
0.326256
0.334021
0.338165
0.339205
0.338125
0.335665
0.332329
0.328456
0.324264
0.319889
0.31541
0.310872
0.306297
0.301699
0.297087
0.292476
0.287881
0.283328
0.278851
0.274497
0.270328
0.266418
0.262855
0.259734
0.257147
0.255161
0.253797
0.253007
0.252655
0.25253
0.252398
0.252087
0.251595
0.251216
0.251872
0.256007
0.268769
0.298599
0.355583
0.440591
0.522123
0.546676
0.51745
0.50625
0.547853
0.615176
0.680993
0.729806
0.758754
0.771609
0.773106
0.766738
0.754789
0.738875
0.720272
0.700062
0.679241
0.658632
0.638788
0.620275
0.603752
0.589962
0.579517
0.572401
0.567924
0.564156
0.558775
0.54942
0.534774
0.514915
0.491227
0.465763
0.440518
0.416971
0.395965
0.377812
0.362472
0.349725
0.339287
0.330894
0.32435
0.319546
0.316425
0.314893
0.314754
0.315298
0.314801
0.312623
0.30926
0.306712
0.307864
0.314549
0.326277
0.340508
0.353744
0.362728
0.365261
0.360432
0.348369
0.329879
0.306262
0.279311
0.251317
0.225125
0.204612
0.195352
0.202559
0.225307
0.256736
0.29917
0.450671
0.56364
0.616843
0.57435
0.496538
0.424248
0.375063
0.349193
0.338122
0.341607
0.357384
0.38178
0.40816
0.427385
0.431628
0.419056
0.395025
0.368904
0.349109
0.339555
0.339787
0.347544
0.360669
0.377545
0.396874
0.417488
0.438335
0.458579
0.477673
0.495357
0.511617
0.526628
0.540689
0.554155
0.567374
0.580617
0.594038
0.607643
0.621282
0.634666
0.647383
0.658941
0.668328
0.675468
0.679929
0.681258
0.679103
0.673246
0.663575
0.650024
0.632462
0.610591
0.583899
0.551771
0.513805
0.47033
0.422918
0.37454
0.329062
0.290108
0.259919
0.238977
0.226451
0.220956
0.221316
0.226739
0.236508
0.249522
0.264186
0.278776
0.291298
0.300977
0.307069
0.310377
0.311588
0.311286
0.309935
0.307875
0.305338
0.302472
0.299372
0.296091
0.292666
0.289117
0.285462
0.281718
0.277904
0.274045
0.270169
0.266315
0.262531
0.258877
0.255429
0.252275
0.249514
0.247247
0.245555
0.244481
0.244009
0.244058
0.244513
0.245296
0.246466
0.248332
0.251737
0.258961
0.275458
0.31041
0.373181
0.459399
0.531047
0.5421
0.513359
0.514052
0.564803
0.636302
0.701136
0.744529
0.767592
0.775131
0.771683
0.760476
0.743725
0.723129
0.700099
0.675824
0.651308
0.62706
0.603481
0.581034
0.560324
0.542164
0.527549
0.516596
0.509113
0.503614
0.497827
0.489462
0.476907
0.45983
0.439238
0.416939
0.394817
0.374307
0.356238
0.340918
0.328304
0.318158
0.310163
0.303991
0.299354
0.296034
0.293877
0.292761
0.292597
0.293448
0.294284
0.294307
0.293056
0.290691
0.288389
0.287814
0.289582
0.292813
0.295955
0.297593
0.296751
0.292856
0.285566
0.274671
0.26021
0.242718
0.223473
0.204709
0.190026
0.185118
0.196799
0.226421
0.266346
0.312922
0.436162
0.606557
0.659574
0.613238
0.535193
0.467483
0.424422
0.398257
0.386862
0.38562
0.389897
0.39508
0.397052
0.393254
0.383468
0.369749
0.355731
0.34546
0.341812
0.345505
0.355645
0.370881
0.38991
0.411444
0.434164
0.456846
0.478523
0.49858
0.51676
0.53312
0.547965
0.561756
0.575022
0.588264
0.601879
0.616111
0.631025
0.64651
0.662287
0.67793
0.692887
0.70652
0.717904
0.726804
0.732588
0.734659
0.732596
0.726229
0.715688
0.70137
0.68379
0.663319
0.639864
0.612624
0.580147
0.540861
0.494065
0.441061
0.385676
0.333464
0.289481
0.256451
0.234316
0.221038
0.214543
0.213744
0.218192
0.22723
0.239348
0.252947
0.265512
0.275671
0.283238
0.288353
0.291415
0.292885
0.293176
0.292609
0.291414
0.289745
0.287705
0.285364
0.282769
0.279957
0.276958
0.273801
0.270512
0.26712
0.263657
0.260157
0.256662
0.253222
0.249901
0.246782
0.243963
0.24156
0.239692
0.238462
0.237943
0.238165
0.239143
0.240914
0.243603
0.247486
0.253296
0.26319
0.282649
0.320799
0.385462
0.468244
0.530009
0.534629
0.511399
0.521129
0.575706
0.646684
0.708067
0.748303
0.768423
0.772934
0.766344
0.752047
0.732278
0.708827
0.683195
0.656613
0.630045
0.603762
0.578013
0.553144
0.529669
0.508231
0.490398
0.476542
0.466391
0.458943
0.452396
0.444565
0.433618
0.418823
0.400794
0.381087
0.361474
0.343365
0.327601
0.314506
0.304053
0.296003
0.290008
0.285677
0.282631
0.280539
0.279138
0.278224
0.277675
0.27764
0.277947
0.278105
0.277667
0.276271
0.273937
0.271387
0.269562
0.268675
0.268075
0.266864
0.264377
0.260228
0.254131
0.245776
0.2349
0.221553
0.206426
0.191181
0.178928
0.175006
0.186743
0.218156
0.263667
0.315429
0.4166
0.644149
0.700782
0.652836
0.573565
0.505085
0.45599
0.424942
0.405965
0.39381
0.384879
0.377017
0.36925
0.361459
0.354071
0.347999
0.344665
0.345632
0.351884
0.36349
0.379851
0.399983
0.422618
0.44633
0.469752
0.491802
0.511801
0.529494
0.545011
0.558776
0.571395
0.583536
0.59582
0.608741
0.622625
0.637613
0.653668
0.670586
0.688007
0.705418
0.722168
0.737478
0.750758
0.761509
0.768937
0.772226
0.770674
0.763838
0.751703
0.734798
0.714184
0.691203
0.666957
0.641644
0.614079
0.581783
0.541931
0.493075
0.436874
0.378746
0.325384
0.282156
0.251234
0.230855
0.218073
0.211346
0.210362
0.215002
0.22382
0.23496
0.246454
0.256816
0.265274
0.271647
0.276122
0.279027
0.280696
0.281405
0.281358
0.280703
0.279543
0.277957
0.276006
0.273742
0.271211
0.268456
0.265519
0.262437
0.259251
0.255997
0.252719
0.249463
0.246287
0.243265
0.240496
0.238101
0.236217
0.234991
0.234556
0.235035
0.236556
0.239276
0.243384
0.249112
0.257042
0.269158
0.29069
0.330142
0.3936
0.470429
0.52393
0.526894
0.51029
0.525326
0.579561
0.647463
0.705524
0.743728
0.762588
0.766168
0.758652
0.743244
0.722243
0.697519
0.670666
0.642871
0.615016
0.587417
0.560222
0.533687
0.508331
0.484964
0.464629
0.448044
0.435404
0.426136
0.418791
0.411301
0.401658
0.38875
0.372813
0.355168
0.337503
0.321233
0.307235
0.295875
0.287155
0.28084
0.276548
0.27382
0.272183
0.271208
0.270539
0.269905
0.269125
0.268205
0.267379
0.266515
0.265486
0.264071
0.262059
0.259525
0.256939
0.254786
0.253076
0.251331
0.248925
0.245339
0.240187
0.233128
0.223864
0.212304
0.19885
0.184751
0.172633
0.167311
0.176011
0.204727
0.251385
0.307065
0.391705
0.671519
0.734699
0.686736
0.603272
0.525906
0.468839
0.42967
0.402255
0.382308
0.367576
0.357012
0.350028
0.346096
0.344787
0.346082
0.350515
0.358845
0.371555
0.388565
0.409193
0.432263
0.456315
0.479903
0.501849
0.521401
0.538275
0.552621
0.564928
0.575898
0.586298
0.596846
0.608125
0.620544
0.634316
0.649466
0.665839
0.683125
0.700886
0.718572
0.73554
0.751057
0.764966
0.776703
0.785482
0.790378
0.790409
0.784687
0.772658
0.754391
0.73085
0.703907
0.675868
0.6485
0.62195
0.594146
0.561252
0.519591
0.468064
0.411032
0.35504
0.306544
0.269695
0.244094
0.226315
0.214706
0.208992
0.209163
0.214428
0.223128
0.233292
0.243262
0.252013
0.259128
0.2646
0.268616
0.27141
0.273192
0.274127
0.274339
0.273925
0.272966
0.271533
0.269693
0.267508
0.265037
0.262338
0.259462
0.25646
0.253379
0.250266
0.24717
0.244148
0.241271
0.238632
0.236354
0.234586
0.2335
0.233277
0.23411
0.23622
0.239875
0.245343
0.252828
0.262733
0.276747
0.299573
0.338763
0.398886
0.468703
0.51576
0.519604
0.50883
0.525873
0.576872
0.6403
0.695308
0.732451
0.75139
0.755449
0.748397
0.733298
0.712481
0.687838
0.660962
0.632993
0.604669
0.576339
0.548162
0.520376
0.493493
0.46833
0.445902
0.427134
0.412527
0.401852
0.393957
0.386873
0.378415
0.367107
0.352847
0.33677
0.320529
0.305587
0.292884
0.282848
0.275514
0.270644
0.267806
0.266454
0.266017
0.265982
0.265938
0.265589
0.264743
0.263335
0.261541
0.259483
0.257298
0.25505
0.252721
0.250308
0.24795
0.245884
0.244215
0.242742
0.240994
0.238398
0.234412
0.228566
0.22048
0.20997
0.197255
0.183286
0.170264
0.162441
0.166589
0.189758
0.233338
0.289989
0.360248
0.679042
0.750533
0.704868
0.617085
0.533242
0.469148
0.423472
0.391265
0.368943
0.35445
0.346403
0.343529
0.34461
0.348786
0.355836
0.366099
0.380052
0.397833
0.418989
0.442473
0.46687
0.490699
0.512705
0.532038
0.548329
0.56168
0.572583
0.581787
0.590145
0.598484
0.607508
0.617742
0.629501
0.642864
0.657661
0.67351
0.689885
0.706216
0.721958
0.736637
0.750086
0.762385
0.773166
0.781816
0.787481
0.789082
0.785421
0.775388
0.75829
0.734358
0.705172
0.673555
0.642585
0.614066
0.587321
0.558531
0.522957
0.47694
0.424386
0.371115
0.323347
0.284993
0.2561
0.234684
0.219321
0.209929
0.206731
0.209167
0.215732
0.224514
0.233809
0.242476
0.249948
0.256071
0.260905
0.26458
0.267232
0.268975
0.269904
0.270104
0.269653
0.26863
0.267113
0.26518
0.262906
0.260363
0.257618
0.254735
0.251771
0.248782
0.245823
0.242954
0.240244
0.237783
0.235692
0.234123
0.233266
0.233334
0.234576
0.23729
0.241841
0.248596
0.257785
0.269635
0.285417
0.309057
0.346959
0.402541
0.465169
0.507217
0.51287
0.506433
0.522965
0.568818
0.626886
0.678918
0.715605
0.735555
0.741148
0.735635
0.721899
0.702257
0.678588
0.652424
0.624853
0.596517
0.567781
0.538865
0.510077
0.481969
0.455388
0.43141
0.4111
0.395182
0.383699
0.375716
0.369296
0.362037
0.352117
0.339148
0.324159
0.308846
0.294764
0.282947
0.273891
0.267659
0.263985
0.262355
0.262109
0.262572
0.26316
0.263455
0.263197
0.26225
0.260573
0.258232
0.255342
0.252163
0.248958
0.245941
0.243281
0.241113
0.239515
0.238443
0.237665
0.236761
0.235181
0.23233
0.227635
0.220606
0.210942
0.198702
0.184591
0.170444
0.159969
0.159301
0.175736
0.213223
0.267347
0.324377
0.65757
0.738048
0.701612
0.61781
0.532104
0.463873
0.414882
0.381442
0.360084
0.348297
0.344021
0.345415
0.351004
0.359955
0.372115
0.387704
0.406834
0.42915
0.453722
0.479194
0.504074
0.527018
0.547038
0.563612
0.576712
0.586749
0.59446
0.600759
0.606587
0.612798
0.620092
0.628958
0.63962
0.651983
0.665619
0.679847
0.693899
0.70706
0.718816
0.729089
0.738483
0.747289
0.755326
0.762175
0.767145
0.769212
0.767096
0.759414
0.744892
0.72293
0.694336
0.661671
0.628475
0.597486
0.569935
0.542348
0.510281
0.470587
0.423968
0.374972
0.32964
0.29197
0.262378
0.239345
0.22194
0.210457
0.205302
0.205995
0.211104
0.218798
0.227429
0.235854
0.243453
0.249977
0.255385
0.259716
0.263032
0.265399
0.266882
0.267551
0.267481
0.266756
0.265465
0.263698
0.261545
0.25909
0.256417
0.2536
0.250708
0.247808
0.244962
0.242234
0.239694
0.23743
0.235557
0.234227
0.233635
0.234019
0.235667
0.23894
0.244288
0.252197
0.262992
0.276779
0.29436
0.318693
0.354903
0.405552
0.461331
0.499337
0.506773
0.503106
0.517366
0.55684
0.608828
0.657639
0.694016
0.715465
0.723302
0.720135
0.708579
0.690864
0.668817
0.643882
0.617072
0.588953
0.559988
0.530512
0.500941
0.47191
0.444331
0.419356
0.398166
0.381663
0.370084
0.362608
0.357222
0.351245
0.342515
0.330444
0.316065
0.301204
0.287561
0.276283
0.267931
0.262575
0.259879
0.2592
0.259733
0.260689
0.261449
0.261634
0.261088
0.259799
0.257819
0.255212
0.251951
0.24828
0.244513
0.240976
0.23799
0.235822
0.234586
0.234179
0.234266
0.234337
0.233788
0.231983
0.228301
0.222185
0.213238
0.201388
0.187141
0.172023
0.159243
0.154236
0.163977
0.193846
0.242436
0.313983
0.601155
0.701448
0.683833
0.610703
0.527318
0.457713
0.407515
0.374447
0.35499
0.346116
0.345285
0.350441
0.360174
0.373802
0.391168
0.412213
0.436568
0.463351
0.491237
0.518689
0.544233
0.566683
0.585277
0.599741
0.610286
0.617539
0.622402
0.625894
0.629018
0.632661
0.637539
0.644139
0.652643
0.662861
0.674214
0.685797
0.696513
0.705348
0.711935
0.716892
0.721473
0.725953
0.730204
0.733973
0.736782
0.737766
0.735724
0.729255
0.716851
0.697433
0.67118
0.640117
0.607618
0.576754
0.548499
0.520962
0.490463
0.453934
0.411469
0.3669
0.32548
0.290499
0.26209
0.239094
0.221248
0.209263
0.203599
0.203702
0.208145
0.215198
0.223347
0.231534
0.239153
0.245915
0.251703
0.256486
0.260264
0.263061
0.264917
0.265893
0.266062
0.265514
0.264346
0.262659
0.260553
0.258126
0.255472
0.252677
0.249821
0.246979
0.24422
0.241614
0.239234
0.237164
0.235513
0.234427
0.2341
0.23478
0.236783
0.240512
0.246496
0.255339
0.267519
0.283159
0.302626
0.327838
0.362536
0.408559
0.45819
0.492802
0.501565
0.49932
0.510165
0.542474
0.587685
0.632694
0.668434
0.691395
0.701785
0.701451
0.692618
0.677342
0.657349
0.633997
0.60823
0.580575
0.551618
0.521836
0.49177
0.462164
0.434031
0.408618
0.387231
0.370915
0.36002
0.353713
0.349766
0.345141
0.337363
0.325753
0.311491
0.296629
0.28306
0.272049
0.264204
0.259556
0.257644
0.257639
0.258562
0.259524
0.259912
0.25945
0.258137
0.25614
0.253656
0.250804
0.24751
0.243867
0.240124
0.236582
0.233592
0.231505
0.230543
0.230674
0.231557
0.232605
0.233104
0.232322
0.229571
0.224247
0.215903
0.204387
0.190071
0.174239
0.159668
0.151111
0.154913
0.176916
0.218046
0.333001
0.551555
0.655628
0.65827
0.600785
0.523484
0.454079
0.402878
0.369736
0.351364
0.344401
0.346062
0.354292
0.36783
0.386092
0.408778
0.43546
0.465288
0.49693
0.528752
0.559081
0.586445
0.609742
0.628327
0.642052
0.651194
0.656514
0.659066
0.659939
0.660172
0.660677
0.662191
0.665223
0.669983
0.676322
0.683725
0.691335
0.697997
0.702525
0.70452
0.704873
0.70486
0.704867
0.704878
0.704799
0.70435
0.702933
0.699579
0.692952
0.681537
0.664062
0.640288
0.61167
0.581049
0.551194
0.52316
0.495589
0.465495
0.430455
0.390932
0.350553
0.313631
0.282237
0.255972
0.234154
0.21724
0.206189
0.201301
0.201825
0.206312
0.213171
0.221073
0.229103
0.236713
0.243602
0.249609
0.254649
0.258681
0.261701
0.263736
0.264842
0.265097
0.264596
0.263442
0.261746
0.259618
0.257163
0.254483
0.251673
0.248821
0.246009
0.243313
0.240808
0.238569
0.236677
0.235236
0.23438
0.234294
0.235226
0.237501
0.241554
0.247965
0.257451
0.270675
0.287918
0.309273
0.335691
0.369483
0.411734
0.456223
0.488002
0.497598
0.495779
0.502557
0.527232
0.564976
0.605319
0.63967
0.663701
0.676537
0.679185
0.673359
0.66084
0.643206
0.621718
0.597268
0.57037
0.541734
0.511976
0.48177
0.451992
0.423786
0.398536
0.37768
0.362374
0.352987
0.348516
0.346369
0.343078
0.335911
0.324257
0.309602
0.294324
0.280535
0.269608
0.262154
0.258106
0.256799
0.257169
0.258048
0.258485
0.257936
0.256286
0.253736
0.25065
0.247395
0.244202
0.240992
0.23772
0.234514
0.231552
0.22909
0.227446
0.226897
0.227518
0.229065
0.230972
0.232458
0.232675
0.23083
0.22625
0.218449
0.207243
0.192936
0.176644
0.160787
0.149508
0.148414
0.163168
0.196106
0.290786
0.488644
0.602533
0.628987
0.592596
0.525542
0.457221
0.403483
0.367889
0.348242
0.341137
0.343649
0.35376
0.370396
0.393238
0.421384
0.453823
0.489429
0.526518
0.563208
0.597696
0.628464
0.6544
0.674867
0.689717
0.699264
0.704253
0.705687
0.704648
0.702185
0.69923
0.696556
0.694735
0.694089
0.694648
0.696133
0.697969
0.69936
0.699511
0.697959
0.695035
0.691306
0.687241
0.683173
0.679258
0.675368
0.671021
0.665363
0.657193
0.645104
0.62789
0.605284
0.578513
0.549926
0.521692
0.494468
0.466935