/*--------------------------------*- C++ -*----------------------------------*\
  =========                 |
  \\      /  F ield         | OpenFOAM: The Open Source CFD Toolbox
   \\    /   O peration     | Website:  https://openfoam.org
    \\  /    A nd           | Version:  9
     \\/     M anipulation  |
\*---------------------------------------------------------------------------*/
FoamFile
{
    format      ascii;
    class       volScalarField;
    location    "0.2";
    object      p;
}
// * * * * * * * * * * * * * * * * * * * * * * * * * * * * * * * * * * * * * //

dimensions      [0 2 -2 0 0 0 0];

internalField   nonuniform List<scalar> 
12225
(
-0.0234096
-1.16525
-1.66385
-1.69017
-1.64551
-1.58751
-1.47329
-1.28559
-1.0264
-0.695811
-0.287968
0.205368
0.792074
1.47824
2.26605
3.14995
4.10695
5.0913
-1.12731
-1.73716
-1.90828
-1.83066
-1.73477
-1.64277
-1.5084
-1.30946
-1.04438
-0.711949
-0.305893
0.182234
0.760381
1.43477
2.20819
3.07599
4.01829
4.98454
-1.26367
-1.48859
-1.68088
-1.70782
-1.66362
-1.59506
-1.47961
-1.29867
-1.05098
-0.737057
-0.352801
0.107999
0.650812
1.27894
1.99179
2.78078
3.62228
4.44654
-1.35244
-1.51531
-1.74255
-1.79529
-1.74129
-1.65655
-1.5334
-1.35187
-1.10825
-0.803376
-0.434663
0.00216426
0.509958
1.08839
1.73201
2.42635
3.14072
3.81491
-1.45866
-1.5952
-1.78367
-1.82411
-1.76418
-1.67589
-1.55526
-1.38142
-1.14905
-0.859467
-0.511735
-0.103608
0.365298
0.891544
1.46589
2.07035
2.67275
3.2285
-1.56714
-1.67003
-1.81153
-1.8483
-1.79768
-1.714
-1.59813
-1.43298
-1.21329
-0.940833
-0.616271
-0.239354
0.18808
0.660093
1.16494
1.68324
2.18475
2.63212
-1.67198
-1.74526
-1.85167
-1.8874
-1.84577
-1.76539
-1.65302
-1.49673
-1.29137
-1.03859
-0.740319
-0.398128
-0.0157851
0.398855
0.832533
1.26559
1.67038
2.0145
-1.7745
-1.82606
-1.90565
-1.93687
-1.90124
-1.82506
-1.71832
-1.57335
-1.3852
-1.15534
-0.886769
-0.582745
-0.248654
0.106297
0.468132
0.817755
1.13046
1.37917
-1.8767
-1.91276
-1.97088
-1.99564
-1.9652
-1.8957
-1.79732
-1.66583
-1.49721
-1.29296
-1.05698
-0.793939
-0.510468
-0.21657
0.0737444
0.342581
0.568344
0.728635
-1.98014
-2.00508
-2.04651
-2.06512
-2.03982
-1.97884
-1.891
-1.77487
-1.62787
-1.45172
-1.25093
-1.03119
-0.799986
-0.567611
-0.347567
-0.156145
-0.011945
0.0665203
-2.08611
-2.10324
-2.13243
-2.14625
-2.1262
-2.0751
-1.99989
-1.90118
-1.77791
-1.63214
-1.46872
-1.29399
-1.11588
-0.944576
-0.792664
-0.674609
-0.606188
-0.602534
-2.18672
-2.1991
-2.22065
-2.23172
-2.21687
-2.17599
-2.11427
-2.03343
-1.93366
-1.81741
-1.68968
-1.55706
-1.42758
-1.31098
-1.21878
-1.16368
-1.15903
-1.21722
-2.29001
-2.29931
-2.31591
-2.32591
-2.31688
-2.2871
-2.24021
-2.17855
-2.10336
-2.01745
-1.92585
-1.83517
-1.75325
-1.68919
-1.6533
-1.6565
-1.70995
-1.82358
-2.41324
-2.42061
-2.43452
-2.44564
-2.44449
-2.42858
-2.40029
-2.36221
-2.31642
-2.26608
-2.21611
-2.17286
-2.14363
-2.13659
-2.16053
-2.22442
-2.33706
-2.50591
-2.56025
-2.56709
-2.58118
-2.5965
-2.60608
-2.60738
-2.6019
-2.59218
-2.58082
-2.57114
-2.56777
-2.57645
-2.60362
-2.65615
-2.74111
-2.86535
-3.03532
-3.25602
-2.73505
-2.74295
-2.76049
-2.78386
-2.80783
-2.83018
-2.85188
-2.87524
-2.90293
-2.93815
-2.98498
-3.04823
-3.13312
-3.24499
-3.38901
-3.56993
-3.79194
-4.05786
-2.94064
-2.95128
-2.97576
-3.01147
-3.05405
-3.1015
-3.15447
-3.21488
-3.28506
-3.36769
-3.466
-3.58361
-3.72427
-3.89162
-4.08898
-4.31907
-4.58413
-4.88513
-3.1764
-3.1915
-3.22634
-3.27863
-3.34391
-3.42
-3.50719
-3.60684
-3.72059
-3.85028
-3.99802
-4.16606
-4.35665
-4.57174
-4.81295
-5.08134
-5.37758
-5.70126
-3.43262
-3.45428
-3.50314
-3.57618
-3.6678
-3.77507
-3.89773
-4.03647
-4.19198
-4.36498
-4.5563
-4.76687
-4.9975
-5.24873
-5.52079
-5.81349
-6.12641
-6.4583
-3.62575
-3.65374
-3.71627
-3.80865
-3.923
-4.05517
-4.20458
-4.37155
-4.55606
-4.75788
-4.9769
-5.21314
-5.46653
-5.73677
-6.02333
-6.32537
-6.64194
-6.97141
-3.74058
-3.77386
-3.84821
-3.95669
-4.0885
-4.23837
-4.40589
-4.59136
-4.79421
-5.01362
-5.24906
-5.50013
-5.76623
-6.04658
-6.34024
-6.64611
-6.96305
-7.28946
-3.80606
-3.84544
-3.93288
-4.05746
-4.20433
-4.36803
-4.54954
-4.74924
-4.96561
-5.19714
-5.44314
-5.7031
-5.97624
-6.26149
-6.55768
-6.86357
-7.17782
-7.49863
-3.83211
-3.87896
-3.98205
-4.12395
-4.28397
-4.45776
-4.64938
-4.8598
-5.08665
-5.32796
-5.58264
-5.84983
-6.12854
-6.4176
-6.71579
-7.02183
-7.33451
-7.65238
-3.82699
-3.88363
-4.00558
-4.16553
-4.33769
-4.52067
-4.72064
-4.93767
-5.16914
-5.41496
-5.67416
-5.94512
-6.22629
-6.51653
-6.81483
-7.1199
-7.43018
-7.74373
-3.796
-3.86804
-4.01554
-4.18874
-4.36649
-4.55928
-4.77302
-5.00197
-5.24028
-5.49093
-5.75444
-6.02937
-6.31302
-6.60389
-6.90166
-7.20537
-7.51372
-7.82549
-3.74294
-3.83411
-4.02684
-4.21353
-4.37998
-4.56504
-4.77938
-5.0126
-5.25877
-5.51385
-5.77985
-6.05789
-6.34475
-6.63775
-6.93652
-7.24005
-7.54697
-7.85609
-3.67708
-3.7694
-4.02175
-4.25585
-4.43903
-4.62956
-4.84657
-5.0803
-5.32468
-5.57897
-5.84369
-6.11728
-6.40008
-6.69163
-6.98933
-7.29113
-7.59524
-7.90224
-3.62545
-3.70631
-3.90983
-4.1267
-4.33173
-4.55275
-4.7911
-5.03793
-5.29191
-5.55473
-5.82662
-6.10671
-6.39493
-6.69015
-6.99006
-7.29344
-7.6004
-7.90937
-3.55393
-4.01441
-4.23215
-4.32316
-4.45832
-4.65455
-4.877
-5.10953
-5.35265
-5.60798
-5.8744
-6.15019
-6.4343
-6.72536
-7.02155
-7.32129
-7.62368
-7.92769
-2.48832
-3.41074
-3.9694
-4.17193
-4.35664
-4.59008
-4.83715
-5.08486
-5.33852
-5.6019
-5.87451
-6.15496
-6.44231
-6.73553
-7.03311
-7.33321
-7.63416
-7.93226
-19.7344
-19.6768
-18.9412
-18.2777
-18.4631
-19.7578
-21.6268
-23.3396
-24.4372
-24.8181
-24.6546
-24.1638
-23.5681
-23.059
-22.7664
-22.7019
-22.7471
-22.7659
-22.6853
-22.4716
-22.2625
-22.2623
-22.4942
-22.6993
-22.7651
-22.6966
-22.5314
-22.397
-22.5328
-23.1152
-24.2466
-25.9412
-28.1335
-30.7008
-33.4907
-36.3454
-39.1191
-41.6888
-43.9587
-45.8608
-47.3539
-48.4234
-49.0738
-49.3023
-49.0862
-48.4099
-47.307
-45.841
-44.0626
-42.0142
-39.7328
-37.2515
-34.5991
-31.8003
-28.8761
-25.8434
-22.7162
-19.5067
-16.2267
-12.8903
-9.51506
-6.12491
-2.75073
0.569377
3.79165
6.86962
9.75816
12.4177
14.8176
16.939
18.7751
20.3306
21.6192
22.6623
23.4869
24.1239
24.5753
24.9158
25.1341
25.2539
25.2955
25.2755
25.208
25.1049
24.9761
24.8299
24.6733
24.5122
24.3517
24.1966
24.0514
23.92
23.8082
23.7326
23.68
23.5923
23.4534
23.2701
23.0568
22.8404
22.6531
22.5208
22.4557
22.4547
22.5091
22.6163
22.7939
23.0698
23.4388
23.8039
24.0133
24.0121
23.7833
23.0952
21.558
18.8903
14.6802
9.37497
3.18888
-3.12676
-8.98951
-14.0435
-18.1086
-21.1138
-23.0392
-23.8818
-23.6724
-22.3886
-20.1186
-16.9383
-12.9389
-8.24022
-2.99871
2.58599
8.27096
13.7835
18.854
23.2607
26.8691
29.6029
31.4098
32.3349
32.4908
32.0107
31.0328
29.6868
28.09
26.3494
24.5696
22.858
21.3943
20.3424
19.4742
18.5584
17.2632
15.3293
12.8939
10.5609
8.86283
7.61976
6.14424
4.0442
1.72134
-0.160604
-1.11032
-0.965592
0.0892808
1.83587
3.95289
6.17426
8.2934
10.1959
11.8656
13.3407
14.6862
15.916
16.9126
17.4995
17.6476
17.3613
-20.3841
-20.5049
-20.7521
-21.5846
-23.1362
-25.1219
-27.0987
-28.6902
-29.6918
-29.9888
-29.4904
-28.2635
-26.5857
-24.8894
-23.5849
-22.8504
-22.5551
-22.4065
-22.2478
-22.2141
-22.47
-22.6451
-22.7069
-22.7559
-22.9308
-23.0927
-23.0907
-23.1187
-23.5237
-24.5182
-26.1777
-28.4496
-31.1897
-34.209
-37.3123
-40.326
-43.1111
-45.5658
-47.6207
-49.2322
-50.3779
-51.0498
-51.2527
-51.0154
-50.392
-49.4372
-48.1712
-46.6
-44.7466
-42.6419
-40.3182
-37.8062
-35.1341
-32.3261
-29.4023
-26.3787
-23.2673
-20.0781
-16.8199
-13.5031
-10.1422
-6.75788
-3.37909
-0.0431319
3.20557
6.31857
9.24789
11.9508
14.3941
16.5569
18.4313
20.0217
21.3422
22.4143
23.2641
23.9192
24.4025
24.7486
24.976
25.106
25.1578
25.1476
25.0894
24.9947
24.8737
24.7344
24.5838
24.4279
24.2717
24.1194
23.9751
23.843
23.7261
23.6153
23.5099
23.422
23.3274
23.1936
23.0101
22.8054
22.6257
22.5076
22.4641
22.4852
22.5497
22.6491
22.8012
23.0504
23.4104
23.7795
23.9745
23.924
23.7222
23.1681
21.6757
18.657
13.9254
7.95041
1.41094
-4.9686
-10.7126
-15.5694
-19.4215
-22.2184
-23.9498
-24.6381
-24.3006
-22.9962
-20.7363
-17.5771
-13.6027
-8.92756
-3.70337
1.87515
7.56987
13.1116
18.2297
22.6944
26.3459
29.1109
30.9418
31.8956
32.082
31.6337
30.6879
29.3731
27.8055
26.0891
24.3225
22.6124
21.0231
19.5849
18.464
17.553
16.4927
14.8382
12.5891
10.4291
8.97329
7.88545
6.30535
4.01445
1.52941
-0.432128
-1.39024
-1.23531
-0.0814191
1.73457
3.90631
6.16845
8.30875
10.2177
11.8778
13.3345
14.663
15.8934
16.914
17.519
17.6701
17.3969
-21.4325
-21.8537
-23.8483
-26.5051
-28.8979
-30.8907
-32.5044
-33.6901
-34.3926
-34.5638
-34.1134
-32.9313
-30.9984
-28.4864
-25.795
-23.4342
-21.7773
-20.8951
-20.627
-20.712
-21.0591
-21.809
-22.4614
-23.0247
-23.771
-24.7638
-25.9819
-27.4444
-29.1868
-31.2069
-33.4584
-35.8646
-38.3386
-40.7987
-43.1738
-45.4042
-47.4379
-49.2282
-50.7337
-51.9182
-52.7511
-53.206
-53.2636
-52.9195
-52.1875
-51.0968
-49.6803
-47.9678
-45.9899
-43.7793
-41.3687
-38.7892
-36.0694
-33.2334
-30.3005
-27.285
-24.1959
-21.0383
-17.8153
-14.5305
-11.1914
-7.8125
-4.4186
-1.04553
2.26052
5.44651
8.458
11.2454
13.7696
16.0054
17.943
19.5866
20.951
22.0592
22.9385
23.6193
24.1289
24.494
24.7387
24.8851
24.952
24.9558
24.9103
24.8273
24.7167
24.5867
24.4443
24.2954
24.1449
23.9972
23.8558
23.7241
23.6054
23.5012
23.4105
23.3246
23.2207
23.0866
22.9327
22.7767
22.6439
22.5551
22.5217
22.5427
22.6111
22.7244
22.8991
23.1631
23.5278
23.873
24.0314
23.9723
23.6827
22.706
20.3514
16.0556
10.3784
4.18147
-1.97418
-7.73295
-12.881
-17.276
-20.815
-23.4221
-25.0487
-25.6819
-25.3276
-24.0111
-21.7578
-18.6177
-14.6676
-10.0149
-4.80455
0.775014
6.49037
12.0733
17.2484
21.7804
25.4993
28.3162
30.1971
31.1982
31.4298
31.0259
30.1238
28.8508
27.3208
25.6347
23.8826
22.1496
20.5186
19.0577
17.7748
16.5356
15.1728
13.5356
11.6688
9.94734
8.66731
7.52324
5.89216
3.59593
1.10427
-0.848041
-1.75948
-1.52641
-0.30744
1.60808
3.86785
6.19273
8.3669
10.2849
11.9334
13.3638
14.663
15.8854
16.9367
17.5832
17.7451
17.4283
-24.1363
-25.5557
-28.2431
-30.7195
-32.6614
-34.1953
-35.3945
-36.2596
-36.7629
-36.86
-36.4405
-35.3327
-33.4046
-30.7018
-27.5942
-24.7131
-22.5412
-21.1851
-20.7427
-21.0177
-21.5704
-22.5578
-23.9048
-25.5164
-27.3471
-29.3488
-31.4567
-33.6119
-35.7794
-37.9433
-40.0978
-42.239
-44.3568
-46.4301
-48.4255
-50.2989
-51.9998
-53.4764
-54.6803
-55.5701
-56.1136
-56.2892
-56.0873
-55.5077
-54.5628
-53.2745
-51.6702
-49.7816
-47.6435
-45.2919
-42.7628
-40.09
-37.3038
-34.4299
-31.4876
-28.4893
-25.4404
-22.3396
-19.1813
-15.9584
-12.6667
-9.31023
-5.90564
-2.48532
0.902537
4.19771
7.33499
10.2531
12.9024
15.251
17.2851
19.0082
20.4366
21.5956
22.5162
23.2322
23.7728
24.1639
24.4317
24.5989
24.6849
24.7061
24.6768
24.6084
24.5111
24.3929
24.2609
24.121
23.9781
23.8363
23.6994
23.5703
23.4509
23.3405
23.2372
23.1375
23.0344
22.9233
22.8046
22.6825
22.5666
22.4755
22.4315
22.455
22.5593
22.7468
23.0126
23.3581
23.754
24.1057
24.2471
24.0573
23.1836
21.004
17.0715
11.8174
6.06187
0.293217
-5.27165
-10.4838
-15.1973
-19.2683
-22.5723
-25.0138
-26.5304
-27.0975
-26.713
-25.3845
-23.1375
-20.0171
-16.0923
-11.462
-6.26214
-0.672834
5.07715
10.7178
15.9668
20.584
24.3909
27.2792
29.2229
30.2806
30.5657
30.2149
29.3658
28.1443
26.6606
25.0107
23.2798
21.5484
19.8822
18.3196
16.8697
15.4726
14.0002
12.3445
10.5691
8.92855
7.60811
6.41892
4.89839
2.82952
0.568416
-1.21242
-2.00746
-1.68227
-0.381839
1.60693
3.93098
6.29442
8.48934
10.4115
12.0511
13.4626
14.7364
15.9463
17.0261
17.7275
17.8989
17.4533
-27.3117
-29.0535
-30.9764
-32.6315
-34.0391
-35.2309
-36.2045
-36.9276
-37.3393
-37.3828
-36.9785
-35.9822
-34.2872
-31.9548
-29.2814
-26.7279
-24.7883
-23.7744
-23.5519
-23.9928
-24.98
-26.4706
-28.3405
-30.4428
-32.6556
-34.89
-37.0945
-39.2515
-41.3653
-43.4481
-45.5101
-47.5513
-49.5587
-51.5055
-53.3535
-55.0572
-56.5676
-57.8364
-58.8188
-59.4758
-59.777
-59.7033
-59.2501
-58.4269
-57.2469
-55.7307
-53.907
-51.8107
-49.4805
-46.9571
-44.2811
-41.4908
-38.6206
-35.6994
-32.7483
-29.7797
-26.7958
-23.7889
-20.7426
-17.6353
-14.4459
-11.1612
-7.78341
-4.3363
-0.867831
2.55337
5.84716
8.93461
11.7503
14.2503
16.4148
18.2455
19.7611
20.9901
21.9693
22.7344
23.3147
23.7406
24.0393
24.2343
24.3457
24.3902
24.382
24.333
24.2531
24.1505
24.0323
23.9044
23.7715
23.638
23.5071
23.3816
23.2633
23.1528
23.0494
22.9509
22.8522
22.749
22.6412
22.5335
22.4353
22.3601
22.3238
22.3485
22.4634
22.6867
23.0154
23.433
23.8906
24.2603
24.3337
23.7792
21.8956
18.3257
13.3399
7.84499
2.30419
-3.11729
-8.33457
-13.2307
-17.661
-21.4839
-24.5807
-26.8601
-28.2598
-28.7533
-28.3325
-26.9942
-24.7593
-21.6668
-17.7783
-13.1825
-8.00431
-2.41341
3.36744
9.06744
14.4011
19.1155
23.0189
25.9906
28.0069
29.1307
29.4797
29.1933
28.4091
27.2506
25.8239
24.2195
22.5164
20.7847
19.0814
17.4454
15.8898
14.3748
12.8196
11.1576
9.41652
7.75773
6.3449
5.11015
3.73812
2.01839
0.167432
-1.28834
-1.88958
-1.4691
-0.130344
1.86184
4.18
6.53259
8.71207
10.6175
12.2442
13.6454
14.9062
16.1025
17.1942
17.9355
18.099
17.4677
-28.8495
-30.1089
-31.2308
-32.3505
-33.4261
-34.3895
-35.2085
-35.8418
-36.2533
-36.3783
-36.0907
-35.3325
-34.1077
-32.5112
-30.7645
-29.2161
-28.1734
-27.7069
-27.8367
-28.6104
-29.93
-31.6417
-33.5984
-35.6848
-37.8225
-39.964
-42.09
-44.1993
-46.2979
-48.3892
-50.4685
-52.521
-54.5215
-56.436
-58.2234
-59.8384
-61.2339
-62.3636
-63.1846
-63.6596
-63.7594
-63.4674
-62.7842
-61.717
-60.2805
-58.5014
-56.4148
-54.0619
-51.488
-48.7401
-45.865
-42.9071
-39.9066
-36.8982
-33.9081
-30.9521
-28.0329
-25.1385
-22.2424
-19.3068
-16.2892
-13.1513
-9.87163
-6.45604
-2.94517
0.586599
4.04197
7.31866
10.3284
13.0095
15.3319
17.2947
18.9185
20.2382
21.2926
22.1176
22.7488
23.2191
23.5574
23.788
23.9316
24.0055
24.0241
23.9994
23.9413
23.8584
23.7576
23.6447
23.5248
23.402
23.2795
23.1601
23.0456
22.9369
22.834
22.7356
22.6393
22.5432
22.4473
22.3539
22.2687
22.2021
22.1702
22.1966
22.3119
22.5445
22.8999
23.3542
23.8355
24.1816
24.0762
22.9319
20.0533
15.4532
9.99576
4.44884
-0.979065
-6.23637
-11.2616
-15.944
-20.153
-23.7663
-26.6809
-28.8143
-30.1067
-30.5313
-30.0769
-28.7334
-26.5172
-23.462
-19.6215
-15.0746
-9.93418
-4.35755
1.43907
7.18841
12.602
17.4152
21.4154
24.4738
26.5673
27.7632
28.1839
27.9713
27.2621
26.1765
24.8153
23.2632
21.5927
19.8666
18.1371
16.4411
14.7929
13.1726
11.5373
9.85409
8.14886
6.52928
5.10516
3.85333
2.60278
1.22814
-0.143899
-1.16132
-1.47313
-0.91888
0.440035
2.38557
4.63135
6.9101
9.02983
10.8971
12.5021
13.8948
15.1486
16.3273
17.4025
18.1474
18.2735
17.4523
-27.9371
-28.6907
-29.4696
-30.3349
-31.1909
-31.986
-32.6861
-33.2567
-33.6783
-33.908
-33.9003
-33.6249
-33.0869
-32.3652
-31.6241
-31.0558
-30.813
-31.007
-31.703
-32.8641
-34.3815
-36.1456
-38.0663
-40.0806
-42.1525
-44.2647
-46.4103
-48.5853
-50.7839
-52.9949
-55.2001
-57.3733
-59.4807
-61.4815
-63.329
-64.9731
-66.3624
-67.4474
-68.1827
-68.5302
-68.4624
-67.9668
-67.0426
-65.6983
-63.9589
-61.8598
-59.4453
-56.7653
-53.8734
-50.8245
-47.6724
-44.4683
-41.2594
-38.087
-34.9848
-31.9756
-29.0676
-26.2505
-23.4936
-20.7464
-17.9448
-15.0214
-11.9214
-8.62029
-5.1389
-1.54843
2.03937
5.49557
8.70274
11.5758
14.0699
16.1794
17.9286
19.3531
20.4922
21.3876
22.0794
22.6031
22.9889
23.2624
23.445
23.5543
23.605
23.6094
23.5776
23.5182
23.4383
23.3439
23.2399
23.1304
23.0189
22.9081
22.7999
22.6956
22.5959
22.5005
22.4085
22.319
22.2317
22.148
22.0719
22.0117
21.9827
22.0081
22.1183
22.3416
22.6856
23.1239
23.5709
23.8182
23.4112
21.6195
17.952
12.7366
7.03397
1.44414
-3.94132
-9.10983
-14.0031
-18.52
-22.549
-25.9875
-28.7477
-30.7561
-31.9565
-32.323
-31.8426
-30.5006
-28.3099
-25.3
-21.5179
-17.0332
-11.9473
-6.40531
-0.614859
5.1646
10.6443
15.5442
19.6319
22.7715
24.9401
26.2092
26.7057
26.573
25.946
24.9401
23.6504
22.1553
20.5208
18.8038
17.0522
15.3023
13.5741
11.8659
10.1614
8.45269
6.77168
5.19892
3.80997
2.5995
1.48229
0.40715
-0.528555
-1.09474
-1.05876
-0.308889
1.10739
3.01537
5.17684
7.36235
9.40367
11.2155
12.7873
14.1629
15.4036
16.5534
17.5834
18.2864
18.3458
17.3684
-24.9003
-25.407
-26.1008
-26.8993
-27.7118
-28.4905
-29.2088
-29.8543
-30.4091
-30.8592
-31.183
-31.3668
-31.4279
-31.4324
-31.4919
-31.7375
-32.281
-33.1774
-34.4063
-35.9051
-37.6087
-39.4648
-41.437
-43.5039
-45.6558
-47.8883
-50.1964
-52.5718
-55
-57.4598
-59.9222
-62.3499
-64.698
-66.9144
-68.9417
-70.7199
-72.1896
-73.2954
-73.9884
-74.2292
-73.9926
-73.2753
-72.082
-70.4292
-68.3507
-65.8914
-63.1048
-60.0499
-56.7883
-53.3815
-49.8893
-46.3685
-42.8723
-39.45
-36.1446
-32.9898
-30.0037
-27.1835
-24.5005
-21.8989
-19.2995
-16.6092
-13.7371
-10.6194
-7.24368
-3.665
-0.00068033
3.59624
6.97637
10.0283
12.6908
14.9486
16.8283
18.3595
19.5881
20.5605
21.3197
21.9033
22.343
22.6654
22.8924
23.0422
23.1298
23.1676
23.166
23.1337
23.078
23.005
22.9197
22.8263
22.7284
22.6286
22.5292
22.4319
22.3376
22.247
22.1601
22.0767
21.9967
21.921
21.8521
21.7967
21.7686
21.7899
21.888
22.087
22.3914
22.7717
23.1288
23.2006
22.4248
20.0529
15.7999
10.2426
4.41029
-1.2035
-6.56884
-11.6816
-16.4787
-20.8676
-24.7537
-28.0512
-30.6858
-32.5928
-33.7196
-34.0412
-33.5442
-32.2101
-30.0503
-27.091
-23.3742
-18.9613
-13.9455
-8.46047
-2.70052
3.08763
8.61224
13.5758
17.7325
20.9394
23.1738
24.5116
25.0831
25.0322
24.4901
23.5667
22.3506
20.9135
19.3152
17.6075
15.8351
14.0353
12.235
10.4479
8.6795
6.94201
5.27412
3.74372
2.41316
1.29126
0.337557
-0.463462
-1.03045
-1.20267
-0.831018
0.142118
1.65984
3.57216
5.68069
7.7927
9.7643
11.5207
13.0533
14.3991
15.608
16.7102
17.671
18.2955
18.2675
17.1855
-20.2373
-20.7456
-21.4508
-22.2905
-23.18
-24.07
-24.9303
-25.7574
-26.5339
-27.2508
-27.9069
-28.5182
-29.1255
-29.7949
-30.605
-31.6197
-32.8651
-34.3272
-35.9717
-37.766
-39.6866
-41.7209
-43.8659
-46.1242
-48.4991
-50.9909
-53.5942
-56.2964
-59.0759
-61.9021
-64.7344
-67.5225
-70.2072
-72.7222
-74.9974
-76.9625
-78.551
-79.7025
-80.366
-80.5013
-80.0864
-79.1366
-77.6542
-75.668
-73.2228
-70.3761
-67.1933
-63.7444
-60.0993
-56.3249
-52.4831
-48.6307
-44.8208
-41.1051
-37.5343
-34.1551
-31.0018
-28.0864
-25.3895
-22.8556
-20.3963
-17.8999
-15.2469
-12.3341
-9.10983
-5.60322
-1.92566
1.75496
5.26177
8.45915
11.2692
13.6641
15.6593
17.2915
18.6084
19.659
20.4882
21.1351
21.6326
22.0079
22.2834
22.4775
22.6056
22.6802
22.712
22.7099
22.6812
22.6322
22.5682
22.4933
22.4113
22.3251
22.237
22.149
22.0624
21.9785
21.8979
21.8209
21.7478
21.679
21.6162
21.5644
21.5355
21.5494
21.6291
21.7933
22.0407
22.3355
22.562
22.4104
21.2673
18.4369
13.7962
8.05126
2.16434
-3.46892
-8.8302
-13.9048
-18.6295
-22.921
-26.6971
-29.8853
-32.4222
-34.2509
-35.3231
-35.6129
-35.1085
-33.7886
-31.6637
-28.7584
-25.1122
-20.7789
-15.8502
-10.4392
-4.72599
1.04805
6.58788
11.5857
15.7851
19.0377
21.3222
22.7184
23.3593
23.387
22.928
22.0855
20.9407
19.5586
17.9931
16.2909
14.495
12.6444
10.7733
8.90981
7.07854
5.30938
3.64866
2.16114
0.905443
-0.0983523
-0.866311
-1.40016
-1.63871
-1.47123
-0.803826
0.382921
2.02027
3.97082
6.06331
8.13316
10.0565
11.7678
13.2593
14.5627
15.7205
16.7546
17.625
18.1499
18.0349
16.9014
-14.6172
-15.1345
-15.8581
-16.7364
-17.708
-18.7253
-19.7725
-20.8188
-21.8651
-22.921
-24.0067
-25.1526
-26.3948
-27.7653
-29.2808
-30.9378
-32.719
-34.6056
-36.5867
-38.6608
-40.8344
-43.12
-45.5327
-48.086
-50.7885
-53.6417
-56.638
-59.7595
-62.9773
-66.2501
-69.5247
-72.7369
-75.8131
-78.6737
-81.2369
-83.4233
-85.16
-86.3823
-87.0349
-87.0789
-86.5023
-85.3086
-83.5193
-81.1753
-78.3353
-75.072
-71.4669
-67.6042
-63.5657
-59.4259
-55.2487
-51.0875
-46.9876
-42.9934
-39.1539
-35.5239
-32.1547
-29.0788
-26.2928
-23.7472
-21.3485
-18.9739
-16.4849
-13.7483
-10.678
-7.27342
-3.63214
0.0746159
3.65654
6.9557
9.87444
12.3747
14.4663
16.1862
17.5833
18.7078
19.6055
20.316
20.8726
21.3027
21.6288
21.8697
22.0406
22.1545
22.2221
22.2525
22.2531
22.2304
22.1898
22.1356
22.0717
22.0012
21.9266
21.8501
21.7734
21.6979
21.6249
21.5551
21.4889
21.4267
21.3694
21.3208
21.2904
21.2946
21.3519
21.475
21.6561
21.8511
21.9263
21.5419
20.0835
16.9345
12.0752
6.24913
0.335092
-5.32519
-10.6979
-15.7531
-20.4261
-24.6429
-28.3341
-31.4384
-33.9008
-35.6712
-36.7059
-36.974
-36.4726
-35.1755
-33.0923
-30.2464
-26.6748
-22.4292
-17.5878
-12.2593
-6.61047
-0.876289
4.64722
9.64575
13.8558
17.1267
19.4398
20.8791
21.5786
21.6772
21.2948
20.5266
19.4463
18.1119
16.5712
14.8666
13.0395
11.1317
9.18562
7.24302
5.34628
3.54249
1.88662
0.445359
-0.72346
-1.59158
-2.15999
-2.42686
-2.35436
-1.87568
-0.940183
0.444854
2.20387
4.20931
6.30983
8.3619
10.2565
11.9345
13.3864
14.6387
15.7294
16.6771
17.4429
17.8626
17.6738
16.5344
-8.83726
-9.32137
-10.0082
-10.8674
-11.8675
-12.9796
-14.1851
-15.4814
-16.8774
-18.3861
-20.0192
-21.7812
-23.6647
-25.6505
-27.7134
-29.8308
-31.9911
-34.1961
-36.4592
-38.8014
-41.2481
-43.8256
-46.5574
-49.4614
-52.5476
-55.8164
-59.2568
-62.8453
-66.5442
-70.302
-74.0533
-77.721
-81.2187
-84.454
-87.3336
-89.7682
-91.6775
-92.992
-93.6519
-93.6178
-92.8857
-91.4652
-89.3788
-86.68
-83.4421
-79.7543
-75.7153
-71.4268
-66.9866
-62.4813
-57.9811
-53.5373
-49.1849
-44.9538
-40.8816
-37.0223
-33.4391
-30.183
-27.2687
-24.655
-22.2505
-19.9263
-17.5321
-14.9182
-11.9726
-8.66659
-5.08018
-1.38135
2.23057
5.58255
8.5642
11.1314
13.2905
15.0778
16.5414
17.731
18.6919
19.4632
20.0776
20.5624
20.9397
21.2283
21.4434
21.5981
21.703
21.7675
21.7991
21.8044
21.789
21.7573
21.7134
21.6605
21.6013
21.5382
21.4731
21.4078
21.3437
21.2818
21.223
21.1675
21.1158
21.0704
21.0382
21.0318
21.0649
21.1447
21.2569
21.3487
21.2718
20.677
18.9811
15.6445
10.6961
4.85614
-1.07308
-6.76051
-12.1464
-17.1897
-21.828
-25.9946
-29.6283
-32.6758
-35.0885
-36.8208
-37.8308
-38.0942
-37.5999
-36.3277
-34.2879
-31.5016
-28.0042
-23.8452
-19.0951
-13.8565
-8.2875
-2.61758
2.8577
7.82083
12.0057
15.263
17.5789
19.0416
19.7847
19.9417
19.6244
18.9194
17.8922
16.5936
15.0651
13.3451
11.4738
9.49687
7.46549
5.43573
3.4673
1.62448
-0.0276629
-1.4177
-2.48768
-3.20539
-3.564
-3.56315
-3.18768
-2.40979
-1.2166
0.36188
2.24537
4.31561
6.43834
8.48758
10.3664
12.0198
13.4354
14.6339
15.6489
16.4995
17.1543
17.4713
17.2249
16.1126
-3.79548
-4.19896
-4.79669
-5.57514
-6.54199
-7.70626
-9.0759
-10.6562
-12.4461
-14.4332
-16.5903
-18.8761
-21.2421
-23.6443
-26.0525
-28.4567
-30.8649
-33.2995
-35.7912
-38.3749
-41.0856
-43.9556
-47.0116
-50.2726
-53.748
-57.4359
-61.3214
-65.3744
-69.5496
-73.7856
-78.0064
-82.1233
-86.0368
-89.6412
-92.8308
-95.507
-97.5849
-98.9937
-99.6725
-99.5806
-98.7351
-97.1265
-94.7844
-91.7713
-88.1732
-84.0938
-79.6491
-74.9588
-70.1377
-65.2874
-60.4879
-55.7919
-51.2273
-46.8082
-42.5565
-38.5178
-34.7581
-31.3393
-28.2965
-25.5874
-23.1388
-20.8165
-18.4587
-15.9041
-13.0266
-9.78304
-6.24332
-2.57257
1.02756
4.3817
7.37759
9.96994
12.1641
13.9944
15.5072
16.75
17.7661
18.5929
19.262
19.7994
20.227
20.5629
20.8224
21.0183
21.1614
21.2609
21.3246
21.3591
21.3702
21.3624
21.34
21.3062
21.264
21.2159
21.164
21.1102
21.0562
21.0033
20.9523
20.9036
20.8576
20.8154
20.7817
20.7649
20.7744
20.812
20.8582
20.8524
20.6384
19.8747
18.0246
14.6107
9.67105
3.86784
-2.05859
-7.7656
-13.1629
-18.1991
-22.8139
-26.9461
-30.5412
-33.5514
-35.933
-37.6444
-38.6452
-38.9126
-38.4331
-37.1915
-35.1983
-32.4731
-29.05
-24.9768
-20.3198
-15.1771
-9.70137
-4.11853
1.27691
6.16739
10.2888
13.4976
15.7874
17.2504
18.0182
18.2171
17.9492
17.2916
16.3015
15.022
13.4881
11.7342
9.80017
7.7361
5.60344
3.47339
1.42345
-0.464904
-2.11367
-3.44648
-4.40411
-4.95511
-5.09213
-4.82082
-4.14665
-3.07471
-1.62509
0.151018
2.16776
4.3143
6.47117
8.52813
10.3996
12.0344
13.4181
14.5651
15.5045
16.2569
16.8019
17.0232
16.7335
15.6695
-0.082471
-0.380484
-0.858181
-1.52846
-2.44637
-3.65387
-5.17195
-6.99945
-9.11077
-11.456
-13.9667
-16.5689
-19.1976
-21.8097
-24.3888
-26.9421
-29.4949
-32.0828
-34.7464
-37.5271
-40.4637
-43.5904
-46.9342
-50.5136
-54.3365
-58.3982
-62.6793
-67.1443
-71.7406
-76.3987
-81.033
-85.5432
-89.8177
-93.738
-97.1877
-100.063
-102.278
-103.765
-104.462
-104.327
-103.41
-101.661
-99.124
-95.8703
-91.995
-87.6118
-82.8513
-77.8476
-72.7288
-67.6076
-62.5729
-57.6819
-52.9593
-48.4097
-44.0402
-39.8835
-36.0014
-32.4631
-29.3093
-26.5205
-24.0168
-21.6622
-19.2895
-16.7313
-13.8603
-10.635
-7.12624
-3.49714
0.0565551
3.368
6.33278
8.91038
11.1072
12.9559
14.4997
15.7824
16.8442
17.7197
18.4385
19.0253
19.5008
19.8826
20.1856
20.4223
20.6035
20.7383
20.8346
20.8991
20.9375
20.9547
20.9547
20.9412
20.9172
20.8854
20.8479
20.8069
20.764
20.7207
20.678
20.6364
20.5959
20.557
20.5219
20.4957
20.4837
20.483
20.47
20.3791
20.0531
19.1704
17.2453
13.8477
8.99831
3.2819
-2.6159
-8.33101
-13.7376
-18.7708
-23.371
-27.4816
-31.0527
-34.0405
-36.4049
-38.1076
-39.11
-39.3891
-38.9312
-37.7246
-35.7808
-33.1179
-29.7692
-25.7813
-21.2187
-16.1771
-10.8072
-5.33344
-0.0491732
4.73099
8.7498
11.8742
14.1073
15.5454
16.3162
16.5368
16.2986
15.6688
14.6956
13.4138
11.852
10.0402
8.01894
5.84402
3.58863
1.3405
-0.803957
-2.7456
-4.39195
-5.66101
-6.4918
-6.85786
-6.75758
-6.20781
-5.23427
-3.86971
-2.16162
-0.180184
1.98219
4.21936
6.42377
8.49902
10.3705
11.9923
13.3491
14.4507
15.3216
15.9834
16.4273
16.5635
16.2426
15.2393
2.24928
2.04026
1.68246
1.10105
0.226945
-0.997619
-2.59893
-4.56511
-6.84638
-9.36353
-12.024
-14.7414
-17.4524
-20.1244
-22.7546
-25.3635
-27.9857
-30.6635
-33.4415
-36.3629
-39.4672
-42.7881
-46.352
-50.176
-54.2659
-58.6137
-63.1963
-67.9735
-72.8868
-77.8599
-82.7989
-87.594
-92.1234
-96.2596
-99.8797
-102.877
-105.167
-106.686
-107.388
-107.256
-106.27
-104.438
-101.8
-98.4242
-94.4109
-89.8767
-84.9641
-79.8047
-74.5319
-69.2661
-64.1033
-59.1056
-54.2984
-49.6804
-45.2493
-41.0292
-37.0797
-33.4737
-30.2569
-27.4133
-24.8573
-22.4483
-20.0176
-17.4018
-14.4847
-11.2402
-7.74955
-4.17439
-0.697291
2.53319
5.42844
7.95724
10.1287
11.9738
13.5315
14.8411
15.9386
16.8552
17.6179
18.2496
18.7698
19.1951
19.5399
19.8163
20.0349
20.2048
20.3337
20.4284
20.4945
20.5371
20.5604
20.5681
20.5632
20.5485
20.5264
20.499
20.4679
20.4348
20.4007
20.3661
20.331
20.2952
20.2592
20.2249
20.1941
20.1606
20.0978
19.9382
19.5302
18.5795
16.6512
13.3509
8.66528
3.08905
-2.74621
-8.45179
-13.8621
-18.8949
-23.4879
-27.5871
-31.1458
-34.1228
-36.4802
-38.1825
-39.1934
-39.4898
-39.0584
-37.8906
-35.9985
-33.3991
-30.1252
-26.223
-21.7563
-16.8218
-11.5708
-6.22875
-1.08753
3.54452
7.42203
10.4266
12.5729
13.9602
14.7106
14.9304
14.6994
14.0744
13.0941
11.7847
10.1674
8.26869
6.13029
3.81564
1.41137
-0.976545
-3.23139
-5.23528
-6.88037
-8.07921
-8.76876
-8.93053
-8.57375
-7.73137
-6.45111
-4.79063
-2.82004
-0.625097
1.69559
4.03855
6.30519
8.41068
10.2907
11.9058
13.2418
14.3062
15.1201
15.7052
16.0627
16.1281
15.7867
14.8508
3.50796
3.3646
3.08764
2.58649
1.77446
0.583264
-1.01402
-2.99714
-5.30193
-7.83508
-10.4959
-13.1983
-15.8854
-18.5337
-21.1488
-23.7577
-26.3987
-29.1157
-31.9536
-34.9551
-38.1586
-41.5963
-45.293
-49.2641
-53.514
-58.032
-62.7926
-67.7518
-72.8475
-77.9989
-83.1072
-88.0574
-92.7231
-96.9732
-100.683
-103.745
-106.078
-107.623
-108.345
-108.229
-107.259
-105.43
-102.789
-99.4065
-95.3793
-90.829
-85.8922
-80.7093
-75.4161
-70.134
-64.9597
-59.9558
-55.1463
-50.5272
-46.0943
-41.8715
-37.9193
-34.31
-31.084
-28.2171
-25.6149
-23.133
-20.6075
-17.8902
-14.8894
-11.6049
-8.13288
-4.63014
-1.2586
1.85883
4.65424
7.1079
9.23208
11.0554
12.6123
13.9367
15.06
16.0096
16.8098
17.4812
18.0419
18.5075
18.8915
19.2058
19.4606
19.6646
19.8257
19.9503
20.0442
20.1125
20.1594
20.1886
20.2034
20.2065
20.2004
20.1871
20.1684
20.1458
20.1204
20.0929
20.0629
20.0299
19.9932
19.9521
19.9056
19.8451
19.743
19.5329
19.0737
18.102
16.2326
13.0995
8.64598
3.26849
-2.45983
-8.12919
-13.5321
-18.5631
-23.1532
-27.2483
-30.8029
-33.7773
-36.1353
-37.8434
-38.8679
-39.1862
-38.7853
-37.6592
-35.8207
-33.286
-30.0875
-26.2715
-21.9033
-17.0826
-11.965
-6.77872
-1.81339
2.63257
6.33074
9.18135
11.2117
12.5227
13.2285
13.4232
13.1747
12.529
11.5148
10.1486
8.44441
6.42531
4.13573
1.64852
-0.934128
-3.48615
-5.86915
-7.9454
-9.59095
-10.7137
-11.2479
-11.1859
-10.5514
-9.39772
-7.79707
-5.83172
-3.59158
-1.1747
1.3158
3.77858
6.12196
8.27049
10.1691
11.785
13.1075
14.1439
14.9139
15.4392
15.7289
15.7401
15.3891
14.524
4.17252
4.08869
3.87718
3.44537
2.70548
1.58907
0.0682811
-1.83669
-4.06091
-6.51125
-9.08955
-11.714
-14.3327
-16.926
-19.5001
-22.0847
-24.7164
-27.4379
-30.2927
-33.3218
-36.5615
-40.0424
-43.7868
-47.8081
-52.1076
-56.6728
-61.476
-66.472
-71.5977
-76.7713
-81.8938
-86.8509
-91.5176
-95.7663
-99.4759
-102.542
-104.884
-106.447
-107.199
-107.123
-106.196
-104.426
-101.863
-98.5731
-94.6536
-90.2245
-85.419
-80.374
-75.2207
-70.0753
-65.0293
-60.1393
-55.425
-50.8832
-46.5164
-42.3587
-38.4759
-34.9343
-31.7573
-28.9004
-26.2556
-23.6776
-21.0171
-18.1561
-15.0432
-11.7136
-8.27733
-4.87834
-1.64809
1.32282
3.98992
6.34519
8.40315
10.1892
11.7321
13.0604
14.2002
15.1752
16.0064
16.7124
17.3096
17.8123
18.2333
18.5838
18.8735
19.111
19.3038
19.4583
19.5802
19.6745
19.7455
19.7969
19.832
19.8536
19.8641
19.8656
19.8598
19.8482
19.8318
19.8113
19.7863
19.7558
19.7182
19.6714
19.612
19.5301
19.3983
19.154
18.6703
17.7173
15.957
13.0491
8.89235
3.78171
-1.77788
-7.36746
-12.7396
-17.7596
-22.3458
-26.4398
-29.9953
-32.9727
-35.337
-37.0564
-38.0992
-38.4434
-38.0767
-36.9956
-35.2132
-32.745
-29.6234
-25.8957
-21.6304
-16.9328
-11.9658
-6.96201
-2.20799
2.0116
5.49042
8.15115
10.0347
11.2421
11.8774
12.0211
11.7286
11.0345
9.95659
8.5013
6.67485
4.49802
2.01954
-0.676223
-3.46934
-6.21174
-8.74189
-10.9014
-12.5493
-13.5901
-13.954
-13.6472
-12.7111
-11.2221
-9.28018
-6.99352
-4.47113
-1.82126
0.85062
3.44618
5.87995
8.08431
10.0123
11.6379
12.9549
13.9729
14.712
15.1948
15.4359
15.4107
15.0612
14.269
4.5994
4.56281
4.40483
4.03347
3.37481
2.3637
0.967892
-0.802325
-2.89278
-5.21976
-7.69151
-10.2291
-12.7799
-15.3221
-17.8598
-20.4163
-23.0259
-25.7281
-28.5628
-31.568
-34.7772
-38.2183
-41.9115
-45.8679
-50.0874
-54.5571
-59.249
-64.1188
-69.1056
-74.1313
-79.1024