/*--------------------------------*- C++ -*----------------------------------*\
  =========                 |
  \\      /  F ield         | OpenFOAM: The Open Source CFD Toolbox
   \\    /   O peration     | Website:  https://openfoam.org
    \\  /    A nd           | Version:  9
     \\/     M anipulation  |
\*---------------------------------------------------------------------------*/
FoamFile
{
    format      ascii;
    class       volScalarField;
    location    "0.04";
    object      kU;
}
// * * * * * * * * * * * * * * * * * * * * * * * * * * * * * * * * * * * * * //

dimensions      [0 2 -2 0 0 0 0];

internalField   nonuniform List<scalar> 
12225
(
0.353958
0.335142
0.317111
0.301139
0.288335
0.279156
0.273607
0.271401
0.272093
0.27517
0.280125
0.286493
0.293872
0.30193
0.310413
0.319126
0.328066
0.341711
0.437098
0.449457
0.438625
0.433636
0.439449
0.454426
0.475926
0.50151
0.529193
0.557492
0.585376
0.612184
0.637541
0.661283
0.683503
0.704269
0.724805
0.744545
0.395198
0.410945
0.410771
0.405932
0.402236
0.401204
0.402976
0.407289
0.41373
0.421848
0.431217
0.441465
0.452288
0.463453
0.474821
0.486317
0.498169
0.510254
0.379647
0.384862
0.386591
0.385799
0.383994
0.382137
0.380703
0.379911
0.379828
0.380439
0.381685
0.383491
0.38578
0.388485
0.39156
0.394988
0.398801
0.402964
0.374979
0.375908
0.376254
0.375743
0.374598
0.373118
0.371538
0.37002
0.368661
0.367515
0.366603
0.365928
0.365482
0.365255
0.36524
0.365433
0.365841
0.366445
0.37349
0.372557
0.371761
0.370809
0.369634
0.368278
0.366811
0.365302
0.363807
0.362365
0.361003
0.359737
0.358576
0.357525
0.356586
0.355762
0.355054
0.35446
0.373013
0.371296
0.369811
0.368412
0.367018
0.365599
0.364152
0.36269
0.361231
0.359793
0.35839
0.357035
0.355735
0.354498
0.353326
0.352224
0.351194
0.350242
0.372866
0.370838
0.369002
0.367304
0.3657
0.364157
0.362655
0.361184
0.359743
0.358333
0.356958
0.355621
0.354328
0.35308
0.351881
0.350732
0.349636
0.348602
0.372821
0.370681
0.368689
0.36683
0.365083
0.36343
0.361854
0.360341
0.358883
0.357476
0.356116
0.354802
0.353533
0.352309
0.351129
0.349996
0.348908
0.347878
0.372807
0.370628
0.368576
0.366642
0.364818
0.363093
0.361457
0.3599
0.358413
0.35699
0.355626
0.354317
0.353061
0.351853
0.350694
0.349581
0.348514
0.347504
0.372802
0.37061
0.368536
0.366572
0.364711
0.362949
0.361276
0.359687
0.358175
0.356733
0.355357
0.354043
0.352786
0.351584
0.350433
0.349333
0.34828
0.347286
0.3728
0.370604
0.368521
0.366547
0.364673
0.362894
0.361205
0.3596
0.358072
0.356618
0.355232
0.35391
0.352649
0.351446
0.350296
0.349199
0.348152
0.347165
0.372798
0.3706
0.368514
0.366535
0.364655
0.36287
0.361172
0.359558
0.358022
0.35656
0.355167
0.35384
0.352575
0.351368
0.350218
0.349121
0.348075
0.347091
0.372797
0.370597
0.36851
0.366528
0.364646
0.362857
0.361156
0.359538
0.357997
0.356531
0.355134
0.353804
0.352536
0.351327
0.350176
0.349078
0.348033
0.34705
0.372796
0.370595
0.368506
0.366523
0.364639
0.362849
0.361147
0.359527
0.357986
0.356518
0.35512
0.353789
0.35252
0.351312
0.35016
0.349062
0.348017
0.347035
0.372795
0.370593
0.368503
0.366519
0.364635
0.362844
0.361141
0.359521
0.35798
0.356513
0.355116
0.353785
0.352518
0.35131
0.350159
0.349063
0.34802
0.34704
0.372795
0.370591
0.368501
0.366516
0.364631
0.36284
0.361138
0.359518
0.357978
0.356512
0.355116
0.353787
0.352522
0.351316
0.350168
0.349074
0.348034
0.347056
0.372794
0.37059
0.368499
0.366514
0.364629
0.362838
0.361136
0.359518
0.357979
0.356514
0.355121
0.353794
0.352531
0.351329
0.350183
0.349093
0.348056
0.347081
0.372794
0.37059
0.368498
0.366513
0.364629
0.362839
0.361138
0.359521
0.357984
0.356522
0.355131
0.353807
0.352547
0.351348
0.350206
0.349119
0.348086
0.347115
0.372794
0.37059
0.368499
0.366515
0.364631
0.362843
0.361144
0.359529
0.357994
0.356535
0.355146
0.353826
0.352569
0.351373
0.350235
0.349151
0.348121
0.347153
0.372794
0.37059
0.3685
0.366518
0.364636
0.36285
0.361153
0.359541
0.358009
0.356553
0.355168
0.353851
0.352598
0.351405
0.35027
0.34919
0.348163
0.347199
0.372794
0.370592
0.368504
0.366525
0.364647
0.362866
0.361175
0.359569
0.358044
0.356594
0.355216
0.353906
0.352659
0.351473
0.350344
0.349269
0.348246
0.347285
0.372796
0.370598
0.368518
0.366551
0.364688
0.362925
0.361254
0.359668
0.358163
0.356732
0.35537
0.354074
0.352839
0.351661
0.350538
0.349467
0.348446
0.347484
0.372804
0.37063
0.368593
0.366681
0.36488
0.36318
0.361569
0.360035
0.358571
0.357171
0.355829
0.354543
0.35331
0.352128
0.350993
0.349906
0.348866
0.347883
0.372855
0.370818
0.368974
0.36727
0.365656
0.364102
0.362591
0.361116
0.359674
0.358266
0.356897
0.35557
0.354286
0.353049
0.351861
0.350721
0.349632
0.348605
0.373166
0.37177
0.370582
0.36938
0.368066
0.366631
0.365106
0.363535
0.361955
0.360399
0.358888
0.357439
0.356062
0.354762
0.353542
0.352403
0.351343
0.35037
0.3748
0.375837
0.37619
0.375425
0.373867
0.371917
0.369837
0.367784
0.365854
0.364098
0.362542
0.361193
0.36005
0.359101
0.358332
0.35773
0.357275
0.356955
0.382739
0.391727
0.392483
0.388937
0.384516
0.380518
0.377332
0.375038
0.373605
0.37295
0.372977
0.373586
0.374681
0.376175
0.377989
0.380052
0.382307
0.384684
0.407617
0.414761
0.405686
0.39621
0.390686
0.389297
0.391293
0.395839
0.402197
0.409773
0.418116
0.426889
0.43584
0.444782
0.453584
0.462156
0.470456
0.478405
0.360572
0.347597
0.335009
0.323011
0.312065
0.30245
0.294272
0.287523
0.282124
0.277952
0.274869
0.272736
0.271417
0.270786
0.27073
0.271148
0.271954
0.273066
0.196033
0.249372
0.295164
0.325994
0.345958
0.358176
0.364577
0.366412
0.364552
0.359618
0.352033
0.34205
0.329869
0.316602
0.303397
0.289687
0.275178
0.259846
0.244094
0.229154
0.217793
0.21484
0.225934
0.253649
0.294329
0.339794
0.382129
0.415346
0.438513
0.455934
0.486273
0.532463
0.589032
0.651866
0.71755
0.783591
0.848286
0.910516
0.969571
1.02502
1.07664
1.12432
1.16806
1.20795
1.2441
1.27669
1.30592
1.33201
1.35516
1.37559
1.3935
1.4091
1.42256
1.43405
1.44371
1.4517
1.45812
1.46311
1.46677
1.46921
1.47052
1.47078
1.4701
1.46855
1.46622
1.46319
1.45954
1.45534
1.45067
1.44562
1.44024
1.43463
1.42885
1.42297
1.41707
1.41122
1.40549
1.39994
1.39467
1.38973
1.38522
1.38121
1.37781
1.37513
1.37298
1.3712
1.36979
1.36873
1.36801
1.3676
1.36747
1.36757
1.36785
1.36824
1.36867
1.36905
1.36925
1.36916
1.36861
1.36743
1.36539
1.36224
1.3577
1.35141
1.34299
1.33202
1.31803
1.30053
1.27904
1.2531
1.22234
1.1865
1.14554
1.09964
1.04933
0.995701
0.941069
0.890509
0.85354
0.82342
0.793906
0.764887
0.736703
0.709684
0.684074
0.660026
0.637617
0.616859
0.597719
0.58013
0.564005
0.54924
0.53573
0.523364
0.512035
0.501638
0.492074
0.483251
0.475082
0.467487
0.460392
0.453727
0.44743
0.441435
0.435663
0.430077
0.424598
0.41919
0.413839
0.408544
0.40331
0.398142
0.393046
0.388025
0.383082
0.378216
0.373428
0.368717
0.36408
0.359518
0.355028
0.35061
0.346261
0.341979
0.337763
0.333609
0.329511
0.325465
0.321459
0.317483
0.313518
0.309538
0.305509
0.301378
0.297074
0.292478
0.287435
0.281599
0.274809
0.264994
0.368055
0.471632
0.536121
0.576676
0.600729
0.612884
0.615923
0.611841
0.602275
0.5886
0.571929
0.553083
0.53256
0.510247
0.486377
0.462033
0.438703
0.418676
0.405761
0.40661
0.43195
0.494077
0.598245
0.735876
0.887172
1.03169
1.16075
1.2573
1.32826
1.38282
1.42746
1.46714
1.50596
1.54693
1.59195
1.64203
1.69745
1.7579
1.82253
1.89011
1.95925
2.02846
2.09638
2.16185
2.22393
2.28195
2.33549
2.38432
2.42838
2.46773
2.50251
2.5329
2.55912
2.5814
2.59994
2.61498
2.62671
2.63532
2.64099
2.6439
2.6442
2.64204
2.63757
2.63093
2.62226
2.61169
2.59937
2.58541
2.56998
2.55319
2.53521
2.51617
2.49622
2.47554
2.45427
2.4326
2.41068
2.38871
2.36686
2.34533
2.32432
2.30403
2.28467
2.26648
2.24999
2.23501
2.22153
2.20967
2.19954
2.19123
2.18483
2.1804
2.17798
2.1776
2.17924
2.18288
2.18844
2.19581
2.20482
2.21524
2.22677
2.239
2.25143
2.26341
2.27415
2.2827
2.28795
2.28861
2.28331
2.27059
2.24906
2.21748
2.17494
2.12099
2.05578
1.98014
1.89555
1.80368
1.71413
1.62644
1.53947
1.45435
1.37222
1.29391
1.22
1.15079
1.08637
1.02669
0.971574
0.920798
0.874082
0.831131
0.79165
0.75535
0.721958
0.691218
0.662893
0.63677
0.612652
0.590361
0.569737
0.550636
0.532932
0.516503
0.501215
0.486908
0.473624
0.461391
0.450117
0.439711
0.430078
0.421127
0.412773
0.404936
0.397547
0.390541
0.383863
0.377466
0.371305
0.365347
0.359559
0.353916
0.348397
0.342983
0.337662
0.332422
0.327257
0.322163
0.317142
0.312199
0.307347
0.302608
0.298015
0.293624
0.289519
0.285848
0.282826
0.281064
0.280756
0.287816
0.445066
0.549696
0.615993
0.660732
0.689825
0.70681
0.713833
0.712623
0.70484
0.692114
0.676007
0.657953
0.639199
0.620925
0.603182
0.587078
0.57496
0.571487
0.584899
0.627537
0.713279
0.849732
1.02866
1.22956
1.4203
1.56535
1.66676
1.73036
1.76785
1.79209
1.81433
1.843
1.88342
1.93803
2.00705
2.08918
2.18216
2.28319
2.38923
2.49734
2.60487
2.70963
2.80991
2.90454
2.99276
3.07421
3.14878
3.21656
3.27779
3.33275
3.38176
3.42516
3.46326
3.49639
3.52481
3.54879
3.56857
3.58436
3.59635
3.60474
3.60969
3.61135
3.60986
3.60538
3.59802
3.58792
3.5752
3.55999
3.54242
3.52262
3.50071
3.47685
3.45116
3.42382
3.39499
3.36483
3.33354
3.30131
3.26834
3.23485
3.20106
3.1672
3.13347
3.10011
3.06733
3.03558
3.00469
2.97481
2.94615
2.91893
2.89335
2.86963
2.84795
2.82849
2.81142
2.79685
2.78489
2.77557
2.76888
2.76475
2.76299
2.76329
2.76524
2.7682
2.77138
2.77371
2.77392
2.77047
2.76162
2.74546
2.72009
2.68369
2.63482
2.57252
2.49657
2.40748
2.30654
2.19676
2.08866
1.98039
1.87277
1.7674
1.66573
1.56885
1.47746
1.39194
1.31239
1.23875
1.17078
1.10818
1.05059
0.997633
0.948937
0.904135
0.862884
0.824862
0.789778
0.757364
0.727378
0.699601
0.673837
0.64991
0.62766
0.606941
0.587601
0.569465
0.55237
0.536236
0.521091
0.506868
0.493499
0.480918
0.469055
0.457843
0.447214
0.437103
0.427449
0.418194
0.409283
0.400666
0.392298
0.384136
0.376144
0.368286
0.360533
0.352859
0.34524
0.337657
0.330095
0.322541
0.314989
0.307435
0.299886
0.292358
0.284883
0.277528
0.270391
0.263788
0.257915
0.254976
0.496325
0.596832
0.671798
0.726273
0.763154
0.78539
0.795453
0.795603
0.78805
0.775003
0.758673
0.741272
0.725019
0.712146
0.703215
0.700357
0.707447
0.731457
0.783198
0.875321
1.01751
1.20968
1.41667
1.60834
1.76219
1.86685
1.92756
1.95805
1.97516
1.994
2.02529
2.07488
2.14448
2.2329
2.3373
2.45409
2.57953
2.71007
2.84257
2.97434
3.10319
3.22746
3.34594
3.45782
3.56263
3.66015
3.75035
3.83337
3.90939
3.97867
4.04149
4.09815
4.14893
4.1941
4.23394
4.26868
4.29856
4.32378
4.34455
4.36105
4.37345
4.3819
4.38656
4.38757
4.38505
4.37914
4.36996
4.35764
4.34227
4.324
4.30293
4.27918
4.25288
4.22416
4.19313
4.15995
4.12475
4.08767
4.04886
4.00849
3.96669
3.92364
3.8795
3.83447
3.78874
3.74285
3.69671
3.65045
3.6043
3.55853
3.51341
3.46922
3.42626
3.38481
3.34518
3.30764
3.27245
3.23986
3.21004
3.18314
3.15918
3.13811
3.1197
3.10355
3.08903
3.07524
3.06098
3.04475
3.02472
2.99886
2.96498
2.92095
2.8649
2.79549
2.71208
2.6148
2.50459
2.38874
2.27217
2.1546
2.03774
1.9235
1.81344
1.70873
1.61008
1.51787
1.4322
1.35295
1.27983
1.21252
1.15059
1.09363
1.04124
0.992995
0.94854
0.907522
0.869627
0.834567
0.802084
0.771944
0.743939
0.71788
0.693596
0.670933
0.649746
0.629888
0.611218
0.593589
0.576936
0.561213
0.546347
0.532268
0.51891
0.506208
0.494099
0.48252
0.471412
0.460717
0.45038
0.440349
0.430574
0.421011
0.411618
0.402355
0.39319
0.384089
0.375027
0.365979
0.356925
0.347849
0.338739
0.329588
0.320394
0.311166
0.30192
0.2927
0.283566
0.274694
0.266184
0.258844
0.542283
0.648943
0.738599
0.80416
0.848222
0.874506
0.886348
0.886746
0.878555
0.864629
0.847933
0.831644
0.81935
0.81275
0.814502
0.828198
0.859308
0.916238
1.00987
1.14186
1.30864
1.49468
1.67397
1.82424
1.9332
2.00086
2.03827
2.06185
2.08768
2.1275
2.18752
2.26916
2.37071
2.48881
2.61962
2.75938
2.90473
3.05274
3.20098
3.3474
3.4904
3.6287
3.76136
3.88769
4.00726
4.1198
4.2252
4.32346
4.41466
4.49895
4.57649
4.6475
4.71219
4.77079
4.82352
4.8706
4.91224
4.94863
4.97998
5.00646
5.02824
5.04549
5.05836
5.06698
5.0715
5.07204
5.06872
5.06165
5.05094
5.0367
5.01902
4.998
4.97373
4.9463
4.9158
4.88233
4.84596
4.80678
4.76489
4.72038
4.67335
4.62392
4.5722
4.51836
4.46256
4.40507
4.34606
4.28562
4.22395
4.1613
4.09794
4.03418
3.97033
3.90674
3.84376
3.78178
3.72118
3.66234
3.60564
3.55142
3.49998
3.4515
3.40609
3.36364
3.32387
3.28617
3.24966
3.21306
3.17474
3.13271
3.08477
3.02866
2.96225
2.88393
2.79276
2.68848
2.57392
2.4567
2.33692
2.21622
2.09667
1.98021
1.86841
1.76234
1.66268
1.56973
1.48351
1.40384
1.3304
1.26281
1.20062
1.1434
1.09071
1.04215
0.997329
0.955911
0.917577
0.88204
0.849046
0.818365
0.789791
0.76314
0.738244
0.714953
0.693127
0.672635
0.653354
0.635159
0.617927
0.601608
0.586127
0.571415
0.557404
0.544031
0.531234
0.518953
0.507129
0.495707
0.484631
0.473851
0.463316
0.452981
0.442802
0.43274
0.42276
0.412828
0.402916
0.392999
0.383055
0.373069
0.363025
0.352917
0.34274
0.3325
0.322209
0.3119
0.301618
0.291476
0.281546
0.272225
0.582462
0.708417
0.817483
0.895156
0.946421
0.976774
0.990659
0.991818
0.983727
0.969885
0.954014
0.940209
0.933171
0.934728
0.949257
0.981241
1.03571
1.11756
1.22937
1.36761
1.52219
1.67721
1.81518
1.92395
2.0005
2.05115
2.08858
2.12692
2.17745
2.24664
2.33633
2.44517
2.57019
2.70791
2.85499
3.00845
3.16573
3.32466
3.48342
3.64043
3.79442
3.94432
4.08927
4.22859
4.36177
4.48845
4.60838
4.72143
4.82754
4.92672
5.01904
5.10461
5.18356
5.25605
5.32225
5.38234
5.43649
5.48489
5.52772
5.56514
5.59733
5.62444
5.64662
5.66401
5.67675
5.68496
5.68875
5.68824
5.68351
5.67465
5.66175
5.64489
5.62411
5.59949
5.57108
5.53892
5.50307
5.46355
5.42043
5.37374
5.32354
5.26989
5.21287
5.15257
5.0891
5.02259
4.95318
4.88099
4.8062
4.72903
4.64971
4.56849
4.48569
4.40164
4.3167
4.23129
4.14584
4.06082
3.97673
3.89408
3.81336
3.73504
3.6595
3.58702
3.51767
3.45127
3.38735
3.32504
3.26308
3.19974
3.13295
3.06054
2.98023
2.89036
2.78982
2.67847
2.56316
2.44422
2.32318
2.20209
2.08309
1.96797
1.85815
1.75456
1.65769
1.56773
1.48456
1.40791
1.3374
1.27257
1.21296
1.1581
1.10755
1.06091
1.0178
0.977877
0.940844
0.90643
0.874394
0.84452
0.816619
0.790517
0.766062
0.743114
0.721545
0.701239
0.682086
0.66398
0.646806
0.63049
0.614963
0.600161
0.586019
0.572478
0.559479
0.546964
0.534878
0.523166
0.511777
0.500658
0.489764
0.479048
0.468467
0.457982
0.447558
0.437161
0.426763
0.41634
0.405869
0.395334
0.384722
0.374023
0.363236
0.352363
0.341416
0.330419
0.319412
0.308472
0.297659
0.287216
0.61287
0.770697
0.903282
0.994195
1.05346
1.08895
1.10629
1.10988
1.10378
1.0921
1.07936
1.07057
1.06875
1.07762
1.10164
1.14474
1.20982
1.29789
1.40674
1.52999
1.65755
1.77775
1.88089
1.96263
2.02549
2.07755
2.12937
2.19045
2.26699
2.36138
2.47315
2.60015
2.73962
2.88881
3.04522
3.20666
3.37127
3.53741
3.70365
3.86872
4.03152
4.19108
4.34655
4.49722
4.6425
4.78193
4.91513
5.04184
5.16188
5.27512
5.38153
5.48111
5.57391
5.66001
5.73951
5.81255
5.87927
5.93981
5.99432
6.04297
6.08589
6.12325
6.15518
6.18181
6.20328
6.21971
6.23119
6.23783
6.23972
6.23692
6.22951
6.21753
6.20104
6.18007
6.15464
6.12478
6.09049
6.05179
6.00868
5.96117
5.90928
5.85302
5.79243
5.72753
5.65837
5.58498
5.50739
5.42579
5.34032
5.25115
5.15846
5.06248
4.96344
4.86165
4.75745
4.65123
4.54342
4.43453
4.32508
4.21568
4.10695
3.99954
3.89409
3.79119
3.69126
3.59453
3.50095
3.41016
3.32142
3.23333
3.14411
3.05199
2.95448
2.85035
2.73853
2.62293
2.50369
2.38203
2.25981
2.13908
2.0218
1.90957
1.80353
1.70436
1.61236
1.52749
1.44948
1.37792
1.31232
1.25217
1.19695
1.14617
1.09938
1.05616
1.01616
0.979049
0.944541
0.912387
0.882365
0.854281
0.827963
0.80326
0.780035
0.758164
0.737537
0.718052
0.699613
0.682129
0.665506
0.649658
0.634525
0.62005
0.606175
0.592845
0.580006
0.567606
0.555593
0.543915
0.532524
0.521371
0.510411
0.4996
0.488897
0.478263
0.467664
0.457067
0.446445
0.435773
0.425031
0.414202
0.403274
0.392239
0.381095
0.369843
0.358494
0.347071
0.335606
0.324158
0.312779
0.301643
0.631481
0.832748
0.991067
1.09509
1.16307
1.20531
1.22818
1.2365
1.23463
1.22699
1.21833
1.21369
1.21501
1.22712
1.25405
1.29859
1.36174
1.44223
1.53616
1.63721
1.73781
1.83102
1.91271
1.98301
2.04621
2.10914
2.17884
2.26056
2.35698
2.46845
2.5938
2.7311
2.87827
3.03332
3.19448
3.36018
3.52899
3.69966
3.871
4.04193
4.21145
4.37863
4.54264
4.70272
4.85823
5.00859
5.15333
5.29208
5.42454
5.55047
5.66974
5.78224
5.88793
5.98682
6.07894
6.16437
6.24318
6.31549
6.38142
6.4411
6.49464
6.54219
6.58387
6.6198
6.65009
6.67487
6.69421
6.70822
6.71696
6.7205
6.7189
6.71218
6.70039
6.68353
6.66162
6.63464
6.60259
6.56546
6.52322
6.47585
6.42333
6.36564
6.30277
6.23472
6.16149
6.08287
5.999
5.91004
5.81612
5.71736
5.61388
5.50587
5.39352
5.27707
5.15683
5.03315
4.90643
4.77715
4.64582
4.51306
4.37953
4.24598
4.1132
3.98201
3.85313
3.72706
3.6041
3.48435
3.36778
3.25337
3.13948
3.02542
2.908
2.78875
2.66723
2.54336
2.41788
2.29219
2.16811
2.04753
1.93212
1.82319
1.72155
1.62761
1.54135
1.46252
1.39064
1.32516
1.26546
1.21095
1.16106
1.11527
1.0731
1.03415
0.998062
0.964524
0.933269
0.904066
0.876716
0.851046
0.826907
0.804165
0.782704
0.762419
0.743214
0.725004
0.707709
0.691252
0.675552
0.660528
0.646129
0.632305
0.619007
0.606186
0.593794
0.581783
0.570107
0.558719
0.547574
0.536626
0.525833
0.515154
0.504549
0.493983
0.483421
0.472833
0.462192
0.451474
0.440662
0.429737
0.418691
0.407514
0.396205
0.384767
0.373211
0.361556
0.34983
0.338082
0.326359
0.314798
0.634496
0.891163
1.07496
1.19203
1.26992
1.32055
1.35076
1.36558
1.36944
1.36681
1.36237
1.35879
1.36022
1.37115
1.39503
1.43379
1.4875
1.55424
1.63033
1.71096
1.79135
1.86807
1.94008
2.00908
2.07885
2.15393
2.23827
2.33433
2.44301
2.56393
2.69599
2.83778
2.98784
3.14481
3.30742
3.47451
3.645
3.81784
3.99203
4.16662
4.34067
4.51328
4.68364
4.85095
5.01451
5.1737
5.32795
5.47679
5.61982
5.75672
5.88725
6.01121
6.12848
6.23897
6.34266
6.43955
6.52966
6.61306
6.68982
6.76003
6.82379
6.8812
6.93237
6.97739
7.01638
7.04942
7.07659
7.09797
7.11363
7.12361
7.12796
7.1267
7.11984
7.1074
7.08935
7.06568
7.03635
7.00135
6.96061
6.9141
6.86177
6.80357
6.73946
6.66939
6.59334
6.51095
6.42244
6.32795
6.22759
6.12142
6.00956
5.89213
5.76927
5.6412
5.50816
5.37049
5.22854
5.08272
4.93352
4.78148
4.62726
4.47155
4.3152
4.15924
4.00459
3.85189
3.70161
3.55403
3.41023
3.26963
3.12993
2.99307
2.85772
2.72286
2.58806
2.45356
2.32024
2.18946
2.06286
1.94206
1.82837
1.72274
1.62562
1.53706
1.45676
1.38419
1.31869
1.25952
1.20597
1.15735
1.11304
1.07249
1.03521
1.00079
0.968876
0.939182
0.911454
0.885481
0.861084
0.838111
0.816433
0.795935
0.77652
0.758098
0.740593
0.72393
0.708045
0.692872
0.678343
0.664387
0.65096
0.63802
0.625526
0.613435
0.601706
0.590295
0.579162
0.568263
0.557558
0.547006
0.536566
0.526201
0.515873
0.505549
0.495197
0.484787
0.474295
0.463698
0.452977
0.44212
0.431114
0.419955
0.408639
0.397173
0.385564
0.373832
0.362004
0.350118
0.33822
0.326425
0.626906
0.944967
1.14862
1.27843
1.36703
1.42718
1.46599
1.48847
1.49886
1.50128
1.49987
1.49677
1.4969
1.50437
1.52225
1.5522
1.59427
1.64692
1.70752
1.77297
1.84061
1.90895
1.97814
2.04977
2.12632
2.21033
2.30371
2.40748
2.52179
2.64619
2.77988
2.92189
3.07129
3.22711
3.38848
3.5545
3.72431
3.89705
4.07183
4.24779
4.42406
4.59978
4.77413
4.94632
5.11561
5.28131
5.44282
5.59959
5.75114
5.89706
6.03702
6.17075
6.29803
6.41871
6.53268
6.63988
6.74027
6.83386
6.92067
7.00075
7.07415
7.14095
7.20121
7.25502
7.30245
7.34357
7.37845
7.40715
7.42971
7.44618
7.45658
7.46092
7.4592
7.45142
7.43754
7.41754
7.39138
7.35899
7.32033
7.27532
7.2239
7.16601
7.10157
7.0305
6.95268
6.86783
6.77618
6.67782
6.57283
6.46128
6.34323
6.21876
6.088
5.9511
5.80829
5.65988
5.50618
5.34753
5.18436
5.01713
4.84639
4.67273
4.49685
4.31999
4.14334
3.96751
3.79299
3.61946
3.44986
3.2846
3.12265
2.96421
2.80885
2.65631
2.50664
2.36036
2.21844
2.08214
1.95284
1.83178
1.71988
1.61763
1.52508
1.44193
1.36755
1.30116
1.2419
1.18889
1.1413
1.09837
1.05945
1.02394
0.991364
0.961314
0.933448
0.907488
0.883201
0.860397
0.838917
0.818629
0.799421
0.781198
0.763877
0.747387
0.731661
0.716641
0.702271
0.688497
0.675256
0.662493
0.650171
0.638254
0.626706
0.61549
0.604568
0.593904
0.583459
0.573195
0.563076
0.553062
0.543119
0.533209
0.523299
0.513357
0.503352
0.493258
0.483051
0.472709
0.462216
0.451559
0.440727
0.429717
0.418526
0.407161
0.39563
0.383951
0.37215
0.36026
0.348323
0.336442
0.622803
0.977238
1.20437
1.34791
1.44742
1.51752
1.56565
1.59672
1.61469
1.62332
1.62451
1.62273
1.6222
1.62662
1.63887
1.66072
1.69267
1.73401
1.78327
1.8387
1.8989
1.96321
2.03187
2.10583
2.18637
2.2747
2.37164
2.47755
2.5924
2.71582
2.84731
2.98629
3.13215
3.28425
3.44196
3.6046
3.77145
3.94179
4.11483
4.2898
4.46588
4.64226
4.81814
4.99274
5.1653
5.33511
5.50151
5.66392
5.82178
5.97462
6.12204
6.26369
6.39928
6.52858
6.6514
6.76762
6.87714
6.9799
7.07586
7.16502
7.2474
7.32302
7.39192
7.45413
7.50972
7.55871
7.60116
7.63711
7.66658
7.68958
7.70615
7.71626
7.71991
7.71707
7.70771
7.69178
7.66922
7.63997
7.60395
7.56109
7.5113
7.45451
7.39062
7.31957
7.24097
7.15491
7.0615
6.96081
6.85289
6.73779
6.61555
6.48624
6.34992
6.2067
6.05676
5.90049
5.73813
5.56996
5.3963
5.21754
5.03412
4.84645
4.65472
4.4604
4.26538
4.06991
3.87467
3.68047
3.48875
3.3003
3.11554
2.935
2.75913
2.58844
2.42358
2.26546
2.11511
1.97365
1.84212
1.72132
1.61167
1.51318
1.42548
1.34786
1.2794
1.21908
1.16584
1.11869
1.07671
1.03909
1.00514
0.974266
0.94599
0.919915
0.89572
0.873146
0.851982
0.83206
0.813241
0.795414
0.778484
0.762373
0.747014
0.732347
0.71832
0.704884
0.691994
0.679601
0.667646
0.656093
0.644908
0.634059
0.623514
0.613238
0.603198
0.59336
0.58369
0.574153
0.564713
0.555337
0.54599
0.536638
0.52725
0.517795
0.508245
0.498574
0.488759
0.478782
0.468625
0.458277
0.447728
0.436976
0.426019
0.414864
0.403519
0.392002
0.380337
0.368554
0.356692
0.344842
0.659825
1.0194
1.24692
1.39727
1.50551
1.5849
1.64244
1.68264
1.70904
1.72416
1.73098
1.73336
1.73498
1.7392
1.74882
1.76582
1.79124
1.82521
1.8672
1.91637
1.97199
2.03365
2.10135
2.17543
2.25641
2.34474
2.44073
2.54452
2.65604
2.77509
2.9014
3.03465
3.1745
3.32053
3.4723
3.6293
3.79093
3.95653
4.12544
4.29696
4.47036
4.64487
4.81973
4.99418
5.16747
5.33888
5.50773
5.67339
5.83528
5.99286
6.14567
6.2933
6.43539
6.57163
6.70178
6.82564
6.94304
7.05385
7.15799
7.2554
7.34603
7.42986
7.50689
7.57712
7.64055
7.69721
7.7471
7.79024
7.82663
7.85627
7.87914
7.89524
7.90454
7.90698
7.90252
7.89111
7.87266
7.8471
7.81435
7.77431
7.72689
7.67199
7.60952
7.53932
7.46114
7.37509
7.28125
7.17967
7.07039
6.95342
6.82882
6.69662
6.55686
6.40955
6.25462
6.09296
5.92458
5.74963
5.56838
5.38111
5.18819
4.99
4.78702
4.58016
4.37038
4.15841
3.94512
3.73156
3.51901
3.3087
3.10189
2.89991
2.70411
2.5159
2.33665
2.16762
2.00993
1.86447
1.73185
1.61236
1.50586
1.41185
1.32949
1.25771
1.1953
1.14101
1.09363
1.05207
1.01534
0.982616
0.953187
0.926478
0.902026
0.879457
0.858475
0.838848
0.820391
0.802959
0.786438
0.770736
0.755778
0.741501
0.727854
0.714791
0.702269
0.69025
0.678695
0.667562
0.656798
0.64638
0.636277
0.626459
0.616895
0.607553
0.598402
0.58941
0.580544
0.57177
0.563057
0.554371
0.545679
0.536949
0.52815
0.519255
0.510234
0.501064
0.491723
0.482192
0.472456
0.462502
0.452325
0.441919
0.431285
0.420429
0.409361
0.398097
0.386659
0.375076
0.363384
0.351664
0.663333
1.03047
1.26398
1.42103
1.53688
1.62467
1.69123
1.74082
1.77643
1.80044
1.81598
1.82611
1.83389
1.84227
1.85383
1.87064
1.89409
1.92491
1.96321
2.00874
2.06115
2.12012
2.18548
2.25723
2.33548
2.42035
2.51196
2.61041
2.71571
2.82772
2.94636
3.07152
3.20305
3.34075
3.48434
3.63355
3.78774
3.9462
4.10848
4.274
4.44211
4.61213
4.78334
4.95501
5.12643
5.29687
5.46566
5.63214
5.7957
5.95577
6.11183
6.26343
6.41013
6.55158
6.68745
6.81748
6.94144
7.05914
7.17043
7.27517
7.37328
7.46468
7.5493
7.62712
7.69808
7.76218
7.81939
7.86967
7.91302
7.9494
7.97878
8.00112
8.01637
8.02446
8.02534
8.01893
8.00513
7.98387
7.95503
7.91851
7.87422
7.82203
7.76187
7.69344
7.61678
7.53193
7.43892
7.33779
7.22856
7.11126
6.9859
6.85253
6.71118
6.56191
6.40483
6.24022
6.06823
5.889
5.70271
5.50955
5.30977
5.10367
4.89161
4.67415
4.45193
4.22566
3.99626
3.76489
3.53299
3.30229
3.07478
2.85271
2.63845
2.43436
2.2425
2.06449
1.90141
1.75383
1.62185
1.50514
1.40302
1.31443
1.2381
1.1726
1.11645
1.06823
1.0266
0.990398
0.958615
0.93041
0.905096
0.88212
0.861049
0.841541
0.823334
0.806225
0.790062
0.774725
0.760125
0.746192
0.732869
0.720114
0.707888
0.696158
0.684893
0.674066
0.663643
0.653586
0.643852
0.634431
0.625291
0.616404
0.607739
0.599267
0.590956
0.582774
0.57469
0.566671
0.558684
0.550698
0.54268
0.534598
0.526424
0.518127
0.509681
0.501062
0.492248
0.483222
0.473967
0.464473
0.454732
0.444741
0.434501
0.424017
0.413299
0.402362
0.391227
0.379921
0.368478
0.35697
0.641605
1.01088
1.25422
1.41844
1.5404
1.63508
1.70975
1.76859
1.8144
1.84974
1.87697
1.8985
1.91672
1.93403
1.95263
1.97441
2.00081
2.03279
2.07083
2.11505
2.16535
2.22155
2.2835
2.35111
2.42438
2.50331
2.58803
2.67881
2.77602
2.87887
2.98764
3.1025
3.22348
3.35053
3.48351
3.62217
3.76613
3.91495
4.06814
4.22521
4.38556
4.54858
4.71362
4.87999
5.047
5.21398
5.38024
5.54513
5.70802
5.86832
6.02548
6.17898
6.32837
6.47321
6.61313
6.7478
6.87692
7.00024
7.11754
7.22864
7.33337
7.43161
7.52323
7.60815
7.68628
7.75756
7.82191
7.87928
7.92961
7.97284
8.0089
8.03773
8.05926
8.07341
8.08008
8.07918
8.07062
8.05427
8.03003
7.99778
7.95741
7.90879
7.85177
7.78627
7.71229
7.62984
7.53893
7.43959
7.33182
7.21564
7.09106
6.95812
6.81685
6.66729
6.50953
6.34369
6.16986
5.98812
5.79855
5.60126
5.39635
5.18395
4.96428
4.73763
4.50445
4.26535
4.02126
3.77343
3.52361
3.27405
3.02756
2.78737
2.55696
2.33959
2.13793
1.95379
1.78807
1.64087
1.51168
1.39957
1.30324
1.22113
1.15157
1.09281
1.04315
1.00103
0.96505
0.934
0.906876
0.882859
0.861296
0.841674
0.823598
0.806769
0.790961
0.776007
0.761783
0.7482
0.735192
0.722711
0.710722
0.699198
0.688115
0.677456
0.667201
0.65733
0.64782
0.63863
0.629745
0.621151
0.612821
0.604727
0.596841
0.589132
0.581569
0.574122
0.566758
0.559444
0.552147
0.544835
0.537475
0.530036
0.522487
0.514799
0.506945
0.4989
0.490643
0.482155
0.47342
0.464428
0.455171
0.445645
0.435851
0.425793
0.415482
0.404931
0.394161
0.383196
0.372067
0.36084
0.672718
1.0062
1.23583
1.39585
1.51877
1.61755
1.69885
1.76671
1.82367
1.87177
1.91284
1.94864
1.98093
2.01145
2.04181
2.07348
2.10764
2.14515
2.18657
2.23218
2.28209
2.33629
2.39472
2.45751
2.52502
2.59658
2.67256
2.75339
2.83939
2.93067
3.02745
3.12996
3.23836
3.35272
3.473
3.59908
3.73074
3.86767
4.00948
4.15575
4.30597
4.4596
4.61604
4.77468
4.93487
5.09597
5.25732
5.41828
5.57821
5.73652
5.89263
6.046
6.19612
6.34252
6.48478
6.62249
6.75531
6.88293
7.00505
7.12143
7.23186
7.33612
7.43406
7.52553
7.61038
7.6885
7.75977
7.82409
7.88136
7.93149
7.97438
8.00992
8.03802
8.05856
8.07144
8.07654
8.07374
8.06291
8.04391
8.01662
7.9809
7.93662
7.88371
7.82213
7.75186
7.67288
7.58518
7.48877
7.38365
7.2698
7.14724
7.01598
6.87603
6.7274
6.57013
6.40424
6.22975
6.04665
5.85492
5.65454
5.44547
5.22768
5.00121
4.76617
4.52286
4.27182
4.01397
3.75078
3.48436
3.21762
2.95428
2.69867
2.4553
2.22826
2.02059
1.83403
1.66907
1.52521
1.40129
1.29573
1.20666
1.1321
1.07
1.01837
0.975361
0.939326
0.908833
0.88269
0.859925
0.839764
0.821608
0.804994
0.789578
0.775103
0.761384
0.748287
0.735721
0.723622
0.711947
0.70067
0.689774
0.679248
0.669085
0.659277
0.649818
0.640698
0.6319
0.623387
0.615172
0.607235
0.599554
0.592104
0.584858
0.577787
0.57086
0.564047
0.557314
0.550628
0.543957
0.537265
0.53052
0.523689
0.516741
0.509646
0.502376
0.494905
0.487211
0.479273
0.471077
0.46261
0.453864
0.444834
0.435521
0.425929
0.416067
0.405948
0.39559
0.385016
0.374254
0.363364
0.665261
0.972903
1.19462
1.35079
1.47325
1.57492
1.66225
1.73881
1.80698
1.8685
1.92475
1.97695
2.02618
2.07346
2.11972
2.16577
2.21228
2.25975
2.30856
2.35894
2.41106
2.46531
2.52115
2.57887
2.63892
2.70158
2.76731
2.83662
2.91001
2.9879
3.07072
3.15881
3.25249
3.35193
3.45726
3.56848
3.68549
3.8081
3.93606
4.06901
4.20656
4.34825
4.49355
4.64191
4.79275
4.94547
5.09945
5.25406
5.40869
5.56275
5.71563
5.86678
6.01567
6.16178
6.30464
6.44381
6.57887
6.70946
6.83522
6.95585
7.07106
7.1806
7.28422
7.38171
7.47289
7.55758
7.63561
7.70682
7.77108
7.82824
7.87815
7.92069
7.95572
7.98309
8.00266
8.0143
8.01785
8.01316
8.00008
7.97845
7.94813
7.90908
7.86125
7.80456
7.73897
7.66445
7.58097
7.4885
7.38702
7.27651
7.15695
7.02832
6.89059
6.74375
6.58775
6.42254
6.24805
6.06417
5.87077
5.6677
5.45477
5.23181
4.99869
4.7554
4.50214
4.23944
3.96834
3.69059
3.40887
3.1269
2.84944
2.58195
2.32988
2.09783
1.88886
1.70431
1.54401
1.40676
1.29071
1.19368
1.11332
1.04727
0.993201
0.948975
0.912658
0.88258
0.85734
0.8358
0.817055
0.800405
0.785315
0.771386
0.758327
0.745927
0.734041
0.722569
0.711445
0.70063
0.690103
0.679855
0.669884
0.660194
0.65079
0.641678
0.632862
0.62434
0.616103
0.608124
0.600434
0.593015
0.585848
0.578913
0.572183
0.565633
0.559232
0.552951
0.546757
0.540616
0.534494
0.528357
0.522171
0.515902
0.509516
0.502983
0.496273
0.48936
0.482219
0.47483
0.467176
0.459242
0.45102
0.442505
0.433696
0.424595
0.415212
0.405557
0.395646
0.385502
0.375149
0.364639
0.608614
0.928846
1.14103
1.2921
1.4133
1.51662
1.60828
1.69191
1.76984
1.8436
1.91425
1.98251
2.04891
2.1138
2.17741
2.23989
2.30129
2.36164
2.42091
2.47933
2.53602
2.59148
2.64599
2.7
2.75409
2.80885
2.86499
2.92322
2.98426
3.04877
3.11736
3.19059
3.2689
3.35265
3.44208
3.53734
3.63848
3.74543
3.85804
3.97608
4.09925
4.22718
4.35943
4.49554
4.63498
4.77722
4.92167
5.06776
5.2149
5.3625
5.50998
5.65677
5.80231
5.94608
6.08756
6.22627
6.36176
6.49359
6.62138
6.74474
6.86334
6.97685
7.08499
7.18747
7.28405
7.37448
7.45856
7.53607
7.60681
7.67059
7.72723
7.77655
7.81837
7.85251
7.87879
7.89705
7.90709
7.90875
7.90184
7.88618
7.86175
7.82849
7.78631
7.73511
7.67483
7.6054
7.52676
7.43887
7.34167
7.23512
7.11914
6.9937
6.85871
6.7141
6.55974
6.39551
6.22124
6.03672
5.84168
5.63585
5.4189
5.19054
4.9505
4.69869
4.43529
4.1609
3.87683
3.58531
3.28977