/*--------------------------------*- C++ -*----------------------------------*\
  =========                 |
  \\      /  F ield         | OpenFOAM: The Open Source CFD Toolbox
   \\    /   O peration     | Website:  https://openfoam.org
    \\  /    A nd           | Version:  9
     \\/     M anipulation  |
\*---------------------------------------------------------------------------*/
FoamFile
{
    format      ascii;
    class       surfaceScalarField;
    location    "0.04";
    object      phi;
}
// * * * * * * * * * * * * * * * * * * * * * * * * * * * * * * * * * * * * * //

dimensions      [0 3 -1 0 0 0 0];

internalField   nonuniform List<scalar> 
24170
(
3.13329e-06
5.51161e-08
3.04774e-06
8.55524e-08
2.97221e-06
7.55312e-08
2.90279e-06
6.94177e-08
2.83719e-06
6.56033e-08
2.77899e-06
5.81947e-08
2.72891e-06
5.00757e-08
2.68601e-06
4.29072e-08
2.64897e-06
3.704e-08
2.61661e-06
3.23588e-08
2.58794e-06
2.86717e-08
2.56211e-06
2.58232e-08
2.53841e-06
2.37046e-08
2.51611e-06
2.22987e-08
2.49451e-06
2.15993e-08
2.4722e-06
2.23072e-08
2.44734e-06
2.48611e-08
3.4908e-08
2.41244e-06
3.45372e-06
1.8647e-08
3.45618e-06
8.30939e-08
3.4494e-06
8.23051e-08
3.43745e-06
8.13717e-08
3.4225e-06
8.05546e-08
3.40437e-06
7.63222e-08
3.38401e-06
7.04339e-08
3.36222e-06
6.46974e-08
3.33976e-06
5.95061e-08
3.3172e-06
5.49096e-08
3.29495e-06
5.09242e-08
3.27321e-06
4.75683e-08
3.25206e-06
4.48503e-08
3.23149e-06
4.28716e-08
3.21151e-06
4.15733e-08
3.19183e-06
4.19935e-08
3.17277e-06
4.39224e-08
5.2134e-08
3.15554e-06
3.66539e-06
1.57771e-08
3.6781e-06
7.03783e-08
3.68489e-06
7.55131e-08
3.6888e-06
7.74651e-08
3.69e-06
7.93588e-08
3.68827e-06
7.80517e-08
3.68409e-06
7.4614e-08
3.67802e-06
7.07683e-08
3.67046e-06
6.70574e-08
3.66177e-06
6.3609e-08
3.65218e-06
6.05098e-08
3.6419e-06
5.78488e-08
3.63105e-06
5.56983e-08
3.61971e-06
5.42099e-08
3.60786e-06
5.343e-08
3.59569e-06
5.4163e-08
3.58318e-06
5.6433e-08
6.18276e-08
3.57348e-06
3.92459e-06
1.65713e-08
3.93555e-06
5.9418e-08
3.94201e-06
6.90583e-08
3.94707e-06
7.24038e-08
3.95095e-06
7.54788e-08
3.95321e-06
7.57906e-08
3.95397e-06
7.38528e-08
3.95352e-06
7.12203e-08
3.95203e-06
6.85467e-08
3.94964e-06
6.60018e-08
3.94646e-06
6.36919e-08
3.94257e-06
6.17313e-08
3.93805e-06
6.02224e-08
3.93294e-06
5.9323e-08
3.92723e-06
5.91407e-08
3.9212e-06
6.01874e-08
3.91508e-06
6.25582e-08
6.65893e-08
3.91031e-06
4.20769e-06
1.60077e-08
4.21572e-06
5.13868e-08
4.22106e-06
6.37174e-08
4.22554e-06
6.79261e-08
4.22966e-06
7.13621e-08
4.2329e-06
7.25492e-08
4.23514e-06
7.16112e-08
4.23651e-06
6.98514e-08
4.2371e-06
6.79509e-08
4.237e-06
6.6106e-08
4.23626e-06
6.4432e-08
4.23494e-06
6.30541e-08
4.23307e-06
6.20881e-08
4.23072e-06
6.16796e-08
4.22791e-06
6.19452e-08
4.22491e-06
6.31845e-08
4.22201e-06
6.54575e-08
6.86814e-08
4.21992e-06
4.51036e-06
1.47337e-08
4.51656e-06
4.51828e-08
4.52152e-06
5.87604e-08
4.52569e-06
6.37571e-08
4.52968e-06
6.73745e-08
4.5331e-06
6.91233e-08
4.53578e-06
6.89377e-08
4.53776e-06
6.78712e-08
4.53912e-06
6.65927e-08
4.5399e-06
6.53232e-08
4.54015e-06
6.41852e-08
4.53989e-06
6.33061e-08
4.53918e-06
6.28029e-08
4.53806e-06
6.27997e-08
4.53661e-06
6.33947e-08
4.53505e-06
6.47472e-08
4.53365e-06
6.68522e-08
6.94885e-08
4.53285e-06
4.83404e-06
1.34136e-08
4.83927e-06
3.99576e-08
4.84414e-06
5.38869e-08
4.84821e-06
5.96882e-08
4.85205e-06
6.35289e-08
4.85547e-06
6.5705e-08
4.85827e-06
6.61348e-08
4.86049e-06
6.56581e-08
4.86217e-06
6.49121e-08
4.86335e-06
6.41409e-08
4.86406e-06
6.3473e-08
4.86434e-06
6.30324e-08
4.86421e-06
6.2929e-08
4.86375e-06
6.32634e-08
4.86304e-06
6.4105e-08
4.86226e-06
6.55225e-08
4.86165e-06
6.74593e-08
6.96813e-08
4.86146e-06
5.18082e-06
1.2178e-08
5.18538e-06
3.53976e-08
5.19011e-06
4.91492e-08
5.19415e-06
5.5656e-08
5.19791e-06
5.97623e-08
5.20132e-06
6.22947e-08
5.2042e-06
6.32587e-08
5.20654e-06
6.33146e-08
5.2084e-06
6.30514e-08
5.20981e-06
6.27313e-08
5.2108e-06
6.24887e-08
5.21139e-06
6.24408e-08
5.21163e-06
6.26872e-08
5.21159e-06
6.33052e-08
5.21136e-06
6.43369e-08
5.21108e-06
6.57952e-08
5.21095e-06
6.75976e-08
6.95448e-08
5.21108e-06
5.55251e-06
1.1002e-08
5.55651e-06
3.14003e-08
5.56102e-06
4.46421e-08
5.56502e-06
5.1655e-08
5.56875e-06
5.60279e-08
5.57218e-06
5.8867e-08
5.57514e-06
6.03041e-08
5.5776e-06
6.08544e-08
5.5796e-06
6.10436e-08
5.58119e-06
6.11436e-08
5.58239e-06
6.12938e-08
5.58322e-06
6.16034e-08
5.58375e-06
6.21596e-08
5.58404e-06
6.30204e-08
5.58417e-06
6.42061e-08
5.58426e-06
6.56992e-08
5.58445e-06
6.74115e-08
6.91903e-08
5.5848e-06
5.9509e-06
9.88133e-09
5.95441e-06
2.7886e-08
5.95865e-06
4.04059e-08
5.9626e-06
4.76994e-08
5.96632e-06
5.23088e-08
5.96978e-06
5.54118e-08
5.97282e-06
5.72621e-08
5.97541e-06
5.82678e-08
5.97757e-06
5.88826e-08
5.97933e-06
5.93769e-08
5.98073e-06
5.98927e-08
5.98181e-06
6.05304e-08
5.9826e-06
6.13646e-08
5.98318e-06
6.24383e-08
5.98363e-06
6.3757e-08
5.98404e-06
6.52901e-08
5.9845e-06
6.69562e-08
6.86464e-08
5.98504e-06
6.37786e-06
8.82844e-09
6.38098e-06
2.47743e-08
6.38494e-06
3.64443e-08
6.38883e-06
4.38062e-08
6.39254e-06
4.86003e-08
6.39603e-06
5.19254e-08
6.39916e-06
5.4126e-08
6.40189e-06
5.55402e-08
6.40422e-06
5.65497e-08
6.40619e-06
5.7411e-08
6.40782e-06
5.82652e-08
6.40914e-06
5.92037e-08
6.41022e-06
6.02893e-08
6.4111e-06
6.15535e-08
6.41187e-06
6.2994e-08
6.41258e-06
6.45774e-08
6.4133e-06
6.62349e-08
6.78934e-08
6.41405e-06
5.74167e-06
7.9905e-09
5.74404e-06
2.24077e-08
5.74718e-06
3.33005e-08
5.75042e-06
4.0571e-08
5.75355e-06
4.54683e-08
5.75653e-06
4.89498e-08
5.75925e-06
5.13968e-08
5.76168e-06
5.31135e-08
5.7638e-06
5.44275e-08
5.76564e-06
5.55752e-08
5.76721e-06
5.66925e-08
5.76855e-06
5.78637e-08
5.7697e-06
5.91427e-08
5.7707e-06
6.05541e-08
5.7716e-06
6.20922e-08
5.77245e-06
6.37258e-08
5.77329e-06
6.53977e-08
6.70603e-08
5.77412e-06
6.99905e-06
7.09987e-09
7.00153e-06
1.9919e-08
7.00492e-06
2.99117e-08
7.00854e-06
3.6953e-08
7.01212e-06
4.18847e-08
7.01558e-06
4.54936e-08
7.01881e-06
4.81687e-08
7.02174e-06
5.01819e-08
7.02436e-06
5.18056e-08
7.02669e-06
5.32491e-08
7.02874e-06
5.4639e-08
7.03056e-06
5.6051e-08
7.03217e-06
5.75303e-08
7.03363e-06
5.90956e-08
7.03498e-06
6.07402e-08
7.03627e-06
6.24379e-08
7.03752e-06
6.41441e-08
6.58341e-08
7.03875e-06
8.53178e-06
6.16383e-09
8.53437e-06
1.73278e-08
8.53799e-06
2.62938e-08
8.542e-06
3.29419e-08
8.54608e-06
3.78048e-08
8.55009e-06
4.14852e-08
8.55391e-06
4.43457e-08
8.55747e-06
4.66261e-08
8.56073e-06
4.85449e-08
8.5637e-06
5.02775e-08
8.56641e-06
5.19362e-08
8.56887e-06
5.35865e-08
8.57113e-06
5.52653e-08
8.57324e-06
5.69863e-08
8.57524e-06
5.87436e-08
8.57716e-06
6.05174e-08
8.57903e-06
6.22742e-08
6.40074e-08
8.58086e-06
1.04002e-05
5.18797e-09
1.04029e-05
1.46366e-08
1.04067e-05
2.24402e-08
1.04112e-05
2.85085e-08
1.04158e-05
3.31602e-08
1.04205e-05
3.68205e-08
1.0425e-05
3.97934e-08
1.04294e-05
4.22816e-08
1.04335e-05
4.44535e-08
1.04373e-05
4.64459e-08
1.04409e-05
4.83507e-08
1.04443e-05
5.02218e-08
1.04474e-05
5.20872e-08
1.04505e-05
5.39567e-08
1.04534e-05
5.58255e-08
1.04562e-05
5.76791e-08
1.0459e-05
5.94928e-08
6.12726e-08
1.04617e-05
1.26778e-05
4.16798e-09
1.26806e-05
1.1808e-08
1.26848e-05
1.82948e-08
1.26897e-05
2.3575e-08
1.2695e-05
2.78303e-08
1.27005e-05
3.13334e-08
1.2706e-05
3.43076e-08
1.27114e-05
3.6909e-08
1.27166e-05
3.92582e-08
1.27216e-05
4.14517e-08
1.27264e-05
4.35559e-08
1.2731e-05
4.56099e-08
1.27354e-05
4.76325e-08
1.27398e-05
4.96289e-08
1.2744e-05
5.15942e-08
1.27482e-05
5.35175e-08
1.27523e-05
5.53792e-08
5.71931e-08
1.27564e-05
1.54543e-05
3.0754e-09
1.54573e-05
8.7413e-09
1.54619e-05
1.37085e-08
1.54675e-05
1.79577e-08
1.54738e-05
2.1586e-08
1.54804e-05
2.47436e-08
1.54871e-05
2.75643e-08
1.54939e-05
3.01453e-08
1.55006e-05
3.25594e-08
1.55072e-05
3.48621e-08
1.55136e-05
3.70907e-08
1.552e-05
3.92658e-08
1.55262e-05
4.13953e-08
1.55324e-05
4.3478e-08
1.55385e-05
4.55068e-08
1.55445e-05
4.74718e-08
1.55505e-05
4.93558e-08
5.11759e-08
1.55565e-05
1.88389e-05
1.83886e-09
1.88424e-05
5.22571e-09
1.88477e-05
8.36658e-09
1.88544e-05
1.12745e-08
1.8862e-05
1.39918e-08
1.88702e-05
1.65659e-08
1.88787e-05
1.90348e-08
1.88874e-05
2.14265e-08
1.88962e-05
2.37615e-08
1.8905e-05
2.60528e-08
1.89138e-05
2.83052e-08
1.89226e-05
3.05174e-08
1.89313e-05
3.26833e-08
1.894e-05
3.47936e-08
1.89486e-05
3.68369e-08
1.89573e-05
3.88019e-08
1.8966e-05
4.06721e-08
4.24646e-08
1.89747e-05
2.29649e-05
2.96704e-10
2.29693e-05
8.36987e-10
2.2976e-05
1.64077e-09
2.29845e-05
2.77227e-09
2.29943e-05
4.23225e-09
2.30049e-05
5.94868e-09
2.30161e-05
7.84048e-09
2.30276e-05
9.85551e-09
2.30394e-05
1.19573e-08
2.30514e-05
1.41098e-08
2.30634e-05
1.62794e-08
2.30755e-05
1.84384e-08
2.30876e-05
2.05647e-08
2.30998e-05
2.26392e-08
2.3112e-05
2.46448e-08
2.31242e-05
2.65672e-08
2.31365e-05
2.83898e-08
3.0127e-08
2.31488e-05
1.6812e-05
-9.79447e-10
1.68156e-05
-2.75422e-09
1.68211e-05
-3.86823e-09
1.6828e-05
-4.1582e-09
1.68359e-05
-3.65775e-09
1.68444e-05
-2.589e-09
1.68534e-05
-1.14574e-09
1.68627e-05
5.68766e-10
1.68722e-05
2.47901e-09
1.68818e-05
4.50945e-09
1.68915e-05
6.59713e-09
1.69012e-05
8.69753e-09
1.6911e-05
1.07783e-08
1.69208e-05
1.28137e-08
1.69307e-05
1.47828e-08
1.69406e-05
1.66697e-08
1.69505e-05
1.84582e-08
2.01597e-08
1.69605e-05
1.46358e-05
-2.23438e-09
1.46394e-05
-6.32236e-09
1.46449e-05
-9.35827e-09
1.46517e-05
-1.09602e-08
1.46593e-05
-1.12619e-08
1.46674e-05
-1.07281e-08
1.46759e-05
-9.6526e-09
1.46847e-05
-8.16576e-09
1.46935e-05
-6.38864e-09
1.47025e-05
-4.44216e-09
1.47115e-05
-2.41268e-09
1.47205e-05
-3.54484e-10
1.47296e-05
1.69352e-09
1.47387e-05
3.70068e-09
1.47479e-05
5.64366e-09
1.47571e-05
7.50601e-09
1.47662e-05
9.27266e-09
1.09525e-08
1.47754e-05
1.27413e-05
-3.43113e-09
1.2745e-05
-9.9529e-09
1.27506e-05
-1.49997e-08
1.27573e-05
-1.76962e-08
1.27646e-05
-1.85731e-08
1.27724e-05
-1.8467e-08
1.27804e-05
-1.76745e-08
1.27886e-05
-1.632e-08
1.27968e-05
-1.45966e-08
1.2805e-05
-1.26798e-08
1.28133e-05
-1.06707e-08
1.28215e-05
-8.62643e-09
1.28298e-05
-6.58981e-09
1.28381e-05
-4.59425e-09
1.28464e-05
-2.66343e-09
1.28547e-05
-8.12799e-10
1.28631e-05
9.44715e-10
2.61634e-09
1.28714e-05
1.10919e-05
-4.45113e-09
1.10957e-05
-1.36814e-08
1.11016e-05
-2.09561e-08
1.11083e-05
-2.43867e-08
1.11153e-05
-2.55675e-08
1.11226e-05
-2.57803e-08
1.11301e-05
-2.51665e-08
1.11376e-05
-2.38446e-08
1.11452e-05
-2.21081e-08
1.11527e-05
-2.01763e-08
1.11601e-05
-1.81519e-08
1.11676e-05
-1.60923e-08
1.11751e-05
-1.40444e-08
1.11825e-05
-1.20428e-08
1.119e-05
-1.01096e-08
1.11974e-05
-8.25808e-09
1.12048e-05
-6.49863e-09
-4.82506e-09
1.12123e-05
9.65596e-06
-5.19773e-09
9.65987e-06
-1.75859e-08
9.66608e-06
-2.71727e-08
9.67261e-06
-3.0915e-08
9.67932e-06
-3.22785e-08
9.68625e-06
-3.27092e-08
9.6932e-06
-3.2111e-08
9.70006e-06
-3.07058e-08
9.70685e-06
-2.89022e-08
9.7136e-06
-2.69251e-08
9.72031e-06
-2.48589e-08
9.72697e-06
-2.27603e-08
9.73361e-06
-2.06798e-08
9.74022e-06
-1.86527e-08
9.74681e-06
-1.66989e-08
9.75338e-06
-1.48296e-08
9.75993e-06
-1.30519e-08
-1.13589e-08
9.76647e-06
8.40555e-06
-5.39572e-09
8.41027e-06
-2.23093e-08
8.41634e-06
-3.32357e-08
8.42229e-06
-3.68695e-08
8.42869e-06
-3.86794e-08
8.43533e-06
-3.93479e-08
8.44184e-06
-3.86217e-08
8.44815e-06
-3.70172e-08
8.45432e-06
-3.50705e-08
8.46038e-06
-3.29841e-08
8.46634e-06
-3.08192e-08
8.47221e-06
-2.86324e-08
8.47801e-06
-2.6476e-08
8.48374e-06
-2.43836e-08
8.48941e-06
-2.23736e-08
8.49504e-06
-2.04561e-08
8.50063e-06
-1.86363e-08
-1.69089e-08
8.50618e-06
7.31515e-06
-3.26048e-09
7.32235e-06
-2.95081e-08
7.3283e-06
-3.91885e-08
7.33375e-06
-4.23164e-08
7.33992e-06
-4.48533e-08
7.34632e-06
-4.57487e-08
7.35248e-06
-4.47791e-08
7.35832e-06
-4.2862e-08
7.3639e-06
-4.0643e-08
7.36922e-06
-3.83034e-08
7.3743e-06
-3.59058e-08
7.37919e-06
-3.35169e-08
7.3839e-06
-3.11899e-08
7.38847e-06
-2.89544e-08
7.39292e-06
-2.68257e-08
7.39728e-06
-2.48116e-08
7.40156e-06
-2.29128e-08
-2.11227e-08
7.40577e-06
6.36229e-06
4.51462e-09
6.37329e-06
-4.05036e-08
6.38085e-06
-4.6749e-08
6.38762e-06
-4.90851e-08
6.39433e-06
-5.15699e-08
6.4005e-06
-5.19142e-08
6.40588e-06
-5.01609e-08
6.41062e-06
-4.76066e-08
6.41484e-06
-4.48637e-08
6.41859e-06
-4.20475e-08
6.42191e-06
-3.92277e-08
6.42488e-06
-3.64844e-08
6.42756e-06
-3.38687e-08
6.43001e-06
-3.1403e-08
6.43228e-06
-2.90965e-08
6.43442e-06
-2.69523e-08
6.43647e-06
-2.49646e-08
-2.31131e-08
6.43846e-06
5.53628e-06
1.3699e-08
5.54809e-06
-5.23138e-08
5.55809e-06
-5.67444e-08
5.56709e-06
-5.80935e-08
5.57445e-06
-5.89285e-08
5.57959e-06
-5.70475e-08
5.58258e-06
-5.31516e-08
5.58398e-06
-4.90134e-08
5.58423e-06
-4.51116e-08
5.5836e-06
-4.14201e-08
5.58232e-06
-3.79475e-08
5.58057e-06
-3.4732e-08
5.57849e-06
-3.17886e-08
5.5762e-06
-2.91103e-08
5.57379e-06
-2.66845e-08
5.57134e-06
-2.45091e-08
5.56895e-06
-2.2576e-08
-2.08167e-08
5.56666e-06
4.85768e-06
-1.63708e-08
4.8612e-06
-5.58388e-08
4.86197e-06
-5.75119e-08
4.8596e-06
-5.57273e-08
4.85594e-06
-5.52681e-08
4.84978e-06
-5.08794e-08
4.84118e-06
-4.45588e-08
4.83073e-06
-3.85656e-08
4.81907e-06
-3.34447e-08
4.80677e-06
-2.91209e-08
4.79428e-06
-2.54599e-08
4.78191e-06
-2.23596e-08
4.76985e-06
-1.97295e-08
4.75823e-06
-1.74917e-08
4.74713e-06
-1.55842e-08
4.73662e-06
-1.39979e-08
4.7268e-06
-1.27617e-08
-1.23787e-08
4.71837e-06
4.18631e-06
4.13047e-06
4.07295e-06
4.01723e-06
3.96196e-06
3.91108e-06
3.86652e-06
3.82796e-06
3.79451e-06
3.76539e-06
3.73993e-06
3.71757e-06
3.69784e-06
3.68035e-06
3.66476e-06
3.65077e-06
3.63801e-06
3.62563e-06
6.14892e-08
-6.14892e-08
2.1112e-07
-1.49631e-07
4.06766e-07
-1.95646e-07
6.17457e-07
-2.10691e-07
8.25604e-07
-2.08147e-07
1.02123e-06
-1.95621e-07
1.19839e-06
-1.77164e-07
1.3535e-06
-1.55107e-07
1.4843e-06
-1.30799e-07
1.58923e-06
-1.04938e-07
1.66698e-06
-7.77455e-08
1.71609e-06
-4.91148e-08
1.73517e-06
-1.90722e-08
1.72085e-06
1.43196e-08
1.67004e-06
5.08078e-08
1.58562e-06
8.44176e-08
1.47224e-06
1.13387e-07
1.33743e-06
1.34809e-07
1.19187e-06
1.4556e-07
1.04807e-06
1.43794e-07
9.18535e-07
1.29537e-07
8.1216e-07
1.06375e-07
7.30686e-07
8.14738e-08
6.67717e-07
6.297e-08
6.11073e-07
5.66439e-08
5.46877e-07
6.41959e-08
4.63238e-07
8.36388e-08
3.51814e-07
1.11424e-07
2.07085e-07
1.44729e-07
2.5328e-08
1.81757e-07
-1.9674e-07
2.22068e-07
-4.5962e-07
2.6288e-07
-7.58794e-07
2.99174e-07
-1.08624e-06
3.27442e-07
-1.43198e-06
3.45745e-07
-1.78565e-06
3.53667e-07
-2.13761e-06
3.51963e-07
-2.47975e-06
3.42137e-07
-2.80581e-06
3.26061e-07
-3.11148e-06
3.05675e-07
-3.39426e-06
2.82773e-07
-3.65313e-06
2.58876e-07
-3.8883e-06
2.3517e-07
-4.10082e-06
2.12516e-07
-4.29229e-06
1.91475e-07
-4.46465e-06
1.72358e-07
-4.61993e-06
1.5528e-07
-4.76015e-06
1.4022e-07
-4.88722e-06
1.27068e-07
-5.00288e-06
1.15662e-07
-5.1087e-06
1.05818e-07
-5.20604e-06
9.73441e-08
-5.2961e-06
9.00594e-08
-5.3799e-06
8.3795e-08
-5.45829e-06
7.83995e-08
-5.53203e-06
7.37395e-08
-5.60173e-06
6.96993e-08
-5.66791e-06
6.61787e-08
-5.731e-06
6.30918e-08
-5.79137e-06
6.03643e-08
-5.8493e-06
5.79322e-08
-5.90504e-06
5.57398e-08
-5.95878e-06
5.37385e-08
-6.01066e-06
5.18849e-08
-6.0608e-06
5.01404e-08
-6.10927e-06
4.84697e-08
-6.15611e-06
4.68402e-08
-6.20134e-06
4.52215e-08
-6.24492e-06
4.35844e-08
-6.28682e-06
4.19002e-08
-6.32696e-06
4.01412e-08
-6.36524e-06
3.82786e-08
-6.40152e-06
3.62836e-08
-6.43565e-06
3.41261e-08
-6.46742e-06
3.17749e-08
-6.49662e-06
2.91975e-08
-6.52298e-06
2.63592e-08
-6.5462e-06
2.3223e-08
-6.56596e-06
1.97529e-08
-6.58187e-06
1.59128e-08
-6.59356e-06
1.16854e-08
-6.60067e-06
7.11897e-09
-6.60295e-06
2.27388e-09
-6.60063e-06
-2.31527e-09
-6.59378e-06
-6.8503e-09
-6.58221e-06
-1.15769e-08
-6.56557e-06
-1.66399e-08
-6.54345e-06
-2.21186e-08
-6.51537e-06
-2.80732e-08
-6.48081e-06
-3.45611e-08
-6.43917e-06
-4.16416e-08
-6.38979e-06
-4.93774e-08
-6.33196e-06
-5.78359e-08
-6.26487e-06
-6.70882e-08
-6.18766e-06
-7.72093e-08
-6.09938e-06
-8.82766e-08
-5.99902e-06
-1.00368e-07
-5.88546e-06
-1.13557e-07
-5.75755e-06
-1.27914e-07
-5.61405e-06
-1.43491e-07
-5.45373e-06
-1.60325e-07
-5.27531e-06
-1.78419e-07
-5.07758e-06
-1.97735e-07
-4.85939e-06
-2.18182e-07
-4.6198e-06
-2.39597e-07
-4.35806e-06
-2.61733e-07
-4.07381e-06
-2.8425e-07
-3.76711e-06
-3.06703e-07
-3.43857e-06
-3.28544e-07
-3.08943e-06
-3.49132e-07
-2.72167e-06
-3.67768e-07
-2.33794e-06
-3.83724e-07
-1.94165e-06
-3.96296e-07
-1.53681e-06
-4.04833e-07
-1.12807e-06
-4.08749e-07
-7.20586e-07
-4.0748e-07
-3.19777e-07
-4.00809e-07
7.10865e-08
-3.90864e-07
4.48734e-07
-3.77647e-07
8.09666e-07
-3.60933e-07
1.15135e-06
-3.41686e-07
1.47209e-06
-3.20736e-07
1.77089e-06
-2.988e-07
2.04738e-06
-2.76493e-07
2.3017e-06
-2.54319e-07
2.53437e-06
-2.32668e-07
2.74619e-06
-2.11824e-07
2.93817e-06
-1.91976e-07
3.11141e-06
-1.73236e-07
3.26706e-06
-1.55654e-07
3.40629e-06
-1.39232e-07
3.53024e-06
-1.23943e-07
3.63997e-06
-1.09739e-07
3.73653e-06
-9.65603e-08
3.82088e-06
-8.43427e-08
3.8939e-06
-7.30226e-08
3.95644e-06
-6.25394e-08
4.00928e-06
-5.28365e-08
4.05314e-06
-4.38627e-08
4.08871e-06
-3.55747e-08
4.11663e-06
-2.79162e-08
4.13745e-06
-2.08229e-08
4.15177e-06
-1.43192e-08
4.15965e-06
-7.87952e-09
4.1604e-06
-7.51265e-10
4.15328e-06
7.1274e-09
4.14e-06
1.32712e-08
4.12198e-06
1.80274e-08
4.10037e-06
2.16043e-08
4.07612e-06
2.42569e-08
4.04992e-06
2.61953e-08
4.02234e-06
2.75792e-08
3.99381e-06
2.85322e-08
3.96466e-06
2.91485e-08
3.93516e-06
2.94991e-08
3.90552e-06
2.9639e-08
3.87591e-06
2.96128e-08
3.84645e-06
2.94582e-08
3.81724e-06
2.92085e-08
3.78835e-06
2.88941e-08
3.7598e-06
2.8544e-08
3.73162e-06
2.8186e-08
3.70377e-06
2.78484e-08
3.67621e-06
2.75608e-08
3.64885e-06
2.73564e-08
3.62158e-06
2.72733e-08
3.59422e-06
2.73584e-08
3.56655e-06
2.76715e-08
3.53826e-06
2.82914e-08
3.50893e-06
2.9325e-08
3.47801e-06
3.09225e-08
3.44471e-06
3.3301e-08
3.40792e-06
3.67851e-08
3.36605e-06
4.18743e-08
3.31666e-06
4.93885e-08
3.25603e-06
6.06344e-08
3.17765e-06
7.83733e-08
3.07212e-06
1.05536e-07
2.91228e-06
1.59841e-07
2.23342e-07
2.68893e-06
1.93078e-07
-2.54567e-07
4.00456e-07
-3.57009e-07
5.89388e-07
-3.84578e-07
7.60051e-07
-3.81354e-07
9.13139e-07
-3.61235e-07
1.04877e-06
-3.31255e-07
1.16694e-06
-2.95337e-07
1.26752e-06
-2.55678e-07
1.35026e-06
-2.13544e-07
1.41502e-06
-1.697e-07
1.4619e-06
-1.24626e-07
1.49143e-06
-7.8638e-08
1.50419e-06
-3.18347e-08
1.5022e-06
1.63048e-08
1.48707e-06
6.59372e-08
1.45464e-06
1.1685e-07
1.40115e-06
1.66881e-07
1.32354e-06
2.12422e-07
1.2206e-06
2.48498e-07
1.09453e-06
2.69864e-07
9.5056e-07
2.73504e-07
7.9475e-07
2.62186e-07
6.30482e-07
2.45741e-07
4.56532e-07
2.3692e-07
2.67743e-07
2.45433e-07
5.71582e-08
2.74781e-07
-1.81959e-07
3.22756e-07
-4.54629e-07
3.84093e-07
-7.62309e-07
4.52409e-07
-1.10151e-06
5.20962e-07
-1.46252e-06
5.83072e-07
-1.83245e-06
6.32808e-07
-2.19914e-06
6.65868e-07
-2.55202e-06
6.80322e-07
-2.88295e-06
6.76672e-07
-3.18656e-06
6.57278e-07
-3.46018e-06
6.25587e-07
-3.70345e-06
5.85405e-07
-3.91774e-06
5.40355e-07
-4.10559e-06
4.93524e-07
-4.27013e-06
4.47305e-07
-4.41464e-06
4.03386e-07
-4.54229e-06
3.62823e-07
-4.65593e-06
3.26158e-07
-4.75801e-06
2.93557e-07
-4.85058e-06
2.64922e-07
-4.93529e-06
2.39993e-07
-5.0135e-06
2.18426e-07
-5.08627e-06
1.99839e-07
-5.15446e-06
1.83856e-07
-5.21876e-06
1.70118e-07
-5.27972e-06
1.58303e-07
-5.33779e-06
1.48124e-07
-5.39332e-06
1.3933e-07
-5.44663e-06
1.31704e-07
-5.49795e-06
1.2506e-07
-5.54749e-06
1.19239e-07
-5.59541e-06
1.14104e-07
-5.64186e-06
1.09536e-07
-5.68692e-06
1.05432e-07
-5.7307e-06
1.01704e-07
-5.77323e-06
9.82737e-08
-5.81456e-06
9.50701e-08
-5.85471e-06
9.2031e-08
-5.89367e-06
8.90998e-08
-5.93142e-06
8.62246e-08
-5.96794e-06
8.33573e-08
-6.00317e-06
8.04533e-08
-6.03706e-06
7.74704e-08
-6.06953e-06
7.43689e-08
-6.1005e-06
7.11108e-08
-6.12988e-06
6.76599e-08
-6.15757e-06
6.39816e-08
-6.18349e-06
6.00426e-08
-6.20753e-06
5.58119e-08
-6.22959e-06
5.126e-08
-6.24959e-06
4.63602e-08
-6.26746e-06
4.10889e-08
-6.28313e-06
3.54279e-08
-6.29659e-06
2.93652e-08
-6.3078e-06
2.28981e-08
-6.31669e-06
1.60155e-08
-6.32309e-06
8.67092e-09
-6.32616e-06
7.5187e-10
-6.32512e-06
-7.8888e-09
-6.31943e-06
-1.72716e-08
-6.3086e-06
-2.74624e-08
-6.29217e-06
-3.85464e-08
-6.26963e-06
-5.06169e-08
-6.24042e-06
-6.37748e-08
-6.20393e-06
-7.81291e-08
-6.15951e-06
-9.37975e-08
-6.10644e-06
-1.10907e-07
-6.04394e-06
-1.29592e-07
-5.97115e-06
-1.49996e-07
-5.88716e-06
-1.72267e-07
-5.79097e-06
-1.96555e-07
-5.68153e-06
-2.23003e-07
-5.55769e-06
-2.51744e-07
-5.4183e-06
-2.82887e-07
-5.26212e-06
-3.16501e-07
-5.08794e-06
-3.52598e-07
-4.89457e-06
-3.91108e-07
-4.6809e-06
-4.31855e-07
-4.44597e-06
-4.74527e-07
-4.18906e-06
-5.18643e-07
-3.90977e-06
-5.63536e-07
-3.60814e-06
-6.08331e-07
-3.28474e-06
-6.51949e-07
-2.94074e-06
-6.93125e-07
-2.57804e-06
-7.30469e-07
-2.19923e-06
-7.6254e-07
-1.80757e-06
-7.8795e-07
-1.40693e-06
-8.05475e-07
-1.00153e-06
-8.14151e-07
-5.95611e-07
-8.13397e-07
-1.93049e-07
-8.03371e-07
2.0109e-07
-7.85002e-07
5.82313e-07
-7.5887e-07
9.47629e-07
-7.26249e-07
1.29462e-06
-6.88672e-07
1.62155e-06
-6.47675e-07
1.92742e-06
-6.04662e-07
2.21178e-06
-5.60852e-07
2.47471e-06
-5.17249e-07
2.71667e-06
-4.74633e-07
2.93842e-06
-4.33571e-07
3.14088e-06
-3.94443e-07
3.32512e-06
-3.57469e-07
3.49221e-06
-3.22752e-07
3.64328e-06
-2.90299e-07
3.7794e-06
-2.60058e-07
3.90159e-06
-2.31935e-07
4.01085e-06
-2.05815e-07
4.10807e-06
-1.81571e-07
4.19413e-06
-1.59078e-07
4.26981e-06
-1.38217e-07
4.33585e-06
-1.18874e-07
4.39293e-06
-1.00948e-07
4.4417e-06
-8.43468e-08
4.48277e-06
-6.89798e-08
4.5167e-06
-5.47565e-08
4.54398e-06
-4.1603e-08
4.56555e-06
-2.94506e-08
4.58301e-06
-1.82021e-08
4.5975e-06
-7.37096e-09
4.6083e-06
2.47097e-09
4.61501e-06
1.13164e-08
4.61759e-06
1.90339e-08
4.61619e-06
2.56477e-08
4.61115e-06
3.1235e-08
4.60285e-06
3.58827e-08
4.5917e-06
3.96872e-08
4.5781e-06
4.27441e-08
4.56246e-06
4.51419e-08
4.54513e-06
4.69628e-08
4.52646e-06
4.82827e-08
4.50675e-06
4.91729e-08
4.48626e-06
4.97e-08
4.46522e-06
4.99275e-08
4.44385e-06
4.99165e-08
4.42231e-06
4.97266e-08
4.40074e-06
4.94175e-08
4.37925e-06
4.905e-08
4.35792e-06
4.86886e-08
4.33679e-06
4.84047e-08
4.31587e-06
4.82808e-08
4.29512e-06
4.8417e-08
4.27447e-06
4.89391e-08
4.25379e-06
5.00131e-08
4.23284e-06
5.1864e-08
4.21134e-06
5.48079e-08
4.18881e-06
5.93087e-08
4.16463e-06
6.60543e-08
4.13784e-06
7.61842e-08
4.10711e-06
9.13663e-08
4.07004e-06
1.15443e-07
4.02362e-06
1.51951e-07
3.96082e-06
2.22647e-07
3.22395e-07
3.86176e-06
1.99109e-07
-4.53676e-07
3.88873e-07
-5.46774e-07
5.46071e-07
-5.41776e-07
6.77552e-07
-5.12835e-07
7.89293e-07
-4.72975e-07
8.84614e-07
-4.26576e-07
9.6508e-07
-3.75803e-07
1.03122e-06
-3.21814e-07
1.08297e-06
-2.65297e-07
1.12001e-06
-2.06746e-07
1.14197e-06
-1.46583e-07
1.14854e-06
-8.52046e-08
1.13969e-06
-2.29852e-08
1.11602e-06
3.99707e-08
1.07831e-06
1.03649e-07
1.02727e-06
1.67892e-07
9.62548e-07
2.31602e-07
8.8276e-07
2.9221e-07
7.85764e-07
3.45494e-07
6.69043e-07
3.86586e-07
5.29644e-07
4.12903e-07
3.64079e-07
4.27751e-07
1.68911e-07
4.40909e-07
-5.78427e-08
4.63674e-07
-3.15988e-07
5.03578e-07
-6.03338e-07
5.62131e-07
-9.15725e-07
6.35143e-07
-1.2463e-06
7.14665e-07
-1.58531e-06
7.91422e-07
-1.92109e-06
8.56741e-07
-2.24199e-06
9.03974e-07
-2.53857e-06
9.2939e-07
-2.80505e-06
9.32348e-07
-3.03951e-06
9.14783e-07
-3.24319e-06
8.80344e-07
-3.41936e-06
8.33453e-07
-3.57232e-06
7.78551e-07
-3.70651e-06
7.19587e-07
-3.82591e-06
6.59763e-07
-3.93386e-06
6.01468e-07
-4.03289e-06
5.46333e-07
-4.12485e-06
4.95351e-07
-4.21105e-06
4.4902e-07
-4.29236e-06
4.07468e-07
-4.36938e-06
3.70577e-07
-4.44253e-06
3.3807e-07
-4.51212e-06
3.09583e-07
-4.5784e-06
2.84712e-07
-4.64161e-06
2.63049e-07
-4.70196e-06
2.44204e-07
-4.75965e-06
2.27812e-07
-4.81489e-06
2.13544e-07
-4.86788e-06
2.01108e-07
-4.91879e-06
1.90243e-07
-4.96781e-06
1.80723e-07
-5.0151e-06
1.72347e-07
-5.0608e-06
1.64943e-07
-5.10505e-06
1.58358e-07
-5.14798e-06
1.52457e-07
-5.18967e-06
1.47124e-07
-5.23022e-06
1.42253e-07
-5.26969e-06
1.3775e-07
-5.30815e-06
1.3353e-07
-5.34564e-06
1.29518e-07
-5.38218e-06
1.25641e-07
-5.41779e-06
1.21837e-07
-5.45248e-06
1.18045e-07
-5.48624e-06
1.14207e-07
-5.51904e-06
1.10273e-07
-5.55086e-06
1.0619e-07
-5.58166e-06
1.0191e-07
-5.61139e-06
9.73883e-08
-5.63998e-06
9.25786e-08
-5.66738e-06
8.74374e-08
-5.69349e-06
8.19215e-08
-5.71822e-06
7.59882e-08
-5.74145e-06
6.95937e-08
-5.76305e-06
6.26931e-08
-5.78286e-06
5.52384e-08
-5.80068e-06
4.71768e-08
-5.81623e-06
3.8448e-08
-5.82918e-06
2.89739e-08
-5.83916e-06
1.86512e-08
-5.84577e-06
7.35602e-09
-5.84865e-06
-5.00918e-09
-5.84738e-06
-1.85354e-08
-5.84153e-06
-3.3315e-08
-5.83062e-06
-4.94613e-08
-5.81413e-06
-6.71053e-08
-5.79151e-06
-8.63926e-08
-5.76216e-06
-1.07483e-07
-5.72541e-06
-1.30548e-07
-5.68054e-06
-1.55777e-07
-5.62676e-06
-1.83367e-07
-5.56323e-06
-2.13531e-07
-5.48901e-06
-2.46487e-07
-5.4031e-06
-2.82458e-07
-5.30445e-06
-3.21659e-07
-5.1919e-06
-3.6429e-07
-5.06427e-06
-4.10519e-07
-4.92032e-06
-4.60456e-07
-4.75878e-06
-5.14133e-07
-4.57842e-06
-5.71464e-07
-4.37807e-06
-6.32206e-07
-4.15668e-06
-6.95916e-07
-3.91342e-06
-7.61904e-07
-3.64777e-06
-8.29194e-07
-3.3596e-06
-8.965e-07
-3.04933e-06
-9.62216e-07
-2.718e-06
-1.02445e-06
-2.36735e-06
-1.08111e-06
-1.99988e-06
-1.13002e-06
-1.61877e-06
-1.16906e-06
-1.22783e-06
-1.19641e-06
-8.31251e-07
-1.21073e-06
-4.33311e-07
-1.21134e-06
-3.84065e-08
-1.19828e-06
3.48549e-07
-1.17196e-06
7.23416e-07
-1.13374e-06
1.083e-06
-1.08583e-06
1.42483e-06
-1.0305e-06
1.74718e-06
-9.70029e-07
2.04903e-06
-9.06509e-07
2.32995e-06
-8.41775e-07
2.59004e-06
-7.77332e-07
2.82975e-06
-7.14344e-07
3.04983e-06
-6.53652e-07
3.2512e-06
-5.95816e-07
3.43489e-06
-5.41161e-07
3.60197e-06
-4.89832e-07
3.75352e-06
-4.4184e-07
3.89056e-06
-3.97104e-07
4.01411e-06
-3.55485e-07
4.12511e-06
-3.16811e-07
4.22443e-06
-2.80897e-07
4.31291e-06
-2.47558e-07
4.39131e-06
-2.16614e-07
4.46034e-06
-1.87902e-07
4.52066e-06
-1.61271e-07
4.5729e-06
-1.36584e-07
4.61764e-06
-1.13717e-07
4.65544e-06
-9.25562e-08
4.68682e-06
-7.29885e-08
4.71232e-06
-5.49475e-08
4.73251e-06
-3.83988e-08
4.74829e-06
-2.31493e-08
4.76004e-06
-9.27078e-09
4.76804e-06
3.3072e-09
4.77253e-06
1.45452e-08
4.77372e-06
2.44639e-08
4.77184e-06
3.311e-08
4.76718e-06
4.05482e-08
4.76001e-06
4.68569e-08
4.75063e-06
5.21212e-08
4.73934e-06
5.64289e-08
4.72644e-06
5.98681e-08
4.71219e-06
6.25268e-08
4.69687e-06
6.44918e-08
4.68073e-06
6.58486e-08
4.66397e-06
6.66816e-08
4.64681e-06
6.70744e-08
4.62943e-06
6.71105e-08
4.61197e-06
6.68743e-08
4.59457e-06
6.6453e-08
4.57732e-06
6.59389e-08
4.56029e-06
6.54335e-08
4.54352e-06
6.50527e-08
4.527e-06
6.49347e-08
4.51069e-06
6.52508e-08
4.49448e-06
6.62219e-08
4.4782e-06
6.81431e-08
4.46159e-06
7.14205e-08
4.44426e-06
7.66362e-08
4.42568e-06
8.46369e-08
4.40509e-06
9.67708e-08
4.38146e-06
1.15e-07
4.35356e-06
1.43342e-07
4.31931e-06
1.86196e-07
4.28152e-06
2.60445e-07
3.67974e-07
4.23594e-06
1.65623e-07
-6.19299e-07
3.0253e-07
-6.83681e-07
4.12868e-07
-6.52114e-07
5.04531e-07
-6.04499e-07
5.81849e-07
-5.50293e-07
6.46886e-07
-4.91613e-07
7.00376e-07
-4.29293e-07
7.42313e-07
-3.63751e-07
7.72282e-07
-2.95267e-07
7.89666e-07
-2.2413e-07
7.93775e-07
-1.50692e-07
7.83947e-07
-7.53772e-08
7.59652e-07
1.31019e-09
7.20663e-07
7.89594e-08
6.67179e-07
1.57133e-07
5.99717e-07
2.35354e-07
5.18695e-07
3.12625e-07
4.23917e-07
3.86987e-07
3.13971e-07
4.5544e-07
1.85499e-07
5.15058e-07
3.30415e-08
5.65361e-07
-1.49469e-07
6.10261e-07
-3.65759e-07
6.57199e-07
-6.15144e-07
7.13059e-07
-8.9239e-07
7.80824e-07
-1.18856e-06
8.58305e-07
-1.49226e-06
9.38842e-07
-1.79108e-06
1.01348e-06
-2.07325e-06
1.07359e-06
-2.32951e-06
1.113e-06
-2.55444e-06
1.12891e-06
-2.74684e-06
1.12179e-06
-2.90899e-06
1.0945e-06
-3.04547e-06
1.05125e-06
-3.16172e-06
9.966e-07
-3.26309e-06
9.34818e-07
-3.35408e-06
8.69547e-07
-3.43816e-06
8.03667e-07
-3.51771e-06
7.39314e-07
-3.59422e-06
6.77974e-07
-3.66848e-06
6.20595e-07
-3.74084e-06
5.67708e-07
-3.81134e-06
5.19525e-07
-3.87991e-06
4.76034e-07
-3.9464e-06
4.37064e-07
-4.01067e-06
4.02345e-07
-4.07264e-06
3.7155e-07
-4.13225e-06
3.44324e-07
-4.18951e-06
3.20309e-07
-4.24446e-06
2.99158e-07
-4.29719e-06
2.80542e-07
-4.34781e-06
2.64157e-07
-4.39643e-06
2.49728e-07
-4.44319e-06
2.37004e-07
-4.48823e-06
2.2576e-07
-4.53168e-06
2.15797e-07
-4.57367e-06
2.06933e-07
-4.61432e-06
1.9901e-07
-4.65375e-06
1.91883e-07
-4.69204e-06
1.85423e-07
-4.7293e-06
1.79513e-07
-4.7656e-06
1.74047e-07
-4.801e-06
1.68929e-07
-4.83555e-06
1.64069e-07
-4.8693e-06
1.59385e-07
-4.90226e-06
1.548e-07
-4.93446e-06
1.50244e-07
-4.9659e-06
1.45646e-07
-4.99657e-06
1.40944e-07
-5.02645e-06
1.36074e-07
-5.05552e-06
1.30977e-07
-5.08372e-06
1.25592e-07
-5.111e-06
1.19861e-07
-5.13729e-06
1.13725e-07
-5.16249e-06
1.07124e-07
-5.1865e-06
9.99954e-08
-5.20918e-06
9.22753e-08
-5.23038e-06
8.38934e-08
-5.24992e-06
7.47745e-08
-5.26758e-06
6.48359e-08
-5.28312e-06
5.39852e-08
-5.29626e-06
4.21156e-08
-5.30671e-06
2.91067e-08
-5.31419e-06
1.48312e-08
-5.31837e-06
-8.30665e-10
-5.3189e-06
-1.80059e-08
-5.31538e-06
-3.68309e-08
-5.30738e-06
-5.74573e-08
-5.29443e-06
-8.00575e-08
-5.276e-06
-1.04823e-07
-5.25152e-06
-1.31964e-07
-5.22036e-06
-1.61709e-07
-5.18183e-06
-1.94305e-07
-5.13518e-06
-2.3002e-07
-5.07957e-06
-2.69134e-07
-5.01412e-06
-3.11942e-07
-4.93783e-06
-3.58744e-07
-4.84966e-06
-4.09833e-07
-4.74846e-06
-4.65488e-07
-4.63304e-06
-5.25945e-07
-4.50212e-06
-5.91377e-07
-4.3544e-06
-6.61853e-07
-4.18856e-06
-7.37299e-07
-4.00333e-06
-8.17439e-07
-3.79751e-06
-9.01733e-07
-3.5701e-06
-9.89315e-07
-3.32036e-06
-1.07893e-06
-3.04795e-06
-1.16891e-06
-2.75304e-06
-1.25713e-06
-2.43644e-06
-1.34105e-06
-2.09972e-06
-1.41784e-06
-1.74523e-06
-1.4845e-06
-1.37614e-06
-1.53815e-06
-9.96287e-07
-1.57626e-06
-6.10013e-07
-1.597e-06
-2.2191e-07
-1.59944e-06
1.63079e-07
-1.58326e-06
5.40236e-07
-1.54912e-06
9.05641e-07
-1.49914e-06
1.256e-06
-1.43619e-06
1.58886e-06
-1.36336e-06
1.90254e-06
-1.28371e-06
2.19609e-06
-1.20006e-06
2.46918e-06
-1.11487e-06
2.72197e-06
-1.03013e-06
2.955e-06
-9.47368e-07
3.16903e-06
-8.67682e-07
3.365e-06
-7.91787e-07
3.54393e-06
-7.20094e-07
3.70688e-06