/*--------------------------------*- C++ -*----------------------------------*\
  =========                 |
  \\      /  F ield         | OpenFOAM: The Open Source CFD Toolbox
   \\    /   O peration     | Website:  https://openfoam.org
    \\  /    A nd           | Version:  9
     \\/     M anipulation  |
\*---------------------------------------------------------------------------*/
FoamFile
{
    format      ascii;
    class       volScalarField;
    location    "0.14";
    object      k;
}
// * * * * * * * * * * * * * * * * * * * * * * * * * * * * * * * * * * * * * //

dimensions      [0 2 -2 0 0 0 0];

internalField   nonuniform List<scalar> 
12225
(
0.28314
0.213821
0.166026
0.133733
0.112816
0.100337
0.0940918
0.092338
0.093658
0.0968925
0.101093
0.10702
0.1143
0.122483
0.131429
0.141502
0.154119
0.173438
0.349246
0.324668
0.310068
0.306887
0.314515
0.331477
0.355674
0.384582
0.415571
0.446166
0.473933
0.495919
0.510856
0.518028
0.516596
0.505611
0.481888
0.443923
0.362006
0.348189
0.336013
0.326136
0.318967
0.314531
0.31254
0.312492
0.313746
0.3156
0.317667
0.319598
0.320909
0.321308
0.320693
0.319221
0.317448
0.316665
0.365626
0.355126
0.344959
0.335599
0.327345
0.320309
0.314445
0.309603
0.305595
0.302229
0.299362
0.296923
0.294887
0.293321
0.29244
0.292704
0.294835
0.299445
0.366996
0.358331
0.349775
0.341578
0.33392
0.32691
0.320595
0.314966
0.309972
0.305573
0.301743
0.298492
0.295875
0.294028
0.29321
0.293836
0.296453
0.301324
0.367523
0.359799
0.352267
0.345004
0.338099
0.331632
0.325648
0.320163
0.315189
0.310739
0.306832
0.303515
0.300876
0.299069
0.298336
0.299019
0.301509
0.30585
0.367714
0.360421
0.353457
0.34681
0.340501
0.334561
0.329017
0.323887
0.319191
0.314955
0.311219
0.308041
0.305515
0.303787
0.303059
0.303586
0.305626
0.309116
0.367777
0.360658
0.35397
0.347668
0.341733
0.336164
0.330966
0.326148
0.321723
0.317718
0.31417
0.31114
0.308711
0.307005
0.306179
0.306413
0.307866
0.310449
0.367796
0.360737
0.354161
0.34802
0.342281
0.336926
0.331946
0.327338
0.323109
0.319276
0.31587
0.312939
0.310552
0.308801
0.3078
0.307666
0.308496
0.310206
0.3678
0.360758
0.354218
0.348138
0.342482
0.337226
0.332355
0.327857
0.323733
0.319991
0.316652
0.313751
0.311339
0.30948
0.308253
0.30773
0.30797
0.308902
0.367801
0.360761
0.354228
0.348163
0.342531
0.337307
0.332473
0.328013
0.323923
0.320204
0.316868
0.313939
0.311449
0.309443
0.307968
0.30707
0.306782
0.30705
0.367802
0.36076
0.354224
0.348156
0.342524
0.3373
0.332465
0.328002
0.323903
0.320164
0.316792
0.313798
0.311205
0.309038
0.307328
0.306099
0.305369
0.305098
0.367803
0.36076
0.354218
0.348143
0.342502
0.337267
0.332417
0.327935
0.323809
0.320032
0.316605
0.313533
0.310827
0.308502
0.306575
0.305057
0.303956
0.303243
0.367804
0.36076
0.354213
0.348128
0.342473
0.337221
0.332347
0.327834
0.323668
0.319838
0.31634
0.313172
0.310339
0.307845
0.305695
0.303893
0.302441
0.301317
0.367806
0.360761
0.354208
0.348113
0.342443
0.33717
0.332268
0.327718
0.323503
0.319611
0.316033
0.312761
0.309794
0.307128
0.304763
0.302694
0.300919
0.299426
0.367808
0.360763
0.354206
0.348101
0.342415
0.337118
0.332186
0.327596
0.32333
0.319373
0.315712
0.312337
0.30924
0.306413
0.303849
0.301541
0.299485
0.297675
0.36781
0.360765
0.354204
0.348089
0.342388
0.337069
0.332106
0.327477
0.323162
0.319142
0.315402
0.311931
0.308715
0.305745
0.303011
0.300502
0.298211
0.296142
0.367812
0.360767
0.354202
0.348078
0.342362
0.337023
0.332033
0.327368
0.323007
0.318931
0.315124
0.311569
0.308255
0.305167
0.302293
0.299623
0.297149
0.294878
0.367812
0.360766
0.354196
0.348065
0.342336
0.336979
0.331966
0.327271
0.322873
0.318752
0.314891
0.311273
0.307883
0.304707
0.301733
0.298947
0.296343
0.293931
0.367811
0.360763
0.35419
0.348052
0.342315
0.336946
0.331917
0.327204
0.322783
0.318635
0.314742
0.311085
0.307651
0.304424
0.301391
0.29854
0.295861
0.293369
0.36781
0.360759
0.354183
0.348042
0.342299
0.336923
0.331886
0.327162
0.322729
0.318565
0.314652
0.310974
0.307513
0.304255
0.301187
0.298296
0.295572
0.293032
0.367809
0.360756
0.354177
0.348031
0.342283
0.336899
0.331853
0.327116
0.322666
0.318483
0.314546
0.310838
0.307343
0.304047
0.300935
0.297996
0.295219
0.292624
0.367807
0.360751
0.354166
0.34801
0.342245
0.336839
0.331762
0.326985
0.322488
0.318248
0.314246
0.310466
0.306892
0.303511
0.30031
0.297276
0.294402
0.291708
0.367804
0.360735
0.354121
0.347918
0.342086
0.33659
0.3314
0.326492
0.321846
0.317445
0.313272
0.309315
0.30556
0.301998
0.298617
0.295406
0.292361
0.289502
0.367784
0.360646
0.353907
0.347518
0.341448
0.335673
0.330176
0.324946
0.319974
0.315251
0.310769
0.306519
0.302492
0.298679
0.29507
0.291655
0.288425
0.2854
0.367673
0.360246
0.353066
0.346131
0.339454
0.333059
0.326966
0.321189
0.315736
0.310608
0.305802
0.301307
0.297111
0.293197
0.289547
0.286142
0.282962
0.280013
0.367176
0.358788
0.350457
0.342353
0.33461
0.327335
0.320593
0.314417
0.308816
0.303782
0.299293
0.295316
0.291807
0.288719
0.286
0.283595
0.281456
0.279547
0.365288
0.354349
0.34365
0.333698
0.324839
0.317244
0.310953
0.305956
0.302221
0.299691
0.298289
0.297915
0.29845
0.299761
0.301702
0.304127
0.306892
0.309859
0.357564
0.338061
0.321604
0.309705
0.302737
0.300666
0.303299
0.31034
0.321404
0.336035
0.353716
0.373881
0.395935
0.419275
0.44332
0.467519
0.491411
0.514439
0.314718
0.263982
0.224295
0.19307
0.168531
0.149392
0.134701
0.123728
0.11589
0.110709
0.107784
0.106763
0.107332
0.109206
0.112122
0.115839
0.120138
0.124807
0.0682701
0.111976
0.122634
0.127172
0.128342
0.126772
0.124699
0.12516
0.125776
0.125102
0.122802
0.120738
0.120116
0.12599
0.144567
0.161608
0.179658
0.199928
0.223217
0.250219
0.281668
0.318409
0.361528
0.411893
0.464587
0.515852
0.562699
0.601028
0.625456
0.629251
0.604461
0.542618
0.438811
0.304072
0.189634
0.114289
0.0749693
0.065831
0.0678583
0.0715482
0.0753093
0.0790988
0.083022
0.0879728
0.093885
0.0976708
0.0956209
0.0892268
0.0810961
0.0739002
0.0693311
0.0696012
0.0776128
0.0947299
0.122075
0.160526
0.204105
0.28233
0.454131
0.690381
0.905647
1.09824
1.26112
1.39201
1.49133
1.56108
1.60405
1.62337
1.62227
1.60392
1.57132
1.52721
1.47407
1.41396
1.35033
1.28625
1.22214
1.1584
1.09547
1.03367
0.973329
0.91468
0.857924
0.803205
0.750611
0.700173
0.651857
0.60557
0.561159
0.518434
0.477189
0.437238
0.398454
0.360799
0.324356
0.289383
0.256468
0.226956
0.207257
0.204815
0.206541
0.209637
0.213944
0.219526
0.226436
0.234677
0.244192
0.254863
0.266506
0.278885
0.291716
0.304687
0.317459
0.329706
0.341202
0.350562
0.355879
0.356243
0.350853
0.339064
0.320279
0.293215
0.254878
0.197019
0.139784
0.0992994
0.0723679
0.0562795
0.0481636
0.0453059
0.0454791
0.0470536
0.0489406
0.0504727
0.0512868
0.0512323
0.0503078
0.0486363
0.0465257
0.0445988
0.0429168
0.0414197
0.0402434
0.0396756
0.0400769
0.0419887
0.0466959
0.0566904
0.0750237
0.105438
0.147193
0.21545
0.334565
0.415798
0.450054
0.44028
0.395395
0.326241
0.243249
0.157047
0.159717
0.161883
0.162054
0.15952
0.153778
0.14553
0.14061
0.14561
0.175381
0.224563
0.27528
0.328477
0.382012
0.434607
0.469999
0.466602
0.416774
0.323565
0.208813
0.124174
0.0467883
0.0939321
0.0935009
0.0846225
0.0822786
0.0948816
0.114822
0.126882
0.13032
0.128656
0.124463
0.118987
0.112939
0.106791
0.100961
0.0955824
0.0906835
0.0862476
0.0822528
0.0786884
0.0755705
0.0729398
0.0708693
0.0697668
0.0747357
0.0875781
0.108185
0.135778
0.168646
0.204016
0.238034
0.265799
0.281949
0.285225
0.280628
0.263206
0.223289
0.168677
0.121961
0.0914698
0.0724668
0.0648714
0.0694216
0.0813307
0.0973303
0.111891
0.117229
0.110469
0.0966961
0.0837654
0.0796409
0.0915863
0.130428
0.205029
0.303192
0.380023
0.419993
0.458165
0.500602
0.536001
0.556387
0.56353
0.560024
0.54916
0.534148
0.517715
0.501928
0.488197
0.477386
0.469983
0.466271
0.466442
0.470676
0.479179
0.490209
0.501412
0.512792
0.524383
0.536217
0.548326
0.560733
0.57344
0.586417
0.599581
0.612773
0.625731
0.638063
0.649226
0.658523
0.66512
0.668105
0.666572
0.659744
0.647086
0.628392
0.603796
0.573705
0.538797
0.500171
0.465642
0.433068
0.401803
0.372183
0.344426
0.318627
0.294789
0.272848
0.252688
0.234167
0.217127
0.201409
0.186856
0.17332
0.160669
0.148791
0.137978
0.1286
0.12047
0.113393
0.107148
0.101512
0.0963857
0.0920447
0.0903963
0.0891403
0.0900526
0.0942902
0.102174
0.113149
0.12601
0.139293
0.151654
0.162093
0.169989
0.175024
0.177062
0.176056
0.171985
0.164811
0.154359
0.140911
0.125079
0.10765
0.0900727
0.0748949
0.064294
0.0593928
0.0624743
0.0804128
0.118799
0.152235
0.175028
0.191004
0.193222
0.188622
0.183463
0.181374
0.183663
0.18998
0.197757
0.207457
0.216124
0.222138
0.223446
0.217825
0.202925
0.184148
0.164456
0.144781
0.128153
0.114445
0.103025
0.0933503
0.0853869
0.0851537
0.0959054
0.107809
0.1145
0.125801
0.14945
0.0296798
0.0623
0.0680358
0.0684188
0.0922686
0.122249
0.133503
0.129124
0.118449
0.107197
0.097476
0.08964
0.0834451
0.0784957
0.0743988
0.0708202
0.067512
0.0643223
0.0611871
0.0581096
0.0551344
0.0523247
0.0497444
0.0474534
0.0455889
0.045042
0.0468115
0.0521556
0.0622385
0.0775842
0.0975787
0.120274
0.142747
0.162832
0.180503
0.194287
0.198999
0.188398
0.16143
0.126724
0.0958751
0.0756616
0.0681621
0.0747348
0.0913052
0.111948
0.127452
0.129136
0.120078
0.118602
0.145752
0.214086
0.302585
0.351682
0.362368
0.367981
0.372041
0.378083
0.384333
0.388032
0.389137
0.38944
0.3905
0.393233
0.397799
0.403845
0.410851
0.418393
0.426254
0.434388
0.442825
0.451572
0.460571
0.469786
0.479247
0.488911
0.498792
0.508948
0.519471
0.530488
0.542144
0.554589
0.567956
0.582332
0.597722
0.614003
0.630883
0.647851
0.664156
0.678801
0.690591
0.698232
0.700486
0.696344
0.685172
0.666796
0.641404
0.609443
0.572842
0.538391
0.504166
0.470539
0.438083
0.40718
0.378061
0.350841
0.325548
0.302144
0.280552
0.260665
0.24236
0.22551
0.209982
0.195646
0.182376
0.170047
0.158487
0.147411
0.136813
0.126646
0.116945
0.107864
0.0996852
0.0927762
0.0871924
0.0829875
0.0802197
0.0789034
0.0789818
0.0803226
0.0827174
0.0858808
0.0894617
0.0930736
0.0963342
0.0988992
0.10048
0.10084
0.0997541
0.0969849
0.0923632
0.0858569
0.0776684
0.0685808
0.0600278
0.0544343
0.0545721
0.0659177
0.0936956
0.126281
0.137157
0.143452
0.149153
0.153229
0.156781
0.159876
0.16321
0.167614
0.173104
0.179728
0.187079
0.194488
0.200678
0.203753
0.201295
0.190853
0.176738
0.160693
0.144385
0.129352
0.116224
0.105114
0.0958653
0.0882077
0.0817627
0.0760332
0.0718336
0.0697272
0.070939
0.0759949
0.0142263
0.0444687
0.066539
0.123258
0.15385
0.149652
0.132157
0.114459
0.10082
0.0914112
0.0852472
0.0812709
0.0785861
0.0764711
0.0743814
0.0719556
0.0690115
0.0655333
0.0616387
0.0575245
0.0534107
0.0494932
0.0459146
0.042757
0.0400618
0.0379136
0.0365634
0.0363231
0.0378603
0.0420755
0.0497966
0.0612734
0.0757884
0.0920001
0.108843
0.125318
0.139384
0.14728
0.144825
0.131622
0.113125
0.0966825
0.0874982
0.0903814
0.107593
0.134677
0.161369
0.175264
0.187446
0.220246
0.273195
0.31605
0.326993
0.323244
0.3168
0.314414
0.315981
0.320792
0.327517
0.335397
0.344412
0.354465
0.365012
0.375307
0.384753
0.393107
0.400468
0.407116
0.413329
0.419279
0.425021
0.430532
0.435758
0.44087
0.445867
0.450711
0.455408
0.460032
0.464736
0.469755
0.475391
0.482001
0.48996
0.499632
0.511315
0.52519
0.541247
0.559228
0.578552
0.598289
0.617155
0.63359
0.645924
0.652607
0.6524
0.644595
0.628891
0.605269
0.577605
0.548941
0.519003
0.488666
0.458659
0.4295
0.401543
0.375015
0.350038
0.326663
0.304884
0.28466
0.265924
0.248594
0.232576
0.217772
0.204083
0.191412
0.179644
0.168594
0.158144
0.148211
0.138731
0.129707
0.121222
0.113412
0.106386
0.100206
0.0948832
0.0903941
0.0866868
0.0836988
0.0813639
0.079611
0.0783556
0.0774933
0.0768997
0.0764373
0.0759628
0.0753274
0.0743642
0.0728795
0.0706799
0.0675849
0.0634213
0.0583824
0.053868
0.0523352
0.0576431
0.0750991
0.102231
0.120831
0.123822
0.130211
0.137901
0.143519
0.145729
0.145865
0.14605
0.147265
0.149749
0.153362
0.158095
0.163724
0.169452
0.173661
0.173879
0.167902
0.158093
0.145663
0.132387
0.119692
0.108391
0.0988138
0.0909782
0.0847159
0.0797718
0.0758204
0.0723383
0.0690685
0.0663742
0.0641605
0.0218991
0.0677226
0.166919
0.167849
0.142576
0.119004
0.103424
0.0949023
0.0911048
0.0900733
0.0904227
0.0911823
0.0916453
0.0912946
0.0897726
0.0868742
0.0825648
0.0770234
0.0706361
0.0638936
0.0572902
0.0512233
0.0459277
0.0414847
0.0378711
0.0350169
0.0329058
0.0314744
0.0308482
0.0313829
0.0336556
0.0383245
0.045802
0.0559555
0.0681559
0.0814802
0.0947101
0.106021
0.112894
0.113454
0.108626
0.102526
0.101126
0.110363
0.136249
0.177839
0.224479
0.262627
0.283355
0.290537
0.296535
0.294632
0.286715
0.28004
0.278078
0.28133
0.288608
0.29867
0.31035
0.322701
0.334865
0.346016
0.355551
0.363272
0.369363
0.374227
0.378306
0.381967
0.385467
0.388952
0.392476
0.396011
0.399467
0.402788
0.405607
0.407724
0.409029
0.409532
0.409376
0.40885
0.408377
0.408501
0.409842
0.413056
0.418774
0.427528
0.439678
0.455324
0.474219
0.49569
0.518584
0.541281
0.56181
0.578165
0.588472
0.59141
0.586096
0.572612
0.554803
0.533557
0.509869
0.484764
0.459064
0.433397
0.408222
0.383866
0.360545
0.338397
0.317493
0.297861
0.279495
0.262365
0.246422
0.231606
0.217849
0.205074
0.193201
0.182132
0.171744
0.161976
0.152757
0.144035
0.135792
0.128046
0.120834
0.114195
0.108148
0.102687
0.0977857
0.093405
0.0895031
0.0860406
0.0829801
0.0802814
0.0778991
0.07578
0.0738628
0.0720759
0.070329
0.0685055
0.0664679
0.0640428
0.0610091
0.0574651
0.0546524
0.0553877
0.0638909
0.0826318
0.103237
0.112595
0.116359
0.125637
0.134225
0.137816
0.137024
0.134927
0.133311
0.132616
0.132877
0.133887
0.136061
0.139655
0.144317
0.148758
0.150553
0.147788
0.141087
0.131465
0.120504
0.109605
0.0996749
0.0911639
0.0841949
0.0787104
0.0745863
0.0716563
0.0697026
0.0683184
0.0672171
0.066044
0.0252394
0.143149
0.141156
0.117544
0.1018
0.0956851
0.0958547
0.0992009
0.103738
0.108345
0.112414
0.115557
0.117367
0.117429
0.115375
0.110926
0.103994
0.0948801
0.0843548
0.073364
0.0628734
0.0536427
0.046019
0.0400082
0.0354261
0.0320216
0.0295747
0.0279522
0.0269353
0.0265676
0.0270675
0.0288386
0.0323822
0.0380978
0.04605
0.0558189
0.0665488
0.0771341
0.0863093
0.0929076
0.0968771
0.100926
0.111413
0.13468
0.177122
0.243217
0.312972
0.320115
0.291926
0.276201
0.265814
0.25773
0.252994
0.253197
0.258372
0.267477
0.279091
0.291853
0.304514
0.31603
0.325663
0.333084
0.338389
0.341988
0.34445
0.346363
0.348254
0.350538
0.353493
0.357249
0.361789
0.366953
0.372472
0.377266
0.380778
0.382676
0.382759
0.380986
0.377498
0.372638
0.366937
0.361099
0.355955
0.352409
0.351366
0.353661
0.359972
0.370739
0.38608
0.405694
0.428758
0.453865
0.478983
0.50183
0.520064
0.53177
0.535377
0.531572
0.522253
0.508482
0.491374
0.471954
0.451086
0.429464
0.407625
0.385974
0.364808
0.344341
0.324718
0.306033
0.288342
0.271667
0.25601
0.241349
0.22765
0.214869
0.202952
0.191835
0.181431
0.171684
0.162531
0.153921
0.145816
0.138192
0.131042
0.124366
0.11816
0.112414
0.107109
0.102218
0.0977125
0.0935649
0.0897517
0.0862526
0.0830474
0.0801141
0.0774252
0.074943
0.0726132
0.0703574
0.0680616
0.0655455
0.0626066
0.0594618
0.0574903
0.0596458
0.0694615
0.0864094
0.100123
0.105928
0.112956
0.124489
0.132234
0.133498
0.131389
0.128932
0.126885
0.125115
0.123469
0.122027
0.121611
0.12296
0.12611
0.130086
0.132657
0.131966
0.127699
0.120426
0.111444
0.10207
0.0932555
0.0855331
0.0791124
0.0740105
0.0701599
0.0674754
0.0658785
0.0652583
0.0652834
0.0655167
0.0229644
0.107603
0.102409
0.0966359
0.0985772
0.105487
0.114155
0.122712
0.13073
0.137953
0.144115
0.148943
0.151913
0.152447
0.149967
0.143885
0.133792
0.119909
0.10366
0.0866135
0.0705331
0.0569222
0.04628
0.0384023
0.0328088
0.0289366
0.0263152
0.0246531
0.0237096
0.023267
0.0233387
0.024107
0.0259077
0.029152
0.0341807
0.041053
0.0493848
0.0584852
0.0677245
0.0767806
0.0862105
0.0995325
0.12481
0.170186
0.239045
0.326256
0.342914
0.296172
0.263042
0.245002
0.23569
0.232352
0.234211
0.240684
0.250691
0.26285
0.27576
0.288166
0.299095
0.30799
0.314755
0.319688
0.323337
0.326356
0.329376
0.332934
0.337422
0.34307
0.349927
0.357874
0.366628
0.375781
0.384403
0.391156
0.395517
0.39708
0.395582
0.390951
0.383352
0.373216
0.36124
0.348365
0.335708
0.324461
0.315783
0.310716
0.310103
0.314517
0.324292
0.339414
0.359412
0.383306
0.409291
0.434943
0.457856
0.475501
0.485731
0.489448
0.487417
0.480479
0.469597
0.455718
0.439689
0.422219
0.403883
0.385137
0.366336
0.347752
0.329594
0.312017
0.295134
0.279022
0.263729
0.249278
0.235672
0.222898
0.210927
0.199723
0.189233
0.17941
0.170203
0.161566
0.153458
0.145847
0.138708
0.132023
0.125773
0.119937
0.114492
0.109412
0.104672
0.100248
0.0961195
0.0922709
0.0886886
0.08536
0.0822694
0.079393
0.0766933
0.07411
0.0715294
0.0687449
0.0655866
0.0624313
0.0607915
0.0636324
0.073484
0.0872106
0.0958229
0.10111
0.11174
0.12444
0.130743
0.130788
0.128923
0.127195
0.125396
0.12291
0.119532
0.115766
0.112803
0.111801
0.113205
0.116241
0.118913
0.119599
0.117251
0.111975
0.104739
0.0967346
0.0889204
0.0818846
0.0759003
0.0710399
0.0672816
0.0645831
0.0629185
0.0622416
0.0624751
0.0632739
0.0283683
0.087878
0.0992381
0.108133
0.119329
0.131307
0.143251
0.154522
0.164741
0.173825
0.181738
0.188294
0.193024
0.195131
0.193564
0.187144
0.174756
0.155759
0.132705
0.107721
0.0837446
0.0638652
0.0489665
0.0384574
0.0315015
0.0270226
0.0241649
0.0223798
0.0213962
0.0209462
0.0209111
0.0213326
0.0224073
0.0244429
0.0277793
0.0326676
0.0390965
0.0467714
0.0554936
0.0656576
0.0791185
0.101374
0.140833
0.202363
0.288529
0.344551
0.306244
0.259189
0.232187
0.219591
0.21597
0.218483
0.225587
0.236015
0.248445
0.261565
0.274233
0.28564
0.295427
0.303689
0.310845
0.317463
0.324109
0.331272
0.339329
0.348538
0.359009
0.370688
0.383338
0.396551
0.409772
0.422365
0.432962
0.440979
0.445828
0.446972
0.443993
0.436655
0.424978
0.409299
0.390341
0.369241
0.347518
0.326909
0.309074
0.295435
0.287046
0.28436
0.287638
0.296933
0.311919
0.332034
0.35604
0.381235
0.405889
0.425733
0.44058
0.449894
0.45373
0.452589
0.44721
0.438405
0.426943
0.4135
0.398648
0.382856
0.366508
0.349919
0.333342
0.316983
0.301003
0.285531
0.270661
0.256458
0.242963
0.230198
0.218162
0.206844
0.196223
0.186263
0.176924
0.16817
0.159962
0.152267
0.145057
0.138303
0.131979
0.126058
0.120514
0.115319
0.110449
0.105879
0.101592
0.0975712
0.0938062
0.0902867
0.087001
0.0839299
0.0810421
0.0782813
0.0755199
0.0725177
0.0691284
0.0658491
0.0642764
0.067233
0.0761169
0.0863948
0.0918529
0.0978492
0.110785
0.124218
0.129608
0.129508
0.128749
0.128296
0.127121
0.124074
0.119086
0.113193
0.107911
0.104618
0.104164
0.105882
0.108419
0.109962
0.109098
0.105486
0.0997609
0.0929663
0.0860441
0.0796221
0.0740232
0.0693639
0.0656557
0.0628786
0.0610197
0.0600603
0.0599484
0.060539
0.0427207
0.105315
0.118788
0.13252
0.147967
0.163345
0.177239
0.189525
0.200639
0.211047
0.220985
0.230314
0.23841
0.244097
0.245665
0.241065
0.228407
0.206786
0.177205
0.142909
0.108124
0.0786651
0.0570297
0.0419627
0.0325586
0.0268903
0.0234617
0.0214122
0.0202067
0.0196106
0.0194434
0.0196742
0.0204029
0.0218469
0.0242809
0.0279771
0.0331121
0.0397124
0.04797
0.0590285
0.076417
0.107206
0.156968
0.227213
0.306354
0.312598
0.262792
0.226277
0.208322
0.202635
0.204666
0.211798
0.222375
0.235061
0.248651
0.262143
0.274884
0.286664
0.297667
0.30829
0.318936
0.32991
0.34144
0.353723
0.366935
0.381189
0.396472
0.412596
0.429189
0.445705
0.46146
0.4757
0.487367
0.49625
0.501712
0.503131
0.499972
0.491838
0.478519
0.460049
0.43681
0.409685
0.380225
0.350684
0.323428
0.300596
0.284036
0.274077
0.270726
0.273923
0.283229
0.298216
0.318612
0.340819
0.36345
0.384361
0.401855
0.414868
0.423016
0.426452
0.425657
0.42126
0.413909
0.404203
0.39267
0.379764
0.36587
0.351318
0.33639
0.321326
0.306329
0.291569
0.277182
0.263274
0.249925
0.237187
0.225093
0.213657
0.202886
0.192755
0.183239
0.174312
0.165941
0.158098
0.150751
0.14387
0.137427
0.131391
0.125733
0.120423
0.115435
0.110747
0.106338
0.102195
0.0983056
0.0946625
0.0912573
0.0880756
0.0850912
0.0822489
0.0794083
0.076302
0.072786
0.0693979
0.0677354
0.0703716
0.0777457
0.0849922
0.0886454
0.0954666
0.109553
0.122921
0.128309
0.129116
0.129872
0.130959
0.130489
0.126808
0.120343
0.112626
0.105396
0.100149
0.0977887
0.0982676
0.100466
0.102559
0.102852
0.100604
0.0961429
0.0903685
0.0842019
0.0783026
0.0730348
0.0685501
0.0648845
0.0620306
0.0599772
0.0587077
0.0581838
0.0583058
0.0679372
0.13081
0.146299
0.163522
0.180808
0.196247
0.209192
0.220507
0.231305
0.24257
0.254891
0.2683
0.282129
0.294849
0.303943
0.305987
0.297242
0.275003
0.239498
0.195048
0.148818
0.107491
0.0748606
0.0514717
0.0371679
0.0290012
0.0241578
0.0214264
0.0198837
0.0190577
0.0187447
0.0188282
0.0193503
0.020475
0.022432
0.0254828
0.0298931
0.0359101
0.0441212
0.0565807
0.0783563
0.11612
0.170912
0.242557
0.293245
0.267805
0.225901
0.201228
0.191812
0.192178
0.198666
0.209072
0.221922
0.236067
0.250611
0.265002
0.279094
0.293056
0.307135
0.321452
0.335986
0.350704
0.365691
0.381145
0.397284
0.414227
0.431917
0.450092
0.468307
0.485964
0.502346
0.516614
0.528364
0.537324
0.542858
0.544343
0.541245
0.533176
0.5199
0.501297
0.47738
0.448459
0.415423
0.380532
0.346587
0.316125
0.292501
0.276157
0.266897
0.264551
0.268513
0.278123
0.292716
0.311063
0.331426
0.351746
0.370126
0.385191
0.396209
0.403016
0.405834
0.405091
0.401285
0.394913
0.386428
0.376241
0.364714
0.352172
0.338907
0.325179
0.311219
0.29723
0.283383
0.269822
0.256659
0.243982
0.231852
0.22031
0.209392
0.199083
0.189373
0.180246
0.17168
0.163649
0.156126
0.14908
0.142481
0.136298
0.1305
0.125057
0.119942
0.11513
0.110603
0.106343
0.102341
0.0985891
0.0950816
0.0918087
0.0887505
0.0858558
0.0829816
0.0798511
0.0763074
0.0728583
0.0710191
0.0730663
0.0787872
0.0836122
0.0861672
0.0933345
0.107487
0.120558
0.126629
0.12886
0.131017
0.133114
0.13304
0.129217
0.12198
0.112937
0.104014
0.0970147
0.0931108
0.0925671
0.0944869
0.0970311
0.0982652
0.0971199
0.0936705
0.0887047
0.083133
0.0776458
0.0726434
0.0683049
0.0646847
0.061784
0.05959
0.0580813
0.0572193
0.056928
0.0876828
0.161331
0.181033
0.197934
0.211714
0.222365
0.231075
0.238672
0.24717
0.258173
0.272671
0.291002
0.312741
0.336415
0.359025
0.375611
0.379487
0.364092
0.326728
0.271915
0.210187
0.152292
0.104992
0.0707046
0.0484744
0.0352278
0.0274051
0.0231196
0.0207194
0.0193981
0.0188385
0.0187572
0.0191005
0.0200147
0.0217227
0.0245006
0.0286752
0.0346656
0.0435144
0.0582247
0.0845743
0.126464
0.182371
0.245243
0.260962
0.228227
0.19801
0.183536
0.181009
0.186032
0.195771
0.208481
0.222984
0.238435
0.254327
0.270513
0.287085
0.304095
0.321366
0.33855
0.355386
0.371885
0.388315
0.405041
0.422341
0.440293
0.458741
0.477317
0.495506
0.51269
0.528194
0.541234
0.551922
0.559913
0.564619
0.565414
0.561758
0.553321
0.540019
0.521874
0.498869
0.471049
0.438258
0.402156
0.365915
0.331426
0.303602
0.283092
0.269623
0.262685
0.261691
0.266287
0.276147
0.290534
0.308056
0.326838
0.344958
0.360866
0.37359
0.382718
0.388244
0.390406
0.38955
0.386051
0.380277
0.372571
0.363256
0.352637
0.340996
0.328603
0.315703
0.302521
0.289259
0.276088
0.263155
0.250575
0.238439
0.22682
0.215771
0.205289
0.195384
0.18605
0.177276
0.169041
0.161321
0.154088
0.147312
0.140961
0.135004
0.129412
0.124155
0.11921
0.114556
0.110177
0.106061
0.1022
0.0985908
0.0952264
0.0920924
0.0891435
0.0862435
0.0831209
0.0796013
0.0761244
0.0740639
0.0754034
0.0795887
0.0825684
0.0842841
0.0911355
0.104495
0.11715
0.124199
0.127917
0.13113
0.133726
0.133893
0.130039
0.122339
0.112434
0.102384
0.094191
0.0892844
0.0881633
0.0900705
0.0931185
0.0951643
0.0948881
0.0921939
0.08781
0.082659
0.0774647
0.0726565
0.0684338
0.064863
0.0619521
0.0596892
0.0580523
0.0570046
0.0564832
0.103402
0.187597
0.206718
0.220284
0.228607
0.232459
0.233864
0.234909
0.239081
0.248361
0.263982
0.286632
0.316521
0.353097
0.394224
0.434621
0.464379
0.470102
0.44146
0.380305
0.30151
0.222321
0.154164
0.102371
0.0675875
0.0466985
0.0348402
0.0279334
0.0237579
0.0212659
0.0199675
0.0195892
0.0197062
0.0204628
0.0220993
0.0249253
0.0293202
0.0358705
0.0461113
0.0638008
0.0939765
0.13686
0.190594
0.233187
0.225959
0.197645
0.17811
0.171554
0.174165
0.182559
0.194612
0.209016
0.224924
0.241838
0.259586
0.278185
0.297535
0.317198
0.336514
0.354967
0.372458
0.389305
0.406025
0.423081
0.440708
0.458853
0.477189
0.495187
0.512201
0.527555
0.540698
0.551224
0.55957
0.565498
0.568544
0.568061
0.563391
0.554142
0.540331
0.522213
0.499914
0.473968
0.443418
0.408537
0.373697
0.340487
0.3117
0.289036
0.272945
0.262953
0.25846
0.259249
0.265308
0.276283
0.291106
0.308099
0.325395
0.341391
0.354986
0.365602
0.373067
0.377457
0.378979
0.377888
0.374457
0.368956
0.361656
0.352826
0.342732
0.331635
0.319788
0.307429
0.294778
0.282033
0.269365
0.256918
0.24481
0.233156
0.221988
0.211346
0.201253
0.191718
0.182737
0.174295
0.166373
0.158945
0.151982
0.145454
0.139329
0.133578
0.128173
0.123088
0.118302
0.113797
0.109563
0.105591
0.101877
0.0984183
0.0952027
0.0921919
0.0892613
0.0861526
0.0826723
0.0791779
0.076876
0.0774945
0.0803933
0.0820095
0.0829171
0.0888272
0.100736
0.112741
0.120659
0.125649
0.129589
0.132357
0.132515
0.128545
0.120599
0.110296
0.0997409
0.0910409
0.0858042
0.0846879
0.0869725
0.0906612
0.0934252
0.0937861
0.0915794
0.0875429
0.0826381
0.0776217
0.0729415
0.0688054
0.0652852
0.0623927
0.0601209
0.0584536
0.0573632
0.056801
0.113145
0.201024
0.216949
0.22398
0.223806
0.218716
0.212058
0.207151
0.205847
0.212006
0.22686
0.251348
0.28633
0.332713
0.391185
0.459913
0.52928
0.577624
0.57857
0.522986
0.429718
0.326341
0.231318
0.154292
0.0994936
0.0655613
0.0465592
0.035851
0.0292479
0.0250669
0.0226347
0.0215523
0.0213836
0.0221179
0.0239567
0.0271932
0.032199
0.0397153
0.0518304
0.0727408
0.104785
0.146698
0.192582
0.211161
0.196262
0.17536
0.164344
0.163605
0.169874
0.180624
0.194317
0.210042
0.227285
0.245858
0.265757
0.286834
0.308502
0.329809
0.3499
0.368437
0.385687
0.402292
0.418932
0.43608
0.453858
0.472006
0.489916
0.506765
0.521681
0.533988
0.543378
0.550129
0.554825
0.557598
0.558189
0.55597
0.550073
0.539947
0.525575
0.507328
0.485152
0.460655
0.433186
0.402794
0.370846
0.339719
0.3121
0.289805
0.273293
0.26207
0.255619
0.253961
0.257408
0.265903
0.278613
0.294021
0.310357
0.326047
0.339963
0.351454
0.360241
0.366283
0.369667
0.370543
0.369089
0.365503
0.359997
0.352799
0.344146
0.334284
0.323461
0.311921
0.299896
0.287602
0.27523
0.262949
0.250902
0.23923
0.227974
0.217196
0.206934
0.19721
0.18803
0.179387
0.171266
0.163645
0.156496
0.149791
0.143498
0.137588
0.132033
0.126806
0.121886
0.117256
0.112903
0.108819
0.105
0.101444
0.0981429
0.0950645
0.092098
0.0890014
0.0855608
0.0820471
0.079499
0.0794411
0.0813396
0.082001
0.0820748
0.0865602
0.0965172
0.107484
0.11584
0.121693
0.126045
0.128729
0.128631
0.124468
0.116483
0.106237
0.0958028
0.0873186
0.0824919
0.0820269
0.0851161
0.0895844
0.0929492
0.093686
0.0916828
0.0877614
0.0829431
0.0780079
0.0734038
0.0693317
0.0658588
0.0629979
0.0607475
0.0591012
0.0580445
0.057544
0.116497
0.201258
0.213208
0.213677
0.205421
0.191652
0.176763
0.165416
0.158646
0.160244
0.171488
0.193923
0.229004
0.278118
0.344295
0.432854
0.544151
0.656194
0.718716
0.693089
0.595919
0.470553
0.346111
0.2369
0.152386
0.0965756
0.0649684
0.0481133
0.0381661
0.031574
0.02743
0.025459
0.0251857
0.0260486
0.0282686
0.0320772
0.0378437
0.0465408
0.0605101
0.0831675
0.11535
0.154225
0.184702
0.188206
0.173301
0.159573
0.154937
0.158316
0.167095
0.179441
0.194297
0.211101
0.229652
0.249979
0.27203
0.295254
0.318526
0.340584
0.360644
0.378705
0.3954
0.411614
0.428129
0.445378
0.463314
0.481384
0.498612
0.513847
0.526129
0.534789
0.539728
0.541917
0.542182
0.541017
0.538422
0.533932
0.526483
0.515344
0.500585
0.482498
0.461794
0.43892
0.413742
0.386311
0.357615
0.329706
0.304933
0.284818
0.269559
0.258566
0.251488
0.248675
0.250736
0.257806
0.269169
0.283414
0.298882
0.314098
0.327992
0.339915
0.349543
0.356758
0.361554
0.363992
0.364168
0.36221
0.358273
0.352537
0.345207
0.336507
0.326671
0.315939
0.304549
0.292726
0.28068
0.268598
0.256659
0.244993
0.233674
0.22278
0.212368
0.202471
0.193106
0.184273
0.175962
0.168156
0.160829
0.153953
0.147499
0.141436
0.135736
0.130373
0.125324
0.120572
0.116104
0.111911
0.107989
0.104337
0.10095
0.0978021
0.0947969
0.0917116
0.0883116
0.0847768
0.0819897
0.0813192
0.0824797
0.0825575
0.0818323
0.0846042
0.0922498
0.101696
0.109856
0.11603
0.120451
0.122834
0.122322
0.117966
0.110169
0.100415
0.0907032
0.0831534
0.0794818
0.0802973
0.0845638
0.0898671
0.0936319
0.0944293
0.0923326
0.0883122
0.083453
0.078534
0.0739762
0.0699551
0.0665235
0.0636917
0.0614642
0.0598459
0.0588354
0.0584135
0.114376
0.191828
0.201159
0.198007
0.185455
0.166484
0.145538
0.127875
0.117524
0.113708
0.117941
0.132811
0.161623
0.206612
0.269829
0.359603
0.493107
0.669893
0.825571
0.867334
0.788535
0.651802
0.502993
0.360617
0.238124
0.148479
0.0946616
0.067069
0.0526042
0.0433172
0.0368951
0.0332288
0.0324761
0.0332315
0.0355718
0.0396928
0.0460709
0.055833
0.0710589
0.0940427
0.124478
0.15536
0.171763
0.168225
0.156295
0.148502
0.148455
0.154646
0.165077
0.17847
0.194149
0.211868
0.231692
0.25375
0.277768
0.302723
0.327055
0.349377
0.369092
0.386521
0.402583
0.418347
0.434664
0.451921
0.469904
0.487768
0.504201
0.517798
0.527414
0.532094
0.532197
0.529867
0.5258
0.520514
0.514264
0.506928
0.497823
0.486119
0.471315
0.45357
0.433532
0.411706
0.388207
0.363215
0.337663
0.31336
0.292231
0.275258
0.262188
0.252338
0.245628
0.242766
0.244565
0.251199
0.261951
0.275467
0.29022
0.304892
0.318536
0.330565
0.340654
0.348641
0.354457
0.358091
0.359574
0.358969
0.35638
0.351939
0.345815
0.338202
0.329314
0.319381
0.308635
0.297309
0.28562
0.273775
0.261988
0.250355
0.239
0.228019
0.217482
0.207434
0.197903
0.188897
0.180413
0.172435
0.164942
0.157907
0.151301
0.145096
0.139262
0.133772
0.128605
0.123741
0.119166
0.114872
0.110855
0.107113
0.103644
0.100428
0.0973838
0.0943118
0.0909594
0.0874097
0.0844007
0.0831763
0.0837941
0.0836358
0.0822818
0.0832742
0.0884004
0.0958482
0.103112