/*--------------------------------*- C++ -*----------------------------------*\
  =========                 |
  \\      /  F ield         | OpenFOAM: The Open Source CFD Toolbox
   \\    /   O peration     | Website:  https://openfoam.org
    \\  /    A nd           | Version:  9
     \\/     M anipulation  |
\*---------------------------------------------------------------------------*/
FoamFile
{
    format      ascii;
    class       volScalarField;
    location    "0.14";
    object      kU;
}
// * * * * * * * * * * * * * * * * * * * * * * * * * * * * * * * * * * * * * //

dimensions      [0 2 -2 0 0 0 0];

internalField   nonuniform List<scalar> 
12225
(
0.084942
0.0641463
0.0498077
0.0401198
0.0338448
0.030101
0.0282275
0.0277014
0.0280974
0.0290677
0.030328
0.0321059
0.0342899
0.0367448
0.0394287
0.0424506
0.0462357
0.0520313
0.104774
0.0974005
0.0930203
0.0920661
0.0943545
0.099443
0.106702
0.115375
0.124671
0.13385
0.14218
0.148776
0.153257
0.155408
0.154979
0.151683
0.144566
0.133177
0.108602
0.104457
0.100804
0.0978409
0.0956902
0.0943593
0.0937619
0.0937477
0.0941238
0.0946801
0.0953
0.0958795
0.0962727
0.0963924
0.096208
0.0957663
0.0952345
0.0949995
0.109688
0.106538
0.103488
0.10068
0.0982034
0.0960928
0.0943336
0.0928809
0.0916786
0.0906688
0.0898086
0.0890769
0.0884661
0.0879962
0.0877319
0.0878111
0.0884504
0.0898334
0.110099
0.107499
0.104932
0.102473
0.100176
0.0980731
0.0961786
0.0944897
0.0929916
0.0916719
0.090523
0.0895475
0.0887624
0.0882085
0.0879629
0.0881509
0.088936
0.0903973
0.110257
0.10794
0.10568
0.103501
0.10143
0.0994895
0.0976943
0.0960488
0.0945568
0.0932216
0.0920496
0.0910545
0.0902628
0.0897206
0.0895008
0.0897056
0.0904528
0.0917549
0.110314
0.108126
0.106037
0.104043
0.10215
0.100368
0.0987051
0.0971661
0.0957573
0.0944866
0.0933656
0.0924122
0.0916546
0.0911361
0.0909178
0.0910759
0.0916877
0.0927348
0.110333
0.108198
0.106191
0.1043
0.10252
0.100849
0.0992899
0.0978444
0.0965169
0.0953153
0.0942511
0.0933419
0.0926133
0.0921014
0.0918538
0.0919238
0.0923597
0.0931348
0.110339
0.108221
0.106248
0.104406
0.102684
0.101078
0.0995838
0.0982015
0.0969327
0.0957828
0.094761
0.0938818
0.0931657
0.0926404
0.0923401
0.0922999
0.0925489
0.0930618
0.11034
0.108227
0.106266
0.104441
0.102745
0.101168
0.0997064
0.0983572
0.09712
0.0959973
0.0949957
0.0941254
0.0934017
0.0928441
0.0924758
0.092319
0.0923909
0.0926705
0.11034
0.108228
0.106268
0.104449
0.102759
0.101192
0.0997418
0.098404
0.097177
0.0960612
0.0950605
0.0941817
0.0934348
0.0928328
0.0923904
0.092121
0.0920346
0.0921151
0.110341
0.108228
0.106267
0.104447
0.102757
0.10119
0.0997394
0.0984006
0.0971709
0.0960493
0.0950375
0.0941395
0.0933615
0.0927115
0.0921985
0.0918297
0.0916108
0.0915293
0.110341
0.108228
0.106265
0.104443
0.102751
0.10118
0.0997251
0.0983804
0.0971426
0.0960096
0.0949814
0.0940598
0.093248
0.0925507
0.0919725
0.091517
0.0911869
0.0909728
0.110341
0.108228
0.106264
0.104438
0.102742
0.101166
0.0997042
0.0983503
0.0971004
0.0959514
0.0949019
0.0939517
0.0931017
0.0923534
0.0917085
0.0911679
0.0907322
0.090395
0.110342
0.108228
0.106262
0.104434
0.102733
0.101151
0.0996803
0.0983153
0.097051
0.0958834
0.0948098
0.0938284
0.0929382
0.0921385
0.0914288
0.0908081
0.0902757
0.0898279
0.110342
0.108229
0.106262
0.10443
0.102724
0.101135
0.0996558
0.0982789
0.0969991
0.095812
0.0947137
0.0937012
0.0927719
0.0919238
0.0911547
0.0904624
0.0898454
0.0893024
0.110343
0.10823
0.106261
0.104427
0.102716
0.101121
0.0996319
0.0982432
0.0969485
0.0957425
0.0946207
0.0935793
0.0926146
0.0917236
0.0909033
0.0901505
0.0894634
0.0888427
0.110344
0.10823
0.10626
0.104424
0.102709
0.101107
0.0996099
0.0982105
0.0969022
0.0956794
0.0945371
0.0934708
0.0924764
0.09155
0.090688
0.089887
0.0891447
0.0884635
0.110344
0.10823
0.106259
0.10442
0.102701
0.101094
0.0995897
0.0981813
0.0968619
0.0956257
0.0944673
0.0933818
0.0923648
0.0914121
0.0905198
0.0896842
0.0889028
0.0881793
0.110343
0.108229
0.106257
0.104416
0.102694
0.101084
0.0995751
0.0981611
0.096835
0.0955906
0.0944225
0.0933256
0.0922953
0.0913273
0.0904174
0.089562
0.0887583
0.0880108
0.110343
0.108228
0.106255
0.104412
0.10269
0.101077
0.0995658
0.0981486
0.0968186
0.0955695
0.0943957
0.0932921
0.0922538
0.0912766
0.0903561
0.0894887
0.0886715
0.0879095
0.110343
0.108227
0.106253
0.104409
0.102685
0.10107
0.0995558
0.0981348
0.0967999
0.0955448
0.0943637
0.0932513
0.092203
0.0912141
0.0902806
0.0893987
0.0885658
0.0877872
0.110342
0.108225
0.10625
0.104403
0.102674
0.101052
0.0995285
0.0980956
0.0967463
0.0954743
0.0942738
0.0931398
0.0920677
0.0910534
0.0900929
0.0891827
0.0883206
0.0875123
0.110341
0.10822
0.106236
0.104376
0.102626
0.100977
0.09942
0.0979477
0.0965539
0.0952334
0.0939816
0.0927944
0.0916681
0.0905994
0.089585
0.0886219
0.0877083
0.0868505
0.110335
0.108194
0.106172
0.104255
0.102434
0.100702
0.0990528
0.0974839
0.0959922
0.0945753
0.0932306
0.0919556
0.0907476
0.0896038
0.0885211
0.0874965
0.0865275
0.08562
0.110302
0.108074
0.10592
0.103839
0.101836
0.0999178
0.0980897
0.0963567
0.0947208
0.0931825
0.0917405
0.090392
0.0891332
0.0879591
0.0868642
0.0858425
0.0848885
0.0840039
0.110153
0.107636
0.105137
0.102706
0.100383
0.0982005
0.096178
0.0943251
0.0926448
0.0911345
0.0897879
0.0885947
0.0875422
0.0866158
0.0857999
0.0850785
0.0844367
0.0838642
0.109586
0.106305
0.103095
0.100109
0.0974518
0.0951731
0.0932858
0.0917869
0.0906663
0.0899073
0.0894867
0.0893745
0.0895351
0.0899283
0.0905106
0.091238
0.0920677
0.0929576
0.107269
0.101418
0.0964811
0.0929114
0.0908212
0.0901997
0.0909896
0.0931019
0.0964212
0.100811
0.106115
0.112164
0.11878
0.125783
0.132996
0.140256
0.147423
0.154332
0.0944153
0.0791945
0.0672884
0.057921
0.0505592
0.0448175
0.0404104
0.0371184
0.0347669
0.0332128
0.0323353
0.032029
0.0321997
0.0327619
0.0336367
0.0347517
0.0360414
0.037442
0.020481
0.0335929
0.0367902
0.0381516
0.0385025
0.0380317
0.0374097
0.0375479
0.0377327
0.0375305
0.0368407
0.0362214
0.0360347
0.037797
0.0433701
0.0484824
0.0538973
0.0599783
0.0669652
0.0750656
0.0845004
0.0955228
0.108458
0.123568
0.139376
0.154756
0.16881
0.180309
0.187637
0.188775
0.181338
0.162785
0.131643
0.0912217
0.0568902
0.0342866
0.0224908
0.0197493
0.0203575
0.0214644
0.0225928
0.0237297
0.0249066
0.0263918
0.0281655
0.0293012
0.0286863
0.026768
0.0243288
0.0221701
0.0207993
0.0208804
0.0232838
0.028419
0.0366225
0.0481579
0.0612315
0.0846989
0.136239
0.207114
0.271694
0.329471
0.378336
0.417602
0.4474
0.468325
0.481214
0.48701
0.486681
0.481177
0.471395
0.458164
0.44222
0.424188
0.4051
0.385876
0.366641
0.347521
0.32864
0.310102
0.291999
0.274404
0.257377
0.240961
0.225183
0.210052
0.195557
0.181671
0.168348
0.15553
0.143157
0.131171
0.119536
0.10824
0.0973069
0.086815
0.0769403
0.0680869
0.062177
0.0614444
0.0619622
0.062891
0.0641831
0.0658577
0.0679307
0.070403
0.0732577
0.0764588
0.0799519
0.0836656
0.0875147
0.091406
0.0952378
0.0989119
0.102361
0.105169
0.106764
0.106873
0.105256
0.101719
0.0960838
0.0879646
0.0764634
0.0591058
0.0419353
0.0297898
0.0217104
0.0168839
0.0144491
0.0135918
0.0136437
0.0141161
0.0146822
0.0151418
0.015386
0.0153697
0.0150923
0.0145909
0.0139577
0.0133796
0.0128751
0.0124259
0.012073
0.0119027
0.0120231
0.0125966
0.0140088
0.0170071
0.0225071
0.0316315
0.044158
0.064635
0.10037
0.124739
0.135016
0.132084
0.118618
0.0978724
0.0729746
0.047114
0.0479152
0.048565
0.0486161
0.0478559
0.0461334
0.0436591
0.042183
0.043683
0.0526142
0.0673688
0.0825841
0.098543
0.114604
0.130382
0.141
0.139981
0.125032
0.0970694
0.0626438
0.0372521
0.0140365
0.0281796
0.0280503
0.0253867
0.0246836
0.0284645
0.0344465
0.0380647
0.0390961
0.0385968
0.0373388
0.0356961
0.0338818
0.0320373
0.0302882
0.0286747
0.0272051
0.0258743
0.0246758
0.0236065
0.0226712
0.0218819
0.0212608
0.02093
0.0224207
0.0262734
0.0324554
0.0407333
0.0505938
0.0612047
0.0714103
0.0797398
0.0845848
0.0855674
0.0841884
0.0789617
0.0669867
0.0506031
0.0365884
0.0274409
0.02174
0.0194614
0.0208265
0.0243992
0.0291991
0.0335674
0.0351686
0.0331407
0.0290088
0.0251296
0.0238923
0.0274759
0.0391284
0.0615086
0.0909575
0.114007
0.125998
0.13745
0.150181
0.1608
0.166916
0.169059
0.168007
0.164748
0.160245
0.155314
0.150578
0.146459
0.143216
0.140995
0.139881
0.139933
0.141203
0.143754
0.147063
0.150424
0.153838
0.157315
0.160865
0.164498
0.16822
0.172032
0.175925
0.179874
0.183832
0.187719
0.191419
0.194768
0.197557
0.199536
0.200432
0.199972
0.197923
0.194126
0.188517
0.181139
0.172111
0.161639
0.150051
0.139693
0.12992
0.120541
0.111655
0.103328
0.095588
0.0884368
0.0818544
0.0758063
0.07025
0.0651382
0.0604227
0.0560567
0.0519961
0.0482007
0.0446373
0.0413934
0.0385799
0.0361409
0.0340179
0.0321443
0.0304537
0.0289157
0.0276134
0.0271189
0.0267421
0.0270158
0.0282871
0.0306522
0.0339448
0.0378031
0.0417879
0.0454961
0.0486278
0.0509968
0.0525072
0.0531185
0.0528167
0.0515956
0.0494433
0.0463076
0.0422733
0.0375238
0.032295
0.0270218
0.0224685
0.0192882
0.0178178
0.0187423
0.0241238
0.0356397
0.0456705
0.0525083
0.0573013
0.0579666
0.0565865
0.055039
0.0544121
0.0550989
0.0569941
0.0593272
0.062237
0.0648373
0.0666415
0.0670337
0.0653475
0.0608776
0.0552443
0.0493369
0.0434343
0.0384458
0.0343334
0.0309076
0.0280051
0.0256161
0.0255461
0.0287716
0.0323427
0.0343501
0.0377404
0.044835
0.00890393
0.01869
0.0204108
0.0205256
0.0276806
0.0366748
0.040051
0.0387373
0.0355346
0.0321592
0.0292428
0.026892
0.0250335
0.0235487
0.0223197
0.0212461
0.0202536
0.0192967
0.0183561
0.0174329
0.0165403
0.0156974
0.0149233
0.014236
0.0136767
0.0135126
0.0140434
0.0156467
0.0186715
0.0232753
0.0292736
0.0360821
0.042824
0.0488497
0.054151
0.0582862
0.0596998
0.0565193
0.0484289
0.0380172
0.0287625
0.0226985
0.0204486
0.0224204
0.0273916
0.0335843
0.0382356
0.0387407
0.0360234
0.0355807
0.0437256
0.0642258
0.0907754
0.105505
0.10871
0.110394
0.111612
0.113425
0.1153
0.116409
0.116741
0.116832
0.11715
0.11797
0.11934
0.121154
0.123255
0.125518
0.127876
0.130316
0.132848
0.135472
0.138171
0.140936
0.143774
0.146673
0.149638
0.152684
0.155841
0.159147
0.162643
0.166377
0.170387
0.1747
0.179317
0.184201
0.189265
0.194355
0.199247
0.20364
0.207177
0.20947
0.210146
0.208903
0.205552
0.200039
0.192421
0.182833
0.171853
0.161517
0.15125
0.141162
0.131425
0.122154
0.113418
0.105252
0.0976643
0.0906433
0.0841657
0.0781995
0.0727081
0.0676529
0.0629947
0.0586939
0.0547129
0.0510142
0.047546
0.0442232
0.0410438
0.0379938
0.0350836
0.0323591
0.0299056
0.0278328
0.0261577
0.0248963
0.0240659
0.023671
0.0236946
0.0240968
0.0248152
0.0257642
0.0268385
0.0279221
0.0289003
0.0296698
0.0301441
0.030252
0.0299262
0.0290955
0.027709
0.0257571
0.0233005
0.0205742
0.0180084
0.0163303
0.0163716
0.0197753
0.0281087
0.0378842
0.0411472
0.0430357
0.0447459
0.0459687
0.0470343
0.0479628
0.048963
0.0502841
0.0519311
0.0539184
0.0561236
0.0583464
0.0602033
0.0611258
0.0603886
0.0572558
0.0530215
0.048208
0.0433154
0.0388056
0.0348672
0.0315343
0.0287596
0.0264623
0.0245288
0.02281
0.0215501
0.0209182
0.0212817
0.0227985
0.00426788
0.0133406
0.0199617
0.0369773
0.0461551
0.0448956
0.039647
0.0343376
0.0302459
0.0274234
0.0255742
0.0243813
0.0235758
0.0229413
0.0223144
0.0215867
0.0207034
0.01966
0.0184916
0.0172574
0.0160232
0.014848
0.0137744
0.0128271
0.0120185
0.0113741
0.010969
0.0108969
0.0113581
0.0126226
0.014939
0.018382
0.0227365
0.0276
0.032653
0.0375954
0.0418153
0.044184
0.0434476
0.0394867
0.0339376
0.0290047
0.0262495
0.0271144
0.0322779
0.040403
0.0484106
0.0525793
0.0562338
0.0660737
0.0819584
0.094815
0.0980979
0.0969731
0.0950399
0.0943243
0.0947943
0.0962377
0.098255
0.100619
0.103324
0.10634
0.109503
0.112592
0.115426
0.117932
0.12014
0.122135
0.123999
0.125784
0.127506
0.12916
0.130727
0.132261
0.13376
0.135213
0.136622
0.138009
0.139421
0.140926
0.142617
0.1446
0.146988
0.14989
0.153395
0.157557
0.162374
0.167768
0.173566
0.179487
0.185146
0.190077
0.193777
0.195782
0.19572
0.193378
0.188667
0.181581
0.173281
0.164682
0.155701
0.1466
0.137598
0.12885
0.120463
0.112504
0.105011
0.0979988
0.0914651
0.0853979
0.0797773
0.0745782
0.0697728
0.0653316
0.061225
0.0574237
0.0538931
0.0505783
0.0474431
0.0444634
0.0416193
0.0389121
0.0363667
0.0340235
0.0319159
0.0300617
0.028465
0.0271182
0.0260061
0.0251096
0.0244092
0.0238833
0.0235067
0.023248
0.0230699
0.0229312
0.0227888
0.0225982
0.0223093
0.0218638
0.021204
0.0202755
0.0190264
0.0175147
0.0161604
0.0157005
0.0172929
0.0225297
0.0306693
0.0362494
0.0371465
0.0390633
0.0413702
0.0430557
0.0437186
0.0437595
0.0438151
0.0441795
0.0449248
0.0460086
0.0474285
0.0491172
0.0508357
0.0520984
0.0521637
0.0503706
0.0474278
0.043699
0.0397162
0.0359077
0.0325174
0.0296441
0.0272934
0.0254148
0.0239315
0.0227461
0.0217015
0.0207205
0.0199123
0.0192481
0.00656973
0.0203168
0.0500756
0.0503547
0.0427728
0.0357012
0.0310271
0.0284707
0.0273314
0.027022
0.0271268
0.0273547
0.0274936
0.0273884
0.0269318
0.0260622
0.0247694
0.023107
0.0211908
0.0191681
0.0171871
0.015367
0.0137783
0.0124454
0.0113613
0.0105051
0.00987174
0.00944233
0.00925447
0.00941488
0.0100967
0.0114974
0.0137406
0.0167866
0.0204468
0.0244441
0.028413
0.0318064
0.0338682
0.0340363
0.0325877
0.0307578
0.0303379
0.033109
0.0408746
0.0533518
0.0673436
0.0787882
0.0850066
0.087161
0.0889606
0.0883896
0.0860144
0.0840119
0.0834233
0.0843989
0.0865825
0.0896011
0.0931051
0.0968102
0.100459
0.103805
0.106665
0.108981
0.110809
0.112268
0.113492
0.11459
0.11564
0.116686
0.117743
0.118803
0.11984
0.120836
0.121682
0.122317
0.122709
0.12286
0.122813
0.122655
0.122513
0.12255
0.122953
0.123917
0.125632
0.128258
0.131903
0.136597
0.142266
0.148707
0.155575
0.162384
0.168543
0.17345
0.176542
0.177423
0.175829
0.171784
0.166441
0.160067
0.152961
0.145429
0.137719
0.130019
0.122467
0.11516
0.108164
0.101519
0.0952478
0.0893582
0.0838485
0.0787094
0.0739265
0.0694818
0.0653546
0.0615222
0.0579602
0.0546396
0.0515231
0.0485929
0.0458272
0.0432106
0.0407377
0.0384137
0.0362503
0.0342586
0.0324444
0.0308061
0.0293357
0.0280215
0.0268509
0.0258122
0.024894
0.0240844
0.0233697
0.022734
0.0221588
0.0216228
0.0210987
0.0205517
0.0199404
0.0192128
0.0183027
0.0172395
0.0163957
0.0166163
0.0191673
0.0247895
0.030971
0.0337786
0.0349077
0.037691
0.0402676
0.0413448
0.0411071
0.0404781
0.0399933
0.0397848
0.0398632
0.0401661
0.0408182
0.0418964
0.043295
0.0446274
0.045166
0.0443364
0.042326
0.0394394
0.0361512
0.0328814
0.0299025
0.0273492
0.0252585
0.0236131
0.0223759
0.0214969
0.0209108
0.0204955
0.0201651
0.0198132
0.00757181
0.0429447
0.0423468
0.0352631
0.03054
0.0287055
0.0287564
0.0297603
0.0311215
0.0325035
0.0337243
0.0346672
0.0352101
0.0352288
0.0346125
0.0332777
0.0311983
0.028464
0.0253064
0.0220092
0.018862
0.0160928
0.0138057
0.0120025
0.0106278
0.00960648
0.0088724
0.00838566
0.00808059
0.00797027
0.00812025
0.00865159
0.00971465
0.0114293
0.013815
0.0167457
0.0199646
0.0231402
0.0258928
0.0278723
0.0290631
0.0302779
0.033424
0.0404039
0.0531367
0.072965
0.0938916
0.0960345
0.0875778
0.0828602
0.0797441
0.077319
0.0758983
0.0759591
0.0775115
0.0802431
0.0837274
0.0875559
0.0913543
0.0948091
0.0976989
0.0999252
0.101517
0.102596
0.103335
0.103909
0.104476
0.105161
0.106048
0.107175
0.108537
0.110086
0.111742
0.11318
0.114233
0.114803
0.114828
0.114296
0.113249
0.111791
0.110081
0.10833
0.106787
0.105723
0.10541
0.106098
0.107992
0.111222
0.115824
0.121708
0.128627
0.13616
0.143695
0.150549
0.156019
0.159531
0.160613
0.159472
0.156676
0.152544
0.147412
0.141586
0.135326
0.128839
0.122287
0.115792
0.109442
0.103302
0.0974153
0.0918099
0.0865025
0.0815002
0.0768029
0.0724046
0.068295
0.0644607
0.0608856
0.0575506
0.0544293
0.0515051
0.0487593
0.0461764
0.0437447
0.0414575
0.0393126
0.0373098
0.035448
0.0337243
0.0321327
0.0306655
0.0293137
0.0280695
0.0269255
0.0258758
0.0249142
0.0240342
0.0232276
0.0224829
0.021784
0.0211072
0.0204185
0.0196636
0.018782
0.0178385
0.0172471
0.0178938
0.0208384
0.0259228
0.0300368
0.0317784
0.0338868
0.0373468
0.0396702
0.0400495
0.0394167
0.0386795
0.0380656
0.0375346
0.0370407
0.0366081
0.0364834
0.0368881
0.037833
0.0390259
0.0397972
0.0395897
0.0383097
0.0361278
0.0334331
0.0306209
0.0279766
0.0256599
0.0237337
0.0222031
0.021048
0.0202426
0.0197635
0.0195775
0.019585
0.019655
0.00688931
0.032281
0.0307227
0.0289908
0.0295732
0.031646
0.0342465
0.0368137
0.0392189
0.041386
0.0432344
0.044683
0.0455738
0.0457342
0.0449902
0.0431655
0.0401375
0.0359727
0.0310979
0.025984
0.0211599
0.0170767
0.013884
0.0115207
0.00984265
0.00868098
0.00789456
0.00739592
0.00711288
0.00698009
0.00700161
0.0072321
0.00777232
0.0087456
0.0102542
0.0123159
0.0148154
0.0175456
0.0203174
0.0230342
0.0258631
0.0298598
0.037443
0.0510557
0.0717136
0.0978767
0.102874
0.0888516
0.0789126
0.0735006
0.0707071
0.0697055
0.0702634
0.0722053
0.0752072
0.0788549
0.0827279
0.0864499
0.0897286
0.092397
0.0944265
0.0959063
0.0970012
0.0979068
0.0988128
0.0998801
0.101227
0.102921
0.104978
0.107362
0.109989
0.112734
0.115321
0.117347
0.118655
0.119124
0.118674
0.117285
0.115006
0.111965
0.108372
0.10451
0.100712
0.0973384
0.094735
0.0932148
0.0930308
0.0943552
0.0972877
0.101824
0.107824
0.114992
0.122787
0.130483
0.137357
0.14265
0.145719
0.146834
0.146225
0.144144
0.140879
0.136715
0.131907
0.126666
0.121165
0.115541
0.109901
0.104326
0.0988782
0.0936052
0.0885403
0.0837067
0.0791187
0.0747834
0.0707016
0.0668693
0.0632782
0.0599169
0.0567698
0.0538229
0.0510609
0.0484698
0.0460374
0.043754
0.0416125
0.039607
0.0377319
0.0359811
0.0343476
0.0328237
0.0314017
0.0300744
0.0288358
0.0276813
0.0266066
0.025608
0.0246808
0.0238179
0.023008
0.022233
0.0214588
0.0206235
0.019676
0.0187294
0.0182375
0.0190897
0.0220452
0.0261632
0.0287469
0.030333
0.033522
0.037332
0.0392228
0.0392363
0.038677
0.0381585
0.0376189
0.036873
0.0358595
0.0347297
0.0338408
0.0335403
0.0339614
0.0348723
0.0356739
0.0358796
0.0351754
0.0335924
0.0314216
0.0290204
0.0266761
0.0245654
0.0227701
0.021312
0.0201845
0.0193749
0.0188755
0.0186725
0.0187425
0.0189822
0.00851048
0.0263634
0.0297714
0.0324398
0.0357987
0.039392
0.0429754
0.0463566
0.0494223
0.0521476
0.0545215
0.0564883
0.0579071
0.0585393
0.0580692
0.0561431
0.0524268
0.0467278
0.0398115
0.0323164
0.0251234
0.0191596
0.0146899
0.0115372
0.00945044
0.00810678
0.00724946
0.00671393
0.00641885
0.00628385
0.00627332
0.00639979
0.00672218
0.00733286
0.00833379
0.00980027
0.0117289
0.0140314
0.0166481
0.0196973
0.0237355
0.0304122
0.0422499
0.0607089
0.0865587
0.103365
0.0918731
0.0777566
0.0696561
0.0658774
0.064791
0.065545
0.0676762
0.0708046
0.0745336
0.0784696
0.08227
0.0856921
0.0886282
0.0911066
0.0932534
0.0952388
0.0972327
0.0993815
0.101799
0.104561
0.107703
0.111206
0.115001
0.118965
0.122932
0.12671
0.129888
0.132294
0.133748
0.134092
0.133198
0.130997
0.127493
0.12279
0.117102
0.110772
0.104256
0.0980728
0.0927222
0.0886305
0.0861138
0.0853079
0.0862914
0.08908
0.0935758
0.0996101
0.106812
0.11437
0.121767
0.12772
0.132174
0.134968
0.136119
0.135777
0.134163
0.131521
0.128083
0.12405
0.119594
0.114857
0.109953
0.104976
0.100003
0.0950948
0.090301
0.0856594
0.0811982
0.0769373
0.072889
0.0690593
0.0654487
0.0620533
0.058867
0.0558788
0.0530773
0.0504509
0.0479885
0.0456802
0.043517
0.0414908
0.0395936
0.0378174
0.0361542
0.0345958
0.0331346
0.0317637
0.0304775
0.0292714
0.0281419
0.027086
0.0261003
0.025179
0.0243126
0.0234844
0.022656
0.0217553
0.0207385
0.0197547
0.0192829
0.0201699
0.0228351
0.0259184
0.0275559
0.0293548
0.0332354
0.0372654
0.0388824
0.0388523
0.0386247
0.0384889
0.0381363
0.0372223
0.0357259
0.033958
0.0323734
0.0313854
0.0312492
0.0317646
0.0325257
0.0329885
0.0327294
0.0316457
0.0299283
0.0278899
0.0258132
0.0238866
0.022207
0.0208092
0.0196967
0.0188636
0.0183059
0.0180181
0.0179845
0.0181617
0.0128162
0.0315946
0.0356363
0.039756
0.04439
0.0490036
0.0531718
0.0568576
0.0601918
0.0633142
0.0662955
0.0690942
0.0715231
0.0732292
0.0736994
0.0723196
0.068522
0.0620359
0.0531615
0.0428728
0.0324373
0.0235995
0.0171089
0.0125888
0.00976758
0.0080671
0.00703852
0.00642365
0.00606201
0.00588318
0.00583301
0.00590227
0.00612088
0.00655406
0.00728427
0.00839312
0.00993363
0.0119137
0.014391
0.0177086
0.0229251
0.0321617
0.0470903
0.068164
0.0919061
0.0937794
0.0788377
0.0678832
0.0624967
0.0607906
0.0613999
0.0635395
0.0667126
0.0705182
0.0745953
0.078643
0.0824653
0.0859991
0.0893
0.092487
0.0956808
0.0989731
0.102432
0.106117
0.110081
0.114357
0.118942
0.123779
0.128757
0.133711
0.138438
0.14271
0.14621
0.148875
0.150514
0.150939
0.149992
0.147551
0.143556
0.138015
0.131043
0.122906
0.114067
0.105205
0.0970284
0.0901788
0.0852107
0.082223
0.0812177
0.082177
0.0849688
0.0894649
0.0955835
0.102246
0.109035
0.115308
0.120557
0.124461
0.126905
0.127936
0.127697
0.126378
0.124173
0.121261
0.117801
0.113929
0.109761
0.105395
0.100917
0.0963977
0.0918988
0.0874708
0.0831546
0.0789822
0.0749774
0.0711561
0.0675279
0.0640971
0.0608658
0.0578264
0.0549718
0.0522935
0.0497823
0.0474293
0.0452252
0.0431611
0.0412282
0.0394173
0.0377198
0.0361269
0.0346306
0.0332241
0.0319015
0.0306585
0.0294917
0.0283988
0.0273772
0.0264227
0.0255274
0.0246747
0.0238225
0.0228906
0.0218358
0.0208194
0.0203206
0.0211115
0.0233237
0.0254977
0.0265936
0.02864
0.0328658
0.0368763
0.0384928
0.0387349
0.0389615
0.0392878
0.0391468
0.0380424
0.036103
0.0337879
0.0316188
0.0300448
0.0293366
0.0294803
0.0301398
0.0307678
0.0308556
0.0301812
0.0288429
0.0271105
0.0252606
0.0234908
0.0219104
0.020565
0.0194653
0.0186092
0.0179931
0.0176123
0.0174551
0.0174917
0.0203811
0.039243
0.0438898
0.0490566
0.0542423
0.058874
0.0627576
0.0661522
0.0693916
0.0727711
0.0764674
0.0804901
0.0846388
0.0884547
0.0911828
0.0917962
0.0891725
0.082501
0.0718493
0.0585145
0.0446454
0.0322474
0.0224582
0.0154415
0.0111504
0.00870035
0.00724735
0.00642793
0.00596511
0.00571732
0.00562342
0.00564845
0.00580508
0.00614251
0.00672961
0.00764485
0.00896794
0.010773
0.0132364
0.0169742
0.0235069
0.0348359
0.0512735
0.072767
0.0879735
0.0803415
0.0677702
0.0603685
0.0575435
0.0576534
0.0595999
0.0627216
0.0665767
0.0708202
0.0751834
0.0795007
0.0837283
0.0879169
0.0921406
0.0964357
0.100796
0.105211
0.109707
0.114344
0.119185
0.124268
0.129575
0.135028
0.140492
0.145789
0.150704
0.154984
0.158509
0.161197
0.162858
0.163303
0.162374
0.159953
0.15597
0.150389
0.143214
0.134538
0.124627
0.11416
0.103976
0.0948376
0.0877502
0.0828471
0.080069
0.0793654
0.0805539
0.0834368
0.0878147
0.093319
0.0994278
0.105524
0.111038
0.115557
0.118863
0.120905
0.12175
0.121527
0.120386
0.118474
0.115929
0.112872
0.109414
0.105652
0.101672
0.0975536
0.0933657
0.089169
0.0850149
0.0809465
0.0769977
0.0731945
0.0695555
0.0660931
0.0628177
0.0597248
0.0568118
0.0540738
0.051504
0.0490948
0.0468378
0.0447241
0.0427444
0.0408895
0.03915
0.0375171
0.0359826
0.0345391
0.0331808
0.0319029
0.0307023
0.0295767
0.0285245
0.0275426
0.0266251
0.0257568
0.0248945
0.0239553
0.0228922
0.0218575
0.0213057
0.0219199
0.0236362
0.0250837
0.0258502
0.0280004
0.032246
0.0361675
0.0379886
0.038658
0.0393051
0.0399343
0.0399119
0.038765
0.036594
0.0338811
0.0312043
0.0291044
0.0279332
0.0277701
0.0283461
0.0291093
0.0294796
0.029136
0.0281012
0.0266114
0.0249399
0.0232938
0.021793
0.0204915
0.0194054
0.0185352
0.017877
0.0174244
0.0171658
0.0170784
0.0263048
0.0483993
0.05431
0.0593802
0.0635142
0.0667095
0.0693224
0.0716016
0.074151
0.0774519
0.0818014
0.0873005
0.0938224
0.100925
0.107707
0.112683
0.113846
0.109228
0.0980184
0.0815745
0.063056
0.0456876
0.0314975
0.0212114
0.0145423
0.0105683
0.00822153
0.00693589
0.00621582
0.00581944
0.00565154
0.00562716
0.00573016
0.00600441
0.0065168
0.00735019
0.00860257
0.0103997
0.0130543
0.0174674
0.0253723
0.0379393
0.0547113
0.0735729
0.0782886
0.0684682
0.059403
0.0550609
0.0543026
0.0558097
0.0587313
0.0625444
0.0668952
0.0715305
0.076298
0.081154
0.0861254
0.0912286
0.0964098
0.101565
0.106616
0.111565
0.116494
0.121512
0.126702
0.132088
0.137622
0.143195
0.148652
0.153807
0.158458
0.16237
0.165577
0.167974
0.169386
0.169624
0.168527
0.165996
0.162006
0.156562
0.149661
0.141315
0.131477
0.120647
0.109774
0.0994278
0.0910806
0.0849277
0.080887
0.0788054
0.0785073
0.079886
0.0828441
0.0871601
0.0924168
0.0980515
0.103487
0.10826
0.112077
0.114815
0.116473
0.117122
0.116865
0.115815
0.114083
0.111771
0.108977
0.105791
0.102299
0.0985808
0.0947108
0.0907564
0.0867776
0.0828264
0.0789464
0.0751724
0.0715317
0.068046
0.0647313
0.0615868
0.0586151
0.0558151
0.0531828
0.0507124
0.0483964
0.0462265
0.0441935
0.0422882
0.0405012
0.0388235
0.0372466
0.0357631
0.0343669
0.0330531
0.0318182
0.03066
0.0295772
0.0285679
0.0276277
0.0267431
0.025873
0.0249363
0.0238804
0.0228373
0.0222192
0.022621
0.0238766
0.0247705
0.0252852
0.0273406
0.0313485
0.0351449
0.0372597
0.0383752
0.0393391
0.0401178
0.0401678
0.0390116
0.0367018
0.0337301
0.0307152
0.0282573
0.0267853
0.026449
0.0270211
0.0279355
0.0285493
0.0284664
0.0276582
0.026343
0.0247977
0.0232394
0.021797
0.0205301
0.0194589
0.0185856
0.0179068
0.0174157
0.0171014
0.016945
0.0310206
0.0562791
0.0620153
0.0660853
0.068582
0.0697378
0.0701591
0.0704726
0.0717244
0.0745084
0.0791945
0.0859897
0.0949563
0.105929
0.118267
0.130386
0.139314
0.141031
0.132438
0.114092
0.0904529
0.0666963
0.0462491
0.0307112
0.0202762
0.0140096
0.0104521
0.00838002
0.00712736
0.00637976
0.00599024
0.00587677
0.00591185
0.00613883
0.0066298
0.00747759
0.00879607
0.0107612
0.0138334
0.0191403
0.0281929
0.0410579
0.0571782
0.0699561
0.0677877
0.0592936
0.0534331
0.0514662
0.0522496
0.0547678
0.0583835
0.0627048
0.0674773
0.0725514
0.0778758
0.0834555
0.0892604
0.0951593
0.100954
0.10649
0.111737
0.116792
0.121808
0.126924
0.132212
0.137656
0.143157
0.148556
0.15366
0.158266
0.162209
0.165367
0.167871
0.169649
0.170563
0.170418
0.169017
0.166243
0.162099
0.156664
0.149974
0.14219
0.133025
0.122561
0.112109
0.102146
0.0935101
0.0867109
0.0818835
0.0788858
0.0775381
0.0777747
0.0795924
0.0828848
0.0873318
0.0924296
0.0976186
0.102417
0.106496
0.109681
0.11192
0.113237
0.113694
0.113367
0.112337
0.110687
0.108497
0.105848
0.10282
0.0994906
0.0959363
0.0922286
0.0884333
0.0846098
0.0808094
0.0770753
0.0734429
0.0699467
0.0665964
0.0634038
0.060376
0.0575155
0.054821
0.0522885
0.0499118
0.0476834
0.0455945
0.0436361
0.0417988
0.0400735
0.0384519
0.0369264
0.0354905
0.0341392
0.0328688
0.0316773
0.0305632
0.0295255
0.0285608
0.0276576
0.0267784
0.0258458
0.0248017
0.0237534
0.0230628
0.0232483
0.024118
0.0246029
0.0248751
0.0266482
0.0302208
0.0338222
0.0361978
0.0376946
0.0388766
0.039707
0.0397546
0.0385635
0.0361798
0.0330888
0.0299223
0.0273123
0.0257413
0.0254064
0.0260917
0.0271983
0.0280276
0.0281358
0.0274738
0.0262629
0.0247914
0.0232865
0.0218824
0.0206416
0.0195855
0.0187178
0.0180363
0.0175361
0.017209
0.0170403
0.0339436
0.0603071
0.0650847
0.067194
0.0671417
0.0656147
0.0636173
0.0621454
0.0617541
0.0636018
0.0680579
0.0754045
0.0858989
0.0998139
0.117355
0.137974
0.158784
0.173287
0.173571
0.156896
0.128916
0.0979023
0.0693955
0.0462877
0.0298481
0.0196684
0.0139678
0.0107553
0.00877436
0.00752008
0.00679042
0.0064657
0.00641507
0.00663537
0.00718701
0.00815795
0.00965969
0.0119146
0.0155491
0.0218222
0.0314355
0.0440093
0.0577746
0.0633482
0.0588785
0.0526079
0.0493031
0.0490815
0.0509623
0.0541871
0.0582952
0.0630127
0.0681855
0.0737574
0.0797271
0.0860503
0.0925505
0.0989428
0.10497
0.110531
0.115706
0.120688
0.12568
0.130824
0.136158
0.141602
0.146975
0.152029
0.156504
0.160196
0.163014
0.165039
0.166448
0.167279
0.167457
0.166791
0.165022
0.161984
0.157672
0.152199
0.145546
0.138196
0.129956
0.120838
0.111254
0.101916
0.09363
0.0869416
0.0819879
0.0786209
0.0766856
0.0761884
0.0772224
0.0797709
0.083584
0.0882064
0.0931072
0.0978142
0.101989
0.105436
0.108072
0.109885
0.1109
0.111163
0.110727
0.109651
0.107999
0.10584
0.103244
0.100285
0.0970383
0.0935763
0.0899689
0.0862806
0.0825691
0.0788848
0.0752705
0.071769
0.0683922
0.0651587
0.0620802
0.0591631
0.056409
0.0538161
0.0513798
0.0490934
0.0469488
0.0449372
0.0430494
0.0412765
0.0396099
0.0380419
0.0365659
0.0351769
0.0338708
0.0326456
0.0315
0.0304332
0.0294429
0.0285194
0.0276294
0.0267004
0.0256682
0.0246141
0.0238497
0.0238323
0.0244019
0.0246003
0.0246224
0.0259681
0.0289551
0.0322451
0.0347519
0.0365079
0.0378134
0.0386187
0.0385894
0.0373404
0.0349448
0.031871
0.0287408
0.0261956
0.0247476
0.0246081
0.0255348
0.0268753
0.0278848
0.0281058
0.0275049
0.0263284
0.0248829
0.0234024
0.0220211
0.0207995
0.0197576
0.0188994
0.0182242
0.0177304
0.0174134
0.0172632
0.0349492
0.0603773
0.0639625
0.0641031
0.0616264
0.0574956
0.0530288
0.0496248
0.0475937
0.0480732
0.0514463
0.0581769
0.0687011
0.0834355
0.103288
0.129856
0.163245
0.196858
0.215615
0.207927
0.178776
0.141166
0.103833
0.07107
0.0457158
0.0289727
0.0194905
0.014434
0.0114498
0.0094722
0.00822901
0.0076377
0.00755571
0.00781457
0.00848057
0.00962317
0.0113531
0.0139622
0.018153
0.0249503
0.0346049
0.0462676
0.0554106
0.0564617
0.0519903
0.0478719
0.0464811
0.0474948
0.0501284
0.0538323
0.058289
0.0633303
0.0688955
0.0749938
0.0816089
0.0885761
0.0955578
0.102175
0.108193
0.113612
0.11862
0.123484
0.128439
0.133613
0.138994
0.144415
0.149584
0.154154
0.157839
0.160437
0.161918
0.162575
0.162655
0.162305
0.161527
0.16018
0.157945
0.154603
0.150176
0.14475
0.138538
0.131676
0.124123
0.115893
0.107285
0.0989119
0.0914798
0.0854455
0.0808677
0.0775697
0.0754465
0.0746025
0.0752209
0.0773419
0.0807508
0.0850241
0.0896645
0.0942293
0.0983975
0.101975
0.104863
0.107027
0.108466
0.109197
0.10925
0.108663
0.107482
0.105761
0.103562
0.100952
0.0980012
0.0947817
0.0913647
0.0878179
0.084204
0.0805793
0.0769976
0.073498
0.0701022
0.0668341
0.0637105
0.0607414
0.0579317
0.0552819
0.0527887
0.0504468
0.0482487
0.0461859
0.0442496
0.0424307
0.0407207
0.0391118
0.0375973
0.0361717
0.0348311
0.0335732
0.0323967
0.0313012
0.0302851
0.0293406
0.0284391
0.0275135
0.0264935
0.0254331
0.0245969
0.0243958
0.0247439
0.0247673
0.0245497
0.0253812
0.0276749
0.0305087
0.0329567
0.0348091
0.0361352
0.0368503
0.0366966
0.0353899
0.0330506
0.0301246