/*--------------------------------*- C++ -*----------------------------------*\
  =========                 |
  \\      /  F ield         | OpenFOAM: The Open Source CFD Toolbox
   \\    /   O peration     | Website:  https://openfoam.org
    \\  /    A nd           | Version:  9
     \\/     M anipulation  |
\*---------------------------------------------------------------------------*/
FoamFile
{
    format      ascii;
    class       surfaceScalarField;
    location    "0.14";
    object      phi;
}
// * * * * * * * * * * * * * * * * * * * * * * * * * * * * * * * * * * * * * //

dimensions      [0 3 -1 0 0 0 0];

internalField   nonuniform List<scalar> 
24170
(
3.05588e-06
1.32524e-07
2.90571e-06
1.50176e-07
2.77212e-06
1.3359e-07
2.65233e-06
1.19782e-07
2.54621e-06
1.06124e-07
2.45563e-06
9.05776e-08
2.38158e-06
7.40564e-08
2.32444e-06
5.71369e-08
2.28486e-06
3.95833e-08
2.26315e-06
2.17012e-08
2.25965e-06
3.50198e-09
2.27471e-06
-1.50585e-08
2.30999e-06
-3.52815e-08
2.36967e-06
-5.96754e-08
2.46091e-06
-9.1247e-08
2.59844e-06
-1.3753e-07
2.82107e-06
-2.22623e-07
-4.21299e-07
3.24237e-06
3.49056e-06
5.92083e-08
3.54064e-06
1.00103e-07
3.57642e-06
9.78086e-08
3.60036e-06
9.58439e-08
3.61514e-06
9.13423e-08
3.62423e-06
8.1486e-08
3.63064e-06
6.76499e-08
3.63682e-06
5.09543e-08
3.64519e-06
3.1214e-08
3.65696e-06
9.92675e-09
3.67433e-06
-1.38669e-08
3.69985e-06
-4.05741e-08
3.73625e-06
-7.16848e-08
3.78696e-06
-1.10385e-07
3.85742e-06
-1.61708e-07
3.95692e-06
-2.37027e-07
4.09727e-06
-3.6297e-07
-5.90218e-07
4.26619e-06
3.6785e-06
4.32231e-08
3.69862e-06
7.99826e-08
3.72058e-06
7.58524e-08
3.74575e-06
7.06698e-08
3.77258e-06
6.45143e-08
3.80016e-06
5.39065e-08
3.82833e-06
3.9481e-08
3.85709e-06
2.21931e-08
3.88721e-06
1.09069e-09
3.91898e-06
-2.1836e-08
3.95436e-06
-4.92496e-08
3.99516e-06
-8.13775e-08
4.04343e-06
-1.19953e-07
4.10158e-06
-1.68535e-07
4.17308e-06
-2.33209e-07
4.26161e-06
-3.25557e-07
4.36441e-06
-4.65771e-07
-6.8704e-07
4.46123e-06
3.93525e-06
3.33625e-08
3.94996e-06
6.5276e-08
3.96372e-06
6.20906e-08
3.98014e-06
5.42463e-08
3.99928e-06
4.5371e-08
4.02082e-06
3.23741e-08
4.04498e-06
1.53215e-08
4.07188e-06
-4.71273e-09
4.10199e-06
-2.90179e-08
4.1361e-06
-5.59446e-08
4.17477e-06
-8.7919e-08
4.21913e-06
-1.25736e-07
4.27069e-06
-1.71513e-07
4.33122e-06
-2.29074e-07
4.4026e-06
-3.04583e-07
4.48522e-06
-4.08181e-07
4.57337e-06
-5.53919e-07
-7.62082e-07
4.64841e-06
4.21557e-06
2.49209e-08
4.22979e-06
5.10503e-08
4.24335e-06
4.85354e-08
4.25909e-06
3.85062e-08
4.27759e-06
2.687e-08
4.29856e-06
1.14024e-08
4.32226e-06
-8.37922e-09
4.34923e-06
-3.16786e-08
4.37945e-06
-5.92436e-08
4.41401e-06
-9.04961e-08
4.45327e-06
-1.27183e-07
4.49823e-06
-1.70696e-07
4.55003e-06
-2.23309e-07
4.60971e-06
-2.8876e-07
4.67774e-06
-3.7261e-07
4.75248e-06
-4.8292e-07
4.827e-06
-6.28443e-07
-8.19873e-07
4.88479e-06
4.51624e-06
1.7767e-08
4.52981e-06
3.74852e-08
4.54398e-06
3.43601e-08
4.56026e-06
2.22253e-08
4.57942e-06
7.71224e-09
4.60119e-06
-1.03701e-08
4.62568e-06
-3.28625e-08
4.65335e-06
-5.93578e-08
4.68435e-06
-9.02367e-08
4.7195e-06
-1.25644e-07
4.75923e-06
-1.6692e-07
4.80425e-06
-2.15711e-07
4.85522e-06
-2.74281e-07
4.91247e-06
-3.46008e-07
4.97532e-06
-4.35459e-07
5.04082e-06
-5.4842e-07
5.1019e-06
-6.89529e-07
-8.63357e-07
5.14539e-06
4.83881e-06
1.168e-08
4.8517e-06
2.4589e-08
4.86636e-06
1.97026e-08
4.88311e-06
5.47782e-09
4.90274e-06
-1.19205e-08
4.92514e-06
-3.27673e-08
4.9503e-06
-5.8029e-08
4.97859e-06
-8.76481e-08
5.01023e-06
-1.21869e-07
5.04575e-06
-1.61164e-07
5.08552e-06
-2.06691e-07
5.1299e-06
-2.60092e-07
5.17909e-06
-3.2347e-07
5.23273e-06
-3.99646e-07
5.28929e-06
-4.92027e-07
5.34517e-06
-6.04294e-07
5.39383e-06
-7.38186e-07
-8.94682e-07
5.42515e-06
5.18486e-06
6.40073e-09
5.19708e-06
1.23741e-08
5.21195e-06
4.8308e-09
5.22903e-06
-1.16015e-08
5.24898e-06
-3.18744e-08
5.27182e-06
-5.56033e-08
5.29747e-06
-8.36812e-08
5.32614e-06
-1.16319e-07
5.35803e-06
-1.53756e-07
5.39343e-06
-1.9657e-07
5.43256e-06
-2.45815e-07
5.47544e-06
-3.02972e-07
5.52181e-06
-3.69839e-07
5.57073e-06
-4.48575e-07
5.62014e-06
-5.41436e-07
5.66622e-06
-6.50374e-07
5.70326e-06
-7.75226e-07
-9.15081e-07
5.72366e-06
5.55601e-06
1.73045e-09
5.56752e-06
8.5821e-10
5.58237e-06
-1.00201e-08
5.59966e-06
-2.88833e-08
5.61978e-06
-5.20022e-08
5.64282e-06
-7.8638e-08
5.66864e-06
-1.09502e-07
5.6973e-06
-1.44982e-07
5.72892e-06
-1.8537e-07
5.76358e-06
-2.31237e-07
5.80128e-06
-2.83512e-07
5.84174e-06
-3.43426e-07
5.88427e-06
-4.12376e-07
5.92753e-06
-4.91834e-07
5.96914e-06
-5.83041e-07
6.0054e-06
-6.86637e-07
6.03149e-06
-8.01314e-07
-9.25315e-07
6.04172e-06
5.95398e-06
-2.47087e-09
5.9648e-06
-9.96029e-09
5.97942e-06
-2.46482e-08
5.99672e-06
-4.61836e-08
6.01682e-06
-7.20951e-08
6.03974e-06
-1.01565e-07
6.06534e-06
-1.35102e-07
6.09354e-06
-1.73182e-07
6.12431e-06
-2.1614e-07
6.15756e-06
-2.64485e-07
6.19303e-06
-3.18977e-07
6.23015e-06
-3.80546e-07
6.26792e-06
-4.50152e-07
6.30471e-06
-5.28624e-07
6.33805e-06
-6.16378e-07
6.36455e-06
-7.13142e-07
6.38025e-06
-8.17008e-07
-9.2599e-07
6.38092e-06
6.38063e-06
-6.29045e-09
6.39076e-06
-2.00882e-08
6.40497e-06
-3.88606e-08
6.42205e-06
-6.32632e-08
6.44185e-06
-9.18889e-08
6.46432e-06
-1.24037e-07
6.48926e-06
-1.60047e-07
6.51648e-06
-2.00396e-07
6.54577e-06
-2.45435e-07
6.57686e-06
-2.95577e-07
6.60926e-06
-3.51377e-07
6.64217e-06
-4.13451e-07
6.67435e-06
-4.82329e-07
6.70401e-06
-5.58292e-07
6.72877e-06
-6.41136e-07
6.74565e-06
-7.30018e-07
6.75143e-06
-8.22794e-07
-9.17578e-07
6.74302e-06
5.74382e-06
-9.2735e-09
5.75183e-06
-2.81047e-08
5.76337e-06
-5.03979e-08
5.77742e-06
-7.73098e-08
5.79367e-06
-1.0814e-07
5.812e-06
-1.42368e-07
5.83219e-06
-1.80238e-07
5.85398e-06
-2.22183e-07
5.87707e-06
-2.68531e-07
5.9011e-06
-3.19601e-07
5.92548e-06
-3.75763e-07
5.94941e-06
-4.37375e-07
5.97172e-06
-5.04638e-07
5.99088e-06
-5.77457e-07
6.005e-06
-6.55257e-07
6.0119e-06
-7.36915e-07
6.00938e-06
-8.20278e-07
-9.03668e-07
5.99547e-06
7.00131e-06
-1.24286e-08
7.00986e-06
-3.66557e-08
7.02238e-06
-6.29189e-08
7.03778e-06
-9.27053e-08
7.05556e-06
-1.25918e-07
7.07546e-06
-1.62268e-07
7.09715e-06
-2.01931e-07
7.12023e-06
-2.45265e-07
7.14424e-06
-2.92542e-07
7.1686e-06
-3.43957e-07
7.19251e-06
-3.99678e-07
7.21493e-06
-4.59788e-07
7.23446e-06
-5.24174e-07
7.24942e-06
-5.92419e-07
7.25785e-06
-6.63679e-07
7.25762e-06
-7.36692e-07
7.24678e-06
-8.09434e-07
-8.80537e-07
7.22365e-06
8.53409e-06
-1.56766e-08
8.54293e-06
-4.54887e-08
8.55603e-06
-7.60203e-08
8.57225e-06
-1.08927e-07
8.59091e-06
-1.44572e-07
8.61154e-06
-1.82906e-07
8.63369e-06
-2.24072e-07
8.65675e-06
-2.68331e-07
8.68007e-06
-3.15858e-07
8.70282e-06
-3.6671e-07
8.72399e-06
-4.20846e-07
8.7423e-06
-4.78096e-07
8.7562e-06
-5.38082e-07
8.76394e-06
-6.00159e-07
8.76361e-06
-6.63344e-07
8.7533e-06
-7.26387e-07
8.73138e-06
-7.87512e-07
-8.45717e-07
8.69656e-06
1.04024e-05
-1.88784e-08
1.04111e-05
-5.41852e-08
1.04241e-05
-8.90043e-08
1.04402e-05
-1.25027e-07
1.04585e-05
-1.62912e-07
1.04785e-05
-2.02817e-07
1.04993e-05
-2.44878e-07
1.05202e-05
-2.89249e-07
1.05403e-05
-3.35991e-07
1.05586e-05
-3.85017e-07
1.05739e-05
-4.36105e-07
1.05847e-05
-4.88886e-07
1.05894e-05
-5.4281e-07
1.05864e-05
-5.97123e-07
1.05739e-05
-6.50845e-07
1.05503e-05
-7.02867e-07
1.05146e-05
-7.51745e-07
-7.96858e-07
1.04657e-05
1.26797e-05
-2.18117e-08
1.26876e-05
-6.20889e-08
1.26994e-05
-1.00776e-07
1.27139e-05
-1.39492e-07
1.273e-05
-1.79038e-07
1.27469e-05
-2.19713e-07
1.27637e-05
-2.61653e-07
1.27793e-05
-3.04927e-07
1.27928e-05
-3.49479e-07
1.28029e-05
-3.95108e-07
1.28083e-05
-4.41469e-07
1.28075e-05
-4.88087e-07
1.2799e-05
-5.34354e-07
1.27814e-05
-5.79535e-07
1.27534e-05
-6.22778e-07
1.27137e-05
-6.63205e-07
1.26617e-05
-6.99752e-07
-7.32139e-07
1.2597e-05
1.54555e-05
-2.41434e-08
1.54617e-05
-6.82453e-08
1.54707e-05
-1.09768e-07
1.54813e-05
-1.50161e-07
1.54925e-05
-1.90247e-07
1.55032e-05
-2.30397e-07
1.55123e-05
-2.70757e-07
1.55187e-05
-3.11337e-07
1.55213e-05
-3.5201e-07
1.55187e-05
-3.92514e-07
1.55097e-05
-4.32471e-07
1.5493e-05
-4.71405e-07
1.54674e-05
-5.08765e-07
1.54318e-05
-5.43946e-07
1.53853e-05
-5.76307e-07
1.53274e-05
-6.0525e-07
1.52577e-05
-6.30086e-07
-6.50808e-07
1.51764e-05
1.88389e-05
-2.53936e-08
1.88421e-05
-7.14167e-08
1.88463e-05
-1.13996e-07
1.88505e-05
-1.54328e-07
1.88534e-05
-1.93188e-07
1.8854e-05
-2.30988e-07
1.88511e-05
-2.679e-07
1.88437e-05
-3.03928e-07
1.88306e-05
-3.38937e-07
1.88108e-05
-3.72685e-07
1.87832e-05
-4.0485e-07
1.87468e-05
-4.35052e-07
1.8701e-05
-4.62886e-07
1.8645e-05
-4.8794e-07
1.85785e-05
-5.09817e-07
1.85014e-05
-5.28189e-07
1.8414e-05
-5.4269e-07
-5.53488e-07
1.83167e-05
2.29628e-05
-2.48809e-08
2.29616e-05
-7.01854e-08
2.29589e-05
-1.11275e-07
2.29536e-05
-1.49083e-07
2.29448e-05
-1.84342e-07
2.29313e-05
-2.17539e-07
2.29124e-05
-2.48922e-07
2.2887e-05
-2.78541e-07
2.28544e-05
-3.06321e-07
2.28138e-05
-3.32114e-07
2.27647e-05
-3.55724e-07
2.27065e-05
-3.76926e-07
2.26391e-05
-3.95493e-07
2.25624e-05
-4.11216e-07
2.24765e-05
-4.23921e-07
2.23818e-05
-4.33498e-07
2.2279e-05
-4.39829e-07
-4.43158e-07
2.21686e-05
1.68095e-05
-2.37181e-08
1.68065e-05
-6.71247e-08
1.6801e-05
-1.05805e-07
1.67924e-05
-1.40522e-07
1.67802e-05
-1.72087e-07
1.67638e-05
-2.01135e-07
1.67429e-05
-2.27987e-07
1.6717e-05
-2.52729e-07
1.66861e-05
-2.75344e-07
1.66497e-05
-2.95766e-07
1.66079e-05
-3.13894e-07
1.65606e-05
-3.29603e-07
1.65078e-05
-3.42773e-07
1.64499e-05
-3.53305e-07
1.63871e-05
-3.61136e-07
1.63199e-05
-3.66257e-07
1.62487e-05
-3.68656e-07
-3.68581e-07
1.61742e-05
1.46334e-05
-2.25266e-08
1.463e-05
-6.37734e-08
1.46239e-05
-9.97073e-08
1.46144e-05
-1.30996e-07
1.4601e-05
-1.58728e-07
1.45837e-05
-1.8376e-07
1.45621e-05
-2.06454e-07
1.45363e-05
-2.26907e-07
1.45061e-05
-2.45164e-07
1.44716e-05
-2.61242e-07
1.44328e-05
-2.7511e-07
1.43899e-05
-2.86713e-07
1.43432e-05
-2.95998e-07
1.42928e-05
-3.02939e-07
1.42392e-05
-3.07539e-07
1.41828e-05
-3.09842e-07
1.4124e-05
-3.09894e-07
-3.0793e-07
1.40634e-05
1.27392e-05
-2.16141e-08
1.27365e-05
-6.10083e-08
1.27309e-05
-9.4145e-08
1.27217e-05
-1.21837e-07
1.27088e-05
-1.45792e-07
1.26922e-05
-1.67116e-07
1.26718e-05
-1.86098e-07
1.26477e-05
-2.02816e-07
1.26199e-05
-2.17392e-07
1.25886e-05
-2.2992e-07
1.25539e-05
-2.40419e-07
1.25161e-05
-2.48876e-07
1.24754e-05
-2.55285e-07
1.24321e-05
-2.59664e-07
1.23866e-05
-2.62051e-07
1.23393e-05
-2.62517e-07
1.22905e-05
-2.61128e-07
-2.58085e-07
1.22407e-05
1.10905e-05
-2.12096e-08
1.10889e-05
-5.93966e-08
1.10845e-05
-8.97264e-08
1.10763e-05
-1.13653e-07
1.10645e-05
-1.33964e-07
1.10493e-05
-1.51922e-07
1.10308e-05
-1.6761e-07
1.10091e-05
-1.81086e-07
1.09842e-05
-1.92561e-07
1.09565e-05
-2.02179e-07
1.09261e-05
-2.09979e-07
1.08932e-05
-2.15976e-07
1.08581e-05
-2.20196e-07
1.08211e-05
-2.22684e-07
1.07825e-05
-2.23501e-07
1.07428e-05
-2.22731e-07
1.07021e-05
-2.20463e-07
-2.16891e-07
1.06609e-05
9.65557e-06
-2.15643e-08
9.65543e-06
-5.92562e-08
9.65229e-06
-8.65892e-08
9.6453e-06
-1.06664e-07
9.63495e-06
-1.23613e-07
9.62154e-06
-1.38513e-07
9.60512e-06
-1.51192e-07
9.58583e-06
-1.6179e-07
9.56388e-06
-1.70613e-07
9.53951e-06
-1.7781e-07
9.51295e-06
-1.83415e-07
9.48442e-06
-1.87452e-07
9.4542e-06
-1.89969e-07
9.42254e-06
-1.91026e-07
9.38973e-06
-1.90695e-07
9.35606e-06
-1.8906e-07
9.3218e-06
-1.862e-07
-1.82238e-07
9.28715e-06
8.40684e-06
-2.30525e-08
8.40842e-06
-6.0838e-08
8.40623e-06
-8.43953e-08
8.40022e-06
-1.00655e-07
8.39138e-06
-1.14775e-07
8.37987e-06
-1.27001e-07
8.36563e-06
-1.36953e-07
8.34883e-06
-1.44987e-07
8.32971e-06
-1.51493e-07
8.3085e-06
-1.56603e-07
8.28542e-06
-1.6034e-07
8.26071e-06
-1.62742e-07
8.23461e-06
-1.63867e-07
8.20737e-06
-1.63785e-07
8.17925e-06
-1.62571e-07
8.15049e-06
-1.60307e-07
8.12139e-06
-1.57094e-07
-1.53078e-07
8.09223e-06
7.32019e-06
-2.59621e-08
7.32398e-06
-6.4629e-08
7.32246e-06
-8.28699e-08
7.31705e-06
-9.52427e-08
7.30919e-06
-1.06912e-07
7.2989e-06
-1.1672e-07
7.28622e-06
-1.24269e-07
7.27138e-06
-1.30142e-07
7.25462e-06
-1.34734e-07
7.23615e-06
-1.38131e-07
7.21616e-06
-1.40359e-07
7.19489e-06
-1.4147e-07
7.17255e-06
-1.41529e-07
7.14937e-06
-1.40606e-07
7.12558e-06
-1.38779e-07
7.1014e-06
-1.36121e-07
7.07701e-06
-1.32706e-07
-1.28515e-07
7.05245e-06
6.37406e-06
-2.99548e-08
6.37987e-06
-7.04371e-08
6.37942e-06
-8.24275e-08
6.37557e-06
-9.13917e-08
6.36962e-06
-1.00957e-07
6.36153e-06
-1.08631e-07
6.35157e-06
-1.14315e-07
6.34015e-06
-1.18718e-07
6.32752e-06
-1.22103e-07
6.31385e-06
-1.24463e-07
6.29929e-06
-1.25799e-07
6.28397e-06
-1.26151e-07
6.26802e-06
-1.25576e-07
6.25155e-06
-1.24136e-07
6.23468e-06
-1.21907e-07
6.21754e-06
-1.18983e-07
6.20028e-06
-1.15448e-07
-1.11391e-07
6.18316e-06
5.55277e-06
-3.72622e-08
5.56175e-06
-7.94201e-08
5.56763e-06
-8.82995e-08
5.57325e-06
-9.70138e-08
5.5785e-06
-1.06208e-07
5.58272e-06
-1.12854e-07
5.58575e-06
-1.17338e-07
5.58748e-06
-1.20455e-07
5.58779e-06
-1.22413e-07
5.58654e-06
-1.23213e-07
5.58364e-06
-1.22898e-07
5.57905e-06
-1.2156e-07
5.57277e-06
-1.193e-07
5.56487e-06
-1.16231e-07
5.55543e-06
-1.1247e-07
5.54464e-06
-1.0819e-07
5.53268e-06
-1.03488e-07
-9.88369e-08
5.52012e-06
4.88727e-06
-9.69244e-08
4.93228e-06
-1.24428e-07
4.96668e-06
-1.22701e-07
4.99142e-06
-1.21753e-07
5.00641e-06
-1.21195e-07
5.01246e-06
-1.18914e-07
5.01057e-06
-1.15442e-07
5.00158e-06
-1.11467e-07
4.98634e-06
-1.07173e-07
4.9657e-06
-1.02574e-07
4.94051e-06
-9.77017e-08
4.91156e-06
-9.26163e-08
4.87964e-06
-8.73779e-08
4.84546e-06
-8.20496e-08
4.80969e-06
-7.66952e-08
4.77292e-06
-7.14211e-08
4.73571e-06
-6.62835e-08
-6.16967e-08
4.69857e-06
4.10575e-06
3.98132e-06
3.85862e-06
3.73687e-06
3.61567e-06
3.49676e-06
3.38132e-06
3.26985e-06
3.16268e-06
3.0601e-06
2.9624e-06
2.86979e-06
2.78241e-06
2.70036e-06
2.62366e-06
2.55224e-06
2.48596e-06
2.42426e-06
-5.46287e-07
5.46287e-07
-1.09097e-06
5.44688e-07
-1.58546e-06
4.94482e-07
-1.98608e-06
4.00628e-07
-2.24154e-06
2.55455e-07
-2.27392e-06
3.23819e-08
-2.04877e-06
-2.25153e-07
-1.51878e-06
-5.29991e-07
-7.10393e-07
-8.08385e-07
2.94357e-07
-1.00475e-06
1.41938e-06
-1.12502e-06
2.59471e-06
-1.17533e-06
3.75947e-06
-1.16477e-06
4.87634e-06
-1.11687e-06
5.92222e-06
-1.04588e-06
6.88437e-06
-9.62154e-07
7.75595e-06
-8.71575e-07
8.53293e-06
-7.76982e-07
9.21175e-06
-6.78823e-07
9.78781e-06
-5.76052e-07
1.02539e-05
-4.66061e-07
1.0599e-05
-3.45171e-07
1.08076e-05
-2.08596e-07
1.08598e-05
-5.21665e-08
1.07073e-05
1.52479e-07
1.03402e-05
3.67151e-07
9.75156e-06
5.88616e-07
8.94298e-06
8.08578e-07
7.92812e-06
1.01486e-06
6.73902e-06
1.1891e-06
5.43068e-06
1.30834e-06
4.08377e-06
1.34691e-06
2.82418e-06
1.2596e-06
1.81475e-06
1.00943e-06
1.13232e-06
6.82425e-07
6.98518e-07
4.33807e-07
3.82534e-07
3.15984e-07
1.67171e-08
3.65817e-07
-4.87095e-07
5.03812e-07
-1.05161e-06
5.64519e-07
-1.4991e-06
4.47483e-07
-1.63813e-06
1.39031e-07
-1.47545e-06
-1.62674e-07
-9.50314e-07
-5.2514e-07
-7.44555e-09
-9.42869e-07
1.20962e-06
-1.21706e-06
2.37583e-06
-1.16622e-06
3.19772e-06
-8.2189e-07
3.53212e-06
-3.34391e-07
3.42645e-06
1.05668e-07
3.12222e-06
3.04223e-07
2.88288e-06
2.39341e-07
2.85089e-06
3.19954e-08
2.93247e-06
-8.15845e-08
2.90339e-06
2.90784e-08
2.59666e-06
3.06732e-07
1.90503e-06
6.91632e-07
8.33854e-07
1.07118e-06
-5.22808e-07
1.35666e-06
-2.03655e-06
1.51374e-06
-3.59629e-06
1.55974e-06
-5.11731e-06
1.52102e-06
-6.53952e-06
1.42222e-06
-7.82531e-06
1.28578e-06
-8.95518e-06
1.12987e-06
-9.92289e-06
9.67709e-07
-1.07309e-05
8.08038e-07
-1.13869e-05
6.55964e-07
-1.19008e-05
5.13899e-07
-1.22834e-05
3.82639e-07
-1.25459e-05
2.62427e-07
-1.26992e-05
1.5336e-07
-1.27553e-05
5.61042e-08
-1.27332e-05
-2.21403e-08
-1.26468e-05
-8.63625e-08
-1.25054e-05
-1.41378e-07
-1.23149e-05
-1.90583e-07
-1.20791e-05
-2.35774e-07
-1.18012e-05
-2.77915e-07
-1.14834e-05
-3.17742e-07
-1.11275e-05
-3.55946e-07
-1.07343e-05
-3.9321e-07
-1.03041e-05
-4.30185e-07
-9.83667e-06
-4.67416e-07
-9.33141e-06
-5.05256e-07
-8.78765e-06
-5.43763e-07
-8.20504e-06
-5.8261e-07
-7.58401e-06
-6.21032e-07
-6.92619e-06
-6.5782e-07
-6.23479e-06
-6.91398e-07
-5.51481e-06
-7.19975e-07
-4.77304e-06
-7.41776e-07
-4.01775e-06
-7.55291e-07
-3.25832e-06
-7.59425e-07
-2.50472e-06
-7.53605e-07
-1.76686e-06
-7.3786e-07
-1.05368e-06
-7.13177e-07
-3.74554e-07
-6.79124e-07
2.66796e-07
-6.41351e-07
8.64104e-07
-5.97308e-07
1.41493e-06
-5.50824e-07
1.91835e-06
-5.03423e-07
2.37419e-06
-4.55841e-07
2.78316e-06
-4.08966e-07
3.14666e-06
-3.63499e-07
3.46657e-06
-3.19917e-07
3.74512e-06
-2.78551e-07
3.98474e-06
-2.39619e-07
4.18797e-06
-2.03225e-07
4.35733e-06
-1.69365e-07
4.49531e-06
-1.37982e-07
4.60404e-06
-1.08722e-07
4.68495e-06
-8.09125e-08
4.73921e-06
-5.426e-08
4.76366e-06
-2.44498e-08
4.74752e-06
1.61353e-08
4.6822e-06
6.53255e-08
4.5693e-06
1.12895e-07
4.40984e-06
1.59462e-07
4.20817e-06
2.01674e-07
3.97198e-06
2.36183e-07
3.7121e-06
2.59881e-07
3.44166e-06
2.70442e-07
3.17868e-06
2.62978e-07
2.93899e-06
2.39689e-07
2.731e-06
2.07996e-07
2.55979e-06
1.71207e-07
2.425e-06
1.34795e-07
2.32133e-06
1.03669e-07
2.24058e-06
8.07426e-08
2.17404e-06
6.65466e-08
2.11475e-06
5.92861e-08
2.05881e-06
5.59366e-08
2.00537e-06
5.34483e-08
1.95586e-06
4.95018e-08
1.91311e-06
4.27512e-08
1.88034e-06
3.27758e-08
1.86016e-06
2.0179e-08
1.85394e-06
6.22205e-09
1.86224e-06
-8.30287e-09
1.88756e-06
-2.53208e-08
1.93345e-06
-4.58939e-08
2.00448e-06
-7.10305e-08
2.11035e-06
-1.05868e-07
2.26594e-06
-1.55591e-07
2.46428e-06
-1.98335e-07
2.63928e-06
-1.75003e-07
2.70393e-06
-6.46501e-08
2.58438e-06
1.19553e-07
2.08748e-06
4.96898e-07
9.74726e-07
1.11276e-06
-6.19046e-07
1.59377e-06
-2.30679e-06
1.68775e-06
-3.76251e-06
1.45572e-06
-4.85957e-06
1.09706e-06
-5.57972e-06
7.20143e-07
-5.94905e-06
3.69336e-07
-6.00589e-06
5.6832e-08
-5.81535e-06
-1.90539e-07
-5.41146e-06
-4.03882e-07
-4.80952e-06
-6.01945e-07
-4.0246e-06
-7.8492e-07
-3.08356e-06
-9.41043e-07
-2.0288e-06
-1.05476e-06
-9.21493e-07
-1.1073e-06
1.83719e-07
-1.10521e-06
1.21252e-06
-1.0288e-06
2.12765e-06
-9.15131e-07
2.9099e-06
-7.82244e-07
3.55203e-06
-6.42129e-07
4.05816e-06
-5.06135e-07
4.4396e-06
-3.81438e-07
4.71334e-06
-2.73745e-07
4.84777e-06
-1.34429e-07
4.74039e-06
1.07388e-07
4.32307e-06
4.17317e-07
3.62343e-06
6.99638e-07
2.77042e-06
8.53008e-07
1.94305e-06
8.27374e-07
6.3651e-07
1.30654e-06
-9.80455e-08
6.44332e-07
-2.54644e-07
7.01286e-07
-3.25189e-07
5.65027e-07
-2.53091e-07
3.2853e-07
-7.53981e-08
7.7762e-08
2.96021e-07
-3.39037e-07
8.9848e-07
-8.27612e-07
1.66427e-06
-1.29578e-06
2.5344e-06
-1.67852e-06
3.45484e-06
-1.92519e-06
4.37132e-06
-2.0415e-06
5.25243e-06
-2.05644e-06
6.08956e-06
-2.0019e-06
6.87886e-06
-1.90616e-06
7.62087e-06
-1.78789e-06
8.31626e-06
-1.65754e-06
8.96431e-06
-1.51963e-06
9.56261e-06
-1.37528e-06
1.01076e-05
-1.22381e-06
1.05951e-05
-1.06351e-06
1.10215e-05
-8.92468e-07
1.13849e-05
-7.08652e-07
1.16872e-05
-5.10835e-07
1.19341e-05
-2.99115e-07
1.21485e-05
-6.19346e-08
1.23075e-05
2.0821e-07
1.23785e-05
5.17563e-07
1.23238e-05
8.63346e-07
1.21019e-05
1.23678e-06
1.1673e-05
1.61793e-06
1.10076e-05
1.9738e-06
1.00952e-05
2.25925e-06
8.937e-06
2.41781e-06
7.53622e-06
2.41021e-06
5.96979e-06
2.24886e-06
4.43567e-06
1.96793e-06
3.13108e-06
1.62058e-06
2.15802e-06
1.33887e-06
1.46428e-06
1.19756e-06
9.5353e-07
1.07527e-06
5.85603e-07
8.1541e-07
3.54576e-07
3.70059e-07
3.81489e-07
-1.89587e-07
7.30169e-07
-8.7382e-07
1.38855e-06
-1.60125e-06
2.22655e-06
-2.05507e-06
3.01396e-06
-1.95363e-06
3.56213e-06
-1.37006e-06
3.82953e-06
-6.01792e-07
3.88198e-06
5.32236e-08
3.81337e-06
3.72835e-07
3.64179e-06
4.10921e-07
3.16507e-06
5.08711e-07
2.15811e-06
9.25381e-07
6.07781e-07
1.5794e-06
-1.29364e-06
2.20815e-06
-3.27056e-06
2.66856e-06
-5.15594e-06
2.95656e-06
-6.86009e-06
3.06081e-06
-8.34204e-06
2.9957e-06
-9.58293e-06
2.80062e-06
-1.05834e-05
2.52153e-06
-1.13619e-05
2.20063e-06
-1.19474e-05
1.87133e-06
-1.23738e-05
1.55628e-06
-1.26742e-05
1.26806e-06
-1.28777e-05
1.01158e-06
-1.30083e-05
7.86561e-07
-1.30842e-05
5.89816e-07
-1.31187e-05
4.17174e-07
-1.31207e-05
2.64407e-07
-1.30953e-05
1.27949e-07
-1.30435e-05
4.33636e-09
-1.29558e-05
-1.0986e-07
-1.28247e-05
-2.17469e-07
-1.26485e-05
-3.17626e-07
-1.24286e-05
-4.10494e-07
-1.21675e-05
-4.96876e-07
-1.18676e-05
-5.77817e-07
-1.15308e-05
-6.54484e-07
-1.11586e-05
-7.28156e-07
-1.07516e-05
-8.00188e-07
-1.03099e-05
-8.71912e-07
-9.83284e-06
-9.4448e-07
-9.31943e-06
-1.01867e-06
-8.76854e-06
-1.09465e-06
-8.17934e-06
-1.17181e-06
-7.55178e-06
-1.24859e-06
-6.88712e-06
-1.32249e-06
-6.18831e-06
-1.39021e-06
-5.46029e-06
-1.44799e-06
-4.70999e-06
-1.49208e-06
-3.94603e-06
-1.51925e-06
-3.17818e-06
-1.52727e-06
-2.41667e-06
-1.51511e-06
-1.67141e-06
-1.48312e-06
-9.52161e-07
-1.43243e-06
-2.64414e-07
-1.36687e-06
3.83111e-07
-1.28888e-06
9.86619e-07
-1.20082e-06
1.54403e-06
-1.10824e-06
2.05438e-06
-1.01377e-06
2.51782e-06
-9.19284e-07
2.93543e-06
-8.2657e-07
3.30893e-06
-7.37002e-07
3.64053e-06
-6.51521e-07
3.93271e-06
-5.70732e-07
4.18807e-06
-4.94978e-07
4.40923e-06
-4.24377e-07
4.59873e-06
-3.58871e-07
4.75899e-06
-2.98237e-07
4.89236e-06
-2.42091e-07
5.00132e-06
-1.89882e-07
5.08811e-06
-1.41049e-07
5.15966e-06
-9.59939e-08
5.22859e-06
-5.2798e-08
5.2992e-06
-5.28054e-09
5.37269e-06
3.94059e-08
5.44092e-06
9.12272e-08
5.49666e-06
1.45937e-07
5.53119e-06
2.01655e-07
5.53709e-06
2.53979e-07
5.51097e-06
2.96564e-07
5.45315e-06
3.20795e-07
5.36824e-06
3.24596e-07
5.26363e-06
3.12607e-07
5.1456e-06
2.89241e-07
5.0198e-06
2.60591e-07
4.8904e-06
2.3307e-07
4.75992e-06
2.11223e-07
4.62968e-06
1.96784e-07
4.50015e-06
1.88819e-07
4.37131e-06
1.84783e-07
4.24303e-06
1.81726e-07
4.11538e-06
1.77154e-07
3.98866e-06
1.69467e-07
3.86334e-06
1.58095e-07
3.74015e-06
1.43371e-07
3.62081e-06
1.25566e-07
3.50893e-06
1.03572e-07
3.40832e-06
7.52914e-08
3.32149e-06
4.09308e-08
3.25197e-06
-1.50253e-09
3.21366e-06
-6.75603e-08
3.23715e-06
-1.7908e-07
3.34092e-06
-3.02111e-07
3.4614e-06
-2.95479e-07
3.38665e-06
1.00941e-08
2.72251e-06
7.83694e-07
1.14626e-06
2.07315e-06
-9.51873e-07
3.21089e-06
-2.84521e-06
3.48711e-06
-4.20629e-06
3.04883e-06
-5.07305e-06
2.32248e-06
-5.57618e-06
1.60019e-06
-5.83785e-06
9.81814e-07
-5.93095e-06
4.62431e-07
-5.88277e-06
8.65621e-09
-5.66067e-06
-4.12643e-07
-5.24286e-06
-8.21686e-07
-4.63335e-06
-1.21146e-06
-3.8454e-06
-1.57287e-06
-2.9038e-06
-1.88265e-06
-1.85073e-06
-2.10783e-06
-7.39932e-07
-2.2181e-06
3.59056e-07
-2.2042e-06
1.3899e-06
-2.05964e-06
2.31148e-06
-1.83671e-06
3.10436e-06
-1.57512e-06
3.7649e-06
-1.30267e-06
4.30195e-06
-1.04318e-06
4.72861e-06
-8.08102e-07
5.05135e-06
-5.96478e-07
5.31999e-06
-4.03073e-07
5.61019e-06
-1.82808e-07
5.89606e-06
1.31441e-07
6.03944e-06
5.56256e-07
5.94984e-06
9.42614e-07
5.62221e-06
1.155e-06
1.03133e-06
5.22739e-06
3.77944e-07
2.66388e-07
5.67641e-07
5.11589e-07
7.20743e-07
4.11926e-07
9.3594e-07
1.13333e-07
1.42501e-06
-4.11313e-07
2.09902e-06
-1.01305e-06
2.87285e-06
-1.60144e-06
3.64085e-06
-2.06378e-06
4.32598e-06
-2.36364e-06
4.9166e-06
-2.51581e-06
5.4338e-06
-2.5587e-06
5.90926e-06
-2.5319e-06
6.3718e-06
-2.46444e-06
6.83885e-06
-2.37321e-06
7.31704e-06
-2.26608e-06
7.80494e-06
-2.14545e-06
8.29625e-06
-2.01094e-06
8.78204e-06
-1.86107e-06
9.25239e-06
-1.69416e-06
9.69757e-06
-1.5087e-06
1.01087e-05
-1.30359e-06
1.04781e-05
-1.07807e-06
1.07988e-05
-8.3148e-07
1.10639e-05
-5.64212e-07
1.12796e-05
-2.77636e-07
1.1458e-05
2.97265e-08
1.1615e-05
3.60601e-07
1.17592e-05
7.19158e-07
1.18862e-05
1.10976e-06
1.19709e-05
1.53329e-06
1.19633e-05
1.98134e-06
1.17919e-05
2.43063e-06
1.13706e-05
2.83917e-06
1.06284e-05
3.15239e-06
9.56023e-06
3.31702e-06
8.23702e-06
3.29114e-06
6.79187e-06
3.06573e-06
5.43418e-06
2.69656e-06
4.35415e-06
2.27758e-06
3.59037e-06
1.83904e-06
3.08231e-06
1.32347e-06
2.75837e-06
6.94006e-07
2.60705e-06
-3.82676e-08
2.65397e-06
-9.20739e-07
2.92366e-06
-1.87095e-06
3.31647e-06
-2.44787e-06
3.62093e-06
-2.25808e-06
3.69608e-06
-1.44522e-06
3.57645e-06
-4.82155e-07
3.30977e-06
3.19897e-07
2.77022e-06
9.12392e-07
1.67147e-06
1.50967e-06
-7.47107e-08
2.25489e-06
-2.17231e-06
3.02298e-06
-4.23365e-06
3.64075e-06
-6.066e-06
4.0405e-06
-7.59988e-06
4.20243e-06
-8.80133e-06
4.15801e-06
-9.6901e-06
3.94958e-06
-1.03219e-05
3.6275e-06
-1.07647e-05
3.24341e-06
-1.10841e-05
2.8409e-06
-1.13335e-05
2.4501e-06
-1.15495e-05
2.08733e-06
-1.17513e-05
1.75803e-06
-1.19442e-05
1.46102e-06
-1.21248e-05
1.19217e-06
-1.2285e-05
9.46745e-07
-1.24158e-05
7.20587e-07
-1.25091e-05
5.10539e-07
-1.25592e-05
3.14423e-07
-1.25618e-05
1.30635e-07
-1.25163e-05
-4.117e-08
-1.24235e-05
-2.02731e-07
-1.22868e-05
-3.5416e-07
-1.21088e-05
-4.95622e-07
-1.18917e-05
-6.27595e-07
-1.16377e-05
-7.50857e-07
-1.13489e-05
-8.6658e-07
-1.10271e-05
-9.76312e-07
-1.06733e-05
-1.08193e-06
-1.0288e-05
-1.18552e-06
-9.87066e-06
-1.28925e-06
-9.42008e-06
-1.39505e-06
-8.93444e-06
-1.50431e-06
-8.41162e-06
-1.61748e-06
-7.84967e-06
-1.73375e-06
-7.24749e-06
-1.85077e-06
-6.60539e-06
-1.96459e-06
-5.92572e-06
-2.06988e-06
-5.21325e-06
-2.16047e-06
-4.47517e-06
-2.23015e-06
-3.72081e-06
-2.27361e-06
-2.96089e-06
-2.2872e-06
-2.20659e-06
-2.26941e-06
-1.46871e-06
-2.221e-06
-7.5609e-07
-2.14505e-06
-7.81857e-08
-2.04477e-06
5.5926e-07
-1.92632e-06
1.15236e-06
-1.79392e-06
1.69887e-06
-1.65474e-06
2.19797e-06
-1.51287e-06
2.65014e-06
-1.37146e-06
3.05673e-06
-1.23316e-06
3.41969e-06
-1.09997e-06
3.74138e-06
-9.73202e-07
4.02436e-06
-8.53714e-07
4.27133e-06
-7.41947e-07
4.48499e-06
-6.38038e-07
4.668e-06
-5.4188e-07
4.82293e-06
-4.53166e-07
4.95229e-06
-3.71454e-07
5.05861e-06
-2.96206e-07
5.14414e-06
-2.26575e-07
5.20984e-06
-1.61692e-07
5.25779e-06
-1.00752e-07
5.29548e-06
-4.29637e-08
5.32372e-06
1.11637e-08
5.35073e-06
6.42166e-08
5.38105e-06
1.15613e-07
5.41796e-06
1.64745e-07
5.46149e-06
2.10447e-07
5.50728e-06
2.50776e-07
5.54612e-06
2.81959e-07
5.56958e-06
3.01129e-07
5.57372e-06
3.08467e-07
5.55707e-06
3.05895e-07
5.52069e-06
2.9697e-07
5.46753e-06
2.86231e-07
5.40119e-06
2.77563e-07
5.3249e-06
2.73075e-07
5.24083e-06
2.72884e-07
5.14997e-06
2.75641e-07
5.05236e-06
2.79337e-07
4.94751e-06
2.82011e-07
4.83481e-06
2.82167e-07
4.71394e-06
2.78959e-07
4.58517e-06
2.72146e-07
4.44953e-06
2.61206e-07
4.30912e-06
2.43977e-07
4.1665e-06
2.17916e-07
4.02318e-06
1.8425e-07
3.88062e-06
1.41051e-07
3.75508e-06
5.79866e-08
3.68584e-06
-1.0984e-07
3.67538e-06
-2.9165e-07
3.58315e-06
-2.03249e-07
3.05993e-06
5.33308e-07
1.712e-06
2.13163e-06
-2.86799e-07
4.07195e-06
-2.08526e-06
5.00934e-06
-3.29223e-06
4.69408e-06
-4.05416e-06
3.81077e-06
-4.59591e-06
2.86423e-06
-5.01944e-06
2.02372e-06
-5.32267e-06
1.28504e-06
-5.47002e-06
6.0978e-07
-5.44064e-06
-2.07239e-08
-5.22464e-06
-6.28645e-07
-4.8242e-06
-1.22213e-06
-4.24071e-06
-1.79494e-06
-3.48331e-06
-2.33027e-06
-2.5743e-06
-2.79165e-06
-1.55334e-06
-3.12879e-06
-4.76062e-07
-3.29538e-06
5.88215e-07
-3.26848e-06
1.58395e-06
-3.05538e-06
2.47072e-06
-2.72348e-06
3.22797e-06
-2.33237e-06
3.85417e-06
-1.92887e-06
4.35899e-06
-1.54801e-06
4.75907e-06
-1.20819e-06
5.07311e-06
-9.10513e-07
5.31314e-06
-6.43109e-07
5.51108e-06
-3.80747e-07
5.73946e-06
-9.69343e-08
6.05562e-06
2.40092e-07
6.41115e-06
5.87085e-07
6.69308e-06
8.73074e-07
9.22703e-07
6.80171e-06
1.51826e-07
1.14562e-07
3.05395e-07
3.5802e-07
6.47326e-07
6.99938e-08
1.27979e-06
-5.19127e-07
2.09435e-06
-1.22587e-06
2.90497e-06
-1.82367e-06
3.55222e-06
-2.24869e-06
4.0019e-06
-2.51346e-06
4.29968e-06
-2.66143e-06
4.52128e-06
-2.73741e-06
4.735e-06
-2.77242e-06
4.98491e-06
-2.78181e-06
5.29047e-06
-2.77e-06
5.65341e-06
-2.73614e-06
6.06525e-06
-2.67792e-06
6.51297e-06
-2.59316e-06
6.98231e-06
-2.48028e-06
7.45939e-06
-2.33816e-06
7.93149e-06
-2.16625e-06
8.38737e-06
-1.96458e-06
8.8175e-06
-1.73373e-06
9.21425e-06
-1.47483e-06
9.57219e-06
-1.18942e-06
9.88738e-06
-8.79396e-07
1.01565e-05
-5.46768e-07
1.03793e-05
-1.93062e-07
1.05599e-05
1.79969e-07
1.07099e-05
5.69197e-07
1.08464e-05
9.73252e-07
1.09861e-05
1.39357e-06
1.11329e-05
1.83453e-06
1.12642e-05
2.29938e-06
1.13221e-05
2.7812e-06
1.1222e-05
3.25251e-06
1.08773e-05
3.66178e-06
1.02308e-05
3.93764e-06
9.2928e-06
4.00369e-06
8.1728e-06
3.81657e-06
7.04957e-06
3.40081e-06
6.07269e-06
2.81592e-06
5.29762e-06
2.09855e-06
4.71744e-06
1.27419e-06
4.30506e-06
3.74114e-07
4.0929e-06
-7.08585e-07
4.0355e-06
-1.81354e-06
3.98005e-06
-2.39242e-06
3.73222e-06
-2.01025e-06
3.22951e-06
-9.4251e-07
2.45062e-06
2.96732e-07
1.32935e-06
1.44117e-06
-2.41987e-07
2.48373e-06
-2.17645e-06
3.44413e-06
-4.16205e-06
4.24049e-06
-5.92607e-06
4.787e-06
-7.34204e-06
5.05671e-06
-8.38339e-06
5.08185e-06
-9.09272e-06
4.91176e-06
-9.54209e-06
4.60738e-06
-9.81813e-06
4.22561e-06
-1.00037e-05
3.81302e-06
-1.0162e-05
3.40174e-06
-1.033e-05
3.00887e-06
-1.05199e-05
2.64008e-06
-1.07273e-05
2.29472e-06
-1.09392e-05
1.96986e-06
-1.11408e-05
1.66262e-06
-1.13194e-05
1.37084e-06
-1.14658e-05
1.09315e-06
-1.15739e-05
8.28692e-07
-1.16404e-05
5.76995e-07
-1.16638e-05
3.37796e-07
-1.16439e-05
1.10807e-07
-1.15818e-05
-1.03348e-07
-1.14791e-05
-3.05384e-07
-1.13382e-05
-4.95055e-07
-1.11615e-05
-6.72375e-07
-1.09514e-05
-8.37699e-07
-1.07104e-05
-9.91841e-07
-1.04408e-05
-1.1362e-06
-1.01443e-05
-1.2728e-06
-9.82195e-06
-1.40425e-06
-9.47388e-06
-1.53359e-06
-9.09905e-06
-1.66408e-06
-8.69533e-06
-1.79878e-06
-8.25958e-06
-1.94005e-06
-7.78807e-06
-2.08899e-06
-7.277e-06
-2.24482e-06
-6.72334e-06
-2.40443e-06
-6.12566e-06
-2.56227e-06
-5.485e-06
-2.71054e-06
-4.80547e-06
-2.84e-06
-4.09445e-06
-2.94117e-06
-3.36214e-06
-3.00592e-06
-2.62052e-06
-3.02882e-06
-1.88232e-06
-3.0076e-06
-1.15968e-06
-2.94365e-06
-4.63715e-07
-2.84102e-06
1.98819e-07
-2.70731e-06
8.18997e-07
-2.5465e-06
1.39435e-06
-2.36927e-06
1.92284e-06
-2.18323e-06
2.40392e-06
-1.99395e-06
2.83844e-06
-1.80598e-06
3.22807e-06
-1.62279e-06
3.57502e-06
-1.44691e-06
3.88183e-06
-1.28001e-06
4.15118e-06
-1.12306e-06
4.38581e-06
-9.7658e-07
4.58843e-06
-8.40655e-07
4.76165e-06
-7.15107e-07
4.90803e-06
-5.99538e-07
5.02996e-06
-4.93388e-07
5.12971e-06
-3.95961e-07
5.20955e-06
-3.06415e-07
5.2719e-06
-2.24041e-07
5.31932e-06
-1.4817e-07
5.35398e-06
-7.76223e-08