/*--------------------------------*- C++ -*----------------------------------*\
  =========                 |
  \\      /  F ield         | OpenFOAM: The Open Source CFD Toolbox
   \\    /   O peration     | Website:  https://openfoam.org
    \\  /    A nd           | Version:  9
     \\/     M anipulation  |
\*---------------------------------------------------------------------------*/
FoamFile
{
    format      ascii;
    class       volScalarField;
    location    "0.058";
    object      k;
}
// * * * * * * * * * * * * * * * * * * * * * * * * * * * * * * * * * * * * * //

dimensions      [0 2 -2 0 0 0 0];

internalField   nonuniform List<scalar> 
12225
(
1.99933e-05
2.07702e-05
2.10196e-05
2.12971e-05
2.27268e-05
2.97479e-05
5.96806e-05
9.68007e-05
0.000110772
0.00011129
0.000101052
6.76386e-05
4.29934e-05
3.09242e-05
2.71216e-05
2.75026e-05
3.30873e-05
0.000153128
2.00191e-05
2.01402e-05
2.02075e-05
2.02866e-05
2.05526e-05
2.16423e-05
2.5511e-05
3.80074e-05
5.2363e-05
5.92648e-05
6.00987e-05
5.83996e-05
5.17026e-05
4.09269e-05
3.26486e-05
2.88514e-05
2.8705e-05
4.18016e-05
2.00024e-05
1.79475e-05
1.81899e-05
1.76543e-05
1.68398e-05
1.66978e-05
1.68356e-05
1.76023e-05
1.98851e-05
2.16795e-05
2.2511e-05
2.35138e-05
2.35949e-05
2.31899e-05
2.2059e-05
2.08962e-05
2.00767e-05
2.08052e-05
2.01892e-05
2.00899e-05
2.00446e-05
1.99796e-05
1.98672e-05
1.9617e-05
1.92779e-05
1.91343e-05
1.89322e-05
1.81401e-05
1.67302e-05
1.65465e-05
1.67744e-05
1.75697e-05
1.81825e-05
1.83896e-05
1.83941e-05
1.82304e-05
2.12088e-05
2.09833e-05
2.1236e-05
2.15193e-05
2.15969e-05
2.1605e-05
2.17098e-05
2.29194e-05
2.48349e-05
2.43e-05
2.26346e-05
2.28772e-05
2.60342e-05
3.85004e-05
4.50159e-05
4.53008e-05
4.35387e-05
3.60816e-05
2.07689e-05
2.1003e-05
2.10853e-05
2.13219e-05
2.23061e-05
2.50323e-05
2.55832e-05
2.48365e-05
2.30633e-05
2.23692e-05
2.23452e-05
2.28717e-05
2.44031e-05
2.73655e-05
3.45677e-05
4.3208e-05
4.59052e-05
4.47803e-05
2.39992e-05
2.62338e-05
2.64309e-05
2.77699e-05
3.03625e-05
3.48042e-05
3.68807e-05
3.62142e-05
3.21476e-05
3.07373e-05
3.34104e-05
5.21986e-05
0.000116873
0.000164014
0.000174928
0.000170051
0.000139265
9.11086e-05
2.19747e-05
2.31134e-05
2.36952e-05
2.43749e-05
2.54047e-05
2.64949e-05
3.09266e-05
3.74079e-05
4.1248e-05
4.7577e-05
6.7593e-05
0.00013279
0.000173686
0.000177308
0.000160987
0.000113239
7.91625e-05
5.84297e-05
2.44491e-05
2.43631e-05
2.64976e-05
3.68584e-05
3.89927e-05
3.13059e-05
3.14231e-05
4.25951e-05
4.58784e-05
4.39754e-05
4.31562e-05
4.58545e-05
5.948e-05
8.24108e-05
8.81614e-05
8.60085e-05
7.11445e-05
5.19381e-05
2.10272e-05
2.08891e-05
2.30408e-05
3.61466e-05
4.34475e-05
4.11626e-05
3.2524e-05
2.78498e-05
2.56939e-05
2.44797e-05
2.42564e-05
2.46989e-05
2.74011e-05
3.23283e-05
3.61483e-05
3.81156e-05
3.78999e-05
3.5422e-05
2.06638e-05
2.11388e-05
2.33043e-05
3.15878e-05
3.95988e-05
4.2155e-05
4.18666e-05
3.7147e-05
2.93741e-05
2.65304e-05
2.60912e-05
2.62257e-05
2.63869e-05
2.62643e-05
2.54037e-05
2.45044e-05
2.38632e-05
2.35972e-05
2.06414e-05
2.12783e-05
2.24065e-05
2.7359e-05
4.1738e-05
4.38744e-05
3.7737e-05
2.86305e-05
2.52272e-05
2.49286e-05
2.63283e-05
3.08426e-05
3.27068e-05
3.26376e-05
3.05828e-05
2.65231e-05
2.41873e-05
2.30734e-05
2.06118e-05
2.16449e-05
2.40171e-05
2.80653e-05
2.85461e-05
2.6616e-05
2.3405e-05
2.22334e-05
2.21568e-05
2.29204e-05
2.563e-05
2.71388e-05
2.75896e-05
2.75471e-05
2.65633e-05
2.46412e-05
2.35032e-05
2.30647e-05
2.06368e-05
2.13104e-05
2.18024e-05
2.35725e-05
2.52619e-05
2.46074e-05
2.22161e-05
2.18308e-05
2.26268e-05
2.64607e-05
2.91104e-05
2.93973e-05
2.83906e-05
2.5451e-05
2.33835e-05
2.22878e-05
2.18767e-05
2.18417e-05
2.02662e-05
2.43757e-05
2.93618e-05
2.84373e-05
2.42993e-05
2.19247e-05
2.16851e-05
2.26808e-05
2.62818e-05
2.81294e-05
2.82045e-05
2.70131e-05
2.40539e-05
2.23743e-05
2.15708e-05
2.1253e-05
2.11974e-05
2.13044e-05
2.11891e-05
2.51336e-05
2.43598e-05
2.58736e-05
2.72577e-05
2.623e-05
2.57998e-05
2.67104e-05
2.81968e-05
2.84424e-05
2.7992e-05
2.58655e-05
2.3754e-05
2.26506e-05
2.2182e-05
2.20571e-05
2.20916e-05
2.2528e-05
2.01142e-05
2.34577e-05
2.58547e-05
2.52308e-05
2.49725e-05
2.47832e-05
2.45236e-05
2.34258e-05
2.22765e-05
2.18384e-05
2.17622e-05
2.1825e-05
2.23315e-05
2.32946e-05
2.36663e-05
2.36584e-05
2.33566e-05
2.31168e-05
2.03283e-05
2.08438e-05
2.10038e-05
2.09211e-05
2.1149e-05
2.17112e-05
2.18779e-05
2.14446e-05
2.09485e-05
2.09431e-05
2.13789e-05
2.26379e-05
2.34057e-05
2.37767e-05
2.39639e-05
2.40216e-05
2.39561e-05
2.34748e-05
2.21577e-05
2.38366e-05
2.29578e-05
2.13769e-05
2.09519e-05
2.07829e-05
2.06755e-05
2.06487e-05
2.06714e-05
2.08486e-05
2.163e-05
2.48995e-05
2.98824e-05
3.28519e-05
3.39282e-05
3.40047e-05
3.37109e-05
3.22693e-05
2.34933e-05
2.34503e-05
2.21638e-05
2.1092e-05
2.09266e-05
2.12739e-05
2.18174e-05
2.20241e-05
2.20487e-05
2.19821e-05
2.19207e-05
2.19482e-05
2.2086e-05
2.24621e-05
2.36485e-05
2.63528e-05
2.82294e-05
2.90049e-05
2.16785e-05
2.14917e-05
2.13455e-05
2.11277e-05
2.10532e-05
2.10575e-05
2.11575e-05
2.14191e-05
2.1538e-05
2.15508e-05
2.15006e-05
2.1397e-05
2.13744e-05
2.13925e-05
2.15203e-05
2.20185e-05
2.2473e-05
2.29277e-05
2.01767e-05
2.09103e-05
2.12198e-05
2.11084e-05
2.0629e-05
2.04491e-05
2.04627e-05
2.05676e-05
2.05882e-05
2.05339e-05
2.04865e-05
2.04845e-05
2.05134e-05
2.05916e-05
2.06504e-05
2.06972e-05
2.07483e-05
2.08415e-05
2.06295e-05
2.07728e-05
2.15898e-05
2.17332e-05
2.16701e-05
2.17246e-05
2.22654e-05
2.28442e-05
2.2998e-05
2.29823e-05
2.29982e-05
2.31955e-05
2.33279e-05
2.33493e-05
2.33285e-05
2.31868e-05
2.27807e-05
2.25045e-05
2.01477e-05
2.01071e-05
2.03339e-05
2.08632e-05
2.18372e-05
2.44131e-05
2.78823e-05
2.93756e-05
2.9337e-05
2.7848e-05
2.51568e-05
2.36504e-05
2.28799e-05
2.25077e-05
2.2343e-05
2.22705e-05
2.22314e-05
2.2218e-05
2.01665e-05
2.03252e-05
2.06088e-05
2.23211e-05
2.52187e-05
2.57779e-05
2.55489e-05
2.47378e-05
2.38978e-05
2.30152e-05
2.22014e-05
2.1582e-05
2.12076e-05
2.10684e-05
2.10537e-05
2.10574e-05
2.10679e-05
2.10904e-05
2.00046e-05
2.01516e-05
2.14466e-05
3.14933e-05
4.41412e-05
4.20379e-05
3.17393e-05
2.51515e-05
2.2289e-05
2.10946e-05
2.06375e-05
2.05041e-05
2.04964e-05
2.05796e-05
2.08545e-05
2.10804e-05
2.12298e-05
2.13618e-05
2.00007e-05
1.9973e-05
2.00877e-05
2.05774e-05
2.07265e-05
2.07227e-05
2.0689e-05
2.04219e-05
2.00256e-05
1.9812e-05
1.95293e-05
1.89909e-05
1.828e-05
1.76453e-05
1.73123e-05
1.7255e-05
1.72915e-05
1.74803e-05
2.00483e-05
1.62951e-05
1.11877e-05
1.03294e-05
1.05872e-05
1.16321e-05
1.33906e-05
1.44e-05
1.47373e-05
1.47448e-05
1.4477e-05
1.34161e-05
1.24483e-05
1.19198e-05
1.17002e-05
1.16477e-05
1.16523e-05
1.17062e-05
2.32528e-05
2.62417e-05
2.6248e-05
2.81479e-05
2.94334e-05
2.90904e-05
2.71637e-05
2.51144e-05
2.42387e-05
2.39394e-05
2.3776e-05
2.35265e-05
2.33326e-05
2.32747e-05
2.32807e-05
2.33452e-05
2.35917e-05
2.43573e-05
0.000186776
0.000218222
0.000181146
0.00014865
0.000125532
9.22298e-05
6.52335e-05
5.06024e-05
4.50651e-05
4.26378e-05
3.9349e-05
3.57516e-05
3.32955e-05
3.23404e-05
3.22793e-05
3.28702e-05
3.62144e-05
4.09864e-05
0.0518796
0.0805304
0.0915996
0.0922296
0.0903967
0.0853834
0.0808666
0.0781383
0.0769078
0.0758074
0.0748519
0.0737248
0.0728266
0.0706881
0.0673334
0.0637747
0.0595797
0.0540936
0.0470659
0.0444405
0.0410656
0.0323114
0.0293456
0.113317
0.215407
0.216412
0.188177
0.173339
0.165005
0.154142
0.150028
0.144354
0.1397
0.137573
0.134243
0.132707
0.132267
0.132372
0.134312
0.136358
0.137312
0.139023
0.140664
0.142584
0.144919
0.147912
0.151764
0.156946
0.163658
0.171593
0.179338
0.184893
0.187714
0.188909
0.18896
0.185912
0.18335
0.18533
0.198454
0.220086
0.228021
0.230891
0.231718
0.231612
0.229244
0.225635
0.221355
0.216656
0.209835
0.1988
0.184233
0.173733
0.168798
0.167557
0.17616
0.233776
0.379568
0.447787
0.471607
0.480299
0.483448
0.492279
0.493843
0.469274
0.359711
0.21107
0.20176
0.28445
0.184161
0.0865308
0.0661352
0.0611946
0.056945
0.0490941
0.041514
0.0340813
0.0296523
0.0249353
0.0227815
0.0216455
0.0213559
0.0220481
0.0222333
0.0223002
0.0222693
0.0219675
0.0216621
0.0214145
0.021025
0.0205876
0.0203871
0.0203064
0.0202636
0.02003
0.0197544
0.0195212
0.0191326
0.0189346
0.0188005
0.0185313
0.0184275
0.0182755
0.0181627
0.0180189
0.0178813
0.017831
0.0178015
0.0175315
0.0173456
0.0171941
0.0170184
0.0168448
0.0166226
0.0163533
0.0160844
0.0157569
0.0152786
0.0147036
0.0140987
0.0131868
0.0114031
0.00872259
0.00598166
0.00416435
0.00347266
0.00339001
0.00343442
0.00340742
0.00300571
0.00211028
0.00149788
0.00132355
0.00135265
0.00153271
0.00166143
0.00167652
0.00162647
0.00152755
0.00146122
0.00142319
0.0014191
0.00145522
0.00182462
0.00241094
0.00239285
0.0013679
0.000704591
0.000647933
0.000663379
0.000668572
0.000657926
0.000634125
0.000563716
0.000352244
0.000199719
0.000131217
0.00010033
9.74591e-05
0.000137376
0.000119857
0.0616096
0.0820336
0.0849229
0.0846602
0.0837569
0.0833709
0.0822552
0.0821498
0.0812716
0.0798718
0.0790675
0.0786062
0.0776064
0.0725149
0.0640861
0.0608738
0.0591409
0.0557895
0.054274
0.0726018
0.113195
0.171057
0.188995
0.192644
0.19217
0.149113
0.106344
0.0910045
0.0792984
0.074134
0.072251
0.0717823
0.0727891
0.0748897
0.075388
0.0760109
0.0780376
0.0800739
0.0809589
0.0825853
0.0852174
0.0874176
0.0901478
0.093132
0.0966309
0.10051
0.104381
0.107712
0.110926
0.114088
0.116559
0.119333
0.123557
0.130108
0.141375
0.160205
0.18223
0.198345
0.206378
0.212736
0.218938
0.229392
0.232126
0.232117
0.231969
0.231633
0.229571
0.230219
0.231947
0.23306
0.231367
0.217764
0.19015
0.163714
0.162684
0.184887
0.256229
0.256976
0.253241
0.244905
0.207017
0.209824
0.242529
0.305146
0.303331
0.272653
0.226922
0.187517
0.0909156
0.0546411
0.0435654
0.0394809
0.0376745
0.036998
0.0372163
0.0396744
0.0428204
0.0470066
0.0506299
0.0523721
0.0537371
0.0542745
0.0543891
0.0536147
0.0514309
0.0491519
0.0465018
0.0436163
0.0409847
0.0383047
0.0357253
0.033227
0.0309443
0.0289727
0.0280846
0.0265923
0.0254924
0.0243415
0.0237682
0.0227662
0.0221925
0.0216154
0.02116
0.0207812
0.02042
0.0200682
0.0200134
0.019808
0.0194984
0.0193298
0.0192523
0.0192365
0.0192466
0.019271
0.019316
0.0193884
0.019487
0.0196171
0.0197709
0.019886
0.0199082
0.0197789
0.0190908
0.0166682
0.0133108
0.0108019
0.00876225
0.00676215
0.00496138
0.00382019
0.00338683
0.00311244
0.00275574
0.00245952
0.00229317
0.00223586
0.00221193
0.00215724
0.00205808
0.00198752
0.00196167
0.00195349
0.00195935
0.00202139
0.00205558
0.0018554
0.00162516
0.00153258
0.00148341
0.00144994
0.00141571
0.00137641
0.00134876
0.00134254
0.00134371
0.00134357
0.00133436
0.00133665
0.00133293
0.00129389
0.0519084
0.0611276
0.0598381
0.0602225
0.0622787
0.0658059
0.0678371
0.0681588
0.0691105
0.0704186
0.0728412
0.0754229
0.0757051
0.0741289
0.0688116
0.0657209
0.0611996
0.0572827
0.0669743
0.11935
0.171053
0.180627
0.178472
0.148544
0.0849372
0.0579597
0.0496619
0.0476441
0.0474125
0.0495314
0.0519549
0.0525401
0.05269
0.0526328
0.0525198
0.0527607
0.053898
0.0551667
0.0565527
0.0592918
0.0627671
0.0658683
0.0693808
0.0732734
0.0770924
0.0810628
0.0845282
0.0868406
0.0892988
0.0913532
0.0928681
0.0946752
0.0965578
0.0987624
0.101773
0.105716
0.111307
0.11813
0.121455
0.125303
0.130109
0.131995
0.134516
0.136644
0.139976
0.143384
0.148521
0.153031
0.156958
0.16435
0.181383
0.21329
0.227606
0.207701
0.200891
0.238002
0.201381
0.0827334
0.0648927
0.0771211
0.0975912
0.130283
0.165701
0.189467
0.196634
0.165529
0.110296
0.0618297
0.0435489
0.0376521
0.0366469
0.0388011
0.0423673
0.0494494
0.061163
0.0735087
0.0786707
0.0812036
0.0822074
0.0824357
0.0818237
0.0793572
0.0765712
0.0750299
0.0733695
0.0703981
0.067036
0.0638372
0.0592755
0.0523962
0.0453051
0.039208
0.0345402
0.0304097
0.0284069
0.0262421
0.0248891
0.0238205
0.0228657
0.0218463
0.0209051
0.0199921
0.0190545
0.018168
0.0173116
0.0164847
0.0158491
0.0154143
0.0150799
0.0147863
0.0146027
0.0145319
0.0145301
0.0145642
0.0146501
0.0148544
0.0152612
0.0157298
0.0164632
0.0175915
0.0187341
0.0193445
0.0194355
0.0192332
0.0182838
0.0150876
0.011554
0.00876422
0.006557
0.00511023
0.0042867
0.00370798
0.00338266
0.00311766
0.00280373
0.00257298
0.00243129
0.00232345
0.00223398
0.00218022
0.00216074
0.00215281
0.00212869
0.00208062
0.00200542
0.00190055
0.00180286
0.00169358
0.001601
0.00154271
0.00149638
0.00140794
0.00124928
0.00108447
0.000979605
0.000945265
0.000946433
0.000959881
0.00102391
0.00119462
0.0463589
0.0530467
0.0527742
0.0565586
0.0656409
0.0754025
0.0782985
0.0775153
0.0748795
0.0709691
0.0692071
0.0691924
0.0696097
0.0707533
0.0700806
0.0671478
0.0598089
0.0607038
0.0892854
0.151669
0.166799
0.163902
0.118054
0.0573074
0.0372061
0.0304399
0.0283333
0.0275589
0.0271894
0.0269046
0.0261969
0.0246762
0.0233509
0.0225617
0.0220066
0.0218016
0.02178
0.0223365
0.0231996
0.0244169
0.025885
0.0276398
0.0296315
0.0318011
0.0341299
0.0368452
0.0401372
0.0440826
0.0478564
0.0524703
0.05738
0.0612246
0.0642743
0.0662908
0.0685729
0.0707337
0.0749502
0.0798495
0.0879004
0.0966416
0.105995
0.113836
0.120973
0.127129
0.134829
0.139757
0.146328
0.14403
0.142028
0.145718
0.160057
0.200155
0.215404
0.2189
0.194982
0.0747812
0.0432929
0.0406977
0.0453013
0.0564249
0.0711356
0.0868217
0.0966212
0.0998921
0.0905455
0.0676577
0.0472421
0.0379151
0.0353512
0.0352514
0.039351
0.0475178
0.0652477
0.0902038
0.100015
0.10331
0.104066
0.102807
0.0959607
0.0907289
0.0883244
0.0840899
0.0792407
0.07705
0.075705
0.0739106
0.0717851
0.0698172
0.0674047
0.0639887
0.0589771
0.0519415
0.0413071
0.0326212
0.0274151
0.023465
0.0194421
0.0177008
0.0162697
0.0153428
0.0144542
0.0136317
0.0127825
0.0120376
0.0116002
0.0113502
0.0112046
0.0111103
0.0109874
0.0108622
0.0107658
0.0107805
0.0108657
0.0110252
0.0112868
0.0118989
0.0129694
0.0136516
0.0140067
0.0146025
0.015947
0.0174632
0.0190117
0.0205242
0.0209206
0.0205813
0.0186243
0.0149332
0.0123237
0.00937993
0.00710374
0.00551544
0.00449442
0.00386094
0.00354413
0.00318667
0.00288873
0.00269828
0.00260615
0.0025864
0.00264296
0.00291713
0.00325193
0.003486
0.00363133
0.00363967
0.00341828
0.00298755
0.00261178
0.00237132
0.00222906
0.00204669
0.00170477
0.00130807
0.000977649
0.000794453
0.000728991
0.000723702
0.000731812
0.0007754
0.0425937
0.052715
0.0512147
0.065763
0.0822899
0.0888466
0.091827
0.0916445
0.0890834
0.0795016
0.0723108
0.0709055
0.071264
0.0716835
0.0699341
0.0639143
0.0600895
0.0700743
0.121031
0.150411
0.151951
0.10826
0.0461371
0.027069
0.0206577
0.0183384
0.017338
0.0166915
0.015932
0.0152414
0.0145536
0.0138386
0.0133839
0.013102
0.0128635
0.0127166
0.0126341
0.0125999
0.0125978
0.0127069
0.0129214
0.0131422
0.0134358
0.0137919
0.014312
0.0149966
0.0159191
0.0171631
0.0188967
0.0213918
0.0246846
0.0289727
0.0339937
0.0381868
0.0433719
0.0486564
0.0549426
0.063455
0.0754486
0.0908786
0.107333
0.119845
0.131361
0.146063
0.162103
0.175255
0.182913
0.179385
0.166396
0.172055
0.193282
0.206879
0.199783
0.165744
0.0675946
0.0336881
0.0301812
0.0325554
0.0401712
0.047657
0.0544285
0.059052
0.0607368
0.0586469
0.0493131
0.0396616
0.0347294
0.0329884
0.0328955
0.037188
0.0472716
0.0703859
0.102197
0.113667
0.116788
0.116991
0.112692
0.100493
0.0883066
0.0786003
0.06821
0.061417
0.0587856
0.0578612
0.057885
0.0608906
0.0649054
0.0669202
0.0674343
0.0654717
0.0626063
0.0587955
0.0530835
0.0429744
0.0296816
0.0235213
0.0180535
0.0143617
0.0121056
0.0108602
0.0101439
0.00968367
0.00949923
0.00946081
0.00959511
0.00975034
0.00982434
0.00984595
0.00983853
0.00984425
0.00990217
0.0100778
0.0103717
0.0106763
0.0111759
0.012313
0.0155877
0.0183708
0.0189676
0.0186617
0.0170733
0.0157332
0.0158995
0.0179617
0.0219354
0.0232682
0.022972
0.0211492
0.0195127
0.0180492
0.0159196
0.0115374
0.00783948
0.00575716
0.00461814
0.00421088
0.00394901
0.00369055
0.00351714
0.00345656
0.00347571
0.00370594
0.00412509
0.0043755
0.00449677
0.00453117
0.00448208
0.00427091
0.00384096
0.00330045
0.00280964
0.0024856
0.00222904
0.00199
0.00176732
0.00159507
0.00147754
0.00141227
0.00138584
0.00131058
0.0412485
0.0527724
0.0508105
0.0749056
0.0870409
0.0916954
0.0946036
0.0957062
0.0950933
0.0907596
0.0836759
0.0791887
0.0756632
0.0714608
0.0655258
0.0610638
0.0635305
0.0915525
0.132526
0.141133
0.114803
0.0465909
0.0232372
0.0163262
0.0140767
0.0132156
0.0128021
0.0125095
0.0122868
0.0121702
0.0121176
0.012094
0.0120974
0.0120867
0.012059
0.0120085
0.0119338
0.0118636
0.0118361
0.0118289
0.0118667
0.0118807
0.0118682
0.0118683
0.0118788
0.011914
0.0120129
0.0120969
0.0121677
0.0126033
0.0134853
0.0151744
0.0183767
0.0243556
0.0302381
0.0379087
0.0447189
0.0542691
0.0665188
0.0823813
0.0989703
0.112681
0.126176
0.143591
0.161445
0.176346
0.185471
0.190053
0.191684
0.188333
0.185548
0.167692
0.108038
0.0490159
0.0268484
0.0223805
0.022963
0.0285538
0.0356362
0.0407601
0.0438162
0.0450699
0.0450191
0.0404262
0.0346379
0.0314853
0.0303537
0.0303114
0.0335578
0.0428984
0.0627508
0.0954494
0.120623
0.126917
0.127614
0.124142
0.110962
0.0871708
0.0596456
0.0479025
0.0437829
0.0427918
0.0427702
0.0432003
0.0436588
0.0440231
0.0460365
0.0505223
0.0580362
0.0611387
0.0618042
0.0595778
0.0556676
0.0485213
0.0355537
0.0248503
0.0180449
0.0134741
0.0107502
0.00933242
0.00867424
0.00833087
0.00833518
0.00862655
0.00907149
0.00929
0.00937956
0.00941514
0.00944834
0.009531
0.00973097
0.010046
0.0107296
0.0119252
0.014158
0.0189202
0.0305933
0.0420683
0.0464251
0.0460122
0.0416827
0.027448
0.0188024
0.0174189
0.0188275
0.0237183
0.0252992
0.0248789
0.0231377
0.02209
0.0210292
0.0193369
0.0160109
0.0105709
0.00713589
0.00546072
0.00485458
0.00463306
0.00439268
0.00418594
0.00413411
0.00421175
0.00445869
0.00461345
0.00469495
0.00471248
0.00465606
0.00449235
0.00434095
0.00411834
0.00368892
0.00307854
0.00257755
0.00228795
0.00210311
0.00195055
0.00181477
0.00168257
0.00162311
0.00155105
0.0407015
0.0519061
0.0525641
0.0795364
0.0885032
0.0924764
0.0951831
0.0966394
0.0943747
0.0902793
0.0845619
0.0793157
0.0742161
0.0672968
0.0627754
0.0621914
0.0738515
0.113183
0.126772
0.119766
0.0637976
0.0243719
0.0149397
0.0124616
0.0118045
0.0116548
0.0116722
0.0119191
0.0120371
0.0122356
0.0124488
0.012776
0.0131368
0.0135561
0.0140133
0.0144721
0.0149234
0.0152739
0.0154912
0.0155912
0.0156278
0.0155563
0.0151022
0.0145985
0.0141843
0.0136515
0.0131276
0.0124937
0.0118844
0.0114058
0.010993
0.0107386
0.0106299
0.011055
0.0129637
0.0171316
0.0245025
0.0325263
0.0403229
0.0475114
0.0520232
0.0584409
0.0659909
0.0770103
0.0937952
0.114687
0.130393
0.137725
0.139753
0.126287
0.100105
0.0587255
0.0310655
0.0193386
0.0156813
0.0152863
0.0173948
0.0224524
0.0284104
0.0323312
0.034032
0.0346452
0.0341945
0.0305962
0.02814
0.0272603
0.0271376
0.0284584
0.0332926
0.0447229
0.0689145
0.108037
0.132794
0.137569
0.137784
0.131711
0.113007
0.0775906
0.0486876
0.041687
0.0404799
0.0408395
0.0429265
0.0444422
0.0446181
0.0424507
0.0418769
0.0420294
0.0456076
0.0526488
0.05568
0.0565411
0.0557132
0.049829
0.0376828
0.0254991
0.0174082
0.0123971
0.0094671
0.00802832
0.00756521
0.00748994
0.00765536
0.00837922
0.00894891
0.00914979
0.0092086
0.00923826
0.00930202
0.00946654
0.00987205
0.0108839
0.0133545
0.0180229
0.0266694
0.0441084
0.0712909
0.0996432
0.117064
0.11961
0.114075
0.0877002
0.0442845
0.0242289
0.0205206
0.0219422
0.0263141
0.0270437
0.0261297
0.0240758
0.0226644
0.0216161
0.0201021
0.0177395
0.0125302
0.00822923
0.00618838
0.00528532
0.00482203
0.00455209
0.00447753
0.00449607
0.00459286
0.004646
0.00465975
0.00464944
0.00449876
0.0042412
0.00413743
0.00410455
0.00403028
0.00380305
0.00325686
0.00268434
0.00231679
0.00210398
0.00195275
0.00180601
0.00169797
0.00162755
0.0400218
0.0502895
0.0548752
0.0807652
0.0884822
0.0911224
0.091672
0.0901949
0.0883755
0.0849705
0.0806315
0.0757288
0.0706256
0.0660004
0.0639255
0.0686647
0.0957682
0.11363
0.115774
0.0856532
0.0317995
0.0157383
0.0120815
0.0113266
0.0112315
0.0114313
0.0117859
0.0123154
0.0128613
0.0137047
0.014789
0.0162367
0.0179662
0.0196817
0.0211277
0.0222655
0.0234713
0.0240905
0.0247501
0.0250999
0.0252405
0.0251434
0.0246042
0.0237417
0.022962
0.0218619
0.0207266
0.0190783
0.0172492
0.0153864
0.01332
0.0116899
0.0102727
0.00906429
0.00825298
0.00794172
0.00847967
0.0108214
0.0158869
0.023449
0.0308475
0.0350378
0.0370358
0.0382278
0.0392891
0.0442067
0.0493438
0.0515084
0.0509243
0.0432606
0.0319226
0.0184487
0.0129739
0.0107176
0.0101711
0.0103736
0.0119987
0.0155603
0.0205231
0.0252329
0.0272872
0.0278074
0.0276038
0.0255229
0.0245675
0.0243469
0.0245179
0.0261736
0.0313816
0.0426137
0.065352
0.104078
0.138814
0.147287
0.146722
0.143648
0.128366
0.0951181
0.0590076
0.0465957
0.0448549
0.0475066
0.056687
0.0631419
0.0636408
0.0489201
0.042604
0.0407116
0.0409261
0.0457713
0.0518378
0.052597
0.0513303
0.0492761
0.0381711
0.0254098
0.0169639
0.0117077
0.00872823
0.00732596
0.00692877
0.00696406
0.00738644
0.00837455
0.00895373
0.00911853
0.00913233
0.00915478
0.00925082
0.00961466
0.0107902
0.0140144
0.0220384
0.0373389
0.068356
0.107441
0.138283
0.154371
0.164582
0.173929
0.176867
0.171149
0.130487
0.0590046
0.029385
0.0242076
0.0258058
0.0283877
0.0282064
0.0259577
0.0234386
0.0218776
0.0208577
0.0198051
0.0178459
0.0135129
0.00898904
0.00656406
0.00535059
0.00478839
0.00461772
0.00460339
0.00462425
0.00464384
0.00465765
0.00461434
0.00427876
0.00371296
0.00346585
0.00344963
0.00354319
0.00366869
0.00365217
0.00339981
0.00276489
0.0023165
0.00204951
0.00186626
0.00173064
0.00165056
0.0392644
0.0496472
0.0567085
0.0790303
0.0867807
0.0901327
0.0908358
0.0897435
0.0861849
0.0825308
0.0788647
0.0752146
0.0714176
0.069031
0.0715951
0.0867056
0.104634
0.110227
0.100091
0.0479244
0.0193052
0.0125966
0.011294
0.0111517
0.0112949
0.0118449
0.0128409
0.0144458
0.0167952
0.0196138
0.0223468
0.0246237
0.0264118
0.027994
0.0292966
0.0304194
0.0313021
0.0319334
0.0323274
0.0325259
0.0325761
0.0322708
0.0317167
0.0308618
0.0298882
0.0286597
0.0273547
0.0259161
0.0246954
0.0232614
0.0214476
0.019006
0.0158337
0.012824
0.00919343
0.00724314
0.00622047
0.00591971
0.00699424
0.0110035
0.0196811
0.0265483
0.0291715
0.0298289
0.0282771
0.0250349
0.0233605
0.022549
0.0199617
0.0185601
0.0124678
0.0096974
0.00768448
0.0069964
0.00686026
0.00700343
0.00776767
0.00976876
0.0134138
0.018125
0.0220066
0.0236365
0.0239774
0.0233134
0.0222859
0.0221297
0.0223741
0.0237445
0.0277245
0.0371435
0.0556139
0.0898732
0.134574
0.15513
0.161681
0.160667
0.155304
0.140781
0.112
0.0771864
0.0656102
0.067664
0.0844145
0.104782
0.108303
0.0750995
0.0508345
0.0409154
0.0392194
0.0407757
0.0466704
0.0490668
0.0488057
0.0448925
0.035454
0.0244666
0.0163973
0.0111203
0.00819043
0.0069396
0.0066324
0.00673362
0.00738151
0.00857254
0.00910376
0.00913648
0.00906041
0.00905644
0.00923489
0.0101606
0.0133605
0.022571
0.0442772
0.0927044
0.129254
0.151832
0.164714
0.170198
0.172844
0.178784
0.191659
0.195357
0.189743
0.142016
0.0608642
0.0318681
0.0276178
0.0287542
0.0292112
0.0278001
0.0239929
0.0217845
0.0206873
0.0200431
0.0192955
0.0176815
0.0138773
0.00921388
0.00655589
0.00530434
0.00481084
0.00466144
0.00463251
0.00462179
0.0046179
0.00453022
0.00403749
0.00304222
0.00253756
0.00246792
0.00256672
0.00301733
0.00335007
0.0033926
0.00326482
0.00272745
0.00222294
0.00191936
0.00173037
0.00162902
0.0385681
0.0487524
0.057291
0.0784237
0.086252
0.0898075
0.0909047
0.0907203
0.088539
0.0852197
0.0824676
0.0807986
0.0803889
0.0821959
0.0877645
0.0969681
0.102611
0.101211
0.070819
0.0274301
0.0143931
0.0116553
0.0112927
0.0113167
0.0119927
0.0136681
0.0167858
0.0204819
0.0236129
0.0256818
0.0273758
0.0287602
0.0299711
0.0312477
0.0323146
0.0333615
0.0339982
0.034547
0.0348142
0.0350306
0.0351051
0.0349579
0.0344649
0.0338372
0.0329384
0.0316623
0.0301047
0.0285398
0.0271688
0.0258886
0.0247137
0.0234467
0.0219479
0.0200839
0.0175519
0.0120224
0.00750467
0.00541285
0.00457346
0.00429059
0.00579377
0.011252
0.0204743
0.0256908
0.026846
0.0228591
0.0178252
0.0147404
0.0118261
0.0104707
0.00840181
0.00741863
0.00617238
0.00562944
0.00519883
0.00514007
0.00535343
0.00607242
0.00784073
0.0111364
0.0155011
0.0192701
0.0211264
0.0216425
0.0214082
0.0210246
0.0209601
0.0215433
0.0237231
0.0295343
0.0426468
0.0690003
0.114279
0.150668
0.164986
0.173064
0.176352
0.174826
0.168191
0.153224
0.129808
0.110986
0.126505
0.150556
0.140875
0.0972874
0.0610282
0.0431507
0.0385219
0.0388473
0.0426374
0.04442
0.043827
0.0415169
0.0323752
0.0212188
0.0136646
0.00920665
0.0070542
0.00637058
0.00634831
0.00663244
0.00784877
0.00908766
0.00938503
0.0092133
0.008824
0.00881615
0.00925409
0.0115191
0.0195295
0.042905
0.0958952
0.130086
0.150374
0.16205
0.16871
0.171723
0.173325
0.175907
0.189032
0.206304
0.207021
0.195319
0.126015
0.053222
0.0324017
0.0298209
0.0296537
0.028672
0.0248163
0.0215912
0.0203431
0.0199587
0.0196993
0.019177
0.0178112
0.0140688
0.00917318
0.00649409
0.00528623
0.00481533
0.00465077
0.00457453
0.00445482
0.00413924
0.00321762
0.00215124
0.0015452
0.00137711
0.00140442
0.00169421
0.00253535
0.0029904
0.00307206
0.00299476
0.00256514
0.0020526
0.0017554
0.00160594
0.0363525
0.0460626
0.0549891
0.0748496
0.0838046
0.0876747
0.0904765
0.0919554
0.0925383
0.0928331
0.092501
0.0920125
0.0917775
0.0920899
0.0937363
0.0962497
0.0969821
0.0823398
0.0391739
0.0186112
0.012753
0.0116325
0.0114876
0.0121148
0.0142102
0.0188604
0.0225763
0.0248146
0.0268145
0.0280975
0.0295487
0.0313772
0.0332662
0.0352542
0.0369903
0.038828
0.0400902
0.0413796
0.0420139
0.0423016
0.0421637
0.041277
0.0397166
0.0377441
0.035772
0.0334214
0.0312761
0.0294336
0.0277999
0.0265732
0.0257962
0.0248326
0.0241512
0.0226222
0.0213851
0.0197368
0.0156685
0.00897564
0.00527931
0.00380599
0.00322168
0.0030248
0.00487723
0.0125191
0.0212625
0.0250307
0.021858
0.0160865
0.0113797
0.00872699
0.00724621
0.00646602
0.00570171
0.00524427
0.00486336
0.00450779
0.00431017
0.00441907
0.00501007
0.00634942
0.00893072
0.0126719
0.0164183
0.0188936
0.0201207
0.0203669
0.0204086
0.0205303
0.0212536
0.0237184
0.0303682
0.0453885
0.0743691
0.12633
0.157642
0.171835
0.179322
0.184238
0.186269
0.18547
0.183655
0.175389
0.175317
0.171472
0.152358
0.104481
0.0638706
0.0437207
0.0371374
0.0371058
0.0399292
0.0414663
0.040763
0.0365201
0.0256873
0.0166102
0.0112282
0.00817344
0.00659992
0.00615903
0.00623439
0.00684731
0.00867937
0.00955688
0.00954023
0.00899308
0.00836241
0.00840234
0.00944993
0.0145816
0.0326236
0.0827204
0.120838
0.142498
0.155014
0.163109
0.166369
0.166603
0.166865
0.16883
0.184741
0.217768
0.222564
0.21739
0.186713
0.0931595
0.0439326
0.0321126
0.0301041
0.028679
0.024928
0.0215253
0.0203037
0.0200264
0.0199483
0.0198154
0.0193819
0.0180025
0.0137563
0.00900207
0.00644125
0.0052413
0.00473911
0.00450387
0.00405068
0.00310221
0.00224045
0.00155911
0.00108809
0.000890146
0.000877027
0.000967089
0.00149932
0.00235497
0.00272418
0.00277883
0.00268994
0.00226044
0.00183027
0.00163194
0.0350359
0.044164
0.0534299
0.0696708
0.0814155
0.0859777
0.0886429
0.0914527
0.0931925
0.0949125
0.0953342
0.0952676
0.0947726
0.0937859
0.0934117
0.09271
0.0839675
0.0540271
0.0251551
0.0151115
0.0123524
0.0118478
0.0122562
0.0147574
0.0194209
0.0230673
0.0250655
0.0267568
0.0284454
0.0305543
0.0334782
0.0372756
0.0412372
0.0445844
0.0473204
0.0495555
0.0509207
0.0523624
0.0530962
0.0535026
0.0535975
0.0529749
0.051857
0.0499177
0.0464827
0.0425148
0.0382018
0.0340976
0.029542
0.0264911
0.0252453
0.0248753
0.0250096
0.0241668
0.0227219
0.0219859
0.0206349
0.0176309
0.0108074
0.00629338
0.0037842
0.0024888
0.00195593
0.00206942
0.00467755
0.0139741
0.0229873
0.0243827
0.0205802
0.0135543
0.00918608
0.00730976
0.0061824
0.00543612
0.00497877
0.00457729
0.00426732
0.00399868
0.00386562
0.00420998
0.00514888
0.00704482
0.0100401
0.013548
0.0165542
0.0188389
0.0196476
0.0200115
0.0203069
0.021087
0.0234293
0.0294405
0.042616
0.0676865
0.118832
0.155091
0.172362
0.181258
0.186128
0.188371
0.188982
0.188295
0.185038
0.175419
0.150163
0.0945213
0.0542511
0.0377082
0.0336044
0.0343065
0.0372459
0.0371808
0.0356879
0.0299654
0.0209849
0.0141635
0.00975678
0.0072985
0.00618284
0.00594705
0.00619207
0.0075072
0.00932795
0.00979442
0.0096012
0.0083966
0.00768033
0.00788808
0.0102032
0.0208382
0.059884
0.105413
0.130936
0.145445
0.154325
0.156377
0.155935
0.154359
0.154205
0.157704
0.188475
0.24648
0.253675
0.2466
0.222736
0.143646
0.0659418
0.0373118
0.0306307
0.0284966
0.0246585
0.0216501
0.0205576
0.0204272
0.0205229
0.0206795
0.0206242
0.0201054
0.018165
0.0131692
0.00885505
0.00635148
0.00519945
0.00436368
0.00342278
0.00255243
0.00186783
0.00132502
0.00088104
0.000627471
0.000573473
0.000602556
0.000820455
0.00159792
0.00223101
0.00245615
0.00246721
0.00232098
0.0019023
0.00166542
0.0347739
0.0414727
0.0481795
0.0618193
0.0764587
0.0828704
0.0861988
0.0894683
0.0923681
0.0945056
0.0951653
0.0952248
0.0946931
0.0931202
0.0906598
0.0837424
0.0629254
0.0344615
0.0189896
0.0138053
0.0125155
0.0123669
0.0138459
0.0179656
0.0223331
0.0247172
0.0263802
0.0285184
0.0316027
0.0359284
0.041385
0.0457733
0.0493658
0.051934
0.0536866
0.0550565
0.055908
0.0567938
0.0573267
0.0575365
0.0575726
0.0571581
0.0564669
0.055436
0.053803
0.0509394
0.0465611
0.0419083
0.0372132
0.0307678
0.026012
0.0240468
0.0236289
0.0248264
0.0239099
0.0228138
0.0221137
0.020819
0.0177339
0.0118033
0.00741914
0.00429438
0.00227592
0.00141677
0.00115565
0.00162628
0.00505075
0.0155578
0.0242783
0.0253191
0.0198444
0.0120388
0.00843773
0.00660932
0.00562882
0.00497173
0.0044719
0.00408332
0.0037917
0.00357258
0.00373883
0.00429478
0.00554901
0.00769147
0.010561
0.0141714
0.0175098
0.0189384
0.0196243
0.0201797
0.0208973
0.022702
0.0270025
0.0359303
0.0539262
0.0903752
0.131002
0.155572
0.16879
0.176618
0.176866
0.173638
0.163977
0.141624
0.090718
0.0517267
0.0362228
0.0314919
0.0311573
0.0329007
0.0343422
0.0340448
0.0315794
0.0239326
0.015116
0.0101415
0.00732775
0.00602822
0.0057005
0.00580376
0.00643798
0.00857072
0.00988082
0.00993366
0.00937377
0.007444
0.00687652
0.00750708
0.0120605
0.0326128
0.0836851
0.11661
0.134056
0.143087
0.143837
0.143444
0.142019
0.141348