/*--------------------------------*- C++ -*----------------------------------*\
  =========                 |
  \\      /  F ield         | OpenFOAM: The Open Source CFD Toolbox
   \\    /   O peration     | Website:  https://openfoam.org
    \\  /    A nd           | Version:  9
     \\/     M anipulation  |
\*---------------------------------------------------------------------------*/
FoamFile
{
    format      ascii;
    class       volScalarField;
    location    "0.058";
    object      p;
}
// * * * * * * * * * * * * * * * * * * * * * * * * * * * * * * * * * * * * * //

dimensions      [0 2 -2 0 0 0 0];

internalField   nonuniform List<scalar> 
12225
(
691.456
691.162
689.303
686.07
682.229
677.995
673.49
668.911
664.346
659.796
655.29
650.893
646.636
642.469
638.314
633.981
629.258
623.828
690.796
691.181
689.359
686.121
682.257
678.005
673.491
668.904
664.331
659.778
655.271
650.873
646.612
642.441
638.275
633.964
629.283
624.097
690.658
691.38
689.516
686.236
682.328
678.049
673.519
668.917
664.331
659.773
655.273
650.874
646.597
642.392
638.187
633.879
629.322
624.491
691.765
691.692
689.752
686.415
682.453
678.129
673.566
668.941
664.338
659.773
655.272
650.87
646.578
642.357
638.148
633.884
629.488
625.011
691.325
692.149
690.156
686.695
682.637
678.247
673.649
669.001
664.379
659.801
655.296
650.889
646.588
642.364
638.171
633.97
629.734
625.554
693.076
692.925
690.646
687.058
682.888
678.41
673.757
669.072
664.423
659.83
655.32
650.915
646.613
642.395
638.23
634.099
630.016
626.07
694.134
694.185
691.382
687.545
683.218
678.629
673.911
669.186
664.508
659.896
655.377
650.966
646.661
642.45
638.317
634.262
630.311
626.544
697.567
695.117
692.222
688.143
683.639
678.912
674.103
669.318
664.598
659.963
655.438
651.035
646.746
642.56
638.472
634.49
630.646
627.003
698.782
697.245
693.345
688.878
684.131
679.247
674.341
669.497
664.735
660.074
655.534
651.122
646.836
642.674
638.637
634.735
630.987
627.436
702.507
699.166
694.611
689.757
684.755
679.678
674.641
669.704
664.884
660.191
655.639
651.229
646.957
642.822
638.827
634.982
631.305
627.823
707.111
701.692
696.159
690.75
685.417
680.145
674.978
669.957
665.078
660.348
655.777
651.363
647.1
642.988
639.03
635.233
631.611
628.178
710.686
703.77
697.655
691.762
686.134
680.654
675.327
670.199
665.26
660.498
655.913
651.5
647.251
643.163
639.237
635.478
631.894
628.492
713.037
706.156
699.303
692.853
686.878
681.19
675.718
670.484
665.476
660.673
656.062
651.636
647.389
643.318
639.422
635.698
632.147
628.772
721.332
708.901
701.18
694.155
687.764
681.808
676.152
670.795
665.714
660.871
656.242
651.811
647.571
643.519
639.649
635.956
632.433
629.081
721.801
711.968
703.249
695.613
688.805
682.551
676.694
671.195
666.018
661.117
656.457
652.016
647.783
643.749
639.904
636.236
632.739
629.404
721.56
713.905
705.12
697.116
689.913
683.313
677.204
671.551
666.288
661.345
656.671
652.235
648.017
644.006
640.186
636.544
633.072
629.761
727.762
717.408
707.692
698.742
690.856
683.894
677.601
671.836
666.505
661.521
656.826
652.391
648.192
644.208
640.42
636.812
633.372
630.09
739.078
721.535
709.112
699.21
691.089
683.994
677.614
671.813
666.482
661.518
656.857
652.464
648.315
644.382
640.642
637.08
633.686
630.449
733.448
720.319
708.114
698.43
690.246
683.119
676.817
671.156
665.961
661.121
656.571
652.281
648.224
644.378
640.719
637.232
633.905
630.731
727.043
711.941
701.523
693.568
686.769
680.613
674.964
669.75
664.891
660.317
655.984
651.867
647.947
644.213
640.652
637.25
634
630.894
717.358
704.185
695.883
689.358
683.566
678.215
673.18
668.397
663.847
659.511
655.372
651.407
647.612
643.983
640.512
637.188
634.004
630.957
693.711
692.692
689.319
685.109
680.519
675.979
671.537
667.159
662.895
658.785
654.824
650.998
647.313
643.773
640.376
637.115
633.984
630.982
681.732
685.228
684.287
681.566
678.015
674.164
670.184
666.144
662.125
658.2
654.379
650.666
647.071
643.605
640.267
637.054
633.963
630.994
677.045
681.114
681.125
679.174
676.209
672.789
669.137
665.34
661.513
657.723
654.01
650.382
646.856
643.443
640.148
636.968
633.907
630.965
674.673
678.114
678.943
677.441
674.876
671.774
668.363
664.759
661.078
657.396
653.762
650.198
646.72
643.343
640.075
636.921
633.881
630.959
676.437
678.281
677.995
676.444
674.069
671.133
667.854
664.358
660.757
657.14
653.56
650.043
646.604
643.257
640.01
636.872
633.847
630.937
677.431
677.236
677.043
675.725
673.467
670.678
667.507
664.097
660.562
656.998
653.455
649.964
646.548
643.218
639.985
636.855
633.835
630.929
675.969
676.947
676.639
675.344
673.162
670.43
667.305
663.927
660.423
656.886
653.366
649.898
646.501
643.185
639.958
636.832
633.814
630.91
675.855
676.453
676.318
675.119
672.974
670.273
667.182
663.835
660.362
656.849
653.344
649.885
646.494
643.181
639.956
636.827
633.804
630.895
673.231
676.21
676.18
675.042
672.928
670.228
667.143
663.797
660.322
656.81
653.313
649.866
646.485
643.181
639.96
636.831
633.805
630.892
560.801
560.884
560.997
560.942
560.701
560.341
559.972
559.652
559.387
559.151
558.912
558.634
558.348
558.106
557.883
557.569
557.159
556.648
555.987
555.156
554.094
553.045
552.23
551.602
550.804
549.438
547.489
545.247
542.851
540.352
537.822
535.277
532.781
530.369
528.066
525.917
523.95
522.192
520.67
519.404
518.43
517.747
517.343
517.197
517.28
517.558
517.989
518.537
519.168
519.856
520.571
521.28
521.946
522.538
523.02
523.356
523.542
523.564
523.39
523.013
522.467
521.826
521.035
520.047
518.893
517.612
516.252
514.87
513.573
512.444
511.429
510.502
509.761
508.648
507.042
505.082
502.752
500.061
496.942
493.338
489.605
486.069
482.934
480.346
478.353
476.732
475.751
476.144
477.947
476.574
470.68
461.333
450.238
438.619
427.251
416.604
406.997
398.663
391.778
386.471
382.83
380.903
380.677
382.002
384.661
388.362
392.805
397.708
402.828
407.946
412.855
417.36
421.318
424.658
427.364
429.446
430.918
431.79
432.077
431.819
431.086
429.958
428.497
426.738
424.69
422.341
419.681
416.707
413.431
409.871
406.051
401.997
397.747
393.346
388.859
384.354
379.893
375.51
371.223
367.051
363.025
359.217
355.607
352.085
348.586
345.046
341.427
337.691
333.789
329.645
325.18
320.41
315.537
310.835
306.496
302.527
298.834
295.307
291.844
288.362
284.841
281.326
277.868
274.494
271.234
268.134
265.234
262.524
259.871
257.128
254.212
251.095
247.784
244.305
240.679
236.949
233.161
229.363
225.615
221.829
560.564
560.63
560.661
560.505
560.164
559.727
559.282
558.893
558.589
558.409
558.346
558.346
558.327
558.21
557.991
557.751
557.43
556.976
556.417
555.594
554.597
553.385
551.973
550.862
550
548.556
546.647
544.534
542.206
539.774
537.265
534.711
532.184
529.72
527.364
525.165
523.164
521.401
519.904
518.696
517.753
517.086
516.698
516.578
516.703
517.04
517.549
518.189
518.926
519.724
520.536
521.298
521.958
522.509
522.975
523.38
523.695
523.853
523.776
523.444
522.847
522.088
521.157
520.035
518.744
517.366
515.986
514.666
513.423
512.301
511.318
510.389
509.664
508.707
507.306
505.46
503.067
500.135
496.779
492.962
488.943
485.008
481.412
478.838
477.529
476.841
475.265
473.879
473.52
470.799
464.372
455.32
444.912
434.123
423.533
413.53
404.399
396.402
389.761
384.644
381.135
379.428
379.329
380.769
383.54
387.356
391.899
396.884
402.071
407.255
412.236
416.816
420.839
424.222
426.96
429.069
430.57
431.469
431.775
431.52
430.773
429.624
428.146
426.379
424.324
421.969
419.303
416.324
413.047
409.491
405.679
401.636
397.398
393.009
388.532
384.042
379.603
375.253
371.007
366.869
362.837
358.804
355.186
351.642
348.168
344.695
341.149
337.472
333.602
329.454
324.963
320.191
315.35
310.705
306.42
302.488
298.812
295.293
291.833
288.351
284.827
281.305
277.833
274.444
271.178
268.085
265.209
262.53
259.892
257.15
254.229
251.102
247.781
244.294
240.667
236.936
233.147
229.344
225.588
221.824
560.273
560.057
559.635
559.059
558.433
557.844
557.36
557.028
556.873
556.882
557.056
557.323
557.577
557.793
558.011
558.169
558.168
557.979
557.51
556.661
555.502
554.139
552.613
551.047
549.492
547.729
545.736
543.536
541.119
538.555
535.898
533.21
530.553
527.971
525.518
523.236
521.163
519.338
517.792
516.545
515.6
514.969
514.645
514.611
514.842
515.303
515.952
516.748
517.65
518.617
519.597
520.532
521.383
522.158
522.86
523.471
523.948
524.218
524.209
523.906
523.314
522.433
521.288
519.9
518.303
516.585
514.893
513.372
512.153
511.417
511.093
510.888
510.542
509.716
508.168
506.308
504.225
501.334
497.559
493.199
488.973
484.98
481.485
478.64
476.437
474.784
473.014
470.626
467.465
462.642
455.967
447.882
438.864
429.337
419.662
410.234
401.456
393.67
387.152
382.131
378.771
377.021
376.968
378.519
381.453
385.453
390.165
395.282
400.572
405.856
410.958
415.678
419.825
423.296
426.093
428.257
429.823
430.789
431.146
430.908
430.144
428.966
427.468
425.683
423.614
421.243
418.56
415.567
412.283
408.728
404.924
400.895
396.673
392.301
387.843
383.376
378.97
374.662
370.46
366.378
362.434
358.676
354.829
351.195
347.688
344.221
340.688
336.996
333.073
328.87
324.39
319.707
315
310.472
306.25
302.345
298.69
295.193
291.754
288.286
284.759
281.215
277.718
274.329
271.102
268.088
265.27
262.596
259.944
257.182
254.238
251.092
247.761
244.268
240.641
236.908
233.126
229.316
225.539
221.745
559.281
558.792
557.99
557.197
556.474
555.843
555.347
555.039
554.924
555.004
555.314
555.801
556.362
556.953
557.517
557.895
558.025
557.927
557.481
556.652
555.396
553.851
552.182
550.424
548.539
546.432
544.112
541.61
538.951
536.18
533.34
530.486
527.675
524.954
522.376
519.988
517.831
515.943
514.357
513.096
512.19
511.625
511.395
511.482
511.859
512.49
513.331
514.335
515.452
516.633
517.822
518.969
520.038
521.01
521.877
522.629
523.235
523.635
523.771
523.607
523.111
522.273
521.106
519.619
517.783
515.817
513.88
512.19
510.915
510.321
510.485
511.028
511.113
510.586
509.494
507.485
504.961
502.129
498.835
494.985
490.927
486.898
483.27
480.132
477.27
474.358
471.113
467.207
462.399
456.54
449.739
442.116
433.779
424.856
415.606
406.429
397.797
390.125
383.709
378.751
375.373
373.673
373.696
375.396
378.552
382.806
387.747
393.027
398.423
403.804
409.044
413.951
418.285
421.884
424.758
426.987
428.642
429.715
430.16
429.965
429.197
428.004
426.484
424.684
422.598
420.202
417.489
414.473
411.175
407.616
403.818
399.802
395.597
391.243
386.805
382.364
377.994
373.736
369.589
365.527
361.545
357.686
353.918
350.361
346.934
343.525
340.02
336.319
332.355
328.114
323.636
319.022
314.428
310.014
305.885
302.053
298.46
295.013
291.608
288.156
284.636
281.087
277.575
274.175
270.963
267.983
265.23
262.608
259.981
257.223
254.268
251.107
247.762
244.258
240.625
236.888
233.097
229.275
225.466
221.635
557.613
557.118
556.46
555.786
555.145
554.57
554.108
553.8
553.654
553.705
553.996
554.464
555.039
555.691
556.304
556.71
556.901
556.853
556.436
555.563
554.229
552.604
550.811
548.844
546.662
544.238
541.597
538.781
535.839
532.816
529.75
526.694
523.698
520.81
518.085
515.571
513.315
511.357
509.743
508.496
507.63
507.138
507.018
507.253
507.814
508.663
509.751
511.025
512.428
513.902
515.387
516.828
518.182
519.415
520.499
521.416
522.14
522.639
522.882
522.837
522.477
521.781
520.718
519.263
517.438
515.389
513.349
511.578
510.309
509.908
510.417
511.261
511.566
511.032
509.9
508.31
506.159
503.538
500.518
497.21
493.698
490.071
486.421
482.741
478.877
474.631
469.915
464.698
458.912
452.529
445.562
437.967
429.71
420.834
411.576
402.372
393.753
386.162
379.858
374.971
371.623
369.911
369.998
371.852
375.255
379.804
385.004
390.445
395.899
401.303
406.622
411.712
416.276
420.05
423.008
425.289
427.029
428.227
428.794
428.662
427.917
426.716
425.184
423.376
421.276
418.854
416.109
413.068
409.758
406.198
402.405
398.401
394.211
389.875
385.455
381.039
376.7
372.471
368.344
364.281
360.233
356.234
352.378
348.838
345.583
342.398
339.038
335.391
331.435
327.187
322.712
318.14
313.634
309.336
305.329
301.609
298.112
294.743
291.394
287.974
284.458
280.9
277.383
273.993
270.811
267.887
265.199
262.632
260.035
257.282
254.317
251.139
247.78
244.264
240.62
236.871
233.061
229.221
225.383
221.519
556.448
556.073
555.581
555.013
554.436
553.906
553.479
553.188
553.036
553.046
553.242
553.577
553.997
554.482
554.918
555.225
555.36
555.232
554.711
553.712
552.293
550.587
548.628
546.406
543.924
541.196
538.255
535.147
531.919
528.618
525.294
521.998
518.781
515.695
512.794
510.13
507.752
505.71
504.046
502.787
501.95
501.539
501.556
501.982
502.778
503.897
505.282
506.878
508.622
510.451
512.3
514.107
515.818
517.386
518.774
519.954
520.903
521.607
522.051
522.225
522.117
521.703
520.943
519.805
518.305
516.553
514.75
513.124
511.945
511.439
511.621
511.986
512.011
511.495
510.419
508.878
506.998
504.828
502.337
499.534
496.414
492.968
489.163
484.93
480.194
474.934
469.217
463.136
456.722
449.947
442.737
434.961
426.514
417.43
407.971
398.628
389.979
382.459
376.258
371.429
368.061
366.294
366.344
368.276
371.901
376.764
382.261
387.882
393.365
398.695
403.961
409.134
413.916
417.908
420.972
423.278
425.066
426.377
427.068
427.025
426.313
425.115
423.584
421.778
419.67
417.224
414.452
411.393
408.08
404.523
400.735
396.739
392.563
388.242
383.838
379.435
375.11
370.892
366.749
362.624
358.459
354.247
350.16
346.517
343.382
340.517
337.506
334.088
330.234
326.026
321.587
317.071
312.65
308.47
304.599
301.02
297.655
294.396
291.124
287.747
284.265
280.739
277.239
273.849
270.679
267.804
265.185
262.674
260.104
257.354
254.374
251.176
247.797
244.268
240.614
236.854
233.026
229.165
225.295
221.396
556.185
555.897
555.496
554.99
554.461
553.958
553.544
553.251
553.083
553.034
553.104
553.257
553.46
553.682
553.863
553.941
553.854
553.485
552.709
551.497
549.928
548.051
545.849
543.331
540.53
537.479
534.222
530.814
527.301
523.732
520.16
516.63
513.193
509.904
506.815
503.987
501.48
499.337
497.59
496.282
495.459
495.174
495.392
496.066
497.138
498.554
500.261
502.198
504.302
506.509
508.751
510.967
513.097
515.079
516.863
518.412
519.703
520.728
521.485
521.976
522.207
522.169
521.839
521.199
520.262
519.092
517.822
516.638
515.708
515.07
514.646
514.209
513.545
512.584
511.332
509.824
508.112
506.195
504.025
501.525
498.594
495.139
491.077
486.364
481.013
475.117
468.816
462.231
455.409
448.314
440.84
432.823
424.131
414.806
405.134
395.64
386.924
379.413
373.239
368.385
364.929
362.958
362.867
364.792
368.589
373.764
379.597
385.45
391.001
396.244
401.357
406.459
411.358
415.557
418.75
421.058
422.867
424.261
425.064
425.109
424.436
423.254
421.736
419.942
417.832
415.37
412.58
409.514
406.205
402.652
398.864
394.866
390.695
386.384
381.988
377.584
373.239
368.973
364.749
360.495
356.121
351.572
347.104
343.258
340.18
337.685
335.191
332.208
328.63
324.578
320.231
315.794
311.474
307.428
303.719
300.312
297.112
293.993
290.824
287.525
284.102
280.609
277.123
273.746
270.607
267.788
265.224
262.754
260.198
257.442
254.442
251.219
247.817
244.274
240.61
236.842
232.996
229.108
225.206
221.273
556.812
556.58
556.227
555.762
555.252
554.743
554.294
553.937
553.67
553.495
553.395
553.338
553.296
553.238
553.122
552.9
552.494
551.785
550.686
549.211
547.404
545.249
542.726
539.871
536.741
533.378
529.845
526.201
522.487
518.74
514.992
511.275
507.63
504.117
500.803
497.765
495.082
492.821
491.036
489.774
489.075
488.968
489.415
490.366
491.758
493.518
495.562
497.811
500.197
502.664
505.169
507.681
510.154
512.524
514.723
516.695
518.409
519.85
521.018
521.92
522.567
522.964
523.111
523.01
522.659
522.072
521.299
520.429
519.543
518.671
517.734
516.682
515.475
514.12
512.646
511.074
509.394
507.563
505.495
503.067
500.134
496.557
492.252
487.206
481.49
475.247
468.634
461.767
454.686
447.352
439.657
431.441
422.572
413.096
403.294
393.688
384.883
377.311
371.087
366.138
362.464
360.321
360.023
361.83
365.667
371.051
377.168
383.239
388.876
394.066
399
403.931
408.831
413.152
416.436
418.726
420.537
421.979
422.869
422.988
422.353
421.196
419.706
417.932
415.826
413.357
410.56
407.494
404.185
400.629
396.827
392.814
388.638
384.332
379.931
375.494
371.088
366.718
362.301
357.747
352.994
348
343.039
338.869
335.84
333.741
331.887
329.572
326.489
322.729
318.556
314.253
310.074
306.202
302.7
299.516
296.52
293.568
290.53
287.328
283.976
280.54
277.093
273.735
270.619
267.838
265.326
262.881
260.32
257.538
254.508
251.258
247.834
244.274
240.6
236.824
232.968
229.059
225.127
221.158
558.338
558.124
557.761
557.282
556.729
556.155
555.6
555.098
554.66
554.283
553.953
553.647
553.341
553.007
552.607
552.081
551.341
550.283
548.86
547.089
544.973
542.479
539.619
536.466
533.086
529.527
525.845
522.07
518.214
514.294
510.324
506.325
502.343
498.441
494.706
491.252
488.198
485.674
483.808
482.652
482.189
482.343
483.133
484.521
486.421
488.709
491.261
493.969
496.746
499.528
502.264
504.924
507.507
510.034
512.487
514.804
516.924
518.808
520.439
521.81
522.92
523.769
524.358
524.689
524.763
524.579
524.136
523.454
522.558
521.471
520.21
518.783
517.253
515.659
514.027
512.356
510.62
508.754
506.647
504.156
501.12
497.399
492.921
487.693
481.802
475.4
468.639
461.621
454.383
446.89
439.052
430.735
421.821
412.349
402.564
392.955
384.11
376.468
370.172
365.149
361.372
359.072
358.538
360.109
363.794
369.173
375.36
381.48
387.098
392.208
396.968
401.704
406.515
410.832
414.125
416.4
418.182
419.643
420.584
420.748
420.142
419.016
417.562
415.813
413.714
411.244
408.446
405.377
402.056
398.478
394.65
390.614
386.424
382.113
377.692
373.183
368.632
364.056
359.341
354.311
348.881
343.149
337.587
333.013
330.14
328.567
327.479
326.014
323.646
320.371
316.497
312.4
308.417
304.775
301.546
298.646
295.908
293.16
290.272
287.184
283.924
280.557
277.149
273.824
270.76
268.031
265.535
263.066
260.458
257.628
254.561
251.286
247.844
244.271
240.589
236.81
232.946
229.019
225.06
221.056
560.695
560.488
560.118
559.613
559.005
558.337
557.647
556.968
556.321
555.705
555.115
554.537
553.953
553.337
552.643
551.8
550.714
549.303
547.543
545.444
542.993
540.174
537.04
533.681
530.142
526.451
522.628
518.657
514.504
510.151
505.598
500.881
496.084
491.324
486.751
482.539
478.861
475.877
473.735
472.52
472.244
472.852
474.303
476.499
479.304
482.56
486.089
489.724
493.32
496.767
499.993
502.968
505.692
508.212
510.628
513.019
515.366
517.609
519.69
521.554
523.152
524.451
525.44
526.121
526.498
526.557
526.285
525.678
524.75
523.529
522.066
520.456
518.742
516.991
515.224
513.436
511.59
509.614
507.399
504.798
501.65
497.822
493.254
487.961
482.03
475.598
468.798
461.72
454.401
446.824
438.932
430.624
421.799
412.493
402.909
393.469
384.7
377.044
370.686
365.612
361.792
359.346
358.606
359.906
363.326
368.476
374.452
380.377
385.801
390.736
395.336
399.885
404.495
408.688
411.922
414.159
415.899
417.35
418.302
418.475
417.884
416.789
415.374
413.65
411.556
409.083
406.284
403.202
399.851
396.235
392.373
388.312
384.101
379.763
375.287
370.653
365.879
360.977
355.811
350.1
343.673
336.771
330.215
325.267
322.795
322.058
321.924
321.461
320.011
317.423
313.993
310.195
306.476
303.135
300.253
297.712
295.292
292.787
290.077
287.127
283.974
280.686
277.339
274.071
271.059
268.36
265.848
263.315
260.624
257.721
254.604
251.302
247.846
244.265
240.577
236.792
232.923
228.982
224.992
220.967
563.711
563.52
563.166
562.667
562.049
561.339
560.566
559.756
558.931
558.103
557.275
556.442
555.588
554.681
553.666
552.464
550.988
549.186
547.056
544.603
541.814
538.701
535.337
531.787
528.059
524.133
519.974
515.519
510.707
505.515
499.964
494.141
488.189
482.301
476.692
471.59
467.218
463.765
461.37
460.133
460.051
461.157
463.346
466.475
470.365
474.8
479.546
484.375
489.089
493.541
497.634
501.296
504.467
507.16
509.493
511.677
513.901
516.235
518.622
520.932
523.023
524.79
526.179
527.171
527.771
527.99
527.826
527.262
526.307
525.013
523.454
521.722
519.887
518.012
516.118
514.198
512.208
510.084
507.74
505.021
501.784
497.909
493.336
488.076
482.203
475.832
469.077
462.016
454.691
447.107
439.233
431.011
422.386
413.39
404.176
395.078
386.537
378.958
372.568
367.42
363.533
361.023
360.14
361.192
364.25
368.958
374.463
379.969
385.061
389.74
394.161
398.509
402.848
406.814
409.911
412.081
413.771
415.186
416.099
416.241
415.649
414.582
413.202
411.496
409.4
406.919
404.108
401.003
397.611
393.947
390.047
385.955
381.701
377.296
372.71
367.896
362.836
357.51
351.742
345.134
337.351
328.767
320.83
315.421
313.591
314.116
315.254
315.972
315.6
313.861
311.012
307.61
304.231
301.267
298.82
296.722
294.682
292.459
289.952
287.158
284.13
280.945
277.692
274.502
271.534
268.83
266.256
263.623
260.826
257.831
254.65
251.313
247.844
244.258
240.566
236.779
232.905
228.953
224.946
220.893
567.24
567.073
566.755
566.299
565.719
565.028
564.243
563.394
562.487
561.534
560.541
559.505
558.406
557.202
555.832
554.222
552.314
550.089
547.562
544.737
541.609
538.207
534.593
530.79
526.756
522.418
517.696
512.499
506.77
500.514
493.808
486.799
479.69
472.72
466.142
460.214
455.189
451.288
448.696
447.566
447.646
449.127
451.947
455.952
460.907
466.531
472.513
478.555
484.404
489.883
494.895
499.391
503.303
506.514
508.993
510.982
512.858
514.928
517.335
519.958
522.519
524.768
526.563
527.86
528.655
528.97
528.829
528.282
527.347
526.043
524.424
522.592
520.68
518.706
516.689
514.628
512.488
510.208
507.703
504.864
501.57
497.708
493.21
488.066
482.326
476.085
469.443
462.472
455.218
447.698
439.913
431.848
423.493
414.883
406.139
397.505
389.321
381.933
375.59
370.419
366.497
363.992
363.038
363.845
366.461
370.546
375.372
380.281
384.925
389.284
393.481
397.595
401.621
405.275
408.161
410.236
411.868
413.215
414.037
414.108
413.501
412.455
411.098
409.397
407.289
404.79
401.958
398.82
395.38
391.665
387.718
383.572
379.236
374.702
369.941
364.906
359.535
353.724
347.214
339.492
330.028
319.275
309.463
303.423
302.456
304.745
307.607
309.746
310.586
309.835
307.704
304.812
301.857
299.328
297.36
295.745
294.117
292.192
289.89
287.257
284.37
281.312
278.172
275.072
272.128
269.381
266.709
263.963
261.059
257.977
254.728
251.344
247.853
244.26
240.563
236.769
232.888
228.928
224.906
220.83
571.061
570.929
570.673
570.293
569.793
569.178
568.452
567.62
566.695
565.686
564.595
563.408
562.096
560.61
558.889
556.878
554.552
551.923
549.014
545.832
542.379
538.687
534.796
530.683
526.253
521.394
515.995
509.964
503.261
495.929
488.094
479.947
471.726
463.695
456.135
449.331
443.57
439.106
436.122
434.725
435.091
437.08
440.62
445.54
451.586
458.43
465.693
472.994
479.998
486.462
492.264
497.411
501.958
505.807
508.766
510.792
512.299
513.927
516.039
518.718
521.654
524.38
526.572
528.136
529.093
529.508
529.412
528.852
527.883
526.575
524.994
523.192
521.195
519.097
516.946
514.74
512.446
510.013
507.373
504.431
501.091
497.264
492.883
487.919
482.386
476.345
469.878
463.061
455.948
448.57
440.949
433.099
425.047
416.843
408.593
400.479
392.755
385.7
379.557
374.498
370.643
368.14
367.09
367.602
369.677
373.01
377.038
381.261
385.399
389.399
393.317
397.146
400.816
404.101
406.722
408.677
410.237
411.474
412.156
412.125
411.489
410.455
409.105
407.392
405.258
402.733
399.871
396.691
393.2
389.426
385.411
381.174
376.711
372.002
367.017
361.714
355.998
349.656
342.312
333.304
321.89
308.593
296.464
289.539
289.59
294.12
299.211
303.077
305.29
305.679
304.444
302.233
299.824
297.761
296.219
295.003
293.71
292.03
289.902
287.411
284.658
281.724
278.698
275.68
272.754
269.947
267.17
264.313
261.315
258.156
254.844
251.409
247.885
244.275
240.57
236.767
232.877
228.908
224.874
220.778
574.939
574.846
574.665
574.374
573.971
573.449
572.805
572.033
571.137
570.122
568.979
567.686
566.205
564.481
562.463
560.118
557.448
554.481
551.251
547.768
544.038
540.088
535.929
531.502
526.668
521.281
515.221
508.402
500.803
492.506
483.669
474.514
465.305
456.336
447.923
440.392
434.058
429.198
426.001
424.572
425.034
427.311
431.321
436.888
443.747
451.543
459.858
468.253
476.302
483.682
490.188
495.786
500.688
504.993
508.446
510.747
512.134
513.306
514.978
517.451
520.566
523.704
526.26
528.066
529.139
529.595
529.535
529.01
528.061
526.749
525.141
523.309
521.321
519.212
516.982
514.637
512.181
509.591
506.811
503.776
500.411
496.636
492.386
487.622
482.338
476.563
470.348
463.76
456.857
449.69
442.297
434.717
426.994
419.196
411.423
403.824
396.597
389.968
384.152
379.314
375.543
373.033
371.828
371.991
373.477
376.042
379.288
382.843
386.472
390.087
393.667
397.143
400.41
403.296
405.63
407.442
408.9
409.977
410.476
410.325
409.653
408.616
407.255
405.511
403.34
400.781
397.88
394.652
391.101
387.256
383.148
378.786
374.161
369.252
364.021
358.409
352.277
345.334
337.101
326.734
313.219
297.164
282.487
274.466
275.567
282.645
290.391
296.301
300.063
301.749
301.607
300.276
298.534
296.939
295.715
294.733
293.612
292.049
290.016
287.628
284.982
282.154
279.224
276.27
273.354
270.489
267.614
264.659
261.58
258.358
254.992
251.51
247.946
244.311
240.591
236.775
232.873
228.894
224.847
220.735
578.755
578.694
578.585
578.376
578.06
577.62
577.047
576.335
575.481
574.479
573.314
571.956
570.361
568.475
566.253
563.68
560.77
557.564
554.102
550.403
546.475
542.329
537.952
533.255
528.079
522.255
515.66
508.221
499.936
490.916
481.345
471.465
461.564
451.962
443.002
435.026
428.353
423.254
419.92
418.453
418.934
421.348
425.609
431.535
438.853
447.19
456.107
465.169
473.821
481.767
488.782
494.734
499.814
504.262
507.976
510.598
512.03
512.923
514.194
516.386
519.525
522.83
525.627
527.634
528.834
529.34
529.271
528.736
527.814
526.549
524.975
523.149
521.139
518.981
516.697
514.299
511.763
509.054
506.149
503.016
499.605
495.863
491.736
487.178
482.162
476.692
470.793
464.51
457.897
451.011
443.907
436.641
429.273
421.88
414.561
407.446
400.696
394.492
389.01
384.41
380.829
378.236
376.853
376.667
377.609
379.495
382.049
384.995
388.123
391.313
394.483
397.534
400.366
402.854
404.901
406.549
407.854
408.718
409.007
408.734
408.022
406.965
405.572
403.78
401.563
398.962
396.015
392.729
389.109
385.179
380.959
376.451
371.645
366.517
361.018
355.06
348.453
340.856
331.733
320.065
304.502
285.696
268.472
259.251
261.306
270.96
281.569
289.746
295.176
298.244
299.326
299.021
298.024
296.869
295.857
294.969
293.869
292.29
290.261
287.919
285.348
282.6
279.741
276.831
273.914
270.997
268.04
265
261.851
258.574
255.164
251.639
248.036
244.369
240.627
236.796
232.879
228.887
224.827
220.699
582.589
582.553
582.489
582.335
582.071
581.688
581.165
580.494
579.667
578.676
577.501
576.11
574.457
572.49
570.169
567.481
564.446
561.108
557.511
553.686
549.641
545.373
540.843
535.95
530.532
524.423
517.5
509.693
501.019
491.6
481.635
471.376
461.12
451.199
441.963
433.762
426.907
421.66
418.21
416.666
417.135
419.571
423.888
429.898
437.317
445.797
454.916
464.128
472.927
480.993
488.124
494.196
499.324
503.755
507.522
510.303
511.832
512.592
513.597
515.553
518.593
521.954
524.861
526.937
528.164
528.701
528.677
528.168
527.243
525.979
524.446
522.674
520.678
518.499
516.185
513.736
511.135
508.37
505.407
502.21
498.762
495.033
490.989
486.603
481.844
476.694
471.153
465.243
459.002
452.48
445.736
438.838
431.859
424.884
418.011
411.356
405.055
399.254
394.097
389.716
386.218
383.658
382.125
381.619
382.082
383.381
385.321
387.688
390.29
392.99
395.679
398.26
400.651
402.758
404.527
405.972
407.056
407.658
407.731
407.346
406.589
405.497
404.051
402.195
399.923
397.271
394.269
390.916
387.217
383.19
378.847
374.182
369.179
363.81
358.012
351.672
344.567
336.329
326.402
313.639
296.332
275.069
255.504
245.039
247.823
259.789
273.162
283.629
290.725
295.144
297.454
298.212
297.969
297.192
296.299
295.437
294.323
292.691
290.621
288.289
285.763
283.07
280.258
277.373
274.447
271.481
268.452
265.338
262.126
258.8
255.351
251.79
248.15
244.449
240.681
236.829
232.895
228.889
224.815
220.672
586.243
586.225
586.197
586.028
585.766
585.38
584.859
584.197
583.378
582.391
581.217
579.825
578.171
576.206
573.889
571.2
568.162
564.809
561.186
557.326
553.242
548.928
544.337
539.371
533.884
527.718
520.748
512.907
504.221
494.806
484.856
474.622
464.397
454.505
445.294
437.109
430.259
425
421.512
419.891
420.225
422.52
426.661
432.447
439.59
447.748
456.519
465.383
473.845
481.606
488.477
494.32
499.239
503.508
507.183
509.944
511.507
512.254
513.17
515.034
517.992
521.289
524.142
526.176
527.366
527.859
527.803
527.305
526.428
525.207
523.684
521.917
519.96
517.822
515.506
513.034
510.415
507.622
504.622
501.404
497.949
494.235
490.255
485.997
481.44
476.568
471.37
465.848
460.019
453.919
447.6
441.123
434.565
428.013
421.568
415.337
409.441
404.004
399.146
394.978
391.586
389.025
387.354
386.578
386.646
387.453
388.85
390.665
392.735
394.928
397.133
399.267
401.254
403.013
404.5
405.689
406.487
406.815
406.702
406.225
405.417
404.271
402.75
400.82
398.484
395.775
392.709
389.282
385.498
381.369
376.899
372.073
366.867
361.241
355.128
348.409
340.849
332.075
321.541
308.061
289.629
266.598
245.225
233.623
236.739
250.338
265.9
278.331
286.883
292.458
295.827
297.542
297.99
297.525
296.68
295.809
294.716
293.101
291.032
288.716
286.222
283.565
280.779
277.904
274.96
271.948
268.856
265.675
262.403
259.03
255.544
251.952
248.279
244.545
240.748
236.874
232.922
228.9
224.811
220.651
589.472
589.469
589.462
589.216
588.891
588.456
587.917
587.25
586.437
585.459
584.292
582.911
581.283
579.359
577.1
574.487
571.522
568.23
564.648
560.814
556.748
552.446
547.87
542.938
537.523
531.482
524.692
517.088
508.687
499.592
489.982
480.094
470.207
460.63
451.692
443.723
437.018
431.824
428.318
426.599
426.748
428.781
432.576
437.918
444.524
452.064
460.155
468.311
476.071
483.183
489.511
494.938
499.532
503.532
506.987
509.615
511.159
511.969
512.948
514.849
517.763
520.94
523.634
525.51
526.586
527.018
526.933
526.414
525.52
524.311
522.831
521.107
519.161
517.033
514.742
512.292
509.673
506.881
503.899
500.698
497.257
493.571
489.642
485.469
481.054
476.389
471.465
466.278
460.831
455.143
449.25
443.206
437.078
430.949
424.912
419.07
413.533
408.412
403.81
399.821
396.521
393.962
392.178
391.178
390.921
391.32
392.257
393.592
395.19
396.931
398.713
400.456
402.082
403.514
404.708
405.601
406.104
406.197
405.948
405.4
404.531