/*--------------------------------*- C++ -*----------------------------------*\
  =========                 |
  \\      /  F ield         | OpenFOAM: The Open Source CFD Toolbox
   \\    /   O peration     | Website:  https://openfoam.org
    \\  /    A nd           | Version:  9
     \\/     M anipulation  |
\*---------------------------------------------------------------------------*/
FoamFile
{
    format      ascii;
    class       surfaceScalarField;
    location    "0.058";
    object      phi_0;
}
// * * * * * * * * * * * * * * * * * * * * * * * * * * * * * * * * * * * * * //

dimensions      [0 3 -1 0 0 0 0];

internalField   nonuniform List<scalar> 
24170
(
3.10757e-06
3.43067e-08
3.0154e-06
9.21688e-08
2.89562e-06
1.19777e-07
2.80249e-06
9.31336e-08
2.72332e-06
7.91677e-08
2.64375e-06
7.9568e-08
2.56062e-06
8.31306e-08
2.46992e-06
9.07027e-08
2.36851e-06
1.01405e-07
2.25825e-06
1.10261e-07
2.14852e-06
1.09732e-07
2.04507e-06
1.03451e-07
1.94349e-06
1.01574e-07
1.835e-06
1.08496e-07
1.70595e-06
1.29049e-07
1.54881e-06
1.57139e-07
1.3784e-06
1.70411e-07
2.00636e-07
1.17776e-06
3.44715e-06
1.78322e-09
3.51248e-06
2.68409e-08
3.53019e-06
1.0206e-07
3.51061e-06
1.12718e-07
3.48662e-06
1.03158e-07
3.47094e-06
9.52452e-08
3.46203e-06
9.20445e-08
3.45392e-06
9.88123e-08
3.44099e-06
1.1433e-07
3.42028e-06
1.3097e-07
3.39037e-06
1.39643e-07
3.35165e-06
1.42177e-07
3.30176e-06
1.51466e-07
3.24037e-06
1.69882e-07
3.16584e-06
2.03578e-07
3.07956e-06
2.43423e-07
2.97708e-06
2.72883e-07
3.01192e-07
2.87653e-06
3.70498e-06
2.99678e-08
3.69929e-06
3.25324e-08
3.72122e-06
8.01279e-08
3.7434e-06
9.05388e-08
3.74847e-06
9.809e-08
3.7337e-06
1.10011e-07
3.70786e-06
1.17884e-07
3.68354e-06
1.23132e-07
3.66829e-06
1.29582e-07
3.66329e-06
1.35969e-07
3.66354e-06
1.394e-07
3.66316e-06
1.42553e-07
3.6589e-06
1.5573e-07
3.64726e-06
1.81518e-07
3.63021e-06
2.20633e-07
3.6067e-06
2.66928e-07
3.57378e-06
3.05804e-07
3.3421e-07
3.54076e-06
3.93197e-06
4.94268e-08
3.9286e-06
3.59029e-08
3.94135e-06
6.7375e-08
3.94525e-06
8.6634e-08
3.93498e-06
1.08366e-07
3.91371e-06
1.31277e-07
3.88918e-06
1.42418e-07
3.87076e-06
1.41548e-07
3.86336e-06
1.36982e-07
3.8655e-06
1.33829e-07
3.87011e-06
1.34788e-07
3.87015e-06
1.42514e-07
3.86403e-06
1.61851e-07
3.85247e-06
1.93082e-07
3.84043e-06
2.32667e-07
3.83019e-06
2.77169e-07
3.81944e-06
3.16561e-07
3.47887e-07
3.80576e-06
4.20048e-06
2.42371e-08
4.22071e-06
1.56644e-08
4.22155e-06
6.65357e-08
4.20886e-06
9.9329e-08
4.19785e-06
1.1938e-07
4.19379e-06
1.35331e-07
4.19118e-06
1.45032e-07
4.18463e-06
1.48092e-07
4.17364e-06
1.4798e-07
4.16082e-06
1.46645e-07
4.14815e-06
1.47453e-07
4.13527e-06
1.55395e-07
4.12223e-06
1.74894e-07
4.10919e-06
2.06121e-07
4.09786e-06
2.43994e-07
4.0902e-06
2.84835e-07
4.08329e-06
3.23473e-07
3.58102e-07
4.07307e-06
4.41795e-06
1.3745e-07
4.45123e-06
-1.76095e-08
4.50454e-06
1.32256e-08
4.53496e-06
6.89045e-08
4.53811e-06
1.1623e-07
4.52088e-06
1.52563e-07
4.4971e-06
1.68817e-07
4.47971e-06
1.65476e-07
4.47501e-06
1.5268e-07
4.48195e-06
1.39707e-07
4.49536e-06
1.34045e-07
4.50888e-06
1.41877e-07
4.51785e-06
1.65921e-07
4.51891e-06
2.05063e-07
4.51048e-06
2.52421e-07
4.49363e-06
3.01685e-07
4.46851e-06
3.48588e-07
3.89789e-07
4.43683e-06
4.94622e-06
3.98412e-08
4.92102e-06
7.58831e-09
4.8676e-06
6.66493e-08
4.82932e-06
1.0718e-07
4.80314e-06
1.42411e-07
4.78802e-06
1.67685e-07
4.7823e-06
1.74538e-07
4.77912e-06
1.68653e-07
4.7717e-06
1.60103e-07
4.75893e-06
1.52481e-07
4.74512e-06
1.47848e-07
4.73534e-06
1.51662e-07
4.73217e-06
1.69093e-07
4.73448e-06
2.02751e-07
4.73809e-06
2.48815e-07
4.7384e-06
3.01369e-07
4.73293e-06
3.54056e-07
4.02833e-07
4.71989e-06
5.26952e-06
-2.181e-08
5.27124e-06
5.86241e-09
5.25597e-06
8.19188e-08
5.25209e-06
1.11063e-07
5.26378e-06
1.30717e-07
5.27546e-06
1.56007e-07
5.27347e-06
1.76532e-07
5.25682e-06
1.853e-07
5.23035e-06
1.86568e-07
5.19543e-06
1.87401e-07
5.15053e-06
1.92749e-07
5.09709e-06
2.05101e-07
5.04174e-06
2.24445e-07
4.99442e-06
2.50071e-07
4.96282e-06
2.80413e-07
4.94884e-06
3.15349e-07
4.95113e-06
3.51774e-07
3.89955e-07
4.964e-06
5.68713e-06
1.00244e-08
5.62229e-06
7.06993e-08
5.58377e-06
1.20443e-07
5.54552e-06
1.4931e-07
5.52758e-06
1.48658e-07
5.53251e-06
1.51079e-07
5.54043e-06
1.68614e-07
5.53889e-06
1.86834e-07
5.53296e-06
1.92501e-07
5.53279e-06
1.87567e-07
5.54023e-06
1.85308e-07
5.54725e-06
1.98083e-07
5.54324e-06
2.28459e-07
5.5224e-06
2.70906e-07
5.48824e-06
3.14581e-07
5.44939e-06
3.54192e-07
5.41592e-06
3.85252e-07
4.10918e-07
5.39495e-06
6.01506e-06
1.6861e-08
6.00005e-06
8.57042e-08
5.96773e-06
1.52762e-07
5.91753e-06
1.99514e-07
5.88498e-06
1.81205e-07
5.88589e-06
1.5017e-07
5.90243e-06
1.52074e-07
5.91162e-06
1.77643e-07
5.90502e-06
1.99102e-07
5.88872e-06
2.03873e-07
5.87329e-06
2.00735e-07
5.86455e-06
2.06825e-07
5.86126e-06
2.3175e-07
5.85796e-06
2.74197e-07
5.85004e-06
3.22504e-07
5.83691e-06
3.67322e-07
5.82064e-06
4.01523e-07
4.24815e-07
5.80674e-06
6.45789e-06
1.01633e-07
6.41888e-06
1.24713e-07
6.44756e-06
1.24083e-07
6.49299e-06
1.54085e-07
6.51034e-06
1.63855e-07
6.48638e-06
1.74128e-07
6.44177e-06
1.96686e-07
6.40171e-06
2.17706e-07
6.37673e-06
2.24078e-07
6.36198e-06
2.18625e-07
6.34826e-06
2.14458e-07
6.33148e-06
2.23601e-07
6.31365e-06
2.49582e-07
6.30011e-06
2.87738e-07
6.29381e-06
3.288e-07
6.29574e-06
3.65393e-07
6.30406e-06
3.93201e-07
4.1465e-07
6.31423e-06
5.75832e-06
1.25999e-07
5.82975e-06
5.32789e-08
5.85707e-06
9.67584e-08
5.83308e-06
1.78075e-07
5.78253e-06
2.14412e-07
5.73767e-06
2.18985e-07
5.71915e-06
2.15209e-07
5.72943e-06
2.07426e-07
5.75503e-06
1.98479e-07
5.77622e-06
1.9743e-07
5.7787e-06
2.11979e-07
5.76027e-06
2.42034e-07
5.72921e-06
2.8064e-07
5.69808e-06
3.18866e-07
5.67682e-06
3.50058e-07
5.6699e-06
3.72317e-07
5.67725e-06
3.85853e-07
3.96358e-07
5.69554e-06
7.09723e-06
1.11308e-07
7.08814e-06
6.23725e-08
7.0571e-06
1.27792e-07
7.04931e-06
1.85874e-07
7.05262e-06
2.11099e-07
7.06122e-06
2.10389e-07
7.07458e-06
2.01848e-07
7.08945e-06
1.92547e-07
7.1016e-06
1.86333e-07
7.10889e-06
1.90144e-07
7.11147e-06
2.09398e-07
7.11057e-06
2.42936e-07
7.10797e-06
2.83239e-07
7.10515e-06
3.21679e-07
7.10313e-06
3.5208e-07
7.10154e-06
3.73912e-07
7.09916e-06
3.88227e-07
3.99516e-07
7.09601e-06
8.27834e-06
-5.95504e-08
8.35427e-06
-1.35627e-08
8.38357e-06
9.84965e-08
8.4094e-06
1.60048e-07
8.4551e-06
1.65392e-07
8.50516e-06
1.60334e-07
8.54044e-06
1.66561e-07
8.54829e-06
1.84706e-07
8.53137e-06
2.03253e-07
8.50464e-06
2.16868e-07
8.4825e-06
2.3154e-07
8.47153e-06
2.53911e-07
8.47099e-06
2.83771e-07
8.47726e-06
3.15413e-07
8.48872e-06
3.40623e-07
8.50447e-06
3.58162e-07
8.52671e-06
3.65987e-07
3.72912e-07
8.55331e-06
1.04873e-05
-2.05837e-07
1.05002e-05
-2.65131e-08
1.04398e-05
1.58906e-07
1.03781e-05
2.21752e-07
1.03361e-05
2.07448e-07
1.03132e-05
1.83167e-07
1.03039e-05
1.75915e-07
1.03032e-05
1.85398e-07
1.03066e-05
1.99842e-07
1.03098e-05
2.13652e-07
1.03127e-05
2.28639e-07
1.03193e-05
2.47358e-07
1.03342e-05
2.68804e-07
1.036e-05
2.89692e-07
1.03957e-05
3.04857e-07
1.04395e-05
3.14387e-07
1.04882e-05
3.17245e-07
3.18758e-07
1.05424e-05
1.26691e-05
-1.20479e-07
1.25537e-05
8.88236e-08
1.2533e-05
1.79614e-07
1.26033e-05
1.51479e-07
1.27148e-05
9.59464e-08
1.28139e-05
8.40487e-08
1.28704e-05
1.19468e-07
1.2886e-05
1.69817e-07
1.28777e-05
2.08142e-07
1.28599e-05
2.31422e-07
1.28424e-05
2.46142e-07
1.28318e-05
2.57953e-07
1.28322e-05
2.68358e-07
1.2844e-05
2.77904e-07
1.28628e-05
2.86055e-07
1.28838e-05
2.93456e-07
1.29007e-05
3.00351e-07
3.07833e-07
1.29116e-05
1.53206e-05
-1.1589e-07
1.54482e-05
-3.87739e-08
1.55924e-05
3.53813e-08
1.5646e-05
9.78426e-08
1.56114e-05
1.3059e-07
1.55368e-05
1.586e-07
1.54771e-05
1.79166e-07
1.54541e-05
1.92889e-07
1.54584e-05
2.03781e-07
1.54769e-05
2.12935e-07
1.5504e-05
2.19066e-07
1.55403e-05
2.21652e-07
1.55865e-05
2.22116e-07
1.56407e-05
2.2376e-07
1.56975e-05
2.29247e-07
1.57513e-05
2.39587e-07
1.5798e-05
2.53683e-07
2.69566e-07
1.58363e-05
1.8507e-05
-1.53246e-07
1.87538e-05
-2.8559e-07
1.88897e-05
-1.00462e-07
1.89172e-05
7.03243e-08
1.88842e-05
1.63579e-07
1.8861e-05
1.81777e-07
1.88896e-05
1.50601e-07
1.89668e-05
1.15713e-07
1.90629e-05
1.07686e-07
1.91471e-05
1.28667e-07
1.92039e-05
1.62298e-07
1.92339e-05
1.917e-07
1.92471e-05
2.08899e-07
1.92549e-05
2.15974e-07
1.92648e-05
2.19277e-07
1.92798e-05
2.24578e-07
1.92995e-05
2.33986e-07
2.47574e-07
1.93215e-05
2.31737e-05
-1.21066e-07
2.28628e-05
2.53069e-08
2.26709e-05
9.14095e-08
2.26119e-05
1.29387e-07
2.26451e-05
1.30391e-07
2.27421e-05
8.47732e-08
2.28657e-05
2.69502e-08
2.29827e-05
-1.25525e-09
2.3075e-05
1.54005e-08
2.31382e-05
6.54028e-08
2.31778e-05
1.22709e-07
2.32006e-05
1.68904e-07
2.32119e-05
1.97598e-07
2.3216e-05
2.11932e-07
2.32163e-05
2.18952e-07
2.32166e-05
2.24242e-07
2.32199e-05
2.30662e-07
2.37339e-07
2.32302e-05
1.71113e-05
-1.65087e-08
1.70646e-05
7.20341e-08
1.70216e-05
1.34375e-07
1.69978e-05
1.53191e-07
1.70075e-05
1.20755e-07
1.70447e-05
4.7521e-08
1.709e-05
-1.83053e-08
1.71286e-05
-3.99124e-08
1.71624e-05
-1.83889e-08
1.72026e-05
2.52291e-08
1.72555e-05
6.97907e-08
1.73184e-05
1.06036e-07
1.73831e-05
1.32904e-07
1.74423e-05
1.52688e-07
1.7492e-05
1.69272e-07
1.75314e-05
1.84858e-07
1.75615e-05
2.00563e-07
2.16227e-07
1.75826e-05
1.46475e-05
-4.27999e-08
1.46027e-05
1.16822e-07
1.4565e-05
1.72083e-07
1.46148e-05
1.03367e-07
1.47282e-05
7.37285e-09
1.48299e-05
-5.41379e-08
1.48712e-05
-5.96339e-08
1.48559e-05
-2.4622e-08
1.48211e-05
1.63945e-08
1.48038e-05
4.25428e-08
1.48168e-05
5.68132e-08
1.48533e-05
6.95826e-08
1.48984e-05
8.7754e-08
1.49396e-05
1.11498e-07
1.49725e-05
1.3636e-07
1.4999e-05
1.58316e-07
1.50255e-05
1.74059e-07
1.83563e-07
1.50582e-05
1.25795e-05
-1.5736e-07
1.25636e-05
1.32776e-07
1.25845e-05
1.51103e-07
1.2643e-05
4.48949e-08
1.27088e-05
-5.83999e-08
1.2749e-05
-9.43476e-08
1.27551e-05
-6.57216e-08
1.27416e-05
-1.1173e-08
1.27255e-05
3.25366e-08
1.27176e-05
5.04613e-08
1.27262e-05
4.82385e-08
1.27539e-05
4.18616e-08
1.27976e-05
4.40728e-08
1.28503e-05
5.87643e-08
1.29054e-05
8.12545e-08
1.29592e-05
1.04541e-07
1.30106e-05
1.22649e-07
1.33339e-07
1.30608e-05
1.10924e-05
3.23308e-08
1.11494e-05
7.58287e-08
1.12156e-05
8.49293e-08
1.12284e-05
3.20793e-08
1.12144e-05
-4.44661e-08
1.11866e-05
-6.6517e-08
1.11587e-05
-3.77692e-08
1.11432e-05
4.27572e-09
1.11459e-05
2.98527e-08
1.11635e-05
3.28774e-08
1.11898e-05
2.19463e-08
1.12218e-05
9.7866e-09
1.12607e-05
5.25713e-09
1.13086e-05
1.08606e-08
1.1365e-05
2.48235e-08
1.14268e-05
4.27777e-08
1.14882e-05
6.12165e-08
7.79713e-08
1.15436e-05
9.63669e-06
3.88385e-08
9.62909e-06
8.34304e-08
9.66688e-06
4.71338e-08
9.71277e-06
-1.38114e-08
9.73885e-06
-7.05404e-08
9.74543e-06
-7.3101e-08
9.74387e-06
-3.62117e-08
9.74954e-06
-1.39441e-09
9.76661e-06
1.27854e-08
9.78762e-06
1.18676e-08
9.80417e-06
5.39477e-09
9.81479e-06
-8.33551e-10
9.8244e-06
-4.35161e-09
9.83902e-06
-3.75555e-09
9.86308e-06
7.57042e-10
9.89776e-06
8.09737e-09
9.94129e-06
1.76919e-08
2.96057e-08
9.98965e-06
8.37446e-06
-4.26288e-08
8.45656e-06
1.33461e-09
8.48966e-06
1.40314e-08
8.52528e-06
-4.94276e-08
8.56934e-06
-1.14604e-07
8.61108e-06
-1.14842e-07
8.63746e-06
-6.25942e-08
8.64484e-06
-8.77204e-09
8.63865e-06
1.89781e-08
8.62857e-06
2.1941e-08
8.61879e-06
1.51754e-08
8.6093e-06
8.65478e-09
8.59856e-06
6.39408e-09
8.58728e-06
7.52153e-09
8.57941e-06
8.63113e-09
8.57928e-06
8.22623e-09
8.59167e-06
5.30048e-09
2.40664e-09
8.61887e-06
7.39345e-06
-9.21879e-08
7.44676e-06
-5.19801e-08
7.46321e-06
-2.4216e-09
7.42084e-06
-7.05398e-09
7.35587e-06
-4.96392e-08
7.32393e-06
-8.28955e-08
7.33277e-06
-7.14395e-08
7.3584e-06
-3.43932e-08
7.38204e-06
-4.67155e-09
7.40052e-06
3.46156e-09
7.41912e-06
-3.42509e-09
7.44344e-06
-1.56563e-08
7.47488e-06
-2.50461e-08
7.51131e-06
-2.89174e-08
7.5485e-06
-2.85587e-08
7.58238e-06
-2.5646e-08
7.60968e-06
-2.20071e-08
-1.80754e-08
7.63017e-06
6.41006e-06
-2.74189e-07
6.49482e-06
-1.36736e-07
6.52823e-06
-3.58284e-08
6.54669e-06
-2.55126e-08
6.54264e-06
-4.55928e-08
6.51569e-06
-5.59473e-08
6.48645e-06
-4.21982e-08
6.46987e-06
-1.7814e-08
6.46714e-06
-1.94249e-09
6.47205e-06
-1.44457e-09
6.47967e-06
-1.1048e-08
6.48829e-06
-2.42806e-08
6.4981e-06
-3.48471e-08
6.50935e-06
-4.01755e-08
6.52122e-06
-4.04206e-08
6.53239e-06
-3.68213e-08
6.54117e-06
-3.07887e-08
-2.32112e-08
6.54631e-06
5.5564e-06
-1.68884e-07
5.57268e-06
-1.53013e-07
5.58931e-06
-5.24573e-08
5.59532e-06
-3.1532e-08
5.59546e-06
-4.57271e-08
5.59577e-06
-5.62624e-08
5.60879e-06
-5.52152e-08
5.63789e-06
-4.69113e-08
5.67541e-06
-3.94632e-08
5.70934e-06
-3.53772e-08
5.73115e-06
-3.28564e-08
5.7383e-06
-3.14277e-08
5.73473e-06
-3.12791e-08
5.7274e-06
-3.28471e-08
5.72239e-06
-3.54061e-08
5.72301e-06
-3.74457e-08
5.73008e-06
-3.78527e-08
-3.55282e-08
5.74239e-06
4.90119e-06
-8.46617e-08
4.8426e-06
-9.4421e-08
4.83261e-06
-4.24634e-08
4.85479e-06
-5.37161e-08
4.88867e-06
-7.96054e-08
4.91553e-06
-8.31235e-08
4.93022e-06
-6.99015e-08
4.93696e-06
-5.36596e-08
4.93999e-06
-4.24908e-08
4.94153e-06
-3.69135e-08
4.94354e-06
-3.48724e-08
4.94776e-06
-3.56395e-08
4.95501e-06
-3.85374e-08
4.96466e-06
-4.24935e-08
4.97468e-06
-4.54203e-08
4.98297e-06
-4.57446e-08
4.98791e-06
-4.27893e-08
-3.73052e-08
4.98969e-06
4.15936e-06
4.06494e-06
4.02247e-06
3.96876e-06
3.88915e-06
3.80603e-06
3.73613e-06
3.68247e-06
3.63998e-06
3.60306e-06
3.56819e-06
3.53255e-06
3.49401e-06
3.45152e-06
3.4061e-06
3.36035e-06
3.31756e-06
3.28026e-06
-8.5231e-08
8.5231e-08
1.32203e-07
-2.17434e-07
5.25221e-07
-3.93018e-07
9.40064e-07
-4.14843e-07
1.28285e-06
-3.42787e-07
1.49882e-06
-2.15965e-07
1.55686e-06
-5.8043e-08
1.46362e-06
9.32353e-08
1.25019e-06
2.13436e-07
9.6913e-07
2.81058e-07
6.69832e-07
2.99298e-07
3.90065e-07
2.79767e-07
1.80586e-07
2.09479e-07
5.88671e-08
1.21719e-07
-4.2345e-08
1.01212e-07
-2.40187e-07
1.97841e-07
-4.32397e-07
1.9221e-07
-4.45686e-07
1.32892e-08
-3.3263e-07
-1.13056e-07
-1.07934e-07
-2.24696e-07
3.84567e-08
-1.46391e-07
-2.88862e-08
6.7343e-08
-3.34337e-07
3.05451e-07
-8.99035e-07
5.64698e-07
-1.67184e-06
7.72805e-07
-2.34391e-06
6.72071e-07
-2.85788e-06
5.13969e-07
-3.31308e-06
4.55198e-07
-3.69339e-06
3.80309e-07
-4.03821e-06
3.44822e-07
-4.35273e-06
3.14523e-07
-4.62985e-06
2.77115e-07
-4.89034e-06
2.60496e-07
-5.12475e-06
2.34404e-07
-5.32577e-06
2.01018e-07
-5.49235e-06
1.66581e-07
-5.61685e-06
1.24502e-07
-5.69488e-06
7.80325e-08
-5.72531e-06
3.04273e-08
-5.70577e-06
-1.95426e-08
-5.63466e-06
-7.11069e-08
-5.51571e-06
-1.18945e-07
-5.35263e-06
-1.63081e-07
-5.14991e-06
-2.02725e-07
-4.91315e-06
-2.36763e-07
-4.64928e-06
-2.63865e-07
-4.36715e-06
-2.82134e-07
-4.07772e-06
-2.89427e-07
-3.79359e-06
-2.84129e-07
-3.52752e-06
-2.66071e-07
-3.28931e-06
-2.38205e-07
-3.08148e-06
-2.07838e-07
-2.89834e-06
-1.83134e-07
-2.73195e-06
-1.66395e-07
-2.5797e-06
-1.52245e-07
-2.43981e-06
-1.39891e-07
-2.32608e-06
-1.13727e-07
-2.22909e-06
-9.69954e-08
-2.12611e-06
-1.02978e-07
-1.99001e-06
-1.36099e-07
-1.79371e-06
-1.96305e-07
-1.52505e-06
-2.6866e-07
-1.22172e-06
-3.03323e-07
-9.09634e-07
-3.12089e-07
-6.05997e-07
-3.03637e-07
-3.33655e-07
-2.72342e-07
-1.04993e-07
-2.28662e-07
6.70808e-08
-1.72074e-07
1.96746e-07
-1.29665e-07
3.08401e-07
-1.11655e-07
4.04526e-07
-9.61257e-08
6.12436e-07
-2.0791e-07
1.08536e-06
-4.72923e-07
1.59882e-06
-5.13466e-07
1.8148e-06
-2.15971e-07
1.83883e-06
-2.40382e-08
1.99908e-06
-1.60249e-07
2.40978e-06
-4.10695e-07
2.89293e-06
-4.83155e-07
3.29244e-06
-3.99504e-07
3.57459e-06
-2.82157e-07
3.73752e-06
-1.62924e-07
3.74495e-06
-7.43625e-09
3.55148e-06
1.93474e-07
3.24699e-06
3.04491e-07
2.80956e-06
4.37425e-07
2.01448e-06
7.95087e-07
4.91205e-07
1.52327e-06
-1.87111e-06
2.36232e-06
-4.39848e-06
2.52736e-06
-6.71365e-06
2.31518e-06
-8.70055e-06
1.9869e-06
-1.03535e-05
1.65297e-06
-1.17101e-05
1.35657e-06
-1.28138e-05
1.10369e-06
-1.36999e-05
8.86133e-07
-1.43927e-05
6.92771e-07
-1.49072e-05
5.14483e-07
-1.52527e-05
3.45517e-07
-1.54353e-05
1.82631e-07
-1.54578e-05
2.25087e-08
-1.53411e-05
-1.16716e-07
-1.50901e-05
-2.5105e-07
-1.47117e-05
-3.7835e-07
-1.42188e-05
-4.92903e-07
-1.36265e-05
-5.92295e-07
-1.29527e-05
-6.7378e-07
-1.22137e-05
-7.39064e-07
-1.14233e-05
-7.90362e-07
-1.05945e-05
-8.28822e-07
-9.74043e-06
-8.5407e-07
-8.87702e-06
-8.63405e-07
-8.01886e-06
-8.58161e-07
-7.17557e-06
-8.43292e-07
-6.35136e-06
-8.24207e-07
-5.54799e-06
-8.03373e-07
-4.76663e-06
-7.81359e-07
-4.00957e-06
-7.57057e-07
-3.27928e-06
-7.3029e-07
-2.57421e-06
-7.0507e-07
-1.88803e-06
-6.8618e-07
-1.21011e-06
-6.77924e-07
-5.28703e-07
-6.81405e-07
1.59716e-07
-6.88419e-07
8.60091e-07
-7.00375e-07
1.56997e-06
-7.09884e-07
2.28469e-06
-7.14712e-07
2.99919e-06
-7.14502e-07
3.70871e-06
-7.09525e-07
4.40859e-06
-6.99879e-07
5.09386e-06
-6.85269e-07
5.75865e-06
-6.64787e-07
6.39609e-06
-6.37442e-07
7.00062e-06
-6.04528e-07
7.57084e-06
-5.70221e-07
8.1073e-06
-5.36465e-07
8.60534e-06
-4.98034e-07
9.05451e-06
-4.49173e-07
9.44525e-06
-3.9074e-07
9.75532e-06
-3.10069e-07
9.92156e-06
-1.66237e-07
9.86483e-06
5.67265e-08
9.56101e-06
3.03823e-07
9.05072e-06
5.10289e-07
8.41186e-06
6.38864e-07
7.72426e-06
6.87594e-07
7.04229e-06
6.81968e-07
6.38298e-06
6.59309e-07
5.72687e-06
6.56116e-07
5.03696e-06
6.89905e-07
4.307e-06
7.29964e-07
3.59323e-06
7.13765e-07
2.97932e-06
6.13911e-07
2.51837e-06
4.6095e-07
2.20659e-06
3.11785e-07
2.00447e-06
2.02123e-07
1.86803e-06
1.36435e-07
1.75855e-06
1.09478e-07
1.64133e-06
1.17221e-07
1.50094e-06
1.40395e-07
1.35167e-06
1.49272e-07
1.2055e-06
1.46166e-07
1.03768e-06
1.67815e-07
8.27048e-07
2.10636e-07
6.14903e-07
2.12145e-07
4.78558e-07
1.36345e-07
4.65411e-07
1.31471e-08
5.61784e-07
-9.63729e-08
7.24799e-07
-1.63016e-07
9.08937e-07
-1.84138e-07
1.07603e-06
-1.67098e-07
1.20317e-06
-1.27136e-07
1.27515e-06
-7.19827e-08
1.29101e-06
-1.58567e-08
1.25283e-06
3.81847e-08
1.19054e-06
6.22844e-08
1.10159e-06
8.89546e-08
1.04083e-06
6.07527e-08
9.2729e-07
1.13544e-07
3.6112e-08
8.91178e-07
1.5739e-07
-7.21585e-08
6.41334e-07
-7.01379e-07
1.16355e-06
-9.15232e-07
1.61326e-06
-8.64559e-07
1.9721e-06
-7.01623e-07
2.24305e-06
-4.86916e-07
2.42792e-06
-2.42912e-07
2.52024e-06
9.12848e-10
2.48578e-06
2.47902e-07
2.30885e-06
4.57985e-07
1.97636e-06
6.31791e-07
1.52084e-06
7.35283e-07
1.01969e-06
7.1063e-07
5.61564e-07
5.79844e-07
2.42619e-07
4.20157e-07
1.20814e-07
3.19646e-07
-1.86874e-08
3.31711e-07
-3.26475e-07
3.21077e-07
-5.6871e-07
1.2918e-07
-8.73018e-07
7.96119e-08
-1.41099e-06
3.91578e-07
-2.10758e-06
7.63938e-07
-2.79721e-06
9.95075e-07
-3.2941e-06
1.06159e-06
-3.57149e-06
1.0502e-06
-3.83728e-06
9.37864e-07
-4.15196e-06
8.28648e-07
-4.48147e-06
7.84705e-07
-4.84779e-06
7.46628e-07
-5.21816e-06
7.15197e-07
-5.58349e-06
6.79851e-07
-5.94691e-06
6.40532e-07
-6.27664e-06
5.90225e-07
-6.56687e-06
5.24633e-07
-6.81554e-06
4.49692e-07
-7.01327e-06
3.64314e-07
-7.16031e-06
2.71538e-07
-7.25627e-06
1.73994e-07
-7.29851e-06
7.26663e-08
-7.28889e-06
-2.91654e-08
-7.23126e-06
-1.28737e-07
-7.12296e-06
-2.27239e-07
-6.96331e-06
-3.22734e-07
-6.75222e-06
-4.13814e-07
-6.48987e-06
-4.99117e-07
-6.17661e-06
-5.77121e-07
-5.81293e-06
-6.45814e-07
-5.39966e-06
-7.02699e-07
-4.93874e-06
-7.45052e-07
-4.43451e-06
-7.70296e-07
-3.89577e-06
-7.7695e-07
-3.33778e-06
-7.65826e-07
-2.77947e-06
-7.41436e-07
-2.24939e-06
-6.96477e-07
-1.77064e-06
-6.30994e-07
-1.35364e-06
-5.56892e-07
-9.75717e-07
-4.91654e-07
-6.085e-07
-4.64213e-07
-2.27019e-07
-4.84458e-07
1.58729e-07
-5.21847e-07
5.3129e-07
-5.68866e-07
8.83025e-07
-6.20394e-07
1.22087e-06
-6.41172e-07
1.53421e-06
-6.25425e-07
1.79945e-06
-5.68874e-07
1.99514e-06
-4.68038e-07
2.10526e-06
-3.3878e-07
2.12191e-06
-1.88723e-07
2.03985e-06
-4.761e-08
1.86141e-06
6.67899e-08
1.62421e-06
1.41071e-07
1.42555e-06
-9.24377e-09
1.35742e-06
-4.04796e-07
1.3758e-06
-5.31849e-07
1.53987e-06
-3.80036e-07
1.91851e-06
-4.02683e-07
2.27845e-06
-5.20187e-07
2.48652e-06
-6.1876e-07
2.62915e-06
-6.25785e-07
2.69902e-06
-4.69376e-07
2.67165e-06
-2.54786e-07
2.49554e-06
1.31868e-08
2.1134e-06
3.747e-07
1.45019e-06
8.56682e-07
2.93641e-07
1.46104e-06
-1.51169e-06
2.24275e-06
-3.77096e-06
3.05436e-06
-5.97437e-06
3.72668e-06
-7.71463e-06
4.10257e-06
-9.11906e-06
3.9318e-06
-1.02917e-05
3.4878e-06
-1.12499e-05
2.94513e-06
-1.20394e-05
2.44248e-06
-1.26992e-05
2.01639e-06
-1.32568e-05
1.66124e-06
-1.37224e-05
1.35175e-06
-1.41009e-05
1.07125e-06
-1.43884e-05
8.01964e-07
-1.45787e-05
5.35834e-07
-1.46655e-05
2.69419e-07
-1.4646e-05
3.01783e-09
-1.45005e-05
-2.62188e-07
-1.42275e-05
-5.2403e-07
-1.38315e-05
-7.74328e-07
-1.33213e-05
-1.0031e-06
-1.27133e-05
-1.20033e-06
-1.20248e-05
-1.3623e-06
-1.12725e-05
-1.49141e-06
-1.04701e-05
-1.59266e-06
-9.6293e-06
-1.66967e-06
-8.76295e-06
-1.72042e-06
-7.88654e-06
-1.73982e-06
-7.01693e-06
-1.72777e-06
-6.16518e-06
-1.69504e-06
-5.33478e-06
-1.6546e-06
-4.52651e-06
-1.61165e-06
-3.74088e-06
-1.56699e-06
-2.98114e-06
-1.5168e-06
-2.25017e-06
-1.46126e-06
-1.54755e-06
-1.40768e-06
-8.66869e-07
-1.36686e-06
-1.95401e-07
-1.34939e-06
4.76424e-07
-1.35323e-06
1.15887e-06
-1.37086e-06
1.85215e-06
-1.39366e-06
2.55349e-06
-1.41122e-06
3.25824e-06
-1.41946e-06
3.96213e-06
-1.4184e-06
4.66136e-06
-1.40875e-06
5.35216e-06
-1.39068e-06
6.02995e-06
-1.36306e-06
6.68885e-06
-1.32369e-06
7.3227e-06
-1.27129e-06
7.92645e-06
-1.20827e-06
8.49633e-06
-1.14011e-06
9.03154e-06
-1.07167e-06
9.53634e-06
-1.00283e-06
1.00075e-05
-9.2038e-07
1.04098e-05
-7.92991e-07
1.06907e-05
-5.90937e-07
1.08389e-05
-3.1451e-07
1.08814e-05
1.43149e-08
1.08324e-05
3.52744e-07
1.06574e-05
6.85323e-07
1.03318e-05
9.64458e-07
9.8594e-06
1.15999e-06
9.27059e-06
1.27078e-06
8.59611e-06
1.33379e-06
7.86302e-06
1.38921e-06
7.11487e-06
1.43805e-06
6.40383e-06
1.441e-06
5.76006e-06
1.35754e-06
5.18749e-06
1.18648e-06
4.68351e-06
9.64934e-07
4.24711e-06
7.48184e-07
3.87402e-06
5.75207e-07
3.55126e-06
4.59201e-07
3.25931e-06
4.01429e-07
2.98562e-06
3.90907e-07
2.72456e-06
4.01455e-07
2.46883e-06
4.05003e-07
2.22827e-06
3.86723e-07
2.04492e-06
3.51165e-07
1.95866e-06
2.96897e-07
1.97051e-06
2.00299e-07
2.05752e-06
4.93322e-08
2.20525e-06
-1.34582e-07
2.39243e-06
-2.83552e-07
2.59265e-06
-3.63237e-07
2.78433e-06
-3.75824e-07
2.9558e-06
-3.38558e-07
3.10489e-06
-2.7623e-07
3.23226e-06
-1.99356e-07
3.34336e-06
-1.26958e-07
3.42708e-06
-4.55319e-08
3.48284e-06
6.52869e-09
3.49671e-06
7.5083e-08
3.48231e-06
7.51542e-08
3.42734e-06
1.68507e-07
1.46386e-07
3.31707e-06
5.96992e-07
-6.6915e-07
1.2127e-06
-1.31709e-06
1.65736e-06
-1.35988e-06
1.96588e-06
-1.17308e-06
2.18301e-06
-9.18754e-07
2.3348e-06
-6.38705e-07
2.4331e-06
-3.41212e-07
2.48458e-06
-5.05755e-08
2.48644e-06
2.46043e-07
2.41511e-06
5.29322e-07
2.27423e-06
7.72666e-07
2.06942e-06
9.40095e-07
1.76037e-06
1.01968e-06
1.339e-06
1.00122e-06
9.0521e-07
8.53948e-07
4.96068e-07
7.28788e-07
-2.91978e-09
8.307e-07
-5.26673e-07
8.4483e-07
-1.04602e-06
6.4853e-07
-1.79885e-06
8.32435e-07
-2.59972e-06
1.19245e-06
-3.22006e-06
1.38428e-06
-3.66491e-06
1.43993e-06
-4.03473e-06
1.4314e-06
-4.37017e-06
1.38564e-06
-4.74692e-06
1.31462e-06
-5.20227e-06
1.28399e-06
-5.69144e-06
1.27388e-06
-6.18137e-06
1.23655e-06
-6.65173e-06
1.18556e-06
-7.09192e-06
1.12004e-06
-7.48833e-06
1.03695e-06
-7.8373e-06
9.39194e-07
-8.14118e-06
8.28507e-07
-8.39806e-06
7.06575e-07
-8.60927e-06
5.75522e-07
-8.77489e-06
4.37161e-07
-8.89356e-06
2.92669e-07
-8.96448e-06
1.43586e-07
-8.98563e-06
-8.02385e-09
-8.95684e-06
-1.57521e-07
-8.8764e-06
-3.07682e-07
-8.74327e-06
-4.55867e-07
-8.55675e-06
-6.0033e-07
-8.3168e-06
-7.39065e-07
-8.02409e-06
-8.69834e-07
-7.68001e-06
-9.89897e-07
-7.28666e-06
-1.09604e-06
-6.84684e-06
-1.18487e-06
-6.3637e-06
-1.25344e-06
-5.84047e-06
-1.30017e-06
-5.28131e-06
-1.32498e-06
-4.69538e-06
-1.32737e-06
-4.08642e-06
-1.30543e-06
-3.45389e-06
-1.26353e-06
-2.79806e-06
-1.21272e-06
-2.12428e-06
-1.16543e-06
-1.45255e-06
-1.13594e-06
-8.009e-07
-1.13611e-06
-1.70704e-07
-1.15204e-06
4.32336e-07
-1.17191e-06
9.99161e-07
-1.18722e-06
1.53369e-06
-1.1757e-06
2.03944e-06
-1.13117e-06
2.50788e-06
-1.03731e-06
2.91689e-06
-8.77053e-07
3.23467e-06
-6.56558e-07
3.44419e-06
-3.98244e-07
3.48368e-06
-8.71026e-08
3.29106e-06
2.59408e-07
2.93711e-06
4.95024e-07
2.48819e-06
4.3968e-07
1.88747e-06
1.95924e-07
1.38067e-06
-2.50562e-08
1.17141e-06
-1.70776e-07
1.01343e-06
-2.44704e-07
7.17307e-07
-2.24059e-07
3.2283e-07
-2.24282e-07
-8.72538e-09
-2.9423e-07
-2.65956e-07
-2.12145e-07
-5.97162e-07
7.64191e-08
-1.14123e-06
5.57257e-07
-2.00351e-06
1.23698e-06
-3.20334e-06
2.05651e-06
-4.66633e-06
2.92404e-06
-6.16903e-06
3.74545e-06
-7.5279e-06
4.41323e-06
-8.56978e-06
4.76856e-06
-9.20118e-06
4.73398e-06
-9.61982e-06
4.35044e-06
-9.9775e-06
3.84548e-06
-1.03618e-05
3.32941e-06
-1.08053e-05
2.88604e-06
-1.13036e-05
2.51462e-06
-1.18269e-05
2.18453e-06
-1.23338e-05
1.85867e-06
-1.27794e-05
1.51683e-06
-1.31333e-05
1.15588e-06
-1.33782e-05
7.80727e-07
-1.35048e-05
3.96071e-07
-1.34958e-05
-5.97056e-09
-1.3368e-05
-3.89973e-07
-1.31124e-05
-7.79628e-07
-1.27318e-05
-1.15497e-06
-1.2237e-05
-1.49794e-06
-1.16445e-05
-1.79275e-06
-1.09736e-05
-2.03328e-06
-1.02407e-05
-2.22428e-06
-9.45724e-06
-2.37611e-06
-8.63108e-06
-2.49584e-06
-7.77168e-06
-2.57982e-06
-6.895e-06
-2.6165e-06
-6.02206e-06
-2.60071e-06
-5.16809e-06
-2.549e-06
-4.33395e-06
-2.48875e-06
-3.51717e-06
-2.42843e-06
-2.71678e-06
-2.36738e-06
-1.93967e-06
-2.29391e-06
-1.19583e-06
-2.2051e-06
-4.91763e-07
-2.11175e-06
1.82132e-07
-2.04076e-06
8.39844e-07
-2.0071e-06
1.49519e-06
-2.00858e-06
2.15935e-06
-2.03502e-06
2.83252e-06
-2.06683e-06
3.51021e-06
-2.0889e-06
4.18716e-06
-2.09641e-06
4.85975e-06
-2.09099e-06
5.52569e-06
-2.07469e-06
6.18284e-06
-2.04783e-06
6.82843e-06
-2.00865e-06
7.45805e-06
-1.95331e-06
8.06531e-06
-1.87855e-06
8.64436e-06
-1.78732e-06
9.1946e-06
-1.69035e-06
9.72122e-06
-1.59829e-06
1.02302e-05
-1.51186e-06
1.07266e-05
-1.41671e-06
1.12019e-05
-1.26833e-06
1.15959e-05
-9.84928e-07
1.17966e-05
-5.15195e-07
1.17352e-05
7.5698e-08
1.14573e-05
6.30697e-07
1.10699e-05
1.07266e-06
1.06316e-05
1.40281e-06
1.01388e-05
1.6528e-06
9.577e-06
1.83254e-06
8.96525e-06
1.94553e-06
8.33525e-06
2.01921e-06
7.69327e-06
2.08004e-06
7.03639e-06
2.09788e-06
6.39011e-06
2.00381e-06
5.79941e-06
1.77718e-06
5.28992e-06
1.47443e-06
4.85843e-06
1.17967e-06
4.48342e-06
9.50217e-07
4.1381e-06
8.04526e-07
3.80094e-06
7.38588e-07
3.45923e-06
7.3262e-07
3.11637e-06
7.44315e-07
2.79711e-06
7.24263e-07
2.53352e-06
6.50309e-07
2.35087e-06
5.33814e-07
2.26386e-06
3.83907e-07
2.27699e-06
1.87172e-07
2.38072e-06
-5.43976e-08
2.54234e-06
-2.96202e-07
2.73544e-06
-4.76653e-07
2.93456e-06
-5.62353e-07
3.12606e-06
-5.67331e-07
3.30302e-06
-5.15511e-07
3.46003e-06
-4.33247e-07
3.58833e-06
-3.27655e-07
3.68995e-06
-2.28577e-07
3.77635e-06
-1.31934e-07
3.86341e-06
-8.05239e-08
3.96248e-06
-2.39912e-08
4.05489e-06
-1.72544e-08
4.15746e-06
6.59322e-08
1.15319e-07
4.18853e-06
7.05884e-07
-1.37503e-06
1.14415e-06
-1.75536e-06
1.37895e-06
-1.59468e-06
1.54197e-06
-1.3361e-06
1.68029e-06
-1.05708e-06
1.7961e-06
-7.54515e-07
1.87601e-06
-4.2112e-07
1.92446e-06
-9.90313e-08
1.9485e-06
2.22011e-07
1.91573e-06
5.62093e-07
1.82678e-06
8.61617e-07
1.69367e-06
1.0732e-06
1.50336e-06
1.20999e-06
1.2286e-06
1.27597e-06
8.02107e-07
1.28044e-06
1.76409e-07
1.35449e-06
-4.63717e-07
1.47083e-06
-9.81777e-07
1.36289e-06
-1.67346e-06
1.34022e-06
-2.50424e-06
1.66322e-06
-3.18945e-06
1.87765e-06
-3.69924e-06
1.89407e-06
-4.14194e-06
1.88263e-06
-4.60177e-06
1.89123e-06
-5.08839e-06
1.87226e-06
-5.61169e-06
1.83792e-06
-6.14736e-06
1.81966e-06
-6.64885e-06
1.77538e-06
-7.11421e-06
1.70191e-06
-7.54797e-06
1.61932e-06
-7.94527e-06
1.51733e-06
-8.30657e-06
1.39824e-06
-8.63298e-06
1.26561e-06
-8.92279e-06
1.11831e-06
-9.17508e-06
9.58873e-07
-9.38792e-06
7.88359e-07
-9.55863e-06
6.0787e-07
-9.68525e-06
4.19286e-07
-9.76561e-06
2.23954e-07
-9.79713e-06
2.34939e-08
-9.77908e-06
-1.75577e-07
-9.71086e-06
-3.759e-07
-9.59264e-06
-5.74082e-07
-9.42489e-06
-7.68085e-07
-9.20852e-06
-9.55428e-07
-8.94511e-06
-1.13325e-06
-8.63683e-06
-1.29817e-06
-8.28642e-06
-1.44646e-06
-7.89691e-06
-1.57438e-06
-7.47163e-06
-1.67872e-06
-7.01467e-06
-1.75713e-06
-6.53167e-06
-1.80798e-06
-6.02851e-06
-1.83054e-06
-5.50708e-06
-1.82686e-06
-4.96703e-06
-1.80357e-06
-4.40968e-06
-1.77007e-06
-3.83729e-06
-1.73782e-06
-3.25397e-06
-1.71926e-06
-2.67198e-06
-1.7181e-06
-2.09733e-06
-1.72669e-06
-1.53528e-06
-1.73396e-06
-9.89493e-07
-1.733e-06
-4.54987e-07
-1.71021e-06
6.74639e-08
-1.65362e-06
5.68889e-07
-1.53873e-06
1.02808e-06
-1.33624e-06
1.41402e-06
-1.04251e-06
1.7033e-06
-6.87521e-07
1.87407e-06
-2.57868e-07
1.87942e-06
2.54056e-07
1.73161e-06
6.42831e-07
1.42234e-06
7.48955e-07
9.51517e-07
6.66743e-07
3.78312e-07
5.48149e-07
-3.17448e-07
5.24984e-07
-1.00074e-06
4.38589e-07
-1.44183e-06
2.17028e-07
-1.73897e-06
7.28615e-08
-2.133e-06
9.97941e-08
-2.6715e-06
3.26355e-07
-3.3568e-06
7.61723e-07
-4.19224e-06
1.3927e-06
-5.13887e-06
2.18361e-06
-6.13172e-06
3.04936e-06
-7.07313e-06
3.86544e-06
-7.83545e-06
4.50777e-06
-8.32062e-06
4.8984e-06
-8.54107e-06
4.98901e-06
-8.59755e-06
4.79045e-06
-8.65818e-06
4.41107e-06
-8.81426e-06
4.00156e-06
-9.11299e-06
3.62814e-06
-9.54485e-06
3.3179e-06
-1.00683e-05
3.03807e-06
-1.06219e-05
2.73818e-06
-1.11423e-05
2.37901e-06
-1.15798e-05
1.95434e-06
-1.1908e-05
1.48412e-06
-1.21211e-05
9.93807e-07
-1.22208e-05
4.95772e-07
-1.2203e-05
-2.37546e-08
-1.20757e-05
-5.17327e-07
-1.18312e-05
-1.02414e-06
-1.1469e-05
-1.51714e-06
-1.10004e-05
-1.96658e-06
-1.04446e-05
-2.34853e-06
-9.82401e-06
-2.65385e-06
-9.15457e-06
-2.89372e-06
-8.44191e-06
-3.08876e-06
-7.68334e-06
-3.2544e-06
-6.87874e-06
-3.38442e-06
-6.04237e-06
-3.45288e-06
-5.20381e-06
-3.43926e-06
-4.39017e-06
-3.36265e-06
-3.59725e-06
-3.28167e-06
-2.81075e-06
-3.21493e-06
-2.019e-06
-3.15914e-06
-1.23121e-06
-3.0817e-06
-4.70475e-07
-2.96583e-06
2.50423e-07
-2.83265e-06
9.3387e-07
-2.72421e-06
1.59204e-06
-2.66528e-06
2.24733e-06
-2.66386e-06
2.90992e-06
-2.69761e-06
3.57755e-06
-2.73446e-06
4.24229e-06
-2.75364e-06
4.89788e-06
-2.752e-06