/*--------------------------------*- C++ -*----------------------------------*\
  =========                 |
  \\      /  F ield         | OpenFOAM: The Open Source CFD Toolbox
   \\    /   O peration     | Website:  https://openfoam.org
    \\  /    A nd           | Version:  9
     \\/     M anipulation  |
\*---------------------------------------------------------------------------*/
FoamFile
{
    format      ascii;
    class       volScalarField;
    location    "0.031";
    object      k;
}
// * * * * * * * * * * * * * * * * * * * * * * * * * * * * * * * * * * * * * //

dimensions      [0 2 -2 0 0 0 0];

internalField   nonuniform List<scalar> 
12225
(
1.97392e-05
2.06814e-05
3.15873e-05
9.90021e-05
0.000201078
0.000228806
0.000220305
0.000160034
0.000106076
9.13458e-05
9.21471e-05
0.000104696
0.000114873
0.000116022
0.000111839
9.20395e-05
6.73095e-05
5.8613e-05
1.99984e-05
2.01469e-05
2.15892e-05
2.96267e-05
5.68433e-05
7.42702e-05
7.62755e-05
7.1375e-05
5.52655e-05
4.66419e-05
4.52212e-05
4.64069e-05
5.33468e-05
6.89194e-05
7.73663e-05
7.80087e-05
7.69105e-05
7.09477e-05
2.0004e-05
1.89862e-05
1.73242e-05
1.63513e-05
1.66307e-05
1.80125e-05
1.94859e-05
1.96118e-05
1.92265e-05
1.88435e-05
1.88464e-05
1.91367e-05
2.06053e-05
2.44363e-05
2.64835e-05
3.00121e-05
3.5222e-05
3.83481e-05
2.00867e-05
2.01174e-05
2.00388e-05
1.96006e-05
1.89837e-05
1.89647e-05
1.90064e-05
1.88172e-05
1.7791e-05
1.54438e-05
1.43049e-05
1.42536e-05
1.47273e-05
1.64998e-05
1.79153e-05
1.86176e-05
1.90288e-05
1.95603e-05
2.13145e-05
2.3502e-05
2.34768e-05
2.20254e-05
2.10479e-05
2.20381e-05
2.24468e-05
2.25261e-05
2.28787e-05
2.40475e-05
2.95254e-05
3.88444e-05
4.19088e-05
4.1642e-05
3.80274e-05
2.99705e-05
2.47563e-05
2.16832e-05
2.36339e-05
2.5545e-05
2.43099e-05
2.15128e-05
2.04741e-05
2.02674e-05
2.0275e-05
2.04653e-05
2.11096e-05
2.25048e-05
2.52833e-05
3.18415e-05
4.16967e-05
5.04015e-05
5.44704e-05
5.47386e-05
5.34447e-05
4.77872e-05
2.10323e-05
2.2289e-05
2.16554e-05
2.06697e-05
2.02847e-05
2.02074e-05
2.02266e-05
2.03523e-05
2.07151e-05
2.16425e-05
2.43945e-05
3.39354e-05
4.37019e-05
4.82075e-05
4.92526e-05
4.91583e-05
4.83285e-05
4.51647e-05
2.20232e-05
2.20263e-05
2.08118e-05
2.05937e-05
2.07448e-05
2.13612e-05
2.27303e-05
2.5786e-05
2.72821e-05
2.73091e-05
2.77397e-05
2.94439e-05
3.36569e-05
4.3675e-05
5.27386e-05
5.73079e-05
5.80893e-05
5.69081e-05
2.87824e-05
2.58668e-05
2.13567e-05
2.10327e-05
2.39382e-05
4.92821e-05
0.000105773
0.00011649
9.87966e-05
5.64183e-05
3.70845e-05
3.03371e-05
2.89577e-05
2.94046e-05
3.17652e-05
4.00662e-05
4.71135e-05
4.88692e-05
2.26886e-05
2.13642e-05
2.0863e-05
2.12451e-05
2.27207e-05
2.69238e-05
3.8272e-05
7.60411e-05
9.93981e-05
9.46455e-05
6.43114e-05
4.24336e-05
3.27767e-05
2.8621e-05
2.75927e-05
2.77262e-05
2.87827e-05
3.21373e-05
2.16639e-05
2.09795e-05
2.14786e-05
2.19342e-05
2.20325e-05
2.22309e-05
2.30866e-05
2.75487e-05
3.2545e-05
3.26059e-05
2.96531e-05
2.62399e-05
2.49977e-05
2.48193e-05
2.52719e-05
2.77469e-05
3.87569e-05
6.15776e-05
2.05595e-05
2.07391e-05
2.1119e-05
2.22148e-05
2.16404e-05
2.09928e-05
2.08869e-05
2.10229e-05
2.203e-05
2.34291e-05
2.33971e-05
2.26028e-05
2.21995e-05
2.21795e-05
2.25217e-05
2.42074e-05
3.0259e-05
4.72695e-05
2.0514e-05
2.18327e-05
2.20562e-05
2.17355e-05
2.08556e-05
2.0379e-05
2.01915e-05
2.01565e-05
2.01724e-05
2.02361e-05
2.03855e-05
2.08053e-05
2.19976e-05
2.53832e-05
2.95609e-05
3.32516e-05
3.57675e-05
3.72929e-05
2.07366e-05
2.26309e-05
2.39095e-05
2.38537e-05
2.29986e-05
2.17629e-05
2.09872e-05
2.05833e-05
2.04292e-05
2.04046e-05
2.04294e-05
2.06168e-05
2.11669e-05
2.29041e-05
2.83541e-05
3.40201e-05
3.68243e-05
3.74445e-05
2.1453e-05
2.16551e-05
2.11212e-05
2.09809e-05
2.10157e-05
2.10288e-05
2.09958e-05
2.09424e-05
2.0943e-05
2.10107e-05
2.13943e-05
2.29748e-05
2.74903e-05
3.07155e-05
3.19484e-05
3.21555e-05
3.16507e-05
2.95555e-05
2.05276e-05
2.1253e-05
2.13987e-05
2.13605e-05
2.12565e-05
2.11778e-05
2.09959e-05
2.07591e-05
2.06649e-05
2.06567e-05
2.07013e-05
2.09645e-05
2.1964e-05
2.27837e-05
2.29263e-05
2.27457e-05
2.21362e-05
2.17699e-05
2.00245e-05
2.04768e-05
2.09498e-05
2.10755e-05
2.11728e-05
2.15755e-05
2.17198e-05
2.16549e-05
2.15185e-05
2.13644e-05
2.12247e-05
2.11468e-05
2.11285e-05
2.1131e-05
2.11481e-05
2.1177e-05
2.12007e-05
2.12471e-05
2.0687e-05
2.07011e-05
2.04584e-05
2.04452e-05
2.11164e-05
2.22038e-05
2.21617e-05
2.16079e-05
2.12593e-05
2.10884e-05
2.09492e-05
2.08304e-05
2.0752e-05
2.07156e-05
2.07059e-05
2.0706e-05
2.07129e-05
2.07394e-05
2.12695e-05
2.07503e-05
2.06477e-05
2.06951e-05
2.10075e-05
2.10908e-05
2.11327e-05
2.13131e-05
2.21386e-05
2.33515e-05
2.39734e-05
2.41699e-05
2.41779e-05
2.40683e-05
2.35436e-05
2.2807e-05
2.22161e-05
2.18171e-05
2.02441e-05
2.03406e-05
2.03222e-05
2.0369e-05
2.05818e-05
2.05528e-05
2.0663e-05
2.14618e-05
2.24313e-05
2.28955e-05
2.30284e-05
2.30217e-05
2.28539e-05
2.22212e-05
2.16013e-05
2.11975e-05
2.09773e-05
2.08851e-05
2.0519e-05
2.02381e-05
2.01691e-05
2.02728e-05
2.04389e-05
2.04669e-05
2.05194e-05
2.06297e-05
2.09121e-05
2.17815e-05
2.52022e-05
3.23528e-05
3.59151e-05
3.60811e-05
3.41157e-05
2.91406e-05
2.59396e-05
2.45501e-05
2.03063e-05
2.06551e-05
2.11288e-05
2.1827e-05
2.15231e-05
2.09844e-05
2.08342e-05
2.08476e-05
2.10602e-05
2.20635e-05
2.34889e-05
2.42634e-05
2.44844e-05
2.44507e-05
2.40115e-05
2.32922e-05
2.29054e-05
2.27793e-05
2.03511e-05
2.11192e-05
2.14035e-05
2.13447e-05
2.1021e-05
2.09134e-05
2.09202e-05
2.09228e-05
2.09122e-05
2.09226e-05
2.10268e-05
2.13365e-05
2.1543e-05
2.16217e-05
2.16328e-05
2.16238e-05
2.15904e-05
2.15755e-05
2.10297e-05
2.10916e-05
2.10857e-05
2.12029e-05
2.16328e-05
2.2959e-05
2.40415e-05
2.4335e-05
2.42095e-05
2.34772e-05
2.28389e-05
2.25683e-05
2.24743e-05
2.24459e-05
2.24299e-05
2.24007e-05
2.2314e-05
2.20438e-05
2.15e-05
2.09663e-05
2.06005e-05
2.07699e-05
2.10346e-05
2.11515e-05
2.12498e-05
2.14487e-05
2.20045e-05
2.28659e-05
2.53372e-05
2.79121e-05
2.94076e-05
2.99743e-05
3.00345e-05
2.97903e-05
2.82681e-05
2.56501e-05
2.24256e-05
2.06571e-05
2.02564e-05
2.05035e-05
2.11112e-05
2.13515e-05
2.15215e-05
2.19275e-05
2.38896e-05
2.65565e-05
2.69442e-05
2.6874e-05
2.66786e-05
2.60407e-05
2.4716e-05
2.36312e-05
2.26954e-05
2.21023e-05
2.2518e-05
2.06674e-05
2.01104e-05
2.00468e-05
1.99763e-05
1.97296e-05
1.92322e-05
1.91251e-05
1.91895e-05
1.94466e-05
1.96373e-05
1.97026e-05
1.9703e-05
1.96596e-05
1.95117e-05
1.91596e-05
1.83736e-05
1.64241e-05
2.00091e-05
1.93272e-05
1.74103e-05
1.6911e-05
1.68892e-05
1.66846e-05
1.55208e-05
1.22717e-05
1.00247e-05
9.09186e-06
8.88906e-06
8.92552e-06
9.28283e-06
1.07005e-05
1.23334e-05
1.34318e-05
1.40876e-05
1.43767e-05
2.00115e-05
2.06967e-05
2.28895e-05
2.42855e-05
2.50866e-05
2.51513e-05
2.50369e-05
2.46464e-05
2.42341e-05
2.40904e-05
2.40898e-05
2.40722e-05
2.40193e-05
2.39055e-05
2.37347e-05
2.33783e-05
2.28772e-05
2.24354e-05
2.01491e-05
3.19536e-05
5.72794e-05
6.33304e-05
6.25933e-05
6.15832e-05
6.14619e-05
6.09982e-05
5.77595e-05
4.81749e-05
4.08536e-05
3.60792e-05
3.25761e-05
2.98675e-05
2.78821e-05
2.66042e-05
2.59293e-05
2.5696e-05
0.0314158
0.0429182
0.0425993
0.0445644
0.0511315
0.0531521
0.0522337
0.0491551
0.0511128
0.0546361
0.0570819
0.0565343
0.0552834
0.0539352
0.0528828
0.0523946
0.051436
0.0504385
0.0496055
0.0476588
0.0460712
0.0431862
0.0402208
0.0361573
0.0213088
0.00484748
0.0068791
0.010985
0.0109389
0.011808
0.015158
0.027453
0.044225
0.0443504
0.0354757
0.0341332
0.0716223
0.22506
0.180925
0.0391547
0.0170678
0.0137241
0.013615
0.013911
0.0140961
0.0134843
0.0125162
0.0111905
0.00969098
0.00837048
0.00717262
0.00581184
0.00478844
0.00404018
0.0031773
0.00266899
0.00226754
0.0018847
0.00169506
0.00151638
0.00143963
0.00141265
0.0014449
0.00145924
0.00148469
0.00149981
0.00151766
0.0015377
0.00155314
0.00157785
0.0015931
0.00161225
0.00162742
0.00163809
0.00165324
0.00166767
0.001685
0.00170851
0.00173081
0.00175573
0.00177953
0.0018058
0.00183367
0.00186462
0.00189672
0.00192697
0.00195025
0.00196165
0.00196737
0.0019698
0.00196991
0.00196109
0.00193789
0.00190829
0.00186889
0.00182596
0.00177538
0.00171674
0.00165025
0.00157366
0.00148269
0.0013746
0.00125216
0.00112417
0.000997974
0.000882135
0.000781851
0.00069481
0.00061854
0.00055118
0.0004921
0.000440371
0.000394488
0.000353205
0.000315824
0.000281974
0.000251512
0.000224441
0.000200902
0.000181345
0.000166126
0.000154134
0.000142755
0.000130816
0.000118529
0.000105878
9.27732e-05
7.94548e-05
6.62927e-05
5.38448e-05
4.26091e-05
3.29861e-05
2.53009e-05
1.95496e-05
1.52662e-05
1.20015e-05
9.4463e-06
7.4064e-06
5.76438e-06
4.44603e-06
3.39805e-06
2.57634e-06
1.94129e-06
1.45686e-06
1.09101e-06
8.1643e-07
6.10798e-07
4.56618e-07
3.4066e-07
2.53168e-07
1.87046e-07
1.37124e-07
9.95991e-08
7.16068e-08
5.09373e-08
3.58462e-08
2.49475e-08
1.71576e-08
1.165e-08
7.80284e-09
5.15112e-09
3.34965e-09
2.14448e-09
1.35124e-09
8.3777e-10
5.11109e-10
3.06791e-10
1.8125e-10
1.05358e-10
6.03126e-11
3.39571e-11
1.88445e-11
1.02661e-11
5.52172e-12
2.89064e-12
1.52843e-12
6.64717e-13
1.02797e-12
5.00626e-10
4.01809e-07
0.0206824
0.0276125
0.027792
0.0475126
0.066181
0.064696
0.0603863
0.0558307
0.0533362
0.0498337
0.0456263
0.0415048
0.0376278
0.034875
0.0325813
0.0314851
0.0304181
0.030421
0.0307031
0.0313857
0.0326431
0.0338497
0.0354302
0.0351199
0.0335639
0.0292555
0.02424
0.0226587
0.0204215
0.0148452
0.0122916
0.0126298
0.0160178
0.018111
0.0397561
0.087653
0.0981521
0.0911422
0.0418026
0.0166224
0.0109711
0.00900022
0.00800663
0.00697295
0.0059918
0.00514505
0.00438738
0.0037951
0.00339706
0.0030714
0.00289503
0.00273857
0.00266998
0.00263666
0.00262457
0.00263519
0.00267148
0.00269333
0.00274023
0.00276377
0.00280973
0.00284768
0.00288017
0.00292746
0.002966
0.00301153
0.00306048
0.00311133
0.00316532
0.003224
0.00327663
0.00332549
0.00337438
0.00342714
0.00348222
0.00353569
0.0035781
0.0036065
0.00362685
0.00364225
0.00364704
0.00364691
0.00364044
0.00362284
0.00359112
0.00354427
0.00348289
0.00340999
0.00333111
0.00325304
0.00317874
0.00310715
0.00303948
0.00297766
0.00292344
0.00287594
0.00283484
0.00280122
0.00277276
0.00274742
0.00272221
0.00269477
0.00265249
0.00257755
0.00246384
0.00230968
0.00213295
0.00196123
0.00179716
0.00163742
0.00148698
0.00134818
0.00121844
0.0010939
0.000972799
0.000855543
0.000743286
0.000637494
0.000540479
0.0004547
0.000381244
0.000320393
0.000272631
0.000236984
0.000211469
0.000193711
0.000180909
0.000170663
0.000161361
0.000151595
0.000140826
0.000129346
0.000117377
0.000105016
9.25781e-05
8.04221e-05
6.89665e-05
5.85613e-05
4.93972e-05
4.15196e-05
3.48571e-05
2.92646e-05
2.45689e-05
2.06034e-05
1.72272e-05
1.43318e-05
1.18385e-05
9.69196e-06
7.85204e-06
6.28747e-06
4.97082e-06
3.87606e-06
2.97802e-06
2.25286e-06
1.67822e-06
1.23249e-06
8.93801e-07
6.40095e-07
4.52232e-07
3.14899e-07
2.15916e-07
1.45673e-07
9.66442e-08
6.30229e-08
4.03819e-08
2.54225e-08
1.57219e-08
9.55427e-09
5.70373e-09
3.34809e-09
1.93053e-09
1.09575e-09
6.10454e-10
3.3508e-10
1.80466e-10
9.46789e-11
5.09175e-11
2.08682e-11
5.30546e-11
3.31701e-08
0.0238734
0.0322435
0.0692652
0.0796636
0.0739363
0.0601882
0.0448419
0.034613
0.0277335
0.024075
0.0223085
0.0212541
0.0209085
0.020917
0.0209724
0.021005
0.0209732
0.0210472
0.0212665
0.0218007
0.0224162
0.0236891
0.024893
0.0275266
0.0304541
0.03025
0.0293896
0.028339
0.0256832
0.0184739
0.0160573
0.017886
0.0384987
0.0555201
0.0575798
0.0635232
0.0378837
0.0184097
0.0100864
0.00653541
0.0052443
0.00452403
0.00403214
0.00361236
0.00329719
0.0031355
0.00298007
0.00289526
0.00284807
0.00281665
0.00280351
0.00279899
0.00281953
0.0028511
0.00289127
0.00293043
0.0029769
0.00302466
0.00306569
0.00311661
0.00316333
0.00321161
0.00327
0.00332395
0.00338423
0.00344157
0.00350316
0.00355479
0.00360619
0.0036433
0.00368161
0.00372097
0.00376931
0.00382167
0.00388355
0.00395192
0.00397809
0.00398421
0.00398479
0.00398111
0.00396757
0.00394088
0.00390038
0.00384598
0.0037776
0.00369572
0.00359963
0.00350201
0.00340245
0.00330414
0.00321172
0.00312158
0.00303315
0.0029392
0.00284386
0.00275395
0.00267991
0.002628
0.0025992
0.00259635
0.00261808
0.00267776
0.00275285
0.00280339
0.00281982
0.00280635
0.00273203
0.00257577
0.00240121
0.00224152
0.00208663
0.00192414
0.00174869
0.00156618
0.00138606
0.00121168
0.00104686
0.000895335
0.000752991
0.000618072
0.000495238
0.000388965
0.000301441
0.000233477
0.000184149
0.000151091
0.000131345
0.000121094
0.000115889
0.000111815
0.000107229
0.000102497
9.77717e-05
9.2807e-05
8.75327e-05
8.14918e-05
7.43862e-05
6.64787e-05
5.84038e-05
5.05004e-05
4.29905e-05
3.62392e-05
3.04795e-05
2.57485e-05
2.19341e-05
1.88542e-05
1.63206e-05
1.4175e-05
1.23004e-05
1.06196e-05
9.08881e-06
7.68961e-06
6.41979e-06
5.28237e-06
4.2794e-06
3.40977e-06
2.66969e-06
2.05338e-06
1.55139e-06
1.15099e-06
8.38077e-07
5.98626e-07
4.19465e-07
2.88384e-07
1.94533e-07
1.28776e-07
8.36502e-08
5.33395e-08
3.33798e-08
2.05184e-08
1.2379e-08
7.34366e-09
4.27482e-09
2.4516e-09
1.37976e-09
7.65493e-10
4.11195e-10
2.24219e-10
9.75995e-11
1.44418e-09
0.01707
0.0940435
0.082585
0.0540674
0.0294566
0.0203781
0.0175571
0.0175067
0.0176087
0.0178463
0.0184699
0.0190748
0.0203262
0.0216456
0.0232541
0.0242692
0.0242962
0.0241985
0.0239695
0.0235381
0.0233596
0.0235994
0.0240427
0.0249144
0.026241
0.0277563
0.0276978
0.0270293
0.0241107
0.0177426
0.0226966
0.0419145
0.0455655
0.0475816
0.0337815
0.0182317
0.0103585
0.00627006
0.0045802
0.00385703
0.003533
0.00333816
0.00323954
0.00316355
0.0031167
0.00308703
0.00306845
0.00308306
0.00313983
0.00320303
0.0032875
0.0033673
0.00343088
0.00348901
0.00353362
0.00357303
0.00360408
0.00364061
0.00365981
0.00368906
0.00371394
0.00373468
0.00375623
0.00377407
0.00379663
0.00380719
0.00380916
0.00380818
0.00380352
0.00380023
0.00379961
0.00380323
0.00381635
0.00384056
0.00387686
0.00390822
0.00391342
0.00390758
0.0038927
0.00386312
0.00381114
0.00374805
0.00367586
0.00360451
0.00353808
0.00348959
0.00346283
0.00342746
0.00337434
0.00331161
0.00324663
0.00317711
0.00309388
0.00298271
0.00284988
0.00270813
0.00256576
0.00243867
0.00233893
0.00226456
0.00221333
0.00218527
0.00220131
0.00233952
0.00258242
0.0027859
0.00286469
0.00286727
0.00280389
0.0026295
0.0024751
0.0023549
0.00224565
0.00212136
0.00196322
0.00178255
0.00159778
0.00141792
0.00126023
0.00113143
0.00102128
0.000912941
0.000795866
0.000670195
0.000544529
0.00043121
0.000339787
0.000272164
0.000225553
0.000196975
0.000180556
0.000164073
0.000137821
0.000105576
8.04722e-05
7.00925e-05
6.81129e-05
6.64979e-05
6.21123e-05
5.08996e-05
3.68708e-05
2.45348e-05
1.5747e-05
1.03949e-05
7.48271e-06
6.03285e-06
5.35321e-06
5.03605e-06
4.8736e-06
4.76105e-06
4.60228e-06
4.26325e-06
3.8083e-06
3.33612e-06
2.87175e-06
2.42992e-06
2.02176e-06
1.65366e-06
1.32889e-06
1.04949e-06
8.15357e-07
6.23696e-07
4.69838e-07
3.48432e-07
2.54231e-07
1.8239e-07
1.28573e-07
8.90146e-08
6.0494e-08
4.03418e-08
2.6385e-08
1.69195e-08
1.06406e-08
6.55321e-09
3.95868e-09
2.33844e-09
1.34768e-09
7.87162e-10
4.02243e-10
2.7006e-10
0.0504902
0.0500347
0.0283972
0.0151668
0.0133488
0.0139972
0.0156544
0.0172729
0.0183827
0.019777
0.0227567
0.0259802
0.0329139
0.0392549
0.0460971
0.0497366
0.0490829
0.046586
0.0413167
0.0350879
0.0300465
0.0266282
0.0251788
0.0251869
0.0252151
0.0253801
0.0255474
0.025314
0.0203008
0.0234086
0.0366437
0.0401576
0.036388
0.0221017
0.0119087
0.00684394
0.00471838
0.0038056
0.003457
0.00332699
0.003277
0.00325552
0.00324973
0.00327257
0.00334625
0.00347499
0.00361329
0.00374375
0.00384724
0.00392074
0.00399401
0.00405511
0.00409064
0.0041342
0.00415776
0.00417576
0.00418731
0.00419308
0.00419572
0.00419642
0.00419164
0.00418042
0.00416379
0.00414037
0.00410863
0.00407508
0.00403264
0.00399446
0.00395715
0.00391139
0.00386802
0.00383578
0.00379902
0.0037672
0.00373208
0.00368454
0.00362374
0.00355213
0.00347119
0.00340708
0.00335611
0.00333873
0.00333498
0.00334466
0.00337805
0.00343513
0.00351485
0.00362481
0.00375253
0.00385407
0.00390676
0.00392391
0.00387188
0.00375
0.00358465
0.00337113
0.00310203
0.00279195
0.0025468
0.00238574
0.00227212
0.00217244
0.0020718
0.00200506
0.00200376
0.00214518
0.00254632
0.00282202
0.00289657
0.00288423
0.00275788
0.00255763
0.00243228
0.0023543
0.00227862
0.0021485
0.00193235
0.00166343
0.00140792
0.00120416
0.00105552
0.000945714
0.000850991
0.00075517
0.000654595
0.000550897
0.00044882
0.000357042
0.000283895
0.000233232
0.000202811
0.000186536
0.000176317
0.000164734
0.000150504
0.000137441
0.00012953
0.000126394
0.000124167
0.000119569
0.000109342
9.53884e-05
8.00082e-05
6.48403e-05
5.08075e-05
3.84163e-05
2.8362e-05
2.13753e-05
1.69271e-05
1.37155e-05
1.11713e-05
9.11731e-06
7.44345e-06
6.04926e-06
4.85692e-06
3.81946e-06
2.91642e-06
2.15344e-06
1.54599e-06
1.09117e-06
7.66608e-07
5.42437e-07
3.88499e-07
2.81512e-07
2.05289e-07
1.49842e-07
1.08765e-07
7.81817e-08
5.53945e-08
3.85936e-08
2.63668e-08
1.76363e-08
1.15584e-08
7.39393e-09
4.6584e-09
2.83388e-09
1.74154e-09
9.78049e-10
6.27408e-10
2.95967e-10
0.0229633
0.0176503
0.00986501
0.0102407
0.0125964
0.0175931
0.0194518
0.020705
0.022695
0.0263824
0.0333612
0.0460721
0.0684849
0.0844076
0.103444
0.108838
0.106509
0.0992503
0.0834014
0.0617956
0.0448731
0.033561
0.0289566
0.0266965
0.0250241
0.0247142
0.0245381
0.0210609
0.0213147
0.0319354
0.0348119
0.0298047
0.0157202
0.00904422
0.00557263
0.00407898
0.00354924
0.00337657
0.00333631
0.00333119
0.00336927
0.00346474
0.0036428
0.00381265
0.0039672
0.00406198
0.00415167
0.00422618
0.00429219
0.00433834
0.00438446
0.00443304
0.00446014
0.00448941
0.00450709
0.00451877
0.00453174
0.00454572
0.00456517
0.00458833
0.0046035
0.0046115
0.0046146
0.00461218
0.00460834
0.00459004
0.00454077
0.00447468
0.00440609
0.00432235
0.00422812
0.00412704
0.00404555
0.00395094
0.0038394
0.00375189
0.00366322
0.00355915
0.00345007
0.0033692
0.00333613
0.00333237
0.00334213
0.0033857
0.00349195
0.003675
0.00393528
0.00422457
0.0044187
0.00448581
0.00449242
0.00443832
0.00430389
0.00415974
0.00403625
0.00391779
0.0038028
0.00364987
0.00334053
0.00298893
0.002798
0.00267054
0.00248533
0.00219709
0.00198129
0.00192821
0.00198239
0.00230769
0.00274144
0.00289971
0.0029109
0.00283419
0.00260386
0.00243533
0.00234469
0.00229433
0.00223425
0.00210318
0.00177414
0.00139444
0.00109705
0.000900724
0.000784508
0.000710242
0.000641468
0.000566602
0.000486917
0.000408285
0.000336004
0.000273196
0.000223976
0.000191715
0.000174391
0.000165149
0.000156797
0.000145606
0.000132857
0.000122895
0.000117597
0.000114664
0.00011283
0.000111198
0.000108211
0.000101081
8.63175e-05
7.00597e-05
5.48156e-05
4.18275e-05
3.14569e-05
2.34286e-05
1.73292e-05
1.28399e-05
9.63287e-06
7.37382e-06
5.76486e-06
4.57695e-06
3.66044e-06
2.92456e-06
2.31427e-06
1.805e-06
1.38552e-06
1.04579e-06
7.75869e-07
5.65688e-07
4.05354e-07
2.85478e-07
1.97592e-07
1.34379e-07
9.00729e-08
5.96207e-08
3.90414e-08
2.5109e-08
1.60437e-08
9.92543e-09
6.28629e-09
3.71802e-09
2.43966e-09
1.42336e-09
8.96191e-10
5.17609e-10
0.0131942
0.0122655
0.007781
0.0110094
0.0177618
0.0196479
0.0204681
0.0219307
0.0257986
0.03543
0.0579513
0.0937173
0.13101
0.154229
0.171867
0.175533
0.172887
0.165341
0.149946
0.118299
0.0788049
0.0490695
0.0335557
0.0268979
0.0245439
0.0238747
0.0212667
0.020861
0.0279661
0.0310637
0.027698
0.0136388
0.00758339
0.00498391
0.0038731
0.00348567
0.00339443
0.00338171
0.00342998
0.00357238
0.00379745
0.00399025
0.00410845
0.00420534
0.00429398
0.00436123
0.00443272
0.00449551
0.00454858
0.0046103
0.00465579
0.00472117
0.00476809
0.00481698
0.00486704
0.00490409
0.00493853
0.00496074
0.00499238
0.00503797
0.00510356
0.00513619
0.00514802
0.00514343
0.00513479
0.00512611
0.00507878
0.0050206
0.00494877
0.00484339
0.00477254
0.00462925
0.0045202
0.00441108
0.00426809
0.00413116
0.00403418
0.00389384
0.00379565
0.00368111
0.00362477
0.00360474
0.00360044
0.00361997
0.00367709
0.00382065
0.00404309
0.00430861
0.00445224
0.00448656
0.00446783
0.00438318
0.00419905
0.00395667
0.00381523
0.00376329
0.00376473
0.00381295
0.00379521
0.00360452
0.00321124
0.00299155
0.00288416
0.00275873
0.00243301
0.00208196
0.0019774
0.0020228
0.00232851
0.00275356
0.00292226
0.0029367
0.00286894
0.00263026
0.00243958
0.00234136
0.00229256
0.00223604
0.00211575
0.00178127
0.00131502
0.000948958
0.000710191
0.000575959
0.000511084
0.000473394
0.000435351
0.000389119
0.000337104
0.000284856
0.000238307
0.000200981
0.000174331
0.000159057
0.000151653
0.000145857
0.000136931
0.000124295
0.000111995
0.000105145
0.000102697
0.00010133
9.98328e-05
9.81202e-05
9.59875e-05
9.17086e-05
8.10539e-05
6.59041e-05
5.11776e-05
3.83184e-05
2.78334e-05
1.97136e-05
1.37484e-05
9.57654e-06
6.76579e-06
4.90596e-06
3.66619e-06
2.81148e-06
2.1905e-06
1.71344e-06
1.33188e-06
1.02192e-06
7.713e-07
5.71952e-07
4.16437e-07
2.97653e-07
2.08893e-07
1.43951e-07
9.74722e-08
6.48177e-08
4.24105e-08
2.72335e-08
1.7278e-08
1.07279e-08
6.66911e-09
4.02667e-09
2.4829e-09
1.47838e-09
8.78079e-10
5.22237e-10
0.0119929
0.0116478
0.00704173
0.0154769
0.0191261
0.0200724
0.0208767
0.023735
0.0321305
0.0514332
0.0869527
0.125911
0.158958
0.179243
0.191789
0.197304
0.192462
0.172717
0.148482
0.11432
0.0747289
0.0462967
0.0319305
0.0258321
0.0231496
0.0213026
0.0208109
0.0247889
0.0279112
0.0266521
0.0133762
0.00712091
0.00471764
0.00381456
0.00351504
0.00344945
0.00343863
0.0035464
0.00380021
0.00400339
0.00415154
0.00426611
0.00437598
0.00446183
0.0045474
0.00463129
0.00470386
0.0048069
0.00489786
0.00503041
0.00515987
0.00531642
0.00548387
0.00567378
0.00590844
0.00615428
0.00641011
0.00661761
0.00676058
0.00688805
0.0069899
0.00703694
0.00702924
0.00680748
0.00661168
0.00649317
0.0062157
0.00601143
0.00584119
0.00561299
0.00550172
0.00525857
0.00505501
0.00487275
0.00468557
0.00449224
0.00431879
0.0041473
0.00400364
0.00387577
0.00377131
0.00370833
0.00367671
0.00366052
0.00365102
0.00365995
0.00368669
0.00374246
0.00374883
0.00368454
0.00358925
0.00347784
0.00322952
0.0026881
0.00240108
0.00242066
0.00258821
0.00314314
0.00367881
0.00378979
0.00363794
0.00320278
0.00300248
0.00292713
0.00279336
0.00249647
0.00225164
0.00217806
0.00223757
0.00258809
0.00289852
0.00298736
0.00297782
0.00286689
0.00259663
0.0024218
0.00233767
0.00228609
0.00219905
0.00198284
0.0015483
0.00111766
0.000775199
0.000541724
0.000399811
0.000326599
0.000298725
0.000290544
0.00028318
0.00026498
0.000232494
0.000200838
0.000174827
0.000155953
0.000143699
0.000136665
0.000131477
0.000125589
0.000118001
0.000108323
9.90088e-05
9.32526e-05
9.04663e-05
8.91713e-05
8.80896e-05
8.68089e-05
8.50229e-05
8.15366e-05
7.27098e-05
5.84679e-05
4.44508e-05
3.22144e-05
2.2387e-05
1.5051e-05
9.92519e-06
6.53512e-06
4.3774e-06
3.02524e-06
2.16755e-06
1.60375e-06
1.2127e-06
9.24491e-07
7.02037e-07
5.26606e-07
3.88419e-07
2.81101e-07
1.99462e-07
1.38738e-07
9.46515e-08
6.33419e-08
4.16215e-08
2.68346e-08
1.70329e-08
1.06141e-08
6.54202e-09
3.96599e-09
2.36219e-09
1.39708e-09
8.12153e-10
4.79439e-10
0.0116256
0.0115063
0.00676735
0.0173126
0.0194186
0.0201551
0.0210122
0.0245661
0.0347604
0.0572078
0.0941765
0.132966
0.164808
0.183619
0.189409
0.187034
0.177309
0.156353
0.131196
0.0963109
0.0594277
0.0376055
0.0271926
0.0226382
0.0209338
0.0208338
0.0229566
0.0250622
0.0251515
0.0144825
0.00719026
0.00468836
0.00382062
0.00355583
0.0035056
0.00350907
0.00365023
0.00395081
0.00413687
0.0042887
0.00442131
0.00452908
0.00462884
0.00472422
0.00480433
0.00491601
0.00508525
0.00530382
0.00553678
0.00586889
0.00625036
0.00672776
0.00730935
0.00797411
0.00875601
0.00959166
0.0104537
0.011212
0.0117792
0.0121084
0.0122296
0.0120571
0.0117025
0.0109474
0.0102772
0.0096793
0.00866367
0.00801399
0.00744258
0.00679795
0.00648526
0.00601617
0.00566044
0.00534131
0.005021
0.00473951
0.0044753
0.00424853
0.0040576
0.0039043
0.00379735
0.00372938
0.00369071
0.00366106
0.00361505
0.00354374
0.00344517
0.00332158
0.00311813
0.00281074
0.00244378
0.00209184
0.00170617
0.0012209
0.000913453
0.000838
0.000886342
0.00121564
0.00253933
0.00359218
0.00376345
0.00359851
0.00318382
0.00302784
0.00288615
0.00262403
0.00246226
0.00242214
0.00244299
0.00260754
0.00291534
0.00304872
0.00306478
0.00303062
0.00284951
0.00253833
0.00235587
0.00226886
0.00218034
0.0019814
0.00160356
0.00120108
0.000847883
0.000579363
0.000398306
0.000286856
0.000224839
0.000195408
0.000184368
0.000181882
0.000181551
0.000180083
0.000171631
0.000152733
0.000138486
0.000128902
0.000122137
0.000116884
0.000113206
0.000110412
0.000104732
9.63351e-05
8.87862e-05
8.36037e-05
8.06724e-05
7.92649e-05
7.84137e-05
7.7432e-05
7.57873e-05
7.23549e-05
6.31625e-05
4.87817e-05
3.53967e-05
2.43549e-05
1.60258e-05
1.01996e-05
6.37806e-06
3.99681e-06
2.5618e-06
1.70465e-06
1.18282e-06
8.51554e-07
6.27915e-07
4.66834e-07
3.45559e-07
2.52565e-07
1.81428e-07
1.27801e-07
8.82091e-08
5.9641e-08
3.95272e-08
2.56712e-08
1.63582e-08
1.02306e-08
6.28463e-09
3.79864e-09
2.25546e-09
1.32165e-09
7.60508e-10
4.37935e-10
0.0111311
0.0114853
0.00757518
0.0181102
0.0193842
0.0199662
0.0207567
0.0241015
0.0326934
0.0491776
0.0758502
0.104948
0.128996
0.147122
0.154157
0.152281
0.137256
0.115426
0.0864378
0.0558736
0.0359741
0.0261938
0.0219114
0.0205366
0.0206099
0.0219052
0.0230138
0.0231616
0.0155763
0.00753436
0.00480632
0.00388176
0.00360544
0.00355282
0.00357093
0.00378412
0.00409001
0.00428293
0.00444206
0.00454247
0.00462938
0.00472094
0.00480685
0.00493728
0.00513218
0.00544548
0.00574492
0.00617798
0.00678676
0.00756707
0.00856372
0.00982973
0.0113911
0.0131273
0.0152876
0.0172106
0.0195753
0.0212476
0.0225893
0.0233374
0.0235875
0.0229606
0.0214232
0.0196801
0.0180386
0.0164279
0.0146107
0.0132543
0.0120976
0.01088
0.00998621
0.00902679
0.00820444
0.00748277
0.0067276
0.00605069
0.00543402
0.00493796
0.0045628
0.00428454
0.00414237
0.0041084
0.0041566
0.00424777
0.00432495
0.00432372
0.00419519
0.0039262
0.00350994
0.00298364
0.00242291
0.00190148
0.00139221
0.000944461
0.000649866
0.000522084
0.000509678
0.000584914
0.00106642
0.00274921
0.00365191
0.00373233
0.00351776
0.00322852
0.00296931
0.00266188
0.00249058
0.00246993
0.00251759
0.00274545
0.00297382
0.00307772
0.00309883
0.0030865
0.00300283
0.00270061
0.00239507
0.00222965
0.00208252
0.00186163
0.00155346
0.0012038
0.000875019
0.000608144
0.000415184
0.000288683
0.000212082
0.000169186
0.000148232
0.000140425
0.00013903
0.000139559
0.000140094
0.000139176
0.00013264
0.000122271
0.000116778
0.000114014
0.00011226
0.000110365
0.000106607
9.97652e-05
9.14435e-05
8.37823e-05
7.80513e-05
7.44598e-05
7.25312e-05
7.16413e-05
7.10616e-05
7.01515e-05
6.82841e-05
6.35931e-05
5.10756e-05
3.68283e-05
2.50436e-05
1.61922e-05
1.00508e-05
6.06322e-06
3.61503e-06
2.17574e-06
1.35001e-06
8.7536e-07
5.94648e-07
4.20112e-07
3.03748e-07
2.2099e-07
1.59751e-07
1.13834e-07
7.9613e-08
5.45378e-08
3.6571e-08
2.40066e-08
1.54321e-08
9.71974e-09
6.00016e-09
3.6339e-09
2.15901e-09
1.26167e-09
7.23233e-10
4.11379e-10
0.0108778
0.0115479
0.00920205
0.0182483
0.01886
0.019561
0.0199751
0.0208203
0.0235421
0.0299688
0.0424098
0.0602646
0.0760185
0.0855425
0.0892102
0.0846476
0.0750265
0.0584485
0.0433046
0.0304224
0.0239915
0.0210492
0.0201626
0.0204568
0.0214814
0.0219234
0.021407
0.0157606
0.0079425
0.00499133
0.00398482
0.00367274
0.00360807
0.00361229
0.00381385
0.00408739
0.00428145
0.00442422
0.00455766
0.0046441
0.00473352
0.00486309
0.00502913
0.00534306
0.00574342
0.00609663
0.00681531
0.00787306
0.00937876
0.0115011
0.0138917
0.0164982
0.0195101
0.0233108
0.0278557
0.0329121
0.0380099
0.0416327
0.0433491
0.0438907
0.0420395
0.0401421
0.0359931
0.0315679
0.027791
0.0234008
0.0197674
0.0174903
0.0150656
0.0135462
0.0124016
0.0116827
0.0111113
0.0106337
0.0101467
0.00959153
0.00895177
0.0082408
0.00754233
0.00695435
0.00658296
0.00645347
0.00658588
0.00684274
0.00714457
0.00732587
0.00729497
0.00690981
0.00614305
0.00513403
0.00393047
0.00278704
0.00184965
0.00115417
0.000723385
0.000523186
0.00048144
0.000524843
0.000827327
0.00210199
0.00339349
0.00373508
0.00370826
0.00351555
0.00312414
0.0027106
0.00246355
0.00241919
0.00248028
0.00274846
0.00297169
0.00305642
0.00307219
0.00306249
0.00300415
0.00277243
0.00236942
0.00207659
0.00187628
0.00168325
0.00144081
0.00115596
0.000870087
0.000621918
0.000431656
0.000300103
0.000216344
0.000166547
0.000138987
0.000125683
0.00012101
0.000120348
0.000120764
0.000120927
0.000119736
0.000113548
0.00010847
0.000107103
0.000106775
0.000106363
0.000105368
0.000102836
9.57412e-05
8.63633e-05
7.85322e-05
7.28568e-05
6.93503e-05
6.74629e-05
6.65854e-05
6.61494e-05
6.55793e-05
6.4359e-05
6.11233e-05
5.09509e-05
3.62836e-05
2.42814e-05
1.54237e-05
9.37636e-06
5.50753e-06
3.16599e-06
1.81361e-06
1.05885e-06
6.43107e-07
4.10753e-07
2.75973e-07
1.92714e-07
1.37201e-07
9.78935e-08
6.91693e-08
4.80582e-08
3.27143e-08
2.17858e-08
1.41877e-08
9.03817e-09
5.63473e-09
3.44062e-09
2.05823e-09
1.20823e-09
6.94956e-10
3.94521e-10
0.0103924
0.011743
0.0103857
0.0179835
0.0186553
0.0193891
0.0197028
0.0199264
0.020736
0.0229795
0.0279294
0.0348624
0.0414522
0.0450538
0.0463282
0.0432036
0.038833
0.0299919
0.0253325
0.0217826
0.0203726
0.0200182
0.0204475
0.0211469
0.0213738
0.0202982
0.0152944
0.00821501
0.00519299
0.00410395
0.00375667
0.003675
0.00366235
0.00383034
0.0040927
0.00427432
0.00442808
0.00456161
0.00469943
0.00480449
0.00490515
0.0051006
0.00549881
0.0060151
0.00650921
0.00757132
0.00978613
0.0130768
0.0160576
0.0187646
0.0215299
0.0252922
0.0311492
0.0404971
0.0510804
0.0630223
0.0738994
0.0796973
0.0826548
0.0833774
0.0767841
0.0698295
0.0613853
0.0512555
0.0422512
0.0337736
0.0257063
0.0205124
0.0164724
0.0138948
0.0122033
0.0113292
0.0110156
0.0108074
0.0105945
0.0103635
0.0100856
0.00975976
0.0094034
0.00905695
0.00877128
0.00860208
0.00862706
0.0087332
0.00891339
0.00902092
0.00902652
0.00890089
0.00849786
0.00788857
0.00707465
0.00578702
0.00405182
0.00242155
0.00136635
0.000791078
0.000586689
0.000590397
0.000838868
0.00195846
0.00322367
0.00369419
0.00371931
0.00360056
0.0033122
0.00281324
0.00236682
0.00219193
0.00220706