/*--------------------------------*- C++ -*----------------------------------*\
  =========                 |
  \\      /  F ield         | OpenFOAM: The Open Source CFD Toolbox
   \\    /   O peration     | Website:  https://openfoam.org
    \\  /    A nd           | Version:  9
     \\/     M anipulation  |
\*---------------------------------------------------------------------------*/
FoamFile
{
    format      ascii;
    class       volScalarField;
    location    "0.031";
    object      k_0;
}
// * * * * * * * * * * * * * * * * * * * * * * * * * * * * * * * * * * * * * //

dimensions      [0 2 -2 0 0 0 0];

internalField   nonuniform List<scalar> 
12225
(
1.97622e-05
2.08501e-05
3.30601e-05
0.000106271
0.000205686
0.000230251
0.000219536
0.000155332
0.000104153
9.11078e-05
9.25581e-05
0.000106057
0.000115518
0.000116328
0.000111489
9.04651e-05
6.64533e-05
5.83919e-05
1.99988e-05
2.01653e-05
2.1756e-05
3.05724e-05
5.84381e-05
7.44615e-05
7.58691e-05
7.01598e-05
5.38636e-05
4.60809e-05
4.49975e-05
4.64339e-05
5.44771e-05
6.98779e-05
7.75765e-05
7.79321e-05
7.67225e-05
7.04581e-05
2.00042e-05
1.9014e-05
1.72645e-05
1.63183e-05
1.66187e-05
1.80557e-05
1.94383e-05
1.95193e-05
1.91103e-05
1.8774e-05
1.87938e-05
1.91302e-05
2.08267e-05
2.46282e-05
2.66152e-05
3.02508e-05
3.53301e-05
3.82492e-05
2.00927e-05
2.01217e-05
2.00354e-05
1.95631e-05
1.89892e-05
1.89905e-05
1.90221e-05
1.88043e-05
1.76702e-05
1.5361e-05
1.43117e-05
1.42937e-05
1.48504e-05
1.66939e-05
1.80034e-05
1.86384e-05
1.90121e-05
1.95041e-05
2.14699e-05
2.35766e-05
2.34658e-05
2.18136e-05
2.10206e-05
2.19896e-05
2.23074e-05
2.24275e-05
2.28528e-05
2.42028e-05
3.03912e-05
3.94302e-05
4.20551e-05
4.16027e-05
3.73062e-05
2.93479e-05
2.43566e-05
2.14403e-05
2.36823e-05
2.55242e-05
2.41176e-05
2.13771e-05
2.04291e-05
2.02557e-05
2.0272e-05
2.04891e-05
2.1179e-05
2.26559e-05
2.5614e-05
3.261e-05
4.24901e-05
5.08541e-05
5.44676e-05
5.45785e-05
5.30817e-05
4.6628e-05
2.10094e-05
2.22171e-05
2.15469e-05
2.0623e-05
2.0269e-05
2.02048e-05
2.02298e-05
2.03706e-05
2.07661e-05
2.17782e-05
2.48706e-05
3.50397e-05
4.42704e-05
4.82716e-05
4.908e-05
4.89135e-05
4.79253e-05
4.4238e-05
2.21202e-05
2.192e-05
2.07417e-05
2.05877e-05
2.07724e-05
2.144e-05
2.28877e-05
2.59477e-05
2.72414e-05
2.72771e-05
2.78542e-05
2.9719e-05
3.4307e-05
4.46632e-05
5.33651e-05
5.74657e-05
5.79906e-05
5.64931e-05
2.86468e-05
2.53152e-05
2.11669e-05
2.1027e-05
2.44296e-05
5.32741e-05
0.000107237
0.000115268
9.45287e-05
5.3645e-05
3.59689e-05
2.99714e-05
2.88833e-05
2.94449e-05
3.21663e-05
4.09886e-05
4.7443e-05
4.88026e-05
2.2589e-05
2.12042e-05
2.08308e-05
2.13086e-05
2.29146e-05
2.73014e-05
3.96558e-05
7.8876e-05
9.92231e-05
9.24667e-05
6.11274e-05
4.09835e-05
3.20832e-05
2.83399e-05
2.75258e-05
2.7727e-05
2.89618e-05
3.28794e-05
2.09154e-05
2.0785e-05
2.14536e-05
2.19326e-05
2.20436e-05
2.22476e-05
2.31957e-05
2.79782e-05
3.24606e-05
3.23142e-05
2.91014e-05
2.59758e-05
2.49081e-05
2.48011e-05
2.53807e-05
2.83167e-05
4.13873e-05
6.44815e-05
2.05997e-05
2.07531e-05
2.11615e-05
2.21577e-05
2.15738e-05
2.09644e-05
2.08807e-05
2.10397e-05
2.21507e-05
2.34253e-05
2.33166e-05
2.25044e-05
2.21703e-05
2.21737e-05
2.25994e-05
2.45538e-05
3.16645e-05
4.89404e-05
2.0591e-05
2.18857e-05
2.20661e-05
2.16743e-05
2.08002e-05
2.03547e-05
2.0183e-05
2.01545e-05
2.01731e-05
2.02417e-05
2.04047e-05
2.08732e-05
2.21973e-05
2.58463e-05
3.0021e-05
3.36439e-05
3.60155e-05
3.73201e-05
2.08453e-05
2.27333e-05
2.3924e-05
2.38301e-05
2.28966e-05
2.16886e-05
2.09427e-05
2.05623e-05
2.04233e-05
2.04048e-05
2.04361e-05
2.06433e-05
2.12646e-05
2.32544e-05
2.90853e-05
3.44973e-05
3.70096e-05
3.74661e-05
2.15524e-05
2.16582e-05
2.10766e-05
2.09724e-05
2.10179e-05
2.10296e-05
2.09919e-05
2.09412e-05
2.09444e-05
2.10252e-05
2.1465e-05
2.32791e-05
2.7941e-05
3.09501e-05
3.20218e-05
3.21466e-05
3.14567e-05
2.91277e-05
2.05853e-05
2.12805e-05
2.14038e-05
2.13544e-05
2.12499e-05
2.11694e-05
2.09758e-05
2.07458e-05
2.06606e-05
2.06561e-05
2.071e-05
2.10165e-05
2.20684e-05
2.28067e-05
2.29012e-05
2.2676e-05
2.20525e-05
2.17175e-05
2.003e-05
2.05183e-05
2.09688e-05
2.1083e-05
2.11838e-05
2.15932e-05
2.17134e-05
2.1643e-05
2.15064e-05
2.13519e-05
2.12154e-05
2.11427e-05
2.11273e-05
2.11304e-05
2.11497e-05
2.11781e-05
2.12036e-05
2.12541e-05
2.07207e-05
2.0693e-05
2.04437e-05
2.04454e-05
2.12016e-05
2.22059e-05
2.21208e-05
2.15543e-05
2.1237e-05
2.10741e-05
2.09368e-05
2.08206e-05
2.07463e-05
2.07132e-05
2.07052e-05
2.07058e-05
2.07143e-05
2.07454e-05
2.11383e-05
2.06745e-05
2.06208e-05
2.07056e-05
2.10216e-05
2.10897e-05
2.1138e-05
2.13427e-05
2.22537e-05
2.3436e-05
2.40127e-05
2.4181e-05
2.41803e-05
2.40431e-05
2.34561e-05
2.27313e-05
2.21577e-05
2.17793e-05
2.02468e-05
2.03439e-05
2.03209e-05
2.03774e-05
2.05726e-05
2.0541e-05
2.06854e-05
2.15602e-05
2.24922e-05
2.29205e-05
2.30333e-05
2.30176e-05
2.2813e-05
2.21383e-05
2.15428e-05
2.116e-05
2.09574e-05
2.08765e-05
2.03985e-05
2.02191e-05
2.0167e-05
2.02867e-05
2.04398e-05
2.04705e-05
2.05259e-05
2.06437e-05
2.09528e-05
2.19234e-05
2.58269e-05
3.28884e-05
3.60485e-05
3.6033e-05
3.36133e-05
2.86627e-05
2.56765e-05
2.44528e-05
2.03216e-05
2.06745e-05
2.11671e-05
2.18228e-05
2.14787e-05
2.09594e-05
2.0829e-05
2.08515e-05
2.11004e-05
2.22044e-05
2.35894e-05
2.43007e-05
2.44789e-05
2.44208e-05
2.3909e-05
2.32208e-05
2.2872e-05
2.27694e-05
2.03981e-05
2.1153e-05
2.1413e-05
2.13329e-05
2.09992e-05
2.09092e-05
2.0919e-05
2.09209e-05
2.09106e-05
2.09249e-05
2.10477e-05
2.13634e-05
2.15552e-05
2.16242e-05
2.16318e-05
2.16202e-05
2.15865e-05
2.15743e-05
2.10967e-05
2.10936e-05
2.10848e-05
2.12216e-05
2.16929e-05
2.30733e-05
2.40981e-05
2.43482e-05
2.41821e-05
2.33956e-05
2.27989e-05
2.25522e-05
2.2469e-05
2.2444e-05
2.24277e-05
2.23956e-05
2.22919e-05
2.20038e-05
2.15941e-05
2.09156e-05
2.05889e-05
2.07925e-05
2.10485e-05
2.11595e-05
2.12608e-05
2.14761e-05
2.20429e-05
2.29931e-05
2.56231e-05
2.81193e-05
2.95179e-05
3.00111e-05
3.00408e-05
2.97218e-05
2.79384e-05
2.53657e-05
2.21967e-05
2.05359e-05
2.02448e-05
2.05446e-05
2.11435e-05
2.13689e-05
2.15439e-05
2.19895e-05
2.41401e-05
2.66474e-05
2.69353e-05
2.68611e-05
2.66412e-05
2.59113e-05
2.45758e-05
2.35098e-05
2.26023e-05
2.20431e-05
2.22986e-05
2.05375e-05
2.00935e-05
2.00443e-05
1.99735e-05
1.97047e-05
1.92286e-05
1.91444e-05
1.92177e-05
1.94828e-05
1.96572e-05
1.97119e-05
1.97087e-05
1.96569e-05
1.94918e-05
1.91065e-05
1.82252e-05
1.6168e-05
2.00089e-05
1.93005e-05
1.73701e-05
1.69235e-05
1.68959e-05
1.66539e-05
1.5326e-05
1.20114e-05
9.88321e-06
9.03282e-06
8.86749e-06
8.92159e-06
9.35167e-06
1.08965e-05
1.24805e-05
1.35288e-05
1.41399e-05
1.43992e-05
2.00137e-05
2.07823e-05
2.29754e-05
2.42914e-05
2.50501e-05
2.51008e-05
2.49826e-05
2.45776e-05
2.41794e-05
2.40513e-05
2.40601e-05
2.40464e-05
2.39961e-05
2.38824e-05
2.37045e-05
2.33243e-05
2.28194e-05
2.23896e-05
2.0211e-05
3.35923e-05
5.8364e-05
6.36106e-05
6.259e-05
6.16347e-05
6.15422e-05
6.1019e-05
5.73227e-05
4.74846e-05
4.04277e-05
3.57887e-05
3.23578e-05
2.97035e-05
2.77726e-05
2.65482e-05
2.59187e-05
2.57148e-05
0.0313362
0.0428627
0.0425403
0.0444763
0.0510497
0.0530733
0.0521556
0.0490719
0.0510268
0.0545724
0.0570593
0.0565179
0.0552755
0.0539177
0.0528756
0.052369
0.0513724
0.0503809
0.0495252
0.0475474
0.045955
0.0430529
0.0400962
0.0360093
0.0210449
0.00481921
0.00692086
0.0109821
0.010928
0.0118017
0.0151792
0.0276018
0.0441842
0.0441577
0.035178
0.0340937
0.0733067
0.226536
0.177731
0.0380875
0.0169113
0.0136825
0.0136102
0.0138948
0.0140779
0.0134541
0.0124806
0.0111605
0.00965783
0.00832791
0.00714558
0.00579706
0.0047596
0.00402162
0.00316743
0.00264863
0.0022565
0.00187549
0.00168754
0.00151166
0.00143619
0.00140973
0.0014423
0.00145642
0.00148152
0.00149688
0.00151417
0.00153413
0.00154905
0.00157351
0.00158887
0.00160781
0.00162329
0.00163379
0.00164859
0.00166279
0.00167953
0.00170267
0.00172483
0.00174961
0.00177331
0.00179933
0.00182692
0.00185761
0.00188967
0.00192011
0.00194406
0.00195594
0.00196193
0.00196449
0.00196475
0.00195634
0.0019334
0.00190395
0.00186459
0.00182162
0.001771
0.00171224
0.00164555
0.0015687
0.00147731
0.00136874
0.00124633
0.00111861
0.000992969
0.000877949
0.000778432
0.00069191
0.000616031
0.000548997
0.000490205
0.000438713
0.000393012
0.000351874
0.000314618
0.000280886
0.000250542
0.000223593
0.000200188
0.000180776
0.000165689
0.000153764
0.000142392
0.000130445
0.000118154
0.000105495
9.23842e-05
7.90686e-05
6.59239e-05
5.35097e-05
4.23208e-05
3.27537e-05
2.51267e-05
1.9423e-05
1.51725e-05
1.193e-05
9.39033e-06
7.36181e-06
5.72871e-06
4.41765e-06
3.37573e-06
2.55899e-06
1.92797e-06
1.44672e-06
1.08333e-06
8.10624e-07
6.06398e-07
4.53272e-07
3.38107e-07
2.51219e-07
1.85559e-07
1.35996e-07
9.87497e-08
7.09743e-08
5.04721e-08
3.55082e-08
2.47047e-08
1.69851e-08
1.1529e-08
7.71906e-09
5.09394e-09
3.31123e-09
2.11907e-09
1.33473e-09
8.27216e-10
5.04482e-10
3.02703e-10
1.78772e-10
1.03882e-10
5.94489e-11
3.34607e-11
1.85638e-11
1.01105e-11
5.4367e-12
2.84549e-12
1.50422e-12
6.54069e-13
1.02073e-12
5.00568e-10
4.01804e-07
0.0206034
0.0275533
0.0277471
0.0474727
0.0661472
0.0646658
0.0603713
0.0557737
0.0532878
0.0497933
0.045586
0.0414567
0.0375855
0.0348271
0.032532
0.0314337
0.0303653
0.030368
0.0306495
0.031334
0.0325788
0.033794
0.0353457
0.0350199
0.0334464
0.0291224
0.0241464
0.0225721
0.0203168
0.0147403
0.012252
0.0126135
0.0160131
0.0181511
0.0405093
0.0879043
0.0982869
0.0900814
0.0410812
0.0164057
0.0108986
0.0089653
0.00797171
0.0069469
0.00596505
0.00512493
0.00437368
0.00378212
0.00338791
0.00306377
0.00289019
0.00273466
0.00266647
0.0026336
0.00262165
0.0026318
0.00266864
0.00269003
0.00273682
0.00276026
0.00280493
0.00284344
0.002875
0.00292168
0.00296016
0.00300487
0.00305334
0.00310381
0.00315721
0.0032159
0.00326905
0.00331808
0.00336667
0.00341902
0.00347396
0.003528
0.0035718
0.00360148
0.00362236
0.00363882
0.00364459
0.00364484
0.00363921
0.00362272
0.00359219
0.00354645
0.00348597
0.00341353
0.00333466
0.00325634
0.00318189
0.00310998
0.00304199
0.00297997
0.00292565
0.00287767
0.00283634
0.00280252
0.00277382
0.00274817
0.0027226
0.00269462
0.00265072
0.00257394
0.00245838
0.00230268
0.00212598
0.00195508
0.00179137
0.00163198
0.00148196
0.00134355
0.00121408
0.00108972
0.000968752
0.000851645
0.00073958
0.000634042
0.000537365
0.000451991
0.000378967
0.000318564
0.00027124
0.000235977
0.000210769
0.000193226
0.000180548
0.000170358
0.000161063
0.000151271
0.000140475
0.000128978
0.000116996
0.000104629
9.21963e-05
8.00576e-05
6.86321e-05
5.8265e-05
4.9142e-05
4.13044e-05
3.4678e-05
2.9116e-05
2.44454e-05
2.04998e-05
1.71396e-05
1.42571e-05
1.17746e-05
9.63731e-06
7.80554e-06
6.24822e-06
4.93805e-06
3.84904e-06
2.95607e-06
2.23535e-06
1.66453e-06
1.22201e-06
8.85927e-07
6.34247e-07
4.47944e-07
3.11798e-07
2.13707e-07
1.44124e-07
9.55778e-08
6.23016e-08
3.99032e-08
2.51107e-08
1.55228e-08
9.42952e-09
5.6271e-09
3.3019e-09
1.90324e-09
1.0799e-09
6.01446e-10
3.30045e-10
1.77708e-10
9.32108e-11
5.01145e-11
2.05366e-11
5.28047e-11
3.31601e-08
0.0238529
0.0322443
0.0692101
0.0796464
0.073933
0.0602125
0.0448494
0.0346343
0.0277435
0.0240794
0.0223116
0.0212546
0.0209074
0.0209156
0.0209707
0.0210017
0.02097
0.0210443
0.0212639
0.0217985
0.0224135
0.0236896
0.0248921
0.0275369
0.0303955
0.0301815
0.0293008
0.0282359
0.0255375
0.0182867
0.0159876
0.0178941
0.0388532
0.0555181
0.0574435
0.0630002
0.0374556
0.0181754
0.00997329
0.00649094
0.00522223
0.0045045
0.00401756
0.00360517
0.00329022
0.00313014
0.0029775
0.00289178
0.00284516
0.00281395
0.00280087
0.00279634
0.00281701
0.00284861
0.00288912
0.0029282
0.00297344
0.00302151
0.00306218
0.00311257
0.00315928
0.00320667
0.0032644
0.00331794
0.00337778
0.00343486
0.00349668
0.00354887
0.00360119
0.00363924
0.0036777
0.00371678
0.00376466
0.00381678
0.00387785
0.00394813
0.00397807
0.0039852
0.00398606
0.00398296
0.00397039
0.00394476
0.00390525
0.0038517
0.00378396
0.00370286
0.0036069
0.00350828
0.00340773
0.00330835
0.00321493
0.00312415
0.00303529
0.00294105
0.00284551
0.00275633
0.00268294
0.00263171
0.00260354
0.00260131
0.00262392
0.00268425
0.00275825
0.00280629
0.00282109
0.0028059
0.00272731
0.00256924
0.00239505
0.00223637
0.0020817
0.00191906
0.00174337
0.001561
0.00138124
0.00120725
0.00104289
0.000891752
0.000749517
0.000614691
0.000492072
0.000386145
0.000299078
0.000231643
0.000182849
0.000150271
0.000130898
0.000120882
0.000115774
0.0001117
0.000107092
0.000102352
9.76176e-05
9.26435e-05
8.73518e-05
8.1284e-05
7.41483e-05
6.62259e-05
5.81533e-05
5.02598e-05
4.277e-05
3.60478e-05
3.03208e-05
2.56207e-05
2.18321e-05
1.8772e-05
1.62527e-05
1.41171e-05
1.22495e-05
1.05739e-05
9.04723e-06
7.65186e-06
6.38586e-06
5.25232e-06
4.2532e-06
3.38735e-06
2.65089e-06
2.03797e-06
1.53902e-06
1.14127e-06
8.30596e-07
5.92993e-07
4.1532e-07
2.854e-07
1.92431e-07
1.27326e-07
8.2672e-08
5.2693e-08
3.29614e-08
2.02531e-08
1.22143e-08
7.24344e-09
4.21518e-09
2.41677e-09
1.35987e-09
7.54231e-10
4.05106e-10
2.20774e-10
9.61701e-11
1.44258e-09
0.0170609
0.0939996
0.0825458
0.0540674
0.0294668
0.0203852
0.0175612
0.0175106
0.0176115
0.0178489
0.0184721
0.0190768
0.0203254
0.0216485
0.0232569
0.0242582
0.02429
0.0241933
0.0239661
0.0235337
0.0233583
0.0236015
0.0240462
0.0249205
0.0262331
0.027698
0.0276269
0.0269403
0.0239052
0.0176518
0.0229006
0.0420135
0.045513
0.0474698
0.0335411
0.018014
0.0102312
0.0062153
0.00455382
0.0038433
0.0035242
0.00333164
0.00323481
0.00316066
0.00311463
0.00308589
0.00306747
0.00308274
0.00314006
0.00320341
0.00328708
0.00336699
0.00343001
0.00348779
0.00353211
0.00357132
0.00360179
0.00363848
0.00365785
0.00368661
0.00371193
0.00373233
0.00375357
0.003771
0.00379335
0.00380548
0.00380802
0.00380732
0.00380301
0.00379952
0.00379883
0.00380211
0.00381482
0.00383856
0.00387451
0.00390932
0.0039167
0.00391218
0.00389872
0.00387079
0.00382036
0.00375778
0.00368535
0.00361295
0.0035446
0.00349307
0.00346395
0.00342785
0.00337351
0.00330905
0.00324231
0.00317134
0.00308745
0.00297622
0.00284357
0.00270211
0.00256066
0.00243509
0.00233655
0.00226295
0.00221236
0.00218552
0.00220539
0.00235133
0.00259484
0.0027933
0.00286702
0.00286744
0.00279876
0.00262213
0.00246969
0.00235045
0.00224123
0.00211593
0.00195658
0.00177552
0.00159085
0.00141161
0.00125505
0.00112725
0.00101754
0.000909056
0.000791649
0.000665801
0.000540341
0.000427647
0.000337069
0.000270262
0.000224348
0.000196314
0.000180137
0.000163538
0.000137081
0.000104909
8.01978e-05
7.0164e-05
6.82562e-05
6.65689e-05
6.19946e-05
5.05466e-05
3.65101e-05
2.42356e-05
1.55406e-05
1.02693e-05
7.41268e-06
5.99607e-06
5.33427e-06
5.02587e-06
4.86738e-06
4.75564e-06
4.59462e-06
4.25052e-06
3.79441e-06
3.32228e-06
2.85851e-06
2.41762e-06
2.01065e-06
1.64384e-06
1.32042e-06
1.04235e-06
8.09494e-07
6.18983e-07
4.66113e-07
3.45538e-07
2.52019e-07
1.8073e-07
1.27348e-07
8.8129e-08
5.98659e-08
3.99052e-08
2.60878e-08
1.67215e-08
1.05116e-08
6.47094e-09
3.90747e-09
2.30717e-09
1.32929e-09
7.76273e-10
3.95943e-10
2.67249e-10
0.0504139
0.049956
0.0283611
0.0151536
0.0133455
0.0139953
0.015654
0.0172775
0.0183773
0.0197841
0.0227644
0.0259933
0.0329258
0.0392685
0.0461003
0.0496985
0.0490353
0.0465298
0.0412576
0.0350336
0.030009
0.0266099
0.0251753
0.0251839
0.0251934
0.0253417
0.0255041
0.0252306
0.0201635
0.0235863
0.0366578
0.0401188
0.0361423
0.0218506
0.0118388
0.00677901
0.00468622
0.00379072
0.00344919
0.00332232
0.00327382
0.00325327
0.00324775
0.0032733
0.0033487
0.00347915
0.00361704
0.00374743
0.00385089
0.00392349
0.00399591
0.00405761
0.00409276
0.00413578
0.00415966
0.0041774
0.00418893
0.00419461
0.0041972
0.00419788
0.00419315
0.00418189
0.00416524
0.00414201
0.00411023
0.00407673
0.00403418
0.00399554
0.00395846
0.00391298
0.00386912
0.00383686
0.0038003
0.00376863
0.00373442
0.00368795
0.00362802
0.00355712
0.00347633
0.00341202
0.00335852
0.0033394
0.00333462
0.00334322
0.00337495
0.00343005
0.00350542
0.00360945
0.00373297
0.00383319
0.0038857
0.00390374
0.00385339
0.00373237
0.00356584
0.00334999
0.00307805
0.00277125
0.00253446
0.00237719
0.00226534
0.00216633
0.00206663
0.00200284
0.00200453
0.00215878
0.00256405
0.00282951
0.00289825
0.00288314
0.00274965
0.00255131
0.00242845
0.0023515
0.0022749
0.00214196
0.00192301
0.00165336
0.00139937
0.00119776
0.00105096
0.000942233
0.000847736
0.000751807
0.00065109
0.000547343
0.000445449
0.000354167
0.000281743
0.000231837
0.000202018
0.000186094
0.00017596
0.000164324
0.000150096
0.00013716
0.000129426
0.000126375
0.000124113
0.000119397
0.000109001
9.49811e-05
7.95833e-05
6.44348e-05
5.0441e-05
3.81085e-05
2.81399e-05
2.12432e-05
1.68403e-05
1.36457e-05
1.11132e-05
9.06939e-06
7.40396e-06
6.0162e-06
4.82876e-06
3.79535e-06
2.8961e-06
2.13706e-06
1.53353e-06
1.08214e-06
7.60268e-07
5.38027e-07
3.854e-07
2.79286e-07
2.03656e-07
1.48624e-07
1.07851e-07
7.74967e-08
5.4886e-08
3.82212e-08
2.60994e-08
1.74486e-08
1.14298e-08
7.30813e-09
4.6024e-09
2.79847e-09
1.71917e-09
9.649e-10
6.18935e-10
2.91814e-10
0.0229782
0.0176734
0.00986034
0.0102367
0.0125957
0.0175979
0.0194569
0.0207125
0.0227055
0.0264024
0.0333715
0.0461907
0.0685125
0.0844149
0.103444
0.108702
0.106339
0.0990382
0.0831353
0.0615862
0.0447226
0.03349
0.0289508
0.0266599
0.0249849
0.0246811
0.0244782
0.0209444
0.0213613
0.0319636
0.0347632
0.0295298
0.0155322
0.0089542
0.00553988
0.00406069
0.00354088
0.00337245
0.00333333
0.00332848
0.00336943
0.00346762
0.00364815
0.00381805
0.00397242
0.00406616
0.00415527
0.00422925
0.00429519
0.00434148
0.00438656
0.00443516
0.00446236
0.00449121
0.00450909
0.00452036
0.00453267
0.00454585
0.00456448
0.0045875
0.00460274
0.00461052
0.00461345
0.00461035
0.00460639
0.00458939
0.0045415
0.00447533
0.00440673
0.00432362
0.00422958
0.00412815
0.00404644
0.00395305
0.0038417
0.00375378
0.00366564
0.00356247
0.00345277
0.00337012
0.00333421
0.00332941
0.00333786
0.00337893
0.00348208
0.00366242
0.00392204
0.00421298
0.00441351
0.00448497
0.00449311
0.00444023
0.00430666
0.00416342
0.0040396
0.00391955
0.0038019
0.00363725
0.00331524
0.00296964
0.0027863
0.00266007
0.00247134
0.00218245
0.00197405
0.00192645
0.00198642
0.00232829
0.0027539
0.00290302
0.00291109
0.00282798
0.0025953
0.00243071
0.00234243
0.00229267
0.00223125
0.00209555
0.0017596
0.00138189
0.00108811
0.000895206
0.000781343
0.000707906
0.000639058
0.000563979
0.000484218
0.000405705
0.00033369
0.000271269
0.000222578
0.000190873
0.000173948
0.000164863
0.000156486
0.000145233
0.000132517
0.000122691
0.000117493
0.000114596
0.000112783
0.000111135
0.000108083
0.000100737
8.58562e-05
6.95975e-05
5.44057e-05
4.14915e-05
3.11935e-05
2.32249e-05
1.71759e-05
1.27285e-05
9.554e-06
7.31826e-06
5.72491e-06
4.54708e-06
3.63716e-06
2.90576e-06
2.2988e-06
1.79231e-06
1.37526e-06
1.03762e-06
7.69487e-07
5.60805e-07
4.01695e-07
2.82791e-07
1.95657e-07
1.33013e-07
8.91273e-08
5.89754e-08
3.86061e-08
2.482e-08
1.58536e-08
9.8036e-09
6.20792e-09
3.6697e-09
2.40902e-09
1.40507e-09
8.84954e-10
5.11106e-10
0.0132317
0.0122856
0.00777065
0.0110059
0.0177715
0.0196558
0.0204765
0.0219422
0.0258221
0.0354872
0.0580833
0.0938939
0.131194
0.154364
0.171934
0.17546
0.172773
0.165159
0.149592
0.117774
0.0783248
0.0487795
0.0334068
0.0268252
0.0245008
0.0238197
0.0211702
0.0208242
0.0280458
0.031044
0.0274836
0.0135013
0.00751371
0.0049539
0.00386252
0.00348103
0.00339196
0.00337948
0.0034304
0.00357711
0.00380171
0.00399476
0.00411275
0.00420888
0.00429719
0.00436458
0.00443547
0.00449874
0.00455135
0.00461357
0.00465886
0.00472399
0.00477103
0.00481902
0.00486909
0.0049061
0.00494037
0.00496168
0.00499132
0.00503459
0.00509876
0.00513166
0.00514315
0.00513709
0.00512729
0.00511904
0.00507378
0.00501631
0.00494565
0.00484018
0.0047699
0.0046284
0.0045186
0.00441083
0.00426898
0.00413127
0.00403478
0.00389425
0.00379508
0.00367966
0.00362139
0.00360136
0.00359716
0.00361707
0.00367465
0.00381816
0.00404249
0.00431182
0.00446081
0.00449789
0.00448114
0.00439789
0.00421561
0.00397975
0.00384145
0.00378747
0.00378399
0.00382376
0.00379563
0.00358577
0.00319351
0.00298244
0.00287801
0.0027491
0.00241407
0.00206985
0.00197409
0.00202549
0.00234644
0.0027654
0.00292574
0.00293703
0.00286376
0.00262097
0.00243463
0.00233905
0.00229103
0.0022333
0.00210917
0.00176478
0.00129986
0.000938171
0.000703653
0.000572641
0.000509559
0.000472284
0.000434014
0.000387496
0.000335342
0.000283171
0.000236875
0.000199892
0.000173623
0.000158679
0.000151439
0.000145631
0.00013661
0.000123935
0.00011174
0.000105048
0.000102649
0.00010128
9.97729e-05
9.80566e-05
9.58934e-05
9.15184e-05
8.06425e-05
6.54674e-05
5.07777e-05
3.79814e-05
2.75645e-05
1.95097e-05
1.3602e-05
9.47607e-06
6.69888e-06
4.86175e-06
3.63646e-06
2.79064e-06
2.17508e-06
1.70145e-06
1.3223e-06
1.01421e-06
7.65164e-07
5.6715e-07
4.12754e-07
2.94887e-07
2.0686e-07
1.42489e-07
9.64419e-08
6.41063e-08
4.19284e-08
2.69132e-08
1.70687e-08
1.05939e-08
6.58423e-09
3.97412e-09
2.45057e-09
1.45898e-09
8.66526e-10
5.15442e-10
0.0120263
0.0116586
0.00702954
0.0154849
0.0191393
0.0200814
0.0208877
0.0237617
0.0322047
0.0516087
0.087256
0.126261
0.159241
0.179392
0.191891
0.197258
0.192286
0.172333
0.148054
0.113766
0.0742403
0.0460041
0.0317852
0.0257535
0.0230861
0.0212289
0.0207725
0.0248435
0.0279246
0.0265403
0.0132526
0.00706155
0.00469232
0.00380518
0.00351221
0.003449
0.00343873
0.00354985
0.00380498
0.00400672
0.00415499
0.00426863
0.00437865
0.00446482
0.00454969
0.00463407
0.00470672
0.00481067
0.00490215
0.00503584
0.00516618
0.00532295
0.00549165
0.00568087
0.00591503
0.0061608
0.00641753
0.00662677
0.00676717
0.00688861
0.00698225
0.00702747
0.00702076
0.00680184
0.00659804
0.00648064
0.00620934
0.0060026
0.00583521
0.00560698
0.00549705
0.00525862
0.0050545
0.00487286
0.00468697
0.00449409
0.00432121
0.00415009
0.00400651
0.00387838
0.00377279
0.00370892
0.00367713
0.00366102
0.00365234
0.00366503
0.00369794
0.00376287
0.00377886
0.0037247
0.00363807
0.0035298
0.00328052
0.00274418
0.00246621
0.00248836
0.00265828
0.00320677
0.00370475
0.0037938
0.00362093
0.00318509
0.00299566
0.00292169
0.00278497
0.00248442
0.00224238
0.00217399
0.00224109
0.00260347
0.00290557
0.00298894
0.00297742
0.00285967
0.00258882
0.00241771
0.00233566
0.00228393
0.0021946
0.00197054
0.00153274
0.00110372
0.000764946
0.00053513
0.000396097
0.000324991
0.000298291
0.000290416
0.000282895
0.000264093
0.000231415
0.000199859
0.000174066
0.000155431
0.000143381
0.00013647
0.000131318
0.000125422
0.000117786
0.000108062
9.88057e-05
9.31375e-05
9.04041e-05
8.91272e-05
8.80427e-05
8.67548e-05
8.49447e-05
8.13834e-05
7.23447e-05
5.80569e-05
4.4071e-05
3.18956e-05
2.21394e-05
1.4872e-05
9.80357e-06
6.45634e-06
4.32783e-06
2.99416e-06
2.14763e-06
1.59044e-06
1.20328e-06
9.17442e-07
6.96576e-07
5.22333e-07
3.85101e-07
2.78567e-07
1.97569e-07
1.37355e-07
9.36649e-08
6.26535e-08
4.11513e-08
2.65203e-08
1.68268e-08
1.04816e-08
6.45824e-09
3.91407e-09
2.33052e-09
1.37808e-09
8.00961e-10
4.72852e-10
0.0116563
0.0115109
0.00675628
0.0173238
0.0194324
0.0201645
0.0210248
0.0246022
0.0348625
0.0574347
0.0945361
0.13336
0.165113
0.183749
0.189408
0.186932
0.177078
0.155986
0.130742
0.0957779
0.058997
0.0373705
0.0270674
0.0225627
0.0208816
0.0208012
0.0229691
0.0250677
0.0250689
0.0142785
0.0071344
0.00466645
0.00381324
0.00355373
0.00350469
0.00351057
0.00365666
0.00395577
0.00414132
0.0042917
0.00442367
0.0045314
0.00463044
0.00472668
0.00480773
0.00492011
0.00508892
0.00530979
0.00554582
0.00588029
0.00626599
0.00674705
0.0073336
0.00800072
0.00878222
0.00961554
0.0104749
0.0112322
0.0117932
0.0121161
0.0122339
0.0120467
0.0116942
0.0109369
0.0102505
0.0096612
0.0086495
0.00798665
0.00741947
0.00677111
0.0064594
0.0059972
0.00564254
0.00532671
0.00501037
0.00473183
0.0044705
0.0042453
0.00405521
0.00390191
0.00379382
0.0037242
0.00368359
0.00365192
0.00360392
0.00353164
0.00343337
0.00331115
0.00310984
0.00280434
0.00244248
0.00210109
0.0017218
0.0012334
0.000929635
0.000861343
0.000915882
0.00127747
0.00263657
0.00362388
0.00376732
0.00358049
0.00316951
0.00302067
0.00287823
0.00261666
0.00245849
0.00242038
0.00244306
0.0026168
0.00292261
0.00305113
0.00306507
0.00302848
0.00283912
0.00252988
0.00235159
0.00226642
0.00217624
0.00197112
0.00158989
0.00118777
0.000836875
0.00057144
0.000393187
0.000283842
0.000223293
0.000194771
0.000184201
0.000181899
0.000181577
0.00018001
0.000171085
0.000152166
0.000138093
0.00012864
0.000121958
0.000116772
0.000113166
0.000110349
0.000104534
9.60957e-05
8.85928e-05
8.34773e-05
8.06006e-05
7.92242e-05
7.83777e-05
7.73875e-05
7.57146e-05
7.22023e-05
6.27852e-05
4.83794e-05
3.50443e-05
2.40765e-05
1.58234e-05
1.00626e-05
6.29062e-06
3.94338e-06
2.52988e-06
1.68551e-06
1.17102e-06
8.43921e-07
6.22647e-07
4.62988e-07
3.4266e-07
2.5036e-07
1.79765e-07
1.26568e-07
8.7315e-08
5.90075e-08
3.90886e-08
2.53744e-08
1.6162e-08
1.01036e-08
6.2042e-09
3.74862e-09
2.22495e-09
1.30335e-09
7.49744e-10
4.31657e-10
0.0111594
0.0114871
0.00757319
0.0181212
0.0193988
0.0199762
0.0207724
0.0241531
0.0328301
0.0494515
0.0762644
0.105373
0.129331
0.147331
0.1543
0.152222
0.13706
0.115106
0.0860214
0.0554912
0.0357603
0.0260735
0.0218446
0.020487
0.0205836
0.0219
0.0230084
0.0231095
0.0153546
0.00746173
0.00478526
0.00387573
0.0036044
0.00355241
0.00357259
0.00379067
0.00409363
0.00428529
0.0044448
0.00454503
0.00463079
0.00472245
0.00480829
0.00493984
0.00513547
0.00544944
0.00575455
0.00619236
0.00680905
0.00759686
0.00860457
0.00988146
0.0114565
0.0131923
0.0153632
0.0172732
0.0196365
0.021305
0.0226137
0.0233438
0.0235899
0.022964
0.0214301
0.0196677
0.0180071
0.0164089
0.0145925
0.0132213
0.0120694
0.0108282
0.00992767
0.00896259
0.008132
0.00741079
0.00665805
0.00598699
0.00538055
0.00489796
0.00452539
0.00424958
0.00410637
0.00407052
0.00411421
0.00419871
0.00426876
0.00426019
0.00412662
0.00385785
0.00344773
0.00293155
0.00238475
0.00187455
0.00137325
0.000931796
0.000643229
0.000520691
0.00051189
0.000594537
0.00111469
0.00282771
0.00367195
0.00373332
0.00349968
0.00321506
0.0029583
0.0026536
0.00248813
0.00247011
0.00252113
0.00275526
0.00297957
0.00307999
0.00309936
0.00308584
0.00299755
0.00268746
0.00238695
0.00222462
0.00207671
0.00185292
0.00154221
0.00119199
0.000864629
0.000600103
0.000409598
0.000285144
0.000210008
0.000168092
0.00014776
0.000140297
0.000139035
0.000139605
0.000140111
0.000139112
0.000132282
0.00012202
0.000116654
0.000113951
0.000112218
0.000110301
0.000106474
9.95469e-05
9.12001e-05
8.35735e-05
7.79051e-05
7.43711e-05
7.24835e-05
7.16148e-05
7.10347e-05
7.01088e-05
6.8202e-05
6.337e-05
5.06456e-05
3.64537e-05
2.47485e-05
1.59792e-05
9.90793e-06
5.97312e-06
3.56101e-06
2.14448e-06
1.33215e-06
8.65009e-07
5.88435e-07
4.16161e-07
3.01055e-07
2.19053e-07
1.5832e-07
1.12772e-07
7.88332e-08
5.39763e-08
3.61759e-08
2.37353e-08
1.52503e-08
9.60062e-09
5.92391e-09
3.58613e-09
2.12973e-09
1.24407e-09
7.12868e-10
4.05354e-10
0.0109056
0.0115454
0.00920705
0.0182576
0.0188696
0.0195696
0.0199861
0.0208452
0.0236001
0.0300796
0.0425953
0.0605514
0.0762717
0.0857428
0.0893684
0.0846086
0.0749207
0.058255
0.0430872
0.0302816
0.0239038
0.020995
0.0201235
0.0204271
0.0214649
0.0219076
0.02136
0.0155658
0.00785924
0.0049668
0.00397901
0.00367247
0.00360846
0.00361467
0.00382084
0.00409058
0.00428314
0.00442526
0.00455898
0.00464613
0.00473466
0.00486453
0.00503231
0.00534908
0.00575361
0.0061107
0.00683602
0.00790833
0.0094358
0.0115978
0.0139948
0.0166024
0.0196123
0.0234346
0.0279845
0.0330522
0.0381553
0.0417898
0.043503
0.0440364
0.0421039
0.0401735
0.0360393
0.0315735
0.027789
0.0234172
0.0197696
0.0174923
0.0150855
0.0135762
0.0124324
0.0117067
0.0111257
0.0106333
0.0101309
0.00955797
0.00889751
0.00816429
0.00745664
0.00686166
0.00648544
0.00635357
0.00648412
0.00673906
0.00703644
0.00721109
0.00716987
0.006768
0.00599219
0.00497646
0.0037838
0.0026859
0.00177744
0.00111109
0.000701255
0.000514736
0.000478813
0.000526535
0.000847263
0.00216519
0.00342659
0.00374126
0.0037058
0.0035014
0.00310815
0.00269914
0.00246015
0.00242075
0.00248651
0.00276045
0.00297771
0.00305884
0.00307311
0.00306245
0.00300089
0.00275929
0.00235725
0.00206834
0.00186998
0.00167612
0.00143185
0.00114607
0.000860756
0.000614248
0.000426044
0.000296354
0.000214022
0.000165208
0.000138288
0.000125389
0.000120936
0.000120349
0.000120786
0.000120929
0.000119649
0.000113306
0.000108379
0.000107079
0.000106761
0.000106343
0.000105325
0.000102723
9.54694e-05
8.61034e-05
7.83225e-05
7.27132e-05
6.92648e-05
6.74175e-05
6.65626e-05
6.61321e-05
6.55522e-05
6.43042e-05
6.09686e-05
5.05388e-05
3.59013e-05
2.39849e-05
1.52134e-05
9.23753e-06
5.42123e-06
3.11504e-06
1.78475e-06
1.04292e-06
6.34315e-07
4.05783e-07
2.73036e-07
1.90851e-07
1.35934e-07
9.69895e-08
6.85118e-08
4.7581e-08
3.23732e-08
2.15472e-08
1.40248e-08
8.92981e-09
5.56438e-09
3.39602e-09
2.0306e-09
1.19147e-09
6.85016e-10
3.88717e-10
0.0104188
0.0117377
0.0103914
0.017989
0.0186627
0.019398
0.019713
0.0199434
0.0207709
0.0230368
0.0280094
0.0349601
0.0415451
0.0451288
0.0463861
0.0431684
0.0387894
0.0299289
0.0252375
0.0217289
0.0203342
0.0199884
0.0204287
0.0211246
0.0213485
0.0202507
0.0151467
0.00813618
0.00516474
0.00409724
0.00375613
0.00367636
0.00366511
0.00383635
0.00409478
0.00427497
0.00442845
0.00456186
0.00470067
0.0048081
0.0049105
0.00510717
0.00550613
0.00602192
0.0065167
0.00758172
0.00981468
0.0131633
0.0161802
0.0188842
0.0216759
0.0254625
0.0313475
0.0407621
0.0514009
0.0634084
0.0743607
0.0801308
0.0830286
0.0837136
0.0770069
0.0698174
0.0612552
0.0510419
0.0419984
0.0335653
0.0255493
0.0204181
0.0164372
0.0139044
0.012248
0.0114
0.011093
0.0108605
0.0106408
0.0104029
0.0101178
0.00978453
0.00942081
0.00906798
0.0087778
0.00860686
0.00863272
0.00874081
0.00892051
0.00902533
0.00902795
0.00889043
0.00846397
0.00783247
0.00697299
0.005611
0.00386234
0.00229832
0.00129547
0.000758193
0.000574697
0.000585646
0.000853515
0.00201243
0.00325749
0.00370407
0.0037204
0.00359288
0.00329754
0.0027959
0.00235811
0.00219338
0.00221359