/*--------------------------------*- C++ -*----------------------------------*\
  =========                 |
  \\      /  F ield         | OpenFOAM: The Open Source CFD Toolbox
   \\    /   O peration     | Website:  https://openfoam.org
    \\  /    A nd           | Version:  9
     \\/     M anipulation  |
\*---------------------------------------------------------------------------*/
FoamFile
{
    format      ascii;
    class       surfaceScalarField;
    location    "0.031";
    object      phi_0;
}
// * * * * * * * * * * * * * * * * * * * * * * * * * * * * * * * * * * * * * //

dimensions      [0 3 -1 0 0 0 0];

internalField   nonuniform List<scalar> 
24170
(
3.09069e-06
1.18171e-07
2.96939e-06
1.21298e-07
2.88234e-06
8.70467e-08
2.80163e-06
8.07126e-08
2.70815e-06
9.34828e-08
2.60542e-06
1.0273e-07
2.50962e-06
9.57967e-08
2.42791e-06
8.17161e-08
2.35391e-06
7.39954e-08
2.27732e-06
7.65887e-08
2.19215e-06
8.51684e-08
2.09824e-06
9.39182e-08
1.99827e-06
9.99653e-08
1.89406e-06
1.0421e-07
1.78182e-06
1.12244e-07
1.66034e-06
1.21472e-07
1.51667e-06
1.4367e-07
1.62438e-07
1.35424e-06
3.42724e-06
1.54575e-07
3.40885e-06
1.39696e-07
3.40666e-06
8.92342e-08
3.41708e-06
7.02876e-08
3.42599e-06
8.45804e-08
3.42334e-06
1.05379e-07
3.41023e-06
1.08902e-07
3.39263e-06
9.93183e-08
3.37577e-06
9.08554e-08
3.36151e-06
9.08502e-08
3.34796e-06
9.87154e-08
3.33049e-06
1.11391e-07
3.305e-06
1.25454e-07
3.26837e-06
1.40841e-07
3.22016e-06
1.60447e-07
3.15746e-06
1.84179e-07
3.08254e-06
2.18584e-07
2.53882e-07
2.9911e-06
3.72367e-06
1.16757e-07
3.75871e-06
1.0465e-07
3.75028e-06
9.7673e-08
3.7121e-06
1.08461e-07
3.68809e-06
1.08596e-07
3.68454e-06
1.08924e-07
3.68355e-06
1.09897e-07
3.6738e-06
1.09068e-07
3.65874e-06
1.05915e-07
3.64792e-06
1.01668e-07
3.64671e-06
9.99258e-08
3.65348e-06
1.04624e-07
3.66169e-06
1.17239e-07
3.66513e-06
1.37401e-07
3.65921e-06
1.66372e-07
3.64197e-06
2.01419e-07
3.61673e-06
2.43818e-07
2.87074e-07
3.58354e-06
3.99149e-06
5.48486e-08
4.03671e-06
5.943e-08
4.02484e-06
1.09549e-07
3.9801e-06
1.53204e-07
3.92817e-06
1.6052e-07
3.89534e-06
1.41758e-07
3.89076e-06
1.14478e-07
3.90496e-06
9.48586e-08
3.92213e-06
8.87537e-08
3.93102e-06
9.27708e-08
3.92875e-06
1.02196e-07
3.91847e-06
1.14905e-07
3.90471e-06
1.31005e-07
3.89045e-06
1.51653e-07
3.87742e-06
1.7941e-07
3.86488e-06
2.13953e-07
3.85455e-06
2.54147e-07
2.96888e-07
3.84474e-06
4.20854e-06
-1.04247e-08
4.20038e-06
6.75907e-08
4.2016e-06
1.08335e-07
4.21202e-06
1.42784e-07
4.22037e-06
1.52167e-07
4.2234e-06
1.3873e-07
4.22273e-06
1.1514e-07
4.21995e-06
9.76475e-08
4.21563e-06
9.30648e-08
4.20884e-06
9.9566e-08
4.19782e-06
1.13215e-07
4.18199e-06
1.3074e-07
4.16271e-06
1.50278e-07
4.1425e-06
1.71866e-07
4.1249e-06
1.97007e-07
4.1114e-06
2.27457e-07
4.10346e-06
2.62086e-07
3.00108e-07
4.10024e-06
4.56706e-06
6.39953e-08
4.53697e-06
9.76755e-08
4.52777e-06
1.17539e-07
4.55249e-06
1.18068e-07
4.58402e-06
1.20632e-07
4.60454e-06
1.18212e-07
4.60977e-06
1.09905e-07
4.60363e-06
1.03789e-07
4.59261e-06
1.04087e-07
4.58104e-06
1.11135e-07
4.56912e-06
1.25139e-07
4.55411e-06
1.4575e-07
4.53356e-06
1.70823e-07
4.50641e-06
1.99019e-07
4.47485e-06
2.28563e-07
4.44211e-06
2.60204e-07
4.41243e-06
2.91761e-07
3.23297e-07
4.38924e-06
4.95556e-06
1.15534e-07
4.88552e-06
1.67717e-07
4.83062e-06
1.72439e-07
4.81014e-06
1.38551e-07
4.81537e-06
1.15402e-07
4.83094e-06
1.02636e-07
4.84704e-06
9.38021e-08
4.85905e-06
9.17816e-08
4.86496e-06
9.81778e-08
4.86345e-06
1.12648e-07
4.8536e-06
1.34989e-07
4.83489e-06
1.64463e-07
4.80788e-06
1.97827e-07
4.77496e-06
2.31942e-07
4.74007e-06
2.63455e-07
4.70781e-06
2.92459e-07
4.6816e-06
3.17975e-07
3.41654e-07
4.66324e-06
5.24828e-06
6.66136e-08
5.27478e-06
1.41211e-07
5.24202e-06
2.05198e-07
5.21118e-06
1.69392e-07
5.20599e-06
1.20589e-07
5.22092e-06
8.77073e-08
5.24288e-06
7.18477e-08
5.25964e-06
7.50142e-08
5.26352e-06
9.43059e-08
5.25232e-06
1.23848e-07
5.229e-06
1.58308e-07
5.19967e-06
1.93788e-07
5.17095e-06
2.26553e-07
5.14802e-06
2.54868e-07
5.1329e-06
2.78573e-07
5.12558e-06
2.99785e-07
5.1233e-06
3.20248e-07
3.41159e-07
5.1238e-06
5.6431e-06
1.72248e-07
5.57477e-06
2.09546e-07
5.62207e-06
1.579e-07
5.68532e-06
1.06136e-07
5.70086e-06
1.05055e-07
5.64954e-06
1.39026e-07
5.55589e-06
1.65498e-07
5.46483e-06
1.66068e-07
5.4113e-06
1.47844e-07
5.40519e-06
1.29959e-07
5.4353e-06
1.28197e-07
5.48143e-06
1.47659e-07
5.52456e-06
1.83421e-07
5.55221e-06
2.27212e-07
5.56005e-06
2.70735e-07
5.5509e-06
3.08933e-07
5.53125e-06
3.39903e-07
3.63163e-07
5.50924e-06
6.03609e-06
1.63493e-07
6.00669e-06
2.38952e-07
5.98546e-06
1.79127e-07
5.99157e-06
1.00023e-07
6.01502e-06
8.16057e-08
6.03086e-06
1.23187e-07
6.0226e-06
1.73762e-07
5.99613e-06
1.92534e-07
5.96619e-06
1.77788e-07
5.94444e-06
1.51711e-07
5.93667e-06
1.35964e-07
5.94368e-06
1.40646e-07
5.96186e-06
1.65246e-07
5.98566e-06
2.03413e-07
6.00871e-06
2.47686e-07
6.02709e-06
2.90548e-07
6.03816e-06
3.28832e-07
3.59558e-07
6.04177e-06
6.35247e-06
3.00344e-07
6.39288e-06
1.98537e-07
6.39377e-06
1.78235e-07
6.33649e-06
1.57308e-07
6.29971e-06
1.18384e-07
6.31478e-06
1.0812e-07
6.3579e-06
1.3064e-07
6.39491e-06
1.55524e-07
6.40915e-06
1.63552e-07
6.40324e-06
1.57618e-07
6.3891e-06
1.50105e-07
6.37751e-06
1.52235e-07
6.37349e-06
1.69263e-07
6.37655e-06
2.00352e-07
6.3841e-06
2.4014e-07
6.39262e-06
2.82022e-07
6.40103e-06
3.20431e-07
3.52812e-07
6.40777e-06
5.77511e-06
2.78104e-07
5.73622e-06
2.37427e-07
5.72653e-06
1.87921e-07
5.74301e-06
1.40825e-07
5.77371e-06
8.76832e-08
5.81334e-06
6.8497e-08
5.84844e-06
9.55351e-08
5.86245e-06
1.41518e-07
5.84865e-06
1.77349e-07
5.81426e-06
1.92008e-07
5.77323e-06
1.91141e-07
5.7376e-06
1.87857e-07
5.71367e-06
1.93196e-07
5.70252e-06
2.11504e-07
5.70221e-06
2.40444e-07
5.70956e-06
2.74677e-07
5.72153e-06
3.08458e-07
3.39135e-07
5.73521e-06
7.09603e-06
1.62394e-07
7.12592e-06
2.07535e-07
7.1105e-06
2.03345e-07
7.09493e-06
1.56395e-07
7.07774e-06
1.04869e-07
7.06379e-06
8.24495e-08
7.05728e-06
1.02046e-07
7.05141e-06
1.47384e-07
7.03992e-06
1.8884e-07
7.02377e-06
2.08157e-07
7.00892e-06
2.05992e-07
7.00034e-06
1.9644e-07
6.9991e-06
1.94427e-07
7.00357e-06
2.07043e-07
7.01156e-06
2.32448e-07
7.02158e-06
2.64661e-07
7.0325e-06
2.97534e-07
3.27042e-07
7.0446e-06
8.39168e-06
6.68092e-08
8.50846e-06
9.07564e-08
8.54663e-06
1.65172e-07
8.54079e-06
1.62232e-07
8.51796e-06
1.27707e-07
8.48829e-06
1.12112e-07
8.46052e-06
1.2982e-07
8.44731e-06
1.60596e-07
8.45829e-06
1.77854e-07
8.49368e-06
1.72766e-07
8.54484e-06
1.5484e-07
8.59882e-06
1.42452e-07
8.64448e-06
1.4877e-07
8.67456e-06
1.7696e-07
8.68773e-06
2.19285e-07
8.68666e-06
2.6573e-07
8.67689e-06
3.07302e-07
3.37221e-07
8.66671e-06
1.04224e-05
8.18435e-08
1.03379e-05
1.7522e-07
1.03171e-05
1.86039e-07
1.03148e-05
1.64475e-07
1.03082e-05
1.3431e-07
1.03131e-05
1.07186e-07
1.03472e-05
9.57135e-08
1.0402e-05
1.0583e-07
1.04495e-05
1.30383e-07
1.04705e-05
1.51764e-07
1.04641e-05
1.61211e-07
1.04419e-05
1.64698e-07
1.04172e-05
1.73406e-07
1.0398e-05
1.96158e-07
1.03863e-05
2.31052e-07
1.03805e-05
2.71505e-07
1.03801e-05
3.07659e-07
3.33532e-07
1.03838e-05
1.25517e-05
4.0488e-08
1.26209e-05
1.05934e-07
1.26492e-05
1.57777e-07
1.26614e-05
1.52248e-07
1.26677e-05
1.28024e-07
1.26723e-05
1.02659e-07
1.268e-05
8.79726e-08
1.26903e-05
9.55158e-08
1.27017e-05
1.19006e-07
1.27102e-05
1.43292e-07
1.27116e-05
1.59797e-07
1.27046e-05
1.71645e-07
1.26918e-05
1.86214e-07
1.26791e-05
2.08836e-07
1.26729e-05
2.37276e-07
1.26787e-05
2.65701e-07
1.26994e-05
2.86949e-07
2.9639e-07
1.27366e-05
1.50927e-05
5.97251e-09
1.51381e-05
6.05555e-08
1.51866e-05
1.09304e-07
1.52604e-05
7.84042e-08
1.53384e-05
5.00687e-08
1.53758e-05
6.52437e-08
1.53609e-05
1.02907e-07
1.53272e-05
1.2919e-07
1.53153e-05
1.3089e-07
1.53431e-05
1.1553e-07
1.54036e-05
9.92792e-08
1.54793e-05
9.59372e-08
1.55549e-05
1.10654e-07
1.56233e-05
1.40369e-07
1.56835e-05
1.77059e-07
1.57374e-05
2.11806e-07
1.57854e-05
2.39018e-07
2.56312e-07
1.58254e-05
1.86625e-05
1.40602e-08
1.8723e-05
1.80815e-11
1.8854e-05
-2.16577e-08
1.89793e-05
-4.69319e-08
1.90813e-05
-5.19229e-08
1.91493e-05
-2.75344e-09
1.91826e-05
6.95942e-08
1.91891e-05
1.22761e-07
1.918e-05
1.39937e-07
1.91603e-05
1.3528e-07
1.91304e-05
1.29115e-07
1.90929e-05
1.33497e-07
1.9054e-05
1.49576e-07
1.90213e-05
1.73036e-07
1.90013e-05
1.9707e-07
1.89967e-05
2.16339e-07
1.90087e-05
2.27062e-07
2.28482e-07
1.90365e-05
2.32926e-05
1.48601e-07
2.33552e-05
-6.25666e-08
2.34358e-05
-1.02251e-07
2.34537e-05
-6.48607e-08
2.34222e-05
-2.04184e-08
2.33919e-05
2.75278e-08
2.33901e-05
7.14749e-08
2.34111e-05
1.01716e-07
2.34316e-05
1.19412e-07
2.3439e-05
1.27867e-07
2.34384e-05
1.29786e-07
2.34413e-05
1.30584e-07
2.34554e-05
1.35412e-07
2.34819e-05
1.46579e-07
2.35168e-05
1.62211e-07
2.35551e-05
1.78003e-07
2.3592e-05
1.90127e-07
1.9592e-07
2.36246e-05
1.72326e-05
-3.4325e-08
1.71031e-05
6.69108e-08
1.69288e-05
7.21302e-08
1.68262e-05
3.77121e-08
1.67857e-05
2.00291e-08
1.67737e-05
3.95626e-08
1.67732e-05
7.19964e-08
1.67724e-05
1.02475e-07
1.6771e-05
1.20806e-07
1.67717e-05
1.2721e-07
1.67777e-05
1.23741e-07
1.67922e-05
1.16124e-07
1.68169e-05
1.10701e-07
1.68525e-05
1.10984e-07
1.68982e-05
1.16462e-07
1.69516e-05
1.24595e-07
1.70091e-05
1.32642e-07
1.388e-07
1.70663e-05
1.50871e-05
1.47525e-07
1.48837e-05
2.70237e-07
1.47417e-05
2.14131e-07
1.46706e-05
1.08854e-07
1.46473e-05
4.32862e-08
1.46737e-05
1.31916e-08
1.47404e-05
5.27512e-09
1.48295e-05
1.34375e-08
1.49211e-05
2.91654e-08
1.49952e-05
5.31225e-08
1.50352e-05
8.37063e-08
1.50338e-05
1.17545e-07
1.49975e-05
1.46974e-07
1.49449e-05
1.63623e-07
1.48976e-05
1.63711e-07
1.48717e-05
1.50566e-07
1.48757e-05
1.28564e-07
1.06824e-07
1.49077e-05
1.27573e-05
1.07791e-07
1.28537e-05
1.73811e-07
1.28272e-05
2.4069e-07
1.27211e-05
2.14909e-07
1.26445e-05
1.19908e-07
1.26515e-05
6.18001e-09
1.27196e-05
-6.27869e-08
1.28022e-05
-6.92374e-08
1.28578e-05
-2.64288e-08
1.28712e-05
3.97571e-08
1.28549e-05
1.00025e-07
1.28325e-05
1.39938e-07
1.28247e-05
1.54775e-07
1.28428e-05
1.45548e-07
1.28887e-05
1.17739e-07
1.29575e-05
8.1762e-08
1.30409e-05
4.52424e-08
1.82581e-08
1.31294e-05
1.09423e-05
-5.47548e-08
1.09928e-05
1.23353e-07
1.10136e-05
2.19866e-07
1.10424e-05
1.86148e-07
1.10817e-05
8.05958e-08
1.11119e-05
-2.40424e-08
1.11284e-05
-7.92801e-08
1.11352e-05
-7.60207e-08
1.11429e-05
-3.41406e-08
1.11649e-05
1.77172e-08
1.12059e-05
5.90028e-08
1.12643e-05
8.16212e-08
1.13353e-05
8.37356e-08
1.14115e-05
6.93879e-08
1.14836e-05
4.55752e-08
1.15439e-05
2.14616e-08
1.15871e-05
2.03794e-09
-6.79866e-09
1.16122e-05
9.65724e-06
-3.5302e-08
9.68314e-06
9.74546e-08
9.71523e-06
1.8777e-07
9.7925e-06
1.08879e-07
9.87779e-06
-4.69207e-09
9.91406e-06
-6.03119e-08
9.89399e-06
-5.92083e-08
9.84615e-06
-2.81808e-08
9.80505e-06
6.95932e-09
9.78657e-06
3.61963e-08
9.79473e-06
5.08385e-08
9.82284e-06
5.35101e-08
9.85977e-06
4.68153e-08
9.89472e-06
3.44313e-08
9.92038e-06
1.99124e-08
9.93492e-06
6.92254e-09
9.94119e-06
-4.22548e-09
-9.88113e-09
9.94427e-06
8.32714e-06
-9.35077e-08
8.33017e-06
9.44279e-08
8.37406e-06
1.43874e-07
8.39185e-06
9.10909e-08
8.39061e-06
-3.45088e-09
8.40437e-06
-7.40743e-08
8.44317e-06
-9.80032e-08
8.50489e-06
-8.99021e-08
8.57876e-06
-6.69146e-08
8.65231e-06
-3.73538e-08
8.7088e-06
-5.64719e-09
8.74213e-06
2.01845e-08
8.74928e-06
3.96624e-08
8.73576e-06
4.79521e-08
8.7116e-06
4.40671e-08
8.68652e-06
3.20038e-08
8.66659e-06
1.57089e-08
1.23379e-09
8.65547e-06
7.17391e-06
-1.48021e-07
7.25239e-06
1.59524e-08
7.32416e-06
7.21068e-08
7.35382e-06
6.14311e-08
7.35847e-06
-8.10714e-09
7.36751e-06
-8.3113e-08
7.38581e-06
-1.16302e-07
7.40109e-06
-1.05184e-07
7.40686e-06
-7.26821e-08
7.40645e-06
-3.69458e-08
7.40742e-06
-6.61564e-09
7.40929e-06
1.83186e-08
7.41639e-06
3.25601e-08
7.42829e-06
3.60519e-08
7.44302e-06
2.93391e-08
7.45871e-06
1.63117e-08
7.47335e-06
1.06403e-09
-1.18887e-08
7.48648e-06
6.14847e-06
-2.19188e-08
6.18135e-06
-1.69257e-08
6.27297e-06
-1.95219e-08
6.36328e-06
-2.88718e-08
6.43381e-06
-7.86414e-08
6.46658e-06
-1.15885e-07
6.462e-06
-1.11716e-07
6.43633e-06
-7.95152e-08
6.40809e-06
-4.44463e-08
6.39139e-06
-2.02474e-08
6.39211e-06
-7.32812e-09
6.41078e-06
-3.4978e-10
6.44036e-06
2.97208e-09
6.47363e-06
2.78657e-09
6.50478e-06
-1.81304e-09
6.53044e-06
-9.34733e-09
6.54879e-06
-1.72906e-08
-2.29869e-08
6.55989e-06
5.63097e-06
7.03679e-08
5.63364e-06
-1.95948e-08
5.66369e-06
-4.95808e-08
5.69434e-06
-5.95179e-08
5.69278e-06
-7.70805e-08
5.65228e-06
-7.5382e-08
5.59885e-06
-5.82886e-08
5.56155e-06
-4.22184e-08
5.554e-06
-3.68917e-08
5.57514e-06
-4.13944e-08
5.61504e-06
-4.72215e-08
5.66093e-06
-4.62374e-08
5.70147e-06
-3.75692e-08
5.7301e-06
-2.58427e-08
5.74463e-06
-1.63433e-08
5.74684e-06
-1.15568e-08
5.74052e-06
-1.09752e-08
-1.26909e-08
5.73022e-06
4.80345e-06
-4.85342e-08
4.83183e-06
-4.79706e-08
4.86693e-06
-8.46794e-08
4.89927e-06
-9.18596e-08
4.90723e-06
-8.50453e-08
4.89055e-06
-5.86974e-08
4.86185e-06
-2.95876e-08
4.83762e-06
-1.7995e-08
4.82991e-06
-2.91796e-08
4.84025e-06
-5.17313e-08
4.8617e-06
-6.86714e-08
4.88574e-06
-7.02769e-08
4.90654e-06
-5.83704e-08
4.92174e-06
-4.10437e-08
4.93139e-06
-2.59976e-08
4.93679e-06
-1.69575e-08
4.93955e-06
-1.37352e-08
-1.44081e-08
4.94127e-06
4.11069e-06
4.06272e-06
3.97804e-06
3.88618e-06
3.80113e-06
3.74244e-06
3.71285e-06
3.69485e-06
3.66567e-06
3.61394e-06
3.54527e-06
3.47499e-06
3.41662e-06
3.37558e-06
3.34958e-06
3.33263e-06
3.31889e-06
3.30448e-06
-5.33696e-07
5.33696e-07
-8.9007e-07
3.56374e-07
-1.04975e-06
1.59675e-07
-1.00944e-06
-4.03037e-08
-7.39618e-07
-2.69824e-07
-2.63349e-07
-4.76269e-07
3.67054e-07
-6.30403e-07
1.08172e-06
-7.14664e-07
1.82317e-06
-7.41449e-07
2.54291e-06
-7.19747e-07
3.20635e-06
-6.63439e-07
3.78665e-06
-5.80297e-07
4.26661e-06
-4.79963e-07
4.63466e-06
-3.68044e-07
4.88274e-06
-2.48079e-07
5.00421e-06
-1.21478e-07
4.9924e-06
1.18147e-08
4.85607e-06
1.36333e-07
4.58511e-06
2.70955e-07
4.18587e-06
3.99246e-07
3.66265e-06
5.23212e-07
3.0321e-06
6.30553e-07
2.31615e-06
7.15947e-07
1.53232e-06
7.8383e-07
8.22987e-07
7.09338e-07
2.89553e-07
5.33434e-07
-3.30682e-08
3.22621e-07
-2.05735e-07
1.72667e-07
-2.68439e-07
6.27038e-08
-1.56563e-07
-1.11876e-07
2.18417e-07
-3.7498e-07
7.1422e-07
-4.95804e-07
1.25383e-06
-5.39607e-07
1.74765e-06
-4.93825e-07
1.91663e-06
-1.68975e-07
1.91182e-06
4.80831e-09
1.81761e-06
9.42122e-08
1.26829e-06
5.49319e-07
2.35475e-07
1.03281e-06
-9.27887e-07
1.16336e-06
-2.06907e-06
1.14118e-06
-3.16109e-06
1.09202e-06
-4.18955e-06
1.02846e-06
-5.14705e-06
9.575e-07
-6.03096e-06
8.83905e-07
-6.84226e-06
8.11301e-07
-7.58367e-06
7.41415e-07
-8.25907e-06
6.75403e-07
-8.87252e-06
6.13447e-07
-9.42799e-06
5.55464e-07
-9.92905e-06
5.01066e-07
-1.03789e-05
4.49841e-07
-1.07803e-05
4.01363e-07
-1.11354e-05
3.55133e-07
-1.1446e-05
3.10631e-07
-1.17135e-05
2.67492e-07
-1.19391e-05
2.25581e-07
-1.2124e-05
1.84857e-07
-1.22693e-05
1.45306e-07
-1.23762e-05
1.06956e-07
-1.24461e-05
6.99234e-08
-1.24805e-05
3.43611e-08
-1.24803e-05
-2.4876e-10
-1.24512e-05
-2.90524e-08
-1.23943e-05
-5.68798e-08
-1.23115e-05
-8.27718e-08
-1.22051e-05
-1.06419e-07
-1.20771e-05
-1.28055e-07
-1.19294e-05
-1.47683e-07
-1.1764e-05
-1.65408e-07
-1.15826e-05
-1.81352e-07
-1.1387e-05
-1.95602e-07
-1.11787e-05
-2.08324e-07
-1.0959e-05
-2.19665e-07
-1.07292e-05
-2.29838e-07
-1.04901e-05
-2.39109e-07
-1.02423e-05
-2.47815e-07
-9.9859e-06
-2.56375e-07
-9.72062e-06
-2.65282e-07
-9.44554e-06
-2.75078e-07
-9.15922e-06
-2.86318e-07
-8.85969e-06
-2.99531e-07
-8.54451e-06
-3.15179e-07
-8.2109e-06
-3.33615e-07
-7.85584e-06
-3.55059e-07
-7.47624e-06
-3.796e-07
-7.06907e-06
-4.07165e-07
-6.63162e-06
-4.37454e-07
-6.16176e-06
-4.69861e-07
-5.65842e-06
-5.03342e-07
-5.12216e-06
-5.3626e-07
-4.55571e-06
-5.66447e-07
-3.96426e-06
-5.91454e-07
-3.35554e-06
-6.08713e-07
-2.73921e-06
-6.16331e-07
-2.12504e-06
-6.14176e-07
-1.52233e-06
-6.02707e-07
-9.39023e-07
-5.83306e-07
-3.79888e-07
-5.59135e-07
1.52345e-07
-5.32234e-07
6.57268e-07
-5.04922e-07
1.12896e-06
-4.71689e-07
1.56164e-06
-4.32687e-07
1.94943e-06
-3.87789e-07
2.28844e-06
-3.39009e-07
2.57824e-06
-2.89798e-07
2.82175e-06
-2.43508e-07
3.0241e-06
-2.02349e-07
3.19141e-06
-1.67311e-07
3.33006e-06
-1.38657e-07
3.44643e-06
-1.16364e-07
3.54662e-06
-1.00191e-07
3.63616e-06
-8.9544e-08
3.71947e-06
-8.33112e-08
3.79942e-06
-7.99462e-08
3.87716e-06
-7.77359e-08
3.95229e-06
-7.51362e-08
4.02347e-06
-7.11771e-08
4.08903e-06
-6.5565e-08
4.14737e-06
-5.834e-08
4.19727e-06
-4.98949e-08
4.23837e-06
-4.1096e-08
4.27079e-06
-3.24217e-08
4.29461e-06
-2.38181e-08
4.31057e-06
-1.5964e-08
4.3197e-06
-9.13126e-09
4.32132e-06
-1.61595e-09
4.31359e-06
7.7316e-09
4.29537e-06
1.82127e-08
4.26647e-06
2.89057e-08
4.22763e-06
3.8836e-08
4.18058e-06
4.70542e-08
4.12768e-06
5.28918e-08
4.07148e-06
5.62042e-08
4.01416e-06
5.73198e-08
3.9573e-06
5.68652e-08
3.90177e-06
5.55253e-08
3.84787e-06
5.38974e-08
3.79545e-06
5.24264e-08
3.74406e-06
5.13881e-08
3.69318e-06
5.08833e-08
3.64233e-06
5.08403e-08
3.59129e-06
5.10424e-08
3.54011e-06
5.11863e-08
3.48915e-06
5.09566e-08
3.43904e-06
5.01047e-08
3.39054e-06
4.85081e-08
3.34433e-06
4.62027e-08
3.30098e-06
4.33571e-08
3.26077e-06
4.0205e-08
3.22379e-06
3.69771e-08
3.18993e-06
3.38606e-08
3.15895e-06
3.09814e-08
3.13055e-06
2.84067e-08
3.10439e-06
2.61573e-08
3.08016e-06
2.42255e-08
3.05758e-06
2.25883e-08
3.03636e-06
2.12164e-08
3.01628e-06
2.00793e-08
2.99713e-06
1.91483e-08
2.97872e-06
1.84072e-08
2.96088e-06
1.78415e-08
2.94342e-06
1.74607e-08
2.92618e-06
1.72377e-08
2.90897e-06
1.72122e-08
2.89167e-06
1.73027e-08
2.87399e-06
1.76806e-08
2.85585e-06
1.8134e-08
2.83664e-06
1.92134e-08
2.81643e-06
2.02142e-08
2.79368e-06
2.27475e-08
2.76917e-06
2.45114e-08
2.73904e-06
3.01318e-08
2.7064e-06
3.26357e-08
2.661e-06
4.53997e-08
2.61309e-06
4.79065e-08
2.53359e-06
7.95077e-08
2.4538e-06
7.97845e-08
2.28474e-06
1.69066e-07
1.69987e-07
2.11475e-06
1.02915e-07
4.30781e-07
1.32307e-07
3.26982e-07
2.6342e-07
2.85621e-08
6.4509e-07
-4.21973e-07
1.2369e-06
-8.61637e-07
1.9515e-06
-1.19087e-06
2.70781e-06
-1.38671e-06
3.44899e-06
-1.45585e-06
4.13018e-06
-1.42264e-06
4.73935e-06
-1.32892e-06
5.26389e-06
-1.18798e-06
5.70006e-06
-1.01647e-06
6.04652e-06
-8.26427e-07
6.30392e-06
-6.25435e-07
6.47434e-06
-4.18507e-07
6.5627e-06
-2.09841e-07
6.58246e-06
-7.93925e-09
6.48904e-06
2.29754e-07
6.30575e-06
4.54241e-07
6.03356e-06
6.71438e-07
5.67278e-06
8.83987e-07
5.22988e-06
1.07345e-06
4.71046e-06
1.23537e-06
4.16278e-06
1.33151e-06
3.54277e-06
1.32935e-06
2.87162e-06
1.20458e-06
2.21664e-06
9.77602e-07
1.76316e-06
6.26148e-07
1.60956e-06
2.16308e-07
1.48765e-06
1.00282e-08
1.66746e-06
-5.54791e-07
2.13859e-06
-9.66925e-07
2.13361e-06
-5.3463e-07
1.6919e-06
-5.21209e-08
8.91061e-07
6.31869e-07
-4.82091e-07
1.37796e-06
-1.99252e-06
1.60464e-06
-3.23427e-06
1.79107e-06
-4.17452e-06
1.97306e-06
-5.01225e-06
2.00109e-06
-5.81611e-06
1.94505e-06
-6.56616e-06
1.84206e-06
-7.25457e-06
1.71688e-06
-7.8813e-06
1.58422e-06
-8.44985e-06
1.45245e-06
-8.96515e-06
1.32661e-06
-9.43223e-06
1.2085e-06
-9.8557e-06
1.09887e-06
-1.02396e-05
9.97311e-07
-1.05871e-05
9.03021e-07
-1.0901e-05
8.1498e-07
-1.11833e-05
7.32107e-07
-1.14353e-05
6.53396e-07
-1.1658e-05
5.7784e-07
-1.18521e-05
5.04666e-07
-1.20179e-05
4.33275e-07
-1.21555e-05
3.63256e-07
-1.2265e-05
2.94376e-07
-1.23464e-05
2.26703e-07
-1.24001e-05
1.60586e-07
-1.24263e-05
9.61911e-08
-1.24252e-05
3.32073e-08
-1.23987e-05
-2.67678e-08
-1.23447e-05
-8.30016e-08
-1.22653e-05
-1.36337e-07
-1.2162e-05
-1.86067e-07
-1.20365e-05
-2.31926e-07
-1.18907e-05
-2.73768e-07
-1.17268e-05
-3.11666e-07
-1.15464e-05
-3.45779e-07
-1.13514e-05
-3.76317e-07
-1.11435e-05
-4.03544e-07
-1.09241e-05
-4.27753e-07
-1.06944e-05
-4.49299e-07
-1.04556e-05
-4.68618e-07
-1.02085e-05
-4.86265e-07
-9.95336e-06
-5.02941e-07
-9.69023e-06
-5.19502e-07
-9.41857e-06
-5.36941e-07
-9.1373e-06
-5.56347e-07
-8.84481e-06
-5.78814e-07
-8.53898e-06
-6.05358e-07
-8.21733e-06
-6.36836e-07
-7.87707e-06
-6.73868e-07
-7.51535e-06
-7.16782e-07
-7.1293e-06
-7.65655e-07
-6.71617e-06
-8.20293e-07
-6.27352e-06
-8.80101e-07
-5.79946e-06
-9.43924e-07
-5.293e-06
-1.00981e-06
-4.75463e-06
-1.07462e-06
-4.18706e-06
-1.13402e-06
-3.59553e-06
-1.18299e-06
-2.98794e-06
-1.2163e-06
-2.37494e-06
-1.22933e-06
-1.76692e-06
-1.2222e-06
-1.17272e-06
-1.19691e-06
-5.98633e-07
-1.15739e-06
-4.98404e-08
-1.10793e-06
4.80579e-07
-1.06265e-06
9.84034e-07
-1.00838e-06
1.45815e-06
-9.45805e-07
1.89573e-06
-8.70267e-07
2.28881e-06
-7.80868e-07
2.63151e-06
-6.81711e-07
2.92207e-06
-5.80355e-07
3.16296e-06
-4.84396e-07
3.35967e-06
-3.99064e-07
3.51938e-06
-3.27015e-07
3.6499e-06
-2.69178e-07
3.75898e-06
-2.25446e-07
3.85367e-06
-1.94883e-07
3.94002e-06
-1.75891e-07
4.02279e-06
-1.66081e-07
4.10513e-06
-1.62287e-07
4.18839e-06
-1.61001e-07
4.27239e-06
-1.59128e-07
4.35585e-06
-1.54645e-07
4.437e-06
-1.46708e-07
4.51407e-06
-1.35415e-07
4.58578e-06
-1.21606e-07
4.65114e-06
-1.06452e-07
4.7097e-06
-9.09835e-08
4.76203e-06
-7.61445e-08
4.80872e-06
-6.26595e-08
4.85007e-06
-5.0475e-08
4.88734e-06
-3.88906e-08
4.92213e-06
-2.70523e-08
4.9543e-06
-1.39581e-08
4.98252e-06
6.82508e-10
5.00508e-06
1.62707e-08
5.02041e-06
3.17261e-08
5.02762e-06
4.56838e-08
5.0268e-06
5.70216e-08
5.01896e-06
6.51591e-08
5.00567e-06
7.01588e-08
4.98866e-06
7.25396e-08
4.9695e-06
7.30536e-08
4.94945e-06
7.24736e-08
4.9294e-06
7.14446e-08
4.90989e-06
7.03924e-08
4.89124e-06
6.94859e-08
4.87363e-06
6.86554e-08
4.85715e-06
6.7662e-08
4.8419e-06
6.62125e-08
4.82791e-06
6.40873e-08
4.81523e-06
6.11918e-08
4.80383e-06
5.76053e-08
4.79362e-06
5.35673e-08
4.78443e-06
4.93966e-08
4.776e-06
4.54027e-08
4.76804e-06
4.18213e-08
4.76023e-06
3.87863e-08
4.75231e-06
3.6334e-08
4.74404e-06
3.44259e-08
4.73528e-06
3.29808e-08
4.72597e-06
3.19053e-08
4.71607e-06
3.11111e-08
4.70562e-06
3.05313e-08
4.69465e-06
3.01142e-08
4.68321e-06
2.98465e-08
4.67135e-06
2.97098e-08
4.65906e-06
2.97466e-08
4.64638e-06
2.99208e-08
4.63324e-06
3.03457e-08
4.61966e-06
3.0889e-08
4.60546e-06
3.18827e-08
4.59063e-06
3.29568e-08
4.57482e-06
3.50312e-08
4.5581e-06
3.69331e-08
4.5396e-06
4.12418e-08
4.51974e-06
4.43779e-08
4.49649e-06
5.33772e-08
4.47106e-06
5.80637e-08
4.43884e-06
7.76172e-08
4.40254e-06
8.4207e-08
4.35213e-06
1.29923e-07
4.29104e-06
1.40875e-07
4.20248e-06
2.5762e-07
2.91469e-07
4.081e-06
1.34097e-07
2.96684e-07
4.83695e-07
-2.26166e-08
1.178e-06
-6.65746e-07
2.04091e-06
-1.28488e-06
2.9017e-06
-1.72242e-06
3.67678e-06
-1.96595e-06
4.33859e-06
-2.04852e-06
4.88869e-06
-2.00595e-06
5.34004e-06
-1.87399e-06
5.69816e-06
-1.68704e-06
5.98052e-06
-1.47034e-06
6.20267e-06
-1.23862e-06
6.37421e-06
-9.9797e-07
6.49915e-06
-7.50379e-07
6.57678e-06
-4.96135e-07
6.60369e-06
-2.36745e-07
6.57165e-06
2.40944e-08
6.50069e-06
3.00719e-07
6.38253e-06
5.72396e-07
6.21209e-06
8.41881e-07
5.99317e-06
1.10291e-06
5.71362e-06
1.353e-06
5.38166e-06
1.56733e-06
4.98308e-06
1.73008e-06
4.50469e-06
1.80775e-06
3.99408e-06
1.71519e-06
3.42428e-06
1.5474e-06
2.91144e-06
1.139e-06
2.45689e-06
6.70859e-07
2.39855e-06
6.83642e-08
2.22721e-06
-3.83452e-07
1.39326e-06
-1.32978e-07
7.11193e-08
7.87515e-07
-1.52145e-06
1.54045e-06
-2.83028e-06
1.94071e-06
-3.73081e-06
2.27849e-06
-4.58916e-06
2.46299e-06
-5.34843e-06
2.55034e-06
-5.92359e-06
2.54822e-06
-6.40209e-06
2.47959e-06
-6.83065e-06
2.37361e-06
-7.23126e-06
2.24267e-06
-7.61428e-06
2.09989e-06
-7.98395e-06
1.95389e-06
-8.34185e-06
1.81036e-06
-8.68787e-06
1.67262e-06
-9.02131e-06
1.54194e-06
-9.34104e-06
1.4186e-06
-9.64591e-06
1.30218e-06
-9.93467e-06
1.19178e-06
-1.02061e-05
1.08636e-06
-1.04587e-05
9.84702e-07
-1.06909e-05
8.8565e-07
-1.09012e-05
7.88156e-07
-1.1088e-05
6.91401e-07
-1.12495e-05
5.94785e-07
-1.13842e-05
4.98002e-07
-1.1491e-05
4.01114e-07
-1.15688e-05
3.04521e-07
-1.1617e-05
2.08797e-07
-1.16354e-05
1.14584e-07
-1.16252e-05
2.29889e-08
-1.15863e-05
-6.56628e-08
-1.15198e-05
-1.4948e-07
-1.14282e-05
-2.2793e-07
-1.13136e-05
-3.00614e-07
-1.11783e-05
-3.6729e-07
-1.10242e-05
-4.27801e-07
-1.08537e-05
-4.82256e-07
-1.06685e-05
-5.30926e-07
-1.04706e-05
-5.742e-07
-1.02616e-05
-6.12564e-07
-1.00428e-05
-6.46558e-07
-9.8153e-06
-6.76801e-07
-9.57989e-06
-7.04025e-07
-9.33704e-06
-7.29114e-07
-9.08683e-06
-7.53158e-07
-8.82887e-06
-7.77453e-07
-8.56234e-06
-8.03474e-07
-8.28589e-06
-8.32798e-07
-7.99773e-06
-8.66977e-07
-7.69571e-06
-9.0738e-07
-7.37747e-06
-9.55075e-07
-7.04059e-06
-1.01074e-06
-6.68276e-06
-1.07462e-06
-6.30179e-06
-1.14663e-06
-5.89558e-06
-1.2265e-06
-5.46208e-06
-1.31359e-06
-4.99947e-06
-1.40654e-06
-4.50642e-06
-1.50285e-06
-3.98288e-06
-1.59817e-06
-3.43132e-06
-1.68557e-06
-2.85767e-06
-1.75664e-06
-2.27136e-06
-1.80261e-06
-1.6862e-06
-1.81449e-06
-1.11549e-06
-1.79291e-06
-5.70781e-07
-1.74161e-06
-5.72228e-08
-1.67095e-06
4.35742e-07
-1.60089e-06
9.08454e-07
-1.53537e-06
1.37059e-06
-1.47052e-06
1.81908e-06
-1.39429e-06
2.24245e-06
-1.29364e-06
2.62762e-06
-1.16604e-06
2.96623e-06
-1.02032e-06
3.25555e-06
-8.69668e-07
3.49655e-06
-7.25403e-07
3.69153e-06
-5.9404e-07
3.84325e-06
-4.7874e-07
3.95654e-06
-3.82463e-07
4.03955e-06
-3.08462e-07
4.10277e-06
-2.58095e-07
4.15621e-06
-2.29338e-07
4.20738e-06
-2.17252e-07
4.26053e-06
-2.15435e-07
4.31707e-06
-2.17538e-07
4.37649e-06
-2.18552e-07
4.43738e-06
-2.15534e-07
4.49813e-06
-2.07457e-07
4.55733e-06
-1.94612e-07
4.61381e-06
-1.78086e-07
4.66666e-06
-1.59306e-07
4.71543e-06
-1.39757e-07
4.76024e-06
-1.20953e-07
4.80163e-06
-1.04048e-07
4.84044e-06
-8.92876e-08
4.87761e-06
-7.60617e-08
4.91374e-06
-6.31783e-08
4.94897e-06
-4.91908e-08
4.98259e-06
-3.29355e-08
5.01274e-06
-1.38782e-08
5.03714e-06
7.33011e-09
5.05361e-06
2.92054e-08
5.06116e-06
4.94781e-08
5.0601e-06
6.62197e-08
5.05199e-06
7.82643e-08
5.03907e-06
8.54608e-08
5.0236e-06
8.85249e-08
5.00744e-06
8.86288e-08
4.9919e-06
8.69892e-08
4.97773e-06
8.45669e-08
4.96528e-06
8.19276e-08
4.95469e-06
7.92454e-08
4.94595e-06
7.64094e-08
4.93898e-06
7.31792e-08
4.93372e-06
6.9343e-08
4.9301e-06
6.48205e-08
4.92799e-06
5.97087e-08
4.92726e-06
5.42995e-08
4.92767e-06
4.89896e-08
4.9289e-06
4.41689e-08
4.93059e-06
4.01319e-08
4.93234e-06
3.70326e-08
4.9338e-06
3.48822e-08
4.93464e-06
3.35797e-08
4.93467e-06
3.29557e-08
4.93375e-06
3.28255e-08
4.93184e-06
3.30156e-08
4.92897e-06
3.34003e-08
4.9252e-06
3.38838e-08
4.92061e-06
3.44439e-08
4.91527e-06
3.50498e-08
4.90924e-06
3.57737e-08
4.90258e-06
3.65749e-08
4.8953e-06
3.76328e-08
4.88739e-06
3.87937e-08
4.87878e-06
4.04929e-08
4.86946e-06
4.22812e-08
4.85925e-06
4.52397e-08
4.84809e-06
4.80942e-08
4.83576e-06
5.35742e-08
4.82195e-06
5.81814e-08
4.80658e-06
6.8752e-08
4.78846e-06
7.61775e-08
4.76851e-06
9.75701e-08
4.74246e-06
1.1026e-07
4.71591e-06
1.56476e-07
4.67434e-06
1.82446e-07
4.64303e-06
2.8893e-07
3.54866e-07
4.57963e-06
9.25777e-08
2.04107e-07
9.4775e-07
-8.77789e-07
2.04948e-06
-1.76747e-06
3.00278e-06
-2.23819e-06
3.72423e-06
-2.44388e-06
4.23567e-06
-2.47739e-06
4.57843e-06
-2.39128e-06
4.79181e-06
-2.21932e-06
4.92163e-06
-2.00381e-06
5.00714e-06
-1.77255e-06
5.07866e-06
-1.54186e-06
5.15076e-06
-1.31072e-06
5.22303e-06
-1.07024e-06
5.28511e-06
-8.12458e-07
5.32315e-06
-5.34169e-07
5.32284e-06
-2.36434e-07
5.27656e-06
7.03677e-08
5.21556e-06
3.61722e-07
5.1336e-06
6.54358e-07
5.03702e-06
9.38457e-07
4.92649e-06
1.21344e-06
4.78227e-06
1.49723e-06
4.58941e-06
1.76019e-06
4.33014e-06
1.98935e-06
4.00916e-06
2.12872e-06
3.55886e-06
2.16549e-06
3.12136e-06
1.98489e-06
2.52421e-06
1.73614e-06
2.01365e-06
1.18142e-06
1.67922e-06
4.028e-07
6.30534e-07
6.65229e-07
-1.08387e-06
1.58143e-06
-2.46422e-06
2.16786e-06
-3.49153e-06
2.56775e-06
-4.35026e-06
2.79944e-06
-4.98421e-06
2.91243e-06
-5.4751e-06
2.95388e-06
-5.86592e-06
2.94116e-06
-6.19226e-06
2.87456e-06
-6.48113e-06
2.76846e-06
-6.75176e-06
2.64423e-06
-7.0176e-06
2.50851e-06
-7.28618e-06
2.36847e-06
-7.55942e-06
2.22714e-06
-7.83636e-06
2.0873e-06
-8.11469e-06
1.95095e-06
-8.39193e-06
1.81918e-06
-8.66565e-06
1.69232e-06
-8.93355e-06
1.57008e-06
-9.19341e-06
1.45164e-06
-9.44291e-06
1.33587e-06
-9.67962e-06
1.22141e-06
-9.90089e-06
1.10692e-06
-1.0104e-05
9.91253e-07
-1.02861e-05
8.7347e-07
-1.04443e-05
7.5305e-07
-1.05762e-05
6.29893e-07
-1.06794e-05
5.04257e-07
-1.07518e-05
3.76923e-07
-1.07923e-05
2.49369e-07
-1.08011e-05
1.23365e-07
-1.07794e-05
1.29168e-09
-1.07255e-05
-1.19614e-07
-1.06428e-05
-2.32187e-07
-1.05337e-05
-3.37019e-07
-1.04009e-05
-4.33407e-07
-1.02473e-05
-5.20852e-07
-1.00759e-05
-5.99223e-07
-9.88937e-06
-6.68769e-07
-9.69027e-06
-7.3003e-07
-9.4807e-06
-7.83768e-07
-9.26239e-06
-8.30876e-07
-9.03661e-06
-8.72336e-07
-8.80421e-06
-9.09202e-07
-8.5656e-06
-9.42629e-07
-8.32081e-06
-9.73906e-07
-8.06946e-06
-1.00451e-06
-7.8108e-06
-1.03612e-06
-7.54372e-06
-1.07055e-06
-7.26684e-06
-1.10967e-06
-6.97856e-06
-1.15525e-06
-6.67715e-06
-1.20879e-06
-6.36091e-06
-1.27132e-06
-6.02827e-06
-1.34338e-06
-5.67785e-06
-1.42504e-06
-5.30832e-06
-1.51616e-06
-4.91801e-06
-1.61682e-06
-4.50452e-06
-1.72708e-06
-4.06462e-06
-1.84644e-06
-3.59445e-06
-1.97302e-06
-3.0906e-06
-2.10201e-06
-2.55251e-06
-2.22366e-06
-1.98448e-06
-2.32467e-06
-1.39711e-06
-2.38999e-06
-8.09787e-07
-2.40181e-06
-2.47324e-07
-2.35538e-06
2.65463e-07
-2.2544e-06
7.17412e-07
-2.1229e-06
1.10863e-06
-1.99211e-06
1.46481e-06
-1.89155e-06
1.82249e-06
-1.82819e-06
2.20196e-06
-1.77376e-06
2.58943e-06
-1.68111e-06
2.95012e-06
-1.52673e-06
3.26116e-06
-1.33136e-06
3.52327e-06
-1.13178e-06
3.74755e-06
-9.49681e-07
3.94306e-06
-7.89554e-07
4.11172e-06
-6.47392e-07
4.24862e-06
-5.19369e-07
4.34861e-06
-4.08453e-07
4.41389e-06
-3.23373e-07
4.4552e-06
-2.70645e-07
4.48619e-06
-2.48246e-07
4.51709e-06
-2.46334e-07
4.55211e-06
-2.52562e-07
4.59072e-06
-2.57155e-07
4.63034e-06
-2.55158e-07
4.66871e-06
-2.45822e-07
4.70474e-06
-2.30642e-07
4.73832e-06
-2.11666e-07
4.76975e-06
-1.90742e-07
4.79944e-06
-1.69448e-07
4.82772e-06
-1.49226e-07
4.85492e-06
-1.31253e-07
4.88164e-06
-1.16009e-07
4.90855e-06
-1.0297e-07
4.93605e-06
-9.06768e-08
4.96412e-06
-7.72602e-08
4.99237e-06
-6.11912e-08
5.02011e-06
-4.16089e-08
5.04586e-06