/*--------------------------------*- C++ -*----------------------------------*\
  =========                 |
  \\      /  F ield         | OpenFOAM: The Open Source CFD Toolbox
   \\    /   O peration     | Website:  https://openfoam.org
    \\  /    A nd           | Version:  9
     \\/     M anipulation  |
\*---------------------------------------------------------------------------*/
FoamFile
{
    format      ascii;
    class       volScalarField;
    location    "0.031";
    object      pMean;
}
// * * * * * * * * * * * * * * * * * * * * * * * * * * * * * * * * * * * * * //

dimensions      [0 2 -2 0 0 0 0];

internalField   nonuniform List<scalar> 
12225
(
-2.23385
-2.79833
-3.08535
-3.17877
-3.20497
-3.21293
-3.20727
-3.18222
-3.13408
-3.05974
-2.95809
-2.82415
-2.65775
-2.44793
-2.2007
-1.89642
-1.56889
-1.20569
-2.48055
-2.82982
-3.08744
-3.18933
-3.21747
-3.22405
-3.21794
-3.19366
-3.14689
-3.07435
-2.97494
-2.84454
-2.6825
-2.48098
-2.2427
-1.96014
-1.65967
-1.39799
-2.52033
-2.83526
-3.08132
-3.19407
-3.22784
-3.23438
-3.2282
-3.20547
-3.16127
-3.09225
-2.99725
-2.87366
-2.72051
-2.53445
-2.3171
-2.07483
-1.8315
-1.64635
-2.67746
-2.88317
-3.09157
-3.20767
-3.24653
-3.25249
-3.24518
-3.22338
-3.18188
-3.11694
-3.02747
-2.91199
-2.77029
-2.6018
-2.41031
-2.20669
-2.01275
-1.86722
-2.79347
-2.92552
-3.09897
-3.21557
-3.26193
-3.27038
-3.26312
-3.24276
-3.20469
-3.14497
-3.06237
-2.95647
-2.82795
-2.67853
-2.51356
-2.34433
-2.18844
-2.0687
-2.84794
-2.96934
-3.11876
-3.22882
-3.28091
-3.29339
-3.287
-3.26804
-3.23362
-3.17981
-3.10525
-3.01028
-2.89652
-2.76709
-2.62798
-2.48921
-2.36439
-2.2686
-2.94375
-3.03777
-3.15323
-3.24984
-3.30406
-3.32072
-3.31611
-3.2989
-3.26831
-3.221
-3.1555
-3.07253
-2.97446
-2.86517
-2.75071
-2.63953
-2.5423
-2.4697
-2.99943
-3.07406
-3.17521
-3.26778
-3.32591
-3.34782
-3.34697
-3.33329
-3.30795
-3.26836
-3.21324
-3.14356
-3.06218
-2.97326
-2.8825
-2.79702
-2.72523
-2.67491
-3.1524
-3.16271
-3.22659
-3.30544
-3.36049
-3.38435
-3.38694
-3.37689
-3.3565
-3.32455
-3.28015
-3.22434
-3.15995
-3.09114
-3.02318
-2.96201
-2.91422
-2.88541
-3.16682
-3.19729
-3.26029
-3.33227
-3.38804
-3.41806
-3.42719
-3.42319
-3.40981
-3.38722
-3.35503
-3.3142
-3.26752
-3.21893
-3.17317
-3.13522
-3.11018
-3.10223
-3.21416
-3.27341
-3.33108
-3.3871
-3.43437
-3.46457
-3.47811
-3.47994
-3.47359
-3.4602
-3.43995
-3.4139
-3.38458
-3.35565
-3.33117
-3.31533
-3.31206
-3.32473
-3.30336
-3.32459
-3.36779
-3.42188
-3.47071
-3.50524
-3.52519
-3.53433
-3.53628
-3.53281
-3.52465
-3.51293
-3.49998
-3.48902
-3.48361
-3.4873
-3.50331
-3.53451
-3.3833
-3.38978
-3.43143
-3.4808
-3.52441
-3.55843
-3.58224
-3.59788
-3.60774
-3.61365
-3.61688
-3.61885
-3.62159
-3.62782
-3.64056
-3.66279
-3.6972
-3.74605
-3.4144
-3.45156
-3.49374
-3.53702
-3.57803
-3.61525
-3.64713
-3.67273
-3.69355
-3.71184
-3.72929
-3.74743
-3.76809
-3.79357
-3.8263
-3.86877
-3.9231
-3.9911
-3.49386
-3.53456
-3.57795
-3.61747
-3.65789
-3.69923
-3.73798
-3.77261
-3.80462
-3.83624
-3.86917
-3.90477
-3.94461
-3.99047
-4.04429
-4.10789
-4.18306
-4.27131
-3.63524
-3.64282
-3.663
-3.69997
-3.74537
-3.79227
-3.83816
-3.88361
-3.92988
-3.97801
-4.029
-4.08414
-4.14482
-4.21239
-4.28833
-4.37393
-4.47034
-4.57822
-3.79843
-3.76223
-3.76354
-3.80248
-3.85707
-3.91331
-3.96958
-4.02783
-4.08895
-4.15357
-4.22269
-4.29737
-4.3786
-4.4673
-4.56441
-4.67074
-4.78721
-4.91438
-3.85609
-3.86374
-3.89202
-3.93361
-3.98358
-4.04336
-4.11187
-4.18551
-4.26255
-4.34402
-4.43157
-4.52605
-4.62774
-4.73681
-4.85367
-4.97871
-5.11235
-5.25459
-3.79116
-3.86794
-3.94799
-4.02101
-4.09394
-4.17227
-4.25719
-4.34784
-4.44373
-4.54493
-4.65177
-4.76468
-4.88401
-5.00993
-5.14258
-5.28193
-5.42803
-5.58065
-4.12421
-4.08753
-4.09303
-4.14161
-4.21728
-4.30517
-4.39827
-4.49617
-4.60004
-4.71058
-4.82783
-4.95134
-5.08084
-5.21618
-5.35725
-5.50386
-5.65585
-5.81291
-3.94895
-4.01892
-4.09469
-4.17486
-4.26502
-4.36272
-4.46527
-4.5727
-4.68602
-4.80551
-4.9309
-5.06192
-5.19818
-5.33939
-5.48528
-5.63556
-5.78976
-5.94742
-4.01149
-4.06288
-4.13543
-4.21957
-4.31387
-4.41615
-4.52389
-4.63637
-4.75483
-4.8796
-5.01007
-5.14563
-5.28579
-5.43016
-5.57848
-5.73041
-5.88557
-6.04352
-4.02683
-4.06928
-4.14647
-4.241
-4.34319
-4.44966
-4.55999
-4.67626
-4.799
-4.92782
-5.06203
-5.20084
-5.34372
-5.49036
-5.64033
-5.79313
-5.94834
-6.10545
-3.96069
-4.02494
-4.12443
-4.23863
-4.35331
-4.46589
-4.58015
-4.69998
-4.82678
-4.95982
-5.09748
-5.23872
-5.38325
-5.531
-5.68175
-5.83498
-5.9901
-6.14647
-3.98756
-4.03756
-4.13845
-4.25813
-4.3741
-4.48493
-4.59889
-4.72012
-4.84879
-4.98334
-5.12233
-5.26469
-5.41023
-5.55875
-5.70993
-5.86327
-6.01819
-6.17406
-3.86221
-3.97647
-4.11645
-4.2509
-4.37063
-4.48369
-4.60056
-4.72568
-4.85794
-4.99521
-5.1361
-5.28006
-5.42666
-5.5759
-5.72746
-5.88079
-6.03535
-6.19056
-3.85184
-3.96632
-4.12145
-4.26476
-4.383
-4.49243
-4.60855
-4.73467
-4.86804
-5.00593
-5.14716
-5.29128
-5.43825
-5.5878
-5.73953
-5.89289
-6.04733
-6.20222
-3.80216
-3.92636
-4.10287
-4.25649
-4.37607
-4.48648
-4.60503
-4.73375
-4.86904
-5.00828
-5.15052
-5.29548
-5.44302
-5.59282
-5.74452
-5.89764
-6.05179
-6.2066
-3.72013
-3.91911
-4.11646
-4.26203
-4.37622
-4.48724
-4.60726
-4.73658
-4.87218
-5.0118
-5.15453
-5.29992
-5.44776
-5.59769
-5.74943
-5.90238
-6.05622
-6.21015
-3.54764
-3.89185
-4.1205
-4.25834
-4.36972
-4.48287
-4.60451
-4.73432
-4.87021
-5.01031
-5.15353
-5.29929
-5.44733
-5.59728
-5.74897
-5.90168
-6.05516
-6.20804
-10.7673
-10.8597
-10.9452
-10.9634
-10.9282
-10.9004
-10.9597
-11.1702
-11.5488
-12.0641
-12.6607
-13.2656
-13.8058
-14.2225
-14.4777
-14.5572
-14.4708
-14.2488
-13.9398
-13.5992
-13.2871
-13.0508
-12.9311
-12.9079
-12.9808
-13.0472
-13.1526
-13.2611
-13.3618
-13.4665
-13.6017
-13.8808
-14.4246
-15.3339
-16.6372
-18.3048
-20.2839
-22.4994
-24.8714
-27.3162
-29.736
-32.0389
-34.154
-36.0276
-37.6213
-38.9087
-39.8738
-40.5102
-40.8213
-40.8183
-40.519
-39.9454
-39.1221
-38.0759
-36.8337
-35.4226
-33.8684
-32.196
-30.4283
-28.5863
-26.6888
-24.7523
-22.7905
-20.8149
-18.8345
-16.8569
-14.8884
-12.9349
-11.0024
-9.0972
-7.2259
-5.39559
-3.61334
-1.8859
-0.219266
1.38175
2.91417
4.3772
5.77266
7.10456
8.37873
9.60203
10.7815
11.9233
13.0326
14.1119
15.1612
16.1777
17.1554
18.0855
18.9569
19.7568
20.4726
21.0926
21.608
22.0136
22.3094
22.4994
22.5917
22.5973
22.5301
22.4042
22.2337
22.0321
21.8109
21.5801
21.3472
21.1178
20.8956
20.6831
20.4816
20.2916
20.1133
19.9465
19.7906
19.6452
19.5096
19.3833
19.2658
19.1563
19.0546
18.96
18.872
18.7904
18.7146
18.6441
18.5786
18.5176
18.4608
18.4079
18.3586
18.3127
18.2699
18.2302
18.1933
18.1589
18.1269
18.097
18.0691
18.043
18.0185
17.9955
17.974
17.9537
17.9348
17.917
17.9004
17.8849
17.8704
17.8568
17.8441
17.8322
17.8209
17.8102
17.8002
17.7906
17.7816
17.773
17.7649
17.7574
17.7504
17.7441
17.7385
17.7339
17.7302
17.728
17.7273
17.7288
17.7328
17.7405
17.7524
17.7706
17.796
17.8333
17.8835
17.957
18.0565
18.2056
18.412
18.7168
-11.308
-11.4133
-11.5171
-11.5537
-11.5294
-11.5394
-11.6636
-11.95
-12.3957
-12.9614
-13.5847
-14.1944
-14.7269
-15.1322
-15.3781
-15.4488
-15.3462
-15.0879
-14.7107
-14.2719
-13.8372
-13.4703
-13.2167
-13.0964
-13.0913
-13.203
-13.3216
-13.585
-13.9354
-14.3742
-14.8946
-15.5526
-16.4099
-17.5128
-18.9324
-20.6879
-22.6929
-24.8518
-27.1169
-29.4295
-31.7054
-33.8636
-35.838
-37.5769
-39.0418
-40.2065
-41.056
-41.5861
-41.801
-41.7106
-41.3303
-40.681
-39.7874
-38.6762
-37.3746
-35.9092
-34.3056
-32.5883
-30.78
-28.9017
-26.9723
-25.0086
-23.0246
-21.0313
-19.0373
-17.0491
-15.0722
-13.1115
-11.1722
-9.26003
-7.38145
-5.54346
-3.75322
-2.01772
-0.343344
1.26462
2.80272
4.26982
5.66752
6.99997
8.27329
9.49473
10.6718
11.8112
12.9184
13.9963
15.0453
16.0626
17.0425
17.9761
18.8523
19.6582
20.3806
21.0074
21.5294
21.9411
22.2422
22.437
22.5336
22.5432
22.4801
22.358
22.1912
21.9928
21.7748
21.5469
21.3169
21.0902
20.8706
20.6606
20.4613
20.2735
20.0971
19.932
19.7777
19.6336
19.4992
19.3739
19.2571
19.1484
19.0473
18.9532
18.8658
18.7846
18.7092
18.6391
18.5739
18.5133
18.4569
18.4044
18.3556
18.31
18.2677
18.2283
18.1916
18.1574
18.1256
18.0959
18.0682
18.0422
18.0179
17.995
17.9736
17.9535
17.9346
17.9169
17.9004
17.8849
17.8704
17.8569
17.8442
17.8322
17.8209
17.8103
17.8002
17.7906
17.7815
17.7729
17.7648
17.7573
17.7502
17.7439
17.7382
17.7334
17.7297
17.7272
17.7264
17.7276
17.7313
17.7385
17.7499
17.7671
17.7917
17.8266
17.8754
17.9427
18.0382
18.1657
18.3456
18.5303
-11.2718
-11.3254
-11.482
-11.6914
-11.951
-12.2904
-12.7382
-13.3051
-13.9735
-14.6988
-15.4198
-16.0742
-16.6077
-16.978
-17.1544
-17.1262
-16.9036
-16.5162
-16.0085
-15.4274
-14.8213
-14.2411
-13.7445
-13.3989
-13.2005
-13.2585
-13.5073
-13.9306
-14.5801
-15.4163
-16.4327
-17.6181
-18.991
-20.546
-22.233
-24.0836
-26.0894
-28.1931
-30.3412
-32.4845
-34.5672
-36.5322
-38.3252
-39.8979
-41.2116
-42.2383
-42.9613
-43.3707
-43.4646
-43.2524
-42.7518
-41.9854
-40.9793
-39.7613
-38.3592
-36.8007
-35.1119
-33.3172
-31.4392
-29.4989
-27.5152
-25.5049
-23.4818
-21.4571
-19.4385
-17.4316
-15.44
-13.4668
-11.5157
-9.59122
-7.69921
-5.84655
-4.04061
-2.28892
-0.598697
1.02381
2.57405
4.05013
5.45321
6.78761
8.05999
9.27842
10.4513
11.5864
12.6899
13.7655
14.814
15.8331
16.8172
17.7574
18.6427
19.4596
20.1944
20.834
21.368
21.7906
22.1014
22.3046
22.409
22.427
22.372
22.258
22.0989
21.908
21.6969
21.4758
21.2522
21.0316
20.8178
20.613
20.4186
20.2352
20.0628
19.9014
19.7503
19.6092
19.4774
19.3544
19.2397
19.1328
19.0332
18.9406
18.8545
18.7744
18.7
18.6309
18.5666
18.5068
18.4511
18.3992
18.3509
18.306
18.2641
18.2252
18.1889
18.1551
18.1237
18.0943
18.0668
18.0411
18.017
17.9944
17.9732
17.9534
17.9347
17.9172
17.9008
17.8854
17.871
17.8575
17.8448
17.8328
17.8215
17.8107
17.8006
17.7909
17.7818
17.7731
17.7649
17.7572
17.7501
17.7436
17.7378
17.7328
17.7288
17.7261
17.7249
17.7256
17.7288
17.7351
17.7455
17.7611
17.7838
17.8152
17.8599
17.9187
18.0016
18.1022
18.2371
18.3434
-11.3013
-11.3812
-11.6556
-12.1272
-12.7468
-13.4687
-14.2664
-15.1125
-15.9737
-16.8145
-17.593
-18.2619
-18.7739
-19.0877
-19.1741
-19.0288
-18.6719
-18.1448
-17.4977
-16.7806
-16.0419
-15.3399
-14.7281
-14.289
-14.1114
-14.1969
-14.5859
-15.2465
-16.1716
-17.3396
-18.7234
-20.2883
-21.9818
-23.7932
-25.7024
-27.6876
-29.7327
-31.8143
-33.9001
-35.95
-37.9189
-39.759
-41.4231
-42.8675
-44.0542
-44.9526
-45.5401
-45.8039
-45.7455
-45.377
-44.7178
-43.7935
-42.6331
-41.2671
-39.7261
-38.039
-36.2323
-34.3303
-32.3553
-30.3278
-28.2671
-26.1908
-24.1135
-22.0464
-19.9962
-17.9662
-15.9578
-13.9711
-12.0069
-10.068
-8.15908
-6.28695
-4.45941
-2.68482
-0.971474
0.672837
2.24197
3.73261
5.14524
6.4842
7.75684
8.97236
10.1405
11.2702
12.3689
13.4414
14.4892
15.5105
16.4998
17.4486
18.3453
19.1763
19.9265
20.582
21.1313
21.5678
21.8907
22.1048
22.22
22.2491
22.2058
22.1042
21.9575
21.7786
21.5791
21.3689
21.1557
20.9451
20.7405
20.5441
20.3573
20.1807
20.0144
19.8583
19.712
19.5751
19.4471
19.3274
19.2156
19.1113
19.014
18.9234
18.8391
18.7606
18.6876
18.6197
18.5564
18.4976
18.4428
18.3918
18.3443
18.3001
18.2589
18.2205
18.1848
18.1515
18.1205
18.0915
18.0644
18.0391
18.0153
17.993
17.972
17.9524
17.9339
17.9166
17.9004
17.8851
17.8708
17.8573
17.8447
17.8327
17.8214
17.8106
17.8004
17.7908
17.7816
17.7728
17.7646
17.7568
17.7496
17.7429
17.737
17.7318
17.7275
17.7245
17.7228
17.723
17.7254
17.7307
17.7398
17.7534
17.7737
17.8013
17.8404
17.8903
17.9584
18.0356
18.1293
18.1832
-11.4042
-11.6771
-12.2612
-13.0506
-13.965
-14.9503
-15.9667
-16.979
-17.9604
-18.8851
-19.7149
-20.3979
-20.8812
-21.1192
-21.0913
-20.8085
-20.3112
-19.6549
-18.9034
-18.1195
-17.357
-16.6619
-16.1057
-15.7595
-15.6894
-15.945
-16.5394
-17.4542
-18.6506
-20.0809
-21.6902
-23.4433
-25.308
-27.2555
-29.2674
-31.3273
-33.4187
-35.521
-37.6072
-39.6418
-41.5821
-43.3812
-44.9919
-46.3679
-47.4669
-48.2525
-48.6999
-48.8044
-48.571
-48.0141
-47.1587
-46.0365
-44.6827
-43.1323
-41.4188
-39.5722
-37.6195
-35.5842
-33.4875
-31.3494
-29.1896
-27.027
-24.8782
-22.7552
-20.6648
-18.6085
-16.5839
-14.5868
-12.6132
-10.6625
-8.73788
-6.84568
-4.99425
-3.19282
-1.451
0.221401
1.81586
3.32686
4.75364
6.10046
7.37557
8.58956
9.75369
10.8786
11.973
13.0428
14.0904
15.1144
16.1096
17.0673
17.9759
18.8213
19.5879
20.2606
20.8268
21.2791
21.6158
21.8423
21.9693
22.0107
21.9812
21.8951
21.7652
21.6032
21.4199
21.225
21.0265
20.8295
20.6376
20.4527
20.2762
20.1086
19.9503
19.8013
19.6612
19.5298
19.4066
19.2912
19.1831
19.0822
18.9879
18.8999
18.8179
18.7415
18.6704
18.6042
18.5425
18.4851
18.4317
18.3818
18.3354
18.2921
18.2518
18.2143
18.1793
18.1466
18.1162
18.0877
18.0611
18.0362
18.0128
17.9908
17.9702
17.9509
17.9327
17.9157
17.8996
17.8846
17.8704
17.857
17.8444
17.8325
17.8212
17.8105
17.8003
17.7906
17.7813
17.7726
17.7642
17.7564
17.749
17.7422
17.736
17.7306
17.726
17.7225
17.7204
17.7198
17.7214
17.7254
17.733
17.7445
17.7618
17.7852
17.8178
17.8584
17.9113
17.9671
18.0257
18.0433
-12.155
-12.5983
-13.3813
-14.3189
-15.3593
-16.4631
-17.5871
-18.6989
-19.7817
-20.8104
-21.7277
-22.461
-22.9413
-23.118
-22.9778
-22.5539
-21.911
-21.1322
-20.3073
-19.5114
-18.7987
-18.2203
-17.831
-17.6824
-17.8268
-18.2989
-19.1034
-20.2156
-21.5929
-23.1774
-24.9224
-26.7849
-28.7349
-30.7539
-32.8317
-34.9581
-37.1188
-39.2931
-41.452
-43.5575
-45.5626
-47.4135
-49.0513
-50.4183
-51.4655
-52.1587
-52.4799
-52.4206
-51.9892
-51.2093
-50.1153
-48.748
-47.1517
-45.3696
-43.4403
-41.3969
-39.2667
-37.0721
-34.8318
-32.5623
-30.2811
-28.0074
-25.7611
-23.5585
-21.4088
-19.3131
-17.2661
-15.2585
-13.2805
-11.3255
-9.39264
-7.48643
-5.61514
-3.78848
-2.01728
-0.313547
1.31119
2.84821
4.29432
5.65315
6.93377
8.14844
9.31043
10.4321
11.5236
12.5918
13.6397
14.6662
15.6666
16.632
17.551
18.4096
19.1919
19.8821
20.4666
20.9354
21.2874
21.5277
21.6674
21.7213
21.7057
21.6363
21.5262
21.3855
21.2234
21.0486
20.8687
20.6892
20.5131
20.3424
20.1785
20.0221
19.8736
19.7331
19.6005
19.4756
19.3581
19.2478
19.1443
19.0474
18.9567
18.872
18.7929
18.7192
18.6504
18.5862
18.5264
18.4707
18.4187
18.3702
18.325
18.2828
18.2435
18.2068
18.1726
18.1407
18.1109
18.0831
18.057
18.0325
18.0096
17.9881
17.9679
17.9489
17.931
17.9143
17.8985
17.8836
17.8696
17.8564
17.8439
17.832
17.8208
17.8101
17.7999
17.7902
17.7809
17.772
17.7636
17.7557
17.7482
17.7412
17.7348
17.7291
17.7242
17.7202
17.7174
17.7161
17.7166
17.7194
17.7251
17.7343
17.7482
17.767
17.7928
17.8241
17.8622
17.8989
17.929
17.9207
-13.4831
-13.9349
-14.6269
-15.5012
-16.5165
-17.6194
-18.7612
-19.9167
-21.0787
-22.203
-23.1996
-23.9724
-24.4449
-24.5721
-24.3599
-23.8617
-23.1628
-22.3662
-21.5706
-20.8547
-20.2767
-19.8819
-19.7125
-19.8098
-20.2035
-20.9052
-21.9016
-23.166
-24.6536
-26.3225
-28.1343
-30.0554
-32.0664
-34.1582
-36.3259
-38.5631
-40.8577
-43.188
-45.5199
-47.8059
-49.9858
-51.989
-53.74
-55.1693
-56.2203
-56.8557
-57.0545
-56.8147
-56.1525
-55.1011
-53.707
-52.0258
-50.1162
-48.0345
-45.8288
-43.5372
-41.1876
-38.8007
-36.3912
-33.9702
-31.5491
-29.144
-26.7769
-24.469
-22.2344
-20.0767
-17.9901
-15.9618
-13.976
-12.0194
-10.0841
-8.17049
-6.28552
-4.43923
-2.64324
-0.910752
0.744386
2.31007
3.77974
5.15519
6.44544
7.66441
8.82736
9.94843
11.0391
12.1068
13.1553
14.184
15.1881
16.1589
17.0854
17.9542
18.7502
19.4569
20.0578
20.5432
20.9105
21.1649
21.3178
21.3854
21.3855
21.3348
21.2468
21.1311
20.9945
20.844
20.6865
20.5274
20.3698
20.2156
20.0662
19.9224
19.785
19.6541
19.53
19.4125
19.3017
19.1972
19.0989
19.0066
18.92
18.839
18.7632
18.6924
18.6262
18.5644
18.5068
18.453
18.4028
18.3559
18.3121
18.2713
18.2332
18.1977
18.1645
18.1334
18.1045
18.0773
18.0519
18.0281
18.0057
17.9847
17.9649
17.9463
17.9288
17.9123
17.8968
17.8822
17.8684
17.8554
17.843
17.8313
17.8201
17.8095
17.7993
17.7896
17.7803
17.7714
17.7629
17.7549
17.7472
17.7401
17.7334
17.7274
17.7221
17.7176
17.7141
17.712
17.7114
17.7127
17.7165
17.7231
17.7334
17.7475
17.7662
17.7883
17.8129
17.8327
17.84
17.8122
-14.4123
-14.7619
-15.3169
-16.0805
-17.003
-18.0209
-19.0933
-20.2068
-21.3612
-22.4909
-23.4818
-24.2352
-24.6853
-24.8071
-24.6217
-24.1899
-23.6011
-22.9556
-22.3458
-21.8428
-21.4976
-21.3506
-21.4413
-21.8
-22.4409
-23.359
-24.5311
-25.9245
-27.5044
-29.2421
-31.1115
-33.0961
-35.1905
-37.3966
-39.7176
-42.152
-44.6873
-47.2957
-49.931
-52.5291
-55.0095
-57.2808
-59.2501
-60.8285
-61.9412
-62.5384
-62.6011
-62.1395
-61.1817
-59.7772
-57.9926
-55.9048
-53.5922
-51.1278
-48.572
-45.9691
-43.3473
-40.7245
-38.1125
-35.5174
-32.9433
-30.3992
-27.9032
-25.4789
-23.145
-20.9087
-18.7653
-16.7002
-14.694
-12.7279
-10.7875
-8.8674
-6.9723
-5.11155
-3.29669
-1.54126
0.139296
1.73004
3.22171
4.61475
5.91785
7.14563
8.31446
9.43972
10.5335
11.6042
12.6562
13.688
14.6949
15.6685
16.5993
17.4752
18.2801
18.9977
19.6112
20.1088
20.4876
20.7538
20.9208
21.0057
21.0267
21.0004
20.9394
20.8518
20.7433
20.6195
20.4868
20.3502
20.2127
20.0763
19.9425
19.8125
19.687
19.5666
19.4516
19.3423
19.2386
19.1405
19.048
18.9608
18.8788
18.8019
18.7298
18.6623
18.5991
18.5401
18.4849
18.4333
18.3851
18.34
18.2979
18.2585
18.2218
18.1874
18.1553
18.1253
18.0972
18.0709
18.0462
18.023
18.0012
17.9807
17.9614
17.9433
17.9262
17.91
17.8948
17.8805
17.8669
17.8541
17.8419
17.8303
17.8192
17.8087
17.7985
17.7888
17.7795
17.7706
17.7621
17.7539
17.7461
17.7387
17.7318
17.7255
17.7197
17.7147
17.7105
17.7074
17.7056
17.7054
17.7071
17.711
17.7176
17.7268
17.7388
17.7519
17.7642
17.7692
17.7586
17.7153
-14.6008
-14.8602
-15.3009
-15.933
-16.7086
-17.5729
-18.4942
-19.4718
-20.5133
-21.5483
-22.4577
-23.1622
-23.6131
-23.7983
-23.7432
-23.5045
-23.1605
-22.7945
-22.4815
-22.2794
-22.2337
-22.3853
-22.7684
-23.4025
-24.291
-25.4193
-26.7601
-28.2838
-29.9662
-31.7885
-33.7419
-35.8298
-38.0647
-40.4618
-43.0324
-45.777
-48.6784
-51.6971
-54.7701
-57.8114
-60.7163
-63.3678
-65.6431
-67.4263
-68.6271
-69.194
-69.1108
-68.3902
-67.0772
-65.2446
-62.9849
-60.4011
-57.5964
-54.6641
-51.6799
-48.6965
-45.7439
-42.8364
-39.9809
-37.1795
-34.4307
-31.7359
-29.1058
-26.5615
-24.1233
-21.8003
-19.5879
-17.4716
-15.4307
-13.4427
-11.4889
-9.55908
-7.65502
-5.78418
-3.95637
-2.18497
-0.487034
1.12053
2.62754
4.03526
5.35262
6.59378
7.77476
8.91084
10.0143
11.0942
12.1539
13.1912
14.2015
15.1774
16.11
16.988
17.7963
18.5178
19.1356
19.6385
20.0246
20.3022
20.4863
20.5942
20.6429
20.6468
20.6169
20.5599
20.4804
20.3839
20.2765
20.1628
20.046
19.9278
19.8102
19.6943
19.5812
19.4717
19.3664
19.2657
19.1696
19.0784
18.992
18.9103
18.8333
18.7608
18.6927
18.6288
18.5689
18.5128
18.4602
18.4111
18.365
18.322
18.2816
18.2439
18.2087
18.1757
18.1449
18.116
18.0889
18.0635
18.0396
18.0172
17.996
17.9761
17.9574
17.9397
17.923
17.9073
17.8925
17.8784
17.8651
17.8525
17.8405
17.8291
17.8181
17.8077
17.7976
17.7879
17.7786
17.7697
17.7611
17.7528
17.7448
17.7373
17.7301
17.7234
17.7172
17.7115
17.7066
17.7025
17.6995
17.6976
17.6972
17.6983
17.7012
17.7055
17.7109
17.7156
17.717
17.7092
17.6841
17.6285
-14.1091
-14.2929
-14.6256
-15.1197
-15.7283
-16.4104
-17.1331
-17.9071
-18.7444
-19.5947
-20.3695
-21.0128
-21.4899
-21.7927
-21.9422
-21.9803
-21.9627
-21.9475
-21.9887
-22.1341
-22.4279
-22.9091
-23.6041
-24.5235
-25.6614
-26.9982
-28.5087
-30.1718
-31.9736
-33.9109
-35.9946
-38.2477
-40.6999
-43.3788
-46.2994
-49.458
-52.8271
-56.3519
-59.9486
-63.5065
-66.8938
-69.9654
-72.5741
-74.5867
-75.9022
-76.4616
-76.247
-75.2764
-73.6071
-71.3329
-68.5732
-65.4596
-62.121
-58.6733
-55.2103
-51.7969
-48.4654
-45.2261
-42.08
-39.0262
-36.0609
-33.1806
-30.3909
-27.7085
-25.1519
-22.7291
-20.4349
-18.2544
-16.1662
-14.1464
-12.1735
-10.2343
-8.32471
-6.44821
-4.61318
-2.83372
-1.12824
0.486204
2.00163
3.42106
4.75404
6.01369
7.21389
8.36824
9.48829
10.5826
11.6534
12.6982
13.7123
14.6893
15.6216
16.4985
17.305
18.0239
18.6395
19.1436
19.5376
19.8315
20.0397
20.1767
20.2566
20.2921
20.293
20.2656
20.2143
20.1444
20.0617
19.9707
19.8739
19.7737
19.6719
19.5701
19.4695
19.3711
19.2756
19.1837
19.0956
19.0116
18.9316
18.8557
18.7839
18.7162
18.6524
18.5923
18.536
18.483
18.4334
18.3868
18.3432
18.3023
18.264
18.2281
18.1945
18.163
18.1335
18.1058
18.0798
18.0554
18.0324
18.0107
17.9903
17.9711
17.9529
17.9358
17.9196
17.9043
17.8898
17.8761
17.8631
17.8507
17.8389
17.8277
17.8169
17.8065
17.7965
17.7869
17.7776
17.7686
17.7599
17.7515
17.7435
17.7357
17.7282
17.7211
17.7144
17.7082
17.7025
17.6974
17.6931
17.6895
17.6869
17.6852
17.6844
17.6839
17.6831
17.68
17.6717
17.6529
17.616
17.5504
-13.1265
-13.2602
-13.5146
-13.8921
-14.3534
-14.8627
-15.3969
-15.9619
-16.5749
-17.2179
-17.8446
-18.4198
-18.921
-19.3418
-19.6938
-20.0021
-20.301
-20.6284
-21.023
-21.5238
-22.1677
-22.9835
-23.9879
-25.1833
-26.5589
-28.0958
-29.7765
-31.5905
-33.5368
-35.6287
-37.8951
-40.3744
-43.1077
-46.1273
-49.4455
-53.0493
-56.8974
-60.9187
-65.0127
-69.0525
-72.889
-76.3582
-79.2939
-81.5445
-82.9949
-83.5803
-83.2835
-82.1263
-80.1734
-77.5319
-74.3419
-70.7575
-66.9299
-62.9959
-59.0671
-55.2214
-51.4947
-47.898
-44.4311
-41.0902
-37.8708
-34.7666
-31.7823
-28.9323
-26.232
-23.6869
-21.2916
-19.0311
-16.8847
-14.8284
-12.8364
-10.8885
-8.97554
-7.09762
-5.26283
-3.48519
-1.78173
-0.166614
1.35553
2.78841
4.141
5.42426
6.64882
7.82576
8.96517
10.0738
11.1539
12.2039
13.2205
14.1991
15.1323
16.0086
16.8121
17.5263
18.139
18.6468
19.0538
19.3693
19.6047
19.7718
19.8822
19.947
19.9755
19.9747
19.9495
19.9049
19.846
19.7765
19.699
19.6158
19.5292
19.4411
19.3527
19.2654
19.1799
19.0969
19.017
18.9403
18.867
18.7972
18.7309
18.6682
18.6089
18.553
18.5004
18.4509
18.4043
18.3606
18.3195
18.2809
18.2447
18.2108
18.1789
18.149
18.121
18.0946
18.0698
18.0465
18.0245
18.0037
17.9841
17.9655
17.948
17.9314
17.9157
17.9008
17.8868
17.8734
17.8607
17.8487
17.8371
17.826
17.8154
17.8052
17.7953
17.7857
17.7764
17.7674
17.7587
17.7502
17.742
17.734
17.7263
17.7188
17.7116
17.7047
17.6982
17.6921
17.6864
17.6812
17.6764
17.6719
17.6675
17.6624
17.6558
17.6456
17.6286
17.6003
17.5537
17.4802
-11.8692
-11.974
-12.177
-12.4787
-12.8458
-13.2464
-13.6578
-14.0777
-14.5256
-15.0054
-15.5081
-16.0168
-16.5212
-17.0197
-17.5194
-18.0352
-18.5862
-19.1961
-19.8918
-20.7012
-21.6489
-22.7529
-24.0223
-25.4548
-27.0395
-28.7632
-30.6156
-32.5949
-34.71
-36.9872
-39.4654
-42.1892
-45.2011
-48.5303
-52.182
-56.1363
-60.3465
-64.7366
-69.2007
-73.6039
-77.7852
-81.5652
-84.7622
-87.2147
-88.8021
-89.4579
-89.1637
-87.9368
-85.8408
-82.9895
-79.5357
-75.6448
-71.4832
-67.2
-62.9158
-58.7166
-54.6445
-50.718
-46.9405
-43.3094
-39.8201
-36.4705
-33.2676
-30.2252
-27.3569
-24.6677
-22.1535
-19.8023
-17.5932
-15.4971
-13.4813
-11.521
-9.60413
-7.72871
-5.90085
-4.13178
-2.43393
-0.816907
0.716411
2.16805
3.54444
4.85276
6.10094
7.2975
8.45074
9.56724
10.6511
11.7038
12.7248
13.71
14.6498
15.5295
16.3326
17.045
17.6592
18.175
18.5974
18.9333
19.1919
19.3841
19.5207
19.6116
19.6656
19.6894
19.6884
19.6673
19.6303
19.5808
19.5214
19.4544
19.3824
19.3074
19.2312
19.1548
19.0794
19.0055
18.9339
18.8648
18.7985
18.735
18.6745
18.617
18.5626
18.5111
18.4624
18.4165
18.3733
18.3326
18.2942
18.2581
18.2242
18.1923
18.1623
18.1341
18.1076
18.0827
18.0591
18.0369
18.0159
17.9961
17.9773
17.9595
17.9426
17.9267
17.9115
17.8971
17.8835
17.8705
17.8582
17.8464
17.8351
17.8243
17.8138
17.8037
17.7939
17.7844
17.7751
17.7661
17.7574
17.7488
17.7404
17.7322
17.7242
17.7163
17.7087
17.7012
17.6938
17.6867
17.6797
17.6728
17.6658
17.6586
17.6507
17.6413
17.6292
17.6125
17.588
17.5514
17.4968
17.4168
-10.4893
-10.5808
-10.7603
-11.0271
-11.3524
-11.708
-12.0701
-12.4313
-12.8046
-13.2061
-13.6436
-14.1171
-14.6259
-15.1731
-15.7658
-16.4143
-17.1322
-17.9359
-18.8433
-19.8717
-21.0369
-22.3506
-23.8187
-25.4371
-27.197
-29.0891
-31.1068
-33.2507
-35.5326
-37.9801
-40.631
-43.5281
-46.7109
-50.2084
-54.0274
-58.1514
-62.5373
-67.1094
-71.7584
-76.3432
-80.6975
-84.6391
-87.9871
-90.5833
-92.3085
-93.0905
-92.8986
-91.7461
-89.6906
-86.8427
-83.3556
-79.398
-75.1365
-70.72
-66.2688
-61.8712
-57.5765
-53.4106
-49.3848
-45.5024
-41.7666
-38.1831
-34.7648
-31.5282
-28.4873
-25.6501
-23.0169
-20.5761
-18.302
-16.1593
-14.1125
-12.1356
-10.2144
-8.34302
-6.52218
-4.7588
-3.06086
-1.43577
0.112789
1.5846
2.98241
4.31051
5.57467
6.78232
7.94209
9.06263
10.1514
11.213
12.247
13.246
14.196
15.0803
15.8844
16.5978
17.216
17.7398
18.1738
18.5244
18.8002
19.0121
19.1707
19.285
19.3623
19.4092
19.4307
19.4309
19.4138
19.3828
19.3403
19.2888
19.2309
19.1689
19.1045
19.0392
18.974
18.9096
18.8466
18.7854
18.7263
18.6694
18.615
18.5631
18.5137
18.4667
18.4223
18.3802
18.3405
18.3029
18.2674
18.2339
18.2024
18.1726
18.1446
18.1182
18.0933
18.0698
18.0477
18.0267
18.0068
17.9879
17.97
17.953
17.9369
17.9216
17.907
17.8932
17.88
17.8674
17.8554
17.8439
17.8329
17.8223
17.812
17.8021
17.7924
17.783
17.7738
17.7648
17.7559
17.7473
17.7388
17.7304
17.722
17.7138
17.7057
17.6975
17.6894
17.6812
17.6729
17.6643
17.6553
17.6454
17.6342
17.6207
17.6037
17.5811
17.5499
17.5063
17.4449
17.3595
-9.06769
-9.15554
-9.33023
-9.5902
-9.91195
-10.269
-10.6365
-11.0021
-11.3702
-11.7579
-12.1808
-12.651
-13.1757
-13.762
-14.4177
-15.1517
-15.975
-16.8996
-17.9377
-19.1019
-20.4046
-21.8562
-23.4602
-25.2124
-27.1041
-29.126
-31.2689
-33.5289
-35.9128
-38.4422
-41.1514
-44.0827
-47.2771
-50.7665
-54.5638
-58.6571
-63.0065
-67.5394
-72.1499
-76.7036
-81.0445
-85.0013
-88.4019
-91.0943
-92.9582
-93.9178
-93.934
-93.0017
-91.1709
-88.5468
-85.271
-81.5006
-77.3897
-73.0756
-68.6712
-64.2609
-59.9001
-55.6244
-51.4561
-47.4089
-43.4954
-39.7319
-36.1395
-32.741
-29.5556
-26.5957
-23.8628
-21.3417
-19.0027
-16.809
-14.7272
-12.7316
-10.8033
-8.93089
-7.11084
-5.3466
-3.64468
-2.01155
-0.451305
1.03448
2.44628
3.78661
5.06066
6.27673
7.44568
8.57905
9.68574
10.7687
11.8228
12.8358
13.7917
14.6761
15.4779
16.19
16.8089
17.3356
17.775
18.1349
18.4243
18.6535
18.8317
18.9667
19.0651
19.1328
19.1744
19.1941
19.1954
19.1815
19.155
19.1186
19.0747
19.0257
18.9734
18.9194
18.8645
18.8098
18.7557
18.7026
18.651
18.6011
18.553
18.5068
18.4626
18.4205
18.3804
18.3423
18.3061
18.2718
18.2393
18.2086
18.1795
18.152
18.126
18.1015
18.0783
18.0563
18.0355
18.0158
17.9971
17.9793
17.9623
17.9462
17.9308
17.9162
17.9022
17.8889
17.8762
17.8641
17.8525
17.8413
17.8306
17.8202
17.8101
17.8003
17.7908
17.7814
17.7723
17.7633
17.7545
17.7457
17.7371
17.7285
17.7199
17.7113
17.7026
17.6939
17.6849
17.6757
17.6662
17.656
17.6449
17.6325
17.6182
17.6009
17.5794
17.5515
17.5145
17.4647
17.3976
17.3078
-7.66037
-7.74525
-7.91847
-8.18113
-8.51428
-8.89245
-9.29144
-9.69425
-10.0995
-10.5187
-10.9675
-11.4616
-12.0147
-12.6382
-13.3413
-14.1331
-15.0217
-16.0153
-17.1234
-18.3585
-19.7341
-21.2592
-22.9345
-24.7525
-26.7021
-28.7714
-30.9473
-33.2211
-35.5961
-38.091
-40.7359
-43.5719
-46.639
-49.9683
-53.5745
-57.452
-61.5667
-65.8559
-70.2275
-74.5643
-78.7289
-82.5687
-85.9285
-88.6651
-90.6605
-91.8318
-92.1307
-91.5435
-90.1029
-87.8945
-85.0418
-81.68
-77.9413
-73.9453
-69.791
-65.556
-61.2989
-57.0643
-52.8847
-48.7854
-44.7916
-40.9338
-37.2437
-33.7504
-30.4786
-27.4431
-24.6431
-22.0596
-19.6644
-17.4242
-15.3088
-13.2923
-11.3531
-9.47641
-7.65624
-5.89355
-4.1929
-2.55904
-0.995044
0.497625
1.91911
3.27167
4.56076
5.79571
6.98849
8.15017
9.28653
10.3951
11.4659
12.4852
13.4393
14.3175
15.1116
15.8162
16.4292
16.9531
17.3941
17.7606
18.0617
18.3063
18.5019
18.6553
18.7724
18.8585
18.9185
18.956
18.9745
18.977
18.9662
18.9446
18.9148
18.8789
18.8389
18.7963
18.7521
18.7071
18.6621
18.6174
18.5735
18.5306
18.4889
18.4486
18.4098
18.3726
18.337
18.303
18.2705
18.2396
18.2102
18.1822
18.1557
18.1305
18.1066
18.084
18.0625
18.0421
18.0228
18.0044
17.9869
17.9701
17.9542
17.9389
17.9244
17.9104
17.8972
17.8844
17.8723
17.8606
17.8493
17.8385
17.8281
17.8179
17.8081
17.7985
17.7891
17.7798
17.7708
17.7618
17.7529
17.7441
17.7353
17.7265
17.7177
17.7087
17.6996
17.6903
17.6806
17.6704
17.6596
17.6478
17.6348
17.6201
17.6028
17.5821
17.5564
17.5238
17.4817
17.4266
17.3547
17.2612
-6.29031
-6.36741
-6.52507
-6.78404
-7.12494
-7.52294
-7.95549
-8.40327
-8.85982
-9.33
-9.82683
-10.364
-10.9562
-11.6152
-12.3508
-13.1713
-14.0844
-15.0978
-16.2217
-17.4692
-18.8513
-20.3727
-22.0291
-23.813
-25.715
-27.727
-29.8386
-32.0403
-34.333
-36.7267
-39.2421
-41.9097
-44.7622
-47.8276
-51.1233
-54.6503
-58.3871
-62.287
-66.2776
-70.2632
-74.1286
-77.744
-80.9741
-83.6898
-85.7809
-87.164
-87.7866
-87.6238
-86.6899
-85.0424
-82.772
-79.9854
-76.7892
-73.28
-69.5401
-65.6387
-61.6352
-57.5796
-53.5153
-49.4825
-45.5223
-41.6773
-37.9868
-34.4855
-31.2007
-28.1464
-25.3192
-22.7011
-20.2678
-17.9924
-15.8493
-13.8146
-11.8673
-9.99177
-8.17859
-6.42474
-4.73182
-3.10282
-1.53951
-0.0417466
1.39246
2.76662
4.08602
5.35801
6.59087
7.79047
8.95709
10.0848
11.1632
12.1805
13.1256
13.9901
14.7686
15.4584
16.0606
16.5791
17.0206
17.3931
17.7046
17.9625
18.1735
18.3432
18.4772
18.5807
18.6579
18.7126
18.7479
18.7667
18.7715
18.765
18.7495
18.7272
18.6999
18.669
18.6357
18.6008
18.5651
18.529
18.4929
18.4572
18.4222
18.388
18.3547
18.3226
18.2916
18.2618
18.2332
18.2058
18.1796
18.1545
18.1306
18.1079
18.0862
18.0655
18.0458
18.0271
18.0093
17.9923
17.9761
17.9605
17.9456
17.9312
17.9175
17.9043
17.8917
17.8796
17.868
17.8568
17.846
17.8355
17.8254
17.8155
17.8059
17.7965
17.7873
17.7781
17.7691
17.7602
17.7513
17.7425
17.7336
17.7246
17.7155
17.7062
17.6966
17.6867
17.6763
17.6652
17.6532
17.64
17.6252
17.6082
17.5882
17.5643
17.5349
17.4981
17.4515
17.3919
17.3159
17.2193
-5.03858
-5.09793
-5.24384
-5.49612
-5.84173
-6.25733
-6.72039
-7.20999
-7.71307
-8.22805
-8.76183
-9.32464
-9.92829
-10.5837
-11.3015
-12.091
-12.9612
-13.9218
-14.9862
-16.1678
-17.4779
-18.9187
-20.4866
-22.1756
-23.9805
-25.8943
-27.9071
-30.0092
-32.1976
-34.4752
-36.8516
-39.3456
-41.981
-44.7805
-47.7602
-50.9239
-54.2593
-57.7341
-61.2948
-64.8682
-68.3635
-71.6764
-74.6959
-77.3142
-79.4358
-80.9812
-81.8948
-82.1393
-81.7091
-80.6334
-78.9706
-76.7966
-74.1917
-71.2303
-67.9783
-64.4963
-60.8418
-57.0697
-53.2336
-49.3864