/*--------------------------------*- C++ -*----------------------------------*\
  =========                 |
  \\      /  F ield         | OpenFOAM: The Open Source CFD Toolbox
   \\    /   O peration     | Website:  https://openfoam.org
    \\  /    A nd           | Version:  9
     \\/     M anipulation  |
\*---------------------------------------------------------------------------*/
FoamFile
{
    format      ascii;
    class       volVectorField;
    location    "0.031";
    object      U_0;
}
// * * * * * * * * * * * * * * * * * * * * * * * * * * * * * * * * * * * * * //

dimensions      [0 1 -1 0 0 0 0];

internalField   nonuniform List<vector> 
12225
(
(9.85116 0.103735 0)
(9.44661 0.0653174 0)
(9.17197 0.0674933 0)
(8.93918 0.0603359 0)
(8.65675 0.0580233 0)
(8.33082 0.0679883 0)
(8.01312 0.0768912 0)
(7.73764 0.0778808 0)
(7.49951 0.0755587 0)
(7.26907 0.0737869 0)
(7.01706 0.0734237 0)
(6.73506 0.0719303 0)
(6.42697 0.0696996 0)
(6.1116 0.0666644 0)
(5.76977 0.0739574 0)
(5.41673 0.076469 0)
(5.00481 0.105423 0)
(4.54978 0.112028 0)
(10.0024 0.0434964 0)
(9.96667 0.0943147 0)
(9.96384 0.0533716 0)
(9.99429 0.0515109 0)
(10.02 0.0766394 0)
(10.0265 0.0893049 0)
(10.0046 0.0765917 0)
(9.95733 0.0563118 0)
(9.90196 0.0487581 0)
(9.85516 0.0596288 0)
(9.81651 0.0821224 0)
(9.77547 0.10831 0)
(9.71404 0.131397 0)
(9.62846 0.151992 0)
(9.50156 0.172563 0)
(9.34759 0.200415 0)
(9.14841 0.240308 0)
(8.90823 0.284558 0)
(10.051 0.137418 0)
(10.2043 0.0948772 0)
(10.2967 0.0663288 0)
(10.2025 0.0495174 0)
(10.0845 0.0522298 0)
(10.0526 0.0773489 0)
(10.0637 0.103649 0)
(10.0529 0.116492 0)
(10.0111 0.116089 0)
(9.968 0.109868 0)
(9.95016 0.106431 0)
(9.96066 0.111676 0)
(9.98665 0.126323 0)
(10.007 0.148697 0)
(10.0076 0.181222 0)
(9.97664 0.221019 0)
(9.92141 0.274369 0)
(9.83703 0.336846 0)
(10.0229 0.0341035 0)
(10.242 0.0347419 0)
(10.2983 0.0715128 0)
(10.2223 0.107628 0)
(10.0706 0.107283 0)
(9.94519 0.0864096 0)
(9.90048 0.066775 0)
(9.92354 0.0596588 0)
(9.9723 0.064038 0)
(10.0093 0.0733316 0)
(10.0174 0.0837271 0)
(9.99821 0.096154 0)
(9.96535 0.114435 0)
(9.92901 0.142706 0)
(9.89499 0.184918 0)
(9.86358 0.240347 0)
(9.83497 0.309319 0)
(9.80999 0.385179 0)
(9.96397 0.00969514 0)
(9.97282 0.0462052 0)
(9.97459 0.0747174 0)
(10.0045 0.111259 0)
(10.0259 0.136196 0)
(10.0372 0.140377 0)
(10.0396 0.125838 0)
(10.035 0.106731 0)
(10.0262 0.095684 0)
(10.0136 0.0967992 0)
(9.99352 0.109146 0)
(9.96162 0.129566 0)
(9.91873 0.155196 0)
(9.87092 0.184778 0)
(9.82459 0.219812 0)
(9.7881 0.262802 0)
(9.76182 0.313018 0)
(9.7501 0.370847 0)
(10.1316 -0.0138007 0)
(10.072 0.0386653 0)
(10.0315 0.0778205 0)
(10.0612 0.0931927 0)
(10.1339 0.0855596 0)
(10.1978 0.0667874 0)
(10.2259 0.0515933 0)
(10.2211 0.05057 0)
(10.1984 0.0640342 0)
(10.172 0.0856121 0)
(10.1469 0.109367 0)
(10.1192 0.133153 0)
(10.0808 0.157332 0)
(10.0292 0.184922 0)
(9.9622 0.2195 0)
(9.89051 0.264758 0)
(9.81745 0.32032 0)
(9.75947 0.384989 0)
(10.2593 0.0897873 0)
(10.1729 0.100905 0)
(10.0435 0.0789303 0)
(9.95873 0.0720271 0)
(9.94963 0.096629 0)
(9.97912 0.123022 0)
(10.0144 0.133406 0)
(10.0443 0.129737 0)
(10.0637 0.120149 0)
(10.0691 0.115053 0)
(10.0579 0.123565 0)
(10.029 0.149781 0)
(9.98117 0.190674 0)
(9.91819 0.241066 0)
(9.84628 0.293429 0)
(9.77482 0.345442 0)
(9.71315 0.393319 0)
(9.66641 0.438099 0)
(10.0346 0.023199 0)
(10.1864 0.105797 0)
(10.1646 0.165823 0)
(10.0785 0.130603 0)
(10.0442 0.0715202 0)
(10.0604 0.0284305 0)
(10.1006 0.0100213 0)
(10.1425 0.0193268 0)
(10.1656 0.0508798 0)
(10.1586 0.09383 0)
(10.123 0.139541 0)
(10.0691 0.183406 0)
(10.0102 0.223507 0)
(9.95857 0.260246 0)
(9.92234 0.295656 0)
(9.90072 0.332877 0)
(9.89459 0.373773 0)
(9.89191 0.420346 0)
(10.1981 0.0910702 0)
(10.0373 0.0912313 0)
(10.061 0.109572 0)
(10.1914 0.11112 0)
(10.2881 0.111952 0)
(10.2554 0.11417 0)
(10.1034 0.112013 0)
(9.91556 0.10881 0)
(9.77495 0.111931 0)
(9.72205 0.126235 0)
(9.7513 0.153612 0)
(9.82955 0.19258 0)
(9.91754 0.23766 0)
(9.98591 0.284232 0)
(10.0187 0.328142 0)
(10.0158 0.36928 0)
(9.98686 0.408379 0)
(9.94522 0.446711 0)
(10.0967 0.089578 0)
(10.127 0.178193 0)
(10.0731 0.108396 0)
(10.0487 0.0356465 0)
(10.0883 0.0369836 0)
(10.1342 0.0962036 0)
(10.1395 0.156156 0)
(10.1048 0.176284 0)
(10.0521 0.154763 0)
(10.0047 0.118115 0)
(9.97815 0.0957609 0)
(9.97829 0.103541 0)
(10.0018 0.14204 0)
(10.0395 0.202634 0)
(10.0822 0.274181 0)
(10.1177 0.345372 0)
(10.145 0.4108 0)
(10.1553 0.465804 0)
(9.89086 0.130527 0)
(9.98576 0.139736 0)
(10.0659 0.134707 0)
(9.98728 0.110678 0)
(9.88856 0.0910693 0)
(9.87247 0.0978691 0)
(9.93146 0.121323 0)
(10.0067 0.140739 0)
(10.05 0.14898 0)
(10.0523 0.15169 0)
(10.0313 0.156517 0)
(10.0083 0.169097 0)
(9.99532 0.192997 0)
(9.99581 0.229245 0)
(10.0051 0.27639 0)
(10.0202 0.330302 0)
(10.0321 0.387335 0)
(10.0473 0.444537 0)
(10.0928 0.190694 0)
(10.0109 0.112243 0)
(9.97008 0.110359 0)
(9.98559 0.109516 0)
(10.0248 0.0793568 0)
(10.0874 0.0683349 0)
(10.1613 0.0923569 0)
(10.2124 0.126332 0)
(10.2127 0.14481 0)
(10.1646 0.144337 0)
(10.0927 0.137747 0)
(10.0222 0.141073 0)
(9.96893 0.16374 0)
(9.93862 0.2067 0)
(9.92981 0.263807 0)
(9.93772 0.327073 0)
(9.95539 0.388917 0)
(9.9796 0.445546 0)
(10.1477 0.176058 0)
(10.175 0.207524 0)
(10.1662 0.146587 0)
(10.1537 0.0908147 0)
(10.126 0.0525694 0)
(10.0993 0.0378614 0)
(10.0868 0.0564995 0)
(10.0827 0.103503 0)
(10.0715 0.158682 0)
(10.0491 0.202114 0)
(10.0247 0.224911 0)
(10.0072 0.232221 0)
(10.0006 0.236811 0)
(10.0035 0.249508 0)
(10.0133 0.275259 0)
(10.0266 0.313289 0)
(10.0422 0.35969 0)
(10.0579 0.412101 0)
(9.78534 0.0515774 0)
(9.93878 0.0403529 0)
(10.0002 0.131575 0)
(10.0195 0.135384 0)
(10.0015 0.102862 0)
(9.96783 0.0894938 0)
(9.93176 0.113628 0)
(9.90465 0.154035 0)
(9.90094 0.182083 0)
(9.92875 0.184558 0)
(9.98313 0.16913 0)
(10.0491 0.155366 0)
(10.1102 0.160186 0)
(10.1565 0.19038 0)
(10.1812 0.240383 0)
(10.1883 0.300062 0)
(10.1789 0.359565 0)
(10.1661 0.410953 0)
(10.094 0.00560868 0)
(9.95978 0.083146 0)
(9.91753 0.100037 0)
(9.9255 0.0965167 0)
(9.91806 0.0919524 0)
(9.90585 0.0915826 0)
(9.92448 0.0978071 0)
(9.97477 0.108648 0)
(10.0307 0.116572 0)
(10.066 0.116384 0)
(10.0715 0.112021 0)
(10.0544 0.115343 0)
(10.029 0.136926 0)
(10.007 0.181957 0)
(9.99203 0.245265 0)
(9.98467 0.317762 0)
(9.9804 0.388766 0)
(9.98435 0.449143 0)
(9.93755 0.088073 0)
(9.94912 0.127419 0)
(9.9605 0.143116 0)
(9.97801 0.133842 0)
(9.98764 0.102905 0)
(9.99455 0.0649493 0)
(9.99994 0.0455582 0)
(10.0063 0.0647005 0)
(10.015 0.115663 0)
(10.0241 0.171745 0)
(10.029 0.210445 0)
(10.0268 0.228966 0)
(10.0181 0.238748 0)
(10.0066 0.255315 0)
(9.99813 0.283712 0)
(9.99669 0.321807 0)
(10.0072 0.359009 0)
(10.029 0.387621 0)
(9.76288 -0.0320268 0)
(9.80906 0.0153042 0)
(9.80002 0.0817962 0)
(9.83124 0.0877017 0)
(9.90191 0.0905208 0)
(9.95092 0.10189 0)
(9.95231 0.106757 0)
(9.92758 0.0998668 0)
(9.90875 0.0863529 0)
(9.91395 0.0746981 0)
(9.94435 0.0735134 0)
(9.99107 0.0899803 0)
(10.0418 0.12615 0)
(10.0892 0.177646 0)
(10.1308 0.235839 0)
(10.1674 0.290074 0)
(10.2004 0.333525 0)
(10.2291 0.361481 0)
(9.92239 -0.0380506 0)
(9.91046 0.0400593 0)
(9.96145 0.0600102 0)
(10.0396 0.0147093 0)
(10.1126 -0.0287924 0)
(10.156 -0.0140558 0)
(10.1761 0.0509654 0)
(10.1851 0.117819 0)
(10.186 0.149688 0)
(10.1794 0.144749 0)
(10.1658 0.122849 0)
(10.1464 0.105501 0)
(10.1247 0.104772 0)
(10.105 0.122838 0)
(10.0905 0.155168 0)
(10.084 0.195329 0)
(10.0852 0.236882 0)
(10.0969 0.276331 0)
(10.0829 0.1244 0)
(10.1402 -0.0062162 0)
(10.1934 -0.0882558 0)
(10.2246 -0.0937579 0)
(10.216 -0.0542364 0)
(10.1902 0.0111373 0)
(10.1807 0.0639307 0)
(10.1894 0.085657 0)
(10.2013 0.0885285 0)
(10.2072 0.0948832 0)
(10.2074 0.118235 0)
(10.2067 0.159369 0)
(10.2098 0.210091 0)
(10.2188 0.260706 0)
(10.2328 0.300664 0)
(10.2492 0.32385 0)
(10.2661 0.32703 0)
(10.2812 0.310694 0)
(10.315 -0.0151727 0)
(10.2129 -0.123021 0)
(10.1202 -0.0749365 0)
(10.0305 -0.00992096 0)
(9.98615 0.0169623 0)
(9.97727 0.0293543 0)
(9.9783 0.0506233 0)
(9.97937 0.0837547 0)
(9.97774 0.116983 0)
(9.97591 0.134724 0)
(9.97724 0.1298 0)
(9.98324 0.109464 0)
(9.99468 0.0888132 0)
(10.0125 0.0808685 0)
(10.037 0.0918071 0)
(10.067 0.118624 0)
(10.1004 0.155605 0)
(10.1353 0.194855 0)
(10.3414 0.0760432 0)
(10.205 0.226327 0)
(10.1239 0.163601 0)
(10.0578 0.0581618 0)
(10.0088 0.0120721 0)
(10.0061 0.0270115 0)
(10.0433 0.0623019 0)
(10.1008 0.0846618 0)
(10.1654 0.0915941 0)
(10.2251 0.0945864 0)
(10.2669 0.102053 0)
(10.2806 0.11668 0)
(10.2658 0.135908 0)
(10.2314 0.15461 0)
(10.1938 0.167558 0)
(10.1662 0.173296 0)
(10.1578 0.171692 0)
(10.1715 0.166504 0)
(9.96801 0.0223728 0)
(10.0466 0.126769 0)
(10.1146 0.139328 0)
(10.0394 0.101855 0)
(9.93682 0.0520069 0)
(9.90962 -0.00205404 0)
(9.95069 -0.0432766 0)
(10.0184 -0.0518603 0)
(10.0779 -0.0289207 0)
(10.1056 0.0130185 0)
(10.1005 0.0651244 0)
(10.0801 0.119183 0)
(10.0651 0.164596 0)
(10.0677 0.190687 0)
(10.0933 0.191609 0)
(10.1392 0.171554 0)
(10.201 0.136544 0)
(10.2699 0.101467 0)
(9.87168 0.094394 0)
(9.89528 0.0934145 0)
(9.92042 0.174207 0)
(9.93663 0.184967 0)
(9.97133 0.110512 0)
(10.0081 0.00400455 0)
(10.0304 -0.0691567 0)
(10.0388 -0.073456 0)
(10.0416 -0.0224144 0)
(10.052 0.0502405 0)
(10.08 0.114142 0)
(10.1261 0.150849 0)
(10.1857 0.154324 0)
(10.254 0.128128 0)
(10.3228 0.0826228 0)
(10.3843 0.0319578 0)
(10.432 -0.0141297 0)
(10.4618 -0.0440576 0)
(10.0291 -0.087389 0)
(10.0119 0.0653216 0)
(10.0316 0.13852 0)
(10.0921 0.0974563 0)
(10.1937 0.0240537 0)
(10.2656 -0.0265662 0)
(10.2699 -0.0457108 0)
(10.2259 -0.044456 0)
(10.1723 -0.0299477 0)
(10.1379 -0.00862807 0)
(10.1332 0.012352 0)
(10.155 0.0253059 0)
(10.1919 0.0298311 0)
(10.2316 0.0278784 0)
(10.2639 0.0224548 0)
(10.2847 0.0176781 0)
(10.2943 0.0160808 0)
(10.2987 0.0195685 0)
(9.97512 -0.0147641 0)
(9.8955 0.0639277 0)
(9.92999 0.11349 0)
(9.97361 0.0572138 0)
(9.98604 -0.0345642 0)
(9.98632 -0.0781271 0)
(10.0122 -0.0611599 0)
(10.0747 -0.0129021 0)
(10.1603 0.0341783 0)
(10.2517 0.0624875 0)
(10.3325 0.0724273 0)
(10.3883 0.071543 0)
(10.4126 0.061028 0)
(10.4065 0.0436999 0)
(10.3806 0.0221839 0)
(10.3491 9.79215e-05 0)
(10.3205 -0.0207613 0)
(10.3018 -0.0366979 0)
(9.86242 -0.108522 0)
(9.84252 0.0460603 0)
(9.95597 0.0908864 0)
(10.0405 0.0745624 0)
(10.059 0.0326375 0)
(10.0599 -0.0248637 0)
(10.078 -0.0802547 0)
(10.1063 -0.118015 0)
(10.1223 -0.129577 0)
(10.1229 -0.111897 0)
(10.121 -0.0715953 0)
(10.1229 -0.0209283 0)
(10.1291 0.0260465 0)
(10.1422 0.0582128 0)
(10.161 0.0707978 0)
(10.1824 0.0666219 0)
(10.2037 0.0513893 0)
(10.2228 0.0340462 0)
(9.68361 -0.0631909 0)
(9.65293 -0.00563564 0)
(9.75819 0.0130442 0)
(9.91246 0.0141346 0)
(10.0614 -0.046604 0)
(10.1452 -0.112356 0)
(10.1589 -0.119583 0)
(10.1286 -0.0742375 0)
(10.0805 -0.0150682 0)
(10.0399 0.0286828 0)
(10.0255 0.0487345 0)
(10.0428 0.0484267 0)
(10.0841 0.0382403 0)
(10.1362 0.0220302 0)
(10.1885 0.00111902 0)
(10.2341 -0.0210676 0)
(10.2693 -0.0408725 0)
(10.2912 -0.0537199 0)
(10.1825 0.0371694 0)
(10.1558 -0.017526 0)
(10.1663 -0.0349297 0)
(10.2427 -0.0453845 0)
(10.2923 -0.056996 0)
(10.2462 -0.0575154 0)
(10.1429 -0.053567 0)
(10.0507 -0.0520144 0)
(10.0079 -0.0536627 0)
(10.0221 -0.0554989 0)
(10.0821 -0.0528311 0)
(10.1658 -0.0419367 0)
(10.2486 -0.0268044 0)
(10.3135 -0.0133956 0)
(10.3525 -0.00572194 0)
(10.3663 -0.00443264 0)
(10.3607 -0.00754866 0)
(10.3433 -0.0117272 0)
(9.94531 0.0286464 0)
(9.98029 -0.00647873 0)
(10.0359 -0.0372578 0)
(10.1246 -0.0476429 0)
(10.1727 -0.0656355 0)
(10.1598 -0.0662591 0)
(10.1037 -0.0470086 0)
(10.04 -0.0258294 0)
(10.0024 -0.0184956 0)
(10.0062 -0.0273373 0)
(10.0433 -0.0429593 0)
(10.095 -0.0527182 0)
(10.1444 -0.0507322 0)
(10.1828 -0.0401791 0)
(10.208 -0.0280068 0)
(10.2228 -0.0193921 0)
(10.2299 -0.0159479 0)
(10.234 -0.017213 0)
(9.86218 -0.0671375 0)
(9.7487 -0.049561 0)
(9.57811 -0.0704336 0)
(9.36361 -0.0745531 0)
(9.13613 -0.0562481 0)
(8.95689 -0.0253627 0)
(8.8573 -0.0026288 0)
(8.81464 -0.00378155 0)
(8.76981 -0.0276278 0)
(8.67473 -0.0591529 0)
(8.52375 -0.0811824 0)
(8.34919 -0.0839736 0)
(8.19075 -0.0699801 0)
(8.07231 -0.0495845 0)
(7.99499 -0.0321227 0)
(7.94771 -0.0220018 0)
(7.91308 -0.0188621 0)
(7.88186 -0.0197799 0)
(-0.2914 0.67236 3.51191e-20)
(-0.697827 0.358623 -3.4794e-20)
(-0.918345 0.0730494 0)
(-0.978985 -0.132111 0)
(-0.80057 -0.357629 0)
(-0.473833 -0.530809 3.38546e-20)
(0.0358319 -0.662965 0)
(0.645316 -0.714298 0)
(1.29746 -0.716609 0)
(1.93773 -0.675499 0)
(2.54963 -0.602571 -3.22586e-20)
(3.1067 -0.508959 0)
(3.58633 -0.403955 0)
(3.97184 -0.293584 0)
(4.25607 -0.182148 0)
(4.43195 -0.0690107 -3.02099e-20)
(4.49597 0.0442886 0)
(4.44269 0.164313 0)
(4.26293 0.292153 0)
(3.97187 0.416092 0)
(3.55872 0.53514 0)
(3.04042 0.630589 0)
(2.43351 0.692694 0)
(1.71069 0.734332 -2.89514e-20)
(0.995992 0.507797 2.8775e-20)
(0.426296 0.0838699 -2.85604e-20)
(0.0730213 -0.0978882 -2.83403e-20)
(-0.128378 -0.0595965 0)
(-0.246168 -0.0382275 0)
(-0.257465 -0.116902 2.76683e-20)
(-0.00647092 -0.270424 2.74721e-20)
(0.425873 -0.392416 0)
(0.88438 -0.368556 0)
(1.36328 0.116651 2.6761e-20)
(1.71038 0.0723337 0)
(1.71449 -0.941968 0)
(1.68965 -1.3198 -2.60116e-20)
(1.58208 -0.485129 0)
(0.790383 0.592445 -2.55848e-20)
(-0.335307 0.914186 -5.08209e-20)
(-1.38937 0.915109 0)
(-2.40808 0.880068 0)
(-3.36981 0.826737 0)
(-4.26786 0.765237 0)
(-5.10032 0.701228 0)
(-5.86726 0.638446 -4.45223e-20)
(-6.57118 0.578656 -4.32686e-20)
(-7.21506 0.522814 -4.20292e-20)
(-7.80243 0.471035 0)
(-8.3367 0.423167 3.9646e-20)
(-8.82106 0.378861 0)
(-9.25838 0.337792 -3.74484e-20)
(-9.65111 0.299628 -3.64348e-20)
(-10.0014 0.263944 0)
(-10.3109 0.230242 0)
(-10.581 0.19823 0)
(-10.8125 0.167845 -3.30512e-20)
(-11.0066 0.139054 0)
(-11.1643 0.111826 0)
(-11.2866 0.0862108 0)
(-11.3746 0.0623052 0)
(-11.4295 0.0401275 0)
(-11.4524 0.0196931 0)
(-11.4454 0.00103536 0)
(-11.4138 -0.0154671 0)
(-11.3572 -0.0304724 2.98107e-20)
(-11.2781 -0.04382 0)
(-11.1783 -0.0558456 0)
(-11.0593 -0.0665204 -2.98337e-20)
(-10.9232 -0.0759775 -2.99136e-20)
(-10.7714 -0.0843176 0)
(-10.6056 -0.0915976 3.01453e-20)
(-10.4272 -0.0979534 -3.0287e-20)
(-10.2375 -0.103467 0)
(-10.0376 -0.108276 3.06021e-20)
(-9.82851 -0.112534 0)
(-9.61087 -0.116428 0)
(-9.385 -0.12019 -3.11158e-20)
(-9.15079 -0.124081 0)
(-8.90765 -0.128379 3.14706e-20)
(-8.65446 -0.133358 0)
(-8.38957 -0.13927 -3.18329e-20)
(-8.11086 -0.14632 -3.20172e-20)
(-7.81579 -0.154643 -3.22037e-20)
(-7.5015 -0.164307 -6.47841e-20)
(-7.16498 -0.175308 6.5163e-20)
(-6.80314 -0.187562 0)
(-6.41311 -0.200883 0)
(-5.99251 -0.214948 0)
(-5.53991 -0.22924 6.66218e-20)
(-5.05526 -0.242986 6.69334e-20)
(-4.54032 -0.255192 -6.71978e-20)
(-3.99899 -0.264733 0)
(-3.43767 -0.270471 6.75105e-20)
(-2.86486 -0.271629 6.75209e-20)
(-2.28969 -0.268253 6.74155e-20)
(-1.72003 -0.260722 0)
(-1.16227 -0.249872 0)
(-0.621433 -0.237182 0)
(-0.103585 -0.223309 6.58446e-20)
(0.386766 -0.210101 0)
(0.849135 -0.194303 0)
(1.27939 -0.17641 -6.3604e-20)
(1.67119 -0.156489 0)
(2.0195 -0.135294 0)
(2.32186 -0.114064 -6.10455e-20)
(2.57908 -0.0940097 0)
(2.79475 -0.0759968 0)
(2.97407 -0.0605379 5.84675e-20)
(3.12297 -0.0478903 5.76354e-20)
(3.24754 -0.0381026 0)
(3.3538 -0.0310116 -5.60245e-20)
(3.44747 -0.0262457 0)
(3.53348 -0.0232295 5.44845e-20)
(3.61539 -0.0212804 0)
(3.69517 -0.0197097 5.30089e-20)
(3.77313 -0.0179052 5.22922e-20)
(3.84828 -0.0155468 0)
(3.91904 -0.0126374 0)
(3.98381 -0.00919715 0)
(4.04104 -0.00539172 0)
(4.08987 -0.00176083 0)
(4.13041 0.00156744 0)
(4.16268 0.00495251 0)
(4.18678 0.00793948 4.69324e-20)
(4.20414 0.0102061 -4.63016e-20)
(4.21507 0.01306 0)
(4.21752 0.0174594 0)
(4.21031 0.0228723 0)
(4.19253 0.0281772 0)
(4.16436 0.0323848 -8.6506e-20)
(4.12707 0.0349357 0)
(4.08276 0.0356753 8.41524e-20)
(4.03392 0.0348653 -8.2992e-20)
(3.98295 0.0330453 0)
(3.93173 0.0308098 0)
(3.88145 0.0286298 0)
(3.83266 0.0268032 7.84536e-20)
(3.78539 0.0254817 7.73435e-20)
(3.7393 0.0247085 0)
(3.69389 0.0244337 7.515e-20)
(3.64862 0.0245159 7.40659e-20)
(3.60311 0.0247332 -7.29898e-20)
(3.55726 0.0248268 0)
(3.51131 0.0245701 0)
(3.46577 0.0238284 -6.9807e-20)
(3.42136 0.0225758 0)
(3.37885 0.0208868 0)
(3.33889 0.0189021 0)
(3.30193 0.0167808 0)
(3.26815 0.0146653 6.465e-20)
(3.23754 0.0126647 6.36402e-20)
(3.20993 0.0108493 0)
(3.18504 0.00925505 6.16409e-20)
(3.16255 0.0078915 0)
(3.14215 0.00675169 0)
(3.12353 0.00581817 5.86901e-20)
(3.10643 0.00506756 0)
(3.09056 0.00447283 5.67536e-20)
(3.07576 0.00400966 0)
(3.06177 0.00365948 0)
(3.04849 0.00341019 5.38931e-20)
(3.0356 0.00325232 0)
(3.02315 0.00316972 5.20153e-20)
(3.01062 0.00315524 0)
(2.99835 0.00318498 0)
(2.9854 0.00329489 0)
(2.97265 0.00344793 -4.833e-20)
(2.95824 0.00379937 0)
(2.94391 0.00416686 4.65244e-20)
(2.92629 0.00501237 0)
(2.90808 0.00564075 0)
(2.88451 0.00751203 0)
(2.85722 0.00829773 0)
(2.82436 0.0126568 0)
(2.77437 0.0130441 0)
(2.73114 0.0243008 0)
(2.61719 0.022141 -7.93059e-20)
(2.57865 0.0559195 0)
(2.25725 0.0458911 0)
(0.0280422 1.21382 -1.05362e-19)
(0.135203 0.86827 1.04573e-19)
(0.0946505 0.45155 0)
(0.353607 -0.0488896 -6.8582e-20)
(0.818456 -0.701158 0)
(1.42723 -1.27073 -3.37012e-20)
(2.09392 -1.66735 6.64912e-20)
(2.75714 -1.88358 6.57337e-20)
(3.37866 -1.94115 0)
(3.94607 -1.872 6.40642e-20)
(4.45012 -1.70978 3.20316e-20)
(4.88169 -1.48411 0)
(5.23609 -1.21879 0)
(5.51211 -0.929244 0)
(5.70945 -0.625886 0)
(5.83202 -0.317115 3.00853e-20)
(5.87704 -0.00426691 0)
(5.85769 0.300255 -5.83295e-20)
(5.75018 0.605655 0)
(5.5589 0.891243 0)
(5.27457 1.16933 5.75071e-20)
(4.91629 1.40898 0)
(4.4831 1.59133 -5.72084e-20)
(3.97235 1.72233 2.87357e-20)
(3.42654 1.66584 -2.85511e-20)
(2.86411 1.51441 2.83452e-20)
(2.27775 1.04227 2.81528e-20)
(1.71016 0.543034 0)
(1.48695 0.199391 0)
(1.34286 -0.267102 -2.75825e-20)
(1.35664 -0.945102 2.75046e-20)
(1.74943 -1.17521 0)
(2.01002 -1.35239 0)
(1.70528 -1.6809 -2.67467e-20)
(1.44294 -0.549896 0)
(0.282245 0.966417 0)
(-1.25773 1.61592 2.60414e-20)
(-2.36238 1.98143 0)
(-3.3205 2.24689 -2.49914e-20)
(-4.16197 2.27605 5.03146e-20)
(-4.93032 2.20146 0)
(-5.63775 2.07554 0)
(-6.29028 1.92639 9.40318e-20)
(-6.88427 1.76951 9.18733e-20)
(-7.42566 1.61436 8.96211e-20)
(-7.91752 1.4667 -4.30501e-20)
(-8.36493 1.32855 4.30533e-20)
(-8.77204 1.20094 1.24552e-19)
(-9.14246 1.08334 -8.04435e-20)
(-9.47947 0.974921 -3.9519e-20)
(-9.78543 0.874482 0)
(-10.0624 0.780876 3.73625e-20)
(-10.3118 0.693045 -3.57613e-20)
(-10.5345 0.609932 0)
(-10.7311 0.530605 0)
(-10.902 0.454389 0)
(-11.0474 0.380952 3.30265e-20)
(-11.1674 0.310177 0)
(-11.2618 0.242059 -6.31645e-20)
(-11.3306 0.176676 0)
(-11.3741 0.114253 -6.13698e-20)
(-11.3928 0.0551303 0)
(-11.3876 -0.000377288 6.01818e-20)
(-11.3591 -0.0520556 0)
(-11.305 -0.0992939 -5.95357e-20)
(-11.2288 -0.142308 2.95767e-20)
(-11.1314 -0.18107 0)
(-11.0144 -0.21581 5.93936e-20)
(-10.8798 -0.246689 2.98371e-20)
(-10.7291 -0.273935 2.99169e-20)
(-10.5641 -0.29782 0)
(-10.3862 -0.3186 3.00402e-20)
(-10.1968 -0.336593 3.02903e-20)
(-9.99715 -0.352128 0)
(-9.78837 -0.365603 -3.06054e-20)
(-9.57124 -0.377496 6.14681e-20)
(-9.34631 -0.388382 0)
(-9.11375 -0.398947 3.1119e-20)
(-8.87326 -0.409964 0)
(-8.62408 -0.422258 -9.43383e-20)
(-8.36493 -0.436643 0)
(-8.09402 -0.453862 9.54137e-20)
(-7.80913 -0.474529 3.20191e-20)
(-7.50768 -0.499069 -3.21002e-20)
(-7.18694 -0.5277 -6.45611e-20)
(-6.84402 -0.560438 6.49228e-20)
(-6.47612 -0.597064 0)
(-6.0806 -0.637038 0)
(-5.6553 -0.679391 0)
(-5.19889 -0.722555 -1.99539e-19)
(-4.71134 -0.764176 -6.69201e-20)
(-4.1944 -0.801204 6.71818e-20)
(-3.65198 -0.830259 0)
(-3.0907 -0.847923 6.72331e-20)
(-2.51986 -0.851593 -6.75004e-20)
(-1.94886 -0.841422 -6.73952e-20)
(-1.38559 -0.818561 0)
(-0.83597 -0.785048 0)
(-0.302739 -0.744669 0)
(0.207963 -0.705161 -6.57998e-20)
(0.694672 -0.662745 0)
(1.15921 -0.615351 1.2851e-19)
(1.59393 -0.561293 1.90474e-19)
(1.99139 -0.500349 -1.25295e-19)
(2.34471 -0.43541 0)
(2.64977 -0.371205 -6.09058e-20)
(2.90646 -0.312097 0)
(3.11832 -0.260641 -1.18487e-19)
(3.29129 -0.217533 5.83749e-20)
(3.43258 -0.182497 5.75542e-20)
(3.54978 -0.155148 0)
(3.65007 -0.135173 1.67957e-19)
(3.73981 -0.121923 -1.10409e-19)
(3.82428 -0.114099 -5.44612e-20)
(3.90735 -0.109843 0)
(3.99124 -0.107101 -5.29864e-20)
(4.07641 -0.10408 -1.56788e-19)
(4.1621 -0.0996407 0)
(4.24677 -0.0933726 -1.01727e-19)
(4.3285 -0.0853617 -1.00362e-19)
(4.40581 -0.0760778 -9.90164e-20)
(4.47769 -0.0662852 0)
(4.54315 -0.0565583 0)
(4.60222 -0.047198 0)
(4.65602 -0.0387045 4.68984e-20)
(4.70451 -0.0311436 4.62752e-20)
(4.74803 -0.0235259 0)
(4.78901 -0.0151912 9.00603e-20)
(4.82801 -0.00636509 8.88388e-20)
(4.86408 0.00279306 0)
(4.89558 0.0119531 8.64372e-20)
(4.92084 0.0202799 1.70489e-19)
(4.93848 0.0271017 -8.40736e-20)
(4.94802 0.0320262 -8.29012e-20)
(4.95005 0.0350018 0)
(4.94588 0.0362931 0)
(4.93723 0.0363386 0)
(4.92576 0.0356268 -7.83616e-20)
(4.9129 0.0346005 7.72477e-20)
(4.8997 0.0335911 1.52295e-19)
(4.88684 0.032786 -7.5056e-20)
(4.87474 0.0322269 7.39691e-20)
(4.86364 0.0318392 7.28948e-20)
(4.85365 0.0314766 0)
(4.84488 0.0309637 0)
(4.83741 0.030141 -6.97097e-20)
(4.83128 0.0289237 0)
(4.8265 0.0273205 0)
(4.82303 0.0254248 1.33188e-19)
(4.82073 0.0233763 0)
(4.81939 0.0213144 6.45547e-20)
(4.81873 0.0193484 -6.35441e-20)
(4.81844 0.0175468 0)
(4.8182 0.0159394 6.15477e-20)
(4.81776 0.0145275 0)
(4.81695 0.0132965 0)
(4.81564 0.0122261 -5.85991e-20)
(4.81381 0.0112968 1.15259e-19)
(4.81143 0.010493 -5.66655e-20)
(4.80857 0.00980127 0)
(4.80524 0.00921765 0)
(4.80153 0.00873429 5.38101e-20)
(4.7974 0.00836546 0)
(4.79295 0.00809171 5.19353e-20)
(4.78806 0.00795713 0)
(4.78283 0.00789377 0)
(4.77701 0.00804587 0)
(4.77071 0.0082188 4.82571e-20)
(4.76351 0.00885083 0)
(4.75543 0.00936563 -4.64548e-20)
(4.7461 0.0109805 0)
(4.7347 0.0119437 0)
(4.72215 0.01562 8.76019e-20)
(4.7038 0.0169668 -8.58659e-20)
(4.68697 0.0253289 0)
(4.65256 0.0266066 0)
(4.63219 0.0467306 0)
(4.55704 0.0472065 2.37478e-19)
(4.54304 0.100249 0)
(4.36017 0.103712 -1.51932e-19)
(0.0665807 0.54623 -7.73286e-23)
(0.190197 0.479645 -1.39538e-19)
(0.661299 -0.311894 0)
(1.40468 -1.39307 1.36503e-19)
(2.209 -2.31834 0)
(2.95571 -2.9412 0)
(3.59657 -3.26382 -6.55429e-22)
(4.12707 -3.33372 -6.53505e-20)
(4.55998 -3.20867 -6.35613e-20)
(4.91295 -2.94856 -6.38047e-20)
(5.19731 -2.60323 0)
(5.4238 -2.20989 0)
(5.60221 -1.79143 6.01329e-20)
(5.73813 -1.36137 1.18788e-19)
(5.83392 -0.926821 -1.17464e-19)
(5.88714 -0.490923 0)
(5.89619 -0.0585294 -1.15358e-19)
(5.85502 0.36911 5.83063e-20)
(5.77264 0.78122 0)
(5.65119 1.18432 -1.133e-19)
(5.48065 1.5724 -5.7422e-20)
(5.26949 1.92178 1.12709e-19)
(4.98306 2.24094 5.70655e-20)
(4.67687 2.4151 0)
(4.25357 2.52901 -1.1248e-19)
(3.83861 2.31322 -1.12467e-19)
(3.30979 2.05935 0)
(2.84606 1.4483 -1.12246e-19)
(2.35453 0.498207 0)
(2.09066 0.301975 -1.11367e-19)
(2.16245 -0.646972 -5.47852e-20)
(1.79701 -1.63752 0)
(0.869182 -0.109663 0)
(-0.76463 1.55106 0)
(-1.97043 2.28456 0)
(-2.96723 2.83613 0)
(-3.81577 3.04721 0)
(-4.52307 3.22185 -1.00736e-19)
(-5.10422 3.28348 1.49232e-19)
(-5.57659 3.21987 0)
(-5.99473 3.07114 0)
(-6.3734 2.87401 0)
(-6.73212 2.65735 -1.79254e-21)
(-7.07611 2.43893 -9.17392e-20)
(-7.40891 2.22805 -1.77496e-19)
(-7.732 2.03009 1.73109e-19)
(-8.04414 1.84635 8.36842e-20)
(-8.34545 1.6769 -8.27171e-20)
(-8.63405 1.52057 1.06954e-21)
(-8.90936 1.37576 -7.7311e-20)
(-9.16979 1.24078 0)
(-9.41435 1.11385 -7.33013e-20)
(-9.64141 0.993391 7.75099e-22)
(-9.84951 0.877937 0)
(-10.0371 0.766348 0)
(-10.2027 0.657817 6.64107e-20)
(-10.3446 0.551826 0)
(-10.4614 0.448105 0)
(-10.5524 0.346727 -6.20254e-20)
(-10.6167 0.248116 -1.23372e-19)
(-10.654 0.152845 6.14522e-20)
(-10.6642 0.0614999 0)
(-10.6482 -0.0254624 -6.02623e-20)
(-10.6066 -0.106841 0)
(-10.541 -0.18241 -5.87959e-20)
(-10.4534 -0.251416 -5.9465e-20)
(-10.3457 -0.313849 1.18194e-19)
(-10.2199 -0.36964 5.88963e-20)
(-10.0778 -0.419059 0)
(-9.92134 -0.462458 -1.19091e-19)
(-9.75219 -0.500251 0)
(-9.57189 -0.532956 -1.80432e-19)
(-9.38175 -0.561096 -1.20801e-19)
(-9.18287 -0.585281 -1.21457e-19)
(-8.97608 -0.606203 1.22132e-19)
(-8.76196 -0.62469 -1.84347e-19)
(-8.54074 -0.64174 0)
(-8.31228 -0.658521 0)
(-8.07598 -0.67635 1.24895e-19)
(-7.8308 -0.696621 1.88508e-19)
(-7.57525 -0.720688 0)
(-7.30745 -0.749743 -6.36306e-20)
(-7.0252 -0.784729 0)
(-6.72619 -0.826236 1.92742e-19)
(-6.40809 -0.87446 3.37721e-22)
(-6.06868 -0.929246 -3.59669e-22)
(-5.70571 -0.990106 -1.30518e-19)
(-5.31706 -1.05607 0)
(-4.90076 -1.12552 1.31892e-19)
(-4.4552 -1.19594 4.45112e-22)
(-3.97991 -1.26358 0)
(-3.47645 -1.32347 0)
(-2.94886 -1.37011 0)
(-2.40466 -1.398 -1.34747e-19)
(-1.8561 -1.40232 0)
(-1.31525 -1.38386 0)
(-0.792 -1.34471 0)
(-0.292321 -1.28916 0)
(0.181133 -1.22754 0)
(0.634135 -1.16539 -1.30923e-19)
(1.07678 -1.09783 0)
(1.51091 -1.02313 -1.28363e-19)
(1.92837 -0.93639 -1.26798e-19)
(2.31625 -0.835443 1.25171e-19)
(2.66432 -0.723932 0)
(2.96743 -0.61026 1.21802e-19)
(3.22452 -0.503112 0)
(3.43689 -0.408623 1.18405e-19)
(3.60645 -0.330163 -1.16734e-19)
(3.73624 -0.268759 -3.45103e-19)
(3.83241 -0.223581 0)
(3.90443 -0.192771 -3.35598e-19)
(3.96275 -0.174021 -1.10253e-19)
(4.01609 -0.164574 0)
(4.07009 -0.161109 -2.14658e-19)
(4.12731 -0.16007 -2.11762e-19)
(4.188 -0.158414 3.13412e-19)
(4.25108 -0.154221 0)
(4.315 -0.146727 1.01709e-19)
(4.37826 -0.136127 1.00348e-19)
(4.43962 -0.123317 2.96971e-19)
(4.49805 -0.109365 0)
(4.55279 -0.0952506 0)
(4.60366 -0.0820107 0)
(4.65102 -0.0702201 9.37736e-20)
(4.69559 -0.0596789 0)
(4.73828 -0.0500041 0)
(4.77986 -0.0406124 -9.00584e-20)
(4.82074 -0.0306642 -8.8838e-20)
(4.86085 -0.0194499 0)
(4.89892 -0.00705097 0)
(4.93262 0.00559209 -1.7049e-19)
(4.95959 0.0173595 0)
(4.97808 0.0271866 1.65805e-19)
(4.98767 0.0344482 1.63489e-19)
(4.98937 0.0390601 0)
(4.98519 0.0413735 0)
(4.97746 0.0419678 -1.56703e-19)
(4.96829 0.0414577 -4.68659e-24)
(4.95926 0.0403724 -4.21447e-24)
(4.95136 0.0390873 0)
(4.9451 0.0377897 -2.95851e-19)
(4.94072 0.0364878 0)
(4.93824 0.0350623 0)
(4.93764 0.0333335 0)
(4.93885 0.0311347 1.39404e-19)
(4.9418 0.0284086 0)
(4.94641 0.0252492 -2.70467e-19)
(4.95257 0.021859 -1.3317e-19)
(4.96008 0.0184887 0)
(4.96868 0.0153757 -1.29089e-19)
(4.97802 0.0126919 0)
(4.98771 0.010524 0)
(4.99736 0.0088786 -3.6922e-19)
(5.00662 0.00770204 2.4219e-19)
(5.01522 0.00690691 0)
(5.02299 0.00639912 2.34353e-19)
(5.02985 0.00609166 -1.15235e-19)
(5.03579 0.00591985 0)
(5.04085 0.00583408 0)
(5.04512 0.00581872 0)
(5.04864 0.00585516 -3.22785e-19)
(5.05154 0.00597262 0)
(5.05381 0.0061442 -1.03846e-19)
(5.05556 0.00644952 0)
(5.05668 0.00679804 0)
(5.0573 0.00740231 0)
(5.05708 0.00800963 0)
(5.05639 0.00919273 0)
(5.05435 0.0102497 0)
(5.052 0.0126461 -1.82189e-19)
(5.0472 0.0144045 0)
(5.04266 0.0192701 -8.7577e-20)
(5.03315 0.0219949 2.57499e-19)
(5.02572 0.0321733 0)
(5.00759 0.0364272 0)
(4.99677 0.0591081 -1.61453e-19)
(4.96273 0.0674558 -1.58237e-19)
(4.95071 0.121784 1.5487e-19)
(4.89414 0.146992 1.51862e-19)
(-0.215396 0.486104 2.11063e-19)
(0.394631 -0.590933 2.09095e-19)
(1.3501 -2.26891 1.37389e-19)
(2.26572 -3.45632 6.72852e-20)
(3.01126 -4.10651 0)
(3.56052 -4.34163 -1.30835e-19)
(3.93725 -4.28248 6.35193e-20)
(4.18173 -4.01614 0)
(4.32989 -3.61702 6.35645e-20)
(4.41882 -3.15282 0)
(4.48312 -2.6726 -1.2165e-19)
(4.54559 -2.199 0)
(4.61259 -1.73558 -6.02846e-20)
(4.67783 -1.27819 -1.19117e-19)
(4.72841 -0.820909 1.17812e-19)
(4.75456 -0.362496 0)
(4.7423 0.0975688 1.15619e-19)
(4.69664 0.558367 0)
(4.63126 1.01427 0)
(4.54998 1.46154 1.13543e-19)
(4.46616 1.8878 0)
(4.3578 2.31061 -1.57477e-21)
(4.22854 2.65163 0)
(4.01445 2.9746 0)
(3.78327 3.10074 9.19124e-22)
(3.43569 3.04302 1.12473e-19)
(2.98541 2.79788 1.1219e-19)
(2.65639 2.14739 1.12202e-19)
(1.8431 1.63889 0)
(1.74495 -0.0710824 2.23411e-19)
(1.36289 -0.410254 0)
(-0.284955 1.29109 1.09959e-19)
(-1.65611 2.46252 0)
(-2.76989 3.14115 0)
(-3.58028 3.58541 -1.0453e-19)
(-4.25024 3.85875 0)
(-4.73152 3.95387 1.00997e-19)
(-5.13963 3.95933 1.17388e-21)
(-5.45203 3.87955 -1.96535e-19)
(-5.7312 3.73056 1.91758e-19)
(-5.98367 3.53947 0)
(-6.23076 3.32322 0)
(-6.47655 3.09857 8.88127e-20)
(-6.72759 2.87461 0)
(-6.98129 2.65756 8.79816e-20)
(-7.2384 2.45062 -8.58694e-20)
(-7.49509 2.25509 -8.37316e-20)
(-7.75048 2.071 0)
(-8.00163 1.89764 7.94659e-20)
(-8.24709 1.73371 7.7377e-20)
(-8.48445 1.57768 -1.48699e-19)
(-8.7117 1.42779 7.3373e-20)
(-8.92639 1.2823 7.14894e-20)
(-9.12608 1.13963 0)
(-9.30805 0.998608 0)
(-9.46963 0.858481 -6.64876e-20)
(-9.60836 0.718846 0)
(-9.72195 0.579801 0)
(-9.80831 0.442047 1.25432e-19)
(-9.86592 0.306669 1.23541e-19)
(-9.89437 0.174917 0)
(-9.8943 0.0482723 0)
(-9.86543 -0.0715748 0)
(-9.80874 -0.184019 0)
(-9.72695 -0.287951 1.18566e-19)
(-9.62213 -0.382675 -1.17407e-19)
(-9.49696 -0.467739 -1.18349e-19)
(-9.35406 -0.543153 -2.36297e-19)
(-9.19599 -0.609256 0)
(-9.02512 -0.666657 5.48602e-22)
(-8.84352 -0.716139 0)
(-8.65293 -0.758576 1.20331e-19)
(-8.45467 -0.794905 3.70452e-22)
(-8.2497 -0.82612 1.21609e-19)
(-8.03858 -0.853302 -1.22283e-19)
(-7.82147 -0.877677 3.01618e-22)
(-7.59819 -0.900657 0)
(-7.36817 -0.923852 -1.2405e-19)
(-7.13054 -0.94902 -1.2504e-19)
(-6.88409 -0.977975 -2.51143e-19)
(-6.62739 -1.01242 0)
(-6.35885 -1.05374 1.26767e-19)
(-6.07685 -1.10292 0)
(-5.77976 -1.16039 -2.56651e-19)
(-5.46617 -1.22603 1.29226e-19)
(-5.13477 -1.29935 -1.29931e-19)
(-4.78396 -1.37976 1.30631e-19)
(-4.41158 -1.46631 2.61657e-19)
(-4.01486 -1.55745 -1.31987e-19)
(-3.59036 -1.65065 1.32623e-19)
(-3.13464 -1.74152 0)
(-2.64623 -1.82287 -2.66287e-19)
(-2.12703 -1.88588 0)
(-1.58328 -1.92122 -2.67703e-19)
(-1.03061 -1.91864 2.67932e-19)
(-0.488648 -1.87874 2.67708e-19)
(0.0202032 -1.80727 -2.66863e-19)
(0.474394 -1.71974 -2.653e-19)
(0.867669 -1.63461 0)
(1.21521 -1.55818 -1.29948e-19)
(1.54834 -1.48656 0)
(1.89869 -1.40449 0)
(2.27068 -1.298 -2.52051e-19)
(2.63495 -1.16601 0)
(2.9589 -1.01825 0)