/*--------------------------------*- C++ -*----------------------------------*\
  =========                 |
  \\      /  F ield         | OpenFOAM: The Open Source CFD Toolbox
   \\    /   O peration     | Website:  https://openfoam.org
    \\  /    A nd           | Version:  9
     \\/     M anipulation  |
\*---------------------------------------------------------------------------*/
FoamFile
{
    format      ascii;
    class       volSymmTensorField;
    location    "0.031";
    object      UPrime2Mean;
}
// * * * * * * * * * * * * * * * * * * * * * * * * * * * * * * * * * * * * * //

dimensions      [0 2 -2 0 0 0 0];

internalField   nonuniform List<symmTensor> 
12225
(
(-48.33 -0.226012 0 0.00127027 0 0)
(-45.4638 -0.299801 0 -0.000923031 0 0)
(-42.6117 -0.279904 0 -0.00112187 0 0)
(-39.78 -0.26484 0 -0.00120633 0 0)
(-37.0494 -0.256247 0 -0.00130661 0 0)
(-34.4736 -0.246282 0 -0.00135058 0 0)
(-32.0322 -0.235988 0 -0.00136459 0 0)
(-29.7267 -0.225338 0 -0.00137026 0 0)
(-27.4929 -0.218727 0 -0.00139125 0 0)
(-25.37 -0.210968 0 -0.00143233 0 0)
(-23.2497 -0.211016 0 -0.00148603 0 0)
(-21.2532 -0.204978 0 -0.00159593 0 0)
(-19.154 -0.217844 0 -0.00165827 0 0)
(-17.2199 -0.211022 0 -0.00194001 0 0)
(-14.9841 -0.254203 0 -0.00183011 0 0)
(-12.9899 -0.235939 0 -0.0025554 0 0)
(-10.3542 -0.365514 0 -0.000608214 0 0)
(-8.00892 -0.327955 0 -0.00454702 0 0)
(-50.1067 -0.248434 0 0.00159071 0 0)
(-50.6868 -0.37219 0 -0.00141151 0 0)
(-51.046 -0.374191 0 -0.00190338 0 0)
(-51.1449 -0.38947 0 -0.00229673 0 0)
(-51.0515 -0.414679 0 -0.00278468 0 0)
(-50.8251 -0.438175 0 -0.00322814 0 0)
(-50.4746 -0.458099 0 -0.00361993 0 0)
(-50.0222 -0.483645 0 -0.00407979 0 0)
(-49.4493 -0.509924 0 -0.00461053 0 0)
(-48.7837 -0.545756 0 -0.00523175 0 0)
(-47.9732 -0.577892 0 -0.00591065 0 0)
(-47.0734 -0.626262 0 -0.00665223 0 0)
(-45.9772 -0.669521 0 -0.00763958 0 0)
(-44.8014 -0.745286 0 -0.00863632 0 0)
(-43.3269 -0.822614 0 -0.0106046 0 0)
(-41.7756 -0.959436 0 -0.0120291 0 0)
(-39.7543 -1.14488 0 -0.01641 0 0)
(-37.6413 -1.45151 0 -0.0155536 0 0)
(-49.9827 -0.183057 0 0.00255681 0 0)
(-50.2586 -0.28596 0 3.02951e-05 0 0)
(-50.4462 -0.300485 0 -0.000720013 0 0)
(-50.5235 -0.319196 0 -0.00113319 0 0)
(-50.5475 -0.354357 0 -0.00165948 0 0)
(-50.5466 -0.390296 0 -0.00219349 0 0)
(-50.5109 -0.422935 0 -0.0026733 0 0)
(-50.4383 -0.455351 0 -0.0031743 0 0)
(-50.323 -0.493573 0 -0.00370859 0 0)
(-50.168 -0.537799 0 -0.00439799 0 0)
(-49.957 -0.594384 0 -0.00513149 0 0)
(-49.6854 -0.659359 0 -0.00619628 0 0)
(-49.3332 -0.746724 0 -0.00723266 0 0)
(-48.8952 -0.848472 0 -0.0090454 0 0)
(-48.362 -0.99738 0 -0.0106969 0 0)
(-47.7245 -1.18296 0 -0.0138989 0 0)
(-47.0238 -1.47426 0 -0.0163822 0 0)
(-46.2643 -1.87114 0 -0.0164336 0 0)
(-50.207 -0.133712 0 0.00304037 0 0)
(-50.3752 -0.294825 0 0.000192998 0 0)
(-50.497 -0.334565 0 -0.000867502 0 0)
(-50.5322 -0.353781 0 -0.00133446 0 0)
(-50.5133 -0.384373 0 -0.00186739 0 0)
(-50.4773 -0.422064 0 -0.00246129 0 0)
(-50.4267 -0.460824 0 -0.00306086 0 0)
(-50.3462 -0.503594 0 -0.00369704 0 0)
(-50.2243 -0.550756 0 -0.00441553 0 0)
(-50.056 -0.606885 0 -0.00523115 0 0)
(-49.842 -0.671457 0 -0.00620559 0 0)
(-49.5819 -0.751283 0 -0.00732881 0 0)
(-49.2752 -0.848008 0 -0.00874723 0 0)
(-48.9188 -0.972158 0 -0.0104165 0 0)
(-48.5137 -1.13281 0 -0.0125658 0 0)
(-48.0731 -1.34665 0 -0.014953 0 0)
(-47.6215 -1.63581 0 -0.0166824 0 0)
(-47.2306 -2.00961 0 -0.015689 0 0)
(-49.8965 -0.145693 0 0.00329902 0 0)
(-50.0318 -0.27449 0 0.000755653 0 0)
(-50.1835 -0.322654 0 -0.000544376 0 0)
(-50.2757 -0.344753 0 -0.00106769 0 0)
(-50.2914 -0.374274 0 -0.00153533 0 0)
(-50.2547 -0.411585 0 -0.00206943 0 0)
(-50.1839 -0.452196 0 -0.00262673 0 0)
(-50.0839 -0.497131 0 -0.00322802 0 0)
(-49.9511 -0.549721 0 -0.00389763 0 0)
(-49.7828 -0.611934 0 -0.00469232 0 0)
(-49.5747 -0.686256 0 -0.0055917 0 0)
(-49.3279 -0.775351 0 -0.00665869 0 0)
(-49.0392 -0.884489 0 -0.00786831 0 0)
(-48.7149 -1.02087 0 -0.0092882 0 0)
(-48.3536 -1.1942 0 -0.0108737 0 0)
(-47.9812 -1.41841 0 -0.0121386 0 0)
(-47.6072 -1.69971 0 -0.0123775 0 0)
(-47.2975 -2.04611 0 -0.00803998 0 0)
(-50.0381 -0.106462 0 0.00470333 0 0)
(-50.1255 -0.23453 0 0.00188348 0 0)
(-50.2343 -0.304657 0 0.000206715 0 0)
(-50.3062 -0.341015 0 -0.000590091 0 0)
(-50.3089 -0.379005 0 -0.00126056 0 0)
(-50.2501 -0.42698 0 -0.00197221 0 0)
(-50.1499 -0.48051 0 -0.00271669 0 0)
(-50.0213 -0.538205 0 -0.00349826 0 0)
(-49.8654 -0.601544 0 -0.00432865 0 0)
(-49.6807 -0.673453 0 -0.00522603 0 0)
(-49.4625 -0.756798 0 -0.0061986 0 0)
(-49.2118 -0.85571 0 -0.00727154 0 0)
(-48.9258 -0.975131 0 -0.00843237 0 0)
(-48.6149 -1.12224 0 -0.00966977 0 0)
(-48.2794 -1.30418 0 -0.0107872 0 0)
(-47.9491 -1.5303 0 -0.0112915 0 0)
(-47.6266 -1.80174 0 -0.0100386 0 0)
(-47.3708 -2.12171 0 -0.00463866 0 0)
(-49.2845 -0.12277 0 0.00454822 0 0)
(-49.337 -0.235496 0 0.0023453 0 0)
(-49.4095 -0.298593 0 0.00069481 0 0)
(-49.4827 -0.341918 0 -0.000220556 0 0)
(-49.5179 -0.386062 0 -0.00087458 0 0)
(-49.502 -0.435254 0 -0.00150342 0 0)
(-49.4433 -0.48851 0 -0.0021617 0 0)
(-49.3515 -0.547004 0 -0.00284522 0 0)
(-49.2277 -0.613569 0 -0.00356621 0 0)
(-49.0719 -0.691724 0 -0.0043468 0 0)
(-48.8822 -0.783961 0 -0.00519253 0 0)
(-48.6631 -0.893598 0 -0.00607597 0 0)
(-48.4148 -1.02353 0 -0.00694151 0 0)
(-48.1493 -1.17979 0 -0.00765702 0 0)
(-47.8688 -1.36643 0 -0.00798973 0 0)
(-47.5987 -1.59112 0 -0.00733752 0 0)
(-47.3414 -1.85217 0 -0.00469554 0 0)
(-47.1403 -2.15257 0 0.00151403 0 0)
(-50.0034 -0.0861174 0 0.00567709 0 0)
(-50.0271 -0.219976 0 0.00316443 0 0)
(-50.049 -0.284686 0 0.00138436 0 0)
(-50.0795 -0.331961 0 0.000444612 0 0)
(-50.0838 -0.382444 0 -0.000274748 0 0)
(-50.043 -0.441484 0 -0.000994134 0 0)
(-49.9611 -0.509268 0 -0.00181775 0 0)
(-49.8463 -0.584043 0 -0.00274357 0 0)
(-49.7015 -0.665088 0 -0.00369846 0 0)
(-49.5291 -0.754372 0 -0.00462759 0 0)
(-49.3303 -0.85501 0 -0.00551271 0 0)
(-49.1097 -0.971426 0 -0.00633264 0 0)
(-48.8695 -1.10756 0 -0.00702652 0 0)
(-48.6171 -1.26897 0 -0.00742927 0 0)
(-48.3566 -1.45889 0 -0.00725453 0 0)
(-48.1016 -1.68186 0 -0.0059082 0 0)
(-47.8616 -1.93587 0 -0.00258106 0 0)
(-47.6569 -2.22052 0 0.00389116 0 0)
(-49.5578 -0.0950137 0 0.00509111 0 0)
(-49.5388 -0.205597 0 0.00268829 0 0)
(-49.5715 -0.284737 0 0.00107013 0 0)
(-49.6048 -0.345002 0 0.000137102 0 0)
(-49.5864 -0.399005 0 -0.000553777 0 0)
(-49.52 -0.456415 0 -0.00122523 0 0)
(-49.4357 -0.521778 0 -0.00192123 0 0)
(-49.3555 -0.596062 0 -0.00263207 0 0)
(-49.2801 -0.679937 0 -0.00333906 0 0)
(-49.1968 -0.775425 0 -0.0040258 0 0)
(-49.0894 -0.884597 0 -0.00466311 0 0)
(-48.9494 -1.01025 0 -0.00518337 0 0)
(-48.7756 -1.15482 0 -0.00547257 0 0)
(-48.5776 -1.32227 0 -0.00532241 0 0)
(-48.3658 -1.51463 0 -0.00441914 0 0)
(-48.1592 -1.73523 0 -0.00224363 0 0)
(-47.9684 -1.98165 0 0.00185029 0 0)
(-47.8152 -2.25373 0 0.00865103 0 0)
(-49.931 -0.132525 0 0.00551932 0 0)
(-49.9201 -0.185092 0 0.00345628 0 0)
(-49.9342 -0.266978 0 0.0018379 0 0)
(-49.966 -0.341693 0 0.000907579 0 0)
(-49.9732 -0.408971 0 0.000102134 0 0)
(-49.9358 -0.475734 0 -0.000642411 0 0)
(-49.8617 -0.545043 0 -0.00133186 0 0)
(-49.7662 -0.619948 0 -0.00199857 0 0)
(-49.6588 -0.704801 0 -0.00264127 0 0)
(-49.5414 -0.804414 0 -0.00327467 0 0)
(-49.4112 -0.921584 0 -0.00390111 0 0)
(-49.2659 -1.0579 0 -0.00442648 0 0)
(-49.105 -1.21353 0 -0.00465335 0 0)
(-48.9328 -1.38972 0 -0.00431148 0 0)
(-48.7547 -1.58651 0 -0.00307418 0 0)
(-48.5813 -1.80537 0 -0.000513352 0 0)
(-48.4221 -2.04424 0 0.00386365 0 0)
(-48.2885 -2.30256 0 0.0105285 0 0)
(-49.5887 -0.102058 0 0.00541488 0 0)
(-49.6881 -0.18536 0 0.00362641 0 0)
(-49.7184 -0.272526 0 0.00178185 0 0)
(-49.7365 -0.347238 0 0.000597701 0 0)
(-49.7629 -0.415273 0 -0.000167093 0 0)
(-49.7778 -0.485658 0 -0.000742689 0 0)
(-49.7609 -0.561937 0 -0.00128187 0 0)
(-49.7082 -0.645678 0 -0.00182717 0 0)
(-49.6276 -0.738938 0 -0.00234297 0 0)
(-49.5284 -0.844583 0 -0.00276854 0 0)
(-49.4169 -0.965015 0 -0.00303278 0 0)
(-49.2959 -1.10269 0 -0.00304964 0 0)
(-49.1689 -1.25884 0 -0.00267595 0 0)
(-49.0388 -1.43498 0 -0.00170376 0 0)
(-48.9123 -1.63062 0 0.000147464 0 0)
(-48.7937 -1.84631 0 0.0032435 0 0)
(-48.693 -2.0791 0 0.00796874 0 0)
(-48.6134 -2.32859 0 0.0146561 0 0)
(-50.0225 -0.0807312 0 0.0059177 0 0)
(-50.0657 -0.182206 0 0.00413535 0 0)
(-50.1012 -0.257352 0 0.00235594 0 0)
(-50.1323 -0.32929 0 0.00118391 0 0)
(-50.1498 -0.403085 0 0.000390054 0 0)
(-50.1394 -0.481364 0 -0.000249335 0 0)
(-50.0942 -0.564938 0 -0.000871499 0 0)
(-50.0186 -0.654908 0 -0.0014646 0 0)
(-49.9242 -0.753681 0 -0.00197072 0 0)
(-49.8219 -0.864587 0 -0.00232773 0 0)
(-49.7186 -0.990416 0 -0.0024773 0 0)
(-49.617 -1.13337 0 -0.00234758 0 0)
(-49.5197 -1.29384 0 -0.00179292 0 0)
(-49.427 -1.47221 0 -0.000596515 0 0)
(-49.3439 -1.66714 0 0.00149391 0 0)
(-49.2705 -1.87883 0 0.00478933 0 0)
(-49.216 -2.10431 0 0.0095668 0 0)
(-49.1782 -2.34415 0 0.0160114 0 0)
(-50.1549 -0.0835925 0 0.00723057 0 0)
(-50.1099 -0.178334 0 0.00472444 0 0)
(-50.0949 -0.257131 0 0.0024944 0 0)
(-50.093 -0.336642 0 0.00146842 0 0)
(-50.0872 -0.417734 0 0.000815008 0 0)
(-50.0712 -0.50198 0 0.000233064 0 0)
(-50.0412 -0.592048 0 -0.000351858 0 0)
(-49.9968 -0.688862 0 -0.000869862 0 0)
(-49.9409 -0.792611 0 -0.00122673 0 0)
(-49.878 -0.905068 0 -0.00135408 0 0)
(-49.811 -1.02907 0 -0.00118488 0 0)
(-49.7421 -1.16815 0 -0.00063581 0 0)
(-49.6736 -1.32393 0 0.000408923 0 0)
(-49.6088 -1.49763 0 0.00210129 0 0)
(-49.552 -1.68763 0 0.0046421 0 0)
(-49.5079 -1.89399 0 0.00826854 0 0)
(-49.4813 -2.11266 0 0.0131968 0 0)
(-49.4762 -2.34466 0 0.0195657 0 0)
(-50.1546 -0.107427 0 0.00920112 0 0)
(-50.2002 -0.177617 0 0.00679521 0 0)
(-50.2269 -0.261076 0 0.0049506 0 0)
(-50.254 -0.339202 0 0.00384268 0 0)
(-50.2778 -0.415763 0 0.00298894 0 0)
(-50.2957 -0.497265 0 0.00233822 0 0)
(-50.3066 -0.586123 0 0.00179887 0 0)
(-50.31 -0.68229 0 0.00136857 0 0)
(-50.3063 -0.786676 0 0.00110943 0 0)
(-50.2938 -0.902187 0 0.00110073 0 0)
(-50.2713 -1.03159 0 0.0014198 0 0)
(-50.2382 -1.1769 0 0.00213103 0 0)
(-50.1988 -1.33767 0 0.00333259 0 0)
(-50.1575 -1.51337 0 0.00519064 0 0)
(-50.1231 -1.70129 0 0.00786661 0 0)
(-50.1001 -1.90159 0 0.0115718 0 0)
(-50.0975 -2.11043 0 0.0164512 0 0)
(-50.1153 -2.33024 0 0.0225033 0 0)
(-49.8802 -0.0404494 0 0.00822955 0 0)
(-49.9625 -0.144549 0 0.0065779 0 0)
(-50.0295 -0.232792 0 0.0045289 0 0)
(-50.0738 -0.314708 0 0.00357531 0 0)
(-50.1114 -0.398102 0 0.0029755 0 0)
(-50.1508 -0.486933 0 0.00252573 0 0)
(-50.1846 -0.582038 0 0.00220833 0 0)
(-50.2046 -0.68425 0 0.00204366 0 0)
(-50.2103 -0.7951 0 0.00208143 0 0)
(-50.2071 -0.91687 0 0.00238328 0 0)
(-50.202 -1.05103 0 0.00301325 0 0)
(-50.2017 -1.19873 0 0.00404975 0 0)
(-50.2102 -1.3589 0 0.00560813 0 0)
(-50.2315 -1.53119 0 0.00783799 0 0)
(-50.2663 -1.71234 0 0.0108961 0 0)
(-50.3188 -1.90313 0 0.0149173 0 0)
(-50.3872 -2.09875 0 0.019997 0 0)
(-50.4799 -2.30337 0 0.0261241 0 0)
(-50.043 -0.0323164 0 0.01096 0 0)
(-50.0333 -0.16576 0 0.00962818 0 0)
(-50.0342 -0.245335 0 0.00739497 0 0)
(-50.0642 -0.312963 0 0.00594173 0 0)
(-50.1075 -0.389449 0 0.00505341 0 0)
(-50.149 -0.477782 0 0.00448273 0 0)
(-50.1843 -0.575999 0 0.00406303 0 0)
(-50.216 -0.682341 0 0.00382528 0 0)
(-50.247 -0.795074 0 0.00391034 0 0)
(-50.28 -0.914054 0 0.00441648 0 0)
(-50.3161 -1.04032 0 0.00537758 0 0)
(-50.3589 -1.17637 0 0.00681631 0 0)
(-50.4102 -1.32269 0 0.00878068 0 0)
(-50.4752 -1.48034 0 0.0113462 0 0)
(-50.5536 -1.64632 0 0.0145784 0 0)
(-50.6508 -1.82192 0 0.018612 0 0)
(-50.7622 -2.00154 0 0.0235197 0 0)
(-50.8954 -2.19041 0 0.0292357 0 0)
(-50.0321 -0.0524974 0 0.0110985 0 0)
(-49.9783 -0.113329 0 0.00985529 0 0)
(-49.9738 -0.185356 0 0.00676626 0 0)
(-50.039 -0.265947 0 0.0052579 0 0)
(-50.121 -0.34998 0 0.00487704 0 0)
(-50.1904 -0.436112 0 0.00499219 0 0)
(-50.2508 -0.527442 0 0.00522607 0 0)
(-50.3144 -0.627435 0 0.00550826 0 0)
(-50.3862 -0.737268 0 0.00593942 0 0)
(-50.4661 -0.857284 0 0.00664822 0 0)
(-50.5511 -0.986566 0 0.00772755 0 0)
(-50.6408 -1.12484 0 0.00924527 0 0)
(-50.734 -1.26973 0 0.0112732 0 0)
(-50.835 -1.42116 0 0.0139062 0 0)
(-50.9436 -1.57586 0 0.0171867 0 0)
(-51.0669 -1.73606 0 0.021209 0 0)
(-51.2005 -1.89693 0 0.0259827 0 0)
(-51.3559 -2.06465 0 0.0314671 0 0)
(-49.8018 -0.120551 0 0.0120135 0 0)
(-49.8843 -0.134567 0 0.0108836 0 0)
(-49.9624 -0.18608 0 0.00814863 0 0)
(-50.0245 -0.257194 0 0.00712092 0 0)
(-50.0696 -0.338224 0 0.00682715 0 0)
(-50.1134 -0.424888 0 0.00671522 0 0)
(-50.1649 -0.51446 0 0.00672012 0 0)
(-50.2239 -0.606315 0 0.00694337 0 0)
(-50.2897 -0.702191 0 0.00747459 0 0)
(-50.3657 -0.805333 0 0.00838467 0 0)
(-50.4548 -0.917105 0 0.00968977 0 0)
(-50.56 -1.03814 0 0.0113704 0 0)
(-50.6812 -1.16619 0 0.0134293 0 0)
(-50.8203 -1.30084 0 0.0159326 0 0)
(-50.975 -1.43831 0 0.0189026 0 0)
(-51.1488 -1.58011 0 0.0224658 0 0)
(-51.3359 -1.72072 0 0.0266306 0 0)
(-51.5438 -1.86568 0 0.0313489 0 0)
(-49.9895 0.0738336 0 0.0111556 0 0)
(-50.083 -0.0248448 0 0.0100231 0 0)
(-50.1618 -0.111534 0 0.00762253 0 0)
(-50.225 -0.192058 0 0.00646074 0 0)
(-50.2865 -0.273668 0 0.00612812 0 0)
(-50.3591 -0.357085 0 0.00625524 0 0)
(-50.4441 -0.440879 0 0.0066644 0 0)
(-50.5383 -0.526405 0 0.00728516 0 0)
(-50.6414 -0.615891 0 0.00811654 0 0)
(-50.7552 -0.710627 0 0.00919205 0 0)
(-50.8814 -0.809496 0 0.0105541 0 0)
(-51.0213 -0.911531 0 0.0122531 0 0)
(-51.1745 -1.01453 0 0.0143183 0 0)
(-51.3415 -1.11908 0 0.0167829 0 0)
(-51.5205 -1.22306 0 0.0196284 0 0)
(-51.7131 -1.3296 0 0.0229356 0 0)
(-51.9162 -1.43473 0 0.0266627 0 0)
(-52.1339 -1.54501 0 0.0308529 0 0)
(-49.8738 0.0253164 0 0.0117221 0 0)
(-49.7507 -0.0320267 0 0.0108364 0 0)
(-49.6971 -0.0988291 0 0.00707188 0 0)
(-49.7346 -0.160841 0 0.00556619 0 0)
(-49.8309 -0.222053 0 0.00537371 0 0)
(-49.9507 -0.286727 0 0.00561684 0 0)
(-50.0793 -0.354843 0 0.00600693 0 0)
(-50.2172 -0.425046 0 0.00650226 0 0)
(-50.3682 -0.496464 0 0.00714516 0 0)
(-50.5338 -0.569913 0 0.00799459 0 0)
(-50.7134 -0.646486 0 0.0090879 0 0)
(-50.9057 -0.727922 0 0.0104391 0 0)
(-51.1093 -0.81361 0 0.012038 0 0)
(-51.3239 -0.903578 0 0.0138941 0 0)
(-51.5479 -0.994605 0 0.0159965 0 0)
(-51.7815 -1.08711 0 0.0184313 0 0)
(-52.0224 -1.17658 0 0.0211727 0 0)
(-52.2724 -1.26654 0 0.0242335 0 0)
(-50.1517 -0.110102 0 0.0102204 0 0)
(-50.2262 -0.082552 0 0.00912799 0 0)
(-50.3106 -0.0897035 0 0.00643626 0 0)
(-50.4067 -0.123811 0 0.00535945 0 0)
(-50.5268 -0.171004 0 0.00502749 0 0)
(-50.6648 -0.222344 0 0.00511399 0 0)
(-50.8098 -0.274948 0 0.0055301 0 0)
(-50.9577 -0.32944 0 0.00616239 0 0)
(-51.1092 -0.38691 0 0.00693635 0 0)
(-51.2652 -0.447956 0 0.00784731 0 0)
(-51.4277 -0.511793 0 0.0089162 0 0)
(-51.5991 -0.578001 0 0.0101694 0 0)
(-51.7835 -0.645159 0 0.01162 0 0)
(-51.9825 -0.713462 0 0.0132792 0 0)
(-52.1986 -0.781315 0 0.0151237 0 0)
(-52.4286 -0.85044 0 0.0172089 0 0)
(-52.6728 -0.917929 0 0.0194901 0 0)
(-52.9236 -0.987692 0 0.0219902 0 0)
(-50.2003 0.0677665 0 0.0117902 0 0)
(-50.3068 0.01374 0 0.0100714 0 0)
(-50.392 -0.0126375 0 0.00693576 0 0)
(-50.4888 -0.0404538 0 0.0056893 0 0)
(-50.6239 -0.0772932 0 0.00544015 0 0)
(-50.7893 -0.122045 0 0.00552705 0 0)
(-50.9661 -0.17295 0 0.00572438 0 0)
(-51.145 -0.228177 0 0.00601885 0 0)
(-51.3266 -0.285284 0 0.00646038 0 0)
(-51.5153 -0.342587 0 0.00707551 0 0)
(-51.7157 -0.398883 0 0.0078569 0 0)
(-51.9309 -0.45371 0 0.00878448 0 0)
(-52.1599 -0.506525 0 0.00983177 0 0)
(-52.4011 -0.558433 0 0.0110017 0 0)
(-52.6503 -0.609732 0 0.0122828 0 0)
(-52.9061 -0.66272 0 0.0137599 0 0)
(-53.1634 -0.715993 0 0.0154035 0 0)
(-53.4239 -0.77269 0 0.0171907 0 0)
(-49.8221 -0.00771523 0 0.0103752 0 0)
(-49.8855 -0.0196059 0 0.00850526 0 0)
(-49.9845 -0.017782 0 0.00601418 0 0)
(-50.1234 -0.0175817 0 0.0047839 0 0)
(-50.2787 -0.0306092 0 0.00444834 0 0)
(-50.4369 -0.0584347 0 0.00465392 0 0)
(-50.5987 -0.0975284 0 0.00496681 0 0)
(-50.7709 -0.142336 0 0.00525471 0 0)
(-50.9576 -0.187763 0 0.00562889 0 0)
(-51.1591 -0.231228 0 0.00614681 0 0)
(-51.3724 -0.272075 0 0.00677023 0 0)
(-51.5938 -0.311422 0 0.00747256 0 0)
(-51.8199 -0.350506 0 0.00826665 0 0)
(-52.0496 -0.391403 0 0.00919912 0 0)
(-52.2808 -0.43448 0 0.0102651 0 0)
(-52.5151 -0.481066 0 0.0114828 0 0)
(-52.7506 -0.528909 0 0.0127849 0 0)
(-52.9919 -0.57957 0 0.0141515 0 0)
(-50.4563 0.0693884 0 0.00876682 0 0)
(-50.5111 0.0688216 0 0.00634601 0 0)
(-50.6113 0.0677868 0 0.00409456 0 0)
(-50.7473 0.0579974 0 0.00327835 0 0)
(-50.8854 0.0372283 0 0.00325236 0 0)
(-51.0138 0.00942392 0 0.00343722 0 0)
(-51.1437 -0.0225782 0 0.00364928 0 0)
(-51.2901 -0.0570541 0 0.00389309 0 0)
(-51.4605 -0.0927556 0 0.00419575 0 0)
(-51.6535 -0.129005 0 0.00457934 0 0)
(-51.8633 -0.165271 0 0.00504553 0 0)
(-52.0836 -0.201723 0 0.00559293 0 0)
(-52.311 -0.238356 0 0.00621954 0 0)
(-52.5437 -0.275686 0 0.00692722 0 0)
(-52.7816 -0.313133 0 0.00769821 0 0)
(-53.0249 -0.351366 0 0.00855702 0 0)
(-53.2741 -0.388702 0 0.00947604 0 0)
(-53.5287 -0.426518 0 0.0104459 0 0)
(-50.0832 0.0450987 0 0.00749809 0 0)
(-50.1769 0.0736018 0 0.00527918 0 0)
(-50.3118 0.0818433 0 0.00358733 0 0)
(-50.4693 0.0769908 0 0.00285183 0 0)
(-50.6329 0.0615939 0 0.00270233 0 0)
(-50.8033 0.0396572 0 0.00277229 0 0)
(-50.9839 0.0155678 0 0.00293853 0 0)
(-51.1722 -0.00813101 0 0.00318198 0 0)
(-51.3645 -0.0304843 0 0.00346313 0 0)
(-51.5592 -0.0521096 0 0.00376362 0 0)
(-51.7554 -0.0740376 0 0.00410026 0 0)
(-51.955 -0.0972173 0 0.00449343 0 0)
(-52.1607 -0.12171 0 0.00494887 0 0)
(-52.3765 -0.147905 0 0.00547329 0 0)
(-52.604 -0.175257 0 0.00604941 0 0)
(-52.8445 -0.204209 0 0.0066997 0 0)
(-53.095 -0.233381 0 0.00739418 0 0)
(-53.356 -0.263972 0 0.00813109 0 0)
(-50.0416 0.0857041 0 0.00675366 0 0)
(-50.2074 0.115943 0 0.00490638 0 0)
(-50.3798 0.13316 0 0.00330514 0 0)
(-50.5404 0.132397 0 0.00256814 0 0)
(-50.6955 0.123991 0 0.00228442 0 0)
(-50.8563 0.112068 0 0.0022445 0 0)
(-51.0282 0.0952642 0 0.00232179 0 0)
(-51.2115 0.0727894 0 0.00243676 0 0)
(-51.4068 0.0461916 0 0.00256109 0 0)
(-51.616 0.0181632 0 0.00270924 0 0)
(-51.8389 -0.00869058 0 0.00290945 0 0)
(-52.0734 -0.0331038 0 0.00316348 0 0)
(-52.3173 -0.0546296 0 0.0034474 0 0)
(-52.5695 -0.0741256 0 0.0037463 0 0)
(-52.828 -0.0922656 0 0.00405303 0 0)
(-53.0916 -0.110568 0 0.00440634 0 0)
(-53.3586 -0.128825 0 0.00480407 0 0)
(-53.6291 -0.148487 0 0.00524635 0 0)
(-49.8021 0.135015 0 0.00568333 0 0)
(-49.9878 0.154243 0 0.00370175 0 0)
(-50.2069 0.171238 0 0.00231468 0 0)
(-50.4126 0.172437 0 0.00170857 0 0)
(-50.5804 0.164329 0 0.00154452 0 0)
(-50.7288 0.150563 0 0.0015269 0 0)
(-50.8844 0.133884 0 0.00152307 0 0)
(-51.0601 0.117778 0 0.00156669 0 0)
(-51.2588 0.104305 0 0.00166302 0 0)
(-51.479 0.0934162 0 0.00177171 0 0)
(-51.7158 0.0837864 0 0.00188151 0 0)
(-51.9632 0.0739289 0 0.00201093 0 0)
(-52.2162 0.0629782 0 0.00217882 0 0)
(-52.4722 0.0505818 0 0.00239236 0 0)
(-52.7297 0.0369456 0 0.00264579 0 0)
(-52.9893 0.02185 0 0.00295008 0 0)
(-53.25 0.00603972 0 0.0032863 0 0)
(-53.514 -0.0109038 0 0.00364296 0 0)
(-50.1476 0.143507 0 0.00379375 0 0)
(-50.2141 0.191302 0 0.00138063 0 0)
(-50.3627 0.192382 0 0.000664976 0 0)
(-50.5169 0.187302 0 0.000438475 0 0)
(-50.6443 0.184415 0 0.000345431 0 0)
(-50.7729 0.180437 0 0.00032197 0 0)
(-50.9318 0.174604 0 0.000333506 0 0)
(-51.1272 0.167374 0 0.000366976 0 0)
(-51.3508 0.158796 0 0.000420306 0 0)
(-51.5907 0.148863 0 0.000492669 0 0)
(-51.8371 0.137832 0 0.000582144 0 0)
(-52.0832 0.126421 0 0.000686894 0 0)
(-52.3271 0.115269 0 0.000805122 0 0)
(-52.5695 0.104782 0 0.000935759 0 0)
(-52.8138 0.0948617 0 0.00107723 0 0)
(-53.0612 0.0852727 0 0.00123828 0 0)
(-53.3155 0.0758805 0 0.00141857 0 0)
(-53.5747 0.0664243 0 0.00161923 0 0)
(-50.0348 0.155213 0 0.0033386 0 0)
(-50.3862 0.248 0 0.000407286 0 0)
(-50.6976 0.23439 0 -2.94846e-06 0 0)
(-50.9351 0.226906 0 -7.34448e-05 0 0)
(-51.1172 0.228675 0 -0.000147921 0 0)
(-51.2747 0.227836 0 -0.000176316 0 0)
(-51.4293 0.225042 0 -0.000161394 0 0)
(-51.5905 0.223423 0 -0.000139904 0 0)
(-51.7571 0.222695 0 -0.000121086 0 0)
(-51.924 0.220988 0 -8.45726e-05 0 0)
(-52.0849 0.216966 0 -1.44678e-05 0 0)
(-52.2391 0.210917 0 8.3139e-05 0 0)
(-52.3855 0.203756 0 0.000198171 0 0)
(-52.5302 0.196826 0 0.000319106 0 0)
(-52.6713 0.190401 0 0.000434379 0 0)
(-52.8176 0.184867 0 0.000548972 0 0)
(-52.9603 0.179699 0 0.000664021 0 0)
(-53.1142 0.175184 0 0.000764161 0 0)
(-48.9636 0.206036 0 0.00146088 0 0)
(-47.3105 0.256199 0 3.20768e-05 0 0)
(-45.6888 0.239898 0 -0.000133945 0 0)
(-44.1262 0.226023 0 -0.00016426 0 0)
(-42.6654 0.218129 0 -0.000214337 0 0)
(-41.3174 0.21132 0 -0.000247092 0 0)
(-40.0694 0.205548 0 -0.000286927 0 0)
(-38.9045 0.200531 0 -0.000339574 0 0)
(-37.8127 0.194532 0 -0.000370503 0 0)
(-36.7963 0.186372 0 -0.000365106 0 0)
(-35.8586 0.176234 0 -0.000340606 0 0)
(-35.0046 0.165461 0 -0.000313118 0 0)
(-34.2264 0.155409 0 -0.000283666 0 0)
(-33.5211 0.147039 0 -0.00025569 0 0)
(-32.87 0.140234 0 -0.000231808 0 0)
(-32.2774 0.134806 0 -0.000211867 0 0)
(-31.7175 0.130001 0 -0.000195046 0 0)
(-31.2149 0.125935 0 -0.000182199 0 0)
(0.0126705 -0.030739 -1.0358e-22 0.0749965 1.93955e-22 4.15757e-39)
(0.146786 -0.118303 1.91626e-22 0.0878201 -3.40099e-23 4.09377e-39)
(0.400126 -0.149367 0 0.0405627 0 0)
(0.617349 -0.0960682 0 -0.0111833 0 0)
(0.686436 0.0150649 0 -0.0473444 0 0)
(0.578698 0.128816 3.98685e-22 -0.058978 -3.80676e-22 3.84399e-39)
(0.286944 0.218612 0 -0.0552129 0 0)
(-0.129831 0.268559 0 -0.0434292 0 0)
(-0.596789 0.279565 0 -0.0291209 0 0)
(-1.0487 0.255214 0 -0.0151092 0 0)
(-1.43482 0.202676 -2.25733e-21 -0.0027335 3.31087e-22 3.53584e-39)
(-1.70301 0.129237 0 0.00708255 0 0)
(-1.81634 0.0421714 0 0.0136003 0 0)
(-1.74863 -0.0511922 0 0.0159456 0 0)
(-1.48911 -0.143098 0 0.0134993 0 0)
(-1.05314 -0.223243 -3.13171e-21 0.00589563 -9.66813e-23 3.26273e-39)
(-0.468359 -0.282588 0 -0.00650176 0 0)
(0.204424 -0.310811 0 -0.022173 0 0)
(0.913164 -0.305725 0 -0.0387953 0 0)
(1.56714 -0.266843 0 -0.0516013 0 0)
(2.13574 -0.204909 0 -0.0586854 0 0)
(2.53358 -0.135599 0 -0.0504066 0 0)
(2.79361 -0.0836765 0 -0.0347143 0 0)
(2.93183 -0.0972251 -9.0641e-22 0.0205939 -1.98635e-22 2.88919e-39)
(3.05092 -0.174641 7.03021e-22 0.0431826 1.06072e-22 2.84388e-39)
(3.35571 -0.367125 -6.58129e-22 0.101333 9.5265e-23 2.79678e-39)
(3.92671 -0.611465 -7.16095e-22 0.235577 2.7475e-22 2.7488e-39)
(4.722 -0.86845 0 0.410988 0 0)
(5.70837 -1.1234 0 0.523709 0 0)
(6.87616 -1.41147 1.03394e-21 0.682038 -3.21159e-22 2.60399e-39)
(8.10062 -1.59412 1.0949e-21 0.838088 -2.11796e-22 2.55558e-39)
(9.12845 -1.54549 0 0.85642 0 0)
(9.60148 -1.20733 0 0.71583 0 0)
(9.15738 -0.725173 7.17292e-22 0.5377 2.15424e-22 2.40951e-39)
(7.49717 -0.32779 0 0.413926 0 0)
(4.69233 0.305237 0 0.252604 0 0)
(0.841739 1.31039 1.61732e-21 0.0241518 -7.09759e-22 2.2689e-39)
(-3.99144 2.10824 0 -0.116029 0 0)
(-9.2314 2.36835 4.73174e-21 -0.114253 -1.03916e-21 2.18025e-39)
(-14.3283 2.27718 1.32313e-20 -0.0795738 -1.99395e-21 8.54752e-39)
(-19.0783 2.09451 0 -0.0500011 0 0)
(-23.4388 1.88331 0 -0.0265747 0 0)
(-27.3472 1.65646 0 -0.00843558 0 0)
(-30.776 1.42514 0 0.00536552 0 0)
(-33.7026 1.19506 0 0.0156452 0 0)
(-36.1183 0.970618 3.37236e-20 0.0230492 -7.77748e-22 7.59331e-39)
(-38.0192 0.754379 3.56007e-20 0.0280746 -5.49523e-22 7.44937e-39)
(-39.4112 0.54854 3.68536e-20 0.0311427 -3.27672e-22 7.30943e-39)
(-40.3051 0.354645 0 0.0325998 0 0)
(-40.7231 0.173939 -3.7451e-20 0.0327407 -8.10139e-23 7.04084e-39)
(-40.6878 0.00761805 0 0.031796 0 0)
(-40.2305 -0.142921 3.56474e-20 0.0299607 4.20572e-22 6.78628e-39)
(-39.3846 -0.276996 3.39613e-20 0.0274469 5.57626e-22 6.66372e-39)
(-38.1885 -0.393713 0 0.0244308 0 0)
(-36.686 -0.493115 0 0.0211024 0 0)
(-34.9171 -0.575425 0 0.0176232 0 0)
(-32.9261 -0.641177 2.36236e-20 0.0141431 8.64358e-22 6.19926e-39)
(-30.7543 -0.691257 0 0.0107855 0 0)
(-28.4438 -0.726857 0 0.00764868 0 0)
(-26.0323 -0.749143 0 0.00479271 0 0)
(-23.5557 -0.759797 0 0.00225898 0 0)
(-21.0462 -0.760317 0 5.34792e-05 0 0)
(-18.5312 -0.752603 0 -0.00183329 0 0)
(-16.0338 -0.738339 0 -0.00342888 0 0)
(-13.5717 -0.719222 0 -0.004759 0 0)
(-11.1581 -0.696397 2.17796e-21 -0.00585641 -5.975e-22 5.252e-39)
(-8.80325 -0.671314 0 -0.00674334 0 0)
(-6.51562 -0.644229 0 -0.0074482 0 0)
(-4.30144 -0.615905 -7.84147e-21 -0.00798889 4.41028e-22 4.95779e-39)
(-2.16726 -0.586191 -9.32709e-21 -0.00838601 3.92133e-22 4.86204e-39)
(-0.120155 -0.555185 0 -0.00865301 0 0)
(1.83299 -0.522573 1.1706e-20 -0.00879896 -2.98696e-22 4.67395e-39)
(3.6851 -0.488606 -1.26059e-20 -0.00882783 2.53932e-22 4.58163e-39)
(5.42936 -0.453231 0 -0.00874598 0 0)
(7.05932 -0.416798 1.38507e-20 -0.00856624 -1.68653e-22 4.40061e-39)
(8.56907 -0.379417 0 -0.00831405 0 0)
(9.9535 -0.341433 0 -0.00802423 0 0)
(11.2081 -0.302991 -1.44372e-20 -0.0077374 5.33869e-23 4.13775e-39)
(12.3295 -0.264136 0 -0.00748968 0 0)
(13.3147 -0.225024 1.40751e-20 -0.00730577 1.55275e-23 3.96841e-39)
(14.1592 -0.185417 0 -0.00719677 0 0)
(14.8589 -0.14515 -1.319e-20 -0.00715707 -7.94057e-23 3.80385e-39)
(15.4083 -0.104139 -1.25696e-20 -0.00716791 -1.0976e-22 3.72335e-39)
(15.8009 -0.0622679 -1.18397e-20 -0.0072008 -1.39004e-22 3.64405e-39)
(16.0305 -0.0194473 -2.20165e-20 -0.0072207 -3.34049e-22 1.42638e-38)
(16.0913 0.0239947 2.01675e-20 -0.00719412 3.8679e-22 1.39563e-38)
(15.9778 0.0677789 0 -0.00708559 0 0)
(15.6868 0.111302 0 -0.00686843 0 0)
(15.2176 0.153715 0 -0.00652706 0 0)
(14.5732 0.193979 1.13888e-20 -0.00604695 5.44345e-22 1.2776e-38)
(13.7614 0.230898 9.017e-21 -0.00543917 5.64316e-22 1.24938e-38)
(12.7956 0.26309 -6.66098e-21 -0.00472065 -5.74325e-22 1.22167e-38)
(11.6944 0.289203 0 -0.00392003 0 0)
(10.4816 0.308275 2.18814e-21 -0.00308719 5.63361e-22 1.16776e-38)
(9.18548 0.319557 1.58974e-22 -0.00226946 5.43543e-22 1.14153e-38)
(7.83613 0.323025 -1.68646e-21 -0.00151421 5.16019e-22 1.11575e-38)
(6.46412 0.319068 0 -0.000859497 0 0)
(5.0981 0.308485 0 -0.000330048 0 0)
(3.76517 0.29264 0 7.18988e-05 0 0)
(2.4913 0.272971 -6.98283e-21 0.000360092 3.64104e-22 1.01673e-38)
(1.29291 0.249716 0 0.000520081 0 0)
(0.179915 0.224577 0 0.00058663 0 0)
(-0.838856 0.198828 8.98176e-21 0.000589113 -2.45892e-22 9.46522e-39)
(-1.76055 0.173563 0 0.000555539 0 0)
(-2.58683 0.14963 0 0.00050793 0 0)
(-3.32264 0.127575 9.894e-21 0.000459541 -1.50014e-22 8.80612e-39)
(-3.97499 0.107666 0 0.000415891 0 0)
(-4.55185 0.0899533 0 0.000377594 0 0)
(-5.06125 0.0743436 -1.02037e-20 0.000343277 8.27314e-23 8.18641e-39)
(-5.51077 0.0606452 -1.02296e-20 0.00031125 6.597e-23 7.988e-39)
(-5.90719 0.0486118 0 0.0002804 0 0)
(-6.25628 0.0379696 1.02094e-20 0.000250131 -3.88484e-23 7.60279e-39)
(-6.56272 0.0284497 0 0.000220127 0 0)
(-6.83012 0.0198149 -1.01207e-20 0.000190162 1.78631e-23 7.2325e-39)
(-7.06114 0.0118836 0 0.000159997 0 0)
(-7.25779 0.00453058 -9.98197e-21 0.000129522 8.64897e-25 6.87654e-39)
(-7.42162 -0.00230645 -9.89697e-21 9.89155e-05 -6.49324e-24 6.70377e-39)
(-7.55412 -0.00865664 0 6.88328e-05 0 0)
(-7.6566 -0.0145317 0 3.99766e-05 0 0)
(-7.73067 -0.0199212 0 1.3018e-05 0 0)
(-7.77814 -0.0247942 0 -1.12472e-05 0 0)
(-7.80096 -0.0291496 0 -3.24624e-05 0 0)
(-7.80104 -0.0330399 0 -5.08688e-05 0 0)
(-7.78019 -0.0364788 0 -6.63151e-05 0 0)
(-7.74027 -0.0394667 -8.94893e-21 -7.85713e-05 -4.33278e-23 5.43831e-39)
(-7.68293 -0.0420942 8.80876e-21 -8.83134e-05 4.57517e-23 5.29388e-39)
(-7.60955 -0.0443927 0 -9.56796e-05 0 0)
(-7.52175 -0.0462139 0 -9.93951e-05 0 0)
(-7.42162 -0.0473834 0 -9.86627e-05 0 0)
(-7.31145 -0.0478306 0 -9.42982e-05 0 0)
(-7.19365 -0.0476016 1.61611e-20 -8.79992e-05 9.89915e-23 1.84558e-38)
(-7.07056 -0.0468156 0 -8.12183e-05 0 0)
(-6.94425 -0.0456318 -1.55864e-20 -7.46335e-05 -9.39533e-23 1.74432e-38)
(-6.81642 -0.0442145 1.53073e-20 -6.82502e-05 9.07271e-23 1.69523e-38)
(-6.68831 -0.0427017 0 -6.18262e-05 0 0)
(-6.56078 -0.0411841 0 -5.52133e-05 0 0)
(-6.43435 -0.0397032 0 -4.84366e-05 0 0)
(-6.30938 -0.0382602 -1.42594e-20 -4.16183e-05 -7.73848e-23 1.50875e-38)
(-6.18612 -0.0368278 -1.4015e-20 -3.48997e-05 -7.40731e-23 1.46452e-38)
(-6.06485 -0.035361 0 -2.84182e-05 0 0)
(-5.94592 -0.0338068 -1.35473e-20 -2.23298e-05 -6.70613e-23 1.37882e-38)
(-5.82982 -0.0321161 -1.33244e-20 -1.68416e-05 -6.32063e-23 1.33733e-38)
(-5.71715 -0.0302563 1.31091e-20 -1.22094e-05 5.90605e-23 1.29672e-38)
(-5.60859 -0.0282223 0 -8.67196e-06 0 0)
(-5.50482 -0.0260416 0 -6.34487e-06 0 0)
(-5.40648 -0.0237691 1.25142e-20 -5.14837e-06 4.53462e-23 1.18003e-38)
(-5.31404 -0.0214766 0 -4.81985e-06 0 0)
(-5.22775 -0.0192387 0 -5.00474e-06 0 0)
(-5.14766 -0.0171212 0 -5.36967e-06 0 0)
(-5.0736 -0.0151729 0 -5.68027e-06 0 0)
(-5.00525 -0.013423 -1.16999e-20 -5.8186e-06 -2.51365e-23 1.00194e-38)
(-4.94217 -0.0118833 -1.15609e-20 -5.76224e-06 -2.22486e-23 9.68661e-39)
(-4.88387 -0.0105509 0 -5.54396e-06 0 0)
(-4.82985 -0.00941376 -1.13016e-20 -5.22028e-06 -1.7661e-23 9.04352e-39)
(-4.7796 -0.00845376 0 -4.84507e-06 0 0)
(-4.73269 -0.00765131 0 -4.46428e-06 0 0)
(-4.68862 -0.00698559 -1.09506e-20 -4.10646e-06 -1.31844e-23 8.1333e-39)
(-4.64708 -0.00643886 0 -3.79313e-06 0 0)
(-4.60758 -0.00599423 -1.0736e-20 -3.53066e-06 -1.13609e-23 7.56146e-39)
(-4.56994 -0.00564045 0 -3.32809e-06 0 0)
(-4.53357 -0.00536749 0 -3.18317e-06 0 0)
(-4.49853 -0.00516943 -1.04357e-20 -3.10366e-06 -9.84078e-24 6.75403e-39)
(-4.46387 -0.00504469 0 -3.09013e-06 0 0)
(-4.43011 -0.0049882 -1.0246e-20 -3.15138e-06 -9.51679e-24 6.2481e-39)
(-4.3955 -0.00502124 0 -3.31467e-06 0 0)
(-4.36153 -0.0051266 0 -3.57616e-06 0 0)
(-4.3247 -0.00538914 0 -4.07058e-06 0 0)
(-4.28838 -0.00571807 9.88018e-21 -4.68642e-06 1.0947e-23 5.31049e-39)
(-4.2458 -0.00637008 0 -5.96516e-06 0 0)
(-4.20367 -0.00698215 -9.6962e-21 -7.21346e-06 -1.33461e-23 4.8774e-39)
(-4.14985 -0.00834148 0 -1.06834e-05 0 0)
(-4.09535 -0.00925314 0 -1.28879e-05 0 0)
(-4.02235 -0.0121104 0 -2.38444e-05 0 0)
(-3.94061 -0.0131781 0 -2.62462e-05 0 0)
(-3.83924 -0.0196905 0 -6.87612e-05 0 0)
(-3.69076 -0.0201 0 -6.06563e-05 0 0)