/*--------------------------------*- C++ -*----------------------------------*\
  =========                 |
  \\      /  F ield         | OpenFOAM: The Open Source CFD Toolbox
   \\    /   O peration     | Website:  https://openfoam.org
    \\  /    A nd           | Version:  9
     \\/     M anipulation  |
\*---------------------------------------------------------------------------*/
FoamFile
{
    format      ascii;
    class       volScalarField;
    location    "0.25";
    object      epsilonU;
}
// * * * * * * * * * * * * * * * * * * * * * * * * * * * * * * * * * * * * * //

dimensions      [0 2 -3 0 0 0 0];

internalField   nonuniform List<scalar> 
12225
(
278.515
263.66
249.434
236.839
226.738
219.483
215.069
213.262
213.705
215.989
219.71
224.5
230.038
236.06
242.364
248.782
255.347
264.853
61.116
86.6952
97.9911
107.207
118.464
132.555
149.408
168.608
189.572
211.674
234.325
257.012
279.332
300.985
321.878
341.847
362.402
380.93
25.2776
36.183
43.3817
48.6212
53.3861
58.3357
63.7698
69.8243
76.5243
83.8213
91.6253
99.8268
108.314
116.987
125.779
134.667
143.801
153.17
17.5217
21.2986
24.7145
27.6099
30.1619
32.5399
34.8664
37.2275
39.6764
42.2396
44.9246
47.7268
50.6351
53.6372
56.7241
59.9032
63.1926
66.6179
15.4878
16.7519
18.1858
19.5889
20.9094
22.1489
23.3262
24.465
25.5861
26.7047
27.8307
28.9696
30.1243
31.2963
32.4871
33.7016
34.9445
36.2125
14.9084
15.2396
15.7463
16.334
16.9476
17.5589
18.1558
18.7355
19.3
19.8524
20.3959
20.9332
21.4663
21.997
22.5271
23.0589
23.594
24.1267
14.7451
14.7391
14.8342
15.0036
15.2215
15.4679
15.7285
15.9948
16.2619
16.5273
16.7901
17.0497
17.3063
17.5601
17.8117
18.0617
18.3106
18.5543
14.7012
14.5825
14.5116
14.4858
14.4981
14.5403
14.6043
14.6837
14.7736
14.8707
14.9724
15.0771
15.1836
15.2912
15.3994
15.5082
15.6171
15.7235
14.6901
14.5373
14.407
14.3009
14.2182
14.1571
14.1145
14.0875
14.0732
14.0692
14.0735
14.0844
14.1006
14.1211
14.1452
14.1721
14.2015
14.2317
14.6874
14.5252
14.3761
14.2411
14.1204
14.0137
13.9203
13.8391
13.7688
13.7083
13.6564
13.6119
13.574
13.5418
13.5147
13.4919
13.473
13.4572
14.6868
14.5221
14.3677
14.2236
14.0896
13.9656
13.8512
13.746
13.6495
13.5611
13.4801
13.4061
13.3383
13.2764
13.2197
13.1678
13.1203
13.0771
14.6866
14.5213
14.3656
14.219
14.0812
13.9518
13.8305
13.7169
13.6105
13.5111
13.4182
13.3314
13.2504
13.1747
13.104
13.038
12.9764
12.9194
14.6865
14.521
14.3648
14.2175
14.0785
13.9473
13.8234
13.7065
13.5963
13.4922
13.3941
13.3016
13.2143
13.1319
13.0543
12.981
12.912
12.8476
14.6864
14.5208
14.3645
14.2169
14.0774
13.9456
13.8209
13.7029
13.5913
13.4855
13.3853
13.2904
13.2005
13.1153
13.0345
12.9579
12.8853
12.8172
14.6864
14.5207
14.3643
14.2165
14.0769
13.9449
13.8199
13.7016
13.5895
13.4832
13.3824
13.2868
13.196
13.1098
13.0279
12.9501
12.8762
12.8068
14.6863
14.5206
14.3641
14.2163
14.0766
13.9444
13.8194
13.7009
13.5886
13.4822
13.3812
13.2854
13.1943
13.1079
13.0257
12.9475
12.8732
12.8034
14.6863
14.5205
14.364
14.2161
14.0763
13.9441
13.8189
13.7004
13.5881
13.4815
13.3805
13.2845
13.1934
13.1068
13.0245
12.9462
12.8718
12.8018
14.6863
14.5204
14.3639
14.216
14.0761
13.9439
13.8186
13.7001
13.5877
13.4811
13.3799
13.2839
13.1927
13.1061
13.0237
12.9454
12.8709
12.8008
14.6863
14.5204
14.3639
14.2159
14.0761
13.9438
13.8186
13.6999
13.5875
13.4809
13.3797
13.2837
13.1924
13.1057
13.0233
12.9449
12.8704
12.8002
14.6863
14.5205
14.3639
14.216
14.0762
13.9439
13.8187
13.7001
13.5877
13.4811
13.38
13.284
13.1928
13.1061
13.0237
12.9453
12.8709
12.8007
14.6863
14.5205
14.364
14.2162
14.0764
13.9443
13.8192
13.7007
13.5885
13.4821
13.3812
13.2854
13.1945
13.1082
13.0262
12.9482
12.8742
12.8046
14.6863
14.5206
14.3643
14.2167
14.0773
13.9457
13.8214
13.7039
13.5928
13.4878
13.3886
13.2947
13.2059
13.1218
13.0423
12.9669
12.8956
12.8288
14.6865
14.5212
14.3659
14.2202
14.0837
13.956
13.8368
13.7256
13.6218
13.525
13.4348
13.3506
13.272
13.1986
13.13
13.0659
13.006
12.9505
14.6876
14.5264
14.3793
14.2467
14.1282
14.0231
13.9302
13.8484
13.7762
13.7126
13.6565
13.6068
13.5628
13.5237
13.489
13.4581
13.4306
13.4066
14.6976
14.5664
14.4707
14.4075
14.3715
14.3568
14.3585
14.372
14.3941
14.4224
14.4551
14.4908
14.5287
14.5681
14.6085
14.6497
14.6913
14.7333
14.7737
14.8187
14.9603
15.1591
15.3863
15.6233
15.8598
16.0905
16.3134
16.5284
16.7359
16.9365
17.1313
17.3211
17.5066
17.6884
17.8669
18.0418
15.2587
16.1151
17.0712
17.9727
18.7879
19.5239
20.1945
20.8149
21.3989
21.9574
22.4988
23.0291
23.5528
24.0727
24.5904
25.1069
25.6224
26.1343
18.0414
22.0079
24.9885
27.1532
28.8883
30.405
31.8126
33.1786
34.544
35.9313
37.3517
38.8088
40.3018
41.8268
43.3781
44.9494
46.5342
48.1195
34.024
45.6879
51.3769
54.9426
58.0812
61.2984
64.7515
68.4842
72.4805
76.6976
81.0852
85.5935
90.176
94.791
99.4028
103.982
108.514
112.971
163.308
157.417
151.704
146.261
141.3
136.947
133.25
130.206
127.781
125.919
124.559
123.637
123.094
122.871
122.918
123.188
123.642
124.243
0.199446
0.246196
0.407987
0.551248
0.699252
0.874631
1.07818
1.31614
1.59545
1.90755
2.23716
2.58442
2.94687
3.32148
3.70525
4.09537
4.48922
4.88438
5.27849
5.6693
6.05454
6.43185
6.7988
7.15272
7.49072
7.80959
8.10584
8.37572
8.61553
8.82214
8.99392
9.13138
9.23535
9.2996
9.3014
9.22289
9.24724
9.32525
9.39241
40.0966
40.5037
9.42512
9.41909
9.54318
42.6018
45.5576
48.7381
52.1016
55.6392
59.3487
63.2293
67.2816
71.5071
75.9074
80.4847
85.241
90.1784
95.2988
100.604
106.096
111.775
117.644
123.702
129.949
136.387
143.013
149.828
156.83
164.017
171.387
178.937
186.664
194.564
202.632
210.865
219.257
227.802
236.495
245.328
254.296
263.389
272.602
281.925
291.351
300.87
310.473
320.151
329.893
339.689
349.529
359.401
369.294
379.196
389.094
398.977
408.835
418.659
428.448
438.21
447.977
457.721
467.336
476.818
486.16
495.35
504.372
513.211
521.852
530.278
538.474
546.425
554.116
561.532
568.66
575.485
581.995
588.178
594.021
599.514
604.646
609.408
613.791
617.788
621.391
624.594
627.392
629.78
631.756
633.318
634.462
635.191
635.503
635.402
634.889
633.968
632.645
630.924
628.812
626.316
623.446
620.209
616.617
612.679
608.408
603.816
598.914
593.718
588.24
582.495
576.498
570.264
563.808
557.146
550.294
543.268
536.082
528.757
521.305
513.743
506.09
498.346
490.562
482.71
474.863
467.099
460.316
457.131
454.469
451.823
449.165
446.498
443.819
441.12
438.383
435.559
432.548
429.116
424.658
417.695
401.777
0.762563
0.478486
0.49386
0.567738
0.676526
0.814488
0.980266
1.17446
1.39622
1.64244
1.90922
2.19388
2.49417
2.8081
3.13388
3.46991
3.81478
4.16727
4.52635
4.8912
5.26124
5.63616
6.01603
6.40134
6.79325
7.19381
7.6064
8.03625
8.49113
8.98214
9.52412
10.136
10.8436
11.6913
12.7603
14.1032
15.3563
16.4298
17.6893
19.4901
20.3982
20.8078
22.9396
24.9081
27.243
28.897
30.5464
32.2473
34.0075
35.829
37.7135
39.6624
41.6769
43.7581
45.9069
48.1242
50.4106
52.7667
55.1928
57.6894
60.2565
62.8942
65.6023
68.3807
71.229
74.1466
77.1329
80.187
83.308
86.4949
89.7462
93.0608
96.4369
99.8729
103.367
106.917
110.521
114.177
117.882
121.634
125.43
129.267
133.143
137.054
140.997
144.968
148.965
152.983
157.019
161.069
165.128
169.193
173.259
177.323
181.38
185.429
189.469
193.502
197.536
201.59
205.674
209.72
213.72
217.666
221.554
225.378
229.132
232.81
236.405
239.911
243.324
246.636
249.843
252.939
255.918
258.775
261.506
264.106
266.569
268.893
271.072
273.104
274.985
276.712
278.281
279.692
280.941
282.027
282.949
283.705
284.294
284.718
284.975
285.067
284.994
284.757
284.359
283.8
283.083
282.212
281.189
280.017
278.7
277.242
275.647
273.921
272.067
270.09
267.996
265.791
263.479
261.067
258.56
255.965
253.287
250.532
247.708
244.82
241.874
238.877
235.827
232.752
229.618
226.493
223.418
220.584
218.419
216.444
214.507
212.583
210.664
208.752
206.847
204.948
203.051
201.149
199.219
197.248
195.112
193.863
1.52674
0.805736
0.746785
0.797041
0.890475
1.01657
1.1722
1.35573
1.56518
1.79798
2.05129
2.32262
2.6099
2.91149
3.22614
3.55294
3.89124
4.24068
4.60116
4.97285
5.35623
5.75212
6.1618
6.58702
7.03022
7.49464
7.98453
8.50529
9.06351
9.66662
10.322
11.0355
11.8106
12.6505
13.5599
14.5261
15.5089
16.5234
17.5941
18.7181
19.8337
21.0068
22.3496
23.7098
25.0841
26.4452
27.8386
29.2784
30.7685
32.3098
33.9031
35.5488
37.2473
38.999
40.8042
42.6633
44.5766
46.5442
48.5663
50.6429
52.7741
54.9598
57.1997
59.4938
61.8415
64.2426
66.6964
69.2025
71.7599
74.368
77.0258
79.7323
82.4864
85.2868
88.1322
91.0211
93.9519
96.9231
99.9328
102.979
106.06
109.174
112.318
115.49
118.688
121.909
125.151
128.411
131.687
134.976
138.274
141.581
144.893
148.208
151.525
154.843
158.162
161.484
164.81
168.141
171.459
174.747
177.998
181.207
184.369
187.479
190.532
193.522
196.446
199.299
202.075
204.769
207.378
209.897
212.32
214.645
216.867
218.983
220.988
222.879
224.653
226.306
227.837
229.243
230.522
231.67
232.688
233.573
234.324
234.941
235.423
235.77
235.981
236.058
236.001
235.811
235.49
235.038
234.458
233.752
232.923
231.973
230.905
229.722
228.428
227.026
225.521
223.916
222.216
220.424
218.546
216.586
214.548
212.438
210.26
208.017
205.72
203.367
200.967
198.526
196.031
193.529
191.002
188.473
185.971
183.577
181.414
179.358
177.344
175.35
173.37
171.405
169.458
167.532
165.632
163.77
161.964
160.275
158.793
158.313
2.4377
1.18544
1.03496
1.05062
1.12935
1.24786
1.3985
1.57772
1.7829
2.01153
2.26113
2.52947
2.81468
3.11535
3.43048
3.75948
4.1021
4.45839
4.8287
5.21365
5.61411
6.03126
6.4666
6.92196
7.39958
7.90215
8.43279
8.99504
9.59269
10.2293
10.9079
11.6298
12.3947
13.2016
14.0501
14.9388
15.8653
16.833
17.8447
18.8989
19.9936
21.1392
22.3414
23.581
24.8518
26.1546
27.4972
28.8843
30.3184
31.8008
33.3321
34.9131
36.544
38.2255
39.9578
41.7414
43.5767
45.4639
47.4032
49.395
51.4393
53.5363
55.686
57.8884
60.1433
62.4506
64.8099
67.221
69.6833
72.1962
74.7591
77.3712
80.0316
82.7392
85.4929
88.2915
91.1335
94.0176
96.942
99.9051
102.905
105.94
109.007
112.105
115.232
118.385
121.561
124.758
127.975
131.207
134.454
137.712
140.979
144.254
147.534
150.819
154.106
157.395
160.683
163.959
167.213
170.437
173.624
176.77
179.868
182.915
185.904
188.832
191.692
194.48
197.191
199.821
202.365
204.817
207.175
209.433
211.588
213.635
215.572
217.394
219.099
220.683
222.145
223.481
224.689
225.769
226.717
227.533
228.215
228.764
229.179
229.459
229.605
229.618
229.498
229.247
228.865
228.356
227.72
226.961
226.08
225.081
223.967
222.741
221.406
219.966
218.426
216.789
215.06
213.242
211.342
209.363
207.308
205.186
202.999
200.747
198.447
196.093
193.693
191.265
188.8
186.319
183.819
181.316
178.829
176.4
174.077
171.823
169.607
167.416
165.246
163.098
160.977
158.889
156.844
154.861
152.974
151.258
149.828
149.151
3.34379
1.57267
1.31844
1.29974
1.36394
1.47529
1.62169
1.79771
2.00004
2.22609
2.47356
2.74045
3.02508
3.32621
3.643
3.975
4.32212
4.68456
5.0628
5.45758
5.86983
6.30071
6.7516
7.22405
7.71989
8.24114
8.79001
9.36886
9.98006
10.6258
11.3078
12.0271
12.784
13.5788
14.4119
15.284
16.1962
17.1496
18.1456
19.1845
20.2671
21.3952
22.5686
23.784
25.0401
26.3378
27.6793
29.0669
30.5021
31.9861
33.5199
35.1043
36.7401
38.4279
40.1684
41.9623
43.8101
45.7124
47.6698
49.6828
51.7517
53.8771
56.0591
58.2982
60.5943
62.9477
65.3582
67.8258
70.3502
72.9311
75.5679
78.2601
81.0068
83.8072
86.6603
89.5647
92.5192
95.5223
98.5724
101.668
104.806
107.986
111.204
114.459
117.749
121.07
124.421
127.798
131.199
134.621
138.061
141.517
144.986
148.466
151.953
155.445
158.94
162.434
165.918
169.383
172.822
176.227
179.592
182.912
186.181
189.394
192.545
195.628
198.639
201.571
204.419
207.178
209.843
212.409
214.872
217.226
219.468
221.593
223.598
225.479
227.232
228.855
230.344
231.698
232.914
233.99
234.926
235.719
236.368
236.874
237.236
237.455
237.53
237.463
237.254
236.906
236.419
235.797
235.042
234.156
233.142
232.003
230.744
229.368
227.878
226.279
224.576
222.773
220.874
218.884
216.809
214.654
212.42
210.12
207.755
205.319
202.843
200.32
197.755
195.158
192.531
189.884
187.221
184.554
181.897
179.274
176.709
174.193
171.712
169.259
166.834
164.438
162.078
159.761
157.503
155.326
153.267
151.402
149.825
148.797
4.19047
1.92637
1.57995
1.53006
1.5806
1.68488
1.82682
1.9993
2.19836
2.42123
2.66572
2.92998
3.21254
3.51228
3.82846
4.16071
4.50897
4.8735
5.25478
5.65353
6.07064
6.50719
6.9644
7.44366
7.94648
8.47454
9.02963
9.61361
10.2284
10.8757
11.5571
12.274
13.0274
13.8182
14.6475
15.5164
16.4261
17.3777
18.3722
19.4104
20.4932
21.6213
22.795
24.0141
25.2788
26.5899
27.9486
29.3565
30.8148
32.3249
33.8879
35.5049
37.1769
38.9051
40.6904
42.5339
44.4365
46.3991
48.4227
50.508
52.656
54.8674
57.1428
59.4829
61.888
64.3587
66.8951
69.4975
72.1657
74.8997
77.6991
80.5635
83.4922
86.4843
89.5389
92.6547
95.8303
99.0641
102.354
105.699
109.096
112.543
116.038
119.577
123.159
126.78
130.437
134.127
137.848
141.595
145.365
149.156
152.963
156.783
160.612
164.448
168.285
172.118
175.934
179.724
183.483
187.204
190.88
194.505
198.072
201.576
205.01
208.367
211.642
214.828
217.919
220.91
223.794
226.568
229.224
231.758
234.166
236.442
238.583
240.585
242.443
244.155
245.719
247.13
248.388
249.491
250.436
251.223
251.851
252.32
252.63
252.781
252.774
252.61
252.291
251.819
251.196
250.425
249.509
248.45
247.252
245.92
244.457
242.869
241.158
239.329
237.39
235.345
233.198
230.952
228.62
226.204
223.699
221.131
218.501
215.806
213.063
210.274
207.445
204.582
201.691
198.78
195.854
192.924
190
187.098
184.234
181.408
178.616
175.855
173.128
170.438
167.792
165.202
162.682
160.259
157.97
155.882
154.061
152.652
4.91476
2.23886
1.81195
1.73386
1.77144
1.86845
2.00531
2.17341
2.36812
2.5865
2.82639
3.08607
3.36422
3.65984
3.97228
4.30122
4.64665
5.00881
5.38819
5.78548
6.20155
6.63741
7.09422
7.57329
8.07602
8.60395
9.15871
9.74201
10.3556
11.0011
11.6802
12.3945
13.1453
13.9339
14.7617
15.63
16.5399
17.4929
18.4898
19.5319
20.6201
21.7555
22.9387
24.1707
25.4522
26.7843
28.1684
29.6056
31.0977
32.6459
34.2518
35.9168
37.6425
39.4302
41.2814
43.1976
45.1801
47.2304
49.3497
51.5394
53.8008
56.135
58.543
61.026
63.5846
66.2197
68.9318
71.7215
74.5888
77.5339
80.5567
83.6567
86.8334
90.086
93.4135
96.8145
100.288
103.831
107.442
111.12
114.86
118.662
122.522
126.436
130.402
134.416
138.474
142.573
146.709
150.879
155.077
159.299
163.542
167.801
172.071
176.347
180.626
184.89
189.131
193.342
197.516
201.645
205.722
209.74
213.692
217.569
221.366
225.075
228.688
232.2
235.602
238.889
242.054
245.091
247.994
250.758
253.378
255.847
258.162
260.318
262.312
264.14
265.798
267.285
268.599
269.736
270.697
271.48
272.084
272.51
272.757
272.827
272.721
272.441
271.987
271.364
270.574
269.62
268.507
267.236
265.812
264.242
262.529
260.68
258.697
256.585
254.355
252.013
249.559
246.996
244.347
241.61
238.789
235.896
232.937
229.915
226.841
223.719
220.558
217.363
214.141
210.899
207.644
204.384
201.13
197.892
194.683
191.507
188.365
185.259
182.193
179.171
176.204
173.302
170.483
167.774
165.209
162.844
160.722
158.925
5.53125
2.50937
2.01128
1.90717
1.93202
2.02125
2.15217
2.31479
2.50388
2.7163
2.94986
3.20296
3.47438
3.76327
4.06905
4.39148
4.73058
5.08662
5.46011
5.85172
6.26233
6.69296
7.14474
7.61897
8.11702
8.64041
9.1907
9.76957
10.3787
11.0198
11.6946
12.4047
13.1517
13.9372
14.7626
15.6295
16.5393
17.4934
18.4932
19.5399
20.6351
21.78
22.9758
24.2239
25.5257
26.8826
28.2962
29.7681
31.3002
32.8942
34.552
36.2755
38.0667
39.9275
41.8599
43.8657
45.947
48.1057
50.3435
52.6624
55.064
57.55
60.122
62.7814
65.5294
68.3672
71.2958
74.3157
77.4277
80.6318
83.9282
87.3166
90.7964
94.3668
98.0268
101.775
105.609
109.528
113.528
117.608
121.763
125.992
130.291
134.655
139.082
143.566
148.104
152.691
157.322
161.993
166.699
171.434
176.193
180.97
185.76
190.556
195.352
200.123
204.865
209.569
214.229
218.836
223.382
227.858
232.255
236.567
240.783
244.897
248.9
252.785
256.543
260.167
263.651
266.987
270.169
273.191
276.047
278.732
281.239
283.565
285.705
287.657
289.416
290.98
292.347
293.516
294.485
295.253
295.82
296.187
296.353
296.321
296.092
295.668
295.052
294.247
293.257
292.087
290.739
289.219
287.529
285.679
283.674
281.52
279.221
276.776
274.21
271.523
268.719
265.805
262.793
259.688
256.497
253.228
249.89
246.488
243.032
239.528
235.983
232.404
228.8
225.177
221.542
217.904
214.272
210.655
207.063
203.504
199.98
196.497
193.06
189.677
186.356
183.112
179.962
176.932
174.054
171.372
168.911
166.723
6.03567
2.7355
2.17601
2.04803
2.0603
2.14113
2.26514
2.42113
2.60334
2.80838
3.03405
3.27883
3.5416
3.82161
4.11841
4.43182
4.76192
5.10904
5.47369
5.8566
6.25865
6.68086
7.12441
7.59059
8.08077
8.59648
9.13927
9.71081
10.3128
10.947
11.6151
12.319
13.0603
13.8408
14.6621
15.5261
16.4344
17.3887
18.3907
19.442
20.5445
21.6998
22.9096
24.1759
25.5004
26.8851
28.3321
29.8434
31.4212
33.0679
34.786
36.5777
38.4456
40.3922
42.4201
44.5318
46.7299
49.0167
51.3949
53.8667
56.4346
59.1005
61.8667
64.7351
67.7072
70.7848
73.9691
77.261
80.6614
84.1708
87.7892
91.5165
95.3521
99.2951
103.344
107.498
111.754
116.109
120.562
125.109
129.746
134.469
139.275
144.158
149.115
154.139
159.227
164.372
169.569
174.812
180.095
185.413
190.757
196.123
201.503
206.889
212.257
217.596
222.897
228.152
233.353
238.49
243.553
248.534
253.422
258.208
262.882
267.436
271.86
276.146
280.285
284.269
288.091
291.742
295.216
298.506
301.605
304.509
307.21
309.704
311.986
314.054
315.903
317.532
318.939
320.121
321.079
321.811
322.317
322.599
322.657
322.494
322.111
321.512
320.699
319.677
318.451
317.026
315.407
313.598
311.601
309.429
307.092
304.593
301.938
299.132
296.191
293.119
289.923
286.612
283.195
279.68
276.075
272.389
268.63
264.806
260.925
256.996
253.027
249.025
244.998
240.953
236.9
232.845
228.798
224.767
220.762
216.79
212.858
208.972
205.139
201.368
197.669
194.057
190.549
187.17
183.949
180.92
178.094
175.51
6.42832
2.91664
2.30584
2.15635
2.15623
2.22805
2.34422
2.49251
2.66667
2.86313
3.07964
3.31473
3.56739
3.83697
4.12311
4.42574
4.745
5.08125
5.43507
5.80722
6.19858
6.61023
7.04334
7.49921
7.97926
8.48499
9.01801
9.57999
10.1727
10.7979
11.4574
12.1532
12.8871
13.6612
14.4772
15.3373
16.2434
17.1975
18.2017
19.2582
20.3691
21.5365
22.7628
24.0503
25.4014
26.8187
28.3046
29.862
31.4936
33.2023
34.9912
36.8634
38.8219
40.87
43.0109
45.2478
47.584
50.0225
52.5666
55.2192
57.9832
60.8614
63.8563
66.9704
70.2059
73.5647
77.0483
80.6581
84.3951
88.2599
92.2526
96.373
100.62
104.994
109.491
114.111
118.851
123.707
128.676
133.755
138.939
144.223
149.602
155.071
160.623
166.254
171.956
177.725
183.552
189.431
195.356
201.318
207.31
213.323
219.351
225.376
231.366
237.318
243.222
249.068
254.848
260.55
266.163
271.677
277.08
282.362
287.512
292.52
297.377
302.072
306.598
310.944
315.102
319.064
322.823
326.371
329.703
332.811
335.689
338.332
340.735
342.895
344.809
346.476
347.892
349.058
349.972
350.634
351.045
351.206
351.119
350.786
350.212
349.398
348.349
347.068
345.566
343.846
341.914
339.777
337.44
334.913
332.204
329.322
326.273
323.065
319.71
316.216
312.591
308.844
304.985
301.023
296.968
292.828
288.613
284.331
279.992
275.605
271.178
266.719
262.237
257.741
253.238
248.737
244.246
239.774
235.331
230.925
226.563
222.253
218.004
213.824
209.727
205.726
201.84
198.09
194.501
191.103
187.895
184.912
6.71379
3.05411
2.40207
2.23353
2.22137
2.28373
2.39126
2.53092
2.69608
2.88299
3.08939
3.31384
3.55541
3.81356
4.08802
4.37879
4.68608
5.01032
5.35211
5.71224
6.09165
6.4914
6.91271
7.35689
7.8254
8.31976
8.84162
9.39271
9.97486
10.59
11.24
11.927
12.6532
13.4206
14.2315
15.0883
15.9933
16.9489
17.9577
19.0223
20.1453
21.3296
22.5779
23.8932
25.2785
26.7371
28.2722
29.8873
31.5857
33.3713
35.2477
37.2187
39.2884
41.4606
43.7393
46.1286
48.6324
51.2546
53.999
56.8692
59.8688
63.0011
66.2691
69.6758
73.2237
76.915
80.7517
84.7353
88.8667
93.1465
97.5748
102.151
106.875
111.744
116.756
121.909
127.2
132.625
138.179
143.858
149.657
155.569
161.588
167.707
173.92
180.219
186.598
193.05
199.565
206.138
212.758
219.419
226.11
232.823
239.545
246.232
252.877
259.47
266.001
272.461
278.836
285.116
291.289
297.343
303.263
309.039
314.66
320.114
325.391
330.48
335.373
340.059
344.53
348.776
352.791
356.566
360.096
363.374
366.393
369.145
371.628
373.839
375.775
377.434
378.816
379.919
380.744
381.291
381.559
381.551
381.271
380.723
379.91
378.836
377.507
375.928
374.107
372.05
369.766
367.26
364.541
361.617
358.5
355.196
351.716
348.068
344.263
340.311
336.223
332.006
327.673
323.233
318.697
314.073
309.373
304.606
299.782
294.91
289.999
285.059
280.099
275.127
270.152
265.183
260.229
255.297
250.398
245.541
240.734
235.986
231.306
226.704
222.194
217.79
213.509
209.372
205.401
201.617
198.016
194.632
6.90051
3.15086
2.46723
2.28221
2.25852
2.31116
2.40947
2.53982
2.69528
2.872
3.06771
3.28099
3.51101
3.75728
4.01963
4.29812
4.59303
4.90483
5.23418
5.58188
5.9489
6.33634
6.74546
7.17761
7.63428
8.11707
8.62772
9.16805
9.74001
10.3457
10.9872
11.6669
12.3872
13.1505
13.9594
14.8167
15.7253
16.6879
17.7078
18.7881
19.9321
21.1432
22.425
23.7812
25.2156
26.7321
28.3348
30.028
31.816
33.7033
35.6946
37.7945
40.0078
42.3394
44.7942
47.3769
50.0923
52.9451
55.9398
59.0807
62.3718
65.8167
69.419
73.182
77.1083
81.2005
85.4606
89.8898
94.4892
99.259
104.199
109.308
114.585
120.027
125.631
131.394
137.312
143.381
149.593
155.945
162.429
169.038
175.763
182.596
189.53
196.556
203.667
210.853
218.107
225.419
232.78
240.181
247.611
255.06
262.473
269.838
277.145
284.384
291.542
298.608
305.569
312.413
319.128
325.699
332.11
338.349
344.405
350.266
355.921
361.361
366.574
371.55
376.281
380.758
384.972
388.917
392.586
395.975
399.074
401.874
404.374
406.573
408.468
410.059
411.343
412.322
412.996
413.366
413.433
413.201
412.674
411.856
410.752
409.367
407.707
405.78
403.593
401.154
398.472
395.555
392.411
389.051
385.485
381.724
377.776
373.654
369.367
364.927
360.344
355.63
350.796
345.852
340.81
335.681
330.474
325.201
319.871
314.496
309.085
303.647
298.193
292.731
287.27
281.82
276.389
270.987
265.623
260.306
255.045
249.85
244.732
239.701
234.77
229.954
225.27
220.737
216.372
212.196
208.198
204.414
7.00013
3.21106
2.50474
2.30586
2.27137
2.31428
2.40308
2.52376
2.6692
2.83549
3.02037
3.22247
3.44101
3.67558
3.92607
4.1926
4.47552
4.77534
5.09277
5.42865
5.784
6.15999
6.55791
6.97923
7.42551
7.89849
8.40003
8.93215
9.497
10.0969
10.7343
11.4118
12.1323
12.8985
13.7137
14.581
15.5038
16.4858
17.5308
18.6425
19.8252
21.083
22.4205
23.8422
25.3529
26.9573
28.6606
30.4679
32.3846
34.4162
36.5684
38.8467
41.2569
43.8049
46.4963
49.3368
52.3321
55.4875
58.8082
62.299
65.964
69.8069
73.8313
78.0406
82.4375
87.0244
91.8028
96.7738
101.938
107.294
112.842
118.579
124.503
130.61
136.897
143.358
149.988
156.781
163.73
170.828
178.069
185.442
192.936
200.54
208.246
216.047
223.931
231.891
239.917
247.998
256.125
264.287
272.476
280.625
288.717
296.74
304.685
312.537
320.285
327.914
335.413
342.767
349.967
357
363.835
370.467
376.885
383.078
389.033
394.742
400.192
405.375
410.28
414.9
419.226
423.252
426.971
430.378
433.465
436.227
438.661
440.766
442.539
443.981
445.09
445.869
446.318
446.439
446.235
445.71
444.869
443.718
442.261
440.506
438.459
436.129
433.524
430.654
427.527
424.153
420.543
416.706
412.655
408.401
403.953
399.325
394.528
389.573
384.473
379.239
373.884
368.418
362.853
357.202
351.475
345.683
339.838
333.95
328.03
322.087
316.132
310.175
304.224
298.288
292.379
286.503
280.672
274.894
269.18
263.539
257.983
252.522
247.17
241.941
236.852
231.919
227.16
222.59
218.197
214.02
7.02703
3.2398
2.51867
2.3085
2.26418
2.29772
2.37715
2.48826
2.62387
2.78006
2.95461
3.14619
3.35409
3.57797
3.81779
4.07373
4.34619
4.63576
4.94322
5.2695
5.61572
5.98313
6.37318
6.78748
7.22778
7.69602
8.19434
8.72503
9.29059
9.89371
10.5373
11.2244
11.9585
12.743
13.5816
14.4784
15.4375
16.4633
17.5606
18.7341
19.9892
21.3311
22.7655
24.2981
25.9347
27.6812
29.5437
31.5285
33.6422
35.8914
38.2828
40.823
43.5188
46.3767
49.4034
52.6051
55.9882
59.5586
63.3222
67.2841
71.4472
75.8143
80.3886
85.1733
90.1706
95.382
100.808
106.449
112.303
118.37
124.646
131.127
137.81
144.69
151.761
159.015
166.446
174.046
181.806
189.719
197.778
205.977
214.285
222.699
231.21
239.808
248.484
257.228
266.031
274.882
283.769
292.682
301.542
310.332
319.04
327.653
336.158
344.542
352.79
360.889
368.825
376.584
384.153
391.518
398.661
405.569
412.23
418.634
424.769
430.624
436.189
441.455
446.413
451.054
455.372
459.359
463.01
466.319
469.282
471.894
474.152
476.055
477.603
478.794
479.631
480.115
480.247
480.032
479.473
478.575
477.343
475.785
473.906
471.714
469.218
466.427
463.349
459.996
456.377
452.503
448.385
444.035
439.464
434.685
429.71
424.552
419.222
413.734
408.099
402.331
396.442
390.444
384.35
378.171
371.92
365.608
359.246
352.846
346.419
339.974
333.522
327.074
320.638
314.225
307.843
301.502
295.212
288.982
282.823
276.745
270.759
264.877
259.111
253.476
247.989
242.664
237.516
232.559
227.779
223.219
6.99782
3.24272
2.51341
2.29456
2.24176
2.26681
2.33764
2.44002
2.5668
2.71414
2.87984
3.06269
3.26203
3.4776
3.70945
3.95787
4.22336
4.50664
4.8086
5.13037
5.47323
5.83868
6.22841
6.64432
7.08852
7.56333
8.07132
8.61529
9.19829
9.82365
10.4949
11.2161
11.9912
12.8248
13.7216
14.6867
15.7251
16.8427
18.0452
19.3391
20.7308
22.2274
23.836
25.564
27.4189
29.4068
31.535
33.8113
36.2435
38.8393
41.6064
44.5522
47.6841
51.009
54.5339
58.2651
62.2089
66.3714
70.7587
75.3787
80.2284
85.3052
90.6138
96.1561
101.933
107.944
114.188
120.663
127.366
134.292
141.437
148.795
156.36
164.123
172.078
180.214
188.523
196.996
205.621
214.388
223.287
232.308
241.432
250.65
259.951
269.325
278.762
288.253
297.787
307.36
316.93
326.424
335.832
345.138
354.329
363.392
372.311
381.074
389.666
398.072
406.28
414.275
422.044
429.573
436.848
443.856
450.586
457.025
463.164
468.993
474.502
479.681
484.524
489.023
493.171
496.961
500.39
503.453
506.146
508.466
510.411
511.98
513.174
513.994
514.44
514.517
514.226
513.573
512.563
511.2
509.492
507.446
505.07
502.372
499.362
496.049
492.443
488.557
484.4
479.984
475.322
470.426
465.308
459.981
454.458
448.753
442.877
436.845
430.669
424.363
417.939
411.411
404.79
398.09
391.322
384.499
377.632
370.733
363.812
356.88
349.949
343.026
336.124
329.25
322.414
315.627
308.898
302.236
295.651
289.155
282.758
276.472
270.31
264.286
258.415
252.712
247.19
241.861
236.711
231.786
6.92785
3.2251
2.49307
2.26823
2.20878
2.22692
2.29081
2.38636
2.50656
2.64769
2.80768
2.98542
3.1804
3.39251
3.62195
3.8692
4.135
4.42032
4.72637
5.05462
5.40676
5.78475
6.19081
6.62743
7.09738
7.60375
8.14994
8.73969
9.3771
10.0666
10.8129
11.6212
12.4974
13.4475
14.4782
15.5957
16.8067
18.1187
19.5397
21.078
22.7421
24.5411
26.4844
28.5823
30.8472
33.2783
35.886
38.6798
41.6686
44.8607
48.2636
51.8849
55.7311
59.8086
64.1227
68.6785
73.4802
78.5314
83.835
89.3931
95.2043
101.267
107.579
114.139
120.945
127.993
135.277
142.793
150.535
158.494
166.664
175.036
183.6
192.346
201.265
210.345
219.575
228.944
238.44
248.051
257.765
267.571
277.455
287.408
297.416
307.473
317.568
327.696
337.838
347.913
357.887
367.746
377.478
387.068
396.503
405.768
414.851
423.737
432.414
440.868
449.086
457.055
464.762
472.196
479.343
486.193
492.735
498.958
504.852
510.41
515.622
520.48
524.978
529.11
532.87
536.253
539.254
541.872
544.103
545.946
547.4
548.465
549.142
549.433
549.341
548.87
548.023
546.806
545.224
543.286
540.997
538.366
535.402
532.114
528.513
524.608
520.411
515.934
511.187
506.185
500.938
495.461
489.765
483.865
477.774
471.506
465.073
458.489
451.768
444.924
437.968
430.915
423.777
416.567
409.297
401.978
394.624
387.244
379.851
372.455
365.065
357.693
350.348
343.04
335.777
328.569
321.426
314.357
307.373
300.484
293.701
287.036
280.5
274.11
267.877
261.817
255.941
250.261
244.761
239.493
6.85091
3.1974
2.46641
2.23932
2.17692
2.19217
2.25362
2.34748
2.46699
2.60862
2.77054
2.95187
3.15237
3.37224
3.61207
3.87279
4.15565
4.46223
4.79443
5.1545
5.54504
5.96903
6.42982
6.93119
7.47735
8.07295
8.72305
9.43341
10.2104
11.0605
11.9902
13.0074
14.1208
15.34
16.6765
18.1371
19.7287
21.4627
23.3502
25.402
27.629
30.0419
32.6515
35.4682
38.5018
41.7588
45.2473
48.9747
52.9481
57.1733
61.6555
66.3984
71.4053
76.6781
82.2178
88.0245
94.0975
100.435
107.034
113.891
121.002
128.359
135.956
143.788
151.846
160.122
168.608
177.295
186.173
195.232
204.462
213.853
223.392
233.069
242.873
252.792
262.814
272.928
283.122
293.386
303.708
314.079
324.487
334.928
345.387
355.866
366.346
376.746
387.018
397.159
407.155
416.994
426.661
436.146
445.434
454.515
463.375
472.003
480.386
488.514
496.374
503.955
511.247
518.239
524.92
531.281
537.312
543.005
548.35
553.342
557.972
562.234
566.123
569.634
572.762
575.504
577.856
579.817
581.386
582.562
583.344
583.735
583.736
583.351
582.581
581.433
579.911
578.021
575.77
573.165
570.214
566.927
563.311
559.378
555.138
550.602
545.781
540.687
535.333
529.731
523.894
517.836
511.569
505.107
498.463
491.652
484.686
477.58
470.346
462.998
455.549
448.012
440.4
432.725
424.999
417.235
409.443
401.635
393.821
386.013
378.22
370.451
362.717
355.026
347.389
339.813
332.308
324.884
317.549
310.316
303.194
296.194
289.33
282.614
276.06
269.681
263.489
257.495
251.683
246.108
6.78994
3.16832
2.44213
2.21814
2.15891
2.17825
2.24529
2.34668
2.47605
2.63026
2.80794
3.00875
3.23306
3.48183
3.75654
4.05916
4.39214
4.75845
5.16161
5.60568
6.09532
6.63585
7.23321
7.89398
8.62581
9.43678
10.3348
11.3301
12.4352
13.6612
15.0138
16.5071
18.1543
19.9693
21.9654
24.155
26.5497
29.1619
32.0038
35.0868
38.4212
42.0166
45.8809
50.0211
54.4421
59.147
64.1375
69.4144
74.9769
80.823
86.9495
93.3521
100.025
106.963
114.157
121.601
129.285
137.202
145.341
153.693
162.248
170.996
179.926
189.028
198.292
207.707
217.262
226.948
236.754
246.67
256.685
266.79
276.975
287.23
297.545
307.91
318.316
328.757
339.221
349.701
360.194
370.688
381.172
391.673
402.134
412.484
422.681
432.729
442.615
452.328
461.859
471.196
480.33
489.248
497.941
506.398
514.61
522.565
530.254
537.667
544.794
551.627
558.155
564.37
570.264
575.827
581.053
585.933
590.462
594.632
598.439
601.876
604.94
607.627
609.932
611.854