/*--------------------------------*- C++ -*----------------------------------*\
  =========                 |
  \\      /  F ield         | OpenFOAM: The Open Source CFD Toolbox
   \\    /   O peration     | Website:  https://openfoam.org
    \\  /    A nd           | Version:  9
     \\/     M anipulation  |
\*---------------------------------------------------------------------------*/
FoamFile
{
    format      ascii;
    class       volScalarField;
    location    "0.25";
    object      kU;
}
// * * * * * * * * * * * * * * * * * * * * * * * * * * * * * * * * * * * * * //

dimensions      [0 2 -2 0 0 0 0];

internalField   nonuniform List<scalar> 
12225
(
0.353921
0.335043
0.316966
0.300961
0.288125
0.278906
0.273297
0.271001
0.271563
0.274466
0.279195
0.285281
0.292319
0.299971
0.307981
0.316137
0.32448
0.33656
0.436864
0.448979
0.438084
0.43306
0.438786
0.453583
0.474795
0.499972
0.527126
0.554773
0.581881
0.607788
0.632114
0.654683
0.675598
0.694757
0.714223
0.729512
0.395187
0.410874
0.410631
0.405747
0.40201
0.400923
0.402613
0.406806
0.413078
0.420974
0.430058
0.439951
0.450341
0.460986
0.471744
0.482502
0.493542
0.504235
0.379641
0.38484
0.386546
0.38573
0.383905
0.382026
0.380567
0.379738
0.379605
0.380146
0.381299
0.382982
0.385112
0.387615
0.390437
0.393542
0.396948
0.400552
0.374976
0.3759
0.376239
0.375721
0.37457
0.373084
0.371496
0.369967
0.368593
0.367426
0.366484
0.365767
0.365266
0.364966
0.364852
0.364917
0.365155
0.365534
0.373488
0.372555
0.371759
0.370807
0.369631
0.368275
0.366809
0.3653
0.363804
0.362358
0.36099
0.359714
0.358537
0.357461
0.356487
0.355615
0.354843
0.354166
0.373012
0.371296
0.369813
0.368416
0.367025
0.36561
0.364169
0.362712
0.361258
0.359824
0.358426
0.357073
0.355774
0.354533
0.353354
0.35224
0.351191
0.350215
0.372865
0.370838
0.369004
0.367311
0.365711
0.364174
0.362679
0.361216
0.359783
0.358381
0.357015
0.355688
0.354402
0.353161
0.351967
0.350822
0.349728
0.348696
0.37282
0.37068
0.368691
0.366836
0.365095
0.363449
0.36188
0.360376
0.358928
0.357531
0.356183
0.35488
0.353622
0.352409
0.351241
0.350118
0.349042
0.348023
0.372806
0.370628
0.368578
0.366648
0.364829
0.36311
0.361482
0.359934
0.358457
0.357046
0.355694
0.354397
0.353153
0.351959
0.350812
0.349713
0.34866
0.347664
0.372801
0.370609
0.368537
0.366576
0.36472
0.362964
0.361299
0.359719
0.358216
0.356785
0.355421
0.354118
0.352874
0.351685
0.350547
0.34946
0.348421
0.34744
0.372799
0.370602
0.368522
0.36655
0.36468
0.362907
0.361225
0.359627
0.358109
0.356664
0.355289
0.353978
0.352729
0.351537
0.3504
0.349315
0.348279
0.347304
0.372797
0.370599
0.368514
0.366537
0.364661
0.36288
0.361188
0.359581
0.358053
0.3566
0.355216
0.353899
0.352644
0.351448
0.350308
0.349221
0.348185
0.34721
0.372796
0.370596
0.368509
0.366528
0.364649
0.362864
0.361168
0.359555
0.358022
0.356563
0.355174
0.353851
0.352592
0.351392
0.350248
0.349157
0.348119
0.347141
0.372795
0.370593
0.368505
0.366523
0.364641
0.362853
0.361154
0.359539
0.358003
0.35654
0.355148
0.353823
0.35256
0.351356
0.350209
0.349116
0.348074
0.347094
0.372794
0.370592
0.368502
0.366518
0.364634
0.362845
0.361145
0.359527
0.357989
0.356525
0.355131
0.353803
0.352538
0.351333
0.350184
0.349088
0.348044
0.347061
0.372794
0.37059
0.368499
0.366515
0.36463
0.362839
0.361137
0.359519
0.357979
0.356514
0.355118
0.353789
0.352523
0.351316
0.350165
0.349067
0.348021
0.347037
0.372794
0.370589
0.368498
0.366512
0.364627
0.362835
0.361132
0.359513
0.357972
0.356506
0.355109
0.353779
0.352511
0.351303
0.350151
0.349052
0.348005
0.347019
0.372793
0.370589
0.368497
0.366512
0.364626
0.362834
0.361131
0.359511
0.357969
0.356502
0.355105
0.353774
0.352506
0.351297
0.350144
0.349045
0.347997
0.34701
0.372794
0.37059
0.368498
0.366513
0.364628
0.362836
0.361133
0.359514
0.357973
0.356506
0.355109
0.353779
0.352511
0.351302
0.350149
0.349049
0.348001
0.347015
0.372794
0.370591
0.3685
0.366516
0.364632
0.362841
0.36114
0.359522
0.357982
0.356517
0.355122
0.353793
0.352526
0.351319
0.350167
0.349069
0.348023
0.347037
0.372795
0.370593
0.368504
0.366522
0.364641
0.362855
0.361158
0.359546
0.358012
0.356552
0.355163
0.353839
0.352578
0.351375
0.350228
0.349134
0.348091
0.347108
0.372796
0.370598
0.368518
0.366547
0.364681
0.362912
0.361235
0.359642
0.358127
0.356685
0.355311
0.354001
0.35275
0.351556
0.350415
0.349324
0.348282
0.347298
0.372804
0.370631
0.368592
0.366676
0.364872
0.363166
0.361548
0.360006
0.358532
0.357121
0.355767
0.354467
0.353219
0.352019
0.350867
0.349761
0.348701
0.347697
0.372856
0.370818
0.368973
0.367264
0.365645
0.364085
0.362567
0.361083
0.359631
0.358213
0.356833
0.355493
0.354196
0.352946
0.351743
0.35059
0.349486
0.348445
0.373166
0.37177
0.370579
0.369371
0.368049
0.366605
0.365072
0.363492
0.361905
0.360342
0.358826
0.357372
0.355991
0.354688
0.353468
0.352329
0.351272
0.350303
0.374797
0.375829
0.376175
0.375401
0.373834
0.371876
0.369792
0.36774
0.365814
0.364067
0.362524
0.361195
0.360075
0.359157
0.358425
0.357864
0.357457
0.35719
0.382729
0.39167
0.392375
0.388805
0.384384
0.380403
0.377247
0.374998
0.373621
0.373039
0.373153
0.373867
0.375084
0.376717
0.378686
0.380923
0.383366
0.385946
0.407499
0.414514
0.405423
0.395992
0.390555
0.389292
0.391456
0.396217
0.402838
0.410728
0.419436
0.428623
0.438032
0.447477
0.456822
0.465971
0.474881
0.483463
0.360554
0.347547
0.334933
0.322917
0.311965
0.302353
0.29419
0.287471
0.282115
0.278005
0.275002
0.272968
0.271768
0.271276
0.271379
0.271976
0.272979
0.274306
0.000695054
0.00391285
0.00647903
0.00874628
0.0110838
0.013851
0.0170591
0.0208057
0.0251989
0.0301038
0.035276
0.040717
0.0463874
0.0522384
0.0582223
0.0642944
0.0704135
0.0765409
0.0826398
0.0886745
0.0946094
0.100408
0.106032
0.111439
0.116585
0.121421
0.125892
0.129943
0.133521
0.136584
0.139115
0.141117
0.142579
0.143392
0.143344
0.142629
0.1431
0.144156
0.144689
0.143138
0.14428
0.145315
0.145883
0.148092
0.150963
0.157763
0.164957
0.172391
0.180034
0.187871
0.195891
0.204086
0.212451
0.220984
0.229679
0.238534
0.247547
0.256715
0.266035
0.275503
0.285117
0.294872
0.304766
0.314792
0.324948
0.335227
0.345624
0.356134
0.36675
0.377465
0.388274
0.399168
0.41014
0.421183
0.432288
0.443448
0.454653
0.465895
0.477166
0.488456
0.499756
0.511058
0.522351
0.533626
0.544875
0.556087
0.567253
0.578363
0.589408
0.600377
0.61126
0.622048
0.632729
0.643295
0.653734
0.66404
0.674207
0.684237
0.694143
0.703959
0.713662
0.72314
0.732398
0.741433
0.750236
0.758796
0.767104
0.775147
0.782916
0.7904
0.797588
0.804471
0.81104
0.817285
0.823199
0.828773
0.834
0.838873
0.843386
0.847532
0.851308
0.854708
0.857728
0.860365
0.862617
0.864481
0.865956
0.867041
0.867737
0.868043
0.867962
0.867494
0.866643
0.865413
0.863807
0.861829
0.859486
0.856782
0.853725
0.850322
0.84658
0.842508
0.838114
0.833408
0.8284
0.8231
0.81752
0.811669
0.80556
0.799204
0.792614
0.785802
0.778781
0.771565
0.764165
0.756593
0.748868
0.740999
0.733001
0.724889
0.716664
0.708371
0.699984
0.69157
0.683208
0.675772
0.671843
0.668423
0.665012
0.661585
0.658143
0.654683
0.651199
0.647671
0.644052
0.640243
0.636011
0.630756
0.623004
0.606249
0.002658
0.0111552
0.0168244
0.021353
0.0256078
0.029788
0.0341384
0.0388146
0.0438711
0.0492854
0.0550007
0.0609673
0.0671391
0.0734737
0.0799332
0.0864831
0.0930922
0.0997318
0.106375
0.112997
0.119572
0.126076
0.132485
0.138773
0.144914
0.150881
0.156647
0.162191
0.167505
0.172601
0.17752
0.182326
0.187091
0.191896
0.196907
0.202391
0.208351
0.214965
0.222187
0.230368
0.240017
0.251804
0.262778
0.274062
0.285265
0.296804
0.308779
0.321179
0.33396
0.347099
0.36058
0.374394
0.388534
0.402996
0.417779
0.432878
0.448293
0.464022
0.480061
0.49641
0.513065
0.530023
0.547281
0.564833
0.582676
0.600803
0.619209
0.637886
0.656827
0.676023
0.695467
0.715147
0.735054
0.755178
0.775505
0.796025
0.816725
0.837591
0.858611
0.879769
0.901053
0.922446
0.943934
0.965502
0.987135
1.00882
1.03053
1.05226
1.07399
1.0957
1.11739
1.13902
1.16058
1.18206
1.20344
1.2247
1.24581
1.26677
1.28753
1.30803
1.32809
1.34784
1.36731
1.38647
1.40532
1.42382
1.44195
1.4597
1.47704
1.49395
1.51041
1.52639
1.54189
1.55687
1.57132
1.58522
1.59856
1.61132
1.62347
1.63502
1.64594
1.65622
1.66584
1.67481
1.6831
1.69071
1.69763
1.70386
1.70939
1.71422
1.71833
1.72174
1.72444
1.72643
1.72771
1.7283
1.72818
1.72737
1.72588
1.72371
1.72087
1.71737
1.71323
1.70846
1.70307
1.69708
1.6905
1.68335
1.67566
1.66742
1.65868
1.64944
1.63974
1.62958
1.619
1.60801
1.59665
1.58493
1.57288
1.56053
1.54786
1.53499
1.52182
1.50852
1.49516
1.48192
1.46923
1.45662
1.44396
1.43125
1.41852
1.40576
1.393
1.38023
1.36742
1.35455
1.34146
1.32802
1.313
1.29356
0.00532194
0.0185036
0.0262039
0.0320931
0.037291
0.0423267
0.0474603
0.0528309
0.0584979
0.0644658
0.070708
0.0771868
0.0838632
0.090701
0.0976688
0.104739
0.11189
0.1191
0.126353
0.133635
0.140933
0.148236
0.155535
0.162824
0.170099
0.177359
0.184612
0.191876
0.199183
0.206588
0.214164
0.222
0.230185
0.238811
0.247985
0.257776
0.268123
0.279029
0.290579
0.302861
0.315959
0.32987
0.344351
0.359181
0.374284
0.389723
0.405575
0.42187
0.438607
0.455775
0.473366
0.491369
0.509781
0.528594
0.547805
0.56741
0.587406
0.60779
0.628557
0.649704
0.671226
0.69312
0.715379
0.737998
0.76097
0.784288
0.807943
0.831927
0.856229
0.88084
0.905747
0.930939
0.956402
0.982124
1.00809
1.03428
1.06069
1.08729
1.11407
1.14101
1.16809
1.1953
1.22261
1.25001
1.27748
1.305
1.33254
1.36009
1.38763
1.41513
1.44259
1.46996
1.49725
1.52442
1.55145
1.57833
1.60503
1.63155
1.65785
1.68377
1.70935
1.73458
1.75944
1.78393
1.808
1.83163
1.85479
1.87746
1.8996
1.92119
1.9422
1.9626
1.98237
2.00148
2.01991
2.03763
2.05463
2.07087
2.08635
2.10104
2.11493
2.12799
2.14021
2.15158
2.16209
2.17172
2.18047
2.18832
2.19528
2.20133
2.20647
2.2107
2.21402
2.21643
2.21793
2.21853
2.21824
2.21706
2.21499
2.21206
2.20828
2.20365
2.19819
2.19193
2.18487
2.17704
2.16846
2.15915
2.14913
2.13842
2.12707
2.11508
2.10248
2.08931
2.07559
2.06135
2.04663
2.03145
2.01584
1.99986
1.98342
1.9668
1.9499
1.93279
1.91554
1.89829
1.88124
1.86421
1.84714
1.83002
1.81288
1.79574
1.77862
1.76155
1.74455
1.72763
1.7108
1.6941
1.67699
1.6591
0.00849854
0.0254474
0.0348484
0.041704
0.0476887
0.0533939
0.059108
0.0649865
0.071106
0.0774911
0.0841346
0.0910125
0.0980951
0.105353
0.112761
0.120296
0.127943
0.135688
0.143523
0.151442
0.159442
0.167524
0.175691
0.18395
0.192315
0.200802
0.209437
0.218253
0.227298
0.23663
0.246316
0.256427
0.267029
0.278181
0.289935
0.302325
0.315347
0.329002
0.34331
0.358294
0.373965
0.390304
0.407231
0.424644
0.442479
0.460731
0.479423
0.498575
0.518193
0.53828
0.558833
0.579849
0.601324
0.623257
0.645644
0.668482
0.691769
0.715503
0.739679
0.764294
0.789345
0.814827
0.840734
0.867061
0.8938
0.920944
0.948484
0.976411
1.00471
1.03338
1.0624
1.09175
1.12143
1.15141
1.18169
1.21224
1.24304
1.27408
1.30533
1.33678
1.3684
1.40017
1.43207
1.46407
1.49616
1.52831
1.5605
1.59269
1.62488
1.65703
1.68912
1.72112
1.75302
1.78479
1.81641
1.84785
1.87909
1.91011
1.94083
1.97117
2.00112
2.03066
2.05979
2.08845
2.11663
2.14428
2.17138
2.19788
2.22376
2.24898
2.27352
2.29733
2.32039
2.34267
2.36414
2.38478
2.40455
2.42343
2.44139
2.45843
2.4745
2.4896
2.50371
2.51681
2.52889
2.53993
2.54992
2.55886
2.56674
2.57354
2.57928
2.58394
2.58752
2.59003
2.59148
2.59186
2.59119
2.58948
2.58673
2.58296
2.57818
2.57242
2.56568
2.558
2.54939
2.53987
2.52947
2.51822
2.50614
2.49326
2.47962
2.46523
2.45014
2.43438
2.41799
2.40096
2.3834
2.36529
2.34667
2.32767
2.30826
2.28852
2.26848
2.24819
2.22771
2.20716
2.18665
2.16612
2.14555
2.12494
2.10433
2.08374
2.06322
2.04282
2.02261
2.00265
1.98306
1.96404
1.94542
1.92736
0.0116587
0.0318525
0.0425852
0.0503528
0.05704
0.0633146
0.069501
0.0757778
0.0822416
0.088937
0.0958747
0.103046
0.110431
0.118011
0.125765
0.133677
0.141736
0.149935
0.15827
0.166744
0.17536
0.184128
0.193061
0.202174
0.21149
0.221035
0.230844
0.240957
0.251421
0.26229
0.27362
0.285467
0.29788
0.3109
0.324556
0.338868
0.353839
0.369465
0.385745
0.402683
0.420271
0.438491
0.457304
0.476662
0.496529
0.51689
0.537748
0.559109
0.580978
0.60336
0.626254
0.649662
0.673584
0.698019
0.722967
0.748427
0.774398
0.800879
0.827867
0.855361
0.883356
0.91185
0.940838
0.970314
1.00027
1.0307
1.0616
1.09295
1.12474
1.15697
1.18961
1.22265
1.25608
1.28988
1.32403
1.3585
1.39329
1.42836
1.46369
1.49926
1.53504
1.57101
1.60715
1.64341
1.67979
1.71624
1.75275
1.78927
1.8258
1.86229
1.89873
1.93508
1.97131
2.00739
2.04331
2.07903
2.11452
2.14976
2.1846
2.21903
2.25302
2.28656
2.31961
2.35213
2.38408
2.41543
2.44614
2.47617
2.50547
2.53402
2.56177
2.5887
2.61475
2.63991
2.66413
2.68739
2.70965
2.73089
2.75108
2.7702
2.78821
2.80511
2.82086
2.83546
2.84889
2.86113
2.87217
2.882
2.89062
2.89801
2.90418
2.90912
2.91284
2.91533
2.9166
2.91667
2.91554
2.91322
2.90972
2.90506
2.89926
2.89235
2.88433
2.87523
2.86509
2.85392
2.84175
2.82862
2.81456
2.79959
2.78376
2.76711
2.74963
2.73143
2.71251
2.69284
2.67263
2.65183
2.6305
2.6087
2.58646
2.56384
2.54087
2.51762
2.49414
2.47052
2.44686
2.42314
2.39938
2.37558
2.3518
2.32809
2.30449
2.28109
2.25799
2.23532
2.21326
2.1921
2.17181
2.15258
0.0146123
0.0373783
0.0493683
0.0579789
0.065303
0.0720802
0.0786702
0.0852743
0.0920089
0.0989367
0.106086
0.113463
0.121061
0.128869
0.136875
0.145068
0.153444
0.161998
0.170734
0.179659
0.188781
0.198117
0.207685
0.217507
0.22761
0.238028
0.248795
0.259953
0.271546
0.283621
0.296224
0.309398
0.323181
0.337602
0.352682
0.36843
0.38485
0.401938
0.419689
0.438098
0.457157
0.476852
0.497161
0.518061
0.539532
0.561562
0.584149
0.607293
0.631
0.655272
0.680112
0.705524
0.73151
0.758072
0.785213
0.812934
0.841235
0.870117
0.89958
0.929623
0.960245
0.991442
1.02321
1.05555
1.08845
1.1219
1.15589
1.19042
1.22548
1.26104
1.2971
1.33364
1.37063
1.40807
1.44592
1.48417
1.5228
1.56177
1.60105
1.64063
1.68047
1.72054
1.76082
1.80126
1.84184
1.88253
1.92329
1.96408
2.00489
2.04567
2.0864
2.12703
2.16754
2.20789
2.24805
2.28799
2.32766
2.36702
2.40593
2.44437
2.48233
2.51976
2.55664
2.59292
2.62855
2.6635
2.69772
2.73117
2.76379
2.79556
2.82642
2.85634
2.88527
2.91319
2.94004
2.96581
2.99045
3.01393
3.03623
3.05731
3.07714
3.09572
3.113
3.12899
3.14365
3.15697
3.16895
3.17957
3.18882
3.1967
3.2032
3.20833
3.21208
3.21447
3.21549
3.21517
3.2135
3.21051
3.2062
3.20061
3.19374
3.18563
3.17629
3.16576
3.15406
3.14122
3.12728
3.11228
3.09623
3.07918
3.06119
3.04229
3.02246
3.00185
2.98048
2.95835
2.93557
2.91216
2.88816
2.86364
2.83864
2.81321
2.7874
2.76127
2.73488
2.7083
2.68161
2.65485
2.62803
2.60119
2.57438
2.54767
2.52114
2.49489
2.46903
2.44377
2.41931
2.39596
2.37373
2.35272
0.0171391
0.042116
0.0551913
0.0645412
0.0724254
0.0796409
0.0865761
0.0934514
0.1004
0.1075
0.114796
0.122308
0.130042
0.137998
0.14617
0.154556
0.163155
0.17197
0.181006
0.190275
0.199792
0.209575
0.219647
0.230033
0.240764
0.251874
0.263397
0.275372
0.28784
0.300839
0.314409
0.328583
0.343391
0.358855
0.374991
0.391806
0.409305
0.427485
0.446342
0.465872
0.486069
0.506924
0.528426
0.550563
0.573325
0.596707
0.620706
0.645323
0.670563
0.69643
0.722929
0.750065
0.777844
0.806269
0.835347
0.86508
0.895472
0.926525
0.958242
0.990624
1.02367
1.05738
1.09175
1.12678
1.16245
1.19878
1.23574
1.27332
1.31152
1.35032
1.3897
1.42964
1.47013
1.51115
1.55266
1.59464
1.63706
1.6799
1.72313
1.7667
1.8106
1.85477
1.89919
1.94382
1.98862
2.03355
2.07858
2.12367
2.16878
2.21387
2.25891
2.30385
2.34866
2.39329
2.43771
2.48189
2.52578
2.56922
2.61218
2.65463
2.69653
2.73784
2.77853
2.81854
2.85783
2.89634
2.93403
2.97084
3.00674
3.04166
3.07557
3.10843
3.14018
3.17078
3.2002
3.2284
3.25534
3.28099
3.3053
3.32826
3.34983
3.37
3.38872
3.406
3.4218
3.43613
3.44895
3.46026
3.47006
3.47834
3.48509
3.49033
3.49404
3.49624
3.49694
3.49615
3.49388
3.49015
3.48498
3.47839
3.4704
3.46104
3.45035
3.43834
3.42505
3.41051
3.39477
3.37788
3.35985
3.34069
3.32055
3.29942
3.27733
3.25437
3.23058
3.20599
3.18067
3.15467
3.12804
3.10084
3.07311
3.04492
3.01631
2.98735
2.95809
2.92861
2.89898
2.86925
2.83945
2.80965
2.7799
2.75028
2.72089
2.69185
2.66331
2.63548
2.6086
2.58296
2.55855
2.53539
0.0192901
0.046086
0.0600584
0.0700274
0.0783828
0.0859664
0.0931875
0.100281
0.107393
0.114615
0.122004
0.129594
0.137402
0.145437
0.153703
0.162204
0.170944
0.179931
0.189175
0.198691
0.208496
0.218612
0.229063
0.239877
0.251083
0.262716
0.274808
0.287395
0.300512
0.314194
0.328471
0.343374
0.358925
0.375144
0.392045
0.409636
0.427923
0.446907
0.466587
0.486963
0.508031
0.529789
0.552234
0.57536
0.599166
0.623649
0.648812
0.674658
0.701194
0.728425
0.756358
0.785003
0.814366
0.844455
0.875278
0.906841
0.939149
0.972209
1.00602
1.0406
1.07593
1.11203
1.14888
1.1865
1.22486
1.26397
1.30382
1.34439
1.38568
1.42767
1.47033
1.51366
1.55763
1.6022
1.64737
1.69308
1.73932
1.78606
1.83324
1.88084
1.92881
1.97712
2.02573
2.07458
2.12364
2.17287
2.22221
2.27163
2.32108
2.37052
2.4199
2.46918
2.51832
2.56726
2.61597
2.66439
2.71247
2.76002
2.80703
2.85348
2.89931
2.94449
2.98897
3.03268
3.07558
3.11761
3.15872
3.19886
3.23796
3.27598
3.31288
3.34859
3.38308
3.4163
3.4482
3.47874
3.5079
3.53561
3.56186
3.5866
3.60981
3.63147
3.65154
3.67001
3.68686
3.70208
3.71565
3.72757
3.73783
3.74641
3.75333
3.75857
3.76216
3.7641
3.7644
3.76307
3.76013
3.7556
3.7495
3.74186
3.73269
3.72204
3.70994
3.69643
3.68152
3.66523
3.64769
3.62889
3.60889
3.58771
3.56543
3.5421
3.51776
3.49246
3.46627
3.43924
3.41141
3.38286
3.35362
3.32377
3.29336
3.26245
3.23108
3.19933
3.16726
3.13494
3.10243
3.0698
3.0371
3.0044
2.97178
2.93932
2.90714
2.87536
2.84417
2.81378
2.78443
2.7564
2.72961
2.7041
0.0210502
0.0493045
0.0639889
0.0744521
0.083184
0.09106
0.0985047
0.105763
0.112991
0.120289
0.127725
0.135344
0.143173
0.151231
0.15953
0.168079
0.176889
0.185972
0.195341
0.205014
0.21501
0.225352
0.236065
0.247177
0.258717
0.270717
0.283207
0.296221
0.309789
0.323941
0.338705
0.354106
0.370166
0.386903
0.404331
0.42246
0.4413
0.460855
0.481129
0.502125
0.523846
0.546295
0.569473
0.593383
0.618027
0.643411
0.669539
0.696419
0.72406
0.752472
0.781665
0.811649
0.842437
0.874037
0.906462
0.939719
0.97382
1.00877
1.04458
1.08125
1.11878
1.15718
1.19646
1.23659
1.27759
1.31945
1.36215
1.40569
1.45006
1.49522
1.54118
1.58789
1.63534
1.6835
1.73234
1.78182
1.83191
1.88256
1.93374
1.98541
2.0375
2.08999
2.14282
2.19593
2.24929
2.30283
2.35651
2.41029
2.4641
2.5179
2.57164
2.62527
2.67874
2.732
2.78499
2.83768
2.88986
2.94148
2.99251
3.0429
3.09262
3.1416
3.1898
3.23714
3.28358
3.32905
3.37349
3.41684
3.45905
3.50007
3.53983
3.57829
3.6154
3.6511
3.68536
3.71813
3.74936
3.77902
3.80707
3.83347
3.85819
3.88121
3.90249
3.92203
3.93981
3.95581
3.97001
3.98242
3.99302
4.0018
4.00877
4.01394
4.01731
4.0189
4.01871
4.01676
4.01308
4.00768
4.00059
3.99185
3.98145
3.96946
3.95593
3.94088
3.92436
3.90638
3.88704
3.86636
3.8444
3.8212
3.79682
3.77131
3.74474
3.71715
3.6886
3.65915
3.62887
3.59781
3.56603
3.53359
3.50055
3.46697
3.43291
3.39844
3.36362
3.32853
3.29322
3.25777
3.22226
3.18675
3.15133
3.1161
3.08119
3.04674
3.01294
2.98
2.94816
2.91766
2.88839
2.86039
0.0224206
0.0518045
0.0670243
0.0778584
0.0868708
0.094961
0.102564
0.109933
0.117227
0.124558
0.131999
0.139605
0.147412
0.155445
0.163724
0.172266
0.181084
0.190195
0.199616
0.209364
0.219461
0.22993
0.240797
0.252088
0.263831
0.276055
0.288791
0.302066
0.31591
0.33035
0.345411
0.361117
0.377489
0.394547
0.412305
0.430778
0.449977
0.469912
0.490592
0.512026
0.534221
0.557185
0.580926
0.605452
0.630772
0.656896
0.683834
0.711598
0.7402
0.769655
0.799976
0.831177
0.863274
0.896281
0.93021
0.965076
1.00089
1.03766
1.0754
1.11411
1.15381
1.19449
1.23615
1.2788
1.32243
1.36703
1.41259
1.45911
1.50656
1.55493
1.60419
1.65433
1.7053
1.75707
1.80962
1.8629
1.91687
1.97149
2.02669
2.08245
2.1387
2.19538
2.25244
2.30983
2.36749
2.42535
2.48337
2.54148
2.59963
2.65777
2.71583
2.77377
2.83152
2.88903
2.94624
3.00305
3.05926
3.11485
3.16978
3.22402
3.27749
3.33015
3.38193
3.43276
3.48258
3.53133
3.57894
3.62534
3.67049
3.71432
3.75677
3.79779
3.83733
3.87534
3.91176
3.94656
3.9797
4.01112
4.04079
4.06867
4.09472
4.11893
4.14126
4.1617
4.18024
4.19686
4.21155
4.22431
4.23511
4.24397
4.25087
4.25584
4.25889
4.26002
4.25925
4.2566
4.2521
4.24577
4.23764
4.22775
4.21612
4.20279
4.18782
4.17125
4.15311
4.13345
4.11233
4.08981
4.06592
4.04073
4.01429
3.98666
3.95791
3.92808
3.89725
3.86546
3.8328
3.79931
3.76506
3.73011
3.69454
3.65839
3.62174
3.58464
3.54717
3.5094
3.47141
3.43326
3.39503
3.35682
3.3187
3.2808
3.24325
3.2062
3.16984
3.13439
3.10006
3.06706
3.03526
3.00473
0.0234171
0.0536361
0.0692272
0.080315
0.089514
0.0977406
0.105437
0.112859
0.120173
0.127492
0.134899
0.142454
0.150198
0.158166
0.166382
0.174867
0.18364
0.192719
0.202124
0.211873
0.22199
0.232497
0.243418
0.254779
0.266607
0.278929
0.291773
0.305167
0.319136
0.333708
0.348908
0.364758
0.381281
0.398498
0.416427
0.435085
0.454489
0.474653
0.495592
0.517319
0.539849
0.563194
0.587369
0.612387
0.638264
0.665015
0.692655
0.721201
0.750671
0.781082
0.812454
0.844804
0.87815
0.912512
0.947906
0.984348
1.02185
1.06043
1.1001
1.14087
1.18273
1.22571
1.26979
1.31498
1.36127
1.40866
1.45713
1.50667
1.55726
1.60889
1.66151
1.71511
1.76964
1.82508
1.88138
1.93849
1.99637
2.05496
2.11421
2.17406
2.23446
2.29533
2.35661
2.41823
2.48014
2.54226
2.60454
2.66691
2.72931
2.79168
2.85395
2.91608
2.97798
3.03961
3.10089
3.16158
3.22163
3.28099
3.33964
3.39749
3.4545
3.51061
3.56574
3.61982
3.67278
3.72455
3.77507
3.82426
3.87207
3.91844
3.96332
4.00663
4.04833
4.08838
4.1267
4.16328
4.19806
4.231
4.26205
4.29116
4.31831
4.34347
4.36663
4.38776
4.40685
4.4239
4.43889
4.45183
4.46268
4.47144
4.47814
4.48278
4.48537
4.48595
4.48451
4.48109
4.4757
4.4684
4.45919
4.44813
4.43524
4.42058
4.40418
4.38609
4.36636
4.34505
4.3222
4.29787
4.27212
4.245
4.21658
4.18691
4.15607
4.1241
4.09108
4.05707
4.02213
3.98633
3.94974
3.91242
3.87443
3.83584
3.79673
3.75714
3.71717
3.67687
3.63632
3.59561
3.55482
3.51404
3.47336
3.43292
3.39284
3.35329
3.31446
3.27656
3.23979
3.20432
3.17
3.13696
0.0240691
0.054864
0.0706775
0.0819104
0.0912073
0.099495
0.10722
0.11464
0.121924
0.12919
0.136524
0.143991
0.151638
0.159503
0.167616
0.176002
0.184682
0.193676
0.203006
0.212691
0.222754
0.233217
0.244104
0.255439
0.267249
0.279559
0.292397
0.305788
0.319759
0.334337
0.349547
0.365413
0.381961
0.399212
0.417191
0.435917
0.455413
0.475698
0.496792
0.518716
0.541489
0.565132
0.589664
0.615106
0.641478
0.668802
0.697098
0.72639
0.7567
0.78805
0.820464
0.853964
0.888573
0.924312
0.961203
0.999264
1.03851
1.07896
1.12063
1.16352
1.20765
1.25301
1.2996
1.34742
1.39647
1.44674
1.49821
1.55087
1.60468
1.65963
1.71569
1.77282
1.83097
1.89011
1.95018
2.01114
2.07293
2.13549
2.19876
2.26267
2.32715
2.39214
2.45755
2.52331
2.58934
2.65558
2.72196
2.78842
2.85487
2.92127
2.98754
3.05362
3.11945
3.18497
3.2499
3.31418
3.37776
3.44058
3.5026
3.56374
3.62394
3.68313
3.74126
3.79824
3.85397
3.90839
3.96143
4.01303
4.06313
4.11167
4.15859
4.20382
4.24732
4.28904
4.32891
4.36691
4.40299
4.43713
4.46924
4.49927
4.52721
4.55304
4.57675
4.59831
4.61771
4.63494
4.65001
4.66289
4.67359
4.6821
4.68844
4.69261
4.69465
4.69456
4.69237
4.68809
4.68178
4.67345
4.66314
4.65089
4.63674
4.62074
4.60293
4.58337
4.5621
4.53918
4.51467
4.48862
4.46109
4.43215
4.40186
4.37027
4.33746
4.30349
4.26843
4.23234
4.19528
4.15734
4.11857
4.07903
4.03881
3.99797
3.95657
3.91468
3.87237
3.82973
3.78682
3.74373
3.70056
3.65739
3.61433
3.57151
3.52906
3.48716
3.44598
3.40574
3.36662
3.32876
3.292
3.25651
0.0244174
0.0555634
0.0714673
0.0827473
0.0920602
0.100338
0.108028
0.115392
0.122599
0.12977
0.136994
0.144339
0.151856
0.159585
0.167561
0.175809
0.184353
0.193216
0.202419
0.211982
0.221927
0.232277
0.243054
0.254284
0.265991
0.278201
0.29094
0.304235
0.318115
0.332605
0.347733
0.363527
0.380014
0.397222
0.415176
0.433903
0.45343
0.473784
0.49499
0.517075
0.540067
0.563992
0.588878
0.61475
0.641637
0.669564
0.69856
0.728653
0.759869
0.792237
0.825784
0.860538
0.896525
0.933768
0.972293
1.01212
1.05327
1.09575
1.13959
1.18479
1.23135
1.27927
1.32854
1.37917
1.43114
1.48444
1.53906
1.59495
1.65211
1.7105
1.77007
1.83079
1.8926
1.95547
2.01932
2.0841
2.14975
2.21621
2.28339
2.35124
2.41967
2.48862
2.55796
2.62763
2.69755
2.76764
2.83783
2.90806
2.97825
3.04833
3.11824
3.18792
3.2573
3.32611
3.39425
3.46167
3.52832
3.59412
3.65902
3.72294
3.78582
3.8476
3.90821
3.9676
4.02558
4.08212
4.13718
4.19068
4.24256
4.29276
4.34123
4.3879
4.43272
4.47564
4.51661
4.55558
4.59252
4.62739
4.66013
4.6907
4.71908
4.74525
4.76919
4.79087
4.8103
4.82747
4.84236
4.85498
4.86532
4.87339
4.8792
4.88277
4.88411
4.88325
4.88021
4.87502
4.86771
4.85832
4.84689
4.83345
4.81805
4.80074
4.78157
4.76059
4.73786
4.71342
4.68735
4.6597
4.63053
4.59991
4.56789
4.53455
4.49995
4.46415
4.42724
4.38926
4.3503
4.31041
4.26968
4.22816
4.18593
4.14305
4.0996
4.05563
4.01124
3.96648
3.92145
3.87622
3.83089
3.78555
3.74033
3.69534
3.65072
3.60665
3.5633
3.52088
3.47954
3.43942
3.40036
3.36255
0.0245119
0.0558175
0.0716967
0.0829366
0.0921914
0.100393
0.107991
0.115247
0.122331
0.129368
0.136446
0.143637
0.150993
0.158557
0.166364
0.174442
0.182815
0.191507
0.200539
0.209932
0.219709
0.229891
0.240502
0.251567
0.26311
0.275159
0.28774
0.300882
0.314615
0.328968
0.343972
0.359658
0.376057
0.393201
0.411123
0.429855
0.44943
0.469881
0.491241
0.513546
0.536829
0.561126
0.586471
0.6129
0.640445
0.669137
0.69901
0.730096
0.762428
0.79604
0.830962
0.867224
0.904855
0.943881
0.984326
1.02621
1.06956
1.11438
1.1607
1.20851
1.25781
1.30858
1.36081
1.4145
1.46963
1.52619
1.58413
1.64344
1.70407
1.76599
1.82915
1.8935
1.95898
2.02552
2.09308
2.16158
2.23094
2.30109
2.37197
2.44348
2.51558
2.5882
2.66113
2.73431
2.80768
2.88117
2.95471
3.02821
3.10162
3.17486
3.24787
3.32057
3.39269
3.46414
3.53486
3.60477
3.67381
3.74191
3.809
3.87501
3.93987
4.00351
4.06587
4.12687
4.1864
4.2444
4.3008
4.35554
4.40857
4.45982
4.50922
4.55673
4.6023
4.64586
4.68738
4.72681
4.76411
4.79924
4.83217
4.86284
4.89124
4.91735
4.94115
4.96262
4.98176
4.99855
5.013
5.0251
5.03487
5.04229
5.0474
5.0502
5.05072
5.04898
5.04501
5.03883
5.03048
5.02001
5.00745
4.99284
4.97623
4.95767
4.93721
4.91491
4.89082
4.86501
4.83752
4.80842
4.77778
4.74566
4.71212
4.67723
4.64107
4.60368
4.56516
4.52555
4.48493
4.44338
4.40095
4.35773
4.31377
4.26914
4.22392
4.17817
4.13197
4.08539
4.03851
3.99143
3.94423
3.897
3.84988
3.80298
3.75644
3.71044
3.66514
3.62073
3.57737
3.53519
3.49401
3.45407
0.0244107
0.0557137
0.0714686
0.0825921
0.0917223
0.0997887
0.10724
0.11434
0.12126
0.128125
0.135026
0.142034
0.149203
0.156577
0.164189
0.17207
0.180245
0.188736
0.197567
0.206759
0.216335
0.226318
0.236732
0.247603
0.258959
0.270827
0.283238
0.296223
0.309815
0.324048
0.338957
0.354578
0.370949
0.388109
0.406098
0.424953
0.444714
0.465423
0.487122
0.509854
0.533662
0.558592
0.584687
0.611993
0.64055
0.670383
0.701529
0.734027
0.767915
0.803228
0.839998
0.878257
0.918031
0.959345
1.00222
1.04667
1.09272
1.14037
1.18964
1.24056
1.29307
1.3471
1.40267
1.45975
1.51833
1.57838
1.63986
1.70273
1.76693
1.83243
1.89916
1.96707
2.03608
2.10614
2.17716
2.24907
2.32179
2.39525
2.46936
2.54404
2.6192
2.69477
2.77061
2.84664
2.92278
2.99896
3.07509
3.15112
3.22697
3.3026
3.37785
3.45249
3.52646
3.59967
3.67205
3.74354
3.81406
3.88355
3.95192
4.01912
4.08506
4.14969
4.21292
4.27469
4.33492
4.39353
4.45046
4.50565
4.55904
4.61057
4.66018
4.70782
4.75344
4.79698
4.83842
4.87769
4.91477
4.94962
4.9822
5.01247
5.04043
5.06603
5.08928
5.11015
5.12864
5.14474
5.15845
5.16978
5.17872
5.1853
5.18952
5.1914
5.19097
5.18825
5.18327
5.17606
5.16666
5.15511
5.14145
5.12572
5.10798
5.08826
5.06664
5.04316
5.01787
4.99084
4.96214
4.93181
4.89992
4.86655
4.83174
4.79558
4.75813
4.71945
4.67961
4.63869
4.59674
4.55384
4.51006
4.46546
4.42011
4.37408
4.32744
4.28026
4.2326
4.18455
4.13618
4.08758
4.03884
3.99006
3.94136
3.89286
3.84471
3.79706
3.75008
3.70395
3.65883
3.61482
3.57177
3.52992
0.0241663
0.0553272
0.070867
0.0818018
0.0907428
0.0986142
0.105865
0.11276
0.119474
0.12613
0.132821
0.139618
0.146573
0.153731
0.161127
0.16879
0.176746
0.185019
0.193634
0.202614
0.211983
0.221768
0.231995
0.242694
0.253895
0.265631
0.277937
0.290851
0.304411
0.318657
0.333632
0.349379
0.365947
0.383386
0.401745
0.421068
0.441401
0.462794
0.485301
0.508975
0.53387
0.560041
0.587544
0.61644
0.646809
0.678591
0.711844
0.746616
0.782947
0.820868
0.860409
0.901592
0.944436
0.988954
1.03516
1.08305
1.13263
1.18389
1.23683
1.29144
1.34767
1.40548
1.46484
1.52571
1.58806
1.65183
1.71699
1.78348
1.85124
1.92021
1.99032
2.06151
2.1337
2.20682
2.2808
2.35555
2.43099
2.50704
2.58361
2.66062
2.73798
2.81561
2.89341
2.97129
3.04918
3.12699
3.20466
3.28214
3.35934
3.43603
3.51209
3.58746
3.66205
3.7358
3.80864
3.88049
3.95128
4.02095
4.08941
4.15662
4.22249
4.28696
4.34996
4.41142
4.47127
4.52945
4.5859
4.64055
4.69334
4.74423
4.79315
4.84006
4.8849
4.92764
4.96823
5.00662
5.04279
5.0767
5.10832
5.13762
5.16457
5.18916
5.21138
5.23121
5.24864
5.26368
5.27632
5.28656
5.29443
5.29992
5.30305
5.30385
5.30233
5.29852
5.29246
5.28418
5.27371
5.26109
5.24637
5.22959
5.2108
5.19005
5.1674
5.1429
5.1166
5.08857
5.05886
5.02755
4.99468
4.96032
4.92455
4.88742
4.84899
4.80935
4.76854
4.72665
4.68373
4.63985
4.59509
4.54949
4.50314
4.45609
4.40841
4.36018
4.31145
4.26231
4.21282
4.16308
4.11318
4.06321
4.01329
3.96353
3.91409
3.86511
3.81676
3.76921
3.72259
3.67704
3.63238
3.5889
0.0239004
0.0548078
0.0700636
0.0807527
0.0894538
0.0970857
0.104099
0.11076
0.117244
0.123675
0.130146
0.136725
0.143467
0.150415
0.157604
0.165066
0.172829
0.18092
0.189366
0.198195
0.207436
0.217122
0.227285
0.237961
0.249191
0.261014
0.273475
0.286621
0.300506
0.315178
0.330685
0.347085
0.364443
0.38283
0.40233
0.422972
0.444784
0.46784
0.492209
0.517954
0.545134
0.573805
0.604023
0.635835
0.669286
0.704385
0.74116
0.779635
0.81983
0.86176
0.905432
0.950848
0.998005
1.04689
1.09749
1.14979
1.20377
1.25938
1.31661
1.37541
1.43574
1.49755
1.56078
1.62538
1.6913