/*--------------------------------*- C++ -*----------------------------------*\
  =========                 |
  \\      /  F ield         | OpenFOAM: The Open Source CFD Toolbox
   \\    /   O peration     | Website:  https://openfoam.org
    \\  /    A nd           | Version:  9
     \\/     M anipulation  |
\*---------------------------------------------------------------------------*/
FoamFile
{
    format      ascii;
    class       surfaceScalarField;
    location    "0.25";
    object      phi;
}
// * * * * * * * * * * * * * * * * * * * * * * * * * * * * * * * * * * * * * //

dimensions      [0 3 -1 0 0 0 0];

internalField   nonuniform List<scalar> 
24170
(
3.1336e-06
5.48063e-08
3.04827e-06
8.53264e-08
2.97315e-06
7.51236e-08
2.90431e-06
6.8836e-08
2.83948e-06
6.48291e-08
2.78226e-06
5.72215e-08
2.73336e-06
4.88996e-08
2.69184e-06
4.15242e-08
2.6564e-06
3.54391e-08
2.62588e-06
3.05217e-08
2.59931e-06
2.65725e-08
2.57588e-06
2.34275e-08
2.55491e-06
2.09676e-08
2.53573e-06
1.91791e-08
2.5177e-06
1.80302e-08
2.49905e-06
1.86494e-08
2.47853e-06
2.05262e-08
3.76513e-08
2.44087e-06
3.45361e-06
1.84443e-08
3.45616e-06
8.27729e-08
3.44962e-06
8.1668e-08
3.438e-06
8.04571e-08
3.42351e-06
7.9317e-08
3.40597e-06
7.47618e-08
3.38634e-06
6.85285e-08
3.36544e-06
6.24272e-08
3.34403e-06
5.68453e-08
3.32273e-06
5.1825e-08
3.30193e-06
4.7374e-08
3.28185e-06
4.35021e-08
3.26262e-06
4.02019e-08
3.24422e-06
3.7583e-08
3.22669e-06
3.55583e-08
3.20988e-06
3.54599e-08
3.19468e-06
3.57213e-08
4.58623e-08
3.18647e-06
3.66535e-06
1.56075e-08
3.67825e-06
6.98735e-08
3.68531e-06
7.46066e-08
3.6896e-06
7.61745e-08
3.69127e-06
7.76429e-08
3.69014e-06
7.58931e-08
3.68669e-06
7.19795e-08
3.68149e-06
6.76221e-08
3.67498e-06
6.33575e-08
3.6675e-06
5.93049e-08
3.65934e-06
5.55405e-08
3.65069e-06
5.21426e-08
3.64173e-06
4.91659e-08
3.63255e-06
4.67594e-08
3.62317e-06
4.4947e-08
3.614e-06
4.46297e-08
3.60471e-06
4.50061e-08
4.95884e-08
3.60098e-06
3.92465e-06
1.63468e-08
3.9358e-06
5.87214e-08
3.94255e-06
6.78622e-08
3.94802e-06
7.06977e-08
3.95243e-06
7.32302e-08
3.95536e-06
7.29721e-08
3.95691e-06
7.04257e-08
3.95739e-06
6.71386e-08
3.95699e-06
6.37559e-08
3.95586e-06
6.04369e-08
3.95413e-06
5.72754e-08
3.9519e-06
5.43718e-08
3.94926e-06
5.18089e-08
3.94629e-06
4.97295e-08
3.94302e-06
4.82108e-08
3.9399e-06
4.77533e-08
3.93692e-06
4.79853e-08
4.98531e-08
3.93665e-06
4.20777e-06
1.57063e-08
4.216e-06
5.0489e-08
4.22166e-06
6.21974e-08
4.2266e-06
6.57645e-08
4.2313e-06
6.853e-08
4.23526e-06
6.90139e-08
4.23835e-06
6.73286e-08
4.24072e-06
6.4767e-08
4.24248e-06
6.19997e-08
4.24371e-06
5.92108e-08
4.24448e-06
5.6501e-08
4.24487e-06
5.39795e-08
4.24494e-06
5.17402e-08
4.24477e-06
4.99046e-08
4.24443e-06
4.85508e-08
4.24426e-06
4.79222e-08
4.24445e-06
4.77982e-08
4.82172e-08
4.24608e-06
4.51044e-06
1.43534e-08
4.51686e-06
4.40659e-08
4.52218e-06
5.68852e-08
4.52684e-06
6.11038e-08
4.53145e-06
6.39153e-08
4.53564e-06
6.48211e-08
4.53923e-06
6.37426e-08
4.54228e-06
6.17208e-08
4.54486e-06
5.94124e-08
4.54705e-06
5.70248e-08
4.54889e-06
5.46647e-08
4.55042e-06
5.24415e-08
4.55171e-06
5.04489e-08
4.55284e-06
4.8782e-08
4.55389e-06
4.74972e-08
4.55513e-06
4.66865e-08
4.55675e-06
4.6172e-08
4.57179e-08
4.55925e-06
4.83412e-06
1.29522e-08
4.83958e-06
3.86061e-08
4.84483e-06
5.16323e-08
4.84943e-06
5.65121e-08
4.85394e-06
5.94039e-08
4.85817e-06
6.05904e-08
4.86193e-06
5.99753e-08
4.86527e-06
5.83839e-08
4.86824e-06
5.64398e-08
4.8709e-06
5.43725e-08
4.87327e-06
5.2294e-08
4.8754e-06
5.03092e-08
4.87734e-06
4.85046e-08
4.87918e-06
4.69506e-08
4.881e-06
4.56771e-08
4.88299e-06
4.46926e-08
4.88532e-06
4.38375e-08
4.28477e-08
4.88819e-06
5.1809e-06
1.16322e-08
5.18571e-06
3.38005e-08
5.19084e-06
4.64968e-08
5.19542e-06
5.19317e-08
5.19989e-06
5.49386e-08
5.20415e-06
5.63284e-08
5.20804e-06
5.60896e-08
5.21155e-06
5.48666e-08
5.21476e-06
5.32335e-08
5.21769e-06
5.14371e-08
5.22039e-06
4.95951e-08
5.2229e-06
4.7806e-08
5.22525e-06
4.61466e-08
5.22754e-06
4.46672e-08
5.22984e-06
4.33761e-08
5.23229e-06
4.22416e-08
5.235e-06
4.11251e-08
3.98138e-08
5.23804e-06
5.5526e-06
1.03687e-08
5.55685e-06
2.955e-08
5.56177e-06
4.15783e-08
5.56634e-06
4.73631e-08
5.5708e-06
5.04803e-08
5.57511e-06
5.20187e-08
5.57911e-06
5.20909e-08
5.58278e-06
5.11949e-08
5.58617e-06
4.98405e-08
5.58932e-06
4.82842e-08
5.59227e-06
4.6649e-08
5.59505e-06
4.50265e-08
5.59771e-06
4.34841e-08
5.60032e-06
4.20574e-08
5.60296e-06
4.07417e-08
5.6057e-06
3.94918e-08
5.60863e-06
3.81955e-08
3.67049e-08
5.61174e-06
5.95099e-06
9.15857e-09
5.95476e-06
2.57773e-08
5.95942e-06
3.69216e-08
5.96395e-06
4.28273e-08
5.96841e-06
4.60214e-08
5.97277e-06
4.76626e-08
5.97687e-06
4.79841e-08
5.98069e-06
4.73753e-08
5.98426e-06
4.6274e-08
5.98761e-06
4.49351e-08
5.99077e-06
4.34858e-08
5.99379e-06
4.20111e-08
5.9967e-06
4.05695e-08
5.99957e-06
3.91878e-08
6.00246e-06
3.78565e-08
6.00542e-06
3.65319e-08
6.00848e-06
3.51298e-08
3.35596e-08
6.01163e-06
6.37796e-06
8.01531e-09
6.38133e-06
2.2405e-08
6.38571e-06
3.25358e-08
6.39019e-06
3.83492e-08
6.39465e-06
4.15678e-08
6.39904e-06
4.32703e-08
6.40324e-06
4.37793e-08
6.4072e-06
4.34136e-08
6.41094e-06
4.2539e-08
6.41448e-06
4.13978e-08
6.41784e-06
4.01178e-08
6.42108e-06
3.87782e-08
6.42422e-06
3.74306e-08
6.42731e-06
3.6097e-08
6.43039e-06
3.47689e-08
6.43351e-06
3.34121e-08
6.43668e-06
3.19684e-08
3.03903e-08
6.43985e-06
5.74175e-06
7.10057e-09
5.74433e-06
1.98199e-08
5.74783e-06
2.90357e-08
5.75156e-06
3.4623e-08
5.75532e-06
3.78116e-08
5.75905e-06
3.95374e-08
5.76267e-06
4.01591e-08
5.76612e-06
3.99614e-08
5.7694e-06
3.92564e-08
5.77253e-06
3.82676e-08
5.77553e-06
3.71197e-08
5.77842e-06
3.58878e-08
5.78123e-06
3.4619e-08
5.784e-06
3.33337e-08
5.78674e-06
3.20269e-08
5.78948e-06
3.06746e-08
5.79221e-06
2.92367e-08
2.7694e-08
5.79491e-06
6.99913e-06
6.12302e-09
7.00187e-06
1.70859e-08
7.00565e-06
2.52483e-08
7.00982e-06
3.04567e-08
7.0141e-06
3.35322e-08
7.0184e-06
3.52392e-08
7.02261e-06
3.59433e-08
7.02668e-06
3.58974e-08
7.03058e-06
3.53593e-08
7.03432e-06
3.4527e-08
7.03792e-06
3.35189e-08
7.0414e-06
3.24053e-08
7.04479e-06
3.12292e-08
7.04811e-06
3.00111e-08
7.05139e-06
2.87513e-08
7.05462e-06
2.74371e-08
7.05782e-06
2.60459e-08
2.45797e-08
7.06093e-06
8.53188e-06
5.09188e-09
8.53473e-06
1.42292e-08
8.53878e-06
2.12007e-08
8.54338e-06
2.58565e-08
8.54821e-06
2.87069e-08
8.55311e-06
3.03321e-08
8.55799e-06
3.10712e-08
8.56274e-06
3.11456e-08
8.56734e-06
3.07608e-08
8.57178e-06
3.00835e-08
8.57608e-06
2.92209e-08
8.58025e-06
2.82377e-08
8.5843e-06
2.71733e-08
8.58826e-06
2.6049e-08
8.59214e-06
2.48713e-08
8.59594e-06
2.36382e-08
8.59965e-06
2.23411e-08
2.09963e-08
8.60323e-06
1.04003e-05
4.0177e-09
1.04033e-05
1.12676e-08
1.04075e-05
1.69114e-08
1.04126e-05
2.08286e-08
1.0418e-05
2.3314e-08
1.04235e-05
2.47705e-08
1.04291e-05
2.54795e-08
1.04346e-05
2.56266e-08
1.044e-05
2.53693e-08
1.04453e-05
2.48387e-08
1.04504e-05
2.41257e-08
1.04553e-05
2.32874e-08
1.04601e-05
2.23594e-08
1.04648e-05
2.13636e-08
1.04694e-05
2.03114e-08
1.04738e-05
1.92091e-08
1.04781e-05
1.80576e-08
1.6881e-08
1.04822e-05
1.26779e-05
2.9061e-09
1.2681e-05
8.19259e-09
1.26855e-05
1.23721e-08
1.2691e-05
1.53615e-08
1.2697e-05
1.73188e-08
1.27033e-05
1.84946e-08
1.27096e-05
1.90916e-08
1.2716e-05
1.92506e-08
1.27223e-05
1.90843e-08
1.27285e-05
1.86865e-08
1.27345e-05
1.81266e-08
1.27403e-05
1.74509e-08
1.2746e-05
1.66897e-08
1.27515e-05
1.58636e-08
1.27568e-05
1.49862e-08
1.27619e-05
1.40681e-08
1.27669e-05
1.31152e-08
1.21538e-08
1.27716e-05
1.54543e-05
1.74601e-09
1.54576e-05
4.95347e-09
1.54624e-05
7.51558e-09
1.54684e-05
9.38556e-09
1.54751e-05
1.06377e-08
1.54822e-05
1.14019e-08
1.54895e-05
1.17933e-08
1.54968e-05
1.18971e-08
1.55041e-05
1.17806e-08
1.55113e-05
1.15002e-08
1.55184e-05
1.10993e-08
1.55252e-05
1.0609e-08
1.55318e-05
1.00509e-08
1.55383e-05
9.44083e-09
1.55445e-05
8.79115e-09
1.55504e-05
8.11235e-09
1.55561e-05
7.41135e-09
6.71226e-09
1.55616e-05
1.88389e-05
4.96043e-10
1.88424e-05
1.41927e-09
1.88478e-05
2.15605e-09
1.88545e-05
2.6956e-09
1.8862e-05
3.05963e-09
1.88702e-05
3.27753e-09
1.88786e-05
3.3718e-09
1.88871e-05
3.36113e-09
1.88956e-05
3.26379e-09
1.89041e-05
3.09612e-09
1.89123e-05
2.87123e-09
1.89203e-05
2.59949e-09
1.89281e-05
2.28954e-09
1.89355e-05
1.94892e-09
1.89427e-05
1.58441e-09
1.89497e-05
1.20286e-09
1.89563e-05
8.08833e-10
4.21367e-10
1.89626e-05
2.29648e-05
-9.50694e-10
2.29689e-05
-2.71126e-09
2.29752e-05
-4.14325e-09
2.29831e-05
-5.20409e-09
2.29921e-05
-5.91058e-09
2.30017e-05
-6.34941e-09
2.30117e-05
-6.61391e-09
2.30218e-05
-6.76276e-09
2.30319e-05
-6.83269e-09
2.30419e-05
-6.85488e-09
2.30516e-05
-6.85446e-09
2.3061e-05
-6.84744e-09
2.30702e-05
-6.8425e-09
2.3079e-05
-6.84412e-09
2.30874e-05
-6.85423e-09
2.30955e-05
-6.87245e-09
2.31032e-05
-6.89858e-09
-6.92048e-09
2.31105e-05
1.68118e-05
-2.09542e-09
1.68151e-05
-5.94406e-09
1.682e-05
-9.06825e-09
1.68261e-05
-1.1324e-08
1.6833e-05
-1.276e-08
1.68402e-05
-1.36106e-08
1.68477e-05
-1.40797e-08
1.68552e-05
-1.42754e-08
1.68627e-05
-1.42726e-08
1.68699e-05
-1.41421e-08
1.6877e-05
-1.39384e-08
1.68839e-05
-1.36959e-08
1.68905e-05
-1.3435e-08
1.68968e-05
-1.31689e-08
1.69028e-05
-1.29058e-08
1.69086e-05
-1.26495e-08
1.69141e-05
-1.24024e-08
-1.21567e-08
1.69194e-05
1.46357e-05
-3.20358e-09
1.46388e-05
-9.10137e-09
1.46437e-05
-1.38891e-08
1.46495e-05
-1.72014e-08
1.4656e-05
-1.91845e-08
1.46627e-05
-2.03132e-08
1.46695e-05
-2.08896e-08
1.46762e-05
-2.1048e-08
1.46829e-05
-2.09082e-08
1.46893e-05
-2.05864e-08
1.46955e-05
-2.01618e-08
1.47015e-05
-1.96797e-08
1.47073e-05
-1.91688e-08
1.47127e-05
-1.86493e-08
1.4718e-05
-1.81339e-08
1.4723e-05
-1.76291e-08
1.47277e-05
-1.71391e-08
-1.66584e-08
1.47322e-05
1.27412e-05
-4.25116e-09
1.27444e-05
-1.23099e-08
1.27493e-05
-1.88434e-08
1.27551e-05
-2.29909e-08
1.27612e-05
-2.52923e-08
1.27675e-05
-2.65926e-08
1.27738e-05
-2.71959e-08
1.278e-05
-2.72292e-08
1.2786e-05
-2.68839e-08
1.27917e-05
-2.63314e-08
1.27972e-05
-2.56665e-08
1.28025e-05
-2.4939e-08
1.28075e-05
-2.41829e-08
1.28123e-05
-2.3423e-08
1.28168e-05
-2.26742e-08
1.28211e-05
-2.1944e-08
1.28252e-05
-2.12364e-08
-2.05475e-08
1.28291e-05
1.10918e-05
-5.1277e-09
1.10951e-05
-1.56298e-08
1.11004e-05
-2.41353e-08
1.11062e-05
-2.87674e-08
1.1112e-05
-3.11269e-08
1.11179e-05
-3.25035e-08
1.11238e-05
-3.30451e-08
1.11294e-05
-3.28709e-08
1.11348e-05
-3.22727e-08
1.114e-05
-3.14667e-08
1.11448e-05
-3.05501e-08
1.11495e-05
-2.95741e-08
1.11539e-05
-2.85784e-08
1.1158e-05
-2.75905e-08
1.1162e-05
-2.66253e-08
1.11657e-05
-2.56896e-08
1.11693e-05
-2.47866e-08
-2.39128e-08
1.11726e-05
9.65583e-06
-5.74104e-09
9.65935e-06
-1.91517e-08
9.66495e-06
-2.97326e-08
9.67063e-06
-3.44454e-08
9.67626e-06
-3.67591e-08
9.68188e-06
-3.81308e-08
9.68731e-06
-3.84695e-08
9.69243e-06
-3.79946e-08
9.69727e-06
-3.71137e-08
9.70186e-06
-3.6049e-08
9.70619e-06
-3.48805e-08
9.71027e-06
-3.36594e-08
9.71412e-06
-3.24307e-08
9.71776e-06
-3.12235e-08
9.72118e-06
-3.00522e-08
9.72442e-06
-2.89226e-08
9.72747e-06
-2.7836e-08
-2.67875e-08
9.73034e-06
8.40543e-06
-5.82033e-09
8.4098e-06
-2.3524e-08
8.4153e-06
-3.52318e-08
8.42049e-06
-3.96301e-08
8.42591e-06
-4.21821e-08
8.43137e-06
-4.35936e-08
8.43651e-06
-4.36099e-08
8.44126e-06
-4.27429e-08
8.44568e-06
-4.15286e-08
8.4498e-06
-4.01669e-08
8.45363e-06
-3.87153e-08
8.4572e-06
-3.72256e-08
8.46051e-06
-3.57458e-08
8.46359e-06
-3.43047e-08
8.46646e-06
-3.2916e-08
8.46912e-06
-3.15857e-08
8.4716e-06
-3.03144e-08
-2.90983e-08
8.47391e-06
7.31506e-06
-3.59242e-09
7.32194e-06
-3.04066e-08
7.32739e-06
-4.06778e-08
7.33215e-06
-4.43925e-08
7.33745e-06
-4.74869e-08
7.34282e-06
-4.89592e-08
7.34777e-06
-4.85618e-08
7.35224e-06
-4.72128e-08
7.35627e-06
-4.55594e-08
7.35988e-06
-4.37801e-08
7.3631e-06
-4.19338e-08
7.36596e-06
-4.00838e-08
7.36849e-06
-3.82797e-08
7.37074e-06
-3.65475e-08
7.37272e-06
-3.48988e-08
7.37447e-06
-3.33382e-08
7.37602e-06
-3.18628e-08
-3.04663e-08
7.37739e-06
6.36222e-06
4.25381e-09
6.37294e-06
-4.11289e-08
6.38006e-06
-4.78005e-08
6.38624e-06
-5.0567e-08
6.3922e-06
-5.34487e-08
6.39748e-06
-5.42377e-08
6.40183e-06
-5.291e-08
6.40539e-06
-5.07776e-08
6.40829e-06
-4.84543e-08
6.41056e-06
-4.60525e-08
6.41227e-06
-4.36398e-08
6.41348e-06
-4.12938e-08
6.41426e-06
-3.90631e-08
6.41468e-06
-3.69673e-08
6.41479e-06
-3.50131e-08
6.41466e-06
-3.32015e-08
6.41432e-06
-3.15242e-08
-2.99609e-08
6.41381e-06
5.53608e-06
1.36391e-08
5.54775e-06
-5.28006e-08
5.55743e-06
-5.74832e-08
5.566e-06
-5.9131e-08
5.57276e-06
-6.0209e-08
5.57717e-06
-5.86505e-08
5.57931e-06
-5.50471e-08
5.57973e-06
-5.1201e-08
5.57886e-06
-4.75869e-08
5.57699e-06
-4.41762e-08
5.57432e-06
-4.09764e-08
5.57106e-06
-3.80253e-08
5.56733e-06
-3.53362e-08
5.56326e-06
-3.2901e-08
5.55895e-06
-3.07051e-08
5.5545e-06
-2.87456e-08
5.54999e-06
-2.70134e-08
-2.54476e-08
5.54547e-06
4.85751e-06
-1.62613e-08
4.86091e-06
-5.62008e-08
4.8615e-06
-5.80737e-08
4.85883e-06
-5.64596e-08
4.85482e-06
-5.61976e-08
4.84811e-06
-5.19493e-08
4.83885e-06
-4.57867e-08
4.82759e-06
-3.99416e-08
4.81498e-06
-3.49681e-08
4.80159e-06
-3.07889e-08
4.78788e-06
-2.72681e-08
4.77416e-06
-2.43025e-08
4.76062e-06
-2.18013e-08
4.74741e-06
-1.96854e-08
4.73459e-06
-1.78918e-08
4.72226e-06
-1.64106e-08
4.71051e-06
-1.52683e-08
-1.4958e-08
4.70002e-06
4.18641e-06
4.13021e-06
4.07214e-06
4.01568e-06
3.95948e-06
3.90753e-06
3.86175e-06
3.82181e-06
3.78684e-06
3.75605e-06
3.72878e-06
3.70448e-06
3.68268e-06
3.66299e-06
3.6451e-06
3.62869e-06
3.61342e-06
3.59846e-06
9.49146e-09
-9.49146e-09
2.03654e-08
-1.0874e-08
2.81043e-08
-7.73888e-09
3.15496e-08
-3.44528e-09
3.05169e-08
1.03268e-09
2.55858e-08
4.93109e-09
1.74996e-08
8.08621e-09
7.00701e-09
1.04926e-08
-5.29582e-09
1.23028e-08
-1.90052e-08
1.37093e-08
-3.38716e-08
1.48665e-08
-4.97463e-08
1.58746e-08
-6.65439e-08
1.67976e-08
-8.42153e-08
1.76714e-08
-1.0273e-07
1.85145e-08
-1.22065e-07
1.93353e-08
-1.42202e-07
2.0137e-08
-1.63122e-07
2.09196e-08
-1.84803e-07
2.16817e-08
-2.07225e-07
2.24216e-08
-2.30362e-07
2.3137e-08
-2.54188e-07
2.3826e-08
-2.78675e-07
2.44871e-08
-3.03795e-07
2.51202e-08
-3.29522e-07
2.57268e-08
-3.55833e-07
2.63111e-08
-3.82712e-07
2.68788e-08
-4.10143e-07
2.74311e-08
-4.38095e-07
2.79522e-08
-4.66497e-07
2.84018e-08
-4.95243e-07
2.87458e-08
-5.24286e-07
2.90428e-08
-5.53871e-07
2.95853e-08
-5.84684e-07
3.08129e-08
-6.16854e-07
3.21702e-08
-6.48909e-07
3.20553e-08
-6.80657e-07
3.17475e-08
-7.13995e-07
3.33377e-08
-7.5002e-07
3.60257e-08
-7.90256e-07
4.02356e-08
-8.37988e-07
4.77325e-08
-8.84936e-07
4.6948e-08
-9.2431e-07
3.93732e-08
-9.62412e-07
3.81028e-08
-1.00148e-06
3.9065e-08
-1.04314e-06
4.16589e-08
-1.08622e-06
4.30802e-08
-1.13012e-06
4.39028e-08
-1.17454e-06
4.44176e-08
-1.21924e-06
4.47021e-08
-1.26407e-06
4.48337e-08
-1.30893e-06
4.48579e-08
-1.35373e-06
4.48037e-08
-1.39842e-06
4.46899e-08
-1.44295e-06
4.45285e-08
-1.48728e-06
4.43272e-08
-1.53137e-06
4.40908e-08
-1.57519e-06
4.3822e-08
-1.61872e-06
4.35223e-08
-1.66191e-06
4.31921e-08
-1.70474e-06
4.28312e-08
-1.74718e-06
4.24391e-08
-1.78919e-06
4.20148e-08
-1.83075e-06
4.15573e-08
-1.87182e-06
4.10655e-08
-1.91235e-06
4.05384e-08
-1.95233e-06
3.9975e-08
-1.9917e-06
3.93742e-08
-2.03044e-06
3.87353e-08
-2.0685e-06
3.80575e-08
-2.10584e-06
3.73405e-08
-2.14242e-06
3.65837e-08
-2.17821e-06
3.57869e-08
-2.21316e-06
3.49503e-08
-2.24723e-06
3.40737e-08
-2.28039e-06
3.31575e-08
-2.31259e-06
3.2202e-08
-2.3438e-06
3.12078e-08
-2.37397e-06
3.01754e-08
-2.40308e-06
2.91056e-08
-2.43108e-06
2.7999e-08
-2.45793e-06
2.68565e-08
-2.48361e-06
2.56788e-08
-2.50808e-06
2.44668e-08
-2.5313e-06
2.3221e-08
-2.55324e-06
2.19419e-08
-2.57387e-06
2.06299e-08
-2.59316e-06
1.9285e-08
-2.61106e-06
1.79068e-08
-2.62756e-06
1.64944e-08
-2.6426e-06
1.50461e-08
-2.65616e-06
1.35593e-08
-2.66819e-06
1.20303e-08
-2.67865e-06
1.04525e-08
-2.68746e-06
8.81754e-09
-2.69458e-06
7.11338e-09
-2.6999e-06
5.32308e-09
-2.70334e-06
3.4356e-09
-2.70479e-06
1.45345e-09
-2.70424e-06
-5.46308e-10
-2.70204e-06
-2.2078e-09
-2.69824e-06
-3.7982e-09
-2.69288e-06
-5.35887e-09
-2.68597e-06
-6.91231e-09
-2.6775e-06
-8.47006e-09
-2.66746e-06
-1.00341e-08
-2.65586e-06
-1.16039e-08
-2.64268e-06
-1.31778e-08
-2.62793e-06
-1.4754e-08
-2.6116e-06
-1.63302e-08
-2.59369e-06
-1.79045e-08
-2.57422e-06
-1.94747e-08
-2.55318e-06
-2.10387e-08
-2.53058e-06
-2.25943e-08
-2.50644e-06
-2.41396e-08
-2.48077e-06
-2.56724e-08
-2.45358e-06
-2.71907e-08
-2.42489e-06
-2.86924e-08
-2.39471e-06
-3.01754e-08
-2.36308e-06
-3.16377e-08
-2.33e-06
-3.30773e-08
-2.29551e-06
-3.44924e-08
-2.25963e-06
-3.58809e-08
-2.22238e-06
-3.72411e-08
-2.18381e-06
-3.85713e-08
-2.14394e-06
-3.98697e-08
-2.10281e-06
-4.11348e-08
-2.06044e-06
-4.23647e-08
-2.01689e-06
-4.3558e-08
-1.97217e-06
-4.4713e-08
-1.92634e-06
-4.58284e-08
-1.87944e-06
-4.69029e-08
-1.83151e-06
-4.79352e-08
-1.78258e-06
-4.89244e-08
-1.73271e-06
-4.98694e-08
-1.68194e-06
-5.07692e-08
-1.63032e-06
-5.16229e-08
-1.57789e-06
-5.243e-08
-1.5247e-06
-5.31897e-08
-1.4708e-06
-5.39018e-08
-1.41623e-06
-5.4566e-08
-1.36105e-06
-5.51821e-08
-1.3053e-06
-5.575e-08
-1.24903e-06
-5.62699e-08
-1.19229e-06
-5.67422e-08
-1.13512e-06
-5.71673e-08
-1.07758e-06
-5.75459e-08
-1.0197e-06
-5.78786e-08
-9.6153e-07
-5.81665e-08
-9.03119e-07
-5.84108e-08
-8.44507e-07
-5.86127e-08
-7.85733e-07
-5.87736e-08
-7.26838e-07
-5.88952e-08
-6.67859e-07
-5.89792e-08
-6.08831e-07
-5.90276e-08
-5.49789e-07
-5.90421e-08
-4.90764e-07
-5.90249e-08
-4.31787e-07
-5.89775e-08
-3.72885e-07
-5.89015e-08
-3.14088e-07
-5.87975e-08
-2.55421e-07
-5.86666e-08
-1.96917e-07
-5.85044e-08
-1.38605e-07
-5.83116e-08
-8.05177e-08
-5.80875e-08
-2.26961e-08
-5.78215e-08
3.48237e-08
-5.75199e-08
9.20028e-08
-5.7179e-08
1.48841e-07
-5.68385e-08
2.05361e-07
-5.65198e-08
2.61578e-07
-5.6217e-08
3.17489e-07
-5.59105e-08
3.73063e-07
-5.55741e-08
4.28231e-07
-5.51686e-08
4.82858e-07
-5.46269e-08
5.36677e-07
-5.38187e-08
5.89155e-07
-5.24781e-08
6.3908e-07
-4.99255e-08
6.83604e-07
-4.45233e-08
7.15176e-07
-3.15726e-08
8.38501e-09
7.06791e-07
6.88997e-09
-1.63814e-08
9.1262e-09
-1.31102e-08
7.48214e-09
-6.09482e-09
3.10183e-09
9.3503e-10
-3.39443e-09
7.52894e-09
-1.18958e-08
1.34324e-08
-2.2336e-08
1.85264e-08
-3.46401e-08
2.27967e-08
-4.86696e-08
2.63323e-08
-6.42416e-08
2.92813e-08
-8.11752e-08
3.18001e-08
-9.93199e-08
3.40193e-08
-1.18559e-07
3.60372e-08
-1.3881e-07
3.7922e-08
-1.60014e-07
3.97182e-08
-1.82132e-07
4.14536e-08
-2.0514e-07
4.31447e-08
-2.29021e-07
4.48013e-08
-2.53769e-07
4.6429e-08
-2.79379e-07
4.80318e-08
-3.05854e-07
4.96126e-08
-3.33204e-07
5.11753e-08
-3.61442e-07
5.27251e-08
-3.90591e-07
5.42695e-08
-4.20683e-07
5.5819e-08
-4.5176e-07
5.73874e-08
-4.83871e-07
5.89898e-08
-5.17077e-07
6.06375e-08
-5.51457e-07
6.23318e-08
-5.87117e-07
6.40618e-08
-6.24191e-07
6.58205e-08
-6.62792e-07
6.76436e-08
-7.02862e-07
6.96549e-08
-7.44017e-07
7.19679e-08
-7.86165e-07
7.43181e-08
-8.30297e-07
7.61877e-08
-8.76391e-07
7.78418e-08
-9.22984e-07
7.99308e-08
-9.69339e-07
8.23801e-08
-1.01421e-06
8.51043e-08
-1.05427e-06
8.77915e-08
-1.09563e-06
8.83068e-08
-1.14288e-06
8.66313e-08
-1.19028e-06
8.54991e-08
-1.23643e-06
8.52177e-08
-1.28038e-06
8.56058e-08
-1.32321e-06
8.59087e-08
-1.36532e-06
8.602e-08
-1.40689e-06
8.59809e-08
-1.448e-06
8.581e-08
-1.48869e-06
8.55296e-08
-1.52899e-06
8.51596e-08
-1.5689e-06
8.47147e-08
-1.60842e-06
8.42059e-08
-1.64753e-06
8.36406e-08
-1.68623e-06
8.30234e-08
-1.72449e-06
8.23566e-08
-1.76231e-06
8.16411e-08
-1.79967e-06
8.08766e-08
-1.83654e-06
8.00619e-08
-1.8729e-06
7.91953e-08
-1.90874e-06
7.82749e-08
-1.94402e-06
7.72985e-08
-1.97873e-06
7.62638e-08
-2.01283e-06
7.51687e-08
-2.0463e-06
7.40112e-08
-2.07912e-06
7.27894e-08
-2.11125e-06
7.15017e-08
-2.14266e-06
7.01467e-08
-2.17332e-06
6.87234e-08
-2.20321e-06
6.72308e-08
-2.2323e-06
6.56685e-08
-2.26055e-06
6.40361e-08
-2.28793e-06
6.23336e-08
-2.31442e-06
6.05614e-08
-2.33998e-06
5.87197e-08
-2.36459e-06
5.68094e-08
-2.38821e-06
5.48312e-08
-2.41082e-06
5.27863e-08
-2.43239e-06
5.06757e-08
-2.45289e-06
4.85007e-08
-2.4723e-06
4.62627e-08
-2.49058e-06
4.39631e-08
-2.50772e-06
4.16029e-08
-2.52368e-06
3.91836e-08
-2.53845e-06
3.6706e-08
-2.55199e-06
3.41712e-08
-2.56428e-06
3.15796e-08
-2.57531e-06
2.89316e-08
-2.58504e-06
2.62271e-08
-2.59346e-06
2.34657e-08
-2.60055e-06
2.06467e-08
-2.60629e-06
1.77695e-08
-2.61067e-06
1.48335e-08
-2.61369e-06
1.18393e-08
-2.61537e-06
8.78987e-09
-2.61574e-06
5.6939e-09
-2.61488e-06
2.57347e-09
-2.61291e-06
-5.11475e-10
-2.60985e-06
-3.6099e-09
-2.60544e-06
-6.61708e-09
-2.59959e-06
-9.64645e-09
-2.59225e-06
-1.26974e-08
-2.5834e-06
-1.5767e-08
-2.57301e-06
-1.88547e-08
-2.56109e-06
-2.19581e-08
-2.54762e-06
-2.50739e-08
-2.5326e-06
-2.81982e-08
-2.51602e-06
-3.13267e-08
-2.4979e-06
-3.44555e-08
-2.47822e-06
-3.75802e-08
-2.457e-06
-4.06965e-08
-2.43424e-06
-4.38003e-08
-2.40995e-06
-4.68875e-08
-2.38413e-06
-4.99539e-08
-2.35681e-06
-5.29953e-08
-2.32799e-06
-5.60077e-08
-2.2977e-06
-5.8987e-08
-2.26594e-06
-6.19292e-08
-2.23275e-06
-6.483e-08
-2.19814e-06
-6.76857e-08
-2.16214e-06
-7.04923e-08
-2.12478e-06
-7.32461e-08
-2.08608e-06
-7.59435e-08
-2.04607e-06
-7.85809e-08
-2.00478e-06
-8.11551e-08
-1.96225e-06
-8.36626e-08
-1.91852e-06
-8.61003e-08
-1.87361e-06
-8.84649e-08
-1.82757e-06
-9.07534e-08
-1.78044e-06
-9.29629e-08
-1.73225e-06
-9.50908e-08
-1.68305e-06
-9.71348e-08
-1.63288e-06
-9.90927e-08
-1.58179e-06
-1.00963e-07
-1.52981e-06
-1.02742e-07
-1.47701e-06
-1.04431e-07
-1.42341e-06
-1.06026e-07
-1.36907e-06
-1.07526e-07
-1.31404e-06
-1.08932e-07
-1.25837e-06
-1.10243e-07
-1.20209e-06
-1.11457e-07
-1.14527e-06
-1.12576e-07
-1.08794e-06
-1.13599e-07
-1.03015e-06
-1.14527e-07
-9.71959e-07
-1.15361e-07
-9.13402e-07
-1.16102e-07
-8.54528e-07
-1.16753e-07
-7.95381e-07
-1.17313e-07
-7.36004e-07
-1.17788e-07
-6.7644e-07
-1.18177e-07
-6.16728e-07
-1.18485e-07
-5.56908e-07
-1.18715e-07
-4.97016e-07
-1.18871e-07
-4.37089e-07
-1.18955e-07
-3.77159e-07
-1.18972e-07
-3.17257e-07
-1.18926e-07
-2.57414e-07
-1.18821e-07
-1.97656e-07
-1.18659e-07
-1.3801e-07
-1.18443e-07
-7.85017e-08
-1.18175e-07
-1.91543e-08
-1.17852e-07
4.00054e-08
-1.17471e-07
9.89512e-08
-1.17033e-07
1.57666e-07
-1.16536e-07
2.16137e-07
-1.15991e-07
2.74369e-07
-1.15411e-07
3.32357e-07
-1.14827e-07
3.90095e-07
-1.14258e-07
4.47574e-07
-1.13695e-07
5.04772e-07
-1.13109e-07
5.61651e-07
-1.12453e-07
6.18132e-07
-1.11649e-07
6.7407e-07
-1.10565e-07
7.29197e-07
-1.08946e-07
7.8302e-07
-1.06301e-07
8.34572e-07
-1.01477e-07
8.82244e-07
-9.21954e-08
9.2274e-07
-7.20691e-08
-2.50561e-08
9.56182e-07
-1.72334e-10
-1.62091e-08
-5.20637e-09
-8.07614e-09
-1.26259e-08
1.32472e-09
-2.15347e-08
9.84385e-09
-3.16552e-08
1.76494e-08
-4.29426e-08
2.47198e-08
-5.54446e-08
3.10284e-08
-6.92255e-08
3.65777e-08
-8.43157e-08
4.14225e-08
-1.00696e-07
4.56614e-08
-1.18309e-07
4.94128e-08
-1.37082e-07
5.2793e-08
-1.56947e-07
5.59016e-08
-1.77842e-07
5.88175e-08
-1.99723e-07
6.15991e-08
-2.22557e-07
6.42879e-08
-2.46325e-07
6.69127e-08
-2.71018e-07
6.94935e-08
-2.96633e-07
7.20445e-08
-3.23178e-07
7.45767e-08
-3.50665e-07
7.70998e-08
-3.79113e-07
7.96231e-08
-4.08545e-07
8.2157e-08
-4.38988e-07
8.4713e-08
-4.70473e-07
8.73039e-08
-5.03029e-07
8.99429e-08
-5.3668e-07
9.26407e-08
-5.71444e-07
9.54021e-08
-6.07333e-07
9.82209e-08
-6.44351e-07
1.01079e-07
-6.82481e-07
1.03951e-07
-7.21655e-07
1.06818e-07
-7.61672e-07
1.09672e-07
-8.02183e-07
1.12478e-07
-8.42972e-07
1.15107e-07
-8.84199e-07
1.17415e-07
-9.25786e-07
1.19429e-07
-9.6715e-07
1.21295e-07
-1.00779e-06
1.23015e-07
-1.04713e-06
1.24452e-07
-1.08473e-06
1.25384e-07
-1.12197e-06
1.25556e-07
-1.16046e-06
1.25121e-07
-1.19945e-06
1.2448e-07
-1.23818e-06
1.23947e-07
-1.27613e-06
1.2356e-07
-1.31341e-06
1.23194e-07
-1.35018e-06
1.22788e-07
-1.38652e-06
1.22322e-07
-1.4225e-06
1.21787e-07
-1.45815e-06
1.21182e-07
-1.4935e-06
1.20508e-07
-1.52856e-06
1.1977e-07
-1.56332e-06
1.1897e-07
-1.59779e-06
1.18108e-07
-1.63195e-06
1.17184e-07
-1.66579e-06
1.16199e-07
-1.6993e-06
1.15149e-07
-1.73245e-06
1.14032e-07
-1.76524e-06
1.12846e-07
-1.79763e-06
1.11586e-07
-1.8296e-06
1.1025e-07
-1.86114e-06
1.08833e-07
-1.89221e-06
1.07332e-07
-1.92278e-06
1.05744e-07
-1.95284e-06
1.04066e-07
-1.98234e-06
1.02296e-07
-2.01127e-06
1.0043e-07
-2.03959e-06
9.84672e-08
-2.06727e-06
9.64057e-08
-2.09429e-06
9.42442e-08
-2.1206e-06
9.19819e-08
-2.14618e-06
8.96183e-08
-2.171e-06
8.71535e-08
-2.19503e-06
8.45876e-08
-2.21823e-06
8.19213e-08
-2.24058e-06
7.91554e-08
-2.26204e-06
7.62911e-08
-2.28258e-06
7.333e-08
-2.30218e-06
7.02735e-08
-2.3208e-06
6.71236e-08
-2.33842e-06
6.38821e-08
-2.35501e-06
6.0551e-08
-2.37054e-06
5.71324e-08
-2.38498e-06
5.36283e-08
-2.39832e-06
5.00406e-08
-2.41052e-06
4.63711e-08
-2.42156e-06
4.26216e-08
-2.43142e-06
3.87937e-08
-2.44008e-06
3.48888e-08
-2.44753e-06
3.09086e-08
-2.45373e-06
2.68548e-08
-2.4587e-06
2.273e-08
-2.4624e-06
1.85376e-08
-2.46484e-06
1.42833e-08
-2.46603e-06
9.97509e-09
-2.46596e-06
5.62539e-09
-2.46464e-06
1.25119e-09
-2.46202e-06
-3.12651e-09
-2.45811e-06
-7.52378e-09
-2.45279e-06
-1.194e-08
-2.44603e-06
-1.63991e-08
-2.43783e-06
-2.08996e-08
-2.42816e-06
-2.5437e-08
-2.41701e-06
-3.00058e-08
-2.40437e-06
-3.45998e-08
-2.39023e-06
-3.92132e-08
-2.37459e-06
-4.38396e-08
-2.35744e-06
-4.84727e-08
-2.33879e-06
-5.31062e-08
-2.31864e-06
-5.77338e-08
-2.29698e-06
-6.23492e-08
-2.27384e-06
-6.6946e-08
-2.24921e-06
-7.15183e-08
-2.2231e-06
-7.60598e-08
-2.19553e-06
-8.05644e-08
-2.16651e-06
-8.50261e-08
-2.13606e-06
-8.94388e-08
-2.1042e-06
-9.37965e-08
-2.07093e-06
-9.80931e-08
-2.0363e-06
-1.02323e-07
-2.00031e-06
-1.0648e-07
-1.963e-06
-1.10558e-07
-1.92439e-06
-1.14553e-07
-1.88451e-06
-1.18459e-07
-1.84339e-06
-1.22271e-07
-1.80107e-06
-1.25984e-07
-1.75758e-06
-1.29594e-07
-1.71295e-06
-1.33095e-07
-1.66722e-06
-1.36483e-07
-1.62043e-06
-1.39754e-07
-1.57261e-06
-1.42904e-07
-1.52382e-06
-1.45929e-07
-1.47408e-06
-1.48827e-07
-1.42345e-06
-1.51593e-07
-1.37197e-06
-1.54226e-07
-1.31968e-06
-1.56723e-07
-1.26662e-06
-1.59081e-07
-1.21285e-06
-1.613e-07
-1.1584e-06
-1.63377e-07
-1.10333e-06
-1.65313e-07
-1.04768e-06
-1.67106e-07
-9.91503e-07
-1.68757e-07
-9.34837e-07
-1.70265e-07
-8.7773e-07
-1.71633e-07
-8.2023e-07
-1.72861e-07
-7.6238e-07
-1.73952e-07
-7.04226e-07
-1.74907e-07
-6.4581e-07
-1.7573e-07
-5.87174e-07
-1.76423e-07
-5.2836e-07
-1.76991e-07
-4.69406e-07
-1.77439e-07
-4.10351e-07
-1.7777e-07
-3.51231e-07
-1.77991e-07
-2.9208e-07
-1.78106e-07
-2.32929e-07
-1.78123e-07
-1.7381e-07
-1.78045e-07
-1.14751e-07
-1.7788e-07
-5.57771e-08
-1.77633e-07
3.08715e-09
-1.77307e-07
6.18175e-08
-1.76905e-07
1.20392e-07
-1.76427e-07
1.78794e-07
-1.75873e-07
2.37005e-07
-1.75245e-07
2.95023e-07
-1.74554e-07
3.52852e-07
-1.73821e-07
4.10503e-07
-1.73062e-07
4.67963e-07
-1.72287e-07
5.25212e-07
-1.71507e-07
5.8223e-07
-1.70713e-07
6.38988e-07
-1.69868e-07
6.95443e-07
-1.68907e-07
7.51514e-07
-1.67721e-07
8.07066e-07
-1.66116e-07
8.61862e-07
-1.63742e-07
9.155e-07
-1.59939e-07
9.6735e-07
-1.53327e-07
1.01651e-06
-1.41358e-07
1.06248e-06
-1.18035e-07
-7.19814e-08
1.1094e-06
-6.45909e-09
-9.75001e-09
-1.66694e-08
2.1342e-09
-2.80499e-08
1.27052e-08
-4.02077e-08
2.20016e-08
-5.30301e-08
3.04718e-08
-6.65489e-08
3.82387e-08
-8.08508e-08
4.53302e-08
-9.60353e-08
5.17622e-08
-1.12184e-07
5.75717e-08
-1.29347e-07
6.28238e-08
-1.47537e-07
6.76033e-08
-1.66746e-07
7.20015e-08
-1.86949e-07
7.61048e-08
-2.0812e-07
7.99883e-08
-2.30233e-07
8.37125e-08
-2.53269e-07
8.73242e-08
-2.77215e-07
9.08587e-08
-3.02064e-07
9.43421e-08
-3.27813e-07
9.77939e-08
-3.54466e-07
1.01229e-07
-3.82025e-07
1.04659e-07
-4.10498e-07
1.08096e-07
-4.39887e-07
1.11546e-07
-4.70192e-07
1.15018e-07
-5.01405e-07
1.18517e-07
-5.33507e-07
1.22045e-07
-5.66462e-07
1.25596e-07
-6.00217e-07
1.29157e-07
-6.34698e-07
1.32702e-07
-6.69813e-07
1.36194e-07
-7.05447e-07
1.39585e-07
-7.41454e-07
1.42826e-07
-7.77652e-07
1.4587e-07
-8.13838e-07
1.48664e-07
-8.49873e-07
1.51142e-07
-8.85715e-07
1.53257e-07
-9.2131e-07
1.55024e-07
-9.56502e-07
1.56487e-07
-9.91134e-07
1.57647e-07
-1.02514e-06
1.5846e-07
-1.05862e-06
1.58863e-07
-1.09189e-06
1.58829e-07
-1.12522e-06
1.58452e-07
-1.15863e-06
1.57889e-07
-1.19196e-06
1.57276e-07
-1.22506e-06
1.56662e-07
-1.25791e-06
1.56035e-07
-1.2905e-06
1.55378e-07
-1.32285e-06
1.5468e-07
-1.355e-06
1.53931e-07
-1.38694e-06
1.53124e-07
-1.41869e-06
1.52256e-07
-1.45024e-06
1.51325e-07
-1.4816e-06
1.50327e-07
-1.51275e-06
1.49258e-07
-1.54368e-06
1.48117e-07
-1.57438e-06
1.46897e-07
-1.60483e-06
1.45596e-07
-1.635e-06
1.44209e-07
-1.66489e-06
1.4273e-07
-1.69446e-06
1.41154e-07
-1.72368e-06
1.39477e-07
-1.75254e-06
1.37693e-07
-1.78101e-06
1.35799e-07
-1.80906e-06
1.33789e-07
-1.83665e-06
1.31661e-07
-1.86376e-06
1.2941e-07
-1.89037e-06
1.27033e-07
-1.91643e-06
1.24529e-07
-1.94192e-06
1.21894e-07
-1.9668e-06
1.19128e-07
-1.99105e-06
1.16229e-07
-2.01463e-06
1.13196e-07
-2.0375e-06
1.1003e-07
-2.05965e-06
1.06731e-07
-2.08103e-06
1.033e-07
-2.10161e-06
9.97384e-08
-2.12136e-06
9.60469e-08
-2.14026e-06
9.22278e-08
-2.15827e-06
8.82833e-08
-2.17536e-06
8.42158e-08
-2.19151e-06
8.0028e-08
-2.20668e-06
7.57226e-08
-2.22085e-06
7.13025e-08
-2.23399e-06
6.67705e-08
-2.24608e-06
6.21298e-08
-2.25709e-06
5.7383e-08
-2.26701e-06
5.25333e-08
-2.2758e-06
4.75834e-08
-2.28344e-06
4.25363e-08
-2.28993e-06
3.73951e-08
-2.29524e-06
3.21632e-08
-2.29935e-06
2.68449e-08
-2.30226e-06
2.14454e-08
-2.30395e-06
1.59711e-08
-2.3044e-06
1.043e-08
-2.30361e-06
4.8317e-09
-2.30154e-06
-8.14271e-10
-2.29817e-06
-6.50124e-09
-2.29346e-06
-1.22346e-08
-2.28738e-06
-1.80223e-08
-2.2799e-06
-2.3871e-08
-2.27103e-06
-2.97766e-08
-2.26073e-06
-3.57327e-08
-2.24901e-06
-4.17313e-08
-2.23584e-06
-4.77642e-08
-2.22123e-06
-5.3823e-08
-2.20517e-06
-5.98993e-08
-2.18766e-06
-6.59846e-08
-2.1687e-06
-7.20707e-08
-2.14828e-06
-7.81491e-08
-2.12642e-06
-8.42116e-08
-2.10311e-06
-9.025e-08
-2.07838e-06
-9.62561e-08
-2.05221e-06
-1.02222e-07
-2.02464e-06
-1.08139e-07
-1.99567e-06
-1.14e-07
-1.96531e-06
-1.19797e-07
-1.93358e-06
-1.25522e-07