# vtk DataFile Version 2.0
sampleSurface
ASCII
DATASET POLYDATA
POINTS 502 float
-0.0206 0 -0.0005 -0.0190172 0 -0.0005 -0.0190172 0 0.0005 -0.0206 0
0.0005 -0.0174976 0 -0.0005 -0.0174976 0 0.0005 -0.0160387 0 -0.0005
-0.0160387 0 0.0005 -0.0146381 0 -0.0005 -0.0146381 0 0.0005 -0.0132934
0 -0.0005 -0.0132934 0 0.0005 -0.0120025 0 -0.0005 -0.0120025 0
0.0005 -0.0107632 0 -0.0005 -0.0107632 0 0.0005 -0.00957337 0 -0.0005
-0.00957337 0 0.0005 -0.00843108 0 -0.0005 -0.00843108 0 0.0005 -0.00733443
0 -0.0005 -0.00733443 0 0.0005 -0.0062816 0 -0.0005 -0.0062816 0
0.0005 -0.00527083 0 -0.0005 -0.00527083 0 0.0005 -0.00430044 0 -0.0005
-0.00430044 0 0.0005 -0.00336883 0 -0.0005 -0.00336883 0 0.0005 -0.00247443
0 -0.0005 -0.00247443 0 0.0005 -0.00161577 0 -0.0005 -0.00161577 0
0.0005 -0.000791418 0 -0.0005 -0.000791418 0 0.0005 0 0 -0.0005
0 0 0.0005 0 -0.0254 -0.0005 0 -0.0254 0.0005 0
-0.0242711 0.0005 0 -0.0242711 -0.0005 0 -0.0231422 0.0005 0 -0.0231422
-0.0005 0 -0.0220133 0.0005 0 -0.0220133 -0.0005 0 -0.0208844 0.0005
0 -0.0208844 -0.0005 0 -0.0197556 0.0005 0 -0.0197556 -0.0005 0
-0.0186267 0.0005 0 -0.0186267 -0.0005 0 -0.0174978 0.0005 0 -0.0174978
-0.0005 0 -0.0163689 0.0005 0 -0.0163689 -0.0005 0 -0.01524 0.0005
0 -0.01524 -0.0005 0 -0.0141111 0.0005 0 -0.0141111 -0.0005 0
-0.0129822 0.0005 0 -0.0129822 -0.0005 0 -0.0118533 0.0005 0 -0.0118533
-0.0005 0 -0.0107244 0.0005 0 -0.0107244 -0.0005 0 -0.00959556 0.0005
0 -0.00959556 -0.0005 0 -0.00846667 0.0005 0 -0.00846667 -0.0005 0
-0.00726604 0.0005 0 -0.00726604 -0.0005 0 -0.00618989 0.0005 0 -0.00618989
-0.0005 0 -0.00522531 0.0005 0 -0.00522531 -0.0005 0 -0.00436073 0.0005
0 -0.00436073 -0.0005 0 -0.00358579 0.0005 0 -0.00358579 -0.0005 0
-0.00289118 0.0005 0 -0.00289118 -0.0005 0 -0.0022686 0.0005 0 -0.0022686
-0.0005 0 -0.00171055 0.0005 0 -0.00171055 -0.0005 0 -0.00121037 0.0005
0 -0.00121037 -0.0005 0 -0.000762037 0.0005 0 -0.000762037 -0.0005 0
-0.000360188 0.0005 0 -0.000360188 -0.0005 0.000528387 -0.0254 -0.0005 0.000528387 -0.0254
0.0005 0.00106088 -0.0254 -0.0005 0.00106088 -0.0254 0.0005 0.00159752 -0.0254 -0.0005
0.00159752 -0.0254 0.0005 0.00213833 -0.0254 -0.0005 0.00213833 -0.0254 0.0005 0.00268334
-0.0254 -0.0005 0.00268334 -0.0254 0.0005 0.00323259 -0.0254 -0.0005 0.00323259 -0.0254
0.0005 0.00378611 -0.0254 -0.0005 0.00378611 -0.0254 0.0005 0.00434393 -0.0254 -0.0005
0.00434393 -0.0254 0.0005 0.00490609 -0.0254 -0.0005 0.00490609 -0.0254 0.0005 0.00547262
-0.0254 -0.0005 0.00547262 -0.0254 0.0005 0.00604356 -0.0254 -0.0005 0.00604356 -0.0254
0.0005 0.00661893 -0.0254 -0.0005 0.00661893 -0.0254 0.0005 0.00719878 -0.0254 -0.0005
0.00719878 -0.0254 0.0005 0.00778313 -0.0254 -0.0005 0.00778313 -0.0254 0.0005 0.00837203
-0.0254 -0.0005 0.00837203 -0.0254 0.0005 0.00896551 -0.0254 -0.0005 0.00896551 -0.0254
0.0005 0.0095636 -0.0254 -0.0005 0.0095636 -0.0254 0.0005 0.0101663 -0.0254 -0.0005
0.0101663 -0.0254 0.0005 0.0107738 -0.0254 -0.0005 0.0107738 -0.0254 0.0005 0.0113859
-0.0254 -0.0005 0.0113859 -0.0254 0.0005 0.0120028 -0.0254 -0.0005 0.0120028 -0.0254
0.0005 0.0126245 -0.0254 -0.0005 0.0126245 -0.0254 0.0005 0.0132511 -0.0254 -0.0005
0.0132511 -0.0254 0.0005 0.0138825 -0.0254 -0.0005 0.0138825 -0.0254 0.0005 0.0145188
-0.0254 -0.0005 0.0145188 -0.0254 0.0005 0.0151601 -0.0254 -0.0005 0.0151601 -0.0254
0.0005 0.0158063 -0.0254 -0.0005 0.0158063 -0.0254 0.0005 0.0164576 -0.0254 -0.0005
0.0164576 -0.0254 0.0005 0.0171139 -0.0254 -0.0005 0.0171139 -0.0254 0.0005 0.0177754
-0.0254 -0.0005 0.0177754 -0.0254 0.0005 0.018442 -0.0254 -0.0005 0.018442 -0.0254
0.0005 0.0191137 -0.0254 -0.0005 0.0191137 -0.0254 0.0005 0.0197907 -0.0254 -0.0005
0.0197907 -0.0254 0.0005 0.020473 -0.0254 -0.0005 0.020473 -0.0254 0.0005 0.0211606
-0.0254 -0.0005 0.0211606 -0.0254 0.0005 0.0218535 -0.0254 -0.0005 0.0218535 -0.0254
0.0005 0.0225517 -0.0254 -0.0005 0.0225517 -0.0254 0.0005 0.0232555 -0.0254 -0.0005
0.0232555 -0.0254 0.0005 0.0239647 -0.0254 -0.0005 0.0239647 -0.0254 0.0005 0.0246794
-0.0254 -0.0005 0.0246794 -0.0254 0.0005 0.0253996 -0.0254 -0.0005 0.0253996 -0.0254
0.0005 0.0261255 -0.0254 -0.0005 0.0261255 -0.0254 0.0005 0.026857 -0.0254 -0.0005
0.026857 -0.0254 0.0005 0.0275942 -0.0254 -0.0005 0.0275942 -0.0254 0.0005 0.0283371
-0.0254 -0.0005 0.0283371 -0.0254 0.0005 0.0290858 -0.0254 -0.0005 0.0290858 -0.0254
0.0005 0.0298403 -0.0254 -0.0005 0.0298403 -0.0254 0.0005 0.0306007 -0.0254 -0.0005
0.0306007 -0.0254 0.0005 0.031367 -0.0254 -0.0005 0.031367 -0.0254 0.0005 0.0321393
-0.0254 -0.0005 0.0321393 -0.0254 0.0005 0.0329175 -0.0254 -0.0005 0.0329175 -0.0254
0.0005 0.0337019 -0.0254 -0.0005 0.0337019 -0.0254 0.0005 0.0344923 -0.0254 -0.0005
0.0344923 -0.0254 0.0005 0.0352888 -0.0254 -0.0005 0.0352888 -0.0254 0.0005 0.0360916
-0.0254 -0.0005 0.0360916 -0.0254 0.0005 0.0369006 -0.0254 -0.0005 0.0369006 -0.0254
0.0005 0.0377158 -0.0254 -0.0005 0.0377158 -0.0254 0.0005 0.0385375 -0.0254 -0.0005
0.0385375 -0.0254 0.0005 0.0393655 -0.0254 -0.0005 0.0393655 -0.0254 0.0005 0.0401999
-0.0254 -0.0005 0.0401999 -0.0254 0.0005 0.0410408 -0.0254 -0.0005 0.0410408 -0.0254
0.0005 0.0418883 -0.0254 -0.0005 0.0418883 -0.0254 0.0005 0.0427424 -0.0254 -0.0005
0.0427424 -0.0254 0.0005 0.0436031 -0.0254 -0.0005 0.0436031 -0.0254 0.0005 0.0444704
-0.0254 -0.0005 0.0444704 -0.0254 0.0005 0.0453446 -0.0254 -0.0005 0.0453446 -0.0254
0.0005 0.0462255 -0.0254 -0.0005 0.0462255 -0.0254 0.0005 0.0471133 -0.0254 -0.0005
0.0471133 -0.0254 0.0005 0.048008 -0.0254 -0.0005 0.048008 -0.0254 0.0005 0.0489096
-0.0254 -0.0005 0.0489096 -0.0254 0.0005 0.0498183 -0.0254 -0.0005 0.0498183 -0.0254
0.0005 0.050734 -0.0254 -0.0005 0.050734 -0.0254 0.0005 0.0516568 -0.0254 -0.0005
0.0516568 -0.0254 0.0005 0.0525868 -0.0254 -0.0005 0.0525868 -0.0254 0.0005 0.053524
-0.0254 -0.0005 0.053524 -0.0254 0.0005 0.0544686 -0.0254 -0.0005 0.0544686 -0.0254
0.0005 0.0554204 -0.0254 -0.0005 0.0554204 -0.0254 0.0005 0.0563797 -0.0254 -0.0005
0.0563797 -0.0254 0.0005 0.0573464 -0.0254 -0.0005 0.0573464 -0.0254 0.0005 0.0583206
-0.0254 -0.0005 0.0583206 -0.0254 0.0005 0.0593025 -0.0254 -0.0005 0.0593025 -0.0254
0.0005 0.0602919 -0.0254 -0.0005 0.0602919 -0.0254 0.0005 0.0612891 -0.0254 -0.0005
0.0612891 -0.0254 0.0005 0.0622939 -0.0254 -0.0005 0.0622939 -0.0254 0.0005 0.0633067
-0.0254 -0.0005 0.0633067 -0.0254 0.0005 0.0643272 -0.0254 -0.0005 0.0643272 -0.0254
0.0005 0.0653557 -0.0254 -0.0005 0.0653557 -0.0254 0.0005 0.0663923 -0.0254 -0.0005
0.0663923 -0.0254 0.0005 0.0674368 -0.0254 -0.0005 0.0674368 -0.0254 0.0005 0.0684895
-0.0254 -0.0005 0.0684895 -0.0254 0.0005 0.0695504 -0.0254 -0.0005 0.0695504 -0.0254
0.0005 0.0706195 -0.0254 -0.0005 0.0706195 -0.0254 0.0005 0.0716969 -0.0254 -0.0005
0.0716969 -0.0254 0.0005 0.0727828 -0.0254 -0.0005 0.0727828 -0.0254 0.0005 0.073877
-0.0254 -0.0005 0.073877 -0.0254 0.0005 0.0749798 -0.0254 -0.0005 0.0749798 -0.0254
0.0005 0.0760911 -0.0254 -0.0005 0.0760911 -0.0254 0.0005 0.0772111 -0.0254 -0.0005
0.0772111 -0.0254 0.0005 0.0783398 -0.0254 -0.0005 0.0783398 -0.0254 0.0005 0.0794772
-0.0254 -0.0005 0.0794772 -0.0254 0.0005 0.0806235 -0.0254 -0.0005 0.0806235 -0.0254
0.0005 0.0817787 -0.0254 -0.0005 0.0817787 -0.0254 0.0005 0.0829429 -0.0254 -0.0005
0.0829429 -0.0254 0.0005 0.0841162 -0.0254 -0.0005 0.0841162 -0.0254 0.0005 0.0852985
-0.0254 -0.0005 0.0852985 -0.0254 0.0005 0.0864901 -0.0254 -0.0005 0.0864901 -0.0254
0.0005 0.0876909 -0.0254 -0.0005 0.0876909 -0.0254 0.0005 0.0889011 -0.0254 -0.0005
0.0889011 -0.0254 0.0005 0.0901207 -0.0254 -0.0005 0.0901207 -0.0254 0.0005 0.0913497
-0.0254 -0.0005 0.0913497 -0.0254 0.0005 0.0925883 -0.0254 -0.0005 0.0925883 -0.0254
0.0005 0.0938366 -0.0254 -0.0005 0.0938366 -0.0254 0.0005 0.0950945 -0.0254 -0.0005
0.0950945 -0.0254 0.0005 0.0963622 -0.0254 -0.0005 0.0963622 -0.0254 0.0005 0.0976398
-0.0254 -0.0005 0.0976398 -0.0254 0.0005 0.0989273 -0.0254 -0.0005 0.0989273 -0.0254
0.0005 0.100225 -0.0254 -0.0005 0.100225 -0.0254 0.0005 0.101532 -0.0254 -0.0005
0.101532 -0.0254 0.0005 0.10285 -0.0254 -0.0005 0.10285 -0.0254 0.0005 0.104178
-0.0254 -0.0005 0.104178 -0.0254 0.0005 0.105517 -0.0254 -0.0005 0.105517 -0.0254
0.0005 0.106865 -0.0254 -0.0005 0.106865 -0.0254 0.0005 0.108225 -0.0254 -0.0005
0.108225 -0.0254 0.0005 0.109594 -0.0254 -0.0005 0.109594 -0.0254 0.0005 0.110975
-0.0254 -0.0005 0.110975 -0.0254 0.0005 0.112366 -0.0254 -0.0005 0.112366 -0.0254
0.0005 0.113768 -0.0254 -0.0005 0.113768 -0.0254 0.0005 0.115181 -0.0254 -0.0005
0.115181 -0.0254 0.0005 0.116605 -0.0254 -0.0005 0.116605 -0.0254 0.0005 0.11804
-0.0254 -0.0005 0.11804 -0.0254 0.0005 0.119486 -0.0254 -0.0005 0.119486 -0.0254
0.0005 0.120943 -0.0254 -0.0005 0.120943 -0.0254 0.0005 0.122412 -0.0254 -0.0005
0.122412 -0.0254 0.0005 0.123892 -0.0254 -0.0005 0.123892 -0.0254 0.0005 0.125384
-0.0254 -0.0005 0.125384 -0.0254 0.0005 0.126887 -0.0254 -0.0005 0.126887 -0.0254
0.0005 0.128402 -0.0254 -0.0005 0.128402 -0.0254 0.0005 0.129928 -0.0254 -0.0005
0.129928 -0.0254 0.0005 0.131467 -0.0254 -0.0005 0.131467 -0.0254 0.0005 0.133017
-0.0254 -0.0005 0.133017 -0.0254 0.0005 0.13458 -0.0254 -0.0005 0.13458 -0.0254
0.0005 0.136155 -0.0254 -0.0005 0.136155 -0.0254 0.0005 0.137742 -0.0254 -0.0005
0.137742 -0.0254 0.0005 0.139341 -0.0254 -0.0005 0.139341 -0.0254 0.0005 0.140953
-0.0254 -0.0005 0.140953 -0.0254 0.0005 0.142577 -0.0254 -0.0005 0.142577 -0.0254
0.0005 0.144214 -0.0254 -0.0005 0.144214 -0.0254 0.0005 0.145863 -0.0254 -0.0005
0.145863 -0.0254 0.0005 0.147526 -0.0254 -0.0005 0.147526 -0.0254 0.0005 0.149201
-0.0254 -0.0005 0.149201 -0.0254 0.0005 0.15089 -0.0254 -0.0005 0.15089 -0.0254
0.0005 0.152591 -0.0254 -0.0005 0.152591 -0.0254 0.0005 0.154306 -0.0254 -0.0005
0.154306 -0.0254 0.0005 0.156034 -0.0254 -0.0005 0.156034 -0.0254 0.0005 0.157775
-0.0254 -0.0005 0.157775 -0.0254 0.0005 0.159531 -0.0254 -0.0005 0.159531 -0.0254
0.0005 0.161299 -0.0254 -0.0005 0.161299 -0.0254 0.0005 0.163082 -0.0254 -0.0005
0.163082 -0.0254 0.0005 0.164878 -0.0254 -0.0005 0.164878 -0.0254 0.0005 0.166688
-0.0254 -0.0005 0.166688 -0.0254 0.0005 0.168513 -0.0254 -0.0005 0.168513 -0.0254
0.0005 0.170351 -0.0254 -0.0005 0.170351 -0.0254 0.0005 0.172204 -0.0254 -0.0005
0.172204 -0.0254 0.0005 0.174071 -0.0254 -0.0005 0.174071 -0.0254 0.0005 0.175953
-0.0254 -0.0005 0.175953 -0.0254 0.0005 0.177849 -0.0254 -0.0005 0.177849 -0.0254
0.0005 0.17976 -0.0254 -0.0005 0.17976 -0.0254 0.0005 0.181686 -0.0254 -0.0005
0.181686 -0.0254 0.0005 0.183627 -0.0254 -0.0005 0.183627 -0.0254 0.0005 0.185583
-0.0254 -0.0005 0.185583 -0.0254 0.0005 0.187555 -0.0254 -0.0005 0.187555 -0.0254
0.0005 0.189541 -0.0254 -0.0005 0.189541 -0.0254 0.0005 0.191543 -0.0254 -0.0005
0.191543 -0.0254 0.0005 0.193561 -0.0254 -0.0005 0.193561 -0.0254 0.0005 0.195594
-0.0254 -0.0005 0.195594 -0.0254 0.0005 0.197643 -0.0254 -0.0005 0.197643 -0.0254
0.0005 0.199708 -0.0254 -0.0005 0.199708 -0.0254 0.0005 0.201789 -0.0254 -0.0005
0.201789 -0.0254 0.0005 0.203886 -0.0254 -0.0005 0.203886 -0.0254 0.0005 0.206
-0.0254 -0.0005 0.206 -0.0254 0.0005 0.208047 -0.0251856 -0.0005 0.208047 -0.0251856
0.0005 0.210173 -0.0249628 -0.0005 0.210173 -0.0249628 0.0005 0.212382 -0.0247314 -0.0005
0.212382 -0.0247314 0.0005 0.214677 -0.024491 -0.0005 0.214677 -0.024491 0.0005 0.217061
-0.0242412 -0.0005 0.217061 -0.0242412 0.0005 0.219538 -0.0239817 -0.0005 0.219538 -0.0239817
0.0005 0.222112 -0.0237121 -0.0005 0.222112 -0.0237121 0.0005 0.224785 -0.023432 -0.0005
0.224785 -0.023432 0.0005 0.227563 -0.023141 -0.0005 0.227563 -0.023141 0.0005 0.230449
-0.0228387 -0.0005 0.230449 -0.0228387 0.0005 0.233447 -0.0225246 -0.0005 0.233447 -0.0225246
0.0005 0.236562 -0.0221983 -0.0005 0.236562 -0.0221983 0.0005 0.239797 -0.0218593 -0.0005
0.239797 -0.0218593 0.0005 0.243159 -0.0215071 -0.0005 0.243159 -0.0215071 0.0005 0.246652
-0.0211412 -0.0005 0.246652 -0.0211412 0.0005 0.250281 -0.0207611 -0.0005 0.250281 -0.0207611
0.0005 0.254051 -0.0203661 -0.0005 0.254051 -0.0203661 0.0005 0.257967 -0.0199558 -0.0005
0.257967 -0.0199558 0.0005 0.262036 -0.0195295 -0.0005 0.262036 -0.0195295 0.0005 0.266264
-0.0190867 -0.0005 0.266264 -0.0190867 0.0005 0.270655 -0.0186266 -0.0005 0.270655 -0.0186266
0.0005 0.275218 -0.0181486 -0.0005 0.275218 -0.0181486 0.0005 0.279959 -0.017652 -0.0005
0.279959 -0.017652 0.0005 0.284883 -0.017136 -0.0005 0.284883 -0.017136 0.0005 0.29
-0.0166 -0.0005 0.29 -0.0166 0.0005 
POLYGONS 250 1250
4 0 1 2 3 4 1 4 5 2 4
4 6 7 5 4 6 8 9 7 4
8 10 11 9 4 10 12 13 11 4
12 14 15 13 4 14 16 17 15 4
16 18 19 17 4 18 20 21 19 4
20 22 23 21 4 22 24 25 23 4
24 26 27 25 4 26 28 29 27 4
28 30 31 29 4 30 32 33 31 4
32 34 35 33 4 34 36 37 35 4
38 39 40 41 4 41 40 42 43 4
43 42 44 45 4 45 44 46 47 4
47 46 48 49 4 49 48 50 51 4
51 50 52 53 4 53 52 54 55 4
55 54 56 57 4 57 56 58 59 4
59 58 60 61 4 61 60 62 63 4
63 62 64 65 4 65 64 66 67 4
67 66 68 69 4 69 68 70 71 4
71 70 72 73 4 73 72 74 75 4
75 74 76 77 4 77 76 78 79 4
79 78 80 81 4 81 80 82 83 4
83 82 84 85 4 85 84 86 87 4
87 86 88 89 4 89 88 90 91 4
91 90 37 36 4 38 92 93 39 4
92 94 95 93 4 94 96 97 95 4
96 98 99 97 4 98 100 101 99 4
100 102 103 101 4 102 104 105 103 4
104 106 107 105 4 106 108 109 107 4
108 110 111 109 4 110 112 113 111 4
112 114 115 113 4 114 116 117 115 4
116 118 119 117 4 118 120 121 119 4
120 122 123 121 4 122 124 125 123 4
124 126 127 125 4 126 128 129 127 4
128 130 131 129 4 130 132 133 131 4
132 134 135 133 4 134 136 137 135 4
136 138 139 137 4 138 140 141 139 4
140 142 143 141 4 142 144 145 143 4
144 146 147 145 4 146 148 149 147 4
148 150 151 149 4 150 152 153 151 4
152 154 155 153 4 154 156 157 155 4
156 158 159 157 4 158 160 161 159 4
160 162 163 161 4 162 164 165 163 4
164 166 167 165 4 166 168 169 167 4
168 170 171 169 4 170 172 173 171 4
172 174 175 173 4 174 176 177 175 4
176 178 179 177 4 178 180 181 179 4
180 182 183 181 4 182 184 185 183 4
184 186 187 185 4 186 188 189 187 4
188 190 191 189 4 190 192 193 191 4
192 194 195 193 4 194 196 197 195 4
196 198 199 197 4 198 200 201 199 4
200 202 203 201 4 202 204 205 203 4
204 206 207 205 4 206 208 209 207 4
208 210 211 209 4 210 212 213 211 4
212 214 215 213 4 214 216 217 215 4
216 218 219 217 4 218 220 221 219 4
220 222 223 221 4 222 224 225 223 4
224 226 227 225 4 226 228 229 227 4
228 230 231 229 4 230 232 233 231 4
232 234 235 233 4 234 236 237 235 4
236 238 239 237 4 238 240 241 239 4
240 242 243 241 4 242 244 245 243 4
244 246 247 245 4 246 248 249 247 4
248 250 251 249 4 250 252 253 251 4
252 254 255 253 4 254 256 257 255 4
256 258 259 257 4 258 260 261 259 4
260 262 263 261 4 262 264 265 263 4
264 266 267 265 4 266 268 269 267 4
268 270 271 269 4 270 272 273 271 4
272 274 275 273 4 274 276 277 275 4
276 278 279 277 4 278 280 281 279 4
280 282 283 281 4 282 284 285 283 4
284 286 287 285 4 286 288 289 287 4
288 290 291 289 4 290 292 293 291 4
292 294 295 293 4 294 296 297 295 4
296 298 299 297 4 298 300 301 299 4
300 302 303 301 4 302 304 305 303 4
304 306 307 305 4 306 308 309 307 4
308 310 311 309 4 310 312 313 311 4
312 314 315 313 4 314 316 317 315 4
316 318 319 317 4 318 320 321 319 4
320 322 323 321 4 322 324 325 323 4
324 326 327 325 4 326 328 329 327 4
328 330 331 329 4 330 332 333 331 4
332 334 335 333 4 334 336 337 335 4
336 338 339 337 4 338 340 341 339 4
340 342 343 341 4 342 344 345 343 4
344 346 347 345 4 346 348 349 347 4
348 350 351 349 4 350 352 353 351 4
352 354 355 353 4 354 356 357 355 4
356 358 359 357 4 358 360 361 359 4
360 362 363 361 4 362 364 365 363 4
364 366 367 365 4 366 368 369 367 4
368 370 371 369 4 370 372 373 371 4
372 374 375 373 4 374 376 377 375 4
376 378 379 377 4 378 380 381 379 4
380 382 383 381 4 382 384 385 383 4
384 386 387 385 4 386 388 389 387 4
388 390 391 389 4 390 392 393 391 4
392 394 395 393 4 394 396 397 395 4
396 398 399 397 4 398 400 401 399 4
400 402 403 401 4 402 404 405 403 4
404 406 407 405 4 406 408 409 407 4
408 410 411 409 4 410 412 413 411 4
412 414 415 413 4 414 416 417 415 4
416 418 419 417 4 418 420 421 419 4
420 422 423 421 4 422 424 425 423 4
424 426 427 425 4 426 428 429 427 4
428 430 431 429 4 430 432 433 431 4
432 434 435 433 4 434 436 437 435 4
436 438 439 437 4 438 440 441 439 4
440 442 443 441 4 442 444 445 443 4
444 446 447 445 4 446 448 449 447 4
448 450 451 449 4 450 452 453 451 4
452 454 455 453 4 454 456 457 455 4
456 458 459 457 4 458 460 461 459 4
460 462 463 461 4 462 464 465 463 4
464 466 467 465 4 466 468 469 467 4
468 470 471 469 4 470 472 473 471 4
472 474 475 473 4 474 476 477 475 4
476 478 479 477 4 478 480 481 479 4
480 482 483 481 4 482 484 485 483 4
484 486 487 485 4 486 488 489 487 4
488 490 491 489 4 490 492 493 491 4
492 494 495 493 4 494 496 497 495 4
496 498 499 497 4 498 500 501 499 
POINT_DATA 502
FIELD attributes 1
U 3 502 float
3.24902 0.0029982 -0.0166267 1.63136 0.00172085 -0.00819365 1.63136 0.00172085 -0.00819365 3.24902 0.0029982
-0.0166267 0.0586275 0.000421974 0 0.0586275 0.000421974 0 0.0569067 0.000294155 0
0.0569067 0.000294155 0 0.0555531 0.000248505 0 0.0555531 0.000248505 0 0.054359
0.000337303 0 0.054359 0.000337303 0 0.0530652 0.000435601 0 0.0530652 0.000435601
0 0.0515091 0.000448841 0 0.0515091 0.000448841 0 0.0497271 0.000380263 0
0.0497271 0.000380263 0 0.0479177 0.000293374 0 0.0479177 0.000293374 0 0.0461967
0.000232706 0 0.0461967 0.000232706 0 0.0446763 0.00019948 0 0.0446763 0.00019948
0 0.0432874 0.00018699 0 0.0432874 0.00018699 0 0.042093 0.00017591 0
0.042093 0.00017591 0 0.0408464 0.000179799 0 0.0408464 0.000179799 0 0.0399065
0.00018062 0 0.0399065 0.00018062 0 0.0386245 0.000225375 0 0.0386245 0.000225375
0 0.0375719 0.000262365 0 0.0375719 0.000262365 0 0.0161204 0.000245594 0
0.0161204 0.000245594 0 -6.25881e-05 9.89282e-05 -5.27753e-23 -6.25881e-05 9.89282e-05 -5.27753e-23 -0.000146141
0.000611474 1.42689e-22 -0.000146141 0.000611474 1.42689e-22 -0.000229826 0.00173028 1.69196e-22 -0.000229826 0.00173028
1.69196e-22 -0.000218415 0.00288098 -3.385e-22 -0.000218415 0.00288098 -3.385e-22 -0.000196138 0.00392242 -1.12837e-22
-0.000196138 0.00392242 -1.12837e-22 -0.000175588 0.00487596 2.25782e-22 -0.000175588 0.00487596 2.25782e-22 -0.000155631
0.00574978 0 -0.000155631 0.00574978 0 -0.000132867 0.00653962 4.55346e-22 -0.000132867 0.00653962
4.55346e-22 -0.000104917 0.00722956 1.00842e-25 -0.000104917 0.00722956 1.00842e-25 -7.10983e-05 0.00779585 -4.55245e-22
-7.10983e-05 0.00779585 -4.55245e-22 -3.0109e-05 0.00821173 4.57858e-22 -3.0109e-05 0.00821173 4.57858e-22 2.06428e-05
0.00844394 2.65282e-28 2.06428e-05 0.00844394 2.65282e-28 8.31825e-05 0.00845012 -4.57858e-22 8.31825e-05 0.00845012
-4.57858e-22 0.000159134 0.00817763 -4.58472e-22 0.000159134 0.00817763 -4.58472e-22 0.000254027 0.00757916 5.68832e-26
0.000254027 0.00757916 5.68832e-26 0.000377301 0.00656914 4.66656e-22 0.000377301 0.00656914 4.66656e-22 0.000536495
0.00496072 0 0.000536495 0.00496072 0 0.000706287 0.00287807 0 0.000706287 0.00287807
0 0.00070625 0.000373057 0 0.00070625 0.000373057 0 0.0003048 -0.00188364 0
0.0003048 -0.00188364 0 4.93332e-05 -0.00317873 0 4.93332e-05 -0.00317873 0 0.000294857
-0.00421942 0 0.000294857 -0.00421942 0 0.000205311 -0.00511328 0 0.000205311 -0.00511328
0 -0.000649554 -0.00480588 0 -0.000649554 -0.00480588 0 -0.00164575 -0.00349885 0
-0.00164575 -0.00349885 0 -0.00166424 -0.00100318 0 -0.00166424 -0.00100318 0 -0.00152774
0.000481329 0 -0.00152774 0.000481329 0 -0.000140705 0.000107458 -2.25021e-25 -0.000140705 0.000107458
-2.25021e-25 -0.000301176 0.00012081 2.62299e-23 -0.000301176 0.00012081 2.62299e-23 -0.000470015 0.00013282 0
-0.000470015 0.00013282 0 -0.000649101 0.000148937 0 -0.000649101 0.000148937 0 -0.00084135
0.000167938 -2.54686e-23 -0.00084135 0.000167938 -2.54686e-23 -0.00104824 0.000188628 -2.55144e-23 -0.00104824 0.000188628
-2.55144e-23 -0.00127048 0.000209793 0 -0.00127048 0.000209793 0 -0.0015083 0.000230451 0
-0.0015083 0.000230451 0 -0.00176135 0.000249898 0 -0.00176135 0.000249898 0 -0.00202914
0.000267667 2.46388e-23 -0.00202914 0.000267667 2.46388e-23 -0.00231091 0.000283505 2.46857e-23 -0.00231091 0.000283505
2.46857e-23 -0.00260582 0.000297293 0 -0.00260582 0.000297293 0 -0.00291296 0.000308997 0
-0.00291296 0.000308997 0 -0.00323122 0.000318662 0 -0.00323122 0.000318662 0 -0.00355918
0.000326335 2.38887e-23 -0.00355918 0.000326335 2.38887e-23 -0.00389505 0.000331952 2.39369e-23 -0.00389505 0.000331952
2.39369e-23 -0.00423687 0.000335316 0 -0.00423687 0.000335316 0 -0.0045825 0.000336177 0
-0.0045825 0.000336177 0 -0.00492949 0.000334274 0 -0.00492949 0.000334274 0 -0.00527507
0.000329349 0 -0.00527507 0.000329349 0 -0.00561611 0.000321129 0 -0.00561611 0.000321129
0 -0.00594907 0.000309358 0 -0.00594907 0.000309358 0 -0.00627002 0.000293831 2.27923e-23
-0.00627002 0.000293831 2.27923e-23 -0.00657468 0.000274416 1.95063e-25 -0.00657468 0.000274416 1.95063e-25 -0.00685852
0.000251075 -2.01779e-25 -0.00685852 0.000251075 -2.01779e-25 -0.00711679 0.000223871 4.48844e-23 -0.00711679 0.000223871
4.48844e-23 -0.00734467 0.000192976 2.23881e-23 -0.00734467 0.000192976 2.23881e-23 -0.00753743 0.000158684 0
-0.00753743 0.000158684 0 -0.00769064 0.000121475 -2.1792e-23 -0.00769064 0.000121475 -2.1792e-23 -0.00780008
8.20829e-05 -4.34267e-23 -0.00780008 8.20829e-05 -4.34267e-23 -0.00786208 4.13679e-05 -2.16347e-23 -0.00786208 4.13679e-05
-2.16347e-23 -0.00787373 8.84016e-08 0 -0.00787373 8.84016e-08 0 -0.00783422 -4.09525e-05 -2.08593e-23
-0.00783422 -4.09525e-05 -2.08593e-23 -0.00774363 -8.11712e-05 -2.09106e-23 -0.00774363 -8.11712e-05 -2.09106e-23 -0.00760191
-0.000120178 0 -0.00760191 -0.000120178 0 -0.00741032 -0.000157394 2.00005e-23 -0.00741032 -0.000157394
2.00005e-23 -0.00717085 -0.000192231 2.00513e-23 -0.00717085 -0.000192231 2.00513e-23 -0.00688629 -0.000224152 1.93757e-23
-0.00688629 -0.000224152 1.93757e-23 -0.00656012 -0.000252716 5.75357e-23 -0.00656012 -0.000252716 5.75357e-23 -0.00619633
-0.000277594 3.82096e-23 -0.00619633 -0.000277594 3.82096e-23 -0.00579936 -0.00029857 0 -0.00579936 -0.00029857
0 -0.00537393 -0.000315578 0 -0.00537393 -0.000315578 0 -0.00492482 -0.000328672 0
-0.00492482 -0.000328672 0 -0.00445681 -0.000337925 0 -0.00445681 -0.000337925 0 -0.00397465
-0.000343483 3.43408e-23 -0.00397465 -0.000343483 3.43408e-23 -0.00348281 -0.00034575 6.82e-23 -0.00348281 -0.00034575
6.82e-23 -0.00298549 -0.000345154 6.70664e-23 -0.00298549 -0.000345154 6.70664e-23 -0.00248643 -0.000341675 3.33022e-23
-0.00248643 -0.000341675 3.33022e-23 -0.00198893 -0.000335771 -3.21646e-23 -0.00198893 -0.000335771 -3.21646e-23 -0.00149661
-0.000328261 -3.22578e-23 -0.00149661 -0.000328261 -3.22578e-23 -0.00101231 -0.000318726 3.12135e-23 -0.00101231 -0.000318726
3.12135e-23 -0.000537712 -0.000307681 6.20769e-23 -0.000537712 -0.000307681 6.20769e-23 -7.56296e-05 -0.000296314 3.0863e-23
-7.56296e-05 -0.000296314 3.0863e-23 0.000371864 -0.000284124 0 0.000371864 -0.000284124 0 0.000805249
-0.000271093 0 0.000805249 -0.000271093 0 0.00122398 -0.000257825 2.91058e-23 0.00122398 -0.000257825
2.91058e-23 0.00162664 -0.000244462 2.9196e-23 0.00162664 -0.000244462 2.9196e-23 0.0020128 -0.000231141 0
0.0020128 -0.000231141 0 0.00238226 -0.000217982 0 0.00238226 -0.000217982 0 0.00273498
-0.000205084 0 0.00273498 -0.000205084 0 0.00307108 -0.000192527 0 0.00307108 -0.000192527
0 0.00339078 -0.00018037 0 0.00339078 -0.00018037 0 0.00369442 -0.000168661 0
0.00369442 -0.000168661 0 0.0039824 -0.000157433 0 0.0039824 -0.000157433 0 0.00425518
-0.000146706 -2.62146e-23 0.00425518 -0.000146706 -2.62146e-23 0.00451325 -0.000136496 -2.63026e-23 0.00451325 -0.000136496
-2.63026e-23 0.00475715 -0.000126805 0 0.00475715 -0.000126805 0 0.00498743 -0.000117634 2.54129e-23
0.00498743 -0.000117634 2.54129e-23 0.00520465 -0.000108977 5.06569e-23 0.00520465 -0.000108977 5.06569e-23 0.00540938
-0.000100823 2.52439e-23 0.00540938 -0.000100823 2.52439e-23 0.00560219 -9.31609e-05 -2.46562e-23 0.00560219 -9.31609e-05
-2.46562e-23 0.00578364 -8.59747e-05 -3.31838e-25 0.00578364 -8.59747e-05 -3.31838e-25 0.00595429 -7.92476e-05 2.44987e-23
0.00595429 -7.92476e-05 2.44987e-23 0.00611469 -7.29616e-05 -2.39316e-23 0.00611469 -7.29616e-05 -2.39316e-23 0.00626536
-6.70978e-05 -2.40184e-23 0.00626536 -6.70978e-05 -2.40184e-23 0.00640682 -6.16364e-05 0 0.00640682 -6.16364e-05
0 0.00653958 -5.65577e-05 2.32306e-23 0.00653958 -5.65577e-05 2.32306e-23 0.00666411 -5.18416e-05 2.3317e-23
0.00666411 -5.18416e-05 2.3317e-23 0.00678089 -4.74684e-05 -2.27734e-23 0.00678089 -4.74684e-05 -2.27734e-23 0.00689036
-4.34184e-05 -2.28594e-23 0.00689036 -4.34184e-05 -2.28594e-23 0.00699295 -3.96725e-05 2.23229e-23 0.00699295 -3.96725e-05
2.23229e-23 0.00708908 -3.6212e-05 4.45085e-23 0.00708908 -3.6212e-05 4.45085e-23 0.00717913 -3.3019e-05 4.40636e-23
0.00717913 -3.3019e-05 4.40636e-23 0.00726348 -3.00764e-05 6.52793e-23 0.00726348 -3.00764e-05 6.52793e-23 0.00734249
-2.73676e-05 6.08403e-25 0.00734249 -2.73676e-05 6.08403e-25 0.0074165 -2.48766e-05 -4.30473e-23 0.0074165 -2.48766e-05
-4.30473e-23 0.00748582 -2.25882e-05 0 0.00748582 -2.25882e-05 0 0.00755077 -2.0488e-05 0
0.00755077 -2.0488e-05 0 0.00761163 -1.85622e-05 -4.11476e-23 0.00761163 -1.85622e-05 -4.11476e-23 0.00766866
-1.67979e-05 -8.2036e-23 0.00766866 -1.67979e-05 -8.2036e-23 0.00772213 -1.51826e-05 -5.9233e-25 0.00772213 -1.51826e-05
-5.9233e-25 0.00777229 -1.37047e-05 4.04623e-23 0.00777229 -1.37047e-05 4.04623e-23 0.00781934 -1.23537e-05 -3.94517e-23
0.00781934 -1.23537e-05 -3.94517e-23 0.00786352 -1.11194e-05 -7.865e-23 0.00786352 -1.11194e-05 -7.865e-23 0.00790501
-9.99161e-06 -7.78135e-23 0.00790501 -9.99161e-06 -7.78135e-23 0.00794401 -8.9622e-06 -3.87802e-23 0.00794401 -8.9622e-06
-3.87802e-23 0.00798068 -8.0238e-06 0 0.00798068 -8.0238e-06 0 0.00801521 -7.16659e-06 0
0.00801521 -7.16659e-06 0 0.00804774 -6.38323e-06 -3.69675e-23 0.00804774 -6.38323e-06 -3.69675e-23 0.0080784
-5.67188e-06 -3.71293e-23 0.0080784 -5.67188e-06 -3.71293e-23 0.00810735 -5.02349e-06 0 0.00810735 -5.02349e-06
0 0.00813469 -4.42623e-06 3.57517e-23 0.00813469 -4.42623e-06 3.57517e-23 0.00816055 -3.88502e-06 3.59114e-23
0.00816055 -3.88502e-06 3.59114e-23 0.00818505 -3.39642e-06 0 0.00818505 -3.39642e-06 0 0.00820826
-2.94242e-06 3.45534e-23 0.00820826 -2.94242e-06 3.45534e-23 0.0082303 -2.52637e-06 3.47107e-23 0.0082303 -2.52637e-06
3.47107e-23 0.00825125 -2.14567e-06 0 0.00825125 -2.14567e-06 0 0.00827117 -1.79339e-06 -3.33723e-23
0.00827117 -1.79339e-06 -3.33723e-23 0.00829017 -1.46551e-06 -6.65097e-23 0.00829017 -1.46551e-06 -6.65097e-23 0.00830828
-1.12662e-06 -3.31365e-23 0.00830828 -1.12662e-06 -3.31365e-23 0.00832546 -7.57716e-07 3.22086e-23 0.00832546 -7.57716e-07
3.22086e-23 0.00834174 -3.78475e-07 3.23608e-23 0.00834174 -3.78475e-07 3.23608e-23 0.0083572 -1.39944e-08 -3.14423e-23
0.0083572 -1.39944e-08 -3.14423e-23 0.00837187 3.37155e-07 -3.15928e-23 0.00837187 3.37155e-07 -3.15928e-23 0.00838579
7.02154e-07 -3.06838e-23 0.00838579 7.02154e-07 -3.06838e-23 0.00839897 1.08989e-06 -6.11398e-23 0.00839897 1.08989e-06
-6.11398e-23 0.00841141 1.47806e-06 -3.0455e-23 0.00841141 1.47806e-06 -3.0455e-23 0.00842316 1.82659e-06 0
0.00842316 1.82659e-06 0 0.00843432 2.09796e-06 0 0.00843432 2.09796e-06 0 0.008445
2.27489e-06 0 0.008445 2.27489e-06 0 0.00845533 2.36329e-06 0 0.00845533 2.36329e-06
0 0.0084654 2.38405e-06 0 0.0084654 2.38405e-06 0 0.00847529 2.36207e-06 0
0.00847529 2.36207e-06 0 0.00848505 2.31817e-06 -2.73638e-23 0.00848505 2.31817e-06 -2.73638e-23 0.00849471
2.26606e-06 -4.99085e-25 0.00849471 2.26606e-06 -4.99085e-25 0.00850428 2.21301e-06 2.71423e-23 0.00850428 2.21301e-06
2.71423e-23 0.00851377 2.16209e-06 0 0.00851377 2.16209e-06 0 0.00852319 2.11433e-06 0
0.00852319 2.11433e-06 0 0.00853255 2.06992e-06 0 0.00853255 2.06992e-06 0 0.00854186
2.02887e-06 5.04634e-23 0.00854186 2.02887e-06 5.04634e-23 0.00855113 1.99108e-06 5.07285e-23 0.00855113 1.99108e-06
5.07285e-23 0.00856037 1.95643e-06 -4.90695e-23 0.00856037 1.95643e-06 -4.90695e-23 0.00856959 1.9248e-06 -9.52245e-25
0.00856959 1.9248e-06 -9.52245e-25 0.0085788 1.89605e-06 4.86355e-23 0.0085788 1.89605e-06 4.86355e-23 0.008588
1.87004e-06 0 0.008588 1.87004e-06 0 0.0085972 1.84661e-06 0 0.0085972 1.84661e-06
0 0.00860642 1.8256e-06 -4.56426e-23 0.00860642 1.8256e-06 -4.56426e-23 0.00861564 1.80686e-06 -9.08574e-23
0.00861564 1.80686e-06 -9.08574e-23 0.00862489 1.79022e-06 -4.52123e-23 0.00862489 1.79022e-06 -4.52123e-23 0.00863416
1.77557e-06 -4.36245e-23 0.00863416 1.77557e-06 -4.36245e-23 0.00864346 1.76282e-06 -8.68227e-23 0.00864346 1.76282e-06
-8.68227e-23 0.0086528 1.75189e-06 -9.0134e-25 0.0086528 1.75189e-06 -9.0134e-25 0.00866217 1.7427e-06 4.25294e-23
0.00866217 1.7427e-06 4.25294e-23 0.00867159 1.7352e-06 0 0.00867159 1.7352e-06 0 0.00868105
1.72938e-06 4.03209e-23 0.00868105 1.72938e-06 4.03209e-23 0.00869056 1.72526e-06 4.05479e-23 0.00869056 1.72526e-06
4.05479e-23 0.00870012 1.72288e-06 0 0.00870012 1.72288e-06 0 0.00870973 1.7223e-06 0
0.00870973 1.7223e-06 0 0.00871938 1.72361e-06 0 0.00871938 1.72361e-06 0 0.00872909
1.72695e-06 -3.70865e-23 0.00872909 1.72695e-06 -3.70865e-23 0.00873885 1.73254e-06 -7.37471e-23 0.00873885 1.73254e-06
-7.37471e-23 0.00874865 1.74066e-06 -3.66578e-23 0.00874865 1.74066e-06 -3.66578e-23 0.0087585 1.75173e-06 -3.51763e-23
0.0087585 1.75173e-06 -3.51763e-23 0.00876838 1.76623e-06 -3.5381e-23 0.00876838 1.76623e-06 -3.5381e-23 0.00877829
1.7849e-06 0 0.00877829 1.7849e-06 0 0.00878821 1.80843e-06 -3.32871e-23 0.00878821 1.80843e-06
-3.32871e-23 0.00879814 1.83824e-06 -3.3483e-23 0.00879814 1.83824e-06 -3.3483e-23 0.00880804 1.87512e-06 -3.20384e-23
0.00880804 1.87512e-06 -3.20384e-23 0.00881791 1.92203e-06 -3.22284e-23 0.00881791 1.92203e-06 -3.22284e-23 0.00882769
1.97946e-06 0 0.00882769 1.97946e-06 0 0.00883736 2.05331e-06 -3.01801e-23 0.00883736 2.05331e-06
-3.01801e-23 0.00884684 2.14383e-06 -3.0361e-23 0.00884684 2.14383e-06 -3.0361e-23 0.00885609 2.26005e-06 -2.89501e-23