# vtk DataFile Version 2.0
sampleSurface
ASCII
DATASET POLYDATA
POINTS 502 float
-0.0206 0 -0.0005 -0.0190172 0 -0.0005 -0.0190172 0 0.0005 -0.0206 0
0.0005 -0.0174976 0 -0.0005 -0.0174976 0 0.0005 -0.0160387 0 -0.0005
-0.0160387 0 0.0005 -0.0146381 0 -0.0005 -0.0146381 0 0.0005 -0.0132934
0 -0.0005 -0.0132934 0 0.0005 -0.0120025 0 -0.0005 -0.0120025 0
0.0005 -0.0107632 0 -0.0005 -0.0107632 0 0.0005 -0.00957337 0 -0.0005
-0.00957337 0 0.0005 -0.00843108 0 -0.0005 -0.00843108 0 0.0005 -0.00733443
0 -0.0005 -0.00733443 0 0.0005 -0.0062816 0 -0.0005 -0.0062816 0
0.0005 -0.00527083 0 -0.0005 -0.00527083 0 0.0005 -0.00430044 0 -0.0005
-0.00430044 0 0.0005 -0.00336883 0 -0.0005 -0.00336883 0 0.0005 -0.00247443
0 -0.0005 -0.00247443 0 0.0005 -0.00161577 0 -0.0005 -0.00161577 0
0.0005 -0.000791418 0 -0.0005 -0.000791418 0 0.0005 0 0 -0.0005
0 0 0.0005 0 -0.0254 -0.0005 0 -0.0254 0.0005 0
-0.0242711 0.0005 0 -0.0242711 -0.0005 0 -0.0231422 0.0005 0 -0.0231422
-0.0005 0 -0.0220133 0.0005 0 -0.0220133 -0.0005 0 -0.0208844 0.0005
0 -0.0208844 -0.0005 0 -0.0197556 0.0005 0 -0.0197556 -0.0005 0
-0.0186267 0.0005 0 -0.0186267 -0.0005 0 -0.0174978 0.0005 0 -0.0174978
-0.0005 0 -0.0163689 0.0005 0 -0.0163689 -0.0005 0 -0.01524 0.0005
0 -0.01524 -0.0005 0 -0.0141111 0.0005 0 -0.0141111 -0.0005 0
-0.0129822 0.0005 0 -0.0129822 -0.0005 0 -0.0118533 0.0005 0 -0.0118533
-0.0005 0 -0.0107244 0.0005 0 -0.0107244 -0.0005 0 -0.00959556 0.0005
0 -0.00959556 -0.0005 0 -0.00846667 0.0005 0 -0.00846667 -0.0005 0
-0.00726604 0.0005 0 -0.00726604 -0.0005 0 -0.00618989 0.0005 0 -0.00618989
-0.0005 0 -0.00522531 0.0005 0 -0.00522531 -0.0005 0 -0.00436073 0.0005
0 -0.00436073 -0.0005 0 -0.00358579 0.0005 0 -0.00358579 -0.0005 0
-0.00289118 0.0005 0 -0.00289118 -0.0005 0 -0.0022686 0.0005 0 -0.0022686
-0.0005 0 -0.00171055 0.0005 0 -0.00171055 -0.0005 0 -0.00121037 0.0005
0 -0.00121037 -0.0005 0 -0.000762037 0.0005 0 -0.000762037 -0.0005 0
-0.000360188 0.0005 0 -0.000360188 -0.0005 0.000528387 -0.0254 -0.0005 0.000528387 -0.0254
0.0005 0.00106088 -0.0254 -0.0005 0.00106088 -0.0254 0.0005 0.00159752 -0.0254 -0.0005
0.00159752 -0.0254 0.0005 0.00213833 -0.0254 -0.0005 0.00213833 -0.0254 0.0005 0.00268334
-0.0254 -0.0005 0.00268334 -0.0254 0.0005 0.00323259 -0.0254 -0.0005 0.00323259 -0.0254
0.0005 0.00378611 -0.0254 -0.0005 0.00378611 -0.0254 0.0005 0.00434393 -0.0254 -0.0005
0.00434393 -0.0254 0.0005 0.00490609 -0.0254 -0.0005 0.00490609 -0.0254 0.0005 0.00547262
-0.0254 -0.0005 0.00547262 -0.0254 0.0005 0.00604356 -0.0254 -0.0005 0.00604356 -0.0254
0.0005 0.00661893 -0.0254 -0.0005 0.00661893 -0.0254 0.0005 0.00719878 -0.0254 -0.0005
0.00719878 -0.0254 0.0005 0.00778313 -0.0254 -0.0005 0.00778313 -0.0254 0.0005 0.00837203
-0.0254 -0.0005 0.00837203 -0.0254 0.0005 0.00896551 -0.0254 -0.0005 0.00896551 -0.0254
0.0005 0.0095636 -0.0254 -0.0005 0.0095636 -0.0254 0.0005 0.0101663 -0.0254 -0.0005
0.0101663 -0.0254 0.0005 0.0107738 -0.0254 -0.0005 0.0107738 -0.0254 0.0005 0.0113859
-0.0254 -0.0005 0.0113859 -0.0254 0.0005 0.0120028 -0.0254 -0.0005 0.0120028 -0.0254
0.0005 0.0126245 -0.0254 -0.0005 0.0126245 -0.0254 0.0005 0.0132511 -0.0254 -0.0005
0.0132511 -0.0254 0.0005 0.0138825 -0.0254 -0.0005 0.0138825 -0.0254 0.0005 0.0145188
-0.0254 -0.0005 0.0145188 -0.0254 0.0005 0.0151601 -0.0254 -0.0005 0.0151601 -0.0254
0.0005 0.0158063 -0.0254 -0.0005 0.0158063 -0.0254 0.0005 0.0164576 -0.0254 -0.0005
0.0164576 -0.0254 0.0005 0.0171139 -0.0254 -0.0005 0.0171139 -0.0254 0.0005 0.0177754
-0.0254 -0.0005 0.0177754 -0.0254 0.0005 0.018442 -0.0254 -0.0005 0.018442 -0.0254
0.0005 0.0191137 -0.0254 -0.0005 0.0191137 -0.0254 0.0005 0.0197907 -0.0254 -0.0005
0.0197907 -0.0254 0.0005 0.020473 -0.0254 -0.0005 0.020473 -0.0254 0.0005 0.0211606
-0.0254 -0.0005 0.0211606 -0.0254 0.0005 0.0218535 -0.0254 -0.0005 0.0218535 -0.0254
0.0005 0.0225517 -0.0254 -0.0005 0.0225517 -0.0254 0.0005 0.0232555 -0.0254 -0.0005
0.0232555 -0.0254 0.0005 0.0239647 -0.0254 -0.0005 0.0239647 -0.0254 0.0005 0.0246794
-0.0254 -0.0005 0.0246794 -0.0254 0.0005 0.0253996 -0.0254 -0.0005 0.0253996 -0.0254
0.0005 0.0261255 -0.0254 -0.0005 0.0261255 -0.0254 0.0005 0.026857 -0.0254 -0.0005
0.026857 -0.0254 0.0005 0.0275942 -0.0254 -0.0005 0.0275942 -0.0254 0.0005 0.0283371
-0.0254 -0.0005 0.0283371 -0.0254 0.0005 0.0290858 -0.0254 -0.0005 0.0290858 -0.0254
0.0005 0.0298403 -0.0254 -0.0005 0.0298403 -0.0254 0.0005 0.0306007 -0.0254 -0.0005
0.0306007 -0.0254 0.0005 0.031367 -0.0254 -0.0005 0.031367 -0.0254 0.0005 0.0321393
-0.0254 -0.0005 0.0321393 -0.0254 0.0005 0.0329175 -0.0254 -0.0005 0.0329175 -0.0254
0.0005 0.0337019 -0.0254 -0.0005 0.0337019 -0.0254 0.0005 0.0344923 -0.0254 -0.0005
0.0344923 -0.0254 0.0005 0.0352888 -0.0254 -0.0005 0.0352888 -0.0254 0.0005 0.0360916
-0.0254 -0.0005 0.0360916 -0.0254 0.0005 0.0369006 -0.0254 -0.0005 0.0369006 -0.0254
0.0005 0.0377158 -0.0254 -0.0005 0.0377158 -0.0254 0.0005 0.0385375 -0.0254 -0.0005
0.0385375 -0.0254 0.0005 0.0393655 -0.0254 -0.0005 0.0393655 -0.0254 0.0005 0.0401999
-0.0254 -0.0005 0.0401999 -0.0254 0.0005 0.0410408 -0.0254 -0.0005 0.0410408 -0.0254
0.0005 0.0418883 -0.0254 -0.0005 0.0418883 -0.0254 0.0005 0.0427424 -0.0254 -0.0005
0.0427424 -0.0254 0.0005 0.0436031 -0.0254 -0.0005 0.0436031 -0.0254 0.0005 0.0444704
-0.0254 -0.0005 0.0444704 -0.0254 0.0005 0.0453446 -0.0254 -0.0005 0.0453446 -0.0254
0.0005 0.0462255 -0.0254 -0.0005 0.0462255 -0.0254 0.0005 0.0471133 -0.0254 -0.0005
0.0471133 -0.0254 0.0005 0.048008 -0.0254 -0.0005 0.048008 -0.0254 0.0005 0.0489096
-0.0254 -0.0005 0.0489096 -0.0254 0.0005 0.0498183 -0.0254 -0.0005 0.0498183 -0.0254
0.0005 0.050734 -0.0254 -0.0005 0.050734 -0.0254 0.0005 0.0516568 -0.0254 -0.0005
0.0516568 -0.0254 0.0005 0.0525868 -0.0254 -0.0005 0.0525868 -0.0254 0.0005 0.053524
-0.0254 -0.0005 0.053524 -0.0254 0.0005 0.0544686 -0.0254 -0.0005 0.0544686 -0.0254
0.0005 0.0554204 -0.0254 -0.0005 0.0554204 -0.0254 0.0005 0.0563797 -0.0254 -0.0005
0.0563797 -0.0254 0.0005 0.0573464 -0.0254 -0.0005 0.0573464 -0.0254 0.0005 0.0583206
-0.0254 -0.0005 0.0583206 -0.0254 0.0005 0.0593025 -0.0254 -0.0005 0.0593025 -0.0254
0.0005 0.0602919 -0.0254 -0.0005 0.0602919 -0.0254 0.0005 0.0612891 -0.0254 -0.0005
0.0612891 -0.0254 0.0005 0.0622939 -0.0254 -0.0005 0.0622939 -0.0254 0.0005 0.0633067
-0.0254 -0.0005 0.0633067 -0.0254 0.0005 0.0643272 -0.0254 -0.0005 0.0643272 -0.0254
0.0005 0.0653557 -0.0254 -0.0005 0.0653557 -0.0254 0.0005 0.0663923 -0.0254 -0.0005
0.0663923 -0.0254 0.0005 0.0674368 -0.0254 -0.0005 0.0674368 -0.0254 0.0005 0.0684895
-0.0254 -0.0005 0.0684895 -0.0254 0.0005 0.0695504 -0.0254 -0.0005 0.0695504 -0.0254
0.0005 0.0706195 -0.0254 -0.0005 0.0706195 -0.0254 0.0005 0.0716969 -0.0254 -0.0005
0.0716969 -0.0254 0.0005 0.0727828 -0.0254 -0.0005 0.0727828 -0.0254 0.0005 0.073877
-0.0254 -0.0005 0.073877 -0.0254 0.0005 0.0749798 -0.0254 -0.0005 0.0749798 -0.0254
0.0005 0.0760911 -0.0254 -0.0005 0.0760911 -0.0254 0.0005 0.0772111 -0.0254 -0.0005
0.0772111 -0.0254 0.0005 0.0783398 -0.0254 -0.0005 0.0783398 -0.0254 0.0005 0.0794772
-0.0254 -0.0005 0.0794772 -0.0254 0.0005 0.0806235 -0.0254 -0.0005 0.0806235 -0.0254
0.0005 0.0817787 -0.0254 -0.0005 0.0817787 -0.0254 0.0005 0.0829429 -0.0254 -0.0005
0.0829429 -0.0254 0.0005 0.0841162 -0.0254 -0.0005 0.0841162 -0.0254 0.0005 0.0852985
-0.0254 -0.0005 0.0852985 -0.0254 0.0005 0.0864901 -0.0254 -0.0005 0.0864901 -0.0254
0.0005 0.0876909 -0.0254 -0.0005 0.0876909 -0.0254 0.0005 0.0889011 -0.0254 -0.0005
0.0889011 -0.0254 0.0005 0.0901207 -0.0254 -0.0005 0.0901207 -0.0254 0.0005 0.0913497
-0.0254 -0.0005 0.0913497 -0.0254 0.0005 0.0925883 -0.0254 -0.0005 0.0925883 -0.0254
0.0005 0.0938366 -0.0254 -0.0005 0.0938366 -0.0254 0.0005 0.0950945 -0.0254 -0.0005
0.0950945 -0.0254 0.0005 0.0963622 -0.0254 -0.0005 0.0963622 -0.0254 0.0005 0.0976398
-0.0254 -0.0005 0.0976398 -0.0254 0.0005 0.0989273 -0.0254 -0.0005 0.0989273 -0.0254
0.0005 0.100225 -0.0254 -0.0005 0.100225 -0.0254 0.0005 0.101532 -0.0254 -0.0005
0.101532 -0.0254 0.0005 0.10285 -0.0254 -0.0005 0.10285 -0.0254 0.0005 0.104178
-0.0254 -0.0005 0.104178 -0.0254 0.0005 0.105517 -0.0254 -0.0005 0.105517 -0.0254
0.0005 0.106865 -0.0254 -0.0005 0.106865 -0.0254 0.0005 0.108225 -0.0254 -0.0005
0.108225 -0.0254 0.0005 0.109594 -0.0254 -0.0005 0.109594 -0.0254 0.0005 0.110975
-0.0254 -0.0005 0.110975 -0.0254 0.0005 0.112366 -0.0254 -0.0005 0.112366 -0.0254
0.0005 0.113768 -0.0254 -0.0005 0.113768 -0.0254 0.0005 0.115181 -0.0254 -0.0005
0.115181 -0.0254 0.0005 0.116605 -0.0254 -0.0005 0.116605 -0.0254 0.0005 0.11804
-0.0254 -0.0005 0.11804 -0.0254 0.0005 0.119486 -0.0254 -0.0005 0.119486 -0.0254
0.0005 0.120943 -0.0254 -0.0005 0.120943 -0.0254 0.0005 0.122412 -0.0254 -0.0005
0.122412 -0.0254 0.0005 0.123892 -0.0254 -0.0005 0.123892 -0.0254 0.0005 0.125384
-0.0254 -0.0005 0.125384 -0.0254 0.0005 0.126887 -0.0254 -0.0005 0.126887 -0.0254
0.0005 0.128402 -0.0254 -0.0005 0.128402 -0.0254 0.0005 0.129928 -0.0254 -0.0005
0.129928 -0.0254 0.0005 0.131467 -0.0254 -0.0005 0.131467 -0.0254 0.0005 0.133017
-0.0254 -0.0005 0.133017 -0.0254 0.0005 0.13458 -0.0254 -0.0005 0.13458 -0.0254
0.0005 0.136155 -0.0254 -0.0005 0.136155 -0.0254 0.0005 0.137742 -0.0254 -0.0005
0.137742 -0.0254 0.0005 0.139341 -0.0254 -0.0005 0.139341 -0.0254 0.0005 0.140953
-0.0254 -0.0005 0.140953 -0.0254 0.0005 0.142577 -0.0254 -0.0005 0.142577 -0.0254
0.0005 0.144214 -0.0254 -0.0005 0.144214 -0.0254 0.0005 0.145863 -0.0254 -0.0005
0.145863 -0.0254 0.0005 0.147526 -0.0254 -0.0005 0.147526 -0.0254 0.0005 0.149201
-0.0254 -0.0005 0.149201 -0.0254 0.0005 0.15089 -0.0254 -0.0005 0.15089 -0.0254
0.0005 0.152591 -0.0254 -0.0005 0.152591 -0.0254 0.0005 0.154306 -0.0254 -0.0005
0.154306 -0.0254 0.0005 0.156034 -0.0254 -0.0005 0.156034 -0.0254 0.0005 0.157775
-0.0254 -0.0005 0.157775 -0.0254 0.0005 0.159531 -0.0254 -0.0005 0.159531 -0.0254
0.0005 0.161299 -0.0254 -0.0005 0.161299 -0.0254 0.0005 0.163082 -0.0254 -0.0005
0.163082 -0.0254 0.0005 0.164878 -0.0254 -0.0005 0.164878 -0.0254 0.0005 0.166688
-0.0254 -0.0005 0.166688 -0.0254 0.0005 0.168513 -0.0254 -0.0005 0.168513 -0.0254
0.0005 0.170351 -0.0254 -0.0005 0.170351 -0.0254 0.0005 0.172204 -0.0254 -0.0005
0.172204 -0.0254 0.0005 0.174071 -0.0254 -0.0005 0.174071 -0.0254 0.0005 0.175953
-0.0254 -0.0005 0.175953 -0.0254 0.0005 0.177849 -0.0254 -0.0005 0.177849 -0.0254
0.0005 0.17976 -0.0254 -0.0005 0.17976 -0.0254 0.0005 0.181686 -0.0254 -0.0005
0.181686 -0.0254 0.0005 0.183627 -0.0254 -0.0005 0.183627 -0.0254 0.0005 0.185583
-0.0254 -0.0005 0.185583 -0.0254 0.0005 0.187555 -0.0254 -0.0005 0.187555 -0.0254
0.0005 0.189541 -0.0254 -0.0005 0.189541 -0.0254 0.0005 0.191543 -0.0254 -0.0005
0.191543 -0.0254 0.0005 0.193561 -0.0254 -0.0005 0.193561 -0.0254 0.0005 0.195594
-0.0254 -0.0005 0.195594 -0.0254 0.0005 0.197643 -0.0254 -0.0005 0.197643 -0.0254
0.0005 0.199708 -0.0254 -0.0005 0.199708 -0.0254 0.0005 0.201789 -0.0254 -0.0005
0.201789 -0.0254 0.0005 0.203886 -0.0254 -0.0005 0.203886 -0.0254 0.0005 0.206
-0.0254 -0.0005 0.206 -0.0254 0.0005 0.208047 -0.0251856 -0.0005 0.208047 -0.0251856
0.0005 0.210173 -0.0249628 -0.0005 0.210173 -0.0249628 0.0005 0.212382 -0.0247314 -0.0005
0.212382 -0.0247314 0.0005 0.214677 -0.024491 -0.0005 0.214677 -0.024491 0.0005 0.217061
-0.0242412 -0.0005 0.217061 -0.0242412 0.0005 0.219538 -0.0239817 -0.0005 0.219538 -0.0239817
0.0005 0.222112 -0.0237121 -0.0005 0.222112 -0.0237121 0.0005 0.224785 -0.023432 -0.0005
0.224785 -0.023432 0.0005 0.227563 -0.023141 -0.0005 0.227563 -0.023141 0.0005 0.230449
-0.0228387 -0.0005 0.230449 -0.0228387 0.0005 0.233447 -0.0225246 -0.0005 0.233447 -0.0225246
0.0005 0.236562 -0.0221983 -0.0005 0.236562 -0.0221983 0.0005 0.239797 -0.0218593 -0.0005
0.239797 -0.0218593 0.0005 0.243159 -0.0215071 -0.0005 0.243159 -0.0215071 0.0005 0.246652
-0.0211412 -0.0005 0.246652 -0.0211412 0.0005 0.250281 -0.0207611 -0.0005 0.250281 -0.0207611
0.0005 0.254051 -0.0203661 -0.0005 0.254051 -0.0203661 0.0005 0.257967 -0.0199558 -0.0005
0.257967 -0.0199558 0.0005 0.262036 -0.0195295 -0.0005 0.262036 -0.0195295 0.0005 0.266264
-0.0190867 -0.0005 0.266264 -0.0190867 0.0005 0.270655 -0.0186266 -0.0005 0.270655 -0.0186266
0.0005 0.275218 -0.0181486 -0.0005 0.275218 -0.0181486 0.0005 0.279959 -0.017652 -0.0005
0.279959 -0.017652 0.0005 0.284883 -0.017136 -0.0005 0.284883 -0.017136 0.0005 0.29
-0.0166 -0.0005 0.29 -0.0166 0.0005 
POLYGONS 250 1250
4 0 1 2 3 4 1 4 5 2 4
4 6 7 5 4 6 8 9 7 4
8 10 11 9 4 10 12 13 11 4
12 14 15 13 4 14 16 17 15 4
16 18 19 17 4 18 20 21 19 4
20 22 23 21 4 22 24 25 23 4
24 26 27 25 4 26 28 29 27 4
28 30 31 29 4 30 32 33 31 4
32 34 35 33 4 34 36 37 35 4
38 39 40 41 4 41 40 42 43 4
43 42 44 45 4 45 44 46 47 4
47 46 48 49 4 49 48 50 51 4
51 50 52 53 4 53 52 54 55 4
55 54 56 57 4 57 56 58 59 4
59 58 60 61 4 61 60 62 63 4
63 62 64 65 4 65 64 66 67 4
67 66 68 69 4 69 68 70 71 4
71 70 72 73 4 73 72 74 75 4
75 74 76 77 4 77 76 78 79 4
79 78 80 81 4 81 80 82 83 4
83 82 84 85 4 85 84 86 87 4
87 86 88 89 4 89 88 90 91 4
91 90 37 36 4 38 92 93 39 4
92 94 95 93 4 94 96 97 95 4
96 98 99 97 4 98 100 101 99 4
100 102 103 101 4 102 104 105 103 4
104 106 107 105 4 106 108 109 107 4
108 110 111 109 4 110 112 113 111 4
112 114 115 113 4 114 116 117 115 4
116 118 119 117 4 118 120 121 119 4
120 122 123 121 4 122 124 125 123 4
124 126 127 125 4 126 128 129 127 4
128 130 131 129 4 130 132 133 131 4
132 134 135 133 4 134 136 137 135 4
136 138 139 137 4 138 140 141 139 4
140 142 143 141 4 142 144 145 143 4
144 146 147 145 4 146 148 149 147 4
148 150 151 149 4 150 152 153 151 4
152 154 155 153 4 154 156 157 155 4
156 158 159 157 4 158 160 161 159 4
160 162 163 161 4 162 164 165 163 4
164 166 167 165 4 166 168 169 167 4
168 170 171 169 4 170 172 173 171 4
172 174 175 173 4 174 176 177 175 4
176 178 179 177 4 178 180 181 179 4
180 182 183 181 4 182 184 185 183 4
184 186 187 185 4 186 188 189 187 4
188 190 191 189 4 190 192 193 191 4
192 194 195 193 4 194 196 197 195 4
196 198 199 197 4 198 200 201 199 4
200 202 203 201 4 202 204 205 203 4
204 206 207 205 4 206 208 209 207 4
208 210 211 209 4 210 212 213 211 4
212 214 215 213 4 214 216 217 215 4
216 218 219 217 4 218 220 221 219 4
220 222 223 221 4 222 224 225 223 4
224 226 227 225 4 226 228 229 227 4
228 230 231 229 4 230 232 233 231 4
232 234 235 233 4 234 236 237 235 4
236 238 239 237 4 238 240 241 239 4
240 242 243 241 4 242 244 245 243 4
244 246 247 245 4 246 248 249 247 4
248 250 251 249 4 250 252 253 251 4
252 254 255 253 4 254 256 257 255 4
256 258 259 257 4 258 260 261 259 4
260 262 263 261 4 262 264 265 263 4
264 266 267 265 4 266 268 269 267 4
268 270 271 269 4 270 272 273 271 4
272 274 275 273 4 274 276 277 275 4
276 278 279 277 4 278 280 281 279 4
280 282 283 281 4 282 284 285 283 4
284 286 287 285 4 286 288 289 287 4
288 290 291 289 4 290 292 293 291 4
292 294 295 293 4 294 296 297 295 4
296 298 299 297 4 298 300 301 299 4
300 302 303 301 4 302 304 305 303 4
304 306 307 305 4 306 308 309 307 4
308 310 311 309 4 310 312 313 311 4
312 314 315 313 4 314 316 317 315 4
316 318 319 317 4 318 320 321 319 4
320 322 323 321 4 322 324 325 323 4
324 326 327 325 4 326 328 329 327 4
328 330 331 329 4 330 332 333 331 4
332 334 335 333 4 334 336 337 335 4
336 338 339 337 4 338 340 341 339 4
340 342 343 341 4 342 344 345 343 4
344 346 347 345 4 346 348 349 347 4
348 350 351 349 4 350 352 353 351 4
352 354 355 353 4 354 356 357 355 4
356 358 359 357 4 358 360 361 359 4
360 362 363 361 4 362 364 365 363 4
364 366 367 365 4 366 368 369 367 4
368 370 371 369 4 370 372 373 371 4
372 374 375 373 4 374 376 377 375 4
376 378 379 377 4 378 380 381 379 4
380 382 383 381 4 382 384 385 383 4
384 386 387 385 4 386 388 389 387 4
388 390 391 389 4 390 392 393 391 4
392 394 395 393 4 394 396 397 395 4
396 398 399 397 4 398 400 401 399 4
400 402 403 401 4 402 404 405 403 4
404 406 407 405 4 406 408 409 407 4
408 410 411 409 4 410 412 413 411 4
412 414 415 413 4 414 416 417 415 4
416 418 419 417 4 418 420 421 419 4
420 422 423 421 4 422 424 425 423 4
424 426 427 425 4 426 428 429 427 4
428 430 431 429 4 430 432 433 431 4
432 434 435 433 4 434 436 437 435 4
436 438 439 437 4 438 440 441 439 4
440 442 443 441 4 442 444 445 443 4
444 446 447 445 4 446 448 449 447 4
448 450 451 449 4 450 452 453 451 4
452 454 455 453 4 454 456 457 455 4
456 458 459 457 4 458 460 461 459 4
460 462 463 461 4 462 464 465 463 4
464 466 467 465 4 466 468 469 467 4
468 470 471 469 4 470 472 473 471 4
472 474 475 473 4 474 476 477 475 4
476 478 479 477 4 478 480 481 479 4
480 482 483 481 4 482 484 485 483 4
484 486 487 485 4 486 488 489 487 4
488 490 491 489 4 490 492 493 491 4
492 494 495 493 4 494 496 497 495 4
496 498 499 497 4 498 500 501 499 
POINT_DATA 502
FIELD attributes 1
U 3 502 float
3.19732 0.0118322 -0.0142437 1.60578 0.00594286 -0.0070193 1.60578 0.00594286 -0.0070193 3.19732 0.0118322
-0.0142437 0.0582402 0.000222933 0 0.0582402 0.000222933 0 0.0561842 0.000196384 0
0.0561842 0.000196384 0 0.0545245 0.000200618 0 0.0545245 0.000200618 0 0.0531151
0.000295337 0 0.0531151 0.000295337 0 0.051831 0.000394571 0 0.051831 0.000394571
0 0.0505142 0.000420648 0 0.0505142 0.000420648 0 0.0490254 0.00037307 0
0.0490254 0.00037307 0 0.047396 0.000306523 0 0.047396 0.000306523 0 0.0456771
0.000264504 0 0.0456771 0.000264504 0 0.0439942 0.000261917 0 0.0439942 0.000261917
0 0.0422566 0.000293083 0 0.0422566 0.000293083 0 0.0405227 0.000331325 0
0.0405227 0.000331325 0 0.0385859 0.000375822 0 0.0385859 0.000375822 0 0.0367419
0.000395064 0 0.0367419 0.000395064 0 0.0344374 0.00044827 0 0.0344374 0.00044827
0 0.0324504 0.000539816 0 0.0324504 0.000539816 0 0.0140458 0.00106411 0
0.0140458 0.00106411 0 -0.000354498 0.000777511 1.23249e-23 -0.000354498 0.000777511 1.23249e-23 -0.00027743
0.00233976 -3.3246e-23 -0.00027743 0.00233976 -3.3246e-23 0.000103931 0.00378989 -3.97471e-23 0.000103931 0.00378989
-3.97471e-23 0.00047995 0.00244808 8.03171e-23 0.00047995 0.00244808 8.03171e-23 0.000330505 0.000229025 2.65821e-23
0.000330505 0.000229025 2.65821e-23 -2.43588e-05 -0.000649147 -5.40737e-23 -2.43588e-05 -0.000649147 -5.40737e-23 -0.000181932
-0.000761096 0 -0.000181932 -0.000761096 0 -0.000286498 -0.000321212 -1.16083e-22 -0.000286498 -0.000321212
-1.16083e-22 -0.000467296 0.00160178 -1.09902e-25 -0.000467296 0.00160178 -1.09902e-25 -0.000585241 0.00428014 1.15973e-22
-0.000585241 0.00428014 1.15973e-22 -0.000570681 0.00708889 -1.16536e-22 -0.000570681 0.00708889 -1.16536e-22 -0.000469374
0.00968814 -9.37502e-26 -0.000469374 0.00968814 -9.37502e-26 -0.000308573 0.0117511 1.16442e-22 -0.000308573 0.0117511
1.16442e-22 -0.000105634 0.0130924 1.16272e-22 -0.000105634 0.0130924 1.16272e-22 0.000141368 0.0135381 2.6895e-26
0.000141368 0.0135381 2.6895e-26 0.000467466 0.0129063 -1.18305e-22 0.000467466 0.0129063 -1.18305e-22 0.000873003
0.0107604 0 0.000873003 0.0107604 0 0.00139231 0.00724372 0 0.00139231 0.00724372
0 0.00120796 0.00221112 0 0.00120796 0.00221112 0 -0.000487511 -0.00169273 0
-0.000487511 -0.00169273 0 -0.00103199 -0.00201345 0 -0.00103199 -0.00201345 0 0.000283482
-0.00222475 0 0.000283482 -0.00222475 0 0.000821571 -0.00446437 0 0.000821571 -0.00446437
0 0.000142333 -0.00579332 0 0.000142333 -0.00579332 0 -0.00100463 -0.00467127 0
-0.00100463 -0.00467127 0 -0.00138582 -0.00203578 0 -0.00138582 -0.00203578 0 -0.00105908
0.000523436 0 -0.00105908 0.000523436 0 -0.000664202 0.000689574 8.28571e-26 -0.000664202 0.000689574
8.28571e-26 -0.00119718 0.000451274 -6.09525e-24 -0.00119718 0.000451274 -6.09525e-24 -0.00145316 9.202e-05 0
-0.00145316 9.202e-05 0 -0.00129422 -0.00034927 0 -0.00129422 -0.00034927 0 -0.000779604
-0.000691553 5.90993e-24 -0.000779604 -0.000691553 5.90993e-24 -7.90951e-05 -0.000785209 5.92054e-24 -7.90951e-05 -0.000785209
5.92054e-24 0.000622311 -0.000676712 0 0.000622311 -0.000676712 0 0.00119897 -0.00045354 0
0.00119897 -0.00045354 0 0.00160263 -0.000177236 0 0.00160263 -0.000177236 0 0.00180804
9.06887e-05 -5.54935e-24 0.00180804 9.06887e-05 -5.54935e-24 0.00184631 0.000293762 -5.55993e-24 0.00184631 0.000293762
-5.55993e-24 0.0017599 0.000418946 0 0.0017599 0.000418946 0 0.00157997 0.000471934 0
0.00157997 0.000471934 0 0.00134301 0.000452098 0 0.00134301 0.000452098 0 0.00109169
0.000370866 -5.34874e-24 0.00109169 0.000370866 -5.34874e-24 0.00085107 0.000256616 -5.35955e-24 0.00085107 0.000256616
-5.35955e-24 0.000628768 0.000138628 0 0.000628768 0.000138628 0 0.000428055 3.75239e-05 0
0.000428055 3.75239e-05 0 0.000250294 -3.39579e-05 0 0.000250294 -3.39579e-05 0 9.40708e-05
-7.28643e-05 0 9.40708e-05 -7.28643e-05 0 -4.18298e-05 -8.65535e-05 0 -4.18298e-05 -8.65535e-05
0 -0.000157289 -8.59463e-05 0 -0.000157289 -8.59463e-05 0 -0.000251932 -8.21911e-05 -5.19684e-24
-0.000251932 -8.21911e-05 -5.19684e-24 -0.000322847 -8.36541e-05 -1.36266e-26 -0.000322847 -8.36541e-05 -1.36266e-26 -0.000364171
-9.16494e-05 6.39386e-27 -0.000364171 -9.16494e-05 6.39386e-27 -0.000370404 -0.000105004 -1.0424e-23 -0.000370404 -0.000105004
-1.0424e-23 -0.00033417 -0.000126869 -5.22427e-24 -0.00033417 -0.000126869 -5.22427e-24 -0.000245823 -0.000156689 0
-0.000245823 -0.000156689 0 -9.99355e-05 -0.000187326 5.29193e-24 -9.99355e-05 -0.000187326 5.29193e-24 0.000101286
-0.000221684 1.06325e-23 0.000101286 -0.000221684 1.06325e-23 0.000358797 -0.000260585 5.3408e-24 0.000358797 -0.000260585
5.3408e-24 0.00067416 -0.000288944 0 0.00067416 -0.000288944 0 0.00102825 -0.000315355 5.43913e-24
0.00102825 -0.000315355 5.43913e-24 0.00142517 -0.000340155 5.45252e-24 0.00142517 -0.000340155 5.45252e-24 0.00185221
-0.000334432 0 0.00185221 -0.000334432 0 0.00225999 -0.000333839 -5.53372e-24 0.00225999 -0.000333839
-5.53372e-24 0.00267768 -0.000291071 -5.54778e-24 0.00267768 -0.000291071 -5.54778e-24 0.00301543 -0.00019806 -5.59865e-24
0.00301543 -0.00019806 -5.59865e-24 0.00327997 -0.000117501 -1.68833e-23 0.00327997 -0.000117501 -1.68833e-23 0.00343832
0.000129981 -1.12997e-23 0.00343832 0.000129981 -1.12997e-23 0.00330586 0.000327394 0 0.00330586 0.000327394
0 0.00300977 0.000717528 0 0.00300977 0.000717528 0 0.00211252 0.00115346 0
0.00211252 0.00115346 0 0.000833813 0.000523086 0 0.000833813 0.000523086 0 8.90188e-05
6.3913e-05 -1.19289e-23 8.90188e-05 6.3913e-05 -1.19289e-23 -0.00039143 0.000473712 -2.37875e-23 -0.00039143 0.000473712
-2.37875e-23 -0.00105189 0.00065925 -2.34723e-23 -0.00105189 0.00065925 -2.34723e-23 -0.00194695 0.000684044 -1.16466e-23
-0.00194695 0.000684044 -1.16466e-23 -0.00296191 0.000738525 1.09027e-23 -0.00296191 0.000738525 1.09027e-23 -0.00391422
0.000714393 1.09343e-23 -0.00391422 0.000714393 1.09343e-23 -0.00468278 0.000586761 -1.01333e-23 -0.00468278 0.000586761
-1.01333e-23 -0.00518323 0.000374202 -2.00633e-23 -0.00518323 0.000374202 -2.00633e-23 -0.00534204 8.31359e-05 -9.92963e-24
-0.00534204 8.31359e-05 -9.92963e-24 -0.00509976 -0.000289038 0 -0.00509976 -0.000289038 0 -0.00440682
-0.000730347 0 -0.00440682 -0.000730347 0 -0.00322495 -0.00121175 -1.062e-23 -0.00322495 -0.00121175
-1.062e-23 -0.00152126 -0.00168798 -1.06529e-23 -0.00152126 -0.00168798 -1.06529e-23 0.000651063 -0.00198266 0
0.000651063 -0.00198266 0 0.00296684 -0.00187284 0 0.00296684 -0.00187284 0 0.0049661
-0.00152587 0 0.0049661 -0.00152587 0 0.00628869 -0.00117478 0 0.00628869 -0.00117478
0 0.00668904 -0.000560996 0 0.00668904 -0.000560996 0 0.00628252 0.00029022 0
0.00628252 0.00029022 0 0.00561919 0.000735912 0 0.00561919 0.000735912 0 0.00513096
0.00055608 9.84572e-24 0.00513096 0.00055608 9.84572e-24 0.0048362 0.00012002 9.8788e-24 0.0048362 0.00012002
9.8788e-24 0.00457902 -0.00024848 0 0.00457902 -0.00024848 0 0.0042006 -0.000315852 -9.44284e-24
0.0042006 -0.000315852 -9.44284e-24 0.0034993 6.66553e-05 -1.87891e-23 0.0034993 6.66553e-05 -1.87891e-23 0.00232406
0.000644023 -9.34607e-24 0.00232406 0.000644023 -9.34607e-24 0.000823003 0.00097245 8.9922e-24 0.000823003 0.00097245
8.9922e-24 -0.000697267 0.00100068 3.32356e-25 -0.000697267 0.00100068 3.32356e-25 -0.00208904 0.000919368 -8.72268e-24
-0.00208904 0.000919368 -8.72268e-24 -0.00332936 0.000814639 7.9117e-24 -0.00332936 0.000814639 7.9117e-24 -0.00442369
0.000711313 7.94041e-24 -0.00442369 0.000711313 7.94041e-24 -0.00539224 0.000621314 0 -0.00539224 0.000621314
0 -0.00626137 0.000549976 -6.59188e-24 -0.00626137 0.000549976 -6.59188e-24 -0.00705828 0.000498344 -6.61639e-24
-0.00705828 0.000498344 -6.61639e-24 -0.00780808 0.000464694 5.66903e-24 -0.00780808 0.000464694 5.66903e-24 -0.00853232
0.000445924 5.69045e-24 -0.00853232 0.000445924 5.69045e-24 -0.00924807 0.000438366 -4.69287e-24 -0.00924807 0.000438366
-4.69287e-24 -0.00996765 0.000438322 -8.88928e-24 -0.00996765 0.000438322 -8.88928e-24 -0.0106988 0.000442418 -7.83958e-24
-0.0106988 0.000442418 -7.83958e-24 -0.0114452 0.000447743 -9.84643e-24 -0.0114452 0.000447743 -9.84643e-24 -0.0122067
0.000451907 -1.15805e-24 -0.0122067 0.000451907 -1.15805e-24 -0.0129801 0.000453003 5.07347e-24 -0.0129801 0.000453003
5.07347e-24 -0.0137593 0.000449538 0 -0.0137593 0.000449538 0 -0.0145358 0.000440377 0
-0.0145358 0.000440377 0 -0.0152991 0.00042465 4.44373e-25 -0.0152991 0.00042465 4.44373e-25 -0.0160367
0.000401759 -1.86877e-25 -0.0160367 0.000401759 -1.86877e-25 -0.0167348 0.000371455 9.94748e-25 -0.0167348 0.000371455
9.94748e-25 -0.0173787 0.000333866 1.63716e-24 -0.0173787 0.000333866 1.63716e-24 -0.0179535 0.00028953 -3.26803e-24
-0.0179535 0.00028953 -3.26803e-24 -0.0184447 0.000239323 -7.13427e-24 -0.0184447 0.000239323 -7.13427e-24 -0.0188396
0.000184612 -8.11843e-24 -0.0188396 0.000184612 -8.11843e-24 -0.0191274 0.000127445 -4.26773e-24 -0.0191274 0.000127445
-4.26773e-24 -0.0193006 6.9193e-05 0 -0.0193006 6.9193e-05 0 -0.0193547 1.00611e-05 0
-0.0193547 1.00611e-05 0 -0.019294 -4.64167e-05 -3.76398e-24 -0.019294 -4.64167e-05 -3.76398e-24 -0.0191242
-9.79626e-05 -3.78046e-24 -0.0191242 -9.79626e-05 -3.78046e-24 -0.0188474 -0.000145426 0 -0.0188474 -0.000145426
0 -0.0184703 -0.000188333 1.43659e-24 -0.0184703 -0.000188333 1.43659e-24 -0.0180008 -0.000226577 1.44301e-24
-0.0180008 -0.000226577 1.44301e-24 -0.0174474 -0.000260079 0 -0.0174474 -0.000260079 0 -0.0168193
-0.000288895 -1.8535e-24 -0.0168193 -0.000288895 -1.8535e-24 -0.0161253 -0.000313304 -1.86195e-24 -0.0161253 -0.000313304
-1.86195e-24 -0.0153738 -0.000333729 0 -0.0153738 -0.000333729 0 -0.0145724 -0.000350699 5.36887e-24
-0.0145724 -0.000350699 5.36887e-24 -0.0137274 -0.000364791 1.18893e-23 -0.0137274 -0.000364791 1.18893e-23 -0.0128442
-0.000376578 6.5259e-24 -0.0128442 -0.000376578 6.5259e-24 -0.0119266 -0.000386595 -8.61008e-24 -0.0119266 -0.000386595
-8.61008e-24 -0.0109772 -0.000395333 -8.65079e-24 -0.0109772 -0.000395333 -8.65079e-24 -0.00999742 -0.000403205 1.05016e-23
-0.00999742 -0.000403205 1.05016e-23 -0.00898806 -0.000410495 1.05518e-23 -0.00898806 -0.000410495 1.05518e-23 -0.00794926
-0.000417374 1.21471e-23 -0.00794926 -0.000417374 1.21471e-23 -0.00688129 -0.000423816 2.50777e-23 -0.00688129 -0.000423816
2.50777e-23 -0.00578529 -0.000429393 1.29345e-23 -0.00578529 -0.000429393 1.29345e-23 -0.00466395 -0.00043334 0
-0.00466395 -0.00043334 0 -0.00352188 -0.000434699 0 -0.00352188 -0.000434699 0 -0.00236595
-0.000432909 0 -0.00236595 -0.000432909 0 -0.00120633 -0.000426678 0 -0.00120633 -0.000426678
0 -5.78982e-05 -0.000415328 0 -5.78982e-05 -0.000415328 0 0.00106319 -0.000397613 0
0.00106319 -0.000397613 0 0.00214183 -0.000372653 1.56311e-23 0.00214183 -0.000372653 1.56311e-23 0.00316069
-0.000341707 1.82995e-25 0.00316069 -0.000341707 1.82995e-25 0.00410249 -0.000305683 -1.56072e-23 0.00410249 -0.000305683
-1.56072e-23 0.00495355 -0.000266068 0 0.00495355 -0.000266068 0 0.00570396 -0.000224634 0
0.00570396 -0.000224634 0 0.00634812 -0.000183155 0 0.00634812 -0.000183155 0 0.00688466
-0.000143167 -2.80036e-23 0.00688466 -0.000143167 -2.80036e-23 0.00731595 -0.000105858 -2.81507e-23 0.00731595 -0.000105858
-2.81507e-23 0.00764737 -7.20219e-05 2.63659e-23 0.00764737 -7.20219e-05 2.63659e-23 0.00788621 -4.21349e-05 9.58852e-25
0.00788621 -4.21349e-05 9.58852e-25 0.00804145 -1.6357e-05 -2.56831e-23 0.00804145 -1.6357e-05 -2.56831e-23 0.00812239
5.85379e-06 0 0.00812239 5.85379e-06 0 0.00813685 2.46091e-05 0 0.00813685 2.46091e-05
0 0.00809584 3.89383e-05 2.25112e-23 0.00809584 3.89383e-05 2.25112e-23 0.00801355 4.82527e-05 4.44725e-23
0.00801355 4.82527e-05 4.44725e-23 0.00790314 5.28894e-05 2.19582e-23 0.00790314 5.28894e-05 2.19582e-23 0.00777733
5.36112e-05 2.06272e-23 0.00777733 5.36112e-05 2.06272e-23 0.00764845 5.10221e-05 4.08375e-23 0.00764845 5.10221e-05
4.08375e-23 0.00752894 4.52777e-05 5.83966e-25 0.00752894 4.52777e-05 5.83966e-25 0.00743131 3.64795e-05 -1.97331e-23
0.00743131 3.64795e-05 -1.97331e-23 0.007367 2.51176e-05 0 0.007367 2.51176e-05 0 0.00734477
1.24185e-05 -1.8603e-23 0.00734477 1.24185e-05 -1.8603e-23 0.00736923 1.1417e-06 -1.87078e-23 0.00736923 1.1417e-06
-1.87078e-23 0.00743728 -5.25338e-06 0 0.00743728 -5.25338e-06 0 0.0075372 -6.64851e-06 0
0.0075372 -6.64851e-06 0 0.00765601 -7.0634e-06 0 0.00765601 -7.0634e-06 0 0.00778343
-5.5344e-06 1.80378e-23 0.00778343 -5.5344e-06 1.80378e-23 0.00790241 6.90238e-06 3.61415e-23 0.00790241 6.90238e-06
3.61415e-23 0.00798593 3.02673e-05 1.81039e-23 0.00798593 3.02673e-05 1.81039e-23 0.00801918 4.79561e-05 1.79164e-23
0.00801918 4.79561e-05 1.79164e-23 0.00801185 5.5604e-05 1.80207e-23 0.00801185 5.5604e-05 1.80207e-23 0.00796163
8.08803e-05 0 0.00796163 8.08803e-05 0 0.00781437 0.000147845 1.77473e-23 0.00781437 0.000147845
1.77473e-23 0.00749496 0.00023299 1.78517e-23 0.00749496 0.00023299 1.78517e-23 0.00699431 0.000280406 1.75192e-23
0.00699431 0.000280406 1.75192e-23 0.00640682 0.000260163 1.76231e-23 0.00640682 0.000260163 1.76231e-23 0.00586779
0.000189651 0 0.00586779 0.000189651 0 0.00547082 0.000103263 1.7056e-23 0.00547082 0.000103263
1.7056e-23 0.00524063 2.50816e-05 1.71583e-23 0.00524063 2.50816e-05 1.71583e-23 0.00514973 -3.45804e-05 1.6873e-23