/*--------------------------------*- C++ -*----------------------------------*\
  =========                 |
  \\      /  F ield         | OpenFOAM: The Open Source CFD Toolbox
   \\    /   O peration     | Website:  https://openfoam.org
    \\  /    A nd           | Version:  9
     \\/     M anipulation  |
\*---------------------------------------------------------------------------*/
FoamFile
{
    format      ascii;
    class       volScalarField;
    location    "0.087";
    object      k_0;
}
// * * * * * * * * * * * * * * * * * * * * * * * * * * * * * * * * * * * * * //

dimensions      [0 2 -2 0 0 0 0];

internalField   nonuniform List<scalar> 
12225
(
0.000129366
8.91755e-05
9.99944e-05
0.000100094
7.67385e-05
5.13831e-05
4.87395e-05
5.99519e-05
0.000118354
0.000189515
0.000225411
0.000236009
0.000235082
0.000220097
0.000162999
0.000121557
8.52783e-05
7.59157e-05
2.11173e-05
2.59908e-05
3.02814e-05
3.05173e-05
2.84515e-05
2.58384e-05
2.56225e-05
2.69907e-05
3.33432e-05
5.26931e-05
8.75069e-05
0.000116905
0.00013403
0.000138791
0.00013779
0.000133461
0.000126223
0.000102524
2.00439e-05
1.89311e-05
1.87275e-05
1.83331e-05
1.76163e-05
1.71222e-05
1.70075e-05
1.70753e-05
1.74606e-05
1.8663e-05
2.14713e-05
2.83673e-05
3.3566e-05
3.7102e-05
4.29552e-05
4.70667e-05
4.89663e-05
4.9262e-05
2.0036e-05
2.00325e-05
1.99849e-05
1.98405e-05
1.98429e-05
1.96207e-05
1.83866e-05
1.41176e-05
1.31099e-05
1.45106e-05
1.872e-05
2.15756e-05
2.25281e-05
2.25456e-05
2.17341e-05
1.8141e-05
1.47403e-05
1.36955e-05
2.00361e-05
2.03272e-05
2.15798e-05
2.41533e-05
2.52829e-05
2.49167e-05
2.25467e-05
2.15982e-05
2.21118e-05
2.68103e-05
4.98911e-05
7.22886e-05
7.72564e-05
7.53628e-05
6.28231e-05
4.51797e-05
3.36023e-05
2.58173e-05
2.09098e-05
2.18414e-05
2.39947e-05
3.53706e-05
4.54036e-05
4.37724e-05
3.23932e-05
2.4828e-05
2.29645e-05
2.31762e-05
2.59085e-05
3.45645e-05
4.06841e-05
4.22809e-05
4.20929e-05
4.02985e-05
3.41536e-05
2.83791e-05
2.13612e-05
2.25142e-05
2.24346e-05
2.25417e-05
2.28828e-05
2.28348e-05
2.22372e-05
2.18284e-05
2.18969e-05
2.28611e-05
2.71376e-05
3.11942e-05
3.12238e-05
2.98302e-05
2.88811e-05
2.80444e-05
2.60216e-05
2.3905e-05
2.05141e-05
2.08794e-05
2.14946e-05
2.23943e-05
2.50332e-05
2.97673e-05
3.03615e-05
2.90947e-05
2.60066e-05
2.42238e-05
2.33834e-05
2.28814e-05
2.25778e-05
2.24335e-05
2.24125e-05
2.24432e-05
2.27334e-05
2.28341e-05
2.12454e-05
2.14123e-05
2.17278e-05
2.20524e-05
2.30063e-05
2.82671e-05
3.88447e-05
4.21363e-05
4.11603e-05
3.44184e-05
2.71623e-05
2.38671e-05
2.27264e-05
2.25767e-05
2.28997e-05
2.49705e-05
3.15531e-05
3.54128e-05
2.005e-05
2.01967e-05
2.05398e-05
2.07472e-05
2.11272e-05
2.2283e-05
2.36653e-05
2.49372e-05
2.57016e-05
2.56593e-05
2.41509e-05
2.24292e-05
2.17136e-05
2.15532e-05
2.16032e-05
2.2024e-05
2.3423e-05
2.68276e-05
2.01515e-05
2.01742e-05
2.02319e-05
2.0232e-05
2.02476e-05
2.04102e-05
2.11912e-05
2.22781e-05
2.27429e-05
2.28162e-05
2.27316e-05
2.22326e-05
2.16344e-05
2.13341e-05
2.12404e-05
2.12408e-05
2.13117e-05
2.16799e-05
2.02349e-05
2.02683e-05
2.26806e-05
2.25638e-05
2.09458e-05
2.03892e-05
2.03356e-05
2.04505e-05
2.10936e-05
2.31496e-05
2.47248e-05
2.53017e-05
2.53532e-05
2.51629e-05
2.41299e-05
2.283e-05
2.21229e-05
2.19342e-05
2.10201e-05
2.20497e-05
2.65779e-05
2.61962e-05
2.33612e-05
2.10916e-05
2.06824e-05
2.08066e-05
2.18112e-05
2.47254e-05
2.6998e-05
2.78915e-05
2.78614e-05
2.68301e-05
2.44102e-05
2.28029e-05
2.19114e-05
2.14264e-05
2.02788e-05
2.03576e-05
2.15155e-05
2.17774e-05
2.14551e-05
2.09658e-05
2.09105e-05
2.10448e-05
2.17723e-05
2.35446e-05
2.49416e-05
2.56601e-05
2.58584e-05
2.58352e-05
2.56321e-05
2.53569e-05
2.52876e-05
2.49511e-05
2.32598e-05
2.13129e-05
2.05058e-05
2.04688e-05
2.05412e-05
2.08716e-05
2.14451e-05
2.14825e-05
2.12736e-05
2.11249e-05
2.1116e-05
2.1168e-05
2.1367e-05
2.17985e-05
2.28864e-05
2.58633e-05
3.69478e-05
5.85716e-05
2.10817e-05
2.08243e-05
2.02709e-05
2.01526e-05
2.01878e-05
2.04699e-05
2.09793e-05
2.12792e-05
2.13964e-05
2.14555e-05
2.15022e-05
2.15629e-05
2.16347e-05
2.17823e-05
2.23037e-05
2.42438e-05
3.23042e-05
4.31152e-05
2.08612e-05
2.07364e-05
2.04169e-05
2.04005e-05
2.05664e-05
2.0896e-05
2.10775e-05
2.11451e-05
2.11678e-05
2.12016e-05
2.1359e-05
2.15982e-05
2.15253e-05
2.11789e-05
2.10958e-05
2.11424e-05
2.14601e-05
2.26708e-05
2.23462e-05
2.31484e-05
2.23852e-05
2.09313e-05
2.06514e-05
2.0817e-05
2.14852e-05
2.19294e-05
2.20207e-05
2.20099e-05
2.21948e-05
2.29679e-05
2.32048e-05
2.29213e-05
2.19713e-05
2.15156e-05
2.14321e-05
2.15171e-05
2.09932e-05
2.07169e-05
2.04076e-05
2.05112e-05
2.11e-05
2.15326e-05
2.16818e-05
2.17097e-05
2.1695e-05
2.15922e-05
2.13106e-05
2.10602e-05
2.08932e-05
2.08084e-05
2.0782e-05
2.07824e-05
2.08095e-05
2.09356e-05
2.02835e-05
2.09685e-05
2.08724e-05
2.10568e-05
2.18861e-05
2.21392e-05
2.20814e-05
2.1732e-05
2.14672e-05
2.13619e-05
2.12817e-05
2.1116e-05
2.09026e-05
2.07287e-05
2.06256e-05
2.05873e-05
2.05841e-05
2.05982e-05
2.15074e-05
2.11133e-05
2.09711e-05
2.08579e-05
2.10453e-05
2.18409e-05
2.23165e-05
2.24135e-05
2.23797e-05
2.21598e-05
2.18974e-05
2.17013e-05
2.15265e-05
2.13687e-05
2.12453e-05
2.1169e-05
2.11461e-05
2.11379e-05
2.18379e-05
2.2348e-05
2.16745e-05
2.11967e-05
2.13682e-05
2.20418e-05
2.22744e-05
2.2233e-05
2.18398e-05
2.14395e-05
2.13211e-05
2.13221e-05
2.14289e-05
2.16142e-05
2.1713e-05
2.17857e-05
2.1905e-05
2.21592e-05
2.17547e-05
2.40461e-05
2.42188e-05
2.40052e-05
2.42644e-05
2.58559e-05
2.67284e-05
2.66596e-05
2.54695e-05
2.3271e-05
2.20322e-05
2.14118e-05
2.10946e-05
2.09152e-05
2.0808e-05
2.07416e-05
2.06824e-05
2.06665e-05
2.45282e-05
2.52596e-05
2.37074e-05
2.19572e-05
2.15349e-05
2.14883e-05
2.1583e-05
2.15184e-05
2.10532e-05
2.07141e-05
2.05673e-05
2.05025e-05
2.04724e-05
2.04593e-05
2.04614e-05
2.04795e-05
2.04744e-05
2.04885e-05
2.04652e-05
2.07235e-05
2.13322e-05
2.32995e-05
2.711e-05
2.85325e-05
2.80447e-05
2.53487e-05
2.31249e-05
2.24247e-05
2.22591e-05
2.22353e-05
2.22306e-05
2.22173e-05
2.21439e-05
2.19027e-05
2.16734e-05
2.14861e-05
2.10882e-05
2.04864e-05
2.13847e-05
2.46521e-05
2.58826e-05
2.58634e-05
2.53038e-05
2.36122e-05
2.23861e-05
2.19832e-05
2.18785e-05
2.18581e-05
2.18434e-05
2.18058e-05
2.16604e-05
2.14245e-05
2.12423e-05
2.11312e-05
2.00368e-05
1.9997e-05
1.98633e-05
1.96869e-05
1.96253e-05
1.93738e-05
1.91396e-05
1.92087e-05
1.93294e-05
1.93991e-05
1.94558e-05
1.94867e-05
1.94871e-05
1.94419e-05
1.92151e-05
1.86772e-05
1.82759e-05
1.8092e-05
2.00255e-05
1.90394e-05
1.64442e-05
1.24098e-05
1.03461e-05
9.98296e-06
1.01796e-05
1.14831e-05
1.39015e-05
1.54183e-05
1.61842e-05
1.64712e-05
1.65178e-05
1.64671e-05
1.6344e-05
1.62368e-05
1.60723e-05
1.57413e-05
2.13688e-05
2.49899e-05
2.47681e-05
2.26384e-05
2.12602e-05
2.10989e-05
2.13613e-05
2.2245e-05
2.39372e-05
2.77266e-05
3.34013e-05
3.82666e-05
4.12887e-05
4.24856e-05
4.2628e-05
4.23691e-05
4.12042e-05
3.79146e-05
0.000277079
0.000295692
0.000186606
7.96094e-05
4.28428e-05
3.41185e-05
3.37629e-05
3.69132e-05
4.98491e-05
7.78299e-05
9.96374e-05
0.000111369
0.000115105
0.000115125
0.000111958
9.77182e-05
7.79283e-05
6.21658e-05
0.0689195
0.0834599
0.0874692
0.0892286
0.0936691
0.0946418
0.0943581
0.0913051
0.0877938
0.0861683
0.0840107
0.0791729
0.0704045
0.0691449
0.0663432
0.07013
0.085255
0.085556
0.0836559
0.0908524
0.124044
0.151349
0.156995
0.152409
0.142146
0.127486
0.112968
0.105849
0.0990163
0.0918032
0.0868427
0.0833767
0.0828098
0.085066
0.0921456
0.103006
0.113205
0.116913
0.117683
0.117249
0.113358
0.105903
0.0993385
0.0956256
0.0921401
0.0880165
0.0840806
0.0798872
0.0759925
0.0734595
0.071808
0.0705566
0.069164
0.0678238
0.0667724
0.0657181
0.0652107
0.0644874
0.0642228
0.0638705
0.0637589
0.0635385
0.063483
0.0635607
0.0639113
0.0646315
0.0656522
0.0673683
0.0699333
0.0738921
0.0789772
0.0853557
0.0966561
0.109313
0.112755
0.121645
0.121374
0.117298
0.103047
0.103039
0.118517
0.254937
0.252363
0.214872
0.194601
0.200624
0.247739
0.359112
0.415487
0.412439
0.347521
0.197752
0.107262
0.0646233
0.0465001
0.0397169
0.0381675
0.0382725
0.0389277
0.0402669
0.0420323
0.0480658
0.0601118
0.0832855
0.164854
0.259348
0.317053
0.130098
0.0909086
0.0795209
0.0726346
0.0611009
0.0557528
0.0481576
0.0446614
0.0413282
0.0400354
0.0396967
0.0396891
0.0393546
0.0391598
0.039115
0.038953
0.038544
0.0380779
0.0376034
0.0371289
0.0366985
0.0362086
0.0356263
0.0350384
0.0346714
0.0340184
0.0335315
0.032946
0.0324989
0.0318917
0.0312459
0.0304983
0.0296255
0.028606
0.0274172
0.0260163
0.0243641
0.0224415
0.0202574
0.0179458
0.0158796
0.0142846
0.0130443
0.0121653
0.0116973
0.0115697
0.0115908
0.0117899
0.0124468
0.0127804
0.0127141
0.011351
0.00711273
0.00555245
0.00562493
0.00636554
0.00692309
0.00717342
0.00736146
0.00757819
0.00772073
0.00767552
0.00747006
0.00735693
0.00734552
0.00729241
0.00708824
0.00688155
0.00665158
0.00632536
0.00619406
0.0062048
0.00564065
0.0590467
0.0565666
0.0880696
0.107781
0.112215
0.110437
0.112431
0.113368
0.105716
0.0908004
0.0885331
0.0810581
0.0574911
0.0507613
0.0473714
0.083833
0.140346
0.15349
0.148285
0.1493
0.151544
0.146798
0.136438
0.118315
0.110505
0.106367
0.100117
0.0952057
0.0897124
0.0845426
0.0821562
0.0814214
0.0819163
0.0853379
0.0919483
0.0994725
0.102643
0.103355
0.102736
0.0990532
0.0920119
0.0831958
0.0748844
0.0668732
0.0581024
0.0502194
0.0443144
0.0392575
0.0345135
0.0302521
0.0265685
0.0237551
0.0217787
0.0204377
0.0192757
0.0186994
0.0182095
0.0179868
0.0178978
0.0179111
0.0183212
0.0188658
0.0195707
0.0209522
0.0230344
0.0264356
0.0317302
0.0389527
0.0481506
0.0623186
0.0803107
0.099636
0.12487
0.159311
0.180064
0.20447
0.215431
0.210954
0.196654
0.148432
0.130128
0.189449
0.247538
0.162406
0.139377
0.120069
0.11935
0.140449
0.161454
0.153916
0.103621
0.0565112
0.0389965
0.0343317
0.0334865
0.0336391
0.0350658
0.0391121
0.0468541
0.0601144
0.0724485
0.0856103
0.122875
0.254939
0.43417
0.325407
0.216668
0.0854289
0.0662296
0.0607537
0.0578404
0.0553543
0.0542001
0.0532851
0.0529788
0.0526789
0.0519926
0.0509147
0.0500363
0.0493658
0.048803
0.0482097
0.0475272
0.0468317
0.0461641
0.0453132
0.0444844
0.0438352
0.0430862
0.0420578
0.0410842
0.040342
0.0392512
0.0383452
0.0375392
0.0370273
0.0368601
0.036991
0.0374937
0.038225
0.0389959
0.039727
0.0402815
0.0405121
0.0405225
0.0402058
0.0391028
0.0361236
0.0314179
0.0263763
0.0214793
0.0170673
0.0135512
0.0114383
0.01068
0.0106153
0.0107822
0.0113364
0.0112931
0.0107787
0.010327
0.010355
0.0108468
0.0119661
0.0122971
0.0121204
0.0107895
0.00908301
0.00816125
0.00761532
0.00721998
0.00689312
0.00662698
0.00634324
0.00603542
0.00572362
0.005468
0.00530598
0.00529044
0.00533383
0.0614204
0.0523275
0.104616
0.119695
0.114442
0.101042
0.0969484
0.0984833
0.107001
0.11397
0.116265
0.11844
0.116701
0.0865098
0.0767142
0.132619
0.146915
0.138328
0.11794
0.110261
0.105657
0.0930622
0.0817195
0.077938
0.0765402
0.075858
0.0745293
0.0732182
0.0705824
0.0675359
0.0658398
0.064765
0.0646057
0.0653337
0.066881
0.0674028
0.0668395
0.064801
0.061343
0.0544651
0.0448177
0.0353022
0.0266774
0.0195265
0.014839
0.0120083
0.00984267
0.00804009
0.00685469
0.00616316
0.00569428
0.00536913
0.00519412
0.00493333
0.00474898
0.00453313
0.0043434
0.0042401
0.00418683
0.00416293
0.00419123
0.00441688
0.00476568
0.00540326
0.00646621
0.0083799
0.0117067
0.0179951
0.029132
0.0450843
0.0690354
0.0981344
0.129362
0.168671
0.196959
0.223677
0.246866
0.251545
0.246104
0.218664
0.150223
0.156524
0.212954
0.205563
0.171101
0.118084
0.0895989
0.0853276
0.0737433
0.0514125
0.032708
0.0256833
0.0235344
0.0226875
0.0228985
0.0250994
0.0303196
0.0403074
0.055047
0.0771346
0.114761
0.167205
0.242175
0.353336
0.401503
0.205576
0.0984303
0.0641618
0.058774
0.0564729
0.053592
0.0522036
0.0507748
0.0501685
0.0499259
0.0498845
0.0502343
0.0504014
0.0504815
0.050414
0.0500299
0.0494651
0.048728
0.048086
0.0474281
0.0466272
0.0458202
0.0451191
0.0445789
0.0438202
0.0430605
0.0420831
0.0407178
0.0389418
0.0366147
0.0340689
0.0320471
0.0304757
0.0293581
0.0286838
0.0285046
0.0287573
0.029846
0.0316703
0.0339242
0.0366961
0.0397206
0.0420589
0.0428431
0.04263
0.0406783
0.0334222
0.0221476
0.0127606
0.00712407
0.00498284
0.00465371
0.00485401
0.00585895
0.00775363
0.00871687
0.00907413
0.00975025
0.0108456
0.01155
0.01169
0.0116265
0.0113228
0.0101821
0.00880225
0.00808285
0.00770874
0.007362
0.00697544
0.00667685
0.00644002
0.0060788
0.00551268
0.00486809
0.00449771
0.076082
0.0932373
0.123289
0.114605
0.0877087
0.0655619
0.0643192
0.0663796
0.0717477
0.0762452
0.0797122
0.0886505
0.104452
0.10421
0.0910423
0.119236
0.140074
0.107624
0.0889405
0.0822592
0.07346
0.0589056
0.0529088
0.0506646
0.049505
0.0481269
0.0473049
0.0454467
0.0424385
0.0396955
0.0369411
0.0348595
0.0343701
0.0344262
0.0348973
0.0351118
0.0349106
0.0333571
0.0300913
0.0249734
0.0187049
0.0130984
0.00961929
0.00799138
0.0072001
0.00683817
0.00665313
0.00655361
0.0064973
0.00642753
0.00627568
0.0060147
0.00557064
0.0050527
0.00470177
0.00434361
0.00392619
0.00359134
0.003395
0.00313713
0.00288818
0.00279232
0.00275358
0.00274416
0.00282814
0.00319309
0.00392825
0.00555476
0.0087917
0.0154356
0.0288903
0.0562933
0.097681
0.144438
0.188992
0.222452
0.248805
0.260008
0.259919
0.246921
0.184729
0.159198
0.179152
0.191454
0.178524
0.127257
0.0641501
0.0445686
0.0337109
0.0245441
0.0203022
0.0188725
0.0184534
0.018509
0.019617
0.023615
0.0318906
0.0445541
0.0632117
0.0907732
0.134952
0.220529
0.300989
0.335948
0.252273
0.106238
0.0695407
0.0609251
0.0593184
0.0586985
0.0584972
0.0593708
0.0596771
0.0598122
0.0594103
0.058408
0.0575028
0.0555171
0.05417
0.0530164
0.0516531
0.0501264
0.0489453
0.0482049
0.047422
0.0466095
0.0457855
0.0449713
0.0444832
0.0440408
0.0437985
0.0435098
0.0430748
0.0424935
0.0415692
0.0395897
0.0362855
0.0328287
0.0300644
0.0282892
0.0270786
0.0262556
0.0257677
0.0255557
0.0255266
0.0256628
0.0263445
0.0287294
0.0355506
0.0414593
0.0437956
0.0438964
0.042286
0.0349
0.0245889
0.016159
0.00972762
0.00639957
0.00589614
0.00605819
0.00673762
0.00748103
0.00787526
0.00815114
0.00838442
0.00883056
0.00986844
0.0103987
0.0104169
0.01039
0.0102507
0.00978537
0.00946593
0.00931084
0.00901129
0.00844919
0.00792424
0.00757971
0.00719545
0.00618806
0.087962
0.121162
0.104936
0.0629331
0.0488442
0.0506132
0.0568848
0.0649379
0.0729999
0.077906
0.0808938
0.0839703
0.0914439
0.100746
0.0981279
0.0992283
0.138795
0.105666
0.075633
0.0673244
0.0566914
0.0411834
0.035946
0.0337185
0.0318978
0.0300206
0.0290587
0.0269502
0.024103
0.0220905
0.0198294
0.0182112
0.0176618
0.0175443
0.0175869
0.0175964
0.0172677
0.01625
0.0141045
0.011251
0.00859389
0.00747616
0.00708497
0.00703267
0.00727392
0.00770017
0.00832864
0.00928257
0.0100505
0.0104186
0.0105594
0.0105437
0.00995805
0.00893281
0.00823293
0.0077867
0.00699899
0.00622484
0.00572136
0.00501014
0.00427756
0.00367481
0.00330468
0.00287273
0.00264671
0.00255929
0.00259968
0.00298187
0.00374826
0.0058688
0.011062
0.0227426
0.0460745
0.0877587
0.13977
0.184801
0.227191
0.248845
0.25804
0.249646
0.198032
0.164752
0.172304
0.176788
0.169172
0.131002
0.0583947
0.0296969
0.0207
0.0167293
0.0150508
0.0142648
0.0140597
0.0144899
0.0166369
0.0227589
0.033657
0.0498178
0.07358
0.103867
0.150735
0.231347
0.271433
0.244606
0.122544
0.0758703
0.0649678
0.0624385
0.0622774
0.0640038
0.0650881
0.0653224
0.0648644
0.0631481
0.0618913
0.0607908
0.0588168
0.0565669
0.0550382
0.0533968
0.0512537
0.0490955
0.0467682
0.0449352
0.0440899
0.043508
0.0428442
0.0417404
0.0409364
0.0403453
0.04039
0.0410832
0.0415553
0.0419649
0.0419679
0.0414233
0.040358
0.0387362
0.0365495
0.0341441
0.0318932
0.0298359
0.0280872
0.0269391
0.0261548
0.02562
0.0253263
0.025281
0.0255755
0.0275324
0.0350544
0.041299
0.043244
0.0431713
0.0407021
0.0310555
0.0203557
0.0129009
0.00866456
0.0071473
0.00704254
0.00728473
0.00765372
0.00776844
0.00771587
0.0075635
0.00758759
0.00786716
0.00893983
0.00986402
0.0104789
0.010894
0.0111236
0.0111862
0.0111485
0.0108197
0.00990537
0.00867595
0.0078837
0.00694212
0.0722671
0.0676629
0.042853
0.0359356
0.0413473
0.0584596
0.0793695
0.0889344
0.0962565
0.103435
0.102422
0.0957269
0.0952747
0.0996493
0.100527
0.0973756
0.134432
0.11097
0.0703772
0.0567124
0.0473956
0.0311715
0.0252522
0.0228357
0.020933
0.0189539
0.0180072
0.0162889
0.0140648
0.0128915
0.0114415
0.0103689
0.00990559
0.00958409
0.00951945
0.00949211
0.00934721
0.00888953
0.00801103
0.00726707
0.00702542
0.00703988
0.00750258
0.00830287
0.00998674
0.012415
0.0150558
0.0169857
0.0181976
0.0188319
0.0191024
0.0191579
0.0187596
0.017785
0.0171409
0.0165977
0.0154222
0.0143735
0.0132091
0.0117429
0.0106678
0.00908618
0.00789471
0.00633622
0.00498261
0.00381444
0.00318089
0.00290381
0.00290142
0.00342241
0.00498708
0.00967713
0.0228438
0.047857
0.0865584
0.13135
0.177724
0.210298
0.224675
0.226042
0.184802
0.166418
0.174178
0.175229
0.16503
0.123116
0.0527206
0.0236636
0.0161354
0.0134044
0.0118634
0.0111827
0.0108902
0.0116898
0.0142354
0.0199801
0.0323275
0.0520482
0.0790278
0.109944
0.145127
0.178342
0.183454
0.135856
0.0848111
0.0714211
0.067909
0.0685493
0.0690659
0.0682767
0.0680598
0.0678255
0.066445
0.0647573
0.0641271
0.0636007
0.0625374
0.0611324
0.0596149
0.0574192
0.0540559
0.050586
0.0469532
0.0438251
0.0422315
0.0410704
0.0407099
0.0402594
0.0395467
0.0382057
0.036703
0.0363658
0.036948
0.0382333
0.0397123
0.0404642
0.0404169
0.0397089
0.0388013
0.0380725
0.0374331
0.0367406
0.0354824
0.0336778
0.0321366
0.0307337
0.0292561
0.0278965
0.0270795
0.026991
0.0279818
0.0335048
0.0403444
0.0438259
0.0443918
0.042723
0.0341092
0.0218017
0.0138811
0.00976381
0.00802455
0.00759021
0.00763555
0.00774289
0.0077354
0.0075104
0.00705307
0.00697178
0.00707974
0.00781531
0.00939839
0.0104177
0.0110069
0.0112982
0.011366
0.011329
0.0110986
0.010282
0.00913325
0.0078083
0.0602132
0.0560269
0.0266674
0.0331371
0.0628869
0.0838016
0.0916697
0.09849
0.104241
0.113103
0.115372
0.113216
0.104536
0.101709
0.101346
0.0968812
0.123016
0.122568
0.0707496
0.0504424
0.0403346
0.0256174
0.0183784
0.0158944
0.0142793
0.0124397
0.0115559
0.0105817
0.00929178
0.00870633
0.0079092
0.0072404
0.00685097
0.00649368
0.00644869
0.00646491
0.00652041
0.00660923
0.00671763
0.00690598
0.00723928
0.00800145
0.00991063
0.0131231
0.0176523
0.0208218
0.0228396
0.025447
0.0272417
0.028419
0.0290706
0.0293751
0.0294585
0.0291057
0.0285998
0.0280977
0.0267227
0.0256915
0.0240845
0.0225227
0.021414
0.019624
0.0181707
0.0158036
0.0131601
0.009887
0.00697672
0.00484524
0.00366401
0.00323173
0.00339438
0.00416273
0.00758144
0.0181891
0.0461954
0.0845614
0.11883
0.152476
0.168612
0.174566
0.169124
0.167314
0.175592
0.172374
0.154952
0.105333
0.0457252
0.0206915
0.0146479
0.0127722
0.011609
0.0105867
0.00983239
0.00976524
0.0118301
0.0173142
0.0287439
0.0489037
0.0783758
0.110542
0.129433
0.137759
0.133335
0.0968961
0.0804643
0.0751551
0.0780194
0.0798137
0.0798959
0.0774169
0.0736622
0.071588
0.0685468
0.0672114
0.0671024
0.0675264
0.0686073
0.0695397
0.0698271
0.0687439
0.064402
0.0590117
0.0522783
0.0460473
0.0426335
0.0404059
0.0393061
0.0391624
0.0388345
0.0376959
0.0354973
0.0343152
0.0342191
0.0345372
0.0361828
0.0380575
0.0389728
0.0391797
0.0389084
0.0384673
0.0382602
0.0382828
0.0386075
0.0400147
0.0410762
0.0410244
0.0400229
0.0376401
0.0345043
0.0321264
0.031504
0.0323029
0.036444
0.0418922
0.0455645
0.0461081
0.0442417
0.0346002
0.0214443
0.013461
0.00976304
0.00830564
0.00780736
0.0077467
0.007714
0.00757159
0.00700517
0.00636826
0.00619395
0.00623874
0.00662405
0.00806292
0.00959835
0.0104653
0.0108138
0.0108583
0.0107817
0.0103829
0.00990189
0.00885895
0.0650287
0.05606
0.0190368
0.0479738
0.0772371
0.0897372
0.0952268
0.102755
0.112874
0.121499
0.12387
0.122533
0.116333
0.106006
0.103268
0.0964338
0.112556
0.129145
0.0777448
0.0487187
0.0354989
0.0232936
0.0141499
0.0113825
0.00999425
0.00870664
0.00807268
0.00765632
0.00722037
0.00699907
0.00678021
0.00644086
0.00602021
0.00568759
0.00564581
0.00569945
0.00592068
0.00632297
0.00680467
0.00744235
0.00874873
0.0114781
0.0164123
0.020896
0.0239256
0.0279994
0.0322923
0.0360602
0.0381761
0.0393047
0.039879
0.0400794
0.0399759
0.0389937
0.0383179
0.0366523
0.0343199
0.0325834
0.0300412
0.0279682
0.0262065
0.0246374
0.0236197
0.0226742
0.0217503
0.0201515
0.0171343
0.0126075
0.00811632
0.00530432
0.00378744
0.00331617
0.00373224
0.00603125
0.0155114
0.044569
0.0808066
0.112946
0.142721
0.157409
0.164408
0.168108
0.173016
0.160631
0.134537
0.0867687
0.0394647
0.019415
0.0145048
0.0128665
0.0118109
0.0108987
0.0100395
0.00924396
0.00953242
0.0140578
0.0235172
0.0410506
0.0701087
0.103902
0.117668
0.121866
0.111634
0.0901164
0.084246
0.0858941
0.0895785
0.0906511
0.0911257
0.0906634
0.0872081
0.08233
0.07532
0.0722289
0.0720748
0.0731545
0.075093
0.0763355
0.0766206
0.075972
0.0735153
0.0696042
0.0625099
0.052863
0.0459218
0.0409345
0.0386239
0.0376285
0.0372837
0.0368469
0.0346892
0.032669
0.0324559
0.0326562
0.0337311
0.0359566
0.0371954
0.0377043
0.0378806
0.0379047
0.0379581
0.0381276
0.038765
0.0415815
0.0462564
0.0489115
0.049559
0.049422
0.0485509
0.0449692
0.0410253
0.0396094
0.0399709
0.0422848
0.045575
0.0482686
0.0483795
0.0456013
0.033552
0.0202257
0.0128056
0.00961379
0.00834285
0.00792016
0.00778533
0.00757505
0.00694789
0.00611501
0.00532562
0.0046102
0.00427752
0.00432348
0.00485604
0.00643589
0.00778732
0.00857942
0.00901013
0.00911677
0.00910373
0.0089345
0.0747051
0.0587399
0.0166471
0.0591941
0.081131
0.0909801
0.0962324
0.104861
0.11666
0.125505
0.127757
0.126972
0.122703
0.111766
0.103969
0.0956131
0.105323
0.130911
0.095995
0.0496062
0.033096
0.0217735
0.011973
0.00862415
0.00727861
0.00659545
0.0063341
0.00626155
0.00631834
0.00655949
0.00657485
0.00640584
0.00599287
0.00566788
0.0056259
0.00570055
0.00601122
0.00663531
0.00767611
0.00958539
0.0133267
0.0182355
0.0225007
0.0272165
0.0329398
0.039777
0.0447889
0.0470934
0.0486731
0.0494281
0.0497469
0.0498101
0.0493487
0.0484559
0.0469924
0.0446619
0.0418921
0.0382677
0.034943
0.0315259
0.0285801
0.0265164
0.0250222
0.0239478
0.0234391
0.0231578
0.0226738
0.0211228
0.0180119
0.0130134
0.00795961
0.00480919
0.00354918
0.00326203
0.00435797
0.0116628
0.0403798
0.0814675
0.108154
0.132738
0.150085
0.158571
0.15266
0.129156
0.0971029
0.0614787
0.0322921
0.0189351
0.0147499
0.0130074
0.0117252
0.0107176
0.0100158
0.00936564
0.00875539
0.0104198
0.0180689
0.0315278
0.0537943
0.0889399
0.1052
0.108797
0.101643
0.0897074
0.0887394
0.098132
0.100873
0.101232
0.101282
0.101653
0.100794
0.0980458
0.0928107
0.0853027
0.0799201
0.0788757
0.0791009
0.0794844
0.0795835
0.0786127
0.0767334
0.0735988
0.0681859
0.0580858
0.0485029
0.0420523
0.0384274
0.0369354
0.0359757
0.0352603
0.0331624
0.0300026
0.0293008
0.0295389
0.0307895
0.0336218
0.0353558
0.0358855
0.0359554
0.0360163
0.0361831
0.0365927
0.0377657
0.0419433
0.0482604
0.0520078
0.0533653
0.0534891
0.0533302
0.0530006
0.0519402
0.0506142
0.0494613
0.0477261
0.0479128
0.0492676
0.0508159
0.0502994
0.0448702
0.0293
0.0177237
0.0117318
0.0092534
0.00832301
0.00799529
0.00768939
0.00701736
0.00591077
0.00469844
0.00373186
0.0032133
0.00307887
0.00313693
0.00364439
0.00490476
0.00553848
0.00572348
0.00599363
0.00678604
0.00764814
0.0763795
0.0605012
0.0219151
0.0660131
0.0820144
0.090247
0.0952201
0.103667
0.115085
0.124835
0.128115
0.127596
0.123355
0.11324
0.103614
0.0939199
0.0991003
0.129432
0.112103
0.0558654
0.0326328
0.0201436
0.0102861
0.00693875
0.00582439
0.00543959
0.00537271
0.00548619
0.00587514
0.00646808
0.00666296
0.00661742
0.00635846
0.00608467
0.00604873
0.00620151
0.00678094
0.00803098
0.0103689
0.0145348
0.0187685
0.0233441
0.0285003
0.0349872
0.0431824
0.0492759
0.0519151
0.0531754
0.0537521
0.0539514
0.0539694
0.0537238
0.053607
0.05345
0.0531166
0.0525149
0.0512564
0.0489052
0.0442513
0.038365
0.0320723
0.027955
0.0256113
0.0241127
0.0234219
0.0232688
0.0233571
0.0228815
0.0215524
0.0191413
0.015468
0.0105873
0.00648215
0.00378956
0.00273631
0.0028317
0.00710202
0.0270761
0.0716606
0.0983749
0.112793
0.120916
0.116535
0.104403
0.0806922
0.051531
0.0295119
0.0192592
0.0153331
0.0129177
0.0106423
0.00907461
0.00863585
0.00865308
0.0085062
0.00864576
0.012388
0.023302
0.0382735
0.064509
0.0912931
0.0970691
0.0929233
0.0872777
0.0883513
0.100595
0.105997
0.108136
0.10838
0.108366
0.1082
0.107172
0.10445
0.0993605
0.0922687
0.0849025
0.082312
0.0818528
0.0819311
0.0811973
0.0782671
0.0749722
0.0701448
0.0601196
0.0493459
0.0422656
0.0377995
0.0356561
0.0350153
0.0340349
0.0315321
0.0278797
0.0265774
0.0265895
0.027515
0.0311766
0.0332987
0.0338117
0.0337377
0.0333947
0.0334181
0.0338082
0.0353742
0.0413039
0.0493741
0.0537894
0.0552708
0.0553649
0.0548883
0.0544519
0.0545569
0.0551622
0.057366
0.0573389
0.0556474
0.0533156
0.0536445
0.0538791
0.0515122
0.0393458
0.0241952
0.0150957
0.0106493
0.00884796
0.00822283
0.00787156
0.00717071
0.0060045
0.00467859
0.0035539
0.00291162
0.00270303
0.00270497
0.00292395
0.0038318
0.00452989
0.00469433
0.00471909
0.00481069
0.00536768
0.076063
0.0668692
0.0389149
0.0694893
0.0801885
0.0889277
0.0926476
0.0981445
0.109216
0.118875
0.126136
0.12689
0.122584
0.112884
0.102344
0.0914084
0.0931554
0.121013
0.117591
0.0734793
0.0338636
0.0201671
0.00989017
0.00597096
0.00498969
0.00476578
0.00476394
0.00501773
0.00562986
0.00648556
0.00708527
0.00761424
0.00797038
0.00791661
0.00789996
0.00824244
0.00952846
0.0124614
0.0162641
0.0202406
0.0246306
0.0289336
0.0344549
0.0421494
0.0503698
0.0538797
0.0552618
0.0557189
0.0557933
0.0552901
0.0548817
0.0546103
0.0544874
0.0544702
0.0545536
0.0545834
0.0544399
0.0539536
0.0527355
0.0499901
0.043822
0.0342756
0.027194
0.0239339
0.0224018
0.0216775
0.0222402
0.0227578
0.0220214
0.0202253
0.0175023
0.0136078
0.0099358
0.00719263
0.00424178
0.00226887
0.00182855
0.00363852
0.0159906
0.0564867
0.0880908
0.099071
0.0992619
0.0931396
0.0734872
0.0477723
0.0297301
0.0205778
0.0159046
0.0120679
0.00859228
0.00653934
0.00604281
0.00625172
0.00735287
0.00787669
0.00916112
0.0152386
0.0277483
0.0412912
0.0671447
0.0847788
0.0856624
0.0803437
0.0846273
0.0987385
0.105601
0.108793
0.110059
0.110371
0.110146
0.109525
0.10831
0.105685
0.100072
0.0928288
0.0867429
0.0853493
0.0849047
0.0830263
0.0788681
0.0750925
0.0703006
0.0603924
0.049107
0.0408577
0.0363672
0.0344985
0.0336207
0.0325503
0.0295513
0.0253783
0.023982
0.0239574
0.0257685
0.0305417
0.03265
0.0328974
0.032261
0.0308318
0.0305916
0.0308481
0.0323232
0.0393844
0.0503997
0.0564095
0.0582637
0.0582936
0.057228
0.0548058
0.054302
0.054846
0.0580595
0.064382
0.0648469
0.0631389
0.0600218
0.0593866
0.0573634
0.0482811
0.0317774
0.0197237
0.0128283
0.00966856
0.00843395
0.00797535
0.00749618
0.00641011
0.00493217
0.00369018
0.00286553
0.00247272
0.00238238
0.00242525
0.00278042
0.00326086
0.00338411
0.00339856
0.0034258
0.00361203
0.073542
0.0716833
0.0555829
0.0706574
0.0772328
0.0873065
0.0913386
0.094915
0.102497
0.110902
0.1193
0.123341
0.120619
0.111425
0.0986698
0.0878397
0.0891717
0.106192
0.115642
0.0871255
0.0394465
0.0208327
0.0102416
0.00583129
0.0045359
0.00433897
0.00437645
0.00467273
0.00542828
0.00667745
0.00862304
0.0108616
0.0129183
0.0140529
0.014588
0.0148882
0.015882
0.0176973
0.0206223
0.0238086
0.0271769
0.0318844
0.0385064
0.0473846
0.0538527
0.0561356
0.056793
0.0568692
0.0562798
0.0556036
0.0550029
0.0545839
0.0544002
0.0543606
0.0546705
0.0549102
0.0551374
0.055257
0.0550611
0.0543435
0.0523782
0.0479588
0.0365812
0.0273883
0.0227015
0.020673
0.0197515
0.0202453
0.020884
0.019956
0.0176933
0.0140584
0.0104548
0.00801549
0.00620259
0.00423433
0.00205211
0.001225
0.00177946
0.00836051
0.0385016
0.0755989
0.0870739
0.0847814
0.068373
0.0468803
0.0313107
0.0219865
0.0156981
0.0111281
0.00818722
0.00601401
0.00469368
0.00454661
0.00492227
0.00645898
0.00748027
0.0100993
0.0180369
0.0297483
0.0421887
0.0620734
0.0738889
0.0736145
0.0744723
0.0875567
0.100916
0.1065
0.108859
0.109539
0.109005
0.107814
0.10662
0.104772
0.101021
0.0966215
0.0930456
0.0892801
0.0861959
0.0833818
0.0779446
0.0718029
0.0656762
0.055466
0.0443429
0.0374202
0.0345202
0.0335722
0.0329472
0.031527
0.0274838
0.0228375
0.0212857
0.0217292
0.0251027
0.0304149
0.0325239
0.0326382
0.0315937
0.0290034
0.028289
0.0284509
0.0303153
0.0385079
0.0524026
0.0610044
0.0640261
0.0642118
0.0632978
0.0583637
0.0535079
0.0528102
0.0543613
0.0625124
0.0711809
0.0716529
0.0698092
0.0673115
0.0645381
0.0559648
0.0394563
0.0252365
0.0158511
0.0109334
0.00882627
0.00805472
0.00764911
0.00687395
0.00547016
0.00403707
0.00294419
0.00227017
0.00196738
0.00191278
0.0019678
0.00212278
0.002141
0.00211613
0.0021235
0.00224665
0.0716379
0.0740096
0.0679505
0.0706615
0.0736527
0.0843114
0.0885574
0.0912801
0.0961973
0.10395
0.110352
0.114846
0.116127
0.110015
0.0934144
0.0797224
0.0857976
0.0965172
0.107772
0.097193
0.0615813
0.0250028
0.0116151
0.00608303
0.00447804
0.00408084
0.00409195
0.00436951
0.00516288
0.00658127
0.0092376
0.0139965
0.0196875
0.0213248
0.0213804
0.0221102
0.0232148
0.0242659
0.0254038
0.0274595
0.0306803
0.035235
0.0415249
0.0500617
0.0552665
0.0567545
0.0570749
0.0569425
0.0562033
0.055324
0.054304
0.053345
0.0529021
0.0528417
0.0535809
0.054486
0.0551614
0.0555788
0.0557669
0.0556785
0.0548791
0.0529865
0.0485707
0.0369877
0.0271869
0.0215862
0.0192717
0.0179838
0.0169817
0.0166371
0.0153836
0.01267
0.00956514
0.00752732
0.00621869
0.00487013
0.00350226
0.00191049
0.00101172
0.00106766
0.00359669
0.0190498
0.0535306
0.0674847
0.0647693
0.0483858
0.0325491
0.0223323
0.0155085
0.0112304
0.00845907
0.0064337
0.00495513
0.00391458
0.00381453
0.00425515
0.00586554
0.00741797
0.0111339
0.0201464
0.029506
0.0400443
0.0533085
0.0607001
0.0625443
0.0679269
0.0809949
0.0943752
0.101672
0.104569
0.103924
0.101569
0.0964485
0.0931066
0.090899
0.0897373
0.0882864
0.0863002
0.0827017
0.0788722
0.0711359
0.064259
0.0571883
0.0475277
0.039428
0.0350869
0.0332998
0.032538
0.0315166
0.0291661
0.0237841
0.0204064
0.0197073
0.0209833
0.0256822
0.0308519
0.0325891
0.0325526
0.0309168
0.0275662
0.0266592
0.0269935
0.029693