/*--------------------------------*- C++ -*----------------------------------*\
  =========                 |
  \\      /  F ield         | OpenFOAM: The Open Source CFD Toolbox
   \\    /   O peration     | Website:  https://openfoam.org
    \\  /    A nd           | Version:  9
     \\/     M anipulation  |
\*---------------------------------------------------------------------------*/
FoamFile
{
    format      ascii;
    class       volScalarField;
    location    "0.087";
    object      pPrime2Mean;
}
// * * * * * * * * * * * * * * * * * * * * * * * * * * * * * * * * * * * * * //

dimensions      [0 4 -4 0 0 0 0];

internalField   nonuniform List<scalar> 
12225
(
290704
287967
284791
281350
277758
274097
270421
266764
263147
259580
256065
252596
249163
245745
242309
238798
235096
230932
290735
287995
284813
281368
277772
274109
270432
266774
263157
259590
256076
252610
249180
245767
242340
238848
235198
231225
290823
288058
284862
281407
277804
274136
270456
266796
263179
259613
256101
252639
249216
245815
242408
238955
235396
231676
290951
288164
284943
281472
277858
274182
270496
266833
263215
259651
256143
252688
249276
245893
242518
239122
235679
232204
291159
288318
285064
281568
277937
274248
270554
266888
263269
259706
256204
252758
249363
246005
242672
239347
236031
232770
291466
288533
285230
281701
278046
274340
270636
266963
263342
259783
256287
252855
249480
246155
242871
239627
236437
233356
291863
288815
285449
281876
278189
274462
270743
267062
263439
259883
256396
252980
249630
246343
243116
239956
236884
233953
292289
289171
285731
282101
278373
274618
270880
267189
263563
260010
256534
253136
249816
246571
243405
240328
237365
234558
292859
289618
286083
282383
278604
274812
271051
267347
263716
260167
256703
253327
250038
246839
243735
240739
237872
235168
293544
290168
286517
282729
278886
275051
271260
267540
263903
260357
256907
253553
250299
247147
244104
241183
238402
235783
294398
290836
287042
283148
279227
275337
271512
267771
264126
260583
257146
253817
250598
247493
244508
241656
238949
236403
295293
291572
287619
283604
279598
275649
271784
268021
264366
260825
257401
254094
250906
247843
244909
242113
239466
236976
296461
292427
288276
284122
280017
276001
272092
268302
264636
261095
257682
254397
251240
248216
245328
242584
239988
237546
297995
293561
289142
284799
280564
276458
272491
268666
264984
261443
258041
254779
251655
248673
245833
243139
240594
238200
299975
295048
290267
285676
281268
277046
273004
269134
265429
261884
258493
255254
252165
249224
246431
243786
241290
238940
302628
296982
291702
286780
282151
277783
273646
269719
265986
262433
259051
255835
252778
249876
247128
244529
242076
239766
306030
299324
293405
288084
283199
278662
274418
270426
266658
263094
259719
256522
253495
250630
247921
245362
242948
240673
309606
301784
295203
289474
284327
279624
275276
271222
267423
263849
260481
257303
254302
251468
248793
246269
243888
241643
312281
303563
296546
290577
285289
280500
276100
272019
268211
264642
261288
258131
255157
252353
249708
247213
244859
242638
310737
303107
296545
290795
285627
280913
276563
272521
268745
265205
261879
258748
255800
253020
250398
247924
245589
243384
308802
302021
295998
290572
285606
281021
276758
272776
269045
265540
262242
259136
256209
253447
250841
248382
246059
243865
306872
300841
295310
290203
285444
280996
276826
272910
269225
265756
262486
259402
256492
253746
251153
248705
246391
244205
305117
299748
294644
289815
285242
280917
276832
272975
269333
265894
262648
259583
256688
253954
251371
248931
246624
244444
303706
298836
294076
289474
285051
280829
276813
273003
269396
265983
262756
259705
256822
254097
251521
249087
246786
244610
302603
298136
293635
289205
284897
280751
276787
273015
269433
266039
262826
259786
256912
254193
251624
249194
246896
244723
301784
297617
293311
289006
284780
280690
276765
273018
269456
266075
262872
259840
256971
254258
251692
249265
246970
244799
301195
297253
293088
288869
284700
280647
276747
273019
269469
266097
262901
259874
257009
254299
251735
249311
247017
244847
300747
297016
292947
288783
284649
280620
276736
273018
269476
266110
262918
259894
257032
254324
251762
249338
247046
244877
300496
296884
292869
288736
284621
280604
276729
273018
269480
266117
262927
259905
257044
254337
251776
249353
247061
244892
300402
296829
292837
288717
284609
280598
276726
273018
269481
266120
262931
259910
257049
254342
251782
249359
247067
244899
195535
195518
195485
195436
195373
195296
195203
195094
194966
194819
194652
194466
194259
194034
193790
193527
193245
192944
192623
192284
191927
191552
191160
190750
190323
189879
189418
188940
188444
187932
187404
186861
186303
185730
185140
184537
183922
183297
182664
182021
181368
180701
180019
179321
178604
177872
177127
176370
175602
174824
174037
173243
172443
171635
170819
169995
169163
168317
167452
166572
165681
164780
163873
162955
162017
161054
160068
159068
158059
157039
156005
154956
153889
152802
151700
150591
149477
148361
147246
146133
145021
143909
142799
141687
140574
139449
138322
137193
136055
134892
133705
132520
131350
130195
129052
127914
126775
125629
124473
123305
122123
120926
119713
118482
117236
115981
114723
113459
112193
110945
109724
108525
107334
106138
104926
103688
102417
101110
99765.8
98388.6
96985.5
95566.9
94144.8
92730.8
91333.9
89960.2
88611.5
87286.7
85982.8
84696.1
83422.2
82157.3
80897.9
79641.2
78385.4
77129.4
75872.7
74615.5
73358
72100.4
70843.3
69587
68331.7
67077.6
65824.9
64573.6
63323.9
62075.8
60829.4
59584.9
58342.4
57102.3
55864.6
54629.9
53399.1
52173.2
50953.2
49739.8
48533.5
47334.5
46142
44954.3
43770.9
42594.9
41427.6
40267.5
39116
37974.8
36842.7
35719.4
34606.5
33502
32406.9
31323.8
30252.3
29194.2
28149.5
27120.8
26112.7
25134.5
195598
195581
195548
195500
195437
195359
195266
195156
195026
194878
194710
194523
194317
194092
193849
193587
193305
193004
192683
192342
191983
191605
191210
190796
190366
189919
189455
188974
188477
187964
187437
186894
186338
185766
185178
184576
183960
183333
182697
182050
181392
180720
180035
179335
178618
177884
177142
176390
175624
174845
174055
173258
172455
171648
170834
170010
169176
168330
167469
166596
165711
164812
163899
162972
162026
161062
160077
159077
158068
157049
156015
154965
153898
152808
151701
150588
149468
148350
147236
146126
145018
143912
142804
141695
140584
139463
138330
137187
136036
134868
133689
132515
131354
130206
129068
127932
126793
125646
124489
123319
122136
120939
119724
118491
117244
115987
114725
113462
112204
110967
109754
108558
107368
106171
104957
103717
102444
101134
99787.8
98408.6
97003.3
95582.3
94157.5
92740.7
91341.6
89965.9
88615.8
87290
85985.4
84698.1
83423.8
82158.6
80899
79642.3
78386.4
77130.4
75873.9
74616.7
73359.2
72101.8
70844.8
69588.5
68333.3
67079.2
65826.5
64575.3
63325.6
62077.6
60831.4
59587
58344.8
57104.9
55867.6
54633.4
53403.1
52177.8
50958.4
49745.3
48538.9
47339.4
46145.5
44956.4
43772.6
42597.4
41430.8
40270.4
39118.9
37977.7
36845.4
35722.4
34609.8
33505.6
32411.1
31327.9
30256.3
29197.6
28151.5
27121
26110.9
25127.5
195742
195726
195694
195646
195580
195499
195402
195287
195155
195004
194837
194652
194448
194224
193980
193716
193433
193129
192805
192461
192097
191714
191313
190894
190458
190005
189537
189052
188552
188037
187507
186964
186406
185834
185247
184646
184031
183405
182769
182121
181461
180787
180099
179398
178685
177956
177212
176456
175684
174901
174110
173311
172508
171700
170884
170058
169222
168376
167520
166652
165769
164867
163946
163007
162052
161082
160097
159098
158087
157065
156028
154973
153900
152806
151698
150583
149463
148347
147236
146130
145029
143928
142825
141719
140606
139479
138334
137177
136012
134842
133674
132514
131364
130224
129091
127958
126822
125677
124519
123349
122163
120963
119745
118508
117258
115999
114736
113477
112231
111004
109797
108604
107415
106218
105003
103761
102486
101176
99827.8
98446.2
97037.5
95612.1
94182.4
92760.7
91357
89977.6
88624.8
87297
85990.9
84702.5
83427.4
82161.7
80901.7
79644.8
78388.8
77132.8
75876.2
74619.1
73361.8
72104.4
70847.5
69591.4
68336.2
67082.3
65829.7
64578.5
63329
62081.1
60835
59590.8
58348.7
57109.1
55872.2
54638.4
53408.6
52183.6
50964.1
49750.7
48543.9
47343.5
46149.3
44960.8
43778.2
42602.6
41434.8
40274.7
39123.7
37982.7
36850.9
35728.6
34616.3
33512.7
32418
31334
30261.7
29201.5
28154.1
27122
26108.4
25117.8
195954
195938
195906
195856
195789
195705
195604
195487
195352
195200
195031
194845
194639
194415
194170
193905
193617
193309
192980
192631
192261
191873
191466
191041
190599
190140
189666
189176
188671
188152
187619
187072
186512
185938
185350
184748
184135
183510
182875
182228
181568
180894
180208
179508
178794
178064
177318
176558
175785
175002
174210
173409
172602
171787
170965
170134
169297
168452
167598
166731
165844
164935
164006
163062
162103
161128
160139
159135
158117
157087
156041
154977
153895
152798
151691
150576
149460
148347
147242
146143
145051
143958
142858
141748
140628
139490
138335
137169
136001
134836
133676
132524
131383
130250
129122
127994
126862
125719
124563
123392
122205
121000
119777
118536
117281
116019
114757
113505
112268
111051
109851
108663
107476
106279
105064
103821
102545
101233
99883.5
98499.1
97086.4
95655.3
94218.9
92790.3
91380.2
89995.5
88638.5
87307.6
85999.4
84709.4
83433.2
82166.5
80906
79648.8
78392.6
77136.6
75880.1
74623
73365.7
72108.6
70851.8
69595.9
68340.9
67087.1
65834.5
64583.5
63334
62086.3
60840.2
59596.1
58354.3
57114.9
55878.3
54644.9
53415.5
52190.6
50971.1
49757.5
48550
47348.9
46154
44965.3
43782.7
42607.1
41439.8
40280.6
39129.9
37989.4
36858.7
35737.6
34626.6
33524
32429.5
31344.9
30271.7
29210
28159.7
27124.2
26105.9
25108.2
196238
196221
196186
196133
196062
195975
195871
195751
195613
195458
195285
195096
194887
194660
194412
194142
193850
193536
193202
192846
192470
192075
191661
191230
190781
190316
189836
189339
188829
188305
187769
187219
186656
186081
185492
184890
184277
183652
183016
182369
181711
181041
180358
179660
178946
178213
177462
176695
175914
175122
174322
173513
172700
171881
171056
170225
169388
168543
167687
166816
165924
165010
164079
163134
162175
161199
160206
159195
158167
157122
156061
154984
153893
152793
151688
150579
149469
148363
147262
146168
145080
143992
142892
141778
140648
139501
138340
137172
136006
134844
133689
132545
131409
130283
129161
128038
126910
125771
124617
123447
122257
121047
119818
118570
117310
116046
114787
113541
112314
111106
109915
108732
107548
106353
105137
103893
102616
101302
99951.5
98564.6
97147.5
95710.2
94266
92829
91411
90019.5
88657.1
87322.2
86011.1
84719
83441.2
82173.5
80912.4
79654.6
78398.2
77142
75885.6
74628.7
73371.6
72114.5
70857.9
69602.1
68347.4
67093.7
65841.3
64590.3
63340.9
62093.2
60847.3
59603.3
58361.6
57122.4
55886
54652.9
53423.7
52199
50979.5
49765.7
48557.8
47356.1
46160.6
44971.4
43788.5
42612.5
41444.7
40285.4
39135.1
37995.1
36865.6
35746.7
34637.7
33536.6
32442.5
31357.9
30284.2
29221
28168
27128.7
26105.2
25100.2
196594
196575
196537
196482
196409
196319
196212
196087
195945
195785
195608
195413
195199
194966
194713
194437
194138
193818
193475
193111
192727
192323
191901
191461
191005
190532
190044
189541
189025
188496
187955
187402
186837
186260
185671
185069
184454
183828
183192
182545
181887
181219
180537
179840
179124
178386
177628
176851
176059
175255
174444
173627
172807
171984
171157
170325
169485
168638
167780
166905
166008
165094
164166
163227
162272
161299
160305
159289
158250
157191
156113
155020
153919
152817
151713
150609
149504
148403
147306
146215
145127
144037
142934
141814
140677
139523
138358
137190
136024
134864
133713
132572
131442
130320
129203
128085
126962
125827
124676
123506
122314
121100
119863
118608
117343
116079
114823
113585
112366
111168
109985
108808
107627
106432
105215
103969
102691
101377
100025
98636.5
97215.8
95772.6
94320.6
92874.8
91448.2
90049.1
88680.4
87340.7
86025.9
84731.1
83451.5
82182.6
80920.4
79662.1
78405.4
77149.2
75892.8
74636.1
73379.3
72122.5
70866.2
69610.6
68356
67102.4
65850.1
64599.1
63349.7
62102.1
60856.3
59612.4
58370.7
57131.6
55895.3
54662.4
53433.3
52208.8
50989.3
49775.4
48567.3
47365.2
46169.2
44979.6
43796.3
42619.8
41451.2
40291.2
39140.3
37999.9
36870.5
35752.7
34645.7
33546.6
32454
31370.5
30297.1
29233.2
28178.2
27135.5
26106.8
25094.9
197023
197003
196963
196907
196832
196739
196628
196499
196351
196186
196002
195799
195577
195336
195073
194789
194481
194151
193799
193425
193031
192617
192185
191735
191269
190787
190291
189782
189260
188725
188178
187620
187051
186471
185879
185275
184658
184031
183392
182744
182087
181418
180735
180036
179316
178574
177808
177020
176217
175401
174576
173748
172918
172091
171261
170427
169587
168740
167880
167002
166106
165198
164279
163348
162401
161434
160443
159427
158384
157315
156225
155119
154008
152899
151794
150689
149585
148484
147387
146294
145202
144106
142996
141868
140722
139562
138393
137222
136054
134893
133743
132605
131478
130359
129246
128132
127012
125881
124734
123565
122372
121153
119910
118648
117380
116116
114865
113634
112424
111234
110058
108886
107707
106512
105292
104044
102764
101449
100097
98707.9
97285
95837.3
94378.4
92924.3
91489.5
90082.8
88707.7
87362.7
86043.8
84746
83464.2
82193.7
80930.6
79671.5
78414.5
77158.1
75901.9
74645.5
73389.1
72132.7
70876.7
69621.4
68367.1
67113.8
65861.6
64610.5
63360.9
62113.1
60867.2
59623.3
58381.7
57142.7
55906.5
54673.6
53444.6
52220.2
51000.8
49786.9
48578.6
47376.3
46179.9
44989.9
43806.2
42629.3
41459.9
40298.9
39147
38005.2
36874.7
35756.1
34649.6
33552.2
32462.1
31380.6
30308.6
29245.1
28189.1
27143.6
26110.4
25092.8
197534
197513
197473
197413
197335
197237
197120
196983
196828
196655
196462
196249
196016
195763
195489
195193
194874
194533
194170
193785
193380
192956
192513
192053
191578
191087
190584
190067
189538
188995
188441
187875
187298
186710
186112
185503
184883
184253
183614
182965
182308
181638
180954
180252
179529
178780
178006
177209
176393
175563
174724
173882
173043
172209
171376
170542
169702
168855
167996
167120
166229
165330
164422
163501
162563
161605
160621
159608
158565
157493
156396
155284
154165
153049
151937
150827
149719
148613
147512
146414
145314
144207
143086
141946
140789
139619
138443
137266
136093
134929
133777
132639
131512
130395
129284
128172
127055
125927
124782
123616
122423
121201
119953
118688
117419
116157
114911
113686
112483
111300
110131
108964
107785
106588
105365
104113
102830
101514
100162
98773.3
97349.7
95899.2
94435.2
92974.4
91532.3
90118.7
88737.5
87387.5
86064.5
84763.5
83479.3
82207.1
80942.8
79683
78425.5
77169.1
75913.1
74657.2
73401.2
72145.4
70889.8
69634.9
68380.9
67127.8
65875.6
64624.5
63374.7
62126.6
60880.6
59636.5
58394.8
57155.9
55919.8
54686.9
53457.9
52233.6
51014.2
49800.2
48591.9
47389.2
46192.6
45002.2
43818.2
42640.9
41470.9
40309
39156
38012.7
36880
35759
34650.7
33553.2
32464.9
31386.2
30316.7
29254.9
28199.2
27152.3
26115.8
25093.6
198134
198112
198069
198005
197921
197816
197690
197544
197378
197193
196988
196762
196515
196248
195960
195651
195320
194966
194591
194196
193779
193344
192891
192421
191936
191437
190925
190399
189860
189308
188742
188165
187578
186980
186373
185757
185134
184502
183863
183217
182561
181893
181209
180504
179776
179021
178237
177428
176598
175752
174897
174041
173192
172350
171514
170678
169838
168993
168136
167264
166381
165493
164595
163683
162753
161803
160825
159818
158779
157710
156614
155500
154377
153253
152133
151015
149899
148787
147679
146573
145462
144341
143204
142049
140878
139696
138509
137321
136140
134969
133813
132672
131544
130427
129315
128204
127087
125960
124818
123654
122462
121239
119990
118725
117458
116201
114960
113739
112542
111366
110203
109038
107859
106658
105430
104174
102888
101570
100218
98829.5
97405.9
95954.2
94487.3
93021.7
91574.1
90155
88768.7
87414.3
86087.6
84783.4
83496.8
82222.8
80957.2
79696.7
78438.8
77182.4
75926.6
74671.2
73415.9
72160.7
70905.8
69651.6
68398
67145.1
65893.1
64641.9
63391.9
62143.5
60897
59652.6
58410.6
57171.6
55935.5
54702.6
53473.6
52249.2
51029.7
49815.6
48607.1
47404.2
46207.3
45016.6
43832.2
42654.3
41483.8
40321.2
39167.3
38022.5
36887.6
35763.7
34652
33552.3
32463.8
31386.7
30319.7
29260.2
28206
27159.5
26121.8
25096.6
198826
198802
198755
198686
198594
198480
198344
198186
198007
197808
197587
197345
197083
196801
196497
196173
195828
195461
195073
194664
194237
193790
193327
192847
192352
191843
191321
190785
190235
189670
189092
188502
187903
187294
186678
186056
185429
184796
184158
183513
182859
182192
181506
180798
180064
179300
178505
177682
176836
175974
175102
174233
173373
172524
171682
170844
170004
169159
168305
167437
166562
165682
164792
163886
162963
162017
161046
160043
159010
157947
156856
155744
154619
153489
152359
151232
150110
148991
147876
146761
145638
144502
143348
142175
140988
139791
138590
137390
136196
135016
133853
132707
131576
130456
129342
128227
127110
125983
124842
123681
122491
121271
120022
118760
117497
116244
115008
113792
112600
111430
110271
109107
107925
106719
105487
104226
102935
101614
100262
98873.2
97450.1
95998.5
94530.6
93062.9
91612.2
90189.7
88800
87442.2
86112.3
84805.4
83516.6
82240.9
80974.1
79712.8
78454.8
77198.6
75943.3
74688.5
73434
72179.6
70925.6
69672.1
68419.1
67166.6
65914.6
64663.3
63413
62164.4
60917.4
59672.3
58429.8
57190.6
55954.5
54721.4
53492.2
52267.5
51047.8
49833.3
48624.4
47421.2
46224
45032.8
43848
42669.6
41498.4
40335.3
39180.6
38034.6
36898
35771.5
34656.3
33553.2
32462.3
31384.3
30318.2
29260.6
28208.4
27163.5
26126.4
25100.4
199612
199585
199534
199459
199359
199236
199089
198918
198726
198511
198275
198017
197739
197440
197120
196779
196417
196034
195632
195209
194768
194309
193833
193342
192838
192319
191787
191239
190677
190099
189508
188904
188290
187669
187042
186411
185776
185138
184496
183847
183190
182519
181830
181117
180374
179600
178792
177955
177095
176218
175333
174452
173583
172728
171883
171042
170201
169356
168502
167638
166767
165891
165005
164102
163181
162238
161269
160270
159240
158181
157096
155988
154864
153731
152595
151461
150332
149209
148089
146966
145833
144684
143515
142326
141120
139907
138690
137474
136266
135074
133902
132749
131613
130487
129367
128248
127127
125998
124858
123699
122514
121296
120051
118791
117532
116284
115052
113841
112654
111489
110332
109168
107982
106771
105533
104266
102971
101646
100292
98902.5
97479.7
96029
94562.2
93095.3
91644.7
90221.3
88830.1
87470.5
86138.4
84829.4
83538.7
82261.6
80993.8
79732
78474.1
77218.5
75964
74710.2
73456.8
72203.3
70950.1
69697.5
68445.4
67193.3
65941.3
64689.7
63439
62190
60942.5
59696.6
58453.5
57213.7
55977.2
54743.9
53514.2
52289
51068.7
49853.6
48644.1
47440.4
46242.6
45050.9
43865.5
42686.5
41514.8
40351.1
39195.8
38048.9
36911
35782.6
34664.6
33558
32463.5
31382.6
30314.8
29257.1
28206.5
27163.5
26128.1
25102.9
200496
200467
200412
200331
200225
200093
199936
199755
199551
199323
199073
198800
198505
198189
197851
197492
197111
196710
196289
195850
195393
194919
194430
193927
193410
192880
192335
191775
191198
190605
189997
189376
188744
188105
187461
186814
186164
185511
184855
184195
183527
182847
182150
181428
180677
179893
179077
178233
177365
176480
175586
174697
173822
172962
172113
171270
170426
169579
168725
167859
166988
166111
165224
164320
163398
162453
161483
160483
159453
158395
157311
156207
155087
153956
152820
151685
150554
149431
148310
147183
146043
144884
143702
142497
141274
140043
138809
137575
136351
135146
133963
132802
131658
130525
129398
128273
127146
126015
124873
123715
122531
121315
120072
118816
117560
116316
115089
113884
112703
111541
110385
109218
108027
106810
105566
104294
102992
101663
100305
98914.7
97492.6
96043.9
94580.5
93117.5
91670.1
90248.7
88858.3
87498.4
86165.5
84855.2
83563.4
82285.6
81017.4
79755.7
78498.2
77243.6
75990.5
74738
73485.8
72233.4
70981.3
69729.7
68478.4
67226.8
65974.7
64722.6
63471.3
62221.5
60973.2
59726.5
58482.4
57241.8
56004.5
54770.3
53539.9
52313.9
51092.9
49876.9
48666.5
47462
46263.6
45071.2
43885
42705.4
41533.1
40368.9
39212.9
38065.5
36926.7
35796.9
34676.9
33567.5
32469.5
31384.6
30313
29253
28201.9
27160.1
26126.6
25102.8
201491
201460
201402
201317
201207
201070
200908
200721
200508
200270
200008
199721
199409
199074
198715
198334
197931
197507
197065
196605
196128
195637
195131
194611
194078
193531
192969
192390
191795
191182
190553
189910
189255
188591
187922
187250
186575
185899
185220
184539
183852
183156
182444
181710
180948
180157
179339
178496
177631
176746
175853
174963
174084
173220
172368
171521
170674
169822
168963
168094
167217
166332
165438
164529
163601
162650
161673
160669
159636
158576
157492
156391
155274
154149
153018
151888
150764
149644
148525
147399
146257
145093
143903
142684
141445
140197
138945
137693
136453
135233
134039
132868
131716
130575
129441
128309
127176
126039
124893
123731
122544
121328
120086
118832
117580
116341
115119
113920
112743
111582
110423
109251
108055
106831
105579
104300
102994
101660
100298
98907.6
97487.1
96042.3
94584.8
93128.7
91687.6
90271.1
88883.8
87525.7
86193.3
84883.1
83591.3
82313.7
81046.1
79785.3
78529.1
77275.9
76024.3
74773.4
73522.7
72271.4
71020.4
69770
68519.8
67268.8
66016.7
64763.9
63511.6
62260.6
61011.1
59763
58517.5
57275.3
56036.6
54801.2
53569.6
52342.7
51120.7
49903.6
48692.1
47486.6
46287.2
45093.9
43906.9
42726.6
41553.8
40389
39232.7
38084.8
36945.4
35814.8
34693.5
33582
32481
31392
30315.8
29251.8
28198.3
27155.7
26122.8
25100.2
202619
202586
202526
202441
202330
202193
202029
201838
201618
201370
201093
200788
200455
200097
199713
199307
198878
198428
197960
197474
196972
196455
195925
195382
194826
194256
193671
193069
192450
191812
191156
190483
189797
189101
188399
187694
186988
186280
185570
184859
184146
183425
182693
181943
181171
180377
179562
178727
177871
176997
176112
175226
174349
173482
172625
171774
170922
170065
169200
168325
167438
166543
165637
164717
163778
162817
161831
160820
159781
158716
157632
156532
155421
154302
153181
152062
150947
149837
148725
147603
146464
145302
144108
142880
141626
140361
139090
137822
136567
135333
134127
132947
131787
130642
129503
128365
127224
126077
124921
123749
122555
121334
120092
118840
117592
116357
115142
113948
112773
111609
110443
109263
108059
106827
105567
104282
102971
101634
100271
98880.8
97463.4
96024.5
94575.2
93128.7
91696.9
90288.1
88906.6
87552.4
86222.5
84913.9
83623.5
82347.4
81081.5
79822.6
78568.2
77316.6
76066.8
74817.9
73568.4
72318.3
71068.5
69819.2
68569.9
67319.7
66067.8
64814.4
63561
62308.6
61057.5
59807.6
58560
57315.5
56074.5
54837.1
53603.8
52375.7
51152.6
49934.3
48721.4
47514.6
46314.1
45119.8
43931.9
42750.9
41577.6
40412.5
39255.8
38107.6
36967.9
35836.8
34714.5
33601.4
32498.1
31405.8
30325.1
29256.3
28198.8
27153.3
26119
25096.2
203900
203866
203806
203721
203609
203471
203303
203104
202872
202609
202313
201987
201631
201246
200833
200395
199935
199453
198952
198433
197899
197351
196792
196219
195634
195035
194419
193786
193132
192460
191769
191061
190339
189607
188867
188125
187382
186638
185893
185148
184402
183654
182898
182131
181349
180550
179738
178912
178069
177210
176337
175460
174587
173721
172862
172006
171148
170283
169410
168527
167631
166724
165805
164872
163921
162947
161951
160930
159886
158819
157736
156640
155535
154425
153314
152207
151102
150001
148898
147784
146653
145495
144303
143070
141805
140523
139236
137953
136684
135438
134222
133034
131870
130725
129585
128442
127290
126128
124954
123767
122562
121336
120093
118843
117599
116369
115157
113966
112789
111617
110440
109248
108033
106792
105527
104238
102924
101586
100224
98835.5
97422.9
95991.8
94553
93118.6
91698.8
90300.5
88927.3
87579.2
86253.9
84949
83661.6
82388.3
81125.2
79869
78617
77367.3
76119.2
74871.5
73623.2
72374.1
71124.8
69876.2
68628.2
67378.8
66127.1
64873.4
63619.4
62366.1
61113.2
59860.9
58610.7
57363.2
56119.1
54878.9
53643.4
52413.6
51188.9
49969.1
48754.7
47546.6
46344.8
45149.4
43960.7
42779.1
41605.4
40440
39283.2
38134.9
36995
35863.5
34740.5
33626.3
32521.3
31426.1
30341.6
29268
28205.7
27155.9
26118.3
25093.3
205389
205352
205289
205199
205082
204936
204757
204545
204298
204017
203702
203351
202966
202546
202094
201613
201108
200583
200041
199482
198909
198324
197726
197115
196490
195849
195192
194516
193822
193109
192378
191633
190874
190105
189328
188547
187767
186987
186206
185426
184647
183870
183089
182302
181508
180702
179888
179066
178233
177385
176524
175655
174787
173922
173062
172202
171338
170466
169584
168691
167787
166869
165938
164991
164027
163043
162036
161009
159961
158895
157815
156723
155625
154522
153421
152324
151230
150138
149042
147935
146810
145658
144469
143237
141967
140675
139375
138080
136799
135543
134319
133127
131963
130822
129686
128539
127374
126190
124993
123786
122568
121337
120094
118846
117605
116377
115168
113974
112789
111604
110412
109205
107978
106730
105460
104168
102854
101517
100157
98772.2
97366.4
95945.7
94520.4
93101
91695.8
90310.3
88947.8
87608.3
86289.9
84990.6
83707.9
82438.5
81179
79926
78676.6
77428.7
76181.4
74933.9
73685.7
72436.9
71187.9
69940.1
68692.5
67443.7
66192.8
64940.1
63686.8
62432.9
61178.6
59924.1
58670.8
57419.9
56172.2
54928.4
53689.8
52457.6
51230.9
50009.2
48793.1
47583.5
46380.5
45184.2
43994.8
42812.8
41638.7
40473.1
39316.2
38167.8
37027.9
35896.1
34772.6
33657.4
32550.8
31453.3
30365.4
29287.6
28220.4
27165.4
26123
25094.1
207013
206971
206899
206797
206665
206503
206309
206079
205812
205506
205158
204768
204336
203865
203359
202824
202264
201689
201099
200496
199878
199249
198608
197953
197285
196601
195902
195186
194453
193702
192935
192155
191362
190560
189750
188937
188126
187315
186505
185696
184890
184085
183280
182473
181662
180846
180025
179198
178365
177521
176665
175801
174933
174066
173203
172339
171469
170591
169701
168800
167888
166964
166024
165068
164093
163100
162087
161056
160008
158944
157867
156781
155688
154593
153500
152410
151322
150234
149141
148036
146912
145763
144579
143352
142087
140795
139490
138188
136902
135639
134409
133215
132053
130916
129785
128636
127457
126252
125031
123805
122576
121340
120097
118852
117612
116384
115170
113968
112771
111572
110363
109142
107905
106649
105376
104082
102768
101432
100074
98694.5
97298
95890.8
94481.8
93079.6
91690.5
90319.6
88969.7
87641
86331.8
85039.7
83762.5
82497.4
81241.3
79990.8
78743.3
77495.8
76248
75000.2
73751.7
72501.4
71251.6
70003.9
68757.3
67509.9
66260.6
65009.8
63758.3
62506.1
61251.6
59995.5
58739.4
57485.3
56233.6
54985.6
53743.4
52508.1
51278.8
50054.8
48837
47626
46422.1
45225.2
44035.4
42853.2
41678.8
40513
39355.8
38207.2
37067.1
35935.2
34811.2
33695.1
32587.1
31487.5
30396.6
29315
28243
27182.6
26134.8
25100.6
208618
208568
208480
208356
208199
208010
207787
207528
207227
206880
206485
206041
205551
205019
204453
203861
203252
202630
201998
201354
200697
200028
199348
198656
197949
197229
196495
195746
194982
194202
193407
192599
191781
190954
190120
189283
188448
187615
186782
185951
185123
184296
183470
182643
181815
180986
180154
179318
178476
177628
176770
175905
175034
174162
173292
172420
171542
170657
169760
168854
167938
167009
166064
165103
164122
163125
162110
161080
160034
158974
157902
156820
155732
154641
153552
152464
151375
150285
149190
148082
146957
145808
144628
143410
142155
140871
139570
138271
136985
135719
134485
133288
132125
130987
129855
128702
127515
126294
125058
123820
122583
121344
120101
118857
117617
116386
115165
113952
112743
111530
110309
109075
107828
106567
105289
103993
102677
101341
99985.7
98613.2
97228
95835.8
94444
93059.1
91686.6
90331
88994.9
87678.2
86379.1
85094.7
83823.1
82561.4
81307.4
80058.3
78810.7
77562.3
76312.7
75062.8
73812.1
72560.3
71309.7
70062.1
68817.1
67572.1
66325.5
65078.1
63829.9
62580.6
61328.2
60072
58814.5
57557.6
56302
55049.8
53803.6
52564.7
51332.4
50106.2
48886.8
47675.1
46471
45274.1
44084.3
42901.9
41727.4
40561.1
39403.2
38254.1
37113.6
35981.3
34856.8
33739.9
32630.6
31529.1
30435.6
29350.4
28274.1
27208.6
26155.1
25114.9
210212
210148
210034
209873
209673
209436
209165
208855
208503
208104
207655
207153
206602
206010
205387
204747
204099
203440
202770
202090
201399
200696
199982
199255
198516
197765
197001
196225
195437
194634
193818
192990
192153
191307
190454
189599
188745
187893
187042
186193
185346
184502
183658
182813
181969
181125
180279
179431
178578
177719
176854
175984
175108
174228
173347
172464
171577
170683
169781
168871
167951
167018
166071
165106
164124
163127
162115
161087
160046
158991
157923
156845
155759
154669
153580
152490
151398
150302
149200
148087
146959
145809
144633
143423
142180
140907
139617
138326
137044
135779
134543
133342
132174
131030
129892
128733
127539
126312
125069
123825
122586
121346
120104
118861
117619
116383
115154
113931
112711
111487
110255
109011
107756
106487
105204
103904
102586
101250
99899.1
98535.1
97162.2
95785.1
94409.7
93041.6
91685.8
90346.4
89025.1
87721
86431.9
85154.6
83887
82627.2
81373.5
80123.5
78874.3
77623.2
76370.1
75117
73863.8
72610.3
71359.1
70112.4
68870.2
67629.1
66387
65144.2
63900.5
62655.3
61406
60151.4
58894.3
57635.3
56376.5
55120.3
53870.3
52627.6
51392.4
50164.5
48944.4
47732.8
46529.3
45333.1
44143.6
42961.1
41786.3
40619.3
39460.3
38310
37168.5
36035.4
34910.1
33792.2
32681.6
31578.2
30482.2
29393.9
28313.7
27243.6
26184.6
25138.3
211813
211726
211574
211363
211101
210795
210451
210071
209652
209191
208684
208127
207523
206879
206211
205534
204854
204163
203461
202748
202024
201289
200543
199785
199017
198239
197451
196653
195844
195022
194188
193344
192490
191629
190761
189892
189022
188154
187287
186422
185560
184699
183839
182979
182119
181260
180400
179538
178673
177803
176928
176049
175165
174276
173384
172489
171590
170687
169780
168866
167942
167005
166054
165089
164108
163114
162105
161082
160046
158995
157931
156856
155771
154681
153590
152496
151398
150296
149186
148067
146934
145783
144608
143405
142172
140913
139636
138356
137081
135820
134584
133380