/*--------------------------------*- C++ -*----------------------------------*\
  =========                 |
  \\      /  F ield         | OpenFOAM: The Open Source CFD Toolbox
   \\    /   O peration     | Website:  https://openfoam.org
    \\  /    A nd           | Version:  9
     \\/     M anipulation  |
\*---------------------------------------------------------------------------*/
FoamFile
{
    format      ascii;
    class       volVectorField;
    location    "0.087";
    object      UMean;
}
// * * * * * * * * * * * * * * * * * * * * * * * * * * * * * * * * * * * * * //

dimensions      [0 1 -1 0 0 0 0];

internalField   nonuniform List<vector> 
12225
(
(9.83891 0.0441865 0)
(9.54578 0.0603056 0)
(9.24754 0.0581547 0)
(8.94469 0.0568305 0)
(8.64602 0.0563305 0)
(8.3572 0.0556126 0)
(8.07862 0.054534 0)
(7.81055 0.0536805 0)
(7.54957 0.0527017 0)
(7.29801 0.052432 0)
(7.04873 0.0516284 0)
(6.81036 0.0525816 0)
(6.56363 0.0521682 0)
(6.33388 0.0561885 0)
(6.06935 0.0566421 0)
(5.84217 0.0676415 0)
(5.52009 0.0706305 0)
(5.28598 0.0975075 0)
(10.0255 0.0519427 0)
(10.0852 0.0752858 0)
(10.1237 0.0742511 0)
(10.1372 0.075449 0)
(10.1336 0.0788549 0)
(10.1194 0.0819709 0)
(10.0965 0.0844497 0)
(10.0667 0.0867319 0)
(10.0289 0.0891311 0)
(9.98555 0.0917706 0)
(9.93351 0.0949353 0)
(9.87761 0.0986186 0)
(9.81028 0.104006 0)
(9.74077 0.110288 0)
(9.65338 0.121344 0)
(9.56563 0.133062 0)
(9.44911 0.157193 0)
(9.3329 0.17908 0)
(10.0074 0.0303278 0)
(10.0396 0.0532992 0)
(10.0689 0.0556418 0)
(10.0866 0.0578975 0)
(10.0967 0.062656 0)
(10.1044 0.0675701 0)
(10.1115 0.0715748 0)
(10.1175 0.0754429 0)
(10.1219 0.0791874 0)
(10.1239 0.0837973 0)
(10.1236 0.0884792 0)
(10.1204 0.0949761 0)
(10.1149 0.101988 0)
(10.106 0.112707 0)
(10.0957 0.125554 0)
(10.0817 0.144761 0)
(10.0708 0.170058 0)
(10.0581 0.200658 0)
(9.99038 0.0294195 0)
(10.0132 0.0578718 0)
(10.0363 0.0634939 0)
(10.0512 0.0654271 0)
(10.0594 0.0694776 0)
(10.0649 0.0741121 0)
(10.0699 0.0781155 0)
(10.0742 0.0817146 0)
(10.0775 0.0854936 0)
(10.0794 0.0897982 0)
(10.0801 0.0949771 0)
(10.0794 0.101247 0)
(10.0778 0.10935 0)
(10.0752 0.119757 0)
(10.0726 0.133775 0)
(10.0714 0.152061 0)
(10.0737 0.175119 0)
(10.083 0.20045 0)
(10.0078 0.0208639 0)
(10.026 0.0463221 0)
(10.046 0.0539432 0)
(10.0599 0.0564606 0)
(10.0674 0.0604773 0)
(10.0718 0.0656944 0)
(10.0754 0.070626 0)
(10.0785 0.0751629 0)
(10.0808 0.0796399 0)
(10.0818 0.0846593 0)
(10.0814 0.0904522 0)
(10.08 0.0975223 0)
(10.0775 0.106257 0)
(10.0747 0.117281 0)
(10.072 0.131251 0)
(10.0712 0.148457 0)
(10.073 0.16834 0)
(10.0801 0.188566 0)
(9.98953 0.0181077 0)
(10.0024 0.044073 0)
(10.0194 0.0546429 0)
(10.0334 0.0588308 0)
(10.0419 0.0629545 0)
(10.0471 0.0680008 0)
(10.0511 0.0730473 0)
(10.0548 0.077816 0)
(10.0577 0.0826615 0)
(10.0595 0.0880435 0)
(10.06 0.0942499 0)
(10.0595 0.101636 0)
(10.0583 0.110529 0)
(10.0571 0.121469 0)
(10.0564 0.134715 0)
(10.0574 0.150389 0)
(10.0607 0.16747 0)
(10.0676 0.184726 0)
(10.012 0.0146016 0)
(10.0206 0.0369626 0)
(10.0339 0.0485483 0)
(10.0465 0.0537706 0)
(10.0553 0.0580401 0)
(10.0609 0.0632173 0)
(10.0651 0.0687463 0)
(10.0687 0.0740755 0)
(10.0715 0.0793603 0)
(10.0734 0.0851028 0)
(10.0743 0.0917018 0)
(10.0744 0.0994951 0)
(10.0741 0.108709 0)
(10.0739 0.119678 0)
(10.0742 0.132409 0)
(10.0759 0.146914 0)
(10.0793 0.16225 0)
(10.0854 0.177854 0)
(10.0019 0.0138879 0)
(10.0112 0.0340156 0)
(10.0237 0.046479 0)
(10.0354 0.0529898 0)
(10.0439 0.0576044 0)
(10.0496 0.0626837 0)
(10.054 0.0683597 0)
(10.0578 0.0742103 0)
(10.061 0.0801304 0)
(10.0636 0.0864152 0)
(10.0652 0.0933777 0)
(10.0663 0.101352 0)
(10.0669 0.110533 0)
(10.0678 0.121181 0)
(10.0691 0.133214 0)
(10.0718 0.146603 0)
(10.0755 0.160585 0)
(10.0816 0.17483 0)
(10.0071 0.00940579 0)
(10.0128 0.027962 0)
(10.0219 0.040949 0)
(10.0316 0.0486195 0)
(10.0392 0.0538856 0)
(10.0442 0.0591624 0)
(10.0477 0.0649676 0)
(10.0506 0.0710064 0)
(10.0534 0.0771698 0)
(10.056 0.0837076 0)
(10.0581 0.0909248 0)
(10.0599 0.0991165 0)
(10.0615 0.108378 0)
(10.0632 0.118861 0)
(10.0653 0.13038 0)
(10.0686 0.142937 0)
(10.0728 0.155853 0)
(10.0789 0.169038 0)
(10.0022 0.0106553 0)
(10.0074 0.0264114 0)
(10.0148 0.0390889 0)
(10.023 0.0475553 0)
(10.0302 0.05362 0)
(10.0356 0.0591798 0)
(10.0397 0.0649877 0)
(10.0431 0.0710386 0)
(10.0462 0.0772911 0)
(10.049 0.0839488 0)
(10.0515 0.0912426 0)
(10.0538 0.0994102 0)
(10.0558 0.108488 0)
(10.0581 0.118569 0)
(10.0608 0.129429 0)
(10.0647 0.141073 0)
(10.0693 0.152909 0)
(10.0755 0.165012 0)
(10 0.00623109 0)
(10.0045 0.0229899 0)
(10.0109 0.034614 0)
(10.0183 0.0429234 0)
(10.0252 0.0494225 0)
(10.0307 0.0553411 0)
(10.0347 0.0613471 0)
(10.038 0.0676355 0)
(10.0409 0.0741969 0)
(10.0436 0.0811615 0)
(10.0461 0.0886915 0)
(10.0486 0.0969915 0)
(10.0511 0.106039 0)
(10.054 0.115884 0)
(10.0574 0.126256 0)
(10.0616 0.137186 0)
(10.0664 0.148161 0)
(10.0725 0.159372 0)
(9.99583 0.00615367 0)
(9.99809 0.0219702 0)
(10.0034 0.0329699 0)
(10.0105 0.041445 0)
(10.0173 0.0484793 0)
(10.0231 0.0548419 0)
(10.0281 0.0610559 0)
(10.0327 0.0674042 0)
(10.037 0.0739982 0)
(10.0411 0.0809495 0)
(10.045 0.0883519 0)
(10.0488 0.0963721 0)
(10.0528 0.104994 0)
(10.0571 0.114297 0)
(10.062 0.124039 0)
(10.0674 0.134299 0)
(10.0735 0.144572 0)
(10.0801 0.155152 0)
(9.9941 0.00591832 0)
(9.99435 0.0169339 0)
(9.9976 0.0280728 0)
(10.0031 0.0372093 0)
(10.0092 0.0443156 0)
(10.0152 0.0503942 0)
(10.0206 0.0563615 0)
(10.0255 0.0626757 0)
(10.0301 0.0694214 0)
(10.0347 0.076597 0)
(10.0392 0.0841521 0)
(10.044 0.0921599 0)
(10.049 0.100594 0)
(10.0545 0.109553 0)
(10.0604 0.118845 0)
(10.0669 0.128582 0)
(10.0737 0.138297 0)
(10.0814 0.148343 0)
(10.0023 0.00876079 0)
(10.0046 0.0184004 0)
(10.0079 0.0289674 0)
(10.0124 0.0374271 0)
(10.0178 0.0439307 0)
(10.0233 0.0497775 0)
(10.0284 0.0557851 0)
(10.033 0.0621554 0)
(10.0374 0.068767 0)
(10.0419 0.0755754 0)
(10.0466 0.082602 0)
(10.0514 0.0900083 0)
(10.0565 0.0977882 0)
(10.0618 0.106064 0)
(10.0675 0.114602 0)
(10.0736 0.123565 0)
(10.0801 0.132454 0)
(10.0871 0.141712 0)
(10.0009 0.00151022 0)
(10.0043 0.0124079 0)
(10.008 0.0221266 0)
(10.0125 0.0302346 0)
(10.0178 0.0370302 0)
(10.0235 0.043176 0)
(10.0291 0.0492242 0)
(10.0346 0.0554863 0)
(10.0401 0.0620156 0)
(10.0457 0.068816 0)
(10.0513 0.0758654 0)
(10.0571 0.0832466 0)
(10.063 0.0909102 0)
(10.0691 0.0989254 0)
(10.0755 0.107075 0)
(10.0821 0.115495 0)
(10.0891 0.123751 0)
(10.0966 0.132265 0)
(10.0115 0.00462251 0)
(10.0126 0.015464 0)
(10.0148 0.023317 0)
(10.0186 0.0296079 0)
(10.0237 0.0353898 0)
(10.0295 0.0411203 0)
(10.0352 0.0469236 0)
(10.0407 0.0528238 0)
(10.0462 0.0588273 0)
(10.0518 0.0650169 0)
(10.0577 0.071427 0)
(10.0639 0.0781434 0)
(10.0704 0.0850677 0)
(10.0773 0.0922711 0)
(10.0844 0.0994977 0)
(10.0919 0.106956 0)
(10.0997 0.114178 0)
(10.108 0.121723 0)
(9.99575 -0.000341485 0)
(9.99454 0.00815948 0)
(9.99525 0.0153157 0)
(9.99853 0.0212995 0)
(10.0034 0.0267469 0)
(10.0089 0.0321888 0)
(10.0147 0.0377993 0)
(10.0206 0.0435245 0)
(10.0268 0.049253 0)
(10.0332 0.0550047 0)
(10.0398 0.0608126 0)
(10.0468 0.0668064 0)
(10.0539 0.0729411 0)
(10.0613 0.0793077 0)
(10.0687 0.0856726 0)
(10.0764 0.0921908 0)
(10.084 0.0984404 0)
(10.0922 0.104867 0)
(9.98896 0.0112126 0)
(9.98785 0.0128524 0)
(9.98875 0.0165379 0)
(9.99202 0.0207493 0)
(9.99683 0.0249059 0)
(10.0024 0.0290196 0)
(10.0085 0.0331978 0)
(10.0148 0.0375199 0)
(10.0215 0.0419988 0)
(10.0284 0.0466901 0)
(10.0356 0.0515987 0)
(10.0431 0.0568136 0)
(10.0507 0.0622538 0)
(10.0585 0.0679695 0)
(10.0665 0.0737011 0)
(10.0746 0.0795641 0)
(10.0829 0.0851263 0)
(10.0914 0.090793 0)
(9.99547 0.00094851 0)
(9.99947 0.0029675 0)
(10.0042 0.00562334 0)
(10.0096 0.00855634 0)
(10.0153 0.0116445 0)
(10.0214 0.0148928 0)
(10.0279 0.0182952 0)
(10.0346 0.0218482 0)
(10.0416 0.0255358 0)
(10.0488 0.0293794 0)
(10.0562 0.033344 0)
(10.0638 0.0374476 0)
(10.0716 0.0415946 0)
(10.0796 0.0458348 0)
(10.0879 0.0499956 0)
(10.0963 0.0542389 0)
(10.105 0.0582499 0)
(10.1137 0.0624241 0)
(10.0055 0.000425888 0)
(10.0079 0.00267994 0)
(10.0114 0.00402128 0)
(10.0162 0.00520419 0)
(10.022 0.00681616 0)
(10.0284 0.00896904 0)
(10.0352 0.0114753 0)
(10.0424 0.0141477 0)
(10.0497 0.0169012 0)
(10.0572 0.0197766 0)
(10.065 0.0227987 0)
(10.0729 0.0260008 0)
(10.0812 0.0292869 0)
(10.0896 0.0326511 0)
(10.0981 0.0359228 0)
(10.1067 0.0391971 0)
(10.1154 0.0422292 0)
(10.1242 0.0453276 0)
(10.0023 -0.00302894 0)
(10.0047 -0.00366872 0)
(10.0091 -0.00413712 0)
(10.0155 -0.00422068 0)
(10.023 -0.00360298 0)
(10.0307 -0.00234747 0)
(10.0385 -0.000700198 0)
(10.0465 0.001153 0)
(10.0547 0.00310526 0)
(10.0629 0.00514891 0)
(10.0712 0.00727386 0)
(10.0797 0.00950829 0)
(10.0884 0.0117999 0)
(10.0971 0.0141748 0)
(10.1059 0.0165221 0)
(10.1147 0.0189268 0)
(10.1236 0.0211857 0)
(10.1324 0.0235279 0)
(9.99307 -0.00281256 0)
(9.99461 -0.00705812 0)
(9.99911 -0.00866321 0)
(10.0062 -0.00894711 0)
(10.0143 -0.00872831 0)
(10.0226 -0.0081464 0)
(10.0307 -0.00715039 0)
(10.0387 -0.00578589 0)
(10.0469 -0.00418599 0)
(10.0553 -0.00246146 0)
(10.0637 -0.00068705 0)
(10.0722 0.00114982 0)
(10.0808 0.00302098 0)
(10.0894 0.00496821 0)
(10.0982 0.0068952 0)
(10.1071 0.0088546 0)
(10.1161 0.0106569 0)
(10.1251 0.0124723 0)
(9.98958 -0.00177797 0)
(9.99554 -0.0108265 0)
(10.0029 -0.0156033 0)
(10.0114 -0.0174297 0)
(10.02 -0.0177789 0)
(10.0282 -0.0176028 0)
(10.0362 -0.0172437 0)
(10.0443 -0.0166875 0)
(10.0527 -0.0158715 0)
(10.0613 -0.0148101 0)
(10.07 -0.0136192 0)
(10.0788 -0.0124019 0)
(10.0876 -0.0112465 0)
(10.0964 -0.0101297 0)
(10.1053 -0.00907957 0)
(10.1142 -0.00799004 0)
(10.1231 -0.00695479 0)
(10.1319 -0.00580187 0)
(10.0078 -0.0106726 0)
(10.014 -0.0147524 0)
(10.0227 -0.0195392 0)
(10.0323 -0.021718 0)
(10.0418 -0.0217952 0)
(10.0507 -0.0212961 0)
(10.0592 -0.0209458 0)
(10.0678 -0.0206496 0)
(10.0765 -0.0201611 0)
(10.0854 -0.0193983 0)
(10.0944 -0.0184635 0)
(10.1034 -0.0174601 0)
(10.1124 -0.0164685 0)
(10.1214 -0.0154801 0)
(10.1304 -0.0145279 0)
(10.1392 -0.013555 0)
(10.1479 -0.0126536 0)
(10.1565 -0.0117189 0)
(9.99289 -0.0107231 0)
(9.9957 -0.0224997 0)
(10.0035 -0.028512 0)
(10.0135 -0.0307971 0)
(10.023 -0.0315333 0)
(10.0315 -0.0319451 0)
(10.0396 -0.0322629 0)
(10.0481 -0.0323393 0)
(10.0568 -0.0321119 0)
(10.0657 -0.0316838 0)
(10.0746 -0.0311993 0)
(10.0835 -0.030723 0)
(10.0924 -0.0302742 0)
(10.1013 -0.0298066 0)
(10.1103 -0.02932 0)
(10.1193 -0.028765 0)
(10.1283 -0.0282109 0)
(10.1372 -0.027584 0)
(10.0157 -0.00753316 0)
(10.0266 -0.0241096 0)
(10.0397 -0.0286074 0)
(10.0517 -0.0288947 0)
(10.0616 -0.029184 0)
(10.0701 -0.0301623 0)
(10.0784 -0.0311688 0)
(10.0872 -0.0317308 0)
(10.0963 -0.0318257 0)
(10.1055 -0.0316547 0)
(10.1146 -0.0314069 0)
(10.1235 -0.0311725 0)
(10.1323 -0.0309772 0)
(10.141 -0.030783 0)
(10.1497 -0.0305895 0)
(10.1583 -0.030354 0)
(10.167 -0.0301298 0)
(10.1756 -0.0298625 0)
(10.003 -0.0217693 0)
(10.0185 -0.0368016 0)
(10.034 -0.0420362 0)
(10.0467 -0.0424011 0)
(10.0565 -0.0427231 0)
(10.0652 -0.0437983 0)
(10.0738 -0.0447635 0)
(10.0828 -0.0451653 0)
(10.0922 -0.0451309 0)
(10.1017 -0.0449141 0)
(10.1113 -0.0446812 0)
(10.1208 -0.0444954 0)
(10.1303 -0.0443665 0)
(10.1397 -0.0442775 0)
(10.1489 -0.0442236 0)
(10.158 -0.0441758 0)
(10.1669 -0.0441534 0)
(10.1757 -0.0441082 0)
(10.0138 -0.0199231 0)
(10.0316 -0.0305684 0)
(10.0512 -0.0343513 0)
(10.0661 -0.035262 0)
(10.0768 -0.036511 0)
(10.0863 -0.0381324 0)
(10.0962 -0.0394938 0)
(10.1064 -0.0404499 0)
(10.1168 -0.0411303 0)
(10.127 -0.0416643 0)
(10.1372 -0.0420871 0)
(10.1473 -0.0424402 0)
(10.1572 -0.0427167 0)
(10.167 -0.042964 0)
(10.1766 -0.0431549 0)
(10.1859 -0.0433515 0)
(10.1952 -0.0435251 0)
(10.2041 -0.0437513 0)
(10.0115 -0.0378221 0)
(10.0459 -0.0549191 0)
(10.0768 -0.0530784 0)
(10.0981 -0.052236 0)
(10.1124 -0.0534543 0)
(10.1228 -0.0546815 0)
(10.1307 -0.0553541 0)
(10.1364 -0.0556804 0)
(10.1399 -0.0558607 0)
(10.1415 -0.0560029 0)
(10.1415 -0.0561106 0)
(10.1404 -0.0562167 0)
(10.1382 -0.0562844 0)
(10.1354 -0.0563762 0)
(10.1316 -0.0564368 0)
(10.1276 -0.0565648 0)
(10.1225 -0.0566883 0)
(10.1178 -0.0569495 0)
(9.92013 -0.0297467 0)
(9.75857 -0.046541 0)
(9.59366 -0.0455522 0)
(9.42577 -0.0447595 0)
(9.26056 -0.0449803 0)
(9.10155 -0.0448878 0)
(8.94986 -0.0443425 0)
(8.80546 -0.0436191 0)
(8.66782 -0.0428936 0)
(8.53653 -0.0422263 0)
(8.41108 -0.0416004 0)
(8.29146 -0.0410091 0)
(8.17706 -0.0404183 0)
(8.06826 -0.0398559 0)
(7.96383 -0.0392912 0)
(7.86497 -0.0387829 0)
(7.76917 -0.0382826 0)
(7.67958 -0.0378943 0)
(-0.205492 0.445038 -1.0358e-21)
(-0.515433 0.244003 1.05464e-21)
(-0.673303 0.0597427 0)
(-0.677984 -0.12266 0)
(-0.512823 -0.284511 0)
(-0.230825 -0.400408 -1.02294e-21)
(0.128346 -0.463724 0)
(0.52297 -0.475554 0)
(0.914473 -0.447108 0)
(1.2757 -0.387033 0)
(1.59963 -0.315236 1.07379e-21)
(1.88093 -0.24364 0)
(2.1056 -0.159213 0)
(2.25436 -0.0975042 0)
(2.35052 -0.0537946 0)
(2.40358 -0.0103896 1.34169e-21)
(2.41455 0.0067336 0)
(2.40742 -0.00321637 0)
(2.38124 0.00389585 0)
(2.33467 0.0297514 0)
(2.25499 0.0727868 0)
(2.13189 0.112166 0)
(1.96412 0.137708 0)
(1.77036 0.174711 1.29786e-21)
(1.53299 0.22776 -1.27226e-21)
(1.27013 0.232497 1.25288e-21)
(1.00066 0.209227 1.2426e-21)
(0.718147 0.157648 0)
(0.462651 0.103416 0)
(0.212769 0.13276 -1.25911e-21)
(-0.045716 0.170307 -1.27667e-21)
(-0.310937 0.188539 0)
(-0.577343 0.186638 0)
(-0.825297 0.165339 -1.35633e-21)
(-1.03968 0.131949 0)
(-1.21672 0.0977888 0)
(-1.35312 0.0684228 1.41447e-21)
(-1.46067 0.0517517 0)
(-1.56161 0.0474201 1.4563e-21)
(-1.68404 0.0667289 2.97401e-21)
(-1.85112 0.106518 0)
(-2.05837 0.146296 0)
(-2.30768 0.163435 0)
(-2.54652 0.129577 0)
(-2.74809 0.0926 0)
(-2.90724 0.0295139 3.18849e-21)
(-3.01381 -0.0734172 3.22988e-21)
(-3.11532 -0.0944049 3.26938e-21)
(-3.19998 0.0140487 0)
(-3.33868 0.0730384 -3.26408e-21)
(-3.43274 0.062127 0)
(-3.49927 0.0558198 3.23832e-21)
(-3.54208 0.0468308 3.21203e-21)
(-3.56451 0.0309919 0)
(-3.56219 0.0068747 0)
(-3.54715 -0.0418563 0)
(-3.51722 -0.0342516 3.01229e-21)
(-3.52063 -0.00998981 0)
(-3.50018 -0.0236645 0)
(-3.4608 -0.0380002 0)
(-3.37904 -0.0572584 0)
(-3.29283 -0.115544 0)
(-3.19598 -0.102585 0)
(-3.17312 -0.0345071 0)
(-3.17171 -0.0253811 0)
(-3.16701 -0.0172472 -2.8668e-21)
(-3.17507 -0.0153865 0)
(-3.18162 -0.0117078 0)
(-3.19906 -0.00639082 3.01411e-21)
(-3.22315 0.000775454 3.06284e-21)
(-3.25837 0.00738855 0)
(-3.30589 0.0159092 -3.14633e-21)
(-3.36915 0.0309666 3.19026e-21)
(-3.45388 0.0484265 0)
(-3.56292 0.0606352 -3.30268e-21)
(-3.6942 0.0703264 0)
(-3.84712 0.0782805 0)
(-4.02407 0.0818595 3.44284e-21)
(-4.22339 0.0855966 0)
(-4.44967 0.0840085 -3.43571e-21)
(-4.67465 0.0619049 0)
(-4.86176 0.0460154 3.37927e-21)
(-5.0044 0.0389318 3.33486e-21)
(-5.12214 0.0186265 3.27838e-21)
(-5.18812 -0.0142581 6.41837e-21)
(-5.26636 -0.0263897 -6.28245e-21)
(-5.35384 -0.0191532 0)
(-5.51926 0.0428534 0)
(-5.76776 0.148204 0)
(-6.05227 0.151703 -5.80576e-21)
(-6.23774 0.103657 -5.84303e-21)
(-6.35125 0.0637273 5.89743e-21)
(-6.39993 0.0280719 0)
(-6.39232 -0.00106248 -5.90856e-21)
(-6.33574 -0.026494 -5.83531e-21)
(-6.23628 -0.047793 -5.70604e-21)
(-6.10144 -0.0649146 0)
(-5.93819 -0.0773642 0)
(-5.75482 -0.0850658 0)
(-5.55947 -0.0882857 -4.67115e-21)
(-5.35995 -0.0878961 0)
(-5.16289 -0.0845743 0)
(-4.97242 -0.0795512 3.3668e-21)
(-4.79187 -0.0752678 0)
(-4.60821 -0.0774819 0)
(-4.42715 -0.0908211 1.79034e-21)
(-4.25791 -0.062433 0)
(-4.17309 -0.0210933 0)
(-4.06282 -0.0359463 -4.7993e-22)
(-3.89569 -0.0545085 -2.09392e-22)
(-3.70397 -0.0684982 0)
(-3.47917 -0.0809004 -2.63105e-22)
(-3.23562 -0.0892704 0)
(-2.97328 -0.0960927 7.32297e-22)
(-2.69774 -0.101375 0)
(-2.4105 -0.105523 1.25225e-21)
(-2.113 -0.108788 1.54155e-21)
(-1.80654 -0.111457 0)
(-1.49217 -0.113505 0)
(-1.17068 -0.115017 0)
(-0.843211 -0.116025 0)
(-0.51067 -0.11644 0)
(-0.175068 -0.116179 0)
(0.161227 -0.115132 0)
(0.495845 -0.113123 4.34308e-21)
(0.825873 -0.109906 -4.63926e-21)
(1.14882 -0.105811 0)
(1.46256 -0.101064 0)
(1.76539 -0.0958931 0)
(2.05606 -0.0903864 0)
(2.33354 -0.0846008 -1.08633e-20)
(2.59678 -0.0784636 0)
(2.84465 -0.0719246 1.08661e-20)
(3.07594 -0.0649664 -1.07562e-20)
(3.28921 -0.057815 0)
(3.48323 -0.0513702 0)
(3.65849 -0.0444652 0)
(3.81543 -0.0377453 9.82585e-21)
(3.95404 -0.0312456 9.53278e-21)
(4.07463 -0.0249739 0)
(4.17762 -0.0189273 8.94159e-21)
(4.26338 -0.0131087 8.65659e-21)
(4.33233 -0.00752527 -8.38539e-21)
(4.38489 -0.00218474 0)
(4.42149 0.00292157 0)
(4.4426 0.00778867 -7.68723e-21)
(4.44861 0.0124259 0)
(4.43976 0.0168547 0)
(4.41645 0.0210199 0)
(4.37912 0.0248757 0)
(4.32815 0.0284269 6.97241e-21)
(4.26393 0.0316653 6.89116e-21)
(4.18677 0.0345819 0)
(4.09682 0.0371202 6.77543e-21)
(3.99428 0.0391279 0)
(3.87943 0.0404422 0)
(3.7527 0.0406281 6.66991e-21)
(3.61564 0.0385953 0)
(3.47314 0.0329663 6.59662e-21)
(3.33423 0.0244576 0)
(3.2083 0.0160117 0)
(3.10179 0.0116803 6.47361e-21)
(3.01655 0.0123969 0)
(2.94238 0.0198989 6.41292e-21)
(2.86448 0.0259528 0)
(2.78164 0.0264852 0)
(2.6951 0.0237828 0)
(2.60804 0.0175918 -6.26613e-21)
(2.52865 0.0115202 0)
(2.46096 0.0072754 6.19121e-21)
(2.4028 0.00554804 0)
(2.35142 0.00707784 0)
(2.29986 0.0117881 0)
(2.23661 0.0158356 0)
(2.16288 0.0181155 0)
(2.07249 0.0156747 0)
(1.99377 0.0204563 0)
(1.86381 0.017496 -1.20584e-20)
(1.81157 0.0403902 0)
(1.53893 0.0147973 0)
(-0.00896138 0.944587 3.19429e-21)
(-0.000740388 0.672379 -3.23648e-21)
(0.0704046 0.242615 0)
(0.266901 -0.209588 2.26528e-21)
(0.542206 -0.653424 0)
(0.879963 -0.977306 1.02019e-21)
(1.22858 -1.14558 -2.27892e-21)
(1.55443 -1.18211 -2.30477e-21)
(1.84172 -1.12477 0)
(2.07914 -1.02157 -2.4497e-21)
(2.27422 -0.914962 -1.0711e-21)
(2.41146 -0.776196 0)
(2.513 -0.576222 0)
(2.59685 -0.384577 0)
(2.65091 -0.244147 0)
(2.66531 -0.125118 -1.33942e-21)
(2.64754 -0.0212575 0)
(2.6002 0.0603302 3.00334e-21)
(2.52274 0.123199 0)
(2.42472 0.183767 0)
(2.29949 0.283685 -2.95489e-21)
(2.15032 0.399156 0)
(1.97426 0.491786 2.86788e-21)
(1.78501 0.571441 -1.29424e-21)
(1.58946 0.627373 1.26814e-21)
(1.37321 0.660883 -1.24838e-21)
(1.12764 0.709087 -1.23779e-21)
(0.841497 0.742513 0)
(0.520386 0.738757 0)
(0.168673 0.710411 1.25494e-21)
(-0.169024 0.67891 -1.47781e-21)
(-0.469928 0.649381 0)
(-0.747094 0.616584 0)
(-0.981906 0.554003 1.35344e-21)
(-1.18881 0.463873 0)
(-1.36823 0.364918 0)
(-1.52004 0.265968 -1.41085e-21)
(-1.66383 0.215155 0)
(-1.82203 0.252982 1.73986e-21)
(-1.99886 0.350517 -2.96611e-21)
(-2.18368 0.443355 0)
(-2.36575 0.50998 0)
(-2.54296 0.524472 -6.6796e-21)
(-2.72668 0.46314 -6.70072e-21)
(-2.92554 0.407423 -6.76157e-21)
(-3.09322 0.33975 3.65417e-21)
(-3.28675 0.343798 -3.22472e-21)
(-3.4987 0.33346 -1.02689e-20)
(-3.62213 0.280527 7.05418e-21)
(-3.72634 0.212302 3.25757e-21)
(-3.77774 0.131393 0)
(-3.80887 0.0698405 -3.23209e-21)
(-3.79958 0.0105268 3.75216e-21)
(-3.77856 -0.0376107 0)
(-3.74316 -0.0594544 0)
(-3.73544 -0.0444017 0)
(-3.71463 -0.0345651 -3.00915e-21)
(-3.6903 -0.0507657 0)
(-3.63756 -0.0902703 6.25269e-21)
(-3.5821 -0.146102 0)
(-3.50782 -0.188701 6.10006e-21)
(-3.5116 -0.128804 0)
(-3.52614 -0.0652112 -6.07285e-21)
(-3.53945 -0.0294274 0)
(-3.55054 -0.0186581 6.14959e-21)
(-3.5585 -0.00246816 -3.37358e-21)
(-3.57102 0.00874185 0)
(-3.58137 0.0227753 -6.46485e-21)
(-3.59775 0.0365783 -3.01238e-21)
(-3.61838 0.0522091 -3.06083e-21)
(-3.64856 0.0681219 0)
(-3.69139 0.0866277 -3.67599e-21)
(-3.73606 0.10816 -3.18744e-21)
(-3.7921 0.140562 0)
(-3.86254 0.183837 3.30023e-21)
(-3.95243 0.226035 -7.1965e-21)
(-4.06872 0.269132 0)
(-4.21738 0.315363 -3.44091e-21)
(-4.39643 0.355277 0)
(-4.6028 0.377123 1.06654e-20)
(-4.83127 0.356184 0)
(-5.06812 0.290561 -1.04186e-20)
(-5.26674 0.219375 -3.33273e-21)
(-5.4362 0.162835 3.51317e-21)
(-5.59251 0.145939 6.8713e-21)
(-5.80466 0.191067 -6.74595e-21)
(-6.02733 0.268953 0)
(-6.30661 0.366938 0)
(-6.48361 0.35634 0)
(-6.60596 0.27398 1.82702e-20)
(-6.65355 0.172966 5.83965e-21)
(-6.66084 0.0806136 -5.89381e-21)
(-6.62041 -0.00316203 0)
(-6.54547 -0.0754688 -6.45945e-21)
(-6.43645 -0.138118 5.83337e-21)
(-6.30038 -0.189808 5.70496e-21)
(-6.14034 -0.230606 0)
(-5.96209 -0.259883 0)
(-5.7703 -0.277596 0)
(-5.57058 -0.28438 4.6726e-21)
(-5.36815 -0.282286 0)
(-5.16775 -0.274145 -8.03725e-21)
(-4.97213 -0.263634 -1.04466e-20)
(-4.78678 -0.258437 6.04732e-21)
(-4.61315 -0.253032 0)
(-4.48681 -0.211236 2.16548e-21)
(-4.35293 -0.168506 0)
(-4.19006 -0.17714 2.14331e-21)
(-3.97102 -0.222371 -9.77644e-22)
(-3.72596 -0.259678 -6.56876e-22)
(-3.46257 -0.291669 0)
(-3.182 -0.316125 4.47493e-22)
(-2.89274 -0.333965 -6.83542e-22)
(-2.59399 -0.347446 -7.32414e-22)
(-2.28992 -0.357786 0)
(-1.97964 -0.36606 -1.25049e-21)
(-1.66443 -0.372837 -4.40415e-21)
(-1.34322 -0.378667 0)
(-1.01592 -0.383764 -4.17894e-21)
(-0.682379 -0.38796 -4.89511e-21)
(-0.342584 -0.390903 -5.64055e-21)
(0.00225758 -0.392136 0)
(0.350524 -0.391563 0)
(0.699536 -0.388108 0)
(1.04716 -0.38161 4.21944e-21)
(1.3903 -0.371988 4.6346e-21)
(1.72631 -0.35968 0)
(2.05312 -0.345431 1.01003e-20)
(2.36925 -0.32993 1.04229e-20)
(2.67363 -0.313541 0)
(2.96535 -0.296364 1.08539e-20)
(3.24349 -0.278179 2.16587e-20)
(3.5069 -0.258765 -1.08571e-20)
(3.75444 -0.238138 -1.06328e-20)
(3.9845 -0.217699 0)
(4.19595 -0.197403 0)
(4.38984 -0.177072 0)
(4.56634 -0.157356 -9.81617e-21)
(4.72574 -0.138366 9.43995e-21)
(4.86849 -0.120109 1.83745e-20)
(4.99504 -0.102575 -8.93317e-21)
(5.10591 -0.0857368 8.57598e-21)
(5.20156 -0.0695897 8.37755e-21)
(5.28248 -0.054146 0)
(5.34921 -0.0394072 0)
(5.40236 -0.0253546 -7.61394e-21)
(5.4427 -0.0119105 0)
(5.47117 0.000989205 0)
(5.48853 0.0133713 1.43025e-20)
(5.49541 0.0251967 0)
(5.49231 0.0365199 6.8942e-21)
(5.47946 0.0474507 -6.88251e-21)
(5.45693 0.0581125 0)
(5.42456 0.0686424 6.6847e-21)
(5.38193 0.0790573 0)
(5.32848 0.0892584 0)
(5.26377 0.0988563 -6.66033e-21)
(5.18696 0.106835 1.31458e-20)
(5.09714 0.111006 -6.58707e-21)
(4.99386 0.109381 0)
(4.87688 0.100552 0)
(4.74621 0.0859472 6.37861e-21)
(4.6054 0.0693046 0)
(4.47186 0.0566516 6.325e-21)
(4.36415 0.0531876 0)
(4.28357 0.0556013 0)
(4.22199 0.0599754 0)
(4.1624 0.0617913 6.25752e-21)
(4.09813 0.0581987 0)
(4.03198 0.0511762 -6.18258e-21)
(3.96878 0.0447613 0)
(3.90847 0.0395364 0)
(3.85863 0.0405743 1.21364e-20)
(3.8125 0.0447903 -1.2096e-20)
(3.7749 0.054867 0)
(3.71994 0.0577126 0)
(3.67495 0.0709477 0)
(3.5762 0.0645868 3.60184e-20)
(3.53107 0.0969319 0)
(3.34432 0.0806952 -2.39023e-20)
(0.0778608 0.593421 -3.73559e-23)
(0.31972 0.216636 4.3107e-21)
(0.667774 -0.391214 0)
(1.07514 -0.990328 -4.55309e-21)
(1.47051 -1.45774 0)
(1.80337 -1.731 0)
(2.05788 -1.80355 -3.36145e-22)
(2.24146 -1.71768 2.30074e-21)
(2.36464 -1.51848 2.81991e-21)
(2.43868 -1.25485 2.44797e-21)
(2.46504 -0.97843 0)
(2.44086 -0.716837 0)
(2.37263 -0.512984 -3.17563e-21)
(2.30955 -0.364255 -6.46386e-21)
(2.24809 -0.188963 6.53942e-21)
(2.18393 -0.00577008 0)
(2.11018 0.129896 6.60808e-21)
(2.01992 0.237759 -3.00506e-21)
(1.91322 0.328792 0)
(1.77688 0.454058 6.53322e-21)
(1.62899 0.58413 2.95424e-21)
(1.48165 0.694675 -6.40249e-21)
(1.32876 0.792175 -2.86564e-21)
(1.17349 0.872556 0)
(1.00726 0.946677 6.14608e-21)
(0.81094 1.04154 6.0693e-21)
(0.597255 1.13134 0)
(0.359701 1.21446 5.96044e-21)
(0.100311 1.27088 0)
(-0.178878 1.28402 5.95032e-21)
(-0.474344 1.24713 2.74148e-21)
(-0.75769 1.17067 0)
(-1.02178 1.06148 0)
(-1.25118 0.925622 0)
(-1.46425 0.792996 0)
(-1.65717 0.664865 0)
(-1.85936 0.581897 0)
(-2.06804 0.556338 6.77612e-21)
(-2.27926 0.587699 -1.0116e-20)
(-2.48975 0.65515 0)
(-2.67581 0.711564 0)
(-2.85563 0.729724 0)
(-2.99355 0.747991 -5.87933e-22)
(-3.14708 0.719444 6.68956e-21)
(-3.28315 0.660237 1.4078e-20)
(-3.41256 0.595767 -1.42353e-20)
(-3.52996 0.530999 -7.49503e-21)
(-3.62425 0.454943 6.9972e-21)
(-3.67411 0.375982 6.07066e-22)
(-3.71053 0.290365 7.69078e-21)
(-3.72212 0.199169 0)
(-3.72993 0.109494 7.65118e-21)
(-3.7243 0.0321989 6.14662e-22)
(-3.73271 -0.0125873 0)
(-3.73516 -0.0348746 0)
(-3.72828 -0.0484729 -7.21034e-21)
(-3.69652 -0.0721422 0)
(-3.66281 -0.10366 0)
(-3.62224 -0.148525 7.33174e-21)
(-3.60004 -0.177412 1.3354e-20)
(-3.63131 -0.136868 -6.10147e-21)
(-3.69388 -0.0738911 0)
(-3.73511 -0.0305236 6.07257e-21)
(-3.76683 -0.0085603 0)
(-3.791 -5.39001e-05 7.40133e-21)
(-3.80389 0.00893918 6.23591e-21)
(-3.80795 0.0131516 -1.40736e-20)
(-3.80437 0.0230955 -7.88273e-21)
(-3.79937 0.0423312 0)
(-3.79841 0.06835 1.47775e-20)
(-3.80624 0.0943201 0)
(-3.82365 0.118952 2.18705e-20)
(-3.84623 0.149602 1.51848e-20)
(-3.87911 0.195326 1.53387e-20)
(-3.92002 0.246608 -1.54936e-20)
(-3.98097 0.310614 2.28307e-20)
(-4.06986 0.394607 0)
(-4.18302 0.479178 0)
(-4.32093 0.542091 -1.55698e-20)
(-4.47994 0.584257 -2.26053e-20)
(-4.66143 0.590606 0)
(-4.87928 0.540507 7.04853e-21)
(-5.10293 0.458445 0)
(-5.32864 0.388279 -2.10108e-20)
(-5.57 0.391213 6.50056e-22)
(-5.81143 0.441466 -7.16938e-22)
(-6.04491 0.523544 1.36465e-20)
(-6.19977 0.527459 0)
(-6.24803 0.43525 -1.35533e-20)
(-6.26054 0.30673 1.04754e-21)
(-6.23742 0.171562 0)
(-6.20153 0.0455847 0)
(-6.14198 -0.0682995 0)
(-6.06624 -0.166638 1.23768e-20)
(-5.96846 -0.251698 0)
(-5.85243 -0.32296 0)
(-5.71713 -0.37984 0)
(-5.56626 -0.42106 0)
(-5.40174 -0.446473 0)
(-5.22734 -0.456723 1.01554e-20)
(-5.04643 -0.454435 0)
(-4.8636 -0.443591 8.04758e-21)
(-4.68238 -0.427413 7.08683e-21)
(-4.51268 -0.40325 -6.05441e-21)
(-4.36371 -0.365281 0)
(-4.21839 -0.329605 -3.95938e-21)
(-4.03061 -0.328719 0)
(-3.79472 -0.37591 -2.14408e-21)
(-3.53325 -0.435124 1.45653e-21)
(-3.27042 -0.482471 3.79528e-21)
(-2.99742 -0.522545 0)
(-2.7193 -0.551752 4.44126e-22)
(-2.43408 -0.573434 2.18677e-22)
(-2.14252 -0.589599 0)
(-1.84534 -0.601868 -2.65645e-21)
(-1.542 -0.611856 -3.81599e-21)
(-1.23267 -0.620543 7.9031e-21)
(-0.916875 -0.628724 0)
(-0.594535 -0.636464 4.1744e-21)
(-0.265343 -0.643301 4.89102e-21)
(0.0702431 -0.64832 1.63537e-20)
(0.411278 -0.650839 0)
(0.755948 -0.649761 0)
(1.10206 -0.643911 0)
(1.44663 -0.632872 8.15128e-21)
(1.78634 -0.61663 0)
(2.11803 -0.595837 0)
(2.43942 -0.571808 -1.00934e-20)
(2.74913 -0.54583 -1.04163e-20)
(3.04644 -0.518684 0)
(3.33078 -0.49045 0)
(3.60145 -0.460656 -2.16473e-20)
(3.8575 -0.428865 0)
(4.09758 -0.395303 2.13664e-20)
(4.3203 -0.361776 2.08409e-20)
(4.52483 -0.327823 0)
(4.71182 -0.29443 0)
(4.88148 -0.262152 -1.93781e-20)
(5.03429 -0.231181 -1.4317e-22)
(5.17074 -0.201536 -1.35154e-22)
(5.29138 -0.173186 0)
(5.39674 -0.1461 -3.43094e-20)
(5.48734 -0.120275 0)
(5.56377 -0.0957407 0)
(5.62667 -0.0725294 0)
(5.67679 -0.0507066 1.52883e-20)
(5.71492 -0.0303332 0)
(5.742 -0.0115011 -2.89566e-20)
(5.75919 0.00592493 -1.4298e-20)
(5.76792 0.022305 0)
(5.76945 0.0378054 -1.38536e-20)
(5.76462 0.0525988 0)
(5.75385 0.0669555 0)
(5.73743 0.0811911 -4.01112e-20)
(5.71549 0.0954718 2.64826e-20)
(5.68788 0.109713 0)
(5.65433 0.123495 2.61802e-20)
(5.61438 0.135998 -1.31395e-20)
(5.56679 0.145748 0)
(5.50967 0.15163 0)
(5.44042 0.153434 0)
(5.35731 0.152104 -3.82907e-20)
(5.25756 0.14874 0)
(5.13922 0.139436 -1.27222e-20)
(5.00777 0.121202 0)
(4.87408 0.101325 0)
(4.75733 0.0881314 0)
(4.66929 0.0829158 0)
(4.598 0.0790745 0)
(4.5276 0.0724455 0)
(4.45823 0.0666535 -2.42628e-20)
(4.39019 0.0616535 0)
(4.33052 0.0595746 -1.21301e-20)
(4.27543 0.0576133 3.60974e-20)
(4.23864 0.0627961 0)
(4.20015 0.0651051 0)
(4.18201 0.0829894 -2.38553e-20)
(4.13222 0.0892176 -2.39644e-20)
(4.11257 0.127184 2.37806e-20)
(4.00878 0.127324 2.38888e-20)
(0.0747845 0.0455907 -6.42595e-21)
(0.500715 -0.659251 -6.50212e-21)
(1.00441 -1.40934 -4.59494e-21)
(1.4369 -1.91202 -2.6214e-21)
(1.76084 -2.18721 0)
(1.96092 -2.21927 5.61575e-21)
(2.0572 -2.0625 -3.33352e-21)
(2.08852 -1.80555 0)
(2.07647 -1.49888 -2.82189e-21)
(2.04939 -1.17218 0)
(2.00851 -0.857706 6.92993e-21)
(1.95676 -0.560591 0)
(1.88193 -0.29811 3.18049e-21)
(1.78361 -0.0987376 6.47365e-21)
(1.65298 0.0401852 -6.5485e-21)
(1.53162 0.174595 0)
(1.42122 0.324792 -6.61473e-21)
(1.30075 0.451602 0)
(1.16269 0.579712 0)
(1.00911 0.717659 -6.53484e-21)
(0.859556 0.841154 0)
(0.704854 0.958272 -6.68789e-22)
(0.546843 1.06253 0)
(0.378588 1.16582 0)
(0.191746 1.28286 7.22111e-22)
(-0.00400143 1.39786 -6.06248e-21)
(-0.20635 1.50706 -6.74503e-21)
(-0.410923 1.60034 -5.95034e-21)
(-0.61693 1.66523 0)
(-0.825409 1.69223 -1.25787e-20)
(-1.04444 1.6664 0)
(-1.26721 1.58117 -6.64805e-21)
(-1.49138 1.45097 0)
(-1.70786 1.2988 0)
(-1.92203 1.15115 6.83536e-21)
(-2.1378 1.02687 0)
(-2.36793 0.950582 -7.07914e-21)
(-2.59326 0.920472 4.83741e-22)
(-2.8142 0.943353 1.43614e-20)
(-3.02393 0.991301 -1.52216e-20)
(-3.21068 1.02566 0)
(-3.36821 1.00681 0)
(-3.48826 0.962021 -8.5149e-21)
(-3.58513 0.88294 0)
(-3.65818 0.80026 -7.31726e-21)
(-3.71708 0.724578 7.39947e-21)
(-3.75071 0.632113 7.48765e-21)
(-3.76425 0.525147 0)
(-3.7612 0.413465 -7.65115e-21)
(-3.75387 0.298404 -7.68828e-21)
(-3.74196 0.18813 1.67794e-20)
(-3.74058 0.0955788 -7.65046e-21)
(-3.74869 0.0312161 -7.57231e-21)
(-3.76987 -0.014445 0)
(-3.78026 -0.0559206 0)
(-3.78066 -0.090441 7.21068e-21)
(-3.7715 -0.120141 0)
(-3.77215 -0.144019 0)
(-3.77801 -0.166253 -1.35848e-20)
(-3.82315 -0.137506 -1.3351e-20)
(-3.90989 -0.0665654 0)
(-3.99408 -0.0114588 0)
(-4.04608 0.0209909 0)
(-4.09253 0.0376429 0)
(-4.12664 0.032258 -1.35385e-20)
(-4.13933 0.0208722 1.52319e-20)
(-4.13403 0.00981868 1.40663e-20)
(-4.11736 0.0128471 3.01774e-20)
(-4.097 0.0336941 0)
(-4.07336 0.0644134 1.51922e-21)
(-4.05115 0.0918494 0)
(-4.03229 0.116899 -1.50498e-20)
(-4.02044 0.154149 1.45196e-21)
(-4.01949 0.210293 -1.53502e-20)
(-4.03138 0.291816 1.5508e-20)
(-4.05938 0.387805 1.2464e-21)
(-4.09571 0.482085 0)
(-4.14898 0.580304 1.68045e-20)
(-4.23128 0.668454 1.55886e-20)
(-4.34435 0.738956 3.17099e-20)
(-4.48407 0.778503 0)
(-4.66446 0.759473 -1.56135e-20)
(-4.86951 0.698283 0)
(-5.09431 0.646501 2.92353e-20)
(-5.32032 0.638366 -1.39584e-20)
(-5.53236 0.663042 1.37642e-20)
(-5.68368 0.663207 -1.36593e-20)