/*--------------------------------*- C++ -*----------------------------------*\
  =========                 |
  \\      /  F ield         | OpenFOAM: The Open Source CFD Toolbox
   \\    /   O peration     | Website:  https://openfoam.org
    \\  /    A nd           | Version:  9
     \\/     M anipulation  |
\*---------------------------------------------------------------------------*/
FoamFile
{
    format      ascii;
    class       surfaceScalarField;
    location    "0.021";
    object      phi;
}
// * * * * * * * * * * * * * * * * * * * * * * * * * * * * * * * * * * * * * //

dimensions      [0 3 -1 0 0 0 0];

internalField   nonuniform List<scalar> 
24170
(
3.11157e-06
8.7986e-08
2.99603e-06
1.15545e-07
2.89886e-06
9.7168e-08
2.81453e-06
8.43269e-08
2.72303e-06
9.15033e-08
2.62255e-06
1.00481e-07
2.52327e-06
9.92829e-08
2.43355e-06
8.972e-08
2.35208e-06
8.14659e-08
2.27103e-06
8.10503e-08
2.18416e-06
8.68648e-08
2.09133e-06
9.28348e-08
1.99589e-06
9.54353e-08
1.89543e-06
1.00461e-07
1.78952e-06
1.05909e-07
1.67185e-06
1.17669e-07
1.52587e-06
1.45985e-07
1.74812e-07
1.35106e-06
3.40419e-06
1.05018e-07
3.42683e-06
9.29088e-08
3.43567e-06
8.83227e-08
3.45477e-06
6.52306e-08
3.48475e-06
6.15268e-08
3.49941e-06
8.58157e-08
3.47929e-06
1.19406e-07
3.4322e-06
1.36813e-07
3.37989e-06
1.33776e-07
3.33808e-06
1.22858e-07
3.30989e-06
1.15051e-07
3.28971e-06
1.1302e-07
3.27191e-06
1.13235e-07
3.24908e-06
1.23284e-07
3.21596e-06
1.39032e-07
3.16563e-06
1.68003e-07
3.09659e-06
2.15025e-07
2.65623e-07
3.00578e-06
3.8208e-06
1.22378e-07
3.72955e-06
1.84164e-07
3.65893e-06
1.58938e-07
3.62989e-06
9.42753e-08
3.63926e-06
5.21564e-08
3.67026e-06
5.48132e-08
3.70133e-06
8.83373e-08
3.71708e-06
1.21063e-07
3.71309e-06
1.37761e-07
3.69421e-06
1.41742e-07
3.66893e-06
1.40333e-07
3.64411e-06
1.37833e-07
3.62261e-06
1.34733e-07
3.60667e-06
1.39225e-07
3.59242e-06
1.53284e-07
3.57945e-06
1.80971e-07
3.56852e-06
2.25962e-07
2.75488e-07
3.55865e-06
3.93711e-06
1.69628e-07
3.90374e-06
2.17538e-07
3.91617e-06
1.46512e-07
3.94683e-06
6.36114e-08
3.97089e-06
2.80965e-08
3.97502e-06
5.06836e-08
3.9651e-06
9.8259e-08
3.95376e-06
1.32399e-07
3.9483e-06
1.43222e-07
3.94799e-06
1.42056e-07
3.94744e-06
1.40885e-07
3.94141e-06
1.43858e-07
3.92769e-06
1.48456e-07
3.90961e-06
1.57299e-07
3.89041e-06
1.72484e-07
3.8753e-06
1.96086e-07
3.87074e-06
2.3052e-07
2.70396e-07
3.87583e-06
4.30431e-06
7.25592e-08
4.33973e-06
1.82114e-07
4.35419e-06
1.32051e-07
4.34826e-06
6.95423e-08
4.32497e-06
5.13913e-08
4.28781e-06
8.78452e-08
4.24573e-06
1.40338e-07
4.20978e-06
1.68348e-07
4.18646e-06
1.66541e-07
4.17621e-06
1.52302e-07
4.17513e-06
1.41964e-07
4.17729e-06
1.41702e-07
4.17702e-06
1.48729e-07
4.17214e-06
1.62173e-07
4.16278e-06
1.81847e-07
4.15186e-06
2.07005e-07
4.1447e-06
2.37685e-07
2.70564e-07
4.14453e-06
4.51533e-06
2.04062e-07
4.50116e-06
1.96286e-07
4.50211e-06
1.311e-07
4.49712e-06
7.45321e-08
4.50137e-06
4.71469e-08
4.51722e-06
7.19928e-08
4.53552e-06
1.2204e-07
4.54384e-06
1.60024e-07
4.53599e-06
1.74393e-07
4.5146e-06
1.73688e-07
4.48817e-06
1.68395e-07
4.46516e-06
1.64708e-07
4.44967e-06
1.64224e-07
4.4426e-06
1.6924e-07
4.44221e-06
1.82244e-07
4.44635e-06
2.02858e-07
4.45405e-06
2.29989e-07
2.59952e-07
4.46466e-06
4.89179e-06
1.3183e-07
4.90557e-06
1.82511e-07
4.87362e-06
1.63043e-07
4.83979e-06
1.08365e-07
4.80708e-06
7.98553e-08
4.78578e-06
9.32901e-08
4.78138e-06
1.26443e-07
4.78874e-06
1.52669e-07
4.80084e-06
1.62295e-07
4.81334e-06
1.61184e-07
4.82364e-06
1.58092e-07
4.82926e-06
1.59085e-07
4.82741e-06
1.66079e-07
4.81723e-06
1.79419e-07
4.80095e-06
1.98519e-07
4.78251e-06
2.213e-07
4.76728e-06
2.45223e-07
2.6834e-07
4.75889e-06
5.28921e-06
-2.21389e-08
5.32838e-06
1.43339e-07
5.27131e-06
2.20119e-07
5.17123e-06
2.08444e-07
5.08589e-06
1.65194e-07
5.04704e-06
1.32142e-07
5.04967e-06
1.23803e-07
5.07301e-06
1.29336e-07
5.10052e-06
1.34787e-07
5.12462e-06
1.37078e-07
5.14288e-06
1.39837e-07
5.15428e-06
1.47679e-07
5.15788e-06
1.6248e-07
5.15387e-06
1.83427e-07
5.14412e-06
2.08278e-07
5.13185e-06
2.33562e-07
5.12061e-06
2.56465e-07
2.75671e-07
5.11328e-06
5.58791e-06
-5.82531e-08
5.59721e-06
1.34035e-07
5.61062e-06
2.06718e-07
5.60039e-06
2.18673e-07
5.58841e-06
1.7717e-07
5.58173e-06
1.38827e-07
5.57585e-06
1.29683e-07
5.56598e-06
1.39205e-07
5.55218e-06
1.48581e-07
5.53829e-06
1.50967e-07
5.52835e-06
1.49785e-07
5.5241e-06
1.51925e-07
5.5248e-06
1.61779e-07
5.52812e-06
1.80108e-07
5.53175e-06
2.04646e-07
5.53459e-06
2.30725e-07
5.53611e-06
2.54944e-07
2.74502e-07
5.53728e-06
6.01713e-06
-3.08186e-08
6.02787e-06
1.23299e-07
6.03637e-06
1.98214e-07
6.05264e-06
2.02404e-07
6.04516e-06
1.84651e-07
6.01919e-06
1.64792e-07
5.99554e-06
1.53336e-07
5.97929e-06
1.55452e-07
5.96233e-06
1.65546e-07
5.93819e-06
1.75102e-07
5.90872e-06
1.79259e-07
5.88111e-06
1.79532e-07
5.86243e-06
1.80462e-07
5.85522e-06
1.8732e-07
5.85758e-06
2.02287e-07
5.86502e-06
2.23284e-07
5.87274e-06
2.47221e-07
2.70243e-07
5.877e-06
6.40574e-06
6.71679e-08
6.33107e-06
1.97973e-07
6.30947e-06
2.19817e-07
6.31301e-06
1.98864e-07
6.31759e-06
1.80063e-07
6.32519e-06
1.57201e-07
6.34217e-06
1.36354e-07
6.364e-06
1.33623e-07
6.37845e-06
1.51095e-07
6.37746e-06
1.76094e-07
6.36291e-06
1.93809e-07
6.34424e-06
1.98199e-07
6.33085e-06
1.93847e-07
6.32759e-06
1.90584e-07
6.33287e-06
1.97003e-07
6.3416e-06
2.14562e-07
6.34787e-06
2.40948e-07
2.7025e-07
6.34786e-06
5.79501e-06
1.90495e-07
5.70911e-06
2.83867e-07
5.6762e-06
2.52727e-07
5.677e-06
1.98068e-07
5.67931e-06
1.77755e-07
5.67365e-06
1.62858e-07
5.67144e-06
1.38566e-07
5.68438e-06
1.2068e-07
5.71292e-06
1.22556e-07
5.74859e-06
1.40425e-07
5.78047e-06
1.61924e-07
5.80053e-06
1.78143e-07
5.80553e-06
1.88845e-07
5.79793e-06
1.9819e-07
5.78446e-06
2.10474e-07
5.77128e-06
2.27736e-07
5.76451e-06
2.47724e-07
2.69454e-07
5.7653e-06
6.94151e-06
1.73077e-07
6.9578e-06
2.67577e-07
6.99191e-06
2.18621e-07
7.01921e-06
1.70768e-07
7.03091e-06
1.66049e-07
7.025e-06
1.68768e-07
7.00799e-06
1.55584e-07
6.99225e-06
1.36412e-07
6.98785e-06
1.26962e-07
6.99434e-06
1.33936e-07
7.00115e-06
1.55106e-07
6.99582e-06
1.83478e-07
6.97351e-06
2.1115e-07
6.93886e-06
2.32848e-07
6.90382e-06
2.45513e-07
6.87918e-06
2.52374e-07
6.8728e-06
2.54105e-07
2.57242e-07
6.88501e-06
8.56206e-06
-2.85489e-08
8.63212e-06
1.97523e-07
8.60087e-06
2.49869e-07
8.56902e-06
2.02613e-07
8.56658e-06
1.68499e-07
8.5763e-06
1.59046e-07
8.57494e-06
1.56937e-07
8.55693e-06
1.54429e-07
8.5296e-06
1.54287e-07
8.50076e-06
1.6278e-07
8.47444e-06
1.81427e-07
8.4524e-06
2.05512e-07
8.43627e-06
2.27278e-07
8.42681e-06
2.42316e-07
8.42361e-06
2.48712e-07
8.4261e-06
2.49888e-07
8.4322e-06
2.47997e-07
2.46016e-07
8.44343e-06
1.03839e-05
-6.5379e-08
1.03659e-05
2.15596e-07
1.03301e-05
2.8559e-07
1.03044e-05
2.28384e-07
1.03106e-05
1.6228e-07
1.03468e-05
1.22808e-07
1.03926e-05
1.11143e-07
1.04313e-05
1.15724e-07
1.04599e-05
1.25693e-07
1.04788e-05
1.43926e-07
1.0488e-05
1.72236e-07
1.04871e-05
2.06428e-07
1.04763e-05
2.38055e-07
1.04572e-05
2.61433e-07
1.04334e-05
2.72493e-07
1.04099e-05
2.73389e-07
1.03919e-05
2.65952e-07
2.55007e-07
1.03829e-05
1.25504e-05
2.41019e-08
1.26224e-05
1.43653e-07
1.26846e-05
2.23372e-07
1.26997e-05
2.13281e-07
1.26903e-05
1.71636e-07
1.26891e-05
1.24067e-07
1.2716e-05
8.42216e-08
1.27625e-05
6.92209e-08
1.28002e-05
8.80099e-08
1.28062e-05
1.3787e-07
1.27782e-05
2.00277e-07
1.27293e-05
2.55306e-07
1.26777e-05
2.89678e-07
1.26384e-05
3.00759e-07
1.26186e-05
2.9229e-07
1.26195e-05
2.72483e-07
1.26376e-05
2.47808e-07
2.25004e-07
1.26676e-05
1.55956e-05
-5.09668e-08
1.56032e-05
1.36079e-07
1.56403e-05
1.86319e-07
1.56405e-05
2.13e-07
1.55531e-05
2.5909e-07
1.54004e-05
2.76804e-07
1.52493e-05
2.35282e-07
1.51585e-05
1.60049e-07
1.51517e-05
9.48001e-08
1.52221e-05
6.74068e-08
1.53421e-05
8.02821e-08
1.54789e-05
1.18569e-07
1.56061e-05
1.6246e-07
1.57096e-05
1.97215e-07
1.57859e-05
2.16052e-07
1.58388e-05
2.19542e-07
1.58745e-05
2.12118e-07
1.99159e-07
1.59003e-05
1.84849e-05
2.58799e-08
1.85048e-05
1.16154e-07
1.85796e-05
1.11552e-07
1.86445e-05
1.48092e-07
1.8714e-05
1.89565e-07
1.87638e-05
2.26976e-07
1.87741e-05
2.25033e-07
1.87566e-05
1.77501e-07
1.87445e-05
1.06941e-07
1.87662e-05
4.57095e-08
1.8835e-05
1.1446e-08
1.8945e-05
8.53358e-09
1.90772e-05
3.027e-08
1.92072e-05
6.72685e-08
1.93146e-05
1.08612e-07
1.9389e-05
1.45193e-07
1.94284e-05
1.72688e-07
1.86354e-07
1.94412e-05
2.32971e-05
1.8123e-07
2.30272e-05
3.86078e-07
2.28481e-05
2.90598e-07
2.28612e-05
1.35008e-07
2.30335e-05
1.72425e-08
2.32746e-05
-1.4033e-08
2.34788e-05
2.07427e-08
2.35746e-05
8.17786e-08
2.35516e-05
1.29934e-07
2.34452e-05
1.52112e-07
2.33097e-05
1.46892e-07
2.31957e-05
1.22506e-07
2.31323e-05
9.37383e-08
2.31255e-05
7.408e-08
2.31635e-05
7.05585e-08
2.32271e-05
8.1588e-08
2.32976e-05
1.02244e-07
1.2617e-07
2.33578e-05
1.64742e-05
3.01534e-07
1.65199e-05
3.40383e-07
1.66185e-05
1.92058e-07
1.67129e-05
4.05608e-08
1.67803e-05
-5.00875e-08
1.68293e-05
-6.30973e-08
1.68711e-05
-2.10022e-08
1.69097e-05
4.31347e-08
1.6943e-05
9.66535e-08
1.69604e-05
1.34721e-07
1.69529e-05
1.54397e-07
1.6921e-05
1.54387e-07
1.68767e-05
1.38071e-07
1.68385e-05
1.12224e-07
1.68233e-05
8.57391e-08
1.68386e-05
6.62745e-08
1.68841e-05
5.67528e-08
6.00366e-08
1.69503e-05
1.44297e-05
3.83388e-07
1.46177e-05
1.52453e-07
1.4781e-05
2.86875e-08
1.47784e-05
4.31513e-08
1.46611e-05
6.72269e-08
1.45368e-05
6.12852e-08
1.44854e-05
3.03734e-08
1.45323e-05
-3.83391e-09
1.46439e-05
-1.49265e-08
1.47747e-05
3.94166e-09
1.48853e-05
4.38324e-08
1.49533e-05
8.63959e-08
1.49757e-05
1.15659e-07
1.49645e-05
1.23363e-07
1.4939e-05
1.11259e-07
1.49163e-05
8.90334e-08
1.49078e-05
6.52511e-08
5.01583e-08
1.49176e-05
1.25458e-05
1.56396e-07
1.27027e-05
-4.47826e-09
1.27221e-05
9.30639e-09
1.26863e-05
7.9008e-08
1.26787e-05
7.47805e-08
1.27149e-05
2.51361e-08
1.27676e-05
-2.23828e-08
1.28165e-05
-5.26822e-08
1.28582e-05
-5.66327e-08
1.28974e-05
-3.52871e-08
1.29382e-05
3.01287e-09
1.29785e-05
4.60786e-08
1.30124e-05
8.17613e-08
1.30337e-05
1.0212e-07
1.30396e-05
1.05371e-07
1.30323e-05
9.63334e-08
1.30169e-05
8.05865e-08
6.48276e-08
1.30023e-05
1.09278e-05
-1.65356e-07
1.09253e-05
-2.00185e-09
1.08411e-05
9.34705e-08
1.07931e-05
1.27089e-07
1.08205e-05
4.73863e-08
1.09173e-05
-7.17066e-08
1.10226e-05
-1.27713e-07
1.10881e-05
-1.18115e-07
1.11095e-05
-7.80694e-08
1.11101e-05
-3.5893e-08
1.11146e-05
-1.50562e-09
1.11363e-05
2.43877e-08
1.11753e-05
4.27508e-08
1.12233e-05
5.41236e-08
1.12692e-05
5.94386e-08
1.13049e-05
6.0639e-08
1.13265e-05
5.90638e-08
5.57834e-08
1.13355e-05
9.61102e-06
-3.44315e-07
9.70136e-06
-9.2339e-08
9.7179e-06
7.69253e-08
9.72699e-06
1.18006e-07
9.72532e-06
4.90573e-08
9.70858e-06
-5.49672e-08
9.69721e-06
-1.16342e-07
9.68442e-06
-1.05325e-07
9.6594e-06
-5.30516e-08
9.62445e-06
-9.47744e-10
9.59294e-06
3.00024e-08
9.57874e-06
3.85931e-08
9.58816e-06
3.33324e-08
9.62016e-06
2.21202e-08
9.66956e-06
1.00438e-08
9.72971e-06
4.88062e-10
9.79545e-06
-6.67557e-09
-1.09972e-08
9.86223e-06
8.18568e-06
-1.76243e-07
8.37206e-06
-2.78718e-07
8.51833e-06
-6.93387e-08
8.58936e-06
4.69697e-08
8.59059e-06
4.78332e-08
8.5444e-06
-8.77883e-09
8.4839e-06
-5.58425e-08
8.43694e-06
-5.83688e-08
8.41264e-06
-2.87455e-08
8.40814e-06
3.55092e-09
8.41837e-06
1.97673e-08
8.43875e-06
1.82178e-08
8.466e-06
6.07861e-09
8.49805e-06
-9.92557e-09
8.53132e-06
-2.32274e-08
8.56354e-06
-3.17367e-08
8.59192e-06
-3.50531e-08
-3.35028e-08
8.61443e-06
7.29373e-06
-1.82282e-07
7.25236e-06
-2.37347e-07
7.28659e-06
-1.03573e-07
7.32716e-06
6.4067e-09
7.33925e-06
3.57339e-08
7.32539e-06
5.08755e-09
7.30317e-06
-3.3627e-08
7.2971e-06
-5.22978e-08
7.31425e-06
-4.5891e-08
7.34852e-06
-3.07196e-08
7.38898e-06
-2.06919e-08
7.42678e-06
-1.95811e-08
7.45751e-06
-2.46583e-08
7.48014e-06
-3.25572e-08
7.4963e-06
-3.93854e-08
7.50743e-06
-4.2867e-08
7.51378e-06
-4.13975e-08
-3.46888e-08
7.51496e-06
6.36223e-06
-7.54214e-08
6.25258e-06
-1.277e-07
6.24445e-06
-9.54413e-08
6.30001e-06
-4.91479e-08
6.37303e-06
-3.72853e-08
6.42733e-06
-4.92156e-08
6.44722e-06
-5.35228e-08
6.43869e-06
-4.37592e-08
6.42114e-06
-2.83474e-08
6.4094e-06
-1.89748e-08
6.40759e-06
-1.88877e-08
6.41197e-06
-2.39579e-08
6.41702e-06
-2.97041e-08
6.42002e-06
-3.556e-08
6.42255e-06
-4.19183e-08
6.42786e-06
-4.8178e-08
6.43879e-06
-5.23231e-08
-5.18216e-08
6.45592e-06
5.67986e-06
-1.52424e-07
5.64562e-06
-9.34615e-08
5.60246e-06
-5.22851e-08
5.58243e-06
-2.91163e-08
5.57503e-06
-2.98789e-08
5.56562e-06
-3.98124e-08
5.55272e-06
-4.06164e-08
5.54675e-06
-3.77961e-08
5.55993e-06
-4.15201e-08
5.59493e-06
-5.39757e-08
5.64334e-06
-6.72992e-08
5.69084e-06
-7.14642e-08
5.72428e-06
-6.31401e-08
5.73646e-06
-4.77346e-08
5.72825e-06
-3.37111e-08
5.70628e-06
-2.62125e-08
5.67937e-06
-2.54095e-08
-2.86933e-08
5.65624e-06
4.78451e-06
-1.64279e-07
4.79435e-06
-1.03297e-07
4.8229e-06
-8.08377e-08
4.86135e-06
-6.75678e-08
4.88782e-06
-5.635e-08
4.89276e-06
-4.47525e-08
4.88674e-06
-3.46004e-08
4.88358e-06
-3.46325e-08
4.88972e-06
-4.76578e-08
4.90355e-06
-6.78086e-08
4.92055e-06
-8.42982e-08
4.93752e-06
-8.84305e-08
4.95253e-06
-7.81567e-08
4.9632e-06
-5.8401e-08
4.96671e-06
-3.72259e-08
4.96105e-06
-2.05491e-08
4.94638e-06
-1.07355e-08
-8.65144e-09
4.92634e-06
4.11434e-06
4.01104e-06
3.9302e-06
3.86263e-06
3.80628e-06
3.76153e-06
3.72693e-06
3.6923e-06
3.64464e-06
3.57683e-06
3.49253e-06
3.4041e-06
3.32595e-06
3.26755e-06
3.23032e-06
3.20977e-06
3.19904e-06
3.19038e-06
1.56584e-07
-1.56584e-07
5.0391e-07
-3.47327e-07
9.06675e-07
-4.02764e-07
1.31542e-06
-4.0875e-07
1.71599e-06
-4.00564e-07
2.10414e-06
-3.8815e-07
2.47661e-06
-3.72467e-07
2.82834e-06
-3.51738e-07
3.15192e-06
-3.23578e-07
3.43748e-06
-2.85558e-07
3.67292e-06
-2.35441e-07
3.84504e-06
-1.72123e-07
3.9412e-06
-9.61597e-08
3.95139e-06
-1.01887e-08
3.86198e-06
8.94079e-08
3.66981e-06
1.92178e-07
3.37764e-06
2.9217e-07
2.99389e-06
3.83744e-07
2.53663e-06
4.5726e-07
2.02617e-06
5.10459e-07
1.50625e-06
5.19927e-07
1.0466e-06
4.59645e-07
7.01473e-07
3.45129e-07
3.48176e-07
3.53297e-07
2.37482e-07
1.10694e-07
6.56041e-07
-4.18559e-07
8.34145e-07
-1.78104e-07
8.42683e-07
-8.5387e-09
5.17226e-07
3.25458e-07
-5.01685e-07
1.01891e-06
-1.81099e-06
1.30931e-06
-3.07795e-06
1.26696e-06
-4.27241e-06
1.19446e-06
-5.37195e-06
1.09954e-06
-6.37257e-06
1.00062e-06
-7.27449e-06
9.01922e-07
-8.08129e-06
8.06793e-07
-8.79819e-06
7.16899e-07
-9.43016e-06
6.31972e-07
-9.98197e-06
5.5181e-07
-1.04572e-05
4.75248e-07
-1.08588e-05
4.01611e-07
-1.11889e-05
3.3006e-07
-1.14492e-05
2.60329e-07
-1.16415e-05
1.92309e-07
-1.17678e-05
1.2629e-07
-1.18306e-05
6.2778e-08
-1.18326e-05
2.05478e-09
-1.17835e-05
-4.91674e-08
-1.16867e-05
-9.67875e-08
-1.15477e-05
-1.38963e-07
-1.13725e-05
-1.75214e-07
-1.11667e-05
-2.05767e-07
-1.09361e-05
-2.30622e-07
-1.06859e-05
-2.50201e-07
-1.0421e-05
-2.64943e-07
-1.01454e-05
-2.75596e-07
-9.86246e-06
-2.82922e-07
-9.57468e-06
-2.87783e-07
-9.28372e-06
-2.90963e-07
-8.99053e-06
-2.93189e-07
-8.69548e-06
-2.95049e-07
-8.39846e-06
-2.9702e-07
-8.09901e-06
-2.99454e-07
-7.79636e-06
-3.02642e-07
-7.48949e-06
-3.06874e-07
-7.17702e-06
-3.12468e-07
-6.85722e-06
-3.19805e-07
-6.52797e-06
-3.29248e-07
-6.18696e-06
-3.41009e-07
-5.83196e-06
-3.55005e-07
-5.46115e-06
-3.70811e-07
-5.07346e-06
-3.87683e-07
-4.66887e-06
-4.04596e-07
-4.24853e-06
-4.20337e-07
-3.81483e-06
-4.33696e-07
-3.37118e-06
-4.43653e-07
-2.92171e-06
-4.4947e-07
-2.47093e-06
-4.50784e-07
-2.02325e-06
-4.47679e-07
-1.58261e-06
-4.40642e-07
-1.15229e-06
-4.30315e-07
-7.35102e-07
-4.17188e-07
-3.32998e-07
-4.02104e-07
5.18747e-08
-3.84872e-07
4.18922e-07
-3.67048e-07
7.66749e-07
-3.47827e-07
1.09465e-06
-3.27902e-07
1.40219e-06
-3.07535e-07
1.68916e-06
-2.86975e-07
1.95562e-06
-2.6646e-07
2.20182e-06
-2.46199e-07
2.42818e-06
-2.26361e-07
2.63525e-06
-2.07067e-07
2.82366e-06
-1.88407e-07
2.99411e-06
-1.70451e-07
3.14737e-06
-1.53267e-07
3.28431e-06
-1.36939e-07
3.40587e-06
-1.21558e-07
3.51309e-06
-1.07223e-07
3.60711e-06
-9.4016e-08
3.6891e-06
-8.19952e-08
3.76028e-06
-7.11748e-08
3.8218e-06
-6.15258e-08
3.87479e-06
-5.29821e-08
3.92023e-06
-4.54419e-08
3.95903e-06
-3.87992e-08
3.99197e-06
-3.29414e-08
4.01971e-06
-2.7745e-08
4.04285e-06
-2.3131e-08
4.06183e-06
-1.89885e-08
4.07704e-06
-1.52055e-08
4.0888e-06
-1.17614e-08
4.0973e-06
-8.49521e-09
4.10262e-06
-5.32635e-09
4.10492e-06
-2.29803e-09
4.10408e-06
8.40264e-10
4.09984e-06
4.23577e-09
4.09221e-06
7.63406e-09
4.08131e-06
1.09029e-08
4.06731e-06
1.40011e-08
4.05049e-06
1.68171e-08
4.03125e-06
1.92387e-08
4.01001e-06
2.12393e-08
3.9872e-06
2.28082e-08
3.96326e-06
2.39384e-08
3.9386e-06
2.46652e-08
3.91357e-06
2.50324e-08
3.88848e-06
2.50907e-08
3.86358e-06
2.49005e-08
3.83907e-06
2.45085e-08
3.81511e-06
2.39618e-08
3.7918e-06
2.33068e-08
3.76922e-06
2.25797e-08
3.74741e-06
2.18111e-08
3.72638e-06
2.10277e-08
3.70613e-06
2.02484e-08
3.68664e-06
1.94868e-08
3.66789e-06
1.87544e-08
3.64983e-06
1.80616e-08
3.63241e-06
1.74156e-08
3.6156e-06
1.68173e-08
3.59933e-06
1.62639e-08
3.58358e-06
1.57546e-08
3.56828e-06
1.5294e-08
3.55339e-06
1.48888e-08
3.53886e-06
1.45383e-08
3.52463e-06
1.42283e-08
3.51069e-06
1.39348e-08
3.49706e-06
1.36344e-08
3.48374e-06
1.33162e-08
3.47076e-06
1.2986e-08
3.4581e-06
1.26615e-08
3.44573e-06
1.23643e-08
3.43362e-06
1.21107e-08
3.42171e-06
1.19095e-08
3.40995e-06
1.17617e-08
3.39828e-06
1.16656e-08
3.38666e-06
1.16183e-08
3.37505e-06
1.16194e-08
3.36337e-06
1.16725e-08
3.35159e-06
1.17796e-08
3.33964e-06
1.19582e-08
3.32743e-06
1.2202e-08
3.31487e-06
1.25656e-08
3.30187e-06
1.29996e-08
3.28819e-06
1.36736e-08
3.27382e-06
1.43749e-08
3.25819e-06
1.56299e-08
3.24151e-06
1.66822e-08
3.22235e-06
1.91537e-08
3.20178e-06
2.05717e-08
3.17592e-06
2.58601e-08
3.14861e-06
2.73094e-08
3.10883e-06
3.97789e-08
3.06904e-06
3.97893e-08
2.99656e-06
7.24856e-08
2.9287e-06
6.7861e-08
2.75606e-06
1.72642e-07
1.74172e-07
2.58188e-06
2.93307e-07
-4.49891e-07
6.5698e-07
-7.11e-07
1.01185e-06
-7.57636e-07
1.36127e-06
-7.5817e-07
1.7118e-06
-7.51095e-07
2.06365e-06
-7.39992e-07
2.4129e-06
-7.21726e-07
2.75278e-06
-6.91615e-07
3.0737e-06
-6.44496e-07
3.36337e-06
-5.75229e-07
3.60713e-06
-4.79201e-07
3.79051e-06
-3.55504e-07
3.89958e-06
-2.05229e-07
3.92339e-06
-3.40012e-08
3.85883e-06
1.53966e-07
3.70465e-06
3.46364e-07
3.46539e-06
5.31429e-07
3.15344e-06
6.95698e-07
2.7858e-06
8.24896e-07
2.38833e-06
9.0793e-07
1.94459e-06
9.63666e-07
1.46012e-06
9.44112e-07
9.80752e-07
8.245e-07
7.43303e-07
5.90746e-07
6.35962e-07
2.18035e-07
-4.56494e-08
2.63052e-07
-1.29172e-06
1.06797e-06
-2.87503e-06
1.57477e-06
-4.31321e-06
1.76364e-06
-5.2835e-06
1.9892e-06
-6.05308e-06
2.07889e-06
-6.81366e-06
2.02755e-06
-7.52647e-06
1.90727e-06
-8.18296e-06
1.75603e-06
-8.77716e-06
1.59482e-06
-9.3129e-06
1.43766e-06
-9.79353e-06
1.28741e-06
-1.0224e-05
1.14739e-06
-1.06073e-05
1.01526e-06
-1.09457e-05
8.90239e-07
-1.124e-05
7.6947e-07
-1.14899e-05
6.51591e-07
-1.16949e-05
5.34986e-07
-1.18539e-05
4.19329e-07
-1.19665e-05
3.04941e-07
-1.20332e-05
1.93014e-07
-1.20539e-05
8.34856e-08
-1.20287e-05
-2.32178e-08
-1.19578e-05
-1.20046e-07
-1.18442e-05
-2.10321e-07
-1.16916e-05
-2.91568e-07
-1.15046e-05
-3.62279e-07
-1.12886e-05
-4.21744e-07
-1.10492e-05
-4.70008e-07
-1.07917e-05
-5.07696e-07
-1.05207e-05
-5.35914e-07
-1.02403e-05
-5.56083e-07
-9.95334e-06
-5.69838e-07
-9.66227e-06
-5.78857e-07
-9.36849e-06
-5.8474e-07
-9.07279e-06
-5.88886e-07
-8.77541e-06
-5.92436e-07
-8.47616e-06
-5.96263e-07
-8.1746e-06
-6.01018e-07
-7.87002e-06
-6.07225e-07
-7.56145e-06
-6.15441e-07
-7.24757e-06
-6.26351e-07
-6.92659e-06
-6.40778e-07
-6.59629e-06
-6.59552e-07
-6.25408e-06
-6.83216e-07
-5.89737e-06
-7.11712e-07
-5.52395e-06
-7.44236e-07
-5.13237e-06
-7.79261e-07
-4.72232e-06
-8.14643e-07
-4.29486e-06
-8.47797e-07
-3.85246e-06
-8.76105e-07
-3.39874e-06
-8.97372e-07
-2.93816e-06
-9.10052e-07
-2.4756e-06
-9.13339e-07
-2.01585e-06
-9.07426e-07
-1.56301e-06
-8.93481e-07
-1.12055e-06
-8.72782e-07
-6.91178e-07
-8.46558e-07
-2.77138e-07
-8.16145e-07
1.20255e-07
-7.82265e-07
4.9942e-07
-7.46213e-07
8.5962e-07
-7.08027e-07
1.20014e-06
-6.68423e-07
1.52055e-06
-6.27942e-07
1.82066e-06
-5.87087e-07
2.10053e-06
-5.46333e-07
2.36043e-06
-5.06092e-07
2.60075e-06
-4.66687e-07
2.82204e-06
-4.28356e-07
3.02491e-06
-3.91276e-07
3.21008e-06
-3.55616e-07
3.37837e-06
-3.21566e-07
3.53078e-06
-2.89348e-07
3.66842e-06
-2.59193e-07
3.79249e-06
-2.31297e-07
3.90426e-06
-2.05787e-07
4.00498e-06
-1.82709e-07
4.09582e-06
-1.62019e-07
4.1779e-06
-1.43606e-07
4.25222e-06
-1.27303e-07
4.31969e-06
-1.12912e-07
4.38112e-06
-1.00227e-07
4.43722e-06
-8.90416e-08
4.48864e-06
-7.91635e-08
4.53593e-06
-7.0424e-08
4.5796e-06
-6.26509e-08
4.62008e-06
-5.56858e-08
4.6577e-06
-4.93823e-08
4.69277e-06
-4.35698e-08
4.72554e-06
-3.80933e-08
4.75609e-06
-3.28529e-08
4.78467e-06
-2.77365e-08
4.81153e-06
-2.26224e-08
4.83667e-06
-1.75064e-08
4.86e-06
-1.24269e-08
4.88142e-06
-7.41904e-09
4.90081e-06
-2.57178e-09
4.91806e-06
1.98469e-09
4.93309e-06
6.21532e-09
4.94588e-06
1.00127e-08
4.9565e-06
1.33246e-08
4.96501e-06
1.61535e-08
4.97154e-06
1.85023e-08
4.97623e-06
2.03959e-08
4.97924e-06
2.18878e-08
4.98074e-06
2.30127e-08
4.98088e-06
2.38224e-08
4.97981e-06
2.43738e-08
4.97768e-06
2.47118e-08
4.97461e-06
2.48785e-08
4.97073e-06
2.49137e-08
4.96613e-06
2.48498e-08
4.9609e-06
2.47126e-08
4.95513e-06
2.45247e-08
4.94889e-06
2.43052e-08
4.94223e-06
2.40695e-08
4.93522e-06
2.3827e-08
4.9279e-06
2.35833e-08
4.92031e-06
2.33434e-08
4.91249e-06
2.31154e-08
4.90447e-06
2.29075e-08
4.89629e-06
2.27224e-08
4.88797e-06
2.25514e-08
4.87952e-06
2.23763e-08
4.87098e-06
2.21787e-08
4.86235e-06
2.19508e-08
4.85363e-06
2.17006e-08
4.84485e-06
2.14475e-08
4.836e-06
2.12139e-08
4.82709e-06
2.1016e-08
4.81814e-06
2.0861e-08
4.80915e-06
2.07521e-08
4.80012e-06
2.06905e-08
4.79106e-06
2.06864e-08
4.78193e-06
2.07479e-08
4.7727e-06
2.09012e-08
4.76333e-06
2.11478e-08
4.75375e-06
2.15368e-08
4.74392e-06
2.2036e-08
4.73372e-06
2.2762e-08
4.72313e-06
2.35902e-08
4.71196e-06
2.4843e-08
4.70022e-06
2.61178e-08
4.68753e-06
2.83138e-08
4.67402e-06
3.01958e-08
4.65888e-06
3.42936e-08
4.6425e-06
3.69522e-08
4.62312e-06
4.52383e-08
4.60172e-06
4.87074e-08
4.57445e-06
6.70482e-08
4.54298e-06
7.12679e-08
4.49899e-06
1.1647e-07
4.44227e-06
1.24579e-07
4.36451e-06
2.50409e-07
2.87999e-07
4.25068e-06
3.38621e-07
-7.88512e-07
6.49476e-07
-1.02186e-06
9.38108e-07
-1.04627e-06
1.23474e-06
-1.0548e-06
1.5467e-06
-1.06305e-06
1.87188e-06
-1.06517e-06
2.20468e-06
-1.05453e-06
2.53642e-06
-1.02335e-06
2.85469e-06
-9.62769e-07
3.14373e-06
-8.64267e-07
3.38489e-06
-7.20364e-07
3.55937e-06
-5.29983e-07
3.65021e-06
-2.96074e-07
3.64491e-06
-2.86958e-08
3.53112e-06
2.67759e-07
3.31188e-06
5.65598e-07
2.9969e-06
8.46408e-07
2.60083e-06
1.09177e-06
2.13544e-06
1.29029e-06
1.6113e-06
1.43207e-06
1.04285e-06
1.53212e-06
5.00035e-07
1.48692e-06
1.07406e-07
1.21713e-06
-2.90393e-07
9.88545e-07
-1.41632e-06
1.34396e-06
-3.14383e-06
1.99056e-06
-4.388e-06
2.31214e-06
-5.35034e-06
2.53711e-06
-6.21219e-06
2.62549e-06
-6.86856e-06
2.64557e-06
-7.34474e-06
2.55507e-06
-7.75019e-06
2.43299e-06
-8.122e-06
2.27908e-06
-8.48473e-06
2.11876e-06
-8.8438e-06
1.95389e-06
-9.2011e-06
1.79497e-06
-9.55393e-06
1.64024e-06
-9.89785e-06
1.49131e-06
-1.0227e-05
1.3444e-06
-1.05349e-05
1.19812e-06
-1.08149e-05
1.04949e-06
-1.10607e-05
8.97406e-07
-1.12666e-05
7.40881e-07
-1.14278e-05
5.80514e-07
-1.15406e-05
4.17761e-07
-1.16028e-05
2.55254e-07
-1.16149e-05
9.55497e-08
-1.15794e-05
-5.87674e-08
-1.14939e-05
-2.0548e-07
-1.13653e-05
-3.38994e-07
-1.11995e-05
-4.57332e-07
-1.10027e-05
-5.59108e-07
-1.07807e-05
-6.43667e-07
-1.05395e-05
-7.11273e-07
-1.02841e-05
-7.63052e-07
-1.00191e-05
-8.00885e-07
-9.74811e-06
-8.27121e-07
-9.47358e-06
-8.44368e-07
-9.19724e-06
-8.55194e-07
-8.92001e-06
-8.61971e-07
-8.6422e-06
-8.66703e-07
-8.3637e-06
-8.70934e-07
-8.08421e-06
-8.75749e-07
-7.80329e-06
-8.81937e-07
-7.52036e-06
-8.90158e-07
-7.23466e-06
-9.01141e-07
-6.94504e-06
-9.1597e-07
-6.64971e-06
-9.36112e-07
-6.34613e-06
-9.63126e-07
-6.0312e-06
-9.98142e-07
-5.7016e-06
-1.04131e-06
-5.35434e-06
-1.0915e-06
-4.98724e-06
-1.14636e-06
-4.5994e-06
-1.20249e-06
-4.19154e-06
-1.25566e-06
-3.76609e-06
-1.30155e-06
-3.32687e-06
-1.3366e-06
-2.8785e-06
-1.35842e-06
-2.42591e-06
-1.36592e-06
-1.97395e-06
-1.35939e-06
-1.52681e-06
-1.34062e-06
-1.08819e-06
-1.3114e-06
-6.61088e-07
-1.27366e-06
-2.47872e-07
-1.22936e-06
1.49736e-07
-1.17987e-06
5.29544e-07
-1.12602e-06
8.90422e-07
-1.0689e-06
1.23147e-06
-1.00947e-06
1.55218e-06
-9.48658e-07
1.85244e-06
-8.87346e-07
2.13243e-06
-8.26323e-07
2.39256e-06
-7.66222e-07
2.63334e-06
-7.07467e-07
2.85526e-06
-6.50269e-07
3.05868e-06
-5.94704e-07
3.24391e-06
-5.40846e-07
3.41124e-06
-4.88896e-07
3.56117e-06
-4.39273e-07
3.69456e-06
-3.92584e-07
3.81275e-06
-3.49486e-07
3.91746e-06
-3.10503e-07
4.01064e-06
-2.75881e-07
4.09416e-06
-2.4554e-07
4.16969e-06
-2.19134e-07
4.23856e-06
-1.96174e-07
4.30178e-06
-1.76137e-07
4.36011e-06
-1.58556e-07
4.41412e-06
-1.43048e-07
4.46427e-06
-1.2932e-07
4.51099e-06
-1.17144e-07
4.55467e-06
-1.06322e-07
4.59565e-06
-9.66715e-08
4.63427e-06
-8.79997e-08
4.6708e-06
-8.01007e-08
4.70547e-06
-7.2766e-08
4.73841e-06
-6.57905e-08
4.76968e-06
-5.90093e-08
4.79935e-06
-5.22858e-08
4.82738e-06
-4.55437e-08
4.85374e-06
-3.87872e-08
4.87838e-06
-3.20527e-08
4.90125e-06
-2.54408e-08
4.92231e-06
-1.90839e-08
4.94158e-06
-1.30538e-08
4.95904e-06
-7.44208e-09
4.97469e-06
-2.32661e-09
4.98858e-06
2.26122e-09
5.00078e-06
6.29988e-09
5.01138e-06
9.803e-09
5.02044e-06
1.2822e-08
5.02809e-06
1.53639e-08
5.03442e-06
1.74927e-08
5.03953e-06
1.92679e-08
5.0435e-06
2.07355e-08
5.04644e-06
2.19449e-08
5.04841e-06
2.29421e-08
5.04949e-06
2.37647e-08
5.04976e-06
2.44456e-08
5.04927e-06
2.50124e-08
5.04809e-06
2.54884e-08
5.04627e-06
2.58927e-08
5.04385e-06
2.62399e-08
5.0409e-06
2.65407e-08
5.03744e-06
2.68032e-08
5.03352e-06
2.7036e-08
5.02918e-06
2.72477e-08
5.02446e-06
2.74436e-08
5.01938e-06
2.76218e-08
5.01399e-06
2.77722e-08
5.00828e-06
2.78834e-08
5.00228e-06
2.79506e-08
4.996e-06
2.79812e-08
4.98946e-06
2.79938e-08
4.98266e-06
2.80094e-08
4.97563e-06
2.80457e-08
4.96838e-06
2.81102e-08
4.96093e-06
2.8209e-08
4.95327e-06
2.83428e-08
4.94543e-06
2.85283e-08
4.93741e-06
2.8773e-08
4.92919e-06
2.91184e-08
4.92077e-06
2.95629e-08
4.91213e-06
3.01824e-08
4.90324e-06
3.0929e-08
4.89403e-06
3.19667e-08
4.88449e-06
3.31314e-08
4.8745e-06
3.48292e-08
4.86403e-06
3.65881e-08
4.85291e-06
3.94399e-08
4.84102e-06
4.20818e-08
4.82816e-06
4.71544e-08
4.81396e-06
5.11555e-08
4.79836e-06
6.08359e-08
4.77999e-06
6.70736e-08
4.75995e-06
8.70891e-08
4.73322e-06
9.79989e-08
4.70639e-06
1.43297e-07
4.6627e-06
1.68277e-07
4.63301e-06
2.80093e-07
3.52778e-07
4.56823e-06
2.90034e-07
-1.07855e-06
5.25529e-07
-1.25735e-06
7.6196e-07
-1.2827e-06
1.0165e-06
-1.30934e-06
1.2906e-06
-1.33715e-06
1.58278e-06
-1.35735e-06
1.88762e-06
-1.35937e-06
2.19416e-06
-1.32989e-06
2.48725e-06
-1.25586e-06
2.74802e-06
-1.12503e-06
2.95572e-06
-9.28065e-07
3.08958e-06
-6.63848e-07
3.13175e-06
-3.38243e-07
3.0727e-06
3.03604e-08
2.88751e-06
4.52941e-07
2.58789e-06
8.65223e-07
2.18253e-06
1.25176e-06
1.68557e-06
1.58873e-06
1.12718e-06
1.84868e-06
5.6019e-07
1.99906e-06
6.17526e-08
2.03056e-06
-3.83643e-07
1.93232e-06
-1.07145e-06
1.90493e-06
-2.33795e-06
2.25505e-06
-3.74954e-06
2.75555e-06
-4.79992e-06
3.04095e-06
-5.61758e-06
3.12979e-06
-6.22749e-06
3.14702e-06
-6.69352e-06
3.09152e-06
-7.04364e-06
2.99569e-06
-7.34006e-06
2.85148e-06
-7.60458e-06
2.69751e-06
-7.86196e-06
2.53646e-06
-8.12787e-06
2.38467e-06
-8.41037e-06
2.23639e-06
-8.70877e-06
2.09337e-06
-9.01865e-06
1.95012e-06
-9.33237e-06
1.80504e-06
-9.64164e-06
1.65366e-06
-9.93725e-06
1.49373e-06
-1.02101e-05
1.32238e-06
-1.04513e-05
1.13858e-06
-1.06525e-05
9.42085e-07
-1.08066e-05
7.34596e-07
-1.0908e-05
5.19154e-07
-1.09532e-05
3.0051e-07
-1.09434e-05
8.56856e-08
-1.08756e-05
-1.26527e-07
-1.07537e-05
-3.27351e-07
-1.05842e-05
-5.08535e-07
-1.03743e-05
-6.67194e-07
-1.01324e-05
-8.01015e-07
-9.86711e-06
-9.09e-07
-9.58659e-06
-9.91786e-07
-9.29821e-06
-1.05144e-06
-9.00794e-06
-1.09115e-06
-8.72023e-06
-1.11483e-06
-8.438e-06
-1.1266e-06
-8.16272e-06
-1.13047e-06
-7.8947e-06
-1.12999e-06
-7.63337e-06
-1.12803e-06
-7.37767e-06
-1.12664e-06
-7.12638e-06
-1.12703e-06
-6.8784e-06
-1.12992e-06
-6.6325e-06
-1.13606e-06
-6.38763e-06
-1.14601e-06
-6.14248e-06
-1.16112e-06
-5.89483e-06
-1.18376e-06
-5.64127e-06
-1.21669e-06
-5.37741e-06
-1.262e-06
-5.09859e-06
-1.32013e-06
-4.80074e-06
-1.38936e-06
-4.48102e-06
-1.46608e-06
-4.13848e-06
-1.54503e-06
-3.77438e-06
-1.61975e-06
-3.39222e-06
-1.68371e-06
-2.99693e-06
-1.73189e-06
-2.59354e-06
-1.76181e-06
-2.18605e-06
-1.77341e-06
-1.77696e-06
-1.76847e-06
-1.3679e-06
-1.74968e-06
-9.6033e-07
-1.71897e-06
-5.56469e-07
-1.67753e-06
-1.59586e-07
-1.62624e-06
2.28087e-07
-1.56755e-06
6.01837e-07
-1.49977e-06
9.58915e-07
-1.42598e-06
1.29722e-06
-1.34778e-06
1.61545e-06
-1.26689e-06
1.9131e-06
-1.18499e-06
2.19037e-06
-1.1036e-06
2.448e-06
-1.02384e-06
2.68696e-06
-9.46434e-07
2.90831e-06
-8.71614e-07
3.11292e-06
-7.9932e-07
3.30141e-06
-7.29328e-07
3.47394e-06
-6.61428e-07
3.63027e-06
-5.95608e-07
3.76993e-06
-5.32245e-07
3.89263e-06
-4.72186e-07
3.99875e-06
-4.16619e-07
4.0896e-06
-3.66729e-07
4.16736e-06
-3.23304e-07
4.23471e-06
-2.86483e-07
4.29429e-06
-2.55755e-07
4.34833e-06
-2.30171e-07
4.39841e-06
-2.08645e-07
4.44556e-06
-1.90197e-07
4.49032e-06
-1.74079e-07
4.53297e-06
-1.59785e-07
4.57364e-06
-1.46992e-07
4.61244e-06
-1.35474e-07
4.64947e-06
-1.25036e-07
4.68485e-06
-1.15474e-07
4.71864e-06
-1.06557e-07
4.7509e-06
-9.805e-08
4.78164e-06
-8.97481e-08
4.81083e-06
-8.14796e-08
4.83842e-06
-7.31305e-08
4.86431e-06
-6.46841e-08
4.88845e-06
-5.61906e-08
4.91075e-06
-4.77418e-08
4.93115e-06
-3.94819e-08
4.94965e-06
-3.15482e-08
4.96626e-06
-2.40568e-08
4.98104e-06
-1.71095e-08
4.99408e-06
-1.07752e-08
5.00547e-06
-5.08659e-09
5.01533e-06
-5.79109e-11
5.02374e-06
4.41282e-09
5.03084e-06
8.26484e-09
5.03672e-06