/*--------------------------------*- C++ -*----------------------------------*\
  =========                 |
  \\      /  F ield         | OpenFOAM: The Open Source CFD Toolbox
   \\    /   O peration     | Website:  https://openfoam.org
    \\  /    A nd           | Version:  9
     \\/     M anipulation  |
\*---------------------------------------------------------------------------*/
FoamFile
{
    format      ascii;
    class       surfaceScalarField;
    location    "0.021";
    object      phi_0;
}
// * * * * * * * * * * * * * * * * * * * * * * * * * * * * * * * * * * * * * //

dimensions      [0 3 -1 0 0 0 0];

internalField   nonuniform List<scalar> 
24170
(
3.10851e-06
1.12419e-07
2.9956e-06
1.12906e-07
2.90029e-06
9.531e-08
2.81695e-06
8.33438e-08
2.7255e-06
9.14436e-08
2.62511e-06
1.00392e-07
2.52639e-06
9.87162e-08
2.43744e-06
8.89515e-08
2.35646e-06
8.09807e-08
2.27549e-06
8.0974e-08
2.18854e-06
8.69462e-08
2.09582e-06
9.27184e-08
2.00071e-06
9.51179e-08
1.90069e-06
1.00014e-07
1.79535e-06
1.05337e-07
1.67842e-06
1.16935e-07
1.53404e-06
1.44384e-07
1.70784e-07
1.36325e-06
3.39989e-06
8.81573e-08
3.42729e-06
8.55121e-08
3.43752e-06
8.50725e-08
3.45881e-06
6.20526e-08
3.48978e-06
6.04751e-08
3.50327e-06
8.69076e-08
3.48123e-06
1.20751e-07
3.43334e-06
1.36848e-07
3.38178e-06
1.32532e-07
3.34158e-06
1.21179e-07
3.31498e-06
1.13549e-07
3.29597e-06
1.11722e-07
3.2789e-06
1.12191e-07
3.25639e-06
1.22526e-07
3.22333e-06
1.38391e-07
3.17306e-06
1.67206e-07
3.10454e-06
2.12909e-07
2.60366e-07
3.01496e-06
3.81383e-06
1.0699e-07
3.72347e-06
1.75872e-07
3.65651e-06
1.52037e-07
3.63136e-06
8.72005e-08
3.64363e-06
4.82036e-08
3.67608e-06
5.44634e-08
3.70715e-06
8.96806e-08
3.72202e-06
1.21976e-07
3.71704e-06
1.37515e-07
3.69761e-06
1.40606e-07
3.67244e-06
1.38723e-07
3.64824e-06
1.3592e-07
3.62768e-06
1.32751e-07
3.61277e-06
1.37434e-07
3.59948e-06
1.51675e-07
3.58743e-06
1.79259e-07
3.57727e-06
2.23069e-07
2.69756e-07
3.56788e-06
3.93104e-06
1.13761e-07
3.9026e-06
2.04313e-07
3.91926e-06
1.3537e-07
3.95147e-06
5.4992e-08
3.97521e-06
2.44652e-08
3.97858e-06
5.10893e-08
3.96854e-06
9.97269e-08
3.95784e-06
1.32671e-07
3.95331e-06
1.42049e-07
3.95366e-06
1.40252e-07
3.95329e-06
1.39097e-07
3.9471e-06
1.42111e-07
3.93327e-06
1.46575e-07
3.91547e-06
1.55236e-07
3.89699e-06
1.70156e-07
3.88297e-06
1.93276e-07
3.87945e-06
2.26594e-07
2.64288e-07
3.88492e-06
4.30726e-06
7.31613e-08
4.34155e-06
1.7002e-07
4.35651e-06
1.20413e-07
4.35001e-06
6.14891e-08
4.32608e-06
4.83947e-08
4.28869e-06
8.84828e-08
4.24717e-06
1.41246e-07
4.21247e-06
1.67369e-07
4.19067e-06
1.63852e-07
4.18179e-06
1.49132e-07
4.18167e-06
1.39215e-07
4.1843e-06
1.39478e-07
4.18416e-06
1.46719e-07
4.1793e-06
1.601e-07
4.17002e-06
1.79431e-07
4.15938e-06
2.03919e-07
4.15251e-06
2.33459e-07
2.64547e-07
4.15225e-06
4.50962e-06
1.59638e-07
4.50141e-06
1.78227e-07
4.50371e-06
1.18117e-07
4.49987e-06
6.53335e-08
4.50579e-06
4.24697e-08
4.52297e-06
7.13017e-08
4.54166e-06
1.22556e-07
4.54948e-06
1.59554e-07
4.54079e-06
1.72539e-07
4.51894e-06
1.70987e-07
4.49278e-06
1.65367e-07
4.47069e-06
1.61571e-07
4.4564e-06
1.61008e-07
4.45051e-06
1.65996e-07
4.45101e-06
1.78925e-07
4.45569e-06
1.9924e-07
4.46343e-06
2.2572e-07
2.54564e-07
4.47341e-06
4.89719e-06
1.35541e-07
4.90575e-06
1.69673e-07
4.87379e-06
1.50077e-07
4.8408e-06
9.83182e-08
4.80922e-06
7.40524e-08
4.78959e-06
9.0927e-08
4.78687e-06
1.25281e-07
4.79542e-06
1.51004e-07
4.80827e-06
1.59688e-07
4.82124e-06
1.58014e-07
4.83177e-06
1.54842e-07
4.8373e-06
1.5604e-07
4.83505e-06
1.63251e-07
4.82439e-06
1.76657e-07
4.80777e-06
1.95549e-07
4.78924e-06
2.17774e-07
4.77408e-06
2.40872e-07
2.6301e-07
4.76564e-06
5.29878e-06
-2.4292e-08
5.32896e-06
1.39492e-07
5.26812e-06
2.10918e-07
5.16808e-06
1.98359e-07
5.08589e-06
1.56242e-07
5.0511e-06
1.25715e-07
5.05679e-06
1.19594e-07
5.08168e-06
1.26116e-07
5.10972e-06
1.31646e-07
5.13389e-06
1.33847e-07
5.15198e-06
1.36747e-07
5.16307e-06
1.44957e-07
5.16622e-06
1.60096e-07
5.16177e-06
1.81112e-07
5.15169e-06
2.05627e-07
5.13929e-06
2.30172e-07
5.12805e-06
2.52107e-07
2.70364e-07
5.1207e-06
5.58669e-06
-5.72235e-08
5.60001e-06
1.26166e-07
5.61368e-06
1.9725e-07
5.60384e-06
2.08203e-07
5.5931e-06
1.66979e-07
5.58739e-06
1.31419e-07
5.58188e-06
1.25104e-07
5.57208e-06
1.35919e-07
5.55846e-06
1.45267e-07
5.54506e-06
1.47248e-07
5.53586e-06
1.45947e-07
5.53242e-06
1.484e-07
5.53376e-06
1.58751e-07
5.53743e-06
1.77444e-07
5.54112e-06
2.01939e-07
5.54377e-06
2.27521e-07
5.5449e-06
2.50976e-07
2.69742e-07
5.54552e-06
6.01156e-06
-6.32668e-08
6.03068e-06
1.07049e-07
6.04151e-06
1.86418e-07
6.05793e-06
1.91782e-07
6.04948e-06
1.75431e-07
6.02351e-06
1.57387e-07
6.00082e-06
1.47801e-07
5.98531e-06
1.51423e-07
5.96837e-06
1.6221e-07
5.94395e-06
1.71667e-07
5.91454e-06
1.75356e-07
5.88765e-06
1.75288e-07
5.87016e-06
1.76244e-07
5.86414e-06
1.83462e-07
5.86728e-06
1.98798e-07
5.87487e-06
2.19931e-07
5.88212e-06
2.43728e-07
2.66414e-07
5.88545e-06
6.39823e-06
-3.78238e-08
6.33182e-06
1.73468e-07
6.31364e-06
2.0459e-07
6.31883e-06
1.86594e-07
6.32425e-06
1.70014e-07
6.33303e-06
1.48608e-07
6.35123e-06
1.29598e-07
6.37349e-06
1.29161e-07
6.38739e-06
1.48312e-07
6.38546e-06
1.73598e-07
6.37041e-06
1.90408e-07
6.3521e-06
1.93599e-07
6.33972e-06
1.88615e-07
6.33757e-06
1.85614e-07
6.34349e-06
1.92876e-07
6.3521e-06
2.11325e-07
6.35756e-06
2.38263e-07
2.67568e-07
6.35641e-06
5.79618e-06
1.20726e-07
5.71068e-06
2.58968e-07
5.6806e-06
2.34665e-07
5.68297e-06
1.84225e-07
5.68531e-06
1.67678e-07
5.67985e-06
1.54069e-07
5.67879e-06
1.30653e-07
5.69343e-06
1.1452e-07
5.72338e-06
1.18366e-07
5.7596e-06
1.37376e-07
5.79108e-06
1.58928e-07
5.81003e-06
1.74648e-07
5.8137e-06
1.8495e-07
5.80505e-06
1.94254e-07
5.79113e-06
2.068e-07
5.77811e-06
2.24347e-07
5.77191e-06
2.44463e-07
2.66094e-07
5.77338e-06
6.96246e-06
1.88865e-07
6.96806e-06
2.53373e-07
7.00154e-06
2.01183e-07
7.02813e-06
1.57636e-07
7.03894e-06
1.56869e-07
7.03234e-06
1.60663e-07
7.01528e-06
1.47718e-07
7.00038e-06
1.29418e-07
6.99721e-06
1.21533e-07
7.00439e-06
1.30198e-07
7.0107e-06
1.5262e-07
7.00386e-06
1.81487e-07
6.97992e-06
2.08894e-07
6.94439e-06
2.29776e-07
6.9097e-06
2.4149e-07
6.88646e-06
2.47587e-07
6.88205e-06
2.48873e-07
2.51891e-07
6.89626e-06
8.59079e-06
3.22277e-08
8.64342e-06
2.00746e-07
8.60766e-06
2.36945e-07
8.57726e-06
1.88029e-07
8.57689e-06
1.57246e-07
8.58695e-06
1.50596e-07
8.58471e-06
1.49958e-07
8.56586e-06
1.48268e-07
8.53829e-06
1.49107e-07
8.50963e-06
1.58858e-07
8.48368e-06
1.78565e-07
8.46215e-06
2.0302e-07
8.44664e-06
2.24404e-07
8.4378e-06
2.38615e-07
8.43514e-06
2.44151e-07
8.43798e-06
2.44753e-07
8.44427e-06
2.42579e-07
2.4058e-07
8.45558e-06
1.03935e-05
-7.32406e-08
1.03734e-05
2.20824e-07
1.03389e-05
2.71389e-07
1.03158e-05
2.11133e-07
1.03251e-05
1.48005e-07
1.03631e-05
1.1255e-07
1.04093e-05
1.03739e-07
1.04478e-05
1.09856e-07
1.04758e-05
1.21046e-07
1.0494e-05
1.40664e-07
1.05024e-05
1.70195e-07
1.05005e-05
2.04932e-07
1.04886e-05
2.36264e-07
1.04685e-05
2.58705e-07
1.04441e-05
2.68551e-07
1.04205e-05
2.68362e-07
1.0403e-05
2.60105e-07
2.48752e-07
1.03948e-05
1.25297e-05
-1.03048e-08
1.26357e-05
1.14826e-07
1.27024e-05
2.04677e-07
1.27165e-05
1.97096e-07
1.27066e-05
1.57902e-07
1.27069e-05
1.1219e-07
1.2736e-05
7.46437e-08
1.2783e-05
6.28822e-08
1.28188e-05
8.52461e-08
1.28217e-05
1.37765e-07
1.27908e-05
2.01054e-07
1.27405e-05
2.55229e-07
1.26891e-05
2.8769e-07
1.26512e-05
2.96642e-07
1.26333e-05
2.86441e-07
1.26361e-05
2.65597e-07
1.26556e-05
2.40591e-07
2.17967e-07
1.26864e-05
1.56291e-05
-1.32439e-07
1.56305e-05
1.13477e-07
1.56656e-05
1.69481e-07
1.56596e-05
2.03118e-07
1.55655e-05
2.5205e-07
1.54096e-05
2.68092e-07
1.52604e-05
2.23819e-07
1.51752e-05
1.4805e-07
1.51754e-05
8.50977e-08
1.52517e-05
6.14915e-08
1.53749e-05
7.77911e-08
1.55122e-05
1.17957e-07
1.56379e-05
1.62021e-07
1.57387e-05
1.95775e-07
1.5812e-05
2.13143e-07
1.58623e-05
2.15296e-07
1.58959e-05
2.06974e-07
1.9366e-07
1.59202e-05
1.85519e-05
5.42833e-08
1.85583e-05
1.07118e-07
1.86238e-05
1.03951e-07
1.86826e-05
1.44343e-07
1.87486e-05
1.85991e-07
1.87944e-05
2.22295e-07
1.88009e-05
2.17383e-07
1.87817e-05
1.67232e-07
1.87707e-05
9.60588e-08
1.87958e-05
3.64426e-08
1.88686e-05
4.99791e-09
1.89815e-05
5.01822e-09
1.91145e-05
2.90526e-08
1.92428e-05
6.7457e-08
1.93467e-05
1.09225e-07
1.94166e-05
1.45433e-07
1.94516e-05
1.71968e-07
1.84398e-07
1.94608e-05
2.33489e-05
2.40875e-07
2.3058e-05
3.98001e-07
2.28816e-05
2.80406e-07
2.29059e-05
1.20023e-07
2.30856e-05
6.31019e-09
2.33268e-05
-1.89073e-08
2.35244e-05
1.97807e-08
2.36096e-05
8.19637e-08
2.35766e-05
1.29072e-07
2.34639e-05
1.49169e-07
2.3327e-05
1.41876e-07
2.32156e-05
1.164e-07
2.31568e-05
8.79282e-08
2.31545e-05
6.9683e-08
2.31958e-05
6.80064e-08
2.32605e-05
8.06504e-08
2.33302e-05
1.0236e-07
1.26548e-07
2.3388e-05
1.64855e-05
3.41754e-07
1.65512e-05
3.32291e-07
1.66539e-05
1.7764e-07
1.67468e-05
2.72014e-08
1.68115e-05
-5.84702e-08
1.68586e-05
-6.59768e-08
1.6899e-05
-2.05972e-08
1.69366e-05
4.43921e-08
1.69682e-05
9.73797e-08
1.69831e-05
1.34315e-07
1.69725e-05
1.52444e-07
1.69381e-05
1.50822e-07
1.68928e-05
1.33261e-07
1.68556e-05
1.06876e-07
1.68429e-05
8.07294e-08
1.68612e-05
6.227e-08
1.69094e-05
5.41861e-08
5.89034e-08
1.69771e-05
1.44318e-05
3.43384e-07
1.46485e-05
1.15559e-07
1.48095e-05
1.6677e-08
1.47972e-05
3.94413e-08
1.46747e-05
6.40603e-08
1.45526e-05
5.61638e-08
1.45073e-05
2.47032e-08
1.45607e-05
-9.08127e-09
1.46755e-05
-1.74051e-08
1.48059e-05
3.9522e-09
1.4913e-05
4.532e-08
1.49761e-05
8.77073e-08
1.49939e-05
1.15448e-07
1.49797e-05
1.21102e-07
1.49531e-05
1.07379e-07
1.49309e-05
8.4481e-08
1.4924e-05
6.10863e-08
4.71969e-08
1.49357e-05
1.259e-05
8.49906e-08
1.27346e-05
-2.89713e-08
1.27454e-05
5.84901e-09
1.27071e-05
7.77576e-08
1.27009e-05
7.02682e-08
1.27387e-05
1.83483e-08
1.2791e-05
-2.76329e-08
1.28385e-05
-5.65996e-08
1.28794e-05
-5.82599e-08
1.29181e-05
-3.48042e-08
1.29586e-05
4.82986e-09
1.29982e-05
4.80947e-08
1.30308e-05
8.28901e-08
1.30502e-05
1.01739e-07
1.30541e-05
1.03495e-07
1.30451e-05
9.34448e-08
1.30289e-05
7.73185e-08
6.1825e-08
1.30142e-05
1.09859e-05
-1.6464e-07
1.09504e-05
6.61344e-09
1.08588e-05
9.7398e-08
1.0812e-05
1.24519e-07
1.08436e-05
3.86939e-08
1.09428e-05
-8.08015e-08
1.10465e-05
-1.31317e-07
1.11077e-05
-1.17827e-07
1.11257e-05
-7.63003e-08
1.11251e-05
-3.41582e-08
1.11303e-05
-3.69881e-10
1.11534e-05
2.49893e-08
1.11935e-05
4.27596e-08
1.12417e-05
5.35796e-08
1.12867e-05
5.84573e-08
1.13207e-05
5.9418e-08
1.13404e-05
5.76743e-08
5.43289e-08
1.13479e-05
9.66408e-06
-2.89935e-07
9.73059e-06
-5.98934e-08
9.73822e-06
8.97693e-08
9.74375e-06
1.18994e-07
9.74047e-06
4.19681e-08
9.72219e-06
-6.25225e-08
9.71043e-06
-1.19552e-07
9.69649e-06
-1.03889e-07
9.66994e-06
-4.97501e-08
9.6341e-06
1.67869e-09
9.60315e-06
3.05779e-08
9.59066e-06
3.74853e-08
9.60222e-06
3.11953e-08
9.63623e-06
1.95767e-08
9.68719e-06
7.49515e-09
9.74822e-06
-1.61642e-09
9.81445e-06
-8.55318e-09
-1.24801e-08
9.88126e-06
8.20985e-06
-1.56589e-07
8.40218e-06
-2.52224e-07
8.54147e-06
-4.95222e-08
8.60603e-06
5.44398e-08
8.60161e-06
4.63842e-08
8.55301e-06
-1.39187e-08
8.49192e-06
-5.84669e-08
8.446e-06
-5.79619e-08
8.42304e-06
-2.67928e-08
8.41973e-06
4.98423e-09
8.43076e-06
1.95544e-08
8.45171e-06
1.65296e-08
8.4794e-06
3.50871e-09
8.51167e-06
-1.26982e-08
8.54484e-06
-2.56746e-08
8.57678e-06
-3.35481e-08
8.60442e-06
-3.62009e-08
-3.40085e-08
8.62595e-06
7.31061e-06
-1.12922e-07
7.26504e-06
-2.06655e-07
7.30134e-06
-8.58163e-08
7.3406e-06
1.51742e-08
7.35043e-06
3.65586e-08
7.33445e-06
2.06433e-09
7.31256e-06
-3.65849e-08
7.30795e-06
-5.33472e-08
7.32664e-06
-4.54879e-08
7.36178e-06
-3.01549e-08
7.40221e-06
-2.08697e-08
7.43937e-06
-2.06361e-08
7.46923e-06
-2.63478e-08
7.49102e-06
-3.44937e-08
7.50645e-06
-4.11049e-08
7.51691e-06
-4.39994e-08
7.52245e-06
-4.17474e-08
-3.4329e-08
7.52277e-06
6.35953e-06
3.51682e-08
6.25676e-06
-1.03888e-07
6.25488e-06
-8.39345e-08
6.31436e-06
-4.43107e-08
6.38755e-06
-3.6628e-08
6.43973e-06
-5.01148e-08
6.45685e-06
-5.37048e-08
6.4465e-06
-4.30006e-08
6.42852e-06
-2.75061e-08
6.41717e-06
-1.87993e-08
6.41578e-06
-1.94819e-08
6.42019e-06
-2.50432e-08
6.42495e-06
-3.11163e-08
6.42771e-06
-3.72542e-08
6.43034e-06
-4.37293e-08
6.43613e-06
-4.97942e-08
6.44776e-06
-5.33694e-08
-5.21232e-08
6.46555e-06
5.67966e-06
-8.32574e-08
5.64727e-06
-7.14965e-08
5.60725e-06
-4.39138e-08
5.58933e-06
-2.63912e-08
5.58251e-06
-2.98117e-08
5.57277e-06
-4.03766e-08
5.55986e-06
-4.07916e-08
5.55487e-06
-3.80085e-08
5.56969e-06
-4.23261e-08
5.60614e-06
-5.52576e-08
5.65501e-06
-6.83495e-08
5.70167e-06
-7.17008e-08
5.73319e-06
-6.26419e-08
5.74304e-06
-4.70955e-08
5.7328e-06
-3.3492e-08
5.70959e-06
-2.65901e-08
5.68242e-06
-2.61972e-08
-2.95524e-08
5.65985e-06
4.7782e-06
-1.16083e-07
4.79753e-06
-9.08303e-08
4.83079e-06
-7.71704e-08
4.87043e-06
-6.60334e-08
4.89609e-06
-5.54762e-08
4.89987e-06
-4.41542e-08
4.89352e-06
-3.44404e-08
4.89079e-06
-3.52814e-08
4.89754e-06
-4.90756e-08
4.91174e-06
-6.94524e-08
4.92882e-06
-8.54334e-08
4.94571e-06
-8.85903e-08
4.96045e-06
-7.73813e-08
4.9705e-06
-5.715e-08
4.97303e-06
-3.60217e-08
4.96617e-06
-1.97301e-08
4.95043e-06
-1.04503e-08
-8.85021e-09
4.92972e-06
4.10307e-06
4.01224e-06
3.93507e-06
3.86904e-06
3.81356e-06
3.76941e-06
3.73497e-06
3.69968e-06
3.65061e-06
3.58116e-06
3.49572e-06
3.40713e-06
3.32975e-06
3.2726e-06
3.23658e-06
3.21685e-06
3.2064e-06
3.19755e-06
1.57453e-07
-1.57453e-07
5.05064e-07
-3.47611e-07
9.07798e-07
-4.02734e-07
1.31647e-06
-4.0867e-07
1.71703e-06
-4.00557e-07
2.10529e-06
-3.88263e-07
2.47801e-06
-3.7272e-07
2.83015e-06
-3.52144e-07
3.15429e-06
-3.24142e-07
3.44056e-06
-2.86271e-07
3.67684e-06
-2.36279e-07
3.84991e-06
-1.73062e-07
3.94706e-06
-9.71521e-08
3.9582e-06
-1.11371e-08
3.86971e-06
8.8482e-08
3.6783e-06
1.91415e-07
3.38663e-06
2.91669e-07
3.0031e-06
3.83529e-07
2.54574e-06
4.57361e-07
2.03495e-06
5.1079e-07
1.51469e-06
5.20262e-07
1.05458e-06
4.6011e-07
7.0749e-07
3.47088e-07
3.51661e-07
3.55829e-07
2.41079e-07
1.10582e-07
6.58681e-07
-4.17602e-07
8.36569e-07
-1.77888e-07
8.45181e-07
-8.61211e-09
5.17014e-07
3.28167e-07
-5.0418e-07
1.02119e-06
-1.81224e-06
1.30806e-06
-3.0783e-06
1.26606e-06
-4.27178e-06
1.19348e-06
-5.37046e-06
1.09868e-06
-6.37023e-06
9.99767e-07
-7.27139e-06
9.01168e-07
-8.07752e-06
8.06123e-07
-8.79386e-06
7.16346e-07
-9.4254e-06
6.31532e-07
-9.97688e-06
5.51486e-07
-1.04519e-05
4.75025e-07
-1.08534e-05
4.01475e-07
-1.11834e-05
3.2999e-07
-1.14437e-05
2.60297e-07
-1.1636e-05
1.92289e-07
-1.17622e-05
1.26258e-07
-1.18249e-05
6.27134e-08
-1.18268e-05
1.9199e-09
-1.17775e-05
-4.93464e-08
-1.16805e-05
-9.70378e-08
-1.15412e-05
-1.39286e-07
-1.13656e-05
-1.75602e-07
-1.11594e-05
-2.0621e-07
-1.09283e-05
-2.31102e-07
-1.06776e-05
-2.50697e-07
-1.04121e-05
-2.65433e-07
-1.01361e-05
-2.76054e-07
-9.85275e-06
-2.83327e-07
-9.56463e-06
-2.8812e-07
-9.27341e-06
-2.91225e-07
-8.98003e-06
-2.93379e-07
-8.68485e-06
-2.9518e-07
-8.38773e-06
-2.97114e-07
-8.0882e-06
-2.99538e-07
-7.78545e-06
-3.02745e-07
-7.47844e-06
-3.07016e-07
-7.16577e-06
-3.12662e-07
-6.84572e-06
-3.20051e-07
-6.51618e-06
-3.29539e-07
-6.17485e-06
-3.41331e-07
-5.81951e-06
-3.55343e-07
-5.44836e-06
-3.71149e-07
-5.06035e-06
-3.88005e-07
-4.65547e-06
-4.04888e-07
-4.23488e-06
-4.20589e-07
-3.80097e-06
-4.33904e-07
-3.35715e-06
-4.43818e-07
-2.90756e-06
-4.49598e-07
-2.45667e-06
-4.50882e-07
-2.00892e-06
-4.47754e-07
-1.56823e-06
-4.40691e-07
-1.13789e-06
-4.30335e-07
-7.20722e-07
-4.17172e-07
-3.18678e-07
-4.02044e-07
6.60821e-08
-3.84761e-07
4.32936e-07
-3.66854e-07
7.80513e-07
-3.47577e-07
1.10811e-06
-3.27597e-07
1.41529e-06
-3.07182e-07
1.70188e-06
-2.86586e-07
1.96793e-06
-2.66047e-07
2.2137e-06
-2.45775e-07
2.43963e-06
-2.25934e-07
2.64628e-06
-2.06647e-07
2.83428e-06
-1.87998e-07
3.00434e-06
-1.70058e-07
3.15723e-06
-1.52895e-07
3.29382e-06
-1.3659e-07
3.41506e-06
-1.21238e-07
3.52199e-06
-1.06934e-07
3.61575e-06
-9.37604e-08
3.69753e-06
-8.17739e-08
3.76851e-06
-7.09871e-08
3.82988e-06
-6.13695e-08
3.88274e-06
-5.2854e-08
3.92808e-06
-4.53382e-08
3.96679e-06
-3.87161e-08
3.99967e-06
-3.28751e-08
4.02736e-06
-2.76923e-08
4.05045e-06
-2.30891e-08
4.0694e-06
-1.89539e-08
4.08458e-06
-1.51761e-08
4.09631e-06
-1.17351e-08
4.10478e-06
-8.46826e-09
4.11008e-06
-5.29859e-09
4.11235e-06
-2.26785e-09
4.11147e-06
8.77231e-10
4.10719e-06
4.27732e-09
4.09952e-06
7.67705e-09
4.08857e-06
1.09451e-08
4.07453e-06
1.404e-08
4.05768e-06
1.68495e-08
4.03842e-06
1.92628e-08
4.01716e-06
2.12547e-08
3.99435e-06
2.28147e-08
3.97041e-06
2.39366e-08
3.94576e-06
2.46564e-08
3.92074e-06
2.50179e-08
3.89567e-06
2.50721e-08
3.87079e-06
2.48789e-08
3.8463e-06
2.44851e-08
3.82237e-06
2.39378e-08
3.79908e-06
2.3283e-08
3.77653e-06
2.25567e-08
3.75474e-06
2.17895e-08
3.73373e-06
2.10077e-08
3.7135e-06
2.02303e-08
3.69403e-06
1.94707e-08
3.67529e-06
1.87403e-08
3.65724e-06
1.80497e-08
3.63983e-06
1.74057e-08
3.62302e-06
1.68094e-08
3.60676e-06
1.62577e-08
3.59101e-06
1.575e-08
3.57572e-06
1.52911e-08
3.56084e-06
1.48876e-08
3.5463e-06
1.45386e-08
3.53207e-06
1.42297e-08
3.51813e-06
1.39366e-08
3.50449e-06
1.36364e-08
3.49118e-06
1.33182e-08
3.47819e-06
1.29882e-08
3.46552e-06
1.26643e-08
3.45316e-06
1.23679e-08
3.44104e-06
1.21153e-08
3.42913e-06
1.19152e-08
3.41736e-06
1.17683e-08
3.40568e-06
1.1673e-08
3.39406e-06
1.16263e-08
3.38243e-06
1.1628e-08
3.37075e-06
1.16817e-08
3.35896e-06
1.17893e-08
3.34699e-06
1.19683e-08
3.33478e-06
1.22126e-08
3.3222e-06
1.25767e-08
3.30919e-06
1.30112e-08
3.2955e-06
1.36857e-08
3.28112e-06
1.43876e-08
3.26547e-06
1.56432e-08
3.24878e-06
1.66964e-08
3.22961e-06
1.91688e-08
3.20902e-06
2.05881e-08
3.18314e-06
2.58784e-08
3.15581e-06
2.73299e-08
3.11601e-06
3.98037e-08
3.07619e-06
3.98192e-08
3.00366e-06
7.25284e-08
2.93574e-06
6.79222e-08
2.76297e-06
1.72769e-07
1.74474e-07
2.58849e-06
2.9354e-07
-4.50993e-07
6.57003e-07
-7.11074e-07
1.01164e-06
-7.57371e-07
1.36093e-06
-7.57958e-07
1.71143e-06
-7.51064e-07
2.06336e-06
-7.40186e-07
2.41282e-06
-7.22179e-07
2.75304e-06
-6.92364e-07
3.07447e-06
-6.45571e-07
3.36482e-06
-5.76623e-07
3.60942e-06
-4.80883e-07
3.79378e-06
-3.57418e-07
3.90389e-06
-2.07265e-07
3.92878e-06
-3.60275e-08
3.86514e-06
1.52126e-07
3.71164e-06
3.44907e-07
3.47286e-06
5.30455e-07
3.16113e-06
6.95258e-07
2.79344e-06
8.25046e-07
2.39521e-06
9.09023e-07
1.94968e-06
9.65794e-07
1.4632e-06
9.46584e-07
9.82667e-07
8.27624e-07
7.45613e-07
5.92883e-07
6.37665e-07
2.1853e-07
-4.46326e-08
2.64696e-07
-1.29272e-06
1.0702e-06
-2.87625e-06
1.57491e-06
-4.31191e-06
1.76383e-06
-5.28011e-06
1.9894e-06
-6.05008e-06
2.07802e-06
-6.81052e-06
2.02651e-06
-7.52291e-06
1.90587e-06
-8.17893e-06
1.7547e-06
-8.77267e-06
1.5935e-06
-9.30801e-06
1.43651e-06
-9.7883e-06
1.28641e-06
-1.02185e-05
1.14658e-06
-1.06016e-05
1.01464e-06
-1.09399e-05
8.89792e-07
-1.12341e-05
7.69177e-07
-1.1484e-05
6.51421e-07
-1.1689e-05
5.349e-07
-1.18479e-05
4.19286e-07
-1.19606e-05
3.04901e-07
-1.20272e-05
1.9294e-07
-1.20479e-05
8.33461e-08
-1.20225e-05
-2.34523e-08
-1.19514e-05
-1.20404e-07
-1.18377e-05
-2.10809e-07
-1.16848e-05
-2.92188e-07
-1.14973e-05
-3.6302e-07
-1.1281e-05
-4.22584e-07
-1.10412e-05
-4.70915e-07
-1.07832e-05
-5.08631e-07
-1.05118e-05
-5.36831e-07
-1.02309e-05
-5.56936e-07
-9.94369e-06
-5.70586e-07
-9.65234e-06
-5.79469e-07
-9.35836e-06
-5.85203e-07
-9.06253e-06
-5.89207e-07
-8.76507e-06
-5.92644e-07
-8.46577e-06
-5.96406e-07
-8.16416e-06
-6.01154e-07
-7.85949e-06
-6.07413e-07
-7.55078e-06
-6.15724e-07
-7.23669e-06
-6.26754e-07
-6.91544e-06
-6.413e-07
-6.58481e-06
-6.60173e-07
-6.24223e-06
-6.83907e-07
-5.88514e-06
-7.12439e-07
-5.51132e-06
-7.44965e-07
-5.11937e-06
-7.79957e-07
-4.70898e-06
-8.15277e-07
-4.28122e-06
-8.4835e-07
-3.83856e-06
-8.76566e-07
-3.38463e-06
-8.97744e-07
-2.92388e-06
-9.10347e-07
-2.46119e-06
-9.13575e-07
-2.00133e-06
-9.0761e-07
-1.54841e-06
-8.93612e-07
-1.1059e-06
-8.72853e-07
-6.76517e-07
-8.46551e-07
-2.6252e-07
-8.1604e-07
1.34763e-07
-7.82044e-07
5.13759e-07
-7.45849e-07
8.73715e-07
-7.07534e-07
1.21393e-06
-6.67811e-07
1.53398e-06
-6.27229e-07
1.83369e-06
-5.86299e-07
2.11314e-06
-5.45497e-07
2.3726e-06
-5.05231e-07
2.61248e-06
-4.65821e-07
2.83334e-06
-4.275e-07
3.03578e-06
-3.90444e-07
3.22054e-06
-3.54818e-07
3.38846e-06
-3.20813e-07
3.54052e-06
-2.88651e-07
3.67784e-06
-2.58559e-07
3.80164e-06
-2.30731e-07
3.91317e-06
-2.05293e-07
4.01368e-06
-1.82285e-07
4.10436e-06
-1.61661e-07
4.18629e-06
-1.43307e-07
4.2605e-06
-1.27058e-07
4.32787e-06
-1.12713e-07
4.38922e-06
-1.00067e-07
4.44526e-06
-8.89142e-08
4.49663e-06
-7.90633e-08
4.54389e-06
-7.03459e-08
4.58753e-06
-6.25899e-08
4.62799e-06
-5.56374e-08
4.66559e-06
-4.93417e-08
4.70066e-06
-4.35322e-08
4.73341e-06
-3.80546e-08
4.76396e-06
-3.28101e-08
4.79252e-06
-2.76867e-08
4.81936e-06
-2.25647e-08
4.84448e-06
-1.74419e-08
4.86778e-06
-1.23569e-08
4.88917e-06
-7.34639e-09
4.90852e-06
-2.49941e-09
4.92573e-06
2.05271e-09
4.94071e-06
6.27738e-09
4.95345e-06
1.00662e-08
4.96402e-06
1.3369e-08
4.97249e-06
1.61888e-08
4.97898e-06
1.8529e-08
4.98364e-06
2.04152e-08
4.98661e-06
2.19002e-08
4.98808e-06
2.30197e-08
4.98819e-06
2.38254e-08
4.9871e-06
2.43739e-08
4.98495e-06
2.471e-08
4.98186e-06
2.48757e-08
4.97796e-06
2.49106e-08
4.97334e-06
2.48469e-08
4.9681e-06
2.47102e-08
4.96232e-06
2.45232e-08
4.95606e-06
2.43049e-08
4.9494e-06
2.40704e-08
4.94238e-06
2.38291e-08
4.93505e-06
2.35866e-08
4.92745e-06
2.3348e-08
4.91962e-06
2.31212e-08
4.9116e-06
2.29147e-08
4.9034e-06
2.27309e-08
4.89507e-06
2.25607e-08
4.88662e-06
2.2386e-08
4.87807e-06
2.21884e-08
4.86943e-06
2.19606e-08
4.86071e-06
2.17106e-08
4.85191e-06
2.14582e-08
4.84306e-06
2.12254e-08
4.83414e-06
2.10285e-08
4.82518e-06
2.08745e-08
4.81619e-06
2.07663e-08
4.80715e-06
2.07055e-08
4.79808e-06
2.07024e-08
4.78894e-06
2.07649e-08
4.7797e-06
2.09195e-08
4.77032e-06
2.11675e-08
4.76073e-06
2.15578e-08
4.75089e-06
2.20583e-08
4.74068e-06
2.27855e-08
4.73008e-06
2.36149e-08
4.71889e-06
2.48687e-08
4.70714e-06
2.61447e-08
4.69444e-06
2.8342e-08
4.68091e-06
3.02256e-08
4.66575e-06
3.43255e-08
4.64935e-06
3.69867e-08
4.62995e-06
4.52764e-08
4.60853e-06
4.87507e-08
4.58124e-06
6.70994e-08
4.54973e-06
7.13311e-08
4.5057e-06
1.16555e-07
4.44892e-06
1.24704e-07
4.37106e-06
2.50628e-07
2.88437e-07
4.2571e-06
3.38142e-07
-7.89135e-07
6.48383e-07
-1.02131e-06
9.36624e-07
-1.04561e-06
1.23298e-06
-1.05431e-06
1.54469e-06
-1.06277e-06
1.86965e-06
-1.06515e-06
2.20233e-06
-1.05486e-06
2.53409e-06
-1.02412e-06
2.8526e-06
-9.64078e-07
3.14211e-06
-8.6614e-07
3.38402e-06
-7.22786e-07
3.55951e-06
-5.32907e-07
3.65157e-06
-2.99325e-07
3.64752e-06
-3.19811e-08
3.53506e-06
2.64581e-07
3.31685e-06
5.63121e-07
3.0024e-06
8.44904e-07
2.6062e-06
1.09146e-06
2.14012e-06
1.29113e-06
1.61526e-06
1.43388e-06
1.04678e-06
1.53428e-06
5.05075e-07
1.48829e-06
1.13812e-07
1.21889e-06
-2.85104e-07
9.918e-07
-1.41373e-06
1.34716e-06
-3.14119e-06
1.99215e-06
-4.38448e-06
2.31349e-06
-5.34696e-06
2.5374e-06
-6.20854e-06
2.62541e-06
-6.86394e-06
2.6448e-06
-7.33986e-06
2.55394e-06
-7.74507e-06
2.43171e-06
-8.1168e-06
2.2776e-06
-8.47936e-06
2.11727e-06
-8.83829e-06
1.95243e-06
-9.19543e-06
1.79365e-06
-9.54813e-06
1.63911e-06
-9.89195e-06
1.4904e-06
-1.0221e-05
1.34371e-06
-1.05289e-05
1.19765e-06
-1.08089e-05
1.04921e-06
-1.10548e-05
8.97263e-07
-1.12607e-05
7.40833e-07
-1.14219e-05
5.80508e-07
-1.15348e-05
4.17745e-07
-1.1597e-05
2.55178e-07
-1.1609e-05
9.53697e-08
-1.15734e-05
-5.90894e-08
-1.14878e-05
-2.05968e-07
-1.1359e-05
-3.39661e-07
-1.1193e-05
-4.58174e-07
-1.09959e-05
-5.60105e-07
-1.07737e-05
-6.44785e-07
-1.05321e-05
-7.12464e-07
-1.02765e-05
-7.64261e-07
-1.00113e-05
-8.0205e-07
-9.74005e-06
-8.28182e-07
-9.46536e-06
-8.45273e-07
-9.18892e-06
-8.55906e-07
-8.91165e-06
-8.62478e-07
-8.63383e-06
-8.67022e-07
-8.35536e-06
-8.71114e-07
-8.07591e-06
-8.75866e-07
-7.79498e-06
-8.82084e-07
-7.51196e-06
-8.90426e-07
-7.22609e-06
-9.01597e-07
-6.9362e-06
-9.16643e-07
-6.64051e-06
-9.36991e-07
-6.33651e-06
-9.6417e-07
-6.02113e-06
-9.99296e-07
-5.69104e-06
-1.04252e-06
-5.3433e-06
-1.09271e-06
-4.97574e-06
-1.14752e-06
-4.58746e-06
-1.20355e-06
-4.1792e-06
-1.25661e-06
-3.75339e-06
-1.30238e-06
-3.31383e-06
-1.33731e-06
-2.86514e-06
-1.35904e-06
-2.41225e-06
-1.36647e-06
-1.96e-06
-1.35986e-06
-1.5126e-06
-1.34101e-06
-1.07377e-06
-1.31168e-06
-6.46521e-07
-1.2738e-06
-2.33242e-07
-1.22932e-06
1.64342e-07
-1.17963e-06
5.4403e-07
-1.12554e-06
9.0469e-07
-1.06819e-06
1.24543e-06
-1.00856e-06
1.56579e-06
-9.47581e-07
1.86564e-06
-8.86152e-07
2.1452e-06
-8.25056e-07
2.40489e-06
-7.64922e-07
2.64523e-06
-7.06159e-07
2.8667e-06
-6.48971e-07
3.06968e-06
-5.93427e-07
3.25446e-06
-5.396e-07
3.42135e-06
-4.87699e-07
3.57085e-06
-4.38147e-07
3.70384e-06
-3.91555e-07
3.82169e-06
-3.48578e-07
3.92613e-06
-3.09729e-07
4.01908e-06
-2.75242e-07
4.10245e-06
-2.45024e-07
4.17787e-06
-2.18725e-07
4.24666e-06
-1.95851e-07
4.30983e-06
-1.75882e-07
4.36811e-06
-1.58353e-07
4.42209e-06
-1.42887e-07
4.47222e-06
-1.29194e-07
4.51892e-06
-1.17046e-07
4.56258e-06
-1.06247e-07
4.60355e-06
-9.6615e-08
4.64217e-06
-8.79551e-08
4.6787e-06
-8.00617e-08
4.71337e-06
-7.27263e-08
4.7463e-06
-6.57445e-08
4.77757e-06
-5.89528e-08
4.80722e-06
-5.22163e-08
4.83524e-06
-4.54611e-08
4.86157e-06
-3.8693e-08
4.88618e-06
-3.195e-08
4.90901e-06
-2.5334e-08
4.93004e-06
-1.89773e-08
4.94927e-06
-1.29508e-08
4.96668e-06
-7.3458e-09
4.98229e-06
-2.23925e-09
4.99614e-06
2.33867e-09
5.0083e-06
6.36721e-09
5.01886e-06
9.86201e-09
5.02789e-06
1.28709e-08
5.0355e-06
1.5405e-08
5.0418e-06
1.75276e-08
5.04687e-06
1.92978e-08
5.05082e-06
2.07615e-08
5.05373e-06
2.19682e-08
5.05568e-06
2.29635e-08
5.05674e-06
2.37849e-08
5.05698e-06
2.44652e-08
5.05648e-06
2.50318e-08
5.05527e-06
2.55079e-08
5.05343e-06
2.59125e-08
5.051e-06
2.62603e-08
5.04802e-06
2.65616e-08
5.04455e-06
2.68246e-08
5.04061e-06
2.7058e-08
5.03626e-06
2.72704e-08
5.03152e-06
2.7467e-08
5.02643e-06
2.76456e-08
5.02102e-06
2.77962e-08
5.01531e-06
2.79072e-08
5.00929e-06
2.79743e-08
5.003e-06
2.80049e-08
4.99644e-06
2.80179e-08
4.98963e-06
2.80342e-08
4.98259e-06
2.80712e-08
4.97532e-06
2.81365e-08
4.96785e-06
2.82359e-08
4.96019e-06
2.83702e-08
4.95234e-06
2.85565e-08
4.9443e-06
2.88022e-08
4.93607e-06
2.91489e-08
4.92764e-06
2.95949e-08
4.91898e-06
3.0216e-08
4.91008e-06
3.09644e-08
4.90086e-06
3.20036e-08
4.8913e-06
3.31699e-08
4.8813e-06
3.48693e-08
4.87082e-06
3.663e-08
4.85968e-06
3.94838e-08
4.84777e-06
4.21282e-08
4.8349e-06
4.7204e-08
4.82067e-06
5.12095e-08
4.80505e-06
6.08957e-08
4.78666e-06
6.71417e-08
4.76659e-06
8.71694e-08
4.73983e-06
9.8098e-08
4.71295e-06
1.43428e-07
4.66919e-06
1.68463e-07
4.63943e-06
2.80388e-07
3.53293e-07
4.57458e-06
2.89025e-07
-1.07816e-06
5.23652e-07
-1.25594e-06
7.59373e-07
-1.28133e-06
1.01316e-06
-1.3081e-06
1.28644e-06
-1.33606e-06
1.57781e-06
-1.35651e-06
1.88194e-06
-1.35899e-06
2.18799e-06
-1.33017e-06
2.48085e-06
-1.25695e-06
2.74171e-06
-1.127e-06
2.94986e-06
-9.30934e-07
3.08451e-06
-6.67557e-07
3.12769e-06
-3.42504e-07
3.0707e-06
2.50052e-08
2.88699e-06
4.48299e-07
2.58885e-06
8.61254e-07
2.18486e-06
1.2489e-06
1.68926e-06
1.58705e-06
1.13261e-06
1.84779e-06
5.67924e-07
1.99856e-06
7.1431e-08
2.03077e-06
-3.7506e-07
1.93478e-06
-1.06639e-06
1.91022e-06
-2.33479e-06
2.2602e-06
-3.7462e-06
2.75857e-06
-4.79664e-06
3.04258e-06
-5.61373e-06
3.13059e-06
-6.22337e-06
3.14704e-06
-6.6891e-06
3.09114e-06
-7.03904e-06
2.99473e-06
-7.33531e-06
2.85022e-06
-7.5996e-06
2.696e-06
-7.85685e-06
2.53485e-06
-8.12261e-06
2.38303e-06
-8.405e-06
2.23482e-06
-8.70332e-06
2.09197e-06
-9.01315e-06
1.94894e-06
-9.32687e-06
1.80412e-06
-9.63616e-06
1.653e-06
-9.93183e-06
1.49331e-06
-1.02048e-05
1.32217e-06
-1.0446e-05
1.13852e-06
-1.06473e-05
9.42121e-07
-1.08015e-05
7.34664e-07
-1.09029e-05
5.19191e-07
-1.09482e-05
3.00453e-07
-1.09383e-05
8.54822e-08
-1.08705e-05
-1.26927e-07
-1.07485e-05
-3.27981e-07
-1.05787e-05
-5.09404e-07
-1.03686e-05
-6.68291e-07
-1.01264e-05
-8.02306e-07
-9.86076e-06
-9.10433e-07
-9.57993e-06
-9.93292e-07
-9.29125e-06
-1.05294e-06
-9.00074e-06
-1.09256e-06
-8.71285e-06
-1.11607e-06
-8.43051e-06
-1.12761e-06
-8.1552e-06
-1.13122e-06
-7.88721e-06
-1.13046e-06
-7.62598e-06
-1.12826e-06
-7.37038e-06
-1.12671e-06
-7.11919e-06
-1.12705e-06
-6.87126e-06
-1.13002e-06
-6.6253e-06
-1.13638e-06
-6.38028e-06
-1.14663e-06
-6.13484e-06
-1.16207e-06
-5.88683e-06
-1.18501e-06
-5.63285e-06
-1.21815e-06
-5.36856e-06
-1.26358e-06
-5.08934e-06
-1.32174e-06
-4.79111e-06
-1.39094e-06
-4.47107e-06
-1.46756e-06
-4.12826e-06
-1.54636e-06
-3.76394e-06
-1.62092e-06
-3.38159e-06
-1.68473e-06
-2.98608e-06
-1.73282e-06
-2.58239e-06
-1.76273e-06
-2.17449e-06
-1.77437e-06
-1.76488e-06
-1.76947e-06
-1.35521e-06
-1.75068e-06
-9.47044e-07
-1.71985e-06
-5.4268e-07
-1.67816e-06
-1.45451e-07
-1.62655e-06
2.42425e-07
-1.5675e-06
6.16194e-07
-1.49931e-06
9.7313e-07
-1.42513e-06
1.31117e-06
-1.3466e-06
1.62904e-06
-1.26545e-06
1.92629e-06
-1.18339e-06
2.20314e-06
-1.10191e-06
2.46034e-06
-1.02212e-06
2.6989e-06
-9.44722e-07
2.91986e-06
-8.69932e-07
3.12411e-06
-7.97674e-07
3.31223e-06
-7.27717e-07
3.48438e-06
-6.59852e-07
3.64031e-06
-5.94076e-07
3.77953e-06
-5.3078e-07
3.90178e-06
-4.70829e-07
4.00747e-06
-4.15417e-07
4.09795e-06
-3.6572e-07
4.17543e-06
-3.22507e-07
4.24259e-06
-2.85888e-07
4.30207e-06
-2.55331e-07
4.35607e-06
-2.29878e-07
4.40616e-06
-2.08445e-07
4.45333e-06
-1.90058e-07
4.49812e-06
-1.7398e-07
4.54078e-06
-1.59713e-07
4.58148e-06
-1.46939e-07
4.6203e-06
-1.35435e-07
4.65735e-06
-1.25005e-07
4.69273e-06
-1.15445e-07
4.72653e-06
-1.06524e-07
4.75879e-06
-9.80054e-08
4.78952e-06
-8.96869e-08
4.8187e-06
-8.13984e-08
4.84627e-06
-7.30286e-08
4.87214e-06
-6.45635e-08
4.89625e-06
-5.60552e-08
4.91851e-06
-4.7597e-08
4.93887e-06
-3.93336e-08
4.95732e-06
-3.14016e-08
4.97389e-06
-2.39164e-08
4.98863e-06
-1.69786e-08
5.00162e-06
-1.06561e-08
5.01297e-06
-4.98055e-09
5.02279e-06
4.05004e-11
5.03117e-06
4.49532e-09
5.03823e-06
8.33782e-09
5.04409e-06
1.1672e-08