/*--------------------------------*- C++ -*----------------------------------*\
  =========                 |
  \\      /  F ield         | OpenFOAM: The Open Source CFD Toolbox
   \\    /   O peration     | Website:  https://openfoam.org
    \\  /    A nd           | Version:  9
     \\/     M anipulation  |
\*---------------------------------------------------------------------------*/
FoamFile
{
    format      ascii;
    class       volScalarField;
    location    "0.021";
    object      s;
}
// * * * * * * * * * * * * * * * * * * * * * * * * * * * * * * * * * * * * * //

dimensions      [0 0 0 0 0 0 0];

internalField   nonuniform List<scalar> 
12225
(
1
1
1
1
1
1
1
1
1
1
1
1
1
1
1
1
1
0.999927
1
1
1
1
1
1
1
1
1
1
1
1
1
1
1
1
1
0.999997
1
1
1
1
1
1
1
1
1
1
1
1
1
1
1
1
1
1
1
1
1
1
1
1
1
1
1
1
1
1
1
1
1
1
1
1
1
1
1
1
1
1
1
1
1
1
1
1
1
1
1
1
1
1
1
1
1
1
1
1
1
1
1
1
1
1
1
1
1
1
1
1
1
1
1
1
1
1
1
1
1
1
1
1
1
1
1
1
1
1
1
1
1
1
1
1
1
1
1
1
1
1
1
1
1
1
1
1
1
1
1
1
1
1
1
1
1
1
1
1
1
1
1
1
1
1
1
1
1
1
1
1
1
1
1
1
1
1
1
1
1
1
1
1
1
1
1
1
1
1
1
1
1
1
1
1
1
1
1
1
1
1
1
1
1
1
1
1
1
1
1
1
1
1
1
1
1
1
1
1
1
1
1
1
1
1
1
1
1
1
1
1
1
1
1
1
1
1
1
1
1
1
1
1
1
1
1
1
1
1
1
1
1
1
1
1
1
1
1
1
1
1
1
1
1
1
1
1
1
1
1
1
1
1
1
1
1
1
1
1
1
1
1
1
1
1
1
1
1
1
1
1
1
1
1
1
1
1
1
1
1
1
1
1
1
1
1
1
1
1
1
1
1
1
1
1
1
1
1
1
1
1
1
1
1
1
1
1
1
1
1
1
1
1
1
1
1
1
1
1
1
1
1
1
1
1
1
1
1
1
1
1
1
1
1
1
1
1
1
1
1
1
1
1
1
1
1
1
1
1
1
1
1
1
1
1
1
1
1
1
1
1
1
1
1
1
1
1
1
1
1
1
1
1
1
1
1
1
1
1
1
1
1
1
1
1
1
1
1
1
1
1
1
1
1
1
1
1
1
1
1
1
1
1
1
1
1
1
1
1
1
1
1
1
1
1
1
1
1
1
1
1
1
1
1
1
1
1
1
1
1
1
1
1
1
1
1
1
1
1
1
1
1
1
1
1
1
1
1
1
1
1
1
1
1
1
1
1
1
1
1
1
1
1
1
1
1
1
1
1
1
1
1
1
1
1
1
1
1
1
1
1
1
1
1
1
1
1
1
1
1
1
1
1
1
1
1
1
1
1
1
1
1
1
1
1
1
1
1
1
1
1
1
1
1
1
1
1
1
1
1
1
1
1
1.84096e-06
1.20474e-05
4.55677e-05
0.000123636
0.000278167
0.000592652
0.00110709
0.00180811
0.00247198
0.0031643
0.00373652
0.00390866
0.00380847
0.00350981
0.00306637
0.00266436
0.0022917
0.00194359
0.00160723
0.00128455
0.000954123
0.000644329
0.000378031
0.000151295
0.000140252
0.00425502
0.0212249
0.0186671
0.0817517
0.445278
0.589379
0.622882
0.639449
0.652135
0.662391
0.67093
0.680968
0.685696
0.689837
0.69821
0.705317
0.708438
0.712391
0.718519
0.722501
0.724712
0.728063
0.73195
0.734388
0.73588
0.737151
0.737527
0.737568
0.736344
0.73502
0.734558
0.734087
0.733205
0.731674
0.729577
0.728473
0.72713
0.725744
0.724967
0.723284
0.721708
0.720656
0.718584
0.716451
0.713884
0.710873
0.70681
0.701906
0.696107
0.689096
0.680646
0.670424
0.658208
0.643806
0.627378
0.607787
0.586244
0.562033
0.535303
0.505705
0.473412
0.438428
0.400949
0.361326
0.320081
0.277989
0.23611
0.195914
0.159287
0.128133
0.102252
0.0794639
0.059827
0.0436398
0.0309203
0.0213281
0.0143089
0.00932303
0.00589967
0.0036278
0.0021683
0.00125983
0.000711621
0.000390764
0.000208592
0.000108211
5.45295e-05
2.66807e-05
1.26616e-05
5.82259e-06
2.58813e-06
1.11642e-06
4.72064e-07
1.95637e-07
7.94209e-08
3.15598e-08
1.22659e-08
4.6622e-09
1.73353e-09
6.30744e-10
2.24648e-10
7.83482e-11
2.67662e-11
8.96019e-12
2.94004e-12
9.4582e-13
2.98387e-13
9.2332e-14
2.8028e-14
8.34751e-15
2.43946e-15
6.99594e-16
1.96902e-16
5.43926e-17
1.47486e-17
3.9257e-18
1.02582e-18
2.6318e-19
6.62978e-20
1.64003e-20
3.98429e-21
9.50697e-22
2.22827e-22
5.13072e-23
1.16072e-23
2.58034e-24
5.63751e-25
1.21066e-25
2.55589e-26
5.3052e-27
1.0828e-27
2.17337e-28
4.29037e-29
8.33057e-30
1.59116e-30
2.98982e-31
5.52717e-32
1.00533e-32
1.79923e-33
3.1684e-34
5.48997e-35
9.35976e-36
1.56998e-36
2.59069e-37
4.20485e-38
6.71125e-39
1.05294e-39
1.62317e-40
2.45649e-41
3.6466e-42
5.29917e-43
7.5251e-44
1.03841e-44
1.38636e-45
1.63513e-46
2.3614e-05
0.000123385
0.00048306
0.00139243
0.00335124
0.0073738
0.0134514
0.0200754
0.0261781
0.0311569
0.0350813
0.0349973
0.0338715
0.0311755
0.0265925
0.0213184
0.0159386
0.0110055
0.00705668
0.00427189
0.00234176
0.00127432
0.000709058
0.000279803
0.00085413
0.0266981
0.25117
0.430711
0.502756
0.615489
0.666528
0.712885
0.74338
0.775474
0.793585
0.820036
0.833669
0.84755
0.855859
0.868055
0.874256
0.881153
0.884349
0.885919
0.886349
0.885628
0.881895
0.878456
0.875673
0.874122
0.873502
0.873466
0.87555
0.877356
0.881809
0.886578
0.891752
0.897556
0.901819
0.906402
0.911229
0.915791
0.919873
0.924053
0.9278
0.931908
0.936752
0.940069
0.943708
0.947759
0.951308
0.953698
0.956572
0.95907
0.961451
0.964462
0.966575
0.96805
0.969929
0.971202
0.972011
0.971983
0.970616
0.967982
0.963899
0.958143
0.950351
0.939999
0.926459
0.908943
0.886306
0.85712
0.819512
0.771199
0.710027
0.636417
0.553675
0.464344
0.373046
0.287206
0.214849
0.158176
0.113138
0.0784182
0.0527922
0.0345579
0.0219933
0.0136094
0.00818995
0.00479402
0.00272993
0.00151236
0.000815075
0.000427257
0.000217771
0.000107897
5.19394e-05
2.42779e-05
1.10177e-05
4.85476e-06
2.07747e-06
8.63347e-07
3.4952e-07
1.38171e-07
5.33505e-08
2.0125e-08
7.41869e-09
2.67321e-09
9.41811e-10
3.24503e-10
1.09369e-10
3.60644e-11
1.16377e-11
3.67572e-12
1.13657e-12
3.44124e-13
1.02044e-13
2.96413e-14
8.43597e-15
2.3528e-15
6.43182e-16
1.72372e-16
4.5297e-17
1.16741e-17
2.95132e-18
7.32021e-19
1.78167e-19
4.25607e-20
9.98041e-21
2.29788e-21
5.19549e-22
1.15378e-22
2.51701e-23
5.3949e-24
1.13627e-24
2.35204e-25
4.78554e-26
9.57197e-27
1.88241e-27
3.64019e-28
6.92278e-29
1.29487e-29
2.38229e-30
4.31141e-31
7.67562e-32
1.34429e-32
2.31606e-33
3.92539e-34
6.54401e-35
1.07305e-35
1.7301e-36
2.74275e-37
4.2719e-38
6.5377e-39
9.81119e-40
1.4448e-40
2.07646e-41
2.91898e-42
3.94994e-43
5.1503e-44
0.000125252
0.000674092
0.00282142
0.00853147
0.0216244
0.0457735
0.0734321
0.097925
0.116196
0.127894
0.134515
0.13304
0.126008
0.11068
0.0931766
0.0757676
0.0593671
0.0436049
0.0292212
0.017364
0.00857343
0.00279145
0.00093355
0.00875153
0.141442
0.444693
0.570777
0.650811
0.71913
0.758808
0.787198
0.805769
0.814895
0.822687
0.826469
0.829242
0.829929
0.827808
0.814548
0.800063
0.775706
0.75689
0.737767
0.72082
0.705688
0.689847
0.677359
0.6697
0.663581
0.659255
0.655088
0.652966
0.651439
0.651001
0.65339
0.659655
0.667485
0.676784
0.686889
0.700044
0.715363
0.730225
0.745007
0.761989
0.777893
0.792317
0.810035
0.824119
0.837828
0.85381
0.866761
0.877426
0.890344
0.903077
0.91543
0.928959
0.940303
0.949321
0.959185
0.968464
0.975398
0.981292
0.98578
0.989066
0.991353
0.992877
0.993872
0.994534
0.994843
0.994742
0.994055
0.992615
0.990269
0.986555
0.980802
0.971877
0.957819
0.935125
0.89788
0.838128
0.749276
0.633929
0.505719
0.38061
0.274573
0.193243
0.131816
0.0870611
0.055734
0.0345967
0.0208319
0.0121717
0.00690232
0.0037993
0.00202983
0.00105247
0.000529504
0.000258445
0.000122367
5.62054e-05
2.50493e-05
1.08367e-05
4.55249e-06
1.85818e-06
7.37505e-07
2.8482e-07
1.07301e-07
3.94944e-08
1.4208e-08
4.99751e-09
1.71929e-09
5.78697e-10
1.90627e-10
6.14691e-11
1.94075e-11
6.00087e-12
1.81752e-12
5.39318e-13
1.56816e-13
4.46878e-14
1.24829e-14
3.41851e-15
9.17963e-16
2.4174e-16
6.24416e-17
1.58223e-17
3.93366e-18
9.59682e-19
2.29788e-19
5.40086e-20
1.24624e-20
2.82364e-21
6.28265e-22
1.37297e-22
2.94727e-23
6.21547e-24
1.28788e-24
2.62228e-25
5.24728e-26
1.03203e-26
1.99525e-27
3.79221e-28
7.08625e-29
1.30199e-29
2.35226e-30
4.17909e-31
7.30126e-32
1.25445e-32
2.11937e-33
3.52108e-34
5.75074e-35
9.2341e-36
1.45656e-36
2.25778e-37
3.432e-38
5.12164e-39
7.46352e-40
1.06546e-40
1.46965e-41
1.9727e-42
0.000397215
0.00253413
0.011349
0.0350457
0.0904437
0.16088
0.219455
0.252768
0.26972
0.270417
0.258363
0.226715
0.186956
0.15008
0.119186
0.0933487
0.0684183
0.046633
0.029842
0.0170883
0.00756478
0.00379016
0.02423
0.163791
0.51149
0.655252
0.719197
0.765457
0.788613
0.800536
0.806256
0.808343
0.808555
0.800394
0.782517
0.755465
0.72269
0.695627
0.66981
0.653366
0.639638
0.632664
0.624378
0.620468
0.615776
0.613182
0.609204
0.606868
0.604454
0.602149
0.599536
0.595285
0.590123
0.58424
0.579771
0.57793
0.57733
0.577276
0.578354
0.58304
0.591351
0.60161
0.6149
0.632542
0.650023
0.666423
0.684463
0.700119
0.712853
0.725601
0.735872
0.743461
0.751905
0.760505
0.772012
0.78696
0.805988
0.826037
0.852671
0.881438
0.911014
0.93456
0.954005
0.968988
0.979724
0.987011
0.99161
0.994343
0.995941
0.99693
0.997571
0.998017
0.998339
0.998522
0.998572
0.998521
0.998223
0.997406
0.995898
0.992943
0.986832
0.973876
0.944967
0.880033
0.772261
0.630096
0.477568
0.341176
0.23554
0.157004
0.101044
0.0628439
0.0377966
0.0219923
0.0123833
0.00674832
0.00355936
0.00181707
0.000897881
0.000429526
0.000198983
8.93105e-05
3.88608e-05
1.64043e-05
6.72338e-06
2.6778e-06
1.03712e-06
3.90876e-07
1.43515e-07
5.14398e-08
1.80087e-08
6.16102e-09
2.06059e-09
6.73998e-10
2.15676e-10
6.75391e-11
2.07034e-11
6.21407e-12
1.82669e-12
5.26025e-13
1.48421e-13
4.10416e-14
1.11243e-14
2.95616e-15
7.70312e-16
1.96864e-16
4.93517e-17
1.2138e-17
2.92938e-18
6.93836e-19
1.61311e-19
3.68179e-20
8.25103e-21
1.81581e-21
3.92467e-22
8.33229e-23
1.73783e-23
3.56112e-24
7.17056e-25
1.41891e-25
2.75952e-26
5.27516e-27
9.91276e-28
1.83125e-28
3.32599e-29
5.93941e-30
1.04285e-30
1.80042e-31
3.05609e-32
5.10055e-33
8.36754e-34
1.3494e-34
2.13759e-35
3.32693e-36
5.07845e-37
7.60796e-38
1.11393e-38
1.59684e-39
2.2207e-40
3.0075e-41
0.000914743
0.00711986
0.033477
0.10315
0.240322
0.335226
0.374072
0.380642
0.373329
0.346386
0.291287
0.222394
0.155881
0.111051
0.0814735
0.0657732
0.0516666
0.0359899
0.0223481
0.0131592
0.0103689
0.0355983
0.176322
0.537832
0.693387
0.752604
0.779264
0.791468
0.795806
0.7971
0.792634
0.775236
0.741414
0.698436
0.669361
0.646905
0.636233
0.626655
0.621937
0.619555
0.618656
0.618496
0.618558
0.618457
0.618573
0.620094
0.621576
0.622537
0.623946
0.62637
0.629552
0.632054
0.633881
0.63623
0.637355
0.637206
0.632441
0.627087
0.624225
0.624081
0.624388
0.626115
0.631713
0.642229
0.653815
0.666921
0.681578
0.694487
0.704123
0.712597
0.718318
0.721179
0.723221
0.723667
0.724841
0.727494
0.731474
0.736079
0.742555
0.75381
0.774059
0.8102
0.856381
0.901531
0.934556
0.959058
0.975346
0.985495
0.991458
0.994844
0.99673
0.997782
0.998386
0.998773
0.999054
0.999266
0.999418
0.999512
0.999546
0.999533
0.999419
0.999019
0.997933
0.995209
0.988464
0.971173
0.923993
0.803696
0.639391
0.471261
0.327919
0.219328
0.141078
0.087374
0.0521467
0.0300084
0.0166573
0.00892169
0.00461218
0.00230222
0.00111016
0.000517489
0.000233357
0.000101889
4.31146e-05
1.76986e-05
7.0549e-06
2.73339e-06
1.03025e-06
3.77976e-07
1.3516e-07
4.71724e-08
1.60775e-08
5.35354e-09
1.74238e-09
5.5448e-10
1.72594e-10
5.25659e-11
1.56693e-11
4.57283e-12
1.30684e-12
3.65822e-13
1.00329e-13
2.69647e-14
7.10335e-15
1.83451e-15
4.64574e-16
1.15385e-16
2.81115e-17
6.71954e-18
1.57614e-18
3.62843e-19
8.19945e-20
1.8191e-20
3.96278e-21
8.47766e-22
1.78133e-22
3.67673e-23
7.4556e-24
1.48546e-24
2.90832e-25
5.59592e-26
1.05826e-26
1.96715e-27
3.5945e-28
6.45693e-29
1.14027e-29
1.97972e-30
3.37895e-31
5.66962e-32
9.34999e-33
1.5155e-33
2.4128e-34
3.77328e-35
5.78835e-36
8.71108e-37
1.28235e-37
1.84729e-38
2.58982e-39
3.53764e-40
0.00174285
0.015735
0.0746978
0.221871
0.379205
0.435784
0.442801
0.441313
0.421718
0.357481
0.257631
0.162971
0.0931197
0.0552508
0.0412791
0.0342656
0.0288505
0.0239382
0.0214123
0.024246
0.0618295
0.206036
0.556317
0.709837
0.763416
0.782169
0.788038
0.789426
0.78504
0.766253
0.725194
0.67342
0.647425
0.630444
0.621767
0.617264
0.615446
0.614823
0.614712
0.61413
0.613405
0.613055
0.612325
0.610853
0.608885
0.607067
0.606091
0.605725
0.60831
0.612684
0.619324
0.627118
0.634392
0.642641
0.6531
0.663576
0.670661
0.67798
0.68558
0.694408
0.700782
0.711023
0.721952
0.733625
0.743521
0.751544
0.755725
0.757355
0.757239
0.75275
0.742552
0.731125
0.722902
0.71921
0.717241
0.716501
0.718116
0.721266
0.724673
0.726132
0.726167
0.72714
0.736104
0.76518
0.821038
0.883331
0.929802
0.959982
0.977884
0.987949
0.99341
0.996302
0.997808
0.998597
0.99903
0.999294
0.999469
0.999598
0.999699
0.999778
0.999824
0.999838
0.999828
0.999759
0.999503
0.998703
0.996323
0.989346
0.968613
0.904306
0.740857
0.552647
0.385787
0.257128
0.164077
0.100412
0.0590004
0.0333141
0.0180893
0.00945275
0.00475756
0.0023083
0.00108074
0.00048882
0.00021383
9.05703e-05
3.71874e-05
1.48176e-05
5.73556e-06
2.15882e-06
7.90707e-07
2.82081e-07
9.81504e-08
3.33298e-08
1.10516e-08
3.57995e-09
1.13336e-09
3.50809e-10
1.06204e-10
3.1457e-11
9.11884e-12
2.58781e-12
7.19138e-13
1.95746e-13
5.2201e-14
1.36419e-14
3.49442e-15
8.77556e-16
2.16106e-16
5.21958e-17
1.23671e-17
2.87503e-18
6.559e-19
1.46868e-19
3.22832e-20
6.96721e-21
1.47651e-21
3.07306e-22
6.28236e-23
1.26167e-23
2.48941e-24
4.82633e-25
9.19505e-26
1.72166e-26
3.16834e-27
5.73107e-28
1.019e-28
1.78099e-29
3.05973e-30
5.16695e-31
8.57496e-32
1.39846e-32
2.24019e-33
3.52429e-34
5.4397e-35
8.2352e-36
1.22045e-36
1.76995e-37
2.50414e-38
3.45587e-39
0.00308598
0.0282953
0.12599
0.32276
0.440688
0.485696
0.509493
0.505607
0.454777
0.353627
0.236123
0.131626
0.0742903
0.0522007
0.0416458
0.0367733
0.035063
0.0404522
0.0623077
0.133486
0.330378
0.595673
0.72087
0.766735
0.780709
0.783655
0.783721
0.771606
0.739798
0.673676
0.637961
0.620197
0.612445
0.609314
0.608519
0.608668
0.608607
0.60769
0.604374
0.599421
0.590823
0.578013
0.560716
0.540078
0.523325
0.513885
0.509318
0.507997
0.510463
0.517529
0.524703
0.536331
0.548783
0.566525
0.586728
0.612841
0.636118
0.653564
0.670119
0.685553
0.696211
0.70951
0.723417
0.740146
0.755703
0.767219
0.77221
0.773702
0.772625
0.765232
0.750236
0.733607
0.719048
0.709446
0.702563
0.700015
0.701611
0.708456
0.719392
0.727455
0.730494
0.726264
0.717281
0.715132
0.722428
0.752359
0.818319
0.893148
0.942073
0.969709
0.984487
0.992134
0.996
0.997916
0.998849
0.999302
0.999533
0.999654
0.999726
0.999791
0.999851
0.999897
0.999925
0.999935
0.999932
0.999908
0.9998
0.99941
0.998088
0.993694
0.979267
0.931478
0.782158
0.575931
0.397513
0.261041
0.163527
0.0979045
0.0561026
0.0308104
0.0162366
0.00822138
0.00400532
0.0018801
0.000851528
0.000372648
0.000157788
6.47266e-05
2.57542e-05
9.9505e-06
3.73692e-06
1.3652e-06
4.85642e-07
1.68413e-07
5.69696e-08
1.88089e-08
6.06393e-09
1.90991e-09
5.87923e-10
1.76948e-10
5.20887e-11
1.50023e-11
4.22888e-12
1.16701e-12
3.15372e-13
8.34811e-14
2.16511e-14
5.50301e-15
1.37105e-15
3.34915e-16
8.02297e-17
1.88514e-17
4.34557e-18
9.82928e-19
2.18196e-19
4.75437e-20
1.01703e-20
2.13616e-21
4.40612e-22
8.92616e-23
1.77628e-23
3.47259e-24
6.67015e-25
1.25893e-25
2.33501e-26
4.25629e-27
7.6251e-28
1.34261e-28
2.32346e-29
3.95177e-30
6.60478e-31
1.08466e-31
1.7496e-32
2.77135e-33
4.30759e-34
6.56704e-35
9.80698e-36
1.43366e-36
2.04834e-37
2.85877e-38
0.00409961
0.03698
0.15652
0.372615
0.492626
0.539456
0.552801
0.54697
0.509346
0.434627
0.332608
0.219669
0.141877
0.109538
0.0969366
0.0947503
0.118326
0.17313
0.300127
0.479106
0.652767
0.734123
0.767941
0.778359
0.780178
0.777303
0.759785
0.711149
0.646866
0.617718
0.604696
0.600079
0.599108
0.600331
0.601676
0.601821
0.598943
0.590322
0.57409
0.545686
0.502499
0.471709
0.445915
0.429835
0.422549
0.419582
0.419247
0.426189
0.433208
0.443265
0.459058
0.46979
0.481839
0.494433
0.505472
0.520815
0.542165
0.567316
0.592996
0.613073
0.630199
0.643319
0.651456
0.665018
0.681034
0.701984
0.726023
0.741603
0.748062
0.748807
0.737951
0.720439
0.712005
0.704588
0.696469
0.691781
0.688366
0.68628
0.688564
0.703181
0.727641
0.743295
0.745302
0.731506
0.716624
0.718042
0.735199
0.7795
0.858068
0.925414
0.962799
0.981958
0.991341
0.995853
0.998007
0.999025
0.999497
0.999715
0.999818
0.999861
0.999881
0.999906
0.999935
0.999957
0.999969
0.999971
0.999969
0.99995
0.999868
0.999547
0.998366
0.994121
0.979162
0.926805
0.760413
0.543775
0.366171
0.234019
0.142277
0.0824682
0.045662
0.0241968
0.012294
0.00600013
0.00281796
0.00127576
0.000557661
0.000235724
9.64893e-05
3.82952e-05
1.47536e-05
5.52309e-06
2.01072e-06
7.12702e-07
2.4616e-07
8.29008e-08
2.72387e-08
8.73633e-09
2.7365e-09
8.37485e-10
2.50524e-10
7.32789e-11
2.09661e-11
5.86963e-12
1.6084e-12
4.31513e-13
1.13379e-13
2.91831e-14
7.36029e-15
1.81941e-15
4.40903e-16
1.04767e-16
2.44156e-17
5.58161e-18
1.25194e-18
2.75563e-19
5.95314e-20
1.2625e-20
2.62873e-21
5.3747e-22
1.07924e-22
2.12859e-23
4.12412e-24
7.8502e-25
1.46819e-25
2.69818e-26
4.87272e-27
8.64776e-28
1.50822e-28
2.58491e-29
4.35315e-30
7.20258e-31
1.17053e-31
1.86797e-32
2.92562e-33
4.4948e-34
6.76829e-35
9.98219e-36
1.4408e-36
2.03448e-37
0.00448763
0.0404154
0.168822
0.39403
0.523753
0.580623
0.604778
0.603921
0.578338
0.528492
0.473787
0.425196
0.370424
0.335151
0.323668
0.345447
0.414526
0.504086
0.608063
0.699726
0.748403
0.769287
0.776077
0.777199
0.772047
0.750856
0.695424
0.636681
0.607579
0.595943
0.591892
0.591196
0.592942
0.59546
0.595586
0.59101
0.577685
0.548672
0.4987
0.450784
0.427156
0.401247
0.380269
0.369544
0.361056
0.35781
0.357501
0.367935
0.378629
0.401984
0.420372
0.443289
0.459248
0.474611
0.486185
0.497211
0.508472
0.525923
0.547396
0.569661
0.588044
0.609285
0.619872
0.624869
0.626217
0.624696
0.626368
0.635267
0.652559
0.670961
0.690834
0.704325
0.719032
0.729707
0.736862
0.738967
0.733697
0.716505
0.690487
0.678345
0.679515
0.706125
0.744805
0.759871
0.761847
0.748486
0.738819
0.749969
0.790062
0.850775
0.915057
0.958889
0.981144
0.991474
0.996155
0.998253
0.9992
0.999628
0.999818
0.999903
0.99994
0.999951
0.999955
0.999964
0.999976
0.999984
0.999987
0.999986
0.999982
0.999958
0.999855
0.999441
0.997842
0.991834
0.96976
0.889379
0.676658
0.465278
0.301943
0.185582
0.108359
0.0602665
0.0320079
0.0162721
0.00793627
0.00372137
0.00168097
0.000732781
0.000308787
0.000125965
4.98103e-05
1.91148e-05
7.12585e-06
2.58307e-06
9.11418e-07
3.13261e-07
1.04952e-07
3.42948e-08
1.09359e-08
3.40477e-09
1.03544e-09
3.07718e-10
8.94007e-11
2.5401e-11
7.0605e-12
1.92059e-12
5.11429e-13
1.33356e-13
3.40598e-14
8.52288e-15
2.09005e-15
5.02407e-16
1.18409e-16
2.73677e-17
6.20449e-18
1.37998e-18
3.01178e-19
6.45109e-20
1.35636e-20
2.79977e-21
5.67463e-22
1.12949e-22
2.20808e-23
4.24017e-24
7.99901e-25
1.48256e-25
2.69985e-26
4.83106e-27
8.49425e-28
1.46752e-28
2.49109e-29
4.15426e-30
6.80469e-31
1.09452e-31
1.72811e-32
2.67703e-33
4.06656e-34
6.05398e-35
8.82976e-36
1.26164e-36
0.00359053
0.0355341
0.159803
0.395657
0.534514
0.597136
0.635104
0.640652
0.633514
0.613669
0.590401
0.577194
0.565648
0.559922
0.566161
0.588827
0.635934
0.684423
0.731274
0.757952
0.769624
0.773456
0.774116
0.767254
0.744403
0.693426
0.643378
0.606291
0.590651
0.58555
0.584813
0.585229
0.585685
0.584869
0.578807
0.56247
0.527529
0.471907
0.415798
0.382167
0.355798
0.319333
0.28952
0.267205
0.252211
0.245877
0.244751
0.258593
0.27956
0.312415
0.35021
0.392288
0.433467
0.461892
0.480038
0.494034
0.50184
0.514277
0.531362
0.553923
0.57281
0.589504
0.605458
0.614564
0.617581
0.616633
0.611141
0.604109
0.605777
0.615497
0.640941
0.689809
0.722175
0.747577
0.763225
0.772959
0.782373
0.791657
0.788062
0.740809
0.683674
0.666785
0.676733
0.725225
0.769027
0.7932
0.807546
0.802988
0.799485
0.827158
0.877637
0.924594
0.960941
0.982096
0.99235
0.996784
0.998637
0.999414
0.999744
0.999886
0.999946
0.999973
0.999983
0.999986
0.999987
0.999989
0.999993
0.999994
0.999994
0.999992
0.999983
0.999939
0.999751
0.998985
0.995957
0.984294
0.940403
0.78349
0.547455
0.358549
0.22162
0.129751
0.0721956
0.0382968
0.0194227
0.0094426
0.00441113
0.00198435
0.000861253
0.000361264
0.000146674
5.77144e-05
2.20354e-05
8.17142e-06
2.94633e-06
1.03379e-06
3.5325e-07
1.1763e-07
3.81945e-08
1.20997e-08
3.74166e-09
1.12998e-09
3.33417e-10
9.61592e-11
2.71174e-11
7.48026e-12
2.01904e-12
5.33421e-13
1.37984e-13
3.49577e-14
8.67628e-15
2.11016e-15
5.03028e-16
1.17563e-16
2.69428e-17
6.05626e-18
1.3355e-18
2.88962e-19
6.1359e-20
1.27888e-20
2.61676e-21
5.25712e-22
1.03715e-22
2.00958e-23
3.82458e-24
7.15028e-25
1.31328e-25
2.36982e-26
4.20153e-27
7.31877e-28
1.25253e-28
2.10582e-29
3.47753e-30
5.63959e-31
8.979e-32
1.40297e-32
2.15062e-33
3.23279e-34
4.76507e-35
6.88925e-36
0.00211403
0.0232333
0.118091
0.344803
0.531116
0.601697
0.655298
0.671325
0.66785
0.660039
0.658482
0.659878
0.668832
0.676714
0.686379
0.702154
0.724772
0.746843
0.761616
0.767927
0.770164
0.770646
0.762612
0.737157
0.691395
0.647944
0.61498
0.596796
0.587841
0.581933
0.579599
0.579559
0.580393
0.579335
0.568493
0.541817
0.486957
0.420394
0.368982
0.332451
0.291649
0.245161
0.212336
0.190385
0.179666
0.175668
0.175694
0.190687
0.206863
0.236455
0.274687
0.322561
0.374476
0.43026
0.473651
0.497224
0.507471
0.514522
0.527855
0.548837
0.56999
0.582716
0.593166
0.599549
0.606615
0.614752
0.618942
0.613723
0.606988
0.610798
0.628319
0.666503
0.710135
0.736085
0.743915
0.743101
0.754546
0.783279
0.814403
0.825008
0.802719
0.709006
0.6625
0.663182
0.698515
0.771579
0.828198
0.8658
0.883369
0.878692
0.881494
0.914023
0.948182
0.972093
0.986449
0.994031
0.99755
0.99903
0.999617
0.999845
0.999936
0.999972
0.999988
0.999994
0.999996
0.999996
0.999997
0.999998
0.999998
0.999998
0.999997
0.999992
0.999967
0.999859
0.9994
0.99751
0.989937
0.960409
0.846984
0.604008
0.397346
0.245657
0.14353
0.079577
0.0420184
0.0211987
0.0102484
0.00475977
0.00212853
0.000918309
0.000382873
0.000154499
6.04175e-05
2.29222e-05
8.44638e-06
3.02565e-06
1.05452e-06
3.57855e-07
1.18322e-07
3.81411e-08
1.19933e-08
3.68068e-09
1.10299e-09
3.22898e-10
9.23826e-11
2.58416e-11
7.06994e-12
1.89248e-12
4.95801e-13
1.2717e-13
3.19438e-14
7.8603e-15
1.89521e-15
4.4787e-16
1.03759e-16
2.3571e-17
5.25173e-18
1.14786e-18
2.46162e-19
5.1806e-20
1.07014e-20
2.17007e-21
4.3206e-22
8.4472e-23
1.62194e-23
3.05885e-24
5.66662e-25
1.03125e-25
1.84375e-26
3.2385e-27
5.58838e-28
9.47331e-29
1.57743e-29
2.57965e-30
4.14239e-31
6.5298e-32
1.01024e-32
1.53356e-33
2.28443e-34
3.34142e-35
0.000927051
0.0118967
0.0699954
0.243637
0.490986
0.591646
0.644613
0.691399
0.699116
0.688576
0.681873
0.685061
0.700503
0.718581
0.729482
0.739293
0.751256
0.760651
0.765134
0.766782
0.765676
0.75344
0.726219
0.691613
0.658987
0.627628
0.605207
0.594029
0.587207
0.582693
0.578701
0.576113
0.572523
0.565746
0.547039
0.50447
0.439316
0.368788
0.319597
0.283221
0.232641
0.190415
0.167529
0.152349
0.145775
0.143434
0.144962
0.159217
0.176471
0.203002
0.240382
0.289203
0.344322
0.400863
0.453127
0.50364
0.535416
0.540451
0.542488
0.552854
0.577295
0.590738
0.595847
0.596193
0.5939
0.597102
0.614313
0.640718
0.646077
0.640776
0.642215
0.660826
0.692981
0.704541
0.69625
0.657166
0.627303
0.647851
0.736832
0.816528
0.838432
0.827182
0.732808
0.66869
0.665216
0.691068
0.773626
0.860388
0.909554
0.937003
0.94256
0.939477
0.947886
0.969829
0.984355
0.992467
0.996595
0.998553
0.99942
0.999778
0.999916
0.999968
0.999988
0.999995
0.999998
0.999999
0.999999
0.999999
0.999999
0.999999
0.999999
0.999999
0.999995
0.999978
0.999902
0.999564
0.998124
0.992161
0.968179
0.874079
0.633102
0.414896
0.255201
0.148137
0.0815331
0.0427214
0.0213855
0.0102583
0.00472778
0.00209819
0.000898428
0.000371793
0.000148912
5.77983e-05
2.17641e-05
7.95895e-06
2.82912e-06
9.78319e-07
3.29356e-07
1.08019e-07
3.45341e-08
1.07687e-08
3.27696e-09
9.73618e-10
2.82563e-10
8.01377e-11
2.22193e-11
6.02505e-12
1.59839e-12
4.14999e-13
1.05485e-13
2.62569e-14
6.40223e-15
1.52958e-15
3.58161e-16
8.22156e-17
1.85055e-17
4.08522e-18
8.84677e-19
1.87973e-19
3.91949e-20
8.0216e-21
1.61161e-21
3.17903e-22
6.15773e-23
1.17137e-23
2.18858e-24
4.01664e-25
7.24145e-26
1.28253e-26
2.23149e-27
3.81415e-28
6.40404e-29
1.05612e-29
1.71055e-30
2.72041e-31
4.24799e-32
6.512e-33
9.80237e-34
1.45019e-34
0.000281477
0.00438194
0.0305641
0.13057
0.362546
0.556918
0.62455
0.674093
0.715143
0.72267
0.713949
0.703347
0.706006
0.720457
0.733644
0.74262
0.752519
0.75965
0.762165
0.762197
0.756403
0.738994
0.704357
0.670736
0.640836
0.615457
0.598743
0.59251
0.58756
0.584233
0.580292
0.576367
0.57179
0.56261
0.542761
0.502759
0.440457
0.369242
0.311398
0.27136
0.227724
0.18788
0.163055
0.148185
0.138586
0.127221
0.134536
0.147442
0.165484
0.190878
0.227315
0.275634
0.33186
0.390011
0.444418
0.49768
0.551936
0.592315
0.605855
0.599884
0.603533
0.624361
0.629785
0.623478
0.603698
0.594416
0.60084
0.638535
0.695172
0.721147
0.725458
0.721554
0.719962
0.715397
0.702439
0.652524
0.591379
0.568741
0.583058
0.689447
0.811769
0.845594
0.838437
0.753997
0.695813
0.690347
0.719828
0.806787
0.891836
0.942015
0.966854
0.975858
0.976436
0.977002
0.984625
0.992367
0.996422
0.998416
0.999335
0.999733
0.999898
0.999962
0.999986
0.999995
0.999998
0.999999
1
1
1
1
1
1
0.999999
0.999996
0.999982
0.999916
0.999615
0.99829
0.992649
0.969403
0.876538
0.632371
0.410533
0.249974
0.143585
0.0782
0.040554
0.0200982
0.00954795
0.00435933
0.0019171
0.000813588
0.000333732
0.000132505
5.09827e-05
1.90305e-05
6.89831e-06
2.43044e-06
8.32964e-07
2.77898e-07
9.03136e-08
2.86089e-08
8.83853e-09
2.66454e-09
7.8423e-10
2.25449e-10
6.33326e-11
1.73924e-11
4.67102e-12
1.22728e-12
3.15578e-13
7.94402e-14
1.9583e-14
4.72876e-15
1.11884e-15
2.59448e-16
5.89798e-17
1.31471e-17
2.87425e-18
6.16425e-19
1.29712e-19
2.6786e-20
5.42922e-21
1.08029e-21
2.11048e-22
4.04873e-23
7.62793e-24
1.41153e-24
2.56571e-25
4.58125e-26
8.036e-27
1.38477e-27
2.3442e-28
3.89824e-29
6.36772e-30
1.02164e-30
1.60999e-31
2.49198e-32
3.78968e-33
5.66881e-34
4.41968e-05
0.00110412
0.00956835
0.0500421
0.176719
0.428126
0.585927
0.645721
0.694936
0.729136
0.739662
0.737957
0.725656
0.72273
0.729844
0.735366
0.740232
0.743107
0.742705
0.740878
0.732522
0.714926
0.694465
0.66811
0.640827
0.616578
0.598142
0.58837
0.586057
0.584351
0.582061
0.579064
0.574253
0.565062
0.547007
0.511391
0.454301
0.38477
0.323435
0.280965
0.239993
0.20129
0.174235
0.158123
0.148066
0.144831
0.147939
0.155799
0.171361
0.195143
0.232327
0.278126
0.33154
0.387916
0.441794
0.494979
0.55362
0.614901
0.637751
0.641383
0.642544
0.650923
0.665145
0.670494
0.660411
0.622853
0.60885
0.627693
0.699659
0.765431
0.808179
0.834559
0.847517
0.847278
0.824345
0.75091
0.639701
0.573292
0.559173
0.575726
0.67681
0.818072
0.863432
0.86663
0.816293
0.772478
0.764214
0.794759
0.876442
0.935526
0.968912
0.984758
0.990917
0.99286
0.993534
0.995219
0.99729
0.998625
0.99937
0.999733
0.999894
0.99996
0.999986
0.999995
0.999998
0.999999
1
1
1
1
1
1
1
0.999999
0.999996
0.999982
0.999912
0.999587
0.998123
0.99176
0.965134
0.857465
0.602706
0.385995
0.231676
0.131249
0.0705479
0.036133
0.0176971
0.00831326
0.00375487
0.00163413
0.000686469
0.000278781
0.000109594
4.17531e-05
1.54319e-05
5.53857e-06
1.93202e-06
6.55556e-07
2.16525e-07
6.96617e-08
2.18444e-08
6.68031e-09
1.99342e-09
5.80719e-10
1.65236e-10
4.59415e-11
1.24868e-11
3.31905e-12
8.63084e-13
2.19645e-13
5.47218e-14
1.33508e-14
3.19072e-15
7.47181e-16
1.71488e-16
3.85853e-17
8.51316e-18
1.84221e-18
3.91073e-19
8.14581e-20
1.66514e-20
3.34103e-21
6.58107e-22
1.27281e-22
2.41737e-23
4.50905e-24
8.26107e-25
1.48673e-25
2.6285e-26
4.56539e-27
7.79039e-28
1.30603e-28
2.15114e-29
3.48097e-30
5.53477e-31
8.64748e-32
1.32813e-32
2.00786e-33
1.8775e-05
0.000156192
0.00191232
0.0129988
0.0575683
0.18338
0.425189
0.590256
0.657131
0.708443
0.737707
0.749939
0.75366
0.747554
0.736728
0.734051
0.731981
0.7275
0.718047
0.705199
0.689827
0.67265
0.662361
0.654351
0.640073
0.621142
0.603144
0.589325
0.582125
0.579705
0.580371
0.579182
0.576862
0.572281
0.56153
0.538463
0.49529
0.426607
0.36049
0.311374
0.271519
0.236044
0.206491
0.189195
0.175886
0.175094
0.178734
0.188522
0.210345
0.235996
0.277347
0.32662
0.36905
0.408214
0.446559
0.507116
0.575989
0.628372
0.646262
0.64458
0.644197
0.650717
0.664456
0.67672
0.680731
0.673279
0.64896
0.644658
0.675274
0.757062
0.813095
0.850496
0.878896
0.898619
0.906426
0.897714
0.831379
0.679085
0.590688
0.57437
0.599061
0.707268
0.843649
0.899723
0.920042
0.917075
0.899732
0.888599
0.897314
0.93867
0.970698
0.98733
0.994519
0.997235
0.998366
0.998914
0.999246
0.999485
0.999679
0.999827
0.999918
0.999965
0.999987
0.999995
0.999998
0.999999
1
1
1
1
1
1
1
1
0.999999
0.999995
0.999977
0.999887
0.999462
0.997526
0.989031
0.953333
0.80992
0.549786
0.345168
0.203522
0.11343
0.0600534
0.0303272
0.0146583
0.00680001
0.00303475
0.0013055
0.000542246
0.000217775
8.46763e-05
3.19111e-05
1.16675e-05
4.14244e-06
1.42934e-06
4.7969e-07
1.56695e-07
4.98582e-08
1.54629e-08
4.67693e-09
1.38031e-09
3.97702e-10
1.1192e-10
3.07767e-11
8.27336e-12
2.17501e-12
5.59396e-13
1.40803e-13
3.46965e-14
8.37285e-15
1.97928e-15
4.58466e-16
1.04086e-16
2.31669e-17
5.05642e-18
1.08246e-18
2.27337e-19
4.68494e-20
9.47535e-21
1.88115e-21
3.66654e-22
7.0172e-23
1.31888e-23
2.43465e-24
4.41472e-25
7.8641e-26
1.37628e-26
2.36653e-27
3.99838e-28
6.63839e-29
1.08311e-29
1.73695e-30
2.73827e-31
4.24544e-32
6.48322e-33
0.000898481
0.000207738
0.000357737
0.00244862
0.0131166
0.0510086
0.151676
0.351882
0.551052
0.646682
0.705849
0.739324
0.754351
0.761436
0.763118
0.755364
0.743936
0.733081
0.720355
0.70435
0.685185
0.664001
0.647506
0.635197
0.626099
0.616765
0.605248
0.593535
0.583297
0.576765
0.572407
0.572063
0.573001
0.571528
0.567567
0.559136
0.543079
0.51427
0.461124
0.403944
0.352712
0.316262
0.27921
0.261566
0.245686
0.246571
0.252491
0.265998
0.290986
0.317511
0.345458
0.386114
0.42251
0.440857
0.463374
0.524971
0.61599
0.653073
0.653145
0.63502
0.606969
0.595566
0.596219
0.616731
0.649182
0.670501
0.672244
0.668037
0.669779
0.693051
0.75017
0.794738
0.840054
0.884546
0.912005
0.920246
0.916634
0.875219
0.728243
0.638444
0.622376
0.654915
0.775219
0.88626
0.940636
0.964651
0.972886
0.974589
0.975186
0.976998
0.9852
0.992589
0.996789
0.998713
0.999429
0.999703
0.999822
0.999885
0.999925
0.999953
0.999972
0.999985
0.999993
0.999997
0.999999
1
1
1
1
1
1
1
1
1
1
0.999999
0.999993
0.999965
0.999828
0.999179
0.99621
0.983215
0.928935
0.732748
0.480582
0.294997
0.17053
0.0933464
0.0486129
0.0241784
0.0115208
0.00527278
0.00232288
0.000986807
0.000404886
0.000160664
6.17323e-05
2.29923e-05
8.30903e-06
2.9161e-06
9.94697e-07
3.30018e-07
1.0657e-07
3.35174e-08
1.02735e-08
3.07077e-09
8.95606e-10
2.55022e-10
7.09323e-11
1.92797e-11
5.12295e-12
1.33129e-12
3.38468e-13
8.42186e-14
2.05158e-14
4.89438e-15
1.14384e-15
2.61946e-16
5.87974e-17
1.29394e-17
2.79245e-18
5.91111e-19