/*--------------------------------*- C++ -*----------------------------------*\
  =========                 |
  \\      /  F ield         | OpenFOAM: The Open Source CFD Toolbox
   \\    /   O peration     | Website:  https://openfoam.org
    \\  /    A nd           | Version:  9
     \\/     M anipulation  |
\*---------------------------------------------------------------------------*/
FoamFile
{
    format      ascii;
    class       volVectorField;
    location    "0.021";
    object      UMean;
}
// * * * * * * * * * * * * * * * * * * * * * * * * * * * * * * * * * * * * * //

dimensions      [0 1 -1 0 0 0 0];

internalField   nonuniform List<vector> 
12225
(
(9.86215 0.0477925 0)
(9.5693 0.0636943 0)
(9.27078 0.0608948 0)
(8.96832 0.0592804 0)
(8.67068 0.0584672 0)
(8.38379 0.0573316 0)
(8.10842 0.0557529 0)
(7.84582 0.0544623 0)
(7.59118 0.053009 0)
(7.34876 0.0522485 0)
(7.10849 0.0508134 0)
(6.88562 0.0506111 0)
(6.65303 0.0493037 0)
(6.45191 0.0502316 0)
(6.21077 0.0501353 0)
(6.03722 0.0523116 0)
(5.75296 0.0595177 0)
(5.61782 0.0637686 0)
(9.98616 0.0480194 0)
(10.0507 0.0719808 0)
(10.0916 0.0711314 0)
(10.1081 0.0727224 0)
(10.1072 0.0763904 0)
(10.0948 0.0793546 0)
(10.0728 0.0812874 0)
(10.0452 0.0829682 0)
(10.0109 0.084654 0)
(9.97363 0.0867716 0)
(9.92875 0.088749 0)
(9.88264 0.091294 0)
(9.82557 0.0937221 0)
(9.77092 0.0974968 0)
(9.69859 0.102205 0)
(9.63542 0.109166 0)
(9.54305 0.122978 0)
(9.47139 0.140037 0)
(10.0213 0.0326619 0)
(10.048 0.0552419 0)
(10.0744 0.0563203 0)
(10.0929 0.058287 0)
(10.1059 0.0630823 0)
(10.1164 0.0679052 0)
(10.1249 0.071316 0)
(10.1315 0.0740851 0)
(10.1359 0.0762768 0)
(10.1388 0.0791623 0)
(10.1401 0.0819369 0)
(10.1402 0.0860732 0)
(10.1385 0.0902182 0)
(10.1346 0.0964688 0)
(10.1286 0.103821 0)
(10.1197 0.114478 0)
(10.1108 0.131184 0)
(10.1018 0.151334 0)
(9.9846 0.0271382 0)
(10.0075 0.0569149 0)
(10.0327 0.0609667 0)
(10.0497 0.0622594 0)
(10.0588 0.0662823 0)
(10.0647 0.0711338 0)
(10.0702 0.0751575 0)
(10.0758 0.0783802 0)
(10.0811 0.081218 0)
(10.0854 0.0841032 0)
(10.0884 0.0871458 0)
(10.0903 0.0906792 0)
(10.0909 0.0950838 0)
(10.0906 0.100874 0)
(10.0894 0.10903 0)
(10.0885 0.120029 0)
(10.088 0.135497 0)
(10.0916 0.153257 0)
(10.0112 0.0257517 0)
(10.0223 0.0462497 0)
(10.0371 0.0528412 0)
(10.0473 0.0553943 0)
(10.0519 0.0596761 0)
(10.0546 0.064837 0)
(10.0578 0.0688839 0)
(10.0621 0.0718728 0)
(10.0667 0.074558 0)
(10.0709 0.0778055 0)
(10.0741 0.0817008 0)
(10.0763 0.0864375 0)
(10.0771 0.0920407 0)
(10.0771 0.0989083 0)
(10.0761 0.107613 0)
(10.0756 0.118554 0)
(10.0754 0.132139 0)
(10.0781 0.147212 0)
(9.97023 0.0235479 0)
(9.98616 0.0453573 0)
(10.0038 0.0555512 0)
(10.0182 0.0589807 0)
(10.0281 0.0622951 0)
(10.0348 0.0667432 0)
(10.04 0.0709241 0)
(10.0443 0.0742842 0)
(10.0479 0.0771965 0)
(10.0508 0.080291 0)
(10.0532 0.0838637 0)
(10.0553 0.0882012 0)
(10.0569 0.0935407 0)
(10.0581 0.100343 0)
(10.0588 0.108938 0)
(10.0595 0.119643 0)
(10.0607 0.13219 0)
(10.063 0.146191 0)
(10.0247 0.0156031 0)
(10.0326 0.0353711 0)
(10.0442 0.0456681 0)
(10.0554 0.0507471 0)
(10.0643 0.0553495 0)
(10.0714 0.0606118 0)
(10.0777 0.0654499 0)
(10.0837 0.0693236 0)
(10.0889 0.0727038 0)
(10.0931 0.0762928 0)
(10.096 0.0805233 0)
(10.0978 0.0856298 0)
(10.0988 0.0917739 0)
(10.0992 0.0991998 0)
(10.0996 0.108047 0)
(10.1002 0.118513 0)
(10.102 0.130305 0)
(10.1045 0.143393 0)
(9.99553 0.0197853 0)
(10.0019 0.0387395 0)
(10.0102 0.049034 0)
(10.0201 0.0536138 0)
(10.0305 0.0568063 0)
(10.0407 0.060644 0)
(10.0501 0.0649522 0)
(10.0588 0.0690892 0)
(10.0666 0.072979 0)
(10.0731 0.076941 0)
(10.0783 0.0813042 0)
(10.0824 0.0863445 0)
(10.0856 0.0922683 0)
(10.0886 0.0993332 0)
(10.0912 0.107639 0)
(10.0947 0.117383 0)
(10.0984 0.128283 0)
(10.104 0.140478 0)
(9.98271 0.0100214 0)
(9.98989 0.0285177 0)
(9.99822 0.0400253 0)
(10.0069 0.0455625 0)
(10.0149 0.0490532 0)
(10.0212 0.0530484 0)
(10.0262 0.0576166 0)
(10.031 0.0621777 0)
(10.0358 0.0665953 0)
(10.0406 0.0712235 0)
(10.0452 0.0763996 0)
(10.0495 0.0823443 0)
(10.0534 0.0890689 0)
(10.0574 0.0966962 0)
(10.061 0.105149 0)
(10.0655 0.114661 0)
(10.0697 0.124927 0)
(10.0761 0.136301 0)
(9.97212 0.0184995 0)
(9.97759 0.0325892 0)
(9.985 0.0419664 0)
(9.99233 0.0478306 0)
(9.99868 0.0519843 0)
(10.0038 0.0559071 0)
(10.0082 0.060033 0)
(10.0124 0.0642188 0)
(10.0167 0.0682873 0)
(10.021 0.072392 0)
(10.0253 0.0768072 0)
(10.0299 0.0819117 0)
(10.0345 0.0878259 0)
(10.0395 0.0948182 0)
(10.0444 0.102685 0)
(10.0502 0.111696 0)
(10.0557 0.121309 0)
(10.0628 0.132044 0)
(9.95445 0.00439209 0)
(9.95964 0.023428 0)
(9.96806 0.0329685 0)
(9.9775 0.0396993 0)
(9.98645 0.0449393 0)
(9.99408 0.049112 0)
(10.0004 0.053117 0)
(10.0058 0.0573556 0)
(10.0105 0.0617671 0)
(10.0147 0.0663867 0)
(10.0186 0.0713317 0)
(10.0225 0.0768845 0)
(10.0266 0.0831003 0)
(10.0309 0.0901832 0)
(10.0356 0.0979259 0)
(10.0404 0.106534 0)
(10.0459 0.115555 0)
(10.0517 0.125425 0)
(10.017 0.0145813 0)
(10.0133 0.0259002 0)
(10.0184 0.0338451 0)
(10.0275 0.0399988 0)
(10.0364 0.0447719 0)
(10.0441 0.0490351 0)
(10.051 0.0535327 0)
(10.0575 0.0583673 0)
(10.0635 0.0631876 0)
(10.0688 0.0677732 0)
(10.0733 0.072224 0)
(10.077 0.0770044 0)
(10.0805 0.0824517 0)
(10.084 0.0888764 0)
(10.088 0.096128 0)
(10.0927 0.104253 0)
(10.0983 0.112747 0)
(10.1047 0.121915 0)
(9.95663 0.0144658 0)
(9.96191 0.0168791 0)
(9.96872 0.0257408 0)
(9.97574 0.0338695 0)
(9.98238 0.0394117 0)
(9.98838 0.0433068 0)
(9.994 0.0469262 0)
(9.99971 0.0510461 0)
(10.0057 0.0557861 0)
(10.0116 0.0610475 0)
(10.0175 0.066659 0)
(10.0232 0.0725728 0)
(10.029 0.078683 0)
(10.0355 0.0850968 0)
(10.0426 0.0917083 0)
(10.0508 0.0988518 0)
(10.0598 0.106175 0)
(10.0699 0.114341 0)
(10.0063 0.00904731 0)
(10.0108 0.0202877 0)
(10.015 0.0276409 0)
(10.0198 0.033234 0)
(10.0252 0.038108 0)
(10.0305 0.0426258 0)
(10.0355 0.0470855 0)
(10.0403 0.0515999 0)
(10.0452 0.0560794 0)
(10.0506 0.0604556 0)
(10.0563 0.0646961 0)
(10.0624 0.0689869 0)
(10.069 0.0734452 0)
(10.0761 0.0784213 0)
(10.0837 0.0838386 0)
(10.0919 0.0900633 0)
(10.1007 0.0965447 0)
(10.1102 0.103904 0)
(9.98809 0.00645149 0)
(9.98834 0.0169276 0)
(9.99116 0.0229839 0)
(9.99709 0.0278579 0)
(10.0046 0.0323284 0)
(10.012 0.0364045 0)
(10.0186 0.0401123 0)
(10.0246 0.0437636 0)
(10.0302 0.0476978 0)
(10.0356 0.0521081 0)
(10.0409 0.0568869 0)
(10.0464 0.0619153 0)
(10.0523 0.0669589 0)
(10.0587 0.0720809 0)
(10.0658 0.0770858 0)
(10.0737 0.0823621 0)
(10.0824 0.0874577 0)
(10.0921 0.093144 0)
(10.0171 0.0115025 0)
(10.0246 0.0140124 0)
(10.0308 0.0182842 0)
(10.0359 0.0229931 0)
(10.0408 0.0275815 0)
(10.0465 0.032209 0)
(10.0528 0.0369899 0)
(10.0589 0.0418029 0)
(10.0646 0.0463798 0)
(10.0701 0.0504962 0)
(10.0756 0.0540226 0)
(10.0817 0.0570955 0)
(10.0885 0.059863 0)
(10.0962 0.0626973 0)
(10.1045 0.0656131 0)
(10.1135 0.0690133 0)
(10.1231 0.0724747 0)
(10.1332 0.0766263 0)
(9.99949 -0.00951476 0)
(10.0038 0.00636618 0)
(10.008 0.014117 0)
(10.0114 0.0183007 0)
(10.0149 0.0213897 0)
(10.0197 0.0243009 0)
(10.0263 0.0274902 0)
(10.0344 0.0310978 0)
(10.0434 0.0349459 0)
(10.0527 0.038739 0)
(10.0617 0.0421766 0)
(10.0702 0.0451862 0)
(10.0781 0.0477364 0)
(10.0858 0.0501126 0)
(10.0932 0.0523439 0)
(10.101 0.0548014 0)
(10.1088 0.0571389 0)
(10.1176 0.0598468 0)
(10.0108 0.0051619 0)
(10.0065 0.0087872 0)
(10.0051 0.0119584 0)
(10.0088 0.014852 0)
(10.015 0.0170013 0)
(10.0218 0.0179861 0)
(10.0285 0.0183834 0)
(10.0355 0.0193007 0)
(10.0428 0.0213558 0)
(10.0506 0.024489 0)
(10.0586 0.0281858 0)
(10.0668 0.0319141 0)
(10.0746 0.0351773 0)
(10.0823 0.0378417 0)
(10.0897 0.039755 0)
(10.0972 0.0412352 0)
(10.1046 0.0421352 0)
(10.1126 0.0430158 0)
(9.98497 0.00625236 0)
(9.9893 0.00403631 0)
(9.99533 0.00403129 0)
(10.0027 0.00468511 0)
(10.0095 0.00560429 0)
(10.0152 0.00675679 0)
(10.0199 0.00795493 0)
(10.0242 0.00913124 0)
(10.0284 0.0103609 0)
(10.033 0.0117752 0)
(10.0384 0.0134329 0)
(10.0448 0.0153616 0)
(10.0521 0.017366 0)
(10.0599 0.0192836 0)
(10.068 0.0207143 0)
(10.0762 0.0215967 0)
(10.0843 0.0215826 0)
(10.0926 0.0209552 0)
(9.97609 -0.00684677 0)
(9.98004 -0.00560855 0)
(9.98492 -0.00677924 0)
(9.99019 -0.00656239 0)
(9.99581 -0.00430919 0)
(10.0018 -0.000945159 0)
(10.008 0.00222219 0)
(10.0142 0.00430788 0)
(10.0205 0.00517134 0)
(10.0268 0.00513081 0)
(10.0331 0.00456385 0)
(10.0398 0.00385333 0)
(10.0469 0.00322021 0)
(10.0544 0.0027995 0)
(10.0622 0.00244866 0)
(10.0703 0.00209299 0)
(10.0783 0.00141258 0)
(10.0864 0.000473845 0)
(9.98571 -0.00214169 0)
(9.98699 -0.00493936 0)
(9.98943 -0.00764511 0)
(9.99255 -0.00888695 0)
(9.99677 -0.00874344 0)
(10.0026 -0.00797661 0)
(10.0097 -0.00730197 0)
(10.0174 -0.00695661 0)
(10.0251 -0.00687636 0)
(10.0322 -0.00699226 0)
(10.0385 -0.00735492 0)
(10.0441 -0.00800111 0)
(10.0495 -0.00891306 0)
(10.0549 -0.00997548 0)
(10.0606 -0.0111069 0)
(10.0664 -0.0122524 0)
(10.0725 -0.0135276 0)
(10.0786 -0.0149513 0)
(10.0259 -0.00938032 0)
(10.0231 -0.0135533 0)
(10.0248 -0.0133649 0)
(10.0306 -0.0131704 0)
(10.0381 -0.0140652 0)
(10.0458 -0.0153684 0)
(10.0531 -0.0160839 0)
(10.0599 -0.0157844 0)
(10.0667 -0.0147832 0)
(10.0733 -0.0136851 0)
(10.0797 -0.0130098 0)
(10.0859 -0.0130445 0)
(10.0918 -0.0138355 0)
(10.0975 -0.0152231 0)
(10.1031 -0.0169852 0)
(10.1087 -0.0188818 0)
(10.1143 -0.0208609 0)
(10.12 -0.0227951 0)
(9.9798 0.00300564 0)
(9.98425 -0.0109411 0)
(9.99136 -0.0168595 0)
(10.0003 -0.0201234 0)
(10.0106 -0.0219266 0)
(10.0207 -0.02241 0)
(10.0295 -0.0221857 0)
(10.0373 -0.0218472 0)
(10.0445 -0.0216974 0)
(10.0517 -0.0217933 0)
(10.059 -0.0221491 0)
(10.0663 -0.0228102 0)
(10.0733 -0.0238192 0)
(10.08 -0.0251542 0)
(10.0862 -0.0267972 0)
(10.092 -0.0286707 0)
(10.0973 -0.0307996 0)
(10.1024 -0.0331018 0)
(9.98816 -0.0110392 0)
(9.99638 -0.0155409 0)
(10.0057 -0.0220463 0)
(10.0133 -0.026578 0)
(10.0201 -0.0291293 0)
(10.0268 -0.0300003 0)
(10.0335 -0.0296833 0)
(10.0403 -0.0289216 0)
(10.0474 -0.028287 0)
(10.0549 -0.028023 0)
(10.0627 -0.02815 0)
(10.0708 -0.0286265 0)
(10.0789 -0.0294124 0)
(10.0867 -0.0304675 0)
(10.0941 -0.0317708 0)
(10.1008 -0.0332991 0)
(10.1069 -0.035062 0)
(10.1122 -0.0370289 0)
(10.0308 -0.0168557 0)
(10.0359 -0.0239313 0)
(10.0445 -0.0296204 0)
(10.0521 -0.0328471 0)
(10.0573 -0.0342381 0)
(10.0619 -0.0348226 0)
(10.0672 -0.0349677 0)
(10.0738 -0.0350281 0)
(10.0813 -0.0354126 0)
(10.0892 -0.0363052 0)
(10.097 -0.0375685 0)
(10.1045 -0.0389516 0)
(10.1117 -0.0402654 0)
(10.1183 -0.0414459 0)
(10.1245 -0.0424986 0)
(10.1301 -0.0434974 0)
(10.1353 -0.0445211 0)
(10.1399 -0.0456336 0)
(10.0133 -0.00856134 0)
(10.0239 -0.022717 0)
(10.0385 -0.0273042 0)
(10.051 -0.0297521 0)
(10.0598 -0.0321227 0)
(10.0667 -0.0345402 0)
(10.0738 -0.0364704 0)
(10.0817 -0.037627 0)
(10.0899 -0.0382726 0)
(10.0978 -0.0387853 0)
(10.105 -0.0393587 0)
(10.1115 -0.0400202 0)
(10.1173 -0.0407471 0)
(10.1225 -0.0415421 0)
(10.1273 -0.0424356 0)
(10.1318 -0.0434705 0)
(10.1359 -0.0446905 0)
(10.1398 -0.0461395 0)
(9.98528 -0.0291553 0)
(9.99864 -0.0403111 0)
(10.0157 -0.0429975 0)
(10.0303 -0.0432292 0)
(10.0402 -0.0439936 0)
(10.0469 -0.0451759 0)
(10.0527 -0.0460669 0)
(10.0588 -0.0465399 0)
(10.0653 -0.046902 0)
(10.0723 -0.0473963 0)
(10.0792 -0.0480398 0)
(10.086 -0.0487398 0)
(10.0924 -0.0494196 0)
(10.0985 -0.0500651 0)
(10.1044 -0.0506978 0)
(10.11 -0.0513747 0)
(10.1153 -0.0521403 0)
(10.1203 -0.053074 0)
(9.96746 -0.0178021 0)
(9.98065 -0.0317067 0)
(9.99684 -0.0354199 0)
(10.0099 -0.0366864 0)
(10.0193 -0.0385743 0)
(10.0274 -0.0405949 0)
(10.036 -0.0422202 0)
(10.0456 -0.0435481 0)
(10.0554 -0.0447465 0)
(10.0649 -0.0458492 0)
(10.0734 -0.0467876 0)
(10.0806 -0.0475834 0)
(10.0867 -0.0483066 0)
(10.0919 -0.0491096 0)
(10.0967 -0.0500139 0)
(10.1012 -0.0510689 0)
(10.106 -0.0521833 0)
(10.1106 -0.0534062 0)
(9.99909 -0.0375055 0)
(10.0374 -0.0512595 0)
(10.0701 -0.0513889 0)
(10.0912 -0.0512936 0)
(10.1035 -0.0527277 0)
(10.111 -0.0542207 0)
(10.1162 -0.0553014 0)
(10.1198 -0.0561267 0)
(10.1215 -0.0567314 0)
(10.1211 -0.0570608 0)
(10.1185 -0.0570641 0)
(10.114 -0.0568797 0)
(10.1078 -0.0566848 0)
(10.1003 -0.0567511 0)
(10.0912 -0.0571194 0)
(10.0816 -0.0578587 0)
(10.0707 -0.0587979 0)
(10.06 -0.0599927 0)
(9.90559 -0.0409593 0)
(9.73768 -0.049644 0)
(9.57124 -0.0485124 0)
(9.40355 -0.0471157 0)
(9.23841 -0.046531 0)
(9.07896 -0.0461436 0)
(8.926 -0.0458055 0)
(8.77913 -0.0455155 0)
(8.6378 -0.0451518 0)
(8.50224 -0.0445747 0)
(8.37279 -0.043712 0)
(8.25009 -0.0426618 0)
(8.13368 -0.0415984 0)
(8.02352 -0.0407499 0)
(7.91778 -0.0401903 0)
(7.81698 -0.0399626 0)
(7.71824 -0.0399617 0)
(7.62431 -0.0401925 0)
(0.0362016 -0.103829 -1.22926e-21)
(0.140993 -0.167046 1.22391e-21)
(0.270326 -0.179669 0)
(0.396083 -0.177588 0)
(0.517367 -0.17129 0)
(0.634032 -0.163607 -1.28132e-21)
(0.745891 -0.155021 0)
(0.852057 -0.145246 0)
(0.951163 -0.133725 0)
(1.0409 -0.119799 0)
(1.11813 -0.102732 1.50405e-21)
(1.17889 -0.0819002 0)
(1.21865 -0.0567317 0)
(1.23255 -0.0270539 0)
(1.2157 0.0071578 0)
(1.16334 0.0450974 1.71274e-21)
(1.07049 0.085905 0)
(0.933837 0.127038 0)
(0.752852 0.166032 0)
(0.530206 0.199148 0)
(0.272119 0.221379 0)
(-0.0116457 0.232013 0)
(-0.305966 0.212754 0)
(-0.614515 0.207682 1.55333e-21)
(-0.90311 0.216941 -1.54542e-21)
(-1.14837 0.0996619 1.54554e-21)
(-1.43126 -0.0183848 1.56323e-21)
(-1.79008 0.045044 0)
(-2.22708 0.33708 0)
(-2.80841 0.545007 -1.69672e-21)
(-3.40832 0.56213 -1.77981e-21)
(-3.97404 0.536514 0)
(-4.50691 0.496467 0)
(-4.99649 0.45211 -2.23388e-21)
(-5.44453 0.405637 0)
(-5.84749 0.359437 0)
(-6.20677 0.314175 2.79114e-21)
(-6.52129 0.270385 0)
(-6.79182 0.22809 3.11039e-21)
(-7.01795 0.187271 6.47442e-21)
(-7.19997 0.147821 0)
(-7.33765 0.109709 0)
(-7.43118 0.0729727 0)
(-7.48105 0.0377839 0)
(-7.48817 0.00444082 0)
(-7.45338 -0.0266165 6.66807e-21)
(-7.37835 -0.0550028 6.45833e-21)
(-7.26609 -0.0805432 6.18543e-21)
(-7.11959 -0.103297 0)
(-6.94295 -0.123358 -5.47848e-21)
(-6.73866 -0.140771 0)
(-6.5106 -0.155469 4.61437e-21)
(-6.26192 -0.167556 4.14652e-21)
(-5.99623 -0.17707 0)
(-5.71663 -0.18423 0)
(-5.42617 -0.189243 0)
(-5.12753 -0.19236 2.22998e-21)
(-4.82319 -0.193829 0)
(-4.51535 -0.193912 0)
(-4.20585 -0.192806 0)
(-3.89628 -0.190784 0)
(-3.58794 -0.188056 0)
(-3.28162 -0.184907 0)
(-2.97777 -0.181579 0)
(-2.67641 -0.178325 0)
(-2.37717 -0.175263 1.15507e-21)
(-2.07963 -0.172559 0)
(-1.78339 -0.170072 0)
(-1.48815 -0.167768 -1.91418e-21)
(-1.194 -0.165386 -2.13237e-21)
(-0.901414 -0.16275 0)
(-0.611122 -0.159607 2.51585e-21)
(-0.324115 -0.155895 -2.68026e-21)
(-0.0415223 -0.151498 0)
(0.235414 -0.146448 2.95311e-21)
(0.505385 -0.140722 0)
(0.767108 -0.134416 0)
(1.01937 -0.127597 -3.22389e-21)
(1.26124 -0.120355 0)
(1.492 -0.112888 3.31982e-21)
(1.7109 -0.105245 0)
(1.91762 -0.0975453 -3.35938e-21)
(2.11193 -0.0899421 -3.36168e-21)
(2.29366 -0.0825263 -3.35425e-21)
(2.46303 -0.0753248 -6.67731e-21)
(2.6205 -0.068436 6.6329e-21)
(2.76647 -0.061894 0)
(2.90135 -0.0557267 0)
(3.02568 -0.0499468 0)
(3.13999 -0.0445553 6.36984e-21)
(3.24486 -0.0395454 6.2917e-21)
(3.34084 -0.0349052 -6.21134e-21)
(3.42849 -0.0306201 0)
(3.50835 -0.0266743 6.04778e-21)
(3.58094 -0.023052 5.96607e-21)
(3.64676 -0.0197377 5.88517e-21)
(3.70629 -0.016716 0)
(3.75998 -0.0139716 0)
(3.80829 -0.0114885 0)
(3.85163 -0.00924982 5.57686e-21)
(3.89039 -0.00723796 0)
(3.92496 -0.00543476 0)
(3.95567 -0.00382184 -5.36686e-21)
(3.98284 -0.00238147 0)
(4.00677 -0.00109639 0)
(4.02771 4.90522e-05 -5.1764e-21)
(4.0459 0.0010693 0)
(4.06154 0.00197745 0)
(4.07484 0.00278557 5.00429e-21)
(4.08596 0.00350458 4.95066e-21)
(4.09507 0.004149 0)
(4.10225 0.00472793 -4.8485e-21)
(4.10765 0.00524873 0)
(4.11136 0.00571633 4.75261e-21)
(4.1135 0.00612825 0)
(4.11417 0.00648954 4.66232e-21)
(4.11348 0.00680305 4.61911e-21)
(4.11154 0.00705155 0)
(4.10849 0.00721961 0)
(4.10449 0.00730535 0)
(4.09967 0.00731199 0)
(4.09418 0.00724311 0)
(4.08815 0.0071061 0)
(4.08172 0.00691378 0)
(4.07499 0.00667899 4.31148e-21)
(4.06806 0.00641357 -4.27704e-21)
(4.06102 0.00612794 0)
(4.05395 0.00583104 0)
(4.04689 0.00553058 0)
(4.03991 0.00523277 0)
(4.03303 0.0049424 -8.23083e-21)
(4.02629 0.00466309 0)
(4.0197 0.00439731 8.11011e-21)
(4.01327 0.00414658 -8.05135e-21)
(4.00701 0.00391175 0)
(4.00093 0.00369304 0)
(3.99502 0.00349021 0)
(3.98929 0.00330276 7.8258e-21)
(3.98372 0.00312994 7.77155e-21)
(3.97831 0.00297081 0)
(3.97306 0.00282418 7.66537e-21)
(3.96796 0.00268888 7.61337e-21)
(3.96299 0.00256391 -7.56205e-21)
(3.95816 0.00244837 0)
(3.95346 0.00234122 0)
(3.94887 0.00224116 -7.41194e-21)
(3.9444 0.00214676 0)
(3.94005 0.00205706 0)
(3.93579 0.00197188 0)
(3.93164 0.00189206 0)
(3.92758 0.00181892 7.17338e-21)
(3.92361 0.00175389 7.12727e-21)
(3.9197 0.00169766 0)
(3.91585 0.00165055 7.03658e-21)
(3.91203 0.00161185 0)
(3.90823 0.00158134 0)
(3.90443 0.00155796 6.90424e-21)
(3.90061 0.00154247 0)
(3.89674 0.00153413 6.81849e-21)
(3.89283 0.00153549 0)
(3.88878 0.00154594 0)
(3.88466 0.00156999 6.6938e-21)
(3.88029 0.00160768 0)
(3.8758 0.00166424 6.61363e-21)
(3.87086 0.0017452 0)
(3.86578 0.00184838 0)
(3.85985 0.00200588 0)
(3.85382 0.00217227 -6.46277e-21)
(3.84616 0.00248337 0)
(3.83857 0.0027175 6.39436e-21)
(3.82793 0.00337714 0)
(3.81748 0.00361465 0)
(3.80175 0.00516008 0)
(3.78526 0.00507676 0)
(3.76127 0.00910429 0)
(3.72919 0.00751121 0)
(3.69342 0.0192599 0)
(3.61292 0.0126172 -1.25657e-20)
(3.56496 0.0540778 0)
(3.30745 0.043792 0)
(0.0305531 -0.268007 3.69367e-21)
(0.0748314 -0.361961 -3.6817e-21)
(0.124238 -0.364204 0)
(0.169831 -0.348844 2.49096e-21)
(0.21552 -0.332878 0)
(0.261153 -0.317608 1.28112e-21)
(0.306578 -0.301646 -2.65278e-21)
(0.350463 -0.282589 -2.73752e-21)
(0.390964 -0.257906 0)
(0.425323 -0.224977 -2.94779e-21)
(0.44993 -0.181571 -1.50433e-21)
(0.460315 -0.125723 0)
(0.451656 -0.0563124 0)
(0.418916 0.0270497 0)
(0.357399 0.123366 0)
(0.263085 0.230523 -1.71311e-21)
(0.13239 0.343841 0)
(-0.0360865 0.456902 3.57638e-21)
(-0.246361 0.563912 0)
(-0.49747 0.661912 0)
(-0.788171 0.744931 -3.39069e-21)
(-1.11828 0.801911 0)
(-1.47448 0.848548 3.2466e-21)
(-1.84332 0.8511 -1.54965e-21)
(-2.22303 0.726822 1.54095e-21)
(-2.68019 0.797946 -1.54026e-21)
(-3.2731 1.12752 -1.5565e-21)
(-3.88771 1.30344 0)
(-4.37282 1.36166 0)
(-4.81389 1.3681 1.68631e-21)
(-5.21646 1.30886 -2.23074e-21)
(-5.58679 1.22883 0)
(-5.92885 1.13096 0)
(-6.24056 1.02891 2.22407e-21)
(-6.52381 0.923884 0)
(-6.77749 0.820026 0)
(-7.00251 0.717288 -2.78244e-21)
(-7.1981 0.616435 0)
(-7.36415 0.516969 3.47525e-21)
(-7.49964 0.418799 -6.46132e-21)
(-7.60376 0.321646 0)
(-7.67545 0.225616 0)
(-7.71386 0.131032 -1.43771e-20)
(-7.7181 0.0385728 -1.43527e-20)
(-7.68772 -0.0507945 -1.41821e-20)
(-7.62314 -0.13593 7.20243e-21)
(-7.52504 -0.215776 -6.4547e-21)
(-7.39399 -0.289582 -1.90086e-20)
(-7.23172 -0.356505 1.21275e-20)
(-7.03962 -0.41593 5.47496e-21)
(-6.82143 -0.467394 0)
(-6.57997 -0.510725 -4.61103e-21)
(-6.31904 -0.546039 4.4083e-21)
(-6.04184 -0.573722 0)
(-5.7518 -0.594336 0)
(-5.45173 -0.608599 0)
(-5.14431 -0.617301 -2.22816e-21)
(-4.83184 -0.621207 0)
(-4.51641 -0.621053 2.78127e-21)
(-4.19978 -0.617492 0)
(-3.88351 -0.611237 1.11879e-21)
(-3.56887 -0.602946 0)
(-3.25667 -0.593419 3.52938e-22)
(-2.94728 -0.583441 0)
(-2.6406 -0.57371 -1.63754e-21)
(-2.3361 -0.564749 1.06183e-21)
(-2.03309 -0.556847 0)
(-1.7309 -0.549837 3.26247e-21)
(-1.42911 -0.543324 1.91304e-21)
(-1.12764 -0.536697 2.13111e-21)
(-0.826957 -0.529178 0)
(-0.52793 -0.520218 2.43437e-21)
(-0.231696 -0.509382 2.67864e-21)
(0.0605158 -0.496451 0)
(0.347365 -0.481439 -2.95133e-21)
(0.627499 -0.464439 6.06253e-21)
(0.899549 -0.445649 0)
(1.16229 -0.425364 3.222e-21)
(1.41469 -0.403836 0)
(1.65604 -0.381532 -9.91669e-21)
(1.88571 -0.358687 0)
(2.10327 -0.335687 1.00425e-20)
(2.3085 -0.312893 3.35976e-21)
(2.50136 -0.290624 -3.32796e-21)
(2.68208 -0.269047 -6.62956e-21)
(2.8511 -0.248368 6.58957e-21)
(3.00889 -0.228711 0)
(3.15589 -0.210154 0)
(3.29264 -0.19273 0)
(3.4197 -0.176441 -1.90725e-20)
(3.53765 -0.161262 -6.28817e-21)
(3.64705 -0.147155 6.20784e-21)
(3.74845 -0.134071 0)
(3.84237 -0.121959 6.02643e-21)
(3.92935 -0.110767 -5.96261e-21)
(4.00986 -0.100447 -5.88171e-21)
(4.08438 -0.0909496 0)
(4.15336 -0.0822304 0)
(4.21723 -0.0742434 0)
(4.27639 -0.0669423 -5.57335e-21)
(4.33123 -0.0602792 0)
(4.38208 -0.0542043 1.08533e-20)
(4.42926 -0.0486675 1.60817e-20)
(4.47307 -0.0436189 -1.05877e-20)
(4.51376 -0.0390107 0)
(4.55158 -0.0347984 -5.16642e-21)
(4.58673 -0.0309411 0)
(4.6194 -0.0274019 -1.01067e-20)
(4.64976 -0.0241473 4.99565e-21)
(4.67798 -0.0211476 4.94238e-21)
(4.70419 -0.0183738 0)
(4.72854 -0.0158032 1.45301e-20)
(4.75117 -0.0134183 -9.58834e-21)
(4.77217 -0.0112069 -4.74869e-21)
(4.79167 -0.00916339 0)
(4.80973 -0.00727973 -4.65835e-21)
(4.82646 -0.00555128 -1.38428e-20)
(4.84191 -0.00398548 0)
(4.85615 -0.00258738 -9.06219e-21)
(4.86921 -0.00135406 -8.98268e-21)
(4.88113 -0.00028127 -8.9052e-21)
(4.89198 0.000637066 0)
(4.9018 0.00141058 0)
(4.91065 0.00204758 0)
(4.91861 0.00255869 4.30626e-21)
(4.92572 0.00295737 4.27287e-21)
(4.93206 0.00325727 0)
(4.9377 0.00347152 8.41172e-21)
(4.94269 0.00361305 8.34724e-21)
(4.94711 0.00369367 0)
(4.951 0.00372422 8.22255e-21)
(4.95442 0.00371471 1.63225e-20)
(4.95743 0.00367371 -8.10191e-21)
(4.96005 0.00360837 -8.04257e-21)
(4.96235 0.00352482 0)
(4.96434 0.00342813 0)
(4.96607 0.0033224 0)
(4.96757 0.00321092 -7.81787e-21)
(4.96885 0.00309632 7.76336e-21)
(4.96996 0.0029806 1.54203e-20)
(4.9709 0.00286524 -7.65764e-21)
(4.9717 0.00275128 7.60548e-21)
(4.97238 0.00263953 7.55446e-21)
(4.97294 0.00253061 0)
(4.97341 0.00242494 0)
(4.97379 0.0023227 -7.40442e-21)
(4.97409 0.00222385 0)
(4.97433 0.00212842 0)
(4.97451 0.00203682 1.45199e-20)
(4.97463 0.00195013 0)
(4.9747 0.00186989 7.16627e-21)
(4.97472 0.00179799 -7.12035e-21)
(4.97469 0.00173609 0)
(4.97462 0.00168567 7.02968e-21)
(4.9745 0.00164766 0)
(4.97433 0.00162303 0)
(4.9741 0.00161248 -6.89768e-21)
(4.97381 0.00161714 1.37091e-20)
(4.97344 0.00163865 -6.81208e-21)
(4.97298 0.00167852 0)
(4.97241 0.00174134 0)
(4.97172 0.00182751 6.68727e-21)
(4.97086 0.00195027 0)
(4.96981 0.00210183 6.60709e-21)
(4.96853 0.0023215 0)
(4.96694 0.00256775 0)
(4.96502 0.00295954 0)
(4.96256 0.00333859 6.45694e-21)
(4.95964 0.00406575 0)
(4.95573 0.00460906 -6.38864e-21)
(4.95122 0.00605423 0)
(4.94464 0.00672302 0)
(4.93757 0.00984989 1.26001e-20)
(4.92574 0.0103437 -1.25548e-20)
(4.91455 0.0177757 0)
(4.89119 0.0171114 0)
(4.87337 0.0368886 0)
(4.82261 0.0338953 3.75862e-20)
(4.79695 0.0965713 0)
(4.68664 0.104401 -2.52346e-20)
(0.0093615 -0.318909 -5.45921e-24)
(-0.0135963 -0.3755 4.91185e-21)
(-0.0315342 -0.3711 0)
(-0.0509884 -0.362384 -4.98021e-21)
(-0.066073 -0.356701 0)
(-0.0793234 -0.349169 0)
(-0.0914494 -0.337273 -7.83773e-24)
(-0.10446 -0.317617 2.73756e-21)
(-0.120286 -0.286674 2.85928e-21)
(-0.141737 -0.240459 2.94823e-21)
(-0.172263 -0.175095 0)
(-0.216473 -0.0875351 0)
(-0.279183 0.0232532 -3.3911e-21)
(-0.3661 0.156574 -7.03025e-21)
(-0.48106 0.310903 7.2347e-21)
(-0.628394 0.483955 0)
(-0.809215 0.668836 7.45002e-21)
(-1.02438 0.855872 -3.57686e-21)
(-1.27293 1.03508 0)
(-1.5507 1.19896 7.26482e-21)
(-1.85409 1.33983 3.38731e-21)
(-2.18323 1.44084 -6.98459e-21)
(-2.5441 1.49115 -3.24001e-21)
(-2.90736 1.52113 0)
(-3.38118 1.67213 6.91893e-21)
(-3.89911 1.87558 7.1021e-21)
(-4.33291 1.97595 0)
(-4.71763 1.9986 7.70237e-21)
(-5.04126 1.98149 0)
(-5.33986 1.92558 8.60057e-21)
(-5.60981 1.83037 3.99284e-21)
(-5.86886 1.71457 0)
(-6.11648 1.58348 0)
(-6.35631 1.44719 0)
(-6.58548 1.3074 0)
(-6.80242 1.16726 0)
(-7.0034 1.02643 0)
(-7.18536 0.885223 1.36546e-20)
(-7.34457 0.742946 -2.07746e-20)
(-7.47781 0.599488 0)
(-7.5818 0.45481 0)
(-7.65373 0.309458 0)
(-7.69112 0.164344 -9.64993e-22)
(-7.69218 0.0207264 1.43517e-20)
(-7.65594 -0.119889 2.9268e-20)
(-7.58255 -0.255831 -2.85985e-20)
(-7.4732 -0.385214 -1.42281e-20)
(-7.32948 -0.505915 1.28276e-20)
(-7.15359 -0.615705 6.95064e-22)
(-6.94866 -0.712991 1.19585e-20)
(-6.71837 -0.796744 0)
(-6.46664 -0.866667 1.00161e-20)
(-6.1974 -0.922981 4.31605e-22)
(-5.91432 -0.966503 0)
(-5.6207 -0.99831 0)
(-5.31941 -1.01972 -5.86431e-21)
(-5.01284 -1.03213 0)
(-4.70295 -1.03688 0)
(-4.39148 -1.03515 3.18571e-21)
(-4.07991 -1.028 4.22215e-21)
(-3.76962 -1.01645 -1.11938e-21)
(-3.46185 -1.00159 0)
(-3.15746 -0.984748 -3.52064e-22)
(-2.85675 -0.967336 0)
(-2.55939 -0.95067 -1.33411e-21)
(-2.26451 -0.935765 -2.21496e-21)
(-1.97088 -0.923026 5.20081e-21)
(-1.67726 -0.912321 2.94868e-21)
(-1.38279 -0.902699 0)
(-1.08709 -0.892932 -8.04074e-21)
(-0.790663 -0.881546 0)
(-0.494661 -0.86747 -1.45665e-20)
(-0.20048 -0.849948 -1.03071e-20)
(0.0902722 -0.828667 -1.09215e-20)
(0.375959 -0.803717 1.14612e-20)
(0.655095 -0.775307 -1.79854e-20)
(0.926206 -0.743889 0)
(1.18801 -0.709874 0)
(1.43942 -0.673823 1.2881e-20)
(1.67966 -0.636344 1.9661e-20)
(1.9081 -0.597998 0)
(2.1242 -0.559484 -6.68251e-21)
(2.32773 -0.521361 0)
(2.51867 -0.484159 1.9951e-20)
(2.69731 -0.448227 7.47833e-23)
(2.86415 -0.413855 -6.72643e-23)
(3.01968 -0.381262 -1.30487e-20)
(3.16442 -0.350562 0)
(3.29894 -0.321799 1.28008e-20)
(3.42387 -0.294962 4.44312e-23)
(3.53978 -0.270003 0)
(3.64727 -0.246851 0)
(3.74687 -0.225424 0)
(3.83912 -0.205639 -1.20692e-20)
(3.92452 -0.187408 0)
(4.00356 -0.170651 0)
(4.07672 -0.155286 0)
(4.14448 -0.141229 0)
(4.20729 -0.128397 0)
(4.26561 -0.116701 -1.11179e-20)
(4.31984 -0.10605 0)
(4.37037 -0.0963559 -1.08528e-20)
(4.41753 -0.0875308 -1.07179e-20)
(4.46161 -0.0794912 1.05874e-20)
(4.50286 -0.0721589 0)
(4.5415 -0.0654617 1.03388e-20)
(4.57771 -0.059334 0)
(4.61166 -0.0537167 1.01064e-20)
(4.6435 -0.0485574 -9.99592e-21)
(4.67338 -0.0438093 -2.96525e-20)
(4.70141 -0.0394327 0)
(4.72771 -0.0353932 -2.90437e-20)
(4.75237 -0.0316609 -9.57712e-21)
(4.77548 -0.0282122 0)
(4.79713 -0.0250266 -1.8796e-20)
(4.8174 -0.0220894 -1.86193e-20)
(4.83634 -0.0193889 2.76751e-20)
(4.85402 -0.0169111 0)
(4.8705 -0.0146442 9.062e-21)
(4.88585 -0.0125807 8.98249e-21)
(4.90011 -0.0107148 2.671e-20)
(4.91335 -0.0090394 0)
(4.92562 -0.00754678 0)
(4.93696 -0.00623101 0)
(4.94744 -0.00508188 8.61005e-21)
(4.9571 -0.00408565 0)
(4.966 -0.0032281 0)
(4.97418 -0.00249508 -8.41136e-21)
(4.98169 -0.00187214 -8.34685e-21)
(4.98859 -0.00134603 0)
(4.9949 -0.000904477 0)
(5.00069 -0.000535622 -1.63216e-20)
(5.00598 -0.000229112 0)
(5.01082 2.41334e-05 1.60848e-20)
(5.01524 0.000232184 1.59685e-20)
(5.01927 0.000401925 0)
(5.02294 0.000539178 0)
(5.02629 0.000648902 -1.56336e-20)
(5.02934 0.000735312 -5.75683e-25)
(5.03212 0.000801934 -5.08399e-25)
(5.03464 0.000851687 0)
(5.03694 0.000887022 -3.04197e-20)
(5.03902 0.00091006 0)
(5.04091 0.000922712 0)
(5.04262 0.00092664 0)
(5.04417 0.000923194 1.48078e-20)
(5.04557 0.000913465 0)
(5.04684 0.000898556 -2.92276e-20)
(5.04798 0.000879991 -1.45187e-20)
(5.049 0.000859905 0)
(5.04992 0.000841046 -1.43315e-20)
(5.05073 0.000826214 0)
(5.05145 0.000818106 0)
(5.05209 0.000818601 -4.21747e-20)
(5.05264 0.000829732 2.79382e-20)
(5.05311 0.000852612 0)
(5.0535 0.000890252 2.75878e-20)
(5.05382 0.000943743 -1.3708e-20)
(5.05405 0.00101923 0)
(5.05418 0.00111642 0)
(5.05422 0.00124804 0)
(5.05413 0.00140783 -4.01204e-20)
(5.05392 0.00162505 0)
(5.05352 0.00187535 -1.32136e-20)
(5.05295 0.00223132 0)
(5.05209 0.00261558 0)
(5.051 0.00321392 0)
(5.04939 0.00379785 0)
(5.04748 0.00485039 0)
(5.04462 0.00572598 0)
(5.0414 0.00768991 -2.54152e-20)
(5.03636 0.00897103 0)
(5.03094 0.012895 -1.2599e-20)
(5.02192 0.0147294 3.76445e-20)
(5.01265 0.0232268 0)
(4.99618 0.0261553 0)
(4.98004 0.0466501 -2.49364e-20)
(4.95077 0.0547684 -2.50288e-20)
(4.92528 0.110988 2.49765e-20)
(4.88737 0.144582 2.52292e-20)
(-0.0131787 -0.255346 -7.31787e-21)
(-0.0833152 -0.273966 -7.30633e-21)
(-0.145182 -0.274381 -4.87324e-21)
(-0.210174 -0.270438 -2.43338e-21)
(-0.272786 -0.267669 0)
(-0.336432 -0.260742 5.11936e-21)
(-0.401005 -0.247328 -2.61036e-21)
(-0.468531 -0.222867 0)
(-0.54057 -0.182555 -2.85972e-21)
(-0.619669 -0.121211 0)
(-0.708999 -0.0332884 6.23608e-21)
(-0.811816 0.0860922 0)
(-0.931421 0.239122 3.39249e-21)
(-1.07165 0.423165 7.0328e-21)
(-1.2341 0.633268 -7.23631e-21)
(-1.42114 0.861521 0)
(-1.62929 1.09667 -7.44749e-21)
(-1.85977 1.32747 0)
(-2.11176 1.54307 0)
(-2.38268 1.73687 -7.25343e-21)
(-2.67071 1.90306 0)
(-2.97572 2.03327 -4.13428e-22)
(-3.31429 2.15225 0)
(-3.6899 2.30421 0)
(-4.07931 2.44723 7.30965e-22)
(-4.41489 2.51864 -7.08437e-21)
(-4.70222 2.52534 -8.25749e-21)
(-4.96859 2.49559 -7.69062e-21)
(-5.21583 2.43608 0)
(-5.45756 2.34838 -1.83292e-20)
(-5.69158 2.23768 0)
(-5.92408 2.1096 -1.09814e-20)
(-6.15029 1.96763 0)
(-6.37096 1.81594 0)
(-6.58155 1.65601 1.3037e-20)
(-6.78048 1.48979 0)
(-6.96381 1.31758 -1.43791e-20)
(-7.12899 1.13994 1.34149e-21)
(-7.2723 0.956853 2.97333e-20)
(-7.39055 0.768629 -3.1994e-20)
(-7.4801 0.575757 0)
(-7.53787 0.379293 0)
(-7.56116 0.180741 -1.796e-20)
(-7.54812 -0.0178568 0)
(-7.49759 -0.213866 -1.50914e-20)
(-7.40912 -0.404123 1.47382e-20)
(-7.28313 -0.584795 1.42358e-20)
(-7.12095 -0.752069 0)
(-6.92537 -0.903156 -1.28294e-20)
(-6.70058 -1.03587 -1.19645e-20)
(-6.4511 -1.14895 2.3548e-20)
(-6.18184 -1.24191 -1.00216e-20)
(-5.89765 -1.31536 -8.9882e-21)
(-5.60296 -1.37059 0)
(-5.30151 -1.40954 0)
(-4.99629 -1.43438 5.86892e-21)
(-4.68954 -1.4473 0)
(-4.38285 -1.45036 0)
(-4.07749 -1.44522 -5.975e-21)
(-3.77458 -1.43324 -4.22942e-21)
(-3.47528 -1.41563 0)
(-3.18084 -1.39367 0)
(-2.89222 -1.36906 0)
(-2.60963 -1.34386 0)
(-2.33232 -1.32021 2.96563e-21)
(-2.05859 -1.29979 -3.71419e-21)
(-1.78621 -1.28343 -5.19655e-21)
(-1.51275 -1.27092 -1.19876e-20)
(-1.23626 -1.2607 0)
(-0.955717 -1.25041 4.17721e-22)
(-0.671428 -1.23751 0)
(-0.38493 -1.21995 9.61516e-21)
(-0.0982827 -1.19677 3.56045e-22)
(0.186195 -1.16779 1.09162e-20)
(0.466384 -1.13328 -1.14555e-20)
(0.740512 -1.09373 2.73499e-22)
(1.00698 -1.04978 0)
(1.26456 -1.00209 -1.24038e-20)
(1.5121 -0.95136 -1.28748e-20)