/*--------------------------------*- C++ -*----------------------------------*\
  =========                 |
  \\      /  F ield         | OpenFOAM: The Open Source CFD Toolbox
   \\    /   O peration     | Website:  https://openfoam.org
    \\  /    A nd           | Version:  9
     \\/     M anipulation  |
\*---------------------------------------------------------------------------*/
FoamFile
{
    format      ascii;
    class       volSymmTensorField;
    location    "0.021";
    object      UPrime2Mean;
}
// * * * * * * * * * * * * * * * * * * * * * * * * * * * * * * * * * * * * * //

dimensions      [0 2 -2 0 0 0 0];

internalField   nonuniform List<symmTensor> 
12225
(
(-48.4701 -0.252181 0 0.00112922 0 0)
(-45.6106 -0.321501 0 -0.00126675 0 0)
(-42.7554 -0.296266 0 -0.00130722 0 0)
(-39.948 -0.279966 0 -0.00133291 0 0)
(-37.2477 -0.269065 0 -0.00138234 0 0)
(-34.7009 -0.256089 0 -0.00136929 0 0)
(-32.293 -0.244583 0 -0.00134787 0 0)
(-30.0462 -0.23253 0 -0.00133061 0 0)
(-27.8781 -0.226179 0 -0.00132514 0 0)
(-25.8565 -0.215402 0 -0.00134372 0 0)
(-23.8281 -0.215834 0 -0.00131323 0 0)
(-21.992 -0.201356 0 -0.001365 0 0)
(-20.0108 -0.217811 0 -0.00117045 0 0)
(-18.3274 -0.19113 0 -0.00138043 0 0)
(-16.2172 -0.2505 0 -0.000356912 0 0)
(-14.6126 -0.184218 0 -0.00108894 0 0)
(-12.031 -0.383498 0 0.00566835 0 0)
(-10.2348 -0.243426 0 -0.000932686 0 0)
(-49.6969 -0.216472 0 0.0015261 0 0)
(-50.3287 -0.349217 0 -0.00112916 0 0)
(-50.6983 -0.352267 0 -0.00172232 0 0)
(-50.8328 -0.369525 0 -0.00214868 0 0)
(-50.7781 -0.395167 0 -0.00261954 0 0)
(-50.5688 -0.418189 0 -0.00301416 0 0)
(-50.2303 -0.433213 0 -0.00328775 0 0)
(-49.8105 -0.452064 0 -0.00354467 0 0)
(-49.3114 -0.467165 0 -0.00379547 0 0)
(-48.7591 -0.495448 0 -0.00404693 0 0)
(-48.1048 -0.513273 0 -0.00435085 0 0)
(-47.3883 -0.553558 0 -0.00446814 0 0)
(-46.5149 -0.573632 0 -0.00487292 0 0)
(-45.5832 -0.638717 0 -0.00458764 0 0)
(-44.4053 -0.676405 0 -0.00537963 0 0)
(-43.1802 -0.798688 0 -0.00344131 0 0)
(-41.56 -0.937121 0 -0.00383632 0 0)
(-39.9255 -1.25286 0 0.0119569 0 0)
(-50.0782 -0.183117 0 0.00320625 0 0)
(-50.2629 -0.286042 0 0.000465432 0 0)
(-50.4706 -0.298969 0 -0.000301201 0 0)
(-50.6389 -0.317393 0 -0.000798508 0 0)
(-50.7567 -0.351589 0 -0.00137815 0 0)
(-50.8275 -0.386741 0 -0.00192641 0 0)
(-50.8434 -0.41712 0 -0.00232731 0 0)
(-50.8088 -0.441459 0 -0.00265048 0 0)
(-50.7244 -0.468433 0 -0.00288237 0 0)
(-50.6056 -0.496546 0 -0.00320083 0 0)
(-50.4485 -0.537925 0 -0.00332736 0 0)
(-50.2579 -0.580388 0 -0.00371997 0 0)
(-50.0139 -0.647618 0 -0.00348607 0 0)
(-49.71 -0.71465 0 -0.00394749 0 0)
(-49.3265 -0.831014 0 -0.00249436 0 0)
(-48.848 -0.961471 0 -0.00183636 0 0)
(-48.3021 -1.20548 0 0.00571611 0 0)
(-47.7058 -1.54497 0 0.0255919 0 0)
(-49.8555 -0.151606 0 0.00303215 0 0)
(-50.087 -0.290821 0 0.00018409 0 0)
(-50.3114 -0.316241 0 -0.000820232 0 0)
(-50.4487 -0.330006 0 -0.00126337 0 0)
(-50.4905 -0.359926 0 -0.00174678 0 0)
(-50.475 -0.398872 0 -0.00227586 0 0)
(-50.4353 -0.435133 0 -0.00271613 0 0)
(-50.382 -0.470125 0 -0.00302852 0 0)
(-50.3105 -0.503329 0 -0.00327772 0 0)
(-50.2106 -0.541737 0 -0.00343287 0 0)
(-50.0749 -0.582736 0 -0.00357686 0 0)
(-49.8987 -0.635057 0 -0.00350383 0 0)
(-49.6789 -0.698015 0 -0.00333415 0 0)
(-49.4147 -0.784481 0 -0.00256362 0 0)
(-49.1015 -0.90156 0 -0.00100612 0 0)
(-48.7506 -1.06566 0 0.00286436 0 0)
(-48.3703 -1.30459 0 0.0128059 0 0)
(-48.0271 -1.61814 0 0.0344595 0 0)
(-50.4016 -0.130927 0 0.00413061 0 0)
(-50.4769 -0.236375 0 0.0019274 0 0)
(-50.5463 -0.278794 0 0.00045312 0 0)
(-50.5657 -0.306104 0 -0.000300742 0 0)
(-50.5303 -0.345547 0 -0.000968337 0 0)
(-50.4677 -0.38984 0 -0.00152962 0 0)
(-50.4024 -0.428267 0 -0.00188373 0 0)
(-50.3408 -0.461259 0 -0.00212185 0 0)
(-50.2735 -0.496839 0 -0.0022611 0 0)
(-50.188 -0.540199 0 -0.00234879 0 0)
(-50.0721 -0.595124 0 -0.00227275 0 0)
(-49.9188 -0.661819 0 -0.00200633 0 0)
(-49.7212 -0.744035 0 -0.00123783 0 0)
(-49.481 -0.846806 0 0.000318653 0 0)
(-49.1973 -0.978756 0 0.0034028 0 0)
(-48.8877 -1.15477 0 0.00997241 0 0)
(-48.5632 -1.38201 0 0.0225369 0 0)
(-48.2732 -1.67252 0 0.049326 0 0)
(-49.7999 -0.153202 0 0.00517127 0 0)
(-49.9668 -0.263119 0 0.00241242 0 0)
(-50.1109 -0.317051 0 0.000298254 0 0)
(-50.2203 -0.343856 0 -0.000643759 0 0)
(-50.2848 -0.374359 0 -0.00122895 0 0)
(-50.301 -0.413437 0 -0.00167581 0 0)
(-50.2757 -0.453035 0 -0.00197823 0 0)
(-50.2173 -0.491074 0 -0.00213823 0 0)
(-50.131 -0.530851 0 -0.00216866 0 0)
(-50.0216 -0.577038 0 -0.00204749 0 0)
(-49.892 -0.632747 0 -0.00168017 0 0)
(-49.7417 -0.701202 0 -0.000920382 0 0)
(-49.5655 -0.786863 0 0.00052362 0 0)
(-49.36 -0.89634 0 0.00311705 0 0)
(-49.1242 -1.03693 0 0.00782579 0 0)
(-48.8665 -1.21781 0 0.0164554 0 0)
(-48.6014 -1.44265 0 0.0319823 0 0)
(-48.3571 -1.71673 0 0.0600065 0 0)
(-50.2923 -0.0608273 0 0.00447353 0 0)
(-50.3379 -0.177255 0 0.00324978 0 0)
(-50.4062 -0.240391 0 0.00167663 0 0)
(-50.4833 -0.285682 0 0.000695552 0 0)
(-50.5436 -0.334932 0 -3.42667e-05 0 0)
(-50.5795 -0.388674 0 -0.000577645 0 0)
(-50.5932 -0.439576 0 -0.000872285 0 0)
(-50.5843 -0.48642 0 -0.00094932 0 0)
(-50.5484 -0.534272 0 -0.000846289 0 0)
(-50.4801 -0.589226 0 -0.000507536 0 0)
(-50.3771 -0.655514 0 0.000187013 0 0)
(-50.2389 -0.736779 0 0.00147541 0 0)
(-50.0687 -0.836054 0 0.00369179 0 0)
(-49.8698 -0.958628 0 0.00751364 0 0)
(-49.6535 -1.10873 0 0.0138855 0 0)
(-49.428 -1.29311 0 0.0247384 0 0)
(-49.2143 -1.51294 0 0.0424845 0 0)
(-49.0237 -1.77088 0 0.0709837 0 0)
(-49.8926 -0.141727 0 0.00536003 0 0)
(-49.8922 -0.239024 0 0.00217859 0 0)
(-49.8894 -0.298673 0 0.00067637 0 0)
(-49.9296 -0.333231 0 0.000105205 0 0)
(-50.0037 -0.364483 0 -0.000260387 0 0)
(-50.0834 -0.40375 0 -0.000498813 0 0)
(-50.1465 -0.450669 0 -0.000593907 0 0)
(-50.184 -0.501679 0 -0.000528855 0 0)
(-50.1897 -0.556787 0 -0.000252428 0 0)
(-50.1619 -0.618734 0 0.000350295 0 0)
(-50.0979 -0.690716 0 0.00145339 0 0)
(-50.0029 -0.776358 0 0.00334122 0 0)
(-49.8763 -0.879141 0 0.00641525 0 0)
(-49.7315 -1.00399 0 0.0113981 0 0)
(-49.5675 -1.15446 0 0.0192614 0 0)
(-49.4111 -1.33553 0 0.0317429 0 0)
(-49.2545 -1.547 0 0.0507672 0 0)
(-49.1453 -1.79033 0 0.0791656 0 0)
(-49.4789 -0.051493 0 0.00540523 0 0)
(-49.5496 -0.156108 0 0.00305436 0 0)
(-49.5864 -0.233947 0 0.00175603 0 0)
(-49.6231 -0.279503 0 0.00111163 0 0)
(-49.6542 -0.315862 0 0.000749083 0 0)
(-49.6599 -0.360252 0 0.000500896 0 0)
(-49.6373 -0.413253 0 0.000408532 0 0)
(-49.5986 -0.47138 0 0.000567655 0 0)
(-49.55 -0.534967 0 0.00105938 0 0)
(-49.4927 -0.6078 0 0.00199429 0 0)
(-49.4209 -0.692814 0 0.00355639 0 0)
(-49.3358 -0.792802 0 0.00608477 0 0)
(-49.2318 -0.909068 0 0.0100541 0 0)
(-49.119 -1.04485 0 0.0162347 0 0)
(-48.9915 -1.20136 0 0.0255753 0 0)
(-48.875 -1.38266 0 0.0395328 0 0)
(-48.7563 -1.5873 0 0.0595984 0 0)
(-48.6828 -1.81763 0 0.0877629 0 0)
(-49.4661 -0.125981 0 0.0052731 0 0)
(-49.5023 -0.210948 0 0.00299156 0 0)
(-49.5283 -0.274777 0 0.00202757 0 0)
(-49.5442 -0.321252 0 0.00134855 0 0)
(-49.5453 -0.36238 0 0.000791805 0 0)
(-49.5271 -0.408107 0 0.000543889 0 0)
(-49.4909 -0.460478 0 0.000663635 0 0)
(-49.4438 -0.518593 0 0.00113853 0 0)
(-49.3884 -0.581703 0 0.00198877 0 0)
(-49.3256 -0.651925 0 0.00332803 0 0)
(-49.2553 -0.732315 0 0.00538665 0 0)
(-49.1811 -0.827244 0 0.00855102 0 0)
(-49.1026 -0.939171 0 0.0133244 0 0)
(-49.0235 -1.07182 0 0.0204402 0 0)
(-48.9415 -1.22503 0 0.0307719 0 0)
(-48.8673 -1.40173 0 0.0455658 0 0)
(-48.8002 -1.59809 0 0.0659554 0 0)
(-48.7606 -1.81649 0 0.0932956 0 0)
(-49.3859 -0.0292877 0 0.00677655 0 0)
(-49.4489 -0.156236 0 0.00512093 0 0)
(-49.5132 -0.222954 0 0.00329969 0 0)
(-49.581 -0.278419 0 0.00235424 0 0)
(-49.6429 -0.330445 0 0.00199221 0 0)
(-49.6815 -0.379986 0 0.00204208 0 0)
(-49.6898 -0.433288 0 0.00237199 0 0)
(-49.6711 -0.494199 0 0.0029904 0 0)
(-49.6309 -0.563314 0 0.00403967 0 0)
(-49.5737 -0.641687 0 0.00575372 0 0)
(-49.505 -0.730924 0 0.00841517 0 0)
(-49.4297 -0.833983 0 0.012387 0 0)
(-49.3534 -0.952414 0 0.0181267 0 0)
(-49.2761 -1.08878 0 0.0262937 0 0)
(-49.2042 -1.24234 0 0.0376224 0 0)
(-49.1351 -1.41482 0 0.0531321 0 0)
(-49.0862 -1.60265 0 0.0736074 0 0)
(-49.0478 -1.80738 0 0.100044 0 0)
(-50.1082 -0.0902093 0 0.00633619 0 0)
(-50.0301 -0.183583 0 0.00594285 0 0)
(-50.0584 -0.235119 0 0.00368555 0 0)
(-50.1442 -0.285108 0 0.00218963 0 0)
(-50.2252 -0.336915 0 0.00162903 0 0)
(-50.2814 -0.391776 0 0.00173118 0 0)
(-50.3166 -0.453773 0 0.0022304 0 0)
(-50.3369 -0.524156 0 0.0030885 0 0)
(-50.3414 -0.600749 0 0.00446514 0 0)
(-50.3255 -0.682054 0 0.00659408 0 0)
(-50.2871 -0.769457 0 0.00972134 0 0)
(-50.2301 -0.867699 0 0.0141979 0 0)
(-50.1633 -0.980842 0 0.0204926 0 0)
(-50.0952 -1.11225 0 0.0292348 0 0)
(-50.0366 -1.26157 0 0.0410513 0 0)
(-49.9919 -1.42853 0 0.0567808 0 0)
(-49.9707 -1.60891 0 0.0769951 0 0)
(-49.9709 -1.80253 0 0.102378 0 0)
(-49.3736 -0.110037 0 0.00742161 0 0)
(-49.3924 -0.132382 0 0.0057994 0 0)
(-49.4288 -0.195437 0 0.00383435 0 0)
(-49.4757 -0.263326 0 0.003108 0 0)
(-49.5129 -0.322113 0 0.0030353 0 0)
(-49.5318 -0.374663 0 0.0033223 0 0)
(-49.5365 -0.430231 0 0.00391124 0 0)
(-49.5374 -0.495912 0 0.0049255 0 0)
(-49.5379 -0.573787 0 0.00654515 0 0)
(-49.535 -0.663637 0 0.00900315 0 0)
(-49.5247 -0.764408 0 0.0125878 0 0)
(-49.5091 -0.875874 0 0.0176724 0 0)
(-49.4942 -0.997376 0 0.0246566 0 0)
(-49.4894 -1.12991 0 0.0340482 0 0)
(-49.5005 -1.27294 0 0.0463156 0 0)
(-49.5354 -1.429 0 0.0621396 0 0)
(-49.5908 -1.59489 0 0.0818644 0 0)
(-49.676 -1.77479 0 0.106147 0 0)
(-49.9326 -0.0813373 0 0.00834995 0 0)
(-49.9566 -0.146435 0 0.00547278 0 0)
(-49.9612 -0.206814 0 0.00350008 0 0)
(-49.9866 -0.263408 0 0.00281352 0 0)
(-50.0219 -0.32012 0 0.0026551 0 0)
(-50.0457 -0.379963 0 0.00299265 0 0)
(-50.0538 -0.445818 0 0.00383606 0 0)
(-50.0529 -0.518732 0 0.00522743 0 0)
(-50.0508 -0.597799 0 0.00728572 0 0)
(-50.0518 -0.682459 0 0.0102064 0 0)
(-50.0573 -0.772634 0 0.0142335 0 0)
(-50.0693 -0.870334 0 0.019697 0 0)
(-50.0888 -0.9771 0 0.0269638 0 0)
(-50.1183 -1.0962 0 0.0365215 0 0)
(-50.1585 -1.22729 0 0.0487676 0 0)
(-50.2148 -1.37296 0 0.0642559 0 0)
(-50.2868 -1.52833 0 0.0831459 0 0)
(-50.3827 -1.69681 0 0.10592 0 0)
(-49.5991 -0.0696116 0 0.00886516 0 0)
(-49.6146 -0.150688 0 0.00742582 0 0)
(-49.6267 -0.204606 0 0.00482401 0 0)
(-49.6753 -0.255831 0 0.00395346 0 0)
(-49.746 -0.310181 0 0.00404032 0 0)
(-49.8096 -0.368222 0 0.00463049 0 0)
(-49.8529 -0.429895 0 0.00564101 0 0)
(-49.8784 -0.497314 0 0.00719647 0 0)
(-49.8922 -0.57338 0 0.0095317 0 0)
(-49.8993 -0.660389 0 0.012877 0 0)
(-49.904 -0.757755 0 0.017432 0 0)
(-49.9114 -0.864484 0 0.0234663 0 0)
(-49.926 -0.978207 0 0.0312476 0 0)
(-49.953 -1.0993 0 0.0411386 0 0)
(-49.9962 -1.22564 0 0.0533607 0 0)
(-50.06 -1.36033 0 0.0683566 0 0)
(-50.1466 -1.4987 0 0.0861315 0 0)
(-50.2579 -1.64679 0 0.107154 0 0)
(-50.1435 -0.0625724 0 0.0120345 0 0)
(-50.2405 -0.11081 0 0.0136078 0 0)
(-50.2959 -0.157749 0 0.0115353 0 0)
(-50.3371 -0.209187 0 0.00977216 0 0)
(-50.3773 -0.268226 0 0.00917766 0 0)
(-50.4258 -0.336752 0 0.00936657 0 0)
(-50.4765 -0.413954 0 0.0101249 0 0)
(-50.5194 -0.497221 0 0.0116115 0 0)
(-50.5517 -0.583543 0 0.0140794 0 0)
(-50.5783 -0.670842 0 0.0176994 0 0)
(-50.6083 -0.758036 0 0.0225155 0 0)
(-50.65 -0.846427 0 0.028588 0 0)
(-50.7092 -0.937391 0 0.036061 0 0)
(-50.7866 -1.03433 0 0.0452499 0 0)
(-50.8833 -1.13734 0 0.0563603 0 0)
(-50.9964 -1.24984 0 0.069862 0 0)
(-51.1287 -1.3675 0 0.0856825 0 0)
(-51.274 -1.49526 0 0.104144 0 0)
(-50.0555 0.033975 0 0.012482 0 0)
(-50.0737 -0.0963306 0 0.0126387 0 0)
(-50.0813 -0.170033 0 0.00862778 0 0)
(-50.0915 -0.222648 0 0.00644655 0 0)
(-50.111 -0.272078 0 0.0062495 0 0)
(-50.1505 -0.325348 0 0.00723123 0 0)
(-50.2138 -0.386946 0 0.00887391 0 0)
(-50.3024 -0.458647 0 0.0110238 0 0)
(-50.4105 -0.538695 0 0.0137952 0 0)
(-50.5267 -0.623801 0 0.0174841 0 0)
(-50.6387 -0.710528 0 0.0223322 0 0)
(-50.7431 -0.797968 0 0.0284831 0 0)
(-50.8384 -0.885657 0 0.0359712 0 0)
(-50.9323 -0.976271 0 0.0449575 0 0)
(-51.0256 -1.06972 0 0.0554854 0 0)
(-51.1309 -1.16929 0 0.0678951 0 0)
(-51.2424 -1.27099 0 0.0819803 0 0)
(-51.3776 -1.37906 0 0.0981429 0 0)
(-49.9182 -0.0540115 0 0.0115028 0 0)
(-49.862 -0.0915974 0 0.0124384 0 0)
(-49.8266 -0.137994 0 0.0109124 0 0)
(-49.8738 -0.18861 0 0.0100528 0 0)
(-49.9547 -0.235825 0 0.0102619 0 0)
(-50.0362 -0.274883 0 0.0109299 0 0)
(-50.1137 -0.312147 0 0.0117172 0 0)
(-50.1944 -0.359257 0 0.0130297 0 0)
(-50.2857 -0.422393 0 0.0152658 0 0)
(-50.3903 -0.500891 0 0.0185071 0 0)
(-50.5045 -0.589358 0 0.0227532 0 0)
(-50.6237 -0.682305 0 0.028105 0 0)
(-50.7424 -0.7744 0 0.0346088 0 0)
(-50.8618 -0.864223 0 0.0423478 0 0)
(-50.9807 -0.949805 0 0.0511894 0 0)
(-51.1079 -1.03423 0 0.0613248 0 0)
(-51.2398 -1.11523 0 0.0725531 0 0)
(-51.391 -1.19837 0 0.0851615 0 0)
(-49.581 -0.0586451 0 0.0128516 0 0)
(-49.6412 -0.0783136 0 0.0122319 0 0)
(-49.7198 -0.111916 0 0.0086269 0 0)
(-49.8344 -0.148463 0 0.00719673 0 0)
(-49.9437 -0.18779 0 0.00721836 0 0)
(-50.0239 -0.231745 0 0.00810623 0 0)
(-50.0822 -0.279189 0 0.00967681 0 0)
(-50.1308 -0.329693 0 0.0118117 0 0)
(-50.1794 -0.383986 0 0.0144314 0 0)
(-50.2404 -0.44335 0 0.01757 0 0)
(-50.3239 -0.508138 0 0.021316 0 0)
(-50.4334 -0.578696 0 0.0257922 0 0)
(-50.5647 -0.6528 0 0.0310642 0 0)
(-50.7129 -0.72892 0 0.0372617 0 0)
(-50.872 -0.802387 0 0.0443196 0 0)
(-51.0404 -0.872809 0 0.0523776 0 0)
(-51.2137 -0.93555 0 0.0611037 0 0)
(-51.3948 -0.994216 0 0.0706499 0 0)
(-49.6553 0.0420901 0 0.0128021 0 0)
(-49.7095 0.0108904 0 0.0129033 0 0)
(-49.7689 -0.00401679 0 0.00937215 0 0)
(-49.8444 -0.0343259 0 0.00749941 0 0)
(-49.9284 -0.0852909 0 0.00699991 0 0)
(-50.0169 -0.148659 0 0.00727678 0 0)
(-50.1085 -0.212322 0 0.00821698 0 0)
(-50.2056 -0.267812 0 0.00969595 0 0)
(-50.3092 -0.313667 0 0.0114996 0 0)
(-50.4193 -0.352989 0 0.0135548 0 0)
(-50.5374 -0.389384 0 0.0159389 0 0)
(-50.6671 -0.426706 0 0.0188146 0 0)
(-50.8107 -0.466894 0 0.0222809 0 0)
(-50.9693 -0.5114 0 0.0264009 0 0)
(-51.1413 -0.558282 0 0.0310773 0 0)
(-51.3244 -0.607061 0 0.0363785 0 0)
(-51.5146 -0.653525 0 0.0421083 0 0)
(-51.7088 -0.699153 0 0.0484048 0 0)
(-49.9845 -0.00176385 0 0.0102043 0 0)
(-50.0162 -0.00868048 0 0.0101394 0 0)
(-50.0447 -0.0207316 0 0.00778944 0 0)
(-50.0827 -0.0438435 0 0.00641294 0 0)
(-50.1421 -0.0773005 0 0.00599833 0 0)
(-50.2337 -0.116059 0 0.00641381 0 0)
(-50.3521 -0.154884 0 0.00740508 0 0)
(-50.4877 -0.191996 0 0.008745 0 0)
(-50.6294 -0.227863 0 0.0103359 0 0)
(-50.7657 -0.263166 0 0.0121887 0 0)
(-50.8926 -0.297487 0 0.0143306 0 0)
(-51.0137 -0.330726 0 0.016797 0 0)
(-51.1362 -0.362866 0 0.019594 0 0)
(-51.265 -0.395142 0 0.0227586 0 0)
(-51.4047 -0.42778 0 0.0262585 0 0)
(-51.5548 -0.461681 0 0.0301771 0 0)
(-51.7164 -0.494753 0 0.0343706 0 0)
(-51.8841 -0.527829 0 0.0389103 0 0)
(-50.3967 0.0827497 0 0.0111924 0 0)
(-50.3487 0.0682047 0 0.00856886 0 0)
(-50.3537 0.0305255 0 0.00580793 0 0)
(-50.4308 -0.000168212 0 0.00506475 0 0)
(-50.5491 -0.0191274 0 0.00505383 0 0)
(-50.6788 -0.0340869 0 0.00531013 0 0)
(-50.8051 -0.0551197 0 0.00585886 0 0)
(-50.9297 -0.0869296 0 0.00667183 0 0)
(-51.0577 -0.126703 0 0.00765492 0 0)
(-51.1906 -0.16874 0 0.0088416 0 0)
(-51.3274 -0.207916 0 0.0103113 0 0)
(-51.4672 -0.241513 0 0.0120654 0 0)
(-51.6094 -0.268846 0 0.0140159 0 0)
(-51.7547 -0.291597 0 0.0161277 0 0)
(-51.9038 -0.311493 0 0.018384 0 0)
(-52.0593 -0.331271 0 0.0209055 0 0)
(-52.2208 -0.350638 0 0.0236385 0 0)
(-52.3909 -0.37177 0 0.0266541 0 0)
(-49.4258 -0.0292858 0 0.00850343 0 0)
(-49.4487 0.0277563 0 0.00554707 0 0)
(-49.5191 0.0384459 0 0.00364203 0 0)
(-49.6526 0.0383748 0 0.00330337 0 0)
(-49.83 0.0284619 0 0.00349798 0 0)
(-50.0103 0.00587539 0 0.00387721 0 0)
(-50.1704 -0.0238637 0 0.00432308 0 0)
(-50.3144 -0.0547096 0 0.00491046 0 0)
(-50.4566 -0.083726 0 0.00569365 0 0)
(-50.6071 -0.110725 0 0.00667055 0 0)
(-50.7682 -0.135781 0 0.00781921 0 0)
(-50.9376 -0.158748 0 0.00912831 0 0)
(-51.1107 -0.179114 0 0.0105737 0 0)
(-51.2839 -0.197315 0 0.0121544 0 0)
(-51.4544 -0.21315 0 0.0138349 0 0)
(-51.6231 -0.227764 0 0.0156654 0 0)
(-51.7903 -0.240118 0 0.0175762 0 0)
(-51.9584 -0.251889 0 0.0196264 0 0)
(-50.0504 0.0699581 0 0.00900078 0 0)
(-50.1276 0.0711137 0 0.00671446 0 0)
(-50.2154 0.0911918 0 0.00463454 0 0)
(-50.3023 0.104151 0 0.003883 0 0)
(-50.4021 0.106948 0 0.0037056 0 0)
(-50.5131 0.0955094 0 0.00380946 0 0)
(-50.6301 0.0711387 0 0.0039735 0 0)
(-50.7554 0.041206 0 0.00420312 0 0)
(-50.894 0.0121601 0 0.00462037 0 0)
(-51.0493 -0.0134266 0 0.00523327 0 0)
(-51.2214 -0.0355382 0 0.00597747 0 0)
(-51.4069 -0.0549174 0 0.00681144 0 0)
(-51.6011 -0.0719637 0 0.00772174 0 0)
(-51.7978 -0.0872013 0 0.00871937 0 0)
(-51.9934 -0.100558 0 0.00978566 0 0)
(-52.1826 -0.112539 0 0.010955 0 0)
(-52.3663 -0.12251 0 0.012188 0 0)
(-52.5397 -0.131442 0 0.0134863 0 0)
(-50.2924 0.0916335 0 0.00756648 0 0)
(-50.3517 0.103224 0 0.00525132 0 0)
(-50.4391 0.116111 0 0.00348954 0 0)
(-50.518 0.120812 0 0.00284584 0 0)
(-50.581 0.115699 0 0.00269035 0 0)
(-50.651 0.103558 0 0.00276446 0 0)
(-50.7449 0.0857815 0 0.00293814 0 0)
(-50.8678 0.0665908 0 0.00320655 0 0)
(-51.0164 0.0509755 0 0.00357377 0 0)
(-51.1825 0.040752 0 0.00397075 0 0)
(-51.3581 0.0341332 0 0.0043651 0 0)
(-51.5374 0.0281643 0 0.00480192 0 0)
(-51.7175 0.0208828 0 0.00533123 0 0)
(-51.8964 0.0114835 0 0.00597544 0 0)
(-52.0727 0.000286173 0 0.00671285 0 0)
(-52.2459 -0.0122781 0 0.00755455 0 0)
(-52.4156 -0.0249218 0 0.00845442 0 0)
(-52.5821 -0.0376314 0 0.009419 0 0)
(-50.1063 0.0490896 0 0.00720884 0 0)
(-50.2134 0.107538 0 0.00465882 0 0)
(-50.3774 0.112795 0 0.00260586 0 0)
(-50.5384 0.11738 0 0.00192706 0 0)
(-50.6676 0.12498 0 0.00156771 0 0)
(-50.7861 0.131797 0 0.00141675 0 0)
(-50.918 0.133418 0 0.00145371 0 0)
(-51.0699 0.128191 0 0.00160939 0 0)
(-51.2362 0.118733 0 0.00181974 0 0)
(-51.408 0.108167 0 0.00206069 0 0)
(-51.5777 0.0979429 0 0.00232935 0 0)
(-51.7424 0.0880658 0 0.00263238 0 0)
(-51.9021 0.0783704 0 0.00297417 0 0)
(-52.0592 0.0687539 0 0.00336084 0 0)
(-52.2147 0.0596799 0 0.00378122 0 0)
(-52.3706 0.051342 0 0.00425108 0 0)
(-52.5261 0.0445394 0 0.00474389 0 0)
(-52.6833 0.0392929 0 0.00525147 0 0)
(-49.7012 0.160467 0 0.00485488 0 0)
(-49.8477 0.200258 0 0.00260584 0 0)
(-50.0435 0.202621 0 0.00141378 0 0)
(-50.2399 0.196154 0 0.00104696 0 0)
(-50.3962 0.19259 0 0.000961935 0 0)
(-50.5154 0.190134 0 0.000977493 0 0)
(-50.6226 0.185251 0 0.00103212 0 0)
(-50.7384 0.177819 0 0.00111092 0 0)
(-50.8716 0.170104 0 0.0012148 0 0)
(-51.0224 0.163647 0 0.00133889 0 0)
(-51.185 0.158285 0 0.0014807 0 0)
(-51.3535 0.152954 0 0.00165167 0 0)
(-51.5243 0.146967 0 0.00186141 0 0)
(-51.697 0.140082 0 0.00211392 0 0)
(-51.8717 0.132634 0 0.00239823 0 0)
(-52.0489 0.125011 0 0.00271886 0 0)
(-52.2262 0.117949 0 0.00305656 0 0)
(-52.4034 0.111919 0 0.00340441 0 0)
(-49.6878 0.0956726 0 0.00427406 0 0)
(-49.7692 0.152734 0 0.00198257 0 0)
(-49.9002 0.169274 0 0.00101581 0 0)
(-50.0416 0.172756 0 0.000650125 0 0)
(-50.1698 0.177733 0 0.00042775 0 0)
(-50.2944 0.182587 0 0.000306199 0 0)
(-50.4339 0.185827 0 0.000246582 0 0)
(-50.5953 0.188237 0 0.000203492 0 0)
(-50.7729 0.190171 0 0.000161821 0 0)
(-50.955 0.191099 0 0.000135064 0 0)
(-51.1302 0.190231 0 0.000141834 0 0)
(-51.2916 0.187648 0 0.000185625 0 0)
(-51.44 0.184176 0 0.000257723 0 0)
(-51.5799 0.181064 0 0.000344433 0 0)
(-51.7198 0.178774 0 0.000437555 0 0)
(-51.8646 0.177373 0 0.000544303 0 0)
(-52.0199 0.176397 0 0.000664354 0 0)
(-52.183 0.17567 0 0.000800419 0 0)
(-50.1433 0.195671 0 0.00283115 0 0)
(-50.5124 0.252641 0 0.000345228 0 0)
(-50.8435 0.249746 0 -9.05335e-05 0 0)
(-51.0863 0.24803 0 -0.000199785 0 0)
(-51.2484 0.253612 0 -0.000300103 0 0)
(-51.3654 0.258753 0 -0.000386179 0 0)
(-51.4672 0.261963 0 -0.00044524 0 0)
(-51.5652 0.264057 0 -0.000476623 0 0)
(-51.6565 0.26428 0 -0.000471796 0 0)
(-51.7359 0.261515 0 -0.000428724 0 0)
(-51.7995 0.255309 0 -0.000356446 0 0)
(-51.8489 0.246929 0 -0.000268975 0 0)
(-51.8843 0.238368 0 -0.000168446 0 0)
(-51.9113 0.232016 0 -6.3703e-05 0 0)
(-51.9282 0.228625 0 2.68445e-05 0 0)
(-51.9449 0.228358 0 9.31043e-05 0 0)
(-51.9549 0.230025 0 0.000135975 0 0)
(-51.9752 0.233326 0 0.000152593 0 0)
(-48.9008 0.199728 0 0.00203364 0 0)
(-47.2441 0.239774 0 0.000211433 0 0)
(-45.6466 0.229053 0 -8.53134e-05 0 0)
(-44.0984 0.217734 0 -0.000174431 0 0)
(-42.6173 0.210574 0 -0.000238397 0 0)
(-41.217 0.205155 0 -0.000278668 0 0)
(-39.8965 0.20117 0 -0.00032048 0 0)
(-38.6485 0.198016 0 -0.000373975 0 0)
(-37.4689 0.19416 0 -0.00041564 0 0)
(-36.3629 0.188384 0 -0.000422876 0 0)
(-35.3374 0.180301 0 -0.000396883 0 0)
(-34.3997 0.17079 0 -0.000356476 0 0)
(-33.5432 0.161364 0 -0.000313636 0 0)
(-32.7625 0.153725 0 -0.000277394 0 0)
(-32.0345 0.148528 0 -0.000256477 0 0)
(-31.3571 0.145795 0 -0.000255236 0 0)
(-30.7017 0.14477 0 -0.000277739 0 0)
(-30.0877 0.145011 0 -0.000321877 0 0)
(0.000828255 -0.000964407 4.51328e-23 0.000459855 -1.17556e-22 4.31305e-39)
(0.00874892 -0.00170663 -1.48888e-22 -0.00456308 1.57455e-22 4.2486e-39)
(0.028645 -0.00418476 0 -0.00398421 0 0)
(0.0666699 -0.00964212 0 -0.00212037 0 0)
(0.127099 -0.0178773 0 5.16119e-05 0 0)
(0.215969 -0.0293724 5.89116e-22 0.00245452 -1.49768e-22 3.98935e-39)
(0.338746 -0.0442602 0 0.00501938 0 0)
(0.501578 -0.0623816 0 0.00762527 0 0)
(0.709372 -0.0830744 0 0.0101023 0 0)
(0.966278 -0.105301 0 0.0122612 0 0)
(1.27409 -0.127724 -1.02811e-21 0.013936 1.12149e-22 3.68225e-39)
(1.63189 -0.148779 0 0.0149828 0 0)
(2.03502 -0.166766 0 0.0152916 0 0)
(2.47488 -0.179802 0 0.0147615 0 0)
(2.93869 -0.185718 0 0.0132969 0 0)
(3.40885 -0.182506 -1.16372e-21 0.0108558 -1.17728e-23 3.39731e-39)
(3.86181 -0.168337 0 0.00746045 0 0)
(4.27153 -0.143899 0 0.00337672 0 0)
(4.61155 -0.111678 0 -0.00104055 0 0)
(4.86066 -0.0777812 0 -0.00510987 0 0)
(5.00693 -0.0507232 0 -0.00737404 0 0)
(5.05293 -0.0372482 0 -0.00516589 0 0)
(5.02226 -0.0723696 0 0.00603798 0 0)
(4.89869 -0.102035 -3.8797e-22 0.0254724 -1.90251e-22 2.98676e-39)
(4.8077 -0.140412 2.98241e-22 0.0450168 1.75906e-22 2.93762e-39)
(4.90724 -0.517466 -2.51654e-22 0.167657 2.29903e-23 2.88718e-39)
(4.87573 -1.03023 -1.38716e-22 0.455789 2.52813e-22 2.83692e-39)
(4.3383 -0.972018 0 0.570551 0 0)
(3.13575 0.186966 0 0.161885 0 0)
(0.374687 1.33647 -1.12699e-21 -0.102323 6.88872e-22 2.68465e-39)
(-2.99287 1.62899 -1.90833e-21 -0.10913 7.01698e-22 2.63278e-39)
(-6.38394 1.67788 0 -0.0931377 0 0)
(-9.77984 1.63832 0 -0.0756197 0 0)
(-13.0382 1.55522 -5.21151e-21 -0.058491 6.2738e-22 2.48257e-39)
(-16.1312 1.43891 0 -0.0423901 0 0)
(-18.9794 1.30169 0 -0.0277703 0 0)
(-21.5539 1.1485 8.81361e-21 -0.0149414 -4.29864e-22 2.34269e-39)
(-23.8046 0.984358 0 -0.00406554 0 0)
(-25.7041 0.812175 1.06905e-20 0.00478425 -2.6914e-22 2.25519e-39)
(-27.2188 0.634928 2.26988e-20 0.0116137 -3.67684e-22 8.85257e-39)
(-28.3285 0.455243 0 0.016468 0 0)
(-29.0148 0.276161 0 0.0194258 0 0)
(-29.2705 0.100986 0 0.0205991 0 0)
(-29.0981 -0.0665161 0 0.0201553 0 0)
(-28.5115 -0.222449 0 0.0183293 0 0)
(-27.5319 -0.362745 2.02497e-20 0.0154082 5.4839e-22 7.93221e-39)
(-26.1932 -0.484232 1.81883e-20 0.0117316 6.39544e-22 7.7918e-39)
(-24.5424 -0.585217 1.57983e-20 0.00761887 7.04602e-22 7.65435e-39)
(-22.631 -0.665254 0 0.00329872 0 0)
(-20.5182 -0.725131 -1.03927e-20 -0.00102929 -7.56842e-22 7.38737e-39)
(-18.2528 -0.765376 0 -0.00519592 0 0)
(-15.8898 -0.78679 4.75769e-21 -0.00901946 7.17897e-22 7.12977e-39)
(-13.4769 -0.791498 2.05665e-21 -0.0123672 6.723e-22 7.00386e-39)
(-11.0609 -0.781152 0 -0.0151444 0 0)
(-8.68032 -0.758479 0 -0.0173187 0 0)
(-6.36802 -0.72595 0 -0.0188936 0 0)
(-4.15052 -0.685914 -6.73508e-21 -0.0199126 4.04782e-22 6.51604e-39)
(-2.04812 -0.640546 0 -0.0204381 0 0)
(-0.0766841 -0.591795 0 -0.0205551 0 0)
(1.75407 -0.54086 0 -0.0203479 0 0)
(3.43721 -0.489104 0 -0.0199177 0 0)
(4.9678 -0.437069 0 -0.0193523 0 0)
(6.34397 -0.385361 0 -0.0187385 0 0)
(7.56347 -0.334081 0 -0.0181382 0 0)
(8.6245 -0.283321 0 -0.0175945 0 0)
(9.52564 -0.232709 1.23879e-20 -0.0171102 1.10964e-22 5.49469e-39)
(10.2644 -0.182539 0 -0.0166839 0 0)
(10.8381 -0.132478 0 -0.0162642 0 0)
(11.2456 -0.08312 -1.09278e-20 -0.0158208 -2.25619e-22 5.17785e-39)
(11.4864 -0.0348125 -1.01871e-20 -0.0153049 -2.57266e-22 5.07503e-39)
(11.5623 0.0116453 0 -0.0146933 0 0)
(11.4782 0.0555637 8.42388e-21 -0.0139598 3.06589e-22 4.87338e-39)
(11.2417 0.0960267 -7.44186e-21 -0.0131116 -3.23268e-22 4.7746e-39)
(10.863 0.132329 0 -0.0121489 0 0)
(10.3551 0.16381 5.38382e-21 -0.0110944 3.39371e-22 4.58144e-39)
(9.73394 0.189924 0 -0.009969 0 0)
(9.01724 0.210369 0 -0.00881079 0 0)
(8.22435 0.225009 -2.37314e-21 -0.00765793 -3.22791e-22 4.30179e-39)
(7.37434 0.233993 0 -0.00654744 0 0)
(6.4857 0.237947 6.1034e-22 -0.00551511 2.91994e-22 4.12223e-39)
(5.57675 0.237226 0 -0.00458022 0 0)
(4.66283 0.23254 8.72082e-22 -0.00375512 -2.53005e-22 3.94807e-39)
(3.75763 0.224796 1.50207e-21 -0.00304299 -2.32534e-22 3.86291e-39)
(2.87358 0.214726 2.05916e-21 -0.00243876 -2.12236e-22 3.77899e-39)
(2.019 0.202758 5.09349e-21 -0.00193587 -3.84897e-22 1.47853e-38)
(1.19875 0.18965 -5.94213e-21 -0.00152193 3.47046e-22 1.44602e-38)
(0.417309 0.175851 0 -0.00118534 0 0)
(-0.321785 0.16177 0 -0.000914293 0 0)
(-1.01671 0.147715 0 -0.000697946 0 0)
(-1.66673 0.133916 -8.29105e-21 -0.000526749 2.17818e-22 1.32223e-38)
(-2.27193 0.120538 -8.66744e-21 -0.000392479 1.91449e-22 1.29278e-38)
(-2.833 0.107698 8.97802e-21 -0.000288166 -1.67344e-22 1.2639e-38)
(-3.35108 0.0954773 0 -0.000207957 0 0)
(-3.82763 0.0839324 -9.43303e-21 -0.000146959 1.25431e-22 1.20779e-38)
(-4.26433 0.0731008 -9.59113e-21 -0.000101106 1.07362e-22 1.18054e-38)
(-4.66305 0.0630062 -9.71089e-21 -6.70468e-05 9.1048e-23 1.1538e-38)
(-5.0258 0.0536601 0 -4.20608e-05 0 0)
(-5.35466 0.045062 0 -2.39892e-05 0 0)
(-5.65178 0.0371993 0 -1.11583e-05 0 0)
(-5.9193 0.0300477 -9.90045e-21 -2.30349e-06 4.10883e-23 1.05182e-38)
(-6.15935 0.023573 0 3.52212e-06 0 0)
(-6.37398 0.0177329 0 7.02497e-06 0 0)
(-6.56512 0.0124796 9.83894e-21 8.74211e-06 -1.66705e-23 9.80249e-39)
(-6.73459 0.00776386 0 9.09519e-06 0 0)
(-6.88405 0.0035354 0 8.42294e-06 0 0)
(-7.01501 -0.000252622 9.67763e-21 7.00332e-06 -2.86568e-25 9.1264e-39)
(-7.12885 -0.00364324 0 5.07413e-06 0 0)
(-7.22678 -0.00667708 0 2.82248e-06 0 0)
(-7.30993 -0.00938927 -9.45718e-21 4.09227e-07 -1.05736e-23 8.48777e-39)
(-7.37929 -0.0118126 -9.37507e-21 -2.04101e-06 -1.3286e-23 8.28289e-39)
(-7.43579 -0.0139896 0 -4.46796e-06 0 0)
(-7.48006 -0.0159481 9.20166e-21 -6.79739e-06 1.7744e-23 7.88469e-39)
(-7.5128 -0.0177172 0 -8.96702e-06 0 0)
(-7.5346 -0.0193206 -9.01856e-21 -1.09138e-05 -2.11759e-23 7.5015e-39)
(-7.5461 -0.0207499 0 -1.2535e-05 0 0)
(-7.54788 -0.0220263 -8.82806e-21 -1.37912e-05 -2.38045e-23 7.13283e-39)
(-7.54044 -0.0231612 -8.73063e-21 -1.46551e-05 -2.48534e-23 6.95379e-39)
(-7.52458 -0.0240824 0 -1.50193e-05 0 0)
(-7.50123 -0.0247212 0 -1.48572e-05 0 0)
(-7.47132 -0.0250632 0 -1.4263e-05 0 0)
(-7.43586 -0.0251149 0 -1.338e-05 0 0)
(-7.39588 -0.0248842 0 -1.23734e-05 0 0)
(-7.35237 -0.0243949 0 -1.13944e-05 0 0)
(-7.30621 -0.0236945 0 -1.05277e-05 0 0)
(-7.25821 -0.0228315 -7.94345e-21 -9.80471e-06 -2.37492e-23 5.64119e-39)
(-7.20911 -0.0218508 7.84979e-21 -9.22077e-06 2.26248e-23 5.49126e-39)
(-7.15953 -0.0207922 0 -8.75136e-06 0 0)
(-7.11 -0.0196899 0 -8.36524e-06 0 0)
(-7.06094 -0.0185738 0 -8.02941e-06 0 0)
(-7.01268 -0.0174678 0 -7.71601e-06 0 0)
(-6.96548 -0.0163907 1.48304e-20 -7.40552e-06 3.30084e-23 1.91412e-38)
(-6.91954 -0.0153566 0 -7.08566e-06 0 0)
(-6.87497 -0.0143753 -1.45165e-20 -6.75137e-06 -2.85823e-23 1.80898e-38)
(-6.83186 -0.0134528 1.43667e-20 -6.403e-06 2.65731e-23 1.75801e-38)
(-6.79023 -0.0125922 0 -6.04406e-06 0 0)
(-6.7501 -0.0117946 0 -5.67995e-06 0 0)
(-6.71144 -0.0110589 0 -5.31668e-06 0 0)
(-6.67423 -0.0103829 -1.38109e-20 -4.95978e-06 -1.99763e-23 1.56441e-38)
(-6.6384 -0.00976368 -1.36818e-20 -4.61401e-06 -1.86609e-23 1.51851e-38)
(-6.6039 -0.00919717 0 -4.28341e-06 0 0)
(-6.57067 -0.0086785 -1.34341e-20 -3.97105e-06 -1.63755e-23 1.42957e-38)
(-6.53865 -0.00820272 -1.33151e-20 -3.67891e-06 -1.53836e-23 1.38651e-38)
(-6.50778 -0.0077655 1.31991e-20 -3.40786e-06 1.4476e-23 1.34437e-38)
(-6.47801 -0.00736298 0 -3.15808e-06 0 0)
(-6.44927 -0.00699063 0 -2.92919e-06 0 0)
(-6.42152 -0.00664269 1.28674e-20 -2.72038e-06 1.21665e-23 1.22332e-38)
(-6.39473 -0.00631285 0 -2.53042e-06 0 0)
(-6.36886 -0.00599648 0 -2.35808e-06 0 0)
(-6.3439 -0.00569252 0 -2.20236e-06 0 0)
(-6.31982 -0.00540412 0 -2.06271e-06 0 0)
(-6.29657 -0.00513682 -1.2362e-20 -1.93862e-06 -9.21597e-24 1.03862e-38)
(-6.2741 -0.00489647 -1.22671e-20 -1.83008e-06 -8.74657e-24 1.00412e-38)
(-6.2523 -0.00468624 0 -1.73674e-06 0 0)
(-6.23109 -0.00450702 -1.20828e-20 -1.65878e-06 -7.97465e-24 9.37445e-39)
(-6.21034 -0.004356 0 -1.59505e-06 0 0)
(-6.18996 -0.00423091 0 -1.54567e-06 0 0)
(-6.1698 -0.00412737 -1.18176e-20 -1.50881e-06 -7.20722e-24 8.43088e-39)
(-6.1498 -0.00404555 0 -1.4862e-06 0 0)
(-6.12977 -0.00398291 -1.16471e-20 -1.47625e-06 -6.90393e-24 7.83814e-39)
(-6.10972 -0.00394417 0 -1.48407e-06 0 0)
(-6.08927 -0.00392869 0 -1.50844e-06 0 0)
(-6.06865 -0.00394445 -1.13988e-20 -1.55896e-06 -6.76945e-24 7.00123e-39)
(-6.04706 -0.00399468 0 -1.63671e-06 0 0)
(-6.0252 -0.00408495 -1.12371e-20 -1.75483e-06 -6.96801e-24 6.47686e-39)
(-6.00137 -0.00423614 0 -1.9294e-06 0 0)
(-5.9773 -0.00442878 0 -2.16221e-06 0 0)
(-5.94941 -0.00475251 0 -2.54297e-06 0 0)
(-5.92167 -0.00508069 1.09183e-20 -2.97593e-06 8.58277e-24 5.50509e-39)
(-5.8867 -0.00573679 0 -3.87938e-06 0 0)
(-5.85271 -0.00621581 -1.07577e-20 -4.63499e-06 -1.04669e-23 5.05622e-39)
(-5.80563 -0.00758324 0 -7.12005e-06 0 0)
(-5.76012 -0.00812823 0 -8.16702e-06 0 0)
(-5.69295 -0.0111802 0 -1.64155e-05 0 0)
(-5.62284 -0.0113498 0 -1.61068e-05 0 0)
(-5.52486 -0.0187868 0 -5.0017e-05 0 0)
(-5.39241 -0.016977 0 -3.54413e-05 0 0)
(-5.25641 -0.0370184 0 -0.000215646 0 0)