/*--------------------------------*- C++ -*----------------------------------*\
  =========                 |
  \\      /  F ield         | OpenFOAM: The Open Source CFD Toolbox
   \\    /   O peration     | Website:  https://openfoam.org
    \\  /    A nd           | Version:  9
     \\/     M anipulation  |
\*---------------------------------------------------------------------------*/
FoamFile
{
    format      ascii;
    class       volScalarField;
    location    "0.097";
    object      k;
}
// * * * * * * * * * * * * * * * * * * * * * * * * * * * * * * * * * * * * * //

dimensions      [0 2 -2 0 0 0 0];

internalField   nonuniform List<scalar> 
12225
(
0.000130786
7.00062e-05
5.09908e-05
4.16815e-05
3.48223e-05
3.39748e-05
3.61372e-05
3.90966e-05
3.95335e-05
3.86666e-05
3.38102e-05
2.76759e-05
2.43582e-05
2.29841e-05
2.26846e-05
2.28484e-05
2.41648e-05
2.74984e-05
2.05722e-05
2.23244e-05
2.36094e-05
2.35489e-05
2.32355e-05
2.34095e-05
2.49488e-05
2.72451e-05
2.8204e-05
2.83314e-05
2.81377e-05
2.71661e-05
2.52467e-05
2.39072e-05
2.31734e-05
2.2957e-05
2.29997e-05
2.32513e-05
2.00189e-05
1.20997e-05
1.15229e-05
1.26802e-05
1.52923e-05
1.68837e-05
1.7803e-05
1.83002e-05
1.85202e-05
1.85764e-05
1.85776e-05
1.85545e-05
1.83217e-05
1.8049e-05
1.79181e-05
1.78301e-05
1.77609e-05
1.77761e-05
2.01328e-05
1.99832e-05
1.96464e-05
1.9409e-05
1.93389e-05
1.92612e-05
1.90382e-05
1.80287e-05
1.68804e-05
1.67386e-05
1.69249e-05
1.70798e-05
1.69778e-05
1.61197e-05
1.49994e-05
1.45867e-05
1.45225e-05
1.45599e-05
2.47935e-05
2.4533e-05
2.1657e-05
2.17351e-05
2.36408e-05
2.45245e-05
2.43224e-05
2.3726e-05
2.36432e-05
2.39328e-05
2.55453e-05
2.66567e-05
2.67137e-05
2.61822e-05
2.45126e-05
2.29809e-05
2.2197e-05
2.13388e-05
2.65317e-05
2.57146e-05
2.20403e-05
2.16148e-05
2.20246e-05
2.24123e-05
2.24461e-05
2.2292e-05
2.21855e-05
2.22199e-05
2.24708e-05
2.3062e-05
2.33358e-05
2.33179e-05
2.29286e-05
2.24077e-05
2.22712e-05
2.21397e-05
2.5743e-05
2.74969e-05
2.23837e-05
2.11183e-05
2.13088e-05
2.19502e-05
2.24131e-05
2.23944e-05
2.18309e-05
2.14247e-05
2.13352e-05
2.13517e-05
2.1485e-05
2.19194e-05
2.33337e-05
2.55027e-05
2.91383e-05
3.04047e-05
2.04959e-05
2.08751e-05
2.0874e-05
2.07296e-05
2.084e-05
2.10537e-05
2.14307e-05
2.15477e-05
2.15685e-05
2.15664e-05
2.15586e-05
2.15669e-05
2.16341e-05
2.18516e-05
2.24423e-05
2.3845e-05
2.6393e-05
3.18945e-05
2.01868e-05
2.1928e-05
2.45033e-05
2.36922e-05
2.22279e-05
2.23474e-05
2.33794e-05
2.28415e-05
2.17541e-05
2.13992e-05
2.13105e-05
2.1309e-05
2.13859e-05
2.17462e-05
2.29769e-05
2.75417e-05
3.51785e-05
4.38991e-05
2.05377e-05
2.11432e-05
2.12405e-05
2.16002e-05
2.44807e-05
2.77708e-05
2.75802e-05
2.64667e-05
2.6082e-05
2.56913e-05
2.49518e-05
2.37266e-05
2.29427e-05
2.27179e-05
2.2753e-05
2.30617e-05
2.39602e-05
2.62429e-05
2.18853e-05
2.25302e-05
2.18794e-05
2.15356e-05
2.18443e-05
2.4623e-05
3.69093e-05
4.31935e-05
4.26391e-05
3.75377e-05
2.92858e-05
2.46212e-05
2.2403e-05
2.13844e-05
2.09759e-05
2.08929e-05
2.09349e-05
2.1308e-05
2.03959e-05
2.06521e-05
2.05964e-05
2.05974e-05
2.08831e-05
2.22067e-05
2.6153e-05
4.42067e-05
7.2623e-05
7.81371e-05
7.27092e-05
5.15398e-05
3.57373e-05
2.7906e-05
2.43481e-05
2.30309e-05
2.27761e-05
2.29097e-05
2.0018e-05
2.0196e-05
2.07523e-05
2.15932e-05
2.20161e-05
2.27525e-05
2.61958e-05
3.12762e-05
3.39649e-05
3.71407e-05
3.98921e-05
4.112e-05
4.07667e-05
3.59996e-05
2.94658e-05
2.64058e-05
2.52665e-05
2.50913e-05
2.00033e-05
2.00861e-05
2.0577e-05
2.16173e-05
2.21464e-05
2.28851e-05
2.54036e-05
2.94316e-05
3.06831e-05
3.03592e-05
2.92326e-05
2.9031e-05
2.98865e-05
3.33321e-05
3.3875e-05
3.14662e-05
2.68072e-05
2.43336e-05
2.02552e-05
2.03639e-05
2.0369e-05
2.04535e-05
2.08513e-05
2.12355e-05
2.14565e-05
2.15395e-05
2.15432e-05
2.15633e-05
2.17081e-05
2.23912e-05
2.3201e-05
2.37745e-05
2.42739e-05
2.47306e-05
2.51093e-05
2.51866e-05
2.15346e-05
2.11172e-05
2.08684e-05
2.06874e-05
2.06702e-05
2.07598e-05
2.10564e-05
2.16807e-05
2.32646e-05
2.80583e-05
3.10917e-05
3.10427e-05
2.91188e-05
2.80368e-05
2.81138e-05
2.95771e-05
3.24496e-05
3.38204e-05
2.34213e-05
2.22248e-05
2.1936e-05
2.32194e-05
2.30372e-05
2.25558e-05
2.25113e-05
2.26454e-05
2.3016e-05
2.38498e-05
2.67765e-05
3.0799e-05
3.20788e-05
3.18151e-05
3.0374e-05
2.9813e-05
2.98771e-05
3.0503e-05
2.14923e-05
2.38421e-05
2.38793e-05
2.38647e-05
2.44803e-05
2.52151e-05
2.46154e-05
2.29091e-05
2.25379e-05
2.2859e-05
2.47152e-05
2.58461e-05
2.58926e-05
2.56088e-05
2.48177e-05
2.43542e-05
2.42495e-05
2.43099e-05
2.04544e-05
2.07614e-05
2.09006e-05
2.1062e-05
2.23961e-05
2.38931e-05
2.36606e-05
2.25986e-05
2.22016e-05
2.21038e-05
2.20693e-05
2.20114e-05
2.18289e-05
2.15165e-05
2.13009e-05
2.12064e-05
2.11378e-05
2.10649e-05
2.06306e-05
2.097e-05
2.08558e-05
2.08917e-05
2.1443e-05
2.15628e-05
2.1354e-05
2.12164e-05
2.11308e-05
2.09411e-05
2.07869e-05
2.07385e-05
2.07458e-05
2.0856e-05
2.11614e-05
2.12711e-05
2.12794e-05
2.12787e-05
2.16381e-05
2.06294e-05
2.04561e-05
2.05238e-05
2.09195e-05
2.1664e-05
2.1943e-05
2.18867e-05
2.1801e-05
2.17697e-05
2.17614e-05
2.17623e-05
2.17751e-05
2.18368e-05
2.21055e-05
2.24652e-05
2.26574e-05
2.27017e-05
2.03456e-05
2.0179e-05
2.01943e-05
2.03656e-05
2.11095e-05
2.22164e-05
2.27212e-05
2.28043e-05
2.26988e-05
2.21006e-05
2.14473e-05
2.11563e-05
2.10972e-05
2.11249e-05
2.1199e-05
2.14555e-05
2.25123e-05
2.43751e-05
2.047e-05
2.02957e-05
2.034e-05
2.07433e-05
2.1353e-05
2.15959e-05
2.17992e-05
2.23611e-05
2.27626e-05
2.27693e-05
2.239e-05
2.17063e-05
2.14022e-05
2.13292e-05
2.13474e-05
2.15239e-05
2.24523e-05
2.42246e-05
2.4954e-05
2.2831e-05
2.20089e-05
2.25335e-05
2.33352e-05
2.32281e-05
2.28746e-05
2.26323e-05
2.26286e-05
2.28956e-05
2.30216e-05
2.26057e-05
2.15979e-05
2.10439e-05
2.0788e-05
2.06996e-05
2.06896e-05
2.07295e-05
2.32779e-05
2.15126e-05
2.04898e-05
2.04743e-05
2.08835e-05
2.12583e-05
2.1346e-05
2.13436e-05
2.1348e-05
2.14326e-05
2.19217e-05
2.21465e-05
2.18992e-05
2.11556e-05
2.07429e-05
2.05622e-05
2.05115e-05
2.05141e-05
2.76194e-05
2.62648e-05
2.14537e-05
2.05054e-05
2.04643e-05
2.07333e-05
2.19521e-05
2.31749e-05
2.36179e-05
2.3652e-05
2.34596e-05
2.26694e-05
2.19871e-05
2.16139e-05
2.14251e-05
2.13377e-05
2.13058e-05
2.13048e-05
2.16782e-05
2.074e-05
2.01035e-05
1.99029e-05
1.97154e-05
1.92695e-05
1.90344e-05
1.91315e-05
1.94108e-05
1.94795e-05
1.9441e-05
1.91593e-05
1.86081e-05
1.83091e-05
1.82518e-05
1.82824e-05
1.83075e-05
1.82898e-05
2.00298e-05
1.56225e-05
1.49023e-05
1.36793e-05
1.25428e-05
1.20823e-05
1.20406e-05
1.22218e-05
1.31308e-05
1.41179e-05
1.46068e-05
1.47149e-05
1.45012e-05
1.34864e-05
1.25969e-05
1.21559e-05
1.20464e-05
1.20927e-05
2.07344e-05
2.85485e-05
3.07787e-05
2.81998e-05
2.37136e-05
2.23047e-05
2.21997e-05
2.26747e-05
2.4453e-05
2.88531e-05
3.54864e-05
4.2991e-05
5.00584e-05
5.53638e-05
5.82483e-05
5.90817e-05
5.90458e-05
5.8552e-05
7.85045e-05
0.000202652
0.000203827
0.00012865
5.99656e-05
4.0481e-05
3.90225e-05
4.58638e-05
7.62623e-05
0.000111313
0.000133553
0.00014535
0.000150151
0.000151243
0.000150971
0.000148604
0.000139459
0.000116271
0.0599867
0.0823695
0.0831488
0.0803373
0.0805635
0.0827685
0.0857495
0.0880583
0.088323
0.0876296
0.0865757
0.0856065
0.0845822
0.083691
0.0826966
0.0818121
0.0809028
0.0797632
0.0789372
0.0781698
0.0772987
0.0765089
0.076599
0.0769738
0.0778134
0.0789571
0.0808655
0.0830748
0.0840739
0.0843741
0.085104
0.0875952
0.0879822
0.0839134
0.0761863
0.0747483
0.0750717
0.0764036
0.0796287
0.088029
0.102101
0.131946
0.19911
0.242445
0.28305
0.416415
0.484991
0.459555
0.276613
0.17651
0.132674
0.110883
0.0957082
0.0909516
0.0894313
0.0890857
0.0872227
0.0869468
0.0873734
0.0887588
0.0926574
0.0982307
0.104149
0.112004
0.122029
0.126409
0.127202
0.12721
0.126815
0.125969
0.124474
0.121801
0.117173
0.109819
0.0994059
0.0863968
0.0719778
0.057673
0.0448332
0.0352886
0.0312901
0.0294865
0.0285889
0.0280122
0.0274475
0.0268059
0.0261184
0.0254582
0.0248915
0.0244662
0.0243236
0.0243177
0.0243959
0.0246651
0.0252969
0.0265769
0.0287867
0.0320103
0.0358901
0.0394535
0.0422811
0.044131
0.0451195
0.0473463
0.0506351
0.0525089
0.0529265
0.0528726
0.0525842
0.0471607
0.0441712
0.0556746
0.172018
0.485503
0.593455
0.493473
0.186842
0.0757498
0.0519445
0.0444306
0.0402932
0.0370649
0.0337258
0.0306262
0.0280021
0.0253503
0.0237148
0.0216905
0.0207416
0.0197268
0.0192813
0.0191446
0.0190607
0.0190508
0.0191214
0.0192397
0.0194814
0.0198027
0.0202646
0.0208235
0.021518
0.0222994
0.0231816
0.0241031
0.0250659
0.0259745
0.0267789
0.0273809
0.027835
0.0281141
0.0282412
0.0282641
0.0281981
0.0280887
0.0279499
0.0277598
0.027475
0.0271563
0.0268408
0.0265854
0.026323
0.0260916
0.0260567
0.0260865
0.026143
0.0262436
0.0263774
0.0265574
0.0268417
0.0273477
0.0276257
0.0262997
0.0126959
0.00827659
0.0101074
0.0116128
0.0129332
0.0104613
0.00978205
0.00933197
0.0495202
0.0359895
0.0487934
0.0596291
0.0679282
0.0743172
0.0794746
0.0828484
0.0842265
0.084121
0.0834244
0.0818422
0.0797441
0.0777724
0.0756202
0.0735449
0.0714376
0.0694445
0.0672862
0.0651328
0.0632989
0.0613565
0.0590217
0.057411
0.0571135
0.0572777
0.0579008
0.059254
0.0624589
0.0682941
0.0711051
0.0760394
0.0796243
0.0795802
0.0781621
0.0743659
0.0679544
0.0634699
0.0625028
0.0634514
0.0703164
0.0908042
0.103938
0.116931
0.163578
0.33109
0.365265
0.260008
0.177874
0.137272
0.106527
0.0898453
0.071567
0.0605904
0.0515181
0.0467063
0.0417505
0.0395583
0.0364104
0.0342362
0.0329744
0.030895
0.0292834
0.0275631
0.0257349
0.024204
0.0229682
0.0220986
0.0213096
0.020372
0.0193143
0.0184562
0.0179254
0.0174335
0.0167583
0.0160561
0.0154541
0.0151004
0.0148619
0.0145107
0.0143121
0.0142318
0.0141826
0.0141346
0.0140786
0.014014
0.0139046
0.0137622
0.0136505
0.0136024
0.0135866
0.0135895
0.0136723
0.0139497
0.0144695
0.0152065
0.0162249
0.017981
0.0208894
0.0245978
0.0260242
0.0264332
0.026691
0.0285971
0.033226
0.0386422
0.0411663
0.0435077
0.0547354
0.0619137
0.0559501
0.0556431
0.0704305
0.146152
0.372618
0.343551
0.121569
0.0586198
0.0417096
0.0339769
0.0286389
0.0244031
0.020863
0.0182763
0.0164516
0.0149051
0.0140852
0.013213
0.0127996
0.0124016
0.012203
0.0121057
0.0120766
0.0120983
0.0120983
0.0121545
0.0122241
0.0123366
0.012508
0.0127414
0.0130527
0.0134249
0.0138968
0.0144386
0.01507
0.0158239
0.0165787
0.0172965
0.0179825
0.0186073
0.0190597
0.0193267
0.0194637
0.0195239
0.0195604
0.0195933
0.0196021
0.0196342
0.0196857
0.0197978
0.0198742
0.0199044
0.0199823
0.0200395
0.0199981
0.0200042
0.0200598
0.0201653
0.0205309
0.0212332
0.0238787
0.0253227
0.0244379
0.0200661
0.0131718
0.0172917
0.0188728
0.0169709
0.0168396
0.0147081
0.0389515
0.0382288
0.0484549
0.0569755
0.0626328
0.068284
0.0741559
0.078652
0.0815738
0.0832248
0.0833294
0.0835946
0.0838326
0.0838033
0.0833579
0.0822562
0.0805268
0.078536
0.0758301
0.0727405
0.0688543
0.064415
0.0603479
0.0571161
0.0542654
0.0516129
0.0499412
0.0495477
0.0497037
0.0504596
0.0529323
0.0557918
0.0592129
0.0639937
0.0653421
0.0647018
0.0609304
0.0573697
0.0576626
0.0619606
0.0854677
0.11787
0.141865
0.203368
0.262812
0.298453
0.214508
0.162254
0.109956
0.0767141
0.0594392
0.0384507
0.0243755
0.0180507
0.0131665
0.0108849
0.00903441
0.00815998
0.00721238
0.00675745
0.00642499
0.00628073
0.00627049
0.00662526
0.0075617
0.00902228
0.0106964
0.012127
0.0131733
0.0139373
0.0144142
0.0147939
0.0150331
0.0152253
0.0153162
0.0153484
0.01535
0.0152772
0.0152003
0.0151831
0.0151789
0.0151779
0.0151817
0.0151849
0.0151703
0.0150846
0.0149514
0.0148523
0.0147845
0.0147054
0.0146245
0.0145537
0.0145073
0.0144673
0.0142982
0.0139742
0.0137306
0.0136165
0.0135755
0.0136443
0.01391
0.0142984
0.0149576
0.0164212
0.0169318
0.0171564
0.017427
0.0200365
0.036099
0.0761325
0.077718
0.0718266
0.0777973
0.178849
0.32189
0.184256
0.0569834
0.0352341
0.0266194
0.0207424
0.0160219
0.0126927
0.0102061
0.00887257
0.00805567
0.00738969
0.00699239
0.00663332
0.00639744
0.00627492
0.00651908
0.00750994
0.0090655
0.00993405
0.0103293
0.0105245
0.0107156
0.0109026
0.0111423
0.011452
0.0118293
0.0122019
0.0125712
0.0129913
0.0133652
0.013819
0.0141612
0.0146272
0.014814
0.0148428
0.0147897
0.01464
0.0146279
0.0146929
0.0149373
0.015577
0.016323
0.0170587
0.0175856
0.018039
0.0182527
0.0182115
0.0180431
0.0177647
0.0171401
0.0164584
0.0162673
0.0158564
0.0158593
0.0160473
0.0165973
0.0190001
0.0226314
0.0224563
0.0189756
0.0169198
0.0164615
0.0171504
0.0199877
0.0207526
0.0354727
0.0434192
0.0476633
0.0502217
0.0562623
0.0654097
0.0754637
0.0850426
0.0922527
0.0977841
0.102464
0.105131
0.106608
0.107219
0.107136
0.106864
0.106453
0.105518
0.104624
0.103004
0.101016
0.0978729
0.0923566
0.0853998
0.0789453
0.0715086
0.0638984
0.0579025
0.0538134
0.0525871
0.0530075
0.0539089
0.0549882
0.056059
0.0560905
0.0551792
0.0542798
0.0553487
0.0649109
0.107721
0.156409
0.200057
0.227304
0.239683
0.245569
0.191422
0.138833
0.0900255
0.0555539
0.0384272
0.0243799
0.0151968
0.0113621
0.00975854
0.00914041
0.00899995
0.00905874
0.0096276
0.0102985
0.0109485
0.0119369
0.012453
0.0132377
0.0140552
0.0147877
0.0154733
0.0159003
0.0160638
0.0161433
0.0162247
0.0163169
0.0163303
0.016319
0.0162844
0.016215
0.0160755
0.0158452
0.0155485
0.0152503
0.0150102
0.014784
0.0144809
0.0141364
0.0139236
0.0137818
0.0135092
0.013234
0.0130656
0.0128936
0.0127561
0.0127137
0.0127077
0.0127719
0.0129128
0.0129409
0.0128974
0.0126348
0.0121252
0.0117248
0.0111142
0.0105176
0.0102143
0.0104392
0.0121314
0.0130133
0.0123703
0.0115714
0.0140418
0.0327971
0.100237
0.109113
0.100959
0.105977
0.222057
0.260147
0.0921437
0.0338498
0.023644
0.0184377
0.0151504
0.0125067
0.0109089
0.0100666
0.0097346
0.0104348
0.0110395
0.0113729
0.0114894
0.0114384
0.0109232
0.0106413
0.00999918
0.00931483
0.00879452
0.00829159
0.0077715
0.00744902
0.00727597
0.00747356
0.00805569
0.00908629
0.0102762
0.0112765
0.0121798
0.0128546
0.0134898
0.0139021
0.0145063
0.0149573
0.0154291
0.0159006
0.0162627
0.0168007
0.0172467
0.0177034
0.0181813
0.0184686
0.018766
0.0187958
0.0187136
0.0184692
0.017852
0.0169889
0.0161058
0.0143442
0.0132468
0.0131993
0.0134424
0.0144661
0.0163584
0.0174634
0.018526
0.0208859
0.0221795
0.02181
0.0197199
0.0178825
0.0181499
0.0193007
0.021215
0.0334541
0.0389466
0.0417598
0.0491927
0.0691242
0.0898732
0.101543
0.106007
0.108655
0.110205
0.110698
0.11054
0.109975
0.10871
0.107544
0.106531
0.106119
0.105608
0.105761
0.105988
0.105991
0.105943
0.105444
0.104035
0.10065
0.0975425
0.0923611
0.0822484
0.0716257
0.0634344
0.0585878
0.0564985
0.0550658
0.0536183
0.0527225
0.0527626
0.0557671
0.08185
0.138715
0.181089
0.208593
0.218875
0.223705
0.212303
0.165019
0.115964
0.0691421
0.0454835
0.0266302
0.0183591
0.0127909
0.0106072
0.00985773
0.00961143
0.00956256
0.0099813
0.0106068
0.0112363
0.0116208
0.0118975
0.0121051
0.0121734
0.0122108
0.0122597
0.0122959
0.0123567
0.0123825
0.0123936
0.0123956
0.0124008
0.0124135
0.0124171
0.0123957
0.0123455
0.0122908
0.0122052
0.0121151
0.0120222
0.0118887
0.0117808
0.0116933
0.011602
0.0115323
0.0114709
0.0114202
0.0113523
0.0113038
0.0112436
0.0111896
0.0111296
0.0110736
0.0110423
0.0110276
0.011014
0.0109779
0.0108853
0.0106502
0.0103237
0.00994461
0.00946263
0.00880157
0.00830601
0.00809295
0.00821865
0.00858164
0.00847147
0.0084027
0.0112361
0.0381663
0.143468
0.182692
0.172353
0.183703
0.260392
0.189294
0.0461502
0.0234498
0.0182212
0.015445
0.013828
0.0122023
0.0114399
0.0114968
0.0130385
0.0135924
0.013677
0.0133619
0.0126387
0.0121392
0.011477
0.0107527
0.0101489
0.00983322
0.00927983
0.00852795
0.00753536
0.00656916
0.00553197
0.00470747
0.00416476
0.00383456
0.0041616
0.00538576
0.00743811
0.00961846
0.0115668
0.0127914
0.0138256
0.0144993
0.0150482
0.0156142
0.0159996
0.0165675
0.0168665
0.0172516
0.0174018
0.0173394
0.0171005
0.0165498
0.0154617
0.0138723
0.0111178
0.00855374
0.00627735
0.00475848
0.00393387
0.00388991
0.00399783
0.00438876
0.00555197
0.00915991
0.0144631
0.0183619
0.021162
0.0219739
0.0218384
0.0212059
0.0212511
0.0216868
0.0226587
0.0125625
0.0393853
0.0504204
0.0803354
0.0992682
0.105197
0.104441
0.100081
0.0941557
0.0897012
0.0857674
0.0829131
0.0806757
0.080947
0.0823722
0.0849179
0.0880385
0.0909783
0.0932394
0.0946035
0.0960178
0.0968373
0.0978607
0.0983276
0.0982625
0.097564
0.0949207
0.087506
0.0794683
0.0713277
0.0637845
0.0578193
0.0540651
0.0522939
0.052316
0.0565704
0.0926219
0.148274
0.187434
0.203239
0.207569
0.204797
0.181537
0.132858
0.0941176
0.05538
0.0336516
0.0228134
0.0154361
0.012547
0.0112896
0.0109005
0.0108739
0.011935
0.0129287
0.0140199
0.0149487
0.0154643
0.0162194
0.0166873
0.0172102
0.0176262
0.0178198
0.0178813
0.017725
0.0173682
0.0170272
0.0166219
0.0160474
0.0156332
0.0151059
0.0146015
0.01419
0.0137407
0.0134522
0.0130916
0.0128136
0.012614
0.0122906
0.0120699
0.0119114
0.0118097
0.0117825
0.0117793
0.0117959
0.0118395
0.0118885
0.0119292
0.0119808
0.0120435
0.0121082
0.0121414
0.0121493
0.0121223
0.012037
0.0119149
0.0117082
0.0113719
0.0109313
0.0104314
0.00977513
0.00904163
0.00856891
0.00801642
0.00730381
0.00645991
0.00636509
0.00878137
0.0417298
0.172916
0.238472
0.245261
0.255978
0.254877
0.105985
0.0282445
0.0187813
0.0162886
0.0148644
0.0137311
0.0127522
0.0131982
0.014889
0.0157306
0.0160089
0.016076
0.016058
0.015914
0.0162468
0.0173786
0.0187596
0.0199695
0.0206916
0.0208968
0.0193953
0.0171346
0.0139521
0.0104633
0.0072691
0.00482173
0.00330629
0.00246309
0.00204759
0.002014
0.00267863
0.00448009
0.00705763
0.00957199
0.011482
0.012631
0.0134305
0.0138529
0.0141678
0.0142192
0.0141562
0.013925
0.0133381
0.0122527
0.0101391
0.00764228
0.00489682
0.00311252
0.00212254
0.0017123
0.00175168
0.00187014
0.00219905
0.00237593
0.00236098
0.00236516
0.00278682
0.00467149
0.0107443
0.0177216
0.0209782
0.0217309
0.0220582
0.0224051
0.0227761
0.023575
0.0170669
0.056333
0.0618205
0.0941968
0.0995816
0.0822028
0.0645293
0.05781
0.0579268
0.0594409
0.06175
0.0647135
0.0685648
0.072791
0.0773267
0.0822866
0.0871557
0.0917881
0.095455
0.0976082
0.101003
0.101164
0.100774
0.0999888
0.0992966
0.0981289
0.0950303
0.0878106
0.080337
0.0718904
0.0632724
0.0565277
0.0527548
0.0522579
0.0569772
0.097415
0.152375
0.184928
0.196023
0.19872
0.188278
0.151009
0.107518
0.0751037
0.0446733
0.0274994
0.0190963
0.0149229
0.0129003
0.0121621
0.0118901
0.0123086
0.0135775
0.0147081
0.016242
0.0175334
0.019004
0.0202282
0.0211627
0.0217787
0.022386
0.0226569
0.0227835
0.0228147
0.0226746
0.0223936
0.0221168
0.0216576
0.020894
0.0203459
0.0194046
0.0185673
0.0175601
0.0167016
0.0157697
0.0150934
0.0143348
0.0136845
0.0130774
0.0125702
0.0122642
0.0121809
0.0121705
0.0122218
0.0124175
0.012744
0.0130061
0.0131223
0.0131926
0.0132149
0.0132016
0.0131502
0.0131221
0.0130611
0.0129643
0.0128152
0.0125825
0.01225
0.0118636
0.0114793
0.0110683
0.0105738
0.0102942
0.00988743
0.00878834
0.00691928
0.00614394
0.0073802
0.0423383
0.188271
0.258296
0.268522
0.262971
0.1894
0.0507584
0.0212934
0.0170221
0.0157538
0.0148382
0.0140739
0.014091
0.015405
0.0170904
0.0184672
0.0197388
0.0210494
0.0228848
0.0262631
0.03211
0.0388317
0.044746
0.0491162
0.0516347
0.0527382
0.05141
0.0473028
0.0401933
0.0308358
0.0218936
0.0136486
0.00771368
0.00410959
0.00224092
0.00142021
0.00109029
0.00103765
0.00137759
0.00231399
0.00366931
0.0050499
0.00599262
0.00646058
0.00658747
0.00658962
0.00649237
0.00610942
0.00522346
0.00382869
0.00256194
0.00164602
0.00107709
0.000863757
0.000927727
0.00123791
0.0017833
0.00301159
0.00518216
0.00542336
0.00505796
0.00368133
0.00264687
0.00268117
0.0037356
0.00820946
0.0168393
0.0203658
0.0217587
0.0222605
0.0230654
0.0241333
0.0300192
0.0625504
0.0612075
0.0917293
0.0601939
0.043204
0.0431116
0.0474826
0.0514038
0.0546005
0.0583543
0.0625424
0.0671377
0.0718138
0.0768825
0.0844527
0.0930373
0.103744
0.112921
0.124609
0.131737
0.137939
0.136552
0.131114
0.118472
0.108306
0.0997317
0.0905549
0.0822803
0.0723238
0.0619067
0.0547613
0.0526859
0.0567587
0.0964188
0.151036
0.180056
0.188999
0.190635
0.177019
0.134587
0.0939082
0.0628328
0.0377159
0.0240039
0.0176131
0.0147638
0.0135369
0.013037
0.0128947
0.0136985
0.015355
0.0178559
0.0205827
0.0229384
0.0243794
0.0258106
0.0264413
0.0267559
0.0268527
0.0268087
0.0264436
0.0261643
0.0255029
0.0251065
0.0245273
0.0241917
0.0237491
0.0231718
0.0227595
0.0221707
0.0216544
0.0209275
0.0201368
0.019157
0.0180271
0.0168797
0.0156796
0.0144623
0.0134177
0.01291
0.01278
0.0127677
0.0128984
0.0133883
0.0142672
0.0150418
0.0153807
0.0155433
0.0155776
0.015433
0.0150705
0.0147564
0.0143445
0.0138937
0.0134025
0.0129182
0.0123889
0.011778
0.0111505
0.0105425
0.0100917
0.0100037
0.0101369
0.00994283
0.00916808
0.00698404
0.00713142
0.0360057
0.190588
0.262823
0.266823
0.239287
0.0979144
0.0304537
0.0187701
0.0166693
0.0157042
0.0149866
0.014885
0.0155294
0.0172206
0.0202328
0.0238952
0.0287131
0.0349819
0.0428168
0.0519661
0.0596233
0.0653998
0.0695162
0.0725729
0.0746108
0.0763356
0.0773089
0.0777764
0.0762058
0.0705407
0.0570822
0.0381618
0.02278
0.0121102
0.00583176
0.00261263
0.0012468
0.000758675
0.000581325
0.000558017
0.000695078
0.000934349
0.00113005
0.00125415
0.00131506
0.00133246
0.00132411
0.00126148
0.00104136
0.000752559
0.000526931
0.000433148
0.000477918
0.000647409
0.00119348
0.00326783
0.00623726
0.0121856
0.0199965
0.0210207
0.0198108
0.0160372
0.00873049
0.00447897
0.003657
0.00420913
0.00729293
0.0156118
0.0199736
0.0213822
0.0235002
0.0252597
0.0325085
0.0629848
0.0547151
0.0651478
0.039762
0.0363155
0.0412849
0.0470084
0.0505417
0.0535132
0.0576476
0.0620611
0.0663724
0.0705975
0.0769352
0.0865333
0.101584
0.118405
0.137779
0.154591
0.168
0.179035
0.180845
0.178028
0.167594
0.143891
0.118442
0.0999164
0.086817
0.0733607
0.0605769
0.0548123
0.0575952
0.0873432
0.144276
0.174115
0.183532
0.184651
0.170391
0.129113
0.0896698
0.0606521
0.0371736
0.0226057
0.017062
0.014909
0.0141234
0.0138556
0.0140336
0.0154357
0.0187211
0.022648
0.0252684
0.0273732
0.0283975
0.0289091
0.0291003
0.0290914
0.028617
0.0283275
0.0277231
0.0270199
0.0260513
0.0254578
0.0247315
0.0238352
0.0233858
0.0228822
0.0226503
0.0224152
0.022197
0.0219187
0.0215686
0.0211687
0.0206933
0.0201676
0.0196013
0.0190138
0.0183258
0.0174848
0.0167051
0.0163984
0.0163267
0.0164083
0.0168823
0.017661
0.0181654
0.0182652
0.0182027
0.0180245
0.0177239
0.0173253
0.0169993
0.0166502
0.0162715
0.0157916
0.0150928
0.0141391
0.0129811
0.0116539
0.0103586
0.00930104
0.00849341
0.00825045
0.00895374
0.00943977
0.008673
0.00787203
0.017542
0.160974
0.253119
0.247604
0.156274
0.0553999
0.0237705
0.0182952
0.0167275
0.0157647
0.0153168
0.0156153
0.0169626
0.0202649
0.0274272
0.0366675
0.0452246
0.0523408
0.0596615
0.0656893
0.0695111
0.0723682
0.0742668
0.0761645
0.077739
0.0796068
0.0816085
0.0837186
0.0858445
0.0874108
0.0869409
0.0794914
0.0557517
0.0311439
0.0158722
0.00718175
0.00297155
0.00122832
0.00060581
0.000398353
0.000314555
0.000288597
0.00029074
0.000300001
0.000306152
0.000306352
0.000303728
0.000289575
0.000249875
0.000217816
0.000236564
0.000307003
0.000573873
0.00151611
0.00424809
0.0128
0.0245074
0.0418903
0.0601384
0.0632545
0.0606954
0.0531694
0.0350777
0.0171926
0.00761687
0.00496232
0.00517182
0.00722355
0.0142143
0.0189572
0.0228118
0.0252465
0.0344604
0.0620524
0.0525078
0.0537634
0.0351152
0.035917
0.0425916
0.0474856
0.0501379
0.0528207
0.0566642
0.0593268
0.0602263
0.0621507
0.0703681
0.0885748
0.112047
0.135737
0.157827
0.178414
0.195241
0.204088
0.209652
0.207954
0.201067
0.185492
0.162677
0.129798
0.103554
0.0752649
0.0615842
0.0598528
0.0813119
0.13223
0.166638
0.178813
0.180788
0.171034
0.137289
0.0946973
0.0629472
0.0436303
0.0243473
0.0174147
0.015242
0.0146161
0.0144435
0.0149909
0.0169104
0.0213541
0.025601
0.0277923
0.0297428
0.030596
0.0309425
0.03105
0.0310548
0.0307698
0.0301407
0.0295783
0.0286887
0.0278956
0.0269265
0.0256962
0.0242314
0.0232821
0.0220154
0.0206833
0.0199195
0.0191
0.0187779
0.0187313
0.0190476
0.0192112
0.0192615
0.0192006
0.0191356
0.0190181
0.018826
0.0185891
0.018291
0.0180507
0.0179665
0.017953
0.0179891
0.0181459
0.0182847
0.0181668
0.017754
0.0171959
0.0165577
0.0160861
0.0159205
0.0160132
0.0161552
0.0161752
0.0160688
0.0157459
0.0151683
0.0143793
0.0131452
0.0112791
0.00907803
0.0076369
0.00714415
0.00772878
0.00869696
0.00833482
0.0112996
0.112545
0.21587
0.186887
0.0934067
0.0376614
0.0220906
0.0185143
0.017002
0.0159847
0.0157036
0.016415
0.019037
0.0271078
0.0388749
0.0494321
0.0563276
0.0615075
0.0660964
0.0689579
0.0705697
0.0720317
0.0729176
0.0735095
0.0745004
0.0761136
0.0784327
0.081573
0.0854269
0.0891954
0.0924648
0.0947925
0.0919397
0.0673418
0.036244
0.0174157
0.00739572
0.00291666
0.0011479
0.000516149
0.000304932
0.000226234
0.00018712
0.000165202
0.000153843
0.000146537
0.00014362
0.000139583
0.000143302
0.000160979
0.000231687
0.000548702
0.00176966
0.00569045
0.0162129
0.0416602
0.0761774
0.104885
0.128408
0.134165
0.131814
0.122894
0.100296
0.0571539
0.0258115
0.0108762
0.00632344
0.00617444
0.00752235
0.0123242
0.0199634
0.0242903
0.0365144
0.0608758
0.0514077
0.0489628
0.0337591
0.0358941
0.0433204
0.0465142
0.047347
0.0495406
0.0511685
0.0503756
0.0501198
0.0538412
0.0675178
0.0921314
0.119478
0.142955
0.165966
0.188399
0.206203
0.21375
0.215543
0.214227
0.209087
0.198522
0.179018
0.148472
0.113294
0.0817973
0.0718222
0.0817686
0.120765
0.15785
0.173579
0.176976
0.171926
0.148669
0.112088
0.0781145
0.0554226
0.0326352
0.0198717
0.0161121
0.0151249
0.0148988
0.0154785
0.0178465
0.0228206
0.0273654
0.029591
0.0310236
0.032595
0.0333648
0.0340136
0.0346156
0.0350907
0.0354584
0.0359355
0.0364268
0.0366277
0.0363375
0.0353344
0.0334561
0.0306416
0.0275766
0.0249761
0.0221797
0.0201552
0.0185168
0.0172828
0.0164949
0.0160861
0.0160516
0.0163536
0.0165032
0.016541
0.0165414
0.0164909
0.0164
0.0161939
0.0159423
0.0157037
0.0155294
0.0154164
0.0151342
0.0145428
0.0133606
0.0118973
0.0106581
0.00994753
0.0095308
0.00920618
0.00909803
0.00961215
0.0108472
0.012387
0.0137731
0.0144078
0.0144393
0.0141966
0.0136933
0.0127375
0.0103291
0.00749757
0.00665331
0.00720417
0.00806292
0.0091648
0.0552247
0.182866
0.157073
0.0694781
0.0326156
0.0221936
0.0193947
0.0177524
0.0165737
0.0164197
0.0176334
0.0234155
0.0353176
0.0483724
0.0571541
0.0616591
0.0649801
0.0674623
0.0687115
0.069184
0.0689832
0.0687464
0.0692647
0.0704062
0.0717736
0.0734101
0.0754075
0.078287
0.0831301
0.0902062
0.0964777
0.100231
0.0994922
0.0709987
0.0368597
0.0163483
0.00651161
0.00247532
0.000965545
0.000432187
0.000249303
0.00018308
0.000152156
0.000135006
0.000126521
0.000124975
0.000126453
0.000137827
0.000200832
0.000496385
0.00172437
0.00621241
0.0198119
0.0539524
0.107148
0.140442
0.15526
0.162494
0.165767
0.165612
0.163786
0.157508
0.138727
0.0806208
0.0329766
0.013311
0.00749468
0.00698672
0.00795937
0.0127537
0.0211169
0.0374905
0.0605521
0.0536099
0.045515
0.0320285
0.0344914
0.0417694
0.0432358
0.0440828
0.0462709
0.0468061
0.0463862
0.0468051
0.0517612
0.067309
0.0931574
0.12074
0.14385
0.166096
0.188951
0.204849
0.211039
0.212706
0.212121
0.2064
0.195236
0.175389
0.14511
0.111726
0.0974205
0.0961894
0.113185
0.146634
0.167787
0.173327
0.172815
0.159973
0.132207
0.101173
0.0775181
0.0555704
0.0308667
0.0191773
0.0161648
0.0154929
0.0157032
0.0176653
0.0227355
0.0292056
0.0328101
0.0345764
0.0365193
0.0386221
0.040021
0.0418047
0.0439968
0.0459127
0.0479128
0.0495157
0.0506938
0.0512772
0.0514731
0.0509203
0.0499263
0.0480808
0.0450882
0.0400515
0.0345905
0.0281142
0.0235314
0.019251
0.0167581
0.0153934
0.0148078
0.0148531
0.0153768
0.0157872
0.0159696
0.0160801
0.0160114
0.0155925
0.0146849
0.0136116
0.0124649
0.0112857
0.0100897
0.00913672
0.00840907
0.00803049
0.00805451
0.00814912
0.00808922
0.00768477
0.00697624
0.00632793
0.00599633
0.00604444
0.00662406
0.00765544
0.00891809
0.0104045
0.0121933
0.0131961
0.0131466
0.0115564
0.00767507
0.00656099
0.00699573
0.0080515
0.0210398
0.134852
0.143196
0.0733445
0.0334387
0.0235162
0.0216416
0.0198049
0.0180997
0.0179355
0.0201417
0.0292739
0.0423821
0.0543781
0.0607956
0.0637171
0.0659025
0.0671247
0.0673826
0.0672374
0.0674641
0.0680666
0.0692336
0.070929
0.07242
0.073689
0.0749461
0.0765433
0.078809
0.0821877
0.0901582
0.100305
0.105668
0.102664
0.06814
0.0327301
0.0134144
0.00505792
0.00186932
0.000732791
0.000341116
0.000206016
0.000155754
0.000134327
0.000126057
0.000125566
0.000132615
0.000179268
0.000406324
0.00140052
0.00542907
0.0197635
0.0599167
0.123826
0.152197
0.163943
0.16939
0.171621
0.173091
0.173633
0.173392
0.172175
0.167563
0.151046
0.0924327
0.035971
0.0143617
0.00828308
0.00769738
0.00874224
0.0138304
0.0398762
0.0604847
0.0550495
0.0432571
0.0295297
0.0315486
0.0394742
0.0417613
0.0423771
0.0430016
0.0439648
0.0437424
0.0429373
0.04473
0.0534453
0.0723569
0.0998981
0.126605
0.148938
0.171823
0.189965
0.199043
0.20235
0.20266
0.196228
0.182214
0.160234
0.126133
0.110123
0.10723
0.112419
0.130625
0.155191
0.169216
0.172549
0.169894
0.155015
0.128606
0.101299
0.0793942
0.058476
0.0321673
0.0196969
0.0169143
0.0166826
0.0181053
0.0224778
0.029374
0.035462
0.0382499
0.0403602
0.0432404
0.0457871
0.0474928
0.0497091
0.0515338
0.0527304
0.0538292
0.0543915
0.0547787
0.0549454
0.0549957
0.0548228
0.0545895
0.0541179
0.0533376
0.0519438
0.0495694
0.0458374
0.039523
0.0315218
0.0228636
0.0175199
0.0147847
0.0137836
0.0135241
0.0139394
0.0147684
0.0157284
0.0164516
0.0168949
0.0169838
0.0161243
0.0143734
0.0120212
0.00992844
0.00862888
0.00806063
0.00806092
0.00874212
0.0101146
0.0111452
0.0111338
0.00984371
0.00794727
0.00637203
0.00550802
0.00493315
0.00425467
0.00370154
0.00368272
0.00466551
0.00821672
0.0121123
0.012971
0.0117683
0.00763919
0.00663993
0.00700985
0.0104922
0.0804411
0.125535
0.0842208
0.0376878
0.0280144
0.0277265
0.0262756
0.0227241
0.0218611
0.0250069
0.0344221
0.0471043
0.0574882
0.0622946
0.0645488
0.0658222
0.066407
0.0666648
0.0672083
0.068476
0.0714792
0.0761794
0.0804338
0.0826943
0.0831167
0.082021
0.0804464
0.0797466
0.0808817
0.0839056
0.0919864
0.105209
0.110637
0.100912
0.0586837
0.0254496
0.00975241
0.00351512
0.00127138
0.000509807