/*--------------------------------*- C++ -*----------------------------------*\
  =========                 |
  \\      /  F ield         | OpenFOAM: The Open Source CFD Toolbox
   \\    /   O peration     | Website:  https://openfoam.org
    \\  /    A nd           | Version:  9
     \\/     M anipulation  |
\*---------------------------------------------------------------------------*/
FoamFile
{
    format      ascii;
    class       volScalarField;
    location    "0.097";
    object      nut;
}
// * * * * * * * * * * * * * * * * * * * * * * * * * * * * * * * * * * * * * //

dimensions      [0 2 -1 0 0 0 0];

internalField   nonuniform List<scalar> 
12225
(
9.13129e-10
0
0
0
0
0
0
0
0
0
0
0
0
0
0
0
0
0
4.17589e-10
0
0
0
0
0
0
0
0
0
0
0
0
0
0
0
0
0
5.06952e-10
0
0
0
0
0
0
0
0
0
0
0
0
0
0
0
0
0
2.85091e-08
0
0
1.19856e-09
0
0
0
0
0
0
0
0
0
0
0
0
0
0
1.9972e-06
3.34708e-06
0
0
0
0
0
0
2.92596e-08
2.64383e-08
2.30379e-08
2.09398e-08
1.55976e-08
5.42626e-09
0
0
0
0
2.00313e-06
2.6411e-06
0
0
0
0
9.07005e-08
9.54434e-08
0
0
0
4.44135e-08
8.5873e-08
6.69659e-08
0
0
0
0
1.32274e-06
1.41383e-06
0
0
0
0
1.61887e-07
2.56348e-07
0
0
0
0
4.81354e-08
6.73951e-08
3.06934e-08
2.05326e-08
5.47996e-08
1.07729e-07
0
3.35903e-07
7.52851e-07
1.9327e-07
1.99092e-07
0
0
3.12879e-09
0
0
0
0
0
0
0
1.9294e-07
3.44179e-07
3.53223e-07
0
0
6.27078e-07
5.4797e-07
1.93278e-07
1.55727e-07
3.87152e-07
3.68355e-07
0
0
0
0
0
0
0
6.54478e-08
1.35057e-07
1.04982e-07
0
0
0
0
0
1.75315e-07
6.26366e-07
8.24454e-07
1.25252e-07
0
0
0
0
0
0
0
0
0
0
0
0
0
0
4.90987e-08
1.03003e-06
1.54051e-06
1.43119e-06
9.20517e-07
3.10434e-07
0
0
0
0
0
0
0
0
0
0
0
0
2.02765e-07
7.18205e-07
1.31909e-06
1.99835e-06
1.54533e-06
9.14073e-07
3.31603e-07
1.71884e-08
0
0
0
0
0
0
0
0
0
3.20292e-07
8.32231e-08
2.41361e-07
5.51257e-07
9.91221e-07
9.691e-07
4.30814e-07
3.6378e-07
7.53034e-07
9.98463e-07
0
0
0
0
5.17136e-07
0
0
0
5.87852e-08
0
0
2.25214e-07
2.9637e-07
2.98448e-07
2.71832e-07
8.29292e-07
2.38809e-06
3.6773e-06
3.64686e-06
1.17707e-06
0
0
7.72684e-07
0
0
0
0
0
0
0
0
0
0
0
4.43983e-09
0
0
2.26119e-07
1.76238e-06
1.56338e-06
6.61958e-07
1.99286e-07
0
3.52753e-07
3.54467e-07
0
0
0
0
0
2.06207e-06
1.89337e-06
8.64163e-07
0
1.33604e-07
8.06045e-07
1.14733e-06
1.14041e-06
6.61857e-07
7.95349e-07
5.00233e-07
8.07808e-07
1.20412e-06
4.16059e-07
0
0
0
0
9.98661e-07
1.44301e-06
1.69742e-06
1.72551e-06
1.50677e-06
8.73952e-07
6.2652e-07
6.09696e-07
0
0
0
5.77481e-07
1.14685e-06
1.20542e-06
6.67351e-07
0
0
0
8.27966e-07
1.96649e-06
2.92287e-06
3.35915e-06
1.51125e-06
0
0
8.39798e-08
0
2.40759e-07
6.57146e-07
4.5755e-07
1.28422e-06
1.86019e-06
1.00057e-06
0
0
0
0
0
0
0
0
3.95395e-07
6.03879e-07
4.30999e-07
5.73372e-08
0
0
0
1.25786e-06
2.41479e-06
1.36701e-06
0
0
0
0
0
0
0
0
1.2715e-07
7.13542e-08
0
4.11301e-07
3.84131e-07
1.73398e-07
0
1.1694e-07
6.35639e-07
6.01692e-07
2.07975e-07
0
0
0
0
0
0
0
0
0
0
1.48643e-07
5.34144e-08
0
0
0
0
0
0
0
0
0
0
0
3.63844e-08
1.99394e-08
0
0
0
0
0
0
0
0
0
0
4.67514e-07
9.75361e-07
1.16201e-06
8.22719e-07
0
0
0
0
0
0
0
1.40762e-08
0
0
0
2.75954e-07
2.94691e-07
0
0
0
2.9656e-08
3.08145e-07
9.75622e-07
0
0
0
0
0
0
8.22361e-07
3.83873e-07
0
0
0
0
0
0
0
0
1.02496e-07
8.4756e-07
1.37473e-06
4.97476e-08
0
0
3.50802e-09
0
9.5946e-07
6.23841e-07
0
0
0
0
0
0
0
0
0
0
0
2.49323e-08
6.21349e-10
0
0
0
2.38802e-07
5.02e-08
2.12116e-08
0
0
0
5.47867e-09
1.15894e-08
7.08106e-09
0
0
0
0
0
0
0
5.32665e-10
0
0
0
0
0
0
0
0
3.30165e-10
2.22457e-10
0
0
0
0
0
0
0
0
0
0
0
0
0
0
0
0
0
0
0
0
0
0
0
0
0
0
0
0
0
0
0
0
0
0
0
0
0
0
0
0
0
0
0
0
0
0
0
0
2.87492e-07
2.39547e-06
3.44343e-06
3.36393e-06
2.48058e-06
1.28524e-06
1.92074e-07
0
0
0
0
0
0
0
0
0
0
0
0
1.6558e-07
3.10404e-07
4.30029e-07
5.12022e-07
5.50028e-07
5.55251e-07
5.03382e-07
4.1468e-07
2.45128e-07
1.02273e-07
2.69368e-07
1.48743e-07
0
1.6202e-07
3.36693e-07
2.85447e-07
5.09456e-07
1.60169e-07
0
0
0
1.05261e-05
1.87922e-05
2.54064e-05
1.32214e-05
4.79097e-06
0
0
1.90357e-06
1.79687e-06
4.37222e-07
4.50429e-07
7.05216e-07
9.09183e-07
9.22672e-07
8.67115e-07
8.09941e-07
7.01262e-07
5.90571e-07
4.8322e-07
3.70576e-07
2.58153e-07
1.48682e-07
4.06515e-08
0
0
0
0
0
0
0
0
0
0
0
0
0
0
0
0
0
0
0
0
0
0
0
0
0
0
0
0
0
0
0
0
0
0
0
0
0
0
0
0
0
0
0
0
0
0
0
5.51432e-06
2.5541e-05
5.12654e-05
4.91545e-05
3.09012e-05
1.10563e-05
2.61389e-06
9.78011e-07
7.23615e-07
6.47321e-07
5.73563e-07
4.91317e-07
4.03274e-07
3.22613e-07
2.41118e-07
1.6814e-07
9.67111e-08
2.74621e-08
0
0
0
0
0
0
0
0
0
0
0
0
0
0
0
0
0
0
0
0
0
0
0
0
0
0
0
0
0
0
0
0
0
0
0
0
0
0
0
0
0
0
0
2.36615e-07
3.40771e-06
9.34117e-06
4.82037e-06
0
0
4.57382e-06
8.86218e-07
1.58706e-06
2.90078e-06
4.34779e-06
5.57631e-06
6.36592e-06
6.49551e-06
5.7912e-06
4.3141e-06
2.46629e-06
7.82789e-07
0
0
0
0
0
0
0
0
0
8.85816e-09
1.72469e-07
3.10889e-07
4.25215e-07
5.00942e-07
5.30193e-07
5.49566e-07
5.1335e-07
4.41625e-07
2.31636e-07
1.76725e-07
8.03393e-07
7.74183e-07
0
0
0
6.42873e-07
7.60017e-07
0
0
0
7.59455e-06
1.31689e-05
7.42969e-06
1.6586e-06
0
0
0
0
1.15622e-06
2.14527e-06
4.91134e-08
2.56251e-07
5.28385e-07
7.33363e-07
7.02878e-07
6.31751e-07
5.70981e-07
4.62962e-07
3.70323e-07
2.8208e-07
2.01622e-07
1.28763e-07
6.57902e-08
1.23653e-08
0
0
0
0
0
0
0
0
0
0
0
0
0
0
0
0
0
0
0
0
0
0
0
0
0
0
0
0
0
0
0
0
0
0
0
0
0
0
0
0
0
0
0
0
0
0
0
9.86004e-06
3.70677e-05
4.80357e-05
3.11256e-05
1.88226e-05
1.11513e-05
5.6002e-06
2.77268e-06
1.64693e-06
1.12344e-06
8.23365e-07
6.23619e-07
4.73269e-07
3.59944e-07
2.61707e-07
1.78741e-07
1.03248e-07
3.34938e-08
0
0
0
0
0
0
0
0
0
0
0
0
0
0
0
0
0
0
0
0
0
0
0
0
0
0
0
0
0
0
0
0
0
0
0
0
0
0
0
0
0
0
0
2.85435e-07
8.51784e-07
1.21309e-06
7.3812e-07
0
0
1.7774e-06
1.02783e-06
1.88675e-06
3.16233e-06
4.64822e-06
6.20225e-06
7.4785e-06
7.92352e-06
7.11866e-06
4.86437e-06
1.3077e-06
0
0
0
0
0
0
0
0
0
0
0
1.26127e-06
2.45426e-06
3.20527e-06
3.53428e-06
3.59122e-06
3.59842e-06
3.53131e-06
3.34463e-06
3.01106e-06
3.0278e-06
3.40985e-06
3.41001e-06
1.31796e-06
0
0
0
0
0
0
0
5.60739e-07
9.26389e-07
0
0
0
0
0
0
7.78622e-07
2.86346e-07
0
0
0
3.63669e-07
3.92052e-07
4.05333e-07
3.80301e-07
2.88878e-07
2.26873e-07
1.65135e-07
1.1165e-07
6.66315e-08
2.53306e-08
0
0
0
0
0
0
0
0
0
0
0
0
0
0
0
0
0
0
0
0
0
0
0
0
0
0
0
0
0
0
0
0
0
0
0
0
0
0
0
0
0
0
0
0
0
0
0
7.26086e-06
1.42098e-05
1.60219e-05
1.26488e-05
9.00361e-06
8.82795e-06
8.36274e-06
7.02928e-06
5.44235e-06
4.13725e-06
3.05888e-06
2.24397e-06
1.62035e-06
1.15046e-06
8.13293e-07
5.56274e-07
3.58984e-07
2.03968e-07
8.14398e-08
0
0
0
0
0
0
0
0
0
0
0
0
0
0
0
0
0
0
0
0
0
0
0
0
7.05408e-09
6.61281e-08
1.06261e-07
1.31615e-07
1.41274e-07
1.25467e-07
9.56903e-08
5.89734e-08
2.74886e-08
0
0
0
0
0
0
9.36926e-08
0
0
0
0
0
0
0
0
0
9.88733e-07
1.00214e-06
1.60033e-06
2.43325e-06
3.63587e-06
4.8383e-06
4.0573e-06
0
0
0
0
0
0
0
0
0
0
0
0
0
0
0
0
1.18482e-05
1.67791e-05
1.38284e-05
9.55936e-06
6.29618e-06
4.31762e-06
3.162e-06
2.00169e-06
6.92172e-07
0
0
0
0
0
0
0
0
0
0
0
0
0
0
0
0
0
0
0
0
0
0
0
0
0
0
0
1.75451e-07
1.19423e-06
2.72487e-06
4.70942e-06
1.29159e-06
0
0
0
0
0
0
0
0
0
0
0
0
0
0
0
0
0
0
0
0
0
0
0
0
0
0
0
0
0
0
0
0
0
0
0
0
0
0
0
0
0
0
0
2.11737e-06
4.63897e-06
4.74755e-06
0
0
9.90538e-06
1.13949e-05
9.47916e-06
4.45922e-06
3.01551e-06
3.74414e-06
3.60166e-06
3.21022e-06
2.89617e-06
2.6752e-06
2.51354e-06
2.38264e-06
2.33554e-06
2.28414e-06
2.29566e-06
2.41403e-06
2.66392e-06
2.96693e-06
2.84952e-06
0
0
0
0
0
0
0
0
0
0
0
0
0
0
0
0
0
0
0
0
0
0
0
0
0
0
0
0
0
0
0
0
0
0
0
0
0
0
0
4.12106e-07
1.30002e-06
0
0
0
0
0
0
0
0
7.06893e-07
7.54832e-07
7.04313e-07
6.0449e-07
0
0
0
0
0
0
0
0
0
0
0
0
0
0
0
0
0
0
0
6.00219e-06
1.63759e-05
1.32869e-05
8.50268e-06
4.7091e-06
2.54087e-06
1.34852e-06
3.04668e-07
0
0
0
0
0
0
0
0
0
1.10794e-06
1.45934e-07
0
0
0
0
0
0
0
0
0
0
0
0
0
0
0
0
4.08811e-07
1.51015e-06
3.37e-06
6.7072e-06
7.20838e-06
0
0
0
0
0
0
0
0
0
0
0
0
0
0
0
0
0
0
0
0
0
0
0
0
0
0
0
0
0
0
0
0
0
0
0
0
0
0
0
0
0
0
0
1.80247e-06
4.99852e-06
9.5403e-06
7.2541e-06
0
0
4.16569e-06
6.56568e-06
4.59659e-06
1.01158e-06
0
1.2278e-06
2.38537e-06
2.70518e-06
2.56776e-06
2.3347e-06
2.06786e-06
1.86691e-06
1.74997e-06
1.92928e-06
2.27602e-06
2.58982e-06
2.81032e-06
2.76192e-06
2.16484e-06
7.15972e-07
0
0
0
0
0
0
0
0
0
0
0
0
0
0
0
0
0
0
0
0
0
0
0
0
0
0
0
0
0
0
0
0
0
0
0
0
0
0
0
1.14338e-06
0
0
0
0
0
0
0
0
3.21989e-07
9.09406e-07
5.64427e-07
0
0
1.03067e-06
0
0
0
0
0
0
0
0
0
0
0
0
0
0
0
0
0
1.45807e-05
1.79902e-05
1.34013e-05
8.57232e-06
4.77129e-06
2.36105e-06
6.94413e-07
0
0
0
0
0
0
0
0
0
0
0
0
0
0
0
0
0
0
0
0
0
0
0
0
0
0
4.7186e-08
7.24168e-07
1.64176e-06
2.97029e-06
5.0496e-06
6.4931e-06
0
0
0
0
0
0
0
0
0
0
0
0
0
0
0
0
0
0
0
0
0
0
0
0
0
0
0
0
0
0
0
0
0
0
0
0
0
0
0
0
0
0
0
0
3.21253e-06
6.7748e-06
1.82794e-05
6.7392e-06
0
0
0
0
0
0
0
1.44527e-06
2.57129e-06
2.652e-06
2.38149e-06
2.01002e-06
1.62284e-06
1.60355e-06
2.16227e-06
2.75733e-06
3.08884e-06
3.17377e-06
3.10017e-06
2.83334e-06
2.16852e-06
1.05141e-06
0
0
0
0
0
0
0
0
0
0
0
0
0
0
0
0
0
0
0
0
0
0
0
0
0
0
0
0
0
0
0
0
0
0
0
0
0
0
0
0
0
0
0
0
0
0
0
6.47459e-07
0
0
0
0
1.03214e-05
3.47762e-06
0
0
0
2.38194e-06
4.63431e-06
5.86949e-06
6.38052e-06
6.40184e-06
6.10965e-06
5.49423e-06
4.35968e-06
2.58832e-06
3.4065e-07
0
0
0
4.19626e-06
7.11764e-06
6.95738e-06
5.41705e-06
3.6165e-06
2.1857e-06
1.18222e-06
1.61497e-07
0
0
0
0
0
0
0
0
0
0
0
0
0
0
0
0
0
0
0
0
0
0
0
0
2.31873e-07
5.59571e-07
9.60134e-07
1.48926e-06
2.06505e-06
2.65588e-06
2.8006e-06
2.95152e-07
0
0
0
0
0
0
9.00974e-08
2.6886e-07
3.45196e-07
3.51359e-07
3.06555e-07
2.31062e-07
1.38821e-07
4.60367e-08
0
0
0
0
0
0
0
0
0
0
0
0
0
0
0
0
0
0
0
0
0
0
0
0
0
0
0
0
0
0
3.30184e-06
7.20131e-06
5.0731e-06
0
0
0
0
0
0
0
0
1.9966e-06
2.48343e-06
2.39048e-06
2.02377e-06
1.53688e-06
1.48578e-06
2.28495e-06
3.1816e-06
3.68993e-06
3.90629e-06
3.97594e-06
3.85177e-06
3.20621e-06
1.8771e-06
5.48407e-07
8.49935e-08
0
0
0
0
0
0
0
0
0
0
0
0
0
0
0
0
0
0
0
0
0
0
0
0
0
0
0
0
0
0
0
0
0
0
0
0
0
0
0
0
0
4.79705e-08
0
0
0
7.79557e-07
2.6227e-06
0
0
0
7.49278e-06
1.12378e-05
0
2.26635e-06
3.94881e-06
3.88844e-06
3.49006e-06
3.34638e-06
3.08472e-06
2.52935e-06
1.8699e-06
1.20278e-06
1.78739e-07
0
0
0
0
0
0
6.48481e-06
1.27194e-05
1.04864e-05
6.28379e-06
2.51102e-06
1.14757e-07
0
0
0
0
0
0
0
0
0
0
0
0
0
0
0
0
1.95309e-08
0
0
2.83578e-07
5.99909e-07
8.08292e-07
8.14029e-07
8.03866e-07
9.98171e-07
1.18381e-06
1.27926e-06
1.32689e-06
1.44384e-06
1.58943e-06
1.71604e-06
1.67433e-06
1.00246e-06
0
0
0
0
0
0
0
0
0
0
8.49277e-08
1.50023e-07
1.93967e-07
2.18988e-07
2.22943e-07
2.01845e-07
1.53968e-07
8.43364e-08
9.98902e-10
0
0
0
0
0
0
0
0
0
0
0
0
0
0
0
0
0
0
0
0
0
0
0
0
0
0
7.2615e-07
0
0
0
0
0
3.25444e-06
7.84852e-06
1.32086e-05
7.04644e-06
2.01299e-06
2.19935e-06
2.28537e-06
2.09792e-06
1.63933e-06
1.40668e-06
2.13425e-06
3.30703e-06
4.18435e-06
4.68241e-06
4.8075e-06
4.33406e-06
2.76341e-06
0
0
0
5.03523e-06
7.07156e-06
2.2121e-06
0
0
0
0
0
0
0
0
0
0
0
0
0
0
0
0
0
0
0
0
0
0
0
0
0
0
0
0
0
0
0
0
0
0
0
0
0
0
0
0
0
0
1.3772e-06
4.93567e-06
5.81719e-06
0
0
0
7.49095e-07
2.21304e-06
5.51218e-07
3.60813e-07
0
0
0
3.32588e-07
3.74917e-07
8.10696e-08
0
0
0
0
0
0
0
0
0
7.82176e-06
2.74867e-05
2.56019e-05
1.54519e-05
6.57895e-06
1.38866e-06
0
0
0
0
0
0
0
0
0
0
0
0
0
0
1.05543e-06
1.07125e-06
0
6.43571e-07
1.91885e-06
2.82281e-06
2.9628e-06
2.859e-06
2.70846e-06
2.48595e-06
2.17818e-06
1.779e-06
1.38249e-06
1.17044e-06
1.14857e-06
1.22611e-06
1.29154e-06
1.14358e-06
5.2555e-07
0
0
0
0
0
4.81602e-08
1.81204e-07
1.8723e-07
1.02971e-07
0
0
0
0
0
0
0
0
0
0
0
0
0
0
0
0
0
0
0
0
0
0
0
0
0
0
0
0
0
0
0
0
0
0
0
0
0
0
0
0
6.16691e-07
5.56058e-06
1.19543e-05
1.71752e-05
1.05716e-05
5.7982e-06
2.49694e-06
2.07726e-06
2.0396e-06
1.79449e-06
1.43594e-06
1.72792e-06
2.96341e-06
4.25973e-06
4.90043e-06
4.7207e-06
3.65783e-06
1.3646e-06
0
0
0
0
9.48561e-07
6.03633e-06
6.9442e-06
4.23917e-06
0
0
0
0
0
0
0
0
0
0
0
0
0
0
0
0
0
0
0
0
0
0
0
0
0
0
0
0
0
0
0
0
0
0
0
0
2.02938e-07
2.67043e-08
1.37221e-07
0
2.96047e-06
5.66012e-06
7.80574e-06
8.05599e-06
0
0
0
0
0
0
0
0
0
0
0
0
2.8285e-07
8.4374e-07
6.46815e-07
0
0
0
0
0
0
0
1.98055e-05
5.33308e-05
5.11514e-05
3.09898e-05
1.38912e-05
3.79983e-06
0
0
0
0
0
0
0
0
0
0
0
0
0
3.40161e-06
2.031e-06
1.9971e-07
3.01892e-07
1.20049e-06
2.5348e-06
3.32421e-06
3.46776e-06
3.58692e-06
3.36546e-06
2.76222e-06
2.17225e-06
1.72447e-06
1.57874e-06
1.74974e-06
2.0873e-06
2.40744e-06
2.4855e-06
1.98019e-06
6.95095e-07
0
0
0
5.28484e-08
6.53107e-07
1.05389e-06
1.2543e-06
1.29728e-06
1.19036e-06
9.76841e-07
6.82819e-07
3.57342e-07
5.24304e-08
0
0
0
0
0
0
0
0
0
0
0
0
0
0
0
0
0
0
0
0
0
0
0
0
0
0
0
0
0
0
0
0
0
0
0
0
1.58063e-06
6.77824e-06
1.00281e-05
9.04229e-06
4.88313e-06
3.31715e-06
1.9656e-06
1.76001e-06
1.71749e-06
1.50144e-06
1.41161e-06
2.14666e-06
3.49173e-06
4.39461e-06
4.23529e-06
2.9337e-06
5.77543e-07
0
0
0
0
0
0
8.30323e-07
1.67355e-06
2.45924e-06
2.54861e-06
3.54233e-07
0
0
0
0
0
0
0
0
0
0
0
0
0
0
0
0
0
0
0
0
0
0
0
0
0
0
0
0
0
0
0
0
0
0
1.03927e-06
9.7801e-07
9.79409e-07
9.62388e-07
3.52236e-06
5.87253e-06
8.47532e-06
9.11831e-06
0
0
0
0
0
0
0
0
0
0
0
0
0
0
1.06698e-07
0
0
0
0
0
0
0
2.6127e-05
6.60918e-05
7.9453e-05
4.7231e-05
1.9283e-05
5.64155e-06
3.66296e-07
0
0
0
0
0
0
0
0
0
0
0
4.99357e-06
2.18596e-06
5.01082e-07
1.32828e-07
3.37464e-07
8.26065e-07
1.43224e-06
1.97072e-06
2.47282e-06
2.77092e-06
2.65224e-06
2.37288e-06
2.26941e-06
2.46794e-06
3.07276e-06
4.03309e-06
5.1571e-06
6.14723e-06
6.26133e-06
3.64212e-06
0
0
0
0
0
0
0
2.3625e-07
6.53197e-07
9.09444e-07
1.02369e-06
1.00617e-06
8.85812e-07
7.13434e-07
5.16749e-07
2.95522e-07
7.88732e-08
0
0
0
0
0
0
0
0
0
0
0
0
0
0
0
0
0
0
0
0
0
0
0
0
0
0
0
0
0
0
0
0
0
6.64819e-07
5.46661e-06
5.65138e-06
3.81633e-06
2.43447e-06
2.01865e-06
1.49775e-06
1.43096e-06
1.379e-06
1.2266e-06
1.41514e-06
2.27574e-06
3.31811e-06
3.53598e-06
2.47408e-06
3.98326e-07
0
0
0
0
0
0
0
0
0
0
0
4.74022e-07
0
0
0
0
0
0
0
0
0
0
0
0
0
0
0
0
0
0
0
0
0
0
0
0
0
0
0
0
0
0
0
0
0
9.18627e-07
3.41151e-06
3.31369e-06
2.76511e-06
2.68181e-06
3.96934e-06
5.09222e-06
7.10582e-06
9.10964e-06
0
0
0
0
0
0
0
0
0
0
0
0
0
0
0
1.26971e-06
5.36843e-06
1.35872e-05
3.31962e-05
3.24325e-05
0
0
0
0
0
0
2.76564e-06
3.95294e-06
2.58502e-06
1.56203e-07
0
0
0
0
0
0
0
0
2.44152e-06
5.02593e-06
0
0
3.00626e-07
2.32601e-07
2.1408e-07
2.57881e-07
4.74554e-07
9.08262e-07
1.39096e-06
1.67132e-06
1.8138e-06
2.09044e-06
2.68351e-06
3.71421e-06
5.38136e-06
7.78388e-06
1.09223e-05
1.4832e-05
1.73009e-05
8.45615e-07
0
0
0
0
0
0
0
0
4.50737e-07
7.80292e-07
9.65551e-07
1.00183e-06
8.70763e-07
6.39443e-07
3.86918e-07
1.01793e-07
0
0
0
0
0
0
0
0
0
0
0
0
0
0
0
0
0
0
0
0
0
0
0
0
0
0
0
0
0
0
0
0
0
0
0
3.07822e-06
1.78359e-06
8.75415e-08
1.0698e-06
1.48142e-06
1.25694e-06
1.18131e-06
1.09827e-06
9.958e-07
1.28258e-06
1.97539e-06
2.52781e-06
2.12364e-06
5.85425e-07
0
0
0
0
0
0
1.33447e-07
3.69733e-07
7.65446e-08
0
0
0
0
0
0
0
0
0
0
0
0
0
0
0
0
0
0
0
0
0
0
0
0
0
0
0
0
0
0
0
0
0
0
0
0
0
2.52189e-06
7.08167e-06
8.30725e-06
6.60477e-06
5.1188e-06
4.77644e-06
5.19853e-06
5.93041e-06
7.57532e-06
0
0
0
0
0
0
0
0
0
0
0
0
0
0
0
0
4.9553e-06
1.72662e-05
3.93652e-05
5.17788e-05
2.44785e-05
0
0
0
0
0
0
0
0
0
0
0
1.62391e-06
3.01169e-06
1.50975e-06
1.37788e-06
2.85424e-06
6.0342e-06
5.59392e-06
0
0
0
3.18453e-07
3.98692e-07
1.92362e-07
0
0
2.32658e-07
6.13691e-07
8.84747e-07
1.25857e-06
1.94978e-06
3.00767e-06
4.52259e-06
6.68801e-06
9.42565e-06
1.23588e-05
1.40923e-05
7.79699e-06
0
0
0
0
0
0
0
0
0
0
2.63893e-07
6.34974e-07
8.67196e-07
8.95528e-07
7.46893e-07
5.42735e-07
3.50951e-07
1.06543e-07
0
0
0
0
0
0
0
0
0
0
0
0
0
0
0
0
0
0
0
0
0
0
0
0
0
0
0
0
0
0
0
0
0
0
2.71065e-07
0
0
3.32224e-07
1.38336e-06
1.25634e-06
1.08489e-06
9.42263e-07
8.29252e-07
9.97293e-07
1.3745e-06
1.46538e-06
7.61737e-07
0
0
0
0
0
0
0
8.74177e-07
1.23366e-06
9.87989e-07
3.32403e-07
0
0
0
0
0
0
0
0
0
0
0
0
0
0
0
0
0
0
0
0
0
0
0
0
0
0
0
0
0
0
0
0
0
0
0
0
2.67462e-06
8.87736e-06
1.33397e-05
1.2981e-05
9.34367e-06
6.67275e-06
5.67897e-06
5.77185e-06
6.35891e-06
0
0
0
0
0
0
0
0
0
0
0
0
0
0
0
0
0
4.26493e-06
1.31647e-05
2.01818e-05
1.5489e-05
1.16647e-06
0
0
0
0
0
0
0
0
0
0
2.81481e-06
4.72457e-06
5.01338e-06
5.88778e-06
7.27204e-06
6.76828e-06
1.91045e-06
0
0
0
2.43379e-07
5.4063e-07
3.18311e-07
0
0
0
7.8261e-08
3.50032e-07
7.57192e-07
1.41701e-06
2.2209e-06
3.07892e-06
3.9081e-06
4.31116e-06
3.58499e-06
8.15105e-07
0
0
0
0
0
0
0
0
0
0
0
0
0
0
0
1.20437e-07
2.79871e-07
2.90997e-07
2.51531e-07
1.4389e-08
0
0
0
0
0
0
0
0
0
0
0
0
0
0
0
0
0
0
0
0
0
0
0
0
0
0
0
0
0
0
0
0
0
0
0
0
0
1.38565e-06
1.35524e-06
1.14612e-06
9.46916e-07
7.41836e-07
7.11986e-07
7.89826e-07
5.97562e-07
0
0
0
0
0
0
0
2.93477e-07
1.34563e-06
1.98664e-06
1.99488e-06
1.47782e-06
6.13127e-07
0
0
0
0
0
0
0
0
0
0
0
0
0
0
0
0
0
0
0
0
0
0
0
0
0
0
0
0
0
0
0
0
0
0
0
1.93378e-06
8.67799e-06
1.53007e-05
1.88311e-05
1.54362e-05
1.00867e-05
7.00357e-06
5.94616e-06
6.04427e-06
0
0
0
0
0
0
0
0
0
0
0
0
0
0
0
0
0
0
0
3.52234e-06
4.67352e-06
1.9119e-06
0
0
0
0
0
0
0
0
6.017e-08
3.49372e-06
5.48353e-06
6.18424e-06
6.82434e-06
7.79691e-06
8.36197e-06
7.06775e-06
3.04544e-06
0
0
0
5.54893e-08
6.06882e-07
5.38529e-07
6.25391e-08
0
0
0
0
2.18476e-07
4.89267e-07
6.53069e-07
6.12234e-07
3.44338e-07
0
0
0
0
0
0
0
0
0
0
0
0
0
0
0
0
0
0
0
0
0
0
0
0
0
0
0
0
0
0
0
0
0
0
0
0
0
0
0
0
0
0
0
0
0
0
0
0
0
0
0
0
0
0
0
0
0
0
0
0
1.13718e-06
1.41369e-06
1.18055e-06
9.74653e-07
7.60857e-07
5.96843e-07
4.98367e-07
2.27149e-07
0
0
0
0
0
0
0
1.12921e-07
1.1132e-06
1.83438e-06
2.0467e-06
1.75494e-06
1.10054e-06
2.3573e-07
0
0
0
0
0
0
0
0
0
0
0
0
0
0
0
0
2.27261e-07
0
0
0
0
0
0
0
0
0
0
0
0
0
0
0
0
0
1.69972e-06
7.4928e-06
1.51258e-05
2.10937e-05
2.17132e-05
1.4959e-05
9.47102e-06
6.67753e-06
6.0477e-06
0
0
0
0
0
0
0
0
0
0
0
0
0
0
0
0
0
0
0
0
0
3.29701e-07
1.34598e-06
2.18474e-06
2.97155e-06
3.61677e-06
4.21533e-06
4.56333e-06
4.58714e-06
4.35907e-06
4.20376e-06
4.45826e-06
5.11823e-06
6.04691e-06
7.01369e-06
8.05064e-06
8.6852e-06
8.00163e-06
5.29181e-06
9.76068e-07
0
0
0
5.74713e-07
6.89893e-07
3.35125e-07
0
0
0
0
0
0
0
0
0
0
0
0
0
0
0
0
0
0
0
0
0
0
0
0
0
0
0
0
0
0
0
0
0
0
0
0
0
0
0
0
0
0
0
0
0
0
0
0
0
0
0
0
0
0
0
0
0
0
0
0
0
0
0
0
0
0
0
0
0
2.15071e-07
1.28072e-06
1.15774e-06
9.27589e-07
7.71712e-07
6.2111e-07
4.72182e-07
2.60508e-07
1.9847e-09
0
0
0
0
0
0
7.84786e-08
8.82767e-07
1.48628e-06
1.73193e-06
1.55713e-06
1.00927e-06
2.25236e-07
0
0
0
0
0
0
0
0
0
0
0
0
0
0
0
7.56465e-08
4.54136e-07
0
0
0
0
0
0
0
0
0
0
0
0
0
0
0
0
0
1.75126e-06
6.40239e-06
1.35072e-05
2.14068e-05
2.47552e-05
2.0781e-05
1.31773e-05
8.18918e-06
6.32522e-06
0
0
0
0
0
0
0
0
0
0
0
0
0
0
0
0
0
0
0
0
0
0
1.49202e-06
2.73181e-06
3.50229e-06
3.82232e-06
3.87915e-06
3.77267e-06
3.45858e-06
3.01996e-06
2.6365e-06
2.53248e-06
2.82846e-06
3.56621e-06
4.5693e-06
5.67507e-06
6.67321e-06
6.91546e-06
5.76229e-06
3.26418e-06
6.39882e-07
0
7.5043e-08
5.10576e-07
7.06775e-07
5.65612e-07
8.85712e-08
0
0
0
0
0
0
0
0
0
0
0
0
0
0
0
0
0
0
0
0
0
2.19375e-07
3.39953e-07
4.64113e-07
3.30734e-07
0
0
0
8.18099e-08
0
0
0
0
0
0
0
0
0
0
0
0
0
0
0
0
0
0
0
0
0
0
0
0
0
0
0
0
0
0
0
0
0
0
0
0
0
0
0
0
5.84769e-07
8.77068e-07
6.82122e-07
5.56478e-07
5.38467e-07
5.22345e-07
4.97909e-07
5.18646e-07
6.4786e-07
7.88552e-07
8.18209e-07
7.1715e-07
5.9627e-07
6.39341e-07
8.79824e-07
1.1983e-06
1.40462e-06
1.46124e-06
1.3173e-06
9.01174e-07
1.68362e-07
0
0
0
0
0
0
0
0
0
0
0
0
3.36273e-08
9.07498e-08
1.64171e-07
2.25762e-07
4.84592e-07
7.07994e-07
0
0
0
0
0
0
0
0
0
0
0
0
0
0
0
0
9.93795e-07
5.01454e-06
1.07501e-05
1.99615e-05
2.56414e-05
2.48579e-05
1.72077e-05
1.05206e-05
7.06145e-06
0
0
0
0
0
0
0
0
0
0
0
0
0
0
0
0
0
0
0
0
0
0
1.1957e-06
1.94845e-06
2.32207e-06
2.4301e-06
2.29408e-06
2.10137e-06
1.85721e-06
1.5954e-06
1.38882e-06
1.32269e-06
1.42893e-06
1.69298e-06
2.08942e-06
2.65869e-06
3.4114e-06
4.12056e-06
4.27335e-06
3.54439e-06
2.21931e-06
1.05779e-06
6.04061e-07
6.45193e-07
7.74697e-07
7.71084e-07
4.95822e-07
1.11985e-09
0
0
0
0
0
0
0
0
0
0
0
0
0
0
0
0
0
0
0
3.53722e-07
6.40779e-07
5.41404e-07
3.33267e-07
3.3016e-07
2.08537e-07
0
0
8.13165e-08
7.78419e-08
0
0
0
0
0
0
0
0
0
0
0
0
0
0
0
0
0
0
0
0
0
0
6.1273e-07
9.38727e-07
4.97267e-07
0
0
0
0
0
0
0
0
0
0
0
0
0
0
0
1.77811e-07
2.84218e-07
1.85201e-07
2.52213e-07
4.82586e-07
7.97936e-07
1.18394e-06
1.6247e-06
2.01496e-06
2.2744e-06
2.41726e-06
2.49278e-06
2.54177e-06
2.41933e-06
2.12503e-06
1.75883e-06
1.40914e-06
1.09552e-06
7.54343e-07
1.755e-07
0
0
0
0
0
0
0
1.46793e-06
1.45524e-06
1.03305e-06
8.80299e-07
6.96294e-07
4.73884e-07
4.02203e-07
3.74839e-07
3.75311e-07
5.39135e-07
1.13751e-06
1.43986e-07
0
0
0
0
0
0
0
0
0
0
0
0
0
0
0
0
2.18236e-06
6.90805e-06
1.68084e-05
2.51078e-05
2.65268e-05
2.12217e-05
1.3177e-05
8.3331e-06
0
0
0
0
0
0
0
0
0
0
0
0
0
0
0
0
0
0
0
0
0
1.84651e-07
1.08313e-06
1.46443e-06
1.56566e-06
1.50436e-06
1.32097e-06
1.11138e-06
9.2305e-07
7.80443e-07
6.96733e-07
6.97158e-07
7.73376e-07
8.83703e-07
9.92976e-07
1.13248e-06
1.36593e-06
1.68264e-06
1.9665e-06
2.08606e-06
1.92143e-06
1.49428e-06
1.03701e-06
8.42035e-07
8.36342e-07
8.3784e-07
6.86333e-07
3.69498e-07
0
0
0
0
0
0
0
0
0
0
0
0
0
0
0
0
0
0
2.67482e-07
3.74996e-07
5.37068e-07
6.30517e-07
3.00759e-07
4.14229e-08
6.78867e-08
0
0
0
6.28987e-08
0
0
0
0
0
0
0
0
0
0
0
0
0
0
0
0
1.19164e-06
0
0
0
0
0
1.75388e-06
2.16754e-06
1.64761e-06
5.48078e-07
0
0
0
0
0
0
0
0
0
0
0
0
0
0
0
0
0
0
2.41985e-07
8.93933e-07
1.73573e-06
2.62887e-06
3.40835e-06
3.99247e-06
4.40961e-06
4.6783e-06
4.76676e-06
4.45767e-06
3.7151e-06
2.83251e-06
2.00456e-06
1.29315e-06
7.37548e-07
2.01297e-07
0
0
0
0
0
0
4.11823e-07
3.64314e-06
4.23645e-06
3.5852e-06
2.60724e-06
1.74435e-06
1.05961e-06
7.32827e-07
5.54198e-07
4.89078e-07
6.71585e-07
1.32433e-06
8.32276e-07
0
0
0
0
0
0
0
0
0
0
0
0
2.28412e-06
4.81044e-06
9.52517e-07
0
0
1.26371e-06
1.18988e-05
2.31947e-05
2.6811e-05
2.38922e-05
1.5655e-05
9.71413e-06
0
0
0
0
0
0
0
0
0
0
0
0
0
0
0
0
0
0
0
0
0
7.00357e-07
1.07186e-06
1.14179e-06
1.0612e-06
9.03099e-07
7.15293e-07
5.5922e-07
4.55294e-07
3.87361e-07
3.51147e-07
3.6828e-07
4.30675e-07
4.87671e-07
5.13908e-07
5.20756e-07
5.34476e-07
5.70881e-07
6.28391e-07
7.10647e-07
8.13549e-07
8.70355e-07
8.48402e-07
7.67616e-07
7.03082e-07
6.65686e-07
5.77729e-07
3.93933e-07
1.40025e-07
0
0
0
0
0
0
0
0
0
0
0
0
0
0
0
0
0
1.9457e-08
4.76393e-07
4.40289e-07
4.75006e-07
4.20347e-07
0
0
0
0
0
0
0
0
0
0
0
0
0
0
0
0
0
0
0
0
0
0
0
0
0
0
0
0
1.47542e-06
2.50305e-06
2.21302e-06
1.35137e-06
0
0
0
0
0
0
0
0
0
0
0
0
0
0
0
0
0
0
0
7.80081e-07
1.92175e-06
3.25035e-06
4.51629e-06
5.5542e-06
6.34818e-06
6.92879e-06
7.25196e-06
6.99153e-06
6.01747e-06
4.71096e-06
3.347e-06
2.06522e-06
1.05404e-06
3.26558e-07
0
0
0
0
0
0
1.79671e-06
5.97969e-06
7.15716e-06
6.41905e-06
4.62791e-06
3.00666e-06
1.76237e-06
1.07923e-06
7.14957e-07
5.8444e-07
8.52604e-07
1.58537e-06
1.40965e-06
0
0
0
0
0
0
0
0
0
0
0
3.78531e-06
1.28305e-05
1.56184e-05
7.14673e-06
0
0
0
5.20052e-06
1.98075e-05
2.60319e-05
2.50081e-05
1.78664e-05
1.11968e-05
0
0
0
0
0
0
0
0
0
0
1.36744e-07
2.78363e-07
2.26271e-07
0
0
0
0
0
0
0
1.09758e-06
1.48738e-06
1.14867e-06
8.6304e-07
6.51913e-07
4.76976e-07
3.64553e-07
2.78939e-07
2.33907e-07
1.9719e-07
1.65453e-07
1.70558e-07
2.14095e-07
2.52208e-07
2.69393e-07
2.64842e-07
2.42809e-07
2.02902e-07
1.30979e-07
4.60203e-08
2.0099e-08
7.8462e-08
1.76663e-07
2.56041e-07
2.75137e-07
2.57407e-07
2.08935e-07
1.14714e-07
0
0
0
0
0
0
1.05956e-07
2.68821e-07
3.86465e-07
4.04125e-07
2.32071e-07
0
0
0
0
0
0
0
0
8.05405e-07
8.02072e-07
4.34448e-07
2.7229e-07
5.02467e-09
0
0
0
0
0
0
0
0
0
0
0
0
0
0
0
0
0
0
0
0
0
0
0
0
0
0
0
0
2.25363e-06
2.614e-06
1.9316e-06
7.89473e-07
0
0
0
0
0
0
0
0
0
0
0
0
0
0
0
0
0
0
7.09266e-07
1.98544e-06
3.50943e-06
5.10216e-06
6.55875e-06
7.79197e-06
8.80073e-06
9.53338e-06
9.54345e-06
8.56451e-06
6.95296e-06
5.041e-06
3.11389e-06
1.53903e-06
5.08328e-07
0
0
0
0
0
0
3.75419e-06
8.59985e-06
1.01567e-05
9.32141e-06
6.79038e-06
4.34874e-06
2.50602e-06
1.42844e-06
8.72952e-07
6.97463e-07
1.03219e-06
1.87083e-06
1.7616e-06
0
0
0
0
0
0
0
0
0
0
8.58483e-08
1.54123e-05
2.80829e-05
3.26265e-05
1.99211e-05
0
0
0
0
1.4986e-05
2.43115e-05
2.48532e-05
1.92395e-05
1.22444e-05
0
0
0
0
0
0
0
0
0
9.13931e-07
5.84442e-07
3.82298e-07
3.3964e-07
4.23397e-07
6.13827e-07
7.45738e-07
4.55562e-07
0
0
0
4.98081e-07
4.36242e-07
8.95267e-08
0
0
4.71633e-08
1.14109e-07
1.09299e-07
9.49797e-08
8.50346e-08
7.44295e-08
7.22774e-08
8.10151e-08
8.85403e-08
9.41512e-08
9.63479e-08
9.25412e-08
7.24629e-08
6.78054e-09
0
0
0
0
0
0
0
0
0
0
0
0
0
0
3.35966e-08
4.1995e-07
8.92668e-07
1.41597e-06
1.91059e-06
2.11768e-06
1.50651e-06
0
0
0
0
0
0
0
1.50789e-06
1.3269e-06
5.24933e-07
0
0
0
0
0
0
0
0
0
0
0
0
0
0
0
0
0
0
0
0
0
0
0
2.41966e-07
0
0
0
0
0
0
2.02834e-06
3.08129e-06
2.455e-06
1.46452e-06
8.55581e-08
0
0
0
0
2.31541e-07
0
0
0
0
0
0
0
0
0
0
0
0
4.22962e-07
2.07017e-06
3.81368e-06
5.60856e-06
7.3328e-06
8.90091e-06
1.02584e-05
1.13188e-05
1.16364e-05
1.09266e-05
9.17391e-06
6.67215e-06
4.00865e-06
1.79098e-06
4.46148e-07
0
0
2.88816e-07
7.30647e-07
9.13883e-07
2.45534e-06
6.42344e-06
1.1566e-05
1.31289e-05
1.21071e-05
8.88642e-06
5.63344e-06
3.20368e-06
1.74626e-06
1.01705e-06
8.21094e-07
1.18429e-06
2.15558e-06
1.76575e-06
0
0
0
0
0
0
0
0
0
0
9.69703e-06
3.06158e-05
4.82335e-05
5.70567e-05
4.26523e-05
0
0
0
0
9.0111e-06
2.17172e-05
2.38762e-05
1.96956e-05
1.29095e-05
0
0
0
0
0
0
0
0
3.47371e-06
2.80103e-06
9.41483e-07
2.84201e-07
2.99259e-07
7.35378e-07
1.30739e-06
1.73282e-06
1.62799e-06
6.86659e-07
0
2.84315e-07
3.22199e-07
2.74485e-08
0
0
0
0
0
0
0
0
0
0
9.57361e-11
5.33758e-09
1.00335e-08
6.62006e-09
0
0
0
0
0
0
0
0
0
0
0
0
0
0
0
0
0
7.75522e-09
6.08376e-07
1.41654e-06
2.44103e-06
3.65139e-06
4.73029e-06
4.47962e-06
0
0
0
0
0
0
6.21484e-07
2.34419e-06
1.70746e-06
4.36865e-07
0
0
4.40931e-07
0
0
0
0
0
0
0
0
0
0
0
0
0
0
0
0
0
0
0
0
3.13784e-07
0
0
0
0
0
0
1.19868e-06
3.30841e-06
2.86506e-06
1.8139e-06
8.77435e-07
0
0
0
0
0
0
0
0
0
0
0
0
0
0
0
0
0
0
1.41635e-06
3.7717e-06
5.96493e-06
7.99499e-06
9.83315e-06
1.14239e-05
1.27217e-05
1.32863e-05
1.27123e-05
1.07514e-05
7.46059e-06
3.5158e-06
1.75575e-07
0
0
8.24436e-07
2.51114e-06
3.80684e-06
4.44612e-06
6.05435e-06
9.88516e-06
1.48209e-05
1.59636e-05
1.4632e-05
1.06881e-05
6.70911e-06
3.77322e-06
2.00326e-06
1.13783e-06
9.36151e-07
1.30214e-06
2.41549e-06
1.34229e-06
0
0
0
0
0
0
0
0
0
0
2.16066e-05
4.92191e-05
7.34405e-05
8.98894e-05
7.92773e-05
0
0
0
0
2.3693e-06
1.83701e-05
2.2202e-05
1.91607e-05
1.29264e-05
0
0
0
0
8.51778e-07
8.16306e-07
0
0
4.73379e-07
9.34335e-07
9.1296e-07
2.7158e-07
1.4934e-07
5.77376e-07
1.0689e-06
1.21966e-06
6.86612e-07
0
0
1.1664e-06
1.10474e-06
6.18339e-07
1.37802e-07
0
0
0
0
0
0
0
0
0
1.42355e-08
3.03355e-08
3.37812e-08
2.14823e-08
0
0
0
0
0
0
0
0
0
0
0
0
0
0
0
0
0
0
5.28082e-07
1.62427e-06
3.16312e-06
5.33038e-06
8.33073e-06
1.07001e-05
0
0
0
0
0
0
1.54957e-06
3.03201e-06
1.80394e-06
2.10432e-08
0
0
1.26887e-06
0
0
0
0
0
0
0
0
0
0
0
0
0
0
0
0
0
0
0
0
0
2.47626e-07
9.17078e-08
0
0
0
0
0
2.96361e-06
3.05606e-06
1.9585e-06
1.21934e-06
4.76393e-07
0
0
0
0
0
0
0
0
0
0
0
0
0
0
0
0
0
0
1.81263e-06
4.99212e-06
7.6047e-06
9.77884e-06
1.15532e-05
1.28429e-05
1.28936e-05
1.09432e-05
6.1005e-06
0
0
0
0
0
2.88887e-06
8.08014e-06
9.6915e-06
9.8529e-06
1.08145e-05
1.39817e-05
1.80428e-05
1.84286e-05
1.67056e-05
1.20405e-05
7.50821e-06
4.1889e-06
2.2018e-06
1.23584e-06
1.03064e-06
1.38285e-06
2.62068e-06
4.64842e-07
0
0
0
0
0
0
0
0
0
7.17275e-06
3.52348e-05
7.05213e-05
0.000103318
0.000131404
0.00013407
3.30285e-05
0
0
0
0
1.45664e-05
2.00078e-05
1.78544e-05
1.24809e-05
0
2.75432e-07
3.93079e-07
5.65502e-07
6.79634e-07
3.79341e-07
0
0
0
0
0
0
0
0
3.04801e-07
2.954e-07
0
0
1.10869e-07
1.5448e-06
1.86867e-06
1.25322e-06
4.63786e-07
0
0
0
0
0
0
0
0
0
3.74302e-08
6.28951e-08
6.83968e-08
5.56285e-08
2.43176e-08
0
0
9.46783e-08
0
0
0
0
0
0
0
0
0
0
0
0
0
0
1.81611e-07
1.40056e-06
3.24799e-06
6.1601e-06
1.13943e-05
2.07274e-05
0
0
0
0
0
0
2.41159e-06
3.40984e-06
1.62251e-06
0
0
0
2.95227e-06
1.67058e-07
0
0
0
0
0
0
0
0
0
0
0
0
0
0
0
0
0
0
0
0
7.75782e-07
6.99845e-07
0
0
0
0
0
2.03212e-06
2.90111e-06
1.97992e-06
1.32561e-06
8.90808e-07
3.12661e-07
0
0
0
0
0
0
0
0
0
0
0
0
0
0
0
0
0
0
0
1.87845e-06
4.29677e-06
5.2846e-06
4.05482e-06
0
0
0
0
0
0
0
6.2056e-07
6.13043e-06
1.70152e-05
1.79645e-05
1.62737e-05
1.59158e-05
1.80004e-05
2.06706e-05
2.02122e-05
1.81144e-05
1.291e-05
8.02993e-06
4.45059e-06
2.33326e-06
1.30609e-06
1.08585e-06
1.41927e-06
2.74076e-06
0
0
0
0
0
0
0
0
0
0
1.52184e-05
4.92652e-05
9.34107e-05
0.000137201
0.000180959
0.000210463
0.000126427
0
0
0
0
1.07276e-05
1.73587e-05
1.59302e-05
1.13793e-05
0
0
1.53924e-07
4.20171e-07
5.13894e-07
3.39004e-07
0
0
0
0
0
0
0
0
0
0
0
4.24683e-08
5.68496e-08
5.68522e-07
1.13091e-06
9.04952e-07
3.11297e-07
0
0
0
0
0
2.81584e-09
1.07681e-07
1.05542e-07
1.14995e-07
1.52164e-07
1.79966e-07
1.85273e-07
1.58916e-07
8.67189e-08
0
0
0
4.14633e-07
0
0
0
0
0
0
0
0
0
0
0
0
0
0
9.49937e-07
2.8196e-06
5.90167e-06
1.16368e-05
2.25258e-05
0
0
0
0
0
0
3.00076e-06
3.49697e-06
1.26632e-06
0
0
0
4.57576e-06
4.8036e-07
0
0
0
0
0
0
0
0
0
0
0
0
0
0
0
0
1.57628e-07
1.21211e-07
0
3.56325e-07
1.01731e-06
1.01863e-06
8.32748e-07
0
0
0
0
8.33621e-07
2.38844e-06
1.81922e-06
1.26981e-06
9.64248e-07
7.74088e-07
0
0
0
0
0
0
0
0
0
0
0
0
0
0
0
0
0
0
0
0
0
0
0
0
0
0
0
0
0
4.39737e-08
2.30684e-06
5.57296e-06
6.97103e-06
1.2043e-05
1.7568e-05
1.88005e-05
2.04442e-05
2.17971e-05
2.07599e-05
1.85129e-05
1.29682e-05
8.01658e-06
4.40082e-06
2.31938e-06
1.31339e-06
1.08695e-06
1.39453e-06
2.73582e-06
0
0
0
0
0
0
0
0
0
0
2.20509e-05
6.10977e-05
0.00011468
0.000171659
0.000233778
0.000303353
0.000311817
0
0
0
0
7.36865e-06
1.43604e-05
1.3467e-05
9.68555e-06
0
0
5.38894e-08
2.61887e-07
2.91762e-07
1.81184e-07
4.1458e-08
0
0
0
0
0
0
0
0
0
1.05408e-07
1.97003e-07
1.29732e-07
3.079e-07
6.88119e-07
6.02413e-07
3.14919e-07
0
0
0
0
0
1.68452e-07
2.10523e-07
1.76106e-07
2.00761e-07
2.75756e-07
3.46643e-07
3.93162e-07
4.14035e-07
3.94673e-07
2.89517e-07
2.52467e-08
0
1.21762e-07
0
0
0
0
0
0
0
0
0
0
0
0
0
0
4.59271e-07
2.16244e-06
5.0549e-06
1.01233e-05
1.91893e-05
0
0
0
0
0
3.2888e-07
3.22197e-06
3.31035e-06
7.7801e-07
0
0
0
5.66471e-06
9.92804e-07
0
0
0
0
0
0
0
0
0
0
0
0
0
0
0
0
7.35626e-07
8.11076e-07