/*--------------------------------*- C++ -*----------------------------------*\
  =========                 |
  \\      /  F ield         | OpenFOAM: The Open Source CFD Toolbox
   \\    /   O peration     | Website:  https://openfoam.org
    \\  /    A nd           | Version:  9
     \\/     M anipulation  |
\*---------------------------------------------------------------------------*/
FoamFile
{
    format      ascii;
    class       surfaceScalarField;
    location    "0.097";
    object      phi_0;
}
// * * * * * * * * * * * * * * * * * * * * * * * * * * * * * * * * * * * * * //

dimensions      [0 3 -1 0 0 0 0];

internalField   nonuniform List<scalar> 
24170
(
3.13754e-06
6.06367e-08
3.06001e-06
7.75282e-08
2.94387e-06
1.16137e-07
2.81124e-06
1.32625e-07
2.67909e-06
1.32159e-07
2.55861e-06
1.20475e-07
2.45526e-06
1.03348e-07
2.36775e-06
8.75115e-08
2.29106e-06
7.66916e-08
2.22146e-06
6.96028e-08
2.15557e-06
6.58833e-08
2.09167e-06
6.39049e-08
2.03005e-06
6.16168e-08
1.96816e-06
6.18878e-08
1.90714e-06
6.10211e-08
1.84538e-06
6.17589e-08
1.77386e-06
7.15287e-08
8.32254e-08
1.69063e-06
3.46689e-06
4.68071e-08
3.4476e-06
9.68141e-08
3.45911e-06
1.04628e-07
3.47486e-06
1.16874e-07
3.47138e-06
1.35637e-07
3.44864e-06
1.43215e-07
3.41912e-06
1.32874e-07
3.39257e-06
1.14057e-07
3.37053e-06
9.87373e-08
3.3503e-06
8.98328e-08
3.3299e-06
8.62807e-08
3.30872e-06
8.50794e-08
3.28765e-06
8.2694e-08
3.26709e-06
8.24505e-08
3.24509e-06
8.30178e-08
3.22443e-06
8.24221e-08
3.20057e-06
9.5387e-08
1.08868e-07
3.17492e-06
3.7031e-06
4.70511e-08
3.71288e-06
8.70278e-08
3.70792e-06
1.09588e-07
3.71265e-06
1.12144e-07
3.7187e-06
1.29588e-07
3.71964e-06
1.42272e-07
3.71442e-06
1.38094e-07
3.70558e-06
1.22905e-07
3.69618e-06
1.08131e-07
3.68712e-06
9.88995e-08
3.6781e-06
9.52919e-08
3.66818e-06
9.5003e-08
3.6571e-06
9.37788e-08
3.64665e-06
9.29014e-08
3.63795e-06
9.17176e-08
3.63076e-06
8.96086e-08
3.63149e-06
9.46564e-08
1.02385e-07
3.63797e-06
3.91922e-06
6.62506e-08
3.93352e-06
7.2725e-08
3.94187e-06
1.01237e-07
3.92647e-06
1.27547e-07
3.90785e-06
1.48205e-07
3.90363e-06
1.46494e-07
3.91247e-06
1.2925e-07
3.9229e-06
1.12477e-07
3.92613e-06
1.04903e-07
3.92057e-06
1.04455e-07
3.91072e-06
1.05148e-07
3.90233e-06
1.03392e-07
3.89862e-06
9.7485e-08
3.90089e-06
9.06281e-08
3.90743e-06
8.51805e-08
3.9158e-06
8.12414e-08
3.92707e-06
8.33832e-08
9.1174e-08
3.93828e-06
4.32257e-06
1.01559e-07
4.28338e-06
1.11911e-07
4.27701e-06
1.07608e-07
4.27143e-06
1.33125e-07
4.26317e-06
1.56469e-07
4.2556e-06
1.54062e-07
4.24995e-06
1.34903e-07
4.2474e-06
1.1502e-07
4.24868e-06
1.03631e-07
4.25157e-06
1.01565e-07
4.25213e-06
1.0458e-07
4.2475e-06
1.08023e-07
4.23691e-06
1.08075e-07
4.22299e-06
1.04548e-07
4.20979e-06
9.83802e-08
4.20031e-06
9.0723e-08
4.19834e-06
8.53532e-08
8.43966e-08
4.20512e-06
4.48977e-06
2.05306e-07
4.45461e-06
1.47074e-07
4.4914e-06
7.08115e-08
4.53732e-06
8.72051e-08
4.56142e-06
1.32376e-07
4.56243e-06
1.53053e-07
4.55736e-06
1.39972e-07
4.56038e-06
1.12001e-07
4.57424e-06
8.97634e-08
4.59273e-06
8.30808e-08
4.60705e-06
9.02536e-08
4.61136e-06
1.03722e-07
4.60391e-06
1.15522e-07
4.58762e-06
1.20839e-07
4.56746e-06
1.18534e-07
4.5484e-06
1.09788e-07
4.53521e-06
9.85415e-08
8.89539e-08
4.53065e-06
4.91212e-06
1.69232e-07
4.88775e-06
1.7144e-07
4.86167e-06
9.68935e-08
4.87161e-06
7.72678e-08
4.89486e-06
1.09128e-07
4.90378e-06
1.4413e-07
4.89498e-06
1.48771e-07
4.88312e-06
1.23856e-07
4.88008e-06
9.28065e-08
4.88621e-06
7.69516e-08
4.8946e-06
8.18673e-08
4.89905e-06
9.92664e-08
4.89789e-06
1.16687e-07
4.89417e-06
1.24556e-07
4.89215e-06
1.20553e-07
4.89481e-06
1.07127e-07
4.90302e-06
9.03305e-08
7.63652e-08
4.91561e-06
5.20128e-06
1.54078e-07
5.20781e-06
1.6491e-07
5.19737e-06
1.07335e-07
5.1906e-06
8.40341e-08
5.19765e-06
1.02077e-07
5.20346e-06
1.38319e-07
5.19802e-06
1.54215e-07
5.18881e-06
1.3307e-07
5.19011e-06
9.15005e-08
5.20883e-06
5.82368e-08
5.24088e-06
4.98148e-08
5.27611e-06
6.40318e-08
5.30518e-06
8.76227e-08
5.32252e-06
1.07216e-07
5.32768e-06
1.15387e-07
5.32289e-06
1.11923e-07
5.3123e-06
1.00923e-07
8.72714e-08
5.30139e-06
5.70318e-06
1.16239e-07
5.66906e-06
1.99026e-07
5.60361e-06
1.72784e-07
5.54858e-06
1.39067e-07
5.53093e-06
1.19725e-07
5.54609e-06
1.23165e-07
5.57601e-06
1.24293e-07
5.60585e-06
1.03225e-07
5.6275e-06
6.9854e-08
5.64061e-06
4.51226e-08
5.64982e-06
4.0612e-08
5.65941e-06
5.44328e-08
5.66997e-06
7.70718e-08
5.67802e-06
9.91613e-08
5.67916e-06
1.14248e-07
5.67016e-06
1.20921e-07
5.65088e-06
1.20203e-07
1.13944e-07
5.62421e-06
5.82191e-06
1.2689e-07
5.90206e-06
1.18876e-07
5.95081e-06
1.24026e-07
5.9845e-06
1.05384e-07
6.0124e-06
9.18176e-08
6.036e-06
9.95681e-08
6.05454e-06
1.05751e-07
6.06486e-06
9.29078e-08
6.06653e-06
6.81832e-08
6.06158e-06
5.00773e-08
6.05199e-06
5.01951e-08
6.03949e-06
6.69358e-08
6.02564e-06
9.09189e-08
6.01244e-06
1.12365e-07
6.00072e-06
1.25964e-07
5.99074e-06
1.30899e-07
5.98279e-06
1.28161e-07
1.21019e-07
5.97571e-06
6.39985e-06
-8.4246e-08
6.44324e-06
7.54887e-08
6.46417e-06
1.03093e-07
6.50463e-06
6.49287e-08
6.51968e-06
7.67673e-08
6.49375e-06
1.25494e-07
6.43805e-06
1.6146e-07
6.37509e-06
1.55864e-07
6.32606e-06
1.17209e-07
6.30149e-06
7.46459e-08
6.29957e-06
5.21214e-08
6.31176e-06
5.47469e-08
6.32929e-06
7.33903e-08
6.34765e-06
9.39999e-08
6.36537e-06
1.08241e-07
6.38333e-06
1.12938e-07
6.40131e-06
1.10186e-07
1.03441e-07
6.41889e-06
5.67308e-06
-1.41379e-07
5.72826e-06
2.03116e-08
5.77768e-06
5.36668e-08
5.8011e-06
4.1517e-08
5.81273e-06
6.51356e-08
5.82203e-06
1.16195e-07
5.82758e-06
1.55908e-07
5.82105e-06
1.6239e-07
5.79731e-06
1.40953e-07
5.76096e-06
1.10994e-07
5.72517e-06
8.79167e-08
5.70344e-06
7.64739e-08
5.70322e-06
7.36041e-08
5.72344e-06
7.37841e-08
5.75672e-06
7.49647e-08
5.79338e-06
7.62778e-08
5.82375e-06
7.98114e-08
8.53522e-08
5.84184e-06
7.10394e-06
-1.89465e-07
7.12709e-06
-2.8357e-09
7.11507e-06
6.56794e-08
7.07485e-06
8.17364e-08
7.04703e-06
9.29613e-08
7.05381e-06
1.09412e-07
7.0839e-06
1.25823e-07
7.11074e-06
1.35551e-07
7.11125e-06
1.40443e-07
7.07877e-06
1.43468e-07
7.02527e-06
1.41415e-07
6.97137e-06
1.30374e-07
6.93406e-06
1.10916e-07
6.92013e-06
8.77123e-08
6.92741e-06
6.76917e-08
6.94764e-06
5.60401e-08
6.97194e-06
5.55149e-08
6.6013e-08
6.99128e-06
8.30169e-06
-9.89717e-08
8.4532e-06
-1.54348e-07
8.59067e-06
-7.17843e-08
8.64467e-06
2.77334e-08
8.61931e-06
1.18325e-07
8.5586e-06
1.70119e-07
8.51259e-06
1.7183e-07
8.50443e-06
1.43711e-07
8.52953e-06
1.15347e-07
8.56969e-06
1.03308e-07
8.60548e-06
1.05625e-07
8.62399e-06
1.11859e-07
8.6217e-06
1.13207e-07
8.60308e-06
1.0633e-07
8.57673e-06
9.40434e-08
8.55038e-06
8.23916e-08
8.52997e-06
7.59275e-08
7.89986e-08
8.51698e-06
1.03718e-05
-1.90389e-07
1.03837e-05
-1.66177e-07
1.04e-05
-8.81376e-08
1.03986e-05
2.91417e-08
1.03761e-05
1.40865e-07
1.03392e-05
2.07008e-07
1.03047e-05
2.06309e-07
1.02828e-05
1.65627e-07
1.02738e-05
1.24299e-07
1.02742e-05
1.02954e-07
1.02801e-05
9.96681e-08
1.02895e-05
1.02517e-07
1.03011e-05
1.01562e-07
1.0314e-05
9.34804e-08
1.03261e-05
8.18927e-08
1.03362e-05
7.23083e-08
1.03431e-05
6.90883e-08
7.46344e-08
1.03474e-05
1.25156e-05
-6.53601e-08
1.2521e-05
-1.71549e-07
1.25233e-05
-9.04489e-08
1.25219e-05
3.05519e-08
1.25395e-05
1.23271e-07
1.25873e-05
1.59199e-07
1.26616e-05
1.31975e-07
1.27306e-05
9.66116e-08
1.27655e-05
8.93923e-08
1.27594e-05
1.09104e-07
1.27269e-05
1.32183e-07
1.26915e-05
1.37835e-07
1.26721e-05
1.20978e-07
1.26757e-05
8.98949e-08
1.26975e-05
6.01408e-08
1.27269e-05
4.28422e-08
1.2752e-05
4.40281e-08
6.20016e-08
1.27646e-05
1.57336e-05
7.5105e-08
1.54686e-05
9.34974e-08
1.53323e-05
4.58384e-08
1.52612e-05
1.01647e-07
1.52654e-05
1.19075e-07
1.53217e-05
1.02847e-07
1.53625e-05
9.12448e-08
1.53664e-05
9.26474e-08
1.5354e-05
1.01795e-07
1.53546e-05
1.08526e-07
1.53821e-05
1.04689e-07
1.54311e-05
8.87937e-08
1.54852e-05
6.6955e-08
1.55268e-05
4.82576e-08
1.55465e-05
4.0417e-08
1.55434e-05
4.59609e-08
1.55236e-05
6.37845e-08
9.03097e-08
1.54953e-05
1.8464e-05
-2.20058e-07
1.87144e-05
-1.56915e-07
1.88178e-05
-5.76093e-08
1.88898e-05
2.96826e-08
1.89255e-05
8.33358e-08
1.88949e-05
1.33438e-07
1.88403e-05
1.45864e-07
1.88012e-05
1.3181e-07
1.87959e-05
1.07097e-07
1.88214e-05
8.29303e-08
1.88627e-05
6.34752e-08
1.89021e-05
4.93381e-08
1.89284e-05
4.06889e-08
1.89382e-05
3.84243e-08
1.89352e-05
4.34149e-08
1.89257e-05
5.55159e-08
1.89168e-05
7.26198e-08
9.28646e-08
1.89143e-05
2.27872e-05
-2.3774e-07
2.28432e-05
-2.12925e-07
2.2861e-05
-7.53791e-08
2.28828e-05
7.86431e-09
2.29249e-05
4.11827e-08
2.3005e-05
5.34027e-08
2.30909e-05
5.98921e-08
2.31567e-05
6.60694e-08
2.31893e-05
7.45217e-08
2.31906e-05
8.15926e-08
2.3171e-05
8.31107e-08
2.3142e-05
7.82568e-08
2.31134e-05
6.93509e-08
2.30905e-05
6.12811e-08
2.30759e-05
5.80734e-08
2.30697e-05
6.17336e-08
2.30714e-05
7.0889e-08
8.34326e-08
2.30808e-05
1.68501e-05
-2.02883e-07
1.67821e-05
-1.44897e-07
1.66943e-05
1.24888e-08
1.66659e-05
3.62169e-08
1.66812e-05
2.59154e-08
1.67052e-05
2.9394e-08
1.67067e-05
5.84057e-08
1.66869e-05
8.58325e-08
1.66704e-05
9.10038e-08
1.66804e-05
7.15971e-08
1.67237e-05
3.98641e-08
1.679e-05
1.19068e-08
1.6861e-05
-1.68774e-09
1.69202e-05
2.1196e-09
1.69615e-05
1.67563e-08
1.69873e-05
3.60076e-08
1.70062e-05
5.19814e-08
6.0132e-08
1.70295e-05
1.48105e-05
-5.24272e-08
1.46715e-05
-5.92056e-09
1.46075e-05
7.65035e-08
1.45732e-05
7.04759e-08
1.45521e-05
4.70454e-08
1.45509e-05
3.05909e-08
1.4581e-05
2.82519e-08
1.46381e-05
2.87345e-08
1.4711e-05
1.81748e-08
1.47864e-05
-3.86006e-09
1.48521e-05
-2.58221e-08
1.48979e-05
-3.38397e-08
1.49171e-05
-2.08891e-08
1.49087e-05
1.04961e-08
1.48791e-05
4.6305e-08
1.48404e-05
7.4793e-08
1.48038e-05
8.85193e-08
8.5237e-08
1.47787e-05
1.26008e-05
1.42637e-07
1.25713e-05
2.35438e-08
1.26295e-05
1.82444e-08
1.26963e-05
3.68844e-09
1.27573e-05
-1.39123e-08
1.27944e-05
-6.49401e-09
1.27959e-05
2.66942e-08
1.27774e-05
4.73053e-08
1.27588e-05
3.6774e-08
1.27585e-05
-3.62527e-09
1.2783e-05
-5.02523e-08
1.2827e-05
-7.78644e-08
1.28804e-05
-7.43088e-08
1.29333e-05
-4.2373e-08
1.29771e-05
2.43168e-09
1.30075e-05
4.4478e-08
1.30225e-05
7.348e-08
8.35598e-08
1.30242e-05
1.09915e-05
-1.39821e-07
1.11056e-05
-9.0519e-08
1.11337e-05
-9.9051e-09
1.11723e-05
-3.48938e-08
1.12199e-05
-6.14738e-08
1.12564e-05
-4.29802e-08
1.12741e-05
8.90782e-09
1.12705e-05
5.09058e-08
1.12545e-05
5.28476e-08
1.12327e-05
1.81821e-08
1.12113e-05
-2.89156e-08
1.1196e-05
-6.25627e-08
1.11908e-05
-6.90906e-08
1.11978e-05
-4.93252e-08
1.12153e-05
-1.50611e-08
1.12392e-05
2.05482e-08
1.12649e-05
4.77151e-08
6.10858e-08
1.12874e-05
9.58877e-06
-1.96613e-07
9.65901e-06
-1.60763e-07
9.67142e-06
-2.23137e-08
9.62585e-06
1.06741e-08
9.56983e-06
-5.45278e-09
9.54871e-06
-2.18584e-08
9.57972e-06
-2.20997e-08
9.64478e-06
-1.41568e-08
9.71555e-06
-1.79238e-08
9.77191e-06
-3.81764e-08
9.80563e-06
-6.26367e-08
9.81832e-06
-7.52519e-08
9.8167e-06
-6.74699e-08
9.80839e-06
-4.10111e-08
9.79895e-06
-5.62564e-09
9.79161e-06
2.78893e-08
9.78671e-06
5.26136e-08
6.48148e-08
9.78298e-06
8.27484e-06
-1.05142e-07
8.24758e-06
-1.33497e-07
8.31245e-06
-8.7192e-08
8.35904e-06
-3.59111e-08
8.37543e-06
-2.18447e-08
8.37673e-06
-2.31551e-08
8.37625e-06
-2.1618e-08
8.38711e-06
-2.50219e-08
8.41031e-06
-4.11175e-08
8.438e-06
-6.58693e-08
8.46168e-06
-8.63207e-08
8.47718e-06
-9.07502e-08
8.48569e-06
-7.59804e-08
8.49168e-06
-4.69997e-08
8.50024e-06
-1.41836e-08
8.515e-06
1.31312e-08
8.53709e-06
3.05153e-08
3.69084e-08
8.565e-06
7.39644e-06
-1.96574e-08
7.26877e-06
-5.83272e-09
7.22856e-06
-4.69832e-08
7.25335e-06
-6.06998e-08
7.29806e-06
-6.65487e-08
7.33914e-06
-6.42429e-08
7.37017e-06
-5.26464e-08
7.3908e-06
-4.56507e-08
7.40193e-06
-5.22503e-08
7.40396e-06
-6.78936e-08
7.39858e-06
-8.09432e-08
7.38995e-06
-8.21153e-08
7.38332e-06
-6.93574e-08
7.3836e-06
-4.72784e-08
7.39344e-06
-2.40209e-08
7.41248e-06
-5.90668e-09
7.43872e-06
4.27711e-09
6.40124e-09
7.46922e-06
6.38443e-06
1.74456e-07
6.34524e-06
3.33489e-08
6.39241e-06
-9.41513e-08
6.43258e-06
-1.0087e-07
6.4455e-06
-7.94668e-08
6.44848e-06
-6.72264e-08
6.45783e-06
-6.19948e-08
6.46692e-06
-5.47364e-08
6.46231e-06
-4.76456e-08
6.44206e-06
-4.76359e-08
6.41659e-06
-5.54784e-08
6.39866e-06
-6.41877e-08
6.39531e-06
-6.60035e-08
6.40624e-06
-5.82123e-08
6.42609e-06
-4.38671e-08
6.44812e-06
-2.79369e-08
6.46661e-06
-1.42106e-08
-5.51752e-09
6.47853e-06
5.57902e-06
2.14711e-08
5.58126e-06
3.11055e-08
5.56492e-06
-7.78058e-08
5.5794e-06
-1.15354e-07
5.60469e-06
-1.04757e-07
5.61304e-06
-7.55752e-08
5.5959e-06
-4.48512e-08
5.5633e-06
-2.21397e-08
5.53139e-06
-1.57341e-08
5.51045e-06
-2.66988e-08
5.50218e-06
-4.72064e-08
5.50289e-06
-6.4902e-08
5.50822e-06
-7.13264e-08
5.51593e-06
-6.59263e-08
5.52564e-06
-5.35802e-08
5.53786e-06
-4.01506e-08
5.55335e-06
-2.96974e-08
-2.3921e-08
5.57175e-06
4.82692e-06
2.7965e-08
4.90908e-06
-5.10619e-08
4.92482e-06
-9.35449e-08
4.90399e-06
-9.45259e-08
4.87904e-06
-7.98061e-08
4.86585e-06
-6.23793e-08
4.86897e-06
-4.7976e-08
4.88451e-06
-3.76738e-08
4.90188e-06
-3.31062e-08
4.91007e-06
-3.48903e-08
4.90347e-06
-4.06098e-08
4.88519e-06
-4.66229e-08
4.86442e-06
-5.05499e-08
4.85008e-06
-5.15911e-08
4.84662e-06
-5.01176e-08
4.85366e-06
-4.7191e-08
4.86782e-06
-4.3852e-08
-4.06639e-08
4.88456e-06
4.15354e-06
4.10247e-06
4.00893e-06
3.9144e-06
3.8346e-06
3.77222e-06
3.72424e-06
3.68657e-06
3.65346e-06
3.61857e-06
3.57796e-06
3.53134e-06
3.48079e-06
3.4292e-06
3.37908e-06
3.33189e-06
3.28804e-06
3.24737e-06
-5.33721e-08
5.33721e-08
-1.16447e-07
6.30749e-08
-1.26137e-07
9.69003e-09
-3.40013e-08
-9.21358e-08
1.76124e-07
-2.10126e-07
4.95136e-07
-3.19012e-07
8.97509e-07
-4.02372e-07
1.35083e-06
-4.53318e-07
1.82434e-06
-4.73517e-07
2.29275e-06
-4.68408e-07
2.73802e-06
-4.4527e-07
3.14878e-06
-4.10763e-07
3.51864e-06
-3.69856e-07
3.84453e-06
-3.2589e-07
4.1254e-06
-2.80875e-07
4.36124e-06
-2.35834e-07
4.55245e-06
-1.91216e-07
4.69944e-06
-1.46982e-07
4.80205e-06
-1.02612e-07
4.85958e-06
-5.75272e-08
4.8709e-06
-1.13219e-08
4.83743e-06
3.34643e-08
4.75846e-06
7.89766e-08
4.63468e-06
1.23774e-07
4.46815e-06
1.6653e-07
4.26015e-06
2.08003e-07
4.01267e-06
2.47482e-07
3.73265e-06
2.80021e-07
3.41815e-06
3.14492e-07
3.08495e-06
3.332e-07
2.74276e-06
3.42197e-07
2.41399e-06
3.2877e-07
2.14946e-06
2.64528e-07
1.92949e-06
2.19966e-07
1.78709e-06
1.42402e-07
1.73115e-06
5.59402e-08
1.71245e-06
1.86974e-08
1.75325e-06
-4.07945e-08
1.89642e-06
-1.43171e-07
2.08211e-06
-1.85691e-07
2.09502e-06
-1.2908e-08
1.83004e-06
2.6498e-07
1.54826e-06
2.81776e-07
1.46218e-06
8.60814e-08
1.37318e-06
8.89983e-08
1.27893e-06
9.42508e-08
1.33225e-06
-5.33203e-08
1.03538e-06
2.96867e-07
4.08071e-07
6.27312e-07
-6.11548e-07
1.01962e-06
-2.28206e-06
1.67051e-06
-3.57475e-06
1.29269e-06
-4.67795e-06
1.1032e-06
-5.6545e-06
9.76542e-07
-6.45344e-06
7.98941e-07
-7.1422e-06
6.88761e-07
-7.68854e-06
5.46346e-07
-8.18492e-06
4.96373e-07
-8.57772e-06
3.928e-07
-8.90163e-06
3.23917e-07
-9.17779e-06
2.76157e-07
-9.38616e-06
2.08372e-07
-9.54568e-06
1.59521e-07
-9.65755e-06
1.11872e-07
-9.72354e-06
6.5984e-08
-9.75067e-06
2.71272e-08
-9.7436e-06
-7.06323e-09
-9.70888e-06
-3.4724e-08
-9.65038e-06
-5.84997e-08
-9.57191e-06
-7.84685e-08
-9.47669e-06
-9.52185e-08
-9.36696e-06
-1.09727e-07
-9.24429e-06
-1.22673e-07
-9.10986e-06
-1.3443e-07
-8.96472e-06
-1.45143e-07
-8.81001e-06
-1.5471e-07
-8.64695e-06
-1.63058e-07
-8.47651e-06
-1.70442e-07
-8.29903e-06
-1.77477e-07
-8.1141e-06
-1.84934e-07
-7.92074e-06
-1.93362e-07
-7.71792e-06
-2.02815e-07
-7.50508e-06
-2.12843e-07
-7.2823e-06
-2.22775e-07
-7.05015e-06
-2.32148e-07
-6.80925e-06
-2.40908e-07
-6.56005e-06
-2.49193e-07
-6.30307e-06
-2.56984e-07
-6.03917e-06
-2.63901e-07
-5.76993e-06
-2.69237e-07
-5.49751e-06
-2.72425e-07
-5.22404e-06
-2.73464e-07
-4.94996e-06
-2.74079e-07
-4.6722e-06
-2.77768e-07
-4.38484e-06
-2.87354e-07
-4.08318e-06
-3.0166e-07
-3.76949e-06
-3.13691e-07
-3.45364e-06
-3.15848e-07
-3.14253e-06
-3.1111e-07
-2.82738e-06
-3.15154e-07
-2.4754e-06
-3.51979e-07
-2.04682e-06
-4.28583e-07
-1.52726e-06
-5.19561e-07
-9.52447e-07
-5.7481e-07
-3.38512e-07
-6.13935e-07
2.89048e-07
-6.2756e-07
9.53508e-07
-6.64459e-07
1.72523e-06
-7.71723e-07
2.52977e-06
-8.04541e-07
3.06602e-06
-5.36246e-07
2.95569e-06
1.10324e-07
2.30223e-06
6.53464e-07
1.86053e-06
4.417e-07
1.93019e-06
-6.96606e-08
2.00952e-06
-7.93347e-08
1.67603e-06
3.33493e-07
9.73399e-07
7.02633e-07
1.40393e-07
8.33006e-07
-6.75966e-07
8.16359e-07
-1.44656e-06
7.7059e-07
-2.16581e-06
7.19256e-07
-2.84046e-06
6.74651e-07
-3.47314e-06
6.32675e-07
-4.06158e-06
5.88442e-07
-4.60054e-06
5.3896e-07
-5.08356e-06
4.83024e-07
-5.50373e-06
4.20166e-07
-5.85356e-06
3.49835e-07
-6.12532e-06
2.7176e-07
-6.31129e-06
1.85967e-07
-6.40435e-06
9.30602e-08
-6.39969e-06
-4.6571e-09
-6.29582e-06
-1.03877e-07
-6.09323e-06
-2.02587e-07
-5.79375e-06
-2.99485e-07
-5.40228e-06
-3.91463e-07
-4.92742e-06
-4.74863e-07
-4.38149e-06
-5.45925e-07
-3.78014e-06
-6.01357e-07
-3.14158e-06
-6.38556e-07
-2.48557e-06
-6.56011e-07
-1.83204e-06
-6.53529e-07
-1.19942e-06
-6.32626e-07
-6.03295e-07
-5.9612e-07
-5.86876e-08
-5.44607e-07
4.35471e-07
-4.94159e-07
8.70143e-07
-4.34671e-07
1.24991e-06
-3.79766e-07
1.5824e-06
-3.32491e-07
1.87728e-06
-2.94881e-07
2.14455e-06
-2.67271e-07
2.39338e-06
-2.48832e-07
2.63189e-06
-2.38506e-07
2.86685e-06
-2.34962e-07
3.10437e-06
-2.37518e-07
3.35256e-06
-2.48192e-07
3.61937e-06
-2.66813e-07
3.91094e-06
-2.91563e-07
4.23759e-06
-3.26653e-07
4.5994e-06
-3.6181e-07
4.99526e-06
-3.95858e-07
5.44216e-06
-4.46899e-07
5.89681e-06
-4.54654e-07
6.35221e-06
-4.554e-07
6.84711e-06
-4.94901e-07
7.22777e-06
-3.80659e-07
7.56664e-06
-3.38871e-07
7.84641e-06
-2.79769e-07
7.7229e-06
1.23509e-07
7.56817e-06
1.54735e-07
6.76059e-06
8.07581e-07
4.47368e-06
2.28691e-06
2.34981e-06
2.12387e-06
1.36266e-06
9.87151e-07
4.11343e-07
9.51318e-07
-7.8917e-07
1.20051e-06
-1.61292e-06
8.23753e-07
-1.77524e-06
1.62316e-07
-1.45169e-06
-3.23545e-07
-5.45114e-07
-9.0658e-07
1.741e-08
3.59622e-08
3.5895e-08
4.45899e-08
1.37583e-07
-9.19982e-08
4.00987e-07
-3.55539e-07
8.15358e-07
-6.24497e-07
1.32768e-06
-8.31336e-07
1.88281e-06
-9.57501e-07
2.43918e-06
-1.00968e-06
2.96976e-06
-1.00411e-06
3.45962e-06
-9.58269e-07
3.90202e-06
-8.87666e-07
4.29647e-06
-8.05212e-07
4.64453e-06
-7.17916e-07
4.94764e-06
-6.28997e-07
5.20715e-06
-5.40384e-07
5.42412e-06
-4.52804e-07
5.59925e-06
-3.66351e-07
5.73307e-06
-2.80799e-07
5.82578e-06
-1.95326e-07
5.87778e-06
-1.09527e-07
5.89141e-06
-2.49446e-08
5.86045e-06
6.44167e-08
5.78645e-06
1.5298e-07
5.67259e-06
2.37637e-07
5.52308e-06
3.1604e-07
5.34133e-06
3.89746e-07
5.13279e-06
4.56026e-07
4.90294e-06
5.09872e-07
4.66141e-06
5.56023e-07
4.39995e-06
5.94659e-07
4.11495e-06
6.27194e-07
3.84461e-06
5.99116e-07
3.56984e-06
5.39296e-07
3.31135e-06
4.78453e-07
3.03146e-06
4.22298e-07
2.74238e-06
3.45021e-07
2.64388e-06
1.1719e-07
2.67569e-06
-7.26032e-08
2.61263e-06
-8.0112e-08
2.56819e-06
-1.4125e-07
2.76538e-06
-2.10091e-07
2.97329e-06
5.70714e-08
2.9289e-06
3.2616e-07
2.64192e-06
3.73064e-07
2.22527e-06
5.05652e-07
1.44765e-06
8.71864e-07
2.26716e-07
1.16762e-06
-1.37307e-06
1.89666e-06
-3.31201e-06
2.56625e-06
-4.76812e-06
2.47573e-06
-5.51251e-06
2.4149e-06
-6.25486e-06
2.03505e-06
-6.93237e-06
1.78071e-06
-7.49464e-06
1.53881e-06
-7.99785e-06
1.30215e-06
-8.4168e-06
1.10771e-06
-8.81248e-06
9.42025e-07
-9.13118e-06
8.15069e-07
-9.40946e-06
6.71085e-07
-9.65141e-06
5.65866e-07
-9.83109e-06
4.55835e-07
-9.97241e-06
3.49689e-07
-1.00708e-05
2.57948e-07
-1.01259e-05
1.66898e-07
-1.01456e-05
8.56959e-08
-1.01329e-05
1.44813e-08
-1.00875e-05
-5.25144e-08
-1.00137e-05
-1.08489e-07
-9.9157e-06
-1.5651e-07
-9.79643e-06
-1.97735e-07
-9.65868e-06
-2.32966e-07
-9.50523e-06
-2.63185e-07
-9.33874e-06
-2.89165e-07
-9.1617e-06
-3.1146e-07
-8.97645e-06
-3.30396e-07
-8.78492e-06
-3.46241e-07
-8.58852e-06
-3.59456e-07
-8.38811e-06
-3.70852e-07
-8.18408e-06
-3.81515e-07
-7.97651e-06
-3.925e-07
-7.76538e-06
-4.04493e-07
-7.55054e-06
-4.17653e-07
-7.33165e-06
-4.31732e-07
-7.10804e-06
-4.46389e-07
-6.87864e-06
-4.61541e-07
-6.64206e-06
-4.77495e-07
-6.39649e-06
-4.94757e-07
-6.13985e-06
-5.13627e-07
-5.86999e-06
-5.33761e-07
-5.58537e-06
-5.53859e-07
-5.28594e-06
-5.71848e-07
-4.97361e-06
-5.85795e-07
-4.65201e-06
-5.95678e-07
-4.32528e-06
-6.04503e-07
-3.99603e-06
-6.16608e-07
-3.66395e-06
-6.33732e-07
-3.32566e-06
-6.51984e-07
-2.97815e-06
-6.63356e-07
-2.61963e-06
-6.69631e-07
-2.24506e-06
-6.89726e-07
-1.85772e-06
-7.3932e-07
-1.47276e-06
-8.1354e-07
-1.11827e-06
-8.74054e-07
-7.75804e-07
-9.17272e-07
-3.54356e-07
-1.03538e-06
1.58639e-07
-1.14055e-06
7.78359e-07
-1.28418e-06
1.57021e-06
-1.56357e-06
2.37667e-06
-1.61101e-06
2.91061e-06
-1.07018e-06
3.0133e-06
7.63279e-09
2.88258e-06
7.84182e-07
2.73528e-06
5.89007e-07
2.46753e-06
1.98086e-07
1.79162e-06
5.96571e-07
7.45226e-07
1.37989e-06
-2.89479e-07
1.73734e-06
-1.14091e-06
1.68444e-06
-1.84575e-06
1.5212e-06
-2.45067e-06
1.3755e-06
-3.00257e-06
1.27116e-06
-3.52565e-06
1.19774e-06
-4.02943e-06
1.13645e-06
-4.51017e-06
1.06918e-06
-4.95791e-06
9.86699e-07
-5.36318e-06
8.88299e-07
-5.71792e-06
7.74901e-07
-6.01437e-06
6.46287e-07
-6.24466e-06
5.02047e-07
-6.40109e-06
3.42405e-07
-6.47578e-06
1.67752e-07
-6.46145e-06
-1.89946e-08
-6.35216e-06
-2.13165e-07
-6.14338e-06
-4.11362e-07
-5.83645e-06
-6.06414e-07
-5.43633e-06
-7.91587e-07
-4.95146e-06
-9.59736e-07
-4.39379e-06
-1.10359e-06
-3.77858e-06
-1.21657e-06
-3.12339e-06
-1.29375e-06
-2.44697e-06
-1.33243e-06
-1.76785e-06
-1.33264e-06
-1.10349e-06
-1.29699e-06
-4.69813e-07
-1.22979e-06
1.24642e-07
-1.13906e-06
6.64214e-07
-1.03373e-06
1.14911e-06
-9.19568e-07
1.57832e-06
-8.08977e-07
1.95604e-06
-7.10209e-07
2.28952e-06
-6.28363e-07
2.58778e-06
-5.65532e-07
2.8602e-06
-5.21254e-07
3.11535e-06
-4.93652e-07
3.3617e-06
-4.81311e-07
3.60804e-06
-4.83858e-07
3.86255e-06
-5.02707e-07
4.13658e-06
-5.40834e-07
4.43929e-06
-5.94273e-07
4.77503e-06
-6.624e-07
5.15912e-06
-7.45901e-07
5.58168e-06
-8.18413e-07
6.02837e-06
-8.93583e-07
6.5304e-06
-9.56692e-07
7.02412e-06
-9.49116e-07
7.49522e-06
-9.66002e-07
7.97988e-06
-8.65321e-07
8.31632e-06
-6.75313e-07
8.61329e-06
-5.76734e-07
8.80256e-06
-6.57641e-08
8.64201e-06
3.15284e-07
8.59875e-06
8.50847e-07
8.32112e-06
2.56453e-06
6.6323e-06
3.81269e-06
3.92705e-06
3.69241e-06
1.6911e-06
3.18727e-06
4.65408e-07
2.4262e-06
-1.60158e-07
1.44932e-06
-2.67432e-07
2.69591e-07
-6.1264e-09
-5.84851e-07
-1.03346e-06
4.82216e-07
-3.30802e-08
6.90423e-08
4.9143e-08
-3.76332e-08
4.33652e-07
-4.76508e-07
1.04033e-06
-9.62214e-07
1.71918e-06
-1.30335e-06
2.37122e-06
-1.48337e-06
2.95122e-06
-1.5375e-06
3.44865e-06
-1.50712e-06
3.87022e-06
-1.42567e-06
4.22965e-06
-1.3177e-06
4.5409e-06
-1.19892e-06
4.81427e-06
-1.07858e-06
5.05733e-06
-9.60979e-07
5.27529e-06
-8.46954e-07
5.47082e-06
-7.35914e-07
5.64462e-06
-6.266e-07
5.79545e-06
-5.1718e-07
5.92064e-06
-4.05996e-07
6.01667e-06
-2.9135e-07
6.07958e-06
-1.72443e-07
6.10647e-06
-5.18347e-08
6.09518e-06
7.57106e-08
6.04247e-06
2.0569e-07
5.94819e-06
3.31914e-07
5.81368e-06
4.5055e-07
5.64407e-06
5.59354e-07
5.4438e-06
6.56303e-07
5.21837e-06
7.35293e-07
4.98068e-06
7.93714e-07
4.72493e-06
8.50416e-07
4.46796e-06
8.84156e-07
4.19041e-06
8.76668e-07
3.89555e-06
8.34161e-07
3.60991e-06
7.64086e-07
3.37877e-06
6.53446e-07
3.24678e-06
4.77003e-07
3.08064e-06
2.83332e-07
2.96198e-06
4.60637e-08
2.99542e-06
-1.13559e-07
2.94694e-06
-9.277e-08
2.75557e-06
-1.87193e-08
2.58684e-06
2.258e-07
2.19343e-06
7.19569e-07
1.39037e-06
1.17612e-06
2.64632e-07
1.63139e-06
-1.30043e-06
2.43693e-06
-3.2476e-06
3.11478e-06
-4.69246e-06
3.34152e-06
-5.46275e-06
3.33654e-06
-6.07507e-06
3.08804e-06
-6.47122e-06
2.81105e-06
-6.88113e-06
2.44497e-06
-7.2975e-06
2.19707e-06
-7.70174e-06
1.94306e-06
-8.10318e-06
1.70359e-06
-8.49203e-06
1.49656e-06
-8.85245e-06
1.30244e-06
-9.15444e-06
1.11706e-06
-9.42173e-06
9.38374e-07
-9.63694e-06
7.8108e-07
-9.79749e-06
6.16387e-07
-9.91523e-06
4.67426e-07
-9.98598e-06
3.28701e-07
-1.00144e-05
1.95266e-07
-1.00033e-05
7.4643e-08
-9.95524e-06
-3.35754e-08
-9.87752e-06
-1.30241e-07
-9.77028e-06
-2.15726e-07
-9.63706e-06
-2.89729e-07
-9.4822e-06
-3.5259e-07
-9.30997e-06
-4.05198e-07
-9.12458e-06
-4.48581e-07
-8.92987e-06
-4.83866e-07
-8.72909e-06
-5.12245e-07
-8.5246e-06
-5.34885e-07
-8.31788e-06
-5.52964e-07
-8.10964e-06
-5.6769e-07
-7.90021e-06
-5.80285e-07
-7.68978e-06
-5.91947e-07
-7.47852e-06
-6.03755e-07
-7.2665e-06
-6.16516e-07
-7.05349e-06
-6.30668e-07
-6.83889e-06
-6.46333e-07
-6.62175e-06
-6.63524e-07
-6.4009e-06
-6.82395e-07
-6.17496e-06
-7.03436e-07
-5.94221e-06
-7.275e-07
-5.70031e-06
-7.55529e-07
-5.44622e-06
-7.87852e-07
-5.17669e-06
-8.2339e-07
-4.88911e-06
-8.59429e-07
-4.5823e-06
-8.92599e-07
-4.25676e-06
-9.2122e-07
-3.91383e-06
-9.47438e-07
-3.55465e-06
-9.75788e-07
-3.1804e-06
-1.00798e-06
-2.79214e-06
-1.04024e-06
-2.38892e-06
-1.06657e-06
-1.97132e-06
-1.08724e-06
-1.54155e-06
-1.11949e-06
-1.10316e-06
-1.17771e-06
-6.77314e-07
-1.23938e-06
-3.04151e-07
-1.24722e-06
-3.46033e-08
-1.18682e-06
1.87849e-07
-1.25784e-06
4.66363e-07
-1.41907e-06
8.96466e-07
-1.71428e-06
1.53901e-06
-2.20612e-06
2.28652e-06
-2.35852e-06
2.88442e-06
-1.66808e-06
3.22357e-06
-3.31514e-07
3.30597e-06
7.01781e-07
3.11202e-06
7.82958e-07
2.38989e-06
9.20211e-07
1.19738e-06
1.78909e-06
5.40814e-08
2.52319e-06
-7.27282e-07
2.5187e-06
-1.28422e-06
2.24138e-06
-1.75043e-06
1.98741e-06
-2.20507e-06
1.83014e-06
-2.69083e-06
1.75691e-06
-3.21526e-06
1.72217e-06
-3.75625e-06
1.67744e-06
-4.28192e-06
1.59484e-06
-4.76977e-06
1.47455e-06
-5.20779e-06
1.32632e-06
-5.58928e-06
1.15639e-06
-5.90814e-06
9.65147e-07
-6.15686e-06
7.50771e-07
-6.32703e-06
5.12573e-07
-6.41077e-06
2.51487e-07
-6.40322e-06
-2.65408e-08
-6.29717e-06
-3.19214e-07
-6.09099e-06
-6.17547e-07
-5.78663e-06
-9.1077e-07
-5.38924e-06
-1.18898e-06
-4.90763e-06
-1.44134e-06
-4.35446e-06
-1.65676e-06
-3.74583e-06
-1.82521e-06
-3.1e-06
-1.93958e-06
-2.43552e-06
-1.99691e-06
-1.77048e-06
-1.99768e-06
-1.12049e-06
-1.94699e-06
-4.99463e-07
-1.85082e-06
8.40521e-08
-1.72258e-06
6.21801e-07
-1.57148e-06
1.11022e-06
-1.40799e-06
1.54893e-06
-1.24768e-06
1.94095e-06
-1.10223e-06
2.29195e-06
-9.79359e-07
2.60918e-06
-8.82766e-07
2.90091e-06
-8.12984e-07
3.17607e-06
-7.68807e-07
3.44401e-06
-7.49255e-07
3.71517e-06
-7.55019e-07
4.0006e-06
-7.88133e-07
4.31023e-06
-8.50473e-07
4.65394e-06
-9.37974e-07
5.0352e-06
-1.04366e-06
5.45216e-06
-1.16286e-06
5.909e-06
-1.27525e-06
6.39249e-06
-1.37708e-06
6.89448e-06
-1.45867e-06
7.41143e-06
-1.46606e-06
7.89826e-06
-1.45284e-06
8.36766e-06
-1.33471e-06
8.76586e-06
-1.07352e-06
9.03336e-06
-8.44234e-07
9.24618e-06
-2.78582e-07
9.20848e-06
3.52985e-07
9.04736e-06
1.01196e-06
9.1842e-06
2.4277e-06
9.02635e-06
3.97053e-06
7.71762e-06
5.00114e-06
5.61986e-06
5.28502e-06
3.73744e-06
4.30862e-06
2.50198e-06
2.68477e-06
1.89372e-06
8.77855e-07
1.78362e-06
-4.74754e-07
-1.23816e-06
1.98833e-06
-5.09486e-09
7.41372e-08
4.87221e-07
-5.2995e-07
1.28324e-06
-1.27252e-06
2.0494e-06
-1.72837e-06
2.65968e-06
-1.91363e-06
3.09487e-06
-1.91856e-06
3.38399e-06
-1.82661e-06
3.57139e-06
-1.69452e-06
3.69968e-06
-1.55396e-06
3.80241e-06
-1.42043e-06
3.90172e-06
-1.29822e-06
4.01136e-06
-1.18823e-06
4.13728e-06
-1.0869e-06
4.27902e-06
-9.88693e-07
4.43356e-06
-8.90454e-07
4.59646e-06
-7.89503e-07
4.76101e-06
-6.81731e-07
4.91796e-06
-5.62948e-07
5.05713e-06
-4.30514e-07
5.1695e-06
-2.84819e-07
5.2482e-06
-1.30533e-07
5.29398e-06
2.99306e-08
5.30406e-06
1.95611e-07
5.27364e-06
3.62334e-07
5.20096e-06
5.23233e-07
5.08764e-06
6.7267e-07
4.93598e-06
8.07969e-07
4.75515e-06
9.16116e-07
4.55334e-06
9.95532e-07
4.3479e-06
1.05585e-06
4.1325e-06
1.09956e-06
3.89567e-06
1.1135e-06
3.64757e-06
1.08226e-06
3.40794e-06
1.00371e-06
3.22451e-06
8.36882e-07
3.03916e-06
6.62347e-07
2.89157e-06
4.30923e-07
2.814e-06
1.23632e-07
2.69555e-06
4.89226e-09
2.35747e-06
2.45316e-07
1.64772e-06
6.91027e-07
7.6081e-07
1.11271e-06
-1.97821e-07
1.6782e-06
-1.50422e-06
2.48253e-06
-3.14284e-06
3.27001e-06
-4.50947e-06
3.80355e-06
-5.38661e-06
3.99193e-06
-5.9161e-06
3.87101e-06
-6.21646e-06
3.63691e-06
-6.51658e-06
3.38815e-06
-6.81959e-06
3.11406e-06
-7.19573e-06
2.82111e-06
-7.59068e-06
2.59202e-06
-7.97778e-06
2.33016e-06
-8.36473e-06
2.09054e-06
-8.73291e-06
1.86474e-06
-9.05927e-06
1.6288e-06
-9.34125e-06
1.39904e-06
-9.58238e-06
1.1795e-06
-9.76925e-06
9.67951e-07
-9.91111e-06
7.58245e-07
-1.00081e-05
5.64387e-07
-1.00587e-05
3.7933e-07
-1.00682e-05
2.04791e-07
-1.00365e-05
4.2898e-08
-9.96956e-06
-1.00489e-07
-9.86918e-06
-2.30624e-07
-9.73879e-06
-3.46116e-07
-9.58223e-06
-4.46289e-07
-9.4037e-06
-5.31121e-07
-9.20768e-06
-6.01214e-07
-8.99869e-06
-6.57569e-07
-8.78099e-06
-7.01575e-07
-8.55827e-06
-7.3496e-07
-8.33344e-06
-7.59716e-07
-8.10841e-06
-7.77989e-07
-7.88421e-06
-7.91891e-07
-7.66119e-06
-8.03313e-07
-7.43937e-06
-8.13768e-07
-7.21875e-06
-8.24374e-07
-6.9993e-06
-8.35965e-07
-6.78073e-06
-8.49236e-07
-6.56224e-06
-8.64819e-07
-6.34248e-06
-8.83283e-07
-6.11974e-06
-9.0514e-07
-5.89223e-06
-9.30948e-07
-5.65821e-06
-9.61514e-07
-5.41585e-06
-9.97891e-07
-5.16292e-06
-1.04078e-06
-4.89691e-06
-1.08941e-06
-4.61547e-06
-1.14086e-06
-4.31709e-06
-1.19098e-06
-4.00129e-06
-1.23702e-06
-3.66856e-06
-1.28017e-06
-3.31986e-06
-1.32448e-06
-2.95672e-06
-1.37112e-06
-2.58002e-06
-1.41694e-06
-2.1853e-06
-1.46129e-06
-1.77352e-06
-1.49901e-06
-1.34793e-06
-1.54509e-06
-9.04241e-07
-1.6214e-06
-4.20572e-07
-1.72305e-06
1.22794e-07
-1.79058e-06
6.32631e-07
-1.69666e-06
9.63429e-07
-1.58863e-06
1.15949e-06
-1.61512e-06
1.36766e-06
-1.92246e-06
1.77195e-06
-2.61041e-06
2.35822e-06
-2.94479e-06
2.94171e-06
-2.25156e-06
3.41219e-06
-8.01998e-07
3.59578e-06
5.18192e-07
3.15639e-06
1.22235e-06
2.03569e-06
2.04091e-06
7.44884e-07
3.07989e-06
-1.09058e-07
3.37713e-06
-5.90072e-07
2.99972e-06
-9.64621e-07
2.61593e-06
-1.36986e-06
2.39265e-06
-1.85558e-06
2.31587e-06
-2.42244e-06
2.32376e-06
-3.03125e-06
2.33099e-06
-3.62376e-06
2.26995e-06
-4.15944e-06
2.13053e-06
-4.62914e-06
1.94425e-06