/*--------------------------------*- C++ -*----------------------------------*\
  =========                 |
  \\      /  F ield         | OpenFOAM: The Open Source CFD Toolbox
   \\    /   O peration     | Website:  https://openfoam.org
    \\  /    A nd           | Version:  9
     \\/     M anipulation  |
\*---------------------------------------------------------------------------*/
FoamFile
{
    format      ascii;
    class       volScalarField;
    location    "0.097";
    object      pMean;
}
// * * * * * * * * * * * * * * * * * * * * * * * * * * * * * * * * * * * * * //

dimensions      [0 2 -2 0 0 0 0];

internalField   nonuniform List<scalar> 
12225
(
0.359097
-0.198386
-0.501795
-0.621473
-0.674139
-0.710949
-0.741587
-0.762219
-0.768483
-0.757657
-0.729407
-0.681855
-0.616018
-0.528443
-0.426645
-0.313206
-0.225856
-0.221851
0.134009
-0.22796
-0.504677
-0.631639
-0.685687
-0.720997
-0.750915
-0.771817
-0.778961
-0.769388
-0.74305
-0.69819
-0.636579
-0.554843
-0.46275
-0.361141
-0.295652
-0.328702
0.0778292
-0.232902
-0.497678
-0.635001
-0.69412
-0.729206
-0.758697
-0.780491
-0.789303
-0.782314
-0.75917
-0.720034
-0.665529
-0.597668
-0.521629
-0.452942
-0.421087
-0.486128
-0.061163
-0.282065
-0.509521
-0.647578
-0.710713
-0.745006
-0.772968
-0.79485
-0.805425
-0.801237
-0.782347
-0.7491
-0.703814
-0.649244
-0.593166
-0.55053
-0.545369
-0.609687
-0.141508
-0.316058
-0.514334
-0.651621
-0.721346
-0.757894
-0.785423
-0.807715
-0.82034
-0.819895
-0.806027
-0.78008
-0.744685
-0.70403
-0.66614
-0.643927
-0.654069
-0.712183
-0.243612
-0.371123
-0.536668
-0.666504
-0.740047
-0.778879
-0.806064
-0.828368
-0.842778
-0.845864
-0.837205
-0.818558
-0.793106
-0.76567
-0.743544
-0.736795
-0.756608
-0.812129
-0.317938
-0.421267
-0.558417
-0.677537
-0.753718
-0.796395
-0.824611
-0.847553
-0.864404
-0.872036
-0.869735
-0.859295
-0.844226
-0.829342
-0.820967
-0.826702
-0.854388
-0.909996
-0.402634
-0.478806
-0.591798
-0.699176
-0.774897
-0.820598
-0.850556
-0.87424
-0.892924
-0.904571
-0.908446
-0.906117
-0.90097
-0.897465
-0.900978
-0.917227
-0.951868
-1.00847
-0.48969
-0.535263
-0.62382
-0.719982
-0.794634
-0.84346
-0.876216
-0.901983
-0.923455
-0.939702
-0.950111
-0.956064
-0.960626
-0.96776
-0.981937
-1.0075
-1.04842
-1.10689
-0.555862
-0.597444
-0.670098
-0.750879
-0.820385
-0.871271
-0.907138
-0.935184
-0.959409
-0.980109
-0.997017
-1.0111
-1.02494
-1.0419
-1.06573
-1.09968
-1.14645
-1.20732
-0.591366
-0.647885
-0.7149
-0.784813
-0.849316
-0.900708
-0.939583
-0.971123
-0.999142
-1.02473
-1.04798
-1.06987
-1.09248
-1.11857
-1.15104
-1.19232
-1.24442
-1.30815
-0.705787
-0.712218
-0.75427
-0.817376
-0.879661
-0.931386
-0.972702
-1.00756
-1.03927
-1.06937
-1.09851
-1.12742
-1.1577
-1.1916
-1.23146
-1.27927
-1.33627
-1.40306
-0.767746
-0.763238
-0.800225
-0.857776
-0.915644
-0.9662
-1.00932
-1.04742
-1.08305
-1.11775
-1.15239
-1.18784
-1.22533
-1.26653
-1.31322
-1.36679
-1.42837
-1.49833
-0.789285
-0.818135
-0.855577
-0.901676
-0.952938
-1.00418
-1.05152
-1.09452
-1.13509
-1.17529
-1.21639
-1.25913
-1.30441
-1.35338
-1.40736
-1.46745
-1.53437
-1.60837
-0.866664
-0.890112
-0.921093
-0.960487
-1.00755
-1.05764
-1.10665
-1.15356
-1.19938
-1.24568
-1.29365
-1.34401
-1.39736
-1.45442
-1.51602
-1.58283
-1.65532
-1.73361
-0.993736
-0.976361
-0.982924
-1.01612
-1.06495
-1.11864
-1.1716
-1.22322
-1.27486
-1.32799
-1.38361
-1.44212
-1.5038
-1.56905
-1.6384
-1.71226
-1.79094
-1.87451
-1.08192
-1.05471
-1.05541
-1.08755
-1.13751
-1.19225
-1.24736
-1.30328
-1.36128
-1.42209
-1.48596
-1.5529
-1.62305
-1.6966
-1.77385
-1.8549
-1.93998
-2.0289
-1.12857
-1.11839
-1.12987
-1.16268
-1.21012
-1.26668
-1.32794
-1.39173
-1.45782
-1.5266
-1.59845
-1.67352
-1.75185
-1.83342
-1.91828
-2.00638
-2.09769
-2.1921
-1.0953
-1.13243
-1.17963
-1.23
-1.28512
-1.34636
-1.41304
-1.48403
-1.55849
-1.63606
-1.71666
-1.80032
-1.88696
-1.97644
-2.06864
-2.16344
-2.26073
-2.36042
-1.19301
-1.19891
-1.22489
-1.27165
-1.33328
-1.40327
-1.47765
-1.55482
-1.63467
-1.71761
-1.80387
-1.89331
-1.98556
-2.08025
-2.17718
-2.27619
-2.37713
-2.47973
-1.19713
-1.19659
-1.22681
-1.28548
-1.35912
-1.43687
-1.5159
-1.59722
-1.68181
-1.76983
-1.86101
-1.95483
-2.05092
-2.14902
-2.24896
-2.35055
-2.45368
-2.5582
-1.17936
-1.18274
-1.21923
-1.28552
-1.36691
-1.4518
-1.53622
-1.62136
-1.7093
-1.80074
-1.89527
-1.99222
-2.09108
-2.19157
-2.2936
-2.39703
-2.50171
-2.60728
-1.08326
-1.14039
-1.21361
-1.29378
-1.37837
-1.46474
-1.55172
-1.64043
-1.73208
-1.82678
-1.92402
-2.02318
-2.12385
-2.22588
-2.32917
-2.43361
-2.53902
-2.64529
-1.01059
-1.07864
-1.17321
-1.27407
-1.37088
-1.46213
-1.55132
-1.64252
-1.73734
-1.83521
-1.93493
-2.03592
-2.1381
-2.24149
-2.34602
-2.45149
-2.5577
-2.66426
-1.05607
-1.07697
-1.16225
-1.27575
-1.3815
-1.47355
-1.56165
-1.65352
-1.75034
-1.85004
-1.95097
-2.05274
-2.15552
-2.2594
-2.36433
-2.47006
-2.57635
-2.68304
-0.869371
-0.988108
-1.13048
-1.26102
-1.36889
-1.46167
-1.5522
-1.64739
-1.74714
-1.84896
-1.95137
-2.05423
-2.15794
-2.26268
-2.36834
-2.47467
-2.58145
-2.68844
-0.803208
-0.970566
-1.13851
-1.27188
-1.37415
-1.4638
-1.55515
-1.65238
-1.7535
-1.85579
-1.95831
-2.06134
-2.16531
-2.27028
-2.37606
-2.48238
-2.58901
-2.69562
-0.736017
-0.906984
-1.1092
-1.26054
-1.3641
-1.45339
-1.54702
-1.64692
-1.74961
-1.85272
-1.95584
-2.05945
-2.16394
-2.26928
-2.37528
-2.48171
-2.58844
-2.69546
-0.720033
-0.912332
-1.12127
-1.26507
-1.36347
-1.45274
-1.54769
-1.64827
-1.7511
-1.85422
-1.95746
-2.06127
-2.166
-2.27153
-2.37771
-2.48407
-2.59059
-2.69682
-0.456907
-0.873009
-1.12615
-1.25962
-1.35443
-1.4461
-1.54313
-1.64452
-1.74768
-1.85109
-1.95465
-2.05873
-2.16367
-2.26932
-2.37556
-2.48181
-2.58808
-2.69332
-5.19785
-5.36263
-5.5354
-5.60159
-5.5216
-5.33865
-5.15507
-5.07952
-5.17519
-5.44513
-5.85809
-6.35939
-6.90713
-7.43828
-7.9248
-8.35284
-8.71414
-8.9986
-9.20019
-9.32362
-9.38529
-9.39219
-9.35776
-9.30047
-9.24514
-9.21999
-9.25548
-9.35147
-9.47813
-9.60814
-9.74119
-9.89757
-10.0906
-10.3001
-10.4998
-10.684
-10.8591
-11.0971
-11.4557
-11.8944
-12.3211
-12.7102
-13.1122
-13.5957
-14.2246
-14.9432
-15.6683
-16.3724
-16.9674
-17.426
-17.8662
-18.284
-18.6705
-19.0105
-19.2742
-19.4209
-19.4199
-19.3579
-19.2834
-19.1889
-19.0414
-18.8395
-18.496
-18.0737
-17.6862
-17.3762
-17.1145
-16.888
-16.6766
-16.4762
-16.2911
-16.146
-16.0754
-16.119
-16.2757
-16.481
-16.6412
-16.6757
-16.5135
-16.1786
-15.7682
-15.3989
-15.0471
-14.6335
-14.1404
-13.6442
-13.0965
-12.5068
-11.9616
-11.6909
-11.6991
-11.7942
-11.8383
-11.7668
-11.5526
-11.1941
-10.6974
-10.07
-9.30326
-8.36787
-7.20933
-5.80126
-4.15822
-2.39145
-0.673371
0.860687
2.4234
3.75954
4.45042
4.56566
4.26717
3.6645
2.91908
2.19043
1.61848
1.31203
1.3437
1.7498
2.54045
3.70006
5.18526
6.92871
8.84498
10.8397
12.8219
14.7164
16.4711
18.0552
19.4519
20.6524
21.6523
22.4499
23.0472
23.4526
23.6824
23.7612
23.716
23.5713
23.3514
23.0759
22.7609
22.4197
22.0631
21.7002
21.339
20.9866
20.6495
20.332
20.0381
19.7704
19.5312
19.3218
19.1425
18.9927
18.8699
18.769
18.6833
18.6044
18.5242
18.4397
18.3566
18.2903
18.2496
18.2205
18.1959
18.1779
18.1528
18.1136
18.0574
17.9909
17.9167
17.8256
17.7607
17.7679
17.8168
17.9136
18.0953
18.3337
18.6122
18.8606
-5.91095
-6.0674
-6.23051
-6.33186
-6.27823
-6.14741
-6.03297
-6.02816
-6.17907
-6.48016
-6.89237
-7.3608
-7.84336
-8.29989
-8.71226
-9.07553
-9.38047
-9.62195
-9.79896
-9.92438
-9.98966
-10.007
-10.0029
-9.98112
-9.94629
-9.93813
-9.96078
-10.0283
-10.1184
-10.231
-10.4154
-10.6514
-10.91
-11.1713
-11.4248
-11.6744
-11.9202
-12.1982
-12.5581
-13.0214
-13.5077
-13.9427
-14.3612
-14.8151
-15.3932
-16.0501
-16.7471
-17.4794
-18.1162
-18.6796
-19.1982
-19.6555
-20.0447
-20.3399
-20.5244
-20.6244
-20.6035
-20.5
-20.3678
-20.1979
-19.96
-19.7086
-19.4106
-19.0516
-18.7381
-18.4774
-18.2561
-18.0573
-17.8639
-17.6687
-17.4757
-17.3212
-17.2443
-17.2721
-17.3987
-17.5689
-17.711
-17.7317
-17.5434
-17.1513
-16.6318
-16.1299
-15.6876
-15.2232
-14.6807
-14.1413
-13.6577
-13.2158
-12.8294
-12.6276
-12.6047
-12.6134
-12.5647
-12.403
-12.112
-11.6932
-11.1537
-10.5013
-9.72926
-8.80792
-7.67228
-6.28239
-4.62781
-2.82377
-0.987545
0.529778
1.8668
2.93417
3.44021
3.4955
3.19331
2.64739
1.99324
1.37066
0.900141
0.682892
0.789974
1.25897
2.09872
3.2953
4.8117
6.58532
8.5325
10.5586
12.57
14.4894
16.2634
17.8619
19.2702
20.4817
21.4929
22.3025
22.9122
23.3296
23.5688
23.6574
23.6209
23.4848
23.2727
23.0041
22.695
22.3585
22.0055
21.645
21.2851
20.9331
20.5951
20.276
19.9798
19.7093
19.4663
19.2522
19.0669
18.9094
18.7766
18.6635
18.5639
18.4715
18.382
18.2967
18.2245
18.1774
18.1495
18.113
18.072
18.042
18.0059
17.9576
17.8982
17.8369
17.7858
17.7286
17.6975
17.7111
17.7403
17.8322
18.031
18.2809
18.5644
18.7726
-5.7107
-5.78899
-5.98918
-6.25793
-6.51886
-6.754
-6.99407
-7.27833
-7.62992
-8.03918
-8.46894
-8.87842
-9.26812
-9.64377
-9.96993
-10.2415
-10.4633
-10.633
-10.7603
-10.8592
-10.9292
-10.9694
-10.9876
-10.9932
-10.9887
-10.9938
-11.0073
-11.0345
-11.0915
-11.1869
-11.3349
-11.5329
-11.7729
-12.044
-12.3353
-12.6334
-12.9732
-13.3959
-13.8883
-14.428
-14.9537
-15.4292
-15.8511
-16.3211
-16.9033
-17.5601
-18.2747
-19.0365
-19.7674
-20.4362
-21.0246
-21.5037
-21.8586
-22.094
-22.2323
-22.2718
-22.2183
-22.0818
-21.8696
-21.6004
-21.3088
-21.0238
-20.7716
-20.5392
-20.3374
-20.1618
-20.0026
-19.8435
-19.6674
-19.466
-19.2513
-19.0712
-18.9674
-18.953
-19.0102
-19.0924
-19.1383
-19.0621
-18.7865
-18.3332
-17.7361
-17.0952
-16.5404
-16.0038
-15.4488
-14.946
-14.5819
-14.317
-14.1226
-13.9888
-13.8884
-13.7674
-13.5873
-13.3155
-12.939
-12.4557
-11.8706
-11.1908
-10.4142
-9.51098
-8.40398
-7.04292
-5.41575
-3.60934
-1.8222
-0.347008
0.76772
1.50754
1.84998
1.85775
1.58266
1.13156
0.613823
0.135929
-0.206625
-0.318564
-0.128245
0.404378
1.29578
2.53924
4.10195
5.92491
7.92628
10.009
12.0747
14.0405
15.8507
17.4761
18.9056
20.1365
21.1682
21.9999
22.6323
23.0708
23.3306
23.4392
23.4218
23.3042
23.1092
22.8561
22.5602
22.2343
21.8892
21.5343
21.1778
20.8274
20.4896
20.1695
19.8714
19.5982
19.3518
19.1328
18.9418
18.7776
18.6375
18.5171
18.411
18.3139
18.2225
18.1379
18.0646
18.008
17.9669
17.9353
17.9102
17.8839
17.8446
17.795
17.743
17.6938
17.6519
17.6108
17.5876
17.6005
17.6513
17.7558
17.9504
18.1912
18.4689
18.6615
-5.67128
-5.75631
-6.04334
-6.48154
-7.00719
-7.56122
-8.10481
-8.63191
-9.13929
-9.61594
-10.0467
-10.4203
-10.739
-11.0002
-11.2022
-11.3744
-11.5288
-11.6559
-11.7692
-11.87
-11.9583
-12.0327
-12.0934
-12.1446
-12.1927
-12.2348
-12.273
-12.3047
-12.3336
-12.3683
-12.4249
-12.5222
-12.6754
-12.888
-13.1586
-13.4985
-13.9398
-14.5019
-15.152
-15.8206
-16.4508
-17.027
-17.5423
-18.079
-18.7086
-19.4287
-20.2078
-21.0018
-21.7575
-22.4423
-23.0282
-23.5034
-23.8601
-24.1044
-24.2499
-24.2855
-24.2061
-24.0151
-23.7321
-23.3961
-23.0671
-22.7979
-22.5883
-22.4163
-22.2746
-22.1542
-22.0413
-21.9165
-21.7572
-21.551
-21.3139
-21.0937
-20.9332
-20.8393
-20.7965
-20.7798
-20.719
-20.523
-20.1392
-19.6026
-18.912
-18.1651
-17.5263
-16.988
-16.489
-16.0842
-15.8203
-15.6664
-15.5462
-15.4242
-15.2786
-15.0833
-14.8192
-14.4667
-14.0183
-13.475
-12.844
-12.135
-11.3512
-10.4632
-9.37871
-8.03014
-6.42309
-4.66536
-3.00855
-1.68469
-0.779044
-0.237077
-0.0269527
-0.088882
-0.347784
-0.71161
-1.10165
-1.44146
-1.65551
-1.65805
-1.37948
-0.776276
0.1724
1.46706
3.08268
4.96643
7.03823
9.19776
11.3395
13.3726
15.2367
16.9028
18.3645
19.625
20.6871
21.5505
22.2148
22.6837
22.9738
23.1113
23.122
23.0316
22.8621
22.6316
22.3551
22.0448
21.7116
21.3652
21.0143
20.6672
20.3308
20.0108
19.711
19.4345
19.1839
18.9604
18.7641
18.5939
18.4473
18.3207
18.2098
18.1105
18.02
17.9384
17.8677
17.81
17.7656
17.7289
17.6945
17.6604
17.6255
17.584
17.5396
17.5008
17.4755
17.4574
17.4543
17.4824
17.5467
17.6566
17.8529
18.0946
18.3611
18.5345
-5.86449
-6.07494
-6.55358
-7.20077
-7.92108
-8.6466
-9.33765
-9.976
-10.5499
-11.055
-11.4901
-11.8477
-12.1255
-12.3303
-12.4819
-12.6087
-12.725
-12.8342
-12.9435
-13.0575
-13.1702
-13.279
-13.3859
-13.4916
-13.5956
-13.6944
-13.7806
-13.8441
-13.879
-13.8855
-13.8761
-13.8781
-13.927
-14.0537
-14.2798
-14.6279
-15.1224
-15.7585
-16.4853
-17.2357
-17.9588
-18.6518
-19.3263
-20.016
-20.7537
-21.5525
-22.3946
-23.2399
-24.0492
-24.7873
-25.421
-25.9311
-26.306
-26.5534
-26.6852
-26.6935
-26.5728
-26.3301
-25.9953
-25.618
-25.2741
-24.9986
-24.7694
-24.5712
-24.4028
-24.2579
-24.1232
-23.978
-23.8006
-23.5753
-23.3104
-23.0404
-22.7914
-22.57
-22.3788
-22.2099
-22.0148
-21.7165
-21.2676
-20.6805
-19.9519
-19.1821
-18.5284
-18.035
-17.6543
-17.3805
-17.2103
-17.1039
-17.007
-16.8903
-16.7288
-16.5009
-16.1906
-15.7853
-15.282
-14.6872
-14.016
-13.2851
-12.5044
-11.6362
-10.5609
-9.19928
-7.60098
-5.93619
-4.44241
-3.30185
-2.55634
-2.15195
-2.06034
-2.19963
-2.46471
-2.7699
-3.05733
-3.27868
-3.37527
-3.27434
-2.91154
-2.24169
-1.23884
0.104888
1.7733
3.72231
5.87507
8.1274
10.3643
12.4844
14.4203
16.143
17.6505
18.9521
20.0546
20.9589
21.6627
22.1703
22.4984
22.6727
22.72
22.6651
22.5287
22.3277
22.0759
21.7854
21.467
21.1312
20.7876
20.4451
20.111
19.791
19.4903
19.2122
18.9589
18.7315
18.5303
18.3546
18.2023
18.0708
17.9563
17.8555
17.7658
17.6865
17.6185
17.5625
17.5189
17.4839
17.4504
17.4174
17.3848
17.3485
17.3103
17.2771
17.2613
17.2629
17.2843
17.338
17.4284
17.5564
17.7544
17.9864
18.2316
18.3925
-6.38403
-6.7607
-7.42342
-8.17574
-8.96777
-9.73975
-10.4541
-11.1209
-11.7326
-12.2809
-12.7593
-13.157
-13.4685
-13.6966
-13.8602
-13.9953
-14.1227
-14.2482
-14.3789
-14.5227
-14.6735
-14.8291
-14.9876
-15.1464
-15.3017
-15.4471
-15.5721
-15.6654
-15.7182
-15.7284
-15.7052
-15.6753
-15.68
-15.7668
-15.9736
-16.3356
-16.859
-17.5275
-18.2924
-19.1034
-19.9221
-20.7344
-21.5469
-22.3723
-23.2234
-24.108
-25.0141
-25.9127
-26.7701
-27.5512
-28.2252
-28.7715
-29.1697
-29.4144
-29.5151
-29.4753
-29.2991
-29.0008
-28.6127
-28.2006
-27.8329
-27.5067
-27.1971
-26.8975
-26.6145
-26.3491
-26.0985
-25.8533
-25.599
-25.319
-25.005
-24.6656
-24.3008
-23.9153
-23.5387
-23.1871
-22.8297
-22.4177
-21.9166
-21.3181
-20.6318
-19.9475
-19.3863
-19.0066
-18.7747
-18.6375
-18.5572
-18.4981
-18.4344
-18.3413
-18.1904
-17.96
-17.6336
-17.2004
-16.6614
-16.0285
-15.3259
-14.5819
-13.8127
-12.9665
-11.89
-10.513
-8.94491
-7.39995
-6.06863
-5.08276
-4.45084
-4.14901
-4.1556
-4.36327
-4.64842
-4.92334
-5.13952
-5.26743
-5.26326
-5.06954
-4.63096
-3.90341
-2.85514
-1.47194
0.241079
2.25085
4.48649
6.83971
9.18395
11.4046
13.4262
15.2182
16.7821
18.1334
19.2838
20.2355
20.9845
21.5365
21.9089
22.1275
22.2189
22.2068
22.1099
21.9434
21.7202
21.4521
21.1506
20.8268
20.4917
20.1545
19.8234
19.5053
19.2053
18.927
18.6724
18.443
18.2388
18.0592
17.9027
17.7669
17.6492
17.5469
17.4579
17.3811
17.3162
17.2637
17.2235
17.193
17.167
17.1433
17.1202
17.0949
17.0688
17.046
17.0371
17.0495
17.0904
17.1651
17.2765
17.4216
17.6209
17.8444
18.0743
18.2268
-7.35984
-7.78925
-8.45035
-9.1595
-9.89141
-10.6268
-11.3393
-12.0187
-12.6525
-13.2409
-13.7726
-14.2348
-14.6183
-14.9215
-15.1558
-15.3561
-15.5515
-15.7507
-15.9578
-16.1765
-16.4015
-16.6291
-16.8556
-17.0749
-17.2806
-17.4633
-17.6151
-17.7287
-17.8007
-17.8328
-17.834
-17.8271
-17.8508
-17.9567
-18.1928
-18.5947
-19.16
-19.8646
-20.674
-21.5518
-22.463
-23.388
-24.3203
-25.2589
-26.2055
-27.1592
-28.1115
-29.0433
-29.9258
-30.7312
-31.4339
-32.0093
-32.4184
-32.6386
-32.6817
-32.5676
-32.3145
-31.9413
-31.4888
-31.0278
-30.5991
-30.1715
-29.7256
-29.2681
-28.8126
-28.3658
-27.9328
-27.5156
-27.1088
-26.7016
-26.2815
-25.8318
-25.3342
-24.7868
-24.2246
-23.6844
-23.1701
-22.6589
-22.1262
-21.5575
-20.9702
-20.4401
-20.0518
-19.8363
-19.7621
-19.7579
-19.769
-19.7739
-19.7623
-19.7113
-19.5932
-19.3857
-19.069
-18.6319
-18.0768
-17.4202
-16.6949
-15.9417
-15.1835
-14.3523
-13.2746
-11.9127
-10.4231
-9.01438
-7.82847
-6.95303
-6.39451
-6.16246
-6.2378
-6.49907
-6.81511
-7.08281
-7.254
-7.31003
-7.22284
-6.9489
-6.44299
-5.66311
-4.5781
-3.16699
-1.42311
0.633896
2.94165
5.38936
7.8392
10.1629
12.2753
14.1426
15.7684
17.1746
18.3789
19.382
20.1812
20.7829
21.2054
21.4749
21.6174
21.6543
21.602
21.4737
21.2814
21.0371
20.7535
20.4427
20.1167
19.786
19.46
19.1458
18.8488
18.5727
18.3198
18.0911
17.8865
17.7056
17.5469
17.4089
17.2895
17.1868
17.0993
17.0256
16.9651
16.9176
16.8825
16.8586
16.8427
16.8327
16.8268
16.822
16.8168
16.8119
16.8147
16.8362
16.8865
16.9737
17.0991
17.2564
17.4555
17.6714
17.888
18.0328
-8.32558
-8.69705
-9.22202
-9.84151
-10.5176
-11.2088
-11.9007
-12.5839
-13.2508
-13.8932
-14.4976
-15.0502
-15.5394
-15.9615
-16.3223
-16.6494
-16.9706
-17.2902
-17.6099
-17.9306
-18.2484
-18.5583
-18.8549
-19.1316
-19.3793
-19.5912
-19.7628
-19.8944
-19.9907
-20.0592
-20.1112
-20.1675
-20.2629
-20.4473
-20.7664
-21.2442
-21.8768
-22.6433
-23.519
-24.4739
-25.4747
-26.4991
-27.5302
-28.5554
-29.5678
-30.5651
-31.5448
-32.4952
-33.3912
-34.2116
-34.9322
-35.5164
-35.9124
-36.0924
-36.0716
-35.8841
-35.554
-35.1018
-34.5712
-34.032
-33.4941
-32.9122
-32.2823
-31.628
-30.964
-30.3031
-29.6585
-29.0372
-28.437
-27.8483
-27.2576
-26.644
-25.9852
-25.2769
-24.5532
-23.859
-23.2207
-22.6355
-22.0912
-21.5817
-21.1272
-20.7764
-20.5821
-20.5413
-20.6129
-20.7197
-20.8116
-20.8819
-20.9278
-20.9278
-20.8579
-20.6938
-20.4085
-19.9872
-19.4316
-18.7633
-18.0226
-17.2596
-16.5049
-15.6815
-14.6217
-13.3215
-11.9572
-10.6971
-9.6341
-8.83232
-8.31647
-8.1255
-8.24228
-8.54831
-8.90215
-9.17613
-9.31833
-9.319
-9.16289
-8.81636
-8.24381
-7.41513
-6.30102
-4.87399
-3.11641
-1.03377
1.32209
3.84211
6.38044
8.7974
10.9964
12.9377
14.6266
16.0927
17.3536
18.4112
19.2635
19.9182
20.3954
20.7214
20.9203
21.0107
21.0061
20.9178
20.7573
20.5373
20.2718
19.9743
19.6586
19.3364
19.0176
18.71
18.4189
18.1483
17.9002
17.6754
17.4737
17.2944
17.1366
16.9988
16.8799
16.7787
16.6943
16.6252
16.5704
16.5289
16.5002
16.4836
16.478
16.4822
16.4954
16.5155
16.5395
16.5641
16.5909
16.6278
16.6866
16.778
16.9085
17.0697
17.2647
17.4716
17.6758
17.8136
-8.8507
-9.14024
-9.56562
-10.105
-10.7289
-11.4003
-12.0945
-12.7985
-13.5086
-14.2169
-14.9091
-15.5712
-16.1895
-16.758
-17.2747
-17.7591
-18.2346
-18.7017
-19.1572
-19.5984
-20.0223
-20.4249
-20.8009
-21.1421
-21.4398
-21.6892
-21.8927
-22.0594
-22.2015
-22.3324
-22.4657
-22.6225
-22.8314
-23.1346
-23.5702
-24.1519
-24.8738
-25.7184
-26.6671
-27.6923
-28.7642
-29.8588
-30.9533
-32.0309
-33.0821
-34.1054
-35.1066
-36.0786
-36.9971
-37.8418
-38.5826
-39.1727
-39.5577
-39.7115
-39.6494
-39.4043
-39.0003
-38.4609
-37.8305
-37.1727
-36.4708
-35.6808
-34.8272
-33.9498
-33.0615
-32.1773
-31.3112
-30.4679
-29.6448
-28.8345
-28.029
-27.2152
-26.3795
-25.5223
-24.6715
-23.8718
-23.1583
-22.5428
-22.0207
-21.5892
-21.2657
-21.0803
-21.0563
-21.1694
-21.3578
-21.5458
-21.6959
-21.8177
-21.9144
-21.9655
-21.9521
-21.844
-21.603
-21.2086
-20.6615
-19.9891
-19.2386
-18.4646
-17.7053
-16.8907
-15.876
-14.6794
-13.4664
-12.3544
-11.392
-10.6389
-10.1472
-9.9813
-10.127
-10.4733
-10.8654
-11.1484
-11.2675
-11.2213
-11.0033
-10.5871
-9.94935
-9.07608
-7.94106
-6.50953
-4.75376
-2.66717
-0.290639
2.27177
4.87053
7.35832
9.62891
11.6358
13.3856
14.9096
16.2262
17.3373
18.2424
18.9512
19.4858
19.8716
20.1299
20.2757
20.3196
20.2715
20.1427
19.947
19.6998
19.4169
19.1132
18.8014
18.4927
18.1947
17.9132
17.6514
17.4112
17.1933
16.9974
16.8229
16.6692
16.5353
16.4207
16.3248
16.2463
16.1838
16.1358
16.1013
16.0796
16.071
16.0755
16.0933
16.1249
16.1696
16.2247
16.2855
16.3482
16.4135
16.4895
16.5884
16.7191
16.878
17.0638
17.2565
17.4449
17.5749
-8.89548
-9.12266
-9.49129
-9.99145
-10.593
-11.2615
-11.9714
-12.7119
-13.4804
-14.2694
-15.0633
-15.8462
-16.6028
-17.3237
-18.0037
-18.6551
-19.29
-19.9065
-20.5002
-21.0683
-21.609
-22.1178
-22.5889
-23.0131
-23.3842
-23.7022
-23.9754
-24.219
-24.4491
-24.6812
-24.9294
-25.2143
-25.5645
-26.0104
-26.5752
-27.2657
-28.0774
-28.9959
-30.0081
-31.0884
-32.2121
-33.3547
-34.4938
-35.6134
-36.7054
-37.7704
-38.8175
-39.832
-40.7865
-41.6611
-42.4236
-43.0184
-43.3893
-43.5131
-43.4078
-43.1016
-42.6135
-41.9683
-41.2107
-40.3931
-39.4845
-38.4562
-37.3561
-36.2348
-35.1065
-33.9871
-32.8912
-31.8208
-30.7694
-29.7286
-28.6965
-27.6742
-26.6646
-25.6771
-24.736
-23.8779
-23.137
-22.5314
-22.0604
-21.7172
-21.509
-21.4516
-21.5521
-21.7762
-22.0459
-22.2822
-22.464
-22.6188
-22.7534
-22.8468
-22.8867
-22.8349
-22.6396
-22.275
-21.7407
-21.068
-20.3093
-19.5225
-18.7535
-17.9508
-17.0028
-15.9333
-14.8782
-13.9009
-13.017
-12.2973
-11.8244
-11.6804
-11.8512
-12.2306
-12.6531
-12.9461
-13.0451
-12.9557
-12.6827
-12.2054
-11.5111
-10.6008
-9.45255
-8.02426
-6.27908
-4.20133
-1.82321
0.7538
3.38002
5.90694
8.22404
10.2798
12.0796
13.6535
15.019
16.1779
17.1315
17.8927
18.4843
18.9299
19.2469
19.4466
19.5374
19.5287
19.4318
19.2615
19.0346
18.7683
18.4789
18.1808
17.885
17.5994
17.3294
17.0781
16.8476
16.6385
16.4512
16.2854
16.1404
16.016
15.9114
15.8253
15.7561
15.7025
15.6631
15.6367
15.6231
15.6231
15.6377
15.668
15.7158
15.7821
15.8659
15.9629
16.0669
16.1726
16.2806
16.3979
16.5347
16.6896
16.8636
17.0391
17.2082
17.3256
-8.58458
-8.78145
-9.12684
-9.61486
-10.2208
-10.9154
-11.6745
-12.4839
-13.3366
-14.2228
-15.1275
-16.0336
-16.9255
-17.7917
-18.626
-19.4351
-20.2225
-20.9833
-21.7106
-22.4024
-23.0585
-23.6761
-24.2502
-24.7732
-25.2408
-25.6556
-26.0293
-26.3801
-26.7245
-27.0773
-27.4544
-27.875
-28.3615
-28.9355
-29.6137
-30.4004
-31.2931
-32.284
-33.3633
-34.5091
-35.6976
-36.9035
-38.1063
-39.292
-40.4532
-41.5889
-42.7039
-43.7728
-44.7683
-45.6708
-46.4414
-47.0204
-47.3556
-47.4286
-47.2587
-46.8717
-46.2814
-45.5088
-44.5984
-43.5961
-42.4685
-41.1997
-39.8469
-38.4695
-37.0885
-35.7214
-34.3887
-33.0921
-31.8224
-30.5699
-29.3334
-28.1225
-26.9576
-25.8623
-24.8638
-23.9889
-23.2616
-22.6946
-22.2848
-22.0211
-21.9042
-21.9401
-22.1274
-22.4218
-22.7358
-22.985
-23.1664
-23.3296
-23.4836
-23.6035
-23.6829
-23.6748
-23.5153
-23.1753
-22.6523
-21.9826
-21.2192
-20.4217
-19.6415
-18.8507
-17.9748
-17.0293
-16.1164
-15.2507
-14.4314
-13.7433
-13.2947
-13.1779
-13.3727
-13.7761
-14.2211
-14.5213
-14.6051
-14.4811
-14.1667
-13.6442
-12.9067
-11.9672
-10.8101
-9.38735
-7.65333
-5.58682
-3.21888
-0.651513
1.97003
4.50246
6.83581
8.91679
10.7489
12.3586
13.7607
14.9567
15.9505
16.7577
17.4013
17.9015
18.2715
18.5196
18.6536
18.6825
18.6186
18.4766
18.2735
18.0278
17.7569
17.4754
17.1944
16.9219
16.6635
16.423
16.2029
16.0045
15.8288
15.6763
15.5462
15.4377
15.3487
15.2771
15.2212
15.1798
15.1515
15.1356
15.1317
15.1409
15.1648
15.206
15.2677
15.3527
15.4618
15.592
15.7371
15.8887
16.0405
16.1911
16.346
16.5053
16.67
16.8283
16.9764
17.0773
-8.15044
-8.33376
-8.67837
-9.18106
-9.82316
-10.5776
-11.4183
-12.3249
-13.2844
-14.2834
-15.3054
-16.334
-17.3538
-18.353
-19.3247
-20.2687
-21.1815
-22.0576
-22.8933
-23.6899
-24.4486
-25.1652
-25.8343
-26.4498
-27.0084
-27.5136
-27.9788
-28.4224
-28.8621
-29.3159
-29.8031
-30.3436
-30.9554
-31.6503
-32.4374
-33.3207
-34.2976
-35.3684
-36.523
-37.7416
-38.9988
-40.2692
-41.5352
-42.7868
-44.0175
-45.2184
-46.3822
-47.4849
-48.5073
-49.4352
-50.2247
-50.8099
-51.1374
-51.186
-50.965
-50.4973
-49.8007
-48.8959
-47.8263
-46.6368
-45.2949
-43.7942
-42.1971
-40.5664
-38.9365
-37.3284
-35.7618
-34.248
-32.7807
-31.3478
-29.9483
-28.5953
-27.3166
-26.1466
-25.1173
-24.2498
-23.5563
-23.038
-22.6882
-22.4925
-22.4452
-22.5466
-22.7884
-23.1164
-23.441
-23.679
-23.8394
-23.9879
-24.1377
-24.2655
-24.3587
-24.3687
-24.2277
-23.9027
-23.3915
-22.7311
-21.9725
-21.1693
-20.3725
-19.5808
-18.7546
-17.903
-17.1028
-16.3284
-15.5722
-14.9256
-14.5131
-14.4323
-14.6512
-15.0677
-15.5233
-15.8307
-15.9113
-15.7701
-15.429
-14.877
-14.1101
-13.1486
-11.9823
-10.5624
-8.8363
-6.78206
-4.43609
-1.89996
0.687932
3.19366
5.51198
7.5912
9.43308
11.0592
12.4807
13.6988
14.7205
15.5638
16.2497
16.7942
17.2066
17.4946
17.6662
17.7315
17.7021
17.592
17.4176
17.197
16.9477
16.684
16.4181
16.1587
15.912
15.6828
15.4748
15.2903
15.1309
14.9965
14.8864
14.7978
14.728
14.6747
14.6361
14.6109
14.5975
14.5945
14.6013
14.6191
14.6508
14.701
14.7749
14.8769
15.0093
15.1705
15.3546
15.5524
15.7537
15.9493
16.1368
16.3129
16.4786
16.6249
16.7534
16.8367
-7.75377
-7.93696
-8.29964
-8.84293
-9.55187
-10.3991
-11.3535
-12.3873
-13.4784
-14.6082
-15.7575
-16.9075
-18.0409
-19.145
-20.2131
-21.2433
-22.23
-23.1689
-24.0601
-24.9075
-25.7141
-26.4772
-27.1922
-27.8548
-28.4631
-29.0231
-29.5505
-30.0665
-30.5914
-31.1465
-31.7512
-32.4198
-33.1596
-33.9733
-34.8642
-35.8344
-36.8855
-38.0208
-39.232
-40.4992
-41.7974
-43.1055
-44.4116
-45.7095
-46.9946
-48.2486
-49.4484
-50.577
-51.6229
-52.5709
-53.3831
-53.9941
-54.3469
-54.4079
-54.1733
-53.6578
-52.8855
-51.8788
-50.6737
-49.3121
-47.775
-46.0699
-44.2594
-42.4018
-40.5444
-38.7198
-36.9483
-35.2463
-33.6121
-32.0371
-30.5231
-29.081
-27.74
-26.5394
-25.5115
-24.671
-24.0187
-23.5526
-23.2586
-23.1183
-23.1267
-23.2745
-23.5438
-23.8719
-24.1754
-24.3788
-24.4977
-24.6023
-24.7199
-24.8308
-24.913
-24.9195
-24.7853
-24.4725
-23.9774
-23.3339
-22.5848
-21.7741
-20.9463
-20.1276
-19.3115
-18.5131
-17.789
-17.0889
-16.4037
-15.8153
-15.4512
-15.4094
-15.6483
-16.0641
-16.5156
-16.8313
-16.9207
-16.7772
-16.421
-15.853
-15.0736
-14.0996
-12.9239
-11.5024
-9.78285
-7.74798
-5.43951
-2.95875
-0.433837
2.01345
4.28563
6.3346
8.16094
9.78079
11.2011
12.4243
13.4605
14.3278
15.0432
15.6182
16.0606
16.3788
16.5822
16.6812
16.6873
16.6126
16.4705
16.2774
16.0497
15.803
15.5511
15.3042
15.0698
14.8546
14.6633
14.4984
14.3603
14.2484
14.1604
14.0932
14.0444
14.0122
13.9947
13.9893
13.9932
14.0036
14.0199
14.0444
14.0823
14.1404
14.2261
14.3454
14.5016
14.6938
14.9166
15.1604
15.4126
15.6591
15.8902
16.0967
16.2767
16.4226
16.5386
16.6059
-7.44089
-7.63681
-8.03772
-8.64571
-9.44784
-10.412
-11.499
-12.6732
-13.9033
-15.1624
-16.4253
-17.6702
-18.878
-20.0356
-21.1382
-22.1849
-23.1726
-24.0998
-24.9692
-25.79
-26.5718
-27.3188
-28.0319
-28.7094
-29.3502
-29.9601
-30.5533
-31.1498
-31.7687
-32.4277
-33.1399
-33.9122
-34.7449
-35.637
-36.5912
-37.6107
-38.7027
-39.8728
-41.1155
-42.4117
-43.7386
-45.0785
-46.4229
-47.7637
-49.0954
-50.3973
-51.636
-52.7893
-53.8557
-54.8165
-55.6429
-56.2777
-56.6642
-56.7636
-56.5565
-56.0426
-55.2459
-54.1883
-52.9013
-51.4178
-49.7331
-47.8711
-45.8947
-43.8596
-41.8217
-39.8267
-37.8977
-36.0513
-34.2905
-32.6122
-31.025
-29.5443
-28.1949
-27.0089
-26.0132
-25.2186
-24.6181
-24.2026
-23.9572
-23.8685
-23.9225
-24.0967
-24.3609
-24.6543
-24.9107
-25.0666
-25.1289
-25.1663
-25.225
-25.2939
-25.343
-25.329
-25.1947
-24.8994
-24.4305
-23.8091
-23.0664
-22.2376
-21.3611
-20.4886
-19.6379
-18.854
-18.1701
-17.5323
-16.9258
-16.4079
-16.0991
-16.0884
-16.3335
-16.7294
-17.1578
-17.4731
-17.5759
-17.4409
-17.0853
-16.5187
-15.7418
-14.7659
-13.5849
-12.1612
-10.4534
-8.4519
-6.20255
-3.80431
-1.37422
0.981832
3.17686
5.1671
6.95117
8.54001
9.93778
11.149
12.1857
13.0632
13.7934
14.3847
14.8453
15.1849
15.4147
15.5457
15.5868
15.5476
15.4379
15.2708
15.0622
14.8298
14.5892
14.353
14.1321
13.9349
13.7661
13.6263
13.5144
13.4277
13.363
13.3185
13.2929
13.2845
13.2905
13.3062
13.3267
13.3483
13.371
13.3997
13.4426
13.509
13.608
13.7472
13.9303
14.1567
14.421
14.7121
15.0157
15.315
15.5954
15.8427
16.0501
16.2089
16.3239
16.3826
-7.12604
-7.34228
-7.7913
-8.47146
-9.37237
-10.4558
-11.6753
-12.9837
-14.3408
-15.7109
-17.0652
-18.3804
-19.6342
-20.8083
-21.8947
-22.8969
-23.8244
-24.6847
-25.4844
-26.2358
-26.954
-27.6508
-28.3339
-29.0027
-29.654
-30.2882
-30.9146
-31.5499
-32.2128
-32.9181
-33.6773
-34.4959
-35.3729
-36.3073
-37.3007
-38.3567
-39.4804
-40.6772
-41.9425
-43.2594
-44.6065
-45.9673
-47.3353
-48.7019
-50.0565
-51.3858
-52.6539
-53.832
-54.9155
-55.8938
-56.7428
-57.4122
-57.8469
-58.0036
-57.8538
-57.3873
-56.6185
-55.5742
-54.2792
-52.7503
-50.9905
-49.0435
-46.9784
-44.8458
-42.703
-40.6054
-38.583
-36.6527
-34.8195
-33.0857
-31.4713
-29.9932
-28.6721
-27.5341
-26.5986
-25.8665
-25.3239
-24.9635
-24.7695
-24.718
-24.793
-24.9658
-25.1871
-25.4064
-25.5893
-25.6828
-25.6795
-25.6415
-25.6251
-25.6311
-25.6313
-25.5861
-25.4487
-25.1793
-24.7497
-24.1565
-23.4127
-22.5476
-21.6077
-20.6639
-19.7539
-18.9581
-18.2819
-17.6921
-17.161
-16.7194
-16.4611
-16.4637
-16.6901
-17.0429
-17.4249
-17.7213
-17.8313
-17.7129
-17.372
-16.821
-16.0625
-15.1004
-13.9254
-12.509
-10.8244
-8.87455
-6.71053
-4.42515
-2.12074
0.112289
2.19965
4.1024
5.81677
7.34887
8.70257
9.88513
10.9081
11.7815
12.5124
13.1082
13.5781
13.9338
14.187
14.3471
14.4203
14.4129
14.3312
14.1855
13.9908
13.7664
13.5324
13.3056
13.0998
12.9239
12.7806
12.6682
12.5843
12.5246
12.4862
12.4678
12.4684
12.4856
12.5146
12.5488
12.5819
12.6102
12.6359
12.6671
12.7152
12.7916
12.9073
13.0708
13.2867
13.5537
13.8647
14.2069
14.5641
14.9172
15.249
15.5425
15.7871
15.9714
16.0983
16.1586
-6.60966
-6.85521
-7.35482
-8.10474
-9.10136
-10.3006
-11.6525
-13.1015
-14.5983
-16.0979
-17.5604
-18.951
-20.2389
-21.3995
-22.4264
-23.333
-24.1438
-24.8798
-25.5529
-26.1763
-26.7678
-27.3468
-27.9272
-28.513
-29.1003
-29.6886
-30.288
-30.9124
-31.5793
-32.3024
-33.0897
-33.9427
-34.8582
-35.8316
-36.8626
-37.9505
-39.0971
-40.3075
-41.5794
-42.8995
-44.2504
-45.6169
-46.9912
-48.3656
-49.7283
-51.0695
-52.3574
-53.5631
-54.6702
-55.6742
-56.5532
-57.2706
-57.7672
-57.9948
-57.9224
-57.5385
-56.8516
-55.884
-54.6569
-53.175
-51.4406
-49.5073
-47.4489
-45.3161
-43.1636
-41.0487
-39.007
-37.0602
-35.2156
-33.4799
-31.8768
-30.4304
-29.1599
-28.0861
-27.2259
-26.5723
-26.0994
-25.7939
-25.6418
-25.6233
-25.7049
-25.849
-26.0019
-26.1156
-26.1841
-26.1846
-26.1012
-25.9847
-25.8854
-25.814
-25.7542
-25.6737
-25.534
-25.2966
-24.9161
-24.356
-23.6079
-22.6958
-21.6841
-20.6625
-19.6939
-18.8678
-18.1773
-17.6162
-17.1462
-16.774
-16.5531
-16.5436
-16.7222
-17.0073
-17.3213
-17.5735
-17.6757
-17.5741
-17.2593
-16.74
-16.0178
-15.085
-13.9294
-12.5346
-10.8921
-9.01924
-6.97089
-4.82944
-2.68064
-0.600409
1.34938
3.13535
4.75165
6.20185
7.49192
8.63067
9.62587
10.4817
11.2021