# vtk DataFile Version 2.0
sampleSurface
ASCII
DATASET POLYDATA
POINTS 502 float
-0.0206 0 -0.0005 -0.0190172 0 -0.0005 -0.0190172 0 0.0005 -0.0206 0
0.0005 -0.0174976 0 -0.0005 -0.0174976 0 0.0005 -0.0160387 0 -0.0005
-0.0160387 0 0.0005 -0.0146381 0 -0.0005 -0.0146381 0 0.0005 -0.0132934
0 -0.0005 -0.0132934 0 0.0005 -0.0120025 0 -0.0005 -0.0120025 0
0.0005 -0.0107632 0 -0.0005 -0.0107632 0 0.0005 -0.00957337 0 -0.0005
-0.00957337 0 0.0005 -0.00843108 0 -0.0005 -0.00843108 0 0.0005 -0.00733443
0 -0.0005 -0.00733443 0 0.0005 -0.0062816 0 -0.0005 -0.0062816 0
0.0005 -0.00527083 0 -0.0005 -0.00527083 0 0.0005 -0.00430044 0 -0.0005
-0.00430044 0 0.0005 -0.00336883 0 -0.0005 -0.00336883 0 0.0005 -0.00247443
0 -0.0005 -0.00247443 0 0.0005 -0.00161577 0 -0.0005 -0.00161577 0
0.0005 -0.000791418 0 -0.0005 -0.000791418 0 0.0005 0 0 -0.0005
0 0 0.0005 0 -0.0254 -0.0005 0 -0.0254 0.0005 0
-0.0242711 0.0005 0 -0.0242711 -0.0005 0 -0.0231422 0.0005 0 -0.0231422
-0.0005 0 -0.0220133 0.0005 0 -0.0220133 -0.0005 0 -0.0208844 0.0005
0 -0.0208844 -0.0005 0 -0.0197556 0.0005 0 -0.0197556 -0.0005 0
-0.0186267 0.0005 0 -0.0186267 -0.0005 0 -0.0174978 0.0005 0 -0.0174978
-0.0005 0 -0.0163689 0.0005 0 -0.0163689 -0.0005 0 -0.01524 0.0005
0 -0.01524 -0.0005 0 -0.0141111 0.0005 0 -0.0141111 -0.0005 0
-0.0129822 0.0005 0 -0.0129822 -0.0005 0 -0.0118533 0.0005 0 -0.0118533
-0.0005 0 -0.0107244 0.0005 0 -0.0107244 -0.0005 0 -0.00959556 0.0005
0 -0.00959556 -0.0005 0 -0.00846667 0.0005 0 -0.00846667 -0.0005 0
-0.00726604 0.0005 0 -0.00726604 -0.0005 0 -0.00618989 0.0005 0 -0.00618989
-0.0005 0 -0.00522531 0.0005 0 -0.00522531 -0.0005 0 -0.00436073 0.0005
0 -0.00436073 -0.0005 0 -0.00358579 0.0005 0 -0.00358579 -0.0005 0
-0.00289118 0.0005 0 -0.00289118 -0.0005 0 -0.0022686 0.0005 0 -0.0022686
-0.0005 0 -0.00171055 0.0005 0 -0.00171055 -0.0005 0 -0.00121037 0.0005
0 -0.00121037 -0.0005 0 -0.000762037 0.0005 0 -0.000762037 -0.0005 0
-0.000360188 0.0005 0 -0.000360188 -0.0005 0.000528387 -0.0254 -0.0005 0.000528387 -0.0254
0.0005 0.00106088 -0.0254 -0.0005 0.00106088 -0.0254 0.0005 0.00159752 -0.0254 -0.0005
0.00159752 -0.0254 0.0005 0.00213833 -0.0254 -0.0005 0.00213833 -0.0254 0.0005 0.00268334
-0.0254 -0.0005 0.00268334 -0.0254 0.0005 0.00323259 -0.0254 -0.0005 0.00323259 -0.0254
0.0005 0.00378611 -0.0254 -0.0005 0.00378611 -0.0254 0.0005 0.00434393 -0.0254 -0.0005
0.00434393 -0.0254 0.0005 0.00490609 -0.0254 -0.0005 0.00490609 -0.0254 0.0005 0.00547262
-0.0254 -0.0005 0.00547262 -0.0254 0.0005 0.00604356 -0.0254 -0.0005 0.00604356 -0.0254
0.0005 0.00661893 -0.0254 -0.0005 0.00661893 -0.0254 0.0005 0.00719878 -0.0254 -0.0005
0.00719878 -0.0254 0.0005 0.00778313 -0.0254 -0.0005 0.00778313 -0.0254 0.0005 0.00837203
-0.0254 -0.0005 0.00837203 -0.0254 0.0005 0.00896551 -0.0254 -0.0005 0.00896551 -0.0254
0.0005 0.0095636 -0.0254 -0.0005 0.0095636 -0.0254 0.0005 0.0101663 -0.0254 -0.0005
0.0101663 -0.0254 0.0005 0.0107738 -0.0254 -0.0005 0.0107738 -0.0254 0.0005 0.0113859
-0.0254 -0.0005 0.0113859 -0.0254 0.0005 0.0120028 -0.0254 -0.0005 0.0120028 -0.0254
0.0005 0.0126245 -0.0254 -0.0005 0.0126245 -0.0254 0.0005 0.0132511 -0.0254 -0.0005
0.0132511 -0.0254 0.0005 0.0138825 -0.0254 -0.0005 0.0138825 -0.0254 0.0005 0.0145188
-0.0254 -0.0005 0.0145188 -0.0254 0.0005 0.0151601 -0.0254 -0.0005 0.0151601 -0.0254
0.0005 0.0158063 -0.0254 -0.0005 0.0158063 -0.0254 0.0005 0.0164576 -0.0254 -0.0005
0.0164576 -0.0254 0.0005 0.0171139 -0.0254 -0.0005 0.0171139 -0.0254 0.0005 0.0177754
-0.0254 -0.0005 0.0177754 -0.0254 0.0005 0.018442 -0.0254 -0.0005 0.018442 -0.0254
0.0005 0.0191137 -0.0254 -0.0005 0.0191137 -0.0254 0.0005 0.0197907 -0.0254 -0.0005
0.0197907 -0.0254 0.0005 0.020473 -0.0254 -0.0005 0.020473 -0.0254 0.0005 0.0211606
-0.0254 -0.0005 0.0211606 -0.0254 0.0005 0.0218535 -0.0254 -0.0005 0.0218535 -0.0254
0.0005 0.0225517 -0.0254 -0.0005 0.0225517 -0.0254 0.0005 0.0232555 -0.0254 -0.0005
0.0232555 -0.0254 0.0005 0.0239647 -0.0254 -0.0005 0.0239647 -0.0254 0.0005 0.0246794
-0.0254 -0.0005 0.0246794 -0.0254 0.0005 0.0253996 -0.0254 -0.0005 0.0253996 -0.0254
0.0005 0.0261255 -0.0254 -0.0005 0.0261255 -0.0254 0.0005 0.026857 -0.0254 -0.0005
0.026857 -0.0254 0.0005 0.0275942 -0.0254 -0.0005 0.0275942 -0.0254 0.0005 0.0283371
-0.0254 -0.0005 0.0283371 -0.0254 0.0005 0.0290858 -0.0254 -0.0005 0.0290858 -0.0254
0.0005 0.0298403 -0.0254 -0.0005 0.0298403 -0.0254 0.0005 0.0306007 -0.0254 -0.0005
0.0306007 -0.0254 0.0005 0.031367 -0.0254 -0.0005 0.031367 -0.0254 0.0005 0.0321393
-0.0254 -0.0005 0.0321393 -0.0254 0.0005 0.0329175 -0.0254 -0.0005 0.0329175 -0.0254
0.0005 0.0337019 -0.0254 -0.0005 0.0337019 -0.0254 0.0005 0.0344923 -0.0254 -0.0005
0.0344923 -0.0254 0.0005 0.0352888 -0.0254 -0.0005 0.0352888 -0.0254 0.0005 0.0360916
-0.0254 -0.0005 0.0360916 -0.0254 0.0005 0.0369006 -0.0254 -0.0005 0.0369006 -0.0254
0.0005 0.0377158 -0.0254 -0.0005 0.0377158 -0.0254 0.0005 0.0385375 -0.0254 -0.0005
0.0385375 -0.0254 0.0005 0.0393655 -0.0254 -0.0005 0.0393655 -0.0254 0.0005 0.0401999
-0.0254 -0.0005 0.0401999 -0.0254 0.0005 0.0410408 -0.0254 -0.0005 0.0410408 -0.0254
0.0005 0.0418883 -0.0254 -0.0005 0.0418883 -0.0254 0.0005 0.0427424 -0.0254 -0.0005
0.0427424 -0.0254 0.0005 0.0436031 -0.0254 -0.0005 0.0436031 -0.0254 0.0005 0.0444704
-0.0254 -0.0005 0.0444704 -0.0254 0.0005 0.0453446 -0.0254 -0.0005 0.0453446 -0.0254
0.0005 0.0462255 -0.0254 -0.0005 0.0462255 -0.0254 0.0005 0.0471133 -0.0254 -0.0005
0.0471133 -0.0254 0.0005 0.048008 -0.0254 -0.0005 0.048008 -0.0254 0.0005 0.0489096
-0.0254 -0.0005 0.0489096 -0.0254 0.0005 0.0498183 -0.0254 -0.0005 0.0498183 -0.0254
0.0005 0.050734 -0.0254 -0.0005 0.050734 -0.0254 0.0005 0.0516568 -0.0254 -0.0005
0.0516568 -0.0254 0.0005 0.0525868 -0.0254 -0.0005 0.0525868 -0.0254 0.0005 0.053524
-0.0254 -0.0005 0.053524 -0.0254 0.0005 0.0544686 -0.0254 -0.0005 0.0544686 -0.0254
0.0005 0.0554204 -0.0254 -0.0005 0.0554204 -0.0254 0.0005 0.0563797 -0.0254 -0.0005
0.0563797 -0.0254 0.0005 0.0573464 -0.0254 -0.0005 0.0573464 -0.0254 0.0005 0.0583206
-0.0254 -0.0005 0.0583206 -0.0254 0.0005 0.0593025 -0.0254 -0.0005 0.0593025 -0.0254
0.0005 0.0602919 -0.0254 -0.0005 0.0602919 -0.0254 0.0005 0.0612891 -0.0254 -0.0005
0.0612891 -0.0254 0.0005 0.0622939 -0.0254 -0.0005 0.0622939 -0.0254 0.0005 0.0633067
-0.0254 -0.0005 0.0633067 -0.0254 0.0005 0.0643272 -0.0254 -0.0005 0.0643272 -0.0254
0.0005 0.0653557 -0.0254 -0.0005 0.0653557 -0.0254 0.0005 0.0663923 -0.0254 -0.0005
0.0663923 -0.0254 0.0005 0.0674368 -0.0254 -0.0005 0.0674368 -0.0254 0.0005 0.0684895
-0.0254 -0.0005 0.0684895 -0.0254 0.0005 0.0695504 -0.0254 -0.0005 0.0695504 -0.0254
0.0005 0.0706195 -0.0254 -0.0005 0.0706195 -0.0254 0.0005 0.0716969 -0.0254 -0.0005
0.0716969 -0.0254 0.0005 0.0727828 -0.0254 -0.0005 0.0727828 -0.0254 0.0005 0.073877
-0.0254 -0.0005 0.073877 -0.0254 0.0005 0.0749798 -0.0254 -0.0005 0.0749798 -0.0254
0.0005 0.0760911 -0.0254 -0.0005 0.0760911 -0.0254 0.0005 0.0772111 -0.0254 -0.0005
0.0772111 -0.0254 0.0005 0.0783398 -0.0254 -0.0005 0.0783398 -0.0254 0.0005 0.0794772
-0.0254 -0.0005 0.0794772 -0.0254 0.0005 0.0806235 -0.0254 -0.0005 0.0806235 -0.0254
0.0005 0.0817787 -0.0254 -0.0005 0.0817787 -0.0254 0.0005 0.0829429 -0.0254 -0.0005
0.0829429 -0.0254 0.0005 0.0841162 -0.0254 -0.0005 0.0841162 -0.0254 0.0005 0.0852985
-0.0254 -0.0005 0.0852985 -0.0254 0.0005 0.0864901 -0.0254 -0.0005 0.0864901 -0.0254
0.0005 0.0876909 -0.0254 -0.0005 0.0876909 -0.0254 0.0005 0.0889011 -0.0254 -0.0005
0.0889011 -0.0254 0.0005 0.0901207 -0.0254 -0.0005 0.0901207 -0.0254 0.0005 0.0913497
-0.0254 -0.0005 0.0913497 -0.0254 0.0005 0.0925883 -0.0254 -0.0005 0.0925883 -0.0254
0.0005 0.0938366 -0.0254 -0.0005 0.0938366 -0.0254 0.0005 0.0950945 -0.0254 -0.0005
0.0950945 -0.0254 0.0005 0.0963622 -0.0254 -0.0005 0.0963622 -0.0254 0.0005 0.0976398
-0.0254 -0.0005 0.0976398 -0.0254 0.0005 0.0989273 -0.0254 -0.0005 0.0989273 -0.0254
0.0005 0.100225 -0.0254 -0.0005 0.100225 -0.0254 0.0005 0.101532 -0.0254 -0.0005
0.101532 -0.0254 0.0005 0.10285 -0.0254 -0.0005 0.10285 -0.0254 0.0005 0.104178
-0.0254 -0.0005 0.104178 -0.0254 0.0005 0.105517 -0.0254 -0.0005 0.105517 -0.0254
0.0005 0.106865 -0.0254 -0.0005 0.106865 -0.0254 0.0005 0.108225 -0.0254 -0.0005
0.108225 -0.0254 0.0005 0.109594 -0.0254 -0.0005 0.109594 -0.0254 0.0005 0.110975
-0.0254 -0.0005 0.110975 -0.0254 0.0005 0.112366 -0.0254 -0.0005 0.112366 -0.0254
0.0005 0.113768 -0.0254 -0.0005 0.113768 -0.0254 0.0005 0.115181 -0.0254 -0.0005
0.115181 -0.0254 0.0005 0.116605 -0.0254 -0.0005 0.116605 -0.0254 0.0005 0.11804
-0.0254 -0.0005 0.11804 -0.0254 0.0005 0.119486 -0.0254 -0.0005 0.119486 -0.0254
0.0005 0.120943 -0.0254 -0.0005 0.120943 -0.0254 0.0005 0.122412 -0.0254 -0.0005
0.122412 -0.0254 0.0005 0.123892 -0.0254 -0.0005 0.123892 -0.0254 0.0005 0.125384
-0.0254 -0.0005 0.125384 -0.0254 0.0005 0.126887 -0.0254 -0.0005 0.126887 -0.0254
0.0005 0.128402 -0.0254 -0.0005 0.128402 -0.0254 0.0005 0.129928 -0.0254 -0.0005
0.129928 -0.0254 0.0005 0.131467 -0.0254 -0.0005 0.131467 -0.0254 0.0005 0.133017
-0.0254 -0.0005 0.133017 -0.0254 0.0005 0.13458 -0.0254 -0.0005 0.13458 -0.0254
0.0005 0.136155 -0.0254 -0.0005 0.136155 -0.0254 0.0005 0.137742 -0.0254 -0.0005
0.137742 -0.0254 0.0005 0.139341 -0.0254 -0.0005 0.139341 -0.0254 0.0005 0.140953
-0.0254 -0.0005 0.140953 -0.0254 0.0005 0.142577 -0.0254 -0.0005 0.142577 -0.0254
0.0005 0.144214 -0.0254 -0.0005 0.144214 -0.0254 0.0005 0.145863 -0.0254 -0.0005
0.145863 -0.0254 0.0005 0.147526 -0.0254 -0.0005 0.147526 -0.0254 0.0005 0.149201
-0.0254 -0.0005 0.149201 -0.0254 0.0005 0.15089 -0.0254 -0.0005 0.15089 -0.0254
0.0005 0.152591 -0.0254 -0.0005 0.152591 -0.0254 0.0005 0.154306 -0.0254 -0.0005
0.154306 -0.0254 0.0005 0.156034 -0.0254 -0.0005 0.156034 -0.0254 0.0005 0.157775
-0.0254 -0.0005 0.157775 -0.0254 0.0005 0.159531 -0.0254 -0.0005 0.159531 -0.0254
0.0005 0.161299 -0.0254 -0.0005 0.161299 -0.0254 0.0005 0.163082 -0.0254 -0.0005
0.163082 -0.0254 0.0005 0.164878 -0.0254 -0.0005 0.164878 -0.0254 0.0005 0.166688
-0.0254 -0.0005 0.166688 -0.0254 0.0005 0.168513 -0.0254 -0.0005 0.168513 -0.0254
0.0005 0.170351 -0.0254 -0.0005 0.170351 -0.0254 0.0005 0.172204 -0.0254 -0.0005
0.172204 -0.0254 0.0005 0.174071 -0.0254 -0.0005 0.174071 -0.0254 0.0005 0.175953
-0.0254 -0.0005 0.175953 -0.0254 0.0005 0.177849 -0.0254 -0.0005 0.177849 -0.0254
0.0005 0.17976 -0.0254 -0.0005 0.17976 -0.0254 0.0005 0.181686 -0.0254 -0.0005
0.181686 -0.0254 0.0005 0.183627 -0.0254 -0.0005 0.183627 -0.0254 0.0005 0.185583
-0.0254 -0.0005 0.185583 -0.0254 0.0005 0.187555 -0.0254 -0.0005 0.187555 -0.0254
0.0005 0.189541 -0.0254 -0.0005 0.189541 -0.0254 0.0005 0.191543 -0.0254 -0.0005
0.191543 -0.0254 0.0005 0.193561 -0.0254 -0.0005 0.193561 -0.0254 0.0005 0.195594
-0.0254 -0.0005 0.195594 -0.0254 0.0005 0.197643 -0.0254 -0.0005 0.197643 -0.0254
0.0005 0.199708 -0.0254 -0.0005 0.199708 -0.0254 0.0005 0.201789 -0.0254 -0.0005
0.201789 -0.0254 0.0005 0.203886 -0.0254 -0.0005 0.203886 -0.0254 0.0005 0.206
-0.0254 -0.0005 0.206 -0.0254 0.0005 0.208047 -0.0251856 -0.0005 0.208047 -0.0251856
0.0005 0.210173 -0.0249628 -0.0005 0.210173 -0.0249628 0.0005 0.212382 -0.0247314 -0.0005
0.212382 -0.0247314 0.0005 0.214677 -0.024491 -0.0005 0.214677 -0.024491 0.0005 0.217061
-0.0242412 -0.0005 0.217061 -0.0242412 0.0005 0.219538 -0.0239817 -0.0005 0.219538 -0.0239817
0.0005 0.222112 -0.0237121 -0.0005 0.222112 -0.0237121 0.0005 0.224785 -0.023432 -0.0005
0.224785 -0.023432 0.0005 0.227563 -0.023141 -0.0005 0.227563 -0.023141 0.0005 0.230449
-0.0228387 -0.0005 0.230449 -0.0228387 0.0005 0.233447 -0.0225246 -0.0005 0.233447 -0.0225246
0.0005 0.236562 -0.0221983 -0.0005 0.236562 -0.0221983 0.0005 0.239797 -0.0218593 -0.0005
0.239797 -0.0218593 0.0005 0.243159 -0.0215071 -0.0005 0.243159 -0.0215071 0.0005 0.246652
-0.0211412 -0.0005 0.246652 -0.0211412 0.0005 0.250281 -0.0207611 -0.0005 0.250281 -0.0207611
0.0005 0.254051 -0.0203661 -0.0005 0.254051 -0.0203661 0.0005 0.257967 -0.0199558 -0.0005
0.257967 -0.0199558 0.0005 0.262036 -0.0195295 -0.0005 0.262036 -0.0195295 0.0005 0.266264
-0.0190867 -0.0005 0.266264 -0.0190867 0.0005 0.270655 -0.0186266 -0.0005 0.270655 -0.0186266
0.0005 0.275218 -0.0181486 -0.0005 0.275218 -0.0181486 0.0005 0.279959 -0.017652 -0.0005
0.279959 -0.017652 0.0005 0.284883 -0.017136 -0.0005 0.284883 -0.017136 0.0005 0.29
-0.0166 -0.0005 0.29 -0.0166 0.0005 
POLYGONS 250 1250
4 0 1 2 3 4 1 4 5 2 4
4 6 7 5 4 6 8 9 7 4
8 10 11 9 4 10 12 13 11 4
12 14 15 13 4 14 16 17 15 4
16 18 19 17 4 18 20 21 19 4
20 22 23 21 4 22 24 25 23 4
24 26 27 25 4 26 28 29 27 4
28 30 31 29 4 30 32 33 31 4
32 34 35 33 4 34 36 37 35 4
38 39 40 41 4 41 40 42 43 4
43 42 44 45 4 45 44 46 47 4
47 46 48 49 4 49 48 50 51 4
51 50 52 53 4 53 52 54 55 4
55 54 56 57 4 57 56 58 59 4
59 58 60 61 4 61 60 62 63 4
63 62 64 65 4 65 64 66 67 4
67 66 68 69 4 69 68 70 71 4
71 70 72 73 4 73 72 74 75 4
75 74 76 77 4 77 76 78 79 4
79 78 80 81 4 81 80 82 83 4
83 82 84 85 4 85 84 86 87 4
87 86 88 89 4 89 88 90 91 4
91 90 37 36 4 38 92 93 39 4
92 94 95 93 4 94 96 97 95 4
96 98 99 97 4 98 100 101 99 4
100 102 103 101 4 102 104 105 103 4
104 106 107 105 4 106 108 109 107 4
108 110 111 109 4 110 112 113 111 4
112 114 115 113 4 114 116 117 115 4
116 118 119 117 4 118 120 121 119 4
120 122 123 121 4 122 124 125 123 4
124 126 127 125 4 126 128 129 127 4
128 130 131 129 4 130 132 133 131 4
132 134 135 133 4 134 136 137 135 4
136 138 139 137 4 138 140 141 139 4
140 142 143 141 4 142 144 145 143 4
144 146 147 145 4 146 148 149 147 4
148 150 151 149 4 150 152 153 151 4
152 154 155 153 4 154 156 157 155 4
156 158 159 157 4 158 160 161 159 4
160 162 163 161 4 162 164 165 163 4
164 166 167 165 4 166 168 169 167 4
168 170 171 169 4 170 172 173 171 4
172 174 175 173 4 174 176 177 175 4
176 178 179 177 4 178 180 181 179 4
180 182 183 181 4 182 184 185 183 4
184 186 187 185 4 186 188 189 187 4
188 190 191 189 4 190 192 193 191 4
192 194 195 193 4 194 196 197 195 4
196 198 199 197 4 198 200 201 199 4
200 202 203 201 4 202 204 205 203 4
204 206 207 205 4 206 208 209 207 4
208 210 211 209 4 210 212 213 211 4
212 214 215 213 4 214 216 217 215 4
216 218 219 217 4 218 220 221 219 4
220 222 223 221 4 222 224 225 223 4
224 226 227 225 4 226 228 229 227 4
228 230 231 229 4 230 232 233 231 4
232 234 235 233 4 234 236 237 235 4
236 238 239 237 4 238 240 241 239 4
240 242 243 241 4 242 244 245 243 4
244 246 247 245 4 246 248 249 247 4
248 250 251 249 4 250 252 253 251 4
252 254 255 253 4 254 256 257 255 4
256 258 259 257 4 258 260 261 259 4
260 262 263 261 4 262 264 265 263 4
264 266 267 265 4 266 268 269 267 4
268 270 271 269 4 270 272 273 271 4
272 274 275 273 4 274 276 277 275 4
276 278 279 277 4 278 280 281 279 4
280 282 283 281 4 282 284 285 283 4
284 286 287 285 4 286 288 289 287 4
288 290 291 289 4 290 292 293 291 4
292 294 295 293 4 294 296 297 295 4
296 298 299 297 4 298 300 301 299 4
300 302 303 301 4 302 304 305 303 4
304 306 307 305 4 306 308 309 307 4
308 310 311 309 4 310 312 313 311 4
312 314 315 313 4 314 316 317 315 4
316 318 319 317 4 318 320 321 319 4
320 322 323 321 4 322 324 325 323 4
324 326 327 325 4 326 328 329 327 4
328 330 331 329 4 330 332 333 331 4
332 334 335 333 4 334 336 337 335 4
336 338 339 337 4 338 340 341 339 4
340 342 343 341 4 342 344 345 343 4
344 346 347 345 4 346 348 349 347 4
348 350 351 349 4 350 352 353 351 4
352 354 355 353 4 354 356 357 355 4
356 358 359 357 4 358 360 361 359 4
360 362 363 361 4 362 364 365 363 4
364 366 367 365 4 366 368 369 367 4
368 370 371 369 4 370 372 373 371 4
372 374 375 373 4 374 376 377 375 4
376 378 379 377 4 378 380 381 379 4
380 382 383 381 4 382 384 385 383 4
384 386 387 385 4 386 388 389 387 4
388 390 391 389 4 390 392 393 391 4
392 394 395 393 4 394 396 397 395 4
396 398 399 397 4 398 400 401 399 4
400 402 403 401 4 402 404 405 403 4
404 406 407 405 4 406 408 409 407 4
408 410 411 409 4 410 412 413 411 4
412 414 415 413 4 414 416 417 415 4
416 418 419 417 4 418 420 421 419 4
420 422 423 421 4 422 424 425 423 4
424 426 427 425 4 426 428 429 427 4
428 430 431 429 4 430 432 433 431 4
432 434 435 433 4 434 436 437 435 4
436 438 439 437 4 438 440 441 439 4
440 442 443 441 4 442 444 445 443 4
444 446 447 445 4 446 448 449 447 4
448 450 451 449 4 450 452 453 451 4
452 454 455 453 4 454 456 457 455 4
456 458 459 457 4 458 460 461 459 4
460 462 463 461 4 462 464 465 463 4
464 466 467 465 4 466 468 469 467 4
468 470 471 469 4 470 472 473 471 4
472 474 475 473 4 474 476 477 475 4
476 478 479 477 4 478 480 481 479 4
480 482 483 481 4 482 484 485 483 4
484 486 487 485 4 486 488 489 487 4
488 490 491 489 4 490 492 493 491 4
492 494 495 493 4 494 496 497 495 4
496 498 499 497 4 498 500 501 499 
POINT_DATA 502
FIELD attributes 1
U 3 502 float
3.26276 -0.00656489 0.0439866 1.63916 -0.00306535 0.0216766 1.63916 -0.00306535 0.0216766 3.26276 -0.00656489
0.0439866 0.0604955 0.000259062 0 0.0604955 0.000259062 0 0.0581605 0.000212371 0
0.0581605 0.000212371 0 0.0558732 0.00027145 0 0.0558732 0.00027145 0 0.0538616
0.000294286 0 0.0538616 0.000294286 0 0.0520721 0.000259311 0 0.0520721 0.000259311
0 0.0504024 0.000216967 0 0.0504024 0.000216967 0 0.0488173 0.000200906 0
0.0488173 0.000200906 0 0.0473325 0.000218049 0 0.0473325 0.000218049 0 0.0458882
0.000251967 0 0.0458882 0.000251967 0 0.0444804 0.00027525 0 0.0444804 0.00027525
0 0.0430836 0.000263107 0 0.0430836 0.000263107 0 0.0418916 0.00021828 0
0.0418916 0.00021828 0 0.0407497 0.000180339 0 0.0407497 0.000180339 0 0.0400002
0.000142853 0 0.0400002 0.000142853 0 0.0389507 0.000204246 0 0.0389507 0.000204246
0 0.0383934 0.000203776 0 0.0383934 0.000203776 0 0.0163999 0.000474522 0
0.0163999 0.000474522 0 -8.80376e-05 0.000173222 -1.02248e-22 -8.80376e-05 0.000173222 -1.02248e-22 -0.000167693
0.000783164 2.76474e-22 -0.000167693 0.000783164 2.76474e-22 -0.000242394 0.00198661 3.27805e-22 -0.000242394 0.00198661
3.27805e-22 -0.000229889 0.00313047 -6.55731e-22 -0.000229889 0.00313047 -6.55731e-22 -0.000216698 0.00420273 -2.18627e-22
-0.000216698 0.00420273 -2.18627e-22 -0.000205213 0.00522899 4.37311e-22 -0.000205213 0.00522899 4.37311e-22 -0.00019185
0.006215 0 -0.00019185 0.006215 0 -0.000174278 0.00714798 8.80895e-22 -0.000174278 0.00714798
8.80895e-22 -0.000151046 0.00800886 2.62594e-25 -0.000151046 0.00800886 2.62594e-25 -0.000120013 0.00876856 -8.80633e-22
-0.000120013 0.00876856 -8.80633e-22 -7.96328e-05 0.00939038 8.86537e-22 -7.96328e-05 0.00939038 8.86537e-22 -2.94927e-05
0.00983222 7.49939e-26 -2.94927e-05 0.00983222 7.49939e-26 3.24757e-05 0.0100532 -8.86462e-22 3.24757e-05 0.0100532
-8.86462e-22 0.000110491 0.00999195 -8.9086e-22 0.000110491 0.00999195 -8.9086e-22 0.000210311 0.00958467 9.6266e-27
0.000210311 0.00958467 9.6266e-27 0.000335789 0.00874348 9.06659e-22 0.000335789 0.00874348 9.06659e-22 0.000499136
0.00730591 0 0.000499136 0.00730591 0 0.000689607 0.00535009 0 0.000689607 0.00535009
0 0.000887826 0.0029414 0 0.000887826 0.0029414 0 0.000810079 0.000123781 0
0.000810079 0.000123781 0 0.000223801 -0.00227182 0 0.000223801 -0.00227182 0 -0.000191039
-0.00352722 0 -0.000191039 -0.00352722 0 -0.000187125 -0.00420279 0 -0.000187125 -0.00420279
0 -0.000577133 -0.00425187 0 -0.000577133 -0.00425187 0 -0.0015484 -0.00336724 0
-0.0015484 -0.00336724 0 -0.00184908 -0.000886212 0 -0.00184908 -0.000886212 0 -0.00192083
0.000855001 0 -0.00192083 0.000855001 0 -0.000188651 0.000181355 -4.42605e-25 -0.000188651 0.000181355
-4.42605e-25 -0.000393918 0.000192233 5.08116e-23 -0.000393918 0.000192233 5.08116e-23 -0.000605997 0.000199105 0
-0.000605997 0.000199105 0 -0.000824259 0.000208272 0 -0.000824259 0.000208272 0 -0.0010503
0.000218939 -4.92847e-23 -0.0010503 0.000218939 -4.92847e-23 -0.00128515 0.000230443 -4.93732e-23 -0.00128515 0.000230443
-4.93732e-23 -0.00152895 0.000241995 0 -0.00152895 0.000241995 0 -0.00178176 0.000252893 0
-0.00178176 0.000252893 0 -0.00204299 0.000262605 0 -0.00204299 0.000262605 0 -0.00231197
0.000270731 4.75529e-23 -0.00231197 0.000270731 4.75529e-23 -0.00258785 0.000277026 4.76435e-23 -0.00258785 0.000277026
4.76435e-23 -0.00286949 0.000281385 0 -0.00286949 0.000281385 0 -0.0031555 0.00028378 0
-0.0031555 0.00028378 0 -0.00344415 0.000284152 0 -0.00344415 0.000284152 0 -0.00373338
0.000282348 4.5885e-23 -0.00373338 0.000282348 4.5885e-23 -0.004021 0.000278178 4.59777e-23 -0.004021 0.000278178
4.59777e-23 -0.00430464 0.000271474 0 -0.00430464 0.000271474 0 -0.00458166 0.000262088 0
-0.00458166 0.000262088 0 -0.00484923 0.000249878 0 -0.00484923 0.000249878 0 -0.00510423
0.000234735 0 -0.00510423 0.000234735 0 -0.00534336 0.000216601 0 -0.00534336 0.000216601
0 -0.00556313 0.000195503 0 -0.00556313 0.000195503 0 -0.00575999 0.000171536 4.32124e-23
-0.00575999 0.000171536 4.32124e-23 -0.0059304 0.000144881 4.48798e-25 -0.0059304 0.000144881 4.48798e-25 -0.00607087
0.000115816 -4.56955e-25 -0.00607087 0.000115816 -4.56955e-25 -0.00617814 8.47203e-05 8.47219e-23 -0.00617814 8.47203e-05
8.47219e-23 -0.00624926 5.20566e-05 4.22242e-23 -0.00624926 5.20566e-05 4.22242e-23 -0.0062813 1.8424e-05 0
-0.0062813 1.8424e-05 0 -0.00627275 -1.54857e-05 -4.09565e-23 -0.00627275 -1.54857e-05 -4.09565e-23 -0.00622311
-4.92118e-05 -8.15978e-23 -0.00622311 -4.92118e-05 -8.15978e-23 -0.0061318 -8.24429e-05 -4.06413e-23 -0.0061318 -8.24429e-05
-4.06413e-23 -0.00599899 -0.000114757 0 -0.00599899 -0.000114757 0 -0.00582549 -0.000145691 -3.92578e-23
-0.00582549 -0.000145691 -3.92578e-23 -0.00561281 -0.000174766 -3.93545e-23 -0.00561281 -0.000174766 -3.93545e-23 -0.00536305
-0.000201521 0 -0.00536305 -0.000201521 0 -0.00507886 -0.000225594 3.79249e-23 -0.00507886 -0.000225594
3.79249e-23 -0.00476337 -0.000246702 3.80213e-23 -0.00476337 -0.000246702 3.80213e-23 -0.00442004 -0.000264645 3.70351e-23
-0.00442004 -0.000264645 3.70351e-23 -0.00405259 -0.000279345 1.10322e-22 -0.00405259 -0.000279345 1.10322e-22 -0.00366493
-0.000290815 7.33825e-23 -0.00366493 -0.000290815 7.33825e-23 -0.00326097 -0.000299125 0 -0.00326097 -0.000299125
0 -0.00284444 -0.000304367 0 -0.00284444 -0.000304367 0 -0.00241906 -0.000306739 0
-0.00241906 -0.000306739 0 -0.00198815 -0.000306633 0 -0.00198815 -0.000306633 0 -0.0015549
-0.000304211 6.82209e-23 -0.0015549 -0.000304211 6.82209e-23 -0.00112229 -0.000299664 1.35868e-22 -0.00112229 -0.000299664
1.35868e-22 -0.000692966 -0.000293638 1.3436e-22 -0.000692966 -0.000293638 1.3436e-22 -0.000270182 -0.000286219 6.69027e-23
-0.000270182 -0.000286219 6.69027e-23 0.000144401 -0.000277492 -6.52237e-23 0.000144401 -0.000277492 -6.52237e-23 0.000550314
-0.000267887 -6.54126e-23 0.000550314 -0.000267887 -6.54126e-23 0.00094608 -0.000257575 6.37487e-23 0.00094608 -0.000257575
6.37487e-23 0.00133031 -0.000246764 1.26978e-22 0.00133031 -0.000246764 1.26978e-22 0.0017021 -0.00023563 6.32295e-23
0.0017021 -0.00023563 6.32295e-23 0.0020608 -0.000224326 0 0.0020608 -0.000224326 0 0.00240599
-0.000212981 0 0.00240599 -0.000212981 0 0.00273741 -0.000201705 6.03878e-23 0.00273741 -0.000201705
6.03878e-23 0.00305492 -0.000190588 6.05749e-23 0.00305492 -0.000190588 6.05749e-23 0.00335855 -0.000179705 0
0.00335855 -0.000179705 0 0.0036484 -0.000169114 0 0.0036484 -0.000169114 0 0.00392468
-0.000158862 0 0.00392468 -0.000158862 0 0.00418765 -0.000148983 0 0.00418765 -0.000148983
0 0.00443762 -0.000139502 0 0.00443762 -0.000139502 0 0.00467498 -0.000130435 0
0.00467498 -0.000130435 0 0.00490012 -0.000121793 0 0.00490012 -0.000121793 0 0.00511346
-0.00011358 -5.51536e-23 0.00511346 -0.00011358 -5.51536e-23 0.00531544 -0.000105794 -5.53389e-23 0.00531544 -0.000105794
-5.53389e-23 0.00550653 -9.84317e-05 0 0.00550653 -9.84317e-05 0 0.00568718 -9.1484e-05 5.35566e-23
0.00568718 -9.1484e-05 5.35566e-23 0.00585784 -8.49411e-05 1.06777e-22 0.00585784 -8.49411e-05 1.06777e-22 0.00601897
-7.87907e-05 5.32204e-23 0.00601897 -7.87907e-05 5.32204e-23 0.00617103 -7.30188e-05 -5.20096e-23 0.00617103 -7.30188e-05
-5.20096e-23 0.00631446 -6.76107e-05 -6.90221e-25 0.00631446 -6.76107e-05 -6.90221e-25 0.00644968 -6.25507e-05 5.16871e-23
0.00644968 -6.25507e-05 5.16871e-23 0.00657713 -5.78226e-05 -5.05037e-23 0.00657713 -5.78226e-05 -5.05037e-23 0.0066972
-5.34103e-05 -5.06869e-23 0.0066972 -5.34103e-05 -5.06869e-23 0.00681029 -4.92975e-05 0 0.00681029 -4.92975e-05
0 0.00691679 -4.54682e-05 4.9033e-23 0.00691679 -4.54682e-05 4.9033e-23 0.00701706 -4.19066e-05 4.92153e-23
0.00701706 -4.19066e-05 4.92153e-23 0.00711145 -3.85973e-05 -4.80699e-23 0.00711145 -3.85973e-05 -4.80699e-23 0.0072003
-3.55251e-05 -4.82515e-23 0.0072003 -3.55251e-05 -4.82515e-23 0.00728392 -3.26757e-05 4.71197e-23 0.00728392 -3.26757e-05
4.71197e-23 0.00736263 -3.00349e-05 9.39497e-23 0.00736263 -3.00349e-05 9.39497e-23 0.00743672 -2.75892e-05 9.30111e-23
0.00743672 -2.75892e-05 9.30111e-23 0.00750645 -2.53259e-05 1.37795e-22 0.00750645 -2.53259e-05 1.37795e-22 0.00757211
-2.32326e-05 1.28295e-24 0.00757211 -2.32326e-05 1.28295e-24 0.00763394 -2.12975e-05 -9.08683e-23 0.00763394 -2.12975e-05
-9.08683e-23 0.00769216 -1.95098e-05 0 0.00769216 -1.95098e-05 0 0.00774702 -1.78589e-05 0
0.00774702 -1.78589e-05 0 0.00779871 -1.6335e-05 -8.68699e-23 0.00779871 -1.6335e-05 -8.68699e-23 0.00784745
-1.49287e-05 -1.73197e-22 0.00784745 -1.49287e-05 -1.73197e-22 0.00789341 -1.36316e-05 -1.24477e-24 0.00789341 -1.36316e-05
-1.24477e-24 0.00793677 -1.24353e-05 8.54339e-23 0.00793677 -1.24353e-05 8.54339e-23 0.00797771 -1.1332e-05 -8.33142e-23
0.00797771 -1.1332e-05 -8.33142e-23 0.00801638 -1.03153e-05 -1.66102e-22 0.00801638 -1.03153e-05 -1.66102e-22 0.00805293
-9.37864e-06 -1.64354e-22 0.00805293 -9.37864e-06 -1.64354e-22 0.00808749 -8.51411e-06 -8.19142e-23 0.00808749 -8.51411e-06
-8.19142e-23 0.0081202 -7.71712e-06 0 0.0081202 -7.71712e-06 0 0.00815118 -6.98545e-06 0
0.00815118 -6.98545e-06 0 0.00818056 -6.30977e-06 -7.81316e-23 0.00818056 -6.30977e-06 -7.81316e-23 0.00820842
-5.68207e-06 -7.84737e-23 0.00820842 -5.68207e-06 -7.84737e-23 0.00823488 -5.10908e-06 0 0.00823488 -5.10908e-06
0 0.00826003 -4.58643e-06 7.56061e-23 0.00826003 -4.58643e-06 7.56061e-23 0.00828396 -4.09067e-06 7.59438e-23
0.00828396 -4.09067e-06 7.59438e-23 0.00830675 -3.63122e-06 0 0.00830675 -3.63122e-06 0 0.00832848
-3.22433e-06 7.31232e-23 0.00832848 -3.22433e-06 7.31232e-23 0.00834923 -2.83647e-06 7.34562e-23 0.00834923 -2.83647e-06
7.34562e-23 0.00836905 -2.45871e-06 0 0.00836905 -2.45871e-06 0 0.00838803 -2.10194e-06 -7.0682e-23
0.00838803 -2.10194e-06 -7.0682e-23 0.00840616 -1.73474e-06 -1.40888e-22 0.00840616 -1.73474e-06 -1.40888e-22 0.00842341
-1.33608e-06 -7.02038e-23 0.00842341 -1.33608e-06 -7.02038e-23 0.00843982 -9.11403e-07 6.82817e-23 0.00843982 -9.11403e-07
6.82817e-23 0.00845542 -4.6683e-07 6.86045e-23 0.00845542 -4.6683e-07 6.86045e-23 0.00847021 -5.25814e-09 -6.67038e-23
0.00847021 -5.25814e-09 -6.67038e-23 0.0084842 4.54548e-07 -6.7023e-23 0.0084842 4.54548e-07 -6.7023e-23 0.00849743
8.71812e-07 -6.51435e-23 0.00849743 8.71812e-07 -6.51435e-23 0.00850999 1.20808e-06 -1.29829e-22 0.00850999 1.20808e-06
-1.29829e-22 0.00852201 1.44461e-06 -6.46833e-23 0.00852201 1.44461e-06 -6.46833e-23 0.0085336 1.58675e-06 0
0.0085336 1.58675e-06 0 0.00854487 1.6559e-06 0 0.00854487 1.6559e-06 0 0.00855589
1.6777e-06 0 0.00855589 1.6777e-06 0 0.00856673 1.67368e-06 0 0.00856673 1.67368e-06
0 0.0085774 1.65821e-06 0 0.0085774 1.65821e-06 0 0.00858793 1.63909e-06 0
0.00858793 1.63909e-06 0 0.00859833 1.61983e-06 -5.8331e-23 0.00859833 1.61983e-06 -5.8331e-23 0.00860862
1.60166e-06 -1.03373e-24 0.00860862 1.60166e-06 -1.03373e-24 0.00861881 1.58496e-06 5.78891e-23 0.00861881 1.58496e-06
5.78891e-23 0.00862892 1.56976e-06 0 0.00862892 1.56976e-06 0 0.00863894 1.556e-06 0
0.00863894 1.556e-06 0 0.00864891 1.54362e-06 0 0.00864891 1.54362e-06 0 0.00865882
1.53251e-06 1.07937e-22 0.00865882 1.53251e-06 1.07937e-22 0.00866869 1.52262e-06 1.08504e-22 0.00866869 1.52262e-06
1.08504e-22 0.00867852 1.51389e-06 -1.05088e-22 0.00867852 1.51389e-06 -1.05088e-22 0.00868833 1.50625e-06 -1.97098e-24
0.00868833 1.50625e-06 -1.97098e-24 0.00869813 1.49965e-06 1.04227e-22 0.00869813 1.49965e-06 1.04227e-22 0.00870793
1.49402e-06 0 0.00870793 1.49402e-06 0 0.00871772 1.48929e-06 0 0.00871772 1.48929e-06
0 0.00872752 1.4854e-06 -9.80909e-23 0.00872752 1.4854e-06 -9.80909e-23 0.00873734 1.4823e-06 -1.95336e-22
0.00873734 1.4823e-06 -1.95336e-22 0.00874717 1.47998e-06 -9.724e-23 0.00874717 1.47998e-06 -9.724e-23 0.00875704
1.47842e-06 -9.39739e-23 0.00875704 1.47842e-06 -9.39739e-23 0.00876693 1.47763e-06 -1.87106e-22 0.00876693 1.47763e-06
-1.87106e-22 0.00877686 1.4776e-06 -1.86555e-24 0.00877686 1.4776e-06 -1.86555e-24 0.00878683 1.47833e-06 9.17689e-23
0.00878683 1.47833e-06 9.17689e-23 0.00879685 1.47986e-06 0 0.00879685 1.47986e-06 0 0.00880691
1.48224e-06 8.72396e-23 0.00880691 1.48224e-06 8.72396e-23 0.00881703 1.48552e-06 8.77309e-23 0.00881703 1.48552e-06
8.77309e-23 0.00882719 1.4898e-06 0 0.00882719 1.4898e-06 0 0.00883741 1.49516e-06 0
0.00883741 1.49516e-06 0 0.00884769 1.50176e-06 0 0.00884769 1.50176e-06 0 0.00885802
1.50979e-06 -8.06529e-23 0.00885802 1.50979e-06 -8.06529e-23 0.0088684 1.51952e-06 -1.60469e-22 0.0088684 1.51952e-06
-1.60469e-22 0.00887884 1.53126e-06 -7.98102e-23 0.00887884 1.53126e-06 -7.98102e-23 0.00888932 1.54542e-06 -7.67661e-23
0.00888932 1.54542e-06 -7.67661e-23 0.00889985 1.56251e-06 -7.72128e-23 0.00889985 1.56251e-06 -7.72128e-23 0.00891041
1.58322e-06 0 0.00891041 1.58322e-06 0 0.008921 1.60832e-06 -7.29246e-23 0.008921 1.60832e-06
-7.29246e-23 0.0089316 1.63903e-06 -7.33538e-23 0.0089316 1.63903e-06 -7.33538e-23 0.0089422 1.67644e-06 -7.03872e-23
0.0089422 1.67644e-06 -7.03872e-23 0.00895276 1.72294e-06 -7.08046e-23 0.00895276 1.72294e-06 -7.08046e-23 0.00896325
1.77962e-06 0 0.00896325 1.77962e-06 0 0.00897364 1.85161e-06 -6.66139e-23 0.00897364 1.85161e-06
-6.66139e-23 0.00898387 1.93908e-06 -6.70132e-23 0.00898387 1.93908e-06 -6.70132e-23 0.00899388 2.05244e-06 -6.41187e-23