/*--------------------------------*- C++ -*----------------------------------*\
  =========                 |
  \\      /  F ield         | OpenFOAM: The Open Source CFD Toolbox
   \\    /   O peration     | Website:  https://openfoam.org
    \\  /    A nd           | Version:  9
     \\/     M anipulation  |
\*---------------------------------------------------------------------------*/
FoamFile
{
    format      ascii;
    class       volScalarField;
    location    "0.17";
    object      kU;
}
// * * * * * * * * * * * * * * * * * * * * * * * * * * * * * * * * * * * * * //

dimensions      [0 2 -2 0 0 0 0];

internalField   nonuniform List<scalar> 
12225
(
0.353921
0.335043
0.316966
0.300961
0.288126
0.278907
0.273298
0.271004
0.271567
0.274471
0.279203
0.285293
0.292334
0.299991
0.308009
0.316173
0.32453
0.336635
0.436864
0.448979
0.438085
0.433062
0.438789
0.453589
0.474804
0.499986
0.527146
0.5548
0.581918
0.607836
0.632177
0.654763
0.675705
0.694897
0.714436
0.729763
0.395187
0.410874
0.410631
0.405747
0.402011
0.400924
0.402615
0.406809
0.413084
0.420982
0.430069
0.439967
0.450364
0.461017
0.471787
0.482563
0.493634
0.504366
0.379641
0.38484
0.386546
0.38573
0.383905
0.382026
0.380567
0.379739
0.379606
0.380149
0.381302
0.382987
0.38512
0.387627
0.390454
0.393567
0.396987
0.40061
0.374976
0.3759
0.376239
0.375721
0.37457
0.373084
0.371496
0.369967
0.368593
0.367426
0.366485
0.365769
0.365268
0.364969
0.364858
0.364926
0.365169
0.365556
0.373488
0.372555
0.371759
0.370807
0.369631
0.368275
0.366809
0.3653
0.363803
0.362358
0.36099
0.359714
0.358537
0.357461
0.356489
0.355618
0.354847
0.354172
0.373012
0.371296
0.369813
0.368416
0.367025
0.36561
0.364168
0.362711
0.361257
0.359823
0.358425
0.357072
0.355773
0.354532
0.353353
0.352239
0.351191
0.350216
0.372865
0.370838
0.369004
0.36731
0.365711
0.364174
0.362679
0.361216
0.359782
0.358381
0.357014
0.355687
0.354401
0.35316
0.351966
0.350821
0.349727
0.348695
0.37282
0.37068
0.368691
0.366836
0.365095
0.363448
0.36188
0.360376
0.358928
0.357531
0.356182
0.354879
0.353621
0.352408
0.35124
0.350116
0.34904
0.348021
0.372806
0.370628
0.368578
0.366648
0.364829
0.36311
0.361482
0.359934
0.358457
0.357045
0.355693
0.354396
0.353152
0.351957
0.35081
0.349711
0.348658
0.347662
0.372801
0.370609
0.368537
0.366576
0.36472
0.362964
0.361299
0.359718
0.358215
0.356784
0.35542
0.354117
0.352873
0.351683
0.350546
0.349458
0.348419
0.347438
0.372799
0.370602
0.368522
0.36655
0.36468
0.362907
0.361224
0.359627
0.358108
0.356663
0.355288
0.353978
0.352728
0.351536
0.350399
0.349313
0.348278
0.347302
0.372797
0.370599
0.368514
0.366537
0.36466
0.362879
0.361188
0.359581
0.358053
0.356599
0.355216
0.353898
0.352643
0.351447
0.350307
0.34922
0.348184
0.347209
0.372796
0.370596
0.368509
0.366528
0.364649
0.362864
0.361167
0.359555
0.358022
0.356562
0.355173
0.353851
0.352591
0.351391
0.350247
0.349156
0.348118
0.34714
0.372795
0.370593
0.368505
0.366523
0.364641
0.362853
0.361154
0.359539
0.358002
0.35654
0.355148
0.353822
0.352559
0.351356
0.350209
0.349115
0.348074
0.347093
0.372794
0.370592
0.368502
0.366518
0.364634
0.362845
0.361145
0.359527
0.357989
0.356525
0.355131
0.353803
0.352538
0.351333
0.350183
0.349088
0.348044
0.347061
0.372794
0.37059
0.368499
0.366515
0.36463
0.362839
0.361137
0.359519
0.357979
0.356513
0.355118
0.353789
0.352523
0.351316
0.350165
0.349067
0.348021
0.347037
0.372794
0.370589
0.368498
0.366512
0.364627
0.362835
0.361132
0.359513
0.357972
0.356506
0.355109
0.353779
0.352511
0.351303
0.350151
0.349052
0.348005
0.34702
0.372793
0.370589
0.368497
0.366512
0.364626
0.362834
0.361131
0.359511
0.35797
0.356502
0.355105
0.353775
0.352506
0.351297
0.350145
0.349045
0.347997
0.347011
0.372794
0.37059
0.368498
0.366513
0.364628
0.362836
0.361133
0.359514
0.357973
0.356506
0.35511
0.353779
0.352511
0.351302
0.350149
0.34905
0.348002
0.347016
0.372794
0.370591
0.3685
0.366516
0.364632
0.362841
0.36114
0.359522
0.357982
0.356517
0.355122
0.353793
0.352527
0.351319
0.350168
0.34907
0.348023
0.347038
0.372795
0.370593
0.368504
0.366522
0.364641
0.362855
0.361159
0.359546
0.358012
0.356552
0.355163
0.353839
0.352578
0.351376
0.350229
0.349135
0.348092
0.347109
0.372796
0.370598
0.368518
0.366547
0.364681
0.362913
0.361235
0.359642
0.358127
0.356685
0.355311
0.354001
0.352751
0.351557
0.350416
0.349325
0.348282
0.347299
0.372804
0.370631
0.368592
0.366676
0.364872
0.363166
0.361548
0.360006
0.358532
0.357121
0.355767
0.354467
0.353219
0.35202
0.350868
0.349762
0.348702
0.347698
0.372856
0.370818
0.368973
0.367264
0.365645
0.364085
0.362567
0.361083
0.359631
0.358213
0.356833
0.355493
0.354197
0.352947
0.351744
0.35059
0.349487
0.348446
0.373166
0.37177
0.370579
0.369371
0.368049
0.366605
0.365072
0.363492
0.361906
0.360342
0.358826
0.357372
0.355991
0.354689
0.353468
0.352329
0.351272
0.350303
0.374797
0.375829
0.376175
0.375401
0.373834
0.371876
0.369792
0.36774
0.365814
0.364066
0.362524
0.361194
0.360075
0.359156
0.358424
0.357862
0.357456
0.357188
0.382729
0.39167
0.392375
0.388805
0.384384
0.380403
0.377247
0.374997
0.37362
0.373037
0.373151
0.373864
0.375081
0.376713
0.378681
0.380916
0.383358
0.385938
0.407499
0.414514
0.405423
0.395992
0.390554
0.389291
0.391454
0.396213
0.402832
0.41072
0.419426
0.42861
0.438016
0.447458
0.4568
0.465946
0.474852
0.483431
0.360554
0.347547
0.334933
0.322917
0.311965
0.302353
0.29419
0.28747
0.282115
0.278003
0.275
0.272966
0.271765
0.271272
0.271374
0.27197
0.272971
0.274297
0.00123465
0.00619689
0.0100311
0.0136051
0.0175696
0.02201
0.0269961
0.0326075
0.0385485
0.0445925
0.0507224
0.0568955
0.0630693
0.0692082
0.0752831
0.0812695
0.0871452
0.0928882
0.0984761
0.103885
0.109088
0.114058
0.118765
0.123174
0.127247
0.13094
0.134206
0.136995
0.139256
0.14092
0.141915
0.142309
0.142596
0.143483
0.144012
0.142044
0.144963
0.144926
0.143719
0.143762
0.144649
0.146186
0.146926
0.1532
0.159923
0.166911
0.174118
0.181528
0.189126
0.196906
0.204863
0.212991
0.221289
0.229754
0.238383
0.247174
0.256125
0.265233
0.274494
0.283906
0.293466
0.303169
0.31301
0.322987
0.333093
0.343323
0.353672
0.364134
0.374701
0.385368
0.396128
0.406973
0.417895
0.428888
0.439941
0.451049
0.4622
0.473389
0.484604
0.495838
0.507081
0.518324
0.529558
0.540774
0.551961
0.563111
0.574214
0.58526
0.596239
0.607141
0.617956
0.628674
0.639284
0.649777
0.660142
0.670374
0.680467
0.690427
0.700269
0.710037
0.719649
0.729038
0.738207
0.747151
0.755862
0.764327
0.772536
0.780479
0.788144
0.795521
0.8026
0.80937
0.815823
0.82195
0.827743
0.833192
0.838292
0.843034
0.847414
0.851424
0.855061
0.858319
0.861195
0.863685
0.865787
0.867499
0.86882
0.869748
0.870285
0.870431
0.870187
0.869556
0.86854
0.867143
0.86537
0.863224
0.860712
0.85784
0.854614
0.851042
0.847132
0.842892
0.838332
0.833461
0.828289
0.822827
0.817086
0.811077
0.804811
0.798301
0.79156
0.784599
0.777432
0.770072
0.762531
0.754824
0.746964
0.73896
0.730836
0.722595
0.714257
0.705845
0.697333
0.688839
0.680483
0.674372
0.670748
0.667251
0.663743
0.660216
0.656673
0.653113
0.649527
0.645896
0.642174
0.63826
0.633922
0.628559
0.620678
0.603912
0.00422998
0.01574
0.0232351
0.0293295
0.0349101
0.0404306
0.0461575
0.0521729
0.0584396
0.0648825
0.0714357
0.0780448
0.0846672
0.0912708
0.0978318
0.104332
0.110756
0.117092
0.123326
0.129447
0.135442
0.141301
0.147011
0.15256
0.157935
0.163125
0.168125
0.172939
0.177582
0.182073
0.186492
0.191068
0.196105
0.201624
0.20739
0.213429
0.220445
0.227981
0.23568
0.244559
0.254491
0.26629
0.277968
0.289404
0.300718
0.312425
0.324527
0.336996
0.349812
0.362962
0.376438
0.390237
0.404355
0.418792
0.433546
0.448616
0.464001
0.479699
0.495708
0.512027
0.528652
0.545581
0.562808
0.58033
0.598142
0.616237
0.63461
0.653252
0.672157
0.691316
0.710719
0.730357
0.750219
0.770294
0.790571
0.811038
0.831681
0.852487
0.873444
0.894537
0.915751
0.937073
0.958486
0.979976
1.00153
1.02313
1.04475
1.06639
1.08803
1.10965
1.13124
1.15277
1.17423
1.1956
1.21687
1.23801
1.259
1.27984
1.30048
1.32077
1.34067
1.36028
1.3796
1.39861
1.4173
1.43564
1.4536
1.47118
1.48834
1.50506
1.52133
1.53712
1.55241
1.56718
1.58142
1.5951
1.60821
1.62073
1.63265
1.64395
1.65462
1.66464
1.67401
1.6827
1.69072
1.69806
1.70469
1.71063
1.71587
1.72039
1.72421
1.72731
1.7297
1.73137
1.73234
1.73261
1.73217
1.73103
1.72922
1.72672
1.72355
1.71973
1.71527
1.71017
1.70446
1.69814
1.69124
1.68378
1.67576
1.66722
1.65816
1.64862
1.63861
1.62816
1.61728
1.606
1.59436
1.58235
1.57002
1.55739
1.54448
1.53135
1.51788
1.5044
1.49086
1.47765
1.46483
1.45201
1.43913
1.42621
1.41326
1.40029
1.38731
1.37432
1.36131
1.34823
1.33494
1.32131
1.30612
1.2865
0.00814683
0.0251021
0.0348453
0.0421752
0.0486753
0.0549548
0.0612899
0.0677965
0.0744956
0.0813588
0.0883408
0.0953963
0.102488
0.109588
0.116676
0.123741
0.130774
0.137773
0.144735
0.151661
0.158554
0.165419
0.172265
0.179104
0.185949
0.192825
0.199765
0.206815
0.214034
0.22149
0.229269
0.237482
0.246211
0.255442
0.265167
0.275445
0.286377
0.297933
0.310078
0.322917
0.336426
0.35058
0.365135
0.379933
0.395
0.410457
0.426341
0.442652
0.459383
0.476528
0.494081
0.512038
0.530396
0.549152
0.568305
0.58785
0.607786
0.628111
0.64882
0.66991
0.691377
0.713216
0.735421
0.757986
0.780904
0.804168
0.827768
0.851695
0.87594
0.900491
0.925336
0.950464
0.97586
1.00151
1.0274
1.05352
1.07984
1.10636
1.13305
1.1599
1.18689
1.214
1.24121
1.2685
1.29586
1.32327
1.35069
1.37812
1.40554
1.43291
1.46023
1.48748
1.51462
1.54165
1.56853
1.59526
1.62181
1.64816
1.67428
1.70002
1.72541
1.75045
1.77512
1.7994
1.82327
1.84669
1.86963
1.89207
1.91397
1.93532
1.95608
1.97622
1.99573
2.01457
2.03272
2.05015
2.06686
2.0828
2.09797
2.11234
2.1259
2.13863
2.15052
2.16154
2.1717
2.18097
2.18936
2.19684
2.20342
2.20908
2.21384
2.21767
2.2206
2.2226
2.2237
2.2239
2.22319
2.22159
2.21912
2.21577
2.21157
2.20652
2.20065
2.19397
2.1865
2.17826
2.16927
2.15955
2.14913
2.13803
2.12628
2.1139
2.10092
2.08737
2.07328
2.05867
2.04359
2.02803
2.01209
1.99573
1.97902
1.96208
1.94485
1.92746
1.90997
1.89256
1.87529
1.858
1.84066
1.82327
1.80586
1.78845
1.77107
1.75374
1.73647
1.71931
1.70222
1.6853
1.668
1.64998
0.0124355
0.0336033
0.045059
0.0534261
0.0606968
0.0675699
0.07437
0.0812534
0.0882815
0.0954609
0.102771
0.110181
0.117661
0.125191
0.132753
0.140341
0.147952
0.155588
0.163258
0.170971
0.17874
0.186584
0.194522
0.202582
0.210791
0.219188
0.227816
0.236725
0.245974
0.25562
0.265723
0.276343
0.287521
0.299268
0.311589
0.324505
0.33804
0.352198
0.366963
0.38233
0.398279
0.414776
0.431749
0.449131
0.466912
0.48512
0.503776
0.522889
0.542462
0.562495
0.582987
0.603938
0.625344
0.647207
0.669523
0.692291
0.715509
0.739175
0.763285
0.787836
0.812825
0.838245
0.864092
0.890359
0.917038
0.944122
0.971601
0.999464
1.0277
1.0563
1.08525
1.11453
1.14413
1.17404
1.20423
1.23469
1.26539
1.29633
1.32748
1.35882
1.39033
1.42199
1.45377
1.48564
1.5176
1.54962
1.58166
1.61371
1.64575
1.67774
1.70968
1.74152
1.77325
1.80485
1.83629
1.86756
1.89862
1.92946
1.95995
1.99006
2.01978
2.04911
2.07799
2.10642
2.13435
2.16174
2.18858
2.21481
2.24041
2.26534
2.28958
2.31309
2.33583
2.35779
2.37893
2.39922
2.41864
2.43717
2.45477
2.47142
2.48712
2.50183
2.51554
2.52823
2.53989
2.55051
2.56008
2.56858
2.57601
2.58237
2.58765
2.59185
2.59497
2.59701
2.59798
2.59789
2.59674
2.59454
2.59131
2.58705
2.58179
2.57554
2.56832
2.56016
2.55106
2.54107
2.53019
2.51847
2.50592
2.49258
2.47849
2.46365
2.44811
2.43192
2.41509
2.39765
2.37968
2.36112
2.34214
2.32275
2.30297
2.28288
2.26248
2.24186
2.22108
2.20028
2.17949
2.15867
2.13779
2.11687
2.09595
2.07506
2.05425
2.03356
2.01305
1.99282
1.97295
1.95368
1.93485
1.91665
0.0165019
0.041025
0.0539776
0.0633179
0.0712881
0.0786818
0.0858752
0.093064
0.100345
0.107757
0.115304
0.122973
0.130749
0.138616
0.146563
0.154589
0.162694
0.170886
0.179178
0.187586
0.196131
0.204837
0.213732
0.222849
0.232222
0.241893
0.251904
0.262303
0.273137
0.284453
0.296294
0.308696
0.321686
0.335277
0.349475
0.364284
0.379709
0.395746
0.412385
0.42961
0.447407
0.465753
0.484618
0.503973
0.523807
0.544124
0.564933
0.586242
0.608055
0.630376
0.653207
0.676549
0.700403
0.724771
0.749652
0.775046
0.800952
0.82737
0.854297
0.881732
0.909669
0.938107
0.967038
0.996458
1.02636
1.05673
1.08757
1.11886
1.15059
1.18275
1.21532
1.24829
1.28164
1.31535
1.34941
1.38379
1.41847
1.45343
1.48865
1.5241
1.55976
1.5956
1.63159
1.66771
1.70394
1.74023
1.77658
1.81294
1.84929
1.88561
1.92186
1.95802
1.99406
2.02995
2.06567
2.10118
2.13645
2.17146
2.20605
2.24022
2.27396
2.30723
2.34001
2.37225
2.40392
2.43497
2.46538
2.49509
2.52407
2.55229
2.5797
2.60627
2.63196
2.65675
2.68059
2.70346
2.72532
2.74615
2.76593
2.78461
2.80219
2.81864
2.83394
2.84808
2.86104
2.8728
2.88335
2.89269
2.9008
2.90769
2.91334
2.91776
2.92095
2.92291
2.92365
2.92318
2.92151
2.91864
2.9146
2.90939
2.90305
2.89559
2.88702
2.87739
2.8667
2.85499
2.8423
2.82864
2.81405
2.79857
2.78223
2.76507
2.7471
2.72841
2.70899
2.68888
2.66822
2.64696
2.62521
2.60299
2.58034
2.55732
2.53396
2.51033
2.48651
2.46258
2.4386
2.41455
2.39045
2.36632
2.34221
2.31817
2.29425
2.27054
2.24712
2.22415
2.2018
2.18038
2.15986
2.14046
0.0200841
0.0473308
0.0616292
0.0718537
0.0804615
0.0883267
0.0958698
0.10332
0.110805
0.11839
0.126104
0.133954
0.141938
0.150051
0.158289
0.166654
0.175153
0.183796
0.1926
0.201585
0.210776
0.2202
0.229889
0.239878
0.250202
0.260901
0.272015
0.283584
0.295649
0.308244
0.321402
0.335147
0.3495
0.364469
0.380061
0.396275
0.41311
0.430563
0.448624
0.467283
0.486529
0.506351
0.526733
0.547662
0.569132
0.591143
0.613698
0.636805
0.660467
0.684691
0.709482
0.734842
0.760775
0.787285
0.814374
0.842044
0.870295
0.89913
0.928546
0.958544
0.989121
1.02027
1.052
1.08429
1.11714
1.15055
1.18449
1.21897
1.25397
1.28947
1.32546
1.36192
1.39884
1.43619
1.47396
1.51211
1.55062
1.58948
1.62864
1.66809
1.70779
1.74772
1.78784
1.82812
1.86853
1.90904
1.94962
1.99023
2.03084
2.07142
2.11194
2.15236
2.19265
2.23278
2.27271
2.31241
2.35185
2.39092
2.42954
2.46769
2.50536
2.54249
2.57906
2.61503
2.65034
2.68495
2.71882
2.75191
2.78417
2.81556
2.84603
2.87555
2.90408
2.93158
2.95801
2.98334
3.00753
3.03055
3.05238
3.07298
3.09233
3.1104
3.12718
3.14265
3.15678
3.16957
3.18101
3.19108
3.19977
3.20708
3.21301
3.21756
3.22073
3.22253
3.22296
3.22204
3.21978
3.21618
3.21127
3.20507
3.1976
3.18888
3.17895
3.16782
3.15552
3.14209
3.12757
3.11199
3.09536
3.07775
3.05921
3.03974
3.01937
2.99824
2.97635
2.95372
2.93045
2.90655
2.88209
2.85711
2.83167
2.80581
2.77958
2.75304
2.72626
2.69933
2.67228
2.64516
2.61798
2.59078
2.56363
2.53657
2.5097
2.48311
2.45694
2.43135
2.40659
2.38296
2.36049
2.33929
0.0230858
0.0526099
0.0680465
0.0790362
0.0882045
0.0964873
0.104339
0.112015
0.119666
0.127381
0.13521
0.143179
0.1513
0.159579
0.168021
0.176633
0.185426
0.194414
0.203618
0.213058
0.222763
0.23276
0.243082
0.253763
0.264837
0.276341
0.28831
0.300779
0.31378
0.327341
0.341487
0.356239
0.371609
0.387608
0.404239
0.421505
0.439404
0.457934
0.477091
0.496869
0.517262
0.538264
0.559871
0.582076
0.604877
0.628277
0.652279
0.676889
0.702114
0.727961
0.754437
0.781548
0.8093
0.837699
0.86675
0.896457
0.926824
0.957853
0.989546
1.0219
1.05493
1.08861
1.12296
1.15796
1.19361
1.2299
1.26682
1.30437
1.34252
1.38126
1.42059
1.46046
1.50088
1.54181
1.58323
1.62511
1.66743
1.71015
1.75324
1.79668
1.84042
1.88443
1.92869
1.97314
2.01775
2.06249
2.10732
2.1522
2.19709
2.24196
2.28676
2.33146
2.37602
2.4204
2.46456
2.50847
2.55207
2.5952
2.63784
2.67997
2.72154
2.76252
2.80286
2.84252
2.88144
2.91957
2.95687
2.99329
3.02878
3.06328
3.09676
3.12917
3.16047
3.19061
3.21956
3.24727
3.27371
3.29885
3.32265
3.34508
3.36611
3.38572
3.40389
3.42059
3.43582
3.44955
3.46178
3.47249
3.48167
3.48933
3.49546
3.50005
3.50313
3.50468
3.50474
3.50329
3.50037
3.49598
3.49015
3.4829
3.47425
3.46423
3.45289
3.44023
3.42629
3.41111
3.39474
3.37722
3.35854
3.33879
3.31805
3.29633
3.27366
3.25014
3.22578
3.20065
3.17481
3.14829
3.12116
3.09347
3.06527
3.03661
3.00755
2.97815
2.94848
2.91861
2.88859
2.85847
2.8283
2.79812
2.768
2.73803
2.70828
2.6789
2.65002
2.62186
2.59466
2.56874
2.54407
2.5207
0.0255591
0.0569108
0.0732693
0.0848904
0.094528
0.103164
0.111278
0.119142
0.126926
0.134736
0.14264
0.150679
0.158879
0.167258
0.175829
0.184606
0.193604
0.202841
0.212338
0.222119
0.232211
0.242643
0.253445
0.26465
0.27629
0.288398
0.301004
0.314137
0.327826
0.342094
0.356961
0.372445
0.388557
0.405308
0.422703
0.440745
0.459437
0.47878
0.498774
0.519417
0.540709
0.56265
0.58524
0.608479
0.632371
0.65692
0.682131
0.708013
0.734576
0.761827
0.789776
0.818433
0.847806
0.877904
0.908735
0.940305
0.972621
1.00569
1.03951
1.07409
1.10943
1.14553
1.18238
1.21999
1.25835
1.29745
1.33728
1.37783
1.41909
1.46104
1.50365
1.54692
1.59082
1.63532
1.6804
1.72601
1.77214
1.81875
1.8658
1.91325
1.96107
2.00921
2.05763
2.10629
2.15514
2.20415
2.25327
2.30246
2.35167
2.40086
2.44998
2.49899
2.54785
2.59652
2.64493
2.69306
2.74079
2.788
2.83466
2.88075
2.92622
2.97102
3.01511
3.05843
3.10093
3.14254
3.18322
3.22291
3.26157
3.29913
3.33554
3.37077
3.40476
3.43746
3.46884
3.49886
3.52746
3.55462
3.5803
3.60446
3.62708
3.64813
3.66759
3.68544
3.70166
3.71623
3.72916
3.74042
3.75
3.75791
3.76414
3.7687
3.7716
3.77283
3.77243
3.77039
3.76674
3.7615
3.75468
3.74633
3.73644
3.72509
3.71228
3.69807
3.68245
3.66549
3.64726
3.6278
3.60712
3.58529
3.56237
3.53841
3.51345
3.48755
3.46077
3.43315
3.40477
3.37566
3.3459
3.31553
3.28461
3.2532
3.22137
3.18916
3.15664
3.12389
3.09097
3.05793
3.02484
2.99175
2.95875
2.92592
2.89337
2.86124
2.8297
2.79898
2.76931
2.74098
2.71393
2.68819
0.0275081
0.0602817
0.0773529
0.0894682
0.0994768
0.108395
0.116717
0.124728
0.13261
0.140483
0.148426
0.156495
0.164728
0.173153
0.181792
0.190663
0.199787
0.209185
0.218878
0.228893
0.239254
0.249991
0.261132
0.272707
0.284745
0.297275
0.310324
0.323919
0.338084
0.352838
0.368202
0.384191
0.400818
0.418093
0.436024
0.454619
0.473883
0.493821
0.514437
0.535736
0.557721
0.580397
0.60377
0.627845
0.65263
0.678133
0.704364
0.731333
0.759052
0.787534
0.816791
0.846834
0.877677
0.909331
0.941807
0.975114
1.00926
1.04426
1.08011
1.11682
1.15439
1.19283
1.23213
1.2723
1.31332
1.35519
1.3979
1.44144
1.48579
1.53093
1.57685
1.62352
1.67091
1.719
1.76776
1.81714
1.86711
1.91764
1.96868
2.02019
2.07211
2.12441
2.17704
2.22994
2.28308
2.33639
2.38983
2.44334
2.49689
2.55042
2.60387
2.65721
2.71037
2.76332
2.81598
2.86832
2.92013
2.97137
3.02201
3.07201
3.12133
3.1699
3.21767
3.26458
3.31057
3.35558
3.39954
3.44241
3.48413
3.52464
3.56388
3.6018
3.63837
3.67351
3.7072
3.73939
3.77003
3.79908
3.82651
3.85228
3.87635
3.89871
3.91934
3.9382
3.95529
3.97059
3.9841
3.99579
4.00567
4.01372
4.01995
4.02438
4.027
4.02783
4.02688
4.02417
4.01973
4.01357
4.00572
3.9962
3.98503
3.97229
3.95801
3.94221
3.92494
3.90623
3.88617
3.86478
3.8421
3.81821
3.79315
3.76697
3.73974
3.71151
3.68234
3.65228
3.6214
3.58976
3.55742
3.52443
3.49086
3.45677
3.42221
3.38726
3.35197
3.31642
3.28068
3.24481
3.20889
3.17298
3.13717
3.10156
3.06627
3.03146
2.99731
2.96403
2.93187
2.90107
2.87153
2.84329
0.0289509
0.0627852
0.0803735
0.0928495
0.10313
0.112253
0.120724
0.128837
0.13678
0.144681
0.152632
0.160697
0.168924
0.177349
0.186001
0.194906
0.204086
0.213565
0.223367
0.233517
0.244039
0.254962
0.266312
0.278115
0.2904
0.303192
0.316515
0.330395
0.344852
0.359907
0.375579
0.391882
0.408832
0.426441
0.444722
0.463683
0.483336
0.503688
0.52475
0.54653
0.569037
0.592281
0.616274
0.641024
0.666545
0.69285
0.719951
0.747864
0.776604
0.806186
0.836628
0.867944
0.900151
0.933262
0.967294
1.00226
1.03817
1.07503
1.11286
1.15165
1.19143
1.23218
1.27391
1.31661
1.36029
1.40493
1.45053
1.49707
1.54453
1.59289
1.64214
1.69224
1.74316
1.79487
1.84734
1.90052
1.95438
2.00886
2.06392
2.11951
2.17558
2.23206
2.28891
2.34607
2.40348
2.46109
2.51883
2.57667
2.63453
2.69236
2.75011
2.80772
2.86515
2.92232
2.97919
3.03557
3.09137
3.14655
3.20106
3.25487
3.3079
3.36011
3.41143
3.46178
3.51112
3.55936
3.60645
3.65233
3.69693
3.74021
3.78209
3.82254
3.86148
3.89889
3.9347
3.96887
4.00136
4.03213
4.06113
4.08832
4.11368
4.13718
4.15879
4.17851
4.19631
4.21218
4.22612
4.23811
4.24814
4.25621
4.26233
4.2665
4.26874
4.26907
4.26749
4.26403
4.25871
4.25156
4.24262
4.23191
4.21947
4.20534
4.18957
4.17221
4.15328
4.13284
4.11096
4.08767
4.06304
4.03711
4.00996
3.98163
3.95218
3.92168
3.89018
3.85776
3.82447
3.79037
3.75553
3.72002
3.68388
3.6472
3.61003
3.57243
3.53447
3.49624
3.45779
3.4192
3.38055
3.34192
3.30341
3.26513
3.2272
3.18978
3.15307
3.11728
3.08263
3.04933
3.01725
2.98647
0.0299203
0.0644981
0.0824255
0.0951374
0.105593
0.114845
0.123405
0.13157
0.139533
0.147428
0.155354
0.163381
0.171566
0.179951
0.18857
0.197453
0.206627
0.216117
0.225947
0.236142
0.246727
0.257727
0.269168
0.281075
0.293472
0.306384
0.319836
0.333848
0.348443
0.363641
0.379461
0.39592
0.413036
0.430824
0.4493
0.468477
0.488369
0.508992
0.530358
0.552483
0.57538
0.599065
0.623553
0.64886
0.675004
0.702002
0.729872
0.758634
0.788308
0.818912
0.850468
0.882995
0.916512
0.951038
0.986591
1.02319
1.06084
1.09956
1.13937
1.18026
1.22225
1.26533
1.30952
1.3548
1.40118
1.44863
1.49716
1.54675
1.59737
1.649
1.70162
1.7552
1.8097
1.86508
1.9213
1.97831
2.03607
2.09453
2.15362
2.2133
2.2735
2.33415
2.3952
2.45657
2.51822
2.58006
2.64205
2.70411
2.76619
2.82823
2.89017
2.95194
3.01349
3.07475
3.13561
3.19585
3.25546
3.31438
3.37257
3.42996
3.48649
3.54211
3.59674
3.65031
3.70273
3.75396
3.80391
3.85254
3.89976
3.94554
3.9898
4.03249
4.07356
4.11295
4.15061
4.18651
4.2206
4.25284
4.28317
4.31154
4.33794
4.36235
4.38474
4.4051
4.42341
4.43966
4.45384
4.46597
4.47598
4.48391
4.48976
4.49356
4.4953
4.49502
4.49272
4.48844
4.48219
4.47403
4.46396
4.45204
4.43829
4.42278
4.40553
4.38661
4.36606
4.34392
4.32026
4.29514
4.2686
4.24072
4.21154
4.18114
4.14957
4.11689
4.08318
4.0485
4.01291
3.97648
3.93927
3.90136
3.86279
3.82365
3.78399
3.74389
3.70341
3.66263
3.62162
3.58046
3.53923
3.49803
3.45695
3.41612
3.37566
3.33575
3.29657
3.25833
3.22124
3.18547
3.15088
3.11758
0.0304618
0.0655087
0.0836171
0.0964513
0.106991
0.116298
0.124885
0.133052
0.140992
0.148845
0.156712
0.16467
0.172778
0.181085
0.189628
0.198441
0.207552
0.216988
0.226774
0.236934
0.247493
0.258475
0.269904
0.281804
0.294198
0.307112
0.320566
0.334585
0.34919
0.364403
0.380244
0.396733
0.413891
0.431738
0.450291
0.46957
0.489595
0.510384
0.531958
0.554335
0.577536
0.601582
0.626495
0.652294
0.679004
0.706647
0.735246
0.764826
0.79541
0.827024
0.859692
0.893437
0.928283
0.964251
1.00136
1.03964
1.07909
1.11974
1.16159
1.20466
1.24895
1.29446
1.34119
1.38915
1.43831
1.48867
1.54023
1.59294
1.64681
1.70179
1.75785
1.81496
1.87308
1.93216
1.99216
2.05302
2.11469
2.1771
2.2402
2.30393
2.3682
2.43295
2.49811
2.56359
2.62934
2.69527
2.76134
2.82746
2.89358
2.95962
3.02553
3.09123
3.15667
3.22176
3.28623
3.35004
3.41315
3.47549
3.53702
3.59766
3.65735
3.71602
3.77361
3.83003
3.88518
3.93902
3.99146
4.04245
4.09192
4.13982
4.18609
4.23065
4.27347
4.31449
4.35366
4.39093
4.42628
4.45968
4.49101
4.52026
4.54741
4.57244
4.59533
4.61606
4.63463
4.65102
4.66522
4.67724
4.68706
4.69469
4.70014
4.70343
4.70456
4.70357
4.70047
4.69529
4.68807
4.67883
4.66762
4.65447
4.63942
4.62252
4.60383
4.58339
4.56126
4.53748
4.51212
4.48524
4.4569
4.42716
4.39607
4.36372
4.33016
4.29545
4.25967
4.22288
4.18515
4.14655
4.10714
4.067
4.02618
3.98476
3.94281
3.90038
3.85756
3.81442
3.77104
3.72749
3.68388
3.64028
3.59682
3.5536
3.51078
3.46851
3.42699
3.38642
3.34697
3.30882
3.27179
3.23604
0.0306311
0.065913
0.0840648
0.0969208
0.107464
0.116756
0.125311
0.133427
0.141302
0.149074
0.156848
0.164703
0.172702
0.180895
0.189323
0.198021
0.207019
0.216344
0.226023
0.236078
0.246534
0.257416
0.268745
0.280547
0.292845
0.305662
0.319022
0.33295
0.347468
0.362601
0.378372
0.394804
0.411922
0.429749
0.448309
0.467627
0.487727
0.508634
0.530374
0.552974
0.576459
0.600856
0.626193
0.652497
0.679796
0.708118
0.737492
0.767948
0.799515
0.832221
0.866096
0.901166
0.937459
0.974998
1.01381
1.05391
1.09532
1.13806
1.18214
1.22755
1.27432
1.32242
1.37187
1.42266
1.47477
1.52819
1.5829
1.63888
1.69609
1.75451
1.8141
1.87481
1.93659
1.99939
2.06316
2.12784
2.19335
2.25965
2.32666
2.3943
2.46251
2.5312
2.60026
2.66964
2.73924
2.809
2.87886
2.94873
3.01855
3.08826
3.15779
3.22707
3.296
3.36433
3.43199
3.49892
3.56506
3.63035
3.69473
3.75812
3.82045
3.88167
3.94174
4.00051
4.05787
4.11379
4.16821
4.22106
4.27228
4.3218
4.36957
4.41553
4.45963
4.50181
4.54203
4.58024
4.6164
4.65048
4.68241
4.71215
4.7397
4.76502
4.78809
4.80891
4.82746
4.84373
4.85772
4.86943
4.87885
4.886
4.89088
4.89351
4.89391
4.89211
4.88812
4.88198
4.87372
4.86338
4.851
4.83662
4.82029
4.80205
4.78196
4.76006
4.73643
4.7111
4.68415
4.65564
4.62562
4.59416
4.56133
4.52719
4.49181
4.45526
4.4176
4.3789
4.33924
4.29868
4.2573
4.21515
4.1723
4.12884
4.08481
4.0403
3.99538
3.95012
3.9046
3.85891
3.81313
3.76737
3.72174
3.67636
3.63137
3.58694
3.54325
3.50049
3.45884
3.41843
3.3791
3.34105
0.0304919
0.0658116
0.0838888
0.0966788
0.107151
0.116364
0.124831
0.132848
0.140614
0.148268
0.155914
0.163634
0.171491
0.179537
0.187814
0.196358
0.205199
0.214366
0.223884
0.233777
0.24407
0.254787
0.265951
0.277587
0.28972
0.302375
0.315577
0.329353
0.343729
0.358732
0.374389
0.39073
0.407781
0.425573
0.444134
0.463496
0.483689
0.504745
0.526698
0.549581
0.573427
0.598271
0.624145
0.651081
0.679114
0.708277
0.738605
0.770131
0.802891
0.836916
0.872238
0.908887
0.946891
0.986278
1.02707
1.06929
1.11296
1.15809
1.20469
1.25276
1.30229
1.35327
1.4057
1.45956
1.51484
1.57152
1.62958
1.68897
1.74967
1.81162
1.87479
1.93912
2.00455
2.07103
2.13849
2.20687
2.27608
2.34606
2.41674
2.48805
2.55993
2.63224
2.70486
2.77772
2.85076
2.92391
2.99708
3.07021
3.14323
3.21608
3.2887
3.36094
3.43257
3.50352
3.57373
3.64312
3.71163
3.77919
3.84573
3.91118
3.97547
4.03853
4.10029
4.16066
4.21954
4.27688
4.33262
4.38668
4.43901
4.48954
4.53821
4.58498
4.62978
4.67258
4.7133
4.75193
4.78841
4.82271
4.85478
4.88459
4.91212
4.93734
4.96024
4.9808
4.99901
5.01487
5.02838
5.03953
5.04834
5.0548
5.05893
5.06076
5.0603
5.05757
5.05261
5.04545
5.03612
5.02466
5.01112
4.99553
4.97795
4.95843
4.93702
4.91378
4.88876
4.86202
4.83362
4.80363
4.77212
4.73913
4.70476
4.66905
4.63208
4.59391
4.55463
4.51428
4.47295
4.43071
4.38761
4.34374
4.29915
4.25392
4.20812
4.16182
4.11509
4.068
4.02063
3.97308
3.92543
3.87778
3.83025
3.78296
3.73606
3.6897
3.64406
3.59933
3.55567
3.51321
3.47177
3.43158
0.0301144
0.0653059
0.083208
0.0958562
0.106193
0.11527
0.123597
0.13147
0.139086
0.146584
0.154071
0.161625
0.169312
0.177182
0.185277
0.193635
0.202285
0.211257
0.220576
0.230268
0.240358
0.250871
0.261833
0.273271
0.285211
0.297681
0.31071
0.324328
0.338566
0.353457
0.369033
0.385327
0.402376
0.420212
0.438873
0.458398
0.478824
0.500192
0.522544
0.545922
0.570368
0.595925
0.622634
0.650527
0.679639
0.710011
0.741683
0.774694
0.80908
0.844875
0.882112
0.920819
0.961025
1.00275
1.04602
1.09085
1.13726
1.18526
1.23488
1.28608
1.3388
1.39304
1.4488
1.50606
1.5648
1.62497
1.68655
1.74949
1.81375
1.87927
1.946
2.01387
2.08282
2.15279
2.2237
2.29547
2.36803
2.4413
2.5152
2.58964
2.66455
2.73982
2.81534
2.89104
2.96684
3.04265
3.11842
3.19406
3.26951
3.34474
3.41952
3.49368
3.56714
3.63984
3.71171
3.78267
3.85265
3.92157
3.98938
4.05599
4.12134
4.18535
4.24796
4.30908
4.36864
4.42657
4.48281
4.53729
4.58995
4.64074
4.68959
4.73645
4.78128
4.82402
4.86463
4.90307
4.9393
4.97327
5.00497
5.03435
5.06139
5.08607
5.10838
5.1283
5.14583
5.16097
5.1737
5.18404
5.19199
5.19757
5.20078
5.20166
5.20021
5.19647
5.19047
5.18225
5.17183
5.15926
5.14459
5.12786
5.10912
5.08842
5.06581
5.04136
5.01511
4.98714
4.9575
4.92626
4.89348
4.85922
4.82356
4.78656
4.74828
4.7088
4.66819
4.62651
4.58384
4.54023
4.49577
4.45051
4.40453
4.35789
4.31067
4.26292
4.21473
4.16616
4.1173
4.06823
4.01905
3.96985
3.92074
3.87186
3.82334
3.77534
3.72804
3.6816
3.63618
3.5919
3.5486
3.50651
0.0295484
0.0644658
0.0821014
0.0945377
0.104678
0.113562
0.121697
0.12938
0.136804
0.144111
0.151404
0.158762
0.166248
0.173914
0.181801
0.189946
0.198381
0.207135
0.216235
0.225711
0.235589
0.245897
0.256664
0.267922
0.279701
0.292035
0.304958
0.318505
0.332715
0.347629
0.363288
0.379736
0.397013
0.415161
0.434224
0.454251
0.475292
0.497397
0.520616
0.545003
0.570611
0.597498
0.625737
0.655303
0.686242
0.718606
0.752439
0.78778
0.824661
0.863114
0.903164
0.944834
0.988141
1.0331
1.07972
1.128
1.17794
1.22955
1.28281
1.33769
1.39415
1.45217
1.51171
1.57274
1.63522
1.6991
1.76434
1.83088
1.89866
1.96763
2.03772
2.10886
2.18097
2.25399
2.32784
2.40243
2.4777
2.55354
2.62989
2.70666
2.78375
2.86109
2.93858
3.01613
3.09367
3.17113
3.24843
3.32554
3.40232
3.47854
3.55413
3.62901
3.70311
3.77635
3.84866
3.91998
3.99022
4.05932
4.12721
4.19383
4.25909
4.32293
4.38529
4.4461
4.50527
4.56276
4.61849
4.67241
4.72446
4.77458
4.82272
4.86883
4.91286
4.95477
4.9945
5.03204
5.06732
5.10034
5.13104
5.15941
5.18542
5.20906
5.23031
5.24916
5.26561
5.27965
5.29128
5.30051
5.30735
5.31181
5.31391
5.31367
5.31111
5.30626
5.29915
5.28982
5.27831
5.26465
5.2489
5.23109
5.21129
5.18953
5.16587
5.14038
5.11311
5.08411
5.05346
5.02121
4.98743
4.95218
4.91553
4.87754
4.83829
4.79783
4.75624
4.71358
4.66992
4.62533
4.57987
4.53361
4.48662
4.43896
4.39069
4.34189
4.29263
4.24297
4.19299
4.14279
4.09244
4.04205
3.99173
3.9416
3.8918
3.84249
3.79382
3.74597
3.69907
3.65326
3.60836
3.56465
0.0289711
0.0635044
0.080805
0.0929733
0.102868
0.111517
0.119424
0.126884
0.134093
0.141188
0.148272
0.155424
0.162705
0.170167
0.177852
0.185798
0.194039
0.202608
0.211537
0.220857
0.230603
0.240807
0.251507
0.262739
0.274546
0.28697
0.300052
0.313835
0.328371
0.343715
0.359926
0.377073
0.395201
0.414332
0.434536
0.455878
0.478419
0.502219
0.527338
0.553833
0.58176
0.611172
0.642117
0.674621
0.708715
0.744434
0.781807
0.820859
0.861606
0.904061
0.948231
0.994116
1.04171
1.09101
1.142
1.19465
1.24895
1.30486
1.36236
1.4214
1.48194
1.54392
1.6073
1.67202
1.73805
1.80531