/*--------------------------------*- C++ -*----------------------------------*\
  =========                 |
  \\      /  F ield         | OpenFOAM: The Open Source CFD Toolbox
   \\    /   O peration     | Website:  https://openfoam.org
    \\  /    A nd           | Version:  9
     \\/     M anipulation  |
\*---------------------------------------------------------------------------*/
FoamFile
{
    format      ascii;
    class       volScalarField;
    location    "0.092";
    object      p;
}
// * * * * * * * * * * * * * * * * * * * * * * * * * * * * * * * * * * * * * //

dimensions      [0 2 -2 0 0 0 0];

internalField   nonuniform List<scalar> 
12225
(
307.419
316.294
321.267
324.233
325.968
326.831
327.109
326.923
326.323
325.416
324.359
323.261
322.13
320.961
319.734
318.463
317.083
315.516
308.218
316.449
321.346
324.299
326.024
326.867
327.115
326.907
326.303
325.409
324.367
323.275
322.145
320.964
319.724
318.43
317.034
315.369
308.702
316.769
321.555
324.46
326.138
326.942
327.158
326.925
326.316
325.434
324.404
323.307
322.157
320.951
319.692
318.371
316.929
315.293
308.825
317.222
321.884
324.7
326.31
327.064
327.244
326.988
326.369
325.489
324.457
323.345
322.178
320.955
319.677
318.33
316.877
315.291
310.329
318.048
322.406
325.072
326.575
327.257
327.385
327.087
326.447
325.56
324.524
323.405
322.224
320.984
319.685
318.321
316.872
315.345
310.904
319.059
323.092
325.555
326.922
327.515
327.585
327.247
326.581
325.679
324.63
323.491
322.287
321.025
319.71
318.341
316.913
315.444
315.347
320.617
324.017
326.19
327.378
327.867
327.861
327.458
326.749
325.824
324.759
323.603
322.38
321.101
319.774
318.402
316.993
315.566
319.394
322.391
325.153
326.965
327.945
328.313
328.219
327.746
326.988
326.028
324.932
323.748
322.501
321.204
319.866
318.494
317.101
315.706
322.77
324.332
326.503
327.926
328.663
328.883
328.668
328.103
327.286
326.29
325.164
323.949
322.672
321.352
320
318.627
317.245
315.873
325.2
326.351
327.947
329.031
329.52
329.571
329.228
328.561
327.668
326.611
325.436
324.183
322.879
321.539
320.174
318.797
317.422
316.066
327.049
328.454
329.677
330.364
330.574
330.41
329.895
329.106
328.129
327.009
325.784
324.489
323.147
321.777
320.394
319.011
317.642
316.297
327.32
330.317
331.264
331.639
331.628
331.29
330.625
329.721
328.649
327.45
326.16
324.811
323.431
322.035
320.637
319.246
317.871
316.521
331.131
332.914
333.326
333.222
332.906
332.335
331.475
330.412
329.222
327.94
326.588
325.191
323.768
322.339
320.914
319.506
318.121
316.766
339.595
336.244
335.568
335.045
334.44
333.613
332.55
331.333
330.013
328.618
327.172
325.697
324.213
322.739
321.284
319.853
318.451
317.082
342.948
339.462
338.462
337.596
336.601
335.392
334.024
332.553
331.025
329.479
327.92
326.352
324.793
323.258
321.756
320.291
318.868
317.49
340.87
342.016
341.616
340.6
339.143
337.522
335.852
334.118
332.368
330.636
328.924
327.232
325.572
323.956
322.39
320.875
319.412
317.997
342.352
346.133
346.297
344.761
342.717
340.52
338.324
336.186
334.111
332.11
330.182
328.327
326.544
324.831
323.184
321.601
320.08
318.62
353.426
355.524
353.612
350.57
347.296
344.158
341.291
338.662
336.219
333.922
331.752
329.704
327.768
325.929
324.176
322.506
320.913
319.389
389.229
374.459
365.036
358.299
352.916
348.542
344.805
341.537
338.629
335.979
333.534
331.267
329.153
327.167
325.292
323.522
321.847
320.258
399.57
382.394
370.606
362.354
356.198
351.258
347.088
343.525
340.395
337.552
334.937
332.512
330.278
328.194
326.232
324.381
322.632
320.975
399.978
382.356
371.351
363.485
357.345
352.35
348.17
344.546
341.328
338.403
335.709
333.25
330.963
328.826
326.818
324.926
323.142
321.454
387.877
377.892
369.538
362.842
357.336
352.722
348.703
345.138
341.936
339.02
336.288
333.781
331.457
329.289
327.255
325.337
323.526
321.811
378.672
372.927
366.993
361.487
356.736
352.563
348.785
345.336
342.187
339.268
336.609
334.116
331.788
329.61
327.561
325.626
323.798
322.069
376.222
369.068
364.56
360.176
356.079
352.299
348.755
345.441
342.364
339.503
336.844
334.353
332.017
329.826
327.763
325.812
323.973
322.234
368.056
365.723
362.38
358.941
355.414
351.968
348.627
345.433
342.418
339.606
336.969
334.492
332.166
329.978
327.912
325.958
324.111
322.361
357.153
361.246
360.49
357.966
354.922
351.722
348.54
345.44
342.481
339.688
337.058
334.586
332.259
330.068
328
326.039
324.183
322.431
359.746
359.974
359.253
357.233
354.467
351.51
348.446
345.402
342.476
339.708
337.098
334.639
332.325
330.142
328.075
326.121
324.262
322.498
354.041
358.13
358.469
356.807
354.246
351.393
348.401
345.398
342.491
339.73
337.121
334.663
332.355
330.178
328.111
326.148
324.282
322.516
352.27
357.329
357.981
356.521
354.111
351.322
348.364
345.379
342.483
339.728
337.127
334.681
332.382
330.213
328.152
326.188
324.313
322.534
351.835
357.016
357.787
356.448
354.083
351.304
348.356
345.38
342.484
339.721
337.115
334.671
332.382
330.222
328.167
326.204
324.329
322.549
286.028
285.965
285.864
285.755
285.669
285.618
285.599
285.582
285.532
285.416
285.214
284.923
284.545
284.083
283.556
282.992
282.406
281.801
281.185
280.577
279.959
279.292
278.53
277.652
276.69
275.719
274.835
274.137
273.66
273.39
273.272
273.265
273.255
273.141
272.955
272.681
272.236
271.571
271.299
271.68
272.368
272.131
270.448
267.452
263.686
259.499
255.118
250.714
246.402
242.273
238.402
234.854
231.688
228.957
226.702
224.959
223.758
223.126
223.069
223.567
224.581
226.056
227.915
230.052
232.325
234.544
236.478
237.881
238.576
238.604
238.317
238.214
238.804
240.297
242.692
245.556
248.332
250.611
252.328
253.756
255.19
256.808
258.32
259.553
260.49
261.184
261.677
261.985
262.17
262.295
262.375
262.425
262.452
262.47
262.489
262.516
262.552
262.572
262.582
262.629
262.801
262.912
262.773
262.346
261.783
260.933
259.827
259.094
257.572
256.964
255.727
246.949
233.55
219.319
206.07
194.839
186.089
180.049
176.751
176.061
177.691
181.159
185.874
191.194
196.541
201.494
205.824
209.447
212.36
214.623
216.323
217.546
218.362
218.803
218.872
218.554
217.843
216.794
215.496
214.039
212.495
210.906
209.292
207.649
205.966
204.231
202.423
200.513
198.467
196.25
193.839
191.23
188.441
185.512
182.5
179.475
176.52
173.721
171.191
169.052
167.295
166.037
165.086
164.089
163.184
161.749
158.423
153.906
150.935
150.099
150.077
149.961
149.457
148.503
147.204
145.75
144.266
142.786
141.306
139.811
285.945
285.867
285.741
285.606
285.507
285.458
285.444
285.437
285.399
285.298
285.108
284.827
284.463
284.022
283.521
282.99
282.441
281.85
281.204
280.522
279.813
279.053
278.205
277.25
276.218
275.174
274.219
273.459
272.973
272.741
272.67
272.716
272.889
273.048
273.096
273.224
273.021
272.092
271.061
270.313
269.906
269.186
267.306
264.376
260.806
256.85
252.711
248.531
244.414
240.448
236.708
233.263
230.178
227.513
225.322
223.652
222.533
221.961
221.931
222.431
223.431
224.876
226.692
228.777
230.993
233.165
235.074
236.483
237.206
237.27
237.033
237.056
237.856
239.635
242.241
245.232
248.01
250.126
251.682
253.201
254.711
256.372
257.909
259.25
260.32
261.089
261.627
261.973
262.193
262.338
262.413
262.443
262.446
262.443
262.446
262.461
262.498
262.517
262.501
262.491
262.643
262.848
262.78
262.379
261.813
261.049
259.897
259.005
257.763
255.646
251.486
241.441
228.323
214.856
202.452
191.901
183.661
177.991
174.982
174.53
176.351
180.008
184.919
190.437
195.96
201.048
205.471
209.151
212.095
214.368
216.069
217.288
218.104
218.555
218.645
218.359
217.692
216.684
215.416
213.981
212.451
210.873
209.266
207.626
205.943
204.205
202.392
200.476
198.423
196.198
193.777
191.157
188.357
185.416
182.393
179.358
176.395
173.587
171.03
168.812
166.986
165.594
164.525
163.422
162.518
161.169
157.762
153.361
150.768
150.171
150.159
149.993
149.474
148.543
147.257
145.783
144.263
142.762
141.287
139.771
286.08
286.026
285.939
285.84
285.737
285.645
285.563
285.473
285.344
285.163
284.923
284.631
284.299
283.915
283.455
282.949
282.426
281.885
281.33
280.736
280.025
279.145
278.109
276.958
275.747
274.523
273.373
272.453
271.879
271.643
271.705
272.077
272.78
273.077
272.68
272.046
271.34
270.439
269.307
267.971
266.48
264.698
262.422
259.65
256.454
252.93
249.191
245.343
241.485
237.711
234.107
230.758
227.741
225.123
222.966
221.318
220.207
219.651
219.639
220.147
221.137
222.554
224.322
226.347
228.515
230.683
232.678
234.308
235.402
235.956
236.251
236.766
237.915
239.767
242.553
245.411
247.892
249.657
250.941
252.147
253.909
255.671
257.312
258.788
260.011
260.91
261.57
262.007
262.269
262.422
262.473
262.467
262.424
262.376
262.342
262.329
262.36
262.384
262.327
262.236
262.356
262.692
262.771
262.513
261.983
261.253
260.251
259.017
256.614
251.838
244.099
233.355
221.43
209.237
197.821
187.92
180.131
174.777
172.018
171.796
173.874
177.827
183.076
188.952
194.807
200.157
204.765
208.564
211.575
213.879
215.584
216.793
217.601
218.061
218.183
217.952
217.354
216.416
215.21
213.826
212.34
210.796
209.211
207.581
205.9
204.157
202.334
200.405
198.336
196.09
193.647
191.002
188.176
185.211
182.164
179.108
176.123
173.295
170.71
168.459
166.587
165.085
163.868
162.667
161.487
159.955
157.212
153.846
151.496
150.591
150.347
150.113
149.533
148.512
147.196
145.728
144.249
142.77
141.27
139.705
286.497
286.495
286.486
286.382
286.228
286.028
285.786
285.511
285.213
284.902
284.579
284.24
283.898
283.556
283.211
282.869
282.506
282.105
281.684
281.172
280.462
279.513
278.341
276.99
275.529
274.087
272.803
271.836
271.247
270.953
270.883
271.026
271.283
271.37
271.068
270.34
269.282
267.972
266.454
264.734
262.8
260.596
258.084
255.265
252.152
248.783
245.221
241.539
237.822
234.158
230.635
227.344
224.368
221.787
219.665
218.05
216.972
216.458
216.499
217.072
218.125
219.591
221.392
223.44
225.642
227.895
230.09
232.109
233.842
235.247
236.46
237.802
239.636
242.104
244.456
246.742
248.55
249.732
250.655
251.851
253.515
255.259
256.831
258.246
259.51
260.525
261.309
261.862
262.205
262.399
262.457
262.429
262.345
262.255
262.182
262.125
262.143
262.166
262.08
261.917
261.995
262.439
262.74
262.67
262.244
261.585
260.452
258.52
253.957
246.233
236.538
225.697
214.383
202.93
192.17
182.765
175.358
170.313
167.827
167.87
170.26
174.598
180.312
186.701
193.046
198.795
203.692
207.681
210.812
213.193
214.938
216.161
216.965
217.433
217.578
217.393
216.866
216.013
214.892
213.586
212.167
210.677
209.131
207.524
205.848
204.098
202.259
200.307
198.208
195.927
193.443
190.756
187.888
184.883
181.799
178.708
175.693
172.835
170.221
167.929
166.001
164.421
163.113
161.829
160.485
158.983
156.81
154.074
151.953
151.055
150.741
150.301
149.54
148.481
147.185
145.741
144.241
142.726
141.209
139.629
286.761
286.756
286.703
286.588
286.362
286.041
285.67
285.288
284.917
284.571
284.249
283.948
283.667
283.405
283.169
282.966
282.761
282.533
282.241
281.778
281.081
280.125
278.948
277.636
276.165
274.729
273.417
272.379
271.66
271.215
270.946
270.749
270.508
270.097
269.401
268.355
266.967
265.31
263.458
261.443
259.24
256.797
254.09
251.125
247.924
244.521
240.959
237.297
233.603
229.957
226.446
223.159
220.186
217.614
215.511
213.918
212.872
212.48
212.677
213.412
214.629
216.26
218.226
220.44
222.816
225.275
227.747
230.174
232.513
234.744
236.904
239.111
241.52
244.142
246.586
248.564
249.81
250.554
251.153
252.14
253.574
255.117
256.524
257.803
258.986
260.016
260.867
261.533
262
262.285
262.402
262.388
262.267
262.131
261.998
261.885
261.843
261.852
261.753
261.539
261.583
262.088
262.63
262.814
262.625
262.126
261.006
257.447
250.027
240.132
229.492
218.505
207.231
196.025
185.57
176.489
169.377
164.608
162.387
162.721
165.46
170.246
176.521
183.562
190.568
196.876
202.188
206.46
209.778
212.287
214.122
215.402
216.235
216.731
216.903
216.756
216.287
215.514
214.488
213.276
211.942
210.522
209.025
207.445
205.777
204.015
202.15
200.159
198.012
195.677
193.134
190.388
187.464
184.405
181.272
178.133
175.068
172.167
169.512
167.174
165.187
163.545
162.188
160.901
159.561
158.149
156.326
154.065
152.296
151.5
151.082
150.489
149.611
148.478
147.15
145.696
144.206
142.692
141.161
139.555
287.094
287.056
286.932
286.687
286.342
285.94
285.523
285.12
284.749
284.419
284.134
283.892
283.69
283.523
283.391
283.294
283.207
283.093
282.867
282.469
281.865
281.057
280.037
278.859
277.619
276.394
275.249
274.234
273.368
272.626
271.949
271.253
270.445
269.445
268.194
266.662
264.868
262.863
260.696
258.381
255.897
253.209
250.299
247.172
243.848
240.356
236.73
233.012
229.258
225.536
221.927
218.528
215.443
212.773
210.617
209.065
208.17
207.859
208.178
209.093
210.545
212.453
214.725
217.262
219.973
222.777
225.613
228.448
231.271
234.085
236.895
239.713
242.539
245.277
247.707
249.623
250.875
251.515
252.033
252.789
253.867
255.075
256.277
257.431
258.509
259.503
260.377
261.117
261.701
262.101
262.302
262.329
262.214
262.033
261.829
261.627
261.484
261.446
261.327
261.064
261.073
261.606
262.347
262.764
262.794
262.409
260.863
255.353
245.387
234.136
222.865
211.471
199.9
188.648
178.295
169.425
162.546
158.008
156.009
156.584
159.634
164.856
171.725
179.514
187.335
194.375
200.244
204.902
208.477
211.169
213.144
214.515
215.426
215.976
216.193
216.09
215.677
214.98
214.047
212.936
211.695
210.349
208.9
207.34
205.667
203.879
201.972
199.926
197.714
195.308
192.695
189.881
186.894
183.776
180.583
177.386
174.264
171.301
168.582
166.184
164.154
162.477
161.096
159.841
158.577
157.279
155.729
153.91
152.482
151.768
151.31
150.646
149.674
148.467
147.115
145.672
144.187
142.661
141.105
139.481
287.725
287.56
287.231
286.841
286.406
285.942
285.48
285.049
284.668
284.345
284.088
283.897
283.777
283.726
283.725
283.759
283.775
283.705
283.509
283.175
282.684
282.034
281.233
280.3
279.278
278.222
277.176
276.162
275.178
274.198
273.179
272.058
270.765
269.237
267.448
265.414
263.185
260.813
258.324
255.714
252.959
250.036
246.933
243.65
240.192
236.565
232.785
228.878
224.889
220.885
216.958
213.225
209.821
206.885
204.553
202.931
202.065
201.895
202.437
203.662
205.496
207.839
210.58
213.608
216.818
220.123
223.449
226.751
230.009
233.224
236.401
239.52
242.525
245.309
247.719
249.616
250.935
251.769
252.385
253.051
253.904
254.899
255.964
257.032
258.057
259.028
259.917
260.705
261.366
261.867
262.156
262.254
262.168
261.965
261.696
261.391
261.113
260.97
260.8
260.472
260.414
260.918
261.758
262.346
262.478
262.007
259.698
252.229
240.445
228.321
216.464
204.47
192.476
181.065
170.753
162.059
155.391
151.054
149.222
149.976
153.252
158.805
166.183
174.702
183.424
191.347
197.918
203.066
206.969
209.896
212.053
213.539
214.564
215.194
215.474
215.429
215.079
214.459
213.617
212.601
211.446
210.167
208.756
207.204
205.51
203.681
201.715
199.598
197.306
194.82
192.132
189.251
186.202
183.023
179.769
176.505
173.31
170.273
167.481
165.009
162.916
161.202
159.812
158.621
157.483
156.338
155.055
153.624
152.469
151.843
151.408
150.736
149.726
148.48
147.107
145.658
144.165
142.63
141.058
139.42
287.885
287.681
287.273
286.838
286.382
285.91
285.439
285.004
284.63
284.336
284.125
283.998
283.959
283.993
284.076
284.188
284.25
284.208
284.058
283.795
283.413
282.905
282.271
281.522
280.677
279.759
278.786
277.766
276.693
275.546
274.285
272.851
271.185
269.239
267.012
264.549
261.926
259.206
256.416
253.542
250.553
247.416
244.114
240.635
236.959
233.066
228.947
224.618
220.131
215.577
211.09
206.831
202.981
199.716
197.178
195.462
194.613
194.672
195.586
197.277
199.644
202.566
205.911
209.549
213.362
217.25
221.129
224.939
228.639
232.202
235.608
238.836
241.846
244.568
246.906
248.787
250.201
251.234
252.049
252.824
253.68
254.624
255.617
256.617
257.601
258.557
259.458
260.278
260.988
261.557
261.936
262.11
262.072
261.87
261.559
261.169
260.755
260.45
260.17
259.763
259.601
259.982
260.741
261.36
261.43
260.652
257.406
248.389
235.409
222.69
210.259
197.622
185.234
173.688
163.467
155.007
148.597
144.47
142.777
143.649
147.043
152.76
160.438
169.512
179.072
187.944
195.326
201.058
205.352
208.553
210.902
212.552
213.701
214.428
214.787
214.814
214.537
213.995
213.232
212.291
211.2
209.965
208.573
207.01
205.282
203.4
201.366
199.171
196.8
194.238
191.483
188.541
185.433
182.189
178.86
175.515
172.237
169.117
166.243
163.693
161.532
159.774
158.372
157.247
156.255
155.306
154.301
153.2
152.273
151.748
151.373
150.751
149.758
148.497
147.102
145.644
144.149
142.61
141.025
139.372
287.648
287.462
287.183
286.819
286.392
285.941
285.509
285.133
284.83
284.609
284.469
284.404
284.436
284.518
284.621
284.716
284.744
284.69
284.558
284.339
284.025
283.605
283.076
282.443
281.713
280.889
279.973
278.961
277.843
276.594
275.176
273.531
271.602
269.353
266.796
263.995
261.043
258.022
254.967
251.863
248.661
245.309
241.772
238.017
234.004
229.691
225.054
220.118
214.96
209.714
204.566
199.731
195.424
191.844
189.145
187.427
186.728
187.043
188.337
190.526
193.486
197.062
201.089
205.408
209.877
214.375
218.804
223.09
227.184
231.053
234.664
237.983
240.969
243.592
245.838
247.708
249.224
250.446
251.474
252.411
253.334
254.277
255.232
256.183
257.129
258.056
258.946
259.775
260.516
261.131
261.576
261.818
261.841
261.668
261.348
260.91
260.391
259.913
259.464
258.946
258.631
258.774
259.226
259.645
259.49
258.243
254.079
244.213
230.42
217.35
204.391
191.197
178.537
166.965
156.938
148.783
142.658
138.725
137.148
138.085
141.529
147.292
155.067
164.437
174.634
184.4
192.634
199.013
203.733
207.23
209.778
211.605
212.885
213.716
214.163
214.272
214.074
213.601
212.895
211.996
210.931
209.703
208.297
206.707
204.938
203.003
200.909
198.649
196.214
193.593
190.781
187.78
184.602
181.275
177.849
174.399
171.016
167.797
164.841
162.226
160.009
158.218
156.813
155.743
154.895
154.168
153.447
152.644
151.929
151.509
151.215
150.683
149.747
148.499
147.096
145.635
144.142
142.602
141.005
139.337
287.706
287.561
287.318
286.987
286.593
286.191
285.82
285.507
285.269
285.112
285.036
285.024
285.076
285.169
285.26
285.307
285.291
285.215
285.077
284.87
284.581
284.2
283.724
283.153
282.484
281.715
280.837
279.838
278.7
277.395
275.881
274.105
272.01
269.565
266.781
263.729
260.512
257.232
253.943
250.627
247.219
243.643
239.835
235.746
231.319
226.497
221.257
215.64
209.763
203.803
197.988
192.568
187.781
183.84
180.919
179.131
178.518
179.061
180.728
183.432
187.024
191.318
196.103
201.179
206.37
211.53
216.538
221.3
225.758
229.877
233.637
237.019
240.004
242.579
244.753
246.575
248.12
249.461
250.657
251.754
252.789
253.792
254.769
255.72
256.646
257.545
258.412
259.226
259.978
260.614
261.093
261.382
261.455
261.315
261.006
260.551
259.971
259.354
258.717
258.04
257.516
257.298
257.229
257.183
256.677
254.947
250.114
239.767
225.732
212.457
199.057
185.475
172.706
161.226
151.462
143.61
137.72
133.895
132.368
133.31
136.8
142.628
150.421
159.89
170.479
180.978
190.024
197.061
202.193
205.988
208.73
210.731
212.142
213.076
213.612
213.8
213.672
213.251
212.57
211.671
210.587
209.329
207.89
206.264
204.46
202.489
200.356
198.054
195.576
192.908
190.041
186.971
183.706
180.268
176.713
173.123
169.601
166.257
163.205
160.531
158.292
156.497
155.126
154.128
153.423
152.917
152.479
151.97
151.47
151.158
150.948
150.523
149.683
148.481
147.09
145.631
144.141
142.6
140.996
139.317
288.029
287.891
287.678
287.39
287.054
286.704
286.381
286.115
285.922
285.811
285.772
285.796
285.862
285.94
285.989
285.986
285.931
285.826
285.669
285.451
285.159
284.783
284.322
283.774
283.131
282.383
281.52
280.524
279.372
278.032
276.464
274.618
272.439
269.89
266.974
263.752
260.331
256.829
253.323
249.805
246.196
242.393
238.307
233.87
229.017
223.686
217.858
211.592
205.031
198.387
191.921
185.911
180.615
176.257
173.025
171.054
170.409
171.096
173.075
176.246
180.443
185.45
191.012
196.874
202.815
208.662
214.264
219.507
224.323
228.687
232.6
236.061
239.067
241.623
243.761
245.538
247.047
248.393
249.652
250.859
252.016
253.12
254.17
255.168
256.121
257.031
257.895
258.706
259.446
260.08
260.569
260.874
260.973
260.851
260.545
260.078
259.468
258.755
257.953
257.093
256.32
255.656
254.915
254.216
253.259
251.106
245.897
235.45
221.568
208.012
194.426
180.675
167.951
156.639
147.148
139.539
133.757
129.889
128.296
129.189
132.763
138.755
146.614
156.097
166.887
177.916
187.659
195.304
200.757
204.825
207.784
209.936
211.462
212.489
213.101
213.353
213.273
212.875
212.186
211.253
210.127
208.827
207.35
205.697
203.876
201.892
199.742
197.419
194.911
192.201
189.272
186.118
182.74
179.163
175.447
171.684
167.989
164.485
161.305
158.553
156.294
154.544
153.263
152.384
151.838
151.547
151.388
151.188
150.92
150.722
150.588
150.275
149.563
148.444
147.081
145.629
144.144
142.607
140.998
139.31
288.646
288.535
288.354
288.093
287.78
287.458
287.165
286.939
286.791
286.719
286.711
286.746
286.8
286.84
286.838
286.788
286.694
286.556
286.369
286.128
285.816
285.424
284.951
284.397
283.752
283.003
282.134
281.127
279.957
278.594
276.997
275.122
272.917
270.341
267.381
264.077
260.519
256.831
253.114
249.39
245.585
241.577
237.245
232.501
227.282
221.534
215.234
208.445
201.332
194.131
187.122
180.6
174.839
170.078
166.521
164.32
163.558
164.249
166.368
169.831
174.472
180.054
186.285
192.845
199.452
205.903
212.033
217.7
222.83
227.407
231.453
235.006
238.095
240.735
242.937
244.736
246.219
247.515
248.73
249.923
251.107
252.268
253.386
254.454
255.473
256.439
257.346
258.185
258.942
259.59
260.089
260.398
260.491
260.36
260.032
259.533
258.896
258.115
257.19
256.154
255.124
253.999
252.532
251.091
249.654
247.165
241.831
231.561
217.931
204.326
190.647
176.99
164.374
153.25
143.974
136.484
130.665
126.629
124.854
125.719
129.397
135.66
143.66
153.133
163.998
175.355
185.631
193.662
199.498
203.78
206.914
209.192
210.812
211.913
212.578
212.864
212.798
212.393
211.677
210.708
209.545
208.213
206.716
205.056
203.238
201.26
199.109
196.775
194.24
191.481
188.479
185.22
181.703
177.956
174.048
170.079
166.178
162.486
159.148
156.291
153.999
152.308
151.161
150.463
150.121
150.06
150.181
150.3
150.288
150.221
150.16
149.957
149.39
148.382
147.068
145.632
144.154
142.622
141.012
139.316
289.63
289.533
289.363
289.11
288.814
288.516
288.253
288.052
287.926
287.87
287.863
287.88
287.896
287.884
287.828
287.731
287.596
287.419
287.198
286.924
286.583
286.162
285.659
285.079
284.411
283.641
282.753
281.727
280.538
279.158
277.551
275.677
273.489
270.942
268.01
264.705
261.088
257.268
253.363
249.43
245.426
241.24
236.73
231.773
226.3
220.279
213.698
206.611
199.171
191.62
184.248
177.362
171.252
166.168
162.316
159.858
158.897
159.471
161.574
165.134
169.985
175.888
182.547
189.6
196.687
203.568
210.065
216.015
221.331
226.027
230.154
233.786
236.965
239.717
242.066
244.027
245.626
246.945
248.107
249.21
250.3
251.391
252.473
253.544
254.599
255.632
256.618
257.537
258.363
259.07
259.623
259.972
260.073
259.921
259.55
258.997
258.311
257.471
256.461
255.273
254.016
252.485
250.353
248.21
246.324
243.591
238.294
228.393
215.091
201.575
187.95
174.431
161.965
151.016
141.845
134.346
128.393
124.179
122.272
123.077
126.849
133.404
141.566
151.018
161.859
173.442
183.905
192.232
198.34
202.804
206.075
208.453
210.145
211.292
211.982
212.269
212.19
211.764
211.026
210.04
208.867
207.532
206.04
204.394
202.596
200.633
198.486
196.138
193.57
190.751
187.658
184.273
180.589
176.64
172.505
168.292
164.143
160.226
156.705
153.728
151.396
149.761
148.774
148.313
148.238
148.447
148.858
149.303
149.578
149.672
149.692
149.59
149.169
148.294
147.053
145.643
144.176
142.649
141.037
139.334
290.956
290.866
290.702
290.464
290.181
289.896
289.644
289.451
289.328
289.259
289.222
289.192
289.146
289.07
288.958
288.813
288.633
288.416
288.157
287.844
287.466
287.011
286.47
285.848
285.141
284.338
283.422
282.374
281.17
279.784
278.185
276.336
274.195
271.719
268.872
265.637
262.044
258.172
254.128
250
245.794
241.45
236.82
231.762
226.193
220.078
213.426
206.286
198.792
191.17
183.699
176.682
170.415
165.157
161.123
158.484
157.324
157.744
159.729
163.188
167.965
173.831
180.537
187.74
195.004
202.046
208.701
214.756
220.085
224.725
228.773
232.403
235.648
238.534
241.058
243.214
245.015
246.499
247.742
248.836
249.842
250.785
251.698
252.624
253.6
254.623
255.659
256.659
257.58
258.388
259.049
259.501
259.676
259.543
259.145
258.542
257.787
256.89
255.815
254.517
253.088
251.277
248.653
245.962
243.697
240.793
235.613
226.188
213.289
199.912
186.402
173.025
160.685
149.837
140.678
133.089
126.98
122.659
120.72
121.51
125.324
132.032
140.366
149.8
160.524
172.066
182.567
191.017
197.274
201.858
205.229
207.681
209.416
210.582
211.271
211.541
211.44
211.002
210.266
209.294
208.143
206.834
205.37
203.753
201.982
200.034
197.883
195.512
192.901
190.01
186.807
183.269
179.388
175.205
170.809
166.311
161.865
157.668
153.918
150.797
148.422
146.856
146.055
145.885
146.149
146.688
147.417
148.196
148.789
149.086
149.204
149.193
148.912
148.186
147.041
145.669
144.212
142.691
141.076
139.366
292.571
292.488
292.332
292.104
291.831
291.552
291.3
291.097
290.949
290.838
290.743
290.644
290.524
290.379
290.211
290.015
289.787
289.528
289.23
288.879
288.46
287.965
287.384
286.713
285.955
285.105
284.152
283.081
281.869
280.494
278.924
277.127
275.06
272.685
269.959
266.855
263.368
259.54
255.45
251.187
246.805
242.288
237.55
232.469
226.947
220.931
214.425
207.478
200.21
192.812
185.534
178.657
172.466
167.222
163.147
160.415
159.116
159.307
161.024
164.207
168.695
174.267
180.692
187.688
194.802
201.693
208.225
214.18
219.347
223.746
227.595
231.06
234.228
237.155
239.842
242.23
244.271
245.974
247.395
248.602
249.646
250.556
251.358
252.1
252.863
253.722
254.679
255.682
256.663
257.554
258.309
258.883
259.195
259.158
258.786
258.168
257.364
256.421
255.296
253.945
252.408
250.475
247.633
244.584
242.067
239.037
234.006
225.085
212.637
199.415
186.021
172.776
160.517
149.699
140.488
132.786
126.545
122.166
120.255
121.083
124.898
131.665
140.086
149.453
159.971
171.288
181.643
190.032
196.308
200.942
204.365
206.855
208.606
209.768
210.442
210.695
210.587
210.161
209.458
208.532
207.427
206.161
204.737
203.156
201.409
199.468
197.301
194.901
192.238
189.257
185.92
182.201
178.095
173.654
168.964
164.134
159.331
154.79
150.746
147.427
144.993
143.514
142.941
143.122
143.804
144.753
145.85
146.984
147.92
148.467
148.71
148.786
148.632
148.064
147.035
145.713
144.27
142.75
141.131
139.412
294.471
294.394
294.247
294.034
293.776
293.505
293.249
293.024
292.817
292.623
292.433
292.241
292.039
291.825
291.597
291.348
291.072
290.77
290.432
290.043
289.586
289.047
288.417
287.692
286.872
285.961
284.956
283.851
282.632
281.277
279.76
278.046
276.093
273.858
271.293
268.361
265.039
261.335
257.294
252.986
248.485
243.829
239
233.931
228.541
222.77
216.604
210.079
203.291
196.397
189.605
183.157
177.303
172.284
168.305
165.533
164.074
164.001
165.346
168.081
172.091
177.155
183.022
189.489
196.16
202.62
208.749
214.388
219.224
223.22
226.688
229.863
232.845
235.694
238.427
240.986
243.27
245.223
246.879
248.303
249.527
250.525
251.298
251.955
252.626
253.354
254.125
254.955
255.855
256.756
257.557
258.192
258.605
258.703
258.409
257.819
257.016
256.059
254.917
253.563
251.989
250.082
247.338
244.365
241.546
238.398
233.52
225.107
213.147
200.102
186.823
173.71
161.507
150.677
141.379
133.554
127.204
122.796
120.953
121.848
125.653
132.389
140.762
149.962
160.184
171.122
181.146
189.301
195.475
200.081
203.503
205.992
207.732
208.877
209.536
209.788
209.696
209.309
208.664
207.798
206.749
205.533
204.151
202.602
200.872
198.926
196.737
194.305
191.577
188.482
184.985
181.063
176.716
171.99
166.954
161.71
156.452
151.474
147.068
143.501
140.986
139.615
139.327
139.935
141.129
142.592
144.136
145.664
146.972
147.812
148.214
148.382
148.346
147.935
147.038
145.781
144.353
142.831
141.205
139.474
296.468
296.395
296.259
296.059
295.808
295.53
295.254
294.983
294.71
294.424
294.129
293.838
293.555
293.28
293.002
292.707
292.392
292.057
291.687
291.266
290.777
290.196
289.514
288.725
287.828
286.836
285.756
284.595
283.356
282.026
280.581
278.983
277.183
275.126
272.755
270.022
266.894
263.36
259.443
255.193
250.68
245.964
241.081
236.028
230.774
225.283
219.537
213.557
207.406
201.2
195.099
189.29
183.976
179.359
175.623
172.922
171.371
171.049
171.996
174.193
177.584
181.979
187.1
192.795
198.776
204.588
210.099
215.259
219.682
223.187
226.134
228.869
231.535
234.217
236.955
239.655
242.138
244.296
246.155
247.787
249.232
250.451
251.393
252.099
252.678
253.258
253.961
254.754
255.533
256.298
257.026
257.635
258.066
258.235
258.03
257.481
256.711
255.781
254.675
253.355
251.819
250.022
247.54
244.686
241.909
238.764
234.091
226.193
214.763
201.952
188.812
175.834
163.685
152.829
143.437
135.516
129.103
124.705
122.943
123.894
127.678
134.273
142.417
151.317
161.166
171.593
181.123
188.904
194.869
199.373
202.738
205.187
206.899
208.024
208.68
208.945
208.884
208.544
207.957
207.149
206.15
204.976
203.627
202.103
200.382
198.423
196.214
193.745
190.932
187.696
184.025
179.899
175.297
170.238
164.758
158.962
153.097
147.54
142.675
138.831
136.263
135.043
135.133
136.272
138.083
140.171
142.262
144.242
145.953
147.126
147.725
147.996
148.068
147.807
147.052
145.872
144.463
142.935
141.297
139.552
298.32
298.248
298.117
297.917
297.652
297.344
297.026
296.699
296.355
295.987
295.603
295.227
294.878
294.558
294.249
293.929
293.595
293.248
292.869
292.435
291.927
291.316
290.581
289.714
288.722
287.621
286.435
285.191
283.91
282.596
281.232
279.773
278.156
276.305
274.147
271.62
268.682
265.317
261.539
257.391
252.934
248.237
243.358
238.337
233.19
227.919
222.528
217.036
211.49
205.97
200.587
195.477
190.789
186.675
183.285
180.754
179.185
178.671
179.26
180.945
183.7
187.386
191.729
196.6
201.815
206.924
211.753
216.354
220.377
223.478
225.939
228.178
230.416
232.795
235.426
238.245
240.997
243.425
245.47
247.246
248.853
250.256
251.336
252.112
252.749
253.368
253.988
254.632
255.348
256.1
256.776
257.316
257.694
257.858
257.708
257.198
256.45
255.556
254.513
253.253
251.805
250.134
247.969
245.36
242.708
239.661
235.272
227.932
217.109
204.625
191.676
178.85
166.776
155.909
146.457
138.498
132.087
127.739
126.043