/*--------------------------------*- C++ -*----------------------------------*\
  =========                 |
  \\      /  F ield         | OpenFOAM: The Open Source CFD Toolbox
   \\    /   O peration     | Website:  https://openfoam.org
    \\  /    A nd           | Version:  9
     \\/     M anipulation  |
\*---------------------------------------------------------------------------*/
FoamFile
{
    format      ascii;
    class       volVectorField;
    location    "0.092";
    object      U_0;
}
// * * * * * * * * * * * * * * * * * * * * * * * * * * * * * * * * * * * * * //

dimensions      [0 1 -1 0 0 0 0];

internalField   nonuniform List<vector> 
12225
(
(9.93281 0.0937194 0)
(9.62072 0.0651046 0)
(9.32027 0.0437651 0)
(8.95241 0.0445555 0)
(8.63935 0.0455204 0)
(8.43965 0.0433271 0)
(8.25786 0.0521488 0)
(7.97718 0.0687546 0)
(7.5818 0.075861 0)
(7.15543 0.0662864 0)
(6.77117 0.0512467 0)
(6.46147 0.0433976 0)
(6.18269 0.0468604 0)
(5.94307 0.0540408 0)
(5.66407 0.0650998 0)
(5.4139 0.0677193 0)
(5.08803 0.0972909 0)
(4.81012 0.0968396 0)
(10.0001 0.0858521 0)
(10.0596 0.0700244 0)
(10.141 0.109121 0)
(10.1917 0.109833 0)
(10.1601 0.0746803 0)
(10.072 0.0480508 0)
(10.0064 0.0598604 0)
(9.99796 0.10389 0)
(10.0102 0.148867 0)
(9.99567 0.170223 0)
(9.92419 0.163825 0)
(9.80621 0.146636 0)
(9.65461 0.130632 0)
(9.50362 0.122697 0)
(9.34955 0.128353 0)
(9.21032 0.139769 0)
(9.04791 0.164054 0)
(8.91322 0.234643 0)
(9.98229 0.104995 0)
(10.1203 0.0523181 0)
(10.0271 0.0300624 0)
(9.94619 0.0400472 0)
(9.91168 0.0736152 0)
(9.88553 0.087501 0)
(9.8639 0.0783588 0)
(9.86865 0.0733698 0)
(9.90336 0.0819191 0)
(9.94361 0.0958192 0)
(9.96497 0.109637 0)
(9.96397 0.125172 0)
(9.94892 0.142469 0)
(9.92179 0.157922 0)
(9.88163 0.172886 0)
(9.82767 0.189653 0)
(9.76141 0.220494 0)
(9.69485 0.277791 0)
(10.2135 -0.0176827 0)
(10.331 0.0673074 0)
(10.2485 0.152906 0)
(10.1074 0.13268 0)
(10.0239 0.0855346 0)
(10.0026 0.0581488 0)
(10.0021 0.0638575 0)
(9.9958 0.0955655 0)
(9.98221 0.131076 0)
(9.96884 0.152326 0)
(9.96094 0.156307 0)
(9.95963 0.151914 0)
(9.96304 0.149722 0)
(9.96289 0.154593 0)
(9.95111 0.171566 0)
(9.92595 0.200544 0)
(9.88892 0.240899 0)
(9.85354 0.299612 0)
(10.2408 0.0261984 0)
(10.1954 0.087738 0)
(10.2029 0.106848 0)
(10.1294 0.106918 0)
(10.0126 0.109265 0)
(9.89611 0.0955216 0)
(9.83011 0.0743155 0)
(9.83934 0.0685195 0)
(9.906 0.0804578 0)
(9.98847 0.0979444 0)
(10.047 0.113242 0)
(10.0609 0.127533 0)
(10.0306 0.144615 0)
(9.97073 0.165344 0)
(9.89893 0.190971 0)
(9.83552 0.222102 0)
(9.78841 0.258292 0)
(9.77197 0.306059 0)
(10.0708 8.61736e-05 0)
(10.1063 0.078236 0)
(10.081 0.165997 0)
(10.0136 0.181906 0)
(9.98153 0.155564 0)
(9.97604 0.116734 0)
(9.981 0.0862425 0)
(9.99339 0.0774491 0)
(10.0128 0.0874418 0)
(10.0335 0.106326 0)
(10.0474 0.129077 0)
(10.0512 0.155406 0)
(10.0434 0.184215 0)
(10.0245 0.212208 0)
(9.99016 0.236665 0)
(9.94603 0.259463 0)
(9.89215 0.280452 0)
(9.84316 0.306253 0)
(10.0234 0.0262716 0)
(9.79053 0.140912 0)
(9.75658 0.144355 0)
(9.85462 0.134284 0)
(9.97133 0.122366 0)
(10.054 0.0930395 0)
(10.1166 0.0598305 0)
(10.1712 0.045989 0)
(10.2086 0.0556984 0)
(10.212 0.0790874 0)
(10.1747 0.105687 0)
(10.1076 0.132459 0)
(10.0305 0.161266 0)
(9.95962 0.194876 0)
(9.90151 0.232697 0)
(9.85641 0.273828 0)
(9.82481 0.313802 0)
(9.80145 0.35062 0)
(10.0275 0.104798 0)
(10.0976 0.168216 0)
(10.1149 0.133278 0)
(10.0302 0.099886 0)
(9.98192 0.0839891 0)
(10.0083 0.0625699 0)
(10.0505 0.0433636 0)
(10.0537 0.0467077 0)
(10.0141 0.0767644 0)
(9.95689 0.12447 0)
(9.90656 0.176698 0)
(9.87779 0.222606 0)
(9.87512 0.256511 0)
(9.89598 0.278591 0)
(9.93366 0.292132 0)
(9.97568 0.301697 0)
(10.017 0.31122 0)
(10.04 0.323989 0)
(9.89181 0.0119317 0)
(10.067 0.118349 0)
(10.1727 0.187196 0)
(10.1997 0.20045 0)
(10.1956 0.140027 0)
(10.1799 0.0642773 0)
(10.1484 0.0360326 0)
(10.0944 0.0594224 0)
(10.0243 0.102202 0)
(9.95639 0.135357 0)
(9.90583 0.149231 0)
(9.87878 0.150242 0)
(9.87268 0.150395 0)
(9.88186 0.159848 0)
(9.89961 0.184362 0)
(9.92346 0.222348 0)
(9.94452 0.272362 0)
(9.96855 0.327202 0)
(9.98503 -0.0100955 0)
(9.87145 0.027163 0)
(9.84576 0.0568198 0)
(9.92565 0.0815422 0)
(9.98053 0.0870117 0)
(9.94794 0.0827408 0)
(9.89051 0.0875679 0)
(9.86826 0.107301 0)
(9.88773 0.139101 0)
(9.92276 0.176008 0)
(9.94089 0.210949 0)
(9.92368 0.239 0)
(9.8729 0.257578 0)
(9.80545 0.267324 0)
(9.74334 0.270706 0)
(9.70235 0.275014 0)
(9.68737 0.28214 0)
(9.70095 0.300273 0)
(9.95126 0.174661 0)
(10.0129 0.199614 0)
(10.0825 0.190524 0)
(10.0497 0.178269 0)
(9.92522 0.146124 0)
(9.81095 0.10111 0)
(9.77642 0.0655114 0)
(9.80393 0.0561695 0)
(9.84659 0.0749983 0)
(9.87325 0.112382 0)
(9.87635 0.155503 0)
(9.86437 0.194386 0)
(9.85248 0.223761 0)
(9.85 0.241981 0)
(9.86493 0.253401 0)
(9.89101 0.263814 0)
(9.93182 0.278613 0)
(9.96844 0.302904 0)
(9.7165 0.0199993 0)
(9.84916 -0.0526783 0)
(10.0781 0.00408733 0)
(10.2541 0.125455 0)
(10.2866 0.178754 0)
(10.2272 0.148783 0)
(10.1466 0.0960425 0)
(10.0709 0.0746603 0)
(10.0074 0.0990935 0)
(9.95929 0.151913 0)
(9.92743 0.206928 0)
(9.91111 0.24541 0)
(9.91026 0.261164 0)
(9.92173 0.255575 0)
(9.9435 0.238767 0)
(9.97292 0.222539 0)
(10.0071 0.216058 0)
(10.0457 0.229253 0)
(10.3484 0.136455 0)
(9.98831 0.0938432 0)
(9.84027 0.0655786 0)
(9.8664 0.133704 0)
(9.92023 0.18163 0)
(9.94182 0.174879 0)
(9.9314 0.142041 0)
(9.90289 0.121869 0)
(9.87468 0.130887 0)
(9.8611 0.15892 0)
(9.86774 0.188945 0)
(9.89256 0.209993 0)
(9.92696 0.219817 0)
(9.96329 0.22087 0)
(9.99223 0.21922 0)
(10.0167 0.221741 0)
(10.0309 0.231565 0)
(10.0476 0.253961 0)
(9.82427 0.141568 0)
(9.89687 0.124552 0)
(9.89658 0.0292557 0)
(9.92766 0.0447677 0)
(10.0069 0.0955543 0)
(10.0757 0.121195 0)
(10.0769 0.116606 0)
(10.0132 0.113497 0)
(9.93197 0.129816 0)
(9.87991 0.158431 0)
(9.87539 0.186309 0)
(9.90857 0.205315 0)
(9.95463 0.212381 0)
(9.99338 0.208331 0)
(10.0101 0.196593 0)
(10.0082 0.185283 0)
(9.98743 0.180162 0)
(9.96459 0.188654 0)
(10.1164 0.10297 0)
(10.0936 0.0409246 0)
(10.0372 0.0959417 0)
(9.95655 0.116242 0)
(9.91573 0.122633 0)
(9.91322 0.153201 0)
(9.9109 0.198305 0)
(9.89663 0.229419 0)
(9.88227 0.227034 0)
(9.88614 0.195746 0)
(9.91712 0.157322 0)
(9.96836 0.134221 0)
(10.0238 0.137128 0)
(10.0671 0.165388 0)
(10.0884 0.208875 0)
(10.0845 0.256857 0)
(10.061 0.300515 0)
(10.0242 0.333124 0)
(9.88592 0.116948 0)
(9.81399 0.154931 0)
(9.77715 0.113428 0)
(9.82933 0.0880895 0)
(9.91033 0.0829399 0)
(9.95848 0.0915462 0)
(9.97804 0.110941 0)
(9.98952 0.127921 0)
(9.99222 0.131312 0)
(9.97731 0.121878 0)
(9.94449 0.110199 0)
(9.90335 0.107052 0)
(9.8678 0.117758 0)
(9.85023 0.141354 0)
(9.85853 0.17206 0)
(9.89028 0.204 0)
(9.94004 0.230949 0)
(9.99707 0.252718 0)
(9.95078 0.064058 0)
(9.98326 0.127737 0)
(9.95873 0.0704028 0)
(9.93782 0.0149532 0)
(9.9378 0.041181 0)
(9.93999 0.118875 0)
(9.93517 0.192496 0)
(9.93125 0.237325 0)
(9.92935 0.256532 0)
(9.92497 0.261296 0)
(9.91651 0.256215 0)
(9.90647 0.239938 0)
(9.89915 0.212868 0)
(9.90043 0.180154 0)
(9.91155 0.151451 0)
(9.93255 0.13533 0)
(9.95676 0.13697 0)
(9.98272 0.160962 0)
(9.77776 -0.150902 0)
(9.77719 0.0600192 0)
(9.77333 0.159363 0)
(9.76859 0.119453 0)
(9.78644 0.0793388 0)
(9.82713 0.0723029 0)
(9.88148 0.0884527 0)
(9.93206 0.1075 0)
(9.96993 0.117702 0)
(9.99901 0.119946 0)
(10.0238 0.118496 0)
(10.0442 0.116056 0)
(10.0579 0.11373 0)
(10.0616 0.114197 0)
(10.0528 0.118926 0)
(10.0337 0.130087 0)
(10.008 0.147159 0)
(9.98506 0.169732 0)
(9.83357 0.0563679 0)
(9.84881 0.143067 0)
(9.85807 0.0370635 0)
(9.91213 -0.0265282 0)
(9.9308 -0.027568 0)
(9.9067 0.00209027 0)
(9.87946 0.0512384 0)
(9.87019 0.108526 0)
(9.88282 0.157418 0)
(9.90848 0.18556 0)
(9.93327 0.192511 0)
(9.94921 0.189031 0)
(9.9578 0.188597 0)
(9.96411 0.199724 0)
(9.97252 0.219962 0)
(9.98511 0.242336 0)
(10.0034 0.257977 0)
(10.0281 0.262607 0)
(9.93595 -0.143061 0)
(9.94864 0.00593243 0)
(9.92142 0.0091455 0)
(9.89055 0.00618649 0)
(9.82721 0.0733259 0)
(9.79625 0.143459 0)
(9.82462 0.148968 0)
(9.89726 0.102259 0)
(9.99776 0.0554202 0)
(10.1054 0.0406364 0)
(10.1916 0.0544869 0)
(10.2374 0.0771292 0)
(10.244 0.0919757 0)
(10.225 0.092967 0)
(10.1952 0.0816518 0)
(10.1666 0.0649664 0)
(10.1453 0.0472929 0)
(10.1345 0.0335784 0)
(9.82766 0.0879997 0)
(9.77755 0.0820236 0)
(9.75232 0.103001 0)
(9.74198 0.0983703 0)
(9.76482 0.0858217 0)
(9.83921 0.0368504 0)
(9.94001 -0.0518916 0)
(10.0217 -0.136108 0)
(10.0657 -0.167315 0)
(10.0805 -0.128439 0)
(10.0858 -0.0357908 0)
(10.0999 0.0778525 0)
(10.1282 0.18066 0)
(10.1654 0.253849 0)
(10.2026 0.290709 0)
(10.2312 0.295228 0)
(10.2476 0.275642 0)
(10.2494 0.24074 0)
(9.98876 0.0974385 0)
(9.94824 0.0780623 0)
(9.97012 0.0196683 0)
(10.0218 0.00674169 0)
(10.073 -0.00789884 0)
(10.1113 -0.040337 0)
(10.1299 -0.069021 0)
(10.1154 -0.0651375 0)
(10.0699 -0.031486 0)
(10.0123 0.00433368 0)
(9.96384 0.0230466 0)
(9.93996 0.0236641 0)
(9.9468 0.0144548 0)
(9.98226 0.00743657 0)
(10.0378 0.0103975 0)
(10.102 0.0238864 0)
(10.1651 0.0452042 0)
(10.2183 0.0663176 0)
(9.9983 0.173691 0)
(9.97531 0.0881617 0)
(9.94773 0.0134244 0)
(9.98215 0.00255468 0)
(10.0468 -0.00748891 0)
(10.0921 -0.0376494 0)
(10.0896 -0.0704089 0)
(10.0509 -0.0800983 0)
(10.0053 -0.0541044 0)
(9.97577 -0.00261896 0)
(9.96729 0.0505796 0)
(9.97037 0.0886434 0)
(9.97549 0.106028 0)
(9.97899 0.105539 0)
(9.98289 0.096044 0)
(9.99027 0.0859658 0)
(10.0037 0.0811384 0)
(10.0246 0.0840673 0)
(9.96984 -0.101394 0)
(10.0087 0.0584461 0)
(9.97611 0.0417307 0)
(9.99311 -0.0489244 0)
(10.0285 -0.0888942 0)
(10.0638 -0.0686843 0)
(10.0815 -0.0222286 0)
(10.0767 0.0186297 0)
(10.0587 0.039421 0)
(10.0387 0.0429733 0)
(10.0286 0.0357778 0)
(10.0358 0.0246445 0)
(10.0598 0.014792 0)
(10.0955 0.0081601 0)
(10.137 0.00427908 0)
(10.1793 0.0026003 0)
(10.2184 0.00213838 0)
(10.2512 0.0029198 0)
(10.0215 -0.00409327 0)
(10.017 0.0351073 0)
(10.0617 0.0360375 0)
(10.0729 -0.0345533 0)
(9.9946 -0.0807988 0)
(9.89616 -0.0922333 0)
(9.84953 -0.0817239 0)
(9.86927 -0.0539319 0)
(9.93354 -0.0155399 0)
(10.0084 0.0216544 0)
(10.064 0.0468101 0)
(10.0858 0.0526151 0)
(10.076 0.0407911 0)
(10.0484 0.0203709 0)
(10.0202 0.00238156 0)
(10.0033 -0.00653793 0)
(10.0016 -0.00414824 0)
(10.0148 0.00835543 0)
(10.029 -0.029796 0)
(10.1588 -0.00163742 0)
(10.1901 -0.000930391 0)
(10.142 0.00765723 0)
(10.0749 0.0238361 0)
(10.0385 0.021203 0)
(10.0277 -0.00512734 0)
(10.0222 -0.0383944 0)
(10.0226 -0.0563445 0)
(10.0418 -0.0484396 0)
(10.0844 -0.0184826 0)
(10.1423 0.0182438 0)
(10.202 0.0455653 0)
(10.252 0.0532 0)
(10.2868 0.0405597 0)
(10.3066 0.0159532 0)
(10.3165 -0.0123128 0)
(10.3228 -0.034718 0)
(9.70849 0.0026889 0)
(9.72023 -0.0159368 0)
(9.78856 0.0394196 0)
(9.87769 0.0265107 0)
(9.95304 -0.0233946 0)
(10.0045 -0.0627211 0)
(10.033 -0.0715323 0)
(10.0393 -0.0584119 0)
(10.0368 -0.0411406 0)
(10.045 -0.0303046 0)
(10.076 -0.0272892 0)
(10.1278 -0.0294046 0)
(10.1871 -0.0329666 0)
(10.2378 -0.0342861 0)
(10.2683 -0.031321 0)
(10.2771 -0.0236129 0)
(10.2671 -0.0135865 0)
(10.2506 -0.00510094 0)
(9.83699 0.0890399 0)
(9.85657 -0.041715 0)
(9.87332 -0.0603018 0)
(9.98053 -0.0436362 0)
(10.0719 -0.032573 0)
(10.099 -0.0242346 0)
(10.0909 -0.0225437 0)
(10.0884 -0.0325066 0)
(10.1076 -0.0501984 0)
(10.1387 -0.0653236 0)
(10.1626 -0.0681499 0)
(10.1672 -0.0563032 0)
(10.1531 -0.0353909 0)
(10.1315 -0.0133934 0)
(10.1156 0.00228447 0)
(10.1127 0.0079921 0)
(10.1242 0.00242673 0)
(10.1441 -0.0113354 0)
(9.92764 -0.0421628 0)
(10.0503 -0.030499 0)
(10.001 -0.0304798 0)
(9.97491 -0.057416 0)
(9.98816 -0.0774136 0)
(10.0237 -0.0754295 0)
(10.0828 -0.0685312 0)
(10.1424 -0.0687413 0)
(10.1699 -0.0690867 0)
(10.1546 -0.0599652 0)
(10.1137 -0.0417277 0)
(10.0759 -0.0224464 0)
(10.0636 -0.0100494 0)
(10.086 -0.00755173 0)
(10.1383 -0.0126712 0)
(10.2058 -0.0211595 0)
(10.2742 -0.0294586 0)
(10.3286 -0.0353294 0)
(9.88745 -0.0795913 0)
(9.67393 -0.0600926 0)
(9.60655 -0.0152676 0)
(9.50452 -0.0236417 0)
(9.31274 -0.0475374 0)
(9.08843 -0.0606092 0)
(8.88078 -0.0653328 0)
(8.68632 -0.0648725 0)
(8.50262 -0.0576945 0)
(8.34759 -0.0460202 0)
(8.23579 -0.0367133 0)
(8.16111 -0.0350151 0)
(8.10244 -0.0410034 0)
(8.04053 -0.0513997 0)
(7.96385 -0.0613052 0)
(7.87406 -0.0670666 0)
(7.77375 -0.0664123 0)
(7.67729 -0.0596317 0)
(-0.085814 0.182276 3.28642e-20)
(-0.280886 0.197674 -3.25997e-20)
(-0.43975 0.177011 0)
(-0.554167 0.114226 0)
(-0.581517 0.0249857 0)
(-0.531654 -0.0605147 3.16014e-20)
(-0.421434 -0.138896 0)
(-0.251069 -0.20057 0)
(-0.0436015 -0.244817 0)
(0.197921 -0.252073 0)
(0.436888 -0.216467 -3.04303e-20)
(0.664419 -0.17802 0)
(0.866653 -0.173318 0)
(1.02711 -0.20902 0)
(1.14171 -0.238855 0)
(1.2263 -0.206929 -2.90321e-20)
(1.2935 -0.123915 0)
(1.34875 -0.0617233 0)
(1.41614 -0.0689097 0)
(1.52908 -0.131917 0)
(1.70572 -0.211853 0)
(1.94687 -0.277842 0)
(2.2378 -0.31266 0)
(2.54579 -0.310388 -2.66751e-20)
(2.8344 -0.273351 2.63534e-20)
(3.06854 -0.20906 -2.60395e-20)
(3.22382 -0.1295 -2.57461e-20)
(3.28488 -0.0330834 0)
(3.2261 0.0740486 0)
(3.05877 0.159224 2.50591e-20)
(2.83831 0.191645 2.48891e-20)
(2.56473 0.200028 0)
(2.18998 0.332332 0)
(1.84647 0.515285 2.4451e-20)
(1.70437 0.362073 0)
(1.68028 -0.216785 0)
(1.68144 -0.722277 -2.3897e-20)
(1.6581 -0.71697 0)
(1.42833 -0.280609 -2.34228e-20)
(0.724924 0.204535 -4.6583e-20)
(-0.257657 0.751171 0)
(-1.48213 1.16626 0)
(-2.77019 1.1164 0)
(-3.82104 0.913711 0)
(-4.72321 0.782505 0)
(-5.52357 0.672193 -4.17102e-20)
(-6.22481 0.579765 -4.0511e-20)
(-6.84833 0.505777 -3.93311e-20)
(-7.40162 0.441244 0)
(-7.89063 0.384437 3.71065e-20)
(-8.31878 0.33197 0)
(-8.68682 0.281663 -3.51547e-20)
(-8.99455 0.232149 -3.43086e-20)
(-9.24072 0.182758 0)
(-9.42394 0.133459 0)
(-9.54235 0.0846294 0)
(-9.59327 0.0368207 -3.19706e-20)
(-9.57411 -0.00993456 0)
(-9.49079 -0.0567972 0)
(-9.33572 -0.104881 0)
(-9.109 -0.155249 0)
(-8.80369 -0.208587 0)
(-8.41566 -0.265345 0)
(-7.93752 -0.325853 0)
(-7.36347 -0.389122 0)
(-6.68993 -0.4527 3.23542e-20)
(-5.92074 -0.510855 0)
(-5.07434 -0.55343 0)
(-4.1936 -0.565102 -3.26415e-20)
(-3.34851 -0.527136 -3.25078e-20)
(-2.61666 -0.428859 0)
(-2.06395 -0.282248 3.21454e-20)
(-1.7452 -0.117601 -3.20907e-20)
(-1.68876 0.0339932 0)
(-1.88116 0.159317 3.23847e-20)
(-2.31583 0.259936 0)
(-2.92395 0.340743 0)
(-3.59836 0.389005 -3.30204e-20)
(-4.23581 0.35483 0)
(-4.62954 0.190366 3.30871e-20)
(-4.60223 -0.0636331 0)
(-4.21741 -0.273067 -3.32154e-20)
(-3.69192 -0.342399 -3.3288e-20)
(-3.14798 -0.310031 -3.33265e-20)
(-2.66776 -0.245854 -6.66354e-20)
(-2.26222 -0.224381 6.65227e-20)
(-1.84303 -0.210722 0)
(-1.53697 -0.164166 0)
(-1.26345 -0.123104 0)
(-1.08141 -0.0760956 6.54678e-20)
(-0.972145 -0.0500696 6.51225e-20)
(-0.898403 -0.0434446 -6.47629e-20)
(-0.83785 -0.0403028 0)
(-0.770282 -0.0386214 6.40303e-20)
(-0.673476 -0.0434317 6.36699e-20)
(-0.555657 -0.049307 6.3318e-20)
(-0.378515 -0.0643882 0)
(-0.194193 -0.0771965 0)
(0.000664457 -0.0648725 0)
(0.148823 -0.0708546 6.19269e-20)
(0.390918 -0.114584 0)
(0.819684 -0.181 0)
(1.16676 -0.162612 -6.0839e-20)
(1.47706 -0.0841941 0)
(1.84523 -0.0339304 0)
(1.56623 0.210122 -5.92928e-20)
(1.20535 0.33956 0)
(1.32809 -0.318343 0)
(1.82544 -0.900383 5.73979e-20)
(1.43129 0.147713 5.67421e-20)
(-1.66331 1.35267 0)
(-4.5542 1.23559 -5.26658e-20)
(-6.70203 0.94014 0)
(-8.36418 0.689591 4.48738e-20)
(-9.57275 0.487161 0)
(-10.4316 0.326198 3.82976e-20)
(-10.9857 0.193823 3.59558e-20)
(-11.2651 0.0809542 0)
(-11.2951 -0.0169919 0)
(-11.1065 -0.100742 0)
(-10.7297 -0.171422 0)
(-10.1849 -0.229475 0)
(-9.50567 -0.27212 0)
(-8.73299 -0.298821 0)
(-7.90613 -0.30998 3.75591e-20)
(-7.06348 -0.308089 -3.86244e-20)
(-6.22874 -0.297773 0)
(-5.41868 -0.282452 0)
(-4.64124 -0.265743 0)
(-3.89857 -0.249796 0)
(-3.18524 -0.236736 -8.27416e-20)
(-2.49391 -0.22611 0)
(-1.81532 -0.217547 8.30099e-20)
(-1.14318 -0.208927 -8.28767e-20)
(-0.477743 -0.198034 0)
(0.163761 -0.1877 0)
(0.753193 -0.163638 0)
(1.2681 -0.133961 8.04434e-20)
(1.69234 -0.103883 7.94667e-20)
(2.02964 -0.0780936 0)
(2.29689 -0.0601478 7.73875e-20)
(2.5163 -0.0514803 7.63326e-20)
(2.71377 -0.0509198 -7.52795e-20)
(2.91335 -0.0561866 0)
(3.13165 -0.0650736 0)
(3.37899 -0.0758163 -7.20913e-20)
(3.66163 -0.0871387 0)
(3.98229 -0.0978987 0)
(4.33948 -0.106833 0)
(4.7275 -0.113057 0)
(5.13773 -0.116096 6.61773e-20)
(5.55983 -0.116063 6.48186e-20)
(5.98332 -0.11291 0)
(6.39786 -0.10543 6.19547e-20)
(6.7917 -0.0966751 0)
(7.15961 -0.0860105 0)
(7.48318 -0.0627508 5.76476e-20)
(7.73351 -0.0387547 0)
(7.93003 -0.0171049 5.51405e-20)
(8.0204 0.0192586 0)
(7.95862 0.0720992 0)
(7.73363 0.213936 5.2569e-20)
(7.08099 0.334514 0)
(6.17559 0.264725 5.15054e-20)
(5.30537 0.333405 0)
(3.91176 0.53237 0)
(2.18102 0.37136 0)
(0.963283 0.0248638 -4.73259e-20)
(0.398061 -0.162165 0)
(0.338599 -0.184755 4.58381e-20)
(0.552415 -0.14847 0)
(0.832269 -0.115702 0)
(1.07824 -0.0948839 0)
(1.24434 -0.0733008 0)
(1.32595 -0.0379118 0)
(1.35136 -0.00469956 0)
(1.3752 0.0182416 0)
(1.34793 0.0167287 -8.45202e-20)
(1.39035 0.025697 0)
(1.23869 0.0221467 0)
(-0.025645 0.557909 -9.85801e-20)
(-0.132856 0.516612 9.78329e-20)
(-0.195249 0.3675 0)
(-0.208958 0.172052 -6.42345e-20)
(-0.161395 -0.0544275 0)
(-0.0603353 -0.271799 -3.16362e-20)
(0.103412 -0.460684 6.27784e-20)
(0.305945 -0.5958 6.22654e-20)
(0.527828 -0.68511 0)
(0.742015 -0.718013 6.12268e-20)
(0.949426 -0.717527 3.03679e-20)
(1.14231 -0.67325 0)
(1.32199 -0.536025 0)
(1.48869 -0.309159 0)
(1.61644 -0.125992 0)
(1.69425 -0.0729481 2.89858e-20)
(1.77077 -0.092825 0)
(1.87478 -0.147018 -5.68525e-20)
(1.96359 -0.260865 0)
(2.00885 -0.425597 0)
(2.05304 -0.601068 5.51424e-20)
(2.14314 -0.745341 0)
(2.27906 -0.815564 -5.38988e-20)
(2.43861 -0.790036 2.66682e-20)
(2.59422 -0.676654 -2.63572e-20)
(2.7328 -0.483612 2.60532e-20)
(2.82655 -0.228892 2.57686e-20)
(2.84367 0.0469459 0)
(2.79479 0.305959 0)
(2.70503 0.494576 -2.50692e-20)
(2.59353 0.637365 2.47067e-20)
(2.44241 0.808201 0)
(2.23244 0.764647 0)
(1.97823 0.288789 -2.44434e-20)
(1.69171 -0.0654839 0)
(1.1054 0.209805 0)
(0.00279625 0.709498 2.39697e-20)
(-1.24119 1.2747 0)
(-2.47533 1.91158 -2.3137e-20)
(-3.64581 2.3744 4.62178e-20)
(-4.55721 2.5549 0)
(-5.31745 2.45594 0)
(-5.98384 2.19409 8.7581e-20)
(-6.56599 1.92539 8.57508e-20)
(-7.10106 1.69053 8.37271e-20)
(-7.59069 1.48231 -4.01213e-20)
(-8.04006 1.30459 4.03071e-20)
(-8.45187 1.14949 1.16389e-19)
(-8.82612 1.00992 -7.51012e-20)
(-9.16306 0.880567 -3.698e-20)
(-9.46149 0.756381 0)
(-9.72019 0.634236 3.50615e-20)
(-9.93729 0.512041 -3.34604e-20)
(-10.1109 0.388587 0)
(-10.2391 0.263338 0)
(-10.32 0.136405 0)
(-10.3518 0.00808796 3.19237e-20)
(-10.3338 -0.121926 0)
(-10.2573 -0.254647 -6.21913e-20)
(-10.1236 -0.391491 0)
(-9.92789 -0.534043 -6.20164e-20)
(-9.66953 -0.683886 0)
(-9.34377 -0.8423 6.24924e-20)
(-8.94721 -1.00963 0)
(-8.47453 -1.18334 -6.33484e-20)
(-7.92197 -1.35569 3.15543e-20)
(-7.28926 -1.50975 0)
(-6.5862 -1.6156 6.44053e-20)
(-5.84268 -1.63022 3.24958e-20)
(-5.11101 -1.50828 3.23601e-20)
(-4.4519 -1.22746 0)
(-3.92791 -0.81526 3.17604e-20)
(-3.60279 -0.335092 3.19774e-20)
(-3.51065 0.150871 0)
(-3.63612 0.576187 -3.22715e-20)
(-3.96253 0.892521 6.50453e-20)
(-4.43924 1.04543 0)
(-4.90914 0.988651 3.29231e-20)
(-5.1811 0.684141 0)
(-5.14275 0.173042 -9.89367e-20)
(-4.84513 -0.339004 0)
(-4.5 -0.677953 9.93581e-20)
(-4.10581 -0.830669 3.32418e-20)
(-3.63202 -0.829125 -3.31545e-20)
(-3.13756 -0.734503 -6.63863e-20)
(-2.70243 -0.641897 6.63472e-20)
(-2.31329 -0.556124 0)
(-2.03864 -0.45067 0)
(-1.79542 -0.338488 0)
(-1.59818 -0.217081 -1.96248e-19)
(-1.45293 -0.129871 -6.50666e-20)
(-1.31477 -0.0859664 6.47153e-20)
(-1.1853 -0.0845643 0)
(-1.03633 -0.114558 6.3968e-20)
(-0.859845 -0.162317 -6.36412e-20)
(-0.673193 -0.222036 -6.32934e-20)
(-0.413434 -0.279726 0)
(-0.20381 -0.279053 0)
(0.0142431 -0.24878 0)
(0.165384 -0.2743 -6.19098e-20)
(0.457118 -0.499834 0)
(0.905993 -0.552528 1.22356e-19)
(1.20227 -0.430181 1.82418e-19)
(1.61989 -0.480371 -1.20688e-19)
(1.85759 -0.13881 0)
(1.56201 0.379227 -5.93389e-20)
(2.16317 -0.0730309 0)
(2.4591 -0.383816 -1.16172e-19)
(0.260689 1.06672 5.71183e-20)
(-2.49691 2.82942 5.50796e-20)
(-5.28894 3.33397 0)
(-6.91778 2.74248 1.53536e-19)
(-8.21213 2.1291 -9.40604e-20)
(-9.14078 1.58816 -4.47593e-20)
(-9.88276 1.14431 0)
(-10.3968 0.77226 -3.82719e-20)
(-10.7457 0.446988 -1.06354e-19)
(-10.8982 0.15736 0)
(-10.8776 -0.106366 -6.56207e-20)
(-10.6588 -0.342417 -6.51696e-20)
(-10.2544 -0.548289 -6.58653e-20)
(-9.6844 -0.718579 0)
(-8.98482 -0.845868 0)
(-8.1925 -0.92625 0)
(-7.35581 -0.959903 3.71307e-20)
(-6.51115 -0.955344 3.86123e-20)
(-5.68582 -0.925523 0)
(-4.89301 -0.881876 8.02454e-20)
(-4.14053 -0.834693 8.13374e-20)
(-3.42817 -0.790593 0)
(-2.74842 -0.75589 8.27228e-20)
(-2.09229 -0.730823 1.65553e-19)
(-1.44545 -0.715115 -8.29875e-20)
(-0.798219 -0.701776 -8.25112e-20)
(-0.146243 -0.6843 0)
(0.493783 -0.641857 0)
(1.1033 -0.570674 0)
(1.65236 -0.479763 -8.03718e-20)
(2.11588 -0.384991 7.92749e-20)
(2.48716 -0.302591 1.56663e-19)
(2.77854 -0.243267 -7.73326e-20)
(3.01361 -0.210157 7.62324e-20)
(3.22083 -0.199739 7.52285e-20)
(3.42609 -0.206428 0)
(3.64742 -0.22522 0)
(3.89688 -0.251991 -7.20064e-20)
(4.18278 -0.282972 0)
(4.50922 -0.314087 0)
(4.87531 -0.341218 1.3723e-19)
(5.27557 -0.361386 0)
(5.70047 -0.373054 6.60388e-20)
(6.13875 -0.375392 -6.47594e-20)
(6.57876 -0.368764 0)
(7.01056 -0.354208 6.17767e-20)
(7.4256 -0.331498 0)
(7.80696 -0.298301 0)
(8.15009 -0.251718 -5.75993e-20)
(8.44887 -0.200328 1.12409e-19)
(8.66832 -0.137107 -5.50983e-20)
(8.8256 -0.0326195 0)
(8.89059 0.0799083 0)
(8.86985 0.215667 5.21367e-20)
(8.85325 0.450026 0)
(8.6945 0.663558 5.08318e-20)
(8.19729 0.787505 0)
(7.3403 0.954271 0)
(6.36796 1.04883 0)
(5.48559 0.853737 4.71108e-20)
(4.67551 0.455531 0)
(4.01526 0.0947542 -4.56899e-20)
(3.63975 -0.110401 0)
(3.48124 -0.159164 0)
(3.41149 -0.108596 9.02334e-20)
(3.32532 -0.0394873 -8.93105e-20)
(3.18254 -0.00407211 0)
(3.00594 -0.0117477 0)
(2.87016 -0.0193327 0)
(2.75121 -0.022285 2.53275e-19)
(2.73414 0.014179 0)
(2.60858 0.0259301 -1.6389e-19)
(0.075015 0.517455 -7.25992e-23)
(0.165651 0.562005 -1.30499e-19)
(0.226626 0.348667 0)
(0.310114 0.0767292 1.2851e-19)
(0.479164 -0.249439 0)
(0.717777 -0.573006 0)
(0.981532 -0.831132 4.08272e-23)
(1.23287 -1.0009 -6.20525e-20)
(1.4545 -1.07447 -6.15108e-20)
(1.62699 -1.06937 -6.10341e-20)
(1.7544 -0.998286 0)
(1.8473 -0.903944 0)
(1.89993 -0.834587 5.94046e-20)
(1.95055 -0.737013 1.17768e-19)
(2.04321 -0.599278 -1.16715e-19)
(2.13621 -0.521003 0)
(2.19833 -0.502981 -1.14619e-19)
(2.24893 -0.427374 5.67761e-20)
(2.24643 -0.287471 0)
(2.18209 -0.255824 -1.11546e-19)
(2.14207 -0.429177 -5.51206e-20)
(2.14685 -0.678934 1.0915e-19)
(2.15874 -0.842325 5.39066e-20)
(2.16019 -0.873349 0)
(2.15069 -0.79574 -1.05129e-19)
(2.14189 -0.606946 -1.03796e-19)
(2.1382 -0.300599 0)
(2.10148 0.0351837 -1.01428e-19)
(1.98372 0.287661 0)
(1.78601 0.460715 -9.96665e-20)
(1.4865 0.663824 -4.97233e-20)
(1.08445 0.918267 0)
(0.558236 1.16704 0)
(-0.265531 1.45875 0)
(-1.2793 1.83183 0)
(-2.33058 2.27411 0)
(-3.40889 2.72889 0)
(-4.38096 3.13974 -9.26335e-20)
(-5.19793 3.41391 1.37354e-19)
(-5.81787 3.49442 0)
(-6.24445 3.39123 0)
(-6.57645 3.15622 0)
(-6.88175 2.86386 -1.93221e-21)
(-7.19837 2.57726 -8.55428e-20)
(-7.5337 2.31536 -1.65345e-19)
(-7.88372 2.0822 1.61275e-19)
(-8.24009 1.87537 7.77838e-20)
(-8.59198 1.68633 -7.71474e-20)
(-8.93058 1.50822 1.31981e-21)
(-9.24823 1.3352 -7.17428e-20)
(-9.53822 1.16288 0)
(-9.79496 0.988708 -6.8117e-20)
(-10.0138 0.811 1.13019e-21)
(-10.1913 0.628967 0)
(-10.3239 0.442569 0)
(-10.4089 0.252038 6.28897e-20)
(-10.4454 0.0573852 0)
(-10.4332 -0.141363 0)
(-10.3732 -0.3443 -6.01395e-20)
(-10.2669 -0.551208 -1.21964e-19)
(-10.1164 -0.763186 6.19691e-20)
(-9.92393 -0.982357 0)
(-9.69187 -1.21131 -6.24141e-20)
(-9.4217 -1.45168 0)
(-9.11347 -1.70206 -6.13077e-20)
(-8.76498 -1.95373 -6.36405e-20)
(-8.3718 -2.18489 1.26194e-19)
(-7.93014 -2.35428 6.26251e-20)
(-7.44319 -2.39929 0)
(-6.9261 -2.24762 -1.27217e-19)
(-6.4054 -1.85399 0)
(-5.92687 -1.2504 -1.90745e-19)
(-5.55731 -0.546431 -1.27687e-19)
(-5.34501 0.14612 -1.28527e-19)
(-5.24464 0.762719 1.29396e-19)
(-5.21658 1.21497 -1.95152e-19)
(-5.2616 1.37271 0)
(-5.29506 1.13176 0)
(-5.17804 0.549908 1.31254e-19)
(-4.86859 -0.150562 1.97306e-19)
(-4.45962 -0.721203 0)
(-4.06462 -1.08668 -6.61838e-20)
(-3.69251 -1.29452 0)
(-3.31303 -1.34616 1.98933e-19)
(-2.89674 -1.2498 2.53839e-22)
(-2.51646 -1.07543 -1.75862e-22)
(-2.12213 -0.869735 -1.3234e-19)
(-1.8507 -0.663463 0)
(-1.61933 -0.53094 1.31461e-19)
(-1.43495 -0.403623 -1.87082e-23)
(-1.2537 -0.326629 0)
(-1.07591 -0.301499 0)
(-0.899889 -0.30878 0)
(-0.713099 -0.347958 -1.27992e-19)
(-0.507716 -0.400492 0)
(-0.299023 -0.471875 0)
(-0.0495218 -0.523965 0)
(0.182699 -0.491243 0)
(0.371032 -0.418207 0)
(0.522212 -0.466332 -1.2344e-19)
(0.809595 -0.787471 0)
(1.10432 -0.901458 -1.22231e-19)
(1.58415 -0.80934 -1.21486e-19)
(1.89834 -0.597569 1.20623e-19)
(1.61501 -0.00744147 0)
(1.78453 -0.100088 1.18632e-19)
(2.05524 -0.264157 0)
(0.623015 1.25963 1.16142e-19)
(-2.1976 3.49214 -1.13989e-19)
(-4.57598 4.78169 -3.27879e-19)
(-6.03531 4.56565 0)
(-6.78529 3.68706 -2.94822e-19)
(-7.67744 2.89977 -8.67636e-20)
(-8.40708 2.21727 0)
(-9.1234 1.64675 -1.55503e-19)
(-9.66099 1.13982 -1.44974e-19)
(-10.0469 0.673238 2.07121e-19)
(-10.2292 0.234966 0)
(-10.2154 -0.178103 6.56642e-20)
(-9.9965 -0.561051 6.51969e-20)
(-9.58318 -0.902328 1.94639e-19)
(-8.9953 -1.18678 0)
(-8.26235 -1.3995 0)
(-7.4314 -1.53097 0)
(-6.55372 -1.58 7.3271e-20)
(-5.67975 -1.56101 0)
(-4.84004 -1.49854 0)
(-4.05149 -1.41452 -8.02503e-20)
(-3.32081 -1.32801 -8.13452e-20)
(-2.64875 -1.24952 0)
(-2.02705 -1.18953 0)
(-1.44538 -1.15041 -1.65558e-19)
(-0.883211 -1.13397 0)
(-0.328825 -1.12656 1.65338e-19)
(0.22766 -1.11042 1.64166e-19)
(0.785762 -1.06002 0)
(1.33603 -0.960922 0)
(1.85606 -0.819635 -1.60152e-19)
(2.32038 -0.659815 -2.32115e-22)
(2.71133 -0.511795 -1.73622e-22)
(3.02517 -0.400601 0)
(3.27435 -0.336904 -3.04786e-19)
(3.48501 -0.316287 0)
(3.68629 -0.327947 0)
(3.90181 -0.361809 0)
(4.14903 -0.410061 1.43967e-19)
(4.44004 -0.465873 0)
(4.78053 -0.521976 -2.78851e-19)
(5.16864 -0.571 -1.37136e-19)
(5.59556 -0.607095 0)
(6.04777 -0.627092 -1.32055e-19)
(6.51014 -0.630457 0)
(6.96904 -0.618374 0)
(7.41261 -0.591444 -3.70305e-19)
(7.83054 -0.548873 2.40825e-19)
(8.20942 -0.493449 0)
(8.53782 -0.420813 2.29384e-19)
(8.81969 -0.322086 -1.12346e-19)
(9.02167 -0.217191 0)
(9.13008 -0.094818 0)
(9.19862 0.0786242 0)
(9.15919 0.258725 -3.12923e-19)
(9.02693 0.447118 0)
(8.9684 0.675759 -1.02141e-19)
(8.88706 0.967144 0)
(8.57587 1.29346 0)
(8.09393 1.40635 0)
(7.53464 1.12978 0)
(6.89328 0.676459 0)
(6.2584 0.311084 0)
(5.76909 0.0883564 -1.82594e-19)
(5.39765 -0.0126087 0)
(5.06652 -0.0260652 -9.01082e-20)
(4.77267 0.0234211 2.67545e-19)
(4.55204 0.0974679 0)
(4.37354 0.135259 0)
(4.1875 0.12947 -1.71104e-19)
(3.92257 0.0893748 -1.68667e-19)
(3.69678 0.0770591 1.66188e-19)
(3.42664 0.0658728 1.63769e-19)
(0.039621 0.0750075 1.97531e-19)
(0.0921297 0.242107 1.9611e-19)
(0.20466 0.107155 1.29796e-19)
(0.499334 -0.341936 6.44135e-20)
(0.864022 -0.848611 0)
(1.22292 -1.2414 -1.26118e-19)
(1.53435 -1.46929 6.24555e-20)
(1.77608 -1.54383 0)
(1.94604 -1.49051 6.13785e-20)
(2.05273 -1.35426 0)
(2.11076 -1.19048 -1.20528e-19)
(2.14686 -1.01207 0)
(2.15448 -0.829048 -5.93407e-20)
(2.12797 -0.658795 -1.17667e-19)
(2.09255 -0.490089 1.16681e-19)
(2.03588 -0.354514 0)
(1.94685 -0.283778 1.14762e-19)
(1.82256 -0.191363 0)
(1.69356 -0.129657 0)
(1.6357 -0.279205 1.11725e-19)
(1.63449 -0.557586 0)
(1.61132 -0.757269 2.29544e-22)
(1.55048 -0.812779 0)
(1.4667 -0.769146 0)
(1.33622 -0.67208 -9.62647e-23)
(1.12745 -0.484617 1.04106e-19)
(0.86099 -0.134215 1.02894e-19)
(0.541826 0.338757 1.01785e-19)
(0.128432 0.84484 0)
(-0.382078 1.34904 1.99698e-19)
(-0.974535 1.83145 0)
(-1.61261 2.26417 9.79413e-20)
(-2.30154 2.64213 0)
(-3.05849 2.984 0)
(-3.84302 3.34726 -9.50391e-20)
(-4.60531 3.71059 0)
(-5.2854 4.00321 9.24573e-20)
(-5.82086 4.15414 1.11802e-21)
(-6.20565 4.1366 -1.80569e-19)
(-6.46893 3.99181 1.76445e-19)
(-6.6764 3.77366 0)
(-6.88909 3.5255 0)
(-7.13453 3.27466 8.17945e-20)
(-7.41423 3.03512 0)
(-7.71979 2.80748 8.1688e-20)
(-8.04074 2.58986 -7.97263e-20)
(-8.36498 2.37821 -7.77072e-20)
(-8.68252 2.1681 0)
(-8.98534 1.95628 7.36554e-20)
(-9.26683 1.74007 7.16981e-20)
(-9.52148 1.5178 -1.36642e-19)
(-9.74466 1.28855 6.80928e-20)
(-9.93203 1.0519 6.65062e-20)
(-10.0796 0.808385 0)
(-10.1841 0.559235 0)
(-10.2438 0.305726 -6.29013e-20)
(-10.2574 0.0487687 0)
(-10.2264 -0.210358 0)
(-10.1512 -0.466375 1.22333e-19)
(-10.0343 -0.719416 1.21985e-19)
(-9.88161 -0.969377 0)
(-9.70055 -1.21822 0)
(-9.49998 -1.46857 0)
(-9.28962 -1.72395 0)
(-9.07918 -1.98675 1.24473e-19)
(-8.87593 -2.25471 -1.23384e-19)
(-8.68074 -2.51405 -1.26053e-19)
(-8.48421 -2.72957 -2.51737e-19)
(-8.26531 -2.83534 0)
(-7.99517 -2.73866 4.51797e-22)
(-7.64925 -2.35836 0)
(-7.22995 -1.69609 1.26851e-19)
(-6.78509 -0.878045 -1.20177e-21)
(-6.38058 -0.0851436 1.2826e-19)
(-6.0401 0.581615 -1.29258e-19)
(-5.69686 1.0489 -1.06445e-21)
(-5.31242 1.18556 0)
(-4.91999 0.864603 -1.31601e-19)
(-4.49699 0.168867 -1.3145e-19)
(-4.00447 -0.597733 -2.62987e-19)
(-3.48386 -1.1743 0)
(-3.03145 -1.48239 1.31977e-19)
(-2.72431 -1.60608 0)
(-2.5009 -1.66825 -2.64944e-19)
(-2.22362 -1.6542 1.32692e-19)
(-1.96511 -1.509 -1.32601e-19)
(-1.63081 -1.29405 1.32375e-19)
(-1.33279 -0.996497 2.63747e-19)
(-1.04915 -0.765291 -1.3153e-19)
(-0.864001 -0.606738 1.3094e-19)
(-0.695562 -0.505063 0)
(-0.549557 -0.45692 -2.59005e-19)
(-0.401765 -0.459402 0)
(-0.243942 -0.510933 -2.55832e-19)
(-0.0658589 -0.58171 2.54251e-19)
(0.123989 -0.663577 2.5263e-19)
(0.347979 -0.744213 -2.51042e-19)
(0.589733 -0.690738 -2.49546e-19)
(0.774157 -0.570399 0)
(0.932868 -0.631031 -1.2293e-19)
(1.17837 -1.00663 0)
(1.46009 -1.30269 0)