/*--------------------------------*- C++ -*----------------------------------*\
  =========                 |
  \\      /  F ield         | OpenFOAM: The Open Source CFD Toolbox
   \\    /   O peration     | Website:  https://openfoam.org
    \\  /    A nd           | Version:  9
     \\/     M anipulation  |
\*---------------------------------------------------------------------------*/
FoamFile
{
    format      ascii;
    class       volSymmTensorField;
    location    "0.092";
    object      UPrime2Mean;
}
// * * * * * * * * * * * * * * * * * * * * * * * * * * * * * * * * * * * * * //

dimensions      [0 2 -2 0 0 0 0];

internalField   nonuniform List<symmTensor> 
12225
(
(-48.3058 -0.213229 0 0.00125284 0 0)
(-45.4537 -0.279604 0 -0.000683078 0 0)
(-42.6372 -0.261939 0 -0.000895269 0 0)
(-39.8758 -0.247924 0 -0.000970378 0 0)
(-37.2485 -0.237866 0 -0.00103487 0 0)
(-34.7888 -0.227441 0 -0.00106365 0 0)
(-32.4843 -0.216265 0 -0.00105673 0 0)
(-30.3353 -0.205466 0 -0.00103526 0 0)
(-28.3126 -0.194786 0 -0.000987431 0 0)
(-26.4358 -0.186258 0 -0.000960444 0 0)
(-24.6345 -0.178727 0 -0.000881992 0 0)
(-22.972 -0.175333 0 -0.000886658 0 0)
(-21.2803 -0.173476 0 -0.000657829 0 0)
(-19.7564 -0.177389 0 -0.000747618 0 0)
(-17.9885 -0.189941 0 0.000322256 0 0)
(-16.4957 -0.205461 0 -0.000248932 0 0)
(-14.2862 -0.27855 0 0.00643283 0 0)
(-12.4824 -0.322495 0 0.0030679 0 0)
(-50.2745 -0.271911 0 0.00140875 0 0)
(-50.8825 -0.390453 0 -0.00173385 0 0)
(-51.271 -0.387101 0 -0.00204454 0 0)
(-51.4028 -0.39245 0 -0.0022788 0 0)
(-51.3592 -0.408921 0 -0.00262792 0 0)
(-51.2121 -0.425024 0 -0.00294628 0 0)
(-50.9792 -0.437797 0 -0.00320292 0 0)
(-50.6762 -0.44885 0 -0.00338795 0 0)
(-50.2867 -0.457907 0 -0.00353565 0 0)
(-49.8398 -0.467958 0 -0.00359668 0 0)
(-49.3031 -0.478648 0 -0.00367505 0 0)
(-48.7344 -0.495034 0 -0.00349504 0 0)
(-48.0499 -0.516275 0 -0.00340365 0 0)
(-47.356 -0.548507 0 -0.00239971 0 0)
(-46.4682 -0.597359 0 -0.0015102 0 0)
(-45.5858 -0.666254 0 0.00278299 0 0)
(-44.3664 -0.796768 0 0.00917955 0 0)
(-43.1251 -0.97779 0 0.0326251 0 0)
(-49.9781 -0.142117 0 0.00301999 0 0)
(-50.2999 -0.255869 0 0.000411528 0 0)
(-50.5941 -0.27 0 -0.000247401 0 0)
(-50.7833 -0.283864 0 -0.000571926 0 0)
(-50.9006 -0.309263 0 -0.000953766 0 0)
(-50.993 -0.334472 0 -0.00131419 0 0)
(-51.0756 -0.355732 0 -0.00159548 0 0)
(-51.1474 -0.376517 0 -0.00182427 0 0)
(-51.1967 -0.396863 0 -0.00195657 0 0)
(-51.2207 -0.420287 0 -0.00203922 0 0)
(-51.213 -0.444737 0 -0.00188412 0 0)
(-51.1769 -0.476815 0 -0.00162763 0 0)
(-51.1074 -0.513243 0 -0.000621311 0 0)
(-51.0033 -0.565707 0 0.000769879 0 0)
(-50.8651 -0.633641 0 0.00471199 0 0)
(-50.684 -0.733956 0 0.0111497 0 0)
(-50.4973 -0.882876 0 0.0275467 0 0)
(-50.2934 -1.08664 0 0.0605339 0 0)
(-49.8887 -0.162343 0 0.00312822 0 0)
(-50.1039 -0.303272 0 6.87946e-05 0 0)
(-50.3198 -0.331512 0 -0.000921397 0 0)
(-50.4628 -0.33989 0 -0.00125273 0 0)
(-50.5425 -0.359381 0 -0.00159632 0 0)
(-50.5958 -0.383256 0 -0.0019393 0 0)
(-50.642 -0.404612 0 -0.00219978 0 0)
(-50.6826 -0.423776 0 -0.00233618 0 0)
(-50.7128 -0.442496 0 -0.0023612 0 0)
(-50.7288 -0.463412 0 -0.00222652 0 0)
(-50.7289 -0.488228 0 -0.00190843 0 0)
(-50.7122 -0.519655 0 -0.00118776 0 0)
(-50.6787 -0.560524 0 0.00015758 0 0)
(-50.6285 -0.614612 0 0.00278073 0 0)
(-50.5647 -0.688808 0 0.00779489 0 0)
(-50.5002 -0.789754 0 0.0175493 0 0)
(-50.4484 -0.927264 0 0.0366462 0 0)
(-50.4566 -1.09664 0 0.0726003 0 0)
(-50.0159 -0.097342 0 0.00373861 0 0)
(-50.1893 -0.220894 0 0.0013143 0 0)
(-50.376 -0.260952 0 0.000239163 0 0)
(-50.508 -0.275689 0 -0.000129069 0 0)
(-50.582 -0.296344 0 -0.000399236 0 0)
(-50.6299 -0.322435 0 -0.000656706 0 0)
(-50.6726 -0.347975 0 -0.000841408 0 0)
(-50.7109 -0.37241 0 -0.000912238 0 0)
(-50.736 -0.396787 0 -0.000811197 0 0)
(-50.7425 -0.423623 0 -0.000487909 0 0)
(-50.7289 -0.454125 0 0.00020048 0 0)
(-50.6987 -0.491169 0 0.00144106 0 0)
(-50.653 -0.53705 0 0.00366604 0 0)
(-50.5985 -0.59582 0 0.00759721 0 0)
(-50.5363 -0.672246 0 0.0145438 0 0)
(-50.4833 -0.771269 0 0.027113 0 0)
(-50.4431 -0.894314 0 0.0488376 0 0)
(-50.4496 -1.0363 0 0.0866403 0 0)
(-49.8192 -0.111465 0 0.00441632 0 0)
(-49.9625 -0.237219 0 0.00160617 0 0)
(-50.1309 -0.289685 0 0.000166588 0 0)
(-50.2696 -0.308493 0 -0.000376213 0 0)
(-50.3573 -0.326812 0 -0.000697862 0 0)
(-50.4107 -0.351133 0 -0.000937589 0 0)
(-50.4509 -0.376939 0 -0.00106025 0 0)
(-50.4847 -0.402058 0 -0.00101155 0 0)
(-50.5089 -0.427404 0 -0.000743633 0 0)
(-50.5194 -0.455253 0 -0.000170544 0 0)
(-50.515 -0.487381 0 0.000871313 0 0)
(-50.4971 -0.525994 0 0.00266868 0 0)
(-50.4674 -0.573129 0 0.00572373 0 0)
(-50.4301 -0.632288 0 0.0109032 0 0)
(-50.3894 -0.706435 0 0.0195773 0 0)
(-50.356 -0.798806 0 0.0342473 0 0)
(-50.3378 -0.907487 0 0.058007 0 0)
(-50.351 -1.02957 0 0.0962623 0 0)
(-50.1971 -0.0631698 0 0.0050183 0 0)
(-50.3196 -0.17533 0 0.00265461 0 0)
(-50.4752 -0.234805 0 0.00126854 0 0)
(-50.61 -0.262983 0 0.00069937 0 0)
(-50.6955 -0.284934 0 0.000471454 0 0)
(-50.7419 -0.31099 0 0.000371888 0 0)
(-50.7696 -0.339989 0 0.000380723 0 0)
(-50.7884 -0.369254 0 0.000583506 0 0)
(-50.7982 -0.398694 0 0.00109086 0 0)
(-50.7969 -0.430295 0 0.00204018 0 0)
(-50.7847 -0.46618 0 0.00362482 0 0)
(-50.7641 -0.508617 0 0.00619751 0 0)
(-50.7375 -0.55941 0 0.0103105 0 0)
(-50.7088 -0.621236 0 0.0169343 0 0)
(-50.6812 -0.695405 0 0.0274127 0 0)
(-50.662 -0.78392 0 0.0440789 0 0)
(-50.6568 -0.883625 0 0.0695142 0 0)
(-50.6754 -0.993126 0 0.107755 0 0)
(-50.0283 -0.0845816 0 0.00451122 0 0)
(-50.1256 -0.185616 0 0.00240699 0 0)
(-50.2399 -0.243422 0 0.00101359 0 0)
(-50.3502 -0.276669 0 0.000351718 0 0)
(-50.4357 -0.302079 0 8.68165e-05 0 0)
(-50.4931 -0.329724 0 2.94101e-05 0 0)
(-50.5319 -0.360548 0 0.000140092 0 0)
(-50.5618 -0.392261 0 0.000488603 0 0)
(-50.5858 -0.423949 0 0.00120307 0 0)
(-50.6037 -0.457109 0 0.00245709 0 0)
(-50.6137 -0.493699 0 0.00449626 0 0)
(-50.6167 -0.535988 0 0.00773241 0 0)
(-50.6122 -0.585709 0 0.012767 0 0)
(-50.6052 -0.645124 0 0.0206024 0 0)
(-50.5956 -0.714997 0 0.0325237 0 0)
(-50.5936 -0.796511 0 0.0505909 0 0)
(-50.5973 -0.886664 0 0.0768672 0 0)
(-50.6235 -0.983951 0 0.114394 0 0)
(-50.1585 -0.0340805 0 0.00541583 0 0)
(-50.2194 -0.137927 0 0.00348741 0 0)
(-50.3058 -0.202191 0 0.00199243 0 0)
(-50.3938 -0.238622 0 0.00129316 0 0)
(-50.46 -0.264156 0 0.00108574 0 0)
(-50.5024 -0.291748 0 0.00115689 0 0)
(-50.5306 -0.323608 0 0.00144347 0 0)
(-50.5535 -0.356936 0 0.00204645 0 0)
(-50.5745 -0.390335 0 0.00312362 0 0)
(-50.593 -0.425243 0 0.00486684 0 0)
(-50.6067 -0.463923 0 0.00754261 0 0)
(-50.6157 -0.508768 0 0.0115927 0 0)
(-50.6203 -0.561029 0 0.0176316 0 0)
(-50.624 -0.622155 0 0.0266308 0 0)
(-50.6283 -0.691656 0 0.0397728 0 0)
(-50.6397 -0.769929 0 0.0588285 0 0)
(-50.6584 -0.853505 0 0.085408 0 0)
(-50.6932 -0.941305 0 0.121827 0 0)
(-49.885 -0.0643291 0 0.00565563 0 0)
(-49.9417 -0.140748 0 0.00360048 0 0)
(-50.0303 -0.208219 0 0.00201453 0 0)
(-50.1245 -0.252877 0 0.00132733 0 0)
(-50.2002 -0.284435 0 0.00113468 0 0)
(-50.2566 -0.313863 0 0.00124378 0 0)
(-50.3016 -0.345145 0 0.00164357 0 0)
(-50.3408 -0.377787 0 0.00243827 0 0)
(-50.3749 -0.411223 0 0.00378446 0 0)
(-50.4028 -0.446353 0 0.00590387 0 0)
(-50.4231 -0.484665 0 0.00909235 0 0)
(-50.4384 -0.52797 0 0.0138109 0 0)
(-50.4512 -0.577322 0 0.0206593 0 0)
(-50.4676 -0.633949 0 0.0305459 0 0)
(-50.4884 -0.697504 0 0.0444805 0 0)
(-50.5203 -0.768263 0 0.0639627 0 0)
(-50.5593 -0.84308 0 0.0901509 0 0)
(-50.6144 -0.921444 0 0.124847 0 0)
(-50.0329 -0.0319719 0 0.00651818 0 0)
(-50.1094 -0.111934 0 0.00487502 0 0)
(-50.1785 -0.169363 0 0.00351027 0 0)
(-50.2453 -0.209277 0 0.00283484 0 0)
(-50.3099 -0.240764 0 0.00267488 0 0)
(-50.3692 -0.270918 0 0.00293724 0 0)
(-50.4201 -0.30296 0 0.00357678 0 0)
(-50.4626 -0.337566 0 0.0046551 0 0)
(-50.4979 -0.374091 0 0.00634102 0 0)
(-50.5277 -0.412563 0 0.00890043 0 0)
(-50.5522 -0.453609 0 0.0126579 0 0)
(-50.5735 -0.498632 0 0.0180703 0 0)
(-50.5925 -0.548331 0 0.0256936 0 0)
(-50.613 -0.603805 0 0.0363376 0 0)
(-50.6352 -0.664417 0 0.0508269 0 0)
(-50.6637 -0.730466 0 0.0703939 0 0)
(-50.6968 -0.799026 0 0.0958183 0 0)
(-50.7405 -0.869997 0 0.128483 0 0)
(-50.0445 -0.0161568 0 0.00658179 0 0)
(-50.0862 -0.112771 0 0.00448606 0 0)
(-50.1367 -0.174845 0 0.00286189 0 0)
(-50.193 -0.21931 0 0.00222971 0 0)
(-50.2442 -0.253225 0 0.00219568 0 0)
(-50.287 -0.283624 0 0.00258976 0 0)
(-50.3232 -0.315263 0 0.00340582 0 0)
(-50.357 -0.349503 0 0.00473655 0 0)
(-50.3909 -0.385719 0 0.00676341 0 0)
(-50.4257 -0.423485 0 0.00975234 0 0)
(-50.4602 -0.463164 0 0.0140123 0 0)
(-50.4942 -0.506069 0 0.0199808 0 0)
(-50.5274 -0.553014 0 0.0281656 0 0)
(-50.5619 -0.605055 0 0.0392978 0 0)
(-50.5977 -0.661634 0 0.0540355 0 0)
(-50.6388 -0.722874 0 0.0733709 0 0)
(-50.6826 -0.785999 0 0.0977866 0 0)
(-50.7353 -0.85108 0 0.128395 0 0)
(-49.905 -0.0318699 0 0.00731118 0 0)
(-49.8986 -0.0902443 0 0.00586571 0 0)
(-49.9462 -0.147322 0 0.00415475 0 0)
(-50.0185 -0.19291 0 0.00356657 0 0)
(-50.0887 -0.227315 0 0.00367169 0 0)
(-50.1497 -0.257252 0 0.00424277 0 0)
(-50.2021 -0.288142 0 0.00525665 0 0)
(-50.2499 -0.321676 0 0.00682819 0 0)
(-50.2959 -0.357384 0 0.00915033 0 0)
(-50.3415 -0.394982 0 0.0124902 0 0)
(-50.3857 -0.4347 0 0.0171502 0 0)
(-50.4289 -0.477561 0 0.0235455 0 0)
(-50.4702 -0.523954 0 0.0321213 0 0)
(-50.5132 -0.574536 0 0.043512 0 0)
(-50.5564 -0.628354 0 0.0582124 0 0)
(-50.6062 -0.685499 0 0.0770617 0 0)
(-50.6566 -0.743171 0 0.100254 0 0)
(-50.7191 -0.80216 0 0.128727 0 0)
(-49.822 -0.0398008 0 0.00777199 0 0)
(-49.8583 -0.0851398 0 0.00670239 0 0)
(-49.8995 -0.141929 0 0.00502531 0 0)
(-49.9514 -0.189753 0 0.00422609 0 0)
(-50.0059 -0.226137 0 0.00426173 0 0)
(-50.0555 -0.257079 0 0.0049259 0 0)
(-50.0986 -0.287979 0 0.00610716 0 0)
(-50.1393 -0.321212 0 0.00788732 0 0)
(-50.1817 -0.356501 0 0.0104595 0 0)
(-50.2274 -0.393531 0 0.0140786 0 0)
(-50.2746 -0.432267 0 0.0190207 0 0)
(-50.3217 -0.473517 0 0.025653 0 0)
(-50.3674 -0.517335 0 0.0343392 0 0)
(-50.414 -0.564454 0 0.0456009 0 0)
(-50.4615 -0.613745 0 0.0597761 0 0)
(-50.5147 -0.66589 0 0.0775149 0 0)
(-50.5707 -0.717932 0 0.0988239 0 0)
(-50.6365 -0.771407 0 0.124455 0 0)
(-49.8878 -0.00483716 0 0.00916387 0 0)
(-49.9266 -0.0712953 0 0.00842342 0 0)
(-49.9593 -0.121508 0 0.00670021 0 0)
(-49.997 -0.161501 0 0.0060208 0 0)
(-50.0451 -0.19664 0 0.00626949 0 0)
(-50.0984 -0.229097 0 0.00717443 0 0)
(-50.1509 -0.259974 0 0.00860409 0 0)
(-50.2012 -0.290568 0 0.0106243 0 0)
(-50.2508 -0.322173 0 0.0134362 0 0)
(-50.3006 -0.35617 0 0.0173183 0 0)
(-50.3507 -0.393195 0 0.0225246 0 0)
(-50.4002 -0.433592 0 0.0293616 0 0)
(-50.4491 -0.476477 0 0.0380854 0 0)
(-50.4979 -0.521539 0 0.0491087 0 0)
(-50.5488 -0.567088 0 0.0625743 0 0)
(-50.6023 -0.61354 0 0.0790063 0 0)
(-50.6609 -0.658381 0 0.0981757 0 0)
(-50.7228 -0.70362 0 0.120731 0 0)
(-50.1147 -0.00462977 0 0.0106158 0 0)
(-50.1157 -0.0689729 0 0.0090607 0 0)
(-50.135 -0.110118 0 0.00660219 0 0)
(-50.1792 -0.144142 0 0.00587411 0 0)
(-50.2335 -0.177258 0 0.00628063 0 0)
(-50.2887 -0.210027 0 0.00733381 0 0)
(-50.3423 -0.242073 0 0.00886239 0 0)
(-50.3941 -0.273819 0 0.0109537 0 0)
(-50.4454 -0.306259 0 0.0138104 0 0)
(-50.4982 -0.340451 0 0.0176755 0 0)
(-50.5541 -0.376681 0 0.0227543 0 0)
(-50.6137 -0.415029 0 0.0292836 0 0)
(-50.6771 -0.454749 0 0.0374244 0 0)
(-50.7439 -0.495717 0 0.047465 0 0)
(-50.8135 -0.536637 0 0.0594376 0 0)
(-50.885 -0.578041 0 0.0737198 0 0)
(-50.9578 -0.617821 0 0.090016 0 0)
(-51.0314 -0.657994 0 0.108831 0 0)
(-49.9061 -0.0272512 0 0.0119541 0 0)
(-49.8781 -0.0633345 0 0.0105031 0 0)
(-49.8718 -0.0947832 0 0.00717833 0 0)
(-49.9009 -0.126266 0 0.00622719 0 0)
(-49.9503 -0.157219 0 0.00673358 0 0)
(-50.0063 -0.185979 0 0.00798952 0 0)
(-50.0631 -0.212456 0 0.00975438 0 0)
(-50.1207 -0.238086 0 0.0120617 0 0)
(-50.18 -0.264271 0 0.0150817 0 0)
(-50.2425 -0.291952 0 0.0190264 0 0)
(-50.3077 -0.321142 0 0.0240479 0 0)
(-50.3766 -0.352097 0 0.0303111 0 0)
(-50.4476 -0.384466 0 0.0378789 0 0)
(-50.5226 -0.418666 0 0.0469216 0 0)
(-50.5978 -0.45357 0 0.0573539 0 0)
(-50.6777 -0.489756 0 0.0694568 0 0)
(-50.7548 -0.524758 0 0.0828715 0 0)
(-50.8393 -0.560404 0 0.0980631 0 0)
(-49.7533 -0.0356117 0 0.0115284 0 0)
(-49.7456 -0.0528819 0 0.0108348 0 0)
(-49.754 -0.0714138 0 0.00860457 0 0)
(-49.7932 -0.0935108 0 0.00780072 0 0)
(-49.8508 -0.117481 0 0.00792961 0 0)
(-49.9144 -0.141872 0 0.0087672 0 0)
(-49.978 -0.166254 0 0.0101859 0 0)
(-50.0404 -0.190901 0 0.0121539 0 0)
(-50.1026 -0.216187 0 0.0147468 0 0)
(-50.1657 -0.242504 0 0.0181001 0 0)
(-50.2303 -0.269689 0 0.0223095 0 0)
(-50.2969 -0.297908 0 0.0274642 0 0)
(-50.3655 -0.326642 0 0.033562 0 0)
(-50.4365 -0.356202 0 0.0406945 0 0)
(-50.5096 -0.385441 0 0.0487347 0 0)
(-50.5858 -0.415187 0 0.0578789 0 0)
(-50.6639 -0.44331 0 0.0678138 0 0)
(-50.7456 -0.472016 0 0.0788303 0 0)
(-49.8236 -0.0388622 0 0.0109332 0 0)
(-49.8576 -0.0351407 0 0.0102876 0 0)
(-49.8984 -0.0429563 0 0.00764799 0 0)
(-49.9465 -0.0590096 0 0.00677378 0 0)
(-50.0003 -0.077645 0 0.00709115 0 0)
(-50.0617 -0.0968802 0 0.00808813 0 0)
(-50.1295 -0.116304 0 0.0095462 0 0)
(-50.2017 -0.135577 0 0.0114247 0 0)
(-50.2771 -0.154486 0 0.0137625 0 0)
(-50.3544 -0.173395 0 0.0166313 0 0)
(-50.4332 -0.192597 0 0.0200774 0 0)
(-50.5135 -0.21256 0 0.0241498 0 0)
(-50.5958 -0.232919 0 0.0288305 0 0)
(-50.6794 -0.25376 0 0.0341649 0 0)
(-50.7652 -0.273986 0 0.0400422 0 0)
(-50.8511 -0.294295 0 0.0465863 0 0)
(-50.9393 -0.313077 0 0.0535586 0 0)
(-51.0259 -0.332521 0 0.0611745 0 0)
(-50.1418 0.00506565 0 0.0130999 0 0)
(-50.1785 -0.0112684 0 0.0117486 0 0)
(-50.2213 -0.0177994 0 0.00871683 0 0)
(-50.2737 -0.0248036 0 0.00753405 0 0)
(-50.3392 -0.0342825 0 0.00755175 0 0)
(-50.4164 -0.0443929 0 0.00819421 0 0)
(-50.4984 -0.0549796 0 0.0091695 0 0)
(-50.5801 -0.0673198 0 0.0104338 0 0)
(-50.6596 -0.0819019 0 0.0120215 0 0)
(-50.7365 -0.0981996 0 0.0139825 0 0)
(-50.8114 -0.115219 0 0.0163465 0 0)
(-50.8859 -0.13248 0 0.0191306 0 0)
(-50.9618 -0.149536 0 0.022304 0 0)
(-51.0401 -0.166706 0 0.0258836 0 0)
(-51.1212 -0.183597 0 0.0297789 0 0)
(-51.2049 -0.200942 0 0.0340793 0 0)
(-51.2908 -0.217534 0 0.0386295 0 0)
(-51.3781 -0.234913 0 0.0435146 0 0)
(-49.9961 0.00576671 0 0.0113816 0 0)
(-49.9998 0.0070902 0 0.0109516 0 0)
(-50.0314 0.014695 0 0.00870342 0 0)
(-50.0979 0.0199865 0 0.0076878 0 0)
(-50.182 0.0195298 0 0.00759149 0 0)
(-50.2683 0.0139699 0 0.00803578 0 0)
(-50.3498 0.00419882 0 0.00877136 0 0)
(-50.4277 -0.00917012 0 0.00967642 0 0)
(-50.5049 -0.02485 0 0.0107528 0 0)
(-50.5842 -0.0412796 0 0.0121052 0 0)
(-50.6658 -0.0568295 0 0.013811 0 0)
(-50.7498 -0.070645 0 0.0158632 0 0)
(-50.8345 -0.0822413 0 0.0181804 0 0)
(-50.92 -0.0922426 0 0.0207266 0 0)
(-51.0047 -0.100825 0 0.0234233 0 0)
(-51.0901 -0.109307 0 0.0263729 0 0)
(-51.1741 -0.117154 0 0.0294851 0 0)
(-51.2606 -0.126126 0 0.0328157 0 0)
(-49.9323 -0.00881168 0 0.0116288 0 0)
(-49.9279 0.0302153 0 0.0101177 0 0)
(-49.9546 0.0443308 0 0.00731047 0 0)
(-50.0156 0.0471066 0 0.00615822 0 0)
(-50.0909 0.0459138 0 0.00584467 0 0)
(-50.1669 0.0419635 0 0.0059654 0 0)
(-50.2398 0.035026 0 0.00636586 0 0)
(-50.3122 0.0260059 0 0.0069779 0 0)
(-50.3885 0.0163589 0 0.00778455 0 0)
(-50.4708 0.00679526 0 0.00878709 0 0)
(-50.5586 -0.00267929 0 0.00998765 0 0)
(-50.6503 -0.0124981 0 0.0113937 0 0)
(-50.7437 -0.0226049 0 0.0129927 0 0)
(-50.8373 -0.033142 0 0.0147844 0 0)
(-50.9298 -0.0434381 0 0.0167104 0 0)
(-51.0206 -0.0537143 0 0.0188221 0 0)
(-51.1093 -0.0629548 0 0.0210392 0 0)
(-51.1963 -0.0721017 0 0.0233635 0 0)
(-49.7675 -0.0214839 0 0.00959591 0 0)
(-49.8284 0.0398247 0 0.00832592 0 0)
(-49.901 0.0686568 0 0.00615687 0 0)
(-49.9807 0.0787523 0 0.00530484 0 0)
(-50.062 0.0815703 0 0.00518919 0 0)
(-50.1421 0.0815399 0 0.0053828 0 0)
(-50.2216 0.0792498 0 0.00569914 0 0)
(-50.3031 0.0747377 0 0.00610146 0 0)
(-50.3891 0.0687433 0 0.00663092 0 0)
(-50.4795 0.0623536 0 0.00732248 0 0)
(-50.573 0.0564215 0 0.00816839 0 0)
(-50.6678 0.0510415 0 0.00914933 0 0)
(-50.7632 0.0461138 0 0.0102435 0 0)
(-50.8585 0.0411007 0 0.0114576 0 0)
(-50.9545 0.0360396 0 0.0127561 0 0)
(-51.05 0.0305059 0 0.0141861 0 0)
(-51.1463 0.0252279 0 0.0156886 0 0)
(-51.2406 0.0195601 0 0.0172642 0 0)
(-50.1304 0.0327307 0 0.0092938 0 0)
(-50.2013 0.060136 0 0.00655423 0 0)
(-50.2942 0.091109 0 0.00415862 0 0)
(-50.3921 0.105773 0 0.00336955 0 0)
(-50.4836 0.106962 0 0.00321627 0 0)
(-50.5677 0.104003 0 0.00326246 0 0)
(-50.6479 0.101765 0 0.00340465 0 0)
(-50.7287 0.1003 0 0.00363704 0 0)
(-50.8131 0.0984459 0 0.00397267 0 0)
(-50.9014 0.0955714 0 0.00442141 0 0)
(-50.9926 0.0918253 0 0.0049789 0 0)
(-51.0851 0.0874117 0 0.00563763 0 0)
(-51.1777 0.0826319 0 0.00638682 0 0)
(-51.2697 0.0775264 0 0.00722115 0 0)
(-51.3606 0.0724586 0 0.00811226 0 0)
(-51.4501 0.0672569 0 0.00908953 0 0)
(-51.5382 0.0625219 0 0.0101091 0 0)
(-51.625 0.0576659 0 0.0111707 0 0)
(-49.7938 0.0249416 0 0.0072064 0 0)
(-49.8338 0.0960025 0 0.00528499 0 0)
(-49.9176 0.132226 0 0.00350498 0 0)
(-50.0218 0.145857 0 0.00275684 0 0)
(-50.1218 0.149289 0 0.00251062 0 0)
(-50.2163 0.150308 0 0.00249767 0 0)
(-50.311 0.15104 0 0.00260572 0 0)
(-50.4085 0.151081 0 0.0027833 0 0)
(-50.5069 0.150275 0 0.00301505 0 0)
(-50.6036 0.149019 0 0.00330244 0 0)
(-50.6979 0.147747 0 0.00364856 0 0)
(-50.7906 0.146419 0 0.00405703 0 0)
(-50.8837 0.144878 0 0.00452805 0 0)
(-50.978 0.142761 0 0.00506537 0 0)
(-51.0743 0.140231 0 0.00564467 0 0)
(-51.1713 0.137267 0 0.00628804 0 0)
(-51.2689 0.134495 0 0.0069652 0 0)
(-51.3654 0.131702 0 0.00766164 0 0)
(-50.2071 0.0219602 0 0.00683249 0 0)
(-50.338 0.113074 0 0.00491853 0 0)
(-50.4762 0.140705 0 0.00333761 0 0)
(-50.5958 0.145311 0 0.00265532 0 0)
(-50.6951 0.148928 0 0.00236805 0 0)
(-50.7839 0.155348 0 0.0022396 0 0)
(-50.8722 0.160973 0 0.00218687 0 0)
(-50.9645 0.163452 0 0.00219602 0 0)
(-51.0606 0.163113 0 0.00227005 0 0)
(-51.1578 0.161492 0 0.00240684 0 0)
(-51.2538 0.159914 0 0.00259716 0 0)
(-51.3474 0.158958 0 0.00282581 0 0)
(-51.4389 0.158621 0 0.00308308 0 0)
(-51.5284 0.158452 0 0.00337195 0 0)
(-51.6172 0.158182 0 0.00368588 0 0)
(-51.7047 0.157417 0 0.00405216 0 0)
(-51.7926 0.156398 0 0.00445192 0 0)
(-51.8792 0.154861 0 0.00486177 0 0)
(-50.0287 0.0962396 0 0.00556731 0 0)
(-50.2236 0.162675 0 0.0030444 0 0)
(-50.4124 0.196655 0 0.00168194 0 0)
(-50.5604 0.205097 0 0.00117768 0 0)
(-50.6695 0.208803 0 0.000957329 0 0)
(-50.7613 0.21379 0 0.000836761 0 0)
(-50.8522 0.217669 0 0.000771441 0 0)
(-50.9474 0.219249 0 0.000757817 0 0)
(-51.0456 0.219448 0 0.000789972 0 0)
(-51.1447 0.21926 0 0.000857228 0 0)
(-51.2427 0.21903 0 0.000953895 0 0)
(-51.3389 0.218713 0 0.0010799 0 0)
(-51.4332 0.218219 0 0.00123571 0 0)
(-51.5257 0.217546 0 0.00142073 0 0)
(-51.6172 0.216887 0 0.00162571 0 0)
(-51.7079 0.216326 0 0.0018629 0 0)
(-51.7991 0.216166 0 0.00211629 0 0)
(-51.8898 0.216215 0 0.00237755 0 0)
(-50.1583 0.100084 0 0.00492346 0 0)
(-50.3374 0.156117 0 0.00242227 0 0)
(-50.5565 0.176089 0 0.00127171 0 0)
(-50.7272 0.181882 0 0.000871089 0 0)
(-50.8431 0.188779 0 0.000689727 0 0)
(-50.9402 0.196815 0 0.000576271 0 0)
(-51.0411 0.203358 0 0.000490054 0 0)
(-51.1482 0.207744 0 0.000431298 0 0)
(-51.2571 0.21048 0 0.000402203 0 0)
(-51.3643 0.212242 0 0.000399296 0 0)
(-51.4694 0.21345 0 0.000417922 0 0)
(-51.5731 0.214608 0 0.000453915 0 0)
(-51.677 0.215874 0 0.000506262 0 0)
(-51.7808 0.217516 0 0.000571455 0 0)
(-51.8856 0.219302 0 0.000646787 0 0)
(-51.9884 0.221352 0 0.000743287 0 0)
(-52.0915 0.223368 0 0.000856537 0 0)
(-52.1901 0.22545 0 0.00097626 0 0)
(-50.2306 0.170528 0 0.00328232 0 0)
(-50.5985 0.273885 0 0.000424914 0 0)
(-50.9207 0.262261 0 -0.000110363 0 0)
(-51.1438 0.258939 0 -0.000283137 0 0)
(-51.2902 0.266424 0 -0.000471787 0 0)
(-51.3949 0.272425 0 -0.000613057 0 0)
(-51.474 0.27528 0 -0.000701962 0 0)
(-51.5306 0.276732 0 -0.000757743 0 0)
(-51.5654 0.277611 0 -0.00079112 0 0)
(-51.5826 0.278394 0 -0.000809045 0 0)
(-51.5854 0.279282 0 -0.000815344 0 0)
(-51.5783 0.280574 0 -0.000815421 0 0)
(-51.5605 0.281964 0 -0.00080733 0 0)
(-51.5358 0.283504 0 -0.000791036 0 0)
(-51.4993 0.284634 0 -0.000761011 0 0)
(-51.4578 0.285774 0 -0.000715996 0 0)
(-51.4021 0.286555 0 -0.000656175 0 0)
(-51.3479 0.287868 0 -0.000599535 0 0)
(-49.0149 0.146635 0 0.00232086 0 0)
(-47.4648 0.232851 0 0.000140084 0 0)
(-45.8838 0.221316 0 -0.000139637 0 0)
(-44.2864 0.213516 0 -0.00024754 0 0)
(-42.7398 0.211304 0 -0.000347206 0 0)
(-41.2814 0.207213 0 -0.000394843 0 0)
(-39.9173 0.201003 0 -0.000402168 0 0)
(-38.6419 0.19418 0 -0.000393199 0 0)
(-37.447 0.187529 0 -0.000380011 0 0)
(-36.3264 0.181409 0 -0.000366488 0 0)
(-35.2717 0.175866 0 -0.000353595 0 0)
(-34.2791 0.170851 0 -0.000341738 0 0)
(-33.3404 0.166066 0 -0.000328137 0 0)
(-32.4574 0.161472 0 -0.000314122 0 0)
(-31.6191 0.156839 0 -0.000298613 0 0)
(-30.8347 0.152485 0 -0.000279073 0 0)
(-30.0834 0.148256 0 -0.000260812 0 0)
(-29.3889 0.144806 0 -0.000254705 0 0)
(-0.00492864 0.0152498 -4.28117e-23 -0.0347727 7.48324e-23 4.12141e-39)
(-0.0469381 0.0230249 1.4412e-22 0.00103775 -8.71261e-23 4.05548e-39)
(-0.016055 -0.0367827 0 0.04026 0 0)
(0.159573 -0.119163 0 0.0593007 0 0)
(0.450099 -0.164781 0 0.044037 0 0)
(0.762481 -0.159734 -5.54008e-22 0.0218984 1.6217e-23 3.81484e-39)
(1.03439 -0.116965 0 0.00515031 0 0)
(1.24182 -0.0670314 0 0.00154993 0 0)
(1.41769 -0.039684 0 0.0145679 0 0)
(1.60665 -0.0652474 0 0.0432735 0 0)
(1.85231 -0.118344 8.0749e-22 0.0629664 9.6457e-23 3.51969e-39)
(2.07158 -0.123046 0 0.062732 0 0)
(2.29375 -0.227606 0 0.0790732 0 0)
(2.73943 -0.300796 0 0.0758872 0 0)
(3.23749 -0.271062 0 0.0646048 0 0)
(3.67595 -0.218572 8.39386e-22 0.0612014 1.67238e-22 3.24245e-39)
(4.06012 -0.103358 0 0.0515348 0 0)
(4.28779 0.0836379 0 0.0460016 0 0)
(4.38316 0.209391 0 0.057922 0 0)
(4.38498 0.246529 0 0.0722885 0 0)
(4.38722 0.191016 0 0.0879535 0 0)
(4.49998 0.110363 0 0.107024 0 0)
(4.73809 0.0756764 0 0.115406 0 0)
(5.03008 0.0116147 -6.9067e-22 0.113935 1.3885e-22 2.84646e-39)
(5.47007 -0.101701 8.98692e-22 0.131372 -1.09752e-22 2.80028e-39)
(6.0063 -0.147123 -1.07597e-21 0.140089 5.04067e-23 2.7547e-39)
(6.6039 -0.15736 -1.22557e-21 0.160957 -2.43771e-23 2.70971e-39)
(7.27257 -0.157511 0 0.180668 0 0)
(7.94429 -0.137147 0 0.158152 0 0)
(8.59467 -0.180617 1.58095e-21 0.172486 7.97222e-23 2.57521e-39)
(9.24436 -0.233694 1.7339e-21 0.170871 7.46752e-23 2.53026e-39)
(9.90824 -0.261382 0 0.161055 0 0)
(10.6017 -0.275843 0 0.155577 0 0)
(11.2702 -0.288721 2.41349e-21 0.164869 4.24554e-24 2.39925e-39)
(11.8528 -0.314481 0 0.187109 0 0)
(12.3597 -0.306486 0 0.223636 0 0)
(12.8249 -0.284871 -2.97946e-21 0.28524 -4.71392e-23 2.27345e-39)
(13.3203 -0.317726 0 0.308108 0 0)
(13.8973 -0.365698 -3.14149e-21 0.288258 -1.76055e-22 2.1924e-39)
(14.3809 -0.327754 -6.35426e-21 0.23571 -3.31448e-22 8.60987e-39)
(14.5277 -0.154454 0 0.195999 0 0)
(14.2482 0.057018 0 0.193528 0 0)
(13.48 0.171553 0 0.220428 0 0)
(12.6791 0.0562938 0 0.243591 0 0)
(12.1198 -0.108078 0 0.301058 0 0)
(11.9554 -0.473077 -6.01739e-21 0.290602 3.91694e-22 7.69709e-39)
(12.3153 -0.955013 -6.15436e-21 0.298387 6.26451e-22 7.55117e-39)
(12.7113 -1.05058 -6.28373e-21 0.348909 6.87001e-22 7.40784e-39)
(13.2391 -0.574937 0 0.209772 0 0)
(13.3977 -0.38171 7.1164e-21 0.257563 -4.81644e-22 7.12819e-39)
(13.9659 -0.390253 0 0.204777 0 0)
(14.7064 -0.373356 -8.46168e-21 0.195943 4.44405e-22 6.86127e-39)
(15.5884 -0.345894 -9.46528e-21 0.182053 4.42907e-22 6.73275e-39)
(16.5094 -0.368829 0 0.162367 0 0)
(17.5711 -0.411342 0 0.143495 0 0)
(18.5464 -0.595327 0 0.14994 0 0)
(19.5895 -0.518737 -1.47636e-20 0.149774 7.01558e-22 6.24555e-39)
(20.3702 -0.492618 0 0.216262 0 0)
(21.5969 -0.593662 0 0.175226 0 0)
(22.9967 -0.702411 0 0.15193 0 0)
(24.9562 -0.780626 0 0.127153 0 0)
(26.7099 -1.0973 0 0.139354 0 0)
(28.4515 -0.905554 0 0.106838 0 0)
(29.2568 -0.552045 0 0.215708 0 0)
(30.1403 -0.571137 0 0.212638 0 0)
(31.2169 -0.58445 2.41281e-20 0.215359 -3.66157e-22 5.24554e-39)
(32.4149 -0.614595 0 0.210387 0 0)
(33.7055 -0.61349 0 0.207829 0 0)
(35.0218 -0.59234 -2.63955e-20 0.206245 6.6124e-22 4.93932e-39)
(36.3014 -0.555815 -2.74932e-20 0.207573 6.54767e-22 4.84103e-39)
(37.5319 -0.532035 0 0.212699 0 0)
(38.7066 -0.520783 2.98885e-20 0.222279 -7.06083e-22 4.64934e-39)
(39.8717 -0.491945 -3.08745e-20 0.238078 6.40189e-22 4.55509e-39)
(40.9758 -0.458731 0 0.246545 0 0)
(41.9372 -0.404064 3.14039e-20 0.229795 -3.63201e-22 4.36695e-39)
(42.5918 -0.261439 0 0.202328 0 0)
(42.5444 -0.0539928 0 0.178226 0 0)
(41.6714 0.248492 -2.86472e-20 0.158939 -2.37885e-22 4.09423e-39)
(39.4759 0.58183 0 0.155089 0 0)
(36.0073 0.889509 2.60037e-20 0.163631 3.92284e-22 3.9248e-39)
(31.2037 0.913282 0 0.163704 0 0)
(26.5666 0.484476 -2.30692e-20 0.127627 -7.96075e-23 3.76403e-39)
(23.8643 0.353978 -2.22487e-20 0.121152 1.07279e-23 3.68484e-39)
(21.5685 0.156389 -2.16342e-20 0.126763 1.53813e-22 3.60678e-39)
(20.7972 -0.326474 -4.32621e-20 0.125998 9.44641e-22 1.4121e-38)
(20.3075 -0.498375 4.32832e-20 0.161046 -1.05661e-21 1.38197e-38)
(19.787 -0.422819 0 0.16572 0 0)
(18.0655 0.0152021 0 0.214387 0 0)
(15.4288 0.627827 0 0.198434 0 0)
(12.789 0.473571 3.73484e-20 0.226789 3.61113e-22 1.26405e-38)
(11.7092 0.0914067 3.55515e-20 0.160862 -8.81076e-23 1.23574e-38)
(11.6786 -0.187944 -3.48265e-20 0.120605 4.9575e-22 1.20821e-38)
(12.4089 -0.361754 0 0.0880009 0 0)
(13.7095 -0.460018 3.61536e-20 0.0662519 -9.7672e-22 1.15531e-38)
(15.4934 -0.524929 3.76785e-20 0.0506686 -1.08749e-21 1.12982e-38)
(17.6092 -0.567265 3.93493e-20 0.0397769 -1.13782e-21 1.10486e-38)
(19.9675 -0.585951 0 0.0316999 0 0)
(22.3041 -0.557047 0 0.0257378 0 0)
(24.4606 -0.456813 0 0.0217292 0 0)
(26.0185 -0.287667 4.27803e-20 0.0201041 -7.54209e-22 1.00947e-38)
(26.8197 -0.0270607 0 0.0238566 0 0)
(26.3987 0.258017 0 0.035717 0 0)
(24.7113 0.564974 -4.14321e-20 0.0591678 2.76254e-23 9.42304e-39)
(21.8703 0.622633 0 0.0723634 0 0)
(19.0958 0.540923 0 0.073912 0 0)
(17.1391 -0.186164 -3.66781e-20 0.0695165 1.55257e-22 8.78406e-39)
(16.2867 -0.00638416 0 0.102095 0 0)
(13.0312 0.221836 0 0.311683 0 0)
(11.2331 0.0897527 3.11854e-20 0.259896 -1.70131e-22 8.1605e-39)
(10.3629 -0.000498717 2.95711e-20 0.229087 4.46427e-24 7.96079e-39)
(11.1289 -0.324713 0 0.190574 0 0)
(13.5035 -0.593126 -3.13312e-20 0.133057 7.27376e-22 7.57923e-39)
(16.8106 -0.720658 0 0.0888526 0 0)
(20.4529 -0.741226 3.87731e-20 0.057557 -1.02983e-21 7.22374e-39)
(24.1047 -0.697585 0 0.0360575 0 0)
(27.4516 -0.605806 4.62562e-20 0.021066 -8.09548e-22 6.88208e-39)
(30.3405 -0.486631 4.85976e-20 0.0108165 -6.02979e-22 6.71343e-39)
(32.6163 -0.351535 0 0.00400926 0 0)
(34.2291 -0.210783 0 -0.000205002 0 0)
(35.1299 -0.0687117 0 -0.00253695 0 0)
(35.3097 0.0690539 0 -0.0034287 0 0)
(34.7859 0.196299 0 -0.00322093 0 0)
(33.6227 0.306195 0 -0.00218088 0 0)
(31.9105 0.393731 0 -0.000743207 0 0)
(29.7679 0.457189 2.06466e-20 0.000819456 5.80109e-22 5.40661e-39)
(27.3108 0.498033 -1.46673e-20 0.00232819 -5.61126e-22 5.25608e-39)
(24.6447 0.519442 0 0.00365971 0 0)
(21.8527 0.525985 0 0.00480349 0 0)
(19.0023 0.521609 0 0.00576816 0 0)
(16.1495 0.508262 0 0.00653903 0 0)
(13.3438 0.48645 1.35463e-20 0.00705417 -5.75095e-22 1.8281e-38)
(10.632 0.455979 0 0.0072608 0 0)
(8.06217 0.417151 -2.17902e-20 0.00713354 3.62629e-22 1.72846e-38)
(5.68007 0.370949 2.43097e-20 0.00669619 -2.77248e-22 1.68031e-38)
(3.52808 0.320259 0 0.00607474 0 0)
(1.62907 0.283037 0 0.00583685 0 0)
(-0.0268309 0.2394 0 0.00535577 0 0)
(-1.46909 0.201206 -2.76673e-20 0.00499469 9.56316e-23 1.49461e-38)
(-2.71637 0.169023 -2.76315e-20 0.00475118 7.44708e-23 1.45045e-38)
(-3.79766 0.142458 0 0.00460915 0 0)
(-4.73946 0.120799 -2.71728e-20 0.0045579 4.41853e-23 1.36511e-38)
(-5.56369 0.10277 -2.6825e-20 0.00458958 2.82163e-23 1.32386e-38)
(-6.28727 0.0869655 2.64194e-20 0.00469803 -1.06026e-23 1.28355e-38)
(-6.91977 0.0722214 0 0.00487548 0 0)
(-7.46442 0.0576916 0 0.00511199 0 0)
(-7.91961 0.042886 2.49274e-20 0.00539866 4.84609e-23 1.16793e-38)
(-8.28208 0.0276078 0 0.00573549 0 0)
(-8.54542 0.0119062 0 0.00612827 0 0)
(-8.70515 -0.0038007 0 0.00658112 0 0)
(-8.75785 -0.0189937 0 0.00709433 0 0)
(-8.70206 -0.0332318 -2.18232e-20 0.00767168 -1.57758e-22 9.91846e-39)
(-8.5382 -0.0460487 -2.11176e-20 0.00833818 -1.83152e-22 9.58969e-39)
(-8.26846 -0.0571235 0 0.00915081 0 0)
(-7.8955 -0.0664779 -1.955e-20 0.010238 -2.67665e-22 8.9544e-39)
(-7.42036 -0.0735202 0 0.0118651 0 0)
(-6.84483 -0.0761362 0 0.0142781 0 0)
(-6.17566 -0.0718996 -1.63951e-20 0.0175746 -3.40028e-22 8.05659e-39)
(-5.42501 -0.0593367 0 0.0214411 0 0)
(-4.61601 -0.0363293 -1.37396e-20 0.0251402 -2.7395e-22 7.49407e-39)
(-3.80553 -0.00580642 0 0.0275043 0 0)
(-3.06345 0.0185383 0 0.0272448 0 0)
(-2.44446 0.0192255 -1.01124e-20 0.025035 -6.98723e-23 6.70047e-39)
(-1.95434 -0.00762966 0 0.0232998 0 0)
(-1.47935 -0.0533021 -8.64251e-21 0.0231984 -1.38863e-22 6.20245e-39)
(-0.92551 -0.0714754 0 0.0229593 0 0)
(-0.332975 -0.0554315 0 0.0189368 0 0)
(0.212407 -0.0165007 0 0.0142484 0 0)
(0.622557 0.0277218 6.37225e-21 0.0133744 4.15142e-23 5.27688e-39)
(0.85272 0.0511156 0 0.0141048 0 0)
(0.938528 0.053446 -5.54033e-21 0.0142186 -8.92161e-24 4.84839e-39)
(0.950276 0.0447984 0 0.0134341 0 0)
(0.940765 0.0282921 0 0.0123484 0 0)
(0.95397 0.00954111 0 0.0120176 0 0)
(1.03029 -0.00543449 0 0.012352 0 0)
(1.15352 -0.00611818 0 0.0117897 0 0)
(1.28635 0.00462843 0 0.0110354 0 0)
(1.3827 0.0142907 0 0.00992072 0 0)
(1.47004 0.0152849 4.67583e-21 0.00819841 7.32399e-23 1.34257e-38)
(1.44023 0.0195497 0 0.00645514 0 0)
(1.46789 0.0599738 0 0.00777668 0 0)
(0.00536677 -0.00111105 2.78665e-23 -0.149139 -8.97777e-22 3.70848e-38)
(0.0442361 -0.0592408 -2.08427e-22 0.085402 1.10264e-21 3.65514e-38)
(0.174653 -0.2343 0 0.39367 0 0)
(0.381645 -0.380948 4.17264e-22 0.501035 -7.78348e-22 1.57478e-38)
(0.602158 -0.395215 0 0.371363 0 0)
(0.803066 -0.325757 2.65546e-22 0.239625 -2.05453e-22 3.80397e-39)