/*--------------------------------*- C++ -*----------------------------------*\
  =========                 |
  \\      /  F ield         | OpenFOAM: The Open Source CFD Toolbox
   \\    /   O peration     | Website:  https://openfoam.org
    \\  /    A nd           | Version:  9
     \\/     M anipulation  |
\*---------------------------------------------------------------------------*/
FoamFile
{
    format      ascii;
    class       surfaceScalarField;
    location    "0.05";
    object      phi;
}
// * * * * * * * * * * * * * * * * * * * * * * * * * * * * * * * * * * * * * //

dimensions      [0 3 -1 0 0 0 0];

internalField   nonuniform List<scalar> 
24170
(
3.13359e-06
5.48194e-08
3.04822e-06
8.53621e-08
2.97304e-06
7.51842e-08
2.90412e-06
6.89203e-08
2.83918e-06
6.4944e-08
2.78182e-06
5.73608e-08
2.73275e-06
4.90662e-08
2.69103e-06
4.17182e-08
2.65537e-06
3.56619e-08
2.62459e-06
3.07753e-08
2.59773e-06
2.68595e-08
2.57398e-06
2.37507e-08
2.55265e-06
2.13319e-08
2.53307e-06
1.95793e-08
2.51462e-06
1.84542e-08
2.49568e-06
1.89343e-08
2.47582e-06
1.98646e-08
3.00844e-08
2.44573e-06
3.45361e-06
1.84558e-08
3.45616e-06
8.28151e-08
3.44959e-06
8.17494e-08
3.43794e-06
8.05751e-08
3.4234e-06
7.94833e-08
3.40579e-06
7.49719e-08
3.38607e-06
6.8786e-08
3.36505e-06
6.27339e-08
3.34351e-06
5.7203e-08
3.32205e-06
5.22361e-08
3.30107e-06
4.78411e-08
3.28079e-06
4.40264e-08
3.26134e-06
4.07854e-08
3.24271e-06
3.82068e-08
3.22497e-06
3.62007e-08
3.20796e-06
3.59377e-08
3.19251e-06
3.53214e-08
4.22716e-08
3.18032e-06
3.66535e-06
1.5623e-08
3.67823e-06
6.99305e-08
3.68527e-06
7.47168e-08
3.6895e-06
7.63373e-08
3.69112e-06
7.78667e-08
3.68992e-06
7.61776e-08
3.68637e-06
7.23284e-08
3.68107e-06
6.80388e-08
3.67443e-06
6.38456e-08
3.66679e-06
5.98677e-08
3.65845e-06
5.61814e-08
3.64962e-06
5.2863e-08
3.64044e-06
4.99658e-08
3.63103e-06
4.76178e-08
3.6214e-06
4.58299e-08
3.61193e-06
4.54094e-08
3.60197e-06
4.5273e-08
4.86901e-08
3.59555e-06
3.92464e-06
1.63684e-08
3.93578e-06
5.87979e-08
3.94248e-06
6.80078e-08
3.94791e-06
7.09129e-08
3.95225e-06
7.35211e-08
3.95509e-06
7.33406e-08
3.95654e-06
7.08757e-08
3.95691e-06
6.76744e-08
3.95637e-06
6.43819e-08
3.95508e-06
6.11575e-08
3.95317e-06
5.80944e-08
3.95074e-06
5.52913e-08
3.94788e-06
5.28279e-08
3.94467e-06
5.08307e-08
3.94113e-06
4.93663e-08
3.93764e-06
4.88954e-08
3.93399e-06
4.8925e-08
5.06007e-08
3.93208e-06
4.20776e-06
1.57348e-08
4.21597e-06
5.05876e-08
4.2216e-06
6.23829e-08
4.22647e-06
6.60377e-08
4.2311e-06
6.88956e-08
4.23496e-06
6.9475e-08
4.23795e-06
6.78893e-08
4.24019e-06
6.54323e-08
4.2418e-06
6.27746e-08
4.24286e-06
6.01002e-08
4.24344e-06
5.75095e-08
4.24362e-06
5.51099e-08
4.24346e-06
5.29922e-08
4.24302e-06
5.12672e-08
4.24238e-06
5.00093e-08
4.24182e-06
4.94534e-08
4.24139e-06
4.93543e-08
4.99964e-08
4.24199e-06
4.51043e-06
1.43895e-08
4.51683e-06
4.41886e-08
4.5221e-06
5.71141e-08
4.5267e-06
6.14397e-08
4.53123e-06
6.43619e-08
4.53532e-06
6.53821e-08
4.53879e-06
6.44226e-08
4.5417e-06
6.25251e-08
4.54413e-06
6.03468e-08
4.54613e-06
5.8095e-08
4.54777e-06
5.58759e-08
4.54908e-06
5.37976e-08
4.55012e-06
5.19516e-08
4.55096e-06
5.04276e-08
4.55168e-06
4.92842e-08
4.55251e-06
4.86216e-08
4.55359e-06
4.82773e-08
4.81877e-08
4.5554e-06
4.83411e-06
1.29963e-08
4.83955e-06
3.87547e-08
4.84475e-06
5.19076e-08
4.84928e-06
5.69149e-08
4.8537e-06
5.99371e-08
4.85783e-06
6.12581e-08
4.86147e-06
6.07824e-08
4.86466e-06
5.93363e-08
4.86746e-06
5.75441e-08
4.86992e-06
5.5635e-08
4.87207e-06
5.37209e-08
4.87397e-06
5.19059e-08
4.87564e-06
5.02753e-08
4.87717e-06
4.88984e-08
4.87864e-06
4.78106e-08
4.88023e-06
4.70342e-08
4.88208e-06
4.64322e-08
4.58345e-08
4.88443e-06
5.18089e-06
1.16847e-08
5.18567e-06
3.39765e-08
5.19076e-06
4.6821e-08
5.19527e-06
5.24049e-08
5.19964e-06
5.55631e-08
5.20379e-06
5.71086e-08
5.20754e-06
5.70308e-08
5.2109e-06
5.59753e-08
5.21393e-06
5.45169e-08
5.21666e-06
5.29025e-08
5.21913e-06
5.12496e-08
5.22138e-06
4.96567e-08
5.22346e-06
4.82005e-08
5.22542e-06
4.69323e-08
5.22737e-06
4.58671e-08
5.22942e-06
4.49859e-08
5.23168e-06
4.41665e-08
4.32355e-08
5.23428e-06
5.55259e-06
1.04301e-08
5.55681e-06
2.97544e-08
5.56168e-06
4.19531e-08
5.56618e-06
4.79094e-08
5.57054e-06
5.11999e-08
5.57473e-06
5.29162e-08
5.57859e-06
5.31721e-08
5.5821e-06
5.24668e-08
5.58531e-06
5.1311e-08
5.58825e-06
4.99614e-08
5.59096e-06
4.85412e-08
5.59347e-06
4.71424e-08
5.59584e-06
4.58329e-08
5.59812e-06
4.46502e-08
5.60039e-06
4.35957e-08
5.60274e-06
4.26328e-08
5.60525e-06
4.16569e-08
4.05283e-08
5.60796e-06
5.95098e-06
9.2291e-09
5.95472e-06
2.60109e-08
5.95933e-06
3.73485e-08
5.96379e-06
4.34488e-08
5.96815e-06
4.68389e-08
5.97238e-06
4.86811e-08
5.97634e-06
4.92096e-08
5.98e-06
4.88155e-08
5.98337e-06
4.79374e-08
5.9865e-06
4.68307e-08
5.98942e-06
4.56231e-08
5.99216e-06
4.43998e-08
5.99477e-06
4.32206e-08
5.99731e-06
4.21139e-08
5.99983e-06
4.10744e-08
6.0024e-06
4.00631e-08
6.00506e-06
3.89962e-08
3.77761e-08
6.00781e-06
6.37795e-06
8.09523e-09
6.38129e-06
2.26685e-08
6.38562e-06
3.30156e-08
6.39002e-06
3.9047e-08
6.39438e-06
4.24849e-08
6.39865e-06
4.44117e-08
6.4027e-06
4.51515e-08
6.4065e-06
4.50249e-08
6.41003e-06
4.43984e-08
6.41335e-06
4.35152e-08
6.41647e-06
4.25036e-08
6.41943e-06
4.14431e-08
6.42226e-06
4.03863e-08
6.42502e-06
3.93565e-08
6.42774e-06
3.83473e-08
6.43048e-06
3.73258e-08
6.43325e-06
3.62303e-08
3.50009e-08
6.43602e-06
5.74174e-06
7.18865e-09
5.7443e-06
2.01088e-08
5.74776e-06
2.95604e-08
5.75142e-06
3.53856e-08
5.75509e-06
3.8813e-08
5.75872e-06
4.07828e-08
5.76221e-06
4.16554e-08
5.76552e-06
4.17172e-08
5.76864e-06
4.12815e-08
5.77158e-06
4.05722e-08
5.77437e-06
3.97148e-08
5.77703e-06
3.87846e-08
5.77959e-06
3.78294e-08
5.78207e-06
3.68703e-08
5.78452e-06
3.59029e-08
5.78694e-06
3.49027e-08
5.78935e-06
3.38247e-08
3.26367e-08
5.79171e-06
6.99912e-06
6.22068e-09
7.00183e-06
1.74038e-08
7.00557e-06
2.58236e-08
7.00966e-06
3.12923e-08
7.01384e-06
3.46287e-08
7.01802e-06
3.66019e-08
7.0221e-06
3.75795e-08
7.026e-06
3.78162e-08
7.02971e-06
3.75707e-08
7.03324e-06
3.7042e-08
7.03661e-06
3.63488e-08
7.03983e-06
3.55615e-08
7.04294e-06
3.47235e-08
7.04595e-06
3.38551e-08
7.0489e-06
3.29562e-08
7.05179e-06
3.20122e-08
7.05462e-06
3.09954e-08
2.98967e-08
7.05736e-06
8.53187e-06
5.20044e-09
8.53469e-06
1.45792e-08
8.53868e-06
2.18312e-08
8.5432e-06
2.67718e-08
8.54793e-06
2.99071e-08
8.55271e-06
3.18226e-08
8.55743e-06
3.28596e-08
8.562e-06
3.32413e-08
8.5664e-06
3.31744e-08
8.57061e-06
3.28262e-08
8.57466e-06
3.23042e-08
8.57855e-06
3.16729e-08
8.5823e-06
3.09716e-08
8.58593e-06
3.02209e-08
8.58946e-06
2.94259e-08
8.59289e-06
2.85821e-08
8.59621e-06
2.76763e-08
2.67169e-08
8.59939e-06
1.04003e-05
4.13806e-09
1.04032e-05
1.16511e-08
1.04074e-05
1.75994e-08
1.04124e-05
2.18263e-08
1.04177e-05
2.46211e-08
1.04231e-05
2.63927e-08
1.04285e-05
2.74244e-08
1.04339e-05
2.79038e-08
1.04391e-05
2.79896e-08
1.04441e-05
2.78133e-08
1.04489e-05
2.7466e-08
1.04536e-05
2.70042e-08
1.04581e-05
2.64629e-08
1.04624e-05
2.58628e-08
1.04667e-05
2.52137e-08
1.04707e-05
2.4519e-08
1.04746e-05
2.37758e-08
2.30033e-08
1.04783e-05
1.26779e-05
3.03824e-09
1.26809e-05
8.60847e-09
1.26854e-05
1.31144e-08
1.26908e-05
1.64367e-08
1.26967e-05
1.8726e-08
1.27029e-05
2.02394e-08
1.27091e-05
2.11816e-08
1.27153e-05
2.16953e-08
1.27214e-05
2.18941e-08
1.27273e-05
2.18724e-08
1.27331e-05
2.16992e-08
1.27387e-05
2.14201e-08
1.27441e-05
2.10644e-08
1.27493e-05
2.0651e-08
1.27543e-05
2.01917e-08
1.27592e-05
1.96944e-08
1.27638e-05
1.91619e-08
1.86172e-08
1.27682e-05
1.54543e-05
1.88818e-09
1.54575e-05
5.39506e-09
1.54624e-05
8.29958e-09
1.54683e-05
1.0519e-08
1.54749e-05
1.21193e-08
1.54819e-05
1.32368e-08
1.54891e-05
1.39888e-08
1.54963e-05
1.4462e-08
1.55035e-05
1.47247e-08
1.55105e-05
1.48333e-08
1.55174e-05
1.48309e-08
1.55241e-05
1.47473e-08
1.55305e-05
1.46028e-08
1.55368e-05
1.44114e-08
1.55428e-05
1.41833e-08
1.55485e-05
1.39267e-08
1.55541e-05
1.36452e-08
1.33611e-08
1.55593e-05
1.88389e-05
6.43148e-10
1.88424e-05
1.87048e-09
1.88478e-05
2.95257e-09
1.88544e-05
3.84441e-09
1.8862e-05
4.55887e-09
1.88701e-05
5.13181e-09
1.88785e-05
5.58736e-09
1.8887e-05
5.94569e-09
1.88955e-05
6.22566e-09
1.89039e-05
6.44345e-09
1.89121e-05
6.61137e-09
1.89201e-05
6.73849e-09
1.89279e-05
6.83176e-09
1.89354e-05
6.89669e-09
1.89427e-05
6.93784e-09
1.89496e-05
6.95963e-09
1.89563e-05
6.96343e-09
6.96741e-09
1.89627e-05
2.29648e-05
-8.10701e-10
2.29689e-05
-2.28272e-09
2.29753e-05
-3.38982e-09
2.29833e-05
-4.12007e-09
2.29923e-05
-4.49814e-09
2.3002e-05
-4.60507e-09
2.30122e-05
-4.53284e-09
2.30224e-05
-4.33901e-09
2.30327e-05
-4.06003e-09
2.30429e-05
-3.72751e-09
2.30529e-05
-3.36758e-09
2.30626e-05
-2.9977e-09
2.30721e-05
-2.62833e-09
2.30812e-05
-2.26599e-09
2.30901e-05
-1.9148e-09
2.30986e-05
-1.57668e-09
2.31069e-05
-1.25441e-09
-9.36042e-10
2.31148e-05
1.68119e-05
-1.96868e-09
1.68151e-05
-5.55434e-09
1.68201e-05
-8.38403e-09
1.68263e-05
-1.03409e-08
1.68333e-05
-1.14802e-08
1.68408e-05
-1.20314e-08
1.68484e-05
-1.21971e-08
1.68562e-05
-1.20848e-08
1.68639e-05
-1.17693e-08
1.68715e-05
-1.13216e-08
1.68789e-05
-1.07976e-08
1.68861e-05
-1.02329e-08
1.68932e-05
-9.64975e-09
1.69e-05
-9.06317e-09
1.69065e-05
-8.48336e-09
1.69129e-05
-7.91631e-09
1.6919e-05
-7.36716e-09
-6.82796e-09
1.69249e-05
1.46357e-05
-3.09265e-09
1.46389e-05
-8.75887e-09
1.46438e-05
-1.32883e-08
1.46498e-05
-1.6339e-08
1.46564e-05
-1.80625e-08
1.46633e-05
-1.89292e-08
1.46703e-05
-1.92407e-08
1.46774e-05
-1.91303e-08
1.46843e-05
-1.87181e-08
1.46911e-05
-1.81206e-08
1.46977e-05
-1.74182e-08
1.47042e-05
-1.66573e-08
1.47104e-05
-1.58683e-08
1.47164e-05
-1.50731e-08
1.47222e-05
-1.42861e-08
1.47278e-05
-1.3516e-08
1.47332e-05
-1.27689e-08
-1.20397e-08
1.47384e-05
1.27412e-05
-4.1569e-09
1.27445e-05
-1.20176e-08
1.27495e-05
-1.83306e-08
1.27554e-05
-2.22554e-08
1.27617e-05
-2.43356e-08
1.27682e-05
-2.54129e-08
1.27747e-05
-2.57904e-08
1.27812e-05
-2.55948e-08
1.27875e-05
-2.50178e-08
1.27936e-05
-2.4231e-08
1.27995e-05
-2.33304e-08
1.28052e-05
-2.23667e-08
1.28107e-05
-2.13754e-08
1.2816e-05
-2.03828e-08
1.28212e-05
-1.94053e-08
1.28261e-05
-1.84521e-08
1.28308e-05
-1.75292e-08
-1.66327e-08
1.28354e-05
1.10918e-05
-5.04978e-09
1.10952e-05
-1.53873e-08
1.11006e-05
-2.37093e-08
1.11065e-05
-2.81566e-08
1.11125e-05
-3.03324e-08
1.11186e-05
-3.15235e-08
1.11247e-05
-3.18771e-08
1.11306e-05
-3.15124e-08
1.11363e-05
-3.07212e-08
1.11418e-05
-2.97203e-08
1.11471e-05
-2.86076e-08
1.11521e-05
-2.74353e-08
1.1157e-05
-2.62442e-08
1.11617e-05
-2.50632e-08
1.11662e-05
-2.39084e-08
1.11705e-05
-2.27881e-08
1.11747e-05
-2.17071e-08
-2.06622e-08
1.11787e-05
9.65584e-06
-5.67829e-09
9.65941e-06
-1.89567e-08
9.66509e-06
-2.93889e-08
9.67089e-06
-3.39522e-08
9.67667e-06
-3.61172e-08
9.68249e-06
-3.73382e-08
9.68813e-06
-3.75239e-08
9.69352e-06
-3.68939e-08
9.69865e-06
-3.58557e-08
9.70356e-06
-3.4632e-08
9.70826e-06
-3.33034e-08
9.71274e-06
-3.19221e-08
9.71703e-06
-3.0534e-08
9.72114e-06
-2.91693e-08
9.72507e-06
-2.78433e-08
9.72885e-06
-2.65632e-08
9.73247e-06
-2.53315e-08
-2.41438e-08
9.73596e-06
8.40545e-06
-5.7718e-09
8.40986e-06
-2.33721e-08
8.41544e-06
-3.49634e-08
8.42073e-06
-3.9245e-08
8.42629e-06
-4.16799e-08
8.43192e-06
-4.29717e-08
8.43727e-06
-4.28662e-08
8.44225e-06
-4.18756e-08
8.44693e-06
-4.05359e-08
8.45134e-06
-3.90473e-08
8.45551e-06
-3.74678e-08
8.45944e-06
-3.58501e-08
8.46315e-06
-3.42428e-08
8.46665e-06
-3.26756e-08
8.46997e-06
-3.11633e-08
8.47312e-06
-2.97124e-08
8.47611e-06
-2.8325e-08
-2.69976e-08
8.47897e-06
7.31507e-06
-3.55816e-09
7.32199e-06
-3.02929e-08
7.3275e-06
-4.04755e-08
7.33236e-06
-4.4103e-08
7.33779e-06
-4.7109e-08
7.34331e-06
-4.84881e-08
7.34844e-06
-4.79964e-08
7.35311e-06
-4.65517e-08
7.35738e-06
-4.48009e-08
7.36125e-06
-4.29228e-08
7.36476e-06
-4.09771e-08
7.36794e-06
-3.90276e-08
7.37082e-06
-3.71242e-08
7.37344e-06
-3.52939e-08
7.37583e-06
-3.35488e-08
7.37801e-06
-3.18943e-08
7.38001e-06
-3.03284e-08
-2.88455e-08
7.38186e-06
6.36223e-06
4.27549e-09
6.37299e-06
-4.10496e-08
6.38017e-06
-4.76546e-08
6.38642e-06
-5.03577e-08
6.39249e-06
-5.31767e-08
6.3979e-06
-5.38951e-08
6.4024e-06
-5.24972e-08
6.40614e-06
-5.02933e-08
6.40924e-06
-4.78972e-08
6.41174e-06
-4.54217e-08
6.41369e-06
-4.29348e-08
6.41518e-06
-4.05145e-08
6.41627e-06
-3.821e-08
6.41701e-06
-3.60412e-08
6.41748e-06
-3.40154e-08
6.41772e-06
-3.2134e-08
6.41778e-06
-3.03894e-08
-2.8762e-08
6.4177e-06
5.53609e-06
1.36536e-08
5.54778e-06
-5.27467e-08
5.55751e-06
-5.73839e-08
5.56614e-06
-5.89852e-08
5.57299e-06
-6.00219e-08
5.5775e-06
-5.84113e-08
5.57976e-06
-5.47585e-08
5.58033e-06
-5.08622e-08
5.57963e-06
-4.71974e-08
5.57795e-06
-4.37359e-08
5.5755e-06
-4.04853e-08
5.57247e-06
-3.74837e-08
5.569e-06
-3.47447e-08
5.56522e-06
-3.22604e-08
5.56122e-06
-3.00166e-08
5.5571e-06
-2.80106e-08
5.55294e-06
-2.62334e-08
-2.46236e-08
5.5488e-06
4.85751e-06
-1.62448e-08
4.86092e-06
-5.61567e-08
4.86153e-06
-5.8e-08
4.8589e-06
-5.63578e-08
4.85495e-06
-5.60652e-08
4.84832e-06
-5.17884e-08
4.83916e-06
-4.5596e-08
4.82802e-06
-3.97224e-08
4.81555e-06
-3.47204e-08
4.80232e-06
-3.05131e-08
4.7888e-06
-2.69645e-08
4.77529e-06
-2.39716e-08
4.76199e-06
-2.14435e-08
4.74903e-06
-1.93015e-08
4.7365e-06
-1.74826e-08
4.72446e-06
-1.59773e-08
4.71304e-06
-1.48122e-08
-1.44826e-08
4.7029e-06
4.18643e-06
4.13027e-06
4.07227e-06
4.01592e-06
3.95985e-06
3.90806e-06
3.86247e-06
3.82274e-06
3.78802e-06
3.75751e-06
3.73055e-06
3.70658e-06
3.68513e-06
3.66583e-06
3.64835e-06
3.63237e-06
3.61756e-06
3.60308e-06
2.38261e-08
-2.38261e-08
1.08419e-07
-8.45928e-08
2.28481e-07
-1.20062e-07
3.63354e-07
-1.34873e-07
5.00532e-07
-1.37178e-07
6.32525e-07
-1.31993e-07
7.54699e-07
-1.22174e-07
8.64119e-07
-1.0942e-07
9.58874e-07
-9.47543e-08
1.03762e-06
-7.87504e-08
1.09929e-06
-6.16639e-08
1.14278e-06
-4.34967e-08
1.16689e-06
-2.41041e-08
1.17109e-06
-4.20128e-09
1.15028e-06
2.08136e-08
1.10512e-06
4.51564e-08
1.03731e-06
6.78079e-08
9.50182e-07
8.71303e-08
8.49155e-07
1.01026e-07
7.41647e-07
1.07508e-07
6.35955e-07
1.05693e-07
5.3977e-07
9.61851e-08
4.5746e-07
8.23092e-08
3.8809e-07
6.93702e-08
3.25732e-07
6.23581e-08
2.61747e-07
6.3985e-08
1.87401e-07
7.43465e-08
9.58789e-08
9.15217e-08
-1.70269e-08
1.12906e-07
-1.54028e-07
1.37001e-07
-3.15739e-07
1.61711e-07
-5.00473e-07
1.84735e-07
-7.04257e-07
2.03783e-07
-9.21318e-07
2.17061e-07
-1.1451e-06
2.23784e-07
-1.3692e-06
2.24094e-07
-1.58797e-06
2.18773e-07
-1.79693e-06
2.08963e-07
-1.99286e-06
1.95931e-07
-2.17376e-06
1.80901e-07
-2.3387e-06
1.64941e-07
-2.48762e-06
1.48913e-07
-2.62107e-06
1.33455e-07
-2.74007e-06
1.18999e-07
-2.84587e-06
1.05797e-07
-2.93983e-06
9.39649e-08
-3.02335e-06
8.35141e-08
-3.09774e-06
7.4388e-08
-3.16423e-06
6.64885e-08
-3.22392e-06
5.96971e-08
-3.27781e-06
5.38883e-08
-3.32675e-06
4.89395e-08
-3.37149e-06
4.47365e-08
-3.41266e-06
4.11766e-08
-3.45083e-06
3.81687e-08
-3.48647e-06
3.56341e-08
-3.51997e-06
3.3505e-08
-3.55169e-06
3.17232e-08
-3.58193e-06
3.02393e-08
-3.61094e-06
2.90114e-08
-3.63895e-06
2.80035e-08
-3.66613e-06
2.71851e-08
-3.69266e-06
2.653e-08
-3.71868e-06
2.60156e-08
-3.7443e-06
2.56223e-08
-3.76963e-06
2.53332e-08
-3.79477e-06
2.51334e-08
-3.81978e-06
2.50099e-08
-3.84473e-06
2.49508e-08
-3.86967e-06
2.49457e-08
-3.89466e-06
2.49852e-08
-3.91972e-06
2.50604e-08
-3.94488e-06
2.51632e-08
-3.97017e-06
2.52859e-08
-3.99559e-06
2.54213e-08
-4.02115e-06
2.55621e-08
-4.04685e-06
2.57015e-08
-4.07269e-06
2.58323e-08
-4.09863e-06
2.59475e-08
-4.12467e-06
2.60397e-08
-4.15077e-06
2.61016e-08
-4.1769e-06
2.6125e-08
-4.203e-06
2.6102e-08
-4.22903e-06
2.60235e-08
-4.25491e-06
2.58803e-08
-4.28057e-06
2.5662e-08
-4.30593e-06
2.53577e-08
-4.33088e-06
2.49552e-08
-4.35532e-06
2.4441e-08
-4.37912e-06
2.38002e-08
-4.40214e-06
2.30161e-08
-4.42421e-06
2.20698e-08
-4.44515e-06
2.09405e-08
-4.46475e-06
1.96045e-08
-4.48279e-06
1.80349e-08
-4.49899e-06
1.62015e-08
-4.51306e-06
1.40705e-08
-4.52466e-06
1.16037e-08
-4.53343e-06
8.76727e-09
-4.53899e-06
5.55988e-09
-4.54104e-06
2.04531e-09
-4.53954e-06
-1.49259e-09
-4.53452e-06
-5.02351e-09
-4.52577e-06
-8.75294e-09
-4.51298e-06
-1.27836e-08
-4.49582e-06
-1.7165e-08
-4.47389e-06
-2.19296e-08
-4.44678e-06
-2.71065e-08
-4.41406e-06
-3.27244e-08
-4.37524e-06
-3.8813e-08
-4.32984e-06
-4.54033e-08
-4.27731e-06
-5.25274e-08
-4.2171e-06
-6.02183e-08
-4.14859e-06
-6.851e-08
-4.07115e-06
-7.74358e-08
-3.98412e-06
-8.70282e-08
-3.88681e-06
-9.73166e-08
-3.77848e-06
-1.08326e-07
-3.6584e-06
-1.20076e-07
-3.52583e-06
-1.32574e-07
-3.38001e-06
-1.45816e-07
-3.22023e-06
-1.5978e-07
-3.04581e-06
-1.74418e-07
-2.85616e-06
-1.89655e-07
-2.65078e-06
-2.05377e-07
-2.42935e-06
-2.21429e-07
-2.19175e-06
-2.37606e-07
-1.9381e-06
-2.53651e-07
-1.66885e-06
-2.69248e-07
-1.38483e-06
-2.84024e-07
-1.08729e-06
-2.97534e-07
-7.78061e-07
-3.09231e-07
-4.59611e-07
-3.18449e-07
-1.34717e-07
-3.24895e-07
1.94404e-07
-3.2912e-07
5.24862e-07
-3.30458e-07
8.53021e-07
-3.28159e-07
1.1756e-06
-3.22577e-07
1.48951e-06
-3.1391e-07
1.79195e-06
-3.02443e-07
2.08049e-06
-2.88538e-07
2.35311e-06
-2.72617e-07
2.60823e-06
-2.55127e-07
2.84475e-06
-2.36513e-07
3.06194e-06
-2.1719e-07
3.25947e-06
-1.97534e-07
3.43733e-06
-1.77863e-07
3.59577e-06
-1.58441e-07
3.73525e-06
-1.39477e-07
3.85638e-06
-1.21133e-07
3.95991e-06
-1.0353e-07
4.04665e-06
-8.67379e-08
4.11743e-06
-7.07752e-08
4.17316e-06
-5.57351e-08
4.21493e-06
-4.17691e-08
4.24269e-06
-2.77554e-08
4.2539e-06
-1.12093e-08
4.24616e-06
7.73147e-09
4.22304e-06
2.31268e-08
4.18871e-06
3.43285e-08
4.14646e-06
4.22499e-08
4.0988e-06
4.76598e-08
4.04764e-06
5.11621e-08
3.99443e-06
5.3205e-08
3.94029e-06
5.41467e-08
3.886e-06
5.42831e-08
3.83213e-06
5.387e-08
3.77899e-06
5.31393e-08
3.72668e-06
5.23094e-08
3.67509e-06
5.15971e-08
3.62385e-06
5.12347e-08
3.57236e-06
5.14953e-08
3.51962e-06
5.2736e-08
3.46415e-06
5.54696e-08
3.40364e-06
6.05125e-08
3.33446e-06
6.91748e-08
3.2502e-06
8.42619e-08
3.14126e-06
1.08942e-07
2.97967e-06
1.61594e-07
2.25075e-07
2.75459e-06
1.24965e-07
-1.48791e-07
2.58485e-07
-2.18113e-07
3.79853e-07
-2.4143e-07
4.898e-07
-2.4482e-07
5.89236e-07
-2.36613e-07
6.78386e-07
-2.21144e-07
7.5717e-07
-2.00958e-07
8.25331e-07
-1.77582e-07
8.82528e-07
-1.5195e-07
9.2842e-07
-1.24642e-07
9.62762e-07
-9.6006e-08
9.85498e-07
-6.62332e-08
9.96811e-07
-3.54169e-08
9.95729e-07
-3.11888e-09
9.86292e-07
3.02505e-08
9.66006e-07
6.54427e-08
9.32391e-07
1.01422e-07
8.82995e-07
1.36526e-07
8.15897e-07
1.68125e-07
7.3056e-07
1.92845e-07
6.28746e-07
2.07507e-07
5.13901e-07
2.1103e-07
3.89543e-07
2.06668e-07
2.57179e-07
2.01734e-07
1.15561e-07
2.03976e-07
-3.82482e-08
2.17794e-07
-2.07177e-07
2.43275e-07
-3.93135e-07
2.77479e-07
-5.96226e-07
3.15997e-07
-8.13262e-07
3.54037e-07
-1.03874e-06
3.87188e-07
-1.2659e-06
4.11899e-07
-1.48799e-06
4.25872e-07
-1.6993e-06
4.28371e-07
-1.89565e-06
4.20135e-07
-2.07451e-06
4.02948e-07
-2.23485e-06
3.7911e-07
-2.37688e-06
3.50999e-07
-2.50171e-06
3.20763e-07
-2.61097e-06
2.90156e-07
-2.70651e-06
2.60485e-07
-2.79023e-06
2.32632e-07
-2.86389e-06
2.07116e-07
-2.92907e-06
1.84177e-07
-2.98712e-06
1.63848e-07
-3.03918e-06
1.46028e-07
-3.08621e-06
1.30538e-07
-3.12897e-06
1.17156e-07
-3.16813e-06
1.05648e-07
-3.20422e-06
9.57861e-08
-3.23769e-06
8.73574e-08
-3.26892e-06
8.01695e-08
-3.29824e-06
7.40523e-08
-3.32592e-06
6.88577e-08
-3.35221e-06
6.44577e-08
-3.37732e-06
6.07424e-08
-3.40143e-06
5.76178e-08
-3.42471e-06
5.50036e-08
-3.4473e-06
5.28309e-08
-3.46933e-06
5.10406e-08
-3.49091e-06
4.95819e-08
-3.51213e-06
4.84108e-08
-3.53309e-06
4.7489e-08
-3.55386e-06
4.67834e-08
-3.5745e-06
4.62645e-08
-3.59508e-06
4.59065e-08
-3.61563e-06
4.56865e-08
-3.6362e-06
4.55837e-08
-3.65683e-06
4.55794e-08
-3.67754e-06
4.56566e-08
-3.69836e-06
4.57994e-08
-3.71929e-06
4.59932e-08
-3.74035e-06
4.6224e-08
-3.76154e-06
4.64782e-08
-3.78286e-06
4.67429e-08
-3.80431e-06
4.70051e-08
-3.82586e-06
4.7252e-08
-3.8475e-06
4.74705e-08
-3.8692e-06
4.76475e-08
-3.89093e-06
4.77692e-08
-3.91265e-06
4.78214e-08
-3.93431e-06
4.77892e-08
-3.95586e-06
4.76573e-08
-3.97725e-06
4.7409e-08
-3.9984e-06
4.70271e-08
-4.01923e-06
4.64933e-08
-4.03966e-06
4.57881e-08
-4.05959e-06
4.48906e-08
-4.07893e-06
4.3779e-08
-4.09756e-06
4.24298e-08
-4.11536e-06
4.08183e-08
-4.13221e-06
3.89187e-08
-4.14798e-06
3.67042e-08
-4.16252e-06
3.41478e-08
-4.17571e-06
3.12224e-08
-4.18741e-06
2.79029e-08
-4.19751e-06
2.41677e-08
-4.2059e-06
2.00024e-08
-4.21254e-06
1.54038e-08
-4.21736e-06
1.03792e-08
-4.22024e-06
4.92974e-09
-4.22072e-06
-1.01237e-09
-4.2182e-06
-7.54565e-09
-4.21224e-06
-1.4713e-08
-4.20246e-06
-2.25615e-08
-4.18849e-06
-3.11447e-08
-4.1699e-06
-4.05168e-08
-4.14627e-06
-5.07328e-08
-4.11715e-06
-6.1849e-08
-4.08204e-06
-7.3924e-08
-4.04042e-06
-8.70186e-08
-3.99175e-06
-1.01195e-07
-3.93545e-06
-1.16519e-07
-3.87091e-06
-1.33054e-07
-3.79748e-06
-1.50865e-07
-3.71449e-06
-1.70014e-07
-3.62126e-06
-1.90554e-07
-3.51705e-06
-2.12534e-07
-3.40114e-06
-2.35986e-07
-3.27279e-06
-2.60924e-07
-3.13127e-06
-2.87336e-07
-2.97587e-06
-3.15174e-07
-2.80595e-06
-3.44344e-07
-2.62091e-06
-3.74691e-07
-2.42029e-06
-4.05994e-07
-2.20378e-06
-4.37944e-07
-1.97124e-06
-4.7014e-07
-1.72282e-06
-5.02073e-07
-1.45894e-06
-5.33129e-07
-1.18038e-06
-5.62586e-07
-8.88292e-07
-5.89622e-07
-5.842e-07
-6.13323e-07
-2.69875e-07
-6.32774e-07
5.25763e-08
-6.47346e-07
3.79951e-07
-6.56495e-07
7.08995e-07
-6.59502e-07
1.03676e-06
-6.55925e-07
1.36008e-06
-6.45892e-07
1.6759e-06
-6.29734e-07
1.98145e-06
-6.07992e-07
2.27429e-06
-5.81377e-07
2.55239e-06
-5.50723e-07
2.81418e-06
-5.16916e-07
3.05851e-06
-4.80839e-07
3.28464e-06
-4.4332e-07
3.4922e-06
-4.05099e-07
3.68115e-06
-3.66813e-07
3.85169e-06
-3.28982e-07
4.00424e-06
-2.92023e-07
4.13936e-06
-2.56252e-07
4.25773e-06
-2.21902e-07
4.36012e-06
-1.89126e-07
4.44735e-06
-1.58011e-07
4.52025e-06
-1.28627e-07
4.57944e-06
-1.00964e-07
4.62639e-06
-7.47079e-08
4.66477e-06
-4.95812e-08
4.69754e-06
-2.50388e-08
4.72289e-06
-2.22455e-09
4.73912e-06
1.81004e-08
4.74576e-06
3.56068e-08
4.74316e-06
5.02574e-08
4.73207e-06
6.2255e-08
4.71343e-06
7.18479e-08
4.68825e-06
7.93219e-08
4.65756e-06
8.49768e-08
4.62231e-06
8.91188e-08
4.58339e-06
9.20622e-08
4.54156e-06
9.41327e-08
4.49748e-06
9.56762e-08
4.45164e-06
9.70739e-08
4.40437e-06
9.87709e-08
4.35577e-06
1.0133e-07
4.30574e-06
1.05508e-07
4.25377e-06
1.12475e-07
4.19902e-06
1.23927e-07
4.13961e-06
1.43677e-07
4.07302e-06
1.75531e-07
3.99332e-06
2.41288e-07
3.38395e-07
3.88e-06
1.32271e-07
-2.81062e-07
2.57643e-07
-3.43485e-07
3.6138e-07
-3.45167e-07
4.4802e-07
-3.3146e-07
5.21461e-07
-3.10055e-07
5.83971e-07
-2.83654e-07
6.36713e-07
-2.537e-07
6.80169e-07
-2.21037e-07
7.14404e-07
-1.86185e-07
7.3925e-07
-1.49489e-07
7.54434e-07
-1.1119e-07
7.59663e-07
-7.14613e-08
7.54668e-07
-3.04221e-08
7.39686e-07
1.18628e-08
7.14508e-07
5.54282e-08
6.79663e-07
1.00288e-07
6.35024e-07
1.46061e-07
5.79904e-07
1.91646e-07
5.13049e-07
2.3498e-07
4.32808e-07
2.73086e-07
3.37375e-07
3.02939e-07
2.24912e-07
3.23493e-07
9.3823e-08
3.37757e-07
-5.6482e-08
3.52039e-07
-2.24973e-07
3.72467e-07
-4.09198e-07
4.02019e-07
-6.05645e-07
4.39722e-07
-8.09745e-07
4.81579e-07
-1.01594e-06
5.22188e-07
-1.21812e-06
5.56221e-07
-1.41049e-06
5.79558e-07
-1.5885e-06
5.8991e-07
-1.74952e-06
5.86896e-07
-1.89288e-06
5.71725e-07
-2.01939e-06
5.4665e-07
-2.13082e-06
5.14377e-07
-2.2293e-06
4.77592e-07
-2.31696e-06
4.38659e-07
-2.39568e-06
3.99481e-07
-2.46699e-06
3.6147e-07
-2.5321e-06
3.25587e-07
-2.59188e-06
2.92414e-07
-2.64701e-06
2.62244e-07
-2.69798e-06
2.35149e-07
-2.74519e-06
2.11058e-07
-2.78897e-06
1.89804e-07
-2.82959e-06
1.71166e-07
-2.86734e-06
1.54901e-07
-2.90245e-06
1.40762e-07
-2.93518e-06
1.28509e-07
-2.96574e-06
1.1792e-07
-2.99436e-06
1.08793e-07
-3.02126e-06
1.00946e-07
-3.04662e-06
9.42196e-08
-3.07063e-06
8.84719e-08
-3.09347e-06
8.35801e-08
-3.11529e-06
7.94366e-08
-3.13623e-06
7.59478e-08
-3.15643e-06
7.3032e-08
-3.17601e-06
7.06177e-08
-3.19507e-06
6.86426e-08
-3.21371e-06
6.70519e-08
-3.23202e-06
6.5797e-08
-3.25007e-06
6.48354e-08
-3.26794e-06
6.41289e-08
-3.28567e-06
6.36437e-08
-3.30334e-06
6.33491e-08
-3.32097e-06
6.32175e-08
-3.33861e-06
6.32237e-08
-3.3563e-06
6.33444e-08
-3.37406e-06
6.3558e-08
-3.39191e-06
6.38441e-08
-3.40987e-06
6.41834e-08
-3.42795e-06
6.45572e-08
-3.44615e-06
6.49473e-08
-3.46449e-06
6.53356e-08
-3.48294e-06
6.57042e-08
-3.5015e-06
6.60347e-08
-3.52016e-06
6.63086e-08
-3.5389e-06
6.65068e-08
-3.55769e-06
6.66094e-08
-3.57649e-06
6.65957e-08
-3.59528e-06
6.64443e-08
-3.61401e-06
6.61324e-08
-3.63261e-06
6.56364e-08
-3.65105e-06
6.49311e-08
-3.66925e-06
6.39902e-08
-3.68715e-06
6.27861e-08
-3.70466e-06
6.12896e-08
-3.7217e-06
5.94703e-08
-3.73818e-06
5.72962e-08
-3.75399e-06
5.47344e-08
-3.76904e-06
5.17512e-08
-3.78321e-06
4.83122e-08
-3.79637e-06
4.43831e-08
-3.80839e-06
3.99299e-08
-3.81915e-06
3.49194e-08
-3.82846e-06
2.93189e-08
-3.83615e-06
2.30949e-08
-3.84198e-06
1.62055e-08
-3.84564e-06
8.5862e-09
-3.84679e-06
1.43856e-10
-3.84513e-06
-9.20808e-09
-3.84031e-06
-1.95323e-08
-3.83198e-06
-3.08924e-08
-3.81976e-06
-4.33597e-08
-3.80327e-06
-5.7011e-08
-3.78208e-06
-7.1927e-08
-3.75573e-06
-8.81919e-08
-3.72376e-06
-1.05893e-07
-3.68566e-06
-1.25123e-07
-3.64088e-06
-1.45974e-07
-3.58886e-06
-1.68543e-07
-3.52898e-06
-1.92928e-07
-3.46062e-06
-2.19225e-07
-3.38311e-06
-2.47525e-07
-3.29576e-06
-2.77911e-07
-3.19784e-06
-3.10453e-07
-3.08862e-06
-3.45199e-07
-2.96738e-06
-3.82172e-07
-2.83336e-06
-4.21356e-07
-2.68585e-06
-4.62682e-07
-2.52418e-06
-5.06013e-07
-2.34775e-06
-5.51124e-07
-2.15605e-06
-5.97691e-07
-1.94873e-06
-6.45265e-07
-1.72561e-06
-6.93254e-07
-1.48677e-06
-7.40915e-07
-1.23255e-06
-7.87346e-07
-9.63642e-07
-8.31498e-07
-6.81074e-07
-8.72189e-07
-3.86234e-07
-9.08163e-07
-8.08288e-08
-9.38179e-07
2.32823e-07
-9.60998e-07
5.51784e-07
-9.75456e-07
8.72993e-07
-9.80711e-07
1.1934e-06
-9.76332e-07
1.50989e-06
-9.62383e-07
1.81947e-06
-9.39309e-07
2.11937e-06
-9.07893e-07
2.40718e-06
-8.69194e-07
2.68091e-06
-8.24451e-07
2.93899e-06
-7.74989e-07
3.18027e-06
-7.22125e-07
3.40405e-06
-6.67093e-07
3.60995e-06
-6.11e-07
3.79792e-06
-5.54791e-07
3.96818e-06
-4.99243e-07
4.12114e-06
-4.44973e-07
4.25734e-06
-3.92453e-07
4.37746e-06
-3.42025e-07
4.48226e-06
-2.93927e-07
4.57256e-06
-2.48308e-07
4.64918e-06
-2.05252e-07
4.71295e-06
-1.64737e-07
4.76491e-06
-1.26668e-07
4.80643e-06
-9.10932e-08
4.83927e-06
-5.78817e-08
4.86433e-06
-2.72865e-08
4.88195e-06
4.84835e-10
4.89233e-06
2.52269e-08
4.89572e-06
4.68607e-08
4.89252e-06
6.54573e-08
4.88319e-06
8.11758e-08
4.86827e-06
9.4239e-08
4.84834e-06
1.04912e-07
4.82396e-06
1.13496e-07
4.7957e-06
1.2032e-07
4.76409e-06
1.25751e-07
4.72957e-06
1.30196e-07
4.69252e-06
1.34121e-07
4.65321e-06
1.38083e-07
4.61175e-06
1.4279e-07
4.56807e-06
1.49181e-07
4.52188e-06
1.58664e-07
4.47256e-06
1.7325e-07
4.4193e-06
1.96937e-07
4.36044e-06
2.34391e-07
4.29933e-06
3.024e-07
4.04813e-07
4.23291e-06
1.10589e-07
-3.91651e-07
2.02121e-07
-4.35017e-07
2.76357e-07
-4.19404e-07
3.37939e-07
-3.93042e-07
3.89424e-07
-3.6154e-07
4.32173e-07
-3.26403e-07
4.66837e-07
-2.88364e-07
4.93634e-07
-2.47834e-07
5.12508e-07
-2.05059e-07
5.23225e-07
-1.60207e-07
5.25448e-07
-1.13413e-07
5.18786e-07
-6.47993e-08
5.02857e-07
-1.44932e-08
4.77347e-07
3.73728e-08
4.42102e-07
9.06734e-08
3.97175e-07
1.45215e-07
3.4268e-07
2.00556e-07
2.78571e-07
2.55755e-07
2.04408e-07
3.09144e-07
1.19007e-07
3.58487e-07
2.02295e-08
4.01716e-07
-9.47354e-08
4.38458e-07
-2.2806e-07
4.71082e-07
-3.79671e-07
5.03649e-07
-5.4665e-07
5.39446e-07
-7.238e-07
5.7917e-07
-9.04669e-07
6.20591e-07
-1.08257e-06
6.59477e-07
-1.25145e-06
6.91071e-07
-1.40671e-06
7.1148e-07
-1.54569e-06
7.18538e-07
-1.66778e-06
7.11997e-07
-1.77405e-06
6.93171e-07
-1.86667e-06
6.64345e-07
-1.94821e-06
6.28185e-07
-2.02113e-06
5.87297e-07
-2.0875e-06
5.43967e-07
-2.1489e-06
5.00055e-07
-2.20639e-06
4.56974e-07
-2.26066e-06
4.15734e-07
-2.31207e-06
3.77004e-07
-2.36084e-06
3.41177e-07
-2.40703e-06
3.08436e-07
-2.45069e-06
2.78808e-07
-2.49184e-06
2.52213e-07
-2.53054e-06
2.28496e-07
-2.56683e-06
2.07461e-07
-2.60082e-06
1.88891e-07
-2.63262e-06
1.72562e-07
-2.66236e-06
1.58252e-07
-2.6902e-06
1.45753e-07
-2.71627e-06
1.3487e-07
-2.74075e-06
1.25423e-07
-2.76378e-06
1.17252e-07
-2.78552e-06
1.10211e-07
-2.80611e-06
1.04172e-07
-2.82569e-06
9.90177e-08
-2.84439e-06
9.46471e-08
-2.86233e-06
9.09692e-08
-2.87962e-06
8.79033e-08
-2.89635e-06
8.53777e-08
-2.91263e-06
8.33288e-08
-2.92853e-06
8.16998e-08
-2.94414e-06
8.04397e-08
-2.95951e-06
7.9503e-08
-2.97472e-06
7.88486e-08
-2.98981e-06
7.84391e-08
-3.00483e-06
7.82407e-08
-3.01983e-06
7.82221e-08
-3.03484e-06
7.83544e-08
-3.04989e-06
7.86108e-08
-3.06501e-06
7.89658e-08
-3.08022e-06
7.93951e-08
-3.09554e-06
7.98752e-08
-3.11098e-06
8.03832e-08
-3.12654e-06
8.08963e-08
-3.14223e-06
8.13921e-08
-3.15804e-06
8.18473e-08
-3.17397e-06
8.22387e-08
-3.19e-06
8.2542e-08
-3.20613e-06
8.27325e-08
-3.22231e-06
8.27841e-08
-3.23854e-06
8.26697e-08
-3.25477e-06
8.2361e-08
-3.27096e-06
8.1828e-08
-3.28707e-06
8.10394e-08
-3.30304e-06
7.99623e-08
-3.31882e-06
7.8562e-08
-3.33433e-06
7.6802e-08
-3.3495e-06
7.4644e-08
-3.36425e-06
7.20478e-08
-3.37849e-06
6.89716e-08
-3.39211e-06
6.53715e-08
-3.405e-06
6.12023e-08
-3.41704e-06
5.64166e-08
-3.42807e-06
5.09653e-08
-3.43795e-06
4.47962e-08
-3.44648e-06
3.78535e-08
-3.45346e-06
3.00752e-08
-3.45865e-06
2.13883e-08
-3.46176e-06
1.17048e-08
-3.46255e-06
9.26489e-10
-3.46071e-06
-1.10405e-08
-3.45596e-06
-2.42828e-08
-3.44797e-06
-3.88895e-08
-3.43637e-06
-5.49553e-08
-3.4208e-06
-7.25817e-08
-3.40085e-06
-9.1875e-08
-3.3761e-06
-1.12947e-07
-3.34608e-06
-1.35915e-07
-3.3103e-06
-1.60899e-07
-3.26825e-06
-1.88025e-07
-3.21937e-06
-2.17422e-07
-3.16308e-06
-2.49218e-07
-3.09876e-06
-2.83545e-07
-3.02576e-06
-3.20524e-07
-2.9434e-06
-3.60268e-07
-2.85098e-06
-4.02873e-07
-2.74778e-06
-4.48407e-07
-2.63304e-06
-4.96904e-07
-2.50605e-06
-5.4835e-07
-2.36607e-06
-6.02664e-07
-2.21241e-06
-6.59675e-07
-2.04443e-06
-7.19098e-07
-1.86161e-06
-7.80518e-07