# vtk DataFile Version 2.0
sampleSurface
ASCII
DATASET POLYDATA
POINTS 502 float
-0.0206 0 -0.0005 -0.0190172 0 -0.0005 -0.0190172 0 0.0005 -0.0206 0
0.0005 -0.0174976 0 -0.0005 -0.0174976 0 0.0005 -0.0160387 0 -0.0005
-0.0160387 0 0.0005 -0.0146381 0 -0.0005 -0.0146381 0 0.0005 -0.0132934
0 -0.0005 -0.0132934 0 0.0005 -0.0120025 0 -0.0005 -0.0120025 0
0.0005 -0.0107632 0 -0.0005 -0.0107632 0 0.0005 -0.00957337 0 -0.0005
-0.00957337 0 0.0005 -0.00843108 0 -0.0005 -0.00843108 0 0.0005 -0.00733443
0 -0.0005 -0.00733443 0 0.0005 -0.0062816 0 -0.0005 -0.0062816 0
0.0005 -0.00527083 0 -0.0005 -0.00527083 0 0.0005 -0.00430044 0 -0.0005
-0.00430044 0 0.0005 -0.00336883 0 -0.0005 -0.00336883 0 0.0005 -0.00247443
0 -0.0005 -0.00247443 0 0.0005 -0.00161577 0 -0.0005 -0.00161577 0
0.0005 -0.000791418 0 -0.0005 -0.000791418 0 0.0005 0 0 -0.0005
0 0 0.0005 0 -0.0254 -0.0005 0 -0.0254 0.0005 0
-0.0242711 0.0005 0 -0.0242711 -0.0005 0 -0.0231422 0.0005 0 -0.0231422
-0.0005 0 -0.0220133 0.0005 0 -0.0220133 -0.0005 0 -0.0208844 0.0005
0 -0.0208844 -0.0005 0 -0.0197556 0.0005 0 -0.0197556 -0.0005 0
-0.0186267 0.0005 0 -0.0186267 -0.0005 0 -0.0174978 0.0005 0 -0.0174978
-0.0005 0 -0.0163689 0.0005 0 -0.0163689 -0.0005 0 -0.01524 0.0005
0 -0.01524 -0.0005 0 -0.0141111 0.0005 0 -0.0141111 -0.0005 0
-0.0129822 0.0005 0 -0.0129822 -0.0005 0 -0.0118533 0.0005 0 -0.0118533
-0.0005 0 -0.0107244 0.0005 0 -0.0107244 -0.0005 0 -0.00959556 0.0005
0 -0.00959556 -0.0005 0 -0.00846667 0.0005 0 -0.00846667 -0.0005 0
-0.00726604 0.0005 0 -0.00726604 -0.0005 0 -0.00618989 0.0005 0 -0.00618989
-0.0005 0 -0.00522531 0.0005 0 -0.00522531 -0.0005 0 -0.00436073 0.0005
0 -0.00436073 -0.0005 0 -0.00358579 0.0005 0 -0.00358579 -0.0005 0
-0.00289118 0.0005 0 -0.00289118 -0.0005 0 -0.0022686 0.0005 0 -0.0022686
-0.0005 0 -0.00171055 0.0005 0 -0.00171055 -0.0005 0 -0.00121037 0.0005
0 -0.00121037 -0.0005 0 -0.000762037 0.0005 0 -0.000762037 -0.0005 0
-0.000360188 0.0005 0 -0.000360188 -0.0005 0.000528387 -0.0254 -0.0005 0.000528387 -0.0254
0.0005 0.00106088 -0.0254 -0.0005 0.00106088 -0.0254 0.0005 0.00159752 -0.0254 -0.0005
0.00159752 -0.0254 0.0005 0.00213833 -0.0254 -0.0005 0.00213833 -0.0254 0.0005 0.00268334
-0.0254 -0.0005 0.00268334 -0.0254 0.0005 0.00323259 -0.0254 -0.0005 0.00323259 -0.0254
0.0005 0.00378611 -0.0254 -0.0005 0.00378611 -0.0254 0.0005 0.00434393 -0.0254 -0.0005
0.00434393 -0.0254 0.0005 0.00490609 -0.0254 -0.0005 0.00490609 -0.0254 0.0005 0.00547262
-0.0254 -0.0005 0.00547262 -0.0254 0.0005 0.00604356 -0.0254 -0.0005 0.00604356 -0.0254
0.0005 0.00661893 -0.0254 -0.0005 0.00661893 -0.0254 0.0005 0.00719878 -0.0254 -0.0005
0.00719878 -0.0254 0.0005 0.00778313 -0.0254 -0.0005 0.00778313 -0.0254 0.0005 0.00837203
-0.0254 -0.0005 0.00837203 -0.0254 0.0005 0.00896551 -0.0254 -0.0005 0.00896551 -0.0254
0.0005 0.0095636 -0.0254 -0.0005 0.0095636 -0.0254 0.0005 0.0101663 -0.0254 -0.0005
0.0101663 -0.0254 0.0005 0.0107738 -0.0254 -0.0005 0.0107738 -0.0254 0.0005 0.0113859
-0.0254 -0.0005 0.0113859 -0.0254 0.0005 0.0120028 -0.0254 -0.0005 0.0120028 -0.0254
0.0005 0.0126245 -0.0254 -0.0005 0.0126245 -0.0254 0.0005 0.0132511 -0.0254 -0.0005
0.0132511 -0.0254 0.0005 0.0138825 -0.0254 -0.0005 0.0138825 -0.0254 0.0005 0.0145188
-0.0254 -0.0005 0.0145188 -0.0254 0.0005 0.0151601 -0.0254 -0.0005 0.0151601 -0.0254
0.0005 0.0158063 -0.0254 -0.0005 0.0158063 -0.0254 0.0005 0.0164576 -0.0254 -0.0005
0.0164576 -0.0254 0.0005 0.0171139 -0.0254 -0.0005 0.0171139 -0.0254 0.0005 0.0177754
-0.0254 -0.0005 0.0177754 -0.0254 0.0005 0.018442 -0.0254 -0.0005 0.018442 -0.0254
0.0005 0.0191137 -0.0254 -0.0005 0.0191137 -0.0254 0.0005 0.0197907 -0.0254 -0.0005
0.0197907 -0.0254 0.0005 0.020473 -0.0254 -0.0005 0.020473 -0.0254 0.0005 0.0211606
-0.0254 -0.0005 0.0211606 -0.0254 0.0005 0.0218535 -0.0254 -0.0005 0.0218535 -0.0254
0.0005 0.0225517 -0.0254 -0.0005 0.0225517 -0.0254 0.0005 0.0232555 -0.0254 -0.0005
0.0232555 -0.0254 0.0005 0.0239647 -0.0254 -0.0005 0.0239647 -0.0254 0.0005 0.0246794
-0.0254 -0.0005 0.0246794 -0.0254 0.0005 0.0253996 -0.0254 -0.0005 0.0253996 -0.0254
0.0005 0.0261255 -0.0254 -0.0005 0.0261255 -0.0254 0.0005 0.026857 -0.0254 -0.0005
0.026857 -0.0254 0.0005 0.0275942 -0.0254 -0.0005 0.0275942 -0.0254 0.0005 0.0283371
-0.0254 -0.0005 0.0283371 -0.0254 0.0005 0.0290858 -0.0254 -0.0005 0.0290858 -0.0254
0.0005 0.0298403 -0.0254 -0.0005 0.0298403 -0.0254 0.0005 0.0306007 -0.0254 -0.0005
0.0306007 -0.0254 0.0005 0.031367 -0.0254 -0.0005 0.031367 -0.0254 0.0005 0.0321393
-0.0254 -0.0005 0.0321393 -0.0254 0.0005 0.0329175 -0.0254 -0.0005 0.0329175 -0.0254
0.0005 0.0337019 -0.0254 -0.0005 0.0337019 -0.0254 0.0005 0.0344923 -0.0254 -0.0005
0.0344923 -0.0254 0.0005 0.0352888 -0.0254 -0.0005 0.0352888 -0.0254 0.0005 0.0360916
-0.0254 -0.0005 0.0360916 -0.0254 0.0005 0.0369006 -0.0254 -0.0005 0.0369006 -0.0254
0.0005 0.0377158 -0.0254 -0.0005 0.0377158 -0.0254 0.0005 0.0385375 -0.0254 -0.0005
0.0385375 -0.0254 0.0005 0.0393655 -0.0254 -0.0005 0.0393655 -0.0254 0.0005 0.0401999
-0.0254 -0.0005 0.0401999 -0.0254 0.0005 0.0410408 -0.0254 -0.0005 0.0410408 -0.0254
0.0005 0.0418883 -0.0254 -0.0005 0.0418883 -0.0254 0.0005 0.0427424 -0.0254 -0.0005
0.0427424 -0.0254 0.0005 0.0436031 -0.0254 -0.0005 0.0436031 -0.0254 0.0005 0.0444704
-0.0254 -0.0005 0.0444704 -0.0254 0.0005 0.0453446 -0.0254 -0.0005 0.0453446 -0.0254
0.0005 0.0462255 -0.0254 -0.0005 0.0462255 -0.0254 0.0005 0.0471133 -0.0254 -0.0005
0.0471133 -0.0254 0.0005 0.048008 -0.0254 -0.0005 0.048008 -0.0254 0.0005 0.0489096
-0.0254 -0.0005 0.0489096 -0.0254 0.0005 0.0498183 -0.0254 -0.0005 0.0498183 -0.0254
0.0005 0.050734 -0.0254 -0.0005 0.050734 -0.0254 0.0005 0.0516568 -0.0254 -0.0005
0.0516568 -0.0254 0.0005 0.0525868 -0.0254 -0.0005 0.0525868 -0.0254 0.0005 0.053524
-0.0254 -0.0005 0.053524 -0.0254 0.0005 0.0544686 -0.0254 -0.0005 0.0544686 -0.0254
0.0005 0.0554204 -0.0254 -0.0005 0.0554204 -0.0254 0.0005 0.0563797 -0.0254 -0.0005
0.0563797 -0.0254 0.0005 0.0573464 -0.0254 -0.0005 0.0573464 -0.0254 0.0005 0.0583206
-0.0254 -0.0005 0.0583206 -0.0254 0.0005 0.0593025 -0.0254 -0.0005 0.0593025 -0.0254
0.0005 0.0602919 -0.0254 -0.0005 0.0602919 -0.0254 0.0005 0.0612891 -0.0254 -0.0005
0.0612891 -0.0254 0.0005 0.0622939 -0.0254 -0.0005 0.0622939 -0.0254 0.0005 0.0633067
-0.0254 -0.0005 0.0633067 -0.0254 0.0005 0.0643272 -0.0254 -0.0005 0.0643272 -0.0254
0.0005 0.0653557 -0.0254 -0.0005 0.0653557 -0.0254 0.0005 0.0663923 -0.0254 -0.0005
0.0663923 -0.0254 0.0005 0.0674368 -0.0254 -0.0005 0.0674368 -0.0254 0.0005 0.0684895
-0.0254 -0.0005 0.0684895 -0.0254 0.0005 0.0695504 -0.0254 -0.0005 0.0695504 -0.0254
0.0005 0.0706195 -0.0254 -0.0005 0.0706195 -0.0254 0.0005 0.0716969 -0.0254 -0.0005
0.0716969 -0.0254 0.0005 0.0727828 -0.0254 -0.0005 0.0727828 -0.0254 0.0005 0.073877
-0.0254 -0.0005 0.073877 -0.0254 0.0005 0.0749798 -0.0254 -0.0005 0.0749798 -0.0254
0.0005 0.0760911 -0.0254 -0.0005 0.0760911 -0.0254 0.0005 0.0772111 -0.0254 -0.0005
0.0772111 -0.0254 0.0005 0.0783398 -0.0254 -0.0005 0.0783398 -0.0254 0.0005 0.0794772
-0.0254 -0.0005 0.0794772 -0.0254 0.0005 0.0806235 -0.0254 -0.0005 0.0806235 -0.0254
0.0005 0.0817787 -0.0254 -0.0005 0.0817787 -0.0254 0.0005 0.0829429 -0.0254 -0.0005
0.0829429 -0.0254 0.0005 0.0841162 -0.0254 -0.0005 0.0841162 -0.0254 0.0005 0.0852985
-0.0254 -0.0005 0.0852985 -0.0254 0.0005 0.0864901 -0.0254 -0.0005 0.0864901 -0.0254
0.0005 0.0876909 -0.0254 -0.0005 0.0876909 -0.0254 0.0005 0.0889011 -0.0254 -0.0005
0.0889011 -0.0254 0.0005 0.0901207 -0.0254 -0.0005 0.0901207 -0.0254 0.0005 0.0913497
-0.0254 -0.0005 0.0913497 -0.0254 0.0005 0.0925883 -0.0254 -0.0005 0.0925883 -0.0254
0.0005 0.0938366 -0.0254 -0.0005 0.0938366 -0.0254 0.0005 0.0950945 -0.0254 -0.0005
0.0950945 -0.0254 0.0005 0.0963622 -0.0254 -0.0005 0.0963622 -0.0254 0.0005 0.0976398
-0.0254 -0.0005 0.0976398 -0.0254 0.0005 0.0989273 -0.0254 -0.0005 0.0989273 -0.0254
0.0005 0.100225 -0.0254 -0.0005 0.100225 -0.0254 0.0005 0.101532 -0.0254 -0.0005
0.101532 -0.0254 0.0005 0.10285 -0.0254 -0.0005 0.10285 -0.0254 0.0005 0.104178
-0.0254 -0.0005 0.104178 -0.0254 0.0005 0.105517 -0.0254 -0.0005 0.105517 -0.0254
0.0005 0.106865 -0.0254 -0.0005 0.106865 -0.0254 0.0005 0.108225 -0.0254 -0.0005
0.108225 -0.0254 0.0005 0.109594 -0.0254 -0.0005 0.109594 -0.0254 0.0005 0.110975
-0.0254 -0.0005 0.110975 -0.0254 0.0005 0.112366 -0.0254 -0.0005 0.112366 -0.0254
0.0005 0.113768 -0.0254 -0.0005 0.113768 -0.0254 0.0005 0.115181 -0.0254 -0.0005
0.115181 -0.0254 0.0005 0.116605 -0.0254 -0.0005 0.116605 -0.0254 0.0005 0.11804
-0.0254 -0.0005 0.11804 -0.0254 0.0005 0.119486 -0.0254 -0.0005 0.119486 -0.0254
0.0005 0.120943 -0.0254 -0.0005 0.120943 -0.0254 0.0005 0.122412 -0.0254 -0.0005
0.122412 -0.0254 0.0005 0.123892 -0.0254 -0.0005 0.123892 -0.0254 0.0005 0.125384
-0.0254 -0.0005 0.125384 -0.0254 0.0005 0.126887 -0.0254 -0.0005 0.126887 -0.0254
0.0005 0.128402 -0.0254 -0.0005 0.128402 -0.0254 0.0005 0.129928 -0.0254 -0.0005
0.129928 -0.0254 0.0005 0.131467 -0.0254 -0.0005 0.131467 -0.0254 0.0005 0.133017
-0.0254 -0.0005 0.133017 -0.0254 0.0005 0.13458 -0.0254 -0.0005 0.13458 -0.0254
0.0005 0.136155 -0.0254 -0.0005 0.136155 -0.0254 0.0005 0.137742 -0.0254 -0.0005
0.137742 -0.0254 0.0005 0.139341 -0.0254 -0.0005 0.139341 -0.0254 0.0005 0.140953
-0.0254 -0.0005 0.140953 -0.0254 0.0005 0.142577 -0.0254 -0.0005 0.142577 -0.0254
0.0005 0.144214 -0.0254 -0.0005 0.144214 -0.0254 0.0005 0.145863 -0.0254 -0.0005
0.145863 -0.0254 0.0005 0.147526 -0.0254 -0.0005 0.147526 -0.0254 0.0005 0.149201
-0.0254 -0.0005 0.149201 -0.0254 0.0005 0.15089 -0.0254 -0.0005 0.15089 -0.0254
0.0005 0.152591 -0.0254 -0.0005 0.152591 -0.0254 0.0005 0.154306 -0.0254 -0.0005
0.154306 -0.0254 0.0005 0.156034 -0.0254 -0.0005 0.156034 -0.0254 0.0005 0.157775
-0.0254 -0.0005 0.157775 -0.0254 0.0005 0.159531 -0.0254 -0.0005 0.159531 -0.0254
0.0005 0.161299 -0.0254 -0.0005 0.161299 -0.0254 0.0005 0.163082 -0.0254 -0.0005
0.163082 -0.0254 0.0005 0.164878 -0.0254 -0.0005 0.164878 -0.0254 0.0005 0.166688
-0.0254 -0.0005 0.166688 -0.0254 0.0005 0.168513 -0.0254 -0.0005 0.168513 -0.0254
0.0005 0.170351 -0.0254 -0.0005 0.170351 -0.0254 0.0005 0.172204 -0.0254 -0.0005
0.172204 -0.0254 0.0005 0.174071 -0.0254 -0.0005 0.174071 -0.0254 0.0005 0.175953
-0.0254 -0.0005 0.175953 -0.0254 0.0005 0.177849 -0.0254 -0.0005 0.177849 -0.0254
0.0005 0.17976 -0.0254 -0.0005 0.17976 -0.0254 0.0005 0.181686 -0.0254 -0.0005
0.181686 -0.0254 0.0005 0.183627 -0.0254 -0.0005 0.183627 -0.0254 0.0005 0.185583
-0.0254 -0.0005 0.185583 -0.0254 0.0005 0.187555 -0.0254 -0.0005 0.187555 -0.0254
0.0005 0.189541 -0.0254 -0.0005 0.189541 -0.0254 0.0005 0.191543 -0.0254 -0.0005
0.191543 -0.0254 0.0005 0.193561 -0.0254 -0.0005 0.193561 -0.0254 0.0005 0.195594
-0.0254 -0.0005 0.195594 -0.0254 0.0005 0.197643 -0.0254 -0.0005 0.197643 -0.0254
0.0005 0.199708 -0.0254 -0.0005 0.199708 -0.0254 0.0005 0.201789 -0.0254 -0.0005
0.201789 -0.0254 0.0005 0.203886 -0.0254 -0.0005 0.203886 -0.0254 0.0005 0.206
-0.0254 -0.0005 0.206 -0.0254 0.0005 0.208047 -0.0251856 -0.0005 0.208047 -0.0251856
0.0005 0.210173 -0.0249628 -0.0005 0.210173 -0.0249628 0.0005 0.212382 -0.0247314 -0.0005
0.212382 -0.0247314 0.0005 0.214677 -0.024491 -0.0005 0.214677 -0.024491 0.0005 0.217061
-0.0242412 -0.0005 0.217061 -0.0242412 0.0005 0.219538 -0.0239817 -0.0005 0.219538 -0.0239817
0.0005 0.222112 -0.0237121 -0.0005 0.222112 -0.0237121 0.0005 0.224785 -0.023432 -0.0005
0.224785 -0.023432 0.0005 0.227563 -0.023141 -0.0005 0.227563 -0.023141 0.0005 0.230449
-0.0228387 -0.0005 0.230449 -0.0228387 0.0005 0.233447 -0.0225246 -0.0005 0.233447 -0.0225246
0.0005 0.236562 -0.0221983 -0.0005 0.236562 -0.0221983 0.0005 0.239797 -0.0218593 -0.0005
0.239797 -0.0218593 0.0005 0.243159 -0.0215071 -0.0005 0.243159 -0.0215071 0.0005 0.246652
-0.0211412 -0.0005 0.246652 -0.0211412 0.0005 0.250281 -0.0207611 -0.0005 0.250281 -0.0207611
0.0005 0.254051 -0.0203661 -0.0005 0.254051 -0.0203661 0.0005 0.257967 -0.0199558 -0.0005
0.257967 -0.0199558 0.0005 0.262036 -0.0195295 -0.0005 0.262036 -0.0195295 0.0005 0.266264
-0.0190867 -0.0005 0.266264 -0.0190867 0.0005 0.270655 -0.0186266 -0.0005 0.270655 -0.0186266
0.0005 0.275218 -0.0181486 -0.0005 0.275218 -0.0181486 0.0005 0.279959 -0.017652 -0.0005
0.279959 -0.017652 0.0005 0.284883 -0.017136 -0.0005 0.284883 -0.017136 0.0005 0.29
-0.0166 -0.0005 0.29 -0.0166 0.0005 
POLYGONS 250 1250
4 0 1 2 3 4 1 4 5 2 4
4 6 7 5 4 6 8 9 7 4
8 10 11 9 4 10 12 13 11 4
12 14 15 13 4 14 16 17 15 4
16 18 19 17 4 18 20 21 19 4
20 22 23 21 4 22 24 25 23 4
24 26 27 25 4 26 28 29 27 4
28 30 31 29 4 30 32 33 31 4
32 34 35 33 4 34 36 37 35 4
38 39 40 41 4 41 40 42 43 4
43 42 44 45 4 45 44 46 47 4
47 46 48 49 4 49 48 50 51 4
51 50 52 53 4 53 52 54 55 4
55 54 56 57 4 57 56 58 59 4
59 58 60 61 4 61 60 62 63 4
63 62 64 65 4 65 64 66 67 4
67 66 68 69 4 69 68 70 71 4
71 70 72 73 4 73 72 74 75 4
75 74 76 77 4 77 76 78 79 4
79 78 80 81 4 81 80 82 83 4
83 82 84 85 4 85 84 86 87 4
87 86 88 89 4 89 88 90 91 4
91 90 37 36 4 38 92 93 39 4
92 94 95 93 4 94 96 97 95 4
96 98 99 97 4 98 100 101 99 4
100 102 103 101 4 102 104 105 103 4
104 106 107 105 4 106 108 109 107 4
108 110 111 109 4 110 112 113 111 4
112 114 115 113 4 114 116 117 115 4
116 118 119 117 4 118 120 121 119 4
120 122 123 121 4 122 124 125 123 4
124 126 127 125 4 126 128 129 127 4
128 130 131 129 4 130 132 133 131 4
132 134 135 133 4 134 136 137 135 4
136 138 139 137 4 138 140 141 139 4
140 142 143 141 4 142 144 145 143 4
144 146 147 145 4 146 148 149 147 4
148 150 151 149 4 150 152 153 151 4
152 154 155 153 4 154 156 157 155 4
156 158 159 157 4 158 160 161 159 4
160 162 163 161 4 162 164 165 163 4
164 166 167 165 4 166 168 169 167 4
168 170 171 169 4 170 172 173 171 4
172 174 175 173 4 174 176 177 175 4
176 178 179 177 4 178 180 181 179 4
180 182 183 181 4 182 184 185 183 4
184 186 187 185 4 186 188 189 187 4
188 190 191 189 4 190 192 193 191 4
192 194 195 193 4 194 196 197 195 4
196 198 199 197 4 198 200 201 199 4
200 202 203 201 4 202 204 205 203 4
204 206 207 205 4 206 208 209 207 4
208 210 211 209 4 210 212 213 211 4
212 214 215 213 4 214 216 217 215 4
216 218 219 217 4 218 220 221 219 4
220 222 223 221 4 222 224 225 223 4
224 226 227 225 4 226 228 229 227 4
228 230 231 229 4 230 232 233 231 4
232 234 235 233 4 234 236 237 235 4
236 238 239 237 4 238 240 241 239 4
240 242 243 241 4 242 244 245 243 4
244 246 247 245 4 246 248 249 247 4
248 250 251 249 4 250 252 253 251 4
252 254 255 253 4 254 256 257 255 4
256 258 259 257 4 258 260 261 259 4
260 262 263 261 4 262 264 265 263 4
264 266 267 265 4 266 268 269 267 4
268 270 271 269 4 270 272 273 271 4
272 274 275 273 4 274 276 277 275 4
276 278 279 277 4 278 280 281 279 4
280 282 283 281 4 282 284 285 283 4
284 286 287 285 4 286 288 289 287 4
288 290 291 289 4 290 292 293 291 4
292 294 295 293 4 294 296 297 295 4
296 298 299 297 4 298 300 301 299 4
300 302 303 301 4 302 304 305 303 4
304 306 307 305 4 306 308 309 307 4
308 310 311 309 4 310 312 313 311 4
312 314 315 313 4 314 316 317 315 4
316 318 319 317 4 318 320 321 319 4
320 322 323 321 4 322 324 325 323 4
324 326 327 325 4 326 328 329 327 4
328 330 331 329 4 330 332 333 331 4
332 334 335 333 4 334 336 337 335 4
336 338 339 337 4 338 340 341 339 4
340 342 343 341 4 342 344 345 343 4
344 346 347 345 4 346 348 349 347 4
348 350 351 349 4 350 352 353 351 4
352 354 355 353 4 354 356 357 355 4
356 358 359 357 4 358 360 361 359 4
360 362 363 361 4 362 364 365 363 4
364 366 367 365 4 366 368 369 367 4
368 370 371 369 4 370 372 373 371 4
372 374 375 373 4 374 376 377 375 4
376 378 379 377 4 378 380 381 379 4
380 382 383 381 4 382 384 385 383 4
384 386 387 385 4 386 388 389 387 4
388 390 391 389 4 390 392 393 391 4
392 394 395 393 4 394 396 397 395 4
396 398 399 397 4 398 400 401 399 4
400 402 403 401 4 402 404 405 403 4
404 406 407 405 4 406 408 409 407 4
408 410 411 409 4 410 412 413 411 4
412 414 415 413 4 414 416 417 415 4
416 418 419 417 4 418 420 421 419 4
420 422 423 421 4 422 424 425 423 4
424 426 427 425 4 426 428 429 427 4
428 430 431 429 4 430 432 433 431 4
432 434 435 433 4 434 436 437 435 4
436 438 439 437 4 438 440 441 439 4
440 442 443 441 4 442 444 445 443 4
444 446 447 445 4 446 448 449 447 4
448 450 451 449 4 450 452 453 451 4
452 454 455 453 4 454 456 457 455 4
456 458 459 457 4 458 460 461 459 4
460 462 463 461 4 462 464 465 463 4
464 466 467 465 4 466 468 469 467 4
468 470 471 469 4 470 472 473 471 4
472 474 475 473 4 474 476 477 475 4
476 478 479 477 4 478 480 481 479 4
480 482 483 481 4 482 484 485 483 4
484 486 487 485 4 486 488 489 487 4
488 490 491 489 4 490 492 493 491 4
492 494 495 493 4 494 496 497 495 4
496 498 499 497 4 498 500 501 499 
POINT_DATA 502
FIELD attributes 1
U 3 502 float
3.24761 -0.000224446 -0.0345605 1.63098 0.000121567 -0.0170315 1.63098 0.000121567 -0.0170315 3.24761 -0.000224446
-0.0345605 0.05882 0.000386309 0 0.05882 0.000386309 0 0.0564911 0.000280404 0
0.0564911 0.000280404 0 0.0550115 0.000272849 0 0.0550115 0.000272849 0 0.0538179
0.000351644 0 0.0538179 0.000351644 0 0.0523088 0.000417175 0 0.0523088 0.000417175
0 0.050525 0.000393433 0 0.050525 0.000393433 0 0.0487892 0.000298941 0
0.0487892 0.000298941 0 0.047303 0.000217047 0 0.047303 0.000217047 0 0.045961
0.000216738 0 0.045961 0.000216738 0 0.0445513 0.000296878 0 0.0445513 0.000296878
0 0.0428709 0.000393484 0 0.0428709 0.000393484 0 0.0410555 0.000446516 0
0.0410555 0.000446516 0 0.0392222 0.00044345 0 0.0392222 0.00044345 0 0.0375663
0.00040468 0 0.0375663 0.00040468 0 0.0360768 0.000400566 0 0.0360768 0.000400566
0 0.0349542 0.000415677 0 0.0349542 0.000415677 0 0.0152954 0.000647986 0
0.0152954 0.000647986 0 9.87503e-05 -0.000299365 -3.27653e-23 9.87503e-05 -0.000299365 -3.27653e-23 8.02346e-05
-0.000748128 8.85604e-23 8.02346e-05 -0.000748128 8.85604e-23 -2.75333e-05 -0.000998889 1.0485e-22 -2.75333e-05 -0.000998889
1.0485e-22 -0.000158323 -0.000325254 -2.09513e-22 -0.000158323 -0.000325254 -2.09513e-22 -0.000208436 0.00072433 -6.98968e-23
-0.000208436 0.00072433 -6.98968e-23 -0.00020451 0.00185742 1.39523e-22 -0.00020451 0.00185742 1.39523e-22 -0.000168538
0.002905 0 -0.000168538 0.002905 0 -0.000116697 0.00377554 2.80244e-22 -0.000116697 0.00377554
2.80244e-22 -5.89915e-05 0.00441957 4.31797e-26 -5.89915e-05 0.00441957 4.31797e-26 5.7354e-07 0.00482018 -2.802e-22
5.7354e-07 0.00482018 -2.802e-22 6.30841e-05 0.00496768 2.82257e-22 6.30841e-05 0.00496768 2.82257e-22 0.000131765
0.0048449 -1.41948e-26 0.000131765 0.0048449 -1.41948e-26 0.000209599 0.00443503 -2.82271e-22 0.000209599 0.00443503
-2.82271e-22 0.000297538 0.00369432 -2.8405e-22 0.000297538 0.00369432 -2.8405e-22 0.000390768 0.00257505 1.18107e-25
0.000390768 0.00257505 1.18107e-25 0.000332041 0.00100331 2.89205e-22 0.000332041 0.00100331 2.89205e-22 -4.95274e-05
-0.000473805 0 -4.95274e-05 -0.000473805 0 -0.000252342 -0.000850983 0 -0.000252342 -0.000850983
0 0.000117783 -0.000953526 0 0.000117783 -0.000953526 0 0.000574079 -0.00236746 0
0.000574079 -0.00236746 0 0.000591273 -0.0043523 0 0.000591273 -0.0043523 0 0.000158225
-0.00516267 0 0.000158225 -0.00516267 0 -0.000397514 -0.00473147 0 -0.000397514 -0.00473147
0 -0.000856884 -0.00348881 0 -0.000856884 -0.00348881 0 -0.00128322 -0.00203046 0
-0.00128322 -0.00203046 0 -0.00103328 1.49926e-05 0 -0.00103328 1.49926e-05 0 -0.000693491
0.00111315 0 -0.000693491 0.00111315 0 0.000199197 -0.000330187 -1.39199e-25 0.000199197 -0.000330187
-1.39199e-25 0.000406903 -0.000358456 1.62852e-23 0.000406903 -0.000358456 1.62852e-23 0.000614149 -0.00035086 0
0.000614149 -0.00035086 0 0.000808309 -0.000340763 0 0.000808309 -0.000340763 0 0.000990696
-0.000330465 -1.58444e-23 0.000990696 -0.000330465 -1.58444e-23 0.00116121 -0.000319212 -1.58729e-23 0.00116121 -0.000319212
-1.58729e-23 0.00131875 -0.000305813 0 0.00131875 -0.000305813 0 0.00146109 -0.000289713 0
0.00146109 -0.000289713 0 0.00158518 -0.000271108 0 0.00158518 -0.000271108 0 0.00168698
-0.000250734 1.54168e-23 0.00168698 -0.000250734 1.54168e-23 0.0017622 -0.000229733 1.54462e-23 0.0017622 -0.000229733
1.54462e-23 0.00180728 -0.000209157 0 0.00180728 -0.000209157 0 0.00181698 -0.000189352 0
0.00181698 -0.000189352 0 0.00178413 -0.000168056 0 0.00178413 -0.000168056 0 0.00170114
-0.000139636 1.50331e-23 0.00170114 -0.000139636 1.50331e-23 0.00155821 -9.75851e-05 1.50635e-23 0.00155821 -9.75851e-05
1.50635e-23 0.00134429 -3.53081e-05 0 0.00134429 -3.53081e-05 0 0.00104879 5.35948e-05 0
0.00104879 5.35948e-05 0 0.00066135 0.000172093 0 0.00066135 0.000172093 0 0.000179515
0.000312329 0 0.000179515 0.000312329 0 -0.000393745 0.000450241 0 -0.000393745 0.000450241
0 -0.0010563 0.000565311 0 -0.0010563 0.000565311 0 -0.00179849 0.000659637 1.44582e-23
-0.00179849 0.000659637 1.44582e-23 -0.00260871 0.000745165 8.19371e-26 -0.00260871 0.000745165 8.19371e-26 -0.00347952
0.000825515 -6.46705e-26 -0.00347952 0.000825515 -6.46705e-26 -0.00440078 0.00089296 2.87715e-23 -0.00440078 0.00089296
2.87715e-23 -0.00535666 0.000937591 1.43961e-23 -0.00535666 0.000937591 1.43961e-23 -0.00632761 0.000954377 0
-0.00632761 0.000954377 0 -0.00729409 0.00094418 -1.44565e-23 -0.00729409 0.00094418 -1.44565e-23 -0.0082395
0.000911862 -2.90173e-23 -0.0082395 0.000911862 -2.90173e-23 -0.00915133 0.000864109 -1.45613e-23 -0.00915133 0.000864109
-1.45613e-23 -0.0100212 0.00080763 0 -0.0100212 0.00080763 0 -0.010844 0.000747558 -1.48025e-23
-0.010844 0.000747558 -1.48025e-23 -0.0116166 0.000686777 -1.48389e-23 -0.0116166 0.000686777 -1.48389e-23 -0.0123368
0.000626538 0 -0.0123368 0.000626538 0 -0.0130029 0.000567075 1.5076e-23 -0.0130029 0.000567075
1.5076e-23 -0.0136124 0.000507849 1.51143e-23 -0.0136124 0.000507849 1.51143e-23 -0.0141622 0.000447951 1.51907e-23
-0.0141622 0.000447951 1.51907e-23 -0.0146481 0.000386439 4.56553e-23 -0.0146481 0.000386439 4.56553e-23 -0.015065
0.000322758 3.0505e-23 -0.015065 0.000322758 3.0505e-23 -0.015408 0.000257244 0 -0.015408 0.000257244
0 -0.0156726 0.00019083 0 -0.0156726 0.00019083 0 -0.0158547 0.000124304 0
-0.0158547 0.000124304 0 -0.0159515 5.85545e-05 0 -0.0159515 5.85545e-05 0 -0.0159616
-4.88237e-06 2.92297e-23 -0.0159616 -4.88237e-06 2.92297e-23 -0.015889 -6.45746e-05 5.80705e-23 -0.015889 -6.45746e-05
5.80705e-23 -0.0157382 -0.000120384 5.70604e-23 -0.0157382 -0.000120384 5.70604e-23 -0.0155114 -0.000172196 2.83003e-23
-0.0155114 -0.000172196 2.83003e-23 -0.0152139 -0.000219481 -2.69687e-23 -0.0152139 -0.000219481 -2.69687e-23 -0.014851
-0.000262189 -2.70468e-23 -0.014851 -0.000262189 -2.70468e-23 -0.0144284 -0.000300265 2.55513e-23 -0.0144284 -0.000300265
2.55513e-23 -0.0139516 -0.000333859 5.04307e-23 -0.0139516 -0.000333859 5.04307e-23 -0.0134258 -0.000363382 2.48779e-23
-0.0134258 -0.000363382 2.48779e-23 -0.0128556 -0.000389341 0 -0.0128556 -0.000389341 0 -0.0122445
-0.000412371 0 -0.0122445 -0.000412371 0 -0.0115954 -0.00043306 2.17359e-23 -0.0115954 -0.00043306
2.17359e-23 -0.0109105 -0.000451784 2.18032e-23 -0.0109105 -0.000451784 2.18032e-23 -0.0101918 -0.000468542 0
-0.0101918 -0.000468542 0 -0.00944197 -0.000482877 0 -0.00944197 -0.000482877 0 -0.00866512
-0.00049397 0 -0.00866512 -0.00049397 0 -0.00786694 -0.000500854 0 -0.00786694 -0.000500854
0 -0.00705467 -0.000502679 0 -0.00705467 -0.000502679 0 -0.00623652 -0.000498983 0
-0.00623652 -0.000498983 0 -0.0054209 -0.000489885 0 -0.0054209 -0.000489885 0 -0.00461584
-0.000476015 -1.59871e-23 -0.00461584 -0.000476015 -1.59871e-23 -0.00382858 -0.000458169 -1.60409e-23 -0.00382858 -0.000458169
-1.60409e-23 -0.00306507 -0.000437145 0 -0.00306507 -0.000437145 0 -0.0023296 -0.000414149 1.48164e-23
-0.0023296 -0.000414149 1.48164e-23 -0.0016251 -0.000390016 2.937e-23 -0.0016251 -0.000390016 2.937e-23 -0.000953614
-0.000365463 1.45529e-23 -0.000953614 -0.000365463 1.45529e-23 -0.000319148 -0.000340855 -1.39627e-23 -0.000319148 -0.000340855
-1.39627e-23 0.000276411 -0.000316722 -2.88844e-25 0.000276411 -0.000316722 -2.88844e-25 0.000837604 -0.000293521 1.37723e-23
0.000837604 -0.000293521 1.37723e-23 0.0013667 -0.000271015 -1.33022e-23 0.0013667 -0.000271015 -1.33022e-23 0.00186311
-0.000249443 -1.33505e-23 0.00186311 -0.000249443 -1.33505e-23 0.00232776 -0.000228933 0 0.00232776 -0.000228933
0 0.00276184 -0.000209558 1.27931e-23 0.00276184 -0.000209558 1.27931e-23 0.00316673 -0.000191355 1.28406e-23
0.00316673 -0.000191355 1.28406e-23 0.00354393 -0.000174332 -1.25086e-23 0.00354393 -0.000174332 -1.25086e-23 0.00389499
-0.000158473 -1.25559e-23 0.00389499 -0.000158473 -1.25559e-23 0.00422149 -0.000143744 1.22522e-23 0.00422149 -0.000143744
1.22522e-23 0.00452497 -0.000130094 2.44305e-23 0.00452497 -0.000130094 2.44305e-23 0.0048069 -0.000117464 2.41924e-23
0.0048069 -0.000117464 2.41924e-23 0.00506869 -0.000105787 3.58607e-23 0.00506869 -0.000105787 3.58607e-23 0.00531166
-9.4993e-05 3.17541e-25 0.00531166 -9.4993e-05 3.17541e-25 0.005537 -8.50127e-05 -2.3669e-23 0.005537 -8.50127e-05
-2.3669e-23 0.00574583 -7.57802e-05 0 0.00574583 -7.57802e-05 0 0.00593917 -6.72344e-05 0
0.00593917 -6.72344e-05 0 0.00611795 -5.93208e-05 -2.27074e-23 0.00611795 -5.93208e-05 -2.27074e-23 0.006283
-5.19913e-05 -4.52942e-23 0.006283 -5.19913e-05 -4.52942e-23 0.00643511 -4.52055e-05 -3.04875e-25 0.00643511 -4.52055e-05
-3.04875e-25 0.006575 -3.89291e-05 2.2374e-23 0.006575 -3.89291e-05 2.2374e-23 0.00670335 -3.31342e-05 -2.18581e-23
0.00670335 -3.31342e-05 -2.18581e-23 0.00682081 -2.77978e-05 -4.35963e-23 0.00682081 -2.77978e-05 -4.35963e-23 0.00692798
-2.29006e-05 -4.31727e-23 0.00692798 -2.29006e-05 -4.31727e-23 0.00702546 -1.8426e-05 -2.1526e-23 0.00702546 -1.8426e-05
-2.1526e-23 0.00711385 -1.4359e-05 0 0.00711385 -1.4359e-05 0 0.00719371 -1.06848e-05 0
0.00719371 -1.06848e-05 0 0.0072656 -7.38866e-06 -2.0586e-23 0.0072656 -7.38866e-06 -2.0586e-23 0.00733009
-4.45498e-06 -2.06761e-23 0.00733009 -4.45498e-06 -2.06761e-23 0.00738772 -1.867e-06 0 0.00738772 -1.867e-06
0 0.00743901 3.93e-07 1.99465e-23 0.00743901 3.93e-07 1.99465e-23 0.0074845 2.34436e-06 2.00356e-23
0.0074845 2.34436e-06 2.00356e-23 0.00752467 4.00722e-06 0 0.00752467 4.00722e-06 0 0.00756002
5.40397e-06 1.93046e-23 0.00756002 5.40397e-06 1.93046e-23 0.007591 6.55816e-06 1.93926e-23 0.007591 6.55816e-06
1.93926e-23 0.00761804 7.49644e-06 0 0.00761804 7.49644e-06 0 0.00764156 8.24817e-06 -1.86614e-23
0.00764156 8.24817e-06 -1.86614e-23 0.00766195 8.84324e-06 -3.71949e-23 0.00766195 8.84324e-06 -3.71949e-23 0.00767955
9.31833e-06 -1.85331e-23 0.00767955 9.31833e-06 -1.85331e-23 0.00769457 9.69498e-06 1.8018e-23 0.00769457 9.69498e-06
1.8018e-23 0.00770729 9.96968e-06 1.81032e-23 0.00770729 9.96968e-06 1.81032e-23 0.00771801 1.01363e-05 -1.75898e-23
0.00771801 1.01363e-05 -1.75898e-23 0.00772702 1.02002e-05 -1.7674e-23 0.00772702 1.02002e-05 -1.7674e-23 0.00773458
1.01764e-05 -1.71625e-23 0.00773458 1.01764e-05 -1.71625e-23 0.00774091 1.00828e-05 -3.4195e-23 0.00774091 1.00828e-05
-3.4195e-23 0.00774622 9.93106e-06 -1.70319e-23 0.00774622 9.93106e-06 -1.70319e-23 0.0077507 9.72454e-06 0
0.0077507 9.72454e-06 0 0.00775451 9.47277e-06 0 0.00775451 9.47277e-06 0 0.00775778
9.19327e-06 0 0.00775778 9.19327e-06 0 0.00776061 8.9015e-06 0 0.00776061 8.9015e-06
0 0.00776311 8.60435e-06 0 0.00776311 8.60435e-06 0 0.00776534 8.30418e-06 0
0.00776534 8.30418e-06 0 0.00776738 8.00951e-06 -1.52604e-23 0.00776738 8.00951e-06 -1.52604e-23 0.00776928
7.73194e-06 -2.86336e-25 0.00776928 7.73194e-06 -2.86336e-25 0.00777109 7.4751e-06 1.51288e-23 0.00777109 7.4751e-06
1.51288e-23 0.00777281 7.23349e-06 0 0.00777281 7.23349e-06 0 0.0077745 7.00275e-06 0
0.0077745 7.00275e-06 0 0.00777617 6.7899e-06 0 0.00777617 6.7899e-06 0 0.00777783
6.61211e-06 2.8037e-23 0.00777783 6.61211e-06 2.8037e-23 0.00777946 6.48272e-06 2.81843e-23 0.00777946 6.48272e-06
2.81843e-23 0.00778105 6.39608e-06 -2.72202e-23 0.00778105 6.39608e-06 -2.72202e-23 0.00778258 6.32498e-06 -5.50592e-25
0.00778258 6.32498e-06 -5.50592e-25 0.00778408 6.23322e-06 2.6957e-23 0.00778408 6.23322e-06 2.6957e-23 0.00778563
6.09366e-06 0 0.00778563 6.09366e-06 0 0.00778732 5.89949e-06 0 0.00778732 5.89949e-06
0 0.00778924 5.66336e-06 -2.52043e-23 0.00778924 5.66336e-06 -2.52043e-23 0.00779146 5.40778e-06 -5.01468e-23
0.00779146 5.40778e-06 -5.01468e-23 0.00779402 5.15414e-06 -2.4941e-23 0.00779402 5.15414e-06 -2.4941e-23 0.00779692
4.91611e-06 -2.40126e-23 0.00779692 4.91611e-06 -2.40126e-23 0.00780013 4.69871e-06 -4.77632e-23 0.00780013 4.69871e-06
-4.77632e-23 0.00780364 4.50106e-06 -5.23458e-25 0.00780364 4.50106e-06 -5.23458e-25 0.00780741 4.31998e-06 2.33547e-23
0.00780741 4.31998e-06 2.33547e-23 0.00781141 4.15253e-06 0 0.00781141 4.15253e-06 0 0.00781563
3.99705e-06 2.20561e-23 0.00781563 3.99705e-06 2.20561e-23 0.00782004 3.85302e-06 2.21804e-23 0.00782004 3.85302e-06
2.21804e-23 0.00782463 3.72056e-06 0 0.00782463 3.72056e-06 0 0.0078294 3.59992e-06 0
0.0078294 3.59992e-06 0 0.00783432 3.49129e-06 0 0.00783432 3.49129e-06 0 0.00783938
3.39463e-06 -2.01353e-23 0.00783938 3.39463e-06 -2.01353e-23 0.00784458 3.30983e-06 -4.00063e-23 0.00784458 3.30983e-06
-4.00063e-23 0.00784988 3.23664e-06 -1.98692e-23 0.00784988 3.23664e-06 -1.98692e-23 0.00785529 3.17503e-06 -1.89987e-23
0.00785529 3.17503e-06 -1.89987e-23 0.00786078 3.12489e-06 -1.91093e-23 0.00786078 3.12489e-06 -1.91093e-23 0.00786633
3.08662e-06 0 0.00786633 3.08662e-06 0 0.00787192 3.06053e-06 -1.78731e-23 0.00787192 3.06053e-06
-1.78731e-23 0.00787753 3.04774e-06 -1.79783e-23 0.00787753 3.04774e-06 -1.79783e-23 0.00788312 3.04925e-06 -1.71284e-23
0.00788312 3.04925e-06 -1.71284e-23 0.00788866 3.06722e-06 -1.72299e-23 0.00788866 3.06722e-06 -1.72299e-23 0.00789409
3.10392e-06 0 0.00789409 3.10392e-06 0 0.00789937 3.16286e-06 -1.60187e-23 0.00789937 3.16286e-06
-1.60187e-23 0.00790439 3.24906e-06 -1.61147e-23 0.00790439 3.24906e-06 -1.61147e-23 0.00790913 3.36702e-06 -1.52831e-23
0.00790913 3.36702e-06 -1.52831e-23 0.00791335 3.52915e-06 -1.53754e-23 0.00791335 3.52915e-06 -1.53754e-23 0.00791707