/*--------------------------------*- C++ -*----------------------------------*\
  =========                 |
  \\      /  F ield         | OpenFOAM: The Open Source CFD Toolbox
   \\    /   O peration     | Website:  https://openfoam.org
    \\  /    A nd           | Version:  9
     \\/     M anipulation  |
\*---------------------------------------------------------------------------*/
FoamFile
{
    format      ascii;
    class       volScalarField;
    location    "0.08";
    object      nut;
}
// * * * * * * * * * * * * * * * * * * * * * * * * * * * * * * * * * * * * * //

dimensions      [0 2 -1 0 0 0 0];

internalField   nonuniform List<scalar> 
12225
(
4.04768e-05
3.83178e-05
3.62504e-05
3.442e-05
3.29523e-05
3.18985e-05
3.12577e-05
3.09965e-05
3.10626e-05
3.13971e-05
3.19415e-05
3.26423e-05
3.34534e-05
3.43368e-05
3.52648e-05
3.62139e-05
3.71995e-05
3.8652e-05
0.000281046
0.000209262
0.000176261
0.000157433
0.000146264
0.000139679
0.000135785
0.000133422
0.000131907
0.00013085
0.000130036
0.00012935
0.000128734
0.000128158
0.000127625
0.000127079
0.000126734
0.000125571
0.000556043
0.000419897
0.000349799
0.000304714
0.000272418
0.000247945
0.000228717
0.000213241
0.000200598
0.000190182
0.000181549
0.000174361
0.000168346
0.000163279
0.000158987
0.000155257
0.000152018
0.000148664
0.000740305
0.000625812
0.000544099
0.000484971
0.000439731
0.000403595
0.000373767
0.000348507
0.000326729
0.000307734
0.000291045
0.000276315
0.000263269
0.00025167
0.000241313
0.000231949
0.000223405
0.000215281
0.000817068
0.000759136
0.000700531
0.000648552
0.000603856
0.000565524
0.000532391
0.000503402
0.000477733
0.000454771
0.000434068
0.000415286
0.000398162
0.000382472
0.000368023
0.000354599
0.000342026
0.000330145
0.0008421
0.000819685
0.000789915
0.000757587
0.000725522
0.000695114
0.000666894
0.000640917
0.00061704
0.000595059
0.000574767
0.000555975
0.000538511
0.000522219
0.000506955
0.000492564
0.000478924
0.00046606
0.000849261
0.000841806
0.000829737
0.000814177
0.00079646
0.000777727
0.000758797
0.00074018
0.000722163
0.00070489
0.000688419
0.000672755
0.000657871
0.000643723
0.000630253
0.000617395
0.000605094
0.000593477
0.00085112
0.000848747
0.000844478
0.00083823
0.000830234
0.000820875
0.000810566
0.000799672
0.000788483
0.000777213
0.000766016
0.000754998
0.000744223
0.000733731
0.000723538
0.000713647
0.000704066
0.000694953
0.00085156
0.000850665
0.000849169
0.000846884
0.000843735
0.000839748
0.000835015
0.000829665
0.000823832
0.000817644
0.000811212
0.000804631
0.000797974
0.000791301
0.000784654
0.000778068
0.000771577
0.000765323
0.000851652
0.000851133
0.000850468
0.000849563
0.000848344
0.000846766
0.000844816
0.000842504
0.000839859
0.000836923
0.00083374
0.000830355
0.000826811
0.000823147
0.000819396
0.00081559
0.000811761
0.00080801
0.000851668
0.000851231
0.000850778
0.000850278
0.000849696
0.000849003
0.000848177
0.000847202
0.000846074
0.000844795
0.000843372
0.000841817
0.000840143
0.000838367
0.000836505
0.000834571
0.000832587
0.00083061
0.000851669
0.000851245
0.000850835
0.000850429
0.000850012
0.000849573
0.000849097
0.000848574
0.000847995
0.000847354
0.000846649
0.00084588
0.00084505
0.000844162
0.000843222
0.000842235
0.000841212
0.000840187
0.000851668
0.000851245
0.000850843
0.000850459
0.000850088
0.000849724
0.000849363
0.000848998
0.000848624
0.000848236
0.000847832
0.000847408
0.000846965
0.0008465
0.000846015
0.00084551
0.000844991
0.000844476
0.000851667
0.000851242
0.000850839
0.000850458
0.000850096
0.00084975
0.000849419
0.0008491
0.00084879
0.000848487
0.000848189
0.000847895
0.000847603
0.000847312
0.000847021
0.000846731
0.000846442
0.000846167
0.000851666
0.000851239
0.000850835
0.000850452
0.00085009
0.000849746
0.000849418
0.000849107
0.00084881
0.000848526
0.000848254
0.000847993
0.000847742
0.000847501
0.000847268
0.000847044
0.00084683
0.000846635
0.000851665
0.000851237
0.000850831
0.000850447
0.000850083
0.000849737
0.000849409
0.000849097
0.000848801
0.000848519
0.00084825
0.000847994
0.00084775
0.000847517
0.000847295
0.000847083
0.000846883
0.000846706
0.000851664
0.000851235
0.000850828
0.000850442
0.000850077
0.00084973
0.000849401
0.000849088
0.00084879
0.000848507
0.000848238
0.000847981
0.000847737
0.000847504
0.000847282
0.00084707
0.000846871
0.000846694
0.000851664
0.000851234
0.000850826
0.00085044
0.000850073
0.000849726
0.000849395
0.000849082
0.000848783
0.000848499
0.000848229
0.000847971
0.000847726
0.000847492
0.000847268
0.000847056
0.000846855
0.000846677
0.000851663
0.000851233
0.000850825
0.000850439
0.000850072
0.000849724
0.000849394
0.000849079
0.000848781
0.000848496
0.000848225
0.000847967
0.000847721
0.000847486
0.000847261
0.000847048
0.000846846
0.000846667
0.000851664
0.000851234
0.000850827
0.00085044
0.000850074
0.000849727
0.000849397
0.000849083
0.000848784
0.0008485
0.000848228
0.000847969
0.000847722
0.000847486
0.00084726
0.000847044
0.00084684
0.000846658
0.000851664
0.000851235
0.000850829
0.000850444
0.000850078
0.000849731
0.0008494
0.000849084
0.000848782
0.000848492
0.000848213
0.000847944
0.000847685
0.000847433
0.00084719
0.000846953
0.000846725
0.000846516
0.000851665
0.000851237
0.00085083
0.000850442
0.000850069
0.000849707
0.000849352
0.000849001
0.00084865
0.000848297
0.000847939
0.000847576
0.000847205
0.000846828
0.000846443
0.000846051
0.000845655
0.000845267
0.000851664
0.000851228
0.000850795
0.000850348
0.00084987
0.000849347
0.000848764
0.000848114
0.000847393
0.0008466
0.000845736
0.000844808
0.000843819
0.000842778
0.000841691
0.000840567
0.000839415
0.000838258
0.000851634
0.000851073
0.000850343
0.000849364
0.000848081
0.000846471
0.000844536
0.0008423
0.000839797
0.000837067
0.000834155
0.0008311
0.00082794
0.00082471
0.000821438
0.000818149
0.000814869
0.000811642
0.000851287
0.000849596
0.000846722
0.00084258
0.000837268
0.000830988
0.000823985
0.00081649
0.000808699
0.000800771
0.000792825
0.000784952
0.000777218
0.000769666
0.000762328
0.000755221
0.000748362
0.000741802
0.000848318
0.000839426
0.000826164
0.000810023
0.000792369
0.000774243
0.000756344
0.000739074
0.000722633
0.000707099
0.000692484
0.00067876
0.000665882
0.000653794
0.00064244
0.000631765
0.000621722
0.00061232
0.000828549
0.000788845
0.00074604
0.000705713
0.000669478
0.000637522
0.000609473
0.000584774
0.000562887
0.000543356
0.000525814
0.000509959
0.000495551
0.000482395
0.000470333
0.000459233
0.000448989
0.000439554
0.000730727
0.000627351
0.000554516
0.000501072
0.000460334
0.000428368
0.000402658
0.000381498
0.000363744
0.00034862
0.00033558
0.000324227
0.000314262
0.000305456
0.000297629
0.000290636
0.000284359
0.000278713
0.000439251
0.000338474
0.00028794
0.000256874
0.000236368
0.000222517
0.000213
0.000206319
0.000201513
0.000197966
0.000195277
0.000193183
0.000191504
0.000190121
0.00018895
0.000187935
0.000187038
0.000186211
7.16431e-05
6.90587e-05
6.65522e-05
6.41645e-05
6.19882e-05
6.00782e-05
5.8456e-05
5.71205e-05
5.60558e-05
5.52383e-05
5.46408e-05
5.42355e-05
5.39957e-05
5.38966e-05
5.39154e-05
5.40322e-05
5.42295e-05
5.44912e-05
6.33565e-06
6.5046e-05
8.4772e-05
0.000100114
0.000112407
0.000122404
0.000130628
0.000137491
0.000143371
0.000148695
0.000154012
0.000159478
0.000165282
0.000171585
0.000178414
0.000185519
0.00019223
0.0001974
0.000199582
0.000195278
0.000196352
0.000198293
0.000200578
0.000200674
4.50738e-05
0.000204112
4.67684e-05
4.85377e-05
5.04399e-05
5.23659e-05
5.42395e-05
5.6042e-05
5.7765e-05
5.94055e-05
6.09637e-05
6.24422e-05
6.3845e-05
6.51771e-05
6.64438e-05
6.76508e-05
6.88039e-05
6.99086e-05
7.09702e-05
7.19936e-05
7.29836e-05
7.39443e-05
7.48794e-05
7.57925e-05
7.66865e-05
7.7564e-05
7.84275e-05
7.92788e-05
8.01198e-05
8.09519e-05
8.17763e-05
8.25941e-05
8.34061e-05
8.42129e-05
8.50152e-05
8.58132e-05
8.66072e-05
8.73975e-05
8.8184e-05
8.89668e-05
8.97458e-05
9.05208e-05
9.12917e-05
9.20582e-05
9.282e-05
9.35769e-05
9.43284e-05
9.50743e-05
9.58142e-05
9.65477e-05
9.72744e-05
9.79938e-05
9.87056e-05
9.94093e-05
0.000100105
0.000100791
0.000101468
0.000102135
0.000102791
0.000103438
0.000104072
0.000104696
0.000105307
0.000105907
0.000106494
0.00010707
0.000107634
0.00010819
0.000108744
0.000109283
0.000109805
0.000110312
0.000110803
0.000111278
0.000111735
0.000112176
0.000112599
0.000113003
0.000113389
0.000113755
0.000114102
0.000114429
0.000114734
0.000115019
0.000115282
0.000115523
0.000115741
0.000115935
0.000116106
0.000116253
0.000116375
0.000116472
0.000116542
0.000116586
0.000116603
0.000116593
0.000116554
0.000116487
0.00011639
0.000116264
0.000116108
0.000115921
0.000115703
0.000115454
0.000115173
0.000114861
0.000114517
0.000114142
0.000113735
0.000113298
0.00011283
0.000112332
0.000111806
0.000111252
0.000110672
0.000110067
0.000109439
0.000108789
0.000108121
0.000107435
0.000106735
0.000106024
0.000105301
0.000104576
0.000103853
0.000103187
0.000102742
0.00010233
0.000101916
0.0001015
0.000101084
0.00010067
0.000100261
9.98589e-05
9.94652e-05
9.90821e-05
9.87114e-05
9.83547e-05
9.80132e-05
9.7688e-05
9.73799e-05
9.70894e-05
9.68168e-05
9.65617e-05
9.63237e-05
9.61016e-05
9.58938e-05
9.56977e-05
9.551e-05
9.53258e-05
9.51376e-05
9.49339e-05
9.46928e-05
9.43642e-05
9.38164e-05
9.26413e-05
8.07563e-06
5.48664e-05
0.000101667
0.000140889
0.000173499
0.000200516
0.00022279
0.000241091
0.000256156
0.000268712
0.000278504
0.000286106
0.000291962
0.000296287
0.00029894
0.000299305
0.000296071
0.000288046
0.000275075
0.000256722
0.00025153
0.000249615
0.000249198
0.000248525
0.00024468
0.000253748
0.000253562
0.00026176
0.000271673
0.000282693
0.000294728
0.000307545
0.000320902
0.000334576
0.000348366
0.000362101
0.000375638
0.000388865
0.0004017
0.000414091
0.000426007
0.00043744
0.0004484
0.000458905
0.000468985
0.000478675
0.000488011
0.000497033
0.000505778
0.000514283
0.000522584
0.000530712
0.000538697
0.000546566
0.000554344
0.000562052
0.000569709
0.000577332
0.000584935
0.000592531
0.000600131
0.000607743
0.000615375
0.000623032
0.000630719
0.00063844
0.000646197
0.000653991
0.000661824
0.000669696
0.000677606
0.000685553
0.000693536
0.000701554
0.000709605
0.000717686
0.000725797
0.000733934
0.000742095
0.000750277
0.000758479
0.000766696
0.000774926
0.000783165
0.000791407
0.000799645
0.00080787
0.000816067
0.000824215
0.000832278
0.000840205
0.000847932
0.000855141
0.000862249
0.000869305
0.000876313
0.00088327
0.000890174
0.00089702
0.000903806
0.000910528
0.000917182
0.000923764
0.000930271
0.000936698
0.000943041
0.000949297
0.000955461
0.000961528
0.000967495
0.000973355
0.000979103
0.000984735
0.000990243
0.00099562
0.00100086
0.00100596
0.0010109
0.00101568
0.00102029
0.00102471
0.00102894
0.00103297
0.00103678
0.00104036
0.0010437
0.00104679
0.0010496
0.00105214
0.00105438
0.00105631
0.00105793
0.00105921
0.00106016
0.00106076
0.00106101
0.0010609
0.00106043
0.0010596
0.00105841
0.00105687
0.00105498
0.00105275
0.0010502
0.00104734
0.00104421
0.00104081
0.00103714
0.00103317
0.00102865
0.00102261
0.00101567
0.00100843
0.00100106
0.000993639
0.000986203
0.000978775
0.000971375
0.000964014
0.000956702
0.000949445
0.000942245
0.000935102
0.000928012
0.000920967
0.000913958
0.000906969
0.000899985
0.000892984
0.000885943
0.000878833
0.000871624
0.000864278
0.000856754
0.000849001
0.000840962
0.000832531
0.000823644
0.000813365
0.000793586
1.20115e-05
6.85898e-05
0.000128607
0.000181386
0.000226738
0.000265326
0.000297823
0.000324854
0.000347003
0.000364362
0.000376927
0.000385256
0.000389963
0.000391599
0.00039078
0.000388414
0.000385187
0.000381937
0.000379723
0.000379512
0.000382843
0.000388626
0.00039646
0.000406233
0.000418293
0.000433756
0.000451674
0.000473072
0.000497085
0.000522988
0.000550266
0.000578455
0.000607126
0.000635891
0.000664424
0.000692461
0.000719803
0.000746311
0.000771898
0.000796524
0.000820184
0.000842902
0.000864722
0.000885702
0.000905908
0.000925411
0.000944285
0.000962601
0.000980429
0.000997834
0.00101488
0.00103162
0.00104811
0.00106439
0.00108051
0.00109651
0.00111242
0.00112826
0.00114407
0.00115986
0.00117566
0.00119147
0.00120731
0.00122319
0.00123912
0.0012551
0.00127114
0.00128722
0.00130337
0.00131957
0.00133582
0.00135212
0.00136846
0.00138484
0.00140126
0.0014177
0.00143417
0.00145064
0.00146712
0.0014836
0.00150006
0.00151651
0.00153292
0.00154928
0.00156557
0.00158179
0.00159791
0.0016139
0.00162973
0.00164538
0.00166079
0.00167577
0.00169041
0.00170489
0.00171923
0.00173345
0.00174754
0.00176149
0.0017753
0.00178896
0.00180247
0.0018158
0.00182896
0.00184194
0.00185473
0.00186732
0.0018797
0.00189187
0.00190382
0.00191554
0.00192702
0.00193826
0.00194923
0.00195993
0.00197035
0.00198048
0.0019903
0.0019998
0.00200896
0.00201776
0.00202619
0.00203422
0.00204184
0.00204903
0.00205575
0.00206198
0.00206771
0.0020729
0.00207753
0.00208157
0.002085
0.00208779
0.00208993
0.00209139
0.00209215
0.0020922
0.00209152
0.00209012
0.00208798
0.00208511
0.00208151
0.0020772
0.00207219
0.00206652
0.0020602
0.00205329
0.00204583
0.00203778
0.00202912
0.00201966
0.00200879
0.00199679
0.00198413
0.00197106
0.00195772
0.00194421
0.00193058
0.00191689
0.00190319
0.00188949
0.00187582
0.00186222
0.00184868
0.00183521
0.00182182
0.00180848
0.00179519
0.00178191
0.00176863
0.00175529
0.00174186
0.00172827
0.00171446
0.00170036
0.00168586
0.00167084
0.00165508
0.00163816
0.00161836
0.00158824
1.6723e-05
8.72817e-05
0.000162626
0.00022823
0.000283907
0.000330717
0.000369593
0.000401306
0.000426456
0.000444973
0.000457507
0.000464829
0.000468129
0.000468745
0.000468124
0.000467688
0.000468609
0.000471749
0.000477671
0.000486651
0.000498759
0.000513817
0.000531814
0.000552891
0.000577284
0.000605148
0.000636357
0.00067063
0.000707352
0.000745829
0.000785429
0.000825597
0.000865852
0.00090579
0.000945088
0.000983498
0.00102085
0.00105702
0.00109197
0.00112567
0.00115814
0.00118944
0.00121962
0.00124875
0.00127693
0.00130424
0.00133077
0.00135659
0.00138181
0.00140649
0.0014307
0.00145453
0.00147803
0.00150126
0.00152428
0.00154712
0.00156983
0.00159245
0.00161501
0.00163754
0.00166005
0.00168257
0.00170512
0.00172769
0.00175031
0.00177297
0.00179569
0.00181845
0.00184126
0.00186412
0.00188702
0.00190995
0.00193292
0.0019559
0.00197889
0.00200188
0.00202486
0.00204781
0.00207073
0.0020936
0.00211641
0.00213914
0.00216177
0.00218429
0.00220667
0.0022289
0.00225096
0.0022728
0.00229442
0.00231578
0.00233687
0.0023575
0.00237783
0.00239794
0.00241785
0.00243756
0.00245706
0.00247636
0.00249543
0.00251426
0.00253286
0.0025512
0.00256928
0.00258708
0.00260461
0.00262184
0.00263877
0.00265539
0.00267168
0.00268765
0.00270327
0.00271855
0.00273346
0.002748
0.00276215
0.00277591
0.00278924
0.00280215
0.0028146
0.00282658
0.00283807
0.00284905
0.00285948
0.00286935
0.00287863
0.00288727
0.00289526
0.00290257
0.00290915
0.00291497
0.00292
0.00292422
0.00292757
0.00293005
0.00293161
0.00293224
0.00293191
0.00293061
0.00292833
0.00292506
0.0029208
0.00291557
0.00290938
0.00290226
0.00289424
0.00288535
0.00287563
0.00286508
0.0028537
0.00284136
0.00282782
0.00281314
0.00279759
0.00278136
0.00276462
0.00274748
0.00273001
0.0027123
0.00269441
0.00267638
0.00265825
0.00264007
0.00262185
0.00260361
0.00258536
0.00256709
0.00254879
0.00253043
0.00251198
0.0024934
0.00247463
0.00245561
0.00243626
0.00241649
0.0023962
0.00237525
0.00235339
0.0023301
0.00230365
0.00226909
2.18374e-05
0.00010841
0.000199337
0.000276938
0.000341592
0.000395023
0.000438286
0.000472551
0.000498276
0.000516516
0.000528387
0.000535198
0.000538515
0.000540071
0.0005416
0.00054462
0.000550264
0.00055924
0.000571901
0.000588355
0.000608581
0.000632522
0.000660169
0.00069153
0.000726567
0.00076511
0.00080682
0.000851184
0.000897566
0.000945303
0.000993778
0.00104246
0.00109089
0.0011387
0.00118562
0.00123143
0.00127598
0.0013192
0.00136105
0.00140151
0.00144064
0.00147846
0.00151507
0.00155052
0.00158492
0.00161835
0.0016509
0.00168266
0.00171372
0.00174417
0.00177407
0.00180352
0.00183258
0.00186131
0.00188976
0.001918
0.00194606
0.001974
0.00200183
0.0020296
0.00205733
0.00208504
0.00211275
0.00214047
0.00216821
0.00219597
0.00222375
0.00225157
0.00227941
0.00230727
0.00233514
0.00236302
0.00239089
0.00241875
0.00244658
0.00247438
0.00250211
0.00252978
0.00255737
0.00258485
0.00261222
0.00263945
0.00266653
0.00269343
0.00272014
0.00274664
0.0027729
0.0027989
0.00282463
0.00285005
0.00287512
0.00289976
0.00292409
0.00294814
0.00297194
0.00299547
0.00301874
0.00304174
0.00306445
0.00308686
0.00310896
0.00313074
0.0031522
0.00317331
0.00319407
0.00321447
0.00323451
0.00325416
0.00327343
0.00329231
0.00331078
0.00332884
0.00334647
0.00336367
0.00338044
0.00339674
0.00341258
0.00342794
0.00344279
0.00345713
0.00347094
0.00348419
0.00349685
0.00350891
0.00352032
0.00353107
0.00354112
0.00355043
0.00355897
0.00356669
0.00357357
0.00357955
0.00358461
0.00358871
0.0035918
0.00359386
0.00359485
0.00359475
0.00359353
0.00359119
0.00358771
0.00358308
0.00357732
0.00357045
0.00356249
0.00355345
0.00354338
0.00353227
0.00352014
0.00350693
0.00349254
0.00347698
0.0034604
0.00344292
0.00342468
0.00340578
0.00338632
0.00336635
0.00334597
0.00332522
0.00330416
0.00328283
0.00326126
0.00323948
0.0032175
0.00319532
0.00317293
0.00315031
0.00312744
0.00310427
0.00308074
0.0030568
0.00303238
0.0030074
0.00298178
0.00295541
0.00292809
0.00289939
0.00286796
0.00283097
2.7137e-05
0.000129679
0.000234705
0.000322993
0.0003954
0.000454084
0.00050087
0.000536972
0.000563652
0.000582359
0.000594609
0.000602088
0.00060665
0.000610216
0.000614588
0.000621269
0.000631342
0.000645469
0.000663966
0.00068692
0.000714287
0.000745953
0.00078177
0.000821536
0.000864969
0.00091168
0.000961175
0.00101287
0.00106615
0.00112039
0.00117505
0.00122965
0.00128377
0.00133711
0.00138942
0.00144052
0.00149028
0.00153866
0.0015856
0.00163112
0.00167525
0.00171804
0.00175955
0.00179986
0.00183906
0.00187723
0.00191445
0.00195083
0.00198644
0.00202138
0.00205571
0.00208953
0.00212289
0.00215587
0.00218852
0.00222091
0.00225307
0.00228506
0.00231691
0.00234866
0.00238032
0.00241194
0.00244351
0.00247506
0.0025066
0.00253813
0.00256965
0.00260117
0.00263268
0.00266418
0.00269565
0.00272709
0.0027585
0.00278984
0.00282112
0.00285232
0.00288341
0.0029144
0.00294525
0.00297595
0.00300648
0.00303683
0.00306698
0.0030969
0.00312658
0.00315599
0.00318513
0.00321396
0.00324248
0.00327067
0.0032984
0.00332573
0.00335273
0.00337941
0.00340579
0.00343186
0.00345762
0.00348306
0.00350815
0.00353291
0.0035573
0.00358133
0.00360497
0.00362823
0.0036511
0.00367356
0.0036956
0.00371723
0.00373842
0.00375919
0.00377951
0.00379939
0.00381882
0.0038378
0.00385631
0.00387435
0.00389192
0.00390899
0.00392557
0.00394163
0.00395716
0.00397216
0.00398658
0.00400043
0.00401365
0.00402624
0.00403816
0.00404937
0.00405984
0.00406952
0.00407839
0.00408639
0.00409348
0.00409961
0.00410476
0.00410886
0.00411188
0.0041138
0.00411454
0.00411409
0.00411244
0.00410957
0.00410548
0.00410016
0.00409363
0.00408588
0.00407693
0.00406678
0.00405545
0.0040429
0.0040291
0.00401405
0.00399782
0.00398048
0.00396215
0.00394288
0.00392277
0.00390189
0.00388031
0.00385807
0.00383524
0.00381186
0.00378797
0.00376359
0.00373875
0.00371344
0.00368768
0.00366144
0.0036347
0.00360742
0.00357957
0.00355109
0.00352194
0.00349207
0.00346142
0.00342996
0.00339756
0.00336397
0.00332827
0.003289
3.24003e-05
0.000147022
0.000264516
0.000362858
0.000442798
0.000506901
0.000557335
0.000595846
0.000624311
0.000644499
0.000658223
0.000667407
0.000674063
0.000680186
0.000687595
0.000697785
0.000711839
0.000730428
0.00075388
0.000782266
0.000815483
0.000853312
0.00089545
0.000941518
0.000991065
0.00104358
0.00109849
0.00115522
0.00121317
0.0012718
0.00133061
0.00138917
0.00144715
0.00150426
0.00156028
0.00161507
0.00166852
0.00172056
0.00177118
0.00182038
0.00186818
0.00191463
0.00195979
0.00200372
0.00204652
0.00208825
0.002129
0.00216886
0.0022079
0.00224622
0.00228389
0.00232099
0.00235759
0.00239375
0.00242954
0.00246501
0.00250022
0.00253521
0.00257001
0.00260467
0.00263921
0.00267366
0.00270804
0.00274235
0.00277662
0.00281085
0.00284503
0.00287918
0.00291328
0.00294734
0.00298134
0.00301527
0.00304913
0.00308289
0.00311655
0.00315008
0.00318348
0.00321672
0.00324979
0.00328267
0.00331534
0.00334778
0.00337997
0.0034119
0.00344355
0.0034749
0.00350592
0.00353661
0.00356694
0.00359689
0.00362637
0.00365545
0.00368417
0.00371254
0.00374058
0.00376827
0.00379561
0.00382259
0.0038492
0.00387542
0.00390125
0.00392668
0.00395169
0.00397628
0.00400045
0.00402417
0.00404746
0.00407029
0.00409268
0.00411461
0.00413608
0.00415709
0.00417765
0.00419774
0.00421738
0.00423655
0.00425526
0.00427351
0.00429128
0.00430857
0.00432538
0.00434169
0.0043575
0.00437279
0.00438754
0.00440171
0.0044153
0.00442827
0.00444059
0.00445221
0.0044631
0.00447322
0.00448251
0.00449092
0.00449845
0.00450497
0.00451045
0.00451485
0.00451813
0.00452025
0.00452117
0.00452087
0.00451931
0.00451649
0.00451236
0.00450693
0.00450019
0.00449212
0.00448273
0.00447198
0.00445986
0.00444637
0.00443153
0.00441539
0.00439799
0.00437941
0.0043597
0.00433891
0.0043171
0.00429432
0.00427063
0.00424606
0.00422066
0.00419444
0.00416743
0.00413965
0.00411109
0.00408175
0.00405161
0.00402065
0.00398884
0.00395616
0.00392257
0.00388807
0.00385266
0.00381634
0.00377912
0.00374089
0.0037011
0.00365909
3.71444e-05
0.000161995
0.000290152
0.000397398
0.000484295
0.000553645
0.000607903
0.000649518
0.00068063
0.000703248
0.000719381
0.000731085
0.000740441
0.000749463
0.000759966
0.000773448
0.000791011
0.00081335
0.000840807
0.00087343
0.000911061
0.000953385
0.000999985
0.00105037
0.00110399
0.00116028
0.00121865
0.00127854
0.00133939
0.00140072
0.00146207
0.00152309
0.00158345
0.00164292
0.00170131
0.00175847
0.00181432
0.0018688
0.00192188
0.00197357
0.00202388
0.00207286
0.00212055
0.00216702
0.00221234
0.00225659
0.00229983
0.00234216
0.00238364
0.00242437
0.00246441
0.00250384
0.00254272
0.00258114
0.00261914
0.00265678
0.00269412
0.0027312
0.00276806
0.00280475
0.00284128
0.00287768
0.00291398
0.0029502
0.00298633
0.0030224
0.00305839
0.00309432
0.00313019
0.00316597
0.00320167
0.00323728
0.00327278
0.00330816
0.0033434
0.00337849
0.00341341
0.00344814
0.00348267
0.00351698
0.00355104
0.00358485
0.00361838
0.00365161
0.00368452
0.0037171
0.00374934
0.0037812
0.00381268
0.00384371
0.0038743
0.00390448
0.00393429
0.00396374
0.00399282
0.00402153
0.00404986
0.0040778
0.00410534
0.00413247
0.00415918
0.00418546
0.0042113
0.00423668
0.00426162
0.00428609
0.0043101
0.00433365
0.00435672
0.00437933
0.00440147
0.00442314
0.00444436
0.00446511
0.00448542
0.00450529
0.00452472
0.00454372
0.00456229
0.00458043
0.00459814
0.00461544
0.0046323
0.00464874
0.00466473
0.00468025
0.00469529
0.00470985
0.00472388
0.00473733
0.00475017
0.00476242
0.00477394
0.0047847
0.00479466
0.00480376
0.00481193
0.00481914
0.00482532
0.00483043
0.0048344
0.00483719
0.00483875
0.00483903
0.00483799
0.00483561
0.00483183
0.00482664
0.00482
0.0048119
0.00480229
0.00479116
0.0047785
0.00476434
0.00474869
0.00473159
0.00471306
0.00469315
0.00467189
0.00464933
0.0046255
0.00460044
0.00457418
0.00454675
0.00451817
0.00448845
0.00445759
0.00442561
0.00439249
0.00435823
0.0043228
0.00428622
0.00424848
0.0042096
0.00416963
0.00412866
0.00408678
0.00404403
0.00400009
0.00395472
4.12767e-05
0.000174555
0.000311652
0.000426637
0.000519804
0.000594065
0.000652516
0.000697801
0.000732255
0.000758055
0.000777321
0.000792166
0.000804679
0.000816853
0.000830477
0.000847039
0.000867651
0.000893032
0.000923534
0.000959202
0.00099984
0.00104508
0.00109446
0.00114741
0.00120336
0.00126173
0.00132193
0.00138343
0.00144572
0.00150834
0.00157091
0.00163309
0.0016946
0.00175523
0.00181479
0.00187318
0.00193029
0.00198608
0.00204053
0.00209362
0.00214537
0.00219583
0.00224503
0.00229302
0.00233988
0.00238566
0.00243045
0.0024743
0.00251731
0.00255953
0.00260106
0.00264195
0.00268227
0.0027221
0.00276149
0.0028005
0.00283917
0.00287757
0.00291573
0.00295368
0.00299146
0.00302909
0.0030666
0.00310401
0.00314132
0.00317854
0.00321569
0.00325275
0.00328972
0.00332661
0.0033634
0.00340008
0.00343663
0.00347305
0.00350931
0.0035454
0.00358131
0.00361701
0.00365248
0.00368771
0.00372267
0.00375735
0.00379173
0.00382579
0.00385951
0.00389288
0.00392587
0.00395847
0.00399066
0.00402239
0.0040537
0.00408461
0.00411514
0.00414529
0.00417506
0.00420444
0.00423342
0.00426199
0.00429013
0.00431784
0.00434511
0.00437192
0.00439826
0.00442414
0.00444953
0.00447445
0.00449888
0.00452282
0.00454628
0.00456926
0.00459175
0.00461378
0.00463534
0.00465645
0.00467713
0.00469738
0.00471723
0.00473668
0.00475574
0.00477442
0.00479274
0.00481072
0.00482836
0.00484568
0.00486265
0.00487926
0.00489553
0.00491145
0.00492702
0.00494213
0.00495678
0.00497096
0.0049846
0.00499765
0.00501007
0.00502179
0.00503276
0.00504291
0.00505217
0.00506048
0.00506776
0.00507395
0.00507897
0.00508277
0.00508526
0.0050864
0.00508611
0.00508435
0.00508107
0.0050762
0.00506971
0.00506155
0.0050517
0.00504013
0.00502685
0.00501184
0.00499513
0.00497672
0.00495664
0.0049349
0.00491154
0.00488657
0.00486001
0.0048319
0.00480225
0.00477107
0.00473837
0.00470416
0.00466845
0.00463123
0.00459252
0.00455232
0.00451069
0.00446766
0.00442336
0.00437791
0.00433148
0.00428423
0.00423598
0.00418671
4.47253e-05
0.000184617
0.000328929
0.000450379
0.00054903
0.000628171
0.000690998
0.000740304
0.000778565
0.000808058
0.000830956
0.000849377
0.000865372
0.000880874
0.000897621
0.000917063
0.000940304
0.000968074
0.00100074
0.00103836
0.00108075
0.00112752
0.0011782
0.00123223
0.00128904
0.00134804
0.00140868
0.00147046
0.0015329
0.0015956
0.00165819
0.00172037
0.00178189
0.00184255
0.00190219
0.00196071
0.00201801
0.00207405
0.00212879
0.00218225
0.00223442
0.00228534
0.00233505
0.00238359
0.00243102
0.00247741
0.00252281
0.0025673
0.00261095
0.00265383
0.00269601
0.00273756
0.00277854
0.00281901
0.00285905
0.0028987
0.00293802
0.00297705
0.00301584
0.00305442
0.00309283
0.0031311
0.00316924
0.00320727
0.00324522
0.00328308
0.00332086
0.00335856
0.00339619
0.00343372
0.00347116
0.00350849
0.0035457
0.00358277
0.00361968
0.00365642
0.00369297
0.0037293
0.0037654
0.00380124
0.0038368
0.00387207
0.00390703
0.00394165
0.00397592
0.00400981
0.00404332
0.00407642
0.00410909
0.00414135
0.00417321
0.00420468
0.00423576
0.00426646
0.00429677
0.00432667
0.00435615
0.0043852
0.0044138
0.00444195
0.00446963
0.00449684
0.00452355
0.00454977
0.00457548
0.00460068
0.00462538
0.00464957
0.00467326
0.00469644
0.00471912
0.00474132
0.00476304
0.00478431
0.00480515
0.00482557
0.00484561
0.00486529
0.00488461
0.0049036
0.00492229
0.00494069
0.00495885
0.00497681
0.00499452
0.00501198
0.00502922
0.00504624
0.00506304
0.00507957
0.00509583
0.00511179
0.0051274
0.00514262
0.0051574
0.00517169
0.00518541
0.00519849
0.00521087
0.00522245
0.00523315
0.00524288
0.00525156
0.00525909
0.00526538
0.00527035
0.00527389
0.00527594
0.00527641
0.00527521
0.00527229
0.00526756
0.00526098
0.0052525
0.00524207
0.00522968
0.00521529
0.0051989
0.0051805
0.0051601
0.0051377
0.00511332
0.00508695
0.00505863
0.00502836
0.00499615
0.00496202
0.00492597
0.00488802
0.00484819
0.0048065
0.00476299
0.00471771
0.00467078
0.00462232
0.00457253
0.00452165
0.00446988
0.00441716
0.00436355
4.74498e-05
0.000192156
0.000341876
0.00046862
0.000572275
0.000656049
0.000723207
0.000776641
0.000818915
0.000852358
0.000879153
0.000901383
0.000921028
0.000939935
0.000959754
0.000981875
0.00100737
0.00103696
0.00107103
0.00110967
0.00115272
0.00119985
0.00125058
0.00130441
0.00136078
0.00141914
0.00147898
0.00153982
0.00160124
0.00166285
0.00172432
0.00178537
0.00184579
0.00190538
0.00196401
0.00202157
0.00207797
0.00213319
0.00218718
0.00223996
0.00229152
0.00234189
0.00239111
0.00243922
0.00248628
0.00253234
0.00257747
0.00262173
0.00266518
0.0027079
0.00274995
0.0027914
0.0028323
0.00287274
0.00291276
0.00295241
0.00299176
0.00303085
0.00306972
0.0031084
0.00314694
0.00318536
0.00322368
0.00326193
0.0033001
0.00333822
0.00337629
0.00341431
0.00345227
0.00349016
0.00352798
0.00356572
0.00360335
0.00364085
0.00367822
0.00371542
0.00375243
0.00378924
0.00382581
0.00386213
0.00389817
0.00393391
0.00396933
0.00400441
0.00403913
0.00407346
0.00410739
0.00414093
0.0041741
0.00420688
0.00423929
0.00427132
0.00430296
0.00433421
0.00436505
0.00439548
0.00442546
0.004455
0.00448407
0.00451266
0.00454076
0.00456834
0.00459541
0.00462196
0.00464797
0.00467344
0.00469837
0.00472277
0.00474663
0.00476995
0.00479275
0.00481504
0.00483683
0.00485815
0.00487903
0.0048995
0.00491959
0.00493935
0.00495876
0.00497787
0.00499672
0.00501535
0.0050338
0.0050521
0.00507027
0.00508831
0.00510626
0.00512414
0.00514194
0.00515966
0.00517729
0.00519481
0.00521219
0.00522939
0.00524637
0.00526306
0.0052794
0.00529532
0.00531073
0.00532554
0.00533965
0.00535295
0.00536534
0.00537671
0.00538693
0.00539589
0.00540347
0.00540957
0.00541406
0.00541684
0.00541781
0.00541687
0.00541392
0.0054089
0.00540173
0.00539235
0.0053807
0.00536676
0.00535049
0.00533186
0.00531087
0.0052875
0.00526177
0.00523365
0.00520317
0.00517033
0.00513515
0.00509763
0.00505779
0.00501567
0.0049713
0.00492475
0.00487609
0.00482546
0.00477304
0.00471905
0.00466378
0.00460749
0.00455016
0.00449188
4.94546e-05
0.000197205
0.00035091
0.000481995
0.000589943
0.000677873
0.00074907
0.000806476
0.000852698
0.000890081
0.000920785
0.00094683
0.000970104
0.000992343
0.00101509
0.00103964
0.00106702
0.00109792
0.00113274
0.00117161
0.00121442
0.00126087
0.00131057
0.00136306
0.00141782
0.00147437
0.00153223
0.00159097
0.00165019
0.00170954
0.00176873
0.00182751
0.00188567
0.00194305
0.00199952
0.00205498
0.00210937
0.00216265
0.0022148
0.00226581
0.00231569
0.00236449
0.00241222
0.00245893
0.00250467
0.0025495
0.00259347
0.00263666
0.00267911
0.00272091
0.0027621
0.00280276
0.00284295
0.00288273
0.00292216
0.00296129
0.00300017
0.00303884
0.00307736
0.00311575
0.00315406
0.0031923
0.00323049
0.00326867
0.00330683
0.00334499
0.00338315
0.0034213
0.00345945
0.00349758
0.00353567
0.00357372