/*--------------------------------*- C++ -*----------------------------------*\
  =========                 |
  \\      /  F ield         | OpenFOAM: The Open Source CFD Toolbox
   \\    /   O peration     | Website:  https://openfoam.org
    \\  /    A nd           | Version:  9
     \\/     M anipulation  |
\*---------------------------------------------------------------------------*/
FoamFile
{
    format      ascii;
    class       volVectorField;
    location    "0.08";
    object      U;
}
// * * * * * * * * * * * * * * * * * * * * * * * * * * * * * * * * * * * * * //

dimensions      [0 1 -1 0 0 0 0];

internalField   nonuniform List<vector> 
12225
(
(9.86106 -0.874314 0)
(9.6724 -0.700178 0)
(9.45876 -0.387565 0)
(9.22426 -0.188437 0)
(9.00281 -0.0843441 0)
(8.80938 -0.032811 0)
(8.64366 -0.00746434 0)
(8.50213 0.00513836 0)
(8.38128 0.0114853 0)
(8.27756 0.0146687 0)
(8.18752 0.0162309 0)
(8.10819 0.0169994 0)
(8.037 0.0174367 0)
(7.97194 0.0178929 0)
(7.90927 0.0185789 0)
(7.85013 0.0208888 0)
(7.76586 0.0244344 0)
(7.73909 0.0447419 0)
(10.0547 0.263077 0)
(10.1201 0.360764 0)
(10.1179 0.273862 0)
(10.0825 0.187155 0)
(10.0403 0.131251 0)
(9.99346 0.0970459 0)
(9.93942 0.0757152 0)
(9.87939 0.0619574 0)
(9.81644 0.0526162 0)
(9.75304 0.0458867 0)
(9.69059 0.0408384 0)
(9.6299 0.037033 0)
(9.57124 0.0342492 0)
(9.51504 0.0325679 0)
(9.46003 0.0318993 0)
(9.40989 0.0348368 0)
(9.35384 0.0382709 0)
(9.33469 0.0695767 0)
(9.99918 0.0460976 0)
(10.0244 0.0342453 0)
(10.0537 0.0150121 0)
(10.0706 0.0219093 0)
(10.0775 0.0368086 0)
(10.0778 0.0461886 0)
(10.0715 0.050184 0)
(10.0592 0.0514456 0)
(10.0425 0.0514448 0)
(10.0227 0.0508533 0)
(10.0006 0.050058 0)
(9.97684 0.0493341 0)
(9.95175 0.0488721 0)
(9.92576 0.0490263 0)
(9.89859 0.0499477 0)
(9.87166 0.0537184 0)
(9.84342 0.0592275 0)
(9.82358 0.0784041 0)
(9.99679 0.006442 0)
(10.0085 0.0250636 0)
(10.0341 0.0390176 0)
(10.0526 0.050422 0)
(10.064 0.0572777 0)
(10.0726 0.0593946 0)
(10.0782 0.059158 0)
(10.0806 0.0583338 0)
(10.0802 0.057452 0)
(10.0777 0.0566011 0)
(10.0734 0.0558538 0)
(10.0676 0.0553318 0)
(10.0605 0.0551762 0)
(10.0523 0.0557025 0)
(10.043 0.0571622 0)
(10.0335 0.0609653 0)
(10.0243 0.0667435 0)
(10.0193 0.0787808 0)
(9.99922 0.0067565 0)
(10.0081 0.0336345 0)
(10.027 0.0461503 0)
(10.0416 0.0510038 0)
(10.0521 0.0541349 0)
(10.0617 0.0557986 0)
(10.0701 0.0562381 0)
(10.0764 0.056172 0)
(10.0809 0.0559562 0)
(10.0839 0.055697 0)
(10.0858 0.0554915 0)
(10.0865 0.0554817 0)
(10.0863 0.0558326 0)
(10.0853 0.0568281 0)
(10.0837 0.058741 0)
(10.0821 0.0623953 0)
(10.0815 0.0676117 0)
(10.084 0.0753768 0)
(10.0002 0.00909884 0)
(10.0078 0.0322016 0)
(10.0224 0.0420447 0)
(10.0348 0.0458622 0)
(10.0444 0.0493972 0)
(10.0537 0.0520242 0)
(10.0622 0.0532747 0)
(10.0695 0.0537675 0)
(10.0753 0.0539887 0)
(10.0802 0.054119 0)
(10.0841 0.0542739 0)
(10.0873 0.0545988 0)
(10.0898 0.0552581 0)
(10.0918 0.0564864 0)
(10.0934 0.0585073 0)
(10.0954 0.0617497 0)
(10.0984 0.0660295 0)
(10.1038 0.0712247 0)
(10.0003 0.00883117 0)
(10.0067 0.0276116 0)
(10.0188 0.037244 0)
(10.0301 0.0419776 0)
(10.0391 0.045987 0)
(10.0477 0.0489183 0)
(10.0559 0.050459 0)
(10.0631 0.0512157 0)
(10.0693 0.0516861 0)
(10.0747 0.0520592 0)
(10.0794 0.0524457 0)
(10.0836 0.0529806 0)
(10.0873 0.0538129 0)
(10.0906 0.0551223 0)
(10.0939 0.0570619 0)
(10.0975 0.0598137 0)
(10.1021 0.0631603 0)
(10.1085 0.0666572 0)
(10.0004 0.00787411 0)
(10.0057 0.023806 0)
(10.0159 0.0335593 0)
(10.0262 0.0388659 0)
(10.0348 0.0428637 0)
(10.0428 0.0457798 0)
(10.0505 0.0474828 0)
(10.0575 0.0484473 0)
(10.0637 0.0491104 0)
(10.0693 0.0496619 0)
(10.0743 0.0502116 0)
(10.0789 0.0508822 0)
(10.0832 0.0518006 0)
(10.0872 0.0530951 0)
(10.0913 0.0548514 0)
(10.0958 0.0571064 0)
(10.1011 0.0596257 0)
(10.1076 0.0619418 0)
(10.0004 0.00699413 0)
(10.0049 0.0208368 0)
(10.0135 0.0302553 0)
(10.0228 0.0357225 0)
(10.0309 0.0396238 0)
(10.0385 0.0425223 0)
(10.0457 0.0443791 0)
(10.0525 0.0455289 0)
(10.0586 0.0463482 0)
(10.0642 0.0470339 0)
(10.0694 0.0476977 0)
(10.0742 0.0484476 0)
(10.0788 0.0493865 0)
(10.0832 0.0505987 0)
(10.0878 0.0521173 0)
(10.0927 0.0539023 0)
(10.0981 0.0557293 0)
(10.1045 0.057215 0)
(10.0004 0.0062134 0)
(10.0042 0.0182694 0)
(10.0115 0.0270482 0)
(10.0198 0.0325029 0)
(10.0274 0.0363422 0)
(10.0345 0.039225 0)
(10.0415 0.0411915 0)
(10.048 0.0424843 0)
(10.054 0.0434244 0)
(10.0595 0.0442083 0)
(10.0647 0.0449468 0)
(10.0697 0.045732 0)
(10.0744 0.0466431 0)
(10.0791 0.0477307 0)
(10.0839 0.048993 0)
(10.0889 0.0503569 0)
(10.0944 0.0516282 0)
(10.1004 0.0525278 0)
(10.0003 0.00548256 0)
(10.0036 0.0159646 0)
(10.0098 0.0239919 0)
(10.0171 0.0293159 0)
(10.0242 0.0330769 0)
(10.031 0.0359071 0)
(10.0376 0.0379223 0)
(10.0439 0.0393112 0)
(10.0497 0.0403387 0)
(10.0552 0.0411896 0)
(10.0604 0.0419696 0)
(10.0654 0.0427556 0)
(10.0702 0.0436061 0)
(10.0751 0.0445479 0)
(10.0799 0.0455601 0)
(10.085 0.0465638 0)
(10.0904 0.0474031 0)
(10.096 0.0478911 0)
(10.0003 0.00483548 0)
(10.0031 0.0140355 0)
(10.0085 0.0213442 0)
(10.0151 0.026446 0)
(10.0217 0.0300908 0)
(10.0281 0.0328378 0)
(10.0344 0.0348504 0)
(10.0404 0.0362868 0)
(10.0461 0.0373638 0)
(10.0516 0.0382483 0)
(10.0568 0.0390388 0)
(10.0618 0.0397999 0)
(10.0666 0.0405745 0)
(10.0715 0.0413755 0)
(10.0764 0.0421752 0)
(10.0814 0.0429024 0)
(10.0866 0.0434371 0)
(10.0919 0.0436606 0)
(10.0003 0.00423411 0)
(10.0027 0.0122833 0)
(10.0074 0.0188548 0)
(10.0133 0.023643 0)
(10.0195 0.0271277 0)
(10.0255 0.0297658 0)
(10.0315 0.0317394 0)
(10.0373 0.033188 0)
(10.0429 0.0342873 0)
(10.0482 0.0351825 0)
(10.0534 0.0359628 0)
(10.0584 0.0366827 0)
(10.0633 0.0373738 0)
(10.0681 0.0380403 0)
(10.073 0.0386544 0)
(10.0779 0.0391573 0)
(10.0829 0.0394603 0)
(10.088 0.0394947 0)
(10.0003 0.00360743 0)
(10.0024 0.0104606 0)
(10.0064 0.0161879 0)
(10.0116 0.0205313 0)
(10.0173 0.0237676 0)
(10.0229 0.0262372 0)
(10.0286 0.0281182 0)
(10.0342 0.0295339 0)
(10.0396 0.0306208 0)
(10.0448 0.0314977 0)
(10.0499 0.0322415 0)
(10.0548 0.0328971 0)
(10.0597 0.0334867 0)
(10.0645 0.0340101 0)
(10.0693 0.034444 0)
(10.0741 0.0347456 0)
(10.0788 0.0348554 0)
(10.0836 0.0347443 0)
(10.0002 0.00295354 0)
(10.002 0.00856505 0)
(10.0055 0.013352 0)
(10.0101 0.0171146 0)
(10.0152 0.0199914 0)
(10.0205 0.0222125 0)
(10.0258 0.023931 0)
(10.0311 0.0252517 0)
(10.0363 0.0262761 0)
(10.0414 0.0270946 0)
(10.0464 0.027769 0)
(10.0513 0.0283346 0)
(10.0561 0.0288072 0)
(10.0608 0.0291858 0)
(10.0654 0.0294544 0)
(10.07 0.0295868 0)
(10.0745 0.0295482 0)
(10.079 0.0293369 0)
(10.0002 0.0022721 0)
(10.0017 0.00659554 0)
(10.0047 0.0103485 0)
(10.0087 0.0133892 0)
(10.0133 0.0157752 0)
(10.0182 0.0176455 0)
(10.0232 0.0191135 0)
(10.0283 0.0202601 0)
(10.0333 0.0211566 0)
(10.0382 0.0218654 0)
(10.0431 0.0224316 0)
(10.0478 0.0228812 0)
(10.0525 0.0232256 0)
(10.0571 0.023465 0)
(10.0616 0.0235912 0)
(10.066 0.0235918 0)
(10.0702 0.0234497 0)
(10.0744 0.0231795 0)
(10.0002 0.00155901 0)
(10.0015 0.00453251 0)
(10.0041 0.00715024 0)
(10.0077 0.00932454 0)
(10.0118 0.0110738 0)
(10.0164 0.0124704 0)
(10.0211 0.013583 0)
(10.0259 0.0144637 0)
(10.0307 0.0151558 0)
(10.0354 0.0156966 0)
(10.0401 0.0161136 0)
(10.0447 0.0164234 0)
(10.0493 0.0166333 0)
(10.0537 0.0167447 0)
(10.058 0.0167549 0)
(10.0622 0.0166605 0)
(10.0662 0.016455 0)
(10.0702 0.0161598 0)
(10.0001 0.000795258 0)
(10.0013 0.00231605 0)
(10.0037 0.00367138 0)
(10.0069 0.00482369 0)
(10.0108 0.00577819 0)
(10.0151 0.00656139 0)
(10.0196 0.00719925 0)
(10.0241 0.00771206 0)
(10.0288 0.00811683 0)
(10.0334 0.00842771 0)
(10.0379 0.00865466 0)
(10.0424 0.00880313 0)
(10.0468 0.00887522 0)
(10.051 0.00887103 0)
(10.0551 0.00878983 0)
(10.0591 0.00863171 0)
(10.063 0.00839499 0)
(10.0667 0.00810108 0)
(10.0001 -6.74652e-05 0)
(10.0013 -0.000190867 0)
(10.0035 -0.000285427 0)
(10.0067 -0.00033582 0)
(10.0105 -0.000337523 0)
(10.0147 -0.000303284 0)
(10.0191 -0.000251985 0)
(10.0235 -0.000197823 0)
(10.0281 -0.000150492 0)
(10.0326 -0.000118822 0)
(10.037 -0.000111487 0)
(10.0414 -0.000136023 0)
(10.0456 -0.000198404 0)
(10.0497 -0.000303123 0)
(10.0537 -0.000453264 0)
(10.0575 -0.000649871 0)
(10.0612 -0.000894665 0)
(10.0647 -0.001171 0)
(10.0002 -0.000900123 0)
(10.0014 -0.00261753 0)
(10.0038 -0.00412243 0)
(10.0072 -0.00533068 0)
(10.0112 -0.0062346 0)
(10.0155 -0.00689507 0)
(10.02 -0.007379 0)
(10.0246 -0.0077321 0)
(10.0292 -0.00798984 0)
(10.0337 -0.00818553 0)
(10.0382 -0.0083473 0)
(10.0425 -0.00849553 0)
(10.0467 -0.00864449 0)
(10.0507 -0.00880457 0)
(10.0546 -0.00898314 0)
(10.0584 -0.00918447 0)
(10.0619 -0.00941227 0)
(10.0654 -0.00965545 0)
(10.0002 -0.00162281 0)
(10.0015 -0.00474718 0)
(10.0043 -0.00748951 0)
(10.0081 -0.00964489 0)
(10.0125 -0.0112278 0)
(10.0171 -0.0123944 0)
(10.0218 -0.0132626 0)
(10.0266 -0.0138922 0)
(10.0313 -0.0143382 0)
(10.036 -0.0146607 0)
(10.0405 -0.0149078 0)
(10.0448 -0.0151112 0)
(10.049 -0.0152916 0)
(10.053 -0.0154643 0)
(10.0569 -0.01564 0)
(10.0606 -0.0158253 0)
(10.0641 -0.0160252 0)
(10.0675 -0.0162322 0)
(10.0002 -0.00231332 0)
(10.0017 -0.0068615 0)
(10.0049 -0.0108682 0)
(10.0093 -0.0138743 0)
(10.0142 -0.015973 0)
(10.0193 -0.0175016 0)
(10.0243 -0.0186405 0)
(10.0294 -0.0194543 0)
(10.0343 -0.0200159 0)
(10.0391 -0.0204088 0)
(10.0436 -0.0206952 0)
(10.048 -0.0209145 0)
(10.0522 -0.0210936 0)
(10.0563 -0.0212527 0)
(10.0601 -0.0214056 0)
(10.0638 -0.0215608 0)
(10.0673 -0.0217238 0)
(10.0707 -0.0218897 0)
(10.0002 -0.00295689 0)
(10.0019 -0.00899435 0)
(10.0057 -0.0142898 0)
(10.011 -0.0180571 0)
(10.0166 -0.0205984 0)
(10.022 -0.0224137 0)
(10.0274 -0.0236979 0)
(10.0327 -0.0245569 0)
(10.0378 -0.0251291 0)
(10.0427 -0.0255265 0)
(10.0474 -0.02581 0)
(10.0519 -0.0260154 0)
(10.0561 -0.0261721 0)
(10.0602 -0.0263034 0)
(10.064 -0.0264247 0)
(10.0677 -0.0265448 0)
(10.0712 -0.0266693 0)
(10.0745 -0.026795 0)
(10.0001 -0.00354024 0)
(10.0019 -0.0114469 0)
(10.0065 -0.0177791 0)
(10.0128 -0.0218442 0)
(10.0191 -0.0247645 0)
(10.0251 -0.027001 0)
(10.0308 -0.0284785 0)
(10.0364 -0.0293268 0)
(10.0418 -0.0298232 0)
(10.0468 -0.0301462 0)
(10.0516 -0.0303625 0)
(10.0561 -0.0305047 0)
(10.0604 -0.0306029 0)
(10.0645 -0.0306808 0)
(10.0683 -0.0307527 0)
(10.072 -0.0308258 0)
(10.0754 -0.0309037 0)
(10.0787 -0.0309826 0)
(9.99997 -0.00366704 0)
(10.0018 -0.0151102 0)
(10.0077 -0.0225337 0)
(10.0149 -0.0258159 0)
(10.0216 -0.0283304 0)
(10.028 -0.0307429 0)
(10.0344 -0.0324709 0)
(10.0405 -0.0334595 0)
(10.0461 -0.0340102 0)
(10.0513 -0.0343323 0)
(10.0562 -0.0345096 0)
(10.0608 -0.0345914 0)
(10.0651 -0.0346203 0)
(10.069 -0.0346263 0)
(10.0728 -0.0346261 0)
(10.0762 -0.0346283 0)
(10.0795 -0.0346366 0)
(10.0825 -0.0346487 0)
(9.99898 -0.00129236 0)
(10 -0.017922 0)
(10.0085 -0.0289806 0)
(10.0175 -0.0325672 0)
(10.0246 -0.0339531 0)
(10.0315 -0.0351407 0)
(10.0386 -0.0360485 0)
(10.0454 -0.0366517 0)
(10.0514 -0.0370632 0)
(10.0567 -0.0373235 0)
(10.0615 -0.0374476 0)
(10.0658 -0.0374719 0)
(10.0697 -0.0374379 0)
(10.0731 -0.0373755 0)
(10.0762 -0.037303 0)
(10.0789 -0.037232 0)
(10.0814 -0.037166 0)
(10.0835 -0.0371044 0)
(9.99528 0.00388077 0)
(9.99336 -0.0102775 0)
(10.0071 -0.0270461 0)
(10.0213 -0.0388415 0)
(10.0313 -0.0447499 0)
(10.0394 -0.0463261 0)
(10.047 -0.0458122 0)
(10.0535 -0.0448249 0)
(10.0587 -0.0439194 0)
(10.0628 -0.0431174 0)
(10.0661 -0.0423755 0)
(10.0685 -0.0416912 0)
(10.0702 -0.0410711 0)
(10.0714 -0.040515 0)
(10.0719 -0.0400206 0)
(10.0721 -0.0395873 0)
(10.0719 -0.0392053 0)
(10.0714 -0.0388481 0)
(9.99145 -0.0172856 0)
(9.99191 0.000389667 0)
(10.0101 0.0177061 0)
(10.0297 0.0116478 0)
(10.0443 -0.00502505 0)
(10.0543 -0.0187197 0)
(10.0603 -0.0270466 0)
(10.0627 -0.0319047 0)
(10.0623 -0.0347671 0)
(10.0598 -0.0363538 0)
(10.0557 -0.0371125 0)
(10.0505 -0.0373685 0)
(10.0443 -0.0373348 0)
(10.0374 -0.0371412 0)
(10.03 -0.0368715 0)
(10.0223 -0.036587 0)
(10.0144 -0.0363431 0)
(10.0064 -0.0361085 0)
(10.0235 -0.206002 0)
(10.0684 -0.312321 0)
(10.0789 -0.255563 0)
(10.0705 -0.184134 0)
(10.0607 -0.134846 0)
(10.0501 -0.102658 0)
(10.0345 -0.0810851 0)
(10.0133 -0.0665267 0)
(9.98831 -0.0565234 0)
(9.96121 -0.0493567 0)
(9.93314 -0.0439891 0)
(9.90479 -0.0398312 0)
(9.87666 -0.0365248 0)
(9.84908 -0.033837 0)
(9.82228 -0.0316202 0)
(9.79639 -0.0298106 0)
(9.77164 -0.0283781 0)
(9.74806 -0.0276391 0)
(9.94227 0.671598 0)
(9.88 0.567465 0)
(9.77455 0.338485 0)
(9.63258 0.183346 0)
(9.48797 0.094935 0)
(9.357 0.0471172 0)
(9.2416 0.0213392 0)
(9.14027 0.00712475 0)
(9.05153 -0.000927876 0)
(8.97374 -0.00556276 0)
(8.9052 -0.0082461 0)
(8.84435 -0.00980302 0)
(8.78994 -0.0107038 0)
(8.74099 -0.0112172 0)
(8.69667 -0.0115041 0)
(8.65628 -0.0116891 0)
(8.61896 -0.011866 0)
(8.58432 -0.0123963 0)
(0.00726283 -0.00527704 -3.49948e-20)
(0.0272407 -0.0240808 3.23056e-20)
(0.0552044 -0.0348669 0)
(0.0867498 -0.0395435 0)
(0.116663 -0.0392417 0)
(0.142835 -0.035382 -2.72119e-20)
(0.164139 -0.0291748 0)
(0.179819 -0.0214614 0)
(0.189399 -0.0127616 0)
(0.192715 -0.00344552 0)
(0.189268 0.00592091 2.51679e-20)
(0.179565 0.0147168 0)
(0.164226 0.0223658 0)
(0.144044 0.028371 0)
(0.120024 0.0323156 0)
(0.0933095 0.0339404 2.43847e-20)
(0.0650579 0.0333276 0)
(0.036057 0.0311214 0)
(0.00804278 0.0297084 0)
(-0.0210156 0.0274567 0)
(-0.0532341 0.0268439 0)
(-0.086025 0.0288618 0)
(-0.12319 0.0350694 0)
(-0.167205 0.0427621 2.69558e-20)
(-0.217696 0.0593646 -2.63525e-20)
(-0.274075 0.0701686 2.57277e-20)
(-0.340749 0.0721406 2.50886e-20)
(-0.408519 0.0718323 0)
(-0.480217 0.0717307 0)
(-0.552079 0.0749651 -2.32814e-20)
(-0.625685 0.0760055 -2.27499e-20)
(-0.698915 0.0753856 0)
(-0.770747 0.0735086 0)
(-0.840416 0.0707297 -2.1419e-20)
(-0.907397 0.0673588 0)
(-0.971367 0.0636562 0)
(-1.03218 0.0598305 2.04297e-20)
(-1.0898 0.0560404 0)
(-1.14434 0.0523995 1.9908e-20)
(-1.19593 0.0489833 3.93546e-20)
(-1.24478 0.0458358 0)
(-1.29113 0.0429771 0)
(-1.3352 0.0404099 0)
(-1.37725 0.0381244 0)
(-1.41748 0.0361031 0)
(-1.45613 0.0343239 3.71036e-20)
(-1.49339 0.0327625 3.67812e-20)
(-1.52942 0.0313943 3.64672e-20)
(-1.5644 0.0301953 0)
(-1.59845 0.0291427 -3.58584e-20)
(-1.63169 0.0282156 0)
(-1.66423 0.0273949 3.52669e-20)
(-1.69614 0.0266636 3.49752e-20)
(-1.72751 0.0260064 0)
(-1.75839 0.0254098 0)
(-1.78882 0.0248618 0)
(-1.81884 0.0243522 3.38184e-20)
(-1.84848 0.0238719 0)
(-1.87774 0.023413 0)
(-1.90666 0.0229686 0)
(-1.93521 0.022533 0)
(-1.96342 0.0221011 0)
(-1.99126 0.0216687 0)
(-2.01872 0.0212321 0)
(-2.04579 0.0207883 0)
(-2.07246 0.0203348 -3.1142e-20)
(-2.09869 0.0198695 0)
(-2.12447 0.0193907 0)
(-2.14977 0.0188968 3.01908e-20)
(-2.17456 0.0183868 2.98642e-20)
(-2.19881 0.0178596 0)
(-2.22248 0.0173144 -2.91948e-20)
(-2.24555 0.0167506 2.88514e-20)
(-2.26799 0.0161674 0)
(-2.28975 0.0155641 -2.81452e-20)
(-2.3108 0.0149401 0)
(-2.3311 0.0142944 0)
(-2.35062 0.013626 2.70329e-20)
(-2.36932 0.0129337 0)
(-2.38715 0.0122158 -2.62518e-20)
(-2.40407 0.0114702 0)
(-2.42003 0.0106943 2.54358e-20)
(-2.435 0.00988491 2.50139e-20)
(-2.44891 0.00903835 2.45821e-20)
(-2.46172 0.00815051 4.82802e-20)
(-2.47336 0.00721748 -4.73752e-20)
(-2.48377 0.00623625 0)
(-2.49287 0.00520426 0)
(-2.50058 0.00412187 0)
(-2.50682 0.00300597 -4.35312e-20)
(-2.51146 0.00189956 -4.25116e-20)
(-2.51437 0.000833008 4.14628e-20)
(-2.51566 -0.00017941 0)
(-2.51556 -0.00110466 -3.92679e-20)
(-2.51399 -0.00201299 -3.81249e-20)
(-2.51094 -0.00292551 -3.69499e-20)
(-2.50637 -0.00384885 0)
(-2.50023 -0.00478517 0)
(-2.49249 -0.00573494 0)
(-2.48311 -0.00669795 -3.19099e-20)
(-2.47203 -0.00767363 0)
(-2.45922 -0.00866125 0)
(-2.44463 -0.0096599 2.77465e-20)
(-2.42823 -0.0106686 0)
(-2.40998 -0.0116861 0)
(-2.38984 -0.0127112 2.3229e-20)
(-2.36778 -0.0137425 0)
(-2.34376 -0.0147784 0)
(-2.31776 -0.0158173 -1.83394e-20)
(-2.28975 -0.0168574 -1.66247e-20)
(-2.25971 -0.0178966 0)
(-2.22762 -0.0189328 1.30665e-20)
(-2.19346 -0.0199637 0)
(-2.15722 -0.0209867 -9.33677e-21)
(-2.1189 -0.021999 0)
(-2.0785 -0.0229978 -5.43776e-21)
(-2.03602 -0.0239797 -3.42622e-21)
(-1.99148 -0.0249414 0)
(-1.9449 -0.0258792 0)
(-1.8963 -0.0267892 0)
(-1.84572 -0.0276673 0)
(-1.7932 -0.0285091 0)
(-1.7388 -0.0293102 0)
(-1.68257 -0.0300658 0)
(-1.6246 -0.0307712 1.39858e-20)
(-1.56496 -0.0314216 -1.62965e-20)
(-1.50376 -0.032012 0)
(-1.44108 -0.0325379 0)
(-1.37706 -0.0329944 0)
(-1.31182 -0.0333773 0)
(-1.24549 -0.0336825 -5.61528e-20)
(-1.17822 -0.0339063 0)
(-1.11017 -0.0340457 6.56248e-20)
(-1.0415 -0.0340982 -7.03314e-20)
(-0.972384 -0.0340622 0)
(-0.902996 -0.0339367 0)
(-0.833517 -0.0337219 0)
(-0.764132 -0.033419 8.87035e-20)
(-0.695021 -0.03303 9.31269e-20)
(-0.626366 -0.0325585 0)
(-0.558343 -0.0320089 1.01693e-19)
(-0.491122 -0.031387 1.05817e-19)
(-0.424862 -0.0306995 -1.0982e-19)
(-0.359711 -0.0299546 0)
(-0.295805 -0.0291606 0)
(-0.233262 -0.0283226 -1.21041e-19)
(-0.17218 -0.0274484 0)
(-0.112646 -0.0265479 0)
(-0.0547259 -0.0256275 0)
(0.00154773 -0.0246671 0)
(0.0561304 -0.0236484 1.35027e-19)
(0.109002 -0.0226234 1.35968e-19)
(0.16025 -0.0216592 0)
(0.209951 -0.0207749 1.37551e-19)
(0.258221 -0.0199789 0)
(0.305208 -0.0192783 0)
(0.351083 -0.0186797 1.39301e-19)
(0.39605 -0.0181896 0)
(0.440333 -0.0178138 1.40148e-19)
(0.484183 -0.0175568 0)
(0.527873 -0.0174219 0)
(0.571696 -0.0174109 1.411e-19)
(0.615962 -0.0175243 0)
(0.660993 -0.017761 1.41606e-19)
(0.707126 -0.0181186 0)
(0.754699 -0.0185925 0)
(0.804055 -0.0191766 0)
(0.855532 -0.0198625 -1.42541e-19)
(0.909456 -0.0206391 0)
(0.966136 -0.021492 1.43052e-19)
(1.02585 -0.0224023 0)
(1.08881 -0.0233447 0)
(1.15518 -0.0242833 0)
(1.22498 -0.0251658 0)
(1.29807 -0.0259025 0)
(1.3737 -0.0263432 0)
(1.45132 -0.0260917 0)
(1.52427 -0.0242402 -2.93294e-19)
(1.59771 -0.0175627 0)
(1.60471 0.00798923 0)
(0.016693 -0.0581867 1.04068e-19)
(0.048229 -0.0902712 -9.43967e-20)
(0.0775484 -0.0957396 0)
(0.102774 -0.0905168 5.31289e-20)
(0.122792 -0.0795095 0)
(0.137454 -0.0651372 2.40064e-20)
(0.147031 -0.0488616 -4.64944e-20)
(0.151748 -0.0316035 -4.53167e-20)
(0.151743 -0.0139772 0)
(0.147105 0.00353768 -4.37131e-20)
(0.138284 0.0203888 -2.15264e-20)
(0.125167 0.0359944 0)
(0.107748 0.0498008 0)
(0.0860924 0.0613517 0)
(0.0602657 0.0703858 0)
(0.030271 0.0769807 -2.11211e-20)
(-0.00401643 0.0816419 0)
(-0.0429269 0.0852971 4.21974e-20)
(-0.0868043 0.0893586 0)
(-0.137215 0.095691 0)
(-0.192709 0.103274 -4.20803e-20)
(-0.253841 0.113598 0)
(-0.320254 0.126753 4.04433e-20)
(-0.391441 0.141723 -1.98503e-20)
(-0.464431 0.157066 1.93694e-20)
(-0.539479 0.171418 -1.89009e-20)
(-0.614991 0.180812 -1.84368e-20)
(-0.690555 0.186444 0)
(-0.764088 0.188122 0)
(-0.834674 0.186862 1.71519e-20)
(-0.901615 0.182913 -1.6702e-20)
(-0.964784 0.176843 0)
(-1.02424 0.169295 0)
(-1.0801 0.160836 1.58844e-20)
(-1.13256 0.151939 0)
(-1.18187 0.142981 0)
(-1.22831 0.134248 -1.52072e-20)
(-1.27219 0.12594 0)
(-1.31377 0.118184 1.47739e-20)
(-1.35334 0.111053 -2.93635e-20)
(-1.39115 0.104574 0)
(-1.42741 0.0987407 0)
(-1.46232 0.0935257 -5.68517e-20)
(-1.49605 0.0888873 -5.63348e-20)
(-1.52876 0.0847753 -5.58405e-20)
(-1.56056 0.0811362 2.75979e-20)
(-1.59158 0.0779161 -2.75385e-20)
(-1.6219 0.0750629 -8.17757e-20)
(-1.6516 0.0725275 5.40242e-20)
(-1.68074 0.0702645 2.68856e-20)
(-1.70938 0.068233 0)
(-1.73756 0.0663957 -2.6468e-20)
(-1.76531 0.0647198 2.60897e-20)
(-1.79266 0.063176 0)
(-1.81963 0.0617386 0)
(-1.84623 0.0603851 0)
(-1.87246 0.0590958 -2.5444e-20)
(-1.89833 0.0578536 0)
(-1.92382 0.056644 4.99017e-20)
(-1.94894 0.0554542 0)
(-1.97368 0.0542734 4.90695e-20)
(-1.99801 0.0530925 0)
(-2.02193 0.0519038 -4.82201e-20)
(-2.04541 0.0507009 0)
(-2.06843 0.0494784 4.73485e-20)
(-2.09098 0.048232 -2.33824e-20)
(-2.11302 0.0469581 0)
(-2.13454 0.0456541 -4.59897e-20)
(-2.1555 0.0443177 -2.2823e-20)
(-2.17588 0.0429472 -2.25819e-20)
(-2.19565 0.0415415 0)
(-2.21479 0.0400995 -2.19749e-20)
(-2.23327 0.0386206 -2.18291e-20)
(-2.25105 0.0371043 0)
(-2.2681 0.0355502 2.13002e-20)
(-2.2844 0.0339581 -4.1966e-20)
(-2.29992 0.0323274 0)
(-2.31462 0.0306579 -2.04612e-20)
(-2.32847 0.028949 0)
(-2.34143 0.0271999 5.95437e-20)
(-2.35349 0.0254098 0)
(-2.3646 0.0235771 -5.76924e-20)
(-2.37473 0.0217004 -1.89239e-20)
(-2.38386 0.0197772 1.85619e-20)
(-2.39194 0.0178051 3.64621e-20)
(-2.39895 0.0157811 -3.57837e-20)
(-2.40487 0.0137019 0)
(-2.40968 0.0115644 0)
(-2.41338 0.00936661 0)
(-2.41599 0.00711565 9.8588e-20)
(-2.41755 0.00484874 3.20604e-20)
(-2.41813 0.0026255 -3.12414e-20)
(-2.41762 0.000427089 0)
(-2.41574 -0.00173782 -2.96446e-20)
(-2.41246 -0.00390554 2.86489e-20)
(-2.40774 -0.00609142 2.77387e-20)
(-2.4015 -0.00830141 0)
(-2.39371 -0.0105371 0)
(-2.38432 -0.0127979 0)
(-2.37329 -0.0150825 2.38514e-20)
(-2.36057 -0.0173889 0)
(-2.34612 -0.0197147 -4.37905e-20)
(-2.3299 -0.0220575 -6.2297e-20)
(-2.31187 -0.0244141 3.94239e-20)
(-2.292 -0.0267816 0)
(-2.27023 -0.0291565 1.76092e-20)
(-2.24654 -0.0315352 0)
(-2.2209 -0.0339136 3.00251e-20)
(-2.19328 -0.0362876 -1.39952e-20)
(-2.16364 -0.0386526 -1.27342e-20)
(-2.13197 -0.0410037 0)
(-2.09824 -0.0433357 -2.93267e-20)
(-2.06244 -0.0456432 1.70145e-20)
(-2.02456 -0.0479203 6.83503e-21)
(-1.98459 -0.0501607 0)
(-1.94253 -0.0523576 3.96607e-21)
(-1.89838 -0.0545042 8.12977e-21)
(-1.85216 -0.0565927 0)
(-1.80387 -0.0586154 -3.4792e-22)
(-1.75356 -0.0605638 -3.40574e-21)
(-1.70124 -0.0624295 -6.50398e-21)
(-1.64697 -0.0642033 0)
(-1.59078 -0.065876 0)
(-1.53275 -0.0674381 0)
(-1.47295 -0.06888 9.21772e-21)
(-1.41145 -0.070192 1.1647e-20)
(-1.34834 -0.0713646 0)
(-1.28373 -0.0723888 2.90226e-20)
(-1.21773 -0.0732555 3.23057e-20)
(-1.15046 -0.0739566 0)
(-1.08207 -0.0744846 3.97225e-20)
(-1.01268 -0.0748332 8.42766e-20)
(-0.942457 -0.074997 -4.62456e-20)
(-0.87156 -0.0749721 -4.77656e-20)
(-0.800158 -0.0747564 0)
(-0.728425 -0.0743491 0)
(-0.65654 -0.0737516 0)
(-0.584683 -0.0729674 -6.19963e-20)
(-0.513037 -0.0720019 6.33789e-20)
(-0.441782 -0.0708632 1.34291e-19)
(-0.371095 -0.069561 -7.08148e-20)
(-0.301146 -0.0681074 7.20901e-20)
(-0.232098 -0.0665165 7.63362e-20)
(-0.164101 -0.0648035 0)
(-0.0972955 -0.0629853 0)
(-0.0318065 -0.0610788 -8.26039e-20)
(0.0322646 -0.0590992 0)
(0.094809 -0.0570675 0)
(0.155773 -0.055011 1.75627e-19)
(0.215114 -0.0529533 0)
(0.272811 -0.0509057 8.9586e-20)
(0.328881 -0.0488977 -9.17248e-20)
(0.383371 -0.046978 0)
(0.436344 -0.045181 9.26598e-20)
(0.4879 -0.0435313 0)
(0.538166 -0.0420496 0)
(0.587302 -0.0407552 -9.5989e-20)
(0.635497 -0.0396661 1.92517e-19)
(0.682967 -0.0387985 -9.7318e-20)
(0.729954 -0.0381663 0)
(0.776723 -0.0377808 0)
(0.823563 -0.0376507 9.82608e-20)
(0.87078 -0.0377816 0)
(0.918698 -0.0381761 9.9296e-20)
(0.967652 -0.0388331 0)
(1.01798 -0.0397482 0)
(1.07004 -0.0409124 0)
(1.12417 -0.0423124 1.02097e-19)
(1.1807 -0.0439287 0)
(1.23995 -0.0457343 -1.03145e-19)
(1.30221 -0.0476921 0)
(1.3677 -0.0497501 0)
(1.43661 -0.0518325 2.08753e-19)
(1.50895 -0.0538249 -2.1e-19)
(1.58464 -0.0555298 0)
(1.66308 -0.0566094 0)
(1.74368 -0.0562138 0)
(1.8225 -0.0527388 6.50809e-19)
(1.90264 -0.0402463 0)
(1.95648 -0.00465234 -4.4729e-19)
(0.0194573 -0.130847 5.07158e-23)
(0.0473355 -0.162623 1.21595e-19)
(0.0684628 -0.15164 0)
(0.084406 -0.131001 -1.00159e-19)
(0.0950291 -0.106916 0)
(0.100638 -0.0812456 0)
(0.101743 -0.0548626 -4.67009e-23)
(0.0987024 -0.0283047 4.15312e-20)
(0.09172 -0.00198124 4.05965e-20)
(0.080922 0.0237289 3.97204e-20)
(0.0664052 0.0484776 0)
(0.0481645 0.0718726 0)
(0.0261057 0.0935101 -3.85041e-20)
(2.11812e-05 0.113073 -7.66817e-20)
(-0.0304309 0.130469 7.60357e-20)
(-0.0656929 0.145993 0)
(-0.106219 0.160372 7.42982e-20)
(-0.152375 0.174614 -3.67235e-20)
(-0.204234 0.189584 0)
(-0.261469 0.205667 7.1096e-20)
(-0.323311 0.222771 3.48518e-20)
(-0.38893 0.240855 -6.80201e-20)
(-0.45686 0.259039 -3.32118e-20)
(-0.525468 0.275903 0)
(-0.592811 0.289791 6.30721e-20)
(-0.65785 0.29919 6.14912e-20)
(-0.720087 0.302952 0)
(-0.779656 0.301676 5.84901e-20)
(-0.836289 0.296244 0)
(-0.889894 0.287715 5.57715e-20)
(-0.940437 0.276822 2.72347e-20)
(-0.988165 0.264286 0)
(-1.03337 0.250784 0)
(-1.07633 0.236908 0)
(-1.1173 0.223131 0)
(-1.15652 0.209815 0)
(-1.19417 0.197208 0)
(-1.23043 0.185468 4.81844e-20)
(-1.26543 0.174676 -7.13217e-20)
(-1.29931 0.164858 0)
(-1.33216 0.155995 0)
(-1.36408 0.148042 0)
(-1.39516 0.140935 8.41597e-23)
(-1.42547 0.134601 4.49674e-20)
(-1.45508 0.128961 8.8963e-20)
(-1.48405 0.123938 -8.81217e-20)
(-1.51244 0.119457 -4.36056e-20)
(-1.5403 0.115448 4.3321e-20)
(-1.56766 0.111844 -1.0787e-22)
(-1.59457 0.108586 4.2469e-20)
(-1.62106 0.105621 0)
(-1.64714 0.102899 4.17565e-20)
(-1.67286 0.100379 -1.10608e-22)
(-1.69821 0.0980211 0)
(-1.72321 0.0957927 0)
(-1.74787 0.0936643 -4.03839e-20)
(-1.77218 0.0916102 0)
(-1.79616 0.0896083 0)
(-1.81978 0.0876393 3.92605e-20)
(-1.84305 0.0856869 7.80472e-20)
(-1.86595 0.083737 -3.87808e-20)
(-1.88847 0.0817778 0)
(-1.91059 0.0797994 3.80783e-20)
(-1.9323 0.0777937 0)
(-1.95358 0.075754 3.71741e-20)
(-1.97441 0.0736747 3.69915e-20)
(-1.99475 0.0715518 -7.30632e-20)
(-2.01461 0.0693818 -3.60716e-20)
(-2.03394 0.0671621 0)
(-2.05272 0.0648911 7.07672e-20)
(-2.07093 0.0625672 0)
(-2.08854 0.0601897 1.0382e-19)
(-2.10553 0.0577581 6.8342e-20)
(-2.12187 0.0552719 6.75014e-20)
(-2.13752 0.052731 -6.66433e-20)
(-2.15248 0.0501355 9.87056e-20)
(-2.16669 0.0474851 0)
(-2.18015 0.04478 0)
(-2.19281 0.0420199 -6.30233e-20)
(-2.20465 0.0392048 -9.31378e-20)
(-2.21564 0.0363344 0)
(-2.22576 0.0334086 3.00713e-20)
(-2.23496 0.0304272 0)
(-2.24324 0.0273905 -8.70468e-20)
(-2.25055 0.0242993 -1.8432e-23)
(-2.25687 0.0211552 6.55261e-24)
(-2.26218 0.0179616 5.47306e-20)
(-2.26646 0.0147238 0)
(-2.26968 0.0114499 -5.24038e-20)
(-2.27182 0.00814924 4.42582e-23)
(-2.27283 0.004831 0)
(-2.27268 0.00150409 0)
(-2.27129 -0.00185421 0)
(-2.26857 -0.00526754 4.58987e-20)
(-2.26449 -0.00873025 0)
(-2.25898 -0.0122395 0)
(-2.25202 -0.0157932 0)
(-2.24354 -0.0193892 0)
(-2.23351 -0.0230249 0)
(-2.22188 -0.0266972 3.71843e-20)
(-2.20861 -0.0304025 0)
(-2.19365 -0.0341368 3.37132e-20)
(-2.17697 -0.0378958 3.20205e-20)
(-2.15853 -0.0416746 -3.02885e-20)
(-2.13828 -0.0454682 0)
(-2.11619 -0.0492708 -2.67061e-20)
(-2.09222 -0.0530766 0)
(-2.06634 -0.056879 -2.29652e-20)
(-2.03852 -0.0606711 2.10357e-20)
(-2.00874 -0.0644455 5.79602e-20)
(-1.97696 -0.0681942 0)
(-1.94317 -0.0719089 4.58763e-20)
(-1.90734 -0.0755806 1.3798e-20)
(-1.86947 -0.0791998 0)
(-1.82954 -0.0827564 1.82606e-20)
(-1.78756 -0.0862397 1.39222e-20)
(-1.74352 -0.0896384 -1.37804e-20)
(-1.69743 -0.0929405 0)
(-1.64931 -0.0961334 2.62324e-22)
(-1.59918 -0.0992039 2.56415e-21)
(-1.54707 -0.102138 1.35547e-20)
(-1.49301 -0.104922 0)
(-1.43706 -0.107542 0)
(-1.37927 -0.109981 0)
(-1.31971 -0.112226 1.31683e-20)
(-1.25844 -0.114261 0)
(-1.19557 -0.116072 0)
(-1.13119 -0.117644 -2.15917e-20)
(-1.0654 -0.118964 -2.39984e-20)
(-0.998317 -0.120019 0)
(-0.930081 -0.120798 0)
(-0.860826 -0.121291 -6.23331e-20)
(-0.790699 -0.121491 0)
(-0.719857 -0.121392 7.17217e-20)
(-0.648463 -0.120991 7.50781e-20)
(-0.576688 -0.120288 0)
(-0.504705 -0.119284 0)
(-0.432691 -0.117987 -8.85736e-20)
(-0.360826 -0.116404 -1.20337e-21)
(-0.289285 -0.114549 -1.18199e-21)
(-0.218244 -0.112437 0)
(-0.147869 -0.110087 -2.11914e-19)
(-0.0783244 -0.107522 0)
(-0.00975819 -0.104767 0)
(0.0576849 -0.101848 0)
(0.123876 -0.0987946 1.19532e-19)
(0.188712 -0.0956352 0)
(0.252096 -0.0924032 -2.46573e-19)
(0.313964 -0.0891376 -1.26349e-19)
(0.374274 -0.0858808 0)
(0.433019 -0.0826749 -1.30309e-19)
(0.490212 -0.0795575 0)
(0.545883 -0.0765728 0)
(0.600087 -0.0737642 -4.05223e-19)
(0.65291 -0.0711707 2.72835e-19)
(0.704467 -0.0688278 0)
(0.754904 -0.0667688 2.78654e-19)
(0.804399 -0.0650241 -1.41314e-19)
(0.853155 -0.0636213 0)
(0.901404 -0.0625845 0)
(0.949402 -0.0619335 0)
(0.997425 -0.0616841 -4.36823e-19)
(1.04577 -0.0618471 0)
(1.09476 -0.0624283 -1.48154e-19)
(1.14471 -0.0634282 0)
(1.19597 -0.064841 0)
(1.24887 -0.0666547 0)
(1.30375 -0.068849 0)
(1.36095 -0.0713947 0)
(1.42078 -0.0742503 0)
(1.48353 -0.077358 -3.09712e-19)
(1.54942 -0.080637 0)
(1.61864 -0.0839697 -1.58029e-19)
(1.69125 -0.0871787 4.76329e-19)
(1.76717 -0.0899709 0)
(1.84598 -0.0918432 0)
(1.92724 -0.0917365 -3.26047e-19)
(2.00845 -0.087652 -3.31793e-19)
(2.09293 -0.074264 3.3506e-19)
(2.16538 -0.0397768 3.43844e-19)
(0.0153278 -0.191298 -1.99599e-19)
(0.0333997 -0.205137 -1.76227e-19)
(0.0428405 -0.179093 -1.0422e-19)
(0.0486272 -0.147179 -4.74661e-20)
(0.0505856 -0.113656 0)
(0.0488104 -0.0796113 8.35851e-20)
(0.0435439 -0.0455357 -4.01222e-20)
(0.0349352 -0.0117407 0)
(0.0230373 0.0215199 -3.77983e-20)
(0.00784821 0.0540106 0)
(-0.0107144 0.0855183 7.26091e-20)
(-0.0327858 0.115823 0)
(-0.0585721 0.144723 3.51073e-20)
(-0.0883474 0.172099 6.92951e-20)
(-0.12243 0.197988 -6.84194e-20)
(-0.161105 0.22262 0)
(-0.204505 0.246384 -6.64646e-20)
(-0.252498 0.269656 0)
(-0.304621 0.292591 0)
(-0.360094 0.315003 -6.24896e-20)
(-0.417894 0.336428 0)
(-0.476798 0.356185 -6.65612e-23)
(-0.535445 0.373259 0)
(-0.592579 0.386529 0)
(-0.647232 0.395038 1.29307e-22)
(-0.69889 0.398167 -5.32306e-20)
(-0.747556 0.395852 -5.19866e-20)
(-0.79351 0.388767 -5.04886e-20)
(-0.837062 0.377909 0)
(-0.878484 0.364316 -9.62393e-20)
(-0.918035 0.348866 0)
(-0.95597 0.332319 -4.60474e-20)
(-0.992521 0.315318 0)
(-1.02787 0.298381 0)
(-1.06218 0.281905 4.33827e-20)
(-1.09555 0.266176 0)
(-1.12806 0.251384 -4.19329e-20)
(-1.15978 0.237642 3.26034e-23)
(-1.19076 0.225 8.13729e-20)
(-1.22104 0.213458 -8.02897e-20)
(-1.25064 0.202986 0)
(-1.27962 0.193526 0)
(-1.30799 0.185008 -3.86828e-20)
(-1.33579 0.177353 0)
(-1.36305 0.170477 -3.79083e-20)
(-1.38981 0.164296 3.75309e-20)
(-1.4161 0.15873 3.71694e-20)
(-1.44194 0.153701 0)
(-1.46737 0.149138 -3.64849e-20)
(-1.4924 0.144974 -3.6158e-20)
(-1.51706 0.141147 7.15789e-20)
(-1.54136 0.137604 -3.55265e-20)
(-1.56532 0.134294 -3.52191e-20)
(-1.58895 0.131172 0)
(-1.61225 0.1282 0)
(-1.63523 0.125342 3.43164e-20)
(-1.65789 0.122568 0)
(-1.68022 0.119851 0)
(-1.70222 0.117169 -6.6847e-20)