/*--------------------------------*- C++ -*----------------------------------*\
  =========                 |
  \\      /  F ield         | OpenFOAM: The Open Source CFD Toolbox
   \\    /   O peration     | Website:  https://openfoam.org
    \\  /    A nd           | Version:  9
     \\/     M anipulation  |
\*---------------------------------------------------------------------------*/
FoamFile
{
    format      ascii;
    class       volScalarField;
    location    "0.019";
    object      k_0;
}
// * * * * * * * * * * * * * * * * * * * * * * * * * * * * * * * * * * * * * //

dimensions      [0 2 -2 0 0 0 0];

internalField   nonuniform List<scalar> 
12225
(
1.96789e-05
1.97672e-05
2.00277e-05
2.01799e-05
2.05679e-05
2.20675e-05
2.70378e-05
4.35587e-05
7.89023e-05
0.00010301
0.000113005
0.000114452
0.000111875
0.000100097
9.01061e-05
8.58189e-05
8.26204e-05
8.20945e-05
2.00003e-05
2.00144e-05
2.00474e-05
2.00895e-05
2.0194e-05
2.05327e-05
2.15037e-05
2.40847e-05
3.14439e-05
4.27393e-05
5.17245e-05
5.77333e-05
6.04556e-05
6.08352e-05
6.06263e-05
6.01418e-05
6.02669e-05
6.10019e-05
1.99998e-05
1.61515e-05
1.52612e-05
1.53636e-05
1.56474e-05
1.60991e-05
1.65199e-05
1.72331e-05
1.89502e-05
2.1003e-05
2.25537e-05
2.35785e-05
2.41808e-05
2.44209e-05
2.44766e-05
2.45132e-05
2.46048e-05
2.5059e-05
2.00807e-05
2.00859e-05
1.99542e-05
1.95376e-05
1.80856e-05
1.79122e-05
1.80782e-05
1.74173e-05
1.66525e-05
1.71089e-05
1.87431e-05
1.97849e-05
2.01218e-05
2.01494e-05
2.00361e-05
1.98164e-05
1.9703e-05
1.9537e-05
2.07161e-05
2.05634e-05
2.05398e-05
2.0327e-05
2.01212e-05
2.01228e-05
2.02533e-05
2.08009e-05
2.33021e-05
3.17902e-05
3.70218e-05
3.76546e-05
3.6317e-05
3.14282e-05
2.77299e-05
2.52282e-05
2.4216e-05
2.31596e-05
2.1123e-05
2.15738e-05
2.13653e-05
2.10869e-05
2.13928e-05
2.33427e-05
2.63704e-05
3.16962e-05
3.92479e-05
4.56921e-05
4.74172e-05
4.59806e-05
3.95675e-05
3.24074e-05
2.81185e-05
2.63163e-05
2.57607e-05
2.55258e-05
2.1626e-05
2.30938e-05
2.09899e-05
2.04097e-05
2.04596e-05
2.09056e-05
2.21643e-05
2.60164e-05
3.16628e-05
3.39789e-05
3.51465e-05
3.57157e-05
3.50166e-05
3.13413e-05
2.768e-05
2.58313e-05
2.51645e-05
2.50628e-05
2.45073e-05
2.68243e-05
2.32177e-05
2.17325e-05
2.17034e-05
2.19262e-05
2.22216e-05
2.27937e-05
2.4183e-05
2.7989e-05
3.40438e-05
3.67404e-05
3.66745e-05
3.38284e-05
2.88188e-05
2.59396e-05
2.46541e-05
2.43245e-05
2.10927e-05
2.38022e-05
2.3407e-05
2.19336e-05
2.13485e-05
2.11045e-05
2.1093e-05
2.12976e-05
2.25314e-05
2.64921e-05
2.8849e-05
2.90853e-05
2.84168e-05
2.59919e-05
2.40081e-05
2.288e-05
2.23358e-05
2.21928e-05
2.1037e-05
2.23987e-05
2.28808e-05
2.28498e-05
2.27163e-05
2.25155e-05
2.24838e-05
2.25291e-05
2.30234e-05
2.39945e-05
2.41308e-05
2.42971e-05
2.543e-05
2.66094e-05
2.68489e-05
2.67615e-05
2.63435e-05
2.49253e-05
2.12826e-05
2.62392e-05
2.75484e-05
2.79179e-05
2.86781e-05
2.88913e-05
2.83186e-05
2.6174e-05
2.47907e-05
2.46795e-05
2.54304e-05
3.07077e-05
4.6951e-05
5.43219e-05
5.48749e-05
5.3499e-05
4.79573e-05
3.92848e-05
2.06275e-05
2.12132e-05
2.17999e-05
2.45262e-05
3.70459e-05
4.45491e-05
4.32566e-05
3.45154e-05
2.76697e-05
2.63713e-05
2.73547e-05
3.53012e-05
6.93508e-05
9.62072e-05
0.000100372
9.61069e-05
7.6049e-05
5.56436e-05
2.0003e-05
2.00772e-05
2.05276e-05
2.27459e-05
2.92292e-05
3.13107e-05
3.09722e-05
2.83503e-05
2.52026e-05
2.4636e-05
2.54869e-05
3.32832e-05
4.47728e-05
4.65343e-05
4.6326e-05
4.56117e-05
4.1963e-05
3.61298e-05
2.00081e-05
2.02038e-05
2.09082e-05
2.16409e-05
2.23098e-05
2.26117e-05
2.23577e-05
2.16763e-05
2.12645e-05
2.11604e-05
2.12086e-05
2.15848e-05
2.25852e-05
2.38326e-05
2.50883e-05
2.57284e-05
2.57927e-05
2.57059e-05
2.00086e-05
2.0279e-05
2.11873e-05
2.1635e-05
2.1691e-05
2.15899e-05
2.14187e-05
2.13564e-05
2.1341e-05
2.13409e-05
2.13487e-05
2.13678e-05
2.14054e-05
2.15324e-05
2.18811e-05
2.23876e-05
2.39988e-05
2.67456e-05
2.0071e-05
2.04182e-05
2.06113e-05
2.05546e-05
2.04592e-05
2.046e-05
2.05626e-05
2.10525e-05
2.15996e-05
2.18696e-05
2.19784e-05
2.20682e-05
2.22637e-05
2.30439e-05
2.44158e-05
2.52248e-05
2.55219e-05
2.55756e-05
2.09702e-05
2.12978e-05
2.12739e-05
2.13451e-05
2.13965e-05
2.13201e-05
2.13137e-05
2.15853e-05
2.27529e-05
2.34908e-05
2.36419e-05
2.35701e-05
2.30602e-05
2.25001e-05
2.23279e-05
2.23581e-05
2.26969e-05
2.33277e-05
2.36949e-05
2.64278e-05
2.43655e-05
2.22222e-05
2.18765e-05
2.19058e-05
2.21515e-05
2.24094e-05
2.24543e-05
2.23516e-05
2.19727e-05
2.14903e-05
2.12448e-05
2.12034e-05
2.12988e-05
2.21691e-05
2.41605e-05
2.50059e-05
2.08311e-05
2.16917e-05
2.20579e-05
2.19865e-05
2.15879e-05
2.11284e-05
2.11497e-05
2.19434e-05
2.3139e-05
2.33349e-05
2.32773e-05
2.32331e-05
2.31841e-05
2.30251e-05
2.24326e-05
2.17961e-05
2.13808e-05
2.11693e-05
2.00167e-05
2.08539e-05
2.47701e-05
2.73949e-05
2.7629e-05
2.56883e-05
2.26415e-05
2.12852e-05
2.08821e-05
2.08576e-05
2.10576e-05
2.1617e-05
2.19168e-05
2.19952e-05
2.19812e-05
2.18095e-05
2.14683e-05
2.12912e-05
2.00313e-05
2.12847e-05
2.35606e-05
2.35822e-05
2.32228e-05
2.25729e-05
2.22112e-05
2.19922e-05
2.19267e-05
2.19544e-05
2.22394e-05
2.37341e-05
2.59275e-05
2.70119e-05
2.73338e-05
2.73365e-05
2.70776e-05
2.58162e-05
2.00427e-05
2.04003e-05
2.05326e-05
2.0645e-05
2.09358e-05
2.22289e-05
2.42076e-05
2.46341e-05
2.43447e-05
2.32015e-05
2.26126e-05
2.25477e-05
2.27421e-05
2.38911e-05
2.84228e-05
3.30117e-05
3.49662e-05
3.52399e-05
2.01017e-05
2.11936e-05
2.12114e-05
2.10498e-05
2.12143e-05
2.2872e-05
2.82561e-05
3.01672e-05
2.96761e-05
2.76874e-05
2.63762e-05
2.59356e-05
2.58928e-05
2.60576e-05
2.65154e-05
2.67055e-05
2.67137e-05
2.65827e-05
2.02353e-05
2.06117e-05
2.10549e-05
2.21943e-05
2.61493e-05
2.76424e-05
2.74656e-05
2.63713e-05
2.47051e-05
2.37431e-05
2.32086e-05
2.28931e-05
2.27069e-05
2.26051e-05
2.25567e-05
2.2549e-05
2.25648e-05
2.25957e-05
2.02937e-05
2.12908e-05
2.65083e-05
2.95265e-05
2.71332e-05
2.36099e-05
2.20347e-05
2.15556e-05
2.15562e-05
2.2033e-05
2.44114e-05
2.69655e-05
2.77815e-05
2.77502e-05
2.71126e-05
2.5746e-05
2.46554e-05
2.38189e-05
2.10686e-05
2.08606e-05
2.28096e-05
2.40537e-05
2.3278e-05
2.20523e-05
2.15315e-05
2.13246e-05
2.1455e-05
2.25735e-05
2.72316e-05
3.0782e-05
3.13067e-05
3.06025e-05
2.75077e-05
2.48883e-05
2.3437e-05
2.28148e-05
2.01457e-05
2.00342e-05
2.00875e-05
2.01555e-05
2.01157e-05
1.97928e-05
1.87354e-05
1.83721e-05
1.84497e-05
1.8722e-05
1.89601e-05
1.90497e-05
1.90462e-05
1.89398e-05
1.85301e-05
1.71163e-05
1.43189e-05
1.24828e-05
2.00024e-05
1.93546e-05
1.81736e-05
1.57019e-05
1.37267e-05
1.29923e-05
1.29397e-05
1.30735e-05
1.37287e-05
1.5138e-05
1.60737e-05
1.65022e-05
1.66054e-05
1.65755e-05
1.62882e-05
1.49621e-05
1.30392e-05
1.15657e-05
2.00045e-05
2.02339e-05
2.07002e-05
2.11223e-05
2.22548e-05
2.38563e-05
2.43953e-05
2.4215e-05
2.30731e-05
2.18303e-05
2.13908e-05
2.13741e-05
2.16002e-05
2.25018e-05
2.49693e-05
2.74086e-05
2.91019e-05
2.97781e-05
1.99476e-05
2.35122e-05
3.95542e-05
5.29454e-05
5.77104e-05
5.81238e-05
5.58554e-05
4.39089e-05
3.18909e-05
2.79662e-05
2.79335e-05
3.12779e-05
4.37107e-05
5.38276e-05
5.84944e-05
5.97565e-05
5.96163e-05
5.7584e-05
0.000163649
0.000220432
0.000222594
0.000256912
0.000343176
0.000465626
0.000598079
0.000737088
0.000972344
0.0011462
0.00136742
0.0015243
0.00181299
0.00201279
0.00213713
0.00213925
0.00230001
0.00274602
0.00371403
0.00528408
0.00658219
0.00747266
0.00899857
0.0138182
0.0190066
0.027406
0.0664492
0.145657
0.0647926
0.0181602
0.0114751
0.0107934
0.0109609
0.0110163
0.00989974
0.00877505
0.00695969
0.00568177
0.00403968
0.00323588
0.00218758
0.00149618
0.00112755
0.000765142
0.000602268
0.000509961
0.000478582
0.000490156
0.000493751
0.000496004
0.000496852
0.000496927
0.00049579
0.000490282
0.000482663
0.000478132
0.000474532
0.000469734
0.000461672
0.000451303
0.000442177
0.000435596
0.000428577
0.000418595
0.000406832
0.000390801
0.000379315
0.000367241
0.000355003
0.000335194
0.000312883
0.000294937
0.000282462
0.000265808
0.000242537
0.000225957
0.000207684
0.000185863
0.000166259
0.00014643
0.000128672
0.000112541
9.95632e-05
8.87001e-05
7.92685e-05
7.07098e-05
6.28032e-05
5.55018e-05
4.88095e-05
4.27317e-05
3.72524e-05
3.23539e-05
2.8018e-05
2.42071e-05
2.08617e-05
1.79254e-05
1.53768e-05
1.32164e-05
1.14283e-05
9.92695e-06
8.56883e-06
7.29875e-06
6.11512e-06
5.0329e-06
4.069e-06
3.23524e-06
2.53544e-06
1.96416e-06
1.50814e-06
1.1493e-06
8.66973e-07
6.45947e-07
4.74933e-07
3.43721e-07
2.45626e-07
1.7378e-07
1.21825e-07
8.46854e-08
5.84028e-08
3.99712e-08
2.71527e-08
1.83071e-08
1.22495e-08
8.13251e-09
5.35588e-09
3.4979e-09
2.26473e-09
1.45319e-09
9.23858e-10
5.81793e-10
3.62872e-10
2.24153e-10
1.37144e-10
8.31236e-11
4.99231e-11
2.972e-11
1.75436e-11
1.02725e-11
5.96869e-12
3.44253e-12
1.97148e-12
1.1213e-12
6.33496e-13
3.5557e-13
1.98307e-13
1.0992e-13
6.05742e-14
3.32056e-14
1.8126e-14
9.87183e-15
5.38352e-15
2.95902e-15
1.65806e-15
9.64776e-16
5.98176e-16
4.06247e-16
3.07308e-16
2.57733e-16
2.34332e-16
2.24778e-16
2.22176e-16
2.22045e-16
2.22045e-16
2.22045e-16
2.22045e-16
2.22045e-16
2.22045e-16
2.22045e-16
2.22045e-16
2.22045e-16
2.22045e-16
2.22045e-16
2.22045e-16
2.22045e-16
2.22045e-16
2.22045e-16
5.63943e-16
3.40278e-13
3.32077e-10
3.18122e-07
0.000231182
0.00044927
0.00074833
0.000954503
0.00130746
0.00176278
0.00231914
0.00302008
0.00383465
0.00473673
0.00576937
0.00664732
0.00785372
0.00922833
0.00961043
0.00966066
0.00967241
0.00953626
0.00927582
0.00940658
0.00997386
0.0119016
0.0220018
0.0631527
0.0737533
0.0629981
0.0622069
0.0381521
0.0182011
0.00959098
0.00707918
0.00605889
0.00490421
0.00407426
0.00306341
0.00255845
0.00200027
0.00175164
0.00154591
0.00145976
0.00141802
0.00140853
0.0014337
0.00148897
0.00152554
0.0015624
0.00157993
0.00159345
0.00159977
0.00160278
0.00160437
0.00160498
0.00159412
0.0015685
0.00154322
0.00152507
0.00151171
0.0014984
0.00147401
0.00144303
0.00141683
0.00139413
0.00137211
0.00134296
0.00130758
0.00126059
0.00121555
0.001163
0.00111795
0.00105085
0.000977995
0.000922571
0.000883126
0.00082625
0.000772211
0.000724775
0.00068076
0.00062754
0.000569869
0.000506748
0.000445502
0.000378735
0.000323744
0.000283126
0.000254169
0.000230673
0.000209729
0.000189936
0.000170691
0.000152279
0.000134988
0.000118761
0.000103563
8.96733e-05
7.76734e-05
6.74825e-05
5.86657e-05
5.10335e-05
4.44033e-05
3.86342e-05
3.3668e-05
2.93981e-05
2.5695e-05
2.24397e-05
1.95376e-05
1.69204e-05
1.45447e-05
1.23876e-05
1.04394e-05
8.69504e-06
7.15813e-06
5.82726e-06
4.69199e-06
3.73774e-06
2.94525e-06
2.29577e-06
1.77086e-06
1.35219e-06
1.02213e-06
7.64592e-07
5.6567e-07
4.13688e-07
2.98943e-07
2.13388e-07
1.50423e-07
1.04696e-07
7.19367e-08
4.87887e-08
3.26589e-08
2.15769e-08
1.40704e-08
9.05772e-09
5.75754e-09
3.61511e-09
2.24324e-09
1.37638e-09
8.35524e-10
5.02102e-10
2.9887e-10
1.76304e-10
1.03117e-10
5.98214e-11
3.4433e-11
1.96694e-11
1.11529e-11
6.27806e-12
3.50868e-12
1.94704e-12
1.0729e-12
5.87167e-13
3.19238e-13
1.7252e-13
9.27449e-14
4.96594e-14
2.65317e-14
1.41831e-14
7.61792e-15
4.13818e-15
2.29682e-15
1.32256e-15
8.06685e-16
5.3347e-16
3.88635e-16
3.11706e-16
2.70713e-16
2.48766e-16
2.3693e-16
2.3049e-16
2.26935e-16
2.24946e-16
2.23804e-16
2.23144e-16
2.22726e-16
2.22501e-16
2.22313e-16
2.22229e-16
2.44964e-16
2.47344e-14
2.65915e-11
2.43261e-08
0.000165704
0.000515507
0.0010265
0.00170722
0.00242568
0.00321761
0.00425714
0.00570183
0.00757824
0.00979263
0.0124701
0.0156041
0.018927
0.0233135
0.0256985
0.0257948
0.0262998
0.0290467
0.0327071
0.037444
0.0457536
0.0563767
0.0661159
0.0653048
0.0514708
0.0332272
0.0198793
0.00896802
0.0053422
0.00379866
0.0030964
0.00260794
0.0023054
0.00211792
0.00200907
0.00196212
0.00194035
0.00193705
0.00202025
0.00213715
0.00226784
0.00240495
0.00254353
0.00263534
0.00274424
0.00279953
0.00284644
0.00286774
0.00287561
0.00286817
0.00283589
0.00282532
0.00280071
0.00273359
0.00266419
0.00259624
0.00253297
0.00247056
0.00241718
0.00235323
0.00230213
0.00224787
0.00220541
0.00215312
0.00210904
0.00203372
0.00197009
0.00185459
0.00177184
0.00165774
0.00152155
0.00140018
0.00128013
0.00115628
0.0010722
0.000970916
0.000896223
0.000828625
0.000760194
0.000691024
0.000620699
0.00054772
0.000475201
0.000409593
0.000359968
0.000319982
0.000286401
0.000258789
0.000235279
0.000213677
0.000193589
0.00017544
0.000158934
0.0001431
0.000126692
0.000109543
9.24276e-05
7.63731e-05
6.25887e-05
5.16545e-05
4.29637e-05
3.60883e-05
3.06779e-05
2.6415e-05
2.30265e-05
2.02842e-05
1.80008e-05
1.60233e-05
1.42262e-05
1.2558e-05
1.10086e-05
9.56552e-06
8.2273e-06
6.99836e-06
5.88361e-06
4.88599e-06
4.00682e-06
3.24564e-06
2.59739e-06
2.05374e-06
1.60446e-06
1.23828e-06
9.43896e-07
7.10456e-07
5.27861e-07
3.87025e-07
2.79945e-07
1.99719e-07
1.40511e-07
9.74825e-08
6.66954e-08
4.50107e-08
2.99752e-08
1.9711e-08
1.28094e-08
8.23578e-09
5.24425e-09
3.30869e-09
2.0689e-09
1.28242e-09
7.88096e-10
4.8016e-10
2.90012e-10
1.73625e-10
1.03016e-10
6.05678e-11
3.52836e-11
2.03649e-11
1.16465e-11
6.60059e-12
3.70845e-12
2.06652e-12
1.14292e-12
6.2789e-13
3.42976e-13
1.86478e-13
1.01036e-13
5.46238e-14
2.95135e-14
1.5971e-14
8.68445e-15
4.77084e-15
2.6711e-15
1.54497e-15
9.40596e-16
6.15667e-16
4.40111e-16
3.44827e-16
2.92451e-16
2.63256e-16
2.46936e-16
2.3713e-16
2.31745e-16
2.28122e-16
2.26212e-16
2.26141e-16
2.49891e-16
1.3569e-15
1.10837e-12
9.20476e-10
0.00021941
0.000738652
0.00132024
0.00223155
0.00318914
0.00432668
0.00592554
0.00847562
0.0122256
0.0168937
0.0224521
0.0287927
0.0355095
0.0424387
0.0496197
0.0561607
0.0587082
0.0597384
0.0595135
0.0587065
0.0577198
0.0568331
0.0517606
0.031987
0.0161131
0.00976026
0.00550002
0.00352496
0.00277618
0.00246126
0.00232631
0.00226705
0.00225068
0.00226407
0.00242372
0.00265966
0.00298843
0.00339956
0.00374127
0.00401172
0.00424196
0.00438956
0.00446293
0.0045002
0.00451442
0.00451704
0.00450314
0.00449907
0.00447601
0.00441138
0.00434746
0.00427258
0.00422884
0.00414733
0.00407623
0.00402166
0.00390493
0.00377456
0.00362716
0.00343976
0.0032531
0.00305747
0.00291132
0.00281051
0.00269905
0.00258381
0.00251462
0.00239963
0.00229621
0.00218513
0.00199688
0.00180956
0.00160274
0.00144342
0.00127441
0.00111967
0.000987886
0.000872516
0.000775373
0.000693648
0.000624445
0.000563303
0.00050316
0.000448803
0.000399685
0.000355636
0.000316183
0.000281809
0.000253271
0.000229249
0.000208373
0.000190655
0.000175409
0.000162488
0.000151681
0.000142329
0.000133015
0.000122045
0.000108086
9.1327e-05
7.43087e-05
5.95391e-05
4.7727e-05
3.8444e-05
3.13126e-05
2.58894e-05
2.17575e-05
1.85745e-05
1.60901e-05
1.40967e-05
1.24086e-05
1.08892e-05
9.47094e-06
8.15581e-06
6.95034e-06
5.86119e-06
4.89057e-06
4.03461e-06
3.28913e-06
2.64924e-06
2.10792e-06
1.65663e-06
1.28594e-06
9.86159e-07
7.47733e-07
5.61375e-07
4.18175e-07
3.09686e-07
2.2818e-07
1.67176e-07
1.21612e-07
8.76976e-08
6.26077e-08
4.42084e-08
3.08593e-08
2.12888e-08
1.45138e-08
9.78069e-09
6.51633e-09
4.29262e-09
2.79597e-09
1.80056e-09
1.14633e-09
7.21453e-10
4.48832e-10
2.76023e-10
1.67817e-10
1.00886e-10
5.9985e-11
3.52885e-11
2.05495e-11
1.18518e-11
6.77403e-12
3.83962e-12
2.15991e-12
1.20694e-12
6.70521e-13
3.70643e-13
2.04006e-13
1.11909e-13
6.12513e-14
3.35091e-14
1.83691e-14
1.01309e-14
5.65083e-15
3.218e-15
1.88792e-15
1.1639e-15
7.62653e-16
5.34509e-16
4.13528e-16
3.35986e-16
2.99686e-16
2.99009e-16
4.05553e-16
5.84624e-16
1.26727e-14
2.15943e-14
1.43275e-13
3.78948e-11
0.000256342
0.000858115
0.00160629
0.00256099
0.00360083
0.00487285
0.00683077
0.0100307
0.0146877
0.0206975
0.0281567
0.0363973
0.0444214
0.0513565
0.0561599
0.0583243
0.0589884
0.0587741
0.0557642
0.0510236
0.0426931
0.031065
0.0167445
0.00983944
0.00566689
0.00384055
0.00293469
0.00257714
0.00245803
0.00242221
0.00241839
0.00254196
0.0027755
0.00319274
0.00379749
0.00456653
0.00535202
0.00573654
0.00598528
0.00608761
0.00611858
0.00610808
0.00597559
0.00588203
0.00583956
0.00572923
0.00553638
0.00536662
0.00524757
0.00519442
0.00512198
0.00499073
0.00490704
0.00480161
0.00473924
0.00470758
0.0046962
0.00470021
0.00477374
0.00484911
0.00486633
0.00475409
0.00457935
0.00440586
0.00411102
0.0038669
0.0036252
0.00345519
0.00330291
0.00316018
0.00290824
0.00255521
0.00216879
0.00187055
0.00154309
0.00128072
0.00106959
0.000899796
0.000763323
0.000652798
0.000563103
0.000492674
0.000448233
0.000418344
0.000389499
0.000354988
0.000320034
0.00028655
0.000256745
0.000231045
0.000209886
0.000192479
0.00017733
0.000163802
0.00015232
0.000143476
0.000136925
0.000131353
0.000125884
0.000119266
0.000109537
9.52125e-05
7.75253e-05
5.98536e-05
4.5268e-05
3.41377e-05
2.59394e-05
2.00989e-05
1.60161e-05
1.31556e-05
1.11151e-05
9.63136e-06
8.51041e-06
7.56197e-06
6.66116e-06
5.77717e-06
4.93424e-06
4.15453e-06
3.45243e-06
2.83439e-06
2.30081e-06
1.8478e-06
1.46881e-06
1.15595e-06
9.00762e-07
6.94995e-07
5.30889e-07
4.01387e-07
3.00319e-07
2.22319e-07
1.62794e-07
1.17888e-07
8.44079e-08
5.97346e-08
4.17812e-08
2.88792e-08
1.97209e-08
1.33014e-08
8.85929e-09
5.82534e-09
3.78057e-09
2.42103e-09
1.5295e-09
9.53046e-10
5.85601e-10
3.54759e-10
2.11856e-10
1.24707e-10
7.23591e-11
4.13944e-11
2.33584e-11
1.30118e-11
7.16351e-12
3.90395e-12
2.11005e-12
1.13318e-12
6.062e-13
3.24061e-13
1.73701e-13
9.36778e-14
5.09972e-14
2.81313e-14
1.57936e-14
9.062e-15
5.3795e-15
3.29854e-15
2.11792e-15
1.45913e-15
9.84915e-16
7.99971e-16
8.4101e-16
1.19941e-15
2.75617e-15
6.66847e-15
5.17318e-14
7.74729e-14
3.21212e-12
3.41927e-12
3.51579e-11
3.71031e-11
0.000270897
0.00090922
0.00171996
0.00267794
0.00372568
0.00492467
0.00626606
0.00791057
0.0107729
0.0157226
0.021962
0.0285277
0.0352104
0.0410161
0.0439942
0.0450853
0.0442128
0.0392029
0.0320602
0.0239539
0.0160452
0.0105178
0.00620647
0.00419909
0.00322586
0.00281766
0.00265488
0.00260089
0.00259387
0.00275295
0.00308579
0.00373095
0.00474425
0.00593623
0.00680206
0.00719675
0.00737315
0.00742274
0.00742564
0.00742053
0.00744674
0.00746687
0.00744318
0.0074521
0.00753254
0.0075854
0.0076054
0.00752186
0.00717334
0.00685099
0.00657147
0.00608133
0.00576787
0.00523728
0.00501974
0.00486463
0.00475964
0.00473494
0.00479882
0.00500273
0.00521535
0.00531939
0.00545841
0.00555146
0.00562971
0.00566981
0.00565052
0.00555151
0.0054677
0.00533323
0.00505797
0.00458748
0.00401147
0.00342254
0.00276185
0.00211323
0.00161099
0.00123976
0.000952355
0.000736682
0.000582327
0.000471597
0.000393427
0.000341172
0.000313973
0.000305996
0.000299638
0.000282085
0.000257741
0.000232799
0.000211092
0.000193289
0.000178142
0.000164165
0.000150661
0.000138257
0.000128678
0.000123422
0.000121267
0.00011949
0.000116875
0.000112948
0.000106605
9.60064e-05
8.00056e-05
6.14214e-05
4.46779e-05
3.18253e-05
2.24856e-05
1.60467e-05
1.17862e-05
9.03317e-06
7.24995e-06
6.07755e-06
5.29443e-06
4.71967e-06
4.20406e-06
3.68295e-06
3.16426e-06
2.66771e-06
2.20999e-06
1.80181e-06
1.44788e-06
1.14816e-06
8.9936e-07
6.96372e-07
5.33251e-07
4.03944e-07
3.02731e-07
2.24454e-07
1.6462e-07
1.19413e-07
8.56547e-08
6.07402e-08
4.25718e-08
2.94832e-08
2.01707e-08
1.36282e-08
9.09075e-09
5.98517e-09
3.888e-09
2.49115e-09
1.57376e-09
9.79886e-10
6.01081e-10
3.63104e-10
2.15914e-10
1.26325e-10
7.26871e-11
4.11129e-11
2.28465e-11
1.24679e-11
6.67928e-12
3.51156e-12
1.8118e-12
9.18033e-13
4.5728e-13
2.24279e-13
1.08605e-13
5.21931e-14
2.51605e-14
1.22617e-14
6.18977e-15
3.37807e-15
1.82771e-15
1.20385e-15
1.27876e-15
2.07764e-15
5.82931e-15
1.98943e-14
6.79999e-14
2.12032e-13
6.33614e-13
1.70648e-12
4.86384e-12
1.01383e-11
3.87714e-11
3.94653e-11
5.81094e-11
5.81884e-11
0.000261563
0.00088599
0.00165327
0.00250392
0.00338518
0.00433843
0.00541936
0.00668644
0.00842213
0.010829
0.0136231
0.0165775
0.0198169
0.0223272
0.0233977
0.0236133
0.0215547
0.0180328
0.0137548
0.00987627
0.00675572
0.00492342
0.00369371
0.00317107
0.00295786
0.00287601
0.00286249
0.00308859
0.00344418
0.00405684
0.0048765
0.00603998
0.00762238
0.00850867
0.00885601
0.00898173
0.0090201
0.00912721
0.00946557
0.0097938
0.010342
0.0110052
0.0117822
0.0127085
0.0137351
0.014672
0.0151758
0.0153352
0.0146259
0.0137365
0.0121181
0.0104992
0.00956359
0.00744753
0.00624676
0.00552145
0.00474027
0.00444585
0.00428362
0.00424017
0.00434803
0.00479355
0.00513917
0.00545174
0.00568405
0.00590464
0.00607436
0.00613698
0.00614918
0.006072
0.00582053
0.00541947
0.00498441
0.00448431
0.00392126
0.00330891
0.00268896
0.00207384
0.0015501
0.00113129
0.00083339
0.000614708
0.000449204
0.000342005
0.000282449
0.000247247
0.000229486
0.000228954
0.000233333
0.000229529
0.000212875
0.000196356
0.000181412
0.000167331
0.000153185
0.000139057
0.000125608
0.000114016
0.000105928
0.000102858
0.000102944
0.000104456
0.000105092
0.000104629
0.000101642
9.27597e-05
7.79738e-05
5.96654e-05
4.2144e-05
2.87043e-05
1.91303e-05
1.27121e-05
8.62671e-06
6.13053e-06
4.63523e-06
3.73449e-06
3.18254e-06
2.82023e-06
2.51859e-06
2.21519e-06
1.90696e-06
1.60579e-06
1.32426e-06
1.07147e-06
8.52123e-07
6.67192e-07
5.14995e-07
3.92286e-07
2.951e-07
2.19341e-07
1.61132e-07
1.17007e-07
8.39883e-08
5.95892e-08
4.17828e-08
2.89486e-08
1.98134e-08
1.33932e-08
8.93879e-09
5.88862e-09
3.82777e-09
2.45429e-09
1.55162e-09
9.6683e-10
5.93501e-10
3.58748e-10
2.13417e-10
1.24883e-10
7.18392e-11
4.06036e-11
2.25357e-11
1.22749e-11
6.55755e-12
3.4341e-12
1.76206e-12
8.85541e-13
4.35759e-13
2.0995e-13
9.90921e-14
4.58366e-14
2.08596e-14
9.38935e-15
4.29611e-15
2.03913e-15
1.40645e-15
1.4855e-15
2.08881e-15
4.12062e-15
1.01362e-14
2.66926e-14
7.27585e-14
1.93042e-13
5.161e-13
1.27124e-12
3.6275e-12
6.72726e-12
2.11243e-11
2.22262e-11
2.44513e-11
3.07046e-11
0.000232811
0.000798808
0.00148401
0.00223316
0.00297419
0.00370036
0.00440728
0.00512071
0.00609938
0.00750503
0.00901472
0.0103587
0.0116631
0.0123541
0.0125791
0.0121694
0.0105617
0.00878973
0.0067133
0.00522081
0.00414427
0.00361133
0.00330297
0.00317831
0.00313229
0.00331706
0.00355424
0.00392189
0.00452366
0.00561774
0.00731185
0.0097372
0.0105784
0.0108591
0.0109498
0.0110791
0.0116437
0.0125875
0.0140355
0.0161443
0.0192721
0.0232537
0.0279216
0.0329553
0.0375879
0.0409697
0.0425339
0.0428404
0.0395353
0.0365058
0.0310267
0.025316
0.0224416
0.0172798
0.0127032
0.0103381
0.00717338
0.00582596
0.00463495
0.00414177
0.00393752
0.00386541
0.00389871
0.00421576
0.0045747
0.00506382
0.0055401
0.00581562
0.00594011
0.00597629
0.00582306
0.00550062
0.00512534
0.00468299
0.00421026
0.0037618
0.00320631
0.0026278
0.00205676
0.0015408
0.00113172
0.000844718
0.000633387
0.000464812
0.000335948
0.000255999
0.00021392
0.000191187
0.000180769
0.000182675
0.000190916
0.000191461
0.000183435
0.000171139
0.000159118
0.000145531
0.000130581
0.000116084
0.000103398
9.34193e-05
8.72192e-05
8.54769e-05
8.64433e-05
9.06499e-05
9.35976e-05
9.42044e-05
9.32628e-05
8.81379e-05
7.32103e-05
5.37789e-05
3.6602e-05
2.38712e-05
1.51164e-05
9.46345e-06
6.00863e-06
3.9944e-06
2.85825e-06
2.22196e-06
1.86172e-06
1.64257e-06
1.46749e-06
1.2914e-06
1.11004e-06
9.30768e-07
7.6219e-07
6.10766e-07
4.79951e-07
3.70565e-07
2.81563e-07
2.10806e-07
1.55668e-07
1.13454e-07
8.16451e-08
5.80291e-08
4.07392e-08
2.82505e-08
1.93485e-08
1.3086e-08
8.7381e-09
5.75921e-09
3.74559e-09
2.40296e-09
1.52015e-09
9.47907e-10
5.82369e-10
3.52354e-10
2.0984e-10
1.22939e-10
7.08165e-11
4.00833e-11
2.22798e-11
1.21538e-11
6.5027e-12
3.41042e-12
1.75232e-12
8.81673e-13
4.34232e-13
2.09277e-13
9.87274e-14
4.55819e-14
2.06431e-14
9.22567e-15
4.12114e-15
1.8692e-15
1.16533e-15
1.19127e-15
1.61089e-15
3.07788e-15
7.41612e-15
1.90874e-14
5.07432e-14
1.29344e-13
3.28516e-13
7.59713e-13
2.1909e-12
3.50042e-12
7.49833e-12
8.39264e-12
9.07296e-12
1.14228e-11
0.000193879
0.000675767
0.0012594
0.00189758
0.00252022
0.00310942
0.0036123
0.0039843
0.00443625
0.00518946
0.00603504
0.00673287
0.00723401
0.00747202
0.00752351
0.00710415
0.00624369
0.00526148
0.00436177
0.00384324
0.00355712
0.00341632
0.0033482
0.00333235
0.00352825
0.00393597
0.00451596
0.005536
0.0070748
0.00916483
0.010753
0.0115499
0.0123757
0.0128358
0.0133883
0.0144775
0.0165572
0.0198055
0.024794
0.0324537
0.043072
0.0565126
0.0719139
0.0877041
0.101277
0.108
0.110504
0.108144
0.0980727
0.0859229
0.0728839
0.0567674
0.0474746
0.0380996
0.0279402
0.0218991
0.0142099
0.010283
0.00709499
0.00524428
0.00425051
0.0038097
0.00359363
0.00347861
0.00339999
0.00343654
0.00364688
0.00401672
0.00437645
0.00459903
0.00477012
0.00487687
0.00478451
0.00456648
0.00423254
0.00391413
0.00354304
0.00300798
0.00240113
0.0017926
0.00128475
0.000930841
0.000689834
0.000520978
0.000398701
0.000307217
0.000239924
0.000195751
0.000170796
0.000157761
0.000154032
0.000158009
0.000165108
0.000165865
0.000160768
0.000150215
0.00013889
0.000124934
0.000109526
9.5632e-05
8.46198e-05
7.70255e-05
7.3368e-05
7.30808e-05
7.55127e-05
8.1909e-05
8.56031e-05
8.64872e-05
8.567e-05
8.0639e-05
6.43629e-05
4.4328e-05
2.87654e-05
1.78821e-05
1.07728e-05
6.39843e-06
3.8451e-06
2.42264e-06
1.65857e-06
1.25422e-06
1.03941e-06
9.15193e-07
8.17127e-07
7.18151e-07
6.15382e-07
5.13136e-07
4.16818e-07
3.30538e-07
2.56491e-07
1.95183e-07
1.45925e-07
1.07345e-07
7.77854e-08
5.55704e-08
3.91624e-08
2.72355e-08
1.86949e-08
1.26665e-08
8.47055e-09
5.5902e-09
3.64009e-09
2.33802e-09
1.48081e-09
9.24498e-10
5.68711e-10
3.44556e-10
2.05494e-10
1.2058e-10
6.95745e-11
3.94516e-11
2.19713e-11
1.20104e-11
6.44029e-12
3.38568e-12
1.74396e-12
8.79739e-13
4.34429e-13
2.09931e-13
9.92846e-14
4.59721e-14
2.08502e-14
9.34607e-15
4.15216e-15
1.86093e-15
1.03996e-15
9.99116e-16
1.24158e-15
2.17525e-15
4.94271e-15
1.2209e-14
3.11901e-14
7.62145e-14
1.82512e-13
4.16442e-13
8.06792e-13
1.69331e-12
1.84441e-12
2.1806e-12
2.44045e-12
3.32181e-12
0.000151783
0.00054077
0.00101744
0.00156481
0.00209389
0.00259477
0.00305113
0.00327545
0.00343671
0.00371349
0.00411221
0.00456983
0.00483258
0.00492956
0.00494288
0.00468462
0.00438399
0.00395284
0.00367015
0.00351737
0.00345903
0.00348808
0.00361278
0.0038746
0.00443202
0.00510882
0.00595482
0.00707069
0.00873735
0.0112027
0.0142158
0.0162988
0.0170629
0.0178139
0.0197623
0.0232346
0.0284983
0.0368689
0.0504028
0.0718279
0.103901
0.138795
0.171791
0.198765
0.216803
0.225588
0.228333
0.219269
0.202606
0.172448
0.142121
0.10891
0.0820971
0.0652555
0.0526172
0.040767
0.0297825
0.0192058
0.0124432
0.00846136
0.00597909
0.00466595
0.0039223
0.00355042
0.00330138
0.00311532
0.00299802
0.00293682
0.00294048
0.00299948
0.0030947
0.00323404
0.0034332
0.00372048
0.00391124
0.00388597
0.00375842
0.00359343
0.00318363
0.00243028
0.00163987
0.00106731
0.0007238
0.000523604
0.000398438
0.000315255
0.000253532
0.00020949
0.000178211
0.000156982
0.00014461
0.000139455
0.000139357
0.000143264
0.000146673
0.000146391
0.000141041
0.000131456
0.000120181
0.000105554
9.04309e-05
7.82233e-05
6.9777e-05
6.51195e-05
6.39554e-05
6.49215e-05
7.08128e-05
7.7936e-05
8.09656e-05
8.12635e-05
7.95687e-05
7.10792e-05
5.05841e-05
3.27858e-05
2.01836e-05
1.1924e-05
6.84113e-06
3.87745e-06
2.2294e-06
1.35112e-06
8.99241e-07
6.7115e-07
5.56244e-07
4.91011e-07
4.38148e-07
3.83991e-07
3.27345e-07
2.70907e-07
2.17914e-07
1.70768e-07
1.30701e-07
9.79312e-08
7.19807e-08
5.1986e-08
3.69403e-08
2.58514e-08
1.78298e-08
1.2125e-08
8.13223e-09
5.37986e-09
3.51037e-09
2.25889e-09
1.43319e-09
8.96292e-10
5.52303e-10
3.35204e-10
2.00283e-10
1.1775e-10
6.80808e-11
3.86888e-11
2.15966e-11
1.18349e-11
6.36294e-12
3.35441e-12
1.73301e-12
8.76979e-13
4.34511e-13
2.10718e-13
1.00012e-13
4.64961e-14
2.11763e-14
9.50426e-15
4.26429e-15
1.89797e-15
9.4365e-16
7.87396e-16
9.01347e-16
1.39672e-15
2.89801e-15
6.75688e-15
1.63428e-14
3.75778e-14
9.67553e-14
1.68751e-13
3.52591e-13
4.14861e-13
4.56972e-13
5.51189e-13
6.236e-13
8.76639e-13
0.000110726
0.000413712
0.00078616
0.00122974
0.00166983
0.00210557
0.00254712
0.00282435
0.00291052
0.00296676
0.00305596
0.00319328
0.00341167
0.00357175
0.00360852
0.00354218
0.00340882
0.00327069
0.00322686
0.00325747
0.00338717
0.00355451
0.00391678
0.00452331
0.00539118
0.0064315
0.00776148
0.00958304
0.0121207
0.0152037
0.0178193
0.0189665
0.0199798
0.0214285
0.024517
0.0303188
0.0399736
0.0568979
0.0872325
0.139277
0.188669
0.235684
0.273643
0.302954
0.31975
0.327257
0.32887
0.31561
0.296876
0.266903
0.226973
0.177836
0.125032
0.0866596
0.0651238
0.051598
0.0417597
0.0317817
0.0221841
0.0143786
0.0096591
0.00698738
0.00536877
0.00442737
0.00386924
0.00346519
0.00315648
0.00295767
0.00283806
0.0027939
0.00279856
0.00277752
0.00266818
0.00257947
0.00278266
0.00325497
0.00360308
0.00371431
0.00369223
0.00347561
0.00269015
0.00158721
0.000896353
0.000545614
0.00037532
0.000284762
0.000237693
0.000206944
0.000180644
0.000159736
0.000144524
0.000134915
0.000130296
0.000129134
0.000129357
0.000129989
0.00013003
0.00012886
0.000123183
0.000114027
0.000101714
8.66787e-05
7.35626e-05
6.44182e-05
5.93076e-05
5.75968e-05
5.79577e-05
6.19182e-05
7.11652e-05
7.63329e-05
7.76387e-05
7.69955e-05
7.21411e-05
5.48553e-05
3.52768e-05
2.15117e-05
1.25264e-05
7.03203e-06
3.85276e-06
2.09687e-06
1.16536e-06
6.88774e-07
4.5238e-07
3.37719e-07
2.82344e-07
2.5062e-07
2.23765e-07
1.95595e-07
1.65848e-07
1.36182e-07
1.08445e-07
8.39581e-08
6.33652e-08
4.67374e-08
3.37642e-08
2.39342e-08
1.66718e-08
1.14245e-08
7.70784e-09
5.12286e-09
3.35522e-09
2.16581e-09
1.37787e-09
8.63829e-10
5.3355e-10
3.24572e-10
1.94385e-10
1.1456e-10
6.64055e-11
3.78386e-11
2.11826e-11
1.16435e-11
6.28045e-12
3.32242e-12
1.72282e-12
8.75248e-13
4.35465e-13
2.12121e-13
1.01154e-13
4.72419e-14
2.16485e-14
9.74667e-15
4.38344e-15
1.99622e-15
9.2064e-16
5.89026e-16
6.02999e-16
7.80541e-16
1.36988e-15
2.8453e-15
6.36922e-15
1.28026e-14
2.85193e-14
4.327e-14
4.99522e-14
6.49787e-14
7.60532e-14
1.01039e-13
1.19982e-13
1.86256e-13
7.26233e-05
0.000286717
0.000542582
0.000923757
0.00130298
0.00166171
0.00200196
0.00235034
0.00259898
0.00265085
0.0026324
0.00256697
0.00255821
0.00262972
0.00271625
0.0027712
0.00280708
0.0028398
0.00288138
0.00295846
0.00316373
0.00348875
0.0038819
0.00451262
0.00541634
0.00652761
0.00794713
0.00994053
0.0128077
0.0166659
0.0210754
0.0247865
0.0264555
0.028719
0.0344075
0.0461169
0.0678618
0.105427