/*--------------------------------*- C++ -*----------------------------------*\
  =========                 |
  \\      /  F ield         | OpenFOAM: The Open Source CFD Toolbox
   \\    /   O peration     | Website:  https://openfoam.org
    \\  /    A nd           | Version:  9
     \\/     M anipulation  |
\*---------------------------------------------------------------------------*/
FoamFile
{
    format      ascii;
    class       surfaceScalarField;
    location    "0.019";
    object      phi;
}
// * * * * * * * * * * * * * * * * * * * * * * * * * * * * * * * * * * * * * //

dimensions      [0 3 -1 0 0 0 0];

internalField   nonuniform List<scalar> 
24170
(
3.11921e-06
7.06949e-08
3.01793e-06
1.01282e-07
2.90429e-06
1.13638e-07
2.79842e-06
1.05869e-07
2.69861e-06
9.98094e-08
2.59187e-06
1.06743e-07
2.48094e-06
1.1093e-07
2.38142e-06
9.95218e-08
2.30241e-06
7.90108e-08
2.23885e-06
6.35588e-08
2.181e-06
5.78468e-08
2.11997e-06
6.10344e-08
2.05193e-06
6.80345e-08
1.97974e-06
7.21923e-08
1.89914e-06
8.06042e-08
1.81572e-06
8.34194e-08
1.72017e-06
9.55455e-08
1.28646e-07
1.59153e-06
3.48064e-06
5.53516e-08
3.46019e-06
1.21732e-07
3.4469e-06
1.26922e-07
3.43204e-06
1.20735e-07
3.4348e-06
9.70487e-08
3.44935e-06
9.21862e-08
3.45642e-06
1.03863e-07
3.44467e-06
1.11277e-07
3.41639e-06
1.07286e-07
3.38036e-06
9.9593e-08
3.34459e-06
9.36135e-08
3.31279e-06
9.28357e-08
3.28307e-06
9.77517e-08
3.25297e-06
1.02297e-07
3.21945e-06
1.14125e-07
3.17821e-06
1.24659e-07
3.13362e-06
1.40129e-07
1.70092e-07
3.09218e-06
3.64326e-06
6.57533e-08
3.68023e-06
8.47617e-08
3.70155e-06
1.05601e-07
3.71475e-06
1.07539e-07
3.72154e-06
9.02563e-08
3.72704e-06
8.66867e-08
3.73242e-06
9.84767e-08
3.73614e-06
1.07557e-07
3.73827e-06
1.05159e-07
3.74065e-06
9.72112e-08
3.74251e-06
9.17577e-08
3.74119e-06
9.41547e-08
3.73274e-06
1.06205e-07
3.71392e-06
1.21113e-07
3.68708e-06
1.40962e-07
3.65296e-06
1.58779e-07
3.61895e-06
1.74145e-07
1.90678e-07
3.59836e-06
3.94886e-06
6.62111e-08
3.99339e-06
4.02291e-08
4.0055e-06
9.34902e-08
3.99908e-06
1.1396e-07
3.9867e-06
1.02637e-07
3.97775e-06
9.56382e-08
3.97693e-06
9.92916e-08
3.98376e-06
1.00725e-07
3.99365e-06
9.52696e-08
4.00197e-06
8.88897e-08
4.00584e-06
8.78887e-08
4.0048e-06
9.51998e-08
3.9994e-06
1.11607e-07
3.98909e-06
1.31419e-07
3.97583e-06
1.54226e-07
3.9597e-06
1.7491e-07
3.9426e-06
1.91241e-07
2.04673e-07
3.9286e-06
4.22455e-06
1.39264e-07
4.19746e-06
6.73133e-08
4.2138e-06
7.71469e-08
4.23835e-06
8.94135e-08
4.26978e-06
7.12033e-08
4.29971e-06
6.57171e-08
4.31481e-06
8.41913e-08
4.30648e-06
1.09055e-07
4.2793e-06
1.22448e-07
4.24857e-06
1.19617e-07
4.22905e-06
1.07412e-07
4.22679e-06
9.74558e-08
4.23878e-06
9.96145e-08
4.25533e-06
1.1487e-07
4.26811e-06
1.41453e-07
4.27117e-06
1.71846e-07
4.26273e-06
1.99679e-07
2.20973e-07
4.24643e-06
4.56359e-06
2.81987e-08
4.57776e-06
5.31425e-08
4.56781e-06
8.7097e-08
4.56069e-06
9.65328e-08
4.56176e-06
7.01302e-08
4.57541e-06
5.207e-08
4.59553e-06
6.40756e-08
4.60441e-06
1.00165e-07
4.58888e-06
1.37983e-07
4.55236e-06
1.56133e-07
4.51084e-06
1.48935e-07
4.4807e-06
1.27598e-07
4.47032e-06
1.09987e-07
4.47752e-06
1.07678e-07
4.49443e-06
1.24543e-07
4.51149e-06
1.54779e-07
4.52071e-06
1.90464e-07
2.22964e-07
4.51872e-06
4.80908e-06
4.84586e-08
4.78053e-06
8.16958e-08
4.79629e-06
7.13391e-08
4.83966e-06
5.31562e-08
4.86999e-06
3.98063e-08
4.8755e-06
4.65535e-08
4.87256e-06
6.70235e-08
4.87537e-06
9.73469e-08
4.88318e-06
1.3018e-07
4.88727e-06
1.52043e-07
4.88087e-06
1.55334e-07
4.8643e-06
1.44162e-07
4.84381e-06
1.30477e-07
4.82706e-06
1.24432e-07
4.81909e-06
1.32515e-07
4.81991e-06
1.53958e-07
4.82637e-06
1.84002e-07
2.17053e-07
4.83228e-06
5.2057e-06
-1.31831e-08
5.20606e-06
8.13348e-08
5.21236e-06
6.5031e-08
5.22345e-06
4.2071e-08
5.22405e-06
3.92088e-08
5.21825e-06
5.2349e-08
5.21106e-06
7.42141e-08
5.206e-06
1.02411e-07
5.20341e-06
1.32768e-07
5.19925e-06
1.56197e-07
5.18838e-06
1.66204e-07
5.16949e-06
1.63055e-07
5.14695e-06
1.53014e-07
5.12746e-06
1.43931e-07
5.11706e-06
1.42911e-07
5.11801e-06
1.53011e-07
5.1296e-06
1.72407e-07
1.98725e-07
5.14793e-06
5.62185e-06
-4.21493e-08
5.58911e-06
1.14078e-07
5.58282e-06
7.13161e-08
5.58098e-06
4.39175e-08
5.5827e-06
3.74806e-08
5.59667e-06
3.83859e-08
5.61687e-06
5.40083e-08
5.62906e-06
9.02241e-08
5.62402e-06
1.37809e-07
5.60207e-06
1.78147e-07
5.57092e-06
1.97358e-07
5.53973e-06
1.9424e-07
5.51568e-06
1.77069e-07
5.50053e-06
1.59077e-07
5.49317e-06
1.5027e-07
5.49075e-06
1.55427e-07
5.49015e-06
1.73013e-07
1.98122e-07
5.49075e-06
5.9185e-06
4.16424e-08
5.91375e-06
1.18831e-07
5.90275e-06
8.23152e-08
5.88502e-06
6.1649e-08
5.89658e-06
2.59228e-08
5.93761e-06
-2.64469e-09
5.97461e-06
1.70117e-08
5.98677e-06
7.80575e-08
5.97432e-06
1.50262e-07
5.95088e-06
2.01583e-07
5.92938e-06
2.18857e-07
5.91494e-06
2.08679e-07
5.90551e-06
1.86499e-07
5.89604e-06
1.68553e-07
5.8834e-06
1.62904e-07
5.86709e-06
1.71742e-07
5.84894e-06
1.91165e-07
2.1612e-07
5.83094e-06
6.37387e-06
-1.0762e-07
6.4512e-06
4.15021e-08
6.40198e-06
1.31538e-07
6.37374e-06
8.98808e-08
6.38359e-06
1.60737e-08
6.39559e-06
-1.46389e-08
6.38605e-06
2.65505e-08
6.35787e-06
1.06239e-07
6.33425e-06
1.73875e-07
6.33033e-06
2.05505e-07
6.34537e-06
2.0382e-07
6.36771e-06
1.86338e-07
6.38385e-06
1.70359e-07
6.38531e-06
1.67093e-07
6.37085e-06
1.77362e-07
6.34511e-06
1.97481e-07
6.31545e-06
2.20831e-07
2.41979e-07
6.28959e-06
5.77563e-06
-1.61105e-07
5.81047e-06
6.66656e-09
5.86294e-06
7.90694e-08
5.89141e-06
6.14101e-08
5.85682e-06
5.06613e-08
5.78372e-06
5.84595e-08
5.72438e-06
8.58941e-08
5.70897e-06
1.21652e-07
5.73398e-06
1.48862e-07
5.77912e-06
1.60369e-07
5.82088e-06
1.62051e-07
5.84287e-06
1.64358e-07
5.84006e-06
1.73163e-07
5.81794e-06
1.89221e-07
5.78629e-06
2.09002e-07
5.75491e-06
2.28869e-07
5.73049e-06
2.45243e-07
2.57491e-07
5.71498e-06
6.83458e-06
-6.83163e-08
6.90498e-06
-6.37264e-08
7.03667e-06
-5.2624e-08
7.11642e-06
-1.83372e-08
7.1316e-06
3.54837e-08
7.10683e-06
8.32234e-08
7.0739e-06
1.18824e-07
7.05025e-06
1.453e-07
7.03596e-06
1.63159e-07
7.02194e-06
1.74381e-07
7.00138e-06
1.82618e-07
6.97519e-06
1.90542e-07
6.94941e-06
1.98949e-07
6.93126e-06
2.0737e-07
6.92481e-06
2.1545e-07
6.93098e-06
2.22698e-07
6.94749e-06
2.28737e-07
2.35e-07
6.96998e-06
8.50718e-06
-7.10605e-08
8.51285e-06
-6.93901e-08
8.49236e-06
-3.21372e-08
8.48279e-06
-8.76707e-09
8.49544e-06
2.28354e-08
8.51054e-06
6.81188e-08
8.51391e-06
1.15462e-07
8.51081e-06
1.48394e-07
8.51341e-06
1.60562e-07
8.52671e-06
1.61081e-07
8.54764e-06
1.61683e-07
8.57006e-06
1.6813e-07
8.5896e-06
1.79401e-07
8.60527e-06
1.91708e-07
8.61858e-06
2.02133e-07
8.63188e-06
2.09402e-07
8.64586e-06
2.14754e-07
2.19978e-07
8.66088e-06
1.03499e-05
2.09415e-08
1.03199e-05
-3.93428e-08
1.03769e-05
-8.91912e-08
1.04363e-05
-6.81328e-08
1.0476e-05
-1.68124e-08
1.04767e-05
6.73706e-08
1.04354e-05
1.56792e-07
1.03715e-05
2.12263e-07
1.03144e-05
2.17665e-07
1.02883e-05
1.87192e-07
1.03032e-05
1.46751e-07
1.03529e-05
1.18482e-07
1.04202e-05
1.12081e-07
1.0485e-05
1.26869e-07
1.05324e-05
1.5474e-07
1.05558e-05
1.86012e-07
1.05559e-05
2.14654e-07
2.34356e-07
1.05415e-05
1.2672e-05
6.52243e-09
1.27709e-05
-1.38242e-07
1.27955e-05
-1.13846e-07
1.27936e-05
-6.62604e-08
1.28135e-05
-3.67006e-08
1.28607e-05
2.02379e-08
1.29041e-05
1.13391e-07
1.29191e-05
1.97199e-07
1.29042e-05
2.32606e-07
1.28776e-05
2.13743e-07
1.28617e-05
1.62672e-07
1.28676e-05
1.12548e-07
1.28921e-05
8.76166e-08
1.29223e-05
9.66622e-08
1.29444e-05
1.32644e-07
1.29499e-05
1.80538e-07
1.29382e-05
2.2633e-07
2.56733e-07
1.29158e-05
1.58252e-05
6.27919e-08
1.57092e-05
-2.22914e-08
1.56566e-05
-6.12409e-08
1.56346e-05
-4.4219e-08
1.56077e-05
-9.7964e-09
1.55784e-05
4.95222e-08
1.55635e-05
1.2824e-07
1.55702e-05
1.90552e-07
1.55902e-05
2.12534e-07
1.56119e-05
1.92095e-07
1.56245e-05
1.50056e-07
1.56239e-05
1.13139e-07
1.56133e-05
9.82248e-08
1.56011e-05
1.08835e-07
1.55968e-05
1.36977e-07
1.56066e-05
1.70704e-07
1.5634e-05
1.98936e-07
2.14502e-07
1.56763e-05
1.94077e-05
8.9397e-08
1.92436e-05
1.41758e-07
1.90588e-05
1.23585e-07
1.89656e-05
4.89363e-08
1.89287e-05
2.71727e-08
1.89028e-05
7.53828e-08
1.88794e-05
1.5161e-07
1.88649e-05
2.05097e-07
1.88618e-05
2.15584e-07
1.88598e-05
1.94136e-07
1.88511e-05
1.5874e-07
1.88396e-05
1.24646e-07
1.88374e-05
1.00419e-07
1.88574e-05
8.88607e-08
1.89059e-05
8.84615e-08
1.89812e-05
9.53603e-08
1.9075e-05
1.05226e-07
1.15128e-07
1.91743e-05
2.31385e-05
2.7201e-07
2.29403e-05
3.39971e-07
2.27816e-05
2.82282e-07
2.26581e-05
1.724e-07
2.25852e-05
1.00087e-07
2.25957e-05
6.4902e-08
2.26967e-05
5.06246e-08
2.28444e-05
5.73336e-08
2.2988e-05
7.20182e-08
2.31033e-05
7.88522e-08
2.31884e-05
7.35953e-08
2.32503e-05
6.27933e-08
2.32974e-05
5.32761e-08
2.33355e-05
5.07984e-08
2.33672e-05
5.67674e-08
2.33938e-05
6.87929e-08
2.34162e-05
8.28297e-08
9.36043e-08
2.34377e-05
1.65178e-05
1.05203e-07
1.67263e-05
1.31483e-07
1.68415e-05
1.67051e-07
1.68045e-05
2.09457e-07
1.67143e-05
1.90315e-07
1.66627e-05
1.16418e-07
1.66741e-05
3.93091e-08
1.67301e-05
1.25233e-09
1.67989e-05
3.25936e-09
1.68587e-05
1.90093e-08
1.69006e-05
3.17803e-08
1.69282e-05
3.51335e-08
1.69474e-05
3.40845e-08
1.69624e-05
3.5776e-08
1.6976e-05
4.31991e-08
1.69901e-05
5.46693e-08
1.70061e-05
6.68096e-08
7.51648e-08
1.70246e-05
1.43485e-05
2.82802e-07
1.44974e-05
-1.74955e-08
1.4639e-05
2.54583e-08
1.47057e-05
1.42842e-07
1.47259e-05
1.70027e-07
1.47245e-05
1.17826e-07
1.4724e-05
3.98063e-08
1.4737e-05
-1.16653e-08
1.47579e-05
-1.77116e-08
1.47661e-05
1.08361e-08
1.4751e-05
4.68844e-08
1.47165e-05
6.95804e-08
1.46789e-05
7.17109e-08
1.46569e-05
5.78166e-08
1.46611e-05
3.90134e-08
1.46914e-05
2.43772e-08
1.47395e-05
1.86245e-08
2.18566e-08
1.47928e-05
1.25648e-05
7.82645e-08
1.26189e-05
-7.15616e-08
1.26703e-05
-2.59589e-08
1.27782e-05
3.49525e-08
1.28991e-05
4.91181e-08
1.29763e-05
4.06123e-08
1.29997e-05
1.63919e-08
1.29986e-05
-1.0523e-08
1.30015e-05
-2.06989e-08
1.30226e-05
-1.02492e-08
1.30577e-05
1.17997e-08
1.30956e-05
3.16757e-08
1.31251e-05
4.22212e-08
1.31392e-05
4.37525e-08
1.31372e-05
4.10323e-08
1.31232e-05
3.82978e-08
1.31039e-05
3.79918e-08
4.07116e-08
1.3085e-05
1.1064e-05
-3.77121e-08
1.09976e-05
-5.12583e-09
1.09603e-05
1.1314e-08
1.09923e-05
2.98743e-09
1.10389e-05
2.51915e-09
1.10654e-05
1.41324e-08
1.10615e-05
2.02733e-08
1.10421e-05
8.90721e-09
1.10344e-05
-1.30449e-08
1.10545e-05
-3.03075e-08
1.11e-05
-3.37214e-08
1.11541e-05
-2.24882e-08
1.11988e-05
-2.42237e-09
1.12244e-05
1.81645e-08
1.12315e-05
3.39049e-08
1.12274e-05
4.2414e-08
1.1221e-05
4.43863e-08
4.29081e-08
1.12188e-05
9.65682e-06
-2.41239e-07
9.76452e-06
-1.12824e-07
9.82353e-06
-4.76978e-08
9.83753e-06
-1.10098e-08
9.80166e-06
3.83878e-08
9.74528e-06
7.0512e-08
9.6998e-06
6.57476e-08
9.67089e-06
3.78231e-08
9.6501e-06
7.74493e-09
9.63158e-06
-1.1787e-08
9.62025e-06
-2.23916e-08
9.62227e-06
-2.45142e-08
9.63953e-06
-1.96742e-08
9.66871e-06
-1.1019e-08
9.70422e-06
-1.60617e-09
9.7404e-06
6.234e-09
9.77256e-06
1.22294e-08
1.69994e-08
9.79847e-06
8.39861e-06
-2.0915e-07
8.38968e-06
-1.03893e-07
8.38e-06
-3.80177e-08
8.34985e-06
1.91425e-08
8.33885e-06
4.93877e-08
8.37228e-06
3.7084e-08
8.4394e-06
-1.37414e-09
8.51053e-06
-3.33057e-08
8.56029e-06
-4.20134e-08
8.5826e-06
-3.40991e-08
8.58364e-06
-2.34353e-08
8.57528e-06
-1.61479e-08
8.56726e-06
-1.16624e-08
8.56354e-06
-7.29066e-09
8.56362e-06
-1.69249e-09
8.56448e-06
5.37523e-09
8.56442e-06
1.22893e-08
1.81227e-08
8.5633e-06
7.33254e-06
-2.73415e-07
7.29559e-06
-6.69372e-08
7.26132e-06
-3.75487e-09
7.23694e-06
4.35232e-08
7.24911e-06
3.72179e-08
7.29368e-06
-7.47787e-09
7.34488e-06
-5.25827e-08
7.38579e-06
-7.42065e-08
7.41313e-06
-6.93547e-08
7.42983e-06
-5.08065e-08
7.43929e-06
-3.28877e-08
7.44402e-06
-2.0878e-08
7.44567e-06
-1.33157e-08
7.44585e-06
-7.46861e-09
7.44636e-06
-2.20378e-09
7.44975e-06
1.98373e-09
7.45719e-06
4.84947e-09
5.80993e-09
7.4695e-06
6.28783e-06
-1.53807e-07
6.36053e-06
-1.39631e-07
6.41256e-06
-5.57943e-08
6.42919e-06
2.68939e-08
6.42486e-06
4.15484e-08
6.41446e-06
2.92798e-09
6.40615e-06
-4.42784e-08
6.39878e-06
-6.68365e-08
6.39093e-06
-6.15031e-08
6.38262e-06
-4.24909e-08
6.37533e-06
-2.56064e-08
6.37192e-06
-1.74641e-08
6.37502e-06
-1.6419e-08
6.3858e-06
-1.82408e-08
6.40378e-06
-2.01907e-08
6.4272e-06
-2.14344e-08
6.45413e-06
-2.20807e-08
-2.22837e-08
6.48223e-06
5.44296e-06
-9.12189e-08
5.45661e-06
-1.5328e-07
5.48766e-06
-8.68456e-08
5.53058e-06
-1.60213e-08
5.56517e-06
6.9554e-09
5.57859e-06
-1.04888e-08
5.57552e-06
-4.12102e-08
5.56892e-06
-6.02375e-08
5.56759e-06
-6.01741e-08
5.57289e-06
-4.7794e-08
5.58139e-06
-3.41007e-08
5.58942e-06
-2.54913e-08
5.59546e-06
-2.24603e-08
5.60075e-06
-2.35333e-08
5.60762e-06
-2.70585e-08
5.61788e-06
-3.17021e-08
5.63264e-06
-3.68344e-08
-4.06417e-08
5.651e-06
4.8827e-06
-1.01549e-07
4.83802e-06
-1.08606e-07
4.80259e-06
-5.14126e-08
4.80534e-06
-1.87751e-08
4.83187e-06
-1.95726e-08
4.86266e-06
-4.12766e-08
4.88852e-06
-6.70686e-08
4.90809e-06
-7.98145e-08
4.92172e-06
-7.37972e-08
4.92948e-06
-5.55578e-08
4.93128e-06
-3.59027e-08
4.92795e-06
-2.21583e-08
4.92146e-06
-1.59712e-08
4.91396e-06
-1.6037e-08
4.90695e-06
-2.00467e-08
4.90111e-06
-2.58589e-08
4.8965e-06
-3.2221e-08
-3.71909e-08
4.89305e-06
4.00145e-06
3.89284e-06
3.84143e-06
3.82265e-06
3.80308e-06
3.7618e-06
3.69473e-06
3.61492e-06
3.54112e-06
3.48557e-06
3.44966e-06
3.4275e-06
3.41153e-06
3.3955e-06
3.37545e-06
3.34959e-06
3.31737e-06
3.28018e-06
2.01616e-07
-2.01616e-07
4.99768e-07
-2.98152e-07
8.1545e-07
-3.15682e-07
1.13361e-06
-3.18159e-07
1.45345e-06
-3.19839e-07
1.77586e-06
-3.22409e-07
2.10056e-06
-3.24706e-07
2.42532e-06
-3.24758e-07
2.74577e-06
-3.20453e-07
3.05523e-06
-3.09462e-07
3.34485e-06
-2.89612e-07
3.60304e-06
-2.58188e-07
3.81637e-06
-2.13332e-07
3.97031e-06
-1.53943e-07
4.0507e-06
-8.03868e-08
4.04781e-06
2.88609e-09
3.94367e-06
1.04145e-07
3.73309e-06
2.1058e-07
3.41939e-06
3.13699e-07
3.01225e-06
4.07138e-07
2.53296e-06
4.79283e-07
2.03144e-06
5.0153e-07
1.60499e-06
4.26444e-07
1.37368e-06
2.3131e-07
1.2922e-06
8.14833e-08
1.18271e-06
1.09483e-07
9.48478e-07
2.34236e-07
3.59282e-07
5.89196e-07
-7.52384e-07
1.11167e-06
-1.96479e-06
1.2124e-06
-3.11294e-06
1.14815e-06
-4.2013e-06
1.08836e-06
-5.21257e-06
1.01127e-06
-6.14437e-06
9.318e-07
-6.995e-06
8.5063e-07
-7.76563e-06
7.70626e-07
-8.45879e-06
6.93164e-07
-9.07721e-06
6.18418e-07
-9.62383e-06
5.4662e-07
-1.01011e-05
4.7726e-07
-1.05111e-05
4.10001e-07
-1.08554e-05
3.44345e-07
-1.11354e-05
2.79957e-07
-1.13519e-05
2.16552e-07
-1.1506e-05
1.54073e-07
-1.15988e-05
9.27938e-08
-1.16322e-05
3.33745e-08
-1.16106e-05
-2.16034e-08
-1.15378e-05
-7.28136e-08
-1.14176e-05
-1.20189e-07
-1.12548e-05
-1.6275e-07
-1.10543e-05
-2.00572e-07
-1.08207e-05
-2.33531e-07
-1.05593e-05
-2.61382e-07
-1.02752e-05
-2.84145e-07
-9.97314e-06
-3.02062e-07
-9.65753e-06
-3.15606e-07
-9.33209e-06
-3.25437e-07
-8.99973e-06
-3.32361e-07
-8.66247e-06
-3.37266e-07
-8.32139e-06
-3.41078e-07
-7.9767e-06
-3.4469e-07
-7.62783e-06
-3.48875e-07
-7.27361e-06
-3.54212e-07
-6.91257e-06
-3.6104e-07
-6.54314e-06
-3.69435e-07
-6.16394e-06
-3.79197e-07
-5.77393e-06
-3.90013e-07
-5.37236e-06
-4.01564e-07
-4.95886e-06
-4.13504e-07
-4.53345e-06
-4.25411e-07
-4.0967e-06
-4.36748e-07
-3.64989e-06
-4.46814e-07
-3.19511e-06
-4.54773e-07
-2.73531e-06
-4.59807e-07
-2.27405e-06
-4.61261e-07
-1.8154e-06
-4.5865e-07
-1.36374e-06
-4.51658e-07
-9.23527e-07
-4.40211e-07
-4.98568e-07
-4.2496e-07
-9.23442e-08
-4.06223e-07
2.92605e-07
-3.84949e-07
6.54751e-07
-3.62146e-07
9.93022e-07
-3.38271e-07
1.30714e-06
-3.14117e-07
1.59741e-06
-2.90274e-07
1.86455e-06
-2.67138e-07
2.1095e-06
-2.44949e-07
2.33334e-06
-2.23837e-07
2.5372e-06
-2.03863e-07
2.72226e-06
-1.85057e-07
2.8897e-06
-1.67441e-07
3.04074e-06
-1.51039e-07
3.17661e-06
-1.35869e-07
3.29854e-06
-1.21937e-07
3.40777e-06
-1.09229e-07
3.50548e-06
-9.77069e-08
3.59278e-06
-8.73047e-08
3.67072e-06
-7.79388e-08
3.74023e-06
-6.95134e-08
3.80216e-06
-6.19279e-08
3.85724e-06
-5.5081e-08
3.90612e-06
-4.8877e-08
3.94934e-06
-4.32197e-08
3.98737e-06
-3.80253e-08
4.02058e-06
-3.32094e-08
4.04927e-06
-2.86921e-08
4.07369e-06
-2.44242e-08
4.09402e-06
-2.0328e-08
4.1104e-06
-1.63795e-08
4.12298e-06
-1.25799e-08
4.13182e-06
-8.83762e-09
4.13706e-06
-5.24699e-09
4.13887e-06
-1.80229e-09
4.13716e-06
1.71049e-09
4.13199e-06
5.16564e-09
4.12369e-06
8.29677e-09
4.11266e-06
1.1033e-08
4.09928e-06
1.33781e-08
4.08397e-06
1.53086e-08
4.06716e-06
1.68132e-08
4.0492e-06
1.79616e-08
4.0304e-06
1.87937e-08
4.01107e-06
1.93376e-08
3.99143e-06
1.96404e-08
3.97168e-06
1.97428e-08
3.95201e-06
1.96789e-08
3.93252e-06
1.94848e-08
3.91333e-06
1.91891e-08
3.89451e-06
1.88172e-08
3.87612e-06
1.83944e-08
3.85818e-06
1.79404e-08
3.84071e-06
1.74693e-08
3.82372e-06
1.69925e-08
3.8072e-06
1.65204e-08
3.79113e-06
1.60635e-08
3.7755e-06
1.56297e-08
3.76028e-06
1.52214e-08
3.74545e-06
1.48367e-08
3.73097e-06
1.44767e-08
3.71682e-06
1.41481e-08
3.70296e-06
1.386e-08
3.68935e-06
1.36141e-08
3.67595e-06
1.33985e-08
3.66276e-06
1.31903e-08
3.64979e-06
1.29666e-08
3.63708e-06
1.27156e-08
3.62463e-06
1.24407e-08
3.61248e-06
1.21579e-08
3.60059e-06
1.18871e-08
3.58895e-06
1.16448e-08
3.5775e-06
1.14404e-08
3.56623e-06
1.12761e-08
3.55508e-06
1.11501e-08
3.54402e-06
1.10585e-08
3.53302e-06
1.09988e-08
3.52205e-06
1.09692e-08
3.51108e-06
1.09703e-08
3.50008e-06
1.10032e-08
3.48901e-06
1.10714e-08
3.47783e-06
1.11805e-08
3.46649e-06
1.13344e-08
3.45494e-06
1.155e-08
3.44312e-06
1.18227e-08
3.43091e-06
1.22049e-08
3.41827e-06
1.2649e-08
3.40494e-06
1.33207e-08
3.39093e-06
1.40109e-08
3.3757e-06
1.5238e-08
3.35945e-06
1.6248e-08
3.34079e-06
1.86556e-08
3.32082e-06
1.99734e-08
3.29566e-06
2.51553e-08
3.26928e-06
2.63797e-08
3.23056e-06
3.87235e-08
3.19233e-06
3.82276e-08
3.12128e-06
7.10505e-08
3.0558e-06
6.54864e-08
2.88319e-06
1.72602e-07
1.75788e-07
2.70741e-06
2.30419e-07
-4.32035e-07
4.73626e-07
-5.4136e-07
7.12083e-07
-5.54139e-07
9.56654e-07
-5.62729e-07
1.212e-06
-5.75185e-07
1.4786e-06
-5.89011e-07
1.75496e-06
-6.01067e-07
2.03776e-06
-6.07553e-07
2.32204e-06
-6.04729e-07
2.60099e-06
-5.88418e-07
2.86533e-06
-5.53946e-07
3.10302e-06
-4.95883e-07
3.30048e-06
-4.10787e-07
3.445e-06
-2.98462e-07
3.52857e-06
-1.63958e-07
3.5475e-06
-1.60457e-08
3.48814e-06
1.63503e-07
3.34939e-06
3.4933e-07
3.13631e-06
5.26784e-07
2.86732e-06
6.7612e-07
2.5683e-06
7.78304e-07
2.2507e-06
8.19129e-07
1.85481e-06
8.22334e-07
1.23917e-06
8.46958e-07
2.69012e-07
1.05164e-06
-1.14473e-06
1.52322e-06
-2.73587e-06
1.82538e-06
-4.07976e-06
1.93309e-06
-4.99407e-06
2.02598e-06
-5.77427e-06
1.9926e-06
-6.53377e-06
1.90765e-06
-7.23476e-06
1.78934e-06
-7.8806e-06
1.65711e-06
-8.46872e-06
1.51993e-06
-9.00252e-06
1.38442e-06
-9.48482e-06
1.25293e-06
-9.91856e-06
1.1269e-06
-1.03062e-05
1.00609e-06
-1.06496e-05
8.90028e-07
-1.095e-05
7.7762e-07
-1.12078e-05
6.67802e-07
-1.14229e-05
5.59449e-07
-1.15947e-05
4.51797e-07
-1.17227e-05
3.44538e-07
-1.18067e-05
2.38007e-07
-1.18463e-05
1.32468e-07
-1.18402e-05
2.72156e-08
-1.17884e-05
-7.34084e-08
-1.1692e-05
-1.692e-07
-1.15525e-05
-2.59675e-07
-1.13725e-05
-3.42725e-07
-1.11563e-05
-4.16845e-07
-1.09088e-05
-4.81007e-07
-1.06353e-05
-5.34816e-07
-1.03411e-05
-5.78346e-07
-1.0031e-05
-6.1219e-07
-9.70926e-06
-6.37358e-07
-9.37945e-06
-6.55241e-07
-9.04432e-06
-6.67491e-07
-8.70566e-06
-6.75931e-07
-8.36429e-06
-6.82443e-07
-8.02014e-06
-6.88841e-07
-7.6723e-06
-6.9672e-07
-7.31924e-06
-7.07272e-07
-6.95913e-06
-7.21143e-07
-6.59014e-06
-7.38427e-07
-6.2106e-06
-7.5874e-07
-5.81921e-06
-7.81399e-07
-5.41512e-06
-8.05655e-07
-4.99779e-06
-8.30836e-07
-4.56706e-06
-8.56141e-07
-4.12336e-06
-8.80452e-07
-3.66797e-06
-9.02204e-07
-3.20312e-06
-9.19621e-07
-2.73198e-06
-9.30948e-07
-2.25839e-06
-9.34851e-07
-1.7868e-06
-9.30242e-07
-1.32188e-06
-9.16575e-07
-8.68573e-07
-8.93517e-07
-4.31092e-07
-8.6244e-07
-1.32308e-08
-8.24085e-07
3.8418e-07
-7.8236e-07
7.5754e-07
-7.35507e-07
1.10638e-06
-6.8711e-07
1.43072e-06
-6.38454e-07
1.73107e-06
-5.90623e-07
2.00831e-06
-5.44382e-07
2.26357e-06
-5.00206e-07
2.49809e-06
-4.58361e-07
2.71321e-06
-4.18979e-07
2.91027e-06
-3.82118e-07
3.09062e-06
-3.47793e-07
3.25558e-06
-3.15997e-07
3.40641e-06
-2.86704e-07
3.54434e-06
-2.59869e-07
3.67054e-06
-2.3542e-07
3.78609e-06
-2.13257e-07
3.89203e-06
-1.93248e-07
3.98933e-06
-1.75237e-07
4.07886e-06
-1.59048e-07
4.16143e-06
-1.44499e-07
4.23776e-06
-1.3141e-07
4.30849e-06
-1.19602e-07
4.37417e-06
-1.08902e-07
4.43529e-06
-9.91453e-08
4.49225e-06
-9.0171e-08
4.54539e-06
-8.18297e-08
4.59495e-06
-7.39859e-08
4.64114e-06
-6.65179e-08
4.6841e-06
-5.93364e-08
4.72389e-06
-5.23763e-08
4.76065e-06
-4.55928e-08
4.79438e-06
-3.89809e-08
4.82516e-06
-3.25838e-08
4.8533e-06
-2.64277e-08
4.879e-06
-2.05333e-08
4.90227e-06
-1.49672e-08
4.9231e-06
-9.80011e-09
4.94155e-06
-5.07017e-09
4.95764e-06
-7.88249e-10
4.97151e-06
2.9417e-09
4.98323e-06
6.25134e-09
4.99292e-06
9.09653e-09
5.00075e-06
1.15068e-08
5.00686e-06
1.3535e-08
5.01139e-06
1.52145e-08
5.01448e-06
1.65837e-08
5.01628e-06
1.76887e-08
5.0169e-06
1.85627e-08
5.01648e-06
1.92408e-08
5.01512e-06
1.97593e-08
5.01291e-06
2.01461e-08
5.00996e-06
2.04245e-08
5.00633e-06
2.06155e-08
5.00212e-06
2.07372e-08
4.99737e-06
2.08065e-08
4.99216e-06
2.0838e-08
4.98654e-06
2.08406e-08
4.98056e-06
2.08195e-08
4.97426e-06
2.07811e-08
4.96767e-06
2.07358e-08
4.96084e-06
2.06943e-08
4.95379e-06
2.06607e-08
4.94656e-06
2.06266e-08
4.93918e-06
2.05749e-08
4.93165e-06
2.04891e-08
4.92401e-06
2.03627e-08
4.91625e-06
2.02022e-08
4.90838e-06
2.00225e-08
4.90043e-06
1.98398e-08
4.89241e-06
1.9667e-08
4.88433e-06
1.95126e-08
4.87623e-06
1.93835e-08
4.86809e-06
1.92876e-08
4.85991e-06
1.92337e-08
4.85168e-06
1.92301e-08
4.84337e-06
1.92843e-08
4.83494e-06
1.93993e-08
4.82636e-06
1.95804e-08
4.81761e-06
1.98243e-08
4.80864e-06
2.01445e-08
4.79945e-06
2.05312e-08
4.78997e-06
2.1027e-08
4.78019e-06
2.15982e-08
4.77004e-06
2.23637e-08
4.75948e-06
2.32021e-08
4.74837e-06
2.44384e-08
4.7367e-06
2.56752e-08
4.72413e-06
2.78074e-08
4.71077e-06
2.96045e-08
4.69585e-06
3.35769e-08
4.67975e-06
3.60809e-08
4.66075e-06
4.415e-08
4.63979e-06
4.73388e-08
4.61318e-06
6.53395e-08
4.58234e-06
6.90619e-08
4.53941e-06
1.13984e-07
4.48341e-06
1.2149e-07
4.40723e-06
2.48779e-07
2.8763e-07
4.29539e-06
1.71583e-07
-6.03618e-07
3.14157e-07
-6.83933e-07
4.59882e-07
-6.99865e-07
6.17918e-07
-7.20764e-07
7.89143e-07
-7.46411e-07
9.72407e-07
-7.72275e-07
1.16607e-06
-7.94733e-07
1.36749e-06
-8.08966e-07
1.57251e-06
-8.09751e-07
1.77534e-06
-7.91254e-07
1.96725e-06
-7.45854e-07
2.13609e-06
-6.6472e-07
2.26836e-06
-5.43054e-07
2.3527e-06
-3.82809e-07
2.38021e-06
-1.91468e-07
2.3395e-06
2.46616e-08
2.22112e-06
2.81889e-07
2.02386e-06
5.46586e-07
1.74027e-06
8.10377e-07
1.35366e-06
1.06273e-06
8.30169e-07
1.3018e-06
9.92442e-08
1.55005e-06
-9.29123e-07
1.8507e-06
-2.23328e-06
2.15112e-06
-3.56628e-06
2.38464e-06
-4.59368e-06
2.55063e-06
-5.38986e-06
2.62155e-06
-6.07644e-06
2.61967e-06
-6.61152e-06
2.56105e-06
-7.07284e-06
2.45392e-06
-7.49875e-06
2.33356e-06
-7.90717e-06
2.19776e-06
-8.30683e-06
2.05678e-06
-8.69722e-06
1.91031e-06
-9.07623e-06
1.76344e-06
-9.44015e-06
1.61684e-06
-9.7853e-06
1.47205e-06
-1.01081e-05
1.32892e-06
-1.04052e-05
1.18712e-06
-1.06732e-05
1.04562e-06
-1.09087e-05
9.03272e-07
-1.11082e-05
7.59008e-07
-1.12686e-05
6.12202e-07
-1.13869e-05
4.62807e-07
-1.14605e-05
3.11587e-07
-1.14878e-05
1.59726e-07
-1.14667e-05
6.16444e-09
-1.1401e-05
-1.39152e-07
-1.12889e-05
-2.81297e-07
-1.11338e-05
-4.14708e-07
-1.09405e-05
-5.36085e-07
-1.07139e-05
-6.43376e-07
-1.04599e-05
-7.35066e-07
-1.01842e-05
-8.10528e-07
-9.89258e-06
-8.69931e-07
-9.59046e-06
-9.14312e-07
-9.28236e-06
-9.45457e-07
-8.97183e-06
-9.65775e-07
-8.66124e-06
-9.7808e-07
-8.35177e-06
-9.854e-07
-8.04344e-06
-9.90778e-07
-7.73521e-06
-9.97072e-07
-7.42515e-06
-1.00678e-06
-7.11051e-06
-1.02191e-06
-6.78811e-06
-1.04354e-06
-6.45482e-06
-1.07172e-06
-6.10787e-06
-1.10569e-06
-5.74504e-06
-1.14423e-06
-5.36474e-06
-1.18596e-06
-4.96594e-06
-1.22964e-06
-4.54831e-06
-1.27377e-06
-4.11236e-06
-1.3164e-06
-3.65996e-06
-1.3546e-06
-3.19391e-06
-1.38567e-06
-2.71814e-06
-1.40672e-06
-2.2374e-06
-1.41559e-06
-1.75707e-06
-1.41057e-06
-1.28299e-06
-1.39066e-06
-8.20815e-07
-1.3557e-06
-3.75647e-07
-1.30761e-06
4.84214e-08
-1.24815e-06
4.48372e-07
-1.18231e-06
8.23299e-07
-1.11043e-06
1.17254e-06
-1.03635e-06
1.49635e-06
-9.62261e-07
1.79543e-06
-8.89709e-07
2.0707e-06
-8.19644e-07
2.32307e-06
-7.5258e-07
2.55352e-06
-6.88809e-07
2.76312e-06
-6.28578e-07
2.95316e-06
-5.72164e-07
3.12523e-06
-5.1986e-07
3.28112e-06
-4.71885e-07
3.42271e-06
-4.28301e-07
3.55184e-06
-3.88989e-07
3.67009e-06
-3.53678e-07
3.77884e-06
-3.22005e-07
3.87918e-06
-2.93582e-07
3.97198e-06
-2.68044e-07
4.058e-06
-2.45065e-07
4.13787e-06
-2.24367e-07
4.21216e-06
-2.05704e-07
4.28141e-06
-1.88851e-07
4.3461e-06
-1.73592e-07
4.40667e-06
-1.59714e-07
4.4635e-06
-1.47e-07
4.51691e-06
-1.35241e-07
4.56716e-06
-1.24234e-07
4.61444e-06
-1.13799e-07
4.65889e-06
-1.0379e-07
4.70061e-06
-9.40955e-08
4.73967e-06
-8.46547e-08
4.77613e-06
-7.54409e-08
4.81001e-06
-6.64614e-08
4.84135e-06
-5.7769e-08
4.87023e-06
-4.94154e-08
4.89673e-06
-4.14634e-08
4.92092e-06
-3.39915e-08
4.9429e-06
-2.705e-08
4.96281e-06
-2.06931e-08
4.98071e-06
-1.49641e-08
4.99676e-06
-9.79795e-09
5.01105e-06
-5.19122e-09
5.02369e-06
-1.12896e-09
5.03476e-06
2.46152e-09
5.04438e-06
5.59379e-09
5.05264e-06
8.32502e-09
5.05962e-06
1.07052e-08
5.06542e-06
1.27645e-08
5.07011e-06
1.45494e-08
5.07377e-06
1.61001e-08
5.07647e-06
1.74459e-08
5.07828e-06
1.8616e-08
5.07926e-06
1.96356e-08
5.07947e-06
2.05256e-08
5.07897e-06
2.13059e-08
5.07782e-06
2.19942e-08
5.07605e-06
2.26038e-08
5.07373e-06
2.31439e-08
5.07089e-06
2.36234e-08
5.06757e-06
2.40533e-08
5.06382e-06
2.44452e-08
5.05967e-06
2.48055e-08
5.05517e-06
2.51317e-08
5.05033e-06
2.5414e-08
5.04517e-06
2.56425e-08
5.03972e-06
2.5815e-08
5.03398e-06
2.59398e-08
5.02798e-06
2.60312e-08
5.02171e-06
2.61035e-08
5.01521e-06
2.61677e-08
5.00849e-06
2.62308e-08
5.00158e-06
2.63001e-08
4.99448e-06
2.6385e-08
4.98721e-06
2.64989e-08
4.97979e-06
2.66544e-08
4.97221e-06
2.68666e-08
4.96447e-06
2.71411e-08
4.95655e-06
2.74913e-08
4.94847e-06
2.79124e-08
4.94018e-06
2.8429e-08
4.93169e-06
2.90234e-08
4.92296e-06
2.97603e-08
4.91397e-06
3.05872e-08
4.90466e-06
3.16674e-08
4.89502e-06
3.28416e-08
4.88495e-06
3.45169e-08
4.87439e-06
3.62308e-08
4.86319e-06
3.9007e-08
4.85124e-06
4.15552e-08
4.83833e-06
4.64895e-08
4.82407e-06
5.03342e-08
4.80844e-06
5.97859e-08
4.79e-06
6.57751e-08
4.7699e-06
8.54447e-08
4.74295e-06
9.60119e-08
4.71594e-06
1.40988e-07
4.67159e-06
1.65841e-07
4.64189e-06
2.78483e-07
3.52901e-07
4.57662e-06
6.70699e-08
-6.70688e-07
1.08198e-07
-7.25061e-07
1.54841e-07
-7.46507e-07
2.0592e-07
-7.71843e-07
2.5986e-07
-8.00351e-07
3.14822e-07
-8.27237e-07
3.6978e-07
-8.4969e-07
4.2234e-07
-8.61526e-07
4.68281e-07
-8.55691e-07
5.02537e-07
-8.2551e-07
5.1907e-07
-7.62388e-07
5.10268e-07
-6.55918e-07
4.65579e-07
-4.98365e-07
3.70834e-07
-2.88063e-07
2.06354e-07
-2.6988e-08
-3.53289e-08
2.66344e-07
-3.47064e-07
5.93624e-07
-7.47897e-07
9.47419e-07
-1.25455e-06
1.31703e-06
-1.88404e-06
1.69221e-06
-2.64002e-06
2.05778e-06
-3.4847e-06
2.39474e-06
-4.31431e-06
2.68031e-06
-5.05092e-06
2.88772e-06
-5.66143e-06
2.99515e-06
-6.12707e-06
3.01627e-06
-6.49235e-06
2.98683e-06
-6.80658e-06
2.93391e-06
-7.09602e-06
2.85049e-06
-7.3848e-06
2.7427e-06
-7.67249e-06
2.62124e-06
-7.96245e-06
2.48773e-06
-8.253e-06
2.34733e-06
-8.54237e-06
2.19968e-06
-8.8274e-06
2.04847e-06
-9.10554e-06
1.89498e-06
-9.37452e-06
1.74104e-06
-9.63225e-06
1.58664e-06
-9.87618e-06
1.43105e-06
-1.0103e-05
1.27245e-06
-1.03083e-05
1.10861e-06
-1.04872e-05
9.37901e-07
-1.06346e-05
7.59527e-07
-1.07448e-05
5.73042e-07
-1.08125e-05
3.79269e-07
-1.08339e-05
1.81157e-07
-1.08128e-05
-1.49382e-08
-1.07328e-05
-2.19119e-07
-1.06024e-05
-4.11712e-07
-1.0426e-05
-5.91176e-07
-1.02081e-05
-7.53906e-07
-9.95513e-06
-8.96375e-07
-9.67404e-06
-1.01616e-06
-9.37265e-06
-1.11192e-06
-9.05892e-06
-1.18366e-06
-8.74064e-06
-1.23259e-06
-8.42496e-06
-1.26113e-06
-8.11792e-06
-1.27282e-06
-7.8239e-06
-1.2721e-06
-7.5453e-06
-1.264e-06
-7.28229e-06
-1.25379e-06
-7.03294e-06
-1.24642e-06
-6.79356e-06
-1.24615e-06
-6.55836e-06
-1.25711e-06
-6.32034e-06
-1.28157e-06
-6.07254e-06
-1.31951e-06
-5.80866e-06
-1.36957e-06
-5.52269e-06
-1.4302e-06
-5.20961e-06
-1.49904e-06
-4.86624e-06
-1.57301e-06
-4.49151e-06
-1.6485e-06
-4.08651e-06
-1.72141e-06
-3.65356e-06
-1.78755e-06
-3.19643e-06
-1.84281e-06
-2.72029e-06
-1.88286e-06
-2.23158e-06
-1.9043e-06
-1.73771e-06
-1.90444e-06
-1.24701e-06
-1.88135e-06
-7.68107e-07
-1.8346e-06
-3.08436e-07
-1.76728e-06
1.26885e-07
-1.68347e-06
5.33445e-07
-1.58887e-06
9.10997e-07
-1.48799e-06
1.26017e-06
-1.38552e-06
1.58271e-06
-1.2848e-06
1.88076e-06
-1.18776e-06
2.15631e-06
-1.09519e-06
2.41085e-06
-1.00713e-06
2.6452e-06
-9.23154e-07
2.8595e-06
-8.42882e-07
3.05361e-06
-7.66268e-07
3.22754e-06
-6.93788e-07
3.38197e-06
-6.26324e-07
3.51851e-06
-5.64831e-07
3.63948e-06
-5.0996e-07
3.74762e-06
-4.6182e-07
3.84558e-06
-4.19972e-07
3.9356e-06
-3.83603e-07
4.01932e-06
-3.51761e-07
4.09782e-06
-3.23562e-07
4.17175e-06
-2.98297e-07
4.2415e-06
-2.75453e-07
4.30732e-06
-2.54676e-07
4.36944e-06
-2.35705e-07
4.42804e-06
-2.18319e-07
4.48334e-06
-2.02302e-07
4.53553e-06
-1.87428e-07
4.58476e-06
-1.73468e-07
4.63117e-06
-1.60204e-07
4.67483e-06
-1.47449e-07
4.7158e-06
-1.35064e-07
4.75411e-06
-1.22964e-07
4.78978e-06
-1.11115e-07
4.82285e-06
-9.95331e-08
4.85337e-06
-8.82839e-08
4.88139e-06
-7.74428e-08
4.90702e-06
-6.70865e-08
4.93033e-06
-5.73029e-08
4.95145e-06
-4.81677e-08
4.97048e-06
-3.97231e-08
4.98752e-06
-3.20036e-08
5.00271e-06
-2.49965e-08
5.0162e-06
-1.8675e-08
5.02808e-06
-1.30067e-08
5.03848e-06
-7.94269e-09
5.04752e-06
-3.4422e-09
5.05528e-06
5.57592e-10
5.06186e-06
4.12448e-09
5.06735e-06
7.27513e-09
5.07182e-06
1.00805e-08
5.07534e-06
1.25807e-08
5.07798e-06
1.4809e-08
5.07979e-06
1.68023e-08