/*--------------------------------*- C++ -*----------------------------------*\
  =========                 |
  \\      /  F ield         | OpenFOAM: The Open Source CFD Toolbox
   \\    /   O peration     | Website:  https://openfoam.org
    \\  /    A nd           | Version:  9
     \\/     M anipulation  |
\*---------------------------------------------------------------------------*/
FoamFile
{
    format      ascii;
    class       volScalarField;
    location    "0.019";
    object      pMean;
}
// * * * * * * * * * * * * * * * * * * * * * * * * * * * * * * * * * * * * * //

dimensions      [0 2 -2 0 0 0 0];

internalField   nonuniform List<scalar> 
12225
(
-4.55687
-5.13701
-5.45488
-5.58758
-5.6591
-5.72378
-5.78943
-5.8493
-5.89887
-5.93688
-5.96505
-5.9812
-5.98802
-5.97637
-5.95578
-5.90729
-5.86604
-5.81781
-4.798
-5.1679
-5.45619
-5.59661
-5.66985
-5.73275
-5.79721
-5.85685
-5.90677
-5.94519
-5.97401
-5.99123
-5.99938
-5.99108
-5.9734
-5.93535
-5.90681
-5.91797
-4.82597
-5.17084
-5.44845
-5.59858
-5.67676
-5.73868
-5.80165
-5.86135
-5.91232
-5.9524
-5.98266
-6.00246
-6.01272
-6.0108
-5.99901
-5.98097
-5.97274
-6.00566
-5.00094
-5.21983
-5.45559
-5.60858
-5.69177
-5.75223
-5.81264
-5.87153
-5.92319
-5.96448
-5.99634
-6.01858
-6.03239
-6.03686
-6.03482
-6.03198
-6.03871
-6.0711
-5.10681
-5.25776
-5.45894
-5.61196
-5.70124
-5.7627
-5.82124
-5.87936
-5.93178
-5.97494
-6.009
-6.03458
-6.05267
-6.06406
-6.07131
-6.0799
-6.09617
-6.12805
-5.17237
-5.299
-5.47197
-5.61811
-5.71286
-5.77713
-5.83465
-5.89173
-5.9447
-5.98975
-6.02643
-6.0557
-6.07875
-6.09712
-6.11313
-6.13115
-6.15554
-6.19127
-5.2774
-5.36603
-5.50348
-5.63345
-5.72741
-5.79364
-5.85053
-5.90604
-5.95864
-6.00515
-6.04462
-6.07783
-6.10608
-6.13124
-6.15558
-6.18244
-6.21509
-6.25671
-5.29958
-5.38891
-5.515
-5.63831
-5.73478
-5.80569
-5.86451
-5.9205
-5.97443
-6.02352
-6.06662
-6.10439
-6.1384
-6.17051
-6.20294
-6.23828
-6.27936
-6.3282
-5.45054
-5.47805
-5.56172
-5.66565
-5.75687
-5.827
-5.88553
-5.94039
-5.99346
-6.04349
-6.08943
-6.13155
-6.17101
-6.20964
-6.24967
-6.29317
-6.34256
-6.39913
-5.40967
-5.48668
-5.57547
-5.6728
-5.76337
-5.83844
-5.90078
-5.95752
-6.01213
-6.06463
-6.11431
-6.1611
-6.20617
-6.25122
-6.29844
-6.34966
-6.40687
-6.47129
-5.53661
-5.56497
-5.63154
-5.71411
-5.79412
-5.86341
-5.92431
-5.98142
-6.03676
-6.09077
-6.14321
-6.19405
-6.24421
-6.29538
-6.34941
-6.40799
-6.47268
-6.54496
-5.6274
-5.59233
-5.6383
-5.72333
-5.80673
-5.87865
-5.94239
-6.00148
-6.05845
-6.11465
-6.17023
-6.22518
-6.28022
-6.33686
-6.39683
-6.46165
-6.53281
-6.61157
-5.61066
-5.64105
-5.69578
-5.76565
-5.83565
-5.90233
-5.96564
-6.02565
-6.08365
-6.14126
-6.19927
-6.2579
-6.31756
-6.37936
-6.44474
-6.51517
-6.59201
-6.67651
-5.55807
-5.64586
-5.72214
-5.78733
-5.85173
-5.91913
-5.98615
-6.04946
-6.11014
-6.17073
-6.2322
-6.29475
-6.35904
-6.42612
-6.49716
-6.5734
-6.6559
-6.74572
-5.74947
-5.75206
-5.77759
-5.8304
-5.89489
-5.96114
-6.02518
-6.08628
-6.14691
-6.20907
-6.27322
-6.33936
-6.408
-6.47996
-6.55615
-6.63734
-6.72451
-6.81827
-5.72621
-5.75883
-5.80698
-5.86179
-5.92004
-5.98335
-6.04961
-6.11578
-6.18145
-6.2478
-6.31565
-6.38558
-6.45827
-6.53426
-6.61432
-6.69914
-6.78944
-6.8856
-5.75886
-5.81807
-5.8778
-5.92983
-5.98164
-6.03863
-6.09974
-6.16288
-6.22789
-6.29511
-6.36461
-6.43651
-6.5113
-6.58957
-6.67173
-6.75796
-6.84869
-6.944
-5.95024
-5.92147
-5.91982
-5.949
-6.00163
-6.06496
-6.12979
-6.19461
-6.26082
-6.3293
-6.40025
-6.47381
-6.55008
-6.6291
-6.71105
-6.79608
-6.88436
-6.97583
-5.87463
-5.91307
-5.95659
-6.00138
-6.05397
-6.11353
-6.17463
-6.23708
-6.30278
-6.37117
-6.44109
-6.51255
-6.586
-6.66145
-6.73873
-6.81768
-6.89836
-6.98061
-5.89449
-5.91831
-5.95658
-6.0022
-6.05321
-6.11225
-6.17694
-6.24304
-6.30923
-6.37638
-6.44507
-6.51488
-6.58551
-6.65685
-6.72887
-6.80146
-6.87456
-6.948
-5.93599
-5.94623
-5.97686
-6.02482
-6.07943
-6.13833
-6.20027
-6.26272
-6.32609
-6.39105
-6.45675
-6.52271
-6.589
-6.65555
-6.72212
-6.78845
-6.85428
-6.91947
-5.96242
-5.91814
-5.93092
-5.98753
-6.05514
-6.12057
-6.18379
-6.24716
-6.31203
-6.37807
-6.44419
-6.50961
-6.57417
-6.638
-6.70105
-6.76317
-6.82426
-6.88432
-5.90134
-5.9121
-5.94666
-6.00214
-6.06734
-6.13248
-6.19489
-6.25643
-6.3189
-6.38224
-6.44534
-6.50754
-6.56874
-6.62902
-6.68816
-6.74582
-6.80165
-6.8554
-5.75536
-5.80641
-5.88113
-5.96156
-6.03905
-6.10946
-6.17454
-6.23833
-6.30305
-6.36834
-6.43259
-6.49484
-6.55504
-6.61343
-6.67014
-6.7251
-6.77806
-6.82889
-5.79255
-5.81291
-5.88417
-5.97156
-6.04944
-6.11562
-6.17757
-6.2402
-6.30403
-6.36771
-6.43001
-6.49022
-6.54836
-6.60464
-6.65907
-6.71146
-6.76141
-6.8087
-5.61518
-5.71394
-5.83604
-5.94643
-6.03043
-6.09728
-6.16131
-6.22743
-6.29412
-6.35915
-6.42158
-6.48127
-6.53848
-6.59356
-6.64658
-6.69727
-6.74534
-6.79049
-5.55537
-5.69141
-5.84178
-5.9568
-6.03488
-6.09726
-6.15999
-6.22642
-6.293
-6.35696
-6.41794
-6.47634
-6.53251
-6.58655
-6.63843
-6.68785
-6.73443
-6.7778
-5.46087
-5.64017
-5.82084
-5.94429
-6.02159
-6.08418
-6.14972
-6.21891
-6.28691
-6.35119
-6.41193
-6.46987
-6.52545
-6.57877
-6.62978
-6.6782
-6.72372
-6.76621
-5.3723
-5.62096
-5.82454
-5.94621
-6.01908
-6.08089
-6.14732
-6.21704
-6.28493
-6.34868
-6.40874
-6.46603
-6.52109
-6.57394
-6.62448
-6.67221
-6.71687
-6.75796
-5.26465
-5.5967
-5.8244
-5.94204
-6.01194
-6.07466
-6.14258
-6.21306
-6.28106
-6.34459
-6.4043
-6.46121
-6.51592
-6.56844
-6.61871
-6.66603
-6.71018
-6.74998
-7.00498
-7.02761
-7.09523
-7.20219
-7.34784
-7.53214
-7.7552
-8.01673
-8.31543
-8.64829
-9.00979
-9.39146
-9.78174
-10.1664
-10.5297
-10.8561
-11.1335
-11.3548
-11.5193
-11.6352
-11.7182
-11.7879
-11.8623
-11.9562
-12.0841
-12.2592
-12.4883
-12.7918
-13.2362
-13.9575
-14.9648
-16.2079
-17.6197
-19.1356
-20.6934
-22.2358
-23.7099
-25.0669
-26.2621
-27.2548
-28.0091
-28.4942
-28.686
-28.5687
-28.1357
-27.3879
-26.3336
-24.9908
-23.3889
-21.5651
-19.5598
-17.4147
-15.17
-12.8641
-10.5315
-8.20255
-5.90355
-3.65653
-1.47975
0.612296
2.60854
4.50177
6.28839
7.9681
9.54308
11.0167
12.3919
13.6708
14.8535
15.9382
16.9225
17.8037
18.5804
19.2531
19.8242
20.2978
20.68
20.978
21.2001
21.3549
21.4511
21.4972
21.5019
21.472
21.4143
21.3343
21.2372
21.1272
21.0078
20.8821
20.7526
20.6212
20.4896
20.3591
20.2308
20.1054
19.9835
19.8656
19.7519
19.6426
19.538
19.4379
19.3424
19.2515
19.165
19.0828
19.0049
18.931
18.8611
18.7949
18.7324
18.6733
18.6175
18.5647
18.5149
18.4679
18.4236
18.3818
18.3424
18.3054
18.2705
18.2377
18.2068
18.1778
18.1506
18.1249
18.1008
18.078
18.0566
18.0365
18.0174
17.9995
17.9825
17.9664
17.9512
17.9367
17.923
17.9099
17.8974
17.8854
17.874
17.863
17.8525
17.8424
17.8326
17.8231
17.814
17.8052
17.7966
17.7882
17.7801
17.7722
17.7645
17.757
17.7498
17.7427
17.7358
17.7292
17.7229
17.7169
17.7113
17.7062
17.7017
17.698
17.6951
17.6936
17.6935
17.6955
17.6999
17.708
17.7203
17.7391
17.7651
17.8038
17.856
17.9348
18.0417
18.2122
18.4506
18.8442
-7.00819
-7.04034
-7.11141
-7.21952
-7.36571
-7.55125
-7.77757
-8.04547
-8.35462
-8.7028
-9.08502
-9.49279
-9.91421
-10.3349
-10.7389
-11.1093
-11.4281
-11.6769
-11.8491
-11.9513
-12.0056
-12.0448
-12.104
-12.2088
-12.3832
-12.6977
-13.1854
-13.7364
-14.3654
-15.2044
-16.283
-17.5595
-18.9788
-20.482
-22.0135
-23.5209
-24.9557
-26.2723
-27.4277
-28.3813
-29.0963
-29.5403
-29.687
-29.5179
-29.0236
-28.206
-27.0801
-25.6718
-24.0105
-22.1306
-20.0712
-17.8741
-15.5809
-13.2309
-10.8594
-8.49677
-6.16901
-3.89761
-1.70017
0.409131
2.41941
4.32342
6.11771
7.80235
9.38042
10.8563
12.2344
13.5177
14.7069
15.8003
16.7949
17.6872
18.4751
19.1585
19.7395
20.2222
20.6124
20.9174
21.1456
21.3057
21.4065
21.4566
21.4648
21.4381
21.3832
21.3058
21.2109
21.103
20.9855
20.8616
20.7336
20.6037
20.4734
20.3442
20.217
20.0926
19.9717
19.8546
19.7418
19.6333
19.5293
19.4299
19.335
19.2446
19.1586
19.0769
18.9994
18.9259
18.8563
18.7904
18.728
18.6691
18.6135
18.5609
18.5113
18.4645
18.4204
18.3789
18.3398
18.303
18.2684
18.2358
18.2051
18.1763
18.1492
18.1237
18.0996
18.077
18.0557
18.0357
18.0167
17.9988
17.9819
17.9659
17.9507
17.9363
17.9225
17.9095
17.897
17.8851
17.8737
17.8628
17.8522
17.8421
17.8323
17.8229
17.8138
17.8049
17.7964
17.788
17.7799
17.772
17.7643
17.7568
17.7495
17.7424
17.7356
17.729
17.7226
17.7166
17.711
17.7058
17.7012
17.6974
17.6945
17.6928
17.6926
17.6943
17.6985
17.7061
17.718
17.7358
17.7612
17.7975
17.8486
17.9205
18.0237
18.1662
18.3678
18.5854
-6.9543
-6.98893
-7.05948
-7.16503
-7.30824
-7.49118
-7.71646
-7.98603
-8.30085
-8.66017
-9.06054
-9.49428
-9.94863
-10.4072
-10.851
-11.2618
-11.6222
-11.9197
-12.1528
-12.3295
-12.4693
-12.61
-12.8034
-13.0898
-13.4614
-13.927
-14.5273
-15.2681
-16.1394
-17.1545
-18.3136
-19.6016
-20.9916
-22.4475
-23.929
-25.3927
-26.7936
-28.0862
-29.2249
-30.166
-30.8682
-31.2946
-31.4143
-31.2045
-30.6541
-29.7665
-28.5595
-27.0563
-25.288
-23.2947
-21.1212
-18.8144
-16.4195
-13.9783
-11.527
-9.09611
-6.71064
-4.39052
-2.15182
-0.00765404
2.03143
3.95797
5.76835
7.46326
9.04718
10.5268
11.9093
13.1999
14.4009
15.5112
16.5266
17.4419
18.2533
18.9593
19.5611
20.0627
20.4697
20.7896
21.0307
21.2019
21.3123
21.371
21.3865
21.3663
21.3171
21.2449
21.1548
21.0512
20.9378
20.8174
20.6928
20.5659
20.4385
20.3119
20.1871
20.0649
19.9461
19.8309
19.7198
19.613
19.5106
19.4126
19.319
19.2298
19.145
19.0643
18.9878
18.9152
18.8464
18.7813
18.7197
18.6615
18.6065
18.5545
18.5055
18.4593
18.4158
18.3747
18.336
18.2995
18.2652
18.2329
18.2026
18.174
18.1471
18.1218
18.098
18.0755
18.0544
18.0345
18.0156
17.9979
17.981
17.9651
17.95
17.9357
17.922
17.909
17.8966
17.8847
17.8734
17.8625
17.852
17.8419
17.8322
17.8227
17.8136
17.8048
17.7962
17.7879
17.7798
17.7719
17.7642
17.7567
17.7494
17.7423
17.7354
17.7287
17.7224
17.7163
17.7106
17.7054
17.7007
17.6967
17.6937
17.6917
17.6912
17.6926
17.6964
17.7033
17.7143
17.7307
17.7546
17.7879
17.8353
17.8991
17.9898
18.1031
18.2555
18.3842
-6.85601
-6.88741
-6.95238
-7.05049
-7.18475
-7.35724
-7.57084
-7.82795
-8.13019
-8.47772
-8.8679
-9.29441
-9.7469
-10.2126
-10.6764
-11.1224
-11.5309
-11.8956
-12.2204
-12.5192
-12.8148
-13.1364
-13.516
-13.9833
-14.5551
-15.2381
-16.0397
-16.9651
-18.0165
-19.1918
-20.4808
-21.8685
-23.3329
-24.8456
-26.3726
-27.8759
-29.3137
-30.6415
-31.812
-32.7765
-33.4877
-33.9034
-33.9913
-33.73
-33.109
-32.1287
-30.7994
-29.1445
-27.2053
-25.0323
-22.68
-20.2031
-17.6528
-15.0741
-12.5047
-9.97457
-7.50638
-5.1172
-2.81988
-0.625287
1.45666
3.41757
5.25269
6.96263
8.5536
10.0357
11.4206
12.7181
13.9338
15.0675
16.1136
17.0641
17.9118
18.6528
19.2872
19.8183
20.2518
20.5949
20.8563
21.0452
21.1706
21.2425
21.2694
21.2591
21.2189
21.1548
21.0721
20.9751
20.8677
20.753
20.6334
20.5111
20.3879
20.2652
20.144
20.0251
19.9093
19.797
19.6886
19.5842
19.484
19.3881
19.2964
19.209
19.1258
19.0467
18.9716
18.9003
18.8327
18.7687
18.7081
18.6508
18.5967
18.5456
18.4973
18.4517
18.4088
18.3683
18.3301
18.2942
18.2603
18.2285
18.1985
18.1703
18.1438
18.1188
18.0953
18.0731
18.0522
18.0325
18.0138
17.9962
17.9796
17.9638
17.9488
17.9346
17.921
17.9081
17.8958
17.884
17.8727
17.8619
17.8515
17.8414
17.8317
17.8223
17.8133
17.8045
17.7959
17.7876
17.7795
17.7716
17.7639
17.7564
17.7491
17.742
17.735
17.7283
17.7219
17.7158
17.71
17.7047
17.6999
17.6957
17.6925
17.6902
17.6894
17.6902
17.6934
17.6994
17.7093
17.724
17.7457
17.7754
17.8175
17.8725
17.9479
18.0361
18.1437
18.2134
-6.74274
-6.76958
-6.82693
-6.91417
-7.03366
-7.18746
-7.37815
-7.60812
-7.87939
-8.193
-8.54788
-8.93938
-9.3595
-9.79877
-10.2482
-10.7015
-11.1523
-11.5984
-12.0441
-12.5003
-12.9849
-13.5192
-14.1249
-14.8212
-15.6222
-16.5352
-17.5635
-18.7097
-19.9748
-21.3537
-22.8331
-24.394
-26.0129
-27.6621
-29.3102
-30.9218
-32.4566
-33.8702
-35.1135
-36.1348
-36.8829
-37.3115
-37.3848
-37.0751
-36.3654
-35.2467
-33.7285
-31.8529
-29.6748
-27.2561
-24.6621
-21.9576
-19.2021
-16.4459
-13.7284
-11.0778
-8.51273
-6.04443
-3.67982
-1.42508
0.711687
2.72029
4.59213
6.32478
7.92473
9.40599
10.7867
12.0845
13.3111
14.469
15.5518
16.547
17.4426
18.2309
18.9103
19.4827
19.9535
20.3297
20.62
20.8335
20.9801
21.07
21.1124
21.1157
21.0875
21.0342
20.9613
20.8733
20.7741
20.6668
20.5541
20.438
20.3205
20.2029
20.0864
19.9719
19.8602
19.7516
19.6466
19.5454
19.4482
19.3551
19.266
19.181
19.1
19.0229
18.9497
18.8801
18.8142
18.7517
18.6925
18.6365
18.5835
18.5334
18.4862
18.4415
18.3995
18.3598
18.3224
18.2871
18.2539
18.2227
18.1933
18.1656
18.1395
18.1149
18.0917
18.0699
18.0493
18.0299
18.0115
17.9941
17.9777
17.9621
17.9473
17.9332
17.9198
17.907
17.8948
17.8831
17.8719
17.8611
17.8508
17.8408
17.8312
17.8219
17.8128
17.8041
17.7955
17.7873
17.7792
17.7713
17.7636
17.7561
17.7487
17.7416
17.7346
17.7279
17.7214
17.7152
17.7094
17.7039
17.6989
17.6946
17.691
17.6884
17.6871
17.6873
17.6897
17.6946
17.7031
17.7159
17.7347
17.7604
17.7963
17.8418
17.9014
17.9664
18.0363
18.0642
-6.66752
-6.69019
-6.73972
-6.81537
-6.91914
-7.0527
-7.2184
-7.41855
-7.65513
-7.92949
-8.24189
-8.59104
-8.97397
-9.38794
-9.8307
-10.2993
-10.7937
-11.3174
-11.8779
-12.486
-13.1552
-13.9002
-14.7349
-15.6714
-16.7197
-17.8866
-19.175
-20.5832
-22.1046
-23.727
-25.4324
-27.1996
-29.0052
-30.8242
-32.6285
-34.3859
-36.0592
-37.605
-38.9739
-40.1111
-40.9578
-41.4549
-41.5439
-41.1785
-40.3341
-39.0182
-37.2659
-35.1233
-32.651
-29.9228
-27.0193
-24.021
-21.0008
-18.0184
-15.1169
-12.323
-9.6501
-7.10192
-4.67524
-2.36528
-0.172353
1.89402
3.81878
5.59096
7.21222
8.69727
10.0696
11.3557
12.5776
13.7464
14.8586
15.899
16.8487
17.694
18.4293
19.0543
19.5735
19.9932
20.3215
20.5677
20.742
20.8552
20.9173
20.9378
20.9247
20.885
20.8244
20.7476
20.6586
20.5606
20.4563
20.348
20.2375
20.1264
20.0158
19.9068
19.8
19.696
19.5953
19.498
19.4045
19.3147
19.2288
19.1467
19.0685
18.9939
18.923
18.8556
18.7916
18.731
18.6735
18.619
18.5675
18.5188
18.4727
18.4292
18.3882
18.3495
18.313
18.2785
18.2461
18.2156
18.1868
18.1597
18.1341
18.11
18.0873
18.0659
18.0457
18.0266
18.0085
17.9914
17.9752
17.9599
17.9453
17.9314
17.9182
17.9055
17.8935
17.8819
17.8708
17.8602
17.8499
17.84
17.8305
17.8212
17.8122
17.8035
17.795
17.7868
17.7787
17.7708
17.7632
17.7556
17.7483
17.7411
17.7342
17.7274
17.7208
17.7145
17.7085
17.7029
17.6977
17.6931
17.6893
17.6862
17.6844
17.6839
17.6854
17.6891
17.6959
17.7064
17.722
17.7433
17.7723
17.8081
17.8524
17.8968
17.9357
17.9345
-6.65751
-6.67697
-6.72036
-6.78667
-6.87778
-6.99513
-7.14093
-7.31746
-7.52713
-7.77206
-8.05384
-8.37421
-8.73491
-9.13729
-9.58311
-10.0754
-10.6189
-11.2205
-11.8891
-12.6355
-13.4715
-14.4094
-15.4607
-16.636
-17.9427
-19.3835
-20.9547
-22.6454
-24.4382
-26.3121
-28.2452
-30.2173
-32.2109
-34.2101
-36.1971
-38.1487
-40.0337
-41.8087
-43.4167
-44.7868
-45.8373
-46.4789
-46.6284
-46.2294
-45.2619
-43.7439
-41.7116
-39.2197
-36.3483
-33.1957
-29.8677
-26.4677
-23.0872
-19.799
-16.6523
-13.6723
-10.8655
-8.22627
-5.7402
-3.38741
-1.1525
0.965097
2.94906
4.77787
6.44197
7.94962
9.32415
10.5987
11.806
12.9687
14.0927
15.1659
16.1645
17.0668
17.8611
18.5442
19.1187
19.5897
19.9636
20.2496
20.4578
20.5994
20.6856
20.7266
20.7316
20.708
20.662
20.5985
20.5216
20.4347
20.3404
20.2413
20.1392
20.0357
19.9322
19.8296
19.7288
19.6303
19.5345
19.4419
19.3526
19.2669
19.1846
19.106
19.0309
18.9594
18.8912
18.8264
18.7648
18.7063
18.6509
18.5983
18.5484
18.5013
18.4567
18.4146
18.3748
18.3372
18.3017
18.2683
18.2368
18.207
18.179
18.1526
18.1277
18.1042
18.082
18.0611
18.0413
18.0226
18.005
17.9882
17.9723
17.9572
17.9429
17.9292
17.9162
17.9038
17.8919
17.8805
17.8695
17.859
17.8489
17.8391
17.8296
17.8204
17.8115
17.8029
17.7944
17.7862
17.7782
17.7703
17.7627
17.7551
17.7478
17.7406
17.7336
17.7268
17.7201
17.7137
17.7076
17.7018
17.6964
17.6915
17.6873
17.6838
17.6813
17.6801
17.6805
17.6828
17.6878
17.6958
17.7079
17.7244
17.7464
17.7726
17.8026
17.8288
17.8431
17.8204
-6.72678
-6.74439
-6.7842
-6.8448
-6.92824
-7.03591
-7.17007
-7.33308
-7.52772
-7.75705
-8.02445
-8.33313
-8.6871
-9.09132
-9.55179
-10.0757
-10.6715
-11.3487
-12.1181
-12.9917
-13.9824
-15.1037
-16.3686
-17.7863
-19.3601
-21.0838
-22.9412
-24.9082
-26.9565
-29.0603
-31.1998
-33.3644
-35.5528
-37.7686
-40.0119
-42.2709
-44.5138
-46.6843
-48.7009
-50.4611
-51.847
-52.7392
-53.0364
-52.6637
-51.585
-49.8099
-47.3883
-44.4057
-40.9778
-37.2402
-33.3336
-29.3917
-25.5291
-21.8338
-18.361
-15.1331
-12.1462
-9.38339
-6.82092
-4.42732
-2.16805
-0.0225912
2.00347
3.88465
5.59956
7.14718
8.54647
9.83103
11.0381
12.1982
13.3285
14.4245
15.4605
16.4086
17.2526
17.9871
18.6138
19.1358
19.5574
19.8863
20.1322
20.3061
20.4198
20.4846
20.5104
20.5053
20.476
20.4277
20.3647
20.2904
20.2077
20.1191
20.0266
19.932
19.8365
19.7413
19.6473
19.555
19.4651
19.3778
19.2934
19.2121
19.1341
19.0594
18.988
18.9198
18.8548
18.7929
18.7341
18.6781
18.6249
18.5745
18.5266
18.4813
18.4384
18.3978
18.3594
18.3231
18.2889
18.2565
18.226
18.1973
18.1701
18.1445
18.1203
18.0975
18.076
18.0556
18.0363
18.0181
18.0008
17.9845
17.9689
17.9542
17.9401
17.9267
17.914
17.9018
17.8901
17.8788
17.868
17.8577
17.8477
17.838
17.8286
17.8195
17.8107
17.8021
17.7937
17.7856
17.7776
17.7697
17.7621
17.7546
17.7472
17.74
17.7329
17.7261
17.7193
17.7128
17.7066
17.7006
17.6949
17.6897
17.6851
17.6811
17.6779
17.6758
17.675
17.6759
17.6789
17.6843
17.6927
17.7043
17.7193
17.7363
17.7533
17.7637
17.7584
17.7189
-6.85882
-6.87615
-6.91535
-6.97436
-7.05565
-7.16063
-7.29176
-7.45165
-7.64353
-7.87103
-8.13836
-8.45035
-8.81299
-9.23361
-9.72099
-10.2852
-10.9375
-11.6904
-12.5576
-13.5547
-14.6986
-16.0063
-17.4916
-19.1604
-21.0064
-23.0095
-25.1376
-27.3531
-29.6213
-31.92
-34.2456
-36.614
-39.0517
-41.584
-44.2228
-46.9548
-49.7337
-52.4766
-55.0672
-57.364
-59.2107
-60.4517
-60.9435
-60.5775
-59.31
-57.1728
-54.2441
-50.6379
-46.5075
-42.0326
-37.3992
-32.7798
-28.3177
-24.1182
-20.2426
-16.7082
-13.4977
-10.5764
-7.90758
-5.45261
-3.16633
-1.01044
1.0279
2.93141
4.67757
6.26203
7.70126
9.02373
10.2621
11.4475
12.6004
13.7211
14.7851
15.7644
16.6433
17.4173
18.0859
18.6517
19.1173
19.4878
19.7715
19.9793
20.1229
20.2139
20.2629
20.2786
20.268
20.2366
20.189
20.1287
20.0589
19.9821
19.9004
19.8156
19.7292
19.6423
19.5559
19.4707
19.3872
19.3059
19.227
19.1508
19.0775
19.0071
18.9398
18.8754
18.8139
18.7553
18.6995
18.6463
18.5958
18.5477
18.5021
18.4588
18.4177
18.3788
18.342
18.3073
18.2744
18.2433
18.2139
18.1862
18.1601
18.1353
18.112
18.0899
18.0691
18.0493
18.0306
18.0129
17.9962
17.9802
17.9651
17.9507
17.937
17.9239
17.9114
17.8994
17.888
17.8769
17.8663
17.8561
17.8463
17.8367
17.8275
17.8185
17.8097
17.8012
17.7929
17.7848
17.7769
17.7691
17.7614
17.7539
17.7466
17.7393
17.7322
17.7253
17.7185
17.7119
17.7054
17.6992
17.6933
17.6878
17.6827
17.6781
17.6743
17.6712
17.6692
17.6685
17.6694
17.6721
17.6768
17.6834
17.6917
17.6999
17.7054
17.702
17.6811
17.6282
-7.02559
-7.04472
-7.08684
-7.14861
-7.23332
-7.34236
-7.47849
-7.64458
-7.84426
-8.08167
-8.3618
-8.69073
-9.076
-9.52671
-10.0535
-10.6683
-11.3851
-12.2197
-13.1904
-14.3182
-15.6249
-17.1301
-18.8457
-20.7692
-22.8802
-25.1417
-27.5062
-29.9288
-32.3813
-34.8625
-37.399
-40.0375
-42.831
-45.8197
-49.0114
-52.373
-55.8277
-59.2559
-62.4997
-65.3737
-67.6804
-69.2252
-69.8376
-69.4025
-67.8841
-65.3229
-61.813
-57.4981
-52.5731
-47.2664
-41.8141
-36.4329
-31.2982
-26.5344
-22.2096
-18.3375
-14.884
-11.791
-9.00166
-6.4681
-4.14159
-1.97387
0.0628886
1.96719
3.72585
5.33764
6.81843
8.19173
9.48309
10.7164
11.9077
13.0557
14.1423
15.1445
16.0485
16.8503
17.5506
18.1517
18.6551
19.0636
19.3835
19.6248
19.7991
19.9179
19.9919
20.03
20.0397
20.0268
19.9959
19.951
19.8952
19.8312
19.7613
19.6873
19.6109
19.5332
19.4553
19.3778
19.3015
19.2267
19.1539
19.0834
19.0152
18.9496
18.8867
18.8264
18.7688
18.7138
18.6613
18.6112
18.5635
18.5181
18.4749
18.4339
18.3949
18.3579
18.3229
18.2897
18.2583
18.2286
18.2006
18.174
18.1489
18.1252
18.1028
18.0815
18.0614
18.0424
18.0243
18.0072
17.991
17.9755
17.9609
17.9469
17.9335
17.9208
17.9086
17.8969
17.8856
17.8748
17.8644
17.8544
17.8447
17.8353
17.8262
17.8173
17.8087
17.8003
17.792
17.784
17.7761
17.7683
17.7607
17.7532
17.7459
17.7386
17.7315
17.7245
17.7176
17.7108
17.7042
17.6978
17.6916
17.6857
17.6802
17.675
17.6704
17.6664
17.6631
17.6608
17.6595
17.6593
17.6603
17.6621
17.664
17.664
17.6593
17.6441
17.6105
17.5469
-7.19177
-7.21577
-7.26489
-7.33424
-7.42842
-7.54845
-7.69745
-7.87858
-8.09595
-8.35437
-8.65966
-9.01881
-9.44046
-9.935
-10.5147
-11.1939
-11.9896
-12.9215
-14.0126
-15.2878
-16.7716
-18.4825
-20.4262
-22.5886
-24.935
-27.4148
-29.9751
-32.5801
-35.2213
-37.9238
-40.7425
-43.7467
-47
-50.5385
-54.3477
-58.3611
-62.462
-66.4915
-70.2607
-73.5624
-76.1812
-77.9055
-78.5478
-77.9782
-76.1568
-73.1332
-69.026
-64.0089
-58.3126
-52.2086
-45.9792
-39.8799
-34.1136
-28.8207
-24.0761
-19.8934
-16.2201
-12.9746
-10.0793
-7.47158
-5.09967
-2.90993
-0.86948
1.03298
2.79849
4.43727
5.96416
7.39542
8.7441
10.0223
11.2456
12.4186
13.5276
14.5509
15.4747
16.2957
17.0174
17.6445
18.1789
18.6214
18.9757
19.2498
19.4546
19.6015
19.7012
19.7628
19.7937
19.8002
19.7872
19.7585
19.7176
19.6673
19.6101
19.5479
19.4822
19.4145
19.3458
19.2768
19.2083
19.1407
19.0745
19.01
18.9475
18.8872
18.8291
18.7733
18.7198
18.6686
18.6197
18.573
18.5284
18.4859
18.4453
18.4067
18.37
18.3351
18.302
18.2706
18.2408
18.2126
18.1859
18.1607
18.1368
18.1141
18.0927
18.0723
18.0531
18.0348
18.0174
18.001
17.9853
17.9704
17.9562
17.9426
17.9297
17.9173
17.9054
17.894
17.8831
17.8725
17.8623
17.8525
17.843
17.8338
17.8248
17.8161
17.8075
17.7992
17.7911
17.7831
17.7752
17.7675
17.7599
17.7525
17.7451
17.7378
17.7307
17.7236
17.7166
17.7097
17.7029
17.6963
17.6898
17.6836
17.6775
17.6717
17.6663
17.6613
17.6568
17.6527
17.6493
17.6464
17.6437
17.6408
17.6366
17.6292
17.6154
17.5901
17.5461
17.4739
-7.32528
-7.35793
-7.41937
-7.50272
-7.61326
-7.75154
-7.9215
-8.1267
-8.37203
-8.66296
-9.00601
-9.40898
-9.88176
-10.4366
-11.0884
-11.8542
-12.7534
-13.8074
-15.0399
-16.4756
-18.1371
-20.0388
-22.1802
-24.5389
-27.0756
-29.7401
-32.486
-35.2906
-38.1611
-41.1405
-44.2951
-47.6941
-51.3888
-55.3916
-59.6579
-64.0961
-68.5728
-72.9181
-76.9381
-80.4202
-83.1385
-84.8647
-85.3967
-84.5993
-82.4392
-78.9844
-74.3737
-68.8012
-62.523
-55.8401
-49.0666
-42.4728
-36.278
-30.6321
-25.6117
-21.2255
-17.4063
-14.0588
-11.0918
-8.43402
-6.02551
-3.81377
-1.7625
0.147913
1.93064
3.60226
5.17522
6.65347
8.03966
9.34858
10.6011
11.8028
12.9369
13.9806
14.9204
15.7558
16.4939
17.1415
17.701
18.1722
18.5574
18.8623
19.0965
19.2709
19.3959
19.4808
19.5332
19.5595
19.5647
19.5528
19.5275
19.4916
19.4478
19.398
19.3439
19.2868
19.2279
19.1681
19.108
19.0481
18.9891
18.9312
18.8748
18.82
18.7671
18.7162
18.6672
18.6201
18.5751
18.5319
18.4906
18.4511
18.4134
18.3774
18.3431
18.3105
18.2794
18.2499
18.2219
18.1954
18.1702
18.1463
18.1236
18.1021
18.0817
18.0624
18.044
18.0266
18.01
17.9942
17.9791
17.9648
17.9511
17.938
17.9255
17.9135
17.902
17.8909
17.8803
17.87
17.8601
17.8505
17.8411
17.8321
17.8233
17.8147
17.8063
17.7981
17.79
17.7821
17.7743
17.7667
17.7591
17.7517
17.7443
17.737
17.7298
17.7226
17.7156
17.7085
17.7016
17.6948
17.688
17.6813
17.6748
17.6684
17.6622
17.6561
17.6503
17.6446
17.639
17.6333
17.6271
17.6197
17.61
17.5957
17.5739
17.5399
17.4873
17.4082
-7.40354
-7.44834
-7.52898
-7.63342
-7.76738
-7.93196
-8.13191
-8.37131
-8.65574
-8.99158
-9.38671
-9.85093
-10.3964
-11.0375
-11.7906
-12.6727
-13.7019
-14.8971
-16.2783
-17.8667
-19.682
-21.7362
-24.0289
-26.5398
-29.2351
-32.0718
-35.0102
-38.0313
-41.1396
-44.3696
-47.7737
-51.4049
-55.2961
-59.4501
-63.818
-68.3134
-72.8089
-77.1365
-81.0963
-84.4663
-87.0154
-88.5219
-88.7995
-87.7335
-85.302
-81.5694
-76.6818
-70.8501
-64.3392
-57.4538
-50.5082
-43.7744
-37.468
-31.737
-26.6535
-22.2187
-18.3631
-14.9875
-11.9982
-9.31888
-6.8886
-4.65784
-2.59164
-0.665964
1.1409
2.84422
4.44622
5.94533
7.35051
8.68422
9.96659
11.1965
12.3536
13.4162
14.3732
15.2261
15.9835
16.6525
17.2345
17.7293
18.1393
18.4706
18.7314
18.9314
19.0804
19.1878
19.2611
19.307
19.3305
19.3357
19.3264
19.3054
19.2755
19.2386
19.1967
19.1509
19.1025
19.0523
19.0011
18.9495
18.8981
18.8472
18.7972
18.7485
18.7012
18.6554
18.6112
18.5685
18.5276
18.4882
18.4504
18.4141
18.3794
18.3462
18.3145
18.2842
18.2553
18.2279
18.2017
18.1769
18.1533
18.1309
18.1096
18.0893
18.0701
18.0518
18.0343
18.0178
18.002
17.9869
17.9725
17.9588
17.9457
17.9331
17.9211
17.9095
17.8984
17.8876
17.8773
17.8673
17.8576
17.8482
17.8391
17.8303
17.8216
17.8132
17.8049
17.7968
17.7889
17.781
17.7733
17.7657
17.7582
17.7508
17.7434
17.7361
17.7289
17.7217
17.7145
17.7074
17.7002
17.6932
17.6861
17.679
17.672
17.665
17.658
17.6509
17.6437
17.6364
17.6287
17.6203
17.6108
17.5992
17.5843
17.5639
17.5351
17.4935
17.4338
17.3491
-7.41657
-7.47563
-7.58347
-7.7166
-7.88212
-8.08228
-8.32228
-8.60722
-8.94454
-9.34293
-9.81279
-10.3657
-11.0147
-11.7736
-12.6567
-13.6776
-14.8501
-16.1884
-17.7074
-19.424
-21.3559
-23.5167
-25.9101
-28.5242
-31.3314
-34.292
-37.3629
-40.5114
-43.7227
-47.0089
-50.4068
-53.9618
-57.7074
-61.6515
-65.7592
-69.9539
-74.1148
-78.0799
-81.6564
-84.635
-86.8091
-87.9842
-87.9997
-86.7562
-84.2314
-80.4859
-75.6494
-69.9233
-63.5733
-56.8951
-50.1797
-43.6798
-37.5936
-32.0563
-27.1321
-22.815
-19.0399
-15.7165
-12.7569
-10.0874
-7.65129
-5.40709
-3.3258
-1.38366
0.440132
2.15617
3.76655
5.27672
6.70349
8.06573
9.37171
10.6149
11.7813
12.8579
13.8362
14.7148
15.4973
16.1879
16.7882
17.2999
17.7279
18.0796
18.363
18.586
18.7574
18.886
18.9796
19.0447
19.0864
19.1088
19.1157
19.1101
19.0945
19.0712
19.0418
19.0078
18.9702
18.9302
18.8884
18.8454
18.802
18.7585
18.7154
18.6731
18.6316
18.5912
18.552
18.5141
18.4774
18.442
18.4079
18.375
18.3435
18.3132
18.2842
18.2564
18.2299
18.2045
18.1804
18.1574
18.1354
18.1145
18.0947
18.0757
18.0577
18.0405
18.0241
18.0084
17.9935
17.9792
17.9655
17.9524
17.9399
17.9279
17.9163
17.9052
17.8945
17.8841
17.8741
17.8644
17.855
17.8459
17.837
17.8283
17.8199
17.8116
17.8035
17.7955
17.7877
17.7799
17.7723
17.7648
17.7573
17.7499
17.7425
17.7352
17.7279
17.7207
17.7134
17.7061
17.6989
17.6915
17.6842
17.6767
17.6692
17.6616
17.6537
17.6457
17.6372
17.6283
17.6186
17.6076
17.5949
17.5794
17.5597
17.5339
17.4989
17.4509
17.3851
17.2958
-7.38987
-7.45613
-7.58823
-7.75519
-7.95985
-8.20508
-8.49747
-8.84522
-9.25872
-9.74848
-10.3248
-10.998
-11.7786
-12.6775
-13.7047
-14.8689
-16.1772
-17.6366
-19.2569
-21.0515
-23.0373
-25.2287
-27.6311
-30.2346
-33.0127
-35.9256
-38.9257
-41.9702
-45.0334
-48.1168
-51.2456
-54.4616
-57.7964
-61.26
-64.827
-68.4378
-71.9874
-75.3366
-78.3194
-80.7577
-82.4772
-83.3157
-83.1386
-81.8589
-79.4517
-75.9616
-71.4982
-66.2429
-60.4396
-54.3549
-48.241
-42.3138
-36.7435
-31.6465
-27.0747
-23.0184
-19.4236
-16.2185
-13.3295
-10.6944
-8.26992
-6.0291
-3.94976
-2.00727
-0.181356
1.53846
3.15969
4.69279
6.14928
7.53462
8.84859
10.0895
11.2556
12.3424
13.3421
14.2464
15.0506
15.7558
16.3658
16.8866
17.3259
17.6924
17.9937
18.2365
18.4283
18.5771
18.6904
18.7743
18.8341
18.8739
18.8972
18.9072
18.9064
18.897
18.8806
18.8587
18.8325
18.8029
18.7707
18.7368
18.7017
18.6659
18.63
18.5942
18.5588
18.5241
18.4901
18.4571
18.4249
18.3936
18.3634
18.3341
18.3058
18.2785
18.2523
18.2272
18.2031
18.18
18.1579
18.1368
18.1166
18.0974
18.079
18.0614
18.0446
18.0286
18.0133
17.9986
17.9845
17.9711
17.9581
17.9457
17.9338
17.9223
17.9113
17.9006
17.8903
17.8804
17.8707
17.8614
17.8523
17.8434
17.8348
17.8263
17.818
17.8099
17.802
17.7941
17.7864
17.7788
17.7712
17.7638
17.7563
17.749
17.7416
17.7343
17.727
17.7197
17.7123
17.7049
17.6975
17.6899
17.6823
17.6745
17.6665
17.6582
17.6496
17.6405
17.6309
17.6204
17.6087
17.5953
17.5796
17.5605
17.5366
17.5058
17.4654
17.4119
17.341
17.2478
-7.36473
-7.4242
-7.56335
-7.76414
-8.0184
-8.3249
-8.69334
-9.13525
-9.6612
-10.2781
-10.9912
-11.8064
-12.7296
-13.7648
-14.9144
-16.1806
-17.5659
-19.0732
-20.7068
-22.4732
-24.3804
-26.436
-28.643
-31.0007
-33.4947
-36.1033
-38.7944
-41.5294
-44.2786
-47.024
-49.768
-52.5273
-55.3221
-58.1628
-61.0389
-63.9127
-66.7135
-69.3384
-71.6601
-73.5371
-74.8259
-75.392
-75.1229
-73.9436
-71.8306
-68.8161
-64.993
-60.5109
-55.5677
-50.3771
-45.1393
-40.0272
-35.1792
-30.6881
-26.5932
-22.888
-19.5373
-16.4922
-13.702
-11.1268
-8.74172
-6.53054
-4.47318
-2.54624
-0.730079
0.989938
2.62682
4.18843
5.67301
7.0735
8.38808
9.62411
10.7901
11.886
12.9013
13.8216
14.6366
15.3457
15.9563
16.4793
16.9253
17.3029
17.6187
17.8784
18.0886
18.2566
18.3893
18.4923
18.5706
18.6281
18.6684
18.6946
18.7091
18.7142
18.7114
18.7021
18.6877
18.669
18.647
18.6224
18.5959
18.5682
18.5397
18.5108
18.4818
18.4531
18.4246
18.3966
18.3692
18.3423
18.3161
18.2906
18.2658
18.2418
18.2186
18.1962
18.1746
18.1539
18.1341
18.115
18.0967
18.0792
18.0624
18.0462
18.0308
18.016
18.0018
17.9881
17.975
17.9624
17.9503
17.9386
17.9273
17.9165
17.906
17.8958
17.886
17.8764
17.8672
17.8581
17.8493
17.8408
17.8324
17.8241
17.8161
17.8081
17.8003
17.7926
17.785
17.7775
17.7701
17.7627
17.7553
17.748
17.7407
17.7333
17.726
17.7186
17.7112
17.7037
17.6961
17.6883
17.6804
17.6722
17.6637
17.6549
17.6455
17.6355
17.6247
17.6127
17.5992
17.5836
17.5651
17.5427
17.5149
17.4797
17.4346
17.3763
17.3011
17.2047
-7.30078
-7.35055
-7.50697
-7.75489
-8.08166
-8.47957
-8.95791
-9.52467
-10.1834
-10.9331
-11.7703
-12.6907
-13.6911
-14.7695
-15.926
-17.1603
-18.4716
-19.8565
-21.3158
-22.8514
-24.4754
-26.1984
-28.0361
-29.9987
-32.0886
-34.2964
-36.5998
-38.9668
-41.3626
-43.7559
-46.1276
-48.4734
-50.7994
-53.1114
-55.4042
-57.6548
-59.8183
-61.8258
-63.5869
-64.9972
-65.9471
-66.3318
-66.0636
-65.0851
-63.3786
-60.9591
-57.8917
-54.2839
-50.2813
-46.0425
-41.7199
-37.449
-33.3384
-29.4589
-25.8421
-22.4907
-19.3903
-16.5164
-13.8439
-11.3557
-9.04027
-6.88317
-4.86548
-2.96824
-1.17233
0.541563
2.18814
3.76962
5.27353
6.68593
8.0058
9.24608
10.4183
11.5196
12.5358
13.4522
14.261
14.9637
15.5698
16.0922
16.5426
16.9287
17.2561
17.5299
17.7562
17.9416
18.0923
18.2134
18.3095
18.3842
18.441
18.483
18.5125