/*--------------------------------*- C++ -*----------------------------------*\
  =========                 |
  \\      /  F ield         | OpenFOAM: The Open Source CFD Toolbox
   \\    /   O peration     | Website:  https://openfoam.org
    \\  /    A nd           | Version:  9
     \\/     M anipulation  |
\*---------------------------------------------------------------------------*/
FoamFile
{
    format      ascii;
    class       volSymmTensorField;
    location    "0.019";
    object      UPrime2Mean;
}
// * * * * * * * * * * * * * * * * * * * * * * * * * * * * * * * * * * * * * //

dimensions      [0 2 -2 0 0 0 0];

internalField   nonuniform List<symmTensor> 
12225
(
(-48.5399 -0.256278 0 0.0012071 0 0)
(-45.6109 -0.324034 0 -0.00119355 0 0)
(-42.7233 -0.294782 0 -0.00120105 0 0)
(-39.9171 -0.274789 0 -0.00117598 0 0)
(-37.2359 -0.262537 0 -0.00120346 0 0)
(-34.7236 -0.246152 0 -0.0011658 0 0)
(-32.3629 -0.228295 0 -0.00111912 0 0)
(-30.184 -0.210084 0 -0.00106912 0 0)
(-28.0923 -0.202124 0 -0.00103658 0 0)
(-26.1551 -0.193102 0 -0.00106543 0 0)
(-24.1832 -0.199102 0 -0.00107405 0 0)
(-22.4056 -0.187724 0 -0.00117811 0 0)
(-20.4244 -0.209815 0 -0.000945706 0 0)
(-18.7942 -0.180112 0 -0.00119189 0 0)
(-16.6305 -0.248932 0 0.000114154 0 0)
(-15.1072 -0.169421 0 -0.000731141 0 0)
(-12.4156 -0.39543 0 0.00779919 0 0)
(-10.7052 -0.222111 0 -0.000126645 0 0)
(-49.7033 -0.22606 0 0.0014841 0 0)
(-50.242 -0.350878 0 -0.00112466 0 0)
(-50.586 -0.35925 0 -0.0017668 0 0)
(-50.7139 -0.368459 0 -0.00206669 0 0)
(-50.681 -0.387741 0 -0.0024449 0 0)
(-50.5269 -0.41206 0 -0.00285728 0 0)
(-50.2483 -0.430377 0 -0.00317782 0 0)
(-49.869 -0.451799 0 -0.00344986 0 0)
(-49.3887 -0.466177 0 -0.00368236 0 0)
(-48.8499 -0.49434 0 -0.00388159 0 0)
(-48.2144 -0.509414 0 -0.00413958 0 0)
(-47.537 -0.55223 0 -0.00416962 0 0)
(-46.7123 -0.569328 0 -0.0045271 0 0)
(-45.8568 -0.638115 0 -0.0039566 0 0)
(-44.7549 -0.671132 0 -0.00463375 0 0)
(-43.6347 -0.794345 0 -0.00177535 0 0)
(-42.1195 -0.926738 0 -0.00135849 0 0)
(-40.6002 -1.24308 0 0.0194384 0 0)
(-50.2818 -0.218983 0 0.00301051 0 0)
(-50.5926 -0.306954 0 2.08948e-05 0 0)
(-50.8341 -0.314926 0 -0.00064499 0 0)
(-50.956 -0.322235 0 -0.000963629 0 0)
(-50.9973 -0.347555 0 -0.00137677 0 0)
(-51.0106 -0.375041 0 -0.00177262 0 0)
(-50.9993 -0.397198 0 -0.00204264 0 0)
(-50.9605 -0.414207 0 -0.00227019 0 0)
(-50.8818 -0.437094 0 -0.00240695 0 0)
(-50.7699 -0.463356 0 -0.00264366 0 0)
(-50.6104 -0.504775 0 -0.00264272 0 0)
(-50.4097 -0.546045 0 -0.0029355 0 0)
(-50.1486 -0.611684 0 -0.00240691 0 0)
(-49.8315 -0.671424 0 -0.00260508 0 0)
(-49.4421 -0.783201 0 -0.000352811 0 0)
(-48.9794 -0.900265 0 0.00113713 0 0)
(-48.4621 -1.13722 0 0.0114923 0 0)
(-47.9132 -1.46003 0 0.037303 0 0)
(-49.7755 -0.10576 0 0.00328218 0 0)
(-49.979 -0.270935 0 0.000274333 0 0)
(-50.1275 -0.314734 0 -0.000893499 0 0)
(-50.1984 -0.32891 0 -0.00130391 0 0)
(-50.2111 -0.352691 0 -0.00168724 0 0)
(-50.2011 -0.385953 0 -0.00208804 0 0)
(-50.1796 -0.418614 0 -0.00243357 0 0)
(-50.1394 -0.453118 0 -0.00270069 0 0)
(-50.0707 -0.487895 0 -0.00293559 0 0)
(-49.9683 -0.53001 0 -0.00305697 0 0)
(-49.8304 -0.574512 0 -0.00312593 0 0)
(-49.6554 -0.630357 0 -0.00286395 0 0)
(-49.4393 -0.69356 0 -0.00237986 0 0)
(-49.1799 -0.77628 0 -0.00101824 0 0)
(-48.8691 -0.885754 0 0.00148647 0 0)
(-48.5235 -1.0362 0 0.00707342 0 0)
(-48.1432 -1.25988 0 0.0204345 0 0)
(-47.8013 -1.55246 0 0.0483468 0 0)
(-50.1605 -0.160648 0 0.00355828 0 0)
(-50.3032 -0.285348 0 0.000591237 0 0)
(-50.4643 -0.319857 0 -0.000428239 0 0)
(-50.5727 -0.333161 0 -0.000779603 0 0)
(-50.6026 -0.359013 0 -0.00111523 0 0)
(-50.5733 -0.391395 0 -0.00143229 0 0)
(-50.5028 -0.420847 0 -0.00163179 0 0)
(-50.4044 -0.447973 0 -0.00173867 0 0)
(-50.2893 -0.479594 0 -0.00172031 0 0)
(-50.1652 -0.519562 0 -0.00162213 0 0)
(-50.0298 -0.571037 0 -0.0012948 0 0)
(-49.8734 -0.634203 0 -0.000695774 0 0)
(-49.6803 -0.7123 0 0.000573894 0 0)
(-49.4417 -0.808965 0 0.00290069 0 0)
(-49.1517 -0.932947 0 0.00723094 0 0)
(-48.8251 -1.09759 0 0.0160025 0 0)
(-48.4757 -1.31125 0 0.0322981 0 0)
(-48.1504 -1.58795 0 0.0660764 0 0)
(-50.0055 -0.0742944 0 0.00559794 0 0)
(-50.0624 -0.215703 0 0.00299697 0 0)
(-50.1416 -0.283308 0 0.000699279 0 0)
(-50.2149 -0.311325 0 -0.000250597 0 0)
(-50.2456 -0.340646 0 -0.000799856 0 0)
(-50.2354 -0.382572 0 -0.0012493 0 0)
(-50.1911 -0.429262 0 -0.00160321 0 0)
(-50.1144 -0.474403 0 -0.00175231 0 0)
(-50.0104 -0.517413 0 -0.00165456 0 0)
(-49.8899 -0.563203 0 -0.00131311 0 0)
(-49.7625 -0.61741 0 -0.000636773 0 0)
(-49.6274 -0.685423 0 0.000553244 0 0)
(-49.4758 -0.771469 0 0.00263244 0 0)
(-49.2945 -0.87969 0 0.00622386 0 0)
(-49.0786 -1.01579 0 0.0125612 0 0)
(-48.8281 -1.18742 0 0.0238846 0 0)
(-48.5651 -1.39952 0 0.0437926 0 0)
(-48.3066 -1.65997 0 0.0790655 0 0)
(-50.5706 -0.141047 0 0.00405547 0 0)
(-50.6464 -0.246135 0 0.00248901 0 0)
(-50.7869 -0.300966 0 0.000970261 0 0)
(-50.9182 -0.333948 0 0.000250986 0 0)
(-50.9786 -0.367745 0 -0.000148529 0 0)
(-50.9796 -0.407469 0 -0.000410129 0 0)
(-50.9524 -0.449694 0 -0.000520598 0 0)
(-50.909 -0.492182 0 -0.000428964 0 0)
(-50.8447 -0.535409 0 -9.53652e-05 0 0)
(-50.7524 -0.582708 0 0.000558356 0 0)
(-50.6334 -0.639098 0 0.00167898 0 0)
(-50.4908 -0.710701 0 0.0035706 0 0)
(-50.3312 -0.80226 0 0.00664109 0 0)
(-50.1526 -0.918725 0 0.0117316 0 0)
(-49.9633 -1.06333 0 0.0200293 0 0)
(-49.7565 -1.24081 0 0.0339332 0 0)
(-49.5579 -1.45196 0 0.056376 0 0)
(-49.3586 -1.69915 0 0.0920414 0 0)
(-50.1255 -0.0530069 0 0.00577414 0 0)
(-50.1609 -0.174748 0 0.00280426 0 0)
(-50.246 -0.249009 0 0.00128065 0 0)
(-50.337 -0.295191 0 0.000707127 0 0)
(-50.3948 -0.337213 0 0.000310009 0 0)
(-50.4158 -0.384247 0 6.87328e-05 0 0)
(-50.413 -0.436209 0 2.75713e-05 0 0)
(-50.3974 -0.490044 0 0.000220342 0 0)
(-50.368 -0.544911 0 0.000725373 0 0)
(-50.3218 -0.60337 0 0.00167591 0 0)
(-50.255 -0.669827 0 0.00327104 0 0)
(-50.1729 -0.749201 0 0.00586175 0 0)
(-50.0746 -0.845972 0 0.00995034 0 0)
(-49.9712 -0.964736 0 0.0164412 0 0)
(-49.8562 -1.10936 0 0.0265392 0 0)
(-49.7499 -1.28359 0 0.0423888 0 0)
(-49.636 -1.48772 0 0.0663211 0 0)
(-49.562 -1.72203 0 0.101799 0 0)
(-49.3471 -0.122682 0 0.00512982 0 0)
(-49.3041 -0.19726 0 0.00298989 0 0)
(-49.3241 -0.263619 0 0.00165131 0 0)
(-49.3847 -0.313578 0 0.00100265 0 0)
(-49.4348 -0.356339 0 0.000663305 0 0)
(-49.4545 -0.401282 0 0.000505602 0 0)
(-49.4422 -0.45001 0 0.000599321 0 0)
(-49.4036 -0.501479 0 0.00104027 0 0)
(-49.3452 -0.555263 0 0.00192756 0 0)
(-49.2763 -0.61422 0 0.00338953 0 0)
(-49.2008 -0.682196 0 0.00564093 0 0)
(-49.1243 -0.76447 0 0.00909279 0 0)
(-49.0428 -0.864876 0 0.0143136 0 0)
(-48.9634 -0.988467 0 0.0222416 0 0)
(-48.8774 -1.13632 0 0.0340476 0 0)
(-48.8067 -1.31194 0 0.0515551 0 0)
(-48.7338 -1.51143 0 0.0765855 0 0)
(-48.7076 -1.73686 0 0.111615 0 0)
(-49.2457 -0.115243 0 0.00555097 0 0)
(-49.3414 -0.165838 0 0.00348104 0 0)
(-49.4115 -0.231685 0 0.0026199 0 0)
(-49.4987 -0.287926 0 0.00201251 0 0)
(-49.5909 -0.334499 0 0.00150536 0 0)
(-49.6499 -0.384921 0 0.00129439 0 0)
(-49.6593 -0.443357 0 0.00147034 0 0)
(-49.6312 -0.506817 0 0.00210734 0 0)
(-49.5838 -0.571131 0 0.0033027 0 0)
(-49.53 -0.636647 0 0.00516563 0 0)
(-49.4727 -0.707305 0 0.0079051 0 0)
(-49.4107 -0.78954 0 0.01198 0 0)
(-49.3414 -0.888057 0 0.0180305 0 0)
(-49.2681 -1.00809 0 0.0269829 0 0)
(-49.1955 -1.15001 0 0.0399038 0 0)
(-49.1339 -1.31663 0 0.0583303 0 0)
(-49.09 -1.5029 0 0.0836088 0 0)
(-49.0762 -1.71082 0 0.117449 0 0)
(-49.5371 -0.0465695 0 0.00718135 0 0)
(-49.5376 -0.160409 0 0.00587826 0 0)
(-49.5236 -0.218631 0 0.00406993 0 0)
(-49.5534 -0.26979 0 0.00305393 0 0)
(-49.595 -0.326097 0 0.00264867 0 0)
(-49.6126 -0.388518 0 0.00263897 0 0)
(-49.6029 -0.454062 0 0.00301201 0 0)
(-49.582 -0.517759 0 0.00392636 0 0)
(-49.5619 -0.578241 0 0.00545784 0 0)
(-49.5426 -0.640111 0 0.00774528 0 0)
(-49.5156 -0.710222 0 0.0111277 0 0)
(-49.4735 -0.795264 0 0.0161172 0 0)
(-49.4161 -0.898483 0 0.023303 0 0)
(-49.35 -1.02208 0 0.0334883 0 0)
(-49.2871 -1.16432 0 0.0475485 0 0)
(-49.2376 -1.326 0 0.0667377 0 0)
(-49.2144 -1.5022 0 0.0919719 0 0)
(-49.2205 -1.69499 0 0.124515 0 0)
(-50.2606 -0.0826813 0 0.00652609 0 0)
(-50.1819 -0.183548 0 0.00609493 0 0)
(-50.1601 -0.227533 0 0.00398768 0 0)
(-50.1568 -0.270077 0 0.00254856 0 0)
(-50.1342 -0.32242 0 0.00207203 0 0)
(-50.1129 -0.382564 0 0.0023002 0 0)
(-50.1123 -0.446844 0 0.00305093 0 0)
(-50.1264 -0.511699 0 0.00433925 0 0)
(-50.1368 -0.577287 0 0.00625654 0 0)
(-50.1289 -0.647479 0 0.00902871 0 0)
(-50.0957 -0.726577 0 0.0130072 0 0)
(-50.0415 -0.818503 0 0.0186629 0 0)
(-49.976 -0.924342 0 0.0265486 0 0)
(-49.9147 -1.04543 0 0.0374093 0 0)
(-49.8667 -1.1799 0 0.0519704 0 0)
(-49.8438 -1.32931 0 0.0712502 0 0)
(-49.8462 -1.48933 0 0.0958524 0 0)
(-49.8829 -1.66341 0 0.126702 0 0)
(-49.3679 -0.106488 0 0.00699892 0 0)
(-49.4384 -0.133665 0 0.00596629 0 0)
(-49.5009 -0.214027 0 0.00405896 0 0)
(-49.5349 -0.294808 0 0.00314913 0 0)
(-49.531 -0.356491 0 0.00316591 0 0)
(-49.514 -0.407468 0 0.00375688 0 0)
(-49.4985 -0.459553 0 0.00474007 0 0)
(-49.4863 -0.517375 0 0.00623296 0 0)
(-49.4757 -0.581822 0 0.00847317 0 0)
(-49.4661 -0.65445 0 0.0117506 0 0)
(-49.4584 -0.736504 0 0.0163841 0 0)
(-49.4552 -0.829487 0 0.0227873 0 0)
(-49.4595 -0.93328 0 0.0314237 0 0)
(-49.4744 -1.04929 0 0.0429266 0 0)
(-49.5021 -1.1762 0 0.0578712 0 0)
(-49.5433 -1.31607 0 0.0770977 0 0)
(-49.6016 -1.4651 0 0.10099 0 0)
(-49.6754 -1.6267 0 0.130358 0 0)
(-49.9969 -0.0559014 0 0.00826622 0 0)
(-50.0888 -0.121554 0 0.00561054 0 0)
(-50.1567 -0.197073 0 0.00357463 0 0)
(-50.231 -0.262795 0 0.00291954 0 0)
(-50.3041 -0.323388 0 0.00284206 0 0)
(-50.3673 -0.384392 0 0.00338274 0 0)
(-50.415 -0.44693 0 0.00458282 0 0)
(-50.4487 -0.510803 0 0.00645641 0 0)
(-50.4749 -0.577125 0 0.00909569 0 0)
(-50.4971 -0.648638 0 0.0127271 0 0)
(-50.5146 -0.727202 0 0.0176816 0 0)
(-50.5262 -0.815007 0 0.0244054 0 0)
(-50.5348 -0.912766 0 0.0333513 0 0)
(-50.5451 -1.02239 0 0.0450908 0 0)
(-50.5631 -1.14261 0 0.0600598 0 0)
(-50.5932 -1.27472 0 0.0789067 0 0)
(-50.6403 -1.41432 0 0.101779 0 0)
(-50.7063 -1.56377 0 0.129278 0 0)
(-49.5011 -0.0197966 0 0.00887139 0 0)
(-49.5555 -0.114566 0 0.00723057 0 0)
(-49.5953 -0.187248 0 0.00482335 0 0)
(-49.6393 -0.252621 0 0.00422621 0 0)
(-49.6758 -0.316376 0 0.00458202 0 0)
(-49.7048 -0.378247 0 0.00548669 0 0)
(-49.7271 -0.437192 0 0.0069174 0 0)
(-49.7514 -0.496202 0 0.00900383 0 0)
(-49.7894 -0.560792 0 0.0119983 0 0)
(-49.8444 -0.635478 0 0.0161923 0 0)
(-49.9088 -0.720731 0 0.0218351 0 0)
(-49.9737 -0.815522 0 0.029243 0 0)
(-50.033 -0.91704 0 0.0387187 0 0)
(-50.0884 -1.02526 0 0.0507008 0 0)
(-50.1422 -1.13803 0 0.0654411 0 0)
(-50.2055 -1.25806 0 0.0834687 0 0)
(-50.2802 -1.38122 0 0.104764 0 0)
(-50.3815 -1.51228 0 0.129907 0 0)
(-50.4273 -0.0227612 0 0.0125302 0 0)
(-50.45 -0.0766311 0 0.0135586 0 0)
(-50.4656 -0.148676 0 0.0110314 0 0)
(-50.4935 -0.225659 0 0.00918741 0 0)
(-50.5311 -0.300398 0 0.00865883 0 0)
(-50.5714 -0.368087 0 0.00915627 0 0)
(-50.5992 -0.425455 0 0.010446 0 0)
(-50.6116 -0.475506 0 0.0124027 0 0)
(-50.6199 -0.525226 0 0.015161 0 0)
(-50.637 -0.582602 0 0.0191141 0 0)
(-50.6662 -0.652983 0 0.0246202 0 0)
(-50.7069 -0.738758 0 0.03191 0 0)
(-50.7555 -0.837246 0 0.0411256 0 0)
(-50.812 -0.945399 0 0.0525677 0 0)
(-50.8764 -1.05667 0 0.066403 0 0)
(-50.954 -1.16997 0 0.0830382 0 0)
(-51.0471 -1.27932 0 0.102215 0 0)
(-51.1628 -1.389 0 0.124267 0 0)
(-49.9728 0.00463812 0 0.0134776 0 0)
(-49.9484 -0.0708844 0 0.013483 0 0)
(-49.9447 -0.150849 0 0.00896511 0 0)
(-49.9567 -0.217038 0 0.00669557 0 0)
(-49.9822 -0.282012 0 0.00665889 0 0)
(-50.02 -0.352479 0 0.00798395 0 0)
(-50.0619 -0.423017 0 0.0101585 0 0)
(-50.1062 -0.489053 0 0.0129878 0 0)
(-50.1547 -0.551839 0 0.0164948 0 0)
(-50.2092 -0.616418 0 0.0209592 0 0)
(-50.2688 -0.686869 0 0.0267188 0 0)
(-50.3365 -0.765359 0 0.0340623 0 0)
(-50.4136 -0.849796 0 0.0431173 0 0)
(-50.5059 -0.938327 0 0.0540728 0 0)
(-50.6113 -1.02611 0 0.0668524 0 0)
(-50.7353 -1.11364 0 0.0817075 0 0)
(-50.8694 -1.19624 0 0.0982308 0 0)
(-51.0236 -1.27945 0 0.116905 0 0)
(-49.8655 -0.0531403 0 0.0120554 0 0)
(-49.7537 -0.102316 0 0.012929 0 0)
(-49.6879 -0.159064 0 0.0107957 0 0)
(-49.6895 -0.220682 0 0.00969614 0 0)
(-49.7404 -0.279206 0 0.0100056 0 0)
(-49.8084 -0.329528 0 0.0111584 0 0)
(-49.8793 -0.370844 0 0.0126168 0 0)
(-49.9554 -0.407077 0 0.0143687 0 0)
(-50.0406 -0.444747 0 0.0168235 0 0)
(-50.1358 -0.489922 0 0.0204453 0 0)
(-50.2406 -0.545037 0 0.0254302 0 0)
(-50.357 -0.610123 0 0.031794 0 0)
(-50.4851 -0.68209 0 0.0394484 0 0)
(-50.6257 -0.758516 0 0.048474 0 0)
(-50.7753 -0.834781 0 0.058785 0 0)
(-50.9345 -0.910689 0 0.0706131 0 0)
(-51.0976 -0.982028 0 0.0836665 0 0)
(-51.2688 -1.05287 0 0.0982616 0 0)
(-49.308 -0.134216 0 0.0125142 0 0)
(-49.3529 -0.142354 0 0.0132455 0 0)
(-49.4099 -0.143097 0 0.00911238 0 0)
(-49.4924 -0.161291 0 0.0072405 0 0)
(-49.6148 -0.201854 0 0.00733377 0 0)
(-49.7602 -0.252763 0 0.00845125 0 0)
(-49.8981 -0.303575 0 0.0104258 0 0)
(-50.0228 -0.350926 0 0.0130993 0 0)
(-50.1406 -0.395549 0 0.0162874 0 0)
(-50.2549 -0.439648 0 0.0199846 0 0)
(-50.3675 -0.484616 0 0.0243032 0 0)
(-50.4822 -0.531734 0 0.0294218 0 0)
(-50.6024 -0.580853 0 0.0354357 0 0)
(-50.73 -0.632888 0 0.0424807 0 0)
(-50.8648 -0.686127 0 0.0504604 0 0)
(-51.0083 -0.741135 0 0.0595332 0 0)
(-51.1593 -0.793701 0 0.0693653 0 0)
(-51.32 -0.84582 0 0.0802287 0 0)
(-49.6094 -0.0148197 0 0.0119289 0 0)
(-49.6964 -0.0336287 0 0.011344 0 0)
(-49.756 -0.0517732 0 0.00827747 0 0)
(-49.8122 -0.0742187 0 0.00672062 0 0)
(-49.8868 -0.0974066 0 0.0065615 0 0)
(-49.9936 -0.123092 0 0.00732891 0 0)
(-50.1216 -0.156925 0 0.00871721 0 0)
(-50.2542 -0.197857 0 0.0104628 0 0)
(-50.3851 -0.241048 0 0.0124946 0 0)
(-50.5153 -0.284268 0 0.0149237 0 0)
(-50.6468 -0.32783 0 0.0178768 0 0)
(-50.7814 -0.372875 0 0.0214567 0 0)
(-50.9204 -0.418619 0 0.0256719 0 0)
(-51.0656 -0.464083 0 0.0305482 0 0)
(-51.217 -0.506055 0 0.0359644 0 0)
(-51.3754 -0.544499 0 0.0419904 0 0)
(-51.5391 -0.576455 0 0.0483653 0 0)
(-51.7093 -0.605419 0 0.0552612 0 0)
(-49.5742 -0.014518 0 0.0102512 0 0)
(-49.6679 -0.0488446 0 0.0103098 0 0)
(-49.7436 -0.0658041 0 0.00838322 0 0)
(-49.8168 -0.066246 0 0.00704027 0 0)
(-49.8827 -0.0665634 0 0.00643779 0 0)
(-49.9584 -0.0784168 0 0.00676829 0 0)
(-50.045 -0.103125 0 0.00782969 0 0)
(-50.1379 -0.136124 0 0.00931028 0 0)
(-50.2385 -0.171709 0 0.0110962 0 0)
(-50.3476 -0.206235 0 0.0131976 0 0)
(-50.4645 -0.238292 0 0.0156291 0 0)
(-50.5918 -0.2685 0 0.0184325 0 0)
(-50.7323 -0.29741 0 0.0216196 0 0)
(-50.8867 -0.326101 0 0.0252216 0 0)
(-51.0511 -0.353761 0 0.0291624 0 0)
(-51.2218 -0.380682 0 0.0335154 0 0)
(-51.3933 -0.404568 0 0.0381078 0 0)
(-51.5645 -0.426755 0 0.0430289 0 0)
(-50.216 0.0980842 0 0.0107467 0 0)
(-50.1866 0.0457517 0 0.00825821 0 0)
(-50.2269 0.00375828 0 0.00564231 0 0)
(-50.3361 -0.0165172 0 0.00504482 0 0)
(-50.4428 -0.0289373 0 0.00507253 0 0)
(-50.5251 -0.0422811 0 0.00540302 0 0)
(-50.5951 -0.0597707 0 0.0060636 0 0)
(-50.6691 -0.083579 0 0.00702891 0 0)
(-50.756 -0.111724 0 0.00822899 0 0)
(-50.8551 -0.139274 0 0.0096466 0 0)
(-50.9608 -0.162505 0 0.0112628 0 0)
(-51.0686 -0.181436 0 0.0130618 0 0)
(-51.1778 -0.197797 0 0.0150574 0 0)
(-51.2898 -0.214377 0 0.017336 0 0)
(-51.4068 -0.232089 0 0.0198887 0 0)
(-51.5302 -0.251442 0 0.0227694 0 0)
(-51.6609 -0.270238 0 0.0258562 0 0)
(-51.7989 -0.288104 0 0.0291854 0 0)
(-49.587 -0.021512 0 0.00774732 0 0)
(-49.5586 0.0119927 0 0.00530101 0 0)
(-49.5978 0.0208041 0 0.0037836 0 0)
(-49.7175 0.0197616 0 0.00344582 0 0)
(-49.8633 0.0103086 0 0.00364423 0 0)
(-50.0009 -0.00528549 0 0.00409733 0 0)
(-50.1292 -0.0233294 0 0.0046781 0 0)
(-50.2628 -0.0421675 0 0.00538988 0 0)
(-50.4122 -0.0620641 0 0.00626794 0 0)
(-50.5753 -0.0833609 0 0.00733581 0 0)
(-50.7429 -0.105384 0 0.00859503 0 0)
(-50.9068 -0.127035 0 0.0100502 0 0)
(-51.0655 -0.146657 0 0.0116836 0 0)
(-51.2207 -0.163401 0 0.0134824 0 0)
(-51.3768 -0.17621 0 0.0153788 0 0)
(-51.5347 -0.185837 0 0.0173996 0 0)
(-51.6971 -0.191522 0 0.0194487 0 0)
(-51.861 -0.19526 0 0.0215938 0 0)
(-50.176 0.036683 0 0.00793648 0 0)
(-50.1958 0.0666022 0 0.00556968 0 0)
(-50.2147 0.0790805 0 0.00414882 0 0)
(-50.2625 0.0737552 0 0.00388537 0 0)
(-50.336 0.063239 0 0.0040027 0 0)
(-50.4263 0.0558772 0 0.00416914 0 0)
(-50.5309 0.0512925 0 0.00434473 0 0)
(-50.651 0.0455179 0 0.00462966 0 0)
(-50.7877 0.0360341 0 0.00508452 0 0)
(-50.94 0.0225898 0 0.0057058 0 0)
(-51.1044 0.00682355 0 0.00646058 0 0)
(-51.2763 -0.00888372 0 0.00732479 0 0)
(-51.4517 -0.022409 0 0.00827795 0 0)
(-51.6265 -0.0330016 0 0.00931163 0 0)
(-51.799 -0.0406624 0 0.0103927 0 0)
(-51.9666 -0.0465265 0 0.0115666 0 0)
(-52.1303 -0.0507842 0 0.012806 0 0)
(-52.2882 -0.0545824 0 0.0141185 0 0)
(-50.1526 0.0338886 0 0.00703332 0 0)
(-50.1824 0.0648446 0 0.00441628 0 0)
(-50.2565 0.0714053 0 0.0028495 0 0)
(-50.3833 0.0644361 0 0.00253741 0 0)
(-50.5387 0.0623028 0 0.00254668 0 0)
(-50.7009 0.0694208 0 0.00256051 0 0)
(-50.8531 0.0767652 0 0.00262027 0 0)
(-50.9874 0.0776476 0 0.00281813 0 0)
(-51.1078 0.0725481 0 0.00314664 0 0)
(-51.2234 0.064528 0 0.00357893 0 0)
(-51.3421 0.0554206 0 0.00410428 0 0)
(-51.4679 0.0455608 0 0.00471838 0 0)
(-51.6019 0.0354025 0 0.00540868 0 0)
(-51.743 0.0254848 0 0.00617128 0 0)
(-51.8896 0.0169715 0 0.00697991 0 0)
(-52.0392 0.0103925 0 0.00785266 0 0)
(-52.1907 0.00674779 0 0.00873709 0 0)
(-52.3427 0.0056826 0 0.00963653 0 0)
(-50.1143 0.0126462 0 0.00672221 0 0)
(-50.2147 0.101917 0 0.00424517 0 0)
(-50.3459 0.130302 0 0.00251053 0 0)
(-50.5167 0.135915 0 0.00187054 0 0)
(-50.6947 0.139766 0 0.00157519 0 0)
(-50.8588 0.142634 0 0.00150256 0 0)
(-51.0071 0.140132 0 0.00158751 0 0)
(-51.144 0.131121 0 0.00176313 0 0)
(-51.2756 0.11891 0 0.00199342 0 0)
(-51.4075 0.107842 0 0.0022614 0 0)
(-51.5427 0.100124 0 0.0025474 0 0)
(-51.6815 0.0955951 0 0.00284027 0 0)
(-51.8236 0.0934383 0 0.00313774 0 0)
(-51.9694 0.0928548 0 0.00344848 0 0)
(-52.1184 0.0935096 0 0.00376883 0 0)
(-52.2696 0.0949712 0 0.00412289 0 0)
(-52.4209 0.0975066 0 0.00449105 0 0)
(-52.5709 0.100776 0 0.00486957 0 0)
(-49.7916 0.0919168 0 0.00488822 0 0)
(-49.9747 0.142778 0 0.00270398 0 0)
(-50.1227 0.156354 0 0.00160456 0 0)
(-50.2392 0.157957 0 0.00127055 0 0)
(-50.3367 0.163783 0 0.00110925 0 0)
(-50.4354 0.170172 0 0.00105334 0 0)
(-50.5481 0.171703 0 0.00108349 0 0)
(-50.6755 0.167422 0 0.00117573 0 0)
(-50.8142 0.160456 0 0.00131185 0 0)
(-50.9626 0.154243 0 0.0014763 0 0)
(-51.1203 0.150057 0 0.00165526 0 0)
(-51.2859 0.147382 0 0.00184869 0 0)
(-51.4564 0.145437 0 0.00206241 0 0)
(-51.6293 0.143961 0 0.0022989 0 0)
(-51.8012 0.14336 0 0.00254433 0 0)
(-51.97 0.143758 0 0.00280543 0 0)
(-52.1322 0.145508 0 0.00306327 0 0)
(-52.2878 0.148119 0 0.00331717 0 0)
(-49.138 0.0900052 0 0.00459422 0 0)
(-49.3673 0.147855 0 0.00202683 0 0)
(-49.599 0.157801 0 0.00106272 0 0)
(-49.7942 0.163114 0 0.000694547 0 0)
(-49.9412 0.175844 0 0.000368468 0 0)
(-50.0654 0.189692 0 0.00013831 0 0)
(-50.1953 0.197365 0 4.84696e-05 0 0)
(-50.341 0.198321 0 4.69754e-05 0 0)
(-50.4984 0.196294 0 7.79657e-05 0 0)
(-50.6619 0.195142 0 0.000108216 0 0)
(-50.8279 0.196429 0 0.000116188 0 0)
(-50.9944 0.199724 0 0.000100997 0 0)
(-51.1616 0.203693 0 8.21038e-05 0 0)
(-51.3293 0.20748 0 7.75226e-05 0 0)
(-51.4986 0.210517 0 9.58702e-05 0 0)
(-51.6663 0.213034 0 0.000144087 0 0)
(-51.833 0.215174 0 0.000214039 0 0)
(-51.9918 0.217433 0 0.000299003 0 0)
(-49.9058 0.164998 0 0.00301284 0 0)
(-50.2333 0.227496 0 0.00063871 0 0)
(-50.5438 0.224153 0 0.000268781 0 0)
(-50.8097 0.221666 0 0.000170898 0 0)
(-51.0158 0.228408 0 5.23784e-05 0 0)
(-51.1745 0.23706 0 -8.61931e-05 0 0)
(-51.3007 0.242289 0 -0.000178449 0 0)
(-51.4003 0.243564 0 -0.000207363 0 0)
(-51.4751 0.242509 0 -0.000193268 0 0)
(-51.5305 0.241312 0 -0.000164243 0 0)
(-51.572 0.241287 0 -0.00013965 0 0)
(-51.6058 0.242915 0 -0.000130152 0 0)
(-51.633 0.245609 0 -0.000132192 0 0)
(-51.658 0.24916 0 -0.000141448 0 0)
(-51.6772 0.252603 0 -0.000148878 0 0)
(-51.6962 0.25601 0 -0.000144346 0 0)
(-51.7048 0.258689 0 -0.000122163 0 0)
(-51.7155 0.261268 0 -0.000100526 0 0)
(-48.7686 0.211775 0 0.00204168 0 0)
(-47.2371 0.230314 0 0.00030258 0 0)
(-45.7678 0.224826 0 -4.2817e-05 0 0)
(-44.3117 0.223209 0 -0.000247885 0 0)
(-42.8683 0.224324 0 -0.000423244 0 0)
(-41.4676 0.222355 0 -0.000512402 0 0)
(-40.1415 0.215379 0 -0.000517436 0 0)
(-38.9087 0.20488 0 -0.000484114 0 0)
(-37.7704 0.193997 0 -0.000446232 0 0)
(-36.7169 0.185614 0 -0.000421871 0 0)
(-35.7299 0.180766 0 -0.000428035 0 0)
(-34.7954 0.178799 0 -0.000470204 0 0)
(-33.8991 0.178153 0 -0.000531852 0 0)
(-33.0416 0.177733 0 -0.000593404 0 0)
(-32.2139 0.176641 0 -0.000639479 0 0)
(-31.4291 0.174936 0 -0.000665262 0 0)
(-30.6693 0.172419 0 -0.000672656 0 0)
(-29.9621 0.16976 0 -0.000674626 0 0)
(0.00132702 -0.00207317 3.76295e-23 0.00265017 -9.70186e-23 4.42732e-39)
(0.0151068 -0.00829128 -1.28272e-22 0.00210125 1.32685e-22 4.36201e-39)
(0.0472196 -0.0158212 0 0.00312332 0 0)
(0.101306 -0.0252707 0 0.00461238 0 0)
(0.180453 -0.0369654 0 0.00637915 0 0)
(0.289955 -0.0515397 5.13094e-22 0.00841733 -1.2763e-22 4.09935e-39)
(0.434596 -0.0691067 0 0.0106319 0 0)
(0.619774 -0.0894856 0 0.0128816 0 0)
(0.849746 -0.112009 0 0.0149811 0 0)
(1.12808 -0.135681 0 0.0167374 0 0)
(1.4561 -0.159176 -8.6307e-22 0.0179765 9.29363e-23 3.7871e-39)
(1.83262 -0.180892 0 0.0185548 0 0)
(2.25247 -0.199089 0 0.0183817 0 0)
(2.70691 -0.211806 0 0.0173994 0 0)
(3.18172 -0.216781 0 0.0155942 0 0)
(3.66089 -0.211799 -8.73452e-22 0.0130665 2.12149e-25 3.49415e-39)
(4.12089 -0.19465 0 0.010046 0 0)
(4.53235 -0.166665 0 0.00707218 0 0)
(4.86944 -0.131756 0 0.00456879 0 0)
(5.11311 -0.0968047 0 0.00307022 0 0)
(5.25369 -0.0710185 0 0.00372789 0 0)
(5.29244 -0.0639647 0 0.00812914 0 0)
(5.23873 -0.0843625 0 0.0166486 0 0)
(5.09381 -0.144936 -3.33167e-22 0.030268 -1.14475e-22 3.06326e-39)
(4.80504 -0.238174 2.35641e-22 0.0667964 8.39173e-23 3.01172e-39)
(4.22866 -0.274038 -7.21783e-23 0.133267 -5.67625e-23 2.96001e-39)
(3.22535 -0.0519864 1.71506e-22 0.117898 -9.88704e-23 2.90828e-39)
(1.61422 0.561536 0 -0.0180815 0 0)
(-0.761919 1.1796 0 -0.0692228 0 0)
(-3.50491 1.35174 -1.64472e-21 -0.0554331 5.68596e-22 2.75126e-39)
(-6.22919 1.33391 -2.43606e-21 -0.0474709 5.48344e-22 2.69919e-39)
(-8.86915 1.28624 0 -0.0383781 0 0)
(-11.4062 1.21095 0 -0.0288064 0 0)
(-13.7866 1.11616 -5.14987e-21 -0.0191067 4.25637e-22 2.54916e-39)
(-15.9773 1.0062 0 -0.00973208 0 0)
(-17.9399 0.883148 0 -0.00109426 0 0)
(-19.6405 0.749631 7.53976e-21 0.00649708 -2.38503e-22 2.40879e-39)
(-21.0472 0.607551 0 0.0128039 0 0)
(-22.1317 0.459282 8.48777e-21 0.0176755 -9.52145e-23 2.3206e-39)
(-22.8713 0.307363 1.73728e-20 0.0210243 -4.32102e-23 9.11246e-39)
(-23.2495 0.154817 0 0.0228268 0 0)
(-23.2579 0.00499934 0 0.0231131 0 0)
(-22.8969 -0.138458 0 0.0219796 0 0)
(-22.1793 -0.271836 0 0.019603 0 0)
(-21.1276 -0.391659 0 0.0162439 0 0)
(-19.7712 -0.494689 1.1085e-20 0.0122092 6.34637e-22 8.17585e-39)
(-18.15 -0.578976 8.86051e-21 0.00781626 6.78277e-22 8.03154e-39)
(-16.3144 -0.644148 6.4706e-21 0.00330413 6.98186e-22 7.88986e-39)
(-14.3142 -0.690464 0 -0.00119083 0 0)
(-12.198 -0.718854 -1.52587e-21 -0.00550907 -6.71154e-22 7.61409e-39)
(-10.0155 -0.730273 0 -0.00950673 0 0)
(-7.81173 -0.725843 -3.13513e-21 -0.0130505 5.72549e-22 7.34688e-39)
(-5.62858 -0.708011 -5.20699e-21 -0.0160537 5.0538e-22 7.216e-39)
(-3.50339 -0.678442 0 -0.0184683 0 0)
(-1.467 -0.639747 0 -0.0202935 0 0)
(0.455873 -0.594111 0 -0.0215569 0 0)
(2.24564 -0.543524 -1.10124e-20 -0.0223055 1.97946e-22 6.7083e-39)
(3.88829 -0.489797 0 -0.0226 0 0)
(5.37342 -0.434564 0 -0.0225135 0 0)
(6.69617 -0.37877 0 -0.0221134 0 0)
(7.85396 -0.323571 0 -0.0214893 0 0)
(8.84574 -0.269352 0 -0.0207157 0 0)
(9.67297 -0.216545 0 -0.0198737 0 0)
(10.3363 -0.165119 0 -0.0190179 0 0)
(10.8364 -0.115061 0 -0.0181872 0 0)
(11.1743 -0.0660651 1.05981e-20 -0.0173734 2.6489e-22 5.64791e-39)
(11.3504 -0.0185063 0 -0.0165759 0 0)
(11.3662 0.0274608 0 -0.0157326 0 0)
(11.2263 0.0708989 -7.89712e-21 -0.0148236 -3.37599e-22 5.32008e-39)
(10.9382 0.11086 -6.86496e-21 -0.0138123 -3.52088e-22 5.21377e-39)
(10.5135 0.146243 0 -0.0127059 0 0)
(9.96732 0.176163 4.73301e-21 -0.011515 3.62545e-22 5.00532e-39)
(9.31749 0.20011 -3.67915e-21 -0.0102898 -3.58661e-22 4.9032e-39)
(8.58292 0.217879 0 -0.00906301 0 0)
(7.78312 0.22973 1.69054e-21 -0.0078775 3.35629e-22 4.70353e-39)
(6.93747 0.235946 0 -0.00675839 0 0)
(6.06435 0.237267 0 -0.00573038 0 0)
(5.18092 0.234337 8.08485e-22 -0.00480702 -2.76911e-22 4.4142e-39)
(4.30122 0.227807 0 -0.00399487 0 0)
(3.43647 0.218784 -2.09042e-21 -0.00329291 2.32766e-22 4.22827e-39)
(2.59698 0.207794 0 -0.00269514 0 0)
(1.78854 0.195409 3.0782e-21 -0.00219278 -1.90408e-22 4.04793e-39)
(1.0149 0.182146 3.47534e-21 -0.00177556 -1.70847e-22 3.96006e-39)
(0.279833 0.168501 3.81601e-21 -0.00143122 -1.52596e-22 3.87391e-39)
(-0.414361 0.15482 8.21242e-21 -0.00114863 -2.7145e-22 1.51578e-38)
(-1.06679 0.141367 -8.70309e-21 -0.000917674 2.40488e-22 1.48265e-38)
(-1.67743 0.128327 0 -0.000729568 0 0)
(-2.24693 0.115831 0 -0.000576836 0 0)
(-2.77639 0.103964 0 -0.000453194 0 0)
(-3.26723 0.0927774 -9.96622e-21 -0.000353403 1.42402e-22 1.35635e-38)
(-3.72111 0.0822992 -1.01485e-20 -0.000273122 1.23554e-22 1.32626e-38)
(-4.13981 0.0725377 1.0291e-20 -0.000208775 -1.06639e-22 1.29673e-38)
(-4.52521 0.063486 0 -0.000157435 0 0)
(-4.87919 0.055125 -1.04771e-20 -0.000116712 7.79473e-23 1.23932e-38)
(-5.20365 0.0474264 -1.05296e-20 -8.4657e-05 6.58578e-23 1.21142e-38)
(-5.5004 0.040355 -1.05599e-20 -5.96781e-05 5.50765e-23 1.18404e-38)
(-5.77119 0.0338714 0 -4.04676e-05 0 0)
(-6.01766 0.0279341 0 -2.59462e-05 0 0)
(-6.24134 0.0225018 0 -1.52177e-05 0 0)
(-6.44365 0.0175353 -1.05155e-20 -7.5339e-06 2.24925e-23 1.07951e-38)
(-6.62588 0.0129979 0 -2.26996e-06 0 0)
(-6.78925 0.00885706 0 1.09736e-06 0 0)
(-6.93487 0.00508334 1.03634e-20 3.00443e-06 -6.283e-24 1.00611e-38)
(-7.06376 0.00165181 0 3.81423e-06 0 0)
(-7.1769 -0.00145869 0 3.83076e-06 0 0)
(-7.27519 -0.00426706 1.01487e-20 3.29886e-06 4.99217e-24 9.36741e-39)
(-7.3595 -0.00678658 0 2.42495e-06 0 0)
(-7.43066 -0.00903025 0 1.36781e-06 0 0)
(-7.4895 -0.0110139 -9.8933e-21 2.43347e-07 -1.25525e-23 8.71206e-39)
(-7.53678 -0.0127452 -9.80189e-21 -8.56381e-07 -1.43805e-23 8.50179e-39)
(-7.57337 -0.0142605 0 -1.91286e-06 0 0)
(-7.59974 -0.0155842 9.61243e-21 -2.8974e-06 1.72509e-23 8.0931e-39)
(-7.61662 -0.0167236 0 -3.76055e-06 0 0)
(-7.62467 -0.017715 -9.41625e-21 -4.4538e-06 -1.92582e-23 7.69978e-39)
(-7.62458 -0.0185444 0 -4.93839e-06 0 0)
(-7.61733 -0.019143 -9.21611e-21 -5.23071e-06 -2.04472e-23 7.32135e-39)
(-7.60385 -0.0194879 -9.11567e-21 -5.39237e-06 -2.06387e-23 7.13757e-39)
(-7.58509 -0.0195952 0 -5.45961e-06 0 0)
(-7.56198 -0.019487 0 -5.46676e-06 0 0)
(-7.53539 -0.0191836 0 -5.46774e-06 0 0)
(-7.50609 -0.0187166 0 -5.49698e-06 0 0)
(-7.47473 -0.0181311 0 -5.54357e-06 0 0)
(-7.44187 -0.0174629 0 -5.59184e-06 0 0)
(-7.40799 -0.0167409 0 -5.62655e-06 0 0)
(-7.3735 -0.0159884 -8.35061e-21 -5.63462e-06 -1.5983e-23 5.79004e-39)
(-7.33875 -0.0152236 8.26288e-21 -5.60925e-06 1.51306e-23 5.63612e-39)
(-7.30402 -0.0144614 0 -5.54693e-06 0 0)
(-7.26952 -0.0137143 0 -5.44695e-06 0 0)
(-7.23543 -0.0129914 0 -5.31137e-06 0 0)
(-7.20187 -0.0123 0 -5.14358e-06 0 0)
(-7.16894 -0.0116446 1.57091e-20 -4.94863e-06 2.25634e-23 1.96455e-38)
(-7.1367 -0.0110272 0 -4.73285e-06 0 0)
(-7.10519 -0.0104488 -1.54093e-20 -4.50273e-06 -2.00522e-23 1.85662e-38)
(-7.07444 -0.00990914 1.52646e-20 -4.26402e-06 1.8926e-23 1.80429e-38)
(-7.04446 -0.00940766 0 -4.02185e-06 0 0)
(-7.01524 -0.00894239 0 -3.7808e-06 0 0)
(-6.98678 -0.00851025 0 -3.54485e-06 0 0)
(-6.95905 -0.00810779 -1.47179e-20 -3.31705e-06 -1.51931e-23 1.60557e-38)
(-6.93206 -0.00773224 -1.45885e-20 -3.09948e-06 -1.44185e-23 1.55845e-38)
(-6.90578 -0.00738121 0 -2.89351e-06 0 0)
(-6.8802 -0.00705156 -1.43376e-20 -2.69995e-06 -1.30209e-23 1.46717e-38)
(-6.8553 -0.00673832 -1.42158e-20 -2.51921e-06 -1.23819e-23 1.42297e-38)
(-6.8311 -0.00643544 1.40964e-20 -2.35129e-06 1.1768e-23 1.37972e-38)
(-6.80758 -0.00613799 0 -2.1961e-06 0 0)
(-6.78477 -0.00584466 0 -2.05357e-06 0 0)
(-6.76268 -0.00555856 1.37515e-20 -1.9237e-06 1.00269e-23 1.25547e-38)
(-6.74129 -0.0052859 0 -1.80626e-06 0 0)
(-6.72057 -0.00503334 0 -1.70095e-06 0 0)
(-6.70048 -0.00480538 0 -1.60738e-06 0 0)
(-6.68094 -0.0046035 0 -1.52519e-06 0 0)
(-6.66187 -0.00442607 -1.32169e-20 -1.45364e-06 -7.83947e-24 1.06591e-38)
(-6.64319 -0.00427034 -1.31151e-20 -1.39206e-06 -7.53577e-24 1.0305e-38)
(-6.62482 -0.00413286 0 -1.33939e-06 0 0)
(-6.60669 -0.0040119 -1.29157e-20 -1.29536e-06 -7.02683e-24 9.6207e-39)
(-6.58871 -0.00390565 0 -1.25924e-06 0 0)
(-6.57084 -0.00381523 0 -1.232e-06 0 0)
(-6.55297 -0.00373992 -1.26259e-20 -1.21311e-06 -6.47959e-24 8.65231e-39)
(-6.53507 -0.00368322 0 -1.20516e-06 0 0)
(-6.51696 -0.00364403 -1.24381e-20 -1.20733e-06 -6.27024e-24 8.04398e-39)
(-6.4987 -0.00362827 0 -1.22473e-06 0 0)
(-6.47992 -0.00363439 0 -1.25613e-06 0 0)
(-6.46086 -0.0036708 -1.21632e-20 -1.3106e-06 -6.25531e-24 7.18508e-39)
(-6.44074 -0.00373884 0 -1.38841e-06 0 0)
(-6.42028 -0.0038448 -1.19836e-20 -1.50232e-06 -6.51301e-24 6.64693e-39)
(-6.39779 -0.0040079 0 -1.66555e-06 0 0)
(-6.37503 -0.0042083 0 -1.88106e-06 0 0)
(-6.34842 -0.00453728 0 -2.22913e-06 0 0)
(-6.32199 -0.00485987 1.16294e-20 -2.62101e-06 8.15348e-24 5.64962e-39)
(-6.2883 -0.00551707 0 -3.44517e-06 0 0)
(-6.25574 -0.00596527 -1.14518e-20 -4.11219e-06 -9.9743e-24 5.18897e-39)
(-6.20996 -0.00734358 0 -6.40217e-06 0 0)
(-6.16621 -0.00779961 0 -7.25605e-06 0 0)
(-6.10036 -0.0109164 0 -1.49705e-05 0 0)
(-6.03267 -0.0108498 0 -1.4224e-05 0 0)
(-5.93575 -0.0185385 0 -4.64094e-05 0 0)
(-5.80691 -0.0161289 0 -3.08606e-05 0 0)
(-5.67044 -0.0370503 0 -0.000204541 0 0)